

################################################################################
##################################    Init    ##################################
################################################################################
units           real
atom_style      full
pair_style      lj/cut/coul/long 12.0  12.0
kspace_style    pppm 1e-4
bond_style      harmonic
angle_style     harmonic
dihedral_style  fourier
improper_style  cvff
special_bonds   amber
pair_modify     mix arithmetic
read_data       temp.lmps
  orthogonal box = (-74.2718 -74.2718 -74.2718) to (74.2718 74.2718 74.2718)
  2 by 2 by 4 MPI processor grid
  reading atoms ...
  274 atoms
  reading velocities ...
  274 velocities
  scanning bonds ...
  4 = max bonds/atom
  scanning angles ...
  6 = max angles/atom
  scanning dihedrals ...
  15 = max dihedrals/atom
  reading bonds ...
  273 bonds
  reading angles ...
  528 angles
  reading dihedrals ...
  753 dihedrals
  4 = max # of 1-2 neighbors
  6 = max # of 1-3 neighbors
  12 = max # of 1-4 neighbors
  16 = max # of special neighbors
  special bonds CPU = 0.00136113 secs
  read_data CPU = 0.012877 secs
################################################################################

min_style cg
minimize 1e-05 1e-05 10000 100000
WARNING: Using 'neigh_modify every 1 delay 0 check yes' setting during minimization (../min.cpp:190)
PPPM initialization ...
  using 12-bit tables for long-range coulomb (../kspace.cpp:332)
  G vector (1/distance) = 0.121
  grid = 18 18 18
  stencil order = 5
  estimated absolute RMS force accuracy = 0.0312651
  estimated relative force accuracy = 9.41541e-05
  using double precision KISS FFT
  3d grid and FFT values/proc = 1960 648
Neighbor list info ...
  update every 1 steps, delay 0 steps, check yes
  max neighbors/atom: 2000, page size: 100000
  master list distance cutoff = 14
  ghost atom cutoff = 14
  binsize = 7, bins = 22 22 22
  1 neighbor lists, perpetual/occasional/extra = 1 0 0
  (1) pair lj/cut/coul/long, perpetual
      attributes: half, newton on
      pair build: half/bin/newton
      stencil: half/bin/3d/newton
      bin: standard
Per MPI rank memory allocation (min/avg/max) = 15.14 | 15.32 | 15.74 Mbytes
Step Temp E_pair E_mol TotEng Press 
       0    1188.3034   -511.26595    119.25889     574.9881    12.532683 
       9    1188.3034   -512.26223      118.039    572.77192    12.803749 
Loop time of 0.097755 on 16 procs for 9 steps with 274 atoms

92.7% CPU use with 16 MPI tasks x no OpenMP threads

Minimization stats:
  Stopping criterion = linesearch alpha is zero
  Energy initial, next-to-last, final = 
        -392.007058701     -394.223236479     -394.223236479
  Force two-norm initial, final = 28.4619 22.4728
  Force max component initial, final = 5.8264 6.72473
  Final line search alpha, max atom move = 1.66355e-11 1.11869e-10
  Iterations, force evaluations = 9 75

MPI task timing breakdown:
Section |  min time  |  avg time  |  max time  |%varavg| %total
---------------------------------------------------------------
Pair    | 9.5367e-06 | 0.0054734  | 0.043278   |  14.8 |  5.60
Bond    | 2.5034e-05 | 0.0012339  | 0.0074174  |   6.1 |  1.26
Kspace  | 0.044343   | 0.088743   | 0.095866   |   4.4 | 90.78
Neigh   | 0          | 0          | 0          |   0.0 |  0.00
Comm    | 2.5511e-05 | 0.00087273 | 0.0018818  |   0.0 |  0.89
Output  | 0          | 0          | 0          |   0.0 |  0.00
Modify  | 0          | 0          | 0          |   0.0 |  0.00
Other   |            | 0.001432   |            |       |  1.46

Nlocal:    17.125 ave 105 max 0 min
Histogram: 11 1 1 1 0 0 0 1 0 1
Nghost:    103.5 ave 258 max 0 min
Histogram: 8 0 0 0 0 1 1 2 2 2
Neighs:    904.5 ave 7274 max 0 min
Histogram: 12 1 0 2 0 0 0 0 0 1

Total # of neighbors = 14472
Ave neighs/atom = 52.8175
Ave special neighs/atom = 11.4015
Neighbor list builds = 0
Dangerous builds = 0
timestep        1
fix             pysimm_md all nvt temp 300 300 100
run             5000
PPPM initialization ...
  using 12-bit tables for long-range coulomb (../kspace.cpp:332)
  G vector (1/distance) = 0.121
  grid = 18 18 18
  stencil order = 5
  estimated absolute RMS force accuracy = 0.0312651
  estimated relative force accuracy = 9.41541e-05
  using double precision KISS FFT
  3d grid and FFT values/proc = 1960 648
Per MPI rank memory allocation (min/avg/max) = 14.01 | 14.19 | 14.62 Mbytes
Step Temp E_pair E_mol TotEng Press 
       9    1188.3034   -512.26223      118.039    572.77192    12.803749 
    5009    293.58317   -515.14497    261.76344   -14.474959    -2.378774 
Loop time of 2.75359 on 16 procs for 5000 steps with 274 atoms

Performance: 156.886 ns/day, 0.153 hours/ns, 1815.811 timesteps/s
94.7% CPU use with 16 MPI tasks x no OpenMP threads

MPI task timing breakdown:
Section |  min time  |  avg time  |  max time  |%varavg| %total
---------------------------------------------------------------
Pair    | 0.00055528 | 0.12605    | 0.57834    |  51.7 |  4.58
Bond    | 0.00083756 | 0.042229   | 0.15008    |  25.1 |  1.53
Kspace  | 1.8184     | 2.3238     | 2.4908     |  13.8 | 84.39
Neigh   | 0.031862   | 0.033811   | 0.035599   |   0.7 |  1.23
Comm    | 0.0054846  | 0.086685   | 0.22321    |  28.6 |  3.15
Output  | 2.0981e-05 | 2.1875e-05 | 2.6941e-05 |   0.0 |  0.00
Modify  | 0.027479   | 0.12823    | 0.22866    |  25.7 |  4.66
Other   |            | 0.01274    |            |       |  0.46

Nlocal:    17.125 ave 109 max 0 min
Histogram: 11 1 1 0 1 0 1 0 0 1
Nghost:    96.875 ave 269 max 0 min
Histogram: 8 0 0 0 0 1 3 3 0 1
Neighs:    928.562 ave 8572 max 0 min
Histogram: 12 1 2 0 0 0 0 0 0 1

Total # of neighbors = 14857
Ave neighs/atom = 54.2226
Ave special neighs/atom = 11.4015
Neighbor list builds = 139
Dangerous builds = 0
unfix pysimm_md
write_dump all custom pysimm.dump.tmp id q x y z vx vy vz
quit


################################################################################
##################################    Init    ##################################
################################################################################
units           real
atom_style      full
pair_style      lj/cut/coul/long 12.0  12.0
kspace_style    pppm 1e-4
bond_style      harmonic
angle_style     harmonic
dihedral_style  fourier
improper_style  cvff
special_bonds   amber
pair_modify     mix arithmetic
read_data       temp.lmps
  orthogonal box = (-54.8136 -54.8136 -54.8136) to (54.8136 54.8136 54.8136)
  2 by 2 by 4 MPI processor grid
  reading atoms ...
  287 atoms
  reading velocities ...
  287 velocities
  scanning bonds ...
  4 = max bonds/atom
  scanning angles ...
  6 = max angles/atom
  scanning dihedrals ...
  15 = max dihedrals/atom
  reading bonds ...
  286 bonds
  reading angles ...
  553 angles
  reading dihedrals ...
  778 dihedrals
  4 = max # of 1-2 neighbors
  6 = max # of 1-3 neighbors
  12 = max # of 1-4 neighbors
  16 = max # of special neighbors
  special bonds CPU = 0.00075388 secs
  read_data CPU = 0.0120409 secs
################################################################################

min_style cg
minimize 1e-05 1e-05 10000 100000
WARNING: Using 'neigh_modify every 1 delay 0 check yes' setting during minimization (../min.cpp:190)
PPPM initialization ...
  using 12-bit tables for long-range coulomb (../kspace.cpp:332)
  G vector (1/distance) = 0.135612
  grid = 16 16 16
  stencil order = 5
  estimated absolute RMS force accuracy = 0.0308434
  estimated relative force accuracy = 9.28841e-05
  using double precision KISS FFT
  3d grid and FFT values/proc = 1521 256
Neighbor list info ...
  update every 1 steps, delay 0 steps, check yes
  max neighbors/atom: 2000, page size: 100000
  master list distance cutoff = 14
  ghost atom cutoff = 14
  binsize = 7, bins = 16 16 16
  1 neighbor lists, perpetual/occasional/extra = 1 0 0
  (1) pair lj/cut/coul/long, perpetual
      attributes: half, newton on
      pair build: half/bin/newton
      stencil: half/bin/3d/newton
      bin: standard
Per MPI rank memory allocation (min/avg/max) = 15.1 | 15.3 | 15.7 Mbytes
Step Temp E_pair E_mol TotEng Press 
       0     714.9006      -658.23    122.96343    74.194544    22.726367 
      57     714.9006    -666.2704    105.51589    48.706595    21.300656 
Loop time of 0.131885 on 16 procs for 57 steps with 287 atoms

95.1% CPU use with 16 MPI tasks x no OpenMP threads

Minimization stats:
  Stopping criterion = linesearch alpha is zero
  Energy initial, next-to-last, final = 
        -535.266566655     -560.754515371     -560.754515371
  Force two-norm initial, final = 34.5876 20.7384
  Force max component initial, final = 5.73739 4.81448
  Final line search alpha, max atom move = 2.0794e-11 1.00112e-10
  Iterations, force evaluations = 57 169

MPI task timing breakdown:
Section |  min time  |  avg time  |  max time  |%varavg| %total
---------------------------------------------------------------
Pair    | 2.1935e-05 | 0.016254   | 0.055269   |  16.7 | 12.32
Bond    | 4.3392e-05 | 0.0028827  | 0.010828   |   7.3 |  2.19
Kspace  | 0.060746   | 0.10653    | 0.12686    |   7.8 | 80.77
Neigh   | 0.00034904 | 0.00037862 | 0.00041008 |   0.0 |  0.29
Comm    | 0.00011849 | 0.0023775  | 0.0042911  |   3.3 |  1.80
Output  | 0          | 0          | 0          |   0.0 |  0.00
Modify  | 0          | 0          | 0          |   0.0 |  0.00
Other   |            | 0.003462   |            |       |  2.63

Nlocal:    17.9375 ave 68 max 0 min
Histogram: 10 0 0 1 1 0 1 0 2 1
Nghost:    116.312 ave 287 max 0 min
Histogram: 8 0 0 0 0 0 2 3 1 2
Neighs:    1205.5 ave 4027 max 0 min
Histogram: 10 0 0 0 0 0 1 2 2 1

Total # of neighbors = 19288
Ave neighs/atom = 67.2056
Ave special neighs/atom = 11.3798
Neighbor list builds = 1
Dangerous builds = 0
timestep        1
fix             pysimm_md all nvt temp 300 300 100
run             5000
PPPM initialization ...
  using 12-bit tables for long-range coulomb (../kspace.cpp:332)
  G vector (1/distance) = 0.135612
  grid = 16 16 16
  stencil order = 5
  estimated absolute RMS force accuracy = 0.0308434
  estimated relative force accuracy = 9.28841e-05
  using double precision KISS FFT
  3d grid and FFT values/proc = 1521 256
Per MPI rank memory allocation (min/avg/max) = 13.97 | 14.19 | 14.57 Mbytes
Step Temp E_pair E_mol TotEng Press 
      57     714.9006    -666.2704    105.51589    48.706595    21.300656 
    5057    311.50006   -655.25115    284.24451   -105.44919    18.922741 
Loop time of 2.19029 on 16 procs for 5000 steps with 287 atoms

Performance: 197.234 ns/day, 0.122 hours/ns, 2282.799 timesteps/s
93.7% CPU use with 16 MPI tasks x no OpenMP threads

MPI task timing breakdown:
Section |  min time  |  avg time  |  max time  |%varavg| %total
---------------------------------------------------------------
Pair    | 0.00047255 | 0.15454    | 0.60779    |  58.4 |  7.06
Bond    | 0.00096607 | 0.043661   | 0.20104    |  31.3 |  1.99
Kspace  | 1.2316     | 1.7053     | 1.8756     |  18.5 | 77.86
Neigh   | 0.023764   | 0.024924   | 0.025828   |   0.5 |  1.14
Comm    | 0.012513   | 0.096894   | 0.25786    |  29.4 |  4.42
Output  | 1.9789e-05 | 2.0251e-05 | 2.5988e-05 |   0.0 |  0.00
Modify  | 0.027464   | 0.1496     | 0.26174    |  28.1 |  6.83
Other   |            | 0.01533    |            |       |  0.70

Nlocal:    17.9375 ave 90 max 0 min
Histogram: 12 0 0 0 0 2 0 0 0 2
Nghost:    83.0625 ave 247 max 0 min
Histogram: 8 0 0 1 0 2 2 2 0 1
Neighs:    1014.62 ave 7231 max 0 min
Histogram: 12 0 1 0 1 1 0 0 0 1

Total # of neighbors = 16234
Ave neighs/atom = 56.5645
Ave special neighs/atom = 11.3798
Neighbor list builds = 123
Dangerous builds = 0
unfix pysimm_md
write_dump all custom pysimm.dump.tmp id q x y z vx vy vz
quit


################################################################################
##################################    Init    ##################################
################################################################################
units           real
atom_style      full
pair_style      lj/cut/coul/long 12.0  12.0
kspace_style    pppm 1e-4
bond_style      harmonic
angle_style     harmonic
dihedral_style  fourier
improper_style  cvff
special_bonds   amber
pair_modify     mix arithmetic
read_data       temp.lmps
  orthogonal box = (-78.9255 -78.9255 -78.9255) to (78.9255 78.9255 78.9255)
  2 by 2 by 4 MPI processor grid
  reading atoms ...
  324 atoms
  reading velocities ...
  324 velocities
  scanning bonds ...
  4 = max bonds/atom
  scanning angles ...
  6 = max angles/atom
  scanning dihedrals ...
  15 = max dihedrals/atom
  reading bonds ...
  323 bonds
  reading angles ...
  626 angles
  reading dihedrals ...
  886 dihedrals
  4 = max # of 1-2 neighbors
  6 = max # of 1-3 neighbors
  12 = max # of 1-4 neighbors
  16 = max # of special neighbors
  special bonds CPU = 0.000801086 secs
  read_data CPU = 0.0137141 secs
################################################################################

min_style cg
minimize 1e-05 1e-05 10000 100000
WARNING: Using 'neigh_modify every 1 delay 0 check yes' setting during minimization (../min.cpp:190)
PPPM initialization ...
  using 12-bit tables for long-range coulomb (../kspace.cpp:332)
  G vector (1/distance) = 0.116332
  grid = 18 18 18
  stencil order = 5
  estimated absolute RMS force accuracy = 0.036927
  estimated relative force accuracy = 0.000111205
  using double precision KISS FFT
  3d grid and FFT values/proc = 1960 648
Neighbor list info ...
  update every 1 steps, delay 0 steps, check yes
  max neighbors/atom: 2000, page size: 100000
  master list distance cutoff = 14
  ghost atom cutoff = 14
  binsize = 7, bins = 23 23 23
  1 neighbor lists, perpetual/occasional/extra = 1 0 0
  (1) pair lj/cut/coul/long, perpetual
      attributes: half, newton on
      pair build: half/bin/newton
      stencil: half/bin/3d/newton
      bin: standard
Per MPI rank memory allocation (min/avg/max) = 15.14 | 15.38 | 15.75 Mbytes
Step Temp E_pair E_mol TotEng Press 
       0    853.91865   -674.46882    151.40142    299.08688    10.218027 
       4    853.91865   -674.38455    148.37638    296.14611    10.852003 
Loop time of 0.0711402 on 16 procs for 4 steps with 324 atoms

96.8% CPU use with 16 MPI tasks x no OpenMP threads

Minimization stats:
  Stopping criterion = linesearch alpha is zero
  Energy initial, next-to-last, final = 
        -523.067401118     -526.008170979     -526.008170979
  Force two-norm initial, final = 57.4998 39.5554
  Force max component initial, final = 8.62882 9.39158
  Final line search alpha, max atom move = 4.78228e-12 4.49131e-11
  Iterations, force evaluations = 4 69

MPI task timing breakdown:
Section |  min time  |  avg time  |  max time  |%varavg| %total
---------------------------------------------------------------
Pair    | 6.9141e-06 | 0.0080131  | 0.028846   |  11.0 | 11.26
Bond    | 2.5034e-05 | 0.0012563  | 0.0038712  |   3.8 |  1.77
Kspace  | 0.035691   | 0.059576   | 0.069263   |   4.7 | 83.74
Neigh   | 0          | 0          | 0          |   0.0 |  0.00
Comm    | 3.8862e-05 | 0.00093068 | 0.0021653  |   0.0 |  1.31
Output  | 0          | 0          | 0          |   0.0 |  0.00
Modify  | 0          | 0          | 0          |   0.0 |  0.00
Other   |            | 0.001364   |            |       |  1.92

Nlocal:    20.25 ave 54 max 0 min
Histogram: 8 0 0 1 0 0 2 2 0 3
Nghost:    140.75 ave 301 max 0 min
Histogram: 8 0 0 0 0 0 0 0 1 7
Neighs:    1709.31 ave 6371 max 0 min
Histogram: 9 1 0 0 2 0 1 1 1 1

Total # of neighbors = 27349
Ave neighs/atom = 84.4105
Ave special neighs/atom = 11.4259
Neighbor list builds = 0
Dangerous builds = 0
timestep        1
fix             pysimm_md all nvt temp 300 300 100
run             5000
PPPM initialization ...
  using 12-bit tables for long-range coulomb (../kspace.cpp:332)
  G vector (1/distance) = 0.116332
  grid = 18 18 18
  stencil order = 5
  estimated absolute RMS force accuracy = 0.036927
  estimated relative force accuracy = 0.000111205
  using double precision KISS FFT
  3d grid and FFT values/proc = 1960 648
Per MPI rank memory allocation (min/avg/max) = 14.01 | 14.25 | 14.62 Mbytes
Step Temp E_pair E_mol TotEng Press 
       4    853.91865   -674.38455    148.37638    296.14611    10.852003 
    5004    316.98047   -670.92978    340.78704   -24.953424   0.79178391 
Loop time of 3.39373 on 16 procs for 5000 steps with 324 atoms

Performance: 127.293 ns/day, 0.189 hours/ns, 1473.304 timesteps/s
95.7% CPU use with 16 MPI tasks x no OpenMP threads

MPI task timing breakdown:
Section |  min time  |  avg time  |  max time  |%varavg| %total
---------------------------------------------------------------
Pair    | 0.0005331  | 0.23612    | 1.4757     |  80.9 |  6.96
Bond    | 0.0010273  | 0.047775   | 0.18305    |  26.3 |  1.41
Kspace  | 1.5605     | 2.8513     | 3.1291     |  24.9 | 84.02
Neigh   | 0.044589   | 0.046516   | 0.047887   |   0.5 |  1.37
Comm    | 0.0057585  | 0.075782   | 0.19466    |  26.9 |  2.23
Output  | 2.1935e-05 | 2.3186e-05 | 3.0994e-05 |   0.0 |  0.00
Modify  | 0.025934   | 0.12332    | 0.21593    |  23.9 |  3.63
Other   |            | 0.0129     |            |       |  0.38

Nlocal:    20.25 ave 98 max 0 min
Histogram: 10 1 1 1 0 0 1 0 0 2
Nghost:    132.375 ave 300 max 0 min
Histogram: 8 0 0 0 0 0 0 3 1 4
Neighs:    1833.75 ave 13368 max 0 min
Histogram: 12 0 2 0 0 0 1 0 0 1

Total # of neighbors = 29340
Ave neighs/atom = 90.5556
Ave special neighs/atom = 11.4259
Neighbor list builds = 125
Dangerous builds = 0
unfix pysimm_md
write_dump all custom pysimm.dump.tmp id q x y z vx vy vz
quit


################################################################################
##################################    Init    ##################################
################################################################################
units           real
atom_style      full
pair_style      lj/cut/coul/long 12.0  12.0
kspace_style    pppm 1e-4
bond_style      harmonic
angle_style     harmonic
dihedral_style  fourier
improper_style  cvff
special_bonds   amber
pair_modify     mix arithmetic
read_data       temp.lmps
  orthogonal box = (-57.9525 -57.9525 -57.9525) to (57.9525 57.9525 57.9525)
  2 by 2 by 4 MPI processor grid
  reading atoms ...
  313 atoms
  reading velocities ...
  313 velocities
  scanning bonds ...
  4 = max bonds/atom
  scanning angles ...
  6 = max angles/atom
  scanning dihedrals ...
  15 = max dihedrals/atom
  reading bonds ...
  312 bonds
  reading angles ...
  603 angles
  reading dihedrals ...
  854 dihedrals
  4 = max # of 1-2 neighbors
  6 = max # of 1-3 neighbors
  12 = max # of 1-4 neighbors
  16 = max # of special neighbors
  special bonds CPU = 0.000710964 secs
  read_data CPU = 0.0129781 secs
################################################################################

min_style cg
minimize 1e-05 1e-05 10000 100000
WARNING: Using 'neigh_modify every 1 delay 0 check yes' setting during minimization (../min.cpp:190)
PPPM initialization ...
  using 12-bit tables for long-range coulomb (../kspace.cpp:332)
  G vector (1/distance) = 0.140573
  grid = 18 18 18
  stencil order = 5
  estimated absolute RMS force accuracy = 0.0263045
  estimated relative force accuracy = 7.92153e-05
  using double precision KISS FFT
  3d grid and FFT values/proc = 1960 648
Neighbor list info ...
  update every 1 steps, delay 0 steps, check yes
  max neighbors/atom: 2000, page size: 100000
  master list distance cutoff = 14
  ghost atom cutoff = 14
  binsize = 7, bins = 17 17 17
  1 neighbor lists, perpetual/occasional/extra = 1 0 0
  (1) pair lj/cut/coul/long, perpetual
      attributes: half, newton on
      pair build: half/bin/newton
      stencil: half/bin/3d/newton
      bin: standard
Per MPI rank memory allocation (min/avg/max) = 15.13 | 15.38 | 15.73 Mbytes
Step Temp E_pair E_mol TotEng Press 
       0    944.64129   -648.55126    125.83236    355.80953    24.984067 
      14    944.64129   -652.08852    122.17512    348.61503    25.468378 
Loop time of 0.0777493 on 16 procs for 14 steps with 313 atoms

97.1% CPU use with 16 MPI tasks x no OpenMP threads

Minimization stats:
  Stopping criterion = linesearch alpha is zero
  Energy initial, next-to-last, final = 
        -522.718899915     -529.913403898     -529.913403898
  Force two-norm initial, final = 32.0042 30.613
  Force max component initial, final = 5.49286 10.616
  Final line search alpha, max atom move = 1.13221e-11 1.20196e-10
  Iterations, force evaluations = 14 85

MPI task timing breakdown:
Section |  min time  |  avg time  |  max time  |%varavg| %total
---------------------------------------------------------------
Pair    | 1.1921e-05 | 0.0075058  | 0.025887   |  11.0 |  9.65
Bond    | 4.2915e-05 | 0.0015959  | 0.005465   |   4.8 |  2.05
Kspace  | 0.044492   | 0.066064   | 0.075622   |   4.5 | 84.97
Neigh   | 0          | 0          | 0          |   0.0 |  0.00
Comm    | 3.2425e-05 | 0.0010443  | 0.0023177  |   3.1 |  1.34
Output  | 0          | 0          | 0          |   0.0 |  0.00
Modify  | 0          | 0          | 0          |   0.0 |  0.00
Other   |            | 0.001539   |            |       |  1.98

Nlocal:    19.5625 ave 71 max 0 min
Histogram: 9 0 1 0 1 1 1 2 0 1
Nghost:    120.188 ave 277 max 0 min
Histogram: 8 0 0 0 0 0 0 1 5 2
Neighs:    1107.38 ave 4079 max 0 min
Histogram: 9 1 1 0 0 0 2 1 1 1

Total # of neighbors = 17718
Ave neighs/atom = 56.607
Ave special neighs/atom = 11.3546
Neighbor list builds = 0
Dangerous builds = 0
timestep        1
fix             pysimm_md all nvt temp 300 300 100
run             5000
PPPM initialization ...
  using 12-bit tables for long-range coulomb (../kspace.cpp:332)
  G vector (1/distance) = 0.140573
  grid = 18 18 18
  stencil order = 5
  estimated absolute RMS force accuracy = 0.0263045
  estimated relative force accuracy = 7.92153e-05
  using double precision KISS FFT
  3d grid and FFT values/proc = 1960 648
Per MPI rank memory allocation (min/avg/max) = 14.01 | 14.25 | 14.61 Mbytes
Step Temp E_pair E_mol TotEng Press 
      14    944.64129   -652.08852    122.17512    348.61503    25.468378 
    5014    306.18002   -626.68624    322.62258   -19.312334    2.0742127 
Loop time of 2.81422 on 16 procs for 5000 steps with 313 atoms

Performance: 153.506 ns/day, 0.156 hours/ns, 1776.691 timesteps/s
96.2% CPU use with 16 MPI tasks x no OpenMP threads

MPI task timing breakdown:
Section |  min time  |  avg time  |  max time  |%varavg| %total
---------------------------------------------------------------
Pair    | 0.00046754 | 0.18195    | 0.79849    |  51.9 |  6.47
Bond    | 0.0010371  | 0.050222   | 0.16008    |  25.6 |  1.78
Kspace  | 1.6077     | 2.282      | 2.5106     |  16.8 | 81.09
Neigh   | 0.033599   | 0.036486   | 0.039141   |   0.9 |  1.30
Comm    | 0.0062478  | 0.10193    | 0.25016    |  31.1 |  3.62
Output  | 2.0027e-05 | 2.1413e-05 | 2.7895e-05 |   0.0 |  0.00
Modify  | 0.030851   | 0.14749    | 0.26906    |  28.1 |  5.24
Other   |            | 0.01409    |            |       |  0.50

Nlocal:    19.5625 ave 128 max 0 min
Histogram: 12 0 1 1 0 0 0 1 0 1
Nghost:    108.438 ave 301 max 0 min
Histogram: 8 0 0 0 0 1 3 2 1 1
Neighs:    1462.12 ave 6815 max 0 min
Histogram: 11 0 2 0 0 0 0 0 1 2

Total # of neighbors = 23394
Ave neighs/atom = 74.7412
Ave special neighs/atom = 11.3546
Neighbor list builds = 144
Dangerous builds = 0
unfix pysimm_md
write_dump all custom pysimm.dump.tmp id q x y z vx vy vz
quit


################################################################################
##################################    Init    ##################################
################################################################################
units           real
atom_style      full
pair_style      lj/cut/coul/long 12.0  12.0
kspace_style    pppm 1e-4
bond_style      harmonic
angle_style     harmonic
dihedral_style  fourier
improper_style  cvff
special_bonds   amber
pair_modify     mix arithmetic
read_data       temp.lmps
  orthogonal box = (-59.4019 -59.4019 -59.4019) to (59.4019 59.4019 59.4019)
  2 by 2 by 4 MPI processor grid
  reading atoms ...
  302 atoms
  reading velocities ...
  302 velocities
  scanning bonds ...
  4 = max bonds/atom
  scanning angles ...
  6 = max angles/atom
  scanning dihedrals ...
  15 = max dihedrals/atom
  reading bonds ...
  301 bonds
  reading angles ...
  581 angles
  reading dihedrals ...
  813 dihedrals
  4 = max # of 1-2 neighbors
  6 = max # of 1-3 neighbors
  12 = max # of 1-4 neighbors
  16 = max # of special neighbors
  special bonds CPU = 0.000841856 secs
  read_data CPU = 0.0136411 secs
################################################################################

min_style cg
minimize 1e-05 1e-05 10000 100000
WARNING: Using 'neigh_modify every 1 delay 0 check yes' setting during minimization (../min.cpp:190)
PPPM initialization ...
  using 12-bit tables for long-range coulomb (../kspace.cpp:332)
  G vector (1/distance) = 0.138594
  grid = 18 18 18
  stencil order = 5
  estimated absolute RMS force accuracy = 0.0300039
  estimated relative force accuracy = 9.03559e-05
  using double precision KISS FFT
  3d grid and FFT values/proc = 1960 648
Neighbor list info ...
  update every 1 steps, delay 0 steps, check yes
  max neighbors/atom: 2000, page size: 100000
  master list distance cutoff = 14
  ghost atom cutoff = 14
  binsize = 7, bins = 17 17 17
  1 neighbor lists, perpetual/occasional/extra = 1 0 0
  (1) pair lj/cut/coul/long, perpetual
      attributes: half, newton on
      pair build: half/bin/newton
      stencil: half/bin/3d/newton
      bin: standard
Per MPI rank memory allocation (min/avg/max) = 15.13 | 15.35 | 15.73 Mbytes
Step Temp E_pair E_mol TotEng Press 
       0    981.21283   -709.90523    122.90219    293.36449    23.835812 
      47    981.21283    -711.8724    105.06495    273.56007    23.973656 
Loop time of 0.137594 on 16 procs for 47 steps with 302 atoms

96.6% CPU use with 16 MPI tasks x no OpenMP threads

Minimization stats:
  Stopping criterion = linesearch alpha is zero
  Energy initial, next-to-last, final = 
        -587.003037706     -606.807456291     -606.807456291
  Force two-norm initial, final = 39.8243 19.5329
  Force max component initial, final = 10.7461 5.26305
  Final line search alpha, max atom move = 2.32085e-11 1.22148e-10
  Iterations, force evaluations = 47 149

MPI task timing breakdown:
Section |  min time  |  avg time  |  max time  |%varavg| %total
---------------------------------------------------------------
Pair    | 2.9564e-05 | 0.010356   | 0.04517    |  12.5 |  7.53
Bond    | 7.1049e-05 | 0.0024075  | 0.0083344  |   5.4 |  1.75
Kspace  | 0.077449   | 0.11893    | 0.13279    |   4.6 | 86.43
Neigh   | 0.00029588 | 0.00033094 | 0.00035715 |   0.0 |  0.24
Comm    | 0.00014162 | 0.0022945  | 0.0043464  |   3.4 |  1.67
Output  | 0          | 0          | 0          |   0.0 |  0.00
Modify  | 0          | 0          | 0          |   0.0 |  0.00
Other   |            | 0.003277   |            |       |  2.38

Nlocal:    18.875 ave 62 max 0 min
Histogram: 8 0 1 1 1 2 0 1 0 2
Nghost:    121.625 ave 270 max 0 min
Histogram: 8 0 0 0 0 0 0 2 2 4
Neighs:    1028.44 ave 3853 max 0 min
Histogram: 8 1 1 0 3 0 1 0 1 1

Total # of neighbors = 16455
Ave neighs/atom = 54.4868
Ave special neighs/atom = 11.2781
Neighbor list builds = 1
Dangerous builds = 0
timestep        1
fix             pysimm_md all nvt temp 300 300 100
run             5000
PPPM initialization ...
  using 12-bit tables for long-range coulomb (../kspace.cpp:332)
  G vector (1/distance) = 0.138594
  grid = 18 18 18
  stencil order = 5
  estimated absolute RMS force accuracy = 0.0300039
  estimated relative force accuracy = 9.03559e-05
  using double precision KISS FFT
  3d grid and FFT values/proc = 1960 648
Per MPI rank memory allocation (min/avg/max) = 14.01 | 14.23 | 14.61 Mbytes
Step Temp E_pair E_mol TotEng Press 
      47    981.21283    -711.8724    105.06495    273.56007    23.973656 
    5047    309.24544   -710.76715    266.59006   -166.71472    7.1614913 
Loop time of 2.66247 on 16 procs for 5000 steps with 302 atoms

Performance: 162.255 ns/day, 0.148 hours/ns, 1877.953 timesteps/s
96.5% CPU use with 16 MPI tasks x no OpenMP threads

MPI task timing breakdown:
Section |  min time  |  avg time  |  max time  |%varavg| %total
---------------------------------------------------------------
Pair    | 0.00055957 | 0.1637     | 0.62409    |  47.7 |  6.15
Bond    | 0.0010641  | 0.044666   | 0.16948    |  26.2 |  1.68
Kspace  | 1.6814     | 2.1633     | 2.3633     |  14.8 | 81.25
Neigh   | 0.028106   | 0.030087   | 0.032646   |   0.9 |  1.13
Comm    | 0.0061824  | 0.10267    | 0.25414    |  30.5 |  3.86
Output  | 2.2888e-05 | 2.338e-05  | 2.9802e-05 |   0.0 |  0.00
Modify  | 0.030254   | 0.14362    | 0.25693    |  27.8 |  5.39
Other   |            | 0.01442    |            |       |  0.54

Nlocal:    18.875 ave 82 max 0 min
Histogram: 10 1 0 0 1 2 0 0 0 2
Nghost:    126.875 ave 289 max 0 min
Histogram: 8 0 0 0 0 0 0 4 3 1
Neighs:    1509.56 ave 6667 max 0 min
Histogram: 10 1 0 0 2 1 0 0 0 2

Total # of neighbors = 24153
Ave neighs/atom = 79.9768
Ave special neighs/atom = 11.2781
Neighbor list builds = 139
Dangerous builds = 0
unfix pysimm_md
write_dump all custom pysimm.dump.tmp id q x y z vx vy vz
quit


################################################################################
##################################    Init    ##################################
################################################################################
units           real
atom_style      full
pair_style      lj/cut/coul/long 12.0  12.0
kspace_style    pppm 1e-4
bond_style      harmonic
angle_style     harmonic
dihedral_style  fourier
improper_style  cvff
special_bonds   amber
pair_modify     mix arithmetic
read_data       temp.lmps
  orthogonal box = (-85.02 -85.02 -85.02) to (85.02 85.02 85.02)
  2 by 2 by 4 MPI processor grid
  reading atoms ...
  363 atoms
  reading velocities ...
  363 velocities
  scanning bonds ...
  4 = max bonds/atom
  scanning angles ...
  6 = max angles/atom
  scanning dihedrals ...
  15 = max dihedrals/atom
  reading bonds ...
  362 bonds
  reading angles ...
  700 angles
  reading dihedrals ...
  987 dihedrals
  4 = max # of 1-2 neighbors
  6 = max # of 1-3 neighbors
  12 = max # of 1-4 neighbors
  16 = max # of special neighbors
  special bonds CPU = 0.00134897 secs
  read_data CPU = 0.0149322 secs
################################################################################

min_style cg
minimize 1e-05 1e-05 10000 100000
WARNING: Using 'neigh_modify every 1 delay 0 check yes' setting during minimization (../min.cpp:190)
PPPM initialization ...
  using 12-bit tables for long-range coulomb (../kspace.cpp:332)
  G vector (1/distance) = 0.118703
  grid = 20 20 20
  stencil order = 5
  estimated absolute RMS force accuracy = 0.0358864
  estimated relative force accuracy = 0.000108071
  using double precision KISS FFT
  3d grid and FFT values/proc = 2250 800
Neighbor list info ...
  update every 1 steps, delay 0 steps, check yes
  max neighbors/atom: 2000, page size: 100000
  master list distance cutoff = 14
  ghost atom cutoff = 14
  binsize = 7, bins = 25 25 25
  1 neighbor lists, perpetual/occasional/extra = 1 0 0
  (1) pair lj/cut/coul/long, perpetual
      attributes: half, newton on
      pair build: half/bin/newton
      stencil: half/bin/3d/newton
      bin: standard
Per MPI rank memory allocation (min/avg/max) = 15.16 | 15.37 | 15.75 Mbytes
Step Temp E_pair E_mol TotEng Press 
       0    697.12661    -798.9817    141.65534    94.910362    7.5472184 
      36    697.12661   -802.99299    128.77356    78.017295    5.6768259 
Loop time of 0.13886 on 16 procs for 36 steps with 363 atoms

95.8% CPU use with 16 MPI tasks x no OpenMP threads

Minimization stats:
  Stopping criterion = linesearch alpha is zero
  Energy initial, next-to-last, final = 
        -657.326364584     -674.219431172     -674.219431172
  Force two-norm initial, final = 37.1026 23.7055
  Force max component initial, final = 7.71257 6.35548
  Final line search alpha, max atom move = 2.22269e-11 1.41263e-10
  Iterations, force evaluations = 36 127

MPI task timing breakdown:
Section |  min time  |  avg time  |  max time  |%varavg| %total
---------------------------------------------------------------
Pair    | 2.4796e-05 | 0.010272   | 0.044889   |  15.6 |  7.40
Bond    | 5.6505e-05 | 0.0026951  | 0.012797   |   7.8 |  1.94
Kspace  | 0.076647   | 0.12197    | 0.13558    |   5.8 | 87.84
Neigh   | 0          | 0          | 0          |   0.0 |  0.00
Comm    | 7.4387e-05 | 0.0013475  | 0.0032375  |   3.5 |  0.97
Output  | 0          | 0          | 0          |   0.0 |  0.00
Modify  | 0          | 0          | 0          |   0.0 |  0.00
Other   |            | 0.002571   |            |       |  1.85

Nlocal:    22.6875 ave 106 max 0 min
Histogram: 10 1 0 1 0 2 0 0 1 1
Nghost:    84.6875 ave 228 max 0 min
Histogram: 8 0 0 0 0 2 2 1 2 1
Neighs:    980.25 ave 4169 max 0 min
Histogram: 11 0 1 0 0 0 1 0 2 1

Total # of neighbors = 15684
Ave neighs/atom = 43.2066
Ave special neighs/atom = 11.3554
Neighbor list builds = 0
Dangerous builds = 0
timestep        1
fix             pysimm_md all nvt temp 300 300 100
run             5000
PPPM initialization ...
  using 12-bit tables for long-range coulomb (../kspace.cpp:332)
  G vector (1/distance) = 0.118703
  grid = 20 20 20
  stencil order = 5
  estimated absolute RMS force accuracy = 0.0358864
  estimated relative force accuracy = 0.000108071
  using double precision KISS FFT
  3d grid and FFT values/proc = 2250 800
Per MPI rank memory allocation (min/avg/max) = 14.03 | 14.24 | 14.63 Mbytes
Step Temp E_pair E_mol TotEng Press 
      36    697.12661   -802.99299    128.77356    78.017295    5.6768259 
    5036     296.3089   -787.11104    335.51612   -131.86185    5.0684724 
Loop time of 3.16152 on 16 procs for 5000 steps with 363 atoms

Performance: 136.643 ns/day, 0.176 hours/ns, 1581.516 timesteps/s
96.0% CPU use with 16 MPI tasks x no OpenMP threads

MPI task timing breakdown:
Section |  min time  |  avg time  |  max time  |%varavg| %total
---------------------------------------------------------------
Pair    | 0.00051785 | 0.16199    | 0.79496    |  57.5 |  5.12
Bond    | 0.001054   | 0.053715   | 0.26192    |  33.2 |  1.70
Kspace  | 1.8992     | 2.5651     | 2.7541     |  15.7 | 81.13
Neigh   | 0.036644   | 0.038861   | 0.040827   |   0.7 |  1.23
Comm    | 0.0059729  | 0.11726    | 0.2864     |  33.9 |  3.71
Output  | 2.3127e-05 | 2.4095e-05 | 3.1948e-05 |   0.0 |  0.00
Modify  | 0.034252   | 0.20814    | 0.34593    |  30.6 |  6.58
Other   |            | 0.01645    |            |       |  0.52

Nlocal:    22.6875 ave 192 max 0 min
Histogram: 12 0 2 1 0 0 0 0 0 1
Nghost:    103.812 ave 276 max 0 min
Histogram: 8 0 0 0 0 1 4 0 0 3
Neighs:    1240.25 ave 11694 max 0 min
Histogram: 12 1 2 0 0 0 0 0 0 1

Total # of neighbors = 19844
Ave neighs/atom = 54.6667
Ave special neighs/atom = 11.3554
Neighbor list builds = 141
Dangerous builds = 0
unfix pysimm_md
write_dump all custom pysimm.dump.tmp id q x y z vx vy vz
quit


################################################################################
##################################    Init    ##################################
################################################################################
units           real
atom_style      full
pair_style      lj/cut/coul/long 12.0  12.0
kspace_style    pppm 1e-4
bond_style      harmonic
angle_style     harmonic
dihedral_style  fourier
improper_style  cvff
special_bonds   amber
pair_modify     mix arithmetic
read_data       temp.lmps
  orthogonal box = (-62.1056 -62.1056 -62.1056) to (62.1056 62.1056 62.1056)
  2 by 2 by 4 MPI processor grid
  reading atoms ...
  352 atoms
  reading velocities ...
  352 velocities
  scanning bonds ...
  4 = max bonds/atom
  scanning angles ...
  6 = max angles/atom
  scanning dihedrals ...
  15 = max dihedrals/atom
  reading bonds ...
  351 bonds
  reading angles ...
  677 angles
  reading dihedrals ...
  950 dihedrals
  4 = max # of 1-2 neighbors
  6 = max # of 1-3 neighbors
  12 = max # of 1-4 neighbors
  16 = max # of special neighbors
  special bonds CPU = 0.000765085 secs
  read_data CPU = 0.013449 secs
################################################################################

min_style cg
minimize 1e-05 1e-05 10000 100000
WARNING: Using 'neigh_modify every 1 delay 0 check yes' setting during minimization (../min.cpp:190)
PPPM initialization ...
WARNING: System is not charge neutral, net charge = -1e-05 (../kspace.cpp:313)
  using 12-bit tables for long-range coulomb (../kspace.cpp:332)
  G vector (1/distance) = 0.135046
  grid = 18 18 18
  stencil order = 5
  estimated absolute RMS force accuracy = 0.0341847
  estimated relative force accuracy = 0.000102946
  using double precision KISS FFT
  3d grid and FFT values/proc = 1960 648
Neighbor list info ...
  update every 1 steps, delay 0 steps, check yes
  max neighbors/atom: 2000, page size: 100000
  master list distance cutoff = 14
  ghost atom cutoff = 14
  binsize = 7, bins = 18 18 18
  1 neighbor lists, perpetual/occasional/extra = 1 0 0
  (1) pair lj/cut/coul/long, perpetual
      attributes: half, newton on
      pair build: half/bin/newton
      stencil: half/bin/3d/newton
      bin: standard
Per MPI rank memory allocation (min/avg/max) = 15.13 | 15.38 | 15.75 Mbytes
Step Temp E_pair E_mol TotEng Press 
       0     1049.799   -837.98216    150.89342    411.27847     23.58365 
       2     1049.799   -837.57527    150.01679    410.80872    23.692147 
Loop time of 0.00566772 on 16 procs for 2 steps with 352 atoms

100.3% CPU use with 16 MPI tasks x no OpenMP threads

Minimization stats:
  Stopping criterion = energy tolerance
  Energy initial, next-to-last, final = 
        -687.088741848     -687.552515256     -687.558483316
  Force two-norm initial, final = 38.0393 26.8973
  Force max component initial, final = 9.7195 7.71379
  Final line search alpha, max atom move = 0.0179604 0.138543
  Iterations, force evaluations = 2 4

MPI task timing breakdown:
Section |  min time  |  avg time  |  max time  |%varavg| %total
---------------------------------------------------------------
Pair    | 0          | 0.00071415 | 0.0023642  |   0.0 | 12.60
Bond    | 2.1458e-06 | 0.00010774 | 0.00033975 |   0.0 |  1.90
Kspace  | 0.0027502  | 0.0045761  | 0.0054319  |   1.5 | 80.74
Neigh   | 0          | 0          | 0          |   0.0 |  0.00
Comm    | 9.5367e-07 | 7.1675e-05 | 0.00016069 |   0.0 |  1.26
Output  | 0          | 0          | 0          |   0.0 |  0.00
Modify  | 0          | 0          | 0          |   0.0 |  0.00
Other   |            | 0.000198   |            |       |  3.49

Nlocal:    22 ave 76 max 0 min
Histogram: 9 0 0 1 1 0 3 0 1 1
Nghost:    150.25 ave 349 max 0 min
Histogram: 8 0 0 0 0 0 0 1 5 2
Neighs:    1850.75 ave 6252 max 0 min
Histogram: 9 0 1 0 0 2 2 0 0 2

Total # of neighbors = 29612
Ave neighs/atom = 84.125
Ave special neighs/atom = 11.2841
Neighbor list builds = 0
Dangerous builds = 0
timestep        1
fix             pysimm_md all nvt temp 300 300 100
run             5000
PPPM initialization ...
  using 12-bit tables for long-range coulomb (../kspace.cpp:332)
  G vector (1/distance) = 0.135046
  grid = 18 18 18
  stencil order = 5
  estimated absolute RMS force accuracy = 0.0341847
  estimated relative force accuracy = 0.000102946
  using double precision KISS FFT
  3d grid and FFT values/proc = 1960 648
Per MPI rank memory allocation (min/avg/max) = 14.01 | 14.26 | 14.62 Mbytes
Step Temp E_pair E_mol TotEng Press 
       2     1049.799   -837.57527    150.01679    410.80872    23.692147 
    5002    299.10891   -855.73726    380.05298    -162.7373   -14.542029 
Loop time of 3.3073 on 16 procs for 5000 steps with 352 atoms

Performance: 130.620 ns/day, 0.184 hours/ns, 1511.809 timesteps/s
95.9% CPU use with 16 MPI tasks x no OpenMP threads

MPI task timing breakdown:
Section |  min time  |  avg time  |  max time  |%varavg| %total
---------------------------------------------------------------
Pair    | 0.00056911 | 0.28509    | 1.1242     |  64.4 |  8.62
Bond    | 0.0010691  | 0.054167   | 0.19484    |  27.8 |  1.64
Kspace  | 1.7341     | 2.6122     | 2.9357     |  22.8 | 78.98
Neigh   | 0.042237   | 0.044435   | 0.047167   |   0.8 |  1.34
Comm    | 0.0060835  | 0.12335    | 0.28974    |  31.4 |  3.73
Output  | 2.1935e-05 | 2.3276e-05 | 3.0994e-05 |   0.0 |  0.00
Modify  | 0.031426   | 0.17254    | 0.31152    |  31.1 |  5.22
Other   |            | 0.01546    |            |       |  0.47

Nlocal:    22 ave 153 max 0 min
Histogram: 10 3 0 0 2 0 0 0 0 1
Nghost:    142.75 ave 331 max 0 min
Histogram: 8 0 0 0 1 0 0 1 2 4
Neighs:    2308.5 ave 14736 max 0 min
Histogram: 11 1 1 1 0 0 1 0 0 1

Total # of neighbors = 36936
Ave neighs/atom = 104.932
Ave special neighs/atom = 11.2841
Neighbor list builds = 134
Dangerous builds = 0
unfix pysimm_md
write_dump all custom pysimm.dump.tmp id q x y z vx vy vz
quit


################################################################################
##################################    Init    ##################################
################################################################################
units           real
atom_style      full
pair_style      lj/cut/coul/long 12.0  12.0
kspace_style    pppm 1e-4
bond_style      harmonic
angle_style     harmonic
dihedral_style  fourier
improper_style  cvff
special_bonds   amber
pair_modify     mix arithmetic
read_data       temp.lmps
  orthogonal box = (-88.6421 -88.6421 -88.6421) to (88.6421 88.6421 88.6421)
  2 by 2 by 4 MPI processor grid
  reading atoms ...
  509 atoms
  reading velocities ...
  509 velocities
  scanning bonds ...
  4 = max bonds/atom
  scanning angles ...
  6 = max angles/atom
  scanning dihedrals ...
  15 = max dihedrals/atom
  reading bonds ...
  508 bonds
  reading angles ...
  986 angles
  reading dihedrals ...
  1406 dihedrals
  4 = max # of 1-2 neighbors
  6 = max # of 1-3 neighbors
  12 = max # of 1-4 neighbors
  16 = max # of special neighbors
  special bonds CPU = 0.000864983 secs
  read_data CPU = 0.0164731 secs
################################################################################

min_style cg
minimize 1e-05 1e-05 10000 100000
WARNING: Using 'neigh_modify every 1 delay 0 check yes' setting during minimization (../min.cpp:190)
PPPM initialization ...
  using 12-bit tables for long-range coulomb (../kspace.cpp:332)
  G vector (1/distance) = 0.115513
  grid = 20 20 20
  stencil order = 5
  estimated absolute RMS force accuracy = 0.0361533
  estimated relative force accuracy = 0.000108875
  using double precision KISS FFT
  3d grid and FFT values/proc = 2250 800
Neighbor list info ...
  update every 1 steps, delay 0 steps, check yes
  max neighbors/atom: 2000, page size: 100000
  master list distance cutoff = 14
  ghost atom cutoff = 14
  binsize = 7, bins = 26 26 26
  1 neighbor lists, perpetual/occasional/extra = 1 0 0
  (1) pair lj/cut/coul/long, perpetual
      attributes: half, newton on
      pair build: half/bin/newton
      stencil: half/bin/3d/newton
      bin: standard
Per MPI rank memory allocation (min/avg/max) = 15.16 | 15.3 | 15.76 Mbytes
Step Temp E_pair E_mol TotEng Press 
       0    825.67703   -983.53751    218.23314    484.97831    11.534643 
      46    825.67703   -991.23249    190.85918    449.90938    9.8136461 
Loop time of 0.266629 on 16 procs for 46 steps with 509 atoms

94.9% CPU use with 16 MPI tasks x no OpenMP threads

Minimization stats:
  Stopping criterion = linesearch alpha is zero
  Energy initial, next-to-last, final = 
        -765.304372112     -800.373305432     -800.373305432
  Force two-norm initial, final = 47.2601 28.6603
  Force max component initial, final = 13.0192 7.55155
  Final line search alpha, max atom move = 1.12664e-11 8.50791e-11
  Iterations, force evaluations = 46 149

MPI task timing breakdown:
Section |  min time  |  avg time  |  max time  |%varavg| %total
---------------------------------------------------------------
Pair    | 2.8372e-05 | 0.017451   | 0.12116    |  28.2 |  6.55
Bond    | 6.938e-05  | 0.0043567  | 0.028376   |  13.9 |  1.63
Kspace  | 0.11088    | 0.23854    | 0.26103    |   9.6 | 89.47
Neigh   | 0.00080109 | 0.00083661 | 0.00088096 |   0.0 |  0.31
Comm    | 0.00014138 | 0.0015693  | 0.0036864  |   3.6 |  0.59
Output  | 0          | 0          | 0          |   0.0 |  0.00
Modify  | 0          | 0          | 0          |   0.0 |  0.00
Other   |            | 0.003875   |            |       |  1.45

Nlocal:    31.8125 ave 214 max 0 min
Histogram: 12 1 1 0 0 0 0 0 0 2
Nghost:    87.75 ave 240 max 0 min
Histogram: 8 0 1 0 0 1 0 3 1 2
Neighs:    1448 ave 10128 max 0 min
Histogram: 13 0 0 1 0 0 0 0 1 1

Total # of neighbors = 23168
Ave neighs/atom = 45.5167
Ave special neighs/atom = 11.5049
Neighbor list builds = 1
Dangerous builds = 0
timestep        1
fix             pysimm_md all nvt temp 300 300 100
run             5000
PPPM initialization ...
  using 12-bit tables for long-range coulomb (../kspace.cpp:332)
  G vector (1/distance) = 0.115513
  grid = 20 20 20
  stencil order = 5
  estimated absolute RMS force accuracy = 0.0361533
  estimated relative force accuracy = 0.000108875
  using double precision KISS FFT
  3d grid and FFT values/proc = 2250 800
Per MPI rank memory allocation (min/avg/max) = 14.04 | 14.18 | 14.64 Mbytes
Step Temp E_pair E_mol TotEng Press 
      46    825.67703   -991.23249    190.85918    449.90938    9.8136461 
    5046    298.73734   -980.19883    466.82995   -61.005402 -0.003894876 
Loop time of 3.60555 on 16 procs for 5000 steps with 509 atoms

Performance: 119.815 ns/day, 0.200 hours/ns, 1386.751 timesteps/s
95.6% CPU use with 16 MPI tasks x no OpenMP threads

MPI task timing breakdown:
Section |  min time  |  avg time  |  max time  |%varavg| %total
---------------------------------------------------------------
Pair    | 0.0004859  | 0.18038    | 1.1325     |  74.7 |  5.00
Bond    | 0.00096965 | 0.066005   | 0.40518    |  43.9 |  1.83
Kspace  | 1.8801     | 2.8622     | 3.069      |  19.6 | 79.38
Neigh   | 0.053299   | 0.055369   | 0.057623   |   0.6 |  1.54
Comm    | 0.0055277  | 0.16417    | 0.41922    |  42.4 |  4.55
Output  | 2.3127e-05 | 2.3916e-05 | 3.0994e-05 |   0.0 |  0.00
Modify  | 0.030568   | 0.25932    | 0.45856    |  38.7 |  7.19
Other   |            | 0.01803    |            |       |  0.50

Nlocal:    31.8125 ave 182 max 0 min
Histogram: 11 1 1 0 0 1 0 1 0 1
Nghost:    91.4375 ave 229 max 0 min
Histogram: 7 1 0 0 0 0 3 2 1 2
Neighs:    1344.38 ave 8199 max 0 min
Histogram: 11 1 1 0 0 1 1 0 0 1

Total # of neighbors = 21510
Ave neighs/atom = 42.2593
Ave special neighs/atom = 11.5049
Neighbor list builds = 153
Dangerous builds = 0
unfix pysimm_md
write_dump all custom pysimm.dump.tmp id q x y z vx vy vz
quit


################################################################################
##################################    Init    ##################################
################################################################################
units           real
atom_style      full
pair_style      lj/cut/coul/long 12.0  12.0
kspace_style    pppm 1e-4
bond_style      harmonic
angle_style     harmonic
dihedral_style  fourier
improper_style  cvff
special_bonds   amber
pair_modify     mix arithmetic
read_data       temp.lmps
  orthogonal box = (-64.5925 -64.5925 -64.5925) to (64.5925 64.5925 64.5925)
  2 by 2 by 4 MPI processor grid
  reading atoms ...
  474 atoms
  reading velocities ...
  474 velocities
  scanning bonds ...
  4 = max bonds/atom
  scanning angles ...
  6 = max angles/atom
  scanning dihedrals ...
  15 = max dihedrals/atom
  reading bonds ...
  473 bonds
  reading angles ...
  916 angles
  reading dihedrals ...
  1305 dihedrals
  4 = max # of 1-2 neighbors
  6 = max # of 1-3 neighbors
  12 = max # of 1-4 neighbors
  16 = max # of special neighbors
  special bonds CPU = 0.00186682 secs
  read_data CPU = 0.0167131 secs
################################################################################

min_style cg
minimize 1e-05 1e-05 10000 100000
WARNING: Using 'neigh_modify every 1 delay 0 check yes' setting during minimization (../min.cpp:190)
PPPM initialization ...
  using 12-bit tables for long-range coulomb (../kspace.cpp:332)
  G vector (1/distance) = 0.140324
  grid = 20 20 20
  stencil order = 5
  estimated absolute RMS force accuracy = 0.0254699
  estimated relative force accuracy = 7.67018e-05
  using double precision KISS FFT
  3d grid and FFT values/proc = 2250 800
Neighbor list info ...
  update every 1 steps, delay 0 steps, check yes
  max neighbors/atom: 2000, page size: 100000
  master list distance cutoff = 14
  ghost atom cutoff = 14
  binsize = 7, bins = 19 19 19
  1 neighbor lists, perpetual/occasional/extra = 1 0 0
  (1) pair lj/cut/coul/long, perpetual
      attributes: half, newton on
      pair build: half/bin/newton
      stencil: half/bin/3d/newton
      bin: standard
Per MPI rank memory allocation (min/avg/max) = 15.15 | 15.34 | 15.77 Mbytes
Step Temp E_pair E_mol TotEng Press 
       0    531.29042   -975.66889     184.6376   -41.952624    14.830267 
      48    531.29042   -980.02089    161.22684   -69.715377    14.379206 
Loop time of 0.361301 on 16 procs for 48 steps with 474 atoms

93.9% CPU use with 16 MPI tasks x no OpenMP threads

Minimization stats:
  Stopping criterion = linesearch alpha is zero
  Energy initial, next-to-last, final = 
         -791.03128992     -818.794043004     -818.794043004
  Force two-norm initial, final = 46.5224 20.6298
  Force max component initial, final = 10.164 3.72443
  Final line search alpha, max atom move = 2.55452e-11 9.51413e-11
  Iterations, force evaluations = 48 151

MPI task timing breakdown:
Section |  min time  |  avg time  |  max time  |%varavg| %total
---------------------------------------------------------------
Pair    | 3.0279e-05 | 0.02966    | 0.23479    |  33.6 |  8.21
Bond    | 6.7472e-05 | 0.0041795  | 0.020097   |   9.7 |  1.16
Kspace  | 0.098297   | 0.31995    | 0.35497    |  11.3 | 88.55
Neigh   | 0.001092   | 0.0011436  | 0.001179   |   0.1 |  0.32
Comm    | 0.00012279 | 0.002542   | 0.0053365  |   4.1 |  0.70
Output  | 0          | 0          | 0          |   0.0 |  0.00
Modify  | 0          | 0          | 0          |   0.0 |  0.00
Other   |            | 0.003826   |            |       |  1.06

Nlocal:    29.625 ave 142 max 0 min
Histogram: 10 0 1 1 2 0 0 0 1 1
Nghost:    177.375 ave 439 max 0 min
Histogram: 8 0 0 0 0 1 0 3 2 2
Neighs:    2540.19 ave 20003 max 0 min
Histogram: 10 2 3 0 0 0 0 0 0 1

Total # of neighbors = 40643
Ave neighs/atom = 85.7447
Ave special neighs/atom = 11.4346
Neighbor list builds = 1
Dangerous builds = 0
timestep        1
fix             pysimm_md all nvt temp 300 300 100
run             5000
PPPM initialization ...
  using 12-bit tables for long-range coulomb (../kspace.cpp:332)
  G vector (1/distance) = 0.140324
  grid = 20 20 20
  stencil order = 5
  estimated absolute RMS force accuracy = 0.0254699
  estimated relative force accuracy = 7.67018e-05
  using double precision KISS FFT
  3d grid and FFT values/proc = 2250 800
Per MPI rank memory allocation (min/avg/max) = 14.03 | 14.22 | 14.64 Mbytes
Step Temp E_pair E_mol TotEng Press 
      48    531.29042   -980.02089    161.22684   -69.715377    14.379206 
    5048    323.15217   -958.88904    456.94568   -46.323634    2.0856546 
Loop time of 4.90298 on 16 procs for 5000 steps with 474 atoms

Performance: 88.110 ns/day, 0.272 hours/ns, 1019.789 timesteps/s
94.8% CPU use with 16 MPI tasks x no OpenMP threads

MPI task timing breakdown:
Section |  min time  |  avg time  |  max time  |%varavg| %total
---------------------------------------------------------------
Pair    | 0.00049758 | 0.29895    | 2.2748     | 106.1 |  6.10
Bond    | 0.00098157 | 0.061239   | 0.29315    |  37.5 |  1.25
Kspace  | 2.021      | 4.0249     | 4.3509     |  29.6 | 82.09
Neigh   | 0.10078    | 0.10345    | 0.10602    |   0.5 |  2.11
Comm    | 0.0131     | 0.1422     | 0.37428    |  33.7 |  2.90
Output  | 2.408e-05  | 2.5541e-05 | 3.4094e-05 |   0.0 |  0.00
Modify  | 0.027749   | 0.25677    | 0.41884    |  33.1 |  5.24
Other   |            | 0.01548    |            |       |  0.32

Nlocal:    29.625 ave 263 max 0 min
Histogram: 12 1 1 1 0 0 0 0 0 1
Nghost:    80.1875 ave 323 max 0 min
Histogram: 10 0 2 0 0 0 2 0 0 2
Neighs:    2537.75 ave 20044 max 0 min
Histogram: 12 1 0 0 2 0 0 0 0 1

Total # of neighbors = 40604
Ave neighs/atom = 85.6624
Ave special neighs/atom = 11.4346
Neighbor list builds = 167
Dangerous builds = 0
unfix pysimm_md
write_dump all custom pysimm.dump.tmp id q x y z vx vy vz
quit


################################################################################
##################################    Init    ##################################
################################################################################
units           real
atom_style      full
pair_style      lj/cut/coul/long 12.0  12.0
kspace_style    pppm 1e-4
bond_style      harmonic
angle_style     harmonic
dihedral_style  fourier
improper_style  cvff
special_bonds   amber
pair_modify     mix arithmetic
read_data       temp.lmps
  orthogonal box = (-65.7671 -65.7671 -65.7671) to (65.7671 65.7671 65.7671)
  2 by 2 by 4 MPI processor grid
  reading atoms ...
  535 atoms
  reading velocities ...
  535 velocities
  scanning bonds ...
  4 = max bonds/atom
  scanning angles ...
  6 = max angles/atom
  scanning dihedrals ...
  15 = max dihedrals/atom
  reading bonds ...
  534 bonds
  reading angles ...
  1034 angles
  reading dihedrals ...
  1463 dihedrals
  4 = max # of 1-2 neighbors
  6 = max # of 1-3 neighbors
  12 = max # of 1-4 neighbors
  16 = max # of special neighbors
  special bonds CPU = 0.00138497 secs
  read_data CPU = 0.017163 secs
################################################################################

min_style cg
minimize 1e-05 1e-05 10000 100000
WARNING: Using 'neigh_modify every 1 delay 0 check yes' setting during minimization (../min.cpp:190)
PPPM initialization ...
  using 12-bit tables for long-range coulomb (../kspace.cpp:332)
  G vector (1/distance) = 0.138885
  grid = 20 20 20
  stencil order = 5
  estimated absolute RMS force accuracy = 0.0261533
  estimated relative force accuracy = 7.87598e-05
  using double precision KISS FFT
  3d grid and FFT values/proc = 2250 800
Neighbor list info ...
  update every 1 steps, delay 0 steps, check yes
  max neighbors/atom: 2000, page size: 100000
  master list distance cutoff = 14
  ghost atom cutoff = 14
  binsize = 7, bins = 19 19 19
  1 neighbor lists, perpetual/occasional/extra = 1 0 0
  (1) pair lj/cut/coul/long, perpetual
      attributes: half, newton on
      pair build: half/bin/newton
      stencil: half/bin/3d/newton
      bin: standard
Per MPI rank memory allocation (min/avg/max) = 15.16 | 15.33 | 15.78 Mbytes
Step Temp E_pair E_mol TotEng Press 
       0    424.47923   -1196.3155    192.29244   -328.35715     12.98591 
      64    424.47923   -1207.9778    160.32642   -371.98551      12.4317 
Loop time of 0.40618 on 16 procs for 64 steps with 535 atoms

94.6% CPU use with 16 MPI tasks x no OpenMP threads

Minimization stats:
  Stopping criterion = linesearch alpha is zero
  Energy initial, next-to-last, final = 
        -1004.02306112     -1047.65142014     -1047.65142014
  Force two-norm initial, final = 47.7674 24.5816
  Force max component initial, final = 11.0699 4.36405
  Final line search alpha, max atom move = 1.05353e-11 4.59764e-11
  Iterations, force evaluations = 64 185

MPI task timing breakdown:
Section |  min time  |  avg time  |  max time  |%varavg| %total
---------------------------------------------------------------
Pair    | 3.0756e-05 | 0.03573    | 0.23277    |  37.6 |  8.80
Bond    | 6.8903e-05 | 0.0057438  | 0.029894   |  12.6 |  1.41
Kspace  | 0.13203    | 0.35497    | 0.39809    |  13.6 | 87.39
Neigh   | 0.0010278  | 0.0010772  | 0.001137   |   0.1 |  0.27
Comm    | 0.00013685 | 0.0032002  | 0.0072513  |   4.7 |  0.79
Output  | 0          | 0          | 0          |   0.0 |  0.00
Modify  | 0          | 0          | 0          |   0.0 |  0.00
Other   |            | 0.005459   |            |       |  1.34

Nlocal:    33.4375 ave 183 max 0 min
Histogram: 11 0 2 0 0 1 0 0 1 1
Nghost:    162.312 ave 358 max 0 min
Histogram: 6 1 1 0 0 0 1 2 1 4
Neighs:    2492.06 ave 16425 max 0 min
Histogram: 12 1 1 0 0 0 0 0 0 2

Total # of neighbors = 39873
Ave neighs/atom = 74.529
Ave special neighs/atom = 11.4505
Neighbor list builds = 1
Dangerous builds = 0
timestep        1
fix             pysimm_md all nvt temp 300 300 100
run             5000
PPPM initialization ...
  using 12-bit tables for long-range coulomb (../kspace.cpp:332)
  G vector (1/distance) = 0.138885
  grid = 20 20 20
  stencil order = 5
  estimated absolute RMS force accuracy = 0.0261533
  estimated relative force accuracy = 7.87598e-05
  using double precision KISS FFT
  3d grid and FFT values/proc = 2250 800
Per MPI rank memory allocation (min/avg/max) = 14.03 | 14.21 | 14.65 Mbytes
Step Temp E_pair E_mol TotEng Press 
      64    424.47923   -1207.9778    160.32642   -371.98551      12.4317 
    5064    313.23569   -1182.6878    516.30956   -167.78453  -0.98523077 
Loop time of 3.35435 on 16 procs for 5000 steps with 535 atoms

Performance: 128.788 ns/day, 0.186 hours/ns, 1490.603 timesteps/s
95.8% CPU use with 16 MPI tasks x no OpenMP threads

MPI task timing breakdown:
Section |  min time  |  avg time  |  max time  |%varavg| %total
---------------------------------------------------------------
Pair    | 0.0004735  | 0.25392    | 0.72526    |  53.3 |  7.57
Bond    | 0.00090289 | 0.071261   | 0.23907    |  28.5 |  2.12
Kspace  | 2.1357     | 2.6386     | 2.9283     |  17.9 | 78.66
Neigh   | 0.053056   | 0.055309   | 0.057478   |   0.6 |  1.65
Comm    | 0.010648   | 0.1382     | 0.30135    |  28.8 |  4.12
Output  | 2.2173e-05 | 2.3797e-05 | 3.1948e-05 |   0.0 |  0.00
Modify  | 0.034204   | 0.18218    | 0.34706    |  33.3 |  5.43
Other   |            | 0.01485    |            |       |  0.44

Nlocal:    33.4375 ave 123 max 0 min
Histogram: 11 0 0 0 0 1 0 0 1 3
Nghost:    131.688 ave 350 max 0 min
Histogram: 6 2 0 1 1 0 3 0 0 3
Neighs:    1575.5 ave 6409 max 0 min
Histogram: 11 0 0 0 0 1 1 0 1 2

Total # of neighbors = 25208
Ave neighs/atom = 47.1178
Ave special neighs/atom = 11.4505
Neighbor list builds = 160
Dangerous builds = 0
unfix pysimm_md
write_dump all custom pysimm.dump.tmp id q x y z vx vy vz
quit


################################################################################
##################################    Init    ##################################
################################################################################
units           real
atom_style      full
pair_style      lj/cut/coul/long 12.0  12.0
kspace_style    pppm 1e-4
bond_style      harmonic
angle_style     harmonic
dihedral_style  fourier
improper_style  cvff
special_bonds   amber
pair_modify     mix arithmetic
read_data       temp.lmps
  orthogonal box = (-93.5766 -93.5766 -93.5766) to (93.5766 93.5766 93.5766)
  2 by 2 by 4 MPI processor grid
  reading atoms ...
  500 atoms
  reading velocities ...
  500 velocities
  scanning bonds ...
  4 = max bonds/atom
  scanning angles ...
  6 = max angles/atom
  scanning dihedrals ...
  15 = max dihedrals/atom
  reading bonds ...
  499 bonds
  reading angles ...
  966 angles
  reading dihedrals ...
  1374 dihedrals
  4 = max # of 1-2 neighbors
  6 = max # of 1-3 neighbors
  12 = max # of 1-4 neighbors
  16 = max # of special neighbors
  special bonds CPU = 0.00132203 secs
  read_data CPU = 0.0174339 secs
################################################################################

min_style cg
minimize 1e-05 1e-05 10000 100000
WARNING: Using 'neigh_modify every 1 delay 0 check yes' setting during minimization (../min.cpp:190)
PPPM initialization ...
WARNING: System is not charge neutral, net charge = -1e-05 (../kspace.cpp:313)
  using 12-bit tables for long-range coulomb (../kspace.cpp:332)
  G vector (1/distance) = 0.125402
  grid = 24 24 24
  stencil order = 5
  estimated absolute RMS force accuracy = 0.0279247
  estimated relative force accuracy = 8.40945e-05
  using double precision KISS FFT
  3d grid and FFT values/proc = 3179 1152
Neighbor list info ...
  update every 1 steps, delay 0 steps, check yes
  max neighbors/atom: 2000, page size: 100000
  master list distance cutoff = 14
  ghost atom cutoff = 14
  binsize = 7, bins = 27 27 27
  1 neighbor lists, perpetual/occasional/extra = 1 0 0
  (1) pair lj/cut/coul/long, perpetual
      attributes: half, newton on
      pair build: half/bin/newton
      stencil: half/bin/3d/newton
      bin: standard
Per MPI rank memory allocation (min/avg/max) = 15.23 | 15.49 | 15.86 Mbytes
Step Temp E_pair E_mol TotEng Press 
       0    681.97065   -993.61845    190.77615    211.53736    6.0385286 
      30    681.97065   -992.94668    176.00197    197.43495    6.9950999 
Loop time of 0.161563 on 16 procs for 30 steps with 500 atoms

97.3% CPU use with 16 MPI tasks x no OpenMP threads

Minimization stats:
  Stopping criterion = linesearch alpha is zero
  Energy initial, next-to-last, final = 
        -802.842299818     -816.944707524     -816.944707524
  Force two-norm initial, final = 37.7263 23.5743
  Force max component initial, final = 11.775 3.71749
  Final line search alpha, max atom move = 1.22954e-11 4.57081e-11
  Iterations, force evaluations = 30 117

MPI task timing breakdown:
Section |  min time  |  avg time  |  max time  |%varavg| %total
---------------------------------------------------------------
Pair    | 2.3127e-05 | 0.013897   | 0.049759   |  14.7 |  8.60
Bond    | 5.0306e-05 | 0.0035037  | 0.010237   |   6.7 |  2.17
Kspace  | 0.096952   | 0.14011    | 0.15814    |   5.8 | 86.72
Neigh   | 0          | 0          | 0          |   0.0 |  0.00
Comm    | 7.1287e-05 | 0.0014576  | 0.0030582  |   3.6 |  0.90
Output  | 0          | 0          | 0          |   0.0 |  0.00
Modify  | 0          | 0          | 0          |   0.0 |  0.00
Other   |            | 0.002593   |            |       |  1.60

Nlocal:    31.25 ave 91 max 0 min
Histogram: 8 1 1 0 0 0 0 2 2 2
Nghost:    116.375 ave 279 max 0 min
Histogram: 8 0 0 0 0 0 1 3 1 3
Neighs:    1495.75 ave 5731 max 0 min
Histogram: 9 1 0 1 0 2 1 0 1 1

Total # of neighbors = 23932
Ave neighs/atom = 47.864
Ave special neighs/atom = 11.404
Neighbor list builds = 0
Dangerous builds = 0
timestep        1
fix             pysimm_md all nvt temp 300 300 100
run             5000
PPPM initialization ...
  using 12-bit tables for long-range coulomb (../kspace.cpp:332)
  G vector (1/distance) = 0.125402
  grid = 24 24 24
  stencil order = 5
  estimated absolute RMS force accuracy = 0.0279247
  estimated relative force accuracy = 8.40945e-05
  using double precision KISS FFT
  3d grid and FFT values/proc = 3179 1152
Per MPI rank memory allocation (min/avg/max) = 14.11 | 14.36 | 14.74 Mbytes
Step Temp E_pair E_mol TotEng Press 
      30    681.97065   -992.94668    176.00197    197.43495    6.9950999 
    5030    295.75368    -962.4123    450.26783   -72.233289   0.86088286 
Loop time of 4.30147 on 16 procs for 5000 steps with 500 atoms

Performance: 100.431 ns/day, 0.239 hours/ns, 1162.395 timesteps/s
95.9% CPU use with 16 MPI tasks x no OpenMP threads

MPI task timing breakdown:
Section |  min time  |  avg time  |  max time  |%varavg| %total
---------------------------------------------------------------
Pair    | 0.00053    | 0.20769    | 1.4271     |  79.0 |  4.83
Bond    | 0.00098634 | 0.069347   | 0.30733    |  36.1 |  1.61
Kspace  | 2.3911     | 3.6533     | 3.8912     |  19.8 | 84.93
Neigh   | 0.061868   | 0.063407   | 0.065488   |   0.5 |  1.47
Comm    | 0.0067677  | 0.11365    | 0.29832    |  32.1 |  2.64
Output  | 2.3842e-05 | 2.4825e-05 | 3.1948e-05 |   0.0 |  0.00
Modify  | 0.028498   | 0.17925    | 0.32522    |  31.6 |  4.17
Other   |            | 0.01481    |            |       |  0.34

Nlocal:    31.25 ave 169 max 0 min
Histogram: 11 0 1 1 0 1 0 0 1 1
Nghost:    111.062 ave 265 max 0 min
Histogram: 8 0 0 0 1 0 0 2 2 3
Neighs:    1490.38 ave 11552 max 0 min
Histogram: 11 1 1 2 0 0 0 0 0 1

Total # of neighbors = 23846
Ave neighs/atom = 47.692
Ave special neighs/atom = 11.404
Neighbor list builds = 158
Dangerous builds = 0
unfix pysimm_md
write_dump all custom pysimm.dump.tmp id q x y z vx vy vz
quit


################################################################################
##################################    Init    ##################################
################################################################################
units           real
atom_style      full
pair_style      lj/cut/coul/long 12.0  12.0
kspace_style    pppm 1e-4
bond_style      harmonic
angle_style     harmonic
dihedral_style  fourier
improper_style  cvff
special_bonds   amber
pair_modify     mix arithmetic
read_data       temp.lmps
  orthogonal box = (-95.1109 -95.1109 -95.1109) to (95.1109 95.1109 95.1109)
  2 by 2 by 4 MPI processor grid
  reading atoms ...
  561 atoms
  reading velocities ...
  561 velocities
  scanning bonds ...
  4 = max bonds/atom
  scanning angles ...
  6 = max angles/atom
  scanning dihedrals ...
  15 = max dihedrals/atom
  reading bonds ...
  560 bonds
  reading angles ...
  1085 angles
  reading dihedrals ...
  1545 dihedrals
  4 = max # of 1-2 neighbors
  6 = max # of 1-3 neighbors
  12 = max # of 1-4 neighbors
  16 = max # of special neighbors
  special bonds CPU = 0.000858068 secs
  read_data CPU = 0.017072 secs
################################################################################

min_style cg
minimize 1e-05 1e-05 10000 100000
WARNING: Using 'neigh_modify every 1 delay 0 check yes' setting during minimization (../min.cpp:190)
PPPM initialization ...
  using 12-bit tables for long-range coulomb (../kspace.cpp:332)
  G vector (1/distance) = 0.124133
  grid = 24 24 24
  stencil order = 5
  estimated absolute RMS force accuracy = 0.0283273
  estimated relative force accuracy = 8.53067e-05
  using double precision KISS FFT
  3d grid and FFT values/proc = 3179 1152
Neighbor list info ...
  update every 1 steps, delay 0 steps, check yes
  max neighbors/atom: 2000, page size: 100000
  master list distance cutoff = 14
  ghost atom cutoff = 14
  binsize = 7, bins = 28 28 28
  1 neighbor lists, perpetual/occasional/extra = 1 0 0
  (1) pair lj/cut/coul/long, perpetual
      attributes: half, newton on
      pair build: half/bin/newton
      stencil: half/bin/3d/newton
      bin: standard
Per MPI rank memory allocation (min/avg/max) = 15.24 | 15.5 | 15.88 Mbytes
Step Temp E_pair E_mol TotEng Press 
       0    578.71182   -1132.6822    233.32311    66.657718    6.5281991 
      38    578.71182   -1141.5209    195.24513    19.741031    5.5688297 
Loop time of 0.301863 on 16 procs for 38 steps with 561 atoms

94.8% CPU use with 16 MPI tasks x no OpenMP threads

Minimization stats:
  Stopping criterion = linesearch alpha is zero
  Energy initial, next-to-last, final = 
         -899.35908944     -946.275776459     -946.275776459
  Force two-norm initial, final = 51.7274 33.8741
  Force max component initial, final = 8.54014 7.23389
  Final line search alpha, max atom move = 8.57653e-12 6.20417e-11
  Iterations, force evaluations = 38 133

MPI task timing breakdown:
Section |  min time  |  avg time  |  max time  |%varavg| %total
---------------------------------------------------------------
Pair    | 2.3842e-05 | 0.036659   | 0.15902    |  25.4 | 12.14
Bond    | 6.485e-05  | 0.0044713  | 0.015062   |   8.0 |  1.48
Kspace  | 0.11886    | 0.25289    | 0.29521    |  10.8 | 83.78
Neigh   | 0.00099397 | 0.0010615  | 0.0011148  |   0.1 |  0.35
Comm    | 0.00017333 | 0.0027991  | 0.0061867  |   4.9 |  0.93
Output  | 0          | 0          | 0          |   0.0 |  0.00
Modify  | 0          | 0          | 0          |   0.0 |  0.00
Other   |            | 0.003986   |            |       |  1.32

Nlocal:    35.0625 ave 122 max 0 min
Histogram: 9 0 1 0 1 1 1 1 1 1
Nghost:    226.312 ave 524 max 0 min
Histogram: 8 0 0 0 0 0 0 2 3 3
Neighs:    3560.25 ave 15767 max 0 min
Histogram: 9 0 3 0 1 0 2 0 0 1

Total # of neighbors = 56964
Ave neighs/atom = 101.54
Ave special neighs/atom = 11.4439
Neighbor list builds = 1
Dangerous builds = 0
timestep        1
fix             pysimm_md all nvt temp 300 300 100
run             5000
PPPM initialization ...
  using 12-bit tables for long-range coulomb (../kspace.cpp:332)
  G vector (1/distance) = 0.124133
  grid = 24 24 24
  stencil order = 5
  estimated absolute RMS force accuracy = 0.0283273
  estimated relative force accuracy = 8.53067e-05
  using double precision KISS FFT
  3d grid and FFT values/proc = 3179 1152
Per MPI rank memory allocation (min/avg/max) = 14.11 | 14.38 | 14.76 Mbytes
Step Temp E_pair E_mol TotEng Press 
      38    578.71182   -1141.5209    195.24513    19.741031    5.5688297 
    5038    301.36043   -1125.4331    572.76403   -49.622085    1.9236433 
Loop time of 4.65344 on 16 procs for 5000 steps with 561 atoms

Performance: 92.835 ns/day, 0.259 hours/ns, 1074.475 timesteps/s
94.3% CPU use with 16 MPI tasks x no OpenMP threads

MPI task timing breakdown:
Section |  min time  |  avg time  |  max time  |%varavg| %total
---------------------------------------------------------------
Pair    | 0.00047541 | 0.40298    | 1.8592     |  87.4 |  8.66
Bond    | 0.00094533 | 0.076484   | 0.27088    |  32.0 |  1.64
Kspace  | 2.3031     | 3.7861     | 4.2227     |  29.7 | 81.36
Neigh   | 0.074453   | 0.077703   | 0.080622   |   0.8 |  1.67
Comm    | 0.0072963  | 0.1148     | 0.30874    |  34.5 |  2.47
Output  | 2.3127e-05 | 2.3678e-05 | 2.8133e-05 |   0.0 |  0.00
Modify  | 0.028449   | 0.18236    | 0.33563    |  35.0 |  3.92
Other   |            | 0.013      |            |       |  0.28

Nlocal:    35.0625 ave 145 max 0 min
Histogram: 9 0 2 2 0 0 1 0 0 2
Nghost:    183.938 ave 436 max 0 min
Histogram: 8 0 0 0 0 0 1 1 3 3
Neighs:    2916.19 ave 16202 max 0 min
Histogram: 11 1 1 0 1 0 0 0 1 1

Total # of neighbors = 46659
Ave neighs/atom = 83.1711
Ave special neighs/atom = 11.4439
Neighbor list builds = 152
Dangerous builds = 0
unfix pysimm_md
write_dump all custom pysimm.dump.tmp id q x y z vx vy vz
quit


################################################################################
##################################    Init    ##################################
################################################################################
units           real
atom_style      full
pair_style      lj/cut/coul/long 12.0  12.0
kspace_style    pppm 1e-4
bond_style      harmonic
angle_style     harmonic
dihedral_style  fourier
improper_style  cvff
special_bonds   amber
pair_modify     mix arithmetic
read_data       temp.lmps
  orthogonal box = (-96.5972 -96.5972 -96.5972) to (96.5972 96.5972 96.5972)
  2 by 2 by 4 MPI processor grid
  reading atoms ...
  670 atoms
  reading velocities ...
  670 velocities
  scanning bonds ...
  4 = max bonds/atom
  scanning angles ...
  6 = max angles/atom
  scanning dihedrals ...
  15 = max dihedrals/atom
  reading bonds ...
  669 bonds
  reading angles ...
  1299 angles
  reading dihedrals ...
  1847 dihedrals
  4 = max # of 1-2 neighbors
  6 = max # of 1-3 neighbors
  12 = max # of 1-4 neighbors
  16 = max # of special neighbors
  special bonds CPU = 0.000936985 secs
  read_data CPU = 0.018116 secs
################################################################################

min_style cg
minimize 1e-05 1e-05 10000 100000
WARNING: Using 'neigh_modify every 1 delay 0 check yes' setting during minimization (../min.cpp:190)
PPPM initialization ...
  using 12-bit tables for long-range coulomb (../kspace.cpp:332)
  G vector (1/distance) = 0.122927
  grid = 24 24 24
  stencil order = 5
  estimated absolute RMS force accuracy = 0.0278074
  estimated relative force accuracy = 8.37412e-05
  using double precision KISS FFT
  3d grid and FFT values/proc = 3179 1152
Neighbor list info ...
  update every 1 steps, delay 0 steps, check yes
  max neighbors/atom: 2000, page size: 100000
  master list distance cutoff = 14
  ghost atom cutoff = 14
  binsize = 7, bins = 28 28 28
  1 neighbor lists, perpetual/occasional/extra = 1 0 0
  (1) pair lj/cut/coul/long, perpetual
      attributes: half, newton on
      pair build: half/bin/newton
      stencil: half/bin/3d/newton
      bin: standard
Per MPI rank memory allocation (min/avg/max) = 15.24 | 15.46 | 15.86 Mbytes
Step Temp E_pair E_mol TotEng Press 
       0    389.08294   -1389.7685    246.89545   -366.97873    4.7290781 
      24    389.08294   -1398.5171    233.46059   -389.16214    4.2550589 
Loop time of 0.328867 on 16 procs for 24 steps with 670 atoms

92.4% CPU use with 16 MPI tasks x no OpenMP threads

Minimization stats:
  Stopping criterion = linesearch alpha is zero
  Energy initial, next-to-last, final = 
        -1142.87310088     -1165.05651117     -1165.05651117
  Force two-norm initial, final = 45.3767 36.3631
  Force max component initial, final = 9.25852 9.21425
  Final line search alpha, max atom move = 6.76128e-12 6.23001e-11
  Iterations, force evaluations = 24 105

MPI task timing breakdown:
Section |  min time  |  avg time  |  max time  |%varavg| %total
---------------------------------------------------------------
Pair    | 1.0967e-05 | 0.021192   | 0.18331    |  31.1 |  6.44
Bond    | 4.0293e-05 | 0.0037549  | 0.027409   |  11.1 |  1.14
Kspace  | 0.11333    | 0.29939    | 0.32484    |   9.5 | 91.04
Neigh   | 0          | 0          | 0          |   0.0 |  0.00
Comm    | 0.00092411 | 0.0018027  | 0.0030727  |   1.7 |  0.55
Output  | 0          | 0          | 0          |   0.0 |  0.00
Modify  | 0          | 0          | 0          |   0.0 |  0.00
Other   |            | 0.002726   |            |       |  0.83

Nlocal:    41.875 ave 284 max 0 min
Histogram: 10 1 2 2 0 0 0 0 0 1
Nghost:    148.562 ave 378 max 27 min
Histogram: 6 2 0 1 1 2 1 1 1 1
Neighs:    2755.56 ave 23261 max 0 min
Histogram: 11 3 0 1 0 0 0 0 0 1

Total # of neighbors = 44089
Ave neighs/atom = 65.8045
Ave special neighs/atom = 11.5194
Neighbor list builds = 0
Dangerous builds = 0
timestep        1
fix             pysimm_md all nvt temp 300 300 100
run             5000
PPPM initialization ...
  using 12-bit tables for long-range coulomb (../kspace.cpp:332)
  G vector (1/distance) = 0.122927
  grid = 24 24 24
  stencil order = 5
  estimated absolute RMS force accuracy = 0.0278074
  estimated relative force accuracy = 8.37412e-05
  using double precision KISS FFT
  3d grid and FFT values/proc = 3179 1152
Per MPI rank memory allocation (min/avg/max) = 14.12 | 14.33 | 14.73 Mbytes
Step Temp E_pair E_mol TotEng Press 
      24    389.08294   -1398.5171    233.46059   -389.16214    4.2550589 
    5024     313.3829   -1369.0909    627.84089   -116.31375   -1.0038852 
Loop time of 6.99129 on 16 procs for 5000 steps with 670 atoms

Performance: 61.791 ns/day, 0.388 hours/ns, 715.176 timesteps/s
94.1% CPU use with 16 MPI tasks x no OpenMP threads

MPI task timing breakdown:
Section |  min time  |  avg time  |  max time  |%varavg| %total
---------------------------------------------------------------
Pair    | 0.00050235 | 0.32906    | 3.2029     | 133.2 |  4.71
Bond    | 0.00091219 | 0.085166   | 0.63997    |  54.4 |  1.22
Kspace  | 2.8533     | 5.7617     | 6.13       |  32.3 | 82.41
Neigh   | 0.14182    | 0.14361    | 0.14783    |   0.4 |  2.05
Comm    | 0.012545   | 0.24599    | 0.66183    |  46.9 |  3.52
Output  | 2.3842e-05 | 2.5362e-05 | 3.4094e-05 |   0.0 |  0.00
Modify  | 0.047558   | 0.40468    | 0.67968    |  41.9 |  5.79
Other   |            | 0.02105    |            |       |  0.30

Nlocal:    41.875 ave 324 max 0 min
Histogram: 12 1 0 1 1 0 0 0 0 1
Nghost:    100.312 ave 370 max 0 min
Histogram: 4 2 4 2 2 1 0 0 0 1
Neighs:    2674.69 ave 27209 max 0 min
Histogram: 12 2 1 0 0 0 0 0 0 1

Total # of neighbors = 42795
Ave neighs/atom = 63.8731
Ave special neighs/atom = 11.5194
Neighbor list builds = 178
Dangerous builds = 0
unfix pysimm_md
write_dump all custom pysimm.dump.tmp id q x y z vx vy vz
quit


################################################################################
##################################    Init    ##################################
################################################################################
units           real
atom_style      full
pair_style      lj/cut/coul/long 12.0  12.0
kspace_style    pppm 1e-4
bond_style      harmonic
angle_style     harmonic
dihedral_style  fourier
improper_style  cvff
special_bonds   amber
pair_modify     mix arithmetic
read_data       temp.lmps
  orthogonal box = (-70.0918 -70.0918 -70.0918) to (70.0918 70.0918 70.0918)
  2 by 2 by 4 MPI processor grid
  reading atoms ...
  635 atoms
  reading velocities ...
  635 velocities
  scanning bonds ...
  4 = max bonds/atom
  scanning angles ...
  6 = max angles/atom
  scanning dihedrals ...
  15 = max dihedrals/atom
  reading bonds ...
  634 bonds
  reading angles ...
  1228 angles
  reading dihedrals ...
  1753 dihedrals
  4 = max # of 1-2 neighbors
  6 = max # of 1-3 neighbors
  12 = max # of 1-4 neighbors
  16 = max # of special neighbors
  special bonds CPU = 0.000864983 secs
  read_data CPU = 0.0180991 secs
################################################################################

min_style cg
minimize 1e-05 1e-05 10000 100000
WARNING: Using 'neigh_modify every 1 delay 0 check yes' setting during minimization (../min.cpp:190)
PPPM initialization ...
  using 12-bit tables for long-range coulomb (../kspace.cpp:332)
  G vector (1/distance) = 0.133806
  grid = 20 20 20
  stencil order = 5
  estimated absolute RMS force accuracy = 0.0322134
  estimated relative force accuracy = 9.70098e-05
  using double precision KISS FFT
  3d grid and FFT values/proc = 2250 800
Neighbor list info ...
  update every 1 steps, delay 0 steps, check yes
  max neighbors/atom: 2000, page size: 100000
  master list distance cutoff = 14
  ghost atom cutoff = 14
  binsize = 7, bins = 21 21 21
  1 neighbor lists, perpetual/occasional/extra = 1 0 0
  (1) pair lj/cut/coul/long, perpetual
      attributes: half, newton on
      pair build: half/bin/newton
      stencil: half/bin/3d/newton
      bin: standard
Per MPI rank memory allocation (min/avg/max) = 15.16 | 15.34 | 15.76 Mbytes
Step Temp E_pair E_mol TotEng Press 
       0    317.89241   -1265.5398    205.96369   -458.81234    10.270873 
      42    317.89241   -1274.7117    185.54458    -488.4034    9.2176187 
Loop time of 0.338178 on 16 procs for 42 steps with 635 atoms

94.8% CPU use with 16 MPI tasks x no OpenMP threads

Minimization stats:
  Stopping criterion = linesearch alpha is zero
  Energy initial, next-to-last, final = 
        -1059.57609962     -1089.16715332     -1089.16715332
  Force two-norm initial, final = 46.7831 27.7853
  Force max component initial, final = 10.1195 4.40213
  Final line search alpha, max atom move = 1.01949e-11 4.48791e-11
  Iterations, force evaluations = 42 141

MPI task timing breakdown:
Section |  min time  |  avg time  |  max time  |%varavg| %total
---------------------------------------------------------------
Pair    | 2.5511e-05 | 0.029217   | 0.20365    |  31.6 |  8.64
Bond    | 6.6996e-05 | 0.0050556  | 0.025502   |  11.3 |  1.49
Kspace  | 0.1019     | 0.29693    | 0.33159    |  11.3 | 87.80
Neigh   | 0.00103    | 0.0010679  | 0.0010898  |   0.0 |  0.32
Comm    | 0.0011003  | 0.0023944  | 0.0040045  |   2.2 |  0.71
Output  | 0          | 0          | 0          |   0.0 |  0.00
Modify  | 0          | 0          | 0          |   0.0 |  0.00
Other   |            | 0.003518   |            |       |  1.04

Nlocal:    39.6875 ave 199 max 0 min
[...]
Histogram: 12 3 0 0 0 0 0 0 0 1

Total # of neighbors = 72100
Ave neighs/atom = 66.0862
Ave special neighs/atom = 11.3914
Neighbor list builds = 1
Dangerous builds = 0
timestep        1
fix             pysimm_md all nvt temp 300 300 100
run             5000
PPPM initialization ...
  using 12-bit tables for long-range coulomb (../kspace.cpp:332)
  G vector (1/distance) = 0.132613
  grid = 25 25 25
  stencil order = 5
  estimated absolute RMS force accuracy = 0.0366055
  estimated relative force accuracy = 0.000110236
  using double precision KISS FFT
  3d grid and FFT values/proc = 3888 1250
Per MPI rank memory allocation (min/avg/max) = 14.13 | 14.35 | 14.81 Mbytes
Step Temp E_pair E_mol TotEng Press 
      63    335.57006   -2531.4938     305.6865   -1135.5123    8.9730718 
    5063    305.97698   -2480.8711    770.44655   -716.27994    1.3162628 
Loop time of 9.5339 on 16 procs for 5000 steps with 1091 atoms

Performance: 45.312 ns/day, 0.530 hours/ns, 524.444 timesteps/s
92.6% CPU use with 16 MPI tasks x no OpenMP threads

MPI task timing breakdown:
Section |  min time  |  avg time  |  max time  |%varavg| %total
---------------------------------------------------------------
Pair    | 0.0004673  | 0.55067    | 3.8708     | 147.0 |  5.78
Bond    | 0.00088716 | 0.12872    | 0.66681    |  56.9 |  1.35
Kspace  | 4.4776     | 7.8575     | 8.4428     |  39.6 | 82.42
Neigh   | 0.18643    | 0.19033    | 0.19236    |   0.4 |  2.00
Comm    | 0.0066552  | 0.25005    | 0.8255     |  54.5 |  2.62
Output  | 2.408e-05  | 2.5705e-05 | 3.2902e-05 |   0.0 |  0.00
Modify  | 0.049266   | 0.53041    | 0.87446    |  49.2 |  5.56
Other   |            | 0.02616    |            |       |  0.27

Nlocal:    68.1875 ave 469 max 0 min
Histogram: 12 0 0 1 2 0 0 0 0 1
Nghost:    95.0625 ave 291 max 0 min
Histogram: 9 1 0 0 0 1 0 2 0 3
Neighs:    4712.88 ave 49023 max 0 min
Histogram: 12 2 1 0 0 0 0 0 0 1

Total # of neighbors = 75406
Ave neighs/atom = 69.1164
Ave special neighs/atom = 11.3914
Neighbor list builds = 155
Dangerous builds = 0
unfix pysimm_md
write_dump all custom pysimm.dump.tmp id q x y z vx vy vz
quit


################################################################################
##################################    Init    ##################################
################################################################################
units           real
atom_style      full
pair_style      lj/cut/coul/long 12.0  12.0
kspace_style    pppm 1e-4
bond_style      harmonic
angle_style     harmonic
dihedral_style  fourier
improper_style  cvff
special_bonds   amber
pair_modify     mix arithmetic
read_data       temp.lmps
  orthogonal box = (-125.286 -125.286 -125.286) to (125.286 125.286 125.286)
  2 by 2 by 4 MPI processor grid
  reading atoms ...
  1296 atoms
  reading velocities ...
  1296 velocities
  scanning bonds ...
  4 = max bonds/atom
  scanning angles ...
  6 = max angles/atom
  scanning dihedrals ...
  15 = max dihedrals/atom
  reading bonds ...
  1295 bonds
  reading angles ...
  2512 angles
  reading dihedrals ...
  3580 dihedrals
  4 = max # of 1-2 neighbors
  6 = max # of 1-3 neighbors
  12 = max # of 1-4 neighbors
  16 = max # of special neighbors
  special bonds CPU = 0.00181985 secs
  read_data CPU = 0.0272129 secs
################################################################################

min_style cg
minimize 1e-05 1e-05 10000 100000
WARNING: Using 'neigh_modify every 1 delay 0 check yes' setting during minimization (../min.cpp:190)
PPPM initialization ...
WARNING: System is not charge neutral, net charge = -2e-05 (../kspace.cpp:313)
  using 12-bit tables for long-range coulomb (../kspace.cpp:332)
  G vector (1/distance) = 0.120069
  grid = 30 30 30
  stencil order = 5
  estimated absolute RMS force accuracy = 0.0325152
  estimated relative force accuracy = 9.79186e-05
  using double precision KISS FFT
  3d grid and FFT values/proc = 5200 1800
Neighbor list info ...
  update every 1 steps, delay 0 steps, check yes
  max neighbors/atom: 2000, page size: 100000
  master list distance cutoff = 14
  ghost atom cutoff = 14
  binsize = 7, bins = 36 36 36
  1 neighbor lists, perpetual/occasional/extra = 1 0 0
  (1) pair lj/cut/coul/long, perpetual
      attributes: half, newton on
      pair build: half/bin/newton
      stencil: half/bin/3d/newton
      bin: standard
Per MPI rank memory allocation (min/avg/max) = 15.42 | 15.64 | 16.07 Mbytes
Step Temp E_pair E_mol TotEng Press 
       0     309.7012   -2678.2524    423.79092   -1058.9687    2.9818932 
      21     309.7012   -2688.7941     404.3212   -1088.9801    2.7427919 
Loop time of 0.328612 on 16 procs for 21 steps with 1296 atoms

94.2% CPU use with 16 MPI tasks x no OpenMP threads

Minimization stats:
  Stopping criterion = linesearch alpha is zero
  Energy initial, next-to-last, final = 
        -2254.46145483     -2284.47293215     -2284.47293215
  Force two-norm initial, final = 70.0592 42.6923
  Force max component initial, final = 16.7491 6.31396
  Final line search alpha, max atom move = 4.46816e-12 2.82118e-11
  Iterations, force evaluations = 21 101

MPI task timing breakdown:
Section |  min time  |  avg time  |  max time  |%varavg| %total
---------------------------------------------------------------
Pair    | 1.955e-05  | 0.042698   | 0.13829    |  23.5 | 12.99
Bond    | 1.812e-05  | 0.0075264  | 0.02567    |  10.3 |  2.29
Kspace  | 0.16012    | 0.27326    | 0.32468    |  11.0 | 83.16
Neigh   | 0          | 0          | 0          |   0.0 |  0.00
Comm    | 4.0531e-05 | 0.0022994  | 0.004076   |   3.0 |  0.70
Output  | 0          | 0          | 0          |   0.0 |  0.00
Modify  | 0          | 0          | 0          |   0.0 |  0.00
Other   |            | 0.002829   |            |       |  0.86

Nlocal:    81 ave 280 max 0 min
Histogram: 8 0 1 2 2 0 0 0 1 2
Nghost:    249 ave 672 max 0 min
Histogram: 4 3 1 0 2 2 2 0 1 1
Neighs:    5185.31 ave 16921 max 0 min
Histogram: 7 1 2 1 1 1 0 0 1 2

Total # of neighbors = 82965
Ave neighs/atom = 64.0162
Ave special neighs/atom = 11.4799
Neighbor list builds = 0
Dangerous builds = 0
timestep        1
fix             pysimm_md all nvt temp 300 300 100
run             5000
PPPM initialization ...
  using 12-bit tables for long-range coulomb (../kspace.cpp:332)
  G vector (1/distance) = 0.120069
  grid = 30 30 30
  stencil order = 5
  estimated absolute RMS force accuracy = 0.0325152
  estimated relative force accuracy = 9.79186e-05
  using double precision KISS FFT
  3d grid and FFT values/proc = 5200 1800
Per MPI rank memory allocation (min/avg/max) = 14.29 | 14.52 | 14.94 Mbytes
Step Temp E_pair E_mol TotEng Press 
      21     309.7012   -2688.7941     404.3212   -1088.9801    2.7427919 
    5021    296.24938   -2603.3649    1044.0064   -415.79177   0.31968168 
Loop time of 7.69115 on 16 procs for 5000 steps with 1296 atoms

Performance: 56.168 ns/day, 0.427 hours/ns, 650.098 timesteps/s
94.9% CPU use with 16 MPI tasks x no OpenMP threads

MPI task timing breakdown:
Section |  min time  |  avg time  |  max time  |%varavg| %total
---------------------------------------------------------------
Pair    | 0.00052381 | 0.66556    | 2.6333     |  99.5 |  8.65
Bond    | 0.00092959 | 0.16326    | 0.59584    |  49.5 |  2.12
Kspace  | 4.0848     | 6.0653     | 6.7807     |  33.9 | 78.86
Neigh   | 0.18664    | 0.19033    | 0.19564    |   0.6 |  2.47
Comm    | 0.0094321  | 0.33719    | 0.65831    |  41.2 |  4.38
Output  | 2.5034e-05 | 2.6196e-05 | 3.4094e-05 |   0.0 |  0.00
Modify  | 0.043437   | 0.25274    | 0.69711    |  52.1 |  3.29
Other   |            | 0.0167     |            |       |  0.22

Nlocal:    81 ave 323 max 0 min
Histogram: 8 4 0 0 0 0 1 1 1 1
Nghost:    254.5 ave 577 max 0 min
Histogram: 2 4 1 1 3 0 1 0 1 3
Neighs:    4910.31 ave 22235 max 0 min
Histogram: 10 0 2 0 0 2 0 1 0 1

Total # of neighbors = 78565
Ave neighs/atom = 60.6211
Ave special neighs/atom = 11.4799
Neighbor list builds = 238
Dangerous builds = 1
unfix pysimm_md
write_dump all custom pysimm.dump.tmp id q x y z vx vy vz
quit


################################################################################
##################################    Init    ##################################
################################################################################
units           real
atom_style      full
pair_style      lj/cut/coul/long 12.0  12.0
kspace_style    pppm 1e-4
bond_style      harmonic
angle_style     harmonic
dihedral_style  fourier
improper_style  cvff
special_bonds   amber
pair_modify     mix arithmetic
read_data       temp.lmps
  orthogonal box = (-90.1896 -90.1896 -90.1896) to (90.1896 90.1896 90.1896)
  2 by 2 by 4 MPI processor grid
  reading atoms ...
  1045 atoms
  reading velocities ...
  1045 velocities
  scanning bonds ...
  4 = max bonds/atom
  scanning angles ...
  6 = max angles/atom
  scanning dihedrals ...
  15 = max dihedrals/atom
  reading bonds ...
  1044 bonds
  reading angles ...
  2019 angles
  reading dihedrals ...
  2833 dihedrals
  4 = max # of 1-2 neighbors
  6 = max # of 1-3 neighbors
  12 = max # of 1-4 neighbors
  16 = max # of special neighbors
  special bonds CPU = 0.00156188 secs
  read_data CPU = 0.025259 secs
################################################################################

min_style cg
minimize 1e-05 1e-05 10000 100000
WARNING: Using 'neigh_modify every 1 delay 0 check yes' setting during minimization (../min.cpp:190)
PPPM initialization ...
WARNING: System is not charge neutral, net charge = -3.2e-05 (../kspace.cpp:313)
  using 12-bit tables for long-range coulomb (../kspace.cpp:332)
  G vector (1/distance) = 0.131512
  grid = 25 25 25
  stencil order = 5
  estimated absolute RMS force accuracy = 0.0397376
  estimated relative force accuracy = 0.000119669
  using double precision KISS FFT
  3d grid and FFT values/proc = 3888 1250
Neighbor list info ...
  update every 1 steps, delay 0 steps, check yes
  max neighbors/atom: 2000, page size: 100000
  master list distance cutoff = 14
  ghost atom cutoff = 14
  binsize = 7, bins = 26 26 26
  1 neighbor lists, perpetual/occasional/extra = 1 0 0
  (1) pair lj/cut/coul/long, perpetual
      attributes: half, newton on
      pair build: half/bin/newton
      stencil: half/bin/3d/newton
      bin: standard
Per MPI rank memory allocation (min/avg/max) = 15.26 | 15.51 | 15.93 Mbytes
Step Temp E_pair E_mol TotEng Press 
       0    433.74508   -2497.2703    360.16205   -787.30844    9.8252693 
      23    433.74508   -2507.4056    340.33509   -817.27072    8.0806478 
Loop time of 0.334973 on 16 procs for 23 steps with 1045 atoms

95.2% CPU use with 16 MPI tasks x no OpenMP threads

Minimization stats:
  Stopping criterion = linesearch alpha is zero
  Energy initial, next-to-last, final = 
        -2137.10823673     -2167.07051838     -2167.07051838
  Force two-norm initial, final = 56.8009 44.153
  Force max component initial, final = 9.27839 12.3854
  Final line search alpha, max atom move = 3.92519e-12 4.86149e-11
  Iterations, force evaluations = 23 105

MPI task timing breakdown:
Section |  min time  |  avg time  |  max time  |%varavg| %total
---------------------------------------------------------------
Pair    | 2.3842e-05 | 0.027712   | 0.16378    |  27.7 |  8.27
Bond    | 5.126e-05  | 0.0062197  | 0.03186    |  12.1 |  1.86
Kspace  | 0.13392    | 0.29589    | 0.33085    |  10.2 | 88.33
Neigh   | 0          | 0          | 0          |   0.0 |  0.00
Comm    | 6.938e-05  | 0.001965   | 0.0035996  |   2.7 |  0.59
Output  | 0          | 0          | 0          |   0.0 |  0.00
Modify  | 0          | 0          | 0          |   0.0 |  0.00
Other   |            | 0.003184   |            |       |  0.95

Nlocal:    65.3125 ave 340 max 0 min
Histogram: 11 0 0 0 3 1 0 0 0 1
Nghost:    175.688 ave 417 max 0 min
Histogram: 8 0 0 0 0 1 0 4 0 3
Neighs:    3240 ave 20069 max 0 min
Histogram: 11 0 1 1 1 1 0 0 0 1

Total # of neighbors = 51840
Ave neighs/atom = 49.6077
Ave special neighs/atom = 11.3301
Neighbor list builds = 0
Dangerous builds = 0
timestep        1
fix             pysimm_md all nvt temp 300 300 100
run             5000
PPPM initialization ...
  using 12-bit tables for long-range coulomb (../kspace.cpp:332)
  G vector (1/distance) = 0.131512
  grid = 25 25 25
  stencil order = 5
  estimated absolute RMS force accuracy = 0.0397376
  estimated relative force accuracy = 0.000119669
  using double precision KISS FFT
  3d grid and FFT values/proc = 3888 1250
Per MPI rank memory allocation (min/avg/max) = 14.14 | 14.38 | 14.81 Mbytes
Step Temp E_pair E_mol TotEng Press 
      23    433.74508   -2507.4056    340.33509   -817.27072    8.0806478 
    5023    308.35429   -2471.2175    717.10877   -794.52077    5.2473374 
Loop time of 7.20848 on 16 procs for 5000 steps with 1045 atoms

Performance: 59.929 ns/day, 0.400 hours/ns, 693.627 timesteps/s
95.3% CPU use with 16 MPI tasks x no OpenMP threads

MPI task timing breakdown:
Section |  min time  |  avg time  |  max time  |%varavg| %total
---------------------------------------------------------------
Pair    | 0.00047708 | 0.45166    | 3.0345     | 126.6 |  6.27
Bond    | 0.00094724 | 0.13048    | 0.69779    |  56.3 |  1.81
Kspace  | 3.1725     | 5.7912     | 6.2909     |  36.0 | 80.34
Neigh   | 0.14831    | 0.15067    | 0.1525     |   0.3 |  2.09
Comm    | 0.010499   | 0.24783    | 0.72531    |  49.4 |  3.44
Output  | 2.5034e-05 | 2.6613e-05 | 3.6001e-05 |   0.0 |  0.00
Modify  | 0.044789   | 0.41315    | 0.74913    |  51.2 |  5.73
Other   |            | 0.02345    |            |       |  0.33

Nlocal:    65.3125 ave 444 max 0 min
Histogram: 10 1 2 1 1 0 0 0 0 1
Nghost:    154.188 ave 557 max 12 min
Histogram: 6 2 3 1 0 2 1 0 0 1
Neighs:    3767.25 ave 32990 max 0 min
Histogram: 12 2 0 0 1 0 0 0 0 1

Total # of neighbors = 60276
Ave neighs/atom = 57.6804
Ave special neighs/atom = 11.3301
Neighbor list builds = 166
Dangerous builds = 0
unfix pysimm_md
write_dump all custom pysimm.dump.tmp id q x y z vx vy vz
quit


################################################################################
##################################    Init    ##################################
################################################################################
units           real
atom_style      full
pair_style      lj/cut/coul/long 12.0  12.0
kspace_style    pppm 1e-4
bond_style      harmonic
angle_style     harmonic
dihedral_style  fourier
improper_style  cvff
special_bonds   amber
pair_modify     mix arithmetic
read_data       temp.lmps
  orthogonal box = (-90.799 -90.799 -90.799) to (90.799 90.799 90.799)
  2 by 2 by 4 MPI processor grid
  reading atoms ...
  1202 atoms
  reading velocities ...
  1202 velocities
  scanning bonds ...
  4 = max bonds/atom
  scanning angles ...
  6 = max angles/atom
  scanning dihedrals ...
  15 = max dihedrals/atom
  reading bonds ...
  1201 bonds
  reading angles ...
  2326 angles
  reading dihedrals ...
  3290 dihedrals
  4 = max # of 1-2 neighbors
  6 = max # of 1-3 neighbors
  12 = max # of 1-4 neighbors
  16 = max # of special neighbors
  special bonds CPU = 0.00161195 secs
  read_data CPU = 0.0261989 secs
################################################################################

min_style cg
minimize 1e-05 1e-05 10000 100000
WARNING: Using 'neigh_modify every 1 delay 0 check yes' setting during minimization (../min.cpp:190)
PPPM initialization ...
WARNING: System is not charge neutral, net charge = -2.7e-05 (../kspace.cpp:313)
  using 12-bit tables for long-range coulomb (../kspace.cpp:332)
  G vector (1/distance) = 0.13098
  grid = 25 25 25
  stencil order = 5
  estimated absolute RMS force accuracy = 0.0383029
  estimated relative force accuracy = 0.000115348
  using double precision KISS FFT
  3d grid and FFT values/proc = 3888 1250
Neighbor list info ...
  update every 1 steps, delay 0 steps, check yes
  max neighbors/atom: 2000, page size: 100000
  master list distance cutoff = 14
  ghost atom cutoff = 14
  binsize = 7, bins = 26 26 26
  1 neighbor lists, perpetual/occasional/extra = 1 0 0
  (1) pair lj/cut/coul/long, perpetual
      attributes: half, newton on
      pair build: half/bin/newton
      stencil: half/bin/3d/newton
      bin: standard
Per MPI rank memory allocation (min/avg/max) = 15.27 | 15.42 | 15.95 Mbytes
Step Temp E_pair E_mol TotEng Press 
       0    245.64937   -2747.7211     403.9318   -1464.3762    5.4274185 
      32    245.64937   -2750.3155    371.78132    -1499.121    5.5046019 
Loop time of 0.690509 on 16 procs for 32 steps with 1202 atoms

91.2% CPU use with 16 MPI tasks x no OpenMP threads

Minimization stats:
  Stopping criterion = linesearch alpha is zero
  Energy initial, next-to-last, final = 
        -2343.78933789     -2378.53414292     -2378.53414292
  Force two-norm initial, final = 58.6542 29.5713
  Force max component initial, final = 11.9925 5.17235
  Final line search alpha, max atom move = 1.30088e-11 6.72862e-11
  Iterations, force evaluations = 32 121

MPI task timing breakdown:
Section |  min time  |  avg time  |  max time  |%varavg| %total
---------------------------------------------------------------
Pair    | 1.6689e-05 | 0.054372   | 0.45713    |  58.6 |  7.87
Bond    | 3.2425e-05 | 0.0073933  | 0.054218   |  20.0 |  1.07
Kspace  | 0.17296    | 0.62257    | 0.68476    |  19.5 | 90.16
Neigh   | 0          | 0          | 0          |   0.0 |  0.00
Comm    | 0.00097704 | 0.0019798  | 0.0033712  |   1.7 |  0.29
Output  | 0          | 0          | 0          |   0.0 |  0.00
Modify  | 0          | 0          | 0          |   0.0 |  0.00
Other   |            | 0.004197   |            |       |  0.61

Nlocal:    75.125 ave 539 max 0 min
Histogram: 13 1 0 0 0 0 0 0 0 2
Nghost:    161.625 ave 521 max 7 min
Histogram: 2 6 1 3 1 1 1 0 0 1
Neighs:    6178 ave 50821 max 0 min
Histogram: 14 0 0 0 0 0 0 0 1 1

Total # of neighbors = 98848
Ave neighs/atom = 82.2363
Ave special neighs/atom = 11.4093
Neighbor list builds = 0
Dangerous builds = 0
timestep        1
fix             pysimm_md all nvt temp 300 300 100
run             5000
PPPM initialization ...
  using 12-bit tables for long-range coulomb (../kspace.cpp:332)
  G vector (1/distance) = 0.13098
  grid = 25 25 25
  stencil order = 5
  estimated absolute RMS force accuracy = 0.0383029
  estimated relative force accuracy = 0.000115348
  using double precision KISS FFT
  3d grid and FFT values/proc = 3888 1250
Per MPI rank memory allocation (min/avg/max) = 14.15 | 14.29 | 14.82 Mbytes
Step Temp E_pair E_mol TotEng Press 
      32    245.64937   -2750.3155    371.78132    -1499.121    5.5046019 
    5032    290.90087   -2734.5736    891.17089   -801.99132    3.0184432 
Loop time of 10.3073 on 16 procs for 5000 steps with 1202 atoms

Performance: 41.912 ns/day, 0.573 hours/ns, 485.093 timesteps/s
91.0% CPU use with 16 MPI tasks x no OpenMP threads

MPI task timing breakdown:
Section |  min time  |  avg time  |  max time  |%varavg| %total
---------------------------------------------------------------
Pair    | 0.00048041 | 0.71109    | 4.2351     | 164.3 |  6.90
Bond    | 0.00087404 | 0.1417     | 0.82348    |  68.6 |  1.37
Kspace  | 4.7497     | 8.2861     | 9.0357     |  48.4 | 80.39
Neigh   | 0.27877    | 0.28026    | 0.28273    |   0.2 |  2.72
Comm    | 0.018164   | 0.40822    | 0.95854    |  51.1 |  3.96
Output  | 2.408e-05  | 2.5168e-05 | 3.1948e-05 |   0.0 |  0.00
Modify  | 0.033519   | 0.45595    | 0.9609     |  54.5 |  4.42
Other   |            | 0.02399    |            |       |  0.23

Nlocal:    75.125 ave 435 max 0 min
Histogram: 10 2 1 1 0 0 0 0 1 1
Nghost:    142.125 ave 295 max 0 min
Histogram: 2 1 2 1 3 2 1 1 1 2
Neighs:    5793.81 ave 43593 max 0 min
Histogram: 13 0 1 0 0 0 1 0 0 1

Total # of neighbors = 92701
Ave neighs/atom = 77.1223
Ave special neighs/atom = 11.4093
Neighbor list builds = 209
Dangerous builds = 1
unfix pysimm_md
write_dump all custom pysimm.dump.tmp id q x y z vx vy vz
quit
