
Host: node27

Timers On : Thu Jan 19 14:56:01 2023
Timers Off: Thu Jan 19 14:56:04 2023

Wall Time:        3.32 seconds

                                                       Time (seconds)
Module                                       User      System        Wall        Calls

--------------------------------------------------------------------------------------

**************************************************************************************

Host: node27

Timers On : Thu Jan 19 14:57:50 2023
Timers Off: Thu Jan 19 14:57:53 2023

Wall Time:        3.16 seconds

                                                       Time (seconds)
Module                                       User      System        Wall        Calls

--------------------------------------------------------------------------------------

**************************************************************************************

Host: node27

Timers On : Thu Jan 19 14:58:57 2023
Timers Off: Thu Jan 19 14:59:01 2023

Wall Time:        4.24 seconds

                                                       Time (seconds)
Module                                       User      System        Wall        Calls

--------------------------------------------------------------------------------------

**************************************************************************************

Host: node27

Timers On : Thu Jan 19 15:00:49 2023
Timers Off: Thu Jan 19 15:00:53 2023

Wall Time:        4.29 seconds

                                                       Time (seconds)
Module                                       User      System        Wall        Calls

--------------------------------------------------------------------------------------

**************************************************************************************

Host: node27

Timers On : Thu Jan 19 15:02:13 2023
Timers Off: Thu Jan 19 15:02:16 2023

Wall Time:        3.17 seconds

                                                       Time (seconds)
Module                                       User      System        Wall        Calls

--------------------------------------------------------------------------------------

**************************************************************************************

Host: node27

Timers On : Thu Jan 19 15:46:44 2023
Timers Off: Thu Jan 19 15:46:47 2023

Wall Time:        2.87 seconds

                                                       Time (seconds)
Module                                       User      System        Wall        Calls

--------------------------------------------------------------------------------------

**************************************************************************************

Host: node27

Timers On : Thu Jan 19 15:49:27 2023
Timers Off: Thu Jan 19 17:59:50 2023

Wall Time:     7823.76 seconds

                                                       Time (seconds)
Module                                       User      System        Wall        Calls

--------------------------------------------------------------------------------------

**************************************************************************************
