pySIMM System Object

1906 atoms
2075 bonds
3672 angles
5436 dihedrals
544 impropers

9 atom types
11 bond types
18 angle types
7 dihedral types
4 improper types

-197.064418 197.064418 xlo xhi
-197.064418 197.064418 ylo yhi
-197.064418 197.064418 zlo zhi

Masses

   1	12.01	# ca
   2	16.0	# o
   3	12.01	# c
   4	14.01	# n
   5	12.01	# c3
   6	19.0	# f
   7	1.008	# ha
   8	1.008	# hn
   9	1.008	# hc

Pair Coeffs

   1	0.086	3.3996695084235347	# ca
   2	0.21	2.959921901149463	# o
   3	0.086	3.3996695084235347	# c
   4	0.17	3.249998523775958	# n
   5	0.1094	3.3996695084235347	# c3
   6	0.061	3.1181455134911875	# f
   7	0.015	2.59964245953351	# ha
   8	0.0157	1.069078461768407	# hn
   9	0.0157	2.649532787749369	# hc

Bond Coeffs

   1	321.0	1.5156	# c3,ca
   2	300.9	1.5375	# c3,c3
   3	384.2	1.4121	# ca,n
   4	330.6	1.0969	# c3,hc
   5	637.7	1.2183	# c,o
   6	403.2	1.0129	# hn,n
   7	356.9	1.3497	# c3,f
   8	461.1	1.3984	# ca,ca
   9	427.6	1.3789	# c,n
  10	345.9	1.4906	# c,ca
  11	345.8	1.086	# ca,ha

Angle Coeffs

   1	70.89	107.36	# f,c3,f
   2	68.72	122.6	# ca,c,o
   3	67.87	120.19	# ca,ca,n
   4	67.68	115.25	# ca,c,n
   5	46.8	110.47	# ca,c3,hc
   6	74.22	123.05	# n,c,o
   7	48.33	117.55	# c,n,hn
   8	63.56	112.24	# ca,c3,ca
   9	62.86	111.51	# c3,c3,c3
  10	66.11	109.24	# c3,c3,f
  11	64.28	120.33	# c,ca,ca
  12	66.62	120.02	# ca,ca,ca
  13	63.74	127.08	# c,n,c
  14	39.4	107.58	# hc,c3,hc
  15	48.18	119.88	# ca,ca,ha
  16	63.15	112.07	# c3,c3,ca
  17	63.53	120.77	# c3,ca,ca
  18	63.82	123.71	# c,n,ca

Dihedral Coeffs

   1	2	2.5	2	180	2.0	1	0	# hn,n,c,o
   2	1	3.625	2	180	# X,ca,ca,X
   3	1	0.0	2	0	# X,c3,ca,X
   4	1	1.0	2	180	# X,c,ca,X
   5	1	0.15555555555555556	3	0	# X,c3,c3,X
   6	1	2.5	2	180	# X,c,n,X
   7	1	0.45	2	180	# X,ca,n,X

Improper Coeffs

   1	1.1	-1	2	# n,X,X,hn
   2	1.1	-1	2	# ca,ca,ca,c3
   3	1.1	-1	2	# ca,X,X,ha
   4	10.5	-1	2	# c,X,X,o

Atoms

   1	1	1	-0.004194	30.4612	24.1586	13.6388
   2	1	1	-0.097141	31.1909	25.1252	12.8961
   3	1	1	-0.172015	32.3323	24.69	12.1629
   4	1	2	-0.377994	29.4565	21.677	15.2122
   5	1	1	0.033493	30.929	22.8428	13.69
   6	1	1	-0.063739	32.7779	23.3526	12.2162
   7	1	2	-0.398381	33.2692	20.3602	12.9088
   8	1	1	0.032144	32.062	22.4522	13.0079
   9	1	3	0.032313	30.4284	21.6868	14.4753
  10	1	4	0.461698	31.3378	20.66	14.2242
  11	1	3	0.091945	32.3396	21.0301	13.3285
  12	1	1	-0.10563	28.8139	28.0007	16.0517
  13	1	5	-0.099376	30.7117	26.6086	12.9164
  14	1	1	-0.043296	30.3186	26.9609	14.3836
  15	1	1	-0.073043	29.1646	27.7292	14.7132
  16	1	1	-0.117827	29.6365	27.4962	17.0632
  17	1	1	-0.037562	31.1501	26.5121	15.4447
  18	1	1	-0.083705	30.7745	26.7769	16.7662
  19	1	5	0.396	29.5119	26.6967	11.8972
  20	1	5	0.310495	31.8256	27.6449	12.5032
  21	1	6	-0.130298	28.4241	26.0349	12.3529
  22	1	6	-0.128745	29.8262	26.1325	10.7086
  23	1	6	-0.120019	29.1261	27.9646	11.6281
  24	1	6	-0.104287	32.1227	27.6161	11.1842
  25	1	6	-0.095507	32.9779	27.4361	13.1796
  26	1	6	-0.104872	31.4512	28.9145	12.7821
  27	1	3	0.456145	31.4185	26.3762	18.0455
  28	1	3	0.550902	29.5159	27.5849	18.5429
  29	1	4	0.015704	30.6076	26.8923	19.0487
  30	1	2	-0.456801	32.4334	25.7112	18.1628
  31	1	2	-0.487703	28.6313	28.1541	19.1596
  32	1	1	-0.116566	30.8603	26.7333	20.4422
  33	1	1	-0.050109	31.5105	27.7601	21.1626
  34	1	1	0.154929	31.7278	27.6063	22.5451
  35	1	1	0.041555	30.4377	25.5602	21.1079
  36	1	1	-0.223109	30.6668	25.4246	22.4887
  37	1	1	-0.080449	31.3065	26.443	23.2126
  38	1	5	-0.108008	29.7301	24.4371	20.3592
  39	1	5	-0.182228	31.5321	26.2766	24.7071
  40	1	5	-0.345523	31.9681	29.0397	20.4671
  41	1	7	0.155183	29.5737	24.4251	14.2079
  42	1	7	0.172904	32.9063	25.3801	11.5536
  43	1	7	0.158028	33.6682	23.0279	11.6815
  44	1	7	0.153129	27.9232	28.5766	16.2963
  45	1	7	0.142914	28.5142	28.124	13.9411
  46	1	7	0.135531	32.0574	25.9431	15.2536
  47	1	7	0.17765	30.342	24.5248	23.0046
  48	1	9	0.046541	30.403	23.9661	19.6316
  49	1	9	0.045238	28.8516	24.8116	19.819
  50	1	9	0.051941	29.3814	23.6511	21.0407
  51	1	9	0.087961	31.9365	27.1897	25.1617
  52	1	9	0.066782	32.2402	25.463	24.907
  53	1	9	0.075908	30.5918	26.0404	25.2208
  54	1	9	0.105172	32.5625	28.8187	19.572
  55	1	9	0.115625	32.5948	29.6551	21.1251
  56	1	9	0.140296	31.1071	29.6525	20.1701
  57	1	1	-0.004194	33.866	15.2622	24.6292
  58	1	1	-0.097141	34.1215	16.6321	24.9089
  59	1	1	-0.172015	35.1306	16.9416	25.8685
  60	1	2	-0.377994	33.7706	12.1476	24.5003
  61	1	1	0.033493	34.5946	14.2755	25.3064
  62	1	1	-0.063739	35.8747	15.9331	26.5147
  63	1	2	-0.398381	37.1372	13.2683	27.4937
  64	1	1	0.032144	35.5811	14.6026	26.2129
  65	1	3	0.032313	34.5207	12.7928	25.2143
  66	1	4	0.461698	35.5124	12.3223	26.0775
  67	1	3	0.091945	36.2004	13.3514	26.7167
  68	1	1	-0.10563	34.7569	17.0931	20.6762
  69	1	5	-0.099376	33.2575	17.7239	24.1986
  70	1	1	-0.043296	33.3319	17.5035	22.6591
  71	1	1	-0.073043	34.5863	17.1741	22.0724
  72	1	1	-0.117827	33.6487	17.3522	19.8653
  73	1	1	-0.037562	32.2293	17.7502	21.7949
  74	1	1	-0.083705	32.4194	17.6637	20.4081
  75	1	5	0.396	33.769	19.1987	24.4368
  76	1	5	0.310495	31.7981	17.5894	24.7888
  77	1	6	-0.130298	33.6263	19.6074	25.7181
  78	1	6	-0.128745	33.1068	20.0949	23.6697
  79	1	6	-0.120019	35.0746	19.3389	24.1103
  80	1	6	-0.104287	31.8207	17.4911	26.138
  81	1	6	-0.095507	31.1701	16.481	24.3363
  82	1	6	-0.104872	30.9925	18.6354	24.4984
  83	1	3	0.456145	31.4751	17.9293	19.2854
  84	1	3	0.550902	33.5358	17.4163	18.3843
  85	1	4	0.015704	32.2191	17.7684	18.1219
  86	1	2	-0.456801	30.3019	18.2417	19.3893
  87	1	2	-0.487703	34.4354	17.2157	17.5865
  88	1	1	-0.116566	31.7151	17.9533	16.7986
  89	1	1	-0.050109	31.7102	19.2407	16.2096
  90	1	1	0.154929	31.2935	19.3883	14.859
  91	1	1	0.041555	31.2968	16.8289	16.0562
  92	1	1	-0.223109	30.8794	16.9915	14.7267
  93	1	1	-0.080449	30.8781	18.2562	14.1185
  94	1	5	-0.108008	31.3116	15.4303	16.6622
  95	1	5	-0.182228	30.4513	18.3597	12.6562
  96	1	5	-0.345523	32.1664	20.4398	17.0542
  97	1	7	0.155183	33.1116	14.9603	23.9076
  98	1	7	0.172904	35.3599	17.9663	26.1414
  99	1	7	0.158028	36.6511	16.1738	27.2383
 100	1	7	0.153129	35.7271	16.87	20.2361
 101	1	7	0.142914	35.4577	17.0204	22.7036
 102	1	7	0.135531	31.2533	18.0452	22.1658
 103	1	7	0.17765	30.5735	16.1199	14.1545
 104	1	9	0.046541	30.747	15.4003	17.6024
 105	1	9	0.045238	32.3384	15.1035	16.8686
 106	1	9	0.051941	30.8614	14.6909	15.9885
 107	1	9	0.087961	31.3232	18.501	12.0033
 108	1	9	0.066782	29.7607	19.1963	12.4909
 109	1	9	0.075908	29.9382	17.4502	12.3191
 110	1	9	0.105172	32.279	21.3724	16.4916
 111	1	9	0.115625	33.1403	20.253	17.5233
 112	1	9	0.140296	31.4394	20.6411	17.8537
 113	1	1	-0.004194	30.3846	4.99469	32.3408
 114	1	1	-0.097141	31.6668	4.38434	32.2755
 115	1	1	-0.172015	31.8042	3.22202	31.4608
 116	1	2	-0.377994	27.4831	5.95331	31.9182
 117	1	1	0.033493	29.3204	4.42106	31.6419
 118	1	1	-0.063739	30.7025	2.6307	30.803
 119	1	2	-0.398381	27.9006	1.97592	29.5801
 120	1	1	0.032144	29.4585	3.25597	30.9195
 121	1	3	0.032313	27.929	4.90345	31.4937
 122	1	4	0.461698	27.2865	3.94549	30.7159
 123	1	3	0.091945	28.1433	2.92365	30.3079
 124	1	1	-0.10563	36.3294	5.88828	31.4602
 125	1	5	-0.099376	32.9042	4.92469	33.0668
 126	1	1	-0.043296	33.9742	5.41285	32.0529
 127	1	1	-0.073043	35.3714	5.28352	32.2994
 128	1	1	-0.117827	35.8706	6.64261	30.3767
 129	1	1	-0.037562	33.5565	6.16191	30.9213
 130	1	1	-0.083705	34.5245	6.76936	30.1138
 131	1	5	0.396	33.3986	3.75569	34.0201
 132	1	5	0.310495	32.5812	6.18643	33.961
 133	1	6	-0.130298	34.04	2.77337	33.3481
 134	1	6	-0.128745	32.3584	3.17125	34.6566
 135	1	6	-0.120019	34.2533	4.14975	34.9908
 136	1	6	-0.104287	31.6804	5.91187	34.9288
 137	1	6	-0.095507	32.0982	7.22655	33.2436
 138	1	6	-0.104872	33.6834	6.67457	34.573
 139	1	3	0.456145	34.3668	7.64916	28.9262
 140	1	3	0.550902	36.6169	7.44378	29.3701
 141	1	4	0.015704	35.6547	8.0005	28.5325
 142	1	2	-0.456801	33.3105	8.04818	28.4729
 143	1	2	-0.487703	37.8276	7.59076	29.3328
 144	1	1	-0.116566	35.9619	8.81491	27.3917
 145	1	1	-0.050109	35.5677	10.1803	27.3321
 146	1	1	0.154929	35.8884	10.9525	26.1818
 147	1	1	0.041555	36.6815	8.24477	26.3131
 148	1	1	-0.223109	37.0059	9.02897	25.1989
 149	1	1	-0.080449	36.6233	10.3734	25.1211
 150	1	5	-0.108008	37.161	6.79635	26.3071
 151	1	5	-0.182228	37.0349	11.171	23.8851
 152	1	5	-0.345523	34.797	10.8099	28.5019
 153	1	7	0.155183	30.1783	5.89477	32.9069
 154	1	7	0.172904	32.7759	2.75262	31.3384
 155	1	7	0.158028	30.8123	1.7294	30.2029
 156	1	7	0.153129	37.3948	5.80583	31.6661
 157	1	7	0.142914	35.7393	4.75001	33.1683
 158	1	7	0.135531	32.5045	6.32814	30.701
 159	1	7	0.17765	37.5754	8.5841	24.3871
 160	1	9	0.046541	38.1548	6.71545	26.7647
 161	1	9	0.045238	37.2368	6.40554	25.2851
 162	1	9	0.051941	36.4855	6.13002	26.8512
 163	1	9	0.087961	37.5038	12.1256	24.1556
 164	1	9	0.066782	36.169	11.3818	23.2443
 165	1	9	0.075908	37.7635	10.623	23.2745
 166	1	9	0.105172	34.9744	11.8846	28.6144
 167	1	9	0.115625	35.0837	10.3737	29.4661
 168	1	9	0.140296	33.7153	10.6591	28.3824
 169	1	1	-0.004194	15.788	0.490582	35.6396
 170	1	1	-0.097141	16.4809	1.39255	34.785
 171	1	1	-0.172015	16.2098	1.34308	33.388
 172	1	2	-0.377994	14.0796	-1.80548	36.8875
 173	1	1	0.033493	14.8793	-0.412042	35.0719
 174	1	1	-0.063739	15.2847	0.434809	32.8396
 175	1	2	-0.398381	13.2476	-1.84554	32.3218
 176	1	1	0.032144	14.6318	-0.434529	33.7132
 177	1	3	0.032313	14.0894	-1.50128	35.7059
 178	1	4	0.461698	13.4179	-2.11784	34.6516
 179	1	3	0.091945	13.6717	-1.52485	33.4196
 180	1	1	-0.10563	20.3823	0.700669	33.3058
 181	1	5	-0.099376	17.5314	2.42522	35.2943
 182	1	1	-0.043296	18.8096	2.25477	34.4216
 183	1	1	-0.073043	19.2572	0.937248	34.1178
 184	1	1	-0.117827	21.0714	1.80937	32.8102
 185	1	1	-0.037562	19.5648	3.35286	33.9282
 186	1	1	-0.083705	20.6844	3.0958	33.1242
 187	1	5	0.396	17.9825	2.20155	36.787
 188	1	5	0.310495	16.8561	3.84811	35.1706
 189	1	6	-0.130298	16.9992	2.44163	37.6843
 190	1	6	-0.128745	19.016	3.00893	37.113
 191	1	6	-0.120019	18.4196	0.941006	36.9993
 192	1	6	-0.104287	16.6962	4.22772	33.8827
 193	1	6	-0.095507	17.5517	4.83366	35.7804
 194	1	6	-0.104872	15.6208	3.85375	35.7221
 195	1	3	0.456145	21.6205	4.03485	32.4467
 196	1	3	0.550902	22.2508	1.88023	31.9102
 197	1	4	0.015704	22.5079	3.23395	31.734
 198	1	2	-0.456801	21.5789	5.25226	32.4954
 199	1	2	-0.487703	22.8285	0.930019	31.4104
 200	1	1	-0.116566	23.5411	3.72931	30.8801
 201	1	1	-0.050109	24.9038	3.61549	31.254
 202	1	1	0.154929	25.9136	4.04252	30.353
 203	1	1	0.041555	23.1943	4.28393	29.6275
 204	1	1	-0.223109	24.2049	4.71294	28.7542
 205	1	1	-0.080449	25.5587	4.59317	29.1002
 206	1	5	-0.108008	21.7411	4.41458	29.1825
 207	1	5	-0.182228	26.6092	5.0491	28.0942
 208	1	5	-0.345523	25.2859	3.0044	32.609
 209	1	7	0.155183	15.9471	0.453161	36.7122
 210	1	7	0.172904	16.7361	2.00994	32.7079
 211	1	7	0.158028	15.0934	0.391292	31.7692
 212	1	7	0.153129	20.7047	-0.310834	33.0646
 213	1	7	0.142914	18.7188	0.0767296	34.5067
 214	1	7	0.135531	19.3012	4.38414	34.1392
 215	1	7	0.17765	23.9334	5.1291	27.7877
 216	1	9	0.046541	21.227	5.19909	29.7516
 217	1	9	0.045238	21.1923	3.47507	29.3213
 218	1	9	0.051941	21.6645	4.67913	28.1208
 219	1	9	0.087961	27.3885	5.6491	28.5733
 220	1	9	0.066782	26.1716	5.66916	27.3011
 221	1	9	0.075908	27.0873	4.18791	27.6088
 222	1	9	0.105172	24.4874	3.08693	33.3546
 223	1	9	0.115625	26.1477	3.50651	33.0625
 224	1	9	0.140296	25.5299	1.93824	32.5025
 225	1	1	-0.004194	15.9137	-11.267	39.5495
 226	1	1	-0.097141	15.5581	-11.8376	38.2943
 227	1	1	-0.172015	14.2125	-12.2707	38.1149
 228	1	2	-0.377994	15.8938	-9.49488	42.0774
 229	1	1	0.033493	14.9048	-11.0282	40.4924
 230	1	1	-0.063739	13.2255	-12.0688	39.0952
 231	1	2	-0.398381	11.4995	-10.7382	41.2441
 232	1	1	0.032144	13.5958	-11.3995	40.2589
 233	1	3	0.032313	14.9175	-10.0796	41.6384
 234	1	4	0.461698	13.5714	-9.86008	41.9352
 235	1	3	0.091945	12.7191	-10.6971	41.2219
 236	1	1	-0.10563	14.7701	-10.1117	33.8741
 237	1	5	-0.099376	16.4666	-11.7391	37.0252
 238	1	1	-0.043296	15.7007	-10.7749	36.0711
 239	1	1	-0.073043	15.5222	-11.0025	34.6763
 240	1	1	-0.117827	14.2029	-8.98407	34.4846
 241	1	1	-0.037562	15.1348	-9.60042	36.6321
 242	1	1	-0.083705	14.3937	-8.73969	35.8261
 243	1	5	0.396	16.6877	-13.199	36.4524
 244	1	5	0.310495	17.8826	-11.0861	37.287
 245	1	6	-0.130298	15.5627	-13.7421	35.9384
 246	1	6	-0.128745	17.1069	-14.0423	37.4223
 247	1	6	-0.120019	17.6032	-13.2628	35.4601
 248	1	6	-0.104287	18.6391	-11.8221	38.1316
 249	1	6	-0.095507	17.8004	-9.84083	37.8076
 250	1	6	-0.104872	18.5907	-10.9304	36.1456
 251	1	3	0.456145	13.723	-7.46774	36.1824
 252	1	3	0.550902	13.3871	-7.86235	33.9328
 253	1	4	0.015704	13.1592	-7.00385	35.0049
 254	1	2	-0.456801	13.7361	-6.9289	37.2756
 255	1	2	-0.487703	13.0419	-7.72504	32.7718
 256	1	1	-0.116566	12.5118	-5.73665	34.9199
 257	1	1	-0.050109	13.2867	-4.56469	34.759
 258	1	1	0.154929	12.647	-3.30051	34.7917
 259	1	1	0.041555	11.1138	-5.64947	35.0905
 260	1	1	-0.223109	10.4932	-4.38978	35.1005
 261	1	1	-0.080449	11.2461	-3.21309	34.9578
 262	1	5	-0.108008	10.2633	-6.89885	35.2852
 263	1	5	-0.182228	10.5269	-1.86743	34.9753
 264	1	5	-0.345523	14.8107	-4.67875	34.5957
 265	1	7	0.155183	16.8985	-10.8629	39.7547
 266	1	7	0.172904	13.8785	-12.6506	37.1546
 267	1	7	0.158028	12.1786	-12.2908	38.8985
 268	1	7	0.153129	14.6339	-10.2913	32.8092
 269	1	7	0.142914	15.9588	-11.8718	34.1956
 270	1	7	0.135531	15.2533	-9.35138	37.6827
 271	1	7	0.17765	9.41539	-4.32922	35.2278
 272	1	9	0.046541	9.19746	-6.65578	35.3755
 273	1	9	0.045238	10.5552	-7.43411	36.1976
 274	1	9	0.051941	10.3711	-7.58498	34.4359
 275	1	9	0.087961	10.5653	-1.38969	33.9871
 276	1	9	0.066782	10.9758	-1.17995	35.7029
 277	1	9	0.075908	9.46783	-1.97586	35.242
 278	1	9	0.105172	15.0975	-5.56143	34.0117
 279	1	9	0.115625	15.2989	-4.75334	35.5773
 280	1	9	0.140296	15.2591	-3.83145	34.065
 281	1	1	-0.004194	14.8427	0.295244	40.0103
 282	1	1	-0.097141	13.7577	1.04375	40.5418
 283	1	1	-0.172015	14.0436	2.06473	41.4937
 284	1	2	-0.377994	17.5939	-0.988896	39.3127
 285	1	1	0.033493	16.1383	0.553436	40.4745
 286	1	1	-0.063739	15.3547	2.30071	41.9531
 287	1	2	-0.398381	18.3919	2.20607	42.5869
 288	1	1	0.032144	16.3838	1.5161	41.4319
 289	1	3	0.032313	17.4261	-0.107394	40.1387
 290	1	4	0.461698	18.3714	0.491706	40.9731
 291	1	3	0.091945	17.828	1.49695	41.7695
 292	1	1	-0.10563	11.1696	-2.89564	39.103
 293	1	5	-0.099376	12.3121	0.732201	40.0514
 294	1	1	-0.043296	12.1231	-0.8158	40.0509
 295	1	1	-0.073043	11.425	-1.51072	39.0216
 296	1	1	-0.117827	11.6232	-3.58457	40.2323
 297	1	1	-0.037562	12.5888	-1.5647	41.1648
 298	1	1	-0.083705	12.3361	-2.94103	41.2206
 299	1	5	0.396	12.1689	1.40637	38.6319
 300	1	5	0.310495	11.181	1.29413	40.9995
 301	1	6	-0.130298	12.9372	0.7972	37.7043
 302	1	6	-0.128745	12.5691	2.69829	38.6523
 303	1	6	-0.120019	10.902	1.40595	38.1586
 304	1	6	-0.104287	11.0597	2.64035	40.9551
 305	1	6	-0.095507	11.3906	0.954272	42.2918
 306	1	6	-0.104872	9.96656	0.793531	40.6758
 307	1	3	0.456145	12.7013	-3.94409	42.257
 308	1	3	0.550902	11.4673	-5.01201	40.6248
 309	1	4	0.015704	12.149	-5.1495	41.8322
 310	1	2	-0.456801	13.357	-3.72721	43.2622
 311	1	2	-0.487703	10.8317	-5.85615	40.0149
 312	1	1	-0.116566	12.2914	-6.39176	42.5336
 313	1	1	-0.050109	13.0135	-7.46622	41.9523
 314	1	1	0.154929	13.0708	-8.71906	42.6234
 315	1	1	0.041555	11.6637	-6.56711	43.7889
 316	1	1	-0.223109	11.7926	-7.78888	44.4692
 317	1	1	-0.080449	12.4815	-8.86954	43.8976
 318	1	5	-0.108008	10.8054	-5.47551	44.42
 319	1	5	-0.182228	12.5323	-10.1965	44.6489
 320	1	5	-0.345523	13.6681	-7.29683	40.5703
 321	1	7	0.155183	14.6859	-0.491106	39.2738
 322	1	7	0.172904	13.2576	2.6861	41.9087
 323	1	7	0.158028	15.5671	3.06015	42.7024
 324	1	7	0.153129	10.6262	-3.41672	38.3171
 325	1	7	0.142914	11.0487	-0.988848	38.1513
 326	1	7	0.135531	13.1171	-1.08806	41.9871
 327	1	7	0.17765	11.3114	-7.91137	45.4357
 328	1	9	0.046541	10.1914	-5.86888	45.2395
 329	1	9	0.045238	10.1163	-5.03525	43.6887
 330	1	9	0.051941	11.4262	-4.67259	44.8348
 331	1	9	0.087961	13.5667	-10.5411	44.7759
 332	1	9	0.066782	11.9734	-10.9766	44.116
 333	1	9	0.075908	12.0947	-10.1123	45.6517
 334	1	9	0.105172	13.8554	-6.25173	40.3015
 335	1	9	0.115625	13.0336	-7.7222	39.7808
 336	1	9	0.140296	14.6563	-7.763	40.5051
 337	1	1	-0.004194	29.4717	4.02629	38.7793
 338	1	1	-0.097141	28.896	4.70645	37.6744
 339	1	1	-0.172015	29.5129	5.91461	37.2363
 340	1	2	-0.377994	31.0988	3.10097	41.2557
 341	1	1	0.033493	30.6145	4.55495	39.3873
 342	1	1	-0.063739	30.6665	6.42884	37.8647
 343	1	2	-0.398381	33.1645	6.94211	39.6708
 344	1	1	0.032144	31.2078	5.71504	38.9344
 345	1	3	0.032313	31.3641	4.07732	40.5749
 346	1	4	0.461698	32.382	5.01083	40.7582
 347	1	3	0.091945	32.3832	6.01315	39.7924
 348	1	1	-0.10563	25.4625	4.23302	40.1883
 349	1	5	-0.099376	27.6494	4.08045	36.9761
 350	1	1	-0.043296	26.6175	3.67033	38.0693
 351	1	1	-0.073043	26.4061	4.53115	39.184
 352	1	1	-0.117827	24.7055	3.06566	40.0501
 353	1	1	-0.037562	25.8128	2.50386	37.9618
 354	1	1	-0.083705	24.87	2.23395	38.9623
 355	1	5	0.396	28.1935	2.85932	36.1355
 356	1	5	0.310495	26.8925	5.07482	36.0158
 357	1	6	-0.130298	29.2758	3.20497	35.4009
 358	1	6	-0.128745	27.2942	2.35401	35.2623
 359	1	6	-0.120019	28.5842	1.83881	36.932
 360	1	6	-0.104287	27.5989	5.37168	34.9026
 361	1	6	-0.095507	26.5955	6.24093	36.6326
 362	1	6	-0.104872	25.7108	4.56525	35.5992
 363	1	3	0.456145	23.8863	1.12394	39.077
 364	1	3	0.550902	23.6232	2.50646	40.9056
 365	1	4	0.015704	23.1835	1.36028	40.2527
 366	1	2	-0.456801	23.7245	0.219969	38.2751
 367	1	2	-0.487703	23.2126	2.98577	41.9484
 368	1	1	-0.116566	22.1237	0.525372	40.7246
 369	1	1	-0.050109	20.7733	0.924868	40.5709
 370	1	1	0.154929	19.7342	0.0884768	41.0588
 371	1	1	0.041555	22.4333	-0.700301	41.353
 372	1	1	-0.223109	21.3969	-1.52173	41.8206
 373	1	1	-0.080449	20.0534	-1.139	41.6883
 374	1	5	-0.108008	23.8753	-1.15385	41.551
 375	1	5	-0.182228	18.9781	-2.06732	42.25
 376	1	5	-0.345523	20.4666	2.27285	39.9081
 377	1	7	0.155183	29.0414	3.1077	39.1698
 378	1	7	0.172904	29.1133	6.48648	36.4056
 379	1	7	0.158028	31.1229	7.35937	37.538
 380	1	7	0.153129	25.3105	4.89831	41.0364
 381	1	7	0.142914	26.9738	5.45472	39.2717
 382	1	7	0.135531	25.885	1.81934	37.1239
 383	1	7	0.17765	21.6418	-2.46398	42.3041
 384	1	9	0.046541	24.3276	-1.44691	40.5954
 385	1	9	0.045238	23.9392	-2.01785	42.2241
 386	1	9	0.051941	24.4881	-0.357217	41.9907
 387	1	9	0.087961	18.2507	-1.5252	42.8675
 388	1	9	0.066782	19.4104	-2.85055	42.8854
 389	1	9	0.075908	18.4319	-2.57253	41.4426
 390	1	9	0.105172	19.4192	2.38845	39.6139
 391	1	9	0.115625	21.0557	2.41639	38.9939
 392	1	9	0.140296	20.6963	3.09954	40.5956
 393	1	1	-0.004194	30.9123	11.5502	44.847
 394	1	1	-0.097141	31.4329	12.4433	45.8231
 395	1	1	-0.172015	31.9824	13.6797	45.3786
 396	1	2	-0.377994	30.394	9.85383	42.3058
 397	1	1	0.033493	31.0806	11.8468	43.4936
 398	1	1	-0.063739	32.1117	13.9753	44.0046
 399	1	2	-0.398381	32.4074	13.801	40.9133
 400	1	1	0.032144	31.68	13.0187	43.0821
 401	1	3	0.032313	30.8654	10.9796	42.3083
 402	1	4	0.461698	31.408	11.695	41.2435
 403	1	3	0.091945	31.8743	12.955	41.6123
 404	1	1	-0.10563	31.5116	8.10794	47.8523
 405	1	5	-0.099376	31.4572	11.9866	47.3156
 406	1	1	-0.043296	31.9018	10.491	47.3168
 407	1	1	-0.073043	31.237	9.47627	48.0635
 408	1	1	-0.117827	32.4679	7.76762	46.889
 409	1	1	-0.037562	32.9466	10.1003	46.4387
 410	1	1	-0.083705	33.1759	8.74091	46.2169
 411	1	5	0.396	30.003	12.2242	47.8734
 412	1	5	0.310495	32.4977	12.7615	48.2096
 413	1	6	-0.130298	29.9053	12.0386	49.2089
 414	1	6	-0.128745	29.1041	11.4011	47.2874
 415	1	6	-0.120019	29.5753	13.4827	47.624
 416	1	6	-0.104287	32.6578	12.1638	49.4122
 417	1	6	-0.095507	32.1402	14.0413	48.4605
 418	1	6	-0.104872	33.7238	12.7932	47.6397
 419	1	3	0.456145	33.946	8.09441	45.1256
 420	1	3	0.550902	32.7733	6.45407	46.2564
 421	1	4	0.015704	33.5983	6.75129	45.1777
 422	1	2	-0.456801	34.5668	8.67466	44.2508
 423	1	2	-0.487703	32.2403	5.39047	46.5227
 424	1	1	-0.116566	33.8462	5.85465	44.0978
 425	1	1	-0.050109	32.9612	5.84042	42.9933
 426	1	1	0.154929	33.2504	5.01073	41.8813
 427	1	1	0.041555	34.9868	5.0267	44.1091
 428	1	1	-0.223109	35.2547	4.20375	43.0031
 429	1	1	-0.080449	34.4046	4.19516	41.8848
 430	1	5	-0.108008	35.9389	5.01621	45.298
 431	1	5	-0.182228	34.7569	3.30874	40.6943
 432	1	5	-0.345523	31.7227	6.75152	43.0035
 433	1	7	0.155183	30.4848	10.5889	45.1214
 434	1	7	0.172904	32.3667	14.4094	46.0841
 435	1	7	0.158028	32.5939	14.8893	43.6637
 436	1	7	0.153129	30.9356	7.33492	48.3578
 437	1	7	0.142914	30.4493	9.72399	48.7663
 438	1	7	0.135531	33.4798	10.8296	45.8325
 439	1	7	0.17765	36.1387	3.57204	43.0111
 440	1	9	0.046541	35.4243	4.67773	46.2061
 441	1	9	0.045238	36.3442	6.01774	45.4881
 442	1	9	0.051941	36.7893	4.3436	45.1324
 443	1	9	0.087961	34.8943	3.90575	39.7833
 444	1	9	0.066782	33.9693	2.56832	40.5035
 445	1	9	0.075908	35.689	2.75439	40.8612
 446	1	9	0.105172	31.228	6.76556	43.9815
 447	1	9	0.115625	30.9414	6.44942	42.2973
 448	1	9	0.140296	32.0	7.78387	42.7518
 449	1	1	-0.004194	27.573	8.97194	30.9601
 450	1	1	-0.097141	26.2301	9.4365	31.0167
 451	1	1	-0.172015	25.4597	9.40725	29.8205
 452	1	2	-0.377994	30.412	7.98523	30.169
 453	1	1	0.033493	28.1139	8.59372	29.7273
 454	1	1	-0.063739	26.0124	8.98466	28.5941
 455	1	2	-0.398381	27.8381	7.96901	26.2967
 456	1	1	0.032144	27.3551	8.60085	28.5764
 457	1	3	0.032313	29.4876	8.13945	29.3857
 458	1	4	0.461698	29.4552	7.89553	28.0086
 459	1	3	0.091945	28.1999	8.13351	27.4504
 460	1	1	-0.10563	28.6874	12.0988	33.3682
 461	1	5	-0.099376	25.6254	9.91839	32.3692
 462	1	1	-0.043296	26.7919	10.5033	33.2279
 463	1	1	-0.073043	27.583	11.5564	32.6824
 464	1	1	-0.117827	29.0101	11.5567	34.6138
 465	1	1	-0.037562	27.1487	9.99709	34.507
 466	1	1	-0.083705	28.2689	10.5278	35.1562
 467	1	5	0.396	24.9101	8.67593	33.0287
 468	1	5	0.310495	24.5645	11.0807	32.196
 469	1	6	-0.130298	23.9998	8.1101	32.204
 470	1	6	-0.128745	24.2613	9.0032	34.1695
 471	1	6	-0.120019	25.782	7.69243	33.3315
 472	1	6	-0.104287	24.3439	11.7223	33.3666
 473	1	6	-0.095507	23.3529	10.6661	31.7633
 474	1	6	-0.104872	24.9734	12.0214	31.3151
 475	1	3	0.456145	28.916	10.1122	36.4261
 476	1	3	0.550902	30.1383	11.8569	35.5355
 477	1	4	0.015704	30.0178	10.9425	36.5728
 478	1	2	-0.456801	28.5908	9.16885	37.1269
 479	1	2	-0.487703	31.0045	12.6976	35.366
 480	1	1	-0.116566	30.9606	10.7997	37.6294
 481	1	1	-0.050109	30.6912	11.3492	38.9045
 482	1	1	0.154929	31.6201	11.142	39.9547
 483	1	1	0.041555	32.1475	10.0732	37.3971
 484	1	1	-0.223109	33.0507	9.87213	38.449
 485	1	1	-0.080449	32.7961	10.39	39.7268
 486	1	5	-0.108008	32.4756	9.49384	36.026
 487	1	5	-0.182228	33.8094	10.1215	40.8379
 488	1	5	-0.345523	29.405	12.1594	39.1114
 489	1	7	0.155183	28.1998	8.90716	31.8451
 490	1	7	0.172904	24.4145	9.69922	29.8276
 491	1	7	0.158028	25.4199	8.96157	27.682
 492	1	7	0.153129	29.2919	12.8915	32.931
 493	1	7	0.142914	27.3628	11.9441	31.6922
 494	1	7	0.135531	26.6091	9.19392	34.9973
 495	1	7	0.17765	33.9541	9.29207	38.2763
 496	1	9	0.046541	31.6429	8.903	35.626
 497	1	9	0.045238	33.3522	8.83702	36.0699
 498	1	9	0.051941	32.7025	10.2927	35.3089
 499	1	9	0.087961	34.631	9.48152	40.4917
 500	1	9	0.066782	33.3459	9.60034	41.6848
 501	1	9	0.075908	34.2562	11.0523	41.2097
 502	1	9	0.105172	29.2925	12.5681	40.1213
 503	1	9	0.115625	28.5171	11.5409	38.9266
 504	1	9	0.140296	29.3714	13.0156	38.4245
 505	1	1	-0.004194	30.7796	-3.09125	26.6484
 506	1	1	-0.097141	31.8876	-2.24936	26.354
 507	1	1	-0.172015	32.094	-1.88002	24.9929
 508	1	2	-0.377994	28.3237	-4.96752	26.6536
 509	1	1	0.033493	29.9414	-3.50877	25.6119
 510	1	1	-0.063739	31.2222	-2.29975	23.962
 511	1	2	-0.398381	28.9718	-3.65265	22.2498
 512	1	1	0.032144	30.1446	-3.12267	24.3046
 513	1	3	0.032313	28.7769	-4.4244	25.66
 514	1	4	0.461698	28.341	-4.5325	24.3419
 515	1	3	0.091945	29.1011	-3.7659	23.4577
 516	1	1	-0.10563	34.7362	1.60785	27.9012
 517	1	5	-0.099376	32.9324	-1.82573	27.4402
 518	1	1	-0.043296	33.262	-0.303556	27.3323
 519	1	1	-0.073043	34.4722	0.2251	27.8709
 520	1	1	-0.117827	33.7821	2.46738	27.3546
 521	1	1	-0.037562	32.3143	0.613486	26.8022
 522	1	1	-0.083705	32.6185	1.98264	26.7968
 523	1	5	0.396	34.2018	-2.73116	27.1901
 524	1	5	0.310495	32.4109	-2.0499	28.913
 525	1	6	-0.130298	34.9061	-2.30407	26.1177
 526	1	6	-0.128745	33.8563	-4.01506	26.9407
 527	1	6	-0.120019	35.0622	-2.77607	28.2318
 528	1	6	-0.104287	33.231	-1.51161	29.8444
 529	1	6	-0.095507	32.29	-3.35664	29.2396
 530	1	6	-0.104872	31.2085	-1.45907	29.0986
 531	1	3	0.456145	31.8207	3.14561	26.322
 532	1	3	0.550902	33.7453	3.95171	27.3049
 533	1	4	0.015704	32.546	4.27766	26.6831
 534	1	2	-0.456801	30.7304	3.09132	25.7804
 535	1	2	-0.487703	34.5704	4.69994	27.8008
 536	1	1	-0.116566	32.0688	5.61864	26.5428
 537	1	1	-0.050109	31.0028	6.07892	27.3556
 538	1	1	0.154929	30.5568	7.42234	27.2386
 539	1	1	0.041555	32.6808	6.49185	25.6162
 540	1	1	-0.223109	32.2334	7.81778	25.5129
 541	1	1	-0.080449	31.1846	8.29367	26.3153
 542	1	5	-0.108008	33.8154	6.02961	24.7096
 543	1	5	-0.182228	30.7735	9.75682	26.173
 544	1	5	-0.345523	30.3537	5.10325	28.3423
 545	1	7	0.155183	30.5564	-3.45702	27.6433
 546	1	7	0.172904	32.9501	-1.26435	24.7247
 547	1	7	0.158028	31.3897	-2.01768	22.9245
 548	1	7	0.153129	35.6456	2.00021	28.353
 549	1	7	0.142914	35.2104	-0.425411	28.325
 550	1	7	0.135531	31.3498	0.285799	26.4223
 551	1	7	0.17765	32.718	8.49223	24.8117
 552	1	9	0.046541	33.491	5.20418	24.0645
 553	1	9	0.045238	34.6772	5.68759	25.2911
 554	1	9	0.051941	34.1692	6.83821	24.0582
 555	1	9	0.087961	31.5515	10.3456	25.6694
 556	1	9	0.066782	30.6025	10.228	27.1489
 557	1	9	0.075908	29.8551	9.85058	25.5793
 558	1	9	0.105172	29.7552	5.58605	29.116
 559	1	9	0.115625	31.1182	4.53254	28.8792
 560	1	9	0.140296	29.6992	4.39295	27.8191
 561	1	1	-0.004194	24.6366	-14.5251	20.3895
 562	1	1	-0.097141	25.5279	-14.2546	19.3183
 563	1	1	-0.172015	25.0004	-14.2196	17.9952
 564	1	2	-0.377994	22.286	-15.3779	22.2233
 565	1	1	0.033493	23.2869	-14.7567	20.1135
 566	1	1	-0.063739	23.627	-14.4259	17.743
 567	1	2	-0.398381	20.5878	-15.0862	17.9103
 568	1	1	0.032144	22.79	-14.6934	18.8291
 569	1	3	0.032313	22.1924	-15.1738	21.0242
 570	1	4	0.461698	21.0804	-15.34	20.2003
 571	1	3	0.091945	21.3454	-15.0352	18.8654
 572	1	1	-0.10563	27.86	-12.3085	23.0526
 573	1	5	-0.099376	27.0385	-14.0716	19.6434
 574	1	1	-0.043296	27.1232	-13.0334	20.8024
 575	1	1	-0.073043	27.8111	-13.2758	22.0273
 576	1	1	-0.117827	27.2395	-11.0762	22.827
 577	1	1	-0.037562	26.498	-11.7705	20.6265
 578	1	1	-0.083705	26.5954	-10.8099	21.639
 579	1	5	0.396	27.8997	-13.497	18.4465
 580	1	5	0.310495	27.6009	-15.5032	20.0114
 581	1	6	-0.130298	28.0703	-14.3786	17.4354
 582	1	6	-0.128745	29.1363	-13.1362	18.8586
 583	1	6	-0.120019	27.3571	-12.3881	17.8959
 584	1	6	-0.104287	27.0478	-16.0063	21.138
 585	1	6	-0.095507	28.9406	-15.5138	20.1957
 586	1	6	-0.104872	27.3318	-16.4089	19.0437
 587	1	3	0.456145	26.1279	-9.39855	21.6697
 588	1	3	0.550902	27.1708	-9.85699	23.6762
 589	1	4	0.015704	26.5242	-8.89536	22.9053
 590	1	2	-0.456801	25.5625	-8.81293	20.7624
 591	1	2	-0.487703	27.6302	-9.7431	24.7999
 592	1	1	-0.116566	26.3319	-7.53796	23.3174
 593	1	1	-0.050109	27.4461	-6.67711	23.5012
 594	1	1	0.154929	27.2379	-5.35408	23.9728
 595	1	1	0.041555	25.0247	-7.06449	23.575
 596	1	1	-0.223109	24.8342	-5.73504	23.9811
 597	1	1	-0.080449	25.9247	-4.87727	24.1875
 598	1	5	-0.108008	23.7995	-7.96438	23.4475
 599	1	5	-0.182228	25.6584	-3.45492	24.6735
 600	1	5	-0.345523	28.868	-7.19219	23.2346
 601	1	7	0.155183	24.9819	-14.5906	21.418
 602	1	7	0.172904	25.6427	-14.0497	17.137
 603	1	7	0.158028	23.2264	-14.4133	16.7315
 604	1	7	0.153129	28.3861	-12.5016	23.9858
 605	1	7	0.142914	28.3248	-14.2126	22.2103
 606	1	7	0.135531	25.9598	-11.5245	19.7146
 607	1	7	0.17765	23.8261	-5.37499	24.1686
 608	1	9	0.046541	23.52	-8.10312	22.3961
 609	1	9	0.045238	22.931	-7.53664	23.9633
 610	1	9	0.051941	23.9772	-8.9525	23.8893
 611	1	9	0.087961	26.1353	-2.71392	24.0187
 612	1	9	0.066782	26.036	-3.30595	25.6934
 613	1	9	0.075908	24.5856	-3.22487	24.689
 614	1	9	0.105172	29.5619	-6.39848	22.9365
 615	1	9	0.115625	28.8982	-7.91718	22.4128
 616	1	9	0.140296	29.2808	-7.67864	24.1296
 617	1	1	-0.004194	15.0455	-26.6769	18.6567
 618	1	1	-0.097141	15.4741	-25.5867	19.461
 619	1	1	-0.172015	14.546	-25.022	20.3815
 620	1	2	-0.377994	13.5252	-28.9926	17.2506
 621	1	1	0.033493	13.7307	-27.1374	18.788
 622	1	1	-0.063739	13.2276	-25.5068	20.5024
 623	1	2	-0.398381	10.5591	-27.094	20.2742
 624	1	1	0.032144	12.8466	-26.5721	19.6844
 625	1	3	0.032313	13.045	-28.2588	18.0979
 626	1	4	0.461698	11.7651	-28.294	18.6471
 627	1	3	0.091945	11.5593	-27.3082	19.6094
 628	1	1	-0.10563	15.8389	-21.4329	18.4466
 629	1	5	-0.099376	16.9272	-25.0274	19.4236
 630	1	1	-0.043296	16.8417	-23.4726	19.4315
 631	1	1	-0.073043	15.9398	-22.8352	18.5329
 632	1	1	-0.117827	16.6544	-20.6679	19.2841
 633	1	1	-0.037562	17.6522	-22.6542	20.264
 634	1	1	-0.083705	17.5249	-21.262	20.1738
 635	1	5	0.396	17.7301	-25.4177	18.121
 636	1	5	0.310495	17.6651	-25.6326	20.6798
 637	1	6	-0.130298	18.8796	-24.7132	18.014
 638	1	6	-0.128745	17.024	-25.1571	16.9974
 639	1	6	-0.120019	18.0728	-26.7248	18.0743
 640	1	6	-0.104287	18.9964	-25.396	20.6823
 641	1	6	-0.095507	17.5126	-26.9751	20.7464
 642	1	6	-0.104872	17.1711	-25.1443	21.8401
 643	1	3	0.456145	18.2408	-20.1842	20.9079
 644	1	3	0.550902	16.8006	-19.193	19.4016
 645	1	4	0.015704	17.7664	-18.989	20.379
 646	1	2	-0.456801	19.0773	-20.342	21.7803
 647	1	2	-0.487703	16.1858	-18.3574	18.7612
 648	1	1	-0.116566	18.2126	-17.693	20.7795
 649	1	1	-0.050109	19.4575	-17.1936	20.3242
 650	1	1	0.154929	19.8401	-15.8661	20.6572
 651	1	1	0.041555	17.3763	-16.8917	21.5869
 652	1	1	-0.223109	17.7707	-15.5857	21.9113
 653	1	1	-0.080449	18.9866	-15.0603	21.4475
 654	1	5	-0.108008	16.0351	-17.4005	22.1048
 655	1	5	-0.182228	19.3459	-13.6225	21.8133
 656	1	5	-0.345523	20.35	-18.0965	19.4572
 657	1	7	0.155183	15.6964	-27.1814	17.9507
 658	1	7	0.172904	14.8532	-24.2017	21.0273
 659	1	7	0.158028	12.5261	-25.0809	21.2168
 660	1	7	0.153129	15.1574	-20.9558	17.7447
 661	1	7	0.142914	15.3124	-23.4358	17.8792