pySIMM System Object

1738 atoms
1892 bonds
3348 angles
4956 dihedrals
496 impropers

9 atom types
11 bond types
18 angle types
7 dihedral types
4 improper types

-190.902077 190.902077 xlo xhi
-190.902077 190.902077 ylo yhi
-190.902077 190.902077 zlo zhi

Masses

   1	12.01	# ca
   2	16.0	# o
   3	12.01	# c
   4	14.01	# n
   5	12.01	# c3
   6	19.0	# f
   7	1.008	# ha
   8	1.008	# hn
   9	1.008	# hc

Pair Coeffs

   1	0.086	3.3996695084235347	# ca
   2	0.21	2.959921901149463	# o
   3	0.086	3.3996695084235347	# c
   4	0.17	3.249998523775958	# n
   5	0.1094	3.3996695084235347	# c3
   6	0.061	3.1181455134911875	# f
   7	0.015	2.59964245953351	# ha
   8	0.0157	1.069078461768407	# hn
   9	0.0157	2.649532787749369	# hc

Bond Coeffs

   1	321.0	1.5156	# c3,ca
   2	300.9	1.5375	# c3,c3
   3	384.2	1.4121	# ca,n
   4	330.6	1.0969	# c3,hc
   5	637.7	1.2183	# c,o
   6	403.2	1.0129	# hn,n
   7	356.9	1.3497	# c3,f
   8	461.1	1.3984	# ca,ca
   9	427.6	1.3789	# c,n
  10	345.9	1.4906	# c,ca
  11	345.8	1.086	# ca,ha

Angle Coeffs

   1	70.89	107.36	# f,c3,f
   2	68.72	122.6	# ca,c,o
   3	67.87	120.19	# ca,ca,n
   4	67.68	115.25	# ca,c,n
   5	46.8	110.47	# ca,c3,hc
   6	74.22	123.05	# n,c,o
   7	48.33	117.55	# c,n,hn
   8	63.56	112.24	# ca,c3,ca
   9	62.86	111.51	# c3,c3,c3
  10	66.11	109.24	# c3,c3,f
  11	64.28	120.33	# c,ca,ca
  12	66.62	120.02	# ca,ca,ca
  13	63.74	127.08	# c,n,c
  14	39.4	107.58	# hc,c3,hc
  15	48.18	119.88	# ca,ca,ha
  16	63.15	112.07	# c3,c3,ca
  17	63.53	120.77	# c3,ca,ca
  18	63.82	123.71	# c,n,ca

Dihedral Coeffs

   1	2	2.5	2	180	2.0	1	0	# hn,n,c,o
   2	1	3.625	2	180	# X,ca,ca,X
   3	1	0.0	2	0	# X,c3,ca,X
   4	1	1.0	2	180	# X,c,ca,X
   5	1	0.15555555555555556	3	0	# X,c3,c3,X
   6	1	2.5	2	180	# X,c,n,X
   7	1	0.45	2	180	# X,ca,n,X

Improper Coeffs

   1	1.1	-1	2	# n,X,X,hn
   2	1.1	-1	2	# ca,ca,ca,c3
   3	1.1	-1	2	# ca,X,X,ha
   4	10.5	-1	2	# c,X,X,o

Atoms

   1	1	1	-0.004194	-30.7062	-34.5386	11.1986
   2	1	1	-0.097141	-31.2241	-35.01	12.4332
   3	1	1	-0.172015	-30.6117	-36.1503	13.0287
   4	1	2	-0.377994	-29.5134	-34.2593	8.37181
   5	1	1	0.033493	-29.7169	-35.2756	10.5516
   6	1	1	-0.063739	-29.5813	-36.8596	12.3715
   7	1	2	-0.398381	-27.6206	-38.0611	10.2512
   8	1	1	0.032144	-29.1736	-36.4125	11.1109
   9	1	3	0.032313	-29.2023	-35.1257	9.17251
  10	1	4	0.461698	-28.3737	-36.2262	8.98104
  11	1	3	0.091945	-28.2648	-37.0344	10.1118
  12	1	1	-0.10563	-34.8903	-32.6991	10.3524
  13	1	5	-0.099376	-32.4976	-34.3145	13.0046
  14	1	1	-0.043296	-33.4654	-34.1158	11.7962
  15	1	1	-0.073043	-34.1702	-32.9029	11.5493
  16	1	1	-0.117827	-34.8953	-33.7261	9.40166
  17	1	1	-0.037562	-33.5828	-35.1635	10.8433
  18	1	1	-0.083705	-34.2665	-34.9272	9.64829
  19	1	5	0.396	-32.0116	-32.9689	13.6674
  20	1	5	0.310495	-33.2788	-35.1719	14.0701
  21	1	6	-0.130298	-31.552	-32.0935	12.7447
  22	1	6	-0.128745	-30.988	-33.1816	14.5256
  23	1	6	-0.120019	-32.9783	-32.3352	14.3688
  24	1	6	-0.104287	-32.6196	-35.2918	15.2447
  25	1	6	-0.095507	-33.5291	-36.4227	13.6214
  26	1	6	-0.104872	-34.4841	-34.6288	14.3558
  27	1	3	0.456145	-34.3505	-35.7639	8.42288
  28	1	3	0.550902	-35.4213	-33.7595	8.00917
  29	1	4	0.015704	-35.0268	-34.9875	7.49104
  30	1	2	-0.456801	-33.8299	-36.8551	8.26136
  31	1	2	-0.487703	-36.0168	-32.8574	7.44452
  32	1	1	-0.116566	-35.2145	-35.3693	6.13089
  33	1	1	-0.050109	-36.4321	-35.9548	5.71821
  34	1	1	0.154929	-36.6101	-36.3017	4.3648
  35	1	1	0.041555	-34.1802	-35.1502	5.19138
  36	1	1	-0.223109	-34.3766	-35.5057	3.84569
  37	1	1	-0.080449	-35.5897	-36.0743	3.42492
  38	1	5	-0.108008	-32.8519	-34.5259	5.60395
  39	1	5	-0.182228	-35.7917	-36.4463	1.96469
  40	1	5	-0.345523	-37.5544	-36.2164	6.71861
  41	1	7	0.155183	-31.1358	-33.6808	10.6866
  42	1	7	0.172904	-30.9548	-36.5358	13.9836
  43	1	7	0.158028	-29.1553	-37.7658	12.7972
  44	1	7	0.153129	-35.3823	-31.7503	10.146
  45	1	7	0.142914	-34.1355	-32.0822	12.2572
  46	1	7	0.135531	-33.0702	-36.1136	10.9769
  47	1	7	0.17765	-33.582	-35.3338	3.12447
  48	1	9	0.046541	-32.3562	-35.1234	6.3783
  49	1	9	0.045238	-32.9977	-33.5121	5.99688
  50	1	9	0.051941	-32.1559	-34.4535	4.75853
  51	1	9	0.087961	-35.1556	-35.8433	1.30506
  52	1	9	0.066782	-36.8316	-36.2857	1.65302
  53	1	9	0.075908	-35.5499	-37.5026	1.795
  54	1	9	0.105172	-37.2112	-36.8626	7.53646
  55	1	9	0.115625	-38.4096	-36.717	6.24645
  56	1	9	0.140296	-37.925	-35.2777	7.1499
  57	1	1	-0.004194	-29.9365	-39.6998	-1.90126
  58	1	1	-0.097141	-31.1917	-40.3098	-1.64094
  59	1	1	-0.172015	-31.5758	-41.4249	-2.44112
  60	1	2	-0.377994	-27.1783	-38.7796	-2.97385
  61	1	1	0.033493	-29.1212	-40.2139	-2.91145
  62	1	1	-0.063739	-30.7247	-41.9431	-3.44192
  63	1	2	-0.398381	-28.3829	-42.5408	-5.41718
  64	1	1	0.032144	-29.4924	-41.3171	-3.6496
  65	1	3	0.032313	-27.8001	-39.7419	-3.39308
  66	1	4	0.461698	-27.4543	-40.6202	-4.41865
  67	1	3	0.091945	-28.4074	-41.619	-4.61883
  68	1	1	-0.10563	-29.4379	-40.8572	2.14601
  69	1	5	-0.099376	-32.0607	-39.7401	-0.478909
  70	1	1	-0.043296	-31.1343	-39.6883	0.770793
  71	1	1	-0.073043	-30.3392	-40.8326	1.06641
  72	1	1	-0.117827	-29.3409	-39.711	2.93625
  73	1	1	-0.037562	-31.0257	-38.554	1.62045
  74	1	1	-0.083705	-30.1124	-38.5944	2.68449
  75	1	5	0.396	-33.2984	-40.6395	-0.0884937
  76	1	5	0.310495	-32.5924	-38.3289	-0.951044
  77	1	6	-0.130298	-34.2528	-40.6748	-1.04576
  78	1	6	-0.128745	-33.8953	-40.2008	1.04319
  79	1	6	-0.120019	-32.9439	-41.9205	0.161301
  80	1	6	-0.104287	-33.1867	-38.4072	-2.16303
  81	1	6	-0.095507	-31.6013	-37.4188	-1.08126
  82	1	6	-0.104872	-33.5005	-37.7888	-0.109059
  83	1	3	0.456145	-29.7304	-37.5434	3.66867
  84	1	3	0.550902	-28.4459	-39.4177	4.08368
  85	1	4	0.015704	-28.7194	-38.1051	4.44244
  86	1	2	-0.456801	-30.1897	-36.4157	3.73321
  87	1	2	-0.487703	-27.6078	-40.1709	4.55013
  88	1	1	-0.116566	-27.9894	-37.4097	5.4519
  89	1	1	-0.050109	-28.5526	-37.2042	6.73321
  90	1	1	0.154929	-27.7929	-36.5283	7.72292
  91	1	1	0.041555	-26.6832	-36.9526	5.16652
  92	1	1	-0.223109	-25.9355	-36.3146	6.16782
  93	1	1	-0.080449	-26.4769	-36.0972	7.4436
  94	1	5	-0.108008	-26.0568	-37.1348	3.78778
  95	1	5	-0.182228	-25.6279	-35.3905	8.49586
  96	1	5	-0.345523	-29.9811	-37.6912	7.01958
  97	1	7	0.155183	-29.5855	-38.8461	-1.32786
  98	1	7	0.172904	-32.5335	-41.9161	-2.29973
  99	1	7	0.158028	-31.0136	-42.802	-4.04449
 100	1	7	0.153129	-28.8199	-41.73	2.34968
 101	1	7	0.142914	-30.405	-41.7174	0.438651
 102	1	7	0.135531	-31.6034	-37.6487	1.46338
 103	1	7	0.17765	-24.9265	-35.9777	5.94644
 104	1	9	0.046541	-26.7438	-36.8202	2.99225
 105	1	9	0.045238	-25.7877	-38.1839	3.61339
 106	1	9	0.051941	-25.1427	-36.5387	3.67695
 107	1	9	0.087961	-25.3927	-36.0662	9.32908
 108	1	9	0.066782	-26.1421	-34.5104	8.90283
 109	1	9	0.075908	-24.6736	-35.0428	8.0808
 110	1	9	0.105172	-30.1954	-37.822	8.08628
 111	1	9	0.115625	-30.18	-38.6685	6.56342
 112	1	9	0.140296	-30.7207	-36.983	6.62064
 113	1	1	-0.004194	-27.1662	-34.2473	-13.4956
 114	1	1	-0.097141	-26.4973	-35.4829	-13.6906
 115	1	1	-0.172015	-25.0848	-35.4641	-13.8699
 116	1	2	-0.377994	-28.0205	-31.315	-13.1005
 117	1	1	0.033493	-26.4198	-33.0689	-13.5046
 118	1	1	-0.063739	-24.3564	-34.2567	-13.9094
 119	1	2	-0.398381	-23.4617	-31.2556	-13.9746
 120	1	1	0.032144	-25.0603	-33.0623	-13.7347
 121	1	3	0.032313	-26.8792	-31.6742	-13.3338
 122	1	4	0.461698	-25.7394	-30.8944	-13.5087
 123	1	3	0.091945	-24.5964	-31.6489	-13.7597
 124	1	1	-0.10563	-25.8053	-40.116	-12.2026
 125	1	5	-0.099376	-27.2509	-36.8411	-13.7662
 126	1	1	-0.043296	-26.5398	-37.8346	-12.8067
 127	1	1	-0.073043	-26.3116	-39.1994	-13.1443
 128	1	1	-0.117827	-25.5397	-39.6509	-10.9124
 129	1	1	-0.037562	-26.2167	-37.3984	-11.4943
 130	1	1	-0.083705	-25.7293	-38.3282	-10.5696
 131	1	5	0.396	-27.2355	-37.2799	-15.2837
 132	1	5	0.310495	-28.7503	-36.7677	-13.276
 133	1	6	-0.130298	-25.9972	-37.6298	-15.7
 134	1	6	-0.128745	-27.6355	-36.2725	-16.0933
 135	1	6	-0.120019	-28.0475	-38.3281	-15.5511
 136	1	6	-0.104287	-29.5533	-36.0675	-14.11
 137	1	6	-0.095507	-28.854	-36.1997	-12.0533
 138	1	6	-0.104872	-29.2981	-37.9989	-13.1571
 139	1	3	0.456145	-25.486	-38.1859	-9.10844
 140	1	3	0.550902	-25.1774	-40.4027	-9.68519
 141	1	4	0.015704	-25.2165	-39.4724	-8.6547
 142	1	2	-0.456801	-25.636	-37.1734	-8.44502
 143	1	2	-0.487703	-25.0011	-41.6069	-9.6066
 144	1	1	-0.116566	-25.148	-39.8512	-7.28095
 145	1	1	-0.050109	-26.3402	-39.9831	-6.52674
 146	1	1	0.154929	-26.2728	-40.4848	-5.20008
 147	1	1	0.041555	-23.9016	-40.1887	-6.71409
 148	1	1	-0.223109	-23.8516	-40.6902	-5.40531
 149	1	1	-0.080449	-25.0228	-40.8537	-4.64788
 150	1	5	-0.108008	-22.605	-40.0451	-7.50292
 151	1	5	-0.182228	-24.908	-41.4444	-3.24556
 152	1	5	-0.345523	-27.6769	-39.5848	-7.17473
 153	1	7	0.155183	-28.2374	-34.1664	-13.354
 154	1	7	0.172904	-24.5414	-36.3984	-13.9995
 155	1	7	0.158028	-23.2833	-34.2485	-14.0788
 156	1	7	0.153129	-25.6785	-41.1684	-12.4498
 157	1	7	0.142914	-26.5655	-39.587	-14.1238
 158	1	7	0.135531	-26.403	-36.3753	-11.1732
 159	1	7	0.17765	-22.8913	-40.972	-4.98156
 160	1	9	0.046541	-22.5272	-40.8223	-8.27347
 161	1	9	0.045238	-21.725	-40.1341	-6.85426
 162	1	9	0.051941	-22.5455	-39.0677	-7.99741
 163	1	9	0.087961	-25.5174	-42.3519	-3.14567
 164	1	9	0.066782	-25.2317	-40.7264	-2.48159
 165	1	9	0.075908	-23.8745	-41.7242	-3.00606
 166	1	9	0.105172	-28.5627	-39.8201	-6.5772
 167	1	9	0.115625	-27.8193	-40.0995	-8.13356
 168	1	9	0.140296	-27.7115	-38.5034	-7.36325
 169	1	1	-0.004194	-28.8657	-22.5288	-22.6672
 170	1	1	-0.097141	-28.7778	-22.8676	-21.2895
 171	1	1	-0.172015	-28.1277	-21.9584	-20.4066
 172	1	2	-0.377994	-28.5292	-21.3067	-25.511
 173	1	1	0.033493	-28.2334	-21.3601	-23.1104
 174	1	1	-0.063739	-27.4897	-20.7948	-20.8768
 175	1	2	-0.398381	-26.1282	-18.6053	-22.5977
 176	1	1	0.032144	-27.5417	-20.5343	-22.2459
 177	1	3	0.032313	-28.0564	-20.8381	-24.4893
 178	1	4	0.461698	-27.1965	-19.7482	-24.3565
 179	1	3	0.091945	-26.8653	-19.475	-23.0329
 180	1	1	-0.10563	-25.9587	-25.2635	-19.1444
 181	1	5	-0.099376	-29.3499	-24.1926	-20.7077
 182	1	1	-0.043296	-28.323	-24.7332	-19.6668
 183	1	1	-0.073043	-26.9453	-24.7831	-20.0268
 184	1	1	-0.117827	-26.3717	-25.7036	-17.8851
 185	1	1	-0.037562	-28.6985	-25.2099	-18.3826
 186	1	1	-0.083705	-27.7016	-25.6782	-17.5186
 187	1	5	0.396	-29.521	-25.3392	-21.7777
 188	1	5	0.310495	-30.7564	-23.8413	-20.0923
 189	1	6	-0.130298	-30.5653	-25.1455	-22.6114
 190	1	6	-0.128745	-29.72	-26.5323	-21.1769
 191	1	6	-0.120019	-28.4184	-25.4803	-22.5484
 192	1	6	-0.104287	-30.6416	-23.0309	-19.016
 193	1	6	-0.095507	-31.4543	-24.9319	-19.7022
 194	1	6	-0.104872	-31.5352	-23.1774	-20.9773
 195	1	3	0.456145	-27.816	-26.2589	-16.1555
 196	1	3	0.550902	-25.5917	-26.305	-16.7716
 197	1	4	0.015704	-26.526	-26.6259	-15.7972
 198	1	2	-0.456801	-28.842	-26.3989	-15.5139
 199	1	2	-0.487703	-24.3928	-26.5261	-16.7669
 200	1	1	-0.116566	-26.2132	-27.3559	-14.6157
 201	1	1	-0.050109	-26.0695	-28.7628	-14.6721
 202	1	1	0.154929	-25.7755	-29.4755	-13.4856
 203	1	1	0.041555	-26.0562	-26.6711	-13.3917
 204	1	1	-0.223109	-25.7246	-27.3901	-12.2329
 205	1	1	-0.080449	-25.5774	-28.7852	-12.2694
 206	1	5	-0.108008	-26.2238	-25.159	-13.3038
 207	1	5	-0.182228	-25.2036	-29.5234	-10.9911
 208	1	5	-0.345523	-26.1886	-29.5174	-16.0046
 209	1	7	0.155183	-29.3664	-23.1595	-23.3972
 210	1	7	0.172904	-28.077	-22.1755	-19.341
 211	1	7	0.158028	-26.9435	-20.1328	-20.2081
 212	1	7	0.153129	-24.9105	-25.3059	-19.4344
 213	1	7	0.142914	-26.63	-24.4433	-21.0098
 214	1	7	0.135531	-29.7283	-25.2373	-18.0432
 215	1	7	0.17765	-25.5891	-26.8589	-11.2948
 216	1	9	0.046541	-27.2321	-24.8561	-13.6127
 217	1	9	0.045238	-25.4995	-24.6446	-13.9473
 218	1	9	0.051941	-26.0746	-24.7921	-12.2809
 219	1	9	0.087961	-25.8998	-30.346	-10.8041
 220	1	9	0.066782	-25.2328	-28.8646	-10.114
 221	1	9	0.075908	-24.1898	-29.9388	-11.0583
 222	1	9	0.105172	-26.6965	-28.9475	-16.7886
 223	1	9	0.115625	-26.7578	-30.4481	-15.9054
 224	1	9	0.140296	-25.1923	-29.7745	-16.3898
 225	1	1	-0.004194	-24.9857	-22.5452	-34.3075
 226	1	1	-0.097141	-23.6516	-22.1233	-34.0404
 227	1	1	-0.172015	-23.3383	-20.7465	-34.2412
 228	1	2	-0.377994	-28.0754	-22.693	-34.3151
 229	1	1	0.033493	-25.9514	-21.5767	-34.6149
 230	1	1	-0.063739	-24.3097	-19.8017	-34.6152
 231	1	2	-0.398381	-26.9354	-18.2204	-34.7951
 232	1	1	0.032144	-25.6226	-20.243	-34.7513
 233	1	3	0.032313	-27.433	-21.6778	-34.5252
 234	1	4	0.461698	-27.8858	-20.3583	-34.5456
 235	1	3	0.091945	-26.8648	-19.438	-34.7561
 236	1	1	-0.10563	-21.3293	-21.0958	-30.0422
 237	1	5	-0.099376	-22.6315	-22.9946	-33.2331
 238	1	1	-0.043296	-22.541	-22.2628	-31.8613
 239	1	1	-0.073043	-21.3262	-21.8809	-31.2219
 240	1	1	-0.117827	-22.5654	-20.705	-29.5043
 241	1	1	-0.037562	-23.7613	-21.88	-31.2491
 242	1	1	-0.083705	-23.7415	-21.106	-30.095
 243	1	5	0.396	-21.2684	-23.0757	-34.0402
 244	1	5	0.310495	-23.1166	-24.4747	-32.9444
 245	1	6	-0.130298	-20.6346	-21.8886	-34.1524
 246	1	6	-0.128745	-21.4773	-23.5078	-35.3037
 247	1	6	-0.120019	-20.3585	-23.9082	-33.4872
 248	1	6	-0.104287	-23.2959	-25.1852	-34.0801
 249	1	6	-0.095507	-24.2789	-24.5361	-32.2571
 250	1	6	-0.104872	-22.2394	-25.1582	-32.1758
 251	1	3	0.456145	-24.8804	-20.5348	-29.346
 252	1	3	0.550902	-22.9235	-19.8445	-28.3352
 253	1	4	0.015704	-24.3157	-19.7909	-28.3245
 254	1	2	-0.456801	-26.061	-20.6801	-29.6126
 255	1	2	-0.487703	-22.1433	-19.298	-27.5744
 256	1	1	-0.116566	-25.1226	-19.0696	-27.3973
 257	1	1	-0.050109	-25.6356	-19.7227	-26.2534
 258	1	1	0.154929	-26.6151	-19.0695	-25.461
 259	1	1	0.041555	-25.5407	-17.7606	-27.7178
 260	1	1	-0.223109	-26.4745	-17.1093	-26.8972
 261	1	1	-0.080449	-27.0287	-17.7554	-25.7808
 262	1	5	-0.108008	-25.0324	-17.0519	-28.9678
 263	1	5	-0.182228	-28.0734	-17.0183	-24.9481
 264	1	5	-0.345523	-25.1655	-21.1474	-25.9223
 265	1	7	0.155183	-25.3305	-23.5574	-34.1299
 266	1	7	0.172904	-22.3604	-20.3565	-33.9811
 267	1	7	0.158028	-24.0797	-18.7391	-34.6587
 268	1	7	0.153129	-20.3982	-20.7812	-29.5742
 269	1	7	0.142914	-20.3661	-22.1626	-31.6423
 270	1	7	0.135531	-24.7261	-22.1353	-31.6768
 271	1	7	0.17765	-26.7915	-16.1014	-27.1518
 272	1	9	0.046541	-25.3547	-16.0039	-28.9999
 273	1	9	0.045238	-25.4121	-17.5391	-29.8749
 274	1	9	0.051941	-23.9362	-17.0565	-29.0092
 275	1	9	0.087961	-27.6629	-16.7285	-23.9717
 276	1	9	0.066782	-28.9602	-17.64	-24.773
 277	1	9	0.075908	-28.4117	-16.0992	-25.4424
 278	1	9	0.105172	-24.1192	-21.3143	-26.2042
 279	1	9	0.115625	-25.7787	-21.89	-26.4519
 280	1	9	0.140296	-25.2126	-21.3772	-24.8516
 281	1	1	-0.004194	-33.2125	-21.1095	-25.3069
 282	1	1	-0.097141	-34.1012	-20.0001	-25.33
 283	1	1	-0.172015	-35.4984	-20.2549	-25.1989
 284	1	2	-0.377994	-31.8431	-23.9038	-25.0805
 285	1	1	0.033493	-33.7377	-22.3991	-25.1558
 286	1	1	-0.063739	-36.005	-21.5608	-25.0564
 287	1	2	-0.398381	-36.416	-24.6111	-24.6929
 288	1	1	0.032144	-35.0954	-22.6162	-25.0354
 289	1	3	0.032313	-33.0472	-23.711	-25.0491
 290	1	4	0.461698	-34.0707	-24.6417	-24.8684
 291	1	3	0.091945	-35.336	-24.0661	-24.8518
 292	1	1	-0.10563	-30.6013	-17.3745	-27.731
 293	1	5	-0.099376	-33.5134	-18.557	-25.4156
 294	1	1	-0.043296	-32.5122	-18.4747	-26.6049
 295	1	1	-0.073043	-31.4134	-17.5677	-26.5965
 296	1	1	-0.117827	-30.8999	-18.1057	-28.8825
 297	1	1	-0.037562	-32.7673	-19.208	-27.7946
 298	1	1	-0.083705	-31.9373	-19.0133	-28.9065
 299	1	5	0.396	-32.8441	-18.2728	-24.0127
 300	1	5	0.310495	-34.6003	-17.4512	-25.7072
 301	1	6	-0.130298	-31.6783	-18.9442	-23.87
 302	1	6	-0.128745	-33.6424	-18.6661	-22.9939
 303	1	6	-0.120019	-32.5712	-16.9675	-23.7894
 304	1	6	-0.104287	-35.4504	-17.2563	-24.6732
 305	1	6	-0.095507	-35.3401	-17.757	-26.7981
 306	1	6	-0.104872	-34.0436	-16.2467	-25.9701
 307	1	3	0.456145	-32.0025	-19.6027	-30.2715
 308	1	3	0.550902	-30.2925	-18.0519	-30.2377
 309	1	4	0.015704	-31.0019	-18.9706	-31.0052
 310	1	2	-0.456801	-32.7984	-20.4458	-30.6491
 311	1	2	-0.487703	-29.4	-17.2979	-30.589
 312	1	1	-0.116566	-30.726	-19.2221	-32.3869
 313	1	1	-0.050109	-29.4928	-19.805	-32.7738
 314	1	1	0.154929	-29.189	-19.9486	-34.1534
 315	1	1	0.041555	-31.6552	-18.8203	-33.3744
 316	1	1	-0.223109	-31.3576	-19.0171	-34.7324
 317	1	1	-0.080449	-30.1294	-19.5647	-35.1336
 318	1	5	-0.108008	-32.9694	-18.1355	-33.0131
 319	1	5	-0.182228	-29.8235	-19.6911	-36.6226
 320	1	5	-0.345523	-28.4638	-20.2151	-31.7078
 321	1	7	0.155183	-32.1351	-20.9805	-25.3887
 322	1	7	0.172904	-36.2252	-19.4511	-25.1873
 323	1	7	0.158028	-37.0707	-21.7502	-24.9448
 324	1	7	0.153129	-29.7856	-16.6544	-27.7284
 325	1	7	0.142914	-31.2015	-16.9571	-25.7278
 326	1	7	0.135531	-33.616	-19.8823	-27.8789
 327	1	7	0.17765	-32.0766	-18.7036	-35.4842
 328	1	9	0.046541	-33.4325	-17.6638	-33.8884
 329	1	9	0.045238	-32.8196	-17.3459	-32.2664
 330	1	9	0.051941	-33.6921	-18.8559	-32.6114
 331	1	9	0.087961	-29.5855	-20.7281	-36.8929
 332	1	9	0.066782	-28.9722	-19.0585	-36.9064
 333	1	9	0.075908	-30.676	-19.3823	-37.2405
 334	1	9	0.105172	-28.9145	-20.4267	-30.7316
 335	1	9	0.115625	-27.7188	-19.422	-31.5546
 336	1	9	0.140296	-27.9279	-21.1367	-31.961
 337	1	1	-0.004194	-32.5424	-32.8235	-17.0391
 338	1	1	-0.097141	-31.9031	-32.0123	-16.0669
 339	1	1	-0.172015	-31.7929	-32.5113	-14.7371
 340	1	2	-0.377994	-34.1971	-34.8948	-18.6211
 341	1	1	0.033493	-33.0854	-34.0473	-16.6524
 342	1	1	-0.063739	-32.3306	-33.7661	-14.3733
 343	1	2	-0.398381	-33.7569	-36.5615	-14.3166
 344	1	1	0.032144	-32.9776	-34.5165	-15.3603
 345	1	3	0.032313	-33.8795	-35.0102	-17.4491
 346	1	4	0.461698	-34.2139	-36.0216	-16.5544
 347	1	3	0.091945	-33.6758	-35.8268	-15.2853
 348	1	1	-0.10563	-34.4575	-29.4281	-18.4178
 349	1	5	-0.099376	-31.2941	-30.6516	-16.5057
 350	1	1	-0.043296	-32.1876	-30.069	-17.6463
 351	1	1	-0.073043	-33.5861	-29.9126	-17.4195
 352	1	1	-0.117827	-33.9106	-29.111	-19.6649
 353	1	1	-0.037562	-31.6772	-29.7169	-18.9238
 354	1	1	-0.083705	-32.5612	-29.2604	-19.905
 355	1	5	0.396	-29.8198	-30.966	-16.962
 356	1	5	0.310495	-31.2659	-29.567	-15.3578
 357	1	6	-0.130298	-29.1117	-31.6065	-16.0049
 358	1	6	-0.128745	-29.1285	-29.8509	-17.2881
 359	1	6	-0.120019	-29.7936	-31.7932	-18.0324
 360	1	6	-0.104287	-30.2953	-29.762	-14.4391
 361	1	6	-0.095507	-32.4327	-29.519	-14.6769
 362	1	6	-0.104872	-31.0691	-28.3304	-15.866
 363	1	3	0.456145	-32.2897	-28.8652	-21.3082
 364	1	3	0.550902	-34.5471	-28.5913	-20.9079
 365	1	4	0.015704	-33.5126	-28.4679	-21.8284
 366	1	2	-0.456801	-31.2118	-28.9126	-21.8753
 367	1	2	-0.487703	-35.7221	-28.2986	-21.0526
 368	1	1	-0.116566	-33.6528	-27.9382	-23.144
 369	1	1	-0.050109	-33.792	-26.5429	-23.3372
 370	1	1	0.154929	-33.8637	-26.0296	-24.6561
 371	1	1	0.041555	-33.5973	-28.8099	-24.2536
 372	1	1	-0.223109	-33.6558	-28.282	-25.5522
 373	1	1	-0.080449	-33.7854	-26.9011	-25.7652
 374	1	5	-0.108008	-33.4748	-30.3199	-24.0771
 375	1	5	-0.182228	-33.8581	-26.379	-27.1966
 376	1	5	-0.345523	-33.902	-25.6052	-22.1262
 377	1	7	0.155183	-32.6377	-32.5183	-18.0776
 378	1	7	0.172904	-31.2902	-31.9342	-13.9653
 379	1	7	0.158028	-32.2671	-34.1349	-13.3521
 380	1	7	0.153129	-35.524	-29.3135	-18.2322
 381	1	7	0.142914	-34.0115	-30.1891	-16.4583
 382	1	7	0.135531	-30.6287	-29.7979	-19.1867
 383	1	7	0.17765	-33.6002	-28.9542	-26.4041
 384	1	9	0.046541	-32.4661	-30.5969	-23.7468
 385	1	9	0.045238	-33.6722	-30.8535	-25.0149
 386	1	9	0.051941	-34.1922	-30.6951	-23.3366
 387	1	9	0.087961	-34.839	-25.9334	-27.4074
 388	1	9	0.066782	-33.7001	-27.1803	-27.9293
 389	1	9	0.075908	-33.0881	-25.6187	-27.3825
 390	1	9	0.105172	-33.5299	-24.595	-22.3306
 391	1	9	0.115625	-33.32	-25.9595	-21.2691
 392	1	9	0.140296	-34.9489	-25.5183	-21.802
 393	1	1	-0.004194	-40.9064	-36.0495	-11.8159
 394	1	1	-0.097141	-42.0148	-36.8742	-11.4838
 395	1	1	-0.172015	-41.954	-37.629	-10.2775
 396	1	2	-0.377994	-38.0753	-34.9413	-12.3227
 397	1	1	0.033493	-39.7501	-36.1164	-11.0386
 398	1	1	-0.063739	-40.7833	-37.6578	-9.48771
 399	1	2	-0.398381	-37.8213	-37.605	-8.52809
 400	1	1	0.032144	-39.6791	-36.9147	-9.91629
 401	1	3	0.032313	-38.3921	-35.6104	-11.3522
 402	1	4	0.461698	-37.5661	-36.193	-10.394
 403	1	3	0.091945	-38.2663	-36.9501	-9.45656
 404	1	1	-0.10563	-42.0039	-36.4599	-16.2319
 405	1	5	-0.099376	-43.1641	-37.0172	-12.5305
 406	1	1	-0.043296	-42.462	-37.1899	-13.9131
 407	1	1	-0.073043	-42.8142	-36.4453	-15.0754
 408	1	1	-0.117827	-40.8394	-37.2367	-16.2135
 409	1	1	-0.037562	-41.3296	-38.0437	-13.9826
 410	1	1	-0.083705	-40.525	-38.0173	-15.1223
 411	1	5	0.396	-44.0488	-35.7181	-12.4126
 412	1	5	0.310495	-44.0722	-38.2896	-12.3284
 413	1	6	-0.130298	-45.1736	-35.7679	-13.161
 414	1	6	-0.128745	-43.3692	-34.6114	-12.79
 415	1	6	-0.120019	-44.4399	-35.4998	-11.1366
 416	1	6	-0.104287	-44.8891	-38.4866	-13.388
 417	1	6	-0.095507	-44.8649	-38.2117	-11.2358
 418	1	6	-0.104872	-43.3397	-39.4201	-12.2088
 419	1	3	0.456145	-39.1598	-38.5658	-15.311
 420	1	3	0.550902	-39.6825	-37.2715	-17.1521
 421	1	4	0.015704	-38.7055	-38.0206	-16.5028
 422	1	2	-0.456801	-38.5346	-39.2267	-14.4992
 423	1	2	-0.487703	-39.5712	-36.6187	-18.1755
 424	1	1	-0.116566	-37.3342	-38.063	-16.8922
 425	1	1	-0.050109	-36.4612	-37.0046	-16.5353
 426	1	1	0.154929	-35.0899	-37.0901	-16.8832
 427	1	1	0.041555	-36.8377	-39.1914	-17.5791
 428	1	1	-0.223109	-35.4733	-39.2643	-17.904
 429	1	1	-0.080449	-34.5931	-38.2253	-17.5612
 430	1	5	-0.108008	-37.7536	-40.3477	-17.9601
 431	1	5	-0.182228	-33.1149	-38.3526	-17.919
 432	1	5	-0.345523	-36.9657	-35.785	-15.7443
 433	1	7	0.155183	-40.8818	-35.4692	-12.735
 434	1	7	0.172904	-42.7818	-38.2595	-9.96821
 435	1	7	0.158028	-40.7049	-38.3027	-8.61479
 436	1	7	0.153129	-42.2316	-35.8243	-17.0858
 437	1	7	0.142914	-43.6811	-35.7936	-15.0806
 438	1	7	0.135531	-41.0006	-38.6217	-13.1217
 439	1	7	0.17765	-35.0952	-40.1409	-18.4239
 440	1	9	0.046541	-38.6015	-39.9968	-18.5614
 441	1	9	0.045238	-38.1506	-40.8448	-17.0661
 442	1	9	0.051941	-37.226	-41.1065	-18.5507
 443	1	9	0.087961	-32.4824	-38.2946	-17.0232
 444	1	9	0.066782	-32.8042	-37.557	-18.6088
 445	1	9	0.075908	-32.8963	-39.3095	-18.409
 446	1	9	0.105172	-38.0543	-35.6844	-15.7171
 447	1	9	0.115625	-36.6	-34.8428	-16.1726
 448	1	9	0.140296	-36.6298	-35.8303	-14.6978
 449	1	1	-0.004194	-27.135	-31.5809	-8.7594
 450	1	1	-0.097141	-27.5486	-30.4437	-8.014
 451	1	1	-0.172015	-26.6061	-29.8274	-7.14271
 452	1	2	-0.377994	-25.591	-33.8657	-10.2038
 453	1	1	0.033493	-25.825	-32.0509	-8.61919
 454	1	1	-0.063739	-25.2957	-30.3299	-7.001
 455	1	2	-0.398381	-22.6222	-31.9004	-7.21672
 456	1	1	0.032144	-24.9326	-31.446	-7.75868
 457	1	3	0.032313	-25.1256	-33.1568	-9.32507
 458	1	4	0.461698	-23.83	-33.153	-8.80302
 459	1	3	0.091945	-23.6327	-32.1548	-7.8512
 460	1	1	-0.10563	-30.6321	-33.1773	-6.94183
 461	1	5	-0.099376	-28.9947	-29.9039	-8.21718
 462	1	1	-0.043296	-29.9404	-31.139	-8.16778
 463	1	1	-0.073043	-29.8287	-32.0284	-7.06134
 464	1	1	-0.117827	-31.5502	-33.4364	-7.96075
 465	1	1	-0.037562	-30.8908	-31.4402	-9.18059
 466	1	1	-0.083705	-31.6664	-32.6001	-9.05209
 467	1	5	0.396	-29.0035	-29.1359	-9.59682
 468	1	5	0.310495	-29.4873	-28.9118	-7.08954
 469	1	6	-0.130298	-28.0341	-28.1939	-9.64939
 470	1	6	-0.128745	-30.1748	-28.5092	-9.84812
 471	1	6	-0.120019	-28.7655	-29.9634	-10.6354
 472	1	6	-0.104287	-30.8179	-28.6857	-7.17831
 473	1	6	-0.095507	-28.8877	-27.7005	-7.1365
 474	1	6	-0.104872	-29.2755	-29.3973	-5.8457
 475	1	3	0.456145	-32.6548	-33.2007	-9.9871
 476	1	3	0.550902	-32.4739	-34.584	-8.1476
 477	1	4	0.015704	-33.0786	-34.3758	-9.37854
 478	1	2	-0.456801	-32.9265	-32.7942	-11.104
 479	1	2	-0.487703	-32.5953	-35.5372	-7.39783
 480	1	1	-0.116566	-33.9322	-35.3276	-10.0059
 481	1	1	-0.050109	-35.3376	-35.2554	-9.85324
 482	1	1	0.154929	-36.1517	-36.2141	-10.5087
 483	1	1	0.041555	-33.3485	-36.3489	-10.7846
 484	1	1	-0.223109	-34.168	-37.2899	-11.4186
 485	1	1	-0.080449	-35.562	-37.2234	-11.3047
 486	1	5	-0.108008	-31.8399	-36.4501	-10.9666
 487	1	5	-0.182228	-36.4013	-38.2455	-12.0676
 488	1	5	-0.345523	-35.9436	-34.1551	-8.97433
 489	1	7	0.155183	-27.8029	-32.0779	-9.45939
 490	1	7	0.172904	-26.8664	-28.9441	-6.56781
 491	1	7	0.158028	-24.574	-29.857	-6.33736
 492	1	7	0.153129	-30.5286	-33.8558	-6.09708
 493	1	7	0.142914	-29.0951	-31.8368	-6.28291
 494	1	7	0.135531	-31.0286	-30.8201	-10.0611
 495	1	7	0.17765	-33.7176	-38.0597	-12.0398
 496	1	9	0.046541	-31.4346	-35.5309	-11.4056
 497	1	9	0.045238	-31.5695	-37.2771	-11.6341
 498	1	9	0.051941	-31.3361	-36.6249	-10.008
 499	1	9	0.087961	-35.7811	-38.8867	-12.707
 500	1	9	0.066782	-37.123	-37.7523	-12.7302
 501	1	9	0.075908	-36.9542	-38.9029	-11.3849
 502	1	9	0.105172	-37.0258	-34.0398	-9.09946
 503	1	9	0.115625	-35.5096	-33.1742	-9.2067
 504	1	9	0.140296	-35.7583	-34.3652	-7.91199
 505	1	1	-0.004194	-16.2686	-31.8752	-17.6824
 506	1	1	-0.097141	-16.2541	-32.9961	-16.8032
 507	1	1	-0.172015	-15.4079	-32.9123	-15.6575
 508	1	2	-0.377994	-15.7369	-29.3151	-19.3206
 509	1	1	0.033493	-15.4409	-30.782	-17.4249
 510	1	1	-0.063739	-14.5909	-31.7855	-15.4045
 511	1	2	-0.398381	-12.9585	-29.1127	-15.6084
 512	1	1	0.032144	-14.6153	-30.7326	-16.3242
 513	1	3	0.032313	-15.1999	-29.5801	-18.258
 514	1	4	0.461698	-14.2077	-28.8689	-17.5903
 515	1	3	0.091945	-13.8075	-29.4831	-16.4027
 516	1	1	-0.10563	-19.4808	-36.553	-15.1229
 517	1	5	-0.099376	-16.9882	-34.3444	-17.1422
 518	1	1	-0.043296	-17.9324	-34.818	-15.9858
 519	1	1	-0.073043	-18.5403	-36.1055	-16.0644
 520	1	1	-0.117827	-19.7703	-35.7181	-14.0467
 521	1	1	-0.037562	-18.2512	-34.0053	-14.8579
 522	1	1	-0.083705	-19.1411	-34.5018	-13.885
 523	1	5	0.396	-15.8467	-35.4114	-17.397
 524	1	5	0.310495	-17.8711	-34.2174	-18.4536
 525	1	6	-0.130298	-15.3141	-35.8556	-16.2361
 526	1	6	-0.128745	-14.8285	-34.8934	-18.122
 527	1	6	-0.120019	-16.254	-36.5134	-18.0643
 528	1	6	-0.104287	-18.5678	-35.3301	-18.7715
 529	1	6	-0.095507	-17.1319	-33.9485	-19.5543
 530	1	6	-0.104872	-18.8026	-33.2464	-18.3174
 531	1	3	0.456145	-19.5821	-33.9442	-12.5673
 532	1	3	0.550902	-20.6823	-35.9431	-12.9027
 533	1	4	0.015704	-20.4806	-34.8748	-12.0392
 534	1	2	-0.456801	-19.1753	-32.9185	-12.0509
 535	1	2	-0.487703	-21.444	-36.8882	-12.7742
 536	1	1	-0.116566	-21.0819	-34.849	-10.7369
 537	1	1	-0.050109	-22.1025	-33.9223	-10.3977
 538	1	1	0.154929	-22.8118	-34.0753	-9.17573
 539	1	1	0.041555	-20.7252	-35.8617	-9.81279
 540	1	1	-0.223109	-21.4391	-35.9997	-8.61465
 541	1	1	-0.080449	-22.496	-35.1376	-8.29865
 542	1	5	-0.108008	-19.5813	-36.8385	-10.0723
 543	1	5	-0.182228	-23.2484	-35.3668	-6.98997
 544	1	5	-0.345523	-22.422	-32.7341	-11.3085
 545	1	7	0.155183	-16.8541	-31.8283	-18.5918
 546	1	7	0.172904	-15.3563	-33.7452	-14.9604
 547	1	7	0.158028	-13.9255	-31.7468	-14.5446
 548	1	7	0.153129	-19.9585	-37.5265	-15.2185
 549	1	7	0.142914	-18.3193	-36.7784	-16.8846
 550	1	7	0.135531	-17.8302	-33.013	-14.7251
 551	1	7	0.17765	-21.1718	-36.7937	-7.92261
 552	1	9	0.046541	-18.7492	-36.3611	-10.6043
 553	1	9	0.045238	-19.9219	-37.6972	-10.6635
 554	1	9	0.051941	-19.1717	-37.2293	-9.13258
 555	1	9	0.087961	-23.1651	-36.4096	-6.65744
 556	1	9	0.066782	-24.3218	-35.1603	-7.08835
 557	1	9	0.075908	-22.8503	-34.7298	-6.18973
 558	1	9	0.105172	-21.985	-31.8112	-10.9045
 559	1	9	0.115625	-23.4988	-32.5749	-11.4122
 560	1	9	0.140296	-22.036	-32.8382	-12.3269
 561	1	1	-0.004194	-5.51483	-24.918	-23.5435
 562	1	1	-0.097141	-5.17842	-26.246	-23.1743
 563	1	1	-0.172015	-4.07211	-26.4385	-22.2953
 564	1	2	-0.377994	-5.55635	-21.8958	-24.2105
 565	1	1	0.033493	-4.73658	-23.8594	-23.069
 566	1	1	-0.063739	-3.32342	-25.35	-21.7978
 567	1	2	-0.398381	-2.02595	-22.5642	-21.2692
 568	1	1	0.032144	-3.67726	-24.0634	-22.2103
 569	1	3	0.032313	-4.77457	-22.4244	-23.4375
 570	1	4	0.461698	-3.69152	-21.8513	-22.7743
 571	1	3	0.091945	-3.00769	-22.7591	-21.967
 572	1	1	-0.10563	-9.8944	-27.1915	-24.1097
 573	1	5	-0.099376	-5.99511	-27.4169	-23.8001
 574	1	1	-0.043296	-7.49678	-27.1534	-23.4949
 575	1	1	-0.073043	-8.5339	-27.3391	-24.4543
 576	1	1	-0.117827	-10.208	-26.8701	-22.7847
 577	1	1	-0.037562	-7.86258	-26.8047	-22.1695
 578	1	1	-0.083705	-9.21688	-26.6801	-21.8453
 579	1	5	0.396	-5.66468	-28.8348	-23.1867
 580	1	5	0.310495	-5.64434	-27.4444	-25.3425
 581	1	6	-0.130298	-4.4231	-29.2691	-23.5007
 582	1	6	-0.128745	-6.53018	-29.7808	-23.618
 583	1	6	-0.120019	-5.75901	-28.8472	-21.8376
 584	1	6	-0.104287	-6.15686	-26.3856	-26.0087
 585	1	6	-0.095507	-6.09321	-28.5494	-25.9793
 586	1	6	-0.104872	-4.30751	-27.4012	-25.5441
 587	1	3	0.456145	-9.86081	-26.4513	-20.5268
 588	1	3	0.550902	-11.5244	-26.7653	-22.0962
 589	1	4	0.015704	-11.2268	-26.5463	-20.7563
 590	1	2	-0.456801	-9.28671	-26.2932	-19.4635
 591	1	2	-0.487703	-12.6192	-26.916	-22.6105
 592	1	1	-0.116566	-12.199	-26.5134	-19.7125
 593	1	1	-0.050109	-12.6751	-27.7207	-19.145
 594	1	1	0.154929	-13.6449	-27.6698	-18.1096
 595	1	1	0.041555	-12.6727	-25.2704	-19.2435
 596	1	1	-0.223109	-13.6135	-25.2358	-18.2028
 597	1	1	-0.080449	-14.1065	-26.4211	-17.634
 598	1	5	-0.108008	-12.1908	-23.9596	-19.8542
 599	1	5	-0.182228	-15.1488	-26.3277	-16.524
 600	1	5	-0.345523	-12.1618	-29.0637	-19.6843
 601	1	7	0.155183	-6.33481	-24.7031	-24.2233
 602	1	7	0.172904	-3.75076	-27.4317	-21.9994
 603	1	7	0.158028	-2.4637	-25.5012	-21.1484
 604	1	7	0.153129	-10.6829	-27.3634	-24.8402
 605	1	7	0.142914	-8.30822	-27.6325	-25.4736
 606	1	7	0.135531	-7.11611	-26.684	-21.3878
 607	1	7	0.17765	-13.975	-24.2763	-17.843
 608	1	9	0.046541	-11.1097	-23.8341	-19.717
 609	1	9	0.045238	-12.6824	-23.0924	-19.3964
 610	1	9	0.051941	-12.4054	-23.9257	-20.9298
 611	1	9	0.087961	-14.7738	-26.7688	-15.591
 612	1	9	0.066782	-16.0745	-26.8477	-16.8022
 613	1	9	0.075908	-15.4169	-25.2869	-16.3034
 614	1	9	0.105172	-12.2808	-29.8898	-18.974
 615	1	9	0.115625	-11.09	-29.0328	-19.9143
 616	1	9	0.140296	-12.6976	-29.339	-20.604
 617	1	1	-0.004194	5.92047	-18.016	-29.8722
 618	1	1	-0.097141	4.49908	-17.9795	-29.7943
 619	1	1	-0.172015	3.82978	-16.8134	-30.2594
 620	1	2	-0.377994	8.95786	-17.4108	-30.2308
 621	1	1	0.033493	6.59666	-16.9241	-30.4311
 622	1	1	-0.063739	4.52548	-15.7487	-30.8637
 623	1	2	-0.398381	6.62384	-13.8759	-32.141
 624	1	1	0.032144	5.91447	-15.8436	-30.9482
 625	1	3	0.032313	8.05444	-16.6899	-30.6206