pySIMM System Object

1570 atoms
1709 bonds
3024 angles
4476 dihedrals
448 impropers

9 atom types
11 bond types
18 angle types
7 dihedral types
4 improper types

-184.313929 184.313929 xlo xhi
-184.313929 184.313929 ylo yhi
-184.313929 184.313929 zlo zhi

Masses

   1	12.01	# ca
   2	16.0	# o
   3	12.01	# c
   4	14.01	# n
   5	12.01	# c3
   6	19.0	# f
   7	1.008	# ha
   8	1.008	# hn
   9	1.008	# hc

Pair Coeffs

   1	0.086	3.3996695084235347	# ca
   2	0.21	2.959921901149463	# o
   3	0.086	3.3996695084235347	# c
   4	0.17	3.249998523775958	# n
   5	0.1094	3.3996695084235347	# c3
   6	0.061	3.1181455134911875	# f
   7	0.015	2.59964245953351	# ha
   8	0.0157	1.069078461768407	# hn
   9	0.0157	2.649532787749369	# hc

Bond Coeffs

   1	321.0	1.5156	# c3,ca
   2	300.9	1.5375	# c3,c3
   3	384.2	1.4121	# ca,n
   4	330.6	1.0969	# c3,hc
   5	637.7	1.2183	# c,o
   6	403.2	1.0129	# hn,n
   7	356.9	1.3497	# c3,f
   8	461.1	1.3984	# ca,ca
   9	427.6	1.3789	# c,n
  10	345.9	1.4906	# c,ca
  11	345.8	1.086	# ca,ha

Angle Coeffs

   1	70.89	107.36	# f,c3,f
   2	68.72	122.6	# ca,c,o
   3	67.87	120.19	# ca,ca,n
   4	67.68	115.25	# ca,c,n
   5	46.8	110.47	# ca,c3,hc
   6	74.22	123.05	# n,c,o
   7	48.33	117.55	# c,n,hn
   8	63.56	112.24	# ca,c3,ca
   9	62.86	111.51	# c3,c3,c3
  10	66.11	109.24	# c3,c3,f
  11	64.28	120.33	# c,ca,ca
  12	66.62	120.02	# ca,ca,ca
  13	63.74	127.08	# c,n,c
  14	39.4	107.58	# hc,c3,hc
  15	48.18	119.88	# ca,ca,ha
  16	63.15	112.07	# c3,c3,ca
  17	63.53	120.77	# c3,ca,ca
  18	63.82	123.71	# c,n,ca

Dihedral Coeffs

   1	2	2.5	2	180	2.0	1	0	# hn,n,c,o
   2	1	3.625	2	180	# X,ca,ca,X
   3	1	0.0	2	0	# X,c3,ca,X
   4	1	1.0	2	180	# X,c,ca,X
   5	1	0.15555555555555556	3	0	# X,c3,c3,X
   6	1	2.5	2	180	# X,c,n,X
   7	1	0.45	2	180	# X,ca,n,X

Improper Coeffs

   1	1.1	-1	2	# n,X,X,hn
   2	1.1	-1	2	# ca,ca,ca,c3
   3	1.1	-1	2	# ca,X,X,ha
   4	10.5	-1	2	# c,X,X,o

Atoms

   1	1	1	-0.004194	7.93369	26.3565	36.8255
   2	1	1	-0.097141	9.10419	27.0684	37.1977
   3	1	1	-0.172015	10.2612	26.3212	37.5604
   4	1	2	-0.377994	5.62564	24.3292	36.5376
   5	1	1	0.033493	7.9215	24.9664	36.9289
   6	1	1	-0.063739	10.2323	24.9111	37.637
   7	1	2	-0.398381	9.36363	21.9217	37.8726
   8	1	1	0.032144	9.03318	24.259	37.3353
   9	1	3	0.032313	6.77658	24.0342	36.8137
  10	1	4	0.461698	7.28535	22.798	37.1985
  11	1	3	0.091945	8.64796	22.8321	37.489
  12	1	1	-0.10563	5.44431	30.106	37.7881
  13	1	5	-0.099376	9.03936	28.6235	37.251
  14	1	1	-0.043296	7.64996	28.984	37.8622
  15	1	1	-0.073043	6.73694	29.8993	37.2619
  16	1	1	-0.117827	5.07526	29.389	38.9305
  17	1	1	-0.037562	7.24386	28.3149	39.0475
  18	1	1	-0.083705	5.95638	28.5274	39.5464
  19	1	5	0.396	9.24645	29.1383	35.7762
  20	1	5	0.310495	10.1263	29.2798	38.1889
  21	1	6	-0.130298	8.23798	28.7477	34.9641
  22	1	6	-0.128745	10.3771	28.6401	35.2263
  23	1	6	-0.120019	9.33263	30.4854	35.6938
  24	1	6	-0.104287	11.3767	29.2406	37.6759
  25	1	6	-0.095507	10.184	28.681	39.3997
  26	1	6	-0.104872	9.84886	30.5821	38.426
  27	1	3	0.456145	5.27539	27.9195	40.718
  28	1	3	0.550902	3.79416	29.3598	39.687
  29	1	4	0.015704	3.99875	28.4683	40.7345
  30	1	2	-0.456801	5.76219	27.1117	41.4913
  31	1	2	-0.487703	2.79647	30.0129	39.4309
  32	1	1	-0.116566	3.03395	28.1894	41.7474
  33	1	1	-0.050109	2.75381	29.1624	42.7344
  34	1	1	0.154929	1.8197	28.8739	43.7465
  35	1	1	0.041555	2.37352	26.9379	41.7811
  36	1	1	-0.223109	1.44826	26.6683	42.8059
  37	1	1	-0.080449	1.17158	27.6282	43.7926
  38	1	5	-0.108008	2.64291	25.8639	40.7329
  39	1	5	-0.182228	0.177503	27.3202	44.9011
  40	1	5	-0.345523	3.44941	30.5224	42.7277
  41	1	7	0.155183	7.01652	26.8664	36.5403
  42	1	7	0.172904	11.1873	26.8199	37.8287
  43	1	7	0.158028	11.0972	24.3427	37.9726
  44	1	7	0.153129	4.74268	30.7879	37.3111
  45	1	7	0.142914	6.99835	30.4484	36.3645
  46	1	7	0.135531	7.89433	27.6018	39.5486
  47	1	7	0.17765	0.943276	25.7061	42.8365
  48	1	9	0.046541	3.63291	25.4135	40.8777
  49	1	9	0.045238	2.59966	26.2765	39.717
  50	1	9	0.051941	1.90429	25.054	40.7853
  51	1	9	0.087961	0.160539	26.2494	45.1377
  52	1	9	0.066782	-0.837236	27.6183	44.6101
  53	1	9	0.075908	0.432871	27.8556	45.8243
  54	1	9	0.105172	4.53735	30.4195	42.6339
  55	1	9	0.115625	3.25783	31.08	43.653
  56	1	9	0.140296	3.08809	31.1436	41.8975
  57	1	1	-0.004194	0.834554	18.1022	45.6563
  58	1	1	-0.097141	1.1529	19.2677	46.4012
  59	1	1	-0.172015	1.16504	19.1725	47.8237
  60	1	2	-0.377994	0.199516	15.2569	44.6119
  61	1	1	0.033493	0.577008	16.9071	46.3332
  62	1	1	-0.063739	0.90587	17.9523	48.4864
  63	1	2	-0.398381	0.351526	14.9711	49.2427
  64	1	1	0.032144	0.618001	16.8267	47.7092
  65	1	3	0.032313	0.280057	15.5602	45.7904
  66	1	4	0.461698	0.169914	14.7332	46.9063
  67	1	3	0.091945	0.353659	15.4174	48.1074
  68	1	1	-0.10563	4.48499	19.0399	43.7483
  69	1	5	-0.099376	1.45857	20.5861	45.6262
  70	1	1	-0.043296	2.436	20.234	44.4652
  71	1	1	-0.073043	3.55096	19.392	44.7419
  72	1	1	-0.117827	4.29309	19.5519	42.4629
  73	1	1	-0.037562	2.29254	20.7475	43.1477
  74	1	1	-0.083705	3.23141	20.384	42.1735
  75	1	5	0.396	2.18264	21.6884	46.4928
  76	1	5	0.310495	0.0690223	21.15	45.1353
  77	1	6	-0.130298	1.38366	22.2369	47.4358
  78	1	6	-0.128745	2.63143	22.7091	45.7273
  79	1	6	-0.120019	3.26828	21.1952	47.1312
  80	1	6	-0.104287	-0.825668	21.2118	46.1477
  81	1	6	-0.095507	-0.489052	20.3591	44.1909
  82	1	6	-0.104872	0.146413	22.3959	44.615
  83	1	3	0.456145	3.34304	20.7962	40.7479
  84	1	3	0.550902	5.11668	19.4008	41.235
  85	1	4	0.015704	4.49381	20.1806	40.2701
  86	1	2	-0.456801	2.6003	21.563	40.1595
  87	1	2	-0.487703	6.14453	18.753	41.1337
  88	1	1	-0.116566	5.03707	20.3904	38.9685
  89	1	1	-0.050109	5.87296	21.5056	38.7323
  90	1	1	0.154929	6.45707	21.6753	37.451
  91	1	1	0.041555	4.77374	19.4639	37.9374
  92	1	1	-0.223109	5.35802	19.648	36.6737
  93	1	1	-0.080449	6.20055	20.7428	36.4207
  94	1	5	-0.108008	3.8679	18.2606	38.1707
  95	1	5	-0.182228	6.81681	20.9007	35.034
  96	1	5	-0.345523	6.1185	22.5033	39.8762
  97	1	7	0.155183	0.804099	18.1099	44.5694
  98	1	7	0.172904	1.3815	20.0372	48.4431
  99	1	7	0.158028	0.934688	17.8782	49.5716
 100	1	7	0.153129	5.33809	18.4018	43.9723
 101	1	7	0.142914	3.70332	19.0067	45.747
 102	1	7	0.135531	1.48996	21.4198	42.864
 103	1	7	0.17765	5.15625	18.9295	35.8837
 104	1	9	0.046541	2.88671	18.5734	38.5496
 105	1	9	0.045238	4.31148	17.5703	38.899
 106	1	9	0.051941	3.69474	17.6968	37.2457
 107	1	9	0.087961	7.91325	20.8654	35.0811
 108	1	9	0.066782	6.52388	21.8542	34.5756
 109	1	9	0.075908	6.49625	20.1025	34.3527
 110	1	9	0.105172	6.80755	23.3179	39.6316
 111	1	9	0.115625	6.5445	21.9993	40.7532
 112	1	9	0.140296	5.1781	22.9813	40.1832
 113	1	1	-0.004194	-9.56148	8.32708	44.7501
 114	1	1	-0.097141	-8.59727	8.00856	45.7425
 115	1	1	-0.172015	-7.79033	6.85189	45.5533
 116	1	2	-0.377994	-11.4986	8.42396	42.3437
 117	1	1	0.033493	-9.71807	7.46786	43.6603
 118	1	1	-0.063739	-7.97786	5.98929	44.453
 119	1	2	-0.398381	-9.04663	4.50286	41.9308
 120	1	1	0.032144	-8.97453	6.3148	43.5293
 121	1	3	0.032313	-10.697	7.52819	42.5495
 122	1	4	0.461698	-10.5066	6.34851	41.8307
 123	1	3	0.091945	-9.46882	5.57023	42.3421
 124	1	1	-0.10563	-5.17436	9.03659	49.1114
 125	1	5	-0.099376	-8.51373	8.77037	47.0952
 126	1	1	-0.043296	-7.01679	8.99718	47.4609
 127	1	1	-0.073043	-6.50486	8.7396	48.7658
 128	1	1	-0.117827	-4.36109	9.61976	48.1398
 129	1	1	-0.037562	-6.14338	9.56935	46.4951
 130	1	1	-0.083705	-4.82667	9.88229	46.8675
 131	1	5	0.396	-9.29817	7.8694	48.1325
 132	1	5	0.310495	-9.18237	10.1998	47.0638
 133	1	6	-0.130298	-8.64761	6.71249	48.3955
 134	1	6	-0.128745	-10.5152	7.50686	47.6645
 135	1	6	-0.120019	-9.51542	8.48139	49.3191
 136	1	6	-0.104287	-10.532	10.1528	46.9974
 137	1	6	-0.095507	-8.76034	10.9376	46.0124
 138	1	6	-0.104872	-8.8794	10.9148	48.1716
 139	1	3	0.456145	-3.73645	10.5728	46.1168
 140	1	3	0.550902	-2.9698	10.1202	48.2478
 141	1	4	0.015704	-2.68364	10.6967	47.0199
 142	1	2	-0.456801	-3.79926	11.0131	44.982
 143	1	2	-0.487703	-2.25453	10.0476	49.2332
 144	1	1	-0.116566	-1.43571	11.3378	46.757
 145	1	1	-0.050109	-1.2983	12.7413	46.9034
 146	1	1	0.154929	-0.00941807	13.3267	46.8009
 147	1	1	0.041555	-0.307135	10.5377	46.4751
 148	1	1	-0.223109	0.960532	11.1309	46.3929
 149	1	1	-0.080449	1.12381	12.5126	46.571
 150	1	5	-0.108008	-0.415741	9.02553	46.3113
 151	1	5	-0.182228	2.53394	13.0967	46.5327
 152	1	5	-0.345523	-2.52946	13.5992	47.2247
 153	1	7	0.155183	-10.2212	9.18408	44.8187
 154	1	7	0.172904	-7.04551	6.58344	46.3001
 155	1	7	0.158028	-7.39757	5.07629	44.3419
 156	1	7	0.153129	-4.796	8.85609	50.1159
 157	1	7	0.142914	-7.13023	8.33067	49.5499
 158	1	7	0.135531	-6.48793	9.80556	45.4903
 159	1	7	0.17765	1.82901	10.5031	46.2132
 160	1	9	0.046541	-0.387727	8.52598	47.2874
 161	1	9	0.045238	0.410537	8.62939	45.7083
 162	1	9	0.051941	-1.34587	8.73341	45.8097
 163	1	9	0.087961	2.76807	13.6258	47.4663
 164	1	9	0.066782	2.65374	13.8003	45.6991
 165	1	9	0.075908	3.29417	12.315	46.4111
 166	1	9	0.105172	-2.41018	14.6516	46.9432
 167	1	9	0.115625	-2.75441	13.5677	48.2994
 168	1	9	0.140296	-3.42099	13.2556	46.6855
 169	1	1	-0.004194	-22.5125	3.05327	37.8781
 170	1	1	-0.097141	-21.3102	3.81071	37.8752
 171	1	1	-0.172015	-20.3712	3.57764	36.8295
 172	1	2	-0.377994	-24.73	0.923606	37.4959
 173	1	1	0.033493	-22.6883	2.06489	36.9001
 174	1	1	-0.063739	-20.566	2.5736	35.8605
 175	1	2	-0.398381	-21.4619	0.031467	34.3219
 176	1	1	0.032144	-21.7327	1.81255	35.9361
 177	1	3	0.032313	-23.7444	1.02865	36.7856
 178	1	4	0.461698	-23.2997	0.160045	35.7876
 179	1	3	0.091945	-22.1166	0.586911	35.1893
 180	1	1	-0.10563	-17.7884	2.81313	39.9862
 181	1	5	-0.099376	-20.9431	4.84007	38.988
 182	1	1	-0.043296	-19.4711	4.53749	39.4027
 183	1	1	-0.073043	-19.1119	3.18883	39.6886
 184	1	1	-0.117827	-16.8146	3.81391	39.9932
 185	1	1	-0.037562	-18.4551	5.52877	39.4616
 186	1	1	-0.083705	-17.1407	5.13148	39.7434
 187	1	5	0.396	-21.8115	4.71891	40.3023
 188	1	5	0.310495	-21.1584	6.27531	38.369
 189	1	6	-0.130298	-23.0932	5.11566	40.1337
 190	1	6	-0.128745	-21.2967	5.4723	41.3005
 191	1	6	-0.120019	-21.8548	3.45135	40.7704
 192	1	6	-0.104287	-20.2974	6.52862	37.3576
 193	1	6	-0.095507	-21.014	7.27267	39.2711
 194	1	6	-0.104872	-22.3962	6.40374	37.8387
 195	1	3	0.456145	-15.882	5.92397	39.7413
 196	1	3	0.550902	-15.3398	3.7173	40.1521
 197	1	4	0.015704	-14.8612	5.00255	39.9451
 198	1	2	-0.456801	-15.7812	7.11331	39.4949
 199	1	2	-0.487703	-14.6984	2.69541	40.3251
 200	1	1	-0.116566	-13.4778	5.31252	39.796
 201	1	1	-0.050109	-12.6597	5.59199	40.9166
 202	1	1	0.154929	-11.3095	5.97737	40.7146
 203	1	1	0.041555	-12.9316	5.33778	38.4944
 204	1	1	-0.223109	-11.5833	5.67612	38.3137
 205	1	1	-0.080449	-10.7711	6.01311	39.4063
 206	1	5	-0.108008	-13.7721	4.97996	37.2727
 207	1	5	-0.182228	-9.31748	6.38126	39.1343
 208	1	5	-0.345523	-13.2072	5.46333	42.3428
 209	1	7	0.155183	-23.276	3.16538	38.6415
 210	1	7	0.172904	-19.4459	4.14867	36.7935
 211	1	7	0.158028	-19.8132	2.35744	35.1058
 212	1	7	0.153129	-17.5235	1.77329	40.1691
 213	1	7	0.142914	-19.8647	2.40664	39.6447
 214	1	7	0.135531	-18.6463	6.57726	39.2577
 215	1	7	0.17765	-11.1643	5.68243	37.311
 216	1	9	0.046541	-14.607	5.68025	37.1473
 217	1	9	0.045238	-14.1851	3.96725	37.3626
 218	1	9	0.051941	-13.1814	5.00839	36.3492
 219	1	9	0.087961	-8.98738	7.21207	39.763
 220	1	9	0.066782	-9.1664	6.68923	38.0919
 221	1	9	0.075908	-8.65561	5.52563	39.3228
 222	1	9	0.105172	-14.2193	5.04974	42.3929
 223	1	9	0.115625	-13.2399	6.44071	42.8396
 224	1	9	0.140296	-12.5813	4.79637	42.9501
 225	1	1	-0.004194	-27.161	-5.33791	44.0616
 226	1	1	-0.097141	-26.373	-6.24045	43.2964
 227	1	1	-0.172015	-27.0429	-7.14433	42.423
 228	1	2	-0.377994	-29.374	-3.47688	45.1917
 229	1	1	0.033493	-28.5484	-5.32918	43.8752
 230	1	1	-0.063739	-28.4421	-7.12588	42.2599
 231	1	2	-0.398381	-31.4537	-6.36864	42.2148
 232	1	1	0.032144	-29.1706	-6.18775	42.9916
 233	1	3	0.032313	-29.5679	-4.39058	44.4077
 234	1	4	0.461698	-30.7509	-4.73106	43.7538
 235	1	3	0.091945	-30.6098	-5.83349	42.9151
 236	1	1	-0.10563	-22.9276	-6.70716	39.8765
 237	1	5	-0.099376	-24.8134	-6.22089	43.2874
 238	1	1	-0.043296	-24.3814	-6.12364	41.7952
 239	1	1	-0.073043	-23.3027	-6.8642	41.2303
 240	1	1	-0.117827	-23.647	-5.79726	39.0914
 241	1	1	-0.037562	-25.0722	-5.20796	40.962
 242	1	1	-0.083705	-24.6913	-5.07568	39.6269
 243	1	5	0.396	-24.3232	-7.53091	44.0179
 244	1	5	0.310495	-24.1849	-4.96477	44.0094
 245	1	6	-0.130298	-24.5958	-8.64458	43.3015
 246	1	6	-0.128745	-24.9387	-7.68741	45.2119
 247	1	6	-0.120019	-22.9936	-7.54523	44.2636
 248	1	6	-0.104287	-24.3758	-4.97645	45.3478
 249	1	6	-0.095507	-24.6926	-3.79996	43.5458
 250	1	6	-0.104872	-22.8502	-4.88497	43.8054
 251	1	3	0.456145	-25.1867	-4.12752	38.6027
 252	1	3	0.550902	-23.434	-5.32301	37.693
 253	1	4	0.015704	-24.3567	-4.29955	37.5047
 254	1	2	-0.456801	-26.0775	-3.30972	38.7548
 255	1	2	-0.487703	-22.559	-5.69649	36.9311
 256	1	1	-0.116566	-24.3469	-3.37986	36.4153
 257	1	1	-0.050109	-23.716	-2.12411	36.5798
 258	1	1	0.154929	-23.8605	-1.1315	35.5759
 259	1	1	0.041555	-25.048	-3.67473	35.2288
 260	1	1	-0.223109	-25.1363	-2.70246	34.219
 261	1	1	-0.080449	-24.5674	-1.42807	34.3871
 262	1	5	-0.108008	-25.7241	-5.02536	35.0299
 263	1	5	-0.182228	-24.73	-0.400402	33.2715
 264	1	5	-0.345523	-22.914	-1.84173	37.8617
 265	1	7	0.155183	-26.7328	-4.60934	44.7418
 266	1	7	0.172904	-26.4673	-7.83795	41.8143
 267	1	7	0.158028	-28.9423	-7.78023	41.5493
 268	1	7	0.153129	-22.0835	-7.25287	39.4588
 269	1	7	0.142914	-22.724	-7.55435	41.8347
 270	1	7	0.135531	-25.8777	-4.58486	41.3438
 271	1	7	0.17765	-25.6761	-2.93316	33.3043
 272	1	9	0.046541	-26.2496	-5.07999	34.0686
 273	1	9	0.045238	-26.4622	-5.21787	35.8185
 274	1	9	0.051941	-24.9864	-5.83748	35.0471
 275	1	9	0.087961	-23.7921	-0.276171	32.714
 276	1	9	0.066782	-25.0282	0.580497	33.6628
 277	1	9	0.075908	-25.4997	-0.704732	32.551
 278	1	9	0.105172	-22.4285	-2.74033	38.2592
 279	1	9	0.115625	-23.5689	-1.4385	38.6469
 280	1	9	0.140296	-22.0964	-1.12785	37.7078
 281	1	1	-0.004194	-30.5687	4.86077	41.8797
 282	1	1	-0.097141	-31.8314	5.48725	41.6841
 283	1	1	-0.172015	-32.2012	6.53607	42.5772
 284	1	2	-0.377994	-27.7413	3.93284	42.8354
 285	1	1	0.033493	-29.7442	5.29147	42.9281
 286	1	1	-0.063739	-31.3581	6.95088	43.6269
 287	1	2	-0.398381	-29.06	7.36778	45.6671
 288	1	1	0.032144	-30.1285	6.31067	43.7744
 289	1	3	0.032313	-28.3946	4.8261	43.3476
 290	1	4	0.461698	-28.0562	5.62841	44.4382
 291	1	3	0.091945	-29.0496	6.54731	44.7636
 292	1	1	-0.10563	-33.4129	1.34825	39.395
 293	1	5	-0.099376	-32.7285	5.04121	40.4823
 294	1	1	-0.043296	-32.9243	3.49684	40.5285
 295	1	1	-0.073043	-33.1809	2.73779	39.3497
 296	1	1	-0.117827	-33.3849	0.719017	40.6422
 297	1	1	-0.037562	-32.9361	2.81836	41.7761
 298	1	1	-0.083705	-33.147	1.43447	41.7968
 299	1	5	0.396	-31.9855	5.52923	39.1752
 300	1	5	0.310495	-34.1799	5.65688	40.5135
 301	1	6	-0.130298	-30.9104	4.75849	38.8962
 302	1	6	-0.128745	-31.5284	6.79529	39.3101
 303	1	6	-0.120019	-32.7583	5.52927	38.066
 304	1	6	-0.104287	-34.1886	6.99646	40.3259
 305	1	6	-0.095507	-34.8024	5.39707	41.6861
 306	1	6	-0.104872	-34.9799	5.13537	39.5555
 307	1	3	0.456145	-33.1232	0.479375	42.9355
 308	1	3	0.550902	-33.5376	-0.715923	41.0039
 309	1	4	0.015704	-33.3317	-0.775778	42.3769
 310	1	2	-0.456801	-32.917	0.757698	44.1042
 311	1	2	-0.487703	-33.7159	-1.63793	40.2265
 312	1	1	-0.116566	-33.2247	-1.99288	43.1132
 313	1	1	-0.050109	-32.0329	-2.75813	43.0582
 314	1	1	0.154929	-31.9366	-3.95006	43.8207
 315	1	1	0.041555	-34.3059	-2.42085	43.9142
 316	1	1	-0.223109	-34.1891	-3.59969	44.6679
 317	1	1	-0.080449	-33.014	-4.36682	44.6332
 318	1	5	-0.108008	-35.6068	-1.62909	43.9789
 319	1	5	-0.182228	-32.9315	-5.63502	45.477
 320	1	5	-0.345523	-30.8394	-2.31753	42.1932
 321	1	7	0.155183	-30.226	4.05553	41.2342
 322	1	7	0.172904	-33.1432	7.06274	42.4774
 323	1	7	0.158028	-31.6435	7.75354	44.3032
 324	1	7	0.153129	-33.6021	0.776689	38.4882
 325	1	7	0.142914	-33.2214	3.21561	38.3778
 326	1	7	0.135531	-32.7809	3.34207	42.716
 327	1	7	0.17765	-35.0228	-3.9218	45.2861
 328	1	9	0.046541	-36.355	-2.12725	44.6077
 329	1	9	0.045238	-36.0461	-1.51119	42.9805
 330	1	9	0.051941	-35.4403	-0.630003	44.4
 331	1	9	0.087961	-32.0707	-5.605	46.1577
 332	1	9	0.066782	-32.8369	-6.52655	44.8436
 333	1	9	0.075908	-33.8272	-5.77016	46.0961
 334	1	9	0.105172	-31.013	-1.41001	41.6082
 335	1	9	0.115625	-30.5676	-3.09589	41.4677
 336	1	9	0.140296	-29.9587	-2.10615	42.8147
 337	1	1	-0.004194	-17.1252	8.60923	46.4571
 338	1	1	-0.097141	-16.7423	8.99879	45.1472
 339	1	1	-0.172015	-15.6213	9.86555	45.0062
 340	1	2	-0.377994	-17.5643	8.26535	49.5031
 341	1	1	0.033493	-16.4182	9.11077	47.5524
 342	1	1	-0.063739	-14.9204	10.3593	46.1278
 343	1	2	-0.398381	-13.9134	11.0878	48.9994
 344	1	1	0.032144	-15.3442	9.96232	47.3976
 345	1	3	0.032313	-16.6711	8.92739	49.0009
 346	1	4	0.461698	-15.721	9.72458	49.6348
 347	1	3	0.091945	-14.8541	10.3538	48.7452
 348	1	1	-0.10563	-20.964	9.64602	45.2487
 349	1	5	-0.099376	-17.5246	8.41798	43.932
 350	1	1	-0.043296	-19.0387	8.41352	44.2947
 351	1	1	-0.073043	-19.6178	9.59715	44.8342
 352	1	1	-0.117827	-21.732	8.48612	45.1104
 353	1	1	-0.037562	-19.8678	7.27091	44.1375
 354	1	1	-0.083705	-21.1977	7.33797	44.5645
 355	1	5	0.396	-16.9319	6.97934	43.6946
 356	1	5	0.310495	-17.3815	9.26334	42.6071
 357	1	6	-0.130298	-15.588	7.01537	43.5931
 358	1	6	-0.128745	-17.392	6.38748	42.5709
 359	1	6	-0.120019	-17.1961	6.14572	44.7264
 360	1	6	-0.104287	-16.1611	9.16863	42.0363
 361	1	6	-0.095507	-17.614	10.5783	42.8176
 362	1	6	-0.104872	-18.273	8.86483	41.6706
 363	1	3	0.456145	-22.2323	6.2734	44.6126
 364	1	3	0.550902	-23.1305	8.19358	45.5262
 365	1	4	0.015704	-23.3386	6.85465	45.2193
 366	1	2	-0.456801	-22.09	5.11649	44.2557
 367	1	2	-0.487703	-23.8966	8.9681	46.074
 368	1	1	-0.116566	-24.5182	6.13648	45.5779
 369	1	1	-0.050109	-25.67	6.17731	44.7554
 370	1	1	0.154929	-26.849	5.51026	45.1796
 371	1	1	0.041555	-24.5363	5.42101	46.7954
 372	1	1	-0.223109	-25.7008	4.74409	47.1857
 373	1	1	-0.080449	-26.8573	4.78295	46.3929
 374	1	5	-0.108008	-23.323	5.39028	47.7193
 375	1	5	-0.182228	-28.1068	4.06061	46.8899
 376	1	5	-0.345523	-25.6417	6.98097	43.4484
 377	1	7	0.155183	-17.9639	7.94085	46.6334
 378	1	7	0.172904	-15.2804	10.1875	44.0278
 379	1	7	0.158028	-14.0884	11.0494	46.0158
 380	1	7	0.153129	-21.387	10.5469	45.6891
 381	1	7	0.142914	-19.0061	10.4874	44.9632
 382	1	7	0.135531	-19.5095	6.33134	43.7308
 383	1	7	0.17765	-25.7115	4.20126	48.1272
 384	1	9	0.046541	-22.4423	4.98473	47.2063
 385	1	9	0.045238	-23.5	4.76486	48.603
 386	1	9	0.051941	-23.0769	6.39801	48.0772
 387	1	9	0.087961	-28.8643	4.77617	47.2363
 388	1	9	0.066782	-27.8798	3.39309	47.7308
 389	1	9	0.075908	-28.5545	3.43895	46.1036
 390	1	9	0.105172	-26.3453	6.60154	42.6981
 391	1	9	0.115625	-24.6579	6.94313	42.9645
 392	1	9	0.140296	-25.8819	8.03679	43.6356
 393	1	1	-0.004194	-19.218	16.6019	50.5695
 394	1	1	-0.097141	-19.4977	17.6351	51.5056
 395	1	1	-0.172015	-18.7126	18.8219	51.4503
 396	1	2	-0.377994	-17.855	14.5559	48.6867
 397	1	1	0.033493	-18.114	16.7262	49.7226
 398	1	1	-0.063739	-17.6134	18.9357	50.5716
 399	1	2	-0.398381	-15.1696	18.343	48.7458
 400	1	1	0.032144	-17.3184	17.8526	49.7386
 401	1	3	0.032313	-17.4606	15.6954	48.8762
 402	1	4	0.461698	-16.2558	16.2716	48.477
 403	1	3	0.091945	-16.116	17.5901	48.9067
 404	1	1	-0.10563	-20.9445	13.5983	53.6371
 405	1	5	-0.099376	-20.5574	17.3616	52.6203
 406	1	1	-0.043296	-20.2647	15.9271	53.1576
 407	1	1	-0.073043	-21.274	14.9438	53.3651
 408	1	1	-0.117827	-19.5904	13.2509	53.7084
 409	1	1	-0.037562	-18.91	15.5469	53.346
 410	1	1	-0.083705	-18.6044	14.2059	53.5836
 411	1	5	0.396	-21.9734	17.5221	51.9461
 412	1	5	0.310495	-20.4585	18.3269	53.8623
 413	1	6	-0.130298	-22.9961	17.4804	52.8294
 414	1	6	-0.128745	-22.2036	16.5568	51.0274
 415	1	6	-0.120019	-22.0771	18.6992	51.2881
 416	1	6	-0.104287	-21.232	17.8979	54.8855
 417	1	6	-0.095507	-20.8475	19.5921	53.5864
 418	1	6	-0.104872	-19.1993	18.3928	54.3513
 419	1	3	0.456145	-17.293	13.5206	53.4667
 420	1	3	0.550902	-18.9387	11.9121	53.6879
 421	1	4	0.015704	-17.5916	12.165	53.4518
 422	1	2	-0.456801	-16.2326	14.0559	53.1917
 423	1	2	-0.487703	-19.5138	10.8375	53.672
 424	1	1	-0.116566	-16.6894	11.1887	52.9374
 425	1	1	-0.050109	-16.6251	10.9654	51.5393
 426	1	1	0.154929	-15.7394	9.98347	51.032
 427	1	1	0.041555	-15.8611	10.4549	53.8122
 428	1	1	-0.223109	-14.974	9.49873	53.2894
 429	1	1	-0.080449	-14.9048	9.25425	51.9075
 430	1	5	-0.108008	-15.911	10.6799	55.318
 431	1	5	-0.182228	-13.9283	8.2049	51.385
 432	1	5	-0.345523	-17.5056	11.7588	50.5574
 433	1	7	0.155183	-19.7675	15.6639	50.5771
 434	1	7	0.172904	-18.8967	19.6489	52.1288
 435	1	7	0.158028	-16.9628	19.8078	50.5889
 436	1	7	0.153129	-21.7162	12.8332	53.7009
 437	1	7	0.142914	-22.3245	15.1877	53.2511
 438	1	7	0.135531	-18.0956	16.2487	53.181
 439	1	7	0.17765	-14.3374	8.93612	53.9671
 440	1	9	0.046541	-16.8896	10.394	55.7233
 441	1	9	0.045238	-15.7324	11.7335	55.5665
 442	1	9	0.051941	-15.151	10.0877	55.8425
 443	1	9	0.087961	-13.1692	8.66108	50.7356
 444	1	9	0.066782	-14.4488	7.42841	50.8096
 445	1	9	0.075908	-13.3962	7.70157	52.2021
 446	1	9	0.105172	-18.0634	12.5848	51.0066
 447	1	9	0.115625	-18.2498	11.1062	50.0816
 448	1	9	0.140296	-16.9037	12.2182	49.7611
 449	1	1	-0.004194	-10.5684	10.7423	40.3685
 450	1	1	-0.097141	-11.3258	10.9844	39.1896
 451	1	1	-0.172015	-10.7627	10.6071	37.9379
 452	1	2	-0.377994	-8.3437	10.2049	42.4907
 453	1	1	0.033493	-9.27198	10.229	40.2523
 454	1	1	-0.063739	-9.46412	10.0677	37.8442
 455	1	2	-0.398381	-6.56403	9.08637	38.3512
 456	1	1	0.032144	-8.73346	9.90939	39.0229
 457	1	3	0.032313	-8.23311	10.0023	41.2926
 458	1	4	0.461698	-7.10681	9.5783	40.5878
 459	1	3	0.091945	-7.33607	9.45503	39.2204
 460	1	1	-0.10563	-11.5964	14.5256	41.5955
 461	1	5	-0.099376	-12.749	11.6089	39.2988
 462	1	1	-0.043296	-12.74	12.6289	40.4798
 463	1	1	-0.073043	-11.7115	13.614	40.527
 464	1	1	-0.117827	-12.5408	14.4493	42.6226
 465	1	1	-0.037562	-13.6963	12.6101	41.5302
 466	1	1	-0.083705	-13.5633	13.5243	42.5824
 467	1	5	0.396	-13.7454	10.4037	39.4989
 468	1	5	0.310495	-13.1802	12.4295	38.0191
 469	1	6	-0.130298	-13.5933	9.4591	38.5425
 470	1	6	-0.128745	-15.0416	10.7887	39.4673
 471	1	6	-0.120019	-13.5331	9.77674	40.6758
 472	1	6	-0.104287	-14.2492	13.2177	38.2758
 473	1	6	-0.095507	-13.5253	11.6596	36.9628
 474	1	6	-0.104872	-12.1966	13.2528	37.5906
 475	1	3	0.456145	-14.3174	13.615	43.858
 476	1	3	0.550902	-12.6033	15.1596	43.9292
 477	1	4	0.015704	-13.6504	14.5632	44.6217
 478	1	2	-0.456801	-15.2381	12.8935	44.1986
 479	1	2	-0.487703	-11.7952	15.9743	44.341
 480	1	1	-0.116566	-13.8696	14.7123	46.0228
 481	1	1	-0.050109	-14.9555	15.4744	46.5179
 482	1	1	0.154929	-15.1852	15.5227	47.918
 483	1	1	0.041555	-13.0149	14.024	46.9122
 484	1	1	-0.223109	-13.2588	14.0809	48.2891
 485	1	1	-0.080449	-14.3395	14.8099	48.8007
 486	1	5	-0.108008	-11.8295	13.199	46.4214
 487	1	5	-0.182228	-14.5675	14.7988	50.3108
 488	1	5	-0.345523	-15.8632	16.2096	45.5263
 489	1	7	0.155183	-10.959	10.968	41.358
 490	1	7	0.172904	-11.322	10.7285	37.0163
 491	1	7	0.158028	-9.02696	9.80164	36.8842
 492	1	7	0.153129	-10.7776	15.2416	41.6432
 493	1	7	0.142914	-10.9611	13.6495	39.7415
 494	1	7	0.135531	-14.5054	11.8888	41.5758
 495	1	7	0.17765	-12.6142	13.5278	48.968
 496	1	9	0.046541	-12.1209	12.4935	45.6345
 497	1	9	0.045238	-11.3894	12.6134	47.2365
 498	1	9	0.051941	-11.0374	13.8466	46.0254
 499	1	9	0.087961	-13.8813	14.1113	50.8219
 500	1	9	0.066782	-15.5816	14.4651	50.5618
 501	1	9	0.075908	-14.4149	15.7941	50.747
 502	1	9	0.105172	-16.5649	16.9039	46.0012
 503	1	9	0.115625	-16.4595	15.4957	44.9424
 504	1	9	0.140296	-15.2703	16.8085	44.8227
 505	1	1	-0.004194	-1.5314	0.101553	39.8238
 506	1	1	-0.097141	-0.828795	1.02841	40.6479
 507	1	1	-0.172015	0.0327924	1.96104	39.9977
 508	1	2	-0.377994	-2.88595	-1.50361	37.54
 509	1	1	0.033493	-1.37152	0.15504	38.4346
 510	1	1	-0.063739	0.181001	1.99658	38.5942
 511	1	2	-0.398381	-0.100613	1.60368	35.5117
 512	1	1	0.032144	-0.54338	1.07711	37.8323
 513	1	3	0.032313	-2.05211	-0.629652	37.3719
 514	1	4	0.461698	-1.58787	-0.0983882	36.1695
 515	1	3	0.091945	-0.660591	0.92581	36.3573
 516	1	1	-0.10563	-2.03113	4.08998	44.4719
 517	1	5	-0.099376	-0.97371	1.07607	42.2117
 518	1	1	-0.043296	-1.51982	2.47011	42.6607
 519	1	1	-0.073043	-1.486	2.86551	44.0305
 520	1	1	-0.117827	-2.58922	4.94364	43.516
 521	1	1	-0.037562	-2.11617	3.36493	41.7308
 522	1	1	-0.083705	-2.60397	4.59782	42.1819
 523	1	5	0.396	0.461137	0.793729	42.8178
 524	1	5	0.310495	-1.98463	-0.00967463	42.7555
 525	1	6	-0.130298	1.26477	1.87784	42.7373
 526	1	6	-0.128745	1.08666	-0.208756	42.1594
 527	1	6	-0.120019	0.458502	0.439302	44.1218
 528	1	6	-0.104287	-2.15808	0.0351672	44.0956
 529	1	6	-0.095507	-1.5873	-1.27081	42.4707
 530	1	6	-0.104872	-3.22082	0.171421	42.2382
 531	1	3	0.456145	-3.17979	5.7335	41.4154
 532	1	3	0.550902	-3.20575	6.29279	43.6556
 533	1	4	0.015704	-3.49474	6.70595	42.3587
 534	1	2	-0.456801	-3.28629	5.79626	40.2029
 535	1	2	-0.487703	-3.3998	6.89091	44.7023
 536	1	1	-0.116566	-4.01739	7.99375	42.0259
 537	1	1	-0.050109	-5.34409	8.13074	41.5461
 538	1	1	0.154929	-5.81964	9.41201	41.1664
 539	1	1	0.041555	-3.18135	9.13022	42.1277
 540	1	1	-0.223109	-3.67831	10.3915	41.7706
 541	1	1	-0.080449	-4.98459	10.545	41.2884
 542	1	5	-0.108008	-1.72042	9.03177	42.5562
 543	1	5	-0.182228	-5.45281	11.9376	40.8735
 544	1	5	-0.345523	-6.23099	6.89212	41.3861
 545	1	7	0.155183	-2.21467	-0.644838	40.2114
 546	1	7	0.172904	0.573054	2.70228	40.5807
 547	1	7	0.158028	0.817875	2.73276	38.108
 548	1	7	0.153129	-2.00954	4.37058	45.5234
 549	1	7	0.142914	-1.05394	2.21289	44.7819
 550	1	7	0.135531	-2.207	3.13129	40.6743
 551	1	7	0.17765	-3.03147	11.2606	41.8584
 552	1	9	0.046541	-1.11808	8.55168	41.7752
 553	1	9	0.045238	-1.59886	8.45945	43.48
 554	1	9	0.051941	-1.28821	10.0228	42.7434
 555	1	9	0.087961	-4.68425	12.6974	41.0637
 556	1	9	0.066782	-6.34703	12.2398	41.4337
 557	1	9	0.075908	-5.68769	11.9759	39.8018
 558	1	9	0.105172	-7.29595	7.13118	41.4333
 559	1	9	0.115625	-6.05549	6.15066	42.1741
 560	1	9	0.140296	-6.03976	6.40178	40.4206
 561	1	1	-0.004194	0.0567022	-6.3097	25.9567
 562	1	1	-0.097141	1.133	-5.70442	26.6666
 563	1	1	-0.172015	1.84156	-4.66006	25.9952
 564	1	2	-0.377994	-1.79412	-7.55771	23.8052
 565	1	1	0.033493	-0.181327	-5.95784	24.6213
 566	1	1	-0.063739	1.53352	-4.26758	24.6738
 567	1	2	-0.398381	0.49479	-4.08523	21.7388
 568	1	1	0.032144	0.527686	-4.95739	23.996
 569	1	3	0.032313	-1.06783	-6.59645	23.6135
 570	1	4	0.461698	-0.830605	-5.91244	22.4173
 571	1	3	0.091945	0.0923893	-4.87738	22.575
 572	1	1	-0.10563	-0.711658	-6.39734	31.2409
 573	1	5	-0.099376	1.57746	-6.28541	28.0615
 574	1	1	-0.043296	0.541692	-5.89271	29.1603
 575	1	1	-0.073043	0.0841809	-6.81072	30.1519
 576	1	1	-0.117827	-1.0154	-5.03804	31.3579
 577	1	1	-0.037562	0.165647	-4.5295	29.2964
 578	1	1	-0.083705	-0.578052	-4.12983	30.4177
 579	1	5	0.396	2.97154	-5.71739	28.5645
 580	1	5	0.310495	1.75959	-7.85755	27.88
 581	1	6	-0.130298	3.98233	-6.00738	27.7143
 582	1	6	-0.128745	3.32011	-6.20202	29.7782
 583	1	6	-0.120019	2.97471	-4.37648	28.7374
 584	1	6	-0.104287	0.588912	-8.52526	27.7807
 585	1	6	-0.095507	2.42023	-8.46459	28.8911
 586	1	6	-0.104872	2.4528	-8.14386	26.7543
 587	1	3	0.456145	-0.953538	-2.76806	30.8904
 588	1	3	0.550902	-1.71834	-4.29381	32.4405
 589	1	4	0.015704	-1.62015	-2.9493	32.1001
 590	1	2	-0.456801	-0.678312	-1.71815	30.3359
 591	1	2	-0.487703	-2.23435	-4.78518	33.4297
 592	1	1	-0.116566	-2.14853	-1.87834	32.8929
 593	1	1	-0.050109	-1.55584	-1.5169	34.1334
 594	1	1	0.154929	-2.11933	-0.460058	34.898
 595	1	1	0.041555	-3.28869	-1.18267	32.4294
 596	1	1	-0.223109	-3.81577	-0.12538	33.1854
 597	1	1	-0.080449	-3.2459	0.242544	34.4125
 598	1	5	-0.108008	-3.98733	-1.56223	31.1276
 599	1	5	-0.182228	-3.87176	1.39565	35.1946
 600	1	5	-0.345523	-0.336049	-2.28222	34.6614
 601	1	7	0.155183	-0.552458	-7.09622	26.3853
 602	1	7	0.172904	2.68104	-4.15267	26.4539
 603	1	7	0.158028	2.10589	-3.49499	24.1645
 604	1	7	0.153129	-1.03332	-7.1042	32.0038
 605	1	7	0.142914	0.370272	-7.8557	30.1264
 606	1	7	0.135531	0.513189	-3.77735	28.5924
 607	1	7	0.17765	-4.68739	0.410301	32.8191
 608	1	9	0.046541	-3.3543	-1.34581	30.2589
 609	1	9	0.045238	-4.92227	-1.00496	30.992
 610	1	9	0.051941	-4.24145	-2.62925	31.1113
 611	1	9	0.087961	-3.17717	2.2426	35.2732
 612	1	9	0.066782	-4.15406	1.08755	36.2096
 613	1	9	0.075908	-4.7826	1.76897	34.7099
 614	1	9	0.105172	0.327496	-1.65312	35.2671
 615	1	9	0.115625	0.292365	-2.67725	33.8551
 616	1	9	0.140296	-0.654248	-3.13155	35.283
 617	1	1	-0.004194	0.105982	-12.1266	10.7152
 618	1	1	-0.097141	-0.103926	-11.3679	11.9011
 619	1	1	-0.172015	-1.42319	-10.8996	12.1683
 620	1	2	-0.377994	-0.154461	-13.9167	8.18026
 621	1	1	0.033493	-0.976606	-12.3834	9.86383
 622	1	1	-0.063739	-2.49455	-11.1496	11.2859
 623	1	2	-0.398381	-4.3924	-12.2716	9.10521
 624	1	1	0.032144	-2.2398	-11.9021	10.1379
 625	1	3	0.032313	-1.06425	-13.2702	8.67159
 626	1	4	0.461698	-2.41311	-13.2721	8.31674
 627	1	3	0.091945	-3.18508	-12.4464	9.13123
 628	1	1	-0.10563	0.163194	-7.57319	14.1485
 629	1	5	-0.099376	1.03412	-11.1826	12.9539
 630	1	1	-0.043296	0.690669	-9.98747	13.9118
 631	1	1	-0.073043	0.50112	-8.68925	13.3553
 632	1	1	-0.117827	-0.000420724	-7.76759	15.5234
 633	1	1	-0.037562	0.520662	-10.13	15.3201
 634	1	1	-0.083705	0.163945	-9.01285	16.0889
 635	1	5	0.396	2.42257	-10.8425	12.2741
 636	1	5	0.310495	1.15786	-12.5578	13.7194
 637	1	6	-0.130298	3.30037	-10.3375	13.1705
 638	1	6	-0.128745	2.29074	-9.92229	11.2928
 639	1	6	-0.120019	3.03757	-11.901	11.7023
 640	1	6	-0.104287	2.16003	-12.5533	14.6273
 641	1	6	-0.095507	1.39417	-13.6047	12.8965
 642	1	6	-0.104872	0.00926343	-12.8715	14.3613
 643	1	3	0.456145	-0.216423	-8.92007	17.5275
 644	1	3	0.550902	-0.471482	-6.83225	16.5819
 645	1	4	0.015704	-0.623676	-7.60502	17.7297
 646	1	2	-0.456801	-0.27459	-9.84898	18.3141
 647	1	2	-0.487703	-0.800255	-5.67108	16.4085
 648	1	1	-0.116566	-1.34341	-7.15383	18.8842
 649	1	1	-0.050109	-0.688266	-6.79525	20.0925