pySIMM System Object

2746 atoms
2990 bonds
5292 angles
7836 dihedrals
784 impropers

9 atom types
11 bond types
18 angle types
7 dihedral types
4 improper types

-223.280423 223.280423 xlo xhi
-223.280423 223.280423 ylo yhi
-223.280423 223.280423 zlo zhi

Masses

   1	12.01	# ca
   2	16.0	# o
   3	12.01	# c
   4	14.01	# n
   5	12.01	# c3
   6	19.0	# f
   7	1.008	# ha
   8	1.008	# hn
   9	1.008	# hc

Pair Coeffs

   1	0.086	3.3996695084235347	# ca
   2	0.21	2.959921901149463	# o
   3	0.086	3.3996695084235347	# c
   4	0.17	3.249998523775958	# n
   5	0.1094	3.3996695084235347	# c3
   6	0.061	3.1181455134911875	# f
   7	0.015	2.59964245953351	# ha
   8	0.0157	1.069078461768407	# hn
   9	0.0157	2.649532787749369	# hc

Bond Coeffs

   1	321.0	1.5156	# c3,ca
   2	300.9	1.5375	# c3,c3
   3	384.2	1.4121	# ca,n
   4	330.6	1.0969	# c3,hc
   5	637.7	1.2183	# c,o
   6	403.2	1.0129	# hn,n
   7	356.9	1.3497	# c3,f
   8	461.1	1.3984	# ca,ca
   9	427.6	1.3789	# c,n
  10	345.9	1.4906	# c,ca
  11	345.8	1.086	# ca,ha

Angle Coeffs

   1	70.89	107.36	# f,c3,f
   2	68.72	122.6	# ca,c,o
   3	67.87	120.19	# ca,ca,n
   4	67.68	115.25	# ca,c,n
   5	46.8	110.47	# ca,c3,hc
   6	74.22	123.05	# n,c,o
   7	48.33	117.55	# c,n,hn
   8	63.56	112.24	# ca,c3,ca
   9	62.86	111.51	# c3,c3,c3
  10	66.11	109.24	# c3,c3,f
  11	64.28	120.33	# c,ca,ca
  12	66.62	120.02	# ca,ca,ca
  13	63.74	127.08	# c,n,c
  14	39.4	107.58	# hc,c3,hc
  15	48.18	119.88	# ca,ca,ha
  16	63.15	112.07	# c3,c3,ca
  17	63.53	120.77	# c3,ca,ca
  18	63.82	123.71	# c,n,ca

Dihedral Coeffs

   1	2	2.5	2	180	2.0	1	0	# hn,n,c,o
   2	1	3.625	2	180	# X,ca,ca,X
   3	1	0.0	2	0	# X,c3,ca,X
   4	1	1.0	2	180	# X,c,ca,X
   5	1	0.15555555555555556	3	0	# X,c3,c3,X
   6	1	2.5	2	180	# X,c,n,X
   7	1	0.45	2	180	# X,ca,n,X

Improper Coeffs

   1	1.1	-1	2	# n,X,X,hn
   2	1.1	-1	2	# ca,ca,ca,c3
   3	1.1	-1	2	# ca,X,X,ha
   4	10.5	-1	2	# c,X,X,o

Atoms

   1	1	1	-0.004194	3.39419	7.7364	-37.4904
   2	1	1	-0.097141	3.26853	9.12791	-37.2397
   3	1	1	-0.172015	2.15738	9.81599	-37.8072
   4	1	2	-0.377994	3.33862	4.87455	-38.6473
   5	1	1	0.033493	2.49258	7.11593	-38.3553
   6	1	1	-0.063739	1.24539	9.1624	-38.6655
   7	1	2	-0.398381	-0.172154	7.18356	-40.624
   8	1	1	0.032144	1.45417	7.80811	-38.9415
   9	1	3	0.032313	2.52497	5.74401	-38.9119
  10	1	4	0.461698	1.49215	5.71089	-39.8453
  11	1	3	0.091945	0.771673	6.90288	-39.9035
  12	1	1	-0.10563	8.0051	8.33103	-36.6565
  13	1	5	-0.099376	4.38892	9.83297	-36.416
  14	1	1	-0.043296	5.74881	9.30096	-36.9641
  15	1	1	-0.073043	6.82884	8.90151	-36.1249
  16	1	1	-0.117827	8.09131	8.16705	-38.0431
  17	1	1	-0.037562	5.90979	9.17062	-38.3695
  18	1	1	-0.083705	7.07346	8.5831	-38.8738
  19	1	5	0.396	4.12339	9.4788	-34.9023
  20	1	5	0.310495	4.42458	11.3995	-36.5861
  21	1	6	-0.130298	4.32729	8.16527	-34.6532
  22	1	6	-0.128745	2.84218	9.73295	-34.5512
  23	1	6	-0.120019	4.90389	10.1723	-34.043
  24	1	6	-0.104287	3.38257	12.0253	-35.9935
  25	1	6	-0.095507	4.42184	11.7645	-37.8883
  26	1	6	-0.104872	5.54835	11.9302	-36.0524
  27	1	3	0.456145	7.43351	8.2273	-40.2713
  28	1	3	0.550902	9.14515	7.53574	-38.8843
  29	1	4	0.015704	8.6678	7.5954	-40.1887
  30	1	2	-0.456801	6.7435	8.41183	-41.2596
  31	1	2	-0.487703	10.1917	7.05442	-38.4834
  32	1	1	-0.116566	9.35028	7.03881	-41.3104
  33	1	1	-0.050109	10.4424	7.72639	-41.8863
  34	1	1	0.154929	11.1196	7.15887	-42.9826
  35	1	1	0.041555	8.9389	5.79428	-41.8424
  36	1	1	-0.223109	9.62769	5.24709	-42.9395
  37	1	1	-0.080449	10.7201	5.9195	-43.5101
  38	1	5	-0.108008	7.76287	5.02361	-41.2504
  39	1	5	-0.182228	11.4607	5.31206	-44.6911
  40	1	5	-0.345523	10.9024	9.0733	-41.3359
  41	1	7	0.155183	4.22194	7.15536	-37.0907
  42	1	7	0.172904	2.00206	10.8749	-37.6272
  43	1	7	0.158028	0.428222	9.70018	-39.1417
  44	1	7	0.153129	8.81365	7.99834	-36.0083
  45	1	7	0.142914	6.76748	9.00193	-35.0472
  46	1	7	0.135531	5.12477	9.4672	-39.0614
  47	1	7	0.17765	9.31323	4.29186	-43.3475
  48	1	9	0.046541	6.81801	5.55317	-41.4233
  49	1	9	0.045238	7.88144	4.88282	-40.1688
  50	1	9	0.051941	7.66343	4.02662	-41.6974
  51	1	9	0.087961	11.3513	4.22072	-44.7166
  52	1	9	0.066782	12.5347	5.53288	-44.6428
  53	1	9	0.075908	11.0789	5.71247	-45.6385
  54	1	9	0.105172	10.0705	9.78626	-41.282
  55	1	9	0.115625	11.6765	9.52614	-41.9686
  56	1	9	0.140296	11.3298	8.96049	-40.331
  57	1	1	-0.004194	7.1021	0.265874	-48.3737
  58	1	1	-0.097141	7.98019	1.38096	-48.3528
  59	1	1	-0.172015	8.74356	1.66259	-49.5226
  60	1	2	-0.377994	5.27564	-2.13691	-49.0927
  61	1	1	0.033493	6.97691	-0.479949	-49.5475
  62	1	1	-0.063739	8.60116	0.895063	-50.6979
  63	1	2	-0.398381	7.68492	-1.08621	-52.9212
  64	1	1	0.032144	7.6961	-0.168802	-50.6829
  65	1	3	0.032313	6.0781	-1.61954	-49.8527
  66	1	4	0.461698	6.31415	-1.91037	-51.1944
  67	1	3	0.091945	7.28344	-1.09215	-51.7694
  68	1	1	-0.10563	4.28338	3.1167	-47.1108
  69	1	5	-0.099376	8.06708	2.23359	-47.0536
  70	1	1	-0.043296	6.61214	2.47517	-46.5529
  71	1	1	-0.073043	5.61438	2.85895	-47.495
  72	1	1	-0.117827	3.95997	2.99236	-45.7572
  73	1	1	-0.037562	6.24114	2.37612	-45.186
  74	1	1	-0.083705	4.91266	2.63293	-44.8268
  75	1	5	0.396	8.69779	3.66411	-47.264
  76	1	5	0.310495	8.96205	1.41458	-46.0459
  77	1	6	-0.130298	10.0288	3.63374	-47.5004
  78	1	6	-0.128745	8.5169	4.44927	-46.1782
  79	1	6	-0.120019	8.12536	4.32082	-48.2986
  80	1	6	-0.104287	10.1187	1.01558	-46.6225
  81	1	6	-0.095507	8.3431	0.288027	-45.6262
  82	1	6	-0.104872	9.30592	2.11498	-44.9421
  83	1	3	0.456145	4.27535	2.64174	-43.4854
  84	1	3	0.550902	2.68083	3.24938	-45.0413
  85	1	4	0.015704	2.9591	3.03735	-43.6961
  86	1	2	-0.456801	4.83235	2.40196	-42.4279
  87	1	2	-0.487703	1.63512	3.61934	-45.5482
  88	1	1	-0.116566	2.03069	3.27897	-42.6392
  89	1	1	-0.050109	2.17016	4.42931	-41.8259
  90	1	1	0.154929	1.29175	4.61651	-40.7282
  91	1	1	0.041555	0.996313	2.35183	-42.3859
  92	1	1	-0.223109	0.109748	2.57409	-41.3199
  93	1	1	-0.080449	0.253408	3.69055	-40.4809
  94	1	5	-0.108008	0.825107	1.09975	-43.2383
  95	1	5	-0.182228	-0.711087	3.86626	-39.3118
  96	1	5	-0.345523	3.28983	5.44155	-42.116
  97	1	7	0.155183	6.49978	-0.00419545	-47.5096
  98	1	7	0.172904	9.44942	2.48667	-49.5497
  99	1	7	0.158028	9.16288	1.12716	-51.6006
 100	1	7	0.153129	3.53192	3.42116	-47.8372
 101	1	7	0.142914	5.87428	2.96959	-48.5448
 102	1	7	0.135531	6.94771	2.12327	-44.4027
 103	1	7	0.17765	-0.685648	1.85771	-41.1318
 104	1	9	0.046541	1.76628	0.54209	-43.3201
 105	1	9	0.045238	0.490243	1.3575	-44.2507
 106	1	9	0.051941	0.0805416	0.416944	-42.8109
 107	1	9	0.087961	-1.32044	4.77138	-39.4355
 108	1	9	0.066782	-0.173112	3.943	-38.3582
 109	1	9	0.075908	-1.4036	3.01952	-39.2248
 110	1	9	0.105172	3.04413	6.45924	-41.7907
 111	1	9	0.115625	3.50637	5.53008	-43.187
 112	1	9	0.140296	4.21963	5.14523	-41.6099
 113	1	1	-0.004194	6.56649	-12.356	-48.4606
 114	1	1	-0.097141	6.32807	-12.3666	-49.8619
 115	1	1	-0.172015	5.00318	-12.6312	-50.3121
 116	1	2	-0.377994	6.38287	-12.3091	-45.3653
 117	1	1	0.033493	5.5038	-12.6232	-47.5907
 118	1	1	-0.063739	3.95393	-12.9294	-49.4179
 119	1	2	-0.398381	2.15325	-13.3926	-46.9192
 120	1	1	0.032144	4.23892	-12.9234	-48.0514
 121	1	3	0.032313	5.46277	-12.5956	-46.1086
 122	1	4	0.461698	4.15216	-12.9198	-45.7678
 123	1	3	0.091945	3.34354	-13.1291	-46.883
 124	1	1	-0.10563	6.85459	-9.72856	-53.9802
 125	1	5	-0.099376	7.44258	-12.1072	-50.9234
 126	1	1	-0.043296	6.9879	-10.9161	-51.8114
 127	1	1	-0.073043	7.18809	-10.8717	-53.2217
 128	1	1	-0.117827	6.33194	-8.6197	-53.3061
 129	1	1	-0.037562	6.4462	-9.77147	-51.1746
 130	1	1	-0.083705	6.13867	-8.6458	-51.9421
 131	1	5	0.396	7.64658	-13.4625	-51.7146
 132	1	5	0.310495	8.83038	-11.6781	-50.3074
 133	1	6	-0.130298	6.60437	-13.7477	-52.5269
 134	1	6	-0.128745	7.76674	-14.5109	-50.869
 135	1	6	-0.120019	8.75014	-13.4797	-52.4957
 136	1	6	-0.104287	9.40188	-12.6619	-49.5795
 137	1	6	-0.095507	8.73741	-10.6002	-49.5012
 138	1	6	-0.104872	9.7149	-11.3233	-51.2659
 139	1	3	0.456145	5.65938	-7.31021	-51.5114
 140	1	3	0.550902	5.96553	-7.26178	-53.7978
 141	1	4	0.015704	5.58243	-6.54493	-52.6696
 142	1	2	-0.456801	5.50557	-6.94655	-50.359
 143	1	2	-0.487703	6.03429	-6.87195	-54.9519
 144	1	1	-0.116566	5.19952	-5.16836	-52.6742
 145	1	1	-0.050109	6.01595	-4.20714	-52.0246
 146	1	1	0.154929	5.5641	-2.86968	-51.9214
 147	1	1	0.041555	3.98106	-4.76957	-53.2769
 148	1	1	-0.223109	3.57291	-3.43058	-53.1949
 149	1	1	-0.080449	4.34008	-2.48011	-52.5086
 150	1	5	-0.108008	3.06302	-5.72326	-54.0362
 151	1	5	-0.182228	3.82982	-1.04421	-52.4219
 152	1	5	-0.345523	7.36926	-4.6099	-51.4192
 153	1	7	0.155183	7.53441	-12.1358	-48.0257
 154	1	7	0.172904	4.77726	-12.609	-51.3754
 155	1	7	0.158028	2.9464	-13.1399	-49.77
 156	1	7	0.153129	7.0301	-9.69113	-55.0538
 157	1	7	0.142914	7.63213	-11.7082	-53.7496
 158	1	7	0.135531	6.30722	-9.73117	-50.0977
 159	1	7	0.17765	2.63787	-3.13415	-53.6629
 160	1	9	0.046541	3.13289	-5.54085	-55.1156
 161	1	9	0.045238	2.01739	-5.57499	-53.74
 162	1	9	0.051941	3.29294	-6.7792	-53.8712
 163	1	9	0.087961	4.52586	-0.346716	-52.9059
 164	1	9	0.066782	3.69723	-0.730222	-51.3785
 165	1	9	0.075908	2.85859	-0.927554	-52.9189
 166	1	9	0.105172	8.1084	-3.80087	-51.4554
 167	1	9	0.115625	7.83279	-5.44405	-51.9593
 168	1	9	0.140296	7.25239	-4.91718	-50.3704
 169	1	1	-0.004194	5.64061	-21.3251	-35.9296
 170	1	1	-0.097141	5.30419	-20.0226	-36.3938
 171	1	1	-0.172015	4.07139	-19.4511	-35.9692
 172	1	2	-0.377994	5.789	-24.1062	-34.5151
 173	1	1	0.033493	4.74544	-21.9926	-35.0835
 174	1	1	-0.063739	3.18056	-20.1449	-35.1271
 175	1	2	-0.398381	1.75354	-22.183	-33.2673
 176	1	1	0.032144	3.54857	-21.421	-34.6985
 177	1	3	0.032313	4.85346	-23.3272	-34.4348
 178	1	4	0.461698	3.67625	-23.4678	-33.7017
 179	1	3	0.091945	2.83566	-22.3633	-33.8019
 180	1	1	-0.10563	3.60317	-18.6885	-40.0905
 181	1	5	-0.099376	6.25251	-19.1634	-37.2833
 182	1	1	-0.043296	5.40575	-18.4847	-38.4018
 183	1	1	-0.073043	4.39709	-19.2407	-39.0648
 184	1	1	-0.117827	3.84711	-17.3638	-40.4649
 185	1	1	-0.037562	5.63615	-17.1511	-38.8339
 186	1	1	-0.083705	4.84306	-16.6243	-39.8606
 187	1	5	0.396	7.35931	-20.0005	-38.0265
 188	1	5	0.310495	6.94803	-18.1355	-36.3082
 189	1	6	-0.130298	8.31202	-20.4833	-37.197
 190	1	6	-0.128745	7.99951	-19.253	-38.954
 191	1	6	-0.120019	6.82963	-21.052	-38.6901
 192	1	6	-0.104287	6.0786	-17.2002	-35.863
 193	1	6	-0.095507	7.98805	-17.4768	-36.8671
 194	1	6	-0.104872	7.43676	-18.7512	-35.2071
 195	1	3	0.456145	4.87489	-15.2814	-40.4983
 196	1	3	0.550902	3.19781	-16.5135	-41.5004
 197	1	4	0.015704	3.8658	-15.2964	-41.4531
 198	1	2	-0.456801	5.62998	-14.366	-40.2186
 199	1	2	-0.487703	2.26807	-16.8356	-42.2211
 200	1	1	-0.116566	3.54912	-14.1793	-42.2817
 201	1	1	-0.050109	4.00751	-14.1304	-43.6201
 202	1	1	0.154929	3.69568	-13.0007	-44.4224
 203	1	1	0.041555	2.78672	-13.1186	-41.7479
 204	1	1	-0.223109	2.49708	-12.0049	-42.5478
 205	1	1	-0.080449	2.94617	-11.932	-43.8745
 206	1	5	-0.108008	2.26978	-13.1497	-40.314
 207	1	5	-0.182228	2.60492	-10.6843	-44.6813
 208	1	5	-0.345523	4.82016	-15.3131	-44.1663
 209	1	7	0.155183	6.56701	-21.8249	-36.1936
 210	1	7	0.172904	3.79899	-18.4472	-36.2905
 211	1	7	0.158028	2.24025	-19.7029	-34.8041
 212	1	7	0.153129	2.83086	-19.2746	-40.5854
 213	1	7	0.142914	4.22295	-20.276	-38.7824
 214	1	7	0.135531	6.40904	-16.5225	-38.405
 215	1	7	0.17765	1.91765	-11.1853	-42.1315
 216	1	9	0.046541	3.09479	-13.0459	-39.5983
 217	1	9	0.045238	1.74619	-14.0896	-40.0996
 218	1	9	0.051941	1.56197	-12.3343	-40.1204
 219	1	9	0.087961	3.50168	-10.2419	-45.1263
 220	1	9	0.066782	2.14861	-9.90572	-44.0566
 221	1	9	0.075908	1.89002	-10.9135	-45.4819
 222	1	9	0.105172	5.62657	-15.5924	-43.4762
 223	1	9	0.115625	5.30922	-15.1171	-45.1253
 224	1	9	0.140296	4.1773	-16.1927	-44.309
 225	1	1	-0.004194	4.68185	-34.2104	-34.7828
 226	1	1	-0.097141	3.29902	-34.1774	-34.4465
 227	1	1	-0.172015	2.94898	-34.1809	-33.0646
 228	1	2	-0.377994	7.6914	-33.5409	-34.8769
 229	1	1	0.033493	5.62924	-34.116	-33.7555
 230	1	1	-0.063739	3.91833	-34.1426	-32.0462
 231	1	2	-0.398381	6.41894	-33.4204	-30.4167
 232	1	1	0.032144	5.25611	-34.0701	-32.427
 233	1	3	0.032313	7.05601	-33.7083	-33.8493
 234	1	4	0.461698	7.41504	-33.3622	-32.5472
 235	1	3	0.091945	6.41764	-33.6366	-31.6176
 236	1	1	-0.10563	-0.118696	-30.8048	-34.4989
 237	1	5	-0.099376	2.17956	-33.8381	-35.4853
 238	1	1	-0.043296	1.66154	-32.4343	-35.0543
 239	1	1	-0.073043	0.285292	-32.0752	-34.9756
 240	1	1	-0.117827	0.874194	-29.8938	-34.1092
 241	1	1	-0.037562	2.62614	-31.4602	-34.6888
 242	1	1	-0.083705	2.20736	-30.22	-34.216
 243	1	5	0.396	1.0913	-34.9882	-35.4422
 244	1	5	0.310495	2.69456	-33.6927	-36.9732
 245	1	6	-0.130298	0.392947	-35.0143	-34.2861
 246	1	6	-0.128745	1.66667	-36.2054	-35.5646
 247	1	6	-0.120019	0.162701	-34.8979	-36.42
 248	1	6	-0.104287	3.2063	-34.8478	-37.4542
 249	1	6	-0.095507	3.64966	-32.7449	-37.1098
 250	1	6	-0.104872	1.71115	-33.3068	-37.8169
 251	1	3	0.456145	3.02215	-29.0898	-33.7159
 252	1	3	0.550902	0.792351	-28.5212	-33.526
 253	1	4	0.015704	2.11154	-28.1251	-33.3167
 254	1	2	-0.456801	4.2385	-29.0592	-33.6384
 255	1	2	-0.487703	-0.228369	-27.9072	-33.2668
 256	1	1	-0.116566	2.52378	-26.8973	-32.7201
 257	1	1	-0.050109	2.81833	-25.7692	-33.5231
 258	1	1	0.154929	3.36186	-24.6087	-32.9156
 259	1	1	0.041555	2.74579	-26.8565	-31.3265
 260	1	1	-0.223109	3.27409	-25.6965	-30.7403
 261	1	1	-0.080449	3.59412	-24.5757	-31.5212
 262	1	5	-0.108008	2.45194	-28.0627	-30.4413
 263	1	5	-0.182228	4.18837	-23.3478	-30.837
 264	1	5	-0.345523	2.59608	-25.8206	-35.0409
 265	1	7	0.155183	5.04247	-34.1519	-35.8035
 266	1	7	0.172904	1.91213	-34.0856	-32.7581
 267	1	7	0.158028	3.6379	-34.0325	-31.0006
 268	1	7	0.153129	-1.17232	-30.5426	-34.4197
 269	1	7	0.142914	-0.488729	-32.7782	-35.2661
 270	1	7	0.135531	3.69269	-31.6596	-34.7383
 271	1	7	0.17765	3.448	-25.6749	-29.6677
 272	1	9	0.046541	2.59367	-27.8311	-29.3785
 273	1	9	0.045238	3.11733	-28.9004	-30.6851
 274	1	9	0.051941	1.41544	-28.4007	-30.5642
 275	1	9	0.087961	3.48369	-22.5057	-30.8582
 276	1	9	0.066782	5.11786	-23.0275	-31.3245
 277	1	9	0.075908	4.42626	-23.5451	-29.7841
 278	1	9	0.105172	1.82628	-26.543	-35.3343
 279	1	9	0.115625	3.525	-26.0983	-35.5581
 280	1	9	0.140296	2.25758	-24.8601	-35.4481
 281	1	1	-0.004194	9.36893	-23.2639	-35.0595
 282	1	1	-0.097141	10.2738	-22.8398	-34.0487
 283	1	1	-0.172015	11.5915	-22.4625	-34.4411
 284	1	2	-0.377994	7.87842	-23.9343	-37.7141
 285	1	1	0.033493	9.80113	-23.3004	-36.3907
 286	1	1	-0.063739	12.0146	-22.5387	-35.7827
 287	1	2	-0.398381	12.2757	-22.9511	-38.8437
 288	1	1	0.032144	11.0943	-22.9697	-36.7374
 289	1	3	0.032313	9.06318	-23.6551	-37.6313
 290	1	4	0.461698	10.004	-23.5458	-38.6575
 291	1	3	0.091945	11.2563	-23.1415	-38.2005
 292	1	1	-0.10563	7.72202	-25.6606	-30.8819
 293	1	5	-0.099376	9.78375	-22.7984	-32.5681
 294	1	1	-0.043296	9.22082	-24.2031	-32.2057
 295	1	1	-0.073043	8.13026	-24.3797	-31.307
 296	1	1	-0.117827	8.42243	-26.7695	-31.3667
 297	1	1	-0.037562	9.88722	-25.361	-32.6886
 298	1	1	-0.083705	9.46079	-26.624	-32.2612
 299	1	5	0.396	8.71906	-21.6334	-32.4735
 300	1	5	0.310495	10.933	-22.523	-31.5218
 301	1	6	-0.130298	7.55543	-21.9558	-33.0792
 302	1	6	-0.128745	9.16414	-20.51	-33.081
 303	1	6	-0.120019	8.4034	-21.2791	-31.2074
 304	1	6	-0.104287	11.4444	-21.2744	-31.6167
 305	1	6	-0.095507	11.9584	-23.3955	-31.6548
 306	1	6	-0.104872	10.5022	-22.6669	-30.2476
 307	1	3	0.456145	9.99441	-27.9762	-32.579
 308	1	3	0.550902	8.2787	-28.2164	-31.0531
 309	1	4	0.015704	9.24359	-28.8672	-31.8179
 310	1	2	-0.456801	10.9112	-28.2231	-33.3444
 311	1	2	-0.487703	7.49926	-28.6984	-30.2478
 312	1	1	-0.116566	9.41891	-30.2882	-31.8263
 313	1	1	-0.050109	8.39246	-31.1261	-32.3293
 314	1	1	0.154929	8.52405	-32.536	-32.2223
 315	1	1	0.041555	10.5877	-30.8628	-31.2743
 316	1	1	-0.223109	10.7265	-32.2602	-31.236
 317	1	1	-0.080449	9.70073	-33.1041	-31.6896
 318	1	5	-0.108008	11.7093	-30.0101	-30.6901
 319	1	5	-0.182228	9.86897	-34.6149	-31.5652
 320	1	5	-0.345523	7.12137	-30.5086	-32.9371
 321	1	7	0.155183	8.35251	-23.5696	-34.8232
 322	1	7	0.172904	12.32	-22.1083	-33.7205
 323	1	7	0.158028	13.0247	-22.2635	-36.0782
 324	1	7	0.153129	6.90181	-25.7878	-30.1784
 325	1	7	0.142914	7.60537	-23.5272	-30.8934
 326	1	7	0.135531	10.7458	-25.2897	-33.3519
 327	1	7	0.17765	11.6296	-32.6921	-30.8133
 328	1	9	0.046541	12.3438	-30.5925	-30.011
 329	1	9	0.045238	11.3197	-29.163	-30.1127
 330	1	9	0.051941	12.3544	-29.6156	-31.4848
 331	1	9	0.087961	9.73704	-35.111	-32.5356
 332	1	9	0.066782	9.13979	-35.0376	-30.8617
 333	1	9	0.075908	10.8677	-34.8833	-31.1986
 334	1	9	0.105172	7.28318	-29.5012	-33.3371
 335	1	9	0.115625	6.32075	-30.4345	-32.1881
 336	1	9	0.140296	6.7346	-31.076	-33.7906
 337	1	1	-0.004194	9.84621	-18.1597	-49.072
 338	1	1	-0.097141	9.56205	-16.9918	-48.3171
 339	1	1	-0.172015	10.0972	-15.7529	-48.772
 340	1	2	-0.377994	10.946	-20.3206	-51.0073
 341	1	1	0.033493	10.6509	-18.0586	-50.2101
 342	1	1	-0.063739	10.9044	-15.6742	-49.926
 343	1	2	-0.398381	12.6452	-16.2468	-52.4512
 344	1	1	0.032144	11.1667	-16.8502	-50.6294
 345	1	3	0.032313	11.1688	-19.125	-51.1004
 346	1	4	0.461698	11.9956	-18.4663	-52.0077
 347	1	3	0.091945	12.029	-17.0871	-51.8156
 348	1	1	-0.10563	11.3467	-19.4405	-45.3411
 349	1	5	-0.099376	8.71065	-17.1324	-47.0188
 350	1	1	-0.043296	9.31464	-18.3013	-46.186
 351	1	1	-0.073043	10.7316	-18.4183	-46.0902
 352	1	1	-0.117827	10.5203	-20.3402	-44.6628
 353	1	1	-0.037562	8.51397	-19.2261	-45.4639
 354	1	1	-0.083705	9.14591	-20.2284	-44.7158
 355	1	5	0.396	7.22217	-17.3785	-47.4831
 356	1	5	0.310495	8.75261	-15.8654	-46.0836
 357	1	6	-0.130298	6.83511	-16.4694	-48.4074
 358	1	6	-0.128745	6.32007	-17.3036	-46.4794
 359	1	6	-0.120019	7.06865	-18.593	-48.0563
 360	1	6	-0.104287	8.12231	-14.795	-46.6182
 361	1	6	-0.095507	10.0208	-15.492	-45.8026
 362	1	6	-0.104872	8.16657	-16.106	-44.8886
 363	1	3	0.456145	8.56414	-21.2817	-43.841
 364	1	3	0.550902	10.8639	-21.475	-43.7642
 365	1	4	0.015704	9.64852	-21.9672	-43.3068
 366	1	2	-0.456801	7.37953	-21.4557	-43.6119
 367	1	2	-0.487703	11.988	-21.8477	-43.4731
 368	1	1	-0.116566	9.54254	-23.0152	-42.345
 369	1	1	-0.050109	9.72955	-22.7332	-40.9711
 370	1	1	0.154929	9.72766	-23.7974	-40.0314
 371	1	1	0.041555	9.31737	-24.3386	-42.7771
 372	1	1	-0.223109	9.30106	-25.3794	-41.8364
 373	1	1	-0.080449	9.5196	-25.1265	-40.4725
 374	1	5	-0.108008	9.12216	-24.6676	-44.2526
 375	1	5	-0.182228	9.55588	-26.3117	-39.5107
 376	1	5	-0.345523	9.98258	-21.283	-40.5384
 377	1	7	0.155183	9.48612	-19.1382	-48.7648
 378	1	7	0.172904	9.92694	-14.8325	-48.2262
 379	1	7	0.158028	11.341	-14.735	-50.2498
 380	1	7	0.153129	12.4305	-19.5187	-45.2744
 381	1	7	0.142914	11.3729	-17.7004	-46.5977
 382	1	7	0.135531	7.43033	-19.1785	-45.4549
 383	1	7	0.17765	9.14299	-26.3998	-42.1756
 384	1	9	0.046541	8.24159	-24.1531	-44.6573
 385	1	9	0.045238	8.97534	-25.7427	-44.4136
 386	1	9	0.051941	9.99595	-24.3646	-44.843
 387	1	9	0.087961	10.4627	-26.3032	-38.8922
 388	1	9	0.066782	9.54557	-27.2695	-40.0458
 389	1	9	0.075908	8.6854	-26.3074	-38.8419
 390	1	9	0.105172	9.81757	-21.1119	-39.4706
 391	1	9	0.115625	9.31962	-20.5806	-41.059
 392	1	9	0.140296	11.0212	-20.9934	-40.7528
 393	1	1	-0.004194	19.6586	-18.121	-49.6074
 394	1	1	-0.097141	20.9961	-18.2463	-50.0714
 395	1	1	-0.172015	21.7281	-17.0559	-50.3458
 396	1	2	-0.377994	16.7116	-17.2817	-49.2032
 397	1	1	0.033493	19.0618	-16.8604	-49.5842
 398	1	1	-0.063739	21.1159	-15.7855	-50.2767
 399	1	2	-0.398381	19.0681	-13.4406	-50.3186
 400	1	1	0.032144	19.7639	-15.7238	-49.9265
 401	1	3	0.032313	17.628	-16.51	-49.435
 402	1	4	0.461698	17.5609	-15.154	-49.7431
 403	1	3	0.091945	18.8084	-14.5896	-50.0013
 404	1	1	-0.10563	18.792	-22.3177	-51.2569
 405	1	5	-0.099376	21.5429	-19.6767	-50.3729
 406	1	1	-0.043296	20.392	-20.4394	-51.0994
 407	1	1	-0.073043	19.9835	-21.758	-50.7487
 408	1	1	-0.117827	18.0171	-21.5415	-52.1258
 409	1	1	-0.037562	19.6345	-19.7399	-52.0765
 410	1	1	-0.083705	18.4386	-20.2949	-52.5359
 411	1	5	0.396	21.9524	-20.2999	-48.9845
 412	1	5	0.310495	22.779	-19.7046	-51.3491
 413	1	6	-0.130298	22.6024	-21.48	-49.0984
 414	1	6	-0.128745	20.8759	-20.5113	-48.1936
 415	1	6	-0.120019	22.769	-19.4732	-48.2926
 416	1	6	-0.104287	23.0508	-20.9622	-51.766
 417	1	6	-0.095507	23.9139	-19.2292	-50.7885
 418	1	6	-0.104872	22.5522	-18.9806	-52.4686
 419	1	3	0.456145	17.3321	-19.6441	-53.283
 420	1	3	0.550902	16.6235	-21.739	-52.6095
 421	1	4	0.015704	16.2751	-20.5425	-53.2256
 422	1	2	-0.456801	17.3202	-18.4931	-53.6865
 423	1	2	-0.487703	15.9051	-22.6906	-52.3552
 424	1	1	-0.116566	14.9339	-20.1916	-53.5542
 425	1	1	-0.050109	14.1378	-19.4892	-52.6157
 426	1	1	0.154929	12.8049	-19.1498	-52.9539
 427	1	1	0.041555	14.4018	-20.5536	-54.8094
 428	1	1	-0.223109	13.0784	-20.2081	-55.1276
 429	1	1	-0.080449	12.2739	-19.5099	-54.2124
 430	1	5	-0.108008	15.239	-21.3165	-55.8288
 431	1	5	-0.182228	10.8397	-19.1626	-54.5986
 432	1	5	-0.345523	14.7017	-19.0768	-51.2454
 433	1	7	0.155183	19.044	-18.9924	-49.3941
 434	1	7	0.172904	22.7609	-17.0962	-50.6778
 435	1	7	0.158028	21.6512	-14.8823	-50.5631
 436	1	7	0.153129	18.4383	-23.2899	-50.9184
 437	1	7	0.142914	20.5417	-22.3437	-50.0268
 438	1	7	0.135531	19.8913	-18.7255	-52.3741
 439	1	7	0.17765	12.6711	-20.492	-56.094
 440	1	9	0.046541	15.5349	-22.2977	-55.4367
 441	1	9	0.045238	16.1503	-20.7614	-56.0839
 442	1	9	0.051941	14.6879	-21.4888	-56.7613
 443	1	9	0.087961	10.6706	-18.0785	-54.5643
 444	1	9	0.066782	10.1206	-19.6432	-53.9223
 445	1	9	0.075908	10.6003	-19.4962	-55.6161
 446	1	9	0.105172	15.6151	-19.608	-50.9597
 447	1	9	0.115625	13.9928	-19.2733	-50.4314
 448	1	9	0.140296	14.9397	-18.0038	-51.2286
 449	1	1	-0.004194	8.35036	-9.98936	-45.0998
 450	1	1	-0.097141	8.72554	-10.2477	-43.7525
 451	1	1	-0.172015	7.88168	-9.75083	-42.7183
 452	1	2	-0.377994	7.05743	-9.02515	-47.762
 453	1	1	0.033493	7.20832	-9.2217	-45.3571
 454	1	1	-0.063739	6.71667	-9.00886	-42.9996
 455	1	2	-0.398381	4.34881	-7.48953	-44.3194
 456	1	1	0.032144	6.40887	-8.75308	-44.3363
 457	1	3	0.032313	6.62107	-8.78281	-46.6501
 458	1	4	0.461698	5.48129	-8.05567	-46.3046
 459	1	3	0.091945	5.2695	-8.0103	-44.9281
 460	1	1	-0.10563	12.33	-9.70161	-46.1709
 461	1	5	-0.099376	9.97081	-11.1274	-43.4215
 462	1	1	-0.043296	10.97	-11.0837	-44.6236
 463	1	1	-0.073043	11.429	-9.81903	-45.0934
 464	1	1	-0.117827	12.7739	-10.877	-46.7827
 465	1	1	-0.037562	11.4597	-12.2505	-45.273
 466	1	1	-0.083705	12.3446	-12.1125	-46.3479
 467	1	5	0.396	9.4344	-12.5788	-43.1133
 468	1	5	0.310495	10.7679	-10.5973	-42.1632
 469	1	6	-0.130298	8.47297	-12.5942	-42.163
 470	1	6	-0.128745	10.4095	-13.4124	-42.6838
 471	1	6	-0.120019	8.87406	-13.1358	-44.206
 472	1	6	-0.104287	12.0137	-11.1226	-42.1109
 473	1	6	-0.095507	10.1912	-10.889	-40.9762
 474	1	6	-0.104872	10.917	-9.25389	-42.191
 475	1	3	0.456145	12.9638	-13.1503	-47.2132
 476	1	3	0.550902	13.6952	-11.0824	-47.9326
 477	1	4	0.015704	13.7525	-12.458	-48.1225
 478	1	2	-0.456801	12.7375	-14.3478	-47.1775
 479	1	2	-0.487703	14.2338	-10.206	-48.5859
 480	1	1	-0.116566	14.4705	-13.0978	-49.1759
 481	1	1	-0.050109	15.6822	-13.7803	-48.9069
 482	1	1	0.154929	16.3392	-14.4651	-49.9605
 483	1	1	0.041555	13.9403	-13.0795	-50.4845
 484	1	1	-0.223109	14.5937	-13.7757	-51.5088
 485	1	1	-0.080449	15.7808	-14.4768	-51.2597
 486	1	5	-0.108008	12.6695	-12.3159	-50.8283
 487	1	5	-0.182228	16.4369	-15.2295	-52.415
 488	1	5	-0.345523	16.2509	-13.7789	-47.4822
 489	1	7	0.155183	8.90963	-10.3836	-45.9421
 490	1	7	0.172904	8.09617	-9.96612	-41.6767
 491	1	7	0.158028	6.06683	-8.64939	-42.2048
 492	1	7	0.153129	12.667	-8.72823	-46.5231
 493	1	7	0.142914	11.0702	-8.90572	-44.6268
 494	1	7	0.135531	11.1798	-13.2541	-44.9755
 495	1	7	0.17765	14.1662	-13.7811	-52.5086
 496	1	9	0.046541	11.9231	-12.3945	-50.0324
 497	1	9	0.045238	12.2074	-12.6972	-51.7476
 498	1	9	0.051941	12.8877	-11.2518	-50.9827
 499	1	9	0.087961	15.7934	-15.2499	-53.3041
 500	1	9	0.066782	16.6384	-16.2756	-52.1531
 501	1	9	0.075908	17.3852	-14.7613	-52.7086
 502	1	9	0.105172	17.3093	-14.0581	-47.4325
 503	1	9	0.115625	15.6964	-14.48	-46.8435
 504	1	9	0.140296	16.1863	-12.7827	-47.0265
 505	1	1	-0.004194	-4.77034	-11.8375	-49.4086
 506	1	1	-0.097141	-4.14192	-10.8024	-50.1551
 507	1	1	-0.172015	-4.31975	-9.46051	-49.7082
 508	1	2	-0.377994	-6.29771	-13.6093	-47.3826
 509	1	1	0.033493	-5.48472	-11.509	-48.2534
 510	1	1	-0.063739	-5.02677	-9.15346	-48.5252
 511	1	2	-0.398381	-6.59894	-9.24425	-45.8287
 512	1	1	0.032144	-5.59239	-10.2096	-47.8067
 513	1	3	0.032313	-6.19023	-12.3972	-47.2981
 514	1	4	0.461698	-6.65976	-11.5528	-46.2934
 515	1	3	0.091945	-6.34442	-10.2137	-46.5241
 516	1	1	-0.10563	0.041495	-9.3929	-52.5533
 517	1	5	-0.099376	-3.31408	-11.0774	-51.4546
 518	1	1	-0.043296	-1.94993	-10.3174	-51.3985
 519	1	1	-0.073043	-1.2177	-10.0249	-52.5868
 520	1	1	-0.117827	0.557822	-9.02687	-51.3085
 521	1	1	-0.037562	-1.36181	-9.96158	-50.1539
 522	1	1	-0.083705	-0.135545	-9.28436	-50.1459
 523	1	5	0.396	-4.21953	-10.5961	-52.6559
 524	1	5	0.310495	-2.95575	-12.6021	-51.6437
 525	1	6	-0.130298	-4.24344	-9.247	-52.745
 526	1	6	-0.128745	-5.50221	-10.998	-52.5034
 527	1	6	-0.120019	-3.82582	-11.0584	-53.8636
 528	1	6	-0.104287	-2.10018	-12.8123	-52.6698
 529	1	6	-0.095507	-4.03847	-13.3706	-51.9002
 530	1	6	-0.104872	-2.34156	-13.0987	-50.5459
 531	1	3	0.456145	0.641395	-8.71648	-49.0122
 532	1	3	0.550902	1.82473	-8.3342	-50.9548
 533	1	4	0.015704	1.78007	-8.15267	-49.5784
 534	1	2	-0.456801	0.311953	-8.73009	-47.8386
 535	1	2	-0.487703	2.71244	-8.03251	-51.7332
 536	1	1	-0.116566	2.76568	-7.43677	-48.8329
 537	1	1	-0.050109	3.67471	-8.13138	-47.9999
 538	1	1	0.154929	4.6223	-7.4018	-47.2333
 539	1	1	0.041555	2.82264	-6.02806	-48.9271
 540	1	1	-0.223109	3.78522	-5.32322	-48.1906
 541	1	1	-0.080449	4.68213	-5.99214	-47.3447
 542	1	5	-0.108008	1.8776	-5.24223	-49.8293
 543	1	5	-0.182228	5.70862	-5.1628	-46.5777
 544	1	5	-0.345523	3.62254	-9.66047	-47.9797
 545	1	7	0.155183	-4.71636	-12.8852	-49.6796
 546	1	7	0.172904	-3.87463	-8.64066	-50.2685
 547	1	7	0.158028	-5.12848	-8.12989	-48.1704
 548	1	7	0.153129	0.59454	-9.18608	-53.4677
 549	1	7	0.142914	-1.60119	-10.3108	-53.5593
 550	1	7	0.135531	-1.83895	-10.1896	-49.2044
 551	1	7	0.17765	3.84182	-4.24214	-48.2857
 552	1	9	0.046541	0.835255	-5.55176	-49.6863
 553	1	9	0.045238	2.13853	-5.38451	-50.885
 554	1	9	0.051941	1.92718	-4.16562	-49.6241
 555	1	9	0.087961	5.75443	-4.13244	-46.954
 556	1	9	0.066782	6.71801	-5.58215	-46.6735
 557	1	9	0.075908	5.45603	-5.10954	-45.5108
 558	1	9	0.105172	4.41389	-10.115	-47.3817
 559	1	9	0.115625	3.73698	-10.0567	-48.9964
 560	1	9	0.140296	2.66606	-10.021	-47.5819
 561	1	1	-0.004194	-14.8553	-12.9998	-39.3873
 562	1	1	-0.097141	-15.5633	-11.7789	-39.5398
 563	1	1	-0.172015	-15.6649	-10.9145	-38.4117
 564	1	2	-0.377994	-13.1317	-15.4069	-38.4863
 565	1	1	0.033493	-14.2433	-13.2866	-38.167
 566	1	1	-0.063739	-15.0459	-11.231	-37.1815
 567	1	2	-0.398381	-13.4255	-12.5412	-34.8459
 568	1	1	0.032144	-14.328	-12.4273	-37.092
 569	1	3	0.032313	-13.4255	-14.4587	-37.7776
 570	1	4	0.461698	-13.0695	-14.2233	-36.4529
 571	1	3	0.091945	-13.5671	-13.0187	-35.9595
 572	1	1	-0.10563	-14.3127	-13.0944	-43.9649
 573	1	5	-0.099376	-16.1838	-11.4538	-40.9313
 574	1	1	-0.043296	-15.1035	-11.8273	-41.9907
 575	1	1	-0.073043	-15.355	-12.6679	-43.114
 576	1	1	-0.117827	-13.0142	-12.651	-43.6915
 577	1	1	-0.037562	-13.7788	-11.3607	-41.7873
 578	1	1	-0.083705	-12.7639	-11.7886	-42.6466
 579	1	5	0.396	-16.5269	-9.9287	-41.1474
 580	1	5	0.310495	-17.5106	-12.2999	-41.0394
 581	1	6	-0.130298	-17.5901	-9.5087	-40.4253
 582	1	6	-0.128745	-16.8127	-9.66801	-42.4433
 583	1	6	-0.120019	-15.492	-9.12195	-40.8217
 584	1	6	-0.104287	-17.2639	-13.6296	-41.0545
 585	1	6	-0.095507	-18.2333	-12.0154	-42.1462
 586	1	6	-0.104872	-18.3232	-12.09	-39.9787
 587	1	3	0.456145	-11.3034	-11.5324	-42.5894
 588	1	3	0.550902	-11.7119	-12.9979	-44.3254
 589	1	4	0.015704	-10.7458	-12.3097	-43.5978
 590	1	2	-0.456801	-10.7327	-10.8273	-41.7749
 591	1	2	-0.487703	-11.5501	-13.761	-45.2628
 592	1	1	-0.116566	-9.33715	-12.4368	-43.8027
 593	1	1	-0.050109	-8.71809	-11.8916	-44.9562
 594	1	1	0.154929	-7.31355	-12.0286	-45.1224
 595	1	1	0.041555	-8.56286	-13.116	-42.8336
 596	1	1	-0.223109	-7.17508	-13.2152	-43.0001
 597	1	1	-0.080449	-6.54166	-12.6752	-44.1277
 598	1	5	-0.108008	-9.18888	-13.7605	-41.5992
 599	1	5	-0.182228	-5.02621	-12.822	-44.2464
 600	1	5	-0.345523	-9.58045	-11.1948	-46.0188
 601	1	7	0.155183	-14.7562	-13.7116	-40.2032
 602	1	7	0.172904	-16.2179	-9.98215	-38.4681
 603	1	7	0.158028	-15.1142	-10.5661	-36.3229
 604	1	7	0.153129	-14.5037	-13.775	-44.7927
 605	1	7	0.142914	-16.352	-13.0368	-43.3276
 606	1	7	0.135531	-13.524	-10.7241	-40.9431
 607	1	7	0.17765	-6.58529	-13.7289	-42.2459
 608	1	9	0.046541	-9.43094	-13.0064	-40.8404
 609	1	9	0.045238	-8.50803	-14.4837	-41.1337
 610	1	9	0.051941	-10.1083	-14.3045	-41.8481
 611	1	9	0.087961	-4.54118	-11.8556	-44.4346
 612	1	9	0.066782	-4.7556	-13.5067	-45.0604
 613	1	9	0.075908	-4.58434	-13.2272	-43.3274
 614	1	9	0.105172	-9.0229	-10.4866	-46.6404
 615	1	9	0.115625	-10.3881	-10.6062	-45.5672
 616	1	9	0.140296	-10.0389	-11.9334	-46.6913
 617	1	1	-0.004194	-16.6803	-24.6486	-29.9922
 618	1	1	-0.097141	-15.7942	-24.0024	-30.8954
 619	1	1	-0.172015	-14.4157	-24.3567	-30.857
 620	1	2	-0.377994	-18.0619	-26.4041	-27.8413
 621	1	1	0.033493	-16.1649	-25.5947	-29.101
 622	1	1	-0.063739	-13.9191	-25.3204	-29.9548
 623	1	2	-0.398381	-13.5616	-27.5418	-27.797
 624	1	1	0.032144	-14.826	-25.9283	-29.0841
 625	1	3	0.032313	-16.8688	-26.4245	-28.093
 626	1	4	0.461698	-15.88	-27.2295	-27.5329
 627	1	3	0.091945	-14.6166	-26.9934	-28.07
 628	1	1	-0.10563	-14.0516	-20.0692	-30.7095
 629	1	5	-0.099376	-16.2809	-22.9882	-31.972
 630	1	1	-0.043296	-15.2917	-21.7864	-31.995
 631	1	1	-0.073043	-14.885	-21.2051	-30.7605
 632	1	1	-0.117827	-13.6229	-19.5185	-31.9206
 633	1	1	-0.037562	-14.8314	-21.1932	-33.2004
 634	1	1	-0.083705	-13.9956	-20.0729	-33.1271
 635	1	5	0.396	-17.7045	-22.3754	-31.6727
 636	1	5	0.310495	-16.341	-23.7878	-33.3312