pySIMM System Object

898 atoms
977 bonds
1728 angles
2556 dihedrals
256 impropers

9 atom types
11 bond types
18 angle types
7 dihedral types
4 improper types

-151.519079 151.519079 xlo xhi
-151.519079 151.519079 ylo yhi
-151.519079 151.519079 zlo zhi

Masses

   1	12.01	# ca
   2	16.0	# o
   3	12.01	# c
   4	14.01	# n
   5	12.01	# c3
   6	19.0	# f
   7	1.008	# ha
   8	1.008	# hn
   9	1.008	# hc

Pair Coeffs

   1	0.086	3.3996695084235347	# ca
   2	0.21	2.959921901149463	# o
   3	0.086	3.3996695084235347	# c
   4	0.17	3.249998523775958	# n
   5	0.1094	3.3996695084235347	# c3
   6	0.061	3.1181455134911875	# f
   7	0.015	2.59964245953351	# ha
   8	0.0157	1.069078461768407	# hn
   9	0.0157	2.649532787749369	# hc

Bond Coeffs

   1	321.0	1.5156	# c3,ca
   2	300.9	1.5375	# c3,c3
   3	384.2	1.4121	# ca,n
   4	330.6	1.0969	# c3,hc
   5	637.7	1.2183	# c,o
   6	403.2	1.0129	# hn,n
   7	356.9	1.3497	# c3,f
   8	461.1	1.3984	# ca,ca
   9	427.6	1.3789	# c,n
  10	345.9	1.4906	# c,ca
  11	345.8	1.086	# ca,ha

Angle Coeffs

   1	70.89	107.36	# f,c3,f
   2	68.72	122.6	# ca,c,o
   3	67.87	120.19	# ca,ca,n
   4	67.68	115.25	# ca,c,n
   5	46.8	110.47	# ca,c3,hc
   6	74.22	123.05	# n,c,o
   7	48.33	117.55	# c,n,hn
   8	63.56	112.24	# ca,c3,ca
   9	62.86	111.51	# c3,c3,c3
  10	66.11	109.24	# c3,c3,f
  11	64.28	120.33	# c,ca,ca
  12	66.62	120.02	# ca,ca,ca
  13	63.74	127.08	# c,n,c
  14	39.4	107.58	# hc,c3,hc
  15	48.18	119.88	# ca,ca,ha
  16	63.15	112.07	# c3,c3,ca
  17	63.53	120.77	# c3,ca,ca
  18	63.82	123.71	# c,n,ca

Dihedral Coeffs

   1	2	2.5	2	180	2.0	1	0	# hn,n,c,o
   2	1	3.625	2	180	# X,ca,ca,X
   3	1	0.0	2	0	# X,c3,ca,X
   4	1	1.0	2	180	# X,c,ca,X
   5	1	0.15555555555555556	3	0	# X,c3,c3,X
   6	1	2.5	2	180	# X,c,n,X
   7	1	0.45	2	180	# X,ca,n,X

Improper Coeffs

   1	1.1	-1	2	# n,X,X,hn
   2	1.1	-1	2	# ca,ca,ca,c3
   3	1.1	-1	2	# ca,X,X,ha
   4	10.5	-1	2	# c,X,X,o

Atoms

   1	1	1	-0.004194	21.7956	45.1198	8.31022
   2	1	1	-0.097141	22.2173	46.301	8.98445
   3	1	1	-0.172015	22.3916	47.4758	8.19269
   4	1	2	-0.377994	20.8483	42.9283	6.35987
   5	1	1	0.033493	21.589	45.1503	6.92946
   6	1	1	-0.063739	22.1809	47.4823	6.79463
   7	1	2	-0.398381	21.5565	46.7444	3.81237
   8	1	1	0.032144	21.7821	46.2908	6.18278
   9	1	3	0.032313	21.1433	44.0637	6.02747
  10	1	4	0.461698	21.1128	44.6304	4.75515
  11	1	3	0.091945	21.4865	45.9753	4.75692
  12	1	1	-0.10563	26.2758	47.1691	10.1448
  13	1	5	-0.099376	22.4611	46.3576	10.537
  14	1	1	-0.043296	23.9282	46.7913	10.8546
  15	1	1	-0.073043	24.9412	46.8173	9.85072
  16	1	1	-0.117827	26.607	47.4427	11.4752
  17	1	1	-0.037562	24.316	47.0892	12.1895
  18	1	1	-0.083705	25.6556	47.3794	12.469
  19	1	5	0.396	22.2317	44.9512	11.2279
  20	1	5	0.310495	21.4266	47.3964	11.1297
  21	1	6	-0.130298	23.0756	44.0215	10.7244
  22	1	6	-0.128745	20.9655	44.5013	11.0731
  23	1	6	-0.120019	22.4575	44.9435	12.5599
  24	1	6	-0.104287	20.1969	47.2309	10.5914
  25	1	6	-0.095507	21.7961	48.6725	10.8799
  26	1	6	-0.104872	21.2644	47.3191	12.4686
  27	1	3	0.456145	26.3334	47.5847	13.7763
  28	1	3	0.550902	27.9221	47.7338	12.1092
  29	1	4	0.015704	27.678	47.7699	13.4775
  30	1	2	-0.456801	25.8066	47.5332	14.8739
  31	1	2	-0.487703	28.9846	47.8706	11.5257
  32	1	1	-0.116566	28.6942	47.9258	14.4677
  33	1	1	-0.050109	29.5567	46.8464	14.7738
  34	1	1	0.154929	30.5482	47.0081	15.7605
  35	1	1	0.041555	28.8278	49.1513	15.1605
  36	1	1	-0.223109	29.8226	49.2899	16.1449
  37	1	1	-0.080449	30.6844	48.2249	16.4497
  38	1	5	-0.108008	27.9067	50.331	14.8724
  39	1	5	-0.182228	31.7492	48.3956	17.5217
  40	1	5	-0.345523	29.4184	45.4955	14.075
  41	1	7	0.155183	21.6176	44.1734	8.80676
  42	1	7	0.172904	22.717	48.4016	8.66009
  43	1	7	0.158028	22.3218	48.3837	6.20197
  44	1	7	0.153129	27.0397	47.1828	9.36961
  45	1	7	0.142914	24.7173	46.5428	8.82543
  46	1	7	0.135531	23.6162	47.05	13.018
  47	1	7	0.17765	29.9241	50.2299	16.68
  48	1	9	0.046541	26.881	50.1151	15.1966
  49	1	9	0.045238	27.8847	50.5674	13.8015
  50	1	9	0.051941	28.2313	51.2361	15.4001
  51	1	9	0.087961	31.3494	48.9281	18.3936
  52	1	9	0.066782	32.6015	48.9693	17.1368
  53	1	9	0.075908	32.1281	47.4274	17.8731
  54	1	9	0.105172	29.4965	45.5946	12.9857
  55	1	9	0.115625	28.4555	45.0263	14.313
  56	1	9	0.140296	30.2068	44.7976	14.3846
  57	1	1	-0.004194	21.0689	32.7083	0.581975
  58	1	1	-0.097141	22.0996	33.5995	0.995921
  59	1	1	-0.172015	23.3572	33.494	0.329742
  60	1	2	-0.377994	19.1983	30.6962	-0.808224
  61	1	1	0.033493	21.3151	31.7931	-0.441284
  62	1	1	-0.063739	23.5811	32.5672	-0.714905
  63	1	2	-0.398381	23.2691	30.4701	-3.02237
  64	1	1	0.032144	22.5297	31.7234	-1.08552
  65	1	3	0.032313	20.3749	30.8508	-1.08981
  66	1	4	0.461698	21.0929	30.2857	-2.13914
  67	1	3	0.091945	22.4125	30.7372	-2.19592
  68	1	1	-0.10563	22.2687	37.7633	-0.210871
  69	1	5	-0.099376	21.903	34.6481	2.1505
  70	1	1	-0.043296	22.1326	36.1075	1.63703
  71	1	1	-0.073043	22.2071	36.4273	0.248434
  72	1	1	-0.117827	22.2047	38.7928	0.735761
  73	1	1	-0.037562	22.1225	37.1887	2.55657
  74	1	1	-0.083705	22.117	38.5011	2.0777
  75	1	5	0.396	22.9343	34.2809	3.29097
  76	1	5	0.310495	20.4343	34.5919	2.74693
  77	1	6	-0.130298	24.1925	34.654	2.96736
  78	1	6	-0.128745	22.9641	32.948	3.51891
  79	1	6	-0.120019	22.6769	34.8622	4.48269
  80	1	6	-0.104287	20.134	33.3808	3.26896
  81	1	6	-0.095507	19.5153	34.8881	1.79877
  82	1	6	-0.104872	20.1975	35.4721	3.74346
  83	1	3	0.456145	21.7819	39.7467	2.807
  84	1	3	0.550902	21.9858	40.2602	0.56778
  85	1	4	0.015704	21.6461	40.7332	1.83502
  86	1	2	-0.456801	21.4889	39.8091	3.98814
  87	1	2	-0.487703	21.9688	40.8614	-0.492877
  88	1	1	-0.116566	20.9787	41.9714	2.11646
  89	1	1	-0.050109	21.5123	42.8708	3.07569
  90	1	1	0.154929	20.6906	43.8987	3.60861
  91	1	1	0.041555	19.6705	42.1815	1.61265
  92	1	1	-0.223109	18.9077	43.26	2.08421
  93	1	1	-0.080449	19.3845	44.0939	3.10473
  94	1	5	-0.108008	19.0083	41.2366	0.612261
  95	1	5	-0.182228	18.4433	45.1473	3.68298
  96	1	5	-0.345523	22.9453	42.6885	3.59045
  97	1	7	0.155183	20.0712	32.7007	1.00267
  98	1	7	0.172904	24.1721	34.1607	0.600028
  99	1	7	0.158028	24.5343	32.5183	-1.23719
 100	1	7	0.153129	22.272	37.9917	-1.27505
 101	1	7	0.142914	22.1608	35.6465	-0.502973
 102	1	7	0.135531	22.0107	37.0385	3.6254
 103	1	7	0.17765	17.9003	43.4035	1.70325
 104	1	9	0.046541	19.1568	40.1841	0.881707
 105	1	9	0.045238	19.4048	41.3952	-0.398049
 106	1	9	0.051941	17.9248	41.3983	0.559749
 107	1	9	0.087961	17.458	45.1214	3.20052
 108	1	9	0.066782	18.8427	46.1598	3.54369
 109	1	9	0.075908	18.2781	44.9874	4.75638
 110	1	9	0.105172	22.9598	42.0723	4.50002
 111	1	9	0.115625	23.4253	43.6471	3.82276
 112	1	9	0.140296	23.5917	42.2058	2.84782
 113	1	1	-0.004194	16.924	18.2967	-4.97341
 114	1	1	-0.097141	17.6268	19.0513	-3.99007
 115	1	1	-0.172015	18.9401	18.6189	-3.64247
 116	1	2	-0.377994	16.0961	16.5489	-7.39141
 117	1	1	0.033493	17.5487	17.1971	-5.57153
 118	1	1	-0.063739	19.5397	17.4881	-4.23547
 119	1	2	-0.398381	20.3472	15.1784	-6.14061
 120	1	1	0.032144	18.8167	16.7967	-5.20916
 121	1	3	0.032313	17.1241	16.4006	-6.75245
 122	1	4	0.461698	18.2091	15.5763	-7.04474
 123	1	3	0.091945	19.2516	15.715	-6.12847
 124	1	1	-0.10563	19.4796	22.6193	-5.41694
 125	1	5	-0.099376	17.0598	20.3649	-3.34632
 126	1	1	-0.043296	17.9497	21.5737	-3.77011
 127	1	1	-0.073043	18.7364	21.5137	-4.95769
 128	1	1	-0.117827	19.4075	23.808	-4.68658
 129	1	1	-0.037562	17.9036	22.8067	-3.06389
 130	1	1	-0.083705	18.6326	23.9017	-3.55
 131	1	5	0.396	17.0449	20.1516	-1.77672
 132	1	5	0.310495	15.5963	20.7011	-3.83459
 133	1	6	-0.130298	18.277	20.2808	-1.23579
 134	1	6	-0.128745	16.6005	18.916	-1.45283
 135	1	6	-0.120019	16.2616	21.0193	-1.09943
 136	1	6	-0.104287	14.7162	19.7236	-3.52012
 137	1	6	-0.095507	15.552	20.8927	-5.17308
 138	1	6	-0.104872	15.107	21.8462	-3.30828
 139	1	3	0.456145	18.6571	25.3195	-3.09405
 140	1	3	0.550902	19.97	25.1524	-4.98373
 141	1	4	0.015704	19.4459	26.0012	-4.01588
 142	1	2	-0.456801	18.0372	25.7802	-2.1513
 143	1	2	-0.487703	20.6678	25.4392	-5.94163
 144	1	1	-0.116566	19.5844	27.4243	-4.05862
 145	1	1	-0.050109	20.3679	28.115	-3.09882
 146	1	1	0.154929	20.4521	29.531	-3.15971
 147	1	1	0.041555	18.9004	28.1452	-5.06575
 148	1	1	-0.223109	19.0328	29.5384	-5.13632
 149	1	1	-0.080449	19.7985	30.2386	-4.19543
 150	1	5	-0.108008	17.9951	27.46	-6.08546
 151	1	5	-0.182228	19.8671	31.761	-4.29999
 152	1	5	-0.345523	21.0745	27.3312	-1.98737
 153	1	7	0.155183	15.9363	18.5587	-5.3337
 154	1	7	0.172904	19.5343	19.1883	-2.93334
 155	1	7	0.158028	20.5578	17.1909	-3.99182
 156	1	7	0.153129	20.0564	22.5688	-6.33863
 157	1	7	0.142914	18.7561	20.6147	-5.56546
 158	1	7	0.135531	17.2752	22.9455	-2.18957
 159	1	7	0.17765	18.5113	30.0837	-5.91827
 160	1	9	0.046541	17.3858	26.6723	-5.62582
 161	1	9	0.045238	18.584	27.0118	-6.89503
 162	1	9	0.051941	17.2969	28.1719	-6.54284
 163	1	9	0.087961	20.9061	32.1119	-4.35004
 164	1	9	0.066782	19.3819	32.2407	-3.44006
 165	1	9	0.075908	19.3617	32.1291	-5.20162
 166	1	9	0.105172	21.9189	27.875	-1.54782
 167	1	9	0.115625	21.4908	26.3868	-2.35919
 168	1	9	0.140296	20.3719	27.0916	-1.17659
 169	1	1	-0.004194	14.1952	5.97541	-12.0577
 170	1	1	-0.097141	15.099	6.18881	-13.1326
 171	1	1	-0.172015	14.5992	6.06681	-14.4629
 172	1	2	-0.377994	11.8382	5.118	-10.2085
 173	1	1	0.033493	12.8757	5.59212	-12.3413
 174	1	1	-0.063739	13.2618	5.70614	-14.725
 175	1	2	-0.398381	10.343	4.65668	-14.5785
 176	1	1	0.032144	12.4249	5.45193	-13.6381
 177	1	3	0.032313	11.7912	5.14481	-11.4268
 178	1	4	0.461698	10.7467	4.73958	-12.2611
 179	1	3	0.091945	11.0396	4.91592	-13.6111
 180	1	1	-0.10563	18.1858	7.95461	-9.6512
 181	1	5	-0.099376	16.6244	6.30099	-12.8316
 182	1	1	-0.043296	16.8915	7.30917	-11.6646
 183	1	1	-0.073043	17.7215	6.97836	-10.552
 184	1	1	-0.117827	17.8165	9.28121	-9.8727
 185	1	1	-0.037562	16.4695	8.66206	-11.7965
 186	1	1	-0.083705	16.9626	9.62647	-10.8988
 187	1	5	0.396	17.4822	6.82816	-14.0551
 188	1	5	0.310495	17.0894	4.82251	-12.5118
 189	1	6	-0.130298	17.623	5.9267	-15.0536
 190	1	6	-0.128745	18.7368	7.16249	-13.6742
 191	1	6	-0.120019	16.9505	7.93892	-14.6136
 192	1	6	-0.104287	16.5553	4.35787	-11.3588
 193	1	6	-0.095507	18.4325	4.69602	-12.4121
 194	1	6	-0.104872	16.6941	3.94911	-13.4666
 195	1	3	0.456145	16.8699	11.1168	-10.923
 196	1	3	0.550902	18.3181	10.5229	-9.22933
 197	1	4	0.015704	17.7451	11.5722	-9.93592
 198	1	2	-0.456801	16.2202	11.7795	-11.7132
 199	1	2	-0.487703	19.1479	10.578	-8.33731
 200	1	1	-0.116566	18.1335	12.938	-9.73729
 201	1	1	-0.050109	17.8406	13.6082	-8.51918
 202	1	1	0.154929	18.3692	14.9063	-8.29084
 203	1	1	0.041555	18.9279	13.5792	-10.7189
 204	1	1	-0.223109	19.3865	14.8859	-10.5004
 205	1	1	-0.080449	19.1189	15.5551	-9.30007
 206	1	5	-0.108008	19.3615	12.8785	-12.0032
 207	1	5	-0.182228	19.6826	16.9636	-9.11414
 208	1	5	-0.345523	16.9996	12.9127	-7.44261
 209	1	7	0.155183	14.5282	6.00825	-11.0234
 210	1	7	0.172904	15.2491	6.18274	-15.3233
 211	1	7	0.158028	12.9011	5.56261	-15.7414
 212	1	7	0.153129	18.877	7.69817	-8.85017
 213	1	7	0.142914	18.0898	5.97252	-10.3942
 214	1	7	0.135531	15.8548	8.98021	-12.6349
 215	1	7	0.17765	19.9905	15.3739	-11.2607
 216	1	9	0.046541	18.505	12.6552	-12.6491
 217	1	9	0.045238	19.8849	11.9396	-11.7843
 218	1	9	0.051941	20.0484	13.4998	-12.5911
 219	1	9	0.087961	18.9059	17.6697	-8.79328
 220	1	9	0.066782	20.1043	17.3584	-10.0469
 221	1	9	0.075908	20.488	16.9736	-8.36819
 222	1	9	0.105172	16.2517	12.2395	-7.87869
 223	1	9	0.115625	16.4303	13.6209	-6.82841
 224	1	9	0.140296	17.6361	12.3182	-6.77242
 225	1	1	-0.004194	5.69656	-7.38962	-11.1314
 226	1	1	-0.097141	5.65528	-5.98371	-10.9172
 227	1	1	-0.172015	4.37967	-5.34996	-10.9169
 228	1	2	-0.377994	5.13407	-10.4194	-11.471
 229	1	1	0.033493	4.50383	-8.08883	-11.3396
 230	1	1	-0.063739	3.18693	-6.07226	-11.1487
 231	1	2	-0.398381	1.01439	-8.28563	-11.5423
 232	1	1	0.032144	3.28092	-7.45248	-11.3527
 233	1	3	0.032313	4.27706	-9.54936	-11.4739
 234	1	4	0.461698	2.89587	-9.70054	-11.5497
 235	1	3	0.091945	2.21608	-8.48212	-11.5065
 236	1	1	-0.10563	6.37019	-2.19493	-12.9774
 237	1	5	-0.099376	6.93469	-5.17511	-10.523
 238	1	1	-0.043296	6.8801	-3.71853	-11.0882
 239	1	1	-0.073043	6.36821	-3.4821	-12.3957
 240	1	1	-0.117827	6.92874	-1.14027	-12.2453
 241	1	1	-0.037562	7.44352	-2.61549	-10.3875
 242	1	1	-0.083705	7.45709	-1.35164	-10.9903
 243	1	5	0.396	8.2575	-5.80342	-11.1101
 244	1	5	0.310495	6.98544	-5.21488	-8.94671
 245	1	6	-0.130298	8.11604	-6.08982	-12.4243
 246	1	6	-0.128745	8.64075	-6.94072	-10.4875
 247	1	6	-0.120019	9.30703	-4.95538	-11.0147
 248	1	6	-0.104287	6.75322	-6.45728	-8.46375
 249	1	6	-0.095507	6.03655	-4.41583	-8.4079
 250	1	6	-0.104872	8.17758	-4.83621	-8.43393
 251	1	3	0.456145	8.0026	-0.0598417	-10.4908
 252	1	3	0.550902	7.10552	0.301426	-12.5849
 253	1	4	0.015704	7.74994	0.870847	-11.4916
 254	1	2	-0.456801	8.53622	0.125728	-9.4113
 255	1	2	-0.487703	6.71634	0.852107	-13.6003
 256	1	1	-0.116566	8.0482	2.26461	-11.3747
 257	1	1	-0.050109	9.26545	2.79374	-11.879
 258	1	1	0.154929	9.52097	4.19027	-11.7824
 259	1	1	0.041555	7.11315	3.12123	-10.7489
 260	1	1	-0.223109	7.37509	4.49631	-10.6764
 261	1	1	-0.080449	8.55536	5.04411	-11.198
 262	1	5	-0.108008	5.80531	2.62781	-10.134
 263	1	5	-0.182228	8.73445	6.55753	-11.0934
 264	1	5	-0.345523	10.2881	1.86365	-12.5467
 265	1	7	0.155183	6.61332	-7.96586	-11.0857
 266	1	7	0.172904	4.30222	-4.28692	-10.6984
 267	1	7	0.158028	2.21428	-5.58588	-11.1253
 268	1	7	0.153129	5.97085	-2.02611	-13.9759
 269	1	7	0.142914	5.97273	-4.31079	-12.9779
 270	1	7	0.135531	7.8954	-2.71324	-9.40711
 271	1	7	0.17765	6.64586	5.1493	-10.2038
 272	1	9	0.046541	4.94706	3.1183	-10.6093
 273	1	9	0.045238	5.77348	2.86974	-9.06413
 274	1	9	0.051941	5.64993	1.54781	-10.222
 275	1	9	0.087961	7.79938	7.07605	-11.3421
 276	1	9	0.066782	9.49982	6.95532	-11.7697
 277	1	9	0.075908	9.01022	6.84448	-10.0704
 278	1	9	0.105172	11.3226	2.17429	-12.3577
 279	1	9	0.115625	10.1374	1.84526	-13.6352
 280	1	9	0.140296	10.2272	0.830851	-12.1859
 281	1	1	-0.004194	4.70878	-14.7985	-2.93919
 282	1	1	-0.097141	3.51379	-15.4656	-3.33251
 283	1	1	-0.172015	3.61604	-16.8252	-3.74318
 284	1	2	-0.377994	7.61597	-13.8842	-2.35461
 285	1	1	0.033493	5.91992	-15.4972	-2.95955
 286	1	1	-0.063739	4.84498	-17.5196	-3.72959
 287	1	2	-0.398381	7.83184	-18.3793	-3.49414
 288	1	1	0.032144	5.98652	-16.8251	-3.32271
 289	1	3	0.032313	7.29472	-15.0204	-2.66299
 290	1	4	0.461698	8.11662	-16.1277	-2.86506
 291	1	3	0.091945	7.40333	-17.2656	-3.24338
 292	1	1	-0.10563	-0.533705	-14.5436	-6.15189
 293	1	5	-0.099376	2.10457	-14.7877	-3.29983
 294	1	1	-0.043296	1.4599	-14.8442	-4.71541
 295	1	1	-0.073043	0.0473608	-14.7762	-4.88946
 296	1	1	-0.117827	0.318143	-14.3997	-7.25008
 297	1	1	-0.037562	2.28306	-14.7461	-5.86817
 298	1	1	-0.083705	1.68419	-14.5365	-7.11764
 299	1	5	0.396	2.16433	-13.2535	-2.92917
 300	1	5	0.310495	1.25933	-15.5504	-2.20174
 301	1	6	-0.130298	2.96662	-12.5687	-3.77671
 302	1	6	-0.128745	2.61336	-13.0408	-1.67144
 303	1	6	-0.120019	0.957737	-12.6479	-3.01529
 304	1	6	-0.104287	1.9963	-15.7911	-1.09329
 305	1	6	-0.095507	0.820476	-16.7498	-2.64519
 306	1	6	-0.104872	0.16392	-14.8806	-1.77892
 307	1	3	0.456145	2.31107	-14.1807	-8.4179
 308	1	3	0.550902	0.0279927	-13.8993	-8.6211
 309	1	4	0.015704	1.26918	-13.7337	-9.22657
 310	1	2	-0.456801	3.50803	-14.1595	-8.64887
 311	1	2	-0.487703	-1.065	-13.5506	-9.03491
 312	1	1	-0.116566	1.46229	-12.9898	-10.4339
 313	1	1	-0.050109	2.05797	-11.7015	-10.383
 314	1	1	0.154929	2.25009	-10.9691	-11.5833
 315	1	1	0.041555	1.02552	-13.5168	-11.6705
 316	1	1	-0.223109	1.20019	-12.7663	-12.8445
 317	1	1	-0.080449	1.81664	-11.5055	-12.8163
 318	1	5	-0.108008	0.35213	-14.8812	-11.7727
 319	1	5	-0.182228	1.9887	-10.7426	-14.1263
 320	1	5	-0.345523	2.50904	-11.1043	-9.03964
 321	1	7	0.155183	4.73804	-13.762	-2.62234
 322	1	7	0.172904	2.72936	-17.3603	-4.07405
 323	1	7	0.158028	4.91477	-18.5613	-4.0353
 324	1	7	0.153129	-1.60689	-14.3944	-6.25903
 325	1	7	0.142914	-0.619849	-14.8068	-4.03575
 326	1	7	0.135531	3.36743	-14.7243	-5.79386
 327	1	7	0.17765	0.852509	-13.172	-13.791
 328	1	9	0.046541	0.328429	-15.2427	-12.8082
 329	1	9	0.045238	-0.686048	-14.8317	-11.4213
 330	1	9	0.051941	0.879406	-15.6377	-11.1791
 331	1	9	0.087961	1.27774	-9.90806	-14.1889
 332	1	9	0.066782	1.81312	-11.3888	-14.9956
 333	1	9	0.075908	3.00336	-10.3378	-14.2313
 334	1	9	0.105172	1.89469	-11.4424	-8.1975
 335	1	9	0.115625	2.4457	-10.0105	-9.01346
 336	1	9	0.140296	3.5512	-11.3842	-8.82632
 337	1	1	-0.004194	15.6627	-16.487	6.88649
 338	1	1	-0.097141	14.6035	-15.636	6.45111
 339	1	1	-0.172015	13.3794	-15.7121	7.18554
 340	1	2	-0.377994	17.4745	-18.6658	8.14572
 341	1	1	0.033493	15.4769	-17.317	7.99772
 342	1	1	-0.063739	13.23	-16.5188	8.3331
 343	1	2	-0.398381	13.5877	-18.5299	10.6833
 344	1	1	0.032144	14.3077	-17.3113	8.72351
 345	1	3	0.032313	16.3806	-18.343	8.57752
 346	1	4	0.461698	15.6833	-18.8781	9.66188
 347	1	3	0.091945	14.4297	-18.2905	9.83333
 348	1	1	-0.10563	13.5613	-17.5985	2.81838
 349	1	5	-0.099376	14.7299	-14.7127	5.176
 350	1	1	-0.043296	14.1815	-15.4717	3.93077
 351	1	1	-0.073043	14.0589	-16.8922	3.93153
 352	1	1	-0.117827	13.1894	-16.8657	1.68899
 353	1	1	-0.037562	13.827	-14.7736	2.74454
 354	1	1	-0.083705	13.3264	-15.4939	1.65186
 355	1	5	0.396	16.237	-14.3389	4.8704
 356	1	5	0.310495	13.9149	-13.3689	5.43173
 357	1	6	-0.130298	16.8515	-13.8278	5.96099
 358	1	6	-0.128745	16.3922	-13.4458	3.86823
 359	1	6	-0.120019	16.9514	-15.4065	4.4504
 360	1	6	-0.104287	14.0959	-12.9088	6.69067
 361	1	6	-0.095507	12.5857	-13.5388	5.24651
 362	1	6	-0.104872	14.2321	-12.3324	4.62618
 363	1	3	0.456145	12.8053	-15.014	0.343015
 364	1	3	0.550902	12.5713	-17.3102	0.411097
 365	1	4	0.015704	12.3479	-16.1489	-0.31666
 366	1	2	-0.456801	12.7381	-13.8544	-0.024747
 367	1	2	-0.487703	12.2655	-18.4536	0.117763
 368	1	1	-0.116566	11.644	-16.1176	-1.55655
 369	1	1	-0.050109	10.2244	-16.0934	-1.56876
 370	1	1	0.154929	9.53908	-16.0841	-2.81125
 371	1	1	0.041555	12.365	-16.1272	-2.77233
 372	1	1	-0.223109	11.6698	-16.0828	-3.98879
 373	1	1	-0.080449	10.2678	-16.0562	-4.02255
 374	1	5	-0.108008	13.8892	-16.1782	-2.83178
 375	1	5	-0.182228	9.57164	-16.0074	-5.38065
 376	1	5	-0.345523	9.42543	-16.1028	-0.256627
 377	1	7	0.155183	16.618	-16.5566	6.38444
 378	1	7	0.172904	12.508	-15.1423	6.88852
 379	1	7	0.158028	12.2952	-16.5491	8.88933
 380	1	7	0.153129	13.4525	-18.6813	2.83899
 381	1	7	0.142914	14.3419	-17.4777	4.79889
 382	1	7	0.135531	13.9167	-13.6952	2.65959
 383	1	7	0.17765	12.2296	-16.0755	-4.92025
 384	1	9	0.046541	14.35	-16.5099	-1.89498
 385	1	9	0.045238	14.2989	-15.1904	-3.07606
 386	1	9	0.051941	14.2213	-16.8768	-3.61013
 387	1	9	0.087961	9.09987	-16.9701	-5.61801
 388	1	9	0.066782	10.2776	-15.7838	-6.19008
 389	1	9	0.075908	8.79784	-15.2293	-5.41021
 390	1	9	0.105172	10.0254	-15.8576	0.625617
 391	1	9	0.115625	8.97639	-17.0888	-0.0783514
 392	1	9	0.140296	8.62081	-15.3562	-0.266003
 393	1	1	-0.004194	9.60641	-25.2768	12.077
 394	1	1	-0.097141	9.87127	-26.674	12.159
 395	1	1	-0.172015	9.50228	-27.3426	13.3661
 396	1	2	-0.377994	9.19766	-22.2557	12.6405
 397	1	1	0.033493	9.09816	-24.6057	13.194
 398	1	1	-0.063739	8.97579	-26.6492	14.4738
 399	1	2	-0.398381	8.25403	-24.5068	16.5896
 400	1	1	0.032144	8.80879	-25.2701	14.3662
 401	1	3	0.032313	8.97242	-23.1473	13.4416
 402	1	4	0.461698	8.65994	-23.0371	14.7961
 403	1	3	0.091945	8.49577	-24.2722	15.4171
 404	1	1	-0.10563	14.0473	-26.4088	9.36293
 405	1	5	-0.099376	10.6235	-27.3869	10.978
 406	1	1	-0.043296	12.0275	-26.7279	10.7689
 407	1	1	-0.073043	12.8106	-27.0352	9.61782
 408	1	1	-0.117827	14.4872	-25.4363	10.2636
 409	1	1	-0.037562	12.561	-25.787	11.6948
 410	1	1	-0.083705	13.7569	-25.1275	11.3901
 411	1	5	0.396	9.72217	-27.2197	9.68773
 412	1	5	0.310495	10.8574	-28.9267	11.2488
 413	1	6	-0.130298	10.0599	-28.0293	8.6603
 414	1	6	-0.128745	9.78146	-25.9639	9.1913
 415	1	6	-0.120019	8.42178	-27.4735	9.95803
 416	1	6	-0.104287	11.5095	-29.5647	10.252
 417	1	6	-0.095507	9.697	-29.601	11.4187
 418	1	6	-0.104872	11.6258	-29.1201	12.345
 419	1	3	0.456145	14.3654	-23.9269	12.0243
 420	1	3	0.550902	15.6113	-24.4704	10.156
 421	1	4	0.015704	15.4099	-23.5583	11.1842
 422	1	2	-0.456801	13.9145	-23.3152	12.9778
 423	1	2	-0.487703	16.4019	-24.3948	9.2312
 424	1	1	-0.116566	16.0439	-22.2806	11.2217
 425	1	1	-0.050109	15.5501	-21.2279	10.4087
 426	1	1	0.154929	16.1724	-19.9516	10.4629
 427	1	1	0.041555	17.1596	-22.0721	12.0582
 428	1	1	-0.223109	17.7725	-20.8105	12.0901
 429	1	1	-0.080449	17.2901	-19.7485	11.3086
 430	1	5	-0.108008	17.7161	-23.1873	12.9351
 431	1	5	-0.182228	18.0139	-18.4068	11.3956
 432	1	5	-0.345523	14.3306	-21.4709	9.50101
 433	1	7	0.155183	9.90138	-24.6863	11.2148
 434	1	7	0.172904	9.6568	-28.4061	13.5039
 435	1	7	0.158028	8.76515	-27.156	15.4132
 436	1	7	0.153129	14.6132	-26.6248	8.45838
 437	1	7	0.142914	12.4598	-27.754	8.88533
 438	1	7	0.135531	12.0508	-25.5077	12.6103
 439	1	7	0.17765	18.6355	-20.6543	12.7319
 440	1	9	0.046541	17.8457	-24.117	12.3677
 441	1	9	0.045238	17.0443	-23.3917	13.7781
 442	1	9	0.051941	18.697	-22.9236	13.3497
 443	1	9	0.087961	18.5591	-18.3043	12.3422
 444	1	9	0.066782	17.3243	-17.556	11.3339
 445	1	9	0.075908	18.7475	-18.3087	10.5842
 446	1	9	0.105172	14.2866	-20.7905	8.6437
 447	1	9	0.115625	13.3985	-21.3465	10.0702
 448	1	9	0.140296	14.3179	-22.4711	9.05711
 449	1	1	-0.004194	-0.0657508	-14.0687	18.5649
 450	1	1	-0.097141	0.654132	-15.1195	17.9348
 451	1	1	-0.172015	-0.0255772	-16.3487	17.7022
 452	1	2	-0.377994	-2.10147	-12.2198	19.9733
 453	1	1	0.033493	-1.4005	-14.2757	18.9234
 454	1	1	-0.063739	-1.37504	-16.5379	18.0805
 455	1	2	-0.398381	-4.30211	-16.2236	19.1641
 456	1	1	0.032144	-2.04657	-15.4705	18.6867
 457	1	3	0.032313	-2.35007	-13.3474	19.5805
 458	1	4	0.461698	-3.53945	-14.0618	19.7038
 459	1	3	0.091945	-3.44807	-15.3529	19.1824
 460	1	1	-0.10563	3.81071	-17.8964	19.1877
 461	1	5	-0.099376	2.09411	-14.9125	17.3719
 462	1	1	-0.043296	2.95744	-16.1895	17.6044
 463	1	1	-0.073043	2.92992	-16.8379	18.8719
 464	1	1	-0.117827	4.72904	-18.3011	18.2115
 465	1	1	-0.037562	3.89462	-16.6481	16.6408
 466	1	1	-0.083705	4.75587	-17.6972	16.9727
 467	1	5	0.396	2.88212	-13.7428	18.0816
 468	1	5	0.310495	1.90451	-14.559	15.8459
 469	1	6	-0.130298	2.43183	-12.5114	17.7525
 470	1	6	-0.128745	4.19811	-13.7594	17.7673
 471	1	6	-0.120019	2.81449	-13.8487	19.4284
 472	1	6	-0.104287	3.02237	-14.0732	15.2602
 473	1	6	-0.095507	0.948629	-13.6189	15.6647
 474	1	6	-0.104872	1.51003	-15.6392	15.1337
 475	1	3	0.456145	5.86952	-18.2851	16.1873
 476	1	3	0.550902	5.83841	-19.2974	18.2608
 477	1	4	0.015704	6.47151	-19.2115	17.0253
 478	1	2	-0.456801	6.19287	-17.9754	15.0535
 479	1	2	-0.487703	6.14138	-19.9899	19.2172
 480	1	1	-0.116566	7.64264	-19.9386	16.6589
 481	1	1	-0.050109	7.53427	-21.146	15.9289
 482	1	1	0.154929	8.71583	-21.8165	15.5196
 483	1	1	0.041555	8.91115	-19.4063	16.9762
 484	1	1	-0.223109	10.0688	-20.0862	16.5725
 485	1	1	-0.080449	9.98595	-21.2856	15.8512
 486	1	5	-0.108008	9.05663	-18.0916	17.7338
 487	1	5	-0.182228	11.2873	-21.9694	15.4319
 488	1	5	-0.345523	6.13899	-21.6786	15.5789
 489	1	7	0.155183	0.361955	-13.0915	18.7581
 490	1	7	0.172904	0.489089	-17.1616	17.1933
 491	1	7	0.158028	-1.89226	-17.4762	17.8919
 492	1	7	0.153129	3.80755	-18.3595	20.1728
 493	1	7	0.142914	2.24604	-16.4872	19.6409
 494	1	7	0.135531	4.01253	-16.1861	15.6672
 495	1	7	0.17765	11.044	-19.6705	16.8116
 496	1	9	0.046541	8.56265	-17.271	17.1989
 497	1	9	0.045238	10.1093	-17.8096	17.8597
 498	1	9	0.051941	8.61572	-18.1638	18.7357
 499	1	9	0.087961	11.4909	-21.8095	14.3641
 500	1	9	0.066782	11.2631	-23.0508	15.6151
 501	1	9	0.075908	12.1487	-21.5758	15.9857
 502	1	9	0.105172	5.49778	-21.7118	16.4691
 503	1	9	0.115625	6.13924	-22.6953	15.1716
 504	1	9	0.140296	5.65209	-21.032	14.8361
 505	1	1	-0.004194	-12.4528	-6.37549	18.2443
 506	1	1	-0.097141	-12.2334	-5.69242	19.4707
 507	1	1	-0.172015	-13.0011	-4.52028	19.732
 508	1	2	-0.377994	-13.5519	-7.46397	15.5487
 509	1	1	0.033493	-13.3833	-5.84919	17.3332
 510	1	1	-0.063739	-13.9262	-4.00868	18.802
 511	1	2	-0.398381	-15.8474	-3.52438	16.4238
 512	1	1	0.032144	-14.0866	-4.69112	17.5973
 513	1	3	0.032313	-13.8965	-6.41043	16.0561
 514	1	4	0.461698	-14.9083	-5.53783	15.6433
 515	1	3	0.091945	-15.0521	-4.44696	16.4968
 516	1	1	-0.10563	-7.99312	-7.51574	18.8733
 517	1	5	-0.099376	-11.2702	-6.25708	20.5564
 518	1	1	-0.043296	-10.2214	-7.25567	19.9333
 519	1	1	-0.073043	-9.13884	-6.74366	19.1584
 520	1	1	-0.117827	-7.97482	-8.84782	19.2951
 521	1	1	-0.037562	-10.2031	-8.65296	20.2244
 522	1	1	-0.083705	-9.08069	-9.41952	19.8788
 523	1	5	0.396	-12.1666	-6.95291	21.6576
 524	1	5	0.310495	-10.4453	-5.08435	21.2491
 525	1	6	-0.130298	-12.9334	-7.93299	21.1285
 526	1	6	-0.128745	-13.0518	-6.11721	22.2462
 527	1	6	-0.120019	-11.4212	-7.48696	22.6529
 528	1	6	-0.104287	-9.3371	-5.54918	21.87
 529	1	6	-0.095507	-11.1163	-4.38965	22.1942
 530	1	6	-0.104872	-10.0382	-4.15343	20.3558
 531	1	3	0.456145	-8.72728	-10.8139	20.265
 532	1	3	0.550902	-6.84681	-9.81588	19.388
 533	1	4	0.015704	-7.35629	-10.9393	20.0404
 534	1	2	-0.456801	-9.48702	-11.6203	20.7738
 535	1	2	-0.487703	-5.68634	-9.56569	19.1105
 536	1	1	-0.116566	-6.52338	-11.9652	20.6141
 537	1	1	-0.050109	-5.61548	-12.7141	19.8133
 538	1	1	0.154929	-4.64648	-13.5459	20.4365
 539	1	1	0.041555	-6.49704	-12.13	22.0254
 540	1	1	-0.223109	-5.60572	-13.0414	22.6082
 541	1	1	-0.080449	-4.66525	-13.7312	21.8363
 542	1	5	-0.108008	-7.36325	-11.3172	22.986
 543	1	5	-0.182228	-3.63907	-14.6029	22.5557
 544	1	5	-0.345523	-5.63613	-12.5976	18.2855
 545	1	7	0.155183	-11.9523	-7.31122	18.0094
 546	1	7	0.172904	-12.9166	-4.00105	20.6811
 547	1	7	0.158028	-14.53	-3.13089	19.023
 548	1	7	0.153129	-7.11739	-7.07124	18.4037
 549	1	7	0.142914	-9.12349	-5.70324	18.8545
 550	1	7	0.135531	-10.9753	-9.14996	20.7989
 551	1	7	0.17765	-5.59951	-13.161	23.6885
 552	1	9	0.046541	-6.92732	-11.2885	23.9921
 553	1	9	0.045238	-8.36216	-11.7592	23.0847
 554	1	9	0.051941	-7.47247	-10.2746	22.6657
 555	1	9	0.087961	-2.67658	-14.0822	22.6452
 556	1	9	0.066782	-3.46975	-15.5528	22.0336
 557	1	9	0.075908	-3.96915	-14.8573	23.5709
 558	1	9	0.105172	-6.62031	-12.299	17.9059
 559	1	9	0.115625	-5.41298	-13.5562	17.7996
 560	1	9	0.140296	-4.90304	-11.8578	17.9346
 561	1	1	-0.004194	-18.2968	-10.725	5.05134
 562	1	1	-0.097141	-17.391	-10.6907	6.14523
 563	1	1	-0.172015	-17.8589	-11.1345	7.41588
 564	1	2	-0.377994	-20.6067	-11.2583	3.06574
 565	1	1	0.033493	-19.59	-11.2189	5.25476
 566	1	1	-0.063739	-19.1691	-11.6283	7.59809
 567	1	2	-0.398381	-22.0246	-12.8264	7.1965
 568	1	1	0.032144	-20.0136	-11.6761	6.48573
 569	1	3	0.032313	-20.6568	-11.4924	4.26142
 570	1	4	0.461698	-21.6647	-12.1413	4.97279
 571	1	3	0.091945	-21.3659	-12.2787	6.32752
 572	1	1	-0.10563	-13.8583	-9.53427	9.19103
 573	1	5	-0.099376	-15.8756	-10.3762	5.95334
 574	1	1	-0.043296	-15.3473	-9.6363	7.22264
 575	1	1	-0.073043	-14.209	-10.0909	7.95009
 576	1	1	-0.117827	-14.6262	-8.47504	9.67158
 577	1	1	-0.037562	-16.0455	-8.49703	7.7136
 578	1	1	-0.083705	-15.6497	-7.92481	8.93424
 579	1	5	0.396	-15.5685	-9.44146	4.72074
 580	1	5	0.310495	-15.1946	-11.7828	5.7139
 581	1	6	-0.130298	-15.7074	-10.0557	3.52432
 582	1	6	-0.128745	-14.2997	-8.97467	4.761
 583	1	6	-0.120019	-16.3791	-8.3603	4.7021
 584	1	6	-0.104287	-15.8076	-12.4845	4.73322
 585	1	6	-0.095507	-15.2621	-12.5703	6.813
 586	1	6	-0.104872	-13.8928	-11.6895	5.35932
 587	1	3	0.456145	-16.2953	-6.87265	9.77403
 588	1	3	0.550902	-14.6536	-7.88958	11.0294
 589	1	4	0.015704	-15.7201	-6.99325	11.0421
 590	1	2	-0.456801	-17.2095	-6.14734	9.42252
 591	1	2	-0.487703	-14.0075	-8.31578	11.9712
 592	1	1	-0.116566	-16.2754	-6.5192	12.2821
 593	1	1	-0.050109	-15.43	-5.90743	13.2501
 594	1	1	0.154929	-15.8372	-5.85859	14.6092
 595	1	1	0.041555	-17.5916	-6.90233	12.6556
 596	1	1	-0.223109	-18.0217	-6.71479	13.9754
 597	1	1	-0.080449	-17.1467	-6.25861	14.9666
 598	1	5	-0.108008	-18.5818	-7.58335	11.7131
 599	1	5	-0.182228	-17.653	-6.25246	16.4082
 600	1	5	-0.345523	-14.0591	-5.34638	12.8514
 601	1	7	0.155183	-18.0088	-10.4524	4.04195
 602	1	7	0.172904	-17.1808	-11.1605	8.26627
 603	1	7	0.158028	-19.5018	-12.0174	8.55818
 604	1	7	0.153129	-13.0517	-9.95237	9.79119
 605	1	7	0.142914	-13.6098	-10.9263	7.60992
 606	1	7	0.135531	-16.9252	-8.11272	7.20277
 607	1	7	0.17765	-19.0296	-7.01147	14.2532
 608	1	9	0.046541	-19.0503	-6.85087	11.0442
 609	1	9	0.045238	-19.3952	-8.07017	12.2647
 610	1	9	0.051941	-18.1094	-8.36298	11.1051
 611	1	9	0.087961	-16.9078	-6.64364	17.1117
 612	1	9	0.066782	-18.5474	-6.87774	16.5226
 613	1	9	0.075908	-17.9257	-5.23733	16.7248
 614	1	9	0.105172	-14.0042	-5.10973	11.7818
 615	1	9	0.115625	-13.2531	-6.05673	13.0814
 616	1	9	0.140296	-13.8383	-4.40715	13.3745
 617	1	1	-0.004194	-29.1948	-6.47746	0.320604
 618	1	1	-0.097141	-30.2074	-7.3855	0.758913
 619	1	1	-0.172015	-30.714	-8.31259	-0.196785
 620	1	2	-0.377994	-26.6177	-5.33833	-0.983973
 621	1	1	0.033493	-28.694	-6.58319	-0.986739
 622	1	1	-0.063739	-30.2476	-8.35839	-1.52038
 623	1	2	-0.398381	-28.4302	-8.42347	-3.94182
 624	1	1	0.032144	-29.2169	-7.49554	-1.87784
 625	1	3	0.032313	-27.4038	-6.08066	-1.54888
 626	1	4	0.461698	-27.2076	-6.8252	-2.71807
 627	1	3	0.091945	-28.3088	-7.61675	-3.03361
 628	1	1	-0.10563	-29.8501	-10.9558	4.07783
 629	1	5	-0.099376	-30.6221	-7.56048	2.26302
 630	1	1	-0.043296	-29.919	-8.86003	2.7578
 631	1	1	-0.073043	-30.5403	-9.811	3.61827
 632	1	1	-0.117827	-28.5171	-11.1293	3.68479
 633	1	1	-0.037562	-28.567	-9.08533	2.38458
 634	1	1	-0.083705	-27.898	-10.2145	2.86219
 635	1	5	0.396	-32.2107	-7.60557	2.35249
 636	1	5	0.310495	-30.1176	-6.38914	3.19849
 637	1	6	-0.130298	-32.7053	-7.46988	3.60282
 638	1	6	-0.128745	-32.7443	-8.76458	1.90737
 639	1	6	-0.120019	-32.7671	-6.61778	1.61617
 640	1	6	-0.104287	-30.4633	-6.57023	4.49322
 641	1	6	-0.095507	-30.6067	-5.18972	2.81195
 642	1	6	-0.104872	-28.7708	-6.28418	3.23827
 643	1	3	0.456145	-26.4879	-10.6366	2.66301
 644	1	3	0.550902	-27.5167	-12.1759	4.04032
 645	1	4	0.015704	-26.3355	-11.7985	3.40923
 646	1	2	-0.456801	-25.6536	-10.058	1.98827