pySIMM System Object

1794 atoms
1953 bonds
3456 angles
5116 dihedrals
512 impropers

9 atom types
11 bond types
18 angle types
7 dihedral types
4 improper types

-193.000070 193.000070 xlo xhi
-193.000070 193.000070 ylo yhi
-193.000070 193.000070 zlo zhi

Masses

   1	12.01	# ca
   2	16.0	# o
   3	12.01	# c
   4	14.01	# n
   5	12.01	# c3
   6	19.0	# f
   7	1.008	# ha
   8	1.008	# hn
   9	1.008	# hc

Pair Coeffs

   1	0.086	3.3996695084235347	# ca
   2	0.21	2.959921901149463	# o
   3	0.086	3.3996695084235347	# c
   4	0.17	3.249998523775958	# n
   5	0.1094	3.3996695084235347	# c3
   6	0.061	3.1181455134911875	# f
   7	0.015	2.59964245953351	# ha
   8	0.0157	1.069078461768407	# hn
   9	0.0157	2.649532787749369	# hc

Bond Coeffs

   1	321.0	1.5156	# c3,ca
   2	300.9	1.5375	# c3,c3
   3	384.2	1.4121	# ca,n
   4	330.6	1.0969	# c3,hc
   5	637.7	1.2183	# c,o
   6	403.2	1.0129	# hn,n
   7	356.9	1.3497	# c3,f
   8	461.1	1.3984	# ca,ca
   9	427.6	1.3789	# c,n
  10	345.9	1.4906	# c,ca
  11	345.8	1.086	# ca,ha

Angle Coeffs

   1	70.89	107.36	# f,c3,f
   2	68.72	122.6	# ca,c,o
   3	67.87	120.19	# ca,ca,n
   4	67.68	115.25	# ca,c,n
   5	46.8	110.47	# ca,c3,hc
   6	74.22	123.05	# n,c,o
   7	48.33	117.55	# c,n,hn
   8	63.56	112.24	# ca,c3,ca
   9	62.86	111.51	# c3,c3,c3
  10	66.11	109.24	# c3,c3,f
  11	64.28	120.33	# c,ca,ca
  12	66.62	120.02	# ca,ca,ca
  13	63.74	127.08	# c,n,c
  14	39.4	107.58	# hc,c3,hc
  15	48.18	119.88	# ca,ca,ha
  16	63.15	112.07	# c3,c3,ca
  17	63.53	120.77	# c3,ca,ca
  18	63.82	123.71	# c,n,ca

Dihedral Coeffs

   1	2	2.5	2	180	2.0	1	0	# hn,n,c,o
   2	1	3.625	2	180	# X,ca,ca,X
   3	1	0.0	2	0	# X,c3,ca,X
   4	1	1.0	2	180	# X,c,ca,X
   5	1	0.15555555555555556	3	0	# X,c3,c3,X
   6	1	2.5	2	180	# X,c,n,X
   7	1	0.45	2	180	# X,ca,n,X

Improper Coeffs

   1	1.1	-1	2	# n,X,X,hn
   2	1.1	-1	2	# ca,ca,ca,c3
   3	1.1	-1	2	# ca,X,X,ha
   4	10.5	-1	2	# c,X,X,o

Atoms

   1	1	1	-0.004194	-24.583	0.383698	-35.725
   2	1	1	-0.097141	-25.2265	1.23941	-36.6578
   3	1	1	-0.172015	-26.2715	2.08493	-36.1866
   4	1	2	-0.377994	-23.9604	-1.60698	-33.4541
   5	1	1	0.033493	-25.0834	0.296855	-34.4257
   6	1	1	-0.063739	-26.7398	2.00477	-34.8571
   7	1	2	-0.398381	-27.5028	1.02012	-32.0037
   8	1	1	0.032144	-26.1432	1.07227	-34.0042
   9	1	3	0.032313	-24.7878	-0.713422	-33.3825
  10	1	4	0.461698	-25.7465	-0.497371	-32.3965
  11	1	3	0.091945	-26.567	0.597129	-32.6622
  12	1	1	-0.10563	-23.4017	-2.30124	-39.405
  13	1	5	-0.099376	-24.8218	1.13641	-38.1603
  14	1	1	-0.043296	-24.6614	-0.382148	-38.4814
  15	1	1	-0.073043	-23.574	-0.911214	-39.2348
  16	1	1	-0.117827	-24.3325	-3.15947	-38.8097
  17	1	1	-0.037562	-25.6214	-1.29236	-37.962
  18	1	1	-0.083705	-25.415	-2.66614	-38.1145
  19	1	5	0.396	-23.4955	1.97116	-38.3252
  20	1	5	0.310495	-25.9137	1.68205	-39.1573
  21	1	6	-0.130298	-22.4596	1.39137	-37.6774
  22	1	6	-0.128745	-23.6211	3.21139	-37.8004
  23	1	6	-0.120019	-23.1208	2.13443	-39.6143
  24	1	6	-0.104287	-26.0331	3.0287	-39.1364
  25	1	6	-0.095507	-27.1364	1.16798	-38.8937
  26	1	6	-0.104872	-25.6317	1.34098	-40.4354
  27	1	3	0.456145	-26.182	-3.81433	-37.5621
  28	1	3	0.550902	-24.3754	-4.64517	-38.7367
  29	1	4	0.015704	-25.4927	-4.95051	-37.9673
  30	1	2	-0.456801	-27.1771	-3.74293	-36.8605
  31	1	2	-0.487703	-23.5756	-5.41168	-39.247
  32	1	1	-0.116566	-25.8768	-6.2816	-37.6286
  33	1	1	-0.050109	-26.5351	-7.0869	-38.5846
  34	1	1	0.154929	-26.8606	-8.41831	-38.2643
  35	1	1	0.041555	-25.5723	-6.80702	-36.351
  36	1	1	-0.223109	-25.9101	-8.13947	-36.0495
  37	1	1	-0.080449	-26.5414	-8.95274	-37.0052
  38	1	5	-0.108008	-24.8644	-5.96581	-35.2941
  39	1	5	-0.182228	-26.8669	-10.4041	-36.689
  40	1	5	-0.345523	-26.885	-6.54083	-39.9661
  41	1	7	0.155183	-23.7868	-0.29359	-36.0249
  42	1	7	0.172904	-26.7779	2.77559	-36.8531
  43	1	7	0.158028	-27.5903	2.59296	-34.5186
  44	1	7	0.153129	-22.5516	-2.70149	-39.9545
  45	1	7	0.142914	-22.8299	-0.259579	-39.6788
  46	1	7	0.135531	-26.4802	-0.947644	-37.3904
  47	1	7	0.17765	-25.6658	-8.5472	-35.0724
  48	1	9	0.046541	-25.4758	-5.10462	-34.9986
  49	1	9	0.045238	-23.903	-5.58919	-35.6648
  50	1	9	0.051941	-24.6598	-6.54335	-34.384
  51	1	9	0.087961	-26.6381	-11.0548	-37.5426
  52	1	9	0.066782	-27.9311	-10.5251	-36.453
  53	1	9	0.075908	-26.2855	-10.7715	-35.8342
  54	1	9	0.105172	-27.4376	-5.59576	-39.8922
  55	1	9	0.115625	-27.5153	-7.24047	-40.5292
  56	1	9	0.140296	-25.9782	-6.3684	-40.5602
  57	1	1	-0.004194	-31.282	-10.7006	-30.6456
  58	1	1	-0.097141	-31.3512	-10.6823	-32.0642
  59	1	1	-0.172015	-32.4372	-11.3561	-32.6954
  60	1	2	-0.377994	-31.7505	-11.0157	-27.5854
  61	1	1	0.033493	-32.2928	-11.339	-29.9215
  62	1	1	-0.063739	-33.4484	-11.9906	-31.9451
  63	1	2	-0.398381	-35.3294	-13.0674	-29.7178
  64	1	1	0.032144	-33.3524	-11.9563	-30.5533
  65	1	3	0.032313	-32.4825	-11.4619	-28.4538
  66	1	4	0.461698	-33.6836	-12.1537	-28.3059
  67	1	3	0.091945	-34.2733	-12.4899	-29.5213
  68	1	1	-0.10563	-30.9782	-6.52468	-31.1779
  69	1	5	-0.099376	-30.2275	-9.94963	-32.8577
  70	1	1	-0.043296	-29.9963	-8.55667	-32.201
  71	1	1	-0.073043	-31.1192	-7.80412	-31.7509
  72	1	1	-0.117827	-29.6905	-5.99085	-31.0821
  73	1	1	-0.037562	-28.7092	-7.96392	-32.1039
  74	1	1	-0.083705	-28.592	-6.687	-31.5418
  75	1	5	0.396	-30.5925	-9.66022	-34.3639
  76	1	5	0.310495	-28.9641	-10.8923	-32.7974
  77	1	6	-0.130298	-30.6351	-10.7761	-35.1268
  78	1	6	-0.128745	-29.6974	-8.8308	-34.9469
  79	1	6	-0.120019	-31.7937	-9.04803	-34.476
  80	1	6	-0.104287	-29.2823	-12.1674	-33.1183
  81	1	6	-0.095507	-28.431	-10.9349	-31.5556
  82	1	6	-0.104872	-27.9727	-10.5251	-33.6377
  83	1	3	0.456145	-27.3929	-5.82398	-31.3733
  84	1	3	0.550902	-29.2302	-4.66454	-30.5917
  85	1	4	0.015704	-27.86	-4.63963	-30.8161
  86	1	2	-0.456801	-26.2539	-6.10336	-31.7064
  87	1	2	-0.487703	-29.936	-3.7806	-30.1368
  88	1	1	-0.116566	-27.0431	-3.49611	-30.5724
  89	1	1	-0.050109	-26.8129	-2.56362	-31.6101
  90	1	1	0.154929	-26.001	-1.4276	-31.3555
  91	1	1	0.041555	-26.4814	-3.29463	-29.2942
  92	1	1	-0.223109	-25.6855	-2.16218	-29.0568
  93	1	1	-0.080449	-25.4381	-1.227	-30.0751
  94	1	5	-0.108008	-26.724	-4.28592	-28.1623
  95	1	5	-0.182228	-24.5642	-0.0141749	-29.7716
  96	1	5	-0.345523	-27.4465	-2.81672	-32.9884
  97	1	7	0.155183	-30.4729	-10.2124	-30.108
  98	1	7	0.172904	-32.526	-11.3987	-33.776
  99	1	7	0.158028	-34.2869	-12.4906	-32.4259
 100	1	7	0.153129	-31.8431	-5.95477	-30.8431
 101	1	7	0.142914	-32.1227	-8.20808	-31.8575
 102	1	7	0.135531	-27.8122	-8.45088	-32.4703
 103	1	7	0.17765	-25.2551	-2.01066	-28.0707
 104	1	9	0.046541	-26.362	-5.28599	-28.4318
 105	1	9	0.045238	-27.7931	-4.36085	-27.9275
 106	1	9	0.051941	-26.2073	-3.98688	-27.2421
 107	1	9	0.087961	-25.1274	0.920293	-29.8948
 108	1	9	0.066782	-23.6903	0.0217009	-30.4349
 109	1	9	0.075908	-24.1878	-0.0320168	-28.741
 110	1	9	0.105172	-27.3504	-1.98461	-33.6931
 111	1	9	0.115625	-28.5241	-3.00461	-32.9015
 112	1	9	0.140296	-26.9912	-3.69121	-33.4734
 113	1	1	-0.004194	-29.7233	-20.133	-21.9396
 114	1	1	-0.097141	-31.0489	-19.8543	-21.5181
 115	1	1	-0.172015	-31.2264	-19.1035	-20.3194
 116	1	2	-0.377994	-26.7018	-20.502	-22.2926
 117	1	1	0.033493	-28.6581	-19.6986	-21.1535
 118	1	1	-0.063739	-30.1304	-18.7029	-19.5215
 119	1	2	-0.398381	-27.2924	-18.2948	-18.2569
 120	1	1	0.032144	-28.845	-19.029	-19.9645
 121	1	3	0.032313	-27.2143	-19.9428	-21.3413
 122	1	4	0.461698	-26.6055	-19.4414	-20.1964
 123	1	3	0.091945	-27.5141	-18.8387	-19.3256
 124	1	1	-0.10563	-35.5291	-18.4546	-23.1733
 125	1	5	-0.099376	-32.2954	-20.4283	-22.2588
 126	1	1	-0.043296	-33.2601	-19.262	-22.6102
 127	1	1	-0.073043	-34.6695	-19.4549	-22.6806
 128	1	1	-0.117827	-34.9595	-17.2509	-23.5942
 129	1	1	-0.037562	-32.7278	-18.0114	-23.0262
 130	1	1	-0.083705	-33.6025	-17.0273	-23.5053
 131	1	5	0.396	-32.9237	-21.5091	-21.2888
 132	1	5	0.310495	-31.9512	-21.1219	-23.6359
 133	1	6	-0.130298	-33.5721	-20.9385	-20.2479
 134	1	6	-0.128745	-31.9702	-22.3092	-20.7582
 135	1	6	-0.120019	-33.8121	-22.3353	-21.886
 136	1	6	-0.104287	-31.2213	-22.2517	-23.4907
 137	1	6	-0.095507	-31.2659	-20.2933	-24.4565
 138	1	6	-0.104872	-33.062	-21.4715	-24.3242
 139	1	3	0.456145	-33.3205	-15.6784	-24.0701
 140	1	3	0.550902	-35.5862	-16.0724	-24.2457
 141	1	4	0.015704	-34.5511	-15.1782	-24.4973
 142	1	2	-0.456801	-32.219	-15.1649	-24.1696
 143	1	2	-0.487703	-36.7653	-15.9693	-24.5422
 144	1	1	-0.116566	-34.7329	-13.9203	-25.161
 145	1	1	-0.050109	-34.1143	-13.6789	-26.4173
 146	1	1	0.154929	-34.2909	-12.4235	-27.0524
 147	1	1	0.041555	-35.5593	-12.9207	-24.5845
 148	1	1	-0.223109	-35.732	-11.6946	-25.2415
 149	1	1	-0.080449	-35.104	-11.4311	-26.4641
 150	1	5	-0.108008	-36.3374	-13.1034	-23.2846
 151	1	5	-0.182228	-35.3499	-10.0859	-27.142
 152	1	5	-0.345523	-33.2699	-14.7689	-27.0962
 153	1	7	0.155183	-29.4853	-20.7092	-22.8256
 154	1	7	0.172904	-32.2301	-18.8652	-19.9742
 155	1	7	0.158028	-30.271	-18.1773	-18.579
 156	1	7	0.153129	-36.6002	-18.6244	-23.2665
 157	1	7	0.142914	-35.119	-20.4023	-22.4071
 158	1	7	0.135531	-31.6568	-17.8193	-23.0382
 159	1	7	0.17765	-36.3789	-10.9439	-24.7954
 160	1	9	0.046541	-37.3886	-13.3331	-23.4996
 161	1	9	0.045238	-36.3148	-12.1885	-22.6801
 162	1	9	0.051941	-35.9539	-13.9084	-22.6559
 163	1	9	0.087961	-35.8369	-10.2169	-28.1173
 164	1	9	0.066782	-34.4109	-9.53895	-27.2956
 165	1	9	0.075908	-36.0035	-9.44179	-26.5404
 166	1	9	0.105172	-33.2861	-14.7128	-28.1902
 167	1	9	0.115625	-33.6306	-15.7771	-26.8618
 168	1	9	0.140296	-32.2211	-14.7095	-26.7725
 169	1	1	-0.004194	-18.6032	-28.9077	-16.0305
 170	1	1	-0.097141	-18.791	-27.6603	-16.6912
 171	1	1	-0.172015	-18.1002	-26.5216	-16.189
 172	1	2	-0.377994	-17.8791	-31.2366	-14.0859
 173	1	1	0.033493	-17.7714	-28.9582	-14.9042
 174	1	1	-0.063739	-17.2726	-26.5939	-15.0509
 175	1	2	-0.398381	-15.762	-27.4362	-12.47
 176	1	1	0.032144	-17.1298	-27.8333	-14.425
 177	1	3	0.032313	-17.4709	-30.0909	-13.9884
 178	1	4	0.461698	-16.6819	-29.5398	-12.9794
 179	1	3	0.091945	-16.4011	-28.1922	-13.183
 180	1	1	-0.10563	-21.9666	-24.8124	-16.2935
 181	1	5	-0.099376	-19.686	-27.4892	-17.9575
 182	1	1	-0.043296	-20.5598	-26.2078	-17.7831
 183	1	1	-0.073043	-21.1741	-25.9561	-16.5234
 184	1	1	-0.117827	-22.1563	-23.9211	-17.3543
 185	1	1	-0.037562	-20.8105	-25.2929	-18.8427
 186	1	1	-0.083705	-21.6056	-24.1646	-18.5951
 187	1	5	0.396	-20.6918	-28.6812	-18.181
 188	1	5	0.310495	-18.6946	-27.4111	-19.1832
 189	1	6	-0.130298	-20.0754	-29.8241	-18.5567
 190	1	6	-0.128745	-21.5963	-28.3911	-19.1437
 191	1	6	-0.120019	-21.4047	-28.9523	-17.065
 192	1	6	-0.104287	-17.9977	-26.2519	-19.193
 193	1	6	-0.095507	-19.3107	-27.5127	-20.3825
 194	1	6	-0.104872	-17.7747	-28.4026	-19.1422
 195	1	3	0.456145	-22.0026	-23.0517	-19.5008
 196	1	3	0.550902	-22.9075	-22.6361	-17.4199
 197	1	4	0.015704	-22.7618	-22.1808	-18.7252
 198	1	2	-0.456801	-21.6892	-22.9336	-20.6728
 199	1	2	-0.487703	-23.5034	-22.104	-16.4987
 200	1	1	-0.116566	-23.3097	-20.9506	-19.2099
 201	1	1	-0.050109	-24.7015	-20.8174	-19.4467
 202	1	1	0.154929	-25.214	-19.5866	-19.9371
 203	1	1	0.041555	-22.4464	-19.8586	-19.454
 204	1	1	-0.223109	-22.9678	-18.655	-19.9535
 205	1	1	-0.080449	-24.3407	-18.5085	-20.2034
 206	1	5	-0.108008	-20.947	-19.9481	-19.1902
 207	1	5	-0.182228	-24.8532	-17.1864	-20.7678
 208	1	5	-0.345523	-25.6511	-21.9876	-19.1547
 209	1	7	0.155183	-19.0913	-29.8248	-16.3469
 210	1	7	0.172904	-18.2152	-25.5579	-16.681
 211	1	7	0.158028	-16.7693	-25.7142	-14.6555
 212	1	7	0.153129	-22.4208	-24.6251	-15.322
 213	1	7	0.142914	-21.0314	-26.6559	-15.7038
 214	1	7	0.135531	-20.4067	-25.4295	-19.8402
 215	1	7	0.17765	-22.293	-17.8269	-20.151
 216	1	9	0.046541	-20.4452	-20.5222	-19.9789
 217	1	9	0.045238	-20.7346	-20.4296	-18.2277
 218	1	9	0.051941	-20.4826	-18.955	-19.1604
 219	1	9	0.087961	-25.3522	-17.3378	-21.733
 220	1	9	0.066782	-24.0372	-16.4724	-20.9348
 221	1	9	0.075908	-25.5644	-16.7083	-20.0814
 222	1	9	0.105172	-25.1467	-22.9598	-19.1574
 223	1	9	0.115625	-26.4426	-22.0809	-19.9067
 224	1	9	0.140296	-26.1269	-21.8691	-18.1714
 225	1	1	-0.004194	-23.444	-34.4354	-6.69868
 226	1	1	-0.097141	-22.931	-33.598	-5.66809
 227	1	1	-0.172015	-21.9126	-34.1283	-4.8237
 228	1	2	-0.377994	-23.5879	-36.3254	-9.12936
 229	1	1	0.033493	-22.831	-35.6733	-6.9296
 230	1	1	-0.063739	-21.3507	-35.4001	-5.0369
 231	1	2	-0.398381	-20.153	-37.8697	-6.41752
 232	1	1	0.032144	-21.8024	-36.133	-6.13197
 233	1	3	0.032313	-22.8661	-36.5031	-8.16245
 234	1	4	0.461698	-21.7739	-37.3626	-8.04749
 235	1	3	0.091945	-21.138	-37.2678	-6.81359
 236	1	1	-0.10563	-20.0142	-29.7376	-5.70824
 237	1	5	-0.099376	-23.1894	-32.0556	-5.62254
 238	1	1	-0.043296	-21.814	-31.4177	-5.97613
 239	1	1	-0.073043	-21.2716	-30.2691	-5.33144
 240	1	1	-0.117827	-19.3034	-30.3737	-6.73708
 241	1	1	-0.037562	-21.0645	-32.0077	-7.02626
 242	1	1	-0.083705	-19.8238	-31.4805	-7.3683
 243	1	5	0.396	-23.7436	-31.678	-4.18823
 244	1	5	0.310495	-24.2139	-31.5362	-6.70967
 245	1	6	-0.130298	-22.8165	-31.8061	-3.21423
 246	1	6	-0.128745	-24.7763	-32.4787	-3.84222
 247	1	6	-0.120019	-24.1909	-30.4065	-4.09102
 248	1	6	-0.104287	-25.4504	-32.0541	-6.53648
 249	1	6	-0.095507	-23.8311	-31.8255	-7.97416
 250	1	6	-0.104872	-24.3371	-30.1897	-6.69506
 251	1	3	0.456145	-18.9098	-31.8917	-8.4562
 252	1	3	0.550902	-18.0204	-30.0295	-7.42036
 253	1	4	0.015704	-17.8856	-30.9601	-8.44855
 254	1	2	-0.456801	-19.0926	-32.8063	-9.24081
 255	1	2	-0.487703	-17.3103	-29.0693	-7.17604
 256	1	1	-0.116566	-16.9299	-30.8946	-9.50305
 257	1	1	-0.050109	-17.232	-30.1655	-10.6786
 258	1	1	0.154929	-16.3462	-30.2288	-11.7825
 259	1	1	0.041555	-15.7491	-31.6636	-9.42739
 260	1	1	-0.223109	-14.8667	-31.6907	-10.5197
 261	1	1	-0.080449	-15.1558	-30.9856	-11.6994
 262	1	5	-0.108008	-15.4274	-32.4964	-8.19235
 263	1	5	-0.182228	-14.1761	-31.0593	-12.8648
 264	1	5	-0.345523	-18.5261	-29.3418	-10.7927
 265	1	7	0.155183	-24.1793	-34.0992	-7.42072
 266	1	7	0.172904	-21.4434	-33.506	-4.0684
 267	1	7	0.158028	-20.4938	-35.7439	-4.46124
 268	1	7	0.153129	-19.6134	-28.8467	-5.22805
 269	1	7	0.142914	-21.8217	-29.7653	-4.54288
 270	1	7	0.135531	-21.4339	-32.858	-7.59181
 271	1	7	0.17765	-13.9564	-32.2805	-10.4529
 272	1	9	0.046541	-14.4339	-32.9567	-8.25917
 273	1	9	0.045238	-16.156	-33.3075	-8.06693
 274	1	9	0.051941	-15.4415	-31.8804	-7.28471
 275	1	9	0.087961	-13.6973	-30.0867	-13.0391
 276	1	9	0.066782	-14.6809	-31.3598	-13.7897
 277	1	9	0.075908	-13.3781	-31.7895	-12.681
 278	1	9	0.105172	-19.0776	-29.2411	-9.85298
 279	1	9	0.115625	-19.2163	-29.7964	-11.5161
 280	1	9	0.140296	-18.3178	-28.313	-11.1151
 281	1	1	-0.004194	-17.9811	-33.8573	-17.0422
 282	1	1	-0.097141	-16.8981	-34.6772	-17.463
 283	1	1	-0.172015	-17.0315	-35.389	-18.6916
 284	1	2	-0.377994	-20.681	-32.354	-16.6514
 285	1	1	0.033493	-19.1435	-33.8132	-17.819
 286	1	1	-0.063739	-18.2175	-35.3393	-19.4509
 287	1	2	-0.398381	-21.1058	-34.9114	-20.5053
 288	1	1	0.032144	-19.2659	-34.5501	-18.979
 289	1	3	0.032313	-20.4299	-33.1146	-17.5718
 290	1	4	0.461698	-21.2696	-33.5335	-18.6031
 291	1	3	0.091945	-20.64	-34.381	-19.5099
 292	1	1	-0.10563	-15.7304	-35.3111	-12.6704
 293	1	5	-0.099376	-15.6384	-34.7855	-16.547
 294	1	1	-0.043296	-16.1051	-35.1919	-15.1158
 295	1	1	-0.073043	-15.3597	-34.8496	-13.9509
 296	1	1	-0.117827	-16.8719	-36.1118	-12.563
 297	1	1	-0.037562	-17.2546	-36.0129	-14.9542
 298	1	1	-0.083705	-17.6262	-36.4284	-13.6709
 299	1	5	0.396	-14.9229	-33.3786	-16.6065
 300	1	5	0.310495	-14.6197	-35.9022	-16.9976
 301	1	6	-0.130298	-15.6166	-32.4332	-15.9378
 302	1	6	-0.128745	-14.8096	-32.9377	-17.8802
 303	1	6	-0.120019	-13.6718	-33.3711	-16.0943
 304	1	6	-0.104287	-14.0306	-35.6307	-18.1844
 305	1	6	-0.095507	-15.2189	-37.1108	-17.1004
 306	1	6	-0.104872	-13.6179	-36.0703	-16.1045
 307	1	3	0.456145	-18.7911	-37.2394	-13.2264
 308	1	3	0.550902	-17.4977	-36.7568	-11.3771
 309	1	4	0.015704	-18.646	-37.3899	-11.8497
 310	1	2	-0.456801	-19.688	-37.6525	-13.9425
 311	1	2	-0.487703	-17.055	-36.7406	-10.2404
 312	1	1	-0.116566	-19.5872	-38.07	-11.0083
 313	1	1	-0.050109	-20.3142	-37.3514	-10.0241
 314	1	1	0.154929	-21.1836	-38.0501	-9.14346
 315	1	1	0.041555	-19.768	-39.4681	-11.1309
 316	1	1	-0.223109	-20.6773	-40.1311	-10.2899
 317	1	1	-0.080449	-21.3791	-39.4398	-9.29049
 318	1	5	-0.108008	-18.9871	-40.299	-12.1438
 319	1	5	-0.182228	-22.3185	-40.2123	-8.36969
 320	1	5	-0.345523	-20.1228	-35.832	-9.8799
 321	1	7	0.155183	-17.9499	-33.3034	-16.1056
 322	1	7	0.172904	-16.2352	-36.0174	-19.0745
 323	1	7	0.158028	-18.3318	-35.9144	-20.3672
 324	1	7	0.153129	-15.1465	-35.058	-11.7878
 325	1	7	0.142914	-14.4619	-34.2478	-14.0229
 326	1	7	0.135531	-17.8512	-36.3408	-15.8013
 327	1	7	0.17765	-20.8151	-41.2037	-10.3977
 328	1	9	0.046541	-19.0007	-41.3647	-11.8845
 329	1	9	0.045238	-17.934	-39.9963	-12.1918
 330	1	9	0.051941	-19.4189	-40.2016	-13.1474
 331	1	9	0.087961	-23.341	-39.8164	-8.42657
 332	1	9	0.066782	-21.9865	-40.1562	-7.32487
 333	1	9	0.075908	-22.3672	-41.2752	-8.63737
 334	1	9	0.105172	-19.7912	-35.3509	-10.8069
 335	1	9	0.115625	-19.3746	-35.6007	-9.10913
 336	1	9	0.140296	-21.0463	-35.3015	-9.62535
 337	1	1	-0.004194	-29.3066	-26.6973	-23.5527
 338	1	1	-0.097141	-28.4315	-25.5817	-23.5977
 339	1	1	-0.172015	-28.6734	-24.5758	-24.5776
 340	1	2	-0.377994	-31.3256	-28.9689	-24.1281
 341	1	1	0.033493	-30.3349	-26.7959	-24.4911
 342	1	1	-0.063739	-29.7317	-24.6866	-25.5053
 343	1	2	-0.398381	-32.1483	-25.6419	-27.2536
 344	1	1	0.032144	-30.5518	-25.8163	-25.4378
 345	1	3	0.032313	-31.2738	-27.9152	-24.7401
 346	1	4	0.461698	-32.0012	-27.5289	-25.862
 347	1	3	0.091945	-31.6665	-26.256	-26.317
 348	1	1	-0.10563	-25.8906	-29.0148	-23.5221
 349	1	5	-0.099376	-27.2707	-25.5042	-22.5622
 350	1	1	-0.043296	-26.65	-26.927	-22.4188
 351	1	1	-0.073043	-26.4093	-27.7045	-23.5887
 352	1	1	-0.117827	-25.5839	-29.5329	-22.26
 353	1	1	-0.037562	-26.2855	-27.4795	-21.1637
 354	1	1	-0.083705	-25.759	-28.7741	-21.122
 355	1	5	0.396	-27.9209	-24.9605	-21.232
 356	1	5	0.310495	-26.0867	-24.56	-22.9952
 357	1	6	-0.130298	-28.6416	-23.8352	-21.4471
 358	1	6	-0.128745	-27.016	-24.6565	-20.2767
 359	1	6	-0.120019	-28.777	-25.8596	-20.695
 360	1	6	-0.104287	-26.4104	-23.2519	-22.9619
 361	1	6	-0.095507	-25.6603	-24.8342	-24.2486
 362	1	6	-0.104872	-25.0125	-24.7074	-22.1858
 363	1	3	0.456145	-25.3226	-29.578	-19.9552
 364	1	3	0.550902	-25.053	-30.8649	-21.8532
 365	1	4	0.015704	-24.9316	-30.8074	-20.4691
 366	1	2	-0.456801	-25.3223	-29.2119	-18.7924
 367	1	2	-0.487703	-24.8002	-31.7983	-22.5964
 368	1	1	-0.116566	-24.4683	-31.8749	-19.6443
 369	1	1	-0.050109	-23.0905	-32.1956	-19.5931
 370	1	1	0.154929	-22.6447	-33.191	-18.6866
 371	1	1	0.041555	-25.3932	-32.5696	-18.8333
 372	1	1	-0.223109	-24.9362	-33.5589	-17.9511
 373	1	1	-0.080449	-23.5717	-33.8698	-17.8608
 374	1	5	-0.108008	-26.8887	-32.2748	-18.8903
 375	1	5	-0.182228	-23.1328	-34.9493	-16.8735
 376	1	5	-0.345523	-22.1136	-31.4886	-20.5425
 377	1	7	0.155183	-29.1752	-27.498	-22.8296
 378	1	7	0.172904	-28.0363	-23.7003	-24.6561
 379	1	7	0.158028	-29.8871	-23.9354	-26.2758
 380	1	7	0.153129	-25.735	-29.6079	-24.4215
 381	1	7	0.142914	-26.6453	-27.2937	-24.5679
 382	1	7	0.135531	-26.4044	-26.9458	-20.2276
 383	1	7	0.17765	-25.6518	-34.0863	-17.3253
 384	1	9	0.046541	-27.1213	-31.3235	-18.3963
 385	1	9	0.045238	-27.4736	-33.0559	-18.3893
 386	1	9	0.051941	-27.2466	-32.2196	-19.9259
 387	1	9	0.087961	-22.5756	-35.7517	-17.3741
 388	1	9	0.066782	-23.9908	-35.4177	-16.3749
 389	1	9	0.075908	-22.4949	-34.5306	-16.0838
 390	1	9	0.105172	-21.0648	-31.5712	-20.2394
 391	1	9	0.115625	-22.3218	-30.4158	-20.6219
 392	1	9	0.140296	-22.19	-31.916	-21.5526
 393	1	1	-0.004194	-28.8839	-28.7281	-32.9144
 394	1	1	-0.097141	-29.1473	-29.2366	-34.2152
 395	1	1	-0.172015	-29.4791	-28.3105	-35.2454
 396	1	2	-0.377994	-28.8297	-27.1198	-30.2676
 397	1	1	0.033493	-29.0845	-27.3713	-32.6598
 398	1	1	-0.063739	-29.6477	-26.9357	-34.9715
 399	1	2	-0.398381	-30.1421	-24.175	-33.6121
 400	1	1	0.032144	-29.4743	-26.4998	-33.6549
 401	1	3	0.032313	-29.0953	-26.6515	-31.3631
 402	1	4	0.461698	-29.5298	-25.3657	-31.675
 403	1	3	0.091945	-29.7502	-25.1776	-33.038
 404	1	1	-0.10563	-30.2818	-32.7839	-31.2214
 405	1	5	-0.099376	-29.1899	-30.7855	-34.4054
 406	1	1	-0.043296	-30.0259	-31.3407	-33.2123
 407	1	1	-0.073043	-29.6309	-32.4651	-32.433
 408	1	1	-0.117827	-31.3376	-31.9652	-30.8034
 409	1	1	-0.037562	-31.1759	-30.6138	-32.8065
 410	1	1	-0.083705	-31.779	-30.9202	-31.5863
 411	1	5	0.396	-27.6921	-31.2785	-34.429
 412	1	5	0.310495	-29.919	-31.2584	-35.7189
 413	1	6	-0.130298	-27.5604	-32.5818	-34.7635
 414	1	6	-0.128745	-27.0893	-31.1169	-33.2293
 415	1	6	-0.120019	-26.9547	-30.5737	-35.3169
 416	1	6	-0.104287	-30.1209	-32.5956	-35.719
 417	1	6	-0.095507	-29.2269	-30.9688	-36.8438
 418	1	6	-0.104872	-31.1435	-30.6985	-35.845
 419	1	3	0.456145	-32.7298	-30.1018	-30.794
 420	1	3	0.550902	-32.0097	-31.8626	-29.4784
 421	1	4	0.015704	-32.7521	-30.6876	-29.5361
 422	1	2	-0.456801	-33.1907	-29.0231	-31.1275
 423	1	2	-0.487703	-31.7675	-32.5487	-28.5002
 424	1	1	-0.116566	-33.2315	-30.0037	-28.3822
 425	1	1	-0.050109	-32.3757	-29.1099	-27.6927
 426	1	1	0.154929	-32.8674	-28.4096	-26.5636
 427	1	1	0.041555	-34.5588	-30.1964	-27.9469
 428	1	1	-0.223109	-35.0293	-29.4942	-26.8248
 429	1	1	-0.080449	-34.1973	-28.6016	-26.1286
 430	1	5	-0.108008	-35.4949	-31.1498	-28.6787
 431	1	5	-0.182228	-34.7518	-27.8584	-24.9176
 432	1	5	-0.345523	-30.9305	-28.8686	-28.1628
 433	1	7	0.155183	-28.6414	-29.3845	-32.0822
 434	1	7	0.172904	-29.6682	-28.6437	-36.261
 435	1	7	0.158028	-29.9655	-26.2377	-35.7434
 436	1	7	0.153129	-29.9165	-33.5854	-30.5818
 437	1	7	0.142914	-28.772	-33.065	-32.7132
 438	1	7	0.135531	-31.5153	-29.736	-33.352
 439	1	7	0.17765	-36.0527	-29.6459	-26.4925
 440	1	9	0.046541	-35.0949	-32.1715	-28.6745
 441	1	9	0.045238	-35.6323	-30.8408	-29.7225
 442	1	9	0.051941	-36.4874	-31.1837	-28.2129
 443	1	9	0.087961	-34.6965	-26.7712	-25.0593
 444	1	9	0.066782	-34.1937	-28.1136	-24.0073
 445	1	9	0.075908	-35.8041	-28.1087	-24.7334
 446	1	9	0.105172	-30.563	-29.5951	-28.8931
 447	1	9	0.115625	-30.218	-28.9139	-27.3293
 448	1	9	0.140296	-30.8346	-27.8791	-28.6319
 449	1	1	-0.004194	-25.939	-17.2182	-24.9081
 450	1	1	-0.097141	-24.5249	-17.2089	-25.0558
 451	1	1	-0.172015	-23.7975	-16.1137	-24.5121
 452	1	2	-0.377994	-28.9348	-16.6017	-24.4219
 453	1	1	0.033493	-26.5688	-16.1288	-24.3052
 454	1	1	-0.063739	-24.4522	-15.038	-23.8748
 455	1	2	-0.398381	-26.5069	-13.0566	-22.6413
 456	1	1	0.032144	-25.8472	-15.0717	-23.7947
 457	1	3	0.032313	-28.0147	-15.8702	-24.0916
 458	1	4	0.461698	-28.0646	-14.6421	-23.4287
 459	1	3	0.091945	-26.7984	-14.1003	-23.2026
 460	1	1	-0.10563	-26.2494	-18.4356	-28.7826
 461	1	5	-0.099376	-23.8201	-18.408	-25.7525
 462	1	1	-0.043296	-24.8176	-18.9548	-26.8245
 463	1	1	-0.073043	-25.2693	-18.0658	-27.8431
 464	1	1	-0.117827	-26.8019	-19.7126	-28.6768
 465	1	1	-0.037562	-25.3936	-20.255	-26.7712
 466	1	1	-0.083705	-26.3928	-20.5913	-27.6944
 467	1	5	0.396	-23.467	-19.443	-24.618
 468	1	5	0.310495	-22.4857	-18.0155	-26.5088
 469	1	6	-0.130298	-22.6864	-18.9066	-23.652
 470	1	6	-0.128745	-22.8251	-20.5327	-25.0967
 471	1	6	-0.120019	-24.5713	-19.8678	-23.9748
 472	1	6	-0.104287	-22.1199	-18.9799	-27.3837
 473	1	6	-0.095507	-21.4222	-17.821	-25.6974
 474	1	6	-0.104872	-22.6119	-16.8756	-27.2236
 475	1	3	0.456145	-27.2299	-21.8173	-27.7988
 476	1	3	0.550902	-27.8914	-20.3527	-29.4584
 477	1	4	0.015704	-28.0915	-21.59	-28.8642
 478	1	2	-0.456801	-27.2054	-22.7794	-27.0498
 479	1	2	-0.487703	-28.4892	-19.8592	-30.3994
 480	1	1	-0.116566	-29.0899	-22.512	-29.2874
 481	1	1	-0.050109	-28.7821	-23.491	-30.2602
 482	1	1	0.154929	-29.7987	-24.3779	-30.6931
 483	1	1	0.041555	-30.3898	-22.4221	-28.7457
 484	1	1	-0.223109	-31.3808	-23.313	-29.1809
 485	1	1	-0.080449	-31.0994	-24.2911	-30.1469
 486	1	5	-0.108008	-30.7459	-21.3724	-27.6987
 487	1	5	-0.182228	-32.2167	-25.2378	-30.5808
 488	1	5	-0.345523	-27.3641	-23.5514	-30.8439
 489	1	7	0.155183	-26.5553	-18.0419	-25.2582
 490	1	7	0.172904	-22.7136	-16.0868	-24.5675
 491	1	7	0.158028	-23.8967	-14.1994	-23.4595
 492	1	7	0.153129	-26.5974	-17.7374	-29.5418
 493	1	7	0.142914	-24.8924	-17.0491	-27.8868
 494	1	7	0.135531	-25.125	-20.9895	-26.019
 495	1	7	0.17765	-32.3793	-23.2555	-28.7545
 496	1	9	0.046541	-30.0584	-21.4111	-26.8451
 497	1	9	0.045238	-31.7596	-21.5191	-27.3055
 498	1	9	0.051941	-30.7021	-20.3625	-28.1255
 499	1	9	0.087961	-33.1187	-25.1058	-29.9695
 500	1	9	0.066782	-31.9196	-26.2892	-30.4762
 501	1	9	0.075908	-32.5025	-25.0637	-31.6261
 502	1	9	0.105172	-27.1469	-24.4829	-31.378
 503	1	9	0.115625	-26.6023	-23.4821	-30.0574
 504	1	9	0.140296	-27.2006	-22.7249	-31.5489
 505	1	1	-0.004194	-31.9738	-17.4328	-13.42
 506	1	1	-0.097141	-32.7866	-16.6601	-14.2918
 507	1	1	-0.172015	-32.8824	-15.2594	-14.0502
 508	1	2	-0.377994	-30.1685	-18.5646	-11.1826
 509	1	1	0.033493	-31.2907	-16.7955	-12.3826
 510	1	1	-0.063739	-32.1662	-14.6326	-13.0056
 511	1	2	-0.398381	-30.3937	-13.9793	-10.5053
 512	1	1	0.032144	-31.3717	-15.4342	-12.1798
 513	1	3	0.032313	-30.4427	-17.3843	-11.3204
 514	1	4	0.461698	-30.0553	-16.3091	-10.5265
 515	1	3	0.091945	-30.559	-15.0906	-10.9804
 516	1	1	-0.10563	-34.7806	-15.7483	-18.7892
 517	1	5	-0.099376	-33.6572	-17.3208	-15.4046
 518	1	1	-0.043296	-33.6879	-16.4194	-16.6745
 519	1	1	-0.073043	-34.8215	-16.3879	-17.5382
 520	1	1	-0.117827	-33.5949	-15.1127	-19.1561
 521	1	1	-0.037562	-32.5101	-15.7375	-17.0845
 522	1	1	-0.083705	-32.504	-15.0716	-18.3175
 523	1	5	0.396	-35.0813	-17.5398	-14.7633
 524	1	5	0.310495	-33.081	-18.7045	-15.8998
 525	1	6	-0.130298	-35.7447	-16.3682	-14.6362
 526	1	6	-0.128745	-34.995	-18.0678	-13.5212
 527	1	6	-0.120019	-35.8726	-18.3794	-15.4689
 528	1	6	-0.104287	-33.6761	-19.1243	-17.0406
 529	1	6	-0.095507	-33.2412	-19.7066	-15.0069
 530	1	6	-0.104872	-31.7608	-18.6136	-16.1795
 531	1	3	0.456145	-31.4016	-14.3734	-19.035
 532	1	3	0.550902	-33.2111	-14.5127	-20.4523
 533	1	4	0.015704	-31.8826	-14.1277	-20.321
 534	1	2	-0.456801	-30.2914	-14.151	-18.5847
 535	1	2	-0.487703	-33.9073	-14.5184	-21.4497
 536	1	1	-0.116566	-31.0948	-13.666	-21.4255
 537	1	1	-0.050109	-29.9895	-14.4297	-21.8913
 538	1	1	0.154929	-29.259	-13.9826	-23.0242
 539	1	1	0.041555	-31.4678	-12.4812	-22.1064
 540	1	1	-0.223109	-30.7683	-12.0886	-23.256
 541	1	1	-0.080449	-29.6728	-12.8257	-23.7249
 542	1	5	-0.108008	-32.6279	-11.6001	-21.6534
 543	1	5	-0.182228	-28.9587	-12.3411	-24.9847
 544	1	5	-0.345523	-29.5892	-15.7264	-21.1696
 545	1	7	0.155183	-31.8785	-18.5095	-13.4969
 546	1	7	0.172904	-33.5332	-14.6459	-14.67
 547	1	7	0.158028	-32.2457	-13.5629	-12.8225
 548	1	7	0.153129	-35.6276	-15.786	-19.4724
 549	1	7	0.142914	-35.7355	-16.9132	-17.2909
 550	1	7	0.135531	-31.5994	-15.7678	-16.4901
 551	1	7	0.17765	-31.0837	-11.1972	-23.7926
 552	1	9	0.046541	-32.7461	-11.5989	-20.5635
 553	1	9	0.045238	-33.5706	-11.9341	-22.104
 554	1	9	0.051941	-32.4734	-10.557	-21.9562
 555	1	9	0.087961	-29.5637	-11.6077	-25.5342
 556	1	9	0.066782	-28.759	-13.1677	-25.6783
 557	1	9	0.075908	-28.004	-11.8591	-24.7379
 558	1	9	0.105172	-29.0961	-16.4572	-21.8155
 559	1	9	0.115625	-30.4636	-16.2549	-20.7786
 560	1	9	0.140296	-28.9122	-15.5168	-20.3298
 561	1	1	-0.004194	-29.2611	-18.7085	0.690864
 562	1	1	-0.097141	-30.1335	-17.5917	0.778231
 563	1	1	-0.172015	-29.7356	-16.4912	1.59205
 564	1	2	-0.377994	-27.1244	-20.9126	1.13657
 565	1	1	0.033493	-28.0761	-18.7111	1.43228
 566	1	1	-0.063739	-28.5131	-16.4975	2.29805
 567	1	2	-0.398381	-25.8236	-17.2512	3.67974
 568	1	1	0.032144	-27.7035	-17.6321	2.20529
 569	1	3	0.032313	-27.0862	-19.7988	1.63262
 570	1	4	0.461698	-26.1608	-19.2855	2.5406
 571	1	3	0.091945	-26.4391	-17.9693	2.90877
 572	1	1	-0.10563	-31.5868	-19.4478	-3.44129
 573	1	5	-0.099376	-31.5118	-17.6698	0.0568478
 574	1	1	-0.043296	-31.2339	-18.0455	-1.43039
 575	1	1	-0.073043	-31.8465	-19.153	-2.08691
 576	1	1	-0.117827	-30.7336	-18.5968	-4.14955
 577	1	1	-0.037562	-30.3589	-17.2224	-2.18837
 578	1	1	-0.083705	-30.1551	-17.5028	-3.54505
 579	1	5	0.396	-32.3215	-16.3089	0.0428742
 580	1	5	0.310495	-32.3738	-18.7381	0.846662
 581	1	6	-0.130298	-32.7832	-15.9474	1.26139
 582	1	6	-0.128745	-33.3974	-16.3827	-0.773237
 583	1	6	-0.120019	-31.5904	-15.2661	-0.409838
 584	1	6	-0.104287	-31.8653	-19.9883	0.765993
 585	1	6	-0.095507	-33.6526	-18.8138	0.413774
 586	1	6	-0.104872	-32.425	-18.4579	2.1688
 587	1	3	0.456145	-29.3866	-16.7557	-4.57759
 588	1	3	0.550902	-30.3164	-18.6151	-5.57685
 589	1	4	0.015704	-29.5383	-17.4755	-5.75978
 590	1	2	-0.456801	-28.7891	-15.7076	-4.40379
 591	1	2	-0.487703	-30.6254	-19.4613	-6.39841
 592	1	1	-0.116566	-28.9727	-17.0925	-7.01904
 593	1	1	-0.050109	-29.8114	-16.7475	-8.1116
 594	1	1	0.154929	-29.2328	-16.4723	-9.3778
 595	1	1	0.041555	-27.5682	-17.1123	-7.19072
 596	1	1	-0.223109	-27.0131	-16.7751	-8.43484
 597	1	1	-0.080449	-27.8293	-16.4674	-9.53268
 598	1	5	-0.108008	-26.6182	-17.5124	-6.06641
 599	1	5	-0.182228	-27.175	-16.1639	-10.8779
 600	1	5	-0.345523	-31.3367	-16.7129	-7.94103
 601	1	7	0.155183	-29.514	-19.5866	0.10275
 602	1	7	0.172904	-30.3735	-15.6224	1.71755
 603	1	7	0.158028	-28.221	-15.6657	2.9357
 604	1	7	0.153129	-32.0573	-20.2965	-3.93458
 605	1	7	0.142914	-32.5415	-19.8035	-1.56861
 606	1	7	0.135531	-29.8627	-16.3623	-1.7461
 607	1	7	0.17765	-25.9334	-16.7871	-8.55773
 608	1	9	0.046541	-26.4631	-16.6795	-5.36972
 609	1	9	0.045238	-25.6343	-17.8004	-6.45657
 610	1	9	0.051941	-26.998	-18.37	-5.49816
 611	1	9	0.087961	-27.454	-15.165	-11.2383
 612	1	9	0.066782	-27.4689	-16.8982	-11.6393
 613	1	9	0.075908	-26.08	-16.1878	-10.8121
 614	1	9	0.105172	-31.8159	-15.9717	-8.59177
 615	1	9	0.115625	-31.6369	-16.4372	-6.92351
 616	1	9	0.140296	-31.7762	-17.6947	-8.16763
 617	1	1	-0.004194	-24.028	-25.044	13.973
 618	1	1	-0.097141	-23.9918	-24.9648	12.5559
 619	1	1	-0.172015	-22.8905	-25.5562	11.8742
 620	1	2	-0.377994	-23.5998	-25.6549	16.975
 621	1	1	0.033493	-22.9905	-25.7017	14.639
 622	1	1	-0.063739	-21.8589	-26.224	12.5671
 623	1	2	-0.398381	-20.0968	-27.6724	14.6906
 624	1	1	0.032144	-21.943	-26.2891	13.9598