pySIMM System Object

730 atoms
794 bonds
1404 angles
2076 dihedrals
208 impropers

9 atom types
11 bond types
18 angle types
7 dihedral types
4 improper types

-140.657853 140.657853 xlo xhi
-140.657853 140.657853 ylo yhi
-140.657853 140.657853 zlo zhi

Masses

   1	12.01	# ca
   2	16.0	# o
   3	12.01	# c
   4	14.01	# n
   5	12.01	# c3
   6	19.0	# f
   7	1.008	# ha
   8	1.008	# hn
   9	1.008	# hc

Pair Coeffs

   1	0.086	3.3996695084235347	# ca
   2	0.21	2.959921901149463	# o
   3	0.086	3.3996695084235347	# c
   4	0.17	3.249998523775958	# n
   5	0.1094	3.3996695084235347	# c3
   6	0.061	3.1181455134911875	# f
   7	0.015	2.59964245953351	# ha
   8	0.0157	1.069078461768407	# hn
   9	0.0157	2.649532787749369	# hc

Bond Coeffs

   1	321.0	1.5156	# c3,ca
   2	300.9	1.5375	# c3,c3
   3	384.2	1.4121	# ca,n
   4	330.6	1.0969	# c3,hc
   5	637.7	1.2183	# c,o
   6	403.2	1.0129	# hn,n
   7	356.9	1.3497	# c3,f
   8	461.1	1.3984	# ca,ca
   9	427.6	1.3789	# c,n
  10	345.9	1.4906	# c,ca
  11	345.8	1.086	# ca,ha

Angle Coeffs

   1	70.89	107.36	# f,c3,f
   2	68.72	122.6	# ca,c,o
   3	67.87	120.19	# ca,ca,n
   4	67.68	115.25	# ca,c,n
   5	46.8	110.47	# ca,c3,hc
   6	74.22	123.05	# n,c,o
   7	48.33	117.55	# c,n,hn
   8	63.56	112.24	# ca,c3,ca
   9	62.86	111.51	# c3,c3,c3
  10	66.11	109.24	# c3,c3,f
  11	64.28	120.33	# c,ca,ca
  12	66.62	120.02	# ca,ca,ca
  13	63.74	127.08	# c,n,c
  14	39.4	107.58	# hc,c3,hc
  15	48.18	119.88	# ca,ca,ha
  16	63.15	112.07	# c3,c3,ca
  17	63.53	120.77	# c3,ca,ca
  18	63.82	123.71	# c,n,ca

Dihedral Coeffs

   1	2	2.5	2	180	2.0	1	0	# hn,n,c,o
   2	1	3.625	2	180	# X,ca,ca,X
   3	1	0.0	2	0	# X,c3,ca,X
   4	1	1.0	2	180	# X,c,ca,X
   5	1	0.15555555555555556	3	0	# X,c3,c3,X
   6	1	2.5	2	180	# X,c,n,X
   7	1	0.45	2	180	# X,ca,n,X

Improper Coeffs

   1	1.1	-1	2	# n,X,X,hn
   2	1.1	-1	2	# ca,ca,ca,c3
   3	1.1	-1	2	# ca,X,X,ha
   4	10.5	-1	2	# c,X,X,o

Atoms

   1	1	1	-0.004194	40.5175	-26.6067	12.5379
   2	1	1	-0.097141	41.5298	-27.5194	12.1438
   3	1	1	-0.172015	42.7824	-26.9833	11.7251
   4	1	2	-0.377994	38.5436	-24.2847	12.6346
   5	1	1	0.033493	40.7301	-25.2399	12.3611
   6	1	1	-0.063739	42.9891	-25.5908	11.5945
   7	1	2	-0.398381	42.5693	-22.5329	11.1169
   8	1	1	0.032144	41.9235	-24.7357	11.8914
   9	1	3	0.032313	39.7268	-24.1568	12.3659
  10	1	4	0.461698	40.3805	-23.0523	11.8234
  11	1	3	0.091945	41.7376	-23.2875	11.5945
  12	1	1	-0.10563	37.6752	-28.6017	10.6694
  13	1	5	-0.099376	41.2361	-29.053	12.1559
  14	1	1	-0.043296	39.6996	-29.2639	11.9382
  15	1	1	-0.073043	39.0735	-28.617	10.8325
  16	1	1	-0.117827	36.9013	-29.2771	11.6152
  17	1	1	-0.037562	38.8721	-29.9932	12.8384
  18	1	1	-0.083705	37.4824	-29.9743	12.654
  19	1	5	0.396	41.7543	-29.5946	13.5406
  20	1	5	0.310495	41.9601	-29.8234	10.9822
  21	1	6	-0.130298	41.0664	-29.0493	14.5698
  22	1	6	-0.128745	43.0504	-29.2764	13.7609
  23	1	6	-0.120019	41.6609	-30.9397	13.6422
  24	1	6	-0.104287	43.2844	-30.0073	11.179
  25	1	6	-0.095507	41.8382	-29.175	9.80184
  26	1	6	-0.104872	41.4308	-31.0546	10.8017
  27	1	3	0.456145	36.3946	-30.462	13.5482
  28	1	3	0.550902	35.4305	-29.27	11.8213
  29	1	4	0.015704	35.2197	-29.9417	13.0181
  30	1	2	-0.456801	36.5431	-31.0651	14.5971
  31	1	2	-0.487703	34.6172	-28.6597	11.1485
  32	1	1	-0.116566	33.9788	-29.8602	13.7148
  33	1	1	-0.050109	33.7834	-28.8096	14.6402
  34	1	1	0.154929	32.5055	-28.5973	15.1889
  35	1	1	0.041555	32.9099	-30.7246	13.3916
  36	1	1	-0.223109	31.6376	-30.4905	13.9457
  37	1	1	-0.080449	31.4243	-29.4171	14.8258
  38	1	5	-0.108008	33.1059	-31.8997	12.4429
  39	1	5	-0.182228	30.0287	-29.1408	15.3622
  40	1	5	-0.345523	34.9315	-27.8833	15.0372
  41	1	7	0.155183	39.5394	-26.9346	12.8797
  42	1	7	0.172904	43.603	-27.6407	11.4552
  43	1	7	0.158028	43.9214	-25.1909	11.2018
  44	1	7	0.153129	37.2041	-28.0267	9.87325
  45	1	7	0.142914	39.6702	-28.0389	10.1325
  46	1	7	0.135531	39.261	-30.5088	13.71
  47	1	7	0.17765	30.8037	-31.131	13.6738
  48	1	9	0.046541	33.9255	-32.5441	12.7857
  49	1	9	0.045238	33.3421	-31.5572	11.4283
  50	1	9	0.051941	32.2067	-32.5248	12.3816
  51	1	9	0.087961	30.0067	-28.2429	15.9933
  52	1	9	0.066782	29.6636	-29.9819	15.9635
  53	1	9	0.075908	29.3221	-28.9792	14.5384
  54	1	9	0.105172	35.3195	-27.33	14.1727
  55	1	9	0.115625	35.7565	-28.4527	15.4849
  56	1	9	0.140296	34.6165	-27.1424	15.7828
  57	1	1	-0.004194	33.1346	-21.1881	1.63254
  58	1	1	-0.097141	33.8076	-22.3601	2.0985
  59	1	1	-0.172015	34.3227	-23.2393	1.0963
  60	1	2	-0.377994	31.6249	-18.9693	0.0340764
  61	1	1	0.033493	32.8695	-21.0336	0.264812
  62	1	1	-0.063739	34.0191	-23.0838	-0.271176
  63	1	2	-0.398381	32.7944	-22.2803	-3.0031
  64	1	1	0.032144	33.2504	-21.9867	-0.651669
  65	1	3	0.032313	32.0938	-19.9838	-0.453973
  66	1	4	0.461698	32.0186	-20.4256	-1.77797
  67	1	3	0.091945	32.6924	-21.6286	-1.97693
  68	1	1	-0.10563	37.0515	-20.6796	4.52647
  69	1	5	-0.099376	33.8573	-22.7596	3.62961
  70	1	1	-0.043296	35.156	-22.2688	4.33685
  71	1	1	-0.073043	36.0013	-21.2677	3.77737
  72	1	1	-0.117827	37.2516	-21.1108	5.8467
  73	1	1	-0.037562	35.4373	-22.7097	5.65518
  74	1	1	-0.083705	36.4776	-22.1211	6.37233
  75	1	5	0.396	33.723	-24.3437	3.75235
  76	1	5	0.310495	32.6464	-22.0931	4.40767
  77	1	6	-0.130298	34.8972	-24.9649	3.49463
  78	1	6	-0.128745	32.7967	-24.8383	2.89964
  79	1	6	-0.120019	33.3581	-24.8137	4.964
  80	1	6	-0.104287	31.4685	-22.305	3.7785
  81	1	6	-0.095507	32.814	-20.7585	4.54869
  82	1	6	-0.104872	32.4846	-22.524	5.67769
  83	1	3	0.456145	36.8446	-22.3149	7.79264
  84	1	3	0.550902	38.1348	-20.5998	6.94323
  85	1	4	0.015704	37.7997	-21.349	8.06934
  86	1	2	-0.456801	36.3469	-23.1228	8.55713
  87	1	2	-0.487703	38.9237	-19.6738	6.86441
  88	1	1	-0.116566	38.2905	-21.1557	9.39642
  89	1	1	-0.050109	39.3487	-21.9601	9.88587
  90	1	1	0.154929	39.6272	-21.9733	11.2807
  91	1	1	0.041555	37.5592	-20.3341	10.2856
  92	1	1	-0.223109	37.9244	-20.2756	11.639
  93	1	1	-0.080449	38.9359	-21.1002	12.1518
  94	1	5	-0.108008	36.3263	-19.547	9.84782
  95	1	5	-0.182228	39.1797	-21.0991	13.6586
  96	1	5	-0.345523	40.1441	-22.8634	8.92754
  97	1	7	0.155183	32.7404	-20.4258	2.2913
  98	1	7	0.172904	34.8994	-24.1178	1.35792
  99	1	7	0.158028	34.3332	-23.8169	-1.01135
 100	1	7	0.153129	37.6561	-19.8751	4.11194
 101	1	7	0.142914	35.8155	-20.8939	2.77507
 102	1	7	0.135531	34.82	-23.4354	6.172
 103	1	7	0.17765	37.3523	-19.6464	12.3159
 104	1	9	0.046541	35.7743	-20.036	9.0373
 105	1	9	0.045238	36.6016	-18.5402	9.51286
 106	1	9	0.051941	35.6161	-19.4409	10.6778
 107	1	9	0.087961	40.2481	-21.1641	13.8999
 108	1	9	0.066782	38.6683	-21.9433	14.1396
 109	1	9	0.075908	38.801	-20.1814	14.1262
 110	1	9	0.105172	39.7569	-22.8883	7.90466
 111	1	9	0.115625	40.1727	-23.9055	9.26692
 112	1	9	0.140296	41.1803	-22.5047	8.84508
 113	1	1	-0.004194	22.0091	-18.1601	-2.36394
 114	1	1	-0.097141	22.3015	-19.0746	-1.31837
 115	1	1	-0.172015	22.1936	-18.6133	0.0254458
 116	1	2	-0.377994	21.2982	-15.7509	-4.15903
 117	1	1	0.033493	21.7021	-16.8351	-2.04481
 118	1	1	-0.063739	21.8273	-17.2833	0.324811
 119	1	2	-0.398381	20.7923	-14.3443	0.239185
 120	1	1	0.032144	21.5932	-16.4079	-0.738598
 121	1	3	0.032313	21.3294	-15.7161	-2.93959
 122	1	4	0.461698	20.916	-14.6911	-2.08722
 123	1	3	0.091945	21.0904	-15.008	-0.740351
 124	1	1	-0.10563	25.0322	-21.5937	-4.64195
 125	1	5	-0.099376	22.7306	-20.5286	-1.68643
 126	1	1	-0.043296	23.728	-20.4583	-2.8776
 127	1	1	-0.073043	23.8924	-21.5201	-3.81362
 128	1	1	-0.117827	25.9742	-20.5622	-4.55762
 129	1	1	-0.037562	24.6742	-19.4038	-2.88594
 130	1	1	-0.083705	25.7598	-19.4646	-3.75244
 131	1	5	0.396	21.4146	-21.3342	-1.99669
 132	1	5	0.310495	23.5384	-21.254	-0.539368
 133	1	6	-0.130298	20.8386	-20.9082	-3.14251
 134	1	6	-0.128745	20.4963	-21.1731	-1.01686
 135	1	6	-0.120019	21.6067	-22.667	-2.11636
 136	1	6	-0.104287	22.7784	-21.596	0.524143
 137	1	6	-0.095507	24.5508	-20.4817	-0.0817331
 138	1	6	-0.104872	24.114	-22.4005	-0.971036
 139	1	3	0.456145	26.9957	-18.6543	-3.69812
 140	1	3	0.550902	27.3991	-20.5347	-4.98292
 141	1	4	0.015704	27.9455	-19.4243	-4.34736
 142	1	2	-0.456801	27.1665	-17.6556	-3.02008
 143	1	2	-0.487703	27.993	-21.4439	-5.53691
 144	1	1	-0.116566	29.3437	-19.2585	-4.14463
 145	1	1	-0.050109	29.9454	-19.7708	-2.96578
 146	1	1	0.154929	31.36	-19.7422	-2.84249
 147	1	1	0.041555	30.1241	-18.6682	-5.15631
 148	1	1	-0.223109	31.5145	-18.6068	-4.99978
 149	1	1	-0.080449	32.1397	-19.1485	-3.8657
 150	1	5	-0.108008	29.4935	-18.1385	-6.43893
 151	1	5	-0.182228	33.6647	-19.1338	-3.82107
 152	1	5	-0.345523	29.0534	-20.3987	-1.87987
 153	1	7	0.155183	22.0385	-18.4593	-3.40927
 154	1	7	0.172904	22.3763	-19.2773	0.863415
 155	1	7	0.158028	21.7143	-16.9433	1.35198
 156	1	7	0.153129	25.2297	-22.4771	-5.24683
 157	1	7	0.142914	23.2137	-22.365	-3.82712
 158	1	7	0.135531	24.6573	-18.6111	-2.14206
 159	1	7	0.17765	32.1194	-18.1775	-5.79374
 160	1	9	0.046541	29.2105	-18.966	-7.10186
 161	1	9	0.045238	30.1854	-17.4917	-6.99185
 162	1	9	0.051941	28.594	-17.5456	-6.231
 163	1	9	0.087961	34.0541	-19.0166	-2.80258
 164	1	9	0.066782	34.0727	-18.3062	-4.41405
 165	1	9	0.075908	34.0693	-20.0666	-4.23652
 166	1	9	0.105172	28.2298	-19.728	-1.6052
 167	1	9	0.115625	29.5687	-20.5959	-0.935098
 168	1	9	0.140296	28.6185	-21.3478	-2.21799
 169	1	1	-0.004194	20.1867	-3.43396	-4.50025
 170	1	1	-0.097141	21.5951	-3.36056	-4.29121
 171	1	1	-0.172015	22.3752	-2.62438	-5.22584
 172	1	2	-0.377994	17.2518	-3.25614	-5.62088
 173	1	1	0.033493	19.6505	-2.92488	-5.69468
 174	1	1	-0.063739	21.8284	-2.16635	-6.43608
 175	1	2	-0.398381	20.148	-1.84858	-8.97396
 176	1	1	0.032144	20.4722	-2.39013	-6.66204
 177	1	3	0.032313	18.2568	-2.93709	-6.23448
 178	1	4	0.461698	18.3678	-2.49738	-7.56227
 179	1	3	0.091945	19.6862	-2.17503	-7.89242
 180	1	1	-0.10563	19.7131	-6.50109	-1.31445
 181	1	5	-0.099376	22.2787	-4.0911	-3.09832
 182	1	1	-0.043296	21.4167	-5.35736	-2.72228
 183	1	1	-0.073043	20.4551	-5.3536	-1.66436
 184	1	1	-0.117827	19.9572	-7.68434	-2.01452
 185	1	1	-0.037562	21.5633	-6.57603	-3.44898
 186	1	1	-0.083705	20.8575	-7.71803	-3.05329
 187	1	5	0.396	22.4098	-3.05992	-1.90743
 188	1	5	0.310495	23.7466	-4.5947	-3.47927
 189	1	6	-0.130298	23.2095	-2.0075	-2.19234
 190	1	6	-0.128745	22.901	-3.64977	-0.793776
 191	1	6	-0.120019	21.2315	-2.48135	-1.58907
 192	1	6	-0.104287	23.8151	-5.08726	-4.73825
 193	1	6	-0.095507	24.1725	-5.57169	-2.64691
 194	1	6	-0.104872	24.7139	-3.65213	-3.43675
 195	1	3	0.456145	20.9104	-9.1114	-3.57846
 196	1	3	0.550902	19.3941	-9.05042	-1.84289
 197	1	4	0.015704	20.0224	-9.84299	-2.79827
 198	1	2	-0.456801	21.6098	-9.50858	-4.49397
 199	1	2	-0.487703	18.5269	-9.37074	-1.048
 200	1	1	-0.116566	19.7106	-11.2263	-2.98614
 201	1	1	-0.050109	20.5575	-12.2515	-2.48678
 202	1	1	0.154929	20.1188	-13.6036	-2.5464
 203	1	1	0.041555	18.4886	-11.5588	-3.61114
 204	1	1	-0.223109	18.0549	-12.8893	-3.62464
 205	1	1	-0.080449	18.8327	-13.9058	-3.0589
 206	1	5	-0.108008	17.597	-10.5022	-4.2521
 207	1	5	-0.182228	18.2374	-15.3139	-3.01213
 208	1	5	-0.345523	21.9065	-11.878	-1.85987
 209	1	7	0.155183	19.5229	-3.92345	-3.79399
 210	1	7	0.172904	23.4355	-2.4592	-5.06597
 211	1	7	0.158028	22.4444	-1.68952	-7.19533
 212	1	7	0.153129	18.9874	-6.47707	-0.503134
 213	1	7	0.142914	20.2555	-4.46773	-1.078
 214	1	7	0.135531	22.2337	-6.67955	-4.29216
 215	1	7	0.17765	17.0904	-13.133	-4.06154
 216	1	9	0.046541	18.183	-9.79822	-4.85585
 217	1	9	0.045238	17.0484	-9.93361	-3.49172
 218	1	9	0.051941	16.858	-10.9574	-4.92337
 219	1	9	0.087961	17.1417	-15.2864	-3.05993
 220	1	9	0.066782	18.4913	-15.8376	-2.08147
 221	1	9	0.075908	18.5881	-15.9236	-3.85465
 222	1	9	0.105172	22.5899	-12.7286	-1.7581
 223	1	9	0.115625	21.7655	-11.4541	-0.856617
 224	1	9	0.140296	22.4448	-11.1394	-2.46707
 225	1	1	-0.004194	8.47768	-3.89628	-12.5478
 226	1	1	-0.097141	8.3667	-5.05461	-11.7277
 227	1	1	-0.172015	7.49026	-4.99231	-10.604
 228	1	2	-0.377994	8.0309	-1.21001	-14.0896
 229	1	1	0.033493	7.69016	-2.77269	-12.2654
 230	1	1	-0.063739	6.75067	-3.83086	-10.303
 231	1	2	-0.398381	5.34214	-1.07004	-10.3092
 232	1	1	0.032144	6.86123	-2.73925	-11.1644
 233	1	3	0.032313	7.49404	-1.51213	-13.0371
 234	1	4	0.461698	6.52858	-0.800917	-12.3251
 235	1	3	0.091945	6.1275	-1.45265	-11.161
 236	1	1	-0.10563	12.9478	-6.19823	-13.0446
 237	1	5	-0.099376	9.13773	-6.35364	-12.1353
 238	1	1	-0.043296	10.6624	-6.0422	-12.1045
 239	1	1	-0.073043	11.5654	-6.47684	-13.1169
 240	1	1	-0.117827	13.4296	-5.5167	-11.9202
 241	1	1	-0.037562	11.1967	-5.35437	-10.9833
 242	1	1	-0.083705	12.5771	-5.12395	-10.9107
 243	1	5	0.396	8.58095	-6.78065	-13.5583
 244	1	5	0.310495	8.92861	-7.56981	-11.1475
 245	1	6	-0.130298	9.00883	-5.97241	-14.5537
 246	1	6	-0.128745	7.22909	-6.72751	-13.5909
 247	1	6	-0.120019	8.92229	-8.03494	-13.9285
 248	1	6	-0.104287	7.65567	-8.02702	-11.1442
 249	1	6	-0.095507	9.2495	-7.26465	-9.86967
 250	1	6	-0.104872	9.7234	-8.61782	-11.4646
 251	1	3	0.456145	13.3666	-4.35915	-9.90759
 252	1	3	0.550902	14.7899	-4.98742	-11.6114
 253	1	4	0.015704	14.6513	-4.26155	-10.431
 254	1	2	-0.456801	12.9154	-3.79338	-8.92702
 255	1	2	-0.487703	15.7572	-5.03539	-12.3518
 256	1	1	-0.116566	15.5646	-3.24286	-10.0088
 257	1	1	-0.050109	16.4842	-3.43371	-8.94182
 258	1	1	0.154929	17.3008	-2.34082	-8.51016
 259	1	1	0.041555	15.4858	-1.99609	-10.6661
 260	1	1	-0.223109	16.2565	-0.925516	-10.2082
 261	1	1	-0.080449	17.1291	-1.06906	-9.12396
 262	1	5	-0.108008	14.5803	-1.76258	-11.8736
 263	1	5	-0.182228	17.8778	0.192344	-8.69182
 264	1	5	-0.345523	16.5485	-4.82131	-8.29194
 265	1	7	0.155183	9.1228	-3.87108	-13.4203
 266	1	7	0.172904	7.33647	-5.84526	-9.95258
 267	1	7	0.158028	6.07221	-3.79292	-9.45303
 268	1	7	0.153129	13.6231	-6.49379	-13.8456
 269	1	7	0.142914	11.2106	-7.02909	-13.9806
 270	1	7	0.135531	10.5552	-5.00166	-10.179
 271	1	7	0.17765	16.1806	0.0354655	-10.7096
 272	1	9	0.046541	13.5817	-2.19283	-11.7361
 273	1	9	0.045238	15.0215	-2.20428	-12.7765
 274	1	9	0.051941	14.4384	-0.693086	-12.0694
 275	1	9	0.087961	18.8051	0.316856	-9.2666
 276	1	9	0.066782	18.13	0.190391	-7.62477
 277	1	9	0.075908	17.2723	1.08985	-8.86931
 278	1	9	0.105172	16.5657	-5.61844	-9.04504
 279	1	9	0.115625	15.6684	-4.98175	-7.6533
 280	1	9	0.140296	17.43	-4.98295	-7.66398
 281	1	1	-0.004194	-5.42139	2.77714	-11.8143
 282	1	1	-0.097141	-4.03013	2.6743	-12.0896
 283	1	1	-0.172015	-3.1563	2.4977	-10.9744
 284	1	2	-0.377994	-8.22408	3.17182	-10.586
 285	1	1	0.033493	-5.87394	2.65259	-10.4936
 286	1	1	-0.063739	-3.63648	2.34679	-9.65386
 287	1	2	-0.398381	-5.34321	2.39879	-7.03432
 288	1	1	0.032144	-5.01411	2.43129	-9.43827
 289	1	3	0.032313	-7.23311	2.86821	-9.943
 290	1	4	0.461698	-7.09347	2.79678	-8.55588
 291	1	3	0.091945	-5.79082	2.49166	-8.16521
 292	1	1	-0.10563	-0.796416	0.152812	-12.8453
 293	1	5	-0.099376	-3.4584	2.85015	-13.5436
 294	1	1	-0.043296	-2.11741	2.0558	-13.6808
 295	1	1	-0.073043	-2.03631	0.770537	-13.0787
 296	1	1	-0.117827	0.348264	0.790526	-13.3268
 297	1	1	-0.037562	-0.943711	2.58046	-14.3028
 298	1	1	-0.083705	0.279385	1.91288	-14.1176
 299	1	5	0.396	-3.26085	4.39987	-13.7544
 300	1	5	0.310495	-4.4339	2.28535	-14.645
 301	1	6	-0.130298	-2.24625	4.87181	-12.9944
 302	1	6	-0.128745	-4.35601	5.10751	-13.3947
 303	1	6	-0.120019	-2.9991	4.73137	-15.0391
 304	1	6	-0.104287	-5.50806	3.07396	-14.8742
 305	1	6	-0.095507	-4.90351	1.06395	-14.3054
 306	1	6	-0.104872	-3.81055	2.14218	-15.8366
 307	1	3	0.456145	1.68046	2.31107	-14.464
 308	1	3	0.550902	1.76897	0.531312	-13.0098
 309	1	4	0.015704	2.51796	1.48301	-13.7065
 310	1	2	-0.456801	1.98823	3.19667	-15.2423
 311	1	2	-0.487703	2.13621	-0.242466	-12.1419
 312	1	1	-0.116566	3.93832	1.62603	-13.4744
 313	1	1	-0.050109	4.7491	0.457444	-13.4621
 314	1	1	0.154929	5.95414	0.441818	-12.715
 315	1	1	0.041555	4.4862	2.83807	-12.972
 316	1	1	-0.223109	5.75775	2.83342	-12.3723
 317	1	1	-0.080449	6.46243	1.63904	-12.1715
 318	1	5	-0.108008	3.75668	4.17688	-13.0183
 319	1	5	-0.182228	7.74793	1.66388	-11.349
 320	1	5	-0.345523	4.3098	-0.801721	-14.2212
 321	1	7	0.155183	-6.15116	3.00145	-12.5844
 322	1	7	0.172904	-2.07858	2.48893	-11.1206
 323	1	7	0.158028	-2.95691	2.21854	-8.81392
 324	1	7	0.153129	-0.720619	-0.751832	-12.2452
 325	1	7	0.142914	-2.92693	0.311661	-12.6565
 326	1	7	0.135531	-0.936068	3.52714	-14.8328
 327	1	7	0.17765	6.16192	3.76034	-11.9741
 328	1	9	0.046541	2.72486	4.10082	-12.6583
 329	1	9	0.045238	3.74382	4.57125	-14.0422
 330	1	9	0.051941	4.25529	4.93496	-12.4021
 331	1	9	0.087961	7.69237	0.977427	-10.4938
 332	1	9	0.066782	7.95016	2.66191	-10.9404
 333	1	9	0.075908	8.61311	1.37879	-11.9613
 334	1	9	0.105172	5.16876	-1.3452	-14.6349
 335	1	9	0.115625	3.68408	-0.546416	-15.0862
 336	1	9	0.140296	3.75009	-1.49998	-13.5862
 337	1	1	-0.004194	-13.9158	0.54301	2.1901
 338	1	1	-0.097141	-12.6893	0.766056	1.51398
 339	1	1	-0.172015	-11.8475	1.80172	2.03947
 340	1	2	-0.377994	-16.3266	0.398953	4.03448
 341	1	1	0.033493	-14.2522	1.33645	3.28044
 342	1	1	-0.063739	-12.2333	2.62368	3.12574
 343	1	2	-0.398381	-13.7795	3.98091	5.53247
 344	1	1	0.032144	-13.4638	2.36927	3.73433
 345	1	3	0.032313	-15.4523	1.24469	4.11984
 346	1	4	0.461698	-15.3296	2.2759	5.03983
 347	1	3	0.091945	-14.1617	3.02151	4.88284
 348	1	1	-0.10563	-12.0704	3.25482	-1.79025
 349	1	5	-0.099376	-12.3001	-0.0348004	0.21058
 350	1	1	-0.043296	-12.2785	0.926644	-1.02326
 351	1	1	-0.073043	-12.5014	2.32232	-0.843088
 352	1	1	-0.117827	-11.5707	2.76605	-2.99106
 353	1	1	-0.037562	-11.9121	0.479505	-2.33086
 354	1	1	-0.083705	-11.6161	1.43652	-3.32042
 355	1	5	0.396	-13.2979	-1.23545	-0.0632772
 356	1	5	0.310495	-10.8483	-0.622039	0.431109
 357	1	6	-0.130298	-13.3981	-2.06304	1.00319
 358	1	6	-0.128745	-12.9573	-2.02959	-1.0999
 359	1	6	-0.120019	-14.5353	-0.783628	-0.370064
 360	1	6	-0.104287	-10.7292	-1.20085	1.64767
 361	1	6	-0.095507	-9.89272	0.330189	0.351176
 362	1	6	-0.104872	-10.4809	-1.54845	-0.479841
 363	1	3	0.456145	-11.1795	1.31861	-4.75194
 364	1	3	0.550902	-10.909	3.49607	-4.07621
 365	1	4	0.015704	-10.7613	2.60351	-5.14541
 366	1	2	-0.456801	-11.3188	0.314944	-5.42675
 367	1	2	-0.487703	-10.4803	4.6314	-3.94178
 368	1	1	-0.116566	-10.1832	3.07678	-6.39308
 369	1	1	-0.050109	-9.06456	2.46541	-7.03683
 370	1	1	0.154929	-8.11626	3.29679	-7.69854
 371	1	1	0.041555	-10.4932	4.41339	-6.76026
 372	1	1	-0.223109	-9.47665	5.23879	-7.24778
 373	1	1	-0.080449	-8.2414	4.70005	-7.61194
 374	1	5	-0.108008	-11.8522	5.05962	-6.50572
 375	1	5	-0.182228	-7.08683	5.64794	-7.92797
 376	1	5	-0.345523	-8.91253	0.944137	-7.08529
 377	1	7	0.155183	-14.6388	-0.21156	1.90762
 378	1	7	0.172904	-10.908	2.04509	1.55432
 379	1	7	0.158028	-11.6031	3.43865	3.47639
 380	1	7	0.153129	-12.0983	4.32156	-1.58201
 381	1	7	0.142914	-12.9184	2.73411	0.066714
 382	1	7	0.135531	-11.7758	-0.571306	-2.56621
 383	1	7	0.17765	-9.64434	6.31034	-7.31061
 384	1	9	0.046541	-12.5818	4.34037	-6.1238
 385	1	9	0.045238	-12.262	5.46467	-7.43875
 386	1	9	0.051941	-11.7769	5.89019	-5.79357
 387	1	9	0.087961	-6.62072	5.45129	-8.89957
 388	1	9	0.066782	-6.31033	5.55776	-7.15458
 389	1	9	0.075908	-7.41122	6.69576	-7.92515
 390	1	9	0.105172	-9.86903	0.471902	-7.34024
 391	1	9	0.115625	-8.56661	0.533333	-6.12923
 392	1	9	0.140296	-8.22425	0.594471	-7.86269
 393	1	1	-0.004194	-24.8639	5.23165	4.40485
 394	1	1	-0.097141	-25.8983	4.42412	4.93433
 395	1	1	-0.172015	-26.6532	4.92883	6.03344
 396	1	2	-0.377994	-22.5276	7.11747	3.92507
 397	1	1	0.033493	-24.4919	6.37551	5.08972
 398	1	1	-0.063739	-26.335	6.17269	6.63107
 399	1	2	-0.398381	-25.0731	8.96729	7.34637
 400	1	1	0.032144	-25.2129	6.86243	6.15571
 401	1	3	0.032313	-23.3635	7.27067	4.80148
 402	1	4	0.461698	-23.5641	8.35714	5.64184
 403	1	3	0.091945	-24.6226	8.17545	6.53522
 404	1	1	-0.10563	-22.5474	1.53863	3.17392
 405	1	5	-0.099376	-25.9884	2.97093	4.38445
 406	1	1	-0.043296	-24.5085	2.471	4.35343
 407	1	1	-0.073043	-23.9381	1.77419	3.25103
 408	1	1	-0.117827	-21.7326	2.04694	4.19385
 409	1	1	-0.037562	-23.6474	2.85978	5.41781
 410	1	1	-0.083705	-22.2698	2.70895	5.27224
 411	1	5	0.396	-26.6752	3.05833	2.9656
 412	1	5	0.310495	-26.796	1.98363	5.30272
 413	1	6	-0.130298	-26.9714	1.85131	2.4344
 414	1	6	-0.128745	-25.8983	3.69955	2.06292
 415	1	6	-0.120019	-27.8344	3.75288	3.0224
 416	1	6	-0.104287	-26.6896	0.706285	4.87247
 417	1	6	-0.095507	-28.1157	2.2726	5.35375
 418	1	6	-0.104872	-26.3328	1.99098	6.57268
 419	1	3	0.456145	-21.165	3.16715	6.15307
 420	1	3	0.550902	-20.2617	1.97733	4.39538
 421	1	4	0.015704	-20.0063	2.63155	5.60349
 422	1	2	-0.456801	-21.2842	3.85859	7.15061
 423	1	2	-0.487703	-19.4815	1.39129	3.66469
 424	1	1	-0.116566	-18.7471	2.53977	6.2795
 425	1	1	-0.050109	-17.5654	2.96925	5.63026
 426	1	1	0.154929	-16.3245	2.42237	6.03365
 427	1	1	0.041555	-18.6531	1.76759	7.46437
 428	1	1	-0.223109	-17.3935	1.38726	7.9489
 429	1	1	-0.080449	-16.2334	1.64016	7.208
 430	1	5	-0.108008	-19.8778	1.22597	8.19614
 431	1	5	-0.182228	-14.9583	0.920407	7.64598
 432	1	5	-0.345523	-17.6298	3.89196	4.40677
 433	1	7	0.155183	-24.2522	4.91306	3.56386
 434	1	7	0.172904	-27.4733	4.35771	6.45827
 435	1	7	0.158028	-26.9116	6.56915	7.46441
 436	1	7	0.153129	-22.1106	1.01051	2.32801
 437	1	7	0.142914	-24.5567	1.43124	2.42809
 438	1	7	0.135531	-24.0226	3.38013	6.29646
 439	1	7	0.17765	-17.3293	0.760506	8.83429
 440	1	9	0.046541	-19.6031	0.477135	8.94842
 441	1	9	0.045238	-20.5788	0.740022	7.50665
 442	1	9	0.051941	-20.4078	2.02756	8.72403
 443	1	9	0.087961	-14.1237	1.02089	6.94363
 444	1	9	0.066782	-15.1491	-0.155071	7.76005
 445	1	9	0.075908	-14.6129	1.29764	8.61633
 446	1	9	0.105172	-17.7186	3.32197	3.47289
 447	1	9	0.115625	-16.7339	4.52323	4.32959
 448	1	9	0.140296	-18.4789	4.58493	4.46671
 449	1	1	-0.004194	-24.9182	11.0826	-5.54729
 450	1	1	-0.097141	-25.1804	11.1483	-4.13872
 451	1	1	-0.172015	-25.242	9.91699	-3.42886
 452	1	2	-0.377994	-24.495	10.2306	-8.56593
 453	1	1	0.033493	-24.767	9.83587	-6.17611
 454	1	1	-0.063739	-25.0143	8.67954	-4.06067
 455	1	2	-0.398381	-24.664	6.35138	-6.02461
 456	1	1	0.032144	-24.8138	8.67392	-5.43994
 457	1	3	0.032313	-24.5869	9.46606	-7.62019
 458	1	4	0.461698	-24.5177	8.0695	-7.62779
 459	1	3	0.091945	-24.6737	7.52543	-6.35429
 460	1	1	-0.10563	-25.8331	13.7117	0.272108
 461	1	5	-0.099376	-25.66	12.4774	-3.44646
 462	1	1	-0.043296	-25.3553	12.5818	-1.89926
 463	1	1	-0.073043	-26.0894	13.5094	-1.09537
 464	1	1	-0.117827	-24.8318	12.9511	0.867403
 465	1	1	-0.037562	-24.3143	11.8558	-1.24839
 466	1	1	-0.083705	-24.1102	12.0299	0.136971
 467	1	5	0.396	-27.2228	12.4866	-3.6991
 468	1	5	0.310495	-24.9903	13.7458	-4.10756
 469	1	6	-0.130298	-27.5528	12.0907	-4.95032
 470	1	6	-0.128745	-27.8034	13.6972	-3.55305
 471	1	6	-0.120019	-27.8472	11.6312	-2.85683
 472	1	6	-0.104287	-25.1679	14.8762	-3.38752
 473	1	6	-0.095507	-25.4735	14.035	-5.33591
 474	1	6	-0.104872	-23.6543	13.5737	-4.21827
 475	1	3	0.456145	-23.2019	11.328	1.09197
 476	1	3	0.550902	-24.3814	12.9172	2.28352
 477	1	4	0.015704	-23.4374	11.9037	2.3424
 478	1	2	-0.456801	-22.5227	10.3487	0.83553
 479	1	2	-0.487703	-24.8446	13.5711	3.20285
 480	1	1	-0.116566	-22.9518	11.3672	3.57479
 481	1	1	-0.050109	-23.5949	10.2418	4.13238
 482	1	1	0.154929	-23.0397	9.61834	5.2779
 483	1	1	0.041555	-21.8387	11.9363	4.23183
 484	1	1	-0.223109	-21.3392	11.3411	5.40556
 485	1	1	-0.080449	-21.9166	10.1726	5.92959
 486	1	5	-0.108008	-21.1731	13.1979	3.70107
 487	1	5	-0.182228	-21.3053	9.54184	7.17901
 488	1	5	-0.345523	-24.871	9.67626	3.47973
 489	1	7	0.155183	-24.9153	11.9572	-6.18491
 490	1	7	0.172904	-25.5234	9.89904	-2.38051
 491	1	7	0.158028	-25.0563	7.7408	-3.51227
 492	1	7	0.153129	-26.3989	14.4376	0.853333
 493	1	7	0.142914	-26.8553	14.1394	-1.52535
 494	1	7	0.135531	-23.6775	11.1624	-1.79059
 495	1	7	0.17765	-20.4766	11.7797	5.90126
 496	1	9	0.046541	-21.9114	13.9943	3.54536
 497	1	9	0.045238	-20.6674	13.0057	2.74718
 498	1	9	0.051941	-20.4255	13.5868	4.40362
 499	1	9	0.087961	-20.5228	8.81738	6.91815
 500	1	9	0.066782	-22.0535	9.02558	7.79364
 501	1	9	0.075908	-20.8478	10.305	7.82202
 502	1	9	0.105172	-24.6296	8.85493	2.79162
 503	1	9	0.115625	-25.4355	10.4246	2.91515
 504	1	9	0.140296	-25.5859	9.30225	4.22316
 505	1	1	-0.004194	-16.215	4.73603	-2.4475
 506	1	1	-0.097141	-17.0511	4.52254	-3.58714
 507	1	1	-0.172015	-17.7592	5.65337	-4.09465
 508	1	2	-0.377994	-14.0911	5.93365	-0.513938
 509	1	1	0.033493	-16.0416	6.03777	-1.94618
 510	1	1	-0.063739	-17.6125	6.93786	-3.54886
 511	1	2	-0.398381	-16.3676	9.46975	-2.48848
 512	1	1	0.032144	-16.7205	7.1035	-2.49615
 513	1	3	0.032313	-14.9408	6.58916	-1.09743
 514	1	4	0.461698	-14.9757	7.97472	-1.3184
 515	1	3	0.091945	-16.0879	8.36194	-2.05993
 516	1	1	-0.10563	-17.9101	3.82821	-8.17779
 517	1	5	-0.099376	-17.0144	3.16765	-4.38549
 518	1	1	-0.043296	-17.8313	3.32228	-5.73405
 519	1	1	-0.073043	-17.1951	3.51895	-7.00228
 520	1	1	-0.117827	-19.2943	3.96799	-8.09163
 521	1	1	-0.037562	-19.2526	3.44819	-5.71668
 522	1	1	-0.083705	-19.9425	3.77715	-6.89275
 523	1	5	0.396	-17.589	1.96796	-3.52317
 524	1	5	0.310495	-15.4907	2.83218	-4.68967
 525	1	6	-0.130298	-18.8923	2.09657	-3.20707
 526	1	6	-0.128745	-16.9715	1.82534	-2.32958
 527	1	6	-0.120019	-17.4653	0.790121	-4.17525
 528	1	6	-0.104287	-15.3347	1.84132	-5.59694
 529	1	6	-0.095507	-14.7753	2.42537	-3.6199
 530	1	6	-0.104872	-14.8423	3.92447	-5.15216
 531	1	3	0.456145	-21.365	4.1611	-7.08112
 532	1	3	0.550902	-20.277	4.47703	-9.09025
 533	1	4	0.015704	-21.4707	4.60393	-8.39574
 534	1	2	-0.456801	-22.2088	4.20085	-6.20466
 535	1	2	-0.487703	-20.0246	4.85494	-10.2212
 536	1	1	-0.116566	-22.6266	5.27767	-8.8916
 537	1	1	-0.050109	-22.8251	6.62904	-8.53323
 538	1	1	0.154929	-24.1053	7.20862	-8.68817
 539	1	1	0.041555	-23.6463	4.57161	-9.56478
 540	1	1	-0.223109	-24.8093	5.25689	-9.95737
 541	1	1	-0.080449	-25.0603	6.5673	-9.51203
 542	1	5	-0.108008	-23.5445	3.07637	-9.8482
 543	1	5	-0.182228	-26.3818	7.22105	-9.89717
 544	1	5	-0.345523	-21.7004	7.41405	-7.84947
 545	1	7	0.155183	-15.5998	3.94835	-2.02717
 546	1	7	0.172904	-18.3659	5.60439	-4.98816
 547	1	7	0.158028	-18.0709	7.80617	-4.01784
 548	1	7	0.153129	-17.3939	4.01817	-9.11714
 549	1	7	0.142914	-16.1194	3.49342	-7.11211
 550	1	7	0.135531	-19.8222	3.43754	-4.79433
 551	1	7	0.17765	-25.5718	4.72827	-10.5244
 552	1	9	0.046541	-24.5332	2.60249	-9.79596
 553	1	9	0.045238	-22.9156	2.55434	-9.11702
 554	1	9	0.051941	-23.1334	2.88884	-10.8468
 555	1	9	0.087961	-26.3481	8.31338	-9.79506
 556	1	9	0.066782	-27.2133	6.83961	-9.29277
 557	1	9	0.075908	-26.6156	7.01462	-10.9511
 558	1	9	0.105172	-21.5245	7.06155	-6.82593
 559	1	9	0.115625	-21.9067	8.49128	-7.80553
 560	1	9	0.140296	-20.7653	7.32078	-8.41763
 561	1	1	-0.004194	-16.2205	19.1726	1.00306
 562	1	1	-0.097141	-15.4697	18.6424	-0.0893898
 563	1	1	-0.172015	-16.2204	18.2481	-1.24087
 564	1	2	-0.377994	-18.1528	20.8231	2.73204
 565	1	1	0.033493	-17.5914	19.4022	0.863529
 566	1	1	-0.063739	-17.6114	18.454	-1.34984
 567	1	2	-0.398381	-20.4352	19.705	-1.14705
 568	1	1	0.032144	-18.2691	19.0715	-0.287838
 569	1	3	0.032313	-18.4683	20.2638	1.69504
 570	1	4	0.461698	-19.6077	20.4655	0.920837
 571	1	3	0.091945	-19.61	19.707	-0.248151
 572	1	1	-0.10563	-11.5212	15.5777	0.681871
 573	1	5	-0.099376	-13.8873	18.5965	-0.0835418
 574	1	1	-0.043296	-13.3732	17.1272	0.104266
 575	1	1	-0.073043	-12.0279	16.878	0.506293
 576	1	1	-0.117827	-12.3595	14.5011	0.395792
 577	1	1	-0.037562	-14.1795	15.9907	-0.202767
 578	1	1	-0.083705	-13.6358	14.6991	-0.0800165
 579	1	5	0.396	-13.3252	19.5504	1.06887
 580	1	5	0.310495	-13.3277	19.1532	-1.45876
 581	1	6	-0.130298	-13.9043	20.7736	1.05131
 582	1	6	-0.128745	-12.0037	19.8259	1.02472
 583	1	6	-0.120019	-13.5238	19.0079	2.29222
 584	1	6	-0.104287	-11.9845	19.298	-1.48276
 585	1	6	-0.095507	-13.862	20.3591	-1.75978
 586	1	6	-0.104872	-13.5722	18.3335	-2.50279
 587	1	3	0.456145	-14.1569	13.3724	-0.533055
 588	1	3	0.550902	-12.05	13.051	0.343247
 589	1	4	0.015704	-13.1203	12.4582	-0.318376
 590	1	2	-0.456801	-15.2126	13.1909	-1.11415
 591	1	2	-0.487703	-11.0045	12.5374	0.704563
 592	1	1	-0.116566	-13.0285	11.1509	-0.912786
 593	1	1	-0.050109	-13.9313	10.1005	-0.587035
 594	1	1	0.154929	-13.8518	8.85718	-1.27831
 595	1	1	0.041555	-12.0256	10.9239	-1.89072
 596	1	1	-0.223109	-11.8876	9.65823	-2.46944
 597	1	1	-0.080449	-12.7908	8.62832	-2.19237
 598	1	5	-0.108008	-11.0706	12.0087	-2.3869
 599	1	5	-0.182228	-12.5998	7.32009	-2.96092
 600	1	5	-0.345523	-15.025	10.3156	0.463058
 601	1	7	0.155183	-15.7747	19.5228	1.92496
 602	1	7	0.172904	-15.7382	17.7973	-2.09916
 603	1	7	0.158028	-18.1484	18.223	-2.26756
 604	1	7	0.153129	-10.4854	15.4118	0.972221
 605	1	7	0.142914	-11.3276	17.6861	0.664626
 606	1	7	0.135531	-15.1935	16.0798	-0.571389
 607	1	7	0.17765	-11.0943	9.4928	-3.19416
 608	1	9	0.046541	-11.5611	12.9859	-2.46943
 609	1	9	0.045238	-10.6799	11.7703	-3.38413
 610	1	9	0.051941	-10.205	12.1069	-1.72092
 611	1	9	0.087961	-12.2281	6.53302	-2.2942
 612	1	9	0.066782	-11.8564	7.42185	-3.76117
 613	1	9	0.075908	-13.5233	6.96766	-3.43477
 614	1	9	0.105172	-15.2467	9.3941	1.01606
 615	1	9	0.115625	-15.9564	10.6635	-0.00490827
 616	1	9	0.140296	-14.7393	11.0581	1.21705
 617	1	1	-0.004194	-25.2759	21.6908	9.29435
 618	1	1	-0.097141	-26.2299	21.9742	8.27662
 619	1	1	-0.172015	-26.502	20.9646	7.30592
 620	1	2	-0.377994	-22.9262	20.5308	11.0104
 621	1	1	0.033493	-24.578	20.4747	9.23665
 622	1	1	-0.063739	-25.7984	19.7529	7.27064
 623	1	2	-0.398381	-23.7257	17.5206	7.56293
 624	1	1	0.032144	-24.8182	19.555	8.23501
 625	1	3	0.032313	-23.4267	19.9809	10.0442
 626	1	4	0.461698	-23.037	18.793	9.42127
 627	1	3	0.091945	-23.8308	18.4655	8.3285
 628	1	1	-0.10563	-26.8548	23.5159	4.11426
 629	1	5	-0.099376	-26.8187	23.3931	8.01026
 630	1	1	-0.043296	-26.3671	23.6542	6.53778
 631	1	1	-0.073043	-27.2801	23.7246	5.44488
 632	1	1	-0.117827	-25.4951	23.2813	3.88345
 633	1	1	-0.037562	-24.9837	23.5212	6.23733
 634	1	1	-0.083705	-24.5831	23.3407	4.91282
 635	1	5	0.396	-26.2469	24.5375	8.94696
 636	1	5	0.310495	-28.3885	23.332	8.222
 637	1	6	-0.130298	-26.6038	24.3838	10.242
 638	1	6	-0.128745	-26.6772	25.7584	8.55935
 639	1	6	-0.120019	-24.8987	24.6143	8.94626
 640	1	6	-0.104287	-28.7131	22.9688	9.48249