pySIMM System Object

1010 atoms
1099 bonds
1944 angles
2876 dihedrals
288 impropers

9 atom types
11 bond types
18 angle types
7 dihedral types
4 improper types

-157.974337 157.974337 xlo xhi
-157.974337 157.974337 ylo yhi
-157.974337 157.974337 zlo zhi

Masses

   1	12.01	# ca
   2	16.0	# o
   3	12.01	# c
   4	14.01	# n
   5	12.01	# c3
   6	19.0	# f
   7	1.008	# ha
   8	1.008	# hn
   9	1.008	# hc

Pair Coeffs

   1	0.086	3.3996695084235347	# ca
   2	0.21	2.959921901149463	# o
   3	0.086	3.3996695084235347	# c
   4	0.17	3.249998523775958	# n
   5	0.1094	3.3996695084235347	# c3
   6	0.061	3.1181455134911875	# f
   7	0.015	2.59964245953351	# ha
   8	0.0157	1.069078461768407	# hn
   9	0.0157	2.649532787749369	# hc

Bond Coeffs

   1	321.0	1.5156	# c3,ca
   2	300.9	1.5375	# c3,c3
   3	384.2	1.4121	# ca,n
   4	330.6	1.0969	# c3,hc
   5	637.7	1.2183	# c,o
   6	403.2	1.0129	# hn,n
   7	356.9	1.3497	# c3,f
   8	461.1	1.3984	# ca,ca
   9	427.6	1.3789	# c,n
  10	345.9	1.4906	# c,ca
  11	345.8	1.086	# ca,ha

Angle Coeffs

   1	70.89	107.36	# f,c3,f
   2	68.72	122.6	# ca,c,o
   3	67.87	120.19	# ca,ca,n
   4	67.68	115.25	# ca,c,n
   5	46.8	110.47	# ca,c3,hc
   6	74.22	123.05	# n,c,o
   7	48.33	117.55	# c,n,hn
   8	63.56	112.24	# ca,c3,ca
   9	62.86	111.51	# c3,c3,c3
  10	66.11	109.24	# c3,c3,f
  11	64.28	120.33	# c,ca,ca
  12	66.62	120.02	# ca,ca,ca
  13	63.74	127.08	# c,n,c
  14	39.4	107.58	# hc,c3,hc
  15	48.18	119.88	# ca,ca,ha
  16	63.15	112.07	# c3,c3,ca
  17	63.53	120.77	# c3,ca,ca
  18	63.82	123.71	# c,n,ca

Dihedral Coeffs

   1	2	2.5	2	180	2.0	1	0	# hn,n,c,o
   2	1	3.625	2	180	# X,ca,ca,X
   3	1	0.0	2	0	# X,c3,ca,X
   4	1	1.0	2	180	# X,c,ca,X
   5	1	0.15555555555555556	3	0	# X,c3,c3,X
   6	1	2.5	2	180	# X,c,n,X
   7	1	0.45	2	180	# X,ca,n,X

Improper Coeffs

   1	1.1	-1	2	# n,X,X,hn
   2	1.1	-1	2	# ca,ca,ca,c3
   3	1.1	-1	2	# ca,X,X,ha
   4	10.5	-1	2	# c,X,X,o

Atoms

   1	1	1	-0.004194	23.2026	-4.67734	-13.1836
   2	1	1	-0.097141	24.2057	-5.62496	-13.5075
   3	1	1	-0.172015	25.5614	-5.18974	-13.473
   4	1	2	-0.377994	21.504	-2.74207	-11.6547
   5	1	1	0.033493	23.5756	-3.46194	-12.6184
   6	1	1	-0.063739	25.9209	-3.95889	-12.8725
   7	1	2	-0.398381	25.9272	-1.70238	-10.7279
   8	1	1	0.032144	24.8952	-3.14036	-12.382
   9	1	3	0.032313	22.7157	-2.63744	-11.752
  10	1	4	0.461698	23.5909	-1.95399	-10.9182
  11	1	3	0.091945	24.9285	-2.1155	-11.2944
  12	1	1	-0.10563	23.9542	-8.16881	-17.2012
  13	1	5	-0.099376	23.8914	-7.15622	-13.4782
  14	1	1	-0.043296	24.3495	-7.87727	-14.7741
  15	1	1	-0.073043	23.9686	-7.35623	-16.0426
  16	1	1	-0.117827	24.3539	-9.50678	-17.0722
  17	1	1	-0.037562	24.8527	-9.20074	-14.7178
  18	1	1	-0.083705	24.836	-9.98058	-15.872
  19	1	5	0.396	22.3445	-7.48655	-13.3673
  20	1	5	0.310495	24.5893	-7.70552	-12.1605
  21	1	6	-0.130298	21.6242	-6.89824	-14.3505
  22	1	6	-0.128745	21.8047	-7.10333	-12.1874
  23	1	6	-0.120019	22.0918	-8.81027	-13.4885
  24	1	6	-0.104287	24.3848	-6.87922	-11.1077
  25	1	6	-0.095507	25.9307	-7.81941	-12.2944
  26	1	6	-0.104872	24.1439	-8.91873	-11.763
  27	1	3	0.456145	25.0718	-11.435	-15.9922
  28	1	3	0.550902	24.2291	-10.6726	-18.0008
  29	1	4	0.015704	24.6377	-11.782	-17.2628
  30	1	2	-0.456801	25.496	-12.1628	-15.1105
  31	1	2	-0.487703	23.7783	-10.6447	-19.1333
  32	1	1	-0.116566	24.5952	-13.145	-17.685
  33	1	1	-0.050109	23.6882	-14.0374	-17.0611
  34	1	1	0.154929	23.801	-15.4201	-17.2963
  35	1	1	0.041555	25.5606	-13.6454	-18.5903
  36	1	1	-0.223109	25.6515	-15.0314	-18.8122
  37	1	1	-0.080449	24.7964	-15.9245	-18.1482
  38	1	5	-0.108008	26.539	-12.7338	-19.323
  39	1	5	-0.182228	24.9815	-17.4244	-18.315
  40	1	5	-0.345523	22.6196	-13.5476	-16.0843
  41	1	7	0.155183	22.1479	-4.91751	-13.1358
  42	1	7	0.172904	26.3574	-5.88254	-13.7368
  43	1	7	0.158028	26.961	-3.72561	-12.6536
  44	1	7	0.153129	23.5557	-7.79697	-18.1435
  45	1	7	0.142914	23.5595	-6.35079	-16.1086
  46	1	7	0.135531	25.1235	-9.69125	-13.7903
  47	1	7	0.17765	26.4166	-15.4193	-19.4786
  48	1	9	0.046541	27.488	-13.2474	-19.5187
  49	1	9	0.045238	26.78	-11.8265	-18.758
  50	1	9	0.051941	26.1215	-12.4268	-20.2903
  51	1	9	0.087961	25.2216	-17.686	-19.3525
  52	1	9	0.066782	24.0769	-17.9776	-18.0319
  53	1	9	0.075908	25.8012	-17.7825	-17.6786
  54	1	9	0.105172	22.1432	-12.6218	-16.4291
  55	1	9	0.115625	23.0501	-13.3658	-15.0909
  56	1	9	0.140296	21.8209	-14.29	-15.9585
  57	1	1	-0.004194	15.8049	2.68681	-3.51744
  58	1	1	-0.097141	15.3862	3.63591	-4.49247
  59	1	1	-0.172015	15.0547	4.94648	-4.0341
  60	1	2	-0.377994	16.4706	1.06555	-0.94556
  61	1	1	0.033493	15.857	3.05726	-2.16788
  62	1	1	-0.063739	15.1738	5.31494	-2.67749
  63	1	2	-0.398381	15.7293	5.45851	0.3736
  64	1	1	0.032144	15.587	4.34519	-1.76361
  65	1	3	0.032313	16.2195	2.25925	-0.966966
  66	1	4	0.461698	16.2079	3.16419	0.0990995
  67	1	3	0.091945	15.8316	4.44788	-0.302663
  68	1	1	-0.10563	19.2102	3.58923	-6.28413
  69	1	5	-0.099376	15.3539	3.2244	-6.00593
  70	1	1	-0.043296	16.8213	2.95008	-6.4405
  71	1	1	-0.073043	17.8553	3.80708	-5.96573
  72	1	1	-0.117827	19.5211	2.5018	-7.10433
  73	1	1	-0.037562	17.1785	1.88425	-7.30757
  74	1	1	-0.083705	18.532	1.68179	-7.60716
  75	1	5	0.396	14.8108	4.35448	-6.96754
  76	1	5	0.310495	14.402	1.96127	-6.13666
  77	1	6	-0.130298	13.53	4.69071	-6.69259
  78	1	6	-0.128745	14.8571	3.99126	-8.26938
  79	1	6	-0.120019	15.5524	5.48402	-6.90554
  80	1	6	-0.104287	13.2524	2.14528	-5.44898
  81	1	6	-0.095507	14.9598	0.83073	-5.64928
  82	1	6	-0.104872	14.0418	1.66443	-7.405
  83	1	3	0.456145	19.1854	0.548461	-8.31186
  84	1	3	0.550902	20.8414	1.92033	-7.46691
  85	1	4	0.015704	20.5512	0.731421	-8.12316
  86	1	2	-0.456801	18.6159	-0.427044	-8.76811
  87	1	2	-0.487703	21.929	2.32649	-7.09524
  88	1	1	-0.116566	21.5043	-0.314948	-8.2949
  89	1	1	-0.050109	22.2783	-0.444315	-9.47632
  90	1	1	0.154929	23.1255	-1.57313	-9.6273
  91	1	1	0.041555	21.6039	-1.28148	-7.26818
  92	1	1	-0.223109	22.4995	-2.34774	-7.40253
  93	1	1	-0.080449	23.2502	-2.51424	-8.57315
  94	1	5	-0.108008	20.7062	-1.2474	-6.03308
  95	1	5	-0.182228	24.1014	-3.77808	-8.69419
  96	1	5	-0.345523	22.1663	0.575043	-10.6163
  97	1	7	0.155183	16.1044	1.67867	-3.78307
  98	1	7	0.172904	14.7128	5.71819	-4.7141
  99	1	7	0.158028	14.9489	6.3247	-2.34078
 100	1	7	0.153129	19.9965	4.21952	-5.87252
 101	1	7	0.142914	17.6131	4.64755	-5.3211
 102	1	7	0.135531	16.4471	1.19248	-7.71376
 103	1	7	0.17765	22.557	-3.0941	-6.61496
 104	1	9	0.046541	20.672	-0.25176	-5.57584
 105	1	9	0.045238	21.0515	-1.94501	-5.2605
 106	1	9	0.051941	19.6806	-1.53867	-6.29539
 107	1	9	0.087961	24.042	-4.39638	-7.78949
 108	1	9	0.066782	25.161	-3.53157	-8.838
 109	1	9	0.075908	23.7757	-4.40817	-9.53141
 110	1	9	0.105172	21.8147	0.104652	-11.5436
 111	1	9	0.115625	23.1416	1.03796	-10.8176
 112	1	9	0.140296	21.472	1.39452	-10.4046
 113	1	1	-0.004194	10.2548	1.18981	9.58049
 114	1	1	-0.097141	11.0436	2.35249	9.80164
 115	1	1	-0.172015	12.2446	2.21873	10.5553
 116	1	2	-0.377994	9.29841	-1.72086	9.06341
 117	1	1	0.033493	10.7187	-0.0391115	10.0674
 118	1	1	-0.063739	12.6655	0.983936	11.0781
 119	1	2	-0.398381	13.1871	-2.00664	11.5814
 120	1	1	0.032144	11.8841	-0.134782	10.8015
 121	1	3	0.032313	10.2483	-1.41725	9.76569
 122	1	4	0.461698	11.21	-2.25551	10.3294
 123	1	3	0.091945	12.1998	-1.56302	11.0185
 124	1	1	-0.10563	13.8221	5.46935	7.44017
 125	1	5	-0.099376	10.7477	3.73391	9.14644
 126	1	1	-0.043296	11.9851	4.02827	8.25059
 127	1	1	-0.073043	12.7039	5.25687	8.27547
 128	1	1	-0.117827	14.1949	4.4468	6.5592
 129	1	1	-0.037562	12.4166	3.0142	7.35286
 130	1	1	-0.083705	13.5077	3.25401	6.51421
 131	1	5	0.396	10.4984	4.77287	10.3168
 132	1	5	0.310495	9.48457	3.76102	8.19437
 133	1	6	-0.130298	11.6036	5.02634	11.0523
 134	1	6	-0.128745	9.57309	4.31056	11.1884
 135	1	6	-0.120019	10.0615	5.9773	9.88581
 136	1	6	-0.104287	8.3245	3.56792	8.86054
 137	1	6	-0.095507	9.53216	2.8255	7.21991
 138	1	6	-0.104872	9.37923	4.94039	7.5398
 139	1	3	0.456145	14.1136	2.3961	5.45825
 140	1	3	0.550902	15.2717	4.39177	5.53536
 141	1	4	0.015704	15.144	3.15278	4.91349
 142	1	2	-0.456801	13.746	1.2786	5.13744
 143	1	2	-0.487703	16.1013	5.2603	5.32512
 144	1	1	-0.116566	15.9943	2.74405	3.83963
 145	1	1	-0.050109	15.6018	2.97187	2.49602
 146	1	1	0.154929	16.5538	2.8267	1.44538
 147	1	1	0.041555	17.2821	2.24455	4.12765
 148	1	1	-0.223109	18.2007	2.0768	3.08414
 149	1	1	-0.080449	17.874	2.40486	1.75976
 150	1	5	-0.108008	17.7315	1.87632	5.53953
 151	1	5	-0.182228	19.0181	2.32598	0.747336
 152	1	5	-0.345523	14.1515	3.39827	2.22361
 153	1	7	0.155183	9.34796	1.19462	8.98543
 154	1	7	0.172904	12.9035	3.0709	10.6959
 155	1	7	0.158028	13.6083	0.880985	11.6112
 156	1	7	0.153129	14.3711	6.40902	7.46034
 157	1	7	0.142914	12.4068	6.06616	8.93426
 158	1	7	0.135531	11.907	2.05647	7.28868
 159	1	7	0.17765	19.2035	1.7273	3.31718
 160	1	9	0.046541	17.143	2.35875	6.32705
 161	1	9	0.045238	18.7782	2.15993	5.70503
 162	1	9	0.051941	17.6559	0.79189	5.68989
 163	1	9	0.087961	19.6971	3.17915	0.871745
 164	1	9	0.066782	18.7024	2.31632	-0.298922
 165	1	9	0.075908	19.6093	1.41407	0.90139
 166	1	9	0.105172	13.9867	4.44281	2.51944
 167	1	9	0.115625	13.4444	2.77117	2.78141
 168	1	9	0.140296	13.8492	3.30498	1.17498
 169	1	1	-0.004194	8.34051	-9.92618	16.0583
 170	1	1	-0.097141	8.81431	-11.2491	15.8792
 171	1	1	-0.172015	7.86273	-12.2794	15.6333
 172	1	2	-0.377994	7.02047	-7.27476	15.4606
 173	1	1	0.033493	7.00131	-9.65045	15.7988
 174	1	1	-0.063739	6.49787	-11.9825	15.423
 175	1	2	-0.398381	3.92654	-10.5761	14.4148
 176	1	1	0.032144	6.10176	-10.6423	15.4676
 177	1	3	0.032313	6.4307	-8.34243	15.4243
 178	1	4	0.461698	5.23171	-8.64909	14.7895
 179	1	3	0.091945	4.89415	-9.99966	14.885
 180	1	1	-0.10563	12.6465	-8.42298	14.9772
 181	1	5	-0.099376	10.3532	-11.4812	15.8515
 182	1	1	-0.043296	10.9942	-10.258	15.1199
 183	1	1	-0.073043	12.1318	-9.56418	15.6233
 184	1	1	-0.117827	12.0078	-7.97931	13.8168
 185	1	1	-0.037562	10.4071	-9.79256	13.9093
 186	1	1	-0.083705	10.9177	-8.64242	13.2962
 187	1	5	0.396	10.7908	-12.7538	15.0294
 188	1	5	0.310495	10.8015	-11.6396	17.3518
 189	1	6	-0.130298	10.5113	-13.9205	15.6522
 190	1	6	-0.128745	12.1226	-12.7544	14.7919
 191	1	6	-0.120019	10.1913	-12.7986	13.8177
 192	1	6	-0.104287	10.652	-10.4836	18.0382
 193	1	6	-0.095507	12.0895	-12.0297	17.4847
 194	1	6	-0.104872	10.0513	-12.5591	18.0005
 195	1	3	0.456145	10.4798	-7.92415	12.0657
 196	1	3	0.550902	12.3198	-6.82961	12.9324
 197	1	4	0.015704	11.38	-6.87487	11.9112
 198	1	2	-0.456801	9.56066	-8.24578	11.3316
 199	1	2	-0.487703	13.2428	-6.04633	13.0764
 200	1	1	-0.116566	11.4083	-5.95743	10.8202
 201	1	1	-0.050109	11.0384	-4.60733	11.0357
 202	1	1	0.154929	11.3372	-3.64031	10.0458
 203	1	1	0.041555	11.9884	-6.34864	9.59086
 204	1	1	-0.223109	12.2252	-5.38469	8.601
 205	1	1	-0.080449	11.9382	-4.03145	8.82646
 206	1	5	-0.108008	12.4709	-7.76918	9.31341
 207	1	5	-0.182228	12.3602	-3.01236	7.76934
 208	1	5	-0.345523	10.4022	-4.18644	12.3663
 209	1	7	0.155183	9.01765	-9.09159	16.224
 210	1	7	0.172904	8.17528	-13.3128	15.5203
 211	1	7	0.158028	5.7944	-12.7527	15.1137
 212	1	7	0.153129	13.5125	-7.89293	15.3696
 213	1	7	0.142914	12.6344	-9.88776	16.5272
 214	1	7	0.135531	9.54431	-10.2882	13.4701
 215	1	7	0.17765	12.7063	-5.68446	7.67347
 216	1	9	0.046541	13.5492	-7.85114	9.49757
 217	1	9	0.045238	12.2919	-8.04222	8.26602
 218	1	9	0.051941	11.9679	-8.52617	9.92292
 219	1	9	0.087961	11.4994	-2.45154	7.38324
 220	1	9	0.066782	12.8408	-3.49421	6.90866
 221	1	9	0.075908	13.0838	-2.29341	8.17555
 222	1	9	0.105172	9.76698	-4.97733	12.7854
 223	1	9	0.115625	9.74475	-3.31426	12.2614
 224	1	9	0.140296	11.1727	-3.94161	13.111
 225	1	1	-0.004194	0.751156	2.78789	16.7986
 226	1	1	-0.097141	1.52252	2.29992	15.709
 227	1	1	-0.172015	1.03156	2.53424	14.3904
 228	1	2	-0.377994	-1.45225	3.77767	18.7155
 229	1	1	0.033493	-0.485723	3.38232	16.5413
 230	1	1	-0.063739	-0.214371	3.15353	14.154
 231	1	2	-0.398381	-3.11166	4.28782	14.4102
 232	1	1	0.032144	-0.971578	3.54109	15.2612
 233	1	3	0.032313	-1.53004	3.81111	17.4988
 234	1	4	0.461698	-2.61586	4.1851	16.7113
 235	1	3	0.091945	-2.36164	4.06289	15.3455
 236	1	1	-0.10563	0.927126	-1.71757	14.5163
 237	1	5	-0.099376	2.79809	1.4139	15.9026
 238	1	1	-0.043296	2.53385	0.0258469	15.2457
 239	1	1	-0.073043	1.20095	-0.452534	15.0686
 240	1	1	-0.117827	2.01071	-2.53103	14.1859
 241	1	1	-0.037562	3.60354	-0.842878	14.9047
 242	1	1	-0.083705	3.30862	-2.11143	14.3907
 243	1	5	0.396	3.13029	1.12445	17.419
 244	1	5	0.310495	4.01199	2.17941	15.239
 245	1	6	-0.130298	2.09804	0.509152	18.0416
 246	1	6	-0.128745	3.42168	2.25167	18.1068
 247	1	6	-0.120019	4.18266	0.290486	17.5801
 248	1	6	-0.104287	3.9974	3.49239	15.5631
 249	1	6	-0.095507	3.97692	2.1082	13.8898
 250	1	6	-0.104872	5.22834	1.71585	15.6023
 251	1	3	0.456145	4.21494	-3.23345	14.0345
 252	1	3	0.550902	2.04198	-3.92435	13.6726
 253	1	4	0.015704	3.38201	-4.27083	13.6339
 254	1	2	-0.456801	5.4313	-3.22903	14.1107
 255	1	2	-0.487703	1.07599	-4.61224	13.3913
 256	1	1	-0.116566	3.85505	-5.55118	13.2379
 257	1	1	-0.050109	4.06571	-6.56191	14.2049
 258	1	1	0.154929	4.70561	-7.76241	13.8138
 259	1	1	0.041555	4.19621	-5.76568	11.8867
 260	1	1	-0.223109	4.76431	-6.98674	11.5036
 261	1	1	-0.080449	5.05247	-7.97426	12.4552
 262	1	5	-0.108008	4.01317	-4.6766	10.837
 263	1	5	-0.182228	5.81355	-9.21414	11.9861
 264	1	5	-0.345523	3.67874	-6.31878	15.6688
 265	1	7	0.155183	1.03635	2.66414	17.8371
 266	1	7	0.172904	1.58387	2.16497	13.5304
 267	1	7	0.158028	-0.606692	3.27658	13.1468
 268	1	7	0.153129	-0.0940892	-2.06924	14.3835
 269	1	7	0.142914	0.348607	0.145386	15.3747
 270	1	7	0.135531	4.64232	-0.57419	15.0697
 271	1	7	0.17765	5.0497	-7.13986	10.4663
 272	1	9	0.046541	4.28249	-5.03048	9.83425
 273	1	9	0.045238	4.64903	-3.81001	11.0583
 274	1	9	0.051941	2.97122	-4.33716	10.7952
 275	1	9	0.087961	5.2027	-10.1203	12.0876
 276	1	9	0.066782	6.74259	-9.35647	12.5527
 277	1	9	0.075908	6.10023	-9.14021	10.9297
 278	1	9	0.105172	4.45699	-5.74434	16.1892
 279	1	9	0.115625	3.52231	-7.25178	16.224
 280	1	9	0.140296	2.7345	-5.76693	15.7547
 281	1	1	-0.004194	-0.360616	12.0997	18.9794
 282	1	1	-0.097141	-1.55522	12.8757	18.9084
 283	1	1	-0.172015	-1.89093	13.6555	20.0547
 284	1	2	-0.377994	2.24648	10.612	19.7534
 285	1	1	0.033493	0.446724	12.1777	20.1184
 286	1	1	-0.063739	-1.02996	13.7684	21.1667
 287	1	2	-0.398381	1.36769	13.6616	23.1481
 288	1	1	0.032144	0.151459	13.0274	21.1598
 289	1	3	0.032313	1.72423	11.4868	20.4243
 290	1	4	0.461698	2.16715	12.0493	21.6236
 291	1	3	0.091945	1.26611	12.982	22.1394
 292	1	1	-0.10563	-5.91278	11.1282	17.1265
 293	1	5	-0.099376	-2.49544	12.8846	17.6472
 294	1	1	-0.043296	-3.74575	12.0094	17.9292
 295	1	1	-0.073043	-4.93669	12.1457	17.1601
 296	1	1	-0.117827	-5.68946	9.97805	17.8904
 297	1	1	-0.037562	-3.61257	10.874	18.7659
 298	1	1	-0.083705	-4.59498	9.88268	18.7252
 299	1	5	0.396	-1.80597	12.2317	16.3785
 300	1	5	0.310495	-2.86072	14.3913	17.3043
 301	1	6	-0.130298	-1.55269	10.9138	16.5534
 302	1	6	-0.128745	-0.639715	12.8408	16.0685
 303	1	6	-0.120019	-2.57724	12.2623	15.2683
 304	1	6	-0.104287	-1.78372	15.1985	17.4373
 305	1	6	-0.095507	-3.83032	14.8791	18.1097
 306	1	6	-0.104872	-3.31675	14.5991	16.0494
 307	1	3	0.456145	-4.47091	8.47965	19.1797
 308	1	3	0.550902	-6.27524	8.61588	17.74
 309	1	4	0.015704	-5.41938	7.7796	18.4466
 310	1	2	-0.456801	-3.54265	8.02739	19.8283
 311	1	2	-0.487703	-7.14077	8.29725	16.9429
 312	1	1	-0.116566	-5.25528	6.39141	18.1711
 313	1	1	-0.050109	-4.15624	5.97914	17.3749
 314	1	1	0.154929	-3.8512	4.60088	17.2793
 315	1	1	0.041555	-6.09886	5.43735	18.7751
 316	1	1	-0.223109	-5.82674	4.07096	18.6039
 317	1	1	-0.080449	-4.69979	3.64351	17.883
 318	1	5	-0.108008	-7.27761	5.86033	19.6419
 319	1	5	-0.182228	-4.39625	2.14925	17.8185
 320	1	5	-0.345523	-3.25997	7.01922	16.68
 321	1	7	0.155183	-0.0181256	11.4494	18.1847
 322	1	7	0.172904	-2.81789	14.2157	20.0925
 323	1	7	0.158028	-1.26858	14.414	22.0092
 324	1	7	0.153129	-6.74745	11.1763	16.4292
 325	1	7	0.142914	-5.06383	12.9802	16.4794
 326	1	7	0.135531	-2.69629	10.6654	19.3103
 327	1	7	0.17765	-6.46789	3.33596	19.0827
 328	1	9	0.046541	-7.80426	4.99469	20.0622
 329	1	9	0.045238	-8.00673	6.436	19.0582
 330	1	9	0.051941	-6.94543	6.48132	20.483
 331	1	9	0.087961	-3.58283	1.88598	18.508
 332	1	9	0.066782	-4.10283	1.83762	16.808
 333	1	9	0.075908	-5.26955	1.54743	18.0994
 334	1	9	0.105172	-3.79584	7.9443	16.4387
 335	1	9	0.115625	-2.8799	6.66815	15.7138
 336	1	9	0.140296	-2.39868	7.28443	17.3085
 337	1	1	-0.004194	13.3298	13.7959	19.3206
 338	1	1	-0.097141	13.0922	13.3107	18.0074
 339	1	1	-0.172015	13.8639	13.8539	16.94
 340	1	2	-0.377994	13.7452	15.6495	21.7416
 341	1	1	0.033493	14.1874	14.8839	19.4964
 342	1	1	-0.063739	14.7557	14.927	17.1464
 343	1	2	-0.398381	16.089	17.5179	18.1973
 344	1	1	0.032144	14.8725	15.445	18.4382
 345	1	3	0.032313	14.3081	15.7847	20.6679
 346	1	4	0.461698	15.0278	16.8823	20.2023
 347	1	3	0.091945	15.4765	16.7232	18.8917
 348	1	1	-0.10563	9.39188	14.4266	19.7696
 349	1	5	-0.099376	11.9516	12.2701	17.7798
 350	1	1	-0.043296	10.7589	12.6452	18.7157
 351	1	1	-0.073043	10.4039	14.0167	18.8791
 352	1	1	-0.117827	8.69025	13.4351	20.4601
 353	1	1	-0.037562	9.97565	11.6708	19.3897
 354	1	1	-0.083705	8.9489	12.0984	20.2406
 355	1	5	0.396	12.5712	10.8558	18.0896
 356	1	5	0.310495	11.3701	12.2851	16.3141
 357	1	6	-0.130298	13.7531	10.6801	17.4554
 358	1	6	-0.128745	11.7792	9.82663	17.7129
 359	1	6	-0.120019	12.824	10.7101	19.41
 360	1	6	-0.104287	12.207	11.7467	15.3984
 361	1	6	-0.095507	11.0806	13.5423	15.9082
 362	1	6	-0.104872	10.2147	11.5866	16.2303
 363	1	3	0.456145	7.93106	11.3053	20.9767
 364	1	3	0.550902	7.53573	13.5416	21.3929
 365	1	4	0.015704	7.10493	12.2354	21.5982
 366	1	2	-0.456801	7.81554	10.0919	20.9551
 367	1	2	-0.487703	7.0066	14.5757	21.7643
 368	1	1	-0.116566	5.87694	11.889	22.2412
 369	1	1	-0.050109	4.63485	12.1472	21.5995
 370	1	1	0.154929	3.42415	11.755	22.2328
 371	1	1	0.041555	5.90242	11.2569	23.5061
 372	1	1	-0.223109	4.69741	10.8701	24.1103
 373	1	1	-0.080449	3.46236	11.0994	23.4864
 374	1	5	-0.108008	7.19876	10.9952	24.2693
 375	1	5	-0.182228	2.19621	10.6348	24.2021
 376	1	5	-0.345523	4.57393	12.8355	20.2229
 377	1	7	0.155183	12.7646	13.431	20.1751
 378	1	7	0.172904	13.7409	13.4997	15.9217
 379	1	7	0.158028	15.2708	15.4017	16.3142
 380	1	7	0.153129	9.14517	15.4786	19.9012
 381	1	7	0.142914	10.9372	14.7846	18.3237
 382	1	7	0.135531	10.1295	10.6043	19.2627
 383	1	7	0.17765	4.72416	10.3849	25.0824
 384	1	9	0.046541	8.02973	10.7149	23.6137
 385	1	9	0.045238	7.07764	10.1717	24.9841
 386	1	9	0.051941	7.5001	11.8839	24.8374
 387	1	9	0.087961	1.68098	11.4784	24.6798
 388	1	9	0.066782	2.42428	9.90763	24.9916
 389	1	9	0.075908	1.49368	10.147	23.5146
 390	1	9	0.105172	3.87331	13.6798	20.2289
 391	1	9	0.115625	4.25518	12.132	19.4442
 392	1	9	0.140296	5.52032	13.2454	19.8675
 393	1	1	-0.004194	10.6027	21.8566	15.705
 394	1	1	-0.097141	10.3808	23.2404	15.4603
 395	1	1	-0.172015	10.8218	23.7817	14.2194
 396	1	2	-0.377994	11.5791	18.8988	15.7455
 397	1	1	0.033493	11.3144	21.1007	14.7698
 398	1	1	-0.063739	11.5049	22.9913	13.2707
 399	1	2	-0.398381	12.964	20.7288	11.7073
 400	1	1	0.032144	11.749	21.6513	13.5825
 401	1	3	0.032313	11.7601	19.6834	14.8281
 402	1	4	0.461698	12.4404	19.4742	13.6293
 403	1	3	0.091945	12.4676	20.6046	12.8148
 404	1	1	-0.10563	9.69045	22.575	20.1504
 405	1	5	-0.099376	9.65564	24.1015	16.5407
 406	1	1	-0.043296	10.1272	23.5851	17.9346
 407	1	1	-0.073043	9.23325	23.2243	18.9842
 408	1	1	-0.117827	11.059	22.3067	20.2624
 409	1	1	-0.037562	11.516	23.3707	18.1335
 410	1	1	-0.083705	11.946	22.7126	19.2884
 411	1	5	0.396	8.11202	23.9236	16.2796
 412	1	5	0.310495	10.0214	25.635	16.487
 413	1	6	-0.130298	7.34874	24.7329	17.0484
 414	1	6	-0.128745	7.71309	22.651	16.5059
 415	1	6	-0.120019	7.78559	24.1887	14.9938
 416	1	6	-0.104287	9.63023	26.2728	17.6138
 417	1	6	-0.095507	9.44565	26.2955	15.4572
 418	1	6	-0.104872	11.355	25.8303	16.3814
 419	1	3	0.456145	13.2799	22.139	19.5984
 420	1	3	0.550902	11.7981	21.4551	21.2343
 421	1	4	0.015704	13.0892	21.354	20.7282
 422	1	2	-0.456801	14.2689	22.208	18.889
 423	1	2	-0.487703	11.3029	20.8283	22.155
 424	1	1	-0.116566	14.0235	20.3611	21.1483
 425	1	1	-0.050109	14.0524	19.1139	20.4795
 426	1	1	0.154929	15.0078	18.1376	20.867
 427	1	1	0.041555	14.9142	20.6219	22.2094
 428	1	1	-0.223109	15.8407	19.6382	22.5933
 429	1	1	-0.080449	15.9005	18.4006	21.9303
 430	1	5	-0.108008	14.8936	21.956	22.9443
 431	1	5	-0.182228	16.922	17.3648	22.3885
 432	1	5	-0.345523	13.0539	18.8555	19.3346
 433	1	7	0.155183	10.2657	21.3739	16.6187
 434	1	7	0.172904	10.6468	24.8235	13.9705
 435	1	7	0.158028	11.8523	23.409	12.3278
 436	1	7	0.153129	8.99282	22.2298	20.9117
 437	1	7	0.142914	8.16457	23.384	18.8931
 438	1	7	0.135531	12.2415	23.6069	17.3582
 439	1	7	0.17765	16.5219	19.8413	23.4155
 440	1	9	0.046541	13.8923	22.1777	23.3341
 441	1	9	0.045238	15.1889	22.7744	22.2759
 442	1	9	0.051941	15.5828	21.9605	23.7976
 443	1	9	0.087961	17.6541	17.7969	23.0828
 444	1	9	0.066782	17.4866	16.9536	21.542
 445	1	9	0.075908	16.4298	16.5322	22.9084
 446	1	9	0.105172	13.3757	19.3673	18.4171
 447	1	9	0.115625	12.0466	19.211	19.5809
 448	1	9	0.140296	12.9204	17.7993	19.0799
 449	1	1	-0.004194	9.17961	11.755	4.07356
 450	1	1	-0.097141	9.08921	12.4816	5.29532
 451	1	1	-0.172015	8.46241	13.7591	5.26615
 452	1	2	-0.377994	9.32564	10.8392	1.10794
 453	1	1	0.033493	8.66293	12.3212	2.89966
 454	1	1	-0.063739	7.94362	14.309	4.07475
 455	1	2	-0.398381	7.25881	14.9901	1.12512
 456	1	1	0.032144	8.05636	13.5598	2.90034
 457	1	3	0.032313	8.76125	11.8506	1.49003
 458	1	4	0.461698	8.22542	12.8833	0.717782
 459	1	3	0.091945	7.73194	13.929	1.4979
 460	1	1	-0.10563	12.2274	14.7731	7.12088
 461	1	5	-0.099376	9.61453	11.9338	6.66282
 462	1	1	-0.043296	10.4912	13.0231	7.35254
 463	1	1	-0.073043	11.3685	13.8108	6.5549
 464	1	1	-0.117827	12.2126	14.9272	8.50938
 465	1	1	-0.037562	10.5235	13.2032	8.76416
 466	1	1	-0.083705	11.3919	14.1601	9.3099
 467	1	5	0.396	10.5421	10.6672	6.51915
 468	1	5	0.310495	8.3329	11.5451	7.49831
 469	1	6	-0.130298	9.87712	9.57165	6.08892
 470	1	6	-0.128745	11.1249	10.3293	7.69258
 471	1	6	-0.120019	11.5583	10.8912	5.65516
 472	1	6	-0.104287	8.60015	10.7903	8.58758
 473	1	6	-0.095507	7.45459	10.8362	6.75261
 474	1	6	-0.104872	7.66772	12.6384	7.9353
 475	1	3	0.456145	11.6376	14.5505	10.7286
 476	1	3	0.550902	12.9975	15.8384	9.381
 477	1	4	0.015704	12.5923	15.56	10.6794
 478	1	2	-0.456801	11.0832	14.0925	11.7127
 479	1	2	-0.487703	13.8225	16.6547	9.00856
 480	1	1	-0.116566	13.1027	16.2713	11.8074
 481	1	1	-0.050109	12.4103	17.4004	12.3073
 482	1	1	0.154929	13.0451	18.2428	13.2555
 483	1	1	0.041555	14.3788	15.9398	12.3126
 484	1	1	-0.223109	14.9697	16.7514	13.2931
 485	1	1	-0.080449	14.3288	17.9134	13.751
 486	1	5	-0.108008	15.16	14.7458	11.7757
 487	1	5	-0.182228	15.0668	18.8094	14.7435
 488	1	5	-0.345523	11.0134	17.7387	11.7697
 489	1	7	0.155183	9.65541	10.7835	3.99949
 490	1	7	0.172904	8.38514	14.3441	6.18046
 491	1	7	0.158028	7.49205	15.2988	4.05482
 492	1	7	0.153129	12.8941	15.3716	6.50257
 493	1	7	0.142914	11.3983	13.6693	5.47768
 494	1	7	0.135531	9.91194	12.6152	9.44028
 495	1	7	0.17765	15.9657	16.5103	13.6554
 496	1	9	0.046541	15.5054	14.9339	10.7513
 497	1	9	0.045238	14.5449	13.8375	11.7678
 498	1	9	0.051941	16.0466	14.5331	12.3856
 499	1	9	0.087961	15.0412	19.864	14.4403
 500	1	9	0.066782	16.1263	18.5346	14.826
 501	1	9	0.075908	14.6326	18.7325	15.7489
 502	1	9	0.105172	11.081	18.2967	10.8265
 503	1	9	0.115625	10.4191	18.3366	12.4709
 504	1	9	0.140296	10.4145	16.8375	11.5911
 505	1	1	-0.004194	1.14983	13.4551	-10.4818
 506	1	1	-0.097141	2.10345	12.9306	-9.55945
 507	1	1	-0.172015	2.11494	11.5153	-9.38181
 508	1	2	-0.377994	-1.22339	14.0334	-12.3919
 509	1	1	0.033493	0.270017	12.5977	-11.152
 510	1	1	-0.063739	1.26531	10.6589	-10.1255
 511	1	2	-0.398381	-0.847081	9.41818	-12.0867
 512	1	1	0.032144	0.347063	11.2318	-11.0136
 513	1	3	0.032313	-0.836294	12.916	-12.0936
 514	1	4	0.461698	-1.33693	11.683	-12.5184
 515	1	3	0.091945	-0.667023	10.6126	-11.9167
 516	1	1	-0.10563	6.06114	11.631	-7.54358
 517	1	5	-0.099376	3.10729	13.891	-8.81883
 518	1	1	-0.043296	4.09837	13.1412	-7.83404
 519	1	1	-0.073043	5.03706	12.1924	-8.34204
 520	1	1	-0.117827	6.16219	12.0353	-6.20683
 521	1	1	-0.037562	4.22856	13.4802	-6.45057
 522	1	1	-0.083705	5.26793	12.938	-5.68176
 523	1	5	0.396	2.28394	15.0038	-8.0384
 524	1	5	0.310495	4.00282	14.6081	-9.90921
 525	1	6	-0.130298	1.50496	14.4453	-7.08465
 526	1	6	-0.128745	1.43727	15.7344	-8.79329
 527	1	6	-0.120019	3.08586	15.9249	-7.45576
 528	1	6	-0.104287	5.08125	15.2103	-9.35824
 529	1	6	-0.095507	3.35345	15.5578	-10.6174
 530	1	6	-0.104872	4.46964	13.7361	-10.8311
 531	1	3	0.456145	5.73079	13.3097	-4.31297
 532	1	3	0.550902	7.21417	11.7738	-5.17852
 533	1	4	0.015704	6.92195	12.6193	-4.10704
 534	1	2	-0.456801	5.22828	14.1599	-3.59897
 535	1	2	-0.487703	8.19467	11.0656	-5.33238
 536	1	1	-0.116566	7.84479	12.9347	-3.04934
 537	1	1	-0.050109	7.5714	12.6346	-1.68341
 538	1	1	0.154929	8.4894	13.0443	-0.675521
 539	1	1	0.041555	9.02771	13.6415	-3.38175
 540	1	1	-0.223109	9.94078	13.9935	-2.37937
 541	1	1	-0.080449	9.68673	13.7059	-1.03434
 542	1	5	-0.108008	9.35496	14.0785	-4.8073
 543	1	5	-0.182228	10.7066	14.1654	0.00783486
 544	1	5	-0.345523	6.28366	11.9109	-1.28035
 545	1	7	0.155183	1.07073	14.512	-10.7067
 546	1	7	0.172904	2.78976	11.0508	-8.67084
 547	1	7	0.158028	1.30627	9.57811	-10.0069
 548	1	7	0.153129	6.79474	10.9488	-7.96963
 549	1	7	0.142914	4.99908	11.8995	-9.3867
 550	1	7	0.135531	3.59912	14.2056	-5.95099
 551	1	7	0.17765	10.8481	14.5267	-2.64986
 552	1	9	0.046541	8.46462	14.419	-5.34917
 553	1	9	0.045238	9.81319	13.2584	-5.37333
 554	1	9	0.051941	10.0637	14.916	-4.81467
 555	1	9	0.087961	10.9961	13.3476	0.680333
 556	1	9	0.066782	10.3084	14.9877	0.616546
 557	1	9	0.075908	11.6304	14.5264	-0.46084
 558	1	9	0.105172	6.47378	11.1436	-0.518634
 559	1	9	0.115625	5.8064	11.3907	-2.11808
 560	1	9	0.140296	5.54865	12.6212	-0.876376
 561	1	1	-0.004194	-12.2073	6.40096	-11.541
 562	1	1	-0.097141	-12.1181	6.49064	-12.9595
 563	1	1	-0.172015	-13.3487	6.53268	-13.6854
 564	1	2	-0.377994	-12.9343	5.45306	-8.69998
 565	1	1	0.033493	-13.4563	6.19436	-10.9356
 566	1	1	-0.063739	-14.5991	6.36669	-13.053
 567	1	2	-0.398381	-16.8302	5.30163	-11.2058
 568	1	1	0.032144	-14.6196	6.15359	-11.6741
 569	1	3	0.032313	-13.7523	5.65126	-9.58179
 570	1	4	0.461698	-15.0799	5.22102	-9.6359
 571	1	3	0.091945	-15.7022	5.57744	-10.8319
 572	1	1	-0.10563	-9.59619	10.0335	-13.2055
 573	1	5	-0.099376	-10.7153	6.32868	-13.6628
 574	1	1	-0.043296	-9.81193	7.57574	-13.4271
 575	1	1	-0.073043	-10.3896	8.8645	-13.2543
 576	1	1	-0.117827	-8.20691	9.90069	-13.3358
 577	1	1	-0.037562	-8.39734	7.49021	-13.5483
 578	1	1	-0.083705	-7.62827	8.66038	-13.4966
 579	1	5	0.396	-10.829	6.17409	-15.233
 580	1	5	0.310495	-10.064	4.99981	-13.0816
 581	1	6	-0.130298	-11.5641	5.09622	-15.5915
 582	1	6	-0.128745	-9.6296	6.04462	-15.8449
 583	1	6	-0.120019	-11.3824	7.26765	-15.8054
 584	1	6	-0.104287	-10.9853	4.0188	-12.9367
 585	1	6	-0.095507	-9.50463	5.1966	-11.8667
 586	1	6	-0.104872	-9.08424	4.46467	-13.8422
 587	1	3	0.456145	-6.16703	8.85242	-13.7113
 588	1	3	0.550902	-7.12917	10.9295	-13.4422
 589	1	4	0.015704	-5.95272	10.2264	-13.687
 590	1	2	-0.456801	-5.35981	7.97259	-13.9538
 591	1	2	-0.487703	-7.28801	12.1378	-13.4128
 592	1	1	-0.116566	-4.70013	10.8338	-14.0323
 593	1	1	-0.050109	-3.67919	11.0281	-13.0648
 594	1	1	0.154929	-2.4074	11.5381	-13.4619
 595	1	1	0.041555	-4.47324	11.1909	-15.3785
 596	1	1	-0.223109	-3.23382	11.7267	-15.7531
 597	1	1	-0.080449	-2.19796	11.894	-14.8203
 598	1	5	-0.108008	-5.54049	10.9888	-16.4506
 599	1	5	-0.182228	-0.865113	12.4309	-15.3417
 600	1	5	-0.345523	-3.98095	10.6657	-11.6069
 601	1	7	0.155183	-11.3236	6.34367	-10.9153
 602	1	7	0.172904	-13.3731	6.59566	-14.767
 603	1	7	0.158028	-15.5162	6.28261	-13.6331
 604	1	7	0.153129	-10.0516	11.0179	-13.1151
 605	1	7	0.142914	-11.4697	8.9746	-13.2092
 606	1	7	0.135531	-7.89018	6.55091	-13.743
 607	1	7	0.17765	-3.0676	11.996	-16.7929
 608	1	9	0.046541	-6.456	11.5429	-16.2095
 609	1	9	0.045238	-5.79939	9.92755	-16.5541
 610	1	9	0.051941	-5.20156	11.338	-17.4338
 611	1	9	0.087961	-0.489849	13.2708	-14.7464
 612	1	9	0.066782	-0.958183	12.8085	-16.3681
 613	1	9	0.075908	-0.0993626	11.6455	-15.3529
 614	1	9	0.105172	-3.98051	9.57561	-11.4722
 615	1	9	0.115625	-4.96447	11.0442	-11.3011
 616	1	9	0.140296	-3.26683	11.085	-10.8903
 617	1	1	-0.004194	-22.3342	1.63184	-1.00642
 618	1	1	-0.097141	-22.2641	2.91124	-0.408255
 619	1	1	-0.172015	-22.4802	3.00875	0.998289
 620	1	2	-0.377994	-22.0535	-1.29635	-1.67862
 621	1	1	0.033493	-22.5916	0.517697	-0.210865
 622	1	1	-0.063739	-22.6935	1.86075	1.79263
 623	1	2	-0.398381	-22.4499	-0.9901	2.93416
 624	1	1	0.032144	-22.7383	0.616668	1.15766
 625	1	3	0.032313	-22.3299	-0.889156	-0.562544
 626	1	4	0.461698	-22.1523	-1.5242	0.660965
 627	1	3	0.091945	-22.5412	-0.735288	1.74383
 628	1	1	-0.10563	-18.2401	3.1032	-2.0162
 629	1	5	-0.099376	-21.9294	4.12058	-1.32878
 630	1	1	-0.043296	-20.6208	3.79157	-2.11637
 631	1	1	-0.073043	-19.4917	3.30379	-1.3976
 632	1	1	-0.117827	-18.1329	3.37422	-3.38402
 633	1	1	-0.037562	-20.474	4.01659	-3.51349
 634	1	1	-0.083705	-19.228	3.78072	-4.11617
 635	1	5	0.396	-21.6432	5.45904	-0.542524
 636	1	5	0.310495	-23.1997	4.33049	-2.24487
 637	1	6	-0.130298	-21.206	6.43921	-1.365
 638	1	6	-0.128745	-20.675	5.30872	0.390537
 639	1	6	-0.120019	-22.7338	5.93987	0.0959234
 640	1	6	-0.104287	-23.1707	5.48191	-2.95073
 641	1	6	-0.095507	-24.3354	4.35391	-1.50978
 642	1	6	-0.104872	-23.36	3.33137	-3.14188
 643	1	3	0.456145	-18.8118	3.87894	-5.54414
 644	1	3	0.550902	-16.9691	3.25907	-4.30722
 645	1	4	0.015704	-17.4635	3.53327	-5.57952
 646	1	2	-0.456801	-19.539	4.15146	-6.48329
 647	1	2	-0.487703	-15.8441	2.90788	-3.99492
 648	1	1	-0.116566	-16.7227	3.3332	-6.79164
 649	1	1	-0.050109	-16.2755	4.42658	-7.59019
 650	1	1	0.154929	-15.5758	4.17197	-8.8027
 651	1	1	0.041555	-16.4692	2.00474	-7.21688
 652	1	1	-0.223109	-15.7972	1.7781	-8.42333