pySIMM System Object

2410 atoms
2624 bonds
4644 angles
6876 dihedrals
688 impropers

9 atom types
11 bond types
18 angle types
7 dihedral types
4 improper types

-213.560042 213.560042 xlo xhi
-213.560042 213.560042 ylo yhi
-213.560042 213.560042 zlo zhi

Masses

   1	12.01	# ca
   2	16.0	# o
   3	12.01	# c
   4	14.01	# n
   5	12.01	# c3
   6	19.0	# f
   7	1.008	# ha
   8	1.008	# hn
   9	1.008	# hc

Pair Coeffs

   1	0.086	3.3996695084235347	# ca
   2	0.21	2.959921901149463	# o
   3	0.086	3.3996695084235347	# c
   4	0.17	3.249998523775958	# n
   5	0.1094	3.3996695084235347	# c3
   6	0.061	3.1181455134911875	# f
   7	0.015	2.59964245953351	# ha
   8	0.0157	1.069078461768407	# hn
   9	0.0157	2.649532787749369	# hc

Bond Coeffs

   1	321.0	1.5156	# c3,ca
   2	300.9	1.5375	# c3,c3
   3	384.2	1.4121	# ca,n
   4	330.6	1.0969	# c3,hc
   5	637.7	1.2183	# c,o
   6	403.2	1.0129	# hn,n
   7	356.9	1.3497	# c3,f
   8	461.1	1.3984	# ca,ca
   9	427.6	1.3789	# c,n
  10	345.9	1.4906	# c,ca
  11	345.8	1.086	# ca,ha

Angle Coeffs

   1	70.89	107.36	# f,c3,f
   2	68.72	122.6	# ca,c,o
   3	67.87	120.19	# ca,ca,n
   4	67.68	115.25	# ca,c,n
   5	46.8	110.47	# ca,c3,hc
   6	74.22	123.05	# n,c,o
   7	48.33	117.55	# c,n,hn
   8	63.56	112.24	# ca,c3,ca
   9	62.86	111.51	# c3,c3,c3
  10	66.11	109.24	# c3,c3,f
  11	64.28	120.33	# c,ca,ca
  12	66.62	120.02	# ca,ca,ca
  13	63.74	127.08	# c,n,c
  14	39.4	107.58	# hc,c3,hc
  15	48.18	119.88	# ca,ca,ha
  16	63.15	112.07	# c3,c3,ca
  17	63.53	120.77	# c3,ca,ca
  18	63.82	123.71	# c,n,ca

Dihedral Coeffs

   1	2	2.5	2	180	2.0	1	0	# hn,n,c,o
   2	1	3.625	2	180	# X,ca,ca,X
   3	1	0.0	2	0	# X,c3,ca,X
   4	1	1.0	2	180	# X,c,ca,X
   5	1	0.15555555555555556	3	0	# X,c3,c3,X
   6	1	2.5	2	180	# X,c,n,X
   7	1	0.45	2	180	# X,ca,n,X

Improper Coeffs

   1	1.1	-1	2	# n,X,X,hn
   2	1.1	-1	2	# ca,ca,ca,c3
   3	1.1	-1	2	# ca,X,X,ha
   4	10.5	-1	2	# c,X,X,o

Atoms

   1	1	1	-0.004194	-27.6594	11.1356	-17.4381
   2	1	1	-0.097141	-27.4925	12.4229	-16.8626
   3	1	1	-0.172015	-28.5336	12.9298	-16.0324
   4	1	2	-0.377994	-28.6947	8.45614	-18.5911
   5	1	1	0.033493	-28.8585	10.4494	-17.2375
   6	1	1	-0.063739	-29.7349	12.2144	-15.8371
   7	1	2	-0.398381	-32.1334	10.2317	-16.0229
   8	1	1	0.032144	-29.8763	10.978	-16.4724
   9	1	3	0.032313	-29.3259	9.17597	-17.8352
  10	1	4	0.461698	-30.642	9.03568	-17.3994
  11	1	3	0.091945	-31.0463	10.0662	-16.5518
  12	1	1	-0.10563	-24.623	12.6591	-20.7612
  13	1	5	-0.099376	-26.2073	13.2308	-17.2163
  14	1	1	-0.043296	-26.0062	13.1005	-18.756
  15	1	1	-0.073043	-24.747	12.8285	-19.3652
  16	1	1	-0.117827	-25.7769	12.7701	-21.5447
  17	1	1	-0.037562	-27.1398	13.2466	-19.5978
  18	1	1	-0.083705	-26.9973	13.0612	-20.9747
  19	1	5	0.396	-25.0349	12.615	-16.3596
  20	1	5	0.310495	-26.3141	14.7751	-16.9149
  21	1	6	-0.130298	-24.7346	11.3563	-16.7526
  22	1	6	-0.128745	-25.3693	12.53	-15.0518
  23	1	6	-0.120019	-23.8907	13.3332	-16.4208
  24	1	6	-0.104287	-26.3164	15.0622	-15.5936
  25	1	6	-0.095507	-27.4353	15.3176	-17.4423
  26	1	6	-0.104872	-25.2805	15.4584	-17.4573
  27	1	3	0.456145	-28.0226	13.0889	-22.0479
  28	1	3	0.550902	-25.9803	12.6056	-23.0109
  29	1	4	0.015704	-27.3406	12.801	-23.2226
  30	1	2	-0.456801	-29.2152	13.2931	-21.8968
  31	1	2	-0.487703	-25.1155	12.3546	-23.8334
  32	1	1	-0.116566	-27.9758	12.7165	-24.4961
  33	1	1	-0.050109	-27.8721	13.7905	-25.4086
  34	1	1	0.154929	-28.5308	13.7102	-26.6506
  35	1	1	0.041555	-28.7337	11.5712	-24.8339
  36	1	1	-0.223109	-29.3876	11.5128	-26.0777
  37	1	1	-0.080449	-29.2916	12.577	-26.9879
  38	1	5	-0.108008	-28.8683	10.3944	-23.8743
  39	1	5	-0.182228	-30.0165	12.4934	-28.3222
  40	1	5	-0.345523	-27.061	15.0386	-25.0671
  41	1	7	0.155183	-26.9032	10.6951	-18.0835
  42	1	7	0.172904	-28.4468	13.8983	-15.5506
  43	1	7	0.158028	-30.5486	12.6219	-15.2409
  44	1	7	0.153129	-23.6616	12.432	-21.2187
  45	1	7	0.142914	-23.8466	12.7293	-18.7694
  46	1	7	0.135531	-28.1249	13.4663	-19.1927
  47	1	7	0.17765	-29.9773	10.6377	-26.3371
  48	1	9	0.046541	-29.5146	10.6532	-23.026
  49	1	9	0.045238	-27.8918	10.0873	-23.479
  50	1	9	0.051941	-29.3071	9.51891	-24.3685
  51	1	9	0.087961	-29.7197	11.5934	-28.8746
  52	1	9	0.066782	-29.7974	13.3599	-28.9587
  53	1	9	0.075908	-31.1028	12.4555	-28.1749
  54	1	9	0.105172	-27.3694	15.4668	-24.1052
  55	1	9	0.115625	-27.1848	15.823	-25.8243
  56	1	9	0.140296	-25.9891	14.8065	-25.0138
  57	1	1	-0.004194	-36.007	5.69087	-27.2023
  58	1	1	-0.097141	-35.3109	6.80324	-27.7457
  59	1	1	-0.172015	-35.9016	7.49843	-28.8407
  60	1	2	-0.377994	-38.0255	3.46472	-26.4148
  61	1	1	0.033493	-37.2556	5.34521	-27.7254
  62	1	1	-0.063739	-37.166	7.1342	-29.3502
  63	1	2	-0.398381	-39.9575	5.8646	-29.889
  64	1	1	0.032144	-37.827	6.05467	-28.7607
  65	1	3	0.032313	-38.1944	4.27239	-27.3135
  66	1	4	0.461698	-39.2982	4.41948	-28.1514
  67	1	3	0.091945	-39.1624	5.47508	-29.0501
  68	1	1	-0.10563	-35.6299	7.96339	-23.682
  69	1	5	-0.099376	-33.9519	7.21535	-27.1029
  70	1	1	-0.043296	-34.1699	7.27882	-25.5632
  71	1	1	-0.073043	-35.3706	7.85941	-25.0619
  72	1	1	-0.117827	-34.6546	7.49399	-22.7998
  73	1	1	-0.037562	-33.1966	6.8348	-24.6291
  74	1	1	-0.083705	-33.4707	6.95548	-23.2605
  75	1	5	0.396	-33.4421	8.64564	-27.5309
  76	1	5	0.310495	-32.8946	6.13363	-27.5535
  77	1	6	-0.130298	-33.0559	8.70634	-28.8254
  78	1	6	-0.128745	-32.3803	9.04258	-26.7924
  79	1	6	-0.120019	-34.3906	9.59294	-27.35
  80	1	6	-0.104287	-32.9484	5.92009	-28.8882
  81	1	6	-0.095507	-33.1191	4.93515	-26.9692
  82	1	6	-0.104872	-31.6171	6.4747	-27.2718
  83	1	3	0.456145	-32.622	6.634	-22.0823
  84	1	3	0.550902	-34.6087	7.52605	-21.3146
  85	1	4	0.015704	-33.3607	7.0238	-20.9714
  86	1	2	-0.456801	-31.4907	6.18242	-22.1138
  87	1	2	-0.487703	-35.4772	7.96092	-20.5776
  88	1	1	-0.116566	-32.8594	7.00632	-19.6369
  89	1	1	-0.050109	-32.0198	8.05143	-19.1824
  90	1	1	0.154929	-31.5102	8.00806	-17.8588
  91	1	1	0.041555	-33.2112	5.94761	-18.7733
  92	1	1	-0.223109	-32.7115	5.92768	-17.4618
  93	1	1	-0.080449	-31.8588	6.94189	-16.9976
  94	1	5	-0.108008	-34.1261	4.81994	-19.2367
  95	1	5	-0.182228	-31.334	6.86139	-15.5668
  96	1	5	-0.345523	-31.6494	9.20309	-20.1312
  97	1	7	0.155183	-35.6072	5.11884	-26.3686
  98	1	7	0.172904	-35.4031	8.34051	-29.3097
  99	1	7	0.158028	-37.6271	7.67785	-30.1722
 100	1	7	0.153129	-36.5472	8.41557	-23.3092
 101	1	7	0.142914	-36.1161	8.24848	-25.7507
 102	1	7	0.135531	-32.2402	6.42215	-24.9331
 103	1	7	0.17765	-32.9873	5.11164	-16.7992
 104	1	9	0.046541	-33.7233	4.32556	-20.1294
 105	1	9	0.045238	-35.1266	5.20013	-19.4783
 106	1	9	0.051941	-34.2469	4.05069	-18.464
 107	1	9	0.087961	-31.8005	7.62722	-14.9329
 108	1	9	0.066782	-30.2461	7.00031	-15.5277
 109	1	9	0.075908	-31.5492	5.88713	-15.11
 110	1	9	0.105172	-31.4499	10.1443	-19.6057
 111	1	9	0.115625	-32.4486	9.43965	-20.8427
 112	1	9	0.140296	-30.7508	8.94859	-20.7114
 113	1	1	-0.004194	-38.9325	-6.07218	-30.5487
 114	1	1	-0.097141	-40.2798	-5.73569	-30.8535
 115	1	1	-0.172015	-41.2861	-6.0985	-29.9129
 116	1	2	-0.377994	-36.2514	-6.86759	-29.216
 117	1	1	0.033493	-38.6574	-6.76367	-29.3646
 118	1	1	-0.063739	-40.9901	-6.83062	-28.7435
 119	1	2	-0.398381	-39.6192	-8.36168	-26.4003
 120	1	1	0.032144	-39.6556	-7.16174	-28.5002
 121	1	3	0.032313	-37.3519	-7.14917	-28.7771
 122	1	4	0.461698	-37.6615	-7.81863	-27.5955
 123	1	3	0.091945	-39.0332	-7.86732	-27.349
 124	1	1	-0.10563	-43.1062	-1.89585	-32.1011
 125	1	5	-0.099376	-40.7026	-4.98992	-32.1595
 126	1	1	-0.043296	-41.4177	-3.67324	-31.7534
 127	1	1	-0.073043	-42.5493	-3.14843	-32.4428
 128	1	1	-0.117827	-42.4975	-1.16089	-31.0769
 129	1	1	-0.037562	-40.8444	-2.89584	-30.7187
 130	1	1	-0.083705	-41.3914	-1.64879	-30.4181
 131	1	5	0.396	-41.6144	-5.9857	-32.9848
 132	1	5	0.310495	-39.4878	-4.55183	-33.0665
 133	1	6	-0.130298	-42.8394	-6.14239	-32.4356
 134	1	6	-0.128745	-41.0632	-7.21856	-33.0391
 135	1	6	-0.120019	-41.8215	-5.60677	-34.266
 136	1	6	-0.104287	-38.8143	-5.60661	-33.5771
 137	1	6	-0.095507	-38.5854	-3.79295	-32.412
 138	1	6	-0.104872	-39.8899	-3.78495	-34.1036
 139	1	3	0.456145	-40.9279	-0.626679	-29.4508
 140	1	3	0.550902	-42.7971	0.191237	-30.527
 141	1	4	0.015704	-41.8206	0.432202	-29.5645
 142	1	2	-0.456801	-39.9074	-0.683238	-28.7884
 143	1	2	-0.487703	-43.6995	0.928244	-30.8886
 144	1	1	-0.116566	-41.7173	1.62656	-28.7849
 145	1	1	-0.050109	-40.5982	2.48478	-28.9376
 146	1	1	0.154929	-40.4523	3.59682	-28.0717
 147	1	1	0.041555	-42.7023	1.9162	-27.8107
 148	1	1	-0.223109	-42.5568	3.0434	-26.9887
 149	1	1	-0.080449	-41.4364	3.87855	-27.098
 150	1	5	-0.108008	-43.9405	1.04802	-27.6116
 151	1	5	-0.182228	-41.3145	5.07302	-26.1561
 152	1	5	-0.345523	-39.5354	2.19884	-30.0098
 153	1	7	0.155183	-38.0955	-5.80979	-31.1848
 154	1	7	0.172904	-42.3205	-5.81502	-30.0891
 155	1	7	0.158028	-41.7673	-7.11893	-28.0388
 156	1	7	0.153129	-43.9638	-1.49293	-32.6366
 157	1	7	0.142914	-42.9991	-3.68868	-33.2688
 158	1	7	0.135531	-39.9638	-3.22706	-30.1805
 159	1	7	0.17765	-43.3215	3.26218	-26.2482
 160	1	9	0.046541	-44.7295	1.33215	-28.3189
 161	1	9	0.045238	-44.3486	1.1578	-26.5995
 162	1	9	0.051941	-43.73	-0.015958	-27.7543
 163	1	9	0.087961	-41.2423	6.01491	-26.7152
 164	1	9	0.066782	-40.4278	4.98426	-25.5151
 165	1	9	0.075908	-42.1844	5.15783	-25.4928
 166	1	9	0.105172	-39.1019	3.11226	-30.4332
 167	1	9	0.115625	-39.9454	1.65596	-30.8693
 168	1	9	0.140296	-38.7173	1.59281	-29.596
 169	1	1	-0.004194	-28.8125	-17.3477	-28.4193
 170	1	1	-0.097141	-29.2219	-16.062	-27.9689
 171	1	1	-0.172015	-29.1754	-15.7881	-26.5724
 172	1	2	-0.377994	-27.7898	-20.2852	-28.7117
 173	1	1	0.033493	-28.3898	-18.29	-27.472
 174	1	1	-0.063739	-28.7506	-16.7511	-25.6374
 175	1	2	-0.398381	-27.7338	-19.2953	-24.1773
 176	1	1	0.032144	-28.3624	-18.0002	-26.1215
 177	1	3	0.032313	-27.9211	-19.6896	-27.6551
 178	1	4	0.461698	-27.6575	-20.1523	-26.3669
 179	1	3	0.091945	-27.885	-19.1948	-25.3841
 180	1	1	-0.10563	-33.1949	-14.7294	-27.2616
 181	1	5	-0.099376	-29.6925	-14.9264	-28.9265
 182	1	1	-0.043296	-30.9998	-14.3219	-28.3358
 183	1	1	-0.073043	-31.9973	-15.2044	-27.8309
 184	1	1	-0.117827	-33.3922	-13.3469	-27.2182
 185	1	1	-0.037562	-31.2581	-12.9257	-28.3021
 186	1	1	-0.083705	-32.4568	-12.4746	-27.7356
 187	1	5	0.396	-30.0565	-15.4156	-30.378
 188	1	5	0.310495	-28.4965	-13.8989	-29.0162
 189	1	6	-0.130298	-28.9805	-15.8203	-31.0905
 190	1	6	-0.128745	-30.6488	-14.4313	-31.0911
 191	1	6	-0.120019	-30.9343	-16.4425	-30.3583
 192	1	6	-0.104287	-28.3095	-13.2355	-27.8528
 193	1	6	-0.095507	-28.6575	-12.9632	-29.9789
 194	1	6	-0.104872	-27.328	-14.5261	-29.284
 195	1	3	0.456145	-32.9571	-11.089	-27.5353
 196	1	3	0.550902	-34.5143	-12.549	-26.6556
 197	1	4	0.015704	-34.1734	-11.2206	-26.8758
 198	1	2	-0.456801	-32.3762	-10.0623	-27.8426
 199	1	2	-0.487703	-35.4992	-12.9917	-26.09
 200	1	1	-0.116566	-34.9388	-10.1081	-26.4151
 201	1	1	-0.050109	-36.0002	-9.58826	-27.1935
 202	1	1	0.154929	-36.6689	-8.4105	-26.7649
 203	1	1	0.041555	-34.5823	-9.49274	-25.1967
 204	1	1	-0.223109	-35.2639	-8.34251	-24.7758
 205	1	1	-0.080449	-36.2919	-7.78527	-25.5515
 206	1	5	-0.108008	-33.4496	-10.037	-24.3332
 207	1	5	-0.182228	-36.9366	-6.49153	-25.063
 208	1	5	-0.345523	-36.3728	-10.2781	-28.5129
 209	1	7	0.155183	-28.8173	-17.6354	-29.4659
 210	1	7	0.172904	-29.4774	-14.8111	-26.2
 211	1	7	0.158028	-28.7222	-16.5375	-24.5709
 212	1	7	0.153129	-33.9422	-15.4135	-26.8634
 213	1	7	0.142914	-31.8401	-16.2796	-27.8695
 214	1	7	0.135531	-30.5599	-12.1911	-28.6895
 215	1	7	0.17765	-34.9696	-7.86057	-23.8475
 216	1	9	0.046541	-32.4821	-9.92296	-24.8378
 217	1	9	0.045238	-33.5968	-11.1013	-24.1112
 218	1	9	0.051941	-33.3825	-9.51182	-23.3726
 219	1	9	0.087961	-36.6701	-5.64802	-25.7111
 220	1	9	0.066782	-36.6019	-6.22972	-24.0513
 221	1	9	0.075908	-38.0295	-6.57162	-25.0168
 222	1	9	0.105172	-35.6939	-9.96036	-29.3152
 223	1	9	0.115625	-37.3971	-10.0667	-28.8401
 224	1	9	0.140296	-36.3189	-11.3708	-28.4367
 225	1	1	-0.004194	-30.1504	-30.1391	-29.6383
 226	1	1	-0.097141	-30.2816	-30.3805	-28.2412
 227	1	1	-0.172015	-29.1053	-30.7225	-27.5118
 228	1	2	-0.377994	-29.1556	-29.0226	-32.3386
 229	1	1	0.033493	-28.8682	-30.1168	-30.2025
 230	1	1	-0.063739	-27.8338	-30.7538	-28.1113
 231	1	2	-0.398381	-25.3902	-30.0173	-29.8146
 232	1	1	0.032144	-27.743	-30.4032	-29.4557
 233	1	3	0.032313	-28.4287	-29.4864	-31.4759
 234	1	4	0.461698	-27.0445	-29.3641	-31.3553
 235	1	3	0.091945	-26.5439	-29.974	-30.21
 236	1	1	-0.10563	-30.8044	-27.5832	-24.4102
 237	1	5	-0.099376	-31.5594	-29.9881	-27.4275
 238	1	1	-0.043296	-31.0973	-28.7816	-26.5575
 239	1	1	-0.073043	-31.3539	-28.6494	-25.1626
 240	1	1	-0.117827	-30.0027	-26.6432	-25.0746
 241	1	1	-0.037562	-30.3217	-27.7756	-27.1897
 242	1	1	-0.083705	-29.7877	-26.7382	-26.4309
 243	1	5	0.396	-32.0448	-31.2538	-26.606
 244	1	5	0.310495	-32.7675	-29.4803	-28.314
 245	1	6	-0.130298	-31.1856	-31.6197	-25.63
 246	1	6	-0.128745	-32.181	-32.3316	-27.4105
 247	1	6	-0.120019	-33.2327	-31.0782	-25.986
 248	1	6	-0.104287	-33.2244	-30.4363	-29.1535
 249	1	6	-0.095507	-32.455	-28.4039	-29.0704
 250	1	6	-0.104872	-33.8142	-29.0712	-27.5626
 251	1	3	0.456145	-28.8892	-25.6407	-26.8546
 252	1	3	0.550902	-29.2289	-25.466	-24.5783
 253	1	4	0.015704	-28.5894	-24.9399	-25.6986
 254	1	2	-0.456801	-28.4792	-25.4424	-27.985
 255	1	2	-0.487703	-29.1541	-25.0871	-23.4221
 256	1	1	-0.116566	-27.6863	-23.8365	-25.6946
 257	1	1	-0.050109	-28.1513	-22.5267	-25.9611
 258	1	1	0.154929	-27.2142	-21.4689	-26.0753
 259	1	1	0.041555	-26.3054	-24.0817	-25.5308
 260	1	1	-0.223109	-25.3939	-23.019	-25.6257
 261	1	1	-0.080449	-25.8332	-21.7153	-25.9012
 262	1	5	-0.108008	-25.7748	-25.4888	-25.2796
 263	1	5	-0.182228	-24.8021	-20.5949	-25.9999
 264	1	5	-0.345523	-29.6496	-22.2657	-26.1714
 265	1	7	0.155183	-30.9768	-29.8159	-30.261
 266	1	7	0.172904	-29.1386	-30.843	-26.434
 267	1	7	0.158028	-26.9325	-30.9049	-27.5207
 268	1	7	0.153129	-30.978	-27.5032	-23.3386
 269	1	7	0.142914	-31.9598	-29.3812	-24.6381
 270	1	7	0.135531	-30.0936	-27.8072	-28.251
 271	1	7	0.17765	-24.333	-23.2153	-25.4941
 272	1	9	0.046541	-24.6894	-25.4922	-25.1213
 273	1	9	0.045238	-25.9807	-26.1446	-26.1351
 274	1	9	0.051941	-26.2355	-25.9325	-24.3883
 275	1	9	0.087961	-24.8759	-19.9189	-25.1374
 276	1	9	0.066782	-24.9392	-19.9988	-26.9104
 277	1	9	0.075908	-23.7773	-20.9867	-26.02
 278	1	9	0.105172	-30.2837	-22.9967	-25.6574
 279	1	9	0.115625	-29.9018	-22.3023	-27.2402
 280	1	9	0.140296	-29.9659	-21.29	-25.7828
 281	1	1	-0.004194	-27.0739	-18.7886	-32.0347
 282	1	1	-0.097141	-25.7621	-18.4525	-32.4651
 283	1	1	-0.172015	-25.613	-17.8028	-33.7252
 284	1	2	-0.377994	-30.1423	-19.1528	-31.6457
 285	1	1	0.033493	-28.1619	-18.4841	-32.861
 286	1	1	-0.063739	-26.7208	-17.5285	-34.5519
 287	1	2	-0.398381	-29.532	-17.2494	-35.8382
 288	1	1	0.032144	-27.9877	-17.8893	-34.0931
 289	1	3	0.032313	-29.6166	-18.6999	-32.649
 290	1	4	0.461698	-30.2263	-18.2385	-33.8172
 291	1	3	0.091945	-29.313	-17.7324	-34.7393
 292	1	1	-0.10563	-24.2205	-22.1913	-29.6198
 293	1	5	-0.099376	-24.5561	-18.7996	-31.5393
 294	1	1	-0.043296	-24.6532	-20.3076	-31.1656
 295	1	1	-0.073043	-24.2438	-20.809	-29.8972
 296	1	1	-0.117827	-24.6097	-23.0726	-30.633
 297	1	1	-0.037562	-25.0581	-21.2411	-32.1568
 298	1	1	-0.083705	-25.0363	-22.6086	-31.8586
 299	1	5	0.396	-24.6416	-17.8227	-30.2999
 300	1	5	0.310495	-23.1483	-18.6248	-32.2305
 301	1	6	-0.130298	-25.6625	-18.1382	-29.4739
 302	1	6	-0.128745	-24.8546	-16.5459	-30.6919
 303	1	6	-0.120019	-23.5242	-17.804	-29.5388
 304	1	6	-0.104287	-22.8415	-17.3327	-32.487
 305	1	6	-0.095507	-23.0727	-19.3014	-33.3996
 306	1	6	-0.104872	-22.1462	-19.1127	-31.4639
 307	1	3	0.456145	-25.3665	-23.782	-32.7113
 308	1	3	0.550902	-24.6167	-24.5597	-30.6711
 309	1	4	0.015704	-25.0787	-24.9038	-31.9393
 310	1	2	-0.456801	-25.783	-23.7401	-33.8568
 311	1	2	-0.487703	-24.2312	-25.2979	-29.7794
 312	1	1	-0.116566	-25.2363	-26.2559	-32.3844
 313	1	1	-0.050109	-26.1902	-27.1022	-31.7659
 314	1	1	0.154929	-26.2486	-28.4747	-32.1268
 315	1	1	0.041555	-24.3901	-26.7716	-33.3938
 316	1	1	-0.223109	-24.5103	-28.1153	-33.785
 317	1	1	-0.080449	-25.4193	-28.977	-33.1519
 318	1	5	-0.108008	-23.3163	-25.9183	-34.0608
 319	1	5	-0.182228	-25.4595	-30.4464	-33.5587
 320	1	5	-0.345523	-27.1113	-26.5487	-30.6669
 321	1	7	0.155183	-27.2511	-19.2889	-31.0855
 322	1	7	0.172904	-24.6396	-17.5023	-34.0969
 323	1	7	0.158028	-26.6037	-17.046	-35.5198
 324	1	7	0.153129	-23.8872	-22.5689	-28.6554
 325	1	7	0.142914	-23.9021	-20.1393	-29.1181
 326	1	7	0.135531	-25.3498	-20.9222	-33.1545
 327	1	7	0.17765	-23.8573	-28.5017	-34.5626
 328	1	9	0.046541	-22.5677	-26.5386	-34.5687
 329	1	9	0.045238	-22.7769	-25.302	-33.3312
 330	1	9	0.051941	-23.7556	-25.2531	-34.8142
 331	1	9	0.087961	-26.4754	-30.7541	-33.8388
 332	1	9	0.066782	-25.1188	-31.0924	-32.7391
 333	1	9	0.075908	-24.812	-30.6466	-34.4217
 334	1	9	0.105172	-27.2729	-25.4676	-30.7469
 335	1	9	0.115625	-26.6934	-26.741	-29.6692
 336	1	9	0.140296	-28.1206	-26.9732	-30.6992
 337	1	1	-0.004194	-39.4573	-11.1752	-35.4021
 338	1	1	-0.097141	-38.799	-10.277	-34.5211
 339	1	1	-0.172015	-38.9735	-8.88007	-34.7338
 340	1	2	-0.377994	-40.9899	-12.5772	-37.7128
 341	1	1	0.033493	-40.2119	-10.6616	-36.4613
 342	1	1	-0.063739	-39.7493	-8.38553	-35.802
 343	1	2	-0.398381	-41.4924	-8.00383	-38.3542
 344	1	1	0.032144	-40.3537	-9.30424	-36.6589
 345	1	3	0.032313	-40.9174	-11.3697	-37.5569
 346	1	4	0.461698	-41.434	-10.3592	-38.3658
 347	1	3	0.091945	-41.1626	-9.08093	-37.8837
 348	1	1	-0.10563	-35.5821	-12.6882	-35.9035
 349	1	5	-0.099376	-37.9073	-10.8591	-33.3829
 350	1	1	-0.043296	-37.0051	-11.9644	-34.0073
 351	1	1	-0.073043	-36.4154	-11.7355	-35.2844
 352	1	1	-0.117827	-35.3182	-13.8731	-35.2107
 353	1	1	-0.037562	-36.6899	-13.172	-33.3296
 354	1	1	-0.083705	-35.8461	-14.0984	-33.956
 355	1	5	0.396	-38.89	-11.3874	-32.2674
 356	1	5	0.310495	-36.9212	-9.81036	-32.7447
 357	1	6	-0.130298	-39.8216	-10.4591	-31.9483
 358	1	6	-0.128745	-38.2705	-11.7159	-31.1111
 359	1	6	-0.120019	-39.5686	-12.4819	-32.6784
 360	1	6	-0.104287	-37.5483	-8.87494	-31.9945
 361	1	6	-0.095507	-36.2079	-9.16211	-33.6911
 362	1	6	-0.104872	-36.0122	-10.4064	-31.9405
 363	1	3	0.456145	-35.3273	-15.4024	-33.4653
 364	1	3	0.550902	-34.4595	-15.0339	-35.5728
 365	1	4	0.015704	-34.5077	-15.8868	-34.4777
 366	1	2	-0.456801	-35.5513	-15.9035	-32.377
 367	1	2	-0.487703	-33.8319	-15.17	-36.6096
 368	1	1	-0.116566	-33.7588	-17.098	-34.3857
 369	1	1	-0.050109	-32.376	-17.0554	-34.0874
 370	1	1	0.154929	-31.6304	-18.2631	-34.0512
 371	1	1	0.041555	-34.3982	-18.3317	-34.6283
 372	1	1	-0.223109	-33.6517	-19.5185	-34.5808
 373	1	1	-0.080449	-32.2752	-19.4975	-34.3048
 374	1	5	-0.108008	-35.8832	-18.4027	-34.9668
 375	1	5	-0.182228	-31.5117	-20.8196	-34.3144
 376	1	5	-0.345523	-31.7063	-15.6947	-33.8551
 377	1	7	0.155183	-39.358	-12.2525	-35.2959
 378	1	7	0.172904	-38.4969	-8.1504	-34.0906
 379	1	7	0.158028	-39.8642	-7.32149	-35.9767
 380	1	7	0.153129	-35.142	-12.5035	-36.882
 381	1	7	0.142914	-36.6013	-10.8007	-35.8098
 382	1	7	0.135531	-37.0655	-13.4011	-32.338
 383	1	7	0.17765	-34.1467	-20.4655	-34.7795
 384	1	9	0.046541	-36.4954	-18.0569	-34.1246
 385	1	9	0.045238	-36.1984	-19.4268	-35.2016
 386	1	9	0.051941	-36.1199	-17.7811	-35.8393
 387	1	9	0.087961	-30.6297	-20.7725	-34.966
 388	1	9	0.066782	-32.1344	-21.6451	-34.6813
 389	1	9	0.075908	-31.1778	-21.0929	-33.305
 390	1	9	0.105172	-30.7372	-15.7642	-33.3525
 391	1	9	0.115625	-32.3226	-15.0382	-33.2285
 392	1	9	0.140296	-31.5334	-15.1841	-34.8136
 393	1	1	-0.004194	-36.6251	-8.65535	-44.7592
 394	1	1	-0.097141	-36.6886	-8.33799	-46.143
 395	1	1	-0.172015	-36.5777	-6.97111	-46.5258
 396	1	2	-0.377994	-37.0499	-8.69858	-41.704
 397	1	1	0.033493	-36.6174	-7.62121	-43.8239
 398	1	1	-0.063739	-36.5262	-5.94055	-45.5615
 399	1	2	-0.398381	-36.8905	-4.23845	-42.9793
 400	1	1	0.032144	-36.5855	-6.298	-44.211
 401	1	3	0.032313	-36.8734	-7.68769	-42.3646
 402	1	4	0.461698	-37.0164	-6.36065	-41.9699
 403	1	3	0.091945	-36.8048	-5.45508	-43.0079
 404	1	1	-0.10563	-38.8664	-12.5138	-45.5098
 405	1	5	-0.099376	-36.9996	-9.48697	-47.152
 406	1	1	-0.043296	-38.091	-10.3716	-46.4729
 407	1	1	-0.073043	-37.9908	-11.787	-46.3451
 408	1	1	-0.117827	-39.8485	-11.8057	-44.8076
 409	1	1	-0.037562	-39.1726	-9.71527	-45.8278
 410	1	1	-0.083705	-40.0051	-10.4471	-44.9797
 411	1	5	0.396	-35.6371	-10.231	-47.4188
 412	1	5	0.310495	-37.6093	-8.99902	-48.5216
 413	1	6	-0.130298	-35.7266	-11.175	-48.3825
 414	1	6	-0.128745	-35.1727	-10.8379	-46.3028
 415	1	6	-0.120019	-34.668	-9.37018	-47.8045
 416	1	6	-0.104287	-38.099	-10.0358	-49.2389
 417	1	6	-0.095507	-36.7137	-8.36961	-49.3151
 418	1	6	-0.104872	-38.6433	-8.1466	-48.3404
 419	1	3	0.456145	-40.9898	-9.95489	-43.9842
 420	1	3	0.550902	-40.7417	-12.2349	-43.6959
 421	1	4	0.015704	-41.3342	-11.067	-43.2287
 422	1	2	-0.456801	-41.2892	-8.78923	-43.7877
 423	1	2	-0.487703	-40.8057	-13.3547	-43.2179
 424	1	1	-0.116566	-42.0572	-10.9793	-42.0045
 425	1	1	-0.050109	-41.3745	-10.7038	-40.7935
 426	1	1	0.154929	-42.1124	-10.6115	-39.588
 427	1	1	0.041555	-43.4572	-11.1521	-42.0088
 428	1	1	-0.223109	-44.1731	-11.0487	-40.8056
 429	1	1	-0.080449	-43.515	-10.7812	-39.5945
 430	1	5	-0.108008	-44.2109	-11.4415	-43.3011
 431	1	5	-0.182228	-44.3348	-10.678	-38.3122
 432	1	5	-0.345523	-39.8518	-10.4928	-40.762
 433	1	7	0.155183	-36.7156	-9.67824	-44.4016
 434	1	7	0.172904	-36.5945	-6.67969	-47.5715
 435	1	7	0.158028	-36.5245	-4.89199	-45.8526
 436	1	7	0.153129	-38.7339	-13.5825	-45.3502
 437	1	7	0.142914	-37.1946	-12.3388	-46.8324
 438	1	7	0.135531	-39.2868	-8.63434	-45.8712
 439	1	7	0.17765	-45.2516	-11.1806	-40.8139
 440	1	9	0.046541	-43.8404	-12.3587	-43.7757
 441	1	9	0.045238	-44.0963	-10.6166	-44.0153
 442	1	9	0.051941	-45.285	-11.5761	-43.1241
 443	1	9	0.087961	-44.249	-9.67791	-37.8673
 444	1	9	0.066782	-44.0038	-11.4147	-37.5687
 445	1	9	0.075908	-45.4011	-10.8607	-38.4957
 446	1	9	0.105172	-39.3499	-10.6745	-41.7173
 447	1	9	0.115625	-39.3697	-11.1673	-40.0422
 448	1	9	0.140296	-39.6014	-9.46083	-40.4778
 449	1	1	-0.004194	-34.9205	-4.37092	-30.6732
 450	1	1	-0.097141	-33.6207	-4.93751	-30.7546
 451	1	1	-0.172015	-32.7755	-4.83104	-29.6119
 452	1	2	-0.377994	-37.55	-2.93202	-29.9042
 453	1	1	0.033493	-35.3033	-3.70302	-29.5047
 454	1	1	-0.063739	-33.1966	-4.18667	-28.4293
 455	1	2	-0.398381	-34.8018	-2.76442	-26.168
 456	1	1	0.032144	-34.4758	-3.62818	-28.4051
 457	1	3	0.032313	-36.5887	-3.04684	-29.1657
 458	1	4	0.461698	-36.4603	-2.64249	-27.836
 459	1	3	0.091945	-35.2105	-2.95453	-27.3022
 460	1	1	-0.10563	-34.5807	-3.26865	-34.6764
 461	1	5	-0.099376	-33.193	-5.75175	-32.0154
 462	1	1	-0.043296	-33.9565	-5.21355	-33.2695
 463	1	1	-0.073043	-33.9316	-3.81744	-33.5505
 464	1	1	-0.117827	-35.2627	-4.14083	-35.5311
 465	1	1	-0.037562	-34.6504	-6.05999	-34.1772
 466	1	1	-0.083705	-35.2993	-5.49566	-35.2808
 467	1	5	0.396	-33.5118	-7.26395	-31.6981
 468	1	5	0.310495	-31.6556	-5.60669	-32.3427
 469	1	6	-0.130298	-32.9953	-7.66821	-30.5158
 470	1	6	-0.128745	-33.0268	-8.11098	-32.6348
 471	1	6	-0.120019	-34.8425	-7.4716	-31.6142
 472	1	6	-0.104287	-31.3776	-6.01795	-33.6014
 473	1	6	-0.095507	-30.8481	-6.32327	-31.5294
 474	1	6	-0.104872	-31.2464	-4.32083	-32.2599
 475	1	3	0.456145	-36.0945	-6.14664	-36.3553
 476	1	3	0.550902	-36.0214	-3.88059	-36.7862
 477	1	4	0.015704	-36.4767	-5.12265	-37.2125
 478	1	2	-0.456801	-36.3869	-7.32891	-36.4209
 479	1	2	-0.487703	-36.1912	-2.79552	-37.3142
 480	1	1	-0.116566	-37.2901	-5.33328	-38.3669
 481	1	1	-0.050109	-36.7064	-5.71299	-39.5996
 482	1	1	0.154929	-37.548	-5.98341	-40.7093
 483	1	1	0.041555	-38.6906	-5.19807	-38.2577
 484	1	1	-0.223109	-39.5087	-5.49067	-39.3558
 485	1	1	-0.080449	-38.9536	-5.89381	-40.5766
 486	1	5	-0.108008	-39.3466	-4.73058	-36.9698
 487	1	5	-0.182228	-39.8982	-6.22291	-41.7307
 488	1	5	-0.345523	-35.1811	-5.8324	-39.6999
 489	1	7	0.155183	-35.6409	-4.46436	-31.4798
 490	1	7	0.172904	-31.7939	-5.29243	-29.6019
 491	1	7	0.158028	-32.5598	-4.143	-27.5484
 492	1	7	0.153129	-34.5508	-2.19975	-34.88
 493	1	7	0.142914	-33.4011	-3.14293	-32.883
 494	1	7	0.135531	-34.6941	-7.13553	-34.0617
 495	1	7	0.17765	-40.5889	-5.41384	-39.2546
 496	1	9	0.046541	-38.9179	-5.24024	-36.1031
 497	1	9	0.045238	-40.4258	-4.92883	-36.9667
 498	1	9	0.051941	-39.2053	-3.65092	-36.8351
 499	1	9	0.087961	-40.9503	-6.18475	-41.4199
 500	1	9	0.066782	-39.7233	-7.23559	-42.1152
 501	1	9	0.075908	-39.779	-5.51506	-42.5609
 502	1	9	0.105172	-34.8135	-5.9511	-40.7251
 503	1	9	0.115625	-34.8203	-6.69523	-39.1242
 504	1	9	0.140296	-34.6898	-4.9329	-39.3063
 505	1	1	-0.004194	-44.5458	-8.19448	-21.2772
 506	1	1	-0.097141	-44.5962	-6.9858	-22.0231
 507	1	1	-0.172015	-44.307	-5.76934	-21.3392
 508	1	2	-0.377994	-44.2904	-10.4331	-19.1539
 509	1	1	0.033493	-44.153	-8.15374	-19.9367
 510	1	1	-0.063739	-43.8698	-5.75603	-19.9965
 511	1	2	-0.398381	-42.9	-6.49498	-17.1214
 512	1	1	0.032144	-43.7861	-6.97646	-19.3213
 513	1	3	0.032313	-44.0164	-9.26045	-18.9592
 514	1	4	0.461698	-43.5054	-8.66749	-17.8047
 515	1	3	0.091945	-43.3402	-7.28803	-17.9376
 516	1	1	-0.10563	-44.3693	-4.03678	-26.0285
 517	1	5	-0.099376	-45.0385	-6.97147	-23.5208
 518	1	1	-0.043296	-44.3491	-5.79283	-24.2807
 519	1	1	-0.073043	-45.0228	-5.03906	-25.2868
 520	1	1	-0.117827	-43.0286	-3.77773	-25.7405
 521	1	1	-0.037562	-42.9759	-5.509	-24.0437
 522	1	1	-0.083705	-42.3566	-4.47599	-24.7612
 523	1	5	0.396	-46.6117	-6.86938	-23.5072
 524	1	5	0.310495	-44.5988	-8.27488	-24.2945
 525	1	6	-0.130298	-47.0155	-5.64074	-23.1118
 526	1	6	-0.128745	-47.1705	-7.7473	-22.6433
 527	1	6	-0.120019	-47.1784	-7.12083	-24.7093
 528	1	6	-0.104287	-44.6972	-8.11963	-25.6354
 529	1	6	-0.095507	-45.3399	-9.36409	-23.9924
 530	1	6	-0.104872	-43.3077	-8.58402	-24.0386
 531	1	3	0.456145	-40.9683	-3.94242	-24.691
 532	1	3	0.550902	-42.0869	-2.81478	-26.3631
 533	1	4	0.015704	-40.8881	-2.96251	-25.677
 534	1	2	-0.456801	-40.0883	-4.32624	-23.9399
 535	1	2	-0.487703	-42.3393	-2.10441	-27.3198
 536	1	1	-0.116566	-39.7049	-2.21994	-25.9806
 537	1	1	-0.050109	-38.6585	-2.82046	-26.7204
 538	1	1	0.154929	-37.5157	-2.05517	-27.0782
 539	1	1	0.041555	-39.6082	-0.866117	-25.5909
 540	1	1	-0.223109	-38.4715	-0.122358	-25.9427
 541	1	1	-0.080449	-37.429	-0.697805	-26.6867
 542	1	5	-0.108008	-40.7294	-0.173809	-24.8251
 543	1	5	-0.182228	-36.2467	0.183106	-27.0808
 544	1	5	-0.345523	-38.8233	-4.27054	-27.1803
 545	1	7	0.155183	-44.8065	-9.1574	-21.7011
 546	1	7	0.172904	-44.4013	-4.81645	-21.8552
 547	1	7	0.158028	-43.6092	-4.82871	-19.4906
 548	1	7	0.153129	-44.889	-3.47979	-26.8061
 549	1	7	0.142914	-46.0598	-5.22744	-25.5345
 550	1	7	0.135531	-42.3988	-6.07435	-23.3149
 551	1	7	0.17765	-38.4135	0.925852	-25.661
 552	1	9	0.046541	-41.0345	-0.75882	-23.9489
 553	1	9	0.045238	-41.6076	-0.0284839	-25.4662
 554	1	9	0.051941	-40.4214	0.815859	-24.4655
 555	1	9	0.087961	-36.4419	1.2405	-26.8624
 556	1	9	0.066782	-36.033	0.112436	-28.1546
 557	1	9	0.075908	-35.341	-0.0985863	-26.5287
 558	1	9	0.105172	-37.8977	-4.7164	-27.5509
 559	1	9	0.115625	-39.5616	-4.32038	-27.9898
 560	1	9	0.140296	-39.1617	-4.92304	-26.3691
 561	1	1	-0.004194	-42.6348	-10.5381	-7.27678
 562	1	1	-0.097141	-43.0638	-9.28943	-6.75607
 563	1	1	-0.172015	-42.1055	-8.47393	-6.08758
 564	1	2	-0.377994	-41.0799	-12.942	-8.43721
 565	1	1	0.033493	-41.2865	-10.8855	-7.19037
 566	1	1	-0.063739	-40.7475	-8.85298	-5.99939
 567	1	2	-0.398381	-37.9512	-10.1952	-6.384
 568	1	1	0.032144	-40.3617	-10.0638	-6.58155
 569	1	3	0.032313	-40.5781	-12.0435	-7.78227
 570	1	4	0.461698	-39.2332	-11.8249	-7.49756
 571	1	3	0.091945	-39.0132	-10.6642	-6.75854
 572	1	1	-0.10563	-46.2693	-10.3003	-10.2052
 573	1	5	-0.099376	-44.5455	-8.86371	-6.98461
 574	1	1	-0.043296	-44.8854	-9.20804	-8.46657
 575	1	1	-0.073043	-46.062	-9.90651	-8.86522
 576	1	1	-0.117827	-45.2898	-9.97226	-11.1493
 577	1	1	-0.037562	-43.9479	-8.85039	-9.47008
 578	1	1	-0.083705	-44.1715	-9.25248	-10.789
 579	1	5	0.396	-44.8059	-7.31752	-6.81364
 580	1	5	0.310495	-45.4061	-9.65527	-5.92764
 581	1	6	-0.130298	-44.7329	-6.90042	-5.52947
 582	1	6	-0.128745	-46.0333	-6.97096	-7.2638
 583	1	6	-0.120019	-43.9249	-6.57402	-7.52067
 584	1	6	-0.104287	-45.3971	-10.9865	-6.16595
 585	1	6	-0.095507	-46.7002	-9.26437	-5.89283
 586	1	6	-0.104872	-44.9199	-9.4992	-4.67514
 587	1	3	0.456145	-43.3005	-9.11022	-11.9814
 588	1	3	0.550902	-45.1659	-10.3256	-12.5918
 589	1	4	0.015704	-43.9472	-9.79558	-13.0025
 590	1	2	-0.456801	-42.2036	-8.57839	-12.0058
 591	1	2	-0.487703	-45.9611	-10.9814	-13.2434
 592	1	1	-0.116566	-43.3589	-10.0028	-14.2873
 593	1	1	-0.050109	-43.7973	-9.26309	-15.4135
 594	1	1	0.154929	-43.113	-9.40739	-16.652
 595	1	1	0.041555	-42.2871	-10.9153	-14.4058
 596	1	1	-0.223109	-41.6225	-11.0456	-15.6318
 597	1	1	-0.080449	-42.0062	-10.288	-16.7471
 598	1	5	-0.108008	-41.8107	-11.7596	-13.2272
 599	1	5	-0.182228	-41.1962	-10.4551	-18.0321
 600	1	5	-0.345523	-44.9939	-8.31479	-15.2518
 601	1	7	0.155183	-43.3163	-11.2068	-7.797
 602	1	7	0.172904	-42.3871	-7.52038	-5.65225
 603	1	7	0.158028	-40.0074	-8.21049	-5.52683
 604	1	7	0.153129	-47.1491	-10.8718	-10.4948
 605	1	7	0.142914	-46.8202	-10.185	-8.14191
 606	1	7	0.135531	-43.0305	-8.31869	-9.22694
 607	1	7	0.17765	-40.7869	-11.7355	-15.7143
 608	1	9	0.046541	-41.2188	-11.1586	-12.5259
 609	1	9	0.045238	-41.1795	-12.5935	-13.5583
 610	1	9	0.051941	-42.6533	-12.1968	-12.6775
 611	1	9	0.087961	-41.0031	-9.49526	-18.5276
 612	1	9	0.066782	-41.7166	-11.1094	-18.7434
 613	1	9	0.075908	-40.2171	-10.9091	-17.8339
 614	1	9	0.105172	-45.317	-7.83567	-16.1812
 615	1	9	0.115625	-44.7578	-7.50751	-14.546
 616	1	9	0.140296	-45.8741	-8.85072	-14.8746
 617	1	1	-0.004194	-34.5318	-23.1938	-3.8509
 618	1	1	-0.097141	-35.1621	-22.3152	-4.77298
 619	1	1	-0.172015	-34.8271	-22.4303	-6.15188
 620	1	2	-0.377994	-32.782	-25.3034	-2.39077
 621	1	1	0.033493	-33.6169	-24.1355	-4.33489
 622	1	1	-0.063739	-33.9212	-23.4032	-6.61991
 623	1	2	-0.398381	-31.9042	-25.7487	-6.92941
 624	1	1	0.032144	-33.3353	-24.2528	-5.68064
 625	1	3	0.032313	-32.8124	-25.1432	-3.59962