pySIMM System Object

1290 atoms
1404 bonds
2484 angles
3676 dihedrals
368 impropers

9 atom types
11 bond types
18 angle types
7 dihedral types
4 improper types

-172.151626 172.151626 xlo xhi
-172.151626 172.151626 ylo yhi
-172.151626 172.151626 zlo zhi

Masses

   1	12.01	# ca
   2	16.0	# o
   3	12.01	# c
   4	14.01	# n
   5	12.01	# c3
   6	19.0	# f
   7	1.008	# ha
   8	1.008	# hn
   9	1.008	# hc

Pair Coeffs

   1	0.086	3.3996695084235347	# ca
   2	0.21	2.959921901149463	# o
   3	0.086	3.3996695084235347	# c
   4	0.17	3.249998523775958	# n
   5	0.1094	3.3996695084235347	# c3
   6	0.061	3.1181455134911875	# f
   7	0.015	2.59964245953351	# ha
   8	0.0157	1.069078461768407	# hn
   9	0.0157	2.649532787749369	# hc

Bond Coeffs

   1	321.0	1.5156	# c3,ca
   2	300.9	1.5375	# c3,c3
   3	384.2	1.4121	# ca,n
   4	330.6	1.0969	# c3,hc
   5	637.7	1.2183	# c,o
   6	403.2	1.0129	# hn,n
   7	356.9	1.3497	# c3,f
   8	461.1	1.3984	# ca,ca
   9	427.6	1.3789	# c,n
  10	345.9	1.4906	# c,ca
  11	345.8	1.086	# ca,ha

Angle Coeffs

   1	70.89	107.36	# f,c3,f
   2	68.72	122.6	# ca,c,o
   3	67.87	120.19	# ca,ca,n
   4	67.68	115.25	# ca,c,n
   5	46.8	110.47	# ca,c3,hc
   6	74.22	123.05	# n,c,o
   7	48.33	117.55	# c,n,hn
   8	63.56	112.24	# ca,c3,ca
   9	62.86	111.51	# c3,c3,c3
  10	66.11	109.24	# c3,c3,f
  11	64.28	120.33	# c,ca,ca
  12	66.62	120.02	# ca,ca,ca
  13	63.74	127.08	# c,n,c
  14	39.4	107.58	# hc,c3,hc
  15	48.18	119.88	# ca,ca,ha
  16	63.15	112.07	# c3,c3,ca
  17	63.53	120.77	# c3,ca,ca
  18	63.82	123.71	# c,n,ca

Dihedral Coeffs

   1	2	2.5	2	180	2.0	1	0	# hn,n,c,o
   2	1	3.625	2	180	# X,ca,ca,X
   3	1	0.0	2	0	# X,c3,ca,X
   4	1	1.0	2	180	# X,c,ca,X
   5	1	0.15555555555555556	3	0	# X,c3,c3,X
   6	1	2.5	2	180	# X,c,n,X
   7	1	0.45	2	180	# X,ca,n,X

Improper Coeffs

   1	1.1	-1	2	# n,X,X,hn
   2	1.1	-1	2	# ca,ca,ca,c3
   3	1.1	-1	2	# ca,X,X,ha
   4	10.5	-1	2	# c,X,X,o

Atoms

   1	1	1	-0.004194	-14.8612	-13.1138	41.7456
   2	1	1	-0.097141	-14.4487	-13.5602	43.0303
   3	1	1	-0.172015	-13.3514	-14.465	43.1097
   4	1	2	-0.377994	-15.4287	-12.6981	38.724
   5	1	1	0.033493	-14.2544	-13.6511	40.6107
   6	1	1	-0.063739	-12.7332	-14.974	41.9481
   7	1	2	-0.398381	-11.9487	-15.7601	39.0419
   8	1	1	0.032144	-13.2277	-14.5655	40.7075
   9	1	3	0.032313	-14.5644	-13.4302	39.1772
  10	1	4	0.461698	-13.6651	-14.2426	38.4906
  11	1	3	0.091945	-12.8298	-14.9694	39.3377
  12	1	1	-0.10563	-19.088	-12.4389	43.723
  13	1	5	-0.099376	-15.2699	-13.0937	44.2712
  14	1	1	-0.043296	-16.7723	-13.2873	43.9034
  15	1	1	-0.073043	-17.7814	-12.3438	44.2478
  16	1	1	-0.117827	-19.3713	-13.4931	42.8476
  17	1	1	-0.037562	-17.1437	-14.407	43.1121
  18	1	1	-0.083705	-18.4272	-14.456	42.565
  19	1	5	0.396	-14.868	-11.5892	44.5273
  20	1	5	0.310495	-15.0049	-13.9378	45.5728
  21	1	6	-0.130298	-15.3454	-10.7707	43.5624
  22	1	6	-0.128745	-13.5249	-11.4298	44.5266
  23	1	6	-0.120019	-15.3118	-11.1035	45.7082
  24	1	6	-0.104287	-13.7695	-13.7407	46.0872
  25	1	6	-0.095507	-15.1447	-15.2636	45.3464
  26	1	6	-0.104872	-15.8856	-13.6329	46.5526
  27	1	3	0.456145	-18.9785	-15.3684	41.531
  28	1	3	0.550902	-20.5727	-13.7672	42.0117
  29	1	4	0.015704	-20.2426	-14.8737	41.2371
  30	1	2	-0.456801	-18.3789	-16.2794	40.9853
  31	1	2	-0.487703	-21.5961	-13.1047	41.9856
  32	1	1	-0.116566	-21.0764	-15.4111	40.213
  33	1	1	-0.050109	-22.149	-16.2631	40.5627
  34	1	1	0.154929	-22.9602	-16.8122	39.5507
  35	1	1	0.041555	-20.8305	-15.1092	38.8504
  36	1	1	-0.223109	-21.6547	-15.6676	37.8581
  37	1	1	-0.080449	-22.7146	-16.5226	38.1977
  38	1	5	-0.108008	-19.7048	-14.1865	38.3889
  39	1	5	-0.182228	-23.5861	-17.1172	37.1018
  40	1	5	-0.345523	-22.4457	-16.5911	42.0237
  41	1	7	0.155183	-15.6896	-12.4209	41.6187
  42	1	7	0.172904	-12.9759	-14.814	44.0661
  43	1	7	0.158028	-11.9133	-15.6869	42.0051
  44	1	7	0.153129	-19.8386	-11.6813	43.94
  45	1	7	0.142914	-17.5565	-11.4956	44.8847
  46	1	7	0.135531	-16.4238	-15.1725	42.8309
  47	1	7	0.17765	-21.4667	-15.4335	36.8137
  48	1	9	0.046541	-20.1165	-13.301	37.8889
  49	1	9	0.045238	-19.0583	-14.7015	37.6675
  50	1	9	0.051941	-19.062	-13.8302	39.2008
  51	1	9	0.087961	-24.1239	-18.0076	37.4517
  52	1	9	0.066782	-22.9835	-17.4173	36.2352
  53	1	9	0.075908	-24.3319	-16.39	36.7569
  54	1	9	0.105172	-21.5517	-16.9554	42.5446
  55	1	9	0.115625	-23.2128	-17.3705	42.1154
  56	1	9	0.140296	-22.8183	-15.7046	42.554
  57	1	1	-0.004194	-18.2587	-18.4436	28.8605
  58	1	1	-0.097141	-19.2318	-19.2104	29.5535
  59	1	1	-0.172015	-19.7277	-20.3928	28.9324
  60	1	2	-0.377994	-16.1185	-17.284	26.9441
  61	1	1	0.033493	-17.7988	-18.884	27.6195
  62	1	1	-0.063739	-19.2516	-20.8167	27.672
  63	1	2	-0.398381	-17.7286	-21.1673	24.9713
  64	1	1	0.032144	-18.2769	-20.0395	27.0395
  65	1	3	0.032313	-16.7718	-18.2916	26.7294
  66	1	4	0.461698	-16.7064	-19.1516	25.6361
  67	1	3	0.091945	-17.5758	-20.2368	25.745
  68	1	1	-0.10563	-16.0828	-18.9839	32.3354
  69	1	5	-0.099376	-19.6935	-18.7129	30.9544
  70	1	1	-0.043296	-18.3958	-18.3358	31.7307
  71	1	1	-0.073043	-17.3175	-19.2665	31.7243
  72	1	1	-0.117827	-15.938	-17.7465	32.9641
  73	1	1	-0.037562	-18.214	-17.0994	32.4095
  74	1	1	-0.083705	-16.972	-16.8332	33.0065
  75	1	5	0.396	-20.4451	-19.8004	31.8181
  76	1	5	0.310495	-20.6711	-17.5008	30.6972
  77	1	6	-0.130298	-21.6711	-20.1129	31.3407
  78	1	6	-0.128745	-20.6225	-19.3828	33.0923
  79	1	6	-0.120019	-19.7526	-20.9589	31.899
  80	1	6	-0.104287	-21.6652	-17.8383	29.8441
  81	1	6	-0.095507	-20.0394	-16.448	30.1312
  82	1	6	-0.104872	-21.263	-17.0456	31.8242
  83	1	3	0.456145	-16.4922	-15.6342	33.7517
  84	1	3	0.550902	-14.7698	-17.1697	33.6748
  85	1	4	0.015704	-15.1783	-15.9179	34.1118
  86	1	2	-0.456801	-17.1449	-14.6383	34.0122
  87	1	2	-0.487703	-13.6888	-17.7105	33.8362
  88	1	1	-0.116566	-14.3342	-15.0716	34.8909
  89	1	1	-0.050109	-14.5049	-15.0066	36.2955
  90	1	1	0.154929	-13.5623	-14.2868	37.0753
  91	1	1	0.041555	-13.2574	-14.3966	34.2714
  92	1	1	-0.223109	-12.3411	-13.6852	35.0582
  93	1	1	-0.080449	-12.4741	-13.632	36.4522
  94	1	5	-0.108008	-13.0209	-14.4358	32.7654
  95	1	5	-0.182228	-11.4194	-12.8741	37.2562
  96	1	5	-0.345523	-15.7045	-15.7185	36.9398
  97	1	7	0.155183	-17.846	-17.5288	29.279
  98	1	7	0.172904	-20.4862	-21.004	29.4113
  99	1	7	0.158028	-19.6232	-21.7236	27.1989
 100	1	7	0.153129	-15.2617	-19.6981	32.3119
 101	1	7	0.142914	-17.4271	-20.221	31.2158
 102	1	7	0.135531	-18.9921	-16.3452	32.4691
 103	1	7	0.17765	-11.5011	-13.1901	34.5781
 104	1	9	0.046541	-13.9465	-14.5828	32.1969
 105	1	9	0.045238	-12.3267	-15.244	32.5034
 106	1	9	0.051941	-12.5808	-13.4939	32.4142
 107	1	9	0.087961	-10.8486	-13.5534	37.9031
 108	1	9	0.066782	-11.8746	-12.1006	37.8876
 109	1	9	0.075908	-10.6918	-12.3749	36.6044
 110	1	9	0.105172	-15.634	-15.8201	38.028
 111	1	9	0.115625	-15.8338	-16.7366	36.5529
 112	1	9	0.140296	-16.6302	-15.1623	36.7337
 113	1	1	-0.004194	-19.9138	-14.5288	16.7751
 114	1	1	-0.097141	-19.8912	-15.8092	16.1385
 115	1	1	-0.172015	-19.3876	-15.8479	14.8032
 116	1	2	-0.377994	-19.472	-11.5694	17.6602
 117	1	1	0.033493	-19.5098	-13.39	16.0656
 118	1	1	-0.063739	-19.0619	-14.6832	14.0822
 119	1	2	-0.398381	-18.4362	-11.8074	13.1363
 120	1	1	0.032144	-19.1505	-13.4589	14.7396
 121	1	3	0.032313	-19.3285	-11.9834	16.5212
 122	1	4	0.461698	-18.892	-11.283	15.3918
 123	1	3	0.091945	-18.7928	-12.1016	14.2661
 124	1	1	-0.10563	-18.2816	-19.9544	18.4842
 125	1	5	-0.099376	-20.3979	-17.1363	16.8292
 126	1	1	-0.043296	-19.2157	-17.8696	17.5321
 127	1	1	-0.073043	-19.209	-19.288	17.665
 128	1	1	-0.117827	-17.3626	-19.1826	19.1943
 129	1	1	-0.037562	-18.2414	-17.1261	18.2568
 130	1	1	-0.083705	-17.3425	-17.8055	19.0958
 131	1	5	0.396	-21.1371	-18.0352	15.7382
 132	1	5	0.310495	-21.4461	-16.8552	17.9736
 133	1	6	-0.130298	-20.2736	-18.718	14.9521
 134	1	6	-0.128745	-21.9157	-17.29	14.9206
 135	1	6	-0.120019	-21.9633	-18.9831	16.2352
 136	1	6	-0.104287	-22.5127	-16.17	17.5297
 137	1	6	-0.095507	-20.9182	-16.1476	18.9784
 138	1	6	-0.104872	-21.9026	-17.9729	18.5846
 139	1	3	0.456145	-16.4273	-17.2863	20.159
 140	1	3	0.550902	-16.4574	-19.5942	20.2912
 141	1	4	0.015704	-16.0153	-18.4119	20.8659
 142	1	2	-0.456801	-16.2417	-16.1179	20.4544
 143	1	2	-0.487703	-16.2861	-20.7347	20.6901
 144	1	1	-0.116566	-15.4602	-18.4232	22.1796
 145	1	1	-0.050109	-16.3396	-18.5437	23.2822
 146	1	1	0.154929	-15.8262	-18.9512	24.5385
 147	1	1	0.041555	-14.0702	-18.5715	22.3571
 148	1	1	-0.223109	-13.5734	-18.9651	23.6098
 149	1	1	-0.080449	-14.4416	-19.2077	24.6871
 150	1	5	-0.108008	-13.1029	-18.349	21.2031
 151	1	5	-0.182228	-13.8479	-19.7639	25.9801
 152	1	5	-0.345523	-17.8432	-18.2978	23.0781
 153	1	7	0.155183	-20.2169	-14.3706	17.8008
 154	1	7	0.172904	-19.2539	-16.7865	14.281
 155	1	7	0.158028	-18.7165	-14.7306	13.0523
 156	1	7	0.153129	-18.3339	-21.0311	18.6347
 157	1	7	0.142914	-19.9672	-19.9007	17.1942
 158	1	7	0.135531	-18.2464	-16.0407	18.2625
 159	1	7	0.17765	-12.5063	-19.131	23.7331
 160	1	9	0.046541	-12.058	-18.4077	21.5328
 161	1	9	0.045238	-13.2511	-17.3529	20.7679
 162	1	9	0.051941	-13.2472	-19.0934	20.4112
 163	1	9	0.087961	-14.5514	-20.4059	26.525
 164	1	9	0.066782	-13.5359	-18.9547	26.6521
 165	1	9	0.075908	-12.9665	-20.3844	25.7722
 166	1	9	0.105172	-18.331	-19.1838	22.6494
 167	1	9	0.115625	-18.0249	-17.4496	22.4061
 168	1	9	0.140296	-18.3752	-18.0436	24.0028
 169	1	1	-0.004194	-24.1921	0.137086	13.2737
 170	1	1	-0.097141	-22.992	-0.247775	13.9364
 171	1	1	-0.172015	-21.7579	0.136057	13.333
 172	1	2	-0.377994	-26.3964	1.15919	11.3437
 173	1	1	0.033493	-24.1144	0.877896	12.0894
 174	1	1	-0.063739	-21.7035	0.927261	12.1654
 175	1	2	-0.398381	-22.3435	2.62027	9.61939
 176	1	1	0.032144	-22.9088	1.2864	11.5604
 177	1	3	0.032313	-25.2018	1.35741	11.2006
 178	1	4	0.461698	-24.5596	2.05841	10.1827
 179	1	3	0.091945	-23.1737	2.07507	10.3277
 180	1	1	-0.10563	-22.2238	-4.36704	13.3306
 181	1	5	-0.099376	-22.9763	-1.09385	15.2579
 182	1	1	-0.043296	-22.3564	-2.48032	14.9257
 183	1	1	-0.073043	-22.7127	-3.10108	13.6952
 184	1	1	-0.117827	-21.3695	-5.0144	14.2225
 185	1	1	-0.037562	-21.5033	-3.18858	15.8177
 186	1	1	-0.083705	-21.0214	-4.45062	15.4331
 187	1	5	0.396	-24.4196	-1.38103	15.836
 188	1	5	0.310495	-22.162	-0.270053	16.3413
 189	1	6	-0.130298	-25.0843	-0.243108	16.1386
 190	1	6	-0.128745	-24.3913	-2.13528	16.9575
 191	1	6	-0.120019	-25.1883	-2.08059	14.9701
 192	1	6	-0.104287	-20.8308	-0.269604	16.1093
 193	1	6	-0.095507	-22.3024	-0.723976	17.6065
 194	1	6	-0.104872	-22.55	1.02549	16.359
 195	1	3	0.456145	-20.0836	-5.38865	16.1178
 196	1	3	0.550902	-20.6692	-6.3123	14.0844
 197	1	4	0.015704	-19.907	-6.45276	15.2359
 198	1	2	-0.456801	-19.5399	-5.20667	17.1931
 199	1	2	-0.487703	-20.722	-7.05346	13.117
 200	1	1	-0.116566	-18.9597	-7.51273	15.3812
 201	1	1	-0.050109	-19.3987	-8.85469	15.5287
 202	1	1	0.154929	-18.4641	-9.91838	15.3936
 203	1	1	0.041555	-17.5914	-7.22992	15.1736
 204	1	1	-0.223109	-16.676	-8.28427	15.0804
 205	1	1	-0.080449	-17.0971	-9.61801	15.1548
 206	1	5	-0.108008	-17.0736	-5.80841	14.9729
 207	1	5	-0.182228	-16.0448	-10.6855	14.8728
 208	1	5	-0.345523	-20.8917	-9.13875	15.741
 209	1	7	0.155183	-25.1811	-0.121501	13.6331
 210	1	7	0.172904	-20.8134	-0.176465	13.7667
 211	1	7	0.158028	-20.7551	1.23889	11.7322
 212	1	7	0.153129	-22.4949	-4.8289	12.3831
 213	1	7	0.142914	-23.3904	-2.60454	13.0069
 214	1	7	0.135531	-21.2078	-2.78556	16.7817
 215	1	7	0.17765	-15.6309	-8.06352	14.8792
 216	1	9	0.046541	-17.0215	-5.27516	15.9303
 217	1	9	0.045238	-17.7118	-5.2316	14.2929
 218	1	9	0.051941	-16.0656	-5.80358	14.54
 219	1	9	0.087961	-16.2432	-11.6168	15.4086
 220	1	9	0.066782	-15.0404	-10.3474	15.1552
 221	1	9	0.075908	-16.0124	-10.917	13.7997
 222	1	9	0.105172	-21.3952	-9.33503	14.7857
 223	1	9	0.115625	-21.4082	-8.30188	16.225
 224	1	9	0.140296	-21.0701	-9.99551	16.3973
 225	1	1	-0.004194	-33.0907	-1.64904	3.55292
 226	1	1	-0.097141	-32.1426	-0.822519	2.88504
 227	1	1	-0.172015	-32.4615	0.553833	2.7105
 228	1	2	-0.377994	-35.4753	-2.85034	5.16105
 229	1	1	0.033493	-34.2914	-1.08445	3.99985
 230	1	1	-0.063739	-33.6845	1.09859	3.15273
 231	1	2	-0.398381	-36.4823	1.61661	4.4058
 232	1	1	0.032144	-34.5861	0.247386	3.79382
 233	1	3	0.032313	-35.4089	-1.69819	4.76636
 234	1	4	0.461698	-36.3099	-0.657697	4.98593
 235	1	3	0.091945	-35.9071	0.540707	4.40225
 236	1	1	-0.10563	-27.3746	0.509281	2.54798
 237	1	5	-0.099376	-30.8043	-1.3608	2.28485
 238	1	1	-0.043296	-29.62	-0.503116	2.82385
 239	1	1	-0.073043	-28.4634	-0.227368	2.03761
 240	1	1	-0.117827	-27.4439	0.955356	3.87089
 241	1	1	-0.037562	-29.6385	-0.0453194	4.16804
 242	1	1	-0.083705	-28.5423	0.678685	4.65806
 243	1	5	0.396	-30.9662	-1.2823	0.712424
 244	1	5	0.310495	-30.4872	-2.84929	2.69377
 245	1	6	-0.130298	-30.8564	-0.0143535	0.254235
 246	1	6	-0.128745	-32.1811	-1.72697	0.316653
 247	1	6	-0.120019	-30.0576	-2.01416	0.029293
 248	1	6	-0.104287	-31.3661	-3.73323	2.16874
 249	1	6	-0.095507	-30.4942	-3.01046	4.03657
 250	1	6	-0.104872	-29.2562	-3.23644	2.28808
 251	1	3	0.456145	-28.3023	1.26742	6.00276
 252	1	3	0.550902	-26.4693	1.73683	4.68243
 253	1	4	0.015704	-27.0548	1.87849	5.93345
 254	1	2	-0.456801	-29.0764	1.24796	6.94309
 255	1	2	-0.487703	-25.3924	2.163	4.30218
 256	1	1	-0.116566	-26.489	2.62118	7.01442
 257	1	1	-0.050109	-25.6572	1.98972	7.97148
 258	1	1	0.154929	-25.2635	2.70738	9.13124
 259	1	1	0.041555	-26.8434	3.97882	7.16776
 260	1	1	-0.223109	-26.4082	4.68742	8.29718
 261	1	1	-0.080449	-25.6441	4.05937	9.2921
 262	1	5	-0.108008	-27.7069	4.69488	6.13543
 263	1	5	-0.182228	-25.2673	4.85326	10.5398
 264	1	5	-0.345523	-25.2233	0.534281	7.7577
 265	1	7	0.155183	-32.9313	-2.70557	3.73746
 266	1	7	0.172904	-31.7554	1.21649	2.21563
 267	1	7	0.158028	-33.9253	2.15031	3.0121
 268	1	7	0.153129	-26.498	0.716993	1.93675
 269	1	7	0.142914	-28.382	-0.591046	1.01954
 270	1	7	0.135531	-30.4766	-0.255682	4.82836
 271	1	7	0.17765	-26.7005	5.72687	8.41885
 272	1	9	0.046541	-27.8883	5.74062	6.41244
 273	1	9	0.045238	-28.6857	4.21087	6.03135
 274	1	9	0.051941	-27.2194	4.69792	5.15239
 275	1	9	0.087961	-24.1786	4.89324	10.6756
 276	1	9	0.066782	-25.7098	4.40677	11.44
 277	1	9	0.075908	-25.6236	5.88966	10.4855
 278	1	9	0.105172	-26.0065	-0.161583	8.08605
 279	1	9	0.115625	-24.2998	0.280472	8.29177
 280	1	9	0.140296	-25.0076	0.328974	6.70153
 281	1	1	-0.004194	-36.615	-0.968225	15.329
 282	1	1	-0.097141	-37.8329	-0.363408	15.7382
 283	1	1	-0.172015	-38.7871	-1.17711	16.4187
 284	1	2	-0.377994	-34.1766	-2.79693	14.7805
 285	1	1	0.033493	-36.3895	-2.31613	15.617
 286	1	1	-0.063739	-38.5457	-2.543	16.6806
 287	1	2	-0.398381	-37.3361	-5.40927	16.9587
 288	1	1	0.032144	-37.3274	-3.08751	16.2694
 289	1	3	0.032313	-35.2004	-3.15499	15.3375
 290	1	4	0.461698	-35.5092	-4.40708	15.8634
 291	1	3	0.091945	-36.7806	-4.46015	16.4305
 292	1	1	-0.10563	-37.5232	2.71119	11.8701
 293	1	5	-0.099376	-38.0628	1.14558	15.4054
 294	1	1	-0.043296	-37.9692	1.31548	13.8622
 295	1	1	-0.073043	-37.5534	2.54063	13.2683
 296	1	1	-0.117827	-37.912	1.63428	11.0691
 297	1	1	-0.037562	-38.375	0.255172	13.0057
 298	1	1	-0.083705	-38.3134	0.436256	11.6192
 299	1	5	0.396	-36.9576	1.96209	16.1946
 300	1	5	0.310495	-39.487	1.67979	15.8181
 301	1	6	-0.130298	-35.7396	1.86026	15.6175
 302	1	6	-0.128745	-36.8233	1.50732	17.4613
 303	1	6	-0.120019	-37.2096	3.28614	16.2975
 304	1	6	-0.104287	-39.6831	1.65121	17.1559
 305	1	6	-0.095507	-40.4772	0.964825	15.2372
 306	1	6	-0.104872	-39.6927	2.95657	15.4211
 307	1	3	0.456145	-38.6173	-0.507658	10.5077
 308	1	3	0.550902	-37.9731	1.51083	9.59142
 309	1	4	0.015704	-38.3781	0.204771	9.33635
 310	1	2	-0.456801	-38.9656	-1.66984	10.6278
 311	1	2	-0.487703	-37.6995	2.3886	8.79068
 312	1	1	-0.116566	-38.4814	-0.323602	8.01184
 313	1	1	-0.050109	-37.3202	-0.429799	7.20571
 314	1	1	0.154929	-37.4497	-0.750097	5.83161
 315	1	1	0.041555	-39.7498	-0.626104	7.46503
 316	1	1	-0.223109	-39.8498	-1.0175	6.11967
 317	1	1	-0.080449	-38.7168	-1.06195	5.29123
 318	1	5	-0.108008	-41.03	-0.516567	8.28731
 319	1	5	-0.182228	-38.889	-1.42185	3.81927
 320	1	5	-0.345523	-35.9286	-0.156135	7.79694
 321	1	7	0.155183	-35.8505	-0.415164	14.7908
 322	1	7	0.172904	-39.7346	-0.774679	16.7606
 323	1	7	0.158028	-39.2775	-3.1605	17.1973
 324	1	7	0.153129	-37.2046	3.65017	11.4211
 325	1	7	0.142914	-37.2615	3.38528	13.8824
 326	1	7	0.135531	-38.7356	-0.693374	13.3955
 327	1	7	0.17765	-40.8278	-1.24664	5.7043
 328	1	9	0.046541	-41.9206	-0.497508	7.64715
 329	1	9	0.045238	-41.0498	0.399833	8.88945
 330	1	9	0.051941	-41.1325	-1.3733	8.96502
 331	1	9	0.087961	-38.241	-2.26174	3.53615
 332	1	9	0.066782	-38.6474	-0.568378	3.17249
 333	1	9	0.075908	-39.9203	-1.72074	3.59254
 334	1	9	0.105172	-35.8955	-0.283564	8.88489
 335	1	9	0.115625	-35.5992	0.867536	7.57163
 336	1	9	0.140296	-35.1722	-0.851921	7.41201
 337	1	1	-0.004194	-25.513	-9.38182	17.4104
 338	1	1	-0.097141	-24.7108	-8.35134	17.9651
 339	1	1	-0.172015	-23.4259	-8.70511	18.4723
 340	1	2	-0.377994	-26.8645	-12.0225	16.569
 341	1	1	0.033493	-25.0433	-10.6974	17.4284
 342	1	1	-0.063739	-22.9681	-10.0432	18.4729
 343	1	2	-0.398381	-22.6743	-13.1597	18.2198
 344	1	1	0.032144	-23.8061	-11.028	17.9415
 345	1	3	0.032313	-25.7345	-11.9412	17.0218
 346	1	4	0.461698	-24.8527	-12.9702	17.3471
 347	1	3	0.091945	-23.6443	-12.5079	17.8671
 348	1	1	-0.10563	-28.6776	-7.84566	19.5224
 349	1	5	-0.099376	-25.2433	-6.88458	17.9474
 350	1	1	-0.043296	-26.7836	-6.91153	18.216
 351	1	1	-0.073043	-27.2919	-7.6953	19.2927
 352	1	1	-0.117827	-29.5621	-7.17416	18.6705
 353	1	1	-0.037562	-27.7178	-6.20561	17.4126
 354	1	1	-0.083705	-29.0856	-6.36115	17.6636
 355	1	5	0.396	-24.8583	-6.307	16.5305
 356	1	5	0.310495	-24.6178	-5.96976	19.0691
 357	1	6	-0.130298	-23.545	-6.47938	16.2541
 358	1	6	-0.128745	-25.1055	-4.98415	16.4093
 359	1	6	-0.120019	-25.528	-6.93799	15.5392
 360	1	6	-0.104287	-23.3384	-5.60692	18.8233
 361	1	6	-0.095507	-24.6316	-6.5798	20.2756
 362	1	6	-0.104872	-25.3176	-4.82105	19.2143
 363	1	3	0.456145	-30.2395	-5.88504	16.8644
 364	1	3	0.550902	-31.0473	-7.26351	18.5322
 365	1	4	0.015704	-31.354	-6.51858	17.3986
 366	1	2	-0.456801	-30.1738	-5.21854	15.8455
 367	1	2	-0.487703	-31.7912	-7.97356	19.1875
 368	1	1	-0.116566	-32.5776	-6.58785	16.6676
 369	1	1	-0.050109	-33.5679	-5.58874	16.8081
 370	1	1	0.154929	-34.6024	-5.49962	15.8408
 371	1	1	0.041555	-32.6845	-7.55733	15.6464
 372	1	1	-0.223109	-33.74	-7.48378	14.7264
 373	1	1	-0.080449	-34.6775	-6.44208	14.7894
 374	1	5	-0.108008	-31.6375	-8.6548	15.4807
 375	1	5	-0.182228	-35.7242	-6.33057	13.6844
 376	1	5	-0.345523	-33.4718	-4.59147	17.9678
 377	1	7	0.155183	-26.4966	-9.182	16.9923
 378	1	7	0.172904	-22.7628	-7.95099	18.8839
 379	1	7	0.158028	-21.9991	-10.314	18.8902
 380	1	7	0.153129	-29.0515	-8.50008	20.308
 381	1	7	0.142914	-26.6018	-8.24038	19.9325
 382	1	7	0.135531	-27.424	-5.58682	16.5716
 383	1	7	0.17765	-33.7941	-8.20982	13.9196
 384	1	9	0.046541	-30.6676	-8.23549	15.1851
 385	1	9	0.045238	-31.9273	-9.38215	14.7129
 386	1	9	0.051941	-31.4973	-9.21212	16.4155
 387	1	9	0.087961	-36.7433	-6.34663	14.091
 388	1	9	0.066782	-35.6483	-7.15966	12.9694
 389	1	9	0.075908	-35.5946	-5.40173	13.1128
 390	1	9	0.105172	-32.7842	-3.77077	17.7259
 391	1	9	0.115625	-33.109	-5.08038	18.8812
 392	1	9	0.140296	-34.4399	-4.15321	18.239
 393	1	1	-0.004194	-28.9953	-14.6172	23.7452
 394	1	1	-0.097141	-29.984	-15.5078	24.2464
 395	1	1	-0.172015	-29.5677	-16.5369	25.1393
 396	1	2	-0.377994	-26.4333	-13.298	22.6456
 397	1	1	0.033493	-27.6519	-14.8459	24.0419
 398	1	1	-0.063739	-28.201	-16.7483	25.4291
 399	1	2	-0.398381	-25.0943	-16.8774	25.2842
 400	1	1	0.032144	-27.259	-15.9011	24.8359
 401	1	3	0.032313	-26.4483	-14.2347	23.427
 402	1	4	0.461698	-25.3817	-15.0152	23.8674
 403	1	3	0.091945	-25.7788	-16.0163	24.7565
 404	1	1	-0.10563	-31.1099	-14.7504	19.7401
 405	1	5	-0.099376	-31.3913	-15.4779	23.5686
 406	1	1	-0.043296	-31.0754	-15.6168	22.0495
 407	1	1	-0.073043	-31.6286	-14.7664	21.0522
 408	1	1	-0.117827	-30.0321	-15.594	19.4454
 409	1	1	-0.037562	-30.0578	-16.5342	21.6664
 410	1	1	-0.083705	-29.5249	-16.4685	20.3801
 411	1	5	0.396	-32.095	-14.1225	23.9826
 412	1	5	0.310495	-32.3394	-16.6794	23.948
 413	1	6	-0.130298	-33.3743	-14.0228	23.5576
 414	1	6	-0.128745	-31.4548	-13.0336	23.502
 415	1	6	-0.120019	-32.1203	-13.977	25.3264
 416	1	6	-0.104287	-33.4852	-16.6599	23.2302
 417	1	6	-0.095507	-32.6898	-16.6756	25.2537
 418	1	6	-0.104872	-31.7777	-17.8817	23.6886
 419	1	3	0.456145	-28.2281	-17.0053	19.8828
 420	1	3	0.550902	-29.0907	-15.5618	18.3005
 421	1	4	0.015704	-27.995	-16.3246	18.695
 422	1	2	-0.456801	-27.457	-17.7047	20.5157
 423	1	2	-0.487703	-29.1834	-14.8336	17.3276
 424	1	1	-0.116566	-26.7234	-16.1033	18.0847
 425	1	1	-0.050109	-26.119	-14.8391	18.2723
 426	1	1	0.154929	-25.2351	-14.3383	17.2884
 427	1	1	0.041555	-26.2507	-16.9663	17.0776
 428	1	1	-0.223109	-25.3143	-16.4855	16.1454
 429	1	1	-0.080449	-24.8688	-15.151	16.1922
 430	1	5	-0.108008	-26.7749	-18.3896	16.9568
 431	1	5	-0.182228	-23.9951	-14.6154	15.0621
 432	1	5	-0.345523	-26.4889	-13.9803	19.4893
 433	1	7	0.155183	-29.2329	-13.8544	23.0093
 434	1	7	0.172904	-30.2796	-17.2475	25.5474
 435	1	7	0.158028	-27.8749	-17.5974	26.0264
 436	1	7	0.153129	-31.4632	-14.0283	19.0057
 437	1	7	0.142914	-32.4089	-14.0525	21.2946
 438	1	7	0.135531	-29.5769	-17.1863	22.391
 439	1	7	0.17765	-24.9872	-17.1341	15.3373
 440	1	9	0.046541	-27.7859	-18.4064	16.534
 441	1	9	0.045238	-26.8066	-18.8777	17.9399
 442	1	9	0.051941	-26.128	-19.0031	16.3174
 443	1	9	0.087961	-24.3896	-13.6695	14.6683
 444	1	9	0.066782	-23.9529	-15.3163	14.2191
 445	1	9	0.075908	-22.9653	-14.443	15.4003
 446	1	9	0.105172	-26.8904	-14.5766	20.3159
 447	1	9	0.115625	-27.2347	-13.2159	19.2354
 448	1	9	0.140296	-25.6096	-13.472	19.9109
 449	1	1	-0.004194	-16.4904	-11.1203	19.0305
 450	1	1	-0.097141	-16.0935	-9.82682	19.4663
 451	1	1	-0.172015	-14.8733	-9.29146	18.9661
 452	1	2	-0.377994	-16.7115	-13.9816	17.8058
 453	1	1	0.033493	-15.6356	-11.8467	18.1929
 454	1	1	-0.063739	-14.0299	-10.038	18.1176
 455	1	2	-0.398381	-12.6337	-12.2505	16.4295
 456	1	1	0.032144	-14.4304	-11.3283	17.7635
 457	1	3	0.032313	-15.7625	-13.2294	17.6634
 458	1	4	0.461698	-14.5682	-13.4713	16.9872
 459	1	3	0.091945	-13.7285	-12.3601	16.9567
 460	1	1	-0.10563	-17.5519	-11.7548	23.1153
 461	1	5	-0.099376	-17.0141	-9.00851	20.4182
 462	1	1	-0.043296	-17.7502	-10.0017	21.3731
 463	1	1	-0.073043	-16.9682	-10.8618	22.1962
 464	1	1	-0.117827	-18.946	-11.7989	23.1914
 465	1	1	-0.037562	-19.1652	-10.1084	21.457
 466	1	1	-0.083705	-19.726	-11.0271	22.3548
 467	1	5	0.396	-17.9769	-8.16898	19.4933
 468	1	5	0.310495	-16.2194	-8.01747	21.3659
 469	1	6	-0.130298	-17.2942	-7.4011	18.6131
 470	1	6	-0.128745	-18.7832	-7.34547	20.2004
 471	1	6	-0.120019	-18.7647	-8.9612	18.7361
 472	1	6	-0.104287	-16.9743	-7.63716	22.4229
 473	1	6	-0.095507	-15.8168	-6.87588	20.7656
 474	1	6	-0.104872	-15.1029	-8.58313	21.8788
 475	1	3	0.456145	-21.1212	-11.5351	22.4319
 476	1	3	0.550902	-19.822	-12.7828	23.8817
 477	1	4	0.015704	-21.0533	-12.658	23.2519
 478	1	2	-0.456801	-22.0503	-11.1751	21.7267
 479	1	2	-0.487703	-19.4431	-13.6903	24.6038
 480	1	1	-0.116566	-21.9173	-13.7763	23.0616
 481	1	1	-0.050109	-23.1886	-13.8568	23.6817
 482	1	1	0.154929	-24.0692	-14.914	23.3243
 483	1	1	0.041555	-21.4937	-14.7801	22.1577
 484	1	1	-0.223109	-22.3768	-15.8093	21.8186
 485	1	1	-0.080449	-23.6673	-15.8609	22.3524
 486	1	5	-0.108008	-20.1292	-14.7577	21.4613
 487	1	5	-0.182228	-24.6176	-16.9096	21.7895
 488	1	5	-0.345523	-23.5832	-12.7832	24.6999
 489	1	7	0.155183	-17.4295	-11.5704	19.3446
 490	1	7	0.172904	-14.5583	-8.28776	19.2346
 491	1	7	0.158028	-13.0861	-9.63481	17.7575
 492	1	7	0.153129	-16.9417	-12.4393	23.7024
 493	1	7	0.142914	-15.8857	-10.8617	22.1087
 494	1	7	0.135531	-19.8349	-9.54254	20.8196
 495	1	7	0.17765	-22.0726	-16.5577	21.0958
 496	1	9	0.046541	-19.3013	-14.4847	22.118
 497	1	9	0.045238	-20.1332	-14.0623	20.6117
 498	1	9	0.051941	-19.8564	-15.7512	21.0923
 499	1	9	0.087961	-25.4666	-16.4198	21.3014
 500	1	9	0.066782	-25.0	-17.5855	22.5631
 501	1	9	0.075908	-24.1369	-17.5337	21.0249
 502	1	9	0.105172	-22.8267	-12.704	25.4913
 503	1	9	0.115625	-24.5378	-12.9763	25.2015
 504	1	9	0.140296	-23.6698	-11.801	24.2165
 505	1	1	-0.004194	-12.3893	-20.8787	7.71733
 506	1	1	-0.097141	-11.7659	-20.7774	8.99515
 507	1	1	-0.172015	-10.4093	-20.3303	9.02588
 508	1	2	-0.377994	-13.0757	-21.1198	4.67147
 509	1	1	0.033493	-11.6252	-20.6688	6.55725
 510	1	1	-0.063739	-9.67749	-20.07	7.85129
 511	1	2	-0.398381	-8.63254	-19.8064	4.95046
 512	1	1	0.032144	-10.303	-20.2865	6.62641
 513	1	3	0.032313	-11.983	-20.812	5.11714
 514	1	4	0.461698	-10.8225	-20.4763	4.41116
 515	1	3	0.091945	-9.76049	-20.1593	5.25257
 516	1	1	-0.10563	-15.7678	-20.2165	12.0331
 517	1	5	-0.099376	-12.5007	-21.3197	10.2738
 518	1	1	-0.043296	-13.7095	-20.4183	10.6725
 519	1	1	-0.073043	-14.9134	-20.9691	11.2024
 520	1	1	-0.117827	-15.3964	-18.9042	12.3402
 521	1	1	-0.037562	-13.4698	-19.0344	10.8637
 522	1	1	-0.083705	-14.2965	-18.3193	11.7423
 523	1	5	0.396	-11.5735	-21.3431	11.5667
 524	1	5	0.310495	-12.8995	-22.8249	9.96339
 525	1	6	-0.130298	-11.0896	-20.1266	11.9088
 526	1	6	-0.128745	-10.5064	-22.1612	11.427
 527	1	6	-0.120019	-12.2389	-21.7499	12.6724
 528	1	6	-0.104287	-13.2408	-23.5467	11.0546
 529	1	6	-0.095507	-11.8782	-23.4932	9.38015
 530	1	6	-0.104872	-13.9499	-22.923	9.11883
 531	1	3	0.456145	-13.9286	-17.1169	12.5361
 532	1	3	0.550902	-15.7631	-18.0991	13.5393
 533	1	4	0.015704	-14.7566	-17.1469	13.6523
 534	1	2	-0.456801	-12.917	-16.4553	12.3807
 535	1	2	-0.487703	-16.5907	-18.4123	14.379
 536	1	1	-0.116566	-14.3499	-16.5925	14.9055
 537	1	1	-0.050109	-14.6601	-15.2613	15.2789
 538	1	1	0.154929	-14.1945	-14.7631	16.524
 539	1	1	0.041555	-13.5734	-17.4064	15.767
 540	1	1	-0.223109	-13.09	-16.8833	16.9732
 541	1	1	-0.080449	-13.3855	-15.5698	17.358
 542	1	5	-0.108008	-13.2346	-18.8585	15.4334
 543	1	5	-0.182228	-12.8212	-15.0564	18.6806
 544	1	5	-0.345523	-15.4792	-14.3545	14.3577
 545	1	7	0.155183	-13.4259	-21.1798	7.60644
 546	1	7	0.172904	-9.85996	-20.2175	9.95185
 547	1	7	0.158028	-8.63685	-19.7543	7.88751
 548	1	7	0.153129	-16.591	-20.6955	12.5611
 549	1	7	0.142914	-15.1383	-22.025	11.1087
 550	1	7	0.135531	-12.5318	-18.5861	10.5442
 551	1	7	0.17765	-12.4799	-17.5088	17.6194
 552	1	9	0.046541	-12.8573	-18.9696	14.4101
 553	1	9	0.045238	-14.1185	-19.4991	15.5455
 554	1	9	0.051941	-12.4596	-19.257	16.0998
 555	1	9	0.087961	-12.1458	-15.7855	19.1448
 556	1	9	0.066782	-13.6216	-14.8454	19.4017
 557	1	9	0.075908	-12.2355	-14.1391	18.5368
 558	1	9	0.105172	-16.4041	-14.0371	14.8511
 559	1	9	0.115625	-15.7711	-14.8307	13.416
 560	1	9	0.140296	-14.9085	-13.4566	14.0845
 561	1	1	-0.004194	-3.78644	-22.5221	-3.55957
 562	1	1	-0.097141	-3.5395	-23.6752	-2.77578
 563	1	1	-0.172015	-2.35689	-23.7023	-1.97663
 564	1	2	-0.377994	-3.83227	-19.7903	-4.96662
 565	1	1	0.033493	-2.87945	-21.4653	-3.52214
 566	1	1	-0.063739	-1.46809	-22.6042	-1.93071
 567	1	2	-0.398381	-0.0846593	-19.8055	-2.22251
 568	1	1	0.032144	-1.75934	-21.4873	-2.71913
 569	1	3	0.032313	-2.9583	-20.155	-4.19777
 570	1	4	0.461698	-1.87576	-19.4318	-3.70768
 571	1	3	0.091945	-1.08062	-20.1665	-2.82786
 572	1	1	-0.10563	-8.43978	-24.1636	-2.67536
 573	1	5	-0.099376	-4.585	-24.8301	-2.8367
 574	1	1	-0.043296	-5.97468	-24.2346	-2.4541
 575	1	1	-0.073043	-7.18583	-24.6928	-3.04663
 576	1	1	-0.117827	-8.47421	-23.174	-1.68706
 577	1	1	-0.037562	-6.06071	-23.2406	-1.44038
 578	1	1	-0.083705	-7.31685	-22.7263	-1.08646
 579	1	5	0.396	-4.29826	-25.9975	-1.81888
 580	1	5	0.310495	-4.52856	-25.4059	-4.31148
 581	1	6	-0.130298	-3.15277	-26.6602	-2.09921
 582	1	6	-0.128745	-5.29089	-26.9162	-1.80651
 583	1	6	-0.120019	-4.20966	-25.5444	-0.547722
 584	1	6	-0.104287	-5.13397	-24.5902	-5.2042
 585	1	6	-0.095507	-5.11182	-26.6169	-4.45332
 586	1	6	-0.104872	-3.25186	-25.5496	-4.73553
 587	1	3	0.456145	-7.69365	-21.7144	-0.0589241
 588	1	3	0.550902	-9.62804	-22.4696	-1.06067
 589	1	4	0.015704	-9.08316	-21.6323	-0.0932461
 590	1	2	-0.456801	-6.92345	-21.1072	0.664655
 591	1	2	-0.487703	-10.8031	-22.6264	-1.34474
 592	1	1	-0.116566	-9.86294	-20.7993	0.774467
 593	1	1	-0.050109	-10.016	-21.1294	2.14809
 594	1	1	0.154929	-10.7585	-20.2662	3.00186
 595	1	1	0.041555	-10.4765	-19.6338	0.258976
 596	1	1	-0.223109	-11.2312	-18.8122	1.10798
 597	1	1	-0.080449	-11.3665	-19.1044	2.47153
 598	1	5	-0.108008	-10.358	-19.2182	-1.20364
 599	1	5	-0.182228	-12.1652	-18.1342	3.34101
 600	1	5	-0.345523	-9.35116	-22.3968	2.70005
 601	1	7	0.155183	-4.67835	-22.4234	-4.17167
 602	1	7	0.172904	-2.1079	-24.5619	-1.36267
 603	1	7	0.158028	-0.586801	-22.6127	-1.29232
 604	1	7	0.153129	-9.36005	-24.524	-3.1313
 605	1	7	0.142914	-7.17521	-25.4768	-3.79612
 606	1	7	0.135531	-5.17521	-22.8799	-0.922204
 607	1	7	0.17765	-11.7062	-17.9227	0.702712
 608	1	9	0.046541	-9.41168	-19.5339	-1.65727
 609	1	9	0.045238	-10.4085	-18.1268	-1.30731
 610	1	9	0.051941	-11.1796	-19.6443	-1.79292
 611	1	9	0.087961	-11.66	-17.9153	4.29023
 612	1	9	0.066782	-13.1581	-18.5434	3.57004
 613	1	9	0.075908	-12.3174	-17.1719	2.83721
 614	1	9	0.105172	-9.36361	-23.2188	1.97369
 615	1	9	0.115625	-9.85161	-22.7862	3.59419
 616	1	9	0.140296	-8.30238	-22.1978	2.96376
 617	1	1	-0.004194	2.62908	-13.8751	-13.0181
 618	1	1	-0.097141	2.70343	-13.2552	-11.7359
 619	1	1	-0.172015	1.76781	-12.2236	-11.4437
 620	1	2	-0.377994	1.87463	-14.8909	-15.8615
 621	1	1	0.033493	1.65416	-13.4503	-13.9317
 622	1	1	-0.063739	0.792857	-11.8122	-12.3773
 623	1	2	-0.398381	-1.1538	-11.5413	-14.7848
 624	1	1	0.032144	0.759719	-12.4488	-13.6201
 625	1	3	0.032313	1.31563	-13.9728	-15.2842
 626	1	4	0.461698	0.176565	-13.2644	-15.68
 627	1	3	0.091945	-0.19805	-12.2986	-14.7466
 628	1	1	-0.10563	3.46199	-14.0419	-6.82522
 629	1	5	-0.099376	3.82093	-13.574	-10.6867
 630	1	1	-0.043296	3.19983	-13.8924	-9.28685
 631	1	1	-0.073043	3.95188	-13.6819	-8.09393
 632	1	1	-0.117827	2.19939	-14.6292	-6.75319
 633	1	1	-0.037562	1.9173	-14.4995	-9.16503
 634	1	1	-0.083705	1.44161	-14.8474	-7.88579
 635	1	5	0.396	4.75354	-12.2937	-10.6531
 636	1	5	0.310495	4.68997	-14.8305	-11.0757