pySIMM System Object

2690 atoms
2929 bonds
5184 angles
7676 dihedrals
768 impropers

9 atom types
11 bond types
18 angle types
7 dihedral types
4 improper types

-221.718971 221.718971 xlo xhi
-221.718971 221.718971 ylo yhi
-221.718971 221.718971 zlo zhi

Masses

   1	12.01	# ca
   2	16.0	# o
   3	12.01	# c
   4	14.01	# n
   5	12.01	# c3
   6	19.0	# f
   7	1.008	# ha
   8	1.008	# hn
   9	1.008	# hc

Pair Coeffs

   1	0.086	3.3996695084235347	# ca
   2	0.21	2.959921901149463	# o
   3	0.086	3.3996695084235347	# c
   4	0.17	3.249998523775958	# n
   5	0.1094	3.3996695084235347	# c3
   6	0.061	3.1181455134911875	# f
   7	0.015	2.59964245953351	# ha
   8	0.0157	1.069078461768407	# hn
   9	0.0157	2.649532787749369	# hc

Bond Coeffs

   1	321.0	1.5156	# c3,ca
   2	300.9	1.5375	# c3,c3
   3	384.2	1.4121	# ca,n
   4	330.6	1.0969	# c3,hc
   5	637.7	1.2183	# c,o
   6	403.2	1.0129	# hn,n
   7	356.9	1.3497	# c3,f
   8	461.1	1.3984	# ca,ca
   9	427.6	1.3789	# c,n
  10	345.9	1.4906	# c,ca
  11	345.8	1.086	# ca,ha

Angle Coeffs

   1	70.89	107.36	# f,c3,f
   2	68.72	122.6	# ca,c,o
   3	67.87	120.19	# ca,ca,n
   4	67.68	115.25	# ca,c,n
   5	46.8	110.47	# ca,c3,hc
   6	74.22	123.05	# n,c,o
   7	48.33	117.55	# c,n,hn
   8	63.56	112.24	# ca,c3,ca
   9	62.86	111.51	# c3,c3,c3
  10	66.11	109.24	# c3,c3,f
  11	64.28	120.33	# c,ca,ca
  12	66.62	120.02	# ca,ca,ca
  13	63.74	127.08	# c,n,c
  14	39.4	107.58	# hc,c3,hc
  15	48.18	119.88	# ca,ca,ha
  16	63.15	112.07	# c3,c3,ca
  17	63.53	120.77	# c3,ca,ca
  18	63.82	123.71	# c,n,ca

Dihedral Coeffs

   1	2	2.5	2	180	2.0	1	0	# hn,n,c,o
   2	1	3.625	2	180	# X,ca,ca,X
   3	1	0.0	2	0	# X,c3,ca,X
   4	1	1.0	2	180	# X,c,ca,X
   5	1	0.15555555555555556	3	0	# X,c3,c3,X
   6	1	2.5	2	180	# X,c,n,X
   7	1	0.45	2	180	# X,ca,n,X

Improper Coeffs

   1	1.1	-1	2	# n,X,X,hn
   2	1.1	-1	2	# ca,ca,ca,c3
   3	1.1	-1	2	# ca,X,X,ha
   4	10.5	-1	2	# c,X,X,o

Atoms

   1	1	1	-0.004194	30.7846	21.0362	11.5599
   2	1	1	-0.097141	30.6066	20.5649	12.8868
   3	1	1	-0.172015	30.284	21.5131	13.9002
   4	1	2	-0.377994	31.3965	22.6532	9.00451
   5	1	1	0.033493	30.7384	22.408	11.3129
   6	1	1	-0.063739	30.222	22.8968	13.6223
   7	1	2	-0.398381	30.5117	25.7408	12.3586
   8	1	1	0.032144	30.4797	23.3192	12.3148
   9	1	3	0.032313	31.0749	23.1445	10.0737
  10	1	4	0.461698	31.0245	24.4893	10.4304
  11	1	3	0.091945	30.6375	24.6879	11.7551
  12	1	1	-0.10563	33.4033	17.1797	10.8609
  13	1	5	-0.099376	30.8382	19.0489	13.1675
  14	1	1	-0.043296	32.1357	18.6443	12.4025
  15	1	1	-0.073043	32.2496	17.455	11.6259
  16	1	1	-0.117827	34.448	18.11	10.8846
  17	1	1	-0.037562	33.2494	19.5249	12.4452
  18	1	1	-0.083705	34.3731	19.2443	11.6633
  19	1	5	0.396	29.5423	18.2996	12.6725
  20	1	5	0.310495	31.0926	18.7064	14.6847
  21	1	6	-0.130298	29.4134	18.3586	11.3275
  22	1	6	-0.128745	28.4211	18.8588	13.1819
  23	1	6	-0.120019	29.5132	16.9926	13.0183
  24	1	6	-0.104287	29.9878	18.8342	15.4538
  25	1	6	-0.095507	32.0489	19.4953	15.2249
  26	1	6	-0.104872	31.5262	17.4346	14.8391
  27	1	3	0.456145	35.5999	20.0507	11.4365
  28	1	3	0.550902	35.7328	18.1494	10.1333
  29	1	4	0.015704	36.3454	19.3416	10.5032
  30	1	2	-0.456801	35.8495	21.1339	11.9381
  31	1	2	-0.487703	36.1317	17.3048	9.34914
  32	1	1	-0.116566	37.5844	19.8019	9.96813
  33	1	1	-0.050109	38.801	19.2416	10.4197
  34	1	1	0.154929	40.018	19.7096	9.88899
  35	1	1	0.041555	37.5972	20.8255	8.9907
  36	1	1	-0.223109	38.8244	21.2809	8.47697
  37	1	1	-0.080449	40.0363	20.7266	8.91888
  38	1	5	-0.108008	36.305	21.4511	8.47542
  39	1	5	-0.182228	41.3546	21.2322	8.35472
  40	1	5	-0.345523	38.8174	18.1368	11.4735
  41	1	7	0.155183	31.0359	20.3646	10.7425
  42	1	7	0.172904	30.1139	21.2011	14.9257
  43	1	7	0.158028	30.0281	23.6252	14.4068
  44	1	7	0.153129	33.4707	16.286	10.2427
  45	1	7	0.142914	31.4385	16.7372	11.5784
  46	1	7	0.135531	33.2258	20.4437	13.0272
  47	1	7	0.17765	38.8372	22.0691	7.72953
  48	1	9	0.046541	35.819	22.0491	9.25579
  49	1	9	0.045238	35.5951	20.6837	8.1425
  50	1	9	0.051941	36.4868	22.1155	7.6215
  51	1	9	0.087961	41.2551	21.51	7.29821
  52	1	9	0.066782	42.139	20.4679	8.42144
  53	1	9	0.075908	41.7001	22.1153	8.9057
  54	1	9	0.105172	38.2644	18.4347	12.373
  55	1	9	0.115625	39.8398	17.8911	11.7884
  56	1	9	0.140296	38.3707	17.2136	11.0813
  57	1	1	-0.004194	40.5363	28.2915	4.83809
  58	1	1	-0.097141	41.2443	27.3604	5.64492
  59	1	1	-0.172015	42.6348	27.5808	5.86649
  60	1	2	-0.377994	39.5613	30.6982	3.11469
  61	1	1	0.033493	41.2111	29.4059	4.32864
  62	1	1	-0.063739	43.2951	28.7124	5.34409
  63	1	2	-0.398381	44.0645	31.4085	3.99909
  64	1	1	0.032144	42.5506	29.6161	4.58372
  65	1	3	0.032313	40.7044	30.5396	3.51236
  66	1	4	0.461698	41.8048	31.3787	3.34169
  67	1	3	0.091945	42.9588	30.8955	3.95275
  68	1	1	-0.10563	37.9678	28.3732	8.18675
  69	1	5	-0.099376	40.4755	26.1382	6.23267
  70	1	1	-0.043296	39.1354	26.6584	6.8309
  71	1	1	-0.073043	39.1403	27.8587	7.59816
  72	1	1	-0.117827	36.7816	27.655	8.01366
  73	1	1	-0.037562	37.9101	25.9535	6.69558
  74	1	1	-0.083705	36.7584	26.479	7.29342
  75	1	5	0.396	41.2249	25.4158	7.41797
  76	1	5	0.310495	40.2865	25.1185	5.04395
  77	1	6	-0.130298	42.3172	24.7253	7.01934
  78	1	6	-0.128745	40.4205	24.5302	8.04863
  79	1	6	-0.120019	41.6281	26.2923	8.36598
  80	1	6	-0.104287	41.4487	24.9073	4.38472
  81	1	6	-0.095507	39.4095	25.58	4.12393
  82	1	6	-0.104872	39.8453	23.9028	5.4402
  83	1	3	0.456145	35.3721	25.9456	7.32266
  84	1	3	0.550902	35.4093	27.9151	8.52705
  85	1	4	0.015704	34.6359	26.8516	8.07759
  86	1	2	-0.456801	34.9919	24.9114	6.80155
  87	1	2	-0.487703	35.0652	28.8666	9.20785
  88	1	1	-0.116566	33.2501	26.688	8.37657
  89	1	1	-0.050109	32.8358	25.7319	9.33467
  90	1	1	0.154929	31.4502	25.5266	9.55857
  91	1	1	0.041555	32.2917	27.4568	7.68075
  92	1	1	-0.223109	30.9256	27.2696	7.94486
  93	1	1	-0.080449	30.4937	26.3052	8.86898
  94	1	5	-0.108008	32.7051	28.48	6.6288
  95	1	5	-0.182228	28.9966	26.1099	9.08868
  96	1	5	-0.345523	33.8821	24.8982	10.0903
  97	1	7	0.155183	39.4772	28.1703	4.62379
  98	1	7	0.172904	43.2301	26.8868	6.45133
  99	1	7	0.158028	44.3529	28.8899	5.52765
 100	1	7	0.153129	37.9824	29.2923	8.7697
 101	1	7	0.142914	40.0697	28.4023	7.74904
 102	1	7	0.135531	37.8294	25.016	6.15583
 103	1	7	0.17765	30.1936	27.8661	7.40666
 104	1	9	0.046541	33.3855	28.0387	5.88978
 105	1	9	0.045238	33.2109	29.3367	7.09124
 106	1	9	0.051941	31.8391	28.8683	6.07904
 107	1	9	0.087961	28.7136	26.3543	10.1211
 108	1	9	0.066782	28.6957	25.0739	8.88661
 109	1	9	0.075908	28.4012	26.754	8.42931
 110	1	9	0.105172	33.5499	24.6059	11.0936
 111	1	9	0.115625	34.8203	25.4427	10.248
 112	1	9	0.140296	34.119	23.9797	9.53494
 113	1	1	-0.004194	39.3454	32.3458	-7.2614
 114	1	1	-0.097141	40.1992	33.4443	-6.97198
 115	1	1	-0.172015	39.6031	34.7263	-6.79857
 116	1	2	-0.377994	36.9797	30.3989	-7.7188
 117	1	1	0.033493	37.9714	32.5723	-7.3892
 118	1	1	-0.063739	38.2181	34.937	-6.96525
 119	1	2	-0.398381	35.1477	34.6433	-7.41141
 120	1	1	0.032144	37.4222	33.8317	-7.27145
 121	1	3	0.032313	36.8719	31.6068	-7.62409
 122	1	4	0.461698	35.7106	32.3721	-7.67819
 123	1	3	0.091945	35.9515	33.7275	-7.46132
 124	1	1	-0.10563	43.712	35.0431	-3.93356
 125	1	5	-0.099376	41.7494	33.3131	-6.84826
 126	1	1	-0.043296	42.1613	33.8486	-5.44978
 127	1	1	-0.073043	43.3182	34.6515	-5.23132
 128	1	1	-0.117827	42.9408	34.6062	-2.85129
 129	1	1	-0.037562	41.4083	33.4339	-4.32206
 130	1	1	-0.083705	41.8259	33.8213	-3.04639
 131	1	5	0.396	42.3747	34.1154	-8.06128
 132	1	5	0.310495	42.2764	31.827	-6.91032
 133	1	6	-0.130298	42.2276	35.4526	-7.92638
 134	1	6	-0.128745	41.7783	33.784	-9.22909
 135	1	6	-0.120019	43.6974	33.8972	-8.23819
 136	1	6	-0.104287	42.0712	31.2544	-8.11539
 137	1	6	-0.095507	41.6961	31.0258	-5.9917
 138	1	6	-0.104872	43.6025	31.753	-6.65784
 139	1	3	0.456145	41.268	33.4643	-1.72006
 140	1	3	0.550902	43.1243	34.79	-1.3844
 141	1	4	0.015704	42.0892	34.0808	-0.781842
 142	1	2	-0.456801	40.352	32.687	-1.52446
 143	1	2	-0.487703	44.0271	35.4106	-0.847424
 144	1	1	-0.116566	41.8938	33.9778	0.632644
 145	1	1	-0.050109	42.0173	32.7232	1.28577
 146	1	1	0.154929	41.7404	32.6298	2.67311
 147	1	1	0.041555	41.5467	35.1296	1.38059
 148	1	1	-0.223109	41.3072	35.0189	2.75775
 149	1	1	-0.080449	41.3887	33.782	3.41037
 150	1	5	-0.108008	41.4361	36.5215	0.765324
 151	1	5	-0.182228	41.1094	33.7219	4.90969
 152	1	5	-0.345523	42.4369	31.472	0.499405
 153	1	7	0.155183	39.7049	31.3305	-7.38249
 154	1	7	0.172904	40.2224	35.5811	-6.53811
 155	1	7	0.158028	37.7722	35.9226	-6.84889
 156	1	7	0.153129	44.606	35.642	-3.77069
 157	1	7	0.142914	43.9462	34.9636	-6.05809
 158	1	7	0.135531	40.5387	32.7877	-4.42164
 159	1	7	0.17765	41.0528	35.911	3.32385
 160	1	9	0.046541	42.3827	37.0653	0.874996
 161	1	9	0.045238	40.6545	37.1116	1.25903
 162	1	9	0.051941	41.1906	36.5	-0.299627
 163	1	9	0.087961	41.9977	33.3921	5.46431
 164	1	9	0.066782	40.2861	33.032	5.1353
 165	1	9	0.075908	40.826	34.7036	5.30972
 166	1	9	0.105172	43.0038	30.7563	1.106
 167	1	9	0.115625	43.0923	31.7136	-0.345762
 168	1	9	0.140296	41.556	30.9516	0.0975972
 169	1	1	-0.004194	29.3803	27.4591	-17.9487
 170	1	1	-0.097141	29.5186	27.6106	-16.5405
 171	1	1	-0.172015	28.4097	28.1139	-15.8028
 172	1	2	-0.377994	28.388	27.3112	-20.9124
 173	1	1	0.033493	28.166	27.8183	-18.5507
 174	1	1	-0.063739	27.2026	28.479	-16.4291
 175	1	2	-0.398381	24.8784	29.0285	-18.4096
 176	1	1	0.032144	27.1115	28.3185	-17.8119
 177	1	3	0.032313	27.7359	27.7373	-19.9737
 178	1	4	0.461698	26.4274	28.2185	-19.9846
 179	1	3	0.091945	25.9733	28.59	-18.7229
 180	1	1	-0.10563	31.2685	30.7444	-14.2407
 181	1	5	-0.099376	30.8003	27.1965	-15.7557
 182	1	1	-0.043296	31.126	28.3196	-14.7281
 183	1	1	-0.073043	31.0086	29.6814	-15.1285
 184	1	1	-0.117827	31.6753	30.4252	-12.9421
 185	1	1	-0.037562	31.5803	28.0432	-13.4116
 186	1	1	-0.083705	31.8424	29.1134	-12.5489
 187	1	5	0.396	32.0846	27.047	-16.6523
 188	1	5	0.310495	30.4719	25.8048	-15.0872
 189	1	6	-0.130298	32.0417	25.9674	-17.4644
 190	1	6	-0.128745	33.1992	26.9181	-15.8975
 191	1	6	-0.120019	32.2801	28.1334	-17.4318
 192	1	6	-0.104287	29.5684	25.9272	-14.0885
 193	1	6	-0.095507	31.5548	25.1832	-14.5683
 194	1	6	-0.104872	29.9319	24.9444	-15.98
 195	1	3	0.456145	32.3109	29.1076	-11.139
 196	1	3	0.550902	32.0097	31.3031	-11.7884
 197	1	4	0.015704	32.3744	30.4428	-10.7602
 198	1	2	-0.456801	32.5699	28.1229	-10.4685
 199	1	2	-0.487703	31.9533	32.5211	-11.769
 200	1	1	-0.116566	32.7624	30.8724	-9.45625
 201	1	1	-0.050109	34.0518	31.414	-9.23648
 202	1	1	0.154929	34.4239	31.8168	-7.92575
 203	1	1	0.041555	31.8518	30.7378	-8.38659
 204	1	1	-0.223109	32.2414	31.1182	-7.09513
 205	1	1	-0.080449	33.5179	31.6464	-6.85143
 206	1	5	-0.108008	30.4472	30.1829	-8.59846
 207	1	5	-0.182228	33.8823	32.0164	-5.41772
 208	1	5	-0.345523	35.005	31.5615	-10.4322
 209	1	7	0.155183	30.1732	27.0694	-18.5783
 210	1	7	0.172904	28.48	28.2216	-14.7219
 211	1	7	0.158028	26.3582	28.8625	-15.8602
 212	1	7	0.153129	31.1619	31.7814	-14.554
 213	1	7	0.142914	30.7023	29.9237	-16.1432
 214	1	7	0.135531	31.732	27.0342	-13.0436
 215	1	7	0.17765	31.5424	30.999	-6.27186
 216	1	9	0.046541	30.4791	29.1105	-8.82715
 217	1	9	0.045238	29.938	30.6941	-9.42491
 218	1	9	0.051941	29.8218	30.3094	-7.70624
 219	1	9	0.087961	34.8088	31.5241	-5.10258
 220	1	9	0.066782	33.1055	31.7069	-4.70677
 221	1	9	0.075908	34.0037	33.1014	-5.30616
 222	1	9	0.105172	35.0235	30.6491	-11.0418
 223	1	9	0.115625	36.0477	31.7454	-10.1562
 224	1	9	0.140296	34.6926	32.3936	-11.0782
 225	1	1	-0.004194	28.0781	31.009	-30.2787
 226	1	1	-0.097141	26.9455	31.8417	-30.0541
 227	1	1	-0.172015	25.6524	31.2734	-30.2475
 228	1	2	-0.377994	30.0251	28.6174	-30.1644
 229	1	1	0.033493	27.8741	29.6502	-30.5505
 230	1	1	-0.063739	25.4709	29.9192	-30.5808
 231	1	2	-0.398381	25.759	26.8625	-30.6678
 232	1	1	0.032144	26.6066	29.1203	-30.6872
 233	1	3	0.032313	28.8326	28.5231	-30.4029
 234	1	4	0.461698	28.0376	27.3777	-30.3865
 235	1	3	0.091945	26.6964	27.6433	-30.6411
 236	1	1	-0.10563	24.7393	33.5323	-26.1523
 237	1	5	-0.099376	27.0382	33.2233	-29.326
 238	1	1	-0.043296	26.3493	32.9801	-27.951
 239	1	1	-0.073043	25.3969	33.8607	-27.3623
 240	1	1	-0.117827	25.0546	32.3138	-25.533
 241	1	1	-0.037562	26.6652	31.782	-27.2594
 242	1	1	-0.083705	26.0028	31.4755	-26.0744
 243	1	5	0.396	26.34	34.3178	-30.2345
 244	1	5	0.310495	28.5143	33.7002	-29.0178
 245	1	6	-0.130298	25.0038	34.149	-30.3393
 246	1	6	-0.128745	26.8252	34.2827	-31.4958
 247	1	6	-0.120019	26.5061	35.5831	-29.7895
 248	1	6	-0.104287	29.2324	33.9055	-30.1445
 249	1	6	-0.095507	29.2062	32.8204	-28.2587
 250	1	6	-0.104872	28.5404	34.8512	-28.3091
 251	1	3	0.456145	26.1122	30.2631	-25.2318
 252	1	3	0.550902	24.5148	31.6515	-24.3082
 253	1	4	0.015704	25.1931	30.4383	-24.21
 254	1	2	-0.456801	26.8356	29.3043	-25.4415
 255	1	2	-0.487703	23.6374	32.085	-23.5814
 256	1	1	-0.116566	24.9675	29.4407	-23.2161
 257	1	1	-0.050109	25.777	29.3848	-22.0559
 258	1	1	0.154929	25.6204	28.3033	-21.1515
 259	1	1	0.041555	24.0	28.4417	-23.4578
 260	1	1	-0.223109	23.8478	27.3866	-22.5459
 261	1	1	-0.080449	24.6539	27.3011	-21.4006
 262	1	5	-0.108008	23.1303	28.4673	-24.7098
 263	1	5	-0.182228	24.4593	26.1204	-20.4532
 264	1	5	-0.345523	26.8434	30.4604	-21.8081
 265	1	7	0.155183	29.0959	31.337	-30.1014
 266	1	7	0.172904	24.7584	31.8446	-30.0188
 267	1	7	0.158028	24.4794	29.4726	-30.6186
 268	1	7	0.153129	23.9939	34.1968	-25.7189
 269	1	7	0.142914	25.1391	34.7996	-27.8417
 270	1	7	0.135531	27.3914	31.0709	-27.6424
 271	1	7	0.17765	23.1016	26.6204	-22.7393
 272	1	9	0.046541	22.4153	27.6356	-24.7256
 273	1	9	0.045238	23.7428	28.3875	-25.6167
 274	1	9	0.051941	22.5504	29.3968	-24.768
 275	1	9	0.087961	24.0121	26.4472	-19.5048
 276	1	9	0.066782	25.4112	25.6232	-20.2284
 277	1	9	0.075908	23.7922	25.362	-20.8819
 278	1	9	0.105172	26.5939	31.4196	-22.2757
 279	1	9	0.115625	27.8151	30.1387	-22.2081
 280	1	9	0.140296	26.9766	30.6851	-20.7429
 281	1	1	-0.004194	30.9315	24.7155	-20.6194
 282	1	1	-0.097141	30.7127	23.3129	-20.5612
 283	1	1	-0.172015	31.8476	22.4641	-20.4031
 284	1	2	-0.377994	32.0484	27.6176	-20.505
 285	1	1	0.033493	32.2382	25.2087	-20.5274
 286	1	1	-0.063739	33.158	22.9811	-20.3481
 287	1	2	-0.398381	35.7042	24.7585	-20.3106
 288	1	1	0.032144	33.3227	24.3644	-20.4213
 289	1	3	0.032313	32.7345	26.6088	-20.5084
 290	1	4	0.461698	34.1251	26.5033	-20.4326
 291	1	3	0.091945	34.5614	25.1801	-20.3843
 292	1	1	-0.10563	26.7015	24.0191	-23.3738
 293	1	5	-0.099376	29.2522	22.7737	-20.6828
 294	1	1	-0.043296	28.643	23.3311	-22.0017
 295	1	1	-0.073043	27.2584	23.6374	-22.1355
 296	1	1	-0.117827	27.5495	24.0899	-24.4837
 297	1	1	-0.037562	29.4672	23.4337	-23.154
 298	1	1	-0.083705	28.897	23.8245	-24.3704
 299	1	5	0.396	28.4831	23.2281	-19.3782
 300	1	5	0.310495	29.1602	21.2033	-20.805
 301	1	6	-0.130298	28.2235	24.5536	-19.3742
 302	1	6	-0.128745	29.2129	22.979	-18.2677
 303	1	6	-0.120019	27.2946	22.6102	-19.1952
 304	1	6	-0.104287	29.5492	20.565	-19.6778
 305	1	6	-0.095507	29.9141	20.7304	-21.8239
 306	1	6	-0.104872	27.9001	20.788	-21.0693
 307	1	3	0.456145	29.5191	23.9864	-25.7116
 308	1	3	0.550902	27.256	24.3969	-25.9096
 309	1	4	0.015704	28.4787	24.3222	-26.572
 310	1	2	-0.456801	30.7011	23.8429	-25.9751
 311	1	2	-0.487703	26.1529	24.6218	-26.3797
 312	1	1	-0.116566	28.6403	24.5899	-27.9688
 313	1	1	-0.050109	28.4101	25.8945	-28.4718
 314	1	1	0.154929	28.4605	26.123	-29.8722
 315	1	1	0.041555	28.972	23.5413	-28.858
 316	1	1	-0.223109	29.0803	23.8023	-30.2342
 317	1	1	-0.080449	28.8141	25.079	-30.753
 318	1	5	-0.108008	29.1956	22.1132	-28.3717
 319	1	5	-0.182228	28.8815	25.3001	-32.2603
 320	1	5	-0.345523	28.0564	27.0415	-27.5099
 321	1	7	0.155183	30.1104	25.415	-20.7485
 322	1	7	0.172904	31.7455	21.3872	-20.3289
 323	1	7	0.158028	34.023	22.3298	-20.244
 324	1	7	0.153129	25.6393	24.233	-23.4738
 325	1	7	0.142914	26.5847	23.5506	-21.2917
 326	1	7	0.135531	30.5245	23.1829	-23.1242
 327	1	7	0.17765	29.3395	22.9916	-30.9096
 328	1	9	0.046541	29.1509	21.3944	-29.199
 329	1	9	0.045238	28.4334	21.8098	-27.6436
 330	1	9	0.051941	30.1808	22.0089	-27.9009
 331	1	9	0.087961	29.5787	26.1101	-32.5119
 332	1	9	0.066782	27.8948	25.5579	-32.6666
 333	1	9	0.075908	29.2263	24.4018	-32.7875
 334	1	9	0.105172	28.4353	26.8814	-26.494
 335	1	9	0.115625	26.968	27.1717	-27.433
 336	1	9	0.140296	28.4914	28.0013	-27.8097
 337	1	1	-0.004194	41.933	31.9726	-13.4553
 338	1	1	-0.097141	41.1973	31.329	-12.4258
 339	1	1	-0.172015	41.9093	30.8735	-11.2791
 340	1	2	-0.377994	44.0756	33.1469	-15.3676
 341	1	1	0.033493	43.3147	32.1289	-13.3131
 342	1	1	-0.063739	43.3045	31.043	-11.1575
 343	1	2	-0.398381	46.3306	31.6651	-11.5878
 344	1	1	0.032144	43.9851	31.6794	-12.1951
 345	1	3	0.032313	44.3075	32.6851	-14.263
 346	1	4	0.461698	45.5404	32.5119	-13.6381
 347	1	3	0.091945	45.4372	31.9356	-12.3745
 348	1	1	-0.10563	40.1915	28.7968	-15.6828
 349	1	5	-0.099376	39.6624	31.1286	-12.6195
 350	1	1	-0.043296	39.445	30.4683	-14.0124
 351	1	1	-0.073043	40.3467	29.4535	-14.4461
 352	1	1	-0.117827	39.0985	29.1511	-16.4784
 353	1	1	-0.037562	38.3375	30.7822	-14.8441
 354	1	1	-0.083705	38.1944	30.1076	-16.0639
 355	1	5	0.396	39.0011	32.5558	-12.4769
 356	1	5	0.310495	39.0033	30.1556	-11.571
 357	1	6	-0.130298	39.4456	33.1968	-11.3716
 358	1	6	-0.128745	37.6533	32.5277	-12.3791
 359	1	6	-0.120019	39.2961	33.3548	-13.5263
 360	1	6	-0.104287	39.0047	30.6571	-10.3149
 361	1	6	-0.095507	39.6313	28.9605	-11.5352
 362	1	6	-0.104872	37.7161	29.8797	-11.8811
 363	1	3	0.456145	37.1219	30.2022	-17.0899
 364	1	3	0.550902	38.6431	28.612	-17.7888
 365	1	4	0.015704	37.4573	29.2778	-18.0716
 366	1	2	-0.456801	36.1344	30.9152	-17.0374
 367	1	2	-0.487703	39.1983	27.7449	-18.4422
 368	1	1	-0.116566	36.6538	29.0088	-19.2194
 369	1	1	-0.050109	35.7663	27.9059	-19.2241
 370	1	1	0.154929	35.0068	27.6226	-20.3913
 371	1	1	0.041555	36.7705	29.8361	-20.3552
 372	1	1	-0.223109	36.0163	29.5461	-21.5012
 373	1	1	-0.080449	35.146	28.4451	-21.5365
 374	1	5	-0.108008	37.7155	31.0324	-20.371
 375	1	5	-0.182228	34.3859	28.1695	-22.8319
 376	1	5	-0.345523	35.6799	27.0219	-17.9727
 377	1	7	0.155183	41.454	32.3171	-14.368
 378	1	7	0.172904	41.4047	30.3543	-10.4729
 379	1	7	0.158028	43.85	30.6702	-10.2967
 380	1	7	0.153129	40.8859	28.0216	-16.0016
 381	1	7	0.142914	41.1781	29.1547	-13.8106
 382	1	7	0.135531	37.5852	31.5114	-14.5633
 383	1	7	0.17765	36.119	30.1794	-22.3787
 384	1	9	0.046541	37.4423	31.7601	-19.5966
 385	1	9	0.045238	37.6911	31.5573	-21.334
 386	1	9	0.051941	38.752	30.7188	-20.1949
 387	1	9	0.087961	34.4409	27.1124	-23.1214
 388	1	9	0.066782	34.792	28.7488	-23.6706
 389	1	9	0.075908	33.3272	28.4428	-22.7353
 390	1	9	0.105172	34.7908	26.3854	-17.9444
 391	1	9	0.115625	35.6502	27.6181	-17.0523
 392	1	9	0.140296	36.5515	26.3541	-17.9156
 393	1	1	-0.004194	48.8995	25.5762	-15.6173
 394	1	1	-0.097141	50.1494	24.9756	-15.93
 395	1	1	-0.172015	50.818	24.2427	-14.9084
 396	1	2	-0.377994	46.5502	27.0573	-14.2487
 397	1	1	0.033493	48.4388	25.5465	-14.3003
 398	1	1	-0.063739	50.3163	24.1962	-13.5894
 399	1	2	-0.398381	48.8686	24.8218	-10.9051
 400	1	1	0.032144	49.1349	24.8886	-13.3081
 401	1	3	0.032313	47.3282	26.3097	-13.6784
 402	1	4	0.461698	47.4599	26.0777	-12.3116
 403	1	3	0.091945	48.4941	25.1959	-12.0043
 404	1	1	-0.10563	49.5471	28.5434	-19.0438
 405	1	5	-0.099376	50.7664	25.2349	-17.34
 406	1	1	-0.043296	50.52	26.7421	-17.6566
 407	1	1	-0.073043	49.9762	27.2079	-18.8881
 408	1	1	-0.117827	49.679	29.4101	-17.9532
 409	1	1	-0.037562	50.7352	27.6864	-16.6185
 410	1	1	-0.083705	50.2753	28.9941	-16.782
 411	1	5	0.396	50.0467	24.2432	-18.3306
 412	1	5	0.310495	52.3252	25.0149	-17.4142
 413	1	6	-0.130298	50.5882	24.2406	-19.5695
 414	1	6	-0.128745	48.7336	24.5372	-18.4668
 415	1	6	-0.120019	50.0994	22.9686	-17.8815
 416	1	6	-0.104287	52.8366	25.496	-18.5701
 417	1	6	-0.095507	52.687	23.714	-17.344
 418	1	6	-0.104872	52.9734	25.6621	-16.4193
 419	1	3	0.456145	50.0918	30.0512	-15.7565
 420	1	3	0.550902	49.0959	30.7598	-17.7197
 421	1	4	0.015704	49.3296	31.0317	-16.3766
 422	1	2	-0.456801	50.3751	29.9564	-14.5741
 423	1	2	-0.487703	48.408	31.3888	-18.5055
 424	1	1	-0.116566	48.6568	32.0569	-15.6531
 425	1	1	-0.050109	47.4286	31.7709	-15.0075
 426	1	1	0.154929	46.7779	32.7924	-14.2747
 427	1	1	0.041555	49.2209	33.3473	-15.5719
 428	1	1	-0.223109	48.56	34.3478	-14.8406
 429	1	1	-0.080449	47.3445	34.0832	-14.1892
 430	1	5	-0.108008	50.5393	33.6756	-16.2621
 431	1	5	-0.182228	46.663	35.199	-13.4038
 432	1	5	-0.345523	46.7894	30.3733	-15.0787
 433	1	7	0.155183	48.345	26.1556	-16.3513
 434	1	7	0.172904	51.7625	23.744	-15.1027
 435	1	7	0.158028	50.8629	23.6967	-12.7921
 436	1	7	0.153129	49.0495	28.8715	-19.9546
 437	1	7	0.142914	49.8118	26.5317	-19.7197
 438	1	7	0.135531	51.1292	27.3846	-15.6505
 439	1	7	0.17765	48.9969	35.3409	-14.7807
 440	1	9	0.046541	50.4591	33.5358	-17.3474
 441	1	9	0.045238	51.3474	33.0317	-15.8934
 442	1	9	0.051941	50.8425	34.7152	-16.0874
 443	1	9	0.087961	46.5735	34.937	-12.3415
 444	1	9	0.066782	45.6567	35.4012	-13.7934
 445	1	9	0.075908	47.2265	36.1387	-13.4602
 446	1	9	0.105172	47.2853	29.6816	-15.766
 447	1	9	0.115625	45.7473	30.4258	-15.4201
 448	1	9	0.140296	46.796	29.8859	-14.0937
 449	1	1	-0.004194	37.9814	28.0572	-6.07339
 450	1	1	-0.097141	37.1569	27.0382	-6.62699
 451	1	1	-0.172015	35.8609	26.8501	-6.06773
 452	1	2	-0.377994	39.2625	30.3799	-4.42219
 453	1	1	0.033493	37.5154	28.797	-4.9777
 454	1	1	-0.063739	35.4016	27.6195	-4.98024
 455	1	2	-0.398381	35.0293	29.6446	-2.6623
 456	1	1	0.032144	36.2591	28.5839	-4.44971
 457	1	3	0.032313	38.1629	29.8963	-4.20933
 458	1	4	0.461698	37.2268	30.2623	-3.23845
 459	1	3	0.091945	36.0441	29.5324	-3.33077
 460	1	1	-0.10563	41.265	25.5586	-6.65067
 461	1	5	-0.099376	37.6268	26.2189	-7.8688
 462	1	1	-0.043296	39.1884	26.1475	-7.87304
 463	1	1	-0.073043	39.8594	25.6507	-6.71903
 464	1	1	-0.117827	42.0038	25.9784	-7.76096
 465	1	1	-0.037562	39.9835	26.5504	-8.98056
 466	1	1	-0.083705	41.3773	26.4675	-8.88734
 467	1	5	0.396	37.0305	26.9371	-9.1408
 468	1	5	0.310495	37.1149	24.7227	-7.8433
 469	1	6	-0.130298	35.6948	27.1283	-9.05294
 470	1	6	-0.128745	37.2476	26.2406	-10.2801
 471	1	6	-0.120019	37.5641	28.1631	-9.31177
 472	1	6	-0.104287	37.8159	23.9468	-8.70195
 473	1	6	-0.095507	35.8157	24.5745	-8.18574
 474	1	6	-0.104872	37.2525	24.1618	-6.6209
 475	1	3	0.456145	42.4236	26.8983	-9.85121
 476	1	3	0.550902	43.4753	26.0623	-7.97333
 477	1	4	0.015704	43.6363	26.6411	-9.22637
 478	1	2	-0.456801	42.2369	27.4748	-10.9092
 479	1	2	-0.487703	44.3375	25.7567	-7.16815
 480	1	1	-0.116566	44.8865	27.0702	-9.76166
 481	1	1	-0.050109	45.5413	26.3149	-10.7642
 482	1	1	0.154929	46.747	26.8093	-11.3256
 483	1	1	0.041555	45.4383	28.2891	-9.31152
 484	1	1	-0.223109	46.6145	28.7759	-9.89666
 485	1	1	-0.080449	47.269	28.055	-10.9047
 486	1	5	-0.108008	44.7897	29.097	-8.19426
 487	1	5	-0.182228	48.5446	28.6425	-11.5061
 488	1	5	-0.345523	44.9284	24.9828	-11.2135
 489	1	7	0.155183	38.9547	28.2974	-6.48998
 490	1	7	0.172904	35.1735	26.1246	-6.48937
 491	1	7	0.158028	34.4048	27.4806	-4.5674
 492	1	7	0.153129	41.7642	25.1891	-5.75666
 493	1	7	0.142914	39.2831	25.3431	-5.85091
 494	1	7	0.135531	39.5601	26.9329	-9.90109
 495	1	7	0.17765	47.0248	29.7277	-9.56697
 496	1	9	0.046541	43.7096	29.2	-8.34477
 497	1	9	0.045238	45.2111	30.1079	-8.13288
 498	1	9	0.051941	44.9513	28.6146	-7.22205
 499	1	9	0.087961	48.7198	29.6696	-11.1603
 500	1	9	0.066782	48.4951	28.6885	-12.6013
 501	1	9	0.075908	49.4255	28.0499	-11.2282
 502	1	9	0.105172	45.5448	24.4277	-11.9289
 503	1	9	0.115625	43.954	25.1443	-11.694
 504	1	9	0.140296	44.7766	24.3154	-10.3546
 505	1	1	-0.004194	32.0788	40.0701	-3.76394
 506	1	1	-0.097141	33.1862	40.0592	-2.87202
 507	1	1	-0.172015	32.9507	39.661	-1.52374
 508	1	2	-0.377994	29.3662	39.7701	-5.21923
 509	1	1	0.033493	30.828	39.6536	-3.30088
 510	1	1	-0.063739	31.679	39.2394	-1.07876
 511	1	2	-0.398381	28.6955	38.3371	-0.855315
 512	1	1	0.032144	30.6302	39.2367	-2.00153
 513	1	3	0.032313	29.5518	39.512	-4.04167
 514	1	4	0.461698	28.6519	38.9857	-3.11798
 515	1	3	0.091945	29.2175	38.7949	-1.8583
 516	1	1	-0.10563	37.9318	38.5507	-2.41116
 517	1	5	-0.099376	34.6344	40.4579	-3.30844
 518	1	1	-0.043296	35.6279	39.3272	-2.89839
 519	1	1	-0.073043	37.0181	39.5823	-2.71279
 520	1	1	-0.117827	37.4341	37.2515	-2.27443
 521	1	1	-0.037562	35.1773	37.9848	-2.78259
 522	1	1	-0.083705	36.092	36.9846	-2.43602
 523	1	5	0.396	34.9487	41.835	-2.60123
 524	1	5	0.310495	34.7888	40.6253	-4.86891
 525	1	6	-0.130298	35.1981	41.6708	-1.28262
 526	1	6	-0.128745	33.9034	42.6885	-2.69615
 527	1	6	-0.120019	36.0143	42.4889	-3.11522
 528	1	6	-0.104287	36.0739	40.8197	-5.24377
 529	1	6	-0.095507	34.089	41.6755	-5.35526
 530	1	6	-0.104872	34.383	39.5139	-5.52451
 531	1	3	0.456145	35.8739	35.5363	-2.19022
 532	1	3	0.550902	38.1285	35.9716	-1.96636
 533	1	4	0.015704	37.1277	35.0091	-1.90391
 534	1	2	-0.456801	34.8049	34.9524	-2.24332
 535	1	2	-0.487703	39.3332	35.8236	-1.8558
 536	1	1	-0.116566	37.3436	33.6347	-1.58426
 537	1	1	-0.050109	37.2804	32.6522	-2.60058
 538	1	1	0.154929	37.4175	31.2806	-2.26089
 539	1	1	0.041555	37.5792	33.2575	-0.243645
 540	1	1	-0.223109	37.7406	31.901	0.0747998
 541	1	1	-0.080449	37.6574	30.9101	-0.915905
 542	1	5	-0.108008	37.6734	34.2897	0.874229
 543	1	5	-0.182228	37.8306	29.4524	-0.49911
 544	1	5	-0.345523	37.0737	33.1098	-4.04612
 545	1	7	0.155183	32.1539	40.3642	-4.80459
 546	1	7	0.172904	33.775	39.6414	-0.813745
 547	1	7	0.158028	31.5143	38.9064	-0.0559781
 548	1	7	0.153129	38.9934	38.7559	-2.28618
 549	1	7	0.142914	37.4179	40.5833	-2.82991
 550	1	7	0.135531	34.1405	37.7071	-2.95417
 551	1	7	0.17765	37.9365	31.6156	1.1054
 552	1	9	0.046541	36.7633	34.8995	0.928227
 553	1	9	0.045238	38.5284	34.9589	0.720164
 554	1	9	0.051941	37.8088	33.8145	1.85378
 555	1	9	0.087961	38.1987	29.37	0.531975
 556	1	9	0.066782	38.5548	28.9348	-1.14059
 557	1	9	0.075908	36.8766	28.9116	-0.548444
 558	1	9	0.105172	37.1498	32.3017	-4.77567
 559	1	9	0.115625	37.8371	33.8477	-4.32198
 560	1	9	0.140296	36.0892	33.5752	-4.17731
 561	1	1	-0.004194	17.7527	40.8147	-3.55038
 562	1	1	-0.097141	17.6452	41.2351	-2.19926
 563	1	1	-0.172015	16.7488	40.5317	-1.34431
 564	1	2	-0.377994	17.5847	39.4351	-6.31263
 565	1	1	0.033493	17.0061	39.7198	-3.98612
 566	1	1	-0.063739	16.0007	39.4262	-1.80862
 567	1	2	-0.398381	14.6902	37.1397	-3.50109
 568	1	1	0.032144	16.1536	39.0385	-3.14351
 569	1	3	0.032313	16.9489	39.0968	-5.3283
 570	1	4	0.461698	16.0322	38.0571	-5.2036
 571	1	3	0.091945	15.5069	37.9446	-3.91731
 572	1	1	-0.10563	21.7683	43.0157	-3.81807
 573	1	5	-0.099376	18.4822	42.4637	-1.73974
 574	1	1	-0.043296	19.9024	42.2876	-2.36091
 575	1	1	-0.073043	20.5251	43.2604	-3.19729
 576	1	1	-0.117827	22.4008	41.7937	-3.56958
 577	1	1	-0.037562	20.5947	41.0708	-2.12379
 578	1	1	-0.083705	21.8393	40.8611	-2.72555
 579	1	5	0.396	18.6716	42.574	-0.17385
 580	1	5	0.310495	17.7108	43.7439	-2.2471
 581	1	6	-0.130298	17.5511	42.9489	0.483311
 582	1	6	-0.128745	19.6237	43.4814	0.141156
 583	1	6	-0.120019	19.0645	41.4064	0.382485
 584	1	6	-0.104287	17.638	43.7941	-3.59678
 585	1	6	-0.095507	18.2789	44.899	-1.83276
 586	1	6	-0.104872	16.4283	43.761	-1.81782
 587	1	3	0.456145	22.7589	39.6974	-2.63817
 588	1	3	0.550902	23.6842	41.2412	-4.08237
 589	1	4	0.015704	23.8269	39.9964	-3.47665
 590	1	2	-0.456801	22.5943	38.7041	-1.95083
 591	1	2	-0.487703	24.442	41.794	-4.86165
 592	1	1	-0.116566	24.9404	39.1239	-3.68504
 593	1	1	-0.050109	26.2306	39.4769	-3.21281
 594	1	1	0.154929	27.3254	38.6098	-3.46527
 595	1	1	0.041555	24.7492	37.9073	-4.38072
 596	1	1	-0.223109	25.8338	37.0395	-4.57406
 597	1	1	-0.080449	27.1183	37.3768	-4.12501
 598	1	5	-0.108008	23.3915	37.5004	-4.945
 599	1	5	-0.182228	28.2648	36.4025	-4.38507
 600	1	5	-0.345523	26.4376	40.8012	-2.46436
 601	1	7	0.155183	18.3988	41.3239	-4.26121
 602	1	7	0.172904	16.6115	40.8319	-0.310082
 603	1	7	0.158028	15.3174	38.888	-1.15519
 604	1	7	0.153129	22.225	43.7522	-4.47692
 605	1	7	0.142914	20.0525	44.2143	-3.40158
 606	1	7	0.135531	20.1693	40.2853	-1.50453
 607	1	7	0.17765	25.6785	36.1	-5.09789
 608	1	9	0.046541	22.7354	37.1185	-4.15334
 609	1	9	0.045238	23.4908	36.7085	-5.69765
 610	1	9	0.051941	22.8869	38.3428	-5.43355
 611	1	9	0.087961	28.8163	36.175	-3.46334
 612	1	9	0.066782	28.9735	36.8112	-5.11708
 613	1	9	0.075908	27.9024	35.4465	-4.78331
 614	1	9	0.105172	27.2872	40.7756	-1.77294
 615	1	9	0.115625	25.5725	41.0633	-1.84352
 616	1	9	0.140296	26.6071	41.6256	-3.17126
 617	1	1	-0.004194	8.53604	39.5327	-15.5664
 618	1	1	-0.097141	9.77207	39.3077	-14.9043
 619	1	1	-0.172015	10.6287	38.286	-15.4043
 620	1	2	-0.377994	6.0058	39.4534	-17.3507
 621	1	1	0.033493	8.20969	38.7399	-16.6711
 622	1	1	-0.063739	10.2888	37.5142	-16.5344
 623	1	2	-0.398381	8.90716	36.2308	-19.0135
 624	1	1	0.032144	9.0642	37.77	-17.1536
 625	1	3	0.032313	6.98299	38.7399	-17.5035
 626	1	4	0.461698	7.19169	37.7475	-18.4596
 627	1	3	0.091945	8.43295	37.1259	-18.3335
 628	1	1	-0.10563	10.3109	37.1501	-11.2287
 629	1	5	-0.099376	10.2477	40.1543	-13.6879
 630	1	1	-0.043296	10.7578	39.1662	-12.5994
 631	1	1	-0.073043	9.93623	38.0607	-12.2373
 632	1	1	-0.117827	11.5388	37.3509	-10.5926
 633	1	1	-0.037562	11.9949	39.333	-11.9232
 634	1	1	-0.083705	12.3582	38.4034	-10.9423
 635	1	5	0.396	9.1058	41.0107	-13.0107
 636	1	5	0.310495	11.3574	41.1352	-14.2367
 637	1	6	-0.130298	9.51253	41.541	-11.8348
 638	1	6	-0.128745	8.01255	40.2675	-12.7251
 639	1	6	-0.120019	8.68702	42.0427	-13.7774
 640	1	6	-0.104287	11.7424	42.0654	-13.3341
 641	1	6	-0.095507	10.9263	41.8103	-15.3268
 642	1	6	-0.104872	12.4735	40.4789	-14.6272
 643	1	3	0.456145	13.5856	38.3303	-10.1106
 644	1	3	0.550902	12.2047	36.5822	-9.50598
 645	1	4	0.015704	13.4178	37.2245	-9.28534
 646	1	2	-0.456801	14.5355	39.0919	-10.1665
 647	1	2	-0.487703	11.7607	35.5915	-8.95126
 648	1	1	-0.116566	14.3929	36.8058	-8.33002
 649	1	1	-0.050109	14.6294	37.5802	-7.16789
 650	1	1	0.154929	15.6813	37.2141	-6.29105
 651	1	1	0.041555	15.1717	35.6552	-8.58759
 652	1	1	-0.223109	16.1786	35.2821	-7.684
 653	1	1	-0.080449	16.4499	36.056	-6.54554
 654	1	5	-0.108008	14.9735	34.8199	-9.84834
 655	1	5	-0.182228	17.5977	35.6432	-5.62871