pySIMM System Object

562 atoms
611 bonds
1080 angles
1596 dihedrals
160 impropers

9 atom types
11 bond types
18 angle types
7 dihedral types
4 improper types

-105.057461 105.057461 xlo xhi
-105.057461 105.057461 ylo yhi
-105.057461 105.057461 zlo zhi

Masses

   1	12.01	# ca
   2	16.0	# o
   3	12.01	# c
   4	14.01	# n
   5	12.01	# c3
   6	19.0	# f
   7	1.008	# ha
   8	1.008	# hn
   9	1.008	# hc

Pair Coeffs

   1	0.086	3.3996695084235347	# ca
   2	0.21	2.959921901149463	# o
   3	0.086	3.3996695084235347	# c
   4	0.17	3.249998523775958	# n
   5	0.1094	3.3996695084235347	# c3
   6	0.061	3.1181455134911875	# f
   7	0.015	2.59964245953351	# ha
   8	0.0157	1.069078461768407	# hn
   9	0.0157	2.649532787749369	# hc

Bond Coeffs

   1	321.0	1.5156	# c3,ca
   2	300.9	1.5375	# c3,c3
   3	384.2	1.4121	# ca,n
   4	330.6	1.0969	# c3,hc
   5	637.7	1.2183	# c,o
   6	403.2	1.0129	# hn,n
   7	356.9	1.3497	# c3,f
   8	461.1	1.3984	# ca,ca
   9	427.6	1.3789	# c,n
  10	345.9	1.4906	# c,ca
  11	345.8	1.086	# ca,ha

Angle Coeffs

   1	70.89	107.36	# f,c3,f
   2	68.72	122.6	# ca,c,o
   3	67.87	120.19	# ca,ca,n
   4	67.68	115.25	# ca,c,n
   5	46.8	110.47	# ca,c3,hc
   6	74.22	123.05	# n,c,o
   7	48.33	117.55	# c,n,hn
   8	63.56	112.24	# ca,c3,ca
   9	62.86	111.51	# c3,c3,c3
  10	66.11	109.24	# c3,c3,f
  11	64.28	120.33	# c,ca,ca
  12	66.62	120.02	# ca,ca,ca
  13	63.74	127.08	# c,n,c
  14	39.4	107.58	# hc,c3,hc
  15	48.18	119.88	# ca,ca,ha
  16	63.15	112.07	# c3,c3,ca
  17	63.53	120.77	# c3,ca,ca
  18	63.82	123.71	# c,n,ca

Dihedral Coeffs

   1	2	2.5	2	180	2.0	1	0	# hn,n,c,o
   2	1	3.625	2	180	# X,ca,ca,X
   3	1	0.0	2	0	# X,c3,ca,X
   4	1	1.0	2	180	# X,c,ca,X
   5	1	0.15555555555555556	3	0	# X,c3,c3,X
   6	1	2.5	2	180	# X,c,n,X
   7	1	0.45	2	180	# X,ca,n,X

Improper Coeffs

   1	1.1	-1	2	# n,X,X,hn
   2	1.1	-1	2	# ca,ca,ca,c3
   3	1.1	-1	2	# ca,X,X,ha
   4	10.5	-1	2	# c,X,X,o

Atoms

   1	1	1	-0.004194	16.3038	14.3241	-29.049
   2	1	1	-0.097141	17.3758	13.422	-29.2954
   3	1	1	-0.172015	17.2281	12.4812	-30.3554
   4	1	2	-0.377994	13.6847	15.9984	-29.0531
   5	1	1	0.033493	15.1582	14.2513	-29.8487
   6	1	1	-0.063739	16.0634	12.4232	-31.1476
   7	1	2	-0.398381	13.2985	12.9046	-32.4942
   8	1	1	0.032144	15.04	13.3306	-30.8698
   9	1	3	0.032313	13.9272	15.0817	-29.8209
  10	1	4	0.461698	13.1391	14.5914	-30.8603
  11	1	3	0.091945	13.7319	13.5317	-31.5417
  12	1	1	-0.10563	18.2539	9.76211	-27.3259
  13	1	5	-0.099376	18.7174	13.4462	-28.4932
  14	1	1	-0.043296	19.0552	12.0001	-28.0201
  15	1	1	-0.073043	18.0009	11.0867	-27.7307
  16	1	1	-0.117827	19.5845	9.3738	-27.1539
  17	1	1	-0.037562	20.3913	11.5755	-27.7815
  18	1	1	-0.083705	20.6196	10.2659	-27.3342
  19	1	5	0.396	18.6571	14.3305	-27.1907
  20	1	5	0.310495	19.7982	14.0404	-29.4803
  21	1	6	-0.130298	17.6319	13.9559	-26.3929
  22	1	6	-0.128745	18.5138	15.6492	-27.4545
  23	1	6	-0.120019	19.7737	14.2107	-26.4369
  24	1	6	-0.104287	19.3308	15.1375	-30.1199
  25	1	6	-0.095507	20.1429	13.1533	-30.4409
  26	1	6	-0.104872	20.9461	14.4193	-28.8765
  27	1	3	0.456145	21.8864	9.58046	-26.953
  28	1	3	0.550902	20.1561	8.07249	-26.722
  29	1	4	0.015704	21.5265	8.2805	-26.6002
  30	1	2	-0.456801	22.9928	10.0908	-26.9272
  31	1	2	-0.487703	19.5264	7.04164	-26.5503
  32	1	1	-0.116566	22.437	7.26963	-26.1505
  33	1	1	-0.050109	22.2983	6.71529	-24.8522
  34	1	1	0.154929	23.1363	5.65772	-24.4509
  35	1	1	0.041555	23.4469	6.77264	-27.0132
  36	1	1	-0.223109	24.2834	5.72709	-26.5819
  37	1	1	-0.080449	24.1235	5.15362	-25.3125
  38	1	5	-0.108008	23.6577	7.31879	-28.4213
  39	1	5	-0.182228	25.0049	3.98756	-24.8925
  40	1	5	-0.345523	21.2412	7.20772	-23.8653
  41	1	7	0.155183	16.3301	15.0804	-28.2727
  42	1	7	0.172904	18.0298	11.7781	-30.571
  43	1	7	0.158028	15.9598	11.7055	-31.9589
  44	1	7	0.153129	17.4407	9.06587	-27.1295
  45	1	7	0.142914	16.9636	11.3977	-27.823
  46	1	7	0.135531	21.2411	12.2371	-27.9137
  47	1	7	0.17765	25.0529	5.34403	-27.2463
  48	1	9	0.046541	24.2412	8.24754	-28.3944
  49	1	9	0.045238	22.7071	7.52402	-28.9275
  50	1	9	0.051941	24.2087	6.60756	-29.0486
  51	1	9	0.087961	26.0467	4.30694	-24.7657
  52	1	9	0.066782	24.9851	3.19144	-25.6477
  53	1	9	0.075908	24.6715	3.54796	-23.9438
  54	1	9	0.105172	20.2869	6.68882	-24.0257
  55	1	9	0.115625	21.0636	8.28603	-23.9485
  56	1	9	0.140296	21.5437	7.01262	-22.8291
  57	1	1	-0.004194	7.25683	13.403	-24.5855
  58	1	1	-0.097141	5.90023	13.7991	-24.4699
  59	1	1	-0.172015	5.59072	14.8915	-23.607
  60	1	2	-0.377994	10.3088	13.3027	-24.8462
  61	1	1	0.033493	8.24172	14.1573	-23.9522
  62	1	1	-0.063739	6.60643	15.6328	-22.9623
  63	1	2	-0.398381	9.31273	17.0131	-22.2366
  64	1	1	0.032144	7.93538	15.2581	-23.1806
  65	1	3	0.032313	9.70377	14.1088	-24.1584
  66	1	4	0.461698	10.1924	15.242	-23.5166
  67	1	3	0.091945	9.20208	15.9679	-22.8561
  68	1	1	-0.10563	5.84874	12.2822	-29.1183
  69	1	5	-0.099376	4.86437	13.1154	-25.4165
  70	1	1	-0.043296	5.4366	13.2186	-26.864
  71	1	1	-0.073043	5.23895	12.2069	-27.8467
  72	1	1	-0.117827	6.66349	13.3862	-29.3956
  73	1	1	-0.037562	6.20757	14.3569	-27.2236
  74	1	1	-0.083705	6.83397	14.3926	-28.4703
  75	1	5	0.396	3.45898	13.8226	-25.4478
  76	1	5	0.310495	4.69715	11.6302	-24.906
  77	1	6	-0.130298	3.56802	15.1343	-25.7598
  78	1	6	-0.128745	2.80337	13.7339	-24.2686
  79	1	6	-0.120019	2.64725	13.2911	-26.3902
  80	1	6	-0.104287	4.51954	11.5908	-23.5659
  81	1	6	-0.095507	5.78897	10.8773	-25.169
  82	1	6	-0.104872	3.64457	10.9792	-25.449
  83	1	3	0.456145	7.86074	15.336	-28.9798
  84	1	3	0.550902	7.56037	13.668	-30.5503
  85	1	4	0.015704	8.27634	14.8055	-30.1929
  86	1	2	-0.456801	8.34274	16.2713	-28.3633
  87	1	2	-0.487703	7.72078	12.9537	-31.525
  88	1	1	-0.116566	9.4487	15.248	-30.872
  89	1	1	-0.050109	10.6987	14.6714	-30.5408
  90	1	1	0.154929	11.8682	15.1263	-31.1991
  91	1	1	0.041555	9.36695	16.2729	-31.8381
  92	1	1	-0.223109	10.5328	16.6984	-32.4942
  93	1	1	-0.080449	11.781	16.1328	-32.1881
  94	1	5	-0.108008	8.03964	16.9414	-32.1746
  95	1	5	-0.182228	13.0198	16.6356	-32.9243
  96	1	5	-0.345523	10.7647	13.5903	-29.45
  97	1	7	0.155183	7.56516	12.6104	-25.2621
  98	1	7	0.172904	4.56887	15.232	-23.4728
  99	1	7	0.158028	6.37509	16.5189	-22.3745
 100	1	7	0.153129	5.73274	11.4821	-29.8472
 101	1	7	0.142914	4.63263	11.3341	-27.6301
 102	1	7	0.135531	6.38577	15.1741	-26.529
 103	1	7	0.17765	10.4676	17.4839	-33.2421
 104	1	9	0.046541	8.17034	17.7689	-32.8831
 105	1	9	0.045238	7.56996	17.3579	-31.2746
 106	1	9	0.051941	7.34124	16.2264	-32.6264
 107	1	9	0.087961	13.5313	15.8172	-33.4483
 108	1	9	0.066782	13.7336	17.0971	-32.2297
 109	1	9	0.075908	12.7665	17.3901	-33.6796
 110	1	9	0.105172	11.7259	13.0683	-29.3967
 111	1	9	0.115625	10.0175	12.8043	-29.6143
 112	1	9	0.140296	10.5851	14.027	-28.4572
 113	1	1	-0.004194	17.8456	10.3318	-18.1144
 114	1	1	-0.097141	18.9485	10.1849	-18.9976
 115	1	1	-0.172015	20.1892	9.73985	-18.4543
 116	1	2	-0.377994	15.8153	10.2393	-15.7718
 117	1	1	0.033493	17.999	9.98377	-16.7684
 118	1	1	-0.063739	20.3174	9.38361	-17.0969
 119	1	2	-0.398381	19.8037	8.46849	-14.1817
 120	1	1	0.032144	19.1914	9.49234	-16.2808
 121	1	3	0.032313	16.9829	9.89731	-15.691
 122	1	4	0.461698	17.636	9.27872	-14.6238
 123	1	3	0.091945	18.981	9.02825	-14.8877
 124	1	1	-0.10563	17.5373	14.0595	-20.1317
 125	1	5	-0.099376	18.7114	10.3655	-20.5294
 126	1	1	-0.043296	17.9691	11.7081	-20.7815
 127	1	1	-0.073043	18.2221	12.8386	-19.9523
 128	1	1	-0.117827	16.6171	14.1455	-21.1818
 129	1	1	-0.037562	17.064	11.8592	-21.863
 130	1	1	-0.083705	16.4089	13.0804	-22.0321
 131	1	5	0.396	17.8641	9.10513	-20.9758
 132	1	5	0.310495	20.0363	10.4257	-21.377
 133	1	6	-0.130298	16.5798	9.19353	-20.5598
 134	1	6	-0.128745	18.3567	7.96214	-20.4453
 135	1	6	-0.120019	17.8289	8.90967	-22.3129
 136	1	6	-0.104287	20.7014	9.24921	-21.394
 137	1	6	-0.095507	20.8812	11.3693	-20.904
 138	1	6	-0.104872	19.8003	10.7483	-22.6696
 139	1	3	0.456145	15.382	13.4671	-23.0292
 140	1	3	0.550902	15.706	15.2489	-21.5948
 141	1	4	0.015704	14.9952	14.7526	-22.6804
 142	1	2	-0.456801	14.9497	12.7647	-23.9271
 143	1	2	-0.487703	15.5901	16.3326	-21.049
 144	1	1	-0.116566	13.9187	15.4297	-23.3169
 145	1	1	-0.050109	12.5827	15.1085	-22.9733
 146	1	1	0.154929	11.5246	15.6862	-23.7132
 147	1	1	0.041555	14.1889	16.3422	-24.3603
 148	1	1	-0.223109	13.1247	16.9227	-25.0656
 149	1	1	-0.080449	11.7956	16.5934	-24.7634
 150	1	5	-0.108008	15.6128	16.6703	-24.793
 151	1	5	-0.182228	10.6807	17.1977	-25.6148
 152	1	5	-0.345523	12.2624	14.1012	-21.8583
 153	1	7	0.155183	16.8668	10.6441	-18.471
 154	1	7	0.172904	21.0655	9.60248	-19.0776
 155	1	7	0.158028	21.2469	8.98023	-16.7009
 156	1	7	0.153129	17.7089	14.9081	-19.4717
 157	1	7	0.142914	18.9485	12.7716	-19.1466
 158	1	7	0.135531	16.8473	11.0593	-22.5621
 159	1	7	0.17765	13.3353	17.6022	-25.888
 160	1	9	0.046541	16.013	15.8736	-25.4305
 161	1	9	0.045238	16.2853	16.7942	-23.9361
 162	1	9	0.051941	15.6513	17.6043	-25.367
 163	1	9	0.087961	11.0771	17.6914	-26.5112
 164	1	9	0.066782	10.1166	17.9498	-25.048
 165	1	9	0.075908	9.97408	16.4361	-25.9685
 166	1	9	0.105172	11.4917	14.4926	-21.1812
 167	1	9	0.115625	13.1188	13.8571	-21.2211
 168	1	9	0.140296	11.8955	13.1553	-22.281
 169	1	1	-0.004194	10.9213	1.56311	-10.8491
 170	1	1	-0.097141	11.2337	0.760278	-11.9778
 171	1	1	-0.172015	11.844	-0.507691	-11.7561
 172	1	2	-0.377994	10.7482	2.93836	-8.0837
 173	1	1	0.033493	11.2937	1.12315	-9.57765
 174	1	1	-0.063739	12.2072	-0.933824	-10.4612
 175	1	2	-0.398381	12.9519	-1.10366	-7.44854
 176	1	1	0.032144	11.9376	-0.0811155	-9.38891
 177	1	3	0.032313	11.2294	1.83443	-8.27889
 178	1	4	0.461698	11.9065	1.00697	-7.38247
 179	1	3	0.091945	12.3313	-0.187159	-7.96227
 180	1	1	-0.10563	11.0971	5.20443	-13.9075
 181	1	5	-0.099376	10.9298	1.32529	-13.3967
 182	1	1	-0.043296	11.4218	2.80445	-13.4088
 183	1	1	-0.073043	10.6576	3.86743	-13.9697
 184	1	1	-0.117827	12.3194	5.46719	-13.2836
 185	1	1	-0.037562	12.6854	3.11537	-12.8345
 186	1	1	-0.083705	13.1008	4.45143	-12.7755
 187	1	5	0.396	9.37545	1.16578	-13.6178
 188	1	5	0.310495	11.6972	0.587611	-14.5601
 189	1	6	-0.130298	8.95992	-0.0891902	-13.3332
 190	1	6	-0.128745	8.98355	1.42263	-14.8864
 191	1	6	-0.120019	8.66725	1.98689	-12.8094
 192	1	6	-0.104287	13.0225	0.490918	-14.3086
 193	1	6	-0.095507	11.5881	1.25682	-15.7304
 194	1	6	-0.104872	11.2413	-0.664972	-14.7888
 195	1	3	0.456145	14.3638	5.05162	-12.2598
 196	1	3	0.550902	13.044	6.74977	-13.0999
 197	1	4	0.015704	14.2608	6.41355	-12.5196
 198	1	2	-0.456801	15.3081	4.44651	-11.7825
 199	1	2	-0.487703	12.6589	7.84768	-13.4644
 200	1	1	-0.116566	15.3258	7.35386	-12.3838
 201	1	1	-0.050109	16.0305	7.76055	-13.542
 202	1	1	0.154929	16.9704	8.82057	-13.4529
 203	1	1	0.041555	15.6164	7.93752	-11.1318
 204	1	1	-0.223109	16.5805	8.9552	-11.0526
 205	1	1	-0.080449	17.2406	9.42168	-12.2011
 206	1	5	-0.108008	14.9101	7.49639	-9.855
 207	1	5	-0.182228	18.2347	10.5712	-12.0557
 208	1	5	-0.345523	15.7367	7.05969	-14.8797
 209	1	7	0.155183	10.4585	2.54172	-10.9531
 210	1	7	0.172904	12.081	-1.17082	-12.5815
 211	1	7	0.158028	12.7212	-1.87842	-10.2961
 212	1	7	0.153129	10.5086	6.01355	-14.3365
 213	1	7	0.142914	9.70844	3.68086	-14.459
 214	1	7	0.135531	13.3286	2.33909	-12.4256
 215	1	7	0.17765	16.8017	9.40345	-10.0874
 216	1	9	0.046541	13.8353	7.34695	-10.0122
 217	1	9	0.045238	15.017	8.24368	-9.05863
 218	1	9	0.051941	15.3352	6.55513	-9.4842
 219	1	9	0.087961	18.0715	11.3483	-12.8132
 220	1	9	0.066782	19.2682	10.2136	-12.1491
 221	1	9	0.075908	18.1481	11.0587	-11.0766
 222	1	9	0.105172	14.8332	7.47869	-15.3445
 223	1	9	0.115625	15.5818	5.98128	-14.7507
 224	1	9	0.140296	16.5485	7.14566	-15.6103
 225	1	1	-0.004194	13.8231	9.03217	0.0368243
 226	1	1	-0.097141	15.076	9.25051	-0.607387
 227	1	1	-0.172015	16.2363	8.8122	0.104738
 228	1	2	-0.377994	11.4373	8.10785	1.77802
 229	1	1	0.033493	13.7811	8.39653	1.28334
 230	1	1	-0.063739	16.1744	8.20795	1.37763
 231	1	2	-0.398381	15.2842	6.75373	3.99421
 232	1	1	0.032144	14.9203	7.99205	1.94138
 233	1	3	0.032313	12.6098	7.93656	2.06625
 234	1	4	0.461698	13.1407	7.25289	3.15968
 235	1	3	0.091945	14.5325	7.25859	3.1767
 236	1	1	-0.10563	16.834	6.38192	-3.37114
 237	1	5	-0.099376	15.1817	9.71569	-2.1081
 238	1	1	-0.043296	15.3874	8.35677	-2.87511
 239	1	1	-0.073043	16.6664	7.71796	-2.9424
 240	1	1	-0.117827	15.6982	5.665	-3.75162
 241	1	1	-0.037562	14.2799	7.58741	-3.32711
 242	1	1	-0.083705	14.4663	6.274	-3.75551
 243	1	5	0.396	16.389	10.7449	-2.35433
 244	1	5	0.310495	13.8863	10.5265	-2.61032
 245	1	6	-0.130298	17.6109	10.365	-1.93743
 246	1	6	-0.128745	16.2093	11.9274	-1.72618
 247	1	6	-0.120019	16.567	11.0112	-3.66769
 248	1	6	-0.104287	13.6687	11.6503	-1.8919
 249	1	6	-0.095507	12.699	9.89542	-2.54351
 250	1	6	-0.104872	13.9809	10.8925	-3.90794
 251	1	3	0.456145	13.4438	5.2674	-4.11507
 252	1	3	0.550902	15.5021	4.22307	-4.08433
 253	1	4	0.015704	14.1312	4.0743	-4.26619
 254	1	2	-0.456801	12.2414	5.45615	-4.17633
 255	1	2	-0.487703	16.362	3.3591	-4.0925
 256	1	1	-0.116566	13.4413	2.85181	-4.50633
 257	1	1	-0.050109	13.1593	2.45006	-5.8311
 258	1	1	0.154929	12.2405	1.39013	-6.05477
 259	1	1	0.041555	12.8827	2.15712	-3.41309
 260	1	1	-0.223109	11.9971	1.09572	-3.64851
 261	1	1	-0.080449	11.6454	0.725198	-4.95575
 262	1	5	-0.108008	13.1831	2.56818	-1.97575
 263	1	5	-0.182228	10.6144	-0.385277	-5.13895
 264	1	5	-0.345523	13.8172	3.20905	-6.99328
 265	1	7	0.155183	12.8678	9.27078	-0.405808
 266	1	7	0.172904	17.2219	8.86283	-0.33171
 267	1	7	0.158028	17.0707	7.85692	1.88403
 268	1	7	0.153129	17.8107	5.90169	-3.35005
 269	1	7	0.142914	17.5615	8.20897	-2.59402
 270	1	7	0.135531	13.2556	7.91687	-3.29086
 271	1	7	0.17765	11.5491	0.578934	-2.80415
 272	1	9	0.046541	14.2645	2.64001	-1.80385
 273	1	9	0.045238	12.7888	1.84145	-1.25502
 274	1	9	0.051941	12.734	3.54149	-1.74207
 275	1	9	0.087961	11.1037	-1.34381	-5.35596
 276	1	9	0.066782	9.91484	-0.165366	-5.9552
 277	1	9	0.075908	10.0084	-0.522981	-4.23443
 278	1	9	0.105172	13.8684	2.6262	-7.91989
 279	1	9	0.115625	14.8563	3.47872	-6.76703
 280	1	9	0.140296	13.2664	4.13403	-7.21427
 281	1	1	-0.004194	5.09535	-1.36802	6.84913
 282	1	1	-0.097141	5.02661	-0.242776	5.98649
 283	1	1	-0.172015	4.55601	0.986069	6.53443
 284	1	2	-0.377994	5.08343	-3.40218	9.15373
 285	1	1	0.033493	4.66941	-1.24159	8.17138
 286	1	1	-0.063739	4.12908	1.09069	7.88012
 287	1	2	-0.398381	3.41212	0.559874	10.898
 288	1	1	0.032144	4.18566	-0.0559949	8.68096
 289	1	3	0.032313	4.6676	-2.25929	9.24407
 290	1	4	0.461698	4.19215	-1.6003	10.3728
 291	1	3	0.091945	3.84432	-0.272182	10.1175
 292	1	1	-0.10563	7.00889	2.39771	2.27227
 293	1	5	-0.099376	5.2974	-0.357589	4.45217
 294	1	1	-0.043296	6.25702	0.775506	3.98434
 295	1	1	-0.073043	6.11801	1.40035	2.7108
 296	1	1	-0.117827	8.06554	2.74735	3.11438
 297	1	1	-0.037562	7.36716	1.13957	4.79253
 298	1	1	-0.083705	8.25582	2.12178	4.3278
 299	1	5	0.396	3.86997	-0.296234	3.77409
 300	1	5	0.310495	6.00518	-1.70351	4.03383
 301	1	6	-0.130298	3.35402	0.954125	3.79998
 302	1	6	-0.128745	2.98047	-1.08641	4.41881
 303	1	6	-0.120019	3.85837	-0.697939	2.48345
 304	1	6	-0.104287	5.21311	-2.78882	4.18699
 305	1	6	-0.095507	7.13365	-1.91541	4.74909
 306	1	6	-0.104872	6.38825	-1.6909	2.73629
 307	1	3	0.456145	9.41692	2.77149	4.99755
 308	1	3	0.550902	9.05599	3.8452	2.98732
 309	1	4	0.015704	9.77784	3.84057	4.17665
 310	1	2	-0.456801	9.85053	2.48962	6.10142
 311	1	2	-0.487703	9.09297	4.65836	2.08012
 312	1	1	-0.116566	10.5775	4.95481	4.59445
 313	1	1	-0.050109	11.6982	5.37895	3.83364
 314	1	1	0.154929	12.3067	6.62654	4.12584
 315	1	1	0.041555	10.1334	5.74944	5.68145
 316	1	1	-0.223109	10.8591	6.88949	6.05472
 317	1	1	-0.080449	11.9358	7.34418	5.28291
 318	1	5	-0.108008	8.84923	5.45597	6.4545
 319	1	5	-0.182228	12.6427	8.63204	5.69185
 320	1	5	-0.345523	12.2264	4.52799	2.67257
 321	1	7	0.155183	5.43993	-2.34425	6.52965
 322	1	7	0.172904	4.48433	1.86742	5.9002
 323	1	7	0.158028	3.75331	2.0276	8.28684
 324	1	7	0.153129	6.87176	2.89912	1.31543
 325	1	7	0.142914	5.31299	1.13146	2.0374
 326	1	7	0.135531	7.53311	0.681596	5.76476
 327	1	7	0.17765	10.5321	7.46882	6.91393
 328	1	9	0.046541	8.44038	6.36841	6.9052
 329	1	9	0.045238	9.03139	4.74146	7.26623
 330	1	9	0.051941	8.05961	5.0529	5.80909
 331	1	9	0.087961	12.299	8.98783	6.67151
 332	1	9	0.066782	12.465	9.43663	4.96769
 333	1	9	0.075908	13.7266	8.47611	5.7751
 334	1	9	0.105172	13.3111	4.63887	2.54439
 335	1	9	0.115625	11.7447	4.80231	1.7243
 336	1	9	0.140296	12.0596	3.45709	2.84125
 337	1	1	-0.004194	-4.56448	-8.50823	16.7647
 338	1	1	-0.097141	-3.22494	-8.03097	16.6784
 339	1	1	-0.172015	-2.53671	-7.78629	17.9024
 340	1	2	-0.377994	-7.32004	-9.67092	17.6053
 341	1	1	0.033493	-5.16165	-8.66794	18.0221
 342	1	1	-0.063739	-3.17048	-7.91557	19.1584
 343	1	2	-0.398381	-5.11439	-8.53507	21.5252
 344	1	1	0.032144	-4.49521	-8.35813	19.1884
 345	1	3	0.032313	-6.48859	-9.23209	18.3818
 346	1	4	0.461698	-6.5323	-9.21683	19.7766
 347	1	3	0.091945	-5.37758	-8.68252	20.3432
 348	1	1	-0.10563	-0.607277	-4.57035	16.0778
 349	1	5	-0.099376	-2.49185	-7.88493	15.2985
 350	1	1	-0.043296	-1.33134	-6.83424	15.3729
 351	1	1	-0.073043	-1.55548	-5.61074	16.066
 352	1	1	-0.117827	0.560816	-4.7408	15.3328
 353	1	1	-0.037562	-0.116344	-6.9646	14.6362
 354	1	1	-0.083705	0.797057	-5.89785	14.6212
 355	1	5	0.396	-3.4558	-7.33879	14.1733
 356	1	5	0.310495	-1.98709	-9.3266	14.9097
 357	1	6	-0.130298	-2.77496	-6.94273	13.0729
 358	1	6	-0.128745	-4.14552	-6.25925	14.6068
 359	1	6	-0.120019	-4.36394	-8.24112	13.7422
 360	1	6	-0.104287	-0.96738	-9.71142	15.7093
 361	1	6	-0.095507	-1.56679	-9.42474	13.6285
 362	1	6	-0.104872	-2.95362	-10.2625	15.049
 363	1	3	0.456145	2.03445	-5.6893	13.8092
 364	1	3	0.550902	1.63636	-3.76643	15.0195
 365	1	4	0.015704	2.4454	-4.3864	14.0789
 366	1	2	-0.456801	2.50849	-6.47179	13.0044
 367	1	2	-0.487703	1.71506	-2.62696	15.4462
 368	1	1	-0.116566	3.51055	-3.69234	13.4253
 369	1	1	-0.050109	3.27155	-2.9895	12.2172
 370	1	1	0.154929	4.30394	-2.18731	11.6632
 371	1	1	0.041555	4.77469	-3.62216	14.0486
 372	1	1	-0.223109	5.76724	-2.78722	13.5144
 373	1	1	-0.080449	5.53844	-2.05548	12.3404
 374	1	5	-0.108008	5.08639	-4.42999	15.3018
 375	1	5	-0.182228	6.64613	-1.14405	11.8137
 376	1	5	-0.345523	1.90268	-3.11855	11.5391
 377	1	7	0.155183	-5.13755	-8.80129	15.892
 378	1	7	0.172904	-1.48831	-7.49838	17.8916
 379	1	7	0.158028	-2.63913	-7.71594	20.0863
 380	1	7	0.153129	-0.802533	-3.63258	16.5944
 381	1	7	0.142914	-2.4972	-5.4468	16.583
 382	1	7	0.135531	0.10793	-7.83179	14.0257
 383	1	7	0.17765	6.72809	-2.71038	14.0159
 384	1	9	0.046541	4.86842	-5.49402	15.144
 385	1	9	0.045238	4.49565	-4.08055	16.1568
 386	1	9	0.051941	6.14594	-4.35688	15.577
 387	1	9	0.087961	6.97815	-1.44509	10.8118
 388	1	9	0.066782	7.52924	-1.15781	12.4641
 389	1	9	0.075908	6.30398	-0.101396	11.7617
 390	1	9	0.105172	1.79774	-2.51066	10.6338
 391	1	9	0.115625	1.0983	-2.80339	12.2163
 392	1	9	0.140296	1.71101	-4.16053	11.2475
 393	1	1	-0.004194	-19.3629	-8.1832	19.7459
 394	1	1	-0.097141	-18.0042	-8.60415	19.6792
 395	1	1	-0.172015	-17.7165	-9.99026	19.815
 396	1	2	-0.377994	-22.4749	-7.96748	19.7598
 397	1	1	0.033493	-20.3672	-9.1483	19.9082
 398	1	1	-0.063739	-18.7406	-10.9465	19.9446
 399	1	2	-0.398381	-21.3758	-12.4823	19.7437
 400	1	1	0.032144	-20.059	-10.4908	19.9699
 401	1	3	0.032313	-21.8498	-9.01355	19.8104
 402	1	4	0.461698	-22.327	-10.3237	19.6998
 403	1	3	0.091945	-21.3097	-11.2683	19.8497
 404	1	1	-0.10563	-14.5433	-8.09081	22.3955
 405	1	5	-0.099376	-16.8438	-7.6491	19.2802
 406	1	1	-0.043296	-15.5892	-7.98854	20.1451
 407	1	1	-0.073043	-15.6733	-7.91465	21.5659
 408	1	1	-0.117827	-13.3189	-8.38144	21.7839
 409	1	1	-0.037562	-14.3343	-8.3264	19.575
 410	1	1	-0.083705	-13.2364	-8.52068	20.4156
 411	1	5	0.396	-17.1562	-6.1199	19.532
 412	1	5	0.310495	-16.6184	-7.86086	17.7279
 413	1	6	-0.130298	-17.6593	-5.8975	20.7666
 414	1	6	-0.128745	-18.0461	-5.59251	18.6624
 415	1	6	-0.120019	-16.0359	-5.36767	19.4352
 416	1	6	-0.104287	-17.7549	-7.67271	17.0194
 417	1	6	-0.095507	-16.2225	-9.11997	17.4298
 418	1	6	-0.104872	-15.6949	-7.01787	17.2122
 419	1	3	0.456145	-11.8607	-8.94026	20.0684
 420	1	3	0.550902	-11.9738	-8.67818	22.3603
 421	1	4	0.015704	-11.1821	-9.04107	21.2746
 422	1	2	-0.456801	-11.477	-9.27057	18.9598
 423	1	2	-0.487703	-11.6834	-8.69229	23.5443
 424	1	1	-0.116566	-9.90575	-9.67259	21.3399
 425	1	1	-0.050109	-8.76068	-9.02629	20.8123
 426	1	1	0.154929	-7.60209	-9.79015	20.5227
 427	1	1	0.041555	-9.84978	-11.0375	21.6996
 428	1	1	-0.223109	-8.66161	-11.7538	21.5021
 429	1	1	-0.080449	-7.55347	-11.1595	20.8799
 430	1	5	-0.108008	-11.0599	-11.7801	22.2626
 431	1	5	-0.182228	-6.33659	-12.0401	20.6084
 432	1	5	-0.345523	-8.78128	-7.52128	20.5238
 433	1	7	0.155183	-19.6634	-7.1524	19.5926
 434	1	7	0.172904	-16.6919	-10.3466	19.73
 435	1	7	0.158028	-18.5267	-12.0136	19.9494
 436	1	7	0.153129	-14.6192	-8.01237	23.4785
 437	1	7	0.142914	-16.6271	-7.70183	22.0402
 438	1	7	0.135531	-14.1751	-8.43848	18.5086
 439	1	7	0.17765	-8.62279	-12.804	21.7783
 440	1	9	0.046541	-11.9885	-11.5171	21.7419
 441	1	9	0.045238	-11.1921	-11.5534	23.3282
 442	1	9	0.051941	-10.9453	-12.8666	22.1678
 443	1	9	0.087961	-6.63524	-13.0841	20.4476
 444	1	9	0.066782	-5.64763	-12.0216	21.4624
 445	1	9	0.075908	-5.77883	-11.7374	19.7146
 446	1	9	0.105172	-9.59247	-7.00405	21.0502
 447	1	9	0.115625	-8.89435	-7.31865	19.4509
 448	1	9	0.140296	-7.85736	-7.03905	20.872
 449	1	1	-0.004194	-31.2203	-18.285	21.5071
 450	1	1	-0.097141	-30.7585	-18.7872	20.2602
 451	1	1	-0.172015	-30.6191	-20.2005	20.122
 452	1	2	-0.377994	-32.2807	-17.8299	24.3961
 453	1	1	0.033493	-31.5879	-19.1818	22.5131
 454	1	1	-0.063739	-30.9572	-21.0852	21.1645
 455	1	2	-0.398381	-31.8309	-22.4166	23.8214
 456	1	1	0.032144	-31.464	-20.5438	22.3444
 457	1	3	0.032313	-32.0692	-18.9205	23.8928
 458	1	4	0.461698	-32.1827	-20.1813	24.4757
 459	1	3	0.091945	-31.8613	-21.2166	23.6017
 460	1	1	-0.10563	-26.8226	-17.0432	20.482
 461	1	5	-0.099376	-30.3799	-17.7792	19.1306
 462	1	1	-0.043296	-29.157	-16.9721	19.6507
 463	1	1	-0.073043	-28.0438	-17.6819	20.1865
 464	1	1	-0.117827	-26.7422	-15.6629	20.2789
 465	1	1	-0.037562	-29.0491	-15.5649	19.5143
 466	1	1	-0.083705	-27.84	-14.945	19.8515
 467	1	5	0.396	-31.6625	-16.8975	18.81
 468	1	5	0.310495	-29.9364	-18.4768	17.7771
 469	1	6	-0.130298	-31.999	-16.0601	19.8149
 470	1	6	-0.128745	-32.7463	-17.6759	18.5919
 471	1	6	-0.120019	-31.5329	-16.1081	17.7203
 472	1	6	-0.104287	-29.5913	-17.5849	16.8219
 473	1	6	-0.095507	-30.9115	-19.2558	17.2551
 474	1	6	-0.104872	-28.8418	-19.2588	17.9155
 475	1	3	0.456145	-27.4064	-13.5538	19.5844
 476	1	3	0.550902	-25.5524	-14.7658	20.2411
 477	1	4	0.015704	-26.0246	-13.5564	19.7408
 478	1	2	-0.456801	-28.1067	-12.6717	19.1177
 479	1	2	-0.487703	-24.3963	-15.1139	20.4072
 480	1	1	-0.116566	-25.2091	-12.5612	19.122
 481	1	1	-0.050109	-24.3678	-11.69	19.8582
 482	1	1	0.154929	-23.5851	-10.7321	19.1599
 483	1	1	0.041555	-25.2433	-12.4745	17.7108
 484	1	1	-0.223109	-24.6505	-11.3807	17.0743
 485	1	1	-0.080449	-23.8469	-10.4847	17.7883
 486	1	5	-0.108008	-25.8964	-13.541	16.8338
 487	1	5	-0.182228	-23.2487	-9.30947	17.021
 488	1	5	-0.345523	-24.2505	-11.8034	21.381
 489	1	7	0.155183	-31.2867	-17.2223	21.7168
 490	1	7	0.172904	-30.2391	-20.6519	19.2132
 491	1	7	0.158028	-30.8257	-22.1606	21.065
 492	1	7	0.153129	-25.9467	-17.6132	20.787
 493	1	7	0.142914	-28.0928	-18.7618	20.2973
 494	1	7	0.135531	-29.8371	-14.956	19.0835
 495	1	7	0.17765	-24.7728	-11.2629	16.001
 496	1	9	0.046541	-26.9579	-13.3285	16.663
 497	1	9	0.045238	-25.8089	-14.5425	17.2738
 498	1	9	0.051941	-25.4038	-13.596	15.8549
 499	1	9	0.087961	-23.6326	-9.2572	15.9945
 500	1	9	0.066782	-22.1556	-9.35882	16.9654
 501	1	9	0.075908	-23.5315	-8.35889	17.4924
 502	1	9	0.105172	-24.1617	-10.8119	21.8446
 503	1	9	0.115625	-23.3728	-12.3964	21.671
 504	1	9	0.140296	-25.1284	-12.2731	21.8385
 505	1	1	-0.004194	-40.2531	-17.2992	33.0175
 506	1	1	-0.097141	-39.7889	-18.4898	33.6384
 507	1	1	-0.172015	-40.6784	-19.1753	34.5183
 508	1	2	-0.377994	-41.6748	-14.6052	32.3103
 509	1	1	0.033493	-41.4982	-16.7781	33.3861
 510	1	1	-0.063739	-41.9489	-18.657	34.8426
 511	1	2	-0.398381	-44.4169	-16.804	35.3429
 512	1	1	0.032144	-42.3185	-17.4312	34.2886
 513	1	3	0.032313	-42.1192	-15.47	33.0451
 514	1	4	0.461698	-43.2837	-15.4461	33.798
 515	1	3	0.091945	-43.5013	-16.5761	34.5707
 516	1	1	-0.10563	-38.4136	-20.6727	30.035
 517	1	5	-0.099376	-38.2891	-18.8884	33.4698
 518	1	1	-0.043296	-37.9921	-19.1839	31.972
 519	1	1	-0.073043	-38.8178	-20.1032	31.2639
 520	1	1	-0.117827	-37.1863	-20.2684	29.4957
 521	1	1	-0.037562	-36.8003	-18.7408	31.3466
 522	1	1	-0.083705	-36.4404	-19.2869	30.1125
 523	1	5	0.396	-37.8798	-20.2035	34.2521
 524	1	5	0.310495	-37.4383	-17.6919	34.0766
 525	1	6	-0.130298	-36.6036	-20.5716	33.9943
 526	1	6	-0.128745	-38.6286	-21.2743	33.9019
 527	1	6	-0.120019	-37.9846	-20.0708	35.5938
 528	1	6	-0.104287	-37.4573	-16.5847	33.3012
 529	1	6	-0.095507	-36.1326	-17.9847	34.269
 530	1	6	-0.104872	-37.9201	-17.3106	35.2819
 531	1	3	0.456145	-35.1566	-19.152	29.3929
 532	1	3	0.550902	-36.3634	-20.8452	28.3883
 533	1	4	0.015704	-35.1501	-20.1641	28.4413
 534	1	2	-0.456801	-34.2476	-18.3999	29.701
 535	1	2	-0.487703	-36.652	-21.8166	27.7099
 536	1	1	-0.116566	-33.9399	-20.5303	27.7756
 537	1	1	-0.050109	-33.7449	-20.2798	26.3953
 538	1	1	0.154929	-32.4365	-20.3978	25.8549
 539	1	1	0.041555	-32.8699	-21.0087	28.5679
 540	1	1	-0.223109	-31.5808	-21.0761	28.0276
 541	1	1	-0.080449	-31.3446	-20.7361	26.6903
 542	1	5	-0.108008	-33.0626	-21.441	30.0191
 543	1	5	-0.182228	-29.9017	-20.7417	26.186
 544	1	5	-0.345523	-34.9473	-19.9288	25.5083
 545	1	7	0.155183	-39.6332	-16.7309	32.3305
 546	1	7	0.172904	-40.3894	-20.0915	35.0208
 547	1	7	0.158028	-42.6009	-19.1568	35.5558
 548	1	7	0.153129	-38.9951	-21.4617	29.5616
 549	1	7	0.142914	-39.7334	-20.467	31.7233
 550	1	7	0.135531	-36.0943	-18.0746	31.8303
 551	1	7	0.17765	-30.7539	-21.3766	28.6653
 552	1	9	0.046541	-32.9795	-20.5894	30.7048
 553	1	9	0.045238	-32.3076	-22.1795	30.3154
 554	1	9	0.051941	-34.0407	-21.9137	30.1733
 555	1	9	0.087961	-29.2035	-21.0872	26.9585
 556	1	9	0.066782	-29.5848	-19.7314	25.8948
 557	1	9	0.075908	-29.7673	-21.4052	25.3236
 558	1	9	0.105172	-35.6752	-19.2942	26.0261
 559	1	9	0.115625	-35.4722	-20.8455	25.204
 560	1	9	0.140296	-34.6803	-19.3833	24.5966
 561	1	7	0	23.0112	5.21756	-23.465
 562	1	8	0	-43.9115	-14.6513	33.8067

Velocities

   1	0.000251265	0.000139996	5.69434e-05
   2	0.000209142	0.000131949	5.47821e-05
   3	0.000292763	0.000216273	-4.087e-05
   4	0.000641916	0.000564601	-0.000122403
   5	0.000352396	0.000282372	-2.58102e-05
   6	0.000277272	0.000242856	-2.28241e-05
   7	0.000279797	0.000486734	-2.62792e-05
   8	0.000306917	0.000282552	-1.67034e-05
   9	0.000433869	0.000390259	-4.41347e-06
  10	0.000319254	0.000348198	0.000109285
  11	0.000291343	0.000380522	2.89407e-05
  12	-0.00049916	-0.000452056	-0.000351445
  13	-5.33496e-05	-0.000131426	0.000492146
  14	-0.000383692	-0.000210979	0.000445338
  15	-0.000499833	-0.000387169	-0.000269428
  16	-0.000481828	-0.000290461	0.00023511
  17	-0.00036117	-5.76859e-05	0.000913581
  18	-0.000522776	-8.41163e-05	0.00072735
  19	-0.000392782	-0.000382222	0.000645625
  20	0.000556148	-0.000257257	0.0010357
  21	-0.000675034	-0.0005164	0.000212314
  22	-0.000208069	-0.000341536	0.000799601
  23	-0.000653936	-0.000606181	0.00100777
  24	0.00100698	-0.000276919	0.000722846
  25	0.00101172	-0.000386377	0.00131028
  26	0.000266684	-0.000286244	0.00164925
  27	-0.0002974	0.000110653	0.000647817
  28	-0.00016965	-5.98779e-05	-5.90845e-05
  29	-0.000412561	-0.000393405	5.80527e-06
  30	-0.000689757	9.99801e-05	0.000923474
  31	-0.000281963	-0.000414423	-0.000152286
  32	-0.000290493	-0.000269032	-0.000163596
  33	0.000134893	7.6673e-05	-0.000154341
  34	-2.00124e-05	0.000243421	-0.000145733
  35	-0.000687791	-0.000423008	-0.000521813
  36	-0.000594111	-0.000305034	-0.000427225
  37	-0.00012695	4.41932e-05	-0.000254461
  38	-0.00103293	-0.000559956	-0.000773793
  39	0.000490897	0.000744192	4.1505e-05
  40	0.000571496	0.000910113	3.42928e-05
  41	0.000180809	2.24875e-05	0.000164169
  42	0.000294577	0.000209888	-4.32801e-05
  43	0.000209989	0.000221913	7.9289e-06
  44	-0.000518761	-0.000668395	-0.000995145
  45	-0.000520929	-0.000545413	-0.000925751
  46	-0.000392232	1.01327e-05	0.00137613
  47	-0.000787354	-0.000272872	-0.000632012
  48	-0.00103904	-0.000604149	-0.00117462
  49	-0.000988625	-0.000628784	-0.000843036
  50	-0.00114471	-0.00062124	-0.000734792
  51	0.000313501	0.00165823	-3.82249e-05
  52	0.000941205	0.000554829	0.000127138
  53	0.000726898	0.000841897	0.000233729
  54	6.59181e-05	0.00190875	-8.05923e-05
  55	0.00183536	0.00110588	0.000171215
  56	0.000420965	0.000381866	-6.00038e-05
  57	-0.000152899	1.2389e-05	-0.000554161
  58	-0.000165525	-0.000112169	-6.8966e-05
  59	-1.78155e-05	-0.000414241	0.000344341
  60	-6.95915e-05	0.000610885	-0.00161813
  61	-1.17391e-05	3.21033e-05	-0.000744298
  62	9.31488e-05	-0.000462555	0.000202362
  63	5.48605e-05	-0.000198343	-0.000397836
  64	7.47315e-05	-0.000197207	-0.000382285
  65	-2.72768e-05	0.000280853	-0.00113798
  66	4.20875e-05	8.11966e-05	-0.00080331
  67	7.29178e-05	-0.000123909	-0.000519693
  68	-0.000269227	0.000141313	7.83235e-05
  69	-0.000435206	0.000193852	4.98139e-06
  70	-0.000579821	0.000278791	-4.61544e-05
  71	-0.000321991	0.000142595	3.47414e-05
  72	-0.000310375	0.000155581	9.2862e-05
  73	-0.000764178	0.000393504	-0.000105632
  74	-0.000529259	0.000289526	-1.27417e-06
  75	-0.000320417	0.000459419	0.000226959
  76	-0.000731428	0.000204191	-8.90437e-05
  77	-0.000110931	0.000575726	0.000796335
  78	-0.000433568	7.27646e-05	0.000134454
  79	-0.000327671	0.000963661	-5.24077e-05
  80	-0.000962135	0.000164524	-0.000119393
  81	-0.000779487	7.5628e-05	8.07086e-05
  82	-0.000759189	0.000415426	-0.000302507
  83	-0.000156046	1.16154e-05	0.000214388
  84	0.000191194	-0.000233714	0.000413306
  85	0.000242995	-0.000306976	0.000475784
  86	-0.000258622	8.27513e-05	0.000187599
  87	0.000427621	-0.000436367	0.000590714