pySIMM System Object

618 atoms
672 bonds
1188 angles
1756 dihedrals
176 impropers

9 atom types
11 bond types
18 angle types
7 dihedral types
4 improper types

-132.364107 132.364107 xlo xhi
-132.364107 132.364107 ylo yhi
-132.364107 132.364107 zlo zhi

Masses

   1	12.01	# ca
   2	16.0	# o
   3	12.01	# c
   4	14.01	# n
   5	12.01	# c3
   6	19.0	# f
   7	1.008	# ha
   8	1.008	# hn
   9	1.008	# hc

Pair Coeffs

   1	0.086	3.3996695084235347	# ca
   2	0.21	2.959921901149463	# o
   3	0.086	3.3996695084235347	# c
   4	0.17	3.249998523775958	# n
   5	0.1094	3.3996695084235347	# c3
   6	0.061	3.1181455134911875	# f
   7	0.015	2.59964245953351	# ha
   8	0.0157	1.069078461768407	# hn
   9	0.0157	2.649532787749369	# hc

Bond Coeffs

   1	321.0	1.5156	# c3,ca
   2	300.9	1.5375	# c3,c3
   3	384.2	1.4121	# ca,n
   4	330.6	1.0969	# c3,hc
   5	637.7	1.2183	# c,o
   6	403.2	1.0129	# hn,n
   7	356.9	1.3497	# c3,f
   8	461.1	1.3984	# ca,ca
   9	427.6	1.3789	# c,n
  10	345.9	1.4906	# c,ca
  11	345.8	1.086	# ca,ha

Angle Coeffs

   1	70.89	107.36	# f,c3,f
   2	68.72	122.6	# ca,c,o
   3	67.87	120.19	# ca,ca,n
   4	67.68	115.25	# ca,c,n
   5	46.8	110.47	# ca,c3,hc
   6	74.22	123.05	# n,c,o
   7	48.33	117.55	# c,n,hn
   8	63.56	112.24	# ca,c3,ca
   9	62.86	111.51	# c3,c3,c3
  10	66.11	109.24	# c3,c3,f
  11	64.28	120.33	# c,ca,ca
  12	66.62	120.02	# ca,ca,ca
  13	63.74	127.08	# c,n,c
  14	39.4	107.58	# hc,c3,hc
  15	48.18	119.88	# ca,ca,ha
  16	63.15	112.07	# c3,c3,ca
  17	63.53	120.77	# c3,ca,ca
  18	63.82	123.71	# c,n,ca

Dihedral Coeffs

   1	2	2.5	2	180	2.0	1	0	# hn,n,c,o
   2	1	3.625	2	180	# X,ca,ca,X
   3	1	0.0	2	0	# X,c3,ca,X
   4	1	1.0	2	180	# X,c,ca,X
   5	1	0.15555555555555556	3	0	# X,c3,c3,X
   6	1	2.5	2	180	# X,c,n,X
   7	1	0.45	2	180	# X,ca,n,X

Improper Coeffs

   1	1.1	-1	2	# n,X,X,hn
   2	1.1	-1	2	# ca,ca,ca,c3
   3	1.1	-1	2	# ca,X,X,ha
   4	10.5	-1	2	# c,X,X,o

Atoms

   1	1	1	-0.004194	-39.0383	-5.99532	-26.3265
   2	1	1	-0.097141	-38.823	-5.28645	-27.5375
   3	1	1	-0.172015	-38.5011	-6.03151	-28.7073
   4	1	2	-0.377994	-39.1963	-8.04698	-24.0226
   5	1	1	0.033493	-38.8998	-7.38445	-26.3247
   6	1	1	-0.063739	-38.366	-7.43584	-28.6817
   7	1	2	-0.398381	-38.0965	-10.4314	-27.8504
   8	1	1	0.032144	-38.5721	-8.08924	-27.4645
   9	1	3	0.032313	-38.9759	-8.33042	-25.188
  10	1	4	0.461698	-38.6544	-9.5701	-25.7321
  11	1	3	0.091945	-38.4262	-9.52335	-27.1055
  12	1	1	-0.10563	-35.3608	-3.06093	-28.871
  13	1	5	-0.099376	-38.981	-3.74152	-27.6386
  14	1	1	-0.043296	-37.8059	-3.16821	-28.4833
  15	1	1	-0.073043	-36.4834	-3.63928	-28.2437
  16	1	1	-0.117827	-35.5796	-1.99358	-29.7471
  17	1	1	-0.037562	-37.981	-2.09565	-29.3965
  18	1	1	-0.083705	-36.8542	-1.53666	-30.0089
  19	1	5	0.396	-38.8973	-3.00354	-26.2454
  20	1	5	0.310495	-40.4025	-3.49316	-28.2738
  21	1	6	-0.130298	-37.8085	-3.39048	-25.5417
  22	1	6	-0.128745	-39.9771	-3.21591	-25.46
  23	1	6	-0.120019	-38.7899	-1.66312	-26.3928
  24	1	6	-0.104287	-41.3563	-4.22685	-27.6553
  25	1	6	-0.095507	-40.4348	-3.85139	-29.5774
  26	1	6	-0.104872	-40.8085	-2.20579	-28.2009
  27	1	3	0.456145	-36.7498	-0.346936	-30.8919
  28	1	3	0.550902	-34.6144	-1.10016	-30.4446
  29	1	4	0.015704	-35.3893	-0.13051	-31.0688
  30	1	2	-0.456801	-37.6807	0.322902	-31.3053
  31	1	2	-0.487703	-33.3988	-1.18376	-30.4016
  32	1	1	-0.116566	-34.8528	1.01566	-31.7256
  33	1	1	-0.050109	-34.8505	2.26505	-31.0624
  34	1	1	0.154929	-34.3279	3.39673	-31.7172
  35	1	1	0.041555	-34.3241	0.908804	-33.0318
  36	1	1	-0.223109	-33.803	2.05051	-33.6665
  37	1	1	-0.080449	-33.803	3.29504	-33.017
  38	1	5	-0.108008	-34.306	-0.422588	-33.7712
  39	1	5	-0.182228	-33.2425	4.51776	-33.7263
  40	1	5	-0.345523	-35.4018	2.41001	-29.6446
  41	1	7	0.155183	-39.2942	-5.50959	-25.3915
  42	1	7	0.172904	-38.348	-5.51521	-29.653
  43	1	7	0.158028	-38.0974	-7.99984	-29.5725
  44	1	7	0.153129	-34.3505	-3.39836	-28.6463
  45	1	7	0.142914	-36.3153	-4.43753	-27.5252
  46	1	7	0.135531	-38.9491	-1.65147	-29.6
  47	1	7	0.17765	-33.3959	1.97192	-34.6706
  48	1	9	0.046541	-35.3045	-0.876221	-33.7948
  49	1	9	0.045238	-33.6197	-1.12875	-33.2875
  50	1	9	0.051941	-33.9762	-0.304222	-34.8107
  51	1	9	0.087961	-33.9453	4.88366	-34.485
  52	1	9	0.066782	-32.2953	4.28424	-34.2281
  53	1	9	0.075908	-33.0501	5.33949	-33.025
  54	1	9	0.105172	-34.8965	1.72958	-28.9478
  55	1	9	0.115625	-36.4787	2.19983	-29.6143
  56	1	9	0.140296	-35.2646	3.42855	-29.2595
  57	1	1	-0.004194	-30.2936	-7.96407	-20.9109
  58	1	1	-0.097141	-30.6376	-9.05589	-20.0531
  59	1	1	-0.172015	-31.3539	-8.73091	-18.8596
  60	1	2	-0.377994	-29.5676	-5.17057	-22.1512
  61	1	1	0.033493	-30.6229	-6.65022	-20.5408
  62	1	1	-0.063739	-31.7189	-7.41238	-18.5302
  63	1	2	-0.398381	-32.0663	-4.35302	-18.3269
  64	1	1	0.032144	-31.3346	-6.39026	-19.3909
  65	1	3	0.032313	-30.2515	-5.34025	-21.1556
  66	1	4	0.461698	-30.7746	-4.37526	-20.2906
  67	1	3	0.091945	-31.4843	-4.92812	-19.2319
  68	1	1	-0.10563	-31.9092	-12.7122	-23.1953
  69	1	5	-0.099376	-30.2293	-10.5425	-20.4029
  70	1	1	-0.043296	-31.2788	-11.1466	-21.3795
  71	1	1	-0.073043	-30.9311	-12.086	-22.3942
  72	1	1	-0.117827	-33.2525	-12.4178	-22.9453
  73	1	1	-0.037562	-32.655	-10.8672	-21.175
  74	1	1	-0.083705	-33.61	-11.5274	-21.9557
  75	1	5	0.396	-30.2382	-11.504	-19.1411
  76	1	5	0.310495	-28.7519	-10.5339	-20.9931
  77	1	6	-0.130298	-31.4715	-11.6817	-18.6149
  78	1	6	-0.128745	-29.4339	-11.0498	-18.1542
  79	1	6	-0.120019	-29.85	-12.7661	-19.4314
  80	1	6	-0.104287	-27.9385	-9.73533	-20.2657
  81	1	6	-0.095507	-28.7057	-10.0924	-22.2698
  82	1	6	-0.104872	-28.1411	-11.739	-21.0284
  83	1	3	0.456145	-35.0878	-11.3918	-21.9644
  84	1	3	0.550902	-34.4915	-12.8655	-23.6405
  85	1	4	0.015704	-35.5264	-12.1689	-23.0297
  86	1	2	-0.456801	-35.7397	-10.6295	-21.2719
  87	1	2	-0.487703	-34.544	-13.5755	-24.6299
  88	1	1	-0.116566	-36.8289	-12.025	-23.5898
  89	1	1	-0.050109	-37.0726	-10.9361	-24.4579
  90	1	1	0.154929	-38.3883	-10.7079	-24.9304
  91	1	1	0.041555	-37.8721	-12.9073	-23.2385
  92	1	1	-0.223109	-39.1679	-12.6756	-23.7303
  93	1	1	-0.080449	-39.4401	-11.574	-24.5589
  94	1	5	-0.108008	-37.6222	-14.1048	-22.3312
  95	1	5	-0.182228	-40.8696	-11.3317	-25.0333
  96	1	5	-0.345523	-35.8964	-10.0284	-24.8626
  97	1	7	0.155183	-29.7491	-8.09291	-21.8373
  98	1	7	0.172904	-31.6446	-9.48199	-18.139
  99	1	7	0.158028	-32.2511	-7.18122	-17.6095
 100	1	7	0.153129	-31.6317	-13.4127	-23.9808
 101	1	7	0.142914	-29.8976	-12.3592	-22.5731
 102	1	7	0.135531	-32.992	-10.1795	-20.405
 103	1	7	0.17765	-39.9738	-13.3482	-23.4488
 104	1	9	0.046541	-38.5416	-14.6751	-22.1489
 105	1	9	0.045238	-37.2327	-13.7887	-21.3558
 106	1	9	0.051941	-36.8961	-14.7919	-22.7838
 107	1	9	0.087961	-40.9398	-11.3891	-26.1274
 108	1	9	0.066782	-41.2289	-10.3428	-24.719
 109	1	9	0.075908	-41.5665	-12.0725	-24.6219
 110	1	9	0.105172	-35.4155	-9.58144	-23.9837
 111	1	9	0.115625	-36.1663	-9.19071	-25.5122
 112	1	9	0.140296	-35.1379	-10.6059	-25.4088
 113	1	1	-0.004194	-22.7529	4.94561	-15.3649
 114	1	1	-0.097141	-24.0696	4.51766	-15.6634
 115	1	1	-0.172015	-25.0501	4.71824	-14.6391
 116	1	2	-0.377994	-20.1828	6.14663	-14.379
 117	1	1	0.033493	-22.4751	5.52083	-14.1362
 118	1	1	-0.063739	-24.7238	5.25109	-13.3626
 119	1	2	-0.398381	-23.1798	6.44873	-10.8364
 120	1	1	0.032144	-23.4015	5.6507	-13.1304
 121	1	3	0.032313	-21.1951	6.07584	-13.6998
 122	1	4	0.461698	-21.3973	6.4694	-12.3832
 123	1	3	0.091945	-22.7065	6.24914	-11.9427
 124	1	1	-0.10563	-26.3719	0.82164	-15.8003
 125	1	5	-0.099376	-24.4432	3.97711	-17.0954
 126	1	1	-0.043296	-25.1537	2.58534	-17.0473
 127	1	1	-0.073043	-25.4578	1.90091	-15.8327
 128	1	1	-0.117827	-26.9039	0.370774	-17.015
 129	1	1	-0.037562	-25.6453	2.02036	-18.252
 130	1	1	-0.083705	-26.4781	0.908702	-18.2062
 131	1	5	0.396	-23.1649	3.87285	-18.038
 132	1	5	0.310495	-25.4506	5.02436	-17.7145
 133	1	6	-0.130298	-22.2496	3.02415	-17.5161
 134	1	6	-0.128745	-22.5731	5.0724	-18.2434
 135	1	6	-0.120019	-23.3961	3.40888	-19.2829
 136	1	6	-0.104287	-25.0372	6.29638	-17.519
 137	1	6	-0.095507	-26.6785	4.92118	-17.1564
 138	1	6	-0.104872	-25.6401	4.88645	-19.045
 139	1	3	0.456145	-27.2285	0.284734	-19.3158
 140	1	3	0.550902	-28.0254	-0.564732	-17.3221
 141	1	4	0.015704	-28.1775	-0.519258	-18.7072
 142	1	2	-0.456801	-27.0939	0.533094	-20.5014
 143	1	2	-0.487703	-28.7479	-1.10785	-16.5043
 144	1	1	-0.116566	-29.2768	-1.07207	-19.4281
 145	1	1	-0.050109	-29.3801	-2.46539	-19.6518
 146	1	1	0.154929	-30.5146	-2.97772	-20.3324
 147	1	1	0.041555	-30.2774	-0.198143	-19.9133
 148	1	1	-0.223109	-31.3525	-0.715528	-20.65
 149	1	1	-0.080449	-31.4858	-2.09642	-20.8602
 150	1	5	-0.108008	-30.2362	1.3054	-19.6458
 151	1	5	-0.182228	-32.7132	-2.6069	-21.6065
 152	1	5	-0.345523	-28.306	-3.42406	-19.1212
 153	1	7	0.155183	-21.9157	4.88116	-16.0461
 154	1	7	0.172904	-26.0856	4.44205	-14.8222
 155	1	7	0.158028	-25.4778	5.37282	-12.5876
 156	1	7	0.153129	-26.6938	0.384039	-14.857
 157	1	7	0.142914	-25.0517	2.23767	-14.886
 158	1	7	0.135531	-25.4851	2.4697	-19.2244
 159	1	7	0.17765	-32.1135	-0.0365371	-21.0251
 160	1	9	0.046541	-29.9607	1.52388	-18.6063
 161	1	9	0.045238	-31.2125	1.77394	-19.8193
 162	1	9	0.051941	-29.5127	1.80363	-20.3028
 163	1	9	0.087961	-33.232	-1.79374	-22.1306
 164	1	9	0.066782	-33.433	-3.0642	-20.9156
 165	1	9	0.075908	-32.4405	-3.35254	-22.3643
 166	1	9	0.105172	-28.0536	-4.19391	-19.8617
 167	1	9	0.115625	-28.645	-3.92527	-18.2048
 168	1	9	0.140296	-27.3574	-2.92768	-18.8901
 169	1	1	-0.004194	-10.3702	9.30826	-8.27033
 170	1	1	-0.097141	-11.3525	9.1425	-9.29119
 171	1	1	-0.172015	-10.8945	9.32346	-10.6356
 172	1	2	-0.377994	-7.8321	9.26321	-6.54389
 173	1	1	0.033493	-9.03335	9.52041	-8.61164
 174	1	1	-0.063739	-9.55178	9.6373	-10.9525
 175	1	2	-0.398381	-6.47483	10.2353	-10.8803
 176	1	1	0.032144	-8.62834	9.71838	-9.90816
 177	1	3	0.032313	-7.83372	9.48114	-7.74465
 178	1	4	0.461698	-6.74477	9.7151	-8.59043
 179	1	3	0.091945	-7.15262	9.93004	-9.91263
 180	1	1	-0.10563	-14.8266	11.2997	-10.9695
 181	1	5	-0.099376	-12.8121	8.60967	-8.97421
 182	1	1	-0.043296	-13.945	9.63442	-9.35497
 183	1	1	-0.073043	-13.7437	10.6906	-10.2915
 184	1	1	-0.117827	-16.1307	10.9092	-10.6378
 185	1	1	-0.037562	-15.2871	9.38757	-8.96006
 186	1	1	-0.083705	-16.3464	10.0543	-9.57996
 187	1	5	0.396	-12.9299	8.18343	-7.44103
 188	1	5	0.310495	-13.042	7.30227	-9.8418
 189	1	6	-0.130298	-11.9411	7.34404	-7.05602
 190	1	6	-0.128745	-14.0425	7.50701	-7.08956
 191	1	6	-0.120019	-12.9044	9.27267	-6.64011
 192	1	6	-0.104287	-13.1551	7.56378	-11.1614
 193	1	6	-0.095507	-14.1755	6.63212	-9.53835
 194	1	6	-0.104872	-12.0195	6.42797	-9.70961
 195	1	3	0.456145	-17.7248	9.52764	-9.6696
 196	1	3	0.550902	-17.3431	10.8516	-11.5166
 197	1	4	0.015704	-18.1173	9.82946	-10.9668
 198	1	2	-0.456801	-18.1641	8.63959	-8.95691
 199	1	2	-0.487703	-17.3997	11.2827	-12.6556
 200	1	1	-0.116566	-18.5961	8.69852	-11.6999
 201	1	1	-0.050109	-19.9537	8.31054	-11.64
 202	1	1	0.154929	-20.265	6.92681	-11.6662
 203	1	1	0.041555	-17.6199	7.71993	-12.0063
 204	1	1	-0.223109	-17.919	6.3709	-11.7979
 205	1	1	-0.080449	-19.2297	5.97544	-11.5216
 206	1	5	-0.108008	-16.2143	8.07547	-12.4686
 207	1	5	-0.182228	-19.5107	4.49476	-11.2986
 208	1	5	-0.345523	-21.0485	9.37473	-11.5884
 209	1	7	0.155183	-10.5759	9.21052	-7.21231
 210	1	7	0.172904	-11.5762	9.21616	-11.4725
 211	1	7	0.158028	-9.22494	9.754	-11.9838
 212	1	7	0.153129	-14.6493	11.9468	-11.8264
 213	1	7	0.142914	-12.7486	10.9682	-10.6107
 214	1	7	0.135531	-15.5668	8.55263	-8.33441
 215	1	7	0.17765	-17.1342	5.62467	-11.8849
 216	1	9	0.046541	-16.219	8.95951	-13.1177
 217	1	9	0.045238	-15.7835	7.26367	-13.068
 218	1	9	0.051941	-15.5473	8.26226	-11.6251
 219	1	9	0.087961	-19.6123	3.95376	-12.247
 220	1	9	0.066782	-20.425	4.34539	-10.7091
 221	1	9	0.075908	-18.6929	4.02913	-10.7326
 222	1	9	0.105172	-21.4351	9.48858	-10.5672
 223	1	9	0.115625	-21.8968	9.13272	-12.2403
 224	1	9	0.140296	-20.675	10.3535	-11.9168
 225	1	1	-0.004194	3.60559	4.95367	-9.26113
 226	1	1	-0.097141	3.44157	5.41239	-10.5978
 227	1	1	-0.172015	4.44349	6.25906	-11.1509
 228	1	2	-0.377994	4.57815	4.28285	-6.36862
 229	1	1	0.033493	4.75434	5.31858	-8.54999
 230	1	1	-0.063739	5.58878	6.61867	-10.416
 231	1	2	-0.398381	7.88579	6.85958	-8.37768
 232	1	1	0.032144	5.72402	6.11217	-9.12375
 233	1	3	0.032313	5.20441	4.94357	-7.18059
 234	1	4	0.461698	6.47251	5.51624	-7.04838
 235	1	3	0.091945	6.8494	6.24724	-8.17523
 236	1	1	-0.10563	-1.05101	4.39895	-9.27997
 237	1	5	-0.099376	2.2027	4.93758	-11.408
 238	1	1	-0.043296	0.966369	5.1723	-10.4894
 239	1	1	-0.073043	0.0539221	4.14199	-10.1178
 240	1	1	-0.117827	-1.2617	5.71216	-8.84911
 241	1	1	-0.037562	0.725983	6.48359	-10.0006
 242	1	1	-0.083705	-0.409016	6.72721	-9.2202
 243	1	5	0.396	2.45257	3.42214	-11.7876
 244	1	5	0.310495	1.95849	5.74063	-12.7531
 245	1	6	-0.130298	2.52798	2.62031	-10.7014
 246	1	6	-0.128745	3.62673	3.25269	-12.4367
 247	1	6	-0.120019	1.48618	2.91205	-12.5848
 248	1	6	-0.104287	2.88553	5.49014	-13.7057
 249	1	6	-0.095507	1.95555	7.08079	-12.5768
 250	1	6	-0.104872	0.758359	5.44014	-13.2976
 251	1	3	0.456145	-0.995584	8.01552	-8.76617
 252	1	3	0.550902	-2.39769	6.3109	-8.09844
 253	1	4	0.015704	-2.20983	7.68921	-8.16591
 254	1	2	-0.456801	-0.538348	9.12286	-8.99273
 255	1	2	-0.487703	-3.33506	5.69583	-7.61859
 256	1	1	-0.116566	-3.19515	8.66237	-7.7882
 257	1	1	-0.050109	-4.4377	8.74751	-8.48059
 258	1	1	0.154929	-5.39719	9.73611	-8.09896
 259	1	1	0.041555	-2.91142	9.55836	-6.73499
 260	1	1	-0.223109	-3.81994	10.5804	-6.43687
 261	1	1	-0.080449	-5.04377	10.6934	-7.11095
 262	1	5	-0.108008	-1.63056	9.46949	-5.9112
 263	1	5	-0.182228	-5.91416	11.8951	-6.73582
 264	1	5	-0.345523	-4.7001	7.75542	-9.6274
 265	1	7	0.155183	2.8767	4.30067	-8.7875
 266	1	7	0.172904	4.37089	6.63826	-12.1644
 267	1	7	0.158028	6.36425	7.25079	-10.8432
 268	1	7	0.153129	-1.75163	3.60969	-9.01441
 269	1	7	0.142914	0.169078	3.12663	-10.4792
 270	1	7	0.135531	1.38188	7.31354	-10.2493
 271	1	7	0.17765	-3.57417	11.2964	-5.65703
 272	1	9	0.046541	-1.37968	8.43058	-5.6643
 273	1	9	0.045238	-1.72794	10.0077	-4.9601
 274	1	9	0.051941	-0.783098	9.90997	-6.44985
 275	1	9	0.087961	-6.97604	11.7846	-6.97286
 276	1	9	0.066782	-5.56016	12.7938	-7.25609
 277	1	9	0.075908	-5.85802	12.0973	-5.65859
 278	1	9	0.105172	-3.8175	7.65571	-10.2725
 279	1	9	0.115625	-5.50341	8.04045	-10.3065
 280	1	9	0.140296	-4.95844	6.75957	-9.24675
 281	1	1	-0.004194	11.8054	-0.764234	2.26234
 282	1	1	-0.097141	10.4275	-0.600674	2.61275
 283	1	1	-0.172015	9.98882	-1.24996	3.80997
 284	1	2	-0.377994	14.8538	-1.66107	2.0678
 285	1	1	0.033493	12.6236	-1.61241	3.04296
 286	1	1	-0.063739	10.8225	-2.04899	4.59722
 287	1	2	-0.398381	13.0867	-3.58001	5.90808
 288	1	1	0.032144	12.1291	-2.22098	4.1782
 289	1	3	0.032313	14.0737	-1.98713	2.94615
 290	1	4	0.461698	14.3208	-2.78649	4.07152
 291	1	3	0.091945	13.1951	-2.96828	4.8582
 292	1	1	-0.10563	10.6185	0.151579	-1.88599
 293	1	5	-0.099376	9.4595	0.43039	1.90891
 294	1	1	-0.043296	9.61787	0.61277	0.350975
 295	1	1	-0.073043	10.4274	-0.185537	-0.514573
 296	1	1	-0.117827	9.90652	1.24166	-2.41949
 297	1	1	-0.037562	8.89598	1.66705	-0.265111
 298	1	1	-0.083705	9.01468	1.91274	-1.6236
 299	1	5	0.396	9.80828	1.81005	2.60329
 300	1	5	0.310495	7.93554	0.0417428	2.18606
 301	1	6	-0.130298	10.9672	2.30765	2.11307
 302	1	6	-0.128745	9.98094	1.69571	3.94035
 303	1	6	-0.120019	8.86738	2.76627	2.44574
 304	1	6	-0.104287	7.51102	0.384634	3.42444
 305	1	6	-0.095507	7.73831	-1.28665	2.02404
 306	1	6	-0.104872	7.02617	0.617919	1.37405
 307	1	3	0.456145	8.36575	2.98175	-2.39726
 308	1	3	0.550902	9.93338	1.95743	-3.74405
 309	1	4	0.015704	9.01477	3.00572	-3.61929
 310	1	2	-0.456801	7.53418	3.76271	-1.96516
 311	1	2	-0.487703	10.7002	1.73848	-4.66568
 312	1	1	-0.116566	8.83702	4.16122	-4.444
 313	1	1	-0.050109	7.88739	4.1738	-5.49609
 314	1	1	0.154929	7.326	5.41489	-5.9104
 315	1	1	0.041555	9.32477	5.38145	-3.92191
 316	1	1	-0.223109	8.70119	6.583	-4.27834
 317	1	1	-0.080449	7.65828	6.60048	-5.21209
 318	1	5	-0.108008	10.4324	5.41913	-2.87272
 319	1	5	-0.182228	6.89577	7.90834	-5.41418
 320	1	5	-0.345523	7.42964	2.84944	-6.1129
 321	1	7	0.155183	12.252	-0.221123	1.43454
 322	1	7	0.172904	8.99632	-1.11742	4.21353
 323	1	7	0.158028	10.4747	-2.50092	5.52414
 324	1	7	0.153129	11.3042	-0.416073	-2.51276
 325	1	7	0.142914	10.9412	-1.06079	-0.133631
 326	1	7	0.135531	8.22448	2.31896	0.280223
 327	1	7	0.17765	8.99627	7.50442	-3.78378
 328	1	9	0.046541	11.268	4.76973	-3.16359
 329	1	9	0.045238	10.0719	5.0953	-1.8894
 330	1	9	0.051941	10.8384	6.43126	-2.75486
 331	1	9	0.087961	6.95074	8.53866	-4.51698
 332	1	9	0.066782	5.82793	7.72964	-5.59694
 333	1	9	0.075908	7.29818	8.48871	-6.25319
 334	1	9	0.105172	7.21318	2.9392	-7.18416
 335	1	9	0.115625	6.51881	2.48518	-5.6183
 336	1	9	0.140296	8.19461	2.06771	-6.02728
 337	1	1	-0.004194	19.2726	0.206366	15.2898
 338	1	1	-0.097141	18.5452	-0.161159	14.1214
 339	1	1	-0.172015	17.6809	0.803467	13.537
 340	1	2	-0.377994	20.6354	1.62812	17.698
 341	1	1	0.033493	19.1207	1.49282	15.8143
 342	1	1	-0.063739	17.5423	2.09771	14.0827
 343	1	2	-0.398381	17.7672	4.71476	15.7499
 344	1	1	0.032144	18.2737	2.41073	15.2323
 345	1	3	0.032313	19.7976	2.13726	16.9719
 346	1	4	0.461698	19.3111	3.44444	16.9918
 347	1	3	0.091945	18.3612	3.67878	15.9984
 348	1	1	-0.10563	19.614	-0.896104	9.85675
 349	1	5	-0.099376	18.5821	-1.60439	13.5398
 350	1	1	-0.043296	18.5236	-1.58023	11.9774
 351	1	1	-0.073043	19.4789	-0.80547	11.2596
 352	1	1	-0.117827	18.7586	-1.7622	9.16645
 353	1	1	-0.037562	17.6463	-2.41166	11.2265
 354	1	1	-0.083705	17.786	-2.47371	9.83409
 355	1	5	0.396	17.3757	-2.378	14.2023
 356	1	5	0.310495	19.9198	-2.35129	13.8973
 357	1	6	-0.130298	17.3965	-3.70648	13.9467
 358	1	6	-0.128745	16.1854	-1.8964	13.7796
 359	1	6	-0.120019	17.3638	-2.24801	15.5493
 360	1	6	-0.104287	21.0078	-1.57935	13.6777
 361	1	6	-0.095507	20.0883	-3.4604	13.1443
 362	1	6	-0.104872	19.9707	-2.73666	15.1899
 363	1	3	0.456145	17.0382	-3.28365	8.83614
 364	1	3	0.550902	18.6853	-2.11964	7.7194
 365	1	4	0.015704	17.6206	-3.00765	7.60265
 366	1	2	-0.456801	16.1016	-4.02463	9.07834
 367	1	2	-0.487703	19.415	-1.69896	6.83832
 368	1	1	-0.116566	17.1244	-3.53539	6.3667
 369	1	1	-0.050109	16.2432	-2.7604	5.57236
 370	1	1	0.154929	15.548	-3.36841	4.49411
 371	1	1	0.041555	17.3844	-4.87974	6.01808
 372	1	1	-0.223109	16.7848	-5.42905	4.87359
 373	1	1	-0.080449	15.8469	-4.70203	4.12501
 374	1	5	-0.108008	18.2464	-5.7835	6.89228
 375	1	5	-0.182228	15.1166	-5.44547	3.00821
 376	1	5	-0.345523	15.9641	-1.30146	5.9551
 377	1	7	0.155183	19.9428	-0.468684	15.8086
 378	1	7	0.172904	17.091	0.543998	12.6601
 379	1	7	0.158028	16.885	2.83786	13.6319
 380	1	7	0.153129	20.379	-0.332946	9.32553
 381	1	7	0.142914	20.163	-0.156239	11.7995
 382	1	7	0.135531	16.8917	-3.04081	11.6857
 383	1	7	0.17765	16.979	-6.46756	4.61773
 384	1	9	0.046541	18.4594	-6.73994	6.39855
 385	1	9	0.045238	17.7343	-6.01544	7.83499
 386	1	9	0.051941	19.2088	-5.31558	7.13034
 387	1	9	0.087961	14.6006	-6.32942	3.40567
 388	1	9	0.066782	15.8302	-5.7949	2.25105
 389	1	9	0.075908	14.37	-4.83744	2.48539
 390	1	9	0.105172	15.4556	-0.738513	5.16341
 391	1	9	0.115625	16.8997	-0.756248	6.13196
 392	1	9	0.140296	15.3501	-1.23709	6.86268
 393	1	1	-0.004194	18.5539	6.01634	29.3198
 394	1	1	-0.097141	18.8399	6.06568	27.9259
 395	1	1	-0.172015	18.7105	4.86712	27.1662
 396	1	2	-0.377994	17.714	5.21459	32.2286
 397	1	1	0.033493	18.0846	4.81478	29.8703
 398	1	1	-0.063739	18.2131	3.68353	27.7319
 399	1	2	-0.398381	16.8734	1.56855	29.4576
 400	1	1	0.032144	17.8834	3.70225	29.083
 401	1	3	0.032313	17.6525	4.47963	31.2566
 402	1	4	0.461698	17.13	3.18281	31.1752
 403	1	3	0.091945	17.2507	2.64566	29.8906
 404	1	1	-0.10563	17.2863	7.19516	23.9055
 405	1	5	-0.099376	19.3539	7.35859	27.2326
 406	1	1	-0.043296	19.0139	7.2535	25.6982
 407	1	1	-0.073043	17.6619	7.3752	25.2536
 408	1	1	-0.117827	18.2754	6.82706	22.9912
 409	1	1	-0.037562	19.9845	6.89601	24.7178
 410	1	1	-0.083705	19.5798	6.66119	23.3972
 411	1	5	0.396	20.9066	7.427	27.5152
 412	1	5	0.310495	18.665	8.66832	27.81
 413	1	6	-0.130298	21.2065	7.56305	28.8266
 414	1	6	-0.128745	21.493	8.45428	26.8604
 415	1	6	-0.120019	21.5366	6.28524	27.1562
 416	1	6	-0.104287	19.1428	9.08653	29.0023
 417	1	6	-0.095507	17.3389	8.50567	28.0157
 418	1	6	-0.104872	18.8126	9.71236	26.9638
 419	1	3	0.456145	20.3707	6.20396	22.2252
 420	1	3	0.550902	18.1952	6.52877	21.5328
 421	1	4	0.015704	19.4839	6.1664	21.1522
 422	1	2	-0.456801	21.5591	5.93345	22.2313
 423	1	2	-0.487703	17.1967	6.61324	20.8384
 424	1	1	-0.116566	19.8875	5.88194	19.8073
 425	1	1	-0.050109	19.426	4.72756	19.1176
 426	1	1	0.154929	19.8568	4.49438	17.7839
 427	1	1	0.041555	20.7612	6.78666	19.1584
 428	1	1	-0.223109	21.2326	6.4988	17.8711
 429	1	1	-0.080449	20.7969	5.36142	17.18
 430	1	5	-0.108008	21.2043	8.09883	19.8
 431	1	5	-0.182228	21.326	5.12171	15.7672
 432	1	5	-0.345523	18.4369	3.76556	19.7868
 433	1	7	0.155183	18.672	6.87874	29.9685
 434	1	7	0.172904	18.9817	4.83057	26.1161
 435	1	7	0.158028	18.0747	2.78058	27.1412
 436	1	7	0.153129	16.2506	7.30493	23.5888
 437	1	7	0.142914	16.8642	7.58741	25.9538
 438	1	7	0.135531	21.0334	6.7537	24.9465
 439	1	7	0.17765	21.9264	7.18571	17.3941
 440	1	9	0.046541	21.4847	8.8375	19.039
 441	1	9	0.045238	22.0749	7.9475	20.4497
 442	1	9	0.051941	20.4041	8.55399	20.3962
 443	1	9	0.087961	22.1534	5.79997	15.5234
 444	1	9	0.066782	20.5417	5.28655	15.0173
 445	1	9	0.075908	21.7075	4.09922	15.6482
 446	1	9	0.105172	17.402	4.07571	19.5864
 447	1	9	0.115625	18.5671	3.72327	20.8741
 448	1	9	0.140296	18.552	2.73095	19.4402
 449	1	1	-0.004194	15.0396	-4.67429	27.1989
 450	1	1	-0.097141	13.6905	-4.33389	26.9212
 451	1	1	-0.172015	13.2885	-4.23898	25.5572
 452	1	2	-0.377994	17.9623	-5.62357	27.2012
 453	1	1	0.033493	15.9026	-4.9562	26.1441
 454	1	1	-0.063739	14.1819	-4.53001	24.5025
 455	1	2	-0.398381	16.5065	-5.66437	22.7824
 456	1	1	0.032144	15.482	-4.92184	24.8341
 457	1	3	0.032313	17.286	-5.47745	26.1961
 458	1	4	0.461698	17.5995	-5.79466	24.8766
 459	1	3	0.091945	16.5678	-5.47398	23.9866
 460	1	1	-0.10563	14.7809	-4.31783	31.4403
 461	1	5	-0.099376	12.6721	-4.24907	28.0922
 462	1	1	-0.043296	13.4536	-3.80663	29.3874
 463	1	1	-0.073043	13.982	-4.72936	30.3478
 464	1	1	-0.117827	15.0195	-2.95115	31.6089
 465	1	1	-0.037562	13.7437	-2.43441	29.6015
 466	1	1	-0.083705	14.4844	-2.04838	30.7196
 467	1	5	0.396	12.0407	-5.69228	28.2379
 468	1	5	0.310495	11.5028	-3.20846	27.805
 469	1	6	-0.130298	11.2545	-5.78317	29.3335
 470	1	6	-0.128745	12.9818	-6.66014	28.3198
 471	1	6	-0.120019	11.297	-6.07079	27.174
 472	1	6	-0.104287	10.8764	-2.84527	28.9471
 473	1	6	-0.095507	10.526	-3.64971	26.9824
 474	1	6	-0.104872	11.9529	-2.07962	27.2121
 475	1	3	0.456145	14.7953	-0.68707	31.1943
 476	1	3	0.550902	15.7444	-2.18646	32.6737
 477	1	4	0.015704	15.5297	-0.848837	32.3656
 478	1	2	-0.456801	14.352	0.344214	30.7151
 479	1	2	-0.487703	16.3479	-2.65459	33.6236
 480	1	1	-0.116566	15.8819	0.302498	33.1291
 481	1	1	-0.050109	16.8245	1.14598	32.512
 482	1	1	0.154929	16.4554	2.48773	32.2253
 483	1	1	0.041555	14.8336	0.863245	33.8801
 484	1	1	-0.223109	14.5522	2.22724	33.7339
 485	1	1	-0.080449	15.2683	3.00871	32.8117
 486	1	5	-0.108008	13.8763	-0.020459	34.6682
 487	1	5	-0.182228	14.6106	4.3305	32.4168
 488	1	5	-0.345523	18.1185	0.502152	32.0029
 489	1	7	0.155183	15.4185	-4.81096	28.2048
 490	1	7	0.172904	12.2623	-3.99946	25.2947
 491	1	7	0.158028	13.8605	-4.51326	23.463
 492	1	7	0.153129	15.1877	-5.04136	32.1441
 493	1	7	0.142914	13.8132	-5.79403	30.2624
 494	1	7	0.135531	13.4069	-1.65053	28.9353
 495	1	7	0.17765	13.6631	2.63621	34.2059
 496	1	9	0.046541	13.2244	-0.599333	34.0032
 497	1	9	0.045238	13.2352	0.572311	35.3322
 498	1	9	0.051941	14.4329	-0.726807	35.2979
 499	1	9	0.087961	15.1626	4.91735	31.6788
 500	1	9	0.066782	14.455	4.96881	33.295
 501	1	9	0.075908	13.6242	4.13422	31.9756
 502	1	9	0.105172	18.5095	-0.202724	32.7492
 503	1	9	0.115625	18.9142	1.23612	31.827
 504	1	9	0.140296	17.9639	-0.0636534	31.0754
 505	1	1	-0.004194	24.6592	-6.01006	15.5047
 506	1	1	-0.097141	23.2651	-5.74313	15.5558
 507	1	1	-0.172015	22.862	-4.39926	15.3274
 508	1	2	-0.377994	27.5495	-6.26508	14.5815
 509	1	1	0.033493	25.4941	-5.07445	14.8888
 510	1	1	-0.063739	23.6923	-3.5014	14.6284
 511	1	2	-0.398381	25.5508	-2.72458	12.3188
 512	1	1	0.032144	24.9804	-3.93164	14.3185
 513	1	3	0.032313	26.8019	-5.35194	14.2693
 514	1	4	0.461698	26.8616	-4.51398	13.1538
 515	1	3	0.091945	25.8401	-3.55529	13.1648
 516	1	1	-0.10563	19.7031	-7.94968	18.3413
 517	1	5	-0.099376	22.1856	-6.88837	15.5798
 518	1	1	-0.043296	21.5115	-6.99174	16.9671
 519	1	1	-0.073043	20.3514	-7.80236	17.1103
 520	1	1	-0.117827	20.2458	-7.28313	19.4344
 521	1	1	-0.037562	22.0479	-6.34791	18.117
 522	1	1	-0.083705	21.3902	-6.51578	19.3454
 523	1	5	0.396	22.8303	-8.29629	15.2444
 524	1	5	0.310495	21.0922	-6.55558	14.4688
 525	1	6	-0.130298	23.6088	-8.73041	16.2609
 526	1	6	-0.128745	23.5853	-8.25623	14.1218
 527	1	6	-0.120019	21.9398	-9.29481	15.0556
 528	1	6	-0.104287	20.3132	-7.58525	14.0755
 529	1	6	-0.095507	21.6566	-6.08997	13.3307
 530	1	6	-0.104872	20.2076	-5.63358	14.9071
 531	1	3	0.456145	21.7379	-6.05307	20.7257
 532	1	3	0.550902	19.8124	-7.32995	20.838
 533	1	4	0.015704	20.7581	-6.60221	21.5446
 534	1	2	-0.456801	22.7165	-5.40529	21.0536
 535	1	2	-0.487703	18.8809	-7.99005	21.2699
 536	1	1	-0.116566	20.6886	-6.61943	22.9624
 537	1	1	-0.050109	19.6591	-5.84657	23.5338
 538	1	1	0.154929	18.8073	-6.445	24.4945
 539	1	1	0.041555	21.087	-7.8284	23.5642
 540	1	1	-0.223109	20.2866	-8.38479	24.5697
 541	1	1	-0.080449	19.0971	-7.75208	24.9662
 542	1	5	-0.108008	22.2429	-8.64075	22.9943
 543	1	5	-0.182228	18.118	-8.55224	25.8227
 544	1	5	-0.345523	19.406	-4.44021	22.9826
 545	1	7	0.155183	25.0837	-6.98583	15.7091
 546	1	7	0.172904	21.841	-4.10542	15.5029
 547	1	7	0.158028	23.3046	-2.57523	14.2134
 548	1	7	0.153129	18.8233	-8.58136	18.4506
 549	1	7	0.142914	19.9399	-8.3508	16.2716
 550	1	7	0.135531	22.9579	-5.75517	18.0774
 551	1	7	0.17765	20.523	-9.37715	24.9436
 552	1	9	0.046541	23.1033	-7.99366	22.7792
 553	1	9	0.045238	21.9562	-9.14486	22.0634
 554	1	9	0.051941	22.5821	-9.40858	23.7001
 555	1	9	0.087961	18.4069	-9.60916	25.8831
 556	1	9	0.066782	17.1072	-8.52981	25.3947
 557	1	9	0.075908	18.0675	-8.17405	26.8501
 558	1	9	0.105172	20.3247	-4.00975	22.562
 559	1	9	0.115625	19.0786	-3.74755	23.7684
 560	1	9	0.140296	18.6502	-4.43992	22.187
 561	1	1	-0.004194	29.2428	-0.203327	2.63531
 562	1	1	-0.097141	28.1879	0.0523299	3.5534
 563	1	1	-0.172015	27.5035	1.29893	3.45406
 564	1	2	-0.377994	31.2622	-0.222023	0.234013
 565	1	1	0.033493	29.5491	0.75403	1.66025
 566	1	1	-0.063739	27.8635	2.27242	2.50083
 567	1	2	-0.398381	29.1663	3.92132	0.183511
 568	1	1	0.032144	28.8935	1.97144	1.61012
 569	1	3	0.032313	30.5304	0.703295	0.541589
 570	1	4	0.461698	30.3961	1.93716	-0.0787575
 571	1	3	0.091945	29.455	2.77779	0.494456
 572	1	1	-0.10563	30.322	-0.563109	7.40268
 573	1	5	-0.099376	27.7552	-1.06914	4.54761
 574	1	1	-0.043296	28.9194	-1.38592	5.52523
 575	1	1	-0.073043	29.6132	-0.335383	6.19556
 576	1	1	-0.117827	30.317	-1.86209	7.93345
 577	1	1	-0.037562	29.0492	-2.69415	6.03284
 578	1	1	-0.083705	29.6991	-2.87891	7.24473
 579	1	5	0.396	27.2892	-2.30738	3.66823
 580	1	5	0.310495	26.5526	-0.676213	5.5012
 581	1	6	-0.130298	26.5198	-1.90883	2.63056
 582	1	6	-0.128745	26.553	-3.22459	4.33645
 583	1	6	-0.120019	28.3328	-2.98169	3.13448
 584	1	6	-0.104287	25.3925	-0.49747	4.83174
 585	1	6	-0.095507	26.7947	0.454729	6.20336
 586	1	6	-0.104872	26.3153	-1.61851	6.44492
 587	1	3	0.456145	29.4806	-4.0088	8.1524
 588	1	3	0.550902	30.609	-2.36897	9.31312
 589	1	4	0.015704	29.9696	-3.61035	9.39342
 590	1	2	-0.456801	28.7888	-4.97564	7.87465
 591	1	2	-0.487703	31.2357	-1.77288	10.1725
 592	1	1	-0.116566	29.6082	-4.38463	10.5482
 593	1	1	-0.050109	28.6297	-3.90862	11.4683
 594	1	1	0.154929	27.7329	-4.84138	12.0654
 595	1	1	0.041555	29.8309	-5.77659	10.4405
 596	1	1	-0.223109	28.8319	-6.65091	10.8733
 597	1	1	-0.080449	27.7253	-6.17972	11.5853
 598	1	5	-0.108008	30.9859	-6.36305	9.63723
 599	1	5	-0.182228	26.5453	-7.15006	11.7356
 600	1	5	-0.345523	28.4798	-2.40583	11.7296
 601	1	7	0.155183	29.7993	-1.13578	2.6446
 602	1	7	0.172904	26.663	1.53749	4.0951
 603	1	7	0.158028	27.3367	3.22158	2.4327
 604	1	7	0.153129	30.7284	0.266794	7.97825
 605	1	7	0.142914	29.4849	0.690564	5.85951
 606	1	7	0.135531	28.4897	-3.53435	5.64073
 607	1	7	0.17765	28.8832	-7.69744	10.5851
 608	1	9	0.046541	31.7677	-5.62057	9.43714
 609	1	9	0.045238	30.6394	-6.76616	8.67771
 610	1	9	0.051941	31.4557	-7.18465	10.1917
 611	1	9	0.087961	25.8926	-6.97056	12.5932
 612	1	9	0.066782	26.8921	-8.18749	11.8151
 613	1	9	0.075908	25.9047	-7.0932	10.8454
 614	1	9	0.105172	27.8226	-1.93753	10.9843
 615	1	9	0.115625	29.4365	-1.88163	11.7205
 616	1	9	0.140296	28.0697	-2.17875	12.7189
 617	1	7	0	-34.3279	4.3596	-31.2131
 618	1	8	0	30.9475	2.20676	-0.884465

Velocities

   1	6.50118e-05	0.000153261	-4.64765e-05
   2	-0.000193279	0.000211933	-7.46361e-05
   3	-0.000278481	0.000234702	-0.000121405
   4	0.000373203	-3.49338e-06	-9.18515e-05
   5	0.000121906	0.000141236	-7.88674e-05
   6	-0.000134303	0.000241782	-0.000145173
   7	0.000430398	0.000315153	-0.000252948
   8	3.42552e-05	0.000192763	-0.000139669
   9	5.63984e-05	4.91737e-05	-0.000149437
  10	-0.000248655	6.67115e-06	-0.000258396
  11	-3.53994e-05	0.000151011	-0.000251258
  12	-0.0001764	0.000150764	0.000232954
  13	-0.000281365	0.00021313	-6.31796e-05
  14	-0.000204799	0.000257825	0.000145348
  15	-0.000246378	0.000227518	0.000193727
  16	-0.00012625	0.000173917	0.000205171
  17	-0.000123871	0.000267911	0.000132838
  18	-7.58256e-05	0.000247159	0.00017941
  19	-0.000427314	0.000162189	-7.09846e-05
  20	-0.000160793	0.000303503	-0.000268015
  21	-0.000573555	8.3101e-05	0.000113255
  22	-0.000593149	0.000144021	-0.000265704
  23	-0.000332553	0.000151072	2.9946e-05
  24	-0.00027038	0.000219419	-0.000472382
  25	-3.25687e-05	0.000471087	-0.0003046
  26	-0.0001733	0.000285966	-0.000152997
  27	5.89542e-05	0.000345863	0.000239921