pySIMM System Object

1122 atoms
1221 bonds
2160 angles
3196 dihedrals
320 impropers

9 atom types
11 bond types
18 angle types
7 dihedral types
4 improper types

-163.941197 163.941197 xlo xhi
-163.941197 163.941197 ylo yhi
-163.941197 163.941197 zlo zhi

Masses

   1	12.01	# ca
   2	16.0	# o
   3	12.01	# c
   4	14.01	# n
   5	12.01	# c3
   6	19.0	# f
   7	1.008	# ha
   8	1.008	# hn
   9	1.008	# hc

Pair Coeffs

   1	0.086	3.3996695084235347	# ca
   2	0.21	2.959921901149463	# o
   3	0.086	3.3996695084235347	# c
   4	0.17	3.249998523775958	# n
   5	0.1094	3.3996695084235347	# c3
   6	0.061	3.1181455134911875	# f
   7	0.015	2.59964245953351	# ha
   8	0.0157	1.069078461768407	# hn
   9	0.0157	2.649532787749369	# hc

Bond Coeffs

   1	321.0	1.5156	# c3,ca
   2	300.9	1.5375	# c3,c3
   3	384.2	1.4121	# ca,n
   4	330.6	1.0969	# c3,hc
   5	637.7	1.2183	# c,o
   6	403.2	1.0129	# hn,n
   7	356.9	1.3497	# c3,f
   8	461.1	1.3984	# ca,ca
   9	427.6	1.3789	# c,n
  10	345.9	1.4906	# c,ca
  11	345.8	1.086	# ca,ha

Angle Coeffs

   1	70.89	107.36	# f,c3,f
   2	68.72	122.6	# ca,c,o
   3	67.87	120.19	# ca,ca,n
   4	67.68	115.25	# ca,c,n
   5	46.8	110.47	# ca,c3,hc
   6	74.22	123.05	# n,c,o
   7	48.33	117.55	# c,n,hn
   8	63.56	112.24	# ca,c3,ca
   9	62.86	111.51	# c3,c3,c3
  10	66.11	109.24	# c3,c3,f
  11	64.28	120.33	# c,ca,ca
  12	66.62	120.02	# ca,ca,ca
  13	63.74	127.08	# c,n,c
  14	39.4	107.58	# hc,c3,hc
  15	48.18	119.88	# ca,ca,ha
  16	63.15	112.07	# c3,c3,ca
  17	63.53	120.77	# c3,ca,ca
  18	63.82	123.71	# c,n,ca

Dihedral Coeffs

   1	2	2.5	2	180	2.0	1	0	# hn,n,c,o
   2	1	3.625	2	180	# X,ca,ca,X
   3	1	0.0	2	0	# X,c3,ca,X
   4	1	1.0	2	180	# X,c,ca,X
   5	1	0.15555555555555556	3	0	# X,c3,c3,X
   6	1	2.5	2	180	# X,c,n,X
   7	1	0.45	2	180	# X,ca,n,X

Improper Coeffs

   1	1.1	-1	2	# n,X,X,hn
   2	1.1	-1	2	# ca,ca,ca,c3
   3	1.1	-1	2	# ca,X,X,ha
   4	10.5	-1	2	# c,X,X,o

Atoms

   1	1	1	-0.004194	-6.29981	17.0037	-2.20973
   2	1	1	-0.097141	-7.40241	16.3613	-1.5806
   3	1	1	-0.172015	-8.29302	15.6081	-2.39723
   4	1	2	-0.377994	-3.97669	17.875	-4.08959
   5	1	1	0.033493	-6.11767	16.8628	-3.59228
   6	1	1	-0.063739	-8.101	15.4922	-3.79041
   7	1	2	-0.398381	-6.93452	15.3949	-6.66437
   8	1	1	0.032144	-6.99503	16.1272	-4.3617
   9	1	3	0.032313	-4.96848	17.2636	-4.4504
  10	1	4	0.461698	-5.22694	16.6957	-5.70001
  11	1	3	0.091945	-6.45057	16.0289	-5.741
  12	1	1	-0.10563	-5.65741	19.5351	1.42939
  13	1	5	-0.099376	-7.51112	16.3831	-0.0259952
  14	1	1	-0.043296	-7.17946	17.8375	0.451808
  15	1	1	-0.073043	-5.95615	18.1983	1.09558
  16	1	1	-0.117827	-6.61179	20.5173	1.17085
  17	1	1	-0.037562	-8.11065	18.879	0.198768
  18	1	1	-0.083705	-7.8194	20.1828	0.605432
  19	1	5	0.396	-6.48902	15.3022	0.514319
  20	1	5	0.310495	-8.95475	16.0086	0.528904
  21	1	6	-0.130298	-5.22549	15.5132	0.0821851
  22	1	6	-0.128745	-6.77649	14.0526	0.0851346
  23	1	6	-0.120019	-6.45456	15.2642	1.86552
  24	1	6	-0.104287	-9.25142	14.6913	0.477187
  25	1	6	-0.095507	-9.95988	16.6128	-0.143042
  26	1	6	-0.104872	-9.08868	16.3708	1.82503
  27	1	3	0.456145	-8.59852	21.4249	0.408388
  28	1	3	0.550902	-6.54806	22.0002	1.30377
  29	1	4	0.015704	-7.75471	22.4586	0.788565
  30	1	2	-0.456801	-9.70381	21.5037	-0.0998539
  31	1	2	-0.487703	-5.57521	22.6507	1.64878
  32	1	1	-0.116566	-8.04511	23.8086	0.44453
  33	1	1	-0.050109	-8.70188	24.6647	1.356
  34	1	1	0.154929	-9.17284	25.9158	0.910019
  35	1	1	0.041555	-7.80906	24.2305	-0.883762
  36	1	1	-0.223109	-8.28196	25.4831	-1.30671
  37	1	1	-0.080449	-8.9883	26.316	-0.425735
  38	1	5	-0.108008	-7.07455	23.343	-1.88584
  39	1	5	-0.182228	-9.56645	27.624	-0.941243
  40	1	5	-0.345523	-8.94794	24.2406	2.80005
  41	1	7	0.155183	-5.5487	17.5384	-1.63451
  42	1	7	0.172904	-9.1221	15.0596	-1.96164
  43	1	7	0.158028	-8.75725	14.8776	-4.40292
  44	1	7	0.153129	-4.70627	19.8038	1.86767
  45	1	7	0.142914	-5.19331	17.4664	1.33064
  46	1	7	0.135531	-9.03998	18.7123	-0.331371
  47	1	7	0.17765	-8.12786	25.7963	-2.33524
  48	1	9	0.046541	-6.02329	23.2172	-1.59716
  49	1	9	0.045238	-7.08928	23.7722	-2.89459
  50	1	9	0.051941	-7.52774	22.3473	-1.95885
  51	1	9	0.087961	-10.2308	28.0933	-0.205024
  52	1	9	0.066782	-10.155	27.4537	-1.85197
  53	1	9	0.075908	-8.76994	28.3379	-1.18278
  54	1	9	0.105172	-9.75542	23.5001	2.86166
  55	1	9	0.115625	-9.23458	25.0971	3.42384
  56	1	9	0.140296	-8.0447	23.8087	3.25036
  57	1	1	-0.004194	0.271134	22.0226	-15.1653
  58	1	1	-0.097141	-0.531599	23.1012	-14.7024
  59	1	1	-0.172015	-0.78262	24.178	-15.6044
  60	1	2	-0.377994	1.82918	19.9129	-16.8497
  61	1	1	0.033493	0.745473	22.0418	-16.4875
  62	1	1	-0.063739	-0.284612	24.1832	-16.9223
  63	1	2	-0.398381	0.968137	23.4945	-19.6746
  64	1	1	0.032144	0.480857	23.0955	-17.3388
  65	1	3	0.032313	1.48597	21.0087	-17.2596
  66	1	4	0.461698	1.59428	21.5196	-18.5555
  67	1	3	0.091945	1.04947	22.7951	-18.6775
  68	1	1	-0.10563	-2.87941	19.7089	-13.2044
  69	1	5	-0.099376	-1.03155	23.1337	-13.2194
  70	1	1	-0.043296	-1.5054	21.7212	-12.7492
  71	1	1	-0.073043	-2.26304	20.9039	-13.6352
  72	1	1	-0.117827	-2.75229	19.3497	-11.8573
  73	1	1	-0.037562	-1.36988	21.2914	-11.3985
  74	1	1	-0.083705	-2.01077	20.116	-10.9847
  75	1	5	0.396	-2.29188	24.0634	-13.0132
  76	1	5	0.310495	0.173535	23.6943	-12.3726
  77	1	6	-0.130298	-2.01215	25.3848	-13.0774
  78	1	6	-0.128745	-2.87701	23.8712	-11.8078
  79	1	6	-0.120019	-3.24812	23.8072	-13.9361
  80	1	6	-0.104287	0.725712	24.7854	-12.9517
  81	1	6	-0.095507	1.16005	22.7769	-12.2617
  82	1	6	-0.104872	-0.175569	24.0745	-11.1241
  83	1	3	0.456145	-2.08951	19.4916	-9.63467
  84	1	3	0.550902	-3.3321	18.2089	-11.0933
  85	1	4	0.015704	-2.88438	18.3578	-9.78282
  86	1	2	-0.456801	-1.57581	19.922	-8.6162
  87	1	2	-0.487703	-4.03754	17.3267	-11.5532
  88	1	1	-0.116566	-3.10379	17.3846	-8.75221
  89	1	1	-0.050109	-4.04348	17.5916	-7.70394
  90	1	1	0.154929	-4.24963	16.5708	-6.73281
  91	1	1	0.041555	-2.37411	16.1753	-8.81406
  92	1	1	-0.223109	-2.58219	15.186	-7.84516
  93	1	1	-0.080449	-3.50567	15.3671	-6.8087
  94	1	5	-0.108008	-1.36525	15.8944	-9.92428
  95	1	5	-0.182228	-3.68704	14.2072	-5.82966
  96	1	5	-0.345523	-4.86352	18.8859	-7.65642
  97	1	7	0.155183	0.514968	21.1798	-14.5225
  98	1	7	0.172904	-1.36396	25.0419	-15.3047
  99	1	7	0.158028	-0.498042	25.0005	-17.6083
 100	1	7	0.153129	-3.47121	19.1017	-13.8868
 101	1	7	0.142914	-2.41549	21.2193	-14.664
 102	1	7	0.135531	-0.831113	21.8655	-10.6524
 103	1	7	0.17765	-2.02904	14.2527	-7.90967
 104	1	9	0.046541	-0.794347	14.9778	-9.73183
 105	1	9	0.045238	-0.64056	16.7117	-10.0236
 106	1	9	0.051941	-1.86854	15.761	-10.89
 107	1	9	0.087961	-4.37086	13.4549	-6.24576
 108	1	9	0.066782	-4.08076	14.5154	-4.85424
 109	1	9	0.075908	-2.72968	13.7079	-5.63371
 110	1	9	0.105172	-5.20957	19.1328	-6.64549
 111	1	9	0.115625	-5.74599	18.813	-8.30571
 112	1	9	0.140296	-4.27964	19.7556	-7.97953
 113	1	1	-0.004194	10.1023	15.7143	-17.8819
 114	1	1	-0.097141	10.2029	15.8299	-19.2995
 115	1	1	-0.172015	9.45326	14.9263	-20.1061
 116	1	2	-0.377994	9.02973	15.3309	-14.9783
 117	1	1	0.033493	9.11709	14.8669	-17.3508
 118	1	1	-0.063739	8.48307	14.0774	-19.5531
 119	1	2	-0.398381	6.15642	13.0965	-17.8757
 120	1	1	0.032144	8.29592	14.127	-18.1755
 121	1	3	0.032313	8.55006	14.8116	-15.973
 122	1	4	0.461698	7.33625	14.123	-16.101
 123	1	3	0.091945	7.13322	13.654	-17.4008
 124	1	1	-0.10563	8.45726	18.9149	-22.6069
 125	1	5	-0.099376	10.7834	17.0909	-20.016
 126	1	1	-0.043296	9.55523	17.7326	-20.7307
 127	1	1	-0.073043	9.60457	18.325	-22.0238
 128	1	1	-0.117827	7.25594	18.8958	-21.8825
 129	1	1	-0.037562	8.31631	17.7546	-20.0353
 130	1	1	-0.083705	7.19488	18.3125	-20.6389
 131	1	5	0.396	11.9551	16.6356	-20.9728
 132	1	5	0.310495	11.3243	18.2047	-19.043
 133	1	6	-0.130298	11.5152	15.9082	-22.0227
 134	1	6	-0.128745	12.8452	15.8613	-20.3129
 135	1	6	-0.120019	12.6545	17.6629	-21.504
 136	1	6	-0.104287	12.3988	17.804	-18.3316
 137	1	6	-0.095507	10.378	18.5991	-18.1674
 138	1	6	-0.104872	11.676	19.3337	-19.6991
 139	1	3	0.456145	5.81574	18.4312	-20.1131
 140	1	3	0.550902	5.90373	19.4523	-22.1815
 141	1	4	0.015704	5.11314	19.1443	-21.0748
 142	1	2	-0.456801	5.41792	17.9872	-19.0496
 143	1	2	-0.487703	5.59323	20.0795	-23.1795
 144	1	1	-0.116566	3.7466	19.5285	-20.9101
 145	1	1	-0.050109	3.38196	20.4561	-19.8988
 146	1	1	0.154929	2.00997	20.7334	-19.6682
 147	1	1	0.041555	2.75016	18.9209	-21.7073
 148	1	1	-0.223109	1.40626	19.2756	-21.5249
 149	1	1	-0.080449	1.02402	20.1676	-20.513
 150	1	5	-0.108008	3.08269	17.8616	-22.7532
 151	1	5	-0.182228	-0.461414	20.4958	-20.3721
 152	1	5	-0.345523	4.46384	21.1342	-19.0466
 153	1	7	0.155183	10.6339	16.3707	-17.2007
 154	1	7	0.172904	9.48262	14.9964	-21.1893
 155	1	7	0.158028	7.80419	13.5053	-20.1821
 156	1	7	0.153129	8.50207	19.3777	-23.5908
 157	1	7	0.142914	10.5323	18.347	-22.5863
 158	1	7	0.135531	8.20544	17.3461	-19.0347
 159	1	7	0.17765	0.646447	18.828	-22.1602
 160	1	9	0.046541	3.58168	18.3049	-23.623
 161	1	9	0.045238	2.17871	17.3579	-23.1181
 162	1	9	0.051941	3.73606	17.0838	-22.339
 163	1	9	0.087961	-1.09039	19.7331	-20.8478
 164	1	9	0.066782	-0.689836	21.4546	-20.8573
 165	1	9	0.075908	-0.780545	20.5613	-19.325
 166	1	9	0.105172	4.73246	20.5092	-18.1834
 167	1	9	0.115625	4.15029	22.1117	-18.6611
 168	1	9	0.140296	5.37866	21.3282	-19.6192
 169	1	1	-0.004194	3.63798	5.92654	-16.3921
 170	1	1	-0.097141	2.31219	5.54545	-16.0466
 171	1	1	-0.172015	2.1318	4.33973	-15.3085
 172	1	2	-0.377994	6.72315	6.30375	-16.6311
 173	1	1	0.033493	4.71133	5.1503	-15.9399
 174	1	1	-0.063739	3.22587	3.55968	-14.8848
 175	1	2	-0.398381	6.02429	2.42229	-14.1808
 176	1	1	0.032144	4.50966	3.99922	-15.2073
 177	1	3	0.032313	6.17572	5.36844	-16.0721
 178	1	4	0.461698	6.76327	4.30399	-15.3884
 179	1	3	0.091945	5.82817	3.42487	-14.8479
 180	1	1	-0.10563	1.26232	10.2927	-17.0073
 181	1	5	-0.099376	1.11284	6.42032	-16.5296
 182	1	1	-0.043296	1.45194	7.92714	-16.3125
 183	1	1	-0.073043	0.942543	8.93483	-17.181
 184	1	1	-0.117827	2.10176	10.6338	-15.9471
 185	1	1	-0.037562	2.25125	8.33458	-15.2067
 186	1	1	-0.083705	2.58502	9.68903	-15.0673
 187	1	5	0.396	-0.222484	6.16261	-15.7333
 188	1	5	0.310495	0.900292	6.04627	-18.0486
 189	1	6	-0.130298	-0.784943	4.96288	-16.0047
 190	1	6	-0.128745	-1.16566	7.09071	-16.0142
 191	1	6	-0.120019	-0.0169884	6.22897	-14.3983
 192	1	6	-0.104287	1.88015	6.562	-18.825
 193	1	6	-0.095507	-0.278046	6.47008	-18.5587
 194	1	6	-0.104872	0.927217	4.70745	-18.2401
 195	1	3	0.456145	3.52192	10.3712	-14.1239
 196	1	3	0.550902	2.69728	11.9424	-15.6022
 197	1	4	0.015704	3.56337	11.6977	-14.5437
 198	1	2	-0.456801	4.17284	9.83413	-13.2434
 199	1	2	-0.487703	2.49985	12.992	-16.1917
 200	1	1	-0.116566	4.48316	12.7135	-14.1472
 201	1	1	-0.050109	5.72485	12.7627	-14.823
 202	1	1	0.154929	6.32151	14.0238	-15.0966
 203	1	1	0.041555	3.9821	13.8618	-13.4993
 204	1	1	-0.223109	4.64565	15.083	-13.6691
 205	1	1	-0.080449	5.74408	15.1953	-14.5361
 206	1	5	-0.108008	2.68374	13.8552	-12.6974
 207	1	5	-0.182228	6.20123	16.611	-14.8841
 208	1	5	-0.345523	6.32834	11.4501	-15.3439
 209	1	7	0.155183	3.84029	6.82439	-16.9717
 210	1	7	0.172904	1.1435	3.97955	-15.0452
 211	1	7	0.158028	3.08517	2.64676	-14.3104
 212	1	7	0.153129	0.897816	11.0543	-17.6946
 213	1	7	0.142914	0.295126	8.68632	-18.0128
 214	1	7	0.135531	2.64554	7.61689	-14.4919
 215	1	7	0.17765	4.21896	15.9786	-13.2243
 216	1	9	0.046541	2.05446	12.9808	-12.8956
 217	1	9	0.045238	2.0807	14.7447	-12.9189
 218	1	9	0.051941	2.90173	13.8628	-11.6222
 219	1	9	0.087961	6.47776	16.716	-15.9409
 220	1	9	0.066782	7.05392	16.9107	-14.266
 221	1	9	0.075908	5.40377	17.3447	-14.7071
 222	1	9	0.105172	5.80726	11.0901	-16.2407
 223	1	9	0.115625	6.26509	10.6617	-14.5834
 224	1	9	0.140296	7.39433	11.5292	-15.5863
 225	1	1	-0.004194	18.1486	2.9602	-20.2115
 226	1	1	-0.097141	17.0685	2.15603	-19.7515
 227	1	1	-0.172015	17.0958	1.69431	-18.4038
 228	1	2	-0.377994	20.7602	4.65954	-20.5403
 229	1	1	0.033493	19.1758	3.29166	-19.3157
 230	1	1	-0.063739	18.1335	2.0425	-17.5203
 231	1	2	-0.398381	20.669	3.14903	-16.1515
 232	1	1	0.032144	19.1601	2.84806	-18.0086
 233	1	3	0.032313	20.4071	4.10835	-19.5115
 234	1	4	0.461698	21.0417	4.1075	-18.2684
 235	1	3	0.091945	20.3619	3.358	-17.3137
 236	1	1	-0.10563	12.9222	0.100285	-18.6911
 237	1	5	-0.099376	15.9219	1.68304	-20.6914
 238	1	1	-0.043296	14.6292	1.50418	-19.8232
 239	1	1	-0.073043	14.0225	0.237202	-19.5634
 240	1	1	-0.117827	12.3968	1.25493	-18.1057
 241	1	1	-0.037562	14.0614	2.64428	-19.1931
 242	1	1	-0.083705	12.9384	2.49269	-18.3724
 243	1	5	0.396	16.4237	0.341959	-21.355
 244	1	5	0.310495	15.5801	2.72205	-21.8389
 245	1	6	-0.130298	16.7246	-0.599233	-20.4309
 246	1	6	-0.128745	17.5669	0.505173	-22.0593
 247	1	6	-0.120019	15.508	-0.184685	-22.1993
 248	1	6	-0.104287	16.4637	2.73618	-22.8609
 249	1	6	-0.095507	15.5365	3.99489	-21.3872
 250	1	6	-0.104872	14.3726	2.46112	-22.3896
 251	1	3	0.456145	12.1761	3.50829	-17.6012
 252	1	3	0.550902	11.2923	1.43104	-17.1229
 253	1	4	0.015704	11.2342	2.79618	-16.8683
 254	1	2	-0.456801	12.3848	4.70893	-17.5942
 255	1	2	-0.487703	10.6432	0.537295	-16.6071
 256	1	1	-0.116566	10.3722	3.39205	-15.8985
 257	1	1	-0.050109	8.99777	3.58992	-16.1779
 258	1	1	0.154929	8.16225	4.16085	-15.1816
 259	1	1	0.041555	10.9074	3.76625	-14.646
 260	1	1	-0.223109	10.0736	4.35107	-13.683
 261	1	1	-0.080449	8.70923	4.55333	-13.9369
 262	1	5	-0.108008	12.3736	3.52863	-14.2978
 263	1	5	-0.182228	7.84974	5.17923	-12.8409
 264	1	5	-0.345523	8.44913	3.16369	-17.5465
 265	1	7	0.155183	18.2145	3.31498	-21.2351
 266	1	7	0.172904	16.3153	1.03911	-18.0256
 267	1	7	0.158028	18.1512	1.69139	-16.4907
 268	1	7	0.153129	12.4953	-0.876689	-18.4707
 269	1	7	0.142914	14.4015	-0.675772	-20.0059
 270	1	7	0.135531	14.4908	3.63458	-19.3036
 271	1	7	0.17765	10.4907	4.63852	-12.7215
 272	1	9	0.046541	12.6183	3.89862	-13.2947
 273	1	9	0.045238	13.0414	4.04305	-14.9989
 274	1	9	0.051941	12.6124	2.45806	-14.3189
 275	1	9	0.087961	7.16338	4.44074	-12.4061
 276	1	9	0.066782	7.25449	6.01778	-13.225
 277	1	9	0.075908	8.46275	5.57393	-12.0208
 278	1	9	0.105172	8.46347	2.07051	-17.6495
 279	1	9	0.115625	9.05383	3.58703	-18.359
 280	1	9	0.140296	7.42086	3.48834	-17.7394
 281	1	1	-0.004194	24.4871	14.1813	-15.1373
 282	1	1	-0.097141	25.6398	13.9493	-14.3437
 283	1	1	-0.172015	26.6933	14.9076	-14.3943
 284	1	2	-0.377994	22.2385	15.2666	-16.9278
 285	1	1	0.033493	24.4218	15.3359	-15.9173
 286	1	1	-0.063739	26.5837	16.0923	-15.1538
 287	1	2	-0.398381	25.508	18.5631	-16.7138
 288	1	1	0.032144	25.4168	16.2895	-15.8957
 289	1	3	0.032313	23.2848	15.8539	-16.7063
 290	1	4	0.461698	23.6392	17.1609	-17.0386
 291	1	3	0.091945	24.928	17.4938	-16.6183
 292	1	1	-0.10563	22.7849	10.1014	-13.2981
 293	1	5	-0.099376	25.6613	12.7762	-13.3224
 294	1	1	-0.043296	24.641	11.6755	-13.7671
 295	1	1	-0.073043	23.5973	11.1882	-12.9235
 296	1	1	-0.117827	23.0147	9.5084	-14.5399
 297	1	1	-0.037562	24.7915	11.0761	-15.0472
 298	1	1	-0.083705	23.9657	10.0032	-15.4053
 299	1	5	0.396	25.3122	13.4062	-11.9166
 300	1	5	0.310495	27.0758	12.0732	-13.238
 301	1	6	-0.130298	24.0692	13.9409	-11.9134
 302	1	6	-0.128745	26.1366	14.4208	-11.5702
 303	1	6	-0.120019	25.3839	12.5054	-10.91
 304	1	6	-0.104287	28.0004	12.7665	-12.5376
 305	1	6	-0.095507	27.6106	11.8686	-14.4622
 306	1	6	-0.104872	26.9882	10.8617	-12.6423
 307	1	3	0.456145	24.0604	9.07738	-16.5657
 308	1	3	0.550902	22.5088	8.22289	-15.0831
 309	1	4	0.015704	23.243	7.99702	-16.2421
 310	1	2	-0.456801	24.8525	9.17023	-17.4876
 311	1	2	-0.487703	21.7453	7.46352	-14.5106
 312	1	1	-0.116566	23.3235	6.71431	-16.869
 313	1	1	-0.050109	22.1847	6.13961	-17.4911
 314	1	1	0.154929	22.2418	4.79733	-17.9459
 315	1	1	0.041555	24.5119	5.95005	-16.7355
 316	1	1	-0.223109	24.5741	4.66277	-17.2853
 317	1	1	-0.080449	23.4533	4.07396	-17.8832
 318	1	5	-0.108008	25.7396	6.39739	-15.9399
 319	1	5	-0.182228	23.5612	2.63245	-18.37
 320	1	5	-0.345523	20.869	6.92278	-17.5967
 321	1	7	0.155183	23.6164	13.5322	-15.1098
 322	1	7	0.172904	27.5793	14.7881	-13.7784
 323	1	7	0.158028	27.3534	16.8607	-15.1221
 324	1	7	0.153129	22.0435	9.68924	-12.6157
 325	1	7	0.142914	23.419	11.5988	-11.9375
 326	1	7	0.135531	25.5711	11.3941	-15.7345
 327	1	7	0.17765	25.491	4.08896	-17.1795
 328	1	9	0.046541	25.8937	5.73166	-15.0816
 329	1	9	0.045238	25.6829	7.41037	-15.5349
 330	1	9	0.051941	26.6419	6.3474	-16.5614
 331	1	9	0.087961	23.1332	2.51347	-19.3738
 332	1	9	0.066782	23.0421	1.94563	-17.6892
 333	1	9	0.075908	24.6071	2.30473	-18.4287
 334	1	9	0.105172	21.0195	8.00806	-17.5703
 335	1	9	0.115625	20.19	6.66098	-16.7734
 336	1	9	0.140296	20.3494	6.72723	-18.5438
 337	1	1	-0.004194	12.5486	19.5147	-15.4652
 338	1	1	-0.097141	12.5088	18.2726	-14.7749
 339	1	1	-0.172015	11.2271	17.739	-14.4493
 340	1	2	-0.377994	11.9722	22.2794	-16.7421
 341	1	1	0.033493	11.3448	20.1652	-15.7649
 342	1	1	-0.063739	10.0288	18.3967	-14.79
 343	1	2	-0.398381	7.84432	20.4132	-15.727
 344	1	1	0.032144	10.1175	19.622	-15.4455
 345	1	3	0.032313	11.1129	21.4952	-16.3758
 346	1	4	0.461698	9.72929	21.6734	-16.3533
 347	1	3	0.091945	9.04718	20.5652	-15.8617
 348	1	1	-0.10563	16.6526	20.2415	-14.4066
 349	1	5	-0.099376	13.8087	17.5219	-14.3427
 350	1	1	-0.043296	15.099	18.3243	-14.7738
 351	1	1	-0.073043	15.4602	19.5411	-14.1148
 352	1	1	-0.117827	17.4962	19.7263	-15.3948
 353	1	1	-0.037562	15.9808	17.8698	-15.7966
 354	1	1	-0.083705	17.1526	18.5796	-16.0734
 355	1	5	0.396	13.8006	16.0686	-14.9829
 356	1	5	0.310495	13.8276	17.3737	-12.7646
 357	1	6	-0.130298	12.7945	15.2667	-14.5746
 358	1	6	-0.128745	14.9366	15.3876	-14.7075
 359	1	6	-0.120019	13.653	16.1228	-16.3252
 360	1	6	-0.104287	12.9795	16.4439	-12.2748
 361	1	6	-0.095507	13.4699	18.5183	-12.1409
 362	1	6	-0.104872	15.0578	17.04	-12.3128
 363	1	3	0.456145	18.2491	18.2483	-17.015
 364	1	3	0.550902	18.8374	20.1697	-15.8806
 365	1	4	0.015704	19.2209	19.2202	-16.8221
 366	1	2	-0.456801	18.2881	17.2821	-17.7572
 367	1	2	-0.487703	19.4847	21.1125	-15.4574
 368	1	1	-0.116566	20.4969	19.1405	-17.4576
 369	1	1	-0.050109	21.5387	18.413	-16.8376
 370	1	1	0.154929	22.6998	18.0793	-17.5855
 371	1	1	0.041555	20.6536	19.621	-18.774
 372	1	1	-0.223109	21.8412	19.3536	-19.4734
 373	1	1	-0.080449	22.8549	18.5645	-18.9058
 374	1	5	-0.108008	19.5403	20.3942	-19.4696
 375	1	5	-0.182228	24.0708	18.2166	-19.7611
 376	1	5	-0.345523	21.3569	17.9382	-15.3867
 377	1	7	0.155183	13.4758	19.9981	-15.7541
 378	1	7	0.172904	11.1302	16.8028	-13.9073
 379	1	7	0.158028	9.06024	17.9809	-14.5261
 380	1	7	0.153129	16.9207	21.1481	-13.8671
 381	1	7	0.142914	14.8176	19.9681	-13.3543
 382	1	7	0.135531	15.8213	16.964	-16.3678
 383	1	7	0.17765	21.95	19.717	-20.4916
 384	1	9	0.046541	18.6126	19.8096	-19.5051
 385	1	9	0.045238	19.8046	20.645	-20.5042
 386	1	9	0.051941	19.332	21.3347	-18.9446
 387	1	9	0.087961	25.0044	18.5524	-19.2925
 388	1	9	0.066782	24.0238	18.6981	-20.7459
 389	1	9	0.075908	24.141	17.135	-19.9329
 390	1	9	0.105172	20.8757	18.7026	-14.7653
 391	1	9	0.115625	22.3049	17.7208	-14.8813
 392	1	9	0.140296	20.7414	17.0284	-15.347
 393	1	1	-0.004194	6.20647	28.4255	-9.47987
 394	1	1	-0.097141	6.85236	29.6928	-9.45452
 395	1	1	-0.172015	6.0935	30.8157	-9.00909
 396	1	2	-0.377994	4.18379	26.049	-9.4875
 397	1	1	0.033493	4.84463	28.3498	-9.15109
 398	1	1	-0.063739	4.74243	30.7083	-8.63436
 399	1	2	-0.398381	1.87469	29.7805	-7.95994
 400	1	1	0.032144	4.13993	29.4576	-8.72744
 401	1	3	0.032313	3.91469	27.1901	-9.15171
 402	1	4	0.461698	2.69624	27.6974	-8.69067
 403	1	3	0.091945	2.75259	29.0571	-8.40207
 404	1	1	-0.10563	10.7175	27.4956	-11.8438
 405	1	5	-0.099376	8.37188	29.8442	-9.7927
 406	1	1	-0.043296	8.85514	28.7771	-10.8297
 407	1	1	-0.073043	10.1969	28.2919	-10.8109
 408	1	1	-0.117827	9.86778	27.1525	-12.8924
 409	1	1	-0.037562	8.02402	28.3878	-11.9189
 410	1	1	-0.083705	8.54575	27.5394	-12.9095
 411	1	5	0.396	9.13419	29.7455	-8.41266
 412	1	5	0.310495	8.68808	31.2304	-10.4809
 413	1	6	-0.130298	10.4106	30.1908	-8.46304
 414	1	6	-0.128745	9.15958	28.4695	-7.96519
 415	1	6	-0.120019	8.54029	30.4755	-7.44151
 416	1	6	-0.104287	9.90645	31.2436	-11.0694
 417	1	6	-0.095507	8.69054	32.2798	-9.62905
 418	1	6	-0.104872	7.7918	31.5006	-11.4571
 419	1	3	0.456145	7.90075	26.892	-14.0907
 420	1	3	0.550902	10.1382	26.3294	-14.091
 421	1	4	0.015704	8.91133	26.1669	-14.7229
 422	1	2	-0.456801	6.71117	26.9148	-14.3549
 423	1	2	-0.487703	11.2166	25.8409	-14.3846
 424	1	1	-0.116566	8.73611	25.2165	-15.7792
 425	1	1	-0.050109	9.01357	23.8507	-15.5168
 426	1	1	0.154929	9.13421	22.9407	-16.5952
 427	1	1	0.041555	8.4631	25.6349	-17.1029
 428	1	1	-0.223109	8.47404	24.6903	-18.1449
 429	1	1	-0.080449	8.83287	23.3522	-17.911
 430	1	5	-0.108008	8.23551	27.0987	-17.467
 431	1	5	-0.182228	8.93597	22.3871	-19.0889
 432	1	5	-0.345523	9.26336	23.366	-14.0781
 433	1	7	0.155183	6.73457	27.5157	-9.75321
 434	1	7	0.172904	6.544	31.7952	-8.90919
 435	1	7	0.158028	4.17796	31.568	-8.27942
 436	1	7	0.153129	11.7522	27.1583	-11.8321
 437	1	7	0.142914	10.8879	28.5602	-10.0234
 438	1	7	0.135531	7.00089	28.7445	-12.0096
 439	1	7	0.17765	8.27141	25.0215	-19.1601
 440	1	9	0.046541	9.19293	27.6119	-17.6204
 441	1	9	0.045238	7.67897	27.6438	-16.6981
 442	1	9	0.051941	7.65817	27.1923	-18.3952
 443	1	9	0.087961	9.96614	22.0316	-19.2234
 444	1	9	0.066782	8.63114	22.8615	-20.0304
 445	1	9	0.075908	8.28936	21.5122	-18.9412
 446	1	9	0.105172	8.85612	22.3634	-13.9014
 447	1	9	0.115625	8.76955	23.9972	-13.3301
 448	1	9	0.140296	10.3376	23.3438	-13.8465
 449	1	1	-0.004194	0.271351	16.7973	-2.86284
 450	1	1	-0.097141	1.32191	17.5568	-3.4427
 451	1	1	-0.172015	2.39506	17.9629	-2.59772
 452	1	2	-0.377994	-2.03764	16.1005	-1.03885
 453	1	1	0.033493	0.288796	16.5433	-1.49336
 454	1	1	-0.063739	2.41829	17.6588	-1.22405
 455	1	2	-0.398381	1.47997	17.4624	1.65288
 456	1	1	0.032144	1.33438	16.9616	-0.69244
 457	1	3	0.032313	-0.904962	16.3242	-0.64339
 458	1	4	0.461698	-0.508537	16.7795	0.605188
 459	1	3	0.091945	0.858727	17.0087	0.705195
 460	1	1	-0.10563	0.160575	21.6658	-3.68973
 461	1	5	-0.099376	1.24295	18.109	-4.90174
 462	1	1	-0.043296	1.05168	19.6523	-4.8418
 463	1	1	-0.073043	0.488869	20.2925	-3.69549
 464	1	1	-0.117827	0.377236	22.3931	-4.86379
 465	1	1	-0.037562	1.278	20.4386	-5.99605
 466	1	1	-0.083705	0.923354	21.7876	-5.97648
 467	1	5	0.396	-0.000421725	17.5525	-5.70612
 468	1	5	0.310495	2.57478	17.6784	-5.64107
 469	1	6	-0.130298	-0.0125364	16.2012	-5.75519
 470	1	6	-0.128745	-0.0523611	17.9818	-6.98405
 471	1	6	-0.120019	-1.16717	17.9644	-5.16126
 472	1	6	-0.104287	2.53754	17.7828	-6.98673
 473	1	6	-0.095507	2.87829	16.3871	-5.37795
 474	1	6	-0.104872	3.6369	18.4211	-5.25853
 475	1	3	0.456145	0.962206	22.7736	-7.07731
 476	1	3	0.550902	0.0516564	23.8044	-5.21853
 477	1	4	0.015704	0.427552	23.9375	-6.5489
 478	1	2	-0.456801	1.39051	22.5859	-8.20394
 479	1	2	-0.487703	-0.426104	24.65	-4.48074
 480	1	1	-0.116566	0.346918	25.1243	-7.32452
 481	1	1	-0.050109	1.50182	25.9218	-7.47838
 482	1	1	0.154929	1.52402	26.9186	-8.48543
 483	1	1	0.041555	-0.813409	25.3785	-8.08283
 484	1	1	-0.223109	-0.79236	26.3952	-9.04769
 485	1	1	-0.080449	0.375384	27.1376	-9.28663
 486	1	5	-0.108008	-2.07218	24.5356	-7.91309
 487	1	5	-0.182228	0.357865	28.1502	-10.4281
 488	1	5	-0.345523	2.72263	25.6454	-6.58784
 489	1	7	0.155183	-0.63434	16.5297	-3.39307
 490	1	7	0.172904	3.17666	18.6158	-2.97261
 491	1	7	0.158028	3.17098	18.0866	-0.563653
 492	1	7	0.153129	-0.29411	22.1364	-2.81986
 493	1	7	0.142914	0.252165	19.7225	-2.80404
 494	1	7	0.135531	1.65028	20.0153	-6.92275
 495	1	7	0.17765	-1.67743	26.5738	-9.65241
 496	1	9	0.046541	-2.88534	24.8841	-8.5616
 497	1	9	0.045238	-2.4373	24.5822	-6.87906
 498	1	9	0.051941	-1.88202	23.4838	-8.16041
 499	1	9	0.087961	0.173448	29.1651	-10.0527
 500	1	9	0.066782	-0.43187	27.9185	-11.1541
 501	1	9	0.075908	1.30285	28.1563	-10.9857
 502	1	9	0.105172	2.42797	25.3853	-5.56349
 503	1	9	0.115625	3.39217	26.5067	-6.48692
 504	1	9	0.140296	3.31382	24.812	-6.99323
 505	1	1	-0.004194	0.409208	14.1367	11.5191
 506	1	1	-0.097141	-0.789212	14.3469	10.7838
 507	1	1	-0.172015	-1.40388	13.2205	10.1668
 508	1	2	-0.377994	3.00864	13.0615	12.8342
 509	1	1	0.033493	0.949237	12.8471	11.5882
 510	1	1	-0.063739	-0.84663	11.9265	10.2574
 511	1	2	-0.398381	0.952529	9.4353	10.7971
 512	1	1	0.032144	0.340556	11.7703	10.978
 513	1	3	0.032313	2.20009	12.3736	12.2343
 514	1	4	0.461698	2.27099	11.0112	11.9429
 515	1	3	0.091945	1.1748	10.5613	11.2099
 516	1	1	-0.10563	-4.28382	16.1745	7.9769
 517	1	5	-0.099376	-1.49028	15.7357	10.735
 518	1	1	-0.043296	-2.22674	15.9091	9.3576
 519	1	1	-0.073043	-3.64934	15.8797	9.20431
 520	1	1	-0.117827	-3.48099	16.5363	6.89337
 521	1	1	-0.037562	-1.45959	16.1775	8.1949
 522	1	1	-0.083705	-2.10873	16.5286	7.01067
 523	1	5	0.396	-0.469297	16.9501	10.8827
 524	1	5	0.310495	-2.483	15.7746	11.9617
 525	1	6	-0.130298	0.665496	16.7676	10.17
 526	1	6	-0.128745	-0.046429	17.1837	12.1439
 527	1	6	-0.120019	-1.01628	18.1122	10.4577
 528	1	6	-0.104287	-3.18704	16.9287	12.0052
 529	1	6	-0.095507	-1.85501	15.6415	13.1516
 530	1	6	-0.104872	-3.36499	14.7498	11.9397
 531	1	3	0.456145	-1.52816	17.0154	5.74213
 532	1	3	0.550902	-3.82902	17.0165	5.52411
 533	1	4	0.015704	-2.61064	17.2956	4.92244
 534	1	2	-0.456801	-0.341391	17.1564	5.50214
 535	1	2	-0.487703	-4.94557	17.1407	5.04966
 536	1	1	-0.116566	-2.42985	17.7984	3.6085
 537	1	1	-0.050109	-1.87851	16.9441	2.62897
 538	1	1	0.154929	-1.37966	17.5127	1.44141
 539	1	1	0.041555	-2.57182	19.1824	3.36159
 540	1	1	-0.223109	-2.16243	19.7098	2.12961
 541	1	1	-0.080449	-1.55756	18.8922	1.16901
 542	1	5	-0.108008	-3.13755	20.1381	4.40438
 543	1	5	-0.182228	-1.04549	19.5501	-0.11288
 544	1	5	-0.345523	-1.74328	15.438	2.88248
 545	1	7	0.155183	0.925247	14.9379	12.0379
 546	1	7	0.172904	-2.33893	13.337	9.62466
 547	1	7	0.158028	-1.32047	11.0685	9.78512
 548	1	7	0.153129	-5.36865	16.1721	7.88613
 549	1	7	0.142914	-4.30569	15.6614	10.036
 550	1	7	0.135531	-0.375907	16.1839	8.19939
 551	1	7	0.17765	-2.26316	20.7767	1.94174
 552	1	9	0.046541	-4.20113	19.9375	4.58252
 553	1	9	0.045238	-3.05362	21.184	4.08119
 554	1	9	0.051941	-2.60456	20.0524	5.35874
 555	1	9	0.087961	-1.42227	20.5745	-0.221433
 556	1	9	0.066782	-1.37004	19.0021	-1.00661
 557	1	9	0.075908	0.0506715	19.6088	-0.11916
 558	1	9	0.105172	-1.85496	14.8595	1.9557
 559	1	9	0.115625	-2.52365	15.0613	3.55576
 560	1	9	0.140296	-0.767656	15.1941	3.32516
 561	1	1	-0.004194	7.86811	10.2957	4.59435
 562	1	1	-0.097141	7.55981	11.2339	5.61352
 563	1	1	-0.172015	6.36787	11.0273	6.37443
 564	1	2	-0.377994	8.24549	7.75972	2.88039
 565	1	1	0.033493	7.09969	9.13124	4.50163
 566	1	1	-0.063739	5.62394	9.83321	6.28089
 567	1	2	-0.398381	4.77956	6.86718	5.83553
 568	1	1	0.032144	6.04553	8.87778	5.35653
 569	1	3	0.032313	7.37726	7.90165	3.72528
 570	1	4	0.461698	6.49908	6.94781	4.23305
 571	1	3	0.091945	5.63476	7.45822	5.19703
 572	1	1	-0.10563	8.84287	12.7735	9.96356
 573	1	5	-0.099376	8.59112	12.302	6.11513
 574	1	1	-0.043296	8.82927	11.9937	7.62683
 575	1	1	-0.073043	9.03733	13.0189	8.58892
 576	1	1	-0.117827	8.41762	11.4959	10.3468
 577	1	1	-0.037562	8.65425	10.6623	8.09295
 578	1	1	-0.083705	8.34396	10.4625	9.43691
 579	1	5	0.396	7.94323	13.72	5.85404
 580	1	5	0.310495	9.99825	12.2298	5.4148
 581	1	6	-0.130298	7.46335	13.8129	4.59343
 582	1	6	-0.128745	8.79887	14.7541	6.01303
 583	1	6	-0.120019	6.90074	13.9638	6.67994
 584	1	6	-0.104287	10.5538	11.003	5.54002
 585	1	6	-0.095507	10.8862	13.0856	5.96985
 586	1	6	-0.104872	9.93732	12.5237	4.09636
 587	1	3	0.456145	7.45872	9.40116	9.98863
 588	1	3	0.550902	7.62483	11.1102	11.5402
 589	1	4	0.015704	6.9794	9.93255	11.1783
 590	1	2	-0.456801	6.98942	8.47579	9.34879
 591	1	2	-0.487703	7.3681	11.8411	12.4811
 592	1	1	-0.116566	5.72922	9.58011	11.7674
 593	1	1	-0.050109	4.57039	10.3278	11.4357
 594	1	1	0.154929	3.40704	10.2018	12.2346
 595	1	1	0.041555	5.67494	8.60077	12.7779
 596	1	1	-0.223109	4.50939	8.47371	13.5512
 597	1	1	-0.080449	3.39567	9.30144	13.3251
 598	1	5	-0.108008	6.86266	7.68604	13.0469
 599	1	5	-0.182228	2.2058	9.19847	14.2735
 600	1	5	-0.345523	4.55761	11.2868	10.2331
 601	1	7	0.155183	8.7501	10.3719	3.96808
 602	1	7	0.172904	6.10934	11.7147	7.17528
 603	1	7	0.158028	4.81507	9.60851	6.97381
 604	1	7	0.153129	8.8489	13.5924	10.6808
 605	1	7	0.142914	9.23534	14.0397	8.27963
 606	1	7	0.135531	8.50018	9.83215	7.40869
 607	1	7	0.17765	4.48331	7.74696	14.359
 608	1	9	0.046541	7.73756	8.25387	13.3846
 609	1	9	0.045238	7.14123	7.14015	12.1357
 610	1	9	0.051941	6.63261	6.93599	13.8135
 611	1	9	0.087961	2.50875	8.78911	15.2461
 612	1	9	0.066782	1.42721	8.54315	13.8636
 613	1	9	0.075908	1.75774	10.1797	14.4762
 614	1	9	0.105172	4.50432	12.3339	10.5596
 615	1	9	0.115625	3.69504	11.0875	9.58329
 616	1	9	0.140296	5.43318	11.1981	9.58456
 617	1	1	-0.004194	3.02106	-0.771009	-4.1006
 618	1	1	-0.097141	3.67347	0.0811909	-5.02635
 619	1	1	-0.172015	3.30204	-0.0235846	-6.40071
 620	1	2	-0.377994	0.810026	-2.10382	-2.49258
 621	1	1	0.033493	1.93561	-1.53417	-4.53413
 622	1	1	-0.063739	2.2411	-0.850215	-6.82602
 623	1	2	-0.398381	-0.465446	-2.35634	-6.948
 624	1	1	0.032144	1.54599	-1.57372	-5.85665
 625	1	3	0.032313	0.853804	-2.11111	-3.71164
 626	1	4	0.461698	-0.17322	-2.38654	-4.61093
 627	1	3	0.091945	0.207281	-2.21416	-5.93998
 628	1	1	-0.10563	2.81908	2.22534	-1.32307
 629	1	5	-0.099376	4.78667	1.05799	-4.5265
 630	1	1	-0.043296	4.44448	1.65266	-3.11652
 631	1	1	-0.073043	3.10468	1.81003	-2.64643
 632	1	1	-0.117827	3.89399	2.57765	-0.496595
 633	1	1	-0.037562	5.48385	2.11417	-2.27079
 634	1	1	-0.083705	5.17603	2.57862	-0.993912
 635	1	5	0.396	4.9856	2.29638	-5.48133
 636	1	5	0.310495	6.09934	0.183048	-4.4828
 637	1	6	-0.130298	5.76383	3.25521	-4.93041
 638	1	6	-0.128745	3.79971	2.88552	-5.75691
 639	1	6	-0.120019	5.57462	1.98025	-6.65633
 640	1	6	-0.104287	7.24023	0.904204	-4.41884
 641	1	6	-0.095507	6.22266	-0.597846	-5.58031
 642	1	6	-0.104872	6.08723	-0.652306	-3.41848
 643	1	3	0.456145	6.08867	3.08776	0.0479557
 644	1	3	0.550902	3.96048	3.01049	0.933727
 645	1	4	0.015704	5.30564	3.29255	1.17548
 646	1	2	-0.456801	7.28339	3.28705	-0.091908
 647	1	2	-0.487703	3.02472	3.04878	1.71391