
Host: node50

Timers On : Mon Dec 12 15:02:27 2022
Timers Off: Mon Dec 12 15:18:59 2022

Wall Time:      991.74 seconds

                                                       Time (seconds)
Module                                       User      System        Wall        Calls

--------------------------------------------------------------------------------------

**************************************************************************************
