pySIMM System Object

2438 atoms
2647 bonds
4662 angles
6884 dihedrals
672 impropers

10 atom types
14 bond types
24 angle types
9 dihedral types
4 improper types

-213.733846 213.733846 xlo xhi
-213.733846 213.733846 ylo yhi
-213.733846 213.733846 zlo zhi

Masses

   1	14.01	# n
   2	12.01	# c
   3	12.01	# ca
   4	1.008	# hn
   5	16.0	# o
   6	1.008	# ha
   7	12.01	# c3
   8	19.0	# f
   9	14.01	# nh
  10	1.008	# hc

Pair Coeffs

   1	0.17	3.249998523775958	# n
   2	0.086	3.3996695084235347	# c
   3	0.086	3.3996695084235347	# ca
   4	0.0157	1.069078461768407	# hn
   5	0.21	2.959921901149463	# o
   6	0.015	2.59964245953351	# ha
   7	0.1094	3.3996695084235347	# c3
   8	0.061	3.1181455134911875	# f
   9	0.17	3.249998523775958	# nh
  10	0.0157	2.649532787749369	# hc

Bond Coeffs

   1	345.9	1.4906	# c,ca
   2	345.8	1.086	# ca,ha
   3	637.7	1.2183	# c,o
   4	321.0	1.5156	# c3,ca
   5	300.9	1.5375	# c3,c3
   6	384.2	1.4121	# ca,n
   7	330.6	1.0969	# c3,hc
   8	404.6	1.0121	# hn,nh
   9	403.2	1.0129	# hn,n
  10	356.9	1.3497	# c3,f
  11	417.9	1.3859	# ca,nh
  12	427.6	1.3789	# c,n
  13	461.1	1.3984	# ca,ca
  14	452.5	1.4016	# n,nh

Angle Coeffs

   1	74.22	123.05	# n,c,o
   2	40.07	115.12	# hn,nh,hn
   3	68.29	120.95	# ca,ca,nh
   4	66.62	120.02	# ca,ca,ca
   5	48.42	116.07	# ca,nh,hn
   6	68.72	122.6	# ca,c,o
   7	48.33	117.55	# c,n,hn
   8	64.28	120.33	# c,ca,ca
   9	67.68	115.25	# ca,c,n
  10	39.4	107.58	# hc,c3,hc
  11	63.53	120.77	# c3,ca,ca
  12	67.87	120.19	# ca,ca,n
  13	70.89	107.36	# f,c3,f
  14	66.11	109.24	# c3,c3,f
  15	46.8	110.47	# ca,c3,hc
  16	62.86	111.51	# c3,c3,c3
  17	63.15	112.07	# c3,c3,ca
  18	63.82	123.71	# c,n,ca
  19	63.56	112.24	# ca,c3,ca
  20	63.74	127.08	# c,n,c
  21	48.18	119.88	# ca,ca,ha
  22	67.01	118.71	# c,n,nh
  23	67.61	116.03	# ca,nh,n
  24	50.88	108.17	# hn,nh,n

Dihedral Coeffs

   1	2	2.5	2	180	2.0	1	0	# hn,n,c,o
   2	1	3.625	2	180	# X,ca,ca,X
   3	1	0.15555555555555556	3	0	# X,c3,c3,X
   4	1	1.0	2	180	# X,c,ca,X
   5	1	0.0	2	0	# X,c3,ca,X
   6	1	2.5	2	180	# X,c,n,X
   7	1	0.45	2	180	# X,ca,n,X
   8	1	1.05	2	180	# X,ca,nh,X
   9	1	1.1	2	0	# X,n,nh,X

Improper Coeffs

   1	10.5	-1	2	# c,X,X,o
   2	1.1	-1	2	# ca,X,X,ha
   3	1.1	-1	2	# ca,ca,ca,c3
   4	1.1	-1	2	# n,X,X,hn

Atoms

   1	1	1	0.4882	-19.5254	46.6621	-8.45515
   2	1	2	0.025477	-19.9329	47.902	-8.94008
   3	1	3	-0.008635	-20.2244	47.6504	-10.3742
   4	1	2	0.050267	-19.4463	45.6644	-9.42262
   5	1	3	0.063619	-19.9267	46.3305	-10.6613
   6	1	5	-0.374081	-19.9935	48.974	-8.36052
   7	1	5	-0.389097	-19.0239	44.5235	-9.31593
   8	1	3	-0.003634	-20.7251	48.5227	-11.3461
   9	1	3	-0.04742	-20.0844	45.8201	-11.951
  10	1	3	-0.200211	-20.5813	46.6856	-12.9472
  11	1	3	-0.05806	-20.9399	48.0345	-12.6621
  12	1	6	0.16443	-20.938	49.5459	-11.0568
  13	1	6	0.154232	-19.8315	44.7848	-12.1687
  14	1	6	0.179048	-20.6963	46.2941	-13.9556
  15	1	7	-0.076903	-21.4997	48.9315	-13.8046
  16	1	7	0.238473	-22.3638	50.1458	-13.2837
  17	1	8	-0.092232	-23.0672	50.7182	-14.2871
  18	1	8	-0.075474	-21.6275	51.1334	-12.7262
  19	1	8	-0.095932	-23.2696	49.7585	-12.3574
  20	1	7	0.340597	-20.2429	49.476	-14.5861
  21	1	8	-0.110855	-19.3367	50.0325	-13.7496
  22	1	8	-0.104879	-20.5554	50.4232	-15.4993
  23	1	8	-0.10758	-19.5891	48.4851	-15.2347
  24	1	3	-0.066666	-22.4542	48.0634	-14.68
  25	1	3	-0.06911	-22.3977	48.044	-16.099
  26	1	3	-0.048109	-23.2717	47.205	-16.7999
  27	1	3	-0.057883	-23.434	47.2548	-14.0357
  28	1	3	-0.116273	-24.3063	46.4179	-14.7606
  29	1	3	-0.113036	-24.1935	46.4082	-16.1539
  30	1	2	0.502524	-24.925	45.6176	-17.1802
  31	1	1	0.0355	-24.3753	45.9926	-18.3996
  32	1	2	0.450202	-23.385	46.9567	-18.2603
  33	1	3	-0.097429	-24.7521	45.4256	-19.6526
  34	1	3	-0.043121	-23.9546	44.4135	-20.2418
  35	1	3	-0.007101	-24.3195	43.8868	-21.5043
  36	1	3	0.055122	-25.9122	45.8914	-20.307
  37	1	3	-0.325582	-26.2662	45.3497	-21.5507
  38	1	3	0.061609	-25.4776	44.36	-22.1553
  39	1	7	0.04075	-22.7063	43.9106	-19.5064
  40	1	9	-0.311814	-23.5424	42.9074	-22.1171
  41	1	6	0.16104	-25.038	45.7898	-14.2557
  42	1	6	0.14041	-23.5087	47.2583	-12.9508
  43	1	6	0.147774	-21.6945	48.6418	-16.6694
  44	1	5	-0.476838	-22.7033	47.4663	-19.1332
  45	1	5	-0.479462	-25.7917	44.7867	-16.969
  46	1	7	-0.144762	-26.7951	46.9733	-19.695
  47	1	10	0.052647	-26.2082	47.8547	-19.4078
  48	1	10	0.065097	-27.3104	46.5996	-18.801
  49	1	10	0.048024	-27.5659	47.3142	-20.3972
  50	1	7	-0.169984	-25.8918	43.8117	-23.5126
  51	1	6	0.223059	-27.1587	45.7044	-22.056
  52	1	10	0.004219	-26.7264	44.3751	-23.9484
  53	1	10	0.100409	-26.1994	42.7627	-23.4254
  54	1	10	0.163068	-25.0531	43.8592	-24.2176
  55	1	10	0.042023	-22.9447	43.6444	-18.469
  56	1	10	0.011973	-21.9311	44.6863	-19.4834
  57	1	10	-0.068283	-22.2589	43.0187	-19.9615
  58	1	4	0.330652	-22.7218	42.555	-21.6386
  59	1	1	0.4882	-29.0516	44.7196	3.00287
  60	1	2	0.025477	-29.2534	45.868	2.24369
  61	1	3	-0.008635	-28.9931	45.4276	0.848805
  62	1	2	0.050267	-28.7133	43.5904	2.26425
  63	1	3	0.063619	-28.6645	44.0838	0.862273
  64	1	5	-0.374081	-29.6304	46.9708	2.60667
  65	1	5	-0.389097	-28.6077	42.4346	2.6422
  66	1	3	-0.003634	-29.105	46.1472	-0.345185
  67	1	3	-0.04742	-28.4083	43.3929	-0.323982
  68	1	3	-0.200211	-28.5057	44.1041	-1.53878
  69	1	3	-0.05806	-28.8571	45.4834	-1.57719
  70	1	6	0.16443	-29.4086	47.1862	-0.285152
  71	1	6	0.154232	-28.1643	42.333	-0.300261
  72	1	6	0.179048	-28.3317	43.5651	-2.46787
  73	1	7	-0.076903	-29.0581	46.1724	-2.96039
  74	1	7	0.238473	-30.4642	45.6762	-3.48112
  75	1	8	-0.092232	-31.4131	45.7746	-2.52161
  76	1	8	-0.075474	-30.434	44.3751	-3.84978
  77	1	8	-0.095932	-30.9273	46.3791	-4.53945
  78	1	7	0.340597	-29.0533	47.7482	-2.88699
  79	1	8	-0.110855	-30.1558	48.2586	-2.29251
  80	1	8	-0.104879	-28.991	48.3064	-4.1178
  81	1	8	-0.10758	-27.9783	48.2105	-2.20904
  82	1	3	-0.066666	-27.8761	45.7819	-3.89758
  83	1	3	-0.06911	-26.5543	45.7552	-3.37765
  84	1	3	-0.048109	-25.4892	45.4425	-4.23356
  85	1	3	-0.057883	-28.0583	45.5186	-5.28608
  86	1	3	-0.116273	-26.9741	45.2083	-6.13
  87	1	3	-0.113036	-25.6947	45.1742	-5.57083
  88	1	2	0.502524	-24.3782	44.897	-6.20154
  89	1	1	0.0355	-23.4446	45.0115	-5.17986
  90	1	2	0.450202	-24.028	45.345	-3.96255
  91	1	3	-0.097429	-22.0454	44.8213	-5.38181
  92	1	3	-0.043121	-21.2819	45.8088	-6.05199
  93	1	3	-0.007101	-19.9185	45.5547	-6.35363
  94	1	3	0.055122	-21.442	43.6165	-4.96577
  95	1	3	-0.325582	-20.0787	43.4067	-5.21154
  96	1	3	0.061609	-19.3146	44.3593	-5.90053
  97	1	7	0.04075	-21.9285	47.1476	-6.42565
  98	1	9	-0.311814	-19.1518	46.4441	-7.1136
  99	1	6	0.16104	-27.1219	45.0115	-7.18981
 100	1	6	0.14041	-29.0403	45.5621	-5.74189
 101	1	6	0.147774	-26.3508	45.9791	-2.33266
 102	1	5	-0.476838	-23.4804	45.508	-2.88549
 103	1	5	-0.479462	-24.1844	44.6273	-7.37579
 104	1	7	-0.144762	-22.2374	42.5279	-4.25533
 105	1	10	0.052647	-23.1473	42.2709	-4.81149
 106	1	10	0.065097	-22.5313	42.8531	-3.24937
 107	1	10	0.048024	-21.6551	41.6052	-4.14388
 108	1	7	-0.169984	-17.8482	44.046	-6.1781
 109	1	6	0.223059	-19.6199	42.4785	-4.88579
 110	1	10	0.004219	-17.2104	44.9329	-6.07777
 111	1	10	0.100409	-17.7229	43.6434	-7.19122
 112	1	10	0.163068	-17.4633	43.2943	-5.47878
 113	1	10	0.042023	-21.2262	47.9787	-6.2923
 114	1	10	0.011973	-22.2694	47.1432	-7.46812
 115	1	10	-0.068283	-22.7943	47.3903	-5.7978
 116	1	4	0.330652	-18.1573	46.2784	-7.12666
 117	1	1	0.4882	-27.6301	33.6238	15.6268
 118	1	2	0.025477	-28.4418	33.4555	14.5088
 119	1	3	-0.008635	-27.8494	34.3617	13.4936
 120	1	2	0.050267	-26.609	34.555	15.4624
 121	1	3	0.063619	-26.7689	35.015	14.058
 122	1	5	-0.374081	-29.4591	32.7922	14.3886
 123	1	5	-0.389097	-25.8311	34.9929	16.2948
 124	1	3	-0.003634	-28.2556	34.6047	12.1783
 125	1	3	-0.04742	-26.0378	35.9575	13.3324
 126	1	3	-0.200211	-26.435	36.2211	12.0049
 127	1	3	-0.05806	-27.5461	35.5624	11.4057
 128	1	6	0.16443	-29.1056	34.0495	11.7976
 129	1	6	0.154232	-25.1907	36.4666	13.787
 130	1	6	0.179048	-25.8669	36.9511	11.4317
 131	1	7	-0.076903	-27.9091	35.8934	9.92761
 132	1	7	0.238473	-26.8199	35.1746	9.03904
 133	1	8	-0.092232	-25.6088	35.7667	9.14621
 134	1	8	-0.075474	-27.1308	35.1451	7.7235
 135	1	8	-0.095932	-26.6471	33.8869	9.41647
 136	1	7	0.340597	-29.3442	35.3949	9.49989
 137	1	8	-0.110855	-29.4332	34.0485	9.40668
 138	1	8	-0.104879	-29.709	35.8895	8.29482
 139	1	8	-0.10758	-30.2953	35.8012	10.3719
 140	1	3	-0.066666	-27.9277	37.4413	9.76403
 141	1	3	-0.06911	-27.4355	38.0913	8.60169
 142	1	3	-0.048109	-27.5459	39.4836	8.50625
 143	1	3	-0.057883	-28.5311	38.2394	10.7777
 144	1	3	-0.116273	-28.6318	39.6406	10.6624
 145	1	3	-0.113036	-28.1257	40.2383	9.50474
 146	1	2	0.502524	-28.1318	41.6604	9.06829
 147	1	1	0.0355	-27.5577	41.6638	7.80351
 148	1	2	0.450202	-27.1602	40.3962	7.39825
 149	1	3	-0.097429	-27.4247	42.8302	6.99453
 150	1	3	-0.043121	-28.4669	43.2072	6.11395
 151	1	3	-0.007101	-28.3044	44.3412	5.27834
 152	1	3	0.055122	-26.2399	43.5892	7.06232
 153	1	3	-0.325582	-26.1054	44.7295	6.25925
 154	1	3	0.061609	-27.1231	45.1172	5.37465
 155	1	7	0.04075	-29.7432	42.3545	6.05857
 156	1	9	-0.311814	-29.3256	44.6693	4.38317
 157	1	6	0.16104	-29.107	40.2406	11.4362
 158	1	6	0.14041	-28.9454	37.7669	11.6647
 159	1	6	0.147774	-26.9964	37.551	7.76941
 160	1	5	-0.476838	-26.6235	40.0733	6.35294
 161	1	5	-0.479462	-28.593	42.603	9.689
 162	1	7	-0.144762	-25.1006	43.1984	7.99509
 163	1	10	0.052647	-25.4399	43.1588	9.03762
 164	1	10	0.065097	-24.2719	43.9152	7.94819
 165	1	10	0.048024	-24.6968	42.2135	7.72858
 166	1	7	-0.169984	-26.9166	46.3936	4.56851
 167	1	6	0.223059	-25.1949	45.317	6.31954
 168	1	10	0.004219	-26.6381	46.1671	3.532
 169	1	10	0.100409	-26.1215	47.0166	4.99464
 170	1	10	0.163068	-27.8262	47.0079	4.55964
 171	1	10	0.042023	-30.1362	42.1654	7.06521
 172	1	10	0.011973	-29.5395	41.383	5.59111
 173	1	10	-0.068283	-30.5619	42.8213	5.49773
 174	1	4	0.330652	-30.1769	44.1342	4.47568
 175	1	1	0.4882	-20.6317	36.8322	29.29
 176	1	2	0.025477	-20.2117	35.5195	29.0991
 177	1	3	-0.008635	-20.5535	35.2308	27.6834
 178	1	2	0.050267	-21.2548	37.403	28.1849
 179	1	3	0.063619	-21.184	36.3401	27.1483
 180	1	5	-0.374081	-19.7271	34.7451	29.9067
 181	1	5	-0.389097	-21.7439	38.5153	28.067
 182	1	3	-0.003634	-20.2971	34.0857	26.9211
 183	1	3	-0.04742	-21.6206	36.352	25.8229
 184	1	3	-0.200211	-21.3875	35.2016	25.0425
 185	1	3	-0.05806	-20.7214	34.0571	25.566
 186	1	6	0.16443	-19.7656	33.2642	27.3903
 187	1	6	0.154232	-22.1123	37.2305	25.4112
 188	1	6	0.179048	-21.7125	35.211	24.0043
 189	1	7	-0.076903	-20.4406	32.8589	24.6146
 190	1	7	0.238473	-19.2258	33.2938	23.7038
 191	1	8	-0.092232	-18.1796	33.7266	24.4443
 192	1	8	-0.075474	-19.542	34.3204	22.882
 193	1	8	-0.095932	-18.7612	32.2898	22.9262
 194	1	7	0.340597	-20.0648	31.5174	25.3621
 195	1	8	-0.110855	-18.836	31.5435	25.9255
 196	1	8	-0.104879	-20.0804	30.4588	24.5202
 197	1	8	-0.10758	-20.937	31.2212	26.3523
 198	1	3	-0.066666	-21.752	32.5723	23.8261
 199	1	3	-0.06911	-21.7956	32.4376	22.4125
 200	1	3	-0.048109	-23.0234	32.1639	21.7972
 201	1	3	-0.057883	-22.965	32.4174	24.5555
 202	1	3	-0.116273	-24.1844	32.1139	23.9197
 203	1	3	-0.113036	-24.1795	31.9884	22.5286
 204	1	2	0.502524	-25.2821	31.6653	21.5868
 205	1	1	0.0355	-24.7127	31.6978	20.3202
 206	1	2	0.450202	-23.3547	31.9914	20.3577
 207	1	3	-0.097429	-25.4379	31.4191	19.1243
 208	1	3	-0.043121	-26.3136	32.3863	18.5721
 209	1	3	-0.007101	-27.04	32.0812	17.3926
 210	1	3	0.055122	-25.2899	30.1585	18.51
 211	1	3	-0.325582	-26.0194	29.8678	17.3511
 212	1	3	0.061609	-26.8981	30.806	16.7929
 213	1	7	0.04075	-26.435	33.7632	19.2437
 214	1	9	-0.311814	-27.9191	33.0324	16.8709
 215	1	6	0.16104	-25.1025	31.979	24.4886
 216	1	6	0.14041	-22.9643	32.5245	25.637
 217	1	6	0.147774	-20.9159	32.5335	21.7843
 218	1	5	-0.476838	-22.5796	32.0946	19.4226
 219	1	5	-0.479462	-26.4384	31.4228	21.8885
 220	1	7	-0.144762	-24.3701	29.0886	19.0866
 221	1	10	0.052647	-24.4742	28.1343	18.5562
 222	1	10	0.065097	-24.5952	28.898	20.1431
 223	1	10	0.048024	-23.3184	29.391	19.0089
 224	1	7	-0.169984	-27.7034	30.3785	15.5731
 225	1	6	0.223059	-25.9141	28.8921	16.8867
 226	1	10	0.004219	-27.6714	29.2917	15.426
 227	1	10	0.100409	-27.3155	30.8426	14.6591
 228	1	10	0.163068	-28.7601	30.6537	15.6799
 229	1	10	0.042023	-25.5013	34.3288	19.1304
 230	1	10	0.011973	-26.6422	33.6723	20.3157
 231	1	10	-0.068283	-27.2417	34.3842	18.836
 232	1	4	0.330652	-28.142	33.8018	17.4867
 233	1	1	0.4882	-17.0959	30.1759	42.6402
 234	1	2	0.025477	-15.8531	30.6712	42.2573
 235	1	3	-0.008635	-16.1705	31.9206	41.5178
 236	1	2	0.050267	-18.1728	30.9761	42.2681
 237	1	3	0.063619	-17.5441	32.0837	41.5025
 238	1	5	-0.374081	-14.749	30.1814	42.428
 239	1	5	-0.389097	-19.3652	30.8002	42.4573
 240	1	3	-0.003634	-15.3116	32.8233	40.8793
 241	1	3	-0.04742	-18.137	33.1312	40.7969
 242	1	3	-0.200211	-17.2911	34.0255	40.1102
 243	1	3	-0.05806	-15.8727	33.9083	40.1519
 244	1	6	0.16443	-14.2434	32.6507	40.9543
 245	1	6	0.154232	-19.2197	33.2342	40.7681
 246	1	6	0.179048	-17.7522	34.8269	39.5377
 247	1	7	-0.076903	-15.0178	34.9648	39.3887
 248	1	7	0.238473	-15.196	36.3381	40.1554
 249	1	8	-0.092232	-16.4467	36.8401	40.0475
 250	1	8	-0.075474	-14.3562	37.3069	39.7261
 251	1	8	-0.095932	-14.9683	36.1926	41.4806
 252	1	7	0.340597	-13.476	34.6215	39.3242
 253	1	8	-0.110855	-13.242	33.3846	38.8298
 254	1	8	-0.104879	-12.8732	34.6811	40.5332
 255	1	8	-0.10758	-12.8066	35.469	38.5099
 256	1	3	-0.066666	-15.525	34.9883	37.9184
 257	1	3	-0.06911	-15.7976	36.1895	37.2117
 258	1	3	-0.048109	-16.2221	36.1074	35.8795
 259	1	3	-0.057883	-15.6914	33.7506	37.2339
 260	1	3	-0.116273	-16.0953	33.6916	35.8858
 261	1	3	-0.113036	-16.3503	34.8978	35.2296
 262	1	2	0.502524	-16.7853	35.1614	33.8333
 263	1	1	0.0355	-16.9261	36.5411	33.7402
 264	1	2	0.450202	-16.6029	37.1855	34.9294
 265	1	3	-0.097429	-17.389	37.2166	32.5711
 266	1	3	-0.043121	-18.7386	37.0855	32.1573
 267	1	3	-0.007101	-19.1766	37.7347	30.9757
 268	1	3	0.055122	-16.4925	38.0099	31.8241
 269	1	3	-0.325582	-16.9583	38.7032	30.6998
 270	1	3	0.061609	-18.2876	38.5835	30.273
 271	1	7	0.04075	-19.7086	36.2114	32.9661
 272	1	9	-0.311814	-20.4769	37.5072	30.5164
 273	1	6	0.16104	-16.207	32.7416	35.3667
 274	1	6	0.14041	-15.4912	32.8149	37.7489
 275	1	6	0.147774	-15.688	37.1723	37.6589
 276	1	5	-0.476838	-16.644	38.3788	35.1779
 277	1	5	-0.479462	-16.9785	34.3207	32.9718
 278	1	7	-0.144762	-15.0238	38.1477	32.2078
 279	1	10	0.052647	-14.4289	38.5598	31.3836
 280	1	10	0.065097	-14.5827	37.1772	32.4658
 281	1	10	0.048024	-14.904	38.8186	33.0673
 282	1	7	-0.169984	-18.7242	39.4133	29.0721
 283	1	6	0.223059	-16.2761	39.3461	30.152
 284	1	10	0.004219	-18.0347	40.2463	28.8862
 285	1	10	0.100409	-19.7166	39.853	29.2325
 286	1	10	0.163068	-18.7587	38.8082	28.1598
 287	1	10	0.042023	-19.665	35.1679	32.6289
 288	1	10	0.011973	-20.7487	36.5469	32.8814
 289	1	10	-0.068283	-19.4807	36.2252	34.039
 290	1	4	0.330652	-21.1036	37.0516	31.1616
 291	1	1	0.4882	-21.9682	20.4131	52.6192
 292	1	2	0.025477	-21.6646	21.4644	51.7607
 293	1	3	-0.008635	-22.9589	21.7732	51.1018
 294	1	2	0.050267	-23.2916	19.9882	52.5711
 295	1	3	0.063619	-23.9167	20.8935	51.5729
 296	1	5	-0.374081	-20.579	21.9631	51.5146
 297	1	5	-0.389097	-23.8228	19.0612	53.1629
 298	1	3	-0.003634	-23.2609	22.7403	50.1385
 299	1	3	-0.04742	-25.2275	20.9316	51.096
 300	1	3	-0.200211	-25.5472	21.8859	50.1079
 301	1	3	-0.05806	-24.5729	22.7929	49.5977
 302	1	6	0.16443	-22.4786	23.4195	49.8069
 303	1	6	0.154232	-25.9713	20.2355	51.4775
 304	1	6	0.179048	-26.5716	21.9035	49.753
 305	1	7	-0.076903	-24.9014	23.8611	48.5102
 306	1	7	0.238473	-26.1796	23.5147	47.6549
 307	1	8	-0.092232	-27.337	23.6528	48.3407
 308	1	8	-0.075474	-26.1327	22.2466	47.1863
 309	1	8	-0.095932	-26.2879	24.3137	46.5688
 310	1	7	0.340597	-25.1326	25.2118	49.2921
 311	1	8	-0.110855	-23.9725	25.6993	49.7879
 312	1	8	-0.104879	-25.9563	25.0388	50.3518
 313	1	8	-0.10758	-25.6891	26.1859	48.5375
 314	1	3	-0.066666	-23.7194	23.9298	47.4954
 315	1	3	-0.06911	-23.316	25.1454	46.8796
 316	1	3	-0.048109	-22.2677	25.1223	45.951
 317	1	3	-0.057883	-23.0627	22.7285	47.1012
 318	1	3	-0.116273	-21.9911	22.7306	46.1863
 319	1	3	-0.113036	-21.6094	23.9545	45.6301
 320	1	2	0.502524	-20.5613	24.2718	44.6251
 321	1	1	0.0355	-20.6796	25.6346	44.3742
 322	1	2	0.450202	-21.6835	26.2225	45.137
 323	1	3	-0.097429	-19.879	26.3323	43.4168
 324	1	3	-0.043121	-18.9019	27.2731	43.8316
 325	1	3	-0.007101	-18.1136	27.9504	42.8643
 326	1	3	0.055122	-20.0656	26.0701	42.0427
 327	1	3	-0.325582	-19.2323	26.6885	41.1031
 328	1	3	0.061609	-18.2486	27.6072	41.4935
 329	1	7	0.04075	-18.7195	27.5771	45.3264
 330	1	9	-0.311814	-17.2363	28.9465	43.3151
 331	1	6	0.16104	-21.4863	21.8094	45.9016
 332	1	6	0.14041	-23.3841	21.7737	47.5099
 333	1	6	0.147774	-23.8012	26.094	47.0836
 334	1	5	-0.476838	-22.0432	27.3872	45.1389
 335	1	5	-0.479462	-19.7794	23.4766	44.1318
 336	1	7	-0.144762	-21.145	25.1184	41.5382
 337	1	10	0.052647	-20.841	24.0728	41.6694
 338	1	10	0.065097	-21.3475	25.2703	40.4711
 339	1	10	0.048024	-22.0945	25.2696	42.0664
 340	1	7	-0.169984	-17.3602	28.1745	40.3918
 341	1	6	0.223059	-19.3514	26.4495	40.0508
 342	1	10	0.004219	-17.3404	27.5152	39.5149
 343	1	10	0.100409	-16.3208	28.2803	40.7267
 344	1	10	0.163068	-17.7286	29.1498	40.0539
 345	1	10	0.042023	-18.8794	26.6895	45.9503
 346	1	10	0.011973	-19.426	28.3499	45.6536
 347	1	10	-0.068283	-17.7096	27.932	45.5671
 348	1	4	0.330652	-17.2518	29.1384	44.3063
 349	1	1	0.4882	-6.04269	18.1977	55.8874
 350	1	2	0.025477	-6.52437	19.2779	56.6215
 351	1	3	-0.008635	-7.65665	19.7877	55.8117
 352	1	2	0.050267	-6.75264	17.9307	54.721
 353	1	3	0.063619	-7.80398	18.9839	54.6965
 354	1	5	-0.374081	-6.19476	19.6618	57.7323
 355	1	5	-0.389097	-6.64936	16.9756	53.968
 356	1	3	-0.003634	-8.52752	20.8454	56.0852
 357	1	3	-0.04742	-8.85803	19.186	53.8032
 358	1	3	-0.200211	-9.76384	20.2343	54.0744
 359	1	3	-0.05806	-9.61987	21.0838	55.2092
 360	1	6	0.16443	-8.34535	21.4291	56.9803
 361	1	6	0.154232	-8.98082	18.5335	52.9414
 362	1	6	0.179048	-10.6043	20.3727	53.3982
 363	1	7	-0.076903	-10.6823	22.1991	55.4607
 364	1	7	0.238473	-10.521	22.924	56.8534
 365	1	8	-0.092232	-11.5389	23.7783	57.1048
 366	1	8	-0.075474	-9.37962	23.6447	56.9371
 367	1	8	-0.095932	-10.5284	22.0455	57.8825
 368	1	7	0.340597	-10.5126	23.2592	54.2997
 369	1	8	-0.110855	-9.20958	23.5682	54.1065
 370	1	8	-0.104879	-11.147	24.4306	54.5289
 371	1	8	-0.10758	-10.9786	22.7977	53.1175
 372	1	3	-0.066666	-12.0857	21.531	55.4956
 373	1	3	-0.06911	-13.2573	22.2076	55.0631
 374	1	3	-0.048109	-14.4991	21.5784	55.2211
 375	1	3	-0.057883	-12.2281	20.2424	56.0861
 376	1	3	-0.116273	-13.4842	19.6234	56.2275
 377	1	3	-0.113036	-14.608	20.3239	55.7853
 378	1	2	0.502524	-16.0474	19.974	55.8717
 379	1	1	0.0355	-16.7284	21.0675	55.3563
 380	1	2	0.450202	-15.8716	22.0742	54.9265
 381	1	3	-0.097429	-18.1509	21.1434	55.3289
 382	1	3	-0.043121	-18.8797	20.4615	54.3268
 383	1	3	-0.007101	-20.2964	20.453	54.3731
 384	1	3	0.055122	-18.8245	21.8357	56.3551
 385	1	3	-0.325582	-20.2244	21.8191	56.3922
 386	1	3	0.061609	-20.967	21.1219	55.4279
 387	1	7	0.04075	-18.1128	19.7326	53.2134
 388	1	9	-0.311814	-20.991	19.7523	53.3851
 389	1	6	0.16104	-13.5861	18.6469	56.6971
 390	1	6	0.14041	-11.3586	19.7179	56.4728
 391	1	6	0.147774	-13.2321	23.2112	54.6508
 392	1	5	-0.476838	-16.1611	23.1547	54.4422
 393	1	5	-0.479462	-16.5117	18.9401	56.3215
 394	1	7	-0.144762	-18.0644	22.5736	57.4508
 395	1	10	0.052647	-17.4066	21.8919	58.0038
 396	1	10	0.065097	-18.7433	23.0348	58.1781
 397	1	10	0.048024	-17.4476	23.3769	57.0288
 398	1	7	-0.169984	-22.4814	21.0812	55.5946
 399	1	6	0.223059	-20.7387	22.3393	57.1939
 400	1	10	0.004219	-22.9796	21.7411	54.874
 401	1	10	0.100409	-22.7862	21.4027	56.5974
 402	1	10	0.163068	-22.8657	20.0615	55.4621
 403	1	10	0.042023	-17.622	18.8332	53.6057
 404	1	10	0.011973	-17.3353	20.3779	52.7853
 405	1	10	-0.068283	-18.7446	19.4155	52.375
 406	1	4	0.330652	-20.4207	19.2392	52.7288
 407	1	1	0.4882	5.67333	5.96984	55.5412
 408	1	2	0.025477	4.69369	5.78911	54.57
 409	1	3	-0.008635	4.14873	7.15448	54.3501
 410	1	2	0.050267	5.8618	7.29077	55.9327
 411	1	3	0.063619	4.85377	8.04322	55.1425
 412	1	5	-0.374081	4.33825	4.75944	54.0219
 413	1	5	-0.389097	6.62895	7.74013	56.7694
 414	1	3	-0.003634	3.0846	7.57143	53.5425
 415	1	3	-0.04742	4.56348	9.40816	55.1317
 416	1	3	-0.200211	3.50591	9.85013	54.3115
 417	1	3	-0.05806	2.72267	8.94586	53.5381
 418	1	6	0.16443	2.56065	6.82245	52.9585
 419	1	6	0.154232	5.13625	10.0991	55.7465
 420	1	6	0.179048	3.27616	10.9137	54.2979
 421	1	7	-0.076903	1.52615	9.50333	52.7079
 422	1	7	0.238473	0.468324	8.40389	52.3131
 423	1	8	-0.092232	0.917343	7.54628	51.3691
 424	1	8	-0.075474	-0.664714	8.95509	51.8207
 425	1	8	-0.095932	0.0960479	7.66699	53.3844
 426	1	7	0.340597	2.15734	10.1281	51.4042
 427	1	8	-0.110855	2.8485	11.2582	51.678
 428	1	8	-0.104879	1.24294	10.4368	50.4573
 429	1	8	-0.10758	3.03556	9.27954	50.822
 430	1	3	-0.066666	0.760875	10.5407	53.5847
 431	1	3	-0.06911	0.221083	11.7424	53.053
 432	1	3	-0.048109	-0.40897	12.6437	53.92
 433	1	3	-0.057883	0.56795	10.2726	54.9705
 434	1	3	-0.116273	-0.0479077	11.203	55.8302
 435	1	3	-0.113036	-0.51258	12.3966	55.2725
 436	1	2	0.502524	-1.14852	13.5762	55.9131
 437	1	1	0.0355	-1.40748	14.4713	54.8813
 438	1	2	0.450202	-1.01289	13.9745	53.6432
 439	1	3	-0.097429	-1.95555	15.7738	55.0918
 440	1	3	-0.043121	-3.29157	15.9296	55.5403
 441	1	3	-0.007101	-3.79002	17.2226	55.8446
 442	1	3	0.055122	-1.13267	16.9069	54.9154
 443	1	3	-0.325582	-1.64548	18.1801	55.1882
 444	1	3	0.061609	-2.9516	18.353	55.6671
 445	1	7	0.04075	-4.18305	14.6919	55.7254
 446	1	9	-0.311814	-5.07105	17.3178	56.3988
 447	1	6	0.16104	-0.153812	11.0076	56.8957
 448	1	6	0.14041	0.928441	9.34028	55.3977
 449	1	6	0.147774	0.289218	12.0014	52.0017
 450	1	5	-0.476838	-1.09918	14.5106	52.5518
 451	1	5	-0.479462	-1.35252	13.72	57.107
 452	1	7	-0.144762	0.321585	16.7954	54.47
 453	1	10	0.052647	0.872612	17.7262	54.6513
 454	1	10	0.065097	0.386305	16.5833	53.3956
 455	1	10	0.048024	0.850516	16.0009	55.01
 456	1	7	-0.169984	-3.37185	19.7684	56.041
 457	1	6	0.223059	-1.00319	19.045	55.0559
 458	1	10	0.004219	-4.15392	20.1446	55.3708
 459	1	10	0.100409	-2.53345	20.4721	55.9824
 460	1	10	0.163068	-3.73807	19.8061	57.0743
 461	1	10	0.042023	-4.01173	14.2328	56.707
 462	1	10	0.011973	-3.98757	13.9311	54.9597
 463	1	10	-0.068283	-5.25328	14.9213	55.6555
 464	1	4	0.330652	-5.54448	16.4428	56.572
 465	1	1	0.4882	8.71936	-5.41758	48.6782
 466	1	2	0.025477	7.53679	-5.73588	49.3367
 467	1	3	-0.008635	7.77091	-5.29156	50.7351
 468	1	2	0.050267	9.66789	-4.7777	49.472
 469	1	3	0.063619	9.01806	-4.69669	50.8059
 470	1	5	-0.374081	6.58084	-6.36964	48.9204
 471	1	5	-0.389097	10.825	-4.4947	49.2076
 472	1	3	-0.003634	7.00656	-5.53443	51.8819
 473	1	3	-0.04742	9.53552	-4.2449	52.0212
 474	1	3	-0.200211	8.7676	-4.45481	53.1847
 475	1	3	-0.05806	7.51527	-5.13011	53.1451
 476	1	6	0.16443	6.07721	-6.08241	51.7716
 477	1	6	0.154232	10.5248	-3.79446	52.0639
 478	1	6	0.179048	9.18724	-4.14644	54.1399
 479	1	7	-0.076903	6.83951	-5.52582	54.4886
 480	1	7	0.238473	5.3194	-5.9341	54.3448
 481	1	8	-0.092232	4.61237	-5.03296	53.6268
 482	1	8	-0.075474	4.71452	-6.01411	55.5521
 483	1	8	-0.095932	5.13868	-7.13388	53.7478
 484	1	7	0.340597	7.65252	-6.77081	55.0262
 485	1	8	-0.110855	7.76607	-7.73861	54.0875
 486	1	8	-0.104879	7.08329	-7.34811	56.1087
 487	1	8	-0.10758	8.92034	-6.44648	55.3696
 488	1	3	-0.066666	6.87937	-4.28923	55.4345
 489	1	3	-0.06911	6.3712	-3.05268	54.9574
 490	1	3	-0.048109	6.33945	-1.9488	55.8179
 491	1	3	-0.057883	7.35523	-4.34913	56.7772
 492	1	3	-0.116273	7.34574	-3.21713	57.6161
 493	1	3	-0.113036	6.82582	-2.02541	57.1051
 494	1	2	0.502524	6.63139	-0.704834	57.7559
 495	1	1	0.0355	5.9908	0.088942	56.8117
 496	1	2	0.450202	5.79055	-0.581303	55.6096
 497	1	3	-0.097429	5.56161	1.42563	57.0741
 498	1	3	-0.043121	6.21089	2.52936	56.4663
 499	1	3	-0.007101	5.78695	3.85074	56.7638
 500	1	3	0.055122	4.49094	1.6395	57.9681
 501	1	3	-0.325582	4.11917	2.94791	58.2964
 502	1	3	0.061609	4.76232	4.05396	57.7247
 503	1	7	0.04075	7.35313	2.28553	55.4685
 504	1	9	-0.311814	6.41464	4.9095	56.0962
 505	1	6	0.16104	7.70523	-3.27028	58.6421
 506	1	6	0.14041	7.73046	-5.2722	57.2035
 507	1	6	0.147774	5.98346	-2.95082	53.9465
 508	1	5	-0.476838	5.26588	-0.163125	54.592
 509	1	5	-0.479462	6.96115	-0.411755	58.8927
 510	1	7	-0.144762	3.72892	0.486466	58.6124
 511	1	10	0.052647	2.768	0.81944	59.0235
 512	1	10	0.065097	4.30406	0.048116	59.4373
 513	1	10	0.048024	3.50758	-0.306457	57.8875
 514	1	7	-0.169984	4.33462	5.43299	58.2146
 515	1	6	0.223059	3.32176	3.10632	59.0159
 516	1	10	0.004219	3.75953	5.36982	59.1469
 517	1	10	0.100409	3.6988	5.93838	57.479
 518	1	10	0.163068	5.20784	6.06358	58.4266
 519	1	10	0.042023	6.95267	2.08884	54.4658
 520	1	10	0.011973	7.97292	1.42772	55.7563
 521	1	10	-0.068283	8.0411	3.13642	55.3882
 522	1	4	0.330652	7.13279	4.66077	55.4318
 523	1	1	0.4882	20.2961	-4.92084	38.0846
 524	1	2	0.025477	19.4245	-4.4998	39.0879
 525	1	3	-0.008635	19.5928	-5.5106	40.1636
 526	1	2	0.050267	21.0253	-6.06249	38.4043
 527	1	3	0.063619	20.5423	-6.43079	39.7607
 528	1	5	-0.374081	18.7313	-3.49699	39.1377
 529	1	5	-0.389097	21.9319	-6.59109	37.7814
 530	1	3	-0.003634	18.982	-5.5892	41.4196
 531	1	3	-0.04742	20.9393	-7.47248	40.6014
 532	1	3	-0.200211	20.3338	-7.57078	41.8721
 533	1	3	-0.05806	19.3385	-6.6447	42.2997
 534	1	6	0.16443	18.2496	-4.83625	41.7014
 535	1	6	0.154232	21.7044	-8.17563	40.2792
 536	1	6	0.179048	20.6661	-8.37644	42.5182
 537	1	7	-0.076903	18.6671	-6.70793	43.7039
 538	1	7	0.238473	18.8241	-8.10403	44.4231
 539	1	8	-0.092232	18.4719	-9.1305	43.6159
 540	1	8	-0.075474	18.0259	-8.19531	45.5117
 541	1	8	-0.095932	20.0837	-8.34586	44.8528
 542	1	7	0.340597	19.3642	-5.59139	44.5763
 543	1	8	-0.110855	19.0344	-4.34841	44.1576
 544	1	8	-0.104879	20.7126	-5.66918	44.4978
 545	1	8	-0.10758	19.0536	-5.66414	45.8905
 546	1	3	-0.066666	17.136	-6.49081	43.5166
 547	1	3	-0.06911	16.3621	-5.6828	44.3915
 548	1	3	-0.048109	14.9815	-5.58368	44.1796
 549	1	3	-0.057883	16.4632	-7.18392	42.4701
 550	1	3	-0.116273	15.0714	-7.07249	42.2755
 551	1	3	-0.113036	14.3518	-6.25634	43.1532
 552	1	2	0.502524	12.8908	-5.99058	43.2503
 553	1	1	0.0355	12.7346	-5.17487	44.3642
 554	1	2	0.450202	13.9464	-4.86428	44.9675
 555	1	3	-0.097429	11.4702	-4.77454	44.8885
 556	1	3	-0.043121	10.8279	-5.57541	45.8618
 557	1	3	-0.007101	9.59637	-5.14996	46.4199
 558	1	3	0.055122	10.8814	-3.56912	44.4582
 559	1	3	-0.325582	9.64744	-3.1741	44.9953
 560	1	3	0.061609	8.99721	-3.9504	45.9668
 561	1	7	0.04075	11.5053	-6.87683	46.3185
 562	1	9	-0.311814	9.00363	-5.94323	47.403
 563	1	6	0.16104	14.5645	-7.6207	41.4836
 564	1	6	0.14041	17.0243	-7.83668	41.806
 565	1	6	0.147774	16.7908	-5.15369	45.2362
 566	1	5	-0.476838	14.1399	-4.19262	45.9656
 567	1	5	-0.479462	12.0249	-6.45784	42.5305
 568	1	7	-0.144762	11.5621	-2.68337	43.4229
 569	1	10	0.052647	11.7613	-3.23803	42.4976
 570	1	10	0.065097	12.5168	-2.30021	43.8048
 571	1	10	0.048024	10.9433	-1.81752	43.1577
 572	1	7	-0.169984	7.6444	-3.47294	46.481
 573	1	6	0.223059	9.1901	-2.24971	44.6561
 574	1	10	0.004219	7.19344	-2.73564	45.805
 575	1	10	0.100409	7.74367	-2.99837	47.4645
 576	1	10	0.163068	6.93463	-4.30611	46.5667
 577	1	10	0.042023	12.435	-6.65881	46.8592
 578	1	10	0.011973	11.7584	-7.50955	45.4587
 579	1	10	-0.068283	10.8863	-7.49486	46.9798
 580	1	4	0.330652	9.45756	-6.82969	47.5678
 581	1	1	0.4882	22.9647	-8.33969	23.2715
 582	1	2	0.025477	22.5434	-8.28059	24.5995
 583	1	3	-0.008635	23.7229	-8.74725	25.3779
 584	1	2	0.050267	24.2486	-8.8497	23.1043
 585	1	3	0.063619	24.7295	-9.08056	24.4904
 586	1	5	-0.374081	21.4688	-7.9176	25.0501
 587	1	5	-0.389097	24.8483	-9.09618	22.0712
 588	1	3	-0.003634	23.9006	-8.86163	26.7624
 589	1	3	-0.04742	25.9659	-9.54601	24.9403
 590	1	3	-0.200211	26.1685	-9.65641	26.3317
 591	1	3	-0.05806	25.153	-9.30464	27.2673
 592	1	6	0.16443	23.0755	-8.61092	27.4245
 593	1	6	0.154232	26.7433	-9.81364	24.2275
 594	1	6	0.179048	27.1287	-10.0356	26.6645
 595	1	7	-0.076903	25.3452	-9.47608	28.8041
 596	1	7	0.238473	26.8542	-9.3937	29.264
 597	1	8	-0.092232	27.5773	-10.4951	28.9592
 598	1	8	-0.075474	26.955	-9.23849	30.6042
 599	1	8	-0.095932	27.4916	-8.33753	28.7096
 600	1	7	0.340597	24.7693	-10.9032	29.1516
 601	1	8	-0.110855	23.4285	-10.9523	28.9786
 602	1	8	-0.104879	25.0326	-11.2878	30.4212
 603	1	8	-0.10758	25.2819	-11.8631	28.3477
 604	1	3	-0.066666	24.611	-8.31191	29.5393
 605	1	3	-0.06911	23.7668	-8.52274	30.6623
 606	1	3	-0.048109	23.164	-7.42007	31.2775
 607	1	3	-0.057883	24.8245	-6.97208	29.1056
 608	1	3	-0.116273	24.2057	-5.87362	29.7398
 609	1	3	-0.113036	23.3695	-6.13215	30.8311
 610	1	2	0.502524	22.5505	-5.21504	31.6725
 611	1	1	0.0355	21.8844	-6.03354	32.5778
 612	1	2	0.450202	22.2147	-7.37353	32.419
 613	1	3	-0.097429	20.8791	-5.58476	33.4866
 614	1	3	-0.043121	21.2252	-5.04581	34.7499
 615	1	3	-0.007101	20.2014	-4.70011	35.6713
 616	1	3	0.055122	19.525	-5.73313	33.124
 617	1	3	-0.325582	18.5232	-5.36977	34.0317
 618	1	3	0.061609	18.844	-4.86062	35.2984
 619	1	7	0.04075	22.7085	-4.87225	35.1031
 620	1	9	-0.311814	20.5503	-4.17143	36.9181
 621	1	6	0.16104	24.3665	-4.85484	29.3922
 622	1	6	0.14041	25.4783	-6.77767	28.2587
 623	1	6	0.147774	23.5595	-9.5063	31.07
 624	1	5	-0.476838	21.7657	-8.33565	33.018
 625	1	5	-0.479462	22.4585	-4.00646	31.5416
 626	1	7	-0.144762	19.1193	-6.27518	31.7579
 627	1	10	0.052647	19.6115	-5.72004	30.9494
 628	1	10	0.065097	18.0383	-6.19414	31.5925
 629	1	10	0.048024	19.3874	-7.33427	31.6585
 630	1	7	-0.169984	17.6942	-4.45617	36.2107
 631	1	6	0.223059	17.4841	-5.48522	33.741
 632	1	10	0.004219	17.8511	-3.45282	36.6238
 633	1	10	0.100409	17.5799	-5.16106	37.042
 634	1	10	0.163068	16.7392	-4.42893	35.6747
 635	1	10	0.042023	23.2335	-4.30586	34.3242
 636	1	10	0.011973	23.2018	-5.84789	35.1966
 637	1	10	-0.068283	22.8774	-4.3296	36.0413
 638	1	4	0.330652	21.5058	-3.85688	37.0064
 639	1	1	0.4882	31.169	-7.29463	9.54753
 640	1	2	0.025477	29.8244	-7.47155	9.23918
 641	1	3	-0.008635	29.1044	-6.81752	10.3661