pySIMM System Object

2496 atoms
2710 bonds
4773 angles
7048 dihedrals
688 impropers

10 atom types
14 bond types
24 angle types
9 dihedral types
4 improper types

-215.457580 215.457580 xlo xhi
-215.457580 215.457580 ylo yhi
-215.457580 215.457580 zlo zhi

Masses

   1	14.01	# n
   2	12.01	# c
   3	12.01	# ca
   4	1.008	# hn
   5	16.0	# o
   6	1.008	# ha
   7	12.01	# c3
   8	19.0	# f
   9	14.01	# nh
  10	1.008	# hc

Pair Coeffs

   1	0.17	3.249998523775958	# n
   2	0.086	3.3996695084235347	# c
   3	0.086	3.3996695084235347	# ca
   4	0.0157	1.069078461768407	# hn
   5	0.21	2.959921901149463	# o
   6	0.015	2.59964245953351	# ha
   7	0.1094	3.3996695084235347	# c3
   8	0.061	3.1181455134911875	# f
   9	0.17	3.249998523775958	# nh
  10	0.0157	2.649532787749369	# hc

Bond Coeffs

   1	345.9	1.4906	# c,ca
   2	345.8	1.086	# ca,ha
   3	637.7	1.2183	# c,o
   4	321.0	1.5156	# c3,ca
   5	300.9	1.5375	# c3,c3
   6	384.2	1.4121	# ca,n
   7	330.6	1.0969	# c3,hc
   8	404.6	1.0121	# hn,nh
   9	403.2	1.0129	# hn,n
  10	356.9	1.3497	# c3,f
  11	417.9	1.3859	# ca,nh
  12	427.6	1.3789	# c,n
  13	461.1	1.3984	# ca,ca
  14	452.5	1.4016	# n,nh

Angle Coeffs

   1	74.22	123.05	# n,c,o
   2	40.07	115.12	# hn,nh,hn
   3	68.29	120.95	# ca,ca,nh
   4	66.62	120.02	# ca,ca,ca
   5	48.42	116.07	# ca,nh,hn
   6	68.72	122.6	# ca,c,o
   7	48.33	117.55	# c,n,hn
   8	64.28	120.33	# c,ca,ca
   9	67.68	115.25	# ca,c,n
  10	39.4	107.58	# hc,c3,hc
  11	63.53	120.77	# c3,ca,ca
  12	67.87	120.19	# ca,ca,n
  13	70.89	107.36	# f,c3,f
  14	66.11	109.24	# c3,c3,f
  15	46.8	110.47	# ca,c3,hc
  16	62.86	111.51	# c3,c3,c3
  17	63.15	112.07	# c3,c3,ca
  18	63.82	123.71	# c,n,ca
  19	63.56	112.24	# ca,c3,ca
  20	63.74	127.08	# c,n,c
  21	48.18	119.88	# ca,ca,ha
  22	67.01	118.71	# c,n,nh
  23	67.61	116.03	# ca,nh,n
  24	50.88	108.17	# hn,nh,n

Dihedral Coeffs

   1	2	2.5	2	180	2.0	1	0	# hn,n,c,o
   2	1	3.625	2	180	# X,ca,ca,X
   3	1	0.15555555555555556	3	0	# X,c3,c3,X
   4	1	1.0	2	180	# X,c,ca,X
   5	1	0.0	2	0	# X,c3,ca,X
   6	1	2.5	2	180	# X,c,n,X
   7	1	0.45	2	180	# X,ca,n,X
   8	1	1.05	2	180	# X,ca,nh,X
   9	1	1.1	2	0	# X,n,nh,X

Improper Coeffs

   1	10.5	-1	2	# c,X,X,o
   2	1.1	-1	2	# ca,X,X,ha
   3	1.1	-1	2	# ca,ca,ca,c3
   4	1.1	-1	2	# n,X,X,hn

Atoms

   1	1	1	0.4882	-11.833	-0.418313	-45.862
   2	1	2	0.025477	-12.1951	-0.781671	-47.1568
   3	1	3	-0.008635	-13.0825	-1.9598	-46.9684
   4	1	2	0.050267	-12.3377	-1.25311	-44.8691
   5	1	3	0.063619	-13.1687	-2.23266	-45.6148
   6	1	5	-0.374081	-11.8408	-0.296109	-48.2186
   7	1	5	-0.389097	-12.1016	-1.25178	-43.6709
   8	1	3	-0.003634	-13.7578	-2.73292	-47.9207
   9	1	3	-0.04742	-13.9391	-3.29448	-45.1392
  10	1	3	-0.200211	-14.637	-4.07676	-46.081
  11	1	3	-0.05806	-14.5708	-3.81184	-47.4785
  12	1	6	0.16443	-13.6392	-2.4759	-48.9678
  13	1	6	0.154232	-13.9957	-3.49991	-44.0726
  14	1	6	0.179048	-15.2416	-4.90355	-45.7142
  15	1	7	-0.076903	-15.3696	-4.73136	-48.4496
  16	1	7	0.238473	-15.5554	-4.12227	-49.8939
  17	1	8	-0.092232	-16.4467	-4.83349	-50.6214
  18	1	8	-0.075474	-14.4099	-4.09247	-50.612
  19	1	8	-0.095932	-16.0306	-2.85687	-49.8533
  20	1	7	0.340597	-14.5525	-6.07831	-48.5556
  21	1	8	-0.110855	-13.2502	-5.84636	-48.8396
  22	1	8	-0.104879	-15.0139	-6.90937	-49.5173
  23	1	8	-0.10758	-14.5627	-6.77117	-47.3941
  24	1	3	-0.066666	-16.8011	-4.90762	-47.8607
  25	1	3	-0.06911	-17.46	-6.16445	-47.7818
  26	1	3	-0.048109	-18.7418	-6.22171	-47.2185
  27	1	3	-0.057883	-17.4922	-3.75404	-47.3925
  28	1	3	-0.116273	-18.7836	-3.83209	-46.8367
  29	1	3	-0.113036	-19.3837	-5.09055	-46.7579
  30	1	2	0.502524	-20.7061	-5.49212	-46.2121
  31	1	1	0.0355	-20.771	-6.86959	-46.371
  32	1	2	0.450202	-19.6339	-7.38891	-46.9786
  33	1	3	-0.097429	-21.8777	-7.65547	-45.9368
  34	1	3	-0.043121	-21.9706	-8.06805	-44.5848
  35	1	3	-0.007101	-23.1017	-8.80464	-44.1587
  36	1	3	0.055122	-22.8965	-7.9845	-46.8553
  37	1	3	-0.325582	-24.0068	-8.72008	-46.4185
  38	1	3	0.061609	-24.1187	-9.12882	-45.0818
  39	1	7	0.04075	-20.8569	-7.6885	-43.6009
  40	1	9	-0.311814	-23.2278	-9.20267	-42.8309
  41	1	6	0.16104	-19.2994	-2.94496	-46.4739
  42	1	6	0.14041	-17.0184	-2.77763	-47.4523
  43	1	6	0.147774	-17.0094	-7.08724	-48.1332
  44	1	5	-0.476838	-19.3873	-8.55392	-47.2408
  45	1	5	-0.479462	-21.5322	-4.75291	-45.7041
  46	1	7	-0.144762	-22.8268	-7.54513	-48.3128
  47	1	10	0.052647	-21.9394	-7.96014	-48.807
  48	1	10	0.065097	-22.7847	-6.45182	-48.3933
  49	1	10	0.048024	-23.7029	-7.88078	-48.8814
  50	1	7	-0.169984	-25.3503	-9.91234	-44.6509
  51	1	6	0.223059	-24.795	-8.96935	-47.1212
  52	1	10	0.004219	-26.011	-10.1431	-45.4961
  53	1	10	0.100409	-25.9314	-9.34191	-43.9161
  54	1	10	0.163068	-25.0573	-10.8611	-44.1858
  55	1	10	0.042023	-20.8861	-6.61388	-43.3817
  56	1	10	0.011973	-19.8683	-7.91891	-44.0168
  57	1	10	-0.068283	-20.9197	-8.21728	-42.6419
  58	1	4	0.330652	-22.4803	-8.99718	-42.1784
  59	1	1	0.4882	-15.4477	13.7204	-44.49
  60	1	2	0.025477	-15.6876	13.191	-45.7543
  61	1	3	-0.008635	-16.3555	11.8927	-45.479
  62	1	2	0.050267	-15.9107	12.9386	-43.4375
  63	1	3	0.063619	-16.4724	11.7386	-44.1088
  64	1	5	-0.374081	-15.4345	13.6707	-46.8479
  65	1	5	-0.389097	-15.9302	13.1929	-42.2438
  66	1	3	-0.003634	-16.8333	10.9285	-46.373
  67	1	3	-0.04742	-17.0503	10.5946	-43.5574
  68	1	3	-0.200211	-17.5149	9.5995	-44.4412
  69	1	3	-0.05806	-17.4243	9.74453	-45.8549
  70	1	6	0.16443	-16.7328	11.1233	-47.4351
  71	1	6	0.154232	-17.1303	10.4848	-42.478
  72	1	6	0.179048	-17.9584	8.70155	-44.0165
  73	1	7	-0.076903	-17.9971	8.61206	-46.7578
  74	1	7	0.238473	-19.5703	8.72153	-46.6589
  75	1	8	-0.092232	-19.9891	9.99292	-46.8548
  76	1	8	-0.075474	-20.0331	8.35711	-45.4415
  77	1	8	-0.095932	-20.2227	7.96244	-47.5681
  78	1	7	0.340597	-17.5654	8.7228	-48.2719
  79	1	8	-0.110855	-18.1294	9.77506	-48.9075
  80	1	8	-0.104879	-17.909	7.61729	-48.9717
  81	1	8	-0.10758	-16.2253	8.84469	-48.4068
  82	1	3	-0.066666	-17.4254	7.26129	-46.238
  83	1	3	-0.06911	-16.0494	7.18718	-45.895
  84	1	3	-0.048109	-15.5204	5.97149	-45.4471
  85	1	3	-0.057883	-18.2104	6.07723	-46.1367
  86	1	3	-0.116273	-17.6591	4.86304	-45.6795
  87	1	3	-0.113036	-16.304	4.84265	-45.3361
  88	1	2	0.502524	-15.4455	3.72661	-44.86
  89	1	1	0.0355	-14.172	4.26612	-44.7226
  90	1	2	0.450202	-14.1305	5.61643	-45.0515
  91	1	3	-0.097429	-13.0359	3.49505	-44.334
  92	1	3	-0.043121	-12.4917	2.53596	-45.2247
  93	1	3	-0.007101	-11.4346	1.69702	-44.7886
  94	1	3	0.055122	-12.491	3.65557	-43.0425
  95	1	3	-0.325582	-11.3976	2.87059	-42.6528
  96	1	3	0.061609	-10.8671	1.89557	-43.5095
  97	1	7	0.04075	-13.0319	2.42419	-46.6555
  98	1	9	-0.311814	-10.9545	0.647247	-45.5774
  99	1	6	0.16104	-18.263	3.96102	-45.6072
 100	1	6	0.14041	-19.2573	6.07367	-46.4182
 101	1	6	0.147774	-15.3944	8.05125	-45.9808
 102	1	5	-0.476838	-13.1714	6.36952	-45.0316
 103	1	5	-0.479462	-15.806	2.57931	-44.6545
 104	1	7	-0.144762	-13.0615	4.661	-42.0495
 105	1	10	0.052647	-14.1505	4.56321	-41.9622
 106	1	10	0.065097	-12.8334	5.68859	-42.3589
 107	1	10	0.048024	-12.6436	4.52181	-41.0449
 108	1	7	-0.169984	-9.70875	1.04067	-43.0064
 109	1	6	0.223059	-10.9791	3.00187	-41.6598
 110	1	10	0.004219	-8.96574	0.852586	-43.7914
 111	1	10	0.100409	-10.0718	0.0739032	-42.6356
 112	1	10	0.163068	-9.1832	1.531	-42.1784
 113	1	10	0.042023	-12.2317	2.19273	-47.3684
 114	1	10	0.011973	-13.7958	1.6405	-46.7283
 115	1	10	-0.068283	-13.4819	3.35979	-47.0097
 116	1	4	0.330652	-10.0928	0.221071	-45.2738
 117	1	1	0.4882	-10.782	24.637	-32.5799
 118	1	2	0.025477	-12.0159	23.9935	-32.6225
 119	1	3	-0.008635	-11.731	22.7087	-33.3113
 120	1	2	0.050267	-9.74324	23.9272	-33.1751
 121	1	3	0.063619	-10.3883	22.6707	-33.6398
 122	1	5	-0.374081	-13.1117	24.4102	-32.2834
 123	1	5	-0.389097	-8.60168	24.2926	-33.4047
 124	1	3	-0.003634	-12.6077	21.6782	-33.6657
 125	1	3	-0.04742	-9.85068	21.5934	-34.3473
 126	1	3	-0.200211	-10.7203	20.547	-34.7205
 127	1	3	-0.05806	-12.1072	20.568	-34.399
 128	1	6	0.16443	-13.648	21.7764	-33.3764
 129	1	6	0.154232	-8.79457	21.5778	-34.6076
 130	1	6	0.179048	-10.3092	19.7091	-35.28
 131	1	7	-0.076903	-13.002	19.3743	-34.8542
 132	1	7	0.238473	-12.6127	18.1537	-33.9307
 133	1	8	-0.092232	-11.3939	17.6554	-34.238
 134	1	8	-0.075474	-13.4848	17.1227	-33.9971
 135	1	8	-0.095932	-12.5593	18.5194	-32.6292
 136	1	7	0.340597	-14.5484	19.6583	-34.7213
 137	1	8	-0.110855	-14.9604	19.746	-33.436
 138	1	8	-0.104879	-15.2925	18.6883	-35.3006
 139	1	8	-0.10758	-14.8989	20.8096	-35.3393
 140	1	3	-0.066666	-12.7471	19.1141	-36.3683
 141	1	3	-0.06911	-12.7688	17.8097	-36.9313
 142	1	3	-0.048109	-12.6085	17.6652	-38.3158
 143	1	3	-0.057883	-12.5812	20.2234	-37.246
 144	1	3	-0.116273	-12.4139	20.0564	-38.6348
 145	1	3	-0.113036	-12.4322	18.7549	-39.1429
 146	1	2	0.502524	-12.3423	18.267	-40.5439
 147	1	1	0.0355	-12.4927	16.8882	-40.4707
 148	1	2	0.450202	-12.6429	16.4416	-39.1627
 149	1	3	-0.097429	-12.5131	16.0383	-41.617
 150	1	3	-0.043121	-13.689	15.9242	-42.3977
 151	1	3	-0.007101	-13.6917	15.0951	-43.5486
 152	1	3	0.055122	-11.3501	15.3277	-41.9753
 153	1	3	-0.325582	-11.3603	14.5212	-43.1211
 154	1	3	0.061609	-12.5099	14.4051	-43.9168
 155	1	7	0.04075	-14.9468	16.6931	-41.9656
 156	1	9	-0.311814	-14.8665	14.9878	-44.2975
 157	1	6	0.16104	-12.2997	20.911	-39.299
 158	1	6	0.14041	-12.6011	21.2363	-36.8523
 159	1	6	0.147774	-12.9341	16.9185	-36.3346
 160	1	5	-0.476838	-12.7871	15.2972	-38.7691
 161	1	5	-0.479462	-12.2087	18.9586	-41.5393
 162	1	7	-0.144762	-10.0724	15.427	-41.1515
 163	1	10	0.052647	-9.74807	16.4697	-41.0477
 164	1	10	0.065097	-9.24637	14.8727	-41.613
 165	1	10	0.048024	-10.2217	15.0131	-40.1463
 166	1	7	-0.169984	-12.4187	13.5497	-45.1751
 167	1	6	0.223059	-10.4605	13.9807	-43.3972
 168	1	10	0.004219	-12.9049	12.5773	-45.0291
 169	1	10	0.100409	-11.3774	13.356	-45.458
 170	1	10	0.163068	-12.89	14.0498	-46.0309
 171	1	10	0.042023	-14.7783	17.7757	-42.0187
 172	1	10	0.011973	-15.2166	16.4469	-40.9308
 173	1	10	-0.068283	-15.8319	16.483	-42.5777
 174	1	4	0.330652	-15.6197	15.6001	-44.0194
 175	1	1	0.4882	2.32227	33.8105	-33.5976
 176	1	2	0.025477	2.26556	33.4204	-32.2634
 177	1	3	-0.008635	1.25028	32.3361	-32.2435
 178	1	2	0.050267	1.4323	33.1378	-34.4301
 179	1	3	0.063619	0.74939	32.1773	-33.523
 180	1	5	-0.374081	2.83776	33.9034	-31.3012
 181	1	5	-0.389097	1.22123	33.3009	-35.6213
 182	1	3	-0.003634	0.810615	31.5473	-31.1748
 183	1	3	-0.04742	-0.240094	31.2308	-33.797
 184	1	3	-0.200211	-0.705821	30.434	-32.7305
 185	1	3	-0.05806	-0.194565	30.57	-31.4089
 186	1	6	0.16443	1.26604	31.7056	-30.203
 187	1	6	0.154232	-0.628334	31.1143	-34.8065
 188	1	6	0.179048	-1.46826	29.6865	-32.9399
 189	1	7	-0.076903	-0.716049	29.6065	-30.3015
 190	1	7	0.238473	-0.0287285	28.2116	-30.5763
 191	1	8	-0.092232	1.30545	28.3454	-30.7575
 192	1	8	-0.075474	-0.503027	27.6246	-31.6986
 193	1	8	-0.095932	-0.189566	27.326	-29.5674
 194	1	7	0.340597	-0.367488	30.0762	-28.8352
 195	1	8	-0.110855	0.947997	29.9699	-28.5408
 196	1	8	-0.104879	-1.03046	29.3507	-27.9056
 197	1	8	-0.10758	-0.719356	31.3651	-28.6231
 198	1	3	-0.066666	-2.27068	29.5647	-30.3777
 199	1	3	-0.06911	-3.01458	28.3623	-30.2394
 200	1	3	-0.048109	-4.41352	28.426	-30.2467
 201	1	3	-0.057883	-2.98656	30.788	-30.5129
 202	1	3	-0.116273	-4.39531	30.8316	-30.5083
 203	1	3	-0.113036	-5.08563	29.6247	-30.3665
 204	1	2	0.502524	-6.54497	29.3494	-30.2874
 205	1	1	0.0355	-6.65764	27.9726	-30.141
 206	1	2	0.450202	-5.42086	27.3408	-30.1051
 207	1	3	-0.097429	-7.90174	27.2865	-30.017
 208	1	3	-0.043121	-8.67008	26.9793	-31.1666
 209	1	3	-0.007101	-9.8884	26.2668	-31.026
 210	1	3	0.055122	-8.35556	26.9108	-28.7362
 211	1	3	-0.325582	-9.57143	26.2275	-28.6094
 212	1	3	0.061609	-10.3435	25.9063	-29.7345
 213	1	7	0.04075	-8.15149	27.3898	-32.553
 214	1	9	-0.311814	-10.6403	25.9756	-32.1661
 215	1	6	0.16104	-4.93386	31.7735	-30.5948
 216	1	6	0.14041	-2.44354	31.7256	-30.6019
 217	1	6	0.147774	-2.54457	27.3931	-30.1076
 218	1	5	-0.476838	-5.18686	26.1513	-29.9777
 219	1	5	-0.479462	-7.43843	30.1773	-30.3412
 220	1	7	-0.144762	-7.56101	27.242	-27.4786
 221	1	10	0.052647	-8.11422	26.982	-26.5679
 222	1	10	0.065097	-7.33336	28.3137	-27.424
 223	1	10	0.048024	-6.61401	26.6885	-27.4554
 224	1	7	-0.169984	-11.6788	25.2114	-29.5029
 225	1	6	0.223059	-9.92521	25.9491	-27.6213
 226	1	10	0.004219	-11.9845	25.2591	-28.4502
 227	1	10	0.100409	-11.6276	24.1524	-29.7804
 228	1	10	0.163068	-12.4776	25.6834	-30.0888
 229	1	10	0.042023	-7.32631	26.7365	-32.8638
 230	1	10	0.011973	-7.78003	28.4207	-32.5583
 231	1	10	-0.068283	-8.91894	27.347	-33.3356
 232	1	4	0.330652	-10.3807	26.4858	-32.9986
 233	1	1	0.4882	8.92412	44.4224	-24.9408
 234	1	2	0.025477	10.0555	43.6534	-25.1956
 235	1	3	-0.008635	9.75505	42.9792	-26.4859
 236	1	2	0.050267	7.93594	44.3314	-25.917
 237	1	3	0.063619	8.4907	43.3629	-26.8963
 238	1	5	-0.374081	11.0715	43.5434	-24.5295
 239	1	5	-0.389097	6.86072	44.9039	-25.9831
 240	1	3	-0.003634	10.5455	42.1097	-27.2474
 241	1	3	-0.04742	7.92537	42.8556	-28.0664
 242	1	3	-0.200211	8.69083	41.9507	-28.8281
 243	1	3	-0.05806	10.0118	41.5758	-28.4516
 244	1	6	0.16443	11.5448	41.8807	-26.8926
 245	1	6	0.154232	6.92634	43.1585	-28.3727
 246	1	6	0.179048	8.25395	41.552	-29.7413
 247	1	7	-0.076903	10.8094	40.6316	-29.3974
 248	1	7	0.238473	11.2027	41.4951	-30.6627
 249	1	8	-0.092232	10.1283	41.8778	-31.3892
 250	1	8	-0.075474	12.0362	40.8482	-31.5084
 251	1	8	-0.095932	11.826	42.6409	-30.3047
 252	1	7	0.340597	12.1308	40.0423	-28.7587
 253	1	8	-0.110855	11.9141	39.4763	-27.55
 254	1	8	-0.104879	13.0968	40.9717	-28.5805
 255	1	8	-0.10758	12.6653	39.0699	-29.5317
 256	1	3	-0.066666	9.88527	39.42	-29.718
 257	1	3	-0.06911	9.60974	38.9785	-31.0401
 258	1	3	-0.048109	8.74741	37.8898	-31.2236
 259	1	3	-0.057883	9.27886	38.7214	-28.6353
 260	1	3	-0.116273	8.43905	37.6095	-28.8406
 261	1	3	-0.113036	8.19093	37.2154	-30.1572
 262	1	2	0.502524	7.3352	36.1236	-30.69
 263	1	1	0.0355	7.40479	36.2353	-32.0731
 264	1	2	0.450202	8.24205	37.2694	-32.4774
 265	1	3	-0.097429	6.66033	35.4135	-32.9719
 266	1	3	-0.043121	5.25907	35.5843	-33.1027
 267	1	3	-0.007101	4.52438	34.7342	-33.9684
 268	1	3	0.055122	7.32673	34.4209	-33.7197
 269	1	3	-0.325582	6.59683	33.6234	-34.6103
 270	1	3	0.061609	5.20982	33.7715	-34.7487
 271	1	7	0.04075	4.54093	36.664	-32.2796
 272	1	9	-0.311814	3.13479	34.8726	-34.0416
 273	1	6	0.16104	7.98319	37.0796	-28.0063
 274	1	6	0.14041	9.45711	39.0451	-27.6136
 275	1	6	0.147774	10.0291	39.4558	-31.9198
 276	1	5	-0.476838	8.49262	37.6377	-33.6125
 277	1	5	-0.479462	6.69917	35.3222	-30.0273
 278	1	7	-0.144762	8.82892	34.1958	-33.5966
 279	1	10	0.052647	9.13929	33.2614	-34.0798
 280	1	10	0.065097	9.14005	34.1339	-32.5467
 281	1	10	0.048024	9.38703	35.0119	-34.0719
 282	1	7	-0.169984	4.50469	32.9	-35.7802
 283	1	6	0.223059	7.11776	32.8824	-35.2089
 284	1	10	0.004219	5.21509	32.464	-36.4937
 285	1	10	0.100409	3.78355	33.4829	-36.3667
 286	1	10	0.163068	3.97181	32.0705	-35.3035
 287	1	10	0.042023	4.24241	36.27	-31.2998
 288	1	10	0.011973	3.6409	37.0447	-32.7761
 289	1	10	-0.068283	5.17514	37.542	-32.1057
 290	1	4	0.330652	2.74845	35.706	-33.626
 291	1	1	0.4882	6.12579	56.7807	-19.366
 292	1	2	0.025477	6.17465	55.5367	-19.9874
 293	1	3	-0.008635	4.81565	55.3712	-20.5654
 294	1	2	0.050267	4.89946	57.4304	-19.4675
 295	1	3	0.063619	4.05972	56.4845	-20.247
 296	1	5	-0.374081	7.05817	54.6965	-19.946
 297	1	5	-0.389097	4.54498	58.4829	-18.9597
 298	1	3	-0.003634	4.27036	54.2913	-21.2665
 299	1	3	-0.04742	2.71371	56.5696	-20.6074
 300	1	3	-0.200211	2.13835	55.4783	-21.2914
 301	1	3	-0.05806	2.89262	54.3135	-21.6135
 302	1	6	0.16443	4.90846	53.4442	-21.5064
 303	1	6	0.154232	2.13022	57.4504	-20.3483
 304	1	6	0.179048	1.09298	55.5607	-21.5673
 305	1	7	-0.076903	2.27168	53.1012	-22.3721
 306	1	7	0.238473	0.719657	52.9424	-22.1404
 307	1	8	-0.092232	-0.0236471	53.8621	-22.7965
 308	1	8	-0.075474	0.401084	53.0323	-20.8292
 309	1	8	-0.095932	0.276826	51.7346	-22.5587
 310	1	7	0.340597	2.55794	53.363	-23.9008
 311	1	8	-0.110855	3.87787	53.259	-24.1786
 312	1	8	-0.104879	2.19287	54.6113	-24.2741
 313	1	8	-0.10758	1.89889	52.5147	-24.7221
 314	1	3	-0.066666	2.92104	51.7882	-21.8345
 315	1	3	-0.06911	3.32505	50.7285	-22.6894
 316	1	3	-0.048109	3.94299	49.6042	-22.1311
 317	1	3	-0.057883	3.10201	51.6218	-20.4308
 318	1	3	-0.116273	3.74846	50.4908	-19.891
 319	1	3	-0.113036	4.17706	49.498	-20.7771
 320	1	2	0.502524	4.91819	48.2306	-20.5329
 321	1	1	0.0355	5.07429	47.6402	-21.7833
 322	1	2	0.450202	4.48946	48.3934	-22.7954
 323	1	3	-0.097429	5.78287	46.4204	-22.0138
 324	1	3	-0.043121	7.01634	46.4298	-22.7139
 325	1	3	-0.007101	7.67407	45.2074	-23.002
 326	1	3	0.055122	5.23345	45.1983	-21.5705
 327	1	3	-0.325582	5.93322	44.0049	-21.7949
 328	1	3	0.061609	7.14497	43.9929	-22.4999
 329	1	7	0.04075	7.62025	47.7588	-23.1935
 330	1	9	-0.311814	8.81968	45.2477	-23.8038
 331	1	6	0.16104	3.9199	50.3925	-18.8207
 332	1	6	0.14041	2.76596	52.3974	-19.7469
 333	1	6	0.147774	3.19171	50.7552	-23.7655
 334	1	5	-0.476838	4.44352	48.1491	-23.9887
 335	1	5	-0.479462	5.32751	47.836	-19.4542
 336	1	7	-0.144762	3.8934	45.1304	-20.8472
 337	1	10	0.052647	3.99721	45.4407	-19.8001
 338	1	10	0.065097	3.48628	44.1122	-20.8496
 339	1	10	0.048024	3.14396	45.7745	-21.3234
 340	1	7	-0.169984	7.84437	42.6505	-22.6788
 341	1	6	0.223059	5.52274	43.0709	-21.4241
 342	1	10	0.004219	7.52711	41.9286	-21.9158
 343	1	10	0.100409	8.93362	42.7494	-22.588
 344	1	10	0.163068	7.61131	42.2152	-23.6571
 345	1	10	0.042023	7.41954	48.578	-22.4924
 346	1	10	0.011973	7.211	48.0429	-24.1708
 347	1	10	-0.068283	8.71196	47.7145	-23.2949
 348	1	4	0.330652	9.12368	46.1689	-24.0835
 349	1	1	0.4882	20.5687	52.9859	-11.8022
 350	1	2	0.025477	20.7613	53.721	-12.9689
 351	1	3	-0.008635	19.4871	53.5604	-13.7116
 352	1	2	0.050267	19.296	52.4382	-11.6725
 353	1	3	0.063619	18.612	52.8195	-12.9391
 354	1	5	-0.374081	21.7213	54.3954	-13.3061
 355	1	5	-0.389097	18.8125	51.848	-10.7197
 356	1	3	-0.003634	19.1437	54.0204	-14.9858
 357	1	3	-0.04742	17.32	52.539	-13.3908
 358	1	3	-0.200211	16.9467	53.0111	-14.6685
 359	1	3	-0.05806	17.8474	53.7408	-15.4961
 360	1	6	0.16443	19.8964	54.5651	-15.5441
 361	1	6	0.154232	16.6356	51.9621	-12.7725
 362	1	6	0.179048	15.9439	52.7889	-15.0279
 363	1	7	-0.076903	17.396	54.1505	-16.933
 364	1	7	0.238473	18.3909	55.1482	-17.6431
 365	1	8	-0.092232	17.8921	55.6221	-18.8077
 366	1	8	-0.075474	19.5824	54.581	-17.9398
 367	1	8	-0.095932	18.6335	56.2383	-16.8795
 368	1	7	0.340597	17.3174	52.8104	-17.7685
 369	1	8	-0.110855	18.4069	52.0355	-17.5592
 370	1	8	-0.104879	17.245	53.001	-19.1049
 371	1	8	-0.10758	16.2436	52.0641	-17.4247
 372	1	3	-0.066666	16.038	54.9051	-16.8464
 373	1	3	-0.06911	15.0783	54.8482	-17.8924
 374	1	3	-0.048109	13.9358	55.6538	-17.811
 375	1	3	-0.057883	15.7938	55.7873	-15.7556
 376	1	3	-0.116273	14.6327	56.5836	-15.6885
 377	1	3	-0.113036	13.7193	56.4991	-16.7433
 378	1	2	0.502524	12.4691	57.2615	-17.0007
 379	1	1	0.0355	12.0088	56.8223	-18.2357
 380	1	2	0.450202	12.8288	55.8446	-18.7866
 381	1	3	-0.097429	10.8487	57.353	-18.8769
 382	1	3	-0.043121	9.55486	56.9928	-18.4289
 383	1	3	-0.007101	8.41137	57.5765	-19.0325
 384	1	3	0.055122	11.0027	58.2756	-19.9321
 385	1	3	-0.325582	9.86623	58.8378	-20.5278
 386	1	3	0.061609	8.57597	58.514	-20.0827
 387	1	7	0.04075	9.41585	55.985	-17.2781
 388	1	9	-0.311814	7.15235	57.2472	-18.5239
 389	1	6	0.16104	14.4658	57.2729	-14.8631
 390	1	6	0.14041	16.5293	55.8889	-14.9621
 391	1	6	0.147774	15.2168	54.2385	-18.7791
 392	1	5	-0.476838	12.7049	55.2728	-19.8559
 393	1	5	-0.479462	11.979	58.107	-16.2714
 394	1	7	-0.144762	12.3799	58.7075	-20.4226
 395	1	10	0.052647	13.0031	59.0646	-19.5934
 396	1	10	0.065097	12.3148	59.5233	-21.1525
 397	1	10	0.048024	12.9026	57.8754	-20.9101
 398	1	7	-0.169984	7.4023	59.2445	-20.7248
 399	1	6	0.223059	9.99251	59.5544	-21.3331
 400	1	10	0.004219	6.82207	58.5755	-21.3719
 401	1	10	0.100409	7.73712	60.0853	-21.3434
 402	1	10	0.163068	6.7339	59.6623	-19.9607
 403	1	10	0.042023	9.67819	56.4525	-16.3207
 404	1	10	0.011973	10.0802	55.1239	-17.4231
 405	1	10	-0.068283	8.40427	55.5751	-17.1715
 406	1	4	0.330652	7.15064	56.6397	-17.7177
 407	1	1	0.4882	27.688	46.2217	1.79788
 408	1	2	0.025477	26.3071	46.0501	1.8404
 409	1	3	-0.008635	25.9015	46.0375	0.410248
 410	1	2	0.050267	28.2282	46.2349	0.516055
 411	1	3	0.063619	27.0405	46.1277	-0.370631
 412	1	5	-0.374081	25.5724	45.9854	2.81182
 413	1	5	-0.389097	29.3876	46.4095	0.175454
 414	1	3	-0.003634	24.6196	46.0417	-0.15262
 415	1	3	-0.04742	26.9596	46.1765	-1.76296
 416	1	3	-0.200211	25.678	46.1704	-2.34922
 417	1	3	-0.05806	24.4896	46.1459	-1.56446
 418	1	6	0.16443	23.7666	46.005	0.516818
 419	1	6	0.154232	27.8623	46.2459	-2.36607
 420	1	6	0.179048	25.609	46.2272	-3.43374
 421	1	7	-0.076903	23.1123	46.2563	-2.28845
 422	1	7	0.238473	21.927	46.6653	-1.33326
 423	1	8	-0.092232	21.5828	45.6869	-0.465627
 424	1	8	-0.075474	20.8087	46.9747	-2.02857
 425	1	8	-0.095932	22.2301	47.7629	-0.603241
 426	1	7	0.340597	22.8242	44.8346	-2.90999
 427	1	8	-0.110855	23.6572	44.5581	-3.93921
 428	1	8	-0.104879	21.5613	44.6942	-3.37226
 429	1	8	-0.10758	23.009	43.8511	-1.99973
 430	1	3	-0.066666	23.2222	47.3908	-3.35201
 431	1	3	-0.06911	22.6464	47.2895	-4.64655
 432	1	3	-0.048109	22.8473	48.3321	-5.56032
 433	1	3	-0.057883	23.9195	48.5876	-3.01851
 434	1	3	-0.116273	24.1267	49.6163	-3.95829
 435	1	3	-0.113036	23.5888	49.4487	-5.23681
 436	1	2	0.502524	23.69	50.3071	-6.44591
 437	1	1	0.0355	22.9797	49.6426	-7.43916
 438	1	2	0.450202	22.418	48.4558	-6.97882
 439	1	3	-0.097429	22.9183	50.0873	-8.79579
 440	1	3	-0.043121	22.1936	51.2561	-9.1436
 441	1	3	-0.007101	22.196	51.7183	-10.4861
 442	1	3	0.055122	23.6297	49.3751	-9.78488
 443	1	3	-0.325582	23.6114	49.83	-11.1074
 444	1	3	0.061609	22.921	50.995	-11.4684
 445	1	7	0.04075	21.4286	52.0221	-8.05374
 446	1	9	-0.311814	21.535	52.9176	-10.7797
 447	1	6	0.16104	24.6974	50.5078	-3.70575
 448	1	6	0.14041	24.3374	48.7117	-2.02271
 449	1	6	0.147774	22.073	46.4259	-4.96712
 450	1	5	-0.476838	21.7588	47.641	-7.6014
 451	1	5	-0.479462	24.3239	51.345	-6.53716
 452	1	7	-0.144762	24.4513	48.131	-9.4626
 453	1	10	0.052647	25.1617	47.8974	-10.265
 454	1	10	0.065097	23.8014	47.2559	-9.3378
 455	1	10	0.048024	25.038	48.2576	-8.54483
 456	1	7	-0.169984	23.0499	51.4529	-12.9148
 457	1	6	0.223059	24.1647	49.2782	-11.8608
 458	1	10	0.004219	22.1034	51.3384	-13.4564
 459	1	10	0.100409	23.8038	50.8739	-13.4607
 460	1	10	0.163068	23.3675	52.5015	-12.9659
 461	1	10	0.042023	22.1134	52.6415	-7.46143
 462	1	10	0.011973	20.9164	51.3371	-7.36668
 463	1	10	-0.068283	20.6542	52.6884	-8.45223
 464	1	4	0.330652	21.146	53.4127	-9.99011
 465	1	1	0.4882	25.3109	40.36	13.4619
 466	1	2	0.025477	24.3878	41.3981	13.5478
 467	1	3	-0.008635	25.1794	42.6142	13.2278
 468	1	2	0.050267	26.6017	40.7602	13.1362
 469	1	3	0.063619	26.4856	42.2331	12.9734
 470	1	5	-0.374081	23.2095	41.351	13.8615
 471	1	5	-0.389097	27.6219	40.0918	13.0914
 472	1	3	-0.003634	24.7893	43.9588	13.2268
 473	1	3	-0.04742	27.4686	43.1785	12.6784
 474	1	3	-0.200211	27.0933	44.5372	12.6603
 475	1	3	-0.05806	25.7597	44.9543	12.9371
 476	1	6	0.16443	23.7622	44.2001	13.4796
 477	1	6	0.154232	28.4946	42.8661	12.496
 478	1	6	0.179048	27.8657	45.2775	12.4639
 479	1	7	-0.076903	25.4498	46.4753	13.0234
 480	1	7	0.238473	23.9168	46.8278	12.8394
 481	1	8	-0.092232	23.3575	46.1832	11.7915
 482	1	8	-0.075474	23.7432	48.1499	12.6131
 483	1	8	-0.095932	23.154	46.5242	13.9134
 484	1	7	0.340597	25.9043	46.9283	14.467
 485	1	8	-0.110855	25.3113	46.1979	15.439
 486	1	8	-0.104879	25.6168	48.2254	14.7204
 487	1	8	-0.10758	27.2327	46.7617	14.6627
 488	1	3	-0.066666	26.2251	47.1819	11.867
 489	1	3	-0.06911	25.962	46.7865	10.5286
 490	1	3	-0.048109	26.6473	47.4116	9.48078
 491	1	3	-0.057883	27.1978	48.2031	12.0828
 492	1	3	-0.116273	27.9146	48.7818	11.0161
 493	1	3	-0.113036	27.6185	48.3581	9.71847
 494	1	2	0.502524	28.1703	48.7969	8.41107
 495	1	1	0.0355	27.4346	48.1195	7.44312
 496	1	2	0.450202	26.503	47.2536	8.00908
 497	1	3	-0.097429	27.5873	48.3379	6.03699
 498	1	3	-0.043121	28.0321	47.2989	5.17761
 499	1	3	-0.007101	28.1597	47.5391	3.78493
 500	1	3	0.055122	27.28	49.6091	5.50096
 501	1	3	-0.325582	27.4962	49.8555	4.14076
 502	1	3	0.061609	27.9474	48.8474	3.28055
 503	1	7	0.04075	28.3447	45.9065	5.74416
 504	1	9	-0.311814	28.4681	46.4594	2.94757
 505	1	6	0.16104	28.6638	49.5521	11.1899
 506	1	6	0.14041	27.4266	48.5683	13.0769
 507	1	6	0.147774	25.2382	46.011	10.2934
 508	1	5	-0.476838	25.701	46.5311	7.44294
 509	1	5	-0.479462	29.0816	49.5916	8.25313
 510	1	7	-0.144762	26.723	50.7467	6.35087
 511	1	10	0.052647	26.2136	51.4957	5.73223
 512	1	10	0.065097	27.5249	51.2627	6.89272
 513	1	10	0.048024	25.988	50.3872	7.08139
 514	1	7	-0.169984	28.2092	49.2378	1.83048
 515	1	6	0.223059	27.3044	50.8482	3.74507
 516	1	10	0.004219	28.3361	50.3224	1.72312
 517	1	10	0.100409	27.3761	48.9443	1.182
 518	1	10	0.163068	29.1317	48.7756	1.45584
 519	1	10	0.042023	27.4376	45.2898	5.78106
 520	1	10	0.011973	28.7598	45.958	6.75791
 521	1	10	-0.068283	29.0869	45.3651	5.1438
 522	1	4	0.330652	28.6158	45.5692	3.40049
 523	1	1	0.4882	30.6442	25.414	12.0867
 524	1	2	0.025477	30.5457	26.7537	11.71
 525	1	3	-0.008635	30.802	27.507	12.9649
 526	1	2	0.050267	30.9605	25.2244	13.4296
 527	1	3	0.063619	31.0624	26.6025	13.9763
 528	1	5	-0.374081	30.4061	27.2343	10.5974
 529	1	5	-0.389097	31.2302	24.1878	14.0142
 530	1	3	-0.003634	30.8527	28.888	13.1844
 531	1	3	-0.04742	31.4189	27.0349	15.255
 532	1	3	-0.200211	31.4938	28.4238	15.4926
 533	1	3	-0.05806	31.2011	29.3754	14.4719
 534	1	6	0.16443	30.6325	29.5627	12.361
 535	1	6	0.154232	31.6482	26.311	16.034
 536	1	6	0.179048	31.7924	28.7371	16.4873
 537	1	7	-0.076903	31.2675	30.9175	14.6948
 538	1	7	0.238473	31.4139	31.3386	16.2098
 539	1	8	-0.092232	30.4664	30.7713	16.9911
 540	1	8	-0.075474	31.2688	32.6735	16.3752
 541	1	8	-0.095932	32.6171	31.0131	16.7353
 542	1	7	0.340597	32.5269	31.4397	13.8938
 543	1	8	-0.110855	32.3396	31.3812	12.5561
 544	1	8	-0.104879	33.6225	30.6907	14.1557
 545	1	8	-0.10758	32.8612	32.7177	14.1823
 546	1	3	-0.066666	29.9188	31.5262	14.2126
 547	1	3	-0.06911	29.8367	32.7638	13.5194
 548	1	3	-0.048109	28.5729	33.2887	13.2171
 549	1	3	-0.057883	28.7054	30.8728	14.5708
 550	1	3	-0.116273	27.4446	31.4198	14.2614
 551	1	3	-0.113036	27.4111	32.6406	13.5826
 552	1	2	0.502524	26.2587	33.5057	13.2161
 553	1	1	0.0355	26.8142	34.6521	12.6622
 554	1	2	0.450202	28.2008	34.5884	12.5949
 555	1	3	-0.097429	26.0481	35.8021	12.3056
 556	1	3	-0.043121	25.8995	36.8681	13.2264
 557	1	3	-0.007101	25.1203	38.0004	12.8753
 558	1	3	0.055122	25.4214	35.8603	11.0452
 559	1	3	-0.325582	24.6387	36.975	10.7157
 560	1	3	0.061609	24.4709	38.0376	11.6159
 561	1	7	0.04075	26.6119	36.7895	14.5857
 562	1	9	-0.311814	24.9884	39.0343	13.8071
 563	1	6	0.16104	26.5234	30.9309	14.5728
 564	1	6	0.14041	28.7357	29.9439	15.1348
 565	1	6	0.147774	30.7138	33.3431	13.2492
 566	1	5	-0.476838	28.9729	35.4358	12.1819
 567	1	5	-0.479462	25.0838	33.2704	13.4414
 568	1	7	-0.144762	25.561	34.7279	10.0362
 569	1	10	0.052647	25.112	33.8032	10.4195
 570	1	10	0.065097	26.6159	34.5295	9.81005
 571	1	10	0.048024	25.0635	34.9654	9.08781
 572	1	7	-0.169984	23.5462	39.1756	11.1997
 573	1	6	0.223059	24.1409	37.0089	9.75133
 574	1	10	0.004219	22.938	38.9055	10.3274
 575	1	10	0.100409	24.1157	40.0728	10.9318
 576	1	10	0.163068	22.8475	39.4323	12.0065
 577	1	10	0.042023	27.685	36.9885	14.4682
 578	1	10	0.011973	26.5038	35.7968	15.0395
 579	1	10	-0.068283	26.2261	37.5006	15.3262
 580	1	4	0.330652	25.3988	38.8666	14.7144
 581	1	1	0.4882	26.9477	9.88411	13.8301
 582	1	2	0.025477	26.786	11.2436	13.5719
 583	1	3	-0.008635	27.7993	11.9019	14.4394
 584	1	2	0.050267	27.9579	9.58893	14.7393
 585	1	3	0.063619	28.5005	10.9192	15.1146
 586	1	5	-0.374081	25.9566	11.7956	12.8672
 587	1	5	-0.389097	28.254	8.51409	15.2345
 588	1	3	-0.003634	28.0129	13.2619	14.6984
 589	1	3	-0.04742	29.479	11.2445	16.0537
 590	1	3	-0.200211	29.7174	12.608	16.3195
 591	1	3	-0.05806	28.983	13.6403	15.6649
 592	1	6	0.16443	27.3991	14.0031	14.1919
 593	1	6	0.154232	30.0067	10.4585	16.5904
 594	1	6	0.179048	30.4544	12.8351	17.0815
 595	1	7	-0.076903	29.102	15.1423	16.0702
 596	1	7	0.238473	30.4055	15.4715	16.8949
 597	1	8	-0.092232	30.3904	14.954	18.1447
 598	1	8	-0.075474	30.5878	16.8036	17.0442
 599	1	8	-0.095932	31.5139	15.0123	16.2706
 600	1	7	0.340597	27.8278	15.4406	16.9574
 601	1	8	-0.110855	26.7064	15.5217	16.2054
 602	1	8	-0.104879	27.9111	16.5888	17.6664
 603	1	8	-0.10758	27.6099	14.4594	17.8635
 604	1	3	-0.066666	29.1721	16.032	14.7935
 605	1	3	-0.06911	28.661	17.3562	14.7858
 606	1	3	-0.048109	28.8352	18.1481	13.6473
 607	1	3	-0.057883	29.8642	15.575	13.6355
 608	1	3	-0.116273	30.0118	16.3848	12.4878
 609	1	3	-0.113036	29.4814	17.6798	12.5236
 610	1	2	0.502524	29.5242	18.7848	11.5235
 611	1	1	0.0355	28.9129	19.8712	12.141
 612	1	2	0.450202	28.4591	19.5652	13.417
 613	1	3	-0.097429	28.7533	21.1659	11.5613
 614	1	3	-0.043121	29.8186	22.1002	11.5804
 615	1	3	-0.007101	29.5941	23.4328	11.1445
 616	1	3	0.055122	27.493	21.5356	11.0506
 617	1	3	-0.325582	27.2893	22.8445	10.5975
 618	1	3	0.061609	28.3182	23.7967	10.6478
 619	1	7	0.04075	31.1924	21.6527	12.0993
 620	1	9	-0.311814	30.6506	24.3498	11.1607
 621	1	6	0.16104	30.5488	16.0295	11.6103
 622	1	6	0.14041	30.3164	14.5865	13.6287
 623	1	6	0.147774	28.1719	17.8004	15.6457
 624	1	5	-0.476838	27.8745	20.2908	14.2033
 625	1	5	-0.479462	30.0242	18.7334	10.4128
 626	1	7	-0.144762	26.3423	20.5395	10.9706
 627	1	10	0.052647	26.6414	19.6376	10.4219
 628	1	10	0.065097	25.4738	20.9612	10.4504
 629	1	10	0.048024	26.0092	20.2373	11.971
 630	1	7	-0.169984	28.0212	25.189	10.11
 631	1	6	0.223059	26.316	23.1184	10.2038
 632	1	10	0.004219	28.7854	25.5057	9.39037
 633	1	10	0.100409	27.9783	25.9254	10.9203
 634	1	10	0.163068	27.0596	25.2279	9.58702
 635	1	10	0.042023	31.5305	20.745	11.5857
 636	1	10	0.011973	31.1502	21.4324	13.1734
 637	1	10	-0.068283	31.9839	22.3961	11.9467
 638	1	4	0.330652	31.573	23.945	11.2365
 639	1	1	0.4882	29.4025	-5.97192	16.2154
 640	1	2	0.025477	28.0415	-5.69702	16.2708