pySIMM System Object

2032 atoms
2206 bonds
3885 angles
5736 dihedrals
560 impropers

10 atom types
14 bond types
24 angle types
9 dihedral types
4 improper types

-200.803674 200.803674 xlo xhi
-200.803674 200.803674 ylo yhi
-200.803674 200.803674 zlo zhi

Masses

   1	14.01	# n
   2	12.01	# c
   3	12.01	# ca
   4	1.008	# hn
   5	16.0	# o
   6	1.008	# ha
   7	12.01	# c3
   8	19.0	# f
   9	14.01	# nh
  10	1.008	# hc

Pair Coeffs

   1	0.17	3.249998523775958	# n
   2	0.086	3.3996695084235347	# c
   3	0.086	3.3996695084235347	# ca
   4	0.0157	1.069078461768407	# hn
   5	0.21	2.959921901149463	# o
   6	0.015	2.59964245953351	# ha
   7	0.1094	3.3996695084235347	# c3
   8	0.061	3.1181455134911875	# f
   9	0.17	3.249998523775958	# nh
  10	0.0157	2.649532787749369	# hc

Bond Coeffs

   1	345.9	1.4906	# c,ca
   2	345.8	1.086	# ca,ha
   3	637.7	1.2183	# c,o
   4	321.0	1.5156	# c3,ca
   5	300.9	1.5375	# c3,c3
   6	384.2	1.4121	# ca,n
   7	330.6	1.0969	# c3,hc
   8	404.6	1.0121	# hn,nh
   9	403.2	1.0129	# hn,n
  10	356.9	1.3497	# c3,f
  11	417.9	1.3859	# ca,nh
  12	427.6	1.3789	# c,n
  13	461.1	1.3984	# ca,ca
  14	452.5	1.4016	# n,nh

Angle Coeffs

   1	74.22	123.05	# n,c,o
   2	40.07	115.12	# hn,nh,hn
   3	68.29	120.95	# ca,ca,nh
   4	66.62	120.02	# ca,ca,ca
   5	48.42	116.07	# ca,nh,hn
   6	68.72	122.6	# ca,c,o
   7	48.33	117.55	# c,n,hn
   8	64.28	120.33	# c,ca,ca
   9	67.68	115.25	# ca,c,n
  10	39.4	107.58	# hc,c3,hc
  11	63.53	120.77	# c3,ca,ca
  12	67.87	120.19	# ca,ca,n
  13	70.89	107.36	# f,c3,f
  14	66.11	109.24	# c3,c3,f
  15	46.8	110.47	# ca,c3,hc
  16	62.86	111.51	# c3,c3,c3
  17	63.15	112.07	# c3,c3,ca
  18	63.82	123.71	# c,n,ca
  19	63.56	112.24	# ca,c3,ca
  20	63.74	127.08	# c,n,c
  21	48.18	119.88	# ca,ca,ha
  22	67.01	118.71	# c,n,nh
  23	67.61	116.03	# ca,nh,n
  24	50.88	108.17	# hn,nh,n

Dihedral Coeffs

   1	2	2.5	2	180	2.0	1	0	# hn,n,c,o
   2	1	3.625	2	180	# X,ca,ca,X
   3	1	0.15555555555555556	3	0	# X,c3,c3,X
   4	1	1.0	2	180	# X,c,ca,X
   5	1	0.0	2	0	# X,c3,ca,X
   6	1	2.5	2	180	# X,c,n,X
   7	1	0.45	2	180	# X,ca,n,X
   8	1	1.05	2	180	# X,ca,nh,X
   9	1	1.1	2	0	# X,n,nh,X

Improper Coeffs

   1	10.5	-1	2	# c,X,X,o
   2	1.1	-1	2	# ca,X,X,ha
   3	1.1	-1	2	# ca,ca,ca,c3
   4	1.1	-1	2	# n,X,X,hn

Atoms

   1	1	1	0.4882	-52.8078	15.8765	6.19276
   2	1	2	0.025477	-54.011	16.5499	6.37967
   3	1	3	-0.008635	-54.978	15.4757	6.71864
   4	1	2	0.050267	-52.8937	14.4939	6.33863
   5	1	3	0.063619	-54.3194	14.2602	6.69546
   6	1	5	-0.374081	-54.267	17.7289	6.19775
   7	1	5	-0.389097	-52.0488	13.6458	6.09746
   8	1	3	-0.003634	-56.3502	15.568	6.9688
   9	1	3	-0.04742	-55.0075	13.0661	6.92497
  10	1	3	-0.200211	-56.3928	13.1386	7.18656
  11	1	3	-0.05806	-57.0888	14.3806	7.2217
  12	1	6	0.16443	-56.8035	16.5522	6.94083
  13	1	6	0.154232	-54.4841	12.1135	6.88356
  14	1	6	0.179048	-56.9372	12.2105	7.34994
  15	1	7	-0.076903	-58.6322	14.3808	7.44745
  16	1	7	0.238473	-59.2058	15.7976	7.83505
  17	1	8	-0.092232	-60.494	15.7267	8.24111
  18	1	8	-0.075474	-59.1813	16.6806	6.81081
  19	1	8	-0.095932	-58.5185	16.3444	8.86352
  20	1	7	0.340597	-59.2659	13.9115	6.07889
  21	1	8	-0.110855	-58.7133	14.5608	5.02825
  22	1	8	-0.104879	-60.5978	14.127	5.99268
  23	1	8	-0.10758	-59.0626	12.5922	5.86142
  24	1	3	-0.066666	-58.9802	13.4388	8.63984
  25	1	3	-0.06911	-60.191	12.6974	8.68406
  26	1	3	-0.048109	-60.4728	11.9177	9.81168
  27	1	3	-0.057883	-58.1165	13.3777	9.77099
  28	1	3	-0.116273	-58.4122	12.5744	10.8927
  29	1	3	-0.113036	-59.6076	11.8481	10.8832
  30	1	2	0.502524	-60.215	10.9587	11.9116
  31	1	1	0.0355	-61.4345	10.5545	11.382
  32	1	2	0.450202	-61.6653	11.0858	10.1199
  33	1	3	-0.097429	-62.3617	9.70583	12.0561
  34	1	3	-0.043121	-62.2321	8.29813	11.9747
  35	1	3	-0.007101	-63.186	7.47303	12.62
  36	1	3	0.055122	-63.4269	10.2816	12.7809
  37	1	3	-0.325582	-64.3643	9.45151	13.4107
  38	1	3	0.061609	-64.2575	8.05618	13.331
  39	1	7	0.04075	-61.0576	7.69494	11.1947
  40	1	9	-0.311814	-63.0789	6.08747	12.5587
  41	1	6	0.16104	-57.7442	12.5345	11.7512
  42	1	6	0.14041	-57.2051	13.9701	9.79056
  43	1	6	0.147774	-60.9251	12.7289	7.88663
  44	1	5	-0.476838	-62.6377	10.9252	9.40253
  45	1	5	-0.479462	-59.7244	10.6563	12.9858
  46	1	7	-0.144762	-63.5865	11.7918	12.8918
  47	1	10	0.052647	-63.7517	12.2429	11.9056
  48	1	10	0.065097	-62.6937	12.2499	13.3347
  49	1	10	0.048024	-64.4408	12.0646	13.5232
  50	1	7	-0.169984	-65.312	7.19762	14.0177
  51	1	6	0.223059	-65.1878	9.89413	13.9626
  52	1	10	0.004219	-66.1442	7.79849	14.4063
  53	1	10	0.100409	-64.8751	6.64486	14.8578
  54	1	10	0.163068	-65.7308	6.46757	13.315
  55	1	10	0.042023	-60.1095	7.89974	11.7081
  56	1	10	0.011973	-60.992	8.12403	10.1871
  57	1	10	-0.068283	-61.1271	6.60776	11.0661
  58	1	4	0.330652	-62.3225	5.67319	12.0269
  59	1	1	0.4882	-43.9102	25.5464	13.2309
  60	1	2	0.025477	-45.2996	25.5684	13.2952
  61	1	3	-0.008635	-45.6809	24.144	13.4713
  62	1	2	0.050267	-43.3544	24.2686	13.3115
  63	1	3	0.063619	-44.5344	23.3729	13.4428
  64	1	5	-0.374081	-46.0402	26.5352	13.374
  65	1	5	-0.389097	-42.1827	23.9384	13.3972
  66	1	3	-0.003634	-46.9307	23.5938	13.7751
  67	1	3	-0.04742	-44.5921	21.9904	13.6314
  68	1	3	-0.200211	-45.8498	21.4104	13.9016
  69	1	3	-0.05806	-47.0304	22.197	14.021
  70	1	6	0.16443	-47.7721	24.2718	13.8631
  71	1	6	0.154232	-43.6816	21.3956	13.611
  72	1	6	0.179048	-45.8954	20.3379	14.0772
  73	1	7	-0.076903	-48.3386	21.5149	14.5289
  74	1	7	0.238473	-48.0825	21.1746	16.0527
  75	1	8	-0.092232	-47.5234	22.2198	16.7054
  76	1	8	-0.075474	-47.2342	20.1324	16.2054
  77	1	8	-0.095932	-49.2045	20.8646	16.7403
  78	1	7	0.340597	-49.6152	22.4344	14.4129
  79	1	8	-0.110855	-49.5839	23.4897	15.2589
  80	1	8	-0.104879	-50.754	21.7574	14.6866
  81	1	8	-0.10758	-49.7659	22.9197	13.1596
  82	1	3	-0.066666	-48.6323	20.2582	13.6595
  83	1	3	-0.06911	-48.3699	20.2944	12.2645
  84	1	3	-0.048109	-48.716	19.1883	11.4767
  85	1	3	-0.057883	-49.257	19.0962	14.1979
  86	1	3	-0.116273	-49.6019	17.9965	13.3876
  87	1	3	-0.113036	-49.3192	18.0737	12.0217
  88	1	2	0.502524	-49.5956	17.108	10.926
  89	1	1	0.0355	-49.1249	17.7136	9.76923
  90	1	2	0.450202	-48.5763	18.9678	10.0112
  91	1	3	-0.097429	-49.2091	17.1112	8.47992
  92	1	3	-0.043121	-50.4124	17.1737	7.73282
  93	1	3	-0.007101	-50.4855	16.5225	6.47376
  94	1	3	0.055122	-48.0859	16.4306	7.96724
  95	1	3	-0.325582	-48.1599	15.8284	6.7049
  96	1	3	0.061609	-49.3426	15.8735	5.95385
  97	1	7	0.04075	-51.6117	17.9647	8.26898
  98	1	9	-0.311814	-51.6522	16.5177	5.70418
  99	1	6	0.16104	-50.0933	17.1194	13.8041
 100	1	6	0.14041	-49.5114	19.035	15.2495
 101	1	6	0.147774	-47.9298	21.1685	11.79
 102	1	5	-0.476838	-48.056	19.7288	9.21286
 103	1	5	-0.479462	-50.1247	16.0155	11.044
 104	1	7	-0.144762	-46.7838	16.338	8.75328
 105	1	10	0.052647	-46.9531	15.916	9.75173
 106	1	10	0.065097	-46.3281	17.329	8.87251
 107	1	10	0.048024	-46.0489	15.6976	8.25053
 108	1	7	-0.169984	-49.3652	15.185	4.59308
 109	1	6	0.223059	-47.2905	15.3102	6.31379
 110	1	10	0.004219	-49.8755	15.7923	3.83502
 111	1	10	0.100409	-49.8733	14.2145	4.65785
 112	1	10	0.163068	-48.3501	14.9981	4.22335
 113	1	10	0.042023	-52.094	18.5411	7.47068
 114	1	10	0.011973	-52.3589	17.2934	8.7094
 115	1	10	-0.068283	-51.3365	18.6958	9.03818
 116	1	4	0.330652	-51.5526	16.2176	4.74681
 117	1	1	0.4882	-28.9583	31.9449	18.5405
 118	1	2	0.025477	-29.9885	31.7154	19.4489
 119	1	3	-0.008635	-30.9506	30.8657	18.6999
 120	1	2	0.050267	-29.163	31.3806	17.2857
 121	1	3	0.063619	-30.4606	30.6671	17.4215
 122	1	5	-0.374081	-30.1213	32.1425	20.5843
 123	1	5	-0.389097	-28.4966	31.51	16.2714
 124	1	3	-0.003634	-32.1673	30.3145	19.1183
 125	1	3	-0.04742	-31.1627	29.897	16.4924
 126	1	3	-0.200211	-32.3891	29.3291	16.8961
 127	1	3	-0.05806	-32.9223	29.5357	18.2001
 128	1	6	0.16443	-32.4884	30.4968	20.138
 129	1	6	0.154232	-30.7616	29.7381	15.4938
 130	1	6	0.179048	-32.9303	28.7108	16.1823
 131	1	7	-0.076903	-34.2696	28.8519	18.5815
 132	1	7	0.238473	-33.9143	27.354	18.9252
 133	1	8	-0.092232	-33.5213	26.6664	17.8291
 134	1	8	-0.075474	-34.9445	26.6755	19.4793
 135	1	8	-0.095932	-32.8885	27.2757	19.8041
 136	1	7	0.340597	-34.9856	29.517	19.822
 137	1	8	-0.110855	-34.3695	29.2636	20.9987
 138	1	8	-0.104879	-36.2587	29.0793	19.9553
 139	1	8	-0.10758	-35.0595	30.8618	19.697
 140	1	3	-0.066666	-35.2555	29.0025	17.3828
 141	1	3	-0.06911	-36.0721	27.9382	16.9119
 142	1	3	-0.048109	-36.9532	28.1768	15.8483
 143	1	3	-0.057883	-35.3859	30.2757	16.7588
 144	1	3	-0.116273	-36.2815	30.4964	15.6935
 145	1	3	-0.113036	-37.0565	29.4184	15.2569
 146	1	2	0.502524	-38.0864	29.3411	14.187
 147	1	1	0.0355	-38.5469	28.03	14.2026
 148	1	2	0.450202	-37.913	27.261	15.1722
 149	1	3	-0.097429	-39.5592	27.5395	13.3221
 150	1	3	-0.043121	-40.8929	27.3907	13.7738
 151	1	3	-0.007101	-41.8907	26.9152	12.8837
 152	1	3	0.055122	-39.2242	27.2187	11.9906
 153	1	3	-0.325582	-40.227	26.7928	11.1083
 154	1	3	0.061609	-41.5571	26.651	11.5331
 155	1	7	0.04075	-41.2331	27.7265	15.2341
 156	1	9	-0.311814	-43.1878	26.7497	13.3772
 157	1	6	0.16104	-36.3776	31.4752	15.2273
 158	1	6	0.14041	-34.7862	31.1126	17.1077
 159	1	6	0.147774	-36.0499	26.9443	17.3469
 160	1	5	-0.476838	-38.0982	26.0869	15.4408
 161	1	5	-0.479462	-38.4451	30.2585	13.4687
 162	1	7	-0.144762	-37.7961	27.3471	11.4747
 163	1	10	0.052647	-37.5421	28.3981	11.2887
 164	1	10	0.065097	-37.6561	26.7996	10.5349
 165	1	10	0.048024	-37.071	26.9413	12.191
 166	1	7	-0.169984	-42.603	26.2543	10.4975
 167	1	6	0.223059	-39.966	26.5705	10.0786
 168	1	10	0.004219	-42.8919	25.2017	10.6023
 169	1	10	0.100409	-42.2283	26.3912	9.47605
 170	1	10	0.163068	-43.5032	26.8741	10.5915
 171	1	10	0.042023	-40.742	28.652	15.5588
 172	1	10	0.011973	-40.9045	26.9205	15.9019
 173	1	10	-0.068283	-42.3047	27.8798	15.4102
 174	1	4	0.330652	-43.3035	27.0157	14.3441
 175	1	1	0.4882	-17.9998	37.515	8.38197
 176	1	2	0.025477	-17.2502	36.6429	9.16628
 177	1	3	-0.008635	-18.2498	36.025	10.0727
 178	1	2	0.050267	-19.3413	37.6021	8.73853
 179	1	3	0.063619	-19.4817	36.609	9.83553
 180	1	5	-0.374081	-16.0633	36.3724	9.09581
 181	1	5	-0.389097	-20.2327	38.2495	8.21293
 182	1	3	-0.003634	-18.1028	34.9389	10.9419
 183	1	3	-0.04742	-20.6279	36.1704	10.5003
 184	1	3	-0.200211	-20.4984	35.0871	11.3928
 185	1	3	-0.05806	-19.25	34.4393	11.6136
 186	1	6	0.16443	-17.1248	34.4762	11.0238
 187	1	6	0.154232	-21.5947	36.6229	10.2907
 188	1	6	0.179048	-21.398	34.7084	11.8733
 189	1	7	-0.076903	-19.2231	33.1328	12.4562
 190	1	7	0.238473	-19.7202	31.9907	11.4858
 191	1	8	-0.092232	-19.0216	31.9797	10.3268
 192	1	8	-0.075474	-21.0147	32.1545	11.129
 193	1	8	-0.095932	-19.6013	30.7542	12.0195
 194	1	7	0.340597	-17.7898	32.7554	13.0058
 195	1	8	-0.110855	-16.949	32.2941	12.0528
 196	1	8	-0.104879	-17.8603	31.7903	13.9509
 197	1	8	-0.10758	-17.1744	33.8113	13.5846
 198	1	3	-0.066666	-20.1322	33.3363	13.7042
 199	1	3	-0.06911	-21.1391	32.4103	14.0897
 200	1	3	-0.048109	-21.8767	32.6568	15.2538
 201	1	3	-0.057883	-19.9214	34.4815	14.523
 202	1	3	-0.116273	-20.659	34.6993	15.7036
 203	1	3	-0.113036	-21.6335	33.7584	16.0471
 204	1	2	0.502524	-22.5444	33.696	17.22
 205	1	1	0.0355	-23.3084	32.5496	17.0396
 206	1	2	0.450202	-22.9705	31.8651	15.879
 207	1	3	-0.097429	-24.3049	32.1169	17.9632
 208	1	3	-0.043121	-25.6094	32.6698	17.9315
 209	1	3	-0.007101	-26.5772	32.2402	18.8753
 210	1	3	0.055122	-23.9685	31.1433	18.9257
 211	1	3	-0.325582	-24.9233	30.752	19.872
 212	1	3	0.061609	-26.2141	31.2983	19.869
 213	1	7	0.04075	-25.9816	33.6952	16.8503
 214	1	9	-0.311814	-27.8635	32.7856	18.8223
 215	1	6	0.16104	-20.475	35.5663	16.3355
 216	1	6	0.14041	-19.1626	35.21	14.2493
 217	1	6	0.147774	-21.3582	31.5086	13.5274
 218	1	5	-0.476838	-23.4545	30.8344	15.4443
 219	1	5	-0.479462	-22.5916	34.4975	18.1374
 220	1	7	-0.144762	-22.5806	30.5154	18.9759
 221	1	10	0.052647	-22.49	29.7939	19.797
 222	1	10	0.065097	-21.8057	31.2777	19.1232
 223	1	10	0.048024	-22.3594	29.9763	18.0462
 224	1	7	-0.169984	-27.1617	30.8741	20.983
 225	1	6	0.223059	-24.6544	30.0217	20.6291
 226	1	10	0.004219	-26.6249	30.3915	21.8093
 227	1	10	0.100409	-27.9099	30.161	20.6192
 228	1	10	0.163068	-27.6846	31.7401	21.4082
 229	1	10	0.042023	-26.2925	33.1861	15.9293
 230	1	10	0.011973	-25.1466	34.3574	16.596
 231	1	10	-0.068283	-26.8016	34.3562	17.1587
 232	1	4	0.330652	-27.9734	33.5919	18.2237
 233	1	1	0.4882	-3.0818	41.2038	3.88862
 234	1	2	0.025477	-3.32044	39.9643	3.30271
 235	1	3	-0.008635	-4.78114	39.9686	3.03294
 236	1	2	0.050267	-4.20255	42.0221	3.9813
 237	1	3	0.063619	-5.30303	41.1811	3.44676
 238	1	5	-0.374081	-2.53836	39.0538	3.08411
 239	1	5	-0.389097	-4.28468	43.1704	4.3843
 240	1	3	-0.003634	-5.58958	38.9635	2.49233
 241	1	3	-0.04742	-6.67	41.4471	3.36036
 242	1	3	-0.200211	-7.50596	40.4346	2.84835
 243	1	3	-0.05806	-6.99076	39.1828	2.40795
 244	1	6	0.16443	-5.11458	38.0423	2.17263
 245	1	6	0.154232	-7.06888	42.4011	3.6986
 246	1	6	0.179048	-8.57571	40.6273	2.79796
 247	1	7	-0.076903	-7.98794	38.1201	1.86354
 248	1	7	0.238473	-8.46027	38.6253	0.443083
 249	1	8	-0.092232	-9.21169	39.7469	0.51719
 250	1	8	-0.075474	-9.18878	37.7092	-0.234277
 251	1	8	-0.095932	-7.40581	38.9363	-0.344831
 252	1	7	0.340597	-7.36332	36.6758	1.70901
 253	1	8	-0.110855	-6.74508	36.2585	2.83749
 254	1	8	-0.104879	-6.45247	36.595	0.712878
 255	1	8	-0.10758	-8.31095	35.7477	1.44483
 256	1	3	-0.066666	-9.13745	37.989	2.90456
 257	1	3	-0.06911	-10.5113	37.976	2.5446
 258	1	3	-0.048109	-11.4702	37.7734	3.54508
 259	1	3	-0.057883	-8.79822	37.8124	4.27634
 260	1	3	-0.116273	-9.77687	37.5873	5.26353
 261	1	3	-0.113036	-11.1138	37.5618	4.86033
 262	1	2	0.502524	-12.3454	37.2612	5.63478
 263	1	1	0.0355	-13.3875	37.3141	4.71612
 264	1	2	0.450202	-12.9484	37.6516	3.44015
 265	1	3	-0.097429	-14.7389	36.9822	5.03584
 266	1	3	-0.043121	-15.5005	37.8124	5.89669
 267	1	3	-0.007101	-16.8109	37.4244	6.27483
 268	1	3	0.055122	-15.2972	35.7862	4.53263
 269	1	3	-0.325582	-16.6214	35.4599	4.84554
 270	1	3	0.061609	-17.3872	36.2621	5.70089
 271	1	7	0.04075	-14.8908	39.1032	6.46056
 272	1	9	-0.311814	-17.471	38.1761	7.2554
 273	1	6	0.16104	-9.50554	37.4117	6.30284
 274	1	6	0.14041	-7.7555	37.8166	4.5819
 275	1	6	0.147774	-10.8517	38.0862	1.52018
 276	1	5	-0.476838	-13.6082	37.7787	2.42256
 277	1	5	-0.479462	-12.3935	36.9714	6.81817
 278	1	7	-0.144762	-14.5193	34.8163	3.6486
 279	1	10	0.052647	-14.8389	33.7818	3.82496
 280	1	10	0.065097	-13.4399	34.8443	3.83639
 281	1	10	0.048024	-14.6864	35.0399	2.58763
 282	1	7	-0.169984	-18.8237	35.8239	5.96153
 283	1	6	0.223059	-17.0556	34.5572	4.4266
 284	1	10	0.004219	-19.1983	35.181	5.15506
 285	1	10	0.100409	-19.5026	36.6836	6.01937
 286	1	10	0.163068	-18.8985	35.2502	6.89222
 287	1	10	0.042023	-14.414	38.9152	7.43106
 288	1	10	0.011973	-15.6435	39.8885	6.60057
 289	1	10	-0.068283	-14.1348	39.5347	5.79317
 290	1	4	0.330652	-16.9866	38.9905	7.59814
 291	1	1	0.4882	3.96228	52.0253	4.87422
 292	1	2	0.025477	2.7807	51.2929	4.87894
 293	1	3	-0.008635	2.11585	51.6969	6.14579
 294	1	2	0.050267	4.14866	52.8286	5.99677
 295	1	3	0.063619	2.91222	52.6238	6.79185
 296	1	5	-0.374081	2.42077	50.4201	4.10616
 297	1	5	-0.389097	5.11791	53.5025	6.30926
 298	1	3	-0.003634	0.946968	51.2084	6.73391
 299	1	3	-0.04742	2.54069	53.1665	8.02367
 300	1	3	-0.200211	1.35333	52.7001	8.62536
 301	1	3	-0.05806	0.564278	51.6816	8.01815
 302	1	6	0.16443	0.392751	50.4231	6.22583
 303	1	6	0.154232	3.17532	53.9018	8.51322
 304	1	6	0.179048	1.09002	53.1143	9.59307
 305	1	7	-0.076903	-0.626381	50.981	8.73746
 306	1	7	0.238473	-0.753085	51.3254	10.2726
 307	1	8	-0.092232	-1.12582	52.6057	10.4974
 308	1	8	-0.075474	0.40513	51.1237	10.9417
 309	1	8	-0.095932	-1.6679	50.5398	10.8848
 310	1	7	0.340597	-1.94557	51.4298	7.99366
 311	1	8	-0.110855	-2.01311	50.9431	6.7342
 312	1	8	-0.104879	-2.01079	52.7762	7.88034
 313	1	8	-0.10758	-3.07702	51.0389	8.62189
 314	1	3	-0.066666	-0.331448	49.4554	8.65567
 315	1	3	-0.06911	-1.31481	48.49	8.31411
 316	1	3	-0.048109	-0.926487	47.1481	8.19897
 317	1	3	-0.057883	0.994906	49.0062	8.92173
 318	1	3	-0.116273	1.36565	47.6563	8.79173
 319	1	3	-0.113036	0.377146	46.7479	8.4128
 320	1	2	0.502524	0.471794	45.2912	8.14977
 321	1	1	0.0355	-0.809133	44.8973	7.79025
 322	1	2	0.450202	-1.71721	45.9493	7.81091
 323	1	3	-0.097429	-1.13729	43.5655	7.40892
 324	1	3	-0.043121	-1.27695	43.2291	6.04098
 325	1	3	-0.007101	-1.62299	41.9042	5.67815
 326	1	3	0.055122	-1.30542	42.5851	8.40695
 327	1	3	-0.325582	-1.61138	41.2703	8.0336
 328	1	3	0.061609	-1.7691	40.9181	6.68511
 329	1	7	0.04075	-1.08591	44.3093	4.96541
 330	1	9	-0.311814	-1.8062	41.6072	4.32506
 331	1	6	0.16104	2.38854	47.3278	8.9661
 332	1	6	0.14041	1.7643	49.7181	9.2096
 333	1	6	0.147774	-2.35011	48.7516	8.11802
 334	1	5	-0.476838	-2.90607	45.9236	7.54408
 335	1	5	-0.479462	1.48546	44.6153	8.20128
 336	1	7	-0.144762	-1.15192	42.9211	9.886
 337	1	10	0.052647	-0.136601	43.2717	10.109
 338	1	10	0.065097	-1.33913	42.0491	10.5237
 339	1	10	0.048024	-1.85816	43.7049	10.1871
 340	1	7	-0.169984	-2.05857	39.4573	6.36558
 341	1	6	0.223059	-1.71997	40.5108	8.80157
 342	1	10	0.004219	-1.84385	38.8057	7.22187
 343	1	10	0.100409	-1.43879	39.1036	5.5323
 344	1	10	0.163068	-3.1111	39.3106	6.10047
 345	1	10	0.042023	-0.276768	45.0037	5.22178
 346	1	10	0.011973	-2.00345	44.8975	4.83977
 347	1	10	-0.068283	-0.822417	43.8931	3.98489
 348	1	4	0.330652	-1.50667	42.3219	3.67756
 349	1	1	0.4882	14.6977	48.9058	-8.13122
 350	1	2	0.025477	13.9798	50.0882	-8.28228
 351	1	3	-0.008635	12.7379	49.8552	-7.50063
 352	1	2	0.050267	14.0862	47.9611	-7.31207
 353	1	3	0.063619	12.8002	48.5967	-6.93128
 354	1	5	-0.374081	14.2989	51.114	-8.86208
 355	1	5	-0.389097	14.5287	46.9014	-6.89967
 356	1	3	-0.003634	11.6476	50.7039	-7.29097
 357	1	3	-0.04742	11.7663	48.1133	-6.12784
 358	1	3	-0.200211	10.659	48.9561	-5.90116
 359	1	3	-0.05806	10.5825	50.2636	-6.45937
 360	1	6	0.16443	11.6653	51.6782	-7.76592
 361	1	6	0.154232	11.8271	47.1185	-5.69153
 362	1	6	0.179048	9.85331	48.5894	-5.2684
 363	1	7	-0.076903	9.33873	51.1438	-6.13748
 364	1	7	0.238473	9.52756	52.6619	-6.52369
 365	1	8	-0.092232	8.52024	53.4328	-6.05366
 366	1	8	-0.075474	9.57334	52.8664	-7.85975
 367	1	8	-0.095932	10.6612	53.1749	-5.99265
 368	1	7	0.340597	8.13688	50.5377	-6.96358
 369	1	8	-0.110855	8.49548	50.2928	-8.24501
 370	1	8	-0.104879	7.05456	51.3457	-7.02433
 371	1	8	-0.10758	7.71789	49.3592	-6.45021
 372	1	3	-0.066666	9.10905	51.1292	-4.59775
 373	1	3	-0.06911	7.81253	51.2339	-4.02986
 374	1	3	-0.048109	7.6892	51.3751	-2.64262
 375	1	3	-0.057883	10.232	51.1569	-3.72119
 376	1	3	-0.116273	10.0859	51.2964	-2.32658
 377	1	3	-0.113036	8.79146	51.421	-1.81486
 378	1	2	0.502524	8.33005	51.7721	-0.445276
 379	1	1	0.0355	6.95638	51.9549	-0.55119
 380	1	2	0.450202	6.48296	51.6714	-1.82779
 381	1	3	-0.097429	6.15923	52.5586	0.468208
 382	1	3	-0.043121	5.84625	51.8722	1.66831
 383	1	3	-0.007101	5.0933	52.5202	2.68632
 384	1	3	0.055122	5.72764	53.8881	0.283117
 385	1	3	-0.325582	4.93554	54.4957	1.2594
 386	1	3	0.061609	4.60492	53.838	2.45212
 387	1	7	0.04075	6.36606	50.442	1.88126
 388	1	9	-0.311814	4.96131	51.833	3.90382
 389	1	6	0.16104	10.9523	51.3686	-1.67198
 390	1	6	0.14041	11.2402	51.1227	-4.12608
 391	1	6	0.147774	6.91291	51.2826	-4.63434
 392	1	5	-0.476838	5.34165	51.763	-2.24675
 393	1	5	-0.479462	9.04299	51.9699	0.52406
 394	1	7	-0.144762	6.11205	54.7135	-0.941389
 395	1	10	0.052647	7.15408	54.5434	-1.23834
 396	1	10	0.065097	6.0136	55.7884	-0.747074
 397	1	10	0.048024	5.46719	54.4731	-1.79542
 398	1	7	-0.169984	3.77472	54.6502	3.44011
 399	1	6	0.223059	4.59425	55.5122	1.09171
 400	1	10	0.004219	2.883	54.1071	3.77317
 401	1	10	0.100409	3.40924	55.5817	2.99225
 402	1	10	0.163068	4.37829	54.94	4.30829
 403	1	10	0.042023	7.35222	50.457	2.36265
 404	1	10	0.011973	6.46381	49.8894	0.939078
 405	1	10	-0.068283	5.69705	49.8424	2.51174
 406	1	4	0.330652	5.28666	50.8784	3.95292
 407	1	1	0.4882	22.3937	34.4316	-9.71655
 408	1	2	0.025477	22.0077	34.8526	-8.44736
 409	1	3	-0.008635	20.9012	35.8108	-8.70899
 410	1	2	0.050267	21.6181	34.9381	-10.7541
 411	1	3	0.063619	20.6653	35.8502	-10.0721
 412	1	5	-0.374081	22.5072	34.5875	-7.36707
 413	1	5	-0.389097	21.7516	34.7806	-11.9572
 414	1	3	-0.003634	20.223	36.653	-7.82028
 415	1	3	-0.04742	19.7128	36.7116	-10.6177
 416	1	3	-0.200211	19.0195	37.567	-9.73899
 417	1	3	-0.05806	19.278	37.5793	-8.339
 418	1	6	0.16443	20.473	36.5943	-6.76627
 419	1	6	0.154232	19.5405	36.7354	-11.6916
 420	1	6	0.179048	18.291	38.2562	-10.161
 421	1	7	-0.076903	18.5305	38.6194	-7.453
 422	1	7	0.238473	19.1817	38.826	-6.03085
 423	1	8	-0.092232	19.0205	37.761	-5.21339
 424	1	8	-0.075474	18.6486	39.8904	-5.38822
 425	1	8	-0.095932	20.5096	39.0693	-6.11507
 426	1	7	0.340597	17.0558	38.0824	-7.28005
 427	1	8	-0.110855	16.3582	38.1398	-8.43733
 428	1	8	-0.104879	16.3421	38.761	-6.35337
 429	1	8	-0.10758	17.0438	36.7851	-6.89751
 430	1	3	-0.066666	18.6172	39.9996	-8.17085
 431	1	3	-0.06911	17.5167	40.8923	-8.25383
 432	1	3	-0.048109	17.6872	42.116	-8.91175
 433	1	3	-0.057883	19.8589	40.4087	-8.73774
 434	1	3	-0.116273	20.0101	41.6477	-9.39245
 435	1	3	-0.113036	18.8949	42.4863	-9.46621
 436	1	2	0.502524	18.738	43.8402	-10.0634
 437	1	1	0.0355	17.4191	44.1993	-9.82194
 438	1	2	0.450202	16.7152	43.2149	-9.14066
 439	1	3	-0.097429	16.8409	45.4416	-10.2094
 440	1	3	-0.043121	16.8195	46.5232	-9.29876
 441	1	3	-0.007101	16.1143	47.7046	-9.63603
 442	1	3	0.055122	16.2271	45.558	-11.4722
 443	1	3	-0.325582	15.59	46.756	-11.8199
 444	1	3	0.061609	15.5196	47.8252	-10.9153
 445	1	7	0.04075	17.5269	46.3742	-7.94426
 446	1	9	-0.311814	15.9805	48.7115	-8.67937
 447	1	6	0.16104	20.9632	41.95	-9.82214
 448	1	6	0.14041	20.7254	39.7561	-8.66977
 449	1	6	0.147774	16.5456	40.6704	-7.82325
 450	1	5	-0.476838	15.5433	43.2212	-8.80642
 451	1	5	-0.479462	19.6043	44.4888	-10.6248
 452	1	7	-0.144762	16.2332	44.4051	-12.4673
 453	1	10	0.052647	15.7092	44.6653	-13.395
 454	1	10	0.065097	15.7353	43.5218	-12.0483
 455	1	10	0.048024	17.2589	44.1253	-12.7379
 456	1	7	-0.169984	14.801	49.0904	-11.3644
 457	1	6	0.223059	15.1207	46.846	-12.7945
 458	1	10	0.004219	13.7677	49.1071	-10.9969
 459	1	10	0.100409	14.7643	49.166	-12.4574
 460	1	10	0.163068	15.3117	49.9918	-11.0031
 461	1	10	0.042023	18.5615	46.0351	-8.08062
 462	1	10	0.011973	17.0151	45.6366	-7.31372
 463	1	10	-0.068283	17.5851	47.3099	-7.37456
 464	1	4	0.330652	16.5969	48.6352	-7.88267
 465	1	1	0.4882	29.9765	22.6713	-4.46491
 466	1	2	0.025477	30.3953	23.7567	-3.70178
 467	1	3	-0.008635	30.3944	24.8948	-4.65946
 468	1	2	0.050267	29.6655	22.9806	-5.78524
 469	1	3	0.063619	29.9375	24.4378	-5.88308
 470	1	5	-0.374081	30.7899	23.7695	-2.54734
 471	1	5	-0.389097	29.3915	22.2255	-6.70377
 472	1	3	-0.003634	30.9116	26.1871	-4.50656
 473	1	3	-0.04742	29.9128	25.2697	-7.00331
 474	1	3	-0.200211	30.4207	26.5775	-6.86774
 475	1	3	-0.05806	30.9549	27.0498	-5.63491
 476	1	6	0.16443	31.3477	26.459	-3.55101
 477	1	6	0.154232	29.5736	24.887	-7.96348
 478	1	6	0.179048	30.4705	27.1947	-7.76119
 479	1	7	-0.076903	31.7592	28.3793	-5.61292
 480	1	7	0.238473	31.7378	29.1033	-4.20309
 481	1	8	-0.092232	30.5066	29.1114	-3.64674
 482	1	8	-0.075474	32.131	30.3931	-4.31108
 483	1	8	-0.095932	32.5494	28.5463	-3.27703
 484	1	7	0.340597	33.2489	27.9663	-5.9504
 485	1	8	-0.110855	33.755	27.0672	-5.07546
 486	1	8	-0.104879	34.0893	29.0261	-5.95227
 487	1	8	-0.10758	33.3478	27.3559	-7.15442
 488	1	3	-0.066666	31.1398	29.369	-6.65886
 489	1	3	-0.06911	29.8274	29.8781	-6.45062
 490	1	3	-0.048109	29.2881	30.7923	-7.36725
 491	1	3	-0.057883	31.8359	29.796	-7.8305
 492	1	3	-0.116273	31.2548	30.6712	-8.76703
 493	1	3	-0.113036	29.9736	31.1556	-8.50507
 494	1	2	0.502524	29.1516	32.133	-9.25862
 495	1	1	0.0355	28.0247	32.3596	-8.47712
 496	1	2	0.450202	28.0154	31.5685	-7.33095
 497	1	3	-0.097429	27.0548	33.3596	-8.80146
 498	1	3	-0.043121	25.7378	33.0098	-9.19618
 499	1	3	-0.007101	24.83	34.0195	-9.61888
 500	1	3	0.055122	27.451	34.7145	-8.79087
 501	1	3	-0.325582	26.5714	35.6919	-9.26398
 502	1	3	0.061609	25.2844	35.3642	-9.70863
 503	1	7	0.04075	25.3073	31.5353	-9.15578
 504	1	9	-0.311814	23.525	33.628	-9.95455
 505	1	6	0.16104	31.7971	30.9913	-9.65501
 506	1	6	0.14041	32.8449	29.4701	-8.04826
 507	1	6	0.147774	29.2326	29.5939	-5.58826
 508	1	5	-0.476838	27.1813	31.5396	-6.44264
 509	1	5	-0.479462	29.4498	32.6423	-10.3259
 510	1	7	-0.144762	28.8304	35.1625	-8.31789
 511	1	10	0.052647	28.8247	36.2158	-8.01176
 512	1	10	0.065097	29.573	35.0585	-9.11856
 513	1	10	0.048024	29.1731	34.5829	-7.45205
 514	1	7	-0.169984	24.4711	36.5033	-10.3147
 515	1	6	0.223059	26.9058	36.7239	-9.30685
 516	1	10	0.004219	25.1013	37.3716	-10.5449
 517	1	10	0.100409	23.6923	36.8511	-9.62719
 518	1	10	0.163068	24.0115	36.1977	-11.263
 519	1	10	0.042023	25.0598	31.2347	-8.12982
 520	1	10	0.011973	26.1026	30.8719	-9.51668
 521	1	10	-0.068283	24.4308	31.3183	-9.77844
 522	1	4	0.330652	23.2737	32.6642	-9.79144
 523	1	1	0.4882	23.8223	10.3024	-11.8345
 524	1	2	0.025477	24.1754	11.4624	-11.1465
 525	1	3	-0.008635	25.6424	11.3251	-10.9302
 526	1	2	0.050267	24.8804	9.42353	-12.0531
 527	1	3	0.063619	26.0495	10.1129	-11.4565
 528	1	5	-0.374081	23.4908	12.4402	-10.8933
 529	1	5	-0.389097	24.9107	8.40758	-12.728
 530	1	3	-0.003634	26.5706	12.2596	-10.4526
 531	1	3	-0.04742	27.3966	9.75437	-11.4997
 532	1	3	-0.200211	28.3455	10.6825	-11.0285
 533	1	3	-0.05806	27.957	11.9557	-10.5207
 534	1	6	0.16443	26.2194	13.2327	-10.1181
 535	1	6	0.154232	27.698	8.8096	-11.9473
 536	1	6	0.179048	29.3902	10.4102	-11.1304
 537	1	7	-0.076903	28.9916	13.0794	-10.2221
 538	1	7	0.238473	30.461	12.5479	-9.98241
 539	1	8	-0.092232	30.4949	11.5253	-9.09789
 540	1	8	-0.075474	31.2589	13.5135	-9.47108
 541	1	8	-0.095932	31.0702	12.1143	-11.1096
 542	1	7	0.340597	28.9866	14.0076	-11.5015
 543	1	8	-0.110855	27.8212	14.6821	-11.6322
 544	1	8	-0.104879	29.1268	13.2916	-12.6412
 545	1	8	-0.10758	29.9814	14.9236	-11.4999
 546	1	3	-0.066666	28.5839	13.8179	-8.91236
 547	1	3	-0.06911	28.5664	15.2347	-8.80403
 548	1	3	-0.048109	28.3079	15.8191	-7.55908
 549	1	3	-0.057883	28.3167	13.0526	-7.7424
 550	1	3	-0.116273	28.0789	13.6618	-6.49196
 551	1	3	-0.113036	28.0929	15.0594	-6.42972
 552	1	2	0.502524	27.9347	15.9848	-5.27379
 553	1	1	0.0355	28.0458	17.2689	-5.79951
 554	1	2	0.450202	28.2633	17.2536	-7.17275
 555	1	3	-0.097429	27.9428	18.4672	-5.02484
 556	1	3	-0.043121	29.0766	19.2936	-4.81681
 557	1	3	-0.007101	28.9403	20.5083	-4.09771
 558	1	3	0.055122	26.6904	18.8455	-4.49392
 559	1	3	-0.325582	26.5855	20.0178	-3.73259
 560	1	3	0.061609	27.6932	20.8507	-3.52464
 561	1	7	0.04075	30.4368	18.8981	-5.41028
 562	1	9	-0.311814	30.0504	21.3481	-3.98519
 563	1	6	0.16104	27.9114	13.0679	-5.59538
 564	1	6	0.14041	28.3314	11.9666	-7.79346
 565	1	6	0.147774	28.7759	15.8936	-9.63985
 566	1	5	-0.476838	28.403	18.202	-7.92535
 567	1	5	-0.479462	27.768	15.656	-4.11159
 568	1	7	-0.144762	25.4331	18.0167	-4.72919
 569	1	10	0.052647	25.4437	17.1052	-4.11922
 570	1	10	0.065097	25.3364	17.7254	-5.78225
 571	1	10	0.048024	24.5265	18.5756	-4.46751
 572	1	7	-0.169984	27.5026	22.0962	-2.66659
 573	1	6	0.223059	25.6253	20.2919	-3.30656
 574	1	10	0.004219	26.6094	22.0167	-2.03451
 575	1	10	0.100409	27.3846	22.9898	-3.29025
 576	1	10	0.163068	28.3571	22.2532	-1.99503
 577	1	10	0.042023	30.5209	19.2437	-6.44864
 578	1	10	0.011973	30.5871	17.8117	-5.4036
 579	1	10	-0.068283	31.2816	19.3212	-4.85183
 580	1	4	0.330652	30.9183	20.97	-4.33654
 581	1	1	0.4882	17.5055	-3.17392	-14.8786
 582	1	2	0.025477	18.1933	-2.11609	-14.2906
 583	1	3	-0.008635	19.3472	-1.88895	-15.1996
 584	1	2	0.050267	18.0999	-3.67848	-16.031
 585	1	3	0.063619	19.2911	-2.81387	-16.2261
 586	1	5	-0.374081	17.9387	-1.51195	-13.2606
 587	1	5	-0.389097	17.7701	-4.63678	-16.7103
 588	1	3	-0.003634	20.3769	-0.946291	-15.1213
 589	1	3	-0.04742	20.2657	-2.84641	-17.2252
 590	1	3	-0.200211	21.3151	-1.90602	-17.1618
 591	1	3	-0.05806	21.3864	-0.936801	-16.12
 592	1	6	0.16443	20.39	-0.243949	-14.2915
 593	1	6	0.154232	20.2109	-3.58683	-18.0203
 594	1	6	0.179048	22.0753	-1.95664	-17.9344
 595	1	7	-0.076903	22.5517	0.0871908	-15.9947
 596	1	7	0.238473	23.3765	0.287179	-17.3257
 597	1	8	-0.092232	24.1522	-0.774636	-17.6421
 598	1	8	-0.075474	24.2063	1.35169	-17.2376
 599	1	8	-0.095932	22.5747	0.525095	-18.3885
 600	1	7	0.340597	23.5079	-0.479699	-14.8726
 601	1	8	-0.110855	22.9269	-0.451671	-13.6514
 602	1	8	-0.104879	24.675	0.19625	-14.7738
 603	1	8	-0.10758	23.8329	-1.77308	-15.1006
 604	1	3	-0.066666	21.9331	1.47581	-15.6532
 605	1	3	-0.06911	22.4562	2.32265	-14.6411
 606	1	3	-0.048109	21.8352	3.5533	-14.3994
 607	1	3	-0.057883	20.8117	1.93713	-16.4007
 608	1	3	-0.116273	20.2036	3.18388	-16.1434
 609	1	3	-0.113036	20.7392	3.97525	-15.1223
 610	1	2	0.502524	20.3112	5.2986	-14.5874
 611	1	1	0.0355	21.1916	5.58103	-13.5502
 612	1	2	0.450202	22.1485	4.58799	-13.3823
 613	1	3	-0.097429	21.114	6.7224	-12.6987
 614	1	3	-0.043121	21.7366	7.93569	-13.0734
 615	1	3	-0.007101	21.8329	8.98967	-12.1296
 616	1	3	0.055122	20.5104	6.59364	-11.4312
 617	1	3	-0.325582	20.5509	7.66933	-10.5334
 618	1	3	0.061609	21.2184	8.85856	-10.8628
 619	1	7	0.04075	22.3311	8.06477	-14.4829
 620	1	9	-0.311814	22.5652	10.1324	-12.4513
 621	1	6	0.16104	19.3401	3.52106	-16.7137
 622	1	6	0.14041	20.3995	1.31709	-17.1931
 623	1	6	0.147774	23.3164	2.05624	-14.0358
 624	1	5	-0.476838	23.0251	4.52071	-12.5379
 625	1	5	-0.479462	19.3652	5.96284	-14.975
 626	1	7	-0.144762	19.8226	5.30094	-11.0089
 627	1	10	0.052647	19.0656	4.99825	-11.7433
 628	1	10	0.065097	19.3145	5.4067	-10.043
 629	1	10	0.048024	20.5479	4.48373	-10.9097
 630	1	7	-0.169984	21.2441	9.9854	-9.83783
 631	1	6	0.223059	20.0831	7.56392	-9.56011
 632	1	10	0.004219	21.0434	10.9568	-10.3067
 633	1	10	0.100409	22.2182	10.0434	-9.33859
 634	1	10	0.163068	20.4823	9.84373	-9.06313
 635	1	10	0.042023	21.5583	7.89729	-15.2435
 636	1	10	0.011973	23.1244	7.3246	-14.6455
 637	1	10	-0.068283	22.7602	9.05261	-14.6918
 638	1	4	0.330652	22.7399	10.2661	-13.4366
 639	1	1	0.4882	8.68234	-15.8057	-20.8289
 640	1	2	0.025477	8.81869	-15.5648	-19.4646
 641	1	3	-0.008635	8.95719	-14.0864	-19.3708
 642	1	2	0.050267	8.71401	-14.6612	-21.6192