pySIMM System Object

1742 atoms
1891 bonds
3330 angles
4916 dihedrals
480 impropers

10 atom types
14 bond types
24 angle types
9 dihedral types
4 improper types

-190.434084 190.434084 xlo xhi
-190.434084 190.434084 ylo yhi
-190.434084 190.434084 zlo zhi

Masses

   1	14.01	# n
   2	12.01	# c
   3	12.01	# ca
   4	1.008	# hn
   5	16.0	# o
   6	1.008	# ha
   7	12.01	# c3
   8	19.0	# f
   9	14.01	# nh
  10	1.008	# hc

Pair Coeffs

   1	0.17	3.249998523775958	# n
   2	0.086	3.3996695084235347	# c
   3	0.086	3.3996695084235347	# ca
   4	0.0157	1.069078461768407	# hn
   5	0.21	2.959921901149463	# o
   6	0.015	2.59964245953351	# ha
   7	0.1094	3.3996695084235347	# c3
   8	0.061	3.1181455134911875	# f
   9	0.17	3.249998523775958	# nh
  10	0.0157	2.649532787749369	# hc

Bond Coeffs

   1	345.9	1.4906	# c,ca
   2	345.8	1.086	# ca,ha
   3	637.7	1.2183	# c,o
   4	321.0	1.5156	# c3,ca
   5	300.9	1.5375	# c3,c3
   6	384.2	1.4121	# ca,n
   7	330.6	1.0969	# c3,hc
   8	404.6	1.0121	# hn,nh
   9	403.2	1.0129	# hn,n
  10	356.9	1.3497	# c3,f
  11	417.9	1.3859	# ca,nh
  12	427.6	1.3789	# c,n
  13	461.1	1.3984	# ca,ca
  14	452.5	1.4016	# n,nh

Angle Coeffs

   1	74.22	123.05	# n,c,o
   2	40.07	115.12	# hn,nh,hn
   3	68.29	120.95	# ca,ca,nh
   4	66.62	120.02	# ca,ca,ca
   5	48.42	116.07	# ca,nh,hn
   6	68.72	122.6	# ca,c,o
   7	48.33	117.55	# c,n,hn
   8	64.28	120.33	# c,ca,ca
   9	67.68	115.25	# ca,c,n
  10	39.4	107.58	# hc,c3,hc
  11	63.53	120.77	# c3,ca,ca
  12	67.87	120.19	# ca,ca,n
  13	70.89	107.36	# f,c3,f
  14	66.11	109.24	# c3,c3,f
  15	46.8	110.47	# ca,c3,hc
  16	62.86	111.51	# c3,c3,c3
  17	63.15	112.07	# c3,c3,ca
  18	63.82	123.71	# c,n,ca
  19	63.56	112.24	# ca,c3,ca
  20	63.74	127.08	# c,n,c
  21	48.18	119.88	# ca,ca,ha
  22	67.01	118.71	# c,n,nh
  23	67.61	116.03	# ca,nh,n
  24	50.88	108.17	# hn,nh,n

Dihedral Coeffs

   1	2	2.5	2	180	2.0	1	0	# hn,n,c,o
   2	1	3.625	2	180	# X,ca,ca,X
   3	1	0.15555555555555556	3	0	# X,c3,c3,X
   4	1	1.0	2	180	# X,c,ca,X
   5	1	0.0	2	0	# X,c3,ca,X
   6	1	2.5	2	180	# X,c,n,X
   7	1	0.45	2	180	# X,ca,n,X
   8	1	1.05	2	180	# X,ca,nh,X
   9	1	1.1	2	0	# X,n,nh,X

Improper Coeffs

   1	10.5	-1	2	# c,X,X,o
   2	1.1	-1	2	# ca,X,X,ha
   3	1.1	-1	2	# ca,ca,ca,c3
   4	1.1	-1	2	# n,X,X,hn

Atoms

   1	1	1	0.4882	-17.6753	3.4254	-39.6015
   2	1	2	0.025477	-18.6957	3.19965	-40.5252
   3	1	3	-0.008635	-17.9791	2.96991	-41.8025
   4	1	2	0.050267	-16.4001	3.44558	-40.1563
   5	1	3	0.063619	-16.622	3.11853	-41.5887
   6	1	5	-0.374081	-19.9025	3.14005	-40.3648
   7	1	5	-0.389097	-15.3363	3.68389	-39.6063
   8	1	3	-0.003634	-18.4948	2.576	-43.0393
   9	1	3	-0.04742	-15.7022	2.89194	-42.6146
  10	1	3	-0.200211	-16.2018	2.49003	-43.8712
  11	1	3	-0.05806	-17.5965	2.3259	-44.1091
  12	1	6	0.16443	-19.5671	2.4378	-43.1225
  13	1	6	0.154232	-14.6349	2.99063	-42.4303
  14	1	6	0.179048	-15.489	2.27492	-44.6644
  15	1	7	-0.076903	-18.0733	1.78351	-45.487
  16	1	7	0.238473	-17.8537	0.222524	-45.4326
  17	1	8	-0.092232	-18.4226	-0.434033	-46.4686
  18	1	8	-0.075474	-18.3784	-0.315169	-44.3072
  19	1	8	-0.095932	-16.5401	-0.0990591	-45.4241
  20	1	7	0.340597	-19.5916	2.08918	-45.7963
  21	1	8	-0.110855	-20.451	1.3505	-45.0588
  22	1	8	-0.104879	-19.8947	1.84193	-47.0913
  23	1	8	-0.10758	-19.8965	3.38859	-45.5777
  24	1	3	-0.066666	-17.2583	2.49765	-46.604
  25	1	3	-0.06911	-17.0983	3.90491	-46.5296
  26	1	3	-0.048109	-16.4341	4.57203	-47.563
  27	1	3	-0.057883	-16.7317	1.81764	-47.7401
  28	1	3	-0.116273	-16.0671	2.51036	-48.7736
  29	1	3	-0.113036	-15.938	3.89812	-48.6587
  30	1	2	0.502524	-15.3696	4.90054	-49.5995
  31	1	1	0.0355	-15.5781	6.13492	-48.997
  32	1	2	0.450202	-16.1921	6.02428	-47.7565
  33	1	3	-0.097429	-15.2749	7.38156	-49.6158
  34	1	3	-0.043121	-13.9667	7.91726	-49.551
  35	1	3	-0.007101	-13.6937	9.15708	-50.1794
  36	1	3	0.055122	-16.299	8.07617	-50.2935
  37	1	3	-0.325582	-16.0146	9.30584	-50.9009
  38	1	3	0.061609	-14.7247	9.85144	-50.8493
  39	1	7	0.04075	-12.8724	7.14189	-48.8073
  40	1	9	-0.311814	-12.4136	9.7004	-50.1441
  41	1	6	0.16104	-15.6886	1.98836	-49.6505
  42	1	6	0.14041	-16.8493	0.746107	-47.8549
  43	1	6	0.147774	-17.5033	4.48002	-45.7
  44	1	5	-0.476838	-16.5099	6.91694	-46.9893
  45	1	5	-0.479462	-14.8652	4.66705	-50.6845
  46	1	7	-0.144762	-17.7132	7.51636	-50.3848
  47	1	10	0.052647	-18.1628	7.41786	-49.389
  48	1	10	0.065097	-17.7151	6.52847	-50.8617
  49	1	10	0.048024	-18.3703	8.16548	-50.9759
  50	1	7	-0.169984	-14.4669	11.1907	-51.5261
  51	1	6	0.223059	-16.8021	9.84325	-51.4203
  52	1	10	0.004219	-15.3924	11.6505	-51.8956
  53	1	10	0.100409	-13.7887	11.0691	-52.3792
  54	1	10	0.163068	-14.0038	11.8942	-50.8242
  55	1	10	0.042023	-12.6134	6.22337	-49.3491
  56	1	10	0.011973	-13.2083	6.8541	-47.8031
  57	1	10	-0.068283	-11.945	7.71231	-48.6736
  58	1	4	0.330652	-11.6682	9.18314	-49.6933
  59	1	1	0.4882	-27.5007	-3.50526	-28.1713
  60	1	2	0.025477	-28.2922	-2.89224	-29.1302
  61	1	3	-0.008635	-27.3357	-2.53737	-30.2027
  62	1	2	0.050267	-26.1561	-3.62681	-28.5148
  63	1	3	0.063619	-26.0667	-2.94643	-29.8366
  64	1	5	-0.374081	-29.4929	-2.67405	-29.1106
  65	1	5	-0.389097	-25.2563	-4.17889	-27.9028
  66	1	3	-0.003634	-27.5739	-1.83072	-31.3784
  67	1	3	-0.04742	-24.958	-2.64041	-30.6329
  68	1	3	-0.200211	-25.1748	-1.89309	-31.8153
  69	1	3	-0.05806	-26.4817	-1.48081	-32.21
  70	1	6	0.16443	-28.5899	-1.5136	-31.5862
  71	1	6	0.154232	-23.9581	-2.93268	-30.3139
  72	1	6	0.179048	-24.3051	-1.60299	-32.3988
  73	1	7	-0.076903	-26.7182	-0.532079	-33.4168
  74	1	7	0.238473	-27.9956	-0.978077	-34.2559
  75	1	8	-0.092232	-29.1865	-0.616639	-33.7319
  76	1	8	-0.075474	-28.0738	-2.32292	-34.382
  77	1	8	-0.095932	-27.9841	-0.453265	-35.5024
  78	1	7	0.340597	-26.9765	0.903876	-32.7991
  79	1	8	-0.110855	-28.1004	0.98946	-32.0522
  80	1	8	-0.104879	-27.0726	1.85207	-33.7575
  81	1	8	-0.10758	-25.9992	1.26864	-31.9379
  82	1	3	-0.066666	-25.4754	-0.537599	-34.3806
  83	1	3	-0.06911	-24.4749	0.476465	-34.3498
  84	1	3	-0.048109	-23.4324	0.448865	-35.2822
  85	1	3	-0.057883	-25.3024	-1.58743	-35.333
  86	1	3	-0.116273	-24.2734	-1.5709	-36.295
  87	1	3	-0.113036	-23.3629	-0.514629	-36.2617
  88	1	2	0.502524	-22.132	-0.283906	-37.0574
  89	1	1	0.0355	-21.4624	0.748522	-36.4086
  90	1	2	0.450202	-22.2054	1.28623	-35.363
  91	1	3	-0.097429	-20.0805	1.02541	-36.6323
  92	1	3	-0.043121	-19.6583	2.24527	-37.2175
  93	1	3	-0.007101	-18.2834	2.43581	-37.5199
  94	1	3	0.055122	-19.1331	0.0397355	-36.2765
  95	1	3	-0.325582	-17.776	0.269368	-36.5185
  96	1	3	0.061609	-17.3421	1.45166	-37.1301
  97	1	7	0.04075	-20.6922	3.35295	-37.4686
  98	1	9	-0.311814	-17.8635	3.57712	-38.2116
  99	1	6	0.16104	-24.1672	-2.37072	-37.0256
 100	1	6	0.14041	-25.9762	-2.43431	-35.358
 101	1	6	0.147774	-24.464	1.28388	-33.6293
 102	1	5	-0.476838	-21.8536	2.11075	-34.5366
 103	1	5	-0.479462	-21.7405	-0.978225	-37.9809
 104	1	7	-0.144762	-19.5283	-1.28017	-35.6183
 105	1	10	0.052647	-20.3378	-1.15047	-34.8897
 106	1	10	0.065097	-18.6863	-1.7298	-35.0794
 107	1	10	0.048024	-19.8588	-2.00699	-36.371
 108	1	7	-0.169984	-15.8455	1.61553	-37.3484
 109	1	6	0.223059	-17.0566	-0.493824	-36.2388
 110	1	10	0.004219	-15.5163	2.64052	-37.1403
 111	1	10	0.100409	-15.5685	1.35705	-38.3773
 112	1	10	0.163068	-15.2698	0.958682	-36.686
 113	1	10	0.042023	-20.3034	4.19838	-38.046
 114	1	10	0.011973	-21.5661	2.97123	-38.0105
 115	1	10	-0.068283	-21.0459	3.7717	-36.5191
 116	1	4	0.330652	-16.9693	3.94446	-37.9105
 117	1	1	0.4882	-21.9613	-9.9834	-14.0314
 118	1	2	0.025477	-22.5355	-10.9322	-14.8726
 119	1	3	-0.008635	-22.6233	-10.245	-16.1899
 120	1	2	0.050267	-21.7127	-8.75534	-14.6338
 121	1	3	0.063619	-22.1439	-8.95476	-16.0398
 122	1	5	-0.374081	-22.9201	-12.0578	-14.6045
 123	1	5	-0.389097	-21.2486	-7.73834	-14.1435
 124	1	3	-0.003634	-23.081	-10.7226	-17.4261
 125	1	3	-0.04742	-22.1127	-8.0635	-17.1113
 126	1	3	-0.200211	-22.5874	-8.51765	-18.3556
 127	1	3	-0.05806	-23.0724	-9.84369	-18.5429
 128	1	6	0.16443	-23.4252	-11.7499	-17.4899
 129	1	6	0.154232	-21.7319	-7.05293	-16.9801
 130	1	6	0.179048	-22.5646	-7.82256	-19.1921
 131	1	7	-0.076903	-23.5484	-10.2542	-19.965
 132	1	7	0.238473	-22.2483	-10.4356	-20.8498
 133	1	8	-0.092232	-21.5105	-9.30692	-20.9501
 134	1	8	-0.075474	-22.5301	-10.8355	-22.1107
 135	1	8	-0.095932	-21.4061	-11.3525	-20.3223
 136	1	7	0.340597	-24.3727	-11.6085	-20.0182
 137	1	8	-0.110855	-23.6182	-12.7087	-19.8008
 138	1	8	-0.104879	-24.9646	-11.7748	-21.2227
 139	1	8	-0.10758	-25.367	-11.6645	-19.1049
 140	1	3	-0.066666	-24.4902	-9.10755	-20.4461
 141	1	3	-0.06911	-24.2053	-8.28287	-21.5688
 142	1	3	-0.048109	-25.0652	-7.21773	-21.8612
 143	1	3	-0.057883	-25.6565	-8.81431	-19.681
 144	1	3	-0.116273	-26.544	-7.78068	-20.0328
 145	1	3	-0.113036	-26.2138	-6.99041	-21.1332
 146	1	2	0.502524	-26.9222	-5.82992	-21.7254
 147	1	1	0.0355	-26.1191	-5.40456	-22.7737
 148	1	2	0.450202	-24.9729	-6.17668	-22.9182
 149	1	3	-0.097429	-26.5033	-4.35716	-23.6548
 150	1	3	-0.043121	-27.0866	-4.6923	-24.8979
 151	1	3	-0.007101	-27.5426	-3.66528	-25.7555
 152	1	3	0.055122	-26.3717	-3.00677	-23.2645
 153	1	3	-0.325582	-26.8748	-2.00244	-24.1033
 154	1	3	0.061609	-27.4777	-2.31533	-25.3322
 155	1	7	0.04075	-27.2173	-6.17318	-25.2924
 156	1	9	-0.311814	-28.0614	-4.0335	-26.9957
 157	1	6	0.16104	-27.4445	-7.58156	-19.4546
 158	1	6	0.14041	-25.8831	-9.38311	-18.7855
 159	1	6	0.147774	-23.338	-8.42452	-22.2047
 160	1	5	-0.476838	-24.0731	-6.05382	-23.7311
 161	1	5	-0.479462	-28.0048	-5.39137	-21.3771
 162	1	7	-0.144762	-25.7204	-2.58095	-21.951
 163	1	10	0.052647	-26.3803	-1.90673	-21.3912
 164	1	10	0.065097	-24.7833	-2.04422	-22.1452
 165	1	10	0.048024	-25.4806	-3.41811	-21.287
 166	1	7	-0.169984	-28.0906	-1.17919	-26.1424
 167	1	6	0.223059	-26.8048	-0.966585	-23.7852
 168	1	10	0.004219	-27.4285	-0.866472	-26.9586
 169	1	10	0.100409	-28.2855	-0.300298	-25.5157
 170	1	10	0.163068	-29.0561	-1.47648	-26.5732
 171	1	10	0.042023	-27.7205	-6.74485	-24.5028
 172	1	10	0.011973	-26.2295	-6.62099	-25.4551
 173	1	10	-0.068283	-27.7979	-6.34664	-26.2056
 174	1	4	0.330652	-28.1514	-5.02629	-27.1524
 175	1	1	0.4882	-21.2269	-16.9856	2.10393
 176	1	2	0.025477	-20.1282	-16.2553	1.66885
 177	1	3	-0.008635	-20.4557	-15.9167	0.258451
 178	1	2	0.050267	-22.183	-17.2263	1.11984
 179	1	3	0.063619	-21.6721	-16.4864	-0.0666656
 180	1	5	-0.374081	-19.1404	-15.9148	2.29788
 181	1	5	-0.389097	-23.234	-17.8401	1.20783
 182	1	3	-0.003634	-19.7857	-15.0631	-0.621637
 183	1	3	-0.04742	-22.2763	-16.234	-1.30189
 184	1	3	-0.200211	-21.6296	-15.3462	-2.19112
 185	1	3	-0.05806	-20.3787	-14.7422	-1.87555
 186	1	6	0.16443	-18.8698	-14.607	-0.266655
 187	1	6	0.154232	-23.2505	-16.6603	-1.53196
 188	1	6	0.179048	-22.1412	-15.0786	-3.11345
 189	1	7	-0.076903	-19.8227	-13.5856	-2.76976
 190	1	7	0.238473	-20.6184	-12.3063	-2.29242
 191	1	8	-0.092232	-20.7084	-12.2366	-0.943532
 192	1	8	-0.075474	-21.8884	-12.3215	-2.75771
 193	1	8	-0.095932	-20.0605	-11.1376	-2.67731
 194	1	7	0.340597	-18.2717	-13.3619	-2.57529
 195	1	8	-0.110855	-17.9536	-12.7887	-1.39262
 196	1	8	-0.104879	-17.7418	-12.5544	-3.52182
 197	1	8	-0.10758	-17.6023	-14.5341	-2.65746
 198	1	3	-0.066666	-20.027	-13.8585	-4.29723
 199	1	3	-0.06911	-20.0857	-12.7819	-5.22414
 200	1	3	-0.048109	-20.1571	-13.0489	-6.59422
 201	1	3	-0.057883	-20.0145	-15.1817	-4.82583
 202	1	3	-0.116273	-20.1257	-15.4318	-6.21408
 203	1	3	-0.113036	-20.2024	-14.3346	-7.08247
 204	1	2	0.502524	-20.2228	-14.2577	-8.57317
 205	1	1	0.0355	-20.1345	-12.9018	-8.88617
 206	1	2	0.450202	-20.0992	-12.1095	-7.74388
 207	1	3	-0.097429	-19.9505	-12.377	-10.2073
 208	1	3	-0.043121	-20.9466	-11.5833	-10.8393
 209	1	3	-0.007101	-20.7065	-11.0208	-12.1245
 210	1	3	0.055122	-18.7223	-12.6087	-10.8641
 211	1	3	-0.325582	-18.5003	-12.0601	-12.1313
 212	1	3	0.061609	-19.4608	-11.2626	-12.7668
 213	1	7	0.04075	-22.3107	-11.3599	-10.1631
 214	1	9	-0.311814	-21.7185	-10.2106	-12.6644
 215	1	6	0.16104	-20.1063	-16.446	-6.60899
 216	1	6	0.14041	-19.8963	-16.0312	-4.15842
 217	1	6	0.147774	-20.0156	-11.7445	-4.91918
 218	1	5	-0.476838	-19.9901	-10.8974	-7.67106
 219	1	5	-0.479462	-20.2426	-15.2079	-9.33648
 220	1	7	-0.144762	-17.6038	-13.4393	-10.2436
 221	1	10	0.052647	-17.4854	-13.2365	-9.17271
 222	1	10	0.065097	-16.6368	-13.2273	-10.7156
 223	1	10	0.048024	-17.8018	-14.5108	-10.3719
 224	1	7	-0.169984	-19.0617	-10.6835	-14.1204
 225	1	6	0.223059	-17.5511	-12.2453	-12.6243
 226	1	10	0.004219	-18.0111	-10.8908	-14.3593
 227	1	10	0.100409	-19.1712	-9.59284	-14.1348
 228	1	10	0.163068	-19.6555	-11.122	-14.9302
 229	1	10	0.042023	-22.2845	-11.4636	-9.07465
 230	1	10	0.011973	-23.0447	-12.0823	-10.5405
 231	1	10	-0.068283	-22.7114	-10.3558	-10.3528
 232	1	4	0.330652	-22.576	-10.1035	-12.143
 233	1	1	0.4882	-14.6639	-21.9967	15.5766
 234	1	2	0.025477	-16.0029	-22.1518	15.9376
 235	1	3	-0.008635	-16.7662	-21.7463	14.7311
 236	1	2	0.050267	-14.4855	-21.4441	14.3106
 237	1	3	0.063619	-15.8636	-21.3365	13.7681
 238	1	5	-0.374081	-16.4773	-22.413	17.0287
 239	1	5	-0.389097	-13.4637	-21.0533	13.7697
 240	1	3	-0.003634	-18.1491	-21.7471	14.5014
 241	1	3	-0.04742	-16.2908	-20.9362	12.5033
 242	1	3	-0.200211	-17.6739	-20.9537	12.2413
 243	1	3	-0.05806	-18.6297	-21.3184	13.2344
 244	1	6	0.16443	-18.8069	-22.0856	15.2967
 245	1	6	0.154232	-15.5697	-20.6353	11.7469
 246	1	6	0.179048	-18.0073	-20.6623	11.2476
 247	1	7	-0.076903	-20.1454	-21.2637	12.8704
 248	1	7	0.238473	-20.4481	-22.6013	12.0907
 249	1	8	-0.092232	-19.8256	-22.6332	10.89
 250	1	8	-0.075474	-21.7661	-22.8038	11.8667
 251	1	8	-0.095932	-20.006	-23.6846	12.7695
 252	1	7	0.340597	-21.1	-21.1507	14.1199
 253	1	8	-0.110855	-20.7034	-20.1702	14.9617
 254	1	8	-0.104879	-21.1769	-22.2907	14.8428
 255	1	8	-0.10758	-22.3655	-20.8472	13.7498
 256	1	3	-0.066666	-20.3729	-19.9797	12.0148
 257	1	3	-0.06911	-21.1501	-19.973	10.8262
 258	1	3	-0.048109	-21.1545	-18.8218	10.029
 259	1	3	-0.057883	-19.7228	-18.7716	12.4001
 260	1	3	-0.116273	-19.7172	-17.6338	11.5702
 261	1	3	-0.113036	-20.4234	-17.7027	10.3665
 262	1	2	0.502524	-20.5241	-16.7264	9.2502
 263	1	1	0.0355	-21.3488	-17.3233	8.3016
 264	1	2	0.450202	-21.7938	-18.5772	8.70946
 265	1	3	-0.097429	-21.6866	-16.7275	7.04561
 266	1	3	-0.043121	-21.2618	-17.3131	5.82292
 267	1	3	-0.007101	-21.6612	-16.7524	4.57798
 268	1	3	0.055122	-22.4733	-15.558	7.02819
 269	1	3	-0.325582	-22.7926	-14.9655	5.80274
 270	1	3	0.061609	-22.4089	-15.5407	4.58187
 271	1	7	0.04075	-20.3745	-18.5682	5.84207
 272	1	9	-0.311814	-21.3348	-17.4817	3.41792
 273	1	6	0.16104	-19.1544	-16.7414	11.8365
 274	1	6	0.14041	-19.1488	-18.7361	13.3229
 275	1	6	0.147774	-21.7007	-20.8411	10.4801
 276	1	5	-0.476838	-22.5319	-19.3457	8.11582
 277	1	5	-0.479462	-19.9436	-15.656	9.18422
 278	1	7	-0.144762	-23.0036	-14.9075	8.30227
 279	1	10	0.052647	-23.8846	-14.2871	8.09747
 280	1	10	0.065097	-22.2437	-14.2599	8.75695
 281	1	10	0.048024	-23.3094	-15.6527	9.04667
 282	1	7	-0.169984	-22.8615	-14.8021	3.3277
 283	1	6	0.223059	-23.3773	-14.0505	5.80325
 284	1	10	0.004219	-23.4796	-13.9284	3.56998
 285	1	10	0.100409	-23.4736	-15.4437	2.68458
 286	1	10	0.163068	-22.0016	-14.4233	2.76322
 287	1	10	0.042023	-19.6277	-18.556	5.03919
 288	1	10	0.011973	-20.9801	-19.4759	5.72695
 289	1	10	-0.068283	-19.7978	-18.666	6.76957
 290	1	4	0.330652	-20.7877	-18.3231	3.50551
 291	1	1	0.4882	-20.8516	-22.7955	20.1987
 292	1	2	0.025477	-20.257	-23.7485	19.378
 293	1	3	-0.008635	-20.3176	-25.003	20.178
 294	1	2	0.050267	-21.2853	-23.2897	21.4282
 295	1	3	0.063619	-20.9641	-24.7382	21.3689
 296	1	5	-0.374081	-19.762	-23.6023	18.2722
 297	1	5	-0.389097	-21.7371	-22.6848	22.3868
 298	1	3	-0.003634	-19.81	-26.2747	19.8958
 299	1	3	-0.04742	-21.214	-25.7519	22.2962
 300	1	3	-0.200211	-20.7675	-27.0572	21.997
 301	1	3	-0.05806	-20.0244	-27.3411	20.8144
 302	1	6	0.16443	-19.2632	-26.4124	18.9685
 303	1	6	0.154232	-21.7489	-25.5304	23.2174
 304	1	6	0.179048	-21.005	-27.8342	22.7149
 305	1	7	-0.076903	-19.4386	-28.7503	20.4894
 306	1	7	0.238473	-19.5856	-29.8131	21.6727
 307	1	8	-0.092232	-20.8511	-30.2358	21.8868
 308	1	8	-0.075474	-19.1883	-29.3689	22.8847
 309	1	8	-0.095932	-18.8501	-30.9196	21.4232
 310	1	7	0.340597	-20.2399	-29.3381	19.2463
 311	1	8	-0.110855	-20.3045	-28.5086	18.1828
 312	1	8	-0.104879	-21.5409	-29.5803	19.5213
 313	1	8	-0.10758	-19.6992	-30.4953	18.8037
 314	1	3	-0.066666	-17.9102	-28.5251	20.1877
 315	1	3	-0.06911	-17.414	-28.3332	18.8665
 316	1	3	-0.048109	-16.0782	-27.9588	18.6755
 317	1	3	-0.057883	-16.9741	-28.3502	21.2536
 318	1	3	-0.116273	-15.6184	-28.0391	21.0371
 319	1	3	-0.113036	-15.1962	-27.8356	19.7259
 320	1	2	0.502524	-13.9343	-27.2366	19.2212
 321	1	1	0.0355	-14.1962	-26.922	17.8959
 322	1	2	0.450202	-15.4249	-27.4053	17.4618
 323	1	3	-0.097429	-13.448	-25.9717	17.1453
 324	1	3	-0.043121	-13.7062	-24.5908	17.3281
 325	1	3	-0.007101	-13.16	-23.6504	16.421
 326	1	3	0.055122	-12.5421	-26.4058	16.1606
 327	1	3	-0.325582	-11.8928	-25.4529	15.3659
 328	1	3	0.061609	-12.197	-24.0877	15.4779
 329	1	7	0.04075	-14.5744	-24.1367	18.5094
 330	1	9	-0.311814	-13.5984	-22.3201	16.4481
 331	1	6	0.16104	-14.939	-27.867	21.8698
 332	1	6	0.14041	-17.2779	-28.3896	22.2879
 333	1	6	0.147774	-18.0403	-28.3711	17.9853
 334	1	5	-0.476838	-15.9608	-27.2245	16.3816
 335	1	5	-0.479462	-12.9823	-26.8923	19.9006
 336	1	7	-0.144762	-12.2451	-27.8845	15.9515
 337	1	10	0.052647	-12.0385	-28.3881	16.904
 338	1	10	0.065097	-11.3689	-28.035	15.3092
 339	1	10	0.048024	-13.0957	-28.3887	15.4761
 340	1	7	-0.169984	-11.4249	-23.1287	14.5841
 341	1	6	0.223059	-11.1616	-25.7774	14.6314
 342	1	10	0.004219	-10.4032	-23.4876	14.4064
 343	1	10	0.100409	-11.3388	-22.1305	15.0299
 344	1	10	0.163068	-11.9117	-23.0269	13.6077
 345	1	10	0.042023	-14.2131	-24.5634	19.4514
 346	1	10	0.011973	-15.618	-24.45	18.3831
 347	1	10	-0.068283	-14.5533	-23.0512	18.6642
 348	1	4	0.330652	-13.9295	-21.9989	17.3486
 349	1	1	0.4882	-19.4306	-11.6357	30.6658
 350	1	2	0.025477	-20.5417	-11.1374	29.9885
 351	1	3	-0.008635	-20.5877	-11.9327	28.7342
 352	1	2	0.050267	-18.7911	-12.6893	30.0192
 353	1	3	0.063619	-19.5601	-12.8577	28.7591
 354	1	5	-0.374081	-21.361	-10.3104	30.3558
 355	1	5	-0.389097	-17.8814	-13.3961	30.4221
 356	1	3	-0.003634	-21.4745	-11.8449	27.6556
 357	1	3	-0.04742	-19.3798	-13.7647	27.7131
 358	1	3	-0.200211	-20.2671	-13.6966	26.6189
 359	1	3	-0.05806	-21.3233	-12.7432	26.5651
 360	1	6	0.16443	-22.2423	-11.0799	27.6862
 361	1	6	0.154232	-18.5698	-14.4901	27.7473
 362	1	6	0.179048	-20.1186	-14.3877	25.7916
 363	1	7	-0.076903	-22.2128	-12.6766	25.2888
 364	1	7	0.238473	-23.5744	-11.9086	25.5054
 365	1	8	-0.092232	-24.4199	-12.0945	24.4662
 366	1	8	-0.075474	-23.4207	-10.5714	25.6371
 367	1	8	-0.095932	-24.229	-12.343	26.6062
 368	1	7	0.340597	-21.3528	-11.9166	24.2041
 369	1	8	-0.110855	-20.8433	-10.7621	24.6926
 370	1	8	-0.104879	-22.0581	-11.586	23.0988
 371	1	8	-0.10758	-20.2905	-12.6488	23.7973
 372	1	3	-0.066666	-22.5964	-14.13	24.8786
 373	1	3	-0.06911	-22.5331	-14.5933	23.5372
 374	1	3	-0.048109	-22.9068	-15.9128	23.2568
 375	1	3	-0.057883	-23.0657	-15.0287	25.8783
 376	1	3	-0.116273	-23.4431	-16.3529	25.5734
 377	1	3	-0.113036	-23.349	-16.7703	24.2422
 378	1	2	0.502524	-23.6255	-18.0936	23.6178
 379	1	1	0.0355	-23.3031	-17.9439	22.2742
 380	1	2	0.450202	-22.8805	-16.6566	21.9706
 381	1	3	-0.097429	-23.2891	-19.0075	21.3254
 382	1	3	-0.043121	-22.0818	-19.6959	21.0555
 383	1	3	-0.007101	-22.0605	-20.7146	20.0714
 384	1	3	0.055122	-24.4694	-19.3445	20.6328
 385	1	3	-0.325582	-24.4269	-20.3306	19.6359
 386	1	3	0.061609	-23.2332	-21.0054	19.3353
 387	1	7	0.04075	-20.798	-19.3362	21.8191
 388	1	9	-0.311814	-20.8754	-21.4253	19.8651
 389	1	6	0.16104	-23.7896	-17.0361	26.3465
 390	1	6	0.14041	-23.136	-14.6977	26.9114
 391	1	6	0.147774	-22.1997	-13.9703	22.7142
 392	1	5	-0.476838	-22.4896	-16.2285	20.897
 393	1	5	-0.479462	-24.02	-19.092	24.1954
 394	1	7	-0.144762	-25.7892	-18.6452	20.9334
 395	1	10	0.052647	-26.0932	-18.8175	21.9737
 396	1	10	0.065097	-26.6	-19.012	20.2926
 397	1	10	0.048024	-25.7091	-17.5626	20.7757
 398	1	7	-0.169984	-23.2417	-22.016	18.1945
 399	1	6	0.223059	-25.3323	-20.5686	19.0867
 400	1	10	0.004219	-22.3126	-21.974	17.6124
 401	1	10	0.100409	-24.0616	-21.8182	17.4932
 402	1	10	0.163068	-23.3646	-23.0377	18.5712
 403	1	10	0.042023	-20.1916	-18.631	21.2372
 404	1	10	0.011973	-20.1797	-20.2167	22.0309
 405	1	10	-0.068283	-20.994	-18.8739	22.7934
 406	1	4	0.330652	-20.0519	-21.0337	20.2939
 407	1	1	0.4882	-4.66388	-12.9607	39.0542
 408	1	2	0.025477	-4.93236	-13.8383	38.0063
 409	1	3	-0.008635	-6.12234	-13.258	37.3441
 410	1	2	0.050267	-5.49822	-11.8467	39.095
 411	1	3	0.063619	-6.43709	-12.0612	37.9582
 412	1	5	-0.374081	-4.36717	-14.8734	37.6976
 413	1	5	-0.389097	-5.52164	-10.9394	39.9115
 414	1	3	-0.003634	-6.89817	-13.7884	36.3119
 415	1	3	-0.04742	-7.50183	-11.2824	37.4974
 416	1	3	-0.200211	-8.27319	-11.7805	36.4234
 417	1	3	-0.05806	-8.03177	-13.0662	35.8562
 418	1	6	0.16443	-6.60622	-14.7461	35.895
 419	1	6	0.154232	-7.72241	-10.3233	37.9608
 420	1	6	0.179048	-9.08434	-11.1613	36.0477
 421	1	7	-0.076903	-8.9478	-13.6358	34.7284
 422	1	7	0.238473	-9.12474	-15.2017	34.8396
 423	1	8	-0.092232	-8.04897	-15.906	34.423
 424	1	8	-0.075474	-10.166	-15.6399	34.0953
 425	1	8	-0.095932	-9.375	-15.5818	36.1133
 426	1	7	0.340597	-8.24413	-13.2738	33.3639
 427	1	8	-0.110855	-8.27977	-11.9415	33.1337
 428	1	8	-0.104879	-8.79989	-13.8956	32.2991
 429	1	8	-0.10758	-6.93575	-13.6175	33.3554
 430	1	3	-0.066666	-10.3878	-13.0416	34.856
 431	1	3	-0.06911	-11.1252	-12.5771	33.7341
 432	1	3	-0.048109	-12.414	-12.0699	33.9276
 433	1	3	-0.057883	-11.0272	-13.0139	36.1295
 434	1	3	-0.116273	-12.3203	-12.477	36.3068
 435	1	3	-0.113036	-12.9911	-11.9983	35.1768
 436	1	2	0.502524	-14.3331	-11.369	35.03
 437	1	1	0.0355	-14.4827	-11.1181	33.67
 438	1	2	0.450202	-13.373	-11.5201	32.9366
 439	1	3	-0.097429	-15.6084	-10.468	33.0778
 440	1	3	-0.043121	-16.8277	-11.1646	32.8818
 441	1	3	-0.007101	-17.8898	-10.5391	32.1768
 442	1	3	0.055122	-15.469	-9.13973	32.6232
 443	1	3	-0.325582	-16.5304	-8.52715	31.9476
 444	1	3	0.061609	-17.7319	-9.20964	31.7139
 445	1	7	0.04075	-16.9617	-12.6002	33.4102
 446	1	9	-0.311814	-19.084	-11.2377	31.9726
 447	1	6	0.16104	-12.7877	-12.4379	37.289
 448	1	6	0.14041	-10.5041	-13.3966	37.0022
 449	1	6	0.147774	-10.7368	-12.5954	32.722
 450	1	5	-0.476838	-13.183	-11.4151	31.7369
 451	1	5	-0.479462	-15.1079	-11.1082	35.9346
 452	1	7	-0.144762	-14.1868	-8.3428	32.836
 453	1	10	0.052647	-14.3548	-7.26675	32.7058
 454	1	10	0.065097	-13.4155	-8.64479	32.1165
 455	1	10	0.048024	-13.787	-8.4833	33.8477
 456	1	7	-0.169984	-18.8366	-8.45935	30.9833
 457	1	6	0.223059	-16.4116	-7.50959	31.5887
 458	1	10	0.004219	-18.9193	-8.79737	29.9432
 459	1	10	0.100409	-18.6488	-7.37961	30.9611
 460	1	10	0.163068	-19.8067	-8.60072	31.4755
 461	1	10	0.042023	-16.7865	-12.6384	34.4916
 462	1	10	0.011973	-16.2314	-13.2625	32.9287
 463	1	10	-0.068283	-17.9529	-13.0407	33.2501
 464	1	4	0.330652	-19.2007	-12.0674	32.5371
 465	1	1	0.4882	5.34912	-17.4447	33.1681
 466	1	2	0.025477	4.5252	-18.5635	33.0787
 467	1	3	-0.008635	4.12162	-18.8279	34.4857
 468	1	2	0.050267	5.54777	-16.9769	34.4626
 469	1	3	0.063619	4.72035	-17.8817	35.299
 470	1	5	-0.374081	4.22879	-19.2207	32.0939
 471	1	5	-0.389097	6.30551	-16.1041	34.8548
 472	1	3	-0.003634	3.33045	-19.8558	35.0132
 473	1	3	-0.04742	4.54391	-17.8993	36.6827
 474	1	3	-0.200211	3.74127	-18.9187	37.2317
 475	1	3	-0.05806	3.12522	-19.9118	36.4182
 476	1	6	0.16443	2.92112	-20.5943	34.3321
 477	1	6	0.154232	5.03332	-17.1569	37.3093
 478	1	6	0.179048	3.62772	-18.9521	38.3128
 479	1	7	-0.076903	2.35086	-21.0698	37.1082
 480	1	7	0.238473	1.3268	-21.8082	36.1533
 481	1	8	-0.092232	0.561645	-20.9466	35.4467
 482	1	8	-0.075474	0.474721	-22.5865	36.8586
 483	1	8	-0.095932	1.91576	-22.6178	35.2448
 484	1	7	0.340597	3.4488	-22.1038	37.5759
 485	1	8	-0.110855	4.24115	-22.4999	36.5533
 486	1	8	-0.104879	2.91434	-23.2236	38.1142
 487	1	8	-0.10758	4.29184	-21.5767	38.4935
 488	1	3	-0.066666	1.52188	-20.4559	38.2808
 489	1	3	-0.06911	0.58528	-19.4319	37.9843
 490	1	3	-0.048109	-0.167408	-18.869	39.0203
 491	1	3	-0.057883	1.65787	-20.8604	39.6426
 492	1	3	-0.116273	0.923319	-20.2438	40.6777
 493	1	3	-0.113036	0.0146228	-19.2388	40.3335
 494	1	2	0.502524	-0.901798	-18.423	41.1766
 495	1	1	0.0355	-1.63017	-17.6332	40.2902
 496	1	2	0.450202	-1.24259	-17.8471	38.969
 497	1	3	-0.097429	-2.67907	-16.735	40.6736
 498	1	3	-0.043121	-2.58381	-15.3495	40.3795
 499	1	3	-0.007101	-3.69814	-14.5044	40.6035
 500	1	3	0.055122	-3.86033	-17.2433	41.2644
 501	1	3	-0.325582	-4.90628	-16.3681	41.5895
 502	1	3	0.061609	-4.84495	-15.0091	41.2585
 503	1	7	0.04075	-1.31301	-14.7656	39.7484
 504	1	9	-0.311814	-3.6894	-13.2245	40.0408
 505	1	6	0.16104	1.04509	-20.5484	41.7155
 506	1	6	0.14041	2.33849	-21.6527	39.9317
 507	1	6	0.147774	0.435229	-19.0705	36.9706
 508	1	5	-0.476838	-1.68674	-17.338	37.9549
 509	1	5	-0.479462	-0.965907	-18.4532	42.394
 510	1	7	-0.144762	-4.06433	-18.728	41.546
 511	1	10	0.052647	-5.12798	-18.9722	41.6569
 512	1	10	0.065097	-3.56332	-19.0238	42.4758
 513	1	10	0.048024	-3.68006	-19.3542	40.7319
 514	1	7	-0.169984	-6.0447	-14.1321	41.5981
 515	1	6	0.223059	-5.80132	-16.7597	42.063
 516	1	10	0.004219	-6.61419	-14.5419	42.4417
 517	1	10	0.100409	-6.72976	-14.0547	40.7458
 518	1	10	0.163068	-5.73215	-13.1189	41.8836
 519	1	10	0.042023	-1.37057	-14.793	38.6531
 520	1	10	0.011973	-0.411438	-15.3092	40.0562
 521	1	10	-0.068283	-1.15362	-13.7205	40.0446
 522	1	4	0.330652	-2.80623	-12.9315	39.6486
 523	1	1	0.4882	8.67917	-2.95605	29.9315
 524	1	2	0.025477	8.07786	-4.06457	30.5247
 525	1	3	-0.008635	9.12521	-4.60277	31.4314
 526	1	2	0.050267	9.98699	-2.7236	30.3544
 527	1	3	0.063619	10.2481	-3.80442	31.3359
 528	1	5	-0.374081	6.92596	-4.45704	30.4342
 529	1	5	-0.389097	10.7289	-1.79041	30.0964
 530	1	3	-0.003634	9.07298	-5.68403	32.3153
 531	1	3	-0.04742	11.3685	-4.02954	32.1378
 532	1	3	-0.200211	11.3333	-5.11151	33.0416
 533	1	3	-0.05806	10.1975	-5.96629	33.136
 534	1	6	0.16443	8.17053	-6.28874	32.3561
 535	1	6	0.154232	12.2331	-3.37276	32.0687
 536	1	6	0.179048	12.2073	-5.26378	33.6661
 537	1	7	-0.076903	10.1281	-7.19019	34.096
 538	1	7	0.238473	11.5197	-7.60211	34.7155
 539	1	8	-0.092232	12.473	-7.75804	33.7688
 540	1	8	-0.075474	11.4445	-8.78859	35.3606
 541	1	8	-0.095932	11.9879	-6.7038	35.6119
 542	1	7	0.340597	9.13931	-6.79188	35.2631
 543	1	8	-0.110855	7.86092	-6.68611	34.8351
 544	1	8	-0.104879	9.45795	-5.58765	35.7909
 545	1	8	-0.10758	9.13584	-7.67263	36.289
 546	1	3	-0.066666	9.65066	-8.404	33.2478
 547	1	3	-0.06911	8.67594	-9.32967	33.7045
 548	1	3	-0.048109	8.29037	-10.3759	32.8569
 549	1	3	-0.057883	10.2243	-8.60773	31.9599
 550	1	3	-0.116273	9.82219	-9.66672	31.1232
 551	1	3	-0.113036	8.83968	-10.5369	31.6013
 552	1	2	0.502524	8.18279	-11.7005	30.9495
 553	1	1	0.0355	7.25385	-12.1645	31.8709
 554	1	2	0.450202	7.26509	-11.4343	33.0526
 555	1	3	-0.097429	6.32989	-13.2155	31.6057
 556	1	3	-0.043121	6.66898	-14.5592	31.8894
 557	1	3	-0.007101	5.70229	-15.5789	31.6986
 558	1	3	0.055122	5.05895	-12.8932	31.0894
 559	1	3	-0.325582	4.12933	-13.915	30.8619
 560	1	3	0.061609	4.43354	-15.25	31.1625
 561	1	7	0.04075	8.06521	-14.8786	32.4411
 562	1	9	-0.311814	6.01545	-16.8913	32.0575
 563	1	6	0.16104	10.2519	-9.80128	30.1324
 564	1	6	0.14041	10.9885	-7.92714	31.5926
 565	1	6	0.147774	8.20556	-9.25366	34.6798
 566	1	5	-0.476838	6.54762	-11.5692	34.0283
 567	1	5	-0.479462	8.39763	-12.1115	29.822
 568	1	7	-0.144762	4.67056	-11.4543	30.771
 569	1	10	0.052647	5.37172	-11.004	30.0573
 570	1	10	0.065097	4.66407	-10.8396	31.6798
 571	1	10	0.048024	3.66949	-11.3917	30.3274
 572	1	7	-0.169984	3.37187	-16.3026	30.8711
 573	1	6	0.223059	3.15394	-13.6674	30.4546
 574	1	10	0.004219	2.6095	-15.9263	30.1774
 575	1	10	0.100409	2.85671	-16.6091	31.7887
 576	1	10	0.163068	3.81142	-17.1959	30.4095
 577	1	10	0.042023	8.15908	-14.5366	33.4797
 578	1	10	0.011973	8.84667	-14.3806	31.8542
 579	1	10	-0.068283	8.30648	-15.9488	32.422
 580	1	4	0.330652	6.99597	-17.0765	32.2151
 581	1	1	0.4882	12.4439	9.808	22.4887
 582	1	2	0.025477	12.5826	8.44643	22.2372
 583	1	3	-0.008635	13.3126	7.93222	23.4224
 584	1	2	0.050267	13.053	10.2411	23.6616
 585	1	3	0.063619	13.604	8.99383	24.2585
 586	1	5	-0.374081	12.2034	7.80009	21.2746
 587	1	5	-0.389097	13.1372	11.3738	24.1073
 588	1	3	-0.003634	13.6429	6.61684	23.7601
 589	1	3	-0.04742	14.2857	8.79286	25.4605
 590	1	3	-0.200211	14.6345	7.47207	25.8171
 591	1	3	-0.05806	14.2956	6.35593	24.9946
 592	1	6	0.16443	13.3355	5.81363	23.0957
 593	1	6	0.154232	14.5176	9.63591	26.1082
 594	1	6	0.179048	15.15	7.34199	26.7627
 595	1	7	-0.076903	14.5335	4.8674	25.4137
 596	1	7	0.238473	15.0995	4.70998	26.8781
 597	1	8	-0.092232	16.3358	5.2406	27.0171
 598	1	8	-0.075474	15.1941	3.41679	27.2627
 599	1	8	-0.095932	14.2892	5.29512	27.7897
 600	1	7	0.340597	15.5696	4.26238	24.3829
 601	1	8	-0.110855	15.0047	4.03128	23.1769
 602	1	8	-0.104879	16.1169	3.08947	24.7712
 603	1	8	-0.10758	16.6027	5.11002	24.1718
 604	1	3	-0.066666	13.1605	4.1277	25.3925
 605	1	3	-0.06911	13.0742	2.71314	25.2808
 606	1	3	-0.048109	11.8137	2.10066	25.3412
 607	1	3	-0.057883	11.9525	4.85597	25.6035
 608	1	3	-0.116273	10.6942	4.2272	25.6179
 609	1	3	-0.113036	10.6566	2.84004	25.4736
 610	1	2	0.502524	9.51159	1.90596	25.6061
 611	1	1	0.0355	10.0728	0.63747	25.6446
 612	1	2	0.450202	11.4473	0.659121	25.4289
 613	1	3	-0.097429	9.34439	-0.522433	26.0454
 614	1	3	-0.043121	8.98968	-0.68918	27.4083
 615	1	3	-0.007101	8.29497	-1.856	27.8136
 616	1	3	0.055122	8.97326	-1.49007	25.0899
 617	1	3	-0.325582	8.2464	-2.61793	25.4978
 618	1	3	0.061609	7.90005	-2.80794	26.8448
 619	1	7	0.04075	9.36925	0.398532	28.4284
 620	1	9	-0.311814	7.96062	-2.02124	29.1589
 621	1	6	0.16104	9.78046	4.79143	25.7945
 622	1	6	0.14041	11.9743	5.92593	25.7874
 623	1	6	0.147774	13.9566	2.08434	25.2103
 624	1	5	-0.476838	12.222	-0.282419	25.4291
 625	1	5	-0.479462	8.34812	2.22014	25.7924
 626	1	7	-0.144762	9.31323	-1.32141	23.6143
 627	1	10	0.052647	8.90807	-0.380642	23.2211
 628	1	10	0.065097	8.89958	-2.13435	23.0053