pySIMM System Object

756 atoms
820 bonds
1443 angles
2128 dihedrals
208 impropers

10 atom types
14 bond types
24 angle types
9 dihedral types
4 improper types

-141.907635 141.907635 xlo xhi
-141.907635 141.907635 ylo yhi
-141.907635 141.907635 zlo zhi

Masses

   1	14.01	# n
   2	12.01	# c
   3	12.01	# ca
   4	1.008	# hn
   5	16.0	# o
   6	1.008	# ha
   7	12.01	# c3
   8	19.0	# f
   9	14.01	# nh
  10	1.008	# hc

Pair Coeffs

   1	0.17	3.249998523775958	# n
   2	0.086	3.3996695084235347	# c
   3	0.086	3.3996695084235347	# ca
   4	0.0157	1.069078461768407	# hn
   5	0.21	2.959921901149463	# o
   6	0.015	2.59964245953351	# ha
   7	0.1094	3.3996695084235347	# c3
   8	0.061	3.1181455134911875	# f
   9	0.17	3.249998523775958	# nh
  10	0.0157	2.649532787749369	# hc

Bond Coeffs

   1	345.9	1.4906	# c,ca
   2	345.8	1.086	# ca,ha
   3	637.7	1.2183	# c,o
   4	321.0	1.5156	# c3,ca
   5	300.9	1.5375	# c3,c3
   6	384.2	1.4121	# ca,n
   7	330.6	1.0969	# c3,hc
   8	404.6	1.0121	# hn,nh
   9	403.2	1.0129	# hn,n
  10	356.9	1.3497	# c3,f
  11	417.9	1.3859	# ca,nh
  12	427.6	1.3789	# c,n
  13	461.1	1.3984	# ca,ca
  14	452.5	1.4016	# n,nh

Angle Coeffs

   1	74.22	123.05	# n,c,o
   2	40.07	115.12	# hn,nh,hn
   3	68.29	120.95	# ca,ca,nh
   4	66.62	120.02	# ca,ca,ca
   5	48.42	116.07	# ca,nh,hn
   6	68.72	122.6	# ca,c,o
   7	48.33	117.55	# c,n,hn
   8	64.28	120.33	# c,ca,ca
   9	67.68	115.25	# ca,c,n
  10	39.4	107.58	# hc,c3,hc
  11	63.53	120.77	# c3,ca,ca
  12	67.87	120.19	# ca,ca,n
  13	70.89	107.36	# f,c3,f
  14	66.11	109.24	# c3,c3,f
  15	46.8	110.47	# ca,c3,hc
  16	62.86	111.51	# c3,c3,c3
  17	63.15	112.07	# c3,c3,ca
  18	63.82	123.71	# c,n,ca
  19	63.56	112.24	# ca,c3,ca
  20	63.74	127.08	# c,n,c
  21	48.18	119.88	# ca,ca,ha
  22	67.01	118.71	# c,n,nh
  23	67.61	116.03	# ca,nh,n
  24	50.88	108.17	# hn,nh,n

Dihedral Coeffs

   1	2	2.5	2	180	2.0	1	0	# hn,n,c,o
   2	1	3.625	2	180	# X,ca,ca,X
   3	1	0.15555555555555556	3	0	# X,c3,c3,X
   4	1	1.0	2	180	# X,c,ca,X
   5	1	0.0	2	0	# X,c3,ca,X
   6	1	2.5	2	180	# X,c,n,X
   7	1	0.45	2	180	# X,ca,n,X
   8	1	1.05	2	180	# X,ca,nh,X
   9	1	1.1	2	0	# X,n,nh,X

Improper Coeffs

   1	10.5	-1	2	# c,X,X,o
   2	1.1	-1	2	# ca,X,X,ha
   3	1.1	-1	2	# ca,ca,ca,c3
   4	1.1	-1	2	# n,X,X,hn

Atoms

   1	1	1	0.4882	-27.9938	-30.5311	19.6242
   2	1	2	0.025477	-28.339	-29.2574	19.183
   3	1	3	-0.008635	-29.3523	-28.8032	20.1596
   4	1	2	0.050267	-28.6938	-30.9593	20.7508
   5	1	3	0.063619	-29.5593	-29.7965	21.0968
   6	1	5	-0.374081	-27.8202	-28.5707	18.3192
   7	1	5	-0.389097	-28.5299	-31.9756	21.4075
   8	1	3	-0.003634	-29.9238	-27.5392	20.285
   9	1	3	-0.04742	-30.3759	-29.5689	22.2099
  10	1	3	-0.200211	-30.9484	-28.2855	22.3689
  11	1	3	-0.05806	-30.7003	-27.2404	21.4323
  12	1	6	0.16443	-29.689	-26.7822	19.5402
  13	1	6	0.154232	-30.5179	-30.349	22.9547
  14	1	6	0.179048	-31.5536	-28.1111	23.2532
  15	1	7	-0.076903	-31.1599	-25.7663	21.6313
  16	1	7	0.238473	-32.3876	-25.5459	20.6653
  17	1	8	-0.092232	-32.0256	-25.6061	19.3638
  18	1	8	-0.075474	-33.0077	-24.3591	20.8522
  19	1	8	-0.095932	-33.3273	-26.5037	20.8354
  20	1	7	0.340597	-31.5847	-25.4185	23.1099
  21	1	8	-0.110855	-32.7485	-25.9984	23.4812
  22	1	8	-0.104879	-31.7443	-24.0862	23.2797
  23	1	8	-0.10758	-30.6485	-25.8	24.0083
  24	1	3	-0.066666	-29.925	-24.8725	21.2986
  25	1	3	-0.06911	-29.9981	-23.7247	20.4653
  26	1	3	-0.048109	-28.8146	-23.0454	20.1456
  27	1	3	-0.057883	-28.6515	-25.2433	21.8214
  28	1	3	-0.116273	-27.4734	-24.5502	21.4832
  29	1	3	-0.113036	-27.5872	-23.4543	20.6255
  30	1	2	0.502524	-26.5461	-22.5343	20.0973
  31	1	1	0.0355	-27.2308	-21.6005	19.331
  32	1	2	0.450202	-28.5999	-21.8405	19.3007
  33	1	3	-0.097429	-26.6106	-20.4692	18.7244
  34	1	3	-0.043121	-26.2546	-19.3496	19.5177
  35	1	3	-0.007101	-25.6396	-18.2303	18.9066
  36	1	3	0.055122	-26.3592	-20.4679	17.3357
  37	1	3	-0.325582	-25.7491	-19.3516	16.746
  38	1	3	0.061609	-25.3869	-18.2365	17.5178
  39	1	7	0.04075	-26.5213	-19.357	21.029
  40	1	9	-0.311814	-25.2877	-17.1142	19.6625
  41	1	6	0.16104	-26.5028	-24.8567	21.8686
  42	1	6	0.14041	-28.5648	-26.1056	22.4778
  43	1	6	0.147774	-30.9326	-23.3605	20.0501
  44	1	5	-0.476838	-29.464	-21.2012	18.7254
  45	1	5	-0.479462	-25.3508	-22.5883	20.333
  46	1	7	-0.144762	-26.7243	-21.6579	16.4554
  47	1	10	0.052647	-26.1504	-22.5482	16.7403
  48	1	10	0.065097	-26.5181	-21.4596	15.3967
  49	1	10	0.048024	-27.7913	-21.9002	16.5332
  50	1	7	-0.169984	-24.7388	-17.0422	16.8293
  51	1	6	0.223059	-25.5603	-19.3514	15.6772
  52	1	10	0.004219	-23.8615	-16.6863	17.3838
  53	1	10	0.100409	-25.4509	-16.2118	16.7537
  54	1	10	0.163068	-24.4016	-17.2906	15.8171
  55	1	10	0.042023	-26.7199	-18.3541	21.4234
  56	1	10	0.011973	-25.6596	-19.7675	21.5703
  57	1	10	-0.068283	-27.3976	-19.9602	21.2961
  58	1	4	0.330652	-25.3276	-17.1655	20.6714
  59	1	1	0.4882	-15.7704	-27.7242	14.7605
  60	1	2	0.025477	-16.398	-27.6865	13.5087
  61	1	3	-0.008635	-17.7656	-27.1519	13.7963
  62	1	2	0.050267	-16.5784	-27.2889	15.805
  63	1	3	0.063619	-17.874	-26.9627	15.1599
  64	1	5	-0.374081	-16.017	-28.1498	12.4455
  65	1	5	-0.389097	-16.3634	-27.3577	17.0053
  66	1	3	-0.003634	-18.8484	-26.8956	12.937
  67	1	3	-0.04742	-19.0916	-26.6207	15.7468
  68	1	3	-0.200211	-20.1964	-26.394	14.9033
  69	1	3	-0.05806	-20.0963	-26.4599	13.4832
  70	1	6	0.16443	-18.6788	-27.0205	11.8738
  71	1	6	0.154232	-19.1756	-26.5384	16.8281
  72	1	6	0.179048	-21.1388	-26.1372	15.3765
  73	1	7	-0.076903	-21.323	-25.9853	12.6172
  74	1	7	0.238473	-21.6976	-24.5224	13.121
  75	1	8	-0.092232	-22.4452	-24.545	14.2491
  76	1	8	-0.075474	-22.415	-23.7861	12.2444
  77	1	8	-0.095932	-20.5949	-23.7886	13.395
  78	1	7	0.340597	-20.968	-25.9223	11.0768
  79	1	8	-0.110855	-19.9202	-25.1024	10.835
  80	1	8	-0.104879	-21.9797	-25.4782	10.2966
  81	1	8	-0.10758	-20.6699	-27.1465	10.5867
  82	1	3	-0.066666	-22.5524	-26.9328	12.8008
  83	1	3	-0.06911	-22.4573	-28.181	13.4794
  84	1	3	-0.048109	-23.629	-28.9236	13.7134
  85	1	3	-0.057883	-23.8347	-26.529	12.3268
  86	1	3	-0.116273	-24.9941	-27.2903	12.5621
  87	1	3	-0.113036	-24.8605	-28.479	13.2797
  88	1	2	0.502524	-25.9099	-29.3768	13.8232
  89	1	1	0.0355	-25.2398	-30.3077	14.6072
  90	1	2	0.450202	-23.8553	-30.1487	14.5373
  91	1	3	-0.097429	-25.9379	-31.1585	15.5243
  92	1	3	-0.043121	-25.9507	-30.8434	16.9087
  93	1	3	-0.007101	-26.8186	-31.5499	17.7825
  94	1	3	0.055122	-26.7451	-32.2098	15.0357
  95	1	3	-0.325582	-27.5851	-32.9068	15.9161
  96	1	3	0.061609	-27.6425	-32.5808	17.2777
  97	1	7	0.04075	-25.0496	-29.7154	17.4416
  98	1	9	-0.311814	-26.8607	-31.2131	19.1357
  99	1	6	0.16104	-25.9754	-26.9412	12.2454
 100	1	6	0.14041	-23.9603	-25.5898	11.7996
 101	1	6	0.147774	-21.5154	-28.5531	13.8728
 102	1	5	-0.476838	-22.9943	-30.7918	15.1132
 103	1	5	-0.479462	-27.1126	-29.2252	13.691
 104	1	7	-0.144762	-26.7568	-32.602	13.5638
 105	1	10	0.052647	-27.1157	-33.6298	13.4275
 106	1	10	0.065097	-25.7531	-32.5532	13.1248
 107	1	10	0.048024	-27.4171	-31.9425	12.9873
 108	1	7	-0.169984	-28.5951	-33.3666	18.1726
 109	1	6	0.223059	-28.2184	-33.7005	15.531
 110	1	10	0.004219	-28.9065	-34.3085	17.7041
 111	1	10	0.100409	-29.5029	-32.7877	18.3808
 112	1	10	0.163068	-28.128	-33.6232	19.1323
 113	1	10	0.042023	-25.351	-29.329	18.4195
 114	1	10	0.011973	-25.0437	-28.8463	16.7729
 115	1	10	-0.068283	-24.0168	-30.0654	17.5506
 116	1	4	0.330652	-26.0671	-30.6977	19.4836
 117	1	1	0.4882	-17.4563	-28.1828	6.03361
 118	1	2	0.025477	-17.5731	-29.5162	5.65629
 119	1	3	-0.008635	-17.1005	-30.27	6.84613
 120	1	2	0.050267	-16.9591	-27.9872	7.31926
 121	1	3	0.063619	-16.7766	-29.3651	7.84129
 122	1	5	-0.374081	-17.9566	-29.9824	4.59616
 123	1	5	-0.389097	-16.71	-26.9422	7.899
 124	1	3	-0.003634	-16.9278	-31.6478	7.01857
 125	1	3	-0.04742	-16.3771	-29.7979	9.10575
 126	1	3	-0.200211	-16.2601	-31.1868	9.3173
 127	1	3	-0.05806	-16.4344	-32.1308	8.26024
 128	1	6	0.16443	-17.1572	-32.3021	6.18518
 129	1	6	0.154232	-16.1548	-29.0785	9.89316
 130	1	6	0.179048	-15.9577	-31.5204	10.3074
 131	1	7	-0.076903	-16.0853	-33.6409	8.48578
 132	1	7	0.238473	-17.398	-34.3071	9.04408
 133	1	8	-0.092232	-17.6802	-33.8686	10.2922
 134	1	8	-0.075474	-17.3336	-35.6569	9.08733
 135	1	8	-0.095932	-18.4759	-34.0025	8.28553
 136	1	7	0.340597	-15.6232	-34.3676	7.16638
 137	1	8	-0.110855	-16.6341	-34.6217	6.30578
 138	1	8	-0.104879	-15.0447	-35.5607	7.4341
 139	1	8	-0.10758	-14.7029	-33.6347	6.49917
 140	1	3	-0.066666	-14.8743	-33.7359	9.4682
 141	1	3	-0.06911	-13.8366	-32.7797	9.34721
 142	1	3	-0.048109	-12.9546	-32.604	10.4136
 143	1	3	-0.057883	-14.8132	-34.6546	10.5552
 144	1	3	-0.116273	-13.8563	-34.5147	11.5834
 145	1	3	-0.113036	-12.9662	-33.4361	11.5139
 146	1	2	0.502524	-12.2647	-32.7376	12.6275
 147	1	1	0.0355	-12.0835	-31.4382	12.1588
 148	1	2	0.450202	-12.2984	-31.3323	10.791
 149	1	3	-0.097429	-12.1621	-30.2699	12.9789
 150	1	3	-0.043121	-13.3793	-29.9626	13.6468
 151	1	3	-0.007101	-13.5379	-28.7068	14.2803
 152	1	3	0.055122	-11.105	-29.3373	12.9762
 153	1	3	-0.325582	-11.2891	-28.0848	13.5817
 154	1	3	0.061609	-12.4976	-27.7531	14.2172
 155	1	7	0.04075	-14.5346	-30.9809	13.6872
 156	1	9	-0.311814	-14.6562	-28.5247	15.0961
 157	1	6	0.16104	-13.9098	-35.1306	12.4793
 158	1	6	0.14041	-15.563	-35.428	10.6758
 159	1	6	0.147774	-13.8518	-32.0311	8.55772
 160	1	5	-0.476838	-12.31	-30.3166	10.1163
 161	1	5	-0.479462	-12.207	-33.1287	13.7812
 162	1	7	-0.144762	-9.77028	-29.6539	12.3123
 163	1	10	0.052647	-9.85189	-29.6114	11.2194
 164	1	10	0.065097	-9.41904	-30.6559	12.5897
 165	1	10	0.048024	-8.9897	-28.9449	12.6141
 166	1	7	-0.169984	-12.6322	-26.3807	14.8608
 167	1	6	0.223059	-10.4809	-27.3599	13.5545
 168	1	10	0.004219	-11.6923	-25.8156	14.8147
 169	1	10	0.100409	-12.9166	-26.4624	15.9168
 170	1	10	0.163068	-13.395	-25.787	14.3435
 171	1	10	0.042023	-14.3295	-31.7687	14.4225
 172	1	10	0.011973	-14.6981	-31.4537	12.7126
 173	1	10	-0.068283	-15.5012	-30.5447	13.9629
 174	1	4	0.330652	-15.0771	-29.3948	15.3846
 175	1	1	0.4882	-15.3594	-11.8071	2.25898
 176	1	2	0.025477	-16.2111	-11.9618	3.34809
 177	1	3	-0.008635	-16.2111	-13.4198	3.59844
 178	1	2	0.050267	-14.9473	-13.0043	1.67907
 179	1	3	0.063619	-15.4615	-14.0395	2.61597
 180	1	5	-0.374081	-16.7658	-11.1093	4.02019
 181	1	5	-0.389097	-14.2353	-13.1833	0.702956
 182	1	3	-0.003634	-16.7123	-14.1143	4.70084
 183	1	3	-0.04742	-15.1611	-15.4004	2.69795
 184	1	3	-0.200211	-15.6502	-16.12	3.80927
 185	1	3	-0.05806	-16.4518	-15.5043	4.81391
 186	1	6	0.16443	-17.2413	-13.5485	5.45973
 187	1	6	0.154232	-14.5253	-15.8682	1.94988
 188	1	6	0.179048	-15.3822	-17.1706	3.90075
 189	1	7	-0.076903	-16.9332	-16.3383	6.03931
 190	1	7	0.238473	-15.7295	-16.3525	7.05762
 191	1	8	-0.092232	-14.7158	-17.1293	6.6127
 192	1	8	-0.075474	-16.0704	-16.7967	8.2885
 193	1	8	-0.095932	-15.2121	-15.115	7.23555
 194	1	7	0.340597	-18.2154	-15.7346	6.73332
 195	1	8	-0.110855	-17.9651	-14.6146	7.44811
 196	1	8	-0.104879	-18.7811	-16.6109	7.59491
 197	1	8	-0.10758	-19.1686	-15.4283	5.82366
 198	1	3	-0.066666	-17.3489	-17.7585	5.55575
 199	1	3	-0.06911	-17.1542	-18.92	6.35086
 200	1	3	-0.048109	-17.6305	-20.15	5.88103
 201	1	3	-0.057883	-18.0464	-17.895	4.32172
 202	1	3	-0.116273	-18.4919	-19.1445	3.85324
 203	1	3	-0.113036	-18.2674	-20.2596	4.66235
 204	1	2	0.502524	-18.7223	-21.6611	4.4978
 205	1	1	0.0355	-18.3611	-22.309	5.67063
 206	1	2	0.450202	-17.6717	-21.4805	6.54795
 207	1	3	-0.097429	-18.7761	-23.6396	5.95819
 208	1	3	-0.043121	-18.0375	-24.749	5.48392
 209	1	3	-0.007101	-18.5562	-26.056	5.64731
 210	1	3	0.055122	-19.994	-23.836	6.64089
 211	1	3	-0.325582	-20.4939	-25.1342	6.80347
 212	1	3	0.061609	-19.804	-26.2437	6.2934
 213	1	7	0.04075	-16.6621	-24.5651	4.82806
 214	1	9	-0.311814	-17.7941	-27.1254	5.16789
 215	1	6	0.16104	-19.033	-19.2377	2.91369
 216	1	6	0.14041	-18.2616	-17.0176	3.71739
 217	1	6	0.147774	-16.6893	-18.8874	7.33032
 218	1	5	-0.476838	-17.265	-21.7395	7.66746
 219	1	5	-0.479462	-19.3532	-22.1033	3.55267
 220	1	7	-0.144762	-20.7899	-22.663	7.20151
 221	1	10	0.052647	-20.2297	-22.1634	8.00222
 222	1	10	0.065097	-21.7474	-22.9866	7.62654
 223	1	10	0.048024	-21.012	-21.9206	6.42508
 224	1	7	-0.169984	-20.4495	-27.614	6.46089
 225	1	6	0.223059	-21.439	-25.2776	7.31643
 226	1	10	0.004219	-20.285	-28.2511	5.5833
 227	1	10	0.100409	-21.535	-27.53	6.59014
 228	1	10	0.163068	-20.0518	-28.1267	7.34421
 229	1	10	0.042023	-15.888	-25.072	5.41907
 230	1	10	0.011973	-16.3485	-23.5195	4.73818
 231	1	10	-0.068283	-16.6453	-24.9973	3.81951
 232	1	4	0.330652	-16.9613	-26.8823	4.65396
 233	1	1	0.4882	-9.30695	-1.97348	9.71529
 234	1	2	0.025477	-10.2081	-1.35938	8.84735
 235	1	3	-0.008635	-11.5376	-1.82931	9.31818
 236	1	2	0.050267	-9.89292	-2.77301	10.6877
 237	1	3	0.063619	-11.3425	-2.69425	10.3801
 238	1	5	-0.374081	-9.98111	-0.708376	7.84097
 239	1	5	-0.389097	-9.35348	-3.48476	11.5206
 240	1	3	-0.003634	-12.8084	-1.59623	8.77691
 241	1	3	-0.04742	-12.3989	-3.43141	10.9098
 242	1	3	-0.200211	-13.6725	-3.25882	10.3364
 243	1	3	-0.05806	-13.9185	-2.32357	9.28931
 244	1	6	0.16443	-12.8849	-0.905904	7.94437
 245	1	6	0.154232	-12.2227	-4.16007	11.6977
 246	1	6	0.179048	-14.4685	-3.90346	10.6944
 247	1	7	-0.076903	-15.348	-2.27095	8.66348
 248	1	7	0.238473	-16.3663	-1.83999	9.8028
 249	1	8	-0.092232	-16.4972	-2.75017	10.7925
 250	1	8	-0.075474	-17.621	-1.61919	9.35094
 251	1	8	-0.095932	-15.965	-0.699178	10.4075
 252	1	7	0.340597	-15.4987	-1.24506	7.46425
 253	1	8	-0.110855	-15.2949	0.0339519	7.85244
 254	1	8	-0.104879	-16.7262	-1.30111	6.89992
 255	1	8	-0.10758	-14.6432	-1.47875	6.44455
 256	1	3	-0.066666	-15.5741	-3.69951	8.09489
 257	1	3	-0.06911	-14.561	-4.24501	7.26526
 258	1	3	-0.048109	-14.6875	-5.55043	6.79485
 259	1	3	-0.057883	-16.7049	-4.51106	8.39806
 260	1	3	-0.116273	-16.7982	-5.84337	7.93606
 261	1	3	-0.113036	-15.7595	-6.34188	7.13963
 262	1	2	0.502524	-15.5578	-7.67611	6.51122
 263	1	1	0.0355	-14.3751	-7.57372	5.78296
 264	1	2	0.450202	-13.7846	-6.32498	5.90962
 265	1	3	-0.097429	-13.8418	-8.60672	4.95693
 266	1	3	-0.043121	-14.4873	-8.94459	3.74218
 267	1	3	-0.007101	-13.9932	-10.0221	2.96492
 268	1	3	0.055122	-12.6762	-9.29218	5.35888
 269	1	3	-0.325582	-12.1313	-10.2707	4.51933
 270	1	3	0.061609	-12.7703	-10.6383	3.32897
 271	1	7	0.04075	-15.7426	-8.1717	3.31372
 272	1	9	-0.311814	-14.7888	-10.5557	1.94407
 273	1	6	0.16104	-17.6517	-6.47028	8.18755
 274	1	6	0.14041	-17.5171	-4.13161	9.00887
 275	1	6	0.147774	-13.6733	-3.67966	6.99417
 276	1	5	-0.476838	-12.7521	-5.92019	5.40184
 277	1	5	-0.479462	-16.2851	-8.64526	6.64113
 278	1	7	-0.144762	-11.9883	-9.00505	6.68785
 279	1	10	0.052647	-11.1974	-9.73501	6.89998
 280	1	10	0.065097	-12.7022	-9.05375	7.51931
 281	1	10	0.048024	-11.5247	-8.01143	6.68935
 282	1	7	-0.169984	-12.0999	-11.7104	2.48179
 283	1	6	0.223059	-11.2159	-10.7758	4.81205
 284	1	10	0.004219	-12.3915	-12.715	2.81147
 285	1	10	0.100409	-11.0079	-11.6437	2.55212
 286	1	10	0.163068	-12.3489	-11.603	1.41892
 287	1	10	0.042023	-16.6151	-8.4709	3.90714
 288	1	10	0.011973	-15.9957	-8.31626	2.25739
 289	1	10	-0.068283	-15.6055	-7.09115	3.44787
 290	1	4	0.330652	-15.5589	-9.98333	1.63349
 291	1	1	0.4882	5.41306	1.48676	3.09225
 292	1	2	0.025477	4.47208	1.26715	2.08558
 293	1	3	-0.008635	3.21519	1.85525	2.61107
 294	1	2	0.050267	4.89328	2.14535	4.20947
 295	1	3	0.063619	3.46783	2.38757	3.85939
 296	1	5	-0.374081	4.55112	0.522588	1.12363
 297	1	5	-0.389097	5.38093	2.28488	5.31869
 298	1	3	-0.003634	1.9185	1.7725	2.08944
 299	1	3	-0.04742	2.43442	2.91347	4.63768
 300	1	3	-0.200211	1.12057	2.84627	4.12789
 301	1	3	-0.05806	0.82849	2.24232	2.87089
 302	1	6	0.16443	1.78926	1.29156	1.12636
 303	1	6	0.154232	2.64183	3.31291	5.62813
 304	1	6	0.179048	0.308491	3.21268	4.75257
 305	1	7	-0.076903	-0.666627	2.04629	2.46025
 306	1	7	0.238473	-1.22063	3.47489	2.08147
 307	1	8	-0.092232	-2.42583	3.44549	1.46969
 308	1	8	-0.075474	-0.381691	4.11681	1.23656
 309	1	8	-0.095932	-1.35311	4.27048	3.16639
 310	1	7	0.340597	-0.868082	1.06494	1.2421
 311	1	8	-0.110855	-0.38647	1.56271	0.0804336
 312	1	8	-0.104879	-2.17346	0.780353	1.03161
 313	1	8	-0.10758	-0.262257	-0.12601	1.45432
 314	1	3	-0.066666	-1.40317	1.39163	3.66762
 315	1	3	-0.06911	-2.74363	1.70917	4.02017
 316	1	3	-0.048109	-3.30597	1.10666	5.1559
 317	1	3	-0.057883	-0.715745	0.415085	4.44452
 318	1	3	-0.116273	-1.28725	-0.158206	5.59424
 319	1	3	-0.113036	-2.58522	0.224804	5.93421
 320	1	2	0.502524	-3.41074	-0.150901	7.10674
 321	1	1	0.0355	-4.61108	0.531052	6.95615
 322	1	2	0.450202	-4.64286	1.29145	5.7901
 323	1	3	-0.097429	-5.62934	0.497528	7.95622
 324	1	3	-0.043121	-6.35891	-0.692431	8.20177
 325	1	3	-0.007101	-7.22679	-0.767361	9.31741
 326	1	3	0.055122	-5.81585	1.62109	8.79144
 327	1	3	-0.325582	-6.67152	1.52768	9.8981
 328	1	3	0.061609	-7.35234	0.33767	10.192
 329	1	7	0.04075	-6.23449	-1.91546	7.28045
 330	1	9	-0.311814	-7.91262	-1.9649	9.52569
 331	1	6	0.16104	-0.734715	-0.865747	6.20955
 332	1	6	0.14041	0.293508	0.11405	4.17656
 333	1	6	0.147774	-3.3426	2.41595	3.45466
 334	1	5	-0.476838	-5.54355	2.00064	5.37641
 335	1	5	-0.479462	-3.0562	-0.863501	8.03063
 336	1	7	-0.144762	-5.0865	2.93773	8.54861
 337	1	10	0.052647	-5.5177	3.46351	7.6871
 338	1	10	0.065097	-4.01857	2.78337	8.35513
 339	1	10	0.048024	-5.1641	3.6103	9.41113
 340	1	7	-0.169984	-8.15847	0.268315	11.4845
 341	1	6	0.223059	-6.78781	2.38688	10.5504
 342	1	10	0.004219	-9.23654	0.232625	11.2892
 343	1	10	0.100409	-7.97268	1.13978	12.1235
 344	1	10	0.163068	-7.88043	-0.62007	12.0671
 345	1	10	0.042023	-5.54736	-1.7755	6.43985
 346	1	10	0.011973	-7.20933	-2.16905	6.84492
 347	1	10	-0.068283	-5.88857	-2.79319	7.84156
 348	1	4	0.330652	-7.7033	-2.70913	8.87729
 349	1	1	0.4882	16.4337	9.48186	9.9268
 350	1	2	0.025477	15.875	8.36481	9.29846
 351	1	3	-0.008635	15.7242	8.77352	7.8697
 352	1	2	0.050267	16.6048	10.5704	9.06826
 353	1	3	0.063619	16.1702	10.0741	7.74712
 354	1	5	-0.374081	15.5434	7.29744	9.78856
 355	1	5	-0.389097	16.9562	11.7135	9.3013
 356	1	3	-0.003634	15.2824	8.05443	6.74847
 357	1	3	-0.04742	16.2077	10.7274	6.51737
 358	1	3	-0.200211	15.7975	10.0139	5.37779
 359	1	3	-0.05806	15.3326	8.67068	5.46675
 360	1	6	0.16443	14.9604	7.02306	6.86846
 361	1	6	0.154232	16.587	11.7443	6.44852
 362	1	6	0.179048	15.8872	10.5224	4.42443
 363	1	7	-0.076903	15.0225	7.82464	4.19944
 364	1	7	0.238473	14.7964	8.68832	2.88976
 365	1	8	-0.092232	14.2749	7.94406	1.88716
 366	1	8	-0.075474	15.932	9.23578	2.40019
 367	1	8	-0.095932	13.9262	9.70614	3.08475
 368	1	7	0.340597	16.2814	6.89676	3.97864
 369	1	8	-0.110855	17.4328	7.60675	4.00763
 370	1	8	-0.104879	16.2644	6.24462	2.79389
 371	1	8	-0.10758	16.3991	5.96279	4.94961
 372	1	3	-0.066666	13.6939	7.0439	4.41348
 373	1	3	-0.06911	13.5517	5.67317	4.06933
 374	1	3	-0.048109	12.2688	5.11881	4.01299
 375	1	3	-0.057883	12.527	7.77137	4.77921
 376	1	3	-0.116273	11.2401	7.20549	4.67482
 377	1	3	-0.113036	11.143	5.87833	4.24589
 378	1	2	0.502524	9.95819	5.09522	3.80431
 379	1	1	0.0355	10.462	3.88506	3.33377
 380	1	2	0.450202	11.8402	3.79264	3.50052
 381	1	3	-0.097429	9.67712	2.92563	2.61836
 382	1	3	-0.043121	8.60383	2.24928	3.2541
 383	1	3	-0.007101	7.76702	1.38029	2.50317
 384	1	3	0.055122	9.95106	2.68471	1.25247
 385	1	3	-0.325582	9.19801	1.73198	0.560054
 386	1	3	0.061609	8.12499	1.07007	1.16737
 387	1	7	0.04075	8.40844	2.41292	4.76527
 388	1	9	-0.311814	6.64255	0.785596	3.09031
 389	1	6	0.16104	10.3451	7.80019	4.84772
 390	1	6	0.14041	12.6064	8.82144	5.04836
 391	1	6	0.147774	14.3837	5.05523	3.7495
 392	1	5	-0.476838	12.5793	2.86641	3.21095
 393	1	5	-0.479462	8.82172	5.52589	3.70829
 394	1	7	-0.144762	11.0591	3.40021	0.4849
 395	1	10	0.052647	11.1558	4.45089	0.782758
 396	1	10	0.065097	10.8657	3.39437	-0.594467
 397	1	10	0.048024	12.0265	2.90716	0.642247
 398	1	7	-0.169984	7.40793	0.0295836	0.317478
 399	1	6	0.223059	9.44223	1.51757	-0.476044
 400	1	10	0.004219	6.73193	0.513074	-0.398501
 401	1	10	0.100409	6.83022	-0.688348	0.907375
 402	1	10	0.163068	8.12929	-0.557346	-0.2633
 403	1	10	0.042023	9.37055	2.4652	5.28917
 404	1	10	0.011973	7.87978	1.56475	5.21442
 405	1	10	-0.068283	7.85395	3.32821	4.99934
 406	1	4	0.330652	6.39365	-0.127591	2.74307
 407	1	1	0.4882	23.0904	17.9595	3.56493
 408	1	2	0.025477	22.5622	19.0085	4.312
 409	1	3	-0.008635	23.0138	18.7019	5.69312
 410	1	2	0.050267	24.0004	17.159	4.2456
 411	1	3	0.063619	23.901	17.6392	5.64597
 412	1	5	-0.374081	21.7062	19.8181	3.99531
 413	1	5	-0.389097	24.5823	16.1604	3.85198
 414	1	3	-0.003634	22.3981	19.0849	6.88891
 415	1	3	-0.04742	24.3325	17.0018	6.80844
 416	1	3	-0.200211	23.7225	17.3735	8.02112
 417	1	3	-0.05806	22.6713	18.3347	8.06327
 418	1	6	0.16443	21.6026	19.8201	6.83288
 419	1	6	0.154232	25.0027	16.1466	6.75131
 420	1	6	0.179048	23.9494	16.7767	8.9013
 421	1	7	-0.076903	21.6926	18.2918	9.27865
 422	1	7	0.238473	20.3451	19.0824	9.04795
 423	1	8	-0.092232	20.5304	20.4181	8.95552
 424	1	8	-0.075474	19.4628	18.8759	10.0516
 425	1	8	-0.095932	19.705	18.6858	7.92282
 426	1	7	0.340597	22.451	18.8926	10.5234
 427	1	8	-0.110855	23.4695	18.1025	10.9288
 428	1	8	-0.104879	21.6561	19.0793	11.6004
 429	1	8	-0.10758	22.9921	20.0965	10.2286
 430	1	3	-0.066666	21.2804	16.7956	9.43489
 431	1	3	-0.06911	21.1131	16.1487	10.6916
 432	1	3	-0.048109	20.7778	14.7835	10.708
 433	1	3	-0.057883	21.0414	16.0402	8.24887
 434	1	3	-0.116273	20.7396	14.6723	8.28325
 435	1	3	-0.113036	20.6274	14.0723	9.53377
 436	1	2	0.502524	20.3041	12.6712	9.86261
 437	1	1	0.0355	20.2334	12.6205	11.2474
 438	1	2	0.450202	20.514	13.8456	11.8443
 439	1	3	-0.097429	19.8338	11.4094	11.8767
 440	1	3	-0.043121	18.4533	11.1177	11.8963
 441	1	3	-0.007101	18.0305	9.7808	11.6965
 442	1	3	0.055122	20.7793	10.3741	11.9972
 443	1	3	-0.325582	20.3353	9.04575	12.0179
 444	1	3	0.061609	18.9835	8.73614	11.7913
 445	1	7	0.04075	17.4527	12.2689	12.0785
 446	1	9	-0.311814	16.7043	9.53933	11.3188
 447	1	6	0.16104	20.5891	14.0966	7.37178
 448	1	6	0.14041	21.1161	16.5087	7.27257
 449	1	6	0.147774	21.235	16.6713	11.6351
 450	1	5	-0.476838	20.5136	14.1208	13.0317
 451	1	5	-0.479462	20.1689	11.7626	9.05876
 452	1	7	-0.144762	22.2766	10.6538	12.0306
 453	1	10	0.052647	22.7347	10.4533	11.0545
 454	1	10	0.065097	22.7745	10.02	12.7747
 455	1	10	0.048024	22.4988	11.693	12.3029
 456	1	7	-0.169984	18.6061	7.26332	11.6982
 457	1	6	0.223059	21.0643	8.24621	12.1073
 458	1	10	0.004219	18.3977	6.85481	12.6946
 459	1	10	0.100409	19.422	6.67413	11.2621
 460	1	10	0.163068	17.7239	7.08966	11.0764
 461	1	10	0.042023	17.6025	13.0737	11.3489
 462	1	10	0.011973	17.5734	12.7122	13.0745
 463	1	10	-0.068283	16.4058	11.9478	12.0055
 464	1	4	0.330652	16.0372	10.2105	11.6715
 465	1	1	0.4882	19.5293	12.2971	-10.6157
 466	1	2	0.025477	20.333	12.7408	-9.56847
 467	1	3	-0.008635	19.8734	14.1361	-9.31949
 468	1	2	0.050267	18.6353	13.2576	-11.088
 469	1	3	0.063619	18.8382	14.4147	-10.1862
 470	1	5	-0.374081	21.3146	12.1981	-9.088
 471	1	5	-0.389097	17.9758	13.259	-12.1146
 472	1	3	-0.003634	20.3668	15.1063	-8.43906
 473	1	3	-0.04742	18.1842	15.6432	-10.1584
 474	1	3	-0.200211	18.6293	16.6111	-9.23803
 475	1	3	-0.05806	19.7562	16.3968	-8.38608
 476	1	6	0.16443	21.1928	14.8165	-7.8037
 477	1	6	0.154232	17.3496	15.8367	-10.8292
 478	1	6	0.179048	18.0713	17.5384	-9.22737
 479	1	7	-0.076903	20.2317	17.4888	-7.35361
 480	1	7	0.238473	21.8103	17.4268	-7.1902
 481	1	8	-0.092232	22.4302	17.3707	-8.38994
 482	1	8	-0.075474	22.2109	16.3555	-6.46929
 483	1	8	-0.095932	22.3547	18.4695	-6.52593
 484	1	7	0.340597	19.8163	18.9431	-7.84301
 485	1	8	-0.110855	18.4943	19.1702	-7.67047
 486	1	8	-0.104879	20.1094	19.1312	-9.15039
 487	1	8	-0.10758	20.4087	19.9658	-7.18928
 488	1	3	-0.066666	19.597	17.1869	-5.96608
 489	1	3	-0.06911	19.8323	18.0566	-4.8682
 490	1	3	-0.048109	19.4344	17.656	-3.58781
 491	1	3	-0.057883	18.8796	15.9772	-5.7245
 492	1	3	-0.116273	18.5261	15.5749	-4.42567
 493	1	3	-0.113036	18.855	16.4249	-3.37115
 494	1	2	0.502524	18.8106	16.1794	-1.9126
 495	1	1	0.0355	19.3638	17.3121	-1.32646
 496	1	2	0.450202	19.6982	18.2834	-2.26556
 497	1	3	-0.097429	19.6632	17.3771	0.0675569
 498	1	3	-0.043121	21.0071	17.4292	0.526191
 499	1	3	-0.007101	21.2901	17.3801	1.91622
 500	1	3	0.055122	18.6052	17.2847	0.994659
 501	1	3	-0.325582	18.8994	17.116	2.3498
 502	1	3	0.061609	20.2202	17.1167	2.82147
 503	1	7	0.04075	22.1802	17.5165	-0.466931
 504	1	9	-0.311814	22.6301	17.6169	2.28034
 505	1	6	0.16104	18.0628	14.6076	-4.23949
 506	1	6	0.14041	18.6361	15.2861	-6.52217
 507	1	6	0.147774	20.3851	18.9852	-4.97282
 508	1	5	-0.476838	20.204	19.3763	-2.07618
 509	1	5	-0.479462	18.5022	15.1262	-1.38139
 510	1	7	-0.144762	17.1391	17.3042	0.571972
 511	1	10	0.052647	16.9668	17.9878	-0.268417
 512	1	10	0.065097	16.492	17.6405	1.39093
 513	1	10	0.048024	16.7994	16.3042	0.276211
 514	1	7	-0.169984	20.3725	16.8056	4.30613
 515	1	6	0.223059	18.0792	16.9729	3.04613
 516	1	10	0.004219	21.3199	16.3097	4.54098
 517	1	10	0.100409	19.5837	16.12	4.63927
 518	1	10	0.163068	20.2734	17.7195	4.90353
 519	1	10	0.042023	21.9373	17.1312	-1.46235
 520	1	10	0.011973	23.0408	16.9213	-0.138098
 521	1	10	-0.068283	22.5215	18.5534	-0.575165
 522	1	4	0.330652	23.2315	18.0413	1.59049
 523	1	1	0.4882	10.4886	14.9647	-14.2867
 524	1	2	0.025477	10.9826	14.5645	-13.0473
 525	1	3	-0.008635	10.4221	13.2034	-12.8487
 526	1	2	0.050267	9.64517	14.026	-14.8869
 527	1	3	0.063619	9.59487	12.908	-13.9101
 528	1	5	-0.374081	11.8835	15.0651	-12.3959
 529	1	5	-0.389097	9.27357	13.9645	-16.0483
 530	1	3	-0.003634	10.7666	12.2365	-11.8981
 531	1	3	-0.04742	8.99539	11.6542	-14.021
 532	1	3	-0.200211	9.26958	10.6909	-13.0267
 533	1	3	-0.05806	10.1848	10.9368	-11.9551
 534	1	6	0.16443	11.5113	12.5149	-11.164
 535	1	6	0.154232	8.36078	11.4255	-14.8751
 536	1	6	0.179048	8.78728	9.73129	-13.1549
 537	1	7	-0.076903	10.6299	9.81344	-10.9392
 538	1	7	0.238473	10.7911	10.4798	-9.50173
 539	1	8	-0.092232	11.9565	11.1548	-9.37449
 540	1	8	-0.075474	10.7863	9.61691	-8.46261
 541	1	8	-0.095932	9.78994	11.3534	-9.24851
 542	1	7	0.340597	9.57518	8.63911	-10.8433
 543	1	8	-0.110855	8.33561	9.10391	-10.5666
 544	1	8	-0.104879	9.87761	7.7158	-9.90352
 545	1	8	-0.10758	9.50565	7.91508	-11.9834
 546	1	3	-0.066666	11.9653	9.1786	-11.4376
 547	1	3	-0.06911	12.8911	8.57587	-10.5407
 548	1	3	-0.048109	14.1085	8.08345	-11.0364
 549	1	3	-0.057883	12.2931	9.19265	-12.8242
 550	1	3	-0.116273	13.5178	8.69194	-13.304
 551	1	3	-0.113036	14.4129	8.14823	-12.3806
 552	1	2	0.502524	15.8512	7.82841	-12.5536
 553	1	1	0.0355	16.357	7.71954	-11.2645
 554	1	2	0.450202	15.3539	7.71652	-10.2987
 555	1	3	-0.097429	17.7166	8.07021	-11.0016
 556	1	3	-0.043121	18.068	9.44966	-10.9881
 557	1	3	-0.007101	19.4375	9.83066	-11.0294
 558	1	3	0.055122	18.7185	7.07926	-10.9584
 559	1	3	-0.325582	20.0627	7.47047	-10.8992
 560	1	3	0.061609	20.4285	8.82298	-10.9637
 561	1	7	0.04075	16.9693	10.5194	-11.0422
 562	1	9	-0.311814	19.8562	11.1356	-11.3461
 563	1	6	0.16104	13.7959	8.79223	-14.3516
 564	1	6	0.14041	11.62	9.63179	-13.5519
 565	1	6	0.147774	12.7224	8.54919	-9.46905
 566	1	5	-0.476838	15.4885	7.70476	-9.08712
 567	1	5	-0.479462	16.4781	7.93042	-13.5951
 568	1	7	-0.144762	18.3977	5.59041	-11.0165
 569	1	10	0.052647	18.1899	5.19792	-10.0137
 570	1	10	0.065097	19.2396	5.01996	-11.429
 571	1	10	0.048024	17.5314	5.376	-11.6531
 572	1	7	-0.169984	21.9146	9.15969	-11.0141
 573	1	6	0.223059	20.8359	6.70839	-10.8669
 574	1	10	0.004219	22.533	8.29903	-10.7303
 575	1	10	0.100409	22.1659	9.97148	-10.3202
 576	1	10	0.163068	22.2158	9.45502	-12.0261
 577	1	10	0.042023	16.9451	10.9992	-12.0261
 578	1	10	0.011973	17.1199	11.2745	-10.2648
 579	1	10	-0.068283	15.9592	10.1502	-10.8571
 580	1	4	0.330652	20.8136	11.2536	-11.6354
 581	1	1	0.4882	17.9558	26.5696	-23.0488
 582	1	2	0.025477	16.8788	25.8439	-22.5523
 583	1	3	-0.008635	17.0261	25.9027	-21.084
 584	1	2	0.050267	18.8157	27.0408	-22.0564
 585	1	3	0.063619	18.1727	26.6025	-20.7816
 586	1	5	-0.374081	15.931	25.3706	-23.1442
 587	1	5	-0.389097	19.797	27.7572	-22.1752
 588	1	3	-0.003634	16.114	25.4988	-20.1079
 589	1	3	-0.04742	18.4959	26.8715	-19.4505
 590	1	3	-0.200211	17.5843	26.4728	-18.4445
 591	1	3	-0.05806	16.3334	25.8449	-18.7451
 592	1	6	0.16443	15.2264	24.9877	-20.4567
 593	1	6	0.154232	19.4006	27.4244	-19.2079
 594	1	6	0.179048	17.8569	26.7288	-17.4282
 595	1	7	-0.076903	15.2102	25.6019	-17.6584
 596	1	7	0.238473	13.7816	25.819	-18.3274
 597	1	8	-0.092232	13.4162	24.7729	-19.1039
 598	1	8	-0.075474	13.7534	26.9331	-19.0938
 599	1	8	-0.095932	12.7538	25.9364	-17.4596
 600	1	7	0.340597	15.3786	26.6309	-16.4628
 601	1	8	-0.110855	16.4236	26.3019	-15.6707
 602	1	8	-0.104879	14.3325	26.7107	-15.6127
 603	1	8	-0.10758	15.5722	27.891	-16.9157
 604	1	3	-0.066666	15.2541	24.1432	-17.1163
 605	1	3	-0.06911	14.3276	23.7257	-16.1223
 606	1	3	-0.048109	14.196	22.3618	-15.8351
 607	1	3	-0.057883	16.085	23.1546	-17.7159
 608	1	3	-0.116273	15.9211	21.7849	-17.4301
 609	1	3	-0.113036	14.9357	21.4168	-16.5109
 610	1	2	0.502524	14.2969	20.0926	-16.3043
 611	1	1	0.0355	13.1557	20.342	-15.5489
 612	1	2	0.450202	13.1041	21.6632	-15.1059
 613	1	3	-0.097429	12.0195	19.4679	-15.5458
 614	1	3	-0.043121	12.0845	18.1431	-15.0388
 615	1	3	-0.007101	10.9669	17.2738	-15.1689
 616	1	3	0.055122	10.8512	19.8893	-16.2224
 617	1	3	-0.325582	9.71177	19.0808	-16.2054
 618	1	3	0.061609	9.74234	17.7877	-15.6697
 619	1	7	0.04075	13.3924	17.6006	-14.447
 620	1	9	-0.311814	11.2192	15.8999	-15.0448
 621	1	6	0.16104	16.4698	21.0256	-17.9836
 622	1	6	0.14041	16.805	23.4179	-18.4829
 623	1	6	0.147774	13.6236	24.414	-15.6656
 624	1	5	-0.476838	12.2325	22.2047	-14.4463
 625	1	5	-0.479462	14.6002	19.0688	-16.8921
 626	1	7	-0.144762	10.7983	21.1538	-17.0787
 627	1	10	0.052647	10.039	21.0665	-17.8656
 628	1	10	0.065097	11.7487	21.3328	-17.5971
 629	1	10	0.048024	10.5557	22.0405	-16.4819
 630	1	7	-0.169984	8.46227	16.9766	-15.7967
 631	1	6	0.223059	8.81136	19.4385	-16.6954
 632	1	10	0.004219	7.60689	17.6099	-16.0645
 633	1	10	0.100409	8.20292	16.4832	-14.8537
 634	1	10	0.163068	8.55619	16.22	-16.5808
 635	1	10	0.042023	14.0419	18.3894	-14.0512
 636	1	10	0.011973	13.9585	17.0436	-15.204
 637	1	10	-0.068283	13.2064	16.9172	-13.6133