pySIMM System Object

1684 atoms
1828 bonds
3219 angles
4752 dihedrals
464 impropers

10 atom types
14 bond types
24 angle types
9 dihedral types
4 improper types

-188.219533 188.219533 xlo xhi
-188.219533 188.219533 ylo yhi
-188.219533 188.219533 zlo zhi

Masses

   1	14.01	# n
   2	12.01	# c
   3	12.01	# ca
   4	1.008	# hn
   5	16.0	# o
   6	1.008	# ha
   7	12.01	# c3
   8	19.0	# f
   9	14.01	# nh
  10	1.008	# hc

Pair Coeffs

   1	0.17	3.249998523775958	# n
   2	0.086	3.3996695084235347	# c
   3	0.086	3.3996695084235347	# ca
   4	0.0157	1.069078461768407	# hn
   5	0.21	2.959921901149463	# o
   6	0.015	2.59964245953351	# ha
   7	0.1094	3.3996695084235347	# c3
   8	0.061	3.1181455134911875	# f
   9	0.17	3.249998523775958	# nh
  10	0.0157	2.649532787749369	# hc

Bond Coeffs

   1	345.9	1.4906	# c,ca
   2	345.8	1.086	# ca,ha
   3	637.7	1.2183	# c,o
   4	321.0	1.5156	# c3,ca
   5	300.9	1.5375	# c3,c3
   6	384.2	1.4121	# ca,n
   7	330.6	1.0969	# c3,hc
   8	404.6	1.0121	# hn,nh
   9	403.2	1.0129	# hn,n
  10	356.9	1.3497	# c3,f
  11	417.9	1.3859	# ca,nh
  12	427.6	1.3789	# c,n
  13	461.1	1.3984	# ca,ca
  14	452.5	1.4016	# n,nh

Angle Coeffs

   1	74.22	123.05	# n,c,o
   2	40.07	115.12	# hn,nh,hn
   3	68.29	120.95	# ca,ca,nh
   4	66.62	120.02	# ca,ca,ca
   5	48.42	116.07	# ca,nh,hn
   6	68.72	122.6	# ca,c,o
   7	48.33	117.55	# c,n,hn
   8	64.28	120.33	# c,ca,ca
   9	67.68	115.25	# ca,c,n
  10	39.4	107.58	# hc,c3,hc
  11	63.53	120.77	# c3,ca,ca
  12	67.87	120.19	# ca,ca,n
  13	70.89	107.36	# f,c3,f
  14	66.11	109.24	# c3,c3,f
  15	46.8	110.47	# ca,c3,hc
  16	62.86	111.51	# c3,c3,c3
  17	63.15	112.07	# c3,c3,ca
  18	63.82	123.71	# c,n,ca
  19	63.56	112.24	# ca,c3,ca
  20	63.74	127.08	# c,n,c
  21	48.18	119.88	# ca,ca,ha
  22	67.01	118.71	# c,n,nh
  23	67.61	116.03	# ca,nh,n
  24	50.88	108.17	# hn,nh,n

Dihedral Coeffs

   1	2	2.5	2	180	2.0	1	0	# hn,n,c,o
   2	1	3.625	2	180	# X,ca,ca,X
   3	1	0.15555555555555556	3	0	# X,c3,c3,X
   4	1	1.0	2	180	# X,c,ca,X
   5	1	0.0	2	0	# X,c3,ca,X
   6	1	2.5	2	180	# X,c,n,X
   7	1	0.45	2	180	# X,ca,n,X
   8	1	1.05	2	180	# X,ca,nh,X
   9	1	1.1	2	0	# X,n,nh,X

Improper Coeffs

   1	10.5	-1	2	# c,X,X,o
   2	1.1	-1	2	# ca,X,X,ha
   3	1.1	-1	2	# ca,ca,ca,c3
   4	1.1	-1	2	# n,X,X,hn

Atoms

   1	1	1	0.4882	-37.1955	-22.1167	23.9628
   2	1	2	0.025477	-37.1458	-23.3414	24.6341
   3	1	3	-0.008635	-38.0531	-24.2282	23.8586
   4	1	2	0.050267	-38.0671	-22.1126	22.8746
   5	1	3	0.063619	-38.6023	-23.496	22.8248
   6	1	5	-0.374081	-36.64	-23.6135	25.7094
   7	1	5	-0.389097	-38.4839	-21.1628	22.2325
   8	1	3	-0.003634	-38.407	-25.5649	24.0827
   9	1	3	-0.04742	-39.5452	-24.0563	21.9615
  10	1	3	-0.200211	-39.9088	-25.4026	22.1637
  11	1	3	-0.05806	-39.3633	-26.1765	23.2271
  12	1	6	0.16443	-37.9329	-26.0943	24.9027
  13	1	6	0.154232	-39.9782	-23.4641	21.1588
  14	1	6	0.179048	-40.6212	-25.8478	21.4728
  15	1	7	-0.076903	-39.77	-27.6719	23.3636
  16	1	7	0.238473	-38.787	-28.473	22.4249
  17	1	8	-0.092232	-38.9536	-29.812	22.5191
  18	1	8	-0.075474	-37.4892	-28.221	22.7124
  19	1	8	-0.095932	-38.9369	-28.1286	21.1253
  20	1	7	0.340597	-39.6403	-28.2246	24.8417
  21	1	8	-0.110855	-38.3674	-28.4747	25.2229
  22	1	8	-0.104879	-40.3162	-29.3862	24.9947
  23	1	8	-0.10758	-40.1428	-27.3633	25.7547
  24	1	3	-0.066666	-41.2747	-27.8091	22.9606
  25	1	3	-0.06911	-42.2409	-27.0324	23.6539
  26	1	3	-0.048109	-43.5939	-27.1517	23.3119
  27	1	3	-0.057883	-41.7359	-28.6775	21.9267
  28	1	3	-0.116273	-43.1009	-28.7665	21.5831
  29	1	3	-0.113036	-44.014	-27.989	22.3008
  30	1	2	0.502524	-45.4981	-27.9114	22.2166
  31	1	1	0.0355	-45.8823	-27.0338	23.2222
  32	1	2	0.450202	-44.7951	-26.5153	23.9153
  33	1	3	-0.097429	-47.2388	-26.7737	23.58
  34	1	3	-0.043121	-47.9623	-25.7239	22.9654
  35	1	3	-0.007101	-49.2948	-25.4664	23.375
  36	1	3	0.055122	-47.8452	-27.5679	24.5756
  37	1	3	-0.325582	-49.1614	-27.2976	24.9726
  38	1	3	0.061609	-49.8876	-26.2514	24.388
  39	1	7	0.04075	-47.2928	-24.8945	21.863
  40	1	9	-0.311814	-50.0279	-24.4401	22.7898
  41	1	6	0.16104	-43.4417	-29.4356	20.7951
  42	1	6	0.14041	-41.051	-29.3049	21.3687
  43	1	6	0.147774	-41.9563	-26.3496	24.4501
  44	1	5	-0.476838	-44.8028	-25.7382	24.8544
  45	1	5	-0.479462	-46.2097	-28.5289	21.4431
  46	1	7	-0.144762	-47.0957	-28.7142	25.2425
  47	1	10	0.052647	-46.2736	-28.3347	25.8619
  48	1	10	0.065097	-46.676	-29.4003	24.4964
  49	1	10	0.048024	-47.7528	-29.3062	25.891
  50	1	7	-0.169984	-51.3059	-25.9817	24.8727
  51	1	6	0.223059	-49.6233	-27.9014	25.7474
  52	1	10	0.004219	-51.6005	-26.6605	25.6832
  53	1	10	0.100409	-52.0285	-26.1025	24.0568
  54	1	10	0.163068	-51.3932	-24.9561	25.2505
  55	1	10	0.042023	-47.125	-25.5086	20.969
  56	1	10	0.011973	-46.319	-24.5117	22.1933
  57	1	10	-0.068283	-47.8824	-24.0235	21.5519
  58	1	4	0.330652	-49.5931	-23.8643	22.0789
  59	1	1	0.4882	-20.8284	-22.2786	25.6875
  60	1	2	0.025477	-21.5006	-22.3776	26.9023
  61	1	3	-0.008635	-22.8673	-21.8745	26.5999
  62	1	2	0.050267	-21.6051	-21.7954	24.6375
  63	1	3	0.063619	-22.9123	-21.5009	25.2691
  64	1	5	-0.374081	-21.0926	-22.7979	27.9727
  65	1	5	-0.389097	-21.3208	-21.6667	23.4575
  66	1	3	-0.003634	-23.9908	-21.7694	27.428
  67	1	3	-0.04742	-24.0533	-20.9236	24.7145
  68	1	3	-0.200211	-25.1836	-20.7783	25.5411
  69	1	3	-0.05806	-25.198	-21.2515	26.885
  70	1	6	0.16443	-23.9049	-22.0936	28.4595
  71	1	6	0.154232	-24.0563	-20.5983	23.6764
  72	1	6	0.179048	-26.0679	-20.3111	25.1136
  73	1	7	-0.076903	-26.5092	-21.1536	27.719
  74	1	7	0.238473	-26.6396	-22.3032	28.7948
  75	1	8	-0.092232	-25.8373	-22.1386	29.87
  76	1	8	-0.075474	-26.3439	-23.5158	28.2745
  77	1	8	-0.095932	-27.9011	-22.3884	29.2752
  78	1	7	0.340597	-26.4758	-19.7544	28.4443
  79	1	8	-0.110855	-25.3293	-19.5712	29.1384
  80	1	8	-0.104879	-27.4881	-19.5948	29.327
  81	1	8	-0.10758	-26.5368	-18.7343	27.5582
  82	1	3	-0.066666	-27.7215	-21.3274	26.7493
  83	1	3	-0.06911	-28.8241	-20.4319	26.717
  84	1	3	-0.048109	-29.8536	-20.6551	25.7953
  85	1	3	-0.057883	-27.7314	-22.4323	25.8488
  86	1	3	-0.116273	-28.779	-22.64	24.929
  87	1	3	-0.113036	-29.8353	-21.725	24.9251
  88	1	2	0.502524	-31.0727	-21.6745	24.0995
  89	1	1	0.0355	-31.7665	-20.5548	24.5393
  90	1	2	0.450202	-31.0983	-19.8802	25.554
  91	1	3	-0.097429	-33.0374	-20.1565	24.0304
  92	1	3	-0.043121	-34.2262	-20.7729	24.4985
  93	1	3	-0.007101	-35.4885	-20.3547	23.9953
  94	1	3	0.055122	-33.0981	-19.1147	23.0855
  95	1	3	-0.325582	-34.3456	-18.6839	22.6228
  96	1	3	0.061609	-35.5333	-19.2731	23.0777
  97	1	7	0.04075	-34.138	-21.8428	25.5925
  98	1	9	-0.311814	-36.6789	-20.9102	24.4913
  99	1	6	0.16104	-28.7708	-23.4842	24.2421
 100	1	6	0.14041	-26.9018	-23.1344	25.8466
 101	1	6	0.147774	-28.9085	-19.5742	27.3754
 102	1	5	-0.476838	-31.4279	-18.852	26.1214
 103	1	5	-0.479462	-31.3835	-22.4549	23.2153
 104	1	7	-0.144762	-31.8405	-18.4133	22.5856
 105	1	10	0.052647	-31.3485	-17.8661	23.3996
 106	1	10	0.065097	-32.0657	-17.6866	21.7958
 107	1	10	0.048024	-31.1219	-19.132	22.1729
 108	1	7	-0.169984	-36.8302	-18.6816	22.5409
 109	1	6	0.223059	-34.3939	-17.8613	21.9155
 110	1	10	0.004219	-36.7191	-17.6107	22.3289
 111	1	10	0.100409	-37.6658	-18.7783	23.2415
 112	1	10	0.163068	-37.1118	-19.1688	21.5989
 113	1	10	0.042023	-34.9698	-21.7651	26.3018
 114	1	10	0.011973	-34.1434	-22.848	25.1541
 115	1	10	-0.068283	-33.2302	-21.7579	26.2016
 116	1	4	0.330652	-37.4742	-20.2927	24.5469
 117	1	1	0.4882	-7.74577	-19.9098	16.3442
 118	1	2	0.025477	-8.43292	-20.9956	15.8039
 119	1	3	-0.008635	-9.85805	-20.7261	16.1299
 120	1	2	0.050267	-8.5559	-18.9692	16.9669
 121	1	3	0.063619	-9.92557	-19.5285	16.8205
 122	1	5	-0.374081	-7.98646	-21.9826	15.2428
 123	1	5	-0.389097	-8.23095	-17.9566	17.5653
 124	1	3	-0.003634	-10.9922	-21.52	15.9085
 125	1	3	-0.04742	-11.1349	-19.0615	17.3326
 126	1	3	-0.200211	-12.2782	-19.8655	17.157
 127	1	3	-0.05806	-12.2386	-21.1029	16.4508
 128	1	6	0.16443	-10.8672	-22.4536	15.3703
 129	1	6	0.154232	-11.1737	-18.128	17.89
 130	1	6	0.179048	-13.2036	-19.5295	17.6166
 131	1	7	-0.076903	-13.5392	-21.9657	16.3916
 132	1	7	0.238473	-14.5789	-21.1742	15.5033
 133	1	8	-0.092232	-15.0132	-20.0469	16.1055
 134	1	8	-0.075474	-15.6849	-21.8888	15.1994
 135	1	8	-0.095932	-14.031	-20.788	14.3283
 136	1	7	0.340597	-13.343	-23.4071	15.777
 137	1	8	-0.110855	-13.0361	-23.3739	14.4606
 138	1	8	-0.104879	-14.4577	-24.1624	15.9061
 139	1	8	-0.10758	-12.3629	-24.105	16.3937
 140	1	3	-0.066666	-13.9915	-22.1641	17.866
 141	1	3	-0.06911	-15.3211	-21.9366	18.3141
 142	1	3	-0.048109	-15.5923	-22.0229	19.6862
 143	1	3	-0.057883	-13.0094	-22.544	18.8245
 144	1	3	-0.116273	-13.3065	-22.6446	20.1946
 145	1	3	-0.113036	-14.6109	-22.3577	20.5964
 146	1	2	0.502524	-15.1731	-22.2311	21.9609
 147	1	1	0.0355	-16.4711	-21.7774	21.7854
 148	1	2	0.450202	-16.825	-21.6715	20.4447
 149	1	3	-0.097429	-17.251	-21.317	22.8826
 150	1	3	-0.043121	-17.9919	-22.2297	23.6666
 151	1	3	-0.007101	-18.6427	-21.772	24.8392
 152	1	3	0.055122	-17.1739	-19.9574	23.2468
 153	1	3	-0.325582	-17.777	-19.5285	24.4351
 154	1	3	0.061609	-18.4863	-20.4239	25.2478
 155	1	7	0.04075	-18.0787	-23.6946	23.2165
 156	1	9	-0.311814	-19.4788	-22.6503	25.5311
 157	1	6	0.16104	-12.5393	-22.8907	20.9263
 158	1	6	0.14041	-11.9851	-22.7289	18.5124
 159	1	6	0.147774	-16.1259	-21.6486	17.6448
 160	1	5	-0.476838	-17.8669	-21.256	19.9679
 161	1	5	-0.479462	-14.5629	-22.3824	23.0058
 162	1	7	-0.144762	-16.4086	-18.9467	22.4001
 163	1	10	0.052647	-15.3375	-19.1809	22.3764
 164	1	10	0.065097	-16.516	-17.9268	22.7883
 165	1	10	0.048024	-16.7807	-18.9366	21.3678
 166	1	7	-0.169984	-19.047	-19.891	26.5606
 167	1	6	0.223059	-17.6828	-18.4892	24.732
 168	1	10	0.004219	-19.0956	-20.6692	27.3318
 169	1	10	0.100409	-20.0519	-19.476	26.4223
 170	1	10	0.163068	-18.4085	-19.096	26.9635
 171	1	10	0.042023	-17.0844	-24.1588	23.2144
 172	1	10	0.011973	-18.4813	-23.7644	22.198
 173	1	10	-0.068283	-18.7165	-24.3191	23.8533
 174	1	4	0.330652	-19.4828	-23.6011	25.194
 175	1	1	0.4882	9.32349	-17.8012	17.2904
 176	1	2	0.025477	8.707	-17.4127	16.1026
 177	1	3	-0.008635	7.29841	-17.1072	16.4874
 178	1	2	0.050267	8.4659	-17.8159	18.3864
 179	1	3	0.063619	7.15095	-17.3789	17.8348
 180	1	5	-0.374081	9.17914	-17.3761	14.9814
 181	1	5	-0.389097	8.70929	-18.1408	19.5372
 182	1	3	-0.003634	6.24029	-16.5931	15.7204
 183	1	3	-0.04742	5.91376	-17.2213	18.4669
 184	1	3	-0.200211	4.82955	-16.732	17.7045
 185	1	3	-0.05806	4.97082	-16.3775	16.334
 186	1	6	0.16443	6.44166	-16.3427	14.6843
 187	1	6	0.154232	5.80568	-17.4515	19.5245
 188	1	6	0.179048	3.87331	-16.5826	18.2015
 189	1	7	-0.076903	3.77548	-15.6642	15.6154
 190	1	7	0.238473	3.70993	-14.2068	16.2209
 191	1	8	-0.092232	4.93771	-13.6414	16.2838
 192	1	8	-0.075474	3.22854	-14.2037	17.4847
 193	1	8	-0.095932	2.93726	-13.3601	15.5035
 194	1	7	0.340597	3.9641	-15.5616	14.0496
 195	1	8	-0.110855	4.92739	-14.6831	13.6895
 196	1	8	-0.104879	2.82751	-15.1668	13.4299
 197	1	8	-0.10758	4.28765	-16.7546	13.4997
 198	1	3	-0.066666	2.45535	-16.4705	15.8265
 199	1	3	-0.06911	1.18647	-15.8533	16.0437
 200	1	3	-0.048109	0.0251225	-16.6465	16.0362
 201	1	3	-0.057883	2.49091	-17.8772	15.6288
 202	1	3	-0.116273	1.31579	-18.6517	15.6005
 203	1	3	-0.113036	0.0945464	-18.0016	15.7948
 204	1	2	0.502524	-1.28627	-18.5241	15.6553
 205	1	1	0.0355	-2.13421	-17.4325	15.8119
 206	1	2	0.450202	-1.42232	-16.267	16.1028
 207	1	3	-0.097429	-3.52822	-17.54	15.4842
 208	1	3	-0.043121	-4.37961	-18.4128	16.2158
 209	1	3	-0.007101	-5.60554	-18.8577	15.6472
 210	1	3	0.055122	-3.9802	-16.9956	14.2611
 211	1	3	-0.325582	-5.20363	-17.4153	13.7274
 212	1	3	0.061609	-5.98748	-18.3839	14.3651
 213	1	7	0.04075	-3.98796	-18.8749	17.6293
 214	1	9	-0.311814	-6.33988	-19.825	16.3487
 215	1	6	0.16104	1.34595	-19.7165	15.3778
 216	1	6	0.14041	3.43719	-18.371	15.425
 217	1	6	0.147774	1.07203	-14.7791	16.151
 218	1	5	-0.476838	-1.859	-15.148	16.3117
 219	1	5	-0.479462	-1.58178	-19.6706	15.3622
 220	1	7	-0.144762	-3.14758	-16.0186	13.4394
 221	1	10	0.052647	-2.97869	-15.0867	13.9919
 222	1	10	0.065097	-3.65266	-15.7387	12.5071
 223	1	10	0.048024	-2.17441	-16.4452	13.1699
 224	1	7	-0.169984	-7.17797	-18.9236	13.5786
 225	1	6	0.223059	-5.51301	-17.0377	12.7579
 226	1	10	0.004219	-7.16573	-18.5808	12.5366
 227	1	10	0.100409	-8.13116	-18.5982	14.0095
 228	1	10	0.163068	-7.15281	-20.0207	13.5402
 229	1	10	0.042023	-4.51664	-18.2708	18.3782
 230	1	10	0.011973	-2.9189	-18.7772	17.8442
 231	1	10	-0.068283	-4.2466	-19.9253	17.8141
 232	1	4	0.330652	-5.9944	-20.1115	17.2532
 233	1	1	0.4882	19.0243	-20.0326	4.75195
 234	1	2	0.025477	18.8753	-19.2618	5.89845
 235	1	3	-0.008635	18.5379	-20.2507	6.9536
 236	1	2	0.050267	18.6891	-21.3771	4.90838
 237	1	3	0.063619	18.4475	-21.4992	6.36761
 238	1	5	-0.374081	19.1706	-18.0877	6.05429
 239	1	5	-0.389097	18.724	-22.2896	4.09668
 240	1	3	-0.003634	18.5049	-20.0851	8.34257
 241	1	3	-0.04742	18.3313	-22.6483	7.14558
 242	1	3	-0.200211	18.3263	-22.5054	8.54748
 243	1	3	-0.05806	18.4336	-21.23	9.18362
 244	1	6	0.16443	18.5922	-19.0807	8.74236
 245	1	6	0.154232	18.3209	-23.6286	6.674
 246	1	6	0.179048	18.2866	-23.428	9.11367
 247	1	7	-0.076903	18.5463	-21.052	10.74
 248	1	7	0.238473	18.5699	-22.4362	11.503
 249	1	8	-0.092232	17.4276	-23.1323	11.2995
 250	1	8	-0.075474	18.6606	-22.3104	12.8459
 251	1	8	-0.095932	19.6134	-23.2116	11.1283
 252	1	7	0.340597	19.9042	-20.282	11.0242
 253	1	8	-0.110855	19.8046	-18.9602	10.7603
 254	1	8	-0.104879	20.9124	-20.7613	10.2598
 255	1	8	-0.10758	20.3389	-20.3582	12.3009
 256	1	3	-0.066666	17.3121	-20.2717	11.2834
 257	1	3	-0.06911	17.3161	-19.7278	12.5982
 258	1	3	-0.048109	16.1432	-19.153	13.1057
 259	1	3	-0.057883	16.1047	-20.1961	10.5288
 260	1	3	-0.116273	14.9432	-19.5881	11.0461
 261	1	3	-0.113036	14.9953	-19.0807	12.3462
 262	1	2	0.502524	13.9326	-18.4603	13.1723
 263	1	1	0.0355	14.5077	-18.2	14.4058
 264	1	2	0.450202	15.8434	-18.5893	14.455
 265	1	3	-0.097429	13.7609	-17.5698	15.4486
 266	1	3	-0.043121	12.7072	-18.2717	16.0874
 267	1	3	-0.007101	11.7626	-17.5731	16.8847
 268	1	3	0.055122	13.9375	-16.193	15.689
 269	1	3	-0.325582	13.0671	-15.5329	16.5677
 270	1	3	0.061609	11.9766	-16.1974	17.1541
 271	1	7	0.04075	12.5642	-19.785	15.8799
 272	1	9	-0.311814	10.6515	-18.286	17.3682
 273	1	6	0.16104	14.0158	-19.5506	10.4742
 274	1	6	0.14041	16.0368	-20.6397	9.54016
 275	1	6	0.147774	18.1844	-19.7905	13.2469
 276	1	5	-0.476838	16.6276	-18.4843	15.3826
 277	1	5	-0.479462	12.8052	-18.1837	12.8084
 278	1	7	-0.144762	15.0327	-15.3961	14.9885
 279	1	10	0.052647	14.9894	-14.3304	15.2431
 280	1	10	0.065097	14.9422	-15.4733	13.8982
 281	1	10	0.048024	16.0281	-15.7589	15.2741
 282	1	7	-0.169984	11.0861	-15.3956	18.0946
 283	1	6	0.223059	13.2206	-14.4773	16.7696
 284	1	10	0.004219	11.515	-14.4103	18.3164
 285	1	10	0.100409	10.9588	-15.9163	19.0524
 286	1	10	0.163068	10.0985	-15.2194	17.6561
 287	1	10	0.042023	11.8119	-20.0091	15.1139
 288	1	10	0.011973	12.2702	-20.2907	16.8085
 289	1	10	-0.068283	13.5061	-20.2568	15.5739
 290	1	4	0.330652	10.6147	-19.2645	17.1284
 291	1	1	0.4882	27.6928	-17.0163	10.7964
 292	1	2	0.025477	26.8659	-17.9016	10.1163
 293	1	3	-0.008635	27.4822	-19.2266	10.3631
 294	1	2	0.050267	28.7787	-17.6128	11.4326
 295	1	3	0.063619	28.6128	-19.0626	11.1404
 296	1	5	-0.374081	25.9032	-17.6628	9.40618
 297	1	5	-0.389097	29.6937	-17.0846	12.0426
 298	1	3	-0.003634	27.0902	-20.4788	9.89346
 299	1	3	-0.04742	29.4009	-20.1595	11.5032
 300	1	3	-0.200211	29.0294	-21.4366	11.0245
 301	1	3	-0.05806	27.8898	-21.6138	10.1889
 302	1	6	0.16443	26.1932	-20.5486	9.28284
 303	1	6	0.154232	30.2829	-20.0192	12.1245
 304	1	6	0.179048	29.6498	-22.2821	11.306
 305	1	7	-0.076903	27.4756	-22.9865	9.58549
 306	1	7	0.238473	28.6613	-24.0259	9.47529
 307	1	8	-0.092232	29.0349	-24.5512	10.6637
 308	1	8	-0.075474	29.7745	-23.4838	8.93286
 309	1	8	-0.095932	28.3233	-25.0698	8.68512
 310	1	7	0.340597	26.3596	-23.5686	10.5368
 311	1	8	-0.110855	25.2607	-22.7803	10.5728
 312	1	8	-0.104879	26.7843	-23.65	11.8187
 313	1	8	-0.10758	25.959	-24.8082	10.1749
 314	1	3	-0.066666	26.9844	-22.6907	8.13345
 315	1	3	-0.06911	25.68	-23.0132	7.66811
 316	1	3	-0.048109	25.2666	-22.523	6.42161
 317	1	3	-0.057883	27.8385	-21.943	7.27186
 318	1	3	-0.116273	27.4109	-21.4786	6.01414
 319	1	3	-0.113036	26.1032	-21.7706	5.62351
 320	1	2	0.502524	25.335	-21.3101	4.43881
 321	1	1	0.0355	24.0503	-21.806	4.61381
 322	1	2	0.450202	23.9283	-22.5685	5.7713
 323	1	3	-0.097429	22.9648	-21.5021	3.73962
 324	1	3	-0.043121	21.9784	-20.5591	4.1228
 325	1	3	-0.007101	20.8636	-20.3286	3.27385
 326	1	3	0.055122	22.8757	-22.1599	2.49553
 327	1	3	-0.325582	21.7999	-21.8803	1.64265
 328	1	3	0.061609	20.792	-20.9829	2.02415
 329	1	7	0.04075	22.1089	-19.8238	5.46154
 330	1	9	-0.311814	19.7846	-19.5307	3.67707
 331	1	6	0.16104	28.0549	-20.8647	5.38719
 332	1	6	0.14041	28.8314	-21.6556	7.60605
 333	1	6	0.147774	24.9635	-23.5711	8.26254
 334	1	5	-0.476838	22.9233	-23.0856	6.22937
 335	1	5	-0.479462	25.7499	-20.5829	3.55249
 336	1	7	-0.144762	23.9211	-23.178	2.05541
 337	1	10	0.052647	24.8924	-22.6964	1.88738
 338	1	10	0.065097	23.6377	-23.6735	1.11919
 339	1	10	0.048024	24.0538	-23.9627	2.81059
 340	1	7	-0.169984	19.6126	-20.7623	1.0858
 341	1	6	0.223059	21.7318	-22.3932	0.689537
 342	1	10	0.004219	19.3998	-19.694	0.953505
 343	1	10	0.100409	18.7115	-21.2446	1.48401
 344	1	10	0.163068	19.8026	-21.1821	0.0920558
 345	1	10	0.042023	23.1537	-19.646	5.74168
 346	1	10	0.011973	21.6388	-20.3967	6.27118
 347	1	10	-0.068283	21.6412	-18.8344	5.42397
 348	1	4	0.330652	20.0842	-18.6427	4.06432
 349	1	1	0.4882	34.7908	-2.73345	12.0251
 350	1	2	0.025477	34.206	-2.91005	13.2798
 351	1	3	-0.008635	32.9109	-3.58038	12.9869
 352	1	2	0.050267	34.0128	-3.19461	10.9654
 353	1	3	0.063619	32.8117	-3.76477	11.621
 354	1	5	-0.374081	34.7082	-2.77184	14.3837
 355	1	5	-0.389097	34.3125	-3.32124	9.79005
 356	1	3	-0.003634	31.9604	-4.10613	13.8707
 357	1	3	-0.04742	31.7791	-4.5197	11.0649
 358	1	3	-0.200211	30.8351	-5.08974	11.9404
 359	1	3	-0.05806	30.8956	-4.89043	13.3484
 360	1	6	0.16443	32.0977	-3.92952	14.9317
 361	1	6	0.154232	31.7416	-4.69652	9.99216
 362	1	6	0.179048	30.0579	-5.71806	11.5122
 363	1	7	-0.076903	29.8261	-5.58824	14.2385
 364	1	7	0.238473	30.1071	-5.48241	15.7919
 365	1	8	-0.092232	29.2593	-6.25838	16.5052
 366	1	8	-0.075474	29.9791	-4.22238	16.2649
 367	1	8	-0.095932	31.3466	-5.90285	16.132
 368	1	7	0.340597	28.4397	-4.88785	13.9324
 369	1	8	-0.110855	28.5359	-3.54266	14.036
 370	1	8	-0.104879	27.4496	-5.2703	14.7702
 371	1	8	-0.10758	27.9931	-5.13119	12.6798
 372	1	3	-0.066666	29.869	-7.10454	13.8913
 373	1	3	-0.06911	28.7054	-7.8749	13.6292
 374	1	3	-0.048109	28.8423	-9.2526	13.4153
 375	1	3	-0.057883	31.1288	-7.76913	13.9008
 376	1	3	-0.116273	31.2406	-9.16076	13.7165
 377	1	3	-0.113036	30.0675	-9.88237	13.4861
 378	1	2	0.502524	29.8507	-11.3458	13.341
 379	1	1	0.0355	28.4799	-11.5037	13.1788
 380	1	2	0.450202	27.8038	-10.2888	13.1777
 381	1	3	-0.097429	27.8334	-12.7727	13.0987
 382	1	3	-0.043121	27.9343	-13.5752	11.9346
 383	1	3	-0.007101	27.3067	-14.8471	11.8959
 384	1	3	0.055122	27.1038	-13.2337	14.2139
 385	1	3	-0.325582	26.4419	-14.4646	14.1437
 386	1	3	0.061609	26.5212	-15.2714	13.0005
 387	1	7	0.04075	28.7216	-13.091	10.7076
 388	1	9	-0.311814	27.4926	-15.624	10.7449
 389	1	6	0.16104	32.2026	-9.66613	13.7758
 390	1	6	0.14041	32.0376	-7.20587	14.0943
 391	1	6	0.147774	27.7075	-7.44832	13.6193
 392	1	5	-0.476838	26.6076	-10.0898	13.048
 393	1	5	-0.479462	30.7076	-12.2102	13.4141
 394	1	7	-0.144762	27.0159	-12.4298	15.507
 395	1	10	0.052647	28.0147	-12.1672	15.8774
 396	1	10	0.065097	26.5137	-12.9929	16.3026
 397	1	10	0.048024	26.4495	-11.5021	15.3614
 398	1	7	-0.169984	25.7231	-16.57	13.0244
 399	1	6	0.223059	25.8562	-14.7957	14.9951
 400	1	10	0.004219	25.2479	-16.7742	12.0583
 401	1	10	0.100409	24.9132	-16.526	13.7623
 402	1	10	0.163068	26.3621	-17.4184	13.295
 403	1	10	0.042023	28.0855	-13.093	9.81339
 404	1	10	0.011973	29.5796	-13.7467	10.5115
 405	1	10	-0.068283	29.1109	-12.0715	10.8012
 406	1	4	0.330652	28.1067	-15.2574	10.0354
 407	1	1	0.4882	42.9365	1.16033	-2.02829
 408	1	2	0.025477	41.6119	0.737041	-2.07314
 409	1	3	-0.008635	41.1092	0.981628	-0.694218
 410	1	2	0.050267	43.3359	1.6782	-0.801558
 411	1	3	0.063619	42.1227	1.5631	0.0468496
 412	1	5	-0.374081	40.9781	0.304107	-3.02092
 413	1	5	-0.389097	44.4235	2.12761	-0.477146
 414	1	3	-0.003634	39.8531	0.713188	-0.137594
 415	1	3	-0.04742	41.9129	1.96874	1.36545
 416	1	3	-0.200211	40.6444	1.73453	1.93306
 417	1	3	-0.05806	39.6113	1.06105	1.2198
 418	1	6	0.16443	39.1033	0.24756	-0.767348
 419	1	6	0.154232	42.7071	2.45797	1.92522
 420	1	6	0.179048	40.4701	2.06798	2.95399
 421	1	7	-0.076903	38.2471	0.790714	1.92782
 422	1	7	0.238473	37.4431	-0.406339	1.29191
 423	1	8	-0.092232	36.9158	-0.116635	0.0812717
 424	1	8	-0.075474	36.406	-0.784234	2.07429
 425	1	8	-0.095932	38.2258	-1.499	1.14275
 426	1	7	0.340597	37.4201	2.12645	1.78848
 427	1	8	-0.110855	37.9297	3.10486	2.57112
 428	1	8	-0.104879	36.1144	1.98975	2.11178
 429	1	8	-0.10758	37.4466	2.6006	0.521466
 430	1	3	-0.066666	38.5136	0.384523	3.41133
 431	1	3	-0.06911	37.6541	0.773401	4.47359
 432	1	3	-0.048109	37.9709	0.384151	5.78077
 433	1	3	-0.057883	39.6228	-0.454038	3.72282
 434	1	3	-0.116273	39.9448	-0.803644	5.04989
 435	1	3	-0.113036	39.1036	-0.346569	6.06813
 436	1	2	0.502524	39.1595	-0.559035	7.5392
 437	1	1	0.0355	37.9927	0.00492784	8.04458
 438	1	2	0.450202	37.2318	0.610991	7.05005
 439	1	3	-0.097429	37.5856	-0.0467693	9.41438
 440	1	3	-0.043121	37.1322	-1.26437	9.98493
 441	1	3	-0.007101	36.5941	-1.26774	11.2987
 442	1	3	0.055122	37.5703	1.14051	10.1775
 443	1	3	-0.325582	37.0609	1.11692	11.482
 444	1	3	0.061609	36.5664	-0.0672673	12.0465
 445	1	7	0.04075	37.2069	-2.56047	9.16179
 446	1	9	-0.311814	36.1677	-2.47174	11.8641
 447	1	6	0.16104	40.8098	-1.4231	5.27894
 448	1	6	0.14041	40.2615	-0.825062	2.92525
 449	1	6	0.147774	36.752	1.35486	4.31553
 450	1	5	-0.476838	36.1656	1.19125	7.16483
 451	1	5	-0.479462	40.055	-1.11933	8.14856
 452	1	7	-0.144762	38.1028	2.45906	9.62823
 453	1	10	0.052647	38.2893	3.18382	10.4302
 454	1	10	0.065097	37.3859	2.91425	8.93396
 455	1	10	0.048024	39.0527	2.31803	9.09801
 456	1	7	-0.169984	36.057	-0.0171443	13.4803
 457	1	6	0.223059	37.0448	2.0353	12.0607
 458	1	10	0.004219	34.961	-0.0463653	13.5088
 459	1	10	0.100409	36.3757	0.897527	13.9936
 460	1	10	0.163068	36.4403	-0.860115	14.0686
 461	1	10	0.042023	38.2206	-2.74771	8.79539
 462	1	10	0.011973	36.5397	-2.50992	8.29219
 463	1	10	-0.068283	36.9432	-3.45996	9.72957
 464	1	4	0.330652	36.5278	-3.30087	11.4124
 465	1	1	0.4882	38.7945	2.56389	-14.5299
 466	1	2	0.025477	39.2208	1.25325	-14.7248
 467	1	3	-0.008635	40.5648	1.21065	-14.0905
 468	1	2	0.050267	39.7047	3.3707	-13.8554
 469	1	3	0.063619	40.8428	2.45893	-13.5626
 470	1	5	-0.374081	38.6632	0.347839	-15.3236
 471	1	5	-0.389097	39.6531	4.5727	-13.6512
 472	1	3	-0.003634	41.4997	0.169667	-14.0516
 473	1	3	-0.04742	42.0604	2.71926	-12.9302
 474	1	3	-0.200211	43.0104	1.67801	-12.8675
 475	1	3	-0.05806	42.7607	0.397157	-13.4364
 476	1	6	0.16443	41.2392	-0.76823	-14.5291
 477	1	6	0.154232	42.2692	3.70798	-12.5274
 478	1	6	0.179048	43.9722	1.88502	-12.4024
 479	1	7	-0.076903	43.9154	-0.648342	-13.4683
 480	1	7	0.238473	43.4318	-2.1177	-13.7773
 481	1	8	-0.092232	42.4037	-2.4862	-12.98
 482	1	8	-0.075474	44.4161	-3.0211	-13.5639
 483	1	8	-0.095932	43.0291	-2.28841	-15.0569
 484	1	7	0.340597	44.8903	-0.168347	-14.6158
 485	1	8	-0.110855	44.2155	0.131035	-15.7498
 486	1	8	-0.104879	45.8155	-1.09327	-14.9583
 487	1	8	-0.10758	45.5618	0.954529	-14.2718
 488	1	3	-0.066666	44.5833	-0.704463	-12.0626
 489	1	3	-0.06911	43.7566	-0.746286	-10.909
 490	1	3	-0.048109	44.3514	-0.852137	-9.64501
 491	1	3	-0.057883	45.9946	-0.792459	-11.8839
 492	1	3	-0.116273	46.5738	-0.88549	-10.6028
 493	1	3	-0.113036	45.721	-0.910273	-9.49619
 494	1	2	0.502524	46.0291	-1.01352	-8.04628
 495	1	1	0.0355	44.7986	-1.02198	-7.40054
 496	1	2	0.450202	43.7353	-0.932615	-8.29205
 497	1	3	-0.097429	44.6554	-1.08847	-5.98109
 498	1	3	-0.043121	44.2828	0.0603717	-5.23893
 499	1	3	-0.007101	44.1727	-0.0121327	-3.82519
 500	1	3	0.055122	44.9157	-2.30499	-5.31772
 501	1	3	-0.325582	44.8353	-2.35802	-3.92113
 502	1	3	0.061609	44.4855	-1.2297	-3.16503
 503	1	7	0.04075	43.9815	1.3762	-5.97422
 504	1	9	-0.311814	43.7933	1.15216	-3.14453
 505	1	6	0.16104	47.6525	-0.95126	-10.4735
 506	1	6	0.14041	46.6693	-0.801745	-12.7322
 507	1	6	0.147774	42.6723	-0.711854	-10.9879
 508	1	5	-0.476838	42.5437	-0.894372	-8.03845
 509	1	5	-0.479462	47.1426	-1.0623	-7.55193
 510	1	7	-0.144762	45.3095	-3.56733	-6.07635
 511	1	10	0.052647	45.2701	-4.45519	-5.43353
 512	1	10	0.065097	46.3339	-3.48902	-6.46135
 513	1	10	0.048024	44.6373	-3.75234	-6.92323
 514	1	7	-0.169984	44.5143	-1.37878	-1.64781
 515	1	6	0.223059	45.0645	-3.29016	-3.4139
 516	1	10	0.004219	45.0139	-2.30632	-1.34131
 517	1	10	0.100409	43.501	-1.40931	-1.23113
 518	1	10	0.163068	45.0703	-0.554661	-1.18259
 519	1	10	0.042023	42.9312	1.40698	-6.29142
 520	1	10	0.011973	44.6041	1.50404	-6.86777
 521	1	10	-0.068283	44.1673	2.26365	-5.35645
 522	1	4	0.330652	43.582	1.96334	-3.70633
 523	1	1	0.4882	29.8957	15.4435	-11.2213
 524	1	2	0.025477	30.8692	14.4559	-11.0711
 525	1	3	-0.008635	31.5754	14.4374	-12.3796
 526	1	2	0.050267	29.9384	16.1055	-12.4435
 527	1	3	0.063619	31.03	15.4213	-13.184
 528	1	5	-0.374081	31.1266	13.7676	-10.0972
 529	1	5	-0.389097	29.2741	17.0569	-12.8224
 530	1	3	-0.003634	32.622	13.6198	-12.8256
 531	1	3	-0.04742	31.5156	15.6503	-14.4715
 532	1	3	-0.200211	32.5814	14.8499	-14.9327
 533	1	3	-0.05806	33.1499	13.8172	-14.1292
 534	1	6	0.16443	33.0221	12.8579	-12.1609
 535	1	6	0.154232	31.0834	16.4359	-15.088
 536	1	6	0.179048	32.9588	15.0651	-15.9266
 537	1	7	-0.076903	34.3674	12.9561	-14.5901
 538	1	7	0.238473	34.6799	13.0797	-16.1331
 539	1	8	-0.092232	33.5828	12.8497	-16.8909
 540	1	8	-0.075474	35.598	12.1707	-16.5349
 541	1	8	-0.095932	35.1665	14.2929	-16.4809
 542	1	7	0.340597	35.6111	13.4785	-13.767
 543	1	8	-0.110855	35.5469	13.1069	-12.4684
 544	1	8	-0.104879	35.676	14.83	-13.7725
 545	1	8	-0.10758	36.7987	13.0405	-14.2423
 546	1	3	-0.066666	34.0527	11.4488	-14.3513
 547	1	3	-0.06911	35.0437	10.5203	-13.9303
 548	1	3	-0.048109	34.726	9.15607	-13.8883
 549	1	3	-0.057883	32.767	10.9465	-14.6984
 550	1	3	-0.116273	32.4699	9.56829	-14.6569
 551	1	3	-0.113036	33.483	8.69	-14.259
 552	1	2	0.502524	33.5074	7.20308	-14.1972
 553	1	1	0.0355	34.7869	6.86104	-13.769
 554	1	2	0.450202	35.5785	7.98414	-13.5486
 555	1	3	-0.097429	35.2289	5.51132	-13.5843
 556	1	3	-0.043121	36.1891	4.93226	-14.4552
 557	1	3	-0.007101	36.6118	3.59247	-14.2525
 558	1	3	0.055122	34.6924	4.74649	-12.5253
 559	1	3	-0.325582	35.0751	3.40717	-12.374
 560	1	3	0.061609	36.0168	2.81788	-13.2279
 561	1	7	0.04075	36.7957	5.76253	-15.5954
 562	1	9	-0.311814	37.6008	3.06343	-15.0877
 563	1	6	0.16104	31.4948	9.19061	-14.9587
 564	1	6	0.14041	31.9981	11.6278	-15.0538
 565	1	6	0.147774	36.0572	10.8176	-13.6818
 566	1	5	-0.476838	36.7375	8.02753	-13.1749
 567	1	5	-0.479462	32.5889	6.46073	-14.5008
 568	1	7	-0.144762	33.6907	5.32732	-11.534
 569	1	10	0.052647	32.685	5.367	-11.9702
 570	1	10	0.065097	33.9718	6.34071	-11.2229
 571	1	10	0.048024	33.6306	4.71999	-10.6225
 572	1	7	-0.169984	36.3297	1.33928	-13.028
 573	1	6	0.223059	34.6311	2.81384	-11.5804
 574	1	10	0.004219	35.5647	0.843569	-12.4173
 575	1	10	0.100409	37.2917	1.20008	-12.5217
 576	1	10	0.163068	36.3619	0.807989	-13.9882
 577	1	10	0.042023	37.6686	6.3254	-15.2402
 578	1	10	0.011973	36.0785	6.48053	-16.0106
 579	1	10	-0.068283	37.122	5.14325	-16.4409
 580	1	4	0.330652	37.8735	3.64202	-15.8691
 581	1	1	0.4882	14.7991	19.9327	-11.1649
 582	1	2	0.025477	16.0068	19.4294	-11.6445
 583	1	3	-0.008635	16.9245	20.6002	-11.6123
 584	1	2	0.050267	14.8146	21.2974	-10.8959
 585	1	3	0.063619	16.2152	21.7016	-11.1698
 586	1	5	-0.374081	16.2813	18.2935	-11.9965
 587	1	5	-0.389097	13.8999	22.0223	-10.5413
 588	1	3	-0.003634	18.2854	20.6873	-11.9286
 589	1	3	-0.04742	16.8263	22.9467	-11.0229
 590	1	3	-0.200211	18.1942	23.0569	-11.3447
 591	1	3	-0.05806	18.9504	21.9357	-11.7955
 592	1	6	0.16443	18.8088	19.7988	-12.2733
 593	1	6	0.154232	16.2523	23.8011	-10.6702
 594	1	6	0.179048	18.6454	24.0374	-11.2388
 595	1	7	-0.076903	20.4531	22.0346	-12.1971
 596	1	7	0.238473	21.1603	23.3564	-11.7012
 597	1	8	-0.092232	20.7342	24.4646	-12.349
 598	1	8	-0.075474	22.5005	23.3021	-11.8781
 599	1	8	-0.095932	20.9709	23.5661	-10.3781
 600	1	7	0.340597	20.4869	21.9896	-13.7755
 601	1	8	-0.110855	20.1591	20.7671	-14.2517
 602	1	8	-0.104879	21.6923	22.3071	-14.2989
 603	1	8	-0.10758	19.597	22.8552	-14.3139
 604	1	3	-0.066666	21.2256	20.8654	-11.5181
 605	1	3	-0.06911	22.2511	20.1349	-12.178
 606	1	3	-0.048109	22.9613	19.1623	-11.4612
 607	1	3	-0.057883	20.9648	20.5733	-10.1492
 608	1	3	-0.116273	21.6906	19.5911	-9.44604
 609	1	3	-0.113036	22.6946	18.9029	-10.1331
 610	1	2	0.502524	23.6231	17.8377	-9.67134
 611	1	1	0.0355	24.3955	17.5066	-10.7777
 612	1	2	0.450202	24.0654	18.2625	-11.8967
 613	1	3	-0.097429	25.334	16.4311	-10.78
 614	1	3	-0.043121	26.6999	16.6476	-10.4687
 615	1	3	-0.007101	27.6029	15.5512	-10.4632
 616	1	3	0.055122	24.8703	15.1337	-11.0756
 617	1	3	-0.325582	25.7584	14.0536	-11.0203
 618	1	3	0.061609	27.11	14.2436	-10.7017
 619	1	7	0.04075	27.1863	18.0722	-10.1717
 620	1	9	-0.311814	28.9626	15.7814	-10.2189
 621	1	6	0.16104	21.491	19.3814	-8.39687
 622	1	6	0.14041	20.2033	21.1328	-9.61145
 623	1	6	0.147774	22.5242	20.3122	-13.2132
 624	1	5	-0.476838	24.5246	18.1797	-13.0224
 625	1	5	-0.479462	23.6548	17.3456	-8.55633
 626	1	7	-0.144762	23.4152	14.8713	-11.4456
 627	1	10	0.052647	22.7317	15.2498	-10.6759
 628	1	10	0.065097	23.2113	13.8	-11.5606
 629	1	10	0.048024	23.1628	15.3565	-12.397
 630	1	7	-0.169984	27.9833	13.0016	-10.5871
 631	1	6	0.223059	25.3852	13.0547	-11.2201
 632	1	10	0.004219	28.6382	13.0586	-9.70994
 633	1	10	0.100409	28.6025	12.8639	-11.4806
 634	1	10	0.163068	27.3812	12.0951	-10.4619
 635	1	10	0.042023	26.4866	18.6076	-9.51813
 636	1	10	0.011973	27.2841	18.649	-11.0999