pySIMM System Object

2090 atoms
2269 bonds
3996 angles
5900 dihedrals
576 impropers

10 atom types
14 bond types
24 angle types
9 dihedral types
4 improper types

-202.753346 202.753346 xlo xhi
-202.753346 202.753346 ylo yhi
-202.753346 202.753346 zlo zhi

Masses

   1	14.01	# n
   2	12.01	# c
   3	12.01	# ca
   4	1.008	# hn
   5	16.0	# o
   6	1.008	# ha
   7	12.01	# c3
   8	19.0	# f
   9	14.01	# nh
  10	1.008	# hc

Pair Coeffs

   1	0.17	3.249998523775958	# n
   2	0.086	3.3996695084235347	# c
   3	0.086	3.3996695084235347	# ca
   4	0.0157	1.069078461768407	# hn
   5	0.21	2.959921901149463	# o
   6	0.015	2.59964245953351	# ha
   7	0.1094	3.3996695084235347	# c3
   8	0.061	3.1181455134911875	# f
   9	0.17	3.249998523775958	# nh
  10	0.0157	2.649532787749369	# hc

Bond Coeffs

   1	345.9	1.4906	# c,ca
   2	345.8	1.086	# ca,ha
   3	637.7	1.2183	# c,o
   4	321.0	1.5156	# c3,ca
   5	300.9	1.5375	# c3,c3
   6	384.2	1.4121	# ca,n
   7	330.6	1.0969	# c3,hc
   8	404.6	1.0121	# hn,nh
   9	403.2	1.0129	# hn,n
  10	356.9	1.3497	# c3,f
  11	417.9	1.3859	# ca,nh
  12	427.6	1.3789	# c,n
  13	461.1	1.3984	# ca,ca
  14	452.5	1.4016	# n,nh

Angle Coeffs

   1	74.22	123.05	# n,c,o
   2	40.07	115.12	# hn,nh,hn
   3	68.29	120.95	# ca,ca,nh
   4	66.62	120.02	# ca,ca,ca
   5	48.42	116.07	# ca,nh,hn
   6	68.72	122.6	# ca,c,o
   7	48.33	117.55	# c,n,hn
   8	64.28	120.33	# c,ca,ca
   9	67.68	115.25	# ca,c,n
  10	39.4	107.58	# hc,c3,hc
  11	63.53	120.77	# c3,ca,ca
  12	67.87	120.19	# ca,ca,n
  13	70.89	107.36	# f,c3,f
  14	66.11	109.24	# c3,c3,f
  15	46.8	110.47	# ca,c3,hc
  16	62.86	111.51	# c3,c3,c3
  17	63.15	112.07	# c3,c3,ca
  18	63.82	123.71	# c,n,ca
  19	63.56	112.24	# ca,c3,ca
  20	63.74	127.08	# c,n,c
  21	48.18	119.88	# ca,ca,ha
  22	67.01	118.71	# c,n,nh
  23	67.61	116.03	# ca,nh,n
  24	50.88	108.17	# hn,nh,n

Dihedral Coeffs

   1	2	2.5	2	180	2.0	1	0	# hn,n,c,o
   2	1	3.625	2	180	# X,ca,ca,X
   3	1	0.15555555555555556	3	0	# X,c3,c3,X
   4	1	1.0	2	180	# X,c,ca,X
   5	1	0.0	2	0	# X,c3,ca,X
   6	1	2.5	2	180	# X,c,n,X
   7	1	0.45	2	180	# X,ca,n,X
   8	1	1.05	2	180	# X,ca,nh,X
   9	1	1.1	2	0	# X,n,nh,X

Improper Coeffs

   1	10.5	-1	2	# c,X,X,o
   2	1.1	-1	2	# ca,X,X,ha
   3	1.1	-1	2	# ca,ca,ca,c3
   4	1.1	-1	2	# n,X,X,hn

Atoms

   1	1	1	0.4882	-9.98555	52.5736	18.619
   2	1	2	0.025477	-9.82473	53.8083	19.2446
   3	1	3	-0.008635	-10.0706	54.7967	18.1611
   4	1	2	0.050267	-10.1987	52.6508	17.2461
   5	1	3	0.063619	-10.2853	54.108	16.9805
   6	1	5	-0.374081	-9.56014	54.0535	20.4102
   7	1	5	-0.389097	-10.2951	51.7483	16.4292
   8	1	3	-0.003634	-10.1683	56.1922	18.2276
   9	1	3	-0.04742	-10.5886	54.778	15.7957
  10	1	3	-0.200211	-10.6963	56.1814	15.8428
  11	1	3	-0.05806	-10.5137	56.9119	17.0513
  12	1	6	0.16443	-10.0076	56.6734	19.1864
  13	1	6	0.154232	-10.7629	54.2224	14.8772
  14	1	6	0.179048	-10.9524	56.7061	14.9251
  15	1	7	-0.076903	-10.7132	58.4562	17.0205
  16	1	7	0.238473	-10.9043	59.1027	18.4485
  17	1	8	-0.092232	-11.3069	60.3907	18.3586
  18	1	8	-0.075474	-9.77343	59.1033	19.1901
  19	1	8	-0.095932	-11.8503	58.4657	19.1751
  20	1	7	0.340597	-9.41782	59.0587	16.3486
  21	1	8	-0.110855	-8.29301	58.6025	16.946
  22	1	8	-0.104879	-9.36674	60.4087	16.4059
  23	1	8	-0.10758	-9.3114	58.7123	15.0456
  24	1	3	-0.066666	-12.0275	58.7347	16.2279
  25	1	3	-0.06911	-12.1235	59.6981	15.1867
  26	1	3	-0.048109	-13.3393	59.8379	14.5015
  27	1	3	-0.057883	-13.19	57.9783	16.5524
  28	1	3	-0.116273	-14.4054	58.1419	15.8601
  29	1	3	-0.113036	-14.4466	59.0817	14.8273
  30	1	2	0.502524	-15.5502	59.4431	13.8994
  31	1	1	0.0355	-15.02	60.3976	13.043
  32	1	2	0.450202	-13.6992	60.7073	13.3464
  33	1	3	-0.097429	-15.7546	60.9643	11.9595
  34	1	3	-0.043121	-15.7909	60.3092	10.7043
  35	1	3	-0.007101	-16.5884	60.8437	9.66307
  36	1	3	0.055122	-16.4899	62.1504	12.1642
  37	1	3	-0.325582	-17.2718	62.6686	11.1223
  38	1	3	0.061609	-17.3335	62.023	9.87938
  39	1	7	0.04075	-14.9897	59.0166	10.5044
  40	1	9	-0.311814	-16.6582	60.2075	8.42762
  41	1	6	0.16104	-15.282	57.5459	16.1078
  42	1	6	0.14041	-13.1492	57.2348	17.3448
  43	1	6	0.147774	-11.287	60.3205	14.8857
  44	1	5	-0.476838	-12.9607	61.4894	12.7728
  45	1	5	-0.479462	-16.6694	58.9598	13.8863
  46	1	7	-0.144762	-16.4703	62.8727	13.504
  47	1	10	0.052647	-15.4443	63.1217	13.802
  48	1	10	0.065097	-16.9156	62.2507	14.2902
  49	1	10	0.048024	-17.0353	63.812	13.4671
  50	1	7	-0.169984	-18.2167	62.6103	8.78615
  51	1	6	0.223059	-17.8475	63.5747	11.2832
  52	1	10	0.004219	-18.7379	63.5171	9.11831
  53	1	10	0.100409	-18.9777	61.8856	8.4718
  54	1	10	0.163068	-17.6169	62.8705	7.9062
  55	1	10	0.042023	-15.4356	58.1935	11.077
  56	1	10	0.011973	-13.9536	59.1377	10.8441
  57	1	10	-0.068283	-14.9359	58.6927	9.4575
  58	1	4	0.330652	-16.1035	59.3751	8.26814
  59	1	1	0.4882	-19.9161	46.5861	26.6559
  60	1	2	0.025477	-19.6925	47.8722	27.1386
  61	1	3	-0.008635	-19.7985	48.7327	25.9342
  62	1	2	0.050267	-20.2174	46.5213	25.3003
  63	1	3	0.063619	-20.1123	47.9347	24.8479
  64	1	5	-0.374081	-19.4298	48.2317	28.2749
  65	1	5	-0.389097	-20.5323	45.5504	24.631
  66	1	3	-0.003634	-19.5903	50.1102	25.8074
  67	1	3	-0.04742	-20.2539	48.4819	23.5719
  68	1	3	-0.200211	-20.0379	49.8672	23.4207
  69	1	3	-0.05806	-19.684	50.7019	24.5198
  70	1	6	0.16443	-19.3344	50.6723	26.6988
  71	1	6	0.154232	-20.4986	47.8461	22.7239
  72	1	6	0.179048	-20.1188	50.2922	22.4229
  73	1	7	-0.076903	-19.3807	52.2069	24.25
  74	1	7	0.238473	-20.7699	52.9056	23.9798
  75	1	8	-0.092232	-21.6707	52.595	24.9398
  76	1	8	-0.075474	-21.3171	52.514	22.8071
  77	1	8	-0.095932	-20.6981	54.2555	23.9478
  78	1	7	0.340597	-18.6548	52.9382	25.4461
  79	1	8	-0.110855	-19.4484	53.0972	26.5297
  80	1	8	-0.104879	-18.2277	54.1723	25.0934
  81	1	8	-0.10758	-17.552	52.2685	25.8521
  82	1	3	-0.066666	-18.3973	52.2659	23.0452
  83	1	3	-0.06911	-17.3287	51.3331	22.9972
  84	1	3	-0.048109	-16.4419	51.364	21.9182
  85	1	3	-0.057883	-18.4967	53.2314	22.0026
  86	1	3	-0.116273	-17.5846	53.2512	20.9258
  87	1	3	-0.113036	-16.5641	52.2941	20.9082
  88	1	2	0.502524	-15.4618	52.0635	19.9357
  89	1	1	0.0355	-14.7428	50.9847	20.4361
  90	1	2	0.450202	-15.2667	50.5031	21.6274
  91	1	3	-0.097429	-13.5704	50.4601	19.82
  92	1	3	-0.043121	-12.3272	51.115	19.9904
  93	1	3	-0.007101	-11.1804	50.6263	19.3134
  94	1	3	0.055122	-13.6621	49.2985	19.0274
  95	1	3	-0.325582	-12.5045	48.7762	18.4356
  96	1	3	0.061609	-11.2678	49.4232	18.5742
  97	1	7	0.04075	-12.2303	52.3298	20.9202
  98	1	9	-0.311814	-9.97816	51.3418	19.3068
  99	1	6	0.16104	-17.6654	53.9905	20.1314
 100	1	6	0.14041	-19.2774	53.9837	22.0113
 101	1	6	0.147774	-17.1845	50.5893	23.7775
 102	1	5	-0.476838	-14.8724	49.5663	22.3012
 103	1	5	-0.479462	-15.2491	52.7061	18.9209
 104	1	7	-0.144762	-14.9919	48.5891	18.8041
 105	1	10	0.052647	-15.7727	49.295	18.4946
 106	1	10	0.065097	-15.3267	48.0884	19.7213
 107	1	10	0.048024	-14.9183	47.8272	18.0185
 108	1	7	-0.169984	-10.0601	48.815	17.8688
 109	1	6	0.223059	-12.5767	47.8748	17.835
 110	1	10	0.004219	-9.11815	49.0313	18.3872
 111	1	10	0.100409	-9.98133	49.1893	16.8405
 112	1	10	0.163068	-10.1493	47.7235	17.8133
 113	1	10	0.042023	-11.26	52.3675	21.4293
 114	1	10	0.011973	-12.3698	53.2645	20.3639
 115	1	10	-0.068283	-12.9804	52.3089	21.7198
 116	1	4	0.330652	-9.16553	50.8458	18.9738
 117	1	1	0.4882	-21.1095	32.1407	35.6534
 118	1	2	0.025477	-22.0198	32.741	34.7842
 119	1	3	-0.008635	-21.1677	33.4153	33.7718
 120	1	2	0.050267	-19.7771	32.4174	35.3564
 121	1	3	0.063619	-19.8429	33.2444	34.1232
 122	1	5	-0.374081	-23.235	32.8154	34.8662
 123	1	5	-0.389097	-18.7778	32.1536	36.0044
 124	1	3	-0.003634	-21.5421	34.1258	32.627
 125	1	3	-0.04742	-18.8186	33.8224	33.3705
 126	1	3	-0.200211	-19.1766	34.5627	32.2238
 127	1	3	-0.05806	-20.5326	34.714	31.8161
 128	1	6	0.16443	-22.6001	34.1907	32.3998
 129	1	6	0.154232	-17.7794	33.6954	33.6663
 130	1	6	0.179048	-18.3819	35.0166	31.636
 131	1	7	-0.076903	-20.8398	35.4866	30.494
 132	1	7	0.238473	-20.2728	34.5954	29.3171
 133	1	8	-0.092232	-18.924	34.6514	29.2427
 134	1	8	-0.075474	-20.7385	34.9369	28.0949
 135	1	8	-0.095932	-20.5959	33.2927	29.4893
 136	1	7	0.340597	-22.3794	35.7404	30.2613
 137	1	8	-0.110855	-23.0721	34.5976	30.0527
 138	1	8	-0.104879	-22.6129	36.5344	29.1913
 139	1	8	-0.10758	-22.9425	36.3777	31.3136
 140	1	3	-0.066666	-20.1845	36.896	30.5631
 141	1	3	-0.06911	-19.7719	37.5885	29.3929
 142	1	3	-0.048109	-19.3077	38.905	29.5102
 143	1	3	-0.057883	-20.1103	37.5776	31.8114
 144	1	3	-0.116273	-19.6292	38.8978	31.9098
 145	1	3	-0.113036	-19.239	39.5407	30.7323
 146	1	2	0.502524	-18.7915	40.9387	30.5061
 147	1	1	0.0355	-18.6358	41.064	29.1322
 148	1	2	0.450202	-18.9055	39.8789	28.4581
 149	1	3	-0.097429	-18.2765	42.291	28.4994
 150	1	3	-0.043121	-19.2694	43.2492	28.1818
 151	1	3	-0.007101	-18.8978	44.5197	27.6627
 152	1	3	0.055122	-16.9183	42.572	28.2678
 153	1	3	-0.325582	-16.5581	43.8086	27.722
 154	1	3	0.061609	-17.519	44.789	27.4243
 155	1	7	0.04075	-20.7412	42.8946	28.4497
 156	1	9	-0.311814	-19.9287	45.459	27.4964
 157	1	6	0.16104	-19.5979	39.4201	32.8641
 158	1	6	0.14041	-20.4617	37.0965	32.7201
 159	1	6	0.147774	-19.8487	37.153	28.4018
 160	1	5	-0.476838	-18.8708	39.6717	27.2575
 161	1	5	-0.479462	-18.6556	41.7968	31.3614
 162	1	7	-0.144762	-15.8256	41.5757	28.6353
 163	1	10	0.052647	-15.769	41.4432	29.7231
 164	1	10	0.065097	-14.8387	41.9098	28.2933
 165	1	10	0.048024	-16.0119	40.5952	28.1801
 166	1	7	-0.169984	-16.9789	46.1185	26.9062
 167	1	6	0.223059	-15.5062	44.0188	27.5577
 168	1	10	0.004219	-17.4062	46.3815	25.9319
 169	1	10	0.100409	-15.8923	46.0892	26.7639
 170	1	10	0.163068	-17.1773	46.9257	27.6217
 171	1	10	0.042023	-20.9511	42.8995	29.5266
 172	1	10	0.011973	-20.981	41.8945	28.0676
 173	1	10	-0.068283	-21.4573	43.5753	27.9737
 174	1	4	0.330652	-20.8815	45.1556	27.6334
 175	1	1	0.4882	-10.5192	21.6666	43.4784
 176	1	2	0.025477	-11.4703	20.9843	42.7272
 177	1	3	-0.008635	-12.2402	22.0585	42.0446
 178	1	2	0.050267	-10.6313	23.0549	43.4114
 179	1	3	0.063619	-11.7392	23.2833	42.4444
 180	1	5	-0.374081	-11.6768	19.7839	42.6696
 181	1	5	-0.389097	-9.99011	23.9094	44.002
 182	1	3	-0.003634	-13.2677	21.9571	41.1002
 183	1	3	-0.04742	-12.2399	24.4751	41.9122
 184	1	3	-0.200211	-13.2692	24.393	40.9492
 185	1	3	-0.05806	-13.8076	23.1439	40.5313
 186	1	6	0.16443	-13.5873	20.9647	40.8028
 187	1	6	0.154232	-11.8182	25.4318	42.2127
 188	1	6	0.179048	-13.6284	25.3148	40.4962
 189	1	7	-0.076903	-14.851	23.109	39.3742
 190	1	7	0.238473	-14.0089	23.16	38.041
 191	1	8	-0.092232	-12.9967	22.2623	38.0514
 192	1	8	-0.075474	-13.433	24.371	37.8637
 193	1	8	-0.095932	-14.7404	22.8891	36.9363
 194	1	7	0.340597	-15.7397	21.8026	39.3833
 195	1	8	-0.110855	-15.0812	20.6959	38.9717
 196	1	8	-0.104879	-16.8161	21.9226	38.5722
 197	1	8	-0.10758	-16.2217	21.538	40.6193
 198	1	3	-0.066666	-15.8555	24.296	39.5159
 199	1	3	-0.06911	-16.3015	25.0543	38.3992
 200	1	3	-0.048109	-17.3424	25.9747	38.5691
 201	1	3	-0.057883	-16.4714	24.5389	40.7763
 202	1	3	-0.116273	-17.5296	25.4618	40.9238
 203	1	3	-0.113036	-17.9603	26.1561	39.7877
 204	1	2	0.502524	-19.134	27.0515	39.5816
 205	1	1	0.0355	-19.1474	27.3464	38.2222
 206	1	2	0.450202	-18.0742	26.7728	37.5505
 207	1	3	-0.097429	-20.223	28.0071	37.5515
 208	1	3	-0.043121	-20.3538	29.4192	37.5793
 209	1	3	-0.007101	-21.3859	30.0469	36.8306
 210	1	3	0.055122	-21.1484	27.2239	36.8286
 211	1	3	-0.325582	-22.1894	27.8507	36.1367
 212	1	3	0.061609	-22.3225	29.2441	36.1332
 213	1	7	0.04075	-19.3619	30.2492	38.404
 214	1	9	-0.311814	-21.4891	31.4432	36.8205
 215	1	6	0.16104	-18.0358	25.5933	41.8783
 216	1	6	0.14041	-16.1659	23.9606	41.6447
 217	1	6	0.147774	-15.9161	24.9076	37.3962
 218	1	5	-0.476838	-17.824	26.8151	36.358
 219	1	5	-0.479462	-19.9597	27.3576	40.4248
 220	1	7	-0.144762	-21.069	25.7012	36.795
 221	1	10	0.052647	-21.9413	25.2602	36.2972
 222	1	10	0.065097	-21.0299	25.2828	37.8082
 223	1	10	0.048024	-20.181	25.3625	36.2477
 224	1	7	-0.169984	-23.5268	29.8205	35.4035
 225	1	6	0.223059	-22.9102	27.2451	35.5956
 226	1	10	0.004219	-24.3119	29.0674	35.26
 227	1	10	0.100409	-23.2465	30.192	34.4112
 228	1	10	0.163068	-23.9801	30.6433	35.9696
 229	1	10	0.042023	-18.3875	30.3017	37.9027
 230	1	10	0.011973	-19.2007	29.8146	39.3968
 231	1	10	-0.068283	-19.7047	31.2763	38.5813
 232	1	4	0.330652	-21.0074	31.9179	37.5721
 233	1	1	0.4882	-6.337	5.40961	45.6685
 234	1	2	0.025477	-5.50341	5.98137	44.7111
 235	1	3	-0.008635	-5.80202	7.43575	44.7876
 236	1	2	0.050267	-7.13835	6.32284	46.3474
 237	1	3	0.063619	-6.77083	7.63766	45.7534
 238	1	5	-0.374081	-4.64832	5.44789	44.0235
 239	1	5	-0.389097	-7.87593	6.12826	47.2996
 240	1	3	-0.003634	-5.18669	8.50504	44.1269
 241	1	3	-0.04742	-7.18113	8.92767	46.1009
 242	1	3	-0.200211	-6.57165	10.0201	45.4453
 243	1	3	-0.05806	-5.57176	9.83531	44.4492
 244	1	6	0.16443	-4.39114	8.28008	43.4255
 245	1	6	0.154232	-7.91847	9.07431	46.8872
 246	1	6	0.179048	-6.85048	11.0259	45.7532
 247	1	7	-0.076903	-4.82791	11.0735	43.8637
 248	1	7	0.238473	-3.63872	11.3669	44.8581
 249	1	8	-0.092232	-4.08843	11.799	46.0581
 250	1	8	-0.075474	-2.76924	12.2896	44.3868
 251	1	8	-0.095932	-2.90868	10.2571	45.1156
 252	1	7	0.340597	-4.24451	10.8142	42.4169
 253	1	8	-0.110855	-5.15181	10.2169	41.6112
 254	1	8	-0.104879	-3.14107	10.0329	42.4042
 255	1	8	-0.10758	-3.89143	11.9694	41.8077
 256	1	3	-0.066666	-5.8203	12.2723	43.716
 257	1	3	-0.06911	-5.50588	13.5931	44.1406
 258	1	3	-0.048109	-6.3934	14.637	43.8475
 259	1	3	-0.057883	-7.0509	12.0702	43.0292
 260	1	3	-0.116273	-7.9231	13.1386	42.728
 261	1	3	-0.113036	-7.55666	14.4248	43.1401
 262	1	2	0.502524	-8.1817	15.7508	42.8663
 263	1	1	0.0355	-7.32635	16.6949	43.4265
 264	1	2	0.450202	-6.25189	16.0994	44.0807
 265	1	3	-0.097429	-7.44882	18.1102	43.2414
 266	1	3	-0.043121	-8.46536	18.8598	43.8912
 267	1	3	-0.007101	-8.54656	20.2662	43.6937
 268	1	3	0.055122	-6.5247	18.7642	42.3968
 269	1	3	-0.325582	-6.5744	20.1557	42.2647
 270	1	3	0.061609	-7.55493	20.9136	42.9154
 271	1	7	0.04075	-9.48475	18.142	44.7846
 272	1	9	-0.311814	-9.58276	20.9952	44.2952
 273	1	6	0.16104	-8.83571	12.9791	42.1568
 274	1	6	0.14041	-7.31743	11.074	42.6852
 275	1	6	0.147774	-4.57966	13.8447	44.6456
 276	1	5	-0.476838	-5.3284	16.6426	44.6636
 277	1	5	-0.479462	-9.18283	15.9444	42.1984
 278	1	7	-0.144762	-5.44634	18.009	41.6266
 279	1	10	0.052647	-5.02017	18.6234	40.8241
 280	1	10	0.065097	-5.84682	17.1033	41.1553
 281	1	10	0.048024	-4.62034	17.718	42.2868
 282	1	7	-0.169984	-7.46021	22.4278	42.786
 283	1	6	0.223059	-5.82587	20.657	41.6586
 284	1	10	0.004219	-6.4731	22.7419	42.4242
 285	1	10	0.100409	-7.60729	22.9161	43.7572
 286	1	10	0.163068	-8.20184	22.8183	42.0816
 287	1	10	0.042023	-10.3469	17.8054	44.1948
 288	1	10	0.011973	-9.85927	18.7823	45.5918
 289	1	10	-0.068283	-9.05381	17.2621	45.2779
 290	1	4	0.330652	-10.1258	20.5115	44.994
 291	1	1	0.4882	-10.0532	-5.10045	56.1655
 292	1	2	0.025477	-9.63428	-4.00814	55.4107
 293	1	3	-0.008635	-10.896	-3.29557	55.0791
 294	1	2	0.050267	-11.429	-5.18441	56.3486
 295	1	3	0.063619	-11.9538	-3.99867	55.6263
 296	1	5	-0.374081	-8.52081	-3.76065	54.9781
 297	1	5	-0.389097	-12.0806	-6.06946	56.8816
 298	1	3	-0.003634	-11.1008	-2.14857	54.3032
 299	1	3	-0.04742	-13.2723	-3.59635	55.4184
 300	1	3	-0.200211	-13.5002	-2.45445	54.6248
 301	1	3	-0.05806	-12.4288	-1.71805	54.0374
 302	1	6	0.16443	-10.2405	-1.62406	53.8937
 303	1	6	0.154232	-14.0944	-4.16365	55.8493
 304	1	6	0.179048	-14.5337	-2.16298	54.4806
 305	1	7	-0.076903	-12.6577	-0.440277	53.1675
 306	1	7	0.238473	-14.14	-0.300347	52.646
 307	1	8	-0.092232	-15.0261	-0.0214644	53.6292
 308	1	8	-0.075474	-14.5498	-1.43054	52.0257
 309	1	8	-0.095932	-14.2727	0.691179	51.7359
 310	1	7	0.340597	-12.3046	0.779535	54.1061
 311	1	8	-0.110855	-10.9689	0.890783	54.2858
 312	1	8	-0.104879	-12.848	0.633594	55.3369
 313	1	8	-0.10758	-12.7426	1.97213	53.645
 314	1	3	-0.066666	-11.7596	-0.492534	51.891
 315	1	3	-0.06911	-11.3631	0.694684	51.218
 316	1	3	-0.048109	-10.6176	0.597334	50.0373
 317	1	3	-0.057883	-11.4065	-1.7408	51.3001
 318	1	3	-0.116273	-10.62	-1.81714	50.1313
 319	1	3	-0.113036	-10.2324	-0.62027	49.5205
 320	1	2	0.502524	-9.47878	-0.371647	48.2611
 321	1	1	0.0355	-9.50112	1.00762	48.0733
 322	1	2	0.450202	-10.1608	1.66372	49.107
 323	1	3	-0.097429	-8.96264	1.67068	46.9248
 324	1	3	-0.043121	-7.8227	2.50816	47.0365
 325	1	3	-0.007101	-7.33325	3.19361	45.8939
 326	1	3	0.055122	-9.59312	1.50537	45.6718
 327	1	3	-0.325582	-9.05913	2.13532	44.5403
 328	1	3	0.061609	-7.9358	2.96777	44.6326
 329	1	7	0.04075	-7.13872	2.69174	48.399
 330	1	9	-0.311814	-6.24033	4.05331	46.0429
 331	1	6	0.16104	-10.3488	-2.7759	49.6933
 332	1	6	0.14041	-11.7516	-2.67241	51.74
 333	1	6	0.147774	-11.6527	1.68218	51.5607
 334	1	5	-0.476838	-10.3755	2.8574	49.2255
 335	1	5	-0.479462	-8.98288	-1.22366	47.5434
 336	1	7	-0.144762	-10.8453	0.652461	45.5006
 337	1	10	0.052647	-10.6021	-0.416357	45.5371
 338	1	10	0.065097	-11.3338	0.841831	44.5372
 339	1	10	0.048024	-11.5858	0.864116	46.2817
 340	1	7	-0.169984	-7.38955	3.56212	43.3404
 341	1	6	0.223059	-9.52292	1.97129	43.5724
 342	1	10	0.004219	-7.78656	3.04504	42.4578
 343	1	10	0.100409	-6.29696	3.47333	43.2942
 344	1	10	0.163068	-7.6566	4.61988	43.2452
 345	1	10	0.042023	-7.16001	1.77093	48.9944
 346	1	10	0.011973	-7.63477	3.47922	48.9797
 347	1	10	-0.068283	-6.07971	2.96505	48.3095
 348	1	4	0.330652	-5.79341	4.04173	46.9487
 349	1	1	0.4882	2.61532	-12.273	52.2014
 350	1	2	0.025477	3.05563	-11.8061	53.4398
 351	1	3	-0.008635	2.39911	-10.4835	53.5851
 352	1	2	0.050267	1.73895	-11.4142	51.5452
 353	1	3	0.063619	1.59912	-10.2655	52.4793
 354	1	5	-0.374081	3.66113	-12.4047	54.3144
 355	1	5	-0.389097	1.06549	-11.631	50.5506
 356	1	3	-0.003634	2.41027	-9.61015	54.6783
 357	1	3	-0.04742	0.729067	-9.17588	52.4299
 358	1	3	-0.200211	0.691088	-8.30935	53.5418
 359	1	3	-0.05806	1.52994	-8.49463	54.6787
 360	1	6	0.16443	3.05663	-9.85474	55.5135
 361	1	6	0.154232	0.0642388	-9.04076	51.5795
 362	1	6	0.179048	-0.0375314	-7.5035	53.528
 363	1	7	-0.076903	1.35016	-7.54744	55.9067
 364	1	7	0.238473	2.23017	-7.94222	57.1604
 365	1	8	-0.092232	1.95027	-7.1735	58.2371
 366	1	8	-0.075474	3.55598	-7.82244	56.9226
 367	1	8	-0.095932	2.0147	-9.21174	57.5739
 368	1	7	0.340597	1.75883	-6.08706	55.4483
 369	1	8	-0.110855	2.96915	-6.08646	54.8447
 370	1	8	-0.104879	1.83578	-5.20051	56.4661
 371	1	8	-0.10758	0.894871	-5.55341	54.5565
 372	1	3	-0.066666	-0.133731	-7.69001	56.3484
 373	1	3	-0.06911	-0.964205	-6.58374	56.6733
 374	1	3	-0.048109	-2.2904	-6.828	57.06
 375	1	3	-0.057883	-0.682195	-9.00068	56.4503
 376	1	3	-0.116273	-2.00907	-9.22524	56.8563
 377	1	3	-0.113036	-2.79189	-8.11023	57.1559
 378	1	2	0.502524	-4.20981	-8.03102	57.5808
 379	1	1	0.0355	-4.49191	-6.6764	57.6881
 380	1	2	0.450202	-3.38688	-5.88001	57.4048
 381	1	3	-0.097429	-5.79175	-6.18834	58.0136
 382	1	3	-0.043121	-6.84662	-6.30776	57.0761
 383	1	3	-0.007101	-8.1646	-5.94913	57.4511
 384	1	3	0.055122	-6.04194	-5.67614	59.3029
 385	1	3	-0.325582	-7.34858	-5.31616	59.6592
 386	1	3	0.061609	-8.41511	-5.47001	58.7606
 387	1	7	0.04075	-6.56135	-6.86367	55.6718
 388	1	9	-0.311814	-9.18951	-6.15093	56.5245
 389	1	6	0.16104	-2.41747	-10.2313	56.9308
 390	1	6	0.14041	-0.0704589	-9.86774	56.2167
 391	1	6	0.147774	-0.615027	-5.55668	56.6295
 392	1	5	-0.476838	-3.31774	-4.66314	57.3941
 393	1	5	-0.479462	-4.96444	-8.97538	57.7433
 394	1	7	-0.144762	-4.93331	-5.54796	60.3407
 395	1	10	0.052647	-4.39653	-6.49583	60.4696
 396	1	10	0.065097	-5.32659	-5.26182	61.3235
 397	1	10	0.048024	-4.20686	-4.78098	60.0446
 398	1	7	-0.169984	-9.82025	-5.1722	59.2689
 399	1	6	0.223059	-7.53963	-4.94212	60.66
 400	1	10	0.004219	-10.2065	-4.2352	58.85
 401	1	10	0.100409	-9.84419	-5.07855	60.361
 402	1	10	0.163068	-10.512	-5.98414	59.0097
 403	1	10	0.042023	-6.57161	-7.96082	55.6806
 404	1	10	0.011973	-5.58269	-6.54044	55.2964
 405	1	10	-0.068283	-7.29354	-6.53669	54.9234
 406	1	4	0.330652	-8.91676	-6.59445	55.6597
 407	1	1	0.4882	5.19065	-25.3164	41.9104
 408	1	2	0.025477	4.28179	-24.4943	41.2516
 409	1	3	-0.008635	4.32909	-23.2205	42.0128
 410	1	2	0.050267	5.85998	-24.7073	42.9666
 411	1	3	0.063619	5.27729	-23.3406	43.0134
 412	1	5	-0.374081	3.60421	-24.7348	40.2667
 413	1	5	-0.389097	6.69791	-25.1793	43.719
 414	1	3	-0.003634	3.57362	-22.0545	41.8459
 415	1	3	-0.04742	5.55773	-22.2762	43.871
 416	1	3	-0.200211	4.82542	-21.0834	43.7025
 417	1	3	-0.05806	3.79548	-20.961	42.7244
 418	1	6	0.16443	2.83935	-22.0252	41.0477
 419	1	6	0.154232	6.32213	-22.3731	44.6389
 420	1	6	0.179048	5.06056	-20.2456	44.3552
 421	1	7	-0.076903	2.99755	-19.6269	42.6099
 422	1	7	0.238473	1.5427	-19.8145	42.0274
 423	1	8	-0.092232	1.51665	-20.0496	40.6965
 424	1	8	-0.075474	0.78355	-18.7139	42.2324
 425	1	8	-0.095932	0.894743	-20.8437	42.6184
 426	1	7	0.340597	3.83855	-18.7028	41.6487
 427	1	8	-0.110855	5.02663	-18.3628	42.1994
 428	1	8	-0.104879	3.19601	-17.5596	41.3191
 429	1	8	-0.10758	4.13677	-19.3262	40.4855
 430	1	3	-0.066666	2.82139	-19.042	44.0453
 431	1	3	-0.06911	3.13362	-17.6964	44.3802
 432	1	3	-0.048109	3.06634	-17.2998	45.7215
 433	1	3	-0.057883	2.37008	-19.9056	45.0841
 434	1	3	-0.116273	2.32323	-19.4912	46.4291
 435	1	3	-0.113036	2.70659	-18.1798	46.7195
 436	1	2	0.502524	2.90914	-17.5075	48.0279
 437	1	1	0.0355	3.39375	-16.2385	47.7289
 438	1	2	0.450202	3.46535	-16.0153	46.3566
 439	1	3	-0.097429	3.90717	-15.3456	48.7214
 440	1	3	-0.043121	3.05402	-14.7872	49.7083
 441	1	3	-0.007101	3.60202	-14.0063	50.76
 442	1	3	0.055122	5.29793	-15.1015	48.7723
 443	1	3	-0.325582	5.81879	-14.2908	49.7862
 444	1	3	0.061609	4.99702	-13.7566	50.7872
 445	1	7	0.04075	1.54484	-15.0683	49.6556
 446	1	9	-0.311814	2.75929	-13.618	51.8077
 447	1	6	0.16104	2.0392	-20.1779	47.2242
 448	1	6	0.14041	2.1101	-20.9359	44.8554
 449	1	6	0.147774	3.47399	-16.9707	43.649
 450	1	5	-0.476838	3.86684	-15.0235	45.7722
 451	1	5	-0.479462	2.78385	-18.0281	49.1236
 452	1	7	-0.144762	6.28169	-15.7285	47.7885
 453	1	10	0.052647	7.30265	-15.7328	48.1893
 454	1	10	0.065097	6.30403	-15.167	46.8464
 455	1	10	0.048024	6.02773	-16.7711	47.5625
 456	1	7	-0.169984	5.68233	-12.9987	51.9148
 457	1	6	0.223059	6.88903	-14.1125	49.8181
 458	1	10	0.004219	5.3858	-11.9434	51.926
 459	1	10	0.100409	6.77408	-13.0242	51.821
 460	1	10	0.163068	5.44211	-13.4487	52.8856
 461	1	10	0.042023	1.31175	-16.0397	50.108
 462	1	10	0.011973	1.17126	-15.0782	48.624
 463	1	10	-0.068283	0.950238	-14.3172	50.1875
 464	1	4	0.330652	1.82149	-13.9919	51.7735
 465	1	1	0.4882	2.03332	-27.8777	29.013
 466	1	2	0.025477	0.795096	-27.927	29.6456
 467	1	3	-0.008635	1.03903	-28.7571	30.8529
 468	1	2	0.050267	3.04894	-28.5596	29.6742
 469	1	3	0.063619	2.37456	-29.1198	30.8756
 470	1	5	-0.374081	-0.279766	-27.5007	29.2553
 471	1	5	-0.389097	4.18207	-28.7997	29.2892
 472	1	3	-0.003634	0.123549	-29.2543	31.7875
 473	1	3	-0.04742	2.87146	-29.9783	31.8579
 474	1	3	-0.200211	1.96704	-30.4818	32.8155
 475	1	3	-0.05806	0.584141	-30.1423	32.795
 476	1	6	0.16443	-0.922345	-28.9877	31.6789
 477	1	6	0.154232	3.9169	-30.2789	31.8471
 478	1	6	0.179048	2.34347	-31.1898	33.5505
 479	1	7	-0.076903	-0.387617	-30.8646	33.7694
 480	1	7	0.238473	-1.73003	-30.0677	34.0347
 481	1	8	-0.092232	-1.51274	-28.7547	34.2709
 482	1	8	-0.075474	-2.3804	-30.5513	35.1177
 483	1	8	-0.095932	-2.61137	-30.1224	33.0111
 484	1	7	0.340597	-0.740146	-32.2419	33.0812
 485	1	8	-0.110855	-1.2327	-32.0762	31.8321
 486	1	8	-0.104879	-1.66165	-32.9495	33.7738
 487	1	8	-0.10758	0.349516	-33.0294	32.9287
 488	1	3	-0.066666	0.330307	-31.0166	35.1473
 489	1	3	-0.06911	0.771893	-29.8457	35.8182
 490	1	3	-0.048109	1.38016	-29.9632	37.0733
 491	1	3	-0.057883	0.553746	-32.2751	35.7814
 492	1	3	-0.116273	1.21164	-32.3738	37.0236
 493	1	3	-0.113036	1.6152	-31.1922	37.6489
 494	1	2	0.502524	2.25707	-30.9733	38.9703
 495	1	1	0.0355	2.31062	-29.5939	39.1383
 496	1	2	0.450202	1.82275	-28.912	38.0276
 497	1	3	-0.097429	2.74393	-28.9617	40.3448
 498	1	3	-0.043121	3.92282	-28.1744	40.3723
 499	1	3	-0.007101	4.31116	-27.5317	41.5749
 500	1	3	0.055122	1.96998	-29.1131	41.5174
 501	1	3	-0.325582	2.40578	-28.5307	42.7135
 502	1	3	0.061609	3.56821	-27.7515	42.7604
 503	1	7	0.04075	4.74922	-27.9757	39.0942
 504	1	9	-0.311814	5.40363	-26.6605	41.548
 505	1	6	0.16104	1.37562	-33.3378	37.5018
 506	1	6	0.14041	0.220263	-33.2038	35.3341
 507	1	6	0.147774	0.633449	-28.8562	35.3907
 508	1	5	-0.476838	1.72043	-27.7087	37.8646
 509	1	5	-0.479462	2.62431	-31.8456	39.7392
 510	1	7	-0.144762	0.660549	-29.8948	41.5354
 511	1	10	0.052647	0.052199	-29.6391	42.4116
 512	1	10	0.065097	0.84785	-30.9749	41.572
 513	1	10	0.048024	0.0484711	-29.6806	40.6508
 514	1	7	-0.169984	3.98324	-27.1843	44.1126
 515	1	6	0.223059	1.82578	-28.6789	43.6191
 516	1	10	0.004219	3.51245	-27.7304	44.9398
 517	1	10	0.100409	3.69046	-26.1327	44.209
 518	1	10	0.163068	5.06859	-27.2604	44.2591
 519	1	10	0.042023	4.36001	-27.1322	38.5097
 520	1	10	0.011973	4.73579	-28.8652	38.4528
 521	1	10	-0.068283	5.80703	-27.7726	39.3052
 522	1	4	0.330652	5.93163	-26.6428	40.6875
 523	1	1	0.4882	11.6357	-23.8328	16.5621
 524	1	2	0.025477	11.2233	-23.6749	17.8842
 525	1	3	-0.008635	11.0049	-25.065	18.3659
 526	1	2	0.050267	11.6813	-25.1552	16.1302
 527	1	3	0.063619	11.2706	-25.9354	17.3254
 528	1	5	-0.374081	11.1974	-22.6606	18.5617
 529	1	5	-0.389097	12.12	-25.6049	15.0838
 530	1	3	-0.003634	10.7048	-25.5308	19.6524
 531	1	3	-0.04742	11.2369	-27.3169	17.5147
 532	1	3	-0.200211	10.9365	-27.8058	18.8024
 533	1	3	-0.05806	10.6722	-26.9304	19.8973
 534	1	6	0.16443	10.53	-24.8107	20.4478
 535	1	6	0.154232	11.4741	-27.9885	16.6922
 536	1	6	0.179048	10.9461	-28.8829	18.9259
 537	1	7	-0.076903	10.4131	-27.4382	21.3531
 538	1	7	0.238473	10.2097	-29.0001	21.447
 539	1	8	-0.092232	9.22776	-29.4239	20.6185
 540	1	8	-0.075474	9.8344	-29.3959	22.6848
 541	1	8	-0.095932	11.3324	-29.6942	21.1502
 542	1	7	0.340597	11.6832	-27.0245	22.2003
 543	1	8	-0.110855	11.6956	-25.7001	22.472
 544	1	8	-0.104879	12.8297	-27.2922	21.5336
 545	1	8	-0.10758	11.7845	-27.6609	23.3884
 546	1	3	-0.066666	9.09578	-26.8051	21.8889
 547	1	3	-0.06911	8.87177	-26.61	23.2789
 548	1	3	-0.048109	7.62314	-26.1425	23.7089
 549	1	3	-0.057883	8.02594	-26.5293	20.9901
 550	1	3	-0.116273	6.78369	-26.041	21.4408
 551	1	3	-0.113036	6.61144	-25.8583	22.8155
 552	1	2	0.502524	5.40204	-25.4726	23.588
 553	1	1	0.0355	5.7601	-25.5896	24.9251
 554	1	2	0.450202	7.08948	-25.9598	25.0873
 555	1	3	-0.097429	4.83587	-25.4316	26.0005
 556	1	3	-0.043121	3.99366	-26.5074	26.3718
 557	1	3	-0.007101	3.03562	-26.3298	27.4029
 558	1	3	0.055122	4.74044	-24.1926	26.6633
 559	1	3	-0.325582	3.79187	-24.0283	27.6818
 560	1	3	0.061609	2.92921	-25.0725	28.0481
 561	1	7	0.04075	4.13756	-27.8495	25.6372
 562	1	9	-0.311814	2.17641	-27.3902	27.7008
 563	1	6	0.16104	5.96483	-25.8531	20.749
 564	1	6	0.14041	8.13778	-26.7264	19.9273
 565	1	6	0.147774	9.61559	-26.8604	24.0284
 566	1	5	-0.476838	7.68773	-26.1704	26.1283
 567	1	5	-0.479462	4.31107	-25.1937	23.1206
 568	1	7	-0.144762	5.63198	-23.0181	26.2814
 569	1	10	0.052647	5.56519	-22.8016	25.2081
 570	1	10	0.065097	6.68089	-23.2303	26.5238
 571	1	10	0.048024	5.34937	-22.1025	26.815
 572	1	7	-0.169984	1.86758	-24.7759	29.1006
 573	1	6	0.223059	3.70709	-23.0666	28.1788
 574	1	10	0.004219	1.78253	-23.7002	29.2992
 575	1	10	0.100409	2.10511	-25.2635	30.053
 576	1	10	0.163068	0.878059	-25.1171	28.7698
 577	1	10	0.042023	5.17433	-28.207	25.6795
 578	1	10	0.011973	3.86213	-27.7461	24.5804
 579	1	10	-0.068283	3.51624	-28.6539	26.0482
 580	1	4	0.330652	2.25796	-28.2026	27.1066
 581	1	1	0.4882	16.764	-20.3435	2.14104
 582	1	2	0.025477	15.9105	-20.5796	3.21484
 583	1	3	-0.008635	16.2603	-21.9541	3.6565
 584	1	2	0.050267	17.6009	-21.4053	1.82148
 585	1	3	0.063619	17.2696	-22.4346	2.84103
 586	1	5	-0.374081	15.0662	-19.8438	3.70013
 587	1	5	-0.389097	18.3885	-21.5083	0.894962
 588	1	3	-0.003634	15.7196	-22.7269	4.69003
 589	1	3	-0.04742	17.8014	-23.7105	3.02929
 590	1	3	-0.200211	17.2959	-24.49	4.09018
 591	1	3	-0.05806	16.2641	-24.0127	4.95004
 592	1	6	0.16443	14.8995	-22.3231	5.27891
 593	1	6	0.154232	18.583	-24.083	2.37033
 594	1	6	0.179048	17.7126	-25.4832	4.21481
 595	1	7	-0.076903	15.6743	-24.8879	6.0983
 596	1	7	0.238473	16.727	-25.895	6.70486
 597	1	8	-0.092232	16.9833	-26.9581	5.90941
 598	1	8	-0.075474	16.3065	-26.4055	7.88503
 599	1	8	-0.095932	17.9085	-25.2848	6.95224
 600	1	7	0.340597	14.4759	-25.6881	5.45758
 601	1	8	-0.110855	13.4377	-24.8691	5.17327
 602	1	8	-0.104879	14.011	-26.6808	6.24953
 603	1	8	-0.10758	14.8255	-26.2727	4.28857
 604	1	3	-0.066666	15.2372	-23.9705	7.28382
 605	1	3	-0.06911	14.0502	-24.2016	8.03089
 606	1	3	-0.048109	13.7515	-23.3652	9.11285
 607	1	3	-0.057883	16.0932	-22.9109	7.70122
 608	1	3	-0.116273	15.7637	-22.0661	8.78135
 609	1	3	-0.113036	14.5731	-22.3177	9.47022
 610	1	2	0.502524	13.9943	-21.6661	10.6763
 611	1	1	0.0355	12.864	-22.4089	10.9986
 612	1	2	0.450202	12.6319	-23.4341	10.0893
 613	1	3	-0.097429	12.069	-22.1909	12.1653
 614	1	3	-0.043121	12.5401	-22.6107	13.434
 615	1	3	-0.007101	11.732	-22.4186	14.5838
 616	1	3	0.055122	10.8067	-21.5738	12.0467
 617	1	3	-0.325582	10.0152	-21.3937	13.1901
 618	1	3	0.061609	10.4636	-21.8049	14.4549
 619	1	7	0.04075	13.9135	-23.2937	13.5346
 620	1	9	-0.311814	12.2356	-22.7878	15.8325
 621	1	6	0.16104	16.4252	-21.2596	9.09198
 622	1	6	0.14041	17.0336	-22.7401	7.1829
 623	1	6	0.147774	13.3707	-25.0201	7.81944
 624	1	5	-0.476838	11.7287	-24.2526	10.0901
 625	1	5	-0.479462	14.4662	-20.7138	11.2739
 626	1	7	-0.144762	10.2832	-21.0846	10.7018
 627	1	10	0.052647	11.0185	-20.4433	10.2001
 628	1	10	0.065097	9.36402	-20.4967	10.8122
 629	1	10	0.048024	10.0556	-21.9279	10.0382
 630	1	7	-0.169984	9.56885	-21.5363	15.6583
 631	1	6	0.223059	9.0447	-20.9186	13.0905
 632	1	10	0.004219	10.1427	-21.1426	16.5056
 633	1	10	0.100409	9.06118	-22.4521	15.9828
 634	1	10	0.163068	8.79737	-20.7927	15.4287
 635	1	10	0.042023	14.7111	-22.6318	13.1782
 636	1	10	0.011973	13.9372	-24.206	12.925
 637	1	10	-0.068283	14.1938	-23.5862	14.5533
 638	1	4	0.330652	13.2252	-22.9863	15.8523
 639	1	1	0.4882	21.4313	-11.4924	-11.6638
 640	1	2	0.025477	20.1777	-11.4135	-11.0683