pySIMM System Object

1336 atoms
1450 bonds
2553 angles
3768 dihedrals
368 impropers

10 atom types
14 bond types
24 angle types
9 dihedral types
4 improper types

-173.681239 173.681239 xlo xhi
-173.681239 173.681239 ylo yhi
-173.681239 173.681239 zlo zhi

Masses

   1	14.01	# n
   2	12.01	# c
   3	12.01	# ca
   4	1.008	# hn
   5	16.0	# o
   6	1.008	# ha
   7	12.01	# c3
   8	19.0	# f
   9	14.01	# nh
  10	1.008	# hc

Pair Coeffs

   1	0.17	3.249998523775958	# n
   2	0.086	3.3996695084235347	# c
   3	0.086	3.3996695084235347	# ca
   4	0.0157	1.069078461768407	# hn
   5	0.21	2.959921901149463	# o
   6	0.015	2.59964245953351	# ha
   7	0.1094	3.3996695084235347	# c3
   8	0.061	3.1181455134911875	# f
   9	0.17	3.249998523775958	# nh
  10	0.0157	2.649532787749369	# hc

Bond Coeffs

   1	345.9	1.4906	# c,ca
   2	345.8	1.086	# ca,ha
   3	637.7	1.2183	# c,o
   4	321.0	1.5156	# c3,ca
   5	300.9	1.5375	# c3,c3
   6	384.2	1.4121	# ca,n
   7	330.6	1.0969	# c3,hc
   8	404.6	1.0121	# hn,nh
   9	403.2	1.0129	# hn,n
  10	356.9	1.3497	# c3,f
  11	417.9	1.3859	# ca,nh
  12	427.6	1.3789	# c,n
  13	461.1	1.3984	# ca,ca
  14	452.5	1.4016	# n,nh

Angle Coeffs

   1	74.22	123.05	# n,c,o
   2	40.07	115.12	# hn,nh,hn
   3	68.29	120.95	# ca,ca,nh
   4	66.62	120.02	# ca,ca,ca
   5	48.42	116.07	# ca,nh,hn
   6	68.72	122.6	# ca,c,o
   7	48.33	117.55	# c,n,hn
   8	64.28	120.33	# c,ca,ca
   9	67.68	115.25	# ca,c,n
  10	39.4	107.58	# hc,c3,hc
  11	63.53	120.77	# c3,ca,ca
  12	67.87	120.19	# ca,ca,n
  13	70.89	107.36	# f,c3,f
  14	66.11	109.24	# c3,c3,f
  15	46.8	110.47	# ca,c3,hc
  16	62.86	111.51	# c3,c3,c3
  17	63.15	112.07	# c3,c3,ca
  18	63.82	123.71	# c,n,ca
  19	63.56	112.24	# ca,c3,ca
  20	63.74	127.08	# c,n,c
  21	48.18	119.88	# ca,ca,ha
  22	67.01	118.71	# c,n,nh
  23	67.61	116.03	# ca,nh,n
  24	50.88	108.17	# hn,nh,n

Dihedral Coeffs

   1	2	2.5	2	180	2.0	1	0	# hn,n,c,o
   2	1	3.625	2	180	# X,ca,ca,X
   3	1	0.15555555555555556	3	0	# X,c3,c3,X
   4	1	1.0	2	180	# X,c,ca,X
   5	1	0.0	2	0	# X,c3,ca,X
   6	1	2.5	2	180	# X,c,n,X
   7	1	0.45	2	180	# X,ca,n,X
   8	1	1.05	2	180	# X,ca,nh,X
   9	1	1.1	2	0	# X,n,nh,X

Improper Coeffs

   1	10.5	-1	2	# c,X,X,o
   2	1.1	-1	2	# ca,X,X,ha
   3	1.1	-1	2	# ca,ca,ca,c3
   4	1.1	-1	2	# n,X,X,hn

Atoms

   1	1	1	0.4882	-45.0037	-31.227	28.8266
   2	1	2	0.025477	-45.784	-30.3804	29.6086
   3	1	3	-0.008635	-44.9908	-29.1246	29.6714
   4	1	2	0.050267	-43.7338	-30.734	28.536
   5	1	3	0.063619	-43.7808	-29.3301	29.0317
   6	1	5	-0.374081	-46.9301	-30.54	29.9963
   7	1	5	-0.389097	-42.8311	-31.2735	27.914
   8	1	3	-0.003634	-45.4103	-27.848	30.06
   9	1	3	-0.04742	-42.9213	-28.2607	28.7647
  10	1	3	-0.200211	-43.328	-26.9635	29.1497
  11	1	3	-0.05806	-44.5763	-26.7291	29.7938
  12	1	6	0.16443	-46.4104	-27.744	30.4657
  13	1	6	0.154232	-42.0086	-28.4251	28.1962
  14	1	6	0.179048	-42.6923	-26.1266	28.8721
  15	1	7	-0.076903	-45.0879	-25.2718	29.9974
  16	1	7	0.238473	-45.8777	-24.9116	28.6779
  17	1	8	-0.092232	-46.5165	-23.722	28.7593
  18	1	8	-0.075474	-46.8235	-25.83	28.3753
  19	1	8	-0.095932	-45.0599	-24.8702	27.6003
  20	1	7	0.340597	-46.0554	-25.1278	31.241
  21	1	8	-0.110855	-47.303	-25.6009	31.0256
  22	1	8	-0.104879	-46.2056	-23.8326	31.6024
  23	1	8	-0.10758	-45.5814	-25.7809	32.3257
  24	1	3	-0.066666	-43.8807	-24.3178	30.2724
  25	1	3	-0.06911	-43.0057	-24.6099	31.3523
  26	1	3	-0.048109	-41.9683	-23.7168	31.6555
  27	1	3	-0.057883	-43.6469	-23.1216	29.5296
  28	1	3	-0.116273	-42.5769	-22.2555	29.8287
  29	1	3	-0.113036	-41.7506	-22.5811	30.9058
  30	1	2	0.502524	-40.5709	-21.8686	31.4616
  31	1	1	0.0355	-40.1533	-22.6267	32.5495
  32	1	2	0.450202	-40.9518	-23.7514	32.7418
  33	1	3	-0.097429	-39.0094	-22.3078	33.3446
  34	1	3	-0.043121	-37.8569	-23.1359	33.3031
  35	1	3	-0.007101	-36.737	-22.816	34.1066
  36	1	3	0.055122	-39.0222	-21.1561	34.1665
  37	1	3	-0.325582	-37.8886	-20.8383	34.9275
  38	1	3	0.061609	-36.7507	-21.6555	34.9063
  39	1	7	0.04075	-37.8166	-24.3795	32.4059
  40	1	9	-0.311814	-35.6198	-23.6465	34.1184
  41	1	6	0.16104	-42.4059	-21.3478	29.2528
  42	1	6	0.14041	-44.2898	-22.8278	28.7091
  43	1	6	0.147774	-43.1323	-25.5035	31.9589
  44	1	5	-0.476838	-40.8455	-24.6133	33.5975
  45	1	5	-0.479462	-40.0729	-20.8515	31.0102
  46	1	7	-0.144762	-40.2284	-20.2259	34.2549
  47	1	10	0.052647	-41.1756	-20.7781	34.2495
  48	1	10	0.065097	-40.2381	-19.5195	33.4152
  49	1	10	0.048024	-40.2108	-19.6337	35.1784
  50	1	7	-0.169984	-35.5485	-21.2736	35.7582
  51	1	6	0.223059	-37.8923	-19.9465	35.5461
  52	1	10	0.004219	-35.6643	-20.2824	36.2141
  53	1	10	0.100409	-34.6329	-21.2556	35.1542
  54	1	10	0.163068	-35.4059	-22.0037	36.5635
  55	1	10	0.042023	-38.4062	-24.2484	31.4912
  56	1	10	0.011973	-38.2099	-25.2538	32.9391
  57	1	10	-0.068283	-36.7996	-24.6247	32.0749
  58	1	4	0.330652	-35.594	-24.4504	33.5016
  59	1	1	0.4882	-43.7179	-19.2397	21.1452
  60	1	2	0.025477	-45.0167	-19.5051	21.5686
  61	1	3	-0.008635	-45.1394	-20.9814	21.4473
  62	1	2	0.050267	-42.984	-20.3683	20.7917
  63	1	3	0.063619	-43.9437	-21.4843	20.9666
  64	1	5	-0.374081	-45.8614	-18.7302	21.9869
  65	1	5	-0.389097	-41.8124	-20.4568	20.4614
  66	1	3	-0.003634	-46.2152	-21.8188	21.7621
  67	1	3	-0.04742	-43.7756	-22.8462	20.7194
  68	1	3	-0.200211	-44.8535	-23.7039	21.0124
  69	1	3	-0.05806	-46.0689	-23.22	21.5764
  70	1	6	0.16443	-47.1201	-21.3676	22.1547
  71	1	6	0.154232	-42.8356	-23.2211	20.3195
  72	1	6	0.179048	-44.7271	-24.7688	20.827
  73	1	7	-0.076903	-47.1748	-24.2458	21.9647
  74	1	7	0.238473	-48.2157	-23.6853	23.009
  75	1	8	-0.092232	-49.0532	-22.7624	22.4848
  76	1	8	-0.075474	-47.6025	-23.1137	24.0707
  77	1	8	-0.095932	-48.996	-24.6692	23.5116
  78	1	7	0.340597	-47.9143	-24.6286	20.6268
  79	1	8	-0.110855	-48.2709	-23.527	19.9269
  80	1	8	-0.104879	-49.0475	-25.3391	20.8238
  81	1	8	-0.10758	-47.1214	-25.3577	19.8091
  82	1	3	-0.066666	-46.4803	-25.4521	22.6621
  83	1	3	-0.06911	-46.8727	-26.8023	22.4492
  84	1	3	-0.048109	-46.1973	-27.8191	23.1383
  85	1	3	-0.057883	-45.4425	-25.188	23.6007
  86	1	3	-0.116273	-44.7685	-26.2211	24.2727
  87	1	3	-0.113036	-45.1672	-27.5316	24.01
  88	1	2	0.502524	-44.714	-28.7938	24.6322
  89	1	1	0.0355	-45.5488	-29.7825	24.1245
  90	1	2	0.450202	-46.4486	-29.2895	23.1866
  91	1	3	-0.097429	-45.5521	-31.0929	24.6836
  92	1	3	-0.043121	-45.9537	-31.2277	26.0316
  93	1	3	-0.007101	-45.547	-32.3675	26.7724
  94	1	3	0.055122	-44.9695	-32.1792	24.002
  95	1	3	-0.325582	-44.7604	-33.3806	24.6945
  96	1	3	0.061609	-44.9994	-33.4704	26.0753
  97	1	7	0.04075	-46.8157	-30.122	26.6538
  98	1	9	-0.311814	-45.5387	-32.3649	28.1777
  99	1	6	0.16104	-43.983	-26.0108	24.9958
 100	1	6	0.14041	-45.1513	-24.1638	23.8181
 101	1	6	0.147774	-47.6927	-27.0775	21.7942
 102	1	5	-0.476838	-47.3146	-29.8974	22.581
 103	1	5	-0.479462	-43.8595	-28.8887	25.4986
 104	1	7	-0.144762	-44.5562	-32.0915	22.5381
 105	1	10	0.052647	-45.4072	-32.3206	21.8842
 106	1	10	0.065097	-43.7567	-32.8058	22.3066
 107	1	10	0.048024	-44.1828	-31.0967	22.2691
 108	1	7	-0.169984	-44.5965	-34.7581	26.7819
 109	1	6	0.223059	-44.3285	-34.2274	24.1698
 110	1	10	0.004219	-44.696	-35.6213	26.1113
 111	1	10	0.100409	-45.224	-34.968	27.6555
 112	1	10	0.163068	-43.5484	-34.7071	27.1029
 113	1	10	0.042023	-47.4851	-30.5224	27.4238
 114	1	10	0.011973	-46.2045	-29.3245	27.0905
 115	1	10	-0.068283	-47.4705	-29.6544	25.9081
 116	1	4	0.330652	-45.158	-33.1723	28.6417
 117	1	1	0.4882	-29.3649	-11.2959	17.7074
 118	1	2	0.025477	-29.4149	-12.2062	18.7584
 119	1	3	-0.008635	-30.568	-13.0837	18.4199
 120	1	2	0.050267	-30.3793	-11.4421	16.7671
 121	1	3	0.063619	-31.1272	-12.6351	17.2358
 122	1	5	-0.374081	-28.7235	-12.2525	19.7625
 123	1	5	-0.389097	-30.6281	-10.7529	15.7899
 124	1	3	-0.003634	-31.0911	-14.1849	19.1092
 125	1	3	-0.04742	-32.2168	-13.2849	16.6565
 126	1	3	-0.200211	-32.7534	-14.3978	17.332
 127	1	3	-0.05806	-32.23	-14.8494	18.5768
 128	1	6	0.16443	-30.6137	-14.4839	20.0363
 129	1	6	0.154232	-32.6342	-12.9315	15.7163
 130	1	6	0.179048	-33.6083	-14.9043	16.8891
 131	1	7	-0.076903	-32.9408	-16.0375	19.2925
 132	1	7	0.238473	-32.5049	-17.3468	18.5277
 133	1	8	-0.092232	-33.0365	-17.4069	17.2858
 134	1	8	-0.075474	-32.8595	-18.4848	19.166
 135	1	8	-0.095932	-31.1625	-17.4003	18.3679
 136	1	7	0.340597	-32.5667	-16.1725	20.8192
 137	1	8	-0.110855	-31.2971	-16.592	21.0211
 138	1	8	-0.104879	-33.3716	-17.0547	21.4547
 139	1	8	-0.10758	-32.7087	-14.9982	21.4751
 140	1	3	-0.066666	-34.4744	-15.7629	19.2469
 141	1	3	-0.06911	-35.4379	-16.7778	18.9984
 142	1	3	-0.048109	-36.7974	-16.4328	18.9907
 143	1	3	-0.057883	-34.9393	-14.4421	19.5087
 144	1	3	-0.116273	-36.3075	-14.1142	19.4866
 145	1	3	-0.113036	-37.2175	-15.1382	19.2182
 146	1	2	0.502524	-38.7009	-15.1091	19.1654
 147	1	1	0.0355	-39.0908	-16.4188	18.9256
 148	1	2	0.450202	-38.0069	-17.2799	18.7935
 149	1	3	-0.097429	-40.4577	-16.8175	18.8587
 150	1	3	-0.043121	-41.1675	-17.1431	20.0399
 151	1	3	-0.007101	-42.5314	-17.5164	19.9564
 152	1	3	0.055122	-41.1056	-16.8567	17.6075
 153	1	3	-0.325582	-42.4659	-17.1881	17.543
 154	1	3	0.061609	-43.1889	-17.5063	18.7019
 155	1	7	0.04075	-40.4499	-17.157	21.3978
 156	1	9	-0.311814	-43.1764	-17.9409	21.1207
 157	1	6	0.16104	-36.6518	-13.101	19.6854
 158	1	6	0.14041	-34.229	-13.6503	19.7321
 159	1	6	0.147774	-35.1641	-17.8136	18.8245
 160	1	5	-0.476838	-38.0202	-18.4793	18.5789
 161	1	5	-0.479462	-39.4082	-14.1316	19.34
 162	1	7	-0.144762	-40.3615	-16.5342	16.3181
 163	1	10	0.052647	-40.0493	-15.4829	16.2974
 164	1	10	0.065097	-40.9847	-16.7119	15.4334
 165	1	10	0.048024	-39.4667	-17.1602	16.2121
 166	1	7	-0.169984	-44.6707	-17.8288	18.5487
 167	1	6	0.223059	-42.9623	-17.2034	16.5783
 168	1	10	0.004219	-45.2527	-17.4993	19.4179
 169	1	10	0.100409	-44.8269	-18.9057	18.416
 170	1	10	0.163068	-45.0987	-17.3206	17.677
 171	1	10	0.042023	-39.6427	-16.4185	21.4586
 172	1	10	0.011973	-40.0132	-18.1447	21.5912
 173	1	10	-0.068283	-41.1278	-16.9265	22.2297
 174	1	4	0.330652	-42.6506	-17.8337	21.9754
 175	1	1	0.4882	-22.8176	0.322303	18.8741
 176	1	2	0.025477	-21.659	-0.307293	18.425
 177	1	3	-0.008635	-21.5623	-1.53596	19.2497
 178	1	2	0.050267	-23.4272	-0.319897	19.9519
 179	1	3	0.063619	-22.6181	-1.55264	20.1402
 180	1	5	-0.374081	-20.8489	0.0705016	17.5965
 181	1	5	-0.389097	-24.3671	0.0417289	20.642
 182	1	3	-0.003634	-20.6145	-2.56304	19.2049
 183	1	3	-0.04742	-22.8028	-2.62351	21.0167
 184	1	3	-0.200211	-21.8728	-3.68317	20.9709
 185	1	3	-0.05806	-20.763	-3.67345	20.0787
 186	1	6	0.16443	-19.7981	-2.47151	18.4968
 187	1	6	0.154232	-23.6444	-2.63179	21.7054
 188	1	6	0.179048	-22.0135	-4.52164	21.6497
 189	1	7	-0.076903	-19.7433	-4.84968	20.1367
 190	1	7	0.238473	-18.7569	-4.89485	18.9061
 191	1	8	-0.092232	-17.8651	-3.87804	18.9051
 192	1	8	-0.075474	-19.4174	-4.85349	17.7267
 193	1	8	-0.095932	-18.0353	-6.0387	18.8871
 194	1	7	0.340597	-18.9109	-4.63697	21.4628
 195	1	8	-0.110855	-18.4736	-3.3612	21.5734
 196	1	8	-0.104879	-17.8142	-5.42375	21.5448
 197	1	8	-0.10758	-19.65	-4.87861	22.5695
 198	1	3	-0.066666	-20.5404	-6.18681	20.102
 199	1	3	-0.06911	-21.6172	-6.31832	19.1873
 200	1	3	-0.048109	-22.3144	-7.53028	19.123
 201	1	3	-0.057883	-20.1962	-7.31451	20.9023
 202	1	3	-0.116273	-20.916	-8.52547	20.8256
 203	1	3	-0.113036	-21.9816	-8.60256	19.9233
 204	1	2	0.502524	-22.895	-9.73123	19.5926
 205	1	1	0.0355	-23.7233	-9.25642	18.5833
 206	1	2	0.450202	-23.4424	-7.93791	18.2466
 207	1	3	-0.097429	-24.7111	-10.0338	17.9085
 208	1	3	-0.043121	-26.0935	-9.84019	18.1601
 209	1	3	-0.007101	-27.0573	-10.5255	17.3772
 210	1	3	0.055122	-24.2945	-10.9467	16.9178
 211	1	3	-0.325582	-25.2535	-11.6153	16.1492
 212	1	3	0.061609	-26.6238	-11.3929	16.3403
 213	1	7	0.04075	-26.5732	-8.9012	19.2766
 214	1	9	-0.311814	-28.4104	-10.2644	17.6313
 215	1	6	0.16104	-20.6433	-9.38382	21.4366
 216	1	6	0.14041	-19.3578	-7.2773	21.5882
 217	1	6	0.147774	-21.9034	-5.50382	18.5253
 218	1	5	-0.476838	-23.9922	-7.24214	17.4103
 219	1	5	-0.479462	-22.8847	-10.8391	20.1007
 220	1	7	-0.144762	-22.8202	-11.2023	16.6269
 221	1	10	0.052647	-22.685	-11.8779	15.7736
 222	1	10	0.065097	-22.3263	-11.6686	17.4885
 223	1	10	0.048024	-22.2926	-10.2702	16.3906
 224	1	7	-0.169984	-27.5733	-12.0616	15.3541
 225	1	6	0.223059	-24.9241	-12.2933	15.3683
 226	1	10	0.004219	-28.1442	-12.8698	15.8264
 227	1	10	0.100409	-27.0352	-12.5	14.5058
 228	1	10	0.163068	-28.2698	-11.3286	14.9285
 229	1	10	0.042023	-25.7683	-8.34685	19.7703
 230	1	10	0.011973	-27.0898	-9.47108	20.0592
 231	1	10	-0.068283	-27.2816	-8.15747	18.8898
 232	1	4	0.330652	-28.6237	-9.59236	18.3532
 233	1	1	0.4882	-21.9547	1.04849	3.46724
 234	1	2	0.025477	-22.3817	1.08912	4.79163
 235	1	3	-0.008635	-21.2221	1.66435	5.51865
 236	1	2	0.050267	-20.616	1.37931	3.28211
 237	1	3	0.063619	-20.1734	1.81974	4.62968
 238	1	5	-0.374081	-23.4898	0.862011	5.24979
 239	1	5	-0.389097	-19.976	1.42988	2.24414
 240	1	3	-0.003634	-21.1628	2.17649	6.81825
 241	1	3	-0.04742	-18.9924	2.45813	5.01101
 242	1	3	-0.200211	-18.9037	2.95899	6.32625
 243	1	3	-0.05806	-19.9843	2.84032	7.2473
 244	1	6	0.16443	-22.0439	2.11118	7.45208
 245	1	6	0.154232	-18.1941	2.61275	4.28797
 246	1	6	0.179048	-17.9994	3.49578	6.59173
 247	1	7	-0.076903	-19.9718	3.54328	8.63562
 248	1	7	0.238473	-18.5218	3.72472	9.23098
 249	1	8	-0.092232	-17.799	2.58539	9.13989
 250	1	8	-0.075474	-18.5626	4.04686	10.5445
 251	1	8	-0.095932	-17.8053	4.70052	8.62857
 252	1	7	0.340597	-20.6291	4.95961	8.40539
 253	1	8	-0.110855	-21.9493	4.85224	8.12953
 254	1	8	-0.104879	-20.0806	5.60573	7.35081
 255	1	8	-0.10758	-20.499	5.78863	9.46598
 256	1	3	-0.066666	-20.7457	2.6629	9.66242
 257	1	3	-0.06911	-21.652	3.21017	10.61
 258	1	3	-0.048109	-22.2283	2.36645	11.5651
 259	1	3	-0.057883	-20.4681	1.2678	9.72534
 260	1	3	-0.116273	-21.0614	0.433634	10.6948
 261	1	3	-0.113036	-21.9367	1.01954	11.6145
 262	1	2	0.502524	-22.6279	0.440133	12.7971
 263	1	1	0.0355	-23.2862	1.50448	13.4016
 264	1	2	0.450202	-23.1243	2.69431	12.7053
 265	1	3	-0.097429	-23.9929	1.38502	14.6331
 266	1	3	-0.043121	-23.3398	1.67236	15.8568
 267	1	3	-0.007101	-23.9941	1.39137	17.0839
 268	1	3	0.055122	-25.3203	0.915366	14.6248
 269	1	3	-0.325582	-25.9913	0.738568	15.8399
 270	1	3	0.061609	-25.3464	0.968117	17.0627
 271	1	7	0.04075	-21.9304	2.27813	15.8235
 272	1	9	-0.311814	-23.2973	1.51664	18.2921
 273	1	6	0.16104	-20.8215	-0.626401	10.754
 274	1	6	0.14041	-19.759	0.826158	9.02926
 275	1	6	0.147774	-21.8931	4.26655	10.6553
 276	1	5	-0.476838	-23.5616	3.79742	12.9863
 277	1	5	-0.479462	-22.5769	-0.721441	13.1639
 278	1	7	-0.144762	-26.0515	0.613754	13.323
 279	1	10	0.052647	-26.0584	1.48995	12.6629
 280	1	10	0.065097	-27.0963	0.330899	13.5002
 281	1	10	0.048024	-25.5744	-0.216411	12.7876
 282	1	7	-0.169984	-26.1724	0.782597	18.3265
 283	1	6	0.223059	-27.0255	0.407448	15.8357
 284	1	10	0.004219	-27.2427	0.923693	18.1308
 285	1	10	0.100409	-25.8939	1.50841	19.1004
 286	1	10	0.163068	-26.0447	-0.226298	18.7342
 287	1	10	0.042023	-21.9044	3.17246	15.1893
 288	1	10	0.011973	-21.2028	1.56442	15.4176
 289	1	10	-0.068283	-21.574	2.60071	16.8095
 290	1	4	0.330652	-22.4874	2.12196	18.2613
 291	1	1	0.4882	-20.5663	1.34762	-11.6651
 292	1	2	0.025477	-20.9966	1.34912	-10.3416
 293	1	3	-0.008635	-21.1628	2.78751	-10.0245
 294	1	2	0.050267	-20.3087	2.61646	-12.181
 295	1	3	0.063619	-20.7425	3.53901	-11.1043
 296	1	5	-0.374081	-21.2228	0.410736	-9.59539
 297	1	5	-0.389097	-19.8443	2.92919	-13.2643
 298	1	3	-0.003634	-21.7416	3.38033	-8.9035
 299	1	3	-0.04742	-20.8547	4.93101	-11.1074
 300	1	3	-0.200211	-21.4095	5.55306	-9.96944
 301	1	3	-0.05806	-21.8559	4.79329	-8.85125
 302	1	6	0.16443	-22.1153	2.74158	-8.10697
 303	1	6	0.154232	-20.5524	5.50492	-11.9809
 304	1	6	0.179048	-21.5207	6.63227	-9.99112
 305	1	7	-0.076903	-22.5445	5.44323	-7.6225
 306	1	7	0.238473	-22.0668	6.92136	-7.33908
 307	1	8	-0.092232	-22.5751	7.83128	-8.20005
 308	1	8	-0.075474	-20.7209	7.03701	-7.3986
 309	1	8	-0.095932	-22.4318	7.32829	-6.10133
 310	1	7	0.340597	-24.0919	5.43988	-7.93048
 311	1	8	-0.110855	-24.5861	4.18139	-7.97968
 312	1	8	-0.104879	-24.3671	5.99093	-9.13484
 313	1	8	-0.10758	-24.8163	6.1302	-7.02059
 314	1	3	-0.066666	-22.1531	4.61387	-6.36461
 315	1	3	-0.06911	-23.104	4.1932	-5.40105
 316	1	3	-0.048109	-22.6555	3.53941	-4.25132
 317	1	3	-0.057883	-20.7787	4.32288	-6.12739
 318	1	3	-0.116273	-20.3459	3.67702	-4.95218
 319	1	3	-0.113036	-21.3162	3.31114	-4.01548
 320	1	2	0.502524	-21.1651	2.86201	-2.60574
 321	1	1	0.0355	-22.4462	2.91492	-2.06913
 322	1	2	0.450202	-23.4127	3.20659	-3.02289
 323	1	3	-0.097429	-22.7187	3.00317	-0.674263
 324	1	3	-0.043121	-22.6984	1.86195	0.163493
 325	1	3	-0.007101	-23.0125	2.00101	1.54005
 326	1	3	0.055122	-23.0149	4.2763	-0.138915
 327	1	3	-0.325582	-23.3979	4.38525	1.19868
 328	1	3	0.061609	-23.4286	3.26522	2.03482
 329	1	7	0.04075	-22.2864	0.501883	-0.412938
 330	1	9	-0.311814	-22.8469	0.898162	2.38664
 331	1	6	0.16104	-19.2881	3.52501	-4.7461
 332	1	6	0.14041	-20.0266	4.6415	-6.84488
 333	1	6	0.147774	-24.1631	4.41379	-5.47961
 334	1	5	-0.476838	-24.6108	3.36542	-2.859
 335	1	5	-0.479462	-20.11	2.69304	-2.0198
 336	1	7	-0.144762	-22.9546	5.55692	-0.967938
 337	1	10	0.052647	-22.1425	5.53594	-1.70467
 338	1	10	0.065097	-22.7742	6.43236	-0.332533
 339	1	10	0.048024	-23.8985	5.72415	-1.50111
 340	1	7	-0.169984	-23.9377	3.49256	3.45062
 341	1	6	0.223059	-23.6807	5.35684	1.59241
 342	1	10	0.004219	-24.5699	4.38745	3.50947
 343	1	10	0.100409	-23.111	3.637	4.15468
 344	1	10	0.163068	-24.5566	2.65268	3.78833
 345	1	10	0.042023	-21.1928	0.415912	-0.452242
 346	1	10	0.011973	-22.6704	0.357495	-1.43025
 347	1	10	-0.068283	-22.6651	-0.341075	0.179427
 348	1	4	0.330652	-22.6151	0.0239525	1.93704
 349	1	1	0.4882	-21.2641	6.81125	-26.7538
 350	1	2	0.025477	-22.2321	5.84534	-26.5113
 351	1	3	-0.008635	-21.688	5.08419	-25.3628
 352	1	2	0.050267	-20.2065	6.81945	-25.851
 353	1	3	0.063619	-20.4952	5.66113	-24.9657
 354	1	5	-0.374081	-23.2562	5.60854	-27.1309
 355	1	5	-0.389097	-19.251	7.57687	-25.7934
 356	1	3	-0.003634	-22.1892	3.93019	-24.7605
 357	1	3	-0.04742	-19.7461	5.1164	-23.9215
 358	1	3	-0.200211	-20.2389	3.95242	-23.2946
 359	1	3	-0.05806	-21.4588	3.33609	-23.6982
 360	1	6	0.16443	-23.1167	3.52397	-25.147
 361	1	6	0.154232	-18.8043	5.57208	-23.6232
 362	1	6	0.179048	-19.656	3.51925	-22.4848
 363	1	7	-0.076903	-21.9152	2.0218	-22.9952
 364	1	7	0.238473	-23.3875	1.59213	-23.3653
 365	1	8	-0.092232	-23.8232	0.548003	-22.6244
 366	1	8	-0.075474	-23.5139	1.21533	-24.658
 367	1	8	-0.095932	-24.2664	2.59473	-23.1359
 368	1	7	0.340597	-20.9023	0.901626	-23.4612
 369	1	8	-0.110855	-20.6684	0.971964	-24.7923
 370	1	8	-0.104879	-21.3282	-0.358791	-23.2241
 371	1	8	-0.10758	-19.7021	1.02561	-22.8506
 372	1	3	-0.066666	-21.9106	2.239	-21.4564
 373	1	3	-0.06911	-21.7871	1.14336	-20.5636
 374	1	3	-0.048109	-21.9016	1.37286	-19.19
 375	1	3	-0.057883	-22.163	3.53096	-20.9099
 376	1	3	-0.116273	-22.2468	3.74579	-19.5207
 377	1	3	-0.113036	-22.1132	2.63747	-18.6817
 378	1	2	0.502524	-22.2732	2.52473	-17.211
 379	1	1	0.0355	-22.1825	1.16725	-16.9345
 380	1	2	0.450202	-21.9372	0.402262	-18.0655
 381	1	3	-0.097429	-22.4017	0.632672	-15.6368
 382	1	3	-0.043121	-21.3108	0.447008	-14.7584
 383	1	3	-0.007101	-21.5617	0.101383	-13.4067
 384	1	3	0.055122	-23.7221	0.39243	-15.2095
 385	1	3	-0.325582	-23.9463	-0.0635247	-13.9067
 386	1	3	0.061609	-22.8854	-0.210174	-13.0038
 387	1	7	0.04075	-19.8889	0.671168	-15.2915
 388	1	9	-0.311814	-20.531	0.186646	-12.4655
 389	1	6	0.16104	-22.4563	4.73173	-19.1102
 390	1	6	0.14041	-22.3274	4.38364	-21.5626
 391	1	6	0.147774	-21.6661	0.121676	-20.9079
 392	1	5	-0.476838	-21.8564	-0.811197	-18.1543
 393	1	5	-0.479462	-22.5301	3.43726	-16.4436
 394	1	7	-0.144762	-24.9149	0.611206	-16.1326
 395	1	10	0.052647	-24.9265	1.63223	-16.5336
 396	1	10	0.065097	-25.8668	0.462893	-15.6085
 397	1	10	0.048024	-24.8898	-0.0879242	-16.9776
 398	1	7	-0.169984	-23.2273	-0.720957	-11.6121
 399	1	6	0.223059	-24.9605	-0.279232	-13.5856
 400	1	10	0.004219	-22.4167	-1.33037	-11.1947
 401	1	10	0.100409	-24.1194	-1.35755	-11.6298
 402	1	10	0.163068	-23.4319	0.107559	-10.9247
 403	1	10	0.042023	-19.1043	0.405114	-14.5754
 404	1	10	0.011973	-19.7334	1.71788	-15.5795
 405	1	10	-0.068283	-19.7096	0.0598407	-16.1842
 406	1	4	0.330652	-19.5883	0.135696	-12.8187
 407	1	1	0.4882	-22.5105	18.1149	-39.5755
 408	1	2	0.025477	-22.2074	18.5391	-38.2854
 409	1	3	-0.008635	-21.7981	17.2952	-37.5883
 410	1	2	0.050267	-22.2903	16.7619	-39.8067
 411	1	3	0.063619	-21.8174	16.2507	-38.4949
 412	1	5	-0.374081	-22.2707	19.6589	-37.8067
 413	1	5	-0.389097	-22.4774	16.1176	-40.8265
 414	1	3	-0.003634	-21.4711	17.0984	-36.2443
 415	1	3	-0.04742	-21.4339	14.9625	-38.1197
 416	1	3	-0.200211	-21.0676	14.75	-36.7751
 417	1	3	-0.05806	-21.1338	15.7918	-35.8046
 418	1	6	0.16443	-21.4917	17.9537	-35.5771
 419	1	6	0.154232	-21.4212	14.1559	-38.8496
 420	1	6	0.179048	-20.7445	13.7519	-36.4885
 421	1	7	-0.076903	-20.7909	15.4992	-34.3157
 422	1	7	0.238473	-21.6337	16.3815	-33.3105
 423	1	8	-0.092232	-21.2079	17.6607	-33.2152
 424	1	8	-0.075474	-21.5934	15.8778	-32.0554
 425	1	8	-0.095932	-22.9388	16.4348	-33.6612
 426	1	7	0.340597	-19.2571	15.8172	-34.1405
 427	1	8	-0.110855	-18.4911	14.9578	-34.8505
 428	1	8	-0.104879	-18.8549	15.7643	-32.8501
 429	1	8	-0.10758	-18.9392	17.0532	-34.5895
 430	1	3	-0.066666	-21.1628	14.0182	-33.9981
 431	1	3	-0.06911	-20.2759	13.1243	-33.3421
 432	1	3	-0.048109	-20.708	11.8239	-33.0653
 433	1	3	-0.057883	-22.4652	13.5468	-34.3332
 434	1	3	-0.116273	-22.8821	12.2325	-34.0431
 435	1	3	-0.113036	-21.9714	11.3873	-33.4044
 436	1	2	0.502524	-22.1418	10.0078	-32.8792
 437	1	1	0.0355	-20.9593	9.72199	-32.2089
 438	1	2	0.450202	-20.026	10.7426	-32.3107
 439	1	3	-0.097429	-20.7827	8.58952	-31.3665
 440	1	3	-0.043121	-21.1623	8.66623	-30.0056
 441	1	3	-0.007101	-20.966	7.55134	-29.1488
 442	1	3	0.055122	-20.2093	7.41614	-31.8853
 443	1	3	-0.325582	-20.0277	6.31601	-31.0417
 444	1	3	0.061609	-20.3967	6.35924	-29.6869
 445	1	7	0.04075	-21.758	9.98647	-29.4799
 446	1	9	-0.311814	-21.3661	7.72188	-27.815
 447	1	6	0.16104	-23.8881	11.8905	-34.2793
 448	1	6	0.14041	-23.1709	14.2125	-34.8232
 449	1	6	0.147774	-19.2804	13.408	-33.0179
 450	1	5	-0.476838	-18.9198	10.8033	-31.8029
 451	1	5	-0.479462	-23.1597	9.33949	-32.9323
 452	1	7	-0.144762	-19.7675	7.31897	-33.3397
 453	1	10	0.052647	-19.475	6.2964	-33.6082
 454	1	10	0.065097	-18.9034	7.96875	-33.5271
 455	1	10	0.048024	-20.5737	7.61516	-34.022
 456	1	7	-0.169984	-20.1653	5.07376	-28.8985
 457	1	6	0.223059	-19.5869	5.41303	-31.4519
 458	1	10	0.004219	-19.5588	5.24321	-28.0024
 459	1	10	0.100409	-19.6275	4.32455	-29.4908
 460	1	10	0.163068	-21.1207	4.61536	-28.6164
 461	1	10	0.042023	-22.5405	10.3667	-30.1475
 462	1	10	0.011973	-20.9797	10.7565	-29.4073
 463	1	10	-0.068283	-22.2285	9.91072	-28.4928
 464	1	4	0.330652	-21.8013	8.58374	-27.5223
 465	1	1	0.4882	-17.0658	26.8858	-38.0695
 466	1	2	0.025477	-18.0287	27.81	-37.6701
 467	1	3	-0.008635	-18.9411	27.906	-38.841
 468	1	2	0.050267	-17.1906	26.4574	-39.3864
 469	1	3	0.063619	-18.4458	27.0977	-39.849
 470	1	5	-0.374081	-18.1598	28.3663	-36.5916
 471	1	5	-0.389097	-16.4653	25.7127	-40.026
 472	1	3	-0.003634	-20.1639	28.5767	-38.9688
 473	1	3	-0.04742	-19.1505	26.9061	-41.0362
 474	1	3	-0.200211	-20.3979	27.5458	-41.1703
 475	1	3	-0.05806	-20.9317	28.3845	-40.1503
 476	1	6	0.16443	-20.5032	29.1853	-38.1375
 477	1	6	0.154232	-18.7609	26.2435	-41.8061
 478	1	6	0.179048	-20.972	27.3552	-42.0737
 479	1	7	-0.076903	-22.3537	28.9878	-40.3595
 480	1	7	0.238473	-22.9596	29.6689	-39.0695
 481	1	8	-0.092232	-22.9458	28.848	-37.9949
 482	1	8	-0.075474	-24.2562	30.009	-39.2493
 483	1	8	-0.095932	-22.3045	30.7969	-38.7135
 484	1	7	0.340597	-22.2272	30.0743	-41.5007
 485	1	8	-0.110855	-21.2271	30.9471	-41.2413
 486	1	8	-0.104879	-23.3491	30.8106	-41.6665
 487	1	8	-0.10758	-21.9442	29.5319	-42.7066
 488	1	3	-0.066666	-23.2927	27.7974	-40.7117
 489	1	3	-0.06911	-23.2143	26.6286	-39.9129
 490	1	3	-0.048109	-24.0185	25.5308	-40.2248
 491	1	3	-0.057883	-24.2204	27.8116	-41.7935
 492	1	3	-0.116273	-25.0083	26.6811	-42.105
 493	1	3	-0.113036	-24.8781	25.5425	-41.3013
 494	1	2	0.502524	-25.4891	24.1882	-41.4155
 495	1	1	0.0355	-24.9274	23.4388	-40.3861
 496	1	2	0.450202	-24.0644	24.1885	-39.5976
 497	1	3	-0.097429	-25.0871	22.0298	-40.229
 498	1	3	-0.043121	-24.0233	21.1596	-40.5752
 499	1	3	-0.007101	-24.1315	19.7732	-40.3094
 500	1	3	0.055122	-26.2707	21.5117	-39.6646
 501	1	3	-0.325582	-26.3848	20.1309	-39.4506
 502	1	3	0.061609	-25.3325	19.2565	-39.7613
 503	1	7	0.04075	-22.727	21.7207	-41.1813
 504	1	9	-0.311814	-23.0157	18.971	-40.571
 505	1	6	0.16104	-25.6876	26.6833	-42.9555
 506	1	6	0.14041	-24.3322	28.6878	-42.4227
 507	1	6	0.147774	-22.5241	26.5549	-39.0756
 508	1	5	-0.476838	-23.386	23.816	-38.6558
 509	1	5	-0.479462	-26.2506	23.8155	-42.2922
 510	1	7	-0.144762	-27.425	22.4181	-39.2556
 511	1	10	0.052647	-28.2855	21.8418	-38.8942
 512	1	10	0.065097	-27.776	23.0216	-40.1012
 513	1	10	0.048024	-27.1228	23.0984	-38.4498
 514	1	7	-0.169984	-25.5456	17.771	-39.493
 515	1	6	0.223059	-27.2971	19.7332	-39.0165
 516	1	10	0.004219	-26.6083	17.5317	-39.3622
 517	1	10	0.100409	-25.0304	17.4593	-38.5768
 518	1	10	0.163068	-25.1794	17.1604	-40.3286
 519	1	10	0.042023	-22.0021	21.9569	-40.3915
 520	1	10	0.011973	-22.8966	22.633	-41.7653
 521	1	10	-0.068283	-22.2497	21.0124	-41.8705
 522	1	4	0.330652	-22.2222	19.4423	-40.9806
 523	1	1	0.4882	-7.57196	14.2495	-38.5152
 524	1	2	0.025477	-8.80412	14.8977	-38.4728
 525	1	3	-0.008635	-8.71463	15.924	-39.5446
 526	1	2	0.050267	-6.72013	14.7021	-39.5172
 527	1	3	0.063619	-7.47737	15.8127	-40.153
 528	1	5	-0.374081	-9.75492	14.6883	-37.738
 529	1	5	-0.389097	-5.60768	14.3011	-39.8183
 530	1	3	-0.003634	-9.64873	16.8872	-39.9471
 531	1	3	-0.04742	-7.10605	16.6697	-41.1893
 532	1	3	-0.200211	-8.02261	17.6635	-41.5911
 533	1	3	-0.05806	-9.30063	17.805	-40.9742
 534	1	6	0.16443	-10.6183	16.9246	-39.4565
 535	1	6	0.154232	-6.13295	16.5668	-41.665
 536	1	6	0.179048	-7.71555	18.3133	-42.4027
 537	1	7	-0.076903	-10.34	18.8771	-41.4342
 538	1	7	0.238473	-9.67944	20.1053	-42.1731
 539	1	8	-0.092232	-8.63684	20.6012	-41.468
 540	1	8	-0.075474	-10.5492	21.13	-42.3277
 541	1	8	-0.095932	-9.23012	19.8094	-43.4137
 542	1	7	0.340597	-11.3218	18.1301	-42.4171
 543	1	8	-0.110855	-12.1371	17.2852	-41.7463
 544	1	8	-0.104879	-10.6492	17.3783	-43.3189
 545	1	8	-0.10758	-12.1074	18.9626	-43.1368
 546	1	3	-0.066666	-11.0626	19.484	-40.1911
 547	1	3	-0.06911	-12.4089	19.9398	-40.2461
 548	1	3	-0.048109	-12.9558	20.5921	-39.1331
 549	1	3	-0.057883	-10.3239	19.7266	-38.9979
 550	1	3	-0.116273	-10.9005	20.3612	-37.8792
 551	1	3	-0.113036	-12.2266	20.7904	-37.98
 552	1	2	0.502524	-13.052	21.5919	-37.0379
 553	1	1	0.0355	-14.2328	21.8657	-37.7156
 554	1	2	0.450202	-14.2712	21.2711	-38.9715
 555	1	3	-0.097429	-15.2416	22.7392	-37.2097
 556	1	3	-0.043121	-15.1435	24.1357	-37.4287
 557	1	3	-0.007101	-16.1442	25.0012	-36.9167
 558	1	3	0.055122	-16.3242	22.2081	-36.4809
 559	1	3	-0.325582	-17.2866	23.0758	-35.9485
 560	1	3	0.061609	-17.2036	24.4614	-36.1464
 561	1	7	0.04075	-13.9655	24.6794	-38.2502
 562	1	9	-0.311814	-16.0812	26.3689	-37.2039
 563	1	6	0.16104	-10.3214	20.5594	-36.9794
 564	1	6	0.14041	-9.2745	19.4499	-38.943
 565	1	6	0.147774	-13.0186	19.8556	-41.1392
 566	1	5	-0.476838	-15.1558	21.3342	-39.8075
 567	1	5	-0.479462	-12.7044	21.9906	-35.9395
 568	1	7	-0.144762	-16.4644	20.7107	-36.2413
 569	1	10	0.052647	-15.6382	20.3324	-35.6269
 570	1	10	0.065097	-16.4696	20.1588	-37.1894
 571	1	10	0.048024	-17.3995	20.4687	-35.7213
 572	1	7	-0.169984	-18.2651	25.3329	-35.4873
 573	1	6	0.223059	-18.1102	22.6683	-35.3693
 574	1	10	0.004219	-18.7558	24.8107	-34.6563
 575	1	10	0.100409	-19.0463	25.6151	-36.2024
 576	1	10	0.163068	-17.828	26.2495	-35.0717
 577	1	10	0.042023	-14.0063	24.3018	-39.2801
 578	1	10	0.011973	-13.0074	24.3675	-37.8169
 579	1	10	-0.068283	-13.9347	25.7741	-38.3097
 580	1	4	0.330652	-15.1991	26.6953	-37.5728
 581	1	1	0.4882	2.98534	3.11372	-31.7057
 582	1	2	0.025477	3.08098	4.2212	-32.5415
 583	1	3	-0.008635	1.88203	4.11742	-33.4154
 584	1	2	0.050267	1.89868	2.28556	-31.9661
 585	1	3	0.063619	1.19541	2.96615	-33.0837
 586	1	5	-0.374081	3.95504	5.0706	-32.5877
 587	1	5	-0.389097	1.56676	1.2544	-31.4026
 588	1	3	-0.003634	1.42526	4.98467	-34.4138
 589	1	3	-0.04742	0.0258308	2.61348	-33.7531
 590	1	3	-0.200211	-0.432946	3.45989	-34.7832
 591	1	3	-0.05806	0.249759	4.66112	-35.1529
 592	1	6	0.16443	1.99971	5.88636	-34.5841
 593	1	6	0.154232	-0.509564	1.70606	-33.4818
 594	1	6	0.179048	-1.34134	3.14474	-35.2789
 595	1	7	-0.076903	-0.287592	5.62464	-36.2797
 596	1	7	0.238473	-1.2535	4.86709	-37.2826
 597	1	8	-0.092232	-0.691408	3.73178	-37.7561
 598	1	8	-0.075474	-1.62076	5.59493	-38.3604
 599	1	8	-0.095932	-2.43358	4.5452	-36.7049
 600	1	7	0.340597	0.952711	6.20274	-37.091
 601	1	8	-0.110855	1.57091	7.20233	-36.4226
 602	1	8	-0.104879	0.660724	6.73776	-38.2962
 603	1	8	-0.10758	1.87368	5.24277	-37.3344
 604	1	3	-0.066666	-1.11536	6.7761	-35.636
 605	1	3	-0.06911	-1.50527	7.89858	-36.4127
 606	1	3	-0.048109	-2.3246	8.87699	-35.8388
 607	1	3	-0.057883	-1.58085	6.70029	-34.2899
 608	1	3	-0.116273	-2.41105	7.6963	-33.7328
 609	1	3	-0.113036	-2.7778	8.77655	-34.5416
 610	1	2	0.502524	-3.66592	9.94077	-34.2686
 611	1	1	0.0355	-3.67199	10.6908	-35.4407
 612	1	2	0.450202	-2.88679	10.1166	-36.4337
 613	1	3	-0.097429	-4.3973	11.9096	-35.6233
 614	1	3	-0.043121	-5.52694	11.956	-36.4804
 615	1	3	-0.007101	-6.17578	13.1933	-36.7446
 616	1	3	0.055122	-3.94171	13.0847	-34.9928
 617	1	3	-0.325582	-4.61261	14.2914	-35.2207
 618	1	3	0.061609	-5.71752	14.3662	-36.0829
 619	1	7	0.04075	-6.02188	10.6624	-37.1462
 620	1	9	-0.311814	-7.24793	13.1822	-37.6535
 621	1	6	0.16104	-2.77523	7.62174	-32.7101
 622	1	6	0.14041	-1.3299	5.85372	-33.6594
 623	1	6	0.147774	-1.21532	8.01206	-37.4526
 624	1	5	-0.476838	-2.69342	10.5202	-37.5679
 625	1	5	-0.479462	-4.25721	10.1624	-33.2251
 626	1	7	-0.144762	-2.72246	13.0894	-34.077
 627	1	10	0.052647	-1.83362	12.7152	-34.5997
 628	1	10	0.065097	-2.88896	12.4652	-33.1909