pySIMM System Object

1394 atoms
1513 bonds
2664 angles
3932 dihedrals
384 impropers

10 atom types
14 bond types
24 angle types
9 dihedral types
4 improper types

-176.273879 176.273879 xlo xhi
-176.273879 176.273879 ylo yhi
-176.273879 176.273879 zlo zhi

Masses

   1	14.01	# n
   2	12.01	# c
   3	12.01	# ca
   4	1.008	# hn
   5	16.0	# o
   6	1.008	# ha
   7	12.01	# c3
   8	19.0	# f
   9	14.01	# nh
  10	1.008	# hc

Pair Coeffs

   1	0.17	3.249998523775958	# n
   2	0.086	3.3996695084235347	# c
   3	0.086	3.3996695084235347	# ca
   4	0.0157	1.069078461768407	# hn
   5	0.21	2.959921901149463	# o
   6	0.015	2.59964245953351	# ha
   7	0.1094	3.3996695084235347	# c3
   8	0.061	3.1181455134911875	# f
   9	0.17	3.249998523775958	# nh
  10	0.0157	2.649532787749369	# hc

Bond Coeffs

   1	345.9	1.4906	# c,ca
   2	345.8	1.086	# ca,ha
   3	637.7	1.2183	# c,o
   4	321.0	1.5156	# c3,ca
   5	300.9	1.5375	# c3,c3
   6	384.2	1.4121	# ca,n
   7	330.6	1.0969	# c3,hc
   8	404.6	1.0121	# hn,nh
   9	403.2	1.0129	# hn,n
  10	356.9	1.3497	# c3,f
  11	417.9	1.3859	# ca,nh
  12	427.6	1.3789	# c,n
  13	461.1	1.3984	# ca,ca
  14	452.5	1.4016	# n,nh

Angle Coeffs

   1	74.22	123.05	# n,c,o
   2	40.07	115.12	# hn,nh,hn
   3	68.29	120.95	# ca,ca,nh
   4	66.62	120.02	# ca,ca,ca
   5	48.42	116.07	# ca,nh,hn
   6	68.72	122.6	# ca,c,o
   7	48.33	117.55	# c,n,hn
   8	64.28	120.33	# c,ca,ca
   9	67.68	115.25	# ca,c,n
  10	39.4	107.58	# hc,c3,hc
  11	63.53	120.77	# c3,ca,ca
  12	67.87	120.19	# ca,ca,n
  13	70.89	107.36	# f,c3,f
  14	66.11	109.24	# c3,c3,f
  15	46.8	110.47	# ca,c3,hc
  16	62.86	111.51	# c3,c3,c3
  17	63.15	112.07	# c3,c3,ca
  18	63.82	123.71	# c,n,ca
  19	63.56	112.24	# ca,c3,ca
  20	63.74	127.08	# c,n,c
  21	48.18	119.88	# ca,ca,ha
  22	67.01	118.71	# c,n,nh
  23	67.61	116.03	# ca,nh,n
  24	50.88	108.17	# hn,nh,n

Dihedral Coeffs

   1	2	2.5	2	180	2.0	1	0	# hn,n,c,o
   2	1	3.625	2	180	# X,ca,ca,X
   3	1	0.15555555555555556	3	0	# X,c3,c3,X
   4	1	1.0	2	180	# X,c,ca,X
   5	1	0.0	2	0	# X,c3,ca,X
   6	1	2.5	2	180	# X,c,n,X
   7	1	0.45	2	180	# X,ca,n,X
   8	1	1.05	2	180	# X,ca,nh,X
   9	1	1.1	2	0	# X,n,nh,X

Improper Coeffs

   1	10.5	-1	2	# c,X,X,o
   2	1.1	-1	2	# ca,X,X,ha
   3	1.1	-1	2	# ca,ca,ca,c3
   4	1.1	-1	2	# n,X,X,hn

Atoms

   1	1	1	0.4882	22.6288	-41.8228	-40.7425
   2	1	2	0.025477	23.3154	-42.8715	-40.1384
   3	1	3	-0.008635	24.0157	-42.2226	-38.9989
   4	1	2	0.050267	22.9298	-40.5631	-40.2334
   5	1	3	0.063619	23.7618	-40.8628	-39.0421
   6	1	5	-0.374081	23.2384	-44.0678	-40.3668
   7	1	5	-0.389097	22.5275	-39.4693	-40.601
   8	1	3	-0.003634	24.6663	-42.815	-37.9113
   9	1	3	-0.04742	24.0979	-40.0335	-37.9728
  10	1	3	-0.200211	24.7205	-40.6185	-36.8523
  11	1	3	-0.05806	25.0488	-42.0052	-36.8084
  12	1	6	0.16443	24.7875	-43.8928	-37.9101
  13	1	6	0.154232	23.8118	-38.9843	-37.983
  14	1	6	0.179048	24.9073	-39.9789	-35.9939
  15	1	7	-0.076903	25.6698	-42.6269	-35.5204
  16	1	7	0.238473	24.4603	-43.2028	-34.6861
  17	1	8	-0.092232	24.8591	-43.9075	-33.6029
  18	1	8	-0.075474	23.6821	-44.0382	-35.4114
  19	1	8	-0.095932	23.6381	-42.2159	-34.2614
  20	1	7	0.340597	26.6939	-43.7864	-35.84
  21	1	8	-0.110855	26.1111	-44.9459	-36.2174
  22	1	8	-0.104879	27.456	-44.0826	-34.7622
  23	1	8	-0.10758	27.5433	-43.4424	-36.8338
  24	1	3	-0.066666	26.4771	-41.526	-34.7603
  25	1	3	-0.06911	27.4301	-40.7589	-35.4821
  26	1	3	-0.048109	28.1073	-39.7208	-34.8327
  27	1	3	-0.057883	26.2951	-41.2351	-33.3757
  28	1	3	-0.116273	26.9913	-40.188	-32.7393
  29	1	3	-0.113036	27.8865	-39.435	-33.5025
  30	1	2	0.502524	28.7008	-38.2457	-33.1395
  31	1	1	0.0355	29.3611	-37.8777	-34.3051
  32	1	2	0.450202	29.0759	-38.7279	-35.3669
  33	1	3	-0.097429	30.2069	-36.7345	-34.411
  34	1	3	-0.043121	29.7497	-35.5663	-35.0719
  35	1	3	-0.007101	30.616	-34.454	-35.1961
  36	1	3	0.055122	31.5059	-36.7788	-33.8611
  37	1	3	-0.325582	32.3437	-35.6617	-33.9787
  38	1	3	0.061609	31.9133	-34.5051	-34.6438
  39	1	7	0.04075	28.3343	-35.5211	-35.6629
  40	1	9	-0.311814	30.2028	-33.3093	-35.8714
  41	1	6	0.16104	26.8263	-39.9566	-31.6885
  42	1	6	0.14041	25.5975	-41.7968	-32.7666
  43	1	6	0.147774	27.6078	-40.9277	-36.5418
  44	1	5	-0.476838	29.4766	-38.6577	-36.5161
  45	1	5	-0.479462	28.7258	-37.6962	-32.0515
  46	1	7	-0.144762	32.0289	-38.0128	-33.1352
  47	1	10	0.052647	31.8243	-38.93	-33.7007
  48	1	10	0.065097	31.5632	-38.1079	-32.1462
  49	1	10	0.048024	33.1142	-37.9632	-32.9839
  50	1	7	-0.169984	32.8646	-33.3229	-34.7605
  51	1	6	0.223059	33.3423	-35.6931	-33.5538
  52	1	10	0.004219	33.8443	-33.5343	-34.3133
  53	1	10	0.100409	32.4493	-32.4414	-34.2574
  54	1	10	0.163068	33.0255	-33.0649	-35.8139
  55	1	10	0.042023	27.6052	-36.0054	-35.0018
  56	1	10	0.011973	28.3023	-36.0349	-36.6315
  57	1	10	-0.068283	27.9672	-34.4996	-35.8223
  58	1	4	0.330652	29.2507	-33.2543	-36.2144
  59	1	1	0.4882	16.2869	-37.7628	-27.7366
  60	1	2	0.025477	16.1517	-39.1301	-27.9732
  61	1	3	-0.008635	15.8551	-39.225	-29.4268
  62	1	2	0.050267	16.1143	-36.9691	-28.8666
  63	1	3	0.063619	15.8349	-37.9468	-29.9543
  64	1	5	-0.374081	16.3655	-40.0621	-27.2153
  65	1	5	-0.389097	16.2988	-35.7692	-28.9904
  66	1	3	-0.003634	15.7048	-40.361	-30.2329
  67	1	3	-0.04742	15.656	-37.7388	-31.3238
  68	1	3	-0.200211	15.5101	-38.8707	-32.1539
  69	1	3	-0.05806	15.5465	-40.1971	-31.6368
  70	1	6	0.16443	15.746	-41.3335	-29.7543
  71	1	6	0.154232	15.6585	-36.7303	-31.7316
  72	1	6	0.179048	15.3934	-38.7118	-33.2239
  73	1	7	-0.076903	15.4321	-41.3957	-32.6324
  74	1	7	0.238473	15.822	-42.785	-31.9956
  75	1	8	-0.092232	14.9315	-43.2096	-31.0707
  76	1	8	-0.075474	17.0357	-42.7416	-31.4001
  77	1	8	-0.095932	15.905	-43.7608	-32.9288
  78	1	7	0.340597	13.926	-41.4423	-33.1063
  79	1	8	-0.110855	13.0771	-41.3573	-32.0564
  80	1	8	-0.104879	13.5992	-42.5755	-33.7675
  81	1	8	-0.10758	13.6223	-40.41	-33.9252
  82	1	3	-0.066666	16.4438	-41.165	-33.7951
  83	1	3	-0.06911	16.1611	-41.5145	-35.1445
  84	1	3	-0.048109	17.1427	-41.2988	-36.1227
  85	1	3	-0.057883	17.7331	-40.6422	-33.4917
  86	1	3	-0.116273	18.7026	-40.4252	-34.4893
  87	1	3	-0.113036	18.3727	-40.7613	-35.8043
  88	1	2	0.502524	19.1601	-40.6201	-37.0552
  89	1	1	0.0355	18.3304	-41.0751	-38.0737
  90	1	2	0.450202	17.1065	-41.531	-37.595
  91	1	3	-0.097429	18.6974	-40.9815	-39.4502
  92	1	3	-0.043121	19.7424	-41.7903	-39.9578
  93	1	3	-0.007101	20.3176	-41.4809	-41.22
  94	1	3	0.055122	18.1383	-39.9605	-40.247
  95	1	3	-0.325582	18.6357	-39.7445	-41.5386
  96	1	3	0.061609	19.7359	-40.4685	-42.0172
  97	1	7	0.04075	20.2551	-42.9627	-39.1141
  98	1	9	-0.311814	21.5448	-42.0275	-41.622
  99	1	6	0.16104	19.6797	-40.0104	-34.2501
 100	1	6	0.14041	17.9923	-40.3975	-32.4649
 101	1	6	0.147774	15.2133	-41.9458	-35.4502
 102	1	5	-0.476838	16.1638	-41.9695	-38.232
 103	1	5	-0.479462	20.2822	-40.1475	-37.1457
 104	1	7	-0.144762	17.0413	-39.0419	-39.7216
 105	1	10	0.052647	16.1054	-39.5939	-39.5714
 106	1	10	0.065097	16.8278	-38.2232	-40.4189
 107	1	10	0.048024	17.3276	-38.5854	-38.7661
 108	1	7	-0.169984	20.3412	-40.0514	-43.3517
 109	1	6	0.223059	18.2158	-38.9476	-42.1444
 110	1	10	0.004219	19.644	-39.4371	-43.9353
 111	1	10	0.100409	20.5987	-40.918	-43.9714
 112	1	10	0.163068	21.2452	-39.4499	-43.1862
 113	1	10	0.042023	20.6312	-43.7784	-39.7432
 114	1	10	0.011973	21.0575	-42.6467	-38.4367
 115	1	10	-0.068283	19.4591	-43.3996	-38.4983
 116	1	4	0.330652	21.8752	-41.7874	-42.5415
 117	1	1	0.4882	19.844	-28.2987	-13.5665
 118	1	2	0.025477	20.4479	-27.804	-14.7203
 119	1	3	-0.008635	19.7613	-28.52	-15.8344
 120	1	2	0.050267	18.8857	-29.2821	-13.8058
 121	1	3	0.063619	18.826	-29.3798	-15.2885
 122	1	5	-0.374081	21.3895	-27.0345	-14.8145
 123	1	5	-0.389097	18.2623	-29.9592	-13.0029
 124	1	3	-0.003634	19.9472	-28.4251	-17.2215
 125	1	3	-0.04742	17.9987	-30.1576	-16.1017
 126	1	3	-0.200211	18.153	-30.0545	-17.5002
 127	1	3	-0.05806	19.1461	-29.2217	-18.0898
 128	1	6	0.16443	20.6906	-27.7268	-17.59
 129	1	6	0.154232	17.2492	-30.8095	-15.6587
 130	1	6	0.179048	17.4834	-30.6321	-18.1333
 131	1	7	-0.076903	19.2564	-29.1392	-19.6477
 132	1	7	0.238473	18.2425	-28.0166	-20.0915
 133	1	8	-0.092232	16.9608	-28.4099	-19.9121
 134	1	8	-0.075474	18.384	-27.6532	-21.3865
 135	1	8	-0.095932	18.3916	-26.8863	-19.3634
 136	1	7	0.340597	20.7101	-28.7655	-20.1356
 137	1	8	-0.110855	21.0317	-27.4673	-19.9376
 138	1	8	-0.104879	20.8669	-28.9956	-21.4596
 139	1	8	-0.10758	21.6486	-29.5065	-19.5038
 140	1	3	-0.066666	18.9364	-30.5344	-20.2814
 141	1	3	-0.06911	18.1137	-30.6968	-21.4331
 142	1	3	-0.048109	17.8732	-31.9869	-21.9298
 143	1	3	-0.057883	19.5233	-31.701	-19.7143
 144	1	3	-0.116273	19.2618	-32.9907	-20.2216
 145	1	3	-0.113036	18.4184	-33.1025	-21.3316
 146	1	2	0.502524	17.9172	-34.3066	-22.0479
 147	1	1	0.0355	17.0777	-33.8333	-23.0504
 148	1	2	0.450202	17.0187	-32.442	-23.0653
 149	1	3	-0.097429	16.2917	-34.6962	-23.8819
 150	1	3	-0.043121	16.895	-35.4786	-24.9001
 151	1	3	-0.007101	16.1287	-36.4379	-25.6193
 152	1	3	0.055122	14.9143	-34.8372	-23.6144
 153	1	3	-0.325582	14.1582	-35.7593	-24.3486
 154	1	3	0.061609	14.7458	-36.5778	-25.3257
 155	1	7	0.04075	18.3937	-35.3061	-25.1858
 156	1	9	-0.311814	16.8126	-37.2601	-26.5285
 157	1	6	0.16104	19.6929	-33.8779	-19.7615
 158	1	6	0.14041	20.1778	-31.6091	-18.8509
 159	1	6	0.147774	17.6477	-29.861	-21.9439
 160	1	5	-0.476838	16.3656	-31.7255	-23.8043
 161	1	5	-0.479462	18.1635	-35.4653	-21.7594
 162	1	7	-0.144762	14.2228	-34.045	-22.5102
 163	1	10	0.052647	14.7731	-34.1135	-21.5638
 164	1	10	0.065097	13.2085	-34.4149	-22.3184
 165	1	10	0.048024	14.137	-32.9857	-22.7818
 166	1	7	-0.169984	13.8449	-37.6203	-25.9782
 167	1	6	0.223059	13.1019	-35.8643	-24.1235
 168	1	10	0.004219	14.3235	-38.605	-26.0084
 169	1	10	0.100409	13.5709	-37.3248	-26.9978
 170	1	10	0.163068	12.9133	-37.755	-25.4168
 171	1	10	0.042023	18.9928	-35.9037	-24.4873
 172	1	10	0.011973	18.7066	-34.2594	-25.0862
 173	1	10	-0.068283	18.673	-35.6068	-26.2035
 174	1	4	0.330652	17.7917	-37.0653	-26.6739
 175	1	1	0.4882	22.7576	-21.6727	0.373211
 176	1	2	0.025477	22.5375	-20.6436	-0.53512
 177	1	3	-0.008635	23.2006	-21.1103	-1.78134
 178	1	2	0.050267	23.5167	-22.7281	-0.130421
 179	1	3	0.063619	23.774	-22.3456	-1.54516
 180	1	5	-0.374081	21.9881	-19.5697	-0.353499
 181	1	5	-0.389097	23.9207	-23.727	0.443309
 182	1	3	-0.003634	23.3289	-20.4641	-3.0142
 183	1	3	-0.04742	24.4879	-23.0113	-2.54579
 184	1	3	-0.200211	24.6251	-22.376	-3.79955
 185	1	3	-0.05806	24.0607	-21.0954	-4.05864
 186	1	6	0.16443	22.8866	-19.4794	-3.11036
 187	1	6	0.154232	24.9436	-23.9785	-2.34489
 188	1	6	0.179048	25.2099	-22.873	-4.57088
 189	1	7	-0.076903	24.3882	-20.3795	-5.40619
 190	1	7	0.238473	23.4495	-19.1427	-5.6892
 191	1	8	-0.092232	23.6793	-18.099	-4.86028
 192	1	8	-0.075474	22.1446	-19.48	-5.57634
 193	1	8	-0.095932	23.6037	-18.661	-6.94383
 194	1	7	0.340597	25.882	-19.8823	-5.26245
 195	1	8	-0.110855	26.1083	-19.3232	-4.05057
 196	1	8	-0.104879	26.2395	-18.9479	-6.172
 197	1	8	-0.10758	26.7585	-20.9052	-5.38223
 198	1	3	-0.066666	24.1779	-21.3485	-6.6136
 199	1	3	-0.06911	23.1245	-22.3031	-6.59325
 200	1	3	-0.048109	22.8363	-23.0333	-7.75898
 201	1	3	-0.057883	24.9106	-21.1901	-7.82626
 202	1	3	-0.116273	24.5885	-21.9125	-8.99198
 203	1	3	-0.113036	23.5278	-22.8194	-8.93248
 204	1	2	0.502524	22.8612	-23.5858	-10.0201
 205	1	1	0.0355	21.7809	-24.2274	-9.42542
 206	1	2	0.450202	21.7328	-23.9918	-8.05158
 207	1	3	-0.097429	20.7572	-24.9083	-10.1659
 208	1	3	-0.043121	21.0115	-26.1276	-10.8539
 209	1	3	-0.007101	19.9834	-26.7531	-11.6153
 210	1	3	0.055122	19.4757	-24.3189	-10.2445
 211	1	3	-0.325582	18.4602	-24.9639	-10.9575
 212	1	3	0.061609	18.6884	-26.1708	-11.6321
 213	1	7	0.04075	22.4043	-26.7706	-10.8006
 214	1	9	-0.311814	20.2826	-27.9641	-12.2653
 215	1	6	0.16104	25.1112	-21.7311	-9.92931
 216	1	6	0.14041	25.6975	-20.4501	-7.91017
 217	1	6	0.147774	22.4945	-22.4323	-5.71645
 218	1	5	-0.476838	20.9304	-24.425	-7.24242
 219	1	5	-0.479462	23.1639	-23.5605	-11.2004
 220	1	7	-0.144762	19.1382	-22.99	-9.57405
 221	1	10	0.052647	18.2196	-22.5533	-9.98436
 222	1	10	0.065097	19.933	-22.2481	-9.71681
 223	1	10	0.048024	18.979	-23.122	-8.49675
 224	1	7	-0.169984	17.4828	-26.8137	-12.3057
 225	1	6	0.223059	17.4721	-24.5153	-10.9814
 226	1	10	0.004219	17.5897	-26.8308	-13.3966
 227	1	10	0.100409	16.5557	-26.2712	-12.087
 228	1	10	0.163068	17.3348	-27.8371	-11.9397
 229	1	10	0.042023	22.993	-26.4444	-9.93585
 230	1	10	0.011973	22.9764	-26.5259	-11.7044
 231	1	10	-0.068283	22.3464	-27.8644	-10.7303
 232	1	4	0.330652	21.2197	-28.3237	-12.1572
 233	1	1	0.4882	10.7425	-16.6505	10.1762
 234	1	2	0.025477	11.7642	-17.4466	9.66376
 235	1	3	-0.008635	12.8792	-16.4946	9.41411
 236	1	2	0.050267	11.0442	-15.2951	10.2337
 237	1	3	0.063619	12.4518	-15.2246	9.75865
 238	1	5	-0.374081	11.7821	-18.6547	9.49744
 239	1	5	-0.389097	10.3393	-14.3677	10.5973
 240	1	3	-0.003634	14.1895	-16.738	8.97974
 241	1	3	-0.04742	13.3151	-14.1315	9.68582
 242	1	3	-0.200211	14.647	-14.361	9.28239
 243	1	3	-0.05806	15.1157	-15.6621	8.93096
 244	1	6	0.16443	14.4875	-17.7547	8.7357
 245	1	6	0.154232	12.9708	-13.1408	9.97505
 246	1	6	0.179048	15.3093	-13.5023	9.28358
 247	1	7	-0.076903	16.6149	-15.9674	8.61667
 248	1	7	0.238473	17.4957	-14.6721	8.40809
 249	1	8	-0.092232	16.9639	-13.8371	7.48593
 250	1	8	-0.075474	18.7338	-14.9743	7.95393
 251	1	8	-0.095932	17.6681	-13.9592	9.54459
 252	1	7	0.340597	17.1713	-16.7637	9.86552
 253	1	8	-0.110855	16.6768	-18.0207	9.93046
 254	1	8	-0.104879	16.8262	-16.1636	11.028
 255	1	8	-0.10758	18.5187	-16.8749	9.88234
 256	1	3	-0.066666	16.7167	-16.7575	7.27824
 257	1	3	-0.06911	17.6351	-17.8267	7.08873
 258	1	3	-0.048109	17.7836	-18.38	5.80991
 259	1	3	-0.057883	15.9672	-16.3099	6.15436
 260	1	3	-0.116273	16.1392	-16.8739	4.87264
 261	1	3	-0.113036	17.0728	-17.9058	4.72867
 262	1	2	0.502524	17.5009	-18.6659	3.5222
 263	1	1	0.0355	18.4397	-19.5917	3.96955
 264	1	2	0.450202	18.6716	-19.4773	5.33638
 265	1	3	-0.097429	19.0186	-20.6108	3.14649
 266	1	3	-0.043121	20.3959	-20.5858	2.80065
 267	1	3	-0.007101	20.9503	-21.6319	2.01242
 268	1	3	0.055122	18.2018	-21.6733	2.70391
 269	1	3	-0.325582	18.7581	-22.6964	1.92847
 270	1	3	0.061609	20.1172	-22.6993	1.59048
 271	1	7	0.04075	21.2756	-19.4313	3.30149
 272	1	9	-0.311814	22.3189	-21.6044	1.71146
 273	1	6	0.16104	15.5837	-16.5047	4.01245
 274	1	6	0.14041	15.2732	-15.4802	6.26364
 275	1	6	0.147774	18.2584	-18.2135	7.88793
 276	1	5	-0.476838	19.414	-20.1493	6.0321
 277	1	5	-0.479462	17.0755	-18.5066	2.39105
 278	1	7	-0.144762	16.7238	-21.7679	3.06682
 279	1	10	0.052647	16.5505	-21.5385	4.1251
 280	1	10	0.065097	16.3298	-22.776	2.8902
 281	1	10	0.048024	16.1277	-21.0742	2.46127
 282	1	7	-0.169984	20.6351	-23.9106	0.824811
 283	1	6	0.223059	18.1265	-23.5174	1.60375
 284	1	10	0.004219	19.8966	-24.7213	0.798124
 285	1	10	0.100409	21.5344	-24.3207	1.30016
 286	1	10	0.163068	20.8677	-23.6581	-0.215208
 287	1	10	0.042023	21.5341	-19.5729	4.35844
 288	1	10	0.011973	20.761	-18.4668	3.20958
 289	1	10	-0.068283	22.218	-19.3301	2.74944
 290	1	4	0.330652	22.8511	-20.8632	2.14441
 291	1	1	0.4882	-4.4477	-20.5549	10.8808
 292	1	2	0.025477	-3.09995	-20.4832	10.526
 293	1	3	-0.008635	-2.38522	-21.1131	11.672
 294	1	2	0.050267	-4.67249	-21.0919	12.1437
 295	1	3	0.063619	-3.32373	-21.4835	12.6158
 296	1	5	-0.374081	-2.59544	-20.0358	9.50937
 297	1	5	-0.389097	-5.71783	-21.1949	12.7625
 298	1	3	-0.003634	-1.02235	-21.3898	11.8503
 299	1	3	-0.04742	-2.9573	-22.1636	13.7749
 300	1	3	-0.200211	-1.59781	-22.4846	13.9538
 301	1	3	-0.05806	-0.601641	-22.113	13.0017
 302	1	6	0.16443	-0.318571	-21.0736	11.0859
 303	1	6	0.154232	-3.71487	-22.4664	14.495
 304	1	6	0.179048	-1.35397	-23.0513	14.8447
 305	1	7	-0.076903	0.901383	-22.5274	13.1413
 306	1	7	0.238473	1.21773	-23.2978	14.4835
 307	1	8	-0.092232	0.577963	-24.4871	14.5631
 308	1	8	-0.075474	0.88112	-22.5674	15.5718
 309	1	8	-0.095932	2.53591	-23.562	14.6332
 310	1	7	0.340597	1.22201	-23.4782	11.9146
 311	1	8	-0.110855	1.37523	-22.7856	10.7637
 312	1	8	-0.104879	0.220253	-24.363	11.7035
 313	1	8	-0.10758	2.34458	-24.2171	12.0587
 314	1	3	-0.066666	1.79534	-21.2548	13.1745
 315	1	3	-0.06911	3.15629	-21.3054	12.7757
 316	1	3	-0.048109	3.96762	-20.1839	12.9761
 317	1	3	-0.057883	1.31252	-20.0497	13.7611
 318	1	3	-0.116273	2.14623	-18.9242	13.9425
 319	1	3	-0.113036	3.48447	-19.0242	13.544
 320	1	2	0.502524	4.62089	-18.0667	13.6776
 321	1	1	0.0355	5.73281	-18.7374	13.1787
 322	1	2	0.450202	5.42176	-20.0144	12.732
 323	1	3	-0.097429	7.0648	-18.225	13.1389
 324	1	3	-0.043121	7.61501	-17.7662	11.9174
 325	1	3	-0.007101	9.00529	-17.4886	11.8146
 326	1	3	0.055122	7.87445	-18.3261	14.2856
 327	1	3	-0.325582	9.2342	-18.0081	14.1932
 328	1	3	0.061609	9.81922	-17.6218	12.976
 329	1	7	0.04075	6.69604	-17.6322	10.6936
 330	1	9	-0.311814	9.48248	-17.1673	10.5318
 331	1	6	0.16104	1.77462	-18.0174	14.416
 332	1	6	0.14041	0.290598	-19.9916	14.1264
 333	1	6	0.147774	3.61188	-22.2043	12.3733
 334	1	5	-0.476838	6.17345	-20.8467	12.2537
 335	1	5	-0.479462	4.56637	-16.9451	14.1515
 336	1	7	-0.144762	7.31992	-18.8258	15.6147
 337	1	10	0.052647	6.50095	-18.1855	15.9654
 338	1	10	0.065097	8.08566	-18.8308	16.4
 339	1	10	0.048024	6.93886	-19.8505	15.5236
 340	1	7	-0.169984	11.331	-17.4218	12.9946
 341	1	6	0.223059	9.85771	-18.1117	15.076
 342	1	10	0.004219	11.7539	-17.5989	13.9914
 343	1	10	0.100409	11.6056	-16.3972	12.7214
 344	1	10	0.163068	11.8266	-18.1293	12.3184
 345	1	10	0.042023	5.68954	-17.3006	10.9774
 346	1	10	0.011973	6.59904	-18.5926	10.1726
 347	1	10	-0.068283	7.05649	-16.8925	9.96761
 348	1	4	0.330652	8.81784	-17.0145	9.7877
 349	1	1	0.4882	-17.8471	-25.9719	17.557
 350	1	2	0.025477	-17.3354	-26.4819	16.3677
 351	1	3	-0.008635	-16.9206	-25.278	15.6095
 352	1	2	0.050267	-17.7075	-24.5933	17.6951
 353	1	3	0.063619	-17.1051	-24.1631	16.4029
 354	1	5	-0.374081	-17.18	-27.6436	16.0267
 355	1	5	-0.389097	-17.9517	-23.8954	18.6663
 356	1	3	-0.003634	-16.4405	-25.1875	14.3022
 357	1	3	-0.04742	-16.7342	-22.8964	15.9464
 358	1	3	-0.200211	-16.2058	-22.7888	14.6401
 359	1	3	-0.05806	-16.0882	-23.9154	13.7725
 360	1	6	0.16443	-16.3687	-26.1114	13.7423
 361	1	6	0.154232	-16.8529	-22.0252	16.5872
 362	1	6	0.179048	-15.8921	-21.805	14.3037
 363	1	7	-0.076903	-15.5572	-23.7219	12.3096
 364	1	7	0.238473	-15.5968	-25.0604	11.4682
 365	1	8	-0.092232	-15.1417	-24.9143	10.2035
 366	1	8	-0.075474	-16.8483	-25.5643	11.3704
 367	1	8	-0.095932	-14.7988	-26.0125	12.0048
 368	1	7	0.340597	-16.4802	-22.64	11.609
 369	1	8	-0.110855	-17.7835	-22.8359	11.9148
 370	1	8	-0.104879	-16.4159	-22.6324	10.2595
 371	1	8	-0.10758	-16.169	-21.3808	11.9893
 372	1	3	-0.066666	-14.065	-23.2892	12.3539
 373	1	3	-0.06911	-13.435	-22.7192	11.2145
 374	1	3	-0.048109	-12.0489	-22.5154	11.2334
 375	1	3	-0.057883	-13.2574	-23.6092	13.4833
 376	1	3	-0.116273	-11.8683	-23.3851	13.487
 377	1	3	-0.113036	-11.2899	-22.848	12.3355
 378	1	2	0.502524	-9.85955	-22.6638	11.991
 379	1	1	0.0355	-9.84346	-22.2448	10.6667
 380	1	2	0.450202	-11.1234	-22.0923	10.1442
 381	1	3	-0.097429	-8.63071	-22.1186	9.92533
 382	1	3	-0.043121	-7.74528	-21.0465	10.1917
 383	1	3	-0.007101	-6.43768	-21.0629	9.64139
 384	1	3	0.055122	-8.25479	-23.1474	9.03599
 385	1	3	-0.325582	-6.99534	-23.1018	8.42459
 386	1	3	0.061609	-6.0789	-22.0849	8.72903
 387	1	7	0.04075	-8.19909	-19.9095	11.1166
 388	1	9	-0.311814	-5.50286	-20.1071	10.0564
 389	1	6	0.16104	-11.25	-23.6761	14.334
 390	1	6	0.14041	-13.6853	-24.0907	14.357
 391	1	6	0.147774	-13.9796	-22.508	10.2992
 392	1	5	-0.476838	-11.4414	-21.7784	9.00953
 393	1	5	-0.479462	-8.91391	-22.9534	12.7036
 394	1	7	-0.144762	-9.17506	-24.3241	8.72908
 395	1	10	0.052647	-9.58164	-24.769	9.64548
 396	1	10	0.065097	-8.64915	-25.1223	8.19171
 397	1	10	0.048024	-10.0173	-24.0071	8.10121
 398	1	7	-0.169984	-4.72032	-22.123	8.04141
 399	1	6	0.223059	-6.71668	-23.8864	7.72833
 400	1	10	0.004219	-4.40277	-21.1216	7.72685
 401	1	10	0.100409	-4.7432	-22.7456	7.13918
 402	1	10	0.163068	-3.9515	-22.5351	8.70455
 403	1	10	0.042023	-7.68662	-18.965	10.9016
 404	1	10	0.011973	-8.02567	-20.1573	12.1699
 405	1	10	-0.068283	-9.27022	-19.701	11.0018
 406	1	4	0.330652	-5.87555	-19.2918	10.5164
 407	1	1	0.4882	-29.1229	-24.9484	30.1856
 408	1	2	0.025477	-28.1344	-23.9728	30.117
 409	1	3	-0.008635	-27.696	-24.0042	28.6977
 410	1	2	0.050267	-29.416	-25.5603	28.9706
 411	1	3	0.063619	-28.4562	-24.9411	28.0205
 412	1	5	-0.374081	-27.7215	-23.2376	30.9986
 413	1	5	-0.389097	-30.2428	-26.4245	28.7241
 414	1	3	-0.003634	-26.6837	-23.2777	28.0625
 415	1	3	-0.04742	-28.2494	-25.1947	26.6635
 416	1	3	-0.200211	-27.2285	-24.4773	26.0068
 417	1	3	-0.05806	-26.4191	-23.524	26.688
 418	1	6	0.16443	-26.1259	-22.5586	28.6525
 419	1	6	0.154232	-28.8566	-25.931	26.1413
 420	1	6	0.179048	-27.058	-24.6748	24.9504
 421	1	7	-0.076903	-25.3016	-22.7835	25.8937
 422	1	7	0.238473	-24.2456	-22.0605	26.8142
 423	1	8	-0.092232	-24.7511	-20.9822	27.4549
 424	1	8	-0.075474	-23.1798	-21.6223	26.1057
 425	1	8	-0.095932	-23.7496	-22.8956	27.7557
 426	1	7	0.340597	-26.0368	-21.7137	24.9941
 427	1	8	-0.110855	-26.7282	-22.2937	23.9864
 428	1	8	-0.104879	-25.2003	-20.8126	24.4312
 429	1	8	-0.10758	-26.9363	-21.0004	25.7101
 430	1	3	-0.066666	-24.4982	-23.8383	25.0779
 431	1	3	-0.06911	-24.0117	-23.5786	23.7699
 432	1	3	-0.048109	-23.2727	-24.569	23.1138
 433	1	3	-0.057883	-24.1807	-25.0905	25.6784
 434	1	3	-0.116273	-23.4477	-26.0809	24.9939
 435	1	3	-0.113036	-23.0078	-25.7891	23.6998
 436	1	2	0.502524	-22.2594	-26.6212	22.7206
 437	1	1	0.0355	-22.1273	-25.8303	21.5859
 438	1	2	0.450202	-22.6901	-24.571	21.7473
 439	1	3	-0.097429	-21.6163	-26.3046	20.3434
 440	1	3	-0.043121	-20.2225	-26.3475	20.0909
 441	1	3	-0.007101	-19.7523	-26.7774	18.8224
 442	1	3	0.055122	-22.5343	-26.7127	19.3547
 443	1	3	-0.325582	-22.0592	-27.1635	18.1205
 444	1	3	0.061609	-20.6866	-27.2084	17.8451
 445	1	7	0.04075	-19.2414	-25.8895	21.1794
 446	1	9	-0.311814	-18.374	-26.789	18.577
 447	1	6	0.16104	-23.2279	-27.0424	25.4539
 448	1	6	0.14041	-24.5099	-25.3047	26.692
 449	1	6	0.147774	-24.1872	-22.6413	23.2528
 450	1	5	-0.476838	-22.7795	-23.6758	20.9247
 451	1	5	-0.479462	-21.9022	-27.7761	22.8794
 452	1	7	-0.144762	-24.0407	-26.6791	19.588
 453	1	10	0.052647	-24.5836	-27.2301	18.8105
 454	1	10	0.065097	-24.4128	-25.6468	19.5784
 455	1	10	0.048024	-24.3102	-27.1327	20.5496
 456	1	7	-0.169984	-20.277	-27.7699	16.4921
 457	1	6	0.223059	-22.7702	-27.4816	17.3646
 458	1	10	0.004219	-19.9683	-26.9706	15.8079
 459	1	10	0.100409	-21.1006	-28.3079	16.009
 460	1	10	0.163068	-19.4572	-28.4904	16.5971
 461	1	10	0.042023	-19.5393	-26.2482	22.1716
 462	1	10	0.011973	-19.1934	-24.7943	21.221
 463	1	10	-0.068283	-18.2207	-26.2601	21.0229
 464	1	4	0.330652	-17.7807	-26.6417	19.3816
 465	1	1	0.4882	-25.1628	-16.4307	38.1126
 466	1	2	0.025477	-24.5889	-17.3789	38.9522
 467	1	3	-0.008635	-25.7046	-18.3109	39.2529
 468	1	2	0.050267	-26.5243	-16.6083	37.8848
 469	1	3	0.063619	-26.8454	-17.86	38.6137
 470	1	5	-0.374081	-23.4392	-17.4548	39.355
 471	1	5	-0.389097	-27.3044	-15.8922	37.2785
 472	1	3	-0.003634	-25.7013	-19.4807	40.0166
 473	1	3	-0.04742	-28.0466	-18.5654	38.693
 474	1	3	-0.200211	-28.0589	-19.7588	39.4422
 475	1	3	-0.05806	-26.8977	-20.2391	40.1126
 476	1	6	0.16443	-24.7746	-19.7736	40.4972
 477	1	6	0.154232	-28.9335	-18.2042	38.1767
 478	1	6	0.179048	-28.9876	-20.3228	39.4932
 479	1	7	-0.076903	-26.9946	-21.5684	40.9142
 480	1	7	0.238473	-25.5945	-22.1666	41.3307
 481	1	8	-0.092232	-24.7523	-22.2756	40.2779
 482	1	8	-0.075474	-25.7171	-23.4155	41.8353
 483	1	8	-0.095932	-24.9636	-21.4296	42.2728
 484	1	7	0.340597	-27.8283	-21.2419	42.2148
 485	1	8	-0.110855	-27.3526	-20.1413	42.8417
 486	1	8	-0.104879	-27.813	-22.2396	43.1272
 487	1	8	-0.10758	-29.1273	-20.9854	41.9394
 488	1	3	-0.066666	-27.6545	-22.622	39.9806
 489	1	3	-0.06911	-27.2057	-22.7071	38.6371
 490	1	3	-0.048109	-27.7679	-23.6637	37.7881
 491	1	3	-0.057883	-28.6538	-23.5373	40.4193
 492	1	3	-0.116273	-29.2113	-24.4938	39.5448
 493	1	3	-0.113036	-28.7458	-24.5308	38.226
 494	1	2	0.502524	-29.1065	-25.425	37.0944
 495	1	1	0.0355	-28.2967	-25.0336	36.0347
 496	1	2	0.450202	-27.4652	-23.9724	36.3661
 497	1	3	-0.097429	-28.301	-25.6794	34.7642
 498	1	3	-0.043121	-29.047	-25.1459	33.6853
 499	1	3	-0.007101	-29.0669	-25.8262	32.4409
 500	1	3	0.055122	-27.5611	-26.8672	34.5998
 501	1	3	-0.325582	-27.6113	-27.5451	33.3764
 502	1	3	0.061609	-28.3682	-27.0523	32.3045
 503	1	7	0.04075	-29.785	-23.8112	33.8616
 504	1	9	-0.311814	-29.7913	-25.2703	31.3817
 505	1	6	0.16104	-29.9724	-25.194	39.8842
 506	1	6	0.14041	-29.0083	-23.5295	41.4441
 507	1	6	0.147774	-26.4272	-22.0515	38.2536
 508	1	5	-0.476838	-26.6483	-23.4044	35.6619
 509	1	5	-0.479462	-29.9323	-26.3216	37.1212
 510	1	7	-0.144762	-26.7105	-27.4406	35.7268
 511	1	10	0.052647	-26.1018	-28.2868	35.3856
 512	1	10	0.065097	-27.3389	-27.7979	36.5519
 513	1	10	0.048024	-26.0193	-26.686	36.1231
 514	1	7	-0.169984	-28.4249	-27.8999	31.0399
 515	1	6	0.223059	-27.0645	-28.476	33.2611
 516	1	10	0.004219	-28.0658	-28.9208	31.2203
 517	1	10	0.100409	-27.8017	-27.474	30.2458
 518	1	10	0.163068	-29.4548	-27.9874	30.6708
 519	1	10	0.042023	-29.0905	-22.9711	33.7299
 520	1	10	0.011973	-30.2343	-23.7193	34.8578
 521	1	10	-0.068283	-30.6065	-23.6771	33.1469
 522	1	4	0.330652	-30.3631	-24.4694	31.6091
 523	1	1	0.4882	-27.6523	-10.3005	24.968
 524	1	2	0.025477	-27.3374	-10.7291	26.2523
 525	1	3	-0.008635	-28.5779	-10.4711	27.0258
 526	1	2	0.050267	-28.9656	-9.85941	24.8146
 527	1	3	0.063619	-29.5297	-9.92981	26.1844
 528	1	5	-0.374081	-26.2797	-11.1573	26.6846
 529	1	5	-0.389097	-29.5479	-9.50612	23.8027
 530	1	3	-0.003634	-28.8315	-10.6755	28.3815
 531	1	3	-0.04742	-30.7724	-9.51683	26.6685
 532	1	3	-0.200211	-31.0278	-9.66536	28.0482
 533	1	3	-0.05806	-30.0715	-10.2462	28.9295
 534	1	6	0.16443	-28.0563	-11.1545	28.9704
 535	1	6	0.154232	-31.5072	-9.08059	25.995
 536	1	6	0.179048	-31.994	-9.33837	28.421
 537	1	7	-0.076903	-30.3974	-10.4576	30.4368
 538	1	7	0.238473	-30.9869	-9.14439	31.0976
 539	1	8	-0.092232	-30.3311	-8.03261	30.6964
 540	1	8	-0.075474	-30.897	-9.19227	32.4464
 541	1	8	-0.095932	-32.2877	-8.9106	30.8176
 542	1	7	0.340597	-31.4726	-11.615	30.5172
 543	1	8	-0.110855	-31.0244	-12.7486	29.9298
 544	1	8	-0.104879	-32.6269	-11.3311	29.8728
 545	1	8	-0.10758	-31.8137	-11.9044	31.7936
 546	1	3	-0.066666	-29.0711	-10.8132	31.1944
 547	1	3	-0.06911	-28.8321	-12.09	31.7733
 548	1	3	-0.048109	-27.5822	-12.3646	32.3338
 549	1	3	-0.057883	-28.0098	-9.85917	31.2456
 550	1	3	-0.116273	-26.7593	-10.1532	31.8279
 551	1	3	-0.113036	-26.571	-11.4297	32.3626
 552	1	2	0.502524	-25.3866	-12.0485	33.0182
 553	1	1	0.0355	-25.7819	-13.3376	33.3511
 554	1	2	0.450202	-27.0843	-13.6134	32.9615
 555	1	3	-0.097429	-24.9769	-14.2705	34.0621
 556	1	3	-0.043121	-25.0006	-14.2813	35.4758
 557	1	3	-0.007101	-24.3156	-15.3032	36.1768
 558	1	3	0.055122	-24.2354	-15.2344	33.3507
 559	1	3	-0.325582	-23.5275	-16.2153	34.0573
 560	1	3	0.061609	-23.563	-16.2644	35.4584
 561	1	7	0.04075	-25.8251	-13.2233	36.2245
 562	1	9	-0.311814	-24.4329	-15.3588	37.5663
 563	1	6	0.16104	-25.9551	-9.41984	31.8438
 564	1	6	0.14041	-28.1282	-8.88358	30.7866
 565	1	6	0.147774	-29.5661	-12.8875	31.7909
 566	1	5	-0.476838	-27.706	-14.6545	33.087
 567	1	5	-0.479462	-24.3172	-11.5069	33.2391
 568	1	7	-0.144762	-24.2	-15.2435	31.8278
 569	1	10	0.052647	-23.8899	-14.2676	31.4336
 570	1	10	0.065097	-25.1883	-15.4815	31.4147
 571	1	10	0.048024	-23.4941	-15.9891	31.4419
 572	1	7	-0.169984	-22.767	-17.3632	36.1506
 573	1	6	0.223059	-22.9565	-16.9599	33.5104
 574	1	10	0.004219	-22.007	-17.792	35.4853
 575	1	10	0.100409	-23.421	-18.1834	36.4691
 576	1	10	0.163068	-22.2407	-16.9793	37.0335
 577	1	10	0.042023	-26.8977	-13.4426	36.1489
 578	1	10	0.011973	-25.6606	-12.2211	35.8111
 579	1	10	-0.068283	-25.5755	-13.1524	37.2905
 580	1	4	0.330652	-24.8073	-14.528	38.0018
 581	1	1	0.4882	-29.8251	0.591597	15.5187
 582	1	2	0.025477	-29.9221	-0.391227	16.5038
 583	1	3	-0.008635	-30.4031	-1.59369	15.7719
 584	1	2	0.050267	-30.2303	0.17065	14.2561
 585	1	3	0.063619	-30.5947	-1.25479	14.4463
 586	1	5	-0.374081	-29.751	-0.295726	17.7083
 587	1	5	-0.389097	-30.3781	0.827933	13.2401
 588	1	3	-0.003634	-30.6791	-2.88232	16.2415
 589	1	3	-0.04742	-31.0991	-2.17629	13.5272
 590	1	3	-0.200211	-31.3974	-3.47656	13.9836
 591	1	3	-0.05806	-31.1774	-3.85895	15.3373
 592	1	6	0.16443	-30.5124	-3.11022	17.2915
 593	1	6	0.154232	-31.2635	-1.88401	12.4924
 594	1	6	0.179048	-31.8068	-4.17573	13.2619
 595	1	7	-0.076903	-31.4849	-5.28676	15.872
 596	1	7	0.238473	-31.6832	-6.37606	14.7435
 597	1	8	-0.092232	-32.8435	-6.23778	14.0634
 598	1	8	-0.075474	-31.6868	-7.62614	15.2606
 599	1	8	-0.095932	-30.6894	-6.35912	13.8264
 600	1	7	0.340597	-32.8166	-5.17742	16.7161
 601	1	8	-0.110855	-32.6626	-4.41667	17.8239
 602	1	8	-0.104879	-33.2857	-6.37888	17.1235
 603	1	8	-0.10758	-33.8087	-4.59329	16.0066
 604	1	3	-0.066666	-30.2464	-5.73956	16.6953
 605	1	3	-0.06911	-30.3444	-6.25654	18.0124
 606	1	3	-0.048109	-29.1733	-6.63296	18.6747
 607	1	3	-0.057883	-28.9546	-5.6413	16.103
 608	1	3	-0.116273	-27.7887	-6.04829	16.7815
 609	1	3	-0.113036	-27.9326	-6.54489	18.0789
 610	1	2	0.502524	-26.9102	-6.96883	19.0707
 611	1	1	0.0355	-27.62	-7.24001	20.2323
 612	1	2	0.450202	-28.9903	-7.09269	20.0715
 613	1	3	-0.097429	-27.015	-7.49261	21.4927
 614	1	3	-0.043121	-26.9775	-8.80415	22.0149
 615	1	3	-0.007101	-26.5104	-9.00903	23.3345
 616	1	3	0.055122	-26.5525	-6.40159	22.2556
 617	1	3	-0.325582	-26.0017	-6.63197	23.5219
 618	1	3	0.061609	-25.974	-7.92297	24.0689
 619	1	7	0.04075	-27.521	-9.96723	21.1737
 620	1	9	-0.311814	-26.7068	-10.2574	23.9249
 621	1	6	0.16104	-26.805	-5.96088	16.324
 622	1	6	0.14041	-28.8482	-5.2378	15.0996
 623	1	6	0.147774	-31.286	-6.35843	18.542
 624	1	5	-0.476838	-29.8656	-7.19255	20.9132
 625	1	5	-0.479462	-25.7028	-6.98663	18.9021
 626	1	7	-0.144762	-26.666	-4.96905	21.7458
 627	1	10	0.052647	-26.0154	-4.80538	20.8781
 628	1	10	0.065097	-26.3833	-4.2395	22.5139
 629	1	10	0.048024	-27.6967	-4.73678	21.4485
 630	1	7	-0.169984	-25.3718	-8.0953	25.4567