pySIMM System Object

640 atoms
694 bonds
1221 angles
1800 dihedrals
176 impropers

10 atom types
14 bond types
24 angle types
9 dihedral types
4 improper types

-133.540198 133.540198 xlo xhi
-133.540198 133.540198 ylo yhi
-133.540198 133.540198 zlo zhi

Masses

   1	14.01	# n
   2	12.01	# c
   3	12.01	# ca
   4	1.008	# hn
   5	16.0	# o
   6	1.008	# ha
   7	12.01	# c3
   8	19.0	# f
   9	14.01	# nh
  10	1.008	# hc

Pair Coeffs

   1	0.17	3.249998523775958	# n
   2	0.086	3.3996695084235347	# c
   3	0.086	3.3996695084235347	# ca
   4	0.0157	1.069078461768407	# hn
   5	0.21	2.959921901149463	# o
   6	0.015	2.59964245953351	# ha
   7	0.1094	3.3996695084235347	# c3
   8	0.061	3.1181455134911875	# f
   9	0.17	3.249998523775958	# nh
  10	0.0157	2.649532787749369	# hc

Bond Coeffs

   1	345.9	1.4906	# c,ca
   2	345.8	1.086	# ca,ha
   3	637.7	1.2183	# c,o
   4	321.0	1.5156	# c3,ca
   5	300.9	1.5375	# c3,c3
   6	384.2	1.4121	# ca,n
   7	330.6	1.0969	# c3,hc
   8	404.6	1.0121	# hn,nh
   9	403.2	1.0129	# hn,n
  10	356.9	1.3497	# c3,f
  11	417.9	1.3859	# ca,nh
  12	427.6	1.3789	# c,n
  13	461.1	1.3984	# ca,ca
  14	452.5	1.4016	# n,nh

Angle Coeffs

   1	74.22	123.05	# n,c,o
   2	40.07	115.12	# hn,nh,hn
   3	68.29	120.95	# ca,ca,nh
   4	66.62	120.02	# ca,ca,ca
   5	48.42	116.07	# ca,nh,hn
   6	68.72	122.6	# ca,c,o
   7	48.33	117.55	# c,n,hn
   8	64.28	120.33	# c,ca,ca
   9	67.68	115.25	# ca,c,n
  10	39.4	107.58	# hc,c3,hc
  11	63.53	120.77	# c3,ca,ca
  12	67.87	120.19	# ca,ca,n
  13	70.89	107.36	# f,c3,f
  14	66.11	109.24	# c3,c3,f
  15	46.8	110.47	# ca,c3,hc
  16	62.86	111.51	# c3,c3,c3
  17	63.15	112.07	# c3,c3,ca
  18	63.82	123.71	# c,n,ca
  19	63.56	112.24	# ca,c3,ca
  20	63.74	127.08	# c,n,c
  21	48.18	119.88	# ca,ca,ha
  22	67.01	118.71	# c,n,nh
  23	67.61	116.03	# ca,nh,n
  24	50.88	108.17	# hn,nh,n

Dihedral Coeffs

   1	2	2.5	2	180	2.0	1	0	# hn,n,c,o
   2	1	3.625	2	180	# X,ca,ca,X
   3	1	0.15555555555555556	3	0	# X,c3,c3,X
   4	1	1.0	2	180	# X,c,ca,X
   5	1	0.0	2	0	# X,c3,ca,X
   6	1	2.5	2	180	# X,c,n,X
   7	1	0.45	2	180	# X,ca,n,X
   8	1	1.05	2	180	# X,ca,nh,X
   9	1	1.1	2	0	# X,n,nh,X

Improper Coeffs

   1	10.5	-1	2	# c,X,X,o
   2	1.1	-1	2	# ca,X,X,ha
   3	1.1	-1	2	# ca,ca,ca,c3
   4	1.1	-1	2	# n,X,X,hn

Atoms

   1	1	1	0.4882	-0.430459	49.0355	18.4846
   2	1	2	0.025477	-0.590024	50.4068	18.3188
   3	1	3	-0.008635	-0.766626	50.9123	19.7001
   4	1	2	0.050267	-0.383398	48.6136	19.8108
   5	1	3	0.063619	-0.640011	49.8578	20.5851
   6	1	5	-0.374081	-0.566289	51.0669	17.292
   7	1	5	-0.389097	-0.175402	47.4955	20.2555
   8	1	3	-0.003634	-1.08241	52.2	20.1321
   9	1	3	-0.04742	-0.797034	50.0514	21.9601
  10	1	3	-0.200211	-1.11643	51.3486	22.419
  11	1	3	-0.05806	-1.29088	52.436	21.515
  12	1	6	0.16443	-1.20391	52.9876	19.3926
  13	1	6	0.154232	-0.698919	49.2132	22.6462
  14	1	6	0.179048	-1.24807	51.4821	23.4877
  15	1	7	-0.076903	-1.71795	53.865	21.9582
  16	1	7	0.238473	-2.3239	53.9333	23.4134
  17	1	8	-0.092232	-3.30063	53.0175	23.6027
  18	1	8	-0.075474	-2.88919	55.1378	23.6563
  19	1	8	-0.095932	-1.40308	53.7371	24.3843
  20	1	7	0.340597	-0.415337	54.7551	21.8945
  21	1	8	-0.110855	0.609269	54.1848	22.5692
  22	1	8	-0.104879	-0.584944	55.9893	22.4202
  23	1	8	-0.10758	0.0233722	54.9221	20.6259
  24	1	3	-0.066666	-2.84867	54.3168	20.9843
  25	1	3	-0.06911	-3.89943	53.4052	20.6959
  26	1	3	-0.048109	-4.89272	53.7698	19.781
  27	1	3	-0.057883	-2.87729	55.5955	20.3563
  28	1	3	-0.116273	-3.88712	55.9426	19.4338
  29	1	3	-0.113036	-4.88114	54.9983	19.156
  30	1	2	0.502524	-6.0486	55.0591	18.2355
  31	1	1	0.0355	-6.70107	53.8399	18.3771
  32	1	2	0.450202	-6.07375	53.0071	19.2947
  33	1	3	-0.097429	-7.8827	53.4872	17.6605
  34	1	3	-0.043121	-9.15733	53.6694	18.2492
  35	1	3	-0.007101	-10.3178	53.3205	17.516
  36	1	3	0.055122	-7.76913	52.9547	16.3586
  37	1	3	-0.325582	-8.92807	52.6262	15.6417
  38	1	3	0.061609	-10.1983	52.8072	16.2064
  39	1	7	0.04075	-9.25706	54.2259	19.6748
  40	1	9	-0.311814	-11.5803	53.478	18.0781
  41	1	6	0.16104	-3.89548	56.9153	18.9453
  42	1	6	0.14041	-2.11436	56.3383	20.5616
  43	1	6	0.147774	-3.93914	52.4187	21.1533
  44	1	5	-0.476838	-6.43117	51.9081	19.6811
  45	1	5	-0.479462	-6.35445	56.0011	17.524
  46	1	7	-0.144762	-6.4095	52.7172	15.7142
  47	1	10	0.052647	-6.50519	52.2952	14.7065
  48	1	10	0.065097	-5.8142	52.0118	16.3082
  49	1	10	0.048024	-5.84581	53.6538	15.6245
  50	1	7	-0.169984	-11.4282	52.4377	15.3883
  51	1	6	0.223059	-8.84162	52.2225	14.6379
  52	1	10	0.004219	-11.1634	52.0019	14.4166
  53	1	10	0.100409	-12.0463	53.3238	15.2
  54	1	10	0.163068	-12.0423	51.7066	15.9271
  55	1	10	0.042023	-8.65184	55.1339	19.7877
  56	1	10	0.011973	-8.89383	53.4896	20.4028
  57	1	10	-0.068283	-10.2785	54.4959	19.97
  58	1	4	0.330652	-11.6559	53.8296	19.0252
  59	1	1	0.4882	-12.5765	39.7543	19.3489
  60	1	2	0.025477	-13.1283	41.025	19.1834
  61	1	3	-0.008635	-11.9668	41.9481	19.2574
  62	1	2	0.050267	-11.2051	39.7635	19.5912
  63	1	3	0.063619	-10.8335	41.2063	19.5348
  64	1	5	-0.374081	-14.2999	41.3488	19.0799
  65	1	5	-0.389097	-10.4737	38.8246	19.861
  66	1	3	-0.003634	-11.916	43.3333	19.0559
  67	1	3	-0.04742	-9.59979	41.8337	19.7296
  68	1	3	-0.200211	-9.53268	43.2333	19.5556
  69	1	3	-0.05806	-10.6621	43.9963	19.1367
  70	1	6	0.16443	-12.8352	43.8485	18.8007
  71	1	6	0.154232	-8.71775	41.2499	19.9843
  72	1	6	0.179048	-8.56783	43.7218	19.6817
  73	1	7	-0.076903	-10.4705	45.496	18.7336
  74	1	7	0.238473	-11.6038	46.0333	17.7775
  75	1	8	-0.092232	-11.8094	45.197	16.7345
  76	1	8	-0.075474	-11.2814	47.2319	17.2392
  77	1	8	-0.095932	-12.7924	46.2036	18.3987
  78	1	7	0.340597	-10.4605	46.3308	20.0701
  79	1	8	-0.110855	-11.5021	45.9983	20.8669
  80	1	8	-0.104879	-10.5449	47.6659	19.8723
  81	1	8	-0.10758	-9.3392	46.1001	20.7891
  82	1	3	-0.066666	-9.14574	45.6117	17.917
  83	1	3	-0.06911	-8.27401	46.7336	18.0018
  84	1	3	-0.048109	-7.08094	46.719	17.2628
  85	1	3	-0.057883	-8.80436	44.562	17.0158
  86	1	3	-0.116273	-7.58404	44.5443	16.3203
  87	1	3	-0.113036	-6.73289	45.6365	16.4802
  88	1	2	0.502524	-5.39535	45.8855	15.8957
  89	1	1	0.0355	-5.02391	47.1442	16.3426
  90	1	2	0.450202	-5.98546	47.7267	17.1605
  91	1	3	-0.097429	-3.76719	47.7225	16.0069
  92	1	3	-0.043121	-2.67677	47.6486	16.9088
  93	1	3	-0.007101	-1.4021	48.1205	16.5
  94	1	3	0.055122	-3.59692	48.2775	14.7225
  95	1	3	-0.325582	-2.32319	48.6924	14.3162
  96	1	3	0.061609	-1.22427	48.5968	15.1802
  97	1	7	0.04075	-2.8692	47.0446	18.3062
  98	1	9	-0.311814	-0.318812	48.1621	17.3847
  99	1	6	0.16104	-7.30781	43.7106	15.6775
 100	1	6	0.14041	-9.47652	43.7194	16.8783
 101	1	6	0.147774	-8.49073	47.5989	18.621
 102	1	5	-0.476838	-5.95843	48.8293	17.6777
 103	1	5	-0.479462	-4.76132	45.1123	15.1969
 104	1	7	-0.144762	-4.76746	48.4276	13.7576
 105	1	10	0.052647	-5.22626	47.4584	13.5288
 106	1	10	0.065097	-4.45526	48.8712	12.8046
 107	1	10	0.048024	-5.54049	49.0797	14.1841
 108	1	7	-0.169984	0.133589	49.0597	14.6659
 109	1	6	0.223059	-2.18668	49.0961	13.3179
 110	1	10	0.004219	0.141937	49.1353	13.5712
 111	1	10	0.100409	0.930397	48.3577	14.9378
 112	1	10	0.163068	0.382862	50.0515	15.0636
 113	1	10	0.042023	-1.9993	46.4496	18.6078
 114	1	10	0.011973	-3.72716	46.3671	18.374
 115	1	10	-0.068283	-3.01921	47.8357	19.0515
 116	1	4	0.330652	0.589262	48.3345	16.9868
 117	1	1	0.4882	-10.353	22.1775	16.5603
 118	1	2	0.025477	-11.6195	22.757	16.5218
 119	1	3	-0.008635	-11.4114	24.1494	17.013
 120	1	2	0.050267	-9.36463	23.033	17.0529
 121	1	3	0.063619	-10.0741	24.327	17.2898
 122	1	5	-0.374081	-12.6339	22.3203	16.0049
 123	1	5	-0.389097	-8.16399	22.8353	17.1415
 124	1	3	-0.003634	-12.3126	25.2193	17.0355
 125	1	3	-0.04742	-9.56937	25.6156	17.5025
 126	1	3	-0.200211	-10.461	26.7173	17.4441
 127	1	3	-0.05806	-11.8714	26.5555	17.2954
 128	1	6	0.16443	-13.3279	24.9871	16.7438
 129	1	6	0.154232	-8.49678	25.7635	17.6081
 130	1	6	0.179048	-10.0162	27.7053	17.432
 131	1	7	-0.076903	-12.8943	27.7605	17.1388
 132	1	7	0.238473	-12.9226	27.9961	15.5713
 133	1	8	-0.092232	-11.7332	28.4908	15.156
 134	1	8	-0.075474	-13.8739	28.8516	15.1436
 135	1	8	-0.095932	-13.125	26.864	14.8607
 136	1	7	0.340597	-14.3119	27.2984	17.7053
 137	1	8	-0.110855	-15.0129	26.5251	16.8476
 138	1	8	-0.104879	-15.1703	28.2895	18.0195
 139	1	8	-0.10758	-14.1578	26.6019	18.8543
 140	1	3	-0.066666	-12.5496	29.1613	17.8053
 141	1	3	-0.06911	-13.3927	30.2813	17.5336
 142	1	3	-0.048109	-13.0515	31.5631	17.9637
 143	1	3	-0.057883	-11.4326	29.4285	18.6536
 144	1	3	-0.116273	-11.0343	30.7535	18.9761
 145	1	3	-0.113036	-11.8501	31.8193	18.5681
 146	1	2	0.502524	-11.6853	33.3069	18.6234
 147	1	1	0.0355	-12.8562	33.8506	18.0822
 148	1	2	0.450202	-13.7624	32.8466	17.7487
 149	1	3	-0.097429	-13.0909	35.2421	17.7774
 150	1	3	-0.043121	-13.065	36.2566	18.78
 151	1	3	-0.007101	-13.3819	37.6058	18.4495
 152	1	3	0.055122	-13.4141	35.6054	16.4439
 153	1	3	-0.325582	-13.7951	36.9187	16.1527
 154	1	3	0.061609	-13.8101	37.9128	17.1351
 155	1	7	0.04075	-12.6943	35.9141	20.229
 156	1	9	-0.311814	-13.3593	38.5822	19.4583
 157	1	6	0.16104	-10.1167	30.9477	19.5281
 158	1	6	0.14041	-10.8356	28.6209	19.0553
 159	1	6	0.147774	-14.3141	30.1983	16.9679
 160	1	5	-0.476838	-14.9082	32.9587	17.3457
 161	1	5	-0.479462	-10.6731	33.8932	18.9646
 162	1	7	-0.144762	-13.4146	34.6285	15.2698
 163	1	10	0.052647	-14.4159	34.2063	15.1145
 164	1	10	0.065097	-12.7088	33.8018	15.4069
 165	1	10	0.048024	-13.1304	35.1316	14.3377
 166	1	7	-0.169984	-14.3734	39.2696	16.7346
 167	1	6	0.223059	-14.1143	37.1621	15.1434
 168	1	10	0.004219	-14.8839	39.2285	15.764
 169	1	10	0.100409	-13.5865	40.0266	16.6535
 170	1	10	0.163068	-15.1209	39.6095	17.4622
 171	1	10	0.042023	-11.6177	36.0534	20.3924
 172	1	10	0.011973	-12.9463	34.8814	20.4945
 173	1	10	-0.068283	-13.2229	36.5453	20.9548
 174	1	4	0.330652	-13.2291	38.2438	20.4014
 175	1	1	0.4882	-7.20618	8.74193	5.93505
 176	1	2	0.025477	-8.06379	9.83794	6.03226
 177	1	3	-0.008635	-8.2075	10.0846	7.48979
 178	1	2	0.050267	-6.83922	8.22055	7.18125
 179	1	3	0.063619	-7.52562	9.10712	8.17806
 180	1	5	-0.374081	-8.75497	10.3427	5.16292
 181	1	5	-0.389097	-6.2983	7.15108	7.41474
 182	1	3	-0.003634	-9.01818	11.025	8.13257
 183	1	3	-0.04742	-7.66576	9.01391	9.57021
 184	1	3	-0.200211	-8.51469	9.93902	10.2361
 185	1	3	-0.05806	-9.22827	10.9679	9.54398
 186	1	6	0.16443	-9.50637	11.7354	7.4801
 187	1	6	0.154232	-7.17191	8.21004	10.1129
 188	1	6	0.179048	-8.638	9.82305	11.3094
 189	1	7	-0.076903	-10.3189	11.8619	10.2807
 190	1	7	0.238473	-11.0606	12.8025	9.23476
 191	1	8	-0.092232	-10.1936	13.6846	8.68629
 192	1	8	-0.075474	-12.0551	13.559	9.74283
 193	1	8	-0.095932	-11.658	12.1097	8.23725
 194	1	7	0.340597	-11.3854	10.8684	10.8967
 195	1	8	-0.110855	-11.7632	9.92531	10.0028
 196	1	8	-0.104879	-12.5186	11.4706	11.3187
 197	1	8	-0.10758	-10.9049	10.2139	11.9767
 198	1	3	-0.066666	-9.73202	12.7824	11.4196
 199	1	3	-0.06911	-10.573	13.6641	12.1693
 200	1	3	-0.048109	-10.0184	14.5511	13.1099
 201	1	3	-0.057883	-8.34039	12.8155	11.7222
 202	1	3	-0.116273	-7.80699	13.6721	12.7158
 203	1	3	-0.113036	-8.6715	14.5472	13.3886
 204	1	2	0.502524	-8.40834	15.5901	14.4291
 205	1	1	0.0355	-9.6349	16.1961	14.6976
 206	1	2	0.450202	-10.6562	15.6198	13.9423
 207	1	3	-0.097429	-9.83558	17.2382	15.6773
 208	1	3	-0.043121	-9.86121	18.6145	15.315
 209	1	3	-0.007101	-10.0924	19.6329	16.2947
 210	1	3	0.055122	-10.0209	16.8811	17.028
 211	1	3	-0.325582	-10.2753	17.8762	17.9815
 212	1	3	0.061609	-10.3326	19.2367	17.6389
 213	1	7	0.04075	-9.64907	18.9651	13.8361
 214	1	9	-0.311814	-10.0528	20.9779	15.8663
 215	1	6	0.16104	-6.74163	13.6777	12.9369
 216	1	6	0.14041	-7.64479	12.1845	11.1805
 217	1	6	0.147774	-11.6476	13.7003	12.0261
 218	1	5	-0.476838	-11.8342	15.9314	13.924
 219	1	5	-0.479462	-7.32918	15.8274	14.9435
 220	1	7	-0.144762	-9.97194	15.4281	17.4842
 221	1	10	0.052647	-10.0963	15.3388	18.5705
 222	1	10	0.065097	-9.00851	14.9676	17.2328
 223	1	10	0.048024	-10.7692	14.8404	17.0132
 224	1	7	-0.169984	-10.6685	20.2065	18.7677
 225	1	6	0.223059	-10.4406	17.5821	19.0135
 226	1	10	0.004219	-10.8999	19.6805	19.7025
 227	1	10	0.100409	-11.5583	20.8002	18.5266
 228	1	10	0.163068	-9.82729	20.8777	18.9787
 229	1	10	0.042023	-10.4722	18.5696	13.2275
 230	1	10	0.011973	-8.71661	18.5246	13.4617
 231	1	10	-0.068283	-9.59051	20.0406	13.6317
 232	1	4	0.330652	-9.91597	21.1734	14.8856
 233	1	1	0.4882	0.0964074	-1.90138	-5.61717
 234	1	2	0.025477	-0.231385	-1.73528	-4.27502
 235	1	3	-0.008635	-0.167092	-0.263703	-4.07094
 236	1	2	0.050267	0.35812	-0.722866	-6.30338
 237	1	3	0.063619	0.17303	0.325582	-5.27296
 238	1	5	-0.374081	-0.419614	-2.58887	-3.42394
 239	1	5	-0.389097	0.737728	-0.567057	-7.45376
 240	1	3	-0.003634	-0.30281	0.486682	-2.89617
 241	1	3	-0.04742	0.346099	1.70063	-5.37346
 242	1	3	-0.200211	0.210431	2.47148	-4.20381
 243	1	3	-0.05806	-0.0563894	1.89127	-2.92298
 244	1	6	0.16443	-0.547256	-0.0518118	-1.9893
 245	1	6	0.154232	0.616898	2.15083	-6.32599
 246	1	6	0.179048	0.377936	3.53211	-4.33128
 247	1	7	-0.076903	-0.0100999	2.74143	-1.59353
 248	1	7	0.238473	0.673303	1.8824	-0.446627
 249	1	8	-0.092232	-0.159888	0.937769	0.0432578
 250	1	8	-0.075474	1.052	2.5812	0.645189
 251	1	8	-0.095932	1.78684	1.25942	-0.893753
 252	1	7	0.340597	0.842055	4.06773	-1.8218
 253	1	8	-0.110855	2.0229	3.81436	-2.43112
 254	1	8	-0.104879	1.16228	4.7557	-0.705044
 255	1	8	-0.10758	0.163172	4.96952	-2.56963
 256	1	3	-0.066666	-1.43698	3.16567	-1.13688
 257	1	3	-0.06911	-1.57371	3.96181	0.025943
 258	1	3	-0.048109	-2.81734	4.49688	0.351782
 259	1	3	-0.057883	-2.61514	2.87399	-1.88525
 260	1	3	-0.116273	-3.87304	3.42228	-1.5301
 261	1	3	-0.113036	-3.93918	4.26729	-0.411402
 262	1	2	0.502524	-5.02842	5.152	0.11165
 263	1	1	0.0355	-4.44788	5.88194	1.14943
 264	1	2	0.450202	-3.13676	5.49928	1.38954
 265	1	3	-0.097429	-4.98664	7.04445	1.78441
 266	1	3	-0.043121	-5.82966	6.9619	2.92435
 267	1	3	-0.007101	-6.13607	8.13007	3.68575
 268	1	3	0.055122	-4.51114	8.29596	1.34815
 269	1	3	-0.325582	-4.79094	9.43452	2.10599
 270	1	3	0.061609	-5.56239	9.36961	3.27801
 271	1	7	0.04075	-6.43007	5.60503	3.31588
 272	1	9	-0.311814	-7.07301	7.99399	4.73627
 273	1	6	0.16104	-4.75724	3.24039	-2.13819
 274	1	6	0.14041	-2.56281	2.25918	-2.77886
 275	1	6	0.147774	-0.728521	4.2398	0.645524
 276	1	5	-0.476838	-2.34014	5.99065	2.17127
 277	1	5	-0.479462	-6.13397	5.29679	-0.380584
 278	1	7	-0.144762	-3.66833	8.447	0.0828617
 279	1	10	0.052647	-3.63621	9.48847	-0.259828
 280	1	10	0.065097	-4.07996	7.85598	-0.74519
 281	1	10	0.048024	-2.6337	8.12428	0.252252
 282	1	7	-0.169984	-5.76945	10.6933	3.99868
 283	1	6	0.223059	-4.3877	10.3851	1.7722
 284	1	10	0.004219	-5.50496	10.6267	5.06024
 285	1	10	0.100409	-6.80255	11.0345	3.8919
 286	1	10	0.163068	-5.14772	11.4885	3.57236
 287	1	10	0.042023	-6.48457	5.47435	4.40285
 288	1	10	0.011973	-5.8511	4.75384	2.94025
 289	1	10	-0.068283	-7.44703	5.50988	2.91492
 290	1	4	0.330652	-7.5488	7.11223	4.85145
 291	1	1	0.4882	0.998687	-18.6306	-5.35628
 292	1	2	0.025477	1.96803	-17.9047	-6.04203
 293	1	3	-0.008635	1.30172	-16.6204	-6.33256
 294	1	2	0.050267	-0.264147	-18.0433	-5.35191
 295	1	3	0.063619	-0.0180969	-16.6953	-5.92784
 296	1	5	-0.374081	3.14174	-18.1673	-6.2478
 297	1	5	-0.389097	-1.30907	-18.4563	-4.8741
 298	1	3	-0.003634	1.91584	-15.4075	-6.63377
 299	1	3	-0.04742	-0.813672	-15.55	-5.86285
 300	1	3	-0.200211	-0.20864	-14.3079	-6.15094
 301	1	3	-0.05806	1.17161	-14.2125	-6.4907
 302	1	6	0.16443	2.9867	-15.4099	-6.80299
 303	1	6	0.154232	-1.82844	-15.6113	-5.47618
 304	1	6	0.179048	-0.79623	-13.4101	-5.97942
 305	1	7	-0.076903	1.90836	-12.8544	-6.38492
 306	1	7	0.238473	2.43264	-12.784	-4.89348
 307	1	8	-0.092232	1.43382	-12.9318	-3.99286
 308	1	8	-0.075474	3.06423	-11.6173	-4.63415
 309	1	8	-0.095932	3.29872	-13.7761	-4.58426
 310	1	7	0.340597	3.15422	-12.744	-7.36893
 311	1	8	-0.110855	4.26812	-13.3871	-6.95458
 312	1	8	-0.104879	3.52704	-11.4563	-7.54848
 313	1	8	-0.10758	2.89238	-13.2573	-8.59225
 314	1	3	-0.066666	0.915559	-11.6938	-6.72786
 315	1	3	-0.06911	0.395549	-10.7988	-5.7463
 316	1	3	-0.048109	-0.392624	-9.71574	-6.1518
 317	1	3	-0.057883	0.537711	-11.4808	-8.08495
 318	1	3	-0.116273	-0.201396	-10.3529	-8.48078
 319	1	3	-0.113036	-0.63543	-9.47909	-7.48537
 320	1	2	0.502524	-1.27208	-8.15381	-7.61247
 321	1	1	0.0355	-1.38271	-7.65729	-6.31712
 322	1	2	0.450202	-0.936557	-8.56915	-5.3653
 323	1	3	-0.097429	-1.70008	-6.27963	-6.12367
 324	1	3	-0.043121	-0.652977	-5.35845	-5.87285
 325	1	3	-0.007101	-0.771268	-4.03406	-6.35997
 326	1	3	0.055122	-2.93468	-5.82291	-6.62891
 327	1	3	-0.325582	-3.03011	-4.51871	-7.12538
 328	1	3	0.061609	-1.92934	-3.65371	-7.08015
 329	1	7	0.04075	0.594734	-5.79901	-5.08717
 330	1	9	-0.311814	0.30478	-3.1638	-6.19569
 331	1	6	0.16104	-0.397505	-10.1411	-9.53047
 332	1	6	0.14041	0.861216	-12.1579	-8.86622
 333	1	6	0.147774	0.621634	-10.8752	-4.68976
 334	1	5	-0.476838	-0.874731	-8.42956	-4.15619
 335	1	5	-0.479462	-1.47963	-7.57561	-8.66664
 336	1	7	-0.144762	-4.13247	-6.75294	-6.76953
 337	1	10	0.052647	-5.0708	-6.18616	-6.81087
 338	1	10	0.065097	-4.20561	-7.43099	-5.90961
 339	1	10	0.048024	-4.06803	-7.35831	-7.68113
 340	1	7	-0.169984	-2.00563	-2.3643	-7.88672
 341	1	6	0.223059	-3.93915	-4.21135	-7.6323
 342	1	10	0.004219	-2.19568	-1.49482	-7.24793
 343	1	10	0.100409	-2.80316	-2.40851	-8.63791
 344	1	10	0.163068	-1.0722	-2.19857	-8.44211
 345	1	10	0.042023	1.00443	-6.74836	-5.44712
 346	1	10	0.011973	0.339998	-5.92555	-4.02625
 347	1	10	-0.068283	1.42343	-5.08245	-5.1248
 348	1	4	0.330652	1.12441	-3.54998	-5.74938
 349	1	1	0.4882	4.80698	-26.6592	-2.12843
 350	1	2	0.025477	3.56308	-26.3407	-1.59374
 351	1	3	-0.008635	3.85175	-25.9864	-0.175962
 352	1	2	0.050267	5.8546	-26.5902	-1.21245
 353	1	3	0.063619	5.20896	-26.099	0.0335183
 354	1	5	-0.374081	2.47288	-26.3643	-2.13955
 355	1	5	-0.389097	7.02245	-26.9175	-1.35247
 356	1	3	-0.003634	2.98008	-25.5949	0.847376
 357	1	3	-0.04742	5.76599	-25.7558	1.26279
 358	1	3	-0.200211	4.90813	-25.2839	2.27977
 359	1	3	-0.05806	3.48605	-25.2021	2.12679
 360	1	6	0.16443	1.93145	-25.5747	0.587467
 361	1	6	0.154232	6.84048	-25.8311	1.41594
 362	1	6	0.179048	5.40349	-24.9981	3.19599
 363	1	7	-0.076903	2.54118	-24.6617	3.28778
 364	1	7	0.238473	1.1711	-25.4636	3.32969
 365	1	8	-0.092232	0.355927	-25.069	4.33233
 366	1	8	-0.075474	1.37967	-26.7916	3.47356
 367	1	8	-0.095932	0.403231	-25.3103	2.2315
 368	1	7	0.340597	3.24233	-24.8706	4.70401
 369	1	8	-0.110855	4.29219	-24.0416	4.90749
 370	1	8	-0.104879	3.70888	-26.132	4.84999
 371	1	8	-0.10758	2.43386	-24.6484	5.76398
 372	1	3	-0.066666	2.22801	-23.1522	3.00842
 373	1	3	-0.06911	1.82236	-22.7889	1.70735
 374	1	3	-0.048109	1.73564	-21.4504	1.3547
 375	1	3	-0.057883	2.38702	-22.0869	3.95111
 376	1	3	-0.116273	2.3064	-20.7232	3.56526
 377	1	3	-0.113036	2.0163	-20.4281	2.22525
 378	1	2	0.502524	2.12497	-19.1692	1.41713
 379	1	1	0.0355	1.98119	-19.5774	0.0858022
 380	1	2	0.450202	1.6352	-20.921	-0.00735848
 381	1	3	-0.097429	2.46262	-18.9446	-1.10524
 382	1	3	-0.043121	1.62128	-19.0311	-2.24467
 383	1	3	-0.007101	2.15859	-19.5001	-3.47276
 384	1	3	0.055122	3.86304	-18.9691	-1.28432
 385	1	3	-0.325582	4.3855	-19.4306	-2.49764
 386	1	3	0.061609	3.53939	-19.798	-3.55122
 387	1	7	0.04075	0.111541	-18.8299	-2.0797
 388	1	9	-0.311814	1.3363	-19.7525	-4.5771
 389	1	6	0.16104	2.53019	-19.9262	4.27216
 390	1	6	0.14041	2.63475	-22.2886	4.98693
 391	1	6	0.147774	1.64741	-23.5085	0.923099
 392	1	5	-0.476838	1.53267	-21.6205	-1.00249
 393	1	5	-0.479462	2.46504	-18.0789	1.8431
 394	1	7	-0.144762	4.8359	-18.6537	-0.156149
 395	1	10	0.052647	5.85359	-18.4994	-0.535207
 396	1	10	0.065097	4.87339	-19.4542	0.591167
 397	1	10	0.048024	4.55111	-17.7214	0.348194
 398	1	7	-0.169984	4.17527	-20.5099	-4.74122
 399	1	6	0.223059	5.45631	-19.5779	-2.5912
 400	1	10	0.004219	3.45686	-20.8004	-5.51601
 401	1	10	0.100409	4.6723	-21.4293	-4.41029
 402	1	10	0.163068	4.92694	-19.8655	-5.21383
 403	1	10	0.042023	-0.205819	-18.801	-1.0312
 404	1	10	0.011973	-0.460595	-19.6316	-2.56221
 405	1	10	-0.068283	-0.191767	-17.871	-2.51653
 406	1	4	0.330652	1.66866	-20.4452	-5.22959
 407	1	1	0.4882	7.21094	-28.6482	-15.7915
 408	1	2	0.025477	6.22941	-27.7945	-16.2896
 409	1	3	-0.008635	5.00159	-28.2089	-15.58
 410	1	2	0.050267	6.70738	-29.7122	-15.0447
 411	1	3	0.063619	5.26829	-29.369	-14.8774
 412	1	5	-0.374081	6.33621	-26.8546	-17.0586
 413	1	5	-0.389097	7.31024	-30.6167	-14.4887
 414	1	3	-0.003634	3.83798	-27.4652	-15.3699
 415	1	3	-0.04742	4.31871	-29.9159	-14.0127
 416	1	3	-0.200211	3.11614	-29.2043	-13.8184
 417	1	3	-0.05806	2.89228	-27.9324	-14.4204
 418	1	6	0.16443	3.75675	-26.5034	-15.8657
 419	1	6	0.154232	4.5452	-30.8167	-13.4475
 420	1	6	0.179048	2.39483	-29.595	-13.1038
 421	1	7	-0.076903	1.68599	-27.0696	-13.9398
 422	1	7	0.238473	0.414244	-27.6313	-14.6799
 423	1	8	-0.092232	0.106153	-28.8768	-14.2555
 424	1	8	-0.075474	0.620072	-27.7186	-16.0142
 425	1	8	-0.095932	-0.689913	-26.8681	-14.5202
 426	1	7	0.340597	1.84635	-25.529	-14.2546
 427	1	8	-0.110855	3.03099	-25.0504	-13.809
 428	1	8	-0.104879	0.893486	-24.7896	-13.6411
 429	1	8	-0.10758	1.7604	-25.2345	-15.5713
 430	1	3	-0.066666	1.61791	-27.1569	-12.382
 431	1	3	-0.06911	2.83011	-27.1547	-11.6403
 432	1	3	-0.048109	2.78511	-27.1147	-10.2434
 433	1	3	-0.057883	0.393062	-27.1026	-11.6564
 434	1	3	-0.116273	0.371089	-27.0043	-10.2482
 435	1	3	-0.113036	1.59223	-27.0005	-9.56469
 436	1	2	0.502524	1.90108	-26.741	-8.13056
 437	1	1	0.0355	3.28975	-26.7074	-8.0458
 438	1	2	0.450202	3.89589	-27.0026	-9.26368
 439	1	3	-0.097429	4.00284	-26.193	-6.91684
 440	1	3	-0.043121	4.10716	-26.9229	-5.70373
 441	1	3	-0.007101	4.81685	-26.3725	-4.59831
 442	1	3	0.055122	4.58976	-24.9143	-7.02558
 443	1	3	-0.325582	5.28556	-24.3813	-5.93716
 444	1	3	0.061609	5.40758	-25.0864	-4.73087
 445	1	7	0.04075	3.40477	-28.2844	-5.59321
 446	1	9	-0.311814	4.96419	-27.1549	-3.43986
 447	1	6	0.16104	-0.566162	-26.8885	-9.70699
 448	1	6	0.14041	-0.559712	-27.0726	-12.1718
 449	1	6	0.147774	3.79965	-27.1349	-12.1331
 450	1	5	-0.476838	5.08654	-27.0534	-9.52704
 451	1	5	-0.479462	1.08993	-26.4559	-7.26624
 452	1	7	-0.144762	4.49063	-24.0743	-8.29718
 453	1	10	0.052647	5.20012	-24.4264	-9.05657
 454	1	10	0.065097	4.71878	-23.0195	-8.10563
 455	1	10	0.048024	3.48336	-24.1076	-8.73026
 456	1	7	-0.169984	6.20901	-24.411	-3.62568
 457	1	6	0.223059	5.75047	-23.4078	-6.04595
 458	1	10	0.004219	6.98331	-25.0772	-3.23175
 459	1	10	0.100409	5.55697	-24.0921	-2.8038
 460	1	10	0.163068	6.72909	-23.5176	-3.98728
 461	1	10	0.042023	2.33727	-28.1455	-5.37767
 462	1	10	0.011973	3.8138	-28.9282	-4.80693
 463	1	10	-0.068283	3.4842	-28.8592	-6.52413
 464	1	4	0.330652	4.58174	-28.0868	-3.45524
 465	1	1	0.4882	12.5305	-24.7548	-23.1977
 466	1	2	0.025477	11.6252	-24.5146	-22.1649
 467	1	3	-0.008635	11.3585	-23.0587	-22.2302
 468	1	2	0.050267	12.9101	-23.5939	-23.8841
 469	1	3	0.063619	12.1458	-22.5033	-23.2162
 470	1	5	-0.374081	10.976	-25.316	-21.5159
 471	1	5	-0.389097	13.501	-23.4884	-24.9472
 472	1	3	-0.003634	10.3449	-22.3317	-21.6002
 473	1	3	-0.04742	12.0116	-21.1548	-23.5608
 474	1	3	-0.200211	11.0471	-20.3824	-22.8757
 475	1	3	-0.05806	10.1766	-20.9537	-21.9019
 476	1	6	0.16443	9.68023	-22.8702	-20.9323
 477	1	6	0.154232	12.6058	-20.7317	-24.368
 478	1	6	0.179048	10.9365	-19.3432	-23.1699
 479	1	7	-0.076903	8.99831	-20.1308	-21.2871
 480	1	7	0.238473	9.48333	-18.7213	-20.7674
 481	1	8	-0.092232	10.64	-18.8157	-20.0751
 482	1	8	-0.075474	8.57266	-18.1632	-19.937
 483	1	8	-0.095932	9.70294	-17.8164	-21.7466
 484	1	7	0.340597	7.93372	-19.9291	-22.4416
 485	1	8	-0.110855	7.4377	-21.1159	-22.8619
 486	1	8	-0.104879	8.44	-19.3445	-23.5507
 487	1	8	-0.10758	6.89507	-19.1495	-22.0625
 488	1	3	-0.066666	8.40568	-20.8828	-20.0427
 489	1	3	-0.06911	9.27235	-21.2612	-18.9779
 490	1	3	-0.048109	8.76663	-22.0147	-17.908
 491	1	3	-0.057883	7.02819	-21.2441	-19.9326
 492	1	3	-0.116273	6.53482	-21.9804	-18.8392
 493	1	3	-0.113036	7.43324	-22.3577	-17.8411
 494	1	2	0.502524	7.23685	-23.2655	-16.6844
 495	1	1	0.0355	8.50788	-23.4908	-16.1712
 496	1	2	0.450202	9.47789	-22.7164	-16.7991
 497	1	3	-0.097429	8.76605	-24.6015	-15.3144
 498	1	3	-0.043121	8.96365	-25.871	-15.9118
 499	1	3	-0.007101	8.80205	-27.042	-15.13
 500	1	3	0.055122	8.58261	-24.4906	-13.9211
 501	1	3	-0.325582	8.57258	-25.6523	-13.137
 502	1	3	0.061609	8.65257	-26.9233	-13.7258
 503	1	7	0.04075	9.24015	-25.9553	-17.4221
 504	1	9	-0.311814	8.57152	-28.2653	-15.776
 505	1	6	0.16104	5.49367	-22.2954	-18.7939
 506	1	6	0.14041	6.30658	-20.9966	-20.7007
 507	1	6	0.147774	10.3384	-21.0506	-19.0154
 508	1	5	-0.476838	10.6798	-22.7109	-16.597
 509	1	5	-0.479462	6.184	-23.7861	-16.3551
 510	1	7	-0.144762	8.34266	-23.1515	-13.2365
 511	1	10	0.052647	8.76655	-23.1461	-12.2245
 512	1	10	0.065097	7.26817	-22.9472	-13.1497
 513	1	10	0.048024	8.80549	-22.3193	-13.7802
 514	1	7	-0.169984	8.54077	-28.1358	-12.8104
 515	1	6	0.223059	8.42252	-25.5652	-12.0646
 516	1	10	0.004219	9.09583	-28.9956	-13.2048
 517	1	10	0.100409	7.49484	-28.4333	-12.6723
 518	1	10	0.163068	8.95317	-27.9244	-11.8172
 519	1	10	0.042023	8.40261	-25.5646	-18.0124
 520	1	10	0.011973	9.44027	-26.9727	-17.7746
 521	1	10	-0.068283	10.1268	-25.3648	-17.6814
 522	1	4	0.330652	8.88082	-28.3276	-16.7333
 523	1	1	0.4882	13.2399	-32.5592	-12.8652
 524	1	2	0.025477	14.1813	-33.2865	-13.5919
 525	1	3	-0.008635	13.4181	-33.7993	-14.7604
 526	1	2	0.050267	11.9761	-32.5212	-13.4558
 527	1	3	0.063619	12.1238	-33.3258	-14.6859
 528	1	5	-0.374081	15.3843	-33.3874	-13.4121
 529	1	5	-0.389097	10.9829	-31.8912	-13.1365
 530	1	3	-0.003634	13.8546	-34.5654	-15.8444
 531	1	3	-0.04742	11.2038	-33.5489	-15.7083
 532	1	3	-0.200211	11.6445	-34.2609	-16.8393
 533	1	3	-0.05806	12.9628	-34.7921	-16.9287
 534	1	6	0.16443	14.8777	-34.9222	-15.8295
 535	1	6	0.154232	10.1976	-33.1405	-15.6417
 536	1	6	0.179048	10.9502	-34.3764	-17.6666
 537	1	7	-0.076903	13.3781	-35.5243	-18.2379
 538	1	7	0.238473	14.9007	-35.9432	-18.2759
 539	1	8	-0.092232	15.7312	-34.8957	-18.0724
 540	1	8	-0.075474	15.2546	-36.448	-19.4791
 541	1	8	-0.095932	15.204	-36.8824	-17.3502
 542	1	7	0.340597	12.4941	-36.8376	-18.3327
 543	1	8	-0.110855	11.1921	-36.5782	-18.5888
 544	1	8	-0.104879	12.5155	-37.5313	-17.1715
 545	1	8	-0.10758	12.8982	-37.6948	-19.2969
 546	1	3	-0.066666	13.1566	-34.5103	-19.4012
 547	1	3	-0.06911	13.5852	-33.163	-19.2388
 548	1	3	-0.048109	13.3992	-32.2473	-20.2857
 549	1	3	-0.057883	12.5754	-34.8827	-20.6458
 550	1	3	-0.116273	12.3996	-33.9486	-21.6878
 551	1	3	-0.113036	12.8175	-32.6306	-21.475
 552	1	2	0.502524	12.8407	-31.4673	-22.4014
 553	1	1	0.0355	13.4823	-30.4439	-21.7137
 554	1	2	0.450202	13.8157	-30.8193	-20.414
 555	1	3	-0.097429	13.9321	-29.2468	-22.3597
 556	1	3	-0.043121	13.0596	-28.1546	-22.6129
 557	1	3	-0.007101	13.519	-27.0283	-23.3558
 558	1	3	0.055122	15.2469	-29.2272	-22.8683
 559	1	3	-0.325582	15.6882	-28.1215	-23.6023
 560	1	3	0.061609	14.8416	-27.0354	-23.865
 561	1	7	0.04075	11.6123	-28.2202	-22.1118
 562	1	9	-0.311814	12.6059	-26.0461	-23.7706
 563	1	6	0.16104	11.9724	-34.2455	-22.6437
 564	1	6	0.14041	12.2638	-35.9043	-20.8321
 565	1	6	0.147774	14.0736	-32.8315	-18.3252
 566	1	5	-0.476838	14.4139	-30.168	-19.575
 567	1	5	-0.479462	12.451	-31.4651	-23.5568
 568	1	7	-0.144762	16.1806	-30.4244	-22.7214
 569	1	10	0.052647	17.1533	-30.2439	-23.1944
 570	1	10	0.065097	15.7521	-31.3158	-23.1972
 571	1	10	0.048024	16.3707	-30.656	-21.6665
 572	1	7	-0.169984	15.362	-25.9611	-24.8097
 573	1	6	0.223059	16.6862	-28.1385	-24.0285
 574	1	10	0.004219	14.7272	-25.882	-25.7015
 575	1	10	0.100409	16.3776	-26.1786	-25.1606
 576	1	10	0.163068	15.3996	-24.9839	-24.3193
 577	1	10	0.042023	11.543	-27.8342	-21.0868
 578	1	10	0.011973	11.2143	-29.24	-22.1035
 579	1	10	-0.068283	10.9253	-27.6445	-22.7439
 580	1	4	0.330652	11.6423	-26.3524	-23.7792
 581	1	1	0.4882	-0.79813	-36.845	-12.6235
 582	1	2	0.025477	0.275721	-37.3846	-11.9306
 583	1	3	-0.008635	1.46905	-36.8217	-12.6189
 584	1	2	0.050267	-0.450449	-35.9902	-13.6591
 585	1	3	0.063619	1.0371	-35.9831	-13.6284
 586	1	5	-0.374081	0.257109	-38.1113	-10.9522
 587	1	5	-0.389097	-1.18366	-35.3823	-14.4212
 588	1	3	-0.003634	2.82938	-37.0597	-12.39
 589	1	3	-0.04742	1.95165	-35.2864	-14.4181
 590	1	3	-0.200211	3.32803	-35.4822	-14.1738
 591	1	3	-0.05806	3.80792	-36.4069	-13.1981
 592	1	6	0.16443	3.07323	-37.766	-11.607
 593	1	6	0.154232	1.60127	-34.619	-15.2024
 594	1	6	0.179048	4.02033	-34.9227	-14.7929
 595	1	7	-0.076903	5.35191	-36.6948	-13.0765
 596	1	7	0.238473	5.63673	-38.0224	-12.2601
 597	1	8	-0.092232	6.94445	-38.3598	-12.1925
 598	1	8	-0.075474	4.98976	-39.0848	-12.7909
 599	1	8	-0.095932	5.2698	-37.9061	-10.9637
 600	1	7	0.340597	5.94499	-36.8593	-14.5455
 601	1	8	-0.110855	6.21301	-35.6639	-15.1197
 602	1	8	-0.104879	5.0873	-37.5129	-15.3622
 603	1	8	-0.10758	7.10462	-37.5479	-14.6275
 604	1	3	-0.066666	6.07088	-35.5471	-12.3079
 605	1	3	-0.06911	7.48478	-35.4638	-12.3372
 606	1	3	-0.048109	8.13496	-34.5609	-11.4947
 607	1	3	-0.057883	5.36943	-34.6565	-11.4437
 608	1	3	-0.116273	6.05092	-33.7451	-10.6011
 609	1	3	-0.113036	7.45182	-33.7369	-10.6272
 610	1	2	0.502524	8.45753	-33.0488	-9.75667
 611	1	1	0.0355	9.68897	-33.5615	-10.1483
 612	1	2	0.450202	9.58258	-34.4219	-11.236
 613	1	3	-0.097429	10.9665	-33.3229	-9.56251
 614	1	3	-0.043121	11.7229	-32.2733	-10.1163
 615	1	3	-0.007101	13.0409	-32.5626	-10.5321
 616	1	3	0.055122	11.6254	-34.4366	-8.99885
 617	1	3	-0.325582	13.0091	-34.5699	-9.15991
 618	1	3	0.061609	13.7011	-33.7024	-10.0141
 619	1	7	0.04075	11.0614	-30.9173	-10.3933
 620	1	9	-0.311814	13.5331	-31.894	-11.651
 621	1	6	0.16104	5.51042	-33.1068	-9.9053
 622	1	6	0.14041	4.28742	-34.7018	-11.3718
 623	1	6	0.147774	8.09306	-36.1371	-12.9325
 624	1	5	-0.476838	10.4708	-35.0315	-11.8126
 625	1	5	-0.479462	8.22097	-32.2807	-8.83981
 626	1	7	-0.144762	10.8588	-35.6035	-8.39414
 627	1	10	0.052647	11.4329	-36.0788	-7.58931
 628	1	10	0.065097	10.6577	-36.3678	-9.15551
 629	1	10	0.048024	9.90061	-35.2834	-7.96737
 630	1	7	-0.169984	15.1161	-34.0966	-10.4103
 631	1	6	0.223059	13.5047	-35.4607	-8.78656