

################################################################################
##################################    Init    ##################################
################################################################################
units           real
atom_style      full
pair_style      lj/cut/coul/long 12.0  12.0
kspace_style    pppm 1e-4
bond_style      harmonic
angle_style     harmonic
dihedral_style  fourier
improper_style  cvff
special_bonds   amber
pair_modify     mix arithmetic
read_data       temp.lmps
  orthogonal box = (-105.991 -105.991 -105.991) to (105.991 105.991 105.991)
  1 by 1 by 1 MPI processor grid
  reading atoms ...
  116 atoms
  reading velocities ...
  116 velocities
  scanning bonds ...
  3 = max bonds/atom
  scanning angles ...
  6 = max angles/atom
  scanning dihedrals ...
  24 = max dihedrals/atom
  scanning impropers ...
  2 = max impropers/atom
  reading bonds ...
  125 bonds
  reading angles ...
  218 angles
  reading dihedrals ...
  318 dihedrals
  reading impropers ...
  32 impropers
  4 = max # of 1-2 neighbors
  10 = max # of 1-3 neighbors
  20 = max # of 1-4 neighbors
  22 = max # of special neighbors
  special bonds CPU = 0.000285149 secs
  read_data CPU = 0.00432515 secs
################################################################################

timestep        1
fix             pysimm_md all nve/limit 0.1
run             2000
PPPM initialization ...
  using 12-bit tables for long-range coulomb (../kspace.cpp:332)
  G vector (1/distance) = 0.147753
  grid = 36 36 36
  stencil order = 5
  estimated absolute RMS force accuracy = 0.00169538
  estimated relative force accuracy = 5.10558e-06
  using double precision KISS FFT
  3d grid and FFT values/proc = 68921 46656
Neighbor list info ...
  update every 1 steps, delay 10 steps, check yes
  max neighbors/atom: 2000, page size: 100000
  master list distance cutoff = 14
  ghost atom cutoff = 14
  binsize = 7, bins = 31 31 31
  1 neighbor lists, perpetual/occasional/extra = 1 0 0
  (1) pair lj/cut/coul/long, perpetual
      attributes: half, newton on
      pair build: half/bin/newton
      stencil: half/bin/3d/newton
      bin: standard
Per MPI rank memory allocation (min/avg/max) = 24.48 | 24.48 | 24.48 Mbytes
Step Temp E_pair E_mol TotEng Press 
       0    7.5595381     15485314    199.91095     15485517    445901.45 
    2000    704.41306    39.086861    347.30469    627.85953   0.63217466 
Loop time of 19.951 on 1 procs for 2000 steps with 116 atoms

Performance: 8.661 ns/day, 2.771 hours/ns, 100.246 timesteps/s
100.0% CPU use with 1 MPI tasks x no OpenMP threads

MPI task timing breakdown:
Section |  min time  |  avg time  |  max time  |%varavg| %total
---------------------------------------------------------------
Pair    | 0.2196     | 0.2196     | 0.2196     |   0.0 |  1.10
Bond    | 0.10588    | 0.10588    | 0.10588    |   0.0 |  0.53
Kspace  | 19.598     | 19.598     | 19.598     |   0.0 | 98.23
Neigh   | 0.016152   | 0.016152   | 0.016152   |   0.0 |  0.08
Comm    | 0.0014272  | 0.0014272  | 0.0014272  |   0.0 |  0.01
Output  | 2.7895e-05 | 2.7895e-05 | 2.7895e-05 |   0.0 |  0.00
Modify  | 0.0050657  | 0.0050657  | 0.0050657  |   0.0 |  0.03
Other   |            | 0.004873   |            |       |  0.02

Nlocal:    116 ave 116 max 116 min
Histogram: 1 0 0 0 0 0 0 0 0 0
Nghost:    0 ave 0 max 0 min
Histogram: 1 0 0 0 0 0 0 0 0 0
Neighs:    4849 ave 4849 max 4849 min
Histogram: 1 0 0 0 0 0 0 0 0 0

Total # of neighbors = 4849
Ave neighs/atom = 41.8017
Ave special neighs/atom = 10.7414
Neighbor list builds = 86
Dangerous builds = 0
unfix pysimm_md
min_style cg
minimize 0.001 0.001 10000 100000
WARNING: Using 'neigh_modify every 1 delay 0 check yes' setting during minimization (../min.cpp:190)
PPPM initialization ...
  using 12-bit tables for long-range coulomb (../kspace.cpp:332)
  G vector (1/distance) = 0.147753
  grid = 36 36 36
  stencil order = 5
  estimated absolute RMS force accuracy = 0.00169538
  estimated relative force accuracy = 5.10558e-06
  using double precision KISS FFT
  3d grid and FFT values/proc = 68921 46656
Per MPI rank memory allocation (min/avg/max) = 25.61 | 25.61 | 25.61 Mbytes
Step Temp E_pair E_mol TotEng Press 
    2000    704.41306    39.086861    347.30469    627.85953   0.63217466 
    2086    704.41306     7.659312    139.33757    388.46486    1.2129324 
Loop time of 1.78444 on 1 procs for 86 steps with 116 atoms

100.1% CPU use with 1 MPI tasks x no OpenMP threads

Minimization stats:
  Stopping criterion = energy tolerance
  Energy initial, next-to-last, final = 
          386.39155568      147.141997647      146.996885054
  Force two-norm initial, final = 588.484 16.1221
  Force max component initial, final = 136.142 3.73879
  Final line search alpha, max atom move = 0.00619901 0.0231768
  Iterations, force evaluations = 86 172

MPI task timing breakdown:
Section |  min time  |  avg time  |  max time  |%varavg| %total
---------------------------------------------------------------
Pair    | 0.032909   | 0.032909   | 0.032909   |   0.0 |  1.84
Bond    | 0.010045   | 0.010045   | 0.010045   |   0.0 |  0.56
Kspace  | 1.7401     | 1.7401     | 1.7401     |   0.0 | 97.51
Neigh   | 0.00038886 | 0.00038886 | 0.00038886 |   0.0 |  0.02
Comm    | 0.00010633 | 0.00010633 | 0.00010633 |   0.0 |  0.01
Output  | 0          | 0          | 0          |   0.0 |  0.00
Modify  | 0          | 0          | 0          |   0.0 |  0.00
Other   |            | 0.0009432  |            |       |  0.05

Nlocal:    116 ave 116 max 116 min
Histogram: 1 0 0 0 0 0 0 0 0 0
Nghost:    0 ave 0 max 0 min
Histogram: 1 0 0 0 0 0 0 0 0 0
Neighs:    4797 ave 4797 max 4797 min
Histogram: 1 0 0 0 0 0 0 0 0 0

Total # of neighbors = 4797
Ave neighs/atom = 41.3534
Ave special neighs/atom = 10.7414
Neighbor list builds = 2
Dangerous builds = 0
write_dump all custom pysimm.dump.tmp id q x y z vx vy vz
quit


################################################################################
##################################    Init    ##################################
################################################################################
units           real
atom_style      full
pair_style      lj/cut/coul/long 12.0  12.0
kspace_style    pppm 1e-4
bond_style      harmonic
angle_style     harmonic
dihedral_style  fourier
improper_style  cvff
special_bonds   amber
pair_modify     mix arithmetic
read_data       temp.lmps
  orthogonal box = (-105.991 -105.991 -105.991) to (105.991 105.991 105.991)
  1 by 1 by 1 MPI processor grid
  reading atoms ...
  174 atoms
  reading velocities ...
  174 velocities
  scanning bonds ...
  3 = max bonds/atom
  scanning angles ...
  6 = max angles/atom
  scanning dihedrals ...
  24 = max dihedrals/atom
  scanning impropers ...
  2 = max impropers/atom
  reading bonds ...
  188 bonds
  reading angles ...
  329 angles
  reading dihedrals ...
  482 dihedrals
  reading impropers ...
  48 impropers
  4 = max # of 1-2 neighbors
  10 = max # of 1-3 neighbors
  20 = max # of 1-4 neighbors
  22 = max # of special neighbors
  special bonds CPU = 0.000329971 secs
  read_data CPU = 0.00507903 secs
################################################################################

timestep        1
fix             pysimm_md all nve/limit 0.1
run             2000
PPPM initialization ...
  using 12-bit tables for long-range coulomb (../kspace.cpp:332)
  G vector (1/distance) = 0.0199652
  grid = 3 3 3
  stencil order = 5
  estimated absolute RMS force accuracy = 0.0454573
  estimated relative force accuracy = 0.000136893
  using double precision KISS FFT
  3d grid and FFT values/proc = 512 27
Neighbor list info ...
  update every 1 steps, delay 10 steps, check yes
  max neighbors/atom: 2000, page size: 100000
  master list distance cutoff = 14
  ghost atom cutoff = 14
  binsize = 7, bins = 31 31 31
  1 neighbor lists, perpetual/occasional/extra = 1 0 0
  (1) pair lj/cut/coul/long, perpetual
      attributes: half, newton on
      pair build: half/bin/newton
      stencil: half/bin/3d/newton
      bin: standard
Per MPI rank memory allocation (min/avg/max) = 17.91 | 17.91 | 17.91 Mbytes
Step Temp E_pair E_mol TotEng Press 
       0     470.7639    43432.731    352.91603     44028.41    1253.3163 
    2000    622.78352    53.996964    535.97981    911.13386   -1.3849698 
Loop time of 0.802874 on 1 procs for 2000 steps with 174 atoms

Performance: 215.227 ns/day, 0.112 hours/ns, 2491.051 timesteps/s
100.0% CPU use with 1 MPI tasks x no OpenMP threads

MPI task timing breakdown:
Section |  min time  |  avg time  |  max time  |%varavg| %total
---------------------------------------------------------------
Pair    | 0.36884    | 0.36884    | 0.36884    |   0.0 | 45.94
Bond    | 0.15509    | 0.15509    | 0.15509    |   0.0 | 19.32
Kspace  | 0.24376    | 0.24376    | 0.24376    |   0.0 | 30.36
Neigh   | 0.024916   | 0.024916   | 0.024916   |   0.0 |  3.10
Comm    | 0.0010653  | 0.0010653  | 0.0010653  |   0.0 |  0.13
Output  | 2.6941e-05 | 2.6941e-05 | 2.6941e-05 |   0.0 |  0.00
Modify  | 0.0061259  | 0.0061259  | 0.0061259  |   0.0 |  0.76
Other   |            | 0.00304    |            |       |  0.38

Nlocal:    174 ave 174 max 174 min
Histogram: 1 0 0 0 0 0 0 0 0 0
Nghost:    6 ave 6 max 6 min
Histogram: 1 0 0 0 0 0 0 0 0 0
Neighs:    8291 ave 8291 max 8291 min
Histogram: 1 0 0 0 0 0 0 0 0 0

Total # of neighbors = 8291
Ave neighs/atom = 47.6494
Ave special neighs/atom = 10.8276
Neighbor list builds = 90
Dangerous builds = 0
unfix pysimm_md
min_style cg
minimize 0.001 0.001 10000 100000
WARNING: Using 'neigh_modify every 1 delay 0 check yes' setting during minimization (../min.cpp:190)
PPPM initialization ...
  using 12-bit tables for long-range coulomb (../kspace.cpp:332)
  G vector (1/distance) = 0.0199652
  grid = 3 3 3
  stencil order = 5
  estimated absolute RMS force accuracy = 0.0454573
  estimated relative force accuracy = 0.000136893
  using double precision KISS FFT
  3d grid and FFT values/proc = 512 27
Per MPI rank memory allocation (min/avg/max) = 19.03 | 19.03 | 19.03 Mbytes
Step Temp E_pair E_mol TotEng Press 
    2000    622.78352    53.996964    535.97981    911.13386   -1.3849698 
    2024    622.78352    29.178466     215.2299    565.56546    1.6232201 
Loop time of 0.0569339 on 1 procs for 24 steps with 174 atoms

100.1% CPU use with 1 MPI tasks x no OpenMP threads

Minimization stats:
  Stopping criterion = linesearch alpha is zero
  Energy initial, next-to-last, final = 
         589.976769088      244.408370016      244.408370016
  Force two-norm initial, final = 718.225 38.1482
  Force max component initial, final = 156.72 5.8107
  Final line search alpha, max atom move = 5.37835e-12 3.1252e-11
  Iterations, force evaluations = 24 107

MPI task timing breakdown:
Section |  min time  |  avg time  |  max time  |%varavg| %total
---------------------------------------------------------------
Pair    | 0.03388    | 0.03388    | 0.03388    |   0.0 | 59.51
Bond    | 0.0092118  | 0.0092118  | 0.0092118  |   0.0 | 16.18
Kspace  | 0.013345   | 0.013345   | 0.013345   |   0.0 | 23.44
Neigh   | 0          | 0          | 0          |   0.0 |  0.00
Comm    | 5.0068e-05 | 5.0068e-05 | 5.0068e-05 |   0.0 |  0.09
Output  | 0          | 0          | 0          |   0.0 |  0.00
Modify  | 0          | 0          | 0          |   0.0 |  0.00
Other   |            | 0.000447   |            |       |  0.79

Nlocal:    174 ave 174 max 174 min
Histogram: 1 0 0 0 0 0 0 0 0 0
Nghost:    6 ave 6 max 6 min
Histogram: 1 0 0 0 0 0 0 0 0 0
Neighs:    8254 ave 8254 max 8254 min
Histogram: 1 0 0 0 0 0 0 0 0 0

Total # of neighbors = 8254
Ave neighs/atom = 47.4368
Ave special neighs/atom = 10.8276
Neighbor list builds = 0
Dangerous builds = 0
write_dump all custom pysimm.dump.tmp id q x y z vx vy vz
quit


################################################################################
##################################    Init    ##################################
################################################################################
units           real
atom_style      full
pair_style      lj/cut/coul/long 12.0  12.0
kspace_style    pppm 1e-4
bond_style      harmonic
angle_style     harmonic
dihedral_style  fourier
improper_style  cvff
special_bonds   amber
pair_modify     mix arithmetic
read_data       temp.lmps
  orthogonal box = (-105.991 -105.991 -105.991) to (105.991 105.991 105.991)
  1 by 1 by 1 MPI processor grid
  reading atoms ...
  232 atoms
  reading velocities ...
  232 velocities
  scanning bonds ...
  3 = max bonds/atom
  scanning angles ...
  6 = max angles/atom
  scanning dihedrals ...
  24 = max dihedrals/atom
  scanning impropers ...
  2 = max impropers/atom
  reading bonds ...
  251 bonds
  reading angles ...
  440 angles
  reading dihedrals ...
  646 dihedrals
  reading impropers ...
  64 impropers
  4 = max # of 1-2 neighbors
  10 = max # of 1-3 neighbors
  20 = max # of 1-4 neighbors
  22 = max # of special neighbors
  special bonds CPU = 0.00040102 secs
  read_data CPU = 0.190813 secs
################################################################################

timestep        1
fix             pysimm_md all nve/limit 0.1
run             2000
PPPM initialization ...
  using 12-bit tables for long-range coulomb (../kspace.cpp:332)
  G vector (1/distance) = 0.0489098
  grid = 8 8 8
  stencil order = 5
  estimated absolute RMS force accuracy = 0.0393912
  estimated relative force accuracy = 0.000118626
  using double precision KISS FFT
  3d grid and FFT values/proc = 2197 512
Neighbor list info ...
  update every 1 steps, delay 10 steps, check yes
  max neighbors/atom: 2000, page size: 100000
  master list distance cutoff = 14
  ghost atom cutoff = 14
  binsize = 7, bins = 31 31 31
  1 neighbor lists, perpetual/occasional/extra = 1 0 0
  (1) pair lj/cut/coul/long, perpetual
      attributes: half, newton on
      pair build: half/bin/newton
      stencil: half/bin/3d/newton
      bin: standard
Per MPI rank memory allocation (min/avg/max) = 18.03 | 18.03 | 18.03 Mbytes
Step Temp E_pair E_mol TotEng Press 
       0    468.29523    2406.9879    548.55869    3277.9993    69.252376 
    2000    602.20364    22.338899    622.30219    1059.2987    1.7338389 
Loop time of 1.30105 on 1 procs for 2000 steps with 232 atoms

Performance: 132.816 ns/day, 0.181 hours/ns, 1537.217 timesteps/s
100.0% CPU use with 1 MPI tasks x no OpenMP threads

MPI task timing breakdown:
Section |  min time  |  avg time  |  max time  |%varavg| %total
---------------------------------------------------------------
Pair    | 0.49837    | 0.49837    | 0.49837    |   0.0 | 38.31
Bond    | 0.20495    | 0.20495    | 0.20495    |   0.0 | 15.75
Kspace  | 0.54716    | 0.54716    | 0.54716    |   0.0 | 42.06
Neigh   | 0.03714    | 0.03714    | 0.03714    |   0.0 |  2.85
Comm    | 0.0018778  | 0.0018778  | 0.0018778  |   0.0 |  0.14
Output  | 2.2888e-05 | 2.2888e-05 | 2.2888e-05 |   0.0 |  0.00
Modify  | 0.007869   | 0.007869   | 0.007869   |   0.0 |  0.60
Other   |            | 0.003664   |            |       |  0.28

Nlocal:    232 ave 232 max 232 min
Histogram: 1 0 0 0 0 0 0 0 0 0
Nghost:    56 ave 56 max 56 min
Histogram: 1 0 0 0 0 0 0 0 0 0
Neighs:    11054 ave 11054 max 11054 min
Histogram: 1 0 0 0 0 0 0 0 0 0

Total # of neighbors = 11054
Ave neighs/atom = 47.6466
Ave special neighs/atom = 10.8707
Neighbor list builds = 95
Dangerous builds = 0
unfix pysimm_md
min_style cg
minimize 0.001 0.001 10000 100000
WARNING: Using 'neigh_modify every 1 delay 0 check yes' setting during minimization (../min.cpp:190)
PPPM initialization ...
  using 12-bit tables for long-range coulomb (../kspace.cpp:332)
  G vector (1/distance) = 0.0489098
  grid = 8 8 8
  stencil order = 5
  estimated absolute RMS force accuracy = 0.0393912
  estimated relative force accuracy = 0.000118626
  using double precision KISS FFT
  3d grid and FFT values/proc = 2197 512
Per MPI rank memory allocation (min/avg/max) = 19.15 | 19.15 | 19.15 Mbytes
Step Temp E_pair E_mol TotEng Press 
    2000    602.20364    22.338899    622.30219    1059.2987    1.7338389 
    2025    602.20364    12.401438    273.03406    700.09313    1.6160531 
Loop time of 0.0883341 on 1 procs for 25 steps with 232 atoms

99.6% CPU use with 1 MPI tasks x no OpenMP threads

Minimization stats:
  Stopping criterion = linesearch alpha is zero
  Energy initial, next-to-last, final = 
         644.641084223      285.435496423      285.435496423
  Force two-norm initial, final = 697.372 44.2184
  Force max component initial, final = 112.816 6.61401
  Final line search alpha, max atom move = 3.98157e-12 2.63341e-11
  Iterations, force evaluations = 25 109

MPI task timing breakdown:
Section |  min time  |  avg time  |  max time  |%varavg| %total
---------------------------------------------------------------
Pair    | 0.045424   | 0.045424   | 0.045424   |   0.0 | 51.42
Bond    | 0.01247    | 0.01247    | 0.01247    |   0.0 | 14.12
Kspace  | 0.029788   | 0.029788   | 0.029788   |   0.0 | 33.72
Neigh   | 0          | 0          | 0          |   0.0 |  0.00
Comm    | 7.7248e-05 | 7.7248e-05 | 7.7248e-05 |   0.0 |  0.09
Output  | 0          | 0          | 0          |   0.0 |  0.00
Modify  | 0          | 0          | 0          |   0.0 |  0.00
Other   |            | 0.0005753  |            |       |  0.65

Nlocal:    232 ave 232 max 232 min
Histogram: 1 0 0 0 0 0 0 0 0 0
Nghost:    56 ave 56 max 56 min
Histogram: 1 0 0 0 0 0 0 0 0 0
Neighs:    11043 ave 11043 max 11043 min
Histogram: 1 0 0 0 0 0 0 0 0 0

Total # of neighbors = 11043
Ave neighs/atom = 47.5991
Ave special neighs/atom = 10.8707
Neighbor list builds = 0
Dangerous builds = 0
write_dump all custom pysimm.dump.tmp id q x y z vx vy vz
quit


################################################################################
##################################    Init    ##################################
################################################################################
units           real
atom_style      full
pair_style      lj/cut/coul/long 12.0  12.0
kspace_style    pppm 1e-4
bond_style      harmonic
angle_style     harmonic
dihedral_style  fourier
improper_style  cvff
special_bonds   amber
pair_modify     mix arithmetic
read_data       temp.lmps
  orthogonal box = (-105.991 -105.991 -105.991) to (105.991 105.991 105.991)
  1 by 1 by 1 MPI processor grid
  reading atoms ...
  290 atoms
  reading velocities ...
  290 velocities
  scanning bonds ...
  3 = max bonds/atom
  scanning angles ...
  6 = max angles/atom
  scanning dihedrals ...
  24 = max dihedrals/atom
  scanning impropers ...
  2 = max impropers/atom
  reading bonds ...
  314 bonds
  reading angles ...
  551 angles
  reading dihedrals ...
  810 dihedrals
  reading impropers ...
  80 impropers
  4 = max # of 1-2 neighbors
  10 = max # of 1-3 neighbors
  20 = max # of 1-4 neighbors
  22 = max # of special neighbors
  special bonds CPU = 0.000416994 secs
  read_data CPU = 0.00591397 secs
################################################################################

timestep        1
fix             pysimm_md all nve/limit 0.1
run             2000
PPPM initialization ...
  using 12-bit tables for long-range coulomb (../kspace.cpp:332)
  G vector (1/distance) = 0.0593279
  grid = 10 10 10
  stencil order = 5
  estimated absolute RMS force accuracy = 0.0374399
  estimated relative force accuracy = 0.000112749
  using double precision KISS FFT
  3d grid and FFT values/proc = 3375 1000
Neighbor list info ...
  update every 1 steps, delay 10 steps, check yes
  max neighbors/atom: 2000, page size: 100000
  master list distance cutoff = 14
  ghost atom cutoff = 14
  binsize = 7, bins = 31 31 31
  1 neighbor lists, perpetual/occasional/extra = 1 0 0
  (1) pair lj/cut/coul/long, perpetual
      attributes: half, newton on
      pair build: half/bin/newton
      stencil: half/bin/3d/newton
      bin: standard
Per MPI rank memory allocation (min/avg/max) = 18.12 | 18.12 | 18.12 Mbytes
Step Temp E_pair E_mol TotEng Press 
       0    482.85036    564.34337    599.52279    1579.8196    15.883721 
    2000    502.78839    29.847415    738.70462    1201.6812   -1.0854066 
Loop time of 1.88652 on 1 procs for 2000 steps with 290 atoms

Performance: 91.597 ns/day, 0.262 hours/ns, 1060.154 timesteps/s
100.0% CPU use with 1 MPI tasks x no OpenMP threads

MPI task timing breakdown:
Section |  min time  |  avg time  |  max time  |%varavg| %total
---------------------------------------------------------------
Pair    | 0.67133    | 0.67133    | 0.67133    |   0.0 | 35.59
Bond    | 0.25953    | 0.25953    | 0.25953    |   0.0 | 13.76
Kspace  | 0.88878    | 0.88878    | 0.88878    |   0.0 | 47.11
Neigh   | 0.049721   | 0.049721   | 0.049721   |   0.0 |  2.64
Comm    | 0.0027883  | 0.0027883  | 0.0027883  |   0.0 |  0.15
Output  | 2.5034e-05 | 2.5034e-05 | 2.5034e-05 |   0.0 |  0.00
Modify  | 0.0099034  | 0.0099034  | 0.0099034  |   0.0 |  0.52
Other   |            | 0.004441   |            |       |  0.24

Nlocal:    290 ave 290 max 290 min
Histogram: 1 0 0 0 0 0 0 0 0 0
Nghost:    113 ave 113 max 113 min
Histogram: 1 0 0 0 0 0 0 0 0 0
Neighs:    14496 ave 14496 max 14496 min
Histogram: 1 0 0 0 0 0 0 0 0 0

Total # of neighbors = 14496
Ave neighs/atom = 49.9862
Ave special neighs/atom = 10.8966
Neighbor list builds = 98
Dangerous builds = 0
unfix pysimm_md
min_style cg
minimize 0.001 0.001 10000 100000
WARNING: Using 'neigh_modify every 1 delay 0 check yes' setting during minimization (../min.cpp:190)
PPPM initialization ...
  using 12-bit tables for long-range coulomb (../kspace.cpp:332)
  G vector (1/distance) = 0.0593279
  grid = 10 10 10
  stencil order = 5
  estimated absolute RMS force accuracy = 0.0374399
  estimated relative force accuracy = 0.000112749
  using double precision KISS FFT
  3d grid and FFT values/proc = 3375 1000
Per MPI rank memory allocation (min/avg/max) = 19.25 | 19.25 | 19.25 Mbytes
Step Temp E_pair E_mol TotEng Press 
    2000    502.78839    29.847415    738.70462    1201.6812   -1.0854066 
    2025    502.78839    14.717288    333.81185    781.65826    1.9126404 
Loop time of 0.056493 on 1 procs for 25 steps with 290 atoms

100.9% CPU use with 1 MPI tasks x no OpenMP threads

Minimization stats:
  Stopping criterion = energy tolerance
  Energy initial, next-to-last, final = 
         768.552036733      348.729417318      348.529139055
  Force two-norm initial, final = 776.12 40.9414
  Force max component initial, final = 148.228 4.79413
  Final line search alpha, max atom move = 0.0057584 0.0276065
  Iterations, force evaluations = 25 50

MPI task timing breakdown:
Section |  min time  |  avg time  |  max time  |%varavg| %total
---------------------------------------------------------------
Pair    | 0.027082   | 0.027082   | 0.027082   |   0.0 | 47.94
Bond    | 0.007086   | 0.007086   | 0.007086   |   0.0 | 12.54
Kspace  | 0.021856   | 0.021856   | 0.021856   |   0.0 | 38.69
Neigh   | 0          | 0          | 0          |   0.0 |  0.00
Comm    | 3.8385e-05 | 3.8385e-05 | 3.8385e-05 |   0.0 |  0.07
Output  | 0          | 0          | 0          |   0.0 |  0.00
Modify  | 0          | 0          | 0          |   0.0 |  0.00
Other   |            | 0.0004306  |            |       |  0.76

Nlocal:    290 ave 290 max 290 min
Histogram: 1 0 0 0 0 0 0 0 0 0
Nghost:    111 ave 111 max 111 min
Histogram: 1 0 0 0 0 0 0 0 0 0
Neighs:    14516 ave 14516 max 14516 min
Histogram: 1 0 0 0 0 0 0 0 0 0

Total # of neighbors = 14516
Ave neighs/atom = 50.0552
Ave special neighs/atom = 10.8966
Neighbor list builds = 0
Dangerous builds = 0
write_dump all custom pysimm.dump.tmp id q x y z vx vy vz
quit


################################################################################
##################################    Init    ##################################
################################################################################
units           real
atom_style      full
pair_style      lj/cut/coul/long 12.0  12.0
kspace_style    pppm 1e-4
bond_style      harmonic
angle_style     harmonic
dihedral_style  fourier
improper_style  cvff
special_bonds   amber
pair_modify     mix arithmetic
read_data       temp.lmps
  orthogonal box = (-105.991 -105.991 -105.991) to (105.991 105.991 105.991)
  1 by 1 by 1 MPI processor grid
  reading atoms ...
  348 atoms
  reading velocities ...
  348 velocities
  scanning bonds ...
  3 = max bonds/atom
  scanning angles ...
  6 = max angles/atom
  scanning dihedrals ...
  24 = max dihedrals/atom
  scanning impropers ...
  2 = max impropers/atom
  reading bonds ...
  377 bonds
  reading angles ...
  662 angles
  reading dihedrals ...
  974 dihedrals
  reading impropers ...
  96 impropers
  4 = max # of 1-2 neighbors
  10 = max # of 1-3 neighbors
  20 = max # of 1-4 neighbors
  22 = max # of special neighbors
  special bonds CPU = 0.000451088 secs
  read_data CPU = 0.00634789 secs
################################################################################

timestep        1
fix             pysimm_md all nve/limit 0.1
run             2000
PPPM initialization ...
  using 12-bit tables for long-range coulomb (../kspace.cpp:332)
  G vector (1/distance) = 0.0690978
  grid = 12 12 12
  stencil order = 5
  estimated absolute RMS force accuracy = 0.0342371
  estimated relative force accuracy = 0.000103104
  using double precision KISS FFT
  3d grid and FFT values/proc = 4913 1728
Neighbor list info ...
  update every 1 steps, delay 10 steps, check yes
  max neighbors/atom: 2000, page size: 100000
  master list distance cutoff = 14
  ghost atom cutoff = 14
  binsize = 7, bins = 31 31 31
  1 neighbor lists, perpetual/occasional/extra = 1 0 0
  (1) pair lj/cut/coul/long, perpetual
      attributes: half, newton on
      pair build: half/bin/newton
      stencil: half/bin/3d/newton
      bin: standard
Per MPI rank memory allocation (min/avg/max) = 18.25 | 18.25 | 18.25 Mbytes
Step Temp E_pair E_mol TotEng Press 
       0    420.00139    282750.41    661.55783    283846.39    8147.8562 
    2000     473.4706     57.54711    841.58006    1388.8573  -0.57646498 
Loop time of 2.44911 on 1 procs for 2000 steps with 348 atoms

Performance: 70.556 ns/day, 0.340 hours/ns, 816.624 timesteps/s
100.0% CPU use with 1 MPI tasks x no OpenMP threads

MPI task timing breakdown:
Section |  min time  |  avg time  |  max time  |%varavg| %total
---------------------------------------------------------------
Pair    | 0.85606    | 0.85606    | 0.85606    |   0.0 | 34.95
Bond    | 0.31483    | 0.31483    | 0.31483    |   0.0 | 12.85
Kspace  | 1.1959     | 1.1959     | 1.1959     |   0.0 | 48.83
Neigh   | 0.06223    | 0.06223    | 0.06223    |   0.0 |  2.54
Comm    | 0.0032346  | 0.0032346  | 0.0032346  |   0.0 |  0.13
Output  | 4.1008e-05 | 4.1008e-05 | 4.1008e-05 |   0.0 |  0.00
Modify  | 0.011988   | 0.011988   | 0.011988   |   0.0 |  0.49
Other   |            | 0.004848   |            |       |  0.20

Nlocal:    348 ave 348 max 348 min
Histogram: 1 0 0 0 0 0 0 0 0 0
Nghost:    137 ave 137 max 137 min
Histogram: 1 0 0 0 0 0 0 0 0 0
Neighs:    18358 ave 18358 max 18358 min
Histogram: 1 0 0 0 0 0 0 0 0 0

Total # of neighbors = 18358
Ave neighs/atom = 52.7529
Ave special neighs/atom = 10.9138
Neighbor list builds = 97
Dangerous builds = 0
unfix pysimm_md
min_style cg
minimize 0.001 0.001 10000 100000
WARNING: Using 'neigh_modify every 1 delay 0 check yes' setting during minimization (../min.cpp:190)
PPPM initialization ...
  using 12-bit tables for long-range coulomb (../kspace.cpp:332)
  G vector (1/distance) = 0.0690978
  grid = 12 12 12
  stencil order = 5
  estimated absolute RMS force accuracy = 0.0342371
  estimated relative force accuracy = 0.000103104
  using double precision KISS FFT
  3d grid and FFT values/proc = 4913 1728
Per MPI rank memory allocation (min/avg/max) = 19.38 | 19.38 | 19.38 Mbytes
Step Temp E_pair E_mol TotEng Press 
    2000     473.4706     57.54711    841.58006    1388.8573  -0.57646498 
    2021     473.4706    14.639802    407.70831    912.07821    2.2809794 
Loop time of 0.062449 on 1 procs for 21 steps with 348 atoms

99.3% CPU use with 1 MPI tasks x no OpenMP threads

Minimization stats:
  Stopping criterion = energy tolerance
  Energy initial, next-to-last, final = 
         899.127166244      422.734638258      422.348112835
  Force two-norm initial, final = 825.153 51.1253
  Force max component initial, final = 155.4 6.76122
  Final line search alpha, max atom move = 0.00356015 0.024071
  Iterations, force evaluations = 21 42

MPI task timing breakdown:
Section |  min time  |  avg time  |  max time  |%varavg| %total
---------------------------------------------------------------
Pair    | 0.029695   | 0.029695   | 0.029695   |   0.0 | 47.55
Bond    | 0.0072405  | 0.0072405  | 0.0072405  |   0.0 | 11.59
Kspace  | 0.025033   | 0.025033   | 0.025033   |   0.0 | 40.09
Neigh   | 0          | 0          | 0          |   0.0 |  0.00
Comm    | 4.9829e-05 | 4.9829e-05 | 4.9829e-05 |   0.0 |  0.08
Output  | 0          | 0          | 0          |   0.0 |  0.00
Modify  | 0          | 0          | 0          |   0.0 |  0.00
Other   |            | 0.0004303  |            |       |  0.69

Nlocal:    348 ave 348 max 348 min
Histogram: 1 0 0 0 0 0 0 0 0 0
Nghost:    137 ave 137 max 137 min
Histogram: 1 0 0 0 0 0 0 0 0 0
Neighs:    18350 ave 18350 max 18350 min
Histogram: 1 0 0 0 0 0 0 0 0 0

Total # of neighbors = 18350
Ave neighs/atom = 52.7299
Ave special neighs/atom = 10.9138
Neighbor list builds = 0
Dangerous builds = 0
write_dump all custom pysimm.dump.tmp id q x y z vx vy vz
quit


################################################################################
##################################    Init    ##################################
################################################################################
units           real
atom_style      full
pair_style      lj/cut/coul/long 12.0  12.0
kspace_style    pppm 1e-4
bond_style      harmonic
angle_style     harmonic
dihedral_style  fourier
improper_style  cvff
special_bonds   amber
pair_modify     mix arithmetic
read_data       temp.lmps
  orthogonal box = (-105.991 -105.991 -105.991) to (105.991 105.991 105.991)
  1 by 1 by 1 MPI processor grid
  reading atoms ...
  406 atoms
  reading velocities ...
  406 velocities
  scanning bonds ...
  3 = max bonds/atom
  scanning angles ...
  6 = max angles/atom
  scanning dihedrals ...
  24 = max dihedrals/atom
  scanning impropers ...
  2 = max impropers/atom
  reading bonds ...
  440 bonds
  reading angles ...
  773 angles
  reading dihedrals ...
  1138 dihedrals
  reading impropers ...
  112 impropers
  4 = max # of 1-2 neighbors
  10 = max # of 1-3 neighbors
  20 = max # of 1-4 neighbors
  22 = max # of special neighbors
  special bonds CPU = 0.000478029 secs
  read_data CPU = 0.00677991 secs
################################################################################

timestep        1
fix             pysimm_md all nve/limit 0.1
run             2000
PPPM initialization ...
  using 12-bit tables for long-range coulomb (../kspace.cpp:332)
  G vector (1/distance) = 0.0690969
  grid = 12 12 12
  stencil order = 5
  estimated absolute RMS force accuracy = 0.0369783
  estimated relative force accuracy = 0.000111359
  using double precision KISS FFT
  3d grid and FFT values/proc = 4913 1728
Neighbor list info ...
  update every 1 steps, delay 10 steps, check yes
  max neighbors/atom: 2000, page size: 100000
  master list distance cutoff = 14
  ghost atom cutoff = 14
  binsize = 7, bins = 31 31 31
  1 neighbor lists, perpetual/occasional/extra = 1 0 0
  (1) pair lj/cut/coul/long, perpetual
      attributes: half, newton on
      pair build: half/bin/newton
      stencil: half/bin/3d/newton
      bin: standard
Per MPI rank memory allocation (min/avg/max) = 18.26 | 18.26 | 18.26 Mbytes
Step Temp E_pair E_mol TotEng Press 
       0    406.73826     555.5349    608.20567    1654.7664    16.757508 
    2000    400.38519     56.14481    823.67566    1363.1767  -0.54599035 
Loop time of 2.72355 on 1 procs for 2000 steps with 406 atoms

Performance: 63.447 ns/day, 0.378 hours/ns, 734.337 timesteps/s
100.1% CPU use with 1 MPI tasks x no OpenMP threads

MPI task timing breakdown:
Section |  min time  |  avg time  |  max time  |%varavg| %total
---------------------------------------------------------------
Pair    | 1.0092     | 1.0092     | 1.0092     |   0.0 | 37.05
Bond    | 0.36153    | 0.36153    | 0.36153    |   0.0 | 13.27
Kspace  | 1.2629     | 1.2629     | 1.2629     |   0.0 | 46.37
Neigh   | 0.067499   | 0.067499   | 0.067499   |   0.0 |  2.48
Comm    | 0.003552   | 0.003552   | 0.003552   |   0.0 |  0.13
Output  | 2.5034e-05 | 2.5034e-05 | 2.5034e-05 |   0.0 |  0.00
Modify  | 0.013505   | 0.013505   | 0.013505   |   0.0 |  0.50
Other   |            | 0.005392   |            |       |  0.20

Nlocal:    406 ave 406 max 406 min
Histogram: 1 0 0 0 0 0 0 0 0 0
Nghost:    152 ave 152 max 152 min
Histogram: 1 0 0 0 0 0 0 0 0 0
Neighs:    21867 ave 21867 max 21867 min
Histogram: 1 0 0 0 0 0 0 0 0 0

Total # of neighbors = 21867
Ave neighs/atom = 53.8596
Ave special neighs/atom = 10.9261
Neighbor list builds = 92
Dangerous builds = 0
unfix pysimm_md
min_style cg
minimize 0.001 0.001 10000 100000
WARNING: Using 'neigh_modify every 1 delay 0 check yes' setting during minimization (../min.cpp:190)
PPPM initialization ...
  using 12-bit tables for long-range coulomb (../kspace.cpp:332)
  G vector (1/distance) = 0.0690969
  grid = 12 12 12
  stencil order = 5
  estimated absolute RMS force accuracy = 0.0369783
  estimated relative force accuracy = 0.000111359
  using double precision KISS FFT
  3d grid and FFT values/proc = 4913 1728
Per MPI rank memory allocation (min/avg/max) = 19.38 | 19.38 | 19.38 Mbytes
Step Temp E_pair E_mol TotEng Press 
    2000    400.38519     56.14481    823.67566    1363.1767  -0.54599035 
    2023    400.38519    9.6567872     459.8575    952.87053    2.1061185 
Loop time of 0.0779259 on 1 procs for 23 steps with 406 atoms

100.1% CPU use with 1 MPI tasks x no OpenMP threads

Minimization stats:
  Stopping criterion = energy tolerance
  Energy initial, next-to-last, final = 
         879.820471553      469.786559782      469.514287755
  Force two-norm initial, final = 741.797 50.4916
  Force max component initial, final = 129.318 9.85356
  Final line search alpha, max atom move = 0.00381578 0.0375991
  Iterations, force evaluations = 23 46

MPI task timing breakdown:
Section |  min time  |  avg time  |  max time  |%varavg| %total
---------------------------------------------------------------
Pair    | 0.038203   | 0.038203   | 0.038203   |   0.0 | 49.03
Bond    | 0.0093484  | 0.0093484  | 0.0093484  |   0.0 | 12.00
Kspace  | 0.029791   | 0.029791   | 0.029791   |   0.0 | 38.23
Neigh   | 0          | 0          | 0          |   0.0 |  0.00
Comm    | 5.9605e-05 | 5.9605e-05 | 5.9605e-05 |   0.0 |  0.08
Output  | 0          | 0          | 0          |   0.0 |  0.00
Modify  | 0          | 0          | 0          |   0.0 |  0.00
Other   |            | 0.0005238  |            |       |  0.67

Nlocal:    406 ave 406 max 406 min
Histogram: 1 0 0 0 0 0 0 0 0 0
Nghost:    152 ave 152 max 152 min
Histogram: 1 0 0 0 0 0 0 0 0 0
Neighs:    21867 ave 21867 max 21867 min
Histogram: 1 0 0 0 0 0 0 0 0 0

Total # of neighbors = 21867
Ave neighs/atom = 53.8596
Ave special neighs/atom = 10.9261
Neighbor list builds = 0
Dangerous builds = 0
write_dump all custom pysimm.dump.tmp id q x y z vx vy vz
quit


################################################################################
##################################    Init    ##################################
################################################################################
units           real
atom_style      full
pair_style      lj/cut/coul/long 12.0  12.0
kspace_style    pppm 1e-4
bond_style      harmonic
angle_style     harmonic
dihedral_style  fourier
improper_style  cvff
special_bonds   amber
pair_modify     mix arithmetic
read_data       temp.lmps
  orthogonal box = (-105.991 -105.991 -105.991) to (105.991 105.991 105.991)
  1 by 1 by 1 MPI processor grid
  reading atoms ...
  464 atoms
  reading velocities ...
  464 velocities
  scanning bonds ...
  3 = max bonds/atom
  scanning angles ...
  6 = max angles/atom
  scanning dihedrals ...
  24 = max dihedrals/atom
  scanning impropers ...
  2 = max impropers/atom
  reading bonds ...
  503 bonds
  reading angles ...
  884 angles
  reading dihedrals ...
  1302 dihedrals
  reading impropers ...
  128 impropers
  4 = max # of 1-2 neighbors
  10 = max # of 1-3 neighbors
  20 = max # of 1-4 neighbors
  22 = max # of special neighbors
  special bonds CPU = 0.000520945 secs
  read_data CPU = 0.00709701 secs
################################################################################

timestep        1
fix             pysimm_md all nve/limit 0.1
run             2000
PPPM initialization ...
  using 12-bit tables for long-range coulomb (../kspace.cpp:332)
  G vector (1/distance) = 0.0825834
  grid = 15 15 15
  stencil order = 5
  estimated absolute RMS force accuracy = 0.0294445
  estimated relative force accuracy = 8.86711e-05
  using double precision KISS FFT
  3d grid and FFT values/proc = 8000 3375
Neighbor list info ...
  update every 1 steps, delay 10 steps, check yes
  max neighbors/atom: 2000, page size: 100000
  master list distance cutoff = 14
  ghost atom cutoff = 14
  binsize = 7, bins = 31 31 31
  1 neighbor lists, perpetual/occasional/extra = 1 0 0
  (1) pair lj/cut/coul/long, perpetual
      attributes: half, newton on
      pair build: half/bin/newton
      stencil: half/bin/3d/newton
      bin: standard
Per MPI rank memory allocation (min/avg/max) = 18.53 | 18.53 | 18.53 Mbytes
Step Temp E_pair E_mol TotEng Press 
       0    351.16767 1.1585402e+08    651.66143 1.1585516e+08    3335953.6 
    2000      483.571    66.364716    1024.9281    1758.6764     2.975635 
Loop time of 3.75389 on 1 procs for 2000 steps with 464 atoms

Performance: 46.032 ns/day, 0.521 hours/ns, 532.781 timesteps/s
100.0% CPU use with 1 MPI tasks x no OpenMP threads

MPI task timing breakdown:
Section |  min time  |  avg time  |  max time  |%varavg| %total
---------------------------------------------------------------
Pair    | 1.1351     | 1.1351     | 1.1351     |   0.0 | 30.24
Bond    | 0.4103     | 0.4103     | 0.4103     |   0.0 | 10.93
Kspace  | 2.091      | 2.091      | 2.091      |   0.0 | 55.70
Neigh   | 0.092803   | 0.092803   | 0.092803   |   0.0 |  2.47
Comm    | 0.003897   | 0.003897   | 0.003897   |   0.0 |  0.10
Output  | 2.9087e-05 | 2.9087e-05 | 2.9087e-05 |   0.0 |  0.00
Modify  | 0.01542    | 0.01542    | 0.01542    |   0.0 |  0.41
Other   |            | 0.005364   |            |       |  0.14

Nlocal:    464 ave 464 max 464 min
Histogram: 1 0 0 0 0 0 0 0 0 0
Nghost:    174 ave 174 max 174 min
Histogram: 1 0 0 0 0 0 0 0 0 0
Neighs:    24619 ave 24619 max 24619 min
Histogram: 1 0 0 0 0 0 0 0 0 0

Total # of neighbors = 24619
Ave neighs/atom = 53.0582
Ave special neighs/atom = 10.9353
Neighbor list builds = 110
Dangerous builds = 0
unfix pysimm_md
min_style cg
minimize 0.001 0.001 10000 100000
WARNING: Using 'neigh_modify every 1 delay 0 check yes' setting during minimization (../min.cpp:190)
PPPM initialization ...
  using 12-bit tables for long-range coulomb (../kspace.cpp:332)
  G vector (1/distance) = 0.0825834
  grid = 15 15 15
  stencil order = 5
  estimated absolute RMS force accuracy = 0.0294445
  estimated relative force accuracy = 8.86711e-05
  using double precision KISS FFT
  3d grid and FFT values/proc = 8000 3375
Per MPI rank memory allocation (min/avg/max) = 19.65 | 19.65 | 19.65 Mbytes
Step Temp E_pair E_mol TotEng Press 
    2000      483.571    66.364716    1024.9281    1758.6764     2.975635 
    2025      483.571    36.075992    522.33718    1225.7968    4.0290771 
Loop time of 0.107963 on 1 procs for 25 steps with 464 atoms

100.0% CPU use with 1 MPI tasks x no OpenMP threads

Minimization stats:
  Stopping criterion = energy tolerance
  Energy initial, next-to-last, final = 
         1091.29279302      558.792173104      558.413176654
  Force two-norm initial, final = 865.019 50.0331
  Force max component initial, final = 174.676 6.22388
  Final line search alpha, max atom move = 0.00261575 0.0162801
  Iterations, force evaluations = 25 49

MPI task timing breakdown:
Section |  min time  |  avg time  |  max time  |%varavg| %total
---------------------------------------------------------------
Pair    | 0.045553   | 0.045553   | 0.045553   |   0.0 | 42.19
Bond    | 0.011175   | 0.011175   | 0.011175   |   0.0 | 10.35
Kspace  | 0.050535   | 0.050535   | 0.050535   |   0.0 | 46.81
Neigh   | 0          | 0          | 0          |   0.0 |  0.00
Comm    | 6.8188e-05 | 6.8188e-05 | 6.8188e-05 |   0.0 |  0.06
Output  | 0          | 0          | 0          |   0.0 |  0.00
Modify  | 0          | 0          | 0          |   0.0 |  0.00
Other   |            | 0.0006306  |            |       |  0.58

Nlocal:    464 ave 464 max 464 min
Histogram: 1 0 0 0 0 0 0 0 0 0
Nghost:    174 ave 174 max 174 min
Histogram: 1 0 0 0 0 0 0 0 0 0
Neighs:    24623 ave 24623 max 24623 min
Histogram: 1 0 0 0 0 0 0 0 0 0

Total # of neighbors = 24623
Ave neighs/atom = 53.0668
Ave special neighs/atom = 10.9353
Neighbor list builds = 0
Dangerous builds = 0
write_dump all custom pysimm.dump.tmp id q x y z vx vy vz
quit


################################################################################
##################################    Init    ##################################
################################################################################
units           real
atom_style      full
pair_style      lj/cut/coul/long 12.0  12.0
kspace_style    pppm 1e-4
bond_style      harmonic
angle_style     harmonic
dihedral_style  fourier
improper_style  cvff
special_bonds   amber
pair_modify     mix arithmetic
read_data       temp.lmps
  orthogonal box = (-105.991 -105.991 -105.991) to (105.991 105.991 105.991)
  1 by 1 by 1 MPI processor grid
  reading atoms ...
  522 atoms
  reading velocities ...
  522 velocities
  scanning bonds ...
  3 = max bonds/atom
  scanning angles ...
  6 = max angles/atom
  scanning dihedrals ...
  24 = max dihedrals/atom
  scanning impropers ...
  2 = max impropers/atom
  reading bonds ...
  566 bonds
  reading angles ...
  995 angles
  reading dihedrals ...
  1466 dihedrals
  reading impropers ...
  144 impropers
  4 = max # of 1-2 neighbors
  10 = max # of 1-3 neighbors
  20 = max # of 1-4 neighbors
  22 = max # of special neighbors
  special bonds CPU = 0.000555038 secs
  read_data CPU = 0.00798512 secs
################################################################################

timestep        1
fix             pysimm_md all nve/limit 0.1
run             2000
PPPM initialization ...
  using 12-bit tables for long-range coulomb (../kspace.cpp:332)
  G vector (1/distance) = 0.0825838
  grid = 15 15 15
  stencil order = 5
  estimated absolute RMS force accuracy = 0.0312311
  estimated relative force accuracy = 9.40515e-05
  using double precision KISS FFT
  3d grid and FFT values/proc = 8000 3375
Neighbor list info ...
  update every 1 steps, delay 10 steps, check yes
  max neighbors/atom: 2000, page size: 100000
  master list distance cutoff = 14
  ghost atom cutoff = 14
  binsize = 7, bins = 31 31 31
  1 neighbor lists, perpetual/occasional/extra = 1 0 0
  (1) pair lj/cut/coul/long, perpetual
      attributes: half, newton on
      pair build: half/bin/newton
      stencil: half/bin/3d/newton
      bin: standard
Per MPI rank memory allocation (min/avg/max) = 18.53 | 18.53 | 18.53 Mbytes
Step Temp E_pair E_mol TotEng Press 
       0    430.57196    3732.4035    681.58251    5082.6652    109.54884 
    2000    358.15791     68.65975    1000.0408    1624.9206    3.2056224 
Loop time of 4.02902 on 1 procs for 2000 steps with 522 atoms

Performance: 42.889 ns/day, 0.560 hours/ns, 496.399 timesteps/s
100.0% CPU use with 1 MPI tasks x no OpenMP threads

MPI task timing breakdown:
Section |  min time  |  avg time  |  max time  |%varavg| %total
---------------------------------------------------------------
Pair    | 1.2785     | 1.2785     | 1.2785     |   0.0 | 31.73
Bond    | 0.46454    | 0.46454    | 0.46454    |   0.0 | 11.53
Kspace  | 2.1781     | 2.1781     | 2.1781     |   0.0 | 54.06
Neigh   | 0.079211   | 0.079211   | 0.079211   |   0.0 |  1.97
Comm    | 0.0043483  | 0.0043483  | 0.0043483  |   0.0 |  0.11
Output  | 2.718e-05  | 2.718e-05  | 2.718e-05  |   0.0 |  0.00
Modify  | 0.0176     | 0.0176     | 0.0176     |   0.0 |  0.44
Other   |            | 0.006706   |            |       |  0.17

Nlocal:    522 ave 522 max 522 min
Histogram: 1 0 0 0 0 0 0 0 0 0
Nghost:    229 ave 229 max 229 min
Histogram: 1 0 0 0 0 0 0 0 0 0
Neighs:    28459 ave 28459 max 28459 min
Histogram: 1 0 0 0 0 0 0 0 0 0

Total # of neighbors = 28459
Ave neighs/atom = 54.5192
Ave special neighs/atom = 10.9425
Neighbor list builds = 84
Dangerous builds = 0
unfix pysimm_md
min_style cg
minimize 0.001 0.001 10000 100000
WARNING: Using 'neigh_modify every 1 delay 0 check yes' setting during minimization (../min.cpp:190)
PPPM initialization ...
  using 12-bit tables for long-range coulomb (../kspace.cpp:332)
  G vector (1/distance) = 0.0825838
  grid = 15 15 15
  stencil order = 5
  estimated absolute RMS force accuracy = 0.0312311
  estimated relative force accuracy = 9.40515e-05
  using double precision KISS FFT
  3d grid and FFT values/proc = 8000 3375
Per MPI rank memory allocation (min/avg/max) = 19.67 | 19.67 | 19.67 Mbytes
Step Temp E_pair E_mol TotEng Press 
    2000    358.15791     68.65975    1000.0408    1624.9206    3.2056224 
    2027    358.15791     31.04613    599.82762    1187.0937    2.4774583 
Loop time of 0.133369 on 1 procs for 27 steps with 522 atoms

97.5% CPU use with 1 MPI tasks x no OpenMP threads

Minimization stats:
  Stopping criterion = energy tolerance
  Energy initial, next-to-last, final = 
         1068.70059924      631.100041469      630.873750378
  Force two-norm initial, final = 828.599 55.6653
  Force max component initial, final = 139.271 7.86826
  Final line search alpha, max atom move = 0.00254845 0.0200518
  Iterations, force evaluations = 27 54

MPI task timing breakdown:
Section |  min time  |  avg time  |  max time  |%varavg| %total
---------------------------------------------------------------
Pair    | 0.059267   | 0.059267   | 0.059267   |   0.0 | 44.44
Bond    | 0.014172   | 0.014172   | 0.014172   |   0.0 | 10.63
Kspace  | 0.059089   | 0.059089   | 0.059089   |   0.0 | 44.30
Neigh   | 0          | 0          | 0          |   0.0 |  0.00
Comm    | 9.5606e-05 | 9.5606e-05 | 9.5606e-05 |   0.0 |  0.07
Output  | 0          | 0          | 0          |   0.0 |  0.00
Modify  | 0          | 0          | 0          |   0.0 |  0.00
Other   |            | 0.0007455  |            |       |  0.56

Nlocal:    522 ave 522 max 522 min
Histogram: 1 0 0 0 0 0 0 0 0 0
Nghost:    228 ave 228 max 228 min
Histogram: 1 0 0 0 0 0 0 0 0 0
Neighs:    28472 ave 28472 max 28472 min
Histogram: 1 0 0 0 0 0 0 0 0 0

Total # of neighbors = 28472
Ave neighs/atom = 54.5441
Ave special neighs/atom = 10.9425
Neighbor list builds = 0
Dangerous builds = 0
write_dump all custom pysimm.dump.tmp id q x y z vx vy vz
quit


################################################################################
##################################    Init    ##################################
################################################################################
units           real
atom_style      full
pair_style      lj/cut/coul/long 12.0  12.0
kspace_style    pppm 1e-4
bond_style      harmonic
angle_style     harmonic
dihedral_style  fourier
improper_style  cvff
special_bonds   amber
pair_modify     mix arithmetic
read_data       temp.lmps
  orthogonal box = (-105.991 -105.991 -105.991) to (105.991 105.991 105.991)
  1 by 1 by 1 MPI processor grid
  reading atoms ...
  580 atoms
  reading velocities ...
  580 velocities
  scanning bonds ...
  3 = max bonds/atom
  scanning angles ...
  6 = max angles/atom
  scanning dihedrals ...
  24 = max dihedrals/atom
  scanning impropers ...
  2 = max impropers/atom
  reading bonds ...
  629 bonds
  reading angles ...
  1106 angles
  reading dihedrals ...
  1630 dihedrals
  reading impropers ...
  160 impropers
  4 = max # of 1-2 neighbors
  10 = max # of 1-3 neighbors
  20 = max # of 1-4 neighbors
  22 = max # of special neighbors
  special bonds CPU = 0.000633955 secs
  read_data CPU = 0.00841498 secs
################################################################################

timestep        1
fix             pysimm_md all nve/limit 0.1
run             2000
PPPM initialization ...
WARNING: System is not charge neutral, net charge = -1e-05 (../kspace.cpp:313)
  using 12-bit tables for long-range coulomb (../kspace.cpp:332)
  G vector (1/distance) = 0.0825834
  grid = 15 15 15
  stencil order = 5
  estimated absolute RMS force accuracy = 0.0329199
  estimated relative force accuracy = 9.91374e-05
  using double precision KISS FFT
  3d grid and FFT values/proc = 8000 3375
Neighbor list info ...
  update every 1 steps, delay 10 steps, check yes
  max neighbors/atom: 2000, page size: 100000
  master list distance cutoff = 14
  ghost atom cutoff = 14
  binsize = 7, bins = 31 31 31
  1 neighbor lists, perpetual/occasional/extra = 1 0 0
  (1) pair lj/cut/coul/long, perpetual
      attributes: half, newton on
      pair build: half/bin/newton
      stencil: half/bin/3d/newton
      bin: standard
Per MPI rank memory allocation (min/avg/max) = 18.55 | 18.55 | 18.55 Mbytes
Step Temp E_pair E_mol TotEng Press 
       0    323.03105    459.06597    759.85699    1776.4387    13.632454 
    2000    270.16588    58.710757    1032.9743    1557.9613    2.2324023 
Loop time of 4.27199 on 1 procs for 2000 steps with 580 atoms

Performance: 40.450 ns/day, 0.593 hours/ns, 468.166 timesteps/s
100.0% CPU use with 1 MPI tasks x no OpenMP threads

MPI task timing breakdown:
Section |  min time  |  avg time  |  max time  |%varavg| %total
---------------------------------------------------------------
Pair    | 1.4426     | 1.4426     | 1.4426     |   0.0 | 33.77
Bond    | 0.51762    | 0.51762    | 0.51762    |   0.0 | 12.12
Kspace  | 2.2        | 2.2        | 2.2        |   0.0 | 51.50
Neigh   | 0.080005   | 0.080005   | 0.080005   |   0.0 |  1.87
Comm    | 0.0049095  | 0.0049095  | 0.0049095  |   0.0 |  0.11
Output  | 2.5988e-05 | 2.5988e-05 | 2.5988e-05 |   0.0 |  0.00
Modify  | 0.019496   | 0.019496   | 0.019496   |   0.0 |  0.46
Other   |            | 0.007307   |            |       |  0.17

Nlocal:    580 ave 580 max 580 min
Histogram: 1 0 0 0 0 0 0 0 0 0
Nghost:    267 ave 267 max 267 min
Histogram: 1 0 0 0 0 0 0 0 0 0
Neighs:    31960 ave 31960 max 31960 min
Histogram: 1 0 0 0 0 0 0 0 0 0

Total # of neighbors = 31960
Ave neighs/atom = 55.1034
Ave special neighs/atom = 10.9483
Neighbor list builds = 74
Dangerous builds = 0
unfix pysimm_md
min_style cg
minimize 0.001 0.001 10000 100000
WARNING: Using 'neigh_modify every 1 delay 0 check yes' setting during minimization (../min.cpp:190)
PPPM initialization ...
  using 12-bit tables for long-range coulomb (../kspace.cpp:332)
  G vector (1/distance) = 0.0825834
  grid = 15 15 15
  stencil order = 5
  estimated absolute RMS force accuracy = 0.0329199
  estimated relative force accuracy = 9.91374e-05
  using double precision KISS FFT
  3d grid and FFT values/proc = 8000 3375
Per MPI rank memory allocation (min/avg/max) = 19.68 | 19.68 | 19.68 Mbytes
Step Temp E_pair E_mol TotEng Press 
    2000    270.16588    58.710757    1032.9743    1557.9613    2.2324023 
    2024    270.16588    43.539661    644.92396      1154.74    2.5563016 
Loop time of 0.275264 on 1 procs for 24 steps with 580 atoms

99.9% CPU use with 1 MPI tasks x no OpenMP threads

Minimization stats:
  Stopping criterion = linesearch alpha is zero
  Energy initial, next-to-last, final = 
         1091.68501325      688.463622359      688.463622359
  Force two-norm initial, final = 771.174 46.0403
  Force max component initial, final = 107.097 6.75693
  Final line search alpha, max atom move = 4.66654e-12 3.15315e-11
  Iterations, force evaluations = 24 107

MPI task timing breakdown:
Section |  min time  |  avg time  |  max time  |%varavg| %total
---------------------------------------------------------------
Pair    | 0.12437    | 0.12437    | 0.12437    |   0.0 | 45.18
Bond    | 0.030326   | 0.030326   | 0.030326   |   0.0 | 11.02
Kspace  | 0.11918    | 0.11918    | 0.11918    |   0.0 | 43.30
Neigh   | 0          | 0          | 0          |   0.0 |  0.00
Comm    | 0.00019956 | 0.00019956 | 0.00019956 |   0.0 |  0.07
Output  | 0          | 0          | 0          |   0.0 |  0.00
Modify  | 0          | 0          | 0          |   0.0 |  0.00
Other   |            | 0.001192   |            |       |  0.43

Nlocal:    580 ave 580 max 580 min
Histogram: 1 0 0 0 0 0 0 0 0 0
Nghost:    267 ave 267 max 267 min
Histogram: 1 0 0 0 0 0 0 0 0 0
Neighs:    31960 ave 31960 max 31960 min
Histogram: 1 0 0 0 0 0 0 0 0 0

Total # of neighbors = 31960
Ave neighs/atom = 55.1034
Ave special neighs/atom = 10.9483
Neighbor list builds = 0
Dangerous builds = 0
write_dump all custom pysimm.dump.tmp id q x y z vx vy vz
quit


################################################################################
##################################    Init    ##################################
################################################################################
units           real
atom_style      full
pair_style      lj/cut/coul/long 12.0  12.0
kspace_style    pppm 1e-4
bond_style      harmonic
angle_style     harmonic
dihedral_style  fourier
improper_style  cvff
special_bonds   amber
pair_modify     mix arithmetic
read_data       temp.lmps
  orthogonal box = (-133.54 -133.54 -133.54) to (133.54 133.54 133.54)
  1 by 1 by 1 MPI processor grid
  reading atoms ...
  638 atoms
  reading velocities ...
  638 velocities
  scanning bonds ...
  3 = max bonds/atom
  scanning angles ...
  6 = max angles/atom
  scanning dihedrals ...
  24 = max dihedrals/atom
  scanning impropers ...
  2 = max impropers/atom
  reading bonds ...
  692 bonds
  reading angles ...
  1217 angles
  reading dihedrals ...
  1794 dihedrals
  reading impropers ...
  176 impropers
  4 = max # of 1-2 neighbors
  10 = max # of 1-3 neighbors
  20 = max # of 1-4 neighbors
  22 = max # of special neighbors
  special bonds CPU = 0.000626087 secs
  read_data CPU = 0.008708 secs
################################################################################

timestep        1
fix             pysimm_md all nve/limit 0.1
run             2000
PPPM initialization ...
WARNING: System is not charge neutral, net charge = -1.1e-05 (../kspace.cpp:313)
  using 12-bit tables for long-range coulomb (../kspace.cpp:332)
  G vector (1/distance) = 0.0686495
  grid = 15 15 15
  stencil order = 5
  estimated absolute RMS force accuracy = 0.0330695
  estimated relative force accuracy = 9.95879e-05
  using double precision KISS FFT
  3d grid and FFT values/proc = 8000 3375
Neighbor list info ...
  update every 1 steps, delay 10 steps, check yes
  max neighbors/atom: 2000, page size: 100000
  master list distance cutoff = 14
  ghost atom cutoff = 14
  binsize = 7, bins = 39 39 39
  1 neighbor lists, perpetual/occasional/extra = 1 0 0
  (1) pair lj/cut/coul/long, perpetual
      attributes: half, newton on
      pair build: half/bin/newton
      stencil: half/bin/3d/newton
      bin: standard
Per MPI rank memory allocation (min/avg/max) = 18.69 | 18.69 | 18.69 Mbytes
Step Temp E_pair E_mol TotEng Press 
       0    246.24916    49.537686    429241.15    429758.26   -1073.7452 
    2000    2055.2706    166.31908    2780.5218    6849.3394   -3.1962919 
Loop time of 4.73119 on 1 procs for 2000 steps with 638 atoms

Performance: 36.524 ns/day, 0.657 hours/ns, 422.727 timesteps/s
100.0% CPU use with 1 MPI tasks x no OpenMP threads

MPI task timing breakdown:
Section |  min time  |  avg time  |  max time  |%varavg| %total
---------------------------------------------------------------
Pair    | 1.679      | 1.679      | 1.679      |   0.0 | 35.49
Bond    | 0.56696    | 0.56696    | 0.56696    |   0.0 | 11.98
Kspace  | 2.2492     | 2.2492     | 2.2492     |   0.0 | 47.54
Neigh   | 0.20668    | 0.20668    | 0.20668    |   0.0 |  4.37
Comm    | 0.0026777  | 0.0026777  | 0.0026777  |   0.0 |  0.06
Output  | 2.5988e-05 | 2.5988e-05 | 2.5988e-05 |   0.0 |  0.00
Modify  | 0.022087   | 0.022087   | 0.022087   |   0.0 |  0.47
Other   |            | 0.004568   |            |       |  0.10

Nlocal:    638 ave 638 max 638 min
Histogram: 1 0 0 0 0 0 0 0 0 0
Nghost:    0 ave 0 max 0 min
Histogram: 1 0 0 0 0 0 0 0 0 0
Neighs:    41449 ave 41449 max 41449 min
Histogram: 1 0 0 0 0 0 0 0 0 0

Total # of neighbors = 41449
Ave neighs/atom = 64.9671
Ave special neighs/atom = 10.953
Neighbor list builds = 173
Dangerous builds = 0
unfix pysimm_md
min_style cg
minimize 0.001 0.001 10000 100000
WARNING: Using 'neigh_modify every 1 delay 0 check yes' setting during minimization (../min.cpp:190)
PPPM initialization ...
  using 12-bit tables for long-range coulomb (../kspace.cpp:332)
  G vector (1/distance) = 0.0686495
  grid = 15 15 15
  stencil order = 5
  estimated absolute RMS force accuracy = 0.0330695
  estimated relative force accuracy = 9.95879e-05
  using double precision KISS FFT
  3d grid and FFT values/proc = 8000 3375
Per MPI rank memory allocation (min/avg/max) = 19.82 | 19.82 | 19.82 Mbytes
Step Temp E_pair E_mol TotEng Press 
    2000    2055.2706    166.31908    2780.5218    6849.3394   -3.1962919 
    2066    2055.2706    30.509627    824.47206    4757.4802      8.77628 
Loop time of 0.563719 on 1 procs for 66 steps with 638 atoms

99.9% CPU use with 1 MPI tasks x no OpenMP threads

Minimization stats:
  Stopping criterion = linesearch alpha is zero
  Energy initial, next-to-last, final = 
         2946.84087934      854.981683008      854.981683008
  Force two-norm initial, final = 1346.55 69.0068
  Force max component initial, final = 149.378 7.75207
  Final line search alpha, max atom move = 1.47253e-12 1.14152e-11
  Iterations, force evaluations = 66 188

MPI task timing breakdown:
Section |  min time  |  avg time  |  max time  |%varavg| %total
---------------------------------------------------------------
Pair    | 0.2908     | 0.2908     | 0.2908     |   0.0 | 51.59
Bond    | 0.058189   | 0.058189   | 0.058189   |   0.0 | 10.32
Kspace  | 0.20641    | 0.20641    | 0.20641    |   0.0 | 36.62
Neigh   | 0.005439   | 0.005439   | 0.005439   |   0.0 |  0.96
Comm    | 0.00014091 | 0.00014091 | 0.00014091 |   0.0 |  0.02
Output  | 0          | 0          | 0          |   0.0 |  0.00
Modify  | 0          | 0          | 0          |   0.0 |  0.00
Other   |            | 0.00274    |            |       |  0.49

Nlocal:    638 ave 638 max 638 min
Histogram: 1 0 0 0 0 0 0 0 0 0
Nghost:    0 ave 0 max 0 min
Histogram: 1 0 0 0 0 0 0 0 0 0
Neighs:    41635 ave 41635 max 41635 min
Histogram: 1 0 0 0 0 0 0 0 0 0

Total # of neighbors = 41635
Ave neighs/atom = 65.2586
Ave special neighs/atom = 10.953
Neighbor list builds = 4
Dangerous builds = 0
write_dump all custom pysimm.dump.tmp id q x y z vx vy vz
quit


################################################################################
##################################    Init    ##################################
################################################################################
units           real
atom_style      full
pair_style      lj/cut/coul/long 12.0  12.0
kspace_style    pppm 1e-4
bond_style      harmonic
angle_style     harmonic
dihedral_style  fourier
improper_style  cvff
special_bonds   amber
pair_modify     mix arithmetic
read_data       temp.lmps
  orthogonal box = (-137.851 -137.851 -137.851) to (137.851 137.851 137.851)
  1 by 1 by 1 MPI processor grid
  reading atoms ...
  696 atoms
  reading velocities ...
  696 velocities
  scanning bonds ...
  3 = max bonds/atom
  scanning angles ...
  6 = max angles/atom
  scanning dihedrals ...
  24 = max dihedrals/atom
  scanning impropers ...
  2 = max impropers/atom
  reading bonds ...
  755 bonds
  reading angles ...
  1328 angles
  reading dihedrals ...
  1958 dihedrals
  reading impropers ...
  192 impropers
  4 = max # of 1-2 neighbors
  10 = max # of 1-3 neighbors
  20 = max # of 1-4 neighbors
  22 = max # of special neighbors
  special bonds CPU = 0.000658989 secs
  read_data CPU = 0.00926018 secs
################################################################################

timestep        1
fix             pysimm_md all nve/limit 0.1
run             2000
PPPM initialization ...
WARNING: System is not charge neutral, net charge = -1.2e-05 (../kspace.cpp:313)
  using 12-bit tables for long-range coulomb (../kspace.cpp:332)
  G vector (1/distance) = 0.0668738
  grid = 15 15 15
  stencil order = 5
  estimated absolute RMS force accuracy = 0.0340937
  estimated relative force accuracy = 0.000102672
  using double precision KISS FFT
  3d grid and FFT values/proc = 8000 3375
Neighbor list info ...
  update every 1 steps, delay 10 steps, check yes
  max neighbors/atom: 2000, page size: 100000
  master list distance cutoff = 14
  ghost atom cutoff = 14
  binsize = 7, bins = 40 40 40
  1 neighbor lists, perpetual/occasional/extra = 1 0 0
  (1) pair lj/cut/coul/long, perpetual
      attributes: half, newton on
      pair build: half/bin/newton
      stencil: half/bin/3d/newton
      bin: standard
Per MPI rank memory allocation (min/avg/max) = 18.72 | 18.72 | 18.72 Mbytes
Step Temp E_pair E_mol TotEng Press 
       0    1884.3769    35.438349    380904.14    384843.38   -861.00432 
    2000     1856.179    181.51519    3278.9572    7305.8498    1.4231418 
Loop time of 5.15009 on 1 procs for 2000 steps with 696 atoms

Performance: 33.553 ns/day, 0.715 hours/ns, 388.343 timesteps/s
100.1% CPU use with 1 MPI tasks x no OpenMP threads

MPI task timing breakdown:
Section |  min time  |  avg time  |  max time  |%varavg| %total
---------------------------------------------------------------
Pair    | 2.0102     | 2.0102     | 2.0102     |   0.0 | 39.03
Bond    | 0.61919    | 0.61919    | 0.61919    |   0.0 | 12.02
Kspace  | 2.2433     | 2.2433     | 2.2433     |   0.0 | 43.56
Neigh   | 0.24593    | 0.24593    | 0.24593    |   0.0 |  4.78
Comm    | 0.0028973  | 0.0028973  | 0.0028973  |   0.0 |  0.06
Output  | 2.5988e-05 | 2.5988e-05 | 2.5988e-05 |   0.0 |  0.00
Modify  | 0.02362    | 0.02362    | 0.02362    |   0.0 |  0.46
Other   |            | 0.004948   |            |       |  0.10

Nlocal:    696 ave 696 max 696 min
Histogram: 1 0 0 0 0 0 0 0 0 0
Nghost:    0 ave 0 max 0 min
Histogram: 1 0 0 0 0 0 0 0 0 0
Neighs:    47087 ave 47087 max 47087 min
Histogram: 1 0 0 0 0 0 0 0 0 0

Total # of neighbors = 47087
Ave neighs/atom = 67.6537
Ave special neighs/atom = 10.9569
Neighbor list builds = 172
Dangerous builds = 0
unfix pysimm_md
min_style cg
minimize 0.001 0.001 10000 100000
WARNING: Using 'neigh_modify every 1 delay 0 check yes' setting during minimization (../min.cpp:190)
PPPM initialization ...
  using 12-bit tables for long-range coulomb (../kspace.cpp:332)
  G vector (1/distance) = 0.0668738
  grid = 15 15 15
  stencil order = 5
  estimated absolute RMS force accuracy = 0.0340937
  estimated relative force accuracy = 0.000102672
  using double precision KISS FFT
  3d grid and FFT values/proc = 8000 3375
Per MPI rank memory allocation (min/avg/max) = 19.85 | 19.85 | 19.85 Mbytes
Step Temp E_pair E_mol TotEng Press 
    2000     1856.179    181.51519    3278.9572    7305.8498    1.4231418 
    2069     1856.179    35.787834    957.84063    4839.0059    7.2420424 
Loop time of 0.427201 on 1 procs for 69 steps with 696 atoms

99.9% CPU use with 1 MPI tasks x no OpenMP threads

Minimization stats:
  Stopping criterion = energy tolerance
  Energy initial, next-to-last, final = 
         3460.47236289      994.123341985      993.628460161
  Force two-norm initial, final = 1614.72 71.1241
  Force max component initial, final = 217.884 8.13616
  Final line search alpha, max atom move = 0.00228791 0.0186148
  Iterations, force evaluations = 69 130

MPI task timing breakdown:
Section |  min time  |  avg time  |  max time  |%varavg| %total
---------------------------------------------------------------
Pair    | 0.22137    | 0.22137    | 0.22137    |   0.0 | 51.82
Bond    | 0.043862   | 0.043862   | 0.043862   |   0.0 | 10.27
Kspace  | 0.15332    | 0.15332    | 0.15332    |   0.0 | 35.89
Neigh   | 0.006144   | 0.006144   | 0.006144   |   0.0 |  1.44
Comm    | 0.00010967 | 0.00010967 | 0.00010967 |   0.0 |  0.03
Output  | 0          | 0          | 0          |   0.0 |  0.00
Modify  | 0          | 0          | 0          |   0.0 |  0.00
Other   |            | 0.002394   |            |       |  0.56

Nlocal:    696 ave 696 max 696 min
Histogram: 1 0 0 0 0 0 0 0 0 0
Nghost:    0 ave 0 max 0 min
Histogram: 1 0 0 0 0 0 0 0 0 0
Neighs:    47127 ave 47127 max 47127 min
Histogram: 1 0 0 0 0 0 0 0 0 0

Total # of neighbors = 47127
Ave neighs/atom = 67.7112
Ave special neighs/atom = 10.9569
Neighbor list builds = 4
Dangerous builds = 0
write_dump all custom pysimm.dump.tmp id q x y z vx vy vz
quit


################################################################################
##################################    Init    ##################################
################################################################################
units           real
atom_style      full
pair_style      lj/cut/coul/long 12.0  12.0
kspace_style    pppm 1e-4
bond_style      harmonic
angle_style     harmonic
dihedral_style  fourier
improper_style  cvff
special_bonds   amber
pair_modify     mix arithmetic
read_data       temp.lmps
  orthogonal box = (-141.908 -141.908 -141.908) to (141.908 141.908 141.908)
  1 by 1 by 1 MPI processor grid
  reading atoms ...
  754 atoms
  reading velocities ...
  754 velocities
  scanning bonds ...
  3 = max bonds/atom
  scanning angles ...
  6 = max angles/atom
  scanning dihedrals ...
  24 = max dihedrals/atom
  scanning impropers ...
  2 = max impropers/atom
  reading bonds ...
  818 bonds
  reading angles ...
  1439 angles
  reading dihedrals ...
  2122 dihedrals
  reading impropers ...
  208 impropers
  4 = max # of 1-2 neighbors
  10 = max # of 1-3 neighbors
  20 = max # of 1-4 neighbors
  22 = max # of special neighbors
  special bonds CPU = 0.000706911 secs
  read_data CPU = 0.00968695 secs
################################################################################

timestep        1
fix             pysimm_md all nve/limit 0.1
run             2000
PPPM initialization ...
WARNING: System is not charge neutral, net charge = -1.3e-05 (../kspace.cpp:313)
  using 12-bit tables for long-range coulomb (../kspace.cpp:332)
  G vector (1/distance) = 0.0652829
  grid = 15 15 15
  stencil order = 5
  estimated absolute RMS force accuracy = 0.0350194
  estimated relative force accuracy = 0.00010546
  using double precision KISS FFT
  3d grid and FFT values/proc = 8000 3375
Neighbor list info ...
  update every 1 steps, delay 10 steps, check yes
  max neighbors/atom: 2000, page size: 100000
  master list distance cutoff = 14
  ghost atom cutoff = 14
  binsize = 7, bins = 41 41 41
  1 neighbor lists, perpetual/occasional/extra = 1 0 0
  (1) pair lj/cut/coul/long, perpetual
      attributes: half, newton on
      pair build: half/bin/newton
      stencil: half/bin/3d/newton
      bin: standard
Per MPI rank memory allocation (min/avg/max) = 18.75 | 18.75 | 18.75 Mbytes
Step Temp E_pair E_mol TotEng Press 
       0    1713.7835    41.211092    216589.23    220477.12   -451.91667 
    2000    1395.3859    215.14199    2916.1006    6263.2558    1.6793937 
Loop time of 5.59145 on 1 procs for 2000 steps with 754 atoms

Performance: 30.904 ns/day, 0.777 hours/ns, 357.689 timesteps/s
99.9% CPU use with 1 MPI tasks x no OpenMP threads

MPI task timing breakdown:
Section |  min time  |  avg time  |  max time  |%varavg| %total
---------------------------------------------------------------
Pair    | 2.2406     | 2.2406     | 2.2406     |   0.0 | 40.07
Bond    | 0.66649    | 0.66649    | 0.66649    |   0.0 | 11.92
Kspace  | 2.3861     | 2.3861     | 2.3861     |   0.0 | 42.67
Neigh   | 0.26535    | 0.26535    | 0.26535    |   0.0 |  4.75
Comm    | 0.0028741  | 0.0028741  | 0.0028741  |   0.0 |  0.05
Output  | 2.9087e-05 | 2.9087e-05 | 2.9087e-05 |   0.0 |  0.00
Modify  | 0.024868   | 0.024868   | 0.024868   |   0.0 |  0.44
Other   |            | 0.005064   |            |       |  0.09

Nlocal:    754 ave 754 max 754 min
Histogram: 1 0 0 0 0 0 0 0 0 0
Nghost:    0 ave 0 max 0 min
Histogram: 1 0 0 0 0 0 0 0 0 0
Neighs:    50577 ave 50577 max 50577 min
Histogram: 1 0 0 0 0 0 0 0 0 0

Total # of neighbors = 50577
Ave neighs/atom = 67.0782
Ave special neighs/atom = 10.9602
Neighbor list builds = 167
Dangerous builds = 0
unfix pysimm_md
min_style cg
minimize 0.001 0.001 10000 100000
WARNING: Using 'neigh_modify every 1 delay 0 check yes' setting during minimization (../min.cpp:190)
PPPM initialization ...
  using 12-bit tables for long-range coulomb (../kspace.cpp:332)
  G vector (1/distance) = 0.0652829
  grid = 15 15 15
  stencil order = 5
  estimated absolute RMS force accuracy = 0.0350194
  estimated relative force accuracy = 0.00010546
  using double precision KISS FFT
  3d grid and FFT values/proc = 8000 3375
Per MPI rank memory allocation (min/avg/max) = 19.88 | 19.88 | 19.88 Mbytes
Step Temp E_pair E_mol TotEng Press 
    2000    1395.3859    215.14199    2916.1006    6263.2558    1.6793937 
    2063    1395.3859    78.157777    986.33623    4196.5073    6.2474035 
Loop time of 0.432977 on 1 procs for 63 steps with 754 atoms

100.2% CPU use with 1 MPI tasks x no OpenMP threads

Minimization stats:
  Stopping criterion = energy tolerance
  Energy initial, next-to-last, final = 
         3131.24254204      1065.42163554      1064.49400709
  Force two-norm initial, final = 1550.06 69.9527
  Force max component initial, final = 221.937 9.91483
  Final line search alpha, max atom move = 0.00220816 0.0218935
  Iterations, force evaluations = 63 124

MPI task timing breakdown:
Section |  min time  |  avg time  |  max time  |%varavg| %total
---------------------------------------------------------------
Pair    | 0.22836    | 0.22836    | 0.22836    |   0.0 | 52.74
Bond    | 0.0465     | 0.0465     | 0.0465     |   0.0 | 10.74
Kspace  | 0.14867    | 0.14867    | 0.14867    |   0.0 | 34.34
Neigh   | 0.0068209  | 0.0068209  | 0.0068209  |   0.0 |  1.58
Comm    | 0.00010538 | 0.00010538 | 0.00010538 |   0.0 |  0.02
Output  | 0          | 0          | 0          |   0.0 |  0.00
Modify  | 0          | 0          | 0          |   0.0 |  0.00
Other   |            | 0.002517   |            |       |  0.58

Nlocal:    754 ave 754 max 754 min
Histogram: 1 0 0 0 0 0 0 0 0 0
Nghost:    0 ave 0 max 0 min
Histogram: 1 0 0 0 0 0 0 0 0 0
Neighs:    50257 ave 50257 max 50257 min
Histogram: 1 0 0 0 0 0 0 0 0 0

Total # of neighbors = 50257
Ave neighs/atom = 66.6538
Ave special neighs/atom = 10.9602
Neighbor list builds = 4
Dangerous builds = 0
write_dump all custom pysimm.dump.tmp id q x y z vx vy vz
quit


################################################################################
##################################    Init    ##################################
################################################################################
units           real
atom_style      full
pair_style      lj/cut/coul/long 12.0  12.0
kspace_style    pppm 1e-4
bond_style      harmonic
angle_style     harmonic
dihedral_style  fourier
improper_style  cvff
special_bonds   amber
pair_modify     mix arithmetic
read_data       temp.lmps
  orthogonal box = (-145.745 -145.745 -145.745) to (145.745 145.745 145.745)
  1 by 1 by 1 MPI processor grid
  reading atoms ...
  812 atoms
  reading velocities ...
  812 velocities
  scanning bonds ...
  3 = max bonds/atom
  scanning angles ...
  6 = max angles/atom
  scanning dihedrals ...
  24 = max dihedrals/atom
  scanning impropers ...
  2 = max impropers/atom
  reading bonds ...
  881 bonds
  reading angles ...
  1550 angles
  reading dihedrals ...
  2286 dihedrals
  reading impropers ...
  224 impropers
  4 = max # of 1-2 neighbors
  10 = max # of 1-3 neighbors
  20 = max # of 1-4 neighbors
  22 = max # of special neighbors
  special bonds CPU = 0.000739098 secs
  read_data CPU = 0.010304 secs
################################################################################

timestep        1
fix             pysimm_md all nve/limit 0.1
run             2000
PPPM initialization ...
WARNING: System is not charge neutral, net charge = -1.4e-05 (../kspace.cpp:313)
  using 12-bit tables for long-range coulomb (../kspace.cpp:332)
  G vector (1/distance) = 0.0638449
  grid = 15 15 15
  stencil order = 5
  estimated absolute RMS force accuracy = 0.0358617
  estimated relative force accuracy = 0.000107997
  using double precision KISS FFT
  3d grid and FFT values/proc = 8000 3375
Neighbor list info ...
  update every 1 steps, delay 10 steps, check yes
  max neighbors/atom: 2000, page size: 100000
  master list distance cutoff = 14
  ghost atom cutoff = 14
  binsize = 7, bins = 42 42 42
  1 neighbor lists, perpetual/occasional/extra = 1 0 0
  (1) pair lj/cut/coul/long, perpetual
      attributes: half, newton on
      pair build: half/bin/newton
      stencil: half/bin/3d/newton
      bin: standard
Per MPI rank memory allocation (min/avg/max) = 18.78 | 18.78 | 18.78 Mbytes
Step Temp E_pair E_mol TotEng Press 
       0    1296.1287    84.247211    307720.66    310938.22   -590.58678 
    2000    1286.0832    175.10782    2906.3635    6190.4965   0.58494132 
Loop time of 7.55334 on 1 procs for 2000 steps with 812 atoms

Performance: 22.877 ns/day, 1.049 hours/ns, 264.783 timesteps/s
90.6% CPU use with 1 MPI tasks x no OpenMP threads

MPI task timing breakdown:
Section |  min time  |  avg time  |  max time  |%varavg| %total
---------------------------------------------------------------
Pair    | 3.2722     | 3.2722     | 3.2722     |   0.0 | 43.32
Bond    | 0.82269    | 0.82269    | 0.82269    |   0.0 | 10.89
Kspace  | 3.0385     | 3.0385     | 3.0385     |   0.0 | 40.23
Neigh   | 0.38107    | 0.38107    | 0.38107    |   0.0 |  5.05
Comm    | 0.0036116  | 0.0036116  | 0.0036116  |   0.0 |  0.05
Output  | 2.8133e-05 | 2.8133e-05 | 2.8133e-05 |   0.0 |  0.00
Modify  | 0.029379   | 0.029379   | 0.029379   |   0.0 |  0.39
Other   |            | 0.005939   |            |       |  0.08

Nlocal:    812 ave 812 max 812 min
Histogram: 1 0 0 0 0 0 0 0 0 0
Nghost:    0 ave 0 max 0 min
Histogram: 1 0 0 0 0 0 0 0 0 0
Neighs:    62013 ave 62013 max 62013 min
Histogram: 1 0 0 0 0 0 0 0 0 0

Total # of neighbors = 62013
Ave neighs/atom = 76.3707
Ave special neighs/atom = 10.9631
Neighbor list builds = 169
Dangerous builds = 0
unfix pysimm_md
min_style cg
minimize 0.001 0.001 10000 100000
WARNING: Using 'neigh_modify every 1 delay 0 check yes' setting during minimization (../min.cpp:190)
PPPM initialization ...
  using 12-bit tables for long-range coulomb (../kspace.cpp:332)
  G vector (1/distance) = 0.0638449
  grid = 15 15 15
  stencil order = 5
  estimated absolute RMS force accuracy = 0.0358617
  estimated relative force accuracy = 0.000107997
  using double precision KISS FFT
  3d grid and FFT values/proc = 8000 3375
Per MPI rank memory allocation (min/avg/max) = 19.91 | 19.91 | 19.91 Mbytes
Step Temp E_pair E_mol TotEng Press 
    2000    1286.0832    175.10782    2906.3635    6190.4965   0.58494132 
    2048    1286.0832    46.258407    1020.9519    4176.2355    4.8777153 
Loop time of 0.381475 on 1 procs for 48 steps with 812 atoms

100.1% CPU use with 1 MPI tasks x no OpenMP threads

Minimization stats:
  Stopping criterion = energy tolerance
  Energy initial, next-to-last, final = 
         3081.47132892      1067.55434743      1067.21035504
  Force two-norm initial, final = 1584.92 78.9872
  Force max component initial, final = 171.391 8.31586
  Final line search alpha, max atom move = 0.00235079 0.0195488
  Iterations, force evaluations = 48 96

MPI task timing breakdown:
Section |  min time  |  avg time  |  max time  |%varavg| %total
---------------------------------------------------------------
Pair    | 0.21753    | 0.21753    | 0.21753    |   0.0 | 57.02
Bond    | 0.038208   | 0.038208   | 0.038208   |   0.0 | 10.02
Kspace  | 0.11972    | 0.11972    | 0.11972    |   0.0 | 31.38
Neigh   | 0.0040019  | 0.0040019  | 0.0040019  |   0.0 |  1.05
Comm    | 7.3433e-05 | 7.3433e-05 | 7.3433e-05 |   0.0 |  0.02
Output  | 0          | 0          | 0          |   0.0 |  0.00
Modify  | 0          | 0          | 0          |   0.0 |  0.00
Other   |            | 0.001941   |            |       |  0.51

Nlocal:    812 ave 812 max 812 min
Histogram: 1 0 0 0 0 0 0 0 0 0
Nghost:    0 ave 0 max 0 min
Histogram: 1 0 0 0 0 0 0 0 0 0
Neighs:    61973 ave 61973 max 61973 min
Histogram: 1 0 0 0 0 0 0 0 0 0

Total # of neighbors = 61973
Ave neighs/atom = 76.3214
Ave special neighs/atom = 10.9631
Neighbor list builds = 2
Dangerous builds = 0
write_dump all custom pysimm.dump.tmp id q x y z vx vy vz
quit


################################################################################
##################################    Init    ##################################
################################################################################
units           real
atom_style      full
pair_style      lj/cut/coul/long 12.0  12.0
kspace_style    pppm 1e-4
bond_style      harmonic
angle_style     harmonic
dihedral_style  fourier
improper_style  cvff
special_bonds   amber
pair_modify     mix arithmetic
read_data       temp.lmps
  orthogonal box = (-149.39 -149.39 -149.39) to (149.39 149.39 149.39)
  1 by 1 by 1 MPI processor grid
  reading atoms ...
  870 atoms
  reading velocities ...
  870 velocities
  scanning bonds ...
  3 = max bonds/atom
  scanning angles ...
  6 = max angles/atom
  scanning dihedrals ...
  24 = max dihedrals/atom
  scanning impropers ...
  2 = max impropers/atom
  reading bonds ...
  944 bonds
  reading angles ...
  1661 angles
  reading dihedrals ...
  2450 dihedrals
  reading impropers ...
  240 impropers
  4 = max # of 1-2 neighbors
  10 = max # of 1-3 neighbors
  20 = max # of 1-4 neighbors
  22 = max # of special neighbors
  special bonds CPU = 0.00080204 secs
  read_data CPU = 0.0108502 secs
################################################################################

timestep        1
fix             pysimm_md all nve/limit 0.1
run             2000
PPPM initialization ...
WARNING: System is not charge neutral, net charge = -1.5e-05 (../kspace.cpp:313)
  using 12-bit tables for long-range coulomb (../kspace.cpp:332)
  G vector (1/distance) = 0.0625354
  grid = 15 15 15
  stencil order = 5
  estimated absolute RMS force accuracy = 0.0366328
  estimated relative force accuracy = 0.000110319
  using double precision KISS FFT
  3d grid and FFT values/proc = 8000 3375
Neighbor list info ...
  update every 1 steps, delay 10 steps, check yes
  max neighbors/atom: 2000, page size: 100000
  master list distance cutoff = 14
  ghost atom cutoff = 14
  binsize = 7, bins = 43 43 43
  1 neighbor lists, perpetual/occasional/extra = 1 0 0
  (1) pair lj/cut/coul/long, perpetual
      attributes: half, newton on
      pair build: half/bin/newton
      stencil: half/bin/3d/newton
      bin: standard
Per MPI rank memory allocation (min/avg/max) = 18.82 | 18.82 | 18.82 Mbytes
Step Temp E_pair E_mol TotEng Press 
       0    1200.7459    52.327946     455170.7    458333.35   -808.13816 
[...]
  using double precision KISS FFT
  3d grid and FFT values/proc = 15625 8000
Per MPI rank memory allocation (min/avg/max) = 22.44 | 22.44 | 22.44 Mbytes
Step Temp E_pair E_mol TotEng Press 
    2000    346.40356      96.9711    5186.2705    8096.9763    -1.056668 
    2029    346.40356    15.244817    3147.2802    5976.2597    1.3337378 
Loop time of 0.699911 on 1 procs for 29 steps with 2726 atoms

100.1% CPU use with 1 MPI tasks x no OpenMP threads

Minimization stats:
  Stopping criterion = energy tolerance
  Energy initial, next-to-last, final = 
         5283.24156742      3164.95979036      3162.52496878
  Force two-norm initial, final = 1650.85 109.921
  Force max component initial, final = 187.977 12.7838
  Final line search alpha, max atom move = 0.00248575 0.0317773
  Iterations, force evaluations = 29 57

MPI task timing breakdown:
Section |  min time  |  avg time  |  max time  |%varavg| %total
---------------------------------------------------------------
Pair    | 0.41586    | 0.41586    | 0.41586    |   0.0 | 59.42
Bond    | 0.07528    | 0.07528    | 0.07528    |   0.0 | 10.76
Kspace  | 0.1919     | 0.1919     | 0.1919     |   0.0 | 27.42
Neigh   | 0.013154   | 0.013154   | 0.013154   |   0.0 |  1.88
Comm    | 0.00012755 | 0.00012755 | 0.00012755 |   0.0 |  0.02
Output  | 0          | 0          | 0          |   0.0 |  0.00
Modify  | 0          | 0          | 0          |   0.0 |  0.00
Other   |            | 0.003588   |            |       |  0.51

Nlocal:    2726 ave 2726 max 2726 min
Histogram: 1 0 0 0 0 0 0 0 0 0
Nghost:    0 ave 0 max 0 min
Histogram: 1 0 0 0 0 0 0 0 0 0
Neighs:    206876 ave 206876 max 206876 min
Histogram: 1 0 0 0 0 0 0 0 0 0

Total # of neighbors = 206876
Ave neighs/atom = 75.8899
Ave special neighs/atom = 10.989
Neighbor list builds = 2
Dangerous builds = 0
write_dump all custom pysimm.dump.tmp id q x y z vx vy vz
quit


################################################################################
##################################    Init    ##################################
################################################################################
units           real
atom_style      full
pair_style      lj/cut/coul/long 12.0  12.0
kspace_style    pppm 1e-4
bond_style      harmonic
angle_style     harmonic
dihedral_style  fourier
improper_style  cvff
special_bonds   amber
pair_modify     mix arithmetic
read_data       temp.lmps
  orthogonal box = (-223.689 -223.689 -223.689) to (223.689 223.689 223.689)
  1 by 1 by 1 MPI processor grid
  reading atoms ...
  2784 atoms
  reading velocities ...
  2784 velocities
  scanning bonds ...
  3 = max bonds/atom
  scanning angles ...
  6 = max angles/atom
  scanning dihedrals ...
  24 = max dihedrals/atom
  scanning impropers ...
  2 = max impropers/atom
  reading bonds ...
  3023 bonds
  reading angles ...
  5324 angles
  reading dihedrals ...
  7862 dihedrals
  reading impropers ...
  768 impropers
  4 = max # of 1-2 neighbors
  10 = max # of 1-3 neighbors
  20 = max # of 1-4 neighbors
  22 = max # of special neighbors
  special bonds CPU = 0.00207686 secs
  read_data CPU = 0.0270209 secs
################################################################################

timestep        1
fix             pysimm_md all nve/limit 0.1
run             2000
PPPM initialization ...
WARNING: System is not charge neutral, net charge = -4.8e-05 (../kspace.cpp:313)
  using 12-bit tables for long-range coulomb (../kspace.cpp:332)
  G vector (1/distance) = 0.0660978
  grid = 24 24 24
  stencil order = 5
  estimated absolute RMS force accuracy = 0.0334813
  estimated relative force accuracy = 0.000100828
  using double precision KISS FFT
  3d grid and FFT values/proc = 24389 13824
Neighbor list info ...
  update every 1 steps, delay 10 steps, check yes
  max neighbors/atom: 2000, page size: 100000
  master list distance cutoff = 14
  ghost atom cutoff = 14
  binsize = 7, bins = 64 64 64
  1 neighbor lists, perpetual/occasional/extra = 1 0 0
  (1) pair lj/cut/coul/long, perpetual
      attributes: half, newton on
      pair build: half/bin/newton
      stencil: half/bin/3d/newton
      bin: standard
Per MPI rank memory allocation (min/avg/max) = 22.15 | 22.15 | 22.15 Mbytes
Step Temp E_pair E_mol TotEng Press 
       0    339.34041    17.298963    375663.84    378496.17   -198.11453 
    2000    530.89501      84.0468    5395.3772    9883.5136  0.070533208 
Loop time of 22.563 on 1 procs for 2000 steps with 2784 atoms

Performance: 7.659 ns/day, 3.134 hours/ns, 88.641 timesteps/s
100.0% CPU use with 1 MPI tasks x no OpenMP threads

MPI task timing breakdown:
Section |  min time  |  avg time  |  max time  |%varavg| %total
---------------------------------------------------------------
Pair    | 9.3034     | 9.3034     | 9.3034     |   0.0 | 41.23
Bond    | 2.4758     | 2.4758     | 2.4758     |   0.0 | 10.97
Kspace  | 9.4851     | 9.4851     | 9.4851     |   0.0 | 42.04
Neigh   | 1.1831     | 1.1831     | 1.1831     |   0.0 |  5.24
Comm    | 0.0099742  | 0.0099742  | 0.0099742  |   0.0 |  0.04
Output  | 4.6968e-05 | 4.6968e-05 | 4.6968e-05 |   0.0 |  0.00
Modify  | 0.090812   | 0.090812   | 0.090812   |   0.0 |  0.40
Other   |            | 0.01478    |            |       |  0.07

Nlocal:    2784 ave 2784 max 2784 min
Histogram: 1 0 0 0 0 0 0 0 0 0
Nghost:    0 ave 0 max 0 min
Histogram: 1 0 0 0 0 0 0 0 0 0
Neighs:    209541 ave 209541 max 209541 min
Histogram: 1 0 0 0 0 0 0 0 0 0

Total # of neighbors = 209541
Ave neighs/atom = 75.2662
Ave special neighs/atom = 10.9892
Neighbor list builds = 177
Dangerous builds = 0
unfix pysimm_md
min_style cg
minimize 0.001 0.001 10000 100000
WARNING: Using 'neigh_modify every 1 delay 0 check yes' setting during minimization (../min.cpp:190)
PPPM initialization ...
  using 12-bit tables for long-range coulomb (../kspace.cpp:332)
  G vector (1/distance) = 0.0660978
  grid = 24 24 24
  stencil order = 5
  estimated absolute RMS force accuracy = 0.0334813
  estimated relative force accuracy = 0.000100828
  using double precision KISS FFT
  3d grid and FFT values/proc = 24389 13824
Per MPI rank memory allocation (min/avg/max) = 23.27 | 23.27 | 23.27 Mbytes
Step Temp E_pair E_mol TotEng Press 
    2000    530.89501      84.0468    5395.3772    9883.5136  0.070533208 
    2034    530.89501   -25.612756    3345.5512    7724.0281    1.8924686 
Loop time of 0.883458 on 1 procs for 34 steps with 2784 atoms

100.2% CPU use with 1 MPI tasks x no OpenMP threads

Minimization stats:
  Stopping criterion = energy tolerance
  Energy initial, next-to-last, final = 
         5479.42395231      3322.75280189       3319.9384756
  Force two-norm initial, final = 1599.6 116.684
  Force max component initial, final = 171.545 15.2842
  Final line search alpha, max atom move = 0.002052 0.0313632
  Iterations, force evaluations = 34 64

MPI task timing breakdown:
Section |  min time  |  avg time  |  max time  |%varavg| %total
---------------------------------------------------------------
Pair    | 0.47196    | 0.47196    | 0.47196    |   0.0 | 53.42
Bond    | 0.087094   | 0.087094   | 0.087094   |   0.0 |  9.86
Kspace  | 0.30679    | 0.30679    | 0.30679    |   0.0 | 34.73
Neigh   | 0.01327    | 0.01327    | 0.01327    |   0.0 |  1.50
Comm    | 0.00010848 | 0.00010848 | 0.00010848 |   0.0 |  0.01
Output  | 0          | 0          | 0          |   0.0 |  0.00
Modify  | 0          | 0          | 0          |   0.0 |  0.00
Other   |            | 0.004241   |            |       |  0.48

Nlocal:    2784 ave 2784 max 2784 min
Histogram: 1 0 0 0 0 0 0 0 0 0
Nghost:    0 ave 0 max 0 min
Histogram: 1 0 0 0 0 0 0 0 0 0
Neighs:    209791 ave 209791 max 209791 min
Histogram: 1 0 0 0 0 0 0 0 0 0

Total # of neighbors = 209791
Ave neighs/atom = 75.356
Ave special neighs/atom = 10.9892
Neighbor list builds = 2
Dangerous builds = 0
write_dump all custom pysimm.dump.tmp id q x y z vx vy vz
quit


################################################################################
##################################    Init    ##################################
################################################################################
units           real
atom_style      full
pair_style      lj/cut/coul/long 12.0  12.0
kspace_style    pppm 1e-4
bond_style      harmonic
angle_style     harmonic
dihedral_style  fourier
improper_style  cvff
special_bonds   amber
pair_modify     mix arithmetic
read_data       temp.lmps
  orthogonal box = (-225.264 -225.264 -225.264) to (225.264 225.264 225.264)
  1 by 1 by 1 MPI processor grid
  reading atoms ...
  2842 atoms
  reading velocities ...
  2842 velocities
  scanning bonds ...
  3 = max bonds/atom
  scanning angles ...
  6 = max angles/atom
  scanning dihedrals ...
  24 = max dihedrals/atom
  scanning impropers ...
  2 = max impropers/atom
  reading bonds ...
  3086 bonds
  reading angles ...
  5435 angles
  reading dihedrals ...
  8026 dihedrals
  reading impropers ...
  784 impropers
  4 = max # of 1-2 neighbors
  10 = max # of 1-3 neighbors
  20 = max # of 1-4 neighbors
  22 = max # of special neighbors
  special bonds CPU = 0.00222397 secs
  read_data CPU = 0.028235 secs
################################################################################

timestep        1
fix             pysimm_md all nve/limit 0.1
run             2000
PPPM initialization ...
WARNING: System is not charge neutral, net charge = -4.9e-05 (../kspace.cpp:313)
  using 12-bit tables for long-range coulomb (../kspace.cpp:332)
  G vector (1/distance) = 0.0657137
  grid = 24 24 24
  stencil order = 5
  estimated absolute RMS force accuracy = 0.033719
  estimated relative force accuracy = 0.000101544
  using double precision KISS FFT
  3d grid and FFT values/proc = 24389 13824
Neighbor list info ...
  update every 1 steps, delay 10 steps, check yes
  max neighbors/atom: 2000, page size: 100000
  master list distance cutoff = 14
  ghost atom cutoff = 14
  binsize = 7, bins = 65 65 65
  1 neighbor lists, perpetual/occasional/extra = 1 0 0
  (1) pair lj/cut/coul/long, perpetual
      attributes: half, newton on
      pair build: half/bin/newton
      stencil: half/bin/3d/newton
      bin: standard
Per MPI rank memory allocation (min/avg/max) = 22.21 | 22.21 | 22.21 Mbytes
Step Temp E_pair E_mol TotEng Press 
       0     520.2096   -21.044836    297594.93    301979.27   -153.26827 
    2000    513.33984    84.617244    5536.0366    9967.8627  0.016112451 
Loop time of 22.4207 on 1 procs for 2000 steps with 2842 atoms

Performance: 7.707 ns/day, 3.114 hours/ns, 89.203 timesteps/s
100.0% CPU use with 1 MPI tasks x no OpenMP threads

MPI task timing breakdown:
Section |  min time  |  avg time  |  max time  |%varavg| %total
---------------------------------------------------------------
Pair    | 9.3801     | 9.3801     | 9.3801     |   0.0 | 41.84
Bond    | 2.4618     | 2.4618     | 2.4618     |   0.0 | 10.98
Kspace  | 9.2927     | 9.2927     | 9.2927     |   0.0 | 41.45
Neigh   | 1.172      | 1.172      | 1.172      |   0.0 |  5.23
Comm    | 0.0095687  | 0.0095687  | 0.0095687  |   0.0 |  0.04
Output  | 3.6001e-05 | 3.6001e-05 | 3.6001e-05 |   0.0 |  0.00
Modify  | 0.089736   | 0.089736   | 0.089736   |   0.0 |  0.40
Other   |            | 0.01472    |            |       |  0.07

Nlocal:    2842 ave 2842 max 2842 min
Histogram: 1 0 0 0 0 0 0 0 0 0
Nghost:    0 ave 0 max 0 min
Histogram: 1 0 0 0 0 0 0 0 0 0
Neighs:    216208 ave 216208 max 216208 min
Histogram: 1 0 0 0 0 0 0 0 0 0

Total # of neighbors = 216208
Ave neighs/atom = 76.076
Ave special neighs/atom = 10.9894
Neighbor list builds = 173
Dangerous builds = 0
unfix pysimm_md
min_style cg
minimize 0.001 0.001 10000 100000
WARNING: Using 'neigh_modify every 1 delay 0 check yes' setting during minimization (../min.cpp:190)
PPPM initialization ...
  using 12-bit tables for long-range coulomb (../kspace.cpp:332)
  G vector (1/distance) = 0.0657137
  grid = 24 24 24
  stencil order = 5
  estimated absolute RMS force accuracy = 0.033719
  estimated relative force accuracy = 0.000101544
  using double precision KISS FFT
  3d grid and FFT values/proc = 24389 13824
Per MPI rank memory allocation (min/avg/max) = 23.34 | 23.34 | 23.34 Mbytes
Step Temp E_pair E_mol TotEng Press 
    2000    513.33984    84.617244    5536.0366    9967.8627  0.016112451 
    2037    513.33984   -40.906362    3327.6355     7633.938    2.0836897 
Loop time of 0.983279 on 1 procs for 37 steps with 2842 atoms

100.1% CPU use with 1 MPI tasks x no OpenMP threads

Minimization stats:
  Stopping criterion = energy tolerance
  Energy initial, next-to-last, final = 
         5620.65379814      3289.76534446      3286.72909448
  Force two-norm initial, final = 1609.33 104.799
  Force max component initial, final = 210.19 14.4224
  Final line search alpha, max atom move = 0.00219555 0.031665
  Iterations, force evaluations = 37 71

MPI task timing breakdown:
Section |  min time  |  avg time  |  max time  |%varavg| %total
---------------------------------------------------------------
Pair    | 0.52789    | 0.52789    | 0.52789    |   0.0 | 53.69
Bond    | 0.097715   | 0.097715   | 0.097715   |   0.0 |  9.94
Kspace  | 0.33876    | 0.33876    | 0.33876    |   0.0 | 34.45
Neigh   | 0.013905   | 0.013905   | 0.013905   |   0.0 |  1.41
Comm    | 0.00013328 | 0.00013328 | 0.00013328 |   0.0 |  0.01
Output  | 0          | 0          | 0          |   0.0 |  0.00
Modify  | 0          | 0          | 0          |   0.0 |  0.00
Other   |            | 0.004876   |            |       |  0.50

Nlocal:    2842 ave 2842 max 2842 min
Histogram: 1 0 0 0 0 0 0 0 0 0
Nghost:    0 ave 0 max 0 min
Histogram: 1 0 0 0 0 0 0 0 0 0
Neighs:    216331 ave 216331 max 216331 min
Histogram: 1 0 0 0 0 0 0 0 0 0

Total # of neighbors = 216331
Ave neighs/atom = 76.1193
Ave special neighs/atom = 10.9894
Neighbor list builds = 2
Dangerous builds = 0
write_dump all custom pysimm.dump.tmp id q x y z vx vy vz
quit


################################################################################
##################################    Init    ##################################
################################################################################
units           real
atom_style      full
pair_style      lj/cut/coul/long 12.0  12.0
kspace_style    pppm 1e-4
bond_style      harmonic
angle_style     harmonic
dihedral_style  fourier
improper_style  cvff
special_bonds   amber
pair_modify     mix arithmetic
read_data       temp.lmps
  orthogonal box = (-226.818 -226.818 -226.818) to (226.818 226.818 226.818)
  1 by 1 by 1 MPI processor grid
  reading atoms ...
  2900 atoms
  reading velocities ...
  2900 velocities
  scanning bonds ...
  3 = max bonds/atom
  scanning angles ...
  6 = max angles/atom
  scanning dihedrals ...
  24 = max dihedrals/atom
  scanning impropers ...
  2 = max impropers/atom
  reading bonds ...
  3149 bonds
  reading angles ...
  5546 angles
  reading dihedrals ...
  8190 dihedrals
  reading impropers ...
  800 impropers
  4 = max # of 1-2 neighbors
  10 = max # of 1-3 neighbors
  20 = max # of 1-4 neighbors
  22 = max # of special neighbors
  special bonds CPU = 0.00233102 secs
  read_data CPU = 0.0836592 secs
################################################################################

timestep        1
fix             pysimm_md all nve/limit 0.1
run             2000
PPPM initialization ...
WARNING: System is not charge neutral, net charge = -5e-05 (../kspace.cpp:313)
  using 12-bit tables for long-range coulomb (../kspace.cpp:332)
  G vector (1/distance) = 0.0653416
  grid = 24 24 24
  stencil order = 5
  estimated absolute RMS force accuracy = 0.0339564
  estimated relative force accuracy = 0.000102259
  using double precision KISS FFT
  3d grid and FFT values/proc = 24389 13824
Neighbor list info ...
  update every 1 steps, delay 10 steps, check yes
  max neighbors/atom: 2000, page size: 100000
  master list distance cutoff = 14
  ghost atom cutoff = 14
  binsize = 7, bins = 65 65 65
  1 neighbor lists, perpetual/occasional/extra = 1 0 0
  (1) pair lj/cut/coul/long, perpetual
      attributes: half, newton on
      pair build: half/bin/newton
      stencil: half/bin/3d/newton
      bin: standard
Per MPI rank memory allocation (min/avg/max) = 22.22 | 22.22 | 22.22 Mbytes
Step Temp E_pair E_mol TotEng Press 
       0    503.21942    -37.73545    268711.66    273022.42   -135.36765 
    2000    424.56121    130.22714    5357.5266    9156.5435   0.58664214 
Loop time of 23.7468 on 1 procs for 2000 steps with 2900 atoms

Performance: 7.277 ns/day, 3.298 hours/ns, 84.222 timesteps/s
100.0% CPU use with 1 MPI tasks x no OpenMP threads

MPI task timing breakdown:
Section |  min time  |  avg time  |  max time  |%varavg| %total
---------------------------------------------------------------
Pair    | 10.283     | 10.283     | 10.283     |   0.0 | 43.30
Bond    | 2.5705     | 2.5705     | 2.5705     |   0.0 | 10.82
Kspace  | 9.5339     | 9.5339     | 9.5339     |   0.0 | 40.15
Neigh   | 1.2396     | 1.2396     | 1.2396     |   0.0 |  5.22
Comm    | 0.010579   | 0.010579   | 0.010579   |   0.0 |  0.04
Output  | 3.5048e-05 | 3.5048e-05 | 3.5048e-05 |   0.0 |  0.00
Modify  | 0.093736   | 0.093736   | 0.093736   |   0.0 |  0.39
Other   |            | 0.0157     |            |       |  0.07

Nlocal:    2900 ave 2900 max 2900 min
Histogram: 1 0 0 0 0 0 0 0 0 0
Nghost:    0 ave 0 max 0 min
Histogram: 1 0 0 0 0 0 0 0 0 0
Neighs:    231986 ave 231986 max 231986 min
Histogram: 1 0 0 0 0 0 0 0 0 0

Total # of neighbors = 231986
Ave neighs/atom = 79.9952
Ave special neighs/atom = 10.9897
Neighbor list builds = 170
Dangerous builds = 0
unfix pysimm_md
min_style cg
minimize 0.001 0.001 10000 100000
WARNING: Using 'neigh_modify every 1 delay 0 check yes' setting during minimization (../min.cpp:190)
PPPM initialization ...
  using 12-bit tables for long-range coulomb (../kspace.cpp:332)
  G vector (1/distance) = 0.0653416
  grid = 24 24 24
  stencil order = 5
  estimated absolute RMS force accuracy = 0.0339564
  estimated relative force accuracy = 0.000102259
  using double precision KISS FFT
  3d grid and FFT values/proc = 24389 13824
Per MPI rank memory allocation (min/avg/max) = 23.34 | 23.34 | 23.34 Mbytes
Step Temp E_pair E_mol TotEng Press 
    2000    424.56121    130.22714    5357.5266    9156.5435   0.58664214 
    2031    424.56121   -56.637547    3322.2655    6934.4178    1.7136182 
Loop time of 0.881197 on 1 procs for 31 steps with 2900 atoms

100.1% CPU use with 1 MPI tasks x no OpenMP threads

Minimization stats:
  Stopping criterion = energy tolerance
  Energy initial, next-to-last, final = 
         5487.75369392      3267.01161099      3265.62793137
  Force two-norm initial, final = 1632.64 99.346
  Force max component initial, final = 167.123 9.70127
  Final line search alpha, max atom move = 0.00259463 0.0251712
  Iterations, force evaluations = 31 61

MPI task timing breakdown:
Section |  min time  |  avg time  |  max time  |%varavg| %total
---------------------------------------------------------------
Pair    | 0.48767    | 0.48767    | 0.48767    |   0.0 | 55.34
Bond    | 0.085694   | 0.085694   | 0.085694   |   0.0 |  9.72
Kspace  | 0.28931    | 0.28931    | 0.28931    |   0.0 | 32.83
Neigh   | 0.014291   | 0.014291   | 0.014291   |   0.0 |  1.62
Comm    | 0.00014234 | 0.00014234 | 0.00014234 |   0.0 |  0.02
Output  | 0          | 0          | 0          |   0.0 |  0.00
Modify  | 0          | 0          | 0          |   0.0 |  0.00
Other   |            | 0.004081   |            |       |  0.46

Nlocal:    2900 ave 2900 max 2900 min
Histogram: 1 0 0 0 0 0 0 0 0 0
Nghost:    0 ave 0 max 0 min
Histogram: 1 0 0 0 0 0 0 0 0 0
Neighs:    232133 ave 232133 max 232133 min
Histogram: 1 0 0 0 0 0 0 0 0 0

Total # of neighbors = 232133
Ave neighs/atom = 80.0459
Ave special neighs/atom = 10.9897
Neighbor list builds = 2
Dangerous builds = 0
write_dump all custom pysimm.dump.tmp id q x y z vx vy vz
quit
