

################################################################################
##################################    Init    ##################################
################################################################################
units           real
atom_style      full
pair_style      lj/cut/coul/long 12.0  12.0
kspace_style    pppm 1e-4
bond_style      harmonic
angle_style     harmonic
dihedral_style  fourier
improper_style  cvff
special_bonds   amber
pair_modify     mix arithmetic
read_data       temp.lmps
  orthogonal box = (-98.5156 -98.5156 -98.5156) to (98.5156 98.5156 98.5156)
  1 by 1 by 1 MPI processor grid
  reading atoms ...
  554 atoms
  reading velocities ...
  554 velocities
  scanning bonds ...
  3 = max bonds/atom
  scanning angles ...
  6 = max angles/atom
  scanning dihedrals ...
  27 = max dihedrals/atom
  scanning impropers ...
  2 = max impropers/atom
  reading bonds ...
  622 bonds
  reading angles ...
  1140 angles
  reading dihedrals ...
  1876 dihedrals
  reading impropers ...
  80 impropers
  4 = max # of 1-2 neighbors
  11 = max # of 1-3 neighbors
  24 = max # of 1-4 neighbors
  24 = max # of special neighbors
  special bonds CPU = 0.000603914 secs
  read_data CPU = 0.00868917 secs
################################################################################

min_style cg
minimize 1e-06 1e-06 1000000 10000000
WARNING: Using 'neigh_modify every 1 delay 0 check yes' setting during minimization (../min.cpp:190)
PPPM initialization ...
WARNING: System is not charge neutral, net charge = -4e-05 (../kspace.cpp:313)
  using 12-bit tables for long-range coulomb (../kspace.cpp:332)
  G vector (1/distance) = 0.107588
  grid = 20 20 20
  stencil order = 5
  estimated absolute RMS force accuracy = 0.0352659
  estimated relative force accuracy = 0.000106202
  using double precision KISS FFT
  3d grid and FFT values/proc = 15625 8000
Neighbor list info ...
  update every 1 steps, delay 0 steps, check yes
  max neighbors/atom: 2000, page size: 100000
  master list distance cutoff = 14
  ghost atom cutoff = 14
  binsize = 7, bins = 29 29 29
  1 neighbor lists, perpetual/occasional/extra = 1 0 0
  (1) pair lj/cut/coul/long, perpetual
      attributes: half, newton on
      pair build: half/bin/newton
      stencil: half/bin/3d/newton
      bin: standard
Per MPI rank memory allocation (min/avg/max) = 21.39 | 21.39 | 21.39 Mbytes
Step Temp E_pair E_mol TotEng Press 
       0    1231.1829    164.27772    1144.2326    3337.9774    6.4131371 
      97    1231.1829    158.38196    545.99511    2733.8441    13.155383 
Loop time of 2.73866 on 1 procs for 97 steps with 554 atoms

100.0% CPU use with 1 MPI tasks x no OpenMP threads

Minimization stats:
  Stopping criterion = energy tolerance
  Energy initial, next-to-last, final = 
          1308.5103344      704.377305573      704.377073127
  Force two-norm initial, final = 3.19518e+15 585.01
  Force max component initial, final = 1.8661e+15 309.016
  Final line search alpha, max atom move = 1.26053e-06 0.000389523
  Iterations, force evaluations = 97 841

MPI task timing breakdown:
Section |  min time  |  avg time  |  max time  |%varavg| %total
---------------------------------------------------------------
Pair    | 0.91675    | 0.91675    | 0.91675    |   0.0 | 33.47
Bond    | 0.25255    | 0.25255    | 0.25255    |   0.0 |  9.22
Kspace  | 1.5608     | 1.5608     | 1.5608     |   0.0 | 56.99
Neigh   | 0          | 0          | 0          |   0.0 |  0.00
Comm    | 0.00039291 | 0.00039291 | 0.00039291 |   0.0 |  0.01
Output  | 0          | 0          | 0          |   0.0 |  0.00
Modify  | 0          | 0          | 0          |   0.0 |  0.00
Other   |            | 0.008136   |            |       |  0.30

Nlocal:    554 ave 554 max 554 min
Histogram: 1 0 0 0 0 0 0 0 0 0
Nghost:    0 ave 0 max 0 min
Histogram: 1 0 0 0 0 0 0 0 0 0
Neighs:    29306 ave 29306 max 29306 min
Histogram: 1 0 0 0 0 0 0 0 0 0

Total # of neighbors = 29306
Ave neighs/atom = 52.8989
Ave special neighs/atom = 12.2419
Neighbor list builds = 0
Dangerous builds = 0
write_dump all custom pysimm.dump.tmp id q x y z vx vy vz
quit


################################################################################
##################################    Init    ##################################
################################################################################
units           real
atom_style      full
pair_style      lj/cut/coul/long 12.0  12.0
kspace_style    pppm 1e-4
bond_style      harmonic
angle_style     harmonic
dihedral_style  fourier
improper_style  cvff
special_bonds   amber
pair_modify     mix arithmetic
read_data       temp.lmps
  orthogonal box = (-124.122 -124.122 -124.122) to (124.122 124.122 124.122)
  1 by 1 by 1 MPI processor grid
  reading atoms ...
  611 atoms
  reading velocities ...
  611 velocities
  scanning bonds ...
  3 = max bonds/atom
  scanning angles ...
  6 = max angles/atom
  scanning dihedrals ...
  27 = max dihedrals/atom
  scanning impropers ...
  2 = max impropers/atom
  reading bonds ...
  685 bonds
  reading angles ...
  1254 angles
  reading dihedrals ...
  2062 dihedrals
  reading impropers ...
  88 impropers
  4 = max # of 1-2 neighbors
  11 = max # of 1-3 neighbors
  24 = max # of 1-4 neighbors
  24 = max # of special neighbors
  special bonds CPU = 0.000599146 secs
  read_data CPU = 0.00894499 secs
################################################################################

min_style cg
minimize 1e-06 1e-06 1000000 10000000
WARNING: Using 'neigh_modify every 1 delay 0 check yes' setting during minimization (../min.cpp:190)
PPPM initialization ...
WARNING: System is not charge neutral, net charge = -4.4e-05 (../kspace.cpp:313)
  using 12-bit tables for long-range coulomb (../kspace.cpp:332)
  G vector (1/distance) = 0.104012
  grid = 24 24 24
  stencil order = 5
  estimated absolute RMS force accuracy = 0.0291265
  estimated relative force accuracy = 8.77135e-05
  using double precision KISS FFT
  3d grid and FFT values/proc = 24389 13824
Neighbor list info ...
  update every 1 steps, delay 0 steps, check yes
  max neighbors/atom: 2000, page size: 100000
  master list distance cutoff = 14
  ghost atom cutoff = 14
  binsize = 7, bins = 36 36 36
  1 neighbor lists, perpetual/occasional/extra = 1 0 0
  (1) pair lj/cut/coul/long, perpetual
      attributes: half, newton on
      pair build: half/bin/newton
      stencil: half/bin/3d/newton
      bin: standard
Per MPI rank memory allocation (min/avg/max) = 22.34 | 22.34 | 22.34 Mbytes
Step Temp E_pair E_mol TotEng Press 
       0    1588.7934    178.54742    1840.2888    4907.7299     2.737582 
     140    1588.7934    172.77714    990.39368    4052.0645     7.548407 
Loop time of 7.77431 on 1 procs for 140 steps with 611 atoms

100.0% CPU use with 1 MPI tasks x no OpenMP threads

Minimization stats:
  Stopping criterion = energy tolerance
  Energy initial, next-to-last, final = 
         2018.83623264      1163.17155376      1163.17081918
  Force two-norm initial, final = 1.51561e+15 104.003
  Force max component initial, final = 6.82912e+14 48.2592
  Final line search alpha, max atom move = 1.05965e-06 5.1138e-05
  Iterations, force evaluations = 140 1542

MPI task timing breakdown:
Section |  min time  |  avg time  |  max time  |%varavg| %total
---------------------------------------------------------------
Pair    | 2.0935     | 2.0935     | 2.0935     |   0.0 | 26.93
Bond    | 0.50313    | 0.50313    | 0.50313    |   0.0 |  6.47
Kspace  | 5.159      | 5.159      | 5.159      |   0.0 | 66.36
Neigh   | 0.001354   | 0.001354   | 0.001354   |   0.0 |  0.02
Comm    | 0.00088263 | 0.00088263 | 0.00088263 |   0.0 |  0.01
Output  | 0          | 0          | 0          |   0.0 |  0.00
Modify  | 0          | 0          | 0          |   0.0 |  0.00
Other   |            | 0.01641    |            |       |  0.21

Nlocal:    611 ave 611 max 611 min
Histogram: 1 0 0 0 0 0 0 0 0 0
Nghost:    0 ave 0 max 0 min
Histogram: 1 0 0 0 0 0 0 0 0 0
Neighs:    38419 ave 38419 max 38419 min
Histogram: 1 0 0 0 0 0 0 0 0 0

Total # of neighbors = 38419
Ave neighs/atom = 62.8789
Ave special neighs/atom = 12.216
Neighbor list builds = 1
Dangerous builds = 0
write_dump all custom pysimm.dump.tmp id q x y z vx vy vz
quit


################################################################################
##################################    Init    ##################################
################################################################################
units           real
atom_style      full
pair_style      lj/cut/coul/long 12.0  12.0
kspace_style    pppm 1e-4
bond_style      harmonic
angle_style     harmonic
dihedral_style  fourier
improper_style  cvff
special_bonds   amber
pair_modify     mix arithmetic
read_data       temp.lmps
  orthogonal box = (-128.129 -128.129 -128.129) to (128.129 128.129 128.129)
  1 by 1 by 1 MPI processor grid
  reading atoms ...
  668 atoms
  reading velocities ...
  668 velocities
  scanning bonds ...
  3 = max bonds/atom
  scanning angles ...
  6 = max angles/atom
  scanning dihedrals ...
  27 = max dihedrals/atom
  scanning impropers ...
  2 = max impropers/atom
  reading bonds ...
  748 bonds
  reading angles ...
  1368 angles
  reading dihedrals ...
  2248 dihedrals
  reading impropers ...
  96 impropers
  4 = max # of 1-2 neighbors
  11 = max # of 1-3 neighbors
  24 = max # of 1-4 neighbors
  24 = max # of special neighbors
  special bonds CPU = 0.000691891 secs
  read_data CPU = 0.00998592 secs
################################################################################

min_style cg
minimize 1e-06 1e-06 1000000 10000000
WARNING: Using 'neigh_modify every 1 delay 0 check yes' setting during minimization (../min.cpp:190)
PPPM initialization ...
WARNING: System is not charge neutral, net charge = -4.8e-05 (../kspace.cpp:313)
  using 12-bit tables for long-range coulomb (../kspace.cpp:332)
  G vector (1/distance) = 0.10171
  grid = 24 24 24
  stencil order = 5
  estimated absolute RMS force accuracy = 0.0310187
  estimated relative force accuracy = 9.34119e-05
  using double precision KISS FFT
  3d grid and FFT values/proc = 24389 13824
Neighbor list info ...
  update every 1 steps, delay 0 steps, check yes
  max neighbors/atom: 2000, page size: 100000
  master list distance cutoff = 14
  ghost atom cutoff = 14
  binsize = 7, bins = 37 37 37
  1 neighbor lists, perpetual/occasional/extra = 1 0 0
  (1) pair lj/cut/coul/long, perpetual
      attributes: half, newton on
      pair build: half/bin/newton
      stencil: half/bin/3d/newton
      bin: standard
Per MPI rank memory allocation (min/avg/max) = 22.36 | 22.36 | 22.36 Mbytes
Step Temp E_pair E_mol TotEng Press 
       0    1948.1126    225.88646    2250.9168    6350.0413    5.4762993 
      14    1948.1126    225.88646    2239.4286    6338.5531     5.476012 
Loop time of 3.3961 on 1 procs for 14 steps with 668 atoms

100.0% CPU use with 1 MPI tasks x no OpenMP threads

Minimization stats:
  Stopping criterion = energy tolerance
  Energy initial, next-to-last, final = 
         2476.80322017      2465.31583996      2465.31503766
  Force two-norm initial, final = 1.6862e+16 2.47807e+07
  Force max component initial, final = 1.04653e+16 1.44083e+07
  Final line search alpha, max atom move = 5.30298e-18 7.64071e-11
  Iterations, force evaluations = 14 607

MPI task timing breakdown:
Section |  min time  |  avg time  |  max time  |%varavg| %total
---------------------------------------------------------------
Pair    | 1.0617     | 1.0617     | 1.0617     |   0.0 | 31.26
Bond    | 0.2158     | 0.2158     | 0.2158     |   0.0 |  6.35
Kspace  | 2.1122     | 2.1122     | 2.1122     |   0.0 | 62.20
Neigh   | 0          | 0          | 0          |   0.0 |  0.00
Comm    | 0.00033236 | 0.00033236 | 0.00033236 |   0.0 |  0.01
Output  | 0          | 0          | 0          |   0.0 |  0.00
Modify  | 0          | 0          | 0          |   0.0 |  0.00
Other   |            | 0.006083   |            |       |  0.18

Nlocal:    668 ave 668 max 668 min
Histogram: 1 0 0 0 0 0 0 0 0 0
Nghost:    0 ave 0 max 0 min
Histogram: 1 0 0 0 0 0 0 0 0 0
Neighs:    50408 ave 50408 max 50408 min
Histogram: 1 0 0 0 0 0 0 0 0 0

Total # of neighbors = 50408
Ave neighs/atom = 75.4611
Ave special neighs/atom = 12.1946
Neighbor list builds = 0
Dangerous builds = 0
write_dump all custom pysimm.dump.tmp id q x y z vx vy vz
quit


################################################################################
##################################    Init    ##################################
################################################################################
units           real
atom_style      full
pair_style      lj/cut/coul/long 12.0  12.0
kspace_style    pppm 1e-4
bond_style      harmonic
angle_style     harmonic
dihedral_style  fourier
improper_style  cvff
special_bonds   amber
pair_modify     mix arithmetic
read_data       temp.lmps
  orthogonal box = (-131.899 -131.899 -131.899) to (131.899 131.899 131.899)
  1 by 1 by 1 MPI processor grid
  reading atoms ...
  725 atoms
  reading velocities ...
  725 velocities
  scanning bonds ...
  3 = max bonds/atom
  scanning angles ...
  6 = max angles/atom
  scanning dihedrals ...
  27 = max dihedrals/atom
  scanning impropers ...
  2 = max impropers/atom
  reading bonds ...
  811 bonds
  reading angles ...
  1482 angles
  reading dihedrals ...
  2434 dihedrals
  reading impropers ...
  104 impropers
  4 = max # of 1-2 neighbors
  11 = max # of 1-3 neighbors
  24 = max # of 1-4 neighbors
  24 = max # of special neighbors
  special bonds CPU = 0.00068593 secs
  read_data CPU = 0.0101089 secs
################################################################################

min_style cg
minimize 1e-06 1e-06 1000000 10000000
WARNING: Using 'neigh_modify every 1 delay 0 check yes' setting during minimization (../min.cpp:190)
PPPM initialization ...
WARNING: System is not charge neutral, net charge = -5.2e-05 (../kspace.cpp:313)
  using 12-bit tables for long-range coulomb (../kspace.cpp:332)
  G vector (1/distance) = 0.0996308
  grid = 24 24 24
  stencil order = 5
  estimated absolute RMS force accuracy = 0.0328015
  estimated relative force accuracy = 9.87808e-05
  using double precision KISS FFT
  3d grid and FFT values/proc = 24389 13824
Neighbor list info ...
  update every 1 steps, delay 0 steps, check yes
  max neighbors/atom: 2000, page size: 100000
  master list distance cutoff = 14
  ghost atom cutoff = 14
  binsize = 7, bins = 38 38 38
  1 neighbor lists, perpetual/occasional/extra = 1 0 0
  (1) pair lj/cut/coul/long, perpetual
      attributes: half, newton on
      pair build: half/bin/newton
      stencil: half/bin/3d/newton
      bin: standard
Per MPI rank memory allocation (min/avg/max) = 22.39 | 22.39 | 22.39 Mbytes
Step Temp E_pair E_mol TotEng Press 
       0    1765.7503    538.85624    2483.8702    6833.4037    6.9864085 
       2    1765.7503    538.85624    2480.1889    6829.7224    6.9871064 
Loop time of 0.895867 on 1 procs for 2 steps with 725 atoms

99.8% CPU use with 1 MPI tasks x no OpenMP threads

Minimization stats:
  Stopping criterion = quadratic factors are zero
  Energy initial, next-to-last, final = 
         3022.72647169      3019.04516523      3019.04516523
  Force two-norm initial, final = 6.78759e+15 3.0238e+15
  Force max component initial, final = 2.52238e+15 1.71547e+15
  Final line search alpha, max atom move = 8.98789e-32 1.54185e-16
  Iterations, force evaluations = 2 162

MPI task timing breakdown:
Section |  min time  |  avg time  |  max time  |%varavg| %total
---------------------------------------------------------------
Pair    | 0.27485    | 0.27485    | 0.27485    |   0.0 | 30.68
Bond    | 0.062037   | 0.062037   | 0.062037   |   0.0 |  6.92
Kspace  | 0.55719    | 0.55719    | 0.55719    |   0.0 | 62.20
Neigh   | 0          | 0          | 0          |   0.0 |  0.00
Comm    | 6.8426e-05 | 6.8426e-05 | 6.8426e-05 |   0.0 |  0.01
Output  | 0          | 0          | 0          |   0.0 |  0.00
Modify  | 0          | 0          | 0          |   0.0 |  0.00
Other   |            | 0.001713   |            |       |  0.19

Nlocal:    725 ave 725 max 725 min
Histogram: 1 0 0 0 0 0 0 0 0 0
Nghost:    0 ave 0 max 0 min
Histogram: 1 0 0 0 0 0 0 0 0 0
Neighs:    47676 ave 47676 max 47676 min
Histogram: 1 0 0 0 0 0 0 0 0 0

Total # of neighbors = 47676
Ave neighs/atom = 65.76
Ave special neighs/atom = 12.1766
Neighbor list builds = 0
Dangerous builds = 0
write_dump all custom pysimm.dump.tmp id q x y z vx vy vz
quit


################################################################################
##################################    Init    ##################################
################################################################################
units           real
atom_style      full
pair_style      lj/cut/coul/long 12.0  12.0
kspace_style    pppm 1e-4
bond_style      harmonic
angle_style     harmonic
dihedral_style  fourier
improper_style  cvff
special_bonds   amber
pair_modify     mix arithmetic
read_data       temp.lmps
  orthogonal box = (-98.5156 -98.5156 -98.5156) to (98.5156 98.5156 98.5156)
  1 by 1 by 1 MPI processor grid
  reading atoms ...
  554 atoms
  reading velocities ...
  554 velocities
  scanning bonds ...
  3 = max bonds/atom
  scanning angles ...
  6 = max angles/atom
  scanning dihedrals ...
  27 = max dihedrals/atom
  scanning impropers ...
  2 = max impropers/atom
  reading bonds ...
  622 bonds
  reading angles ...
  1140 angles
  reading dihedrals ...
  1876 dihedrals
  reading impropers ...
  80 impropers
  4 = max # of 1-2 neighbors
  11 = max # of 1-3 neighbors
  24 = max # of 1-4 neighbors
  24 = max # of special neighbors
  special bonds CPU = 0.000485897 secs
  read_data CPU = 0.00783014 secs
################################################################################

min_style cg
minimize 1e-06 1e-06 1000000 10000000
WARNING: Using 'neigh_modify every 1 delay 0 check yes' setting during minimization (../min.cpp:190)
PPPM initialization ...
WARNING: System is not charge neutral, net charge = -4e-05 (../kspace.cpp:313)
  using 12-bit tables for long-range coulomb (../kspace.cpp:332)
  G vector (1/distance) = 0.107588
  grid = 20 20 20
  stencil order = 5
  estimated absolute RMS force accuracy = 0.0352659
  estimated relative force accuracy = 0.000106202
  using double precision KISS FFT
  3d grid and FFT values/proc = 15625 8000
Neighbor list info ...
  update every 1 steps, delay 0 steps, check yes
  max neighbors/atom: 2000, page size: 100000
  master list distance cutoff = 14
  ghost atom cutoff = 14
  binsize = 7, bins = 29 29 29
  1 neighbor lists, perpetual/occasional/extra = 1 0 0
  (1) pair lj/cut/coul/long, perpetual
      attributes: half, newton on
      pair build: half/bin/newton
      stencil: half/bin/3d/newton
      bin: standard
Per MPI rank memory allocation (min/avg/max) = 21.39 | 21.39 | 21.39 Mbytes
Step Temp E_pair E_mol TotEng Press 
       0    1448.9437    168.65098    1111.3264    3668.3987    11.362812 
       2    1448.9437    168.65098    1109.9406    3667.0129    11.362876 
Loop time of 0.410168 on 1 procs for 2 steps with 554 atoms

99.9% CPU use with 1 MPI tasks x no OpenMP threads

Minimization stats:
  Stopping criterion = quadratic factors are zero
  Energy initial, next-to-last, final = 
         1279.97736672      1278.59162241      1278.59162241
  Force two-norm initial, final = 2.45637e+15 1.28598e+15
  Force max component initial, final = 1.54766e+15 1.02185e+15
  Final line search alpha, max atom move = 6.59594e-31 6.74005e-16
  Iterations, force evaluations = 2 148

MPI task timing breakdown:
Section |  min time  |  avg time  |  max time  |%varavg| %total
---------------------------------------------------------------
Pair    | 0.13839    | 0.13839    | 0.13839    |   0.0 | 33.74
Bond    | 0.03773    | 0.03773    | 0.03773    |   0.0 |  9.20
Kspace  | 0.233      | 0.233      | 0.233      |   0.0 | 56.81
Neigh   | 0          | 0          | 0          |   0.0 |  0.00
Comm    | 4.1485e-05 | 4.1485e-05 | 4.1485e-05 |   0.0 |  0.01
Output  | 0          | 0          | 0          |   0.0 |  0.00
Modify  | 0          | 0          | 0          |   0.0 |  0.00
Other   |            | 0.001001   |            |       |  0.24

Nlocal:    554 ave 554 max 554 min
Histogram: 1 0 0 0 0 0 0 0 0 0
Nghost:    0 ave 0 max 0 min
Histogram: 1 0 0 0 0 0 0 0 0 0
Neighs:    30051 ave 30051 max 30051 min
Histogram: 1 0 0 0 0 0 0 0 0 0

Total # of neighbors = 30051
Ave neighs/atom = 54.2437
Ave special neighs/atom = 12.2419
Neighbor list builds = 0
Dangerous builds = 0
write_dump all custom pysimm.dump.tmp id q x y z vx vy vz
quit


################################################################################
##################################    Init    ##################################
################################################################################
units           real
atom_style      full
pair_style      lj/cut/coul/long 12.0  12.0
kspace_style    pppm 1e-4
bond_style      harmonic
angle_style     harmonic
dihedral_style  fourier
improper_style  cvff
special_bonds   amber
pair_modify     mix arithmetic
read_data       temp.lmps
  orthogonal box = (-124.122 -124.122 -124.122) to (124.122 124.122 124.122)
  1 by 1 by 1 MPI processor grid
  reading atoms ...
  611 atoms
  reading velocities ...
  611 velocities
  scanning bonds ...
  3 = max bonds/atom
  scanning angles ...
  6 = max angles/atom
  scanning dihedrals ...
  27 = max dihedrals/atom
  scanning impropers ...
  2 = max impropers/atom
  reading bonds ...
  685 bonds
  reading angles ...
  1254 angles
  reading dihedrals ...
  2062 dihedrals
  reading impropers ...
  88 impropers
  4 = max # of 1-2 neighbors
  11 = max # of 1-3 neighbors
  24 = max # of 1-4 neighbors
  24 = max # of special neighbors
  special bonds CPU = 0.000589848 secs
  read_data CPU = 0.00888014 secs
################################################################################

min_style cg
minimize 1e-06 1e-06 1000000 10000000
WARNING: Using 'neigh_modify every 1 delay 0 check yes' setting during minimization (../min.cpp:190)
PPPM initialization ...
WARNING: System is not charge neutral, net charge = -4.4e-05 (../kspace.cpp:313)
  using 12-bit tables for long-range coulomb (../kspace.cpp:332)
  G vector (1/distance) = 0.104012
  grid = 24 24 24
  stencil order = 5
  estimated absolute RMS force accuracy = 0.0291265
  estimated relative force accuracy = 8.77135e-05
  using double precision KISS FFT
  3d grid and FFT values/proc = 24389 13824
Neighbor list info ...
  update every 1 steps, delay 0 steps, check yes
  max neighbors/atom: 2000, page size: 100000
  master list distance cutoff = 14
  ghost atom cutoff = 14
  binsize = 7, bins = 36 36 36
  1 neighbor lists, perpetual/occasional/extra = 1 0 0
  (1) pair lj/cut/coul/long, perpetual
      attributes: half, newton on
      pair build: half/bin/newton
      stencil: half/bin/3d/newton
      bin: standard
Per MPI rank memory allocation (min/avg/max) = 22.34 | 22.34 | 22.34 Mbytes
Step Temp E_pair E_mol TotEng Press 
       0    1869.7752    174.54883    1757.0038    5331.3538    5.7002993 
      64    1869.7752    169.45216    926.42319    4495.6766    10.273349 
Loop time of 2.25682 on 1 procs for 64 steps with 611 atoms

100.0% CPU use with 1 MPI tasks x no OpenMP threads

Minimization stats:
  Stopping criterion = linesearch alpha is zero
  Energy initial, next-to-last, final = 
         1931.55259011      1095.87534985      1095.87534985
  Force two-norm initial, final = 5.65987e+15 111.302
  Force max component initial, final = 3.54498e+15 29.6756
  Final line search alpha, max atom move = 7.42966e-13 2.20479e-11
  Iterations, force evaluations = 64 491

MPI task timing breakdown:
Section |  min time  |  avg time  |  max time  |%varavg| %total
---------------------------------------------------------------
Pair    | 0.69729    | 0.69729    | 0.69729    |   0.0 | 30.90
Bond    | 0.1381     | 0.1381     | 0.1381     |   0.0 |  6.12
Kspace  | 1.4168     | 1.4168     | 1.4168     |   0.0 | 62.78
Neigh   | 0          | 0          | 0          |   0.0 |  0.00
Comm    | 0.00021744 | 0.00021744 | 0.00021744 |   0.0 |  0.01
Output  | 0          | 0          | 0          |   0.0 |  0.00
Modify  | 0          | 0          | 0          |   0.0 |  0.00
Other   |            | 0.004368   |            |       |  0.19

Nlocal:    611 ave 611 max 611 min
Histogram: 1 0 0 0 0 0 0 0 0 0
Nghost:    0 ave 0 max 0 min
Histogram: 1 0 0 0 0 0 0 0 0 0
Neighs:    45513 ave 45513 max 45513 min
Histogram: 1 0 0 0 0 0 0 0 0 0

Total # of neighbors = 45513
Ave neighs/atom = 74.4894
Ave special neighs/atom = 12.216
Neighbor list builds = 0
Dangerous builds = 0
write_dump all custom pysimm.dump.tmp id q x y z vx vy vz
quit


################################################################################
##################################    Init    ##################################
################################################################################
units           real
atom_style      full
pair_style      lj/cut/coul/long 12.0  12.0
kspace_style    pppm 1e-4
bond_style      harmonic
angle_style     harmonic
dihedral_style  fourier
improper_style  cvff
special_bonds   amber
pair_modify     mix arithmetic
read_data       temp.lmps
  orthogonal box = (-128.129 -128.129 -128.129) to (128.129 128.129 128.129)
  1 by 1 by 1 MPI processor grid
  reading atoms ...
  668 atoms
  reading velocities ...
  668 velocities
  scanning bonds ...
  3 = max bonds/atom
  scanning angles ...
  6 = max angles/atom
  scanning dihedrals ...
  27 = max dihedrals/atom
  scanning impropers ...
  2 = max impropers/atom
  reading bonds ...
  748 bonds
  reading angles ...
  1368 angles
  reading dihedrals ...
  2248 dihedrals
  reading impropers ...
  96 impropers
  4 = max # of 1-2 neighbors
  11 = max # of 1-3 neighbors
  24 = max # of 1-4 neighbors
  24 = max # of special neighbors
  special bonds CPU = 0.000598907 secs
  read_data CPU = 0.00901198 secs
################################################################################

min_style cg
minimize 1e-06 1e-06 1000000 10000000
WARNING: Using 'neigh_modify every 1 delay 0 check yes' setting during minimization (../min.cpp:190)
PPPM initialization ...
WARNING: System is not charge neutral, net charge = -4.8e-05 (../kspace.cpp:313)
  using 12-bit tables for long-range coulomb (../kspace.cpp:332)
  G vector (1/distance) = 0.10171
  grid = 24 24 24
  stencil order = 5
  estimated absolute RMS force accuracy = 0.0310187
  estimated relative force accuracy = 9.34119e-05
  using double precision KISS FFT
  3d grid and FFT values/proc = 24389 13824
Neighbor list info ...
  update every 1 steps, delay 0 steps, check yes
  max neighbors/atom: 2000, page size: 100000
  master list distance cutoff = 14
  ghost atom cutoff = 14
  binsize = 7, bins = 37 37 37
  1 neighbor lists, perpetual/occasional/extra = 1 0 0
  (1) pair lj/cut/coul/long, perpetual
      attributes: half, newton on
      pair build: half/bin/newton
      stencil: half/bin/3d/newton
      bin: standard
Per MPI rank memory allocation (min/avg/max) = 22.36 | 22.36 | 22.36 Mbytes
Step Temp E_pair E_mol TotEng Press 
       0    1553.1374    184.97103    2021.4602    5294.3794    2.1227218 
      44    1553.1374    169.92356    885.72401    4143.5958    7.7298016 
Loop time of 2.04977 on 1 procs for 44 steps with 668 atoms

100.0% CPU use with 1 MPI tasks x no OpenMP threads

Minimization stats:
  Stopping criterion = linesearch alpha is zero
  Energy initial, next-to-last, final = 
           2206.431205      1055.64756571      1055.64756571
  Force two-norm initial, final = 3.16198e+15 172.716
  Force max component initial, final = 1.41465e+15 41.7365
  Final line search alpha, max atom move = 2.7893e-13 1.16415e-11
  Iterations, force evaluations = 44 356

MPI task timing breakdown:
Section |  min time  |  avg time  |  max time  |%varavg| %total
---------------------------------------------------------------
Pair    | 0.64551    | 0.64551    | 0.64551    |   0.0 | 31.49
Bond    | 0.12977    | 0.12977    | 0.12977    |   0.0 |  6.33
Kspace  | 1.2689     | 1.2689     | 1.2689     |   0.0 | 61.91
Neigh   | 0.001447   | 0.001447   | 0.001447   |   0.0 |  0.07
Comm    | 0.00016737 | 0.00016737 | 0.00016737 |   0.0 |  0.01
Output  | 0          | 0          | 0          |   0.0 |  0.00
Modify  | 0          | 0          | 0          |   0.0 |  0.00
Other   |            | 0.003933   |            |       |  0.19

Nlocal:    668 ave 668 max 668 min
Histogram: 1 0 0 0 0 0 0 0 0 0
Nghost:    0 ave 0 max 0 min
Histogram: 1 0 0 0 0 0 0 0 0 0
Neighs:    50511 ave 50511 max 50511 min
Histogram: 1 0 0 0 0 0 0 0 0 0

Total # of neighbors = 50511
Ave neighs/atom = 75.6153
Ave special neighs/atom = 12.1946
Neighbor list builds = 1
Dangerous builds = 0
write_dump all custom pysimm.dump.tmp id q x y z vx vy vz
quit


################################################################################
##################################    Init    ##################################
################################################################################
units           real
atom_style      full
pair_style      lj/cut/coul/long 12.0  12.0
kspace_style    pppm 1e-4
bond_style      harmonic
angle_style     harmonic
dihedral_style  fourier
improper_style  cvff
special_bonds   amber
pair_modify     mix arithmetic
read_data       temp.lmps
  orthogonal box = (-131.899 -131.899 -131.899) to (131.899 131.899 131.899)
  1 by 1 by 1 MPI processor grid
  reading atoms ...
  725 atoms
  reading velocities ...
  725 velocities
  scanning bonds ...
  3 = max bonds/atom
  scanning angles ...
  6 = max angles/atom
  scanning dihedrals ...
  27 = max dihedrals/atom
  scanning impropers ...
  2 = max impropers/atom
  reading bonds ...
  811 bonds
  reading angles ...
  1482 angles
  reading dihedrals ...
  2434 dihedrals
  reading impropers ...
  104 impropers
  4 = max # of 1-2 neighbors
  11 = max # of 1-3 neighbors
  24 = max # of 1-4 neighbors
  24 = max # of special neighbors
  special bonds CPU = 0.00058794 secs
  read_data CPU = 0.00920296 secs
################################################################################

min_style cg
minimize 1e-06 1e-06 1000000 10000000
WARNING: Using 'neigh_modify every 1 delay 0 check yes' setting during minimization (../min.cpp:190)
PPPM initialization ...
WARNING: System is not charge neutral, net charge = -5.2e-05 (../kspace.cpp:313)
  using 12-bit tables for long-range coulomb (../kspace.cpp:332)
  G vector (1/distance) = 0.0996308
  grid = 24 24 24
  stencil order = 5
  estimated absolute RMS force accuracy = 0.0328015
  estimated relative force accuracy = 9.87808e-05
  using double precision KISS FFT
  3d grid and FFT values/proc = 24389 13824
Neighbor list info ...
  update every 1 steps, delay 0 steps, check yes
  max neighbors/atom: 2000, page size: 100000
  master list distance cutoff = 14
  ghost atom cutoff = 14
  binsize = 7, bins = 38 38 38
  1 neighbor lists, perpetual/occasional/extra = 1 0 0
  (1) pair lj/cut/coul/long, perpetual
      attributes: half, newton on
      pair build: half/bin/newton
      stencil: half/bin/3d/newton
      bin: standard
Per MPI rank memory allocation (min/avg/max) = 22.39 | 22.39 | 22.39 Mbytes
Step Temp E_pair E_mol TotEng Press 
       0    1817.0481    273.75903    2398.3334    6593.4756    4.8586672 
     176    1817.0481    183.69425    963.44461     5068.522    9.9327663 
Loop time of 8.9181 on 1 procs for 176 steps with 725 atoms

100.0% CPU use with 1 MPI tasks x no OpenMP threads

Minimization stats:
  Stopping criterion = energy tolerance
  Energy initial, next-to-last, final = 
         2672.09245343      1147.13910884       1147.1388605
  Force two-norm initial, final = 3.8969e+15 353.324
  Force max component initial, final = 2.12631e+15 115.082
  Final line search alpha, max atom move = 3.38291e-06 0.000389312
  Iterations, force evaluations = 176 1706

MPI task timing breakdown:
Section |  min time  |  avg time  |  max time  |%varavg| %total
---------------------------------------------------------------
Pair    | 3.0205     | 3.0205     | 3.0205     |   0.0 | 33.87
Bond    | 0.59256    | 0.59256    | 0.59256    |   0.0 |  6.64
Kspace  | 5.2851     | 5.2851     | 5.2851     |   0.0 | 59.26
Neigh   | 0.0015972  | 0.0015972  | 0.0015972  |   0.0 |  0.02
Comm    | 0.00071502 | 0.00071502 | 0.00071502 |   0.0 |  0.01
Output  | 0          | 0          | 0          |   0.0 |  0.00
Modify  | 0          | 0          | 0          |   0.0 |  0.00
Other   |            | 0.01759    |            |       |  0.20

Nlocal:    725 ave 725 max 725 min
Histogram: 1 0 0 0 0 0 0 0 0 0
Nghost:    0 ave 0 max 0 min
Histogram: 1 0 0 0 0 0 0 0 0 0
Neighs:    54690 ave 54690 max 54690 min
Histogram: 1 0 0 0 0 0 0 0 0 0

Total # of neighbors = 54690
Ave neighs/atom = 75.4345
Ave special neighs/atom = 12.1766
Neighbor list builds = 1
Dangerous builds = 0
write_dump all custom pysimm.dump.tmp id q x y z vx vy vz
quit


################################################################################
##################################    Init    ##################################
################################################################################
units           real
atom_style      full
pair_style      lj/cut/coul/long 12.0  12.0
kspace_style    pppm 1e-4
bond_style      harmonic
angle_style     harmonic
dihedral_style  fourier
improper_style  cvff
special_bonds   amber
pair_modify     mix arithmetic
read_data       temp.lmps
  orthogonal box = (-135.466 -135.466 -135.466) to (135.466 135.466 135.466)
  1 by 1 by 1 MPI processor grid
  reading atoms ...
  782 atoms
  reading velocities ...
  782 velocities
  scanning bonds ...
  3 = max bonds/atom
  scanning angles ...
  6 = max angles/atom
  scanning dihedrals ...
  27 = max dihedrals/atom
  scanning impropers ...
  2 = max impropers/atom
  reading bonds ...
  874 bonds
  reading angles ...
  1596 angles
  reading dihedrals ...
  2620 dihedrals
  reading impropers ...
  112 impropers
  4 = max # of 1-2 neighbors
  11 = max # of 1-3 neighbors
  24 = max # of 1-4 neighbors
  24 = max # of special neighbors
  special bonds CPU = 0.00067997 secs
  read_data CPU = 0.00952506 secs
################################################################################

min_style cg
minimize 1e-06 1e-06 1000000 10000000
WARNING: Using 'neigh_modify every 1 delay 0 check yes' setting during minimization (../min.cpp:190)
PPPM initialization ...
WARNING: System is not charge neutral, net charge = -5.6e-05 (../kspace.cpp:313)
  using 12-bit tables for long-range coulomb (../kspace.cpp:332)
  G vector (1/distance) = 0.0977369
  grid = 24 24 24
  stencil order = 5
  estimated absolute RMS force accuracy = 0.0344858
  estimated relative force accuracy = 0.000103853
  using double precision KISS FFT
  3d grid and FFT values/proc = 24389 13824
Neighbor list info ...
  update every 1 steps, delay 0 steps, check yes
  max neighbors/atom: 2000, page size: 100000
  master list distance cutoff = 14
  ghost atom cutoff = 14
  binsize = 7, bins = 39 39 39
  1 neighbor lists, perpetual/occasional/extra = 1 0 0
  (1) pair lj/cut/coul/long, perpetual
      attributes: half, newton on
      pair build: half/bin/newton
      stencil: half/bin/3d/newton
      bin: standard
Per MPI rank memory allocation (min/avg/max) = 22.42 | 22.42 | 22.42 Mbytes
Step Temp E_pair E_mol TotEng Press 
       0    1597.8738    250.60611     2867.361    6837.8375  -0.29091087 
      14    1597.8738    250.60628    2856.9227    6827.3993  -0.29050691 
Loop time of 2.26473 on 1 procs for 14 steps with 782 atoms

100.0% CPU use with 1 MPI tasks x no OpenMP threads

Minimization stats:
  Stopping criterion = energy tolerance
  Energy initial, next-to-last, final = 
         3117.96713753      3107.53183354      3107.52896091
  Force two-norm initial, final = 5.16895e+15 14217.6
  Force max component initial, final = 1.91764e+15 6568.34
  Final line search alpha, max atom move = 9.74983e-11 6.40402e-07
  Iterations, force evaluations = 14 383

MPI task timing breakdown:
Section |  min time  |  avg time  |  max time  |%varavg| %total
---------------------------------------------------------------
Pair    | 0.75242    | 0.75242    | 0.75242    |   0.0 | 33.22
Bond    | 0.1596     | 0.1596     | 0.1596     |   0.0 |  7.05
Kspace  | 1.3483     | 1.3483     | 1.3483     |   0.0 | 59.53
Neigh   | 0          | 0          | 0          |   0.0 |  0.00
Comm    | 0.00016236 | 0.00016236 | 0.00016236 |   0.0 |  0.01
Output  | 0          | 0          | 0          |   0.0 |  0.00
Modify  | 0          | 0          | 0          |   0.0 |  0.00
Other   |            | 0.004244   |            |       |  0.19

Nlocal:    782 ave 782 max 782 min
Histogram: 1 0 0 0 0 0 0 0 0 0
Nghost:    0 ave 0 max 0 min
Histogram: 1 0 0 0 0 0 0 0 0 0
Neighs:    55709 ave 55709 max 55709 min
Histogram: 1 0 0 0 0 0 0 0 0 0

Total # of neighbors = 55709
Ave neighs/atom = 71.2391
Ave special neighs/atom = 12.1611
Neighbor list builds = 0
Dangerous builds = 0
write_dump all custom pysimm.dump.tmp id q x y z vx vy vz
quit


################################################################################
##################################    Init    ##################################
################################################################################
units           real
atom_style      full
pair_style      lj/cut/coul/long 12.0  12.0
kspace_style    pppm 1e-4
bond_style      harmonic
angle_style     harmonic
dihedral_style  fourier
improper_style  cvff
special_bonds   amber
pair_modify     mix arithmetic
read_data       temp.lmps
  orthogonal box = (-98.5156 -98.5156 -98.5156) to (98.5156 98.5156 98.5156)
  1 by 1 by 1 MPI processor grid
  reading atoms ...
  554 atoms
  reading velocities ...
  554 velocities
  scanning bonds ...
  3 = max bonds/atom
  scanning angles ...
  6 = max angles/atom
  scanning dihedrals ...
  27 = max dihedrals/atom
  scanning impropers ...
  2 = max impropers/atom
  reading bonds ...
  622 bonds
  reading angles ...
  1140 angles
  reading dihedrals ...
  1876 dihedrals
  reading impropers ...
  80 impropers
  4 = max # of 1-2 neighbors
  11 = max # of 1-3 neighbors
  24 = max # of 1-4 neighbors
  24 = max # of special neighbors
  special bonds CPU = 0.000561953 secs
  read_data CPU = 0.00812697 secs
################################################################################

min_style cg
minimize 1e-06 1e-06 1000000 10000000
WARNING: Using 'neigh_modify every 1 delay 0 check yes' setting during minimization (../min.cpp:190)
PPPM initialization ...
WARNING: System is not charge neutral, net charge = -4e-05 (../kspace.cpp:313)
  using 12-bit tables for long-range coulomb (../kspace.cpp:332)
  G vector (1/distance) = 0.107588
  grid = 20 20 20
  stencil order = 5
  estimated absolute RMS force accuracy = 0.0352659
  estimated relative force accuracy = 0.000106202
  using double precision KISS FFT
  3d grid and FFT values/proc = 15625 8000
Neighbor list info ...
  update every 1 steps, delay 0 steps, check yes
  max neighbors/atom: 2000, page size: 100000
  master list distance cutoff = 14
  ghost atom cutoff = 14
  binsize = 7, bins = 29 29 29
  1 neighbor lists, perpetual/occasional/extra = 1 0 0
  (1) pair lj/cut/coul/long, perpetual
      attributes: half, newton on
      pair build: half/bin/newton
      stencil: half/bin/3d/newton
      bin: standard
Per MPI rank memory allocation (min/avg/max) = 21.39 | 21.39 | 21.39 Mbytes
Step Temp E_pair E_mol TotEng Press 
       0    1525.2965    149.80423    1200.8252    3864.9098    8.2931652 
       7    1525.2965    149.80423    1195.0154    3859.0999    8.2931418 
Loop time of 0.730541 on 1 procs for 7 steps with 554 atoms

99.9% CPU use with 1 MPI tasks x no OpenMP threads

Minimization stats:
  Stopping criterion = energy tolerance
  Energy initial, next-to-last, final = 
         1350.62946673      1344.81999095      1344.81959608
  Force two-norm initial, final = 2.74182e+15 205267
  Force max component initial, final = 1.69573e+15 121881
  Final line search alpha, max atom move = 2.11508e-14 2.57788e-09
  Iterations, force evaluations = 7 238

MPI task timing breakdown:
Section |  min time  |  avg time  |  max time  |%varavg| %total
---------------------------------------------------------------
Pair    | 0.27536    | 0.27536    | 0.27536    |   0.0 | 37.69
Bond    | 0.063227   | 0.063227   | 0.063227   |   0.0 |  8.65
Kspace  | 0.39007    | 0.39007    | 0.39007    |   0.0 | 53.39
Neigh   | 0          | 0          | 0          |   0.0 |  0.00
Comm    | 0.00011182 | 0.00011182 | 0.00011182 |   0.0 |  0.02
Output  | 0          | 0          | 0          |   0.0 |  0.00
Modify  | 0          | 0          | 0          |   0.0 |  0.00
Other   |            | 0.001777   |            |       |  0.24

Nlocal:    554 ave 554 max 554 min
Histogram: 1 0 0 0 0 0 0 0 0 0
Nghost:    0 ave 0 max 0 min
Histogram: 1 0 0 0 0 0 0 0 0 0
Neighs:    36215 ave 36215 max 36215 min
Histogram: 1 0 0 0 0 0 0 0 0 0

Total # of neighbors = 36215
Ave neighs/atom = 65.37
Ave special neighs/atom = 12.2419
Neighbor list builds = 0
Dangerous builds = 0
write_dump all custom pysimm.dump.tmp id q x y z vx vy vz
quit


################################################################################
##################################    Init    ##################################
################################################################################
units           real
atom_style      full
pair_style      lj/cut/coul/long 12.0  12.0
kspace_style    pppm 1e-4
bond_style      harmonic
angle_style     harmonic
dihedral_style  fourier
improper_style  cvff
special_bonds   amber
pair_modify     mix arithmetic
read_data       temp.lmps
  orthogonal box = (-124.122 -124.122 -124.122) to (124.122 124.122 124.122)
  1 by 1 by 1 MPI processor grid
  reading atoms ...
  611 atoms
  reading velocities ...
  611 velocities
  scanning bonds ...
  3 = max bonds/atom
  scanning angles ...
  6 = max angles/atom
  scanning dihedrals ...
  27 = max dihedrals/atom
  scanning impropers ...
  2 = max impropers/atom
  reading bonds ...
  685 bonds
  reading angles ...
  1254 angles
  reading dihedrals ...
  2062 dihedrals
  reading impropers ...
  88 impropers
  4 = max # of 1-2 neighbors
  11 = max # of 1-3 neighbors
  24 = max # of 1-4 neighbors
  24 = max # of special neighbors
  special bonds CPU = 0.000625849 secs
  read_data CPU = 0.00863099 secs
################################################################################

min_style cg
minimize 1e-06 1e-06 1000000 10000000
WARNING: Using 'neigh_modify every 1 delay 0 check yes' setting during minimization (../min.cpp:190)
PPPM initialization ...
WARNING: System is not charge neutral, net charge = -4.4e-05 (../kspace.cpp:313)
  using 12-bit tables for long-range coulomb (../kspace.cpp:332)
  G vector (1/distance) = 0.104012
  grid = 24 24 24
  stencil order = 5
  estimated absolute RMS force accuracy = 0.0291265
  estimated relative force accuracy = 8.77135e-05
  using double precision KISS FFT
  3d grid and FFT values/proc = 24389 13824
Neighbor list info ...
  update every 1 steps, delay 0 steps, check yes
  max neighbors/atom: 2000, page size: 100000
  master list distance cutoff = 14
  ghost atom cutoff = 14
  binsize = 7, bins = 36 36 36
  1 neighbor lists, perpetual/occasional/extra = 1 0 0
  (1) pair lj/cut/coul/long, perpetual
      attributes: half, newton on
      pair build: half/bin/newton
      stencil: half/bin/3d/newton
      bin: standard
Per MPI rank memory allocation (min/avg/max) = 22.34 | 22.34 | 22.34 Mbytes
Step Temp E_pair E_mol TotEng Press 
       0    1774.5534     185.9143    1958.8357    5371.4101    4.8789764 
       7    1774.5534     185.9143    1954.3256       5366.9    4.8786129 
Loop time of 2.87001 on 1 procs for 7 steps with 611 atoms

100.0% CPU use with 1 MPI tasks x no OpenMP threads

Minimization stats:
  Stopping criterion = energy tolerance
  Energy initial, next-to-last, final = 
          2144.7499785      2140.23987511      2140.23987511
  Force two-norm initial, final = 9.3599e+15 5.4909e+14
  Force max component initial, final = 6.86389e+15 3.48877e+14
  Final line search alpha, max atom move = 5.09164e-31 1.77636e-16
  Iterations, force evaluations = 7 588

MPI task timing breakdown:
Section |  min time  |  avg time  |  max time  |%varavg| %total
---------------------------------------------------------------
Pair    | 0.89533    | 0.89533    | 0.89533    |   0.0 | 31.20
Bond    | 0.17314    | 0.17314    | 0.17314    |   0.0 |  6.03
Kspace  | 1.7967     | 1.7967     | 1.7967     |   0.0 | 62.60
Neigh   | 0          | 0          | 0          |   0.0 |  0.00
Comm    | 0.00028586 | 0.00028586 | 0.00028586 |   0.0 |  0.01
Output  | 0          | 0          | 0          |   0.0 |  0.00
Modify  | 0          | 0          | 0          |   0.0 |  0.00
Other   |            | 0.004578   |            |       |  0.16

Nlocal:    611 ave 611 max 611 min
Histogram: 1 0 0 0 0 0 0 0 0 0
Nghost:    0 ave 0 max 0 min
Histogram: 1 0 0 0 0 0 0 0 0 0
Neighs:    48270 ave 48270 max 48270 min
Histogram: 1 0 0 0 0 0 0 0 0 0

Total # of neighbors = 48270
Ave neighs/atom = 79.0016
Ave special neighs/atom = 12.216
Neighbor list builds = 0
Dangerous builds = 0
write_dump all custom pysimm.dump.tmp id q x y z vx vy vz
quit


################################################################################
##################################    Init    ##################################
################################################################################
units           real
atom_style      full
pair_style      lj/cut/coul/long 12.0  12.0
kspace_style    pppm 1e-4
bond_style      harmonic
angle_style     harmonic
dihedral_style  fourier
improper_style  cvff
special_bonds   amber
pair_modify     mix arithmetic
read_data       temp.lmps
  orthogonal box = (-128.129 -128.129 -128.129) to (128.129 128.129 128.129)
  1 by 1 by 1 MPI processor grid
  reading atoms ...
  668 atoms
  reading velocities ...
  668 velocities
  scanning bonds ...
  3 = max bonds/atom
  scanning angles ...
  6 = max angles/atom
  scanning dihedrals ...
  27 = max dihedrals/atom
  scanning impropers ...
  2 = max impropers/atom
  reading bonds ...
  748 bonds
  reading angles ...
  1368 angles
  reading dihedrals ...
  2248 dihedrals
  reading impropers ...
  96 impropers
  4 = max # of 1-2 neighbors
  11 = max # of 1-3 neighbors
  24 = max # of 1-4 neighbors
  24 = max # of special neighbors
  special bonds CPU = 0.000642061 secs
  read_data CPU = 0.00941396 secs
################################################################################

min_style cg
minimize 1e-06 1e-06 1000000 10000000
WARNING: Using 'neigh_modify every 1 delay 0 check yes' setting during minimization (../min.cpp:190)
PPPM initialization ...
WARNING: System is not charge neutral, net charge = -4.8e-05 (../kspace.cpp:313)
  using 12-bit tables for long-range coulomb (../kspace.cpp:332)
  G vector (1/distance) = 0.10171
  grid = 24 24 24
  stencil order = 5
  estimated absolute RMS force accuracy = 0.0310187
  estimated relative force accuracy = 9.34119e-05
  using double precision KISS FFT
  3d grid and FFT values/proc = 24389 13824
Neighbor list info ...
  update every 1 steps, delay 0 steps, check yes
  max neighbors/atom: 2000, page size: 100000
  master list distance cutoff = 14
  ghost atom cutoff = 14
  binsize = 7, bins = 37 37 37
  1 neighbor lists, perpetual/occasional/extra = 1 0 0
  (1) pair lj/cut/coul/long, perpetual
      attributes: half, newton on
      pair build: half/bin/newton
      stencil: half/bin/3d/newton
      bin: standard
Per MPI rank memory allocation (min/avg/max) = 22.36 | 22.36 | 22.36 Mbytes
Step Temp E_pair E_mol TotEng Press 
       0     1579.098    211.35177    2066.1883    5417.1032   0.99174239 
      79     1579.098     192.6495    911.66697    4243.8795     6.964027 
Loop time of 4.04352 on 1 procs for 79 steps with 668 atoms

100.0% CPU use with 1 MPI tasks x no OpenMP threads

Minimization stats:
  Stopping criterion = linesearch alpha is zero
  Energy initial, next-to-last, final = 
         2277.54007194      1104.31646774      1104.31646774
  Force two-norm initial, final = 2.7972e+15 858.677
  Force max component initial, final = 1.32747e+15 465.725
  Final line search alpha, max atom move = 2.26042e-14 1.05273e-11
  Iterations, force evaluations = 79 818

MPI task timing breakdown:
Section |  min time  |  avg time  |  max time  |%varavg| %total
---------------------------------------------------------------
Pair    | 1.1912     | 1.1912     | 1.1912     |   0.0 | 29.46
Bond    | 0.26192    | 0.26192    | 0.26192    |   0.0 |  6.48
Kspace  | 2.5807     | 2.5807     | 2.5807     |   0.0 | 63.82
Neigh   | 0.0014079  | 0.0014079  | 0.0014079  |   0.0 |  0.03
Comm    | 0.00034237 | 0.00034237 | 0.00034237 |   0.0 |  0.01
Output  | 0          | 0          | 0          |   0.0 |  0.00
Modify  | 0          | 0          | 0          |   0.0 |  0.00
Other   |            | 0.007914   |            |       |  0.20

Nlocal:    668 ave 668 max 668 min
Histogram: 1 0 0 0 0 0 0 0 0 0
Nghost:    0 ave 0 max 0 min
Histogram: 1 0 0 0 0 0 0 0 0 0
Neighs:    45432 ave 45432 max 45432 min
Histogram: 1 0 0 0 0 0 0 0 0 0

Total # of neighbors = 45432
Ave neighs/atom = 68.012
Ave special neighs/atom = 12.1946
Neighbor list builds = 1
Dangerous builds = 0
write_dump all custom pysimm.dump.tmp id q x y z vx vy vz
quit


################################################################################
##################################    Init    ##################################
################################################################################
units           real
atom_style      full
pair_style      lj/cut/coul/long 12.0  12.0
kspace_style    pppm 1e-4
bond_style      harmonic
angle_style     harmonic
dihedral_style  fourier
improper_style  cvff
special_bonds   amber
pair_modify     mix arithmetic
read_data       temp.lmps
  orthogonal box = (-131.899 -131.899 -131.899) to (131.899 131.899 131.899)
  1 by 1 by 1 MPI processor grid
  reading atoms ...
  725 atoms
  reading velocities ...
  725 velocities
  scanning bonds ...
  3 = max bonds/atom
  scanning angles ...
  6 = max angles/atom
  scanning dihedrals ...
  27 = max dihedrals/atom
  scanning impropers ...
  2 = max impropers/atom
  reading bonds ...
  811 bonds
  reading angles ...
  1482 angles
  reading dihedrals ...
  2434 dihedrals
  reading impropers ...
  104 impropers
  4 = max # of 1-2 neighbors
  11 = max # of 1-3 neighbors
  24 = max # of 1-4 neighbors
  24 = max # of special neighbors
  special bonds CPU = 0.000650883 secs
  read_data CPU = 0.00938487 secs
################################################################################

min_style cg
minimize 1e-06 1e-06 1000000 10000000
WARNING: Using 'neigh_modify every 1 delay 0 check yes' setting during minimization (../min.cpp:190)
PPPM initialization ...
WARNING: System is not charge neutral, net charge = -5.2e-05 (../kspace.cpp:313)
  using 12-bit tables for long-range coulomb (../kspace.cpp:332)
  G vector (1/distance) = 0.0996308
  grid = 24 24 24
  stencil order = 5
  estimated absolute RMS force accuracy = 0.0328015
  estimated relative force accuracy = 9.87808e-05
  using double precision KISS FFT
  3d grid and FFT values/proc = 24389 13824
Neighbor list info ...
  update every 1 steps, delay 0 steps, check yes
  max neighbors/atom: 2000, page size: 100000
  master list distance cutoff = 14
  ghost atom cutoff = 14
  binsize = 7, bins = 38 38 38
  1 neighbor lists, perpetual/occasional/extra = 1 0 0
  (1) pair lj/cut/coul/long, perpetual
      attributes: half, newton on
      pair build: half/bin/newton
      stencil: half/bin/3d/newton
      bin: standard
Per MPI rank memory allocation (min/avg/max) = 22.39 | 22.39 | 22.39 Mbytes
Step Temp E_pair E_mol TotEng Press 
       0    1668.3305    211.00606    2516.8948    6328.3358    3.3524788 
       3    1668.3305    211.00606    2515.2048    6326.6458    3.3524058 
Loop time of 1.19695 on 1 procs for 3 steps with 725 atoms

100.0% CPU use with 1 MPI tasks x no OpenMP threads

Minimization stats:
  Stopping criterion = quadratic factors are zero
  Energy initial, next-to-last, final = 
         2727.90088219      2726.21089709      2726.21089709
  Force two-norm initial, final = 6.05765e+15 3.11409e+15
  Force max component initial, final = 2.89698e+15 1.65885e+15
  Final line search alpha, max atom move = 2.14167e-31 3.55271e-16
  Iterations, force evaluations = 3 233

MPI task timing breakdown:
Section |  min time  |  avg time  |  max time  |%varavg| %total
---------------------------------------------------------------
Pair    | 0.3949     | 0.3949     | 0.3949     |   0.0 | 32.99
Bond    | 0.080586   | 0.080586   | 0.080586   |   0.0 |  6.73
Kspace  | 0.71924    | 0.71924    | 0.71924    |   0.0 | 60.09
Neigh   | 0          | 0          | 0          |   0.0 |  0.00
Comm    | 9.8228e-05 | 9.8228e-05 | 9.8228e-05 |   0.0 |  0.01
Output  | 0          | 0          | 0          |   0.0 |  0.00
Modify  | 0          | 0          | 0          |   0.0 |  0.00
Other   |            | 0.002124   |            |       |  0.18

Nlocal:    725 ave 725 max 725 min
Histogram: 1 0 0 0 0 0 0 0 0 0
Nghost:    0 ave 0 max 0 min
Histogram: 1 0 0 0 0 0 0 0 0 0
Neighs:    53538 ave 53538 max 53538 min
Histogram: 1 0 0 0 0 0 0 0 0 0

Total # of neighbors = 53538
Ave neighs/atom = 73.8455
Ave special neighs/atom = 12.1766
Neighbor list builds = 0
Dangerous builds = 0
write_dump all custom pysimm.dump.tmp id q x y z vx vy vz
quit


################################################################################
##################################    Init    ##################################
################################################################################
units           real
atom_style      full
pair_style      lj/cut/coul/long 12.0  12.0
kspace_style    pppm 1e-4
bond_style      harmonic
angle_style     harmonic
dihedral_style  fourier
improper_style  cvff
special_bonds   amber
pair_modify     mix arithmetic
read_data       temp.lmps
  orthogonal box = (-98.5156 -98.5156 -98.5156) to (98.5156 98.5156 98.5156)
  1 by 1 by 1 MPI processor grid
  reading atoms ...
  554 atoms
  reading velocities ...
  554 velocities
  scanning bonds ...
  3 = max bonds/atom
  scanning angles ...
  6 = max angles/atom
  scanning dihedrals ...
  27 = max dihedrals/atom
  scanning impropers ...
  2 = max impropers/atom
  reading bonds ...
  622 bonds
  reading angles ...
  1140 angles
  reading dihedrals ...
  1876 dihedrals
  reading impropers ...
  80 impropers
  4 = max # of 1-2 neighbors
  11 = max # of 1-3 neighbors
  24 = max # of 1-4 neighbors
  24 = max # of special neighbors
  special bonds CPU = 0.000566006 secs
  read_data CPU = 0.00838995 secs
################################################################################

min_style cg
minimize 1e-06 1e-06 1000000 10000000
WARNING: Using 'neigh_modify every 1 delay 0 check yes' setting during minimization (../min.cpp:190)
PPPM initialization ...
WARNING: System is not charge neutral, net charge = -4e-05 (../kspace.cpp:313)
  using 12-bit tables for long-range coulomb (../kspace.cpp:332)
  G vector (1/distance) = 0.107588
  grid = 20 20 20
  stencil order = 5
  estimated absolute RMS force accuracy = 0.0352659
  estimated relative force accuracy = 0.000106202
  using double precision KISS FFT
  3d grid and FFT values/proc = 15625 8000
Neighbor list info ...
  update every 1 steps, delay 0 steps, check yes
  max neighbors/atom: 2000, page size: 100000
  master list distance cutoff = 14
  ghost atom cutoff = 14
  binsize = 7, bins = 29 29 29
  1 neighbor lists, perpetual/occasional/extra = 1 0 0
  (1) pair lj/cut/coul/long, perpetual
      attributes: half, newton on
      pair build: half/bin/newton
      stencil: half/bin/3d/newton
      bin: standard
Per MPI rank memory allocation (min/avg/max) = 21.39 | 21.39 | 21.39 Mbytes
Step Temp E_pair E_mol TotEng Press 
       0    1610.6355    159.42247    1155.3603     3969.735    12.884459 
       4    1610.6355    159.40146    1145.9812    3960.3349    12.857536 
Loop time of 0.710984 on 1 procs for 4 steps with 554 atoms

99.8% CPU use with 1 MPI tasks x no OpenMP threads

Minimization stats:
  Stopping criterion = energy tolerance
  Energy initial, next-to-last, final = 
         1314.78275543      1305.38268492      1305.38268492
  Force two-norm initial, final = 8.08085e+14 6.46675e+13
  Force max component initial, final = 6.24676e+14 4.65479e+13
  Final line search alpha, max atom move = 1.52648e-29 7.10543e-16
  Iterations, force evaluations = 4 226

MPI task timing breakdown:
Section |  min time  |  avg time  |  max time  |%varavg| %total
---------------------------------------------------------------
Pair    | 0.27322    | 0.27322    | 0.27322    |   0.0 | 38.43
Bond    | 0.060391   | 0.060391   | 0.060391   |   0.0 |  8.49
Kspace  | 0.37563    | 0.37563    | 0.37563    |   0.0 | 52.83
Neigh   | 0          | 0          | 0          |   0.0 |  0.00
Comm    | 8.3208e-05 | 8.3208e-05 | 8.3208e-05 |   0.0 |  0.01
Output  | 0          | 0          | 0          |   0.0 |  0.00
Modify  | 0          | 0          | 0          |   0.0 |  0.00
Other   |            | 0.001657   |            |       |  0.23

Nlocal:    554 ave 554 max 554 min
Histogram: 1 0 0 0 0 0 0 0 0 0
Nghost:    0 ave 0 max 0 min
Histogram: 1 0 0 0 0 0 0 0 0 0
Neighs:    38732 ave 38732 max 38732 min
Histogram: 1 0 0 0 0 0 0 0 0 0

Total # of neighbors = 38732
Ave neighs/atom = 69.9134
Ave special neighs/atom = 12.2419
Neighbor list builds = 0
Dangerous builds = 0
write_dump all custom pysimm.dump.tmp id q x y z vx vy vz
quit


################################################################################
##################################    Init    ##################################
################################################################################
units           real
atom_style      full
pair_style      lj/cut/coul/long 12.0  12.0
kspace_style    pppm 1e-4
bond_style      harmonic
angle_style     harmonic
dihedral_style  fourier
improper_style  cvff
special_bonds   amber
pair_modify     mix arithmetic
read_data       temp.lmps
  orthogonal box = (-124.122 -124.122 -124.122) to (124.122 124.122 124.122)
  1 by 1 by 1 MPI processor grid
  reading atoms ...
  611 atoms
  reading velocities ...
  611 velocities
  scanning bonds ...
  3 = max bonds/atom
  scanning angles ...
  6 = max angles/atom
  scanning dihedrals ...
  27 = max dihedrals/atom
  scanning impropers ...
  2 = max impropers/atom
  reading bonds ...
  685 bonds
  reading angles ...
  1254 angles
  reading dihedrals ...
  2062 dihedrals
  reading impropers ...
  88 impropers
  4 = max # of 1-2 neighbors
  11 = max # of 1-3 neighbors
  24 = max # of 1-4 neighbors
  24 = max # of special neighbors
  special bonds CPU = 0.000549078 secs
  read_data CPU = 0.00843596 secs
################################################################################

min_style cg
minimize 1e-06 1e-06 1000000 10000000
WARNING: Using 'neigh_modify every 1 delay 0 check yes' setting during minimization (../min.cpp:190)
PPPM initialization ...
WARNING: System is not charge neutral, net charge = -4.4e-05 (../kspace.cpp:313)
  using 12-bit tables for long-range coulomb (../kspace.cpp:332)
  G vector (1/distance) = 0.104012
  grid = 24 24 24
  stencil order = 5
  estimated absolute RMS force accuracy = 0.0291265
  estimated relative force accuracy = 8.77135e-05
  using double precision KISS FFT
  3d grid and FFT values/proc = 24389 13824
Neighbor list info ...
  update every 1 steps, delay 0 steps, check yes
  max neighbors/atom: 2000, page size: 100000
  master list distance cutoff = 14
  ghost atom cutoff = 14
  binsize = 7, bins = 36 36 36
  1 neighbor lists, perpetual/occasional/extra = 1 0 0
  (1) pair lj/cut/coul/long, perpetual
      attributes: half, newton on
      pair build: half/bin/newton
      stencil: half/bin/3d/newton
      bin: standard
Per MPI rank memory allocation (min/avg/max) = 22.34 | 22.34 | 22.34 Mbytes
Step Temp E_pair E_mol TotEng Press 
       0    1686.0956    197.14856    1839.7535    5102.7197    4.5598743 
      10    1686.0956    197.14856    1832.3344    5095.3006    4.5602722 
Loop time of 1.4513 on 1 procs for 10 steps with 611 atoms

100.0% CPU use with 1 MPI tasks x no OpenMP threads

Minimization stats:
  Stopping criterion = energy tolerance
  Energy initial, next-to-last, final = 
         2036.90204469      2029.48413415      2029.48294821
  Force two-norm initial, final = 7.81607e+15 26259.4
  Force max component initial, final = 3.67133e+15 16296.3
  Final line search alpha, max atom move = 1.69235e-13 2.75791e-09
  Iterations, force evaluations = 10 298

MPI task timing breakdown:
Section |  min time  |  avg time  |  max time  |%varavg| %total
---------------------------------------------------------------
Pair    | 0.45013    | 0.45013    | 0.45013    |   0.0 | 31.02
Bond    | 0.088376   | 0.088376   | 0.088376   |   0.0 |  6.09
Kspace  | 0.91026    | 0.91026    | 0.91026    |   0.0 | 62.72
Neigh   | 0          | 0          | 0          |   0.0 |  0.00
Comm    | 0.00013757 | 0.00013757 | 0.00013757 |   0.0 |  0.01
Output  | 0          | 0          | 0          |   0.0 |  0.00
Modify  | 0          | 0          | 0          |   0.0 |  0.00
Other   |            | 0.002394   |            |       |  0.16

Nlocal:    611 ave 611 max 611 min
Histogram: 1 0 0 0 0 0 0 0 0 0
Nghost:    0 ave 0 max 0 min
Histogram: 1 0 0 0 0 0 0 0 0 0
Neighs:    48634 ave 48634 max 48634 min
Histogram: 1 0 0 0 0 0 0 0 0 0

Total # of neighbors = 48634
Ave neighs/atom = 79.5974
Ave special neighs/atom = 12.216
Neighbor list builds = 0
Dangerous builds = 0
write_dump all custom pysimm.dump.tmp id q x y z vx vy vz
quit


################################################################################
##################################    Init    ##################################
################################################################################
units           real
atom_style      full
pair_style      lj/cut/coul/long 12.0  12.0
kspace_style    pppm 1e-4
bond_style      harmonic
angle_style     harmonic
dihedral_style  fourier
improper_style  cvff
special_bonds   amber
pair_modify     mix arithmetic
read_data       temp.lmps
  orthogonal box = (-128.129 -128.129 -128.129) to (128.129 128.129 128.129)
  1 by 1 by 1 MPI processor grid
  reading atoms ...
  668 atoms
  reading velocities ...
  668 velocities
  scanning bonds ...
  3 = max bonds/atom
  scanning angles ...
  6 = max angles/atom
  scanning dihedrals ...
  27 = max dihedrals/atom
  scanning impropers ...
  2 = max impropers/atom
  reading bonds ...
  748 bonds
  reading angles ...
  1368 angles
  reading dihedrals ...
  2248 dihedrals
  reading impropers ...
  96 impropers
  4 = max # of 1-2 neighbors
  11 = max # of 1-3 neighbors
  24 = max # of 1-4 neighbors
  24 = max # of special neighbors
  special bonds CPU = 0.000638962 secs
  read_data CPU = 0.00907302 secs
################################################################################

min_style cg
minimize 1e-06 1e-06 1000000 10000000
WARNING: Using 'neigh_modify every 1 delay 0 check yes' setting during minimization (../min.cpp:190)
PPPM initialization ...
WARNING: System is not charge neutral, net charge = -4.8e-05 (../kspace.cpp:313)
  using 12-bit tables for long-range coulomb (../kspace.cpp:332)
  G vector (1/distance) = 0.10171
  grid = 24 24 24
  stencil order = 5
  estimated absolute RMS force accuracy = 0.0310187
  estimated relative force accuracy = 9.34119e-05
  using double precision KISS FFT
  3d grid and FFT values/proc = 24389 13824
Neighbor list info ...
  update every 1 steps, delay 0 steps, check yes
  max neighbors/atom: 2000, page size: 100000
  master list distance cutoff = 14
  ghost atom cutoff = 14
  binsize = 7, bins = 37 37 37
  1 neighbor lists, perpetual/occasional/extra = 1 0 0
  (1) pair lj/cut/coul/long, perpetual
      attributes: half, newton on
      pair build: half/bin/newton
      stencil: half/bin/3d/newton
      bin: standard
Per MPI rank memory allocation (min/avg/max) = 22.36 | 22.36 | 22.36 Mbytes
Step Temp E_pair E_mol TotEng Press 
       0    1745.1222    220.82247    2195.4389     5885.914    5.0622525 
      89    1745.1222    210.00942    1069.0673    4748.7292    10.117218 
Loop time of 3.91466 on 1 procs for 89 steps with 668 atoms

100.0% CPU use with 1 MPI tasks x no OpenMP threads

Minimization stats:
  Stopping criterion = energy tolerance
  Energy initial, next-to-last, final = 
         2416.26141337      1279.07726083      1279.07669314
  Force two-norm initial, final = 7.99844e+15 287.495
  Force max component initial, final = 3.76335e+15 195.777
  Final line search alpha, max atom move = 9.44711e-07 0.000184952
  Iterations, force evaluations = 89 727

MPI task timing breakdown:
Section |  min time  |  avg time  |  max time  |%varavg| %total
---------------------------------------------------------------
Pair    | 1.2985     | 1.2985     | 1.2985     |   0.0 | 33.17
Bond    | 0.24156    | 0.24156    | 0.24156    |   0.0 |  6.17
Kspace  | 2.3665     | 2.3665     | 2.3665     |   0.0 | 60.45
Neigh   | 0          | 0          | 0          |   0.0 |  0.00
Comm    | 0.00035429 | 0.00035429 | 0.00035429 |   0.0 |  0.01
Output  | 0          | 0          | 0          |   0.0 |  0.00
Modify  | 0          | 0          | 0          |   0.0 |  0.00
Other   |            | 0.007736   |            |       |  0.20

Nlocal:    668 ave 668 max 668 min
Histogram: 1 0 0 0 0 0 0 0 0 0
Nghost:    0 ave 0 max 0 min
Histogram: 1 0 0 0 0 0 0 0 0 0
Neighs:    52770 ave 52770 max 52770 min
Histogram: 1 0 0 0 0 0 0 0 0 0

Total # of neighbors = 52770
Ave neighs/atom = 78.997
Ave special neighs/atom = 12.1946
Neighbor list builds = 0
Dangerous builds = 0
write_dump all custom pysimm.dump.tmp id q x y z vx vy vz
quit


################################################################################
##################################    Init    ##################################
################################################################################
units           real
atom_style      full
pair_style      lj/cut/coul/long 12.0  12.0
kspace_style    pppm 1e-4
bond_style      harmonic
angle_style     harmonic
dihedral_style  fourier
improper_style  cvff
special_bonds   amber
pair_modify     mix arithmetic
read_data       temp.lmps
  orthogonal box = (-131.899 -131.899 -131.899) to (131.899 131.899 131.899)
  1 by 1 by 1 MPI processor grid
  reading atoms ...
  725 atoms
  reading velocities ...
  725 velocities
  scanning bonds ...
  3 = max bonds/atom
  scanning angles ...
  6 = max angles/atom
  scanning dihedrals ...
  27 = max dihedrals/atom
  scanning impropers ...
  2 = max impropers/atom
  reading bonds ...
  811 bonds
  reading angles ...
  1482 angles
  reading dihedrals ...
  2434 dihedrals
  reading impropers ...
  104 impropers
  4 = max # of 1-2 neighbors
  11 = max # of 1-3 neighbors
  24 = max # of 1-4 neighbors
  24 = max # of special neighbors
  special bonds CPU = 0.000674963 secs
  read_data CPU = 0.00981092 secs
################################################################################

min_style cg
minimize 1e-06 1e-06 1000000 10000000
WARNING: Using 'neigh_modify every 1 delay 0 check yes' setting during minimization (../min.cpp:190)
PPPM initialization ...
WARNING: System is not charge neutral, net charge = -5.2e-05 (../kspace.cpp:313)
  using 12-bit tables for long-range coulomb (../kspace.cpp:332)
  G vector (1/distance) = 0.0996308
  grid = 24 24 24
  stencil order = 5
  estimated absolute RMS force accuracy = 0.0328015
  estimated relative force accuracy = 9.87808e-05
  using double precision KISS FFT
  3d grid and FFT values/proc = 24389 13824
Neighbor list info ...
  update every 1 steps, delay 0 steps, check yes
  max neighbors/atom: 2000, page size: 100000
  master list distance cutoff = 14
  ghost atom cutoff = 14
  binsize = 7, bins = 38 38 38
  1 neighbor lists, perpetual/occasional/extra = 1 0 0
  (1) pair lj/cut/coul/long, perpetual
      attributes: half, newton on
      pair build: half/bin/newton
      stencil: half/bin/3d/newton
      bin: standard
Per MPI rank memory allocation (min/avg/max) = 22.39 | 22.39 | 22.39 Mbytes
Step Temp E_pair E_mol TotEng Press 
       0    1565.9982    193.23478    2480.5327    6053.3584   0.81992008 
      37    1565.9982    195.89778    1147.4553     4722.944    7.0347326 
Loop time of 1.31627 on 1 procs for 37 steps with 725 atoms

100.0% CPU use with 1 MPI tasks x no OpenMP threads

Minimization stats:
  Stopping criterion = linesearch alpha is zero
  Energy initial, next-to-last, final = 
         2673.76749084      1343.35310717      1343.35310717
  Force two-norm initial, final = 8.3965e+15 164.674
  Force max component initial, final = 5.04278e+15 77.4548
  Final line search alpha, max atom move = 1.94265e-13 1.50468e-11
  Iterations, force evaluations = 37 247

MPI task timing breakdown:
Section |  min time  |  avg time  |  max time  |%varavg| %total
---------------------------------------------------------------
Pair    | 0.44424    | 0.44424    | 0.44424    |   0.0 | 33.75
Bond    | 0.087417   | 0.087417   | 0.087417   |   0.0 |  6.64
Kspace  | 0.78165    | 0.78165    | 0.78165    |   0.0 | 59.38
Neigh   | 0          | 0          | 0          |   0.0 |  0.00
Comm    | 8.6308e-05 | 8.6308e-05 | 8.6308e-05 |   0.0 |  0.01
Output  | 0          | 0          | 0          |   0.0 |  0.00
Modify  | 0          | 0          | 0          |   0.0 |  0.00
Other   |            | 0.002877   |            |       |  0.22

Nlocal:    725 ave 725 max 725 min
Histogram: 1 0 0 0 0 0 0 0 0 0
Nghost:    0 ave 0 max 0 min
Histogram: 1 0 0 0 0 0 0 0 0 0
Neighs:    54636 ave 54636 max 54636 min
Histogram: 1 0 0 0 0 0 0 0 0 0

Total # of neighbors = 54636
Ave neighs/atom = 75.36
Ave special neighs/atom = 12.1766
Neighbor list builds = 0
Dangerous builds = 0
write_dump all custom pysimm.dump.tmp id q x y z vx vy vz
quit


################################################################################
##################################    Init    ##################################
################################################################################
units           real
atom_style      full
pair_style      lj/cut/coul/long 12.0  12.0
kspace_style    pppm 1e-4
bond_style      harmonic
angle_style     harmonic
dihedral_style  fourier
improper_style  cvff
special_bonds   amber
pair_modify     mix arithmetic
read_data       temp.lmps
  orthogonal box = (-135.466 -135.466 -135.466) to (135.466 135.466 135.466)
  1 by 1 by 1 MPI processor grid
  reading atoms ...
  782 atoms
  reading velocities ...
  782 velocities
  scanning bonds ...
  3 = max bonds/atom
  scanning angles ...
  6 = max angles/atom
  scanning dihedrals ...
  27 = max dihedrals/atom
  scanning impropers ...
  2 = max impropers/atom
  reading bonds ...
  874 bonds
  reading angles ...
  1596 angles
  reading dihedrals ...
  2620 dihedrals
  reading impropers ...
  112 impropers
  4 = max # of 1-2 neighbors
  11 = max # of 1-3 neighbors
  24 = max # of 1-4 neighbors
  24 = max # of special neighbors
  special bonds CPU = 0.000782013 secs
  read_data CPU = 0.010488 secs
################################################################################

min_style cg
minimize 1e-06 1e-06 1000000 10000000
WARNING: Using 'neigh_modify every 1 delay 0 check yes' setting during minimization (../min.cpp:190)
PPPM initialization ...
WARNING: System is not charge neutral, net charge = -5.6e-05 (../kspace.cpp:313)
  using 12-bit tables for long-range coulomb (../kspace.cpp:332)
  G vector (1/distance) = 0.0977369
  grid = 24 24 24
  stencil order = 5
  estimated absolute RMS force accuracy = 0.0344858
  estimated relative force accuracy = 0.000103853
  using double precision KISS FFT
  3d grid and FFT values/proc = 24389 13824
Neighbor list info ...
  update every 1 steps, delay 0 steps, check yes
  max neighbors/atom: 2000, page size: 100000
  master list distance cutoff = 14
  ghost atom cutoff = 14
  binsize = 7, bins = 39 39 39
  1 neighbor lists, perpetual/occasional/extra = 1 0 0
  (1) pair lj/cut/coul/long, perpetual
      attributes: half, newton on
      pair build: half/bin/newton
      stencil: half/bin/3d/newton
      bin: standard
Per MPI rank memory allocation (min/avg/max) = 22.42 | 22.42 | 22.42 Mbytes
Step Temp E_pair E_mol TotEng Press 
       0    1935.1332    234.93614    2730.2311    7470.1818    2.4951625 
     110    1935.1332    202.32723    1048.7788    5756.1206    9.7430196 
Loop time of 5.16771 on 1 procs for 110 steps with 782 atoms

99.9% CPU use with 1 MPI tasks x no OpenMP threads

Minimization stats:
  Stopping criterion = linesearch alpha is zero
  Energy initial, next-to-last, final = 
         2965.16726996       1251.1060138       1251.1060138
  Force two-norm initial, final = 1.21758e+16 746.792
  Force max component initial, final = 7.81809e+15 446.633
  Final line search alpha, max atom move = 1.66887e-14 7.45371e-12
  Iterations, force evaluations = 110 920

MPI task timing breakdown:
Section |  min time  |  avg time  |  max time  |%varavg| %total
---------------------------------------------------------------
Pair    | 1.7172     | 1.7172     | 1.7172     |   0.0 | 33.23
Bond    | 0.35703    | 0.35703    | 0.35703    |   0.0 |  6.91
Kspace  | 3.0796     | 3.0796     | 3.0796     |   0.0 | 59.59
Neigh   | 0.002178   | 0.002178   | 0.002178   |   0.0 |  0.04
Comm    | 0.00041652 | 0.00041652 | 0.00041652 |   0.0 |  0.01
Output  | 0          | 0          | 0          |   0.0 |  0.00
Modify  | 0          | 0          | 0          |   0.0 |  0.00
Other   |            | 0.01119    |            |       |  0.22

Nlocal:    782 ave 782 max 782 min
Histogram: 1 0 0 0 0 0 0 0 0 0
Nghost:    0 ave 0 max 0 min
Histogram: 1 0 0 0 0 0 0 0 0 0
Neighs:    57258 ave 57258 max 57258 min
Histogram: 1 0 0 0 0 0 0 0 0 0

Total # of neighbors = 57258
Ave neighs/atom = 73.2199
Ave special neighs/atom = 12.1611
Neighbor list builds = 1
Dangerous builds = 0
write_dump all custom pysimm.dump.tmp id q x y z vx vy vz
quit


################################################################################
##################################    Init    ##################################
################################################################################
units           real
atom_style      full
pair_style      lj/cut/coul/long 12.0  12.0
kspace_style    pppm 1e-4
bond_style      harmonic
angle_style     harmonic
dihedral_style  fourier
improper_style  cvff
special_bonds   amber
pair_modify     mix arithmetic
read_data       temp.lmps
  orthogonal box = (-138.854 -138.854 -138.854) to (138.854 138.854 138.854)
  1 by 1 by 1 MPI processor grid
  reading atoms ...
  839 atoms
  reading velocities ...
  839 velocities
  scanning bonds ...
  3 = max bonds/atom
  scanning angles ...
  6 = max angles/atom
  scanning dihedrals ...
  27 = max dihedrals/atom
  scanning impropers ...
  2 = max impropers/atom
  reading bonds ...
  937 bonds
  reading angles ...
  1710 angles
  reading dihedrals ...
  2806 dihedrals
  reading impropers ...
  120 impropers
  4 = max # of 1-2 neighbors
  11 = max # of 1-3 neighbors
  24 = max # of 1-4 neighbors
  24 = max # of special neighbors
  special bonds CPU = 0.000797033 secs
  read_data CPU = 0.0108671 secs
################################################################################

min_style cg
minimize 1e-06 1e-06 1000000 10000000
WARNING: Using 'neigh_modify every 1 delay 0 check yes' setting during minimization (../min.cpp:190)
PPPM initialization ...
WARNING: System is not charge neutral, net charge = -6e-05 (../kspace.cpp:313)
  using 12-bit tables for long-range coulomb (../kspace.cpp:332)
  G vector (1/distance) = 0.0960026
  grid = 24 24 24
  stencil order = 5
  estimated absolute RMS force accuracy = 0.0360838
  estimated relative force accuracy = 0.000108665
  using double precision KISS FFT
  3d grid and FFT values/proc = 24389 13824
Neighbor list info ...
  update every 1 steps, delay 0 steps, check yes
  max neighbors/atom: 2000, page size: 100000
  master list distance cutoff = 14
  ghost atom cutoff = 14
  binsize = 7, bins = 40 40 40
  1 neighbor lists, perpetual/occasional/extra = 1 0 0
  (1) pair lj/cut/coul/long, perpetual
      attributes: half, newton on
      pair build: half/bin/newton
      stencil: half/bin/3d/newton
      bin: standard
Per MPI rank memory allocation (min/avg/max) = 22.45 | 22.45 | 22.45 Mbytes
Step Temp E_pair E_mol TotEng Press 
       0    1728.7619    358.63826    3356.7264    8033.6714    2.2969766 
       7    1728.7619    358.63826    3349.1744    8026.1194    2.2965261 
Loop time of 3.53117 on 1 procs for 7 steps with 839 atoms

100.0% CPU use with 1 MPI tasks x no OpenMP threads

Minimization stats:
  Stopping criterion = quadratic factors are zero
  Energy initial, next-to-last, final = 
         3715.36463531      3707.81263333      3707.81263333
  Force two-norm initial, final = 5.72229e+15 7.85803e+14
  Force max component initial, final = 3.56774e+15 3.34944e+14
  Final line search alpha, max atom move = 2.32464e-32 7.78625e-18
  Iterations, force evaluations = 7 539

MPI task timing breakdown:
Section |  min time  |  avg time  |  max time  |%varavg| %total
---------------------------------------------------------------
Pair    | 1.5268     | 1.5268     | 1.5268     |   0.0 | 43.24
Bond    | 0.22209    | 0.22209    | 0.22209    |   0.0 |  6.29
Kspace  | 1.7763     | 1.7763     | 1.7763     |   0.0 | 50.30
Neigh   | 0          | 0          | 0          |   0.0 |  0.00
Comm    | 0.00027013 | 0.00027013 | 0.00027013 |   0.0 |  0.01
Output  | 0          | 0          | 0          |   0.0 |  0.00
Modify  | 0          | 0          | 0          |   0.0 |  0.00
Other   |            | 0.005727   |            |       |  0.16

Nlocal:    839 ave 839 max 839 min
Histogram: 1 0 0 0 0 0 0 0 0 0
Nghost:    0 ave 0 max 0 min
Histogram: 1 0 0 0 0 0 0 0 0 0
Neighs:    88651 ave 88651 max 88651 min
Histogram: 1 0 0 0 0 0 0 0 0 0

Total # of neighbors = 88651
Ave neighs/atom = 105.663
Ave special neighs/atom = 12.1478
Neighbor list builds = 0
Dangerous builds = 0
write_dump all custom pysimm.dump.tmp id q x y z vx vy vz
quit


################################################################################
##################################    Init    ##################################
################################################################################
units           real
atom_style      full
pair_style      lj/cut/coul/long 12.0  12.0
kspace_style    pppm 1e-4
bond_style      harmonic
angle_style     harmonic
dihedral_style  fourier
improper_style  cvff
special_bonds   amber
pair_modify     mix arithmetic
read_data       temp.lmps
  orthogonal box = (-142.084 -142.084 -142.084) to (142.084 142.084 142.084)
  1 by 1 by 1 MPI processor grid
  reading atoms ...
  896 atoms
  reading velocities ...
  896 velocities
  scanning bonds ...
  3 = max bonds/atom
  scanning angles ...
  6 = max angles/atom
  scanning dihedrals ...
  27 = max dihedrals/atom
  scanning impropers ...
  2 = max impropers/atom
  reading bonds ...
  1000 bonds
  reading angles ...
  1824 angles
  reading dihedrals ...
  2992 dihedrals
  reading impropers ...
  128 impropers
  4 = max # of 1-2 neighbors
  11 = max # of 1-3 neighbors
  24 = max # of 1-4 neighbors
[...]
  scanning dihedrals ...
  27 = max dihedrals/atom
  scanning impropers ...
  2 = max impropers/atom
  reading bonds ...
  2855 bonds
  reading angles ...
  5244 angles
  reading dihedrals ...
  8642 dihedrals
  reading impropers ...
  368 impropers
  4 = max # of 1-2 neighbors
  11 = max # of 1-3 neighbors
  24 = max # of 1-4 neighbors
  24 = max # of special neighbors
  special bonds CPU = 0.00141311 secs
  read_data CPU = 0.057116 secs
################################################################################

min_style cg
minimize 1e-08 1e-08 10000000 100000000
WARNING: Using 'neigh_modify every 1 delay 0 check yes' setting during minimization (../min.cpp:190)
PPPM initialization ...
WARNING: System is not charge neutral, net charge = -0.000184 (../kspace.cpp:313)
  using 12-bit tables for long-range coulomb (../kspace.cpp:332)
  G vector (1/distance) = 0.0971417
  grid = 36 36 36
  stencil order = 5
  estimated absolute RMS force accuracy = 0.0343888
  estimated relative force accuracy = 0.000103561
  using double precision KISS FFT
  3d grid and FFT values/proc = 7406 3888
Neighbor list info ...
  update every 1 steps, delay 0 steps, check yes
  max neighbors/atom: 2000, page size: 100000
  master list distance cutoff = 14
  ghost atom cutoff = 14
  binsize = 7, bins = 59 59 59
  1 neighbor lists, perpetual/occasional/extra = 1 0 0
  (1) pair lj/cut/coul/long, perpetual
      attributes: half, newton on
      pair build: half/bin/newton
      stencil: half/bin/3d/newton
      bin: standard
Per MPI rank memory allocation (min/avg/max) = 20.44 | 20.74 | 21.27 Mbytes
Step Temp E_pair E_mol TotEng Press 
       0    1359.2394    815.30272    3864.2579    14950.454    6.4734583 
       3    1359.2394    815.30272    3863.2197    14949.416    6.4734517 
Loop time of 1.16396 on 16 procs for 3 steps with 2536 atoms

95.4% CPU use with 16 MPI tasks x no OpenMP threads

Minimization stats:
  Stopping criterion = quadratic factors are zero
  Energy initial, next-to-last, final = 
         4679.56063525      4678.52246549      4678.52246549
  Force two-norm initial, final = 6.6763e+14 3.94755e+14
  Force max component initial, final = 4.12789e+14 2.50142e+14
  Final line search alpha, max atom move = 2.90528e-30 7.26734e-16
  Iterations, force evaluations = 3 231

MPI task timing breakdown:
Section |  min time  |  avg time  |  max time  |%varavg| %total
---------------------------------------------------------------
Pair    | 3.6478e-05 | 0.13562    | 0.55434    |  51.0 | 11.65
Bond    | 8.297e-05  | 0.030016   | 0.11474    |  23.5 |  2.58
Kspace  | 0.482      | 0.98788    | 1.1553     |  23.1 | 84.87
Neigh   | 0          | 0          | 0          |   0.0 |  0.00
Comm    | 0.00010276 | 0.0039881  | 0.0088575  |   6.1 |  0.34
Output  | 0          | 0          | 0          |   0.0 |  0.00
Modify  | 0          | 0          | 0          |   0.0 |  0.00
Other   |            | 0.006459   |            |       |  0.55

Nlocal:    158.5 ave 589 max 0 min
Histogram: 9 1 1 0 2 0 0 0 1 2
Nghost:    247.062 ave 769 max 0 min
Histogram: 8 0 1 0 1 2 0 1 2 1
Neighs:    9510.25 ave 37603 max 0 min
Histogram: 9 1 1 1 0 1 0 1 1 1

Total # of neighbors = 152164
Ave neighs/atom = 60.0016
Ave special neighs/atom = 12.3005
Neighbor list builds = 0
Dangerous builds = 0
write_dump all custom pysimm.dump.tmp id q x y z vx vy vz
quit


################################################################################
##################################    Init    ##################################
################################################################################
units           real
atom_style      full
pair_style      lj/cut/coul/long 12.0  12.0
kspace_style    pppm 1e-4
bond_style      harmonic
angle_style     harmonic
dihedral_style  fourier
improper_style  cvff
special_bonds   amber
pair_modify     mix arithmetic
read_data       temp.lmps
  orthogonal box = (-206.428 -206.428 -206.428) to (206.428 206.428 206.428)
  2 by 2 by 4 MPI processor grid
  reading atoms ...
  2593 atoms
  reading velocities ...
  2593 velocities
  scanning bonds ...
  3 = max bonds/atom
  scanning angles ...
  6 = max angles/atom
  scanning dihedrals ...
  27 = max dihedrals/atom
  scanning impropers ...
  2 = max impropers/atom
  reading bonds ...
  2918 bonds
  reading angles ...
  5358 angles
  reading dihedrals ...
  8828 dihedrals
  reading impropers ...
  376 impropers
  4 = max # of 1-2 neighbors
  11 = max # of 1-3 neighbors
  24 = max # of 1-4 neighbors
  24 = max # of special neighbors
  special bonds CPU = 0.00142002 secs
  read_data CPU = 0.05779 secs
################################################################################

min_style cg
minimize 1e-08 1e-08 10000000 100000000
WARNING: Using 'neigh_modify every 1 delay 0 check yes' setting during minimization (../min.cpp:190)
PPPM initialization ...
WARNING: System is not charge neutral, net charge = -0.000188 (../kspace.cpp:313)
  using 12-bit tables for long-range coulomb (../kspace.cpp:332)
  G vector (1/distance) = 0.0966266
  grid = 36 36 36
  stencil order = 5
  estimated absolute RMS force accuracy = 0.0348659
  estimated relative force accuracy = 0.000104998
  using double precision KISS FFT
  3d grid and FFT values/proc = 7406 3888
Neighbor list info ...
  update every 1 steps, delay 0 steps, check yes
  max neighbors/atom: 2000, page size: 100000
  master list distance cutoff = 14
  ghost atom cutoff = 14
  binsize = 7, bins = 59 59 59
  1 neighbor lists, perpetual/occasional/extra = 1 0 0
  (1) pair lj/cut/coul/long, perpetual
      attributes: half, newton on
      pair build: half/bin/newton
      stencil: half/bin/3d/newton
      bin: standard
Per MPI rank memory allocation (min/avg/max) = 20.44 | 20.71 | 21.27 Mbytes
Step Temp E_pair E_mol TotEng Press 
       0    1424.2621    2025.9909    5371.8403     18402.05    10.328272 
      15    1424.2621    2025.9908    5364.2453    18394.455    10.328289 
Loop time of 2.24497 on 16 procs for 15 steps with 2593 atoms

95.7% CPU use with 16 MPI tasks x no OpenMP threads

Minimization stats:
  Stopping criterion = energy tolerance
  Energy initial, next-to-last, final = 
          7397.8312732      7390.23615963      7390.23612269
  Force two-norm initial, final = 1.34642e+15 615008
  Force max component initial, final = 8.70234e+14 383628
  Final line search alpha, max atom move = 9.21881e-16 3.5366e-10
  Iterations, force evaluations = 15 584

MPI task timing breakdown:
Section |  min time  |  avg time  |  max time  |%varavg| %total
---------------------------------------------------------------
Pair    | 6.6996e-05 | 0.24687    | 1.0912     |  77.1 | 11.00
Bond    | 0.00016141 | 0.055769   | 0.21686    |  35.5 |  2.48
Kspace  | 0.91653    | 1.925      | 2.2303     |  33.8 | 85.75
Neigh   | 0          | 0          | 0          |   0.0 |  0.00
Comm    | 0.00022793 | 0.0055453  | 0.013342   |   7.2 |  0.25
Output  | 0          | 0          | 0          |   0.0 |  0.00
Modify  | 0          | 0          | 0          |   0.0 |  0.00
Other   |            | 0.01177    |            |       |  0.52

Nlocal:    162.062 ave 642 max 0 min
Histogram: 10 1 0 1 0 1 0 0 0 3
Nghost:    151.875 ave 578 max 0 min
Histogram: 8 0 2 2 0 1 1 1 0 1
Neighs:    9487.62 ave 42024 max 0 min
Histogram: 10 1 0 1 1 0 0 1 0 2

Total # of neighbors = 151802
Ave neighs/atom = 58.543
Ave special neighs/atom = 12.2931
Neighbor list builds = 0
Dangerous builds = 0
write_dump all custom pysimm.dump.tmp id q x y z vx vy vz
quit


################################################################################
##################################    Init    ##################################
################################################################################
units           real
atom_style      full
pair_style      lj/cut/coul/long 12.0  12.0
kspace_style    pppm 1e-4
bond_style      harmonic
angle_style     harmonic
dihedral_style  fourier
improper_style  cvff
special_bonds   amber
pair_modify     mix arithmetic
read_data       temp.lmps
  orthogonal box = (-207.913 -207.913 -207.913) to (207.913 207.913 207.913)
  2 by 2 by 4 MPI processor grid
  reading atoms ...
  2650 atoms
  reading velocities ...
  2650 velocities
  scanning bonds ...
  3 = max bonds/atom
  scanning angles ...
  6 = max angles/atom
  scanning dihedrals ...
  27 = max dihedrals/atom
  scanning impropers ...
  2 = max impropers/atom
  reading bonds ...
  2981 bonds
  reading angles ...
  5472 angles
  reading dihedrals ...
  9014 dihedrals
  reading impropers ...
  384 impropers
  4 = max # of 1-2 neighbors
  11 = max # of 1-3 neighbors
  24 = max # of 1-4 neighbors
  24 = max # of special neighbors
  special bonds CPU = 0.00146818 secs
  read_data CPU = 0.058316 secs
################################################################################

min_style cg
minimize 1e-08 1e-08 10000000 100000000
WARNING: Using 'neigh_modify every 1 delay 0 check yes' setting during minimization (../min.cpp:190)
PPPM initialization ...
WARNING: System is not charge neutral, net charge = -0.000192 (../kspace.cpp:313)
  using 12-bit tables for long-range coulomb (../kspace.cpp:332)
  G vector (1/distance) = 0.0961239
  grid = 36 36 36
  stencil order = 5
  estimated absolute RMS force accuracy = 0.0353356
  estimated relative force accuracy = 0.000106412
  using double precision KISS FFT
  3d grid and FFT values/proc = 7406 3888
Neighbor list info ...
  update every 1 steps, delay 0 steps, check yes
  max neighbors/atom: 2000, page size: 100000
  master list distance cutoff = 14
  ghost atom cutoff = 14
  binsize = 7, bins = 60 60 60
  1 neighbor lists, perpetual/occasional/extra = 1 0 0
  (1) pair lj/cut/coul/long, perpetual
      attributes: half, newton on
      pair build: half/bin/newton
      stencil: half/bin/3d/newton
      bin: standard
Per MPI rank memory allocation (min/avg/max) = 20.45 | 20.72 | 21.29 Mbytes
Step Temp E_pair E_mol TotEng Press 
       0    1368.1108     781.6754     4458.974    16043.479    6.1222781 
       8    1368.1108     781.6752    4451.8863    16036.391    6.1222824 
Loop time of 1.30023 on 16 procs for 8 steps with 2650 atoms

95.5% CPU use with 16 MPI tasks x no OpenMP threads

Minimization stats:
  Stopping criterion = energy tolerance
  Energy initial, next-to-last, final = 
          5240.6494409       5233.5615548      5233.56153215
  Force two-norm initial, final = 1.60298e+15 5443.65
  Force max component initial, final = 6.89068e+14 3200.76
  Final line search alpha, max atom move = 1.07966e-10 3.45573e-07
  Iterations, force evaluations = 8 249

MPI task timing breakdown:
Section |  min time  |  avg time  |  max time  |%varavg| %total
---------------------------------------------------------------
Pair    | 2.6226e-05 | 0.14158    | 0.65158    |  54.3 | 10.89
Bond    | 8.9645e-05 | 0.031543   | 0.12912    |  24.8 |  2.43
Kspace  | 0.50719    | 1.1165     | 1.2913     |  23.6 | 85.87
Neigh   | 0          | 0          | 0          |   0.0 |  0.00
Comm    | 9.9182e-05 | 0.0036361  | 0.0085678  |   6.0 |  0.28
Output  | 0          | 0          | 0          |   0.0 |  0.00
Modify  | 0          | 0          | 0          |   0.0 |  0.00
Other   |            | 0.006999   |            |       |  0.54

Nlocal:    165.625 ave 668 max 0 min
Histogram: 9 1 1 1 0 0 1 1 0 2
Nghost:    216.5 ave 587 max 0 min
Histogram: 8 0 0 0 2 0 1 1 2 2
Neighs:    9880.44 ave 45066 max 0 min
Histogram: 10 0 2 0 0 1 0 2 0 1

Total # of neighbors = 158087
Ave neighs/atom = 59.6555
Ave special neighs/atom = 12.286
Neighbor list builds = 0
Dangerous builds = 0
write_dump all custom pysimm.dump.tmp id q x y z vx vy vz
quit


################################################################################
##################################    Init    ##################################
################################################################################
units           real
atom_style      full
pair_style      lj/cut/coul/long 12.0  12.0
kspace_style    pppm 1e-4
bond_style      harmonic
angle_style     harmonic
dihedral_style  fourier
improper_style  cvff
special_bonds   amber
pair_modify     mix arithmetic
read_data       temp.lmps
  orthogonal box = (-209.377 -209.377 -209.377) to (209.377 209.377 209.377)
  2 by 2 by 4 MPI processor grid
  reading atoms ...
  2707 atoms
  reading velocities ...
  2707 velocities
  scanning bonds ...
  3 = max bonds/atom
  scanning angles ...
  6 = max angles/atom
  scanning dihedrals ...
  27 = max dihedrals/atom
  scanning impropers ...
  2 = max impropers/atom
  reading bonds ...
  3044 bonds
  reading angles ...
  5586 angles
  reading dihedrals ...
  9200 dihedrals
  reading impropers ...
  392 impropers
  4 = max # of 1-2 neighbors
  11 = max # of 1-3 neighbors
  24 = max # of 1-4 neighbors
  24 = max # of special neighbors
  special bonds CPU = 0.0015471 secs
  read_data CPU = 0.057282 secs
################################################################################

min_style cg
minimize 1e-08 1e-08 10000000 100000000
WARNING: Using 'neigh_modify every 1 delay 0 check yes' setting during minimization (../min.cpp:190)
PPPM initialization ...
WARNING: System is not charge neutral, net charge = -0.000196 (../kspace.cpp:313)
  using 12-bit tables for long-range coulomb (../kspace.cpp:332)
  G vector (1/distance) = 0.0956331
  grid = 36 36 36
  stencil order = 5
  estimated absolute RMS force accuracy = 0.035798
  estimated relative force accuracy = 0.000107805
  using double precision KISS FFT
  3d grid and FFT values/proc = 7406 3888
Neighbor list info ...
  update every 1 steps, delay 0 steps, check yes
  max neighbors/atom: 2000, page size: 100000
  master list distance cutoff = 14
  ghost atom cutoff = 14
  binsize = 7, bins = 60 60 60
  1 neighbor lists, perpetual/occasional/extra = 1 0 0
  (1) pair lj/cut/coul/long, perpetual
      attributes: half, newton on
      pair build: half/bin/newton
      stencil: half/bin/3d/newton
      bin: standard
Per MPI rank memory allocation (min/avg/max) = 20.45 | 20.74 | 21.29 Mbytes
Step Temp E_pair E_mol TotEng Press 
       0    1327.6771    793.28392    4942.3399    16444.763    4.6936819 
      11    1327.6771    793.28392    4928.4909    16430.914    4.6936454 
Loop time of 2.21278 on 16 procs for 11 steps with 2707 atoms

92.0% CPU use with 16 MPI tasks x no OpenMP threads

Minimization stats:
  Stopping criterion = energy tolerance
  Energy initial, next-to-last, final = 
         5735.62386961      5721.77487389      5721.77485327
  Force two-norm initial, final = 4.58838e+15 568517
  Force max component initial, final = 2.31291e+15 305169
  Final line search alpha, max atom move = 7.51997e-16 2.29486e-10
  Iterations, force evaluations = 11 445

MPI task timing breakdown:
Section |  min time  |  avg time  |  max time  |%varavg| %total
---------------------------------------------------------------
Pair    | 4.9114e-05 | 0.21253    | 1.1397     |  73.7 |  9.60
Bond    | 0.00011897 | 0.047453   | 0.22643    |  33.7 |  2.14
Kspace  | 0.83013    | 1.937      | 2.1993     |  29.7 | 87.54
Neigh   | 0          | 0          | 0          |   0.0 |  0.00
Comm    | 0.00017834 | 0.0046496  | 0.010689   |   6.7 |  0.21
Output  | 0          | 0          | 0          |   0.0 |  0.00
Modify  | 0          | 0          | 0          |   0.0 |  0.00
Other   |            | 0.01117    |            |       |  0.50

Nlocal:    169.188 ave 789 max 0 min
Histogram: 11 0 0 1 0 2 0 0 1 1
Nghost:    208.312 ave 665 max 0 min
Histogram: 8 1 0 1 1 0 2 0 2 1
Neighs:    9956.31 ave 50723 max 0 min
Histogram: 11 0 1 0 1 0 2 0 0 1

Total # of neighbors = 159301
Ave neighs/atom = 58.8478
Ave special neighs/atom = 12.2793
Neighbor list builds = 0
Dangerous builds = 0
write_dump all custom pysimm.dump.tmp id q x y z vx vy vz
quit


################################################################################
##################################    Init    ##################################
################################################################################
units           real
atom_style      full
pair_style      lj/cut/coul/long 12.0  12.0
kspace_style    pppm 1e-4
bond_style      harmonic
angle_style     harmonic
dihedral_style  fourier
improper_style  cvff
special_bonds   amber
pair_modify     mix arithmetic
read_data       temp.lmps
  orthogonal box = (-210.821 -210.821 -210.821) to (210.821 210.821 210.821)
  2 by 2 by 4 MPI processor grid
  reading atoms ...
  2764 atoms
  reading velocities ...
  2764 velocities
  scanning bonds ...
  3 = max bonds/atom
  scanning angles ...
  6 = max angles/atom
  scanning dihedrals ...
  27 = max dihedrals/atom
  scanning impropers ...
  2 = max impropers/atom
  reading bonds ...
  3107 bonds
  reading angles ...
  5700 angles
  reading dihedrals ...
  9386 dihedrals
  reading impropers ...
  400 impropers
  4 = max # of 1-2 neighbors
  11 = max # of 1-3 neighbors
  24 = max # of 1-4 neighbors
  24 = max # of special neighbors
  special bonds CPU = 0.00156689 secs
  read_data CPU = 0.0621562 secs
################################################################################

min_style cg
minimize 1e-08 1e-08 10000000 100000000
WARNING: Using 'neigh_modify every 1 delay 0 check yes' setting during minimization (../min.cpp:190)
PPPM initialization ...
WARNING: System is not charge neutral, net charge = -0.0002 (../kspace.cpp:313)
  using 12-bit tables for long-range coulomb (../kspace.cpp:332)
  G vector (1/distance) = 0.0951565
  grid = 36 36 36
  stencil order = 5
  estimated absolute RMS force accuracy = 0.0362568
  estimated relative force accuracy = 0.000109186
  using double precision KISS FFT
  3d grid and FFT values/proc = 7406 3888
Neighbor list info ...
  update every 1 steps, delay 0 steps, check yes
  max neighbors/atom: 2000, page size: 100000
  master list distance cutoff = 14
  ghost atom cutoff = 14
  binsize = 7, bins = 61 61 61
  1 neighbor lists, perpetual/occasional/extra = 1 0 0
  (1) pair lj/cut/coul/long, perpetual
      attributes: half, newton on
      pair build: half/bin/newton
      stencil: half/bin/3d/newton
      bin: standard
Per MPI rank memory allocation (min/avg/max) = 20.45 | 20.69 | 21.28 Mbytes
Step Temp E_pair E_mol TotEng Press 
       0    1464.1128    847.82792    4951.2625    17857.491    6.1046418 
     125    1464.1128    722.11305    2889.2568    15669.771    7.9410657 
Loop time of 4.81257 on 16 procs for 125 steps with 2764 atoms

95.1% CPU use with 16 MPI tasks x no OpenMP threads

Minimization stats:
  Stopping criterion = energy tolerance
  Energy initial, next-to-last, final = 
         5799.09036895       3611.3699269      3611.36990016
  Force two-norm initial, final = 3.30031e+15 216.96
  Force max component initial, final = 1.52613e+15 88.3171
  Final line search alpha, max atom move = 2.20633e-06 0.000194857
  Iterations, force evaluations = 125 1203

MPI task timing breakdown:
Section |  min time  |  avg time  |  max time  |%varavg| %total
---------------------------------------------------------------
Pair    | 0.00013137 | 0.52623    | 2.4066     | 117.8 | 10.93
Bond    | 0.00036716 | 0.11162    | 0.49362    |  53.5 |  2.32
Kspace  | 1.8652     | 4.1346     | 4.7776     |  51.0 | 85.91
Neigh   | 0.0018179  | 0.0018516  | 0.0019021  |   0.1 |  0.04
Comm    | 0.00052714 | 0.0096543  | 0.026466   |   9.7 |  0.20
Output  | 0          | 0          | 0          |   0.0 |  0.00
Modify  | 0          | 0          | 0          |   0.0 |  0.00
Other   |            | 0.02858    |            |       |  0.59

Nlocal:    172.75 ave 773 max 0 min
Histogram: 11 0 1 0 0 0 2 0 0 2
Nghost:    126.5 ave 403 max 0 min
Histogram: 8 0 0 2 0 1 3 1 0 1
Neighs:    10863.1 ave 51378 max 0 min
Histogram: 11 0 0 1 1 1 0 0 0 2

Total # of neighbors = 173809
Ave neighs/atom = 62.8831
Ave special neighs/atom = 12.2728
Neighbor list builds = 1
Dangerous builds = 0
write_dump all custom pysimm.dump.tmp id q x y z vx vy vz
quit
