pySIMM System Object

1892 atoms
2119 bonds
3876 angles
6370 dihedrals
272 impropers

9 atom types
10 bond types
15 angle types
8 dihedral types
2 improper types

-184.793319 184.793319 xlo xhi
-184.793319 184.793319 ylo yhi
-184.793319 184.793319 zlo zhi

Masses

   1	12.01	# ca
   2	12.01	# c3
   3	1.008	# ha
   4	16.0	# os
   5	12.01	# cg
   6	14.01	# n1
   7	1.008	# hc
   8	16.0	# oh
   9	1.008	# ho

Pair Coeffs

   1	0.086	3.3996695084235347	# ca
   2	0.1094	3.3996695084235347	# c3
   3	0.015	2.59964245953351	# ha
   4	0.17	3.0000123434657784	# os
   5	0.21	3.3996695084235347	# cg
   6	0.17	3.249998523775958	# n1
   7	0.0157	2.649532787749369	# hc
   8	0.2104	3.0664733878390478	# oh
   9	0.0047	0.5379246460131368	# ho

Bond Coeffs

   1	371.4	0.973	# ho,oh
   2	461.1	1.3984	# ca,ca
   3	345.8	1.086	# ca,ha
   4	384.0	1.3637	# ca,oh
   5	300.9	1.5375	# c3,c3
   6	413.3	1.4328	# ca,cg
   7	943.1	1.1566	# cg,n1
   8	321.0	1.5156	# c3,ca
   9	330.6	1.0969	# c3,hc
  10	376.6	1.3696	# ca,os

Angle Coeffs

   1	58.92	179.49	# ca,cg,n1
   2	49.0	108.58	# ca,oh,ho
   3	62.86	111.51	# c3,c3,c3
   4	66.62	120.02	# ca,ca,ca
   5	63.53	120.77	# c3,ca,ca
   6	63.15	112.07	# c3,c3,ca
   7	46.34	109.8	# c3,c3,hc
   8	69.52	119.9	# ca,ca,oh
   9	63.56	112.24	# ca,c3,ca
  10	63.48	119.89	# ca,os,ca
  11	65.72	120.27	# ca,ca,cg
  12	48.18	119.88	# ca,ca,ha
  13	39.4	107.58	# hc,c3,hc
  14	69.58	119.2	# ca,ca,os
  15	63.5	119.89	# ca,oh,ca

Dihedral Coeffs

   1	1	0.9	2	180	# X,ca,os,X
   2	3	0.18	3	0	0.25	2	180	0.2	1	180	# c3,c3,c3,c3
   3	1	0.9	2	180	# X,ca,oh,X
   4	1	0.16	3	0	# hc,c3,c3,c3
   5	1	3.625	2	180	# X,ca,ca,X
   6	1	3.625	2	180	# X,cg,ca,ca
   7	1	0.15555555555555556	3	0	# X,c3,c3,X
   8	1	0.0	2	0	# X,c3,ca,X

Improper Coeffs

   1	1.1	-1	2	# ca,ca,ca,c3
   2	1.1	-1	2	# ca,X,X,ha

Atoms

   1	1	1	0.135239	-31.4123	43.0911	-76.3547
   2	1	1	-0.124676	-32.0047	41.7919	-76.4632
   3	1	1	0.190416	-33.9354	42.9192	-77.3454
   4	1	1	-0.226961	-33.32	41.677	-76.9438
   5	1	1	-0.017982	-35.8435	45.9471	-78.6551
   6	1	1	-0.195812	-36.9843	45.878	-79.5573
   7	1	1	-0.244042	-34.5207	45.3879	-78.8221
   8	1	1	0.131216	-36.4628	45.6675	-81.0237
   9	1	1	-0.480889	-34.2524	44.9921	-80.2532
  10	1	1	0.420559	-35.1099	45.3218	-81.4185
  11	1	2	0.094496	-36.3317	46.4248	-77.379
  12	1	3	0.181616	-38.0807	45.942	-79.2692
  13	1	2	0.106535	-33.8865	45.514	-77.4449
  14	1	4	-0.32219	-37.2092	45.5409	-81.9902
  15	1	3	0.25841	-33.3953	44.4468	-80.4221
  16	1	1	0.380364	-36.8819	44.642	-83.0576
  17	1	1	-0.639904	-37.3143	45.3334	-84.1806
  18	1	1	0.40258	-35.5562	44.4436	-83.1447
  19	1	1	0.235245	-37.124	44.8661	-85.463
  20	1	1	-0.64044	-35.2302	43.7769	-84.6078
  21	1	1	0.243455	-36.2523	43.7899	-85.5523
  22	1	5	0.683739	-38.0194	46.6405	-84.2443
  23	1	4	-0.371861	-34.5659	45.0769	-82.6632
  24	1	5	0.675894	-33.8078	43.9309	-84.8968
  25	1	6	-0.526708	-32.6852	43.8408	-85.1526
  26	1	6	-0.532274	-38.6295	47.5402	-84.1565
  27	1	2	0.077971	-35.1774	45.9747	-76.6037
  28	1	1	-0.133879	-33.3046	44.2184	-77.0794
  29	1	2	0.291414	-32.8169	46.5072	-77.3176
  30	1	7	0.054943	-35.0142	46.556	-75.7933
  31	1	7	-0.083103	-35.2946	45.0077	-76.221
  32	1	2	-0.229696	-37.6941	45.7461	-76.9577
  33	1	2	-0.134961	-36.3406	47.9699	-77.6897
  34	1	7	0.062626	-37.827	44.8754	-77.5616
  35	1	7	0.065775	-38.5051	46.5657	-76.9023
  36	1	7	0.079929	-37.5963	45.3589	-75.9592
  37	1	7	0.050506	-35.8712	48.2858	-76.7388
  38	1	7	0.024431	-37.3819	48.3128	-77.8412
  39	1	7	0.052051	-35.8193	48.3458	-78.5768
  40	1	2	-0.079385	-31.5562	45.6621	-76.8663
  41	1	7	-0.096983	-32.866	47.3865	-76.7743
  42	1	7	0.069866	-32.7234	46.995	-78.305
  43	1	2	-0.079851	-31.2519	46.2233	-75.545
  44	1	2	-0.424117	-30.3869	45.752	-77.9435
  45	1	1	-0.32128	-32.0737	44.3078	-76.6263
  46	1	7	0.133743	-30.809	45.584	-78.9168
  47	1	7	0.116477	-29.4353	45.1844	-77.8242
  48	1	7	0.082726	-30.0615	46.8013	-77.9147
  49	1	7	0.078262	-30.3199	45.6858	-75.2973
  50	1	7	-0.001602	-32.1571	46.0989	-74.8407
  51	1	7	0.028854	-30.9987	47.27	-75.6557
  52	1	3	0.315808	-30.391	43.1179	-75.9824
  53	1	3	0.28245	-34.8757	42.8169	-77.9098
  54	1	8	-0.039852	-33.7876	40.5191	-77.2715
  55	1	8	-0.059152	-31.1742	40.7174	-76.0998
  56	1	1	0.135239	-27.1817	30.3807	-74.8346
  57	1	1	-0.124676	-26.7754	30.7107	-76.128
  58	1	1	0.190416	-29.0293	31.4097	-76.7558
  59	1	1	-0.226961	-27.6723	31.2482	-77.0845
  60	1	1	-0.017982	-32.7163	32.3701	-75.9465
  61	1	1	-0.195812	-33.4327	33.5126	-76.2992
  62	1	1	-0.244042	-31.4207	32.5335	-75.4555
  63	1	1	0.131216	-32.7787	34.7523	-76.1735
  64	1	1	-0.480889	-30.7562	33.7648	-75.364
  65	1	1	0.420559	-31.4744	34.8935	-75.7234
  66	1	2	0.094496	-33.1814	30.9538	-75.8382
  67	1	3	0.181616	-34.4398	33.4276	-76.6998
  68	1	2	0.106535	-30.8603	31.226	-74.9356
  69	1	4	-0.32219	-33.3718	35.7829	-76.745
  70	1	3	0.25841	-29.7521	33.8458	-74.961
  71	1	1	0.380364	-32.8066	37.005	-76.7509
  72	1	1	-0.639904	-33.5723	38.1429	-77.1451
  73	1	1	0.40258	-31.498	37.1231	-76.3576
  74	1	1	0.235245	-32.9917	39.4137	-77.0117
  75	1	1	-0.64044	-30.9328	38.3626	-76.1281
  76	1	1	0.243455	-31.671	39.4855	-76.3933
  77	1	5	0.683739	-34.8906	38.0044	-77.6454
  78	1	4	-0.371861	-30.8862	36.0952	-75.7518
  79	1	5	0.675894	-29.6087	38.4685	-75.599
  80	1	6	-0.526708	-28.5229	38.7103	-75.225
  81	1	6	-0.532274	-35.9531	37.825	-78.013
  82	1	2	0.077971	-31.9032	30.1945	-75.4096
  83	1	1	-0.133879	-29.4751	31.0024	-75.497
  84	1	2	0.291414	-30.6553	31.1264	-73.4106
  85	1	7	0.054943	-32.1514	29.3797	-74.7022
  86	1	7	-0.083103	-31.472	29.7254	-76.306
  87	1	2	-0.229696	-33.6921	30.3756	-77.2034
  88	1	2	-0.134961	-34.2154	30.7955	-74.7177
  89	1	7	0.062626	-32.9528	30.5275	-78.0054
  90	1	7	0.065775	-34.6415	30.8293	-77.5221
  91	1	7	0.079929	-33.8662	29.2963	-77.1159
  92	1	7	0.050506	-33.8506	31.2931	-73.8072
  93	1	7	0.024431	-34.3768	29.7357	-74.4833
  94	1	7	0.052051	-35.1707	31.247	-75.0085
  95	1	2	-0.079385	-29.2823	30.4011	-73.2054
  96	1	7	-0.096983	-31.465	30.5605	-72.9346
  97	1	7	0.069866	-30.6964	32.1417	-72.9826
  98	1	2	-0.079851	-29.5092	28.8786	-72.9564
  99	1	2	-0.424117	-28.6322	31.1379	-72.0232
 100	1	1	-0.32128	-28.5645	30.5499	-74.5461
 101	1	7	0.133743	-27.612	30.7808	-71.8453
 102	1	7	0.116477	-29.2485	30.986	-71.1219
 103	1	7	0.082726	-28.6032	32.2137	-72.2409
 104	1	7	0.078262	-30.1127	28.704	-72.0612
 105	1	7	-0.001602	-28.5638	28.349	-72.8132
 106	1	7	0.028854	-30.0303	28.4078	-73.8038
 107	1	3	0.315808	-26.4649	30.0451	-74.0838
 108	1	3	0.28245	-29.7245	31.8478	-77.4762
 109	1	8	-0.039852	-27.2271	31.5637	-78.3405
 110	1	8	-0.059152	-25.4517	30.5718	-76.3993
 111	1	1	0.135239	-14.8724	32.2696	-80.8223
 112	1	1	-0.124676	-14.9877	33.5796	-80.329
 113	1	1	0.190416	-17.2288	33.785	-81.2748
 114	1	1	-0.226961	-16.1584	34.3448	-80.5583
 115	1	1	-0.017982	-20.3859	32.2028	-83.2314
 116	1	1	-0.195812	-21.7546	32.3516	-82.9416
 117	1	1	-0.244042	-19.5059	31.882	-82.2062
 118	1	1	0.131216	-22.2099	32.1145	-81.6291
 119	1	1	-0.480889	-19.9479	31.6658	-80.8827
 120	1	1	0.420559	-21.3095	31.7434	-80.6008
 121	1	2	0.094496	-19.6786	32.3662	-84.5654
 122	1	3	0.181616	-22.4689	32.606	-83.7197
 123	1	2	0.106535	-18.0784	31.7653	-82.7127
 124	1	4	-0.32219	-23.557	32.1663	-81.3407
 125	1	3	0.25841	-19.2706	31.3994	-80.0765
 126	1	1	0.380364	-24.0599	31.7682	-80.1263
 127	1	1	-0.639904	-25.4354	31.7978	-79.8456
 128	1	1	0.40258	-23.0902	31.3957	-79.1644
 129	1	1	0.235245	-25.8661	31.4254	-78.5778
 130	1	1	-0.64044	-23.5305	31.0095	-77.8799
 131	1	1	0.243455	-24.898	30.9919	-77.6133
 132	1	5	0.683739	-26.3629	32.2136	-80.8224
 133	1	4	-0.371861	-21.7595	31.462	-79.3487
 134	1	5	0.675894	-22.6147	30.7135	-76.8573
 135	1	6	-0.526708	-21.9346	30.4629	-75.9628
 136	1	6	-0.532274	-27.0501	32.5727	-81.6728
 137	1	2	0.077971	-18.1761	32.3837	-84.1559
 138	1	1	-0.133879	-17.0901	32.4961	-81.8178
 139	1	2	0.291414	-17.5151	30.2997	-82.7203
 140	1	7	0.054943	-17.5556	31.8498	-84.881
 141	1	7	-0.083103	-17.8176	33.4251	-84.1402
 142	1	2	-0.229696	-20.0634	33.6734	-85.2798
 143	1	2	-0.134961	-20.0069	31.176	-85.4793
 144	1	7	0.062626	-19.4831	33.763	-86.2094
 145	1	7	0.065775	-19.8601	34.5456	-84.6424
 146	1	7	0.079929	-21.126	33.681	-85.5429
 147	1	7	0.050506	-19.8505	30.2225	-84.9585
 148	1	7	0.024431	-19.3778	31.1802	-86.3824
 149	1	7	0.052051	-21.0535	31.2304	-85.8029
 150	1	2	-0.079385	-16.0205	30.4018	-82.234
 151	1	7	-0.096983	-17.6247	29.811	-83.6947
 152	1	7	0.069866	-18.0835	29.6995	-82.0075
 153	1	2	-0.079851	-15.0952	30.3625	-83.473
 154	1	2	-0.424117	-15.6845	29.2889	-81.2209
 155	1	1	-0.32128	-15.9513	31.7473	-81.5566
 156	1	7	0.133743	-15.8625	28.2846	-81.6389
 157	1	7	0.116477	-16.3014	29.4004	-80.321
 158	1	7	0.082726	-14.6306	29.3242	-80.9052
 159	1	7	0.078262	-15.3302	31.2031	-84.1385
 160	1	7	-0.001602	-15.1949	29.4202	-84.036
 161	1	7	0.028854	-14.0402	30.4815	-83.1903
 162	1	3	0.315808	-13.9784	31.6835	-80.645
 163	1	3	0.28245	-18.1365	34.3545	-81.4542
 164	1	8	-0.039852	-16.2116	35.6486	-80.0971
 165	1	8	-0.059152	-13.9538	34.119	-79.603
 166	1	1	0.135239	-7.76031	40.067	-72.3457
 167	1	1	-0.124676	-8.71872	39.4467	-71.5133
 168	1	1	0.190416	-10.5619	40.3601	-72.8498
 169	1	1	-0.226961	-10.1093	39.6135	-71.7431
 170	1	1	-0.017982	-11.9595	41.843	-76.1828
 171	1	1	-0.195812	-13.0279	41.34	-76.9422
 172	1	1	-0.244042	-10.897	41.0219	-75.8125
 173	1	1	0.131216	-12.9826	39.9846	-77.3385
 174	1	1	-0.480889	-10.8544	39.668	-76.2086
 175	1	1	0.420559	-11.9001	39.1552	-76.9844
 176	1	2	0.094496	-11.79	43.2422	-75.6514
 177	1	3	0.181616	-13.878	41.9607	-77.2234
 178	1	2	0.106535	-9.88865	41.7375	-74.9431
 179	1	4	-0.32219	-14.044	39.4533	-78.0568
 180	1	3	0.25841	-10.0276	39.0101	-75.9415
 181	1	1	0.380364	-14.0357	38.1258	-78.4002
 182	1	1	-0.639904	-15.1537	37.5625	-79.064
 183	1	1	0.40258	-12.8979	37.3296	-78.0949
 184	1	1	0.235245	-15.142	36.1985	-79.4147
 185	1	1	-0.64044	-12.8594	35.9822	-78.4887
 186	1	1	0.243455	-13.9891	35.4215	-79.1538
 187	1	5	0.683739	-16.2998	38.3814	-79.3693
 188	1	4	-0.371861	-11.8409	37.8574	-77.4028
 189	1	5	0.675894	-11.695	35.193	-78.222
 190	1	6	-0.526708	-10.7801	34.5022	-78.0456
 191	1	6	-0.532274	-17.1921	39.0814	-79.5937
 192	1	2	0.077971	-10.611	43.0866	-74.6315
 193	1	1	-0.133879	-9.5933	40.9471	-73.6839
 194	1	2	0.291414	-8.4737	41.9054	-75.5946
 195	1	7	0.054943	-9.90542	43.9259	-74.6726
 196	1	7	-0.083103	-11.0153	43.077	-73.6075
 197	1	2	-0.229696	-13.0802	43.7482	-74.964
 198	1	2	-0.134961	-11.3924	44.2095	-76.7951
 199	1	7	0.062626	-12.9026	44.7238	-74.4979
 200	1	7	0.065775	-13.4084	43.0534	-74.1767
 201	1	7	0.079929	-13.9004	43.8765	-75.6815
 202	1	7	0.050506	-10.4635	43.8977	-77.2912
 203	1	7	0.024431	-11.2568	45.2231	-76.4105
 204	1	7	0.052051	-12.1782	44.258	-77.5572
 205	1	2	-0.079385	-7.41317	41.5438	-74.4894
 206	1	7	-0.096983	-8.30393	42.9008	-76.0301
 207	1	7	0.069866	-8.40306	41.1893	-76.4239
 208	1	2	-0.079851	-6.82806	42.8373	-73.8681
 209	1	2	-0.424117	-6.28919	40.6515	-75.0814
 210	1	1	-0.32128	-8.23438	40.815	-73.4405
 211	1	7	0.133743	-6.7008	39.6974	-75.4336
 212	1	7	0.116477	-5.51754	40.4218	-74.3376
 213	1	7	0.082726	-5.78983	41.1368	-75.935
 214	1	7	0.078262	-6.28063	43.434	-74.611
 215	1	7	-0.001602	-6.12401	42.5884	-73.0641
 216	1	7	0.028854	-7.62861	43.4592	-73.4442
 217	1	3	0.315808	-6.69296	39.9417	-72.1643
 218	1	3	0.28245	-11.6199	40.4671	-73.0798
 219	1	8	-0.039852	-11.0274	39.0013	-70.9143
 220	1	8	-0.059152	-8.31101	38.6366	-70.4827
 221	1	1	0.135239	-7.81684	29.5861	-63.35
 222	1	1	-0.124676	-7.80817	29.0586	-64.6401
 223	1	1	0.190416	-9.60047	30.5884	-65.3183
 224	1	1	-0.226961	-8.66608	29.5829	-65.6314
 225	1	1	-0.017982	-12.1443	33.5435	-64.601
 226	1	1	-0.195812	-12.5849	34.5038	-65.5163
 227	1	1	-0.244042	-10.7829	33.2572	-64.452
 228	1	1	0.131216	-11.6274	35.1707	-66.301
 229	1	1	-0.480889	-9.8008	33.9319	-65.2137
 230	1	1	0.420559	-10.242	34.9268	-66.1092
 231	1	2	0.094496	-12.9977	32.7022	-63.6701
 232	1	3	0.181616	-13.6404	34.7431	-65.6133
 233	1	2	0.106535	-10.5351	32.1454	-63.4527
 234	1	4	-0.32219	-12.0358	36.1304	-67.188
 235	1	3	0.25841	-8.7338	33.7414	-65.1178
 236	1	1	0.380364	-11.1033	36.7459	-68.0229
 237	1	1	-0.639904	-11.562	37.5674	-69.0468
 238	1	1	0.40258	-9.71382	36.4929	-67.8327
 239	1	1	0.235245	-10.6175	38.1893	-69.9065
 240	1	1	-0.64044	-8.77265	37.1184	-68.676
 241	1	1	0.243455	-9.22996	37.9853	-69.6976
 242	1	5	0.683739	-12.9647	37.811	-69.191
 243	1	4	-0.371861	-9.3112	35.5949	-66.8759
 244	1	5	0.675894	-7.37295	36.8877	-68.4658
 245	1	6	-0.526708	-6.27531	36.6277	-68.2262
 246	1	6	-0.532274	-14.1223	37.8789	-69.2047
 247	1	2	0.077971	-11.9721	31.6206	-63.1764
 248	1	1	-0.133879	-9.6325	31.082	-64.0069
 249	1	2	0.291414	-9.78705	32.5573	-62.1504
 250	1	7	0.054943	-12.1352	31.3718	-62.1225
 251	1	7	-0.083103	-12.112	30.6921	-63.7424
 252	1	2	-0.229696	-14.192	32.0395	-64.4075
 253	1	2	-0.134961	-13.5147	33.5451	-62.4707
 254	1	7	0.062626	-13.8699	31.4382	-65.2714
 255	1	7	0.065775	-14.9228	32.7825	-64.7525
 256	1	7	0.079929	-14.7197	31.3671	-63.724
 257	1	7	0.050506	-14.0868	32.9047	-61.7861
 258	1	7	0.024431	-14.2	34.3269	-62.8174
 259	1	7	0.052051	-12.694	34.012	-61.9103
 260	1	2	-0.079385	-8.86569	31.3655	-61.7287
 261	1	7	-0.096983	-10.475	32.851	-61.3425
 262	1	7	0.069866	-9.16356	33.4394	-62.367
 263	1	2	-0.079851	-9.54463	30.4647	-60.681
 264	1	2	-0.424117	-7.49203	31.8421	-61.2105
 265	1	1	-0.32128	-8.72406	30.6247	-63.043
 266	1	7	0.133743	-6.85593	31.0113	-60.876
 267	1	7	0.116477	-7.62792	32.5168	-60.3535
 268	1	7	0.082726	-6.94086	32.3905	-61.9895
 269	1	7	0.078262	-9.72505	31.025	-59.7546
 270	1	7	-0.001602	-8.89598	29.6219	-60.4078
 271	1	7	0.028854	-10.5008	30.0571	-61.0418
 272	1	3	0.315808	-7.13411	29.1952	-62.5955
 273	1	3	0.28245	-10.2654	30.986	-66.0767
 274	1	8	-0.039852	-8.61422	29.0835	-66.8979
 275	1	8	-0.059152	-6.95856	28.023	-64.9541
 276	1	1	0.135239	-2.72515	18.1812	-69.5094
 277	1	1	-0.124676	-1.50488	18.8264	-69.7617
 278	1	1	0.190416	-2.65012	20.6934	-70.8486
 279	1	1	-0.226961	-1.45185	20.0678	-70.4258
 280	1	1	-0.017982	-6.2042	22.606	-71.657
 281	1	1	-0.195812	-6.67395	23.9172	-71.5167
 282	1	1	-0.244042	-5.52103	21.9747	-70.6367
 283	1	1	0.131216	-6.48434	24.5741	-70.287
 284	1	1	-0.480889	-5.2448	22.6362	-69.4254
 285	1	1	0.420559	-5.73414	23.9515	-69.2539
 286	1	2	0.094496	-6.40232	21.724	-72.8638
 287	1	3	0.181616	-7.22404	24.3982	-72.3157
 288	1	2	0.106535	-5.24331	20.5204	-70.9708
 289	1	4	-0.32219	-7.0402	25.8098	-70.0773
 290	1	3	0.25841	-4.73632	22.1449	-68.5943
 291	1	1	0.380364	-7.01247	26.3669	-68.8117
 292	1	1	-0.639904	-7.7973	27.5069	-68.5439
 293	1	1	0.40258	-6.2286	25.7565	-67.792
 294	1	1	0.235245	-7.77997	28.0304	-67.2327
 295	1	1	-0.64044	-6.17628	26.3001	-66.5069
 296	1	1	0.243455	-6.95523	27.449	-66.2217
 297	1	5	0.683739	-8.60548	28.0965	-69.5402
 298	1	4	-0.371861	-5.55064	24.5951	-68.0573
 299	1	5	0.675894	-5.42574	25.6779	-65.4686
 300	1	6	-0.526708	-4.83717	25.2978	-64.5406
 301	1	6	-0.532274	-9.30064	28.638	-70.2938
 302	1	2	0.077971	-5.51389	20.4881	-72.5065
 303	1	1	-0.133879	-3.86371	20.036	-70.5935
 304	1	2	0.291414	-6.1806	19.5484	-70.1877
 305	1	7	0.054943	-5.94648	19.5398	-72.8498
 306	1	7	-0.083103	-4.54603	20.5912	-73.0185
 307	1	2	-0.229696	-5.95636	22.4031	-74.1867
 308	1	2	-0.134961	-7.87892	21.2851	-72.9779
 309	1	7	0.062626	-4.91958	22.7711	-74.1254
 310	1	7	0.065775	-6.621	23.2401	-74.4507
 311	1	7	0.079929	-6.01337	21.6663	-74.9974
 312	1	7	0.050506	-8.52219	22.1304	-73.2509
 313	1	7	0.024431	-8.25575	20.848	-72.046
 314	1	7	0.052051	-7.99634	20.5324	-73.7754
 315	1	2	-0.079385	-5.34029	18.2887	-69.7792
 316	1	7	-0.096983	-7.08084	19.2681	-70.7457
 317	1	7	0.069866	-6.53851	20.0643	-69.2955
 318	1	2	-0.079851	-5.5977	17.1125	-70.7651
 319	1	2	-0.424117	-5.61806	17.8405	-68.3418
 320	1	1	-0.32128	-3.91542	18.8008	-69.948
 321	1	7	0.133743	-5.32611	18.6523	-67.6615
 322	1	7	0.116477	-5.01555	16.9672	-68.0675
 323	1	7	0.082726	-6.68003	17.6115	-68.1863
 324	1	7	0.078262	-6.63664	16.7562	-70.7341
 325	1	7	-0.001602	-4.93931	16.2664	-70.5361
 326	1	7	0.028854	-5.3711	17.4033	-71.8053
 327	1	3	0.315808	-2.76185	17.22	-69.0112
 328	1	3	0.28245	-2.65454	21.6552	-71.3543
 329	1	8	-0.039852	-0.247941	20.6653	-70.6713
 330	1	8	-0.059152	-0.34348	18.2166	-69.3586
 331	1	1	0.135239	9.52665	16.7135	-64.6434
 332	1	1	-0.124676	8.74613	17.4556	-63.7371
 333	1	1	0.190416	8.30935	19.1429	-65.476
 334	1	1	-0.226961	8.15833	18.6708	-64.1433
 335	1	1	-0.017982	8.09673	20.2316	-69.2144
 336	1	1	-0.195812	6.95696	20.7997	-69.8232
 337	1	1	-0.244042	7.97653	19.0466	-68.4921
 338	1	1	0.131216	5.72007	20.1294	-69.7068
 339	1	1	-0.480889	6.77174	18.3539	-68.3651
 340	1	1	0.420559	5.64417	18.8985	-68.9973
 341	1	2	0.094496	9.51142	20.7678	-69.1975
 342	1	3	0.181616	7.0115	21.7342	-70.3613
 343	1	2	0.106535	9.29386	18.6808	-67.8365
 344	1	4	-0.32219	4.56071	20.6919	-70.2171
 345	1	3	0.25841	6.67213	17.4443	-67.7801
 346	1	1	0.380364	3.33779	20.0796	-70.0213
 347	1	1	-0.639904	2.17201	20.6971	-70.4985
 348	1	1	0.40258	3.29369	18.8494	-69.3404
 349	1	1	0.235245	0.91658	20.08	-70.2447
 350	1	1	-0.64044	2.07003	18.2029	-69.1153
 351	1	1	0.243455	0.878429	18.8291	-69.5558
 352	1	5	0.683739	2.23489	21.9531	-71.1818
 353	1	4	-0.371861	4.43412	18.2594	-68.8543
 354	1	5	0.675894	2.02561	16.938	-68.4258
 355	1	6	-0.526708	1.83647	15.9468	-67.8702
 356	1	6	-0.532274	2.3658	22.9718	-71.7226
 357	1	2	0.077971	10.1819	19.9386	-68.0758
 358	1	1	-0.133879	9.09437	18.3893	-66.365
 359	1	2	0.291414	9.94442	17.3484	-68.3534
 360	1	7	0.054943	11.1979	19.6598	-68.3669
 361	1	7	-0.083103	10.2377	20.5271	-67.1519
 362	1	2	-0.229696	9.53019	22.2799	-68.8745
 363	1	2	-0.134961	10.1813	20.5027	-70.5643
 364	1	7	0.062626	8.99145	22.5054	-67.953
 365	1	7	0.065775	9.07315	22.8715	-69.6798
 366	1	7	0.079929	10.5546	22.6316	-68.7709
 367	1	7	0.050506	11.2225	20.8365	-70.5525
 368	1	7	0.024431	9.65136	21.0315	-71.3697
 369	1	7	0.052051	10.1746	19.4334	-70.7986
 370	1	2	-0.079385	10.4626	16.5542	-67.0877
 371	1	7	-0.096983	10.7616	17.5269	-69.0649
 372	1	7	0.069866	9.18005	16.7349	-68.866
 373	1	2	-0.079851	11.9763	16.7604	-66.8749
 374	1	2	-0.424117	10.1327	15.0435	-67.1747
 375	1	1	-0.32128	9.70256	17.1948	-65.955
 376	1	7	0.133743	10.5778	14.5805	-68.067
 377	1	7	0.116477	9.05216	14.8529	-67.2032
 378	1	7	0.082726	10.5232	14.4929	-66.3114
 379	1	7	0.078262	12.1963	17.8312	-66.7997
 380	1	7	-0.001602	12.5465	16.3589	-67.7271
 381	1	7	0.028854	12.3266	16.2869	-65.9511
 382	1	3	0.315808	9.98291	15.7763	-64.3395
 383	1	3	0.28245	7.8115	20.0511	-65.8163
 384	1	8	-0.039852	7.36086	19.3781	-63.2845
 385	1	8	-0.059152	8.50349	16.9899	-62.4804
 386	1	1	0.135239	2.96507	14.3549	-52.6445
 387	1	1	-0.124676	2.07241	13.8211	-53.5853
 388	1	1	0.190416	2.2278	15.874	-54.9304
 389	1	1	-0.226961	1.73333	14.5601	-54.7353
 390	1	1	-0.017982	3.69608	19.457	-55.6823
 391	1	1	-0.195812	4.01132	20.015	-56.9347
 392	1	1	-0.244042	4.17907	18.2123	-55.309
 393	1	1	0.131216	4.82342	19.2807	-57.8098
 394	1	1	-0.480889	4.98735	17.4562	-56.1761
 395	1	1	0.420559	5.34683	18.0211	-57.4171
 396	1	2	0.094496	2.83879	20.0871	-54.5834
 397	1	3	0.181616	3.64306	20.9856	-57.2335
 398	1	2	0.106535	3.67119	17.783	-53.9447
 399	1	4	-0.32219	5.13077	19.8056	-59.0465
 400	1	3	0.25841	5.38031	16.4818	-55.8949
 401	1	1	0.380364	5.96575	19.115	-59.8931
 402	1	1	-0.639904	6.23354	19.6338	-61.1723
 403	1	1	0.40258	6.51664	17.8498	-59.4885
 404	1	1	0.235245	7.09209	18.9045	-62.0272
 405	1	1	-0.64044	7.36346	17.1417	-60.3468
 406	1	1	0.243455	7.6593	17.6728	-61.6265
 407	1	5	0.683739	5.62115	20.8444	-61.5938
 408	1	4	-0.371861	6.18404	17.3333	-58.2581
 409	1	5	0.675894	7.8996	15.8908	-59.8864
 410	1	6	-0.526708	8.39645	14.8746	-59.6243
 411	1	6	-0.532274	5.15917	21.8227	-62.0152
 412	1	2	0.077971	2.5995	18.8694	-53.6176
 413	1	1	-0.133879	3.06884	16.4034	-53.9478
 414	1	2	0.291414	4.77794	17.6685	-52.8541
 415	1	7	0.054943	2.61366	19.174	-52.5624
 416	1	7	-0.083103	1.60565	18.4361	-53.8053
 417	1	2	-0.229696	1.49556	20.6262	-55.1385
 418	1	2	-0.134961	3.60902	21.2317	-53.8825
 419	1	7	0.062626	0.864032	20.9864	-54.3168
 420	1	7	0.065775	0.951283	19.8336	-55.6693
 421	1	7	0.079929	1.66793	21.456	-55.8372
 422	1	7	0.050506	4.58324	20.8943	-53.5084
 423	1	7	0.024431	3.03082	21.6294	-53.0375
 424	1	7	0.052051	3.75686	22.0684	-54.5732
 425	1	2	-0.079385	4.40694	16.4326	-51.9553
 426	1	7	-0.096983	4.88378	18.5864	-52.2641
 427	1	7	0.069866	5.74051	17.502	-53.3503
 428	1	2	-0.079851	3.66841	16.8669	-50.6707
 429	1	2	-0.424117	5.65	15.5857	-51.5922
 430	1	1	-0.32128	3.46305	15.6545	-52.8466
 431	1	7	0.133743	6.37686	16.1985	-51.0428
 432	1	7	0.116477	6.14906	15.2075	-52.4955
 433	1	7	0.082726	5.40384	14.7343	-50.9498
 434	1	7	0.078262	3.35648	15.9947	-50.0896
 435	1	7	-0.001602	2.76666	17.4491	-50.9111
 436	1	7	0.028854	4.31027	17.4903	-50.0351
 437	1	3	0.315808	3.25832	13.8032	-51.7567
 438	1	3	0.28245	1.97196	16.4726	-55.8056
 439	1	8	-0.039852	0.864671	14.0189	-55.6547
 440	1	8	-0.059152	1.5117	12.5866	-53.3881
 441	1	1	0.135239	-6.12158	4.38334	-52.2571
 442	1	1	-0.124676	-5.07704	3.54305	-52.702
 443	1	1	0.190416	-4.81439	4.87709	-54.7241
 444	1	1	-0.226961	-4.42615	3.78276	-53.9311
 445	1	1	-0.017982	-5.40385	8.4767	-56.5524
 446	1	1	-0.195812	-4.5147	9.43448	-57.0624
 447	1	1	-0.244042	-5.1878	7.91144	-55.2936
 448	1	1	0.131216	-3.38664	9.78122	-56.3119
 449	1	1	-0.480889	-4.0482	8.21185	-54.5387
 450	1	1	0.420559	-3.14246	9.15324	-55.0609
 451	1	2	0.094496	-6.68332	7.96821	-57.1943
 452	1	3	0.181616	-4.69179	9.92643	-58.015
 453	1	2	0.106535	-6.33143	6.99489	-54.9034
 454	1	4	-0.32219	-2.54163	10.7662	-56.7556
 455	1	3	0.25841	-3.85718	7.77726	-53.5595
 456	1	1	0.380364	-1.53012	11.2266	-55.9351
 457	1	1	-0.639904	-0.813222	12.3827	-56.2864
 458	1	1	0.40258	-1.23649	10.5384	-54.708
 459	1	1	0.235245	0.19649	12.8458	-55.3967
 460	1	1	-0.64044	-0.196868	10.9744	-53.8684
 461	1	1	0.243455	0.514962	12.1301	-54.212
 462	1	5	0.683739	-1.09239	13.1036	-57.4848
 463	1	4	-0.371861	-2.02324	9.46347	-54.3307
 464	1	5	0.675894	0.0879941	10.2657	-52.6674
 465	1	6	-0.526708	0.28887	9.65475	-51.7038
 466	1	6	-0.532274	-1.26306	13.7324	-58.4435
 467	1	2	0.077971	-7.06967	6.78046	-56.2586
 468	1	1	-0.133879	-5.86159	5.69987	-54.2477
 469	1	2	0.291414	-7.25569	7.62119	-53.8136
 470	1	7	0.054943	-8.15404	6.65505	-56.1524
 471	1	7	-0.083103	-6.71427	5.84155	-56.7146
 472	1	2	-0.229696	-6.44847	7.48204	-58.6546
 473	1	2	-0.134961	-7.75034	9.08197	-57.1568
 474	1	7	0.062626	-5.64235	6.73958	-58.6979
 475	1	7	0.065775	-6.14789	8.32194	-59.2941
 476	1	7	0.079929	-7.34632	7.04219	-59.0894
 477	1	7	0.050506	-8.7168	8.72119	-57.5283
 478	1	7	0.024431	-7.43246	9.92243	-57.7779
 479	1	7	0.052051	-7.89616	9.44684	-56.139
 480	1	2	-0.079385	-7.55886	6.50707	-52.7568
 481	1	7	-0.096983	-8.17802	8.06468	-54.2072
 482	1	7	0.069866	-6.69574	8.44112	-53.3346
 483	1	2	-0.079851	-8.97485	5.93403	-52.9635
 484	1	2	-0.424117	-7.41583	7.03195	-51.3181
 485	1	1	-0.32128	-6.49949	5.47248	-53.0483
 486	1	7	0.133743	-8.11511	7.85332	-51.1115
 487	1	7	0.116477	-6.39395	7.40061	-51.1525
 488	1	7	0.082726	-7.61432	6.24034	-50.5827
 489	1	7	0.078262	-9.07048	5.50704	-53.9703
 490	1	7	-0.001602	-9.75593	6.69478	-52.8299
 491	1	7	0.028854	-9.17421	5.1212	-52.2541
 492	1	3	0.315808	-6.60634	4.20545	-51.2961
 493	1	3	0.28245	-4.30522	5.12713	-55.6508
 494	1	8	-0.039852	-3.43123	2.94968	-54.3391
 495	1	8	-0.059152	-4.65472	2.51099	-51.8985
 496	1	1	0.135239	2.97288	-3.08234	-46.1204
 497	1	1	-0.124676	3.60617	-1.83552	-46.2267
 498	1	1	0.190416	3.42397	-1.92845	-48.6816
 499	1	1	-0.226961	3.8412	-1.25958	-47.5065
 500	1	1	-0.017982	2.0004	-3.05102	-51.8214
 501	1	1	-0.195812	1.43414	-2.20626	-52.7842
 502	1	1	-0.244042	1.43225	-3.15406	-50.5429
 503	1	1	0.131216	0.293504	-1.47646	-52.4621
 504	1	1	-0.480889	0.285041	-2.40695	-50.1946
 505	1	1	0.420559	-0.278207	-1.59224	-51.1705
 506	1	2	0.094496	3.24173	-3.911	-51.9866
 507	1	3	0.181616	1.85939	-2.12507	-53.779
 508	1	2	0.106535	2.27259	-4.03825	-49.6443
 509	1	4	-0.32219	-0.265709	-0.606427	-53.3863
 510	1	3	0.25841	-0.171826	-2.43048	-49.2088
 511	1	1	0.380364	-1.37467	0.181466	-53.0216
 512	1	1	-0.639904	-1.85997	1.14671	-53.9209
 513	1	1	0.40258	-1.96227	-0.000625863	-51.7284
 514	1	1	0.235245	-2.95413	1.95776	-53.5284
 515	1	1	-0.64044	-3.07543	0.746614	-51.3769
 516	1	1	0.243455	-3.57693	1.72998	-52.2755
 517	1	5	0.683739	-1.23507	1.34472	-55.1982
 518	1	4	-0.371861	-1.41257	-0.89542	-50.8534
 519	1	5	0.675894	-3.60569	0.531648	-50.0649
 520	1	6	-0.526708	-3.98563	0.282809	-49.0033
 521	1	6	-0.532274	-0.668335	1.42207	-56.21
 522	1	2	0.077971	3.40125	-4.57512	-50.5734
 523	1	1	-0.133879	2.82041	-3.16794	-48.563
 524	1	2	0.291414	1.47139	-5.16998	-48.8821
 525	1	7	0.054943	3.30928	-5.66408	-50.6753
 526	1	7	-0.083103	4.38233	-4.39329	-50.1215
 527	1	2	-0.229696	4.46	-3.07891	-52.3721
 528	1	2	-0.134961	2.98719	-4.99065	-53.0715
 529	1	7	0.062626	4.28618	-2.58417	-53.3354
 530	1	7	0.065775	5.36639	-3.69698	-52.4509
 531	1	7	0.079929	4.62381	-2.29847	-51.6254
 532	1	7	0.050506	2.84937	-4.5136	-54.0511
 533	1	7	0.024431	2.06886	-5.55358	-52.8621
 534	1	7	0.052051	3.8194	-5.70653	-53.1559
 535	1	2	-0.079385	1.90829	-5.14064	-47.3901
 536	1	7	-0.096983	1.58203	-6.16457	-49.3383
 537	1	7	0.069866	0.411259	-4.92159	-48.9847
 538	1	2	-0.079851	2.96266	-6.24345	-47.1303
 539	1	2	-0.424117	0.718427	-5.23016	-46.4409
 540	1	1	-0.32128	2.60109	-3.75866	-47.3065
 541	1	7	0.133743	0.0586358	-4.36687	-46.5957
 542	1	7	0.116477	1.04176	-5.24127	-45.3947
 543	1	7	0.082726	0.148839	-6.15012	-46.6372
 544	1	7	0.078262	2.52947	-7.24199	-47.2749
 545	1	7	-0.001602	3.31717	-6.19944	-46.0944
 546	1	7	0.028854	3.83538	-6.14137	-47.7921
 547	1	3	0.315808	2.7813	-3.52971	-45.1462
 548	1	3	0.28245	3.53911	-1.47887	-49.66
 549	1	8	-0.039852	4.47206	-0.0519807	-47.5983
 550	1	8	-0.059152	3.98284	-1.1533	-45.1112
 551	1	1	0.135239	7.8056	6.765	-37.4314
 552	1	1	-0.124676	6.55858	7.3976	-37.6097
 553	1	1	0.190416	6.72736	7.22918	-40.0319
 554	1	1	-0.226961	6.00934	7.63821	-38.8866
 555	1	1	-0.017982	8.626	5.97312	-43.3143
 556	1	1	-0.195812	8.14084	5.36406	-44.5119
 557	1	1	-0.244042	8.27511	5.47938	-42.0674
 558	1	1	0.131216	7.31478	4.23964	-44.3814
 559	1	1	-0.480889	7.44638	4.35108	-41.966
 560	1	1	0.420559	6.96261	3.72526	-43.1348
 561	1	2	0.094496	9.56199	7.1896	-43.2391
 562	1	3	0.181616	8.41005	5.75079	-45.4936
 563	1	2	0.106535	8.93867	6.25007	-40.9629
 564	1	4	-0.32219	6.8579	3.64014	-45.512
 565	1	3	0.25841	7.16515	3.93298	-40.9974
 566	1	1	0.380364	6.07858	2.45192	-45.4354
 567	1	1	-0.639904	5.66787	1.77639	-46.6207
 568	1	1	0.40258	5.7533	1.92809	-44.1122
 569	1	1	0.235245	4.90826	0.621382	-46.4699
 570	1	1	-0.64044	5.0153	0.743462	-43.9815
 571	1	1	0.243455	4.61304	0.094448	-45.1835
 572	1	5	0.683739	5.9948	2.32198	-47.8638
 573	1	4	-0.371861	6.17801	2.61985	-42.9958
 574	1	5	0.675894	4.73008	0.204471	-42.7321
 575	1	6	-0.526708	4.53444	-0.0292722	-41.6232
 576	1	6	-0.532274	6.24849	2.53997	-48.9647
 577	1	2	0.077971	9.55398	7.49364	-41.7112
 578	1	1	-0.133879	7.98815	6.63917	-39.8613
 579	1	2	0.291414	10.0169	5.43968	-40.2031
 580	1	7	0.054943	10.5293	7.78881	-41.3169
 581	1	7	-0.083103	8.89995	8.35224	-41.5344
 582	1	2	-0.229696	9.06816	8.37297	-44.0708
 583	1	2	-0.134961	10.9854	6.80711	-43.6631
 584	1	7	0.062626	9.13954	8.14188	-45.1375
 585	1	7	0.065775	9.66434	9.26216	-43.8477
 586	1	7	0.079929	8.01837	8.57469	-43.8388
 587	1	7	0.050506	11.3914	5.98529	-43.0559
 588	1	7	0.024431	11.6496	7.67489	-43.553
 589	1	7	0.052051	11.02	6.50952	-44.7146
 590	1	2	-0.079385	9.86633	5.75316	-38.6634
 591	1	7	-0.096983	11.0278	5.62819	-40.5876
 592	1	7	0.069866	9.84679	4.36796	-40.3718
 593	1	2	-0.079851	10.9676	6.74807	-38.1864
 594	1	2	-0.424117	9.91977	4.4713	-37.8243
 595	1	1	-0.32128	8.5023	6.39593	-38.5928
 596	1	7	0.133743	9.1146	3.77905	-38.1081
 597	1	7	0.116477	9.82171	4.68201	-36.7508
 598	1	7	0.082726	10.8846	3.96473	-37.9662
 599	1	7	0.078262	11.9596	6.2831	-38.26
 600	1	7	-0.001602	10.8306	7.02507	-37.1359
 601	1	7	0.028854	10.9888	7.67213	-38.7799
 602	1	3	0.315808	8.2295	6.59564	-36.439
 603	1	3	0.28245	6.33598	7.41393	-41.0264
 604	1	8	-0.039852	4.7856	8.27649	-39.0203
 605	1	8	-0.059152	5.87157	7.84771	-36.5157
 606	1	1	0.135239	-1.13429	13.53	-29.1414
 607	1	1	-0.124676	-1.77723	12.2963	-28.9704
 608	1	1	0.190416	-1.87368	11.9715	-31.3977
 609	1	1	-0.226961	-2.13598	11.5102	-30.0847
 610	1	1	-0.017982	-0.832227	13.1728	-35.1164
 611	1	1	-0.195812	-0.332623	12.4634	-36.2234
 612	1	1	-0.244042	-0.291127	12.9781	-33.8449
 613	1	1	0.131216	0.746775	11.5815	-36.0118
 614	1	1	-0.480889	0.791522	12.1041	-33.6364
 615	1	1	0.420559	1.32442	11.4099	-34.7261
 616	1	2	0.094496	-1.92913	14.2179	-35.116
 617	1	3	0.181616	-0.740613	12.5871	-37.2168
 618	1	2	0.106535	-0.930484	13.9207	-32.8421
 619	1	4	-0.32219	1.25383	10.911	-37.0922
 620	1	3	0.25841	1.24005	11.9543	-32.6442
 621	1	1	0.380364	2.39813	10.1562	-36.958
 622	1	1	-0.639904	2.97116	9.55673	-38.0925
 623	1	1	0.40258	2.94149	9.95067	-35.6678
 624	1	1	0.235245	4.15267	8.80632	-37.941
 625	1	1	-0.64044	4.08977	9.15921	-35.5114
 626	1	1	0.243455	4.71584	8.5954	-36.657
 627	1	5	0.683739	2.43284	9.79876	-39.4048
 628	1	4	-0.371861	2.38751	10.5524	-34.5469
 629	1	5	0.675894	4.63435	8.99074	-34.1892
 630	1	6	-0.526708	5.0159	8.91226	-33.0981
 631	1	6	-0.532274	2.04049	9.94766	-40.4755
 632	1	2	0.077971	-2.18649	14.4254	-33.5836
 633	1	1	-0.133879	-1.27806	13.2308	-31.5491
 634	1	2	0.291414	0.0146317	15.0811	-32.3734
 635	1	7	0.054943	-2.49218	15.4469	-33.2986
 636	1	7	-0.083103	-3.02241	13.7739	-33.2939
 637	1	2	-0.229696	-3.19504	13.6985	-35.8273
 638	1	2	-0.134961	-1.42757	15.5126	-35.8004
 639	1	7	0.062626	-3.51755	12.7672	-35.3519
 640	1	7	0.065775	-2.98974	13.4785	-36.8742
 641	1	7	0.079929	-4.00651	14.4249	-35.7626
 642	1	7	0.050506	-2.17789	16.3135	-35.7329
 643	1	7	0.024431	-1.19304	15.3486	-36.8579
 644	1	7	0.052051	-0.514342	15.8787	-35.3161