pySIMM System Object

2177 atoms
2434 bonds
4446 angles
7300 dihedrals
312 impropers

9 atom types
10 bond types
15 angle types
8 dihedral types
2 improper types

-193.691019 193.691019 xlo xhi
-193.691019 193.691019 ylo yhi
-193.691019 193.691019 zlo zhi

Masses

   1	12.01	# ca
   2	12.01	# c3
   3	1.008	# ha
   4	16.0	# os
   5	12.01	# cg
   6	14.01	# n1
   7	1.008	# hc
   8	16.0	# oh
   9	1.008	# ho

Pair Coeffs

   1	0.086	3.3996695084235347	# ca
   2	0.1094	3.3996695084235347	# c3
   3	0.015	2.59964245953351	# ha
   4	0.17	3.0000123434657784	# os
   5	0.21	3.3996695084235347	# cg
   6	0.17	3.249998523775958	# n1
   7	0.0157	2.649532787749369	# hc
   8	0.2104	3.0664733878390478	# oh
   9	0.0047	0.5379246460131368	# ho

Bond Coeffs

   1	371.4	0.973	# ho,oh
   2	461.1	1.3984	# ca,ca
   3	345.8	1.086	# ca,ha
   4	384.0	1.3637	# ca,oh
   5	300.9	1.5375	# c3,c3
   6	413.3	1.4328	# ca,cg
   7	943.1	1.1566	# cg,n1
   8	321.0	1.5156	# c3,ca
   9	330.6	1.0969	# c3,hc
  10	376.6	1.3696	# ca,os

Angle Coeffs

   1	58.92	179.49	# ca,cg,n1
   2	49.0	108.58	# ca,oh,ho
   3	62.86	111.51	# c3,c3,c3
   4	66.62	120.02	# ca,ca,ca
   5	63.53	120.77	# c3,ca,ca
   6	63.15	112.07	# c3,c3,ca
   7	46.34	109.8	# c3,c3,hc
   8	69.52	119.9	# ca,ca,oh
   9	63.56	112.24	# ca,c3,ca
  10	63.48	119.89	# ca,os,ca
  11	65.72	120.27	# ca,ca,cg
  12	48.18	119.88	# ca,ca,ha
  13	39.4	107.58	# hc,c3,hc
  14	69.58	119.2	# ca,ca,os
  15	63.5	119.89	# ca,oh,ca

Dihedral Coeffs

   1	1	0.9	2	180	# X,ca,os,X
   2	3	0.18	3	0	0.25	2	180	0.2	1	180	# c3,c3,c3,c3
   3	1	0.9	2	180	# X,ca,oh,X
   4	1	0.16	3	0	# hc,c3,c3,c3
   5	1	3.625	2	180	# X,ca,ca,X
   6	1	3.625	2	180	# X,cg,ca,ca
   7	1	0.15555555555555556	3	0	# X,c3,c3,X
   8	1	0.0	2	0	# X,c3,ca,X

Improper Coeffs

   1	1.1	-1	2	# ca,ca,ca,c3
   2	1.1	-1	2	# ca,X,X,ha

Atoms

   1	1	1	0.135239	77.4522	-3.75561	-63.2362
   2	1	1	-0.124676	76.3754	-3.60958	-64.1568
   3	1	1	0.190416	77.6824	-2.06199	-65.4898
   4	1	1	-0.226961	76.4948	-2.81758	-65.3267
   5	1	1	-0.017982	81.2585	-0.318272	-66.3955
   6	1	1	-0.195812	82.0057	-0.191435	-67.5881
   7	1	1	-0.244042	80.7012	-1.54528	-66.0192
   8	1	1	0.131216	82.1691	-1.3261	-68.3946
   9	1	1	-0.480889	80.7918	-2.66227	-66.8556
  10	1	1	0.420559	81.5429	-2.561	-68.0444
  11	1	2	0.094496	80.973	0.750242	-65.3535
  12	1	3	0.181616	82.487	0.738419	-67.8725
  13	1	2	0.106535	80.0484	-1.49464	-64.6532
  14	1	4	-0.32219	82.9616	-1.23722	-69.5207
  15	1	3	0.25841	80.3558	-3.6053	-66.57
  16	1	1	0.380364	83.0939	-2.32479	-70.3561
  17	1	1	-0.639904	83.8711	-2.21707	-71.5306
  18	1	1	0.40258	82.4862	-3.57364	-70.0092
  19	1	1	0.235245	84.0044	-3.34373	-72.3634
  20	1	1	-0.64044	82.6445	-4.69927	-70.8532
  21	1	1	0.243455	83.4213	-4.60742	-72.0179
  22	1	5	0.683739	84.4806	-0.977055	-71.9122
  23	1	4	-0.371861	81.6801	-3.65009	-68.8792
  24	1	5	0.675894	82.0492	-5.93073	-70.4917
  25	1	6	-0.526708	81.5353	-6.8836	-70.1263
  26	1	6	-0.532274	84.9922	-0.0157752	-72.2978
  27	1	2	0.077971	79.9409	0.0289098	-64.3832
  28	1	1	-0.133879	78.7268	-2.20332	-64.5789
  29	1	2	0.291414	80.9031	-2.21508	-63.5756
  30	1	7	0.054943	80.1138	0.297947	-63.3382
  31	1	7	-0.083103	78.9307	0.385437	-64.6381
  32	1	2	-0.229696	80.3431	2.02247	-65.9905
  33	1	2	-0.134961	82.2777	1.12988	-64.6169
  34	1	7	0.062626	79.4274	1.79805	-66.5613
  35	1	7	0.065775	81.0453	2.52668	-66.6694
  36	1	7	0.079929	80.0772	2.74407	-65.2183
  37	1	7	0.050506	82.0451	1.82931	-63.8163
  38	1	7	0.024431	82.9894	1.60243	-65.3141
  39	1	7	0.052051	82.7597	0.24501	-64.1671
  40	1	2	-0.079385	79.8914	-2.97937	-62.6447
  41	1	7	-0.096983	81.5292	-1.49506	-63.027
  42	1	7	0.069866	81.5716	-2.93935	-64.0543
  43	1	2	-0.079851	79.6948	-2.13226	-61.3569
  44	1	2	-0.424117	80.3686	-4.39288	-62.2662
  45	1	1	-0.32128	78.6439	-3.04914	-63.4844
  46	1	7	0.133743	80.5111	-5.02103	-63.1616
  47	1	7	0.116477	79.6554	-4.90403	-61.6061
  48	1	7	0.082726	81.3238	-4.35947	-61.7213
  49	1	7	0.078262	78.9772	-2.59616	-60.6838
  50	1	7	-0.001602	79.3156	-1.13111	-61.5863
  51	1	7	0.028854	80.6386	-2.00896	-60.8239
  52	1	3	0.315808	77.3811	-4.39015	-62.3585
  53	1	3	0.28245	77.8014	-1.37312	-66.315
  54	1	8	-0.039852	75.406	-2.6721	-66.1534
  55	1	8	-0.059152	75.2319	-4.2845	-63.8836
  56	1	1	0.135239	65.542	-9.96024	-65.0965
  57	1	1	-0.124676	66.5912	-10.7817	-65.5644
  58	1	1	0.190416	67.3951	-8.94858	-66.965
  59	1	1	-0.226961	67.5158	-10.2764	-66.4847
  60	1	1	-0.017982	67.5366	-5.15262	-67.9166
  61	1	1	-0.195812	68.7223	-4.43147	-68.1631
  62	1	1	-0.244042	67.4246	-5.94669	-66.7751
  63	1	1	0.131216	69.7792	-4.53908	-67.2538
  64	1	1	-0.480889	68.4476	-6.01984	-65.7974
  65	1	1	0.420559	69.6421	-5.32599	-66.0689
  66	1	2	0.094496	66.264	-5.23332	-68.8047
  67	1	3	0.181616	68.8261	-3.80767	-69.0387
  68	1	2	0.106535	66.1137	-6.67888	-66.7544
  69	1	4	-0.32219	70.9595	-3.84675	-67.4785
  70	1	3	0.25841	68.3519	-6.6166	-64.8772
  71	1	1	0.380364	72.0228	-3.97611	-66.5875
  72	1	1	-0.639904	73.214	-3.28093	-66.8496
  73	1	1	0.40258	71.8847	-4.81506	-65.4533
  74	1	1	0.235245	74.274	-3.38506	-65.9299
  75	1	1	-0.64044	72.9415	-4.92302	-64.5507
  76	1	1	0.243455	74.1519	-4.22171	-64.784
  77	1	5	0.683739	73.304	-2.43977	-68.0131
  78	1	4	-0.371861	70.6778	-5.43074	-65.1586
  79	1	5	0.675894	72.8213	-5.75994	-63.3975
  80	1	6	-0.526708	72.625	-6.43331	-62.4929
  81	1	6	-0.532274	73.5637	-1.75033	-68.8991
  82	1	2	0.077971	65.5096	-6.4404	-68.1942
  83	1	1	-0.133879	66.38	-8.13537	-66.4404
  84	1	2	0.291414	65.1545	-6.22959	-65.63
  85	1	7	0.054943	64.4204	-6.31083	-68.1712
  86	1	7	-0.083103	65.7046	-7.32387	-68.8013
  87	1	2	-0.229696	66.6459	-5.46321	-70.3151
  88	1	2	-0.134961	65.4637	-3.91788	-68.6539
  89	1	7	0.062626	65.7399	-5.66614	-70.8898
  90	1	7	0.065775	67.2953	-6.33968	-70.4366
  91	1	7	0.079929	67.1512	-4.58287	-70.7443
  92	1	7	0.050506	64.5439	-3.96295	-69.2497
  93	1	7	0.024431	66.054	-3.05808	-68.9755
  94	1	7	0.052051	65.1675	-3.74481	-67.6079
  95	1	2	-0.079385	64.4739	-7.5517	-65.1164
  96	1	7	-0.096983	64.4298	-5.46845	-65.9852
  97	1	7	0.069866	65.7408	-5.7628	-64.8224
  98	1	2	-0.079851	63.1105	-7.79597	-65.8355
  99	1	2	-0.424117	64.2032	-7.46558	-63.5829
 100	1	1	-0.32128	65.5052	-8.61589	-65.4871
 101	1	7	0.133743	65.171	-7.33091	-63.0565
 102	1	7	0.116477	63.6842	-8.36995	-63.2035
 103	1	7	0.082726	63.5558	-6.60462	-63.3637
 104	1	7	0.078262	62.6364	-8.69794	-65.4375
 105	1	7	-0.001602	63.2496	-7.9178	-66.9277
 106	1	7	0.028854	62.3987	-6.97443	-65.6939
 107	1	3	0.315808	64.8014	-10.3031	-64.3856
 108	1	3	0.28245	68.1118	-8.54798	-67.668
 109	1	8	-0.039852	68.5521	-11.0714	-66.9082
 110	1	8	-0.059152	66.7604	-12.0599	-65.0667
 111	1	1	0.135239	70.174	-22.7407	-62.4803
 112	1	1	-0.124676	70.9575	-22.1986	-61.4496
 113	1	1	0.190416	71.9733	-20.5718	-62.9479
 114	1	1	-0.226961	71.8078	-21.0864	-61.627
 115	1	1	-0.017982	72.0106	-18.775	-66.5156
 116	1	1	-0.195812	72.0625	-17.3947	-66.8492
 117	1	1	-0.244042	71.0395	-19.2527	-65.6372
 118	1	1	0.131216	71.0455	-16.5731	-66.3393
 119	1	1	-0.480889	70.0618	-18.4129	-65.0399
 120	1	1	0.420559	70.0761	-17.0609	-65.4179
 121	1	2	0.094496	72.8433	-19.8912	-67.1277
 122	1	3	0.181616	72.7886	-17.009	-67.5607
 123	1	2	0.106535	71.17	-20.7569	-65.4352
 124	1	4	-0.32219	70.9705	-15.2588	-66.7813
 125	1	3	0.25841	69.3	-18.7836	-64.3702
 126	1	1	0.380364	69.9061	-14.4332	-66.4046
 127	1	1	-0.639904	69.7568	-13.1427	-66.9186
 128	1	1	0.40258	68.9676	-14.9642	-65.4582
 129	1	1	0.235245	68.6672	-12.3373	-66.4735
 130	1	1	-0.64044	67.868	-14.2092	-65.0549
 131	1	1	0.243455	67.7426	-12.8691	-65.5236
 132	1	5	0.683739	70.7147	-12.6011	-67.8446
 133	1	4	-0.371861	69.0678	-16.2411	-64.9792
 134	1	5	0.675894	66.9701	-14.6866	-64.0589
 135	1	6	-0.526708	66.1667	-14.981	-63.2654
 136	1	6	-0.532274	71.5238	-12.2429	-68.5612
 137	1	2	0.077971	72.5371	-21.0692	-66.1465
 138	1	1	-0.133879	71.1769	-21.1823	-63.9603
 139	1	2	0.291414	69.964	-21.567	-66.0712
 140	1	7	0.054943	72.5946	-22.0508	-66.6377
 141	1	7	-0.083103	73.3196	-21.1185	-65.3599
 142	1	2	-0.229696	74.3457	-19.476	-67.1031
 143	1	2	-0.134961	72.3347	-20.2167	-68.5572
 144	1	7	0.062626	74.9963	-20.2517	-67.5352
 145	1	7	0.065775	74.7266	-19.2782	-66.0737
 146	1	7	0.079929	74.5425	-18.5542	-67.6836
 147	1	7	0.050506	72.4721	-19.3516	-69.2182
 148	1	7	0.024431	71.2766	-20.4948	-68.5116
 149	1	7	0.052051	72.8818	-21.0683	-68.9867
 150	1	2	-0.079385	69.6394	-22.7071	-65.0361
 151	1	7	-0.096983	70.1328	-21.9956	-67.0891
 152	1	7	0.069866	69.0963	-20.9071	-66.179
 153	1	2	-0.079851	70.2804	-24.0377	-65.4739
 154	1	2	-0.424117	68.1215	-22.92	-64.8052
 155	1	1	-0.32128	70.3202	-22.2225	-63.7463
 156	1	7	0.133743	67.8613	-23.7474	-64.1242
 157	1	7	0.116477	67.6267	-23.119	-65.7615
 158	1	7	0.082726	67.6049	-22.0497	-64.4019
 159	1	7	0.078262	70.064	-24.9006	-64.8013
 160	1	7	-0.001602	71.4042	-24.0084	-65.4978
 161	1	7	0.028854	69.8993	-24.3086	-66.4733
 162	1	3	0.315808	69.4161	-23.4977	-62.2463
 163	1	3	0.28245	72.6579	-19.7732	-63.1791
 164	1	8	-0.039852	72.5678	-20.6128	-60.5822
 165	1	8	-0.059152	70.8335	-22.7063	-60.1754
 166	1	1	0.135239	70.8943	-23.8591	-48.7114
 167	1	1	-0.124676	70.235	-22.6132	-48.6842
 168	1	1	0.190416	72.011	-21.6929	-50.2106
 169	1	1	-0.226961	70.8343	-21.5373	-49.4234
 170	1	1	-0.017982	74.9805	-22.0225	-52.5837
 171	1	1	-0.195812	75.1557	-21.4988	-53.836
 172	1	1	-0.244042	73.8536	-22.8484	-52.3098
 173	1	1	0.131216	74.2116	-21.8187	-54.8751
 174	1	1	-0.480889	73.0025	-23.2286	-53.2966
 175	1	1	0.420559	73.158	-22.7559	-54.6141
 176	1	2	0.094496	75.8579	-21.8344	-51.369
 177	1	3	0.181616	75.9818	-20.852	-54.0673
 178	1	2	0.106535	73.8972	-23.379	-50.9046
 179	1	4	-0.32219	74.3698	-21.2977	-56.1753
 180	1	3	0.25841	72.1785	-23.8895	-53.1223
 181	1	1	0.380364	73.4199	-21.5136	-57.1044
 182	1	1	-0.639904	73.4377	-20.8454	-58.3241
 183	1	1	0.40258	72.4203	-22.5128	-56.8419
 184	1	1	0.235245	72.5512	-21.2591	-59.3067
 185	1	1	-0.64044	71.5078	-22.8987	-57.8263
 186	1	1	0.243455	71.648	-22.3552	-59.1069
 187	1	5	0.683739	74.4197	-19.7847	-58.5688
 188	1	4	-0.371861	72.3203	-23.1349	-55.6382
 189	1	5	0.675894	70.4916	-23.884	-57.5357
 190	1	6	-0.526708	69.7686	-24.6881	-57.2069
 191	1	6	-0.532274	75.133	-18.9812	-58.885
 192	1	2	0.077971	75.1975	-22.759	-50.2805
 193	1	1	-0.133879	72.641	-22.9536	-50.2145
 194	1	2	0.291414	73.8629	-24.9402	-50.821
 195	1	7	0.054943	75.9366	-23.554	-50.0953
 196	1	7	-0.083103	74.9028	-22.2202	-49.3883
 197	1	2	-0.229696	75.8665	-20.3339	-51.0206
 198	1	2	-0.134961	77.358	-22.3118	-51.5492
 199	1	7	0.062626	76.3301	-20.111	-50.0418
 200	1	7	0.065775	74.8339	-19.9827	-50.9759
 201	1	7	0.079929	76.4212	-19.8004	-51.7917
 202	1	7	0.050506	77.9755	-22.1308	-50.6377
 203	1	7	0.024431	77.8207	-21.8078	-52.4132
 204	1	7	0.052051	77.3766	-23.3768	-51.8123
 205	1	2	-0.079385	72.9135	-25.2645	-49.5581
 206	1	7	-0.096983	74.8526	-25.3943	-50.8666
 207	1	7	0.069866	73.31	-25.2916	-51.7117
 208	1	2	-0.079851	73.7492	-25.4448	-48.2395
 209	1	2	-0.424117	72.0975	-26.5818	-49.8513
 210	1	1	-0.32128	72.1304	-23.9883	-49.4299
 211	1	7	0.133743	71.4717	-26.497	-50.7627
 212	1	7	0.116477	71.4399	-26.8975	-49.0285
 213	1	7	0.082726	72.7371	-27.4527	-50.0478
 214	1	7	0.078262	74.4486	-26.2782	-48.2913
 215	1	7	-0.001602	73.1038	-25.6299	-47.3704
 216	1	7	0.028854	74.311	-24.5372	-48.0441
 217	1	3	0.315808	70.502	-24.7544	-48.2328
 218	1	3	0.28245	72.4651	-20.8439	-50.761
 219	1	8	-0.039852	70.2107	-20.2952	-49.397
 220	1	8	-0.059152	69.0163	-22.4233	-48.0099
 221	1	1	0.135239	59.3987	-18.0645	-43.8923
 222	1	1	-0.124676	59.0299	-18.2501	-45.2474
 223	1	1	0.190416	61.0053	-17.1319	-46.0438
 224	1	1	-0.226961	59.8192	-17.7945	-46.2987
 225	1	1	-0.017982	64.5442	-15.4337	-45.4437
 226	1	1	-0.195812	65.6394	-15.6466	-46.3373
 227	1	1	-0.244042	63.8312	-16.484	-44.8839
 228	1	1	0.131216	65.9913	-16.9589	-46.6355
 229	1	1	-0.480889	64.2201	-17.78	-45.1393
 230	1	1	0.420559	65.2679	-18.043	-46.0792
 231	1	2	0.094496	63.8938	-14.0844	-45.1119
 232	1	3	0.181616	66.1808	-14.8153	-46.794
 233	1	2	0.106535	62.5575	-16.0907	-44.1838
 234	1	4	-0.32219	67.025	-17.2376	-47.4824
 235	1	3	0.25841	63.6619	-18.6025	-44.6762
 236	1	1	0.380364	67.4222	-18.5293	-47.7551
 237	1	1	-0.639904	68.5916	-18.7425	-48.5078
 238	1	1	0.40258	66.7771	-19.5873	-47.0782
 239	1	1	0.235245	69.0959	-20.0755	-48.5687
 240	1	1	-0.64044	67.3023	-20.8947	-47.125
 241	1	1	0.243455	68.4442	-21.1657	-47.8987
 242	1	5	0.683739	69.2869	-17.7029	-49.2432
 243	1	4	-0.371861	65.6713	-19.3489	-46.3123
 244	1	5	0.675894	66.7544	-21.968	-46.3608
 245	1	6	-0.526708	66.5247	-22.9621	-45.794
 246	1	6	-0.532274	69.7525	-16.799	-49.7203
 247	1	2	0.077971	62.4856	-14.5752	-44.5329
 248	1	1	-0.133879	61.3738	-16.8909	-44.6984
 249	1	2	0.291414	62.5773	-16.3702	-42.6458
 250	1	7	0.054943	62.191	-13.9971	-43.6678
 251	1	7	-0.083103	61.6894	-14.345	-45.2559
 252	1	2	-0.229696	63.6898	-13.222	-46.3923
 253	1	2	-0.134961	64.7124	-13.268	-44.0249
 254	1	7	0.062626	63.2125	-12.2577	-46.1281
 255	1	7	0.065775	63.1105	-13.7823	-47.133
 256	1	7	0.079929	64.6566	-13.0281	-46.9022
 257	1	7	0.050506	64.1844	-12.3781	-43.6519
 258	1	7	0.024431	65.6814	-12.8822	-44.3969
 259	1	7	0.052051	64.9482	-13.8995	-43.1612
 260	1	2	-0.079385	61.1309	-16.9303	-42.311
 261	1	7	-0.096983	62.7791	-15.5051	-42.0032
 262	1	7	0.069866	63.3677	-17.0921	-42.4467
 263	1	2	-0.079851	60.2467	-15.7609	-41.8605
 264	1	2	-0.424117	61.2153	-18.0881	-41.3188
 265	1	1	-0.32128	60.5865	-17.3609	-43.6401
 266	1	7	0.133743	60.1957	-18.308	-40.9589
 267	1	7	0.116477	61.8242	-17.8284	-40.4347
 268	1	7	0.082726	61.667	-18.922	-41.9086
 269	1	7	0.078262	59.1774	-15.9826	-41.8696
 270	1	7	-0.001602	60.3234	-14.8887	-42.5376
 271	1	7	0.028854	60.5421	-15.4063	-40.8462
 272	1	3	0.315808	58.7553	-18.479	-43.1059
 273	1	3	0.28245	61.6216	-16.7524	-46.8636
 274	1	8	-0.039852	59.4768	-18.1382	-47.5548
 275	1	8	-0.059152	57.9411	-19.0112	-45.5018
 276	1	1	0.135239	49.6534	-24.9525	-49.8419
 277	1	1	-0.124676	50.5109	-26.0403	-49.463
 278	1	1	0.190416	52.2874	-25.0437	-50.7605
 279	1	1	-0.226961	51.8528	-26.1289	-50.0116
 280	1	1	-0.017982	53.7305	-21.7542	-52.6358
 281	1	1	-0.195812	54.8656	-20.9859	-52.3752
 282	1	1	-0.244042	52.9905	-22.1961	-51.5041
 283	1	1	0.131216	55.2591	-20.7222	-51.0306
 284	1	1	-0.480889	53.2934	-21.8894	-50.1449
 285	1	1	0.420559	54.4905	-21.1962	-49.9373
 286	1	2	0.094496	53.1696	-22.1762	-53.9927
 287	1	3	0.181616	55.4346	-20.5439	-53.154
 288	1	2	0.106535	51.6732	-22.7507	-52.0089
 289	1	4	-0.32219	56.3842	-20.0388	-50.7445
 290	1	3	0.25841	52.6852	-22.218	-49.274
 291	1	1	0.380364	56.7437	-19.6516	-49.4528
 292	1	1	-0.639904	57.95	-18.9768	-49.2154
 293	1	1	0.40258	56.0274	-20.3117	-48.3543
 294	1	1	0.235245	58.2964	-18.803	-47.867
 295	1	1	-0.64044	56.3135	-20.01	-47.0398
 296	1	1	0.243455	57.5312	-19.3023	-46.8069
 297	1	5	0.683739	58.7616	-18.466	-50.2713
 298	1	4	-0.371861	54.8333	-21.0371	-48.6281
 299	1	5	0.675894	55.4753	-20.4402	-45.9551
 300	1	6	-0.526708	54.921	-20.6091	-44.9735
 301	1	6	-0.532274	59.6002	-18.006	-50.9269
 302	1	2	0.077971	51.9666	-23.0561	-53.4158
 303	1	1	-0.133879	51.4291	-23.9428	-51.0429
 304	1	2	0.291414	50.4269	-21.8453	-51.7856
 305	1	7	0.054943	51.0792	-22.8177	-53.986
 306	1	7	-0.083103	52.2258	-24.1175	-53.4572
 307	1	2	-0.229696	54.2598	-22.9596	-54.8013
 308	1	2	-0.134961	52.6751	-20.9383	-54.8055
 309	1	7	0.062626	55.2333	-22.4015	-55.0693
 310	1	7	0.065775	53.7833	-23.354	-55.7072
 311	1	7	0.079929	54.6254	-23.8441	-54.2078
 312	1	7	0.050506	51.9812	-21.2022	-55.5546
 313	1	7	0.024431	53.5276	-20.4404	-55.2875
 314	1	7	0.052051	52.199	-20.1808	-54.1494
 315	1	2	-0.079385	49.3412	-22.7206	-51.0392
 316	1	7	-0.096983	49.9741	-21.4254	-52.7337
 317	1	7	0.069866	50.7835	-21.0512	-51.1071
 318	1	2	-0.079851	48.3032	-23.2851	-52.0019
 319	1	2	-0.424117	48.7678	-22.0319	-49.7829
 320	1	1	-0.32128	50.1263	-23.8925	-50.5789
 321	1	7	0.133743	48.1904	-22.7273	-49.1075
 322	1	7	0.116477	48.054	-21.2445	-50.1087
 323	1	7	0.082726	49.5266	-21.526	-49.2296
 324	1	7	0.078262	47.6372	-22.4645	-52.2076
 325	1	7	-0.001602	47.6667	-24.0523	-51.6142
 326	1	7	0.028854	48.6346	-23.5325	-53.0403
 327	1	3	0.315808	48.6234	-24.9936	-49.5372
 328	1	3	0.28245	53.3578	-25.0104	-51.0202
 329	1	8	-0.039852	52.6652	-27.0682	-49.522
 330	1	8	-0.059152	50.1404	-27.0524	-48.5797
 331	1	1	0.135239	51.0226	-32.9616	-39.1776
 332	1	1	-0.124676	51.4921	-31.7084	-38.756
 333	1	1	0.190416	53.1546	-31.7667	-40.6147
 334	1	1	-0.226961	52.5795	-31.1198	-39.4617
 335	1	1	-0.017982	54.2655	-33.1883	-44.0599
 336	1	1	-0.195812	54.5073	-32.3536	-45.1731
 337	1	1	-0.244042	53.0054	-33.1633	-43.5075
 338	1	1	0.131216	53.5568	-31.45	-45.7345
 339	1	1	-0.480889	51.9869	-32.2691	-44.0244
 340	1	1	0.420559	52.2774	-31.4608	-45.1393
 341	1	2	0.094496	55.2403	-34.1314	-43.2874
 342	1	3	0.181616	55.5475	-32.3995	-45.5656
 343	1	2	0.106535	53.0079	-33.8761	-42.1629
 344	1	4	-0.32219	53.8122	-30.6878	-46.8034
 345	1	3	0.25841	51.0996	-31.9876	-43.4461
 346	1	1	0.380364	52.9236	-29.767	-47.2335
 347	1	1	-0.639904	53.2739	-28.8542	-48.2597
 348	1	1	0.40258	51.66	-29.635	-46.57
 349	1	1	0.235245	52.2558	-27.9971	-48.6607
 350	1	1	-0.64044	50.5869	-28.7782	-47.1133
 351	1	1	0.243455	50.9998	-27.8396	-47.9885
 352	1	5	0.683739	54.6059	-28.8859	-48.9077
 353	1	4	-0.371861	51.343	-30.5404	-45.5605
 354	1	5	0.675894	49.312	-28.5507	-46.4816
 355	1	6	-0.526708	48.289	-28.2481	-46.1695
 356	1	6	-0.532274	55.5536	-29.2547	-49.2791
 357	1	2	0.077971	54.5442	-34.4052	-42.0063
 358	1	1	-0.133879	52.6769	-32.9993	-40.9723
 359	1	2	0.291414	51.8743	-35.0262	-42.1641
 360	1	7	0.054943	54.5999	-35.411	-41.5707
 361	1	7	-0.083103	55.0665	-33.7092	-41.3155
 362	1	2	-0.229696	56.6866	-33.4536	-43.2009
 363	1	2	-0.134961	55.2857	-35.4892	-44.0935
 364	1	7	0.062626	57.2433	-33.538	-44.2159
 365	1	7	0.065775	57.2488	-33.9575	-42.4514
 366	1	7	0.079929	56.6665	-32.3508	-43.0765
 367	1	7	0.050506	54.2938	-35.8457	-44.2845
 368	1	7	0.024431	55.6569	-36.3509	-43.4927
 369	1	7	0.052051	55.8922	-35.4517	-45.0128
 370	1	2	-0.079385	51.3331	-35.0484	-40.7322
 371	1	7	-0.096983	52.3265	-35.9052	-42.5597
 372	1	7	0.069866	51.04	-34.8684	-42.9467
 373	1	2	-0.079851	52.1116	-36.0643	-39.809
 374	1	2	-0.424117	49.7896	-35.3805	-40.7143
 375	1	1	-0.32128	51.6389	-33.636	-40.2813
 376	1	7	0.133743	49.2773	-34.646	-41.3049
 377	1	7	0.116477	49.4067	-35.4776	-39.6791
 378	1	7	0.082726	49.6587	-36.2999	-41.2526
 379	1	7	0.078262	52.1673	-35.8055	-38.7507
 380	1	7	-0.001602	53.1163	-36.2134	-40.1692
 381	1	7	0.028854	51.7127	-37.06	-40.128
 382	1	3	0.315808	50.0916	-33.3754	-38.736
 383	1	3	0.28245	53.966	-31.3198	-41.2642
 384	1	8	-0.039852	52.9102	-29.7869	-39.1417
 385	1	8	-0.059152	50.91	-30.976	-37.7163
 386	1	1	0.135239	47.0002	-22.8056	-30.5404
 387	1	1	-0.124676	46.1561	-22.31	-31.5425
 388	1	1	0.190416	48.069	-22.2808	-33.1832
 389	1	1	-0.226961	46.6766	-22.1227	-32.893
 390	1	1	-0.017982	51.875	-23.2126	-34.1072
 391	1	1	-0.195812	52.3179	-23.9309	-35.2597
 392	1	1	-0.244042	50.8255	-23.7858	-33.3175
 393	1	1	0.131216	51.7953	-25.1404	-35.6603
 394	1	1	-0.480889	50.2567	-25.0423	-33.7124
 395	1	1	0.420559	50.7375	-25.6731	-34.8902
 396	1	2	0.094496	52.4375	-22.0021	-33.3889
 397	1	3	0.181616	53.1556	-23.4921	-35.8291
 398	1	2	0.106535	50.4078	-22.9109	-32.1738
 399	1	4	-0.32219	52.4223	-25.7049	-36.6864
 400	1	3	0.25841	49.4213	-25.5582	-33.1294
 401	1	1	0.380364	51.9519	-26.9062	-37.0144
 402	1	1	-0.639904	52.7344	-27.6845	-37.8429
 403	1	1	0.40258	50.9731	-27.5409	-36.2055
 404	1	1	0.235245	52.3409	-29.0498	-38.2034
 405	1	1	-0.64044	50.5889	-28.9463	-36.4793
 406	1	1	0.243455	51.3407	-29.6544	-37.3705
 407	1	5	0.683739	53.8608	-27.0333	-38.5168
 408	1	4	-0.371861	50.2914	-26.9317	-35.2056
 409	1	5	0.675894	49.6451	-29.5022	-35.559
 410	1	6	-0.526708	48.9701	-30.1501	-34.844
 411	1	6	-0.532274	54.8867	-26.6388	-38.9965
 412	1	2	0.077971	51.2858	-21.675	-32.4079
 413	1	1	-0.133879	48.9128	-22.6623	-32.1388
 414	1	2	0.291414	50.6777	-23.7242	-30.8146
 415	1	7	0.054943	51.7439	-21.3925	-31.4727
 416	1	7	-0.083103	50.7066	-20.8328	-32.6657
 417	1	2	-0.229696	52.6795	-21.0046	-34.3898
 418	1	2	-0.134961	53.7048	-22.2694	-32.5722
 419	1	7	0.062626	53.4509	-21.3226	-35.1211
 420	1	7	0.065775	52.9763	-20.0125	-34.0426
 421	1	7	0.079929	51.7352	-20.8589	-34.9321
 422	1	7	0.050506	53.4027	-22.7431	-31.6308
 423	1	7	0.024431	54.1502	-21.3212	-32.3322
 424	1	7	0.052051	54.3516	-22.9689	-33.1425
 425	1	2	-0.079385	49.4322	-23.5272	-29.9789
 426	1	7	-0.096983	51.4942	-23.2631	-30.2963
 427	1	7	0.069866	50.8517	-24.7548	-31.0498
 428	1	2	-0.079851	49.6507	-22.3748	-28.9769
 429	1	2	-0.424117	48.9834	-24.7727	-29.2169
 430	1	1	-0.32128	48.3329	-22.9912	-30.8837
 431	1	7	0.133743	49.6817	-25.2826	-28.5555
 432	1	7	0.116477	48.8048	-25.4231	-30.0183
 433	1	7	0.082726	48.0787	-24.6377	-28.6272
 434	1	7	0.078262	50.3775	-22.5226	-28.1729
 435	1	7	-0.001602	48.7647	-22.1037	-28.4131
 436	1	7	0.028854	49.961	-21.5116	-29.5091
 437	1	3	0.315808	46.691	-23.045	-29.5409
 438	1	3	0.28245	48.4823	-22.2537	-34.2365
 439	1	8	-0.039852	45.835	-21.7251	-33.8711
 440	1	8	-0.059152	44.8652	-22.0075	-31.2941
 441	1	1	0.135239	33.5128	-20.6452	-32.4763
 442	1	1	-0.124676	33.272	-21.8884	-33.1072
 443	1	1	0.190416	35.1024	-21.4424	-34.7224
 444	1	1	-0.226961	34.0912	-22.3014	-34.2111
 445	1	1	-0.017982	38.027	-19.2676	-35.9747
 446	1	1	-0.195812	39.3958	-19.5229	-36.2617
 447	1	1	-0.244042	37.4775	-19.4952	-34.7605
 448	1	1	0.131216	40.1569	-20.0305	-35.155
 449	1	1	-0.480889	38.2591	-20.1002	-33.7598
 450	1	1	0.420559	39.6552	-20.3072	-33.9281
 451	1	2	0.094496	37.1933	-18.4481	-36.8521
 452	1	3	0.181616	39.8946	-19.274	-37.213
 453	1	2	0.106535	36.0267	-19.0737	-34.647
 454	1	4	-0.32219	41.4843	-20.229	-35.3614
 455	1	3	0.25841	37.7701	-20.3817	-32.8439
 456	1	1	0.380364	42.2477	-20.7563	-34.3862
 457	1	1	-0.639904	43.6695	-20.8972	-34.5314
 458	1	1	0.40258	41.7181	-21.0294	-33.0302
 459	1	1	0.235245	44.5304	-21.5245	-33.5972
 460	1	1	-0.64044	42.6025	-21.3909	-32.0438
 461	1	1	0.243455	43.9647	-21.5918	-32.2977
 462	1	5	0.683739	44.2787	-20.6399	-35.8245
 463	1	4	-0.371861	40.5103	-20.6155	-32.8359
 464	1	5	0.675894	42.0039	-21.723	-30.7679
 465	1	6	-0.526708	41.4191	-21.873	-29.8281
 466	1	6	-0.532274	44.8378	-20.433	-36.8474
 467	1	2	0.077971	35.7898	-18.6518	-36.1264
 468	1	1	-0.133879	35.151	-20.1326	-34.1802
 469	1	2	0.291414	35.7854	-17.9199	-33.649
 470	1	7	0.054943	35.0561	-17.91	-36.3017
 471	1	7	-0.083103	35.3492	-19.4666	-36.544
 472	1	2	-0.229696	37.0452	-19.0029	-38.3024
 473	1	2	-0.134961	37.6158	-16.9098	-36.8821
 474	1	7	0.062626	36.6385	-20.0421	-38.2868
 475	1	7	0.065775	38.0208	-19.0962	-38.7136
 476	1	7	0.079929	36.3483	-18.3505	-38.8503
 477	1	7	0.050506	36.8233	-16.2447	-37.2605
 478	1	7	0.024431	38.4774	-16.8504	-37.5454
 479	1	7	0.052051	38.0128	-16.6239	-35.8961
 480	1	2	-0.079385	34.5224	-18.2407	-32.7524
 481	1	7	-0.096983	35.5666	-17.0549	-34.3053
 482	1	7	0.069866	36.6988	-17.6277	-33.1448
 483	1	2	-0.079851	33.2182	-17.4344	-33.0175
 484	1	2	-0.424117	34.8958	-18.2712	-31.2424
 485	1	1	-0.32128	34.2726	-19.6901	-33.1688
 486	1	7	0.133743	35.6188	-19.0924	-31.0229
 487	1	7	0.116477	34.0217	-18.3641	-30.5582
 488	1	7	0.082726	35.4294	-17.3607	-30.987
 489	1	7	0.078262	32.9204	-17.5013	-34.0694
 490	1	7	-0.001602	33.4064	-16.3823	-32.7872
 491	1	7	0.028854	32.432	-17.8056	-32.3543
 492	1	3	0.315808	32.9914	-20.3851	-31.5719
 493	1	3	0.28245	35.771	-21.7249	-35.4904
 494	1	8	-0.039852	33.9442	-23.5793	-34.6912
 495	1	8	-0.059152	32.3631	-22.7834	-32.5498
 496	1	1	0.135239	26.7031	-31.9478	-29.6575
 497	1	1	-0.124676	27.9675	-32.1519	-29.1123
 498	1	1	0.190416	29.0122	-31.8519	-31.2964
 499	1	1	-0.226961	29.1044	-32.1267	-29.9181
 500	1	1	-0.017982	29.0238	-30.4577	-34.872
 501	1	1	-0.195812	30.0188	-29.6288	-35.3794
 502	1	1	-0.244042	28.3705	-30.1179	-33.6898
 503	1	1	0.131216	30.3194	-28.4308	-34.7051
 504	1	1	-0.480889	28.6096	-28.8647	-33.0508
 505	1	1	0.420559	29.5315	-27.9976	-33.6222
 506	1	2	0.094496	28.6443	-31.8507	-35.3966
 507	1	3	0.181616	30.6197	-29.8691	-36.2373
 508	1	2	0.106535	27.4311	-31.2177	-33.2508
 509	1	4	-0.32219	31.3632	-27.6558	-35.1772
 510	1	3	0.25841	28.0826	-28.5518	-32.1502
 511	1	1	0.380364	31.6607	-26.387	-34.5512
 512	1	1	-0.639904	32.729	-25.5277	-35.0212
 513	1	1	0.40258	30.8891	-26.0494	-33.3452
 514	1	1	0.235245	33.0664	-24.473	-34.2538
 515	1	1	-0.64044	31.081	-24.8148	-32.7833
 516	1	1	0.243455	32.262	-24.0273	-33.1897
 517	1	5	0.683739	33.5185	-25.9367	-36.0966
 518	1	4	-0.371861	29.7936	-26.8481	-33.012
 519	1	5	0.675894	30.4348	-24.4703	-31.5418
 520	1	6	-0.526708	29.9421	-23.8834	-30.6541
 521	1	6	-0.532274	34.2422	-26.1008	-36.9468
 522	1	2	0.077971	27.7205	-32.374	-34.281
 523	1	1	-0.133879	27.7459	-31.6135	-31.8204
 524	1	2	0.291414	25.9352	-30.758	-33.1611
 525	1	7	0.054943	26.7903	-32.7412	-34.7063
 526	1	7	-0.083103	28.1697	-33.2441	-33.7826
 527	1	2	-0.229696	29.9419	-32.6815	-35.4983
 528	1	2	-0.134961	27.9552	-31.7132	-36.7717
 529	1	7	0.062626	30.4096	-32.7727	-34.5164
 530	1	7	0.065775	30.6642	-32.2453	-36.203
 531	1	7	0.079929	29.7102	-33.6889	-35.8831
 532	1	7	0.050506	28.6051	-31.2519	-37.5212
 533	1	7	0.024431	27.0264	-31.1195	-36.7428
 534	1	7	0.052051	27.6777	-32.7007	-37.1653
 535	1	2	-0.079385	25.3866	-31.2871	-31.7965
 536	1	7	-0.096983	25.3525	-30.9958	-34.0633
 537	1	7	0.069866	25.9182	-29.6727	-33.1079
 538	1	2	-0.079851	24.4881	-32.5048	-32.0572
 539	1	2	-0.424117	24.5373	-30.16	-31.1142
 540	1	1	-0.32128	26.6329	-31.608	-31.0019
 541	1	7	0.133743	23.7868	-29.813	-31.853
 542	1	7	0.116477	25.1605	-29.3082	-30.8106
 543	1	7	0.082726	23.9983	-30.5193	-30.2124
 544	1	7	0.078262	24.1209	-32.9754	-31.1389
 545	1	7	-0.001602	25.0156	-33.2919	-32.6256
 546	1	7	0.028854	23.6108	-32.1997	-32.6375
 547	1	3	0.315808	25.799	-31.9831	-29.03
 548	1	3	0.28245	29.8991	-31.7886	-31.9241
 549	1	8	-0.039852	30.3494	-32.2885	-29.3696
 550	1	8	-0.059152	28.0942	-32.3295	-27.7758
 551	1	1	0.135239	33.0659	-30.173	-17.533
 552	1	1	-0.124676	33.3434	-28.9287	-18.1809
 553	1	1	0.190416	34.0906	-30.174	-20.1725
 554	1	1	-0.226961	33.8727	-28.9219	-19.507
 555	1	1	-0.017982	34.8234	-33.1211	-22.2712
 556	1	1	-0.195812	34.6888	-33.1168	-23.6478
 557	1	1	-0.244042	33.7643	-32.8596	-21.4407
 558	1	1	0.131216	33.3924	-32.9584	-24.1879
 559	1	1	-0.480889	32.4447	-32.7089	-21.928
 560	1	1	0.420559	32.2756	-32.8006	-23.3389
 561	1	2	0.094496	36.1309	-33.228	-21.4801
 562	1	3	0.181616	35.558	-33.2166	-24.3007
 563	1	2	0.106535	34.1806	-32.7693	-19.9752
 564	1	4	-0.32219	33.1975	-33.0528	-25.5746
 565	1	3	0.25841	31.5795	-32.6045	-21.2753
 566	1	1	0.380364	31.956	-32.7877	-26.0964
 567	1	1	-0.639904	31.7888	-32.7195	-27.5149
 568	1	1	0.40258	30.8221	-32.7355	-25.2453
 569	1	1	0.235245	30.4968	-32.4416	-28.0434
 570	1	1	-0.64044	29.5252	-32.5426	-25.7868
 571	1	1	0.243455	29.3388	-32.4792	-27.1974
 572	1	5	0.683739	32.907	-32.8625	-28.4138
 573	1	4	-0.371861	31.0023	-32.7561	-23.8959
 574	1	5	0.675894	28.4211	-32.4201	-24.9014
 575	1	6	-0.526708	27.5544	-32.3336	-24.1102
 576	1	6	-0.532274	33.6928	-32.9135	-29.2828
 577	1	2	0.077971	35.6746	-33.1027	-19.9726
 578	1	1	-0.133879	33.9181	-31.3732	-19.4873
 579	1	2	0.291414	33.3846	-33.6756	-18.9633
 580	1	7	0.054943	35.8534	-34.0579	-19.4638
 581	1	7	-0.083103	36.1921	-32.2579	-19.4545
 582	1	2	-0.229696	37.0551	-32.0634	-21.8823
 583	1	2	-0.134961	36.8927	-34.5653	-21.7779
 584	1	7	0.062626	37.9661	-31.9397	-21.2713
 585	1	7	0.065775	36.4604	-31.1469	-21.7604
 586	1	7	0.079929	37.3565	-32.108	-22.9416
 587	1	7	0.050506	37.7657	-34.7732	-21.1343
 588	1	7	0.024431	37.1664	-34.6104	-22.8295
 589	1	7	0.052051	36.1865	-35.4033	-21.6405
 590	1	2	-0.079385	33.2019	-32.7891	-17.683
 591	1	7	-0.096983	33.8683	-34.6863	-18.8174
 592	1	7	0.069866	32.4294	-33.9577	-19.4277
 593	1	2	-0.079851	34.3382	-33.1033	-16.65
 594	1	2	-0.424117	31.7697	-33.0004	-17.0897
 595	1	1	-0.32128	33.3599	-31.3688	-18.2149
 596	1	7	0.133743	31.5773	-32.3428	-16.2224
 597	1	7	0.116477	31.5852	-34.0459	-16.7862
 598	1	7	0.082726	30.9668	-32.8066	-17.825
 599	1	7	0.078262	34.1959	-32.5017	-15.746
 600	1	7	-0.001602	35.3286	-32.934	-17.0761
 601	1	7	0.028854	34.3041	-34.1586	-16.347
 602	1	3	0.315808	32.6409	-30.1789	-16.5204
 603	1	3	0.28245	34.4392	-30.2054	-21.196
 604	1	8	-0.039852	34.1131	-27.7035	-20.1007
 605	1	8	-0.059152	33.08	-27.7064	-17.6052
 606	1	1	0.135239	30.7558	-16.5586	-15.4777
 607	1	1	-0.124676	29.5979	-17.0564	-16.0392
 608	1	1	0.190416	30.8801	-18.252	-17.6951
 609	1	1	-0.226961	29.6536	-17.9408	-17.149
 610	1	1	-0.017982	34.3702	-19.2758	-19.4592
 611	1	1	-0.195812	34.6347	-20.5435	-20.0917
 612	1	1	-0.244042	33.7418	-19.2572	-18.2028
 613	1	1	0.131216	34.234	-21.7253	-19.4657
 614	1	1	-0.480889	33.4608	-20.4355	-17.492
 615	1	1	0.420559	33.682	-21.6746	-18.1642
 616	1	2	0.094496	34.6185	-17.8375	-19.97
 617	1	3	0.181616	35.1269	-20.6133	-21.0399
 618	1	2	0.106535	33.4885	-17.8561	-17.7035
 619	1	4	-0.32219	34.5022	-22.9132	-20.0828
 620	1	3	0.25841	32.9794	-20.3945	-16.5008
 621	1	1	0.380364	34.1758	-24.1222	-19.4201
 622	1	1	-0.639904	34.3037	-25.3527	-20.1331
 623	1	1	0.40258	33.5786	-24.0741	-18.1452
 624	1	1	0.235245	33.9698	-26.5486	-19.5066
 625	1	1	-0.64044	33.2166	-25.3167	-17.5815
 626	1	1	0.243455	33.4234	-26.5243	-18.2154
 627	1	5	0.683739	34.8959	-25.3098	-21.4115
 628	1	4	-0.371861	33.3296	-22.8563	-17.5129
 629	1	5	0.675894	32.5547	-25.2281	-16.2503
 630	1	6	-0.526708	32.1806	-25.4352	-15.1678
 631	1	6	-0.532274	35.4176	-25.4963	-22.4593
 632	1	2	0.077971	33.7913	-16.9935	-18.9302
 633	1	1	-0.133879	32.0612	-17.6627	-17.1891
 634	1	2	0.291414	34.3543	-17.3235	-16.5217
 635	1	7	0.054943	34.428	-16.1564	-18.606
 636	1	7	-0.083103	32.88	-16.5419	-19.3518
 637	1	2	-0.229696	34.1329	-17.6331	-21.4597
 638	1	2	-0.134961	36.1439	-17.5529	-19.8677
 639	1	7	0.062626	34.2463	-16.5866	-21.7603
 640	1	7	0.065775	33.0695	-17.8719	-21.5282