pySIMM System Object

2750 atoms
3093 bonds
5679 angles
9345 dihedrals
400 impropers

9 atom types
10 bond types
15 angle types
8 dihedral types
2 improper types

-210.820892 210.820892 xlo xhi
-210.820892 210.820892 ylo yhi
-210.820892 210.820892 zlo zhi

Masses

   1	12.01	# ca
   2	12.01	# c3
   3	1.008	# ha
   4	16.0	# os
   5	12.01	# cg
   6	14.01	# n1
   7	1.008	# hc
   8	16.0	# oh
   9	1.008	# ho

Pair Coeffs

   1	0.086	3.3996695084235347	# ca
   2	0.1094	3.3996695084235347	# c3
   3	0.015	2.59964245953351	# ha
   4	0.17	3.0000123434657784	# os
   5	0.21	3.3996695084235347	# cg
   6	0.17	3.249998523775958	# n1
   7	0.0157	2.649532787749369	# hc
   8	0.2104	3.0664733878390478	# oh
   9	0.0047	0.5379246460131368	# ho

Bond Coeffs

   1	371.4	0.973	# ho,oh
   2	461.1	1.3984	# ca,ca
   3	345.8	1.086	# ca,ha
   4	384.0	1.3637	# ca,oh
   5	300.9	1.5375	# c3,c3
   6	413.3	1.4328	# ca,cg
   7	943.1	1.1566	# cg,n1
   8	321.0	1.5156	# c3,ca
   9	330.6	1.0969	# c3,hc
  10	376.6	1.3696	# ca,os

Angle Coeffs

   1	69.58	119.2	# ca,ca,os
   2	63.56	112.24	# ca,c3,ca
   3	66.62	120.02	# ca,ca,ca
   4	58.92	179.49	# ca,cg,n1
   5	62.86	111.51	# c3,c3,c3
   6	49.0	108.58	# ca,oh,ho
   7	63.15	112.07	# c3,c3,ca
   8	46.34	109.8	# c3,c3,hc
   9	65.72	120.27	# ca,ca,cg
  10	69.52	119.9	# ca,ca,oh
  11	63.48	119.89	# ca,os,ca
  12	39.4	107.58	# hc,c3,hc
  13	63.53	120.77	# c3,ca,ca
  14	48.18	119.88	# ca,ca,ha
  15	63.5	119.89	# ca,oh,ca

Dihedral Coeffs

   1	1	0.0	2	0	# X,c3,ca,X
   2	1	0.9	2	180	# X,ca,os,X
   3	3	0.18	3	0	0.25	2	180	0.2	1	180	# c3,c3,c3,c3
   4	1	0.9	2	180	# X,ca,oh,X
   5	1	0.16	3	0	# hc,c3,c3,c3
   6	1	3.625	2	180	# X,ca,ca,X
   7	1	3.625	2	180	# X,cg,ca,ca
   8	1	0.15555555555555556	3	0	# X,c3,c3,X

Improper Coeffs

   1	1.1	-1	2	# ca,X,X,ha
   2	1.1	-1	2	# ca,ca,ca,c3

Atoms

   1	1	1	0.135239	-83.8937	3.8724	-52.9196
   2	1	1	-0.124676	-82.4907	3.85058	-53.0298
   3	1	1	0.190416	-82.6274	2.32283	-54.9374
   4	1	1	-0.226961	-81.8594	3.04161	-54.0022
   5	1	1	-0.017982	-84.5742	-0.255968	-57.1705
   6	1	1	-0.195812	-84.2449	-0.812055	-58.4186
   7	1	1	-0.244042	-84.7658	1.11632	-56.9941
   8	1	1	0.131216	-84.3134	0.00767489	-59.5545
   9	1	1	-0.480889	-84.8921	1.94333	-58.1315
  10	1	1	0.420559	-84.6904	1.37161	-59.4096
  11	1	2	0.094496	-85.0079	-1.01868	-55.9355
  12	1	3	0.181616	-84.0064	-1.86512	-58.521
  13	1	2	0.106535	-84.9958	1.4409	-55.5084
  14	1	4	-0.32219	-84.0926	-0.54056	-60.81
  15	1	3	0.25841	-85.1867	2.98706	-58.0619
  16	1	1	0.380364	-84.0188	0.294981	-61.9058
  17	1	1	-0.639904	-83.4736	-0.158857	-63.1427
  18	1	1	0.40258	-84.3639	1.6753	-61.7502
  19	1	1	0.235245	-83.2465	0.760759	-64.1673
  20	1	1	-0.64044	-84.0498	2.59192	-62.787
  21	1	1	0.243455	-83.5298	2.12531	-63.9969
  22	1	5	0.683739	-83.1194	-1.51825	-63.3872
  23	1	4	-0.371861	-84.8143	2.15505	-60.5337
  24	1	5	0.675894	-84.1513	3.99821	-62.544
  25	1	6	-0.526708	-83.9459	5.13424	-62.5713
  26	1	6	-0.532274	-82.9056	-2.64597	-63.5064
  27	1	2	0.077971	-84.7936	0.041675	-54.833
  28	1	1	-0.133879	-84.0246	2.36954	-54.8217
  29	1	2	0.291414	-86.3518	2.13915	-55.1686
  30	1	7	0.054943	-85.4465	-0.12113	-53.9707
  31	1	7	-0.083103	-83.7614	-0.0532306	-54.4617
  32	1	2	-0.229696	-84.2793	-2.36155	-55.7018
  33	1	2	-0.134961	-86.5222	-1.31066	-56.0339
  34	1	7	0.062626	-84.5493	-3.07257	-56.4939
  35	1	7	0.065775	-84.5907	-2.80626	-54.7475
  36	1	7	0.079929	-83.1888	-2.25021	-55.7007
  37	1	7	0.050506	-86.7313	-2.0507	-56.8144
  38	1	7	0.024431	-87.0849	-0.406756	-56.2894
  39	1	7	0.052051	-86.9026	-1.68605	-55.0747
  40	1	2	-0.079385	-86.1639	2.87142	-53.7909
  41	1	7	-0.096983	-87.2103	1.45645	-55.1659
  42	1	7	0.069866	-86.5488	2.89392	-55.9396
  43	1	2	-0.079851	-86.601	1.92906	-52.626
  44	1	2	-0.424117	-86.937	4.21908	-53.7084
  45	1	1	-0.32128	-84.6557	3.09833	-53.8105
  46	1	7	0.133743	-86.302	5.07099	-53.9838
  47	1	7	0.116477	-87.3196	4.42096	-52.6997
  48	1	7	0.082726	-87.8081	4.21812	-54.3752
  49	1	7	0.078262	-85.7403	1.43115	-52.1659
  50	1	7	-0.001602	-87.276	1.14006	-52.9808
  51	1	7	0.028854	-87.1382	2.45397	-51.8266
  52	1	3	0.315808	-84.3723	4.44383	-52.1331
  53	1	3	0.28245	-82.16	1.6709	-55.6726
  54	1	8	-0.039852	-80.4966	2.88598	-53.9698
  55	1	8	-0.059152	-81.7313	4.58392	-52.1602
  56	1	1	0.135239	-74.4409	11.8541	-49.2675
  57	1	1	-0.124676	-75.2708	12.269	-50.3047
  58	1	1	0.190416	-74.4842	10.4545	-51.7498
  59	1	1	-0.226961	-75.3163	11.5764	-51.5346
  60	1	1	-0.017982	-73.3756	6.50478	-51.5535
  61	1	1	-0.195812	-74.0837	5.39876	-52.0504
  62	1	1	-0.244042	-73.9963	7.50457	-50.8093
  63	1	1	0.131216	-75.4593	5.32868	-51.8011
  64	1	1	-0.480889	-75.3727	7.43336	-50.5255
  65	1	1	0.420559	-76.0947	6.33393	-51.026
  66	1	2	0.094496	-71.9271	6.83679	-51.8149
  67	1	3	0.181616	-73.5997	4.64228	-52.6604
  68	1	2	0.106535	-73.0345	8.65549	-50.5329
  69	1	4	-0.32219	-76.1916	4.30884	-52.3657
  70	1	3	0.25841	-75.8898	8.21013	-49.9617
  71	1	1	0.380364	-77.5597	4.35571	-52.3008
  72	1	1	-0.639904	-78.3162	3.44541	-53.0545
  73	1	1	0.40258	-78.1989	5.33565	-51.4911
  74	1	1	0.235245	-79.719	3.60414	-53.0831
  75	1	1	-0.64044	-79.5958	5.37326	-51.3764
  76	1	1	0.243455	-80.3599	4.52735	-52.2064
  77	1	5	0.683739	-77.6899	2.36303	-53.7459
  78	1	4	-0.371861	-77.4458	6.26613	-50.813
  79	1	5	0.675894	-80.184	6.27838	-50.4382
  80	1	6	-0.526708	-80.5716	7.04396	-49.6644
  81	1	6	-0.532274	-77.3071	1.4551	-54.3479
  82	1	2	0.077971	-71.931	8.37926	-51.5948
  83	1	1	-0.133879	-73.7231	9.99441	-50.6586
  84	1	2	0.291414	-72.4656	8.6759	-49.0736
  85	1	7	0.054943	-70.9445	8.76323	-51.3072
  86	1	7	-0.083103	-72.2151	8.87744	-52.5348
  87	1	2	-0.229696	-71.5192	6.46926	-53.2613
  88	1	2	-0.134961	-71.0485	6.12051	-50.754
  89	1	7	0.062626	-71.3078	5.39708	-53.3598
  90	1	7	0.065775	-70.6258	7.02086	-53.5719
  91	1	7	0.079929	-72.3281	6.72172	-53.9615
  92	1	7	0.050506	-69.9822	6.19594	-50.989
  93	1	7	0.024431	-71.3149	5.06046	-50.6702
  94	1	7	0.052051	-71.1914	6.54217	-49.7549
  95	1	2	-0.079385	-72.9247	9.99501	-48.3711
  96	1	7	-0.096983	-71.3662	8.65573	-49.0909
  97	1	7	0.069866	-72.8002	7.78975	-48.5194
  98	1	2	-0.079851	-71.7373	10.9213	-48.0352
  99	1	2	-0.424117	-73.787	9.73489	-47.1061
 100	1	1	-0.32128	-73.7184	10.6767	-49.4461
 101	1	7	0.133743	-73.3648	8.92726	-46.494
 102	1	7	0.116477	-74.812	9.43777	-47.3685
 103	1	7	0.082726	-73.8443	10.625	-46.4657
 104	1	7	0.078262	-71.0861	10.4788	-47.2741
 105	1	7	-0.001602	-72.099	11.8913	-47.6659
 106	1	7	0.028854	-71.1425	11.1144	-48.9375
 107	1	3	0.315808	-74.4634	12.3494	-48.3019
 108	1	3	0.28245	-74.5238	9.87681	-52.6743
 109	1	8	-0.039852	-76.3666	11.8532	-52.3726
 110	1	8	-0.059152	-76.2327	13.1785	-50.0146
 111	1	1	0.135239	-85.9037	10.2018	-45.6331
 112	1	1	-0.124676	-85.3975	8.91024	-45.9329
 113	1	1	0.190416	-85.0366	9.58447	-48.2584
 114	1	1	-0.226961	-84.9568	8.62094	-47.2442
 115	1	1	-0.017982	-84.6899	11.7399	-51.0539
 116	1	1	-0.195812	-83.5342	11.6202	-51.8327
 117	1	1	-0.244042	-84.6249	12.1689	-49.7303
 118	1	1	0.131216	-82.3072	11.999	-51.2871
 119	1	1	-0.480889	-83.3936	12.5712	-49.1654
 120	1	1	0.420559	-82.2314	12.5141	-49.9671
 121	1	2	0.094496	-86.0727	11.2862	-51.4701
 122	1	3	0.181616	-83.5666	11.2033	-52.8301
 123	1	2	0.106535	-85.9329	11.892	-49.0041
 124	1	4	-0.32219	-81.182	11.8295	-52.0611
 125	1	3	0.25841	-83.3105	12.8742	-48.1235
 126	1	1	0.380364	-79.9534	12.1919	-51.5615
 127	1	1	-0.639904	-78.798	11.9549	-52.3367
 128	1	1	0.40258	-79.8683	12.7686	-50.2526
 129	1	1	0.235245	-77.5454	12.2793	-51.786
 130	1	1	-0.64044	-78.6202	13.1567	-49.7447
 131	1	1	0.243455	-77.4705	12.937	-50.5346
 132	1	5	0.683739	-78.8273	11.3756	-53.6385
 133	1	4	-0.371861	-81.0044	12.9027	-49.4661
 134	1	5	0.675894	-78.4596	13.6704	-48.4232
 135	1	6	-0.526708	-78.1884	14.1178	-47.3924
 136	1	6	-0.532274	-78.7554	10.9227	-54.6974
 137	1	2	0.077971	-86.9084	11.4973	-50.1652
 138	1	1	-0.133879	-85.6803	10.7943	-47.99
 139	1	2	0.291414	-86.5025	13.0322	-48.1098
 140	1	7	0.054943	-87.6105	12.3207	-50.3422
 141	1	7	-0.083103	-87.5352	10.629	-49.9237
 142	1	2	-0.229696	-86.0414	9.80386	-51.9256
 143	1	2	-0.134961	-86.6316	12.1738	-52.6142
 144	1	7	0.062626	-85.4966	9.69466	-52.8725
 145	1	7	0.065775	-87.0555	9.4079	-52.0602
 146	1	7	0.079929	-85.5322	9.16858	-51.1991
 147	1	7	0.050506	-87.6312	11.8364	-52.9156
 148	1	7	0.024431	-85.9886	12.1457	-53.5024
 149	1	7	0.052051	-86.7129	13.222	-52.295
 150	1	2	-0.079385	-86.8993	12.4063	-46.7229
 151	1	7	-0.096983	-87.3611	13.5458	-48.5673
 152	1	7	0.069866	-85.7246	13.7892	-47.97
 153	1	2	-0.079851	-88.4117	12.046	-46.7298
 154	1	2	-0.424117	-86.5561	13.3674	-45.5549
 155	1	1	-0.32128	-86.1054	11.109	-46.7018
 156	1	7	0.133743	-86.5881	14.4149	-45.8881
 157	1	7	0.116477	-85.5471	13.1821	-45.1659
 158	1	7	0.082726	-87.2684	13.2802	-44.7244
 159	1	7	0.078262	-88.7462	11.6579	-45.7588
 160	1	7	-0.001602	-88.6183	11.2723	-47.4817
 161	1	7	0.028854	-89.0349	12.9134	-46.9787
 162	1	3	0.315808	-86.2155	10.4566	-44.6246
 163	1	3	0.28245	-84.6679	9.36549	-49.2502
 164	1	8	-0.039852	-84.5552	7.35791	-47.5721
 165	1	8	-0.059152	-85.4548	7.86464	-45.0305
 166	1	1	0.135239	-83.53	-1.21746	-40.2943
 167	1	1	-0.124676	-82.5642	-0.233388	-40.5682
 168	1	1	0.190416	-83.1107	-0.281363	-42.9424
 169	1	1	-0.226961	-82.3841	0.262122	-41.8779
 170	1	1	-0.017982	-85.0904	-0.823626	-45.8659
 171	1	1	-0.195812	-85.146	0.267217	-46.7577
 172	1	1	-0.244042	-85.4808	-0.654487	-44.5316
 173	1	1	0.131216	-85.4823	1.54708	-46.2636
 174	1	1	-0.480889	-85.8588	0.625268	-44.0448
 175	1	1	0.420559	-85.8497	1.73805	-44.9093
 176	1	2	0.094496	-84.4561	-2.20279	-46.1196
 177	1	3	0.181616	-84.8534	0.148362	-47.7965
 178	1	2	0.106535	-85.0081	-1.82805	-43.6722
 179	1	4	-0.32219	-85.3149	2.64743	-47.0712
 180	1	3	0.25841	-86.0351	0.795167	-42.9832
 181	1	1	0.380364	-85.3488	3.92541	-46.5339
 182	1	1	-0.639904	-84.902	4.9913	-47.3227
 183	1	1	0.40258	-85.759	4.13487	-45.1849
 184	1	1	0.235245	-84.9426	6.30204	-46.7984
 185	1	1	-0.64044	-85.7929	5.45261	-44.6575
 186	1	1	0.243455	-85.3983	6.54722	-45.4765
 187	1	5	0.683739	-84.3711	4.75442	-48.6261
 188	1	4	-0.371861	-86.0569	3.0216	-44.4093
 189	1	5	0.675894	-86.1641	5.70899	-43.3021
 190	1	6	-0.526708	-86.4493	6.02091	-42.2273
 191	1	6	-0.532274	-83.9036	4.72028	-49.6813
 192	1	2	0.077971	-84.2127	-2.71868	-44.6672
 193	1	1	-0.133879	-84.0733	-1.25375	-42.6535
 194	1	2	0.291414	-86.015	-2.65144	-42.7933
 195	1	7	0.054943	-84.4375	-3.78494	-44.5667
 196	1	7	-0.083103	-83.1422	-2.63176	-44.4306
 197	1	2	-0.229696	-83.0775	-2.17167	-46.8455
 198	1	2	-0.134961	-85.423	-3.14189	-46.8946
 199	1	7	0.062626	-83.171	-2.10821	-47.9359
 200	1	7	0.065775	-82.5126	-3.09059	-46.6288
 201	1	7	0.079929	-82.4636	-1.32945	-46.5042
 202	1	7	0.050506	-86.4704	-2.86822	-46.7217
 203	1	7	0.024431	-85.2964	-4.19088	-46.5941
 204	1	7	0.052051	-85.245	-3.09594	-47.9775
 205	1	2	-0.079385	-85.5657	-2.53536	-41.2812
 206	1	7	-0.096983	-86.0031	-3.71285	-43.0831
 207	1	7	0.069866	-87.0446	-2.30561	-42.9416
 208	1	2	-0.079851	-85.1931	-3.91717	-40.6833
 209	1	2	-0.424117	-86.6478	-1.82069	-40.4201
 210	1	1	-0.32128	-84.3298	-1.67004	-41.3572
 211	1	7	0.133743	-87.3527	-2.53374	-39.9691
 212	1	7	0.116477	-87.2314	-1.11101	-41.0216
 213	1	7	0.082726	-86.2085	-1.22942	-39.6077
 214	1	7	0.078262	-84.279	-4.29971	-41.1561
 215	1	7	-0.001602	-85.9929	-4.64977	-40.8531
 216	1	7	0.028854	-85.0096	-3.86466	-39.6012
 217	1	3	0.315808	-83.6948	-1.56319	-39.2778
 218	1	3	0.28245	-83.0025	0.0997142	-43.9558
 219	1	8	-0.039852	-81.5552	1.32009	-42.1063
 220	1	8	-0.059152	-81.8554	0.323417	-39.5502
 221	1	1	0.135239	-80.7719	8.88857	-33.2249
 222	1	1	-0.124676	-82.0644	9.1787	-33.7096
 223	1	1	0.190416	-81.1876	9.24863	-35.9988
 224	1	1	-0.226961	-82.2656	9.35314	-35.0961
 225	1	1	-0.017982	-78.702	8.19415	-38.6089
 226	1	1	-0.195812	-78.8668	7.29709	-39.6601
 227	1	1	-0.244042	-78.8498	7.80012	-37.2813
 228	1	1	0.131216	-79.1777	5.98636	-39.3542
 229	1	1	-0.480889	-79.2261	6.47927	-36.9632
 230	1	1	0.420559	-79.3742	5.5592	-38.0181
 231	1	2	0.094496	-78.2666	9.61862	-38.7981
 232	1	3	0.181616	-78.7414	7.59276	-40.6956
 233	1	2	0.106535	-78.6223	8.9465	-36.3141
 234	1	4	-0.32219	-79.3076	5.13581	-40.4018
 235	1	3	0.25841	-79.3969	6.16544	-35.9339
 236	1	1	0.380364	-79.8916	3.91954	-40.1817
 237	1	1	-0.639904	-80.3401	3.19883	-41.2975
 238	1	1	0.40258	-80.0735	3.44872	-38.8408
 239	1	1	0.235245	-81.0309	2.00935	-41.0617
 240	1	1	-0.64044	-80.6573	2.1899	-38.6316
 241	1	1	0.243455	-81.1796	1.50332	-39.7444
 242	1	5	0.683739	-80.0389	3.68721	-42.6017
 243	1	4	-0.371861	-79.716	4.24623	-37.7697
 244	1	5	0.675894	-80.707	1.56931	-37.3495
 245	1	6	-0.526708	-80.7934	0.990999	-36.3551
 246	1	6	-0.532274	-79.7376	4.21737	-43.5811
 247	1	2	0.077971	-78.2853	10.143	-37.3027
 248	1	1	-0.133879	-79.888	9.10853	-35.4872
 249	1	2	0.291414	-77.5385	8.64096	-35.209
 250	1	7	0.054943	-77.3341	10.631	-37.0549
 251	1	7	-0.083103	-79.0606	10.9147	-37.1952
 252	1	2	-0.229696	-79.2449	10.3714	-39.7557
 253	1	2	-0.134961	-76.869	9.55624	-39.4883
 254	1	7	0.062626	-79.8993	11.0717	-39.2286
 255	1	7	0.065775	-79.8973	9.67277	-40.2961
 256	1	7	0.079929	-78.7017	10.9405	-40.5239
 257	1	7	0.050506	-76.1386	9.00135	-38.8872
 258	1	7	0.024431	-76.4604	10.5463	-39.7143
 259	1	7	0.052051	-76.9483	9.03615	-40.4563
 260	1	2	-0.079385	-78.2265	8.67695	-33.778
 261	1	7	-0.096983	-76.6893	9.33745	-35.268
 262	1	7	0.069866	-77.127	7.63931	-35.3887
 263	1	2	-0.079851	-77.704	9.81877	-32.8558
 264	1	2	-0.424117	-78.0866	7.34476	-32.9938
 265	1	1	-0.32128	-79.6828	8.91328	-34.1219
 266	1	7	0.133743	-77.04	7.15271	-32.7166
 267	1	7	0.116477	-78.4445	6.48843	-33.5772
 268	1	7	0.082726	-78.6563	7.37097	-32.0569
 269	1	7	0.078262	-78.5204	10.2568	-32.2664
 270	1	7	-0.001602	-77.2321	10.6319	-33.4173
 271	1	7	0.028854	-76.9638	9.448	-32.1332
 272	1	3	0.315808	-80.6147	8.65711	-32.1733
 273	1	3	0.28245	-81.3487	9.27753	-37.072
 274	1	8	-0.039852	-83.5192	9.63982	-35.5562
 275	1	8	-0.059152	-83.1385	9.29212	-32.8499
 276	1	1	0.135239	-91.4655	13.9388	-27.2599
 277	1	1	-0.124676	-92.476	12.9972	-27.5254
 278	1	1	0.190416	-92.1807	13.3005	-29.935
 279	1	1	-0.226961	-92.8219	12.6816	-28.8579
 280	1	1	-0.017982	-89.9674	14.3342	-33.0233
 281	1	1	-0.195812	-89.3354	13.6071	-34.0588
 282	1	1	-0.244042	-89.7052	14.0692	-31.6772
 283	1	1	0.131216	-88.4572	12.5615	-33.7143
 284	1	1	-0.480889	-88.9642	12.9253	-31.3424
 285	1	1	0.420559	-88.3215	12.2042	-32.3533
 286	1	2	0.094496	-91.1663	15.2504	-33.1707
 287	1	3	0.181616	-89.5279	13.8328	-35.1045
 288	1	2	0.106535	-90.4347	15.019	-30.722
 289	1	4	-0.32219	-87.7369	11.8657	-34.6814
 290	1	3	0.25841	-88.8724	12.5664	-30.3296
 291	1	1	0.380364	-86.6762	11.0635	-34.2792
 292	1	1	-0.639904	-85.688	10.6368	-35.1873
 293	1	1	0.40258	-86.5291	10.7762	-32.8914
 294	1	1	0.235245	-84.5286	9.99391	-34.6886
 295	1	1	-0.64044	-85.375	10.1526	-32.3911
 296	1	1	0.243455	-84.3457	9.79525	-33.2922
 297	1	5	0.683739	-85.8262	10.8424	-36.5927
 298	1	4	-0.371861	-87.484	11.1924	-31.995
 299	1	5	0.675894	-85.2745	9.97896	-30.9772
 300	1	6	-0.526708	-85.2756	9.89197	-29.8265
 301	1	6	-0.532274	-85.8191	10.973	-37.7393
 302	1	2	0.077971	-91.3099	15.8557	-31.7251
 303	1	1	-0.133879	-91.22	14.2721	-29.6678
 304	1	2	0.291414	-89.5418	15.9377	-29.8004
 305	1	7	0.054943	-90.9454	16.8915	-31.7468
 306	1	7	-0.083103	-92.361	15.9053	-31.4057
 307	1	2	-0.229696	-92.3777	14.347	-33.5493
 308	1	2	-0.134961	-90.9833	16.3443	-34.2588
 309	1	7	0.062626	-92.4039	14.142	-34.6268
 310	1	7	0.065775	-93.3374	14.8004	-33.2728
 311	1	7	0.079929	-92.3102	13.3671	-33.0645
 312	1	7	0.050506	-90.2812	17.1215	-33.9376
 313	1	7	0.024431	-91.9375	16.8361	-34.4872
 314	1	7	0.052051	-90.6026	15.9204	-35.1975
 315	1	2	-0.079385	-89.5739	15.39	-28.3223
 316	1	7	-0.096983	-89.9686	16.9505	-29.7787
 317	1	7	0.069866	-88.522	16.0449	-30.1821
 318	1	2	-0.079851	-89.5911	16.5038	-27.2383
 319	1	2	-0.424117	-88.3913	14.4364	-28.0198
 320	1	1	-0.32128	-90.8291	14.552	-28.3544
 321	1	7	0.133743	-87.4268	14.8724	-28.3037
 322	1	7	0.116477	-88.4958	13.4987	-28.5647
 323	1	7	0.082726	-88.3419	14.1694	-26.9562
 324	1	7	0.078262	-88.7497	17.1943	-27.374
 325	1	7	-0.001602	-89.4882	16.0766	-26.2303
 326	1	7	0.028854	-90.5188	17.0892	-27.2618
 327	1	3	0.315808	-91.1602	14.1592	-26.2397
 328	1	3	0.28245	-92.3952	13.006	-30.954
 329	1	8	-0.039852	-93.7898	11.7669	-29.1269
 330	1	8	-0.059152	-93.0838	12.321	-26.503
 331	1	1	0.135239	-100.412	5.71809	-20.0805
 332	1	1	-0.124676	-99.3091	4.84153	-20.1567
 333	1	1	0.190416	-99.0698	5.27799	-22.5537
 334	1	1	-0.226961	-98.6354	4.67427	-21.3867
 335	1	1	-0.017982	-99.8245	7.02274	-25.8819
 336	1	1	-0.195812	-98.97	7.35334	-26.9375
 337	1	1	-0.244042	-99.5408	7.36193	-24.5583
 338	1	1	0.131216	-97.8528	8.13114	-26.636
 339	1	1	-0.480889	-98.3183	7.96898	-24.2303
 340	1	1	0.420559	-97.5079	8.4117	-25.2885
 341	1	2	0.094496	-101.188	6.41329	-26.0315
 342	1	3	0.181616	-99.2096	7.10954	-27.9669
 343	1	2	0.106535	-100.653	6.92645	-23.6165
 344	1	4	-0.32219	-97.1475	8.69709	-27.6662
 345	1	3	0.25841	-98.0138	8.16578	-23.2045
 346	1	1	0.380364	-96.1525	9.59844	-27.3772
 347	1	1	-0.639904	-95.5329	10.2881	-28.4252
 348	1	1	0.40258	-95.7582	9.82717	-26.0268
 349	1	1	0.235245	-94.4633	11.1488	-28.1154
 350	1	1	-0.64044	-94.7259	10.7351	-25.7165
 351	1	1	0.243455	-94.0735	11.3981	-26.7703
 352	1	5	0.683739	-95.9917	10.152	-29.7744
 353	1	4	-0.371861	-96.4119	9.18321	-25.0067
 354	1	5	0.675894	-94.3773	10.9205	-24.3434
 355	1	6	-0.526708	-94.1822	10.9905	-23.2078
 356	1	6	-0.532274	-96.3131	10.1203	-30.8835
 357	1	2	0.077971	-101.457	5.98159	-24.5588
 358	1	1	-0.133879	-100.146	6.14011	-22.4586
 359	1	2	0.291414	-101.446	8.05597	-22.8699
 360	1	7	0.054943	-102.512	5.86815	-24.3019
 361	1	7	-0.083103	-101.012	4.97799	-24.4557
 362	1	2	-0.229696	-101.155	5.18289	-26.9761
 363	1	2	-0.134961	-102.125	7.54535	-26.5444
 364	1	7	0.062626	-100.32	4.51955	-26.7049
 365	1	7	0.065775	-101.013	5.47685	-28.0236
 366	1	7	0.079929	-102.081	4.60197	-26.9068
 367	1	7	0.050506	-102.185	7.54101	-27.6406
 368	1	7	0.024431	-101.729	8.53425	-26.2658
 369	1	7	0.052051	-103.141	7.4729	-26.141
 370	1	2	-0.079385	-101.813	7.50335	-21.428
 371	1	7	-0.096983	-102.328	8.38506	-23.4371
 372	1	7	0.069866	-100.781	8.92321	-22.7614
 373	1	2	-0.079851	-103.239	6.92303	-21.427
 374	1	2	-0.424117	-101.724	8.53001	-20.2609
 375	1	1	-0.32128	-100.792	6.40033	-21.2552
 376	1	7	0.133743	-100.783	9.09777	-20.251
 377	1	7	0.116477	-101.808	8.02806	-19.2877
 378	1	7	0.082726	-102.559	9.24192	-20.2968
 379	1	7	0.078262	-103.342	6.12246	-22.1654
 380	1	7	-0.001602	-103.967	7.70982	-21.6662
 381	1	7	0.028854	-103.493	6.51144	-20.4429
 382	1	3	0.315808	-100.908	5.90743	-19.132
 383	1	3	0.28245	-98.5329	5.15586	-23.4907
 384	1	8	-0.039852	-97.4636	4.02048	-21.4648
 385	1	8	-0.059152	-98.8081	4.22054	-19.0406
 386	1	1	0.135239	-90.4622	1.71632	-11.1974
 387	1	1	-0.124676	-90.1313	3.07882	-11.3145
 388	1	1	0.190416	-90.505	3.04444	-13.72
 389	1	1	-0.226961	-90.1162	3.71684	-12.5752
 390	1	1	-0.017982	-91.2368	0.858794	-17.067
 391	1	1	-0.195812	-91.9001	0.978182	-18.2914
 392	1	1	-0.244042	-91.8829	1.09147	-15.8589
 393	1	1	0.131216	-93.2394	1.36439	-18.2671
 394	1	1	-0.480889	-93.2579	1.36023	-15.8065
 395	1	1	0.420559	-93.9198	1.48508	-17.0293
 396	1	2	0.094496	-89.7869	0.479488	-16.8885
 397	1	3	0.181616	-91.3926	0.799589	-19.2323
 398	1	2	0.106535	-90.9545	0.763794	-14.7237
 399	1	4	-0.32219	-93.8701	1.68625	-19.442
 400	1	3	0.25841	-93.8217	1.46343	-14.8787
 401	1	1	0.380364	-95.0811	2.32143	-19.3587
 402	1	1	-0.639904	-95.615	2.9655	-20.4816
 403	1	1	0.40258	-95.7921	2.32593	-18.1229
 404	1	1	0.235245	-96.8802	3.54163	-20.3435
 405	1	1	-0.64044	-97.03	2.95912	-17.9772
 406	1	1	0.243455	-97.5877	3.58004	-19.1072
 407	1	5	0.683739	-94.892	3.00193	-21.7177
 408	1	4	-0.371861	-95.244	1.76159	-17.0136
 409	1	5	0.675894	-97.647	2.90436	-16.6874
 410	1	6	-0.526708	-98.0756	2.81944	-15.619
 411	1	6	-0.532274	-94.2435	2.99601	-22.6726
 412	1	2	0.077971	-89.5583	0.74295	-15.3834
 413	1	1	-0.133879	-90.8658	1.70768	-13.5839
 414	1	2	0.291414	-91.3447	-0.577628	-14.0757
 415	1	7	0.054943	-88.8882	0.0281168	-14.8961
 416	1	7	-0.083103	-89.0798	1.72652	-15.2743
 417	1	2	-0.229696	-88.8923	1.39152	-17.7638
 418	1	2	-0.134961	-89.5677	-1.01814	-17.193
 419	1	7	0.062626	-88.1172	1.89511	-17.176
 420	1	7	0.065775	-89.4885	2.1799	-18.2425
 421	1	7	0.079929	-88.3953	0.815589	-18.549
 422	1	7	0.050506	-90.2728	-1.65124	-16.6402
 423	1	7	0.024431	-88.5497	-1.31524	-16.9127
 424	1	7	0.052051	-89.7124	-1.22379	-18.2575
 425	1	2	-0.079385	-91.0789	-0.446151	-12.5439
 426	1	7	-0.096983	-90.7973	-1.41267	-14.5238
 427	1	7	0.069866	-92.4109	-0.758337	-14.2644
 428	1	2	-0.079851	-89.8349	-1.27026	-12.1417
 429	1	2	-0.424117	-92.324	-0.88798	-11.7467
 430	1	1	-0.32128	-90.8226	1.03598	-12.3693
 431	1	7	0.133743	-92.7591	-1.79868	-12.1851
 432	1	7	0.116477	-93.0904	-0.0996237	-11.7608
 433	1	7	0.082726	-92.0713	-1.10719	-10.7043
 434	1	7	0.078262	-88.9227	-0.852249	-12.5886
 435	1	7	-0.001602	-89.9319	-2.31003	-12.4808
 436	1	7	0.028854	-89.7053	-1.27424	-11.0528
 437	1	3	0.315808	-90.4235	1.20495	-10.2419
 438	1	3	0.28245	-90.4564	3.53116	-14.6891
 439	1	8	-0.039852	-89.815	5.03058	-12.6914
 440	1	8	-0.059152	-89.8716	3.83779	-10.2178
 441	1	1	0.135239	-93.9569	10.1561	-4.09637
 442	1	1	-0.124676	-94.8024	9.28431	-4.80967
 443	1	1	0.190416	-94.3293	10.4324	-6.88694
 444	1	1	-0.226961	-95.0418	9.44724	-6.19074
 445	1	1	-0.017982	-92.1241	12.1245	-9.03487
 446	1	1	-0.195812	-91.9976	11.2477	-10.1251
 447	1	1	-0.244042	-91.8382	11.6261	-7.77112
 448	1	1	0.131216	-91.5418	9.93441	-9.86802
 449	1	1	-0.480889	-91.3152	10.3504	-7.51286
 450	1	1	0.420559	-91.2011	9.47511	-8.57183
 451	1	2	0.094496	-92.7896	13.5121	-8.93507
 452	1	3	0.181616	-92.3095	11.5327	-11.1262
 453	1	2	0.106535	-92.6064	12.3567	-6.73793
 454	1	4	-0.32219	-91.4383	9.06345	-10.8923
 455	1	3	0.25841	-91.1794	9.97547	-6.49916
 456	1	1	0.380364	-90.8994	7.82267	-10.6666
 457	1	1	-0.639904	-90.5166	7.11514	-11.7956
 458	1	1	0.40258	-90.6833	7.30494	-9.35253
 459	1	1	0.235245	-90.0963	5.79775	-11.6163
 460	1	1	-0.64044	-90.2251	5.97662	-9.17915
 461	1	1	0.243455	-90.0575	5.19817	-10.3303
 462	1	5	0.683739	-90.5934	7.7665	-13.0633
 463	1	4	-0.371861	-90.8822	8.15726	-8.30017
 464	1	5	0.675894	-89.7755	5.36763	-7.96468
 465	1	6	-0.526708	-89.375	4.74358	-7.07941
 466	1	6	-0.532274	-90.7063	8.36137	-14.045
 467	1	2	0.077971	-93.4347	13.4113	-7.5181
 468	1	1	-0.133879	-93.5246	11.3247	-6.15001
 469	1	2	0.291414	-91.6881	12.8401	-5.58451
 470	1	7	0.054943	-93.5093	14.3607	-6.97484
 471	1	7	-0.083103	-94.465	13.0421	-7.63251
 472	1	2	-0.229696	-93.8343	13.8333	-10.0399
 473	1	2	-0.134961	-91.7349	14.6553	-8.91312
 474	1	7	0.062626	-93.34	13.9533	-11.0126
 475	1	7	0.065775	-94.3353	14.7877	-9.82514
 476	1	7	0.079929	-94.6036	13.0563	-10.1394
 477	1	7	0.050506	-91.8544	15.3345	-9.76745
 478	1	7	0.024431	-90.7146	14.2591	-8.93865
 479	1	7	0.052051	-91.8218	15.2743	-8.01048
 480	1	2	-0.079385	-92.21	12.1015	-4.29666
 481	1	7	-0.096983	-91.7022	13.9352	-5.49701
 482	1	7	0.069866	-90.6409	12.5765	-5.79373
 483	1	2	-0.079851	-92.8441	13.1372	-3.34922
 484	1	2	-0.424117	-91.1044	11.2371	-3.61842
 485	1	1	-0.32128	-93.3082	11.1824	-4.79718
 486	1	7	0.133743	-90.4188	11.8376	-3.00571
 487	1	7	0.116477	-90.498	10.7039	-4.36507
 488	1	7	0.082726	-91.5252	10.462	-2.96941
 489	1	7	0.078262	-93.6575	12.6917	-2.76579
 490	1	7	-0.001602	-93.2775	13.9678	-3.92469
 491	1	7	0.028854	-92.098	13.5562	-2.66728
 492	1	3	0.315808	-93.7267	9.97333	-3.05061
 493	1	3	0.28245	-94.3097	10.4444	-7.97604
 494	1	8	-0.039852	-95.8287	8.53662	-6.85538
 495	1	8	-0.059152	-95.1883	8.11813	-4.22726
 496	1	1	0.135239	-93.0966	-3.01076	-4.06472
 497	1	1	-0.124676	-92.0114	-2.33649	-4.58137
 498	1	1	0.190416	-93.3834	-1.07902	-6.16219
 499	1	1	-0.226961	-92.1283	-1.4029	-5.6361
 500	1	1	-0.017982	-96.6033	0.153306	-7.49708
 501	1	1	-0.195812	-96.7521	1.48169	-7.93441
 502	1	1	-0.244042	-96.1439	-0.0856003	-6.20517
 503	1	1	0.131216	-96.411	2.53363	-7.05456
 504	1	1	-0.480889	-95.7518	0.9548	-5.33707
 505	1	1	0.420559	-95.8838	2.28128	-5.76314
 506	1	2	0.094496	-96.7745	-1.13661	-8.31181
 507	1	3	0.181616	-97.1025	1.70784	-8.93683
 508	1	2	0.106535	-95.9101	-1.55385	-5.9662
 509	1	4	-0.32219	-96.5573	3.83005	-7.47389
 510	1	3	0.25841	-95.3185	0.752409	-4.3625
 511	1	1	0.380364	-96.1849	4.87739	-6.66001
 512	1	1	-0.639904	-96.347	6.18358	-7.14696
 513	1	1	0.40258	-95.6137	4.62993	-5.376
 514	1	1	0.235245	-95.9314	7.26319	-6.3449
 515	1	1	-0.64044	-95.2557	5.72112	-4.54851
 516	1	1	0.243455	-95.4717	7.0316	-5.02274
 517	1	5	0.683739	-96.9719	6.34858	-8.41867
 518	1	4	-0.371861	-95.4596	3.32225	-4.95011
 519	1	5	0.675894	-94.5837	5.57167	-3.29455
 520	1	6	-0.526708	-94.038	5.55809	-2.27712
 521	1	6	-0.532274	-97.4666	6.38561	-9.46082
 522	1	2	0.077971	-96.2704	-2.24153	-7.3194
 523	1	1	-0.133879	-94.4749	-1.74707	-5.60128
 524	1	2	0.291414	-96.6191	-2.17107	-4.71747
 525	1	7	0.054943	-97.0393	-3.00724	-7.16006
 526	1	7	-0.083103	-95.4077	-2.78323	-7.73114
 527	1	2	-0.229696	-95.9409	-1.1012	-9.62845
 528	1	2	-0.134961	-98.2532	-1.42501	-8.67532
 529	1	7	0.062626	-95.7477	-2.10941	-10.0239
 530	1	7	0.065775	-94.9761	-0.600607	-9.48183
 531	1	7	0.079929	-96.4751	-0.55371	-10.4161
 532	1	7	0.050506	-98.3307	-2.304	-9.33366
 533	1	7	0.024431	-98.7098	-0.573515	-9.19382
 534	1	7	0.052051	-98.8457	-1.63055	-7.77478
 535	1	2	-0.079385	-95.6238	-3.21884	-4.09333
 536	1	7	-0.096983	-97.6164	-2.57723	-4.92668
 537	1	7	0.069866	-96.7498	-1.35404	-3.99634
 538	1	2	-0.079851	-95.654	-4.62608	-4.72441
 539	1	2	-0.424117	-95.6554	-3.32084	-2.54186
 540	1	1	-0.32128	-94.3358	-2.64889	-4.55442
 541	1	7	0.133743	-95.5866	-2.33667	-2.05867
 542	1	7	0.116477	-94.8187	-3.91618	-2.15545
 543	1	7	0.082726	-96.5693	-3.81761	-2.19556
 544	1	7	0.078262	-94.9128	-5.26585	-4.22501
 545	1	7	-0.001602	-95.3724	-4.58506	-5.78603
 546	1	7	0.028854	-96.6343	-5.09929	-4.62966
 547	1	3	0.315808	-92.9675	-3.76893	-3.29873
 548	1	3	0.28245	-93.517	-0.320877	-6.93418
 549	1	8	-0.039852	-91.0101	-0.835299	-6.14027
 550	1	8	-0.059152	-90.8409	-2.58954	-3.98634
 551	1	1	0.135239	-80.3506	-0.43855	-0.73439
 552	1	1	-0.124676	-81.1655	0.663573	-0.386857
 553	1	1	0.190416	-82.1673	0.654812	-2.61685
 554	1	1	-0.226961	-82.0999	1.17729	-1.3135
 555	1	1	-0.017982	-82.9053	-0.88032	-5.94934
 556	1	1	-0.195812	-84.1393	-0.394238	-6.33106
 557	1	1	-0.244042	-82.7226	-1.39873	-4.67253
 558	1	1	0.131216	-85.2006	-0.678683	-5.49969
 559	1	1	-0.480889	-83.7978	-1.74026	-3.83381
 560	1	1	0.420559	-85.0712	-1.44315	-4.31325
 561	1	2	0.094496	-81.6158	-0.72082	-6.68964
 562	1	3	0.181616	-84.2999	0.187904	-7.22943
 563	1	2	0.106535	-81.2986	-1.17126	-4.26157
 564	1	4	-0.32219	-86.3878	-0.24817	-5.94291
 565	1	3	0.25841	-83.6684	-2.16749	-2.83994
 566	1	1	0.380364	-87.4791	-0.838447	-5.43471
 567	1	1	-0.639904	-88.6556	-0.624648	-6.13862
 568	1	1	0.40258	-87.3916	-1.64185	-4.25357
 569	1	1	0.235245	-89.8089	-1.14469	-5.57621
 570	1	1	-0.64044	-88.5321	-2.27241	-3.7676
 571	1	1	0.243455	-89.7302	-1.98728	-4.43275
 572	1	5	0.683739	-88.6441	0.0952999	-7.37711
 573	1	4	-0.371861	-86.1842	-1.84169	-3.62866
 574	1	5	0.675894	-88.5314	-3.16464	-2.64564
 575	1	6	-0.526708	-88.6515	-3.89057	-1.75492
 576	1	6	-0.532274	-88.5077	0.657417	-8.37812
 577	1	2	0.077971	-80.7298	-0.362901	-5.4726
 578	1	1	-0.133879	-81.3055	-0.399675	-2.96103
 579	1	2	0.291414	-80.4843	-2.44494	-3.92803
 580	1	7	0.054943	-79.6741	-0.543704	-5.68283
 581	1	7	-0.083103	-80.855	0.711612	-5.2647
 582	1	2	-0.229696	-81.6369	0.374655	-7.77879
 583	1	2	-0.134961	-81.2654	-2.09613	-7.32765
 584	1	7	0.062626	-82.3437	0.113144	-8.57796
 585	1	7	0.065775	-80.6457	0.477224	-8.23457
 586	1	7	0.079929	-81.9442	1.34213	-7.3618
 587	1	7	0.050506	-80.1856	-2.21292	-7.4642
 588	1	7	0.024431	-81.7408	-2.2067	-8.31132
 589	1	7	0.052051	-81.6195	-2.93502	-6.71034
 590	1	2	-0.079385	-79.6026	-2.04228	-2.6931
 591	1	7	-0.096983	-79.8838	-2.78707	-4.78415
 592	1	7	0.069866	-81.181	-3.25223	-3.66074
 593	1	2	-0.079851	-78.2835	-1.3827	-3.15421
 594	1	2	-0.424117	-79.275	-3.22396	-1.75111
 595	1	1	-0.32128	-80.4316	-0.954423	-2.04102
 596	1	7	0.133743	-78.2842	-3.09291	-1.29626
 597	1	7	0.116477	-79.2496	-4.17531	-2.30055
 598	1	7	0.082726	-80.0077	-3.32056	-0.942346
 599	1	7	0.078262	-77.5998	-2.12858	-3.57157
 600	1	7	-0.001602	-77.7907	-0.887038	-2.30907
 601	1	7	0.028854	-78.4496	-0.612387	-3.91305
 602	1	3	0.315808	-79.6647	-0.87455	-0.0151279
 603	1	3	0.28245	-82.8867	1.03745	-3.33607
 604	1	8	-0.039852	-82.9632	2.17326	-0.932883
 605	1	8	-0.059152	-81.0465	1.26758	0.838211
 606	1	1	0.135239	-81.0346	7.35804	10.1035
 607	1	1	-0.124676	-81.7676	6.36884	10.7604
 608	1	1	0.190416	-83.5965	6.57547	9.15267
 609	1	1	-0.226961	-83.0577	5.98844	10.3217
 610	1	1	-0.017982	-84.5099	7.93061	5.19278
 611	1	1	-0.195812	-84.7712	7.39682	3.90413
 612	1	1	-0.244042	-83.5661	7.33994	6.02622
 613	1	1	0.131216	-84.0514	6.25085	3.48062
 614	1	1	-0.480889	-82.9144	6.15971	5.66267
 615	1	1	0.420559	-83.1231	5.66195	4.37617
 616	1	2	0.094496	-85.1956	9.09903	5.90025
 617	1	3	0.181616	-85.4893	7.86801	3.2382
 618	1	2	0.106535	-83.1511	8.25151	7.15724
 619	1	4	-0.32219	-84.2492	5.6607	2.23073
 620	1	3	0.25841	-82.1949	5.6699	6.31259
 621	1	1	0.380364	-83.5132	4.53196	1.87222
 622	1	1	-0.639904	-83.6908	3.88048	0.626914
 623	1	1	0.40258	-82.4854	4.07437	2.74438
 624	1	1	0.235245	-82.8621	2.77918	0.299657
 625	1	1	-0.64044	-81.6038	3.04897	2.3768
 626	1	1	0.243455	-81.835	2.34703	1.1785
 627	1	5	0.683739	-84.6631	4.36618	-0.299407
 628	1	4	-0.371861	-82.3187	4.6388	3.97577
 629	1	5	0.675894	-80.3711	2.88346	3.08047
 630	1	6	-0.526708	-79.3531	2.651	3.57417
 631	1	6	-0.532274	-85.4601	4.8135	-1.00448
 632	1	2	0.077971	-84.2935	9.31815	7.18037
 633	1	1	-0.133879	-82.8416	7.56231	8.48372
 634	1	2	0.291414	-81.7642	8.88731	6.78625
 635	1	7	0.054943	-83.8547	10.3239	7.17851