pySIMM System Object

2120 atoms
2371 bonds
4332 angles
7114 dihedrals
304 impropers

9 atom types
10 bond types
15 angle types
8 dihedral types
2 improper types

-191.976850 191.976850 xlo xhi
-191.976850 191.976850 ylo yhi
-191.976850 191.976850 zlo zhi

Masses

   1	12.01	# ca
   2	12.01	# c3
   3	1.008	# ha
   4	16.0	# os
   5	12.01	# cg
   6	14.01	# n1
   7	1.008	# hc
   8	16.0	# oh
   9	1.008	# ho

Pair Coeffs

   1	0.086	3.3996695084235347	# ca
   2	0.1094	3.3996695084235347	# c3
   3	0.015	2.59964245953351	# ha
   4	0.17	3.0000123434657784	# os
   5	0.21	3.3996695084235347	# cg
   6	0.17	3.249998523775958	# n1
   7	0.0157	2.649532787749369	# hc
   8	0.2104	3.0664733878390478	# oh
   9	0.0047	0.5379246460131368	# ho

Bond Coeffs

   1	371.4	0.973	# ho,oh
   2	461.1	1.3984	# ca,ca
   3	345.8	1.086	# ca,ha
   4	384.0	1.3637	# ca,oh
   5	300.9	1.5375	# c3,c3
   6	413.3	1.4328	# ca,cg
   7	943.1	1.1566	# cg,n1
   8	321.0	1.5156	# c3,ca
   9	330.6	1.0969	# c3,hc
  10	376.6	1.3696	# ca,os

Angle Coeffs

   1	58.92	179.49	# ca,cg,n1
   2	49.0	108.58	# ca,oh,ho
   3	62.86	111.51	# c3,c3,c3
   4	66.62	120.02	# ca,ca,ca
   5	63.53	120.77	# c3,ca,ca
   6	63.15	112.07	# c3,c3,ca
   7	46.34	109.8	# c3,c3,hc
   8	69.52	119.9	# ca,ca,oh
   9	63.56	112.24	# ca,c3,ca
  10	63.48	119.89	# ca,os,ca
  11	65.72	120.27	# ca,ca,cg
  12	48.18	119.88	# ca,ca,ha
  13	39.4	107.58	# hc,c3,hc
  14	69.58	119.2	# ca,ca,os
  15	63.5	119.89	# ca,oh,ca

Dihedral Coeffs

   1	1	0.9	2	180	# X,ca,os,X
   2	3	0.18	3	0	0.25	2	180	0.2	1	180	# c3,c3,c3,c3
   3	1	0.9	2	180	# X,ca,oh,X
   4	1	0.16	3	0	# hc,c3,c3,c3
   5	1	3.625	2	180	# X,ca,ca,X
   6	1	3.625	2	180	# X,cg,ca,ca
   7	1	0.15555555555555556	3	0	# X,c3,c3,X
   8	1	0.0	2	0	# X,c3,ca,X

Improper Coeffs

   1	1.1	-1	2	# ca,ca,ca,c3
   2	1.1	-1	2	# ca,X,X,ha

Atoms

   1	1	1	0.135239	-15.2979	81.9965	-51.0497
   2	1	1	-0.124676	-16.5871	81.4776	-51.3226
   3	1	1	0.190416	-17.6061	83.6123	-50.7036
   4	1	1	-0.226961	-17.7493	82.2587	-51.081
   5	1	1	-0.017982	-17.2493	87.52	-49.8417
   6	1	1	-0.195812	-17.9276	88.6504	-50.3663
   7	1	1	-0.244042	-16.6632	86.5861	-50.7119
   8	1	1	0.131216	-17.9666	88.8237	-51.7552
   9	1	1	-0.480889	-16.7229	86.7692	-52.1361
  10	1	1	0.420559	-17.3462	87.9177	-52.6617
  11	1	2	0.094496	-16.9897	87.1526	-48.387
  12	1	3	0.181616	-18.3855	89.453	-49.8069
  13	1	2	0.106535	-15.9463	85.4843	-49.9473
  14	1	4	-0.32219	-18.5569	90.0068	-52.2753
  15	1	3	0.25841	-16.3284	86.0503	-52.8463
  16	1	1	0.380364	-18.5085	90.2099	-53.704
  17	1	1	-0.639904	-19.0456	91.4444	-54.1094
  18	1	1	0.40258	-17.9407	89.2963	-54.5656
  19	1	1	0.235245	-19.0919	91.6579	-55.5416
  20	1	1	-0.64044	-17.8664	89.5844	-55.9075
  21	1	1	0.243455	-18.4911	90.7572	-56.4414
  22	1	5	0.683739	-19.6135	92.4073	-53.2554
  23	1	4	-0.371861	-17.3586	88.1285	-54.0322
  24	1	5	0.675894	-17.2858	88.6265	-56.8328
  25	1	6	-0.526708	-16.7506	87.8054	-57.4032
  26	1	6	-0.532274	-20.088	93.1298	-52.4494
  27	1	2	0.077971	-16.4552	85.689	-48.5177
  28	1	1	-0.133879	-16.3122	84.1164	-50.4517
  29	1	2	0.291414	-14.3889	85.512	-50.0468
  30	1	7	0.054943	-15.6405	85.491	-47.8194
  31	1	7	-0.083103	-17.2566	84.9654	-48.293
  32	1	2	-0.229696	-18.2423	87.1637	-47.4906
  33	1	2	-0.134961	-15.9101	88.0467	-47.7822
  34	1	7	0.062626	-18.5967	88.1859	-47.3106
  35	1	7	0.065775	-18.0926	86.6965	-46.5037
  36	1	7	0.079929	-19.0563	86.6297	-48.0068
  37	1	7	0.050506	-15.0434	88.0924	-48.4637
  38	1	7	0.024431	-15.5796	87.7043	-46.7925
  39	1	7	0.052051	-16.2933	89.0639	-47.6737
  40	1	2	-0.079385	-13.9197	84.0196	-50.1817
  41	1	7	-0.096983	-13.9361	86.0185	-49.1845
  42	1	7	0.069866	-14.0998	86.0775	-50.9391
  43	1	2	-0.079851	-13.4549	83.519	-48.7983
  44	1	2	-0.424117	-12.7861	83.806	-51.227
  45	1	1	-0.32128	-15.1848	83.311	-50.5795
  46	1	7	0.133743	-11.8534	84.2805	-50.8985
  47	1	7	0.116477	-13.0553	84.2266	-52.1995
  48	1	7	0.082726	-12.5747	82.7418	-51.3845
  49	1	7	0.078262	-12.6018	84.1101	-48.4468
  50	1	7	-0.001602	-13.1058	82.4806	-48.8522
  51	1	7	0.028854	-14.2486	83.5777	-48.0462
  52	1	3	0.315808	-14.3943	81.4159	-51.1877
  53	1	3	0.28245	-18.4518	84.2837	-50.5731
  54	1	8	-0.039852	-18.9956	81.6891	-51.2175
  55	1	8	-0.059152	-16.7193	80.2039	-51.7818
  56	1	1	0.135239	-20.2947	70.1899	-56.0133
  57	1	1	-0.124676	-20.0076	70.8545	-57.2247
  58	1	1	0.190416	-21.3255	72.7958	-56.5368
  59	1	1	-0.226961	-20.5128	72.1433	-57.4835
  60	1	1	-0.017982	-23.275	74.8034	-53.6433
  61	1	1	-0.195812	-23.1627	76.1419	-53.2487
  62	1	1	-0.244042	-22.1452	74.0294	-53.7893
  63	1	1	0.131216	-21.8982	76.6775	-52.9348
  64	1	1	-0.480889	-20.8747	74.5376	-53.5249
  65	1	1	0.420559	-20.7563	75.8578	-53.0472
  66	1	2	0.094496	-24.5476	74.0213	-53.9627
  67	1	3	0.181616	-24.0422	76.7494	-53.1607
  68	1	2	0.106535	-22.4821	72.623	-54.2108
  69	1	4	-0.32219	-21.7679	77.9662	-52.4556
  70	1	3	0.25841	-19.9786	73.9421	-53.6174
  71	1	1	0.380364	-20.5489	78.5294	-52.2962
  72	1	1	-0.639904	-20.4322	79.8455	-51.8974
  73	1	1	0.40258	-19.372	77.6932	-52.3886
  74	1	1	0.235245	-19.1335	80.4207	-51.6977
  75	1	1	-0.64044	-18.0976	78.2732	-52.3199
  76	1	1	0.243455	-17.9807	79.6338	-51.9277
  77	1	5	0.683739	-21.623	80.6466	-51.7704
  78	1	4	-0.371861	-19.516	76.3826	-52.7912
  79	1	5	0.675894	-16.9327	77.3689	-52.336
  80	1	6	-0.526708	-15.9304	76.7828	-52.3532
  81	1	6	-0.532274	-22.6543	81.1531	-51.6879
  82	1	2	0.077971	-23.9896	72.7037	-54.5871
  83	1	1	-0.133879	-21.61	72.1119	-55.3474
  84	1	2	0.291414	-22.1998	71.561	-53.076
  85	1	7	0.054943	-24.5195	71.7922	-54.2924
  86	1	7	-0.083103	-24.0875	72.7716	-55.6822
  87	1	2	-0.229696	-25.4777	74.7688	-55.0028
  88	1	2	-0.134961	-25.3595	73.7037	-52.6911
  89	1	7	0.062626	-24.9562	75.0291	-55.9356
  90	1	7	0.065775	-25.8603	75.7005	-54.5565
  91	1	7	0.079929	-26.3617	74.1574	-55.246
  92	1	7	0.050506	-24.7454	73.1999	-51.9404
  93	1	7	0.024431	-26.2373	73.0847	-52.9073
  94	1	7	0.052051	-25.7297	74.6294	-52.2387
  95	1	2	-0.079385	-21.5667	70.2918	-53.7675
  96	1	7	-0.096983	-23.0963	71.3126	-52.4781
  97	1	7	0.069866	-21.4787	72.0194	-52.3921
  98	1	2	-0.079851	-22.5892	69.1427	-53.9901
  99	1	2	-0.424117	-20.3452	69.7652	-52.9699
 100	1	1	-0.32128	-21.1021	70.8527	-55.0976
 101	1	7	0.133743	-19.5609	70.5358	-52.9385
 102	1	7	0.116477	-19.9181	68.884	-53.4573
 103	1	7	0.082726	-20.6029	69.4872	-51.94
 104	1	7	0.078262	-22.9494	68.7169	-53.043
 105	1	7	-0.001602	-22.1446	68.3381	-54.5922
 106	1	7	0.028854	-23.4487	69.5351	-54.5514
 107	1	3	0.315808	-19.9236	69.1925	-55.8149
 108	1	3	0.28245	-21.7436	73.7902	-56.6985
 109	1	8	-0.039852	-20.2276	72.7373	-58.6786
 110	1	8	-0.059152	-19.247	70.2086	-58.1695
 111	1	1	0.135239	-12.7311	67.3935	-66.8515
 112	1	1	-0.124676	-11.7858	68.1291	-66.1074
 113	1	1	0.190416	-13.2807	70.0738	-66.1123
 114	1	1	-0.226961	-12.0447	69.4805	-65.7806
 115	1	1	-0.017982	-16.9117	71.6286	-66.395
 116	1	1	-0.195812	-17.6414	72.3495	-65.4235
 117	1	1	-0.244042	-16.3341	70.3823	-66.0851
 118	1	1	0.131216	-17.7473	71.8	-64.1379
 119	1	1	-0.480889	-16.477	69.8248	-64.8023
 120	1	1	0.420559	-17.2048	70.5285	-63.8377
 121	1	2	0.094496	-16.6518	72.0226	-67.838
 122	1	3	0.181616	-18.1032	73.3086	-65.6445
 123	1	2	0.106535	-15.5969	69.7681	-67.2458
 124	1	4	-0.32219	-18.4175	72.5029	-63.1607
 125	1	3	0.25841	-16.0552	68.856	-64.5532
 126	1	1	0.380364	-18.5877	71.9406	-61.916
 127	1	1	-0.639904	-19.2985	72.6617	-60.94
 128	1	1	0.40258	-18.0605	70.6501	-61.6226
 129	1	1	0.235245	-19.5223	72.0716	-59.6741
 130	1	1	-0.64044	-18.2732	70.0574	-60.3645
 131	1	1	0.243455	-19.0204	70.7648	-59.4073
 132	1	5	0.683739	-19.7878	73.9653	-61.2311
 133	1	4	-0.371861	-17.3555	69.9857	-62.5785
 134	1	5	0.675894	-17.7594	68.7551	-60.1165
 135	1	6	-0.526708	-17.2999	67.7069	-60.0041
 136	1	6	-0.532274	-20.2268	75.0266	-61.3858
 137	1	2	0.077971	-15.5844	70.957	-68.2758
 138	1	1	-0.133879	-14.2116	69.3188	-66.8416
 139	1	2	0.291414	-16.2539	68.4524	-67.7898
 140	1	7	0.054943	-15.7305	70.6113	-69.3053
 141	1	7	-0.083103	-14.5948	71.4373	-68.2446
 142	1	2	-0.229696	-16.1142	73.4657	-67.9476
 143	1	2	-0.134961	-17.9479	71.891	-68.675
 144	1	7	0.062626	-15.8206	73.6819	-68.9837
 145	1	7	0.065775	-15.2373	73.6127	-67.3039
 146	1	7	0.079929	-16.8842	74.1911	-67.6597
 147	1	7	0.050506	-18.697	72.6204	-68.3425
 148	1	7	0.024431	-18.3955	70.89	-68.5908
 149	1	7	0.052051	-17.7442	72.0832	-69.7365
 150	1	2	-0.079385	-15.1264	67.3883	-67.9806
 151	1	7	-0.096983	-16.8324	68.64	-68.7067
 152	1	7	0.069866	-16.9673	68.0779	-67.0419
 153	1	2	-0.079851	-14.7636	67.2546	-69.4549
 154	1	2	-0.424117	-15.502	66.0124	-67.3976
 155	1	1	-0.32128	-13.9487	68.0123	-67.2196
 156	1	7	0.133743	-16.4027	65.6209	-67.8849
 157	1	7	0.116477	-15.6961	66.0843	-66.3186
 158	1	7	0.082726	-14.7035	65.2776	-67.5578
 159	1	7	0.078262	-14.4566	68.2261	-69.8607
 160	1	7	-0.001602	-15.63	66.8897	-70.0264
 161	1	7	0.028854	-13.9295	66.5613	-69.598
 162	1	3	0.315808	-12.5263	66.3601	-67.1154
 163	1	3	0.28245	-13.5343	71.089	-65.8238
 164	1	8	-0.039852	-11.1194	70.2115	-65.0893
 165	1	8	-0.059152	-10.6137	67.5703	-65.7186
 166	1	1	0.135239	-1.01731	64.9817	-60.1711
 167	1	1	-0.124676	-1.92614	64.8553	-59.0803
 168	1	1	0.190416	-2.79146	67.1227	-59.5061
 169	1	1	-0.226961	-2.78831	65.926	-58.733
 170	1	1	-0.017982	-3.29283	70.1919	-61.8606
 171	1	1	-0.195812	-4.49563	70.7911	-62.2452
 172	1	1	-0.244042	-3.11187	68.8167	-62.0387
 173	1	1	0.131216	-5.50226	69.9958	-62.835
 174	1	1	-0.480889	-4.12676	67.9994	-62.6211
 175	1	1	0.420559	-5.33206	68.6073	-63.0119
 176	1	2	0.094496	-2.07227	70.8552	-61.2826
 177	1	3	0.181616	-4.65896	71.8527	-62.1132
 178	1	2	0.106535	-1.74474	68.3644	-61.5446
 179	1	4	-0.32219	-6.69302	70.599	-63.1778
 180	1	3	0.25841	-4.01715	66.922	-62.7555
 181	1	1	0.380364	-7.69111	69.8354	-63.769
 182	1	1	-0.639904	-8.91771	70.461	-64.1278
 183	1	1	0.40258	-7.46557	68.4465	-64.0132
 184	1	1	0.235245	-9.90255	69.6821	-64.7475
 185	1	1	-0.64044	-8.44883	67.677	-64.6404
 186	1	1	0.243455	-9.66135	68.2925	-65.0189
 187	1	5	0.683739	-9.12269	71.8497	-63.8703
 188	1	4	-0.371861	-6.3069	67.853	-63.5946
 189	1	5	0.675894	-8.21552	66.2922	-64.8944
 190	1	6	-0.526708	-8.16889	65.1819	-65.1872
 191	1	6	-0.532274	-9.36629	72.9699	-63.7072
 192	1	2	0.077971	-1.20037	69.6502	-60.8519
 193	1	1	-0.133879	-1.86736	67.2017	-60.5779
 194	1	2	0.291414	-0.84445	67.8209	-62.6898
 195	1	7	0.054943	-0.155668	69.8345	-61.1172
 196	1	7	-0.083103	-1.23738	69.544	-59.7574
 197	1	2	-0.229696	-2.42638	71.7431	-60.0757
 198	1	2	-0.134961	-1.36577	71.6835	-62.3735
 199	1	7	0.062626	-3.03839	72.6069	-60.3761
 200	1	7	0.065775	-1.51106	72.1174	-59.6047
 201	1	7	0.079929	-2.98704	71.182	-59.3158
 202	1	7	0.050506	-1.11202	71.0466	-63.2338
 203	1	7	0.024431	-0.437338	72.1117	-61.981
 204	1	7	0.052051	-1.99096	72.5091	-62.731
 205	1	2	-0.079385	-0.135376	66.5299	-62.1125
 206	1	7	-0.096983	-0.13215	68.5684	-63.0632
 207	1	7	0.069866	-1.49294	67.5613	-63.5366
 208	1	2	-0.079851	1.32003	66.8327	-61.6618
 209	1	2	-0.424117	-0.11412	65.3782	-63.1407
 210	1	1	-0.32128	-1.00883	66.1733	-60.9143
 211	1	7	0.133743	0.404662	65.6803	-64.0568
 212	1	7	0.116477	-1.12878	65.0752	-63.4335
 213	1	7	0.082726	0.405411	64.5023	-62.7457
 214	1	7	0.078262	1.80853	65.9384	-61.2577
 215	1	7	-0.001602	1.34019	67.5991	-60.8764
 216	1	7	0.028854	1.92033	67.2051	-62.5043
 217	1	3	0.315808	-0.352295	64.1626	-60.4281
 218	1	3	0.28245	-3.45909	67.9651	-59.2989
 219	1	8	-0.039852	-3.60232	65.8013	-57.6515
 220	1	8	-0.059152	-1.98554	63.6879	-58.3781
 221	1	1	0.135239	-5.30707	55.0171	-51.2884
 222	1	1	-0.124676	-6.36207	54.8388	-52.2062
 223	1	1	0.190416	-6.80023	57.2594	-52.2444
 224	1	1	-0.226961	-7.09113	55.9565	-52.6961
 225	1	1	-0.017982	-5.95552	60.9563	-51.148
 226	1	1	-0.195812	-5.97324	62.1277	-51.9349
 227	1	1	-0.244042	-5.24769	59.8393	-51.5914
 228	1	1	0.131216	-5.23389	62.1726	-53.1218
 229	1	1	-0.480889	-4.51491	59.8795	-52.7844
 230	1	1	0.420559	-4.49696	61.0521	-53.5436
 231	1	2	0.094496	-6.61203	60.7241	-49.8068
 232	1	3	0.181616	-6.52224	63.0199	-51.6367
 233	1	2	0.106535	-5.37857	58.693	-50.6165
 234	1	4	-0.32219	-5.24111	63.3284	-53.8635
 235	1	3	0.25841	-3.92866	59.0274	-53.1129
 236	1	1	0.380364	-4.4337	63.4058	-54.9973
 237	1	1	-0.639904	-4.41197	64.6203	-55.7632
 238	1	1	0.40258	-3.6714	62.2885	-55.3982
 239	1	1	0.235245	-3.60261	64.6903	-56.8859
 240	1	1	-0.64044	-2.84663	62.3741	-56.5269
 241	1	1	0.243455	-2.8109	63.5629	-57.2855
 242	1	5	0.683739	-5.38734	65.6445	-55.3981
 243	1	4	-0.371861	-3.73669	61.1207	-54.6949
 244	1	5	0.675894	-2.0615	61.2197	-56.8995
 245	1	6	-0.526708	-1.41855	60.3614	-57.2788
 246	1	6	-0.532274	-5.75237	66.7229	-55.1347
 247	1	2	0.077971	-6.48125	59.1916	-49.6232
 248	1	1	-0.133879	-5.78724	57.3972	-51.288
 249	1	2	0.291414	-4.04292	58.31	-49.9021
 250	1	7	0.054943	-6.27729	58.9306	-48.5777
 251	1	7	-0.083103	-7.44324	58.7264	-49.88
 252	1	2	-0.229696	-8.10535	61.1477	-49.8635
 253	1	2	-0.134961	-5.88608	61.512	-48.7214
 254	1	7	0.062626	-8.64823	60.6862	-50.6992
 255	1	7	0.065775	-8.2055	62.2399	-49.9408
 256	1	7	0.079929	-8.60488	60.8464	-48.9352
 257	1	7	0.050506	-4.82248	61.2287	-48.6868
 258	1	7	0.024431	-6.35142	61.2936	-47.7536
 259	1	7	0.052051	-5.94964	62.596	-48.9043
 260	1	2	-0.079385	-4.01915	56.7397	-49.8156
 261	1	7	-0.096983	-3.96666	58.7539	-48.8985
 262	1	7	0.069866	-3.17184	58.6735	-50.4726
 263	1	2	-0.079851	-4.43381	56.2272	-48.403
 264	1	2	-0.424117	-2.61619	56.1809	-50.1735
 265	1	1	-0.32128	-5.03849	56.3097	-50.848
 266	1	7	0.133743	-1.8344	56.5547	-49.4943
 267	1	7	0.116477	-2.33956	56.4623	-51.1933
 268	1	7	0.082726	-2.58519	55.0838	-50.1191
 269	1	7	0.078262	-5.44398	56.5742	-48.175
 270	1	7	-0.001602	-3.76365	56.605	-47.6259
 271	1	7	0.028854	-4.43854	55.127	-48.3623
 272	1	3	0.315808	-4.72713	54.1772	-50.9164
 273	1	3	0.28245	-7.35467	58.1331	-52.5831
 274	1	8	-0.039852	-8.11334	55.7445	-53.5843
 275	1	8	-0.059152	-6.6824	53.5728	-52.6214
 276	1	1	0.135239	-11.1601	44.3509	-56.9305
 277	1	1	-0.124676	-10.1526	44.6301	-57.8668
 278	1	1	0.190416	-11.1362	46.8316	-58.2772
 279	1	1	-0.226961	-10.1499	45.8695	-58.5555
 280	1	1	-0.017982	-13.2346	49.8955	-56.9395
 281	1	1	-0.195812	-12.8047	51.221	-56.7164
 282	1	1	-0.244042	-12.4996	48.8232	-56.4508
 283	1	1	0.131216	-11.6151	51.4402	-56.0023
 284	1	1	-0.480889	-11.3049	49.0184	-55.7165
 285	1	1	0.420559	-10.8755	50.3324	-55.5082
 286	1	2	0.094496	-14.472	49.435	-57.7019
 287	1	3	0.181616	-13.3857	52.0512	-57.1027
 288	1	2	0.106535	-13.1374	47.5	-56.8112
 289	1	4	-0.32219	-11.1932	52.7306	-55.7453
 290	1	3	0.25841	-10.7212	48.1824	-55.3379
 291	1	1	0.380364	-10.0584	52.936	-55.0195
 292	1	1	-0.639904	-9.65474	54.2578	-54.727
 293	1	1	0.40258	-9.31597	51.84	-54.5327
 294	1	1	0.235245	-8.51024	54.4668	-53.9347
 295	1	1	-0.64044	-8.16675	52.0489	-53.74
 296	1	1	0.243455	-7.76617	53.3617	-53.4323
 297	1	5	0.683739	-10.4235	55.3713	-55.223
 298	1	4	-0.371861	-9.72657	50.5533	-54.811
 299	1	5	0.675894	-7.42945	50.9257	-53.2321
 300	1	6	-0.526708	-6.91684	49.9618	-52.8631
 301	1	6	-0.532274	-10.9527	56.3357	-55.5792
 302	1	2	0.077971	-14.1995	47.9136	-57.8709
 303	1	1	-0.133879	-12.1058	46.5372	-57.3269
 304	1	2	0.291414	-13.749	46.7736	-55.5791
 305	1	7	0.054943	-15.1277	47.3305	-57.8011
 306	1	7	-0.083103	-13.7951	47.7311	-58.8763
 307	1	2	-0.229696	-14.6029	50.1207	-59.0854
 308	1	2	-0.134961	-15.7262	49.6982	-56.8394
 309	1	7	0.062626	-14.7664	51.1997	-58.993
 310	1	7	0.065775	-15.4216	49.7028	-59.6832
 311	1	7	0.079929	-13.6774	49.9744	-59.6557
 312	1	7	0.050506	-15.617	49.2069	-55.8631
 313	1	7	0.024431	-16.6414	49.3173	-57.3109
 314	1	7	0.052051	-15.8541	50.777	-56.6623
 315	1	2	-0.079385	-13.2887	45.2717	-55.6733
 316	1	7	-0.096983	-14.8444	46.8705	-55.5068
 317	1	7	0.069866	-13.323	47.2094	-54.6672
 318	1	2	-0.079851	-14.4316	44.3931	-56.2349
 319	1	2	-0.424117	-12.8434	44.699	-54.2934
 320	1	1	-0.32128	-12.1382	45.3233	-56.6637
 321	1	7	0.133743	-12.5347	43.6476	-54.3572
 322	1	7	0.116477	-13.6549	44.7585	-53.5493
 323	1	7	0.082726	-11.9855	45.261	-53.8916
 324	1	7	0.078262	-15.3092	44.3993	-55.5747
 325	1	7	-0.001602	-14.1099	43.355	-56.3783
 326	1	7	0.028854	-14.7464	44.7632	-57.2202
 327	1	3	0.315808	-11.1481	43.4091	-56.3985
 328	1	3	0.28245	-11.1043	47.8139	-58.7473
 329	1	8	-0.039852	-9.15493	46.1285	-59.4752
 330	1	8	-0.059152	-9.15004	43.7437	-58.0711
 331	1	1	0.135239	1.4949	40.6105	-57.9218
 332	1	1	-0.124676	1.32676	41.5264	-56.8707
 333	1	1	0.190416	0.373834	43.1825	-58.4162
 334	1	1	-0.226961	0.777253	42.8069	-57.1152
 335	1	1	-0.017982	-1.27945	44.146	-61.7798
 336	1	1	-0.195812	-2.48041	44.8747	-61.8974
 337	1	1	-0.244042	-1.2303	43.0068	-60.9754
 338	1	1	0.131216	-3.62636	44.4363	-61.198
 339	1	1	-0.480889	-2.37377	42.5417	-60.2873
 340	1	1	0.420559	-3.57774	43.257	-60.4095
 341	1	2	0.094496	0.0673128	44.4413	-62.4236
 342	1	3	0.181616	-2.51677	45.7763	-62.4951
 343	1	2	0.106535	0.159783	42.4309	-60.8825
 344	1	4	-0.32219	-4.79017	45.1686	-61.2507
 345	1	3	0.25841	-2.33214	41.6562	-59.6595
 346	1	1	0.380364	-5.87307	44.8064	-60.4725
 347	1	1	-0.639904	-6.95693	45.6515	-60.4258
 348	1	1	0.40258	-5.8338	43.6117	-59.7253
 349	1	1	0.235245	-8.0874	45.2968	-59.6018
 350	1	1	-0.64044	-6.91055	43.2313	-58.9269
 351	1	1	0.243455	-8.07403	44.0805	-58.8562
 352	1	5	0.683739	-6.94195	46.8723	-61.1971
 353	1	4	-0.371861	-4.69874	42.8253	-59.7269
 354	1	5	0.675894	-6.83378	41.9827	-58.2015
 355	1	6	-0.526708	-6.96528	41.0586	-57.5192
 356	1	6	-0.532274	-7.10909	47.8899	-61.7144
 357	1	2	0.077971	1.02736	43.4891	-61.6213
 358	1	1	-0.133879	0.558691	42.2505	-59.4464
 359	1	2	0.291414	0.288683	41.0023	-61.4812
 360	1	7	0.054943	1.75268	43.0149	-62.297
 361	1	7	-0.083103	1.60344	44.0658	-60.8827
 362	1	2	-0.229696	0.472452	45.9298	-62.2765
 363	1	2	-0.134961	0.0184142	44.0503	-63.9304
 364	1	7	0.062626	1.48851	46.0828	-62.6726
 365	1	7	0.065775	0.473259	46.2344	-61.2222
 366	1	7	0.079929	-0.211738	46.5869	-62.8283
 367	1	7	0.050506	-0.299784	43.0077	-64.0744
 368	1	7	0.024431	1.0044	44.1566	-64.395
 369	1	7	0.052051	-0.6785	44.6871	-64.4899
 370	1	2	-0.079385	1.15943	40.1586	-60.4808
 371	1	7	-0.096983	0.714707	41.0144	-62.4934
 372	1	7	0.069866	-0.716741	40.5793	-61.5632
 373	1	2	-0.079851	2.62372	40.0697	-60.9743
 374	1	2	-0.424117	0.595877	38.7409	-60.2501
 375	1	1	-0.32128	1.11021	41.0003	-59.2147
 376	1	7	0.133743	0.500761	38.1942	-61.1971
 377	1	7	0.116477	-0.400367	38.8045	-59.7901
 378	1	7	0.082726	1.24648	38.1511	-59.5898
 379	1	7	0.078262	3.05269	41.07	-61.1365
 380	1	7	-0.001602	2.69216	39.5092	-61.9163
 381	1	7	0.028854	3.25144	39.5624	-60.2312
 382	1	3	0.315808	1.90611	39.6168	-57.7261
 383	1	3	0.28245	-0.102504	44.1422	-58.6114
 384	1	8	-0.039852	0.613535	43.6865	-56.0654
 385	1	8	-0.059152	1.66296	41.1626	-55.5922
 386	1	1	0.135239	2.23103	39.8492	-44.2366
 387	1	1	-0.124676	0.890207	39.4622	-44.2883
 388	1	1	0.190416	0.282123	41.492	-45.504
 389	1	1	-0.226961	-0.0883703	40.2876	-44.8776
 390	1	1	-0.017982	1.42084	44.6833	-47.6744
 391	1	1	-0.195812	1.05745	45.1315	-48.9644
 392	1	1	-0.244042	1.86694	43.3753	-47.4751
 393	1	1	0.131216	1.1666	44.2319	-50.044
 394	1	1	-0.480889	1.97388	42.4703	-48.5398
 395	1	1	0.420559	1.63146	42.9159	-49.8245
 396	1	2	0.094496	1.4553	45.4989	-46.3906
 397	1	3	0.181616	0.732738	46.1508	-49.1357
 398	1	2	0.106535	2.25627	43.1383	-46.0311
 399	1	4	-0.32219	0.861831	44.6446	-51.3206
 400	1	3	0.25841	2.34524	41.4578	-48.3949
 401	1	1	0.380364	1.04567	43.7978	-52.3771
 402	1	1	-0.639904	0.743713	44.2138	-53.689
 403	1	1	0.40258	1.54049	42.4813	-52.1569
 404	1	1	0.235245	0.935605	43.3177	-54.7641
 405	1	1	-0.64044	1.75416	41.5932	-53.2311
 406	1	1	0.243455	1.4585	42.0142	-54.5394
 407	1	5	0.683739	0.2151	45.5236	-53.9272
 408	1	4	-0.371861	1.80125	42.0581	-50.8752
 409	1	5	0.675894	2.26401	40.2737	-52.9894
 410	1	6	-0.526708	2.67746	39.206	-52.8591
 411	1	6	-0.532274	-0.215466	46.5681	-54.1623
 412	1	2	0.077971	1.7398	44.4237	-45.3099
 413	1	1	-0.133879	1.64889	41.8723	-45.458
 414	1	2	0.291414	3.78805	42.8999	-45.8365
 415	1	7	0.054943	2.43279	44.7845	-44.5373
 416	1	7	-0.083103	0.806363	44.1769	-44.7853
 417	1	2	-0.229696	0.118756	46.2176	-46.1341
 418	1	2	-0.134961	2.59437	46.5347	-46.4516
 419	1	7	0.062626	0.132378	46.7179	-45.1596
 420	1	7	0.065775	-0.700792	45.4959	-46.1349
 421	1	7	0.079929	-0.0890501	46.9606	-46.9125
 422	1	7	0.050506	2.72223	47.0568	-45.4931
 423	1	7	0.024431	2.40054	47.2906	-47.2261
 424	1	7	0.052051	3.55142	46.0465	-46.6839
 425	1	2	-0.079385	3.98571	41.6967	-44.8517
 426	1	7	-0.096983	4.30242	43.8066	-45.4833
 427	1	7	0.069866	4.2328	42.6566	-46.8074
 428	1	2	-0.079851	4.36724	42.1865	-43.4509
 429	1	2	-0.424117	5.04736	40.7086	-45.3679
 430	1	1	-0.32128	2.6141	41.0701	-44.8248
 431	1	7	0.133743	6.02743	41.2074	-45.4678
 432	1	7	0.116477	4.77118	40.3121	-46.3526
 433	1	7	0.082726	5.16136	39.8586	-44.6827
 434	1	7	0.078262	5.34287	42.6938	-43.454
 435	1	7	-0.001602	4.4224	41.3433	-42.7522
 436	1	7	0.028854	3.6126	42.8906	-43.0789
 437	1	3	0.315808	2.94852	39.1926	-43.7604
 438	1	3	0.28245	-0.446919	42.1377	-45.9858
 439	1	8	-0.039852	-1.41541	39.9258	-44.8284
 440	1	8	-0.059152	0.518848	38.2685	-43.7345
 441	1	1	0.135239	-5.30029	28.9254	-40.3012
 442	1	1	-0.124676	-5.38823	28.5331	-41.6422
 443	1	1	0.190416	-6.23931	30.7546	-42.2762
 444	1	1	-0.226961	-5.86054	29.4455	-42.6244
 445	1	1	-0.017982	-6.95588	34.5103	-41.4552
 446	1	1	-0.195812	-6.59152	35.6538	-42.1771
 447	1	1	-0.244042	-5.9879	33.5911	-41.0927
 448	1	1	0.131216	-5.23844	35.8812	-42.4929
 449	1	1	-0.480889	-4.62999	33.7631	-41.3916
 450	1	1	0.420559	-4.24655	34.9521	-42.0826
 451	1	2	0.094496	-8.33863	34.1344	-40.9378
 452	1	3	0.181616	-7.33764	36.3774	-42.4756
 453	1	2	0.106535	-6.58781	32.4414	-40.3317
 454	1	4	-0.32219	-4.87866	37.0029	-43.1861
 455	1	3	0.25841	-3.9045	33.0102	-41.0693
 456	1	1	0.380364	-3.54502	37.2378	-43.4
 457	1	1	-0.639904	-3.15747	38.4844	-44.0423
 458	1	1	0.40258	-2.56635	36.3417	-42.8964
 459	1	1	0.235245	-1.82399	38.7694	-44.2076
 460	1	1	-0.64044	-1.20812	36.6688	-43.0448
 461	1	1	0.243455	-0.855826	37.8973	-43.6678
 462	1	5	0.683739	-4.17248	39.3939	-44.5528
 463	1	4	-0.371861	-2.92273	35.227	-42.3128
 464	1	5	0.675894	-0.165025	35.8225	-42.5047
 465	1	6	-0.526708	0.456832	34.9524	-42.0506
 466	1	6	-0.532274	-5.17177	39.9332	-44.8167
 467	1	2	0.077971	-8.1168	32.6769	-40.4299
 468	1	1	-0.133879	-6.19066	31.1022	-40.9142
 469	1	2	0.291414	-6.07549	32.3438	-38.8623
 470	1	7	0.054943	-8.61925	32.5091	-39.4635
 471	1	7	-0.083103	-8.55865	31.9662	-41.1476
 472	1	2	-0.229696	-9.39313	34.1858	-42.0707
 473	1	2	-0.134961	-8.73243	35.0624	-39.7698
 474	1	7	0.062626	-9.0966	33.5615	-42.9268
 475	1	7	0.065775	-9.55024	35.2132	-42.4276
 476	1	7	0.079929	-10.3534	33.81	-41.6924
 477	1	7	0.050506	-7.97939	35.0138	-38.9696
 478	1	7	0.024431	-9.69493	34.7524	-39.3447
 479	1	7	0.052051	-8.83352	36.1025	-40.1066
 480	1	2	-0.079385	-5.781	30.8247	-38.5584
 481	1	7	-0.096983	-6.78646	32.7844	-38.1523
 482	1	7	0.069866	-5.14293	32.9093	-38.7416
 483	1	2	-0.079851	-6.92999	30.1812	-37.7452
 484	1	2	-0.424117	-4.42687	30.6287	-37.8396
 485	1	1	-0.32128	-5.73429	30.209	-39.9447
 486	1	7	0.133743	-3.60386	30.9766	-38.4732
 487	1	7	0.116477	-4.2381	29.5742	-37.624
 488	1	7	0.082726	-4.39668	31.1684	-36.8796
 489	1	7	0.078262	-6.77087	29.1055	-37.6209
 490	1	7	-0.001602	-7.89199	30.3105	-38.2585
 491	1	7	0.028854	-7.01042	30.6262	-36.7444
 492	1	3	0.315808	-4.92725	28.2198	-39.56
 493	1	3	0.28245	-6.57662	31.482	-43.0133
 494	1	8	-0.039852	-5.99889	29.0028	-43.9168
 495	1	8	-0.059152	-4.98418	27.2748	-42.0142
 496	1	1	0.135239	-3.83626	17.2431	-47.0006
 497	1	1	-0.124676	-2.65438	17.674	-47.6494
 498	1	1	0.190416	-3.85066	19.529	-48.6845
 499	1	1	-0.226961	-2.66432	18.789	-48.5286
 500	1	1	-0.017982	-6.88666	22.0632	-48.6193
 501	1	1	-0.195812	-6.9231	23.4472	-48.4275
 502	1	1	-0.244042	-6.28064	21.2231	-47.7033
 503	1	1	0.131216	-6.34207	23.9821	-47.272
 504	1	1	-0.480889	-5.69012	21.7412	-46.5335
 505	1	1	0.420559	-5.73037	23.1251	-46.3211
 506	1	2	0.094496	-7.52704	21.2713	-49.7534
 507	1	3	0.181616	-7.40376	24.0964	-49.1482
 508	1	2	0.106535	-6.37898	19.7697	-48.0995
 509	1	4	-0.32219	-6.37042	25.3479	-47.0516
 510	1	3	0.25841	-5.23379	21.079	-45.7961
 511	1	1	0.380364	-5.96225	25.8352	-45.8327
 512	1	1	-0.639904	-6.14104	27.205	-45.5416
 513	1	1	0.40258	-5.37609	24.9757	-44.8631
 514	1	1	0.235245	-5.78824	27.6836	-44.2645
 515	1	1	-0.64044	-5.02074	25.4509	-43.5948
 516	1	1	0.243455	-5.24847	26.8073	-43.2891
 517	1	5	0.683739	-6.70556	28.0699	-46.5398
 518	1	4	-0.371861	-5.22204	23.6463	-45.1585
 519	1	5	0.675894	-4.47993	24.5474	-42.621
 520	1	6	-0.526708	-4.05627	23.7776	-41.8778
 521	1	6	-0.532274	-7.15619	28.8227	-47.2916
 522	1	2	0.077971	-6.95791	19.8196	-49.5421
 523	1	1	-0.133879	-5.02788	19.0948	-48.0409
 524	1	2	0.291414	-7.22909	18.9147	-47.1047
 525	1	7	0.054943	-7.69021	19.0136	-49.7173
 526	1	7	-0.083103	-6.15303	19.6646	-50.2758
 527	1	2	-0.229696	-7.12032	21.8339	-51.1548
 528	1	2	-0.134961	-9.07129	21.2717	-49.6183
 529	1	7	0.062626	-7.51075	22.8473	-51.3064
 530	1	7	0.065775	-7.52336	21.1966	-51.954
 531	1	7	0.079929	-6.03389	21.8739	-51.2663
 532	1	7	0.050506	-9.52992	20.6367	-50.3858
 533	1	7	0.024431	-9.48598	22.2851	-49.7271
 534	1	7	0.052051	-9.37454	20.8975	-48.6319
 535	1	2	-0.079385	-6.40012	17.6535	-46.6916
 536	1	7	-0.096983	-8.19526	18.6419	-47.5508
 537	1	7	0.069866	-7.47282	19.4907	-46.2022
 538	1	2	-0.079851	-6.95222	16.3717	-47.3537
 539	1	2	-0.424117	-6.32289	17.4687	-45.1583
 540	1	1	-0.32128	-5.02731	17.959	-47.2438
 541	1	7	0.133743	-5.84969	18.3423	-44.6924
 542	1	7	0.116477	-5.75596	16.5639	-44.8927
 543	1	7	0.082726	-7.33292	17.3598	-44.7409
 544	1	7	0.078262	-7.00299	16.4788	-48.4401
 545	1	7	-0.001602	-7.96307	16.1572	-46.9994
 546	1	7	0.028854	-6.32656	15.5027	-47.1228
 547	1	3	0.315808	-3.84976	16.3843	-46.3334
 548	1	3	0.28245	-3.83351	20.4245	-49.2911
 549	1	8	-0.039852	-1.52991	19.1227	-49.2032
 550	1	8	-0.059152	-1.4818	17.0271	-47.4163
 551	1	1	0.135239	8.35795	18.607	-43.4509
 552	1	1	-0.124676	7.38717	19.6239	-43.2419
 553	1	1	0.190416	6.89629	19.6829	-45.6238
 554	1	1	-0.226961	6.65296	20.1552	-44.3208
 555	1	1	-0.017982	6.80197	18.7523	-49.0337
 556	1	1	-0.195812	5.62365	19.0164	-49.7465
 557	1	1	-0.244042	6.82822	17.8756	-47.9455
 558	1	1	0.131216	4.44877	18.343	-49.3161
 559	1	1	-0.480889	5.66701	17.1871	-47.5644
 560	1	1	0.420559	4.48214	17.3984	-48.2658
 561	1	2	0.094496	8.13544	19.4607	-49.2175
 562	1	3	0.181616	5.61076	19.7511	-50.5566
 563	1	2	0.106535	8.13446	17.9938	-47.1594
 564	1	4	-0.32219	3.23292	18.6641	-49.8806
 565	1	3	0.25841	5.60447	16.5567	-46.6889
 566	1	1	0.380364	2.04566	18.2909	-49.3103
 567	1	1	-0.639904	0.842668	18.9111	-49.6123
 568	1	1	0.40258	2.08865	17.2764	-48.2844
 569	1	1	0.235245	-0.344955	18.4694	-48.9543
 570	1	1	-0.64044	0.906285	16.841	-47.6391
 571	1	1	0.243455	-0.315904	17.4334	-48.019
 572	1	5	0.683739	0.83644	19.9362	-50.5751
 573	1	4	-0.371861	3.32307	16.7932	-47.8035
 574	1	5	0.675894	0.958969	15.8619	-46.6223
 575	1	6	-0.526708	1.11851	15.0435	-45.8057
 576	1	6	-0.532274	0.970229	20.7887	-51.344
 577	1	2	0.077971	9.04295	18.8432	-48.1003
 578	1	1	-0.133879	7.86235	18.6883	-45.8415
 579	1	2	0.291414	8.81898	16.6735	-46.6853
 580	1	7	0.054943	9.80401	18.2013	-48.563
 581	1	7	-0.083103	9.59502	19.6058	-47.529
 582	1	2	-0.229696	8.01643	20.9982	-49.0312
 583	1	2	-0.134961	8.74963	19.1558	-50.6075
 584	1	7	0.062626	9.00769	21.4605	-49.1298
 585	1	7	0.065775	7.61882	21.2481	-48.0401
 586	1	7	0.079929	7.35259	21.4293	-49.7958
 587	1	7	0.050506	8.13136	19.5644	-51.4136
 588	1	7	0.024431	8.84284	18.083	-50.7822
 589	1	7	0.052051	9.7445	19.6089	-50.6888
 590	1	2	-0.079385	9.40283	16.9664	-45.2444
 591	1	7	-0.096983	9.56331	16.2851	-47.4007
 592	1	7	0.069866	8.04073	15.9052	-46.5775
 593	1	2	-0.079851	10.8827	17.4052	-45.3384
 594	1	2	-0.424117	9.27144	15.7511	-44.2801
 595	1	1	-0.32128	8.54046	18.1233	-44.7666
 596	1	7	0.133743	9.82496	14.8886	-44.6842
 597	1	7	0.116477	8.2194	15.4477	-44.1543
 598	1	7	0.082726	9.67327	15.9758	-43.2833
 599	1	7	0.078262	11.2858	17.702	-44.3651
 600	1	7	-0.001602	11.0131	18.2433	-46.0313
 601	1	7	0.028854	11.49	16.574	-45.7128
 602	1	3	0.315808	8.90545	18.1719	-42.6152
 603	1	3	0.28245	6.30812	20.049	-46.4606
 604	1	8	-0.039852	5.64574	21.0757	-44.0939
 605	1	8	-0.059152	7.09251	20.0523	-41.9733
 606	1	1	0.135239	1.02857	22.5691	-32.5008
 607	1	1	-0.124676	0.660807	21.2326	-32.7462
 608	1	1	0.190416	0.239887	21.733	-35.1049
 609	1	1	-0.226961	0.280227	20.8184	-34.0382
 610	1	1	-0.017982	0.467825	24.248	-38.2378
 611	1	1	-0.195812	0.907654	24.025	-39.5556
 612	1	1	-0.244042	1.24066	23.8134	-37.1583
 613	1	1	0.131216	2.12723	23.3673	-39.7673
 614	1	1	-0.480889	2.43926	23.1152	-37.358
 615	1	1	0.420559	2.88122	22.8918	-38.6643
 616	1	2	0.094496	-0.806287	24.9297	-37.7941
 617	1	3	0.181616	0.317785	24.3823	-40.3952
 618	1	2	0.106535	0.599697	24.1908	-35.8407
 619	1	4	-0.32219	2.56066	23.1665	-41.0599
 620	1	3	0.25841	3.03641	22.7536	-36.5173
 621	1	1	0.380364	3.71343	22.4463	-41.274
 622	1	1	-0.639904	4.11622	22.1747	-42.592
 623	1	1	0.40258	4.4607	21.9444	-40.1724
 624	1	1	0.235245	5.25435	21.3817	-42.8125
 625	1	1	-0.64044	5.5941	21.1393	-40.3957
 626	1	1	0.243455	5.99443	20.8543	-41.7261
 627	1	5	0.683739	3.37917	22.705	-43.7068
 628	1	4	-0.371861	4.05058	22.2102	-38.8829
 629	1	5	0.675894	6.31	20.5901	-39.2726
 630	1	6	-0.526708	6.90937	20.1229	-38.4021
 631	1	6	-0.532274	2.8267	23.1037	-44.6367
 632	1	2	0.077971	-0.846885	24.5882	-36.2665
 633	1	1	-0.133879	0.58874	23.0702	-34.8333
 634	1	2	0.291414	1.35375	25.3312	-35.0943
 635	1	7	0.054943	-1.26546	25.4056	-35.6685
 636	1	7	-0.083103	-1.50627	23.7176	-36.1303
 637	1	2	-0.229696	-2.01759	24.351	-38.5545
 638	1	2	-0.134961	-0.721502	26.4584	-38.0302
 639	1	7	0.062626	-2.05561	23.261	-38.4402
 640	1	7	0.065775	-1.95663	24.5742	-39.6264
 641	1	7	0.079929	-2.95306	24.7664	-38.1739
 642	1	7	0.050506	0.119864	26.9158	-37.4974