pySIMM System Object

1835 atoms
2056 bonds
3762 angles
6184 dihedrals
264 impropers

9 atom types
10 bond types
15 angle types
8 dihedral types
2 improper types

-182.907541 182.907541 xlo xhi
-182.907541 182.907541 ylo yhi
-182.907541 182.907541 zlo zhi

Masses

   1	12.01	# ca
   2	12.01	# c3
   3	1.008	# ha
   4	16.0	# os
   5	12.01	# cg
   6	14.01	# n1
   7	1.008	# hc
   8	16.0	# oh
   9	1.008	# ho

Pair Coeffs

   1	0.086	3.3996695084235347	# ca
   2	0.1094	3.3996695084235347	# c3
   3	0.015	2.59964245953351	# ha
   4	0.17	3.0000123434657784	# os
   5	0.21	3.3996695084235347	# cg
   6	0.17	3.249998523775958	# n1
   7	0.0157	2.649532787749369	# hc
   8	0.2104	3.0664733878390478	# oh
   9	0.0047	0.5379246460131368	# ho

Bond Coeffs

   1	371.4	0.973	# ho,oh
   2	461.1	1.3984	# ca,ca
   3	345.8	1.086	# ca,ha
   4	384.0	1.3637	# ca,oh
   5	300.9	1.5375	# c3,c3
   6	413.3	1.4328	# ca,cg
   7	943.1	1.1566	# cg,n1
   8	321.0	1.5156	# c3,ca
   9	330.6	1.0969	# c3,hc
  10	376.6	1.3696	# ca,os

Angle Coeffs

   1	58.92	179.49	# ca,cg,n1
   2	49.0	108.58	# ca,oh,ho
   3	62.86	111.51	# c3,c3,c3
   4	66.62	120.02	# ca,ca,ca
   5	63.53	120.77	# c3,ca,ca
   6	63.15	112.07	# c3,c3,ca
   7	46.34	109.8	# c3,c3,hc
   8	69.52	119.9	# ca,ca,oh
   9	63.56	112.24	# ca,c3,ca
  10	63.48	119.89	# ca,os,ca
  11	65.72	120.27	# ca,ca,cg
  12	48.18	119.88	# ca,ca,ha
  13	39.4	107.58	# hc,c3,hc
  14	69.58	119.2	# ca,ca,os
  15	63.5	119.89	# ca,oh,ca

Dihedral Coeffs

   1	1	0.9	2	180	# X,ca,os,X
   2	3	0.18	3	0	0.25	2	180	0.2	1	180	# c3,c3,c3,c3
   3	1	0.9	2	180	# X,ca,oh,X
   4	1	0.16	3	0	# hc,c3,c3,c3
   5	1	3.625	2	180	# X,ca,ca,X
   6	1	3.625	2	180	# X,cg,ca,ca
   7	1	0.15555555555555556	3	0	# X,c3,c3,X
   8	1	0.0	2	0	# X,c3,ca,X

Improper Coeffs

   1	1.1	-1	2	# ca,ca,ca,c3
   2	1.1	-1	2	# ca,X,X,ha

Atoms

   1	1	1	0.135239	-48.9817	79.1699	-19.1088
   2	1	1	-0.124676	-49.9521	78.1976	-18.6656
   3	1	1	0.190416	-51.2652	80.0642	-17.7512
   4	1	1	-0.226961	-51.0944	78.6647	-18.0333
   5	1	1	-0.017982	-52.2509	83.7651	-17.1563
   6	1	1	-0.195812	-53.5388	84.3815	-17.1651
   7	1	1	-0.244042	-51.8191	83.1651	-18.255
   8	1	1	0.131216	-54.4665	84.3513	-18.249
   9	1	1	-0.480889	-52.7156	82.9903	-19.3318
  10	1	1	0.420559	-54.0016	83.6335	-19.3402
  11	1	2	0.094496	-51.2608	83.8477	-15.937
  12	1	3	0.181616	-53.8156	85.1826	-16.3889
  13	1	2	0.106535	-50.4341	82.5422	-17.9933
  14	1	4	-0.32219	-55.5765	85.1239	-18.2228
  15	1	3	0.25841	-52.3808	82.268	-20.0919
  16	1	1	0.380364	-56.3583	85.1087	-19.2702
  17	1	1	-0.639904	-57.7128	85.8197	-19.2297
  18	1	1	0.40258	-56.0267	84.2854	-20.4696
  19	1	1	0.235245	-58.3422	85.773	-20.496
  20	1	1	-0.64044	-56.8726	84.2176	-21.4363
  21	1	1	0.243455	-58.0658	85.0058	-21.5278
  22	1	5	0.683739	-58.1426	86.3222	-18.1506
  23	1	4	-0.371861	-54.8054	83.5795	-20.3994
  24	1	5	0.675894	-56.8448	83.3859	-22.6204
  25	1	6	-0.526708	-56.5623	82.5826	-23.2892
  26	1	6	-0.532274	-58.1828	86.9399	-16.986
  27	1	2	0.077971	-50.1504	82.855	-16.4727
  28	1	1	-0.133879	-50.4341	81.0627	-18.2559
  29	1	2	0.291414	-49.3082	83.0048	-19.0209
  30	1	7	0.054943	-49.0918	83.1544	-16.3201
  31	1	7	-0.083103	-50.0927	81.8318	-16.0127
  32	1	2	-0.229696	-51.7327	83.2813	-14.6399
  33	1	2	-0.134961	-50.4399	85.1372	-15.7387
  34	1	7	0.062626	-50.8446	83.1634	-14.029
  35	1	7	0.065775	-52.1803	82.2846	-14.8957
  36	1	7	0.079929	-52.4437	83.99	-14.1809
  37	1	7	0.050506	-49.8487	85.3699	-14.7867
  38	1	7	0.024431	-51.2817	85.9163	-15.6435
  39	1	7	0.052051	-49.7114	85.4569	-16.4352
  40	1	2	-0.079385	-48.4535	81.7931	-19.3657
  41	1	7	-0.096983	-48.8824	83.9185	-18.7856
  42	1	7	0.069866	-49.6135	83.2521	-20.0172
  43	1	2	-0.079851	-47.2754	81.7754	-18.4658
  44	1	2	-0.424117	-47.8321	81.644	-20.8826
  45	1	1	-0.32128	-49.306	80.5782	-18.914
  46	1	7	0.133743	-47.2075	80.7737	-21.0144
  47	1	7	0.116477	-47.2888	82.5279	-21.0801
  48	1	7	0.082726	-48.5753	81.477	-21.6962
  49	1	7	0.078262	-47.5851	81.6508	-17.4749
  50	1	7	-0.001602	-46.7947	82.685	-18.4872
  51	1	7	0.028854	-46.6262	80.9167	-18.569
  52	1	3	0.315808	-48.1867	78.7729	-19.7281
  53	1	3	0.28245	-52.0927	80.5076	-17.1996
  54	1	8	-0.039852	-52.0902	77.7731	-17.643
  55	1	8	-0.059152	-49.8852	76.866	-18.996
  56	1	1	0.135239	-51.6063	66.1584	-21.5674
  57	1	1	-0.124676	-52.1026	66.8525	-22.7186
  58	1	1	0.190416	-53.3037	68.4381	-21.3565
  59	1	1	-0.226961	-52.8865	67.9934	-22.6598
  60	1	1	-0.017982	-54.5484	69.751	-17.7241
  61	1	1	-0.195812	-54.6868	71.1387	-17.4139
  62	1	1	-0.244042	-53.345	69.3383	-18.2687
  63	1	1	0.131216	-53.6411	72.077	-17.6622
  64	1	1	-0.480889	-52.2954	70.2462	-18.526
  65	1	1	0.420559	-52.4628	71.6004	-18.1935
  66	1	2	0.094496	-55.5438	68.6024	-17.6647
  67	1	3	0.181616	-55.584	71.5844	-17.1324
  68	1	2	0.106535	-53.2942	67.9393	-18.7169
  69	1	4	-0.32219	-53.7199	73.3673	-17.303
  70	1	3	0.25841	-51.3454	69.9586	-18.9946
  71	1	1	0.380364	-52.7277	74.1853	-17.653
  72	1	1	-0.639904	-52.9513	75.5172	-17.3999
  73	1	1	0.40258	-51.5807	73.7647	-18.4067
  74	1	1	0.235245	-51.9552	76.4016	-17.8361
  75	1	1	-0.64044	-50.5399	74.6323	-18.8599
  76	1	1	0.243455	-50.8202	75.9432	-18.6267
  77	1	5	0.683739	-54.1115	75.9849	-16.6918
  78	1	4	-0.371861	-51.468	72.4499	-18.5853
  79	1	5	0.675894	-49.4732	74.1836	-19.6497
  80	1	6	-0.526708	-48.5007	73.914	-20.3157
  81	1	6	-0.532274	-54.9019	76.6566	-16.1235
  82	1	2	0.077971	-54.8415	67.5345	-18.6273
  83	1	1	-0.133879	-52.7798	67.7331	-20.2379
  84	1	2	0.291414	-52.2785	66.9891	-17.9059
  85	1	7	0.054943	-54.8897	66.47	-18.3664
  86	1	7	-0.083103	-55.3763	67.6641	-19.6279
  87	1	2	-0.229696	-56.9071	69.0986	-18.0695
  88	1	2	-0.134961	-55.6479	67.8098	-16.3189
  89	1	7	0.062626	-56.9431	69.7269	-18.9756
  90	1	7	0.065775	-57.2952	69.6877	-17.2225
  91	1	7	0.079929	-57.5908	68.2426	-18.1846
  92	1	7	0.050506	-55.9608	68.4502	-15.4877
  93	1	7	0.024431	-54.5982	67.5079	-16.0892
  94	1	7	0.052051	-56.3418	66.9413	-16.3834
  95	1	2	-0.079385	-51.5195	66.0516	-18.9276
  96	1	7	-0.096983	-52.7209	66.3812	-17.1008
  97	1	7	0.069866	-51.5858	67.6645	-17.3127
  98	1	2	-0.079851	-52.0696	64.6277	-18.7598
  99	1	2	-0.424117	-49.9892	66.0908	-18.8287
 100	1	1	-0.32128	-51.9699	66.5749	-20.2704
 101	1	7	0.133743	-49.7119	67.1695	-18.8805
 102	1	7	0.116477	-49.5426	65.6194	-19.7563
 103	1	7	0.082726	-49.5581	65.7007	-17.8711
 104	1	7	0.078262	-51.8232	64.212	-17.7849
 105	1	7	-0.001602	-51.6323	64.0108	-19.5567
 106	1	7	0.028854	-53.17	64.6485	-18.8355
 107	1	3	0.315808	-50.9185	65.3695	-21.5786
 108	1	3	0.28245	-53.9479	69.2335	-21.0378
 109	1	8	-0.039852	-53.2096	68.5734	-23.7988
 110	1	8	-0.059152	-51.6851	66.3026	-23.8757
 111	1	1	0.135239	-49.0533	65.6542	-35.1572
 112	1	1	-0.124676	-48.0227	66.559	-34.8619
 113	1	1	0.190416	-49.6498	67.9867	-33.6513
 114	1	1	-0.226961	-48.3061	67.6798	-34.071
 115	1	1	-0.017982	-53.2952	68.5899	-32.0976
 116	1	1	-0.195812	-53.8377	68.9624	-30.8901
 117	1	1	-0.244042	-52.4933	67.4976	-32.2251
 118	1	1	0.131216	-53.154	68.4799	-29.7592
 119	1	1	-0.480889	-51.8853	66.8648	-31.1442
 120	1	1	0.420559	-52.1833	67.4935	-29.8805
 121	1	2	0.094496	-53.6825	69.1867	-33.4445
 122	1	3	0.181616	-54.6804	69.6777	-30.856
 123	1	2	0.106535	-52.147	67.1446	-33.6667
 124	1	4	-0.32219	-53.6022	68.8717	-28.4802
 125	1	3	0.25841	-51.1244	66.0408	-31.2214
 126	1	1	0.380364	-52.9148	68.3496	-27.3497
 127	1	1	-0.639904	-53.4083	68.7893	-26.062
 128	1	1	0.40258	-52.0164	67.2828	-27.555
 129	1	1	0.235245	-52.7766	68.1112	-24.9276
 130	1	1	-0.64044	-51.7178	66.4636	-26.3723
 131	1	1	0.243455	-51.9153	67.1027	-25.1118
 132	1	5	0.683739	-54.4017	69.792	-26.0241
 133	1	4	-0.371861	-51.5956	66.9147	-28.8188
 134	1	5	0.675894	-50.7787	65.3761	-26.3825
 135	1	6	-0.526708	-49.8841	64.5961	-26.4856
 136	1	6	-0.532274	-55.0655	70.7493	-26.3375
 137	1	2	0.077971	-52.678	68.4291	-34.3713
 138	1	1	-0.133879	-50.643	67.0023	-33.921
 139	1	2	0.291414	-52.7514	65.7787	-34.1142
 140	1	7	0.054943	-53.13	68.2028	-35.3498
 141	1	7	-0.083103	-51.7762	69.0759	-34.4769
 142	1	2	-0.229696	-53.5265	70.747	-33.4916
 143	1	2	-0.134961	-55.1203	68.7635	-33.785
 144	1	7	0.062626	-53.7563	71.0927	-34.5058
 145	1	7	0.065775	-52.4973	70.9943	-33.3084
 146	1	7	0.079929	-54.1661	71.2315	-32.7318
 147	1	7	0.050506	-55.2815	67.7245	-33.4581
 148	1	7	0.024431	-55.1936	68.7537	-34.8855
 149	1	7	0.052051	-55.9095	69.4162	-33.342
 150	1	2	-0.079385	-51.5977	65.0718	-34.9347
 151	1	7	-0.096983	-53.6506	65.9707	-34.718
 152	1	7	0.069866	-53.0115	65.1933	-33.2289
 153	1	2	-0.079851	-51.9255	65.129	-36.4651
 154	1	2	-0.424117	-51.3136	63.5993	-34.5214
 155	1	1	-0.32128	-50.3518	65.8291	-34.6162
 156	1	7	0.133743	-50.4484	63.1866	-35.0309
 157	1	7	0.116477	-52.1877	63.0407	-34.8734
 158	1	7	0.082726	-51.2565	63.3697	-33.4674
 159	1	7	0.078262	-52.1021	66.1431	-36.8718
 160	1	7	-0.001602	-52.8672	64.5983	-36.5706
 161	1	7	0.028854	-51.1945	64.5787	-37.0644
 162	1	3	0.315808	-48.8641	64.7886	-35.7771
 163	1	3	0.28245	-49.9106	68.899	-33.1272
 164	1	8	-0.039852	-47.2748	68.6181	-33.9472
 165	1	8	-0.059152	-46.7425	66.2632	-35.2061
 166	1	1	0.135239	-35.1823	65.9041	-36.4553
 167	1	1	-0.124676	-35.2034	65.2322	-35.2118
 168	1	1	0.190416	-36.699	66.9584	-34.3187
 169	1	1	-0.226961	-35.9655	65.7735	-34.1627
 170	1	1	-0.017982	-39.0543	70.2752	-34.9196
 171	1	1	-0.195812	-40.3401	70.5788	-34.4585
 172	1	1	-0.244042	-38.7935	69.0281	-35.5098
 173	1	1	0.131216	-41.4029	69.6832	-34.7271
 174	1	1	-0.480889	-39.8416	68.0849	-35.7781
 175	1	1	0.420559	-41.1549	68.4576	-35.4357
 176	1	2	0.094496	-37.8129	71.1723	-34.7635
 177	1	3	0.181616	-40.5916	71.5102	-33.946
 178	1	2	0.106535	-37.3609	68.9037	-35.8693
 179	1	4	-0.32219	-42.7066	70.001	-34.3126
 180	1	3	0.25841	-39.6365	67.1124	-36.2061
 181	1	1	0.380364	-43.6946	69.0907	-34.5047
 182	1	1	-0.639904	-45.0051	69.3855	-34.064
 183	1	1	0.40258	-43.4288	67.8257	-35.1648
 184	1	1	0.235245	-45.9902	68.4155	-34.386
 185	1	1	-0.64044	-44.4206	66.8791	-35.3884
 186	1	1	0.243455	-45.7342	67.1598	-34.9665
 187	1	5	0.683739	-45.2631	70.6257	-33.3326
 188	1	4	-0.371861	-42.1588	67.5437	-35.6187
 189	1	5	0.675894	-44.2194	65.6651	-36.1446
 190	1	6	-0.526708	-44.1714	64.6644	-36.7129
 191	1	6	-0.532274	-45.3105	71.6425	-32.7757
 192	1	2	0.077971	-36.6995	70.1074	-35.1146
 193	1	1	-0.133879	-36.6773	67.6243	-35.5457
 194	1	2	0.291414	-37.1009	69.0043	-37.3883
 195	1	7	0.054943	-35.8894	70.5172	-35.7143
 196	1	7	-0.083103	-36.218	69.7344	-34.1963
 197	1	2	-0.229696	-37.7106	71.7414	-33.3082
 198	1	2	-0.134961	-37.9017	72.3335	-35.8055
 199	1	7	0.062626	-36.7828	72.3212	-33.158
 200	1	7	0.065775	-37.7374	70.9145	-32.584
 201	1	7	0.079929	-38.5462	72.4192	-33.0687
 202	1	7	0.050506	-36.9731	72.9201	-35.7504
 203	1	7	0.024431	-38.7458	72.9932	-35.5596
 204	1	7	0.052051	-38.0626	71.9911	-36.8389
 205	1	2	-0.079385	-35.9283	68.0088	-37.8116
 206	1	7	-0.096983	-36.8557	70.0374	-37.6934
 207	1	7	0.069866	-38.0243	68.7045	-37.922
 208	1	2	-0.079851	-34.5431	68.6908	-38.057
 209	1	2	-0.424117	-36.3132	67.1732	-39.0511
 210	1	1	-0.32128	-35.8384	67.1447	-36.5668
 211	1	7	0.133743	-35.4257	66.6548	-39.4516
 212	1	7	0.116477	-36.6905	67.8	-39.8684
 213	1	7	0.082726	-37.0962	66.449	-38.7771
 214	1	7	0.078262	-34.5505	69.285	-38.9745
 215	1	7	-0.001602	-33.7324	67.951	-38.1232
 216	1	7	0.028854	-34.2829	69.382	-37.2416
 217	1	3	0.315808	-34.6191	65.4978	-37.3005
 218	1	3	0.28245	-37.3035	67.3887	-33.5278
 219	1	8	-0.039852	-35.8781	65.2175	-32.9437
 220	1	8	-0.059152	-34.5348	64.0248	-35.0295
 221	1	1	0.135239	-30.3543	53.9859	-31.0986
 222	1	1	-0.124676	-31.6909	53.5351	-31.3218
 223	1	1	0.190416	-32.56	55.5822	-30.2848
 224	1	1	-0.226961	-32.7789	54.3692	-30.9331
 225	1	1	-0.017982	-32.1274	58.9909	-28.4388
 226	1	1	-0.195812	-32.9583	60.1234	-28.5277
 227	1	1	-0.244042	-31.6009	58.395	-29.5867
 228	1	1	0.131216	-33.2509	60.6633	-29.8132
 229	1	1	-0.480889	-31.8429	58.9109	-30.873
 230	1	1	0.420559	-32.6443	60.049	-30.9545
 231	1	2	0.094496	-31.6772	58.2993	-27.154
 232	1	3	0.181616	-33.3853	60.622	-27.6602
 233	1	2	0.106535	-30.8124	57.1662	-29.2214
 234	1	4	-0.32219	-34.0692	61.7975	-29.965
 235	1	3	0.25841	-31.4084	58.4746	-31.7751
 236	1	1	0.380364	-34.2977	62.32	-31.2132
 237	1	1	-0.639904	-35.0501	63.4885	-31.3765
 238	1	1	0.40258	-33.6609	61.7241	-32.3378
 239	1	1	0.235245	-35.1358	64.0584	-32.6837
 240	1	1	-0.64044	-33.7176	62.2582	-33.6054
 241	1	1	0.243455	-34.4454	63.4696	-33.7958
 242	1	5	0.683739	-35.7558	64.1023	-30.2649
 243	1	4	-0.371861	-32.875	60.6112	-32.1906
 244	1	5	0.675894	-33.0021	61.7053	-34.716
 245	1	6	-0.526708	-32.4797	61.3416	-35.6629
 246	1	6	-0.532274	-36.3094	64.4882	-29.3286
 247	1	2	0.077971	-31.0536	56.9805	-27.684
 248	1	1	-0.133879	-31.2476	55.965	-30.016
 249	1	2	0.291414	-29.2998	57.2796	-29.5524
 250	1	7	0.054943	-30.1575	56.6522	-27.1362
 251	1	7	-0.083103	-31.773	56.1669	-27.5688
 252	1	2	-0.229696	-32.8812	58.0113	-26.2201
 253	1	2	-0.134961	-30.6213	59.2065	-26.4849
 254	1	7	0.062626	-33.2999	58.9473	-25.8317
 255	1	7	0.065775	-32.5636	57.4019	-25.3612
 256	1	7	0.079929	-33.6813	57.4733	-26.7545
 257	1	7	0.050506	-30.1754	58.7086	-25.6175
 258	1	7	0.024431	-31.1178	60.0965	-26.099
 259	1	7	0.052051	-29.819	59.528	-27.1549
 260	1	2	-0.079385	-28.8527	55.8728	-30.0817
 261	1	7	-0.096983	-28.6817	57.6848	-28.7394
 262	1	7	0.069866	-29.2255	58.0007	-30.3797
 263	1	2	-0.079851	-28.1027	55.0821	-28.9586
 264	1	2	-0.424117	-27.9398	56.0192	-31.325
 265	1	1	-0.32128	-30.1643	55.2057	-30.4356
 266	1	7	0.133743	-27.0463	56.593	-31.0345
 267	1	7	0.116477	-28.4528	56.5476	-32.153
 268	1	7	0.082726	-27.6161	55.0413	-31.7034
 269	1	7	0.078262	-27.1698	55.5996	-28.7077
 270	1	7	-0.001602	-27.7993	54.0874	-29.3078
 271	1	7	0.028854	-28.7108	54.9504	-28.05
 272	1	3	0.315808	-29.4962	53.4091	-31.423
 273	1	3	0.28245	-33.3596	56.2198	-29.9114
 274	1	8	-0.039852	-34.0552	53.9337	-31.142
 275	1	8	-0.059152	-31.9701	52.2845	-31.8596
 276	1	1	0.135239	-36.9083	41.7559	-33.8678
 277	1	1	-0.124676	-36.797	42.0896	-35.2422
 278	1	1	0.190416	-37.6177	44.3307	-34.8053
 279	1	1	-0.226961	-37.1352	43.3666	-35.706
 280	1	1	-0.017982	-39.0008	47.152	-32.1667
 281	1	1	-0.195812	-38.7605	48.5457	-32.0426
 282	1	1	-0.244042	-37.9262	46.2649	-32.3416
 283	1	1	0.131216	-37.4291	49.0147	-32.1295
 284	1	1	-0.480889	-36.5882	46.7427	-32.4633
 285	1	1	0.420559	-36.361	48.1238	-32.3274
 286	1	2	0.094496	-40.3189	46.412	-32.0054
 287	1	3	0.181616	-39.5458	49.2611	-31.8642
 288	1	2	0.106535	-38.3601	44.7973	-32.3364
 289	1	4	-0.32219	-37.209	50.3689	-31.9363
 290	1	3	0.25841	-35.7301	46.0716	-32.604
 291	1	1	0.380364	-35.915	50.8586	-31.9581
 292	1	1	-0.639904	-35.6509	52.1871	-31.6236
 293	1	1	0.40258	-34.8278	49.9448	-32.1558
 294	1	1	0.235245	-34.3082	52.641	-31.564
 295	1	1	-0.64044	-33.4972	50.4108	-32.1847
 296	1	1	0.243455	-33.2491	51.7777	-31.8829
 297	1	5	0.683739	-36.7429	53.0721	-31.4638
 298	1	4	-0.371861	-35.0872	48.6175	-32.3904
 299	1	5	0.675894	-32.402	49.5426	-32.4577
 300	1	6	-0.526708	-31.4403	48.9232	-32.6525
 301	1	6	-0.532274	-37.6836	53.7468	-31.3388
 302	1	2	0.077971	-39.9063	44.9439	-32.4519
 303	1	1	-0.133879	-37.7715	43.9683	-33.4545
 304	1	2	0.291414	-37.9156	44.0535	-31.0252
 305	1	7	0.054943	-40.41	44.1661	-31.8574
 306	1	7	-0.083103	-40.2185	44.7959	-33.4994
 307	1	2	-0.229696	-41.4269	46.9842	-32.9081
 308	1	2	-0.134961	-40.7548	46.4129	-30.5411
 309	1	7	0.062626	-41.0893	47.0099	-33.9566
 310	1	7	0.065775	-41.7022	48.0082	-32.6176
 311	1	7	0.079929	-42.321	46.3553	-32.8385
 312	1	7	0.050506	-39.9783	45.9949	-29.8866
 313	1	7	0.024431	-41.6841	45.8499	-30.3898
 314	1	7	0.052051	-40.9391	47.4403	-30.2001
 315	1	2	-0.079385	-37.6431	42.5803	-31.4724
 316	1	7	-0.096983	-38.6825	44.1421	-30.2482
 317	1	7	0.069866	-36.9824	44.5029	-30.6639
 318	1	2	-0.079851	-38.8748	41.6709	-31.2234
 319	1	2	-0.424117	-36.3844	41.9743	-30.8428
 320	1	1	-0.32128	-37.3851	42.7277	-32.973
 321	1	7	0.133743	-36.4191	42.0301	-29.7476
 322	1	7	0.116477	-35.4755	42.4866	-31.1785
 323	1	7	0.082726	-36.2698	40.9229	-31.1172
 324	1	7	0.078262	-39.0681	41.582	-30.1485
 325	1	7	-0.001602	-38.6941	40.6527	-31.5992
 326	1	7	0.028854	-39.7794	42.042	-31.7131
 327	1	3	0.315808	-36.5938	40.7816	-33.5066
 328	1	3	0.28245	-37.9153	45.3202	-35.1394
 329	1	8	-0.039852	-37.0068	43.6705	-37.0305
 330	1	8	-0.059152	-36.3249	41.18	-36.1224
 331	1	1	0.135239	-32.1128	35.3475	-44.6317
 332	1	1	-0.124676	-31.0168	35.8916	-43.9259
 333	1	1	0.190416	-31.893	38.1517	-44.2074
 334	1	1	-0.226961	-30.8903	37.2805	-43.7255
 335	1	1	-0.017982	-35.0237	40.5603	-44.6713
 336	1	1	-0.195812	-35.4579	41.5765	-43.7987
 337	1	1	-0.244042	-34.7397	39.2998	-44.1754
 338	1	1	0.131216	-35.5392	41.2885	-42.4179
 339	1	1	-0.480889	-34.8442	38.9929	-42.8074
 340	1	1	0.420559	-35.2586	39.9904	-41.9358
 341	1	2	0.094496	-34.7813	40.6487	-46.1605
 342	1	3	0.181616	-35.7298	42.5731	-44.1734
 343	1	2	0.106535	-34.2408	38.3874	-45.2719
 344	1	4	-0.32219	-36.0097	42.2544	-41.5224
 345	1	3	0.25841	-34.586	38.0145	-42.3776
 346	1	1	0.380364	-36.106	41.9844	-40.1872
 347	1	1	-0.639904	-36.4972	43.0328	-39.3041
 348	1	1	0.40258	-35.7699	40.6875	-39.7284
 349	1	1	0.235245	-36.5794	42.7252	-37.9496
 350	1	1	-0.64044	-35.7826	40.3929	-38.3616
 351	1	1	0.243455	-36.2785	41.3982	-37.4927
 352	1	5	0.683739	-36.7802	44.3304	-39.8058
 353	1	4	-0.371861	-35.3131	39.7127	-40.5774
 354	1	5	0.675894	-35.4562	39.0909	-37.906
 355	1	6	-0.526708	-35.2309	38.0755	-37.394
 356	1	6	-0.532274	-36.9536	45.3558	-40.3177
 357	1	2	0.077971	-33.9444	39.3772	-46.4355
 358	1	1	-0.133879	-33.0071	37.6187	-44.848
 359	1	2	0.291414	-35.2689	37.2616	-45.6688
 360	1	7	0.054943	-34.1412	38.9396	-47.4255
 361	1	7	-0.083103	-32.8854	39.6412	-46.4252
 362	1	2	-0.229696	-34.0148	41.9113	-46.5404
 363	1	2	-0.134961	-36.1307	40.6185	-46.8891
 364	1	7	0.062626	-33.0914	41.9909	-45.9331
 365	1	7	0.065775	-34.6479	42.7793	-46.3363
 366	1	7	0.079929	-33.7558	41.8939	-47.6007
 367	1	7	0.050506	-36.7385	41.4661	-46.5481
 368	1	7	0.024431	-36.698	39.7038	-46.6703
 369	1	7	0.052051	-36.0284	40.6925	-47.9796
 370	1	2	-0.079385	-34.4154	35.9204	-45.7409
 371	1	7	-0.096983	-35.7915	37.4808	-46.6072
 372	1	7	0.069866	-36.0171	37.1615	-44.875
 373	1	2	-0.079851	-34.1193	35.5237	-47.2225
 374	1	2	-0.424117	-35.1673	34.762	-45.0265
 375	1	1	-0.32128	-33.1067	36.2512	-45.0447
 376	1	7	0.133743	-36.1565	34.5785	-45.4691
 377	1	7	0.116477	-35.332	35.0049	-43.9727
 378	1	7	0.082726	-34.5911	33.8264	-45.0666
 379	1	7	0.078262	-35.0627	35.2945	-47.7514
 380	1	7	-0.001602	-33.4915	34.6248	-47.2734
 381	1	7	0.028854	-33.6326	36.3383	-47.7762
 382	1	3	0.315808	-32.206	34.2681	-44.7834
 383	1	3	0.28245	-31.8468	39.2128	-44.0142
 384	1	8	-0.039852	-29.8403	37.7949	-43.0097
 385	1	8	-0.059152	-30.1015	35.0853	-43.3331
 386	1	1	0.135239	-24.3561	31.353	-33.7926
 387	1	1	-0.124676	-25.4478	31.9846	-33.1781
 388	1	1	0.190416	-25.2915	33.8395	-34.7665
 389	1	1	-0.226961	-25.937	33.208	-33.6859
 390	1	1	-0.017982	-23.8796	35.8953	-37.3108
 391	1	1	-0.195812	-24.636	36.7915	-38.0935
 392	1	1	-0.244042	-24.0966	34.5264	-37.3809
 393	1	1	0.131216	-25.5658	36.2698	-39.0139
 394	1	1	-0.480889	-25.0497	34.0038	-38.2813
 395	1	1	0.420559	-25.7702	34.8746	-39.12
 396	1	2	0.094496	-22.8544	36.2861	-36.2804
 397	1	3	0.181616	-24.486	37.8629	-38.0313
 398	1	2	0.106535	-23.2435	33.7977	-36.3612
 399	1	4	-0.32219	-26.301	37.1187	-39.8008
 400	1	3	0.25841	-25.2302	32.9179	-38.3404
 401	1	1	0.380364	-27.2451	36.6318	-40.685
 402	1	1	-0.639904	-28.0321	37.5132	-41.4562
 403	1	1	0.40258	-27.4071	35.2112	-40.7839
 404	1	1	0.235245	-29.0022	36.9722	-42.2927
 405	1	1	-0.64044	-28.3503	34.6804	-41.6937
 406	1	1	0.243455	-29.1315	35.5689	-42.4517
 407	1	5	0.683739	-27.832	38.9103	-41.3245
 408	1	4	-0.371861	-26.6869	34.3439	-40.0066
 409	1	5	0.675894	-28.5484	33.2791	-41.8277
 410	1	6	-0.526708	-28.6077	32.1209	-41.7846
 411	1	6	-0.532274	-27.6337	40.0457	-41.1662
 412	1	2	0.077971	-22.2921	34.9111	-35.8081
 413	1	1	-0.133879	-24.1521	33.2319	-35.3029
 414	1	2	0.291414	-22.4674	32.5292	-36.8466
 415	1	7	0.054943	-21.2843	34.7481	-36.213
 416	1	7	-0.083103	-22.2208	34.856	-34.7136
 417	1	2	-0.229696	-23.5141	37.0601	-35.0951
 418	1	2	-0.134961	-21.733	37.1733	-36.8926
 419	1	7	0.062626	-23.9686	38.0109	-35.4142
 420	1	7	0.065775	-22.7305	37.2993	-34.3586
 421	1	7	0.079929	-24.2807	36.4807	-34.5814
 422	1	7	0.050506	-22.1199	38.1533	-37.2
 423	1	7	0.024431	-21.2877	36.7112	-37.7881
 424	1	7	0.052051	-20.9276	37.3314	-36.1579
 425	1	2	-0.079385	-22.5045	31.511	-35.6534
 426	1	7	-0.096983	-21.4446	32.7554	-37.1859
 427	1	7	0.069866	-23.0245	32.133	-37.6954
 428	1	2	-0.079851	-21.1946	31.6335	-34.8225
 429	1	2	-0.424117	-22.6769	30.0524	-36.1217
 430	1	1	-0.32128	-23.7043	31.9938	-34.8526
 431	1	7	0.133743	-21.8804	29.7733	-36.8103
 432	1	7	0.116477	-23.6366	29.9424	-36.6506
 433	1	7	0.082726	-22.6944	29.3487	-35.2791
 434	1	7	0.078262	-21.2167	30.9887	-33.9378
 435	1	7	-0.001602	-21.0181	32.6549	-34.4676
 436	1	7	0.028854	-20.3339	31.3295	-35.424
 437	1	3	0.315808	-23.9734	30.3996	-33.4313
 438	1	3	0.28245	-25.6593	34.7895	-35.1408
 439	1	8	-0.039852	-27.0504	33.7856	-33.1304
 440	1	8	-0.059152	-26.0745	31.4053	-32.1155
 441	1	1	0.135239	-31.3478	29.4083	-22.323
 442	1	1	-0.124676	-32.3508	28.5889	-22.8822
 443	1	1	0.190416	-32.9594	30.392	-24.4266
 444	1	1	-0.226961	-33.1551	29.0896	-23.9234
 445	1	1	-0.017982	-31.9129	33.9193	-26.2079
 446	1	1	-0.195812	-31.612	34.3287	-27.5261
 447	1	1	-0.244042	-31.3068	32.7898	-25.6622
 448	1	1	0.131216	-30.6827	33.5836	-28.2755
 449	1	1	-0.480889	-30.4204	31.9961	-26.403
 450	1	1	0.420559	-30.1065	32.4103	-27.7151
 451	1	2	0.094496	-32.7928	34.6389	-25.1916
 452	1	3	0.181616	-32.0237	35.2518	-27.9278
 453	1	2	0.106535	-31.6548	32.6146	-24.2071
 454	1	4	-0.32219	-30.2428	34.0562	-29.504
 455	1	3	0.25841	-29.9448	31.1208	-25.9755
 456	1	1	0.380364	-29.2228	33.409	-30.1557
 457	1	1	-0.639904	-28.7112	33.9351	-31.3451
 458	1	1	0.40258	-28.671	32.2101	-29.6187
 459	1	1	0.235245	-27.6434	33.2652	-31.988
 460	1	1	-0.64044	-27.6324	31.5316	-30.2767
 461	1	1	0.243455	-27.1175	32.0482	-31.4664
 462	1	5	0.683739	-29.2634	35.1728	-31.8291
 463	1	4	-0.371861	-29.176	31.7034	-28.4324
 464	1	5	0.675894	-27.1058	30.3234	-29.7284
 465	1	6	-0.526708	-26.7374	29.3435	-29.2338
 466	1	6	-0.532274	-29.7362	36.1582	-32.1876
 467	1	2	0.077971	-32.8393	33.607	-24.0144
 468	1	1	-0.133879	-31.9758	31.1915	-23.8369
 469	1	2	0.291414	-30.445	32.9594	-23.2856
 470	1	7	0.054943	-32.7749	34.112	-23.0492
 471	1	7	-0.083103	-33.7886	33.0704	-24.0241
 472	1	2	-0.229696	-34.2199	34.9293	-25.7498
 473	1	2	-0.134961	-32.1243	35.9748	-24.7432
 474	1	7	0.062626	-34.1722	35.6556	-26.5714
 475	1	7	0.065775	-34.8786	35.3136	-24.963
 476	1	7	0.079929	-34.6843	34.026	-26.1526
 477	1	7	0.050506	-32.0538	36.6928	-25.5775
 478	1	7	0.024431	-31.0983	35.7936	-24.3847
 479	1	7	0.052051	-32.6959	36.4482	-23.9242
 480	1	2	-0.079385	-30.249	31.7843	-22.2695
 481	1	7	-0.096983	-30.5299	33.9397	-22.7923
 482	1	7	0.069866	-29.5499	33.0242	-23.9074
 483	1	2	-0.079851	-30.6974	32.2286	-20.8559
 484	1	2	-0.424117	-28.7929	31.2527	-22.2085
 485	1	1	-0.32128	-31.1856	30.7231	-22.7932
 486	1	7	0.133743	-28.0849	32.0396	-21.8982
 487	1	7	0.116477	-28.4785	30.8763	-23.1847
 488	1	7	0.082726	-28.6965	30.417	-21.5057
 489	1	7	0.078262	-30.0798	33.0509	-20.4873
 490	1	7	-0.001602	-30.6058	31.3861	-20.1597
 491	1	7	0.028854	-31.7506	32.5549	-20.8584
 492	1	3	0.315808	-30.7259	29.041	-21.5136
 493	1	3	0.28245	-33.5658	30.7857	-25.2364
 494	1	8	-0.039852	-34.157	28.2916	-24.4206
 495	1	8	-0.059152	-32.5431	27.3285	-22.3921
 496	1	1	0.135239	-35.0289	16.5299	-21.2691
 497	1	1	-0.124676	-34.0765	16.5587	-22.3076
 498	1	1	0.190416	-35.4529	18.129	-23.5671
 499	1	1	-0.226961	-34.299	17.3465	-23.4661
 500	1	1	-0.017982	-38.2261	20.8986	-23.6917
 501	1	1	-0.195812	-38.089	22.2113	-24.1865
 502	1	1	-0.244042	-37.3324	20.401	-22.7509
 503	1	1	0.131216	-37.0353	23.009	-23.685
 504	1	1	-0.480889	-36.2688	21.1883	-22.2687
 505	1	1	0.420559	-36.1265	22.4918	-22.7465
 506	1	2	0.094496	-39.2451	19.855	-24.1207
 507	1	3	0.181616	-38.7684	22.6122	-24.9371
 508	1	2	0.106535	-37.6225	18.9455	-22.4157
 509	1	4	-0.32219	-36.8643	24.2958	-24.1711
 510	1	3	0.25841	-35.5642	20.8048	-21.5366
 511	1	1	0.380364	-35.7941	25.0419	-23.7357
 512	1	1	-0.639904	-35.5573	26.3015	-24.3029
 513	1	1	0.40258	-34.893	24.5048	-22.7545
 514	1	1	0.235245	-34.4333	27.0531	-23.8715
 515	1	1	-0.64044	-33.8188	25.2744	-22.2841
 516	1	1	0.243455	-33.5816	26.5476	-22.8531
 517	1	5	0.683739	-36.4588	26.8086	-25.2704
 518	1	4	-0.371861	-35.1033	23.243	-22.2527
 519	1	5	0.675894	-32.9996	24.7651	-21.2295
 520	1	6	-0.526708	-32.2865	24.4268	-20.398
 521	1	6	-0.532274	-37.1327	27.2992	-26.0717
 522	1	2	0.077971	-38.6984	18.5361	-23.4846
 523	1	1	-0.133879	-36.3747	18.1017	-22.5186
 524	1	2	0.291414	-38.0752	18.7247	-20.9329
 525	1	7	0.054943	-39.4981	17.9146	-23.0762
 526	1	7	-0.083103	-38.2291	17.9347	-24.2848
 527	1	2	-0.229696	-39.3527	19.7549	-25.671
 528	1	2	-0.134961	-40.6374	20.1891	-23.5179
 529	1	7	0.062626	-38.3666	19.5352	-26.1103
 530	1	7	0.065775	-39.7256	20.6906	-26.107
 531	1	7	0.079929	-40.0354	18.9409	-25.9642
 532	1	7	0.050506	-40.9514	21.1981	-23.8221
 533	1	7	0.024431	-40.6199	20.1784	-22.4189
 534	1	7	0.052051	-41.3861	19.4672	-23.8639
 535	1	2	-0.079385	-37.2923	17.4888	-20.3776
 536	1	7	-0.096983	-39.1558	18.6135	-20.8349
 537	1	7	0.069866	-37.7987	19.6045	-20.3361
 538	1	2	-0.079851	-38.1992	16.2317	-20.34
 539	1	2	-0.424117	-36.6919	17.7593	-18.9703
 540	1	1	-0.32128	-36.1812	17.3057	-21.3985
 541	1	7	0.133743	-35.9382	18.566	-18.9915
 542	1	7	0.116477	-36.2024	16.8766	-18.5606
 543	1	7	0.082726	-37.482	18.0647	-18.265
 544	1	7	0.078262	-38.5948	15.9989	-21.3338
 545	1	7	-0.001602	-39.0498	16.3701	-19.6597
 546	1	7	0.028854	-37.6487	15.3371	-19.9995
 547	1	3	0.315808	-34.8418	15.9703	-20.3599
 548	1	3	0.28245	-35.6257	18.7945	-24.4267
 549	1	8	-0.039852	-33.3622	17.3689	-24.455
 550	1	8	-0.059152	-32.8837	15.894	-22.182
 551	1	1	0.135239	-21.3952	13.918	-22.43
 552	1	1	-0.124676	-21.425	15.198	-21.8552
 553	1	1	0.190416	-23.0694	15.9479	-23.4936
 554	1	1	-0.226961	-22.2914	16.1971	-22.3498
 555	1	1	-0.017982	-25.442	15.3496	-26.6009
 556	1	1	-0.195812	-26.6971	15.929	-26.8469
 557	1	1	-0.244042	-25.169	14.6976	-25.3999
 558	1	1	0.131216	-27.6723	15.8469	-25.8432
 559	1	1	-0.480889	-26.1235	14.6004	-24.3845
 560	1	1	0.420559	-27.3821	15.1748	-24.6172
 561	1	2	0.094496	-24.2699	15.293	-27.5666
 562	1	3	0.181616	-26.9198	16.4176	-27.7873
 563	1	2	0.106535	-23.7324	14.2323	-25.3455
 564	1	4	-0.32219	-28.9022	16.4424	-26.0427
 565	1	3	0.25841	-25.9061	14.1026	-23.4459
 566	1	1	0.380364	-29.889	16.3195	-25.0864
 567	1	1	-0.639904	-31.1377	16.9382	-25.2985
 568	1	1	0.40258	-29.5997	15.6316	-23.8742
 569	1	1	0.235245	-32.1269	16.7903	-24.2952
 570	1	1	-0.64044	-30.588	15.5046	-22.8606
 571	1	1	0.243455	-31.8652	16.0473	-23.1075
 572	1	5	0.683739	-31.404	17.6843	-26.4754
 573	1	4	-0.371861	-28.3498	15.1006	-23.6282
 574	1	5	0.675894	-30.2785	14.8437	-21.6378
 575	1	6	-0.526708	-30.0877	14.326	-20.6187
 576	1	6	-0.532274	-31.5104	18.2832	-27.4584
 577	1	2	0.077971	-23.1032	14.8659	-26.6211
 578	1	1	-0.133879	-22.9924	14.688	-24.0936
 579	1	2	0.291414	-23.5374	12.6824	-25.3038
 580	1	7	0.054943	-22.3786	14.2086	-27.1093
 581	1	7	-0.083103	-22.5353	15.7626	-26.3416
 582	1	2	-0.229696	-24.0009	16.6622	-28.2155
 583	1	2	-0.134961	-24.5391	14.2364	-28.675
 584	1	7	0.062626	-24.8455	16.9627	-28.8448
 585	1	7	0.065775	-23.0984	16.6292	-28.8415
 586	1	7	0.079929	-23.8611	17.434	-27.4473
 587	1	7	0.050506	-23.6747	14.1361	-29.3459
 588	1	7	0.024431	-25.4074	14.497	-29.3082
 589	1	7	0.052051	-24.7291	13.2415	-28.2477
 590	1	2	-0.079385	-22.3295	12.3815	-24.3464
 591	1	7	-0.096983	-23.4305	12.2251	-26.3008
 592	1	7	0.069866	-24.4325	12.2331	-24.8561
 593	1	2	-0.079851	-21.0333	12.1219	-25.1512
 594	1	2	-0.424117	-22.6126	11.184	-23.4088
 595	1	1	-0.32128	-22.2044	13.672	-23.5609
 596	1	7	0.133743	-23.4863	11.3576	-22.77
 597	1	7	0.116477	-21.7663	10.9499	-22.754
 598	1	7	0.082726	-22.8046	10.278	-23.9931
 599	1	7	0.078262	-20.7796	12.9859	-25.7781
 600	1	7	-0.001602	-21.15	11.2524	-25.8205
 601	1	7	0.028854	-20.1764	11.9471	-24.4991
 602	1	3	0.315808	-20.757	13.1428	-22.0127
 603	1	3	0.28245	-23.713	16.7057	-23.9189
 604	1	8	-0.039852	-22.347	17.4187	-21.7458
 605	1	8	-0.059152	-20.6156	15.4699	-20.7704
 606	1	1	0.135239	-14.6144	20.2633	-12.2522
 607	1	1	-0.124676	-15.4633	19.3819	-11.5494
 608	1	1	0.190416	-17.4202	20.2726	-12.7165
 609	1	1	-0.226961	-16.8575	19.395	-11.7616
 610	1	1	-0.017982	-18.9082	22.4242	-15.8487
 611	1	1	-0.195812	-19.8551	22.1205	-16.8471
 612	1	1	-0.244042	-17.9082	21.5164	-15.5081
 613	1	1	0.131216	-19.7969	20.8573	-17.4703
 614	1	1	-0.480889	-17.8853	20.2217	-16.0804
 615	1	1	0.420559	-18.8312	19.9022	-17.0794
 616	1	2	0.094496	-18.7782	23.7303	-15.066
 617	1	3	0.181616	-20.6141	22.8256	-17.1469
 618	1	2	0.106535	-16.9235	22.1056	-14.5148
 619	1	4	-0.32219	-20.6902	20.543	-18.4718
 620	1	3	0.25841	-17.1401	19.4735	-15.7935
 621	1	1	0.380364	-20.6768	19.2935	-19.062
 622	1	1	-0.639904	-21.5474	19.0057	-20.1175
 623	1	1	0.40258	-19.7232	18.3297	-18.6234
 624	1	1	0.235245	-21.5485	17.7035	-20.6666
 625	1	1	-0.64044	-19.7079	17.0387	-19.1676
 626	1	1	0.243455	-20.6159	16.7281	-20.2088
 627	1	5	0.683739	-22.4749	19.9934	-20.5545
 628	1	4	-0.371861	-18.8158	18.6518	-17.6378
 629	1	5	0.675894	-18.7703	16.0596	-18.7119
 630	1	6	-0.526708	-18.0528	15.2066	-18.4052
 631	1	6	-0.532274	-23.1812	20.8645	-20.8447
 632	1	2	0.077971	-17.6675	23.3815	-14.0097
 633	1	1	-0.133879	-16.5604	21.1471	-13.4099
 634	1	2	0.291414	-15.5611	22.4462	-15.1713
 635	1	7	0.054943	-16.9848	24.2136	-13.8335
 636	1	7	-0.083103	-18.1438	23.1341	-13.0507
 637	1	2	-0.229696	-20.0954	24.1211	-14.3531
 638	1	2	-0.134961	-18.3086	24.8697	-16.0155
 639	1	7	0.062626	-20.4526	23.3153	-13.7078
 640	1	7	0.065775	-20.8875	24.361	-15.0887