pySIMM System Object

554 atoms
622 bonds
1140 angles
1876 dihedrals
80 impropers

9 atom types
10 bond types
15 angle types
8 dihedral types
2 improper types

-98.515588 98.515588 xlo xhi
-98.515588 98.515588 ylo yhi
-98.515588 98.515588 zlo zhi

Masses

   1	12.01	# ca
   2	12.01	# c3
   3	1.008	# ha
   4	16.0	# os
   5	12.01	# cg
   6	14.01	# n1
   7	1.008	# hc
   8	16.0	# oh
   9	1.008	# ho

Pair Coeffs

   1	0.086	3.3996695084235347	# ca
   2	0.1094	3.3996695084235347	# c3
   3	0.015	2.59964245953351	# ha
   4	0.17	3.0000123434657784	# os
   5	0.21	3.3996695084235347	# cg
   6	0.17	3.249998523775958	# n1
   7	0.0157	2.649532787749369	# hc
   8	0.2104	3.0664733878390478	# oh
   9	0.0047	0.5379246460131368	# ho

Bond Coeffs

   1	943.1	1.1566	# cg,n1
   2	321.0	1.5156	# c3,ca
   3	300.9	1.5375	# c3,c3
   4	330.6	1.0969	# c3,hc
   5	376.6	1.3696	# ca,os
   6	461.1	1.3984	# ca,ca
   7	371.4	0.973	# ho,oh
   8	384.0	1.3637	# ca,oh
   9	345.8	1.086	# ca,ha
  10	413.3	1.4328	# ca,cg

Angle Coeffs

   1	69.52	119.9	# ca,ca,oh
   2	63.56	112.24	# ca,c3,ca
   3	63.48	119.89	# ca,os,ca
   4	65.72	120.27	# ca,ca,cg
   5	48.18	119.88	# ca,ca,ha
   6	39.4	107.58	# hc,c3,hc
   7	63.53	120.77	# c3,ca,ca
   8	69.58	119.2	# ca,ca,os
   9	58.92	179.49	# ca,cg,n1
  10	49.0	108.58	# ca,oh,ho
  11	62.86	111.51	# c3,c3,c3
  12	66.62	120.02	# ca,ca,ca
  13	63.15	112.07	# c3,c3,ca
  14	46.34	109.8	# c3,c3,hc
  15	63.5	119.89	# ca,oh,ca

Dihedral Coeffs

   1	1	3.625	2	180	# X,ca,ca,X
   2	1	3.625	2	180	# X,cg,ca,ca
   3	1	0.15555555555555556	3	0	# X,c3,c3,X
   4	1	0.0	2	0	# X,c3,ca,X
   5	1	0.9	2	180	# X,ca,os,X
   6	3	0.18	3	0	0.25	2	180	0.2	1	180	# c3,c3,c3,c3
   7	1	0.9	2	180	# X,ca,oh,X
   8	1	0.16	3	0	# hc,c3,c3,c3

Improper Coeffs

   1	1.1	-1	2	# ca,X,X,ha
   2	1.1	-1	2	# ca,ca,ca,c3

Atoms

   1	1	1	0.135239	20.6946	21.8563	-0.238448
   2	1	1	-0.124676	21.1098	21.8195	1.08925
   3	1	1	0.190416	22.4518	23.8453	0.776801
   4	1	1	-0.226961	21.9793	22.8124	1.60001
   5	1	1	-0.017982	23.5411	26.9879	-1.49712
   6	1	1	-0.195812	23.6391	28.3636	-1.20585
   7	1	1	-0.244042	22.3863	26.2949	-1.14317
   8	1	1	0.131216	22.5741	29.0091	-0.541349
   9	1	1	-0.480889	21.2911	26.9271	-0.522213
  10	1	1	0.420559	21.3745	28.2981	-0.263109
  11	1	2	0.094496	24.5596	26.0977	-2.21337
  12	1	3	0.181616	24.5306	28.9215	-1.46743
  13	1	2	0.106535	22.4796	24.8667	-1.61695
  14	1	4	-0.32219	22.6675	30.3523	-0.244788
  15	1	3	0.25841	20.3871	26.377	-0.270659
  16	1	1	0.380364	21.604	30.9914	0.332078
  17	1	1	-0.639904	21.6995	32.3706	0.567131
  18	1	1	0.40258	20.3919	30.2812	0.604407
  19	1	1	0.235245	20.5701	33.0357	1.08673
  20	1	1	-0.64044	19.2616	30.958	1.09678
  21	1	1	0.243455	19.3636	32.338	1.34218
  22	1	5	0.683739	22.8931	33.0936	0.343578
  23	1	4	-0.371861	20.3187	28.9228	0.350024
  24	1	5	0.675894	18.0171	30.2775	1.32708
  25	1	6	-0.526708	17.0015	29.7715	1.51833
  26	1	6	-0.532274	23.8357	33.7433	0.191027
  27	1	2	0.077971	23.9473	24.6883	-2.00545
  28	1	1	-0.133879	22.0433	23.8808	-0.562775
  29	1	2	0.291414	21.5367	24.4908	-2.78889
  30	1	7	0.054943	24.1089	24.0456	-2.88232
  31	1	7	-0.083103	24.4587	24.1861	-1.17666
  32	1	2	-0.229696	25.987	26.2082	-1.63143
  33	1	2	-0.134961	24.5938	26.4546	-3.69664
  34	1	7	0.062626	26.4044	27.2092	-1.75967
  35	1	7	0.065775	26.6661	25.4853	-2.09097
  36	1	7	0.079929	25.9661	26.0175	-0.554521
  37	1	7	0.050506	25.0138	27.454	-3.8276
  38	1	7	0.024431	23.5802	26.4623	-4.10632
  39	1	7	0.052051	25.1779	25.7277	-4.27391
  40	1	2	-0.079385	20.9239	23.0762	-2.4911
  41	1	7	-0.096983	22.0488	24.4518	-3.76932
  42	1	7	0.069866	20.7538	25.2526	-2.85353
  43	1	2	-0.079851	21.6866	21.9529	-3.2601
  44	1	2	-0.424117	19.413	23.0129	-2.85528
  45	1	1	-0.32128	21.1488	22.9171	-1.02558
  46	1	7	0.133743	18.8493	23.7491	-2.27598
  47	1	7	0.116477	18.9891	22.0241	-2.65136
  48	1	7	0.082726	19.2357	23.2306	-3.91901
  49	1	7	0.078262	22.7468	21.9627	-3.00556
  50	1	7	-0.001602	21.5648	22.1133	-4.3372
  51	1	7	0.028854	21.3088	20.9645	-3.03353
  52	1	3	0.315808	20.0447	21.0913	-0.647449
  53	1	3	0.28245	23.0955	24.6209	1.17561
  54	1	8	-0.039852	22.3339	22.7465	2.94093
  55	1	8	-0.059152	20.6786	20.7911	1.88941
  56	1	1	0.135239	17.8604	13.8126	10.7395
  57	1	1	-0.124676	16.7771	14.6945	10.7415
  58	1	1	0.190416	18.2414	16.6386	10.5774
  59	1	1	-0.226961	16.9645	16.109	10.6291
  60	1	1	-0.017982	21.9559	18.2354	10.0664
  61	1	1	-0.195812	22.369	19.3241	9.28876
  62	1	1	-0.244042	21.1043	17.2847	9.54287
  63	1	1	0.131216	21.9248	19.4341	7.95988
  64	1	1	-0.480889	20.6259	17.3658	8.21198
  65	1	1	0.420559	21.0532	18.4411	7.42848
  66	1	2	0.094496	22.33	17.9399	11.4767
  67	1	3	0.181616	23.0236	20.0914	9.69791
  68	1	2	0.106535	20.8336	16.1804	10.5196
  69	1	4	-0.32219	22.3353	20.4933	7.18052
  70	1	3	0.25841	20.0019	16.6071	7.74539
  71	1	1	0.380364	21.936	20.5446	5.86921
  72	1	1	-0.639904	22.3829	21.6168	5.10137
  73	1	1	0.40258	21.0449	19.5566	5.32568
  74	1	1	0.235245	21.9592	21.6939	3.75864
  75	1	1	-0.64044	20.6377	19.6246	3.97917
  76	1	1	0.243455	21.0922	20.6977	3.18096
  77	1	5	0.683739	23.2844	22.6055	5.63705
  78	1	4	-0.371861	20.6034	18.5291	6.16039
  79	1	5	0.675894	19.7484	18.6628	3.44358
  80	1	6	-0.526708	19.0209	17.9113	2.95913
  81	1	6	-0.532274	24.0102	23.4138	5.99464
  82	1	2	0.077971	21.3801	16.7763	11.8334
  83	1	1	-0.133879	19.3488	15.7848	10.6352
  84	1	2	0.291414	21.4917	14.7954	10.1056
  85	1	7	0.054943	21.807	16.0216	12.4969
  86	1	7	-0.083103	20.5228	17.1527	12.4038
  87	1	2	-0.229696	22.1344	19.1501	12.4254
  88	1	2	-0.134961	23.7905	17.4406	11.5101
  89	1	7	0.062626	22.2573	18.884	13.4792
  90	1	7	0.065775	21.1343	19.5836	12.2835
  91	1	7	0.079929	22.8386	19.9573	12.2061
  92	1	7	0.050506	23.972	16.6414	10.7675
  93	1	7	0.024431	24.0883	17.0894	12.4997
  94	1	7	0.052051	24.4714	18.2522	11.227
  95	1	2	-0.079385	20.5129	13.6204	10.4957
  96	1	7	-0.096983	22.5114	14.6362	10.509
  97	1	7	0.069866	21.5579	14.8255	9.01647
  98	1	2	-0.079851	20.8919	13.0215	11.8705
  99	1	2	-0.424117	20.3919	12.5286	9.41498
 100	1	1	-0.32128	19.1678	14.3738	10.6234
 101	1	7	0.133743	19.9078	12.9757	8.52724
 102	1	7	0.116477	19.8035	11.6774	9.7835
 103	1	7	0.082726	21.3871	12.1842	9.12117
 104	1	7	0.078262	21.8834	12.5584	11.8057
 105	1	7	-0.001602	20.1714	12.2482	12.1758
 106	1	7	0.028854	20.9353	13.7992	12.6365
 107	1	3	0.315808	17.6433	12.7526	10.773
 108	1	3	0.28245	18.3419	17.7056	10.5041
 109	1	8	-0.039852	15.9031	16.9944	10.6846
 110	1	8	-0.059152	15.4753	14.2566	10.7372
 111	1	1	0.135239	4.46057	12.6129	8.68634
 112	1	1	-0.124676	5.00391	12.6136	7.38064
 113	1	1	0.190416	6.04827	14.5518	7.6873
 114	1	1	-0.226961	5.79696	13.4969	6.84288
 115	1	1	-0.017982	7.48565	17.6168	10.1133
 116	1	1	-0.195812	8.78994	18.1377	10.2564
 117	1	1	-0.244042	7.30884	16.2186	10.1739
 118	1	1	0.131216	9.84176	17.2138	10.411
 119	1	1	-0.480889	8.38228	15.3125	10.3297
 120	1	1	0.420559	9.65559	15.8272	10.4581
 121	1	2	0.094496	6.0991	18.3358	10.0204
 122	1	3	0.181616	9.00312	19.2089	10.2041
 123	1	2	0.106535	5.8161	15.7884	9.9867
 124	1	4	-0.32219	11.1305	17.7083	10.4856
 125	1	3	0.25841	8.19193	14.2398	10.3168
 126	1	1	0.380364	12.1828	16.8645	10.5512
 127	1	1	-0.639904	13.4948	17.3683	10.6305
 128	1	1	0.40258	11.9521	15.4572	10.6162
 129	1	1	0.235245	14.5928	16.4775	10.681
 130	1	1	-0.64044	13.0388	14.5433	10.6372
 131	1	1	0.243455	14.3455	15.0661	10.7487
 132	1	5	0.683739	13.6641	18.805	10.6203
 133	1	4	-0.371861	10.6616	14.9735	10.5783
 134	1	5	0.675894	12.8483	13.1277	10.7167
 135	1	6	-0.526708	12.5096	12.0339	10.7963
 136	1	6	-0.532274	14.0779	19.8718	10.6221
 137	1	2	0.077971	5.10697	17.1907	9.67111
 138	1	1	-0.133879	5.50706	14.6447	9.01309
 139	1	2	0.291414	5.28163	15.199	11.3597
 140	1	7	0.054943	4.0972	17.2798	10.1598
 141	1	7	-0.083103	4.86562	17.3095	8.57509
 142	1	2	-0.229696	6.16683	19.358	8.86215
 143	1	2	-0.134961	5.78502	18.9211	11.3864
 144	1	7	0.062626	6.83233	20.1837	9.10737
 145	1	7	0.065775	5.15364	19.7844	8.87557
 146	1	7	0.079929	6.34884	18.9551	7.8702
 147	1	7	0.050506	4.74176	19.2246	11.3379
 148	1	7	0.024431	6.36651	19.8313	11.5725
 149	1	7	0.052051	5.83272	18.2066	12.1919
 150	1	2	-0.079385	4.2821	13.9951	10.8908
 151	1	7	-0.096983	4.88946	15.9806	12.0921
 152	1	7	0.069866	6.09425	14.6861	11.9278
 153	1	2	-0.079851	2.81328	14.4528	10.8851
 154	1	2	-0.424117	4.47016	12.6658	11.6221
 155	1	1	-0.32128	4.65543	13.7116	9.51113
 156	1	7	0.133743	5.46136	12.3013	11.3136
 157	1	7	0.116477	3.73691	11.9169	11.2861
 158	1	7	0.082726	4.46039	12.6993	12.7466
 159	1	7	0.078262	2.16513	13.6923	10.5063
 160	1	7	-0.001602	2.79989	15.217	10.1141
 161	1	7	0.028854	2.41351	14.8672	11.8232
 162	1	3	0.315808	3.86181	11.7579	9.04915
 163	1	3	0.28245	6.75677	15.3618	7.29721
 164	1	8	-0.039852	6.23725	13.3456	5.54231
 165	1	8	-0.059152	4.69287	11.5634	6.65837
 166	1	1	0.135239	3.34186	3.58226	-1.6124
 167	1	1	-0.124676	4.44191	2.96582	-0.95496
 168	1	1	0.190416	5.71621	5.02931	-1.00711
 169	1	1	-0.226961	5.5884	3.71572	-0.597539
 170	1	1	-0.017982	5.97985	9.10541	-1.75196
 171	1	1	-0.195812	6.49244	10.0757	-0.973697
 172	1	1	-0.244042	5.12884	8.20328	-1.11322
 173	1	1	0.131216	6.02409	10.168	0.456546
 174	1	1	-0.480889	4.71375	8.15797	0.255197
 175	1	1	0.420559	4.99287	9.22097	1.09604
 176	1	2	0.094496	6.22465	8.78707	-3.14633
 177	1	3	0.181616	7.16359	10.8043	-1.4584
 178	1	2	0.106535	4.68309	7.11315	-2.20583
 179	1	4	-0.32219	6.49745	11.146	1.3155
 180	1	3	0.25841	4.04765	7.42477	0.688321
 181	1	1	0.380364	6.00586	11.2597	2.70863
 182	1	1	-0.639904	6.18183	12.485	3.54015
 183	1	1	0.40258	4.96761	10.2586	3.09767
 184	1	1	0.235245	5.8549	12.3321	4.87354
 185	1	1	-0.64044	4.9342	10.17	4.65284
 186	1	1	0.243455	5.07362	11.3304	5.3206
 187	1	5	0.683739	7.34503	13.0255	2.6505
 188	1	4	-0.371861	4.56814	9.25569	2.44167
 189	1	5	0.675894	3.53967	9.43435	4.85584
 190	1	6	-0.526708	3.1821	8.2784	4.94736
 191	1	6	-0.532274	7.81819	14.1909	2.85854
 192	1	2	0.077971	5.63861	7.40616	-3.39147
 193	1	1	-0.133879	4.69173	5.62974	-1.74826
 194	1	2	0.291414	3.17667	7.17397	-2.75075
 195	1	7	0.054943	5.12106	7.27502	-4.35339
 196	1	7	-0.083103	6.4839	6.67309	-3.37033
 197	1	2	-0.229696	7.72793	8.79687	-3.32846
 198	1	2	-0.134961	5.6041	9.88589	-3.98416
 199	1	7	0.062626	8.24377	9.72442	-3.0176
 200	1	7	0.065775	7.99648	8.59596	-4.37876
 201	1	7	0.079929	8.25574	8.06307	-2.7042
 202	1	7	0.050506	4.5519	10.0681	-3.72701
 203	1	7	0.024431	5.59372	9.56941	-5.01659
 204	1	7	0.052051	6.05195	10.8907	-3.88013
 205	1	2	-0.079385	2.55933	5.744	-2.89094
 206	1	7	-0.096983	3.11585	7.75829	-3.69649
 207	1	7	0.069866	2.56799	7.73565	-1.99149
 208	1	2	-0.079851	2.51482	5.18512	-4.32777
 209	1	2	-0.424117	1.1368	5.74824	-2.22753
 210	1	1	-0.32128	3.52233	4.90227	-2.08651
 211	1	7	0.133743	0.51302	6.56516	-2.6199
 212	1	7	0.116477	1.26142	5.92486	-1.15085
 213	1	7	0.082726	0.551853	4.81973	-2.33613
 214	1	7	0.078262	3.49508	5.08771	-4.79311
 215	1	7	-0.001602	1.93088	5.87538	-4.93083
 216	1	7	0.028854	2.05141	4.19498	-4.43185
 217	1	3	0.315808	2.46406	2.98762	-1.83516
 218	1	3	0.28245	6.6228	5.59642	-0.833499
 219	1	8	-0.039852	6.63119	3.0926	0.0797297
 220	1	8	-0.059152	4.33707	1.6656	-0.609809
 221	1	1	0.135239	6.1678	-9.11203	2.59026
 222	1	1	-0.124676	5.60937	-8.72831	3.82355
 223	1	1	0.190416	7.12357	-6.80582	3.91182
 224	1	1	-0.226961	6.0764	-7.57715	4.48602
 225	1	1	-0.017982	9.86	-4.38245	2.24331
 226	1	1	-0.195812	9.88358	-2.98841	2.16752
 227	1	1	-0.244042	8.74505	-5.11421	1.86356
 228	1	1	0.131216	8.74871	-2.33244	1.73455
 229	1	1	-0.480889	7.5961	-4.45059	1.41152
 230	1	1	0.420559	7.60035	-3.04894	1.33798
 231	1	2	0.094496	10.9912	-5.328	2.74684
 232	1	3	0.181616	10.7637	-2.42471	2.45132
 233	1	2	0.106535	8.92785	-6.5997	2.03716
 234	1	4	-0.32219	8.75914	-0.985723	1.58927
 235	1	3	0.25841	6.73389	-5.0218	1.13571
 236	1	1	0.380364	7.69015	-0.320568	1.03068
 237	1	1	-0.639904	7.74246	1.06417	0.815789
 238	1	1	0.40258	6.53992	-1.03246	0.672538
 239	1	1	0.235245	6.63503	1.73109	0.307278
 240	1	1	-0.64044	5.41234	-0.391076	0.157606
 241	1	1	0.243455	5.46115	1.00518	-0.0444562
 242	1	5	0.683739	8.94999	1.82064	1.09337
 243	1	4	-0.371861	6.49804	-2.3619	0.850386
 244	1	5	0.675894	4.21784	-1.12824	-0.172232
 245	1	6	-0.526708	3.24477	-1.67874	-0.456213
 246	1	6	-0.532274	9.94573	2.34911	1.3447
 247	1	2	0.077971	10.2471	-6.70264	2.86976
 248	1	1	-0.133879	7.75149	-7.2665	2.74905
 249	1	2	0.291414	8.98835	-7.40231	0.685214
 250	1	7	0.054943	10.8405	-7.56729	2.53766
 251	1	7	-0.083103	9.99023	-6.86269	3.92881
 252	1	2	-0.229696	11.5634	-4.85317	4.10922
 253	1	2	-0.134961	12.16	-5.43416	1.73776
 254	1	7	0.062626	12.2807	-5.58921	4.49907
 255	1	7	0.065775	10.7655	-4.74392	4.86298
 256	1	7	0.079929	12.0645	-3.88756	4.00382
 257	1	7	0.050506	11.8692	-5.81515	0.756937
 258	1	7	0.024431	12.9441	-6.09957	2.13265
 259	1	7	0.052051	12.6208	-4.43998	1.61014
 260	1	2	-0.079385	8.09582	-8.6994	0.878368
 261	1	7	-0.096983	10.0063	-7.64897	0.372328
 262	1	7	0.069866	8.57775	-6.78262	-0.120577
 263	1	2	-0.079851	9.01124	-9.93829	1.1276
 264	1	2	-0.424117	7.24954	-9.03306	-0.378502
 265	1	1	-0.32128	7.2522	-8.37559	2.08439
 266	1	7	0.133743	6.54165	-8.21623	-0.579729
 267	1	7	0.116477	6.64443	-9.93257	-0.257879
 268	1	7	0.082726	7.84844	-9.18126	-1.29419
 269	1	7	0.078262	9.70652	-10.1097	0.2986
 270	1	7	-0.001602	8.4382	-10.8543	1.26379
 271	1	7	0.028854	9.59469	-9.77993	2.04327
 272	1	3	0.315808	5.81143	-10.0003	2.07643
 273	1	3	0.28245	7.44354	-5.92814	4.42913
 274	1	8	-0.039852	5.56898	-7.23146	5.72307
 275	1	8	-0.059152	4.60309	-9.47101	4.39764
 276	1	1	0.135239	-4.64009	-11.9856	10.8379
 277	1	1	-0.124676	-5.09745	-10.7351	10.3377
 278	1	1	0.190416	-2.97558	-9.70326	11.002
 279	1	1	-0.226961	-4.25873	-9.59785	10.4305
 280	1	1	-0.017982	0.480285	-9.58788	11.9902
 281	1	1	-0.195812	1.49762	-8.79924	11.4086
 282	1	1	-0.244042	-0.129249	-10.6196	11.3129
 283	1	1	0.131216	1.88403	-9.06765	10.0874
 284	1	1	-0.480889	0.269878	-10.906	9.98968
 285	1	1	0.420559	1.31303	-10.155	9.39171
 286	1	2	0.094496	-0.0632214	-9.4145	13.3756
 287	1	3	0.181616	1.93252	-7.96825	11.9456
 288	1	2	0.106535	-1.22726	-11.2643	12.1322
 289	1	4	-0.32219	2.83209	-8.28681	9.48762
 290	1	3	0.25841	-0.20843	-11.7	9.41535
 291	1	1	0.380364	3.20032	-8.5388	8.19834
 292	1	1	-0.639904	4.19905	-7.75235	7.641
 293	1	1	0.40258	2.6593	-9.64189	7.4929
 294	1	1	0.235245	4.63934	-8.04488	6.31395
 295	1	1	-0.64044	3.11707	-9.94922	6.20017
 296	1	1	0.243455	4.12886	-9.17217	5.62758
 297	1	5	0.683739	4.71193	-6.60987	8.33395
 298	1	4	-0.371861	1.67674	-10.4186	8.0802
 299	1	5	0.675894	2.53384	-11.0706	5.52624
 300	1	6	-0.526708	2.00793	-12.0018	5.13483
 301	1	6	-0.532274	5.21526	-5.67282	8.79011
 302	1	2	0.077971	-1.07373	-10.5969	13.5312
 303	1	1	-0.133879	-2.53751	-10.9558	11.5095
 304	1	2	0.291414	-1.2147	-12.8351	12.1312
 305	1	7	0.054943	-0.655682	-11.3199	14.2379
 306	1	7	-0.083103	-2.02561	-10.26	13.9663
 307	1	2	-0.229696	-0.744789	-8.03509	13.5868
 308	1	2	-0.134961	1.10182	-9.5623	14.4217
 309	1	7	0.062626	-1.71912	-7.95806	13.0819
 310	1	7	0.065775	-0.131544	-7.2039	13.2142
 311	1	7	0.079929	-0.926106	-7.87577	14.655
 312	1	7	0.050506	1.85914	-8.77934	14.3348
 313	1	7	0.024431	1.59718	-10.5372	14.3045
 314	1	7	0.052051	0.723114	-9.51554	15.4493
 315	1	2	-0.079385	-2.66962	-13.3303	11.8839
 316	1	7	-0.096983	-0.779503	-13.2474	13.0544
 317	1	7	0.069866	-0.59277	-13.2122	11.3154
 318	1	2	-0.079851	-3.34933	-13.7719	13.179
 319	1	2	-0.424117	-2.74121	-14.5146	10.8898
 320	1	1	-0.32128	-3.34467	-12.082	11.3588
 321	1	7	0.133743	-2.41452	-14.2391	9.87947
 322	1	7	0.116477	-3.76697	-14.9173	10.8207
 323	1	7	0.082726	-2.08057	-15.3369	11.209
 324	1	7	0.078262	-3.35391	-12.9537	13.9094
 325	1	7	-0.001602	-2.82989	-14.6246	13.637
 326	1	7	0.028854	-4.38476	-14.0828	12.9845
 327	1	3	0.315808	-5.26249	-12.8818	10.7744
 328	1	3	0.28245	-2.32848	-8.82269	11.0266
 329	1	8	-0.039852	-4.72923	-8.34589	9.99952
 330	1	8	-0.059152	-6.32978	-10.5993	9.74597
 331	1	1	0.135239	-15.5534	-6.6155	3.80449
 332	1	1	-0.124676	-14.7181	-6.32843	2.70941
 333	1	1	0.190416	-13.0665	-5.2654	4.16824
 334	1	1	-0.226961	-13.5099	-5.61821	2.88491
 335	1	1	-0.017982	-11.5941	-4.26435	7.39359
 336	1	1	-0.195812	-10.2292	-4.31827	7.70021
 337	1	1	-0.244042	-12.3234	-5.40306	7.14227
 338	1	1	0.131216	-9.63395	-5.58821	7.87037
 339	1	1	-0.480889	-11.7294	-6.6723	7.18381
 340	1	1	0.420559	-10.4061	-6.76723	7.63922
 341	1	2	0.094496	-12.446	-3.01762	7.24512
 342	1	3	0.181616	-9.67558	-3.41737	7.93258
 343	1	2	0.106535	-13.733	-5.10656	6.68066
 344	1	4	-0.32219	-8.34646	-5.67923	8.29351
 345	1	3	0.25841	-12.3095	-7.56717	6.95834
 346	1	1	0.380364	-7.82419	-6.87009	8.53682
 347	1	1	-0.639904	-6.55751	-6.98031	9.18741
 348	1	1	0.40258	-8.58354	-8.04979	8.30626
 349	1	1	0.235245	-6.02311	-8.2387	9.49286
 350	1	1	-0.64044	-8.05439	-9.33583	8.73794
 351	1	1	0.243455	-6.82464	-9.37961	9.33779
 352	1	5	0.683739	-5.7115	-5.80983	9.34052
 353	1	4	-0.371861	-9.83684	-8.01535	7.8255
 354	1	5	0.675894	-8.79942	-10.5429	8.53794
 355	1	6	-0.526708	-9.70568	-11.2064	8.25944
 356	1	6	-0.532274	-5.22145	-4.75018	9.31871
 357	1	2	0.077971	-13.8539	-3.54064	6.83031
 358	1	1	-0.133879	-13.9333	-5.51854	5.22867
 359	1	2	0.291414	-14.8647	-5.87996	7.45576
 360	1	7	0.054943	-14.5875	-3.2138	7.58274
 361	1	7	-0.083103	-14.139	-3.10494	5.86858
 362	1	2	-0.229696	-11.8401	-2.06493	6.17023
 363	1	2	-0.134961	-12.5268	-2.2606	8.6028
 364	1	7	0.062626	-12.4928	-1.2132	5.93331
 365	1	7	0.065775	-11.7316	-2.62713	5.23645
 366	1	7	0.079929	-10.8608	-1.67888	6.46805
 367	1	7	0.050506	-12.9672	-2.93477	9.35648
 368	1	7	0.024431	-13.1662	-1.37065	8.53652
 369	1	7	0.052051	-11.5398	-1.94566	8.96279
 370	1	2	-0.079385	-15.9277	-6.26899	6.36579
 371	1	7	-0.096983	-15.2942	-5.30877	8.29484
 372	1	7	0.069866	-14.4371	-6.79788	7.90525
 373	1	2	-0.079851	-17.1168	-5.23707	6.33391
 374	1	2	-0.424117	-16.4374	-7.70608	6.57486
 375	1	1	-0.32128	-15.1521	-6.16623	5.06571
 376	1	7	0.133743	-15.5851	-8.3892	6.53655
 377	1	7	0.116477	-17.1362	-7.97975	5.77312
 378	1	7	0.082726	-16.9428	-7.81965	7.53894
 379	1	7	0.078262	-16.7103	-4.23509	6.1124
 380	1	7	-0.001602	-17.6679	-5.19123	7.2825
 381	1	7	0.028854	-17.8175	-5.47817	5.53835
 382	1	3	0.315808	-16.4915	-7.13783	3.66585
 383	1	3	0.28245	-12.1341	-4.74163	4.33854
 384	1	8	-0.039852	-12.753	-5.27263	1.79384
 385	1	8	-0.059152	-15.1194	-6.58935	1.44167
 386	1	1	0.135239	-17.0711	-6.09008	-10.1415
 387	1	1	-0.124676	-16.1608	-7.14457	-10.3149
 388	1	1	0.190416	-14.5299	-6.03155	-8.88121
 389	1	1	-0.226961	-14.8814	-7.11963	-9.69409
 390	1	1	-0.017982	-13.5252	-3.10932	-6.34117
 391	1	1	-0.195812	-12.837	-3.18068	-5.12138
 392	1	1	-0.244042	-14.6168	-3.91901	-6.56387
 393	1	1	0.131216	-13.3341	-4.02927	-4.109
 394	1	1	-0.480889	-15.1036	-4.82058	-5.58341
 395	1	1	0.420559	-14.4757	-4.82782	-4.3238
 396	1	2	0.094496	-13.2669	-2.16435	-7.49585
 397	1	3	0.181616	-11.9709	-2.55579	-4.93538
 398	1	2	0.106535	-15.1931	-3.69173	-7.93615
 399	1	4	-0.32219	-12.7072	-4.0839	-2.90163
 400	1	3	0.25841	-15.9789	-5.4508	-5.73778
 401	1	1	0.380364	-13.2793	-4.75654	-1.83508
 402	1	1	-0.639904	-12.6619	-4.7185	-0.572455
 403	1	1	0.40258	-14.4464	-5.53774	-2.05443
 404	1	1	0.235245	-13.2895	-5.37844	0.531246
 405	1	1	-0.64044	-15.0577	-6.19707	-0.964853
 406	1	1	0.243455	-14.508	-6.07529	0.328044
 407	1	5	0.683739	-11.4991	-3.93349	-0.354186
 408	1	4	-0.371861	-15.0021	-5.60325	-3.313
 409	1	5	0.675894	-16.2909	-6.88423	-1.15668
 410	1	6	-0.526708	-17.2875	-7.47545	-1.18938
 411	1	6	-0.532274	-10.5404	-3.28029	-0.282749
 412	1	2	0.077971	-14.1602	-2.75634	-8.60768
 413	1	1	-0.133879	-15.4315	-4.96705	-8.73476
 414	1	2	0.291414	-16.6137	-3.06621	-7.91796
 415	1	7	0.054943	-14.6272	-1.98676	-9.23017
 416	1	7	-0.083103	-13.5403	-3.35292	-9.2766
 417	1	2	-0.229696	-11.7961	-2.15047	-7.90425
 418	1	2	-0.134961	-13.7493	-0.745474	-7.16357
 419	1	7	0.062626	-11.6719	-1.59771	-8.83857
 420	1	7	0.065775	-11.4412	-3.17748	-8.01727
 421	1	7	0.079929	-11.1793	-1.65875	-7.14229
 422	1	7	0.050506	-13.1604	-0.298678	-6.35776
 423	1	7	0.024431	-14.7996	-0.751961	-6.8325
 424	1	7	0.052051	-13.6836	-0.0999309	-8.05325
 425	1	2	-0.079385	-17.4655	-3.74928	-9.05827
 426	1	7	-0.096983	-16.5995	-1.9747	-8.0166
 427	1	7	0.069866	-17.055	-3.29832	-6.94138
 428	1	2	-0.079851	-17.5029	-2.82165	-10.3212
 429	1	2	-0.424117	-18.896	-4.10867	-8.60691
 430	1	1	-0.32128	-16.676	-4.99913	-9.3521
 431	1	7	0.133743	-19.467	-4.55697	-9.42782
 432	1	7	0.116477	-19.4414	-3.20178	-8.29398
 433	1	7	0.082726	-18.8886	-4.80601	-7.76416
 434	1	7	0.078262	-16.5028	-2.62492	-10.7272
 435	1	7	-0.001602	-17.97	-1.87309	-10.0533
 436	1	7	0.028854	-18.1293	-3.2534	-11.1113
 437	1	3	0.315808	-18.0405	-6.10065	-10.6237
 438	1	3	0.28245	-13.5611	-5.96659	-8.40731
 439	1	8	-0.039852	-13.9789	-8.1207	-9.9599
 440	1	8	-0.059152	-16.4979	-8.21166	-11.1192
 441	1	1	0.135239	-16.1761	-17.045	-18.5672
 442	1	1	-0.124676	-16.4334	-18.001	-17.5358
 443	1	1	0.190416	-14.6349	-16.9658	-16.1809
 444	1	1	-0.226961	-15.6441	-17.9553	-16.3266
 445	1	1	-0.017982	-11.968	-14.0683	-15.5653
 446	1	1	-0.195812	-11.6879	-13.2756	-14.4494
 447	1	1	-0.244042	-13.2501	-14.1709	-16.0767
 448	1	1	0.131216	-12.762	-12.6075	-13.8303
 449	1	1	-0.480889	-14.3334	-13.5006	-15.4811
 450	1	1	0.420559	-14.0688	-12.7009	-14.358
 451	1	2	0.094496	-10.9587	-14.7988	-16.4183
 452	1	3	0.181616	-10.6736	-13.1919	-14.0819
 453	1	2	0.106535	-13.3138	-15.0512	-17.3
 454	1	4	-0.32219	-12.5295	-11.7826	-12.7424
 455	1	3	0.25841	-15.3433	-13.564	-15.897
 456	1	1	0.380364	-13.5311	-10.9604	-12.2566
 457	1	1	-0.639904	-13.2334	-10.0136	-11.2802
 458	1	1	0.40258	-14.8272	-11.0301	-12.8577
 459	1	1	0.235245	-14.2616	-9.10737	-10.8666
 460	1	1	-0.64044	-15.8264	-10.1068	-12.4774
 461	1	1	0.243455	-15.5589	-9.15693	-11.4625
 462	1	5	0.683739	-11.9243	-9.95247	-10.6646
 463	1	4	-0.371861	-15.0931	-11.9691	-13.8275
 464	1	5	0.675894	-17.1295	-10.1313	-13.104
 465	1	6	-0.526708	-18.1986	-10.0851	-13.551
 466	1	6	-0.532274	-10.9038	-9.843	-10.1422
 467	1	2	0.077971	-11.8691	-15.6128	-17.392
 468	1	1	-0.133879	-14.397	-16.0847	-17.2406
 469	1	2	0.291414	-13.6827	-14.2324	-18.5954
 470	1	7	0.054943	-11.4757	-15.6001	-18.4127
 471	1	7	-0.083103	-11.8766	-16.6672	-17.0796
 472	1	2	-0.229696	-10.089	-15.7659	-15.5749
 473	1	2	-0.134961	-10.0217	-13.809	-17.1706
 474	1	7	0.062626	-9.43056	-15.2246	-14.8944
 475	1	7	0.065775	-9.44	-16.3748	-16.2273
 476	1	7	0.079929	-10.7118	-16.4339	-14.9573
 477	1	7	0.050506	-9.40322	-13.2533	-16.4589
 478	1	7	0.024431	-10.6206	-13.0943	-17.741
 479	1	7	0.052051	-9.34438	-14.3365	-17.8565
 480	1	2	-0.079385	-14.6208	-15.1505	-19.4307
 481	1	7	-0.096983	-12.8324	-13.8845	-19.2071
 482	1	7	0.069866	-14.2538	-13.3233	-18.3039
 483	1	2	-0.079851	-13.8463	-15.9058	-20.5417
 484	1	2	-0.424117	-15.767	-14.3651	-20.0967
 485	1	1	-0.32128	-15.1313	-16.1433	-18.4112
 486	1	7	0.133743	-15.3767	-13.5595	-20.7223
 487	1	7	0.116477	-16.3887	-13.8936	-19.3169
 488	1	7	0.082726	-16.4265	-14.9848	-20.7208
 489	1	7	0.078262	-14.4887	-16.5919	-21.1141
 490	1	7	-0.001602	-13.0405	-16.502	-20.1155
 491	1	7	0.028854	-13.3741	-15.2011	-21.2427
 492	1	3	0.315808	-16.7594	-17.0284	-19.4841
 493	1	3	0.28245	-14.0156	-16.8569	-15.2978
 494	1	8	-0.039852	-15.868	-18.8959	-15.3659
 495	1	8	-0.059152	-17.4467	-18.9284	-17.6264
 496	1	1	0.135239	-25.2465	-27.146	-16.2757
 497	1	1	-0.124676	-25.9811	-26.0528	-15.7651
 498	1	1	0.190416	-24.1231	-25.5009	-14.276
 499	1	1	-0.226961	-25.4059	-25.2336	-14.7794
 500	1	1	-0.017982	-20.2097	-25.8731	-13.227
 501	1	1	-0.195812	-19.2233	-24.8971	-13.015
 502	1	1	-0.244042	-21.0289	-25.8315	-14.3525
 503	1	1	0.131216	-19.0938	-23.8436	-13.9514
 504	1	1	-0.480889	-20.8854	-24.7846	-15.3196
 505	1	1	0.420559	-19.9384	-23.7962	-15.0808
 506	1	2	0.094496	-20.5379	-27.0584	-12.3404
 507	1	3	0.181616	-18.5814	-24.9797	-12.1375
 508	1	2	0.106535	-22.0052	-27.012	-14.4329
 509	1	4	-0.32219	-18.1178	-22.8822	-13.7813
 510	1	3	0.25841	-21.4945	-24.7358	-16.2223
 511	1	1	0.380364	-17.9698	-21.8705	-14.6966
 512	1	1	-0.639904	-16.9761	-20.8849	-14.5657
 513	1	1	0.40258	-18.8109	-21.8266	-15.8461
 514	1	1	0.235245	-16.8423	-19.8495	-15.5275
 515	1	1	-0.64044	-18.6276	-20.8129	-16.8387
 516	1	1	0.243455	-17.6048	-19.8573	-16.7019
 517	1	5	0.683739	-16.1596	-20.9178	-13.3698
 518	1	4	-0.371861	-19.8014	-22.7954	-16.0233
 519	1	5	0.675894	-19.4724	-20.7741	-18.0352
 520	1	6	-0.526708	-20.0198	-20.5806	-19.0141
 521	1	6	-0.532274	-15.5385	-21.0255	-12.3936
 522	1	2	0.077971	-21.8379	-27.6421	-13.0013
 523	1	1	-0.133879	-23.4248	-26.5904	-14.8065
 524	1	2	0.291414	-21.6457	-28.0121	-15.5736
 525	1	7	0.054943	-21.8679	-28.7348	-12.9915
 526	1	7	-0.083103	-22.6895	-27.2991	-12.4072
 527	1	2	-0.229696	-20.7757	-26.6716	-10.8518
 528	1	2	-0.134961	-19.4132	-28.0941	-12.3775
 529	1	7	0.062626	-19.8419	-26.3462	-10.368
 530	1	7	0.065775	-21.1598	-27.5528	-10.306
 531	1	7	0.079929	-21.5318	-25.8818	-10.754
 532	1	7	0.050506	-19.1902	-28.4346	-13.3997
 533	1	7	0.024431	-19.717	-28.9669	-11.7851
 534	1	7	0.052051	-18.4808	-27.6721	-11.9683
 535	1	2	-0.079385	-22.9852	-28.5056	-16.2163
 536	1	7	-0.096983	-21.0337	-28.864	-15.2358
 537	1	7	0.069866	-21.0428	-27.4614	-16.3112
 538	1	2	-0.079851	-23.4032	-29.8715	-15.6206
 539	1	2	-0.424117	-22.8901	-28.6024	-17.7476
 540	1	1	-0.32128	-23.9547	-27.4089	-15.7998
 541	1	7	0.133743	-23.7984	-29.0316	-18.1784
 542	1	7	0.116477	-22.0471	-29.2265	-18.0435
 543	1	7	0.082726	-22.7347	-27.6088	-18.2005
 544	1	7	0.078262	-22.7164	-30.6708	-15.9241
 545	1	7	-0.001602	-24.394	-30.1484	-15.9804
 546	1	7	0.028854	-23.4497	-29.8317	-14.5204
 547	1	3	0.315808	-25.6925	-27.79	-17.0309
 548	1	3	0.28245	-23.6629	-24.8657	-13.5141
 549	1	8	-0.039852	-26.0856	-24.1629	-14.3029
 550	1	8	-0.059152	-27.2417	-25.815	-16.2261
 551	1	3	0	20.6277	34.1159	1.29022
 552	1	3	0	18.5121	32.8882	1.7381
 553	1	9	0	-26.9509	-24.1338	-14.7466
 554	1	9	0	-27.5375	-24.9489	-15.898

Velocities

   1	-0.000514631	0.00152766	8.17353e-06
   2	-0.000788535	-0.00059408	0.00160081
   3	-0.00132055	-0.00176601	-0.000870066
   4	-0.00047656	-0.00130832	-0.000911528
   5	-0.0005543	-0.00116053	-0.000830351
   6	-0.00127283	0.000275285	0.000532514
   7	0.00136647	-0.00133855	0.00189025
   8	-0.000648395	0.00044552	-0.000690332
   9	-0.0026756	-0.000683766	0.00170879
  10	-0.000128817	-0.000352638	0.000355955
  11	0.000582444	-7.85568e-06	0.000448595
  12	-0.00456308	-0.00203397	0.00175994
  13	-0.00108658	0.00100563	-0.000578683
  14	0.00012233	0.000621946	-0.000526105
  15	0.00159955	-0.00338402	-0.00118329
  16	-0.000385125	0.000369201	0.00243379
  17	0.00159477	0.00187845	0.000208161
  18	0.00297402	-0.000243806	0.00213268
  19	0.000682074	0.000891058	0.00167451
  20	-0.00182354	-0.00123211	-0.00256502
  21	0.00125741	-0.000252782	0.00084284
  22	-0.00195477	0.00102604	-0.00174317
  23	0.000716484	-0.000125003	-0.000365662
  24	-0.00105782	-0.00260292	0.00078001
  25	-0.000466699	-0.000406773	-0.000290726
  26	0.000387101	-0.00220646	-0.000138051
  27	0.00177574	-0.000643771	-0.00147993
  28	-0.000401408	0.000971885	0.00143441
  29	0.000329635	0.00111692	-0.00240312
  30	0.00407857	0.00270058	-0.00158928
  31	-0.00241272	0.00171071	-0.00240835
  32	-0.000197833	0.000602686	-0.00122191
  33	0.00244705	0.000241841	0.00068325
  34	0.00179704	0.000783491	-0.00210847
  35	0.00275387	-0.00309379	0.00347586
  36	-0.000263149	-0.00477471	-0.000251943
  37	0.00231951	0.00269202	0.00194853
  38	0.00346236	0.00101572	-0.000295617
  39	0.00224031	0.00319608	-0.000527457
  40	0.000205294	-0.000551985	0.00176474
  41	-0.00159867	0.00542006	-0.00637466
  42	-0.000351415	0.00216012	0.000204776
  43	0.00135706	0.000181069	-0.00232245
  44	-0.00232543	0.00222246	-0.000992423
  45	0.001391	-0.00159406	-0.0021364
  46	-0.000947621	-0.000630455	0.00193994
  47	-0.00125644	-0.000655557	-0.00392312
  48	-0.00572086	0.00201042	-0.0069606
  49	0.00129843	0.000779003	-0.00160563
  50	0.00281771	0.0132763	-0.00519705
  51	-0.00311622	0.000363273	-0.00666038
  52	-0.00682659	-0.00213991	0.00715566
  53	-0.00464496	0.000615998	-0.00896871
  54	-0.000998568	0.00112796	6.42505e-05
  55	0.00136751	0.0015954	-0.00037672
  56	-0.00271086	0.00807304	-3.16274e-05
  57	0.00157814	0.00408332	0.00165517
  58	0.00375535	0.00166313	-0.00246067
  59	0.00283962	-0.00352876	0.0043179
  60	0.000611595	-0.00175294	0.000420077
  61	0.00197826	-0.00252313	0.000142953
  62	0.00210723	0.000233742	0.00202851
  63	0.00163989	-0.0026333	0.00147698
  64	0.0019636	0.00096336	-0.00275748
  65	-0.00193054	0.0013466	0.000181126
  66	0.00103001	-0.00391117	0.000465937
  67	0.00345098	-0.00226889	-0.00141339
  68	0.000517701	-0.00165214	0.00338052
  69	-0.000553458	0.000352702	-0.000614331
  70	0.00825419	-0.00487738	-0.00683342
  71	0.00343317	-0.00197399	0.000993047
  72	-0.00439414	0.00292885	-0.000824544
  73	-0.00139514	0.00165762	0.00388313
  74	0.00202779	-0.00216353	0.00026433
  75	0.000642618	-0.0027792	0.00296792
  76	0.000519781	0.00156627	0.00093204
  77	-0.002304	0.00026468	0.000744374
  78	9.24435e-05	0.00358813	0.00194239
  79	-0.00494049	0.00266357	-0.000957025
  80	0.00305116	-0.00303752	-0.000895594
  81	-0.000408268	6.10815e-05	-0.00143447
  82	-0.00154538	0.00161824	-0.00188894
  83	-0.00145898	-0.00144412	4.19181e-05
  84	-0.0025183	0.0032125	-0.000490301
  85	-0.0163987	0.00160435	-0.00257602
  86	-0.00482954	-0.000225112	-0.000944416
  87	-0.000189254	-0.00162189	-0.00115156
  88	-0.00192168	0.00169361	-0.00202946
  89	0.0130278	-0.00226313	-0.00131561
  90	-0.00164125	0.00653365	0.0163809
  91	-0.000257171	0.0018706	0.00197684
  92	0.00470926	0.00622326	-0.00137636
  93	-0.0103854	0.00441374	-0.000735415
  94	-0.000815707	0.0111137	0.010463
  95	0.0041455	-0.00114964	0.00107833
  96	0.00437019	0.00563716	0.00410337
  97	-0.0102296	0.00564256	-0.00425971
  98	0.000926182	7.43423e-05	0.00372875
  99	-0.00180834	0.000796205	-0.00309182
 100	-0.00175856	-0.00328854	-0.0017212