pySIMM System Object

953 atoms
1063 bonds
1938 angles
3178 dihedrals
136 impropers

9 atom types
10 bond types
15 angle types
8 dihedral types
2 improper types

-145.173812 145.173812 xlo xhi
-145.173812 145.173812 ylo yhi
-145.173812 145.173812 zlo zhi

Masses

   1	12.01	# ca
   2	12.01	# c3
   3	1.008	# ha
   4	16.0	# os
   5	12.01	# cg
   6	14.01	# n1
   7	1.008	# hc
   8	16.0	# oh
   9	1.008	# ho

Pair Coeffs

   1	0.086	3.3996695084235347	# ca
   2	0.1094	3.3996695084235347	# c3
   3	0.015	2.59964245953351	# ha
   4	0.17	3.0000123434657784	# os
   5	0.21	3.3996695084235347	# cg
   6	0.17	3.249998523775958	# n1
   7	0.0157	2.649532787749369	# hc
   8	0.2104	3.0664733878390478	# oh
   9	0.0047	0.5379246460131368	# ho

Bond Coeffs

   1	943.1	1.1566	# cg,n1
   2	321.0	1.5156	# c3,ca
   3	300.9	1.5375	# c3,c3
   4	330.6	1.0969	# c3,hc
   5	376.6	1.3696	# ca,os
   6	461.1	1.3984	# ca,ca
   7	371.4	0.973	# ho,oh
   8	384.0	1.3637	# ca,oh
   9	345.8	1.086	# ca,ha
  10	413.3	1.4328	# ca,cg

Angle Coeffs

   1	69.52	119.9	# ca,ca,oh
   2	63.56	112.24	# ca,c3,ca
   3	63.48	119.89	# ca,os,ca
   4	65.72	120.27	# ca,ca,cg
   5	48.18	119.88	# ca,ca,ha
   6	39.4	107.58	# hc,c3,hc
   7	63.53	120.77	# c3,ca,ca
   8	69.58	119.2	# ca,ca,os
   9	58.92	179.49	# ca,cg,n1
  10	49.0	108.58	# ca,oh,ho
  11	62.86	111.51	# c3,c3,c3
  12	66.62	120.02	# ca,ca,ca
  13	63.15	112.07	# c3,c3,ca
  14	46.34	109.8	# c3,c3,hc
  15	63.5	119.89	# ca,oh,ca

Dihedral Coeffs

   1	1	3.625	2	180	# X,ca,ca,X
   2	1	3.625	2	180	# X,cg,ca,ca
   3	1	0.15555555555555556	3	0	# X,c3,c3,X
   4	1	0.0	2	0	# X,c3,ca,X
   5	1	0.9	2	180	# X,ca,os,X
   6	3	0.18	3	0	0.25	2	180	0.2	1	180	# c3,c3,c3,c3
   7	1	0.9	2	180	# X,ca,oh,X
   8	1	0.16	3	0	# hc,c3,c3,c3

Improper Coeffs

   1	1.1	-1	2	# ca,X,X,ha
   2	1.1	-1	2	# ca,ca,ca,c3

Atoms

   1	1	1	0.135239	-20.8814	7.38163	33.0294
   2	1	1	-0.124676	-22.0955	6.7857	32.5599
   3	1	1	0.190416	-22.0354	5.15497	34.3277
   4	1	1	-0.226961	-22.7831	5.78051	33.3438
   5	1	1	-0.017982	-20.7659	4.19626	37.9107
   6	1	1	-0.195812	-21.5805	3.92335	39.009
   7	1	1	-0.244042	-20.9445	5.33578	37.1275
   8	1	1	0.131216	-22.5724	4.83036	39.2846
   9	1	1	-0.480889	-21.7519	6.40563	37.5057
  10	1	1	0.420559	-22.6844	6.04614	38.5608
  11	1	2	0.094496	-19.7795	3.21536	37.3789
  12	1	3	0.181616	-21.4288	2.98518	39.5759
  13	1	2	0.106535	-20.0197	5.21839	35.9273
  14	1	4	-0.32219	-23.4487	4.60933	40.3072
  15	1	3	0.25841	-21.7148	7.29265	36.9192
  16	1	1	0.380364	-24.613	5.49661	40.5417
  17	1	1	-0.639904	-25.4855	5.17304	41.5967
  18	1	1	0.40258	-24.6501	6.58913	39.7905
  19	1	1	0.235245	-26.3801	6.1573	41.9484
  20	1	1	-0.64044	-25.3918	7.81105	40.402
  21	1	1	0.243455	-26.4687	7.39282	41.2861
  22	1	5	0.683739	-25.4409	3.96482	42.3256
  23	1	4	-0.371861	-23.6008	6.96673	38.9479
  24	1	5	0.675894	-25.5487	9.147	39.6851
  25	1	6	-0.526708	-25.5843	9.50041	38.6495
  26	1	6	-0.532274	-25.2519	2.96658	42.8394
  27	1	2	0.077971	-19.6258	3.70592	35.9231
  28	1	1	-0.133879	-20.7814	5.67794	34.711
  29	1	2	0.291414	-18.8737	6.18419	36.0584
  30	1	7	0.054943	-18.6293	3.52958	35.5651
  31	1	7	-0.083103	-20.235	3.06741	35.2596
  32	1	2	-0.229696	-20.4126	1.76896	37.3703
  33	1	2	-0.134961	-18.4139	3.18762	38.2148
  34	1	7	0.062626	-19.6046	1.20372	36.8728
  35	1	7	0.065775	-21.3551	1.65525	36.8234
  36	1	7	0.079929	-20.4191	1.25272	38.3633
  37	1	7	0.050506	-18.5404	2.73902	39.2086
  38	1	7	0.024431	-18.0139	4.20316	38.3735
  39	1	7	0.052051	-17.6187	2.65022	37.6878
  40	1	2	-0.079385	-18.8344	7.04927	34.695
  41	1	7	-0.096983	-17.952	5.70743	36.3432
  42	1	7	0.069866	-19.1901	6.81435	36.8575
  43	1	2	-0.079851	-17.8758	6.46242	33.6239
  44	1	2	-0.424117	-18.5258	8.53257	34.981
  45	1	1	-0.32128	-20.2857	6.82891	34.1638
  46	1	7	0.133743	-17.5444	8.70241	35.4785
  47	1	7	0.116477	-19.2792	8.988	35.6403
  48	1	7	0.082726	-18.5147	9.16731	34.0968
  49	1	7	0.078262	-17.9463	6.97381	32.6447
  50	1	7	-0.001602	-18.2651	5.46434	33.4471
  51	1	7	0.028854	-16.869	6.47045	34.049
  52	1	3	0.315808	-20.3299	8.13096	32.4387
  53	1	3	0.28245	-22.4709	4.34388	34.8682
  54	1	8	-0.039852	-23.9555	5.27169	32.8864
  55	1	8	-0.059152	-22.6281	7.20994	31.4128
  56	1	1	0.135239	-30.139	12.1218	24.685
  57	1	1	-0.124676	-30.1284	12.8102	25.8707
  58	1	1	0.190416	-30.4057	10.7119	27.1218
  59	1	1	-0.226961	-30.2851	12.1137	27.0877
  60	1	1	-0.017982	-30.3225	6.92405	27.6503
  61	1	1	-0.195812	-29.675	6.08441	28.5696
  62	1	1	-0.244042	-29.602	7.89372	26.9385
  63	1	1	0.131216	-28.2957	6.20064	28.8061
  64	1	1	-0.480889	-28.2217	8.07183	27.182
  65	1	1	0.420559	-27.5913	7.2258	28.0935
  66	1	2	0.094496	-31.7141	6.72564	27.0917
  67	1	3	0.181616	-30.1827	5.23482	29.0131
  68	1	2	0.106535	-30.4871	8.55254	25.8621
  69	1	4	-0.32219	-27.6036	5.38886	29.6963
  70	1	3	0.25841	-27.589	8.76752	26.6354
  71	1	1	0.380364	-26.3605	5.81212	30.1431
  72	1	1	-0.639904	-25.8623	5.37869	31.362
  73	1	1	0.40258	-25.634	6.76248	29.3566
  74	1	1	0.235245	-24.5705	5.77329	31.7832
  75	1	1	-0.64044	-24.3817	7.22646	29.7467
  76	1	1	0.243455	-23.8578	6.7726	30.9872
  77	1	5	0.683739	-26.6346	4.45154	32.086
  78	1	4	-0.371861	-26.196	7.29307	28.2131
  79	1	5	0.675894	-23.6411	8.12398	28.9154
  80	1	6	-0.526708	-22.945	8.86891	28.3557
  81	1	6	-0.532274	-27.1879	3.6759	32.7283
  82	1	2	0.077971	-31.8478	7.87848	26.0612
  83	1	1	-0.133879	-30.489	10.0404	25.9338
  84	1	2	0.291414	-29.9482	8.38435	24.3846
  85	1	7	0.054943	-32.2009	7.49069	25.0885
  86	1	7	-0.083103	-32.6277	8.60017	26.3706
  87	1	2	-0.229696	-32.8582	6.80124	28.1001
  88	1	2	-0.134961	-31.8036	5.34386	26.3874
  89	1	7	0.062626	-33.8363	6.65159	27.617
  90	1	7	0.065775	-32.8876	7.78219	28.5773
  91	1	7	0.079929	-32.7452	6.01544	28.8834
  92	1	7	0.050506	-31.7729	4.5441	27.1389
  93	1	7	0.024431	-30.9695	5.22042	25.6802
  94	1	7	0.052051	-32.7438	5.2036	25.8113
  95	1	2	-0.079385	-30.2176	9.71061	23.5931
  96	1	7	-0.096983	-30.3573	7.51349	23.8589
  97	1	7	0.069866	-28.8644	8.23149	24.4465
  98	1	2	-0.079851	-31.55	9.62761	22.8319
  99	1	2	-0.424117	-29.0582	9.975	22.5973
 100	1	1	-0.32128	-30.3317	10.6988	24.7233
 101	1	7	0.133743	-28.9745	9.20145	21.8405
 102	1	7	0.116477	-28.1297	9.97693	23.1437
 103	1	7	0.082726	-29.1665	10.9429	22.1286
 104	1	7	0.078262	-31.4706	9.09889	21.8756
 105	1	7	-0.001602	-31.8725	10.6556	22.5774
 106	1	7	0.028854	-32.3547	9.17306	23.4286
 107	1	3	0.315808	-29.9691	12.6459	23.7501
 108	1	3	0.28245	-30.4683	10.1849	28.0447
 109	1	8	-0.039852	-30.4094	12.8334	28.2627
 110	1	8	-0.059152	-30.0036	14.165	25.8394
 111	1	1	0.135239	-26.328	23.5622	28.061
 112	1	1	-0.124676	-25.3429	22.5749	28.186
 113	1	1	0.190416	-26.4692	21.6411	30.1524
 114	1	1	-0.226961	-25.4018	21.6222	29.2185
 115	1	1	-0.017982	-29.8343	20.5595	31.6768
 116	1	1	-0.195812	-30.2591	19.2291	31.6632
 117	1	1	-0.244042	-29.4823	21.1885	30.4832
 118	1	1	0.131216	-30.2854	18.5349	30.4383
 119	1	1	-0.480889	-29.5368	20.5376	29.253
 120	1	1	0.420559	-29.9062	19.1834	29.2249
 121	1	2	0.094496	-29.5729	21.4786	32.8409
 122	1	3	0.181616	-30.5047	18.7118	32.5987
 123	1	2	0.106535	-28.8479	22.5621	30.6488
 124	1	4	-0.32219	-30.5625	17.1838	30.4362
 125	1	3	0.25841	-29.2002	21.0131	28.338
 126	1	1	0.380364	-30.4331	16.4368	29.3027
 127	1	1	-0.639904	-30.5854	15.0373	29.3923
 128	1	1	0.40258	-30.0993	17.076	28.0913
 129	1	1	0.235245	-30.3693	14.23	28.2426
 130	1	1	-0.64044	-29.9476	16.2854	26.9238
 131	1	1	0.243455	-30.1037	14.8871	27.0112
 132	1	5	0.683739	-30.796	14.4437	30.6449
 133	1	4	-0.371861	-29.9365	18.441	28.0475
 134	1	5	0.675894	-29.6776	16.9246	25.6842
 135	1	6	-0.526708	-29.4363	17.5269	24.734
 136	1	6	-0.532274	-31.0044	13.8567	31.6332
 137	1	2	0.077971	-28.8227	22.7104	32.1946
 138	1	1	-0.133879	-27.4691	22.6117	30.0073
 139	1	2	0.291414	-29.6642	23.6709	29.9006
 140	1	7	0.054943	-29.2716	23.6588	32.5105
 141	1	7	-0.083103	-27.7927	22.6923	32.5869
 142	1	2	-0.229696	-28.7127	20.8518	33.958
 143	1	2	-0.134961	-30.8826	21.9321	33.4678
 144	1	7	0.062626	-28.4921	21.5756	34.753
 145	1	7	0.065775	-27.7647	20.4503	33.5395
 146	1	7	0.079929	-29.2526	20.0316	34.4691
 147	1	7	0.050506	-30.6936	22.655	34.278
 148	1	7	0.024431	-31.4613	21.0863	33.8762
 149	1	7	0.052051	-31.4961	22.45	32.718
 150	1	2	-0.079385	-28.6477	24.4637	28.9841
 151	1	7	-0.096983	-30.1985	24.3506	30.5718
 152	1	7	0.069866	-30.4293	23.1925	29.2605
 153	1	2	-0.079851	-28.3371	25.8662	29.5738
 154	1	2	-0.424117	-29.195	24.5755	27.5476
 155	1	1	-0.32128	-27.4118	23.5624	28.9767
 156	1	7	0.133743	-28.5464	25.1825	26.9142
 157	1	7	0.116477	-30.1907	25.0724	27.5548
 158	1	7	0.082726	-29.2984	23.6047	27.061
 159	1	7	0.078262	-29.2186	26.5179	29.4885
 160	1	7	-0.001602	-27.4635	26.3603	29.1175
 161	1	7	0.028854	-28.1218	25.8092	30.6372
 162	1	3	0.315808	-26.2705	24.2684	27.2409
 163	1	3	0.28245	-26.5702	20.8315	30.8837
 164	1	8	-0.039852	-24.4509	20.6218	29.2644
 165	1	8	-0.059152	-24.3599	22.4356	27.2359
 166	1	1	0.135239	-21.1398	15.0046	18.5033
 167	1	1	-0.124676	-22.3459	14.379	18.8533
 168	1	1	0.190416	-21.985	14.8301	21.2263
 169	1	1	-0.226961	-22.7898	14.3103	20.1958
 170	1	1	-0.017982	-20.0787	15.5554	24.2336
 171	1	1	-0.195812	-20.5433	15.9776	25.4942
 172	1	1	-0.244042	-20.1863	16.3847	23.1257
 173	1	1	0.131216	-21.1008	17.2601	25.5975
 174	1	1	-0.480889	-20.7519	17.6706	23.226
 175	1	1	0.420559	-21.2256	18.1115	24.4673
 176	1	2	0.094496	-19.3824	14.2408	23.9259
 177	1	3	0.181616	-20.4648	15.3107	26.3551
 178	1	2	0.106535	-19.6254	15.7265	21.8638
 179	1	4	-0.32219	-21.5706	17.6663	26.8115
 180	1	3	0.25841	-20.8445	18.3274	22.3557
 181	1	1	0.380364	-22.2775	18.8459	26.9069
 182	1	1	-0.639904	-22.9051	19.143	28.1119
 183	1	1	0.40258	-22.3225	19.7202	25.7923
 184	1	1	0.235245	-23.6653	20.3536	28.186
 185	1	1	-0.64044	-23.009	20.9511	25.8884
 186	1	1	0.243455	-23.6577	21.2744	27.0923
 187	1	5	0.683739	-22.8699	18.241	29.2108
 188	1	4	-0.371861	-21.7321	19.3634	24.621
 189	1	5	0.675894	-23.0022	21.8743	24.7781
 190	1	6	-0.526708	-23.0442	22.6902	23.9634
 191	1	6	-0.532274	-22.8694	17.5598	30.1618
 192	1	2	0.077971	-18.8756	14.4851	22.4457
 193	1	1	-0.133879	-20.7293	15.3655	20.8951
 194	1	2	0.291414	-18.7342	16.6292	20.9585
 195	1	7	0.054943	-17.797	14.6601	22.4555
 196	1	7	-0.083103	-19.0392	13.5919	21.8067
 197	1	2	-0.229696	-20.3386	13.0419	23.9903
 198	1	2	-0.134961	-18.2485	13.9714	24.9297
 199	1	7	0.062626	-20.6899	12.9213	25.0081
 200	1	7	0.065775	-19.7964	12.1394	23.7238
 201	1	7	0.079929	-21.2063	13.1708	23.3286
 202	1	7	0.050506	-17.5671	14.8362	24.9654
 203	1	7	0.024431	-17.69	13.076	24.6406
 204	1	7	0.052051	-18.612	13.7621	25.9535
 205	1	2	-0.079385	-18.9814	16.1536	19.463
 206	1	7	-0.096983	-17.6618	16.5673	21.2325
 207	1	7	0.069866	-19.0355	17.681	21.0765
 208	1	2	-0.079851	-17.9652	15.055	19.045
 209	1	2	-0.424117	-19.0412	17.375	18.5068
 210	1	1	-0.32128	-20.3412	15.5133	19.553
 211	1	7	0.133743	-19.2244	17.1013	17.46
 212	1	7	0.116477	-18.0881	17.9174	18.577
 213	1	7	0.082726	-19.8297	18.0719	18.7956
 214	1	7	0.078262	-16.9526	15.3858	19.2367
 215	1	7	-0.001602	-18.0645	14.7925	17.9761
 216	1	7	0.028854	-18.1372	14.1283	19.6332
 217	1	3	0.315808	-20.7679	15.0404	17.47
 218	1	3	0.28245	-22.2747	14.7182	22.2519
 219	1	8	-0.039852	-23.9182	13.5994	20.488
 220	1	8	-0.059152	-23.0543	13.7051	17.9054
 221	1	1	0.135239	-23.9709	3.12991	13.8191
 222	1	1	-0.124676	-25.1908	3.21561	13.1023
 223	1	1	0.190416	-26.3305	4.1165	15.0908
 224	1	1	-0.226961	-26.3615	3.6875	13.7544
 225	1	1	-0.017982	-26.0127	5.77	18.8521
 226	1	1	-0.195812	-26.3041	6.96941	19.5246
 227	1	1	-0.244042	-25.4068	5.80178	17.5874
 228	1	1	0.131216	-25.9951	8.18359	18.8872
 229	1	1	-0.480889	-25.1533	7.01561	16.9189
 230	1	1	0.420559	-25.466	8.20601	17.5776
 231	1	2	0.094496	-26.1305	4.32962	19.3959
 232	1	3	0.181616	-26.6766	6.96804	20.5453
 233	1	2	0.106535	-24.8986	4.44354	17.2047
 234	1	4	-0.32219	-26.1151	9.37636	19.6054
 235	1	3	0.25841	-24.6108	7.04927	15.9962
 236	1	1	0.380364	-25.4033	10.4902	19.1743
 237	1	1	-0.639904	-25.1097	11.5597	20.0955
 238	1	1	0.40258	-24.8858	10.5205	17.8557
 239	1	1	0.235245	-24.3349	12.6261	19.6352
 240	1	1	-0.64044	-24.0898	11.5906	17.4111
 241	1	1	0.243455	-23.8674	12.6767	18.291
 242	1	5	0.683739	-25.6407	11.5705	21.4071
 243	1	4	-0.371861	-25.0886	9.40233	17.0276
 244	1	5	0.675894	-23.5176	11.5452	16.0931
 245	1	6	-0.526708	-23.0013	11.5895	15.07
 246	1	6	-0.532274	-25.9745	11.7218	22.5257
 247	1	2	0.077971	-25.7125	3.49428	18.1586
 248	1	1	-0.133879	-25.1086	4.07699	15.7567
 249	1	2	0.291414	-23.3542	4.31622	17.3763
 250	1	7	0.054943	-25.154	2.58042	18.4124
 251	1	7	-0.083103	-26.5919	3.14479	17.6101
 252	1	2	-0.229696	-27.5746	3.92577	19.7953
 253	1	2	-0.134961	-25.1768	4.10325	20.5888
 254	1	7	0.062626	-28.2829	4.13167	18.9835
 255	1	7	0.065775	-27.9219	4.50526	20.6444
 256	1	7	0.079929	-27.6132	2.84143	20.0254
 257	1	7	0.050506	-24.1351	4.35611	20.3118
 258	1	7	0.024431	-25.2192	3.05826	20.9207
 259	1	7	0.052051	-25.463	4.75199	21.4288
 260	1	2	-0.079385	-22.8016	3.51588	16.1483
 261	1	7	-0.096983	-23.0968	3.82395	18.3262
 262	1	7	0.069866	-22.8866	5.31911	17.3733
 263	1	2	-0.079851	-22.4209	2.06773	16.5196
 264	1	2	-0.424117	-21.566	4.22381	15.5386
 265	1	1	-0.32128	-23.9586	3.55051	15.1613
 266	1	7	0.133743	-20.7959	4.42818	16.288
 267	1	7	0.116477	-21.829	5.21164	15.1109
 268	1	7	0.082726	-21.1195	3.60057	14.7535
 269	1	7	0.078262	-21.642	2.055	17.297
 270	1	7	-0.001602	-22.058	1.5172	15.6493
 271	1	7	0.028854	-23.2832	1.51656	16.9167
 272	1	3	0.315808	-23.0606	2.79043	13.3256
 273	1	3	0.28245	-27.2138	4.49509	15.6006
 274	1	8	-0.039852	-27.5581	3.70075	13.09
 275	1	8	-0.059152	-25.2547	2.87295	11.7769
 276	1	1	0.135239	-28.6786	-0.115831	1.1513
 277	1	1	-0.124676	-28.6354	1.27048	0.847325
 278	1	1	0.190416	-30.0146	1.80091	2.7693
 279	1	1	-0.226961	-29.3416	2.20583	1.62827
 280	1	1	-0.017982	-31.6343	0.762963	6.30042
 281	1	1	-0.195812	-31.5797	1.35768	7.56669
 282	1	1	-0.244042	-30.4817	0.501992	5.57993
 283	1	1	0.131216	-30.3215	1.73317	8.0766
 284	1	1	-0.480889	-29.2222	0.810328	6.12078
 285	1	1	0.420559	-29.1471	1.40933	7.37592
 286	1	2	0.094496	-32.8784	0.296714	5.56859
 287	1	3	0.181616	-32.5027	1.52346	8.12233
 288	1	2	0.106535	-30.775	-0.178994	4.26056
 289	1	4	-0.32219	-30.2399	2.33326	9.32111
 290	1	3	0.25841	-28.3069	0.544201	5.59658
 291	1	1	0.380364	-28.9851	2.63564	9.85729
 292	1	1	-0.639904	-28.9132	3.16366	11.1574
 293	1	1	0.40258	-27.8198	2.2373	9.157
 294	1	1	0.235245	-27.658	3.22532	11.7944
 295	1	1	-0.64044	-26.5553	2.32148	9.7968
 296	1	1	0.243455	-26.4758	2.78932	11.1247
 297	1	5	0.683739	-30.0943	3.54251	11.859
 298	1	4	-0.371861	-27.9171	1.70495	7.91171
 299	1	5	0.675894	-25.3916	1.90109	9.09719
 300	1	6	-0.526708	-24.4141	1.57967	8.57407
 301	1	6	-0.532274	-31.0823	3.84212	12.3541
 302	1	2	0.077971	-32.3243	-0.0198168	4.11716
 303	1	1	-0.133879	-30.0645	0.441289	3.06949
 304	1	2	0.291414	-30.2908	-1.65747	4.22832
 305	1	7	0.054943	-32.766	-0.940965	3.6832
 306	1	7	-0.083103	-32.575	0.796362	3.42364
 307	1	2	-0.229696	-33.9674	1.3737	5.56468
 308	1	2	-0.134961	-33.3962	-0.990512	6.22266
 309	1	7	0.062626	-34.8276	1.0718	4.95208
 310	1	7	0.065775	-33.5945	2.31996	5.15041
 311	1	7	0.079929	-34.3708	1.53043	6.56208
 312	1	7	0.050506	-32.6096	-1.7654	6.23857
 313	1	7	0.024431	-34.2722	-1.3622	5.6792
 314	1	7	0.052051	-33.7142	-0.860421	7.27043
 315	1	2	-0.079385	-29.5536	-1.90559	2.85001
 316	1	7	-0.096983	-31.1154	-2.38079	4.4002
 317	1	7	0.069866	-29.5682	-1.82642	5.03539
 318	1	2	-0.079851	-30.4655	-2.69079	1.8916
 319	1	2	-0.424117	-28.214	-2.65224	3.00442
 320	1	1	-0.32128	-29.3873	-0.502811	2.30788
 321	1	7	0.133743	-28.3382	-3.64375	3.47824
 322	1	7	0.116477	-27.4886	-2.06074	3.60624
 323	1	7	0.082726	-27.7459	-2.84904	2.02963
 324	1	7	0.078262	-30.0306	-2.72557	0.886302
 325	1	7	-0.001602	-31.4558	-2.24023	1.81751
 326	1	7	0.028854	-30.5889	-3.72525	2.25052
 327	1	3	0.315808	-28.155	-0.848775	0.534591
 328	1	3	0.28245	-30.5238	2.53966	3.40508
 329	1	8	-0.039852	-29.3286	3.52567	1.25636
 330	1	8	-0.059152	-27.9006	1.6781	-0.222865
 331	1	1	0.135239	-24.4863	8.32744	-9.68743
 332	1	1	-0.124676	-23.5557	9.04992	-8.92199
 333	1	1	0.190416	-25.0758	9.13319	-7.0261
 334	1	1	-0.226961	-23.8368	9.4372	-7.59169
 335	1	1	-0.017982	-28.4566	8.5409	-5.28603
 336	1	1	-0.195812	-28.7104	8.32029	-3.92673
 337	1	1	-0.244042	-27.6091	7.69523	-6.0094
 338	1	1	0.131216	-28.167	7.17451	-3.33954
 339	1	1	-0.480889	-27.0367	6.5545	-5.41559
 340	1	1	0.420559	-27.3628	6.26717	-4.07817
 341	1	2	0.094496	-29.1369	9.56015	-6.17434
 342	1	3	0.181616	-29.3961	8.94404	-3.35351
 343	1	2	0.106535	-27.4699	8.17479	-7.45301
 344	1	4	-0.32219	-28.5008	6.8915	-2.03804
 345	1	3	0.25841	-26.4177	5.84423	-5.96509
 346	1	1	0.380364	-28.3149	5.62377	-1.5695
 347	1	1	-0.639904	-28.9485	5.2317	-0.393393
 348	1	1	0.40258	-27.54	4.68488	-2.32911
 349	1	1	0.235245	-28.7777	3.91123	0.0550025
 350	1	1	-0.64044	-27.3802	3.36033	-1.88896
 351	1	1	0.243455	-27.9932	2.98237	-0.675549
 352	1	5	0.683739	-29.7028	6.19654	0.419581
 353	1	4	-0.371861	-26.9627	5.08554	-3.51124
 354	1	5	0.675894	-26.5653	2.43816	-2.6304
 355	1	6	-0.526708	-25.9355	1.63326	-3.15408
 356	1	6	-0.532274	-30.2809	6.86825	1.10695
 357	1	2	0.077971	-28.3078	9.48239	-7.49147
 358	1	1	-0.133879	-26.0331	8.46606	-7.82628
 359	1	2	0.291414	-27.8959	7.12635	-8.53737
 360	1	7	0.054943	-28.9394	9.55698	-8.38164
 361	1	7	-0.083103	-27.6233	10.3366	-7.51579
 362	1	2	-0.229696	-29.1494	10.9572	-5.53263
 363	1	2	-0.134961	-30.5718	9.08554	-6.46444
 364	1	7	0.062626	-29.7421	10.9417	-4.6129
 365	1	7	0.065775	-29.5907	11.6822	-6.23109
 366	1	7	0.079929	-28.1368	11.3204	-5.30221
 367	1	7	0.050506	-31.0219	9.74887	-7.21495
 368	1	7	0.024431	-31.1866	9.10773	-5.56186
 369	1	7	0.052051	-30.5673	8.07369	-6.88191
 370	1	2	-0.079385	-26.9355	7.35193	-9.77173
 371	1	7	-0.096983	-28.9585	7.1598	-8.79921
 372	1	7	0.069866	-27.7046	6.12723	-8.11206
 373	1	2	-0.079851	-27.5795	8.27708	-10.8457
 374	1	2	-0.424117	-26.5018	6.036	-10.4775
 375	1	1	-0.32128	-25.7399	8.03847	-9.12215
 376	1	7	0.133743	-25.8289	6.24038	-11.325
 377	1	7	0.116477	-27.3475	5.44986	-10.875
 378	1	7	0.082726	-25.9579	5.39381	-9.78515
 379	1	7	0.078262	-28.4975	7.85783	-11.2848
 380	1	7	-0.001602	-26.8366	8.50588	-11.6351
 381	1	7	0.028854	-27.8622	9.20353	-10.3601
 382	1	3	0.315808	-24.2284	8.04675	-10.7019
 383	1	3	0.28245	-25.3683	9.44185	-6.02333
 384	1	8	-0.039852	-22.9027	10.167	-6.89778
 385	1	8	-0.059152	-22.3568	9.36876	-9.49144
 386	1	1	0.135239	-11.4428	13.4215	-11.7156
 387	1	1	-0.124676	-10.7768	12.5323	-10.8508
 388	1	1	0.190416	-12.4672	12.8815	-9.11474
 389	1	1	-0.226961	-11.3021	12.2465	-9.55774
 390	1	1	-0.017982	-15.7655	14.5314	-7.74706
 391	1	1	-0.195812	-16.8745	14.0381	-7.01677
 392	1	1	-0.244042	-15.4079	13.9919	-8.98283
 393	1	1	0.131216	-17.5988	12.9656	-7.55878
 394	1	1	-0.480889	-16.1416	12.9176	-9.52855
 395	1	1	0.420559	-17.2346	12.4163	-8.81205
 396	1	2	0.094496	-14.8818	15.7022	-7.35943
 397	1	3	0.181616	-17.2147	14.4703	-6.08344
 398	1	2	0.106535	-14.2234	14.719	-9.61194
 399	1	4	-0.32219	-18.6754	12.4927	-6.83854
 400	1	3	0.25841	-15.903	12.4577	-10.4963
 401	1	1	0.380364	-19.5597	11.6119	-7.42806
 402	1	1	-0.639904	-20.7672	11.3069	-6.80585
 403	1	1	0.40258	-19.2227	11.1028	-8.71592
 404	1	1	0.235245	-21.6941	10.4924	-7.4867
 405	1	1	-0.64044	-20.1584	10.3215	-9.39095
 406	1	1	0.243455	-21.394	10.0062	-8.7951
 407	1	5	0.683739	-21.0708	11.8538	-5.50348
 408	1	4	-0.371861	-18.0321	11.4451	-9.37454
 409	1	5	0.675894	-19.9491	9.9037	-10.7413
 410	1	6	-0.526708	-19.8544	9.5484	-11.8365
 411	1	6	-0.532274	-21.4104	12.2527	-4.4742
 412	1	2	0.077971	-13.7872	15.7003	-8.48536
 413	1	1	-0.133879	-13.0933	13.7942	-9.9883
 414	1	2	0.291414	-14.5767	15.4092	-10.9349
 415	1	7	0.054943	-13.6419	16.7061	-8.88842
 416	1	7	-0.083103	-12.8289	15.3906	-8.06042
 417	1	2	-0.229696	-14.2688	15.5251	-5.95007
 418	1	2	-0.134961	-15.6654	17.0576	-7.41159
 419	1	7	0.062626	-13.759	14.5533	-5.86654
 420	1	7	0.065775	-15.0404	15.5745	-5.17714
 421	1	7	0.079929	-13.5392	16.3035	-5.74385
 422	1	7	0.050506	-16.1708	17.178	-8.36661
 423	1	7	0.024431	-14.966	17.9087	-7.2875
 424	1	7	0.052051	-16.4382	17.1207	-6.60745
 425	1	2	-0.079385	-13.4397	15.104	-11.9703
 426	1	7	-0.096983	-14.7168	16.5007	-10.8042
 427	1	7	0.069866	-15.5375	15.0264	-11.3361
 428	1	2	-0.079851	-12.6447	16.4132	-12.1984
 429	1	2	-0.424117	-13.9836	14.5877	-13.3314
 430	1	1	-0.32128	-12.6062	14.0449	-11.2655
 431	1	7	0.133743	-14.7282	15.2575	-13.7915
 432	1	7	0.116477	-14.4514	13.6013	-13.1844
 433	1	7	0.082726	-13.1448	14.4629	-14.0708
 434	1	7	0.078262	-11.8115	16.2795	-12.891
 435	1	7	-0.001602	-12.1823	16.7521	-11.2477
 436	1	7	0.028854	-13.2948	17.2069	-12.6149
 437	1	3	0.315808	-11.0726	13.611	-12.7072
 438	1	3	0.28245	-12.8748	12.7563	-8.11105
 439	1	8	-0.039852	-10.5871	11.464	-8.67551
 440	1	8	-0.059152	-9.63094	11.9235	-11.2323
 441	1	1	0.135239	1.85523	11.033	-10.2399
 442	1	1	-0.124676	1.67866	9.64424	-10.3877
 443	1	1	0.190416	-0.115889	9.60369	-8.77743
 444	1	1	-0.226961	0.722813	8.92062	-9.68624
 445	1	1	-0.017982	-2.58918	11.1846	-6.3605
 446	1	1	-0.195812	-3.93989	10.817	-6.17808
 447	1	1	-0.244042	-2.14067	11.5484	-7.62143
 448	1	1	0.131216	-4.83737	10.8686	-7.27514
 449	1	1	-0.480889	-3.00228	11.5131	-8.73594
 450	1	1	0.420559	-4.34422	11.2008	-8.54723
 451	1	2	0.094496	-1.52013	11.29	-5.29085
 452	1	3	0.181616	-4.30578	10.5728	-5.19701
 453	1	2	0.106535	-0.676065	11.8729	-7.62483
 454	1	4	-0.32219	-6.17436	10.6296	-7.07021
 455	1	3	0.25841	-2.66699	11.7562	-9.74978
 456	1	1	0.380364	-7.0142	10.7902	-8.12768
 457	1	1	-0.639904	-8.39223	10.843	-7.90029
 458	1	1	0.40258	-6.51539	11.1136	-9.41473
 459	1	1	0.235245	-9.26773	11.1857	-8.95206
 460	1	1	-0.64044	-7.36663	11.4142	-10.4715
 461	1	1	0.243455	-8.78573	11.4707	-10.2531
 462	1	5	0.683739	-8.9113	10.6176	-6.59573
 463	1	4	-0.371861	-5.1589	11.2286	-9.63996
 464	1	5	0.675894	-6.81474	11.7749	-11.7615
 465	1	6	-0.526708	-6.2795	12.0741	-12.7531
 466	1	6	-0.532274	-9.20679	10.4277	-5.47828
 467	1	2	0.077971	-0.232389	11.6588	-6.12621
 468	1	1	-0.133879	0.086648	10.9908	-8.58772
 469	1	2	0.291414	-0.302456	13.2797	-8.15578
 470	1	7	0.054943	0.250231	12.5696	-5.73083
 471	1	7	-0.083103	0.527832	10.8609	-6.05049
 472	1	2	-0.229696	-1.37421	9.92949	-4.56192
 473	1	2	-0.134961	-1.81906	12.3755	-4.25892
 474	1	7	0.062626	-1.15603	9.11838	-5.2748
 475	1	7	0.065775	-2.23354	9.69988	-3.93392
 476	1	7	0.079929	-0.495024	10.0074	-3.91995
 477	1	7	0.050506	-1.96175	13.3653	-4.69857
 478	1	7	0.024431	-1.02803	12.4399	-3.49999
 479	1	7	0.052051	-2.7427	12.1351	-3.71722
 480	1	2	-0.079385	1.05387	13.1412	-8.92812
 481	1	7	-0.096983	-0.262658	14.0463	-7.35485
 482	1	7	0.069866	-1.11301	13.5481	-8.85172
 483	1	2	-0.079851	2.27302	13.4631	-8.01059
 484	1	2	-0.424117	1.10366	14.0664	-10.1728
 485	1	1	-0.32128	1.04761	11.6746	-9.2954
 486	1	7	0.133743	2.04679	14.0043	-10.7142
 487	1	7	0.116477	1.02857	15.1133	-9.85443
 488	1	7	0.082726	0.280332	13.8968	-10.8831
 489	1	7	0.078262	3.21681	13.356	-8.56884
 490	1	7	-0.001602	2.28605	12.7775	-7.1507
 491	1	7	0.028854	2.1928	14.4867	-7.617
 492	1	3	0.315808	2.62192	11.5699	-10.7969
 493	1	3	0.28245	-0.916143	9.08484	-8.2566
 494	1	8	-0.039852	0.630845	7.55141	-9.82339
 495	1	8	-0.059152	2.53267	8.97795	-11.2257
 496	1	1	0.135239	11.4793	2.53145	-11.9551
 497	1	1	-0.124676	11.587	3.51917	-10.9456
 498	1	1	0.190416	9.35396	2.9402	-10.1251
 499	1	1	-0.226961	10.4867	3.77175	-10.0741
 500	1	1	-0.017982	5.84375	1.11086	-10.6455
 501	1	1	-0.195812	4.55046	1.63576	-10.4534
 502	1	1	-0.244042	6.80975	1.83826	-11.3282
 503	1	1	0.131216	4.26532	2.91295	-10.951
 504	1	1	-0.480889	6.54798	3.12991	-11.8072
 505	1	1	0.420559	5.26481	3.65908	-11.6296
 506	1	2	0.094496	6.35995	-0.242059	-10.1902
 507	1	3	0.181616	3.76821	1.09058	-9.95736
 508	1	2	0.106535	8.0889	1.06733	-11.4195
 509	1	4	-0.32219	3.01566	3.44741	-10.7659
 510	1	3	0.25841	7.28304	3.69545	-12.3702
 511	1	1	0.380364	2.83734	4.80739	-10.921
 512	1	1	-0.639904	1.70469	5.46403	-10.3832
 513	1	1	0.40258	3.8494	5.55462	-11.5862
 514	1	1	0.235245	1.61647	6.8739	-10.4948
 515	1	1	-0.64044	3.74515	6.95083	-11.6967
 516	1	1	0.243455	2.63112	7.60231	-11.1732
 517	1	5	0.683739	0.653525	4.70349	-9.79879
 518	1	4	-0.371861	4.97994	4.91367	-12.0681
 519	1	5	0.675894	4.79863	7.69524	-12.3318
 520	1	6	-0.526708	5.59355	8.384	-12.8061
 521	1	6	-0.532274	-0.152777	4.00443	-9.35147
 522	1	2	0.077971	7.89748	-0.121689	-10.418
 523	1	1	-0.133879	9.2661	1.97134	-11.1333
 524	1	2	0.291414	8.4182	0.54685	-12.8543
 525	1	7	0.054943	8.40858	0.182064	-9.49431
 526	1	7	-0.083103	8.34523	-1.05898	-10.7773
 527	1	2	-0.229696	5.73204	-1.3347	-11.0824
 528	1	2	-0.134961	5.99637	-0.486886	-8.70941
 529	1	7	0.062626	5.88997	-1.08743	-12.1329
 530	1	7	0.065775	4.65748	-1.42361	-10.886
 531	1	7	0.079929	6.17427	-2.33137	-10.9204
 532	1	7	0.050506	6.44973	-1.41693	-8.34091
 533	1	7	0.024431	4.89683	-0.535223	-8.60377
 534	1	7	0.052051	6.35483	0.351747	-8.09141
 535	1	2	-0.079385	9.95316	0.732083	-13.0837
 536	1	7	-0.096983	7.85644	1.17183	-13.5662
 537	1	7	0.069866	8.08502	-0.507025	-13.0237
 538	1	2	-0.079851	10.2738	1.23792	-14.5207
 539	1	2	-0.424117	10.7539	-0.557042	-12.8081
 540	1	1	-0.32128	10.2954	1.7558	-12.0425
 541	1	7	0.133743	11.8319	-0.375659	-12.9618
 542	1	7	0.116477	10.4496	-1.36274	-13.4822
 543	1	7	0.082726	10.6227	-0.896622	-11.7689
 544	1	7	0.078262	11.3414	1.4363	-14.6529
 545	1	7	-0.001602	9.7142	2.15631	-14.7746
 546	1	7	0.028854	10.0436	0.440299	-15.2583
 547	1	3	0.315808	12.2773	2.41025	-12.6807
 548	1	3	0.28245	8.51375	3.1087	-9.46735
 549	1	8	-0.039852	10.4962	4.82174	-9.20398
 550	1	8	-0.059152	12.7062	4.31026	-11.014
 551	1	1	0.135239	23.0401	10.4862	-10.3284
 552	1	1	-0.124676	23.6789	9.23409	-10.2086
 553	1	1	0.190416	21.8083	8.42625	-8.83112
 554	1	1	-0.226961	23.0261	8.20161	-9.49805
 555	1	1	-0.017982	18.7376	8.75008	-6.68509
 556	1	1	-0.195812	17.7607	7.78988	-6.34381
 557	1	1	-0.244042	18.9188	9.16489	-8.01951
 558	1	1	0.131216	16.943	7.26679	-7.36563
 559	1	1	-0.480889	18.1032	8.64524	-9.03358
 560	1	1	0.420559	17.132	7.67664	-8.71925
 561	1	2	0.094496	19.6911	9.41602	-5.71104
 562	1	3	0.181616	17.617	7.4643	-5.30995
 563	1	2	0.106535	20.0372	10.2158	-8.09119
 564	1	4	-0.32219	15.9981	6.32254	-7.0336
 565	1	3	0.25841	18.1903	8.89922	-10.0698
 566	1	1	0.380364	15.1971	5.79426	-8.0388
 567	1	1	-0.639904	14.2525	4.80602	-7.698
 568	1	1	0.40258	15.3774	6.20821	-9.39555
 569	1	1	0.235245	13.4179	4.29514	-8.70476
 570	1	1	-0.64044	14.5522	5.67479	-10.4038
 571	1	1	0.243455	13.5382	4.77192	-10.0427
 572	1	5	0.683739	14.1609	4.37218	-6.35401
 573	1	4	-0.371861	16.3522	7.14572	-9.71269
 574	1	5	0.675894	14.706	6.0856	-11.75
 575	1	6	-0.526708	14.886	6.47939	-12.8298
 576	1	6	-0.532274	14.0016	3.92948	-5.30199
 577	1	2	0.077971	20.4347	10.4616	-6.60167
 578	1	1	-0.133879	21.2604	9.72859	-8.85967
 579	1	2	0.291414	19.7312	11.5535	-8.83703
 580	1	7	0.054943	20.1724	11.4727	-6.2861
 581	1	7	-0.083103	21.5201	10.4068	-6.41173
 582	1	2	-0.229696	20.6919	8.38288	-5.13454
 583	1	2	-0.134961	18.8981	10.0786	-4.54201
 584	1	7	0.062626	21.1956	7.78768	-5.90873
 585	1	7	0.065775	20.1879	7.71144	-4.43535
 586	1	7	0.079929	21.4771	8.91931	-4.57195
 587	1	7	0.050506	19.5388	10.7602	-3.94419
 588	1	7	0.024431	18.5138	9.30208	-3.87187
 589	1	7	0.052051	18.08	10.673	-4.94982
 590	1	2	-0.079385	21.0679	12.0237	-9.50385
 591	1	7	-0.096983	19.2241	12.3107	-8.20095
 592	1	7	0.069866	19.0335	11.3086	-9.66453
 593	1	2	-0.079851	21.8342	13.0193	-8.59917
 594	1	2	-0.424117	20.8643	12.682	-10.9111
 595	1	1	-0.32128	21.8313	10.7279	-9.63844
 596	1	7	0.133743	20.4889	11.9342	-11.6251
 597	1	7	0.116477	21.7904	13.1354	-11.3231
 598	1	7	0.082726	20.0785	13.4444	-10.8239
 599	1	7	0.078262	22.0885	12.5261	-7.63743
 600	1	7	-0.001602	21.2388	13.9411	-8.37767
 601	1	7	0.028854	22.7682	13.3427	-9.09135
 602	1	3	0.315808	23.4923	11.2626	-10.9316
 603	1	3	0.28245	21.3484	7.6329	-8.25542
 604	1	8	-0.039852	23.6456	6.99405	-9.39192
 605	1	8	-0.059152	24.9026	9.08236	-10.8494
 606	1	1	0.135239	33.688	1.9229	-12.8981
 607	1	1	-0.124676	32.7721	1.02159	-12.312
 608	1	1	0.190416	32.3994	2.54223	-10.4331
 609	1	1	-0.226961	32.1503	1.30768	-11.0626
 610	1	1	-0.017982	32.7969	5.95882	-8.62519
 611	1	1	-0.195812	31.7966	6.73045	-7.98856
 612	1	1	-0.244042	32.5967	5.56987	-9.94784
 613	1	1	0.131216	30.6626	7.16405	-8.72844
 614	1	1	-0.480889	31.4563	5.95919	-10.7015
 615	1	1	0.420559	30.5304	6.82721	-10.1015
 616	1	2	0.094496	34.0979	5.44582	-8.05439
 617	1	3	0.181616	31.8835	6.9678	-6.93727
 618	1	2	0.106535	33.7534	4.76055	-10.4692
 619	1	4	-0.32219	29.6523	7.87335	-8.12292
 620	1	3	0.25841	31.3098	5.69056	-11.7371
 621	1	1	0.380364	28.4891	8.12783	-8.80363
 622	1	1	-0.639904	27.4003	8.71991	-8.09597
 623	1	1	0.40258	28.3688	7.8223	-10.1691
 624	1	1	0.235245	26.1919	9.04396	-8.79039
 625	1	1	-0.64044	27.199	8.17351	-10.8851
 626	1	1	0.243455	26.0998	8.7729	-10.1765
 627	1	5	0.683739	27.5089	9.03694	-6.74559
 628	1	4	-0.371861	29.421	7.24165	-10.828
 629	1	5	0.675894	27.105	7.86706	-12.2521
 630	1	6	-0.526708	26.9533	7.66161	-13.3938
 631	1	6	-0.532274	27.5104	9.32671	-5.60632
 632	1	2	0.077971	34.6898	4.60524	-9.23363
 633	1	1	-0.133879	33.3135	3.42719	-11.0123
 634	1	2	0.291414	34.4986	5.40716	-11.6805
 635	1	7	0.054943	35.7003	4.921	-9.45765
 636	1	7	-0.083103	34.7379	3.54446	-8.92495
 637	1	2	-0.229696	33.8905	4.5907	-6.77429
 638	1	2	-0.134961	35.0171	6.61381	-7.74331
 639	1	7	0.062626	34.8597	4.30836	-6.34469
 640	1	7	0.065775	33.291	3.69184	-6.96071
 641	1	7	0.079929	33.3936	5.16325	-5.97577
 642	1	7	0.050506	34.5379	7.25809	-6.98703
 643	1	7	0.024431	35.1926	7.21087	-8.65549
 644	1	7	0.052051	36.0005	6.24397	-7.35269
 645	1	2	-0.079385	34.8988	4.2154	-12.6304
 646	1	7	-0.096983	35.3427	6.03894	-11.3844
 647	1	7	0.069866	33.8025	6.02589	-12.2472
 648	1	2	-0.079851	36.3775	3.73756	-12.3752
 649	1	2	-0.424117	34.7516	4.59214	-14.1153
 650	1	1	-0.32128	33.9299	3.12902	-12.2215