pySIMM System Object

2707 atoms
3044 bonds
5586 angles
9200 dihedrals
392 impropers

9 atom types
10 bond types
15 angle types
8 dihedral types
2 improper types

-209.376868 209.376868 xlo xhi
-209.376868 209.376868 ylo yhi
-209.376868 209.376868 zlo zhi

Masses

   1	12.01	# ca
   2	12.01	# c3
   3	1.008	# ha
   4	16.0	# os
   5	12.01	# cg
   6	14.01	# n1
   7	1.008	# hc
   8	16.0	# oh
   9	1.008	# ho

Pair Coeffs

   1	0.086	3.3996695084235347	# ca
   2	0.1094	3.3996695084235347	# c3
   3	0.015	2.59964245953351	# ha
   4	0.17	3.0000123434657784	# os
   5	0.21	3.3996695084235347	# cg
   6	0.17	3.249998523775958	# n1
   7	0.0157	2.649532787749369	# hc
   8	0.2104	3.0664733878390478	# oh
   9	0.0047	0.5379246460131368	# ho

Bond Coeffs

   1	371.4	0.973	# ho,oh
   2	461.1	1.3984	# ca,ca
   3	345.8	1.086	# ca,ha
   4	384.0	1.3637	# ca,oh
   5	300.9	1.5375	# c3,c3
   6	413.3	1.4328	# ca,cg
   7	943.1	1.1566	# cg,n1
   8	321.0	1.5156	# c3,ca
   9	330.6	1.0969	# c3,hc
  10	376.6	1.3696	# ca,os

Angle Coeffs

   1	69.58	119.2	# ca,ca,os
   2	63.56	112.24	# ca,c3,ca
   3	66.62	120.02	# ca,ca,ca
   4	58.92	179.49	# ca,cg,n1
   5	62.86	111.51	# c3,c3,c3
   6	49.0	108.58	# ca,oh,ho
   7	63.15	112.07	# c3,c3,ca
   8	46.34	109.8	# c3,c3,hc
   9	65.72	120.27	# ca,ca,cg
  10	69.52	119.9	# ca,ca,oh
  11	63.48	119.89	# ca,os,ca
  12	39.4	107.58	# hc,c3,hc
  13	63.53	120.77	# c3,ca,ca
  14	48.18	119.88	# ca,ca,ha
  15	63.5	119.89	# ca,oh,ca

Dihedral Coeffs

   1	1	0.0	2	0	# X,c3,ca,X
   2	1	0.9	2	180	# X,ca,os,X
   3	3	0.18	3	0	0.25	2	180	0.2	1	180	# c3,c3,c3,c3
   4	1	0.9	2	180	# X,ca,oh,X
   5	1	0.16	3	0	# hc,c3,c3,c3
   6	1	3.625	2	180	# X,ca,ca,X
   7	1	3.625	2	180	# X,cg,ca,ca
   8	1	0.15555555555555556	3	0	# X,c3,c3,X

Improper Coeffs

   1	1.1	-1	2	# ca,X,X,ha
   2	1.1	-1	2	# ca,ca,ca,c3

Atoms

   1	1	1	0.135239	35.1166	-76.4942	-1.0328
   2	1	1	-0.124676	34.9778	-77.4386	-2.0735
   3	1	1	0.190416	35.0867	-79.3142	-0.509967
   4	1	1	-0.226961	35.0341	-78.8132	-1.8142
   5	1	1	-0.017982	33.7965	-80.4107	3.18757
   6	1	1	-0.195812	32.6879	-81.2203	3.46164
   7	1	1	-0.244042	33.6913	-79.3132	2.37125
   8	1	1	0.131216	31.4684	-80.9076	2.87325
   9	1	1	-0.480889	32.47	-78.9844	1.77096
  10	1	1	0.420559	31.3431	-79.8004	2.00925
  11	1	2	0.094496	35.2563	-80.6462	3.60444
  12	1	3	0.181616	32.8153	-82.119	4.06619
  13	1	2	0.106535	35.0204	-78.6802	2.00871
  14	1	4	-0.32219	30.4561	-81.8204	2.98486
  15	1	3	0.25841	32.3982	-78.1477	1.05316
  16	1	1	0.380364	29.3482	-81.649	2.20229
  17	1	1	-0.639904	28.3677	-82.6555	2.19937
  18	1	1	0.40258	29.1666	-80.4687	1.41676
  19	1	1	0.235245	27.1958	-82.4705	1.43742
  20	1	1	-0.64044	27.9824	-80.3238	0.630047
  21	1	1	0.243455	27.0269	-81.3355	0.638874
  22	1	5	0.683739	28.5075	-83.876	2.97551
  23	1	4	-0.371861	30.1282	-79.5216	1.39975
  24	1	5	0.675894	27.7541	-79.117	-0.147639
  25	1	6	-0.526708	27.5008	-78.1926	-0.774643
  26	1	6	-0.532274	28.7028	-84.8116	3.59792
  27	1	2	0.077971	36.0199	-79.75	2.56393
  28	1	1	-0.133879	35.1498	-78.3812	0.525193
  29	1	2	0.291414	35.2038	-77.3261	2.70351
  30	1	7	0.054943	36.9631	-79.3284	2.96354
  31	1	7	-0.083103	36.3425	-80.3675	1.68693
  32	1	2	-0.229696	35.6219	-82.1515	3.43538
  33	1	2	-0.134961	35.4999	-80.1443	5.05065
  34	1	7	0.062626	34.9504	-82.7712	4.03371
  35	1	7	0.065775	36.6559	-82.3712	3.7285
  36	1	7	0.079929	35.4762	-82.4621	2.39459
  37	1	7	0.050506	34.758	-80.5823	5.73013
  38	1	7	0.024431	35.3832	-79.062	5.10698
  39	1	7	0.052051	36.4793	-80.4131	5.43172
  40	1	2	-0.079385	35.4454	-76.2214	1.57193
  41	1	7	-0.096983	36.0515	-77.3657	3.41862
  42	1	7	0.069866	34.3343	-77.0591	3.31025
  43	1	2	-0.079851	36.8928	-75.6573	1.63968
  44	1	2	-0.424117	34.411	-75.0691	1.62675
  45	1	1	-0.32128	35.2624	-77.0032	0.282945
  46	1	7	0.133743	33.3724	-75.392	1.38188
  47	1	7	0.116477	34.6704	-74.257	0.955367
  48	1	7	0.082726	34.3696	-74.6432	2.62432
  49	1	7	0.078262	37.6261	-76.4636	1.59095
  50	1	7	-0.001602	37.0885	-75.1011	2.56956
  51	1	7	0.028854	37.0969	-74.9919	0.787398
  52	1	3	0.315808	35.1268	-75.4268	-1.20708
  53	1	3	0.28245	35.0845	-80.3674	-0.308032
  54	1	8	-0.039852	34.8367	-79.6504	-2.86693
  55	1	8	-0.059152	34.7868	-76.9907	-3.34093
  56	1	1	0.135239	26.2636	-76.9736	-8.50737
  57	1	1	-0.124676	26.0768	-77.6943	-7.29319
  58	1	1	0.190416	27.5895	-79.4959	-8.00107
  59	1	1	-0.226961	26.749	-78.8989	-7.06523
  60	1	1	-0.017982	30.255	-80.7071	-9.69392
  61	1	1	-0.195812	31.274	-81.1696	-8.83094
  62	1	1	-0.244042	29.9957	-79.3721	-9.75702
  63	1	1	0.131216	32.0812	-80.2177	-8.16276
  64	1	1	-0.480889	30.7719	-78.3993	-9.1377
  65	1	1	0.420559	31.8174	-78.8327	-8.31339
  66	1	2	0.094496	29.2723	-81.5643	-10.5075
  67	1	3	0.181616	31.387	-82.2359	-8.68582
  68	1	2	0.106535	28.6473	-79.1289	-10.4018
  69	1	4	-0.32219	32.8857	-80.6506	-7.13874
  70	1	3	0.25841	30.512	-77.3501	-9.15833
  71	1	1	0.380364	33.5242	-79.7105	-6.29082
  72	1	1	-0.639904	34.0448	-80.1775	-5.08474
  73	1	1	0.40258	33.4448	-78.2984	-6.57645
  74	1	1	0.235245	34.4864	-79.2398	-4.11591
  75	1	1	-0.64044	33.9426	-77.3619	-5.61956
  76	1	1	0.243455	34.3837	-77.8526	-4.36032
  77	1	5	0.683739	34.0875	-81.5617	-4.84772
  78	1	4	-0.371861	32.6771	-77.9217	-7.64288
  79	1	5	0.675894	33.8573	-75.9489	-5.81991
  80	1	6	-0.526708	33.8323	-74.7991	-5.91696
  81	1	6	-0.532274	34.0473	-82.7121	-4.80286
  82	1	2	0.077971	28.3301	-80.4614	-11.1365
  83	1	1	-0.133879	27.6948	-78.8136	-9.23764
  84	1	2	0.291414	28.6012	-77.9015	-11.3187
  85	1	7	0.054943	28.6436	-80.3554	-12.1722
  86	1	7	-0.083103	27.255	-80.6998	-11.1616
  87	1	2	-0.229696	28.4855	-82.6488	-9.63994
  88	1	2	-0.134961	30.0702	-82.3449	-11.5957
  89	1	7	0.062626	27.9604	-83.3466	-10.3092
  90	1	7	0.065775	27.7701	-82.1589	-8.972
  91	1	7	0.079929	29.1577	-83.2305	-9.01056
  92	1	7	0.050506	30.7511	-83.0802	-11.146
  93	1	7	0.024431	30.7154	-81.6918	-12.1557
  94	1	7	0.052051	29.4368	-82.9036	-12.3105
  95	1	2	-0.079385	27.411	-77.0155	-10.8474
  96	1	7	-0.096983	28.4705	-78.1819	-12.3443
  97	1	7	0.069866	29.5677	-77.3657	-11.2933
  98	1	2	-0.079851	26.2086	-77.097	-11.8081
  99	1	2	-0.424117	27.8202	-75.5631	-10.7623
 100	1	1	-0.32128	27.0757	-77.61	-9.49178
 101	1	7	0.133743	28.0949	-75.2035	-11.7345
 102	1	7	0.116477	28.676	-75.4829	-10.1315
 103	1	7	0.082726	27.0308	-74.9215	-10.3523
 104	1	7	0.078262	26.4925	-76.7444	-12.7885
 105	1	7	-0.001602	25.3752	-76.5206	-11.4514
 106	1	7	0.028854	25.807	-78.1166	-11.8987
 107	1	3	0.315808	25.8001	-76.0335	-8.71017
 108	1	3	0.28245	28.1684	-80.3627	-7.75471
 109	1	8	-0.039852	26.5468	-79.5456	-5.87442
 110	1	8	-0.059152	25.3189	-77.116	-6.29272
 111	1	1	0.135239	20.8946	-73.9863	3.71468
 112	1	1	-0.124676	22.194	-73.4215	3.74878
 113	1	1	0.190416	23.2028	-75.5871	3.26958
 114	1	1	-0.226961	23.3598	-74.277	3.60031
 115	1	1	-0.017982	23.0003	-79.1905	1.77087
 116	1	1	-0.195812	23.7362	-79.8135	0.804446
 117	1	1	-0.244042	22.4421	-77.9434	1.58793
 118	1	1	0.131216	23.9893	-79.2099	-0.393336
 119	1	1	-0.480889	22.5781	-77.2782	0.330942
 120	1	1	0.420559	23.2555	-78.0104	-0.682182
 121	1	2	0.094496	22.6413	-79.7912	3.15496
 122	1	3	0.181616	24.2084	-80.7976	1.09158
 123	1	2	0.106535	21.6297	-77.5368	2.84693
 124	1	4	-0.32219	24.8079	-79.7735	-1.3664
 125	1	3	0.25841	22.1939	-76.2733	0.197095
 126	1	1	0.380364	24.7786	-79.1651	-2.56494
 127	1	1	-0.639904	25.5521	-79.7668	-3.65201
 128	1	1	0.40258	24.1206	-77.9316	-2.83601
 129	1	1	0.235245	25.7335	-79.0102	-4.85137
 130	1	1	-0.64044	24.2777	-77.2417	-4.11766
 131	1	1	0.243455	25.0872	-77.7953	-5.11263
 132	1	5	0.683739	26.429	-80.8419	-3.40195
 133	1	4	-0.371861	23.4086	-77.3518	-1.83268
 134	1	5	0.675894	23.6192	-76.0	-4.43152
 135	1	6	-0.526708	23.2429	-74.9955	-4.84619
 136	1	6	-0.532274	26.8634	-81.8536	-3.02872
 137	1	2	0.077971	22.1131	-78.5526	3.92031
 138	1	1	-0.133879	21.9052	-76.0923	3.152
 139	1	2	0.291414	20.0833	-77.5739	2.63389
 140	1	7	0.054943	21.2863	-78.7663	4.61211
 141	1	7	-0.083103	22.9214	-78.1307	4.56709
 142	1	2	-0.229696	23.9206	-80.4548	3.71351
 143	1	2	-0.134961	21.507	-80.8775	3.03558
 144	1	7	0.062626	24.298	-81.3304	3.15036
 145	1	7	0.065775	23.8208	-80.6934	4.70927
 146	1	7	0.079929	24.6893	-79.6933	3.70358
 147	1	7	0.050506	21.4612	-81.3596	4.00353
 148	1	7	0.024431	21.8003	-81.6305	2.26275
 149	1	7	0.052051	20.5401	-80.4198	2.84613
 150	1	2	-0.079385	19.5156	-76.2371	3.25129
 151	1	7	-0.096983	19.5692	-78.5458	2.85732
 152	1	7	0.069866	19.9442	-77.4625	1.5354
 153	1	2	-0.079851	18.8622	-76.4922	4.60259
 154	1	2	-0.424117	18.457	-75.6017	2.29063
 155	1	1	-0.32128	20.7615	-75.3589	3.38913
 156	1	7	0.133743	17.5542	-76.2338	2.21161
 157	1	7	0.116477	18.865	-75.4941	1.25558
 158	1	7	0.082726	18.1811	-74.5998	2.55256
 159	1	7	0.078262	19.5196	-77.0	5.29073
 160	1	7	-0.001602	18.0969	-77.303	4.40718
 161	1	7	0.028854	18.3324	-75.6458	5.09147
 162	1	3	0.315808	19.9769	-73.3508	3.79734
 163	1	3	0.28245	24.0452	-76.2019	3.10193
 164	1	8	-0.039852	24.6624	-73.7494	3.63276
 165	1	8	-0.059152	22.4615	-72.1011	3.92492
 166	1	1	0.135239	25.6999	-61.6324	3.3638
 167	1	1	-0.124676	25.1877	-62.0525	2.08334
 168	1	1	0.190416	26.7884	-63.9399	2.11428
 169	1	1	-0.226961	25.6766	-63.2677	1.46773
 170	1	1	-0.017982	28.9593	-66.4611	4.24748
 171	1	1	-0.195812	28.9485	-67.8982	4.21693
 172	1	1	-0.244042	27.8066	-65.6524	4.32148
 173	1	1	0.131216	27.6478	-68.48	4.27598
 174	1	1	-0.480889	26.5153	-66.2896	4.44372
 175	1	1	0.420559	26.486	-67.7238	4.33857
 176	1	2	0.094496	30.2415	-65.6187	4.0772
 177	1	3	0.181616	29.889	-68.4733	4.18767
 178	1	2	0.106535	28.1294	-64.2207	4.36615
 179	1	4	-0.32219	27.4792	-69.8792	4.10677
 180	1	3	0.25841	25.5831	-65.6789	4.60907
 181	1	1	0.380364	26.2216	-70.4105	4.0698
 182	1	1	-0.639904	26.1447	-71.7904	3.81461
 183	1	1	0.40258	25.0954	-69.593	4.29989
 184	1	1	0.235245	24.8675	-72.3896	3.91389
 185	1	1	-0.64044	23.8909	-70.1712	4.02033
 186	1	1	0.243455	23.7145	-71.5461	3.92077
 187	1	5	0.683739	27.2867	-72.6734	3.6808
 188	1	4	-0.371861	25.2434	-68.2785	4.52662
 189	1	5	0.675894	22.6549	-69.342	3.96534
 190	1	6	-0.526708	21.6547	-68.8567	3.81042
 191	1	6	-0.532274	28.0796	-73.4579	3.43562
 192	1	2	0.077971	29.6325	-64.2003	3.87457
 193	1	1	-0.133879	27.2193	-63.4736	3.40604
 194	1	2	0.291414	27.8589	-63.5959	5.76366
 195	1	7	0.054943	30.1354	-63.4324	4.49777
 196	1	7	-0.083103	29.6745	-63.8839	2.79114
 197	1	2	-0.229696	31.195	-65.9554	2.94492
 198	1	2	-0.134961	31.0039	-65.6751	5.40447
 199	1	7	0.062626	31.6762	-66.8414	3.27415
 200	1	7	0.065775	31.8852	-65.1638	2.6382
 201	1	7	0.079929	30.5844	-66.1667	2.05053
 202	1	7	0.050506	31.8611	-65.0183	5.33156
 203	1	7	0.024431	31.286	-66.6377	5.77369
 204	1	7	0.052051	30.3504	-65.165	6.09947
 205	1	2	-0.079385	27.2681	-62.1744	5.43901
 206	1	7	-0.096983	28.7612	-63.4997	6.41326
 207	1	7	0.069866	27.1401	-64.1041	6.36332
 208	1	2	-0.079851	28.4081	-61.0916	5.34776
 209	1	2	-0.424117	26.1817	-61.7483	6.41832
 210	1	1	-0.32128	26.7022	-62.3463	4.01081
 211	1	7	0.133743	25.7592	-60.7427	6.14348
 212	1	7	0.116477	26.4291	-61.7037	7.47586
 213	1	7	0.082726	25.4246	-62.4699	6.35085
 214	1	7	0.078262	28.9598	-60.9215	6.29718
 215	1	7	-0.001602	28.1752	-60.1467	4.85425
 216	1	7	0.028854	29.1635	-61.4205	4.65993
 217	1	3	0.315808	25.3205	-60.7694	3.79948
 218	1	3	0.28245	27.3107	-64.7707	1.62572
 219	1	8	-0.039852	25.2414	-63.6655	0.260435
 220	1	8	-0.059152	24.2744	-61.3578	1.39669
 221	1	1	0.135239	15.9314	-57.3346	-5.32588
 222	1	1	-0.124676	15.1171	-58.187	-4.5713
 223	1	1	0.190416	16.6925	-60.005	-4.9939
 224	1	1	-0.226961	15.5061	-59.5308	-4.33651
 225	1	1	-0.017982	20.2386	-61.3588	-6.20226
 226	1	1	-0.195812	21.1616	-62.2939	-5.60024
 227	1	1	-0.244042	19.7062	-60.2649	-5.55353
 228	1	1	0.131216	21.6675	-61.906	-4.33288
 229	1	1	-0.480889	20.1819	-59.9352	-4.26439
 230	1	1	0.420559	21.1003	-60.8118	-3.68153
 231	1	2	0.094496	19.879	-61.4477	-7.62388
 232	1	3	0.181616	21.5484	-63.1864	-6.16921
 233	1	2	0.106535	18.7522	-59.4972	-6.43766
 234	1	4	-0.32219	22.5134	-62.7678	-3.67092
 235	1	3	0.25841	19.8117	-59.1048	-3.7266
 236	1	1	0.380364	22.9626	-62.4773	-2.38108
 237	1	1	-0.639904	23.8593	-63.3379	-1.76208
 238	1	1	0.40258	22.401	-61.3103	-1.76499
 239	1	1	0.235245	24.298	-62.925	-0.453035
 240	1	1	-0.64044	22.8764	-60.9241	-0.503948
 241	1	1	0.243455	23.7815	-61.7298	0.173416
 242	1	5	0.683739	24.3588	-64.5086	-2.3509
 243	1	4	-0.371861	21.4855	-60.4964	-2.41512
 244	1	5	0.675894	22.311	-59.7763	0.146447
 245	1	6	-0.526708	21.9095	-58.8376	0.697592
 246	1	6	-0.532274	24.9546	-65.4294	-2.67529
 247	1	2	0.077971	18.6193	-60.4802	-7.64623
 248	1	1	-0.133879	17.4808	-59.1668	-5.79673
 249	1	2	0.291414	19.3017	-58.1201	-6.80634
 250	1	7	0.054943	18.364	-59.9831	-8.6112
 251	1	7	-0.083103	17.7201	-61.0687	-7.46905
 252	1	2	-0.229696	19.4356	-62.8749	-8.11208
 253	1	2	-0.134961	20.9784	-60.8704	-8.58238
 254	1	7	0.062626	18.8543	-63.3658	-7.33046
 255	1	7	0.065775	20.3453	-63.4616	-8.20617
 256	1	7	0.079929	18.9095	-62.8082	-9.09469
 257	1	7	0.050506	20.6104	-60.7617	-9.60645
 258	1	7	0.024431	21.9132	-61.4998	-8.61673
 259	1	7	0.052051	21.3575	-59.9241	-8.26411
 260	1	2	-0.079385	18.1277	-57.1179	-6.78626
 261	1	7	-0.096983	19.7522	-58.1976	-7.78015
 262	1	7	0.069866	20.0452	-57.8399	-6.09771
 263	1	2	-0.079851	17.5503	-56.8206	-8.17499
 264	1	2	-0.424117	18.4949	-55.8225	-6.03992
 265	1	1	-0.32128	17.1115	-57.8515	-5.94758
 266	1	7	0.133743	18.8373	-56.0823	-5.0516
 267	1	7	0.116477	17.6928	-55.1157	-5.90589
 268	1	7	0.082726	19.3257	-55.3662	-6.5705
 269	1	7	0.078262	16.7501	-56.1025	-8.10255
 270	1	7	-0.001602	17.2409	-57.7572	-8.62243
 271	1	7	0.028854	18.3444	-56.3838	-8.8002
 272	1	3	0.315808	15.6258	-56.3325	-5.48779
 273	1	3	0.28245	16.9193	-61.0832	-4.96198
 274	1	8	-0.039852	14.7049	-60.3743	-3.55992
 275	1	8	-0.059152	13.9502	-57.7761	-4.02304
 276	1	1	0.135239	4.48868	-55.9766	0.991868
 277	1	1	-0.124676	5.33156	-55.5622	2.02505
 278	1	1	0.190416	6.30652	-57.8156	2.22804
 279	1	1	-0.226961	6.14317	-56.5061	2.72111
 280	1	1	-0.017982	7.21631	-61.1096	0.207566
 281	1	1	-0.195812	8.4664	-61.5986	-0.245772
 282	1	1	-0.244042	6.81183	-59.8298	-0.121388
 283	1	1	0.131216	9.26943	-60.7744	-1.01072
 284	1	1	-0.480889	7.67239	-58.9718	-0.818515
 285	1	1	0.420559	8.89028	-59.4719	-1.25691
 286	1	2	0.094496	6.11853	-61.8887	0.928264
 287	1	3	0.181616	8.77072	-62.5986	-0.0484911
 288	1	2	0.106535	5.42321	-59.5352	0.447524
 289	1	4	-0.32219	10.5084	-61.2169	-1.34473
 290	1	3	0.25841	7.41708	-57.928	-1.04774
 291	1	1	0.380364	11.4081	-60.3812	-2.00942
 292	1	1	-0.639904	12.7047	-60.8676	-2.38592
 293	1	1	0.40258	10.9847	-59.0357	-2.34005
 294	1	1	0.235245	13.5489	-59.9856	-3.04409
 295	1	1	-0.64044	11.8648	-58.1742	-2.9693
 296	1	1	0.243455	13.2042	-58.6601	-3.25776
 297	1	5	0.683739	13.1326	-62.1899	-2.00467
 298	1	4	-0.371861	9.72317	-58.6151	-1.86289
 299	1	5	0.675894	11.5187	-56.774	-3.12917
 300	1	6	-0.526708	11.5932	-55.6775	-3.46679
 301	1	6	-0.532274	13.3604	-63.2582	-1.64579
 302	1	2	0.077971	5.16828	-60.7287	1.41053
 303	1	1	-0.133879	5.43471	-58.2059	1.19478
 304	1	2	0.291414	4.38396	-59.4459	-0.710496
 305	1	7	0.054943	4.13875	-61.0696	1.38031
 306	1	7	-0.083103	5.35073	-60.4281	2.46642
 307	1	2	-0.229696	6.65037	-62.6527	2.1504
 308	1	2	-0.134961	5.37629	-62.8819	0.0117067
 309	1	7	0.062626	7.36454	-63.4293	1.80775
 310	1	7	0.065775	5.81376	-63.1596	2.70078
 311	1	7	0.079929	7.24189	-61.9981	2.80229
 312	1	7	0.050506	5.12077	-62.4326	-0.959215
 313	1	7	0.024431	4.48147	-63.2466	0.529992
 314	1	7	0.052051	6.03122	-63.7441	-0.208602
 315	1	2	-0.079385	3.76658	-57.9721	-0.593482
 316	1	7	-0.096983	3.58796	-60.2106	-0.630665
 317	1	7	0.069866	4.86775	-59.555	-1.69472
 318	1	2	-0.079851	2.25092	-57.9806	-0.242185
 319	1	2	-0.424117	4.01818	-57.1348	-1.86336
 320	1	1	-0.32128	4.55543	-57.3183	0.569015
 321	1	7	0.133743	3.66109	-57.6149	-2.78832
 322	1	7	0.116477	5.10893	-56.9653	-1.95887
 323	1	7	0.082726	3.51416	-56.1572	-1.77527
 324	1	7	0.078262	1.63251	-58.5416	-0.952524
 325	1	7	-0.001602	1.82669	-56.9782	-0.202117
 326	1	7	0.028854	2.12265	-58.435	0.738946
 327	1	3	0.315808	3.82993	-55.2497	0.515208
 328	1	3	0.28245	6.97925	-58.526	2.68391
 329	1	8	-0.039852	6.76213	-56.0674	3.8789
 330	1	8	-0.059152	5.42326	-54.2269	2.35043
 331	1	1	0.135239	8.78914	-44.0826	6.02972
 332	1	1	-0.124676	9.7902	-44.2366	5.05904
 333	1	1	0.190416	10.4212	-46.369	6.06857
 334	1	1	-0.226961	10.6135	-45.389	5.07289
 335	1	1	-0.017982	9.44424	-49.5215	8.45186
 336	1	1	-0.195812	9.26698	-50.9002	8.22607
 337	1	1	-0.244042	8.8013	-48.5646	7.66395
 338	1	1	0.131216	8.50392	-51.2615	7.08366
 339	1	1	-0.480889	8.04719	-48.9026	6.53335
 340	1	1	0.420559	7.92328	-50.2784	6.23359
 341	1	2	0.094496	10.1294	-48.8606	9.6398
 342	1	3	0.181616	9.68805	-51.6418	8.89437
 343	1	2	0.106535	9.02598	-47.1555	8.13529
 344	1	4	-0.32219	8.33585	-52.603	6.8308
 345	1	3	0.25841	7.56954	-48.1543	5.90032
 346	1	1	0.380364	7.67806	-53.0018	5.6776
 347	1	1	-0.639904	7.60556	-54.3781	5.36955
 348	1	1	0.40258	7.08903	-52.0085	4.83658
 349	1	1	0.235245	6.85598	-54.7549	4.23059
 350	1	1	-0.64044	6.32559	-52.4095	3.72245
 351	1	1	0.243455	6.21111	-53.7914	3.41016
 352	1	5	0.683739	8.15091	-55.3491	6.25392
 353	1	4	-0.371861	7.17297	-50.6738	5.15746
 354	1	5	0.675894	5.66106	-51.4657	2.92098
 355	1	6	-0.526708	5.09871	-50.7371	2.2176
 356	1	6	-0.532274	8.55036	-56.2333	6.86939
 357	1	2	0.077971	10.1515	-47.3469	9.18587
 358	1	1	-0.133879	9.40303	-46.1975	7.01543
 359	1	2	0.291414	7.73364	-46.5262	8.70884
 360	1	7	0.054943	9.97675	-46.6738	10.0352
 361	1	7	-0.083103	11.135	-47.0668	8.77371
 362	1	2	-0.229696	11.5726	-49.3885	9.92259
 363	1	2	-0.134961	9.22412	-49.0451	10.8916
 364	1	7	0.062626	11.5477	-50.4506	10.193
 365	1	7	0.065775	12.038	-48.8609	10.7705
 366	1	7	0.079929	12.2318	-49.2872	9.05131
 367	1	7	0.050506	9.17861	-50.1006	11.1852
 368	1	7	0.024431	8.19442	-48.7061	10.6923
 369	1	7	0.052051	9.60829	-48.4739	11.7435
 370	1	2	-0.079385	7.58585	-45.0759	8.13282
 371	1	7	-0.096983	7.70407	-46.5515	9.80231
 372	1	7	0.069866	6.8574	-47.1001	8.38313
 373	1	2	-0.079851	7.94429	-44.0122	9.18908
 374	1	2	-0.424117	6.16732	-44.8055	7.56376
 375	1	1	-0.32128	8.60838	-45.0509	7.02127
 376	1	7	0.133743	5.93613	-45.4691	6.72353
 377	1	7	0.116477	6.06509	-43.7732	7.21309
 378	1	7	0.082726	5.40118	-44.9655	8.33298
 379	1	7	0.078262	8.90082	-44.2711	9.66779
 380	1	7	-0.001602	7.18063	-43.9918	9.98005
 381	1	7	0.028854	8.04163	-43.0111	8.74388
 382	1	3	0.315808	8.13098	-43.2192	6.02259
 383	1	3	0.28245	11.0465	-47.2551	6.11113
 384	1	8	-0.039852	11.6498	-45.4641	4.17621
 385	1	8	-0.059152	9.92879	-43.2842	4.0616
 386	1	1	0.135239	11.4028	-39.1365	-6.2442
 387	1	1	-0.124676	10.6086	-40.2754	-6.52052
 388	1	1	0.190416	12.2134	-41.7692	-5.41557
 389	1	1	-0.226961	11.0034	-41.5697	-6.10388
 390	1	1	-0.017982	15.0478	-42.3882	-2.92625
 391	1	1	-0.195812	14.9939	-43.2842	-1.84077
 392	1	1	-0.244042	14.1383	-41.3523	-3.0482
 393	1	1	0.131216	14.0244	-43.0801	-0.844029
 394	1	1	-0.480889	13.1612	-41.1441	-2.05286
 395	1	1	0.420559	13.1087	-42.0004	-0.941281
 396	1	2	0.094496	16.0135	-42.4582	-4.09111
 397	1	3	0.181616	15.6939	-44.1162	-1.78183
 398	1	2	0.106535	14.2917	-40.6134	-4.36712
 399	1	4	-0.32219	13.9337	-43.9358	0.213501
 400	1	3	0.25841	12.4222	-40.3504	-2.14873
 401	1	1	0.380364	12.9321	-43.7759	1.14419
 402	1	1	-0.639904	12.822	-44.7144	2.18531
 403	1	1	0.40258	12.0394	-42.6779	1.05615
 404	1	1	0.235245	11.7903	-44.5572	3.14875
 405	1	1	-0.64044	11.0535	-42.4999	2.04112
 406	1	1	0.243455	10.9198	-43.4384	3.09694
 407	1	5	0.683739	13.7603	-45.8095	2.26638
 408	1	4	-0.371861	12.1449	-41.8036	0.000718259
 409	1	5	0.675894	10.1959	-41.3616	1.97146
 410	1	6	-0.526708	9.53441	-40.4204	1.83749
 411	1	6	-0.532274	14.4492	-46.7017	2.42131
 412	1	2	0.077971	15.4032	-41.4312	-5.09967
 413	1	1	-0.133879	12.9912	-40.6302	-5.13439
 414	1	2	0.291414	14.6076	-39.0933	-4.18363
 415	1	7	0.054943	16.171	-40.7949	-5.54248
 416	1	7	-0.083103	14.9307	-41.9679	-5.93181
 417	1	2	-0.229696	16.0457	-43.878	-4.72583
 418	1	2	-0.134961	17.4244	-41.9737	-3.62449
 419	1	7	0.062626	16.6829	-43.9033	-5.61714
 420	1	7	0.065775	15.0389	-44.1839	-5.03634
 421	1	7	0.079929	16.4121	-44.624	-4.01346
 422	1	7	0.050506	17.8356	-42.6437	-2.85845
 423	1	7	0.024431	17.3934	-40.9577	-3.20486
 424	1	7	0.052051	18.1269	-41.9638	-4.46906
 425	1	2	-0.079385	13.5985	-38.2929	-5.07626
 426	1	7	-0.096983	15.6596	-38.8609	-4.40529
 427	1	7	0.069866	14.4639	-38.8067	-3.13559
 428	1	2	-0.079851	14.3274	-37.6776	-6.29696
 429	1	2	-0.424117	12.8693	-37.199	-4.26843
 430	1	1	-0.32128	12.5998	-39.3437	-5.51696
 431	1	7	0.133743	13.5819	-36.5112	-3.80293
 432	1	7	0.116477	12.2619	-37.6421	-3.46377
 433	1	7	0.082726	12.2052	-36.6046	-4.91016
 434	1	7	0.078262	14.7813	-38.459	-6.9213
 435	1	7	-0.001602	15.1244	-36.9989	-5.96069
 436	1	7	0.028854	13.6337	-37.1079	-6.9233
 437	1	3	0.315808	11.0813	-38.1402	-6.54646
 438	1	3	0.28245	12.5069	-42.7546	-5.05906
 439	1	8	-0.039852	10.1785	-42.6382	-6.34397
 440	1	8	-0.059152	9.40133	-40.1281	-7.15525
 441	1	1	0.135239	-0.420188	-39.6374	-6.66352
 442	1	1	-0.124676	0.354404	-39.491	-5.49597
 443	1	1	0.190416	0.932837	-41.862	-5.55197
 444	1	1	-0.226961	0.999295	-40.6102	-4.9138
 445	1	1	-0.017982	2.13149	-44.6947	-7.53001
 446	1	1	-0.195812	3.48769	-45.0666	-7.43677
 447	1	1	-0.244042	1.76658	-43.4032	-7.88176
 448	1	1	0.131216	4.46524	-44.0844	-7.69484
 449	1	1	-0.480889	2.72866	-42.4246	-8.16237
 450	1	1	0.420559	4.08034	-42.7817	-8.09435
 451	1	2	0.094496	0.928192	-45.5376	-7.15681
 452	1	3	0.181616	3.77014	-46.0636	-7.1202
 453	1	2	0.106535	0.292927	-43.15	-7.69116
 454	1	4	-0.32219	5.80221	-44.3631	-7.49246
 455	1	3	0.25841	2.4805	-41.386	-8.36018
 456	1	1	0.380364	6.72602	-43.3322	-7.45988
 457	1	1	-0.639904	8.03139	-43.566	-6.98412
 458	1	1	0.40258	6.31075	-42.0137	-7.82111
 459	1	1	0.235245	8.91509	-42.4671	-6.87768
 460	1	1	-0.64044	7.20158	-40.9275	-7.74492
 461	1	1	0.243455	8.50831	-41.171	-7.2686
 462	1	5	0.683739	8.45596	-44.884	-6.65777
 463	1	4	-0.371861	5.01434	-41.7897	-8.24892
 464	1	5	0.675894	6.77226	-39.608	-8.07949
 465	1	6	-0.526708	6.49507	-38.5173	-8.32832
 466	1	6	-0.532274	8.86316	-45.9317	-6.37944
 467	1	2	0.077971	-0.241789	-44.5004	-7.10714
 468	1	1	-0.133879	0.195528	-41.9883	-6.73545
 469	1	2	0.291414	-0.425907	-42.6269	-8.97353
 470	1	7	0.054943	-1.12828	-44.8608	-7.64446
 471	1	7	-0.083103	-0.553785	-44.3478	-6.06334
 472	1	2	-0.229696	1.15524	-46.2141	-5.78375
 473	1	2	-0.134961	0.659674	-46.6096	-8.23321
 474	1	7	0.062626	1.96193	-46.958	-5.8327
 475	1	7	0.065775	0.251611	-46.7321	-5.43651
 476	1	7	0.079929	1.43544	-45.4716	-5.02863
 477	1	7	0.050506	-0.223496	-47.2109	-7.98228
 478	1	7	0.024431	1.51919	-47.2889	-8.32217
 479	1	7	0.052051	0.494193	-46.1312	-9.20667
 480	1	2	-0.079385	-1.07605	-41.2387	-8.62712
 481	1	7	-0.096983	-1.17899	-43.3459	-9.33154
 482	1	7	0.069866	0.298607	-42.512	-9.78737
 483	1	2	-0.079851	-2.62288	-41.355	-8.51441
 484	1	2	-0.424117	-0.696538	-40.1743	-9.68685
 485	1	1	-0.32128	-0.472168	-40.8997	-7.27629
 486	1	7	0.133743	0.394002	-40.0388	-9.74994
 487	1	7	0.116477	-1.15484	-39.1984	-9.48045
 488	1	7	0.082726	-1.04519	-40.4934	-10.6821
 489	1	7	0.078262	-3.08221	-40.4041	-8.21509
 490	1	7	-0.001602	-2.90883	-42.1139	-7.7784
 491	1	7	0.028854	-3.05708	-41.6469	-9.4786
 492	1	3	0.315808	-0.899666	-38.7788	-7.1244
 493	1	3	0.28245	1.5196	-42.6995	-5.19851
 494	1	8	-0.039852	1.80004	-40.4553	-3.79934
 495	1	8	-0.059152	0.547464	-38.2677	-4.92802
 496	1	1	0.135239	7.57697	-30.0393	-3.23072
 497	1	1	-0.124676	8.091	-30.8334	-4.26989
 498	1	1	0.190416	8.02722	-32.8141	-2.85444
 499	1	1	-0.226961	8.3321	-32.2082	-4.08801
 500	1	1	-0.017982	6.7457	-34.8451	0.0655854
 501	1	1	-0.195812	6.19083	-36.1389	-0.0592397
 502	1	1	-0.244042	6.21839	-33.7631	-0.636592
 503	1	1	0.131216	5.08242	-36.2999	-0.913283
 504	1	1	-0.480889	5.09749	-33.9128	-1.4742
 505	1	1	0.420559	4.52141	-35.1882	-1.59977
 506	1	2	0.094496	7.95241	-34.4361	0.896029
 507	1	3	0.181616	6.61597	-36.9996	0.448476
 508	1	2	0.106535	7.04715	-32.5117	-0.476504
 509	1	4	-0.32219	4.55617	-37.5449	-1.11646
 510	1	3	0.25841	4.69394	-33.0853	-2.05791
 511	1	1	0.380364	3.57985	-37.7332	-2.05925
 512	1	1	-0.639904	3.15025	-39.0391	-2.38081
 513	1	1	0.40258	2.98293	-36.6068	-2.71503
 514	1	1	0.235245	2.17077	-39.1962	-3.37985
 515	1	1	-0.64044	1.96934	-36.7647	-3.67464
 516	1	1	0.243455	1.54397	-38.0759	-3.98393
 517	1	5	0.683739	3.73548	-40.1776	-1.7496
 518	1	4	-0.371861	3.44239	-35.3556	-2.43743
 519	1	5	0.675894	1.40755	-35.6046	-4.30192
 520	1	6	-0.526708	0.919673	-34.7104	-4.83343
 521	1	6	-0.532274	4.18868	-41.1343	-1.27483
 522	1	2	0.077971	8.25461	-32.9744	0.419062
 523	1	1	-0.133879	7.49802	-32.0188	-1.83455
 524	1	2	0.291414	6.25228	-31.2928	0.0764416
 525	1	7	0.054943	8.43777	-32.2998	1.26532
 526	1	7	-0.083103	9.17862	-32.9512	-0.176409
 527	1	2	-0.229696	9.16852	-35.3604	0.639026
 528	1	2	-0.134961	7.58924	-34.4549	2.39828
 529	1	7	0.062626	9.43232	-35.3979	-0.424886
 530	1	7	0.065775	8.95585	-36.3819	0.979562
 531	1	7	0.079929	10.0419	-34.9972	1.19773
 532	1	7	0.050506	8.43005	-34.0863	3.00557
 533	1	7	0.024431	7.35806	-35.4795	2.73396
 534	1	7	0.052051	6.71426	-33.8258	2.61922
 535	1	2	-0.079385	6.72289	-30.0302	-0.746521
 536	1	7	-0.096983	6.37618	-31.1791	1.1633
 537	1	7	0.069866	5.18254	-31.4596	-0.090726
 538	1	2	-0.079851	7.83218	-29.262	0.0264372
 539	1	2	-0.424117	5.54945	-29.0711	-1.07085
 540	1	1	-0.32128	7.30102	-30.6628	-2.0
 541	1	7	0.133743	5.07032	-28.6925	-0.15511
 542	1	7	0.116477	4.79046	-29.5874	-1.67354
 543	1	7	0.082726	5.88684	-28.1969	-1.64534
 544	1	7	0.078262	8.26664	-28.4645	-0.593673
 545	1	7	-0.001602	8.65244	-29.9294	0.309878
 546	1	7	0.028854	7.44021	-28.789	0.937795
 547	1	3	0.315808	7.37966	-28.9829	-3.37494
 548	1	3	0.28245	8.16809	-33.8773	-2.68986
 549	1	8	-0.039852	8.8692	-32.9569	-5.09531
 550	1	8	-0.059152	8.3431	-30.2774	-5.50524
 551	1	1	0.135239	10.6967	-28.5237	-16.817
 552	1	1	-0.124676	9.34975	-28.9379	-16.9226
 553	1	1	0.190416	9.76814	-30.7838	-15.3485
 554	1	1	-0.226961	8.88991	-30.054	-16.1734
 555	1	1	-0.017982	12.1011	-32.8464	-12.9062
 556	1	1	-0.195812	11.7724	-33.4586	-11.6863
 557	1	1	-0.244042	11.7664	-31.5128	-13.1388
 558	1	1	0.131216	11.1005	-32.706	-10.7055
 559	1	1	-0.480889	11.1094	-30.7512	-12.1717
 560	1	1	0.420559	10.7684	-31.3551	-10.9415
 561	1	2	0.094496	12.859	-33.4641	-14.06
 562	1	3	0.181616	12.0229	-34.4978	-11.5057
 563	1	2	0.106535	12.1992	-31.0778	-14.5162
 564	1	4	-0.32219	10.7507	-33.3165	-9.51382
 565	1	3	0.25841	10.8458	-29.7111	-12.3476
 566	1	1	0.380364	10.1043	-32.5727	-8.54441
 567	1	1	-0.639904	9.80558	-33.1663	-7.29722
 568	1	1	0.40258	9.78504	-31.197	-8.78741
 569	1	1	0.235245	9.19697	-32.3888	-6.30067
 570	1	1	-0.64044	9.21257	-30.4152	-7.76791
 571	1	1	0.243455	8.92187	-31.0224	-6.52353
 572	1	5	0.683739	10.1113	-34.5476	-7.06267
 573	1	4	-0.371861	10.0857	-30.6335	-9.98242
 574	1	5	0.675894	8.92721	-29.0206	-8.00504
 575	1	6	-0.526708	8.66708	-27.9029	-8.1412
 576	1	6	-0.532274	10.3854	-35.6705	-6.98635
 577	1	2	0.077971	12.6417	-32.415	-15.1852
 578	1	1	-0.133879	11.11	-30.3894	-15.301
 579	1	2	0.291414	13.3301	-30.0074	-14.5456
 580	1	7	0.054943	13.5209	-32.2967	-15.8284
 581	1	7	-0.083103	11.8316	-32.7793	-15.8323
 582	1	2	-0.229696	12.3197	-34.8567	-14.4393
 583	1	2	-0.134961	14.3587	-33.5861	-13.6958
 584	1	7	0.062626	12.8333	-35.259	-15.3216
 585	1	7	0.065775	11.2475	-34.7888	-14.6589
 586	1	7	0.079929	12.4366	-35.5686	-13.6116
 587	1	7	0.050506	14.7584	-32.6152	-13.3812
 588	1	7	0.024431	14.9403	-33.9321	-14.5591
 589	1	7	0.052051	14.5142	-34.2979	-12.8757
 590	1	2	-0.079385	13.0194	-29.0164	-15.738
 591	1	7	-0.096983	14.3254	-30.4719	-14.6194
 592	1	7	0.069866	13.3192	-29.4439	-13.6038
 593	1	2	-0.079851	13.8553	-29.3476	-17.0055
 594	1	2	-0.424117	13.2546	-27.5395	-15.3302
 595	1	1	-0.32128	11.5553	-29.2772	-15.9981
 596	1	7	0.133743	12.5937	-27.2493	-14.5031
 597	1	7	0.116477	13.0767	-26.8518	-16.1642
 598	1	7	0.082726	14.2917	-27.3951	-15.005
 599	1	7	0.078262	13.672	-30.3747	-17.3526
 600	1	7	-0.001602	14.9281	-29.2245	-16.8003
 601	1	7	0.028854	13.5968	-28.6742	-17.8271
 602	1	3	0.315808	11.065	-27.6665	-17.3616
 603	1	3	0.28245	9.43437	-31.6498	-14.7672
 604	1	8	-0.039852	7.58247	-30.4441	-16.3003
 605	1	8	-0.059152	8.50338	-28.2768	-17.7709
 606	1	1	0.135239	-0.587547	-25.3172	-24.8205
 607	1	1	-0.124676	-0.874391	-24.3479	-23.8346
 608	1	1	0.190416	-0.434528	-25.973	-22.0569
 609	1	1	-0.226961	-0.787661	-24.6704	-22.4541
 610	1	1	-0.017982	0.565815	-29.7407	-20.897
 611	1	1	-0.195812	1.32063	-30.2433	-19.8317
 612	1	1	-0.244042	1.04109	-28.7128	-21.6963
 613	1	1	0.131216	2.57307	-29.6727	-19.5816
 614	1	1	-0.480889	2.27979	-28.1171	-21.4488
 615	1	1	0.420559	3.04668	-28.6019	-20.3761
 616	1	2	0.094496	-0.785207	-30.2669	-21.3866
 617	1	3	0.181616	0.968384	-31.0764	-19.2354
 618	1	2	0.106535	0.0949547	-28.4011	-22.8503
 619	1	4	-0.32219	3.34743	-30.1824	-18.5595
 620	1	3	0.25841	2.65681	-27.3154	-22.0765
 621	1	1	0.380364	4.61608	-29.7153	-18.3619
 622	1	1	-0.639904	5.42636	-30.3379	-17.4081
 623	1	1	0.40258	5.09925	-28.6081	-19.1344
 624	1	1	0.235245	6.7375	-29.8488	-17.2231
 625	1	1	-0.64044	6.41333	-28.1077	-18.9308
 626	1	1	0.243455	7.21849	-28.7345	-17.9618
 627	1	5	0.683739	4.94944	-31.4325	-16.6246
 628	1	4	-0.371861	4.27761	-28.0632	-20.1097
 629	1	5	0.675894	6.89084	-27.0153	-19.7288
 630	1	6	-0.526708	7.21869	-26.1446	-20.4072
 631	1	6	-0.532274	4.61984	-32.3088	-15.964
 632	1	2	0.077971	-1.19777	-29.2018	-22.4579
 633	1	1	-0.133879	-0.208933	-26.9329	-23.0553
 634	1	2	0.291414	0.644654	-28.8178	-24.2484
 635	1	7	0.054943	-1.6788	-29.6966	-23.3089
 636	1	7	-0.083103	-1.92814	-28.4876	-22.0492
 637	1	2	-0.229696	-1.83855	-30.3565	-20.2484
 638	1	2	-0.134961	-0.59302	-31.662	-22.0737
 639	1	7	0.062626	-1.53979	-31.0915	-19.4857
 640	1	7	0.065775	-2.83329	-30.6332	-20.6173
 641	1	7	0.079929	-1.90507	-29.3804	-19.7486
 642	1	7	0.050506	0.169752	-31.6015	-22.8635