pySIMM System Object

1352 atoms
1504 bonds
2736 angles
4480 dihedrals
192 impropers

9 atom types
10 bond types
15 angle types
8 dihedral types
2 improper types

-163.841619 163.841619 xlo xhi
-163.841619 163.841619 ylo yhi
-163.841619 163.841619 zlo zhi

Masses

   1	12.01	# ca
   2	12.01	# c3
   3	1.008	# ha
   4	16.0	# os
   5	12.01	# cg
   6	14.01	# n1
   7	1.008	# hc
   8	16.0	# oh
   9	1.008	# ho

Pair Coeffs

   1	0.086	3.3996695084235347	# ca
   2	0.1094	3.3996695084235347	# c3
   3	0.015	2.59964245953351	# ha
   4	0.17	3.0000123434657784	# os
   5	0.21	3.3996695084235347	# cg
   6	0.17	3.249998523775958	# n1
   7	0.0157	2.649532787749369	# hc
   8	0.2104	3.0664733878390478	# oh
   9	0.0047	0.5379246460131368	# ho

Bond Coeffs

   1	943.1	1.1566	# cg,n1
   2	321.0	1.5156	# c3,ca
   3	300.9	1.5375	# c3,c3
   4	330.6	1.0969	# c3,hc
   5	376.6	1.3696	# ca,os
   6	461.1	1.3984	# ca,ca
   7	371.4	0.973	# ho,oh
   8	384.0	1.3637	# ca,oh
   9	345.8	1.086	# ca,ha
  10	413.3	1.4328	# ca,cg

Angle Coeffs

   1	69.52	119.9	# ca,ca,oh
   2	63.56	112.24	# ca,c3,ca
   3	63.48	119.89	# ca,os,ca
   4	65.72	120.27	# ca,ca,cg
   5	48.18	119.88	# ca,ca,ha
   6	39.4	107.58	# hc,c3,hc
   7	63.53	120.77	# c3,ca,ca
   8	69.58	119.2	# ca,ca,os
   9	58.92	179.49	# ca,cg,n1
  10	49.0	108.58	# ca,oh,ho
  11	62.86	111.51	# c3,c3,c3
  12	66.62	120.02	# ca,ca,ca
  13	63.15	112.07	# c3,c3,ca
  14	46.34	109.8	# c3,c3,hc
  15	63.5	119.89	# ca,oh,ca

Dihedral Coeffs

   1	1	3.625	2	180	# X,ca,ca,X
   2	1	3.625	2	180	# X,cg,ca,ca
   3	1	0.15555555555555556	3	0	# X,c3,c3,X
   4	1	0.0	2	0	# X,c3,ca,X
   5	1	0.9	2	180	# X,ca,os,X
   6	3	0.18	3	0	0.25	2	180	0.2	1	180	# c3,c3,c3,c3
   7	1	0.9	2	180	# X,ca,oh,X
   8	1	0.16	3	0	# hc,c3,c3,c3

Improper Coeffs

   1	1.1	-1	2	# ca,X,X,ha
   2	1.1	-1	2	# ca,ca,ca,c3

Atoms

   1	1	1	0.135239	-29.552	7.26748	42.3306
   2	1	1	-0.124676	-30.4367	6.5523	43.1713
   3	1	1	0.190416	-28.7193	6.34156	44.9445
   4	1	1	-0.226961	-30.0351	6.12334	44.4273
   5	1	1	-0.017982	-25.0234	7.09571	46.2653
   6	1	1	-0.195812	-24.5216	7.55324	47.4971
   7	1	1	-0.244042	-26.0899	7.70544	45.6618
   8	1	1	0.131216	-25.2439	8.61283	48.0954
   9	1	1	-0.480889	-26.7637	8.79342	46.2482
  10	1	1	0.420559	-26.3621	9.21433	47.5035
  11	1	2	0.094496	-24.4381	5.95955	45.4451
  12	1	3	0.181616	-23.6438	7.13381	48.0059
  13	1	2	0.106535	-26.375	7.1377	44.3052
  14	1	4	-0.32219	-24.7839	9.06612	49.3362
  15	1	3	0.25841	-27.5954	9.31625	45.7471
  16	1	1	0.380364	-25.3241	10.1784	49.8884
  17	1	1	-0.639904	-24.7489	10.7389	51.0489
  18	1	1	0.40258	-26.4663	10.8103	49.29
  19	1	1	0.235245	-25.3452	11.8276	51.6971
  20	1	1	-0.64044	-27.0003	11.9863	49.8247
  21	1	1	0.243455	-26.4959	12.4552	51.0802
  22	1	5	0.683739	-23.6326	10.1765	51.7391
  23	1	4	-0.371861	-26.9513	10.3379	48.0617
  24	1	5	0.675894	-28.1937	12.5774	49.2711
  25	1	6	-0.526708	-29.077	13.254	49.0227
  26	1	6	-0.532274	-22.7181	9.60917	52.1363
  27	1	2	0.077971	-25.5537	5.79392	44.3448
  28	1	1	-0.133879	-27.8184	6.93966	44.0226
  29	1	2	0.291414	-26.0	8.10956	43.1453
  30	1	7	0.054943	-25.171	5.54091	43.3634
  31	1	7	-0.083103	-26.2344	4.98337	44.5877
  32	1	2	-0.229696	-24.2842	4.70837	46.3336
  33	1	2	-0.134961	-23.1114	6.44761	44.7861
  34	1	7	0.062626	-23.9851	3.83824	45.7477
  35	1	7	0.065775	-25.2403	4.45718	46.8289
  36	1	7	0.079929	-23.536	4.85048	47.1409
  37	1	7	0.050506	-22.691	5.67793	44.1233
  38	1	7	0.024431	-22.3469	6.69148	45.5375
  39	1	7	0.052051	-23.2536	7.34896	44.1912
  40	1	2	-0.079385	-27.0312	7.96976	42.0029
  41	1	7	-0.096983	-25.0062	7.84999	42.7223
  42	1	7	0.069866	-25.9318	9.14192	43.4938
  43	1	2	-0.079851	-26.6531	6.89596	40.9429
  44	1	2	-0.424117	-27.3623	9.29726	41.3561
  45	1	1	-0.32128	-28.2078	7.41815	42.7566
  46	1	7	0.133743	-27.7108	10.0197	42.11
  47	1	7	0.116477	-28.1724	9.15777	40.631
  48	1	7	0.082726	-26.4887	9.72148	40.8267
  49	1	7	0.078262	-25.7927	7.19632	40.3389
  50	1	7	-0.001602	-27.4573	6.70157	40.2484
  51	1	7	0.028854	-26.4275	5.94094	41.4453
  52	1	3	0.315808	-29.8751	7.60345	41.3453
  53	1	3	0.28245	-28.4358	6.04134	45.979
  54	1	8	-0.039852	-30.9901	5.63443	45.2731
  55	1	8	-0.059152	-31.7251	6.25097	42.6873
  56	1	1	0.135239	-41.9377	1.43326	40.7381
  57	1	1	-0.124676	-42.5129	2.60916	41.2515
  58	1	1	0.190416	-41.1104	2.44705	43.2753
  59	1	1	-0.226961	-42.1351	3.05826	42.5401
  60	1	1	-0.017982	-38.0054	0.836943	45.2287
  61	1	1	-0.195812	-36.8306	1.33035	45.8167
  62	1	1	-0.244042	-38.3534	1.20348	43.9104
  63	1	1	0.131216	-36.0349	2.29973	45.1146
  64	1	1	-0.480889	-37.6009	2.15376	43.2228
  65	1	1	0.420559	-36.4795	2.74098	43.8266
  66	1	2	0.094496	-38.8753	-0.257259	45.774
  67	1	3	0.181616	-36.5029	1.03146	46.7922
  68	1	2	0.106535	-39.5267	0.423237	43.41
  69	1	4	-0.32219	-34.9979	2.97027	45.7548
  70	1	3	0.25841	-37.8209	2.43437	42.1985
  71	1	1	0.380364	-34.1544	3.72863	45.0154
  72	1	1	-0.639904	-32.9845	4.27689	45.565
  73	1	1	0.40258	-34.5951	4.16604	43.6956
  74	1	1	0.235245	-32.1482	5.04895	44.733
  75	1	1	-0.64044	-33.7398	5.00982	42.918
  76	1	1	0.243455	-32.574	5.5158	43.4831
  77	1	5	0.683739	-32.6546	3.96898	46.8966
  78	1	4	-0.371861	-35.7468	3.62929	43.1675
  79	1	5	0.675894	-34.1182	5.33067	41.5803
  80	1	6	-0.526708	-34.3024	5.71346	40.5076
  81	1	6	-0.532274	-32.5509	3.55334	47.9858
  82	1	2	0.077971	-40.0418	-0.27967	44.7369
  83	1	1	-0.133879	-40.5587	1.2872	42.7428
  84	1	2	0.291414	-39.1342	-0.594213	42.2812
  85	1	7	0.054943	-40.314	-1.31377	44.4904
  86	1	7	-0.083103	-40.953	0.191402	45.1465
  87	1	2	-0.229696	-39.4035	0.0910298	47.1847
  88	1	2	-0.134961	-38.1469	-1.59072	45.848
  89	1	7	0.062626	-38.5988	0.230979	47.9159
  90	1	7	0.065775	-40.0972	-0.676386	47.577
  91	1	7	0.079929	-39.9683	1.02574	47.1679
  92	1	7	0.050506	-37.8091	-1.81502	44.8292
  93	1	7	0.024431	-38.8034	-2.41719	46.1583
  94	1	7	0.052051	-37.2438	-1.54316	46.4768
  95	1	2	-0.079385	-40.2844	-0.541347	41.1824
  96	1	7	-0.096983	-39.0217	-1.59207	42.7272
  97	1	7	0.069866	-38.1784	-0.322484	41.8107
  98	1	2	-0.079851	-41.2063	-1.80484	41.2697
  99	1	2	-0.424117	-39.6609	-0.462917	39.7405
 100	1	1	-0.32128	-40.9735	0.793507	41.5235
 101	1	7	0.133743	-39.1005	0.455545	39.5513
 102	1	7	0.116477	-40.4701	-0.471143	39.0046
 103	1	7	0.082726	-39.0143	-1.31604	39.5048
 104	1	7	0.078262	-41.8242	-1.70706	42.1653
 105	1	7	-0.001602	-40.6843	-2.77622	41.2385
 106	1	7	0.028854	-41.9304	-1.78101	40.4523
 107	1	3	0.315808	-42.2325	1.05461	39.7435
 108	1	3	0.28245	-40.7869	2.80683	44.224
 109	1	8	-0.039852	-42.7968	4.18973	43.0404
 110	1	8	-0.059152	-43.4867	3.30812	40.5104
 111	1	1	0.135239	-50.3238	11.2668	36.2358
 112	1	1	-0.124676	-49.0874	11.9412	36.0229
 113	1	1	0.190416	-48.379	11.6017	38.2358
 114	1	1	-0.226961	-48.0995	12.0903	36.9966
 115	1	1	-0.017982	-48.7715	9.88389	41.7894
 116	1	1	-0.195812	-47.7776	9.27955	42.5907
 117	1	1	-0.244042	-49.0788	9.4864	40.4318
 118	1	1	0.131216	-47.0172	8.28144	41.9793
 119	1	1	-0.480889	-48.3207	8.38225	39.8634
 120	1	1	0.420559	-47.308	7.85513	40.6464
 121	1	2	0.094496	-49.6398	11.0394	42.2711
 122	1	3	0.181616	-47.5346	9.62244	43.5865
 123	1	2	0.106535	-50.1505	10.4471	39.8639
 124	1	4	-0.32219	-46.1026	7.67704	42.7271
 125	1	3	0.25841	-48.4859	8.01346	38.8323
 126	1	1	0.380364	-45.3327	6.74476	42.1174
 127	1	1	-0.639904	-44.312	6.04544	42.8735
 128	1	1	0.40258	-45.6426	6.26988	40.8054
 129	1	1	0.235245	-43.6654	4.92653	42.2893
 130	1	1	-0.64044	-45.1642	5.05898	40.3655
 131	1	1	0.243455	-44.0466	4.43077	41.0439
 132	1	5	0.683739	-43.9546	6.557	44.2196
 133	1	4	-0.371861	-46.6704	6.83524	40.1311
 134	1	5	0.675894	-45.587	4.48538	39.0628
 135	1	6	-0.526708	-45.6968	3.91534	38.0275
 136	1	6	-0.532274	-43.5917	6.82497	45.2987
 137	1	2	0.077971	-50.2831	11.5628	40.8913
 138	1	1	-0.133879	-49.6291	10.9152	38.5057
 139	1	2	0.291414	-51.3883	9.67365	39.4142
 140	1	7	0.054943	-51.3699	11.8415	40.9992
 141	1	7	-0.083103	-49.7155	12.443	40.4908
 142	1	2	-0.229696	-48.8075	12.1431	43.0546
 143	1	2	-0.134961	-50.6841	10.4745	43.3015
 144	1	7	0.062626	-48.3626	11.7681	43.9774
 145	1	7	0.065775	-49.4015	13.0152	43.3482
 146	1	7	0.079929	-47.9846	12.4768	42.4257
 147	1	7	0.050506	-51.2773	11.2871	43.7272
 148	1	7	0.024431	-50.1562	9.96018	44.0918
 149	1	7	0.052051	-51.3773	9.78654	42.8285
 150	1	2	-0.079385	-51.8629	10.2022	38.0654
 151	1	7	-0.096983	-52.211	9.67603	40.1341
 152	1	7	0.069866	-51.0517	8.64964	39.2691
 153	1	2	-0.079851	-52.9867	11.2765	38.3502
 154	1	2	-0.424117	-52.4215	9.11957	37.0961
 155	1	1	-0.32128	-50.6103	10.8341	37.5234
 156	1	7	0.133743	-51.5747	8.55943	36.691
 157	1	7	0.116477	-52.9191	9.54746	36.2141
 158	1	7	0.082726	-53.1043	8.41861	37.6291
 159	1	7	0.078262	-53.2386	11.8592	37.4509
 160	1	7	-0.001602	-52.5886	12.0306	39.0405
 161	1	7	0.028854	-53.9127	10.8817	38.7858
 162	1	3	0.315808	-51.0445	11.116	35.4358
 163	1	3	0.28245	-47.5847	11.6767	38.9756
 164	1	8	-0.039852	-47.0016	12.8804	36.7425
 165	1	8	-0.059152	-48.7921	12.2987	34.7461
 166	1	1	0.135239	-42.5968	13.2404	25.2423
 167	1	1	-0.124676	-42.3975	11.958	25.6705
 168	1	1	0.190416	-41.9392	12.7541	28.0757
 169	1	1	-0.226961	-42.0679	11.6702	27.0808
 170	1	1	-0.017982	-41.8167	15.5008	30.6216
 171	1	1	-0.195812	-42.2172	15.4135	31.9804
 172	1	1	-0.244042	-42.7023	15.1762	29.6199
 173	1	1	0.131216	-43.5069	14.9228	32.2495
 174	1	1	-0.480889	-43.9976	14.7747	29.9078
 175	1	1	0.420559	-44.3758	14.5786	31.214
 176	1	2	0.094496	-40.4753	16.0668	30.1195
 177	1	3	0.181616	-41.5018	15.6872	32.7603
 178	1	2	0.106535	-42.0699	15.2938	28.2791
 179	1	4	-0.32219	-43.885	14.712	33.5653
 180	1	3	0.25841	-44.6726	14.5163	29.0809
 181	1	1	0.380364	-45.092	14.0786	33.8919
 182	1	1	-0.639904	-45.421	13.8763	35.193
 183	1	1	0.40258	-46.0085	13.7953	32.7827
 184	1	1	0.235245	-46.6707	13.2268	35.4713
 185	1	1	-0.64044	-47.2721	13.1742	33.0738
 186	1	1	0.243455	-47.5295	12.8005	34.3583
 187	1	5	0.683739	-44.3397	13.91	36.0772
 188	1	4	-0.371861	-45.6579	14.0918	31.4425
 189	1	5	0.675894	-48.2497	12.9987	32.0356
 190	1	6	-0.526708	-48.796	12.8508	31.0867
 191	1	6	-0.532274	-43.6681	13.856	37.0203
 192	1	2	0.077971	-40.6016	15.6171	28.688
 193	1	1	-0.133879	-42.1537	14.0643	27.5479
 194	1	2	0.291414	-42.7814	16.3346	27.3123
 195	1	7	0.054943	-40.0755	16.3677	28.0316
 196	1	7	-0.083103	-40.0738	14.6687	28.546
 197	1	2	-0.229696	-39.2116	15.4277	30.7885
 198	1	2	-0.134961	-40.4661	17.5522	30.163
 199	1	7	0.062626	-39.2408	14.3296	30.7559
 200	1	7	0.065775	-39.1536	15.6796	31.8526
 201	1	7	0.079929	-38.2386	15.6349	30.4227
 202	1	7	0.050506	-40.5463	17.8825	31.2106
 203	1	7	0.024431	-41.3978	17.8904	29.6416
 204	1	7	0.052051	-39.6836	18.168	29.7192
 205	1	2	-0.079385	-42.5994	15.7436	25.8279
 206	1	7	-0.096983	-42.2857	17.296	27.4371
 207	1	7	0.069866	-43.8529	16.4147	27.5364
 208	1	2	-0.079851	-41.2767	16.3064	25.1226
 209	1	2	-0.424117	-43.9966	16.0458	25.0629
 210	1	1	-0.32128	-42.4771	14.2781	26.192
 211	1	7	0.133743	-44.7895	15.4633	25.5382
 212	1	7	0.116477	-44.0101	15.6732	24.0433
 213	1	7	0.082726	-44.2631	17.0937	25.0134
 214	1	7	0.078262	-40.4921	16.1257	25.8605
 215	1	7	-0.001602	-41.2719	17.3487	24.7942
 216	1	7	0.028854	-40.9034	15.7256	24.2554
 217	1	3	0.315808	-42.8876	13.3925	24.1753
 218	1	3	0.28245	-41.6738	12.5704	29.1064
 219	1	8	-0.039852	-41.9575	10.3831	27.4051
 220	1	8	-0.059152	-42.4484	10.9506	24.7925
 221	1	1	0.135239	-39.7845	1.14767	19.1098
 222	1	1	-0.124676	-41.1526	0.857068	19.0847
 223	1	1	0.190416	-41.2986	1.27752	21.5318
 224	1	1	-0.226961	-41.9428	0.967582	20.2869
 225	1	1	-0.017982	-39.6048	2.79775	24.8824
 226	1	1	-0.195812	-39.9469	3.70637	25.8899
 227	1	1	-0.244042	-39.7179	3.06487	23.4904
 228	1	1	0.131216	-40.5807	4.87796	25.371
 229	1	1	-0.480889	-40.3114	4.29449	23.0342
 230	1	1	0.420559	-40.8386	5.1626	23.973
 231	1	2	0.094496	-38.9567	1.49429	25.3116
 232	1	3	0.181616	-39.741	3.4949	26.9249
 233	1	2	0.106535	-39.1262	1.94741	22.6913
 234	1	4	-0.32219	-40.952	5.79155	26.2451
 235	1	3	0.25841	-40.4304	4.55598	22.0121
 236	1	1	0.380364	-41.2066	7.10111	25.8898
 237	1	1	-0.639904	-41.4106	8.07425	26.8886
 238	1	1	0.40258	-41.4219	7.47078	24.5089
 239	1	1	0.235245	-41.8084	9.26495	26.5041
 240	1	1	-0.64044	-41.6924	8.75702	24.1821
 241	1	1	0.243455	-41.8949	9.71982	25.1363
 242	1	5	0.683739	-41.3652	7.70515	28.3001
 243	1	4	-0.371861	-41.3114	6.39766	23.5146
 244	1	5	0.675894	-41.8675	9.03404	22.7569
 245	1	6	-0.526708	-42.2507	9.50708	21.7604
 246	1	6	-0.532274	-41.3173	7.59596	29.408
 247	1	2	0.077971	-38.9405	0.828497	23.8737
 248	1	1	-0.133879	-39.9654	1.56176	21.5202
 249	1	2	0.291414	-37.7568	2.27641	22.0741
 250	1	7	0.054943	-38.0589	0.226035	23.7361
 251	1	7	-0.083103	-39.7324	0.060785	23.8518
 252	1	2	-0.229696	-39.9066	0.587742	26.2048
 253	1	2	-0.134961	-37.4882	1.55693	25.8838
 254	1	7	0.062626	-39.8415	0.726884	27.2921
 255	1	7	0.065775	-39.6723	-0.483238	26.0196
 256	1	7	0.079929	-40.9886	0.736542	25.9306
 257	1	7	0.050506	-37.0763	0.554283	25.7473
 258	1	7	0.024431	-37.4304	1.7875	26.9399
 259	1	7	0.052051	-36.9271	2.29317	25.3579
 260	1	2	-0.079385	-37.7577	1.74481	20.5862
 261	1	7	-0.096983	-36.9141	1.92358	22.6626
 262	1	7	0.069866	-37.5949	3.40004	22.0051
 263	1	2	-0.079851	-36.7959	0.511395	20.4797
 264	1	2	-0.424117	-37.247	2.87127	19.5886
 265	1	1	-0.32128	-39.2548	1.49276	20.3435
 266	1	7	0.133743	-37.8748	3.78135	19.6936
 267	1	7	0.116477	-37.3917	2.54134	18.5562
 268	1	7	0.082726	-36.1764	3.16657	19.6362
 269	1	7	0.078262	-35.7763	0.68902	20.8494
 270	1	7	-0.001602	-36.7128	0.274348	19.4096
 271	1	7	0.028854	-37.3227	-0.31051	20.9808
 272	1	3	0.315808	-39.1332	1.077	18.2383
 273	1	3	0.28245	-41.7788	1.34638	22.5167
 274	1	8	-0.039852	-43.2998	0.753482	20.2468
 275	1	8	-0.059152	-41.7693	0.515401	17.8859
 276	1	1	0.135239	-47.3664	-3.97091	10.3695
 277	1	1	-0.124676	-47.8808	-2.78491	9.80664
 278	1	1	0.190416	-49.3967	-2.52541	11.7156
 279	1	1	-0.226961	-48.9289	-2.07644	10.4621
 280	1	1	-0.017982	-49.28	-3.12524	15.7633
 281	1	1	-0.195812	-48.8467	-2.40185	16.8737
 282	1	1	-0.244042	-48.4801	-3.2588	14.6343
 283	1	1	0.131216	-47.6582	-1.71391	16.7746
 284	1	1	-0.480889	-47.2741	-2.56409	14.4928
 285	1	1	0.420559	-46.8706	-1.76422	15.6081
 286	1	2	0.094496	-50.5452	-3.9373	15.6363
 287	1	3	0.181616	-49.4236	-2.34316	17.7919
 288	1	2	0.106535	-49.0707	-4.24171	13.6568
 289	1	4	-0.32219	-47.1758	-1.03285	17.8562
 290	1	3	0.25841	-46.6658	-2.6943	13.5988
 291	1	1	0.380364	-45.8381	-0.635296	17.9044
 292	1	1	-0.639904	-45.2613	-0.0726179	19.1012
 293	1	1	0.40258	-45.1	-0.760583	16.7236
 294	1	1	0.235245	-43.8941	0.32119	19.0956
 295	1	1	-0.64044	-43.7878	-0.385687	16.7732
 296	1	1	0.243455	-43.1613	0.101653	17.8946
 297	1	5	0.683739	-45.9926	-0.0118501	20.3346
 298	1	4	-0.371861	-45.589	-1.23546	15.6749
 299	1	5	0.675894	-42.9212	-0.377396	15.6468
 300	1	6	-0.526708	-42.2258	-0.277897	14.7422
 301	1	6	-0.532274	-46.4499	0.0782961	21.3853
 302	1	2	0.077971	-50.5199	-4.36243	14.144
 303	1	1	-0.133879	-48.8707	-3.72037	12.242
 304	1	2	0.291414	-48.3333	-5.60971	13.6453
 305	1	7	0.054943	-50.9049	-5.37038	13.9871
 306	1	7	-0.083103	-51.1414	-3.65636	13.5748
 307	1	2	-0.229696	-51.765	-3.05156	15.9155
 308	1	2	-0.134961	-50.5514	-5.15484	16.5687
 309	1	7	0.062626	-51.7899	-2.1513	15.2836
 310	1	7	0.065775	-51.7839	-2.75757	16.9705
 311	1	7	0.079929	-52.6767	-3.63141	15.7184
 312	1	7	0.050506	-51.436	-5.7507	16.3286
 313	1	7	0.024431	-50.6397	-4.83269	17.6132
 314	1	7	0.052051	-49.6672	-5.78773	16.4256
 315	1	2	-0.079385	-47.4615	-5.64316	12.3491
 316	1	7	-0.096983	-49.0811	-6.41401	13.6266
 317	1	7	0.069866	-47.7349	-5.78994	14.5367
 318	1	2	-0.079851	-47.8457	-6.93583	11.5871
 319	1	2	-0.424117	-45.9415	-5.61206	12.6388
 320	1	1	-0.32128	-47.9062	-4.43935	11.5778
 321	1	7	0.133743	-45.5751	-4.6737	13.0623
 322	1	7	0.116477	-45.3678	-5.81109	11.7326
 323	1	7	0.082726	-45.7252	-6.41586	13.3515
 324	1	7	0.078262	-48.9163	-6.98367	11.3453
 325	1	7	-0.001602	-47.6029	-7.79549	12.2244
 326	1	7	0.028854	-47.2804	-7.05518	10.6539
 327	1	3	0.315808	-46.5571	-4.49159	9.87372
 328	1	3	0.28245	-50.1285	-1.94118	12.2683
 329	1	8	-0.039852	-49.4032	-0.905053	9.91952
 330	1	8	-0.059152	-47.3266	-2.26594	8.64895
 331	1	1	0.135239	-44.2554	5.57255	0.575306
 332	1	1	-0.124676	-44.0167	6.47263	1.6364
 333	1	1	0.190416	-46.1792	5.89228	2.63834
 334	1	1	-0.226961	-44.9801	6.63675	2.66323
 335	1	1	-0.017982	-49.2915	4.0427	3.07362
 336	1	1	-0.195812	-49.8641	3.61643	4.29314
 337	1	1	-0.244042	-48.0896	3.5012	2.60921
 338	1	1	0.131216	-49.1618	2.62797	5.0336
 339	1	1	-0.480889	-47.3793	2.52007	3.32008
 340	1	1	0.420559	-47.9332	2.08632	4.54068
 341	1	2	0.094496	-49.8835	5.04945	2.10292
 342	1	3	0.181616	-50.807	4.01556	4.65316
 343	1	2	0.106535	-47.6251	4.15466	1.34237
 344	1	4	-0.32219	-49.6463	2.17131	6.25088
 345	1	3	0.25841	-46.4279	2.12797	2.96807
 346	1	1	0.380364	-49.0159	1.13374	6.88736
 347	1	1	-0.639904	-49.5353	0.670997	8.10638
 348	1	1	0.40258	-47.8511	0.531262	6.34417
 349	1	1	0.235245	-48.9201	-0.430196	8.74159
 350	1	1	-0.64044	-47.2529	-0.584223	6.95438
 351	1	1	0.243455	-47.8211	-1.09395	8.14213
 352	1	5	0.683739	-50.6988	1.30291	8.66275
 353	1	4	-0.371861	-47.2838	1.0966	5.256
 354	1	5	0.675894	-46.1062	-1.20966	6.33033
 355	1	6	-0.526708	-45.1853	-1.74121	5.88063
 356	1	6	-0.532274	-51.6292	1.85391	9.05651
 357	1	2	0.077971	-48.8826	4.97361	0.908417
 358	1	1	-0.133879	-46.4073	5.02555	1.55663
 359	1	2	0.291414	-47.121	3.18043	0.232091
 360	1	7	0.054943	-49.3616	4.48521	0.0382391
 361	1	7	-0.083103	-48.5933	5.96929	0.551117
 362	1	2	-0.229696	-49.9788	6.46962	2.70766
 363	1	2	-0.134961	-51.2928	4.62076	1.63267
 364	1	7	0.062626	-50.3753	7.16027	1.95774
 365	1	7	0.065775	-49.0007	6.84678	3.03079
 366	1	7	0.079929	-50.6433	6.48583	3.57785
 367	1	7	0.050506	-51.2875	3.60288	1.22613
 368	1	7	0.024431	-51.6674	5.309	0.863175
 369	1	7	0.052051	-52.0084	4.63218	2.46698
 370	1	2	-0.079385	-45.9445	3.87967	-0.50759
 371	1	7	-0.096983	-47.9281	2.85798	-0.445532
 372	1	7	0.069866	-46.7571	2.26231	0.698795
 373	1	2	-0.079851	-46.444	4.58693	-1.78902
 374	1	2	-0.424117	-44.8337	2.87728	-0.838698
 375	1	1	-0.32128	-45.4772	4.88255	0.531534
 376	1	7	0.133743	-44.0324	3.31639	-1.44337
 377	1	7	0.116477	-45.2395	2.04225	-1.41889
 378	1	7	0.082726	-44.388	2.46764	0.075583
 379	1	7	0.078262	-45.6263	5.11772	-2.28704
 380	1	7	-0.001602	-47.248	5.30969	-1.58271
 381	1	7	0.028854	-46.8491	3.85104	-2.49438
 382	1	3	0.315808	-43.5354	5.44728	-0.21548
 383	1	3	0.28245	-46.9207	5.99042	3.42922
 384	1	8	-0.039852	-44.7752	7.57707	3.64067
 385	1	8	-0.059152	-42.8689	7.2151	1.65924
 386	1	1	0.135239	-35.2005	15.936	3.84138
 387	1	1	-0.124676	-34.8215	15.2418	5.02061
 388	1	1	0.190416	-37.1756	14.7936	5.53512
 389	1	1	-0.226961	-35.8133	14.6622	5.85941
 390	1	1	-0.017982	-40.8341	14.8831	5.04569
 391	1	1	-0.195812	-41.7675	13.877	5.36985
 392	1	1	-0.244042	-39.8349	14.6455	4.11758
 393	1	1	0.131216	-41.6775	12.6286	4.71803
 394	1	1	-0.480889	-39.7249	13.4143	3.45623
 395	1	1	0.420559	-40.6603	12.4113	3.75664
 396	1	2	0.094496	-40.7771	16.2807	5.63615
 397	1	3	0.181616	-42.5369	14.0585	6.11354
 398	1	2	0.106535	-38.9332	15.8472	3.939
 399	1	4	-0.32219	-42.6028	11.6437	4.99902
 400	1	3	0.25841	-38.9283	13.2205	2.72905
 401	1	1	0.380364	-42.6162	10.4956	4.24049
 402	1	1	-0.639904	-43.6734	9.58448	4.39792
 403	1	1	0.40258	-41.6032	10.2908	3.25533
 404	1	1	0.235245	-43.7325	8.46863	3.53921
 405	1	1	-0.64044	-41.6741	9.18311	2.39729
 406	1	1	0.243455	-42.7391	8.27	2.53487
 407	1	5	0.683739	-44.701	9.83066	5.35824
 408	1	4	-0.371861	-40.5929	11.2163	3.09052
 409	1	5	0.675894	-40.7028	9.02022	1.36801
 410	1	6	-0.526708	-39.8815	8.94714	0.565051
 411	1	6	-0.532274	-45.4876	10.0962	6.16671
 412	1	2	0.077971	-39.6107	16.9351	4.82899
 413	1	1	-0.133879	-37.5272	15.5418	4.40087
 414	1	2	0.291414	-38.7058	16.3055	2.46546
 415	1	7	0.054943	-40.01	17.7327	4.1962
 416	1	7	-0.083103	-38.8883	17.4042	5.50111
 417	1	2	-0.229696	-40.4431	16.2477	7.14325
 418	1	2	-0.134961	-42.1117	17.0514	5.41506
 419	1	7	0.062626	-39.513	15.6993	7.33884
 420	1	7	0.065775	-41.2479	15.7608	7.70859
 421	1	7	0.079929	-40.3354	17.2716	7.53027
 422	1	7	0.050506	-42.9433	16.5899	5.97732
 423	1	7	0.024431	-42.4088	17.0865	4.35767
 424	1	7	0.052051	-42.0154	18.0841	5.77725
 425	1	2	-0.079385	-37.2068	16.7785	2.38226
 426	1	7	-0.096983	-39.4092	17.0782	2.12354
 427	1	7	0.069866	-38.8439	15.436	1.80096
 428	1	2	-0.079851	-37.1006	18.3138	2.57703
 429	1	2	-0.424117	-36.5592	16.3535	1.04002
 430	1	1	-0.32128	-36.5732	16.0741	3.55123
 431	1	7	0.133743	-36.4788	15.2575	0.969548
 432	1	7	0.116477	-35.5557	16.7788	0.932737
 433	1	7	0.082726	-37.1629	16.701	0.18965
 434	1	7	0.078262	-37.5691	18.6329	3.5145
 435	1	7	-0.001602	-37.5828	18.8511	1.75144
 436	1	7	0.028854	-36.0467	18.6435	2.59411
 437	1	3	0.315808	-34.4622	16.3732	3.17532
 438	1	3	0.28245	-37.9494	14.3342	6.15495
 439	1	8	-0.039852	-35.4277	14.0051	7.00368
 440	1	8	-0.059152	-33.4988	15.1258	5.35578
 441	1	1	0.135239	-24.112	16.5204	11.7067
 442	1	1	-0.124676	-23.6737	15.1935	11.4458
 443	1	1	0.190416	-25.8777	14.33	12.0254
 444	1	1	-0.226961	-24.5644	14.0943	11.5979
 445	1	1	-0.017982	-29.6554	14.7588	12.9589
 446	1	1	-0.195812	-30.7993	14.123	12.4305
 447	1	1	-0.244042	-28.7588	15.3809	12.1016
 448	1	1	0.131216	-30.9787	14.1216	11.0335
 449	1	1	-0.480889	-28.9022	15.357	10.7027
 450	1	1	0.420559	-30.0249	14.721	10.1766
 451	1	2	0.094496	-29.2736	14.9515	14.4143
 452	1	3	0.181616	-31.5343	13.6573	13.0811
 453	1	2	0.106535	-27.638	16.0514	12.8585
 454	1	4	-0.32219	-32.1485	13.608	10.5037
 455	1	3	0.25841	-28.1814	15.8536	10.0449
 456	1	1	0.380364	-32.4604	13.8734	9.18603
 457	1	1	-0.639904	-33.7837	13.6941	8.74409
 458	1	1	0.40258	-31.4737	14.4464	8.3462
 459	1	1	0.235245	-34.1244	14.1159	7.44547
 460	1	1	-0.64044	-31.8035	14.845	7.04434
 461	1	1	0.243455	-33.1298	14.6931	6.60056
 462	1	5	0.683739	-34.7488	13.1409	9.63639
 463	1	4	-0.371861	-30.2312	14.7436	8.82322
 464	1	5	0.675894	-30.8037	15.4457	6.20621
 465	1	6	-0.526708	-29.962	15.9213	5.57652
 466	1	6	-0.532274	-35.5804	12.706	10.3176
 467	1	2	0.077971	-27.8376	15.521	14.3174
 468	1	1	-0.133879	-26.2885	15.6432	12.3168
 469	1	2	0.291414	-27.5966	17.6091	12.7251
 470	1	7	0.054943	-27.6545	16.2972	15.0622
 471	1	7	-0.083103	-27.1162	14.7233	14.5203
 472	1	2	-0.229696	-29.3046	13.6206	15.1891
 473	1	2	-0.134961	-30.2105	15.9827	15.0654
 474	1	7	0.062626	-28.9862	13.7515	16.2248
 475	1	7	0.065775	-28.6398	12.8815	14.7272
 476	1	7	0.079929	-30.3304	13.204	15.2031
 477	1	7	0.050506	-30.2142	16.9293	14.5124
 478	1	7	0.024431	-29.9124	16.2112	16.0952
 479	1	7	0.052051	-31.2392	15.6031	15.1025
 480	1	2	-0.079385	-26.1067	18.0392	12.4686
 481	1	7	-0.096983	-28.0128	18.1172	13.615
 482	1	7	0.069866	-28.2193	17.9046	11.8919
 483	1	2	-0.079851	-25.5235	18.6651	13.743
 484	1	2	-0.424117	-25.9714	19.0023	11.2718
 485	1	1	-0.32128	-25.4322	16.7274	12.1496
 486	1	7	0.133743	-26.3129	18.5161	10.348
 487	1	7	0.116477	-24.9357	19.3335	11.1327
 488	1	7	0.082726	-26.5848	19.9014	11.4358
 489	1	7	0.078262	-26.044	19.5937	14.0271
 490	1	7	-0.001602	-24.4564	18.9106	13.6149
 491	1	7	0.028854	-25.6174	17.9826	14.5881
 492	1	3	0.315808	-23.4272	17.3505	11.5876
 493	1	3	0.28245	-26.5735	13.5096	12.1299
 494	1	8	-0.039852	-24.1054	12.8084	11.399
 495	1	8	-0.059152	-22.38	14.9511	11.09
 496	1	1	0.135239	-12.2931	11.4533	13.4358
 497	1	1	-0.124676	-12.9235	11.927	14.6045
 498	1	1	0.190416	-14.8558	10.4653	14.1826
 499	1	1	-0.226961	-14.2262	11.4633	14.9575
 500	1	1	-0.017982	-17.0405	8.21066	11.8616
 501	1	1	-0.195812	-18.4311	8.32945	11.708
 502	1	1	-0.244042	-16.2246	9.32636	11.7434
 503	1	1	0.131216	-18.9712	9.60649	11.4742
 504	1	1	-0.480889	-16.7381	10.5975	11.4738
 505	1	1	0.420559	-18.1187	10.7211	11.3316
 506	1	2	0.094496	-16.2423	6.9528	12.1452
 507	1	3	0.181616	-19.0699	7.46957	11.7842
 508	1	2	0.106535	-14.7825	9.00964	12.0158
 509	1	4	-0.32219	-20.3371	9.77057	11.3702
 510	1	3	0.25841	-16.0953	11.4707	11.3851
 511	1	1	0.380364	-20.8657	11.0442	11.24
 512	1	1	-0.639904	-22.2674	11.243	11.3094
 513	1	1	0.40258	-19.9863	12.1548	11.1263
 514	1	1	0.235245	-22.764	12.5679	11.236
 515	1	1	-0.64044	-20.4916	13.4609	11.0193
 516	1	1	0.243455	-21.8825	13.6677	11.0891
 517	1	5	0.683739	-23.1409	10.1367	11.4554
 518	1	4	-0.371861	-18.6303	11.9669	11.1268
 519	1	5	0.675894	-19.6081	14.5735	10.8731
 520	1	6	-0.526708	-18.8516	15.4357	10.7464
 521	1	6	-0.532274	-23.9011	9.27493	11.5807
 522	1	2	0.077971	-14.8355	7.52555	12.5057
 523	1	1	-0.133879	-14.2018	9.96026	13.0492
 524	1	2	0.291414	-13.8286	9.20572	10.795
 525	1	7	0.054943	-14.7049	7.4948	13.5931
 526	1	7	-0.083103	-13.9973	6.92161	12.1196
 527	1	2	-0.229696	-16.1675	6.07179	10.8753
 528	1	2	-0.134961	-16.8271	6.14063	13.3183
 529	1	7	0.062626	-15.5156	5.21109	11.0422
 530	1	7	0.065775	-15.7715	6.65792	10.0434
 531	1	7	0.079929	-17.1639	5.7012	10.5924
 532	1	7	0.050506	-17.8204	5.73572	13.0699
 533	1	7	0.024431	-16.9168	6.76671	14.2258
 534	1	7	0.052051	-16.1554	5.29574	13.5512
 535	1	2	-0.079385	-12.5198	9.90398	11.3205
 536	1	7	-0.096983	-14.3137	9.8672	10.0589
 537	1	7	0.069866	-13.6382	8.26538	10.2595
 538	1	2	-0.079851	-12.0568	11.016	10.3505
 539	1	2	-0.424117	-11.3726	8.88408	11.557
 540	1	1	-0.32128	-12.9648	10.4779	12.6639
 541	1	7	0.133743	-11.063	8.41413	10.6164
 542	1	7	0.116477	-11.6622	8.0892	12.2609
 543	1	7	0.082726	-10.4829	9.38559	11.9673
 544	1	7	0.078262	-11.8123	10.5708	9.37206
 545	1	7	-0.001602	-11.1585	11.5163	10.7291
 546	1	7	0.028854	-12.8455	11.7643	10.1949
 547	1	3	0.315808	-11.3237	11.8491	13.1108
 548	1	3	0.28245	-15.8678	10.143	14.3978
 549	1	8	-0.039852	-14.8921	12.016	16.0337
 550	1	8	-0.059152	-12.3105	12.9269	15.3102
 551	1	1	0.135239	-1.3645	11.1492	16.2438
 552	1	1	-0.124676	-1.65107	9.82371	15.8667
 553	1	1	0.190416	-3.15177	9.5987	17.7987
 554	1	1	-0.226961	-2.56358	9.05077	16.6413
 555	1	1	-0.017982	-5.48306	11.5118	20.5036
 556	1	1	-0.195812	-6.87622	11.4882	20.6567
 557	1	1	-0.244042	-4.91552	11.7604	19.2627
 558	1	1	0.131216	-7.69297	11.7727	19.5459
 559	1	1	-0.480889	-5.70745	12.0382	18.1271
 560	1	1	0.420559	-7.10796	12.0517	18.2766
 561	1	2	0.094496	-4.43772	11.2251	21.5585
 562	1	3	0.181616	-7.33147	11.2879	21.6354
 563	1	2	0.106535	-3.40496	11.7188	19.3207
 564	1	4	-0.32219	-9.06275	11.7702	19.7017
 565	1	3	0.25841	-5.24809	12.2371	17.1552
 566	1	1	0.380364	-9.87794	12.0423	18.6056
 567	1	1	-0.639904	-11.2664	12.0891	18.7537
 568	1	1	0.40258	-9.27968	12.3334	17.3515
 569	1	1	0.235245	-12.0791	12.376	17.6434
 570	1	1	-0.64044	-10.0748	12.6346	16.2231
 571	1	1	0.243455	-11.4894	12.6501	16.3825
 572	1	5	0.683739	-11.8748	11.801	20.0051
 573	1	4	-0.371861	-7.91061	12.3544	17.2077
 574	1	5	0.675894	-9.45586	12.914	14.9761
 575	1	6	-0.526708	-9.05041	13.1483	13.9151
 576	1	6	-0.532274	-12.4374	11.5909	20.9903
 577	1	2	0.077971	-3.13262	11.1012	20.7229
 578	1	1	-0.133879	-2.82771	10.9178	18.1598
 579	1	2	0.291414	-2.79511	13.135	19.1333
 580	1	7	0.054943	-2.2637	11.5661	21.2054
 581	1	7	-0.083103	-2.88572	10.032	20.641
 582	1	2	-0.229696	-4.76096	9.91481	22.3211
 583	1	2	-0.134961	-4.34837	12.4051	22.5599
 584	1	7	0.062626	-5.67317	10.021	22.9271
 585	1	7	0.065775	-3.94434	9.60688	22.9768
 586	1	7	0.079929	-4.94159	9.11623	21.5913
 587	1	7	0.050506	-4.21383	13.3529	22.0263
 588	1	7	0.024431	-3.507	12.2936	23.2615
 589	1	7	0.052051	-5.25896	12.5115	23.1558
 590	1	2	-0.079385	-1.74899	13.0655	17.9622
 591	1	7	-0.096983	-2.34741	13.5312	20.0576
 592	1	7	0.069866	-3.60416	13.8217	18.8708
 593	1	2	-0.079851	-0.299262	13.1667	18.5054
 594	1	2	-0.424117	-2.01797	14.1662	16.9217
 595	1	1	-0.32128	-1.9713	11.6779	17.3908
 596	1	7	0.133743	-1.92727	15.1644	17.3611
 597	1	7	0.116477	-3.02806	14.0745	16.4957
 598	1	7	0.082726	-1.29831	14.1198	16.0979
 599	1	7	0.078262	-0.117709	14.1179	19.019
 600	1	7	-0.001602	0.439479	13.0895	17.6825
 601	1	7	0.028854	-0.106475	12.3548	19.2246
 602	1	3	0.315808	-0.695522	11.7627	15.6304
 603	1	3	0.28245	-3.86905	9.026	18.38
 604	1	8	-0.039852	-2.86334	7.74508	16.3106
 605	1	8	-0.059152	-1.07544	9.30617	14.7383
 606	1	1	0.135239	10.2764	9.32769	14.9996
 607	1	1	-0.124676	9.94716	9.53737	13.6395
 608	1	1	0.190416	8.40872	7.61454	13.7118
 609	1	1	-0.226961	8.98155	8.68975	13.0166
 610	1	1	-0.017982	6.38517	4.93507	15.4761
 611	1	1	-0.195812	5.06739	4.59845	15.1742
 612	1	1	-0.244042	6.73021	6.23948	15.7764
 613	1	1	0.131216	4.0826	5.59222	15.156
 614	1	1	-0.480889	5.78507	7.26333	15.7674
 615	1	1	0.420559	4.45041	6.93794	15.4471
 616	1	2	0.094496	7.57413	3.98408	15.542
 617	1	3	0.181616	4.77522	3.57276	14.9749
 618	1	2	0.106535	8.22863	6.37284	15.9874
 619	1	4	-0.32219	2.80865	5.30733	14.7637
 620	1	3	0.25841	6.04688	8.29212	15.9878
 621	1	1	0.380364	1.83629	6.29727	14.7378
 622	1	1	-0.639904	0.528953	5.99321	14.3792
 623	1	1	0.40258	2.20185	7.63808	15.0575
 624	1	1	0.235245	-0.443432	7.0233	14.3967
 625	1	1	-0.64044	1.2322	8.64734	15.0813
 626	1	1	0.243455	-0.111374	8.33866	14.7691
 627	1	5	0.683739	0.136156	4.67742	13.9619
 628	1	4	-0.371861	3.50615	7.9496	15.3996
 629	1	5	0.675894	1.60653	9.9642	15.4039
 630	1	6	-0.526708	1.82371	11.0762	15.6429
 631	1	6	-0.532274	-0.0541778	3.58373	13.6645
 632	1	2	0.077971	8.78716	4.93471	15.7011
 633	1	1	-0.133879	8.80145	7.40435	15.0358
 634	1	2	0.291414	8.66455	6.93421	17.4001
 635	1	7	0.054943	9.46905	4.59504	16.4798
 636	1	7	-0.083103	9.36396	4.97102	14.7601
 637	1	2	-0.229696	7.70122	3.16309	14.2402
 638	1	2	-0.134961	7.44561	3.04549	16.7575
 639	1	7	0.062626	8.61429	2.55731	14.2597
 640	1	7	0.065775	7.78633	3.85691	13.3938
 641	1	7	0.079929	6.85147	2.48969	14.0536
 642	1	7	0.050506	6.54332	2.42512	16.6951
 643	1	7	0.024431	7.36865	3.6447	17.6681
 644	1	7	0.052051	8.31626	2.38762	16.8105
 645	1	2	-0.079385	9.85161	7.91784	17.1468
 646	1	7	-0.096983	8.91126	6.15735	18.1465
 647	1	7	0.069866	7.81272	7.50352	17.7896
 648	1	2	-0.079851	11.231	7.22646	17.3567
 649	1	2	-0.424117	9.74616	9.18061	18.0571
 650	1	1	-0.32128	9.67885	8.2726	15.7001
 651	1	7	0.133743	9.72366	8.91416	19.1221
 652	1	7	0.116477	8.83628	9.71631	17.8051