pySIMM System Object

611 atoms
685 bonds
1254 angles
2062 dihedrals
88 impropers

9 atom types
10 bond types
15 angle types
8 dihedral types
2 improper types

-124.121863 124.121863 xlo xhi
-124.121863 124.121863 ylo yhi
-124.121863 124.121863 zlo zhi

Masses

   1	12.01	# ca
   2	12.01	# c3
   3	1.008	# ha
   4	16.0	# os
   5	12.01	# cg
   6	14.01	# n1
   7	1.008	# hc
   8	16.0	# oh
   9	1.008	# ho

Pair Coeffs

   1	0.086	3.3996695084235347	# ca
   2	0.1094	3.3996695084235347	# c3
   3	0.015	2.59964245953351	# ha
   4	0.17	3.0000123434657784	# os
   5	0.21	3.3996695084235347	# cg
   6	0.17	3.249998523775958	# n1
   7	0.0157	2.649532787749369	# hc
   8	0.2104	3.0664733878390478	# oh
   9	0.0047	0.5379246460131368	# ho

Bond Coeffs

   1	943.1	1.1566	# cg,n1
   2	321.0	1.5156	# c3,ca
   3	300.9	1.5375	# c3,c3
   4	330.6	1.0969	# c3,hc
   5	376.6	1.3696	# ca,os
   6	461.1	1.3984	# ca,ca
   7	371.4	0.973	# ho,oh
   8	384.0	1.3637	# ca,oh
   9	345.8	1.086	# ca,ha
  10	413.3	1.4328	# ca,cg

Angle Coeffs

   1	69.52	119.9	# ca,ca,oh
   2	63.56	112.24	# ca,c3,ca
   3	63.48	119.89	# ca,os,ca
   4	65.72	120.27	# ca,ca,cg
   5	48.18	119.88	# ca,ca,ha
   6	39.4	107.58	# hc,c3,hc
   7	63.53	120.77	# c3,ca,ca
   8	69.58	119.2	# ca,ca,os
   9	58.92	179.49	# ca,cg,n1
  10	49.0	108.58	# ca,oh,ho
  11	62.86	111.51	# c3,c3,c3
  12	66.62	120.02	# ca,ca,ca
  13	63.15	112.07	# c3,c3,ca
  14	46.34	109.8	# c3,c3,hc
  15	63.5	119.89	# ca,oh,ca

Dihedral Coeffs

   1	1	3.625	2	180	# X,ca,ca,X
   2	1	3.625	2	180	# X,cg,ca,ca
   3	1	0.15555555555555556	3	0	# X,c3,c3,X
   4	1	0.0	2	0	# X,c3,ca,X
   5	1	0.9	2	180	# X,ca,os,X
   6	3	0.18	3	0	0.25	2	180	0.2	1	180	# c3,c3,c3,c3
   7	1	0.9	2	180	# X,ca,oh,X
   8	1	0.16	3	0	# hc,c3,c3,c3

Improper Coeffs

   1	1.1	-1	2	# ca,X,X,ha
   2	1.1	-1	2	# ca,ca,ca,c3

Atoms

   1	1	1	0.135239	-14.4753	-31.737	3.17712
   2	1	1	-0.124676	-13.3596	-32.4813	3.56927
   3	1	1	0.190416	-14.2862	-34.5137	2.5381
   4	1	1	-0.226961	-13.2636	-33.868	3.29106
   5	1	1	-0.017982	-17.0843	-36.2841	0.172681
   6	1	1	-0.195812	-16.9323	-37.2028	-0.882686
   7	1	1	-0.244042	-16.3238	-35.128	0.209838
   8	1	1	0.131216	-15.9808	-36.9629	-1.89192
   9	1	1	-0.480889	-15.3371	-34.9035	-0.766431
  10	1	1	0.420559	-15.1628	-35.8163	-1.84018
  11	1	2	0.094496	-18.0787	-36.3022	1.32333
  12	1	3	0.181616	-17.5401	-38.0976	-0.965641
  13	1	2	0.106535	-16.6159	-34.2496	1.38805
  14	1	4	-0.32219	-15.8268	-37.9018	-2.89245
  15	1	3	0.25841	-14.7659	-33.9831	-0.758122
  16	1	1	0.380364	-14.9338	-37.5807	-3.87023
  17	1	1	-0.639904	-14.7845	-38.5132	-5.00775
  18	1	1	0.40258	-14.0417	-36.4704	-3.80009
  19	1	1	0.235245	-13.7339	-38.3694	-5.91042
  20	1	1	-0.64044	-13.1377	-36.2365	-4.86113
  21	1	1	0.243455	-12.9203	-37.2605	-5.8352
  22	1	5	0.683739	-15.5957	-39.7369	-5.00363
  23	1	4	-0.371861	-14.2201	-35.5623	-2.85653
  24	1	5	0.675894	-12.3255	-35.0579	-4.83243
  25	1	6	-0.526708	-11.636	-34.1358	-4.89791
  26	1	6	-0.532274	-16.3075	-40.6433	-4.87582
  27	1	2	0.077971	-17.5273	-35.1691	2.24074
  28	1	1	-0.133879	-15.3809	-33.7583	2.09567
  29	1	2	0.291414	-17.3127	-32.9089	0.930605
  30	1	7	0.054943	-18.3637	-34.6242	2.68416
  31	1	7	-0.083103	-16.9151	-35.6653	3.02655
  32	1	2	-0.229696	-18.1392	-37.6858	1.9939
  33	1	2	-0.134961	-19.5129	-35.9938	0.775421
  34	1	7	0.062626	-18.441	-38.4687	1.30151
  35	1	7	0.065775	-18.8288	-37.6782	2.85233
  36	1	7	0.079929	-17.142	-38.0052	2.32824
  37	1	7	0.050506	-19.4538	-35.0405	0.241559
  38	1	7	0.024431	-20.2757	-35.9559	1.55481
  39	1	7	0.052051	-19.8194	-36.7018	-3.01803e-05
  40	1	2	-0.079385	-16.7904	-31.818	1.92984
  41	1	7	-0.096983	-18.4035	-32.9807	0.810387
  42	1	7	0.069866	-16.9033	-32.7009	-0.0692313
  43	1	2	-0.079851	-17.7641	-31.5613	3.11505
  44	1	2	-0.424117	-16.5449	-30.4722	1.15967
  45	1	1	-0.32128	-15.4809	-32.4146	2.41498
  46	1	7	0.133743	-15.7788	-30.601	0.408195
  47	1	7	0.116477	-16.2265	-29.7004	1.8627
  48	1	7	0.082726	-17.4466	-30.1178	0.646617
  49	1	7	0.078262	-17.9395	-32.4436	3.73046
  50	1	7	-0.001602	-18.7413	-31.1967	2.77883
  51	1	7	0.028854	-17.3647	-30.7727	3.77202
  52	1	3	0.315808	-14.5997	-30.6953	3.48463
  53	1	3	0.28245	-14.2237	-35.5776	2.31262
  54	1	8	-0.039852	-12.1327	-34.5913	3.63284
  55	1	8	-0.059152	-12.4059	-31.943	4.36693
  56	1	1	0.135239	-2.11429	-28.7947	8.39552
  57	1	1	-0.124676	-2.07719	-28.4138	7.03266
  58	1	1	0.190416	-2.92127	-30.5965	6.40809
  59	1	1	-0.226961	-2.50095	-29.3036	6.03792
  60	1	1	-0.017982	-4.5492	-34.1423	7.30496
  61	1	1	-0.195812	-5.63094	-34.8532	6.71273
  62	1	1	-0.244042	-4.68499	-32.8013	7.64178
  63	1	1	0.131216	-6.80442	-34.1385	6.42562
  64	1	1	-0.480889	-5.84705	-32.058	7.36513
  65	1	1	0.420559	-6.93494	-32.7557	6.76703
  66	1	2	0.094496	-3.17112	-34.6749	7.70026
  67	1	3	0.181616	-5.55021	-35.8888	6.40877
  68	1	2	0.106535	-3.42319	-32.2669	8.30799
  69	1	4	-0.32219	-7.8228	-34.7783	5.75996
  70	1	3	0.25841	-5.96302	-31.0069	7.61405
  71	1	1	0.380364	-8.96584	-34.0792	5.4318
  72	1	1	-0.639904	-9.97282	-34.7374	4.71722
  73	1	1	0.40258	-9.09215	-32.7074	5.78397
  74	1	1	0.235245	-11.1329	-34.0075	4.35368
  75	1	1	-0.64044	-10.196	-31.9817	5.39302
  76	1	1	0.243455	-11.2641	-32.6289	4.6982
  77	1	5	0.683739	-9.81753	-36.1013	4.32937
  78	1	4	-0.371861	-8.05417	-32.0576	6.39483
  79	1	5	0.675894	-10.3493	-30.6116	5.79109
  80	1	6	-0.526708	-10.5796	-29.5011	6.0463
  81	1	6	-0.532274	-9.6128	-37.2086	4.08141
  82	1	2	0.077971	-2.3736	-33.3784	8.04388
  83	1	1	-0.133879	-2.97994	-30.9323	7.76176
  84	1	2	0.291414	-3.55624	-31.9532	9.84617
  85	1	7	0.054943	-1.72147	-33.503	8.92078
  86	1	7	-0.083103	-1.72155	-33.0766	7.20736
  87	1	2	-0.229696	-2.49466	-35.4338	6.53307
  88	1	2	-0.134961	-3.36093	-35.5874	8.91788
  89	1	7	0.062626	-3.00874	-36.3744	6.30544
  90	1	7	0.065775	-1.47261	-35.7007	6.82522
  91	1	7	0.079929	-2.41353	-34.8453	5.60667
  92	1	7	0.050506	-2.37857	-35.8367	9.32507
  93	1	7	0.024431	-3.8606	-36.5269	8.65544
  94	1	7	0.052051	-3.94227	-35.0914	9.71577
  95	1	2	-0.079385	-2.72455	-30.6398	10.1378
  96	1	7	-0.096983	-3.20322	-32.7575	10.5023
  97	1	7	0.069866	-4.61214	-31.7843	10.0799
  98	1	2	-0.079851	-1.30135	-30.9834	10.6827
  99	1	2	-0.424117	-3.46776	-29.6493	11.0726
 100	1	1	-0.32128	-2.56217	-30.0631	8.74598
 101	1	7	0.133743	-3.66671	-30.075	12.0639
 102	1	7	0.116477	-4.43926	-29.3489	10.6544
 103	1	7	0.082726	-2.90032	-28.7315	11.2473
 104	1	7	0.078262	-0.765362	-31.6055	9.95794
 105	1	7	-0.001602	-1.36144	-31.5159	11.6417
 106	1	7	0.028854	-0.695336	-30.0825	10.8363
 107	1	3	0.315808	-1.82169	-28.0967	9.17554
 108	1	3	0.28245	-3.21246	-31.3481	5.68484
 109	1	8	-0.039852	-2.43863	-28.9246	4.72815
 110	1	8	-0.059152	-1.64849	-27.1449	6.69327
 111	1	1	0.135239	1.56304	-17.3977	1.12694
 112	1	1	-0.124676	0.263369	-17.0009	1.52423
 113	1	1	0.190416	-0.675098	-19.133	0.743348
 114	1	1	-0.226961	-0.802638	-17.8987	1.38324
 115	1	1	-0.017982	-0.0626481	-22.901	-0.722009
 116	1	1	-0.195812	-0.637195	-24.1262	-0.380267
 117	1	1	-0.244042	0.365974	-22.0257	0.281009
 118	1	1	0.131216	-0.772465	-24.4502	0.994682
 119	1	1	-0.480889	0.291556	-22.3593	1.64165
 120	1	1	0.420559	-0.320141	-23.5691	2.00728
 121	1	2	0.094496	0.16272	-22.3418	-2.10469
 122	1	3	0.181616	-0.947824	-24.8399	-1.14832
 123	1	2	0.106535	1.03772	-20.8043	-0.349216
 124	1	4	-0.32219	-1.1806	-25.7103	1.34966
 125	1	3	0.25841	0.701362	-21.7055	2.40528
 126	1	1	0.380364	-1.30375	-26.0928	2.68573
 127	1	1	-0.639904	-1.83865	-27.3647	3.01846
 128	1	1	0.40258	-0.81693	-25.187	3.6779
 129	1	1	0.235245	-1.9562	-27.7051	4.37761
 130	1	1	-0.64044	-0.911191	-25.5433	5.02784
 131	1	1	0.243455	-1.49901	-26.7837	5.37412
 132	1	5	0.683739	-2.28045	-28.2775	2.0351
 133	1	4	-0.371861	-0.391535	-23.9298	3.35216
 134	1	5	0.675894	-0.502894	-24.6095	6.0473
 135	1	6	-0.526708	-0.180214	-23.9591	6.94335
 136	1	6	-0.532274	-2.61887	-28.9632	1.14998
 137	1	2	0.077971	0.622496	-20.8765	-1.85989
 138	1	1	-0.133879	0.603411	-19.5137	0.293317
 139	1	2	0.291414	2.58626	-20.7777	-0.163019
 140	1	7	0.054943	1.3692	-20.5804	-2.60781
 141	1	7	-0.083103	-0.218026	-20.1744	-1.98173
 142	1	2	-0.229696	-1.08345	-22.3744	-3.00856
 143	1	2	-0.134961	1.31953	-23.127	-2.76597
 144	1	7	0.062626	-0.987121	-21.8473	-3.97073
 145	1	7	0.065775	-1.88877	-21.9088	-2.42726
 146	1	7	0.079929	-1.39109	-23.4115	-3.20178
 147	1	7	0.050506	1.67038	-22.7118	-3.72126
 148	1	7	0.024431	1.01292	-24.1667	-2.93
 149	1	7	0.052051	2.16877	-23.154	-2.06845
 150	1	2	-0.079385	2.99452	-19.2957	0.047934
 151	1	7	-0.096983	3.1707	-21.2544	-0.954608
 152	1	7	0.069866	2.79087	-21.3141	0.761191
 153	1	2	-0.079851	3.39907	-18.589	-1.24719
 154	1	2	-0.424117	4.08132	-19.1194	1.11904
 155	1	1	-0.32128	1.69531	-18.6661	0.533109
 156	1	7	0.133743	5.01305	-19.6163	0.807106
 157	1	7	0.116477	3.75175	-19.5975	2.05262
 158	1	7	0.082726	4.3181	-18.0708	1.33994
 159	1	7	0.078262	2.59566	-18.6225	-2.00154
 160	1	7	-0.001602	4.28436	-19.0629	-1.69006
 161	1	7	0.028854	3.68194	-17.543	-1.0697
 162	1	3	0.315808	2.41394	-16.731	1.26863
 163	1	3	0.28245	-1.53885	-19.7807	0.63763
 164	1	8	-0.039852	-2.07392	-17.5639	1.81893
 165	1	8	-0.059152	0.0550374	-15.8044	2.14326
 166	1	1	0.135239	-3.55772	-6.92728	7.86939
 167	1	1	-0.124676	-2.98607	-7.7092	8.88683
 168	1	1	0.190416	-4.38841	-9.60506	8.27692
 169	1	1	-0.226961	-3.44556	-9.01564	9.15002
 170	1	1	-0.017982	-6.58857	-11.4512	5.47407
 171	1	1	-0.195812	-6.48536	-12.7477	4.92982
 172	1	1	-0.244042	-5.5273	-10.5634	5.61548
 173	1	1	0.131216	-5.20912	-13.1285	4.4343
 174	1	1	-0.480889	-4.28639	-10.9434	5.12241
 175	1	1	0.420559	-4.11822	-12.2098	4.54221
 176	1	2	0.094496	-7.87503	-10.8203	6.03755
 177	1	3	0.181616	-7.36226	-13.3858	4.82498
 178	1	2	0.106535	-5.93639	-9.25284	6.23789
 179	1	4	-0.32219	-5.01831	-14.3276	3.85112
 180	1	3	0.25841	-3.43714	-10.2758	5.21433
 181	1	1	0.380364	-3.75238	-14.7103	3.39655
 182	1	1	-0.639904	-3.54972	-15.9414	2.8335
 183	1	1	0.40258	-2.69522	-13.7709	3.47673
 184	1	1	0.235245	-2.2431	-16.2978	2.37217
 185	1	1	-0.64044	-1.35287	-14.1391	3.17185
 186	1	1	0.243455	-1.16239	-15.3934	2.55509
 187	1	5	0.683739	-4.70177	-16.7962	2.61526
 188	1	4	-0.371861	-2.87608	-12.5503	4.10604
 189	1	5	0.675894	-0.281176	-13.2194	3.23269
 190	1	6	-0.526708	0.402674	-12.2827	3.40242
 191	1	6	-0.532274	-5.36964	-17.7172	2.36548
 192	1	2	0.077971	-7.36655	-9.55078	6.80299
 193	1	1	-0.133879	-4.97398	-8.76985	7.2922
 194	1	2	0.291414	-5.96147	-8.09468	5.22178
 195	1	7	0.054943	-8.06159	-8.6986	6.79658
 196	1	7	-0.083103	-7.21073	-9.83548	7.84673
 197	1	2	-0.229696	-8.62298	-11.7435	7.02997
 198	1	2	-0.134961	-8.86605	-10.4291	4.86895
 199	1	7	0.062626	-8.92549	-12.6834	6.5513
 200	1	7	0.065775	-9.48753	-11.2816	7.52383
 201	1	7	0.079929	-7.89478	-11.9958	7.8108
 202	1	7	0.050506	-9.75422	-9.86813	5.19772
 203	1	7	0.024431	-9.21199	-11.305	4.30712
 204	1	7	0.052051	-8.34157	-9.80064	4.13366
 205	1	2	-0.079385	-5.23388	-6.86079	5.8739
 206	1	7	-0.096983	-6.97562	-7.86584	4.86421
 207	1	7	0.069866	-5.39969	-8.42769	4.33628
 208	1	2	-0.079851	-6.26129	-5.8045	6.33212
 209	1	2	-0.424117	-4.19032	-6.18168	4.95479
 210	1	1	-0.32128	-4.56787	-7.4703	7.08705
 211	1	7	0.133743	-4.61606	-5.80306	4.02314
 212	1	7	0.116477	-3.38721	-6.87369	4.70159
 213	1	7	0.082726	-3.73533	-5.33332	5.46278
 214	1	7	0.078262	-7.01817	-6.23183	7.00027
 215	1	7	-0.001602	-6.77515	-5.31082	5.49795
 216	1	7	0.028854	-5.78376	-5.03897	6.9551
 217	1	3	0.315808	-3.17006	-5.92755	7.69235
 218	1	3	0.28245	-4.69776	-10.6512	8.34155
 219	1	8	-0.039852	-2.80313	-9.78106	10.0742
 220	1	8	-0.059152	-1.93704	-7.18971	9.62413
 221	1	1	0.135239	7.22897	-6.38741	10.0914
 222	1	1	-0.124676	6.17412	-6.40475	9.1682
 223	1	1	0.190416	5.30718	-8.40217	10.1682
 224	1	1	-0.226961	5.15532	-7.39757	9.21205
 225	1	1	-0.017982	4.72695	-10.6871	13.0478
 226	1	1	-0.195812	3.37477	-11.0932	13.2052
 227	1	1	-0.244042	5.01672	-9.31565	12.8668
 228	1	1	0.131216	2.34116	-10.1266	13.1026
 229	1	1	-0.480889	4.02434	-8.33262	12.8957
 230	1	1	0.420559	2.69948	-8.71836	12.9552
 231	1	2	0.094496	5.90093	-11.5735	12.8099
 232	1	3	0.181616	3.13295	-12.1685	13.2443
 233	1	2	0.106535	6.42548	-9.14909	12.3541
 234	1	4	-0.32219	1.0018	-10.4396	12.9497
 235	1	3	0.25841	4.27381	-7.30212	12.7307
 236	1	1	0.380364	0.173283	-9.58109	12.2602
 237	1	1	-0.639904	-0.974703	-10.1432	11.6424
 238	1	1	0.40258	0.562526	-8.2676	12.0431
 239	1	1	0.235245	-1.70609	-9.30784	10.7568
 240	1	1	-0.64044	-0.178392	-7.44945	11.2237
 241	1	1	0.243455	-1.3033	-7.94599	10.5248
 242	1	5	0.683739	-1.32352	-11.5402	11.7486
 243	1	4	-0.371861	1.70801	-7.82102	12.6652
 244	1	5	0.675894	0.256781	-6.09268	10.9569
 245	1	6	-0.526708	0.494324	-5.00688	10.6731
 246	1	6	-0.532274	-1.84596	-12.5562	11.6611
 247	1	2	0.077971	6.90823	-10.6435	12.1087
 248	1	1	-0.133879	6.34553	-8.37149	11.0676
 249	1	2	0.291414	7.36679	-8.33667	13.2821
 250	1	7	0.054943	7.944	-10.8344	12.4304
 251	1	7	-0.083103	6.88702	-10.8327	11.0617
 252	1	2	-0.229696	5.55878	-12.7804	11.8914
 253	1	2	-0.134961	6.45319	-12.0783	14.1489
 254	1	7	0.062626	6.4892	-13.3497	11.6801
 255	1	7	0.065775	5.13624	-12.4864	10.9113
 256	1	7	0.079929	4.8762	-13.488	12.3938
 257	1	7	0.050506	7.36468	-12.6478	13.9509
 258	1	7	0.024431	5.75538	-12.7722	14.6313
 259	1	7	0.052051	6.72182	-11.2563	14.8244
 260	1	2	-0.079385	8.10372	-7.33879	12.2966
 261	1	7	-0.096983	8.07934	-8.99119	13.8315
 262	1	7	0.069866	6.79861	-7.78332	14.0651
 263	1	2	-0.079851	9.50308	-7.99316	11.9638
 264	1	2	-0.424117	8.21525	-5.91213	12.8953
 265	1	1	-0.32128	7.2981	-7.36798	11.0466
 266	1	7	0.133743	8.65499	-5.96624	13.9127
 267	1	7	0.116477	7.24094	-5.42401	12.9904
 268	1	7	0.082726	8.84254	-5.23925	12.2782
 269	1	7	0.078262	10.1382	-8.03189	12.8575
 270	1	7	-0.001602	10.0982	-7.42798	11.2295
 271	1	7	0.028854	9.40816	-9.01616	11.5813
 272	1	3	0.315808	7.8988	-5.53459	10.1262
 273	1	3	0.28245	4.55597	-9.18333	10.2108
 274	1	8	-0.039852	4.01961	-7.32058	8.38864
 275	1	8	-0.059152	5.94382	-5.33078	8.30344
 276	1	1	0.135239	1.48036	3.07678	1.48193
 277	1	1	-0.124676	1.23234	3.63827	2.74158
 278	1	1	0.190416	0.390643	1.50561	3.58594
 279	1	1	-0.226961	0.619407	2.88074	3.77076
 280	1	1	-0.017982	-0.330469	-2.42761	3.13527
 281	1	1	-0.195812	-0.214109	-3.50745	4.0185
 282	1	1	-0.244042	0.661291	-1.51767	3.002
 283	1	1	0.131216	1.01934	-3.6687	4.64041
 284	1	1	-0.480889	1.84558	-1.62654	3.6799
 285	1	1	0.420559	2.0462	-2.7274	4.50794
 286	1	2	0.094496	-1.50705	-2.16481	2.21193
 287	1	3	0.181616	-0.95668	-4.29772	4.1639
 288	1	2	0.106535	0.334443	-0.455396	1.96704
 289	1	4	-0.32219	1.18595	-4.7453	5.48856
 290	1	3	0.25841	2.6687	-0.911659	3.61169
 291	1	1	0.380364	2.36087	-4.88352	6.22447
 292	1	1	-0.639904	2.51101	-6.00246	7.08481
 293	1	1	0.40258	3.41076	-3.94902	6.02124
 294	1	1	0.235245	3.78749	-6.20197	7.61592
 295	1	1	-0.64044	4.60527	-4.01504	6.80002
 296	1	1	0.243455	4.84894	-5.2624	7.46395
 297	1	5	0.683739	1.56147	-6.9997	7.2636
 298	1	4	-0.371861	3.21992	-2.82297	5.2372
 299	1	5	0.675894	5.66144	-3.07951	6.64511
 300	1	6	-0.526708	6.55376	-2.34586	6.57143
 301	1	6	-0.532274	0.568468	-7.63018	7.26693
 302	1	2	0.077971	-1.19336	-0.707925	1.70901
 303	1	1	-0.133879	0.621166	0.99422	2.32803
 304	1	2	0.291414	1.10981	-0.601799	0.579311
 305	1	7	0.054943	-1.44039	-0.465819	0.653217
 306	1	7	-0.083103	-1.83179	-0.00101771	2.26478
 307	1	2	-0.229696	-2.84173	-2.21565	3.04558
 308	1	2	-0.134961	-1.50048	-3.16691	1.00286
 309	1	7	0.062626	-2.84219	-1.49182	3.85764
 310	1	7	0.065775	-2.95463	-3.18365	3.53152
 311	1	7	0.079929	-3.70869	-2.06629	2.40129
 312	1	7	0.050506	-1.69573	-4.19204	1.35498
 313	1	7	0.024431	-0.546167	-3.20537	0.47934
 314	1	7	0.052051	-2.28992	-2.92978	0.265327
 315	1	2	-0.079385	1.42065	0.857434	0.0624138
 316	1	7	-0.096983	0.581864	-1.20168	-0.180481
 317	1	7	0.069866	2.06015	-1.10392	0.742601
 318	1	2	-0.079851	0.449985	1.28909	-1.04147
 319	1	2	-0.424117	2.89077	1.04694	-0.381261
 320	1	1	-0.32128	1.18148	1.71921	1.29602
 321	1	7	0.133743	3.67667	0.884875	0.365943
 322	1	7	0.116477	3.0688	2.02309	-0.839878
 323	1	7	0.082726	3.06822	0.340812	-1.18451
 324	1	7	0.078262	-0.580386	1.33237	-0.666098
 325	1	7	-0.001602	0.486255	0.504145	-1.81993
 326	1	7	0.028854	0.721703	2.2575	-1.48344
 327	1	3	0.315808	1.90442	3.69598	0.686405
 328	1	3	0.28245	0.0123965	0.904724	4.42156
 329	1	8	-0.039852	0.486832	3.48399	5.00211
 330	1	8	-0.059152	1.49373	4.99072	2.90547
 331	1	1	0.135239	-0.501966	15.2698	4.77444
 332	1	1	-0.124676	0.833603	15.6424	4.99742
 333	1	1	0.190416	0.940974	14.3851	7.08141
 334	1	1	-0.226961	1.54899	15.2252	6.13886
 335	1	1	-0.017982	-0.885132	10.8969	8.74883
 336	1	1	-0.195812	-0.695347	9.49283	8.78971
 337	1	1	-0.244042	-0.642287	11.5804	7.55662
 338	1	1	0.131216	-0.135348	8.8464	7.6728
 339	1	1	-0.480889	-0.101461	10.9945	6.43764
 340	1	1	0.420559	0.155955	9.63914	6.50002
 341	1	2	0.094496	-1.42522	11.8297	9.84378
 342	1	3	0.181616	-0.942883	8.90994	9.6573
 343	1	2	0.106535	-1.20226	12.9988	7.6503
 344	1	4	-0.32219	0.0790907	7.47129	7.63197
 345	1	3	0.25841	0.0877199	11.5402	5.52005
 346	1	1	0.380364	0.385593	6.86192	6.47146
 347	1	1	-0.639904	0.35962	5.43986	6.42982
 348	1	1	0.40258	0.689053	7.6285	5.30579
 349	1	1	0.235245	0.70769	4.82649	5.19412
 350	1	1	-0.64044	1.15435	6.99085	4.12301
 351	1	1	0.243455	1.13904	5.60899	4.05953
 352	1	5	0.683739	-0.0124238	4.68292	7.56781
 353	1	4	-0.371861	0.672171	9.02345	5.37896
 354	1	5	0.675894	1.54663	7.76507	2.99701
 355	1	6	-0.526708	1.83733	8.49612	2.15206
 356	1	6	-0.532274	-0.30288	4.01244	8.44434
 357	1	2	0.077971	-1.24242	13.2324	9.18854
 358	1	1	-0.133879	-0.405314	14.0151	6.86382
 359	1	2	0.291414	-2.60307	13.0563	6.98689
 360	1	7	0.054943	-1.99493	13.9613	9.4944
 361	1	7	-0.083103	-0.284232	13.6357	9.52623
 362	1	2	-0.229696	-0.597999	11.7107	11.1654
 363	1	2	-0.134961	-2.9106	11.5186	10.1231
 364	1	7	0.062626	-0.883693	12.4842	11.8957
 365	1	7	0.065775	0.468651	11.8162	10.9241
 366	1	7	0.079929	-0.752735	10.719	11.6106
 367	1	7	0.050506	-3.40437	12.2505	10.7752
 368	1	7	0.024431	-3.02559	10.5332	10.5913
 369	1	7	0.052051	-3.46697	11.5093	9.18142
 370	1	2	-0.079385	-2.47576	13.808	5.61919
 371	1	7	-0.096983	-3.24086	13.6391	7.66476
 372	1	7	0.069866	-3.08722	12.0766	6.85981
 373	1	2	-0.079851	-3.55176	14.8864	5.42912
 374	1	2	-0.424117	-2.58363	12.8327	4.41983
 375	1	1	-0.32128	-1.1083	14.4137	5.70984
 376	1	7	0.133743	-2.4185	13.3509	3.46407
 377	1	7	0.116477	-3.59861	12.4084	4.38974
 378	1	7	0.082726	-1.88259	11.9923	4.47636
 379	1	7	0.078262	-3.42404	15.6376	6.21474
 380	1	7	-0.001602	-4.54987	14.4491	5.54447
 381	1	7	0.028854	-3.47575	15.3905	4.45814
 382	1	3	0.315808	-1.05005	15.6004	3.88669
 383	1	3	0.28245	1.52327	13.9886	7.90733
 384	1	8	-0.039852	2.84067	15.6533	6.29141
 385	1	8	-0.059152	1.4354	16.4307	4.04624
 386	1	1	0.135239	6.8678	23.5878	-1.35313
 387	1	1	-0.124676	7.70084	22.8521	-2.22185
 388	1	1	0.190416	9.06154	22.1059	-0.407806
 389	1	1	-0.226961	8.83537	22.1589	-1.74614
 390	1	1	-0.017982	8.52638	21.2447	3.71401
 391	1	1	-0.195812	8.09783	20.1781	4.51253
 392	1	1	-0.244042	7.80114	21.6225	2.60208
 393	1	1	0.131216	6.99637	19.4018	4.13345
 394	1	1	-0.480889	6.69584	20.9105	2.17899
 395	1	1	0.420559	6.29677	19.7691	2.91983
 396	1	2	0.094496	9.67108	22.2306	3.97146
 397	1	3	0.181616	8.6344	19.9802	5.41928
 398	1	2	0.106535	8.28941	22.9203	2.01714
 399	1	4	-0.32219	6.56037	18.3424	4.92721
 400	1	3	0.25841	6.16912	21.2159	1.28514
 401	1	1	0.380364	5.31586	17.8219	4.66718
 402	1	1	-0.639904	4.78989	16.9237	5.58623
 403	1	1	0.40258	4.61903	18.1297	3.43196
 404	1	1	0.235245	3.46159	16.4642	5.35559
 405	1	1	-0.64044	3.30197	17.6678	3.22
 406	1	1	0.243455	2.73894	16.8276	4.18774
 407	1	5	0.683739	5.48235	16.5837	6.78244
 408	1	4	-0.371861	5.14755	19.0684	2.5701
 409	1	5	0.675894	2.55149	18.0692	2.06532
 410	1	6	-0.526708	1.90346	18.3722	1.15994
 411	1	6	-0.532274	6.12359	16.3646	7.71798
 412	1	2	0.077971	9.65586	23.0803	2.66487
 413	1	1	-0.133879	8.25402	22.8846	0.491365
 414	1	2	0.291414	7.29569	24.1017	2.3525
 415	1	7	0.054943	9.83106	24.142	2.84502
 416	1	7	-0.083103	10.4392	22.7107	1.99598
 417	1	2	-0.229696	11.0474	21.5341	4.16558
 418	1	2	-0.134961	9.29214	23.1258	5.20047
 419	1	7	0.062626	11.305	20.8273	3.35192
 420	1	7	0.065775	11.0317	20.9748	5.1077
 421	1	7	0.079929	11.8255	22.2984	4.24269
 422	1	7	0.050506	9.29887	22.5086	6.11064
 423	1	7	0.024431	8.29947	23.5983	5.09773
 424	1	7	0.052051	10.0616	23.8942	5.36175
 425	1	2	-0.079385	6.49059	24.4652	1.03825
 426	1	7	-0.096983	7.86074	24.9455	2.74729
 427	1	7	0.069866	6.57923	23.8596	3.13367
 428	1	2	-0.079851	6.68449	25.9606	0.71141
 429	1	2	-0.424117	4.98924	24.0742	1.08486
 430	1	1	-0.32128	7.16883	23.6119	0.00346755
 431	1	7	0.133743	4.44024	24.5123	1.93231
 432	1	7	0.116477	4.88301	22.9884	1.19239
 433	1	7	0.082726	4.48018	24.399	0.165854
 434	1	7	0.078262	6.17804	26.2261	-0.226443
 435	1	7	-0.001602	7.75021	26.211	0.600216
 436	1	7	0.028854	6.3057	26.639	1.47646
 437	1	3	0.315808	6.04303	24.1874	-1.74237
 438	1	3	0.28245	9.84762	21.4617	-0.0657167
 439	1	8	-0.039852	9.68938	21.5838	-2.64108
 440	1	8	-0.059152	7.40847	22.8536	-3.5336
 441	1	1	0.135239	7.76673	29.1384	-8.81984
 442	1	1	-0.124676	7.87992	29.225	-10.2079
 443	1	1	0.190416	10.2878	28.7533	-10.1125
 444	1	1	-0.226961	9.13151	29.1158	-10.8261
 445	1	1	-0.017982	12.5737	26.0397	-7.68666
 446	1	1	-0.195812	12.7856	24.6587	-7.45961
 447	1	1	-0.244042	11.2748	26.4813	-8.01224
 448	1	1	0.131216	11.6457	23.7572	-7.55971
 449	1	1	-0.480889	10.2036	25.6025	-8.2513
 450	1	1	0.420559	10.4209	24.2502	-8.04925
 451	1	2	0.094496	13.509	27.2225	-7.40847
 452	1	3	0.181616	13.7481	24.3426	-7.03343
 453	1	2	0.106535	11.1305	27.9435	-7.75633
 454	1	4	-0.32219	11.6835	22.5348	-6.88774
 455	1	3	0.25841	9.19837	25.9422	-8.47842
 456	1	1	0.380364	10.5608	22.3107	-6.17884
 457	1	1	-0.639904	10.6404	21.7785	-4.85465
 458	1	1	0.40258	9.28807	22.8545	-6.65224
 459	1	1	0.235245	9.52271	21.9087	-3.98596
 460	1	1	-0.64044	8.20841	22.918	-5.75252
 461	1	1	0.243455	8.35183	22.4824	-4.43627
 462	1	5	0.683739	11.9252	21.3983	-4.29436
 463	1	4	-0.371861	9.31681	23.508	-7.81279
 464	1	5	0.675894	6.98299	23.6007	-6.1688
 465	1	6	-0.526708	5.92293	24.0519	-6.31122
 466	1	6	-0.532274	13.0323	21.1655	-4.01357
 467	1	2	0.077971	12.6018	28.4481	-7.80228
 468	1	1	-0.133879	10.1392	28.5335	-8.72871
 469	1	2	0.291414	10.4543	28.1719	-6.34676
 470	1	7	0.054943	12.7817	29.2848	-7.10999
 471	1	7	-0.083103	12.8384	28.7891	-8.82184
 472	1	2	-0.229696	14.7504	27.1558	-8.32005
 473	1	2	-0.134961	13.9408	27.245	-5.90975
 474	1	7	0.062626	15.2953	28.1059	-8.31496
 475	1	7	0.065775	14.4428	26.9353	-9.34589
 476	1	7	0.079929	15.4105	26.3734	-7.93873
 477	1	7	0.050506	13.057	27.2934	-5.26424
 478	1	7	0.024431	14.5238	28.1429	-5.67225
 479	1	7	0.052051	14.5229	26.3637	-5.60987
 480	1	2	-0.079385	9.00282	28.6304	-6.54136
 481	1	7	-0.096983	11.0436	28.8481	-5.70819
 482	1	7	0.069866	10.4081	27.2001	-5.84202
 483	1	2	-0.079851	8.74729	29.9566	-5.9095
 484	1	2	-0.424117	7.95215	27.5849	-6.07887
 485	1	1	-0.32128	8.92325	28.7667	-8.06912
 486	1	7	0.133743	8.01682	27.2992	-5.02421
 487	1	7	0.116477	8.08404	26.667	-6.65891
 488	1	7	0.082726	6.93127	27.941	-6.25024
 489	1	7	0.078262	7.7501	30.3391	-6.14993
 490	1	7	-0.001602	9.49654	30.6357	-6.33212
 491	1	7	0.028854	8.89363	29.9184	-4.82525
 492	1	3	0.315808	6.79122	29.2727	-8.34765
 493	1	3	0.28245	11.2267	28.5463	-10.6278
 494	1	8	-0.039852	9.20543	29.3303	-12.175
 495	1	8	-0.059152	6.74479	29.3822	-10.9402
 496	1	1	0.135239	-1.16739	28.2072	-18.5736
 497	1	1	-0.124676	-1.38493	29.139	-17.5216
 498	1	1	0.190416	0.718855	30.2686	-18.0684
 499	1	1	-0.226961	-0.459826	30.1988	-17.3052
 500	1	1	-0.017982	4.61117	29.7076	-19.2947
 501	1	1	-0.195812	5.80129	29.8798	-18.566
 502	1	1	-0.244042	3.47712	29.1575	-18.6957
 503	1	1	0.131216	5.79316	29.5914	-17.214
 504	1	1	-0.480889	3.47057	28.8849	-17.3198
 505	1	1	0.420559	4.61035	29.1829	-16.5844
 506	1	2	0.094496	4.35263	30.0428	-20.7642
 507	1	3	0.181616	6.7254	30.2309	-19.0193
 508	1	2	0.106535	2.33544	28.9875	-19.6784
 509	1	4	-0.32219	6.95079	29.7042	-16.4773
 510	1	3	0.25841	2.60738	28.478	-16.8083
 511	1	1	0.380364	6.91951	29.4803	-15.112
 512	1	1	-0.639904	8.12015	29.5449	-14.3594
 513	1	1	0.40258	5.66639	29.2639	-14.4591
 514	1	1	0.235245	8.04961	29.4082	-12.9595
 515	1	1	-0.64044	5.57436	29.2637	-13.0612
 516	1	1	0.243455	6.77198	29.3601	-12.3064
 517	1	5	0.683739	9.3744	29.6547	-15.038
 518	1	4	-0.371861	4.53769	29.0869	-15.2244
 519	1	5	0.675894	4.33873	29.1007	-12.398
 520	1	6	-0.526708	3.37993	28.9522	-11.7805
 521	1	6	-0.532274	10.4664	29.7671	-15.4003
 522	1	2	0.077971	2.77841	29.9378	-20.8533
 523	1	1	-0.133879	0.984042	29.2568	-19.0028
 524	1	2	0.291414	2.11338	27.5035	-20.1742
 525	1	7	0.054943	2.3402	30.9226	-20.6717
 526	1	7	-0.083103	2.38488	29.5951	-21.8211
 527	1	2	-0.229696	5.07655	29.0287	-21.6934
 528	1	2	-0.134961	4.79835	31.4546	-21.1851
 529	1	7	0.062626	6.16685	29.132	-21.6089
 530	1	7	0.065775	4.79785	29.1521	-22.7486
 531	1	7	0.079929	4.84034	27.9976	-21.3955
 532	1	7	0.050506	4.40116	32.1839	-20.4685
 533	1	7	0.024431	4.4233	31.7076	-22.1903
 534	1	7	0.052051	5.8922	31.5567	-21.1775
 535	1	2	-0.079385	0.580188	27.2159	-20.2571
 536	1	7	-0.096983	2.51861	26.8065	-19.4287
 537	1	7	0.069866	2.63698	27.2729	-21.109
 538	1	2	-0.079851	0.255293	25.7786	-19.8304
 539	1	2	-0.424117	0.000289202	27.4938	-21.6486
 540	1	1	-0.32128	0.0413024	28.2463	-19.28
 541	1	7	0.133743	-1.08802	27.3528	-21.6422
 542	1	7	0.116477	0.430058	26.8797	-22.4538
 543	1	7	0.082726	0.176004	28.5475	-21.9101
 544	1	7	0.078262	0.775105	25.0065	-20.4183
 545	1	7	-0.001602	-0.824596	25.5952	-19.9045
 546	1	7	0.028854	0.530655	25.6719	-18.7716
 547	1	3	0.315808	-1.86813	27.4109	-18.7882
 548	1	3	0.28245	1.49159	30.9935	-17.8161
 549	1	8	-0.039852	-0.62224	31.1135	-16.316
 550	1	8	-0.059152	-2.39286	28.8888	-16.6163
 551	1	1	0.135239	0.169201	18.1385	-13.3159
 552	1	1	-0.124676	-1.18252	18.1422	-12.9159
 553	1	1	0.190416	-0.889212	20.2651	-11.7589
 554	1	1	-0.226961	-1.72344	19.2058	-12.149
 555	1	1	-0.017982	1.28022	23.5212	-10.9008
 556	1	1	-0.195812	0.840524	24.8555	-10.8549
 557	1	1	-0.244042	0.953114	22.6928	-11.968
 558	1	1	0.131216	0.0835454	25.3519	-11.9389
 559	1	1	-0.480889	0.173855	23.171	-13.0399
 560	1	1	0.420559	-0.247417	24.5258	-13.0243
 561	1	2	0.094496	2.10135	22.7913	-9.86366
 562	1	3	0.181616	1.10186	25.4937	-10.0235
 563	1	2	0.106535	1.49974	21.2764	-11.7916
 564	1	4	-0.32219	-0.315868	26.6818	-11.9231
 565	1	3	0.25841	-0.0625102	22.5579	-13.8863
 566	1	1	0.380364	-0.919563	27.2091	-13.0399
 567	1	1	-0.639904	-1.18748	28.5836	-13.1044
 568	1	1	0.40258	-1.25961	26.3622	-14.143
 569	1	1	0.235245	-1.73732	29.1115	-14.2959
 570	1	1	-0.64044	-1.85564	26.8959	-15.3058
 571	1	1	0.243455	-2.04398	28.2993	-15.4132
 572	1	5	0.683739	-0.841763	29.4433	-12.0297
 573	1	4	-0.371861	-0.982658	25.0205	-14.0655
 574	1	5	0.675894	-2.25669	25.9991	-16.2983
 575	1	6	-0.526708	-2.61784	25.3244	-17.216
 576	1	6	-0.532274	-0.61784	30.272	-11.2369
 577	1	2	0.077971	1.96924	21.2875	-10.2954
 578	1	1	-0.133879	0.470464	20.2109	-12.0928
 579	1	2	0.291414	2.65425	20.924	-12.7712
 580	1	7	0.054943	2.90342	20.7315	-10.1537
 581	1	7	-0.083103	1.17996	20.797	-9.68387
 582	1	2	-0.229696	1.54426	22.9945	-8.41976
 583	1	2	-0.134961	3.57954	23.2751	-9.91473
 584	1	7	0.062626	0.490495	22.6612	-8.35534
 585	1	7	0.065775	1.61454	24.0566	-8.12645
 586	1	7	0.079929	2.14308	22.3867	-7.71584
 587	1	7	0.050506	3.99696	23.2357	-10.9362
 588	1	7	0.024431	4.21155	22.6751	-9.26173
 589	1	7	0.052051	3.65431	24.3077	-9.5608
 590	1	2	-0.079385	2.45223	19.4219	-13.1806
 591	1	7	-0.096983	3.66235	21.1326	-12.3794
 592	1	7	0.069866	2.55411	21.537	-13.6774
 593	1	2	-0.079851	3.32164	18.4693	-12.3034
 594	1	2	-0.424117	2.78179	19.1649	-14.6779
 595	1	1	-0.32128	0.988152	19.1799	-12.8694
 596	1	7	0.133743	2.11113	19.6986	-15.3622
 597	1	7	0.116477	2.69483	18.1005	-14.9321
 598	1	7	0.082726	3.81186	19.4757	-14.9114
 599	1	7	0.078262	3.12183	17.422	-12.5623
 600	1	7	-0.001602	3.09636	18.6105	-11.2374
 601	1	7	0.028854	4.39405	18.6293	-12.4692
 602	1	3	0.315808	0.566095	17.355	-13.9511
 603	1	3	0.28245	-1.28411	21.1211	-11.239
 604	1	8	-0.039852	-3.05407	19.2738	-11.7973
 605	1	8	-0.059152	-2.0101	17.1136	-13.2978
 606	1	3	0	-13.6325	-39.0813	-6.79391
 607	1	3	0	-12.089	-37.1077	-6.46431
 608	1	9	0	-1.46098	30.9267	-15.8589
 609	1	3	0	-1.87726	30.2017	-14.3173
 610	1	9	0	-3.52061	18.4789	-12.1063
 611	1	9	0	-2.91977	17.3081	-13.0053

Velocities

   1	-0.000116058	0.00226421	0.00115776
   2	0.00363455	-0.00017892	-3.74333e-05
   3	0.00275279	-0.00486018	-0.00364632
   4	-0.00473684	0.00521614	0.0039435
   5	0.00163541	0.00793115	-0.00535859
   6	0.00315278	0.0043682	0.00218071
   7	-0.00171775	0.00187135	-0.000738025
   8	0.0028134	-0.00502742	-0.00253656
   9	0.00438159	0.00428606	-0.00199725
  10	-0.00294765	-0.00118485	-0.00182207
  11	-0.00222973	-0.000953912	0.00206681
  12	0.00227848	0.00111034	-0.00154746
  13	0.000912824	0.00492472	0.00448533
  14	-0.00322981	0.0012349	0.00400416
  15	0.00198435	-0.0124474	-0.0159137
  16	-0.00260031	-0.00177549	0.0014663
  17	0.00120322	-0.00332813	0.00477204
  18	0.004863	0.00248489	0.0013371
  19	-0.0031819	-0.0056143	0.0137059
  20	-8.87132e-05	0.00228331	0.00107941
  21	0.0021084	0.0103055	-0.00727523
  22	2.43471e-05	0.0116453	-0.0100943
  23	-0.00164377	0.00565106	0.0041387
  24	0.00593373	-0.00186439	-0.000344909
  25	-0.00204376	-0.000734642	-6.41895e-05
  26	-0.00241969	-0.0062653	0.00479923
  27	0.00116331	0.00107747	-0.00187243
  28	0.00535459	0.00552872	-0.00683764
  29	0.00401906	1.12984e-06	-0.00271264
  30	-0.00494953	-0.00430315	-0.00337819
  31	-0.00137385	-0.00251384	0.00053811
  32	-0.00229289	-0.000869966	-0.00369382
  33	0.00335379	-0.00156579	-0.00113015
  34	-0.00664413	0.00174758	-0.00788629
  35	0.00191905	-0.00914128	0.00568465
  36	-0.00258084	0.0094656	0.0042784
  37	0.0176286	-0.00102447	0.00344911
  38	-0.00905377	-0.0033142	-0.00794705