pySIMM System Object

1493 atoms
1678 bonds
3078 angles
5068 dihedrals
216 impropers

9 atom types
10 bond types
15 angle types
8 dihedral types
2 improper types

-170.676110 170.676110 xlo xhi
-170.676110 170.676110 ylo yhi
-170.676110 170.676110 zlo zhi

Masses

   1	12.01	# ca
   2	12.01	# c3
   3	1.008	# ha
   4	16.0	# os
   5	12.01	# cg
   6	14.01	# n1
   7	1.008	# hc
   8	16.0	# oh
   9	1.008	# ho

Pair Coeffs

   1	0.086	3.3996695084235347	# ca
   2	0.1094	3.3996695084235347	# c3
   3	0.015	2.59964245953351	# ha
   4	0.17	3.0000123434657784	# os
   5	0.21	3.3996695084235347	# cg
   6	0.17	3.249998523775958	# n1
   7	0.0157	2.649532787749369	# hc
   8	0.2104	3.0664733878390478	# oh
   9	0.0047	0.5379246460131368	# ho

Bond Coeffs

   1	371.4	0.973	# ho,oh
   2	461.1	1.3984	# ca,ca
   3	345.8	1.086	# ca,ha
   4	384.0	1.3637	# ca,oh
   5	300.9	1.5375	# c3,c3
   6	413.3	1.4328	# ca,cg
   7	943.1	1.1566	# cg,n1
   8	321.0	1.5156	# c3,ca
   9	330.6	1.0969	# c3,hc
  10	376.6	1.3696	# ca,os

Angle Coeffs

   1	58.92	179.49	# ca,cg,n1
   2	49.0	108.58	# ca,oh,ho
   3	62.86	111.51	# c3,c3,c3
   4	66.62	120.02	# ca,ca,ca
   5	63.53	120.77	# c3,ca,ca
   6	63.15	112.07	# c3,c3,ca
   7	46.34	109.8	# c3,c3,hc
   8	69.52	119.9	# ca,ca,oh
   9	63.56	112.24	# ca,c3,ca
  10	63.48	119.89	# ca,os,ca
  11	65.72	120.27	# ca,ca,cg
  12	48.18	119.88	# ca,ca,ha
  13	39.4	107.58	# hc,c3,hc
  14	69.58	119.2	# ca,ca,os
  15	63.5	119.89	# ca,oh,ca

Dihedral Coeffs

   1	1	0.9	2	180	# X,ca,os,X
   2	3	0.18	3	0	0.25	2	180	0.2	1	180	# c3,c3,c3,c3
   3	1	0.9	2	180	# X,ca,oh,X
   4	1	0.16	3	0	# hc,c3,c3,c3
   5	1	3.625	2	180	# X,ca,ca,X
   6	1	3.625	2	180	# X,cg,ca,ca
   7	1	0.15555555555555556	3	0	# X,c3,c3,X
   8	1	0.0	2	0	# X,c3,ca,X

Improper Coeffs

   1	1.1	-1	2	# ca,ca,ca,c3
   2	1.1	-1	2	# ca,X,X,ha

Atoms

   1	1	1	0.135239	-5.82103	4.28127	79.4426
   2	1	1	-0.124676	-7.02371	4.62444	78.78
   3	1	1	0.190416	-7.83284	5.77164	80.8027
   4	1	1	-0.226961	-8.041	5.34289	79.4474
   5	1	1	-0.017982	-7.4636	6.96815	84.6145
   6	1	1	-0.195812	-7.90191	8.13226	85.2599
   7	1	1	-0.244042	-6.77936	7.02632	83.4054
   8	1	1	0.131216	-7.72951	9.3771	84.6159
   9	1	1	-0.480889	-6.58774	8.24969	82.7356
  10	1	1	0.420559	-7.05533	9.46723	83.3341
  11	1	2	0.094496	-7.56132	5.54592	85.1509
  12	1	3	0.181616	-8.38452	8.0769	86.2297
  13	1	2	0.106535	-6.36501	5.66621	82.9312
  14	1	4	-0.32219	-8.09397	10.53	85.2616
  15	1	3	0.25841	-6.07243	8.28311	81.7829
  16	1	1	0.380364	-7.88455	11.7478	84.5878
  17	1	1	-0.639904	-8.26803	12.91	85.2527
  18	1	1	0.40258	-7.34016	11.7263	83.33
  19	1	1	0.235245	-8.18335	14.1872	84.633
  20	1	1	-0.64044	-7.26353	12.9582	82.6763
  21	1	1	0.243455	-7.64224	14.2039	83.3251
  22	1	5	0.683739	-8.79021	12.8313	86.6013
  23	1	4	-0.371861	-6.89072	10.6651	82.7211
  24	1	5	0.675894	-6.63393	13.0195	81.3503
  25	1	6	-0.526708	-6.16609	13.1651	80.3002
  26	1	6	-0.532274	-9.2129	12.6279	87.6976
  27	1	2	0.077971	-7.11399	4.68898	83.9182
  28	1	1	-0.133879	-6.6759	5.37906	81.4765
  29	1	2	0.291414	-4.82837	5.43118	82.898
  30	1	7	0.054943	-6.5136	3.83962	84.2479
  31	1	7	-0.083103	-7.99719	4.28171	83.4
  32	1	2	-0.229696	-9.00327	5.18969	85.5662
  33	1	2	-0.134961	-6.5817	5.38839	86.3393
  34	1	7	0.062626	-9.35467	5.73437	86.4482
  35	1	7	0.065775	-9.05723	4.12084	85.7975
  36	1	7	0.079929	-9.70173	5.38885	84.7407
  37	1	7	0.050506	-6.54196	4.34337	86.6534
  38	1	7	0.024431	-6.87108	5.99577	87.2027
  39	1	7	0.052051	-5.57495	5.70082	86.025
  40	1	2	-0.079385	-4.49381	4.4755	81.7023
  41	1	7	-0.096983	-4.42054	5.08248	83.8519
  42	1	7	0.069866	-4.36411	6.42119	82.7232
  43	1	2	-0.079851	-4.43514	2.98608	82.1477
  44	1	2	-0.424117	-3.20584	4.87467	80.9664
  45	1	1	-0.32128	-5.69037	4.64402	80.8013
  46	1	7	0.133743	-2.33804	4.84693	81.6419
  47	1	7	0.116477	-3.30062	5.90969	80.6124
  48	1	7	0.082726	-2.96468	4.23264	80.1027
  49	1	7	0.078262	-3.67528	2.86061	82.9308
  50	1	7	-0.001602	-4.18632	2.3489	81.3099
  51	1	7	0.028854	-5.38902	2.66016	82.5495
  52	1	3	0.315808	-5.05967	3.72648	78.9132
  53	1	3	0.28245	-8.55327	6.37361	81.3539
  54	1	8	-0.039852	-9.16975	5.67374	78.7506
  55	1	8	-0.059152	-7.11957	4.27164	77.4678
  56	1	1	0.135239	-8.96289	5.3371	66.3005
  57	1	1	-0.124676	-8.2963	6.57209	66.4017
  58	1	1	0.190416	-9.78183	7.27444	68.2058
  59	1	1	-0.226961	-8.7402	7.56643	67.3178
  60	1	1	-0.017982	-12.532	6.31351	70.9929
  61	1	1	-0.195812	-12.5356	6.51026	72.3879
  62	1	1	-0.244042	-11.4443	5.69881	70.3705
  63	1	1	0.131216	-11.4449	6.06964	73.1479
  64	1	1	-0.480889	-10.341	5.25218	71.1128
  65	1	1	0.420559	-10.3374	5.4273	72.5029
  66	1	2	0.094496	-13.628	6.61508	70.0224
  67	1	3	0.181616	-13.3953	6.96439	72.8702
  68	1	2	0.106535	-11.6389	5.56674	68.8927
  69	1	4	-0.32219	-11.4325	6.20694	74.5178
  70	1	3	0.25841	-9.51395	4.74906	70.6297
  71	1	1	0.380364	-10.3741	5.74682	75.2745
  72	1	1	-0.639904	-10.3686	5.91326	76.6858
  73	1	1	0.40258	-9.3095	5.0453	74.6225
  74	1	1	0.235245	-9.28108	5.40378	77.4175
  75	1	1	-0.64044	-8.22382	4.5395	75.3626
  76	1	1	0.243455	-8.19327	4.74513	76.7456
  77	1	5	0.683739	-11.4511	6.60676	77.3147
  78	1	4	-0.371861	-9.29541	4.90465	73.2335
  79	1	5	0.675894	-7.17452	3.87094	74.6634
  80	1	6	-0.526708	-6.37036	3.34863	74.0096
  81	1	6	-0.532274	-12.2711	7.15569	77.8879
  82	1	2	0.077971	-12.9235	6.42005	68.6447
  83	1	1	-0.133879	-10.4327	6.03739	68.0981
  84	1	2	0.291414	-11.815	4.0686	68.4422
  85	1	7	0.054943	-13.5939	5.986	67.8942
  86	1	7	-0.083103	-12.6459	7.41188	68.2834
  87	1	2	-0.229696	-14.1642	8.06315	70.155
  88	1	2	-0.134961	-14.7741	5.59114	70.1672
  89	1	7	0.062626	-14.8935	8.28642	69.3828
  90	1	7	0.065775	-13.3665	8.79444	70.0337
  91	1	7	0.079929	-14.6496	8.22347	71.1233
  92	1	7	0.050506	-14.4436	4.57058	69.9444
  93	1	7	0.024431	-15.5762	5.82282	69.4489
  94	1	7	0.052051	-15.2119	5.61742	71.1672
  95	1	2	-0.079385	-10.9203	3.84902	67.164
  96	1	7	-0.096983	-12.8532	3.79137	68.2453
  97	1	7	0.069866	-11.487	3.38498	69.2469
  98	1	2	-0.079851	-11.777	3.76981	65.8731
  99	1	2	-0.424117	-10.0713	2.56612	67.2953
 100	1	1	-0.32128	-10.0389	5.07104	67.1617
 101	1	7	0.133743	-9.4046	2.48605	66.435
 102	1	7	0.116477	-10.664	1.64201	67.3602
 103	1	7	0.082726	-9.43207	2.6201	68.1984
 104	1	7	0.078262	-11.1239	3.60164	65.0071
 105	1	7	-0.001602	-12.3115	4.72195	65.7219
 106	1	7	0.028854	-12.4993	2.93684	65.8912
 107	1	3	0.315808	-8.65538	4.62187	65.5513
 108	1	3	0.28245	-10.1409	7.99855	68.9401
 109	1	8	-0.039852	-8.07878	8.76363	67.3909
 110	1	8	-0.059152	-7.28193	6.86854	65.5318
 111	1	1	0.135239	1.79864	11.5213	60.1473
 112	1	1	-0.124676	2.42562	11.2044	61.3591
 113	1	1	0.190416	0.574061	12.1969	62.5993
 114	1	1	-0.226961	1.80567	11.529	62.5905
 115	1	1	-0.017982	-2.81652	13.7829	63.0128
 116	1	1	-0.195812	-3.73478	13.5426	64.0386
 117	1	1	-0.244042	-2.38671	12.7672	62.1771
 118	1	1	0.131216	-4.2538	12.2379	64.1744
 119	1	1	-0.480889	-2.88311	11.4642	62.3057
 120	1	1	0.420559	-3.83492	11.2061	63.29
 121	1	2	0.094496	-2.08993	15.0916	62.7506
 122	1	3	0.181616	-4.03815	14.3175	64.7277
 123	1	2	0.106535	-1.34114	13.2634	61.1797
 124	1	4	-0.32219	-5.12291	11.9629	65.2118
 125	1	3	0.25841	-2.56186	10.6537	61.6515
 126	1	1	0.380364	-5.64944	10.6842	65.3268
 127	1	1	-0.639904	-6.6029	10.3984	66.3128
 128	1	1	0.40258	-5.24852	9.67309	64.4137
 129	1	1	0.235245	-7.13783	9.08188	66.4176
 130	1	1	-0.64044	-5.7535	8.37514	64.4893
 131	1	1	0.243455	-6.71211	8.09225	65.4864
 132	1	5	0.683739	-7.00653	11.4403	67.2339
 133	1	4	-0.371861	-4.35025	9.95442	63.4156
 134	1	5	0.675894	-5.31846	7.40196	63.5452
 135	1	6	-0.526708	-4.91813	6.67934	62.7335
 136	1	6	-0.532274	-7.38522	12.2245	67.9942
 137	1	2	0.077971	-1.25636	14.8076	61.4721
 138	1	1	-0.133879	-0.00101057	12.5742	61.3736
 139	1	2	0.291414	-1.67093	12.9675	59.674
 140	1	7	0.054943	-1.71524	15.3706	60.6467
 141	1	7	-0.083103	-0.215758	15.1444	61.5682
 142	1	2	-0.229696	-1.18589	15.4809	63.918
 143	1	2	-0.134961	-3.08213	16.2389	62.476
 144	1	7	0.062626	-1.78261	15.7249	64.8024
 145	1	7	0.065775	-0.565679	16.3586	63.6899
 146	1	7	0.079929	-0.529489	14.6319	64.1878
 147	1	7	0.050506	-2.58554	17.1646	62.1626
 148	1	7	0.024431	-3.66594	16.4818	63.374
 149	1	7	0.052051	-3.80735	15.9547	61.6996
 150	1	2	-0.079385	-0.288176	12.5773	58.9892
 151	1	7	-0.096983	-2.18402	13.8027	59.1632
 152	1	7	0.069866	-2.34967	12.1156	59.5976
 153	1	2	-0.079851	0.299004	13.7848	58.2173
 154	1	2	-0.424117	-0.456579	11.4109	57.9961
 155	1	1	-0.32128	0.570221	12.1895	60.1618
 156	1	7	0.133743	0.503511	11.1502	57.5328
 157	1	7	0.116477	-1.13595	11.6834	57.1741
 158	1	7	0.082726	-0.842245	10.5183	58.503
 159	1	7	0.078262	0.530545	14.6346	58.8598
 160	1	7	-0.001602	-0.413056	14.1351	57.4572
 161	1	7	0.028854	1.23544	13.5229	57.7064
 162	1	3	0.315808	2.26702	11.2961	59.1859
 163	1	3	0.28245	0.0605119	12.3994	63.533
 164	1	8	-0.039852	2.38298	11.104	63.7572
 165	1	8	-0.059152	3.61196	10.5218	61.366
 166	1	1	0.135239	12.6137	5.75583	62.9008
 167	1	1	-0.124676	11.6396	4.89855	62.375
 168	1	1	0.190416	10.4374	4.88345	64.5269
 169	1	1	-0.226961	10.5262	4.51021	63.1708
 170	1	1	-0.017982	9.17403	7.40556	67.2088
 171	1	1	-0.195812	7.90081	7.98636	67.3137
 172	1	1	-0.244042	9.89306	7.42042	66.0385
 173	1	1	0.131216	7.29977	8.48549	66.1417
 174	1	1	-0.480889	9.29915	7.89176	64.8328
 175	1	1	0.420559	8.00876	8.44423	64.9219
 176	1	2	0.094496	9.91539	6.73425	68.3303
 177	1	3	0.181616	7.36963	8.01993	68.2672
 178	1	2	0.106535	11.2281	6.69758	66.2109
 179	1	4	-0.32219	6.04089	9.03575	66.1792
 180	1	3	0.25841	9.80888	7.84127	63.8746
 181	1	1	0.380364	5.45576	9.48176	64.9981
 182	1	1	-0.639904	4.17133	10.0417	65.0069
 183	1	1	0.40258	6.1558	9.33805	63.7624
 184	1	1	0.235245	3.59895	10.4594	63.7951
 185	1	1	-0.64044	5.57087	9.69369	62.5411
 186	1	1	0.243455	4.23724	10.1817	62.5485
 187	1	5	0.683739	3.52783	10.2657	66.2721
 188	1	4	-0.371861	7.41283	8.8163	63.7769
 189	1	5	0.675894	6.32082	9.48912	61.3305
 190	1	6	-0.526708	6.85346	9.35141	60.3161
 191	1	6	-0.532274	3.06164	10.4216	67.339
 192	1	2	0.077971	11.0286	5.95965	67.5791
 193	1	1	-0.133879	11.4157	5.8038	64.9942
 194	1	2	0.291414	12.4467	7.65513	66.1343
 195	1	7	0.054943	11.9178	5.89271	68.191
 196	1	7	-0.083103	10.6647	4.95097	67.3746
 197	1	2	-0.229696	9.02832	5.78494	69.1692
 198	1	2	-0.134961	10.4741	7.83147	69.258
 199	1	7	0.062626	8.2217	6.28656	69.7314
 200	1	7	0.065775	9.65029	5.20935	69.8733
 201	1	7	0.079929	8.56626	5.04569	68.5158
 202	1	7	0.050506	11.0553	8.55781	68.6864
 203	1	7	0.024431	11.1466	7.42354	70.0227
 204	1	7	0.052051	9.66757	8.37661	69.7662
 205	1	2	-0.079385	13.3126	7.27542	64.8899
 206	1	7	-0.096983	13.0592	7.5454	67.0532
 207	1	7	0.069866	12.0634	8.68238	66.1298
 208	1	2	-0.079851	14.6859	6.68404	65.2672
 209	1	2	-0.424117	13.5202	8.51486	63.9909
 210	1	1	-0.32128	12.5097	6.20706	64.2032
 211	1	7	0.133743	14.0776	9.29264	64.504
 212	1	7	0.116477	12.5572	8.94011	63.674
 213	1	7	0.082726	14.1001	8.29441	63.0883
 214	1	7	0.078262	15.3469	7.43904	65.7359
 215	1	7	-0.001602	15.2208	6.3375	64.3536
 216	1	7	0.028854	14.5799	5.86052	65.9774
 217	1	3	0.315808	13.376	6.16747	62.2564
 218	1	3	0.28245	9.53427	4.61034	65.0852
 219	1	8	-0.039852	9.47775	3.83786	62.5991
 220	1	8	-0.059152	11.621	4.62897	61.0237
 221	1	1	0.135239	5.68738	7.78253	51.5644
 222	1	1	-0.124676	5.3519	8.7285	52.5899
 223	1	1	0.190416	5.19434	6.92807	54.1967
 224	1	1	-0.226961	5.15809	8.30632	53.9079
 225	1	1	-0.017982	5.03351	3.51907	55.4828
 226	1	1	-0.195812	5.30101	3.16163	56.8223
 227	1	1	-0.244042	6.02547	4.09714	54.6842
 228	1	1	0.131216	6.57188	3.44897	57.3451
 229	1	1	-0.480889	7.32191	4.36366	55.2114
 230	1	1	0.420559	7.56706	4.02972	56.5691
 231	1	2	0.094496	3.70767	3.4365	54.7583
 232	1	3	0.181616	4.53694	2.67355	57.4095
 233	1	2	0.106535	5.4886	4.54152	53.3318
 234	1	4	-0.32219	6.80063	3.19179	58.66
 235	1	3	0.25841	8.07795	4.9026	54.656
 236	1	1	0.380364	7.99481	3.51683	59.2406
 237	1	1	-0.639904	8.14023	3.41077	60.6306
 238	1	1	0.40258	9.05237	4.02981	58.4083
 239	1	1	0.235245	9.35497	3.81334	61.2197
 240	1	1	-0.64044	10.2552	4.42717	59.0128
 241	1	1	0.243455	10.4405	4.2115	60.4091
 242	1	5	0.683739	7.04803	2.93076	61.4556
 243	1	4	-0.371861	8.7998	4.29597	57.0825
 244	1	5	0.675894	11.3587	4.90777	58.1915
 245	1	6	-0.526708	12.263	5.27463	57.5937
 246	1	6	-0.532274	6.0907	2.49877	61.9231
 247	1	2	0.077971	4.05135	3.94495	53.332
 248	1	1	-0.133879	5.45472	6.02445	53.1794
 249	1	2	0.291414	6.30388	4.09834	52.0935
 250	1	7	0.054943	4.00565	3.0764	52.6678
 251	1	7	-0.083103	3.31859	4.67358	52.9183
 252	1	2	-0.229696	2.65286	4.33544	55.4367
 253	1	2	-0.134961	3.19838	1.95417	54.7551
 254	1	7	0.062626	2.56886	4.07898	56.4809
 255	1	7	0.065775	1.67258	4.19537	54.9849
 256	1	7	0.079929	2.90742	5.38132	55.3397
 257	1	7	0.050506	3.02874	1.55718	55.7749
 258	1	7	0.024431	3.85732	1.24309	54.214
 259	1	7	0.052051	2.23046	1.92358	54.2523
 260	1	2	-0.079385	6.15987	5.27613	51.044
 261	1	7	-0.096983	6.00751	3.08759	51.7753
 262	1	7	0.069866	7.34142	4.06242	52.3776
 263	1	2	-0.079851	5.03759	5.0021	50.0181
 264	1	2	-0.424117	7.44982	5.46906	50.2558
 265	1	1	-0.32128	5.80183	6.44862	51.9321
 266	1	7	0.133743	8.22433	5.81022	50.94
 267	1	7	0.116477	7.3863	6.18376	49.4179
 268	1	7	0.082726	7.7639	4.4801	49.8969
 269	1	7	0.078262	5.35005	4.20282	49.3337
 270	1	7	-0.001602	4.80779	5.88488	49.4053
 271	1	7	0.028854	4.1054	4.69986	50.4933
 272	1	3	0.315808	5.82895	8.09292	50.5456
 273	1	3	0.28245	5.07362	6.58449	55.2237
 274	1	8	-0.039852	4.90512	9.20162	54.9004
 275	1	8	-0.059152	5.18725	10.0403	52.2612
 276	1	1	0.135239	2.01623	21.0849	51.9966
 277	1	1	-0.124676	3.37591	21.4096	51.8522
 278	1	1	0.190416	3.91341	20.0469	53.7964
 279	1	1	-0.226961	4.32534	20.8885	52.7523
 280	1	1	-0.017982	2.71283	17.2105	56.5626
 281	1	1	-0.195812	3.11951	15.9258	56.9351
 282	1	1	-0.244042	2.5955	17.5133	55.1844
 283	1	1	0.131216	3.52801	15.0417	55.9321
 284	1	1	-0.480889	2.97637	16.6368	54.1809
 285	1	1	0.420559	3.49844	15.3933	54.5549
 286	1	2	0.094496	2.15106	18.3217	57.4471
 287	1	3	0.181616	3.12103	15.5788	57.9665
 288	1	2	0.106535	1.94163	18.8595	54.9745
 289	1	4	-0.32219	3.90528	13.752	56.2852
 290	1	3	0.25841	2.84577	16.9285	53.1477
 291	1	1	0.380364	4.21253	12.8406	55.282
 292	1	1	-0.639904	4.41624	11.5	55.6235
 293	1	1	0.40258	4.19319	13.2326	53.9247
 294	1	1	0.235245	4.76127	10.5439	54.5995
 295	1	1	-0.64044	4.53739	12.3149	52.9013
 296	1	1	0.243455	4.7689	10.9722	53.2423
 297	1	5	0.683739	4.31158	11.0398	56.9965
 298	1	4	-0.371861	3.88248	14.5176	53.5809
 299	1	5	0.675894	4.63837	12.7877	51.5568
 300	1	6	-0.526708	4.69433	12.9509	50.4225
 301	1	6	-0.532274	4.3381	10.4996	57.9969
 302	1	2	0.077971	1.93712	19.4971	56.4219
 303	1	1	-0.133879	2.55771	19.7699	53.9322
 304	1	2	0.291414	0.439901	18.7066	54.4626
 305	1	7	0.054943	1.06868	20.1214	56.6167
 306	1	7	-0.083103	2.82605	20.1466	56.5214
 307	1	2	-0.229696	3.15991	18.624	58.5738
 308	1	2	-0.134961	0.78353	17.8986	58.0588
 309	1	7	0.062626	2.87878	19.5403	59.1248
 310	1	7	0.065775	4.17165	18.7606	58.1365
 311	1	7	0.079929	3.18028	17.7822	59.297
 312	1	7	0.050506	0.141418	17.4813	57.2651
 313	1	7	0.024431	0.245515	18.7468	58.5004
 314	1	7	0.052051	0.910755	17.1218	58.8299
 315	1	2	-0.079385	0.197308	19.8273	53.4114
 316	1	7	-0.096983	-0.319878	18.6877	55.2666
 317	1	7	0.069866	0.359851	17.7526	53.9351
 318	1	2	-0.079851	-0.60324	20.9779	54.0541
 319	1	2	-0.424117	-0.569276	19.229	52.1934
 320	1	1	-0.32128	1.63603	20.2533	53.0565
 321	1	7	0.133743	-0.663062	19.9608	51.394
 322	1	7	0.116477	-1.57616	18.8806	52.4502
 323	1	7	0.082726	-0.0373131	18.3645	51.768
 324	1	7	0.078262	-1.60747	20.7035	54.4144
 325	1	7	-0.001602	-0.678256	21.8602	53.4018
 326	1	7	0.028854	-0.00509871	21.3422	54.9093
 327	1	3	0.315808	1.27619	21.4601	51.2968
 328	1	3	0.28245	4.63184	19.6427	54.5149
 329	1	8	-0.039852	5.64919	21.2624	52.6112
 330	1	8	-0.059152	3.78605	22.2409	50.8385
 331	1	1	0.135239	9.21664	26.9946	42.6626
 332	1	1	-0.124676	9.33113	25.6219	42.3351
 333	1	1	0.190416	10.4426	25.1674	44.4624
 334	1	1	-0.226961	9.96554	24.7232	43.2257
 335	1	1	-0.017982	11.0824	26.0485	48.1863
 336	1	1	-0.195812	10.7494	25.2309	49.2746
 337	1	1	-0.244042	10.1267	26.3587	47.1973
 338	1	1	0.131216	9.43947	24.6965	49.3422
 339	1	1	-0.480889	8.81594	25.8949	47.2777
 340	1	1	0.420559	8.48217	25.054	48.3333
 341	1	2	0.094496	12.4434	26.6626	47.8365
 342	1	3	0.181616	11.5093	24.9799	50.0133
 343	1	2	0.106535	10.7234	27.1628	46.078
 344	1	4	-0.32219	9.0856	23.8221	50.345
 345	1	3	0.25841	8.0815	26.1784	46.527
 346	1	1	0.380364	7.78728	23.3967	50.4569
 347	1	1	-0.639904	7.40967	22.5057	51.4836
 348	1	1	0.40258	6.79744	23.8589	49.5213
 349	1	1	0.235245	6.06957	22.09	51.574
 350	1	1	-0.64044	5.46945	23.4151	49.6041
 351	1	1	0.243455	5.09331	22.5907	50.6847
 352	1	5	0.683739	8.39611	22.0649	52.4272
 353	1	4	-0.371861	7.1934	24.6296	48.4388
 354	1	5	0.675894	4.48503	23.8658	48.645
 355	1	6	-0.526708	3.82747	24.2564	47.7908
 356	1	6	-0.532274	9.08013	21.6689	53.2645
 357	1	2	0.077971	12.2304	27.1266	46.3797
 358	1	1	-0.133879	10.3273	26.5422	44.765
 359	1	2	0.291414	10.1628	28.6229	45.9624
 360	1	7	0.054943	12.7062	28.0855	46.1889
 361	1	7	-0.083103	12.7128	26.4247	45.6885
 362	1	2	-0.229696	13.5981	25.6254	47.9647
 363	1	2	-0.134961	12.6694	27.8958	48.7447
 364	1	7	0.062626	13.3836	24.7507	47.3333
 365	1	7	0.065775	13.7424	25.3051	49.0121
 366	1	7	0.079929	14.5421	26.0634	47.6277
 367	1	7	0.050506	11.8692	28.627	48.573
 368	1	7	0.024431	13.6288	28.3733	48.5167
 369	1	7	0.052051	12.646	27.6088	49.8067
 370	1	2	-0.079385	9.64934	28.827	44.4772
 371	1	7	-0.096983	10.8911	29.397	46.27
 372	1	7	0.069866	9.3014	28.7209	46.652
 373	1	2	-0.079851	10.5895	29.7991	43.6933
 374	1	2	-0.424117	8.18927	29.3738	44.4251
 375	1	1	-0.32128	9.73824	27.4424	43.8885
 376	1	7	0.133743	7.89001	29.6026	43.3947
 377	1	7	0.116477	8.12851	30.313	44.9884
 378	1	7	0.082726	7.46848	28.6683	44.8558
 379	1	7	0.078262	10.5751	30.7886	44.1565
 380	1	7	-0.001602	10.2321	29.914	42.6633
 381	1	7	0.028854	11.6311	29.4439	43.6504
 382	1	3	0.315808	8.72631	27.6621	41.9724
 383	1	3	0.28245	10.8543	24.4715	45.1842
 384	1	8	-0.039852	10.0466	23.3929	42.8836
 385	1	8	-0.059152	8.76116	25.1534	41.1889
 386	1	1	0.135239	2.65513	17.9449	33.9258
 387	1	1	-0.124676	1.66828	18.0538	34.9443
 388	1	1	0.190416	3.35673	17.8379	36.6859
 389	1	1	-0.226961	2.006	17.9744	36.3192
 390	1	1	-0.017982	7.25348	17.3061	37.7587
 391	1	1	-0.195812	8.01539	17.8176	38.8377
 392	1	1	-0.244042	6.50656	18.1296	36.9268
 393	1	1	0.131216	8.05224	19.2036	39.0298
 394	1	1	-0.480889	6.53645	19.532	37.1132
 395	1	1	0.420559	7.3174	20.0661	38.1689
 396	1	2	0.094496	7.1287	15.8541	37.3631
 397	1	3	0.181616	8.57012	17.1529	39.5011
 398	1	2	0.106535	5.76483	17.3454	35.8375
 399	1	4	-0.32219	8.81947	19.6929	40.0665
 400	1	3	0.25841	5.9573	20.1917	36.4772
 401	1	1	0.380364	8.78773	21.0506	40.3163
 402	1	1	-0.639904	9.45798	21.508	41.4607
 403	1	1	0.40258	8.04037	21.9257	39.4853
 404	1	1	0.235245	9.43365	22.8973	41.7543
 405	1	1	-0.64044	8.04111	23.3148	39.7479
 406	1	1	0.243455	8.74345	23.8033	40.8875
 407	1	5	0.683739	10.2009	20.608	42.2912
 408	1	4	-0.371861	7.34806	21.4264	38.4138
 409	1	5	0.675894	7.27764	24.163	38.8928
 410	1	6	-0.526708	6.68256	24.9122	38.2425
 411	1	6	-0.532274	10.7914	19.8387	42.9143
 412	1	2	0.077971	5.97492	15.8843	36.2988
 413	1	1	-0.133879	4.30859	17.7017	35.6588
 414	1	2	0.291414	6.33531	17.5907	34.4285
 415	1	7	0.054943	6.20118	15.2295	35.4534
 416	1	7	-0.083103	5.04057	15.517	36.7396
 417	1	2	-0.229696	6.78009	14.9488	38.5969
 418	1	2	-0.134961	8.4469	15.3301	36.6982
 419	1	7	0.062626	6.54624	13.9226	38.2869
 420	1	7	0.065775	5.92352	15.3334	39.1708
 421	1	7	0.079929	7.6363	14.904	39.2805
 422	1	7	0.050506	8.67077	15.9008	35.7822
 423	1	7	0.024431	8.34859	14.2664	36.4239
 424	1	7	0.052051	9.30293	15.4339	37.3802
 425	1	2	-0.079385	5.15489	17.489	33.4175
 426	1	7	-0.096983	7.1476	16.9097	34.1691
 427	1	7	0.069866	6.76066	18.5924	34.4116
 428	1	2	-0.079851	5.01738	16.0584	32.8196
 429	1	2	-0.424117	5.29348	18.523	32.2879
 430	1	1	-0.32128	3.99049	17.7757	34.3099
 431	1	7	0.133743	6.18134	18.2867	31.6889
 432	1	7	0.116477	5.39555	19.55	32.6621
 433	1	7	0.082726	4.42925	18.5054	31.6108
 434	1	7	0.078262	4.90161	15.2761	33.5808
 435	1	7	-0.001602	5.92783	15.825	32.242
 436	1	7	0.028854	4.15141	15.9746	32.1345
 437	1	3	0.315808	2.38559	17.9312	32.8762
 438	1	3	0.28245	3.67805	17.7807	37.7267
 439	1	8	-0.039852	1.01464	18.0181	37.2659
 440	1	8	-0.059152	0.346771	18.154	34.576
 441	1	1	0.135239	-10.7313	16.7169	33.4971
 442	1	1	-0.124676	-10.6387	18.0915	33.223
 443	1	1	0.190416	-9.4457	18.4411	35.312
 444	1	1	-0.226961	-9.99805	18.9651	34.1346
 445	1	1	-0.017982	-7.33816	16.8808	38.4095
 446	1	1	-0.195812	-6.0359	17.1299	38.8818
 447	1	1	-0.244042	-7.56751	16.7536	37.032
 448	1	1	0.131216	-5.01616	17.3149	37.9226
 449	1	1	-0.480889	-6.5528	16.9683	36.0711
 450	1	1	0.420559	-5.28098	17.2388	36.5329
 451	1	2	0.094496	-8.60616	16.6431	39.2215
 452	1	3	0.181616	-5.82203	17.1987	39.9362
 453	1	2	0.106535	-8.99848	16.3348	36.766
 454	1	4	-0.32219	-3.71497	17.5775	38.3405
 455	1	3	0.25841	-6.6924	16.9031	34.9955
 456	1	1	0.380364	-2.6871	17.7113	37.4323
 457	1	1	-0.639904	-1.34416	17.8155	37.8444
 458	1	1	0.40258	-3.00327	17.7042	36.0361
 459	1	1	0.235245	-0.32265	17.9641	36.8771
 460	1	1	-0.64044	-2.01189	17.9054	35.0665
 461	1	1	0.243455	-0.658402	18.0131	35.4846
 462	1	5	0.683739	-1.02833	17.7933	39.2511
 463	1	4	-0.371861	-4.3081	17.4656	35.6142
 464	1	5	0.675894	-2.3154	17.9918	33.6701
 465	1	6	-0.526708	-2.43391	18.0654	32.5304
 466	1	6	-0.532274	-0.719433	17.7833	40.3633
 467	1	2	0.077971	-9.7168	16.6181	38.1236
 468	1	1	-0.133879	-9.58206	17.0724	35.5858
 469	1	2	0.291414	-9.15241	14.8218	36.3269
 470	1	7	0.054943	-10.5099	15.8927	38.3508
 471	1	7	-0.083103	-10.2312	17.5872	38.0821
 472	1	2	-0.229696	-8.80401	17.7735	40.2518
 473	1	2	-0.134961	-8.52072	15.2772	39.9398
 474	1	7	0.062626	-9.74633	17.6584	40.7993
 475	1	7	0.065775	-8.79415	18.7504	39.7526
 476	1	7	0.079929	-7.99241	17.7628	40.991
 477	1	7	0.050506	-8.3186	14.4755	39.2245
 478	1	7	0.024431	-9.44245	15.0456	40.4823
 479	1	7	0.052051	-7.69674	15.2738	40.6638
 480	1	2	-0.079385	-10.1962	14.7808	35.1513
 481	1	7	-0.096983	-9.40909	14.1069	37.1262
 482	1	7	0.069866	-8.20599	14.487	35.8886
 483	1	2	-0.079851	-11.5949	14.3532	35.6555
 484	1	2	-0.424117	-9.75319	13.8357	34.0026
 485	1	1	-0.32128	-10.2346	16.227	34.7096
 486	1	7	0.133743	-9.66598	12.8041	34.3748
 487	1	7	0.116477	-8.78483	14.1229	33.5725
 488	1	7	0.082726	-10.4945	13.8222	33.2013
 489	1	7	0.078262	-11.967	15.0136	36.4598
 490	1	7	-0.001602	-11.591	13.3331	36.0516
 491	1	7	0.028854	-12.3247	14.3922	34.8359
 492	1	3	0.315808	-11.1606	16.0217	32.7875
 493	1	3	0.28245	-8.9317	19.0736	36.0241
 494	1	8	-0.039852	-9.94345	20.2932	33.8724
 495	1	8	-0.059152	-11.0647	18.5728	32.026
 496	1	1	0.135239	-10.2505	23.932	21.88
 497	1	1	-0.124676	-8.95698	23.3305	21.9025
 498	1	1	0.190416	-8.56982	24.197	24.172
 499	1	1	-0.226961	-8.11203	23.4779	23.0441
 500	1	1	-0.017982	-9.89723	25.9317	27.5478
 501	1	1	-0.195812	-9.75118	25.5493	28.8919
 502	1	1	-0.244042	-10.3375	25.0148	26.6103
 503	1	1	0.131216	-10.0668	24.2095	29.2728
 504	1	1	-0.480889	-10.6653	23.7004	26.9847
 505	1	1	0.420559	-10.5135	23.2812	28.3083
 506	1	2	0.094496	-9.65218	27.2923	26.9291
 507	1	3	0.181616	-9.3865	26.2513	29.6325
 508	1	2	0.106535	-10.5016	25.6333	25.2356
 509	1	4	-0.32219	-9.90702	23.7928	30.5881
 510	1	3	0.25841	-11.0662	22.9921	26.2389
 511	1	1	0.380364	-10.1917	22.4886	30.9537
 512	1	1	-0.639904	-9.92511	22.048	32.2687
 513	1	1	0.40258	-10.693	21.5787	29.9706
 514	1	1	0.235245	-10.1974	20.7304	32.5914
 515	1	1	-0.64044	-10.9801	20.2572	30.3086
 516	1	1	0.243455	-10.7549	19.8487	31.6273
 517	1	5	0.683739	-9.40328	23.0043	33.2061
 518	1	4	-0.371861	-10.876	21.9908	28.677
 519	1	5	0.675894	-11.5657	19.3695	29.3609
 520	1	6	-0.526708	-12.0158	18.7492	28.5117
 521	1	6	-0.532274	-9.01124	23.6423	34.0825
 522	1	2	0.077971	-9.82931	27.024	25.4032
 523	1	1	-0.133879	-9.86133	24.7815	24.1531
 524	1	2	0.291414	-11.9973	25.697	24.7682
 525	1	7	0.054943	-10.3735	27.8234	24.8824
 526	1	7	-0.083103	-8.82773	27.0255	24.9652
 527	1	2	-0.229696	-8.24114	27.8401	27.2366
 528	1	2	-0.134961	-10.7145	28.2831	27.4412
 529	1	7	0.062626	-7.44101	27.1683	26.8838
 530	1	7	0.065775	-8.09668	27.9733	28.317
 531	1	7	0.079929	-8.09115	28.8195	26.7595
 532	1	7	0.050506	-10.6056	29.2528	26.9294
 533	1	7	0.024431	-10.6052	28.4604	28.518
 534	1	7	0.052051	-11.7252	27.9097	27.2343
 535	1	2	-0.079385	-12.0208	25.3227	23.237
 536	1	7	-0.096983	-12.4899	26.6524	24.9965
 537	1	7	0.069866	-12.5593	24.937	25.3302
 538	1	2	-0.079851	-12.0942	26.5947	22.3731
 539	1	2	-0.424117	-13.1601	24.359	22.871
 540	1	1	-0.32128	-10.6867	24.6402	23.0309
 541	1	7	0.133743	-14.1423	24.7975	23.124
 542	1	7	0.116477	-13.0873	23.4052	23.4177
 543	1	7	0.082726	-13.1656	24.1334	21.7894
 544	1	7	0.078262	-13.0426	27.1069	22.5686
 545	1	7	-0.001602	-12.0505	26.3528	21.3037
 546	1	7	0.028854	-11.2692	27.2808	22.6089
 547	1	3	0.315808	-10.8949	23.829	21.0121
 548	1	3	0.28245	-7.96636	24.2973	25.0633
 549	1	8	-0.039852	-6.87495	22.8706	23.0551
 550	1	8	-0.059152	-8.4876	22.6279	20.8072
 551	1	1	0.135239	-2.67864	14.6812	14.203
 552	1	1	-0.124676	-3.44536	13.7982	14.9908
 553	1	1	0.190416	-3.04816	15.0497	17.0169
 554	1	1	-0.226961	-3.62719	13.9591	16.3724
 555	1	1	-0.017982	-1.28081	18.1958	18.8817
 556	1	1	-0.195812	-1.66298	19.0257	19.9248
 557	1	1	-0.244042	-2.08854	17.9939	17.7584
 558	1	1	0.131216	-2.92556	19.6199	19.8672
 559	1	1	-0.480889	-3.37778	18.5625	17.6878
 560	1	1	0.420559	-3.75302	19.3896	18.7491
 561	1	2	0.094496	0.0917601	17.5192	18.7095
 562	1	3	0.181616	-1.00653	19.2451	20.7725
 563	1	2	0.106535	-1.40891	17.1085	16.7209
 564	1	4	-0.32219	-3.3724	20.4012	20.9108
 565	1	3	0.25841	-4.06404	18.4133	16.8557
 566	1	1	0.380364	-4.63484	20.9563	20.8727
 567	1	1	-0.639904	-5.06901	21.717	21.9769
 568	1	1	0.40258	-5.48123	20.7177	19.7394
 569	1	1	0.235245	-6.38921	22.2112	21.9626
 570	1	1	-0.64044	-6.77207	21.2791	19.6949
 571	1	1	0.243455	-7.22763	22.0436	20.811
 572	1	5	0.683739	-4.25005	21.8926	23.1156
 573	1	4	-0.371861	-5.00828	19.923	18.6979
 574	1	5	0.675894	-7.61959	21.0539	18.5828
 575	1	6	-0.526708	-8.45207	20.9464	17.7894
 576	1	6	-0.532274	-3.47464	21.9815	23.972
 577	1	2	0.077971	-0.151637	16.6098	17.4616
 578	1	1	-0.133879	-2.26894	15.9485	16.1974
 579	1	2	0.291414	-1.0655	17.8438	15.3856
 580	1	7	0.054943	0.706629	16.4834	16.7785
 581	1	7	-0.083103	-0.367473	15.6026	17.8526
 582	1	2	-0.229696	0.497185	16.6558	19.9655
 583	1	2	-0.134961	1.15301	18.5969	18.3717
 584	1	7	0.062626	0.631086	17.2868	20.8703
 585	1	7	0.065775	1.44943	16.1246	19.7942
 586	1	7	0.079929	-0.262017	15.8724	20.1711
 587	1	7	0.050506	2.14605	18.1833	18.1196
 588	1	7	0.024431	1.26425	19.3086	19.1942
 589	1	7	0.052051	0.826863	19.1661	17.4949
 590	1	2	-0.079385	-1.20635	16.8221	14.2322
 591	1	7	-0.096983	-0.0349211	18.2519	15.3742
 592	1	7	0.069866	-1.70039	18.7221	15.2393
 593	1	2	-0.079851	0.152773	16.2565	13.8296
 594	1	2	-0.424117	-1.94358	17.3863	13.0252
 595	1	1	-0.32128	-2.06935	15.7556	14.8293
 596	1	7	0.133743	-2.96152	17.7518	13.2706
 597	1	7	0.116477	-2.02477	16.629	12.2294
 598	1	7	0.082726	-1.37317	18.2345	12.6515
 599	1	7	0.078262	0.0305697	15.4796	13.0638
 600	1	7	-0.001602	0.724548	15.8079	14.6668
 601	1	7	0.028854	0.767881	17.064	13.4055
 602	1	3	0.315808	-2.58845	14.4983	13.1321
 603	1	3	0.28245	-3.20505	15.2108	18.0834
 604	1	8	-0.039852	-4.39303	13.1109	17.0919
 605	1	8	-0.059152	-3.95757	12.6686	14.3647
 606	1	1	0.135239	-7.93393	2.31434	11.8429
 607	1	1	-0.124676	-8.82587	3.10481	11.0726
 608	1	1	0.190416	-9.37022	4.46387	13.0581
 609	1	1	-0.226961	-9.55822	4.17823	11.6657
 610	1	1	-0.017982	-8.25172	5.55531	16.9088
 611	1	1	-0.195812	-7.92179	6.75524	17.5192
 612	1	1	-0.244042	-7.80487	5.27774	15.6413
 613	1	1	0.131216	-7.25249	7.74717	16.7526
 614	1	1	-0.480889	-7.14987	6.2317	14.8575
 615	1	1	0.420559	-6.88259	7.4881	15.414
 616	1	2	0.094496	-8.97032	4.36502	17.5312
 617	1	3	0.181616	-8.22536	6.92682	18.5481
 618	1	2	0.106535	-8.05906	3.84607	15.2886
 619	1	4	-0.32219	-6.91794	8.95733	17.3103
 620	1	3	0.25841	-6.83799	5.98411	13.839
 621	1	1	0.380364	-6.15261	9.88018	16.6187
 622	1	1	-0.639904	-5.68189	11.0596	17.2402
 623	1	1	0.40258	-5.84702	9.5892	15.2066
 624	1	1	0.235245	-4.95865	11.9643	16.4888
 625	1	1	-0.64044	-5.19551	10.548	14.4478
 626	1	1	0.243455	-4.7196	11.713	15.08
 627	1	5	0.683739	-5.87436	11.2926	18.639
 628	1	4	-0.371861	-6.26932	8.45827	14.6536
 629	1	5	0.675894	-4.859	10.3648	13.0166
 630	1	6	-0.526708	-4.54673	10.3295	11.9438
 631	1	6	-0.532274	-6.03593	11.6448	19.6995
 632	1	2	0.077971	-9.12734	3.40105	16.3095
 633	1	1	-0.133879	-8.48439	3.63625	13.8312
 634	1	2	0.291414	-6.76046	2.97644	15.2992
 635	1	7	0.054943	-8.95549	2.35151	16.5888
 636	1	7	-0.083103	-10.1354	3.48557	15.8657
 637	1	2	-0.229696	-10.3526	4.75936	18.1047
 638	1	2	-0.134961	-8.17042	3.69473	18.6626
 639	1	7	0.062626	-10.9485	3.88113	18.3796
 640	1	7	0.065775	-10.939	5.31048	17.3435
 641	1	7	0.079929	-10.2649	5.40211	19.0028
 642	1	7	0.050506	-7.17742	3.44599	18.2737
 643	1	7	0.024431	-8.65976	2.77268	19.0015
 644	1	7	0.052051	-7.99919	4.34012	19.5253
 645	1	2	-0.079385	-6.77256	1.96906	14.1269
 646	1	7	-0.096983	-6.70452	2.45827	16.2797
 647	1	7	0.069866	-5.83897	3.55593	15.1704
 648	1	2	-0.079851	-7.23584	0.590481	14.5153
 649	1	2	-0.424117	-5.35688	1.89804	13.4663
 650	1	1	-0.32128	-7.76587	2.62105	13.221
 651	1	7	0.133743	-4.63585	1.66381	14.2619
 652	1	7	0.116477	-5.00682	2.8026	12.9434
 653	1	7	0.082726	-5.28815	1.06731	12.7516
 654	1	7	0.078262	-6.44884	0.20855	15.1597
 655	1	7	-0.001602	-7.31203	-0.0944462	13.6554
 656	1	7	0.028854	-8.17569	0.616758	15.0912
 657	1	3	0.315808	-7.3482	1.51587	11.3783
 658	1	3	0.28245	-9.87878	5.30481	13.5251
 659	1	8	-0.039852	-10.4418	4.9137	10.9365
 660	1	8	-0.059152	-9.04223	2.80899	9.7444
 661	1	1	0.135239	-9.13116	5.10743	-1.43573