pySIMM System Object

2479 atoms
2792 bonds
5130 angles
8456 dihedrals
360 impropers

9 atom types
10 bond types
15 angle types
8 dihedral types
2 improper types

-162.645652 162.645652 xlo xhi
-162.645652 162.645652 ylo yhi
-162.645652 162.645652 zlo zhi

Masses

   1	12.01	# ca
   2	12.01	# c3
   3	1.008	# ha
   4	16.0	# os
   5	12.01	# cg
   6	14.01	# n1
   7	1.008	# hc
   8	16.0	# oh
   9	1.008	# ho

Pair Coeffs

   1	0.086	3.3996695084235347	# ca
   2	0.1094	3.3996695084235347	# c3
   3	0.015	2.59964245953351	# ha
   4	0.17	3.0000123434657784	# os
   5	0.21	3.3996695084235347	# cg
   6	0.17	3.249998523775958	# n1
   7	0.0157	2.649532787749369	# hc
   8	0.2104	3.0664733878390478	# oh
   9	0.0047	0.5379246460131368	# ho

Bond Coeffs

   1	371.4	0.973	# ho,oh
   2	461.1	1.3984	# ca,ca
   3	345.8	1.086	# ca,ha
   4	384.0	1.3637	# ca,oh
   5	300.9	1.5375	# c3,c3
   6	413.3	1.4328	# ca,cg
   7	943.1	1.1566	# cg,n1
   8	321.0	1.5156	# c3,ca
   9	330.6	1.0969	# c3,hc
  10	376.6	1.3696	# ca,os

Angle Coeffs

   1	69.58	119.2	# ca,ca,os
   2	63.56	112.24	# ca,c3,ca
   3	66.62	120.02	# ca,ca,ca
   4	58.92	179.49	# ca,cg,n1
   5	62.86	111.51	# c3,c3,c3
   6	49.0	108.58	# ca,oh,ho
   7	63.15	112.07	# c3,c3,ca
   8	46.34	109.8	# c3,c3,hc
   9	65.72	120.27	# ca,ca,cg
  10	69.52	119.9	# ca,ca,oh
  11	63.48	119.89	# ca,os,ca
  12	39.4	107.58	# hc,c3,hc
  13	63.53	120.77	# c3,ca,ca
  14	48.18	119.88	# ca,ca,ha
  15	63.5	119.89	# ca,oh,ca

Dihedral Coeffs

   1	1	0.0	2	0	# X,c3,ca,X
   2	1	0.9	2	180	# X,ca,os,X
   3	3	0.18	3	0	0.25	2	180	0.2	1	180	# c3,c3,c3,c3
   4	1	0.9	2	180	# X,ca,oh,X
   5	1	0.16	3	0	# hc,c3,c3,c3
   6	1	3.625	2	180	# X,ca,ca,X
   7	1	3.625	2	180	# X,cg,ca,ca
   8	1	0.15555555555555556	3	0	# X,c3,c3,X

Improper Coeffs

   1	1.1	-1	2	# ca,X,X,ha
   2	1.1	-1	2	# ca,ca,ca,c3

Atoms

   1	1	1	0.135239	5.41792	-51.573	-63.5677
   2	1	1	-0.124676	4.59376	-52.6973	-63.5775
   3	1	1	0.190416	5.47865	-53.3417	-65.7743
   4	1	1	-0.226961	4.60715	-53.5826	-64.703
   5	1	1	-0.017982	8.0544	-52.8163	-68.8235
   6	1	1	-0.195812	8.8351	-53.7493	-69.5463
   7	1	1	-0.244042	8.1282	-52.8411	-67.4227
   8	1	1	0.131216	9.57488	-54.7543	-68.855
   9	1	1	-0.480889	8.89152	-53.8229	-66.6981
  10	1	1	0.420559	9.59527	-54.762	-67.4335
  11	1	2	0.094496	7.17187	-51.7321	-69.3707
  12	1	3	0.181616	8.77617	-53.6854	-70.6051
  13	1	2	0.106535	7.2081	-51.7402	-66.8546
  14	1	4	-0.32219	10.3607	-55.6361	-69.5924
  15	1	3	0.25841	8.95786	-53.8653	-65.6164
  16	1	1	0.380364	11.1469	-56.5438	-68.9307
  17	1	1	-0.639904	11.9734	-57.4221	-69.6095
  18	1	1	0.40258	11.1571	-56.5125	-67.5198
  19	1	1	0.235245	12.7807	-58.3572	-68.9377
  20	1	1	-0.64044	11.9793	-57.4093	-66.8049
  21	1	1	0.243455	12.8636	-58.2941	-67.5133
  22	1	5	0.683739	11.9437	-57.4006	-71.0507
  23	1	4	-0.371861	10.327	-55.7026	-66.7682
  24	1	5	0.675894	11.9104	-57.3762	-65.3985
  25	1	6	-0.526708	11.8313	-57.2843	-64.2499
  26	1	6	-0.532274	11.8486	-57.3486	-72.2336
  27	1	2	0.077971	6.40667	-51.2382	-68.1001
  28	1	1	-0.133879	6.31917	-52.2158	-65.7244
  29	1	2	0.291414	8.00461	-50.5432	-66.1821
  30	1	7	0.054943	6.20171	-50.1635	-68.0804
  31	1	7	-0.083103	5.40591	-51.6752	-68.1324
  32	1	2	-0.229696	6.15111	-52.2255	-70.4482
  33	1	2	-0.134961	8.01105	-50.5745	-69.9187
  34	1	7	0.062626	5.44927	-51.4076	-70.6332
  35	1	7	0.065775	5.61074	-53.128	-70.1719
  36	1	7	0.079929	6.66698	-52.4597	-71.3972
  37	1	7	0.050506	8.69491	-50.1838	-69.1541
  38	1	7	0.024431	7.33266	-49.7634	-70.2639
  39	1	7	0.052051	8.57505	-50.8625	-70.8118
  40	1	2	-0.079385	7.23334	-50.1204	-64.8776
  41	1	7	-0.096983	8.13474	-49.6978	-66.9059
  42	1	7	0.069866	9.04476	-50.8461	-65.9665
  43	1	2	-0.079851	6.38927	-48.8747	-65.1165
  44	1	2	-0.424117	8.0806	-49.9334	-63.6231
  45	1	1	-0.32128	6.29144	-51.3209	-64.631
  46	1	7	0.133743	8.43474	-50.9372	-63.3299
  47	1	7	0.116477	7.46961	-49.5653	-62.8032
  48	1	7	0.082726	8.93886	-49.2485	-63.7946
  49	1	7	0.078262	7.05592	-48.0335	-65.2674
  50	1	7	-0.001602	5.7425	-48.6509	-64.2681
  51	1	7	0.028854	5.68991	-49.026	-65.9575
  52	1	3	0.315808	5.42507	-50.8763	-62.7313
  53	1	3	0.28245	5.49256	-54.025	-66.6145
  54	1	8	-0.039852	3.83473	-54.6838	-64.6962
  55	1	8	-0.059152	3.75661	-53.0146	-62.5344
  56	1	1	0.135239	-3.20717	-57.0298	-55.218
  57	1	1	-0.124676	-1.92414	-57.4405	-54.8384
  58	1	1	0.190416	-1.64714	-58.558	-56.9898
  59	1	1	-0.226961	-1.13489	-58.1502	-55.7364
  60	1	1	-0.017982	-2.54624	-58.8271	-60.8274
  61	1	1	-0.195812	-1.56683	-58.6582	-61.8573
  62	1	1	-0.244042	-2.60094	-57.9097	-59.809
  63	1	1	0.131216	-0.747599	-57.482	-61.8321
  64	1	1	-0.480889	-1.84253	-56.7146	-59.8067
  65	1	1	0.420559	-0.900815	-56.5163	-60.8196
  66	1	2	0.094496	-3.4821	-59.9972	-60.5917
  67	1	3	0.181616	-1.46371	-59.4305	-62.6345
  68	1	2	0.106535	-3.57876	-58.3497	-58.6923
  69	1	4	-0.32219	0.118518	-57.2375	-62.8769
  70	1	3	0.25841	-1.92854	-55.9901	-58.986
  71	1	1	0.380364	0.994759	-56.154	-62.798
  72	1	1	-0.639904	2.05812	-56.0508	-63.7311
  73	1	1	0.40258	0.923159	-55.2666	-61.6953
  74	1	1	0.235245	2.90775	-54.9026	-63.7047
  75	1	1	-0.64044	1.88644	-54.2134	-61.5883
  76	1	1	0.243455	2.94666	-54.1183	-62.5348
  77	1	5	0.683739	2.10982	-56.9662	-64.841
  78	1	4	-0.371861	-0.0846131	-55.4324	-60.7197
  79	1	5	0.675894	1.85732	-53.3265	-60.4544
  80	1	6	-0.526708	1.74031	-52.7105	-59.4909
  81	1	6	-0.532274	2.26855	-57.6569	-65.7785
  82	1	2	0.077971	-3.83722	-59.8355	-59.0599
  83	1	1	-0.133879	-2.92838	-58.1652	-57.3408
  84	1	2	0.291414	-4.82936	-57.4321	-58.6248
  85	1	7	0.054943	-4.86437	-60.1524	-58.8193
  86	1	7	-0.083103	-3.16649	-60.449	-58.4404
  87	1	2	-0.229696	-2.78877	-61.3762	-60.8261
  88	1	2	-0.134961	-4.68776	-59.9298	-61.4928
  89	1	7	0.062626	-2.62456	-61.547	-61.8929
  90	1	7	0.065775	-3.40674	-62.217	-60.4686
  91	1	7	0.079929	-1.81758	-61.4706	-60.3176
  92	1	7	0.050506	-5.21548	-58.9768	-61.3583
  93	1	7	0.024431	-5.37786	-60.7496	-61.2556
  94	1	7	0.052051	-4.42524	-60.0092	-62.551
  95	1	2	-0.079385	-5.05149	-57.0913	-57.1052
  96	1	7	-0.096983	-5.68873	-57.9132	-59.0975
  97	1	7	0.069866	-4.62183	-56.512	-59.2
  98	1	2	-0.079851	-6.12827	-57.9879	-56.4801
  99	1	2	-0.424117	-5.38745	-55.5636	-56.8841
 100	1	1	-0.32128	-3.70683	-57.4176	-56.487
 101	1	7	0.133743	-5.48434	-55.3023	-55.8249
 102	1	7	0.116477	-6.34483	-55.3121	-57.3553
 103	1	7	0.082726	-4.67444	-54.8656	-57.3378
 104	1	7	0.078262	-7.06672	-57.7435	-56.9958
 105	1	7	-0.001602	-6.25334	-57.773	-55.4092
 106	1	7	0.028854	-5.9354	-59.054	-56.6006
 107	1	3	0.315808	-3.79726	-56.3967	-54.5356
 108	1	3	0.28245	-1.03474	-59.077	-57.7087
 109	1	8	-0.039852	0.129647	-58.6035	-55.3677
 110	1	8	-0.059152	-1.38305	-57.0233	-53.6345
 111	1	1	0.135239	6.01158	-53.7578	-45.4602
 112	1	1	-0.124676	6.31139	-52.8111	-46.4644
 113	1	1	0.190416	6.51971	-54.6066	-48.1085
 114	1	1	-0.226961	6.56671	-53.2309	-47.7936
 115	1	1	-0.017982	6.00459	-58.3255	-49.3316
 116	1	1	-0.195812	5.45155	-58.8166	-50.5341
 117	1	1	-0.244042	5.32505	-57.3953	-48.5434
 118	1	1	0.131216	4.22704	-58.3136	-50.9578
 119	1	1	-0.480889	4.08521	-56.9288	-48.9084
 120	1	1	0.420559	3.53877	-57.3884	-50.1354
 121	1	2	0.094496	7.31779	-58.7516	-48.679
 122	1	3	0.181616	5.9787	-59.545	-51.1303
 123	1	2	0.106535	6.10651	-57.011	-47.3117
 124	1	4	-0.32219	3.69249	-58.7338	-52.15
 125	1	3	0.25841	3.53885	-56.2399	-48.2606
 126	1	1	0.380364	2.4419	-58.3001	-52.5331
 127	1	1	-0.639904	1.9291	-58.6528	-53.7976
 128	1	1	0.40258	1.72661	-57.4343	-51.6807
 129	1	1	0.235245	0.615204	-58.2727	-54.1332
 130	1	1	-0.64044	0.449084	-56.9976	-52.0422
 131	1	1	0.243455	-0.123241	-57.4506	-53.2321
 132	1	5	0.683739	2.76144	-59.4657	-54.6735
 133	1	4	-0.371861	2.27354	-57.0012	-50.5039
 134	1	5	0.675894	-0.276691	-56.1251	-51.1509
 135	1	6	-0.526708	-0.776953	-55.4601	-50.3881
 136	1	6	-0.532274	3.47293	-60.1315	-55.3188
 137	1	2	0.077971	7.49913	-57.6622	-47.562
 138	1	1	-0.133879	6.16906	-55.517	-47.1132
 139	1	2	0.291414	5.45295	-57.4962	-45.9412
 140	1	7	0.054943	7.90083	-58.0557	-46.6296
 141	1	7	-0.083103	8.21019	-56.8921	-47.9073
 142	1	2	-0.229696	8.4862	-58.7137	-49.685
 143	1	2	-0.134961	7.22158	-60.188	-48.1124
 144	1	7	0.062626	8.36455	-59.4896	-50.4579
 145	1	7	0.065775	9.41089	-58.9142	-49.1354
 146	1	7	0.079929	8.57399	-57.7255	-50.1661
 147	1	7	0.050506	6.42457	-60.2499	-47.3644
 148	1	7	0.024431	8.15824	-60.514	-47.6333
 149	1	7	0.052051	6.97436	-60.919	-48.9
 150	1	2	-0.079385	5.55501	-56.3024	-44.9189
 151	1	7	-0.096983	5.90548	-58.442	-45.5839
 152	1	7	0.069866	4.38363	-57.7308	-46.1157
 153	1	2	-0.079851	6.66852	-56.5775	-43.8662
 154	1	2	-0.424117	4.22706	-56.0341	-44.1589
 155	1	1	-0.32128	5.93248	-55.1157	-45.8126
 156	1	7	0.133743	3.40644	-55.7215	-44.8338
 157	1	7	0.116477	4.34748	-55.2503	-43.3946
 158	1	7	0.082726	3.89392	-56.9511	-43.6614
 159	1	7	0.078262	6.40047	-57.445	-43.2448
 160	1	7	-0.001602	6.84223	-55.703	-43.2185
 161	1	7	0.028854	7.64534	-56.8097	-44.3369
 162	1	3	0.315808	5.8538	-53.4479	-44.4237
 163	1	3	0.28245	6.67207	-54.9703	-49.1183
 164	1	8	-0.039852	6.8743	-52.3047	-48.7475
 165	1	8	-0.059152	6.43019	-51.477	-46.1459
 166	1	1	0.135239	7.57844	-40.329	-46.0069
 167	1	1	-0.124676	6.2287	-40.5117	-46.3204
 168	1	1	0.190416	6.82214	-41.961	-48.185
 169	1	1	-0.226961	5.84811	-41.3182	-47.4183
 170	1	1	-0.017982	9.2824	-44.2911	-50.0634
 171	1	1	-0.195812	9.09926	-45.629	-50.4631
 172	1	1	-0.244042	9.03114	-43.9121	-48.7486
 173	1	1	0.131216	8.55193	-46.5493	-49.5535
 174	1	1	-0.480889	8.48564	-44.8075	-47.8332
 175	1	1	0.420559	8.24464	-46.1315	-48.2376
 176	1	2	0.094496	9.844	-43.1465	-50.8684
 177	1	3	0.181616	9.32853	-45.9454	-51.4788
 178	1	2	0.106535	9.32095	-42.4369	-48.5201
 179	1	4	-0.32219	8.33175	-47.8643	-49.933
 180	1	3	0.25841	8.24501	-44.5129	-46.8137
 181	1	1	0.380364	7.79721	-48.7718	-49.0219
 182	1	1	-0.639904	7.58116	-50.0946	-49.4021
 183	1	1	0.40258	7.51019	-48.3367	-47.6796
 184	1	1	0.235245	7.08278	-50.9868	-48.4363
 185	1	1	-0.64044	7.01609	-49.2372	-46.7141
 186	1	1	0.243455	6.86929	-50.5745	-47.0951
 187	1	5	0.683739	7.87215	-50.5122	-50.718
 188	1	4	-0.371861	7.69915	-47.0129	-47.3402
 189	1	5	0.675894	6.79436	-48.815	-45.3703
 190	1	6	-0.526708	6.61341	-48.5481	-44.2731
 191	1	6	-0.532274	8.12208	-50.79	-51.8057
 192	1	2	0.077971	9.65621	-41.8884	-49.9415
 193	1	1	-0.133879	8.16515	-41.745	-47.8743
 194	1	2	0.291414	10.4747	-42.1922	-47.522
 195	1	7	0.054943	10.5225	-41.2158	-49.971
 196	1	7	-0.083103	8.80671	-41.2903	-50.2992
 197	1	2	-0.229696	9.10445	-42.9734	-52.2266
 198	1	2	-0.134961	11.3462	-43.4122	-51.1496
 199	1	7	0.062626	8.02241	-42.8699	-52.0733
 200	1	7	0.065775	9.25079	-43.8529	-52.8713
 201	1	7	0.079929	9.47065	-42.0694	-52.7482
 202	1	7	0.050506	11.4759	-44.3194	-51.7422
 203	1	7	0.024431	11.8793	-43.5889	-50.2035
 204	1	7	0.052051	11.817	-42.5688	-51.6796
 205	1	2	-0.079385	10.0695	-40.9545	-46.6397
 206	1	7	-0.096983	11.425	-42.0154	-48.0491
 207	1	7	0.069866	10.6162	-43.0823	-46.8805
 208	1	2	-0.079851	10.7106	-39.637	-47.1807
 209	1	2	-0.424117	10.4902	-41.1504	-45.1567
 210	1	1	-0.32128	8.5572	-40.9446	-46.809
 211	1	7	0.133743	10.0524	-42.0676	-44.7361
 212	1	7	0.116477	10.1679	-40.3179	-44.5245
 213	1	7	0.082726	11.5788	-41.2383	-45.0817
 214	1	7	0.078262	10.3247	-38.7688	-46.6297
 215	1	7	-0.001602	10.4849	-39.4778	-48.2428
 216	1	7	0.028854	11.8068	-39.6344	-47.0924
 217	1	3	0.315808	7.84976	-39.7185	-45.1554
 218	1	3	0.28245	6.56497	-42.6326	-49.0007
 219	1	8	-0.039852	4.51057	-41.5152	-47.6531
 220	1	8	-0.059152	5.28006	-39.9383	-45.521
 221	1	1	0.135239	-3.5076	-39.3553	-38.7859
 222	1	1	-0.124676	-2.89432	-40.579	-38.4774
 223	1	1	0.190416	-3.02098	-41.2625	-40.8027
 224	1	1	-0.226961	-2.64575	-41.5366	-39.487
 225	1	1	-0.017982	-3.32156	-40.621	-44.5323
 226	1	1	-0.195812	-2.39934	-41.0439	-45.5034
 227	1	1	-0.244042	-2.89864	-39.8836	-43.4304
 228	1	1	0.131216	-1.04165	-40.7158	-45.3524
 229	1	1	-0.480889	-1.55356	-39.5365	-43.2605
 230	1	1	0.420559	-0.630511	-39.9424	-44.2316
 231	1	2	0.094496	-4.81934	-40.8937	-44.4897
 232	1	3	0.181616	-2.73175	-41.6391	-46.3426
 233	1	2	0.106535	-4.04664	-39.6099	-42.4899
 234	1	4	-0.32219	-0.096786	-41.1752	-46.2361
 235	1	3	0.25841	-1.22006	-38.9601	-42.4
 236	1	1	0.380364	1.23526	-40.8478	-46.0912
 237	1	1	-0.639904	2.1898	-41.354	-46.9991
 238	1	1	0.40258	1.63373	-40.0756	-44.9719
 239	1	1	0.235245	3.54311	-41.0384	-46.7993
 240	1	1	-0.64044	2.98069	-39.76	-44.7651
 241	1	1	0.243455	3.94386	-40.2311	-45.6863
 242	1	5	0.683739	1.76622	-42.1827	-48.0866
 243	1	4	-0.371861	0.696335	-39.613	-44.0686
 244	1	5	0.675894	3.36714	-38.9943	-43.6423
 245	1	6	-0.526708	3.75213	-38.3659	-42.7517
 246	1	6	-0.532274	1.35535	-42.8474	-48.9366
 247	1	2	0.077971	-5.23855	-40.4293	-43.0551
 248	1	1	-0.133879	-3.6702	-40.055	-41.094
 249	1	2	0.291414	-4.37393	-38.1077	-42.2593
 250	1	7	0.054943	-6.16487	-39.8421	-43.0905
 251	1	7	-0.083103	-5.44585	-41.273	-42.3894
 252	1	2	-0.229696	-5.12365	-42.3956	-44.721
 253	1	2	-0.134961	-5.53258	-40.0467	-45.5744
 254	1	7	0.062626	-4.80409	-42.6919	-45.7264
 255	1	7	0.065775	-6.18813	-42.6074	-44.6335
 256	1	7	0.079929	-4.58573	-43.0253	-43.9982
 257	1	7	0.050506	-5.36442	-38.9722	-45.4111
 258	1	7	0.024431	-6.62481	-40.2194	-45.5477
 259	1	7	0.052051	-5.17745	-40.3267	-46.5757
 260	1	2	-0.079385	-4.53309	-37.8791	-40.6984
 261	1	7	-0.096983	-5.29023	-37.7745	-42.7832
 262	1	7	0.069866	-3.55709	-37.499	-42.658
 263	1	2	-0.079851	-6.02939	-37.7856	-40.2977
 264	1	2	-0.424117	-3.76634	-36.6167	-40.2389
 265	1	1	-0.32128	-3.90381	-39.1146	-40.1124
 266	1	7	0.133743	-2.69466	-36.714	-40.4768
 267	1	7	0.116477	-3.86092	-36.4535	-39.158
 268	1	7	0.082726	-4.15356	-35.7205	-40.7371
 269	1	7	0.078262	-6.50819	-36.9339	-40.7996
 270	1	7	-0.001602	-6.14665	-37.6495	-39.2146
 271	1	7	0.028854	-6.58502	-38.6948	-40.564
 272	1	3	0.315808	-3.65906	-38.6023	-38.0168
 273	1	3	0.28245	-2.81443	-41.9584	-41.6116
 274	1	8	-0.039852	-2.05427	-42.7386	-39.1748
 275	1	8	-0.059152	-2.47143	-40.8201	-37.1897
 276	1	1	0.135239	2.71184	-44.2628	-27.9907
 277	1	1	-0.124676	3.69934	-43.4572	-28.6093
 278	1	1	0.190416	3.66469	-44.8747	-30.6107
 279	1	1	-0.226961	4.19455	-43.7816	-29.8965
 280	1	1	-0.017982	1.54055	-47.288	-33.0011
 281	1	1	-0.195812	1.09288	-47.07	-34.333
 282	1	1	-0.244042	1.38172	-46.303	-32.0241
 283	1	1	0.131216	0.492609	-45.8546	-34.679
 284	1	1	-0.480889	0.766774	-45.0789	-32.3944
 285	1	1	0.420559	0.33186	-44.8588	-33.7088
 286	1	2	0.094496	2.16582	-48.5425	-32.404
 287	1	3	0.181616	1.19555	-47.8412	-35.0822
 288	1	2	0.106535	1.88939	-46.7368	-30.6393
 289	1	4	-0.32219	0.054407	-45.6377	-35.9567
 290	1	3	0.25841	0.614933	-44.2797	-31.673
 291	1	1	0.380364	-0.587346	-44.4541	-36.2803
 292	1	1	-0.639904	-1.04445	-44.2305	-37.5892
 293	1	1	0.40258	-0.752115	-43.4536	-35.2791
 294	1	1	0.235245	-1.65583	-42.9999	-37.8899
 295	1	1	-0.64044	-1.4286	-42.2496	-35.562
 296	1	1	0.243455	-1.87214	-42.0137	-36.8746
 297	1	5	0.683739	-0.831932	-45.2262	-38.5936
 298	1	4	-0.371861	-0.244433	-43.6646	-34.0127
 299	1	5	0.675894	-1.58141	-41.2454	-34.5475
 300	1	6	-0.526708	-1.74713	-40.3907	-33.7956
 301	1	6	-0.532274	-0.681482	-45.9919	-39.4467
 302	1	2	0.077971	2.70602	-48.0146	-31.0302
 303	1	1	-0.133879	2.67205	-45.6374	-29.9793
 304	1	2	0.291414	0.703535	-46.9904	-29.6353
 305	1	7	0.054943	2.66111	-48.7555	-30.2364
 306	1	7	-0.083103	3.76943	-47.7568	-31.1473
 307	1	2	-0.229696	3.32624	-49.0718	-33.2653
 308	1	2	-0.134961	1.11479	-49.6261	-32.2418
 309	1	7	0.062626	4.04867	-48.2737	-33.4365
 310	1	7	0.065775	2.99547	-49.4285	-34.249
 311	1	7	0.079929	3.85684	-49.8925	-32.7704
 312	1	7	0.050506	0.266213	-49.1822	-31.7065
 313	1	7	0.024431	1.47353	-50.4888	-31.6709
 314	1	7	0.052051	0.736176	-49.9573	-33.2217
 315	1	2	-0.079385	1.09331	-46.2898	-28.2889
 316	1	7	-0.096983	0.500822	-48.0603	-29.4923
 317	1	7	0.069866	-0.22556	-46.5514	-30.0397
 318	1	2	-0.079851	1.65842	-47.3458	-27.2914
 319	1	2	-0.424117	-0.068579	-45.4866	-27.6925
 320	1	1	-0.32128	2.19873	-45.3545	-28.7086
 321	1	7	0.133743	-0.405838	-44.7098	-28.4031
 322	1	7	0.116477	0.211426	-45.0098	-26.7478
 323	1	7	0.082726	-0.905358	-46.1669	-27.485
 324	1	7	0.078262	1.98181	-46.845	-26.3726
 325	1	7	-0.001602	2.53274	-47.87	-27.712
 326	1	7	0.028854	0.893439	-48.093	-27.0281
 327	1	3	0.315808	2.3369	-43.9884	-27.0024
 328	1	3	0.28245	3.98006	-45.0899	-31.6253
 329	1	8	-0.039852	5.13674	-43.0024	-30.4847
 330	1	8	-0.059152	4.15721	-42.3268	-27.9986
 331	1	1	0.135239	5.93065	-31.2442	-27.7048
 332	1	1	-0.124676	4.94556	-31.4034	-28.6557
 333	1	1	0.190416	6.31494	-33.0437	-29.8226
 334	1	1	-0.226961	5.15006	-32.2507	-29.7315
 335	1	1	-0.017982	8.99953	-35.5123	-30.2127
 336	1	1	-0.195812	8.78639	-36.8002	-30.7564
 337	1	1	-0.244042	8.36258	-35.1335	-29.0084
 338	1	1	0.131216	7.95609	-37.6796	-30.0712
 339	1	1	-0.480889	7.47003	-36.0246	-28.3664
 340	1	1	0.420559	7.3104	-37.2977	-28.8927
 341	1	2	0.094496	9.80811	-34.3842	-30.8071
 342	1	3	0.181616	9.26527	-37.0997	-31.6982
 343	1	2	0.106535	8.58125	-33.6546	-28.6675
 344	1	4	-0.32219	7.70712	-38.9107	-30.6244
 345	1	3	0.25841	6.89421	-35.7447	-27.4995
 346	1	1	0.380364	6.73822	-39.7368	-30.0339
 347	1	1	-0.639904	6.40428	-40.9669	-30.6098
 348	1	1	0.40258	6.15827	-39.3476	-28.7952
 349	1	1	0.235245	5.51772	-41.8388	-29.9294
 350	1	1	-0.64044	5.31919	-40.2238	-28.0959
 351	1	1	0.243455	4.96963	-41.4745	-28.6719
 352	1	5	0.683739	6.98397	-41.281	-31.8763
 353	1	4	-0.371861	6.50263	-38.163	-28.2134
 354	1	5	0.675894	4.78965	-39.8601	-26.8068
 355	1	6	-0.526708	4.4382	-39.4869	-25.7625
 356	1	6	-0.532274	7.38415	-41.674	-32.8776
 357	1	2	0.077971	9.65401	-33.2183	-29.7701
 358	1	1	-0.133879	7.28516	-32.8916	-28.8199
 359	1	2	0.291414	9.02012	-33.3563	-27.1953
 360	1	7	0.054943	10.6351	-32.8698	-29.4092
 361	1	7	-0.083103	9.298	-32.3339	-30.3157
 362	1	2	-0.229696	9.18609	-33.986	-32.1756
 363	1	2	-0.134961	11.2597	-34.7804	-31.0131
 364	1	7	0.062626	9.69842	-33.1103	-32.6048
 365	1	7	0.065775	8.13378	-33.704	-32.06
 366	1	7	0.079929	9.24006	-34.7995	-32.9136
 367	1	7	0.050506	11.82	-33.8642	-31.2482
 368	1	7	0.024431	11.368	-35.4717	-31.8577
 369	1	7	0.052051	11.6939	-35.2329	-30.1073
 370	1	2	-0.079385	8.25032	-32.0195	-26.7867
 371	1	7	-0.096983	10.1138	-33.3125	-27.103
 372	1	7	0.069866	8.6525	-34.1726	-26.559
 373	1	2	-0.079851	9.12907	-30.7684	-27.0315
 374	1	2	-0.424117	7.78473	-32.0036	-25.3041
 375	1	1	-0.32128	7.07506	-32.0109	-27.7615
 376	1	7	0.133743	7.13861	-32.8504	-25.0136
 377	1	7	0.116477	7.30027	-31.0689	-25.0147
 378	1	7	0.082726	8.69936	-32.0689	-24.6959
 379	1	7	0.078262	10.0445	-30.8975	-26.4371
 380	1	7	-0.001602	8.62695	-29.8598	-26.6447
 381	1	7	0.028854	9.40005	-30.6199	-28.0892
 382	1	3	0.315808	5.79138	-30.4937	-26.9134
 383	1	3	0.28245	6.48223	-33.7713	-30.5999
 384	1	8	-0.039852	4.13997	-32.37	-30.6724
 385	1	8	-0.059152	3.84808	-30.5941	-28.629
 386	1	1	0.135239	-6.81758	-26.254	-30.325
 387	1	1	-0.124676	-7.26369	-27.4871	-29.8235
 388	1	1	0.190416	-5.81446	-28.674	-31.4006
 389	1	1	-0.226961	-6.76233	-28.6965	-30.3567
 390	1	1	-0.017982	-2.90804	-28.9323	-33.8083
 391	1	1	-0.195812	-1.85966	-29.8584	-33.8233
 392	1	1	-0.244042	-3.10985	-28.0555	-32.7535
 393	1	1	0.131216	-0.981601	-29.9275	-32.6801
 394	1	1	-0.480889	-2.28914	-28.0955	-31.5973
 395	1	1	0.420559	-1.19378	-29.0195	-31.5657
 396	1	2	0.094496	-3.84057	-28.6167	-34.959
 397	1	3	0.181616	-1.71952	-30.5095	-34.6574
 398	1	2	0.106535	-4.29951	-27.1656	-32.9669
 399	1	4	-0.32219	0.0768186	-30.8499	-32.6403
 400	1	3	0.25841	-2.50074	-27.4261	-30.7348
 401	1	1	0.380364	0.932473	-30.726	-31.6274
 402	1	1	-0.639904	1.98385	-31.6852	-31.6143
 403	1	1	0.40258	0.666069	-29.9316	-30.5203
 404	1	1	0.235245	3.05009	-31.4861	-30.7157
 405	1	1	-0.64044	1.71637	-29.8356	-29.5944
 406	1	1	0.243455	2.85574	-30.7891	-29.5956
 407	1	5	0.683739	2.24891	-32.512	-32.7399
 408	1	4	-0.371861	-0.269567	-29.0601	-30.5117
 409	1	5	0.675894	1.52252	-28.8996	-28.4022
 410	1	6	-0.526708	1.31613	-28.0884	-27.5841
 411	1	6	-0.532274	2.57419	-33.3405	-33.498
 412	1	2	0.077971	-4.78323	-27.5138	-34.3778
 413	1	1	-0.133879	-5.31988	-27.44	-31.8757
 414	1	2	0.291414	-3.9956	-25.7134	-32.7385
 415	1	7	0.054943	-4.6512	-26.6155	-34.9975
 416	1	7	-0.083103	-5.84872	-27.7748	-34.4597
 417	1	2	-0.229696	-4.64299	-29.8167	-35.4217
 418	1	2	-0.134961	-3.06236	-28.1192	-36.1684
 419	1	7	0.062626	-5.31177	-30.1116	-34.6174
 420	1	7	0.065775	-3.99269	-30.6414	-35.7473
 421	1	7	0.079929	-5.22162	-29.4859	-36.2857
 422	1	7	0.050506	-2.43421	-27.2475	-35.9305
 423	1	7	0.024431	-3.78197	-27.7794	-36.9451
 424	1	7	0.052051	-2.45832	-28.9048	-36.6335
 425	1	2	-0.079385	-5.18225	-25.0436	-31.9619
 426	1	7	-0.096983	-3.73441	-25.1629	-33.6337
 427	1	7	0.069866	-3.10129	-25.6964	-32.0922
 428	1	2	-0.079851	-6.35542	-24.4996	-32.8741
 429	1	2	-0.424117	-4.72498	-24.0138	-30.9366
 430	1	1	-0.32128	-5.77548	-26.2532	-31.2609
 431	1	7	0.133743	-5.58978	-23.4522	-30.5128
 432	1	7	0.116477	-4.10129	-23.2717	-31.4621
 433	1	7	0.082726	-4.12191	-24.4421	-30.1121
 434	1	7	0.078262	-6.79308	-25.2821	-33.5264
 435	1	7	-0.001602	-5.99183	-23.6283	-33.4434
 436	1	7	0.028854	-7.16866	-24.1126	-32.2356
 437	1	3	0.315808	-7.20404	-25.2955	-29.9466
 438	1	3	0.28245	-5.53427	-29.6074	-31.8504
 439	1	8	-0.039852	-7.2999	-29.8877	-29.9162
 440	1	8	-0.059152	-8.18904	-27.5408	-28.8598
 441	1	1	0.135239	-13.127	-29.6843	-20.0964
 442	1	1	-0.124676	-11.7597	-29.5398	-19.8368
 443	1	1	0.190416	-11.2869	-31.6747	-20.9101
 444	1	1	-0.226961	-10.8561	-30.5144	-20.2837
 445	1	1	-0.017982	-12.0026	-33.6393	-24.0913
 446	1	1	-0.195812	-11.3501	-33.6459	-25.3232
 447	1	1	-0.244042	-12.4654	-32.4736	-23.5105
 448	1	1	0.131216	-11.0419	-32.4219	-25.915
 449	1	1	-0.480889	-12.3114	-31.2245	-24.2111
 450	1	1	0.420559	-11.3932	-31.2383	-25.2732
 451	1	2	0.094496	-12.4674	-34.852	-23.2758
 452	1	3	0.181616	-10.966	-34.5441	-25.7592
 453	1	2	0.106535	-13.1995	-32.7104	-22.1869
 454	1	4	-0.32219	-10.1194	-32.4246	-26.9612
 455	1	3	0.25841	-12.6648	-30.2624	-23.8438
 456	1	1	0.380364	-9.76271	-31.2394	-27.5379
 457	1	1	-0.639904	-8.821	-31.2267	-28.5871
 458	1	1	0.40258	-10.2139	-30.021	-26.9444
 459	1	1	0.235245	-8.30453	-29.9483	-28.9874
 460	1	1	-0.64044	-9.73234	-28.7507	-27.361
 461	1	1	0.243455	-8.77582	-28.7179	-28.4437
 462	1	5	0.683739	-8.16197	-32.4108	-28.9959
 463	1	4	-0.371861	-10.9545	-30.03	-25.799
 464	1	5	0.675894	-10.2815	-27.5264	-26.786
 465	1	6	-0.526708	-10.634	-26.488	-26.4444
 466	1	6	-0.532274	-7.59985	-33.2485	-29.502
 467	1	2	0.077971	-12.8957	-34.232	-21.8747
 468	1	1	-0.133879	-12.6424	-31.7995	-21.1282
 469	1	2	0.291414	-14.7055	-32.2596	-22.3571
 470	1	7	0.054943	-13.6308	-34.8428	-21.3006
 471	1	7	-0.083103	-12.0248	-34.1871	-21.164
 472	1	2	-0.229696	-11.3406	-35.913	-23.0639
 473	1	2	-0.134961	-13.6344	-35.5331	-23.9288
 474	1	7	0.062626	-10.401	-35.4427	-22.8559
 475	1	7	0.065775	-11.1872	-36.5082	-23.9722
 476	1	7	0.079929	-11.5144	-36.6507	-22.2629
 477	1	7	0.050506	-14.0139	-36.3343	-23.3094
 478	1	7	0.024431	-13.2786	-35.9179	-24.8992
 479	1	7	0.052051	-14.4733	-34.8804	-24.1484
 480	1	2	-0.079385	-15.0078	-31.1879	-21.2106
 481	1	7	-0.096983	-15.3552	-33.154	-22.2699
 482	1	7	0.069866	-14.7762	-31.9339	-23.4284
 483	1	2	-0.079851	-15.5156	-31.9059	-19.9012
 484	1	2	-0.424117	-15.781	-29.9178	-21.6749
 485	1	1	-0.32128	-13.5592	-30.8449	-20.7396
 486	1	7	0.133743	-15.5748	-29.6235	-22.7421
 487	1	7	0.116477	-15.6656	-29.0515	-21.0038
 488	1	7	0.082726	-16.8882	-30.1479	-21.6521
 489	1	7	0.078262	-15.3746	-31.2258	-19.0758
 490	1	7	-0.001602	-15.0766	-32.8671	-19.7102
 491	1	7	0.028854	-16.5923	-32.071	-19.9403
 492	1	3	0.315808	-13.7943	-28.8598	-19.829
 493	1	3	0.28245	-10.561	-32.3705	-21.3698
 494	1	8	-0.039852	-9.51951	-30.2196	-20.2539
 495	1	8	-0.059152	-11.3288	-28.3191	-19.2513
 496	1	1	0.135239	-7.37333	-19.5949	-21.6157
 497	1	1	-0.124676	-7.86376	-20.4245	-22.7225
 498	1	1	0.190416	-5.96877	-21.7706	-22.571
 499	1	1	-0.226961	-6.94666	-21.344	-23.3587
 500	1	1	-0.017982	-3.95884	-23.8367	-20.5329
 501	1	1	-0.195812	-4.39319	-25.1704	-20.5638
 502	1	1	-0.244042	-4.77925	-22.9202	-19.865
 503	1	1	0.131216	-5.69492	-25.5493	-20.1595
 504	1	1	-0.480889	-5.95812	-23.2596	-19.1459
 505	1	1	0.420559	-6.44038	-24.5858	-19.4124
 506	1	2	0.094496	-2.67135	-23.2166	-21.119
 507	1	3	0.181616	-3.67637	-25.9728	-20.7395
 508	1	2	0.106535	-4.43808	-21.4962	-20.2911
 509	1	4	-0.32219	-5.91041	-26.9288	-19.9738
 510	1	3	0.25841	-6.44548	-22.5855	-18.4134
 511	1	1	0.380364	-7.20027	-27.3251	-19.6159
 512	1	1	-0.639904	-7.63995	-28.6084	-20.0348
 513	1	1	0.40258	-8.05611	-26.3556	-19.1747
 514	1	1	0.235245	-9.00736	-28.9809	-19.9831
 515	1	1	-0.64044	-9.44488	-26.5942	-19.0764
 516	1	1	0.243455	-9.92494	-28.0167	-19.3146
 517	1	5	0.683739	-6.63161	-29.4994	-20.437
 518	1	4	-0.371861	-7.5593	-25.1315	-18.8436
 519	1	5	0.675894	-10.3462	-25.6258	-18.5893
 520	1	6	-0.526708	-11.2417	-24.867	-18.2236
 521	1	6	-0.532274	-5.72279	-30.1347	-20.6669
 522	1	2	0.077971	-3.06087	-21.6695	-21.0711
 523	1	1	-0.133879	-5.51865	-21.0333	-21.3391
 524	1	2	0.291414	-4.61612	-20.3913	-19.1825
 525	1	7	0.054943	-2.06225	-21.1597	-20.8365
 526	1	7	-0.083103	-3.26977	-21.3117	-22.0561
 527	1	2	-0.229696	-2.45288	-23.5965	-22.5606
 528	1	2	-0.134961	-1.2851	-23.6116	-20.3824
 529	1	7	0.062626	-3.32417	-23.5371	-23.1408
 530	1	7	0.065775	-2.18563	-24.64	-22.5964
 531	1	7	0.079929	-1.71283	-22.9809	-23.0947
 532	1	7	0.050506	-1.04648	-23.1611	-19.3774
 533	1	7	0.024431	-0.499154	-23.3467	-21.0819
 534	1	7	0.052051	-1.43206	-24.7309	-20.2471
 535	1	2	-0.079385	-5.68053	-19.3421	-19.665
 536	1	7	-0.096983	-3.63098	-19.8533	-19.1407
 537	1	7	0.069866	-4.92451	-20.9838	-18.3067
 538	1	2	-0.079851	-4.94438	-18.016	-19.8735
 539	1	2	-0.424117	-6.66065	-19.1119	-18.4806
 540	1	1	-0.32128	-6.17149	-19.8723	-20.9945
 541	1	7	0.133743	-7.08222	-20.2144	-18.2789
 542	1	7	0.116477	-7.61521	-18.6184	-18.6072
 543	1	7	0.082726	-6.22455	-18.7644	-17.5484
 544	1	7	0.078262	-3.82428	-17.9289	-20.2265
 545	1	7	-0.001602	-5.08143	-17.418	-18.8465
 546	1	7	0.028854	-5.51652	-17.2124	-20.4747
 547	1	3	0.315808	-7.76436	-18.7363	-21.2095
 548	1	3	0.28245	-5.57741	-22.906	-22.8692
 549	1	8	-0.039852	-7.31301	-22.17	-24.343
 550	1	8	-0.059152	-9.03564	-20.0421	-23.3904
 551	1	1	0.135239	-18.9585	-23.4991	-24.948
 552	1	1	-0.124676	-18.25	-23.9402	-23.8778
 553	1	1	0.190416	-16.2899	-24.4063	-25.2198
 554	1	1	-0.226961	-16.9433	-24.4244	-24.0464
 555	1	1	-0.017982	-14.4086	-23.8365	-28.5421
 556	1	1	-0.195812	-12.9632	-23.8267	-28.3528
 557	1	1	-0.244042	-15.1976	-23.1906	-27.6986
 558	1	1	0.131216	-12.2489	-22.9514	-27.4683
 559	1	1	-0.480889	-14.6286	-22.3656	-26.8326
 560	1	1	0.420559	-13.2538	-22.2284	-26.7432
 561	1	2	0.094496	-15.137	-24.882	-29.359
 562	1	3	0.181616	-12.2043	-24.275	-29.161
 563	1	2	0.106535	-16.6207	-23.702	-27.7768
 564	1	4	-0.32219	-10.9652	-22.7546	-27.4049
 565	1	3	0.25841	-15.194	-21.8054	-26.0853
 566	1	1	0.380364	-10.4431	-21.8231	-26.6872
 567	1	1	-0.639904	-9.08857	-22.0269	-26.2801
 568	1	1	0.40258	-11.3386	-20.9598	-25.9503
 569	1	1	0.235245	-8.67441	-21.6709	-24.9295
 570	1	1	-0.64044	-10.8133	-20.3458	-24.7104
 571	1	1	0.243455	-9.56404	-20.8587	-24.2015
 572	1	5	0.683739	-8.26869	-23.0302	-26.9773
 573	1	4	-0.371861	-12.7676	-21.2934	-25.9531
 574	1	5	0.675894	-11.6506	-19.2572	-24.0598
 575	1	6	-0.526708	-12.6053	-18.7424	-23.5189
 576	1	6	-0.532274	-7.56909	-23.6197	-27.4342
 577	1	2	0.077971	-16.5419	-24.9364	-28.6337
 578	1	1	-0.133879	-17.04	-23.939	-26.3454
 579	1	2	0.291414	-17.5505	-22.5207	-28.1594
 580	1	7	0.054943	-17.2634	-25.176	-29.4411
 581	1	7	-0.083103	-16.5245	-25.825	-27.9343
 582	1	2	-0.229696	-14.2688	-26.2562	-29.5389
 583	1	2	-0.134961	-15.1318	-24.2549	-30.7702
 584	1	7	0.062626	-13.5659	-26.0325	-30.3108
 585	1	7	0.065775	-15.0392	-27.0647	-29.8684
 586	1	7	0.079929	-13.8475	-26.6906	-28.5638
 587	1	7	0.050506	-15.7278	-23.343	-30.8037
 588	1	7	0.024431	-15.5129	-25.026	-31.4347
 589	1	7	0.052051	-14.1068	-24.1439	-31.0982
 590	1	2	-0.079385	-18.8705	-22.6686	-27.42
 591	1	7	-0.096983	-17.8658	-22.425	-29.2008
 592	1	7	0.069866	-17.0267	-21.5449	-28.0537
 593	1	2	-0.079851	-19.7406	-23.6139	-28.1718
 594	1	2	-0.424117	-19.6731	-21.4549	-27.0535
 595	1	1	-0.32128	-18.3404	-23.44	-26.2237
 596	1	7	0.133743	-19.0124	-20.8873	-26.3917
 597	1	7	0.116477	-20.5812	-21.6726	-26.466
 598	1	7	0.082726	-19.9969	-20.9902	-27.9816
 599	1	7	0.078262	-20.1946	-23.0906	-28.9979
 600	1	7	-0.001602	-20.6155	-24.003	-27.6131
 601	1	7	0.028854	-19.2162	-24.5293	-28.4502
 602	1	3	0.315808	-19.9761	-23.0888	-24.7329
 603	1	3	0.28245	-15.248	-24.7035	-25.2419
 604	1	8	-0.039852	-16.2756	-24.9935	-23.0305
 605	1	8	-0.059152	-18.9328	-24.1671	-22.6965
 606	1	1	0.135239	-19.114	-22.976	-10.7865
 607	1	1	-0.124676	-18.1187	-22.0187	-10.9871
 608	1	1	0.190416	-17.0105	-23.4705	-12.6188
 609	1	1	-0.226961	-17.0259	-22.306	-11.8368
 610	1	1	-0.017982	-16.5961	-26.4704	-14.6996
 611	1	1	-0.195812	-15.9279	-26.4371	-15.9545
 612	1	1	-0.244042	-17.7944	-25.7776	-14.5482
 613	1	1	0.131216	-16.5535	-25.7936	-17.0486
 614	1	1	-0.480889	-18.3332	-25.0203	-15.5905
 615	1	1	0.420559	-17.6987	-25.0229	-16.8599
 616	1	2	0.094496	-16.1434	-27.1636	-13.3778
 617	1	3	0.181616	-14.9926	-26.9628	-16.0746
 618	1	2	0.106535	-18.2618	-25.7525	-13.0919
 619	1	4	-0.32219	-15.9577	-25.86	-18.3087
 620	1	3	0.25841	-19.2736	-24.4834	-15.4609
 621	1	1	0.380364	-16.6134	-25.1716	-19.3925
 622	1	1	-0.639904	-16.0294	-25.3663	-20.6824
 623	1	1	0.40258	-17.9466	-24.68	-19.1712
 624	1	1	0.235245	-16.7755	-24.8859	-21.746
 625	1	1	-0.64044	-18.7666	-24.3709	-20.2802
 626	1	1	0.243455	-18.2182	-24.5577	-21.5862
 627	1	5	0.683739	-14.7331	-25.9818	-20.7989
 628	1	4	-0.371861	-18.4039	-24.4715	-17.8826
 629	1	5	0.675894	-20.0377	-23.8064	-20.0941
 630	1	6	-0.526708	-21.1098	-23.376	-20.1223
 631	1	6	-0.532274	-13.7085	-26.4802	-21.0279
 632	1	2	0.077971	-17.3246	-26.8001	-12.4595