pySIMM System Object

1124 atoms
1252 bonds
2280 angles
3736 dihedrals
160 impropers

9 atom types
10 bond types
15 angle types
8 dihedral types
2 improper types

-153.732664 153.732664 xlo xhi
-153.732664 153.732664 ylo yhi
-153.732664 153.732664 zlo zhi

Masses

   1	12.01	# ca
   2	12.01	# c3
   3	1.008	# ha
   4	16.0	# os
   5	12.01	# cg
   6	14.01	# n1
   7	1.008	# hc
   8	16.0	# oh
   9	1.008	# ho

Pair Coeffs

   1	0.086	3.3996695084235347	# ca
   2	0.1094	3.3996695084235347	# c3
   3	0.015	2.59964245953351	# ha
   4	0.17	3.0000123434657784	# os
   5	0.21	3.3996695084235347	# cg
   6	0.17	3.249998523775958	# n1
   7	0.0157	2.649532787749369	# hc
   8	0.2104	3.0664733878390478	# oh
   9	0.0047	0.5379246460131368	# ho

Bond Coeffs

   1	943.1	1.1566	# cg,n1
   2	321.0	1.5156	# c3,ca
   3	300.9	1.5375	# c3,c3
   4	330.6	1.0969	# c3,hc
   5	376.6	1.3696	# ca,os
   6	461.1	1.3984	# ca,ca
   7	371.4	0.973	# ho,oh
   8	384.0	1.3637	# ca,oh
   9	345.8	1.086	# ca,ha
  10	413.3	1.4328	# ca,cg

Angle Coeffs

   1	69.52	119.9	# ca,ca,oh
   2	63.56	112.24	# ca,c3,ca
   3	63.48	119.89	# ca,os,ca
   4	65.72	120.27	# ca,ca,cg
   5	48.18	119.88	# ca,ca,ha
   6	39.4	107.58	# hc,c3,hc
   7	63.53	120.77	# c3,ca,ca
   8	69.58	119.2	# ca,ca,os
   9	58.92	179.49	# ca,cg,n1
  10	49.0	108.58	# ca,oh,ho
  11	62.86	111.51	# c3,c3,c3
  12	66.62	120.02	# ca,ca,ca
  13	63.15	112.07	# c3,c3,ca
  14	46.34	109.8	# c3,c3,hc
  15	63.5	119.89	# ca,oh,ca

Dihedral Coeffs

   1	1	3.625	2	180	# X,ca,ca,X
   2	1	3.625	2	180	# X,cg,ca,ca
   3	1	0.15555555555555556	3	0	# X,c3,c3,X
   4	1	0.0	2	0	# X,c3,ca,X
   5	1	0.9	2	180	# X,ca,os,X
   6	3	0.18	3	0	0.25	2	180	0.2	1	180	# c3,c3,c3,c3
   7	1	0.9	2	180	# X,ca,oh,X
   8	1	0.16	3	0	# hc,c3,c3,c3

Improper Coeffs

   1	1.1	-1	2	# ca,X,X,ha
   2	1.1	-1	2	# ca,ca,ca,c3

Atoms

   1	1	1	0.135239	14.3162	-38.3618	-22.2924
   2	1	1	-0.124676	15.6034	-38.6623	-22.8534
   3	1	1	0.190416	15.701	-40.7652	-21.5482
   4	1	1	-0.226961	16.268	-39.94	-22.5489
   5	1	1	-0.017982	14.864	-43.2494	-18.8559
   6	1	1	-0.195812	15.008	-44.5838	-19.0251
   7	1	1	-0.244042	13.996	-42.5329	-19.7682
   8	1	1	0.131216	14.3551	-45.2814	-20.0158
   9	1	1	-0.480889	13.3491	-43.1399	-20.8403
  10	1	1	0.420559	13.5672	-44.5282	-21.0073
  11	1	2	0.094496	15.381	-42.1816	-17.8248
  12	1	3	0.181616	15.5094	-45.03	-18.23
  13	1	2	0.106535	14.1183	-40.9761	-19.6425
  14	1	4	-0.32219	14.1772	-46.6745	-20.0544
  15	1	3	0.25841	12.8858	-42.592	-21.6685
  16	1	1	0.380364	13.4019	-47.2645	-21.0365
  17	1	1	-0.639904	13.3274	-48.6541	-21.0244
  18	1	1	0.40258	12.9803	-46.4859	-22.1599
  19	1	1	0.235245	12.711	-49.2883	-22.2202
  20	1	1	-0.64044	12.0747	-47.121	-23.0539
  21	1	1	0.243455	12.0458	-48.5653	-23.2528
  22	1	5	0.683739	13.9772	-49.4208	-20.1231
  23	1	4	-0.371861	12.9735	-45.1582	-22.1104
  24	1	5	0.675894	11.3112	-46.4656	-24.2044
  25	1	6	-0.526708	10.8269	-45.874	-25.0637
  26	1	6	-0.532274	14.2423	-50.5428	-19.6462
  27	1	2	0.077971	14.9474	-40.809	-18.3413
  28	1	1	-0.133879	14.5752	-40.2509	-20.8477
  29	1	2	0.291414	12.8231	-40.2305	-19.5217
  30	1	7	0.054943	14.3266	-40.2533	-17.6496
  31	1	7	-0.083103	15.8296	-40.1573	-18.4161
  32	1	2	-0.229696	16.9477	-42.3202	-17.8653
  33	1	2	-0.134961	14.808	-42.4217	-16.44
  34	1	7	0.062626	17.4833	-41.7933	-17.0419
  35	1	7	0.065775	17.3248	-42.1617	-18.9563
  36	1	7	0.079929	17.1953	-43.3957	-17.7299
  37	1	7	0.050506	13.7189	-42.2941	-16.5443
  38	1	7	0.024431	15.1768	-41.7021	-15.76
  39	1	7	0.052051	14.9919	-43.4041	-16.1262
  40	1	2	-0.079385	12.9032	-38.848	-20.145
  41	1	7	-0.096983	12.5302	-40.1065	-18.469
  42	1	7	0.069866	12.1078	-40.6876	-20.1552
  43	1	2	-0.079851	13.2949	-37.6492	-19.2382
  44	1	2	-0.424117	11.6754	-38.2027	-20.8473
  45	1	1	-0.32128	13.8645	-39.1045	-21.1967
  46	1	7	0.133743	11.2067	-38.8567	-21.5653
  47	1	7	0.116477	11.8327	-37.2465	-21.3118
  48	1	7	0.082726	10.9303	-38.2199	-20.0777
  49	1	7	0.078262	13.3821	-36.6142	-19.6982
  50	1	7	-0.001602	14.2817	-37.8166	-18.776
  51	1	7	0.028854	12.4388	-37.377	-18.5468
  52	1	3	0.315808	13.6987	-37.5004	-22.5555
  53	1	3	0.28245	16.225	-41.7341	-21.3773
  54	1	8	-0.039852	17.3884	-40.257	-23.315
  55	1	8	-0.059152	16.0025	-37.9433	-23.9329
  56	1	1	0.135239	20.8006	-33.2807	-32.7558
  57	1	1	-0.124676	19.8196	-33.8686	-33.5861
  58	1	1	0.190416	20.4824	-36.0613	-32.7788
  59	1	1	-0.226961	19.7094	-35.1979	-33.6433
  60	1	1	-0.017982	22.4312	-38.3372	-29.7656
  61	1	1	-0.195812	22.0222	-39.1685	-28.7166
  62	1	1	-0.244042	21.7125	-37.1519	-29.9892
  63	1	1	0.131216	20.8552	-38.7898	-28.0672
  64	1	1	-0.480889	20.5217	-36.7616	-29.2826
  65	1	1	0.420559	20.0489	-37.6478	-28.3652
  66	1	2	0.094496	23.5818	-38.4984	-30.8113
  67	1	3	0.181616	22.4914	-40.0913	-28.4935
  68	1	2	0.106535	22.3949	-36.281	-30.9917
  69	1	4	-0.32219	20.3119	-39.6084	-27.1421
  70	1	3	0.25841	19.9594	-35.884	-29.6387
  71	1	1	0.380364	19.2202	-39.2805	-26.3706
  72	1	1	-0.639904	18.8856	-39.9516	-25.226
  73	1	1	0.40258	18.5296	-37.9645	-26.5482
  74	1	1	0.235245	17.7949	-39.592	-24.4514
  75	1	1	-0.64044	17.5686	-37.5058	-25.6791
  76	1	1	0.243455	17.0352	-38.3388	-24.7701
  77	1	5	0.683739	19.6708	-41.2452	-24.8665
  78	1	4	-0.371861	18.8915	-37.3197	-27.6712
  79	1	5	0.675894	16.9212	-36.349	-26.2025
  80	1	6	-0.526708	16.4537	-35.4843	-26.6624
  81	1	6	-0.532274	20.3634	-42.1654	-24.7121
  82	1	2	0.077971	23.3076	-37.317	-31.7309
  83	1	1	-0.133879	21.4485	-35.4864	-31.9163
  84	1	2	0.291414	23.2363	-35.1595	-30.3929
  85	1	7	0.054943	24.2806	-36.9108	-32.0907
  86	1	7	-0.083103	22.8237	-37.6609	-32.633
  87	1	2	-0.229696	23.6746	-39.8993	-31.5466
  88	1	2	-0.134961	24.7968	-38.354	-29.9397
  89	1	7	0.062626	22.7759	-39.8733	-32.1573
  90	1	7	0.065775	23.4921	-40.7254	-30.8871
  91	1	7	0.079929	24.6071	-39.866	-32.1878
  92	1	7	0.050506	25.719	-37.9648	-30.3878
  93	1	7	0.024431	25.0679	-39.2833	-29.4939
  94	1	7	0.052051	24.4537	-37.7344	-29.1051
  95	1	2	-0.079385	22.7635	-33.7479	-30.9949
  96	1	7	-0.096983	24.307	-35.2873	-30.6186
  97	1	7	0.069866	23.1109	-35.2709	-29.2644
  98	1	2	-0.079851	23.8744	-32.9521	-31.8276
  99	1	2	-0.424117	22.1701	-32.8156	-29.8631
 100	1	1	-0.32128	21.638	-34.0595	-31.9484
 101	1	7	0.133743	22.9444	-32.2842	-29.2849
 102	1	7	0.116477	21.5489	-33.3881	-29.1667
 103	1	7	0.082726	21.5549	-32.0523	-30.2951
 104	1	7	0.078262	24.8537	-33.0672	-31.4507
 105	1	7	-0.001602	23.6886	-31.911	-32.0137
 106	1	7	0.028854	24.0181	-33.3607	-32.8478
 107	1	3	0.315808	20.839	-32.2006	-32.7061
 108	1	3	0.28245	20.3044	-37.1352	-32.6814
 109	1	8	-0.039852	18.8368	-35.7074	-34.5671
 110	1	8	-0.059152	19.0794	-33.0168	-34.3732
 111	1	1	0.135239	12.5491	-28.4051	-42.0026
 112	1	1	-0.124676	11.3657	-28.6628	-41.2829
 113	1	1	0.190416	11.7724	-31.0666	-41.4351
 114	1	1	-0.226961	10.9696	-29.9672	-40.9906
 115	1	1	-0.017982	14.4249	-33.939	-41.5355
 116	1	1	-0.195812	15.0285	-34.798	-40.6166
 117	1	1	-0.244042	14.4184	-32.5781	-41.3551
 118	1	1	0.131216	15.4173	-34.3141	-39.3475
 119	1	1	-0.480889	14.9139	-32.0531	-40.1407
 120	1	1	0.420559	15.4028	-32.8892	-39.1318
 121	1	2	0.094496	13.9834	-34.284	-42.9242
 122	1	3	0.181616	15.175	-35.8539	-40.8691
 123	1	2	0.106535	13.9458	-31.8188	-42.6053
 124	1	4	-0.32219	16.0963	-35.1264	-38.4768
 125	1	3	0.25841	15.0	-30.9648	-40.0428
 126	1	1	0.380364	16.7303	-34.6567	-37.3449
 127	1	1	-0.639904	17.387	-35.4653	-36.4782
 128	1	1	0.40258	16.7139	-33.2249	-37.1323
 129	1	1	0.235245	18.1685	-34.882	-35.4222
 130	1	1	-0.64044	17.4848	-32.5871	-36.1237
 131	1	1	0.243455	18.3078	-33.4551	-35.3395
 132	1	5	0.683739	17.3372	-36.8532	-36.6162
 133	1	4	-0.371861	15.9801	-32.3197	-38.0401
 134	1	5	0.675894	17.6654	-31.2202	-35.9415
 135	1	6	-0.526708	17.5116	-30.0883	-35.8549
 136	1	6	-0.532274	17.1573	-37.9793	-36.8301
 137	1	2	0.077971	13.3492	-32.9621	-43.454
 138	1	1	-0.133879	12.9324	-30.7815	-42.1868
 139	1	2	0.291414	15.0245	-30.9806	-43.3366
 140	1	7	0.054943	13.5693	-32.7977	-44.5224
 141	1	7	-0.083103	12.2615	-32.9603	-43.3973
 142	1	2	-0.229696	12.8774	-35.3955	-42.9705
 143	1	2	-0.134961	15.1798	-34.708	-43.8176
 144	1	7	0.062626	11.9898	-35.1293	-42.3756
 145	1	7	0.065775	13.1926	-36.3728	-42.5917
 146	1	7	0.079929	12.5331	-35.5453	-44.0036
 147	1	7	0.050506	14.8215	-34.9624	-44.8139
 148	1	7	0.024431	15.7369	-35.5267	-43.3536
 149	1	7	0.052051	15.896	-33.8777	-43.9287
 150	1	2	-0.079385	14.6345	-29.4471	-43.2036
 151	1	7	-0.096983	14.9897	-31.1926	-44.4173
 152	1	7	0.069866	16.0321	-31.1966	-43.0022
 153	1	2	-0.079851	14.4795	-28.7035	-44.5775
 154	1	2	-0.424117	15.7018	-28.715	-42.3561
 155	1	1	-0.32128	13.318	-29.4884	-42.4852
 156	1	7	0.133743	15.9429	-29.2279	-41.4108
 157	1	7	0.116477	15.3878	-27.6836	-42.1308
 158	1	7	0.082726	16.6074	-28.6399	-42.9733
 159	1	7	0.078262	14.335	-27.6204	-44.453
 160	1	7	-0.001602	13.642	-29.1078	-45.1691
 161	1	7	0.028854	15.4046	-28.8552	-45.1528
 162	1	3	0.315808	12.8818	-27.3828	-42.1709
 163	1	3	0.28245	11.5577	-32.0963	-41.1547
 164	1	8	-0.039852	9.80371	-30.1516	-40.2849
 165	1	8	-0.059152	10.6026	-27.5818	-40.8497
 166	1	1	0.135239	8.90586	-23.1315	-31.8579
 167	1	1	-0.124676	9.95077	-24.0821	-32.033
 168	1	1	0.190416	8.36813	-25.6424	-33.0582
 169	1	1	-0.226961	9.68177	-25.3139	-32.6946
 170	1	1	-0.017982	5.22092	-26.9102	-34.3524
 171	1	1	-0.195812	5.33531	-27.8932	-35.3593
 172	1	1	-0.244042	5.77836	-25.6097	-34.4905
 173	1	1	0.131216	6.06554	-27.5017	-36.5128
 174	1	1	-0.480889	6.39454	-25.2152	-35.6749
 175	1	1	0.420559	6.56372	-26.1873	-36.674
 176	1	2	0.094496	4.79032	-27.2217	-32.9223
 177	1	3	0.181616	4.98527	-28.9266	-35.2686
 178	1	2	0.106535	5.8979	-24.9057	-33.1588
 179	1	4	-0.32219	6.32135	-28.4549	-37.4553
 180	1	3	0.25841	6.87229	-24.2518	-35.7992
 181	1	1	0.380364	7.34289	-28.2537	-38.3523
 182	1	1	-0.639904	7.94348	-29.3661	-38.967
 183	1	1	0.40258	7.84387	-26.9244	-38.5119
 184	1	1	0.235245	9.07687	-29.1062	-39.7701
 185	1	1	-0.64044	8.97071	-26.6954	-39.3279
 186	1	1	0.243455	9.57294	-27.7748	-39.9776
 187	1	5	0.683739	7.44745	-30.6888	-38.6646
 188	1	4	-0.371861	7.30009	-25.8751	-37.7769
 189	1	5	0.675894	9.39932	-25.3698	-39.5123
 190	1	6	-0.526708	9.64453	-24.2437	-39.5733
 191	1	6	-0.532274	6.96353	-31.6977	-38.367
 192	1	2	0.077971	5.09739	-25.8517	-32.1782
 193	1	1	-0.133879	7.34837	-24.7279	-32.7585
 194	1	2	0.291414	5.39171	-23.4179	-33.1292
 195	1	7	0.054943	4.14909	-25.3514	-31.9582
 196	1	7	-0.083103	5.57716	-25.9762	-31.2005
 197	1	2	-0.229696	5.67507	-28.3428	-32.3123
 198	1	2	-0.134961	3.26765	-27.6204	-32.8052
 199	1	7	0.062626	6.73497	-28.0407	-32.2968
 200	1	7	0.065775	5.63327	-29.2598	-32.9193
 201	1	7	0.079929	5.3701	-28.5698	-31.2718
 202	1	7	0.050506	2.94399	-27.652	-31.7643
 203	1	7	0.024431	3.09287	-28.5971	-33.2496
 204	1	7	0.052051	2.63892	-26.8967	-33.3464
 205	1	2	-0.079385	6.3672	-22.633	-32.1836
 206	1	7	-0.096983	4.33586	-23.293	-32.7956
 207	1	7	0.069866	5.48279	-22.9893	-34.1336
 208	1	2	-0.079851	5.82509	-22.5819	-30.7346
 209	1	2	-0.424117	6.6751	-21.2002	-32.6396
 210	1	1	-0.32128	7.60673	-23.4597	-32.2626
 211	1	7	0.133743	5.74488	-20.6174	-32.7452
 212	1	7	0.116477	7.21029	-21.1722	-33.6056
 213	1	7	0.082726	7.32862	-20.6912	-31.9111
 214	1	7	0.078262	4.86204	-22.0499	-30.6889
 215	1	7	-0.001602	6.53528	-22.0645	-30.0662
 216	1	7	0.028854	5.69027	-23.6038	-30.3381
 217	1	3	0.315808	9.11362	-22.1558	-31.4413
 218	1	3	0.28245	8.11845	-26.5897	-33.538
 219	1	8	-0.039852	10.7053	-26.2052	-32.8889
 220	1	8	-0.059152	11.2126	-23.7913	-31.6162
 221	1	1	0.135239	22.011	-22.4605	-30.5391
 222	1	1	-0.124676	21.7006	-21.6672	-31.6544
 223	1	1	0.190416	20.8028	-23.6144	-32.8034
 224	1	1	-0.226961	21.1323	-22.2421	-32.81
 225	1	1	-0.017982	19.0982	-27.2762	-32.456
 226	1	1	-0.195812	17.8113	-27.7032	-32.8052
 227	1	1	-0.244042	19.2954	-26.1307	-31.6845
 228	1	1	0.131216	16.7292	-26.8775	-32.4258
 229	1	1	-0.480889	18.2379	-25.2689	-31.3505
 230	1	1	0.420559	16.9537	-25.6634	-31.7348
 231	1	2	0.094496	20.4222	-27.9201	-32.8746
 232	1	3	0.181616	17.635	-28.6022	-33.3839
 233	1	2	0.106535	20.7645	-25.8585	-31.4607
 234	1	4	-0.32219	15.4354	-27.2365	-32.7597
 235	1	3	0.25841	18.374	-24.3288	-30.8159
 236	1	1	0.380364	14.3988	-26.39	-32.501
 237	1	1	-0.639904	13.086	-26.7683	-32.8613
 238	1	1	0.40258	14.63	-25.1671	-31.8056
 239	1	1	0.235245	12.0136	-25.9058	-32.5057
 240	1	1	-0.64044	13.5418	-24.3419	-31.4584
 241	1	1	0.243455	12.2479	-24.6947	-31.8371
 242	1	5	0.683739	12.8121	-27.9943	-33.549
 243	1	4	-0.371861	15.9002	-24.814	-31.4588
 244	1	5	0.675894	13.7625	-23.1147	-30.7722
 245	1	6	-0.526708	13.8496	-22.1008	-30.2317
 246	1	6	-0.532274	12.7976	-29.0178	-34.0916
 247	1	2	0.077971	21.4605	-26.7912	-32.5117
 248	1	1	-0.133879	21.1262	-24.3935	-31.673
 249	1	2	0.291414	21.2506	-26.1556	-30.0044
 250	1	7	0.054943	22.3885	-27.2391	-32.1448
 251	1	7	-0.083103	21.7256	-26.2212	-33.4118
 252	1	2	-0.229696	20.5084	-28.2493	-34.39
 253	1	2	-0.134961	20.6051	-29.214	-32.0214
 254	1	7	0.062626	20.2258	-27.37	-34.9767
 255	1	7	0.065775	19.815	-29.0647	-34.6499
 256	1	7	0.079929	21.5229	-28.5473	-34.6856
 257	1	7	0.050506	20.5112	-28.975	-30.9535
 258	1	7	0.024431	21.5892	-29.6755	-32.1582
 259	1	7	0.052051	19.8335	-29.9584	-32.2567
 260	1	2	-0.079385	21.9768	-24.8628	-29.4718
 261	1	7	-0.096983	21.9123	-27.0376	-29.9645
 262	1	7	0.069866	20.3948	-26.3996	-29.3673
 263	1	2	-0.079851	23.4902	-25.1819	-29.3294
 264	1	2	-0.424117	21.4295	-24.3538	-28.1307
 265	1	1	-0.32128	21.7528	-23.8427	-30.5799
 266	1	7	0.133743	21.5659	-25.1042	-27.3432
 267	1	7	0.116477	20.3618	-24.1235	-28.2061
 268	1	7	0.082726	21.9532	-23.4395	-27.8199
 269	1	7	0.078262	23.9156	-25.4818	-30.2933
 270	1	7	-0.001602	23.6925	-25.9963	-28.626
 271	1	7	0.028854	24.0461	-24.2984	-28.9939
 272	1	3	0.315808	22.445	-21.9997	-29.6587
 273	1	3	0.28245	20.2743	-24.0526	-33.6398
 274	1	8	-0.039852	20.8069	-21.4312	-33.8524
 275	1	8	-0.059152	21.8873	-20.318	-31.5871
 276	1	1	0.135239	20.9311	-9.18913	-33.263
 277	1	1	-0.124676	19.5322	-9.17418	-33.4238
 278	1	1	0.190416	19.7522	-10.767	-35.2941
 279	1	1	-0.226961	18.943	-9.945	-34.4593
 280	1	1	-0.017982	21.5279	-13.6052	-36.9989
 281	1	1	-0.195812	21.1351	-14.9504	-37.0699
 282	1	1	-0.244042	21.8828	-13.0501	-35.7822
 283	1	1	0.131216	21.1766	-15.7324	-35.9099
 284	1	1	-0.480889	21.9183	-13.8219	-34.5975
 285	1	1	0.420559	21.574	-15.1706	-34.6744
 286	1	2	0.094496	21.6156	-12.6186	-38.1419
 287	1	3	0.181616	20.852	-15.385	-38.0203
 288	1	2	0.106535	22.1515	-11.5737	-35.8992
 289	1	4	-0.32219	20.8305	-17.079	-35.9738
 290	1	3	0.25841	22.1845	-13.3823	-33.6404
 291	1	1	0.380364	21.0581	-17.8849	-34.8745
 292	1	1	-0.639904	20.7751	-19.2683	-34.9492
 293	1	1	0.40258	21.5163	-17.3056	-33.6736
 294	1	1	0.235245	21.0329	-20.0753	-33.8126
 295	1	1	-0.64044	21.8197	-18.1265	-32.5574
 296	1	1	0.243455	21.5671	-19.501	-32.6314
 297	1	5	0.683739	20.3618	-19.8596	-36.1925
 298	1	4	-0.371861	21.6518	-15.9531	-33.5388
 299	1	5	0.675894	22.2975	-17.5505	-31.3334
 300	1	6	-0.526708	22.6879	-17.1626	-30.3229
 301	1	6	-0.532274	20.016	-20.4295	-37.1343
 302	1	2	0.077971	22.0117	-11.2815	-37.4257
 303	1	1	-0.133879	21.1321	-10.7762	-35.1023
 304	1	2	0.291414	23.5072	-11.1174	-35.2864
 305	1	7	0.054943	22.9322	-10.8825	-37.8521
 306	1	7	-0.083103	21.2453	-10.5123	-37.6076
 307	1	2	-0.229696	20.2774	-12.4625	-38.9013
 308	1	2	-0.134961	22.7013	-13.023	-39.1627
 309	1	7	0.062626	20.3557	-11.6872	-39.669
 310	1	7	0.065775	19.4645	-12.1843	-38.2294
 311	1	7	0.079929	19.9874	-13.3994	-39.3949
 312	1	7	0.050506	22.4659	-13.9836	-39.6329
 313	1	7	0.024431	23.6779	-13.1224	-38.67
 314	1	7	0.052051	22.7959	-12.2724	-39.9588
 315	1	2	-0.079385	23.2302	-10.0667	-34.1546
 316	1	7	-0.096983	24.1426	-10.6563	-36.0559
 317	1	7	0.069866	24.0554	-11.9808	-34.8961
 318	1	2	-0.079851	23.8554	-8.69554	-34.5351
 319	1	2	-0.424117	23.7634	-10.5255	-32.7702
 320	1	1	-0.32128	21.7138	-9.97161	-34.1273
 321	1	7	0.133743	23.5406	-9.79375	-31.9902
 322	1	7	0.116477	24.8528	-10.6842	-32.7828
 323	1	7	0.082726	23.286	-11.4659	-32.474
 324	1	7	0.078262	23.4631	-8.36744	-35.5035
 325	1	7	-0.001602	24.9497	-8.74915	-34.6032
 326	1	7	0.028854	23.6052	-7.92636	-33.7905
 327	1	3	0.315808	21.4154	-8.5794	-32.4973
 328	1	3	0.28245	19.3269	-11.3684	-36.0865
 329	1	8	-0.039852	17.6034	-9.83956	-34.7038
 330	1	8	-0.059152	18.713	-8.38976	-32.6453
 331	1	1	0.135239	9.85021	-0.795951	-30.2488
 332	1	1	-0.124676	8.79741	-1.7228	-30.1571
 333	1	1	0.190416	9.63856	-2.90372	-32.1218
 334	1	1	-0.226961	8.68148	-2.75944	-31.1063
 335	1	1	-0.017982	11.9587	-3.72639	-34.7744
 336	1	1	-0.195812	12.4003	-5.00844	-35.1756
 337	1	1	-0.244042	12.3249	-3.20955	-33.531
 338	1	1	0.131216	13.2684	-5.69393	-34.3496
 339	1	1	-0.480889	13.1614	-3.92572	-32.6662
 340	1	1	0.420559	13.6872	-5.14072	-33.1092
 341	1	2	0.094496	11.1404	-2.74455	-35.5924
 342	1	3	0.181616	12.1443	-5.42552	-36.1474
 343	1	2	0.106535	11.7024	-1.86772	-33.2773
 344	1	4	-0.32219	13.7869	-6.90103	-34.7687
 345	1	3	0.25841	13.4811	-3.56278	-31.6925
 346	1	1	0.380364	14.91	-7.42459	-34.0975
 347	1	1	-0.639904	15.6195	-8.46597	-34.7171
 348	1	1	0.40258	15.4033	-6.80795	-32.9137
 349	1	1	0.235245	16.8532	-8.84842	-34.1622
 350	1	1	-0.64044	16.6495	-7.14336	-32.3894
 351	1	1	0.243455	17.4122	-8.1445	-33.0431
 352	1	5	0.683739	15.1621	-9.06518	-35.9395
 353	1	4	-0.371861	14.6754	-5.777	-32.3771
 354	1	5	0.675894	17.1563	-6.38647	-31.3028
 355	1	6	-0.526708	17.5132	-5.75211	-30.409
 356	1	6	-0.532274	14.7353	-9.49157	-36.918
 357	1	2	0.077971	11.0328	-1.49831	-34.6433
 358	1	1	-0.133879	10.6666	-1.95538	-32.195
 359	1	2	0.291414	12.6935	-0.759854	-32.7836
 360	1	7	0.054943	11.5515	-0.637998	-35.0823
 361	1	7	-0.083103	9.98126	-1.19344	-34.5397
 362	1	2	-0.229696	9.73687	-3.33276	-35.9499
 363	1	2	-0.134961	11.854	-2.38605	-36.9134
 364	1	7	0.062626	9.13916	-2.59103	-36.4921
 365	1	7	0.065775	9.17008	-3.62285	-35.0605
 366	1	7	0.079929	9.81089	-4.21945	-36.5993
 367	1	7	0.050506	12.8652	-2.00196	-36.7123
 368	1	7	0.024431	11.3066	-1.61794	-37.4643
 369	1	7	0.052051	11.9379	-3.27491	-37.5596
 370	1	2	-0.079385	11.9344	0.0217997	-31.6614
 371	1	7	-0.096983	13.0575	-0.0846314	-33.5793
 372	1	7	0.069866	13.58	-1.21956	-32.3258
 373	1	2	-0.079851	11.4057	1.37533	-32.1956
 374	1	2	-0.424117	12.8562	0.237206	-30.435
 375	1	1	-0.32128	10.7835	-0.908103	-31.2964
 376	1	7	0.133743	13.1738	-0.708069	-29.9847
 377	1	7	0.116477	12.3678	0.834771	-29.6644
 378	1	7	0.082726	13.7718	0.775845	-30.7291
 379	1	7	0.078262	10.8459	1.9127	-31.4159
 380	1	7	-0.001602	10.7289	1.20287	-33.0461
 381	1	7	0.028854	12.2365	2.01114	-32.5387
 382	1	3	0.315808	9.91115	0.0316151	-29.543
 383	1	3	0.28245	9.57165	-3.71086	-32.8459
 384	1	8	-0.039852	7.58901	-3.58078	-31.0683
 385	1	8	-0.059152	7.82099	-1.56128	-29.2225
 386	1	1	0.135239	-3.38372	-0.232688	-25.3392
 387	1	1	-0.124676	-3.45317	-1.5106	-24.7361
 388	1	1	0.190416	-2.34667	-2.51944	-26.6532
 389	1	1	-0.226961	-2.93873	-2.643	-25.3864
 390	1	1	-0.017982	-0.665742	-2.60287	-29.9998
 391	1	1	-0.195812	0.440217	-3.34213	-30.4568
 392	1	1	-0.244042	-0.514032	-1.6452	-28.9912
 393	1	1	0.131216	1.69609	-3.09565	-29.8674
 394	1	1	-0.480889	0.744816	-1.38539	-28.406
 395	1	1	0.420559	1.85177	-2.10078	-28.8529
 396	1	2	0.094496	-2.08266	-2.67826	-30.5371
 397	1	3	0.181616	0.327213	-4.06689	-31.2611
 398	1	2	0.106535	-1.83957	-0.962841	-28.6729
 399	1	4	-0.32219	2.82566	-3.75876	-30.3229
 400	1	3	0.25841	0.88879	-0.650196	-27.6273
 401	1	1	0.380364	4.07053	-3.30958	-29.9652
 402	1	1	-0.639904	5.20559	-3.78795	-30.6476
 403	1	1	0.40258	4.1985	-2.30523	-28.9627
 404	1	1	0.235245	6.46201	-3.20916	-30.3508
 405	1	1	-0.64044	5.46081	-1.75573	-28.6491
 406	1	1	0.243455	6.58956	-2.1874	-29.3746
 407	1	5	0.683739	5.05989	-4.75077	-31.6936
 408	1	4	-0.371861	3.08396	-1.80354	-28.3484
 409	1	5	0.675894	5.56688	-0.715098	-27.6908
 410	1	6	-0.526708	5.72747	0.138281	-26.9308
 411	1	6	-0.532274	4.85284	-5.54596	-32.5141
 412	1	2	0.077971	-2.81805	-1.53684	-29.7563
 413	1	1	-0.133879	-2.31241	-1.26198	-27.2636
 414	1	2	0.291414	-1.7898	0.600788	-28.6521
 415	1	7	0.054943	-3.14854	-0.74337	-30.4392
 416	1	7	-0.083103	-3.7223	-1.91882	-29.2698
 417	1	2	-0.229696	-2.71187	-4.06088	-30.2497
 418	1	2	-0.134961	-2.12731	-2.38652	-32.0502
 419	1	7	0.062626	-3.75091	-4.10218	-30.6098
 420	1	7	0.065775	-2.72784	-4.26381	-29.1767
 421	1	7	0.079929	-2.13293	-4.86107	-30.7217
 422	1	7	0.050506	-1.60661	-3.18016	-32.608
 423	1	7	0.024431	-1.64002	-1.42006	-32.2621
 424	1	7	0.052051	-3.16412	-2.33299	-32.4051
 425	1	2	-0.079385	-2.71007	1.09654	-27.4872
 426	1	7	-0.096983	-2.05835	1.0552	-29.6149
 427	1	7	0.069866	-0.75971	0.920198	-28.4501
 428	1	2	-0.079851	-4.0932	1.53805	-28.0118
 429	1	2	-0.424117	-2.07053	2.25322	-26.6977
 430	1	1	-0.32128	-2.83912	-0.139467	-26.6304
 431	1	7	0.133743	-2.72857	2.61197	-25.8959
 432	1	7	0.116477	-1.83704	3.09655	-27.3678
 433	1	7	0.082726	-1.13383	1.92727	-26.2301
 434	1	7	0.078262	-4.01014	2.40158	-28.6794
 435	1	7	-0.001602	-4.77548	1.79764	-27.2021
 436	1	7	0.028854	-4.56862	0.729449	-28.5846
 437	1	3	0.315808	-3.78539	0.641665	-24.818
 438	1	3	0.28245	-1.9285	-3.36912	-27.166
 439	1	8	-0.039852	-3.064	-3.88234	-24.8148
 440	1	8	-0.059152	-4.06167	-1.65173	-23.5138
 441	1	1	0.135239	-9.24237	-6.26604	-13.8448
 442	1	1	-0.124676	-7.94571	-6.51998	-13.3502
 443	1	1	0.190416	-7.20906	-7.3076	-15.5572
 444	1	1	-0.226961	-6.93209	-7.01549	-14.2004
 445	1	1	-0.017982	-7.60369	-8.22277	-19.1557
 446	1	1	-0.195812	-6.66318	-8.12573	-20.1961
 447	1	1	-0.244042	-8.0302	-7.09669	-18.4702
 448	1	1	0.131216	-6.16291	-6.85719	-20.5482
 449	1	1	-0.480889	-7.51744	-5.83193	-18.7978
 450	1	1	0.420559	-6.58917	-5.71565	-19.8316
 451	1	2	0.094496	-8.25904	-9.49358	-18.6519
 452	1	3	0.181616	-6.32574	-9.00155	-20.7283
 453	1	2	0.106535	-9.04247	-7.41843	-17.4041
 454	1	4	-0.32219	-5.27524	-6.72571	-21.602
 455	1	3	0.25841	-7.83657	-4.94154	-18.2663
 456	1	1	0.380364	-4.91107	-5.47247	-22.0345
 457	1	1	-0.639904	-4.13757	-5.34428	-23.1987
 458	1	1	0.40258	-5.34841	-4.32461	-21.309
 459	1	1	0.235245	-3.82844	-4.05733	-23.666
 460	1	1	-0.64044	-5.05881	-3.03866	-21.7909
 461	1	1	0.243455	-4.29207	-2.90051	-22.9691
 462	1	5	0.683739	-3.69795	-6.5009	-23.9074
 463	1	4	-0.371861	-6.14154	-4.4723	-20.189
 464	1	5	0.675894	-5.53986	-1.8919	-21.0836
 465	1	6	-0.526708	-5.97112	-1.02637	-20.4711
 466	1	6	-0.532274	-3.40722	-7.48205	-24.4185
 467	1	2	0.077971	-9.27765	-8.95431	-17.6036
 468	1	1	-0.133879	-8.51016	-7.10199	-16.0212
 469	1	2	0.291414	-10.3651	-6.60323	-17.4657
 470	1	7	0.054943	-10.3006	-9.14885	-17.9383
 471	1	7	-0.083103	-9.16371	-9.49881	-16.6547
 472	1	2	-0.229696	-7.22576	-10.4411	-17.9829
 473	1	2	-0.134961	-8.97904	-10.2362	-19.7914
 474	1	7	0.062626	-7.70204	-11.3274	-17.549
 475	1	7	0.065775	-6.67299	-9.93644	-17.1788
 476	1	7	0.079929	-6.49069	-10.7825	-18.7191
 477	1	7	0.050506	-8.27439	-10.5581	-20.5692
 478	1	7	0.024431	-9.72585	-9.57665	-20.2639
 479	1	7	0.052051	-9.50302	-11.1333	-19.425
 480	1	2	-0.079385	-10.806	-6.38634	-15.9636
 481	1	7	-0.096983	-11.131	-7.09272	-18.0825
 482	1	7	0.069866	-10.1703	-5.63308	-17.9377
 483	1	2	-0.079851	-11.8318	-7.4851	-15.5306
 484	1	2	-0.424117	-11.4005	-4.96958	-15.7197
 485	1	1	-0.32128	-9.49215	-6.55616	-15.204
 486	1	7	0.133743	-10.6744	-4.17713	-15.9553
 487	1	7	0.116477	-11.7154	-4.82677	-14.6754
 488	1	7	0.082726	-12.2794	-4.81694	-16.3626
 489	1	7	0.078262	-12.0674	-7.39405	-14.4691
 490	1	7	-0.001602	-11.4415	-8.49922	-15.6965
 491	1	7	0.028854	-12.7785	-7.37517	-16.0803
 492	1	3	0.315808	-10.0163	-5.87256	-13.1926
 493	1	3	0.28245	-6.44632	-7.69525	-16.2215
 494	1	8	-0.039852	-5.68205	-7.26146	-13.679
 495	1	8	-0.059152	-7.67932	-6.32493	-12.0214
 496	1	1	0.135239	-4.42218	-9.10332	-1.56487
 497	1	1	-0.124676	-5.14104	-10.2205	-2.03829
 498	1	1	0.190416	-3.82857	-10.1695	-4.10815
 499	1	1	-0.226961	-4.84126	-10.7518	-3.30886
 500	1	1	-0.017982	-1.2602	-8.44133	-6.58454
 501	1	1	-0.195812	-1.38194	-8.34073	-7.98569
 502	1	1	-0.244042	-2.31754	-8.07705	-5.75798
 503	1	1	0.131216	-2.59875	-7.88627	-8.51181
 504	1	1	-0.480889	-3.54092	-7.6197	-6.28564
 505	1	1	0.420559	-3.66945	-7.50984	-7.66847
 506	1	2	0.094496	-0.0580954	-8.90882	-5.76908
 507	1	3	0.181616	-0.558713	-8.62521	-8.63558
 508	1	2	0.106535	-2.01374	-8.30253	-4.2936
 509	1	4	-0.32219	-2.76102	-7.83807	-9.88012
 510	1	3	0.25841	-4.37416	-7.33174	-5.6403
 511	1	1	0.380364	-3.96444	-7.42469	-10.4249
 512	1	1	-0.639904	-4.15392	-7.48983	-11.8086
 513	1	1	0.40258	-5.01497	-7.00802	-9.564
 514	1	1	0.235245	-5.42402	-7.13737	-12.3393
 515	1	1	-0.64044	-6.2609	-6.62672	-10.0855
 516	1	1	0.243455	-6.47083	-6.69248	-11.48
 517	1	5	0.683739	-3.10771	-7.92102	-12.6579
 518	1	4	-0.371861	-4.83548	-7.01742	-8.19774
 519	1	5	0.675894	-7.30506	-6.20729	-9.19685
 520	1	6	-0.526708	-8.09697	-5.89091	-8.42611
 521	1	6	-0.532274	-2.20243	-8.2695	-13.2997
 522	1	2	0.077971	-0.653284	-9.05834	-4.33502
 523	1	1	-0.133879	-3.1134	-9.07804	-3.59867
 524	1	2	0.291414	-1.94234	-6.99505	-3.46135
 525	1	7	0.054943	-0.841699	-10.1143	-4.11909
 526	1	7	-0.083103	0.0491581	-8.69856	-3.56526
 527	1	2	-0.229696	1.05659	-7.83203	-5.76517
 528	1	2	-0.134961	0.502422	-10.2563	-6.28412
 529	1	7	0.062626	1.4701	-7.72021	-6.77999
 530	1	7	0.065775	1.87364	-8.10388	-5.09168
 531	1	7	0.079929	0.666223	-6.84892	-5.4495
 532	1	7	0.050506	1.27798	-10.6335	-5.61019
 533	1	7	0.024431	0.942688	-10.1546	-7.28352
 534	1	7	0.052051	-0.293773	-11.0129	-6.33755
 535	1	2	-0.079385	-2.59201	-7.3044	-2.06556
 536	1	7	-0.096983	-2.52835	-6.2061	-3.95767
 537	1	7	0.069866	-0.921156	-6.6084	-3.36314
 538	1	2	-0.079851	-3.45296	-6.12089	-1.57846
 539	1	2	-0.424117	-1.54667	-7.67891	-0.998527
 540	1	1	-0.32128	-3.42019	-8.53012	-2.36464
 541	1	7	0.133743	-0.857002	-6.83601	-0.822387
 542	1	7	0.116477	-0.950793	-8.54993	-1.30285
 543	1	7	0.082726	-2.03048	-7.91592	-0.0394372
 544	1	7	0.078262	-4.2652	-5.91345	-2.29788
 545	1	7	-0.001602	-2.83662	-5.22344	-1.46496
 546	1	7	0.028854	-3.91243	-6.32917	-0.606644
 547	1	3	0.315808	-4.65645	-8.6617	-0.599407
 548	1	3	0.28245	-3.59608	-10.5327	-5.10519
 549	1	8	-0.039852	-5.52637	-11.8144	-3.8023
 550	1	8	-0.059152	-6.14586	-10.7736	-1.30225
 551	1	1	0.135239	-9.18622	-4.90727	8.39607
 552	1	1	-0.124676	-7.9623	-4.27102	8.08863
 553	1	1	0.190416	-6.9657	-6.43289	7.49788
 554	1	1	-0.226961	-6.86317	-5.02625	7.58392
 555	1	1	-0.017982	-7.08502	-10.4083	7.28508
 556	1	1	-0.195812	-6.39726	-11.2472	6.39962
 557	1	1	-0.244042	-7.80394	-9.31651	6.8213
 558	1	1	0.131216	-6.43893	-10.9603	5.03463
 559	1	1	-0.480889	-7.8523	-9.02522	5.44297
 560	1	1	0.420559	-7.18256	-9.85399	4.54852
 561	1	2	0.094496	-7.17228	-10.5547	8.79082
 562	1	3	0.181616	-5.84552	-12.1016	6.76503
 563	1	2	0.106535	-8.42996	-8.53386	7.95314
 564	1	4	-0.32219	-5.75397	-11.7589	4.15024
 565	1	3	0.25841	-8.42291	-8.17882	5.06831
 566	1	1	0.380364	-5.83984	-11.5149	2.79149
 567	1	1	-0.639904	-5.15789	-12.3404	1.89776
 568	1	1	0.40258	-6.62054	-10.4184	2.32416
 569	1	1	0.235245	-5.2697	-12.0802	0.514483
 570	1	1	-0.64044	-6.72989	-10.1642	0.941944
 571	1	1	0.243455	-6.05529	-11.0032	0.0444798
 572	1	5	0.683739	-4.3931	-13.4406	2.37212
 573	1	4	-0.371861	-7.24672	-9.56311	3.20687
 574	1	5	0.675894	-7.53698	-9.06937	0.491479
 575	1	6	-0.526708	-8.22474	-8.17145	0.21682
 576	1	6	-0.532274	-3.78291	-14.3035	2.83025
 577	1	2	0.077971	-7.75276	-9.17731	9.2211
 578	1	1	-0.133879	-8.16224	-7.04342	7.87144
 579	1	2	0.291414	-9.9796	-8.59822	8.00916
 580	1	7	0.054943	-8.45412	-9.26685	10.0561
 581	1	7	-0.083103	-6.93194	-8.53071	9.56555
 582	1	2	-0.229696	-5.79102	-10.827	9.44115
 583	1	2	-0.134961	-8.15992	-11.6942	9.14223
 584	1	7	0.062626	-5.86149	-10.7986	10.5331
 585	1	7	0.065775	-5.05651	-10.0665	9.14654
 586	1	7	0.079929	-5.39329	-11.8086	9.15763
 587	1	7	0.050506	-8.32948	-11.7649	10.2246
 588	1	7	0.024431	-7.77365	-12.6582	8.79266
 589	1	7	0.052051	-9.13369	-11.5225	8.6599
 590	1	2	-0.079385	-10.4562	-7.19316	8.54905
 591	1	7	-0.096983	-10.3767	-9.44391	8.59206
 592	1	7	0.069866	-10.3573	-8.71271	6.9868
 593	1	2	-0.079851	-10.741	-7.25168	10.0692
 594	1	2	-0.424117	-11.7171	-6.68434	7.80103
 595	1	1	-0.32128	-9.26913	-6.30214	8.27591
 596	1	7	0.133743	-12.0314	-5.6961	8.16307
 597	1	7	0.116477	-12.554	-7.37447	7.95568
 598	1	7	0.082726	-11.5519	-6.60063	6.72167
 599	1	7	0.078262	-9.83356	-7.49578	10.6345
 600	1	7	-0.001602	-11.505	-8.00518	10.3037
 601	1	7	0.028854	-11.1013	-6.28123	10.437
 602	1	3	0.315808	-10.0424	-4.33566	8.73117
 603	1	3	0.28245	-6.1428	-7.03405	7.13897
 604	1	8	-0.039852	-5.70431	-4.40743	7.20206
 605	1	8	-0.059152	-7.84151	-2.91496	8.30897
 606	1	1	0.135239	-10.9884	6.07846	15.463
 607	1	1	-0.124676	-10.0158	6.75418	14.7041
 608	1	1	0.190416	-8.58974	4.76776	14.7428
 609	1	1	-0.226961	-8.82461	6.08735	14.3162
 610	1	1	-0.017982	-7.51846	1.34226	15.8804
 611	1	1	-0.195812	-6.70916	0.407954	15.217
 612	1	1	-0.244042	-8.72306	1.76557	15.3221
 613	1	1	0.131216	-7.1451	-0.079672	13.9713
 614	1	1	-0.480889	-9.14684	1.30955	14.0503
 615	1	1	0.420559	-8.34251	0.375906	13.3761
 616	1	2	0.094496	-7.2067	2.01216	17.1972
 617	1	3	0.181616	-5.77686	0.0639688	15.6434
 618	1	2	0.106535	-9.41647	2.78794	16.1999
 619	1	4	-0.32219	-6.34263	-0.990328	13.3085
 620	1	3	0.25841	-10.0774	1.64619	13.5927
 621	1	1	0.380364	-6.71919	-1.47454	12.0823
 622	1	1	-0.639904	-5.89713	-2.41485	11.4386
 623	1	1	0.40258	-7.93243	-1.02353	11.4788
 624	1	1	0.235245	-6.27548	-2.89143	10.1764
 625	1	1	-0.64044	-8.31397	-1.50305	10.2218
 626	1	1	0.243455	-7.47381	-2.43153	9.55573
 627	1	5	0.683739	-4.698	-2.87728	12.0396
 628	1	4	-0.371861	-8.73347	-0.105631	12.137
 629	1	5	0.675894	-9.53381	-1.06136	9.60914
 630	1	6	-0.526708	-10.5211	-0.674935	9.16565
 631	1	6	-0.532274	-3.73631	-3.19718	12.5901
 632	1	2	0.077971	-8.50918	2.84176	17.4812
 633	1	1	-0.133879	-9.5396	4.15239	15.5662
 634	1	2	0.291414	-10.9071	2.48061	16.5642
 635	1	7	0.054943	-9.03447	2.39922	18.3357
 636	1	7	-0.083103	-8.2709	3.87718	17.7696