pySIMM System Object

782 atoms
874 bonds
1596 angles
2620 dihedrals
112 impropers

9 atom types
10 bond types
15 angle types
8 dihedral types
2 improper types

-135.465718 135.465718 xlo xhi
-135.465718 135.465718 ylo yhi
-135.465718 135.465718 zlo zhi

Masses

   1	12.01	# ca
   2	12.01	# c3
   3	1.008	# ha
   4	16.0	# os
   5	12.01	# cg
   6	14.01	# n1
   7	1.008	# hc
   8	16.0	# oh
   9	1.008	# ho

Pair Coeffs

   1	0.086	3.3996695084235347	# ca
   2	0.1094	3.3996695084235347	# c3
   3	0.015	2.59964245953351	# ha
   4	0.17	3.0000123434657784	# os
   5	0.21	3.3996695084235347	# cg
   6	0.17	3.249998523775958	# n1
   7	0.0157	2.649532787749369	# hc
   8	0.2104	3.0664733878390478	# oh
   9	0.0047	0.5379246460131368	# ho

Bond Coeffs

   1	943.1	1.1566	# cg,n1
   2	321.0	1.5156	# c3,ca
   3	300.9	1.5375	# c3,c3
   4	330.6	1.0969	# c3,hc
   5	376.6	1.3696	# ca,os
   6	461.1	1.3984	# ca,ca
   7	371.4	0.973	# ho,oh
   8	384.0	1.3637	# ca,oh
   9	345.8	1.086	# ca,ha
  10	413.3	1.4328	# ca,cg

Angle Coeffs

   1	69.52	119.9	# ca,ca,oh
   2	63.56	112.24	# ca,c3,ca
   3	63.48	119.89	# ca,os,ca
   4	65.72	120.27	# ca,ca,cg
   5	48.18	119.88	# ca,ca,ha
   6	39.4	107.58	# hc,c3,hc
   7	63.53	120.77	# c3,ca,ca
   8	69.58	119.2	# ca,ca,os
   9	58.92	179.49	# ca,cg,n1
  10	49.0	108.58	# ca,oh,ho
  11	62.86	111.51	# c3,c3,c3
  12	66.62	120.02	# ca,ca,ca
  13	63.15	112.07	# c3,c3,ca
  14	46.34	109.8	# c3,c3,hc
  15	63.5	119.89	# ca,oh,ca

Dihedral Coeffs

   1	1	3.625	2	180	# X,ca,ca,X
   2	1	3.625	2	180	# X,cg,ca,ca
   3	1	0.15555555555555556	3	0	# X,c3,c3,X
   4	1	0.0	2	0	# X,c3,ca,X
   5	1	0.9	2	180	# X,ca,os,X
   6	3	0.18	3	0	0.25	2	180	0.2	1	180	# c3,c3,c3,c3
   7	1	0.9	2	180	# X,ca,oh,X
   8	1	0.16	3	0	# hc,c3,c3,c3

Improper Coeffs

   1	1.1	-1	2	# ca,X,X,ha
   2	1.1	-1	2	# ca,ca,ca,c3

Atoms

   1	1	1	0.135239	-7.65719	-10.1388	-35.4368
   2	1	1	-0.124676	-9.01055	-10.5163	-35.3692
   3	1	1	0.190416	-9.01686	-10.95	-37.8074
   4	1	1	-0.226961	-9.70636	-10.8465	-36.5702
   5	1	1	-0.017982	-6.80534	-11.2995	-41.3032
   6	1	1	-0.195812	-6.8226	-12.2749	-42.3276
   7	1	1	-0.244042	-6.8229	-11.6465	-39.9498
   8	1	1	0.131216	-6.8942	-13.6194	-41.9654
   9	1	1	-0.480889	-6.75646	-12.9802	-39.6062
  10	1	1	0.420559	-6.8914	-13.9497	-40.5902
  11	1	2	0.094496	-6.81878	-9.7866	-41.4409
  12	1	3	0.181616	-6.8602	-11.9772	-43.3844
  13	1	2	0.106535	-6.77425	-10.4513	-39.0152
  14	1	4	-0.32219	-7.06284	-14.5828	-42.9127
  15	1	3	0.25841	-6.67151	-13.3027	-38.5632
  16	1	1	0.380364	-7.12038	-15.9045	-42.5685
  17	1	1	-0.639904	-7.30425	-16.8628	-43.5839
  18	1	1	0.40258	-7.06661	-16.2654	-41.2137
  19	1	1	0.235245	-7.40952	-18.2324	-43.1992
  20	1	1	-0.64044	-7.13529	-17.6377	-40.8162
  21	1	1	0.243455	-7.39468	-18.6115	-41.8205
  22	1	5	0.683739	-7.31018	-16.5325	-44.9858
  23	1	4	-0.371861	-6.9043	-15.2678	-40.2493
  24	1	5	0.675894	-7.10084	-17.9958	-39.4261
  25	1	6	-0.526708	-7.08061	-18.2248	-38.2982
  26	1	6	-0.532274	-7.30309	-16.3435	-46.1405
  27	1	2	0.077971	-7.09471	-9.30073	-39.9647
  28	1	1	-0.133879	-7.67525	-10.5054	-37.8187
  29	1	2	0.291414	-5.35523	-10.2784	-38.4389
  30	1	7	0.054943	-6.56753	-8.3754	-39.7135
  31	1	7	-0.083103	-8.15055	-9.03896	-39.8361
  32	1	2	-0.229696	-8.0192	-9.28196	-42.3027
  33	1	2	-0.134961	-5.36897	-9.33909	-41.9428
  34	1	7	0.062626	-8.99113	-9.58111	-41.8788
  35	1	7	0.065775	-7.97703	-9.69766	-43.3154
  36	1	7	0.079929	-8.02512	-8.19288	-42.3569
  37	1	7	0.050506	-4.55852	-9.76112	-41.3455
  38	1	7	0.024431	-5.25316	-8.24841	-41.965
  39	1	7	0.052051	-5.23367	-9.67133	-42.9806
  40	1	2	-0.079385	-5.51473	-9.74827	-36.9713
  41	1	7	-0.096983	-4.7926	-9.55491	-39.0468
  42	1	7	0.069866	-4.79381	-11.2277	-38.472
  43	1	2	-0.079851	-5.26383	-8.20915	-37.0405
  44	1	2	-0.424117	-4.5615	-10.4184	-35.94
  45	1	1	-0.32128	-6.96925	-10.0427	-36.6884
  46	1	7	0.133743	-3.48454	-10.2045	-36.0782
  47	1	7	0.116477	-4.66978	-11.5264	-35.9457
  48	1	7	0.082726	-4.7854	-10.1512	-34.8954
  49	1	7	0.078262	-5.97537	-7.79847	-37.7649
  50	1	7	-0.001602	-4.27467	-7.89432	-37.4048
  51	1	7	0.028854	-5.49662	-7.71115	-36.0881
  52	1	3	0.315808	-7.11608	-9.86582	-34.5323
  53	1	3	0.28245	-9.49548	-11.234	-38.7481
  54	1	8	-0.039852	-11.0216	-11.1595	-36.5249
  55	1	8	-0.059152	-9.67081	-10.4065	-34.1911
  56	1	1	0.135239	-17.6368	-11.0855	-25.7242
  57	1	1	-0.124676	-17.0018	-12.4352	-25.4827
  58	1	1	0.190416	-16.9262	-12.8134	-27.917
  59	1	1	-0.226961	-16.6811	-13.2693	-26.5704
  60	1	1	-0.017982	-17.8755	-11.6497	-31.8298
  61	1	1	-0.195812	-17.1448	-11.8187	-33.0136
  62	1	1	-0.244042	-17.2278	-11.2487	-30.6898
  63	1	1	0.131216	-15.7998	-11.5707	-33.0093
  64	1	1	-0.480889	-15.8951	-10.8885	-30.6922
  65	1	1	0.420559	-15.1579	-11.062	-31.8791
  66	1	2	0.094496	-19.3865	-11.856	-31.5238
  67	1	3	0.181616	-17.5895	-12.2253	-33.9343
  68	1	2	0.106535	-18.0987	-11.0419	-29.467
  69	1	4	-0.32219	-15.0717	-11.8736	-34.1289
  70	1	3	0.25841	-15.4412	-10.4277	-29.8065
  71	1	1	0.380364	-13.7283	-11.5467	-34.1228
  72	1	1	-0.639904	-13.0528	-11.4681	-35.2826
  73	1	1	0.40258	-13.0922	-11.0468	-32.9927
  74	1	1	0.235245	-11.6632	-11.1973	-35.346
  75	1	1	-0.64044	-11.7327	-10.6317	-32.9865
  76	1	1	0.243455	-10.99	-10.7721	-34.1796
  77	1	5	0.683739	-13.7758	-11.8286	-36.4324
  78	1	4	-0.371861	-13.8234	-10.8682	-31.8129
  79	1	5	0.675894	-11.1499	-10.0522	-31.8103
  80	1	6	-0.526708	-10.499	-9.62975	-30.9785
  81	1	6	-0.532274	-14.5149	-12.2206	-37.2365
  82	1	2	0.077971	-19.4664	-11.6529	-29.9533
  83	1	1	-0.133879	-17.595	-11.583	-28.1331
  84	1	2	0.291414	-18.3966	-9.57042	-29.0715
  85	1	7	0.054943	-20.3054	-10.9643	-29.7859
  86	1	7	-0.083103	-19.778	-12.5106	-29.3517
  87	1	2	-0.229696	-19.9228	-13.29	-31.9026
  88	1	2	-0.134961	-20.1855	-10.7845	-32.3268
  89	1	7	0.062626	-19.243	-14.0459	-31.4292
  90	1	7	0.065775	-19.9443	-13.4212	-32.96
  91	1	7	0.079929	-20.9754	-13.4087	-31.5588
  92	1	7	0.050506	-21.2579	-11.0666	-32.2906
  93	1	7	0.024431	-19.8109	-10.8253	-33.3443
  94	1	7	0.052051	-20.0153	-9.75169	-32.0465
  95	1	2	-0.079385	-18.614	-9.43457	-27.5613
  96	1	7	-0.096983	-19.1576	-9.03539	-29.6554
  97	1	7	0.069866	-17.4591	-8.99416	-29.278
  98	1	2	-0.079851	-20.1152	-9.42153	-27.1587
  99	1	2	-0.424117	-17.8919	-8.17483	-26.9425
 100	1	1	-0.32128	-17.971	-10.7269	-27.0635
 101	1	7	0.133743	-17.9239	-8.23839	-25.8538
 102	1	7	0.116477	-18.3749	-7.2928	-27.3213
 103	1	7	0.082726	-16.8056	-8.0947	-27.1609
 104	1	7	0.078262	-20.1268	-9.33231	-26.055
 105	1	7	-0.001602	-20.6498	-10.3349	-27.5231
 106	1	7	0.028854	-20.6265	-8.55842	-27.601
 107	1	3	0.315808	-17.832	-10.3952	-24.9658
 108	1	3	0.28245	-16.6355	-13.3721	-28.869
 109	1	8	-0.039852	-16.0233	-14.4148	-26.3999
 110	1	8	-0.059152	-16.5979	-12.7675	-24.2462
 111	1	1	0.135239	-10.5712	-13.1472	-17.2939
 112	1	1	-0.124676	-10.8766	-12.3354	-18.351
 113	1	1	0.190416	-10.4865	-14.0818	-19.91
 114	1	1	-0.226961	-10.9142	-12.8337	-19.6685
 115	1	1	-0.017982	-10.9874	-17.8082	-20.8363
 116	1	1	-0.195812	-11.7983	-18.0135	-21.9854
 117	1	1	-0.244042	-11.3415	-16.9686	-19.86
 118	1	1	0.131216	-13.0402	-17.316	-22.0305
 119	1	1	-0.480889	-12.5659	-16.2705	-19.8337
 120	1	1	0.420559	-13.4003	-16.4306	-20.9905
 121	1	2	0.094496	-9.4741	-18.1582	-20.7585
 122	1	3	0.181616	-11.5089	-18.7306	-22.7719
 123	1	2	0.106535	-10.2694	-16.489	-18.9939
 124	1	4	-0.32219	-13.7916	-17.3675	-23.2038
 125	1	3	0.25841	-12.6297	-15.4615	-19.1258
 126	1	1	0.380364	-14.649	-16.3262	-23.5429
 127	1	1	-0.639904	-15.0079	-16.0125	-24.8622
 128	1	1	0.40258	-15.038	-15.5193	-22.4971
 129	1	1	0.235245	-15.6669	-14.8511	-25.1528
 130	1	1	-0.64044	-15.7682	-14.3295	-22.6459
 131	1	1	0.243455	-16.0318	-13.925	-24.0159
 132	1	5	0.683739	-14.4574	-16.9266	-25.9004
 133	1	4	-0.371861	-14.444	-15.6289	-21.2097
 134	1	5	0.675894	-15.9681	-13.3941	-21.5139
 135	1	6	-0.526708	-16.2333	-12.6382	-20.8511
 136	1	6	-0.532274	-13.9228	-17.7429	-26.5149
 137	1	2	0.077971	-8.9466	-17.2005	-19.6227
 138	1	1	-0.133879	-10.2616	-14.9898	-18.8874
 139	1	2	0.291414	-10.577	-16.9169	-17.5048
 140	1	7	0.054943	-8.27747	-17.6473	-18.8811
 141	1	7	-0.083103	-8.50036	-16.3025	-20.145
 142	1	2	-0.229696	-8.80707	-18.0106	-22.0825
 143	1	2	-0.134961	-9.35226	-19.6	-20.2567
 144	1	7	0.062626	-9.08056	-18.7175	-22.8507
 145	1	7	0.065775	-7.73302	-18.0226	-21.9849
 146	1	7	0.079929	-9.01996	-17.0053	-22.5391
 147	1	7	0.050506	-8.2949	-19.8797	-20.1198
 148	1	7	0.024431	-9.8321	-20.2782	-20.9412
 149	1	7	0.052051	-9.88289	-19.7734	-19.2975
 150	1	2	-0.079385	-10.2332	-15.6926	-16.6048
 151	1	7	-0.096983	-10.1298	-17.8415	-17.2587
 152	1	7	0.069866	-11.6217	-17.2027	-17.4538
 153	1	2	-0.079851	-8.74389	-15.9041	-16.0573
 154	1	2	-0.424117	-11.2132	-15.6028	-15.4518
 155	1	1	-0.32128	-10.3296	-14.509	-17.5334
 156	1	7	0.133743	-12.2175	-15.4747	-15.8104
 157	1	7	0.116477	-10.92	-14.81	-14.7692
 158	1	7	0.082726	-11.1388	-16.5336	-14.9473
 159	1	7	0.078262	-8.36591	-15.0234	-15.5774
 160	1	7	-0.001602	-8.0976	-16.0964	-16.9178
 161	1	7	0.028854	-8.67135	-16.7188	-15.3371
 162	1	3	0.315808	-10.594	-12.7243	-16.3426
 163	1	3	0.28245	-10.522	-14.4459	-20.9405
 164	1	8	-0.039852	-11.597	-12.1414	-20.6187
 165	1	8	-0.059152	-11.3579	-11.1025	-18.1168
 166	1	1	0.135239	-16.1821	-0.335739	-18.7351
 167	1	1	-0.124676	-17.319	-0.948577	-18.1228
 168	1	1	0.190416	-17.1761	-2.89461	-19.6207
 169	1	1	-0.226961	-17.7613	-2.19863	-18.5721
 170	1	1	-0.017982	-15.2071	-4.83025	-22.7527
 171	1	1	-0.195812	-14.9851	-6.19666	-23.0112
 172	1	1	-0.244042	-14.9908	-4.32448	-21.469
 173	1	1	0.131216	-14.4355	-6.98466	-21.9438
 174	1	1	-0.480889	-14.4983	-5.12453	-20.3741
 175	1	1	0.420559	-14.4081	-6.49374	-20.6249
 176	1	2	0.094496	-15.8558	-3.83725	-23.7289
 177	1	3	0.181616	-15.116	-6.69791	-23.9944
 178	1	2	0.106535	-15.3196	-2.81274	-21.4058
 179	1	4	-0.32219	-14.0847	-8.32406	-22.1423
 180	1	3	0.25841	-14.3178	-4.6771	-19.412
 181	1	1	0.380364	-13.482	-9.01383	-21.1464
 182	1	1	-0.639904	-12.8756	-10.2354	-21.4326
 183	1	1	0.40258	-13.1544	-8.32279	-19.9372
 184	1	1	0.235245	-12.1808	-10.8938	-20.388
 185	1	1	-0.64044	-12.4523	-9.02078	-18.9156
 186	1	1	0.243455	-12.0054	-10.3214	-19.1671
 187	1	5	0.683739	-13.2508	-10.9725	-22.6468
 188	1	4	-0.371861	-13.8533	-7.23386	-19.5788
 189	1	5	0.675894	-12.3594	-8.4249	-17.6356
 190	1	6	-0.526708	-12.3191	-7.88494	-16.6087
 191	1	6	-0.532274	-13.2885	-11.6593	-23.5674
 192	1	2	0.077971	-16.1363	-2.61869	-22.7835
 193	1	1	-0.133879	-16.0617	-2.27109	-20.1991
 194	1	2	0.291414	-14.0206	-1.96119	-21.4049
 195	1	7	0.054943	-15.9523	-1.66259	-23.3281
 196	1	7	-0.083103	-17.216	-2.62137	-22.5199
 197	1	2	-0.229696	-17.1556	-4.43144	-24.3433
 198	1	2	-0.134961	-14.8722	-3.49549	-24.8489
 199	1	7	0.062626	-17.7815	-4.85903	-23.5401
 200	1	7	0.065775	-16.8763	-5.2543	-25.0049
 201	1	7	0.079929	-17.7654	-3.75289	-24.947
 202	1	7	0.050506	-13.9589	-3.02056	-24.4528
 203	1	7	0.024431	-15.33	-2.84015	-25.6151
 204	1	7	0.052051	-14.5509	-4.4216	-25.3708
 205	1	2	-0.079385	-14.3216	-0.615187	-20.6412
 206	1	7	-0.096983	-13.7368	-1.77144	-22.4556
 207	1	7	0.069866	-13.1606	-2.52246	-20.9591
 208	1	2	-0.079851	-14.7556	0.539891	-21.6044
 209	1	2	-0.424117	-13.1621	-0.135987	-19.713
 210	1	1	-0.32128	-15.5406	-1.03569	-19.7845
 211	1	7	0.133743	-12.9455	-0.893463	-18.9503
 212	1	7	0.116477	-13.4595	0.830172	-19.2651
 213	1	7	0.082726	-12.2469	-0.0575392	-20.3068
 214	1	7	0.078262	-13.8731	0.886415	-22.168
 215	1	7	-0.001602	-15.1232	1.38068	-20.9974
 216	1	7	0.028854	-15.5496	0.270404	-22.3114
 217	1	3	0.315808	-15.8875	0.643302	-18.3733
 218	1	3	0.28245	-17.5669	-3.84604	-19.993
 219	1	8	-0.039852	-18.885	-2.71215	-17.9342
 220	1	8	-0.059152	-17.9869	-0.270923	-17.1297
 221	1	1	0.135239	-25.7714	4.74162	-11.5903
 222	1	1	-0.124676	-25.523	4.54693	-10.2263
 223	1	1	0.190416	-25.907	2.15236	-10.4582
 224	1	1	-0.226961	-25.5563	3.24904	-9.6469
 225	1	1	-0.017982	-25.7518	-0.909502	-13.483
 226	1	1	-0.195812	-24.8542	-1.82013	-14.0113
 227	1	1	-0.244042	-25.3503	0.425598	-13.2096
 228	1	1	0.131216	-23.5359	-1.4715	-14.2766
 229	1	1	-0.480889	-23.9797	0.798581	-13.397
 230	1	1	0.420559	-23.0725	-0.150127	-13.9111
 231	1	2	0.094496	-27.2518	-1.09323	-13.1486
 232	1	3	0.181616	-25.173	-2.82759	-14.2697
 233	1	2	0.106535	-26.5012	1.30298	-12.8339
 234	1	4	-0.32219	-22.6802	-2.29838	-14.9398
 235	1	3	0.25841	-23.6584	1.80028	-13.1595
 236	1	1	0.380364	-21.4769	-1.8278	-15.44
 237	1	1	-0.639904	-20.7523	-2.62932	-16.3724
 238	1	1	0.40258	-21.0319	-0.537722	-15.0387
 239	1	1	0.235245	-19.599	-2.08245	-16.8836
 240	1	1	-0.64044	-19.8279	-0.0114413	-15.5519
 241	1	1	0.243455	-19.1538	-0.756786	-16.5452
 242	1	5	0.683739	-21.2307	-3.89377	-16.7926
 243	1	4	-0.371861	-21.7914	0.257111	-14.1998
 244	1	5	0.675894	-19.3788	1.24767	-15.2419
 245	1	6	-0.526708	-18.7901	2.18741	-14.9428
 246	1	6	-0.532274	-21.5528	-4.92618	-17.1971
 247	1	2	0.077971	-27.597	0.270527	-12.4433
 248	1	1	-0.133879	-26.1799	2.3669	-11.8085
 249	1	2	0.291414	-26.9312	2.16604	-14.0748
 250	1	7	0.054943	-28.6064	0.657915	-12.6718
 251	1	7	-0.083103	-27.5904	0.133403	-11.3495
 252	1	2	-0.229696	-27.4538	-2.30528	-12.24
 253	1	2	-0.134961	-28.0498	-1.22499	-14.4927
 254	1	7	0.062626	-27.2271	-3.24	-12.7709
 255	1	7	0.065775	-28.4935	-2.3868	-11.9262
 256	1	7	0.079929	-26.7795	-2.28693	-11.3849
 257	1	7	0.050506	-29.1097	-1.38188	-14.2544
 258	1	7	0.024431	-27.7101	-2.09645	-15.0557
 259	1	7	0.052051	-27.9442	-0.342173	-15.1347
 260	1	2	-0.079385	-26.5343	3.65117	-13.8277
 261	1	7	-0.096983	-27.9913	2.09075	-14.332
 262	1	7	0.069866	-26.4543	1.76428	-14.9791
 263	1	2	-0.079851	-27.7675	4.58253	-13.9733
 264	1	2	-0.424117	-25.3488	4.13842	-14.6976
 265	1	1	-0.32128	-26.1082	3.62462	-12.385
 266	1	7	0.133743	-25.6498	4.07773	-15.7536
 267	1	7	0.116477	-24.4297	3.55832	-14.5536
 268	1	7	0.082726	-25.1216	5.19658	-14.4987
 269	1	7	0.078262	-28.2118	4.45485	-14.9727
 270	1	7	-0.001602	-27.5	5.64428	-13.8771
 271	1	7	0.028854	-28.5212	4.36461	-13.2063
 272	1	3	0.315808	-25.754	5.75042	-12.0101
 273	1	3	0.28245	-25.9507	1.14182	-10.0445
 274	1	8	-0.039852	-25.3075	3.08085	-8.32045
 275	1	8	-0.059152	-25.2146	5.61265	-9.43988
 276	1	1	0.135239	-22.5187	12.4241	-1.87652
 277	1	1	-0.124676	-21.1979	11.9221	-1.83645
 278	1	1	0.190416	-21.9928	9.87447	-0.776346
 279	1	1	-0.226961	-20.9338	10.6649	-1.2543
 280	1	1	-0.017982	-24.9501	7.22618	-0.946288
 281	1	1	-0.195812	-25.0105	6.06191	-1.72917
 282	1	1	-0.244042	-24.6841	8.43168	-1.56631
 283	1	1	0.131216	-24.8687	6.16093	-3.11463
 284	1	1	-0.480889	-24.538	8.54588	-2.96639
 285	1	1	0.420559	-24.6523	7.39107	-3.73814
 286	1	2	0.094496	-25.0539	7.39105	0.566228
 287	1	3	0.181616	-25.17	5.08283	-1.27815
 288	1	2	0.106535	-24.5627	9.58251	-0.558903
 289	1	4	-0.32219	-24.9647	5.01957	-3.89132
 290	1	3	0.25841	-24.341	9.50087	-3.4383
 291	1	1	0.380364	-25.0167	5.14992	-5.2933
 292	1	1	-0.639904	-25.1545	3.99503	-6.10217
 293	1	1	0.40258	-24.8109	6.43886	-5.86626
 294	1	1	0.235245	-25.1506	4.15478	-7.50871
 295	1	1	-0.64044	-24.9162	6.61329	-7.24045
 296	1	1	0.243455	-25.0722	5.46354	-8.06317
 297	1	5	0.683739	-25.2882	2.71987	-5.4685
 298	1	4	-0.371861	-24.5644	7.51395	-5.08959
 299	1	5	0.675894	-24.7698	7.90507	-7.84263
 300	1	6	-0.526708	-24.6362	8.98919	-8.24371
 301	1	6	-0.532274	-25.4227	1.62504	-5.16306
 302	1	2	0.077971	-24.5764	8.866	0.830404
 303	1	1	-0.133879	-23.3053	10.3634	-0.855919
 304	1	2	0.291414	-25.6744	10.6431	-0.760156
 305	1	7	0.054943	-25.2094	9.39847	1.54325
 306	1	7	-0.083103	-23.5723	8.84433	1.27376
 307	1	2	-0.229696	-24.1995	6.36327	1.3411
 308	1	2	-0.134961	-26.5518	7.26327	0.977404
 309	1	7	0.062626	-24.591	5.35225	1.16095
 310	1	7	0.065775	-24.2326	6.57073	2.41503
 311	1	7	0.079929	-23.1572	6.3958	0.996928
 312	1	7	0.050506	-26.6853	7.42759	2.05412
 313	1	7	0.024431	-26.9397	6.25796	0.770205
 314	1	7	0.052051	-27.1911	7.98743	0.449285
 315	1	2	-0.079385	-25.0291	11.9764	-1.30947
 316	1	7	-0.096983	-26.2102	10.8345	0.183876
 317	1	7	0.069866	-26.3973	10.2132	-1.45744
 318	1	2	-0.079851	-25.293	13.1606	-0.314441
 319	1	2	-0.424117	-25.5641	12.3105	-2.72029
 320	1	1	-0.32128	-23.5556	11.6406	-1.34222
 321	1	7	0.133743	-25.0388	13.1599	-3.1758
 322	1	7	0.116477	-26.638	12.549	-2.6825
 323	1	7	0.082726	-25.4355	11.4472	-3.38155
 324	1	7	0.078262	-24.8912	12.9612	0.690969
 325	1	7	-0.001602	-26.3699	13.337	-0.20893
 326	1	7	0.028854	-24.844	14.0953	-0.679102
 327	1	3	0.315808	-22.7419	13.3946	-2.31505
 328	1	3	0.28245	-21.7979	8.88107	-0.382288
 329	1	8	-0.039852	-19.6498	10.2521	-1.07832
 330	1	8	-0.059152	-20.1743	12.6234	-2.39853
 331	1	1	0.135239	-8.42647	13.9406	-6.0958
 332	1	1	-0.124676	-8.40825	12.5593	-6.36444
 333	1	1	0.190416	-10.0966	12.1932	-4.65136
 334	1	1	-0.226961	-9.29856	11.7013	-5.68733
 335	1	1	-0.017982	-11.595	12.6538	-1.58751
 336	1	1	-0.195812	-12.6518	11.854	-1.12305
 337	1	1	-0.244042	-11.7979	13.5951	-2.59398
 338	1	1	0.131216	-13.9304	12.0423	-1.65293
 339	1	1	-0.480889	-13.0908	13.8494	-3.08696
 340	1	1	0.420559	-14.1573	13.0889	-2.584
 341	1	2	0.094496	-10.1582	12.6519	-1.06916
 342	1	3	0.181616	-12.4913	11.1083	-0.349408
 343	1	2	0.106535	-10.4873	14.1827	-3.04729
 344	1	4	-0.32219	-14.9581	11.2294	-1.22663
 345	1	3	0.25841	-13.2914	14.5861	-3.85298
 346	1	1	0.380364	-16.2433	11.5211	-1.6275
 347	1	1	-0.639904	-17.2644	10.7013	-1.15555
 348	1	1	0.40258	-16.4974	12.6301	-2.48839
 349	1	1	0.235245	-18.6033	11.0359	-1.47986
 350	1	1	-0.64044	-17.8251	13.0175	-2.7396
 351	1	1	0.243455	-18.8718	12.2203	-2.21891
 352	1	5	0.683739	-16.9783	9.55921	-0.359245
 353	1	4	-0.371861	-15.4404	13.3544	-3.00334
 354	1	5	0.675894	-18.07	14.2104	-3.4842
 355	1	6	-0.526708	-18.3445	15.1689	-4.06334
 356	1	6	-0.532274	-16.8973	8.60085	0.274793
 357	1	2	0.077971	-9.51114	13.8176	-1.88006
 358	1	1	-0.133879	-9.99298	13.5386	-4.30472
 359	1	2	0.291414	-10.4217	15.6912	-3.40964
 360	1	7	0.054943	-9.34985	14.6888	-1.22831
 361	1	7	-0.083103	-8.5187	13.5182	-2.24672
 362	1	2	-0.229696	-9.41601	11.3055	-1.31358
 363	1	2	-0.134961	-10.1411	12.9609	0.447801
 364	1	7	0.062626	-8.36689	11.36	-1.00053
 365	1	7	0.065775	-9.42991	11.0125	-2.36588
 366	1	7	0.079929	-9.89062	10.4922	-0.750767
 367	1	7	0.050506	-9.11555	13.0487	0.844882
 368	1	7	0.024431	-10.6549	12.1672	1.009
 369	1	7	0.052051	-10.661	13.9038	0.655179
 370	1	2	-0.079385	-9.30355	15.8265	-4.50487
 371	1	7	-0.096983	-10.2171	16.344	-2.54845
 372	1	7	0.069866	-11.3941	15.9887	-3.82927
 373	1	2	-0.079851	-7.95847	16.2559	-3.88221
 374	1	2	-0.424117	-9.72578	16.8181	-5.60408
 375	1	1	-0.32128	-9.22475	14.4162	-5.04702
 376	1	7	0.133743	-9.86436	17.8334	-5.21244
 377	1	7	0.116477	-10.6659	16.4903	-6.06548
 378	1	7	0.082726	-8.96943	16.8694	-6.39454
 379	1	7	0.078262	-8.03654	17.2386	-3.39376
 380	1	7	-0.001602	-7.17067	16.3229	-4.64736
 381	1	7	0.028854	-7.62271	15.5288	-3.12978
 382	1	3	0.315808	-7.77881	14.6162	-6.63813
 383	1	3	0.28245	-10.7349	11.5328	-4.06508
 384	1	8	-0.039852	-9.18044	10.3572	-5.88902
 385	1	8	-0.059152	-7.42168	12.0126	-7.14724
 386	1	1	0.135239	2.7722	7.27946	-2.10581
 387	1	1	-0.124676	2.88237	5.94114	-2.52157
 388	1	1	0.190416	0.525475	5.91768	-3.19231
 389	1	1	-0.226961	1.76759	5.28167	-3.08648
 390	1	1	-0.017982	-3.00227	6.88374	-2.67537
 391	1	1	-0.195812	-4.20713	6.60456	-3.33708
 392	1	1	-0.244042	-2.0316	7.71108	-3.24933
 393	1	1	0.131216	-4.46626	7.24002	-4.55493
 394	1	1	-0.480889	-2.26619	8.3218	-4.5038
 395	1	1	0.420559	-3.51898	8.11887	-5.13928
 396	1	2	0.094496	-2.66988	6.48788	-1.26042
 397	1	3	0.181616	-4.97618	5.9883	-2.88336
 398	1	2	0.106535	-0.857958	7.93301	-2.30234
 399	1	4	-0.32219	-5.72867	7.16716	-5.08843
 400	1	3	0.25841	-1.5622	9.01716	-4.9498
 401	1	1	0.380364	-6.17353	8.25062	-5.79122
 402	1	1	-0.639904	-7.52526	8.58984	-5.72482
 403	1	1	0.40258	-5.24224	9.13186	-6.3953
 404	1	1	0.235245	-7.93952	9.85322	-6.21718
 405	1	1	-0.64044	-5.65515	10.3448	-6.97194
 406	1	1	0.243455	-7.01103	10.7227	-6.84724
 407	1	5	0.683739	-8.41692	7.7622	-4.98822
 408	1	4	-0.371861	-3.89311	8.88554	-6.2272
 409	1	5	0.675894	-4.69325	11.2343	-7.50915
 410	1	6	-0.526708	-3.86558	11.9199	-7.93992
 411	1	6	-0.532274	-9.0841	7.04082	-4.37418
 412	1	2	0.077971	-1.39792	7.34681	-0.953878
 413	1	1	-0.133879	0.419636	7.22115	-2.66668
 414	1	2	0.291414	-0.359652	9.40519	-2.12895
 415	1	7	0.054943	-1.69989	8.1786	-0.296884
 416	1	7	-0.083103	-0.626081	6.77287	-0.406372
 417	1	2	-0.229696	-2.40702	4.97406	-1.15476
 418	1	2	-0.134961	-3.82918	6.85329	-0.290585
 419	1	7	0.062626	-1.61257	4.63939	-1.8314
 420	1	7	0.065775	-3.31162	4.40109	-1.42286
 421	1	7	0.079929	-2.11091	4.70518	-0.1356
 422	1	7	0.050506	-4.11903	7.91109	-0.408908
 423	1	7	0.024431	-3.52625	6.69704	0.755141
 424	1	7	0.052051	-4.72569	6.25103	-0.467602
 425	1	2	-0.079385	1.15762	9.31407	-1.71465
 426	1	7	-0.096983	-0.942952	9.97072	-1.38204
 427	1	7	0.069866	-0.459037	9.92752	-3.09356
 428	1	2	-0.079851	1.34345	9.46137	-0.174177
 429	1	2	-0.424117	2.02625	10.365	-2.44382
 430	1	1	-0.32128	1.52552	7.92084	-2.19324
 431	1	7	0.133743	1.95189	10.2631	-3.53326
 432	1	7	0.116477	3.0804	10.2822	-2.16382
 433	1	7	0.082726	1.69703	11.3728	-2.18063
 434	1	7	0.078262	0.969606	10.4286	0.178157
 435	1	7	-0.001602	2.40001	9.37744	0.106686
 436	1	7	0.028854	0.785806	8.68317	0.362741
 437	1	3	0.315808	3.60097	7.7832	-1.63571
 438	1	3	0.28245	-0.359115	5.39823	-3.54912
 439	1	8	-0.039852	1.8781	3.94843	-3.39545
 440	1	8	-0.059152	3.99681	5.21619	-2.2179
 441	1	1	0.135239	7.27228	-0.894787	6.02193
 442	1	1	-0.124676	8.34354	-1.73989	5.68963
 443	1	1	0.190416	6.95537	-2.88577	4.02314
 444	1	1	-0.226961	8.17441	-2.75438	4.71873
 445	1	1	-0.017982	3.5076	-2.29383	1.60555
 446	1	1	-0.195812	3.11546	-1.88433	0.334134
 447	1	1	-0.244042	4.44626	-1.57428	2.34098
 448	1	1	0.131216	3.71517	-0.734977	-0.215853
 449	1	1	-0.480889	5.10613	-0.459982	1.77581
 450	1	1	0.420559	4.74177	-0.0426982	0.486528
 451	1	2	0.094496	2.91585	-3.4283	2.42679
 452	1	3	0.181616	2.32802	-2.40275	-0.204159
 453	1	2	0.106535	4.49367	-2.02443	3.79181
 454	1	4	-0.32219	3.22746	-0.210745	-1.39442
 455	1	3	0.25841	5.83234	0.113718	2.34387
 456	1	1	0.380364	3.50292	1.09893	-1.70141
 457	1	1	-0.639904	2.63852	1.80026	-2.56464
 458	1	1	0.40258	4.56813	1.76675	-1.02953
 459	1	1	0.235245	2.81915	3.18992	-2.73241
 460	1	1	-0.64044	4.78075	3.14265	-1.2397
 461	1	1	0.243455	3.91386	3.84691	-2.11025
 462	1	5	0.683739	1.51148	1.1383	-3.15915
 463	1	4	-0.371861	5.25414	1.12245	-0.0378565
 464	1	5	0.675894	5.83618	3.8026	-0.520628
 465	1	6	-0.526708	6.69763	4.24803	0.105885
 466	1	6	-0.532274	0.590957	0.6559	-3.65062
 467	1	2	0.077971	3.80755	-3.41837	3.70734
 468	1	1	-0.133879	5.89209	-2.0321	4.37231
 469	1	2	0.291414	3.72187	-1.02112	4.70955
 470	1	7	0.054943	3.23965	-3.65195	4.6161
 471	1	7	-0.083103	4.5653	-4.20476	3.60569
 472	1	2	-0.229696	3.00224	-4.75916	1.64933
 473	1	2	-0.134961	1.43975	-3.12369	2.76713
 474	1	7	0.062626	2.61665	-5.58232	2.25827
 475	1	7	0.065775	4.04304	-4.98597	1.3779
 476	1	7	0.079929	2.39661	-4.72562	0.738933
 477	1	7	0.050506	1.01494	-3.90006	3.4196
 478	1	7	0.024431	0.828082	-3.08956	1.85806
 479	1	7	0.052051	1.3258	-2.16532	3.28493
 480	1	2	-0.079385	4.75623	-0.326318	5.65551
 481	1	7	-0.096983	2.94173	-1.5362	5.28657
 482	1	7	0.069866	3.205	-0.262001	4.11541
 483	1	2	-0.079851	4.33322	-0.479365	7.12604
 484	1	2	-0.424117	4.96771	1.16535	5.32413
 485	1	1	-0.32128	6.03973	-1.07511	5.37479
 486	1	7	0.133743	5.33619	1.28037	4.29621
 487	1	7	0.116477	5.72392	1.61373	5.9762
 488	1	7	0.082726	4.03777	1.7404	5.42355
 489	1	7	0.078262	3.38384	0.0355367	7.30789
 490	1	7	-0.001602	5.09098	-0.0539095	7.79814
 491	1	7	0.028854	4.20725	-1.54213	7.38123
 492	1	3	0.315808	7.38402	-0.132325	6.78886
 493	1	3	0.28245	6.82374	-3.64573	3.25707
 494	1	8	-0.039852	9.18482	-3.66459	4.5086
 495	1	8	-0.059152	9.5298	-1.63007	6.34582
 496	1	1	0.135239	16.1145	-4.83944	14.0125
 497	1	1	-0.124676	14.7891	-5.14216	14.3834
 498	1	1	0.190416	14.5423	-6.60318	12.4296
 499	1	1	-0.226961	14.0214	-6.06586	13.6186
 500	1	1	-0.017982	15.4858	-7.33108	8.7112
 501	1	1	-0.195812	14.6626	-7.20556	7.57744
 502	1	1	-0.244042	15.6444	-6.26938	9.58715
 503	1	1	0.131216	14.0015	-5.98209	7.34685
 504	1	1	-0.480889	14.9981	-5.04003	9.36456
 505	1	1	0.420559	14.1764	-4.90268	8.23609
 506	1	2	0.094496	16.2826	-8.54534	9.15637
 507	1	3	0.181616	14.5186	-8.04077	6.90219
 508	1	2	0.106535	16.5337	-6.61279	10.7626
 509	1	4	-0.32219	13.1129	-5.87863	6.29246
 510	1	3	0.25841	15.1166	-4.20045	10.0441
 511	1	1	0.380364	12.2707	-4.7807	6.2303
 512	1	1	-0.639904	11.1892	-4.78317	5.31998
 513	1	1	0.40258	12.4664	-3.70109	7.13638
 514	1	1	0.235245	10.2798	-3.69414	5.341
 515	1	1	-0.64044	11.6001	-2.59719	7.1332
 516	1	1	0.243455	10.477	-2.62383	6.26662
 517	1	5	0.683739	11.0	-5.88537	4.45442
 518	1	4	-0.371861	13.4905	-3.72666	8.05236
 519	1	5	0.675894	11.8237	-1.4913	8.00404
 520	1	6	-0.526708	11.9379	-0.560002	8.68183
 521	1	6	-0.532274	10.79	-6.75066	3.71706
 522	1	2	0.077971	16.7383	-8.1505	10.5997
 523	1	1	-0.133879	15.8534	-6.2599	12.063
 524	1	2	0.291414	17.8689	-5.80463	10.8033
 525	1	7	0.054943	16.1263	-8.67438	11.3419
 526	1	7	-0.083103	17.775	-8.45672	10.7974
 527	1	2	-0.229696	17.494	-8.73347	8.21713
 528	1	2	-0.134961	15.4088	-9.82761	9.17037
 529	1	7	0.062626	18.104	-7.81903	8.16101
 530	1	7	0.065775	17.1589	-8.95941	7.19392
 531	1	7	0.079929	18.1316	-9.54975	8.56717
 532	1	7	0.050506	14.5258	-9.68497	9.80024
 533	1	7	0.024431	15.969	-10.695	9.55402
 534	1	7	0.052051	15.0672	-10.0704	8.15642
 535	1	2	-0.079385	18.0028	-5.178	12.2348
 536	1	7	-0.096983	17.861	-5.01911	10.0324
 537	1	7	0.069866	18.7399	-6.44218	10.5941
 538	1	2	-0.079851	18.2992	-3.66289	12.169
 539	1	2	-0.424117	19.0612	-5.89752	13.0965
 540	1	1	-0.32128	16.6423	-5.42614	12.8438
 541	1	7	0.133743	19.0751	-5.51163	14.124
 542	1	7	0.116477	20.0647	-5.78731	12.6638
 543	1	7	0.082726	18.8263	-6.96958	13.1342
 544	1	7	0.078262	19.229	-3.46909	11.6213
 545	1	7	-0.001602	18.3868	-3.23112	13.1703
 546	1	7	0.028854	17.4755	-3.14833	11.6521
 547	1	3	0.315808	16.7154	-4.17529	14.6272
 548	1	3	0.28245	13.9306	-7.22365	11.7865
 549	1	8	-0.039852	12.743	-6.40413	13.9877
 550	1	8	-0.059152	14.2102	-4.43154	15.4065
 551	1	1	0.135239	11.8239	5.54117	21.3698
 552	1	1	-0.124676	10.5338	5.03194	21.6777
 553	1	1	0.190416	10.2566	4.3106	19.3535
 554	1	1	-0.226961	9.76195	4.41613	20.6671
 555	1	1	-0.017982	11.4492	3.76243	15.7218
 556	1	1	-0.195812	11.2511	2.66838	14.8572
 557	1	1	-0.244042	12.0863	3.5873	16.9519
 558	1	1	0.131216	11.726	1.41043	15.2497
 559	1	1	-0.480889	12.5786	2.32542	17.3402
 560	1	1	0.420559	12.3945	1.23241	16.478
 561	1	2	0.094496	11.0355	5.2046	15.4642
 562	1	3	0.181616	10.7524	2.78775	13.9027
 563	1	2	0.106535	12.1893	4.88755	17.7124
 564	1	4	-0.32219	11.5462	0.352498	14.3879
 565	1	3	0.25841	13.0758	2.16794	18.3015
 566	1	1	0.380364	12.1657	-0.85394	14.6615
 567	1	1	-0.639904	12.1138	-1.88578	13.7202
 568	1	1	0.40258	12.8782	-1.03872	15.8912
 569	1	1	0.235245	12.7854	-3.09862	13.9938
 570	1	1	-0.64044	13.548	-2.24498	16.1632
 571	1	1	0.243455	13.5129	-3.27267	15.1955
 572	1	5	0.683739	11.3414	-1.7546	12.5364
 573	1	4	-0.371861	12.9138	0.00335056	16.8109
 574	1	5	0.675894	14.2462	-2.40981	17.3917
 575	1	6	-0.526708	14.7899	-2.4819	18.4026
 576	1	6	-0.532274	10.7654	-1.76509	11.5395
 577	1	2	0.077971	11.4999	5.93631	16.7719
 578	1	1	-0.133879	11.5262	4.82598	19.0706
 579	1	2	0.291414	13.6633	5.27515	18.0605
 580	1	7	0.054943	12.1656	6.77473	16.5397
 581	1	7	-0.083103	10.6447	6.39995	17.2801
 582	1	2	-0.229696	9.51352	5.32671	15.2795
 583	1	2	-0.134961	11.7621	5.76742	14.228
 584	1	7	0.062626	8.98709	4.86362	16.126
 585	1	7	0.065775	9.16916	4.82087	14.3675
 586	1	7	0.079929	9.19585	6.3772	15.2346
 587	1	7	0.050506	12.8485	5.62099	14.3101
 588	1	7	0.024431	11.5609	6.83881	14.1204
 589	1	7	0.052051	11.4156	5.2609	13.3187
 590	1	2	-0.079385	13.6404	5.89084	19.5052
 591	1	7	-0.096983	14.1139	5.96507	17.3294
 592	1	7	0.069866	14.2964	4.37779	18.0766
 593	1	2	-0.079851	13.646	7.43865	19.4576
 594	1	2	-0.424117	14.8137	5.40441	20.3827
 595	1	1	-0.32128	12.3132	5.40629	20.059
 596	1	7	0.133743	14.7601	4.31143	20.5107
 597	1	7	0.116477	14.8109	5.86035	21.3827
 598	1	7	0.082726	15.7874	5.63547	19.9332
 599	1	7	0.078262	14.5719	7.80587	18.9944
 600	1	7	-0.001602	13.5827	7.85077	20.4743
 601	1	7	0.028854	12.792	7.81447	18.8778
 602	1	3	0.315808	12.4292	6.0541	22.1154
 603	1	3	0.28245	9.67843	3.84133	18.5595
 604	1	8	-0.039852	8.49917	3.954	20.9198
 605	1	8	-0.059152	10.0234	5.25215	22.9325
 606	1	1	0.135239	17.417	3.3829	31.4509
 607	1	1	-0.124676	17.9642	2.6197	30.3918
 608	1	1	0.190416	15.7912	1.54701	30.0313
 609	1	1	-0.226961	17.1471	1.70912	29.6822
 610	1	1	-0.017982	11.9107	1.3375	30.4452
 611	1	1	-0.195812	10.9696	1.13067	29.4268
 612	1	1	-0.244042	12.8849	2.33043	30.325
 613	1	1	0.131216	11.0383	1.93098	28.2708
 614	1	1	-0.480889	12.9695	3.12115	29.1591
 615	1	1	0.420559	12.0327	2.92493	28.1376
 616	1	2	0.094496	12.0391	0.586761	31.7541
 617	1	3	0.181616	10.1854	0.386535	29.5319
 618	1	2	0.106535	13.8235	2.34838	31.5146
 619	1	4	-0.32219	10.1081	1.76278	27.2692
 620	1	3	0.25841	13.7321	3.88457	29.0342
 621	1	1	0.380364	10.1169	2.59008	26.1704
 622	1	1	-0.639904	9.12719	2.46157	25.18
 623	1	1	0.40258	11.1283	3.58842	26.0407
 624	1	1	0.235245	9.11991	3.34043	24.0894
 625	1	1	-0.64044	11.1198	4.47094	24.9435
 626	1	1	0.243455	10.1101	4.3454	23.9603
 627	1	5	0.683739	8.08465	1.48301	25.3239
 628	1	4	-0.371861	12.1071	3.70998	27.0028
 629	1	5	0.675894	12.0959	5.50823	24.8641
 630	1	6	-0.526708	12.8395	6.38036	24.7215
 631	1	6	-0.532274	7.28055	0.686019	25.4897
 632	1	2	0.077971	13.4205	1.07479	32.3015
 633	1	1	-0.133879	15.2637	2.32067	31.0806
 634	1	2	0.291414	13.7619	3.64595	32.3749
 635	1	7	0.054943	13.3846	1.24211	33.3877
 636	1	7	-0.083103	14.1868	0.301956	32.1313
 637	1	2	-0.229696	12.0373	-0.949995	31.5439
 638	1	2	-0.134961	10.8961	0.972296	32.7305
 639	1	7	0.062626	12.8402	-1.25599	30.8504
 640	1	7	0.065775	11.0791	-1.2967	31.1326