pySIMM System Object

2261 atoms
2545 bonds
4674 angles
7702 dihedrals
328 impropers

9 atom types
10 bond types
15 angle types
8 dihedral types
2 improper types

-197.031176 197.031176 xlo xhi
-197.031176 197.031176 ylo yhi
-197.031176 197.031176 zlo zhi

Masses

   1	12.01	# ca
   2	12.01	# c3
   3	1.008	# ha
   4	16.0	# os
   5	12.01	# cg
   6	14.01	# n1
   7	1.008	# hc
   8	16.0	# oh
   9	1.008	# ho

Pair Coeffs

   1	0.086	3.3996695084235347	# ca
   2	0.1094	3.3996695084235347	# c3
   3	0.015	2.59964245953351	# ha
   4	0.17	3.0000123434657784	# os
   5	0.21	3.3996695084235347	# cg
   6	0.17	3.249998523775958	# n1
   7	0.0157	2.649532787749369	# hc
   8	0.2104	3.0664733878390478	# oh
   9	0.0047	0.5379246460131368	# ho

Bond Coeffs

   1	376.6	1.3696	# ca,os
   2	371.4	0.973	# ho,oh
   3	461.1	1.3984	# ca,ca
   4	384.0	1.3637	# ca,oh
   5	345.8	1.086	# ca,ha
   6	300.9	1.5375	# c3,c3
   7	413.3	1.4328	# ca,cg
   8	943.1	1.1566	# cg,n1
   9	321.0	1.5156	# c3,ca
  10	330.6	1.0969	# c3,hc

Angle Coeffs

   1	63.53	120.77	# c3,ca,ca
   2	48.18	119.88	# ca,ca,ha
   3	69.58	119.2	# ca,ca,os
   4	65.72	120.27	# ca,ca,cg
   5	63.56	112.24	# ca,c3,ca
   6	66.62	120.02	# ca,ca,ca
   7	58.92	179.49	# ca,cg,n1
   8	62.86	111.51	# c3,c3,c3
   9	49.0	108.58	# ca,oh,ho
  10	63.15	112.07	# c3,c3,ca
  11	46.34	109.8	# c3,c3,hc
  12	69.52	119.9	# ca,ca,oh
  13	63.48	119.89	# ca,os,ca
  14	39.4	107.58	# hc,c3,hc
  15	63.5	119.89	# ca,oh,ca

Dihedral Coeffs

   1	1	0.15555555555555556	3	0	# X,c3,c3,X
   2	1	0.0	2	0	# X,c3,ca,X
   3	1	0.16	3	0	# hc,c3,c3,c3
   4	1	0.9	2	180	# X,ca,os,X
   5	3	0.18	3	0	0.25	2	180	0.2	1	180	# c3,c3,c3,c3
   6	1	0.9	2	180	# X,ca,oh,X
   7	1	3.625	2	180	# X,ca,ca,X
   8	1	3.625	2	180	# X,cg,ca,ca

Improper Coeffs

   1	1.1	-1	2	# ca,ca,ca,c3
   2	1.1	-1	2	# ca,X,X,ha

Atoms

   1	1	1	0.135239	26.6979	-106.807	43.7542
   2	1	1	-0.124676	28.0412	-106.671	43.4883
   3	1	1	0.190416	28.4987	-107.085	45.8772
   4	1	1	-0.226961	28.9692	-106.863	44.5589
   5	1	1	-0.017982	27.2588	-107.763	49.6346
   6	1	1	-0.195812	27.8505	-108.611	50.5585
   7	1	1	-0.244042	27.0923	-108.237	48.3522
   8	1	1	0.131216	28.2352	-109.907	50.2214
   9	1	1	-0.480889	27.5013	-109.515	47.9522
  10	1	1	0.420559	28.0975	-110.353	48.9035
  11	1	2	0.094496	26.7386	-106.356	49.8149
  12	1	3	0.181616	27.948	-108.269	51.5804
  13	1	2	0.106535	26.4398	-107.196	47.4535
  14	1	4	-0.32219	28.7859	-110.711	51.2324
  15	1	3	0.25841	27.355	-109.875	46.953
  16	1	1	0.380364	29.1845	-112.002	50.8986
  17	1	1	-0.639904	29.7866	-112.811	51.8744
  18	1	1	0.40258	29.0612	-112.45	49.5509
  19	1	1	0.235245	30.3139	-114.082	51.5054
  20	1	1	-0.64044	29.5335	-113.715	49.1748
  21	1	1	0.243455	30.1972	-114.523	50.1417
  22	1	5	0.683739	29.9136	-112.344	53.2345
  23	1	4	-0.371861	28.4963	-111.618	48.6091
  24	1	5	0.675894	29.4337	-114.135	47.8115
  25	1	6	-0.526708	29.3952	-114.586	46.7541
  26	1	6	-0.532274	29.9798	-111.889	54.3017
  27	1	2	0.077971	26.4928	-105.938	48.3146
  28	1	1	-0.133879	27.1288	-107.064	46.1177
  29	1	2	0.291414	24.9881	-107.582	47.0178
  30	1	7	0.054943	25.5522	-105.368	48.2551
  31	1	7	-0.083103	27.2786	-105.304	47.9035
  32	1	2	-0.229696	27.849	-105.516	50.4815
  33	1	2	-0.134961	25.4335	-106.402	50.6322
  34	1	7	0.062626	28.0233	-105.862	51.5172
  35	1	7	0.065775	27.6207	-104.445	50.5255
  36	1	7	0.079929	28.7864	-105.647	49.9209
  37	1	7	0.050506	24.9216	-105.419	50.7017
  38	1	7	0.024431	25.6298	-106.751	51.6526
  39	1	7	0.052051	24.7686	-107.136	50.1647
  40	1	2	-0.079385	24.8304	-107.119	45.5151
  41	1	7	-0.096983	24.2371	-107.111	47.6513
  42	1	7	0.069866	24.8455	-108.652	47.1243
  43	1	2	-0.079851	24.0308	-105.761	45.4039
  44	1	2	-0.424117	24.0766	-108.163	44.6185
  45	1	1	-0.32128	26.2562	-106.963	45.079
  46	1	7	0.133743	23.1035	-108.322	45.0927
  47	1	7	0.116477	24.5151	-109.17	44.514
  48	1	7	0.082726	23.859	-107.76	43.6179
  49	1	7	0.078262	23.0713	-105.944	45.8807
  50	1	7	-0.001602	23.8275	-105.495	44.3591
  51	1	7	0.028854	24.4457	-104.885	45.9325
  52	1	3	0.315808	25.9528	-106.802	42.9612
  53	1	3	0.28245	29.2196	-107.167	46.6973
  54	1	8	-0.039852	30.3024	-106.728	44.333
  55	1	8	-0.059152	28.4975	-106.522	42.2404
  56	1	1	0.135239	34.6101	-104.463	32.7934
  57	1	1	-0.124676	34.4148	-105.839	32.6475
  58	1	1	0.190416	35.3078	-106.203	34.8937
  59	1	1	-0.226961	34.8322	-106.711	33.6977
  60	1	1	-0.017982	36.1669	-104.789	38.5125
  61	1	1	-0.195812	35.7556	-105.107	39.8483
  62	1	1	-0.244042	35.2398	-104.54	37.4668
  63	1	1	0.131216	34.3692	-105.362	40.0401
  64	1	1	-0.480889	33.8686	-104.76	37.6787
  65	1	1	0.420559	33.4564	-105.11	38.9969
  66	1	2	0.094496	37.6201	-104.491	38.032
  67	1	3	0.181616	36.4827	-105.155	40.639
  68	1	2	0.106535	35.9288	-104.107	36.1997
  69	1	4	-0.32219	33.9087	-105.713	41.3252
  70	1	3	0.25841	33.1103	-104.69	36.9174
  71	1	1	0.380364	32.5588	-105.778	41.5857
  72	1	1	-0.639904	32.1914	-106.214	42.8244
  73	1	1	0.40258	31.6063	-105.613	40.4841
  74	1	1	0.235245	30.8118	-106.461	43.0514
  75	1	1	-0.64044	30.2516	-106.037	40.6819
  76	1	1	0.243455	29.8572	-106.184	42.008
  77	1	5	0.683739	33.1213	-106.286	43.9085
  78	1	4	-0.371861	32.0852	-105.405	39.2317
  79	1	5	0.675894	29.3484	-105.731	39.6775
  80	1	6	-0.526708	28.6955	-105.456	38.7222
  81	1	6	-0.532274	33.9409	-106.106	44.7014
  82	1	2	0.077971	37.4385	-104.332	36.4755
  83	1	1	-0.133879	35.4761	-104.842	34.9658
  84	1	2	0.291414	35.57	-102.64	35.8897
  85	1	7	0.054943	38.0383	-103.506	36.0382
  86	1	7	-0.083103	37.7675	-105.255	35.9653
  87	1	2	-0.229696	38.5401	-105.628	38.4552
  88	1	2	-0.134961	38.0996	-103.142	38.5793
  89	1	7	0.062626	38.11	-106.546	38.0547
  90	1	7	0.065775	38.594	-105.652	39.5538
  91	1	7	0.079929	39.5512	-105.511	38.0329
  92	1	7	0.050506	37.3851	-102.361	38.3061
  93	1	7	0.024431	39.0739	-102.853	38.173
  94	1	7	0.052051	38.1743	-103.176	39.6736
  95	1	2	-0.079385	35.3825	-102.567	34.3347
  96	1	7	-0.096983	36.2321	-101.889	36.3358
  97	1	7	0.069866	34.5847	-102.415	36.2861
  98	1	2	-0.079851	36.7109	-102.122	33.6201
  99	1	2	-0.424117	34.2265	-101.566	33.991
 100	1	1	-0.32128	35.1303	-103.975	33.964
 101	1	7	0.133743	34.133	-101.371	32.9136
 102	1	7	0.116477	34.4632	-100.607	34.4702
 103	1	7	0.082726	33.2514	-101.925	34.3574
 104	1	7	0.078262	36.5766	-102.09	32.5332
 105	1	7	-0.001602	37.5742	-102.763	33.821
 106	1	7	0.028854	36.9816	-101.11	33.9403
 107	1	3	0.315808	34.2851	-103.807	32.0082
 108	1	3	0.28245	35.5722	-106.853	35.7124
 109	1	8	-0.039852	34.6683	-108.071	33.5283
 110	1	8	-0.059152	33.8996	-106.352	31.4507
 111	1	1	0.135239	27.7756	-112.461	24.7775
 112	1	1	-0.124676	26.856	-112.537	25.845
 113	1	1	0.190416	28.5007	-113.774	27.1874
 114	1	1	-0.226961	27.217	-113.249	27.0291
 115	1	1	-0.017982	32.1294	-114.206	28.2313
 116	1	1	-0.195812	32.7234	-113.748	29.409
 117	1	1	-0.244042	31.5928	-113.329	27.277
 118	1	1	0.131216	32.8278	-112.35	29.5968
 119	1	1	-0.480889	31.6806	-111.943	27.4589
 120	1	1	0.420559	32.3055	-111.466	28.6324
 121	1	2	0.094496	31.8943	-115.646	27.8178
 122	1	3	0.181616	33.0586	-114.456	30.1607
 123	1	2	0.106535	30.8684	-114.012	26.1448
 124	1	4	-0.32219	33.3634	-111.86	30.7584
 125	1	3	0.25841	31.2371	-111.246	26.7342
 126	1	1	0.380364	33.4769	-110.492	30.9908
 127	1	1	-0.639904	33.9976	-109.995	32.2157
 128	1	1	0.40258	32.988	-109.597	29.9982
 129	1	1	0.235245	34.1496	-108.591	32.373
 130	1	1	-0.64044	33.117	-108.194	30.1689
 131	1	1	0.243455	33.6688	-107.702	31.3588
 132	1	5	0.683739	34.4827	-110.902	33.1754
 133	1	4	-0.371861	32.4085	-110.109	28.8332
 134	1	5	0.675894	32.7148	-107.275	29.1211
 135	1	6	-0.526708	32.3665	-106.666	28.2123
 136	1	6	-0.532274	34.9148	-111.558	34.0038
 137	1	2	0.077971	31.0601	-115.506	26.4817
 138	1	1	-0.133879	29.407	-113.635	26.1238
 139	1	2	0.291414	31.4096	-113.585	24.7493
 140	1	7	0.054943	31.578	-116.014	25.6642
 141	1	7	-0.083103	30.0937	-116.008	26.5611
 142	1	2	-0.229696	31.1067	-116.462	28.8712
 143	1	2	-0.134961	33.2486	-116.324	27.556
 144	1	7	0.062626	30.8269	-117.445	28.4798
 145	1	7	0.065775	30.1934	-115.919	29.1557
 146	1	7	0.079929	31.6974	-116.621	29.7909
 147	1	7	0.050506	33.1148	-117.338	27.1688
 148	1	7	0.024431	33.7997	-116.419	28.4943
 149	1	7	0.052051	33.8422	-115.77	26.821
 150	1	2	-0.079385	30.2207	-112.992	23.9405
 151	1	7	-0.096983	31.926	-114.387	24.2072
 152	1	7	0.069866	32.1475	-112.791	24.8842
 153	1	2	-0.079851	29.8843	-113.954	22.788
 154	1	2	-0.424117	30.4961	-111.539	23.4147
 155	1	1	-0.32128	29.0625	-113.01	24.9223
 156	1	7	0.133743	31.3356	-111.537	22.696
 157	1	7	0.116477	30.7369	-110.853	24.2383
 158	1	7	0.082726	29.6366	-111.141	22.8735
 159	1	7	0.078262	30.733	-113.985	22.0999
 160	1	7	-0.001602	29.0411	-113.6	22.2014
 161	1	7	0.028854	29.6739	-114.971	23.1575
 162	1	3	0.315808	27.5023	-111.931	23.8697
 163	1	3	0.28245	28.8087	-114.247	28.1164
 164	1	8	-0.039852	26.2792	-113.355	28.0113
 165	1	8	-0.059152	25.6169	-111.898	25.7751
 166	1	1	0.135239	18.8326	-104.966	30.9635
 167	1	1	-0.124676	20.0613	-104.993	31.643
 168	1	1	0.190416	19.9453	-107.442	31.8025
 169	1	1	-0.226961	20.6101	-106.237	32.086
 170	1	1	-0.017982	18.9366	-110.723	31.0975
 171	1	1	-0.195812	19.961	-111.681	30.9994
 172	1	1	-0.244042	18.8418	-109.682	30.1675
 173	1	1	0.131216	20.8694	-111.533	29.9256
 174	1	1	-0.480889	19.6803	-109.596	29.058
 175	1	1	0.420559	20.7009	-110.541	28.9204
 176	1	2	0.094496	17.941	-110.59	32.2157
 177	1	3	0.181616	20.1279	-112.465	31.7424
 178	1	2	0.106535	17.9159	-108.593	30.6781
 179	1	4	-0.32219	21.9573	-112.336	29.8881
 180	1	3	0.25841	19.6399	-108.792	28.3371
 181	1	1	0.380364	22.8993	-112.161	28.8791
 182	1	1	-0.639904	24.0772	-112.916	28.9358
 183	1	1	0.40258	22.6736	-111.232	27.8317
 184	1	1	0.235245	25.0288	-112.751	27.9145
 185	1	1	-0.64044	23.516	-111.146	26.745
 186	1	1	0.243455	24.7231	-111.917	26.8117
 187	1	5	0.683739	24.3436	-113.784	30.0363
 188	1	4	-0.371861	21.5929	-110.419	27.8865
 189	1	5	0.675894	23.255	-110.347	25.5968
 190	1	6	-0.526708	22.9783	-109.67	24.7135
 191	1	6	-0.532274	24.64	-114.502	30.8773
 192	1	2	0.077971	17.144	-109.284	31.8829
 193	1	1	-0.133879	18.7378	-107.394	31.1183
 194	1	2	0.291414	16.9705	-107.949	29.6223
 195	1	7	0.054943	16.1151	-109.505	31.5767
 196	1	7	-0.083103	17.0587	-108.677	32.7943
 197	1	2	-0.229696	18.6341	-110.459	33.5987
 198	1	2	-0.134961	16.9776	-111.777	32.2595
 199	1	7	0.062626	19.2988	-109.584	33.7127
 200	1	7	0.065775	19.1974	-111.374	33.8483
 201	1	7	0.079929	17.8453	-110.361	34.3555
 202	1	7	0.050506	16.4359	-111.872	31.3176
 203	1	7	0.024431	16.2202	-111.602	33.0333
 204	1	7	0.052051	17.5012	-112.709	32.4652
 205	1	2	-0.079385	16.9053	-106.43	29.9228
 206	1	7	-0.096983	15.9639	-108.4	29.6099
 207	1	7	0.069866	17.3775	-108.084	28.6042
 208	1	2	-0.079851	15.7095	-106.097	30.8251
 209	1	2	-0.424117	16.903	-105.62	28.6054
 210	1	1	-0.32128	18.1976	-106.194	30.6744
 211	1	7	0.133743	16.7507	-104.558	28.8267
 212	1	7	0.116477	16.1094	-105.909	27.915
 213	1	7	0.082726	17.8729	-105.739	28.1018
 214	1	7	0.078262	14.7445	-106.208	30.3322
 215	1	7	-0.001602	15.779	-105.063	31.1956
 216	1	7	0.028854	15.7191	-106.755	31.71
 217	1	3	0.315808	18.3957	-104.041	30.6028
 218	1	3	0.28245	20.394	-108.398	32.0587
 219	1	8	-0.039852	21.8196	-106.275	32.742
 220	1	8	-0.059152	20.7739	-103.854	31.83
 221	1	1	0.135239	29.2114	-96.0675	33.7638
 222	1	1	-0.124676	29.509	-96.4513	32.4134
 223	1	1	0.190416	29.4433	-98.8473	32.9478
 224	1	1	-0.226961	29.5975	-97.807	32.0073
 225	1	1	-0.017982	28.3617	-101.813	35.5843
 226	1	1	-0.195812	27.6027	-102.972	35.3498
 227	1	1	-0.244042	27.8887	-100.582	35.1162
 228	1	1	0.131216	26.3745	-102.894	34.6438
 229	1	1	-0.480889	26.6573	-100.468	34.4205
 230	1	1	0.420559	25.9191	-101.643	34.1469
 231	1	2	0.094496	29.6848	-101.646	36.2739
 232	1	3	0.181616	28.0134	-103.894	35.7353
 233	1	2	0.106535	28.8585	-99.4383	35.439
 234	1	4	-0.32219	25.6573	-104.048	34.3638
 235	1	3	0.25841	26.2132	-99.5391	34.0577
 236	1	1	0.380364	24.4618	-104.001	33.7288
 237	1	1	-0.639904	23.7576	-105.168	33.5799
 238	1	1	0.40258	23.9467	-102.73	33.3145
 239	1	1	0.235245	22.5238	-105.113	32.8925
 240	1	1	-0.64044	22.7026	-102.679	32.6547
 241	1	1	0.243455	21.9829	-103.86	32.4955
 242	1	5	0.683739	24.2794	-106.394	34.0783
 243	1	4	-0.371861	24.6876	-101.576	33.5042
 244	1	5	0.675894	22.194	-101.389	32.2088
 245	1	6	-0.526708	21.6704	-100.453	31.788
 246	1	6	-0.532274	24.6227	-107.448	34.4163
 247	1	2	0.077971	30.1294	-100.187	35.9203
 248	1	1	-0.133879	29.1393	-98.4988	34.2843
 249	1	2	0.291414	28.2182	-98.4786	36.478
 250	1	7	0.054943	30.6157	-99.735	36.7828
 251	1	7	-0.083103	30.8948	-100.162	35.1272
 252	1	2	-0.229696	30.7608	-102.655	35.7887
 253	1	2	-0.134961	29.5108	-101.791	37.8184
 254	1	7	0.062626	31.7335	-102.447	36.2451
 255	1	7	0.065775	30.8724	-102.584	34.6945
 256	1	7	0.079929	30.5151	-103.687	36.0031
 257	1	7	0.050506	29.1341	-102.783	38.088
 258	1	7	0.024431	28.793	-101.049	38.1961
 259	1	7	0.052051	30.4727	-101.611	38.3381
 260	1	2	-0.079385	28.6148	-97.0271	36.088
 261	1	7	-0.096983	28.5937	-98.6902	37.4855
 262	1	7	0.069866	27.1292	-98.6217	36.5133
 263	1	2	-0.079851	29.846	-96.5921	36.9101
 264	1	2	-0.424117	27.448	-96.0516	36.2305
 265	1	1	-0.32128	29.0139	-97.1287	34.6715
 266	1	7	0.133743	27.1331	-95.8622	37.2627
 267	1	7	0.116477	26.6112	-96.4916	35.6909
 268	1	7	0.082726	27.659	-95.0734	35.7738
 269	1	7	0.078262	30.7054	-97.2087	36.6198
 270	1	7	-0.001602	29.7236	-96.6937	37.994
 271	1	7	0.028854	30.1288	-95.5559	36.6736
 272	1	3	0.315808	29.1258	-95.0223	34.0603
 273	1	3	0.28245	29.4659	-99.9091	32.6765
 274	1	8	-0.039852	29.792	-98.1068	30.6974
 275	1	8	-0.059152	29.6023	-95.4957	31.461
 276	1	1	0.135239	31.9873	-89.1394	22.3843
 277	1	1	-0.124676	30.6304	-89.2275	21.8404
 278	1	1	0.190416	30.5968	-91.5987	22.1504
 279	1	1	-0.226961	29.9737	-90.4158	21.7825
 280	1	1	-0.017982	32.4416	-95.0912	23.2233
 281	1	1	-0.195812	32.0813	-96.064	24.1237
 282	1	1	-0.244042	32.2748	-93.8029	23.6665
 283	1	1	0.131216	31.4978	-95.7613	25.3608
 284	1	1	-0.480889	31.8229	-93.3952	24.9071
 285	1	1	0.420559	31.477	-94.4242	25.7857
 286	1	2	0.094496	33.1004	-95.1439	21.8194
 287	1	3	0.181616	32.2664	-97.0926	23.8354
 288	1	2	0.106535	32.8525	-92.7496	22.6562
 289	1	4	-0.32219	31.1307	-96.759	26.2273
 290	1	3	0.25841	31.7856	-92.3395	25.1414
 291	1	1	0.380364	30.6257	-96.4297	27.5034
 292	1	1	-0.639904	30.3126	-97.465	28.4262
 293	1	1	0.40258	30.5804	-95.0874	27.925
 294	1	1	0.235245	29.9847	-97.123	29.7595
 295	1	1	-0.64044	30.1523	-94.785	29.2289
 296	1	1	0.243455	29.8272	-95.7826	30.1372
 297	1	5	0.683739	30.5757	-98.7983	27.9285
 298	1	4	-0.371861	30.9538	-94.0782	27.0207
 299	1	5	0.675894	30.1838	-93.4071	29.6383
 300	1	6	-0.526708	30.208	-92.2779	29.8892
 301	1	6	-0.532274	30.7347	-99.8956	27.6072
 302	1	2	0.077971	33.0015	-93.6389	21.3787
 303	1	1	-0.133879	31.938	-91.5667	22.49
 304	1	2	0.291414	34.183	-92.0291	23.1449
 305	1	7	0.054943	33.8319	-93.3733	20.7492
 306	1	7	-0.083103	32.1302	-93.5716	20.7141
 307	1	2	-0.229696	32.3582	-96.155	20.9357
 308	1	2	-0.134961	34.6043	-95.4649	22.0652
 309	1	7	0.062626	32.5627	-97.1681	21.314
 310	1	7	0.065775	32.7157	-96.1418	19.8957
 311	1	7	0.079929	31.2724	-95.9876	20.9105
 312	1	7	0.050506	35.0731	-94.6965	22.6763
 313	1	7	0.024431	35.2016	-95.5585	21.1807
 314	1	7	0.052051	34.7175	-96.3671	22.6807
 315	1	2	-0.079385	34.05	-90.4927	22.8155
 316	1	7	-0.096983	35.112	-92.4812	22.7916
 317	1	7	0.069866	34.2032	-92.1168	24.228
 318	1	2	-0.079851	34.7653	-90.1148	21.5125
 319	1	2	-0.424117	34.4293	-89.5362	23.9109
 320	1	1	-0.32128	32.6534	-90.394	22.5922
 321	1	7	0.133743	34.2066	-88.4724	23.7145
 322	1	7	0.116477	35.5232	-89.6618	24.1815
 323	1	7	0.082726	33.8451	-89.7522	24.8108
 324	1	7	0.078262	34.3911	-89.1691	21.0625
 325	1	7	-0.001602	34.5375	-90.842	20.7566
 326	1	7	0.028854	35.851	-90.0158	21.6811
 327	1	3	0.315808	32.4368	-88.1158	22.4142
 328	1	3	0.28245	30.0226	-92.5051	22.0465
 329	1	8	-0.039852	28.5717	-90.4065	21.497
 330	1	8	-0.059152	29.976	-88.0721	21.7092
 331	1	1	0.135239	22.1941	-79.9839	18.5774
 332	1	1	-0.124676	21.896	-79.9836	19.9755
 333	1	1	0.190416	21.6818	-82.3547	19.9948
 334	1	1	-0.226961	21.8016	-81.1941	20.7565
 335	1	1	-0.017982	22.3815	-86.0344	18.0924
 336	1	1	-0.195812	22.9701	-87.2748	18.4383
 337	1	1	-0.244042	22.9306	-84.7482	18.2989
 338	1	1	0.131216	24.1888	-87.1018	19.0962
 339	1	1	-0.480889	24.2246	-84.6941	19.0114
 340	1	1	0.420559	24.7914	-85.882	19.3812
 341	1	2	0.094496	21.0348	-85.8449	17.3766
 342	1	3	0.181616	22.51	-88.2625	18.3666
 343	1	2	0.106535	22.1589	-83.6363	17.6729
 344	1	4	-0.32219	24.8977	-88.2304	19.4112
 345	1	3	0.25841	24.7903	-83.7901	19.2335
 346	1	1	0.380364	26.1715	-88.1092	19.9441
 347	1	1	-0.639904	26.6988	-89.2733	20.4358
 348	1	1	0.40258	26.808	-86.9063	20.2363
 349	1	1	0.235245	27.9646	-89.268	21.0354
 350	1	1	-0.64044	28.0433	-86.8805	20.7918
 351	1	1	0.243455	28.6749	-88.0591	21.2401
 352	1	5	0.683739	25.9783	-90.5208	20.3622
 353	1	4	-0.371861	25.9699	-85.7362	19.9442
 354	1	5	0.675894	28.7253	-85.6724	20.8861
 355	1	6	-0.526708	29.4888	-84.7696	21.1601
 356	1	6	-0.532274	25.6312	-91.5387	20.2629
 357	1	2	0.077971	20.7518	-84.2865	17.2961
 358	1	1	-0.133879	21.9123	-82.389	18.5534
 359	1	2	0.291414	22.7962	-82.9709	16.4049
 360	1	7	0.054943	20.2704	-83.8255	16.42
 361	1	7	-0.083103	20.0544	-84.0855	18.1492
 362	1	2	-0.229696	19.8829	-86.4993	18.2054
 363	1	2	-0.134961	21.0675	-86.5085	15.9276
 364	1	7	0.062626	20.0266	-87.5887	18.2392
 365	1	7	0.065775	18.9084	-86.2346	17.8293
 366	1	7	0.079929	19.9863	-86.2262	19.2533
 367	1	7	0.050506	20.89	-87.6399	15.9144
 368	1	7	0.024431	22.0539	-86.469	15.485
 369	1	7	0.052051	20.2703	-86.1787	15.2092
 370	1	2	-0.079385	22.6808	-81.4113	16.5187
 371	1	7	-0.096983	22.1926	-83.2898	15.5502
 372	1	7	0.069866	23.8733	-83.2129	16.3637
 373	1	2	-0.079851	21.5041	-80.8538	15.6239
 374	1	2	-0.424117	23.9607	-80.755	16.0828
 375	1	1	-0.32128	22.2385	-81.1917	17.9796
 376	1	7	0.133743	23.9788	-79.6922	16.3825
 377	1	7	0.116477	24.0923	-80.7954	14.9971
 378	1	7	0.082726	24.8285	-81.3042	16.4369
 379	1	7	0.078262	20.5032	-81.2103	15.8841
 380	1	7	-0.001602	21.6673	-80.9124	14.5354
 381	1	7	0.028854	21.39	-79.7883	15.8056
 382	1	3	0.315808	22.2206	-79.0917	17.9394
 383	1	3	0.28245	21.411	-83.2792	20.5101
 384	1	8	-0.039852	21.1909	-81.228	22.0025
 385	1	8	-0.059152	21.635	-78.7851	20.6899
 386	1	1	0.135239	19.9721	-70.782	28.6822
 387	1	1	-0.124676	21.3333	-70.9385	28.9901
 388	1	1	0.190416	21.0623	-73.3205	29.0927
 389	1	1	-0.226961	21.9068	-72.1996	29.2622
 390	1	1	-0.017982	18.7288	-76.6832	28.5512
 391	1	1	-0.195812	18.8821	-77.9557	27.8546
 392	1	1	-0.244042	19.016	-75.5105	27.948
 393	1	1	0.131216	19.5085	-77.8532	26.563
 394	1	1	-0.480889	19.7171	-75.4092	26.792
 395	1	1	0.420559	19.887	-76.5906	26.0494
 396	1	2	0.094496	18.1949	-76.4313	30.0166
 397	1	3	0.181616	18.6021	-78.899	28.2929
 398	1	2	0.106535	18.7082	-74.2752	28.8732
 399	1	4	-0.32219	19.7864	-79.0308	25.8966
 400	1	3	0.25841	19.8259	-74.3779	26.4382
 401	1	1	0.380364	20.2198	-78.9805	24.6161
 402	1	1	-0.639904	20.4203	-80.2144	23.863
 403	1	1	0.40258	20.5004	-77.725	23.9765
 404	1	1	0.235245	20.875	-80.0536	22.5862
 405	1	1	-0.64044	21.0473	-77.6245	22.6038
 406	1	1	0.243455	21.2929	-78.8439	21.9662
 407	1	5	0.683739	20.1721	-81.5238	24.4334
 408	1	4	-0.371861	20.3519	-76.5061	24.7351
 409	1	5	0.675894	21.1342	-76.2556	22.0474
 410	1	6	-0.526708	21.1332	-75.1681	21.6531
 411	1	6	-0.532274	19.8849	-82.4527	25.0206
 412	1	2	0.077971	18.5157	-74.8585	30.3126
 413	1	1	-0.133879	19.7447	-73.1666	28.8553
 414	1	2	0.291414	17.4036	-73.5301	28.4382
 415	1	7	0.054943	17.8378	-74.29	30.9919
 416	1	7	-0.083103	19.58	-74.8998	30.7715
 417	1	2	-0.229696	18.9857	-77.348	30.9862
 418	1	2	-0.134961	16.7074	-76.7354	30.0797
 419	1	7	0.062626	18.6476	-77.2965	31.972
 420	1	7	0.065775	20.0779	-77.184	31.0033
 421	1	7	0.079929	18.9381	-78.4208	30.7073
 422	1	7	0.050506	16.2645	-76.502	31.0703
 423	1	7	0.024431	16.6635	-77.8202	29.9482
 424	1	7	0.052051	16.0793	-76.1653	29.3402
 425	1	2	-0.079385	17.7039	-71.9896	28.5289
 426	1	7	-0.096983	16.5408	-73.7768	29.1269
 427	1	7	0.069866	17.0862	-73.8272	27.4228
 428	1	2	-0.079851	17.0398	-71.3925	29.9487
 429	1	2	-0.424117	17.182	-71.0897	27.3547
 430	1	1	-0.32128	19.2035	-71.9263	28.6115
 431	1	7	0.133743	17.6688	-70.071	27.3169
 432	1	7	0.116477	16.0965	-71.0107	27.4044
 433	1	7	0.082726	17.324	-71.596	26.3775
 434	1	7	0.078262	15.9507	-71.2459	29.7856
 435	1	7	-0.001602	17.384	-70.3763	30.24
 436	1	7	0.028854	17.1313	-72.1503	30.7628
 437	1	3	0.315808	19.4385	-69.8389	28.6524
 438	1	3	0.28245	21.438	-74.3157	29.2216
 439	1	8	-0.039852	23.2409	-72.3925	29.5503
 440	1	8	-0.059152	22.1484	-69.8693	29.1767
 441	1	1	0.135239	30.3966	-62.6309	32.5657
 442	1	1	-0.124676	31.1507	-62.6593	31.3755
 443	1	1	0.190416	31.2838	-65.0304	31.5324
 444	1	1	-0.226961	31.5956	-63.8532	30.8272
 445	1	1	-0.017982	29.9354	-68.5556	32.9631
 446	1	1	-0.195812	29.2147	-69.6681	32.5221
 447	1	1	-0.244042	29.3999	-67.2514	32.7836
 448	1	1	0.131216	28.0307	-69.4048	31.8236
 449	1	1	-0.480889	28.2971	-67.0105	31.9774
 450	1	1	0.420559	27.6101	-68.111	31.5152
 451	1	2	0.094496	31.1473	-68.5374	33.897
 452	1	3	0.181616	29.502	-70.6892	32.8792
 453	1	2	0.106535	30.2041	-66.1874	33.5156
 454	1	4	-0.32219	27.3627	-70.4939	31.3722
 455	1	3	0.25841	27.8934	-66.0304	31.7206
 456	1	1	0.380364	26.0504	-70.382	30.8072
 457	1	1	-0.639904	25.3225	-71.5185	30.3705
 458	1	1	0.40258	25.5107	-69.0208	30.5449
 459	1	1	0.235245	24.0688	-71.3124	29.738
 460	1	1	-0.64044	24.1956	-68.8742	29.9315
 461	1	1	0.243455	23.482	-70.0206	29.5489
 462	1	5	0.683739	25.7885	-72.7476	30.6641
 463	1	4	-0.371861	26.42	-67.9389	30.881
 464	1	5	0.675894	23.711	-67.5974	29.6885
 465	1	6	-0.526708	23.3525	-66.5505	29.5331
 466	1	6	-0.532274	26.0483	-73.8671	30.7787
 467	1	2	0.077971	31.4763	-66.9212	33.9665
 468	1	1	-0.133879	30.4984	-64.9614	32.6111
 469	1	2	0.291414	29.3561	-65.5361	34.649
 470	1	7	0.054943	31.6886	-66.5662	34.9687
 471	1	7	-0.083103	32.3216	-66.648	33.2876
 472	1	2	-0.229696	32.3317	-69.3499	33.3098
 473	1	2	-0.134961	30.8627	-69.1392	35.322
 474	1	7	0.062626	33.2822	-69.1483	33.815
 475	1	7	0.065775	32.4647	-69.118	32.2252
 476	1	7	0.079929	32.1093	-70.4208	33.3062
 477	1	7	0.050506	30.5275	-70.1589	35.2936
 478	1	7	0.024431	30.0516	-68.566	35.7721
 479	1	7	0.052051	31.7273	-69.0484	35.9875
 480	1	2	-0.079385	29.5596	-63.9799	34.5221
 481	1	7	-0.096983	29.6057	-65.936	35.6527
 482	1	7	0.069866	28.3138	-65.778	34.3084
 483	1	2	-0.079851	30.5544	-63.4915	35.5728
 484	1	2	-0.424117	28.2047	-63.1957	34.7663
 485	1	1	-0.32128	30.1401	-63.8127	33.1586
 486	1	7	0.133743	27.755	-63.464	35.7516
 487	1	7	0.116477	27.4797	-63.3715	33.9562
 488	1	7	0.082726	28.4727	-62.1225	34.7998
 489	1	7	0.078262	31.6151	-63.8041	35.354
 490	1	7	-0.001602	30.3282	-63.8875	36.5625
 491	1	7	0.028854	30.5215	-62.3942	35.6338
 492	1	3	0.315808	30.0701	-61.6902	32.9608
 493	1	3	0.28245	31.6365	-66.0002	31.2015
 494	1	8	-0.039852	32.2967	-63.8479	29.5835
 495	1	8	-0.059152	31.3973	-61.4829	30.7438
 496	1	1	0.135239	33.7268	-53.8522	24.3071
 497	1	1	-0.124676	32.4969	-54.4366	23.9796
 498	1	1	0.190416	33.7342	-56.5172	23.3447
 499	1	1	-0.226961	32.537	-55.7664	23.4769
 500	1	1	-0.017982	36.566	-58.9923	24.1102
 501	1	1	-0.195812	36.2764	-60.2441	24.7403
 502	1	1	-0.244042	36.0036	-57.8225	24.6307
 503	1	1	0.131216	35.471	-60.2465	25.862
 504	1	1	-0.480889	35.2488	-57.8811	25.8262
 505	1	1	0.420559	34.9691	-59.1298	26.3882
 506	1	2	0.094496	37.3497	-58.6009	22.827
 507	1	3	0.181616	36.5243	-61.1955	24.4133
 508	1	2	0.106535	36.2641	-56.5614	23.818
 509	1	4	-0.32219	35.013	-61.4617	26.409
 510	1	3	0.25841	34.8734	-56.9317	26.1912
 511	1	1	0.380364	34.1226	-61.4598	27.4806
 512	1	1	-0.639904	33.5551	-62.7423	27.8825
 513	1	1	0.40258	33.6523	-60.2137	28.1189
 514	1	1	0.235245	32.7027	-62.7361	29.0497
 515	1	1	-0.64044	32.6037	-60.2095	29.0707
 516	1	1	0.243455	32.2158	-61.4546	29.5707
 517	1	5	0.683739	34.0774	-63.8993	27.3094
 518	1	4	-0.371861	34.0489	-59.0707	27.485
 519	1	5	0.675894	32.2819	-59.0607	29.7744
 520	1	6	-0.526708	31.9677	-58.0044	30.2407
 521	1	6	-0.532274	34.6433	-64.7129	26.8191
 522	1	2	0.077971	37.0114	-57.0695	22.5494
 523	1	1	-0.133879	34.9201	-55.8783	23.5803
 524	1	2	0.291414	37.0958	-55.5476	24.6905
 525	1	7	0.054943	37.9264	-56.4945	22.2856
 526	1	7	-0.083103	36.2837	-56.9563	21.7214
 527	1	2	-0.229696	36.8631	-59.5615	21.6678
 528	1	2	-0.134961	38.8697	-58.7971	23.1293
 529	1	7	0.062626	35.7366	-59.4748	21.5911
 530	1	7	0.065775	37.1428	-60.628	21.7972
 531	1	7	0.079929	37.1926	-59.3009	20.6668
 532	1	7	0.050506	39.5513	-58.4156	22.3686
 533	1	7	0.024431	39.2551	-59.8411	23.2597
 534	1	7	0.052051	39.1351	-58.1584	24.03
 535	1	2	-0.079385	36.2947	-54.177	24.6545
 536	1	7	-0.096983	38.0979	-55.5142	24.252
 537	1	7	0.069866	37.135	-55.9523	25.6425
 538	1	2	-0.079851	36.9623	-53.1137	23.6733
 539	1	2	-0.424117	36.1938	-53.6457	26.1159
 540	1	1	-0.32128	34.9069	-54.5929	24.1146
 541	1	7	0.133743	35.5971	-52.7432	26.2489
 542	1	7	0.116477	37.169	-53.5069	26.6003
 543	1	7	0.082726	35.6333	-54.4273	26.6675
 544	1	7	0.078262	38.0015	-52.9272	23.9639
 545	1	7	-0.001602	36.4116	-52.1847	23.7091
 546	1	7	0.028854	36.9908	-53.411	22.6204
 547	1	3	0.315808	33.8063	-52.8436	24.7267
 548	1	3	0.28245	33.7125	-57.5997	23.2124
 549	1	8	-0.039852	31.3933	-56.4221	23.179
 550	1	8	-0.059152	31.3079	-53.9137	24.3617
 551	1	1	0.135239	22.3365	-55.6801	31.5614
 552	1	1	-0.124676	23.2377	-56.5466	32.0985
 553	1	1	0.190416	23.8083	-57.3234	29.8577
 554	1	1	-0.226961	24.0015	-57.3649	31.2596
 555	1	1	-0.017982	23.6811	-57.5137	26.2168
 556	1	1	-0.195812	24.7774	-57.8447	25.4417
 557	1	1	-0.244042	23.6367	-56.2959	26.9091
 558	1	1	0.131216	25.8586	-56.9728	25.39
 559	1	1	-0.480889	24.7197	-55.4065	26.8913
 560	1	1	0.420559	25.8419	-55.7298	26.1149
 561	1	2	0.094496	22.4058	-58.3579	26.3862
 562	1	3	0.181616	24.7839	-58.7668	24.8592
 563	1	2	0.106535	22.4401	-56.2845	27.858
 564	1	4	-0.32219	26.912	-57.2909	24.5151
 565	1	3	0.25841	24.6835	-54.4921	27.4569
 566	1	1	0.380364	27.9651	-56.4149	24.3753
 567	1	1	-0.639904	29.0941	-56.8389	23.6981
 568	1	1	0.40258	27.9584	-55.2151	25.1539
 569	1	1	0.235245	30.2299	-56.0198	23.7268
 570	1	1	-0.64044	29.0198	-54.3084	24.9962
 571	1	1	0.243455	30.1325	-54.7242	24.2968
 572	1	5	0.683739	29.2266	-58.1602	23.0924
 573	1	4	-0.371861	26.9037	-54.8807	25.9725
 574	1	5	0.675894	28.9406	-53.1083	25.8191
 575	1	6	-0.526708	29.0521	-52.1257	26.4
 576	1	6	-0.532274	29.2167	-59.2	22.6259
 577	1	2	0.077971	21.5679	-57.5329	27.3952
 578	1	1	-0.133879	22.8363	-56.4878	29.3175
 579	1	2	0.291414	21.5911	-54.9674	27.8811
 580	1	7	0.054943	20.6395	-57.1734	26.9229
 581	1	7	-0.083103	21.2141	-58.1726	28.2196
 582	1	2	-0.229696	22.7416	-59.7329	26.9525
 583	1	2	-0.134961	21.6934	-58.5106	24.9971
 584	1	7	0.062626	21.8572	-60.3667	27.1194
 585	1	7	0.065775	23.3227	-59.6348	27.8679
 586	1	7	0.079929	23.3956	-60.247	26.2416
 587	1	7	0.050506	20.7039	-58.972	25.042
 588	1	7	0.024431	22.2877	-59.0953	24.2964
 589	1	7	0.052051	21.575	-57.5051	24.572
 590	1	2	-0.079385	21.0551	-54.8329	29.368
 591	1	7	-0.096983	20.8722	-54.8323	27.065
 592	1	7	0.069866	22.3636	-54.2043	27.7386
 593	1	2	-0.079851	19.6505	-55.4462	29.4655
 594	1	2	-0.424117	21.0625	-53.3725	29.8799
 595	1	1	-0.32128	22.0609	-55.693	30.1783
 596	1	7	0.133743	20.7824	-53.3246	30.9407
 597	1	7	0.116477	20.3716	-52.7266	29.3171
 598	1	7	0.082726	22.0663	-52.9777	29.7672
 599	1	7	0.078262	19.292	-55.4549	30.5081
 600	1	7	-0.001602	19.6259	-56.4714	29.0677
 601	1	7	0.028854	18.9141	-54.8884	28.8409
 602	1	3	0.315808	21.8427	-54.9947	32.2102
 603	1	3	0.28245	24.445	-57.9136	29.2095
 604	1	8	-0.039852	25.0329	-58.1426	31.7939
 605	1	8	-0.059152	23.4181	-56.5612	33.4205
 606	1	1	0.135239	25.7813	-58.8579	44.0063
 607	1	1	-0.124676	26.6629	-57.7563	44.0172
 608	1	1	0.190416	27.962	-58.7468	42.1769
 609	1	1	-0.226961	27.7502	-57.7261	43.1266
 610	1	1	-0.017982	28.0325	-61.2999	39.0236
 611	1	1	-0.195812	28.0909	-61.0605	37.6502
 612	1	1	-0.244042	27.0916	-60.6141	39.8384
 613	1	1	0.131216	27.2158	-60.1383	37.0837
 614	1	1	-0.480889	26.268	-59.6545	39.2545
 615	1	1	0.420559	26.3039	-59.418	37.893
 616	1	2	0.094496	28.8477	-62.2946	39.7924
 617	1	3	0.181616	28.8202	-61.6184	37.0719
 618	1	2	0.106535	27.1177	-61.0565	41.2752
 619	1	4	-0.32219	27.1986	-59.9537	35.7452
 620	1	3	0.25841	25.5328	-59.107	39.8177
 621	1	1	0.380364	26.2843	-59.1376	35.117
 622	1	1	-0.639904	26.2102	-59.019	33.7194
 623	1	1	0.40258	25.3317	-58.4499	35.9523
 624	1	1	0.235245	25.1978	-58.1613	33.1693
 625	1	1	-0.64044	24.4219	-57.5246	35.4088
 626	1	1	0.243455	24.2925	-57.4526	33.9997
 627	1	5	0.683739	27.1453	-59.7766	32.9217
 628	1	4	-0.371861	25.3836	-58.5449	37.3395
 629	1	5	0.675894	23.5443	-56.7611	36.2636
 630	1	6	-0.526708	22.8787	-56.2462	37.024
 631	1	6	-0.532274	27.8501	-60.354	32.166
 632	1	2	0.077971	28.4175	-61.9203	41.2816
 633	1	1	-0.133879	27.0886	-59.8364	42.1728
 634	1	2	0.291414	25.8142	-61.7975	41.6637
 635	1	7	0.054943	28.3836	-62.8005	41.9352
 636	1	7	-0.083103	29.158	-61.2374	41.7359
 637	1	2	-0.229696	30.3604	-62.1787	39.6379
 638	1	2	-0.134961	28.3568	-63.7464	39.5045
 639	1	7	0.062626	30.6349	-62.3317	38.5873
 640	1	7	0.065775	30.8452	-62.9091	40.3034
 641	1	7	0.079929	30.6901	-61.1485	39.8959
 642	1	7	0.050506	28.5815	-63.9668	38.4724
 643	1	7	0.024431	27.2794	-63.9078	39.6899
 644	1	7	0.052051	28.8883	-64.5024	40.0717
 645	1	2	-0.079385	25.1732	-61.125	42.9266
 646	1	7	-0.096983	26.1152	-62.8373	41.887
 647	1	7	0.069866	25.1541	-61.8055	40.7814
 648	1	2	-0.079851	25.3273	-62.0063	44.1692
 649	1	2	-0.424117	23.7126	-60.7365	42.7729
 650	1	1	-0.32128	26.0484	-59.902	43.0902
 651	1	7	0.133743	23.3261	-60.1958	43.6465
 652	1	7	0.116477	23.0791	-61.6419	42.6052
 653	1	7	0.082726	23.6255	-60.0587	41.9155
 654	1	7	0.078262	26.3562	-62.2519	44.327
 655	1	7	-0.001602	24.8147	-62.9286	44.0054