pySIMM System Object

668 atoms
748 bonds
1368 angles
2248 dihedrals
96 impropers

9 atom types
10 bond types
15 angle types
8 dihedral types
2 improper types

-128.128531 128.128531 xlo xhi
-128.128531 128.128531 ylo yhi
-128.128531 128.128531 zlo zhi

Masses

   1	12.01	# ca
   2	12.01	# c3
   3	1.008	# ha
   4	16.0	# os
   5	12.01	# cg
   6	14.01	# n1
   7	1.008	# hc
   8	16.0	# oh
   9	1.008	# ho

Pair Coeffs

   1	0.086	3.3996695084235347	# ca
   2	0.1094	3.3996695084235347	# c3
   3	0.015	2.59964245953351	# ha
   4	0.17	3.0000123434657784	# os
   5	0.21	3.3996695084235347	# cg
   6	0.17	3.249998523775958	# n1
   7	0.0157	2.649532787749369	# hc
   8	0.2104	3.0664733878390478	# oh
   9	0.0047	0.5379246460131368	# ho

Bond Coeffs

   1	943.1	1.1566	# cg,n1
   2	321.0	1.5156	# c3,ca
   3	300.9	1.5375	# c3,c3
   4	330.6	1.0969	# c3,hc
   5	376.6	1.3696	# ca,os
   6	461.1	1.3984	# ca,ca
   7	371.4	0.973	# ho,oh
   8	384.0	1.3637	# ca,oh
   9	345.8	1.086	# ca,ha
  10	413.3	1.4328	# ca,cg

Angle Coeffs

   1	69.52	119.9	# ca,ca,oh
   2	63.56	112.24	# ca,c3,ca
   3	63.48	119.89	# ca,os,ca
   4	65.72	120.27	# ca,ca,cg
   5	48.18	119.88	# ca,ca,ha
   6	39.4	107.58	# hc,c3,hc
   7	63.53	120.77	# c3,ca,ca
   8	69.58	119.2	# ca,ca,os
   9	58.92	179.49	# ca,cg,n1
  10	49.0	108.58	# ca,oh,ho
  11	62.86	111.51	# c3,c3,c3
  12	66.62	120.02	# ca,ca,ca
  13	63.15	112.07	# c3,c3,ca
  14	46.34	109.8	# c3,c3,hc
  15	63.5	119.89	# ca,oh,ca

Dihedral Coeffs

   1	1	3.625	2	180	# X,ca,ca,X
   2	1	3.625	2	180	# X,cg,ca,ca
   3	1	0.15555555555555556	3	0	# X,c3,c3,X
   4	1	0.0	2	0	# X,c3,ca,X
   5	1	0.9	2	180	# X,ca,os,X
   6	3	0.18	3	0	0.25	2	180	0.2	1	180	# c3,c3,c3,c3
   7	1	0.9	2	180	# X,ca,oh,X
   8	1	0.16	3	0	# hc,c3,c3,c3

Improper Coeffs

   1	1.1	-1	2	# ca,X,X,ha
   2	1.1	-1	2	# ca,ca,ca,c3

Atoms

   1	1	1	0.135239	21.3027	24.0106	-16.1244
   2	1	1	-0.124676	21.8408	24.0733	-14.8304
   3	1	1	0.190416	22.6274	26.3393	-15.2736
   4	1	1	-0.226961	22.427	25.282	-14.3681
   5	1	1	-0.017982	22.993	29.5359	-17.7034
   6	1	1	-0.195812	22.8913	30.9042	-17.4278
   7	1	1	-0.244042	22.0136	28.6274	-17.295
   8	1	1	0.131216	21.7826	31.3514	-16.6596
   9	1	1	-0.480889	20.9032	29.0324	-16.4975
  10	1	1	0.420559	20.7769	30.4166	-16.2362
  11	1	2	0.094496	24.1457	28.7869	-18.4112
  12	1	3	0.181616	23.6618	31.554	-17.7708
  13	1	2	0.106535	22.29	27.2057	-17.719
  14	1	4	-0.32219	21.6966	32.6522	-16.2698
  15	1	3	0.25841	20.0681	28.3966	-16.1536
  16	1	1	0.380364	20.7167	33.1111	-15.5559
  17	1	1	-0.639904	20.5494	34.4936	-15.3613
  18	1	1	0.40258	19.7026	32.2066	-15.2136
  19	1	1	0.235245	19.5746	34.9939	-14.4928
  20	1	1	-0.64044	18.5214	32.7332	-14.5398
  21	1	1	0.243455	18.4311	34.1054	-14.1519
  22	1	5	0.683739	21.6994	35.3405	-15.7618
  23	1	4	-0.371861	19.6468	30.8697	-15.6099
  24	1	5	0.675894	17.3779	31.9072	-14.1272
  25	1	6	-0.526708	16.7354	30.9793	-13.8498
  26	1	6	-0.532274	22.5997	35.7637	-16.2515
  27	1	2	0.077971	23.788	27.2704	-18.2507
  28	1	1	-0.133879	22.0986	26.1967	-16.5917
  29	1	2	0.291414	21.2431	26.6877	-18.7132
  30	1	7	0.054943	23.9678	26.7127	-19.1938
  31	1	7	-0.083103	24.4683	26.7943	-17.5335
  32	1	2	-0.229696	25.4987	29.2153	-17.79
  33	1	2	-0.134961	24.1208	29.2454	-19.852
  34	1	7	0.062626	25.5288	28.8868	-16.7488
  35	1	7	0.065775	25.5988	30.3042	-17.7962
  36	1	7	0.079929	26.3556	28.7623	-18.3036
  37	1	7	0.050506	25.0093	28.8698	-20.3917
  38	1	7	0.024431	24.166	30.3349	-19.9849
  39	1	7	0.052051	23.2469	28.8276	-20.3761
  40	1	2	-0.079385	21.0424	25.1583	-18.4235
  41	1	7	-0.096983	21.4264	26.9034	-19.7864
  42	1	7	0.069866	20.3016	27.2041	-18.4574
  43	1	2	-0.079851	21.9694	24.2843	-19.2989
  44	1	2	-0.424117	19.5456	24.7704	-18.6978
  45	1	1	-0.32128	21.4578	25.0526	-17.0113
  46	1	7	0.133743	18.8731	25.4334	-18.1289
  47	1	7	0.116477	19.2805	23.7513	-18.3988
  48	1	7	0.082726	19.3258	24.8699	-19.7782
  49	1	7	0.078262	21.721	23.2303	-19.1424
  50	1	7	-0.001602	23.026	24.4221	-19.0567
  51	1	7	0.028854	21.7974	24.5092	-20.3543
  52	1	3	0.315808	20.8409	23.1108	-16.4907
  53	1	3	0.28245	23.1995	27.2166	-14.9703
  54	1	8	-0.039852	22.8751	25.4303	-13.0763
  55	1	8	-0.059152	21.7805	23.0138	-13.9877
  56	1	1	0.135239	22.0369	15.9371	-4.75485
  57	1	1	-0.124676	20.7938	16.5047	-4.50526
  58	1	1	0.190416	21.6232	18.7418	-5.04515
  59	1	1	-0.226961	20.5633	17.9123	-4.65665
  60	1	1	-0.017982	24.6994	21.2144	-6.04275
  61	1	1	-0.195812	24.6107	22.365	-6.80141
  62	1	1	-0.244042	24.1108	20.0217	-6.45245
  63	1	1	0.131216	23.9688	22.2738	-8.04055
  64	1	1	-0.480889	23.4127	19.8973	-7.67555
  65	1	1	0.420559	23.3795	21.0522	-8.49836
  66	1	2	0.094496	25.2553	21.1121	-4.66511
  67	1	3	0.181616	25.079	23.282	-6.46101
  68	1	2	0.106535	24.2344	18.9357	-5.41309
  69	1	4	-0.32219	23.9799	23.3448	-8.86651
  70	1	3	0.25841	22.9391	18.9702	-8.00823
  71	1	1	0.380364	23.4362	23.2707	-10.1088
  72	1	1	-0.639904	23.4446	24.4181	-10.9466
  73	1	1	0.40258	22.8579	22.0694	-10.5556
  74	1	1	0.235245	22.8895	24.3216	-12.2669
  75	1	1	-0.64044	22.2756	21.9897	-11.8192
  76	1	1	0.243455	22.2959	23.1091	-12.7037
  77	1	5	0.683739	24.0563	25.6245	-10.4586
  78	1	4	-0.371861	22.7893	20.9995	-9.72344
  79	1	5	0.675894	21.6591	20.7598	-12.2187
  80	1	6	-0.526708	21.13	19.8067	-12.6152
  81	1	6	-0.532274	24.5486	26.558	-9.97134
  82	1	2	0.077971	24.7382	19.729	-4.1753
  83	1	1	-0.133879	22.9109	18.2058	-5.17506
  84	1	2	0.291414	25.2332	17.81	-5.82476
  85	1	7	0.054943	25.4771	19.2008	-3.56498
  86	1	7	-0.083103	23.8747	19.8973	-3.51336
  87	1	2	-0.229696	24.8485	22.2716	-3.7112
  88	1	2	-0.134961	26.7858	21.1232	-4.80841
  89	1	7	0.062626	23.7588	22.3441	-3.60269
  90	1	7	0.065775	25.208	23.2472	-4.05744
  91	1	7	0.079929	25.3068	22.138	-2.72341
  92	1	7	0.050506	27.146	22.0429	-5.28348
  93	1	7	0.024431	27.1353	20.2717	-5.41019
  94	1	7	0.052051	27.2576	21.0775	-3.82025
  95	1	2	-0.079385	24.5834	16.4886	-5.27754
  96	1	7	-0.096983	26.2306	17.9629	-5.40314
  97	1	7	0.069866	25.3259	17.8088	-6.91654
  98	1	2	-0.079851	25.2296	16.1174	-3.92672
  99	1	2	-0.424117	24.6993	15.2991	-6.23941
 100	1	1	-0.32128	23.1037	16.8285	-5.07002
 101	1	7	0.133743	24.131	15.5125	-7.15798
 102	1	7	0.116477	24.3326	14.3636	-5.79898
 103	1	7	0.082726	25.7395	15.1033	-6.51836
 104	1	7	0.078262	25.0327	16.8983	-3.18557
 105	1	7	-0.001602	26.3209	16.0157	-4.02206
 106	1	7	0.028854	24.8399	15.1651	-3.54434
 107	1	3	0.315808	22.2208	14.8742	-4.68421
 108	1	3	0.28245	21.501	19.8081	-5.24302
 109	1	8	-0.039852	19.3539	18.4346	-4.46315
 110	1	8	-0.059152	19.7206	15.7583	-4.18289
 111	1	1	0.135239	9.29052	11.3031	-2.39233
 112	1	1	-0.124676	9.18857	11.1391	-3.83704
 113	1	1	0.190416	9.89014	13.4592	-4.13662
 114	1	1	-0.226961	9.36872	12.2447	-4.70099
 115	1	1	-0.017982	11.2624	16.8686	-2.66761
 116	1	1	-0.195812	12.3406	17.7238	-2.95549
 117	1	1	-0.244042	11.4387	15.5357	-2.43943
 118	1	1	0.131216	13.5785	17.1086	-3.17389
 119	1	1	-0.480889	12.688	14.9007	-2.58212
 120	1	1	0.420559	13.7823	15.7038	-3.0263
 121	1	2	0.094496	9.88104	17.298	-2.31135
 122	1	3	0.181616	12.1923	18.7933	-3.04083
 123	1	2	0.106535	10.1687	14.8657	-1.94931
 124	1	4	-0.32219	14.5928	17.9123	-3.62819
 125	1	3	0.25841	12.8136	13.8314	-2.41529
 126	1	1	0.380364	15.8773	17.3723	-3.73145
 127	1	1	-0.639904	16.989	18.2228	-3.97414
 128	1	1	0.40258	16.1144	15.9577	-3.5111
 129	1	1	0.235245	18.2681	17.693	-4.12965
 130	1	1	-0.64044	17.3776	15.4413	-3.69179
 131	1	1	0.243455	18.4693	16.2936	-3.95794
 132	1	5	0.683739	16.7841	19.639	-4.198
 133	1	4	-0.371861	15.0726	15.1568	-3.18151
 134	1	5	0.675894	17.6364	14.0322	-3.50726
 135	1	6	-0.526708	17.6027	12.9006	-3.29166
 136	1	6	-0.532274	16.9359	20.7772	-4.29134
 137	1	2	0.077971	9.12194	15.9192	-2.20452
 138	1	1	-0.133879	9.83278	13.5913	-2.73646
 139	1	2	0.291414	10.2345	14.3965	-0.496549
 140	1	7	0.054943	8.3721	15.8619	-1.41827
 141	1	7	-0.083103	8.59678	15.7266	-3.12824
 142	1	2	-0.229696	9.29929	18.2537	-3.35353
 143	1	2	-0.134961	9.87761	18.0574	-0.964684
 144	1	7	0.062626	8.29947	18.6255	-3.09744
 145	1	7	0.065775	9.16699	17.7162	-4.28935
 146	1	7	0.079929	9.97149	19.0984	-3.54733
 147	1	7	0.050506	8.85922	18.2929	-0.61516
 148	1	7	0.024431	10.336	19.0465	-1.06581
 149	1	7	0.052051	10.3653	17.4798	-0.15033
 150	1	2	-0.079385	9.63142	12.9606	-0.408794
 151	1	7	-0.096983	9.7345	15.1117	0.120829
 152	1	7	0.069866	11.2701	14.3982	-0.164207
 153	1	2	-0.079851	8.26772	13.0219	0.290594
 154	1	2	-0.424117	10.5471	11.9994	0.414133
 155	1	1	-0.32128	9.53012	12.5917	-1.86791
 156	1	7	0.133743	10.7016	12.433	1.41762
 157	1	7	0.116477	11.5442	11.8449	-0.0247573
 158	1	7	0.082726	10.0982	11.0047	0.569731
 159	1	7	0.078262	7.61005	13.7294	-0.233376
 160	1	7	-0.001602	8.39937	13.427	1.29569
 161	1	7	0.028854	7.74311	12.0492	0.380744
 162	1	3	0.315808	9.0857	10.5011	-1.66569
 163	1	3	0.28245	10.2079	14.2734	-4.76084
 164	1	8	-0.039852	9.21242	12.0459	-6.01166
 165	1	8	-0.059152	8.7774	9.9159	-4.3509
 166	1	1	0.135239	8.47858	2.22564	-8.95698
 167	1	1	-0.124676	9.41189	3.09264	-8.34808
 168	1	1	0.190416	9.15924	4.71293	-10.176
 169	1	1	-0.226961	9.73865	4.32286	-8.9566
 170	1	1	-0.017982	7.08986	6.77338	-11.9941
 171	1	1	-0.195812	7.13433	8.06633	-11.4974
 172	1	1	-0.244042	6.71137	5.73682	-11.1044
 173	1	1	0.131216	7.00053	8.30494	-10.1569
 174	1	1	-0.480889	6.47219	6.01763	-9.74233
 175	1	1	0.420559	6.73442	7.25084	-9.24677
 176	1	2	0.094496	7.45878	6.24422	-13.3815
 177	1	3	0.181616	7.48265	8.82557	-12.182
 178	1	2	0.106535	7.11383	4.3821	-11.6846
 179	1	4	-0.32219	7.42105	9.54637	-9.6575
 180	1	3	0.25841	6.33745	5.24994	-9.00524
 181	1	1	0.380364	7.61607	9.70615	-8.339
 182	1	1	-0.639904	8.33802	10.8532	-7.83522
 183	1	1	0.40258	7.38485	8.59208	-7.50412
 184	1	1	0.235245	8.58916	10.9768	-6.45266
 185	1	1	-0.64044	7.86294	8.62884	-6.16393
 186	1	1	0.243455	8.34918	9.81676	-5.64234
 187	1	5	0.683739	8.60434	11.9284	-8.71223
 188	1	4	-0.371861	6.82077	7.42808	-7.93674
 189	1	5	0.675894	7.63702	7.41102	-5.29254
 190	1	6	-0.526708	7.5633	6.78113	-4.35721
 191	1	6	-0.532274	8.9669	12.9529	-9.13237
 192	1	2	0.077971	7.63518	4.68339	-13.1449
 193	1	1	-0.133879	8.16597	3.89321	-10.7012
 194	1	2	0.291414	5.95314	3.30874	-11.4961
 195	1	7	0.054943	7.05042	4.11054	-13.8741
 196	1	7	-0.083103	8.67914	4.35036	-13.2314
 197	1	2	-0.229696	8.82549	6.85218	-13.8696
 198	1	2	-0.134961	6.34346	6.55887	-14.4512
 199	1	7	0.062626	9.55118	6.87736	-13.0478
 200	1	7	0.065775	8.68111	7.86595	-14.23
 201	1	7	0.079929	9.26054	6.27849	-14.7011
 202	1	7	0.050506	6.606	6.18418	-15.4453
 203	1	7	0.024431	6.20856	7.65144	-14.5271
 204	1	7	0.052051	5.4011	6.09864	-14.1696
 205	1	2	-0.079385	6.58278	2.08004	-10.834
 206	1	7	-0.096983	5.47574	3.05796	-12.4446
 207	1	7	0.069866	5.1607	3.68451	-10.8243
 208	1	2	-0.079851	7.01898	1.02571	-11.8047
 209	1	2	-0.424117	5.65848	1.45806	-9.78354
 210	1	1	-0.32128	7.79038	2.66033	-10.1263
 211	1	7	0.133743	5.43094	2.14371	-8.95486
 212	1	7	0.116477	6.02337	0.516658	-9.36933
 213	1	7	0.082726	4.71128	1.24488	-10.2868
 214	1	7	0.078262	7.68062	1.46365	-12.5612
 215	1	7	-0.001602	6.12825	0.628149	-12.3039
 216	1	7	0.028854	7.53639	0.193187	-11.3021
 217	1	3	0.315808	8.22062	1.3069	-8.45755
 218	1	3	0.28245	9.32648	5.70584	-10.6022
 219	1	8	-0.039852	10.4501	5.25878	-8.2804
 220	1	8	-0.059152	9.9094	2.79946	-7.10172
 221	1	1	0.135239	13.0975	3.62333	3.68161
 222	1	1	-0.124676	11.8446	4.06185	4.17776
 223	1	1	0.190416	11.8247	5.96201	2.646
 224	1	1	-0.226961	11.214	5.23843	3.69688
 225	1	1	-0.017982	13.2716	7.54344	-0.814151
 226	1	1	-0.195812	12.7398	7.85887	-2.08902
 227	1	1	-0.244042	13.0832	6.2848	-0.222658
 228	1	1	0.131216	11.9745	6.8864	-2.72471
 229	1	1	-0.480889	12.3034	5.31046	-0.855575
 230	1	1	0.420559	11.7796	5.61169	-2.13001
 231	1	2	0.094496	14.2244	8.41384	-0.00759298
 232	1	3	0.181616	12.9319	8.80554	-2.57503
 233	1	2	0.106535	13.8963	6.14291	1.04693
 234	1	4	-0.32219	11.4543	7.14369	-3.95878
 235	1	3	0.25841	12.1483	4.34154	-0.397699
 236	1	1	0.380364	11.1222	6.0573	-4.73939
 237	1	1	-0.639904	10.9723	6.22308	-6.12684
 238	1	1	0.40258	10.8828	4.78851	-4.12394
 239	1	1	0.235245	10.6415	5.10705	-6.91617
 240	1	1	-0.64044	10.5155	3.67526	-4.91221
 241	1	1	0.243455	10.3882	3.83925	-6.32007
 242	1	5	0.683739	11.1165	7.53193	-6.7087
 243	1	4	-0.371861	11.1206	4.62757	-2.79749
 244	1	5	0.675894	10.3247	2.41483	-4.30474
 245	1	6	-0.526708	10.1526	1.36696	-3.8569
 246	1	6	-0.532274	11.1988	8.53614	-7.25553
 247	1	2	0.077971	14.3471	7.60132	1.31737
 248	1	1	-0.133879	13.0954	5.54309	2.18935
 249	1	2	0.291414	15.0811	5.14026	0.859891
 250	1	7	0.054943	15.3723	7.62329	1.71112
 251	1	7	-0.083103	13.7096	8.04116	2.10198
 252	1	2	-0.229696	13.6682	9.8136	0.282745
 253	1	2	-0.134961	15.6007	8.53607	-0.703976
 254	1	7	0.062626	14.374	10.3496	0.935215
 255	1	7	0.065775	12.6891	9.75329	0.785179
 256	1	7	0.079929	13.5567	10.3866	-0.644456
 257	1	7	0.050506	16.0106	7.54812	-0.934501
 258	1	7	0.024431	16.3108	9.0486	-0.0404556
 259	1	7	0.052051	15.5334	9.10634	-1.64131
 260	1	2	-0.079385	15.0141	4.12166	2.05034
 261	1	7	-0.096983	16.0741	5.61663	0.745865
 262	1	7	0.069866	14.9156	4.58744	-0.0725974
 263	1	2	-0.079851	16.1275	4.42057	3.07979
 264	1	2	-0.424117	15.0904	2.64788	1.59279
 265	1	1	-0.32128	13.7061	4.41038	2.70228
 266	1	7	0.133743	16.0117	2.46419	1.01966
 267	1	7	0.116477	14.2281	2.38496	0.957173
 268	1	7	0.082726	15.0858	1.96053	2.44295
 269	1	7	0.078262	16.0721	5.45673	3.44741
 270	1	7	-0.001602	17.1239	4.2655	2.63357
 271	1	7	0.028854	16.0595	3.74299	3.9408
 272	1	3	0.315808	13.5707	2.71952	4.05371
 273	1	3	0.28245	11.3398	6.81813	2.20549
 274	1	8	-0.039852	10.0227	5.67779	4.2481
 275	1	8	-0.059152	11.2345	3.36701	5.17501
 276	1	1	0.135239	9.12873	1.62468	14.777
 277	1	1	-0.124676	7.95144	0.872213	14.8981
 278	1	1	0.190416	6.61513	2.84563	14.4331
 279	1	1	-0.226961	6.69296	1.49143	14.7778
 280	1	1	-0.017982	6.92703	6.10772	11.9018
 281	1	1	-0.195812	6.77899	6.40576	10.5356
 282	1	1	-0.244042	7.61602	4.97194	12.3245
 283	1	1	0.131216	7.28174	5.49056	9.59569
 284	1	1	-0.480889	8.08096	4.0185	11.4027
 285	1	1	0.420559	7.90848	4.29315	10.0411
 286	1	2	0.094496	6.54355	6.97716	13.0897
 287	1	3	0.181616	6.32216	7.33726	10.2237
 288	1	2	0.106535	7.91959	4.99254	13.8146
 289	1	4	-0.32219	7.28102	5.79917	8.24741
 290	1	3	0.25841	8.63308	3.14081	11.719
 291	1	1	0.380364	8.17581	5.15009	7.42108
 292	1	1	-0.639904	8.54423	5.71706	6.19003
 293	1	1	0.40258	8.79094	3.94515	7.88293
 294	1	1	0.235245	9.55337	5.09822	5.40939
 295	1	1	-0.64044	9.80051	3.32567	7.1267
 296	1	1	0.243455	10.1775	3.9177	5.888
 297	1	5	0.683739	7.90593	6.90687	5.76747
 298	1	4	-0.371861	8.48966	3.44958	9.12458
 299	1	5	0.675894	10.4655	2.15419	7.61914
 300	1	6	-0.526708	10.9871	1.20692	8.06514
 301	1	6	-0.532274	7.41286	7.88589	5.3888
 302	1	2	0.077971	6.90907	6.07157	14.3294
 303	1	1	-0.133879	7.79605	3.58813	14.3586
 304	1	2	0.291414	9.42098	5.34032	14.0929
 305	1	7	0.054943	7.32196	6.6604	15.156
 306	1	7	-0.083103	6.00507	5.57798	14.711
 307	1	2	-0.229696	5.05037	7.37721	13.0466
 308	1	2	-0.134961	7.40944	8.25998	13.0984
 309	1	7	0.062626	4.86205	8.06292	12.2136
 310	1	7	0.065775	4.75593	7.87868	13.9781
 311	1	7	0.079929	4.40903	6.49792	12.9218
 312	1	7	0.050506	8.48568	8.02506	13.0761
 313	1	7	0.024431	7.21498	8.87683	13.9857
 314	1	7	0.052051	7.19515	8.86878	12.2108
 315	1	2	-0.079385	10.1537	4.00512	14.4528
 316	1	7	-0.096983	9.5111	6.0424	14.9345
 317	1	7	0.069866	9.87948	5.8018	13.2132
 318	1	2	-0.079851	10.8666	4.15104	15.8127
 319	1	2	-0.424117	11.1851	3.57543	13.3856
 320	1	1	-0.32128	9.03437	3.00467	14.5771
 321	1	7	0.133743	11.9865	4.318	13.3046
 322	1	7	0.116477	10.7215	3.48943	12.3968
 323	1	7	0.082726	11.6332	2.60282	13.6191
 324	1	7	0.078262	10.1482	4.40053	16.6115
 325	1	7	-0.001602	11.6233	4.95233	15.773
 326	1	7	0.028854	11.3779	3.22894	16.0902
 327	1	3	0.315808	10.1079	1.15411	14.8533
 328	1	3	0.28245	5.66395	3.32489	14.2387
 329	1	8	-0.039852	5.55141	0.764886	14.9951
 330	1	8	-0.059152	8.01553	-0.484491	15.0366
 331	1	1	0.135239	3.84059	-10.7767	12.0766
 332	1	1	-0.124676	3.12498	-9.99423	11.1394
 333	1	1	0.190416	2.66254	-8.37245	12.8879
 334	1	1	-0.226961	2.5472	-8.77625	11.5481
 335	1	1	-0.017982	2.34075	-6.93631	16.0946
 336	1	1	-0.195812	2.28247	-5.54299	16.2563
 337	1	1	-0.244042	3.49657	-7.55427	15.6433
 338	1	1	0.131216	3.46936	-4.80525	16.0286
 339	1	1	-0.480889	4.69533	-6.83797	15.4514
 340	1	1	0.420559	4.67567	-5.45746	15.6799
 341	1	2	0.094496	1.21232	-7.94054	16.3213
 342	1	3	0.181616	1.37662	-5.02911	16.5677
 343	1	2	0.106535	3.27261	-9.02722	15.3197
 344	1	4	-0.32219	3.42421	-3.42399	16.0859
 345	1	3	0.25841	5.60993	-7.30677	15.0873
 346	1	1	0.380364	4.53717	-2.69815	15.7705
 347	1	1	-0.639904	4.45024	-1.30921	15.5859
 348	1	1	0.40258	5.76851	-3.37667	15.524
 349	1	1	0.235245	5.62694	-0.590785	15.2549
 350	1	1	-0.64044	6.96055	-2.66642	15.2991
 351	1	1	0.243455	6.88659	-1.25	15.1866
 352	1	5	0.683739	3.20028	-0.628366	15.7005
 353	1	4	-0.371861	5.81658	-4.7472	15.5035
 354	1	5	0.675894	8.2134	-3.35512	15.1929
 355	1	6	-0.526708	9.18706	-3.98219	15.1037
 356	1	6	-0.532274	2.24368	-0.00942292	15.7837
 357	1	2	0.077971	1.87176	-9.3104	15.9817
 358	1	1	-0.133879	3.26302	-9.21121	13.8123
 359	1	2	0.291414	4.38458	-10.0241	15.7521
 360	1	7	0.054943	2.06557	-9.86526	16.9131
 361	1	7	-0.083103	1.23583	-9.9501	15.3568
 362	1	2	-0.229696	0.0160875	-7.63964	15.3834
 363	1	2	-0.134961	0.719434	-7.90477	17.7752
 364	1	7	0.062626	-0.787129	-8.40222	15.4702
 365	1	7	0.065775	0.318615	-7.62805	14.3373
 366	1	7	0.079929	-0.405801	-6.65377	15.6042
 367	1	7	0.050506	0.31856	-6.92246	18.0362
 368	1	7	0.024431	1.54835	-8.12574	18.4595
 369	1	7	0.052051	-0.0716859	-8.64931	17.9427
 370	1	2	-0.079385	4.50331	-11.1028	14.6117
 371	1	7	-0.096983	4.22229	-10.4587	16.7535
 372	1	7	0.069866	5.32074	-9.46248	15.821
 373	1	2	-0.079851	3.65731	-12.3673	14.9017
 374	1	2	-0.424117	5.98362	-11.4792	14.3622
 375	1	1	-0.32128	3.88465	-10.3814	13.4215
 376	1	7	0.133743	6.45025	-11.9201	15.257
 377	1	7	0.116477	6.60641	-10.6213	14.0767
 378	1	7	0.082726	6.07938	-12.2182	13.5555
 379	1	7	0.078262	2.60222	-12.1156	15.0733
 380	1	7	-0.001602	4.02666	-12.896	15.7856
 381	1	7	0.028854	3.699	-13.0602	14.0463
 382	1	3	0.315808	4.31689	-11.7149	11.7923
 383	1	3	0.28245	2.18944	-7.45882	13.2182
 384	1	8	-0.039852	1.82326	-8.00983	10.6583
 385	1	8	-0.059152	2.96785	-10.3586	9.82113
 386	1	1	0.135239	-5.29797	-13.186	0.801768
 387	1	1	-0.124676	-5.20245	-11.9586	0.112603
 388	1	1	0.190416	-4.28865	-10.8265	2.1024
 389	1	1	-0.226961	-4.67192	-10.838	0.721822
 390	1	1	-0.017982	-4.34992	-10.1358	5.58912
 391	1	1	-0.195812	-3.63085	-9.1243	6.25005
 392	1	1	-0.244042	-3.70522	-11.2488	5.06822
 393	1	1	0.131216	-2.26891	-9.3444	6.50958
 394	1	1	-0.480889	-2.30349	-11.424	5.21728
 395	1	1	0.420559	-1.5985	-10.4579	5.96526
 396	1	2	0.094496	-5.86156	-10.1517	5.38291
 397	1	3	0.181616	-4.13796	-8.2505	6.64276
 398	1	2	0.106535	-4.71816	-12.1155	4.33156
 399	1	4	-0.32219	-1.56453	-8.48109	7.29589
 400	1	3	0.25841	-1.78252	-12.3054	4.85371
 401	1	1	0.380364	-0.326845	-8.8096	7.76288
 402	1	1	-0.639904	0.186645	-8.07053	8.84605
 403	1	1	0.40258	0.269076	-10.0154	7.31266
 404	1	1	0.235245	1.34988	-8.59323	9.50066
 405	1	1	-0.64044	1.3987	-10.5139	7.97592
 406	1	1	0.243455	1.95993	-9.79605	9.04571
 407	1	5	0.683739	-0.477923	-6.90199	9.32419
 408	1	4	-0.371861	-0.321577	-10.7303	6.31459
 409	1	5	0.675894	1.99268	-11.7464	7.57813
 410	1	6	-0.526708	2.36986	-12.7773	7.19244
 411	1	6	-0.532274	-0.908461	-5.94196	9.81603
 412	1	2	0.077971	-6.0736	-11.5335	4.7597
 413	1	1	-0.133879	-4.60031	-11.9882	2.85302
 414	1	2	0.291414	-4.66891	-13.6495	4.53071
 415	1	7	0.054943	-6.55029	-12.2304	5.48567
 416	1	7	-0.083103	-6.797	-11.4938	3.93736
 417	1	2	-0.229696	-6.37912	-8.98591	4.53669
 418	1	2	-0.134961	-6.53415	-10.1394	6.77812
 419	1	7	0.062626	-6.02022	-8.99679	3.49161
 420	1	7	0.065775	-6.09224	-8.06661	5.02394
 421	1	7	0.079929	-7.45799	-9.01886	4.52535
 422	1	7	0.050506	-6.42127	-9.14416	7.25592
 423	1	7	0.024431	-6.03866	-10.8567	7.4556
 424	1	7	0.052051	-7.6215	-10.3613	6.72085
 425	1	2	-0.079385	-5.11235	-14.344	3.17877
 426	1	7	-0.096983	-5.29777	-14.0151	5.36569
 427	1	7	0.069866	-3.66361	-13.9521	4.76292
 428	1	2	-0.079851	-6.64207	-14.7603	3.22032
 429	1	2	-0.424117	-4.18392	-15.5416	2.82275
 430	1	1	-0.32128	-4.91989	-13.175	2.19394
 431	1	7	0.133743	-4.49724	-16.0372	1.88631
 432	1	7	0.116477	-4.35325	-16.2856	3.59076
 433	1	7	0.082726	-3.11338	-15.2964	2.77505
 434	1	7	0.078262	-6.76729	-15.5535	3.96129
 435	1	7	-0.001602	-6.98497	-15.1626	2.24746
 436	1	7	0.028854	-7.30261	-13.9423	3.56055
 437	1	3	0.315808	-5.66716	-14.0846	0.332266
 438	1	3	0.28245	-4.00182	-9.86436	2.59341
 439	1	8	-0.039852	-4.73367	-9.63325	0.0208216
 440	1	8	-0.059152	-5.90801	-11.7984	-1.03229
 441	1	1	0.135239	-16.0323	-10.299	1.62694
 442	1	1	-0.124676	-16.9357	-10.0122	0.585252
 443	1	1	0.190416	-15.62	-8.02984	-0.01092
 444	1	1	-0.226961	-16.732	-8.85299	-0.211611
 445	1	1	-0.017982	-11.7733	-6.18984	0.546278
 446	1	1	-0.195812	-10.5346	-5.92782	-0.0164509
 447	1	1	-0.244042	-12.3967	-7.4548	0.476174
 448	1	1	0.131216	-9.89721	-6.93137	-0.781905
 449	1	1	-0.480889	-11.8644	-8.43322	-0.367712
 450	1	1	0.420559	-10.5993	-8.18428	-0.991281
 451	1	2	0.094496	-12.5388	-5.21693	1.45035
 452	1	3	0.181616	-10.0764	-4.96373	0.176395
 453	1	2	0.106535	-13.4949	-7.57986	1.49097
 454	1	4	-0.32219	-8.53292	-6.87071	-1.01512
 455	1	3	0.25841	-12.3287	-9.40385	-0.494224
 456	1	1	0.380364	-7.85318	-8.05917	-1.16807
 457	1	1	-0.639904	-6.50952	-8.22512	-0.708956
 458	1	1	0.40258	-8.57599	-9.219	-1.55619
 459	1	1	0.235245	-5.87248	-9.46431	-0.728163
 460	1	1	-0.64044	-7.90446	-10.4648	-1.62039
 461	1	1	0.243455	-6.5157	-10.6041	-1.22978
 462	1	5	0.683739	-5.83165	-7.0422	-0.127725
 463	1	4	-0.371861	-9.9332	-9.23834	-1.58599
 464	1	5	0.675894	-8.62483	-11.6946	-1.84096
 465	1	6	-0.526708	-9.41463	-12.5338	-2.12686
 466	1	6	-0.532274	-5.11645	-6.28444	0.385035
 467	1	2	0.077971	-13.7924	-6.07142	1.80645
 468	1	1	-0.133879	-14.6915	-8.3643	1.00328
 469	1	2	0.291414	-13.0237	-8.32237	2.77561
 470	1	7	0.054943	-14.0328	-5.91931	2.87776
 471	1	7	-0.083103	-14.703	-5.71262	1.27898
 472	1	2	-0.229696	-12.942	-3.91979	0.76773
 473	1	2	-0.134961	-11.7586	-4.84127	2.76055
 474	1	7	0.062626	-13.4274	-4.22011	-0.164022
 475	1	7	0.065775	-12.0926	-3.30258	0.455752
 476	1	7	0.079929	-13.6608	-3.28385	1.29136
 477	1	7	0.050506	-10.8643	-4.23791	2.56283
 478	1	7	0.024431	-11.4599	-5.7183	3.32175
 479	1	7	0.052051	-12.3493	-4.23206	3.43872
 480	1	2	-0.079385	-13.8501	-9.65194	2.89792
 481	1	7	-0.096983	-13.164	-7.75814	3.69098
 482	1	7	0.069866	-11.9443	-8.48556	2.68891
 483	1	2	-0.079851	-14.4096	-9.8242	4.33246
 484	1	2	-0.424117	-12.9708	-10.8719	2.54029
 485	1	1	-0.32128	-14.8957	-9.47587	1.81896
 486	1	7	0.133743	-13.5108	-11.8202	2.59301
 487	1	7	0.116477	-12.2058	-10.9613	3.30564
 488	1	7	0.082726	-12.483	-10.803	1.56626
 489	1	7	0.078262	-15.0351	-8.98122	4.66142
 490	1	7	-0.001602	-13.5462	-9.86896	5.03873
 491	1	7	0.028854	-15.018	-10.7415	4.41071
 492	1	3	0.315808	-16.2394	-11.1488	2.27114
 493	1	3	0.28245	-15.4598	-7.13128	-0.614164
 494	1	8	-0.039852	-17.6154	-8.5283	-1.20934
 495	1	8	-0.059152	-18.1028	-10.676	0.444213
 496	1	1	0.135239	-28.6914	-9.50586	4.02325
 497	1	1	-0.124676	-27.8428	-8.85294	4.95604
 498	1	1	0.190416	-26.6036	-7.81905	3.08396
 499	1	1	-0.226961	-26.7691	-8.03182	4.48125
 500	1	1	-0.017982	-25.9254	-7.25294	-0.743705
 501	1	1	-0.195812	-24.6642	-7.06123	-1.37509
 502	1	1	-0.244042	-26.1033	-8.31542	0.140619
 503	1	1	0.131216	-23.6143	-7.95984	-1.09286
 504	1	1	-0.480889	-25.0653	-9.19046	0.419867
 505	1	1	0.420559	-23.8441	-9.028	-0.191946
 506	1	2	0.094496	-27.1716	-6.4077	-0.937438
 507	1	3	0.181616	-24.4902	-6.24318	-2.06705
 508	1	2	0.106535	-27.5033	-8.33904	0.704054
 509	1	4	-0.32219	-22.3567	-7.7595	-1.62412
 510	1	3	0.25841	-25.2042	-10.0211	1.10924
 511	1	1	0.380364	-21.3129	-8.55509	-1.20581
 512	1	1	-0.639904	-20.0153	-8.20312	-1.60433
 513	1	1	0.40258	-21.5393	-9.65734	-0.314422
 514	1	1	0.235245	-18.9382	-8.93118	-1.00825
 515	1	1	-0.64044	-20.4863	-10.4303	0.201361
 516	1	1	0.243455	-19.1785	-10.0448	-0.125925
 517	1	5	0.683739	-19.7314	-7.10906	-2.41673
 518	1	4	-0.371861	-22.8281	-9.90504	0.0953458
 519	1	5	0.675894	-20.7411	-11.4104	1.16648
 520	1	6	-0.526708	-20.8479	-12.212	1.99626
 521	1	6	-0.532274	-19.3038	-6.30425	-3.10439
 522	1	2	0.077971	-28.0659	-6.96924	0.223796
 523	1	1	-0.133879	-27.5196	-8.41803	2.20817
 524	1	2	0.291414	-28.3918	-9.56329	0.295255
 525	1	7	0.054943	-27.9766	-6.24339	1.04456
 526	1	7	-0.083103	-29.1231	-7.02943	-0.0350311
 527	1	2	-0.229696	-27.7925	-6.68696	-2.30655
 528	1	2	-0.134961	-26.9156	-4.89862	-0.794678
 529	1	7	0.062626	-27.0988	-6.43499	-3.12335
 530	1	7	0.065775	-28.7298	-6.14355	-2.44983
 531	1	7	0.079929	-28.0022	-7.76872	-2.36818
 532	1	7	0.050506	-26.3707	-4.72992	0.136501
 533	1	7	0.024431	-27.8547	-4.3276	-0.755139
 534	1	7	0.052051	-26.3032	-4.52933	-1.6372
 535	1	2	-0.079385	-29.3082	-9.91028	1.51965
 536	1	7	-0.096983	-27.7329	-10.4278	0.101864
 537	1	7	0.069866	-28.9629	-9.36296	-0.620713
 538	1	2	-0.079851	-29.486	-11.4372	1.70275
 539	1	2	-0.424117	-30.7099	-9.2533	1.42946
 540	1	1	-0.32128	-28.5366	-9.25874	2.66015
 541	1	7	0.133743	-31.2743	-9.3498	2.36321
 542	1	7	0.116477	-31.3453	-9.67925	0.646624
 543	1	7	0.082726	-30.6449	-8.18178	1.2252
 544	1	7	0.078262	-29.892	-11.9068	0.796682
 545	1	7	-0.001602	-30.169	-11.6435	2.53478
 546	1	7	0.028854	-28.5247	-11.8991	1.93033
 547	1	3	0.315808	-29.4915	-10.1517	4.35091
 548	1	3	0.28245	-25.7874	-7.21475	2.69355
 549	1	8	-0.039852	-25.9515	-7.36069	5.35804
 550	1	8	-0.059152	-28.0651	-8.95594	6.33795
 551	1	1	0.135239	-25.9567	-20.1438	4.70871
 552	1	1	-0.124676	-26.3226	-19.4682	3.52645
 553	1	1	0.190416	-28.0257	-18.2139	4.7886
 554	1	1	-0.226961	-27.362	-18.4938	3.57047
 555	1	1	-0.017982	-29.8128	-17.1784	8.2849
 556	1	1	-0.195812	-30.3174	-15.9255	8.65837
 557	1	1	-0.244042	-28.5677	-17.2709	7.64037
 558	1	1	0.131216	-29.5969	-14.7747	8.31009
 559	1	1	-0.480889	-27.8473	-16.1148	7.24589
 560	1	1	0.420559	-28.3823	-14.8671	7.56415
 561	1	2	0.094496	-30.4324	-18.539	8.51561
 562	1	3	0.181616	-31.2425	-15.8729	9.21688
 563	1	2	0.106535	-28.2105	-18.715	7.33112
 564	1	4	-0.32219	-30.131	-13.5487	8.66012
 565	1	3	0.25841	-26.8975	-16.1647	6.73569
 566	1	1	0.380364	-29.5318	-12.4027	8.20576
 567	1	1	-0.639904	-30.1807	-11.1675	8.39178
 568	1	1	0.40258	-28.3397	-12.4815	7.43091
 569	1	1	0.235245	-29.658	-9.99472	7.77006
 570	1	1	-0.64044	-27.8208	-11.3136	6.82955
 571	1	1	0.243455	-28.5047	-10.0868	6.95893
 572	1	5	0.683739	-31.3925	-11.139	9.16349
 573	1	4	-0.371861	-27.7167	-13.7029	7.19496
 574	1	5	0.675894	-26.6039	-11.4153	6.0631
 575	1	6	-0.526708	-25.6294	-11.5699	5.47181
 576	1	6	-0.532274	-32.3712	-11.0175	9.74563
 577	1	2	0.077971	-29.5831	-19.4335	7.53711
 578	1	1	-0.133879	-27.6619	-18.9306	5.93717
 579	1	2	0.291414	-27.0906	-19.3812	8.19349
 580	1	7	0.054943	-29.4671	-20.4509	7.9232
 581	1	7	-0.083103	-30.1049	-19.5155	6.57357
 582	1	2	-0.229696	-31.9512	-18.5409	8.1718
 583	1	2	-0.134961	-30.2128	-18.9244	10.013
 584	1	7	0.062626	-32.3739	-19.5473	8.27922
 585	1	7	0.065775	-32.1149	-18.197	7.13802
 586	1	7	0.079929	-32.5097	-17.8714	8.83722
 587	1	7	0.050506	-30.7621	-18.2224	10.661
 588	1	7	0.024431	-29.1563	-18.918	10.3131
 589	1	7	0.052051	-30.6243	-19.9209	10.1975
 590	1	2	-0.079385	-26.3135	-20.4051	7.27447
 591	1	7	-0.096983	-27.4702	-19.8742	9.09644
 592	1	7	0.069866	-26.3873	-18.5978	8.50856
 593	1	2	-0.079851	-26.853	-21.8466	7.39638
 594	1	2	-0.424117	-24.7862	-20.3832	7.5702
 595	1	1	-0.32128	-26.6289	-19.8651	5.90989
 596	1	7	0.133743	-24.3746	-19.3881	7.33156
 597	1	7	0.116477	-24.2177	-21.1391	7.00644
 598	1	7	0.082726	-24.616	-20.544	8.6456
 599	1	7	0.078262	-26.792	-22.175	8.4404
 600	1	7	-0.001602	-26.2628	-22.5521	6.80058
 601	1	7	0.028854	-27.9001	-21.9307	7.0662
 602	1	3	0.315808	-25.1491	-20.8669	4.68918
 603	1	3	0.28245	-28.7732	-17.4318	4.85101
 604	1	8	-0.039852	-27.6967	-17.7808	2.45269
 605	1	8	-0.059152	-25.5798	-19.731	2.3859
 606	1	1	0.135239	-21.0209	-19.4488	-8.21899
 607	1	1	-0.124676	-21.5142	-18.1288	-8.13343
 608	1	1	0.190416	-23.6807	-18.9581	-7.3445
 609	1	1	-0.226961	-22.8484	-17.8851	-7.70215
 610	1	1	-0.017982	-26.0391	-21.8855	-6.01382
 611	1	1	-0.195812	-26.9516	-21.8783	-4.94133
 612	1	1	-0.244042	-24.7189	-21.4468	-5.84778
 613	1	1	0.131216	-26.5148	-21.4271	-3.68915
 614	1	1	-0.480889	-24.2727	-21.0025	-4.57429
 615	1	1	0.420559	-25.1734	-20.9892	-3.50664
 616	1	2	0.094496	-26.2967	-22.3702	-7.44067
 617	1	3	0.181616	-27.983	-22.2271	-5.06206
 618	1	2	0.106535	-23.9287	-21.5499	-7.13584
 619	1	4	-0.32219	-27.3936	-21.3992	-2.62956
 620	1	3	0.25841	-23.2364	-20.7029	-4.42686
 621	1	1	0.380364	-26.9548	-20.9388	-1.39333
 622	1	1	-0.639904	-27.8598	-20.8658	-0.327688
 623	1	1	0.40258	-25.6023	-20.5659	-1.19158
 624	1	1	0.235245	-27.3971	-20.4409	0.937865
 625	1	1	-0.64044	-25.125	-20.1615	0.0711486
 626	1	1	0.243455	-26.0465	-20.0952	1.13761
 627	1	5	0.683739	-29.2415	-21.1642	-0.525534
 628	1	4	-0.371861	-24.7399	-20.5952	-2.26356
 629	1	5	0.675894	-23.7402	-19.8294	0.230633
 630	1	6	-0.526708	-22.6174	-19.5848	0.274095
 631	1	6	-0.532274	-30.3757	-21.3804	-0.617064
 632	1	2	0.077971	-25.0308	-21.842	-8.19523
 633	1	1	-0.133879	-23.1775	-20.2688	-7.44008
 634	1	2	0.291414	-22.8051	-22.6179	-7.13009
 635	1	7	0.054943	-24.6676	-22.5385	-8.94791
 636	1	7	-0.083103	-25.2865	-20.9084	-8.71783
 637	1	2	-0.229696	-27.5778	-21.7633	-8.07532
 638	1	2	-0.134961	-26.3626	-23.9194	-7.45956
 639	1	7	0.062626	-27.5797	-20.6786	-7.9428
 640	1	7	0.065775	-28.477	-22.1804	-7.60051
 641	1	7	0.079929	-27.6459	-21.9905	-9.14135
 642	1	7	0.050506	-26.4545	-24.3174	-8.47665
 643	1	7	0.024431	-27.2056	-24.2569	-6.8476
 644	1	7	0.052051	-25.4735	-24.357	-6.9969
 645	1	2	-0.079385	-21.5612	-21.9982	-7.87575
 646	1	7	-0.096983	-23.117	-23.5738	-7.57388