pySIMM System Object

2204 atoms
2482 bonds
4560 angles
7516 dihedrals
320 impropers

9 atom types
10 bond types
15 angle types
8 dihedral types
2 improper types

-156.383748 156.383748 xlo xhi
-156.383748 156.383748 ylo yhi
-156.383748 156.383748 zlo zhi

Masses

   1	12.01	# ca
   2	12.01	# c3
   3	1.008	# ha
   4	16.0	# os
   5	12.01	# cg
   6	14.01	# n1
   7	1.008	# hc
   8	16.0	# oh
   9	1.008	# ho

Pair Coeffs

   1	0.086	3.3996695084235347	# ca
   2	0.1094	3.3996695084235347	# c3
   3	0.015	2.59964245953351	# ha
   4	0.17	3.0000123434657784	# os
   5	0.21	3.3996695084235347	# cg
   6	0.17	3.249998523775958	# n1
   7	0.0157	2.649532787749369	# hc
   8	0.2104	3.0664733878390478	# oh
   9	0.0047	0.5379246460131368	# ho

Bond Coeffs

   1	376.6	1.3696	# ca,os
   2	371.4	0.973	# ho,oh
   3	461.1	1.3984	# ca,ca
   4	384.0	1.3637	# ca,oh
   5	345.8	1.086	# ca,ha
   6	300.9	1.5375	# c3,c3
   7	413.3	1.4328	# ca,cg
   8	943.1	1.1566	# cg,n1
   9	321.0	1.5156	# c3,ca
  10	330.6	1.0969	# c3,hc

Angle Coeffs

   1	63.53	120.77	# c3,ca,ca
   2	48.18	119.88	# ca,ca,ha
   3	69.58	119.2	# ca,ca,os
   4	65.72	120.27	# ca,ca,cg
   5	63.56	112.24	# ca,c3,ca
   6	66.62	120.02	# ca,ca,ca
   7	58.92	179.49	# ca,cg,n1
   8	62.86	111.51	# c3,c3,c3
   9	49.0	108.58	# ca,oh,ho
  10	63.15	112.07	# c3,c3,ca
  11	46.34	109.8	# c3,c3,hc
  12	69.52	119.9	# ca,ca,oh
  13	63.48	119.89	# ca,os,ca
  14	39.4	107.58	# hc,c3,hc
  15	63.5	119.89	# ca,oh,ca

Dihedral Coeffs

   1	1	0.15555555555555556	3	0	# X,c3,c3,X
   2	1	0.0	2	0	# X,c3,ca,X
   3	1	0.16	3	0	# hc,c3,c3,c3
   4	1	0.9	2	180	# X,ca,os,X
   5	3	0.18	3	0	0.25	2	180	0.2	1	180	# c3,c3,c3,c3
   6	1	0.9	2	180	# X,ca,oh,X
   7	1	3.625	2	180	# X,ca,ca,X
   8	1	3.625	2	180	# X,cg,ca,ca

Improper Coeffs

   1	1.1	-1	2	# ca,ca,ca,c3
   2	1.1	-1	2	# ca,X,X,ha

Atoms

   1	1	1	0.135239	23.9557	41.3165	109.002
   2	1	1	-0.124676	23.7909	40.2507	109.887
   3	1	1	0.190416	26.1199	40.4984	110.647
   4	1	1	-0.226961	24.8612	39.8348	110.722
   5	1	1	-0.017982	29.5188	42.5992	110.82
   6	1	1	-0.195812	30.2981	42.9623	111.912
   7	1	1	-0.244042	28.1526	42.8349	110.849
   8	1	1	0.131216	29.6912	43.5543	113.026
   9	1	1	-0.480889	27.5075	43.3746	111.954
  10	1	1	0.420559	28.2887	43.7674	113.043
  11	1	2	0.094496	29.9582	41.9615	109.518
  12	1	3	0.181616	31.3716	42.7957	111.901
  13	1	2	0.106535	27.4867	42.4132	109.575
  14	1	4	-0.32219	30.4706	43.9311	114.122
  15	1	3	0.25841	26.4333	43.5327	111.97
  16	1	1	0.380364	29.8633	44.5521	115.211
  17	1	1	-0.639904	30.6648	44.9986	116.274
  18	1	1	0.40258	28.4442	44.7675	115.203
  19	1	1	0.235245	30.0536	45.5996	117.376
  20	1	1	-0.64044	27.8437	45.3559	116.326
  21	1	1	0.243455	28.6471	45.76	117.406
  22	1	5	0.683739	32.0814	44.8338	116.243
  23	1	4	-0.371861	27.6879	44.3679	114.119
  24	1	5	0.675894	26.4433	45.5831	116.394
  25	1	6	-0.526708	25.3111	45.7797	116.502
  26	1	6	-0.532274	33.2244	44.7299	116.284
  27	1	2	0.077971	28.6066	41.5939	108.85
  28	1	1	-0.133879	26.2544	41.5567	109.754
  29	1	2	0.291414	26.9344	43.6027	108.728
  30	1	7	0.054943	28.62	41.815	107.774
  31	1	7	-0.083103	28.4331	40.5123	108.938
  32	1	2	-0.229696	30.8242	40.6869	109.757
  33	1	2	-0.134961	30.7328	42.9504	108.617
  34	1	7	0.062626	31.7786	40.9652	110.233
  35	1	7	0.065775	31.0664	40.1612	108.827
  36	1	7	0.079929	30.3438	39.9763	110.435
  37	1	7	0.050506	31.6606	43.2783	109.114
  38	1	7	0.024431	30.1388	43.8627	108.455
  39	1	7	0.052051	30.993	42.5261	107.631
  40	1	2	-0.079385	25.5782	43.1358	108.076
  41	1	7	-0.096983	27.6587	43.9187	107.966
  42	1	7	0.069866	26.7671	44.4651	109.384
  43	1	2	-0.079851	25.7873	42.6678	106.617
  44	1	2	-0.424117	24.5176	44.2634	108.106
  45	1	1	-0.32128	25.1885	41.9727	108.95
  46	1	7	0.133743	24.9198	45.1573	107.607
  47	1	7	0.116477	24.259	44.5331	109.141
  48	1	7	0.082726	23.5896	43.9945	107.586
  49	1	7	0.078262	26.1875	43.489	106.013
  50	1	7	-0.001602	24.8467	42.3272	106.158
  51	1	7	0.028854	26.5083	41.8432	106.577
  52	1	3	0.315808	23.1329	41.6501	108.37
  53	1	3	0.28245	26.9474	40.1771	111.274
  54	1	8	-0.039852	24.6737	38.7554	111.593
  55	1	8	-0.059152	22.5949	39.5723	109.923
  56	1	1	0.135239	14.3997	31.4296	110.933
  57	1	1	-0.124676	13.8231	32.2195	111.926
  58	1	1	0.190416	15.9793	32.4178	113.059
  59	1	1	-0.226961	14.5945	32.6793	113.011
  60	1	1	-0.017982	20.0602	31.8985	112.898
  61	1	1	-0.195812	21.1135	32.7475	113.164
  62	1	1	-0.244042	19.0236	32.2945	112.118
  63	1	1	0.131216	21.1189	34.0303	112.611
  64	1	1	-0.480889	18.9489	33.5888	111.568
  65	1	1	0.420559	20.039	34.443	111.814
  66	1	2	0.094496	19.9071	30.4585	113.395
  67	1	3	0.181616	21.9081	32.3763	113.801
  68	1	2	0.106535	17.9898	31.1626	111.891
  69	1	4	-0.32219	22.2095	34.8387	112.807
  70	1	3	0.25841	18.1213	33.899	110.91
  71	1	1	0.380364	22.2644	36.0568	112.14
  72	1	1	-0.639904	23.4231	36.7845	112.256
  73	1	1	0.40258	21.1678	36.4863	111.287
  74	1	1	0.235245	23.549	37.9798	111.486
  75	1	1	-0.64044	21.2796	37.661	110.546
  76	1	1	0.243455	22.4742	38.4385	110.67
  77	1	5	0.683739	24.4725	36.3535	113.104
  78	1	4	-0.371861	20.059	35.6502	111.175
  79	1	5	0.675894	20.2056	38.0485	109.701
  80	1	6	-0.526708	19.4324	38.5467	109.025
  81	1	6	-0.532274	25.2835	35.8554	113.758
  82	1	2	0.077971	18.4299	30.1471	112.994
  83	1	1	-0.133879	16.5073	31.6359	112.024
  84	1	2	0.291414	18.04	30.5903	110.421
  85	1	7	0.054943	18.2567	29.12	112.675
  86	1	7	-0.083103	17.8117	30.3235	113.876
  87	1	2	-0.229696	20.1407	30.2936	114.913
  88	1	2	-0.134961	20.901	29.5288	112.619
  89	1	7	0.062626	19.5508	31.0072	115.51
  90	1	7	0.065775	21.2005	30.488	115.113
  91	1	7	0.079929	19.9088	29.2631	115.221
  92	1	7	0.050506	20.7654	29.5598	111.525
  93	1	7	0.024431	20.8229	28.4872	112.945
  94	1	7	0.052051	21.9369	29.8298	112.839
  95	1	2	-0.079385	16.5403	30.3863	109.974
  96	1	7	-0.096983	18.6535	29.6781	110.383
  97	1	7	0.069866	18.5475	31.315	109.777
  98	1	2	-0.079851	16.1255	28.8942	110.047
  99	1	2	-0.424117	16.2962	30.8918	108.536
 100	1	1	-0.32128	15.7408	31.1507	110.989
 101	1	7	0.133743	16.4787	31.9659	108.49
 102	1	7	0.116477	15.2438	30.7363	108.235
 103	1	7	0.082726	16.9416	30.3811	107.809
 104	1	7	0.078262	15.0645	28.7754	109.82
 105	1	7	-0.001602	16.2777	28.5206	111.058
 106	1	7	0.028854	16.6839	28.2688	109.344
 107	1	3	0.315808	13.7918	31.0498	110.112
 108	1	3	0.28245	16.6285	32.8249	113.841
 109	1	8	-0.039852	14.0194	33.4628	113.951
 110	1	8	-0.059152	12.467	32.5051	111.864
 111	1	1	0.135239	3.06747	37.8085	112.075
 112	1	1	-0.124676	3.78743	38.8925	111.46
 113	1	1	0.190416	5.2189	39.1223	113.412
 114	1	1	-0.226961	4.83344	39.5663	112.14
 115	1	1	-0.017982	6.92343	37.3838	116.423
 116	1	1	-0.195812	8.2987	37.0492	116.555
 117	1	1	-0.244042	6.1929	36.8973	115.362
 118	1	1	0.131216	8.84335	36.2011	115.582
 119	1	1	-0.480889	6.71748	35.9934	114.414
 120	1	1	0.420559	8.05474	35.6063	114.567
 121	1	2	0.094496	6.08119	38.2741	117.325
 122	1	3	0.181616	8.90779	37.3865	117.385
 123	1	2	0.106535	4.78616	37.4311	115.345
 124	1	4	-0.32219	10.211	35.8945	115.684
 125	1	3	0.25841	6.11632	35.6413	113.578
 126	1	1	0.380364	10.7823	34.9969	114.769
 127	1	1	-0.639904	12.1525	34.7172	114.844
 128	1	1	0.40258	9.96594	34.5084	113.66
 129	1	1	0.235245	12.6819	33.7982	113.921
 130	1	1	-0.64044	10.5242	33.6856	112.679
 131	1	1	0.243455	11.8788	33.3134	112.839
 132	1	5	0.683739	12.927	35.1791	115.935
 133	1	4	-0.371861	8.63673	34.8344	113.591
 134	1	5	0.675894	9.73938	33.17	111.602
 135	1	6	-0.526708	9.25554	32.7177	110.698
 136	1	6	-0.532274	13.4183	35.6318	116.861
 137	1	2	0.077971	4.77195	38.4819	116.5
 138	1	1	-0.133879	4.49257	38.0602	113.991
 139	1	2	0.291414	3.71959	36.3213	115.483
 140	1	7	0.054943	3.87207	38.4303	117.127
 141	1	7	-0.083103	4.77862	39.4966	116.037
 142	1	2	-0.229696	6.8262	39.6036	117.597
 143	1	2	-0.134961	5.78411	37.6083	118.681
 144	1	7	0.062626	7.13179	40.1044	116.673
 145	1	7	0.065775	7.7522	39.4615	118.162
 146	1	7	0.079929	6.19837	40.3132	118.18
 147	1	7	0.050506	5.10542	38.2474	119.283
 148	1	7	0.024431	6.72068	37.4459	119.244
 149	1	7	0.052051	5.32188	36.6216	118.542
 150	1	2	-0.079385	2.84301	36.3413	114.192
 151	1	7	-0.096983	3.06937	36.501	116.342
 152	1	7	0.069866	4.22798	35.3359	115.621
 153	1	2	-0.079851	1.38032	36.5993	114.574
 154	1	2	-0.424117	3.01487	34.9932	113.428
 155	1	1	-0.32128	3.44581	37.4295	113.365
 156	1	7	0.133743	2.77964	34.155	114.094
 157	1	7	0.116477	4.03889	34.8045	113.017
 158	1	7	0.082726	2.2986	34.8952	112.595
 159	1	7	0.078262	1.03188	35.8034	115.235
 160	1	7	-0.001602	0.745465	36.6901	113.683
 161	1	7	0.028854	1.30396	37.5321	115.148
 162	1	3	0.315808	2.27678	37.2737	111.557
 163	1	3	0.28245	5.9972	39.5995	113.965
 164	1	8	-0.039852	5.50969	40.5823	111.537
 165	1	8	-0.059152	3.54189	39.2449	110.143
 166	1	1	0.135239	6.13815	42.6816	99.3035
 167	1	1	-0.124676	7.28311	41.9392	99.6319
 168	1	1	0.190416	7.29424	42.9062	101.906
 169	1	1	-0.226961	7.82267	42.0272	100.937
 170	1	1	-0.017982	6.44293	45.1697	104.571
 171	1	1	-0.195812	6.64485	44.845	105.936
 172	1	1	-0.244042	5.5455	44.3956	103.798
 173	1	1	0.131216	5.94395	43.8426	106.496
 174	1	1	-0.480889	4.85956	43.2984	104.396
 175	1	1	0.420559	5.06589	43.0474	105.719
 176	1	2	0.094496	7.07605	46.255	103.716
 177	1	3	0.181616	7.36121	45.3522	106.586
 178	1	2	0.106535	5.53112	44.8062	102.338
 179	1	4	-0.32219	6.24265	43.4792	107.771
 180	1	3	0.25841	4.17199	42.6597	103.869
 181	1	1	0.380364	5.58738	42.4306	108.397
 182	1	1	-0.639904	5.97874	41.9637	109.669
 183	1	1	0.40258	4.68054	41.6358	107.588
 184	1	1	0.235245	5.21145	40.9962	110.295
 185	1	1	-0.64044	3.95119	40.6155	108.181
 186	1	1	0.243455	4.20609	40.2882	109.538
 187	1	5	0.683739	6.97446	42.8065	110.321
 188	1	4	-0.371861	4.42364	42.0336	106.307
 189	1	5	0.675894	2.94503	39.8908	107.379
 190	1	6	-0.526708	2.14153	39.2283	106.901
 191	1	6	-0.532274	7.74334	43.5221	110.749
 192	1	2	0.077971	6.36092	46.1484	102.334
 193	1	1	-0.133879	6.21637	43.7246	101.494
 194	1	2	0.291414	4.15518	44.9237	101.58
 195	1	7	0.054943	5.65715	46.9654	102.245
 196	1	7	-0.083103	7.05076	46.2814	101.497
 197	1	2	-0.229696	8.60881	46.0867	103.562
 198	1	2	-0.134961	6.82481	47.6251	104.39
 199	1	7	0.062626	8.87853	45.1801	102.996
 200	1	7	0.065775	9.09601	46.0929	104.544
 201	1	7	0.079929	9.00456	46.944	103.014
 202	1	7	0.050506	7.1663	48.4305	103.741
 203	1	7	0.024431	7.3664	47.7125	105.348
 204	1	7	0.052051	5.7581	47.8212	104.517
 205	1	2	-0.079385	4.42654	44.4745	100.097
 206	1	7	-0.096983	3.7219	45.9268	101.731
 207	1	7	0.069866	3.43378	44.2174	102.034
 208	1	2	-0.079851	4.77792	45.6655	99.1741
 209	1	2	-0.424117	3.21544	43.7063	99.5152
 210	1	1	-0.32128	5.6059	43.5586	100.257
 211	1	7	0.133743	2.32297	44.3347	99.4612
 212	1	7	0.116477	2.95382	42.8416	100.126
 213	1	7	0.082726	3.39977	43.3244	98.5068
 214	1	7	0.078262	5.67606	46.1904	99.5153
 215	1	7	-0.001602	3.9614	46.3828	99.096
 216	1	7	0.028854	5.00025	45.3306	98.1496
 217	1	3	0.315808	5.71474	42.5844	98.3084
 218	1	3	0.28245	7.75025	43.0094	102.888
 219	1	8	-0.039852	8.92195	41.2884	101.256
 220	1	8	-0.059152	7.87244	41.1159	98.7042
 221	1	1	0.135239	13.9812	32.8896	93.284
 222	1	1	-0.124676	12.794	32.2829	93.7514
 223	1	1	0.190416	13.0511	33.3971	95.9338
 224	1	1	-0.226961	12.3088	32.5508	95.0586
 225	1	1	-0.017982	14.8395	35.9549	98.3485
 226	1	1	-0.195812	14.2605	36.759	99.342
 227	1	1	-0.244042	14.3153	35.8794	97.0518
 228	1	1	0.131216	13.0849	37.4725	99.0319
 229	1	1	-0.480889	13.1398	36.5721	96.7439
 230	1	1	0.420559	12.5503	37.4172	97.7213
 231	1	2	0.094496	16.0855	35.113	98.5176
 232	1	3	0.181616	14.7209	36.8342	100.335
 233	1	2	0.106535	15.1159	34.9376	96.1994
 234	1	4	-0.32219	12.4865	38.298	99.9823
 235	1	3	0.25841	12.6999	36.5005	95.7561
 236	1	1	0.380364	11.3774	39.0551	99.6358
 237	1	1	-0.639904	10.7863	39.866	100.598
 238	1	1	0.40258	10.8239	38.9823	98.3243
 239	1	1	0.235245	9.56457	40.5338	100.307
 240	1	1	-0.64044	9.62659	39.6408	98.0112
 241	1	1	0.243455	9.04966	40.476	98.982
 242	1	5	0.683739	11.3155	39.917	101.918
 243	1	4	-0.371861	11.3966	38.1296	97.4054
 244	1	5	0.675894	9.0141	39.4465	96.7356
 245	1	6	-0.526708	8.5741	39.2228	95.6791
 246	1	6	-0.532274	11.6223	40.0802	103.013
 247	1	2	0.077971	16.0339	34.2202	97.2213
 248	1	1	-0.133879	14.2359	33.9622	95.4587
 249	1	2	0.291414	15.9115	35.6168	95.0577
 250	1	7	0.054943	17.0324	34.0474	96.8046
 251	1	7	-0.083103	15.5854	33.2407	97.4614
 252	1	2	-0.229696	16.0599	34.2418	99.8081
 253	1	2	-0.134961	17.3294	36.066	98.5274
 254	1	7	0.062626	16.8923	33.5452	99.7826
 255	1	7	0.065775	15.1419	33.6459	99.8906
 256	1	7	0.079929	16.1436	34.8601	100.715
 257	1	7	0.050506	17.3814	36.7176	97.6388
 258	1	7	0.024431	18.2611	35.468	98.5728
 259	1	7	0.052051	17.3071	36.7511	99.3776
 260	1	2	-0.079385	15.8906	34.6063	93.8614
 261	1	7	-0.096983	16.9178	35.9485	95.3566
 262	1	7	0.069866	15.3346	36.4909	94.7592
 263	1	2	-0.079851	17.2005	33.7508	93.8377
 264	1	2	-0.424117	15.7473	35.3734	92.5155
 265	1	1	-0.32128	14.6571	33.7807	94.1473
 266	1	7	0.133743	16.5786	36.0877	92.3978
 267	1	7	0.116477	14.8102	35.9433	92.4631
 268	1	7	0.082726	15.7547	34.6708	91.6652
 269	1	7	0.078262	17.1704	33.0677	92.9715
 270	1	7	-0.001602	17.3416	33.1291	94.7334
 271	1	7	0.028854	18.0813	34.3896	93.754
 272	1	3	0.315808	14.3429	32.7183	92.2697
 273	1	3	0.28245	12.7107	33.6407	96.9275
 274	1	8	-0.039852	11.0712	32.0608	95.4453
 275	1	8	-0.059152	12.0721	31.4415	92.9313
 276	1	1	0.135239	4.00793	24.9237	87.5981
 277	1	1	-0.124676	3.63899	26.1091	86.9183
 278	1	1	0.190416	3.59092	27.3344	89.0327
 279	1	1	-0.226961	3.43068	27.3148	87.6292
 280	1	1	-0.017982	4.39341	27.4547	93.0517
 281	1	1	-0.195812	5.04255	28.3595	93.9182
 282	1	1	-0.244042	4.98157	27.0133	91.8632
 283	1	1	0.131216	6.32457	28.8065	93.5652
 284	1	1	-0.480889	6.24324	27.5241	91.4849
 285	1	1	0.420559	6.88749	28.428	92.3347
 286	1	2	0.094496	3.04213	26.827	93.293
 287	1	3	0.181616	4.5786	28.6854	94.8381
 288	1	2	0.106535	4.14717	25.9572	91.1782
 289	1	4	-0.32219	7.02536	29.6134	94.4331
 290	1	3	0.25841	6.73231	27.1963	90.5621
 291	1	1	0.380364	8.29052	30.0561	94.0785
 292	1	1	-0.639904	9.04598	30.8294	94.9857
 293	1	1	0.40258	8.84137	29.6968	92.8272
 294	1	1	0.235245	10.3357	31.2796	94.6124
 295	1	1	-0.64044	10.1145	30.1373	92.4517
 296	1	1	0.243455	10.8428	30.9825	93.3186
 297	1	5	0.683739	8.47842	31.1528	96.2703
 298	1	4	-0.371861	8.11993	28.9021	91.9573
 299	1	5	0.675894	10.617	29.8201	91.137
 300	1	6	-0.526708	11.0793	29.6031	90.1047
 301	1	6	-0.532274	7.96936	31.368	97.2894
 302	1	2	0.077971	2.7942	26.0742	91.9376
 303	1	1	-0.133879	3.96739	26.148	89.6867
 304	1	2	0.291414	4.77612	24.5269	91.2671
 305	1	7	0.054943	2.30772	25.1036	92.0766
 306	1	7	-0.083103	2.10719	26.6777	91.3262
 307	1	2	-0.229696	1.95643	27.8799	93.6009
 308	1	2	-0.134961	3.14791	25.8151	94.4448
 309	1	7	0.062626	1.90027	28.6405	92.8167
 310	1	7	0.065775	2.11699	28.3713	94.5677
 311	1	7	0.079929	0.987967	27.3708	93.6464
 312	1	7	0.050506	2.1914	25.2853	94.5282
 313	1	7	0.024431	3.31438	26.3087	95.4182
 314	1	7	0.052051	3.93523	25.0685	94.2687
 315	1	2	-0.079385	4.55187	23.804	89.8883
 316	1	7	-0.096983	4.34524	23.9313	92.0883
 317	1	7	0.069866	5.84613	24.6083	91.4716
 318	1	2	-0.079851	3.36162	22.8083	89.9661
 319	1	2	-0.424117	5.8071	23.0765	89.3755
 320	1	1	-0.32128	4.17841	24.9584	88.9897
 321	1	7	0.133743	5.60039	22.5187	88.4497
 322	1	7	0.116477	6.21618	22.3672	90.108
 323	1	7	0.082726	6.58626	23.8187	89.1375
 324	1	7	0.078262	2.44506	23.3165	90.2873
 325	1	7	-0.001602	3.55833	21.9912	90.6678
 326	1	7	0.028854	3.16999	22.3788	88.9807
 327	1	3	0.315808	4.15901	23.9984	87.047
 328	1	3	0.28245	3.44905	28.2462	89.6028
 329	1	8	-0.039852	3.07066	28.4462	86.9455
 330	1	8	-0.059152	3.48895	26.0907	85.5649
 331	1	1	0.135239	3.7007	28.3394	74.6405
 332	1	1	-0.124676	5.0341	28.3129	75.0804
 333	1	1	0.190416	4.50871	29.8726	76.8993
 334	1	1	-0.226961	5.43065	29.0822	76.212
 335	1	1	-0.017982	1.82065	31.7102	79.2212
 336	1	1	-0.195812	1.81631	31.7744	80.6395
 337	1	1	-0.244042	2.0222	30.4887	78.5754
 338	1	1	0.131216	1.98891	30.5765	81.3525
 339	1	1	-0.480889	2.21599	29.2919	79.2909
 340	1	1	0.420559	2.20376	29.3459	80.6915
 341	1	2	0.094496	1.62621	32.8414	78.2256
 342	1	3	0.181616	1.67686	32.7049	81.1943
 343	1	2	0.106535	2.03502	30.6543	77.0751
 344	1	4	-0.32219	2.04593	30.6281	82.7201
 345	1	3	0.25841	2.38241	28.3456	78.7776
 346	1	1	0.380364	2.38887	29.499	83.469
 347	1	1	-0.639904	2.53119	29.5819	84.8759
 348	1	1	0.40258	2.64182	28.2858	82.7675
 349	1	1	0.235245	2.88613	28.415	85.5858
 350	1	1	-0.64044	2.9423	27.1091	83.4801
 351	1	1	0.243455	3.12505	27.2072	84.8785
 352	1	5	0.683739	2.31426	30.833	85.545
 353	1	4	-0.371861	2.45743	28.2031	81.3985
 354	1	5	0.675894	3.17686	25.8989	82.7531
 355	1	6	-0.526708	3.33968	24.9475	82.1071
 356	1	6	-0.532274	2.17651	31.7556	86.2156
 357	1	2	0.077971	2.11815	32.1878	76.8827
 358	1	1	-0.133879	3.18465	29.8976	76.4568
 359	1	2	0.291414	0.802685	30.0144	76.3756
 360	1	7	0.054943	1.54224	32.5598	76.0118
 361	1	7	-0.083103	3.16396	32.4526	76.6789
 362	1	2	-0.229696	2.48077	34.0829	78.6107
 363	1	2	-0.134961	0.141114	33.1932	78.1094
 364	1	7	0.062626	2.16205	34.5123	79.5617
 365	1	7	0.065775	2.3645	34.8591	77.8433
 366	1	7	0.079929	3.54588	33.84	78.6899
 367	1	7	0.050506	-0.00467075	33.9887	77.3699
 368	1	7	0.024431	-0.217711	33.5622	79.081
 369	1	7	0.052051	-0.477826	32.3261	77.8205
 370	1	2	-0.079385	1.31165	29.2862	75.0801
 371	1	7	-0.096983	0.0081035	30.7437	76.1454
 372	1	7	0.069866	0.358982	29.2626	77.026
 373	1	2	-0.079851	1.11538	30.173	73.8189
 374	1	2	-0.424117	0.617875	27.9131	74.8596
 375	1	1	-0.32128	2.77925	29.1398	75.3541
 376	1	7	0.133743	0.941482	27.4513	73.9181
 377	1	7	0.116477	-0.465894	28.0427	74.7709
 378	1	7	0.082726	0.809573	27.2007	75.6715
 379	1	7	0.078262	1.67138	31.1154	73.8691
 380	1	7	-0.001602	0.0487652	30.4151	73.7268
 381	1	7	0.028854	1.40182	29.6331	72.9074
 382	1	3	0.315808	3.35019	27.7736	73.7896
 383	1	3	0.28245	4.79079	30.4395	77.7804
 384	1	8	-0.039852	6.74714	29.0829	76.6215
 385	1	8	-0.059152	5.99011	27.5906	74.4015
 386	1	1	0.135239	16.3767	23.1486	70.4518
 387	1	1	-0.124676	16.2876	22.0904	71.3729
 388	1	1	0.190416	15.5202	23.6313	73.1223
 389	1	1	-0.226961	15.8427	22.3279	72.6877
 390	1	1	-0.017982	14.6543	27.3017	74.4128
 391	1	1	-0.195812	13.6653	27.8059	75.2697
 392	1	1	-0.244042	14.2911	26.5148	73.328
 393	1	1	0.131216	12.3187	27.493	74.9958
 394	1	1	-0.480889	12.9577	26.1502	73.0776
 395	1	1	0.420559	11.9505	26.6574	73.9114
 396	1	2	0.094496	16.1508	27.635	74.4067
 397	1	3	0.181616	13.9264	28.4485	76.1081
 398	1	2	0.106535	15.5194	26.1439	72.5114
 399	1	4	-0.32219	11.3495	28.0089	75.825
 400	1	3	0.25841	12.6714	25.5235	72.2492
 401	1	1	0.380364	10.0182	27.8558	75.5084
 402	1	1	-0.639904	9.04755	28.513	76.2763
 403	1	1	0.40258	9.66913	27.0706	74.3802
 404	1	1	0.235245	7.69454	28.4171	75.8891
 405	1	1	-0.64044	8.32081	26.9803	74.0024
 406	1	1	0.243455	7.32809	27.6472	74.7522
 407	1	5	0.683739	9.40557	29.3372	77.3774
 408	1	4	-0.371861	10.6329	26.4207	73.638
 409	1	5	0.675894	7.96264	26.1983	72.8737
 410	1	6	-0.526708	7.57304	25.5958	71.9784
 411	1	6	-0.532274	9.59234	30.0422	78.2639
 412	1	2	0.077971	16.7231	26.654	73.3548
 413	1	1	-0.133879	15.6706	24.6732	72.2117
 414	1	2	0.291414	15.5291	26.7827	71.1007
 415	1	7	0.054943	17.5221	27.1082	72.7477
 416	1	7	-0.083103	17.1851	25.8118	73.8875
 417	1	2	-0.229696	16.7808	27.3611	75.8016
 418	1	2	-0.134961	16.362	29.1045	73.9637
 419	1	7	0.062626	17.8685	27.4698	75.8054
 420	1	7	0.065775	16.5501	26.3343	76.1179
 421	1	7	0.079929	16.3955	28.0538	76.5569
 422	1	7	0.050506	17.4273	29.3293	73.8233
 423	1	7	0.024431	15.964	29.8122	74.6928
 424	1	7	0.052051	15.8665	29.2968	73.0
 425	1	2	-0.079385	16.1479	25.7388	70.0996
 426	1	7	-0.096983	16.0556	27.748	71.0674
 427	1	7	0.069866	14.4845	26.9718	70.8117
 428	1	2	-0.079851	17.637	26.0397	69.7422
 429	1	2	-0.424117	15.3413	25.6514	68.7814
 430	1	1	-0.32128	16.0694	24.4488	70.8983
 431	1	7	0.133743	15.7798	24.9113	68.1032
 432	1	7	0.116477	15.3072	26.6171	68.2633
 433	1	7	0.082726	14.3003	25.3512	68.9743
 434	1	7	0.078262	17.7393	27.0193	69.2747
 435	1	7	-0.001602	18.0242	25.2994	69.0315
 436	1	7	0.028854	18.2846	25.9973	70.6334
 437	1	3	0.315808	16.7027	22.9647	69.4376
 438	1	3	0.28245	15.1645	23.827	74.1324
 439	1	8	-0.039852	15.8561	21.2803	73.5639
 440	1	8	-0.059152	16.6345	20.8318	70.977
 441	1	1	0.135239	21.2189	10.1232	70.9264
 442	1	1	-0.124676	19.9029	9.63088	70.7031
 443	1	1	0.190416	19.0435	10.9585	72.5597
 444	1	1	-0.226961	18.8334	10.0397	71.4916
 445	1	1	-0.017982	19.5853	13.929	75.2782
 446	1	1	-0.195812	18.7634	15.0019	75.5762
 447	1	1	-0.244042	19.9398	13.6527	73.9646
 448	1	1	0.131216	18.3179	15.8338	74.5439
 449	1	1	-0.480889	19.4805	14.4503	72.886
 450	1	1	0.420559	18.6843	15.5671	73.1996
 451	1	2	0.094496	20.1524	12.9224	76.2593
 452	1	3	0.181616	18.5276	15.243	76.6038
 453	1	2	0.106535	20.8048	12.3789	73.8588
 454	1	4	-0.32219	17.6093	16.9965	74.8769
 455	1	3	0.25841	19.7603	14.2556	71.8554
 456	1	1	0.380364	17.3104	17.9251	73.9008
 457	1	1	-0.639904	16.6565	19.1186	74.2647
 458	1	1	0.40258	17.719	17.6775	72.5477
 459	1	1	0.235245	16.4178	20.079	73.2501
 460	1	1	-0.64044	17.4665	18.6367	71.5444
 461	1	1	0.243455	16.8394	19.8528	71.9143
 462	1	5	0.683739	16.2052	19.3548	75.6121
 463	1	4	-0.371861	18.3114	16.4383	72.2213
 464	1	5	0.675894	17.9037	18.3891	70.2012
 465	1	6	-0.526708	18.228	18.2534	69.1066
 466	1	6	-0.532274	15.8163	19.6316	76.6608
 467	1	2	0.077971	20.7011	11.7915	75.3305
 468	1	1	-0.133879	20.3615	11.4204	72.7613
 469	1	2	0.291414	22.2703	12.7245	73.479
 470	1	7	0.054943	21.6489	11.3922	75.7146
 471	1	7	-0.083103	19.9999	10.9476	75.3239
 472	1	2	-0.229696	19.0806	12.4011	77.2213
 473	1	2	-0.134961	21.3313	13.6074	77.0301
 474	1	7	0.062626	18.218	12.0476	76.6492
 475	1	7	0.065775	18.7358	13.1972	77.8922
 476	1	7	0.079929	19.4562	11.5542	77.819
 477	1	7	0.050506	21.8202	12.8882	77.6941
 478	1	7	0.024431	20.9818	14.434	77.6608
 479	1	7	0.052051	22.075	14.0135	76.3371
 480	1	2	-0.079385	22.7185	11.6687	72.4121
 481	1	7	-0.096983	22.9697	12.7882	74.3216
 482	1	7	0.069866	22.2364	13.7205	73.0218
 483	1	2	-0.079851	23.5986	10.5968	73.0921
 484	1	2	-0.424117	23.4843	12.2831	71.2199
 485	1	1	-0.32128	21.4186	11.0229	71.9632
 486	1	7	0.133743	24.4465	12.7052	71.5721
 487	1	7	0.116477	22.9195	13.1126	70.7642
 488	1	7	0.082726	23.7107	11.5487	70.4327
 489	1	7	0.078262	23.892	9.79932	72.3958
 490	1	7	-0.001602	23.1204	10.1281	73.959
 491	1	7	0.028854	24.5241	11.042	73.4551
 492	1	3	0.315808	22.0796	9.81271	70.3305
 493	1	3	0.28245	18.2545	11.3006	73.2402
 494	1	8	-0.039852	17.573	9.56412	71.28
 495	1	8	-0.059152	19.6562	8.75324	69.7193
 496	1	1	0.135239	14.8156	6.73746	60.7706
 497	1	1	-0.124676	14.6589	8.1015	61.1296
 498	1	1	0.190416	13.5227	7.39135	63.1179
 499	1	1	-0.226961	14.0278	8.42152	62.3204
 500	1	1	-0.017982	12.7508	5.33986	65.8241
 501	1	1	-0.195812	12.9788	5.9098	67.1003
 502	1	1	-0.244042	13.8295	5.12965	64.9573
 503	1	1	0.131216	14.2854	6.23648	67.488
 504	1	1	-0.480889	15.1967	5.44265	65.3341
 505	1	1	0.420559	15.361	5.96185	66.6066
 506	1	2	0.094496	11.4223	5.08648	65.1736
 507	1	3	0.181616	12.1887	6.07524	67.8133
 508	1	2	0.106535	13.3144	4.78988	63.5337
 509	1	4	-0.32219	14.5517	6.80413	68.7359
 510	1	3	0.25841	16.0671	5.36809	64.6731
 511	1	1	0.380364	15.8399	7.26845	69.0381
 512	1	1	-0.639904	15.9909	8.15672	70.0825
 513	1	1	0.40258	16.9704	6.98204	68.1344
 514	1	1	0.235245	17.2922	8.68369	70.2977
 515	1	1	-0.64044	18.2596	7.41297	68.3607
 516	1	1	0.243455	18.4208	8.35712	69.4715
 517	1	5	0.683739	14.927	8.56263	70.8992
 518	1	4	-0.371861	16.6775	6.22068	66.9363
 519	1	5	0.675894	19.2513	6.98949	67.4574
 520	1	6	-0.526708	20.2912	6.96406	66.9895
 521	1	6	-0.532274	13.9822	8.88047	71.4709
 522	1	2	0.077971	11.7926	4.6659	63.7112
 523	1	1	-0.133879	13.6302	6.0464	62.6733
 524	1	2	0.291414	14.0168	3.66145	62.7999
 525	1	7	0.054943	11.4868	3.63451	63.5186
 526	1	7	-0.083103	11.1801	5.24707	62.9701
 527	1	2	-0.229696	10.5224	6.30913	65.2001
 528	1	2	-0.134961	10.6954	3.91275	65.9245
 529	1	7	0.062626	9.60316	5.99131	64.6947
 530	1	7	0.065775	10.9564	7.13682	64.6077
 531	1	7	0.079929	10.3072	6.60124	66.2255
 532	1	7	0.050506	9.71447	3.79304	65.446
 533	1	7	0.024431	10.4593	4.16851	66.9689
 534	1	7	0.052051	11.199	2.93722	65.8941
 535	1	2	-0.079385	14.3884	4.2375	61.3556
 536	1	7	-0.096983	13.5564	2.67102	62.8491
 537	1	7	0.069866	14.9357	3.59027	63.3826
 538	1	2	-0.079851	13.3099	3.75722	60.2876
 539	1	2	-0.424117	15.7647	3.86443	60.8971
 540	1	1	-0.32128	14.26	5.7052	61.5152
 541	1	7	0.133743	15.9625	4.11935	59.8577
 542	1	7	0.116477	15.8349	2.76786	60.926
 543	1	7	0.082726	16.5606	4.27667	61.5248
 544	1	7	0.078262	13.5875	4.16271	59.3064
 545	1	7	-0.001602	12.2374	3.96511	60.4107
 546	1	7	0.028854	13.4271	2.6848	60.1676
 547	1	3	0.315808	15.388	6.48072	59.8934
 548	1	3	0.28245	13.083	7.6578	64.108
 549	1	8	-0.039852	13.8621	9.6921	62.6939
 550	1	8	-0.059152	15.2747	9.10399	60.429
 551	1	1	0.135239	21.8573	18.5465	58.355
 552	1	1	-0.124676	22.755	18.0297	59.2627
 553	1	1	0.190416	20.9407	17.5681	60.8939
 554	1	1	-0.226961	22.3121	17.6369	60.5646
 555	1	1	-0.017982	17.0449	17.4927	61.8212
 556	1	1	-0.195812	16.1644	16.5285	62.4081
 557	1	1	-0.244042	17.8793	17.1548	60.7401
 558	1	1	0.131216	16.1646	15.2559	61.8571
 559	1	1	-0.480889	17.8976	15.8711	60.187
 560	1	1	0.420559	17.0088	14.9274	60.7342
 561	1	2	0.094496	17.1554	18.9719	62.1534
 562	1	3	0.181616	15.4811	16.7709	63.1849
 563	1	2	0.106535	18.6232	18.3164	60.2362
 564	1	4	-0.32219	15.3107	14.3136	62.4152
 565	1	3	0.25841	18.4645	15.6385	59.3147
 566	1	1	0.380364	15.3592	13.0215	62.025
 567	1	1	-0.639904	14.4943	12.0052	62.5859
 568	1	1	0.40258	16.1295	12.6308	60.8694
 569	1	1	0.235245	14.5884	10.7325	62.0755
 570	1	1	-0.64044	16.0232	11.3677	60.2332
 571	1	1	0.243455	15.3267	10.3926	60.8842
 572	1	5	0.683739	13.8525	12.3668	63.8202
 573	1	4	-0.371861	16.8688	13.643	60.1874
 574	1	5	0.675894	16.8296	11.1562	59.1015
 575	1	6	-0.526708	17.3928	10.7235	58.1588
 576	1	6	-0.532274	13.4434	12.7109	64.7417
 577	1	2	0.077971	18.3774	19.4342	61.3134
 578	1	1	-0.133879	20.0836	18.1062	59.9568
 579	1	2	0.291414	18.1157	18.8041	58.8118
 580	1	7	0.054943	18.1995	20.4339	60.8596
 581	1	7	-0.083103	19.2526	19.5447	62.0536
 582	1	2	-0.229696	17.4468	19.1727	63.6561
 583	1	2	-0.134961	15.8503	19.651	61.719
 584	1	7	0.062626	18.3548	18.6316	63.968
 585	1	7	0.065775	16.5849	18.8394	64.24
 586	1	7	0.079929	17.5856	20.2414	63.8437
 587	1	7	0.050506	15.9022	20.7286	61.8536
 588	1	7	0.024431	15.0206	19.253	62.3059
 589	1	7	0.052051	15.6798	19.4689	60.6553
 590	1	2	-0.079385	19.387	19.2058	57.9585
 591	1	7	-0.096983	17.3981	19.6257	58.7918
 592	1	7	0.069866	17.6324	17.9549	58.3229
 593	1	2	-0.079851	19.533	20.7256	57.8356
 594	1	2	-0.424117	19.2611	18.5862	56.5746
 595	1	1	-0.32128	20.5099	18.5859	58.7221
 596	1	7	0.133743	20.0765	18.9349	55.9291
 597	1	7	0.116477	18.3663	19.0145	56.1314
 598	1	7	0.082726	19.2007	17.473	56.5004
 599	1	7	0.078262	19.5208	21.1698	58.8456
 600	1	7	-0.001602	18.6834	21.1012	57.2631
 601	1	7	0.028854	20.4648	20.9891	57.2973
 602	1	3	0.315808	22.1998	18.8959	57.3846
 603	1	3	0.28245	20.5763	17.2137	61.8663
 604	1	8	-0.039852	23.2651	17.1614	61.4758
 605	1	8	-0.059152	24.0585	17.9824	58.9598
 606	1	1	0.135239	35.1047	20.2338	59.6003
 607	1	1	-0.124676	35.594	18.9893	59.1282
 608	1	1	0.190416	34.4758	17.8009	60.9525
 609	1	1	-0.226961	35.2842	17.7705	59.8185
 610	1	1	-0.017982	31.3543	17.9911	63.6993
 611	1	1	-0.195812	30.089	17.4233	63.8237
 612	1	1	-0.244042	31.7475	18.6132	62.4752
 613	1	1	0.131216	29.1964	17.433	62.7339
 614	1	1	-0.480889	30.8668	18.574	61.3822
 615	1	1	0.420559	29.5954	17.983	61.4826
 616	1	2	0.094496	32.4287	18.1558	64.7658
 617	1	3	0.181616	29.7353	17.0195	64.7688
 618	1	2	0.106535	33.0964	19.3172	62.6101
 619	1	4	-0.32219	27.9058	17.0046	62.9372
 620	1	3	0.25841	31.0972	19.027	60.4308
 621	1	1	0.380364	26.9361	17.1691	61.9455
 622	1	1	-0.639904	25.5713	16.9634	62.1806
 623	1	1	0.40258	27.3572	17.7458	60.7219
 624	1	1	0.235245	24.6246	17.3033	61.1798
 625	1	1	-0.64044	26.426	17.9738	59.6897
 626	1	1	0.243455	25.0409	17.7293	59.8953
 627	1	5	0.683739	25.1426	16.5178	63.4771
 628	1	4	-0.371861	28.6981	18.0356	60.4679
 629	1	5	0.675894	26.8025	18.5931	58.4747
 630	1	6	-0.526708	27.2812	19.0207	57.5482
 631	1	6	-0.532274	24.6573	16.1129	64.4089
 632	1	2	0.077971	33.659	18.7627	63.9522
 633	1	1	-0.133879	33.9951	19.0505	61.4152
 634	1	2	0.291414	32.8679	20.8354	62.6249
 635	1	7	0.054943	34.164	19.5175	64.5646
 636	1	7	-0.083103	34.4124	17.9833	63.733
 637	1	2	-0.229696	32.7547	16.8721	65.5604
 638	1	2	-0.134961	31.9606	19.2387	65.7608
 639	1	7	0.062626	31.8556	16.519	66.0819
 640	1	7	0.065775	33.5851	17.0301	66.2848
 641	1	7	0.079929	33.0621	16.1139	64.8391
 642	1	7	0.050506	31.0808	18.9295	66.3416
 643	1	7	0.024431	31.6531	20.1439	65.2239
 644	1	7	0.052051	32.7527	19.5109	66.469
 645	1	2	-0.079385	33.6907	21.4202	61.4017
 646	1	7	-0.096983	33.2399	21.3104	63.5642
 647	1	7	0.069866	31.7813	21.0394	62.5506
 648	1	2	-0.079851	34.7619	22.3792	61.8754
 649	1	2	-0.424117	32.7652	22.1194	60.3822
 650	1	1	-0.32128	34.334	20.2112	60.7707
 651	1	7	0.133743	33.3009	22.4113	59.4743
 652	1	7	0.116477	32.2828	23.0217	60.7955
 653	1	7	0.082726	31.9708	21.438	60.0582
 654	1	7	0.078262	35.2088	22.9475	61.0305
 655	1	7	-0.001602	35.5967	21.8513	62.3694
 656	1	7	0.028854	34.3212	23.1037	62.5775
 657	1	3	0.315808	35.3201	21.1697	59.1029
 658	1	3	0.28245	34.1896	16.882	61.4661
 659	1	8	-0.039852	35.7843	16.5856	59.3848
 660	1	8	-0.059152	36.33	18.9481	58.0101
 661	1	1	0.135239	40.4482	14.2111	48.3129
 662	1	1	-0.124676	39.1907	13.5999	48.403
 663	1	1	0.190416	39.573	13.0093	50.7596
 664	1	1	-0.226961	38.7039	13.0469	49.6298
 665	1	1	-0.017982	41.0894	12.9378	53.927
 666	1	1	-0.195812	40.3805	12.9741	55.1334
 667	1	1	-0.244042	41.1257	14.0503	53.0496
 668	1	1	0.131216	39.7498	14.2031	55.45
 669	1	1	-0.480889	40.5042	15.2653	53.3799