

################################################################################
##################################    Init    ##################################
################################################################################
units           real
atom_style      full
pair_style      lj/cut/coul/long 12.0  12.0
kspace_style    pppm 1e-4
bond_style      harmonic
angle_style     harmonic
dihedral_style  fourier
improper_style  cvff
special_bonds   amber
pair_modify     mix arithmetic
read_data       temp.lmps
  orthogonal box = (-98.5156 -98.5156 -98.5156) to (98.5156 98.5156 98.5156)
  1 by 1 by 1 MPI processor grid
  reading atoms ...
  110 atoms
  reading velocities ...
  110 velocities
  scanning bonds ...
  3 = max bonds/atom
  scanning angles ...
  6 = max angles/atom
  scanning dihedrals ...
  27 = max dihedrals/atom
  scanning impropers ...
  2 = max impropers/atom
  reading bonds ...
  122 bonds
  reading angles ...
  222 angles
  reading dihedrals ...
  361 dihedrals
  reading impropers ...
  16 impropers
  4 = max # of 1-2 neighbors
  11 = max # of 1-3 neighbors
  24 = max # of 1-4 neighbors
  24 = max # of special neighbors
  special bonds CPU = 0.000623941 secs
  read_data CPU = 0.00791407 secs
################################################################################

timestep        1
fix             pysimm_md all nve/limit 0.1
run             2000
PPPM initialization ...
  using 12-bit tables for long-range coulomb (../kspace.cpp:332)
  G vector (1/distance) = 0.0873543
  grid = 15 15 15
  stencil order = 5
  estimated absolute RMS force accuracy = 0.0279344
  estimated relative force accuracy = 8.41235e-05
  using double precision KISS FFT
  3d grid and FFT values/proc = 8000 3375
Neighbor list info ...
  update every 1 steps, delay 10 steps, check yes
  max neighbors/atom: 2000, page size: 100000
  master list distance cutoff = 14
  ghost atom cutoff = 14
  binsize = 7, bins = 29 29 29
  1 neighbor lists, perpetual/occasional/extra = 1 0 0
  (1) pair lj/cut/coul/long, perpetual
      attributes: half, newton on
      pair build: half/bin/newton
      stencil: half/bin/3d/newton
      bin: standard
Per MPI rank memory allocation (min/avg/max) = 19.52 | 19.52 | 19.52 Mbytes
Step Temp E_pair E_mol TotEng Press 
       0    1.1014127    37.840076    640.02185    678.21978   -4.1254442 
    2000    1244.0541    42.729405    493.36744    940.30035  -0.23533302 
Loop time of 2.46638 on 1 procs for 2000 steps with 110 atoms

Performance: 70.062 ns/day, 0.343 hours/ns, 810.905 timesteps/s
100.1% CPU use with 1 MPI tasks x no OpenMP threads

MPI task timing breakdown:
Section |  min time  |  avg time  |  max time  |%varavg| %total
---------------------------------------------------------------
Pair    | 0.26255    | 0.26255    | 0.26255    |   0.0 | 10.65
Bond    | 0.11937    | 0.11937    | 0.11937    |   0.0 |  4.84
Kspace  | 2.0555     | 2.0555     | 2.0555     |   0.0 | 83.34
Neigh   | 0.019014   | 0.019014   | 0.019014   |   0.0 |  0.77
Comm    | 0.0022316  | 0.0022316  | 0.0022316  |   0.0 |  0.09
Output  | 1.4067e-05 | 1.4067e-05 | 1.4067e-05 |   0.0 |  0.00
Modify  | 0.0044634  | 0.0044634  | 0.0044634  |   0.0 |  0.18
Other   |            | 0.003221   |            |       |  0.13

Nlocal:    110 ave 110 max 110 min
Histogram: 1 0 0 0 0 0 0 0 0 0
Nghost:    71 ave 71 max 71 min
Histogram: 1 0 0 0 0 0 0 0 0 0
Neighs:    4817 ave 4817 max 4817 min
Histogram: 1 0 0 0 0 0 0 0 0 0

Total # of neighbors = 4817
Ave neighs/atom = 43.7909
Ave special neighs/atom = 11.9636
Neighbor list builds = 84
Dangerous builds = 0
unfix pysimm_md
min_style cg
minimize 0.001 0.001 10000 100000
WARNING: Using 'neigh_modify every 1 delay 0 check yes' setting during minimization (../min.cpp:190)
PPPM initialization ...
  using 12-bit tables for long-range coulomb (../kspace.cpp:332)
  G vector (1/distance) = 0.0873543
  grid = 15 15 15
  stencil order = 5
  estimated absolute RMS force accuracy = 0.0279344
  estimated relative force accuracy = 8.41235e-05
  using double precision KISS FFT
  3d grid and FFT values/proc = 8000 3375
Per MPI rank memory allocation (min/avg/max) = 20.64 | 20.64 | 20.64 Mbytes
Step Temp E_pair E_mol TotEng Press 
    2000    1244.0541    42.729405    493.36744    940.30035  -0.23533302 
    2021    1244.0541    24.250574    121.27189    549.72597    3.1915929 
Loop time of 0.097836 on 1 procs for 21 steps with 110 atoms

99.1% CPU use with 1 MPI tasks x no OpenMP threads

Minimization stats:
  Stopping criterion = energy tolerance
  Energy initial, next-to-last, final = 
         536.096847014      145.627459371      145.522463434
  Force two-norm initial, final = 982.049 101.041
  Force max component initial, final = 226.482 56.7649
  Final line search alpha, max atom move = 8.06891e-05 0.0045803
  Iterations, force evaluations = 21 93

MPI task timing breakdown:
Section |  min time  |  avg time  |  max time  |%varavg| %total
---------------------------------------------------------------
Pair    | 0.016896   | 0.016896   | 0.016896   |   0.0 | 17.27
Bond    | 0.0048168  | 0.0048168  | 0.0048168  |   0.0 |  4.92
Kspace  | 0.075725   | 0.075725   | 0.075725   |   0.0 | 77.40
Neigh   | 0          | 0          | 0          |   0.0 |  0.00
Comm    | 6.2704e-05 | 6.2704e-05 | 6.2704e-05 |   0.0 |  0.06
Output  | 0          | 0          | 0          |   0.0 |  0.00
Modify  | 0          | 0          | 0          |   0.0 |  0.00
Other   |            | 0.0003347  |            |       |  0.34

Nlocal:    110 ave 110 max 110 min
Histogram: 1 0 0 0 0 0 0 0 0 0
Nghost:    71 ave 71 max 71 min
Histogram: 1 0 0 0 0 0 0 0 0 0
Neighs:    4846 ave 4846 max 4846 min
Histogram: 1 0 0 0 0 0 0 0 0 0

Total # of neighbors = 4846
Ave neighs/atom = 44.0545
Ave special neighs/atom = 11.9636
Neighbor list builds = 0
Dangerous builds = 0
write_dump all custom pysimm.dump.tmp id q x y z vx vy vz
quit


################################################################################
##################################    Init    ##################################
################################################################################
units           real
atom_style      full
pair_style      lj/cut/coul/long 12.0  12.0
kspace_style    pppm 1e-4
bond_style      harmonic
angle_style     harmonic
dihedral_style  fourier
improper_style  cvff
special_bonds   amber
pair_modify     mix arithmetic
read_data       temp.lmps
  orthogonal box = (-98.5156 -98.5156 -98.5156) to (98.5156 98.5156 98.5156)
  1 by 1 by 1 MPI processor grid
  reading atoms ...
  165 atoms
  reading velocities ...
  165 velocities
  scanning bonds ...
  3 = max bonds/atom
  scanning angles ...
  6 = max angles/atom
  scanning dihedrals ...
  27 = max dihedrals/atom
  scanning impropers ...
  2 = max impropers/atom
  reading bonds ...
  184 bonds
  reading angles ...
  336 angles
  reading dihedrals ...
  549 dihedrals
  reading impropers ...
  24 impropers
  4 = max # of 1-2 neighbors
  11 = max # of 1-3 neighbors
  24 = max # of 1-4 neighbors
  24 = max # of special neighbors
  special bonds CPU = 0.00065279 secs
  read_data CPU = 0.00747395 secs
################################################################################

timestep        1
fix             pysimm_md all nve/limit 0.1
run             2000
PPPM initialization ...
WARNING: System is not charge neutral, net charge = -1.2e-05 (../kspace.cpp:313)
  using 12-bit tables for long-range coulomb (../kspace.cpp:332)
  G vector (1/distance) = 0.0873538
  grid = 15 15 15
  stencil order = 5
  estimated absolute RMS force accuracy = 0.0342119
  estimated relative force accuracy = 0.000103028
  using double precision KISS FFT
  3d grid and FFT values/proc = 8000 3375
Neighbor list info ...
  update every 1 steps, delay 10 steps, check yes
  max neighbors/atom: 2000, page size: 100000
  master list distance cutoff = 14
  ghost atom cutoff = 14
  binsize = 7, bins = 29 29 29
  1 neighbor lists, perpetual/occasional/extra = 1 0 0
  (1) pair lj/cut/coul/long, perpetual
      attributes: half, newton on
      pair build: half/bin/newton
      stencil: half/bin/3d/newton
      bin: standard
Per MPI rank memory allocation (min/avg/max) = 19.53 | 19.53 | 19.53 Mbytes
Step Temp E_pair E_mol TotEng Press 
       0    827.20688    196.84667    864.69279    1465.9219    1.9492667 
    2000    1928.2818    84.926264    940.24277    1967.8151    2.4838001 
Loop time of 2.79567 on 1 procs for 2000 steps with 165 atoms

Performance: 61.810 ns/day, 0.388 hours/ns, 715.391 timesteps/s
100.1% CPU use with 1 MPI tasks x no OpenMP threads

MPI task timing breakdown:
Section |  min time  |  avg time  |  max time  |%varavg| %total
---------------------------------------------------------------
Pair    | 0.46312    | 0.46312    | 0.46312    |   0.0 | 16.57
Bond    | 0.17846    | 0.17846    | 0.17846    |   0.0 |  6.38
Kspace  | 2.0988     | 2.0988     | 2.0988     |   0.0 | 75.07
Neigh   | 0.042487   | 0.042487   | 0.042487   |   0.0 |  1.52
Comm    | 0.0034184  | 0.0034184  | 0.0034184  |   0.0 |  0.12
Output  | 1.3113e-05 | 1.3113e-05 | 1.3113e-05 |   0.0 |  0.00
Modify  | 0.0061896  | 0.0061896  | 0.0061896  |   0.0 |  0.22
Other   |            | 0.003215   |            |       |  0.11

Nlocal:    165 ave 165 max 165 min
Histogram: 1 0 0 0 0 0 0 0 0 0
Nghost:    112 ave 112 max 112 min
Histogram: 1 0 0 0 0 0 0 0 0 0
Neighs:    6970 ave 6970 max 6970 min
Histogram: 1 0 0 0 0 0 0 0 0 0

Total # of neighbors = 6970
Ave neighs/atom = 42.2424
Ave special neighs/atom = 12.0848
Neighbor list builds = 118
Dangerous builds = 0
unfix pysimm_md
min_style cg
minimize 0.001 0.001 10000 100000
WARNING: Using 'neigh_modify every 1 delay 0 check yes' setting during minimization (../min.cpp:190)
PPPM initialization ...
  using 12-bit tables for long-range coulomb (../kspace.cpp:332)
  G vector (1/distance) = 0.0873538
  grid = 15 15 15
  stencil order = 5
  estimated absolute RMS force accuracy = 0.0342119
  estimated relative force accuracy = 0.000103028
  using double precision KISS FFT
  3d grid and FFT values/proc = 8000 3375
Per MPI rank memory allocation (min/avg/max) = 20.65 | 20.65 | 20.65 Mbytes
Step Temp E_pair E_mol TotEng Press 
    2000    1928.2818    84.926264    940.24277    1967.8151    2.4838001 
    2016    1928.2818    48.423761    206.96116     1198.031    5.6711816 
Loop time of 0.039712 on 1 procs for 16 steps with 165 atoms

100.7% CPU use with 1 MPI tasks x no OpenMP threads

Minimization stats:
  Stopping criterion = energy tolerance
  Energy initial, next-to-last, final = 
         1025.16903908      255.453945509      255.384921386
  Force two-norm initial, final = 1347.25 250.4
  Force max component initial, final = 281.317 97.1308
  Final line search alpha, max atom move = 0.000559922 0.0543856
  Iterations, force evaluations = 16 37

MPI task timing breakdown:
Section |  min time  |  avg time  |  max time  |%varavg| %total
---------------------------------------------------------------
Pair    | 0.0093801  | 0.0093801  | 0.0093801  |   0.0 | 23.62
Bond    | 0.0027332  | 0.0027332  | 0.0027332  |   0.0 |  6.88
Kspace  | 0.027378   | 0.027378   | 0.027378   |   0.0 | 68.94
Neigh   | 0          | 0          | 0          |   0.0 |  0.00
Comm    | 2.6226e-05 | 2.6226e-05 | 2.6226e-05 |   0.0 |  0.07
Output  | 0          | 0          | 0          |   0.0 |  0.00
Modify  | 0          | 0          | 0          |   0.0 |  0.00
Other   |            | 0.0001943  |            |       |  0.49

Nlocal:    165 ave 165 max 165 min
Histogram: 1 0 0 0 0 0 0 0 0 0
Nghost:    112 ave 112 max 112 min
Histogram: 1 0 0 0 0 0 0 0 0 0
Neighs:    6976 ave 6976 max 6976 min
Histogram: 1 0 0 0 0 0 0 0 0 0

Total # of neighbors = 6976
Ave neighs/atom = 42.2788
Ave special neighs/atom = 12.0848
Neighbor list builds = 0
Dangerous builds = 0
write_dump all custom pysimm.dump.tmp id q x y z vx vy vz
quit


################################################################################
##################################    Init    ##################################
################################################################################
units           real
atom_style      full
pair_style      lj/cut/coul/long 12.0  12.0
kspace_style    pppm 1e-4
bond_style      harmonic
angle_style     harmonic
dihedral_style  fourier
improper_style  cvff
special_bonds   amber
pair_modify     mix arithmetic
read_data       temp.lmps
  orthogonal box = (-98.5156 -98.5156 -98.5156) to (98.5156 98.5156 98.5156)
  1 by 1 by 1 MPI processor grid
  reading atoms ...
  220 atoms
  reading velocities ...
  220 velocities
  scanning bonds ...
  3 = max bonds/atom
  scanning angles ...
  6 = max angles/atom
  scanning dihedrals ...
  27 = max dihedrals/atom
  scanning impropers ...
  2 = max impropers/atom
  reading bonds ...
  246 bonds
  reading angles ...
  450 angles
  reading dihedrals ...
  737 dihedrals
  reading impropers ...
  32 impropers
  4 = max # of 1-2 neighbors
  11 = max # of 1-3 neighbors
  24 = max # of 1-4 neighbors
  24 = max # of special neighbors
  special bonds CPU = 0.000339985 secs
  read_data CPU = 0.00768518 secs
################################################################################

timestep        1
fix             pysimm_md all nve/limit 0.1
run             2000
PPPM initialization ...
WARNING: System is not charge neutral, net charge = -1.6e-05 (../kspace.cpp:313)
  using 12-bit tables for long-range coulomb (../kspace.cpp:332)
  G vector (1/distance) = 0.0916969
  grid = 16 16 16
  stencil order = 5
  estimated absolute RMS force accuracy = 0.0353188
  estimated relative force accuracy = 0.000106361
  using double precision KISS FFT
  3d grid and FFT values/proc = 9261 4096
Neighbor list info ...
  update every 1 steps, delay 10 steps, check yes
  max neighbors/atom: 2000, page size: 100000
  master list distance cutoff = 14
  ghost atom cutoff = 14
  binsize = 7, bins = 29 29 29
  1 neighbor lists, perpetual/occasional/extra = 1 0 0
  (1) pair lj/cut/coul/long, perpetual
      attributes: half, newton on
      pair build: half/bin/newton
      stencil: half/bin/3d/newton
      bin: standard
Per MPI rank memory allocation (min/avg/max) = 19.64 | 19.64 | 19.64 Mbytes
Step Temp E_pair E_mol TotEng Press 
       0    1444.2844    131.13567    823.08358    1897.0443    2.2977983 
    2000    1547.8567    103.10754    1200.6847    2314.2291   -5.7500224 
Loop time of 2.17101 on 1 procs for 2000 steps with 220 atoms

Performance: 79.594 ns/day, 0.302 hours/ns, 921.231 timesteps/s
100.1% CPU use with 1 MPI tasks x no OpenMP threads

MPI task timing breakdown:
Section |  min time  |  avg time  |  max time  |%varavg| %total
---------------------------------------------------------------
Pair    | 0.37972    | 0.37972    | 0.37972    |   0.0 | 17.49
Bond    | 0.1534     | 0.1534     | 0.1534     |   0.0 |  7.07
Kspace  | 1.5865     | 1.5865     | 1.5865     |   0.0 | 73.08
Neigh   | 0.041125   | 0.041125   | 0.041125   |   0.0 |  1.89
Comm    | 0.0027981  | 0.0027981  | 0.0027981  |   0.0 |  0.13
Output  | 1.1921e-05 | 1.1921e-05 | 1.1921e-05 |   0.0 |  0.00
Modify  | 0.0051904  | 0.0051904  | 0.0051904  |   0.0 |  0.24
Other   |            | 0.002266   |            |       |  0.10

Nlocal:    220 ave 220 max 220 min
Histogram: 1 0 0 0 0 0 0 0 0 0
Nghost:    162 ave 162 max 162 min
Histogram: 1 0 0 0 0 0 0 0 0 0
Neighs:    9560 ave 9560 max 9560 min
Histogram: 1 0 0 0 0 0 0 0 0 0

Total # of neighbors = 9560
Ave neighs/atom = 43.4545
Ave special neighs/atom = 12.1455
Neighbor list builds = 125
Dangerous builds = 0
unfix pysimm_md
min_style cg
minimize 0.001 0.001 10000 100000
WARNING: Using 'neigh_modify every 1 delay 0 check yes' setting during minimization (../min.cpp:190)
PPPM initialization ...
  using 12-bit tables for long-range coulomb (../kspace.cpp:332)
  G vector (1/distance) = 0.0916969
  grid = 16 16 16
  stencil order = 5
  estimated absolute RMS force accuracy = 0.0353188
  estimated relative force accuracy = 0.000106361
  using double precision KISS FFT
  3d grid and FFT values/proc = 9261 4096
Per MPI rank memory allocation (min/avg/max) = 20.77 | 20.77 | 20.77 Mbytes
Step Temp E_pair E_mol TotEng Press 
    2000    1547.8567    103.10754    1200.6847    2314.2291   -5.7500224 
    2015    1547.8567    60.449689    254.70511    1325.5917    4.6646022 
Loop time of 0.0329289 on 1 procs for 15 steps with 220 atoms

97.2% CPU use with 1 MPI tasks x no OpenMP threads

Minimization stats:
  Stopping criterion = energy tolerance
  Energy initial, next-to-last, final = 
         1303.79224117      315.322668734      315.154801061
  Force two-norm initial, final = 1671.89 331.378
  Force max component initial, final = 414.524 131.479
  Final line search alpha, max atom move = 0.000465023 0.0611406
  Iterations, force evaluations = 15 27

MPI task timing breakdown:
Section |  min time  |  avg time  |  max time  |%varavg| %total
---------------------------------------------------------------
Pair    | 0.008291   | 0.008291   | 0.008291   |   0.0 | 25.18
Bond    | 0.0023568  | 0.0023568  | 0.0023568  |   0.0 |  7.16
Kspace  | 0.022088   | 0.022088   | 0.022088   |   0.0 | 67.08
Neigh   | 0          | 0          | 0          |   0.0 |  0.00
Comm    | 3.1948e-05 | 3.1948e-05 | 3.1948e-05 |   0.0 |  0.10
Output  | 0          | 0          | 0          |   0.0 |  0.00
Modify  | 0          | 0          | 0          |   0.0 |  0.00
Other   |            | 0.0001614  |            |       |  0.49

Nlocal:    220 ave 220 max 220 min
Histogram: 1 0 0 0 0 0 0 0 0 0
Nghost:    162 ave 162 max 162 min
Histogram: 1 0 0 0 0 0 0 0 0 0
Neighs:    9559 ave 9559 max 9559 min
Histogram: 1 0 0 0 0 0 0 0 0 0

Total # of neighbors = 9559
Ave neighs/atom = 43.45
Ave special neighs/atom = 12.1455
Neighbor list builds = 0
Dangerous builds = 0
write_dump all custom pysimm.dump.tmp id q x y z vx vy vz
quit


################################################################################
##################################    Init    ##################################
################################################################################
units           real
atom_style      full
pair_style      lj/cut/coul/long 12.0  12.0
kspace_style    pppm 1e-4
bond_style      harmonic
angle_style     harmonic
dihedral_style  fourier
improper_style  cvff
special_bonds   amber
pair_modify     mix arithmetic
read_data       temp.lmps
  orthogonal box = (-98.5156 -98.5156 -98.5156) to (98.5156 98.5156 98.5156)
  1 by 1 by 1 MPI processor grid
  reading atoms ...
  275 atoms
  reading velocities ...
  275 velocities
  scanning bonds ...
  3 = max bonds/atom
  scanning angles ...
  6 = max angles/atom
  scanning dihedrals ...
  27 = max dihedrals/atom
  scanning impropers ...
  2 = max impropers/atom
  reading bonds ...
  308 bonds
  reading angles ...
  564 angles
  reading dihedrals ...
  925 dihedrals
  reading impropers ...
  40 impropers
  4 = max # of 1-2 neighbors
  11 = max # of 1-3 neighbors
  24 = max # of 1-4 neighbors
  24 = max # of special neighbors
  special bonds CPU = 0.000838995 secs
  read_data CPU = 0.00854111 secs
################################################################################

timestep        1
fix             pysimm_md all nve/limit 0.1
run             2000
PPPM initialization ...
WARNING: System is not charge neutral, net charge = -2e-05 (../kspace.cpp:313)
  using 12-bit tables for long-range coulomb (../kspace.cpp:332)
  G vector (1/distance) = 0.0999264
  grid = 18 18 18
  stencil order = 5
  estimated absolute RMS force accuracy = 0.0314659
  estimated relative force accuracy = 9.47586e-05
  using double precision KISS FFT
  3d grid and FFT values/proc = 12167 5832
Neighbor list info ...
  update every 1 steps, delay 10 steps, check yes
  max neighbors/atom: 2000, page size: 100000
  master list distance cutoff = 14
  ghost atom cutoff = 14
  binsize = 7, bins = 29 29 29
  1 neighbor lists, perpetual/occasional/extra = 1 0 0
  (1) pair lj/cut/coul/long, perpetual
      attributes: half, newton on
      pair build: half/bin/newton
      stencil: half/bin/3d/newton
      bin: standard
Per MPI rank memory allocation (min/avg/max) = 19.91 | 19.91 | 19.91 Mbytes
Step Temp E_pair E_mol TotEng Press 
       0    1237.3745     98.89652    730.91525    1840.4274  -0.22724633 
    2000    1585.9382    101.43326    1429.3117    2826.0472    -4.744952 
Loop time of 4.15827 on 1 procs for 2000 steps with 275 atoms

Performance: 41.556 ns/day, 0.578 hours/ns, 480.969 timesteps/s
100.1% CPU use with 1 MPI tasks x no OpenMP threads

MPI task timing breakdown:
Section |  min time  |  avg time  |  max time  |%varavg| %total
---------------------------------------------------------------
Pair    | 0.66965    | 0.66965    | 0.66965    |   0.0 | 16.10
Bond    | 0.26132    | 0.26132    | 0.26132    |   0.0 |  6.28
Kspace  | 3.1516     | 3.1516     | 3.1516     |   0.0 | 75.79
Neigh   | 0.059092   | 0.059092   | 0.059092   |   0.0 |  1.42
Comm    | 0.0039558  | 0.0039558  | 0.0039558  |   0.0 |  0.10
Output  | 1.3113e-05 | 1.3113e-05 | 1.3113e-05 |   0.0 |  0.00
Modify  | 0.0087829  | 0.0087829  | 0.0087829  |   0.0 |  0.21
Other   |            | 0.003818   |            |       |  0.09

Nlocal:    275 ave 275 max 275 min
Histogram: 1 0 0 0 0 0 0 0 0 0
Nghost:    217 ave 217 max 217 min
Histogram: 1 0 0 0 0 0 0 0 0 0
Neighs:    12875 ave 12875 max 12875 min
Histogram: 1 0 0 0 0 0 0 0 0 0

Total # of neighbors = 12875
Ave neighs/atom = 46.8182
Ave special neighs/atom = 12.1818
Neighbor list builds = 102
Dangerous builds = 0
unfix pysimm_md
min_style cg
minimize 0.001 0.001 10000 100000
WARNING: Using 'neigh_modify every 1 delay 0 check yes' setting during minimization (../min.cpp:190)
PPPM initialization ...
  using 12-bit tables for long-range coulomb (../kspace.cpp:332)
  G vector (1/distance) = 0.0999264
  grid = 18 18 18
  stencil order = 5
  estimated absolute RMS force accuracy = 0.0314659
  estimated relative force accuracy = 9.47586e-05
  using double precision KISS FFT
  3d grid and FFT values/proc = 12167 5832
Per MPI rank memory allocation (min/avg/max) = 21.04 | 21.04 | 21.04 Mbytes
Step Temp E_pair E_mol TotEng Press 
    2000    1585.9382    101.43326    1429.3117    2826.0472    -4.744952 
    2015    1585.9382     83.26291    327.49507    1706.0602    8.5574627 
Loop time of 0.0511379 on 1 procs for 15 steps with 275 atoms

101.7% CPU use with 1 MPI tasks x no OpenMP threads

Minimization stats:
  Stopping criterion = energy tolerance
  Energy initial, next-to-last, final = 
         1530.74498575      410.759290771      410.757981199
  Force two-norm initial, final = 1760.75 355.518
  Force max component initial, final = 461.952 174.601
  Final line search alpha, max atom move = 0.000595035 0.103894
  Iterations, force evaluations = 15 31

MPI task timing breakdown:
Section |  min time  |  avg time  |  max time  |%varavg| %total
---------------------------------------------------------------
Pair    | 0.011824   | 0.011824   | 0.011824   |   0.0 | 23.12
Bond    | 0.0033042  | 0.0033042  | 0.0033042  |   0.0 |  6.46
Kspace  | 0.035767   | 0.035767   | 0.035767   |   0.0 | 69.94
Neigh   | 0          | 0          | 0          |   0.0 |  0.00
Comm    | 4.0293e-05 | 4.0293e-05 | 4.0293e-05 |   0.0 |  0.08
Output  | 0          | 0          | 0          |   0.0 |  0.00
Modify  | 0          | 0          | 0          |   0.0 |  0.00
Other   |            | 0.0002024  |            |       |  0.40

Nlocal:    275 ave 275 max 275 min
Histogram: 1 0 0 0 0 0 0 0 0 0
Nghost:    217 ave 217 max 217 min
Histogram: 1 0 0 0 0 0 0 0 0 0
Neighs:    12853 ave 12853 max 12853 min
Histogram: 1 0 0 0 0 0 0 0 0 0

Total # of neighbors = 12853
Ave neighs/atom = 46.7382
Ave special neighs/atom = 12.1818
Neighbor list builds = 0
Dangerous builds = 0
write_dump all custom pysimm.dump.tmp id q x y z vx vy vz
quit


################################################################################
##################################    Init    ##################################
################################################################################
units           real
atom_style      full
pair_style      lj/cut/coul/long 12.0  12.0
kspace_style    pppm 1e-4
bond_style      harmonic
angle_style     harmonic
dihedral_style  fourier
improper_style  cvff
special_bonds   amber
pair_modify     mix arithmetic
read_data       temp.lmps
  orthogonal box = (-98.5156 -98.5156 -98.5156) to (98.5156 98.5156 98.5156)
  1 by 1 by 1 MPI processor grid
  reading atoms ...
  330 atoms
  reading velocities ...
  330 velocities
  scanning bonds ...
  3 = max bonds/atom
  scanning angles ...
  6 = max angles/atom
  scanning dihedrals ...
  27 = max dihedrals/atom
  scanning impropers ...
  2 = max impropers/atom
  reading bonds ...
  370 bonds
  reading angles ...
  678 angles
  reading dihedrals ...
  1113 dihedrals
  reading impropers ...
  48 impropers
  4 = max # of 1-2 neighbors
  11 = max # of 1-3 neighbors
  24 = max # of 1-4 neighbors
  24 = max # of special neighbors
  special bonds CPU = 0.00090003 secs
  read_data CPU = 0.011256 secs
################################################################################

timestep        1
fix             pysimm_md all nve/limit 0.1
run             2000
PPPM initialization ...
WARNING: System is not charge neutral, net charge = -2.4e-05 (../kspace.cpp:313)
  using 12-bit tables for long-range coulomb (../kspace.cpp:332)
  G vector (1/distance) = 0.0999296
  grid = 18 18 18
  stencil order = 5
  estimated absolute RMS force accuracy = 0.0344725
  estimated relative force accuracy = 0.000103813
  using double precision KISS FFT
  3d grid and FFT values/proc = 12167 5832
Neighbor list info ...
  update every 1 steps, delay 10 steps, check yes
  max neighbors/atom: 2000, page size: 100000
  master list distance cutoff = 14
  ghost atom cutoff = 14
  binsize = 7, bins = 29 29 29
  1 neighbor lists, perpetual/occasional/extra = 1 0 0
  (1) pair lj/cut/coul/long, perpetual
      attributes: half, newton on
      pair build: half/bin/newton
      stencil: half/bin/3d/newton
      bin: standard
Per MPI rank memory allocation (min/avg/max) = 19.92 | 19.92 | 19.92 Mbytes
Step Temp E_pair E_mol TotEng Press 
       0    1320.9945    5334994.3    1554.4467    5337844.2     191331.6 
    2000    1567.1414    154.56388    1627.9757     3319.414  -0.34361745 
Loop time of 4.06888 on 1 procs for 2000 steps with 330 atoms

Performance: 42.469 ns/day, 0.565 hours/ns, 491.536 timesteps/s
100.0% CPU use with 1 MPI tasks x no OpenMP threads

MPI task timing breakdown:
Section |  min time  |  avg time  |  max time  |%varavg| %total
---------------------------------------------------------------
Pair    | 0.77785    | 0.77785    | 0.77785    |   0.0 | 19.12
Bond    | 0.29015    | 0.29015    | 0.29015    |   0.0 |  7.13
Kspace  | 2.8869     | 2.8869     | 2.8869     |   0.0 | 70.95
Neigh   | 0.096358   | 0.096358   | 0.096358   |   0.0 |  2.37
Comm    | 0.0045888  | 0.0045888  | 0.0045888  |   0.0 |  0.11
Output  | 1.3113e-05 | 1.3113e-05 | 1.3113e-05 |   0.0 |  0.00
Modify  | 0.0097468  | 0.0097468  | 0.0097468  |   0.0 |  0.24
Other   |            | 0.003228   |            |       |  0.08

Nlocal:    330 ave 330 max 330 min
Histogram: 1 0 0 0 0 0 0 0 0 0
Nghost:    209 ave 209 max 209 min
Histogram: 1 0 0 0 0 0 0 0 0 0
Neighs:    17609 ave 17609 max 17609 min
Histogram: 1 0 0 0 0 0 0 0 0 0

Total # of neighbors = 17609
Ave neighs/atom = 53.3606
Ave special neighs/atom = 12.2061
Neighbor list builds = 142
Dangerous builds = 0
unfix pysimm_md
min_style cg
minimize 0.001 0.001 10000 100000
WARNING: Using 'neigh_modify every 1 delay 0 check yes' setting during minimization (../min.cpp:190)
PPPM initialization ...
  using 12-bit tables for long-range coulomb (../kspace.cpp:332)
  G vector (1/distance) = 0.0999296
  grid = 18 18 18
  stencil order = 5
  estimated absolute RMS force accuracy = 0.0344725
  estimated relative force accuracy = 0.000103813
  using double precision KISS FFT
  3d grid and FFT values/proc = 12167 5832
Per MPI rank memory allocation (min/avg/max) = 21.04 | 21.04 | 21.04 Mbytes
Step Temp E_pair E_mol TotEng Press 
    2000    1567.1414    154.56388    1627.9757     3319.414  -0.34361745 
    2017    1567.1414    107.49125    498.89826     2143.264    7.1693484 
Loop time of 0.260179 on 1 procs for 17 steps with 330 atoms

99.9% CPU use with 1 MPI tasks x no OpenMP threads

Minimization stats:
  Stopping criterion = energy tolerance
  Energy initial, next-to-last, final = 
         1782.53954757        606.4585625      606.389509646
  Force two-norm initial, final = 1680.2 340.562
  Force max component initial, final = 309.112 150.836
  Final line search alpha, max atom move = 0.00020367 0.0307208
  Iterations, force evaluations = 17 50

MPI task timing breakdown:
Section |  min time  |  avg time  |  max time  |%varavg| %total
---------------------------------------------------------------
Pair    | 0.074583   | 0.074583   | 0.074583   |   0.0 | 28.67
Bond    | 0.018298   | 0.018298   | 0.018298   |   0.0 |  7.03
Kspace  | 0.16625    | 0.16625    | 0.16625    |   0.0 | 63.90
Neigh   | 0          | 0          | 0          |   0.0 |  0.00
Comm    | 0.00016189 | 0.00016189 | 0.00016189 |   0.0 |  0.06
Output  | 0          | 0          | 0          |   0.0 |  0.00
Modify  | 0          | 0          | 0          |   0.0 |  0.00
Other   |            | 0.0008855  |            |       |  0.34

Nlocal:    330 ave 330 max 330 min
Histogram: 1 0 0 0 0 0 0 0 0 0
Nghost:    209 ave 209 max 209 min
Histogram: 1 0 0 0 0 0 0 0 0 0
Neighs:    17607 ave 17607 max 17607 min
Histogram: 1 0 0 0 0 0 0 0 0 0

Total # of neighbors = 17607
Ave neighs/atom = 53.3545
Ave special neighs/atom = 12.2061
Neighbor list builds = 0
Dangerous builds = 0
write_dump all custom pysimm.dump.tmp id q x y z vx vy vz
quit


################################################################################
##################################    Init    ##################################
################################################################################
units           real
atom_style      full
pair_style      lj/cut/coul/long 12.0  12.0
kspace_style    pppm 1e-4
bond_style      harmonic
angle_style     harmonic
dihedral_style  fourier
improper_style  cvff
special_bonds   amber
pair_modify     mix arithmetic
read_data       temp.lmps
  orthogonal box = (-98.5156 -98.5156 -98.5156) to (98.5156 98.5156 98.5156)
  1 by 1 by 1 MPI processor grid
  reading atoms ...
  385 atoms
  reading velocities ...
  385 velocities
  scanning bonds ...
  3 = max bonds/atom
  scanning angles ...
  6 = max angles/atom
  scanning dihedrals ...
  27 = max dihedrals/atom
  scanning impropers ...
  2 = max impropers/atom
  reading bonds ...
  432 bonds
  reading angles ...
  792 angles
  reading dihedrals ...
  1301 dihedrals
  reading impropers ...
  56 impropers
  4 = max # of 1-2 neighbors
  11 = max # of 1-3 neighbors
  24 = max # of 1-4 neighbors
  24 = max # of special neighbors
  special bonds CPU = 0.00102806 secs
  read_data CPU = 0.0118659 secs
################################################################################

timestep        1
fix             pysimm_md all nve/limit 0.1
run             2000
PPPM initialization ...
WARNING: System is not charge neutral, net charge = -2.8e-05 (../kspace.cpp:313)
  using 12-bit tables for long-range coulomb (../kspace.cpp:332)
  G vector (1/distance) = 0.107588
  grid = 20 20 20
  stencil order = 5
  estimated absolute RMS force accuracy = 0.0296125
  estimated relative force accuracy = 8.9177e-05
  using double precision KISS FFT
  3d grid and FFT values/proc = 15625 8000
Neighbor list info ...
  update every 1 steps, delay 10 steps, check yes
  max neighbors/atom: 2000, page size: 100000
  master list distance cutoff = 14
  ghost atom cutoff = 14
  binsize = 7, bins = 29 29 29
  1 neighbor lists, perpetual/occasional/extra = 1 0 0
  (1) pair lj/cut/coul/long, perpetual
      attributes: half, newton on
      pair build: half/bin/newton
      stencil: half/bin/3d/newton
      bin: standard
Per MPI rank memory allocation (min/avg/max) = 20.24 | 20.24 | 20.24 Mbytes
Step Temp E_pair E_mol TotEng Press 
       0    1342.8375 1.5052396e+10      2262.94  1.50524e+10 5.3974143e+08 
    2000    1741.6395    204.75444    2088.0322    4286.3213  -0.63503912 
Loop time of 4.74374 on 1 procs for 2000 steps with 385 atoms

Performance: 36.427 ns/day, 0.659 hours/ns, 421.609 timesteps/s
100.1% CPU use with 1 MPI tasks x no OpenMP threads

MPI task timing breakdown:
Section |  min time  |  avg time  |  max time  |%varavg| %total
---------------------------------------------------------------
Pair    | 0.8819     | 0.8819     | 0.8819     |   0.0 | 18.59
Bond    | 0.3154     | 0.3154     | 0.3154     |   0.0 |  6.65
Kspace  | 3.4242     | 3.4242     | 3.4242     |   0.0 | 72.18
Neigh   | 0.10334    | 0.10334    | 0.10334    |   0.0 |  2.18
Comm    | 0.0049264  | 0.0049264  | 0.0049264  |   0.0 |  0.10
Output  | 1.4067e-05 | 1.4067e-05 | 1.4067e-05 |   0.0 |  0.00
Modify  | 0.010473   | 0.010473   | 0.010473   |   0.0 |  0.22
Other   |            | 0.003444   |            |       |  0.07

Nlocal:    385 ave 385 max 385 min
Histogram: 1 0 0 0 0 0 0 0 0 0
Nghost:    271 ave 271 max 271 min
Histogram: 1 0 0 0 0 0 0 0 0 0
Neighs:    20360 ave 20360 max 20360 min
Histogram: 1 0 0 0 0 0 0 0 0 0

Total # of neighbors = 20360
Ave neighs/atom = 52.8831
Ave special neighs/atom = 12.2234
Neighbor list builds = 140
Dangerous builds = 0
unfix pysimm_md
min_style cg
minimize 0.001 0.001 10000 100000
WARNING: Using 'neigh_modify every 1 delay 0 check yes' setting during minimization (../min.cpp:190)
PPPM initialization ...
  using 12-bit tables for long-range coulomb (../kspace.cpp:332)
  G vector (1/distance) = 0.107588
  grid = 20 20 20
  stencil order = 5
  estimated absolute RMS force accuracy = 0.0296125
  estimated relative force accuracy = 8.9177e-05
  using double precision KISS FFT
  3d grid and FFT values/proc = 15625 8000
Per MPI rank memory allocation (min/avg/max) = 21.38 | 21.38 | 21.38 Mbytes
Step Temp E_pair E_mol TotEng Press 
    2000    1741.6395    204.75444    2088.0322    4286.3213  -0.63503912 
    2027    1741.6395    118.51767    516.84888    2628.9012    11.381828 
Loop time of 0.199774 on 1 procs for 27 steps with 385 atoms

100.1% CPU use with 1 MPI tasks x no OpenMP threads

Minimization stats:
  Stopping criterion = energy tolerance
  Energy initial, next-to-last, final = 
         2292.78666798      635.903290131      635.366550279
  Force two-norm initial, final = 1955.67 117.844
  Force max component initial, final = 380.266 41.4324
  Final line search alpha, max atom move = 0.000221619 0.0091822
  Iterations, force evaluations = 27 92

MPI task timing breakdown:
Section |  min time  |  avg time  |  max time  |%varavg| %total
---------------------------------------------------------------
Pair    | 0.052428   | 0.052428   | 0.052428   |   0.0 | 26.24
Bond    | 0.013412   | 0.013412   | 0.013412   |   0.0 |  6.71
Kspace  | 0.13317    | 0.13317    | 0.13317    |   0.0 | 66.66
Neigh   | 0          | 0          | 0          |   0.0 |  0.00
Comm    | 0.00013876 | 0.00013876 | 0.00013876 |   0.0 |  0.07
Output  | 0          | 0          | 0          |   0.0 |  0.00
Modify  | 0          | 0          | 0          |   0.0 |  0.00
Other   |            | 0.0006216  |            |       |  0.31

Nlocal:    385 ave 385 max 385 min
Histogram: 1 0 0 0 0 0 0 0 0 0
Nghost:    271 ave 271 max 271 min
Histogram: 1 0 0 0 0 0 0 0 0 0
Neighs:    20360 ave 20360 max 20360 min
Histogram: 1 0 0 0 0 0 0 0 0 0

Total # of neighbors = 20360
Ave neighs/atom = 52.8831
Ave special neighs/atom = 12.2234
Neighbor list builds = 0
Dangerous builds = 0
write_dump all custom pysimm.dump.tmp id q x y z vx vy vz
quit


################################################################################
##################################    Init    ##################################
################################################################################
units           real
atom_style      full
pair_style      lj/cut/coul/long 12.0  12.0
kspace_style    pppm 1e-4
bond_style      harmonic
angle_style     harmonic
dihedral_style  fourier
improper_style  cvff
special_bonds   amber
pair_modify     mix arithmetic
read_data       temp.lmps
  orthogonal box = (-98.5156 -98.5156 -98.5156) to (98.5156 98.5156 98.5156)
  1 by 1 by 1 MPI processor grid
  reading atoms ...
  440 atoms
  reading velocities ...
  440 velocities
  scanning bonds ...
  3 = max bonds/atom
  scanning angles ...
  6 = max angles/atom
  scanning dihedrals ...
  27 = max dihedrals/atom
  scanning impropers ...
  2 = max impropers/atom
  reading bonds ...
  494 bonds
  reading angles ...
  906 angles
  reading dihedrals ...
  1489 dihedrals
  reading impropers ...
  64 impropers
  4 = max # of 1-2 neighbors
  11 = max # of 1-3 neighbors
  24 = max # of 1-4 neighbors
  24 = max # of special neighbors
  special bonds CPU = 0.000388861 secs
  read_data CPU = 0.0139749 secs
################################################################################

timestep        1
fix             pysimm_md all nve/limit 0.1
run             2000
PPPM initialization ...
WARNING: System is not charge neutral, net charge = -3.2e-05 (../kspace.cpp:313)
  using 12-bit tables for long-range coulomb (../kspace.cpp:332)
  G vector (1/distance) = 0.107591
  grid = 20 20 20
  stencil order = 5
  estimated absolute RMS force accuracy = 0.0316592
  estimated relative force accuracy = 9.53407e-05
  using double precision KISS FFT
  3d grid and FFT values/proc = 15625 8000
Neighbor list info ...
  update every 1 steps, delay 10 steps, check yes
  max neighbors/atom: 2000, page size: 100000
  master list distance cutoff = 14
  ghost atom cutoff = 14
  binsize = 7, bins = 29 29 29
  1 neighbor lists, perpetual/occasional/extra = 1 0 0
  (1) pair lj/cut/coul/long, perpetual
      attributes: half, newton on
      pair build: half/bin/newton
      stencil: half/bin/3d/newton
      bin: standard
Per MPI rank memory allocation (min/avg/max) = 20.27 | 20.27 | 20.27 Mbytes
Step Temp E_pair E_mol TotEng Press 
       0    1523.5751    152.23105    1003.3389    3149.2831    5.6500565 
    2000    1512.7787    223.75906    2033.3073    4236.6517    4.6157151 
Loop time of 4.12654 on 1 procs for 2000 steps with 440 atoms

Performance: 41.875 ns/day, 0.573 hours/ns, 484.668 timesteps/s
100.0% CPU use with 1 MPI tasks x no OpenMP threads

MPI task timing breakdown:
Section |  min time  |  avg time  |  max time  |%varavg| %total
---------------------------------------------------------------
Pair    | 0.80954    | 0.80954    | 0.80954    |   0.0 | 19.62
Bond    | 0.29781    | 0.29781    | 0.29781    |   0.0 |  7.22
Kspace  | 2.9141     | 2.9141     | 2.9141     |   0.0 | 70.62
Neigh   | 0.086701   | 0.086701   | 0.086701   |   0.0 |  2.10
Comm    | 0.0048234  | 0.0048234  | 0.0048234  |   0.0 |  0.12
Output  | 1.1921e-05 | 1.1921e-05 | 1.1921e-05 |   0.0 |  0.00
Modify  | 0.010091   | 0.010091   | 0.010091   |   0.0 |  0.24
Other   |            | 0.003481   |            |       |  0.08

Nlocal:    440 ave 440 max 440 min
Histogram: 1 0 0 0 0 0 0 0 0 0
Nghost:    319 ave 319 max 319 min
Histogram: 1 0 0 0 0 0 0 0 0 0
Neighs:    22880 ave 22880 max 22880 min
Histogram: 1 0 0 0 0 0 0 0 0 0

Total # of neighbors = 22880
Ave neighs/atom = 52
Ave special neighs/atom = 12.2364
Neighbor list builds = 126
Dangerous builds = 0
unfix pysimm_md
min_style cg
minimize 0.001 0.001 10000 100000
WARNING: Using 'neigh_modify every 1 delay 0 check yes' setting during minimization (../min.cpp:190)
PPPM initialization ...
  using 12-bit tables for long-range coulomb (../kspace.cpp:332)
  G vector (1/distance) = 0.107591
  grid = 20 20 20
  stencil order = 5
  estimated absolute RMS force accuracy = 0.0316592
  estimated relative force accuracy = 9.53407e-05
  using double precision KISS FFT
  3d grid and FFT values/proc = 15625 8000
Per MPI rank memory allocation (min/avg/max) = 21.4 | 21.4 | 21.4 Mbytes
Step Temp E_pair E_mol TotEng Press 
    2000    1512.7787    223.75906    2033.3073    4236.6517    4.6157151 
    2011    1512.7787    142.67277    614.27061    2736.5287    13.100385 
Loop time of 0.0610099 on 1 procs for 11 steps with 440 atoms

100.0% CPU use with 1 MPI tasks x no OpenMP threads

Minimization stats:
  Stopping criterion = energy tolerance
  Energy initial, next-to-last, final = 
         2257.06637445      757.455239885      756.943387377
  Force two-norm initial, final = 1857.83 597.281
  Force max component initial, final = 230.124 205.622
  Final line search alpha, max atom move = 0.000110957 0.0228153
  Iterations, force evaluations = 11 26

MPI task timing breakdown:
Section |  min time  |  avg time  |  max time  |%varavg| %total
---------------------------------------------------------------
Pair    | 0.017727   | 0.017727   | 0.017727   |   0.0 | 29.06
Bond    | 0.0044389  | 0.0044389  | 0.0044389  |   0.0 |  7.28
Kspace  | 0.038563   | 0.038563   | 0.038563   |   0.0 | 63.21
Neigh   | 0          | 0          | 0          |   0.0 |  0.00
Comm    | 4.3392e-05 | 4.3392e-05 | 4.3392e-05 |   0.0 |  0.07
Output  | 0          | 0          | 0          |   0.0 |  0.00
Modify  | 0          | 0          | 0          |   0.0 |  0.00
Other   |            | 0.0002372  |            |       |  0.39

Nlocal:    440 ave 440 max 440 min
Histogram: 1 0 0 0 0 0 0 0 0 0
Nghost:    319 ave 319 max 319 min
Histogram: 1 0 0 0 0 0 0 0 0 0
Neighs:    22880 ave 22880 max 22880 min
Histogram: 1 0 0 0 0 0 0 0 0 0

Total # of neighbors = 22880
Ave neighs/atom = 52
Ave special neighs/atom = 12.2364
Neighbor list builds = 0
Dangerous builds = 0
write_dump all custom pysimm.dump.tmp id q x y z vx vy vz
quit


################################################################################
##################################    Init    ##################################
################################################################################
units           real
atom_style      full
pair_style      lj/cut/coul/long 12.0  12.0
kspace_style    pppm 1e-4
bond_style      harmonic
angle_style     harmonic
dihedral_style  fourier
improper_style  cvff
special_bonds   amber
pair_modify     mix arithmetic
read_data       temp.lmps
  orthogonal box = (-98.5156 -98.5156 -98.5156) to (98.5156 98.5156 98.5156)
  1 by 1 by 1 MPI processor grid
  reading atoms ...
  495 atoms
  reading velocities ...
  495 velocities
  scanning bonds ...
  3 = max bonds/atom
  scanning angles ...
  6 = max angles/atom
  scanning dihedrals ...
  27 = max dihedrals/atom
  scanning impropers ...
  2 = max impropers/atom
  reading bonds ...
  556 bonds
  reading angles ...
  1020 angles
  reading dihedrals ...
  1677 dihedrals
  reading impropers ...
  72 impropers
  4 = max # of 1-2 neighbors
  11 = max # of 1-3 neighbors
  24 = max # of 1-4 neighbors
  24 = max # of special neighbors
  special bonds CPU = 0.000514984 secs
  read_data CPU = 0.0154071 secs
################################################################################

timestep        1
fix             pysimm_md all nve/limit 0.1
run             2000
PPPM initialization ...
WARNING: System is not charge neutral, net charge = -3.6e-05 (../kspace.cpp:313)
  using 12-bit tables for long-range coulomb (../kspace.cpp:332)
  G vector (1/distance) = 0.107589
  grid = 20 20 20
  stencil order = 5
  estimated absolute RMS force accuracy = 0.0335781
  estimated relative force accuracy = 0.000101119
  using double precision KISS FFT
  3d grid and FFT values/proc = 15625 8000
Neighbor list info ...
  update every 1 steps, delay 10 steps, check yes
  max neighbors/atom: 2000, page size: 100000
  master list distance cutoff = 14
  ghost atom cutoff = 14
  binsize = 7, bins = 29 29 29
  1 neighbor lists, perpetual/occasional/extra = 1 0 0
  (1) pair lj/cut/coul/long, perpetual
      attributes: half, newton on
      pair build: half/bin/newton
      stencil: half/bin/3d/newton
      bin: standard
Per MPI rank memory allocation (min/avg/max) = 20.28 | 20.28 | 20.28 Mbytes
Step Temp E_pair E_mol TotEng Press 
       0    1344.4735    160.03232    1164.8752    3304.6718      6.71323 
    2000    1642.5538    235.61694    2503.1087    5157.4192   0.24433607 
Loop time of 4.61913 on 1 procs for 2000 steps with 495 atoms

Performance: 37.410 ns/day, 0.642 hours/ns, 432.982 timesteps/s
100.0% CPU use with 1 MPI tasks x no OpenMP threads

MPI task timing breakdown:
Section |  min time  |  avg time  |  max time  |%varavg| %total
---------------------------------------------------------------
Pair    | 0.99617    | 0.99617    | 0.99617    |   0.0 | 21.57
Bond    | 0.36355    | 0.36355    | 0.36355    |   0.0 |  7.87
Kspace  | 3.1363     | 3.1363     | 3.1363     |   0.0 | 67.90
Neigh   | 0.10235    | 0.10235    | 0.10235    |   0.0 |  2.22
Comm    | 0.0051165  | 0.0051165  | 0.0051165  |   0.0 |  0.11
Output  | 1.3113e-05 | 1.3113e-05 | 1.3113e-05 |   0.0 |  0.00
Modify  | 0.011722   | 0.011722   | 0.011722   |   0.0 |  0.25
Other   |            | 0.003903   |            |       |  0.08

Nlocal:    495 ave 495 max 495 min
Histogram: 1 0 0 0 0 0 0 0 0 0
Nghost:    337 ave 337 max 337 min
Histogram: 1 0 0 0 0 0 0 0 0 0
Neighs:    26252 ave 26252 max 26252 min
Histogram: 1 0 0 0 0 0 0 0 0 0

Total # of neighbors = 26252
Ave neighs/atom = 53.0343
Ave special neighs/atom = 12.2465
Neighbor list builds = 124
Dangerous builds = 0
unfix pysimm_md
min_style cg
minimize 0.001 0.001 10000 100000
WARNING: Using 'neigh_modify every 1 delay 0 check yes' setting during minimization (../min.cpp:190)
PPPM initialization ...
  using 12-bit tables for long-range coulomb (../kspace.cpp:332)
  G vector (1/distance) = 0.107589
  grid = 20 20 20
  stencil order = 5
  estimated absolute RMS force accuracy = 0.0335781
  estimated relative force accuracy = 0.000101119
  using double precision KISS FFT
  3d grid and FFT values/proc = 15625 8000
Per MPI rank memory allocation (min/avg/max) = 21.41 | 21.41 | 21.41 Mbytes
Step Temp E_pair E_mol TotEng Press 
    2000    1642.5538    235.61694    2503.1087    5157.4192   0.24433607 
    2026    1642.5538    165.25974    600.12726    3184.0806    17.643549 
Loop time of 0.222688 on 1 procs for 26 steps with 495 atoms

100.1% CPU use with 1 MPI tasks x no OpenMP threads

Minimization stats:
  Stopping criterion = energy tolerance
  Energy initial, next-to-last, final = 
         2738.72564016      765.848680393       765.38699254
  Force two-norm initial, final = 2115.5 130.121
  Force max component initial, final = 275.315 57.2344
  Final line search alpha, max atom move = 0.000170618 0.00976523
  Iterations, force evaluations = 26 93

MPI task timing breakdown:
Section |  min time  |  avg time  |  max time  |%varavg| %total
---------------------------------------------------------------
Pair    | 0.068704   | 0.068704   | 0.068704   |   0.0 | 30.85
Bond    | 0.017473   | 0.017473   | 0.017473   |   0.0 |  7.85
Kspace  | 0.13558    | 0.13558    | 0.13558    |   0.0 | 60.88
Neigh   | 0          | 0          | 0          |   0.0 |  0.00
Comm    | 0.00016284 | 0.00016284 | 0.00016284 |   0.0 |  0.07
Output  | 0          | 0          | 0          |   0.0 |  0.00
Modify  | 0          | 0          | 0          |   0.0 |  0.00
Other   |            | 0.0007706  |            |       |  0.35

Nlocal:    495 ave 495 max 495 min
Histogram: 1 0 0 0 0 0 0 0 0 0
Nghost:    338 ave 338 max 338 min
Histogram: 1 0 0 0 0 0 0 0 0 0
Neighs:    26287 ave 26287 max 26287 min
Histogram: 1 0 0 0 0 0 0 0 0 0

Total # of neighbors = 26287
Ave neighs/atom = 53.1051
Ave special neighs/atom = 12.2465
Neighbor list builds = 0
Dangerous builds = 0
write_dump all custom pysimm.dump.tmp id q x y z vx vy vz
quit


################################################################################
##################################    Init    ##################################
################################################################################
units           real
atom_style      full
pair_style      lj/cut/coul/long 12.0  12.0
kspace_style    pppm 1e-4
bond_style      harmonic
angle_style     harmonic
dihedral_style  fourier
improper_style  cvff
special_bonds   amber
pair_modify     mix arithmetic
read_data       temp.lmps
  orthogonal box = (-98.5156 -98.5156 -98.5156) to (98.5156 98.5156 98.5156)
  1 by 1 by 1 MPI processor grid
  reading atoms ...
  550 atoms
  reading velocities ...
  550 velocities
  scanning bonds ...
  3 = max bonds/atom
  scanning angles ...
  6 = max angles/atom
  scanning dihedrals ...
  27 = max dihedrals/atom
  scanning impropers ...
  2 = max impropers/atom
  reading bonds ...
  618 bonds
  reading angles ...
  1134 angles
  reading dihedrals ...
  1865 dihedrals
  reading impropers ...
  80 impropers
  4 = max # of 1-2 neighbors
  11 = max # of 1-3 neighbors
  24 = max # of 1-4 neighbors
  24 = max # of special neighbors
  special bonds CPU = 0.00116897 secs
  read_data CPU = 0.01509 secs
################################################################################

timestep        1
fix             pysimm_md all nve/limit 0.1
run             2000
PPPM initialization ...
WARNING: System is not charge neutral, net charge = -4e-05 (../kspace.cpp:313)
  using 12-bit tables for long-range coulomb (../kspace.cpp:332)
  G vector (1/distance) = 0.107588
  grid = 20 20 20
  stencil order = 5
  estimated absolute RMS force accuracy = 0.0353939
  estimated relative force accuracy = 0.000106588
  using double precision KISS FFT
  3d grid and FFT values/proc = 15625 8000
Neighbor list info ...
  update every 1 steps, delay 10 steps, check yes
  max neighbors/atom: 2000, page size: 100000
  master list distance cutoff = 14
  ghost atom cutoff = 14
  binsize = 7, bins = 29 29 29
  1 neighbor lists, perpetual/occasional/extra = 1 0 0
  (1) pair lj/cut/coul/long, perpetual
      attributes: half, newton on
      pair build: half/bin/newton
      stencil: half/bin/3d/newton
      bin: standard
Per MPI rank memory allocation (min/avg/max) = 20.29 | 20.29 | 20.29 Mbytes
Step Temp E_pair E_mol TotEng Press 
       0    1478.1086    4106.3557    1390.2709    7915.4991    153.06113 
    2000    1537.5569      273.935    2804.6687    5594.7614  -0.30290959 
Loop time of 5.49488 on 1 procs for 2000 steps with 550 atoms

Performance: 31.447 ns/day, 0.763 hours/ns, 363.975 timesteps/s
100.1% CPU use with 1 MPI tasks x no OpenMP threads

MPI task timing breakdown:
Section |  min time  |  avg time  |  max time  |%varavg| %total
---------------------------------------------------------------
Pair    | 1.256      | 1.256      | 1.256      |   0.0 | 22.86
Bond    | 0.4525     | 0.4525     | 0.4525     |   0.0 |  8.23
Kspace  | 3.6178     | 3.6178     | 3.6178     |   0.0 | 65.84
Neigh   | 0.14363    | 0.14363    | 0.14363    |   0.0 |  2.61
Comm    | 0.0061722  | 0.0061722  | 0.0061722  |   0.0 |  0.11
Output  | 1.2875e-05 | 1.2875e-05 | 1.2875e-05 |   0.0 |  0.00
Modify  | 0.014635   | 0.014635   | 0.014635   |   0.0 |  0.27
Other   |            | 0.004157   |            |       |  0.08

Nlocal:    550 ave 550 max 550 min
Histogram: 1 0 0 0 0 0 0 0 0 0
Nghost:    338 ave 338 max 338 min
Histogram: 1 0 0 0 0 0 0 0 0 0
Neighs:    27793 ave 27793 max 27793 min
Histogram: 1 0 0 0 0 0 0 0 0 0

Total # of neighbors = 27793
Ave neighs/atom = 50.5327
Ave special neighs/atom = 12.2545
Neighbor list builds = 136
Dangerous builds = 0
unfix pysimm_md
min_style cg
minimize 0.001 0.001 10000 100000
WARNING: Using 'neigh_modify every 1 delay 0 check yes' setting during minimization (../min.cpp:190)
PPPM initialization ...
  using 12-bit tables for long-range coulomb (../kspace.cpp:332)
  G vector (1/distance) = 0.107588
  grid = 20 20 20
  stencil order = 5
  estimated absolute RMS force accuracy = 0.0353939
  estimated relative force accuracy = 0.000106588
  using double precision KISS FFT
  3d grid and FFT values/proc = 15625 8000
Per MPI rank memory allocation (min/avg/max) = 21.42 | 21.42 | 21.42 Mbytes
Step Temp E_pair E_mol TotEng Press 
    2000    1537.5569      273.935    2804.6687    5594.7614  -0.30290959 
    2023    1537.5569    177.06032    666.20626    3359.4242    17.640132 
Loop time of 0.122838 on 1 procs for 23 steps with 550 atoms

100.1% CPU use with 1 MPI tasks x no OpenMP threads

Minimization stats:
  Stopping criterion = energy tolerance
  Energy initial, next-to-last, final = 
         3078.60371442      843.632862224      843.266585711
  Force two-norm initial, final = 2402.55 438.979
  Force max component initial, final = 342.327 110.829
  Final line search alpha, max atom move = 0.000544199 0.0603132
  Iterations, force evaluations = 23 48

MPI task timing breakdown:
Section |  min time  |  avg time  |  max time  |%varavg| %total
---------------------------------------------------------------
Pair    | 0.038805   | 0.038805   | 0.038805   |   0.0 | 31.59
Bond    | 0.010095   | 0.010095   | 0.010095   |   0.0 |  8.22
Kspace  | 0.073327   | 0.073327   | 0.073327   |   0.0 | 59.69
Neigh   | 0          | 0          | 0          |   0.0 |  0.00
Comm    | 8.5592e-05 | 8.5592e-05 | 8.5592e-05 |   0.0 |  0.07
Output  | 0          | 0          | 0          |   0.0 |  0.00
Modify  | 0          | 0          | 0          |   0.0 |  0.00
Other   |            | 0.0005245  |            |       |  0.43

Nlocal:    550 ave 550 max 550 min
Histogram: 1 0 0 0 0 0 0 0 0 0
Nghost:    340 ave 340 max 340 min
Histogram: 1 0 0 0 0 0 0 0 0 0
Neighs:    27805 ave 27805 max 27805 min
Histogram: 1 0 0 0 0 0 0 0 0 0

Total # of neighbors = 27805
Ave neighs/atom = 50.5545
Ave special neighs/atom = 12.2545
Neighbor list builds = 0
Dangerous builds = 0
write_dump all custom pysimm.dump.tmp id q x y z vx vy vz
quit


################################################################################
##################################    Init    ##################################
################################################################################
units           real
atom_style      full
pair_style      lj/cut/coul/long 12.0  12.0
kspace_style    pppm 1e-4
bond_style      harmonic
angle_style     harmonic
dihedral_style  fourier
improper_style  cvff
special_bonds   amber
pair_modify     mix arithmetic
read_data       temp.lmps
  orthogonal box = (-124.122 -124.122 -124.122) to (124.122 124.122 124.122)
  1 by 1 by 1 MPI processor grid
  reading atoms ...
  605 atoms
  reading velocities ...
  605 velocities
  scanning bonds ...
  3 = max bonds/atom
  scanning angles ...
  6 = max angles/atom
  scanning dihedrals ...
  27 = max dihedrals/atom
  scanning impropers ...
  2 = max impropers/atom
  reading bonds ...
  679 bonds
  reading angles ...
  1245 angles
  reading dihedrals ...
  2045 dihedrals
  reading impropers ...
  88 impropers
  4 = max # of 1-2 neighbors
  11 = max # of 1-3 neighbors
  24 = max # of 1-4 neighbors
  24 = max # of special neighbors
  special bonds CPU = 0.000693083 secs
  read_data CPU = 0.0117249 secs
################################################################################

timestep        1
fix             pysimm_md all nve/limit 0.1
run             2000
PPPM initialization ...
WARNING: System is not charge neutral, net charge = -4.4e-05 (../kspace.cpp:313)
  using 12-bit tables for long-range coulomb (../kspace.cpp:332)
  G vector (1/distance) = 0.104012
  grid = 24 24 24
  stencil order = 5
  estimated absolute RMS force accuracy = 0.0292705
  estimated relative force accuracy = 8.81474e-05
  using double precision KISS FFT
  3d grid and FFT values/proc = 24389 13824
Neighbor list info ...
  update every 1 steps, delay 10 steps, check yes
  max neighbors/atom: 2000, page size: 100000
  master list distance cutoff = 14
  ghost atom cutoff = 14
  binsize = 7, bins = 36 36 36
  1 neighbor lists, perpetual/occasional/extra = 1 0 0
  (1) pair lj/cut/coul/long, perpetual
      attributes: half, newton on
      pair build: half/bin/newton
      stencil: half/bin/3d/newton
      bin: standard
Per MPI rank memory allocation (min/avg/max) = 21.21 | 21.21 | 21.21 Mbytes
Step Temp E_pair E_mol TotEng Press 
       0     1397.647     186.6875    140884.92    143587.94   -439.14226 
    2000    1809.9226    287.40755    3357.0674    6903.0764   0.49266393 
Loop time of 7.59792 on 1 procs for 2000 steps with 605 atoms

Performance: 22.743 ns/day, 1.055 hours/ns, 263.230 timesteps/s
100.1% CPU use with 1 MPI tasks x no OpenMP threads

MPI task timing breakdown:
Section |  min time  |  avg time  |  max time  |%varavg| %total
---------------------------------------------------------------
Pair    | 1.402      | 1.402      | 1.402      |   0.0 | 18.45
Bond    | 0.43428    | 0.43428    | 0.43428    |   0.0 |  5.72
Kspace  | 5.5682     | 5.5682     | 5.5682     |   0.0 | 73.29
Neigh   | 0.17333    | 0.17333    | 0.17333    |   0.0 |  2.28
Comm    | 0.0025952  | 0.0025952  | 0.0025952  |   0.0 |  0.03
Output  | 1.502e-05  | 1.502e-05  | 1.502e-05  |   0.0 |  0.00
Modify  | 0.014349   | 0.014349   | 0.014349   |   0.0 |  0.19
Other   |            | 0.003149   |            |       |  0.04

Nlocal:    605 ave 605 max 605 min
Histogram: 1 0 0 0 0 0 0 0 0 0
Nghost:    0 ave 0 max 0 min
Histogram: 1 0 0 0 0 0 0 0 0 0
Neighs:    38449 ave 38449 max 38449 min
Histogram: 1 0 0 0 0 0 0 0 0 0

Total # of neighbors = 38449
Ave neighs/atom = 63.5521
Ave special neighs/atom = 12.2314
Neighbor list builds = 167
Dangerous builds = 0
unfix pysimm_md
min_style cg
minimize 0.001 0.001 10000 100000
WARNING: Using 'neigh_modify every 1 delay 0 check yes' setting during minimization (../min.cpp:190)
PPPM initialization ...
  using 12-bit tables for long-range coulomb (../kspace.cpp:332)
  G vector (1/distance) = 0.104012
  grid = 24 24 24
  stencil order = 5
  estimated absolute RMS force accuracy = 0.0292705
  estimated relative force accuracy = 8.81474e-05
  using double precision KISS FFT
  3d grid and FFT values/proc = 24389 13824
Per MPI rank memory allocation (min/avg/max) = 22.34 | 22.34 | 22.34 Mbytes
Step Temp E_pair E_mol TotEng Press 
    2000    1809.9226    287.40755    3357.0674    6903.0764   0.49266393 
    2028    1809.9226    170.72614    865.39444     4294.722     8.877471 
Loop time of 0.28092 on 1 procs for 28 steps with 605 atoms

100.0% CPU use with 1 MPI tasks x no OpenMP threads

Minimization stats:
  Stopping criterion = energy tolerance
  Energy initial, next-to-last, final = 
         3644.47497724      1036.34819217      1036.12058475
  Force two-norm initial, final = 2451.13 407.834
  Force max component initial, final = 440.594 94.8455
  Final line search alpha, max atom move = 8.58544e-05 0.0081429
  Iterations, force evaluations = 28 68

MPI task timing breakdown:
Section |  min time  |  avg time  |  max time  |%varavg| %total
---------------------------------------------------------------
Pair    | 0.074926   | 0.074926   | 0.074926   |   0.0 | 26.67
Bond    | 0.015557   | 0.015557   | 0.015557   |   0.0 |  5.54
Kspace  | 0.18966    | 0.18966    | 0.18966    |   0.0 | 67.51
Neigh   | 0          | 0          | 0          |   0.0 |  0.00
Comm    | 2.265e-05  | 2.265e-05  | 2.265e-05  |   0.0 |  0.01
Output  | 0          | 0          | 0          |   0.0 |  0.00
Modify  | 0          | 0          | 0          |   0.0 |  0.00
Other   |            | 0.0007563  |            |       |  0.27

Nlocal:    605 ave 605 max 605 min
Histogram: 1 0 0 0 0 0 0 0 0 0
Nghost:    0 ave 0 max 0 min
Histogram: 1 0 0 0 0 0 0 0 0 0
Neighs:    38449 ave 38449 max 38449 min
Histogram: 1 0 0 0 0 0 0 0 0 0

Total # of neighbors = 38449
Ave neighs/atom = 63.5521
Ave special neighs/atom = 12.2314
Neighbor list builds = 0
Dangerous builds = 0
write_dump all custom pysimm.dump.tmp id q x y z vx vy vz
quit


################################################################################
##################################    Init    ##################################
################################################################################
units           real
atom_style      full
pair_style      lj/cut/coul/long 12.0  12.0
kspace_style    pppm 1e-4
bond_style      harmonic
angle_style     harmonic
dihedral_style  fourier
improper_style  cvff
special_bonds   amber
pair_modify     mix arithmetic
read_data       temp.lmps
  orthogonal box = (-128.129 -128.129 -128.129) to (128.129 128.129 128.129)
  1 by 1 by 1 MPI processor grid
  reading atoms ...
  660 atoms
  reading velocities ...
  660 velocities
  scanning bonds ...
  3 = max bonds/atom
  scanning angles ...
  6 = max angles/atom
  scanning dihedrals ...
  27 = max dihedrals/atom
  scanning impropers ...
  2 = max impropers/atom
  reading bonds ...
  740 bonds
  reading angles ...
  1356 angles
  reading dihedrals ...
  2225 dihedrals
  reading impropers ...
  96 impropers
  4 = max # of 1-2 neighbors
  11 = max # of 1-3 neighbors
  24 = max # of 1-4 neighbors
  24 = max # of special neighbors
  special bonds CPU = 0.000711918 secs
  read_data CPU = 0.0120051 secs
################################################################################

timestep        1
fix             pysimm_md all nve/limit 0.1
run             2000
PPPM initialization ...
WARNING: System is not charge neutral, net charge = -4.8e-05 (../kspace.cpp:313)
  using 12-bit tables for long-range coulomb (../kspace.cpp:332)
  G vector (1/distance) = 0.10171
  grid = 24 24 24
  stencil order = 5
  estimated absolute RMS force accuracy = 0.0312061
  estimated relative force accuracy = 9.39763e-05
  using double precision KISS FFT
  3d grid and FFT values/proc = 24389 13824
Neighbor list info ...
  update every 1 steps, delay 10 steps, check yes
  max neighbors/atom: 2000, page size: 100000
  master list distance cutoff = 14
  ghost atom cutoff = 14
  binsize = 7, bins = 37 37 37
  1 neighbor lists, perpetual/occasional/extra = 1 0 0
  (1) pair lj/cut/coul/long, perpetual
      attributes: half, newton on
      pair build: half/bin/newton
      stencil: half/bin/3d/newton
      bin: standard
Per MPI rank memory allocation (min/avg/max) = 21.24 | 21.24 | 21.24 Mbytes
Step Temp E_pair E_mol TotEng Press 
       0    1658.9578    179.96346    235669.32    239108.06   -664.05172 
    2000    1925.4193    365.22282    3801.2294     7948.657   -2.4740484 
Loop time of 8.03729 on 1 procs for 2000 steps with 660 atoms

Performance: 21.500 ns/day, 1.116 hours/ns, 248.840 timesteps/s
100.1% CPU use with 1 MPI tasks x no OpenMP threads

MPI task timing breakdown:
Section |  min time  |  avg time  |  max time  |%varavg| %total
---------------------------------------------------------------
Pair    | 1.6309     | 1.6309     | 1.6309     |   0.0 | 20.29
Bond    | 0.47064    | 0.47064    | 0.47064    |   0.0 |  5.86
Kspace  | 5.7095     | 5.7095     | 5.7095     |   0.0 | 71.04
Neigh   | 0.20517    | 0.20517    | 0.20517    |   0.0 |  2.55
Comm    | 0.0020871  | 0.0020871  | 0.0020871  |   0.0 |  0.03
Output  | 1.502e-05  | 1.502e-05  | 1.502e-05  |   0.0 |  0.00
Modify  | 0.015716   | 0.015716   | 0.015716   |   0.0 |  0.20
Other   |            | 0.003178   |            |       |  0.04

Nlocal:    660 ave 660 max 660 min
Histogram: 1 0 0 0 0 0 0 0 0 0
Nghost:    0 ave 0 max 0 min
Histogram: 1 0 0 0 0 0 0 0 0 0
Neighs:    44639 ave 44639 max 44639 min
Histogram: 1 0 0 0 0 0 0 0 0 0

Total # of neighbors = 44639
Ave neighs/atom = 67.6348
Ave special neighs/atom = 12.2121
Neighbor list builds = 168
Dangerous builds = 0
unfix pysimm_md
min_style cg
minimize 0.001 0.001 10000 100000
WARNING: Using 'neigh_modify every 1 delay 0 check yes' setting during minimization (../min.cpp:190)
PPPM initialization ...
  using 12-bit tables for long-range coulomb (../kspace.cpp:332)
  G vector (1/distance) = 0.10171
  grid = 24 24 24
  stencil order = 5
  estimated absolute RMS force accuracy = 0.0312061
  estimated relative force accuracy = 9.39763e-05
  using double precision KISS FFT
  3d grid and FFT values/proc = 24389 13824
Per MPI rank memory allocation (min/avg/max) = 22.36 | 22.36 | 22.36 Mbytes
Step Temp E_pair E_mol TotEng Press 
    2000    1925.4193    365.22282    3801.2294     7948.657   -2.4740484 
    2016    1925.4193    216.01196    1099.2501     5097.467    9.5959776 
Loop time of 0.135104 on 1 procs for 16 steps with 660 atoms

99.9% CPU use with 1 MPI tasks x no OpenMP threads

Minimization stats:
  Stopping criterion = energy tolerance
  Energy initial, next-to-last, final = 
         4166.45218532      1315.72154596      1315.26210355
  Force two-norm initial, final = 2512.68 467.712
  Force max component initial, final = 371.867 178.985
  Final line search alpha, max atom move = 0.000130568 0.0233696
  Iterations, force evaluations = 16 31

MPI task timing breakdown:
Section |  min time  |  avg time  |  max time  |%varavg| %total
---------------------------------------------------------------
Pair    | 0.039195   | 0.039195   | 0.039195   |   0.0 | 29.01
Bond    | 0.0078228  | 0.0078228  | 0.0078228  |   0.0 |  5.79
Kspace  | 0.087661   | 0.087661   | 0.087661   |   0.0 | 64.88
Neigh   | 0          | 0          | 0          |   0.0 |  0.00
Comm    | 7.391e-06  | 7.391e-06  | 7.391e-06  |   0.0 |  0.01
Output  | 0          | 0          | 0          |   0.0 |  0.00
Modify  | 0          | 0          | 0          |   0.0 |  0.00
Other   |            | 0.0004184  |            |       |  0.31

Nlocal:    660 ave 660 max 660 min
Histogram: 1 0 0 0 0 0 0 0 0 0
Nghost:    0 ave 0 max 0 min
Histogram: 1 0 0 0 0 0 0 0 0 0
Neighs:    44616 ave 44616 max 44616 min
Histogram: 1 0 0 0 0 0 0 0 0 0

Total # of neighbors = 44616
Ave neighs/atom = 67.6
Ave special neighs/atom = 12.2121
Neighbor list builds = 0
Dangerous builds = 0
write_dump all custom pysimm.dump.tmp id q x y z vx vy vz
quit


################################################################################
##################################    Init    ##################################
################################################################################
units           real
atom_style      full
pair_style      lj/cut/coul/long 12.0  12.0
kspace_style    pppm 1e-4
bond_style      harmonic
angle_style     harmonic
dihedral_style  fourier
improper_style  cvff
special_bonds   amber
pair_modify     mix arithmetic
read_data       temp.lmps
  orthogonal box = (-131.899 -131.899 -131.899) to (131.899 131.899 131.899)
  1 by 1 by 1 MPI processor grid
  reading atoms ...
  715 atoms
  reading velocities ...
  715 velocities
  scanning bonds ...
  3 = max bonds/atom
  scanning angles ...
  6 = max angles/atom
  scanning dihedrals ...
  27 = max dihedrals/atom
  scanning impropers ...
  2 = max impropers/atom
  reading bonds ...
  801 bonds
  reading angles ...
  1467 angles
  reading dihedrals ...
  2405 dihedrals
  reading impropers ...
  104 impropers
  4 = max # of 1-2 neighbors
  11 = max # of 1-3 neighbors
  24 = max # of 1-4 neighbors
  24 = max # of special neighbors
  special bonds CPU = 0.000629187 secs
  read_data CPU = 0.0112581 secs
################################################################################

timestep        1
fix             pysimm_md all nve/limit 0.1
run             2000
PPPM initialization ...
WARNING: System is not charge neutral, net charge = -5.2e-05 (../kspace.cpp:313)
  using 12-bit tables for long-range coulomb (../kspace.cpp:332)
  G vector (1/distance) = 0.0996308
  grid = 24 24 24
  stencil order = 5
  estimated absolute RMS force accuracy = 0.0330301
  estimated relative force accuracy = 9.94692e-05
  using double precision KISS FFT
  3d grid and FFT values/proc = 24389 13824
Neighbor list info ...
  update every 1 steps, delay 10 steps, check yes
  max neighbors/atom: 2000, page size: 100000
  master list distance cutoff = 14
  ghost atom cutoff = 14
  binsize = 7, bins = 38 38 38
  1 neighbor lists, perpetual/occasional/extra = 1 0 0
  (1) pair lj/cut/coul/long, perpetual
      attributes: half, newton on
      pair build: half/bin/newton
      stencil: half/bin/3d/newton
      bin: standard
Per MPI rank memory allocation (min/avg/max) = 21.27 | 21.27 | 21.27 Mbytes
Step Temp E_pair E_mol TotEng Press 
       0    1777.1869    225.81518       111313     115321.2   -286.95962 
    2000    1831.3912    408.53399    4099.5574    8405.8383    3.9519937 
Loop time of 8.34812 on 1 procs for 2000 steps with 715 atoms

Performance: 20.699 ns/day, 1.159 hours/ns, 239.575 timesteps/s
100.0% CPU use with 1 MPI tasks x no OpenMP threads

MPI task timing breakdown:
Section |  min time  |  avg time  |  max time  |%varavg| %total
---------------------------------------------------------------
Pair    | 1.8455     | 1.8455     | 1.8455     |   0.0 | 22.11
Bond    | 0.50119    | 0.50119    | 0.50119    |   0.0 |  6.00
Kspace  | 5.7558     | 5.7558     | 5.7558     |   0.0 | 68.95
Neigh   | 0.22361    | 0.22361    | 0.22361    |   0.0 |  2.68
Comm    | 0.0021191  | 0.0021191  | 0.0021191  |   0.0 |  0.03
Output  | 1.3828e-05 | 1.3828e-05 | 1.3828e-05 |   0.0 |  0.00
Modify  | 0.016611   | 0.016611   | 0.016611   |   0.0 |  0.20
Other   |            | 0.003313   |            |       |  0.04

Nlocal:    715 ave 715 max 715 min
Histogram: 1 0 0 0 0 0 0 0 0 0
Nghost:    0 ave 0 max 0 min
Histogram: 1 0 0 0 0 0 0 0 0 0
Neighs:    42800 ave 42800 max 42800 min
Histogram: 1 0 0 0 0 0 0 0 0 0

Total # of neighbors = 42800
Ave neighs/atom = 59.8601
Ave special neighs/atom = 12.1958
Neighbor list builds = 164
Dangerous builds = 0
unfix pysimm_md
min_style cg
minimize 0.001 0.001 10000 100000
WARNING: Using 'neigh_modify every 1 delay 0 check yes' setting during minimization (../min.cpp:190)
PPPM initialization ...
  using 12-bit tables for long-range coulomb (../kspace.cpp:332)
  G vector (1/distance) = 0.0996308
  grid = 24 24 24
  stencil order = 5
  estimated absolute RMS force accuracy = 0.0330301
  estimated relative force accuracy = 9.94692e-05
  using double precision KISS FFT
  3d grid and FFT values/proc = 24389 13824
Per MPI rank memory allocation (min/avg/max) = 22.39 | 22.39 | 22.39 Mbytes
Step Temp E_pair E_mol TotEng Press 
    2000    1831.3912    408.53399    4099.5574    8405.8383    3.9519937 
    2015    1831.3912    232.74946    1082.8442    5213.3406     11.72657 
Loop time of 0.138437 on 1 procs for 15 steps with 715 atoms

100.4% CPU use with 1 MPI tasks x no OpenMP threads

Minimization stats:
  Stopping criterion = energy tolerance
  Energy initial, next-to-last, final = 
         4508.09142717      1316.15098679      1315.59368824
  Force two-norm initial, final = 2741.09 603.712
  Force max component initial, final = 454.72 198.476
  Final line search alpha, max atom move = 2.29724e-05 0.00455948
  Iterations, force evaluations = 15 31

MPI task timing breakdown:
Section |  min time  |  avg time  |  max time  |%varavg| %total
---------------------------------------------------------------
Pair    | 0.038578   | 0.038578   | 0.038578   |   0.0 | 27.87
Bond    | 0.0084329  | 0.0084329  | 0.0084329  |   0.0 |  6.09
Kspace  | 0.090973   | 0.090973   | 0.090973   |   0.0 | 65.71
Neigh   | 0          | 0          | 0          |   0.0 |  0.00
Comm    | 2.1458e-06 | 2.1458e-06 | 2.1458e-06 |   0.0 |  0.00
Output  | 0          | 0          | 0          |   0.0 |  0.00
Modify  | 0          | 0          | 0          |   0.0 |  0.00
Other   |            | 0.0004508  |            |       |  0.33

Nlocal:    715 ave 715 max 715 min
Histogram: 1 0 0 0 0 0 0 0 0 0
Nghost:    0 ave 0 max 0 min
Histogram: 1 0 0 0 0 0 0 0 0 0
Neighs:    42802 ave 42802 max 42802 min
Histogram: 1 0 0 0 0 0 0 0 0 0

Total # of neighbors = 42802
Ave neighs/atom = 59.8629
Ave special neighs/atom = 12.1958
Neighbor list builds = 0
Dangerous builds = 0
write_dump all custom pysimm.dump.tmp id q x y z vx vy vz
quit


################################################################################
##################################    Init    ##################################
################################################################################
units           real
atom_style      full
pair_style      lj/cut/coul/long 12.0  12.0
kspace_style    pppm 1e-4
bond_style      harmonic
angle_style     harmonic
dihedral_style  fourier
improper_style  cvff
special_bonds   amber
pair_modify     mix arithmetic
read_data       temp.lmps
  orthogonal box = (-135.466 -135.466 -135.466) to (135.466 135.466 135.466)
  1 by 1 by 1 MPI processor grid
  reading atoms ...
  770 atoms
  reading velocities ...
  770 velocities
  scanning bonds ...
  3 = max bonds/atom
  scanning angles ...
  6 = max angles/atom
  scanning dihedrals ...
  27 = max dihedrals/atom
  scanning impropers ...
  2 = max impropers/atom
  reading bonds ...
  862 bonds
  reading angles ...
  1578 angles
  reading dihedrals ...
  2585 dihedrals
  reading impropers ...
  112 impropers
  4 = max # of 1-2 neighbors
  11 = max # of 1-3 neighbors
  24 = max # of 1-4 neighbors
  24 = max # of special neighbors
  special bonds CPU = 0.000646114 secs
  read_data CPU = 0.0112991 secs
################################################################################

timestep        1
fix             pysimm_md all nve/limit 0.1
run             2000
PPPM initialization ...
WARNING: System is not charge neutral, net charge = -5.6e-05 (../kspace.cpp:313)
  using 12-bit tables for long-range coulomb (../kspace.cpp:332)
  G vector (1/distance) = 0.0977369
  grid = 24 24 24
  stencil order = 5
  estimated absolute RMS force accuracy = 0.0347535
  estimated relative force accuracy = 0.000104659
  using double precision KISS FFT
  3d grid and FFT values/proc = 24389 13824
Neighbor list info ...
  update every 1 steps, delay 10 steps, check yes
  max neighbors/atom: 2000, page size: 100000
  master list distance cutoff = 14
  ghost atom cutoff = 14
  binsize = 7, bins = 39 39 39
  1 neighbor lists, perpetual/occasional/extra = 1 0 0
  (1) pair lj/cut/coul/long, perpetual
      attributes: half, newton on
      pair build: half/bin/newton
      stencil: half/bin/3d/newton
      bin: standard
Per MPI rank memory allocation (min/avg/max) = 21.3 | 21.3 | 21.3 Mbytes
Step Temp E_pair E_mol TotEng Press 
       0    1700.4857    242.10402    108347.16    112487.19   -255.12136 
    2000    1954.4989    341.97729    4329.9573    9152.1209    4.1208302 
Loop time of 8.30017 on 1 procs for 2000 steps with 770 atoms

Performance: 20.819 ns/day, 1.153 hours/ns, 240.959 timesteps/s
100.0% CPU use with 1 MPI tasks x no OpenMP threads

MPI task timing breakdown:
Section |  min time  |  avg time  |  max time  |%varavg| %total
---------------------------------------------------------------
Pair    | 1.7275     | 1.7275     | 1.7275     |   0.0 | 20.81
Bond    | 0.53663    | 0.53663    | 0.53663    |   0.0 |  6.47
Kspace  | 5.793      | 5.793      | 5.793      |   0.0 | 69.79
Neigh   | 0.21868    | 0.21868    | 0.21868    |   0.0 |  2.63
Comm    | 0.0030012  | 0.0030012  | 0.0030012  |   0.0 |  0.04
Output  | 1.2875e-05 | 1.2875e-05 | 1.2875e-05 |   0.0 |  0.00
Modify  | 0.017683   | 0.017683   | 0.017683   |   0.0 |  0.21
Other   |            | 0.003673   |            |       |  0.04

Nlocal:    770 ave 770 max 770 min
Histogram: 1 0 0 0 0 0 0 0 0 0
Nghost:    56 ave 56 max 56 min
Histogram: 1 0 0 0 0 0 0 0 0 0
Neighs:    44993 ave 44993 max 44993 min
Histogram: 1 0 0 0 0 0 0 0 0 0

Total # of neighbors = 44993
Ave neighs/atom = 58.4325
Ave special neighs/atom = 12.1818
Neighbor list builds = 162
Dangerous builds = 0
unfix pysimm_md
min_style cg
minimize 0.001 0.001 10000 100000
WARNING: Using 'neigh_modify every 1 delay 0 check yes' setting during minimization (../min.cpp:190)
PPPM initialization ...
  using 12-bit tables for long-range coulomb (../kspace.cpp:332)
  G vector (1/distance) = 0.0977369
  grid = 24 24 24
  stencil order = 5
  estimated absolute RMS force accuracy = 0.0347535
  estimated relative force accuracy = 0.000104659
  using double precision KISS FFT
  3d grid and FFT values/proc = 24389 13824
Per MPI rank memory allocation (min/avg/max) = 22.42 | 22.42 | 22.42 Mbytes
Step Temp E_pair E_mol TotEng Press 
    2000    1954.4989    341.97729    4329.9573    9152.1209    4.1208302 
    2023    1954.4989    201.00363    1112.9725    5794.1624    10.276923 
Loop time of 0.203282 on 1 procs for 23 steps with 770 atoms

100.3% CPU use with 1 MPI tasks x no OpenMP threads

Minimization stats:
  Stopping criterion = energy tolerance
  Energy initial, next-to-last, final = 
         4671.93455615      1314.02958966      1313.97609698
  Force two-norm initial, final = 2755.35 617.054
  Force max component initial, final = 377.645 254.826
  Final line search alpha, max atom move = 0.000217029 0.0553047
  Iterations, force evaluations = 23 46

MPI task timing breakdown:
Section |  min time  |  avg time  |  max time  |%varavg| %total
---------------------------------------------------------------
Pair    | 0.059193   | 0.059193   | 0.059193   |   0.0 | 29.12
Bond    | 0.013282   | 0.013282   | 0.013282   |   0.0 |  6.53
Kspace  | 0.13009    | 0.13009    | 0.13009    |   0.0 | 63.99
Neigh   | 0          | 0          | 0          |   0.0 |  0.00
Comm    | 1.955e-05  | 1.955e-05  | 1.955e-05  |   0.0 |  0.01
Output  | 0          | 0          | 0          |   0.0 |  0.00
Modify  | 0          | 0          | 0          |   0.0 |  0.00
Other   |            | 0.0007012  |            |       |  0.34

Nlocal:    770 ave 770 max 770 min
Histogram: 1 0 0 0 0 0 0 0 0 0
Nghost:    58 ave 58 max 58 min
Histogram: 1 0 0 0 0 0 0 0 0 0
Neighs:    44923 ave 44923 max 44923 min
Histogram: 1 0 0 0 0 0 0 0 0 0

Total # of neighbors = 44923
Ave neighs/atom = 58.3416
Ave special neighs/atom = 12.1818
Neighbor list builds = 0
Dangerous builds = 0
write_dump all custom pysimm.dump.tmp id q x y z vx vy vz
quit


################################################################################
##################################    Init    ##################################
################################################################################
units           real
atom_style      full
pair_style      lj/cut/coul/long 12.0  12.0
kspace_style    pppm 1e-4
bond_style      harmonic
angle_style     harmonic
dihedral_style  fourier
improper_style  cvff
special_bonds   amber
pair_modify     mix arithmetic
read_data       temp.lmps
  orthogonal box = (-138.854 -138.854 -138.854) to (138.854 138.854 138.854)
  1 by 1 by 1 MPI processor grid
  reading atoms ...
  825 atoms
  reading velocities ...
  825 velocities
  scanning bonds ...
  3 = max bonds/atom
  scanning angles ...
  6 = max angles/atom
  scanning dihedrals ...
  27 = max dihedrals/atom
  scanning impropers ...
  2 = max impropers/atom
  reading bonds ...
  923 bonds
  reading angles ...
  1689 angles
  reading dihedrals ...
  2765 dihedrals
  reading impropers ...
  120 impropers
  4 = max # of 1-2 neighbors
  11 = max # of 1-3 neighbors
  24 = max # of 1-4 neighbors
  24 = max # of special neighbors
  special bonds CPU = 0.00128889 secs
  read_data CPU = 0.013104 secs
################################################################################

timestep        1
fix             pysimm_md all nve/limit 0.1
run             2000
PPPM initialization ...
WARNING: System is not charge neutral, net charge = -6e-05 (../kspace.cpp:313)
  using 12-bit tables for long-range coulomb (../kspace.cpp:332)
  G vector (1/distance) = 0.096002
  grid = 24 24 24
  stencil order = 5
  estimated absolute RMS force accuracy = 0.036388
  estimated relative force accuracy = 0.000109581
  using double precision KISS FFT
  3d grid and FFT values/proc = 24389 13824
Neighbor list info ...
  update every 1 steps, delay 10 steps, check yes
[...]
  using double precision KISS FFT
  3d grid and FFT values/proc = 68921 46656
Per MPI rank memory allocation (min/avg/max) = 28.19 | 28.19 | 28.19 Mbytes
Step Temp E_pair E_mol TotEng Press 
    2000    1428.6715    1238.0051    12457.089    24699.312   0.68232747 
    2009    1428.6715    874.04538    4314.9849    16193.248    7.2301216 
Loop time of 0.185722 on 1 procs for 9 steps with 2585 atoms

100.1% CPU use with 1 MPI tasks x no OpenMP threads

Minimization stats:
  Stopping criterion = energy tolerance
  Energy initial, next-to-last, final = 
         13695.0939055       5192.6979665      5189.03026994
  Force two-norm initial, final = 4735.88 1945.75
  Force max component initial, final = 403.482 888.414
  Final line search alpha, max atom move = 0.000101922 0.0905485
  Iterations, force evaluations = 9 12

MPI task timing breakdown:
Section |  min time  |  avg time  |  max time  |%varavg| %total
---------------------------------------------------------------
Pair    | 0.054412   | 0.054412   | 0.054412   |   0.0 | 29.30
Bond    | 0.012634   | 0.012634   | 0.012634   |   0.0 |  6.80
Kspace  | 0.11793    | 0.11793    | 0.11793    |   0.0 | 63.50
Neigh   | 0          | 0          | 0          |   0.0 |  0.00
Comm    | 2.861e-06  | 2.861e-06  | 2.861e-06  |   0.0 |  0.00
Output  | 0          | 0          | 0          |   0.0 |  0.00
Modify  | 0          | 0          | 0          |   0.0 |  0.00
Other   |            | 0.0007427  |            |       |  0.40

Nlocal:    2585 ave 2585 max 2585 min
Histogram: 1 0 0 0 0 0 0 0 0 0
Nghost:    0 ave 0 max 0 min
Histogram: 1 0 0 0 0 0 0 0 0 0
Neighs:    150694 ave 150694 max 150694 min
Histogram: 1 0 0 0 0 0 0 0 0 0

Total # of neighbors = 150694
Ave neighs/atom = 58.2956
Ave special neighs/atom = 12.2979
Neighbor list builds = 0
Dangerous builds = 0
write_dump all custom pysimm.dump.tmp id q x y z vx vy vz
quit


################################################################################
##################################    Init    ##################################
################################################################################
units           real
atom_style      full
pair_style      lj/cut/coul/long 12.0  12.0
kspace_style    pppm 1e-4
bond_style      harmonic
angle_style     harmonic
dihedral_style  fourier
improper_style  cvff
special_bonds   amber
pair_modify     mix arithmetic
read_data       temp.lmps
  orthogonal box = (-207.913 -207.913 -207.913) to (207.913 207.913 207.913)
  1 by 1 by 1 MPI processor grid
  reading atoms ...
  2640 atoms
  reading velocities ...
  2640 velocities
  scanning bonds ...
  3 = max bonds/atom
  scanning angles ...
  6 = max angles/atom
  scanning dihedrals ...
  27 = max dihedrals/atom
  scanning impropers ...
  2 = max impropers/atom
  reading bonds ...
  2971 bonds
  reading angles ...
  5457 angles
  reading dihedrals ...
  8985 dihedrals
  reading impropers ...
  384 impropers
  4 = max # of 1-2 neighbors
  11 = max # of 1-3 neighbors
  24 = max # of 1-4 neighbors
  24 = max # of special neighbors
  special bonds CPU = 0.00227785 secs
  read_data CPU = 0.034965 secs
################################################################################

timestep        1
fix             pysimm_md all nve/limit 0.1
run             2000
PPPM initialization ...
WARNING: System is not charge neutral, net charge = -0.000192 (../kspace.cpp:313)
  using 12-bit tables for long-range coulomb (../kspace.cpp:332)
  G vector (1/distance) = 0.0961239
  grid = 36 36 36
  stencil order = 5
  estimated absolute RMS force accuracy = 0.0354024
  estimated relative force accuracy = 0.000106613
  using double precision KISS FFT
  3d grid and FFT values/proc = 68921 46656
Neighbor list info ...
  update every 1 steps, delay 10 steps, check yes
  max neighbors/atom: 2000, page size: 100000
  master list distance cutoff = 14
  ghost atom cutoff = 14
  binsize = 7, bins = 60 60 60
  1 neighbor lists, perpetual/occasional/extra = 1 0 0
  (1) pair lj/cut/coul/long, perpetual
      attributes: half, newton on
      pair build: half/bin/newton
      stencil: half/bin/3d/newton
      bin: standard
Per MPI rank memory allocation (min/avg/max) = 27.12 | 27.12 | 27.12 Mbytes
Step Temp E_pair E_mol TotEng Press 
       0     1398.919    882.08353    95438.684    107325.17   -55.787368 
    2000     1373.295      1145.21    12220.014    24168.053    1.2909327 
Loop time of 26.573 on 1 procs for 2000 steps with 2640 atoms

Performance: 6.503 ns/day, 3.691 hours/ns, 75.264 timesteps/s
100.1% CPU use with 1 MPI tasks x no OpenMP threads

MPI task timing breakdown:
Section |  min time  |  avg time  |  max time  |%varavg| %total
---------------------------------------------------------------
Pair    | 5.4246     | 5.4246     | 5.4246     |   0.0 | 20.41
Bond    | 1.828      | 1.828      | 1.828      |   0.0 |  6.88
Kspace  | 18.508     | 18.508     | 18.508     |   0.0 | 69.65
Neigh   | 0.73853    | 0.73853    | 0.73853    |   0.0 |  2.78
Comm    | 0.0064964  | 0.0064964  | 0.0064964  |   0.0 |  0.02
Output  | 2.5988e-05 | 2.5988e-05 | 2.5988e-05 |   0.0 |  0.00
Modify  | 0.05719    | 0.05719    | 0.05719    |   0.0 |  0.22
Other   |            | 0.01002    |            |       |  0.04

Nlocal:    2640 ave 2640 max 2640 min
Histogram: 1 0 0 0 0 0 0 0 0 0
Nghost:    0 ave 0 max 0 min
Histogram: 1 0 0 0 0 0 0 0 0 0
Neighs:    156253 ave 156253 max 156253 min
Histogram: 1 0 0 0 0 0 0 0 0 0

Total # of neighbors = 156253
Ave neighs/atom = 59.1867
Ave special neighs/atom = 12.2917
Neighbor list builds = 163
Dangerous builds = 0
unfix pysimm_md
min_style cg
minimize 0.001 0.001 10000 100000
WARNING: Using 'neigh_modify every 1 delay 0 check yes' setting during minimization (../min.cpp:190)
PPPM initialization ...
  using 12-bit tables for long-range coulomb (../kspace.cpp:332)
  G vector (1/distance) = 0.0961239
  grid = 36 36 36
  stencil order = 5
  estimated absolute RMS force accuracy = 0.0354024
  estimated relative force accuracy = 0.000106613
  using double precision KISS FFT
  3d grid and FFT values/proc = 68921 46656
Per MPI rank memory allocation (min/avg/max) = 28.24 | 28.24 | 28.24 Mbytes
Step Temp E_pair E_mol TotEng Press 
    2000     1373.295      1145.21    12220.014    24168.053    1.2909327 
    2026     1373.295    779.78438    3141.2138    14723.828    7.8549845 
Loop time of 0.722142 on 1 procs for 26 steps with 2640 atoms

100.1% CPU use with 1 MPI tasks x no OpenMP threads

Minimization stats:
  Stopping criterion = energy tolerance
  Energy initial, next-to-last, final = 
         13365.2237406      3922.89174529      3920.99816069
  Force two-norm initial, final = 4976.85 767.732
  Force max component initial, final = 1403.09 158.379
  Final line search alpha, max atom move = 0.000744755 0.117953
  Iterations, force evaluations = 26 49

MPI task timing breakdown:
Section |  min time  |  avg time  |  max time  |%varavg| %total
---------------------------------------------------------------
Pair    | 0.21413    | 0.21413    | 0.21413    |   0.0 | 29.65
Bond    | 0.049309   | 0.049309   | 0.049309   |   0.0 |  6.83
Kspace  | 0.45626    | 0.45626    | 0.45626    |   0.0 | 63.18
Neigh   | 0          | 0          | 0          |   0.0 |  0.00
Comm    | 1.6212e-05 | 1.6212e-05 | 1.6212e-05 |   0.0 |  0.00
Output  | 0          | 0          | 0          |   0.0 |  0.00
Modify  | 0          | 0          | 0          |   0.0 |  0.00
Other   |            | 0.002424   |            |       |  0.34

Nlocal:    2640 ave 2640 max 2640 min
Histogram: 1 0 0 0 0 0 0 0 0 0
Nghost:    0 ave 0 max 0 min
Histogram: 1 0 0 0 0 0 0 0 0 0
Neighs:    156311 ave 156311 max 156311 min
Histogram: 1 0 0 0 0 0 0 0 0 0

Total # of neighbors = 156311
Ave neighs/atom = 59.2087
Ave special neighs/atom = 12.2917
Neighbor list builds = 0
Dangerous builds = 0
write_dump all custom pysimm.dump.tmp id q x y z vx vy vz
quit


################################################################################
##################################    Init    ##################################
################################################################################
units           real
atom_style      full
pair_style      lj/cut/coul/long 12.0  12.0
kspace_style    pppm 1e-4
bond_style      harmonic
angle_style     harmonic
dihedral_style  fourier
improper_style  cvff
special_bonds   amber
pair_modify     mix arithmetic
read_data       temp.lmps
  orthogonal box = (-209.377 -209.377 -209.377) to (209.377 209.377 209.377)
  1 by 1 by 1 MPI processor grid
  reading atoms ...
  2695 atoms
  reading velocities ...
  2695 velocities
  scanning bonds ...
  3 = max bonds/atom
  scanning angles ...
  6 = max angles/atom
  scanning dihedrals ...
  27 = max dihedrals/atom
  scanning impropers ...
  2 = max impropers/atom
  reading bonds ...
  3032 bonds
  reading angles ...
  5568 angles
  reading dihedrals ...
  9165 dihedrals
  reading impropers ...
  392 impropers
  4 = max # of 1-2 neighbors
  11 = max # of 1-3 neighbors
  24 = max # of 1-4 neighbors
  24 = max # of special neighbors
  special bonds CPU = 0.00440502 secs
  read_data CPU = 0.044534 secs
################################################################################

timestep        1
fix             pysimm_md all nve/limit 0.1
run             2000
PPPM initialization ...
WARNING: System is not charge neutral, net charge = -0.000196 (../kspace.cpp:313)
  using 12-bit tables for long-range coulomb (../kspace.cpp:332)
  G vector (1/distance) = 0.0956331
  grid = 36 36 36
  stencil order = 5
  estimated absolute RMS force accuracy = 0.0358776
  estimated relative force accuracy = 0.000108044
  using double precision KISS FFT
  3d grid and FFT values/proc = 68921 46656
Neighbor list info ...
  update every 1 steps, delay 10 steps, check yes
  max neighbors/atom: 2000, page size: 100000
  master list distance cutoff = 14
  ghost atom cutoff = 14
  binsize = 7, bins = 60 60 60
  1 neighbor lists, perpetual/occasional/extra = 1 0 0
  (1) pair lj/cut/coul/long, perpetual
      attributes: half, newton on
      pair build: half/bin/newton
      stencil: half/bin/3d/newton
      bin: standard
Per MPI rank memory allocation (min/avg/max) = 27.13 | 27.13 | 27.13 Mbytes
Step Temp E_pair E_mol TotEng Press 
       0    1345.2804    789.05392    151992.79    163584.85   -91.189939 
    2000    1333.5911    1253.1923    12567.271    24529.602    -1.682338 
Loop time of 27.2468 on 1 procs for 2000 steps with 2695 atoms

Performance: 6.342 ns/day, 3.784 hours/ns, 73.403 timesteps/s
100.1% CPU use with 1 MPI tasks x no OpenMP threads

MPI task timing breakdown:
Section |  min time  |  avg time  |  max time  |%varavg| %total
---------------------------------------------------------------
Pair    | 5.7911     | 5.7911     | 5.7911     |   0.0 | 21.25
Bond    | 1.9084     | 1.9084     | 1.9084     |   0.0 |  7.00
Kspace  | 18.694     | 18.694     | 18.694     |   0.0 | 68.61
Neigh   | 0.77549    | 0.77549    | 0.77549    |   0.0 |  2.85
Comm    | 0.0069489  | 0.0069489  | 0.0069489  |   0.0 |  0.03
Output  | 3.0041e-05 | 3.0041e-05 | 3.0041e-05 |   0.0 |  0.00
Modify  | 0.059999   | 0.059999   | 0.059999   |   0.0 |  0.22
Other   |            | 0.01042    |            |       |  0.04

Nlocal:    2695 ave 2695 max 2695 min
Histogram: 1 0 0 0 0 0 0 0 0 0
Nghost:    0 ave 0 max 0 min
Histogram: 1 0 0 0 0 0 0 0 0 0
Neighs:    157394 ave 157394 max 157394 min
Histogram: 1 0 0 0 0 0 0 0 0 0

Total # of neighbors = 157394
Ave neighs/atom = 58.4022
Ave special neighs/atom = 12.2857
Neighbor list builds = 165
Dangerous builds = 0
unfix pysimm_md
min_style cg
minimize 0.001 0.001 10000 100000
WARNING: Using 'neigh_modify every 1 delay 0 check yes' setting during minimization (../min.cpp:190)
PPPM initialization ...
  using 12-bit tables for long-range coulomb (../kspace.cpp:332)
  G vector (1/distance) = 0.0956331
  grid = 36 36 36
  stencil order = 5
  estimated absolute RMS force accuracy = 0.0358776
  estimated relative force accuracy = 0.000108044
  using double precision KISS FFT
  3d grid and FFT values/proc = 68921 46656
Per MPI rank memory allocation (min/avg/max) = 28.25 | 28.25 | 28.25 Mbytes
Step Temp E_pair E_mol TotEng Press 
    2000    1333.5911    1253.1923    12567.271    24529.602    -1.682338 
    2019    1333.5911    791.23478    3364.0064    14864.381    6.7350613 
Loop time of 1.24976 on 1 procs for 19 steps with 2695 atoms

99.9% CPU use with 1 MPI tasks x no OpenMP threads

Minimization stats:
  Stopping criterion = energy tolerance
  Energy initial, next-to-last, final = 
         13820.4628217      4158.71735901      4155.24117449
  Force two-norm initial, final = 4763.86 1530.98
  Force max component initial, final = 502.774 336.255
  Final line search alpha, max atom move = 0.000395277 0.132914
  Iterations, force evaluations = 19 37

MPI task timing breakdown:
Section |  min time  |  avg time  |  max time  |%varavg| %total
---------------------------------------------------------------
Pair    | 0.37958    | 0.37958    | 0.37958    |   0.0 | 30.37
Bond    | 0.087388   | 0.087388   | 0.087388   |   0.0 |  6.99
Kspace  | 0.7784     | 0.7784     | 0.7784     |   0.0 | 62.28
Neigh   | 0          | 0          | 0          |   0.0 |  0.00
Comm    | 3.1948e-05 | 3.1948e-05 | 3.1948e-05 |   0.0 |  0.00
Output  | 0          | 0          | 0          |   0.0 |  0.00
Modify  | 0          | 0          | 0          |   0.0 |  0.00
Other   |            | 0.004359   |            |       |  0.35

Nlocal:    2695 ave 2695 max 2695 min
Histogram: 1 0 0 0 0 0 0 0 0 0
Nghost:    0 ave 0 max 0 min
Histogram: 1 0 0 0 0 0 0 0 0 0
Neighs:    157405 ave 157405 max 157405 min
Histogram: 1 0 0 0 0 0 0 0 0 0

Total # of neighbors = 157405
Ave neighs/atom = 58.4063
Ave special neighs/atom = 12.2857
Neighbor list builds = 0
Dangerous builds = 0
write_dump all custom pysimm.dump.tmp id q x y z vx vy vz
quit


################################################################################
##################################    Init    ##################################
################################################################################
units           real
atom_style      full
pair_style      lj/cut/coul/long 12.0  12.0
kspace_style    pppm 1e-4
bond_style      harmonic
angle_style     harmonic
dihedral_style  fourier
improper_style  cvff
special_bonds   amber
pair_modify     mix arithmetic
read_data       temp.lmps
  orthogonal box = (-210.821 -210.821 -210.821) to (210.821 210.821 210.821)
  1 by 1 by 1 MPI processor grid
  reading atoms ...
  2750 atoms
  reading velocities ...
  2750 velocities
  scanning bonds ...
  3 = max bonds/atom
  scanning angles ...
  6 = max angles/atom
  scanning dihedrals ...
  27 = max dihedrals/atom
  scanning impropers ...
  2 = max impropers/atom
  reading bonds ...
  3093 bonds
  reading angles ...
  5679 angles
  reading dihedrals ...
  9345 dihedrals
  reading impropers ...
  400 impropers
  4 = max # of 1-2 neighbors
  11 = max # of 1-3 neighbors
  24 = max # of 1-4 neighbors
  24 = max # of special neighbors
  special bonds CPU = 0.00169802 secs
  read_data CPU = 0.0479708 secs
################################################################################

timestep        1
fix             pysimm_md all nve/limit 0.1
run             2000
PPPM initialization ...
WARNING: System is not charge neutral, net charge = -0.0002 (../kspace.cpp:313)
  using 12-bit tables for long-range coulomb (../kspace.cpp:332)
  G vector (1/distance) = 0.0951563
  grid = 36 36 36
  stencil order = 5
  estimated absolute RMS force accuracy = 0.0363487
  estimated relative force accuracy = 0.000109463
  using double precision KISS FFT
  3d grid and FFT values/proc = 68921 46656
Neighbor list info ...
  update every 1 steps, delay 10 steps, check yes
  max neighbors/atom: 2000, page size: 100000
  master list distance cutoff = 14
  ghost atom cutoff = 14
  binsize = 7, bins = 61 61 61
  1 neighbor lists, perpetual/occasional/extra = 1 0 0
  (1) pair lj/cut/coul/long, perpetual
      attributes: half, newton on
      pair build: half/bin/newton
      stencil: half/bin/3d/newton
      bin: standard
Per MPI rank memory allocation (min/avg/max) = 27.18 | 27.18 | 27.18 Mbytes
Step Temp E_pair E_mol TotEng Press 
       0    1306.9314    798.73139    174626.97    186135.02   -104.39681 
    2000    1471.5692    1249.6085    13194.225    26502.235   0.99354331 
Loop time of 26.4908 on 1 procs for 2000 steps with 2750 atoms

Performance: 6.523 ns/day, 3.679 hours/ns, 75.498 timesteps/s
100.1% CPU use with 1 MPI tasks x no OpenMP threads

MPI task timing breakdown:
Section |  min time  |  avg time  |  max time  |%varavg| %total
---------------------------------------------------------------
Pair    | 6.0794     | 6.0794     | 6.0794     |   0.0 | 22.95
Bond    | 1.8775     | 1.8775     | 1.8775     |   0.0 |  7.09
Kspace  | 17.662     | 17.662     | 17.662     |   0.0 | 66.67
Neigh   | 0.79644    | 0.79644    | 0.79644    |   0.0 |  3.01
Comm    | 0.0068071  | 0.0068071  | 0.0068071  |   0.0 |  0.03
Output  | 2.408e-05  | 2.408e-05  | 2.408e-05  |   0.0 |  0.00
Modify  | 0.058879   | 0.058879   | 0.058879   |   0.0 |  0.22
Other   |            | 0.009995   |            |       |  0.04

Nlocal:    2750 ave 2750 max 2750 min
Histogram: 1 0 0 0 0 0 0 0 0 0
Nghost:    0 ave 0 max 0 min
Histogram: 1 0 0 0 0 0 0 0 0 0
Neighs:    171848 ave 171848 max 171848 min
Histogram: 1 0 0 0 0 0 0 0 0 0

Total # of neighbors = 171848
Ave neighs/atom = 62.4902
Ave special neighs/atom = 12.28
Neighbor list builds = 168
Dangerous builds = 0
unfix pysimm_md
min_style cg
minimize 0.001 0.001 10000 100000
WARNING: Using 'neigh_modify every 1 delay 0 check yes' setting during minimization (../min.cpp:190)
PPPM initialization ...
  using 12-bit tables for long-range coulomb (../kspace.cpp:332)
  G vector (1/distance) = 0.0951563
  grid = 36 36 36
  stencil order = 5
  estimated absolute RMS force accuracy = 0.0363487
  estimated relative force accuracy = 0.000109463
  using double precision KISS FFT
  3d grid and FFT values/proc = 68921 46656
Per MPI rank memory allocation (min/avg/max) = 28.31 | 28.31 | 28.31 Mbytes
Step Temp E_pair E_mol TotEng Press 
    2000    1471.5692    1249.6085    13194.225    26502.235   0.99354331 
    2030    1471.5692    754.79716    3113.5358    15926.734     8.100551 
Loop time of 0.866758 on 1 procs for 30 steps with 2750 atoms

100.1% CPU use with 1 MPI tasks x no OpenMP threads

Minimization stats:
  Stopping criterion = energy tolerance
  Energy initial, next-to-last, final = 
         14443.8336445      3871.21169286      3868.33297504
  Force two-norm initial, final = 4886.66 1128.89
  Force max component initial, final = 606.408 242.955
  Final line search alpha, max atom move = 0.000911364 0.22142
  Iterations, force evaluations = 30 57

MPI task timing breakdown:
Section |  min time  |  avg time  |  max time  |%varavg| %total
---------------------------------------------------------------
Pair    | 0.27806    | 0.27806    | 0.27806    |   0.0 | 32.08
Bond    | 0.059856   | 0.059856   | 0.059856   |   0.0 |  6.91
Kspace  | 0.52594    | 0.52594    | 0.52594    |   0.0 | 60.68
Neigh   | 0          | 0          | 0          |   0.0 |  0.00
Comm    | 1.7643e-05 | 1.7643e-05 | 1.7643e-05 |   0.0 |  0.00
Output  | 0          | 0          | 0          |   0.0 |  0.00
Modify  | 0          | 0          | 0          |   0.0 |  0.00
Other   |            | 0.002892   |            |       |  0.33

Nlocal:    2750 ave 2750 max 2750 min
Histogram: 1 0 0 0 0 0 0 0 0 0
Nghost:    0 ave 0 max 0 min
Histogram: 1 0 0 0 0 0 0 0 0 0
Neighs:    171831 ave 171831 max 171831 min
Histogram: 1 0 0 0 0 0 0 0 0 0

Total # of neighbors = 171831
Ave neighs/atom = 62.484
Ave special neighs/atom = 12.28
Neighbor list builds = 0
Dangerous builds = 0
write_dump all custom pysimm.dump.tmp id q x y z vx vy vz
quit
