

################################################################################
##################################    Init    ##################################
################################################################################
units           real
atom_style      full
pair_style      lj/cut/coul/long 12.0  12.0
kspace_style    pppm 1e-4
bond_style      harmonic
angle_style     harmonic
dihedral_style  fourier
improper_style  cvff
special_bonds   amber
pair_modify     mix arithmetic
read_data       temp.lmps
  orthogonal box = (-98.5156 -98.5156 -98.5156) to (98.5156 98.5156 98.5156)
  2 by 2 by 4 MPI processor grid
  reading atoms ...
  554 atoms
  reading velocities ...
  554 velocities
  scanning bonds ...
  3 = max bonds/atom
  scanning angles ...
  6 = max angles/atom
  scanning dihedrals ...
  27 = max dihedrals/atom
  scanning impropers ...
  2 = max impropers/atom
  reading bonds ...
  622 bonds
  reading angles ...
  1140 angles
  reading dihedrals ...
  1876 dihedrals
  reading impropers ...
  80 impropers
  4 = max # of 1-2 neighbors
  11 = max # of 1-3 neighbors
  24 = max # of 1-4 neighbors
  24 = max # of special neighbors
  special bonds CPU = 0.000910997 secs
  read_data CPU = 0.020905 secs
################################################################################

min_style cg
minimize 1e-05 1e-05 10000 100000
WARNING: Using 'neigh_modify every 1 delay 0 check yes' setting during minimization (../min.cpp:190)
PPPM initialization ...
WARNING: System is not charge neutral, net charge = -4e-05 (../kspace.cpp:313)
  using 12-bit tables for long-range coulomb (../kspace.cpp:332)
  G vector (1/distance) = 0.107588
  grid = 20 20 20
  stencil order = 5
  estimated absolute RMS force accuracy = 0.0352659
  estimated relative force accuracy = 0.000106202
  using double precision KISS FFT
  3d grid and FFT values/proc = 2250 800
Neighbor list info ...
  update every 1 steps, delay 0 steps, check yes
  max neighbors/atom: 2000, page size: 100000
  master list distance cutoff = 14
  ghost atom cutoff = 14
  binsize = 7, bins = 29 29 29
  1 neighbor lists, perpetual/occasional/extra = 1 0 0
  (1) pair lj/cut/coul/long, perpetual
      attributes: half, newton on
      pair build: half/bin/newton
      stencil: half/bin/3d/newton
      bin: standard
Per MPI rank memory allocation (min/avg/max) = 19.92 | 20.2 | 20.72 Mbytes
Step Temp E_pair E_mol TotEng Press 
       0    1526.4354    176.92431    1189.3708    3882.4528    11.058203 
      47    1526.4354     172.7129    633.20595    3322.0765    16.734863 
Loop time of 0.484374 on 16 procs for 47 steps with 554 atoms

93.4% CPU use with 16 MPI tasks x no OpenMP threads

Minimization stats:
  Stopping criterion = energy tolerance
  Energy initial, next-to-last, final = 
         1366.29507901      805.920711215       805.91884994
  Force two-norm initial, final = 228847 205.909
  Force max component initial, final = 103949 108.362
  Final line search alpha, max atom move = 8.89858e-07 9.64269e-05
  Iterations, force evaluations = 47 394

MPI task timing breakdown:
Section |  min time  |  avg time  |  max time  |%varavg| %total
---------------------------------------------------------------
Pair    | 5.6028e-05 | 0.042747   | 0.18081    |  30.5 |  8.83
Bond    | 0.00016499 | 0.011468   | 0.055802   |  16.4 |  2.37
Kspace  | 0.23152    | 0.41722    | 0.47373    |  12.7 | 86.14
Neigh   | 0          | 0          | 0          |   0.0 |  0.00
Comm    | 0.00019455 | 0.0047966  | 0.011608   |   6.8 |  0.99
Output  | 0          | 0          | 0          |   0.0 |  0.00
Modify  | 0          | 0          | 0          |   0.0 |  0.00
Other   |            | 0.00814    |            |       |  1.68

Nlocal:    34.625 ave 167 max 0 min
Histogram: 11 0 0 0 2 1 0 0 1 1
Nghost:    134.625 ave 348 max 0 min
Histogram: 8 0 0 0 1 0 1 3 1 2
Neighs:    1754.75 ave 9027 max 0 min
Histogram: 11 0 0 0 3 0 1 0 0 1

Total # of neighbors = 28076
Ave neighs/atom = 50.6787
Ave special neighs/atom = 12.2419
Neighbor list builds = 0
Dangerous builds = 0
timestep        1
fix             pysimm_md all nvt temp 100 100 100
run             5000
PPPM initialization ...
  using 12-bit tables for long-range coulomb (../kspace.cpp:332)
  G vector (1/distance) = 0.107588
  grid = 20 20 20
  stencil order = 5
  estimated absolute RMS force accuracy = 0.0352659
  estimated relative force accuracy = 0.000106202
  using double precision KISS FFT
  3d grid and FFT values/proc = 2250 800
Per MPI rank memory allocation (min/avg/max) = 18.79 | 19.07 | 19.6 Mbytes
Step Temp E_pair E_mol TotEng Press 
      47    1526.4354     172.7129    633.20595    3322.0765    16.734863 
    5047    169.67455    148.79842    767.89156    1196.3795   -1.3732537 
Loop time of 3.20963 on 16 procs for 5000 steps with 554 atoms

Performance: 134.595 ns/day, 0.178 hours/ns, 1557.813 timesteps/s
94.2% CPU use with 16 MPI tasks x no OpenMP threads

MPI task timing breakdown:
Section |  min time  |  avg time  |  max time  |%varavg| %total
---------------------------------------------------------------
Pair    | 0.00046396 | 0.20814    | 0.98219    |  70.2 |  6.48
Bond    | 0.00084209 | 0.082284   | 0.36438    |  44.2 |  2.56
Kspace  | 1.7176     | 2.5623     | 2.8111     |  22.5 | 79.83
Neigh   | 0.011893   | 0.012748   | 0.013642   |   0.5 |  0.40
Comm    | 0.002583   | 0.12457    | 0.37386    |  41.0 |  3.88
Output  | 2.1935e-05 | 2.256e-05  | 3.1948e-05 |   0.0 |  0.00
Modify  | 0.028885   | 0.20033    | 0.36647    |  36.4 |  6.24
Other   |            | 0.01921    |            |       |  0.60

Nlocal:    34.625 ave 165 max 0 min
Histogram: 11 0 0 1 1 1 0 0 1 1
Nghost:    134.062 ave 341 max 0 min
Histogram: 8 0 0 0 0 1 2 2 0 3
Neighs:    1621.25 ave 8147 max 0 min
Histogram: 11 0 0 1 1 0 1 1 0 1

Total # of neighbors = 25940
Ave neighs/atom = 46.8231
Ave special neighs/atom = 12.2419
Neighbor list builds = 37
Dangerous builds = 0
unfix pysimm_md
write_dump all custom pysimm.dump.tmp id q x y z vx vy vz
quit


################################################################################
##################################    Init    ##################################
################################################################################
units           real
atom_style      full
pair_style      lj/cut/coul/long 12.0  12.0
kspace_style    pppm 1e-4
bond_style      harmonic
angle_style     harmonic
dihedral_style  fourier
improper_style  cvff
special_bonds   amber
pair_modify     mix arithmetic
read_data       temp.lmps
  orthogonal box = (-124.122 -124.122 -124.122) to (124.122 124.122 124.122)
  2 by 2 by 4 MPI processor grid
  reading atoms ...
  611 atoms
  reading velocities ...
  611 velocities
  scanning bonds ...
  3 = max bonds/atom
  scanning angles ...
  6 = max angles/atom
  scanning dihedrals ...
  27 = max dihedrals/atom
  scanning impropers ...
  2 = max impropers/atom
  reading bonds ...
  685 bonds
  reading angles ...
  1254 angles
  reading dihedrals ...
  2062 dihedrals
  reading impropers ...
  88 impropers
  4 = max # of 1-2 neighbors
  11 = max # of 1-3 neighbors
  24 = max # of 1-4 neighbors
  24 = max # of special neighbors
  special bonds CPU = 0.000833988 secs
  read_data CPU = 0.0209069 secs
################################################################################

min_style cg
minimize 1e-05 1e-05 10000 100000
WARNING: Using 'neigh_modify every 1 delay 0 check yes' setting during minimization (../min.cpp:190)
PPPM initialization ...
WARNING: System is not charge neutral, net charge = -4.4e-05 (../kspace.cpp:313)
  using 12-bit tables for long-range coulomb (../kspace.cpp:332)
  G vector (1/distance) = 0.104012
  grid = 24 24 24
  stencil order = 5
  estimated absolute RMS force accuracy = 0.0291265
  estimated relative force accuracy = 8.77135e-05
  using double precision KISS FFT
  3d grid and FFT values/proc = 3179 1152
Neighbor list info ...
  update every 1 steps, delay 0 steps, check yes
  max neighbors/atom: 2000, page size: 100000
  master list distance cutoff = 14
  ghost atom cutoff = 14
  binsize = 7, bins = 36 36 36
  1 neighbor lists, perpetual/occasional/extra = 1 0 0
  (1) pair lj/cut/coul/long, perpetual
      attributes: half, newton on
      pair build: half/bin/newton
      stencil: half/bin/3d/newton
      bin: standard
Per MPI rank memory allocation (min/avg/max) = 20 | 20.25 | 20.83 Mbytes
Step Temp E_pair E_mol TotEng Press 
       0      1792.12    170.44542    1653.3779    5082.4245    3.9404188 
      45      1792.12    164.35921    859.95322    4282.9137    8.2385935 
Loop time of 0.525951 on 16 procs for 45 steps with 611 atoms

93.6% CPU use with 16 MPI tasks x no OpenMP threads

Minimization stats:
  Stopping criterion = energy tolerance
  Energy initial, next-to-last, final = 
         1823.82331296      1024.32109461      1024.31242784
  Force two-norm initial, final = 566534 138.311
  Force max component initial, final = 438736 49.2121
  Final line search alpha, max atom move = 1.56413e-05 0.000769741
  Iterations, force evaluations = 45 274

MPI task timing breakdown:
Section |  min time  |  avg time  |  max time  |%varavg| %total
---------------------------------------------------------------
Pair    | 4.3154e-05 | 0.051669   | 0.23295    |  33.6 |  9.82
Bond    | 7.6294e-05 | 0.011264   | 0.047056   |  15.4 |  2.14
Kspace  | 0.24042    | 0.45279    | 0.51768    |  13.9 | 86.09
Neigh   | 0          | 0          | 0          |   0.0 |  0.00
Comm    | 0.00011683 | 0.0039135  | 0.0092747  |   6.2 |  0.74
Output  | 0          | 0          | 0          |   0.0 |  0.00
Modify  | 0          | 0          | 0          |   0.0 |  0.00
Other   |            | 0.006315   |            |       |  1.20

Nlocal:    38.1875 ave 160 max 0 min
Histogram: 9 2 0 1 0 0 2 0 0 2
Nghost:    146.062 ave 383 max 0 min
Histogram: 8 0 0 0 2 0 0 3 1 2
Neighs:    2438 ave 11525 max 0 min
Histogram: 9 2 0 1 2 0 0 0 1 1

Total # of neighbors = 39008
Ave neighs/atom = 63.8429
Ave special neighs/atom = 12.216
Neighbor list builds = 0
Dangerous builds = 0
timestep        1
fix             pysimm_md all nvt temp 100 100 100
run             5000
PPPM initialization ...
  using 12-bit tables for long-range coulomb (../kspace.cpp:332)
  G vector (1/distance) = 0.104012
  grid = 24 24 24
  stencil order = 5
  estimated absolute RMS force accuracy = 0.0291265
  estimated relative force accuracy = 8.77135e-05
  using double precision KISS FFT
  3d grid and FFT values/proc = 3179 1152
Per MPI rank memory allocation (min/avg/max) = 18.88 | 19.13 | 19.71 Mbytes
Step Temp E_pair E_mol TotEng Press 
      45      1792.12    164.35921    859.95322    4282.9137    8.2385935 
    5045    107.75229     125.0643    600.68528    921.67495 -0.095423066 
Loop time of 4.26349 on 16 procs for 5000 steps with 611 atoms

Performance: 101.325 ns/day, 0.237 hours/ns, 1172.748 timesteps/s
94.2% CPU use with 16 MPI tasks x no OpenMP threads

MPI task timing breakdown:
Section |  min time  |  avg time  |  max time  |%varavg| %total
---------------------------------------------------------------
Pair    | 0.00050402 | 0.29255    | 1.3279     |  79.8 |  6.86
Bond    | 0.00084424 | 0.092684   | 0.4137     |  43.2 |  2.17
Kspace  | 2.3565     | 3.4748     | 3.8131     |  25.5 | 81.50
Neigh   | 0.029472   | 0.030834   | 0.032641   |   0.6 |  0.72
Comm    | 0.0039334  | 0.1357     | 0.37763    |  40.1 |  3.18
Output  | 2.2888e-05 | 2.4632e-05 | 3.4094e-05 |   0.0 |  0.00
Modify  | 0.028496   | 0.21919    | 0.39993    |  37.9 |  5.14
Other   |            | 0.01772    |            |       |  0.42

Nlocal:    38.1875 ave 183 max 0 min
Histogram: 9 3 0 0 2 0 0 0 1 1
Nghost:    148.562 ave 391 max 0 min
Histogram: 8 0 0 0 1 0 1 3 2 1
Neighs:    2329.5 ave 12192 max 0 min
Histogram: 10 1 1 2 0 0 0 0 1 1

Total # of neighbors = 37272
Ave neighs/atom = 61.0016
Ave special neighs/atom = 12.216
Neighbor list builds = 62
Dangerous builds = 13
unfix pysimm_md
write_dump all custom pysimm.dump.tmp id q x y z vx vy vz
quit


################################################################################
##################################    Init    ##################################
################################################################################
units           real
atom_style      full
pair_style      lj/cut/coul/long 12.0  12.0
kspace_style    pppm 1e-4
bond_style      harmonic
angle_style     harmonic
dihedral_style  fourier
improper_style  cvff
special_bonds   amber
pair_modify     mix arithmetic
read_data       temp.lmps
  orthogonal box = (-128.129 -128.129 -128.129) to (128.129 128.129 128.129)
  2 by 2 by 4 MPI processor grid
  reading atoms ...
  668 atoms
  reading velocities ...
  668 velocities
  scanning bonds ...
  3 = max bonds/atom
  scanning angles ...
  6 = max angles/atom
  scanning dihedrals ...
  27 = max dihedrals/atom
  scanning impropers ...
  2 = max impropers/atom
  reading bonds ...
  748 bonds
  reading angles ...
  1368 angles
  reading dihedrals ...
  2248 dihedrals
  reading impropers ...
  96 impropers
  4 = max # of 1-2 neighbors
  11 = max # of 1-3 neighbors
  24 = max # of 1-4 neighbors
  24 = max # of special neighbors
  special bonds CPU = 0.00149703 secs
  read_data CPU = 0.022814 secs
################################################################################

min_style cg
minimize 1e-05 1e-05 10000 100000
WARNING: Using 'neigh_modify every 1 delay 0 check yes' setting during minimization (../min.cpp:190)
PPPM initialization ...
WARNING: System is not charge neutral, net charge = -4.8e-05 (../kspace.cpp:313)
  using 12-bit tables for long-range coulomb (../kspace.cpp:332)
  G vector (1/distance) = 0.10171
  grid = 24 24 24
  stencil order = 5
  estimated absolute RMS force accuracy = 0.0310187
  estimated relative force accuracy = 9.34119e-05
  using double precision KISS FFT
  3d grid and FFT values/proc = 3179 1152
Neighbor list info ...
  update every 1 steps, delay 0 steps, check yes
  max neighbors/atom: 2000, page size: 100000
  master list distance cutoff = 14
  ghost atom cutoff = 14
  binsize = 7, bins = 37 37 37
  1 neighbor lists, perpetual/occasional/extra = 1 0 0
  (1) pair lj/cut/coul/long, perpetual
      attributes: half, newton on
      pair build: half/bin/newton
      stencil: half/bin/3d/newton
      bin: standard
Per MPI rank memory allocation (min/avg/max) = 20 | 20.21 | 20.83 Mbytes
Step Temp E_pair E_mol TotEng Press 
       0     1902.326    215.58579    2145.3364    6143.1272    3.6124594 
      34     1902.326     201.2409    942.73924    4926.1852    10.392698 
Loop time of 0.476637 on 16 procs for 34 steps with 668 atoms

95.3% CPU use with 16 MPI tasks x no OpenMP threads

Minimization stats:
  Stopping criterion = linesearch alpha is zero
  Energy initial, next-to-last, final = 
         2360.92215342      1143.98013633      1143.98013633
  Force two-norm initial, final = 316780 100.776
  Force max component initial, final = 184327 44.7756
  Final line search alpha, max atom move = 6.69684e-13 2.99855e-11
  Iterations, force evaluations = 34 178

MPI task timing breakdown:
Section |  min time  |  avg time  |  max time  |%varavg| %total
---------------------------------------------------------------
Pair    | 2.5272e-05 | 0.035547   | 0.25462    |  39.4 |  7.46
Bond    | 7.4625e-05 | 0.0072917  | 0.044671   |  16.5 |  1.53
Kspace  | 0.16787    | 0.42549    | 0.46945    |  13.6 | 89.27
Neigh   | 0.0014069  | 0.0014579  | 0.0015008  |   0.1 |  0.31
Comm    | 0.00013113 | 0.0023693  | 0.0055716  |   4.6 |  0.50
Output  | 0          | 0          | 0          |   0.0 |  0.00
Modify  | 0          | 0          | 0          |   0.0 |  0.00
Other   |            | 0.004477   |            |       |  0.94

Nlocal:    41.75 ave 256 max 0 min
Histogram: 11 1 2 0 0 0 0 0 0 2
Nghost:    152 ave 384 max 0 min
Histogram: 8 0 0 0 0 2 0 1 3 2
Neighs:    2842.88 ave 20532 max 0 min
Histogram: 12 1 1 0 0 0 0 1 0 1

Total # of neighbors = 45486
Ave neighs/atom = 68.0928
Ave special neighs/atom = 12.1946
Neighbor list builds = 1
Dangerous builds = 0
timestep        1
fix             pysimm_md all nvt temp 100 100 100
run             5000
PPPM initialization ...
  using 12-bit tables for long-range coulomb (../kspace.cpp:332)
  G vector (1/distance) = 0.10171
  grid = 24 24 24
  stencil order = 5
  estimated absolute RMS force accuracy = 0.0310187
  estimated relative force accuracy = 9.34119e-05
  using double precision KISS FFT
  3d grid and FFT values/proc = 3179 1152
Per MPI rank memory allocation (min/avg/max) = 18.88 | 19.08 | 19.7 Mbytes
Step Temp E_pair E_mol TotEng Press 
      34     1902.326     201.2409    942.73924    4926.1852    10.392698 
    5034    94.830766    142.88592    684.12399    1015.5525  0.022556659 
Loop time of 5.36101 on 16 procs for 5000 steps with 668 atoms

Performance: 80.582 ns/day, 0.298 hours/ns, 932.660 timesteps/s
94.9% CPU use with 16 MPI tasks x no OpenMP threads

MPI task timing breakdown:
Section |  min time  |  avg time  |  max time  |%varavg| %total
---------------------------------------------------------------
Pair    | 0.00049305 | 0.31747    | 1.8971     | 110.3 |  5.92
Bond    | 0.00086188 | 0.098417   | 0.55547    |  58.4 |  1.84
Kspace  | 2.7084     | 4.3992     | 4.7573     |  31.9 | 82.06
Neigh   | 0.038612   | 0.039934   | 0.041258   |   0.5 |  0.74
Comm    | 0.0038157  | 0.19262    | 0.53257    |  50.6 |  3.59
Output  | 2.408e-05  | 2.5481e-05 | 3.314e-05  |   0.0 |  0.00
Modify  | 0.023814   | 0.29032    | 0.53718    |  45.4 |  5.42
Other   |            | 0.023      |            |       |  0.43

Nlocal:    41.75 ave 241 max 0 min
Histogram: 11 0 1 1 1 0 0 1 0 1
Nghost:    152.438 ave 407 max 0 min
Histogram: 8 0 0 0 1 0 2 2 2 1
Neighs:    2460.88 ave 15712 max 0 min
Histogram: 11 1 1 0 0 2 0 0 0 1

Total # of neighbors = 39374
Ave neighs/atom = 58.9431
Ave special neighs/atom = 12.1946
Neighbor list builds = 58
Dangerous builds = 0
unfix pysimm_md
write_dump all custom pysimm.dump.tmp id q x y z vx vy vz
quit


################################################################################
##################################    Init    ##################################
################################################################################
units           real
atom_style      full
pair_style      lj/cut/coul/long 12.0  12.0
kspace_style    pppm 1e-4
bond_style      harmonic
angle_style     harmonic
dihedral_style  fourier
improper_style  cvff
special_bonds   amber
pair_modify     mix arithmetic
read_data       temp.lmps
  orthogonal box = (-131.899 -131.899 -131.899) to (131.899 131.899 131.899)
  2 by 2 by 4 MPI processor grid
  reading atoms ...
  725 atoms
  reading velocities ...
  725 velocities
  scanning bonds ...
  3 = max bonds/atom
  scanning angles ...
  6 = max angles/atom
  scanning dihedrals ...
  27 = max dihedrals/atom
  scanning impropers ...
  2 = max impropers/atom
  reading bonds ...
  811 bonds
  reading angles ...
  1482 angles
  reading dihedrals ...
  2434 dihedrals
  reading impropers ...
  104 impropers
  4 = max # of 1-2 neighbors
  11 = max # of 1-3 neighbors
  24 = max # of 1-4 neighbors
  24 = max # of special neighbors
  special bonds CPU = 0.00102305 secs
  read_data CPU = 0.0230901 secs
################################################################################

min_style cg
minimize 1e-05 1e-05 10000 100000
WARNING: Using 'neigh_modify every 1 delay 0 check yes' setting during minimization (../min.cpp:190)
PPPM initialization ...
WARNING: System is not charge neutral, net charge = -5.2e-05 (../kspace.cpp:313)
  using 12-bit tables for long-range coulomb (../kspace.cpp:332)
  G vector (1/distance) = 0.0996308
  grid = 24 24 24
  stencil order = 5
  estimated absolute RMS force accuracy = 0.0328015
  estimated relative force accuracy = 9.87808e-05
  using double precision KISS FFT
  3d grid and FFT values/proc = 3179 1152
Neighbor list info ...
  update every 1 steps, delay 0 steps, check yes
  max neighbors/atom: 2000, page size: 100000
  master list distance cutoff = 14
  ghost atom cutoff = 14
  binsize = 7, bins = 38 38 38
  1 neighbor lists, perpetual/occasional/extra = 1 0 0
  (1) pair lj/cut/coul/long, perpetual
      attributes: half, newton on
      pair build: half/bin/newton
      stencil: half/bin/3d/newton
      bin: standard
Per MPI rank memory allocation (min/avg/max) = 20.01 | 20.21 | 20.83 Mbytes
Step Temp E_pair E_mol TotEng Press 
       0    1806.0959    231.68682    2397.1368     6526.571    4.8682778 
      41    1806.0959     216.9493    982.58194    5097.2786    10.882683 
Loop time of 0.513575 on 16 procs for 41 steps with 725 atoms

95.2% CPU use with 16 MPI tasks x no OpenMP threads

Minimization stats:
  Stopping criterion = energy tolerance
  Energy initial, next-to-last, final = 
          2628.8236462      1199.54227414      1199.53124202
  Force two-norm initial, final = 411982 128.459
  Force max component initial, final = 211994 30.4167
  Final line search alpha, max atom move = 9.66108e-05 0.00293858
  Iterations, force evaluations = 41 191

MPI task timing breakdown:
Section |  min time  |  avg time  |  max time  |%varavg| %total
---------------------------------------------------------------
Pair    | 4.4107e-05 | 0.042017   | 0.24938    |  38.3 |  8.18
Bond    | 9.3699e-05 | 0.0094283  | 0.055034   |  17.8 |  1.84
Kspace  | 0.19914    | 0.45329    | 0.50591    |  14.3 | 88.26
Neigh   | 0.0013809  | 0.0014077  | 0.0014291  |   0.0 |  0.27
Comm    | 0.00019312 | 0.0025239  | 0.0053551  |   4.6 |  0.49
Output  | 0          | 0          | 0          |   0.0 |  0.00
Modify  | 0          | 0          | 0          |   0.0 |  0.00
Other   |            | 0.004904   |            |       |  0.95

Nlocal:    45.3125 ave 257 max 0 min
Histogram: 11 1 1 1 0 0 0 0 0 2
Nghost:    136.625 ave 399 max 0 min
Histogram: 8 0 0 0 1 2 2 1 0 2
Neighs:    2744.06 ave 16032 max 0 min
Histogram: 10 3 0 1 0 0 0 0 0 2

Total # of neighbors = 43905
Ave neighs/atom = 60.5586
Ave special neighs/atom = 12.1766
Neighbor list builds = 1
Dangerous builds = 0
timestep        1
fix             pysimm_md all nvt temp 100 100 100
run             5000
PPPM initialization ...
  using 12-bit tables for long-range coulomb (../kspace.cpp:332)
  G vector (1/distance) = 0.0996308
  grid = 24 24 24
  stencil order = 5
  estimated absolute RMS force accuracy = 0.0328015
  estimated relative force accuracy = 9.87808e-05
  using double precision KISS FFT
  3d grid and FFT values/proc = 3179 1152
Per MPI rank memory allocation (min/avg/max) = 18.88 | 19.08 | 19.71 Mbytes
Step Temp E_pair E_mol TotEng Press 
      41    1806.0959     216.9493    982.58194    5097.2786    10.882683 
    5041    114.87548    162.14844    733.61784    1143.6798    0.5077895 
Loop time of 5.63899 on 16 procs for 5000 steps with 725 atoms

Performance: 76.609 ns/day, 0.313 hours/ns, 886.684 timesteps/s
95.2% CPU use with 16 MPI tasks x no OpenMP threads

MPI task timing breakdown:
Section |  min time  |  avg time  |  max time  |%varavg| %total
---------------------------------------------------------------
Pair    | 0.0004878  | 0.34185    | 2.1081     | 110.3 |  6.06
Bond    | 0.00096011 | 0.10829    | 0.62064    |  60.4 |  1.92
Kspace  | 2.7181     | 4.6028     | 4.9903     |  32.5 | 81.63
Neigh   | 0.038359   | 0.039298   | 0.040251   |   0.3 |  0.70
Comm    | 0.003828   | 0.21114    | 0.57826    |  53.1 |  3.74
Output  | 2.408e-05  | 2.5764e-05 | 3.2902e-05 |   0.0 |  0.00
Modify  | 0.033001   | 0.3114     | 0.58213    |  48.0 |  5.52
Other   |            | 0.02414    |            |       |  0.43

Nlocal:    45.3125 ave 289 max 0 min
Histogram: 11 2 1 0 0 0 0 0 1 1
Nghost:    142.375 ave 430 max 0 min
Histogram: 8 0 0 1 1 2 0 1 2 1
Neighs:    2736.25 ave 20084 max 0 min
Histogram: 12 2 0 0 0 0 1 0 0 1

Total # of neighbors = 43780
Ave neighs/atom = 60.3862
Ave special neighs/atom = 12.1766
Neighbor list builds = 52
Dangerous builds = 0
unfix pysimm_md
write_dump all custom pysimm.dump.tmp id q x y z vx vy vz
quit


################################################################################
##################################    Init    ##################################
################################################################################
units           real
atom_style      full
pair_style      lj/cut/coul/long 12.0  12.0
kspace_style    pppm 1e-4
bond_style      harmonic
angle_style     harmonic
dihedral_style  fourier
improper_style  cvff
special_bonds   amber
pair_modify     mix arithmetic
read_data       temp.lmps
  orthogonal box = (-135.466 -135.466 -135.466) to (135.466 135.466 135.466)
  2 by 2 by 4 MPI processor grid
  reading atoms ...
  782 atoms
  reading velocities ...
  782 velocities
  scanning bonds ...
  3 = max bonds/atom
  scanning angles ...
  6 = max angles/atom
  scanning dihedrals ...
  27 = max dihedrals/atom
  scanning impropers ...
  2 = max impropers/atom
  reading bonds ...
  874 bonds
  reading angles ...
  1596 angles
  reading dihedrals ...
  2620 dihedrals
  reading impropers ...
  112 impropers
  4 = max # of 1-2 neighbors
  11 = max # of 1-3 neighbors
  24 = max # of 1-4 neighbors
  24 = max # of special neighbors
  special bonds CPU = 0.0010438 secs
  read_data CPU = 0.0241361 secs
################################################################################

min_style cg
minimize 1e-05 1e-05 10000 100000
WARNING: Using 'neigh_modify every 1 delay 0 check yes' setting during minimization (../min.cpp:190)
PPPM initialization ...
WARNING: System is not charge neutral, net charge = -5.6e-05 (../kspace.cpp:313)
  using 12-bit tables for long-range coulomb (../kspace.cpp:332)
  G vector (1/distance) = 0.0977369
  grid = 24 24 24
  stencil order = 5
  estimated absolute RMS force accuracy = 0.0344858
  estimated relative force accuracy = 0.000103853
  using double precision KISS FFT
  3d grid and FFT values/proc = 3179 1152
Neighbor list info ...
  update every 1 steps, delay 0 steps, check yes
  max neighbors/atom: 2000, page size: 100000
  master list distance cutoff = 14
  ghost atom cutoff = 14
  binsize = 7, bins = 39 39 39
  1 neighbor lists, perpetual/occasional/extra = 1 0 0
  (1) pair lj/cut/coul/long, perpetual
      attributes: half, newton on
      pair build: half/bin/newton
      stencil: half/bin/3d/newton
      bin: standard
Per MPI rank memory allocation (min/avg/max) = 20.01 | 20.26 | 20.84 Mbytes
Step Temp E_pair E_mol TotEng Press 
       0    1924.4684    196.18613    960.80367    5637.1766    11.101145 
       2    1924.4684    196.18641    960.61086    5636.9841    11.101144 
Loop time of 0.115384 on 16 procs for 2 steps with 782 atoms

95.1% CPU use with 16 MPI tasks x no OpenMP threads

Minimization stats:
  Stopping criterion = energy tolerance
  Energy initial, next-to-last, final = 
         1156.98979725      1156.79770831      1156.79727242
  Force two-norm initial, final = 6677.63 212.149
  Force max component initial, final = 4400.98 75.9275
  Final line search alpha, max atom move = 1.35164e-07 1.02627e-05
  Iterations, force evaluations = 2 42

MPI task timing breakdown:
Section |  min time  |  avg time  |  max time  |%varavg| %total
---------------------------------------------------------------
Pair    | 5.9605e-06 | 0.010067   | 0.055326   |  16.6 |  8.72
Bond    | 2.0266e-05 | 0.002285   | 0.012509   |   8.0 |  1.98
Kspace  | 0.045723   | 0.1014     | 0.11403    |   6.5 | 87.88
Neigh   | 0          | 0          | 0          |   0.0 |  0.00
Comm    | 2.1219e-05 | 0.00062807 | 0.0013804  |   0.0 |  0.54
Output  | 0          | 0          | 0          |   0.0 |  0.00
Modify  | 0          | 0          | 0          |   0.0 |  0.00
Other   |            | 0.001007   |            |       |  0.87

Nlocal:    48.875 ave 263 max 0 min
Histogram: 11 1 0 1 1 0 0 0 1 1
Nghost:    153.875 ave 375 max 0 min
Histogram: 8 0 0 0 0 1 1 1 2 3
Neighs:    2894.06 ave 15786 max 0 min
Histogram: 11 1 0 0 2 0 0 1 0 1

Total # of neighbors = 46305
Ave neighs/atom = 59.2136
Ave special neighs/atom = 12.1611
Neighbor list builds = 0
Dangerous builds = 0
timestep        1
fix             pysimm_md all nvt temp 100 100 100
run             5000
PPPM initialization ...
  using 12-bit tables for long-range coulomb (../kspace.cpp:332)
  G vector (1/distance) = 0.0977369
  grid = 24 24 24
  stencil order = 5
  estimated absolute RMS force accuracy = 0.0344858
  estimated relative force accuracy = 0.000103853
  using double precision KISS FFT
  3d grid and FFT values/proc = 3179 1152
Per MPI rank memory allocation (min/avg/max) = 18.88 | 19.13 | 19.71 Mbytes
Step Temp E_pair E_mol TotEng Press 
       2    1924.4684    196.18641    960.61086    5636.9841    11.101144 
    5002    93.247032    155.99597    775.26724    1148.3435   0.42906025 
Loop time of 5.56297 on 16 procs for 5000 steps with 782 atoms

Performance: 77.656 ns/day, 0.309 hours/ns, 898.801 timesteps/s
95.4% CPU use with 16 MPI tasks x no OpenMP threads

MPI task timing breakdown:
Section |  min time  |  avg time  |  max time  |%varavg| %total
---------------------------------------------------------------
Pair    | 0.00046968 | 0.36415    | 2.057      | 102.2 |  6.55
Bond    | 0.00097346 | 0.12045    | 0.65459    |  58.8 |  2.17
Kspace  | 2.6783     | 4.5207     | 4.9319     |  31.6 | 81.26
Neigh   | 0.036315   | 0.03751    | 0.038682   |   0.4 |  0.67
Comm    | 0.0039845  | 0.19548    | 0.56513    |  52.4 |  3.51
Output  | 2.3127e-05 | 2.4214e-05 | 3.2902e-05 |   0.0 |  0.00
Modify  | 0.030438   | 0.30115    | 0.56678    |  47.8 |  5.41
Other   |            | 0.02353    |            |       |  0.42

Nlocal:    48.875 ave 238 max 0 min
Histogram: 11 1 0 0 1 0 1 0 0 2
Nghost:    144.375 ave 328 max 0 min
Histogram: 8 0 0 0 0 0 1 2 1 4
Neighs:    2755.81 ave 14528 max 0 min
Histogram: 11 1 0 0 1 0 1 1 0 1

Total # of neighbors = 44093
Ave neighs/atom = 56.3849
Ave special neighs/atom = 12.1611
Neighbor list builds = 51
Dangerous builds = 0
unfix pysimm_md
write_dump all custom pysimm.dump.tmp id q x y z vx vy vz
quit


################################################################################
##################################    Init    ##################################
################################################################################
units           real
atom_style      full
pair_style      lj/cut/coul/long 12.0  12.0
kspace_style    pppm 1e-4
bond_style      harmonic
angle_style     harmonic
dihedral_style  fourier
improper_style  cvff
special_bonds   amber
pair_modify     mix arithmetic
read_data       temp.lmps
  orthogonal box = (-138.854 -138.854 -138.854) to (138.854 138.854 138.854)
  2 by 2 by 4 MPI processor grid
  reading atoms ...
  839 atoms
  reading velocities ...
  839 velocities
  scanning bonds ...
  3 = max bonds/atom
  scanning angles ...
  6 = max angles/atom
  scanning dihedrals ...
  27 = max dihedrals/atom
  scanning impropers ...
  2 = max impropers/atom
  reading bonds ...
  937 bonds
  reading angles ...
  1710 angles
  reading dihedrals ...
  2806 dihedrals
  reading impropers ...
  120 impropers
  4 = max # of 1-2 neighbors
  11 = max # of 1-3 neighbors
  24 = max # of 1-4 neighbors
  24 = max # of special neighbors
  special bonds CPU = 0.00103498 secs
  read_data CPU = 0.02525 secs
################################################################################

min_style cg
minimize 1e-05 1e-05 10000 100000
WARNING: Using 'neigh_modify every 1 delay 0 check yes' setting during minimization (../min.cpp:190)
PPPM initialization ...
WARNING: System is not charge neutral, net charge = -6e-05 (../kspace.cpp:313)
  using 12-bit tables for long-range coulomb (../kspace.cpp:332)
  G vector (1/distance) = 0.0960026
  grid = 24 24 24
  stencil order = 5
  estimated absolute RMS force accuracy = 0.0360838
  estimated relative force accuracy = 0.000108665
  using double precision KISS FFT
  3d grid and FFT values/proc = 3179 1152
Neighbor list info ...
  update every 1 steps, delay 0 steps, check yes
  max neighbors/atom: 2000, page size: 100000
  master list distance cutoff = 14
  ghost atom cutoff = 14
  binsize = 7, bins = 40 40 40
  1 neighbor lists, perpetual/occasional/extra = 1 0 0
  (1) pair lj/cut/coul/long, perpetual
      attributes: half, newton on
      pair build: half/bin/newton
      stencil: half/bin/3d/newton
      bin: standard
Per MPI rank memory allocation (min/avg/max) = 20.01 | 20.25 | 20.84 Mbytes
Step Temp E_pair E_mol TotEng Press 
       0    1740.5734    259.01022    2968.1921    7575.0133  -0.60811617 
      45    1740.5734    233.36493    1084.8753    5666.0512    6.9926443 
Loop time of 0.744457 on 16 procs for 45 steps with 839 atoms

95.7% CPU use with 16 MPI tasks x no OpenMP threads

Minimization stats:
  Stopping criterion = linesearch alpha is zero
  Energy initial, next-to-last, final = 
          3227.2023572      1318.24027439      1318.24027439
  Force two-norm initial, final = 853327 475.185
  Force max component initial, final = 368421 180.871
  Final line search alpha, max atom move = 6.26576e-14 1.13329e-11
  Iterations, force evaluations = 45 326

MPI task timing breakdown:
Section |  min time  |  avg time  |  max time  |%varavg| %total
---------------------------------------------------------------
Pair    | 4.7684e-05 | 0.071724   | 0.38432    |  45.1 |  9.63
Bond    | 0.00013328 | 0.014904   | 0.07603    |  20.6 |  2.00
Kspace  | 0.27795    | 0.64487    | 0.73369    |  18.3 | 86.62
Neigh   | 0.00092292 | 0.00094959 | 0.00098491 |   0.0 |  0.13
Comm    | 0.00019407 | 0.004202   | 0.010187   |   6.2 |  0.56
Output  | 0          | 0          | 0          |   0.0 |  0.00
Modify  | 0          | 0          | 0          |   0.0 |  0.00
Other   |            | 0.007811   |            |       |  1.05

Nlocal:    52.4375 ave 273 max 0 min
Histogram: 11 1 0 0 1 1 0 0 1 1
Nghost:    147.375 ave 361 max 0 min
Histogram: 8 0 0 0 0 0 1 3 2 2
Neighs:    3340.5 ave 18117 max 0 min
Histogram: 12 0 0 0 0 2 0 1 0 1

Total # of neighbors = 53448
Ave neighs/atom = 63.7044
Ave special neighs/atom = 12.1478
Neighbor list builds = 1
Dangerous builds = 0
timestep        1
fix             pysimm_md all nvt temp 100 100 100
run             5000
PPPM initialization ...
  using 12-bit tables for long-range coulomb (../kspace.cpp:332)
  G vector (1/distance) = 0.0960026
  grid = 24 24 24
  stencil order = 5
  estimated absolute RMS force accuracy = 0.0360838
  estimated relative force accuracy = 0.000108665
  using double precision KISS FFT
  3d grid and FFT values/proc = 3179 1152
Per MPI rank memory allocation (min/avg/max) = 18.89 | 19.13 | 19.72 Mbytes
Step Temp E_pair E_mol TotEng Press 
      45    1740.5734    233.36493    1084.8753    5666.0512    6.9926443 
    5045    99.826798    148.48733    850.81819    1248.6648  -0.97182337 
Loop time of 5.22023 on 16 procs for 5000 steps with 839 atoms

Performance: 82.755 ns/day, 0.290 hours/ns, 957.812 timesteps/s
95.6% CPU use with 16 MPI tasks x no OpenMP threads

MPI task timing breakdown:
Section |  min time  |  avg time  |  max time  |%varavg| %total
---------------------------------------------------------------
Pair    | 0.00046539 | 0.42697    | 2.0886     | 108.2 |  8.18
Bond    | 0.00090075 | 0.11999    | 0.54677    |  55.2 |  2.30
Kspace  | 2.4019     | 4.1413     | 4.6191     |  37.2 | 79.33
Neigh   | 0.04039    | 0.041531   | 0.042946   |   0.4 |  0.80
Comm    | 0.0043538  | 0.17216    | 0.53076    |  48.5 |  3.30
Output  | 2.1935e-05 | 2.3276e-05 | 3.0994e-05 |   0.0 |  0.00
Modify  | 0.04096    | 0.29598    | 0.53547    |  43.6 |  5.67
Other   |            | 0.02232    |            |       |  0.43

Nlocal:    52.4375 ave 219 max 0 min
Histogram: 10 2 0 0 0 0 0 2 1 1
Nghost:    146.938 ave 326 max 0 min
Histogram: 8 0 0 0 0 0 0 1 3 4
Neighs:    3498.75 ave 16706 max 0 min
Histogram: 10 2 0 0 1 0 1 0 1 1

Total # of neighbors = 55980
Ave neighs/atom = 66.7223
Ave special neighs/atom = 12.1478
Neighbor list builds = 66
Dangerous builds = 0
unfix pysimm_md
write_dump all custom pysimm.dump.tmp id q x y z vx vy vz
quit


################################################################################
##################################    Init    ##################################
################################################################################
units           real
atom_style      full
pair_style      lj/cut/coul/long 12.0  12.0
kspace_style    pppm 1e-4
bond_style      harmonic
angle_style     harmonic
dihedral_style  fourier
improper_style  cvff
special_bonds   amber
pair_modify     mix arithmetic
read_data       temp.lmps
  orthogonal box = (-142.084 -142.084 -142.084) to (142.084 142.084 142.084)
  2 by 2 by 4 MPI processor grid
  reading atoms ...
  896 atoms
  reading velocities ...
  896 velocities
  scanning bonds ...
  3 = max bonds/atom
  scanning angles ...
  6 = max angles/atom
  scanning dihedrals ...
  27 = max dihedrals/atom
  scanning impropers ...
  2 = max impropers/atom
  reading bonds ...
  1000 bonds
  reading angles ...
  1824 angles
  reading dihedrals ...
  2992 dihedrals
  reading impropers ...
  128 impropers
  4 = max # of 1-2 neighbors
  11 = max # of 1-3 neighbors
  24 = max # of 1-4 neighbors
  24 = max # of special neighbors
  special bonds CPU = 0.00152206 secs
  read_data CPU = 0.0269101 secs
################################################################################

min_style cg
minimize 1e-05 1e-05 10000 100000
WARNING: Using 'neigh_modify every 1 delay 0 check yes' setting during minimization (../min.cpp:190)
PPPM initialization ...
WARNING: System is not charge neutral, net charge = -6.4e-05 (../kspace.cpp:313)
  using 12-bit tables for long-range coulomb (../kspace.cpp:332)
  G vector (1/distance) = 0.0972517
  grid = 25 25 25
  stencil order = 5
  estimated absolute RMS force accuracy = 0.0347476
  estimated relative force accuracy = 0.000104641
  using double precision KISS FFT
  3d grid and FFT values/proc = 3888 1250
Neighbor list info ...
  update every 1 steps, delay 0 steps, check yes
  max neighbors/atom: 2000, page size: 100000
  master list distance cutoff = 14
  ghost atom cutoff = 14
  binsize = 7, bins = 41 41 41
  1 neighbor lists, perpetual/occasional/extra = 1 0 0
  (1) pair lj/cut/coul/long, perpetual
      attributes: half, newton on
      pair build: half/bin/newton
      stencil: half/bin/3d/newton
      bin: standard
Per MPI rank memory allocation (min/avg/max) = 20.03 | 20.21 | 20.87 Mbytes
Step Temp E_pair E_mol TotEng Press 
       0    1727.6469     395.8892    3322.9186    8327.8675     2.537877 
       7    1727.6469    395.88639     3308.556    8313.5021    2.5378889 
Loop time of 0.431986 on 16 procs for 7 steps with 896 atoms

94.5% CPU use with 16 MPI tasks x no OpenMP threads

Minimization stats:
  Stopping criterion = energy tolerance
  Energy initial, next-to-last, final = 
         3718.80779094      3704.46437584      3704.44236443
  Force two-norm initial, final = 740406 8133.4
  Force max component initial, final = 384962 3231.58
  Final line search alpha, max atom move = 1.12279e-09 3.62841e-06
  Iterations, force evaluations = 7 128

MPI task timing breakdown:
Section |  min time  |  avg time  |  max time  |%varavg| %total
---------------------------------------------------------------
Pair    | 2.861e-05  | 0.033101   | 0.21604    |  35.8 |  7.66
Bond    | 5.1022e-05 | 0.0073812  | 0.046824   |  16.1 |  1.71
Kspace  | 0.16324    | 0.38656    | 0.42778    |  12.8 | 89.48
Neigh   | 0          | 0          | 0          |   0.0 |  0.00
Comm    | 7.391e-05  | 0.0016223  | 0.003705   |   3.9 |  0.38
Output  | 0          | 0          | 0          |   0.0 |  0.00
Modify  | 0          | 0          | 0          |   0.0 |  0.00
Other   |            | 0.00332    |            |       |  0.77

Nlocal:    56 ave 342 max 0 min
Histogram: 10 2 2 0 0 0 0 0 1 1
Nghost:    141.875 ave 406 max 0 min
Histogram: 8 0 0 0 1 1 3 0 1 2
Neighs:    3405.56 ave 21643 max 0 min
Histogram: 10 3 1 0 0 0 0 0 1 1

Total # of neighbors = 54489
Ave neighs/atom = 60.8136
Ave special neighs/atom = 12.1362
Neighbor list builds = 0
Dangerous builds = 0
timestep        1
fix             pysimm_md all nvt temp 100 100 100
run             5000
PPPM initialization ...
  using 12-bit tables for long-range coulomb (../kspace.cpp:332)
  G vector (1/distance) = 0.0972517
  grid = 25 25 25
  stencil order = 5
  estimated absolute RMS force accuracy = 0.0347476
  estimated relative force accuracy = 0.000104641
  using double precision KISS FFT
  3d grid and FFT values/proc = 3888 1250
Per MPI rank memory allocation (min/avg/max) = 18.91 | 19.08 | 19.74 Mbytes
Step Temp E_pair E_mol TotEng Press 
       7    1727.6469    395.88639     3308.556    8313.5021    2.5378889 
    5007    92.264709    175.33576    910.82053    1332.3024  -0.31466878 
Loop time of 6.24431 on 16 procs for 5000 steps with 896 atoms

Performance: 69.183 ns/day, 0.347 hours/ns, 800.729 timesteps/s
95.3% CPU use with 16 MPI tasks x no OpenMP threads

MPI task timing breakdown:
Section |  min time  |  avg time  |  max time  |%varavg| %total
---------------------------------------------------------------
Pair    | 0.00047851 | 0.39757    | 2.2705     | 110.1 |  6.37
Bond    | 0.00084591 | 0.13013    | 0.72705    |  62.0 |  2.08
Kspace  | 3.0074     | 5.0457     | 5.5023     |  33.5 | 80.81
Neigh   | 0.071284   | 0.072541   | 0.073671   |   0.3 |  1.16
Comm    | 0.0048058  | 0.1987     | 0.62171    |  55.1 |  3.18
Output  | 2.408e-05  | 2.5585e-05 | 3.4809e-05 |   0.0 |  0.00
Modify  | 0.037127   | 0.37344    | 0.64683    |  47.3 |  5.98
Other   |            | 0.02617    |            |       |  0.42

Nlocal:    56 ave 289 max 0 min
Histogram: 10 1 1 1 1 0 0 0 1 1
Nghost:    130.312 ave 320 max 0 min
Histogram: 8 0 0 0 0 0 2 1 3 2
Neighs:    2999.88 ave 14240 max 0 min
Histogram: 10 1 0 1 1 1 0 0 1 1

Total # of neighbors = 47998
Ave neighs/atom = 53.5692
Ave special neighs/atom = 12.1362
Neighbor list builds = 80
Dangerous builds = 21
unfix pysimm_md
write_dump all custom pysimm.dump.tmp id q x y z vx vy vz
quit


################################################################################
##################################    Init    ##################################
################################################################################
units           real
atom_style      full
pair_style      lj/cut/coul/long 12.0  12.0
kspace_style    pppm 1e-4
bond_style      harmonic
angle_style     harmonic
dihedral_style  fourier
improper_style  cvff
special_bonds   amber
pair_modify     mix arithmetic
read_data       temp.lmps
  orthogonal box = (-145.174 -145.174 -145.174) to (145.174 145.174 145.174)
  2 by 2 by 4 MPI processor grid
  reading atoms ...
  953 atoms
  reading velocities ...
  953 velocities
  scanning bonds ...
  3 = max bonds/atom
  scanning angles ...
  6 = max angles/atom
  scanning dihedrals ...
  27 = max dihedrals/atom
  scanning impropers ...
  2 = max impropers/atom
  reading bonds ...
  1063 bonds
  reading angles ...
  1938 angles
  reading dihedrals ...
  3178 dihedrals
  reading impropers ...
  136 impropers
  4 = max # of 1-2 neighbors
  11 = max # of 1-3 neighbors
  24 = max # of 1-4 neighbors
  24 = max # of special neighbors
  special bonds CPU = 0.00103307 secs
  read_data CPU = 0.0271158 secs
################################################################################

min_style cg
minimize 1e-05 1e-05 10000 100000
WARNING: Using 'neigh_modify every 1 delay 0 check yes' setting during minimization (../min.cpp:190)
PPPM initialization ...
WARNING: System is not charge neutral, net charge = -6.8e-05 (../kspace.cpp:313)
  using 12-bit tables for long-range coulomb (../kspace.cpp:332)
  G vector (1/distance) = 0.0957447
  grid = 25 25 25
  stencil order = 5
  estimated absolute RMS force accuracy = 0.0361494
  estimated relative force accuracy = 0.000108863
  using double precision KISS FFT
  3d grid and FFT values/proc = 3888 1250
Neighbor list info ...
  update every 1 steps, delay 0 steps, check yes
  max neighbors/atom: 2000, page size: 100000
  master list distance cutoff = 14
  ghost atom cutoff = 14
  binsize = 7, bins = 42 42 42
  1 neighbor lists, perpetual/occasional/extra = 1 0 0
  (1) pair lj/cut/coul/long, perpetual
      attributes: half, newton on
      pair build: half/bin/newton
      stencil: half/bin/3d/newton
      bin: standard
Per MPI rank memory allocation (min/avg/max) = 20.04 | 20.3 | 20.88 Mbytes
Step Temp E_pair E_mol TotEng Press 
       0    1837.9443    272.48193    3739.0427    9227.1166    1.1995592 
      48    1837.9443    243.56893    1230.2628    6689.4237    10.132473 
Loop time of 0.684069 on 16 procs for 48 steps with 953 atoms

94.1% CPU use with 16 MPI tasks x no OpenMP threads

Minimization stats:
  Stopping criterion = energy tolerance
  Energy initial, next-to-last, final = 
         4011.52467601      1473.83877762      1473.83176652
  Force two-norm initial, final = 855324 233.31
  Force max component initial, final = 614583 93.1267
  Final line search alpha, max atom move = 6.67214e-05 0.00621355
  Iterations, force evaluations = 48 230

MPI task timing breakdown:
Section |  min time  |  avg time  |  max time  |%varavg| %total
---------------------------------------------------------------
Pair    | 2.9325e-05 | 0.058252   | 0.36134    |  46.1 |  8.52
Bond    | 9.2983e-05 | 0.012451   | 0.066651   |  19.7 |  1.82
Kspace  | 0.24472    | 0.60307    | 0.67491    |  17.2 | 88.16
Neigh   | 0.0017102  | 0.0017658  | 0.001822   |   0.1 |  0.26
Comm    | 0.00015306 | 0.0023064  | 0.0056834  |   4.6 |  0.34
Output  | 0          | 0          | 0          |   0.0 |  0.00
Modify  | 0          | 0          | 0          |   0.0 |  0.00
Other   |            | 0.006228   |            |       |  0.91

Nlocal:    59.5625 ave 327 max 0 min
Histogram: 12 0 0 0 2 0 0 0 0 2
Nghost:    112.5 ave 382 max 0 min
Histogram: 8 0 0 2 1 1 3 0 0 1
Neighs:    3738.88 ave 23465 max 0 min
Histogram: 12 0 1 1 0 0 0 0 1 1

Total # of neighbors = 59822
Ave neighs/atom = 62.7723
Ave special neighs/atom = 12.1259
Neighbor list builds = 1
Dangerous builds = 0
timestep        1
fix             pysimm_md all nvt temp 100 100 100
run             5000
PPPM initialization ...
  using 12-bit tables for long-range coulomb (../kspace.cpp:332)
  G vector (1/distance) = 0.0957447
  grid = 25 25 25
  stencil order = 5
  estimated absolute RMS force accuracy = 0.0361494
  estimated relative force accuracy = 0.000108863
  using double precision KISS FFT
  3d grid and FFT values/proc = 3888 1250
Per MPI rank memory allocation (min/avg/max) = 18.91 | 19.17 | 19.76 Mbytes
Step Temp E_pair E_mol TotEng Press 
      48    1837.9443    243.56893    1230.2628    6689.4237    10.132473 
    5048    94.544569    190.84264    920.69043    1379.8251   -0.1307733 
Loop time of 6.25029 on 16 procs for 5000 steps with 953 atoms

Performance: 69.117 ns/day, 0.347 hours/ns, 799.963 timesteps/s
93.1% CPU use with 16 MPI tasks x no OpenMP threads

MPI task timing breakdown:
Section |  min time  |  avg time  |  max time  |%varavg| %total
---------------------------------------------------------------
Pair    | 0.00046921 | 0.41853    | 2.3556     | 118.6 |  6.70
Bond    | 0.00086474 | 0.1334     | 0.70693    |  63.9 |  2.13
Kspace  | 2.9889     | 5.0439     | 5.5179     |  36.6 | 80.70
Neigh   | 0.064386   | 0.06544    | 0.067347   |   0.4 |  1.05
Comm    | 0.0033185  | 0.1442     | 0.60328    |  55.5 |  2.31
Output  | 2.3842e-05 | 2.5451e-05 | 3.314e-05  |   0.0 |  0.00
Modify  | 0.035617   | 0.4218     | 0.65793    |  44.2 |  6.75
Other   |            | 0.02295    |            |       |  0.37

Nlocal:    59.5625 ave 313 max 0 min
Histogram: 12 0 0 0 1 1 0 0 0 2
Nghost:    121.625 ave 399 max 0 min
Histogram: 8 0 0 2 0 2 2 1 0 1
Neighs:    3323.38 ave 19923 max 0 min
Histogram: 12 0 0 1 1 0 0 0 1 1

Total # of neighbors = 53174
Ave neighs/atom = 55.7964
Ave special neighs/atom = 12.1259
Neighbor list builds = 86
Dangerous builds = 0
unfix pysimm_md
write_dump all custom pysimm.dump.tmp id q x y z vx vy vz
quit


################################################################################
##################################    Init    ##################################
################################################################################
units           real
atom_style      full
pair_style      lj/cut/coul/long 12.0  12.0
kspace_style    pppm 1e-4
bond_style      harmonic
angle_style     harmonic
dihedral_style  fourier
improper_style  cvff
special_bonds   amber
pair_modify     mix arithmetic
read_data       temp.lmps
  orthogonal box = (-148.137 -148.137 -148.137) to (148.137 148.137 148.137)
  2 by 2 by 4 MPI processor grid
  reading atoms ...
  1010 atoms
  reading velocities ...
  1010 velocities
  scanning bonds ...
  3 = max bonds/atom
  scanning angles ...
  6 = max angles/atom
  scanning dihedrals ...
  27 = max dihedrals/atom
  scanning impropers ...
  2 = max impropers/atom
  reading bonds ...
  1126 bonds
  reading angles ...
  2052 angles
  reading dihedrals ...
  3364 dihedrals
  reading impropers ...
  144 impropers
  4 = max # of 1-2 neighbors
  11 = max # of 1-3 neighbors
  24 = max # of 1-4 neighbors
  24 = max # of special neighbors
  special bonds CPU = 0.00102592 secs
  read_data CPU = 0.0276251 secs
################################################################################

min_style cg
minimize 1e-05 1e-05 10000 100000
WARNING: Using 'neigh_modify every 1 delay 0 check yes' setting during minimization (../min.cpp:190)
PPPM initialization ...
WARNING: System is not charge neutral, net charge = -7.2e-05 (../kspace.cpp:313)
  using 12-bit tables for long-range coulomb (../kspace.cpp:332)
  G vector (1/distance) = 0.0997507
  grid = 27 27 27
  stencil order = 5
  estimated absolute RMS force accuracy = 0.0322183
  estimated relative force accuracy = 9.70244e-05
  using double precision KISS FFT
  3d grid and FFT values/proc = 4332 1458
Neighbor list info ...
  update every 1 steps, delay 0 steps, check yes
  max neighbors/atom: 2000, page size: 100000
  master list distance cutoff = 14
  ghost atom cutoff = 14
  binsize = 7, bins = 43 43 43
  1 neighbor lists, perpetual/occasional/extra = 1 0 0
  (1) pair lj/cut/coul/long, perpetual
      attributes: half, newton on
      pair build: half/bin/newton
      stencil: half/bin/3d/newton
      bin: standard
Per MPI rank memory allocation (min/avg/max) = 20.1 | 20.39 | 20.95 Mbytes
Step Temp E_pair E_mol TotEng Press 
       0    1846.4963    302.06282    3945.2311    9800.8851    2.1074152 
      47    1846.4963    287.39239    1228.9876    7069.9712      10.8016 
Loop time of 0.705842 on 16 procs for 47 steps with 1010 atoms

95.4% CPU use with 16 MPI tasks x no OpenMP threads

Minimization stats:
  Stopping criterion = energy tolerance
  Energy initial, next-to-last, final = 
         4247.29387918      1516.38268761      1516.37994739
  Force two-norm initial, final = 6.56643e+06 5566.3
  Force max component initial, final = 3.68328e+06 3162.52
  Final line search alpha, max atom move = 6.46331e-09 2.04404e-05
  Iterations, force evaluations = 47 265

MPI task timing breakdown:
Section |  min time  |  avg time  |  max time  |%varavg| %total
---------------------------------------------------------------
Pair    | 5.0545e-05 | 0.065151   | 0.34516    |  37.3 |  9.23
Bond    | 0.00010324 | 0.014719   | 0.060534   |  16.4 |  2.09
Kspace  | 0.28844    | 0.61543    | 0.69662    |  14.7 | 87.19
Neigh   | 0.0015619  | 0.0016171  | 0.0016642  |   0.1 |  0.23
Comm    | 0.00015926 | 0.0031214  | 0.0067537  |   5.3 |  0.44
Output  | 0          | 0          | 0          |   0.0 |  0.00
Modify  | 0          | 0          | 0          |   0.0 |  0.00
Other   |            | 0.005809   |            |       |  0.82

Nlocal:    63.125 ave 265 max 0 min
Histogram: 8 2 0 2 2 0 0 0 0 2
Nghost:    175.375 ave 494 max 0 min
Histogram: 8 0 0 0 1 0 4 2 0 1
Neighs:    3824.25 ave 21125 max 0 min
Histogram: 10 0 3 1 0 1 0 0 0 1

Total # of neighbors = 61188
Ave neighs/atom = 60.5822
Ave special neighs/atom = 12.1168
Neighbor list builds = 1
Dangerous builds = 0
timestep        1
fix             pysimm_md all nvt temp 100 100 100
run             5000
PPPM initialization ...
  using 12-bit tables for long-range coulomb (../kspace.cpp:332)
  G vector (1/distance) = 0.0997507
  grid = 27 27 27
  stencil order = 5
  estimated absolute RMS force accuracy = 0.0322183
  estimated relative force accuracy = 9.70244e-05
  using double precision KISS FFT
  3d grid and FFT values/proc = 4332 1458
Per MPI rank memory allocation (min/avg/max) = 18.97 | 19.27 | 19.82 Mbytes
Step Temp E_pair E_mol TotEng Press 
      47    1846.4963    287.39239    1228.9876    7069.9712      10.8016 
    5047    96.775609    207.79965    1012.8688    1511.7343  -0.46498334 
Loop time of 6.35766 on 16 procs for 5000 steps with 1010 atoms

Performance: 67.950 ns/day, 0.353 hours/ns, 786.453 timesteps/s
96.0% CPU use with 16 MPI tasks x no OpenMP threads

MPI task timing breakdown:
Section |  min time  |  avg time  |  max time  |%varavg| %total
---------------------------------------------------------------
Pair    | 0.00047088 | 0.42945    | 2.3639     |  95.6 |  6.75
Bond    | 0.00091052 | 0.14332    | 0.59197    |  50.0 |  2.25
Kspace  | 3.199      | 5.2611     | 5.7486     |  29.6 | 82.75
Neigh   | 0.061174   | 0.062474   | 0.064225   |   0.4 |  0.98
Comm    | 0.0042086  | 0.15425    | 0.48318    |  45.6 |  2.43
Output  | 2.5034e-05 | 2.6017e-05 | 3.5048e-05 |   0.0 |  0.00
Modify  | 0.034232   | 0.28707    | 0.53357    |  44.9 |  4.52
Other   |            | 0.01993    |            |       |  0.31

Nlocal:    63.125 ave 265 max 0 min
Histogram: 8 1 1 2 2 0 0 0 1 1
Nghost:    167.25 ave 458 max 0 min
Histogram: 8 0 0 0 0 1 2 3 1 1
Neighs:    3630.38 ave 21711 max 0 min
Histogram: 8 2 4 0 1 0 0 0 0 1

Total # of neighbors = 58086
Ave neighs/atom = 57.5109
Ave special neighs/atom = 12.1168
Neighbor list builds = 79
Dangerous builds = 0
unfix pysimm_md
write_dump all custom pysimm.dump.tmp id q x y z vx vy vz
quit


################################################################################
##################################    Init    ##################################
################################################################################
units           real
atom_style      full
pair_style      lj/cut/coul/long 12.0  12.0
kspace_style    pppm 1e-4
bond_style      harmonic
angle_style     harmonic
dihedral_style  fourier
improper_style  cvff
special_bonds   amber
pair_modify     mix arithmetic
read_data       temp.lmps
  orthogonal box = (-150.987 -150.987 -150.987) to (150.987 150.987 150.987)
  2 by 2 by 4 MPI processor grid
  reading atoms ...
  1067 atoms
  reading velocities ...
  1067 velocities
  scanning bonds ...
  3 = max bonds/atom
  scanning angles ...
  6 = max angles/atom
  scanning dihedrals ...
  27 = max dihedrals/atom
  scanning impropers ...
  2 = max impropers/atom
  reading bonds ...
  1189 bonds
  reading angles ...
  2166 angles
  reading dihedrals ...
  3550 dihedrals
  reading impropers ...
  152 impropers
  4 = max # of 1-2 neighbors
  11 = max # of 1-3 neighbors
  24 = max # of 1-4 neighbors
  24 = max # of special neighbors
  special bonds CPU = 0.00115514 secs
  read_data CPU = 0.0292859 secs
################################################################################

min_style cg
minimize 1e-05 1e-05 10000 100000
WARNING: Using 'neigh_modify every 1 delay 0 check yes' setting during minimization (../min.cpp:190)
PPPM initialization ...
WARNING: System is not charge neutral, net charge = -7.6e-05 (../kspace.cpp:313)
  using 12-bit tables for long-range coulomb (../kspace.cpp:332)
  G vector (1/distance) = 0.0983956
  grid = 27 27 27
  stencil order = 5
  estimated absolute RMS force accuracy = 0.0334228
  estimated relative force accuracy = 0.000100652
  using double precision KISS FFT
  3d grid and FFT values/proc = 4332 1458
Neighbor list info ...
  update every 1 steps, delay 0 steps, check yes
  max neighbors/atom: 2000, page size: 100000
  master list distance cutoff = 14
  ghost atom cutoff = 14
  binsize = 7, bins = 44 44 44
  1 neighbor lists, perpetual/occasional/extra = 1 0 0
  (1) pair lj/cut/coul/long, perpetual
      attributes: half, newton on
      pair build: half/bin/newton
      stencil: half/bin/3d/newton
      bin: standard
Per MPI rank memory allocation (min/avg/max) = 20.1 | 20.37 | 20.95 Mbytes
Step Temp E_pair E_mol TotEng Press 
       0    1892.9438    272.54759    1307.4818    7594.9406    9.5203521 
       4    1892.9438    272.55214    1307.1163    7594.5796    9.5205332 
Loop time of 0.387634 on 16 procs for 4 steps with 1067 atoms

94.4% CPU use with 16 MPI tasks x no OpenMP threads

Minimization stats:
  Stopping criterion = linesearch alpha is zero
  Energy initial, next-to-last, final = 
         1580.02942369      1579.66842453      1579.66842453
  Force two-norm initial, final = 315.952 218.454
  Force max component initial, final = 129.116 73.2358
  Final line search alpha, max atom move = 1.4822e-13 1.0855e-11
  Iterations, force evaluations = 4 98

MPI task timing breakdown:
Section |  min time  |  avg time  |  max time  |%varavg| %total
---------------------------------------------------------------
Pair    | 1.359e-05  | 0.030969   | 0.19535    |  33.0 |  7.99
Bond    | 4.1723e-05 | 0.006528   | 0.042816   |  14.9 |  1.68
Kspace  | 0.14551    | 0.34632    | 0.3843     |  12.0 | 89.34
Neigh   | 0          | 0          | 0          |   0.0 |  0.00
Comm    | 5.1975e-05 | 0.0010487  | 0.0029788  |   3.3 |  0.27
Output  | 0          | 0          | 0          |   0.0 |  0.00
Modify  | 0          | 0          | 0          |   0.0 |  0.00
Other   |            | 0.00277    |            |       |  0.71

Nlocal:    66.6875 ave 451 max 0 min
Histogram: 11 0 3 0 0 0 1 0 0 1
Nghost:    109.125 ave 318 max 0 min
Histogram: 8 1 0 0 1 1 1 1 1 2
Neighs:    4170.12 ave 26784 max 0 min
Histogram: 11 1 1 1 0 0 0 1 0 1

Total # of neighbors = 66722
Ave neighs/atom = 62.5323
Ave special neighs/atom = 12.1087
Neighbor list builds = 0
Dangerous builds = 0
timestep        1
fix             pysimm_md all nvt temp 100 100 100
run             5000
PPPM initialization ...
  using 12-bit tables for long-range coulomb (../kspace.cpp:332)
  G vector (1/distance) = 0.0983956
  grid = 27 27 27
  stencil order = 5
  estimated absolute RMS force accuracy = 0.0334228
  estimated relative force accuracy = 0.000100652
  using double precision KISS FFT
  3d grid and FFT values/proc = 4332 1458
Per MPI rank memory allocation (min/avg/max) = 18.97 | 19.24 | 19.82 Mbytes
Step Temp E_pair E_mol TotEng Press 
       4    1892.9438    272.55214    1307.1163    7594.5796    9.5205332 
    5004    102.06957    207.33475    1098.6143    1630.2795  -0.27729502 
Loop time of 8.21983 on 16 procs for 5000 steps with 1067 atoms

Performance: 52.556 ns/day, 0.457 hours/ns, 608.285 timesteps/s
95.0% CPU use with 16 MPI tasks x no OpenMP threads

MPI task timing breakdown:
Section |  min time  |  avg time  |  max time  |%varavg| %total
---------------------------------------------------------------
Pair    | 0.00046349 | 0.5096     | 3.1971     | 132.7 |  6.20
Bond    | 0.00088477 | 0.15199    | 0.9961     |  71.9 |  1.85
Kspace  | 3.8358     | 6.7184     | 7.2915     |  39.0 | 81.73
Neigh   | 0.059171   | 0.060712   | 0.061833   |   0.3 |  0.74
Comm    | 0.0039325  | 0.24474    | 0.84272    |  59.6 |  2.98
Output  | 2.5034e-05 | 2.636e-05  | 3.3855e-05 |   0.0 |  0.00
Modify  | 0.031456   | 0.50525    | 0.84742    |  48.9 |  6.15
Other   |            | 0.0291     |            |       |  0.35

Nlocal:    66.6875 ave 439 max 0 min
Histogram: 11 0 3 0 0 0 1 0 0 1
Nghost:    116.312 ave 325 max 0 min
Histogram: 8 0 1 0 0 1 2 1 0 3
Neighs:    4222.75 ave 26675 max 0 min
Histogram: 11 1 1 1 0 0 0 1 0 1

Total # of neighbors = 67564
Ave neighs/atom = 63.3215
Ave special neighs/atom = 12.1087
Neighbor list builds = 60
Dangerous builds = 0
unfix pysimm_md
write_dump all custom pysimm.dump.tmp id q x y z vx vy vz
quit


################################################################################
##################################    Init    ##################################
################################################################################
units           real
atom_style      full
pair_style      lj/cut/coul/long 12.0  12.0
kspace_style    pppm 1e-4
bond_style      harmonic
angle_style     harmonic
dihedral_style  fourier
improper_style  cvff
special_bonds   amber
pair_modify     mix arithmetic
read_data       temp.lmps
  orthogonal box = (-153.733 -153.733 -153.733) to (153.733 153.733 153.733)
  2 by 2 by 4 MPI processor grid
  reading atoms ...
  1124 atoms
  reading velocities ...
  1124 velocities
  scanning bonds ...
  3 = max bonds/atom
  scanning angles ...
  6 = max angles/atom
  scanning dihedrals ...
  27 = max dihedrals/atom
  scanning impropers ...
  2 = max impropers/atom
  reading bonds ...
  1252 bonds
  reading angles ...
  2280 angles
  reading dihedrals ...
  3736 dihedrals
  reading impropers ...
  160 impropers
  4 = max # of 1-2 neighbors
  11 = max # of 1-3 neighbors
  24 = max # of 1-4 neighbors
  24 = max # of special neighbors
  special bonds CPU = 0.00128198 secs
  read_data CPU = 0.0307531 secs
################################################################################

min_style cg
minimize 1e-05 1e-05 10000 100000
WARNING: Using 'neigh_modify every 1 delay 0 check yes' setting during minimization (../min.cpp:190)
PPPM initialization ...
WARNING: System is not charge neutral, net charge = -8e-05 (../kspace.cpp:313)
  using 12-bit tables for long-range coulomb (../kspace.cpp:332)
  G vector (1/distance) = 0.0971224
  grid = 27 27 27
  stencil order = 5
  estimated absolute RMS force accuracy = 0.0345816
  estimated relative force accuracy = 0.000104142
  using double precision KISS FFT
  3d grid and FFT values/proc = 4332 1458
Neighbor list info ...
  update every 1 steps, delay 0 steps, check yes
  max neighbors/atom: 2000, page size: 100000
  master list distance cutoff = 14
  ghost atom cutoff = 14
  binsize = 7, bins = 44 44 44
  1 neighbor lists, perpetual/occasional/extra = 1 0 0
  (1) pair lj/cut/coul/long, perpetual
      attributes: half, newton on
      pair build: half/bin/newton
      stencil: half/bin/3d/newton
      bin: standard
Per MPI rank memory allocation (min/avg/max) = 20.1 | 20.32 | 20.94 Mbytes
Step Temp E_pair E_mol TotEng Press 
       0    1617.9311    729.87311    4552.7848    10698.601    2.9103186 
      39    1617.9311    312.12368    1446.3725    7174.4392      8.38978 
Loop time of 0.465868 on 16 procs for 39 steps with 1124 atoms

95.2% CPU use with 16 MPI tasks x no OpenMP threads

Minimization stats:
  Stopping criterion = energy tolerance
  Energy initial, next-to-last, final = 
         5282.65787551      1758.49880259      1758.49616507
  Force two-norm initial, final = 1.53516e+06 452.089
  Force max component initial, final = 915415 150.696
  Final line search alpha, max atom move = 0.000287731 0.04336
  Iterations, force evaluations = 39 111

MPI task timing breakdown:
Section |  min time  |  avg time  |  max time  |%varavg| %total
---------------------------------------------------------------
Pair    | 2.0266e-05 | 0.035423   | 0.23136    |  38.0 |  7.60
Bond    | 5.8413e-05 | 0.0080973  | 0.051497   |  17.5 |  1.74
Kspace  | 0.17628    | 0.41658    | 0.46089    |  13.6 | 89.42
Neigh   | 0          | 0          | 0          |   0.0 |  0.00
Comm    | 4.7207e-05 | 0.0015919  | 0.0038605  |   3.9 |  0.34
Output  | 0          | 0          | 0          |   0.0 |  0.00
Modify  | 0          | 0          | 0          |   0.0 |  0.00
Other   |            | 0.004179   |            |       |  0.90

Nlocal:    70.25 ave 444 max 0 min
Histogram: 12 1 1 0 0 0 0 0 0 2
Nghost:    136.312 ave 453 max 0 min
Histogram: 8 0 1 1 1 1 1 0 2 1
Neighs:    3966.5 ave 24926 max 0 min
Histogram: 12 1 1 0 0 0 0 0 0 2

Total # of neighbors = 63464
Ave neighs/atom = 56.4626
Ave special neighs/atom = 12.1014
Neighbor list builds = 0
Dangerous builds = 0
timestep        1
fix             pysimm_md all nvt temp 100 100 100
run             5000
PPPM initialization ...
  using 12-bit tables for long-range coulomb (../kspace.cpp:332)
  G vector (1/distance) = 0.0971224
  grid = 27 27 27
  stencil order = 5
  estimated absolute RMS force accuracy = 0.0345816
  estimated relative force accuracy = 0.000104142
  using double precision KISS FFT
  3d grid and FFT values/proc = 4332 1458
Per MPI rank memory allocation (min/avg/max) = 18.98 | 19.19 | 19.82 Mbytes
Step Temp E_pair E_mol TotEng Press 
      39    1617.9311    312.12368    1446.3725    7174.4392      8.38978 
    5039    104.35593    220.91551    1138.1983      1708.44  0.065713515 
Loop time of 8.75105 on 16 procs for 5000 steps with 1124 atoms

Performance: 49.366 ns/day, 0.486 hours/ns, 571.360 timesteps/s
95.1% CPU use with 16 MPI tasks x no OpenMP threads

MPI task timing breakdown:
Section |  min time  |  avg time  |  max time  |%varavg| %total
---------------------------------------------------------------
Pair    | 0.00046301 | 0.49977    | 3.3877     | 147.6 |  5.71
Bond    | 0.00099444 | 0.16141    | 1.0729     |  81.3 |  1.84
Kspace  | 3.9921     | 7.0465     | 7.6131     |  42.1 | 80.52
Neigh   | 0.12512    | 0.1269     | 0.12883    |   0.3 |  1.45
Comm    | 0.0061116  | 0.35835    | 0.99484    |  69.6 |  4.09
Output  | 2.408e-05  | 2.5466e-05 | 3.3855e-05 |   0.0 |  0.00
Modify  | 0.032972   | 0.52743    | 0.98499    |  62.5 |  6.03
Other   |            | 0.03061    |            |       |  0.35

Nlocal:    70.25 ave 486 max 0 min
Histogram: 12 1 1 0 0 0 0 0 1 1
Nghost:    134.875 ave 506 max 0 min
Histogram: 8 0 2 1 1 1 2 0 0 1
Neighs:    4061.69 ave 28484 max 0 min
Histogram: 12 1 1 0 0 0 0 0 1 1

Total # of neighbors = 64987
Ave neighs/atom = 57.8176
Ave special neighs/atom = 12.1014
Neighbor list builds = 118
Dangerous builds = 6
unfix pysimm_md
write_dump all custom pysimm.dump.tmp id q x y z vx vy vz
quit


################################################################################
##################################    Init    ##################################
################################################################################
units           real
atom_style      full
pair_style      lj/cut/coul/long 12.0  12.0
kspace_style    pppm 1e-4
bond_style      harmonic
angle_style     harmonic
dihedral_style  fourier
improper_style  cvff
special_bonds   amber
pair_modify     mix arithmetic
read_data       temp.lmps
  orthogonal box = (-156.384 -156.384 -156.384) to (156.384 156.384 156.384)
  2 by 2 by 4 MPI processor grid
  reading atoms ...
  1181 atoms
  reading velocities ...
  1181 velocities
  scanning bonds ...
  3 = max bonds/atom
  scanning angles ...
  6 = max angles/atom
  scanning dihedrals ...
  27 = max dihedrals/atom
  scanning impropers ...
  2 = max impropers/atom
  reading bonds ...
  1315 bonds
  reading angles ...
  2394 angles
  reading dihedrals ...
  3922 dihedrals
  reading impropers ...
  168 impropers
  4 = max # of 1-2 neighbors
  11 = max # of 1-3 neighbors
  24 = max # of 1-4 neighbors
  24 = max # of special neighbors
  special bonds CPU = 0.00120091 secs
  read_data CPU = 0.031743 secs
################################################################################

min_style cg
minimize 1e-05 1e-05 10000 100000
WARNING: Using 'neigh_modify every 1 delay 0 check yes' setting during minimization (../min.cpp:190)
PPPM initialization ...
WARNING: System is not charge neutral, net charge = -8.4e-05 (../kspace.cpp:313)
  using 12-bit tables for long-range coulomb (../kspace.cpp:332)
  G vector (1/distance) = 0.0959225
  grid = 27 27 27
  stencil order = 5
  estimated absolute RMS force accuracy = 0.0356977
  estimated relative force accuracy = 0.000107503
  using double precision KISS FFT
  3d grid and FFT values/proc = 4332 1458
Neighbor list info ...
  update every 1 steps, delay 0 steps, check yes
  max neighbors/atom: 2000, page size: 100000
  master list distance cutoff = 14
  ghost atom cutoff = 14
  binsize = 7, bins = 45 45 45
  1 neighbor lists, perpetual/occasional/extra = 1 0 0
  (1) pair lj/cut/coul/long, perpetual
      attributes: half, newton on
      pair build: half/bin/newton
      stencil: half/bin/3d/newton
      bin: standard
Per MPI rank memory allocation (min/avg/max) = 20.1 | 20.3 | 20.94 Mbytes
Step Temp E_pair E_mol TotEng Press 
       0    1705.1965    518.12661    5167.8389    11683.749    1.1891557 
      65    1705.1965    330.18869     1626.139    7954.1108    9.6965903 
Loop time of 1.63924 on 16 procs for 65 steps with 1181 atoms

94.5% CPU use with 16 MPI tasks x no OpenMP threads

Minimization stats:
  Stopping criterion = linesearch alpha is zero
  Energy initial, next-to-last, final = 
         5685.96550177       1956.3277188       1956.3277188
  Force two-norm initial, final = 875592 253.804
  Force max component initial, final = 334453 86.9463
  Final line search alpha, max atom move = 1.18407e-13 1.02951e-11
  Iterations, force evaluations = 65 449

MPI task timing breakdown:
Section |  min time  |  avg time  |  max time  |%varavg| %total
---------------------------------------------------------------
Pair    | 6.0797e-05 | 0.10858    | 0.92444    |  74.6 |  6.62
Bond    | 0.00014782 | 0.023472   | 0.16735    |  32.1 |  1.43
Kspace  | 0.52653    | 1.4886     | 1.6229     |  24.2 | 90.81
Neigh   | 0.0029399  | 0.0029718  | 0.0030148  |   0.0 |  0.18
Comm    | 0.00030637 | 0.0045944  | 0.010629   |   6.4 |  0.28
Output  | 0          | 0          | 0          |   0.0 |  0.00
Modify  | 0          | 0          | 0          |   0.0 |  0.00
Other   |            | 0.01098    |            |       |  0.67

Nlocal:    73.8125 ave 541 max 0 min
Histogram: 13 0 1 0 0 0 0 1 0 1
Nghost:    143.812 ave 373 max 0 min
Histogram: 8 0 0 1 0 0 1 1 4 1
Neighs:    4613.81 ave 40454 max 0 min
Histogram: 13 0 1 0 0 1 0 0 0 1

Total # of neighbors = 73821
Ave neighs/atom = 62.5072
Ave special neighs/atom = 12.0948
Neighbor list builds = 1
Dangerous builds = 0
timestep        1
fix             pysimm_md all nvt temp 100 100 100
run             5000
PPPM initialization ...
  using 12-bit tables for long-range coulomb (../kspace.cpp:332)
  G vector (1/distance) = 0.0959225
  grid = 27 27 27
  stencil order = 5
  estimated absolute RMS force accuracy = 0.0356977
  estimated relative force accuracy = 0.000107503
  using double precision KISS FFT
  3d grid and FFT values/proc = 4332 1458
Per MPI rank memory allocation (min/avg/max) = 18.98 | 19.18 | 19.82 Mbytes
Step Temp E_pair E_mol TotEng Press 
      65    1705.1965    330.18869     1626.139    7954.1108    9.6965903 
    5065    112.03764    192.37595    1148.3054    1734.7576  0.075136666 
Loop time of 10.258 on 16 procs for 5000 steps with 1181 atoms

Performance: 42.113 ns/day, 0.570 hours/ns, 487.424 timesteps/s
94.5% CPU use with 16 MPI tasks x no OpenMP threads

MPI task timing breakdown:
Section |  min time  |  avg time  |  max time  |%varavg| %total
---------------------------------------------------------------
Pair    | 0.00048971 | 0.54512    | 4.8349     | 170.3 |  5.31
Bond    | 0.00087929 | 0.16072    | 1.1342     |  83.2 |  1.57
Kspace  | 4.0162     | 8.4695     | 9.0734     |  45.2 | 82.56
Neigh   | 0.11662    | 0.11795    | 0.11948    |   0.3 |  1.15
Comm    | 0.005935   | 0.35487    | 1.0336     |  71.2 |  3.46
Output  | 2.5988e-05 | 2.709e-05  | 3.6001e-05 |   0.0 |  0.00
Modify  | 0.035626   | 0.57892    | 1.0602     |  62.9 |  5.64
Other   |            | 0.03089    |            |       |  0.30

Nlocal:    73.8125 ave 523 max 0 min
Histogram: 12 1 1 0 0 0 0 1 0 1
Nghost:    139.25 ave 339 max 0 min
Histogram: 8 0 0 0 1 0 0 2 3 2
Neighs:    4889.94 ave 45761 max 0 min
Histogram: 13 1 0 0 1 0 0 0 0 1

Total # of neighbors = 78239
Ave neighs/atom = 66.2481
Ave special neighs/atom = 12.0948
Neighbor list builds = 82
Dangerous builds = 4
unfix pysimm_md
write_dump all custom pysimm.dump.tmp id q x y z vx vy vz
quit


################################################################################
##################################    Init    ##################################
################################################################################
units           real
atom_style      full
pair_style      lj/cut/coul/long 12.0  12.0
kspace_style    pppm 1e-4
bond_style      harmonic
angle_style     harmonic
dihedral_style  fourier
improper_style  cvff
special_bonds   amber
pair_modify     mix arithmetic
read_data       temp.lmps
  orthogonal box = (-158.948 -158.948 -158.948) to (158.948 158.948 158.948)
  2 by 2 by 4 MPI processor grid
  reading atoms ...
  1238 atoms
  reading velocities ...
  1238 velocities
  scanning bonds ...
  3 = max bonds/atom
  scanning angles ...
  6 = max angles/atom
  scanning dihedrals ...
  27 = max dihedrals/atom
  scanning impropers ...
  2 = max impropers/atom
  reading bonds ...
  1378 bonds
  reading angles ...
  2508 angles
  reading dihedrals ...
  4108 dihedrals
  reading impropers ...
  176 impropers
  4 = max # of 1-2 neighbors
  11 = max # of 1-3 neighbors
  24 = max # of 1-4 neighbors
  24 = max # of special neighbors
  special bonds CPU = 0.00111508 secs
  read_data CPU = 0.030905 secs
################################################################################

min_style cg
minimize 1e-05 1e-05 10000 100000
WARNING: Using 'neigh_modify every 1 delay 0 check yes' setting during minimization (../min.cpp:190)
PPPM initialization ...
WARNING: System is not charge neutral, net charge = -8.8e-05 (../kspace.cpp:313)
  using 12-bit tables for long-range coulomb (../kspace.cpp:332)
  G vector (1/distance) = 0.102259
  grid = 30 30 30
  stencil order = 5
  estimated absolute RMS force accuracy = 0.0297498
  estimated relative force accuracy = 8.95906e-05
  using double precision KISS FFT
  3d grid and FFT values/proc = 5200 1800
Neighbor list info ...
  update every 1 steps, delay 0 steps, check yes
  max neighbors/atom: 2000, page size: 100000
  master list distance cutoff = 14
  ghost atom cutoff = 14
  binsize = 7, bins = 46 46 46
  1 neighbor lists, perpetual/occasional/extra = 1 0 0
  (1) pair lj/cut/coul/long, perpetual
      attributes: half, newton on
      pair build: half/bin/newton
      stencil: half/bin/3d/newton
      bin: standard
Per MPI rank memory allocation (min/avg/max) = 20.2 | 20.42 | 21.03 Mbytes
Step Temp E_pair E_mol TotEng Press 
       0    1595.6935     481.6091    5486.3239    11851.673  -0.83294165 
      46    1595.6935    344.50479    1580.3125    7808.5575    9.2383414 
Loop time of 0.710359 on 16 procs for 46 steps with 1238 atoms

92.6% CPU use with 16 MPI tasks x no OpenMP threads

Minimization stats:
  Stopping criterion = energy tolerance
  Energy initial, next-to-last, final = 
         5967.93296263      1924.82178889      1924.81729501
  Force two-norm initial, final = 3.23618e+06 3133.9
  Force max component initial, final = 2.1309e+06 2104.98
  Final line search alpha, max atom move = 3.47376e-07 0.000731217
  Iterations, force evaluations = 46 158

MPI task timing breakdown:
Section |  min time  |  avg time  |  max time  |%varavg| %total
---------------------------------------------------------------
Pair    | 2.3127e-05 | 0.054625   | 0.36335    |  47.3 |  7.69
Bond    | 5.0068e-05 | 0.011946   | 0.073574   |  21.1 |  1.68
Kspace  | 0.27107    | 0.63408    | 0.70151    |  16.8 | 89.26
Neigh   | 0.0022581  | 0.0023134  | 0.0023441  |   0.1 |  0.33
Comm    | 0.00012088 | 0.0020062  | 0.0046942  |   4.2 |  0.28
Output  | 0          | 0          | 0          |   0.0 |  0.00
Modify  | 0          | 0          | 0          |   0.0 |  0.00
Other   |            | 0.005383   |            |       |  0.76

Nlocal:    77.375 ave 475 max 0 min
Histogram: 12 0 1 1 0 0 0 0 0 2
Nghost:    134.562 ave 363 max 0 min
Histogram: 8 0 0 0 0 2 1 2 1 2
Neighs:    4559.56 ave 30580 max 0 min
Histogram: 12 0 2 0 0 0 0 0 1 1

Total # of neighbors = 72953
Ave neighs/atom = 58.9281
Ave special neighs/atom = 12.0889
Neighbor list builds = 1
Dangerous builds = 0
timestep        1
fix             pysimm_md all nvt temp 100 100 100
run             5000
PPPM initialization ...
  using 12-bit tables for long-range coulomb (../kspace.cpp:332)
  G vector (1/distance) = 0.102259
  grid = 30 30 30
  stencil order = 5
  estimated absolute RMS force accuracy = 0.0297498
  estimated relative force accuracy = 8.95906e-05
  using double precision KISS FFT
  3d grid and FFT values/proc = 5200 1800
Per MPI rank memory allocation (min/avg/max) = 19.07 | 19.3 | 19.9 Mbytes
Step Temp E_pair E_mol TotEng Press 
      46    1595.6935    344.50479    1580.3125    7808.5575    9.2383414 
    5046    104.44836    217.68069    1246.4555    1849.2647  -0.16509602 
Loop time of 9.74995 on 16 procs for 5000 steps with 1238 atoms

Performance: 44.308 ns/day, 0.542 hours/ns, 512.823 timesteps/s
93.4% CPU use with 16 MPI tasks x no OpenMP threads

MPI task timing breakdown:
Section |  min time  |  avg time  |  max time  |%varavg| %total
---------------------------------------------------------------
Pair    | 0.00042725 | 0.5607     | 3.9666     | 155.2 |  5.75
Bond    | 0.0008328  | 0.17153    | 1.0491     |  83.6 |  1.76
Kspace  | 4.4757     | 8.0558     | 8.684      |  43.4 | 82.62
Neigh   | 0.08507    | 0.08702    | 0.088433   |   0.3 |  0.89
Comm    | 0.0046048  | 0.32069    | 0.96652    |  69.5 |  3.29
Output  | 2.4796e-05 | 2.6777e-05 | 3.5048e-05 |   0.0 |  0.00
Modify  | 0.032508   | 0.52078    | 0.98721    |  61.6 |  5.34
Other   |            | 0.03342    |            |       |  0.34

Nlocal:    77.375 ave 484 max 0 min
Histogram: 12 1 0 1 0 0 0 0 0 2
Nghost:    139.25 ave 398 max 0 min
Histogram: 8 0 0 1 1 0 0 4 1 1
Neighs:    4716.12 ave 35426 max 0 min
Histogram: 12 2 0 0 0 0 0 1 0 1

Total # of neighbors = 75458
Ave neighs/atom = 60.9515
Ave special neighs/atom = 12.0889
Neighbor list builds = 74
Dangerous builds = 1
unfix pysimm_md
write_dump all custom pysimm.dump.tmp id q x y z vx vy vz
quit


################################################################################
##################################    Init    ##################################
################################################################################
units           real
atom_style      full
pair_style      lj/cut/coul/long 12.0  12.0
kspace_style    pppm 1e-4
bond_style      harmonic
angle_style     harmonic
dihedral_style  fourier
improper_style  cvff
special_bonds   amber
pair_modify     mix arithmetic
read_data       temp.lmps
  orthogonal box = (-161.432 -161.432 -161.432) to (161.432 161.432 161.432)
  2 by 2 by 4 MPI processor grid
  reading atoms ...
  1295 atoms
  reading velocities ...
  1295 velocities
  scanning bonds ...
  3 = max bonds/atom
  scanning angles ...
  6 = max angles/atom
  scanning dihedrals ...
  27 = max dihedrals/atom
  scanning impropers ...
  2 = max impropers/atom
  reading bonds ...
  1441 bonds
  reading angles ...
  2622 angles
  reading dihedrals ...
  4294 dihedrals
  reading impropers ...
  184 impropers
  4 = max # of 1-2 neighbors
  11 = max # of 1-3 neighbors
  24 = max # of 1-4 neighbors
  24 = max # of special neighbors
  special bonds CPU = 0.0023191 secs
  read_data CPU = 0.034333 secs
################################################################################

min_style cg
minimize 1e-05 1e-05 10000 100000
WARNING: Using 'neigh_modify every 1 delay 0 check yes' setting during minimization (../min.cpp:190)
PPPM initialization ...
[...]
  using 12-bit tables for long-range coulomb (../kspace.cpp:332)
  G vector (1/distance) = 0.0966266
  grid = 36 36 36
  stencil order = 5
  estimated absolute RMS force accuracy = 0.0348659
  estimated relative force accuracy = 0.000104998
  using double precision KISS FFT
  3d grid and FFT values/proc = 7406 3888
Per MPI rank memory allocation (min/avg/max) = 19.32 | 19.58 | 20.15 Mbytes
Step Temp E_pair E_mol TotEng Press 
      36    1424.2621    768.62109    3063.6046    14836.444    8.1336625 
    5036    119.48328    568.97912    2657.3181    4149.4561  0.067279584 
Loop time of 13.3326 on 16 procs for 5000 steps with 2593 atoms

Performance: 32.402 ns/day, 0.741 hours/ns, 375.020 timesteps/s
95.8% CPU use with 16 MPI tasks x no OpenMP threads

MPI task timing breakdown:
Section |  min time  |  avg time  |  max time  |%varavg| %total
---------------------------------------------------------------
Pair    | 0.0004437  | 1.0869     | 4.874      | 161.9 |  8.15
Bond    | 0.00090981 | 0.35639    | 1.4451     |  90.5 |  2.67
Kspace  | 6.7113     | 10.668     | 11.88      |  55.4 | 80.01
Neigh   | 0.12558    | 0.12748    | 0.12937    |   0.3 |  0.96
Comm    | 0.0059497  | 0.34799    | 1.2087     |  78.4 |  2.61
Output  | 2.5988e-05 | 2.7463e-05 | 3.7909e-05 |   0.0 |  0.00
Modify  | 0.053632   | 0.70738    | 1.3259     |  70.5 |  5.31
Other   |            | 0.03864    |            |       |  0.29

Nlocal:    162.062 ave 649 max 0 min
Histogram: 11 0 0 1 0 1 0 0 0 3
Nghost:    152.438 ave 593 max 0 min
Histogram: 8 0 2 2 0 1 2 0 0 1
Neighs:    9043.62 ave 40079 max 0 min
Histogram: 11 0 1 0 1 0 0 1 0 2

Total # of neighbors = 144698
Ave neighs/atom = 55.8033
Ave special neighs/atom = 12.2931
Neighbor list builds = 88
Dangerous builds = 5
unfix pysimm_md
write_dump all custom pysimm.dump.tmp id q x y z vx vy vz
quit


################################################################################
##################################    Init    ##################################
################################################################################
units           real
atom_style      full
pair_style      lj/cut/coul/long 12.0  12.0
kspace_style    pppm 1e-4
bond_style      harmonic
angle_style     harmonic
dihedral_style  fourier
improper_style  cvff
special_bonds   amber
pair_modify     mix arithmetic
read_data       temp.lmps
  orthogonal box = (-207.913 -207.913 -207.913) to (207.913 207.913 207.913)
  2 by 2 by 4 MPI processor grid
  reading atoms ...
  2650 atoms
  reading velocities ...
  2650 velocities
  scanning bonds ...
  3 = max bonds/atom
  scanning angles ...
  6 = max angles/atom
  scanning dihedrals ...
  27 = max dihedrals/atom
  scanning impropers ...
  2 = max impropers/atom
  reading bonds ...
  2981 bonds
  reading angles ...
  5472 angles
  reading dihedrals ...
  9014 dihedrals
  reading impropers ...
  384 impropers
  4 = max # of 1-2 neighbors
  11 = max # of 1-3 neighbors
  24 = max # of 1-4 neighbors
  24 = max # of special neighbors
  special bonds CPU = 0.000861883 secs
  read_data CPU = 0.0330269 secs
################################################################################

min_style cg
minimize 1e-05 1e-05 10000 100000
WARNING: Using 'neigh_modify every 1 delay 0 check yes' setting during minimization (../min.cpp:190)
PPPM initialization ...
WARNING: System is not charge neutral, net charge = -0.000192 (../kspace.cpp:313)
  using 12-bit tables for long-range coulomb (../kspace.cpp:332)
  G vector (1/distance) = 0.0961239
  grid = 36 36 36
  stencil order = 5
  estimated absolute RMS force accuracy = 0.0353356
  estimated relative force accuracy = 0.000106412
  using double precision KISS FFT
  3d grid and FFT values/proc = 7406 3888
Neighbor list info ...
  update every 1 steps, delay 0 steps, check yes
  max neighbors/atom: 2000, page size: 100000
  master list distance cutoff = 14
  ghost atom cutoff = 14
  binsize = 7, bins = 60 60 60
  1 neighbor lists, perpetual/occasional/extra = 1 0 0
  (1) pair lj/cut/coul/long, perpetual
      attributes: half, newton on
      pair build: half/bin/newton
      stencil: half/bin/3d/newton
      bin: standard
Per MPI rank memory allocation (min/avg/max) = 20.45 | 20.72 | 21.29 Mbytes
Step Temp E_pair E_mol TotEng Press 
       0    1368.1108    781.66774    4460.2767    16044.774    6.1221238 
      20    1368.1108    763.34643    3114.0472    14680.223    7.5807065 
Loop time of 0.535576 on 16 procs for 20 steps with 2650 atoms

95.4% CPU use with 16 MPI tasks x no OpenMP threads

Minimization stats:
  Stopping criterion = linesearch alpha is zero
  Energy initial, next-to-last, final = 
         5241.94440365      3877.39359388      3877.39359388
  Force two-norm initial, final = 159416 989.655
  Force max component initial, final = 90750.4 154.339
  Final line search alpha, max atom move = 2.68831e-14 4.14912e-12
  Iterations, force evaluations = 20 147

MPI task timing breakdown:
Section |  min time  |  avg time  |  max time  |%varavg| %total
---------------------------------------------------------------
Pair    | 1.6451e-05 | 0.059153   | 0.26666    |  34.9 | 11.04
Bond    | 3.6955e-05 | 0.013006   | 0.051592   |  15.9 |  2.43
Kspace  | 0.21131    | 0.45821    | 0.53118    |  15.3 | 85.55
Neigh   | 0          | 0          | 0          |   0.0 |  0.00
Comm    | 4.8399e-05 | 0.0016607  | 0.003767   |   4.0 |  0.31
Output  | 0          | 0          | 0          |   0.0 |  0.00
Modify  | 0          | 0          | 0          |   0.0 |  0.00
Other   |            | 0.003545   |            |       |  0.66

Nlocal:    165.625 ave 668 max 0 min
Histogram: 9 1 1 1 0 0 1 1 0 2
Nghost:    216.5 ave 587 max 0 min
Histogram: 8 0 0 0 2 0 1 1 2 2
Neighs:    9880.5 ave 45066 max 0 min
Histogram: 10 0 2 0 0 1 0 2 0 1

Total # of neighbors = 158088
Ave neighs/atom = 59.6558
Ave special neighs/atom = 12.286
Neighbor list builds = 0
Dangerous builds = 0
timestep        1
fix             pysimm_md all nvt temp 100 100 100
run             5000
PPPM initialization ...
  using 12-bit tables for long-range coulomb (../kspace.cpp:332)
  G vector (1/distance) = 0.0961239
  grid = 36 36 36
  stencil order = 5
  estimated absolute RMS force accuracy = 0.0353356
  estimated relative force accuracy = 0.000106412
  using double precision KISS FFT
  3d grid and FFT values/proc = 7406 3888
Per MPI rank memory allocation (min/avg/max) = 19.33 | 19.6 | 20.16 Mbytes
Step Temp E_pair E_mol TotEng Press 
      20    1368.1108    763.34643    3114.0472    14680.223    7.5807065 
    5020    93.139449    544.71582    2561.3769    3841.5372  -0.11248336 
Loop time of 13.0648 on 16 procs for 5000 steps with 2650 atoms

Performance: 33.066 ns/day, 0.726 hours/ns, 382.709 timesteps/s
95.8% CPU use with 16 MPI tasks x no OpenMP threads

MPI task timing breakdown:
Section |  min time  |  avg time  |  max time  |%varavg| %total
---------------------------------------------------------------
Pair    | 0.0004642  | 1.1262     | 4.7734     | 147.3 |  8.62
Bond    | 0.00093436 | 0.36535    | 1.3935     |  82.7 |  2.80
Kspace  | 6.5737     | 10.422     | 11.677     |  52.0 | 79.77
Neigh   | 0.10911    | 0.11085    | 0.11222    |   0.3 |  0.85
Comm    | 0.00653    | 0.34266    | 1.2275     |  74.6 |  2.62
Output  | 2.6941e-05 | 2.8387e-05 | 3.7193e-05 |   0.0 |  0.00
Modify  | 0.057234   | 0.65988    | 1.2657     |  72.4 |  5.05
Other   |            | 0.03775    |            |       |  0.29

Nlocal:    165.625 ave 676 max 0 min
Histogram: 9 1 1 1 0 0 2 0 0 2
Nghost:    221.625 ave 596 max 0 min
Histogram: 8 0 0 0 2 0 1 1 2 2
Neighs:    9252.69 ave 41121 max 0 min
Histogram: 10 0 2 0 0 1 1 1 0 1

Total # of neighbors = 148043
Ave neighs/atom = 55.8653
Ave special neighs/atom = 12.286
Neighbor list builds = 81
Dangerous builds = 0
unfix pysimm_md
write_dump all custom pysimm.dump.tmp id q x y z vx vy vz
quit


################################################################################
##################################    Init    ##################################
################################################################################
units           real
atom_style      full
pair_style      lj/cut/coul/long 12.0  12.0
kspace_style    pppm 1e-4
bond_style      harmonic
angle_style     harmonic
dihedral_style  fourier
improper_style  cvff
special_bonds   amber
pair_modify     mix arithmetic
read_data       temp.lmps
  orthogonal box = (-209.377 -209.377 -209.377) to (209.377 209.377 209.377)
  2 by 2 by 4 MPI processor grid
  reading atoms ...
  2707 atoms
  reading velocities ...
  2707 velocities
  scanning bonds ...
  3 = max bonds/atom
  scanning angles ...
  6 = max angles/atom
  scanning dihedrals ...
  27 = max dihedrals/atom
  scanning impropers ...
  2 = max impropers/atom
  reading bonds ...
  3044 bonds
  reading angles ...
  5586 angles
  reading dihedrals ...
  9200 dihedrals
  reading impropers ...
  392 impropers
  4 = max # of 1-2 neighbors
  11 = max # of 1-3 neighbors
  24 = max # of 1-4 neighbors
  24 = max # of special neighbors
  special bonds CPU = 0.000848055 secs
  read_data CPU = 0.030946 secs
################################################################################

min_style cg
minimize 1e-05 1e-05 10000 100000
WARNING: Using 'neigh_modify every 1 delay 0 check yes' setting during minimization (../min.cpp:190)
PPPM initialization ...
WARNING: System is not charge neutral, net charge = -0.000196 (../kspace.cpp:313)
  using 12-bit tables for long-range coulomb (../kspace.cpp:332)
  G vector (1/distance) = 0.0956331
  grid = 36 36 36
  stencil order = 5
  estimated absolute RMS force accuracy = 0.035798
  estimated relative force accuracy = 0.000107805
  using double precision KISS FFT
  3d grid and FFT values/proc = 7406 3888
Neighbor list info ...
  update every 1 steps, delay 0 steps, check yes
  max neighbors/atom: 2000, page size: 100000
  master list distance cutoff = 14
  ghost atom cutoff = 14
  binsize = 7, bins = 60 60 60
  1 neighbor lists, perpetual/occasional/extra = 1 0 0
  (1) pair lj/cut/coul/long, perpetual
      attributes: half, newton on
      pair build: half/bin/newton
      stencil: half/bin/3d/newton
      bin: standard
Per MPI rank memory allocation (min/avg/max) = 20.45 | 20.74 | 21.29 Mbytes
Step Temp E_pair E_mol TotEng Press 
       0    1327.6771    793.27514    4937.3992    16439.814    4.6931983 
      60    1327.6771    756.67758    2974.4771    14440.294    6.5748424 
Loop time of 1.7141 on 16 procs for 60 steps with 2707 atoms

94.8% CPU use with 16 MPI tasks x no OpenMP threads

Minimization stats:
  Stopping criterion = linesearch alpha is zero
  Energy initial, next-to-last, final = 
         5730.67431226      3731.15468649      3731.15468649
  Force two-norm initial, final = 271867 387.27
  Force max component initial, final = 128056 112.623
  Final line search alpha, max atom move = 5.93477e-14 6.68392e-12
  Iterations, force evaluations = 60 454

MPI task timing breakdown:
Section |  min time  |  avg time  |  max time  |%varavg| %total
---------------------------------------------------------------
Pair    | 5.6982e-05 | 0.17364    | 0.87152    |  65.3 | 10.13
Bond    | 0.00012445 | 0.03825    | 0.17389    |  29.7 |  2.23
Kspace  | 0.65371    | 1.4877     | 1.7016     |  27.1 | 86.79
Neigh   | 0          | 0          | 0          |   0.0 |  0.00
Comm    | 0.00014138 | 0.0039649  | 0.0090141  |   6.2 |  0.23
Output  | 0          | 0          | 0          |   0.0 |  0.00
Modify  | 0          | 0          | 0          |   0.0 |  0.00
Other   |            | 0.01055    |            |       |  0.62

Nlocal:    169.188 ave 789 max 0 min
Histogram: 11 0 0 1 0 2 0 0 1 1
Nghost:    208.312 ave 665 max 0 min
Histogram: 8 1 0 1 1 0 2 0 2 1
Neighs:    9956.31 ave 50723 max 0 min
Histogram: 11 0 1 0 1 0 2 0 0 1

Total # of neighbors = 159301
Ave neighs/atom = 58.8478
Ave special neighs/atom = 12.2793
Neighbor list builds = 0
Dangerous builds = 0
timestep        1
fix             pysimm_md all nvt temp 100 100 100
run             5000
PPPM initialization ...
  using 12-bit tables for long-range coulomb (../kspace.cpp:332)
  G vector (1/distance) = 0.0956331
  grid = 36 36 36
  stencil order = 5
  estimated absolute RMS force accuracy = 0.035798
  estimated relative force accuracy = 0.000107805
  using double precision KISS FFT
  3d grid and FFT values/proc = 7406 3888
Per MPI rank memory allocation (min/avg/max) = 19.33 | 19.62 | 20.16 Mbytes
Step Temp E_pair E_mol TotEng Press 
      60    1327.6771    756.67758    2974.4771    14440.294    6.5748424 
    5060    340.22378    587.71297    3737.3398    7069.3223   0.33036598 
Loop time of 15.0823 on 16 procs for 5000 steps with 2707 atoms

Performance: 28.643 ns/day, 0.838 hours/ns, 331.514 timesteps/s
93.6% CPU use with 16 MPI tasks x no OpenMP threads

MPI task timing breakdown:
Section |  min time  |  avg time  |  max time  |%varavg| %total
---------------------------------------------------------------
Pair    | 0.00046587 | 1.1655     | 5.8864     | 171.2 |  7.73
Bond    | 0.00085878 | 0.37003    | 1.6853     |  93.4 |  2.45
Kspace  | 7.0116     | 11.951     | 13.245     |  57.0 | 79.24
Neigh   | 0.31465    | 0.31886    | 0.32224    |   0.4 |  2.11
Comm    | 0.011503   | 0.30313    | 1.2518     |  78.5 |  2.01
Output  | 2.8133e-05 | 2.9638e-05 | 3.8862e-05 |   0.0 |  0.00
Modify  | 0.075846   | 0.93633    | 1.5292     |  65.0 |  6.21
Other   |            | 0.03735    |            |       |  0.25

Nlocal:    169.188 ave 807 max 0 min
Histogram: 11 0 0 1 0 2 0 0 1 1
Nghost:    207.188 ave 667 max 0 min
Histogram: 8 1 0 1 1 0 2 0 2 1
Neighs:    9524.19 ave 48848 max 0 min
Histogram: 11 0 1 0 1 0 1 1 0 1

Total # of neighbors = 152387
Ave neighs/atom = 56.2937
Ave special neighs/atom = 12.2793
Neighbor list builds = 196
Dangerous builds = 43
unfix pysimm_md
write_dump all custom pysimm.dump.tmp id q x y z vx vy vz
quit


################################################################################
##################################    Init    ##################################
################################################################################
units           real
atom_style      full
pair_style      lj/cut/coul/long 12.0  12.0
kspace_style    pppm 1e-4
bond_style      harmonic
angle_style     harmonic
dihedral_style  fourier
improper_style  cvff
special_bonds   amber
pair_modify     mix arithmetic
read_data       temp.lmps
  orthogonal box = (-210.821 -210.821 -210.821) to (210.821 210.821 210.821)
  2 by 2 by 4 MPI processor grid
  reading atoms ...
  2764 atoms
  reading velocities ...
  2764 velocities
  scanning bonds ...
  3 = max bonds/atom
  scanning angles ...
  6 = max angles/atom
  scanning dihedrals ...
  27 = max dihedrals/atom
  scanning impropers ...
  2 = max impropers/atom
  reading bonds ...
  3107 bonds
  reading angles ...
  5700 angles
  reading dihedrals ...
  9386 dihedrals
  reading impropers ...
  400 impropers
  4 = max # of 1-2 neighbors
  11 = max # of 1-3 neighbors
  24 = max # of 1-4 neighbors
  24 = max # of special neighbors
  special bonds CPU = 0.000907898 secs
  read_data CPU = 0.0331459 secs
################################################################################

min_style cg
minimize 1e-05 1e-05 10000 100000
WARNING: Using 'neigh_modify every 1 delay 0 check yes' setting during minimization (../min.cpp:190)
PPPM initialization ...
WARNING: System is not charge neutral, net charge = -0.0002 (../kspace.cpp:313)
  using 12-bit tables for long-range coulomb (../kspace.cpp:332)
  G vector (1/distance) = 0.0951565
  grid = 36 36 36
  stencil order = 5
  estimated absolute RMS force accuracy = 0.0362568
  estimated relative force accuracy = 0.000109186
  using double precision KISS FFT
  3d grid and FFT values/proc = 7406 3888
Neighbor list info ...
  update every 1 steps, delay 0 steps, check yes
  max neighbors/atom: 2000, page size: 100000
  master list distance cutoff = 14
  ghost atom cutoff = 14
  binsize = 7, bins = 61 61 61
  1 neighbor lists, perpetual/occasional/extra = 1 0 0
  (1) pair lj/cut/coul/long, perpetual
      attributes: half, newton on
      pair build: half/bin/newton
      stencil: half/bin/3d/newton
      bin: standard
Per MPI rank memory allocation (min/avg/max) = 20.45 | 20.69 | 21.28 Mbytes
Step Temp E_pair E_mol TotEng Press 
       0    1464.1128    722.10381    2889.2749     15669.78    7.9409864 
       1    1464.1128    722.10371    2889.2715    15669.776     7.940988 
Loop time of 0.0668125 on 16 procs for 1 steps with 2764 atoms

95.1% CPU use with 16 MPI tasks x no OpenMP threads

Minimization stats:
  Stopping criterion = energy tolerance
  Energy initial, next-to-last, final = 
         3611.37874261      3611.37874261      3611.37524101
  Force two-norm initial, final = 307.542 257.933
  Force max component initial, final = 142.286 117.143
  Final line search alpha, max atom move = 1.37267e-06 0.0001608
  Iterations, force evaluations = 1 16

MPI task timing breakdown:
Section |  min time  |  avg time  |  max time  |%varavg| %total
---------------------------------------------------------------
Pair    | 9.5367e-07 | 0.0072918  | 0.033394   |  13.9 | 10.91
Bond    | 5.0068e-06 | 0.0015659  | 0.0068738  |   6.3 |  2.34
Kspace  | 0.025878   | 0.05739    | 0.066314   |   6.0 | 85.90
Neigh   | 0          | 0          | 0          |   0.0 |  0.00
Comm    | 1.9073e-06 | 0.00013092 | 0.00036192 |   0.0 |  0.20
Output  | 0          | 0          | 0          |   0.0 |  0.00
Modify  | 0          | 0          | 0          |   0.0 |  0.00
Other   |            | 0.0004342  |            |       |  0.65

Nlocal:    172.75 ave 773 max 0 min
Histogram: 11 0 1 0 0 0 2 0 0 2
Nghost:    126.5 ave 403 max 0 min
Histogram: 8 0 0 2 0 1 3 1 0 1
Neighs:    10863.6 ave 51388 max 0 min
Histogram: 11 0 0 1 1 1 0 0 0 2

Total # of neighbors = 173818
Ave neighs/atom = 62.8864
Ave special neighs/atom = 12.2728
Neighbor list builds = 0
Dangerous builds = 0
timestep        1
fix             pysimm_md all nvt temp 100 100 100
run             5000
PPPM initialization ...
  using 12-bit tables for long-range coulomb (../kspace.cpp:332)
  G vector (1/distance) = 0.0951565
  grid = 36 36 36
  stencil order = 5
  estimated absolute RMS force accuracy = 0.0362568
  estimated relative force accuracy = 0.000109186
  using double precision KISS FFT
  3d grid and FFT values/proc = 7406 3888
Per MPI rank memory allocation (min/avg/max) = 19.33 | 19.56 | 20.15 Mbytes
Step Temp E_pair E_mol TotEng Press 
       1    1464.1128    722.10371    2889.2715    15669.776     7.940988 
    5001    110.57078    592.28661    2794.6175    4297.5627  0.025288644 
Loop time of 14.8672 on 16 procs for 5000 steps with 2764 atoms

Performance: 29.057 ns/day, 0.826 hours/ns, 336.310 timesteps/s
95.4% CPU use with 16 MPI tasks x no OpenMP threads

MPI task timing breakdown:
Section |  min time  |  avg time  |  max time  |%varavg| %total
---------------------------------------------------------------
Pair    | 0.0004766  | 1.2326     | 5.7214     | 180.7 |  8.29
Bond    | 0.00090265 | 0.37904    | 1.7        |  98.7 |  2.55
Kspace  | 7.0743     | 11.787     | 13.149     |  62.1 | 79.28
Neigh   | 0.17113    | 0.17316    | 0.17574    |   0.3 |  1.16
Comm    | 0.005234   | 0.34224    | 1.5487     |  83.1 |  2.30
Output  | 2.5988e-05 | 2.864e-05  | 3.6955e-05 |   0.0 |  0.00
Modify  | 0.066144   | 0.90939    | 1.5294     |  72.2 |  6.12
Other   |            | 0.04344    |            |       |  0.29

Nlocal:    172.75 ave 780 max 0 min
Histogram: 11 0 1 0 0 0 1 1 0 2
Nghost:    135.812 ave 439 max 0 min
Histogram: 8 0 0 2 1 0 3 1 0 1
Neighs:    10447.8 ave 48856 max 0 min
Histogram: 11 0 1 0 0 1 1 0 0 2

Total # of neighbors = 167164
Ave neighs/atom = 60.479
Ave special neighs/atom = 12.2728
Neighbor list builds = 96
Dangerous builds = 0
unfix pysimm_md
write_dump all custom pysimm.dump.tmp id q x y z vx vy vz
quit
