LAMMPS (27 Feb 2020)
log steps.log append
