pySIMM System Object

134 atoms
133 bonds
240 angles
169 dihedrals
1 impropers

8 atom types
12 bond types
22 angle types
5 dihedral types
1 improper types

-65.446318 65.446318 xlo xhi
-65.446318 65.446318 ylo yhi
-65.446318 65.446318 zlo zhi

Masses

   1	16.0	# o
   2	12.01	# c
   3	12.01	# c2
   4	12.01	# ce
   5	1.008	# ha
   6	12.01	# c3
   7	1.008	# h1
   8	12.01	# c1

Pair Coeffs

   1	0.21	2.959921901149463	# o
   2	0.086	3.3996695084235347	# c
   3	0.086	3.3996695084235347	# c2
   4	0.086	3.3996695084235347	# ce
   5	0.015	2.59964245953351	# ha
   6	0.1094	3.3996695084235347	# c3
   7	0.0157	2.471353044121301	# h1
   8	0.21	3.3996695084235347	# c1

Bond Coeffs

   1	343.1	1.0879	# c2,ha
   2	547.3	1.3461	# c2,ce
   3	342.5	1.0883	# ce,ha
   4	354.5	1.4825	# c,ce
   5	637.7	1.2183	# c,o
   6	449.9	1.3165	# c3,o
   7	326.8	1.5095	# c2,c3
   8	330.6	1.0969	# c3,h1
   9	622.9	1.2247	# c2,o
  10	625.0	1.307	# c1,c2
  11	758.1	1.1724	# c1,o
  12	569.4	1.3343	# c2,c2

Angle Coeffs

   1	38.11	116.9	# ha,c2,ha
   2	49.51	120.45	# ce,c2,ha
   3	49.61	119.94	# c2,ce,ha
   4	46.52	116.46	# c,ce,ha
   5	65.45	120.42	# c,ce,c2
   6	68.83	123.2	# ce,c,o
   7	77.94	130.25	# o,c,o
   8	47.07	109.96	# c2,c3,h1
   9	68.15	110.35	# c2,c3,o
  10	45.94	115.68	# c3,c2,ha
  11	39.24	108.46	# h1,c3,h1
  12	52.64	116.45	# h1,c3,o
  13	65.83	113.14	# c2,o,c
  14	67.92	122.82	# c3,c2,o
  15	55.28	117.23	# ha,c2,o
  16	65.83	113.14	# c2,o,c3
  17	62.94	179.5	# c2,c1,o
  18	70.06	121.62	# c1,c2,c2
  19	49.85	120.43	# c2,c2,ha
  20	50.62	120.42	# c1,c2,ha
  21	65.83	113.14	# c3,o,c1
  22	68.89	180.0	# o,c1,o

Dihedral Coeffs

   1	1	6.65	2	180	# X,c2,ce,X
   2	1	2.175	2	180	# X,c,ce,X
   3	1	0.0	2	0	# X,c2,c3,X
   4	1	6.65	2	180	# X,c2,c2,X
   5	1	0.0	2	180	# X,c1,c2,X

Improper Coeffs

   1	10.5	-1	2	# c,X,X,o

Atoms

   1	1	1	-0.104756	-13.0324	0.476124	-6.86738
   2	1	1	-0.569213	-12.0046	0.934354	-5.04211
   3	1	2	0.789146	-12.9365	0.442496	-5.65588
   4	1	3	-0.154228	-14.0837	-0.410461	-3.61443
   5	1	4	-0.389642	-13.9756	-0.307042	-4.95703
   6	1	5	0.157325	-14.8486	-0.98716	-3.12287
   7	1	5	0.138289	-13.3344	0.0537147	-2.94891
   8	1	5	0.133078	-14.706	-0.804258	-5.5787
   9	1	3	-8e-06	-13.3866	1.51548	-7.42022
  10	1	1	-0.400145	-15.0422	1.03763	-9.03274
  11	1	6	0.053825	-13.7529	1.27764	-8.84112
  12	1	5	0.095789	-12.6123	2.25469	-7.32221
  13	1	5	0.095196	-14.3073	1.91705	-6.97357
  14	1	7	0.084202	-13.1018	0.473034	-9.2227
  15	1	7	0.07114	-13.4082	2.14386	-9.40781
  16	1	3	-8e-06	-15.4723	0.623091	-10.1205
  17	1	1	-0.400145	-16.6522	-0.801882	-11.3114
  18	1	6	0.053825	-15.9953	-0.788999	-10.177
  19	1	5	0.095789	-14.6971	0.614067	-10.8743
  20	1	5	0.095196	-16.2123	1.30308	-10.5401
  21	1	7	0.084202	-16.5142	-0.94896	-9.22545
  22	1	7	0.07114	-15.0985	-1.47889	-10.0404
  23	1	3	-8e-06	-17.0515	-1.87288	-11.7287
  24	1	1	-0.400145	-18.074	-2.4499	-13.6911
  25	1	6	0.053825	-18.2249	-1.66001	-12.667
  26	1	5	0.095789	-17.3686	-2.55501	-10.9199
  27	1	5	0.095196	-16.2401	-2.42769	-12.1993
  28	1	7	0.084202	-18.4018	-0.57244	-12.8964
  29	1	7	0.07114	-19.1645	-1.90999	-12.0601
  30	1	3	-8e-06	-17.4878	-2.06271	-14.7005
  31	1	1	-0.400145	-15.4796	-2.91532	-15.6563
  32	1	6	0.053825	-16.817	-3.05125	-15.6312
  33	1	5	0.095789	-16.7221	-1.35065	-14.4218
  34	1	5	0.095196	-18.1757	-1.41707	-15.3075
  35	1	7	0.084202	-17.2618	-2.84916	-16.5932
  36	1	7	0.07114	-17.1263	-4.03564	-15.3423
  37	1	3	-8e-06	-14.7639	-3.20646	-14.6893
  38	1	1	-0.400145	-13.6454	-2.34217	-12.9018
  39	1	6	0.053825	-13.8277	-2.08904	-14.2195
  40	1	5	0.095789	-14.0716	-4.01508	-14.8806
  41	1	5	0.095196	-15.3548	-3.50857	-13.8249
  42	1	7	0.084202	-14.2517	-1.09771	-14.4545
  43	1	7	0.07114	-12.9202	-2.13411	-14.8279
  44	1	3	-8e-06	-12.4515	-2.53203	-12.6065
  45	1	1	-0.400145	-10.5278	-1.62058	-11.7113
  46	1	6	0.053825	-11.6696	-1.2972	-12.32
  47	1	5	0.095789	-11.9199	-3.11255	-13.3702
  48	1	5	0.095196	-12.4381	-3.15399	-11.7134
  49	1	7	0.084202	-12.3114	-0.61922	-11.7413
  50	1	7	0.07114	-11.493	-0.775228	-13.306
  51	1	3	-8e-06	-10.3161	-1.20487	-10.5615
  52	1	1	-0.400145	-10.8947	-1.29623	-8.39237
  53	1	6	0.053825	-10.6872	-2.09285	-9.38981
  54	1	5	0.095789	-10.7486	-0.214725	-10.4282
  55	1	5	0.095196	-9.2289	-1.03687	-10.4428
  56	1	7	0.084202	-9.9339	-2.90748	-9.36181
  57	1	7	0.07114	-11.6088	-2.66226	-9.59256
  58	1	3	-8e-06	-10.0593	-1.26086	-7.4562
  59	1	1	-0.400145	-9.03788	-3.30501	-6.88558
  60	1	6	0.053825	-9.92931	-2.45257	-6.48536
  61	1	5	0.095789	-10.2864	-0.424014	-6.81726
  62	1	5	0.095196	-9.08574	-0.970582	-7.87563
  63	1	7	0.084202	-10.91	-2.93311	-6.44124
  64	1	7	0.07114	-9.72562	-2.01727	-5.51822
  65	1	3	-8e-06	-9.00943	-4.43621	-6.39238
  66	1	1	-0.400145	-9.16777	-6.76065	-6.94218
  67	1	6	0.053825	-9.68659	-5.57027	-7.22732
  68	1	5	0.095789	-9.36913	-4.51901	-5.37097
  69	1	5	0.095196	-7.93687	-4.67227	-6.31064
  70	1	7	0.084202	-9.53879	-5.24245	-8.24175
  71	1	7	0.07114	-10.7991	-5.44062	-7.00842
  72	1	3	-8e-06	-9.91179	-7.72696	-6.92036
  73	1	1	-0.400145	-9.25503	-8.81836	-4.97234
  74	1	6	0.053825	-9.23439	-8.94622	-6.32599
  75	1	5	0.095789	-10.26	-7.89486	-7.87119
  76	1	5	0.095196	-10.6849	-7.50956	-6.2424
  77	1	7	0.084202	-8.23235	-9.05886	-6.80388
  78	1	7	0.07114	-9.8255	-9.77265	-6.70325
  79	1	3	-8e-06	-8.36985	-9.25716	-4.29984
  80	1	1	-0.400145	-7.32736	-9.58549	-2.34153
  81	1	6	0.053825	-8.33248	-8.88652	-2.84156
  82	1	5	0.095789	-7.41377	-8.9236	-4.70333
  83	1	5	0.095196	-8.42759	-10.3749	-4.35428
  84	1	7	0.084202	-9.33995	-9.07734	-2.50522
  85	1	7	0.07114	-8.07091	-7.81433	-2.81393
  86	1	3	-8e-06	-7.55758	-10.2028	-1.30986
  87	1	1	-0.400145	-6.87147	-11.9573	0.133902
  88	1	6	0.053825	-6.39652	-11.0794	-0.76253
  89	1	5	0.095789	-8.43022	-10.8334	-1.43174
  90	1	5	0.095196	-7.79233	-9.56096	-0.452414
  91	1	7	0.084202	-5.65761	-10.3591	-0.381295
  92	1	7	0.07114	-5.88405	-11.5505	-1.57298
  93	1	3	-8e-06	-6.40339	-11.9791	1.27764
  94	1	1	-0.400145	-6.17853	-11.0057	3.43365
  95	1	6	0.053825	-6.80779	-10.8727	2.26632
  96	1	5	0.095789	-5.32357	-11.7796	1.21257
  97	1	5	0.095196	-6.44322	-12.9952	1.68284
  98	1	7	0.084202	-7.92754	-11.1102	2.41757
  99	1	7	0.07114	-6.66853	-9.83857	1.8161
 100	1	3	-8e-06	-6.37852	-10.0643	4.21006
 101	1	1	-0.400145	-7.66246	-8.63857	5.476
 102	1	6	0.053825	-7.73897	-9.59903	4.60367
 103	1	5	0.095789	-5.70913	-9.1819	4.06532
 104	1	5	0.095196	-5.9165	-10.3327	5.14825
 105	1	7	0.084202	-8.32976	-10.4857	5.03434
 106	1	7	0.07114	-8.25139	-9.29677	3.69627
 107	1	3	-8e-06	-8.68012	-8.35039	6.04896
 108	1	1	-0.400145	-10.3726	-8.85583	7.70068
 109	1	6	0.053825	-9.12781	-9.21163	7.28877
 110	1	5	0.095789	-9.46243	-8.24567	5.33788
 111	1	5	0.095196	-8.56632	-7.46187	6.50519
 112	1	7	0.084202	-8.41591	-8.95999	8.06676
 113	1	7	0.07114	-9.06316	-10.3237	7.18059
 114	1	3	-8e-06	-10.9025	-9.45495	8.64346
 115	1	1	-0.400145	-11.0832	-9.85481	10.7948
 116	1	6	0.053825	-10.3659	-9.11611	10.0372
 117	1	5	0.095789	-10.729	-10.5555	8.61993
 118	1	5	0.095196	-11.9809	-9.20516	8.59979
 119	1	7	0.084202	-10.4251	-8.00296	10.2398
 120	1	7	0.07114	-9.36391	-9.42085	9.98693
 121	1	3	-8e-06	-10.5294	-10.2796	11.8495
 122	1	1	-0.400145	-10.4595	-11.0564	14.0458
 123	1	6	0.053825	-11.3126	-10.7486	13.0876
 124	1	5	0.095789	-9.80902	-9.52901	12.1192
 125	1	5	0.095196	-9.82392	-11.1158	11.6151
 126	1	7	0.084202	-11.9453	-11.5828	12.7524
 127	1	7	0.07114	-11.9703	-9.83764	13.3212
 128	1	3	-0.232441	-9.84116	-14.393	14.5405
 129	1	8	0.444336	-10.6201	-12.117	14.5889
 130	1	3	-0.096823	-10.2797	-13.2472	13.9325
 131	1	1	-0.491911	-11.0636	-12.1325	15.6748
 132	1	5	0.148316	-9.68159	-15.2055	13.8442
 133	1	5	0.163898	-9.80181	-14.641	15.5891
 134	1	5	0.064625	-10.3924	-13.3527	12.8799

Velocities

   1	-0.00666265	-0.00419741	0.000754323
   2	-0.00293936	-0.00445365	-4.80035e-05
   3	-0.00437737	-0.00654632	0.00319974
   4	0.000183465	-0.00230226	0.000950279
   5	-0.00709773	-0.000469695	-0.00205508
   6	-0.00990415	0.0101824	-0.015299
   7	0.0170904	-0.0118026	-0.00639512
   8	-0.0121958	-0.00356028	0.0065793
   9	-0.00274132	-0.00791405	0.00100763
  10	-0.00503411	0.000260638	-0.00140648
  11	0.00198959	-0.00620919	0.00330313
  12	0.00148774	-0.00407871	0.0093682
  13	-0.00020744	0.00304906	0.000254805
  14	-0.000461985	0.00909557	-0.00361885
  15	0.011299	-0.0233932	0.00693719
  16	-0.00377189	0.000508248	0.000812362
  17	-0.00104609	-0.00290217	-0.00281915
  18	-0.00407858	0.00088798	-0.0085223
  19	0.0105626	5.58817e-05	-0.00322081
  20	0.0150289	0.0067399	0.0179107
  21	0.00698194	-0.00506947	0.00721632
  22	0.00409856	-0.00917398	0.0100068
  23	-0.00315316	-0.00330783	-0.00611049
  24	0.000382404	0.00398948	-0.00926134
  25	-0.00363973	0.00458235	0.000218404
  26	-0.00625356	-0.000702085	-0.00357107
  27	-0.000287458	0.00275183	0.00598585
  28	0.00992144	-0.00103389	-0.0123824
  29	0.00608367	0.00118352	0.00828715
  30	-0.00207098	-0.00669877	-0.00969242
  31	-0.00306985	-0.00170495	-0.00724078
  32	-0.0029181	-0.00295862	-0.00541633
  33	0.000753542	0.0123813	-0.0196515
  34	0.0228064	-0.000603114	-0.0121281
  35	0.00427394	0.0189978	0.00578565
  36	0.0030126	-0.00370635	0.0334028
  37	0.00479769	-0.00725568	-0.00547231
  38	-0.00525779	0.00291963	-0.00611709
  39	0.0013181	0.00238354	-0.00827685
  40	-0.0066949	-0.00437818	-0.0148992
  41	0.0165696	-0.0138958	0.00202905
  42	0.0140246	-0.0122818	-0.023697
  43	0.00116445	0.0287925	0.013898
  44	-0.00055118	0.0012108	-0.00802322
  45	-7.83219e-05	-0.00781419	-0.00441186
  46	0.00921911	-0.00360669	-0.00643539
  47	-0.00342143	0.00121818	0.00243164
  48	-0.0202412	0.000409583	-0.019885
  49	0.0049508	-0.00479354	-0.0167754
  50	0.00592316	0.0118485	-0.0135653
  51	0.0039344	-0.00954141	-0.0172098
  52	-0.00210245	-0.00190021	0.00105044
  53	0.00546763	-0.00293364	-0.00372952
  54	-0.0115496	0.00978207	-0.0134753
  55	-0.000975789	-0.0169175	0.00349652
  56	0.000740921	0.00435196	-0.00390434
  57	-0.0229781	0.00460986	-0.0140755
  58	-0.00136317	0.000129823	0.00124928
  59	-0.00367338	0.00328174	0.000616433
  60	-0.00196371	-0.00729689	0.00365274
  61	-0.00316908	0.00489377	0.00372869
  62	0.0126951	0.00687826	0.013062
  63	-0.0144848	-0.00655228	0.0146325
  64	-0.0118813	-0.000248675	-0.000739984
  65	-0.00714299	-0.00417812	0.00126546
  66	-0.00670149	0.00160338	0.00381843
  67	-0.00717538	0.00169685	-0.000816421
  68	-0.00687131	-0.0152505	0.0175631
  69	-0.00965797	-0.0046068	0.0217473
  70	-0.000648152	0.0332659	-0.0104111
  71	0.00857954	-0.000364017	-0.042054
  72	-0.00140102	-0.00568859	0.00595669
  73	-0.00657251	-0.00361188	0.00468693
  74	-0.000767365	-0.00325114	0.00412537
  75	-0.015566	-0.0140098	-0.00261745
  76	-0.0112297	0.00431057	0.00397147
  77	-0.0172335	0.00906723	-0.00521646
  78	0.00757457	-0.00460913	-0.0133606
  79	0.00123511	0.00848023	0.00110699
  80	0.00546414	0.00244717	0.00149231
  81	0.0012744	0.000196769	7.77305e-05
  82	-0.0081705	-0.0303778	0.00949468
  83	-0.009803	0.0224816	0.00138307
  84	0.0187217	0.000859937	-0.0283416
  85	-0.0121302	-0.00627984	-0.00193208
  86	6.82281e-05	-0.00244147	-0.00523826
  87	-0.000944437	-0.00561428	0.00387592
  88	-0.00522036	0.00247625	0.00269779
  89	0.0195541	-0.0266161	-0.0101421
  90	0.0128154	0.0282484	-0.00648201
  91	-0.00984588	0.00666224	-0.00880322
  92	-0.000923468	-0.0210394	0.00599457
  93	-0.000479369	-0.00481547	0.00386181
  94	-0.00729685	0.00349823	0.00400337
  95	0.000657166	-0.0136604	0.00202754
  96	0.0108153	-0.0169676	-0.0122744
  97	0.0132107	-0.0110454	0.00165999
  98	-0.0200919	0.00503049	-0.0231719
  99	0.00290335	-0.00222121	-0.00323797
 100	-0.000935018	-0.00769213	0.00140406
 101	-0.0128202	0.00148223	0.00455459
 102	-0.00219042	-0.00652016	-0.00499984
 103	-0.0118801	0.0152044	0.0202795
 104	0.0024852	0.0178652	0.00518939
 105	0.00651929	-0.00287658	0.00987178
 106	-0.0055769	0.00572787	-0.0235972
 107	0.000916869	-0.000556778	0.00759367
 108	-0.00463955	0.0010867	0.00624125
 109	0.00333487	-0.00241962	-0.00573907
 110	-0.0229189	0.00221295	0.00146425
 111	-0.0212675	0.0155015	0.0126327
 112	0.0333131	-0.0158344	-0.0177942
 113	-0.0250515	-0.00293498	0.020113
 114	-0.00170412	-0.00257517	-0.00441664
 115	0.00083946	0.00129799	-0.00410555
 116	-0.00325597	0.000356687	-0.00243729
 117	-0.052017	-0.00489727	0.0264918
 118	0.0177895	0.00718233	0.027784
 119	0.0125009	-0.0105493	-0.0150932
 120	-0.00758942	0.0394019	-0.00555199
 121	-0.00746496	-0.000259017	0.00503878
 122	-0.003349	0.0022911	0.00531506
 123	-0.0136511	0.00352931	0.00837699
 124	-0.0122866	0.0212268	0.00782432
 125	-0.0119216	0.00562578	0.00371737
 126	0.020059	-0.00253021	-0.0130205
 127	-0.013247	-0.0297312	0.000870283
 128	0.00058964	0.00948099	0.000142121
 129	-0.00809001	0.00596367	-0.00144688
 130	0.00353072	0.00431336	0.0141512
 131	-0.00721211	0.000586903	-0.00287065
 132	-0.000575136	0.0178425	0.0140773
 133	0.00465548	0.019699	-0.00298888
 134	0.00254232	0.00491798	-0.0112683

Bonds

   1	5	1	3
   2	5	2	3
   3	4	3	5
   4	2	4	5
   5	1	4	6
   6	1	4	7
   7	3	5	8
   8	7	9	11
   9	1	9	12
  10	1	9	13
  11	6	10	11
  12	8	11	14
  13	8	11	15
  14	9	1	9
  15	7	16	18
  16	1	16	19
  17	1	16	20
  18	6	17	18
  19	8	18	21
  20	8	18	22
  21	9	10	16
  22	7	23	25
  23	1	23	26
  24	1	23	27
  25	6	24	25
  26	8	25	28
  27	8	25	29
  28	9	17	23
  29	7	30	32
  30	1	30	33
  31	1	30	34
  32	6	31	32
  33	8	32	35
  34	8	32	36
  35	9	24	30
  36	7	37	39
  37	1	37	40
  38	1	37	41
  39	6	38	39
  40	8	39	42
  41	8	39	43
  42	9	31	37
  43	7	44	46
  44	1	44	47
  45	1	44	48
  46	6	45	46
  47	8	46	49
  48	8	46	50
  49	9	38	44
  50	7	51	53
  51	1	51	54
  52	1	51	55
  53	6	52	53
  54	8	53	56
  55	8	53	57
  56	9	45	51
  57	7	58	60
  58	1	58	61
  59	1	58	62
  60	6	59	60
  61	8	60	63
  62	8	60	64
  63	9	52	58
  64	7	65	67
  65	1	65	68
  66	1	65	69
  67	6	66	67
  68	8	67	70
  69	8	67	71
  70	9	59	65
  71	7	72	74
  72	1	72	75
  73	1	72	76
  74	6	73	74
  75	8	74	77
  76	8	74	78
  77	9	66	72
  78	7	79	81
  79	1	79	82
  80	1	79	83
  81	6	80	81
  82	8	81	84
  83	8	81	85
  84	9	73	79
  85	7	86	88
  86	1	86	89
  87	1	86	90
  88	6	87	88
  89	8	88	91
  90	8	88	92
  91	9	80	86
  92	7	93	95
  93	1	93	96
  94	1	93	97
  95	6	94	95
  96	8	95	98
  97	8	95	99
  98	9	87	93
  99	7	100	102
 100	1	100	103
 101	1	100	104
 102	6	101	102
 103	8	102	105
 104	8	102	106
 105	9	94	100
 106	7	107	109
 107	1	107	110
 108	1	107	111
 109	6	108	109
 110	8	109	112
 111	8	109	113
 112	9	101	107
 113	7	114	116
 114	1	114	117
 115	1	114	118
 116	6	115	116
 117	8	116	119
 118	8	116	120
 119	9	108	114
 120	7	121	123
 121	1	121	124
 122	1	121	125
 123	6	122	123
 124	8	123	126
 125	8	123	127
 126	9	115	121
 127	12	128	130
 128	1	128	132
 129	1	128	133
 130	10	129	130
 131	11	129	131
 132	1	130	134
 133	11	122	129

Angles

   1	7	1	3	2
   2	6	1	3	5
   3	6	2	3	5
   4	2	5	4	6
   5	2	5	4	7
   6	1	6	4	7
   7	5	3	5	4
   8	4	3	5	8
   9	3	4	5	8
  10	10	11	9	12
  11	10	11	9	13
  12	1	12	9	13
  13	9	9	11	10
  14	8	9	11	14
  15	8	9	11	15
  16	12	10	11	14
  17	12	10	11	15
  18	11	14	11	15
  19	13	3	1	9
  20	14	1	9	11
  21	15	1	9	12
  22	15	1	9	13
  23	10	18	16	19
  24	10	18	16	20
  25	1	19	16	20
  26	9	16	18	17
  27	8	16	18	21
  28	8	16	18	22
  29	12	17	18	21
  30	12	17	18	22
  31	11	21	18	22
  32	16	11	10	16
  33	14	10	16	18
  34	15	10	16	19
  35	15	10	16	20
  36	10	25	23	26
  37	10	25	23	27
  38	1	26	23	27
  39	9	23	25	24
  40	8	23	25	28
  41	8	23	25	29
  42	12	24	25	28
  43	12	24	25	29
  44	11	28	25	29
  45	16	18	17	23
  46	14	17	23	25
  47	15	17	23	26
  48	15	17	23	27
  49	10	32	30	33
  50	10	32	30	34
  51	1	33	30	34
  52	9	30	32	31
  53	8	30	32	35
  54	8	30	32	36
  55	12	31	32	35
  56	12	31	32	36
  57	11	35	32	36
  58	16	25	24	30
  59	14	24	30	32
  60	15	24	30	33
  61	15	24	30	34
  62	10	39	37	40
  63	10	39	37	41
  64	1	40	37	41
  65	9	37	39	38
  66	8	37	39	42
  67	8	37	39	43
  68	12	38	39	42
  69	12	38	39	43
  70	11	42	39	43
  71	16	32	31	37
  72	14	31	37	39
  73	15	31	37	40
  74	15	31	37	41
  75	10	46	44	47
  76	10	46	44	48
  77	1	47	44	48
  78	9	44	46	45
  79	8	44	46	49
  80	8	44	46	50
  81	12	45	46	49
  82	12	45	46	50
  83	11	49	46	50
  84	16	39	38	44
  85	14	38	44	46
  86	15	38	44	47
  87	15	38	44	48
  88	10	53	51	54
  89	10	53	51	55
  90	1	54	51	55
  91	9	51	53	52
  92	8	51	53	56
  93	8	51	53	57
  94	12	52	53	56
  95	12	52	53	57
  96	11	56	53	57
  97	16	46	45	51
  98	14	45	51	53
  99	15	45	51	54
 100	15	45	51	55
 101	10	60	58	61
 102	10	60	58	62
 103	1	61	58	62
 104	9	58	60	59
 105	8	58	60	63
 106	8	58	60	64
 107	12	59	60	63
 108	12	59	60	64
 109	11	63	60	64
 110	16	53	52	58
 111	14	52	58	60
 112	15	52	58	61
 113	15	52	58	62
 114	10	67	65	68
 115	10	67	65	69
 116	1	68	65	69
 117	9	65	67	66
 118	8	65	67	70
 119	8	65	67	71
 120	12	66	67	70
 121	12	66	67	71
 122	11	70	67	71
 123	16	60	59	65
 124	14	59	65	67
 125	15	59	65	68
 126	15	59	65	69
 127	10	74	72	75
 128	10	74	72	76
 129	1	75	72	76
 130	9	72	74	73
 131	8	72	74	77
 132	8	72	74	78
 133	12	73	74	77
 134	12	73	74	78
 135	11	77	74	78
 136	16	67	66	72
 137	14	66	72	74
 138	15	66	72	75
 139	15	66	72	76
 140	10	81	79	82
 141	10	81	79	83
 142	1	82	79	83
 143	9	79	81	80
 144	8	79	81	84
 145	8	79	81	85
 146	12	80	81	84
 147	12	80	81	85
 148	11	84	81	85
 149	16	74	73	79
 150	14	73	79	81
 151	15	73	79	82
 152	15	73	79	83
 153	10	88	86	89
 154	10	88	86	90
 155	1	89	86	90
 156	9	86	88	87
 157	8	86	88	91
 158	8	86	88	92
 159	12	87	88	91
 160	12	87	88	92
 161	11	91	88	92
 162	16	81	80	86
 163	14	80	86	88
 164	15	80	86	89
 165	15	80	86	90
 166	10	95	93	96
 167	10	95	93	97
 168	1	96	93	97
 169	9	93	95	94
 170	8	93	95	98
 171	8	93	95	99
 172	12	94	95	98
 173	12	94	95	99
 174	11	98	95	99
 175	16	88	87	93
 176	14	87	93	95
 177	15	87	93	96
 178	15	87	93	97
 179	10	102	100	103
 180	10	102	100	104
 181	1	103	100	104
 182	9	100	102	101
 183	8	100	102	105
 184	8	100	102	106
 185	12	101	102	105
 186	12	101	102	106
 187	11	105	102	106
 188	16	95	94	100
 189	14	94	100	102
 190	15	94	100	103
 191	15	94	100	104
 192	10	109	107	110
 193	10	109	107	111
 194	1	110	107	111
 195	9	107	109	108
 196	8	107	109	112
 197	8	107	109	113
 198	12	108	109	112
 199	12	108	109	113
 200	11	112	109	113
 201	16	102	101	107
 202	14	101	107	109
 203	15	101	107	110
 204	15	101	107	111
 205	10	116	114	117
 206	10	116	114	118
 207	1	117	114	118
 208	9	114	116	115
 209	8	114	116	119
 210	8	114	116	120
 211	12	115	116	119
 212	12	115	116	120
 213	11	119	116	120
 214	16	109	108	114
 215	14	108	114	116
 216	15	108	114	117
 217	15	108	114	118
 218	10	123	121	124
 219	10	123	121	125
 220	1	124	121	125
 221	9	121	123	122
 222	8	121	123	126
 223	8	121	123	127
 224	12	122	123	126
 225	12	122	123	127
 226	11	126	123	127
 227	16	116	115	121
 228	14	115	121	123
 229	15	115	121	124
 230	15	115	121	125
 231	19	130	128	132
 232	19	130	128	133
 233	1	132	128	133
 234	17	130	129	131
 235	18	128	130	129
 236	19	128	130	134
 237	20	129	130	134
 238	21	123	122	129
 239	17	122	129	130
 240	22	122	129	131

Dihedrals

   1	2	1	3	5	4
   2	2	1	3	5	8
   3	2	2	3	5	4
   4	2	2	3	5	8
   5	1	6	4	5	3
   6	1	6	4	5	8
   7	1	7	4	5	3
   8	1	7	4	5	8
   9	3	12	9	11	10
  10	3	12	9	11	14
  11	3	12	9	11	15
  12	3	13	9	11	10
  13	3	13	9	11	14
  14	3	13	9	11	15
  15	3	1	9	11	10
  16	3	1	9	11	14
  17	3	1	9	11	15
  18	3	19	16	18	17
  19	3	19	16	18	21
  20	3	19	16	18	22
  21	3	20	16	18	17
  22	3	20	16	18	21
  23	3	20	16	18	22
  24	3	10	16	18	17
  25	3	10	16	18	21
  26	3	10	16	18	22
  27	3	26	23	25	24
  28	3	26	23	25	28
  29	3	26	23	25	29
  30	3	27	23	25	24
  31	3	27	23	25	28
  32	3	27	23	25	29
  33	3	17	23	25	24
  34	3	17	23	25	28
  35	3	17	23	25	29
  36	3	33	30	32	31
  37	3	33	30	32	35
  38	3	33	30	32	36
  39	3	34	30	32	31
  40	3	34	30	32	35
  41	3	34	30	32	36
  42	3	24	30	32	31
  43	3	24	30	32	35
  44	3	24	30	32	36
  45	3	40	37	39	38
  46	3	40	37	39	42
  47	3	40	37	39	43
  48	3	41	37	39	38
  49	3	41	37	39	42
  50	3	41	37	39	43
  51	3	31	37	39	38
  52	3	31	37	39	42
  53	3	31	37	39	43
  54	3	47	44	46	45
  55	3	47	44	46	49
  56	3	47	44	46	50
  57	3	48	44	46	45
  58	3	48	44	46	49
  59	3	48	44	46	50
  60	3	38	44	46	45
  61	3	38	44	46	49
  62	3	38	44	46	50
  63	3	54	51	53	52
  64	3	54	51	53	56
  65	3	54	51	53	57
  66	3	55	51	53	52
  67	3	55	51	53	56
  68	3	55	51	53	57
  69	3	45	51	53	52
  70	3	45	51	53	56
  71	3	45	51	53	57
  72	3	61	58	60	59
  73	3	61	58	60	63
  74	3	61	58	60	64
  75	3	62	58	60	59
  76	3	62	58	60	63
  77	3	62	58	60	64
  78	3	52	58	60	59
  79	3	52	58	60	63
  80	3	52	58	60	64
  81	3	68	65	67	66
  82	3	68	65	67	70
  83	3	68	65	67	71
  84	3	69	65	67	66
  85	3	69	65	67	70
  86	3	69	65	67	71
  87	3	59	65	67	66
  88	3	59	65	67	70
  89	3	59	65	67	71
  90	3	75	72	74	73
  91	3	75	72	74	77
  92	3	75	72	74	78
  93	3	76	72	74	73
  94	3	76	72	74	77
  95	3	76	72	74	78
  96	3	66	72	74	73
  97	3	66	72	74	77
  98	3	66	72	74	78
  99	3	82	79	81	80
 100	3	82	79	81	84
 101	3	82	79	81	85
 102	3	83	79	81	80
 103	3	83	79	81	84
 104	3	83	79	81	85
 105	3	73	79	81	80
 106	3	73	79	81	84
 107	3	73	79	81	85
 108	3	89	86	88	87
 109	3	89	86	88	91
 110	3	89	86	88	92
 111	3	90	86	88	87
 112	3	90	86	88	91
 113	3	90	86	88	92
 114	3	80	86	88	87
 115	3	80	86	88	91
 116	3	80	86	88	92
 117	3	96	93	95	94
 118	3	96	93	95	98
 119	3	96	93	95	99
 120	3	97	93	95	94
 121	3	97	93	95	98
 122	3	97	93	95	99
 123	3	87	93	95	94
 124	3	87	93	95	98
 125	3	87	93	95	99
 126	3	103	100	102	101
 127	3	103	100	102	105
 128	3	103	100	102	106
 129	3	104	100	102	101
 130	3	104	100	102	105
 131	3	104	100	102	106
 132	3	94	100	102	101
 133	3	94	100	102	105
 134	3	94	100	102	106
 135	3	110	107	109	108
 136	3	110	107	109	112
 137	3	110	107	109	113
 138	3	111	107	109	108
 139	3	111	107	109	112
 140	3	111	107	109	113
 141	3	101	107	109	108
 142	3	101	107	109	112
 143	3	101	107	109	113
 144	3	117	114	116	115
 145	3	117	114	116	119
 146	3	117	114	116	120
 147	3	118	114	116	115
 148	3	118	114	116	119
 149	3	118	114	116	120
 150	3	108	114	116	115
 151	3	108	114	116	119
 152	3	108	114	116	120
 153	3	124	121	123	122
 154	3	124	121	123	126
 155	3	124	121	123	127
 156	3	125	121	123	122
 157	3	125	121	123	126
 158	3	125	121	123	127
 159	3	115	121	123	122
 160	3	115	121	123	126
 161	3	115	121	123	127
 162	4	132	128	130	129
 163	4	132	128	130	134
 164	4	133	128	130	129
 165	4	133	128	130	134
 166	5	131	129	130	128
 167	5	131	129	130	134
 168	5	122	129	130	128
 169	5	122	129	130	134

Impropers

   1	1	3	1	2	5

