pySIMM System Object

365 atoms
364 bonds
669 angles
466 dihedrals
1 impropers

8 atom types
12 bond types
22 angle types
5 dihedral types
1 improper types

-91.545106 91.545106 xlo xhi
-91.545106 91.545106 ylo yhi
-91.545106 91.545106 zlo zhi

Masses

   1	16.0	# o
   2	12.01	# c
   3	12.01	# c2
   4	12.01	# ce
   5	1.008	# ha
   6	12.01	# c3
   7	1.008	# h1
   8	12.01	# c1

Pair Coeffs

   1	0.21	2.959921901149463	# o
   2	0.086	3.3996695084235347	# c
   3	0.086	3.3996695084235347	# c2
   4	0.086	3.3996695084235347	# ce
   5	0.015	2.59964245953351	# ha
   6	0.1094	3.3996695084235347	# c3
   7	0.0157	2.471353044121301	# h1
   8	0.21	3.3996695084235347	# c1

Bond Coeffs

   1	343.1	1.0879	# c2,ha
   2	547.3	1.3461	# c2,ce
   3	342.5	1.0883	# ce,ha
   4	354.5	1.4825	# c,ce
   5	637.7	1.2183	# c,o
   6	449.9	1.3165	# c3,o
   7	326.8	1.5095	# c2,c3
   8	330.6	1.0969	# c3,h1
   9	622.9	1.2247	# c2,o
  10	625.0	1.307	# c1,c2
  11	758.1	1.1724	# c1,o
  12	569.4	1.3343	# c2,c2

Angle Coeffs

   1	38.11	116.9	# ha,c2,ha
   2	49.51	120.45	# ce,c2,ha
   3	49.61	119.94	# c2,ce,ha
   4	46.52	116.46	# c,ce,ha
   5	65.45	120.42	# c,ce,c2
   6	68.83	123.2	# ce,c,o
   7	77.94	130.25	# o,c,o
   8	47.07	109.96	# c2,c3,h1
   9	68.15	110.35	# c2,c3,o
  10	45.94	115.68	# c3,c2,ha
  11	39.24	108.46	# h1,c3,h1
  12	52.64	116.45	# h1,c3,o
  13	65.83	113.14	# c2,o,c
  14	67.92	122.82	# c3,c2,o
  15	55.28	117.23	# ha,c2,o
  16	65.83	113.14	# c2,o,c3
  17	62.94	179.5	# c2,c1,o
  18	70.06	121.62	# c1,c2,c2
  19	49.85	120.43	# c2,c2,ha
  20	50.62	120.42	# c1,c2,ha
  21	65.83	113.14	# c3,o,c1
  22	68.89	180.0	# o,c1,o

Dihedral Coeffs

   1	1	6.65	2	180	# X,c2,ce,X
   2	1	2.175	2	180	# X,c,ce,X
   3	1	0.0	2	0	# X,c2,c3,X
   4	1	6.65	2	180	# X,c2,c2,X
   5	1	0.0	2	180	# X,c1,c2,X

Improper Coeffs

   1	10.5	-1	2	# c,X,X,o

Atoms

   1	1	1	-0.104756	4.36831	-5.05619	4.68909
   2	1	1	-0.569213	6.44237	-5.27189	4.28791
   3	1	2	0.789146	5.45934	-5.53753	4.93266
   4	1	3	-0.154228	4.42486	-6.91761	6.8464
   5	1	4	-0.389642	5.5094	-6.47387	6.10695
   6	1	5	0.157325	4.59608	-7.64704	7.65708
   7	1	5	0.138289	3.42025	-6.59598	6.63597
   8	1	5	0.133078	6.51221	-6.84825	6.32379
   9	1	3	-8e-06	3.59908	-5.59096	3.88068
  10	1	1	-0.400145	2.57313	-4.11521	2.36638
  11	1	6	0.053825	2.41924	-4.73343	3.54022
  12	1	5	0.095789	3.14095	-6.51319	4.29126
  13	1	5	0.095196	4.09887	-5.92117	2.96306
  14	1	7	0.084202	2.33012	-4.0361	4.3806
  15	1	7	0.07114	1.51098	-5.36182	3.64071
  16	1	3	-8e-06	1.79438	-3.21214	2.0326
  17	1	1	-0.400145	2.65806	-1.18507	1.12522
  18	1	6	0.053825	2.17549	-2.3647	0.797613
  19	1	5	0.095789	1.65245	-2.45232	2.78207
  20	1	5	0.095196	0.822761	-3.67286	1.81561
  21	1	7	0.084202	1.30799	-2.28645	0.178915
  22	1	7	0.07114	2.82075	-2.9972	0.178183
  23	1	3	-8e-06	3.81204	-0.900642	0.798892
  24	1	1	-0.400145	5.01284	0.830132	-0.418507
  25	1	6	0.053825	4.02362	0.581984	0.446219
  26	1	5	0.095789	4.11715	-1.45071	-0.0751781
  27	1	5	0.095196	4.54516	-1.17505	1.59232
  28	1	7	0.084202	4.10736	1.08081	1.37853
  29	1	7	0.07114	3.09913	0.885393	0.0161239
  30	1	3	-8e-06	6.18863	0.568637	-0.111534
  31	1	1	-0.400145	7.177	-1.42451	-0.140609
  32	1	6	0.053825	6.84325	-0.477505	-0.992861
  33	1	5	0.095789	6.27291	0.233374	0.89257
  34	1	5	0.095196	6.81372	1.44333	-0.124178
  35	1	7	0.084202	7.67158	-0.00124699	-1.47967
  36	1	7	0.07114	6.15989	-0.747702	-1.77521
  37	1	3	-8e-06	6.93238	-2.5395	-0.580213
  38	1	1	-0.400145	7.05083	-4.73966	-0.448018
  39	1	6	0.053825	7.03351	-3.67737	0.353541
  40	1	5	0.095789	7.62946	-2.7655	-1.42873
  41	1	5	0.095196	5.93901	-2.64039	-0.97856
  42	1	7	0.084202	6.19118	-3.62136	1.04289
  43	1	7	0.07114	7.94265	-3.50524	0.892252
  44	1	3	-8e-06	6.1772	-5.5851	-0.333463
  45	1	1	-0.400145	5.18634	-7.3025	0.710457
  46	1	6	0.053825	6.21756	-6.46191	0.860587
  47	1	5	0.095789	6.31284	-6.26691	-1.20607
  48	1	5	0.095196	5.1766	-5.14656	-0.401339
  49	1	7	0.084202	6.21578	-5.85059	1.76466
  50	1	7	0.07114	7.23029	-6.94232	0.881046
  51	1	3	-8e-06	5.39351	-8.51496	0.545131
  52	1	1	-0.400145	5.20965	-10.2094	2.09197
  53	1	6	0.053825	4.492	-9.45694	1.28682
  54	1	5	0.095789	6.41244	-8.79655	0.804071
  55	1	5	0.095196	5.28341	-8.76758	-0.514079
  56	1	7	0.084202	3.87746	-10.0304	0.565842
  57	1	7	0.07114	3.72392	-8.82992	1.78868
  58	1	3	-8e-06	4.72057	-10.6169	3.15622
  59	1	1	-0.400145	4.03976	-10.3042	5.34947
  60	1	6	0.053825	4.25212	-9.64547	4.2437
  61	1	5	0.095789	5.5017	-11.1701	3.61248
  62	1	5	0.095196	3.93529	-11.3283	2.92619
  63	1	7	0.084202	3.35063	-9.15485	3.8523
  64	1	7	0.07114	4.99829	-8.84519	4.35714
  65	1	3	-8e-06	3.03004	-10.9844	5.478
  66	1	1	-0.400145	0.93497	-9.87937	5.14002
  67	1	6	0.053825	1.81365	-10.2413	6.09697
  68	1	5	0.095789	3.32277	-11.8621	6.05482
  69	1	5	0.095196	2.63103	-11.3665	4.54497
  70	1	7	0.084202	2.21444	-9.44532	6.76362
  71	1	7	0.07114	1.35079	-10.9459	6.8179
  72	1	3	-8e-06	0.575249	-8.68701	5.07035
  73	1	1	-0.400145	0.800249	-8.11938	2.93109
  74	1	6	0.053825	-0.154139	-8.37586	3.80174
  75	1	5	0.095789	1.43951	-8.00755	5.17383
  76	1	5	0.095196	-0.121034	-8.43604	5.86437
  77	1	7	0.084202	-0.859652	-7.53534	3.95555
  78	1	7	0.07114	-0.755489	-9.25772	3.56063
  79	1	3	-8e-06	0.469205	-7.50931	1.92222
  80	1	1	-0.400145	1.6707	-8.29265	0.121268
  81	1	6	0.053825	1.58136	-7.29762	0.951552
  82	1	5	0.095789	0.0351991	-6.53503	2.17382
  83	1	5	0.095196	-0.321551	-8.02256	1.38605
  84	1	7	0.084202	2.48609	-7.1402	1.52626
  85	1	7	0.07114	1.43294	-6.28511	0.528171
  86	1	3	-8e-06	1.74919	-7.95884	-1.06679
  87	1	1	-0.400145	2.26069	-8.40397	-3.1951
  88	1	6	0.053825	2.43132	-8.92107	-1.99099
  89	1	5	0.095789	2.35661	-7.06947	-1.14665
  90	1	5	0.095196	0.792656	-7.77898	-1.53535
  91	1	7	0.084202	1.97942	-9.90583	-1.78565
  92	1	7	0.07114	3.49486	-9.01004	-1.66298
  93	1	3	-8e-06	3.16265	-8.68032	-3.98624
  94	1	1	-0.400145	5.56638	-8.56682	-4.01307
  95	1	6	0.053825	4.45233	-7.8507	-3.84784
  96	1	5	0.095789	2.87581	-8.58903	-5.05539
  97	1	5	0.095196	3.4978	-9.73372	-3.87167
  98	1	7	0.084202	4.40621	-7.38183	-2.84083
  99	1	7	0.07114	4.34895	-7.01346	-4.52205
 100	1	3	-8e-06	6.61914	-8.11573	-3.50362
 101	1	1	-0.400145	8.90954	-7.51132	-3.9809
 102	1	6	0.053825	7.94698	-8.43986	-4.17944
 103	1	5	0.095789	6.69914	-8.47674	-2.50052
 104	1	5	0.095196	6.62926	-7.03181	-3.39691
 105	1	7	0.084202	7.73014	-8.66308	-5.2588
 106	1	7	0.07114	8.20157	-9.40417	-3.7555
 107	1	3	-8e-06	9.75455	-7.52548	-3.06418
 108	1	1	-0.400145	10.4919	-7.28214	-0.893195
 109	1	6	0.053825	9.42943	-7.01671	-1.64844
 110	1	5	0.095789	10.6435	-6.9543	-3.39545
 111	1	5	0.095196	10.1046	-8.51815	-2.85169
 112	1	7	0.084202	8.536	-7.47359	-1.22909
 113	1	7	0.07114	9.24794	-5.95876	-1.76384
 114	1	3	-8e-06	10.4003	-7.23559	0.337486
 115	1	1	-0.400145	10.7031	-6.15421	2.27517
 116	1	6	0.053825	10.6711	-5.89621	0.976393
 117	1	5	0.095789	11.1334	-7.92329	0.783926
 118	1	5	0.095196	9.45004	-7.62729	0.668312
 119	1	7	0.084202	9.83288	-5.28546	0.590665
 120	1	7	0.07114	11.5729	-5.52906	0.536501
 121	1	3	-8e-06	10.9357	-5.20177	3.02745
 122	1	1	-0.400145	10.8278	-3.15481	3.91241
 123	1	6	0.053825	10.1244	-3.97865	3.0684
 124	1	5	0.095789	11.9738	-4.86063	2.90532
 125	1	5	0.095196	10.9311	-5.55696	4.0826
 126	1	7	0.084202	9.1276	-4.28627	3.34482
 127	1	7	0.07114	9.9662	-3.66355	2.04934
 128	1	3	-8e-06	10.5315	-3.12772	5.12891
 129	1	1	-0.400145	8.44977	-2.30108	5.23284
 130	1	6	0.053825	9.65731	-1.96489	5.60625
 131	1	5	0.095789	11.4447	-3.15722	5.69505
 132	1	5	0.095196	9.98365	-4.03276	5.4729
 133	1	7	0.084202	10.0521	-0.993244	5.2266
 134	1	7	0.07114	9.7481	-1.85548	6.6906
 135	1	3	-8e-06	7.70215	-1.39084	4.88131
 136	1	1	-0.400145	5.52448	-0.964141	4.34478
 137	1	6	0.053825	6.45583	-1.84128	4.13095
 138	1	5	0.095789	8.19987	-0.663006	4.23538
 139	1	5	0.095196	7.35715	-0.911374	5.80228
 140	1	7	0.084202	6.25062	-2.8311	4.52239
 141	1	7	0.07114	6.73688	-1.93271	3.0546
 142	1	3	-8e-06	4.3185	-1.21678	4.37231
 143	1	1	-0.400145	2.32442	-1.7769	5.39393
 144	1	6	0.053825	3.62669	-1.51667	5.69617
 145	1	5	0.095789	4.07521	-2.03829	3.70077
 146	1	5	0.095196	3.80218	-0.34836	3.97914
 147	1	7	0.084202	3.77801	-0.676747	6.37207
 148	1	7	0.07114	4.1142	-2.3466	6.16741
 149	1	3	-8e-06	1.59784	-2.27025	6.2424
 150	1	1	-0.400145	-0.0239573	-3.94609	5.93065
 151	1	6	0.053825	0.263412	-2.65068	5.65964
 152	1	5	0.095789	1.39832	-1.58285	7.06869
 153	1	5	0.095196	2.0379	-3.133	6.68738
 154	1	7	0.084202	0.350189	-2.39795	4.58112
 155	1	7	0.07114	-0.517745	-1.95918	6.00971
 156	1	3	-8e-06	-0.980222	-4.50386	5.35152
 157	1	1	-0.400145	-2.2703	-6.48842	5.5014
 158	1	6	0.053825	-1.85189	-5.4195	6.1956
 159	1	5	0.095789	-0.660935	-5.19683	4.51296
 160	1	5	0.095196	-1.7162	-3.79663	4.97337
 161	1	7	0.084202	-2.62193	-4.80452	6.62762
 162	1	7	0.07114	-1.25954	-5.71533	7.03982
 163	1	3	-8e-06	-3.42718	-6.44645	5.05727
 164	1	1	-0.400145	-5.63736	-6.75179	5.75394
 165	1	6	0.053825	-4.46331	-7.3464	5.69894
 166	1	5	0.095789	-3.40714	-6.71414	3.97973
 167	1	5	0.095196	-3.87516	-5.46039	5.13856
 168	1	7	0.084202	-3.98992	-7.51941	6.6891
 169	1	7	0.07114	-4.51675	-8.36546	5.20712
 170	1	3	-8e-06	-6.56132	-7.11027	4.9703
 171	1	1	-0.400145	-5.57399	-7.25907	2.96666
 172	1	6	0.053825	-6.59537	-6.59169	3.54569
 173	1	5	0.095789	-7.50916	-6.7531	5.3983
 174	1	5	0.095196	-6.57337	-8.25315	4.90054
 175	1	7	0.084202	-6.49126	-5.52211	3.64996
 176	1	7	0.07114	-7.59783	-6.68172	3.13042
 177	1	3	-8e-06	-5.63246	-7.87506	1.89894
 178	1	1	-0.400145	-4.63826	-6.29998	0.607888
 179	1	6	0.053825	-4.53066	-7.59362	0.968375
 180	1	5	0.095789	-6.55688	-7.69159	1.31624
 181	1	5	0.095196	-5.67081	-8.98054	2.08647
 182	1	7	0.084202	-4.64291	-8.29446	0.101715
 183	1	7	0.07114	-3.56777	-7.89849	1.48789
 184	1	3	-8e-06	-3.99752	-5.84906	-0.355448
 185	1	1	-0.400145	-2.04256	-4.72076	-0.987767
 186	1	6	0.053825	-2.93102	-4.74035	-0.0257412
 187	1	5	0.095789	-4.70214	-5.41169	-0.991707
 188	1	5	0.095196	-3.49028	-6.59247	-0.932456
 189	1	7	0.084202	-2.48103	-4.99975	0.950688
 190	1	7	0.07114	-3.47534	-3.79024	0.00816401
 191	1	3	-8e-06	-0.880991	-4.34692	-0.786227
 192	1	1	-0.400145	1.29896	-4.28333	-1.51428
 193	1	6	0.053825	0.0550985	-4.3826	-2.0015
 194	1	5	0.095789	-0.43347	-4.94314	0.0123989
 195	1	5	0.095196	-0.868111	-3.30033	-0.523047
 196	1	7	0.084202	-0.229766	-3.59279	-2.63701
 197	1	7	0.07114	-0.124156	-5.34697	-2.58189
 198	1	3	-8e-06	2.25978	-4.07891	-2.31399
 199	1	1	-0.400145	3.71327	-2.54782	-3.10373
 200	1	6	0.053825	2.45105	-2.61122	-2.73148
 201	1	5	0.095789	2.21016	-4.77973	-3.11935
 202	1	5	0.095196	3.21014	-4.32927	-1.81572
 203	1	7	0.084202	2.13821	-1.94257	-1.87484
 204	1	7	0.07114	1.69567	-2.42894	-3.50653
 205	1	3	-8e-06	4.1661	-1.5984	-3.75322
 206	1	1	-0.400145	6.12102	-0.859605	-4.79057
 207	1	6	0.053825	5.51862	-1.96295	-4.27426
 208	1	5	0.095789	4.32376	-0.722865	-3.10765
 209	1	5	0.095196	3.54336	-1.22513	-4.54442
 210	1	7	0.084202	5.34577	-2.787	-4.96094
 211	1	7	0.07114	6.04277	-2.38333	-3.40862
 212	1	3	-8e-06	7.02247	-1.03949	-5.60657
 213	1	1	-0.400145	8.59553	-0.27689	-7.10087
 214	1	6	0.053825	7.64239	0.219828	-6.29277
 215	1	5	0.095789	6.6656	-1.72983	-6.35892
 216	1	5	0.095196	7.91375	-1.43739	-5.12547
 217	1	7	0.084202	8.06965	0.842096	-5.51181
 218	1	7	0.07114	6.8408	0.687834	-6.82241
 219	1	3	-8e-06	9.01996	0.365597	-8.10759
 220	1	1	-0.400145	8.4529	0.746569	-10.5104
 221	1	6	0.053825	7.99475	0.594652	-9.22966
 222	1	5	0.095789	9.86329	-0.154083	-8.58567
 223	1	5	0.095196	9.32574	1.33379	-7.82313
 224	1	7	0.084202	7.30723	1.40652	-8.87571
 225	1	7	0.07114	7.34134	-0.288699	-9.11987
 226	1	3	-8e-06	7.74759	0.248302	-11.4304
 227	1	1	-0.400145	7.78272	-0.664408	-13.6165
 228	1	6	0.053825	8.35815	0.293897	-12.8547
 229	1	5	0.095789	6.74839	0.762442	-11.4626
 230	1	5	0.095196	7.53292	-0.78964	-11.2176
 231	1	7	0.084202	9.42618	0.138606	-12.772
 232	1	7	0.07114	8.22193	1.32486	-13.178
 233	1	3	-8e-06	7.96936	-0.537069	-14.8157
 234	1	1	-0.400145	7.66	-1.51631	-16.7724
 235	1	6	0.053825	7.90782	-1.87869	-15.5653
 236	1	5	0.095789	8.90893	-0.13795	-15.0879
 237	1	5	0.095196	7.20387	0.101241	-15.1873
 238	1	7	0.084202	7.1204	-2.46021	-15.0721
 239	1	7	0.07114	8.82951	-2.45839	-15.3719
 240	1	3	-8e-06	8.10951	-2.13412	-17.7189
 241	1	1	-0.400145	10.1328	-3.00661	-18.595
 242	1	6	0.053825	9.62341	-1.95764	-17.9957
 243	1	5	0.095789	7.53412	-1.82953	-18.5872
 244	1	5	0.095196	7.90342	-3.143	-17.5492
 245	1	7	0.084202	10.0818	-1.69384	-17.0933
 246	1	7	0.07114	9.6831	-0.99747	-18.5533
 247	1	3	-8e-06	10.9814	-3.67437	-18.0
 248	1	1	-0.400145	10.5683	-4.36677	-15.6673
 249	1	6	0.053825	10.6054	-4.76426	-16.9521
 250	1	5	0.095789	11.7413	-3.14318	-17.5558
 251	1	5	0.095196	11.4134	-4.28008	-18.809
 252	1	7	0.084202	11.3945	-5.54047	-17.1852
 253	1	7	0.07114	9.58637	-5.22073	-17.2638
 254	1	3	-8e-06	10.8116	-5.18012	-14.7748
 255	1	1	-0.400145	11.5017	-5.34603	-12.5851
 256	1	6	0.053825	11.1084	-4.47116	-13.4866
 257	1	5	0.095789	11.7153	-5.79954	-15.0295
 258	1	5	0.095196	9.98647	-5.89446	-14.6504
 259	1	7	0.084202	10.216	-3.952	-13.1893
 260	1	7	0.07114	11.8124	-3.70388	-13.7613
 261	1	3	-8e-06	11.2795	-5.27383	-11.3739
 262	1	1	-0.400145	11.038	-4.09907	-9.31844
 263	1	6	0.053825	11.0649	-3.93047	-10.6372
 264	1	5	0.095789	12.0773	-5.71319	-10.8643
 265	1	5	0.095196	10.3487	-5.90215	-11.0879
 266	1	7	0.084202	10.1188	-3.43281	-11.1148
 267	1	7	0.07114	11.9166	-3.38442	-10.897
 268	1	3	-8e-06	10.2399	-3.49417	-8.55015
 269	1	1	-0.400145	9.48833	-4.11117	-6.31845
 270	1	6	0.053825	10.4674	-3.63739	-7.06065
 271	1	5	0.095789	9.19541	-3.7264	-8.78987
 272	1	5	0.095196	10.4127	-2.4674	-8.69117
 273	1	7	0.084202	10.8178	-2.63906	-6.73268
 274	1	7	0.07114	11.3465	-4.32852	-6.96465
 275	1	3	-8e-06	9.68127	-4.16321	-5.05234
 276	1	1	-0.400145	10.3016	-3.25372	-3.11921
 277	1	6	0.053825	10.6583	-3.16783	-4.39282
 278	1	5	0.095789	10.0184	-5.16035	-4.74895
 279	1	5	0.095196	8.69719	-4.07054	-4.55995
 280	1	7	0.084202	10.5214	-2.15191	-4.80733
 281	1	7	0.07114	11.7753	-3.4239	-4.52559
 282	1	3	-8e-06	10.6914	-2.4473	-2.32991
 283	1	1	-0.400145	12.2579	-1.83209	-0.793033
 284	1	6	0.053825	11.5382	-2.92676	-1.16788
 285	1	5	0.095789	9.83793	-1.99564	-1.81091
 286	1	5	0.095196	11.2939	-1.68161	-2.85749
 287	1	7	0.084202	12.0505	-3.84837	-1.30051
 288	1	7	0.07114	10.8779	-3.20131	-0.41233
 289	1	3	-8e-06	13.463	-1.83891	-0.631137
 290	1	1	-0.400145	14.4709	-1.4117	1.51852
 291	1	6	0.053825	14.0146	-0.852895	0.42163
 292	1	5	0.095789	13.9547	-1.55443	-1.52729
 293	1	5	0.095196	13.8945	-2.79688	-0.238901
 294	1	7	0.084202	13.2603	-0.105856	0.586722
 295	1	7	0.07114	14.743	-0.276489	-0.117464
 296	1	3	-8e-06	13.7875	-1.2936	2.51682
 297	1	1	-0.400145	13.5424	-0.469344	4.63587
 298	1	6	0.053825	14.3858	-0.527931	3.63474
 299	1	5	0.095789	13.623	-2.34098	2.81616
 300	1	5	0.095196	12.826	-0.761946	2.39795
 301	1	7	0.084202	14.7044	0.502138	3.2812
 302	1	7	0.07114	15.2568	-1.05121	3.89063
 303	1	3	-8e-06	13.7836	0.372978	5.53606
 304	1	1	-0.400145	12.8034	2.11789	6.6555
 305	1	6	0.053825	13.0827	1.67413	5.42567
 306	1	5	0.095789	14.8595	0.630146	5.72345
 307	1	5	0.095196	13.3152	-0.106	6.40305
 308	1	7	0.084202	12.212	1.42603	4.77026
 309	1	7	0.07114	13.6204	2.35323	4.87738
 310	1	3	-8e-06	11.6908	1.86545	7.05073
 311	1	1	-0.400145	10.018	2.62709	5.67247
 312	1	6	0.053825	10.4888	2.92858	6.89773
 313	1	5	0.095789	11.6651	1.72586	8.10778
 314	1	5	0.095196	11.3198	0.927249	6.57528
 315	1	7	0.084202	10.9888	3.86101	6.96085
 316	1	7	0.07114	9.84117	2.81002	7.75229
 317	1	3	-8e-06	9.47634	3.49332	5.01438
 318	1	1	-0.400145	7.34841	3.55279	4.05464
 319	1	6	0.053825	8.46639	2.93132	3.97053
 320	1	5	0.095789	10.2565	4.08034	4.51757
 321	1	5	0.095196	8.90473	4.17647	5.63468
 322	1	7	0.084202	8.5513	1.87172	4.02782
 323	1	7	0.07114	8.7547	3.22409	2.95715
 324	1	3	-8e-06	6.26375	2.88027	3.98836
 325	1	1	-0.400145	5.34983	3.7888	2.11214
 326	1	6	0.053825	5.04297	3.5028	3.36921
 327	1	5	0.095789	6.03077	2.52567	4.91907
 328	1	5	0.095196	6.31917	2.03743	3.3815
 329	1	7	0.084202	4.74719	4.31052	4.06497
 330	1	7	0.07114	4.14841	2.8624	3.41201
 331	1	3	-8e-06	5.31999	4.95598	1.6551
 332	1	1	-0.400145	3.46193	5.56313	0.438199
 333	1	6	0.053825	3.91468	5.52054	1.67996
 334	1	5	0.095789	5.56389	5.09679	0.605772
 335	1	5	0.095196	6.06357	5.70149	2.12995
 336	1	7	0.084202	4.04178	6.54097	2.18065
 337	1	7	0.07114	3.3357	5.04962	2.51401
 338	1	3	-8e-06	2.46801	4.86756	0.243775
 339	1	1	-0.400145	0.676316	5.15198	-1.32799
 340	1	6	0.053825	2.01234	4.92804	-1.25883
 341	1	5	0.095789	1.48313	5.21811	0.807742
 342	1	5	0.095196	2.63146	3.732	0.380412
 343	1	7	0.084202	2.36766	3.88467	-1.52857
 344	1	7	0.07114	2.55768	5.5968	-1.86574
 345	1	3	-8e-06	-0.0357965	5.01578	-2.30887
 346	1	1	-0.400145	-0.787336	3.32094	-3.89619
 347	1	6	0.053825	-0.762773	3.61097	-2.57485
 348	1	5	0.095789	0.493989	5.21966	-3.207
 349	1	5	0.095196	-0.757157	5.74334	-2.18336
 350	1	7	0.084202	-1.80971	3.92764	-2.35701
 351	1	7	0.07114	-0.533711	2.82048	-1.81807
 352	1	3	-8e-06	-1.68145	2.63502	-4.43486
 353	1	1	-0.400145	-0.858303	0.413379	-4.63932
 354	1	6	0.053825	-1.79024	1.24782	-3.96635
 355	1	5	0.095789	-1.48043	2.59688	-5.58676
 356	1	5	0.095196	-2.67601	3.03909	-4.36236
 357	1	7	0.084202	-2.84912	1.01803	-4.03402
 358	1	7	0.07114	-1.67511	1.2412	-2.8339
 359	1	3	-0.232441	2.0097	1.26231	-3.5157
 360	1	8	0.444336	0.0393496	0.0348449	-3.95658
 361	1	3	-0.096823	1.29419	0.351476	-4.24954
 362	1	1	-0.491911	-0.0830722	-0.715321	-3.00278
 363	1	5	0.148316	3.10093	1.31071	-3.69862
 364	1	5	0.163898	1.40611	1.68255	-2.73375
 365	1	5	0.064625	1.72755	-0.160245	-5.15648

Velocities

   1	-0.00192525	-0.00649504	-0.00218911
   2	0.00841891	0.00204267	0.00615823
   3	0.00102004	-0.00217702	0.00227505
   4	-0.00123368	-0.0056905	0.00159024
   5	0.00384447	-0.00102581	0.00404773
   6	0.0166078	0.00537756	-0.00342567
   7	0.00508702	-0.000398607	0.000322619
   8	0.00702316	0.00747848	-0.00450898
   9	0.0039565	-0.00612403	-0.00334334
  10	-0.00124444	-0.00929246	-0.0046875
  11	0.00763747	-0.0041173	-0.00051805
  12	-0.00636172	-0.00734052	-0.00627639
  13	-0.00687482	-0.00795509	-0.0132093
  14	0.00943871	0.00432507	0.00236834
  15	0.00819498	-0.0211553	-0.00936757
  16	-0.00206279	-0.00635408	0.00201306
  17	-0.00440174	0.000671327	-0.00532611
  18	0.000224107	-0.00506237	0.00327321
  19	-0.0040376	-0.00768169	-0.00056704
  20	-0.000709572	-0.00771155	-0.00736778
  21	0.00477431	-0.00564553	-0.0119097
  22	0.00941974	0.0141342	0.00234731
  23	0.00427429	0.00388311	0.00261999
  24	-0.00212027	0.000547896	-0.00301596
  25	0.000427877	0.00330123	-0.000542314
  26	-0.000730055	0.0083076	0.00858335
  27	-0.0176914	0.0156769	0.00139394
  28	1.14511e-05	0.0285133	-0.0115401
  29	-0.00956908	0.00540311	-0.00882215
  30	0.00127066	-0.00963348	-0.00670276
  31	0.00783377	0.00308182	-0.00896787
  32	0.00253652	-0.000822084	-0.00594549
  33	-0.00358858	-0.00425293	-0.0215052
  34	-0.0108659	-0.0130307	0.00484308
  35	0.00326649	0.0133763	0.0106556
  36	-0.00620272	0.00446047	-0.0186353
  37	0.00547549	-0.00181396	-0.00188934
  38	-0.00376644	-0.000348962	-0.00427489
  39	-0.00357134	-0.00513772	-0.000394666
  40	-0.00262147	0.0144223	-0.0150587
  41	-0.0052929	-0.00439975	0.00318299
  42	-0.0198855	-0.0086448	-0.00177753
  43	-0.0011418	-3.44764e-06	0.0063793
  44	-0.00107824	-0.00463656	0.00226442
  45	-0.000501773	-0.00336999	-0.000934437
  46	-0.00210193	-0.00375769	0.00196071
  47	-0.00171135	-0.00899562	-0.00412412
  48	0.00198823	0.00305476	-0.0105369
  49	0.0111718	-0.00145864	-0.00301936
  50	0.00747006	-0.00540372	0.00432976
  51	0.000418663	-0.00235773	-0.00038342
  52	0.00829815	-0.00756735	5.76622e-05
  53	0.0060145	-0.00387071	0.00205529
  54	0.00409098	-0.00766062	-0.0160326
  55	-0.0126638	0.00222785	-0.00342128
  56	0.0064509	0.0021864	0.00359583
  57	0.00708187	0.0162248	-0.0016181
  58	0.00409944	-0.000523127	0.00243227
  59	0.000514936	-0.0019697	0.000625512
  60	0.00241732	0.00416969	0.00183914
  61	0.00457036	0.0076287	0.00961449
  62	0.0095518	-0.001139	0.0120524
  63	0.00287462	0.0197873	-0.00497704
  64	0.00541937	0.0067543	0.00553788
  65	0.00238052	0.00109555	0.000672381
  66	-0.000442252	-0.00203646	0.00492318
  67	0.00744245	0.00220494	0.00417182
  68	-0.00240051	0.0133618	0.000849336
  69	0.000612897	-0.00330394	0.00199925
  70	0.00502886	0.00810172	-0.000760814
  71	0.00528846	0.00819083	0.00845275
  72	0.00238803	-0.00198904	-0.00094909
  73	0.00348704	-0.00809218	-0.00490725
  74	0.010467	-0.00569329	-0.00314422
  75	-0.00365276	0.00200971	-0.00681011
  76	0.00753624	0.00353957	-0.0105113
  77	1.76469e-05	-0.00860605	0.000302325
  78	0.012777	-0.00473159	0.00714613
  79	0.00278819	-0.0056141	-0.00443043
  80	0.00329279	-0.00431957	0.00253044
  81	0.00792573	-0.00307814	0.00463416
  82	-0.00410517	-0.012676	-0.0139113
  83	0.01617	0.00339481	-0.00147038
  84	0.0131181	0.0107393	-0.00467051
  85	-0.0208729	0.000806939	-0.00710628
  86	0.0117372	-0.0020345	0.00639337
  87	0.00300593	0.00278681	-0.00416691
  88	0.00151712	-0.00165584	-0.00202944
  89	0.0255892	-0.0112124	0.00382577
  90	0.00893906	0.0101416	0.00408878
  91	0.00207266	-0.00828277	-0.00418134
  92	-0.0152195	0.00028539	0.00159217
  93	0.00631588	-0.00364662	-0.00657082
  94	-0.00444409	-0.00468323	0.00148083
  95	0.00112833	-0.00196454	-0.00334203
  96	-0.00270938	-0.00125763	-0.000748709
  97	0.00938946	-0.00996443	0.00791355
  98	8.12417e-05	0.000900191	-0.0154777
  99	-0.0149075	0.0106343	-0.00283105
 100	-0.00607356	0.000196234	-0.00176746
 101	-0.00073676	0.00146916	-0.00141484
 102	0.00124932	0.0109103	-0.00992297
 103	5.82835e-05	0.00396135	-0.0054672
 104	-0.00716869	-0.0104487	0.0049836
 105	-0.00382333	0.00922927	-0.0186677
 106	-0.00980287	-0.00712244	-0.0102804
 107	-0.00320158	0.000572223	0.00401002
 108	0.0089271	-0.00324125	0.00191062
 109	-0.00300435	0.00097068	0.00965924
 110	0.00423349	-0.00118073	0.00572248
 111	-0.0186726	0.00959774	0.00518654
 112	0.00937414	0.0069342	0.0221776
 113	-0.0183216	0.0078147	0.0257479
 114	-0.00102041	-0.00378849	0.00188091
 115	0.000845244	0.000657487	0.00303266
 116	0.00351796	-0.00748825	0.00868855
 117	0.0121118	0.0158898	0.0218975
 118	-0.012228	0.000229982	-0.0160124
 119	0.00542368	-0.00642562	0.00441221
 120	0.0135933	0.0150425	0.00481495
 121	4.81787e-05	0.0114736	-0.00583441
 122	0.0011412	0.00231166	0.00495792
 123	-0.00654888	-0.00047296	-0.00465534
 124	0.0030221	-0.00626998	0.00630871
 125	0.0204148	0.0148629	0.0171276
 126	0.0118321	-0.0123591	-0.00738966
 127	0.00819438	-0.00992834	-0.00556368
 128	-0.00362412	0.00220273	-0.00686651
 129	0.00496672	0.0043908	0.00888527
 130	0.00348103	0.00485281	0.00446025
 131	0.00644953	0.00380153	-0.0109038
 132	0.00920835	-0.000765087	0.0110103
 133	0.0106697	0.00369698	-0.000264277
 134	0.00310132	0.00527278	-0.00970318
 135	-0.00203433	-0.000121413	0.00528864
 136	-0.0014993	0.00307123	-0.000498883
 137	0.00945763	-0.00064172	7.99609e-05
 138	0.00315182	0.000708586	0.0045195
 139	0.0130311	0.00743258	0.00711345
 140	-0.00505405	-0.00662658	0.00292573
 141	0.0188335	0.0148105	0.00520162
 142	0.00106366	-0.00336989	0.00660448
 143	0.00178192	-0.000650584	0.00457623
 144	-0.00810957	0.00230849	-0.000769315
 145	0.00436245	-0.000934308	0.0162435
 146	-0.00717063	0.0107648	0.00414241
 147	-0.00822753	-0.00898466	-0.011441
 148	0.00447638	0.0117636	-0.00526817
 149	0.000369874	-0.00106409	0.00393202
 150	0.00524527	-0.00364204	0.00210229
 151	-8.22643e-05	-0.00405607	0.0105448
 152	-0.00721114	-0.0136598	-0.00356793
 153	-0.0134148	0.00451238	0.0186636
 154	0.00576295	-0.0273795	0.0154128
 155	0.00211945	0.0151951	-0.0162604
 156	-0.0011903	-0.00687624	-0.00140046
 157	0.00512405	-0.00774981	0.00878443
 158	0.0101731	-0.00312803	0.0054534
 159	-0.00837372	0.000869481	-0.00304741
 160	0.0115978	0.00643382	-0.00287513
 161	-0.00648601	-0.00713623	0.00583636
 162	0.00407112	-0.00845171	-0.00529418
 163	0.00103896	0.00201215	0.000408365
 164	0.00457325	-0.00330063	-0.00413712
 165	0.00149134	-0.000118612	-0.00330051
 166	0.00408654	-0.00543824	-0.0111912
 167	0.0281174	0.00543902	-0.00716429
 168	0.0307713	-0.0102199	0.0075396
 169	0.00517551	0.0119131	-0.0153367
 170	0.00117484	-0.00962222	0.000561351
 171	-0.000447535	-0.00975514	0.00465399
 172	-0.00455919	-0.00832644	-0.0040584
 173	0.00623413	-0.0181105	0.000501341
 174	-0.00325089	-0.010252	-0.0181733
 175	-0.00389283	0.0133292	0.0148447
 176	0.000570295	-0.0148126	-0.011149
 177	0.00387216	-0.0141534	0.00121659
 178	-0.00307839	-0.0067557	-0.00534715
 179	-0.00368763	-0.00803661	0.00600759
 180	-0.00299065	-0.0170928	-0.0012389
 181	0.0120325	0.00351582	0.000380443
 182	0.0158374	-0.0140128	0.00165382
 183	0.0149509	-0.0124981	-0.000137992
 184	0.00525469	-0.00779484	0.00189363
 185	0.00190654	-0.00730862	-0.00045763
 186	0.0053996	-0.00842697	0.00328292
 187	-0.00425409	-0.00639569	-0.0185335
 188	-0.00834431	-0.0170516	-0.00264566
 189	0.0140758	0.00558092	-0.00515659
 190	-0.0121996	-0.0119222	0.00501357
 191	0.00442627	0.000449716	-0.00750854
 192	-0.00032459	0.00596884	-0.00250569
 193	0.00367534	-0.0077164	-0.00319239
 194	0.00108246	-0.0167347	-0.0131953
 195	-0.00552612	0.00943949	-0.00611825
 196	-0.000258747	0.000547391	-0.0215807
 197	0.0250783	-0.00965108	-0.0108046
 198	-0.00312834	-0.00216374	-0.0037641
 199	0.00110915	-0.0107669	0.000175918
 200	-0.00234272	-0.00174961	0.00384272
 201	0.00221329	-0.00259058	0.0318482
 202	0.00275508	-0.0170717	-0.00453234
 203	0.0186823	-0.00601195	0.0100188
 204	0.00705298	-0.00998076	0.00225501
 205	-0.000547898	-0.00142417	0.00262934
 206	-0.0114682	0.00727152	-0.002944
 207	-0.000978408	0.00833986	-0.00251582
 208	-0.00557815	0.00429344	0.0132816
 209	-0.0191091	0.0146938	0.0010466
 210	0.0277687	0.00714212	-0.00740373
 211	-0.00324293	0.0211403	-0.00150122
 212	0.00286629	0.00712239	-0.0022677
 213	0.00110997	0.00262524	0.00509571
 214	0.0032637	0.00256298	-0.000871867
 215	-0.00135396	-0.00972074	-0.0252721
 216	0.0134576	-0.00226494	-0.0103729
 217	0.00491633	-0.00970304	0.0107884
 218	0.0218741	-0.00672293	0.00694026
 219	-0.00183183	0.00717809	0.00281499
 220	0.00829722	-0.00304873	-0.00466195
 221	-0.00040552	-0.000867727	-0.00470102
 222	0.0127836	-0.0122552	0.0196571
 223	0.00602599	-0.0139123	-0.006944
 224	-0.0178439	0.00526406	-0.00293559
 225	-0.00443804	-0.00205244	0.00218574
 226	0.00360587	-0.00671996	-0.00447095
 227	-0.00590384	0.00888635	0.00238238
 228	0.00145882	-0.00176521	0.002491
 229	0.025374	0.0107678	0.00996474
 230	-0.00669709	-0.00134049	0.00186479
 231	0.0229839	-0.00715306	0.00497112
 232	0.00641116	0.00536583	-0.00424481
 233	0.000224074	0.00655322	0.000517334
 234	0.00427669	0.00343786	0.00368228
 235	0.00628344	0.00706319	0.00469031
 236	8.13019e-05	0.0158821	0.00828399
 237	-0.00941102	0.00678489	0.012503
 238	-0.00308412	0.0110567	0.00277071
 239	0.00345978	0.00521172	-0.0092672
 240	-0.000212006	-0.00145617	-0.0062322
 241	0.00295387	-0.00154448	-0.00224351
 242	0.00493139	-0.000916809	0.00345621
 243	-0.0335272	-0.0142271	0.00453693
 244	0.0178884	-0.000835458	-0.00928607
 245	-0.00878277	0.0108613	0.0232088
 246	-0.0132099	-0.00503617	-0.00303951
 247	0.00288063	0.00238011	-0.00405442
 248	-0.00213735	0.0070053	0.00407255
 249	0.000372297	0.0066899	-0.00453152
 250	-0.00723701	0.0244699	-0.00999426
 251	0.0282487	0.0130808	-0.0268273
 252	0.00399303	0.00391768	0.0214511
 253	0.0277239	0.0368094	0.00117498
 254	0.00196514	-0.0028553	-0.00594579
 255	-0.00253665	0.000884719	-0.00809898
 256	0.00664609	0.00560954	-0.0112331
 257	-0.0104278	0.00155103	-0.0115083
 258	-0.00920528	0.0265035	7.3402e-05
 259	-0.0210864	-0.00336344	0.0067694
 260	0.00857	0.00422423	0.00157903
 261	0.0072373	0.00962678	-0.00586214
 262	-0.00363072	0.00269057	0.00333173
 263	0.00158242	0.00525922	-0.00468911
 264	0.016402	0.0125267	-0.0293005
 265	0.0166643	0.0345268	-0.0155103
 266	0.00565451	0.0216991	-0.0237913
 267	0.0101246	-0.0120938	0.003447
 268	0.013235	0.00697862	0.00278765
 269	0.00359399	-0.00139651	0.00143807
 270	-0.00568682	0.00704339	0.00890836
 271	0.0125554	-0.0109034	-0.00646756
 272	0.0150335	-0.0213758	-0.00486158
 273	0.00844707	-0.0203506	-0.0133169
 274	0.00654963	-0.0136565	0.0193047
 275	-0.00347987	0.00901414	-0.00184656
 276	4.73093e-05	-0.000397673	0.00200469
 277	0.00563958	0.00453503	-0.00396122
 278	0.0175427	-0.0276316	-0.00133052
 279	0.0217112	-0.0034616	0.00264842
 280	-0.0451836	-0.000711198	0.0308815
 281	0.010498	0.0273591	-0.0267016
 282	0.00367505	0.00554152	0.00358762
 283	0.00602906	0.00332043	0.000716709
 284	0.00417309	-0.00208469	-0.00159627
 285	-0.0297179	0.0386147	-0.0178472
 286	-0.0307612	0.00775902	0.0164447
 287	-0.0173182	-0.0267421	0.0173787
 288	-0.00654536	-0.000381513	0.0180694
 289	-0.000836605	0.00395238	0.000926548
 290	0.00684059	0.0102111	0.0108441
 291	-0.0039867	-0.005236	-0.00305968
 292	0.0134195	-0.00435964	-0.0126372
 293	-0.010231	-0.000236828	-0.00413417
 294	-0.0123222	-0.0214281	0.0134657
 295	0.031894	0.0192851	0.0110959
 296	0.00225861	0.0075808	0.00439222
 297	0.000999753	0.00029301	-0.00618234
 298	-0.00868218	0.00139882	-0.0157613
 299	-0.0377806	0.0256395	-0.0092773
 300	0.0119429	0.0194447	0.0059881
 301	0.0108702	0.00875161	-0.00883566
 302	0.0158041	-0.0124373	0.021906
 303	0.00352725	0.00768213	-0.000583557
 304	-0.0037026	0.00580868	1.09374e-05
 305	-0.00361267	-0.00768196	-0.00449693
 306	-0.0275047	0.00702502	0.00507638
 307	-0.0268076	0.00947479	0.0228093
 308	0.0291796	-0.00571816	0.0187877
 309	-0.0143534	0.0367304	-0.0522249
 310	0.00315214	0.00233638	0.00733353
 311	-0.00571846	0.00365771	-0.00196529
 312	0.00810356	-0.00177519	-0.0125055
 313	-0.0145847	0.0317065	-0.0150342
 314	-0.00913862	0.0293155	0.0158723
 315	0.0360585	0.0210764	0.0142881
 316	0.0242841	-0.00889946	-0.0634463
 317	0.00435213	0.00364805	-0.00142646
 318	0.00567155	0.00169102	0.00262833
 319	-0.00529779	0.00341715	-0.00634594