pySIMM System Object

92 atoms
91 bonds
162 angles
115 dihedrals
1 impropers

8 atom types
12 bond types
22 angle types
5 dihedral types
1 improper types

-57.669803 57.669803 xlo xhi
-57.669803 57.669803 ylo yhi
-57.669803 57.669803 zlo zhi

Masses

   1	16.0	# o
   2	12.01	# c
   3	12.01	# c2
   4	12.01	# ce
   5	1.008	# ha
   6	12.01	# c3
   7	1.008	# h1
   8	12.01	# c1

Pair Coeffs

   1	0.21	2.959921901149463	# o
   2	0.086	3.3996695084235347	# c
   3	0.086	3.3996695084235347	# c2
   4	0.086	3.3996695084235347	# ce
   5	0.015	2.59964245953351	# ha
   6	0.1094	3.3996695084235347	# c3
   7	0.0157	2.471353044121301	# h1
   8	0.21	3.3996695084235347	# c1

Bond Coeffs

   1	343.1	1.0879	# c2,ha
   2	547.3	1.3461	# c2,ce
   3	342.5	1.0883	# ce,ha
   4	354.5	1.4825	# c,ce
   5	637.7	1.2183	# c,o
   6	449.9	1.3165	# c3,o
   7	326.8	1.5095	# c2,c3
   8	330.6	1.0969	# c3,h1
   9	622.9	1.2247	# c2,o
  10	625.0	1.307	# c1,c2
  11	758.1	1.1724	# c1,o
  12	569.4	1.3343	# c2,c2

Angle Coeffs

   1	38.11	116.9	# ha,c2,ha
   2	49.51	120.45	# ce,c2,ha
   3	49.61	119.94	# c2,ce,ha
   4	46.52	116.46	# c,ce,ha
   5	65.45	120.42	# c,ce,c2
   6	68.83	123.2	# ce,c,o
   7	77.94	130.25	# o,c,o
   8	47.07	109.96	# c2,c3,h1
   9	68.15	110.35	# c2,c3,o
  10	45.94	115.68	# c3,c2,ha
  11	39.24	108.46	# h1,c3,h1
  12	52.64	116.45	# h1,c3,o
  13	65.83	113.14	# c2,o,c
  14	67.92	122.82	# c3,c2,o
  15	55.28	117.23	# ha,c2,o
  16	65.83	113.14	# c2,o,c3
  17	62.94	179.5	# c2,c1,o
  18	70.06	121.62	# c1,c2,c2
  19	49.85	120.43	# c2,c2,ha
  20	50.62	120.42	# c1,c2,ha
  21	65.83	113.14	# c3,o,c1
  22	68.89	180.0	# o,c1,o

Dihedral Coeffs

   1	1	6.65	2	180	# X,c2,ce,X
   2	1	2.175	2	180	# X,c,ce,X
   3	1	0.0	2	0	# X,c2,c3,X
   4	1	6.65	2	180	# X,c2,c2,X
   5	1	0.0	2	180	# X,c1,c2,X

Improper Coeffs

   1	10.5	-1	2	# c,X,X,o

Atoms

   1	1	1	-0.104756	0.0177468	-4.902	12.9913
   2	1	1	-0.569213	0.11975	-5.68558	15.0271
   3	1	2	0.789146	0.0620515	-4.75229	14.2228
   4	1	3	-0.154228	-0.579036	-3.19607	16.0102
   5	1	4	-0.389642	-0.0450842	-3.41371	14.7985
   6	1	5	0.157325	-0.853808	-2.17349	16.2967
   7	1	5	0.138289	-0.982884	-3.96475	16.6579
   8	1	5	0.133078	0.111075	-2.49736	14.1695
   9	1	3	-8e-06	-0.93538	-5.46083	12.4548
  10	1	1	-0.400145	-1.1399	-7.10116	10.9428
  11	1	6	0.053825	-0.878537	-6.96658	12.2108
  12	1	5	0.095789	-1.10842	-4.99796	11.4904
  13	1	5	0.095196	-1.85162	-5.36706	13.0479
  14	1	7	0.084202	-1.62659	-7.5279	12.9117
  15	1	7	0.07114	0.141717	-7.34841	12.55
  16	1	3	-8e-06	-1.4272	-8.23118	10.5185
  17	1	1	-0.400145	-0.134012	-8.39953	8.56708
  18	1	6	0.053825	-1.41588	-8.40043	8.98083
  19	1	5	0.095789	-2.44913	-8.59582	10.8919
  20	1	5	0.095196	-0.729839	-8.96727	10.9491
  21	1	7	0.084202	-2.11458	-7.63267	8.60073
  22	1	7	0.07114	-1.87557	-9.38062	8.73658
  23	1	3	-8e-06	0.373365	-7.29453	8.16337
  24	1	1	-0.400145	2.20234	-6.63637	6.79013
  25	1	6	0.053825	1.87247	-7.32494	7.86564
  26	1	5	0.095789	0.178787	-6.52018	8.86945
  27	1	5	0.095196	-0.180586	-6.9884	7.27965
  28	1	7	0.084202	2.08895	-8.38353	7.75399
  29	1	7	0.07114	2.45713	-6.90241	8.70774
  30	1	3	-8e-06	2.94017	-7.08551	5.9025
  31	1	1	-0.400145	3.17247	-7.35602	3.69167
  32	1	6	0.053825	2.67927	-6.49191	4.51838
  33	1	5	0.095789	2.75097	-8.16655	5.7774
  34	1	5	0.095196	3.97744	-7.03669	6.14262
  35	1	7	0.084202	3.1957	-5.49637	4.5331
  36	1	7	0.07114	1.5636	-6.40708	4.54102
  37	1	3	-8e-06	2.45234	-8.0893	3.0225
  38	1	1	-0.400145	2.95395	-10.2383	2.38294
  39	1	6	0.053825	3.22658	-8.97328	2.0706
  40	1	5	0.095789	1.82287	-7.41544	2.39532
  41	1	5	0.095196	1.78571	-8.73614	3.5582
  42	1	7	0.084202	4.30541	-8.69204	2.30542
  43	1	7	0.07114	3.11865	-8.62384	1.02956
  44	1	3	-8e-06	3.73578	-11.0368	1.91102
  45	1	1	-0.400145	5.01625	-12.7435	2.09165
  46	1	6	0.053825	4.21478	-12.0375	2.86352
  47	1	5	0.095789	4.65178	-10.6032	1.4404
  48	1	5	0.095196	3.22884	-11.612	1.17381
  49	1	7	0.084202	3.32555	-12.5393	3.2447
  50	1	7	0.07114	4.69314	-11.5862	3.73821
  51	1	3	-8e-06	5.94521	-13.3509	2.62029
  52	1	1	-0.400145	6.96501	-11.3915	3.16453
  53	1	6	0.053825	7.1667	-12.7182	3.15851
  54	1	5	0.095789	6.18348	-14.1189	1.89414
  55	1	5	0.095196	5.56639	-13.9061	3.49924
  56	1	7	0.084202	8.05604	-13.0382	2.4794
  57	1	7	0.07114	7.31635	-13.2559	4.08371
  58	1	3	-8e-06	7.89142	-10.654	3.56016
  59	1	1	-0.400145	8.12323	-9.24099	5.44862
  60	1	6	0.053825	7.46437	-9.37876	4.25488
  61	1	5	0.095789	8.50433	-10.3186	2.71164
  62	1	5	0.095196	8.58025	-11.1833	4.26069
  63	1	7	0.084202	6.37103	-9.38742	4.39945
  64	1	7	0.07114	7.66774	-8.5201	3.59415
  65	1	3	-8e-06	7.84848	-8.27141	6.17539
  66	1	1	-0.400145	6.36569	-7.14788	7.45665
  67	1	6	0.053825	6.55684	-8.34766	6.93401
  68	1	5	0.095789	7.76063	-7.30509	5.65462
  69	1	5	0.095196	8.60955	-8.07498	6.80986
  70	1	7	0.084202	6.641	-9.17084	7.59764
  71	1	7	0.07114	5.7735	-8.73222	6.23024
  72	1	3	-8e-06	6.46507	-6.9644	8.69878
  73	1	1	-0.400145	6.18856	-5.38552	10.4759
  74	1	6	0.053825	6.45818	-5.55061	9.15192
  75	1	5	0.095789	7.33414	-7.36005	9.10854
  76	1	5	0.095196	5.68452	-7.44492	9.20093
  77	1	7	0.084202	5.77709	-5.04275	8.46853
  78	1	7	0.07114	7.35992	-4.98698	8.76541
  79	1	3	-8e-06	5.0448	-5.16146	10.963
  80	1	1	-0.400145	3.90399	-4.94379	13.0467
  81	1	6	0.053825	5.09077	-4.84881	12.4877
  82	1	5	0.095789	4.4166	-5.98755	10.7133
  83	1	5	0.095196	4.62367	-4.32141	10.4328
  84	1	7	0.084202	5.5795	-3.88022	12.5232
  85	1	7	0.07114	5.92539	-5.46471	12.9731
  86	1	3	-0.232441	3.01524	-3.98898	15.627
  87	1	8	0.444336	3.23216	-4.00145	13.2494
  88	1	3	-0.096823	3.14462	-3.36121	14.4206
  89	1	1	-0.491911	2.55844	-3.56512	12.4
  90	1	5	0.148316	3.00761	-3.40659	16.6035
  91	1	5	0.163898	2.86754	-5.07934	15.6104
  92	1	5	0.064625	3.30698	-2.31298	14.4027

Velocities

   1	-0.00192978	0.00679519	-0.00124421
   2	-0.00918421	-0.0058111	0.001634
   3	0.00640831	0.00458096	0.000721218
   4	0.00305328	0.00294345	-0.0102674
   5	0.0100088	-0.00166547	0.00319534
   6	0.014193	0.0117284	-0.00352275
   7	-0.0145739	0.0258202	-0.0149478
   8	0.0136855	-0.0139941	0.00326742
   9	0.00489572	-0.00120239	0.00755592
  10	0.00952489	-0.00727535	0.00503807
  11	0.00344057	0.00339062	0.0029969
  12	0.0170994	0.0125411	-0.00600271
  13	0.0118133	-0.0213061	0.0199471
  14	0.00674844	-0.00574278	0.00645654
  15	0.0124348	0.00874196	0.0126164
  16	0.00117301	-0.00254157	-0.0035361
  17	-0.00231089	0.00145962	-0.00382033
  18	0.000215406	0.000904392	0.00692461
  19	-0.0218603	0.00564838	0.0348952
  20	0.00397547	0.0011068	-0.00923467
  21	0.00423617	0.00015206	0.00838632
  22	0.00133405	0.0119743	-0.00523068
  23	-0.00543475	-0.00140409	0.00234345
  24	0.00481793	0.000681169	0.00912841
  25	0.00306261	0.00150766	0.00192701
  26	-0.0221043	0.00930498	0.0126658
  27	-0.00515155	0.00802442	-0.00477631
  28	-0.00786449	0.0090103	0.00566651
  29	-0.00337773	-0.00534018	-0.0107501
  30	0.00263761	-0.00080678	0.000645335
  31	0.00317829	0.00316927	0.00789372
  32	0.00562419	0.000303116	0.00329541
  33	-0.0188277	-0.000513535	0.00811411
  34	0.0138656	0.0158977	0.0021385
  35	-0.0128357	-0.0194236	0.000335617
  36	0.00303467	-0.0136501	0.012842
  37	0.0063399	-0.00146318	0.0070035
  38	-0.00173517	0.00117651	0.00396502
  39	-0.00196615	-0.00483967	0.00211206
  40	0.000920639	-0.00872802	0.0156676
  41	0.00730988	0.0099308	-0.00307448
  42	0.0165925	-0.0161693	-0.00472995
  43	-0.00251216	0.00452541	0.00383074
  44	-0.00352628	-0.00595424	0.00736425
  45	0.0042338	-0.0066448	0.00255501
  46	0.000529328	-0.00913282	0.0096823
  47	0.0214115	-0.0083713	-0.0185219
  48	-0.0122413	-0.0228152	0.0236248
  49	-0.0227241	0.00248456	-0.0307104
  50	-0.00704914	-0.00104436	0.00160363
  51	-0.000126249	-0.00922633	0.00115105
  52	-0.0071335	-0.00724287	0.000259176
  53	-0.00325794	0.000363735	0.00445372
  54	0.0114639	0.0215432	-0.00241217
  55	0.00561674	-0.0058034	0.0123033
  56	-0.0275833	-0.010488	-0.00414676
  57	-0.00770239	-0.0126597	0.0164267
  58	0.0029883	-0.0190443	0.00215033
  59	-0.00279573	-0.00697436	-0.0046309
  60	0.00418578	-0.00592115	0.00782344
  61	-0.00471957	-0.0066212	-0.00837403
  62	0.000587349	0.00919573	-0.02442
  63	-0.0194382	-0.00412553	-0.00625671
  64	3.20082e-05	-0.0211865	-0.0065265
  65	0.00201037	-0.00620315	-0.00352323
  66	-0.00266482	-0.00362511	-0.000177998
  67	-0.00732172	-0.000281496	0.000227968
  68	0.0108375	0.00484703	0.00750262
  69	-0.038452	0.0157593	0.0123214
  70	-0.000638609	-0.00571773	-0.0136226
  71	-0.0097019	-0.00226758	0.0160746
  72	-0.00629118	-0.00969007	-0.00664833
  73	-0.000874845	0.00151736	0.00343752
  74	-0.00604853	-0.00309033	-0.00189069
  75	-0.0076035	0.00837157	-0.0114068
  76	0.00572834	-0.00322187	0.026764
  77	-0.0239354	0.00688352	0.00432965
  78	-0.00153962	-0.00390729	-0.00699823
  79	0.00397568	-0.00469451	0.0020144
  80	-0.000370808	0.00393147	0.00132281
  81	0.00662138	-0.000713168	0.00363738
  82	0.00521972	0.00906042	0.020478
  83	-0.000380556	-0.00639458	-0.0218927
  84	0.00583985	0.00378928	0.00356186
  85	-0.0143605	-0.00146576	0.0149361
  86	0.00151963	0.00882831	0.00368627
  87	0.0134254	-0.00366862	0.00292177
  88	0.00292562	0.000397954	-0.00127891
  89	0.00145092	0.00893387	-0.00777263
  90	0.0241963	0.00494475	0.0212937
  91	-0.0407078	0.00514324	0.0279382
  92	0.0280156	0.01812	0.0100796

Bonds

   1	5	1	3
   2	5	2	3
   3	4	3	5
   4	2	4	5
   5	1	4	6
   6	1	4	7
   7	3	5	8
   8	7	9	11
   9	1	9	12
  10	1	9	13
  11	6	10	11
  12	8	11	14
  13	8	11	15
  14	9	1	9
  15	7	16	18
  16	1	16	19
  17	1	16	20
  18	6	17	18
  19	8	18	21
  20	8	18	22
  21	9	10	16
  22	7	23	25
  23	1	23	26
  24	1	23	27
  25	6	24	25
  26	8	25	28
  27	8	25	29
  28	9	17	23
  29	7	30	32
  30	1	30	33
  31	1	30	34
  32	6	31	32
  33	8	32	35
  34	8	32	36
  35	9	24	30
  36	7	37	39
  37	1	37	40
  38	1	37	41
  39	6	38	39
  40	8	39	42
  41	8	39	43
  42	9	31	37
  43	7	44	46
  44	1	44	47
  45	1	44	48
  46	6	45	46
  47	8	46	49
  48	8	46	50
  49	9	38	44
  50	7	51	53
  51	1	51	54
  52	1	51	55
  53	6	52	53
  54	8	53	56
  55	8	53	57
  56	9	45	51
  57	7	58	60
  58	1	58	61
  59	1	58	62
  60	6	59	60
  61	8	60	63
  62	8	60	64
  63	9	52	58
  64	7	65	67
  65	1	65	68
  66	1	65	69
  67	6	66	67
  68	8	67	70
  69	8	67	71
  70	9	59	65
  71	7	72	74
  72	1	72	75
  73	1	72	76
  74	6	73	74
  75	8	74	77
  76	8	74	78
  77	9	66	72
  78	7	79	81
  79	1	79	82
  80	1	79	83
  81	6	80	81
  82	8	81	84
  83	8	81	85
  84	9	73	79
  85	12	86	88
  86	1	86	90
  87	1	86	91
  88	10	87	88
  89	11	87	89
  90	1	88	92
  91	11	80	87

Angles

   1	7	1	3	2
   2	6	1	3	5
   3	6	2	3	5
   4	2	5	4	6
   5	2	5	4	7
   6	1	6	4	7
   7	5	3	5	4
   8	4	3	5	8
   9	3	4	5	8
  10	10	11	9	12
  11	10	11	9	13
  12	1	12	9	13
  13	9	9	11	10
  14	8	9	11	14
  15	8	9	11	15
  16	12	10	11	14
  17	12	10	11	15
  18	11	14	11	15
  19	13	3	1	9
  20	14	1	9	11
  21	15	1	9	12
  22	15	1	9	13
  23	10	18	16	19
  24	10	18	16	20
  25	1	19	16	20
  26	9	16	18	17
  27	8	16	18	21
  28	8	16	18	22
  29	12	17	18	21
  30	12	17	18	22
  31	11	21	18	22
  32	16	11	10	16
  33	14	10	16	18
  34	15	10	16	19
  35	15	10	16	20
  36	10	25	23	26
  37	10	25	23	27
  38	1	26	23	27
  39	9	23	25	24
  40	8	23	25	28
  41	8	23	25	29
  42	12	24	25	28
  43	12	24	25	29
  44	11	28	25	29
  45	16	18	17	23
  46	14	17	23	25
  47	15	17	23	26
  48	15	17	23	27
  49	10	32	30	33
  50	10	32	30	34
  51	1	33	30	34
  52	9	30	32	31
  53	8	30	32	35
  54	8	30	32	36
  55	12	31	32	35
  56	12	31	32	36
  57	11	35	32	36
  58	16	25	24	30
  59	14	24	30	32
  60	15	24	30	33
  61	15	24	30	34
  62	10	39	37	40
  63	10	39	37	41
  64	1	40	37	41
  65	9	37	39	38
  66	8	37	39	42
  67	8	37	39	43
  68	12	38	39	42
  69	12	38	39	43
  70	11	42	39	43
  71	16	32	31	37
  72	14	31	37	39
  73	15	31	37	40
  74	15	31	37	41
  75	10	46	44	47
  76	10	46	44	48
  77	1	47	44	48
  78	9	44	46	45
  79	8	44	46	49
  80	8	44	46	50
  81	12	45	46	49
  82	12	45	46	50
  83	11	49	46	50
  84	16	39	38	44
  85	14	38	44	46
  86	15	38	44	47
  87	15	38	44	48
  88	10	53	51	54
  89	10	53	51	55
  90	1	54	51	55
  91	9	51	53	52
  92	8	51	53	56
  93	8	51	53	57
  94	12	52	53	56
  95	12	52	53	57
  96	11	56	53	57
  97	16	46	45	51
  98	14	45	51	53
  99	15	45	51	54
 100	15	45	51	55
 101	10	60	58	61
 102	10	60	58	62
 103	1	61	58	62
 104	9	58	60	59
 105	8	58	60	63
 106	8	58	60	64
 107	12	59	60	63
 108	12	59	60	64
 109	11	63	60	64
 110	16	53	52	58
 111	14	52	58	60
 112	15	52	58	61
 113	15	52	58	62
 114	10	67	65	68
 115	10	67	65	69
 116	1	68	65	69
 117	9	65	67	66
 118	8	65	67	70
 119	8	65	67	71
 120	12	66	67	70
 121	12	66	67	71
 122	11	70	67	71
 123	16	60	59	65
 124	14	59	65	67
 125	15	59	65	68
 126	15	59	65	69
 127	10	74	72	75
 128	10	74	72	76
 129	1	75	72	76
 130	9	72	74	73
 131	8	72	74	77
 132	8	72	74	78
 133	12	73	74	77
 134	12	73	74	78
 135	11	77	74	78
 136	16	67	66	72
 137	14	66	72	74
 138	15	66	72	75
 139	15	66	72	76
 140	10	81	79	82
 141	10	81	79	83
 142	1	82	79	83
 143	9	79	81	80
 144	8	79	81	84
 145	8	79	81	85
 146	12	80	81	84
 147	12	80	81	85
 148	11	84	81	85
 149	16	74	73	79
 150	14	73	79	81
 151	15	73	79	82
 152	15	73	79	83
 153	19	88	86	90
 154	19	88	86	91
 155	1	90	86	91
 156	17	88	87	89
 157	18	86	88	87
 158	19	86	88	92
 159	20	87	88	92
 160	21	81	80	87
 161	17	80	87	88
 162	22	80	87	89

Dihedrals

   1	2	1	3	5	4
   2	2	1	3	5	8
   3	2	2	3	5	4
   4	2	2	3	5	8
   5	1	6	4	5	3
   6	1	6	4	5	8
   7	1	7	4	5	3
   8	1	7	4	5	8
   9	3	12	9	11	10
  10	3	12	9	11	14
  11	3	12	9	11	15
  12	3	13	9	11	10
  13	3	13	9	11	14
  14	3	13	9	11	15
  15	3	1	9	11	10
  16	3	1	9	11	14
  17	3	1	9	11	15
  18	3	19	16	18	17
  19	3	19	16	18	21
  20	3	19	16	18	22
  21	3	20	16	18	17
  22	3	20	16	18	21
  23	3	20	16	18	22
  24	3	10	16	18	17
  25	3	10	16	18	21
  26	3	10	16	18	22
  27	3	26	23	25	24
  28	3	26	23	25	28
  29	3	26	23	25	29
  30	3	27	23	25	24
  31	3	27	23	25	28
  32	3	27	23	25	29
  33	3	17	23	25	24
  34	3	17	23	25	28
  35	3	17	23	25	29
  36	3	33	30	32	31
  37	3	33	30	32	35
  38	3	33	30	32	36
  39	3	34	30	32	31
  40	3	34	30	32	35
  41	3	34	30	32	36
  42	3	24	30	32	31
  43	3	24	30	32	35
  44	3	24	30	32	36
  45	3	40	37	39	38
  46	3	40	37	39	42
  47	3	40	37	39	43
  48	3	41	37	39	38
  49	3	41	37	39	42
  50	3	41	37	39	43
  51	3	31	37	39	38
  52	3	31	37	39	42
  53	3	31	37	39	43
  54	3	47	44	46	45
  55	3	47	44	46	49
  56	3	47	44	46	50
  57	3	48	44	46	45
  58	3	48	44	46	49
  59	3	48	44	46	50
  60	3	38	44	46	45
  61	3	38	44	46	49
  62	3	38	44	46	50
  63	3	54	51	53	52
  64	3	54	51	53	56
  65	3	54	51	53	57
  66	3	55	51	53	52
  67	3	55	51	53	56
  68	3	55	51	53	57
  69	3	45	51	53	52
  70	3	45	51	53	56
  71	3	45	51	53	57
  72	3	61	58	60	59
  73	3	61	58	60	63
  74	3	61	58	60	64
  75	3	62	58	60	59
  76	3	62	58	60	63
  77	3	62	58	60	64
  78	3	52	58	60	59
  79	3	52	58	60	63
  80	3	52	58	60	64
  81	3	68	65	67	66
  82	3	68	65	67	70
  83	3	68	65	67	71
  84	3	69	65	67	66
  85	3	69	65	67	70
  86	3	69	65	67	71
  87	3	59	65	67	66
  88	3	59	65	67	70
  89	3	59	65	67	71
  90	3	75	72	74	73
  91	3	75	72	74	77
  92	3	75	72	74	78
  93	3	76	72	74	73
  94	3	76	72	74	77
  95	3	76	72	74	78
  96	3	66	72	74	73
  97	3	66	72	74	77
  98	3	66	72	74	78
  99	3	82	79	81	80
 100	3	82	79	81	84
 101	3	82	79	81	85
 102	3	83	79	81	80
 103	3	83	79	81	84
 104	3	83	79	81	85
 105	3	73	79	81	80
 106	3	73	79	81	84
 107	3	73	79	81	85
 108	4	90	86	88	87
 109	4	90	86	88	92
 110	4	91	86	88	87
 111	4	91	86	88	92
 112	5	89	87	88	86
 113	5	89	87	88	92
 114	5	80	87	88	86
 115	5	80	87	88	92

Impropers

   1	1	3	1	2	5

