pySIMM System Object

190 atoms
189 bonds
344 angles
241 dihedrals
1 impropers

8 atom types
12 bond types
22 angle types
5 dihedral types
1 improper types

-73.579236 73.579236 xlo xhi
-73.579236 73.579236 ylo yhi
-73.579236 73.579236 zlo zhi

Masses

   1	16.0	# o
   2	12.01	# c
   3	12.01	# c2
   4	12.01	# ce
   5	1.008	# ha
   6	12.01	# c3
   7	1.008	# h1
   8	12.01	# c1

Pair Coeffs

   1	0.21	2.959921901149463	# o
   2	0.086	3.3996695084235347	# c
   3	0.086	3.3996695084235347	# c2
   4	0.086	3.3996695084235347	# ce
   5	0.015	2.59964245953351	# ha
   6	0.1094	3.3996695084235347	# c3
   7	0.0157	2.471353044121301	# h1
   8	0.21	3.3996695084235347	# c1

Bond Coeffs

   1	343.1	1.0879	# c2,ha
   2	547.3	1.3461	# c2,ce
   3	342.5	1.0883	# ce,ha
   4	354.5	1.4825	# c,ce
   5	637.7	1.2183	# c,o
   6	449.9	1.3165	# c3,o
   7	326.8	1.5095	# c2,c3
   8	330.6	1.0969	# c3,h1
   9	622.9	1.2247	# c2,o
  10	625.0	1.307	# c1,c2
  11	758.1	1.1724	# c1,o
  12	569.4	1.3343	# c2,c2

Angle Coeffs

   1	38.11	116.9	# ha,c2,ha
   2	49.51	120.45	# ce,c2,ha
   3	49.61	119.94	# c2,ce,ha
   4	46.52	116.46	# c,ce,ha
   5	65.45	120.42	# c,ce,c2
   6	68.83	123.2	# ce,c,o
   7	77.94	130.25	# o,c,o
   8	47.07	109.96	# c2,c3,h1
   9	68.15	110.35	# c2,c3,o
  10	45.94	115.68	# c3,c2,ha
  11	39.24	108.46	# h1,c3,h1
  12	52.64	116.45	# h1,c3,o
  13	65.83	113.14	# c2,o,c
  14	67.92	122.82	# c3,c2,o
  15	55.28	117.23	# ha,c2,o
  16	65.83	113.14	# c2,o,c3
  17	62.94	179.5	# c2,c1,o
  18	70.06	121.62	# c1,c2,c2
  19	49.85	120.43	# c2,c2,ha
  20	50.62	120.42	# c1,c2,ha
  21	65.83	113.14	# c3,o,c1
  22	68.89	180.0	# o,c1,o

Dihedral Coeffs

   1	1	6.65	2	180	# X,c2,ce,X
   2	1	2.175	2	180	# X,c,ce,X
   3	1	0.0	2	0	# X,c2,c3,X
   4	1	6.65	2	180	# X,c2,c2,X
   5	1	0.0	2	180	# X,c1,c2,X

Improper Coeffs

   1	10.5	-1	2	# c,X,X,o

Atoms

   1	1	1	-0.104756	13.6822	-0.314393	-11.9527
   2	1	1	-0.569213	14.3068	1.02609	-10.3629
   3	1	2	0.789146	13.7765	0.812268	-11.4466
   4	1	3	-0.154228	13.0375	3.20401	-11.4987
   5	1	4	-0.389642	12.9655	1.95565	-12.0104
   6	1	5	0.157325	12.4637	4.01784	-11.9212
   7	1	5	0.138289	13.6854	3.43468	-10.6394
   8	1	5	0.133078	12.3522	1.73522	-12.875
   9	1	3	-8e-06	12.648	-0.951392	-11.7021
  10	1	1	-0.400145	10.66	-0.541905	-12.7324
  11	1	6	0.053825	11.7496	-1.26821	-12.902
  12	1	5	0.095789	12.0021	-0.467645	-10.9444
  13	1	5	0.095196	12.8947	-1.89925	-11.2292
  14	1	7	0.084202	11.6289	-2.36386	-12.9154
  15	1	7	0.07114	12.3095	-1.04345	-13.8312
  16	1	3	-8e-06	10.0832	0.0217117	-13.6445
  17	1	1	-0.400145	9.03487	2.09615	-13.481
  18	1	6	0.053825	8.82944	0.795918	-13.2526
  19	1	5	0.095789	9.72072	-0.740519	-14.3125
  20	1	5	0.095196	10.7713	0.677634	-14.1747
  21	1	7	0.084202	8.62209	0.588443	-12.1976
  22	1	7	0.07114	7.98105	0.29651	-13.7689
  23	1	3	-8e-06	8.21759	2.67101	-14.1791
  24	1	1	-0.400145	6.13328	3.42138	-13.5885
  25	1	6	0.053825	7.41238	3.76607	-13.4912
  26	1	5	0.095789	7.47208	2.01816	-14.6383
  27	1	5	0.095196	8.73867	3.0832	-15.027
  28	1	7	0.084202	7.7215	4.72579	-13.9561
  29	1	7	0.07114	7.79008	3.86416	-12.4614
  30	1	3	-8e-06	5.47163	3.14561	-12.5773
  31	1	1	-0.400145	4.38506	4.18081	-10.7095
  32	1	6	0.053825	4.47844	4.18545	-12.0543
  33	1	5	0.095789	6.10814	2.90458	-11.7234
  34	1	5	0.095196	4.8833	2.24098	-12.7373
  35	1	7	0.084202	3.51683	3.97751	-12.5813
  36	1	7	0.07114	4.80158	5.1636	-12.4322
  37	1	3	-8e-06	3.36873	3.76355	-10.1262
  38	1	1	-0.400145	2.0742	3.76784	-8.13873
  39	1	6	0.053825	3.32404	3.85396	-8.59454
  40	1	5	0.095789	3.1207	2.75375	-10.4281
  41	1	5	0.095196	2.54363	4.37341	-10.483
  42	1	7	0.084202	3.89873	4.74	-8.33648
  43	1	7	0.07114	3.93851	3.02806	-8.23803
  44	1	3	-8e-06	1.72268	4.42409	-7.16299
  45	1	1	-0.400145	0.399849	4.52257	-5.25387
  46	1	6	0.053825	0.779933	3.69723	-6.20564
  47	1	5	0.095789	1.14873	5.3053	-7.46123
  48	1	5	0.095196	2.5433	4.80004	-6.57477
  49	1	7	0.084202	1.26907	2.75941	-5.91101
  50	1	7	0.07114	-0.0685023	3.39883	-6.83107
  51	1	3	-8e-06	0.865502	4.49842	-4.12681
  52	1	1	-0.400145	1.01579	5.55487	-2.0239
  53	1	6	0.053825	0.509519	5.69219	-3.26629
  54	1	5	0.095789	1.96607	4.39469	-4.14542
  55	1	5	0.095196	0.536296	3.59963	-3.58787
  56	1	7	0.084202	-0.591398	5.78009	-3.30444
  57	1	7	0.07114	0.866168	6.56911	-3.79639
  58	1	3	-8e-06	0.244958	5.15065	-1.13397
  59	1	1	-0.400145	-0.410673	4.84542	1.11908
  60	1	6	0.053825	0.613513	5.26285	0.359756
  61	1	5	0.095789	-0.00581657	4.1033	-1.30857
  62	1	5	0.095196	-0.662832	5.77231	-1.1773
  63	1	7	0.084202	0.904597	6.31571	0.500179
  64	1	7	0.07114	1.52248	4.68307	0.535513
  65	1	3	-8e-06	-0.506357	5.31898	2.25944
  66	1	1	-0.400145	-2.10358	6.64791	3.42898
  67	1	6	0.053825	-1.24162	6.65469	2.38977
  68	1	5	0.095789	0.489579	5.42918	2.77936
  69	1	5	0.095196	-1.07761	4.63636	2.89103
  70	1	7	0.084202	-1.71071	6.82269	1.40639
  71	1	7	0.07114	-0.477254	7.43856	2.44601
  72	1	3	-8e-06	-3.24291	6.23294	3.22784
  73	1	1	-0.400145	-5.43516	6.27386	3.94149
  74	1	6	0.053825	-4.19899	6.36039	4.39867
  75	1	5	0.095789	-3.23658	5.21203	2.92665
  76	1	5	0.095196	-3.72541	6.78544	2.40873
  77	1	7	0.084202	-3.93828	7.31474	4.91311
  78	1	7	0.07114	-3.89698	5.64077	5.16494
  79	1	3	-8e-06	-6.33098	6.49068	4.7563
  80	1	1	-0.400145	-8.19174	5.5672	5.73913
  81	1	6	0.053825	-7.44546	5.47467	4.65973
  82	1	5	0.095789	-6.68319	7.4928	4.56061
  83	1	5	0.095196	-6.00849	6.52953	5.79879
  84	1	7	0.084202	-6.96514	4.51743	4.4912
  85	1	7	0.07114	-7.97032	5.66063	3.67888
  86	1	3	-8e-06	-8.23052	4.71982	6.6365
  87	1	1	-0.400145	-10.2783	3.87473	7.48229
  88	1	6	0.053825	-9.35203	4.8263	7.6943
  89	1	5	0.095789	-7.30487	4.75586	7.21499
  90	1	5	0.095196	-8.22573	3.71091	6.22885
  91	1	7	0.084202	-9.77198	5.87902	7.6621
  92	1	7	0.07114	-8.85739	4.78212	8.69138
  93	1	3	-8e-06	-11.3124	4.01174	8.16792
  94	1	1	-0.400145	-13.1803	2.9794	9.07839
  95	1	6	0.053825	-11.869	2.73643	8.75461
  96	1	5	0.095789	-12.0467	4.51562	7.60969
  97	1	5	0.095196	-11.1788	4.5919	9.12869
  98	1	7	0.084202	-11.3905	2.53285	9.73492
  99	1	7	0.07114	-11.5785	1.8954	8.04965
 100	1	3	-8e-06	-14.0054	2.10298	8.84564
 101	1	1	-0.400145	-16.231	1.61375	8.59591
 102	1	6	0.053825	-15.4274	2.60727	8.86305
 103	1	5	0.095789	-13.8693	1.29003	9.5858
 104	1	5	0.095196	-13.7906	1.66747	7.83635
 105	1	7	0.084202	-15.4633	3.451	8.11855
 106	1	7	0.07114	-15.5118	3.09225	9.85017
 107	1	3	-8e-06	-16.6076	0.847679	9.4684
 108	1	1	-0.400145	-15.9518	-1.28203	10.39
 109	1	6	0.053825	-16.3151	-0.671489	9.23251
 110	1	5	0.095789	-17.682	0.787371	9.46458
 111	1	5	0.095196	-16.3301	1.18432	10.4831
 112	1	7	0.084202	-15.4792	-0.780793	8.5347
 113	1	7	0.07114	-17.1984	-1.10282	8.68283
 114	1	3	-8e-06	-15.9874	-2.53156	10.3945
 115	1	1	-0.400145	-16.3043	-4.44956	11.6944
 116	1	6	0.053825	-16.3387	-3.16772	11.7194
 117	1	5	0.095789	-15.0687	-2.95644	10.0902
 118	1	5	0.095196	-16.785	-2.8698	9.78311
 119	1	7	0.084202	-17.3186	-2.75494	11.9045
 120	1	7	0.07114	-15.7088	-2.70453	12.4383
 121	1	3	-8e-06	-17.1764	-5.13742	12.2366
 122	1	1	-0.400145	-17.6601	-7.05578	13.5704
 123	1	6	0.053825	-16.9989	-5.90805	13.5189
 124	1	5	0.095789	-17.3135	-5.95707	11.5414
 125	1	5	0.095196	-18.158	-4.59378	12.2854
 126	1	7	0.084202	-17.3205	-5.22833	14.3244
 127	1	7	0.07114	-15.8707	-6.02973	13.6348
 128	1	3	-8e-06	-17.2472	-8.0079	14.2256
 129	1	1	-0.400145	-17.3673	-10.3061	13.9018
 130	1	6	0.053825	-18.1333	-9.19894	13.9145
 131	1	5	0.095789	-17.3234	-7.7493	15.2673
 132	1	5	0.095196	-16.1716	-8.28809	13.988
 133	1	7	0.084202	-18.4563	-9.09255	12.8595
 134	1	7	0.07114	-19.0567	-9.16325	14.504
 135	1	3	-8e-06	-17.8371	-11.3789	14.2687
 136	1	1	-0.400145	-17.4534	-13.6489	14.4615
 137	1	6	0.053825	-16.828	-12.5118	14.1581
 138	1	5	0.095789	-18.7796	-11.5959	13.7826
 139	1	5	0.095196	-18.1737	-11.3328	15.3106
 140	1	7	0.084202	-15.9545	-12.2061	14.7112
 141	1	7	0.07114	-16.3789	-12.5572	13.2069
 142	1	3	-8e-06	-17.1456	-14.6807	13.9891
 143	1	1	-0.400145	-18.5789	-16.2365	13.0769
 144	1	6	0.053825	-18.0593	-15.8799	14.1838
 145	1	5	0.095789	-16.1142	-14.9633	14.1317
 146	1	5	0.095196	-17.1947	-14.562	12.9259
 147	1	7	0.084202	-18.8493	-15.4995	14.9157
 148	1	7	0.07114	-17.5039	-16.729	14.6307
 149	1	3	-8e-06	-19.5066	-17.055	13.0492
 150	1	1	-0.400145	-21.3825	-16.4394	11.8659
 151	1	6	0.053825	-20.2226	-17.1042	11.7219
 152	1	5	0.095789	-20.2507	-16.935	13.9314
 153	1	5	0.095196	-19.0892	-17.9556	13.2664
 154	1	7	0.084202	-20.4376	-18.1397	11.661
 155	1	7	0.07114	-19.5373	-16.8614	10.8417
 156	1	3	-8e-06	-21.4487	-15.2769	11.4048
 157	1	1	-0.400145	-22.1615	-13.7575	9.67702
 158	1	6	0.053825	-21.7647	-15.0167	9.93544
 159	1	5	0.095789	-20.4436	-14.8167	11.5166
 160	1	5	0.095196	-22.0162	-14.5955	12.0059
 161	1	7	0.084202	-22.5718	-15.7356	9.69731
 162	1	7	0.07114	-20.9592	-15.4254	9.28526
 163	1	3	-8e-06	-22.3208	-13.4681	8.51838
 164	1	1	-0.400145	-21.33	-11.4085	7.86156
 165	1	6	0.053825	-22.5146	-11.9729	8.14209
 166	1	5	0.095789	-23.1705	-14.0284	8.16991
 167	1	5	0.095196	-21.4611	-13.9102	7.93242
 168	1	7	0.084202	-23.0355	-11.624	9.14227
 169	1	7	0.07114	-23.2066	-12.0152	7.27627
 170	1	3	-8e-06	-21.2977	-10.2417	7.59178
 171	1	1	-0.400145	-20.1187	-8.31143	8.14582
 172	1	6	0.053825	-19.9183	-9.56353	7.81883
 173	1	5	0.095789	-22.0159	-9.53127	8.00084
 174	1	5	0.095196	-21.5226	-10.0831	6.5916
 175	1	7	0.084202	-19.2062	-9.74923	7.02831
 176	1	7	0.07114	-19.2834	-10.1184	8.55242
 177	1	3	-8e-06	-20.0232	-7.79665	9.27142
 178	1	1	-0.400145	-21.65	-6.2058	9.75951
 179	1	6	0.053825	-21.1613	-7.36301	10.1638
 180	1	5	0.095789	-19.3741	-6.86152	9.17129
 181	1	5	0.095196	-19.5484	-8.48497	9.89006
 182	1	7	0.084202	-20.5862	-7.06541	11.0973
 183	1	7	0.07114	-21.8833	-8.11267	10.573
 184	1	3	-0.232441	-23.2175	-5.23821	7.29137
 185	1	8	0.444336	-22.7923	-6.12232	9.52136
 186	1	3	-0.096823	-23.2131	-6.16955	8.29909
 187	1	1	-0.491911	-23.5198	-5.8255	10.4357
 188	1	5	0.148316	-23.5963	-5.39537	6.27458
 189	1	5	0.163898	-22.7203	-4.31885	7.37798
 190	1	5	0.064625	-23.6961	-7.08757	8.14985

Velocities

   1	0.00337041	-0.00999337	0.0042186
   2	0.00207733	-0.0107701	-0.000787732
   3	-0.0018867	-0.0068237	0.00170578
   4	0.000549998	-0.00702552	-0.00185917
   5	0.00114367	-0.00487865	-0.00178223
   6	-0.00247843	-0.00816022	-0.00602108
   7	-0.00931881	0.00701642	0.00193155
   8	0.0102227	-0.00486971	-0.00466509
   9	-0.000157801	-0.0114318	-0.00376868
  10	-0.00823152	-0.00332985	0.000198995
  11	-0.0080642	-0.00626393	-0.00181199
  12	0.00439924	-0.00464161	0.000201531
  13	-0.00670342	-0.0227555	-0.000987016
  14	-0.00881342	-0.00143376	0.00306557
  15	-0.0103287	-0.00745377	-0.00785377
  16	-0.00521523	-0.00298489	0.00108645
  17	-0.00592995	-0.000205563	-0.00540202
  18	-0.00217955	-0.000369831	-6.96796e-05
  19	-0.00760475	0.0068299	-0.00390444
  20	-0.00203045	0.000134004	0.00853849
  21	-0.0012227	0.012722	0.00769706
  22	-0.00372403	0.005733	-0.00330137
  23	-0.00463597	0.00704908	-0.00472048
  24	-0.00367044	-0.00149457	0.00302984
  25	-0.00279535	-0.000204555	-0.000838397
  26	-0.013075	0.0107602	0.0064516
  27	0.000975848	0.00603869	-0.00935485
  28	-0.00490482	0.00715528	0.00229358
  29	-0.00246087	0.0049591	0.00147799
  30	-0.00257111	0.00626195	0.00148989
  31	-0.000931516	-0.00169313	0.0032248
  32	-0.00558393	0.00398874	0.00411235
  33	-0.00992979	0.0183503	0.0163375
  34	-0.000927753	0.00751634	-0.00597159
  35	-0.00898125	-0.00734874	0.0116742
  36	-0.00873973	-0.0011788	0.00368807
  37	-0.00388857	-0.00242564	-0.00210592
  38	0.000516471	-0.00953329	0.00177442
  39	-0.000268774	-0.000845165	-0.00680958
  40	-0.00429092	-0.01706	0.0059299
  41	-0.00358841	0.00500839	-0.0103519
  42	-0.0094271	-0.00209029	-0.0129687
  43	0.00149713	0.0143205	-0.00937197
  44	-0.0069534	-0.00196524	0.000753388
  45	0.00576006	-0.00339008	0.00468691
  46	0.00171229	-0.00499429	0.00435948
  47	-0.0148032	-0.00840723	0.00161483
  48	0.00341271	-0.0117743	0.00359489
  49	-0.00205923	-0.00199746	0.005325
  50	-0.00714282	-0.0165246	0.011074
  51	0.00702884	0.00466963	0.0010688
  52	-0.00060368	-0.00583907	0.00274929
  53	-0.00316523	-0.00509957	0.00377897
  54	0.00621589	0.0183084	0.00414617
  55	0.0192153	-0.00130221	-0.000381666
  56	0.00324816	-0.0146841	0.00111777
  57	-0.00114061	0.00316443	0.0145646
  58	-0.00190996	0.00104535	0.000710222
  59	-2.39703e-05	-0.00364008	0.00249919
  60	0.000895743	-0.00217447	0.00211305
  61	-0.00529794	0.00433246	0.00749448
  62	8.4694e-05	0.00913072	-0.0102699
  63	0.00125517	0.0126033	0.00364589
  64	0.00272169	-0.00467036	-0.002622
  65	-0.00548369	-0.00207123	0.00249498
  66	0.00219989	-0.00238337	0.00522472
  67	0.00539804	-0.00786455	0.0102087
  68	-0.00845472	-0.0119535	0.000415725
  69	-0.00489165	-0.000104713	-0.00406595
  70	0.0117911	-0.0126221	0.00587338
  71	0.00515118	-0.00616118	0.0069506
  72	0.00333199	0.00123208	-0.00075289
  73	0.000400684	-0.00094237	0.00087642
  74	0.000664577	0.00178523	0.00172316
  75	-0.000363978	0.000187925	0.00391863
  76	0.00239921	-0.00234754	-0.00469736
  77	0.0138164	-0.00238964	0.0109877
  78	-0.0042755	-0.00778403	-0.00484832
  79	-0.00474182	-0.000484915	0.00365546
  80	-0.000404164	0.00099817	-0.00218873
  81	-0.00483777	0.000624264	-0.000552923
  82	0.00101737	-0.00287184	-0.0133621
  83	-0.0110399	-0.0173812	-0.00327918
  84	0.00391051	-0.00396043	0.00582867
  85	0.00296549	-0.00369518	0.00431923
  86	0.00650332	0.00612304	0.00834807
  87	0.00389826	0.00882243	0.00825574
  88	0.00295579	0.0060597	0.00837663
  89	0.00359408	0.0297568	0.015294
  90	-0.00447539	0.00344673	0.0264383
  91	0.00349351	0.00165717	0.0103173
  92	-0.0025154	-0.00751602	-0.00280134
  93	0.00107956	0.000996081	-0.000503648
  94	0.000411682	0.0020333	0.00439889
  95	-0.00770227	-0.00285792	-0.00748347
  96	0.0114717	-0.0176953	0.0119978
  97	-0.00854152	-0.00222081	0.000357178
  98	0.00493694	0.0112496	-0.0187958
  99	-0.0190413	0.00346799	-0.00802695
 100	-0.00513799	0.00575191	0.000215352
 101	-0.00250539	0.00540196	0.00230234
 102	-0.000231161	0.000293848	-0.00621231
 103	-0.0127385	-0.00236796	-0.0171442
 104	-0.0237776	0.0242925	0.0010759
 105	-0.00166051	-0.00256198	0.0185923
 106	-0.00739941	0.000795162	-0.0113747
 107	-0.00250288	0.00740284	0.00025357
 108	0.00863064	-0.002618	-0.00384377
 109	0.00312195	-0.00893448	-0.00322484
 110	0.00222156	-0.00697422	0.041236
 111	0.0138124	0.00253049	-0.00837474
 112	0.000102828	-0.00867903	0.00411671
 113	0.00547895	0.0264121	0.00225335
 114	-0.00678469	-0.00415767	0.00484945
 115	-0.00627433	-0.000483978	-0.00451356
 116	-0.00196643	0.00773921	0.00457852
 117	0.003187	-0.0196037	0.0141641
 118	0.00674592	-0.0105771	-0.00846844
 119	0.00343528	-0.0010486	-0.0273045
 120	0.00221598	-0.0111009	0.0204733
 121	-0.00881795	0.0125513	-0.000155346
 122	0.00447116	-0.00200309	0.00503757
 123	-0.000922047	-0.00332314	-0.00740915
 124	-0.0115294	-0.000549025	0.0178781
 125	-0.00384548	0.00110372	0.00896151
 126	-0.0129136	-0.00149379	0.0419609
 127	-0.0210466	0.0116352	0.0109986
 128	0.00817983	0.00280801	-0.00612309
 129	0.00242254	0.00438959	0.00344105
 130	-0.00740188	-0.00670016	-0.000901428
 131	-0.0037418	0.0212097	-0.00806667
 132	0.00813502	0.0218454	0.00103586
 133	-0.0231922	0.0263481	0.0071301
 134	-0.000765118	0.00293073	0.00369535
 135	-0.00915737	-0.00309367	-0.00663063
 136	0.00088983	0.00388714	-0.00138903
 137	0.003489	-0.00189371	0.000194315
 138	-0.0168258	0.0144216	0.00671539
 139	-0.00714177	-0.00357607	0.0230259
 140	-0.00202479	0.0172158	-0.0260888
 141	-0.0210256	0.0281019	0.00045477
 142	-0.00425003	-0.000956815	0.00407341
 143	-0.00377299	0.00419827	-0.0059554
 144	-0.00989294	0.0189746	0.00451788
 145	0.0326351	0.0121267	0.0127412
 146	0.0170157	-0.0229389	-0.00805842
 147	-0.0148343	-0.0149905	-0.0297664
 148	0.0137717	0.0197304	-0.0205808
 149	-0.00635481	-0.000582907	0.00393372
 150	-0.00544842	-0.00928137	-0.00628385
 151	-0.00345531	7.16941e-05	-0.000829923
 152	-0.00371607	0.0108925	-0.00579918
 153	0.0157991	-0.0391156	0.000152702
 154	-0.00182166	0.0176651	-0.0187585
 155	0.00531848	0.00855226	0.0363156
 156	0.00603263	0.00113422	-0.00667671
 157	-0.0123524	-0.00453461	-0.00395219
 158	0.00468544	-0.00433832	0.00321936
 159	-0.00575392	0.00145632	-0.0288645
 160	-0.00615241	0.0301162	-0.0148236
 161	0.0156458	-0.0197953	0.00859322
 162	-0.000918377	0.0367903	0.00891946
 163	-0.0101254	-0.00446917	-0.00207462
 164	-0.00995305	-0.00322377	-0.00246368
 165	-0.00734503	0.00669454	0.00212145
 166	-0.00503756	0.0301644	0.00411306
 167	-0.00458523	0.012779	0.00939867
 168	-0.00748646	0.0264024	0.00706819
 169	-0.000181574	0.00366401	-0.0281699
 170	0.00679798	-0.000154796	0.0102824
 171	0.00622098	-0.00364639	-0.00381645
 172	0.00377875	-0.0013016	-0.00265878
 173	-0.00377205	0.0109155	-0.0292969
 174	-0.00797979	0.0242574	-0.0134172
 175	-0.00624162	0.0355105	-0.0236326
 176	-0.0291898	0.00186949	0.00203732
 177	-0.00377723	0.0117587	0.00306179
 178	-0.0144114	-0.00210023	-0.00323612
 179	-0.00345046	0.00852154	0.00552416
 180	0.0161601	0.00691158	-0.0160583
 181	0.00858377	-0.00951637	0.0148717
 182	0.0190503	-0.0198969	-0.0141171
 183	-0.00353855	-0.00489196	-0.0174996
 184	-0.00296915	0.000537012	0.00193728
 185	-0.00630988	-0.000418951	0.0179837
 186	-0.00238465	-0.00395031	-0.00314947
 187	-0.00502009	-0.00574727	0.00300925
 188	0.0143818	0.000788355	0.0388436
 189	-0.0302209	-0.00294479	0.0164473
 190	-0.027368	-0.0197927	-0.0213747

Bonds

   1	5	1	3
   2	5	2	3
   3	4	3	5
   4	2	4	5
   5	1	4	6
   6	1	4	7
   7	3	5	8
   8	7	9	11
   9	1	9	12
  10	1	9	13
  11	6	10	11
  12	8	11	14
  13	8	11	15
  14	9	1	9
  15	7	16	18
  16	1	16	19
  17	1	16	20
  18	6	17	18
  19	8	18	21
  20	8	18	22
  21	9	10	16
  22	7	23	25
  23	1	23	26
  24	1	23	27
  25	6	24	25
  26	8	25	28
  27	8	25	29
  28	9	17	23
  29	7	30	32
  30	1	30	33
  31	1	30	34
  32	6	31	32
  33	8	32	35
  34	8	32	36
  35	9	24	30
  36	7	37	39
  37	1	37	40
  38	1	37	41
  39	6	38	39
  40	8	39	42
  41	8	39	43
  42	9	31	37
  43	7	44	46
  44	1	44	47
  45	1	44	48
  46	6	45	46
  47	8	46	49
  48	8	46	50
  49	9	38	44
  50	7	51	53
  51	1	51	54
  52	1	51	55
  53	6	52	53
  54	8	53	56
  55	8	53	57
  56	9	45	51
  57	7	58	60
  58	1	58	61
  59	1	58	62
  60	6	59	60
  61	8	60	63
  62	8	60	64
  63	9	52	58
  64	7	65	67
  65	1	65	68
  66	1	65	69
  67	6	66	67
  68	8	67	70
  69	8	67	71
  70	9	59	65
  71	7	72	74
  72	1	72	75
  73	1	72	76
  74	6	73	74
  75	8	74	77
  76	8	74	78
  77	9	66	72
  78	7	79	81
  79	1	79	82
  80	1	79	83
  81	6	80	81
  82	8	81	84
  83	8	81	85
  84	9	73	79
  85	7	86	88
  86	1	86	89
  87	1	86	90
  88	6	87	88
  89	8	88	91
  90	8	88	92
  91	9	80	86
  92	7	93	95
  93	1	93	96
  94	1	93	97
  95	6	94	95
  96	8	95	98
  97	8	95	99
  98	9	87	93
  99	7	100	102
 100	1	100	103
 101	1	100	104
 102	6	101	102
 103	8	102	105
 104	8	102	106
 105	9	94	100
 106	7	107	109
 107	1	107	110
 108	1	107	111
 109	6	108	109
 110	8	109	112
 111	8	109	113
 112	9	101	107
 113	7	114	116
 114	1	114	117
 115	1	114	118
 116	6	115	116
 117	8	116	119
 118	8	116	120
 119	9	108	114
 120	7	121	123
 121	1	121	124
 122	1	121	125
 123	6	122	123
 124	8	123	126
 125	8	123	127
 126	9	115	121
 127	7	128	130
 128	1	128	131
 129	1	128	132
 130	6	129	130
 131	8	130	133
 132	8	130	134
 133	9	122	128
 134	7	135	137
 135	1	135	138
 136	1	135	139
 137	6	136	137
 138	8	137	140
 139	8	137	141
 140	9	129	135
 141	7	142	144
 142	1	142	145
 143	1	142	146
 144	6	143	144
 145	8	144	147
 146	8	144	148
 147	9	136	142
 148	7	149	151
 149	1	149	152
 150	1	149	153
 151	6	150	151
 152	8	151	154
 153	8	151	155
 154	9	143	149
 155	7	156	158
 156	1	156	159
 157	1	156	160
 158	6	157	158
 159	8	158	161
 160	8	158	162
 161	9	150	156
 162	7	163	165
 163	1	163	166
 164	1	163	167
 165	6	164	165
 166	8	165	168
 167	8	165	169
 168	9	157	163
 169	7	170	172
 170	1	170	173
 171	1	170	174
 172	6	171	172
 173	8	172	175
 174	8	172	176
 175	9	164	170
 176	7	177	179
 177	1	177	180
 178	1	177	181
 179	6	178	179
 180	8	179	182
 181	8	179	183
 182	9	171	177
 183	12	184	186
 184	1	184	188
 185	1	184	189
 186	10	185	186
 187	11	185	187
 188	1	186	190
 189	11	178	185

Angles

   1	7	1	3	2
   2	6	1	3	5
   3	6	2	3	5
   4	2	5	4	6
   5	2	5	4	7
   6	1	6	4	7
   7	5	3	5	4
   8	4	3	5	8
   9	3	4	5	8
  10	10	11	9	12
  11	10	11	9	13
  12	1	12	9	13
  13	9	9	11	10
  14	8	9	11	14
  15	8	9	11	15
  16	12	10	11	14
  17	12	10	11	15
  18	11	14	11	15
  19	13	3	1	9
  20	14	1	9	11
  21	15	1	9	12
  22	15	1	9	13
  23	10	18	16	19
  24	10	18	16	20
  25	1	19	16	20
  26	9	16	18	17
  27	8	16	18	21
  28	8	16	18	22
  29	12	17	18	21
  30	12	17	18	22
  31	11	21	18	22
  32	16	11	10	16
  33	14	10	16	18
  34	15	10	16	19
  35	15	10	16	20
  36	10	25	23	26
  37	10	25	23	27
  38	1	26	23	27
  39	9	23	25	24
  40	8	23	25	28
  41	8	23	25	29
  42	12	24	25	28
  43	12	24	25	29
  44	11	28	25	29
  45	16	18	17	23
  46	14	17	23	25
  47	15	17	23	26
  48	15	17	23	27
  49	10	32	30	33
  50	10	32	30	34
  51	1	33	30	34
  52	9	30	32	31
  53	8	30	32	35
  54	8	30	32	36
  55	12	31	32	35
  56	12	31	32	36
  57	11	35	32	36
  58	16	25	24	30
  59	14	24	30	32
  60	15	24	30	33
  61	15	24	30	34
  62	10	39	37	40
  63	10	39	37	41
  64	1	40	37	41
  65	9	37	39	38
  66	8	37	39	42
  67	8	37	39	43
  68	12	38	39	42
  69	12	38	39	43
  70	11	42	39	43
  71	16	32	31	37
  72	14	31	37	39
  73	15	31	37	40
  74	15	31	37	41
  75	10	46	44	47
  76	10	46	44	48
  77	1	47	44	48
  78	9	44	46	45
  79	8	44	46	49
  80	8	44	46	50
  81	12	45	46	49
  82	12	45	46	50
  83	11	49	46	50
  84	16	39	38	44
  85	14	38	44	46
  86	15	38	44	47
  87	15	38	44	48
  88	10	53	51	54
  89	10	53	51	55
  90	1	54	51	55
  91	9	51	53	52
  92	8	51	53	56
  93	8	51	53	57
  94	12	52	53	56
  95	12	52	53	57
  96	11	56	53	57
  97	16	46	45	51
  98	14	45	51	53
  99	15	45	51	54
 100	15	45	51	55
 101	10	60	58	61
 102	10	60	58	62
 103	1	61	58	62
 104	9	58	60	59
 105	8	58	60	63
 106	8	58	60	64
 107	12	59	60	63
 108	12	59	60	64
 109	11	63	60	64
 110	16	53	52	58
 111	14	52	58	60
 112	15	52	58	61
 113	15	52	58	62
 114	10	67	65	68
 115	10	67	65	69
 116	1	68	65	69
 117	9	65	67	66
 118	8	65	67	70
 119	8	65	67	71
 120	12	66	67	70
 121	12	66	67	71
 122	11	70	67	71
 123	16	60	59	65
 124	14	59	65	67
 125	15	59	65	68
 126	15	59	65	69
 127	10	74	72	75
 128	10	74	72	76
 129	1	75	72	76
 130	9	72	74	73
 131	8	72	74	77
 132	8	72	74	78
 133	12	73	74	77
 134	12	73	74	78
 135	11	77	74	78
 136	16	67	66	72
 137	14	66	72	74
 138	15	66	72	75
 139	15	66	72	76
 140	10	81	79	82
 141	10	81	79	83
 142	1	82	79	83
 143	9	79	81	80
 144	8	79	81	84
 145	8	79	81	85
 146	12	80	81	84
 147	12	80	81	85
 148	11	84	81	85
 149	16	74	73	79
 150	14	73	79	81
 151	15	73	79	82
 152	15	73	79	83
 153	10	88	86	89
 154	10	88	86	90
 155	1	89	86	90
 156	9	86	88	87
 157	8	86	88	91
 158	8	86	88	92
 159	12	87	88	91
 160	12	87	88	92
 161	11	91	88	92
 162	16	81	80	86
 163	14	80	86	88
 164	15	80	86	89
 165	15	80	86	90
 166	10	95	93	96
 167	10	95	93	97
 168	1	96	93	97
 169	9	93	95	94
 170	8	93	95	98
 171	8	93	95	99
 172	12	94	95	98
 173	12	94	95	99
 174	11	98	95	99
 175	16	88	87	93
 176	14	87	93	95
 177	15	87	93	96
 178	15	87	93	97
 179	10	102	100	103
 180	10	102	100	104
 181	1	103	100	104
 182	9	100	102	101
 183	8	100	102	105
 184	8	100	102	106
 185	12	101	102	105
 186	12	101	102	106
 187	11	105	102	106
 188	16	95	94	100
 189	14	94	100	102
 190	15	94	100	103
 191	15	94	100	104
 192	10	109	107	110
 193	10	109	107	111
 194	1	110	107	111
 195	9	107	109	108
 196	8	107	109	112
 197	8	107	109	113
 198	12	108	109	112
 199	12	108	109	113
 200	11	112	109	113
 201	16	102	101	107
 202	14	101	107	109
 203	15	101	107	110
 204	15	101	107	111
 205	10	116	114	117
 206	10	116	114	118
 207	1	117	114	118
 208	9	114	116	115
 209	8	114	116	119
 210	8	114	116	120
 211	12	115	116	119
 212	12	115	116	120
 213	11	119	116	120
 214	16	109	108	114
 215	14	108	114	116
 216	15	108	114	117
 217	15	108	114	118
 218	10	123	121	124
 219	10	123	121	125
 220	1	124	121	125
 221	9	121	123	122
 222	8	121	123	126
 223	8	121	123	127
 224	12	122	123	126
 225	12	122	123	127
 226	11	126	123	127
 227	16	116	115	121
 228	14	115	121	123
 229	15	115	121	124
 230	15	115	121	125
 231	10	130	128	131
 232	10	130	128	132
 233	1	131	128	132
 234	9	128	130	129
 235	8	128	130	133
 236	8	128	130	134
 237	12	129	130	133
 238	12	129	130	134
 239	11	133	130	134
 240	16	123	122	128
 241	14	122	128	130
 242	15	122	128	131
 243	15	122	128	132
 244	10	137	135	138
 245	10	137	135	139
 246	1	138	135	139
 247	9	135	137	136
 248	8	135	137	140
 249	8	135	137	141
 250	12	136	137	140
 251	12	136	137	141
 252	11	140	137	141
 253	16	130	129	135
 254	14	129	135	137
 255	15	129	135	138
 256	15	129	135	139
 257	10	144	142	145
 258	10	144	142	146
 259	1	145	142	146
 260	9	142	144	143
 261	8	142	144	147
 262	8	142	144	148
 263	12	143	144	147
 264	12	143	144	148
 265	11	147	144	148
 266	16	137	136	142
 267	14	136	142	144
 268	15	136	142	145
 269	15	136	142	146
 270	10	151	149	152
 271	10	151	149	153
 272	1	152	149	153
 273	9	149	151	150
 274	8	149	151	154
 275	8	149	151	155
 276	12	150	151	154
 277	12	150	151	155
 278	11	154	151	155
 279	16	144	143	149
 280	14	143	149	151
 281	15	143	149	152
 282	15	143	149	153
 283	10	158	156	159
 284	10	158	156	160
 285	1	159	156	160
 286	9	156	158	157
 287	8	156	158	161
 288	8	156	158	162
 289	12	157	158	161
 290	12	157	158	162
 291	11	161	158	162
 292	16	151	150	156
 293	14	150	156	158
 294	15	150	156	159
 295	15	150	156	160
 296	10	165	163	166
 297	10	165	163	167
 298	1	166	163	167
 299	9	163	165	164
 300	8	163	165	168
 301	8	163	165	169
 302	12	164	165	168
 303	12	164	165	169
 304	11	168	165	169
 305	16	158	157	163
 306	14	157	163	165
 307	15	157	163	166
 308	15	157	163	167
 309	10	172	170	173
 310	10	172	170	174
 311	1	173	170	174
 312	9	170	172	171
 313	8	170	172	175
 314	8	170	172	176
 315	12	171	172	175
 316	12	171	172	176
 317	11	175	172	176
 318	16	165	164	170
 319	14	164	170	172
 320	15	164	170	173
 321	15	164	170	174
 322	10	179	177	180
 323	10	179	177	181
 324	1	180	177	181
 325	9	177	179	178
 326	8	177	179	182
 327	8	177	179	183
 328	12	178	179	182
 329	12	178	179	183
 330	11	182	179	183
 331	16	172	171	177
 332	14	171	177	179
 333	15	171	177	180
 334	15	171	177	181
 335	19	186	184	188
 336	19	186	184	189
 337	1	188	184	189
 338	17	186	185	187
 339	18	184	186	185
 340	19	184	186	190
 341	20	185	186	190
 342	21	179	178	185
 343	17	178	185	186
 344	22	178	185	187

Dihedrals

   1	2	1	3	5	4
   2	2	1	3	5	8
   3	2	2	3	5	4
   4	2	2	3	5	8
   5	1	6	4	5	3
   6	1	6	4	5	8
   7	1	7	4	5	3
   8	1	7	4	5	8
   9	3	12	9	11	10
  10	3	12	9	11	14
  11	3	12	9	11	15
  12	3	13	9	11	10
  13	3	13	9	11	14
  14	3	13	9	11	15
  15	3	1	9	11	10
  16	3	1	9	11	14
  17	3	1	9	11	15
  18	3	19	16	18	17
  19	3	19	16	18	21
  20	3	19	16	18	22
  21	3	20	16	18	17
  22	3	20	16	18	21
  23	3	20	16	18	22
  24	3	10	16	18	17
  25	3	10	16	18	21
  26	3	10	16	18	22
  27	3	26	23	25	24
  28	3	26	23	25	28
  29	3	26	23	25	29
  30	3	27	23	25	24
  31	3	27	23	25	28
  32	3	27	23	25	29
  33	3	17	23	25	24
  34	3	17	23	25	28
  35	3	17	23	25	29
  36	3	33	30	32	31
  37	3	33	30	32	35
  38	3	33	30	32	36
  39	3	34	30	32	31
  40	3	34	30	32	35
  41	3	34	30	32	36
  42	3	24	30	32	31
  43	3	24	30	32	35
  44	3	24	30	32	36
  45	3	40	37	39	38
  46	3	40	37	39	42
  47	3	40	37	39	43
  48	3	41	37	39	38
  49	3	41	37	39	42
  50	3	41	37	39	43
  51	3	31	37	39	38
  52	3	31	37	39	42
  53	3	31	37	39	43
  54	3	47	44	46	45
  55	3	47	44	46	49
  56	3	47	44	46	50
  57	3	48	44	46	45
  58	3	48	44	46	49
  59	3	48	44	46	50
  60	3	38	44	46	45
  61	3	38	44	46	49
  62	3	38	44	46	50
  63	3	54	51	53	52
  64	3	54	51	53	56
  65	3	54	51	53	57
  66	3	55	51	53	52
  67	3	55	51	53	56
  68	3	55	51	53	57
  69	3	45	51	53	52
  70	3	45	51	53	56
  71	3	45	51	53	57
  72	3	61	58	60	59
  73	3	61	58	60	63
  74	3	61	58	60	64
  75	3	62	58	60	59
  76	3	62	58	60	63
  77	3	62	58	60	64
  78	3	52	58	60	59
  79	3	52	58	60	63
  80	3	52	58	60	64
  81	3	68	65	67	66
  82	3	68	65	67	70
  83	3	68	65	67	71
  84	3	69	65	67	66
  85	3	69	65	67	70
  86	3	69	65	67	71
  87	3	59	65	67	66
  88	3	59	65	67	70
  89	3	59	65	67	71
  90	3	75	72	74	73
  91	3	75	72	74	77
  92	3	75	72	74	78
  93	3	76	72	74	73
  94	3	76	72	74	77
  95	3	76	72	74	78
  96	3	66	72	74	73
  97	3	66	72	74	77
  98	3	66	72	74	78
  99	3	82	79	81	80
 100	3	82	79	81	84
 101	3	82	79	81	85
 102	3	83	79	81	80
 103	3	83	79	81	84
 104	3	83	79	81	85
 105	3	73	79	81	80
 106	3	73	79	81	84
 107	3	73	79	81	85
 108	3	89	86	88	87
 109	3	89	86	88	91
 110	3	89	86	88	92
 111	3	90	86	88	87
 112	3	90	86	88	91
 113	3	90	86	88	92
 114	3	80	86	88	87
 115	3	80	86	88	91
 116	3	80	86	88	92
 117	3	96	93	95	94
 118	3	96	93	95	98
 119	3	96	93	95	99
 120	3	97	93	95	94
 121	3	97	93	95	98
 122	3	97	93	95	99
 123	3	87	93	95	94
 124	3	87	93	95	98
 125	3	87	93	95	99
 126	3	103	100	102	101
 127	3	103	100	102	105
 128	3	103	100	102	106
 129	3	104	100	102	101
 130	3	104	100	102	105
 131	3	104	100	102	106
 132	3	94	100	102	101
 133	3	94	100	102	105
 134	3	94	100	102	106
 135	3	110	107	109	108
 136	3	110	107	109	112
 137	3	110	107	109	113
 138	3	111	107	109	108
 139	3	111	107	109	112
 140	3	111	107	109	113
 141	3	101	107	109	108
 142	3	101	107	109	112
 143	3	101	107	109	113
 144	3	117	114	116	115
 145	3	117	114	116	119
 146	3	117	114	116	120
 147	3	118	114	116	115
 148	3	118	114	116	119
 149	3	118	114	116	120
 150	3	108	114	116	115
 151	3	108	114	116	119
 152	3	108	114	116	120
 153	3	124	121	123	122
 154	3	124	121	123	126
 155	3	124	121	123	127
 156	3	125	121	123	122
 157	3	125	121	123	126
 158	3	125	121	123	127
 159	3	115	121	123	122
 160	3	115	121	123	126
 161	3	115	121	123	127
 162	3	131	128	130	129
 163	3	131	128	130	133
 164	3	131	128	130	134
 165	3	132	128	130	129
 166	3	132	128	130	133
 167	3	132	128	130	134
 168	3	122	128	130	129
 169	3	122	128	130	133
 170	3	122	128	130	134
 171	3	138	135	137	136
 172	3	138	135	137	140
 173	3	138	135	137	141
 174	3	139	135	137	136
 175	3	139	135	137	140
 176	3	139	135	137	141
 177	3	129	135	137	136
 178	3	129	135	137	140
 179	3	129	135	137	141
 180	3	145	142	144	143
 181	3	145	142	144	147
 182	3	145	142	144	148
 183	3	146	142	144	143
 184	3	146	142	144	147
 185	3	146	142	144	148