pySIMM System Object

323 atoms
322 bonds
591 angles
412 dihedrals
1 impropers

8 atom types
12 bond types
22 angle types
5 dihedral types
1 improper types

-87.879308 87.879308 xlo xhi
-87.879308 87.879308 ylo yhi
-87.879308 87.879308 zlo zhi

Masses

   1	16.0	# o
   2	12.01	# c
   3	12.01	# c2
   4	12.01	# ce
   5	1.008	# ha
   6	12.01	# c3
   7	1.008	# h1
   8	12.01	# c1

Pair Coeffs

   1	0.21	2.959921901149463	# o
   2	0.086	3.3996695084235347	# c
   3	0.086	3.3996695084235347	# c2
   4	0.086	3.3996695084235347	# ce
   5	0.015	2.59964245953351	# ha
   6	0.1094	3.3996695084235347	# c3
   7	0.0157	2.471353044121301	# h1
   8	0.21	3.3996695084235347	# c1

Bond Coeffs

   1	343.1	1.0879	# c2,ha
   2	547.3	1.3461	# c2,ce
   3	342.5	1.0883	# ce,ha
   4	354.5	1.4825	# c,ce
   5	637.7	1.2183	# c,o
   6	449.9	1.3165	# c3,o
   7	326.8	1.5095	# c2,c3
   8	330.6	1.0969	# c3,h1
   9	622.9	1.2247	# c2,o
  10	625.0	1.307	# c1,c2
  11	758.1	1.1724	# c1,o
  12	569.4	1.3343	# c2,c2

Angle Coeffs

   1	38.11	116.9	# ha,c2,ha
   2	49.51	120.45	# ce,c2,ha
   3	49.61	119.94	# c2,ce,ha
   4	46.52	116.46	# c,ce,ha
   5	65.45	120.42	# c,ce,c2
   6	68.83	123.2	# ce,c,o
   7	77.94	130.25	# o,c,o
   8	47.07	109.96	# c2,c3,h1
   9	68.15	110.35	# c2,c3,o
  10	45.94	115.68	# c3,c2,ha
  11	39.24	108.46	# h1,c3,h1
  12	52.64	116.45	# h1,c3,o
  13	65.83	113.14	# c2,o,c
  14	67.92	122.82	# c3,c2,o
  15	55.28	117.23	# ha,c2,o
  16	65.83	113.14	# c2,o,c3
  17	62.94	179.5	# c2,c1,o
  18	70.06	121.62	# c1,c2,c2
  19	49.85	120.43	# c2,c2,ha
  20	50.62	120.42	# c1,c2,ha
  21	65.83	113.14	# c3,o,c1
  22	68.89	180.0	# o,c1,o

Dihedral Coeffs

   1	1	6.65	2	180	# X,c2,ce,X
   2	1	2.175	2	180	# X,c,ce,X
   3	1	0.0	2	0	# X,c2,c3,X
   4	1	6.65	2	180	# X,c2,c2,X
   5	1	0.0	2	180	# X,c1,c2,X

Improper Coeffs

   1	10.5	-1	2	# c,X,X,o

Atoms

   1	1	1	-0.104756	1.42392	-14.0379	-11.537
   2	1	1	-0.569213	2.89119	-14.7475	-10.1262
   3	1	2	0.789146	2.54895	-14.3913	-11.2348
   4	1	3	-0.154228	3.32605	-14.1749	-13.6258
   5	1	4	-0.389642	3.54839	-14.5199	-12.3301
   6	1	5	0.157325	4.0948	-14.3063	-14.3879
   7	1	5	0.138289	2.38267	-13.7475	-13.9636
   8	1	5	0.133078	4.51307	-14.924	-12.028
   9	1	3	-8e-06	0.540216	-14.9015	-11.5429
  10	1	1	-0.400145	-0.210042	-15.0229	-13.6909
  11	1	6	0.053825	-0.62886	-14.6501	-12.4851
  12	1	5	0.095789	0.11255	-15.0141	-10.5455
  13	1	5	0.095196	0.924647	-15.8948	-11.8034
  14	1	7	0.084202	-0.957814	-13.6025	-12.3936
  15	1	7	0.07114	-1.49929	-15.2151	-12.1198
  16	1	3	-8e-06	-0.513423	-14.3098	-14.6586
  17	1	1	-0.400145	-2.45641	-13.0469	-14.8035
  18	1	6	0.053825	-1.967	-14.2408	-15.1115
  19	1	5	0.095789	0.0347907	-14.6659	-15.5346
  20	1	5	0.095196	-0.182947	-13.2772	-14.5113
  21	1	7	0.084202	-2.48109	-15.0879	-14.6426
  22	1	7	0.07114	-1.97607	-14.4548	-16.1884
  23	1	3	-8e-06	-3.56025	-12.7438	-15.2709
  24	1	1	-0.400145	-5.02575	-11.0369	-15.8487
  25	1	6	0.053825	-3.99645	-11.3046	-15.0379
  26	1	5	0.095789	-4.33934	-13.3787	-14.8532
  27	1	5	0.095196	-3.57648	-12.8894	-16.354
  28	1	7	0.084202	-3.12305	-10.6593	-15.2157
  29	1	7	0.07114	-4.19363	-11.185	-13.9604
  30	1	3	-8e-06	-6.11433	-10.7404	-15.3382
  31	1	1	-0.400145	-8.02661	-11.3137	-14.1636
  32	1	6	0.053825	-7.06092	-11.8647	-14.9042
  33	1	5	0.095789	-6.69366	-10.1787	-16.0687
  34	1	5	0.095196	-5.99664	-10.0842	-14.476
  35	1	7	0.084202	-6.47636	-12.6585	-14.4156
  36	1	7	0.07114	-7.42179	-12.3184	-15.8347
  37	1	3	-8e-06	-9.16502	-11.7609	-14.2086
  38	1	1	-0.400145	-11.3137	-11.2483	-13.712
  39	1	6	0.053825	-10.1142	-11.2282	-13.1721
  40	1	5	0.095789	-9.17259	-12.8446	-14.0617
  41	1	5	0.095196	-9.60376	-11.5817	-15.1911
  42	1	7	0.084202	-9.78542	-10.2252	-12.8706
  43	1	7	0.07114	-9.99516	-11.8591	-12.2797
  44	1	3	-8e-06	-12.2292	-11.3129	-12.8934
  45	1	1	-0.400145	-14.1401	-10.3638	-12.1037
  46	1	6	0.053825	-13.5075	-10.6249	-13.2439
  47	1	5	0.095789	-11.9545	-10.899	-11.9148
  48	1	5	0.095196	-12.4842	-12.3597	-12.7277
  49	1	7	0.084202	-14.0549	-11.3215	-13.8998
  50	1	7	0.07114	-13.2738	-9.76298	-13.8834
  51	1	3	-8e-06	-14.4612	-9.19941	-11.8322
  52	1	1	-0.400145	-14.9376	-7.64427	-10.1755
  53	1	6	0.053825	-14.7527	-8.93836	-10.3581
  54	1	5	0.095789	-13.6626	-8.49717	-12.0904
  55	1	5	0.095196	-15.3728	-8.92929	-12.3726
  56	1	7	0.084202	-15.6249	-9.5583	-10.1124
  57	1	7	0.07114	-13.9325	-9.38231	-9.79092
  58	1	3	-8e-06	-14.8514	-7.14417	-9.06081
  59	1	1	-0.400145	-14.4906	-5.16955	-7.95746
  60	1	6	0.053825	-14.2257	-5.78485	-9.09575
  61	1	5	0.095789	-14.2686	-7.73686	-8.3484
  62	1	5	0.095196	-15.8493	-7.02487	-8.6438
  63	1	7	0.084202	-14.6038	-5.28345	-10.0036
  64	1	7	0.07114	-13.1582	-5.93733	-9.26615
  65	1	3	-8e-06	-14.2476	-3.96069	-7.8939
  66	1	1	-0.400145	-13.0256	-2.55269	-6.51518
  67	1	6	0.053825	-14.0079	-3.43718	-6.4827
  68	1	5	0.095789	-15.0933	-3.39454	-8.27929
  69	1	5	0.095196	-13.372	-3.69785	-8.49636
  70	1	7	0.084202	-13.809	-4.3065	-5.84386
  71	1	7	0.07114	-14.9625	-3.05916	-6.09751
  72	1	3	-8e-06	-12.4838	-2.17728	-5.47168
  73	1	1	-0.400145	-10.5257	-2.28829	-4.2422
  74	1	6	0.053825	-11.4274	-3.05305	-4.81782
  75	1	5	0.095789	-13.2225	-1.96112	-4.7014
  76	1	5	0.095196	-11.9783	-1.23997	-5.68486
  77	1	7	0.084202	-11.0464	-3.73733	-5.58743
  78	1	7	0.07114	-11.9496	-3.69124	-4.09211
  79	1	3	-8e-06	-9.57578	-2.84862	-3.66455
  80	1	1	-0.400145	-8.53925	-3.30855	-1.61152
  81	1	6	0.053825	-9.73534	-3.36613	-2.22849
  82	1	5	0.095789	-8.79531	-2.1	-3.61524
  83	1	5	0.095196	-9.14099	-3.65853	-4.24481
  84	1	7	0.084202	-10.1548	-4.38336	-2.28466
  85	1	7	0.07114	-10.5534	-2.76965	-1.78699
  86	1	3	-8e-06	-8.24543	-2.45421	-0.760047
  87	1	1	-0.400145	-6.22848	-1.36093	-0.393416
  88	1	6	0.053825	-6.8526	-2.52392	-0.135956
  89	1	5	0.095789	-8.95421	-2.49776	0.0653619
  90	1	5	0.095196	-8.34297	-1.45746	-1.19944
  91	1	7	0.084202	-6.34295	-3.38924	-0.592223
  92	1	7	0.07114	-6.97387	-2.79875	0.920675
  93	1	3	-8e-06	-5.30097	-0.9302	0.299612
  94	1	1	-0.400145	-3.24764	-1.37387	1.29294
  95	1	6	0.053825	-3.87568	-1.41653	0.106477
  96	1	5	0.095789	-5.4946	-1.04144	1.36197
  97	1	5	0.095196	-5.23962	0.140769	0.125314
  98	1	7	0.084202	-3.39893	-0.807643	-0.679699
  99	1	7	0.07114	-3.95677	-2.41237	-0.355637
 100	1	3	-8e-06	-2.65856	-2.41318	1.63574
 101	1	1	-0.400145	-1.15815	-3.68434	2.85984
 102	1	6	0.053825	-1.98516	-2.61929	3.00797
 103	1	5	0.095789	-1.86285	-2.55975	0.908633
 104	1	5	0.095196	-3.33826	-3.26405	1.57248
 105	1	7	0.084202	-2.76475	-2.74121	3.75576
 106	1	7	0.07114	-1.48205	-1.68174	3.29037
 107	1	3	-8e-06	-0.376312	-4.02469	3.75752
 108	1	1	-0.400145	1.53911	-3.58665	4.91968
 109	1	6	0.053825	0.963547	-3.36315	3.73365
 110	1	5	0.095789	-0.18852	-5.08855	3.64379
 111	1	5	0.095196	-0.805523	-3.86901	4.7494
 112	1	7	0.084202	0.814989	-2.30624	3.51025
 113	1	7	0.07114	1.44301	-3.77346	2.85813
 114	1	3	-8e-06	2.70586	-3.96423	4.85325
 115	1	1	-0.400145	4.65179	-4.09531	6.05749
 116	1	6	0.053825	3.34153	-4.21507	6.22013
 117	1	5	0.095789	3.30424	-3.21582	4.32562
 118	1	5	0.095196	2.79422	-4.89505	4.28685
 119	1	7	0.084202	2.94807	-5.19294	6.54957
 120	1	7	0.07114	2.89426	-3.46922	6.87868
 121	1	3	-8e-06	5.31001	-4.3108	7.04965
 122	1	1	-0.400145	7.33338	-4.19886	8.03906
 123	1	6	0.053825	6.73457	-3.86745	6.90362
 124	1	5	0.095789	5.35969	-5.38357	7.26194
 125	1	5	0.095196	4.92109	-3.79841	7.95293
 126	1	7	0.084202	6.70518	-2.80048	6.71576
 127	1	7	0.07114	7.17629	-4.32456	5.99805
 128	1	3	-8e-06	8.47626	-3.74402	8.17317
 129	1	1	-0.400145	9.921	-2.11011	9.07707
 130	1	6	0.053825	8.64298	-2.42421	8.91401
 131	1	5	0.095789	9.00956	-3.5999	7.22235
 132	1	5	0.095196	9.05907	-4.49254	8.71723
 133	1	7	0.084202	8.0714	-2.56321	9.8511
 134	1	7	0.07114	8.10244	-1.66142	8.35711
 135	1	3	-8e-06	10.3149	-1.72625	10.1839
 136	1	1	-0.400145	11.4411	0.050797	11.1327
 137	1	6	0.053825	11.5388	-0.823429	10.1508
 138	1	5	0.095789	10.542	-2.56007	10.8501
 139	1	5	0.095196	9.54174	-1.15577	10.7059
 140	1	7	0.084202	11.6913	-0.414425	9.14821
 141	1	7	0.07114	12.3976	-1.4802	10.3071
 142	1	3	-8e-06	11.5448	1.27526	10.9645
 143	1	1	-0.400145	11.4131	3.13668	12.3795
 144	1	6	0.053825	10.7089	2.08521	11.9616
 145	1	5	0.095789	11.1706	1.58681	9.98084
 146	1	5	0.095196	12.588	1.62107	11.0557
 147	1	7	0.084202	10.456	1.36388	12.7521
 148	1	7	0.07114	9.74829	2.37174	11.4686
 149	1	3	-8e-06	10.9406	3.6583	13.409
 150	1	1	-0.400145	11.2366	4.28856	15.5937
 151	1	6	0.053825	11.9348	3.84211	14.5499
 152	1	5	0.095789	10.112	3.11497	13.8905
 153	1	5	0.095196	10.5225	4.63721	13.1537
 154	1	7	0.084202	12.6772	4.59694	14.1812
 155	1	7	0.07114	12.4819	2.89414	14.6577
 156	1	3	-8e-06	11.6651	4.32749	16.7459
 157	1	1	-0.400145	12.4106	3.10426	18.6022
 158	1	6	0.053825	11.4859	3.06783	17.6249
 159	1	5	0.095789	11.0964	5.05612	17.3016
 160	1	5	0.095196	12.7103	4.58604	16.7643
 161	1	7	0.084202	11.3532	2.1159	17.0334
 162	1	7	0.07114	10.4684	3.10728	18.0073
 163	1	3	-8e-06	13.1281	2.11241	18.7342
 164	1	1	-0.400145	15.0814	1.12194	19.4782
 165	1	6	0.053825	14.3871	2.23472	19.5665
 166	1	5	0.095789	13.3714	1.69534	17.7775
 167	1	5	0.095196	12.5248	1.33445	19.2449
 168	1	7	0.084202	14.0447	2.42629	20.6196
 169	1	7	0.07114	14.8941	3.20448	19.3107
 170	1	3	-8e-06	16.2928	1.19863	19.4206
 171	1	1	-0.400145	18.2365	1.91359	18.3948
 172	1	6	0.053825	16.9261	1.9029	18.2292
 173	1	5	0.095789	16.6989	1.70723	20.2975
 174	1	5	0.095196	16.6834	0.160343	19.4113
 175	1	7	0.084202	16.437	2.89696	18.1401
 176	1	7	0.07114	16.5959	1.36263	17.3168
 177	1	3	-8e-06	18.8282	2.9906	18.3456
 178	1	1	-0.400145	17.9852	4.15011	20.1813
 179	1	6	0.053825	19.1452	3.75425	19.6722
 180	1	5	0.095789	18.3963	3.70931	17.6387
 181	1	5	0.095196	19.8495	2.79241	17.977
 182	1	7	0.084202	19.7845	4.5916	19.3273
 183	1	7	0.07114	19.7258	3.12475	20.3253
 184	1	3	-8e-06	17.7062	4.05998	21.3956
 185	1	1	-0.400145	18.0328	4.81367	23.5544
 186	1	6	0.053825	18.0608	5.26773	22.2894
 187	1	5	0.095789	18.1552	3.16305	21.8258
 188	1	5	0.095196	16.6019	3.95471	21.4859
 189	1	7	0.084202	17.4287	6.1647	22.0907
 190	1	7	0.07114	19.0396	5.57892	21.9268
 191	1	3	-8e-06	18.768	5.18302	24.407
 192	1	1	-0.400145	18.709	7.27871	25.4133
 193	1	6	0.053825	18.0794	6.11185	25.413
 194	1	5	0.095789	19.6622	5.67914	24.0488
 195	1	5	0.095196	19.1438	4.31769	24.961
 196	1	7	0.084202	18.0668	5.55192	26.3668
 197	1	7	0.07114	17.0309	6.23971	25.1554
 198	1	3	-8e-06	18.1913	8.37697	25.612
 199	1	1	-0.400145	18.7749	10.5991	25.2424
 200	1	6	0.053825	19.2447	9.34503	25.2688
 201	1	5	0.095789	17.8549	8.50474	26.6436
 202	1	5	0.095196	17.3269	8.56038	24.9278
 203	1	7	0.084202	19.7065	9.00615	24.3469
 204	1	7	0.07114	20.1185	9.19243	25.9804
 205	1	3	-8e-06	18.8996	11.2603	24.1686
 206	1	1	-0.400145	19.0599	13.5107	24.7841
 207	1	6	0.053825	18.2289	12.6203	24.263
 208	1	5	0.095789	18.4836	10.7376	23.3387
 209	1	5	0.095196	19.9533	11.3559	23.8834
 210	1	7	0.084202	17.3472	12.3968	24.849
 211	1	7	0.07114	17.7921	12.9562	23.3047
 212	1	3	-8e-06	18.7874	13.8509	25.9477
 213	1	1	-0.400145	19.1436	15.3439	27.7117
 214	1	6	0.053825	19.5243	15.0411	26.5003
 215	1	5	0.095789	18.894	13.0238	26.6654
 216	1	5	0.095196	17.735	14.1109	26.102
 217	1	7	0.084202	19.4016	15.9449	25.8934
 218	1	7	0.07114	20.6399	14.8964	26.4377
 219	1	3	-8e-06	19.8881	15.1192	28.6683
 220	1	1	-0.400145	20.2088	15.0272	31.0012
 221	1	6	0.053825	19.2547	15.2272	30.0589
 222	1	5	0.095789	20.7891	15.778	28.6024
 223	1	5	0.095196	20.3106	14.043	28.6563
 224	1	7	0.084202	18.4465	14.4148	30.0975
 225	1	7	0.07114	18.6748	16.1724	30.0873
 226	1	3	-8e-06	20.0665	15.4101	32.154
 227	1	1	-0.400145	18.3878	14.4246	33.2695
 228	1	6	0.053825	19.6526	14.3913	33.1787
 229	1	5	0.095789	19.3504	16.2364	32.2315
 230	1	5	0.095196	21.0357	15.8156	32.4713
 231	1	7	0.084202	20.1621	14.5894	34.1219
 232	1	7	0.07114	20.1451	13.4799	32.8954
 233	1	3	-8e-06	17.7452	13.4154	32.9347
 234	1	1	-0.400145	15.7734	12.5827	32.0882
 235	1	6	0.053825	16.2873	13.6874	32.6033
 236	1	5	0.095789	17.7299	12.6271	33.6902
 237	1	5	0.095196	18.2716	12.8771	32.1643
 238	1	7	0.084202	16.3769	14.579	31.9284
 239	1	7	0.07114	15.8059	14.0309	33.5269
 240	1	3	-8e-06	15.2197	12.511	30.9793
 241	1	1	-0.400145	15.4806	11.8225	28.8411
 242	1	6	0.053825	16.1652	12.4304	29.7497
 243	1	5	0.095789	14.5092	13.3474	30.7531
 244	1	5	0.095196	14.6996	11.5442	30.9785
 245	1	7	0.084202	17.0332	11.8863	30.1266
 246	1	7	0.07114	16.5656	13.4002	29.5586
 247	1	3	-8e-06	15.804	11.9114	27.6841
 248	1	1	-0.400145	14.9961	11.4637	25.6003
 249	1	6	0.053825	14.9531	11.0587	26.828
 250	1	5	0.095789	16.8088	11.5645	27.4813
 251	1	5	0.095196	15.7232	12.9326	27.3933
 252	1	7	0.084202	13.9165	11.1419	27.2795
 253	1	7	0.07114	15.3106	9.9969	26.9508
 254	1	3	-8e-06	14.3119	10.8724	24.7891
 255	1	1	-0.400145	13.6609	10.5747	22.6622
 256	1	6	0.053825	14.5361	11.2355	23.391
 257	1	5	0.095789	13.2412	10.878	25.1456
 258	1	5	0.095196	14.5256	9.79494	24.8789
 259	1	7	0.084202	15.5729	10.9379	23.1585
 260	1	7	0.07114	14.5501	12.2707	23.2172
 261	1	3	-8e-06	12.5406	10.9565	22.4914
 262	1	1	-0.400145	10.5258	10.1619	22.0769
 263	1	6	0.053825	11.455	9.89899	22.9795
 264	1	5	0.095789	12.4366	11.1176	21.4282
 265	1	5	0.095196	12.2773	11.9389	22.8863
 266	1	7	0.084202	11.0899	10.1154	24.0145
 267	1	7	0.07114	11.9179	8.88325	23.0662
 268	1	3	-8e-06	10.2064	9.41393	21.1596
 269	1	1	-0.400145	8.25005	8.14941	20.5178
 270	1	6	0.053825	9.15966	8.35902	21.4879
 271	1	5	0.095789	11.0278	8.92459	20.695
 272	1	5	0.095196	9.89495	10.0162	20.417
 273	1	7	0.084202	8.80768	8.58272	22.4779
 274	1	7	0.07114	9.67753	7.44399	21.575
 275	1	3	-8e-06	7.05015	8.16116	20.8923
 276	1	1	-0.400145	6.50894	6.74157	22.5067
 277	1	6	0.053825	6.39483	6.83153	21.2144
 278	1	5	0.095789	6.40609	8.57245	20.0929
 279	1	5	0.095196	6.90442	8.86486	21.7194
 280	1	7	0.084202	6.81033	5.97962	20.6846
 281	1	7	0.07114	5.33127	6.98695	20.8225
 282	1	3	-8e-06	7.34033	5.93723	22.9972
 283	1	1	-0.400145	7.40266	5.27481	25.2869
 284	1	6	0.053825	6.86034	4.98475	24.1482
 285	1	5	0.095789	8.01178	6.59152	23.4602
 286	1	5	0.095196	7.84133	5.33595	22.2279
 287	1	7	0.084202	7.29273	4.03692	23.85
 288	1	7	0.07114	5.77008	4.80766	24.046
 289	1	3	-8e-06	6.89981	6.00511	26.1336
 290	1	1	-0.400145	5.3295	7.6928	26.0316
 291	1	6	0.053825	6.67862	7.5119	25.855
 292	1	5	0.095789	7.53781	5.9528	26.9934
 293	1	5	0.095196	5.93257	5.53045	26.4259
 294	1	7	0.084202	7.03329	7.79382	24.887
 295	1	7	0.07114	7.42836	8.1676	26.3622
 296	1	3	-8e-06	4.58009	8.15125	25.1139
 297	1	1	-0.400145	2.71148	9.2787	25.5442
 298	1	6	0.053825	3.93335	9.53659	25.1644
 299	1	5	0.095789	3.71181	7.48154	24.8158
 300	1	5	0.095196	5.09322	8.15826	24.201
 301	1	7	0.084202	3.94185	10.024	24.1672
 302	1	7	0.07114	4.53018	10.1114	25.9962
 303	1	3	-8e-06	1.70967	9.54582	24.8997
 304	1	1	-0.400145	1.23617	11.844	24.7254
 305	1	6	0.053825	0.817963	10.7613	25.3284
 306	1	5	0.095789	1.01754	8.655	24.9304
 307	1	5	0.095196	1.90467	9.70564	23.8682
 308	1	7	0.084202	0.864738	10.9595	26.3899
 309	1	7	0.07114	-0.239679	10.552	25.2269
 310	1	3	-8e-06	0.511858	12.8211	24.7492
 311	1	1	-0.400145	0.254246	14.8268	25.8207
 312	1	6	0.053825	0.591507	13.6141	26.0798
 313	1	5	0.095789	-0.53336	12.6835	24.505
 314	1	5	0.095196	0.872577	13.3965	24.0188
 315	1	7	0.084202	1.59354	13.5063	26.4962
 316	1	7	0.07114	-0.187851	13.102	26.751
 317	1	3	-0.232441	0.026513	16.0093	28.4247
 318	1	8	0.444336	-0.646746	15.3435	26.3865
 319	1	3	-0.096823	-0.402841	16.3251	27.1855
 320	1	1	-0.491911	-1.78978	15.0661	26.3482
 321	1	5	0.148316	0.203115	16.9105	29.0026
 322	1	5	0.163898	0.160921	15.0351	28.9262
 323	1	5	0.064625	-0.696819	17.3011	26.8616

Velocities

   1	-0.00722983	-0.000903342	0.000507819
   2	-0.0050562	-0.00449084	-0.000546747
   3	-0.00483822	0.00050418	-0.000505487
   4	-0.00148408	-1.05599e-05	-0.0036899
   5	-0.00424447	-0.000854666	-0.00267066
   6	-0.00380295	-0.00642607	-0.00553801
   7	0.0018916	0.00866949	-0.00368054
   8	-0.00779083	-0.0102154	-0.000718247
   9	-0.0057779	-0.00369416	0.00200655
  10	-0.006529	0.00137735	0.00282255
  11	-0.00509345	0.00431899	0.00308233
  12	-0.00452548	-0.0155712	0.000127326
  13	-0.00477564	0.000961696	-0.00791507
  14	0.00235843	0.0066875	-0.000491247
  15	-0.00834311	0.00844502	0.00310388
  16	-0.00270198	0.00105825	0.00270702
  17	-0.000400001	-0.000437967	0.00521216
  18	-0.00237931	0.00210403	0.00216248
  19	0.000223761	0.00154568	0.00537369
  20	-0.00146155	0.000582421	0.00555953
  21	-0.004049	-8.14692e-05	-0.00545424
  22	-0.00454484	0.00448868	0.0028352
  23	0.00178069	0.00261643	0.00373339
  24	-0.00281317	0.0038923	0.00470713
  25	-0.00332443	0.00103456	0.0023606
  26	0.00109635	-0.00106768	-0.00281353
  27	0.00169505	0.00107935	0.00321495
  28	-0.00602806	0.00536849	0.00561326
  29	-0.00683552	0.00120564	0.00284808
  30	-0.00133393	0.00401137	0.00391052
  31	-0.00493095	0.00456465	6.45258e-05
  32	-0.00192058	0.0050367	0.00157145
  33	0.00165204	0.00173048	-0.000205706
  34	-0.0047675	0.00804585	0.00109236
  35	-0.00588984	0.00400453	0.00479729
  36	0.00336658	0.00772978	-0.00214945
  37	-0.00305997	0.00145161	0.00358247
  38	-0.00242195	0.000830774	0.00238968
  39	-0.00300527	0.000561646	0.00196679
  40	-0.00205309	0.000970585	0.00717649
  41	-0.00253952	0.000370674	0.00280377
  42	-0.00252188	0.00112164	0.0027409
  43	-0.0035962	0.00462806	0.00482585
  44	-0.00442306	0.000166277	-0.000196394
  45	-0.00292693	0.00363532	0.0045574
  46	-0.00637608	0.000185595	0.00280093
  47	-0.00500775	-0.00214922	0.00199237
  48	-0.00561644	-0.000121505	-0.00880612
  49	-0.00725217	0.000461282	0.00328832
  50	-0.000883174	-0.000245831	0.00643797
  51	-0.00498379	0.00550404	0.00222192
  52	0.00175745	0.00456414	-0.000409149
  53	-0.00295183	0.00436577	0.00222668
  54	-0.00607333	0.00425767	0.00114231
  55	-0.00857056	0.00113274	0.00461807
  56	-0.00279074	0.00655772	-0.000728488
  57	-0.00786861	0.00231305	0.00757092
  58	0.00315922	0.00625734	-0.00321617
  59	-0.00109706	0.00627525	-0.00285745
  60	-0.00492165	0.00933627	-0.00384144
  61	0.0118844	0.00862436	-0.0039978
  62	0.00452618	0.00257476	-0.00438798
  63	-0.0012739	0.00818821	-0.00450118
  64	-0.00464898	0.0105396	-0.00350219
  65	0.000883964	0.00433674	-0.00236235
  66	0.00440506	0.00289594	-0.00293811
  67	0.0013501	0.00629224	-0.00152718
  68	0.0089617	0.00897742	-0.00688933
  69	0.00716412	-0.00388272	0.00854588
  70	0.000205085	0.00433142	-0.00464279
  71	-0.00109433	0.00613952	0.000815548
  72	0.00165904	0.00639827	-0.00121546
  73	0.00586873	0.0060487	-0.000116063
  74	0.000355997	0.00733413	0.00496855
  75	0.00125831	0.0128829	-0.00482605
  76	0.00691449	0.00287066	-0.00186692
  77	-0.00175357	0.00215207	0.0102254
  78	0.00525521	0.00879133	0.00585445
  79	0.00271422	0.000860683	0.00100076
  80	0.0015651	0.00959121	0.00640338
  81	-0.00129551	0.0125953	0.00575982
  82	0.000187931	0.00427199	0.00329778
  83	0.0022051	-0.000558171	0.00308072
  84	-0.00792479	0.0176715	0.00957241
  85	0.000697052	0.0208467	0.000513027
  86	0.00725918	0.0162674	-0.00523735
  87	0.00507199	0.00949382	0.00210772
  88	0.00588359	0.0109691	0.000466511
  89	0.010389	0.0327485	-0.00731724
  90	0.0117074	0.0137784	-0.0126399
  91	0.00583859	0.00644039	0.00941959
  92	-0.00737301	0.020894	0.0018685
  93	0.00596399	0.00700868	0.000875122
  94	0.00793771	0.00714532	-0.000236975
  95	0.00490334	0.0104139	-0.00185265
  96	0.0057557	0.00976886	-0.000199751
  97	0.00564792	0.0098951	-0.00381853
  98	-0.00429843	0.0175791	-0.00328262
  99	0.00669423	0.0113298	-0.00347605
 100	-0.00152579	0.00519556	0.00689677
 101	0.0083176	0.0089013	0.00219759
 102	0.000740781	0.00487298	0.00635316
 103	-0.00504321	0.00271473	0.00175005
 104	-0.00680389	0.00473775	0.0147912
 105	0.00631948	0.00738434	0.00658575
 106	0.00285294	0.00489549	-0.00173903
 107	0.00323184	0.00335691	0.00230403
 108	0.0014657	0.00936026	0.00474839
 109	0.00594908	-0.00592843	0.00114066
 110	0.0049193	0.00228001	0.00207574
 111	0.00575329	-0.00125689	0.00365241
 112	0.0127505	-0.00270927	-0.00794098
 113	0.00820762	-0.0153396	0.0100883
 114	0.00196747	-0.00138752	0.00362418
 115	-0.000905426	-0.0110201	0.00705607
 116	-0.000329531	0.000175975	0.00180007
 117	0.00906492	-0.000935743	0.00931441
 118	-0.00369441	-0.00711155	0.00529111
 119	-0.0114334	0.00943799	0.0120065
 120	0.00876141	0.00507186	-0.00709545
 121	0.00280382	-0.00270117	0.00243163
 122	0.0019155	-0.00158129	-0.00369098
 123	0.00513757	0.00249595	0.000333555
 124	0.014889	-0.00385991	0.00727901
 125	0.00146418	0.00220411	0.00119651
 126	0.00395089	0.0097052	-0.00462825
 127	-0.00226273	0.00407283	-0.00273025
 128	0.00441939	-0.00972799	-0.00215503
 129	0.000610823	0.000567154	-0.00313576
 130	0.000789055	-0.00551411	-0.00220165
 131	0.0128491	-0.0122966	-0.00109416
 132	-0.00692122	-0.0156054	0.00392928
 133	0.0193833	-0.0142973	0.00928138
 134	0.00584719	-0.0135542	-0.0114276
 135	0.000686257	-0.00526646	6.47694e-05
 136	0.00342583	0.0021406	0.00080519
 137	0.000345064	1.29191e-05	0.00118742
 138	0.0119608	-0.0043363	-0.00639829
 139	0.00421437	0.00215699	-0.00960774
 140	-0.00915967	-0.00361988	-0.00384001
 141	0.00192465	0.0140492	0.000604703
 142	0.00226898	0.000639238	0.00341279
 143	-0.00344179	-0.00370982	-0.000593423
 144	-0.00492132	-0.00580003	-0.000163944
 145	0.00737439	0.00268144	0.00399666
 146	-0.00643936	0.00280727	0.0124505
 147	-0.00958695	-0.0103158	-0.0011723
 148	-0.00125861	-0.00266352	0.00634099
 149	-0.00315762	-0.00291622	-0.000187109
 150	-0.00143652	-0.00581829	0.00872092
 151	-0.00396765	-0.00564983	0.0072164
 152	-0.014346	0.000718766	-0.00927223
 153	0.00915823	-0.000661287	-0.00158728
 154	0.0121251	-0.00885134	0.00455182
 155	-0.01031	-0.0161321	-0.0012933
 156	-0.00435112	-0.0134802	0.0136886
 157	-0.0020273	-0.00658809	0.00501801
 158	0.000868421	-0.012523	0.00547736
 159	-0.0212409	-0.00115631	0.0228922
 160	-0.0101973	0.0113832	0.00779832
 161	0.0191811	-0.0052549	0.00297048
 162	-0.000421702	-0.0404827	0.00283537
 163	-0.0030482	-0.00904235	0.00548037
 164	0.0119783	0.00400976	0.00138602
 165	0.000111436	-0.00237884	-0.0043294
 166	-0.00356963	-0.0287151	0.00877875
 167	-0.0190324	-0.00134729	0.0136805
 168	0.0203715	0.00933588	0.00706247
 169	0.00382581	0.00149575	0.00231064
 170	0.00593856	-0.000277834	0.000740884
 171	0.00590646	0.00122827	0.00123562
 172	0.0102867	-0.00323562	0.000793428
 173	0.0136402	-0.00958364	-0.00646899
 174	0.00563503	-0.0111482	-0.0175787
 175	0.0172954	0.00323798	0.00965445
 176	0.00679445	-0.00754742	-0.00973099
 177	-0.00251695	0.00474593	-0.00218298
 178	0.00196266	-0.00362077	0.00689435
 179	0.00842935	-0.000745272	0.00344117
 180	-0.0202697	0.00181428	0.0169897
 181	-0.0104749	0.0194444	-0.0304221
 182	0.012406	-0.00319225	0.0229897
 183	0.0184058	-0.00169951	-0.000275056
 184	0.00564345	-0.000192811	-0.00161973
 185	0.00423642	0.000694077	0.00215141
 186	-0.000976595	0.00122893	0.00266067
 187	0.0162308	0.0086038	-0.00590579
 188	-0.0212778	0.0176501	0.00675212
 189	-0.000973211	0.00575049	0.00843308
 190	0.0147283	0.014545	-0.0034149
 191	0.00454321	0.000852508	0.00191004
 192	0.00620935	0.00328879	0.00356121
 193	-0.00044697	0.00436478	0.00125427
 194	0.0232287	0.00167814	0.0183204
 195	-0.0026723	0.00590478	0.0191367
 196	-0.0139137	-0.00171473	0.025132
 197	0.00543456	0.00880096	-0.0116533
 198	0.00268504	0.0123279	0.00530458
 199	0.00400438	0.00372908	0.00394127
 200	0.0109734	0.000130537	0.0136892
 201	-0.0117724	0.0182663	0.0290822
 202	0.0196424	0.000625577	-0.00801711
 203	0.0200296	-0.0162715	0.00910042
 204	-0.0055762	-0.00295143	0.0299593
 205	0.00266952	-0.0030986	0.000805659
 206	-0.00224312	0.000968235	0.00955509
 207	-0.00289446	0.00428426	0.00912981
 208	-0.0106764	-0.0106363	0.0205657
 209	-0.0221115	-0.00930683	0.00782323
 210	0.0114807	0.00497341	0.0161042
 211	-0.00389462	0.0102867	0.0204829
 212	0.00271076	0.00311601	0.00660157
 213	0.00503593	0.00358529	0.0102583
 214	-0.00595312	0.0109493	-0.00112759
 215	5.22147e-05	0.00257836	0.00278879
 216	-0.00732818	0.00777787	-0.0178505
 217	-0.004595	-0.0281154	-0.0197878
 218	-0.00568757	0.0187857	-0.0040679
 219	0.0092176	-0.000496315	0.00402483
 220	-0.00402038	-0.00158004	0.00355052
 221	0.00531653	-0.0113755	0.00197795
 222	0.0176393	-0.0110057	0.024784
 223	-0.0287583	-0.00198859	-0.00664064
 224	0.0100049	-0.00517898	0.010441
 225	0.013236	0.0108599	-0.0064844
 226	-0.00238703	0.00330596	0.000175289
 227	-0.00457183	-0.000923197	0.00853993
 228	-0.00551542	-0.00301173	0.00751671
 229	-0.0050512	-0.000199372	-0.00823441
 230	-0.00515291	0.0108486	-0.00416137
 231	-0.027367	0.000538605	0.00620614
 232	-0.0081943	0.00189025	-0.0213746
 233	-0.00537486	-0.00821662	0.00497359
 234	0.00292216	0.00268503	0.010781
 235	0.000509311	0.00719321	0.00514125
 236	0.010164	0.00423044	0.000711242
 237	-0.00798174	0.0145012	0.00253031
 238	0.0124175	-0.0084781	0.0392708
 239	0.0206031	-0.00523048	0.00751588
 240	0.00318633	-0.00276065	0.0101919
 241	0.0057642	-0.00173191	0.00238987
 242	-0.00372123	0.00414124	0.0106104
 243	-0.0410178	-0.0172613	0.00778811
 244	0.0212313	-0.011267	0.0155493
 245	-0.00216617	-0.00385416	0.0145583
 246	-0.0202851	-0.00450603	0.00190051
 247	-0.00149672	-0.00587394	-0.00791137
 248	-0.00816624	-0.010635	-0.00230507
 249	-0.0038714	0.000598667	0.000958939
 250	0.0261302	0.00845306	0.00763875
 251	-0.0240055	0.0187739	0.00814277
 252	-0.00895519	-0.0117415	-0.00151925
 253	-0.0123957	-0.0280796	-0.0231995
 254	-0.00340836	-0.00342668	-0.00234931
 255	-0.00151194	0.000785838	0.00128518
 256	0.00484805	7.23944e-05	-0.00369043
 257	0.00624923	-0.00232394	-0.0239152
 258	-0.0115517	0.0158639	-2.13433e-05
 259	0.0144364	-0.004671	0.00669751
 260	-0.00771176	-0.00760175	-0.00172891
 261	0.00891713	-0.0104526	0.0114606
 262	-0.00323257	0.00140483	0.00184834
 263	0.00750901	-0.00873968	0.000469818
 264	-0.00840011	-0.0173084	-0.00426635
 265	-0.0428887	-0.012247	-0.00823808
 266	0.000849543	-0.0063521	-0.0133903
 267	0.0242204	0.0333599	0.00828236
 268	-0.00516443	0.00342902	-0.00249956
 269	0.00590979	-0.00217479	0.00742479
 270	0.00124029	-0.00330633	0.00850765
 271	-0.00894806	0.0109149	0.0132825
 272	-0.00343806	0.00512219	-0.0265962
 273	0.00728502	-0.00602254	0.00962576
 274	0.0443059	0.0166581	0.0393986
 275	0.0074592	-0.00420495	0.00608111
 276	0.00121195	0.000300591	0.00290818
 277	-0.00176193	-0.00767776	-0.00731894
 278	-0.000242106	0.0331308	-0.00577104
 279	0.00582746	0.0163391	0.00163439
 280	0.0266503	0.0400159	0.00994064
 281	-0.0601607	-0.0115823	-0.0203931
 282	0.00213358	0.00178274	-0.00116038
 283	0.0103172	0.00101029	0.00413792
 284	0.00863043	-0.00499481	-0.00194805
 285	0.0130237	-0.0301192	-0.00935638
 286	0.00728062	0.0106588	0.0129611
 287	0.0387644	0.0190826	-0.0258981
 288	-0.0117902	-0.0164301	0.00602952
 289	0.0128625	-0.00826533	-0.00574351
 290	0.00140988	-0.0158236	0.000331
 291	0.00717024	0.00604222	-0.00288634
 292	0.0278301	0.0648819	0.00848373
 293	0.0141249	-0.0111619	-0.00606541
 294	0.0372865	0.0106361	-0.0115378
 295	-0.030986	-0.00215332	-0.0189179
 296	-0.000919571	-0.0183551	-0.00393005
 297	0.00269672	-0.0012906	-0.00517476
 298	0.00533188	-0.00433681	0.0104228
 299	0.0204463	-0.0075314	0.0110642
 300	0.0136055	-0.0208144	0.0265525
 301	-0.00493596	-0.0207206	-0.0054846
 302	-0.0132676	-0.0624228	-0.00150154
 303	-0.000630528	0.00263727	0.0109125
 304	-0.00199165	-0.00273283	0.0109539
 305	0.00928589	-0.00459318	0.00198016
 306	0.0233409	0.0124574	-0.0135589
 307	-0.00312545	-0.00668307	-0.00399933
 308	-0.021607	0.00677002	-0.00558682
 309	-0.0173572	0.0145149	0.00442579
 310	-0.00512362	-0.00728238	0.0176468
 311	0.00854469	0.00521143	0.00912947
 312	0.0117669	-0.00407168	0.000141691
 313	-0.00283614	0.0234147	-0.0168261
 314	0.0151581	0.000965039	0.0145778
 315	0.00820466	0.00122369	-0.0217144
 316	-0.0391705	-0.0327011	0.0440748
 317	0.00508785	0.0111266	0.00390109
 318	-0.00535964	5.11231e-05	0.00504026
 319	0.00689814	0.00268978	0.0088277
 320	0.016449	-0.00802584	-0.00190917
 321	0.00464791	0.00580046	0.0016924
 322	-0.0152487	-0.0106193	0.0411289
 323	0.00498605	-0.027985	0.0168559

Bonds

   1	5	1	3
   2	5	2	3
   3	4	3	5
   4	2	4	5
   5	1	4	6
   6	1	4	7
   7	3	5	8
   8	7	9	11
   9	1	9	12
  10	1	9	13
  11	6	10	11
  12	8	11	14
  13	8	11	15
  14	9	1	9
  15	7	16	18
  16	1	16	19
  17	1	16	20
  18	6	17	18
  19	8	18	21
  20	8	18	22
  21	9	10	16
  22	7	23	25
  23	1	23	26
  24	1	23	27
  25	6	24	25
  26	8	25	28
  27	8	25	29
  28	9	17	23
  29	7	30	32
  30	1	30	33
  31	1	30	34
  32	6	31	32
  33	8	32	35
  34	8	32	36
  35	9	24	30
  36	7	37	39
  37	1	37	40
  38	1	37	41
  39	6	38	39
  40	8	39	42
  41	8	39	43
  42	9	31	37
  43	7	44	46
  44	1	44	47
  45	1	44	48
  46	6	45	46
  47	8	46	49
  48	8	46	50
  49	9	38	44
  50	7	51	53
  51	1	51	54
  52	1	51	55
  53	6	52	53
  54	8	53	56
  55	8	53	57
  56	9	45	51
  57	7	58	60
  58	1	58	61
  59	1	58	62
  60	6	59	60
  61	8	60	63
  62	8	60	64
  63	9	52	58
  64	7	65	67
  65	1	65	68
  66	1	65	69
  67	6	66	67
  68	8	67	70
  69	8	67	71
  70	9	59	65
  71	7	72	74
  72	1	72	75
  73	1	72	76
  74	6	73	74
  75	8	74	77
  76	8	74	78
  77	9	66	72
  78	7	79	81
  79	1	79	82
  80	1	79	83
  81	6	80	81
  82	8	81	84
  83	8	81	85
  84	9	73	79
  85	7	86	88
  86	1	86	89
  87	1	86	90
  88	6	87	88
  89	8	88	91
  90	8	88	92
  91	9	80	86
  92	7	93	95
  93	1	93	96
  94	1	93	97
  95	6	94	95
  96	8	95	98
  97	8	95	99
  98	9	87	93
  99	7	100	102
 100	1	100	103
 101	1	100	104
 102	6	101	102
 103	8	102	105
 104	8	102	106
 105	9	94	100
 106	7	107	109
 107	1	107	110
 108	1	107	111
 109	6	108	109
 110	8	109	112
 111	8	109	113
 112	9	101	107
 113	7	114	116
 114	1	114	117
 115	1	114	118
 116	6	115	116
 117	8	116	119
 118	8	116	120
 119	9	108	114
 120	7	121	123
 121	1	121	124
 122	1	121	125
 123	6	122	123
 124	8	123	126
 125	8	123	127
 126	9	115	121
 127	7	128	130
 128	1	128	131
 129	1	128	132
 130	6	129	130
 131	8	130	133
 132	8	130	134
 133	9	122	128
 134	7	135	137
 135	1	135	138
 136	1	135	139
 137	6	136	137
 138	8	137	140
 139	8	137	141
 140	9	129	135
 141	7	142	144