pySIMM System Object

225 atoms
224 bonds
409 angles
286 dihedrals
1 impropers

8 atom types
12 bond types
22 angle types
5 dihedral types
1 improper types

-77.866504 77.866504 xlo xhi
-77.866504 77.866504 ylo yhi
-77.866504 77.866504 zlo zhi

Masses

   1	16.0	# o
   2	12.01	# c
   3	12.01	# c2
   4	12.01	# ce
   5	1.008	# ha
   6	12.01	# c3
   7	1.008	# h1
   8	12.01	# c1

Pair Coeffs

   1	0.21	2.959921901149463	# o
   2	0.086	3.3996695084235347	# c
   3	0.086	3.3996695084235347	# c2
   4	0.086	3.3996695084235347	# ce
   5	0.015	2.59964245953351	# ha
   6	0.1094	3.3996695084235347	# c3
   7	0.0157	2.471353044121301	# h1
   8	0.21	3.3996695084235347	# c1

Bond Coeffs

   1	343.1	1.0879	# c2,ha
   2	547.3	1.3461	# c2,ce
   3	342.5	1.0883	# ce,ha
   4	354.5	1.4825	# c,ce
   5	637.7	1.2183	# c,o
   6	449.9	1.3165	# c3,o
   7	326.8	1.5095	# c2,c3
   8	330.6	1.0969	# c3,h1
   9	622.9	1.2247	# c2,o
  10	625.0	1.307	# c1,c2
  11	758.1	1.1724	# c1,o
  12	569.4	1.3343	# c2,c2

Angle Coeffs

   1	38.11	116.9	# ha,c2,ha
   2	49.51	120.45	# ce,c2,ha
   3	49.61	119.94	# c2,ce,ha
   4	46.52	116.46	# c,ce,ha
   5	65.45	120.42	# c,ce,c2
   6	68.83	123.2	# ce,c,o
   7	77.94	130.25	# o,c,o
   8	47.07	109.96	# c2,c3,h1
   9	68.15	110.35	# c2,c3,o
  10	45.94	115.68	# c3,c2,ha
  11	39.24	108.46	# h1,c3,h1
  12	52.64	116.45	# h1,c3,o
  13	65.83	113.14	# c2,o,c
  14	67.92	122.82	# c3,c2,o
  15	55.28	117.23	# ha,c2,o
  16	65.83	113.14	# c2,o,c3
  17	62.94	179.5	# c2,c1,o
  18	70.06	121.62	# c1,c2,c2
  19	49.85	120.43	# c2,c2,ha
  20	50.62	120.42	# c1,c2,ha
  21	65.83	113.14	# c3,o,c1
  22	68.89	180.0	# o,c1,o

Dihedral Coeffs

   1	1	6.65	2	180	# X,c2,ce,X
   2	1	2.175	2	180	# X,c,ce,X
   3	1	0.0	2	0	# X,c2,c3,X
   4	1	6.65	2	180	# X,c2,c2,X
   5	1	0.0	2	180	# X,c1,c2,X

Improper Coeffs

   1	10.5	-1	2	# c,X,X,o

Atoms

   1	1	1	-0.104756	13.5898	14.8078	-21.9632
   2	1	1	-0.569213	14.5936	12.9987	-22.6594
   3	1	2	0.789146	14.3303	13.8473	-21.8041
   4	1	3	-0.154228	15.9062	12.8072	-20.0932
   5	1	4	-0.389642	15.04	13.7949	-20.4714
   6	1	5	0.157325	16.4509	12.8581	-19.1419
   7	1	5	0.138289	16.1138	11.9676	-20.7661
   8	1	5	0.133078	14.8225	14.6559	-19.8334
   9	1	3	-8e-06	12.5041	14.6725	-22.5321
  10	1	1	-0.400145	10.3165	15.184	-22.6132
  11	1	6	0.053825	11.3547	15.3305	-21.8137
  12	1	5	0.095789	12.1864	13.6269	-22.6313
  13	1	5	0.095196	12.5545	15.043	-23.5543
  14	1	7	0.084202	11.6741	16.3524	-21.5485
  15	1	7	0.07114	11.2614	14.8052	-20.8583
  16	1	3	-8e-06	9.33188	15.8781	-22.3432
  17	1	1	-0.400145	8.91822	15.8611	-20.105
  18	1	6	0.053825	8.41706	15.3793	-21.2505
  19	1	5	0.095789	9.61861	16.9182	-22.1555
  20	1	5	0.095196	8.71579	15.9146	-23.2347
  21	1	7	0.084202	8.39946	14.2937	-21.3373
  22	1	7	0.07114	7.41138	15.7036	-21.519
  23	1	3	-8e-06	8.42502	15.4872	-19.039
  24	1	1	-0.400145	7.89843	13.7198	-17.5677
  25	1	6	0.053825	8.69424	14.03	-18.5912
  26	1	5	0.095789	7.3355	15.5642	-19.0825
  27	1	5	0.095196	8.75755	16.1306	-18.2184
  28	1	7	0.084202	9.7651	13.936	-18.3697
  29	1	7	0.07114	8.5708	13.3868	-19.48
  30	1	3	-8e-06	8.12053	12.6564	-16.9729
  31	1	1	-0.400145	8.37883	10.3695	-17.2434
  32	1	6	0.053825	7.49713	11.336	-17.4931
  33	1	5	0.095789	7.64548	12.7814	-16.0007
  34	1	5	0.095196	9.18893	12.5094	-16.7763
  35	1	7	0.084202	7.17753	11.4745	-18.5377
  36	1	7	0.07114	6.5484	11.2158	-16.9582
  37	1	3	-8e-06	7.98441	9.40912	-16.5618
  38	1	1	-0.400145	8.33902	7.3981	-15.4839
  39	1	6	0.053825	9.00191	8.42326	-16.0241
  40	1	5	0.095789	7.2842	8.80514	-17.1496
  41	1	5	0.095196	7.42889	9.74258	-15.6709
  42	1	7	0.084202	9.71223	8.95139	-15.3645
  43	1	7	0.07114	9.6213	8.09338	-16.8555
  44	1	3	-8e-06	8.47934	7.25053	-14.2677
  45	1	1	-0.400145	7.43284	6.62773	-12.3035
  46	1	6	0.053825	7.62056	6.20924	-13.5492
  47	1	5	0.095789	8.30694	8.18099	-13.731
  48	1	5	0.095196	9.52124	6.96173	-14.0765
  49	1	7	0.084202	8.17467	5.2672	-13.6314
  50	1	7	0.07114	6.71421	6.01693	-14.1367
  51	1	3	-8e-06	7.28434	5.70919	-11.5048
  52	1	1	-0.400145	8.4265	4.76436	-9.70846
  53	1	6	0.053825	8.50861	4.87256	-11.0244
  54	1	5	0.095789	6.54831	4.97274	-11.8465
  55	1	5	0.095196	6.85887	6.14796	-10.6017
  56	1	7	0.084202	9.42617	5.36236	-11.3881
  57	1	7	0.07114	8.44706	3.90648	-11.5539
  58	1	3	-8e-06	9.1029	5.43773	-8.91256
  59	1	1	-0.400145	8.73522	6.59179	-6.96524
  60	1	6	0.053825	8.63007	5.37183	-7.46188
  61	1	5	0.095789	9.12503	6.48943	-9.19455
  62	1	5	0.095196	10.1542	5.15683	-8.95423
  63	1	7	0.084202	9.21179	4.57897	-6.969
  64	1	7	0.07114	7.59564	4.97557	-7.47099
  65	1	3	-8e-06	9.61815	6.83233	-6.11837
  66	1	1	-0.400145	10.7065	8.55511	-4.89158
  67	1	6	0.053825	9.70446	8.29718	-5.72475
  68	1	5	0.095789	10.6005	6.56016	-6.49172
  69	1	5	0.095196	9.45013	6.28726	-5.18897
  70	1	7	0.084202	8.7061	8.61131	-5.3894
  71	1	7	0.07114	9.85743	8.82098	-6.67644
  72	1	3	-8e-06	10.4801	8.97231	-3.74591
  73	1	1	-0.400145	11.3224	9.50601	-1.56222
  74	1	6	0.053825	11.6881	9.2972	-2.84238
  75	1	5	0.095789	9.84814	8.27614	-3.21054
  76	1	5	0.095196	9.92913	9.91451	-3.77746
  77	1	7	0.084202	12.1911	10.1375	-3.32596
  78	1	7	0.07114	12.3853	8.46769	-2.93419
  79	1	3	-8e-06	11.8008	10.4774	-0.951902
  80	1	1	-0.400145	11.1603	12.3753	0.269526
  81	1	6	0.053825	10.7675	11.5545	-0.704662
  82	1	5	0.095789	12.6744	10.9255	-1.40431
  83	1	5	0.095196	12.1735	10.1439	0.00993874
  84	1	7	0.084202	9.82905	11.0019	-0.513723
  85	1	7	0.07114	10.603	12.0438	-1.65707
  86	1	3	-8e-06	10.4479	12.2849	1.24615
  87	1	1	-0.400145	10.2127	12.8144	3.3509
  88	1	6	0.053825	10.8681	13.2577	2.3161
  89	1	5	0.095789	10.4983	11.2482	1.65583
  90	1	5	0.095196	9.41517	12.5568	1.04751
  91	1	7	0.084202	10.586	14.2483	1.93975
  92	1	7	0.07114	11.9643	13.1629	2.43085
  93	1	3	-8e-06	9.64098	13.4578	4.2188
  94	1	1	-0.400145	8.64959	13.3705	6.27629
  95	1	6	0.053825	9.20335	12.6012	5.36122
  96	1	5	0.095789	8.74964	13.9684	3.83018
  97	1	5	0.095196	10.2765	14.2628	4.5801
  98	1	7	0.084202	10.1002	12.0462	5.70577
  99	1	7	0.07114	8.5446	11.8206	4.95958
 100	1	3	-8e-06	8.78725	13.0873	7.473
 101	1	1	-0.400145	6.94623	12.9272	8.98736
 102	1	6	0.053825	7.90041	13.7942	8.54124
 103	1	5	0.095789	9.82799	13.1915	7.7147
 104	1	5	0.095196	8.57439	12.0035	7.63907
 105	1	7	0.084202	7.47666	14.753	8.08205
 106	1	7	0.07114	8.57908	14.202	9.33033
 107	1	3	-8e-06	5.83918	12.8825	8.46673
 108	1	1	-0.400145	3.52877	12.9217	8.82294
 109	1	6	0.053825	4.70112	13.0529	9.42581
 110	1	5	0.095789	5.73056	11.8806	8.00854
 111	1	5	0.095196	5.71441	13.5895	7.65458
 112	1	7	0.084202	4.88859	14.0607	9.81336
 113	1	7	0.07114	4.87084	12.3443	10.2513
 114	1	3	-8e-06	2.63078	13.1027	9.61227
 115	1	1	-0.400145	0.952543	14.4053	10.2714
 116	1	6	0.053825	2.24194	14.5431	10.0231
 117	1	5	0.095789	2.78298	12.5678	10.5345
 118	1	5	0.095196	1.73011	12.7192	9.18572
 119	1	7	0.084202	2.52922	15.1639	9.17052
 120	1	7	0.07114	2.84857	14.9654	10.7808
 121	1	3	-8e-06	0.266017	15.4586	10.3674
 122	1	1	-0.400145	-1.10166	17.0669	9.37785
 123	1	6	0.053825	-0.6148	15.8639	9.17907
 124	1	5	0.095789	0.900231	16.3168	10.6561
 125	1	5	0.095196	-0.470601	15.2427	11.1776
 126	1	7	0.084202	-1.39443	15.0913	9.093
 127	1	7	0.07114	0.0323535	15.8469	8.27824
 128	1	3	-8e-06	-1.71502	17.5702	8.45088
 129	1	1	-0.400145	-2.98326	19.3358	7.84432
 130	1	6	0.053825	-2.47811	18.7531	8.91015
 131	1	5	0.095789	-2.35536	16.852	7.97196
 132	1	5	0.095196	-1.00057	17.9105	7.70904
 133	1	7	0.084202	-1.85496	19.4559	9.46982
 134	1	7	0.07114	-3.20552	18.3046	9.65603
 135	1	3	-8e-06	-4.10693	19.7595	7.78623
 136	1	1	-0.400145	-6.16176	19.2506	8.46046
 137	1	6	0.053825	-5.25596	18.7539	7.63343
 138	1	5	0.095789	-4.21872	20.5318	6.95847
 139	1	5	0.095196	-4.34537	20.3808	8.71141
 140	1	7	0.084202	-4.89409	17.8079	7.90748
 141	1	7	0.07114	-5.58103	18.7628	6.61187
 142	1	3	-8e-06	-7.07577	18.5335	8.92961
 143	1	1	-0.400145	-9.36378	18.3932	9.49635
 144	1	6	0.053825	-8.35086	19.2403	9.28651
 145	1	5	0.095789	-6.75001	18.1363	9.8555
 146	1	5	0.095196	-7.36109	17.6917	8.37134
 147	1	7	0.084202	-8.49515	19.9033	8.43184
 148	1	7	0.07114	-8.14674	20.0003	10.071
 149	1	3	-8e-06	-10.4608	18.9726	9.61715
 150	1	1	-0.400145	-12.7403	19.0166	9.04441
 151	1	6	0.053825	-11.8255	18.1541	9.47545
 152	1	5	0.095789	-10.5269	19.8712	8.94913
 153	1	5	0.095196	-10.534	19.4163	10.5443
 154	1	7	0.084202	-11.9395	17.7574	10.5121
 155	1	7	0.07114	-11.7033	17.222	8.91962
 156	1	3	-8e-06	-12.8912	19.1093	7.82255
 157	1	1	-0.400145	-14.8314	19.1107	6.35321
 158	1	6	0.053825	-14.27	19.6559	7.4236
 159	1	5	0.095789	-12.8202	18.1528	7.38473
 160	1	5	0.095196	-12.1675	19.6892	7.29865
 161	1	7	0.084202	-14.1839	20.7875	7.41918
 162	1	7	0.07114	-14.8246	19.5225	8.3287
 163	1	3	-8e-06	-15.5083	18.0427	6.36493
 164	1	1	-0.400145	-15.3057	15.7173	5.96071
 165	1	6	0.053825	-14.9917	16.9113	5.46897
 166	1	5	0.095789	-16.5256	18.2248	6.04405
 167	1	5	0.095196	-15.6474	17.639	7.37526
 168	1	7	0.084202	-13.8952	16.985	5.41432
 169	1	7	0.07114	-15.2121	17.2018	4.36671
 170	1	3	-8e-06	-15.951	14.9199	5.22174
 171	1	1	-0.400145	-15.5869	13.8691	3.15171
 172	1	6	0.053825	-14.9343	14.3839	4.25978
 173	1	5	0.095789	-16.8148	15.4318	4.7966
 174	1	5	0.095196	-16.4638	14.1321	5.86488
 175	1	7	0.084202	-14.3529	13.8188	4.91178
 176	1	7	0.07114	-14.2339	15.0949	4.03005
 177	1	3	-8e-06	-15.0386	12.859	2.63375
 178	1	1	-0.400145	-16.1729	10.9863	1.80706
 179	1	6	0.053825	-15.7514	12.2399	1.52082
 180	1	5	0.095789	-14.8837	12.0762	3.36387
 181	1	5	0.095196	-14.0597	13.061	2.35698
 182	1	7	0.084202	-14.9689	12.2719	0.677671
 183	1	7	0.07114	-16.5723	12.8947	1.08819
 184	1	3	-8e-06	-17.3199	10.5967	1.95764
 185	1	1	-0.400145	-18.6528	8.74799	2.47276
 186	1	6	0.053825	-17.5189	9.11563	1.75988
 187	1	5	0.095789	-18.0646	11.0636	1.2681
 188	1	5	0.095196	-17.6888	10.8051	2.96707
 189	1	7	0.084202	-16.5791	8.66437	2.05096
 190	1	7	0.07114	-17.6431	9.01743	0.683735
 191	1	3	-8e-06	-18.5801	7.71505	3.12455
 192	1	1	-0.400145	-19.5729	5.68245	3.79969
 193	1	6	0.053825	-19.8008	6.9342	3.36581
 194	1	5	0.095789	-18.1108	7.96874	4.13394
 195	1	5	0.095196	-17.9432	7.03059	2.50975
 196	1	7	0.084202	-20.4179	6.90473	2.4767
 197	1	7	0.07114	-20.4732	7.49479	3.94729
 198	1	3	-8e-06	-18.8616	5.27531	4.72493
 199	1	1	-0.400145	-18.6151	5.28417	6.97128
 200	1	6	0.053825	-19.2571	5.96743	6.00364
 201	1	5	0.095789	-17.8337	5.34723	4.47542
 202	1	5	0.095196	-19.1402	4.22149	4.94772
 203	1	7	0.084202	-20.3948	5.79401	6.11809
 204	1	7	0.07114	-19.181	7.04215	6.11596
 205	1	3	-8e-06	-19.313	4.64749	7.81179
 206	1	1	-0.400145	-20.9464	6.15743	8.33386
 207	1	6	0.053825	-20.1143	5.34037	8.86404
 208	1	5	0.095789	-18.5761	4.09851	8.45282
 209	1	5	0.095196	-19.9499	3.94332	7.30891
 210	1	7	0.084202	-19.3843	5.69871	9.57098
 211	1	7	0.07114	-20.6026	4.67543	9.54649
 212	1	3	-8e-06	-21.516	7.10371	8.8723
 213	1	1	-0.400145	-22.6505	7.77032	10.6016
 214	1	6	0.053825	-22.716	6.73199	9.71067
 215	1	5	0.095789	-21.7124	7.75308	8.06999
 216	1	5	0.095196	-20.7459	7.6205	9.34413
 217	1	7	0.084202	-22.5919	5.72163	9.96087
 218	1	7	0.07114	-23.4795	6.59982	8.95184
 219	1	3	-0.232441	-25.2952	8.53479	11.1965
 220	1	8	0.444336	-23.1887	7.59257	11.6872
 221	1	3	-0.096823	-24.2847	8.30694	12.0301
 222	1	1	-0.491911	-22.7877	6.77628	12.4671
 223	1	5	0.148316	-26.0292	9.21225	11.5851
 224	1	5	0.163898	-25.1627	8.59691	10.1069
 225	1	5	0.064625	-24.4309	8.46732	13.0611

Velocities

   1	-0.00261479	0.00545587	0.0037553
   2	-0.00386589	0.00692083	-0.000701548
   3	-0.00119955	0.00504138	-0.00293452
   4	-0.0071366	0.00018763	-0.00287034
   5	-0.00361418	0.00796578	-0.00244772
   6	-0.000254294	0.00250467	-0.0110074
   7	-0.0294926	-0.00991399	0.00255194
   8	0.0167107	0.016352	-0.0108732
   9	-4.25103e-05	0.00877088	-0.000253871
  10	0.00125851	0.00330185	-0.000930029
  11	0.00049048	0.00841855	0.00248297
  12	0.00838369	0.00693561	-0.00550206
  13	0.00317092	0.0217358	0.00352731
  14	-0.00818397	0.0113659	-0.0185519
  15	-0.00459311	0.011224	0.00837304
  16	0.000723076	0.00738949	-0.00169369
  17	-0.00176136	0.00897431	0.00260746
  18	-0.00105987	0.00831751	-0.000792315
  19	0.0103107	0.0119024	-0.0170499
  20	-0.0035738	-0.0125266	0.00329146
  21	-0.0017142	0.0126036	0.00035601
  22	-0.00285103	0.00839991	0.000773177
  23	-0.0138684	0.0106355	-0.000503285
  24	-0.00160943	0.00580952	0.00129748
  25	-0.00481433	0.0117702	0.000368117
  26	-0.0116531	-0.00295393	0.00343763
  27	-0.0140554	0.00381267	0.00308537
  28	0.000949106	0.0128395	-0.0104231
  29	-0.00896092	0.00876035	-0.00373019
  30	-0.00275687	0.00275816	-0.00090424
  31	-0.00115254	0.00669708	-0.00225445
  32	-0.00575023	0.00554261	0.000369586
  33	0.00683949	0.00723217	0.00184068
  34	0.00749302	0.0157943	-0.00555146
  35	-0.00593072	0.00422836	0.00226899
  36	-0.0137485	0.00688713	-0.0145766
  37	-0.00109416	0.0113195	-0.00105701
  38	-0.00343767	0.00932377	0.000278189
  39	-0.0058482	0.00350162	-0.00779816
  40	-0.00247353	0.0126799	0.000777205
  41	0.00615133	0.01327	-4.84e-05
  42	0.00162656	0.00792688	-0.0184675
  43	0.000488123	0.015304	0.000285941
  44	-0.00361263	0.00809649	0.00552154
  45	-0.00224637	0.00589715	-0.000490552
  46	-0.00394095	0.00615316	-0.000862391
  47	0.00443503	0.0119054	0.0032027
  48	-0.0048437	0.0041391	-0.00595001
  49	-0.0038722	0.0169658	-0.000517223
  50	-0.0102774	-0.000651521	0.0051218
  51	-0.00346271	0.00220536	-0.00263309
  52	-0.00107367	-0.00180915	-0.000206731
  53	-0.00197494	0.00248172	-0.00198189
  54	0.00175402	0.00135069	1.01995e-05
  55	-0.0242	-0.00236494	-0.00937958
  56	-0.00383264	-0.0020857	0.000953279
  57	0.000549699	-0.00442357	-0.0101353
  58	-0.00235839	0.000486582	-0.00139117
  59	-0.00416239	0.00161868	-0.00187862
  60	-0.00235949	-0.00196837	0.00330641
  61	-0.0111081	0.00383583	0.00245218
  62	0.00779824	0.0117088	-6.07063e-05
  63	-0.00669747	-0.00529796	0.0008167
  64	-0.00691043	0.000236316	0.000254895
  65	-0.00391177	0.00568258	-0.00352061
  66	0.000795928	0.00687494	-0.00230757
  67	-0.00307297	0.00714268	-0.00302525
  68	-0.00110806	0.00542056	0.00525193
  69	-0.0040416	0.00641443	-0.00406496
  70	-0.00314945	0.0191503	-0.0117317
  71	-0.000825925	0.00426723	-0.00621387
  72	0.00327721	0.00937129	-0.00389889
  73	0.00224369	0.000538038	3.11867e-05
  74	0.00708399	-0.000147915	-0.000100023
  75	-0.00395129	0.0114438	-0.0071812
  76	-0.0020145	0.00152729	-0.000509347
  77	0.00844358	0.00807007	0.011687
  78	0.00130282	-0.0103763	0.000623444
  79	0.00381462	0.00205449	-0.00311708
  80	0.00171619	-0.00233809	0.00140409
  81	0.000712915	0.000232074	-0.00105481
  82	0.00763147	0.0114229	0.00879769
  83	0.0126136	-0.00201242	0.00690642
  84	-0.0069373	-0.0127645	-0.0019469
  85	-0.00630476	-0.000634474	0.0101404
  86	-0.00152736	0.000755948	0.00418484
  87	-0.00567073	0.00302947	-0.00579444
  88	0.00490999	0.00430047	-0.00260279
  89	0.00921319	0.0145985	-0.000156648
  90	0.00242114	-0.00314263	0.00964507
  91	0.00414139	0.0016831	-0.00159595
  92	0.000519466	-0.00260321	0.00370732
  93	-0.0015268	-0.00204055	-0.0052567
  94	-0.00261741	-0.0044536	-0.00366867
  95	-0.0032973	-0.0024242	-0.00535199
  96	-0.00804718	-0.0194142	-0.00975202
  97	-0.0111153	-0.0027926	-0.000284811
  98	0.0121306	-0.0102431	-0.0219639
  99	-0.0141186	-0.00971462	-0.0161111
 100	-0.000179209	0.00180287	-0.00271779
 101	-0.0115416	0.000808856	0.00187342
 102	-0.00120134	0.000237234	0.00538521
 103	0.00748259	0.0286299	-0.00178204
 104	-0.00617166	0.0125264	0.00737466
 105	-0.0100955	0.00524951	0.00516387
 106	-0.00132716	0.0122541	-0.00588192
 107	-0.00258648	0.00449678	-0.000525392
 108	-0.00205148	-0.00211959	-0.00665413
 109	-0.00675997	0.00441183	-0.00790086
 110	0.00224243	0.020691	-0.0221493
 111	0.0022983	0.00698302	0.00451808
 112	0.00490642	0.00888532	-0.00120342
 113	-0.0104647	-0.00474751	-0.00400109
 114	0.00217675	-0.00461614	-0.00168235
 115	0.00329491	0.00264959	-0.00851777
 116	-0.00223004	-0.00300221	-0.00517314
 117	-0.0301555	-0.00312553	-0.0126468
 118	-0.0183588	-0.00220431	-0.0197527
 119	0.00165579	-0.00851873	-0.00795909
 120	0.00792759	-0.0157541	-0.0090331
 121	0.00043923	0.00350304	-0.00308557
 122	0.000356235	0.000280536	-0.00327764
 123	0.000162269	0.00431783	-0.00619909
 124	0.0216183	-0.00368743	-0.0133584
 125	0.00754951	-0.00619703	-0.0065481
 126	0.0135183	0.00881054	-0.0181136
 127	-0.00985389	0.0152609	0.00791945
 128	0.00101564	-0.000707165	-0.00491792
 129	-0.000635716	-0.00479551	-0.00341896
 130	-0.0032777	0.00956518	-0.000610483
 131	-0.0169124	-0.00120935	0.00865736
 132	-0.0201454	-0.0213929	-0.00149889
 133	0.0026697	0.0285108	0.0059784
 134	0.000328425	-0.00612436	-0.0304882
 135	-0.000553838	-0.00250038	-0.00264915
 136	0.00178938	0.00085449	0.000287161
 137	0.00258938	-0.00734242	0.00194486
 138	-0.00667669	0.0161554	0.0322764
 139	0.0132454	-0.0270908	0.0021778
 140	0.0223326	-0.00139558	-0.00228239
 141	0.0242674	0.0252428	0.00155839
 142	0.000876896	0.0015113	0.00165647
 143	-0.00410399	0.00983739	0.00684203
 144	0.00500375	0.01107	0.0031763
 145	0.0263574	-0.0324283	0.00578946
 146	-0.00964463	-0.00579414	-0.00614214
 147	-0.0236499	0.0114321	-0.0278187
 148	0.00877997	0.0148095	-0.0071371
 149	0.00133244	-0.00787679	0.0129206
 150	0.00791582	0.00178647	0.00388334
 151	0.00622876	-0.00825052	0.00213668
 152	0.00904349	0.00363473	-0.0153893
 153	-0.0245102	-0.00763588	0.00823952
 154	-0.00120587	0.0117858	-0.000233403
 155	0.0177516	-0.00289517	0.00851061
 156	0.000196959	-0.00225455	0.00159929
 157	-0.00232579	0.00465054	0.0102612
 158	0.00258931	0.00413401	0.00592207
 159	0.0143923	-0.0119455	0.00981078
 160	0.00875705	0.0221572	0.0272351
 161	0.004629	0.00925799	0.0160527
 162	-0.0110696	0.00750907	-0.0136138
 163	0.0013988	0.00745727	0.0119869
 164	0.00961653	0.00549513	0.00274749
 165	0.00550059	0.0081904	0.00792029
 166	0.00499661	-0.000641865	0.0315925
 167	0.0197915	-0.00227583	0.0364542
 168	-0.00514195	-0.034699	0.00880378
 169	-0.0213028	-0.0014609	-0.0287529
 170	-0.00618468	0.0101591	0.00280402
 171	0.00621169	0.00252256	0.00745414
 172	0.000311921	-0.00301466	-0.00439635
 173	-0.00352	0.00371155	0.0139236
 174	-0.000649056	-0.014549	0.00890861
 175	-0.0053095	0.00965604	0.017075
 176	0.0113134	0.0277017	0.019934
 177	0.000934722	0.0135717	0.00380205
 178	-0.00148123	-0.000843598	0.00546788
 179	-0.000489247	0.00133282	0.00579349
 180	0.00793109	0.0141079	-0.0419408
 181	0.0236499	0.00651021	-0.00902708
 182	-0.0285997	-0.0183417	-0.00328031
 183	0.00910862	0.0250235	0.00366248
 184	-0.00163221	0.0044375	0.00685796
 185	-0.000853061	-0.0098717	0.000104781
 186	0.0102762	0.000555421	-0.0122322
 187	-0.0115741	0.0104309	-0.0183522
 188	-0.00906616	-0.0387702	0.0426059
 189	0.0251895	-0.0212904	-0.00834987
 190	0.00858506	0.0230985	0.0152026
 191	-0.00484082	0.00302972	0.00197099
 192	-0.00039239	0.00568445	0.00193281
 193	0.00568506	-0.00056438	0.006648
 194	0.0175676	-0.000874567	0.0154472
 195	0.00735779	0.0330515	-0.0136077
 196	0.0211374	0.0166434	0.0161649
 197	0.006073	-0.0297854	0.0147554
 198	0.00477363	0.00582897	-0.00232916
 199	0.00310619	0.00884677	-0.00574513
 200	-1.89652e-05	0.00740816	-0.00159384
 201	0.0238655	-0.0322797	-0.00640106
 202	-0.0348524	0.0382038	-0.0286891
 203	0.00145532	-0.00385054	-0.015073
 204	0.0282472	0.0119659	0.00471949
 205	0.000667601	-0.00847842	-0.00293534
 206	-0.000169536	-0.000467254	-0.00299693
 207	0.00751374	-0.000524234	0.00269483
 208	0.013672	0.0389704	-0.0140124
 209	-0.0263207	-0.0153385	-0.00833274
 210	0.00674753	0.000453393	-0.0276085
 211	-0.0114903	0.00179636	-0.0203923
 212	0.00568618	-0.00433253	0.00684251
 213	0.00839551	-0.0111133	0.00166429
 214	0.00206159	0.0108508	0.00556359
 215	0.020432	0.0235711	-0.0323668
 216	0.00718546	-0.00222638	-0.0127275
 217	0.0127928	-0.035074	-0.0360191
 218	0.0185544	0.00309864	0.00886134
 219	-0.00283671	-0.000217442	0.00244698
 220	-0.00854202	-0.000506762	-0.000761018
 221	-0.00165467	0.000520292	-0.00307138
 222	-0.00480647	-0.00400478	0.00222643
 223	0.0128239	-0.0298022	0.0101247
 224	-0.0105138	0.00691635	-0.000187104
 225	-0.0172175	-0.00998651	-0.012828

Bonds

   1	5	1	3
   2	5	2	3
   3	4	3	5
   4	2	4	5
   5	1	4	6
   6	1	4	7
   7	3	5	8
   8	7	9	11
   9	1	9	12
  10	1	9	13
  11	6	10	11
  12	8	11	14
  13	8	11	15
  14	9	1	9
  15	7	16	18
  16	1	16	19
  17	1	16	20
  18	6	17	18
  19	8	18	21
  20	8	18	22
  21	9	10	16
  22	7	23	25
  23	1	23	26
  24	1	23	27
  25	6	24	25
  26	8	25	28
  27	8	25	29
  28	9	17	23
  29	7	30	32
  30	1	30	33
  31	1	30	34
  32	6	31	32
  33	8	32	35
  34	8	32	36
  35	9	24	30
  36	7	37	39
  37	1	37	40
  38	1	37	41
  39	6	38	39
  40	8	39	42
  41	8	39	43
  42	9	31	37
  43	7	44	46
  44	1	44	47
  45	1	44	48
  46	6	45	46
  47	8	46	49
  48	8	46	50
  49	9	38	44
  50	7	51	53
  51	1	51	54
  52	1	51	55
  53	6	52	53
  54	8	53	56
  55	8	53	57
  56	9	45	51
  57	7	58	60
  58	1	58	61
  59	1	58	62
  60	6	59	60
  61	8	60	63
  62	8	60	64
  63	9	52	58
  64	7	65	67
  65	1	65	68
  66	1	65	69
  67	6	66	67
  68	8	67	70
  69	8	67	71
  70	9	59	65
  71	7	72	74
  72	1	72	75
  73	1	72	76
  74	6	73	74
  75	8	74	77
  76	8	74	78
  77	9	66	72
  78	7	79	81
  79	1	79	82
  80	1	79	83
  81	6	80	81
  82	8	81	84
  83	8	81	85
  84	9	73	79
  85	7	86	88
  86	1	86	89
  87	1	86	90
  88	6	87	88
  89	8	88	91
  90	8	88	92
  91	9	80	86
  92	7	93	95
  93	1	93	96
  94	1	93	97
  95	6	94	95
  96	8	95	98
  97	8	95	99
  98	9	87	93
  99	7	100	102
 100	1	100	103
 101	1	100	104
 102	6	101	102
 103	8	102	105
 104	8	102	106
 105	9	94	100
 106	7	107	109
 107	1	107	110
 108	1	107	111
 109	6	108	109
 110	8	109	112
 111	8	109	113
 112	9	101	107
 113	7	114	116
 114	1	114	117
 115	1	114	118
 116	6	115	116
 117	8	116	119
 118	8	116	120
 119	9	108	114
 120	7	121	123
 121	1	121	124
 122	1	121	125
 123	6	122	123
 124	8	123	126
 125	8	123	127
 126	9	115	121
 127	7	128	130
 128	1	128	131
 129	1	128	132
 130	6	129	130
 131	8	130	133
 132	8	130	134
 133	9	122	128
 134	7	135	137
 135	1	135	138
 136	1	135	139
 137	6	136	137
 138	8	137	140
 139	8	137	141
 140	9	129	135
 141	7	142	144
 142	1	142	145
 143	1	142	146
 144	6	143	144
 145	8	144	147
 146	8	144	148
 147	9	136	142
 148	7	149	151
 149	1	149	152
 150	1	149	153
 151	6	150	151
 152	8	151	154
 153	8	151	155
 154	9	143	149
 155	7	156	158
 156	1	156	159
 157	1	156	160
 158	6	157	158
 159	8	158	161
 160	8	158	162
 161	9	150	156
 162	7	163	165
 163	1	163	166
 164	1	163	167
 165	6	164	165
 166	8	165	168
 167	8	165	169
 168	9	157	163
 169	7	170	172
 170	1	170	173
 171	1	170	174
 172	6	171	172
 173	8	172	175
 174	8	172	176
 175	9	164	170
 176	7	177	179
 177	1	177	180
 178	1	177	181
 179	6	178	179
 180	8	179	182
 181	8	179	183
 182	9	171	177
 183	7	184	186
 184	1	184	187
 185	1	184	188
 186	6	185	186
 187	8	186	189
 188	8	186	190
 189	9	178	184
 190	7	191	193
 191	1	191	194
 192	1	191	195
 193	6	192	193
 194	8	193	196
 195	8	193	197
 196	9	185	191
 197	7	198	200
 198	1	198	201
 199	1	198	202
 200	6	199	200
 201	8	200	203
 202	8	200	204
 203	9	192	198
 204	7	205	207
 205	1	205	208
 206	1	205	209
 207	6	206	207
 208	8	207	210
 209	8	207	211
 210	9	199	205
 211	7	212	214
 212	1	212	215
 213	1	212	216
 214	6	213	214
 215	8	214	217
 216	8	214	218
 217	9	206	212
 218	12	219	221
 219	1	219	223
 220	1	219	224
 221	10	220	221
 222	11	220	222
 223	1	221	225
 224	11	213	220

Angles

   1	7	1	3	2
   2	6	1	3	5
   3	6	2	3	5
   4	2	5	4	6
   5	2	5	4	7
   6	1	6	4	7
   7	5	3	5	4
   8	4	3	5	8
   9	3	4	5	8
  10	10	11	9	12
  11	10	11	9	13
  12	1	12	9	13
  13	9	9	11	10
  14	8	9	11	14
  15	8	9	11	15
  16	12	10	11	14
  17	12	10	11	15
  18	11	14	11	15
  19	13	3	1	9
  20	14	1	9	11
  21	15	1	9	12
  22	15	1	9	13
  23	10	18	16	19
  24	10	18	16	20
  25	1	19	16	20
  26	9	16	18	17
  27	8	16	18	21
  28	8	16	18	22
  29	12	17	18	21
  30	12	17	18	22
  31	11	21	18	22
  32	16	11	10	16
  33	14	10	16	18
  34	15	10	16	19
  35	15	10	16	20
  36	10	25	23	26
  37	10	25	23	27
  38	1	26	23	27
  39	9	23	25	24
  40	8	23	25	28
  41	8	23	25	29
  42	12	24	25	28
  43	12	24	25	29
  44	11	28	25	29
  45	16	18	17	23
  46	14	17	23	25
  47	15	17	23	26
  48	15	17	23	27
  49	10	32	30	33
  50	10	32	30	34
  51	1	33	30	34
  52	9	30	32	31
  53	8	30	32	35
  54	8	30	32	36
  55	12	31	32	35
  56	12	31	32	36
  57	11	35	32	36
  58	16	25	24	30
  59	14	24	30	32
  60	15	24	30	33
  61	15	24	30	34
  62	10	39	37	40
  63	10	39	37	41
  64	1	40	37	41
  65	9	37	39	38
  66	8	37	39	42
  67	8	37	39	43
  68	12	38	39	42
  69	12	38	39	43
  70	11	42	39	43
  71	16	32	31	37
  72	14	31	37	39
  73	15	31	37	40
  74	15	31	37	41
  75	10	46	44	47
  76	10	46	44	48
  77	1	47	44	48
  78	9	44	46	45
  79	8	44	46	49
  80	8	44	46	50
  81	12	45	46	49
  82	12	45	46	50
  83	11	49	46	50
  84	16	39	38	44
  85	14	38	44	46
  86	15	38	44	47
  87	15	38	44	48
  88	10	53	51	54
  89	10	53	51	55
  90	1	54	51	55
  91	9	51	53	52
  92	8	51	53	56
  93	8	51	53	57
  94	12	52	53	56
  95	12	52	53	57
  96	11	56	53	57
  97	16	46	45	51
  98	14	45	51	53
  99	15	45	51	54
 100	15	45	51	55
 101	10	60	58	61
 102	10	60	58	62
 103	1	61	58	62
 104	9	58	60	59
 105	8	58	60	63
 106	8	58	60	64
 107	12	59	60	63
 108	12	59	60	64
 109	11	63	60	64
 110	16	53	52	58
 111	14	52	58	60
 112	15	52	58	61
 113	15	52	58	62
 114	10	67	65	68
 115	10	67	65	69
 116	1	68	65	69
 117	9	65	67	66
 118	8	65	67	70
 119	8	65	67	71
 120	12	66	67	70
 121	12	66	67	71
 122	11	70	67	71
 123	16	60	59	65
 124	14	59	65	67
 125	15	59	65	68
 126	15	59	65	69
 127	10	74	72	75
 128	10	74	72	76
 129	1	75	72	76
 130	9	72	74	73
 131	8	72	74	77
 132	8	72	74	78
 133	12	73	74	77
 134	12	73	74	78
 135	11	77	74	78
 136	16	67	66	72
 137	14	66	72	74
 138	15	66	72	75
 139	15	66	72	76
 140	10	81	79	82
 141	10	81	79	83
 142	1	82	79	83
 143	9	79	81	80
 144	8	79	81	84
 145	8	79	81	85
 146	12	80	81	84
 147	12	80	81	85
 148	11	84	81	85
 149	16	74	73	79
 150	14	73	79	81
 151	15	73	79	82
 152	15	73	79	83
 153	10	88	86	89
 154	10	88	86	90
 155	1	89	86	90
 156	9	86	88	87
 157	8	86	88	91
 158	8	86	88	92
 159	12	87	88	91
 160	12	87	88	92
 161	11	91	88	92
 162	16	81	80	86
 163	14	80	86	88
 164	15	80	86	89
 165	15	80	86	90
 166	10	95	93	96
 167	10	95	93	97
 168	1	96	93	97
 169	9	93	95	94
 170	8	93	95	98
 171	8	93	95	99
 172	12	94	95	98
 173	12	94	95	99
 174	11	98	95	99
 175	16	88	87	93
 176	14	87	93	95
 177	15	87	93	96
 178	15	87	93	97
 179	10	102	100	103
 180	10	102	100	104
 181	1	103	100	104
 182	9	100	102	101
 183	8	100	102	105
 184	8	100	102	106
 185	12	101	102	105
 186	12	101	102	106
 187	11	105	102	106
 188	16	95	94	100
 189	14	94	100	102
 190	15	94	100	103
 191	15	94	100	104
 192	10	109	107	110
 193	10	109	107	111
 194	1	110	107	111
 195	9	107	109	108
 196	8	107	109	112
 197	8	107	109	113
 198	12	108	109	112
 199	12	108	109	113
 200	11	112	109	113
 201	16	102	101	107
 202	14	101	107	109
 203	15	101	107	110
 204	15	101	107	111
 205	10	116	114	117
 206	10	116	114	118
 207	1	117	114	118
 208	9	114	116	115
 209	8	114	116	119
 210	8	114	116	120
 211	12	115	116	119
 212	12	115	116	120
 213	11	119	116	120
 214	16	109	108	114
 215	14	108	114	116
 216	15	108	114	117
 217	15	108	114	118
 218	10	123	121	124
 219	10	123	121	125
 220	1	124	121	125
 221	9	121	123	122
 222	8	121	123	126
 223	8	121	123	127
 224	12	122	123	126
 225	12	122	123	127
 226	11	126	123	127
 227	16	116	115	121
 228	14	115	121	123
 229	15	115	121	124
 230	15	115	121	125
 231	10	130	128	131
 232	10	130	128	132
 233	1	131	128	132
 234	9	128	130	129
 235	8	128	130	133
 236	8	128	130	134
 237	12	129	130	133
 238	12	129	130	134
 239	11	133	130	134
 240	16	123	122	128
 241	14	122	128	130
 242	15	122	128	131
 243	15	122	128	132
 244	10	137	135	138
 245	10	137	135	139
 246	1	138	135	139
 247	9	135	137	136
 248	8	135	137	140
 249	8	135	137	141
 250	12	136	137	140
 251	12	136	137	141
 252	11	140	137	141
 253	16	130	129	135
 254	14	129	135	137
 255	15	129	135	138
 256	15	129	135	139
 257	10	144	142	145
 258	10	144	142	146
 259	1	145	142	146
 260	9	142	144	143
 261	8	142	144	147
 262	8	142	144	148
 263	12	143	144	147
 264	12	143	144	148
 265	11	147	144	148
 266	16	137	136	142
 267	14	136	142	144
 268	15	136	142	145
 269	15	136	142	146
 270	10	151	149	152
 271	10	151	149	153
 272	1	152	149	153
 273	9	149	151	150
 274	8	149	151	154
 275	8	149	151	155
 276	12	150	151	154
 277	12	150	151	155
 278	11	154	151	155
 279	16	144	143	149
 280	14	143	149	151
 281	15	143	149	152
 282	15	143	149	153
 283	10	158	156	159
 284	10	158	156	160
 285	1	159	156	160
 286	9	156	158	157
 287	8	156	158	161
 288	8	156	158	162
 289	12	157	158	161
 290	12	157	158	162
 291	11	161	158	162
 292	16	151	150	156
 293	14	150	156	158
 294	15	150	156	159
 295	15	150	156	160
 296	10	165	163	166
 297	10	165	163	167
 298	1	166	163	167
 299	9	163	165	164
 300	8	163	165	168
 301	8	163	165	169
 302	12	164	165	168
 303	12	164	165	169
 304	11	168	165	169
 305	16	158	157	163
 306	14	157	163	165
 307	15	157	163	166
 308	15	157	163	167
 309	10	172	170	173
 310	10	172	170	174
 311	1	173	170	174
 312	9	170	172	171
 313	8	170	172	175
 314	8	170	172	176
 315	12	171	172	175
 316	12	171	172	176
 317	11	175	172	176
 318	16	165	164	170
 319	14	164	170	172
 320	15	164	170	173
 321	15	164	170	174
 322	10	179	177	180
 323	10	179	177	181
 324	1	180	177	181
 325	9	177	179	178
 326	8	177	179	182
 327	8	177	179	183
 328	12	178	179	182
 329	12	178	179	183
 330	11	182	179	183
 331	16	172	171	177
 332	14	171	177	179
 333	15	171	177	180
 334	15	171	177	181
 335	10	186	184	187
 336	10	186	184	188
 337	1	187	184	188
 338	9	184	186	185
 339	8	184	186	189
 340	8	184	186	190
 341	12	185	186	189
 342	12	185	186	190
 343	11	189	186	190
 344	16	179	178	184
 345	14	178	184	186
 346	15	178	184	187
 347	15	178	184	188
 348	10	193	191	194
 349	10	193	191	195
 350	1	194	191	195
 351	9	191	193	192
 352	8	191	193	196
 353	8	191	193	197
 354	12	192	193	196
 355	12	192	193	197
 356	11	196	193	197
 357	16	186	185	191
 358	14	185	191	193
 359	15	185	191	194
 360	15	185	191	195
 361	10	200	198	201
 362	10	200	198	202
 363	1	201	198	202
 364	9	198	200	199
 365	8	198	200	203
 366	8	198	200	204
 367	12	199	200	203
 368	12	199	200	204
 369	11	203	200	204
 370	16	193	192	198
 371	14	192	198	200
 372	15	192	198	201
 373	15	192	198	202