pySIMM System Object

246 atoms
245 bonds
448 angles
313 dihedrals
1 impropers

8 atom types
12 bond types
22 angle types
5 dihedral types
1 improper types

-80.227520 80.227520 xlo xhi
-80.227520 80.227520 ylo yhi
-80.227520 80.227520 zlo zhi

Masses

   1	16.0	# o
   2	12.01	# c
   3	12.01	# c2
   4	12.01	# ce
   5	1.008	# ha
   6	12.01	# c3
   7	1.008	# h1
   8	12.01	# c1

Pair Coeffs

   1	0.21	2.959921901149463	# o
   2	0.086	3.3996695084235347	# c
   3	0.086	3.3996695084235347	# c2
   4	0.086	3.3996695084235347	# ce
   5	0.015	2.59964245953351	# ha
   6	0.1094	3.3996695084235347	# c3
   7	0.0157	2.471353044121301	# h1
   8	0.21	3.3996695084235347	# c1

Bond Coeffs

   1	343.1	1.0879	# c2,ha
   2	547.3	1.3461	# c2,ce
   3	342.5	1.0883	# ce,ha
   4	354.5	1.4825	# c,ce
   5	637.7	1.2183	# c,o
   6	449.9	1.3165	# c3,o
   7	326.8	1.5095	# c2,c3
   8	330.6	1.0969	# c3,h1
   9	622.9	1.2247	# c2,o
  10	625.0	1.307	# c1,c2
  11	758.1	1.1724	# c1,o
  12	569.4	1.3343	# c2,c2

Angle Coeffs

   1	38.11	116.9	# ha,c2,ha
   2	49.51	120.45	# ce,c2,ha
   3	49.61	119.94	# c2,ce,ha
   4	46.52	116.46	# c,ce,ha
   5	65.45	120.42	# c,ce,c2
   6	68.83	123.2	# ce,c,o
   7	77.94	130.25	# o,c,o
   8	47.07	109.96	# c2,c3,h1
   9	68.15	110.35	# c2,c3,o
  10	45.94	115.68	# c3,c2,ha
  11	39.24	108.46	# h1,c3,h1
  12	52.64	116.45	# h1,c3,o
  13	65.83	113.14	# c2,o,c
  14	67.92	122.82	# c3,c2,o
  15	55.28	117.23	# ha,c2,o
  16	65.83	113.14	# c2,o,c3
  17	62.94	179.5	# c2,c1,o
  18	70.06	121.62	# c1,c2,c2
  19	49.85	120.43	# c2,c2,ha
  20	50.62	120.42	# c1,c2,ha
  21	65.83	113.14	# c3,o,c1
  22	68.89	180.0	# o,c1,o

Dihedral Coeffs

   1	1	6.65	2	180	# X,c2,ce,X
   2	1	2.175	2	180	# X,c,ce,X
   3	1	0.0	2	0	# X,c2,c3,X
   4	1	6.65	2	180	# X,c2,c2,X
   5	1	0.0	2	180	# X,c1,c2,X

Improper Coeffs

   1	10.5	-1	2	# c,X,X,o

Atoms

   1	1	1	-0.104756	28.2497	27.3735	-1.7715
   2	1	1	-0.569213	27.9042	29.0601	-0.395634
   3	1	2	0.789146	28.4845	28.4941	-1.32069
   4	1	3	-0.154228	30.359	28.8735	-2.96862
   5	1	4	-0.389642	29.6518	29.2344	-1.8683
   6	1	5	0.157325	31.2028	29.4662	-3.32882
   7	1	5	0.138289	30.1127	27.9936	-3.57088
   8	1	5	0.133078	29.9578	30.114	-1.29434
   9	1	3	-8e-06	27.2251	27.1542	-2.42316
  10	1	1	-0.400145	25.9712	25.484	-3.34215
  11	1	6	0.053825	27.1136	25.6822	-2.71982
  12	1	5	0.095789	26.3335	27.4065	-1.85127
  13	1	5	0.095196	27.156	27.7343	-3.34569
  14	1	7	0.084202	27.1754	25.1655	-1.7431
  15	1	7	0.07114	28.0067	25.3999	-3.28881
  16	1	3	-8e-06	25.7445	24.4702	-3.99838
  17	1	1	-0.400145	24.0677	22.956	-4.68046
  18	1	6	0.053825	24.2559	24.1338	-4.10411
  19	1	5	0.095789	26.2874	23.5742	-3.64168
  20	1	5	0.095196	26.0712	24.7058	-5.02532
  21	1	7	0.084202	23.7751	24.9486	-4.6888
  22	1	7	0.07114	23.8425	24.1433	-3.08739
  23	1	3	-8e-06	22.929	22.4778	-4.66815
  24	1	1	-0.400145	21.7136	20.8758	-5.73014
  25	1	6	0.053825	22.4823	21.9052	-5.98963
  26	1	5	0.095789	22.1542	23.2118	-4.42107
  27	1	5	0.095196	22.8735	21.7058	-3.89871
  28	1	7	0.084202	23.3664	21.736	-6.63412
  29	1	7	0.07114	21.949	22.7281	-6.48529
  30	1	3	-8e-06	21.263	20.2349	-6.66479
  31	1	1	-0.400145	20.2295	18.2028	-7.28228
  32	1	6	0.053825	20.4363	19.0259	-6.26373
  33	1	5	0.095789	22.0496	19.8361	-7.28874
  34	1	5	0.095196	20.6178	20.8453	-7.29938
  35	1	7	0.084202	19.5157	19.4076	-5.82499
  36	1	7	0.07114	20.9462	18.5948	-5.38935
  37	1	3	-8e-06	19.7398	17.0755	-7.07309
  38	1	1	-0.400145	17.9256	15.7658	-7.93759
  39	1	6	0.053825	19.0875	16.3744	-8.2529
  40	1	5	0.095789	18.9895	17.1165	-6.26519
  41	1	5	0.095196	20.54	16.4002	-6.76434
  42	1	7	0.084202	19.8583	15.7211	-8.6711
  43	1	7	0.07114	18.9653	17.1512	-9.05644
  44	1	3	-8e-06	17.8767	14.534	-7.79159
  45	1	1	-0.400145	17.9157	13.8523	-5.48101
  46	1	6	0.053825	17.1276	14.0642	-6.53557
  47	1	5	0.095789	18.8575	14.0443	-7.75262
  48	1	5	0.095196	17.3297	14.0945	-8.62834
  49	1	7	0.084202	16.5616	13.1672	-6.8562
  50	1	7	0.07114	16.3363	14.8288	-6.44025
  51	1	3	-8e-06	17.4174	14.1284	-4.37877
  52	1	1	-0.400145	16.4076	13.4437	-2.46806
  53	1	6	0.053825	16.706	12.9969	-3.67963
  54	1	5	0.095789	16.7109	14.9589	-4.42876
  55	1	5	0.095196	18.1781	14.488	-3.69944
  56	1	7	0.084202	17.421	12.1658	-3.68531
  57	1	7	0.07114	15.8483	12.6885	-4.29558
  58	1	3	-8e-06	15.7496	12.6789	-1.752
  59	1	1	-0.400145	13.5244	12.0857	-1.36294
  60	1	6	0.053825	14.3668	13.1358	-1.31467
  61	1	5	0.095789	16.3079	12.4864	-0.833281
  62	1	5	0.095196	15.5829	11.7064	-2.21208
  63	1	7	0.084202	14.1328	13.9656	-2.02498
  64	1	7	0.07114	14.4929	13.61	-0.336634
  65	1	3	-8e-06	12.4297	12.2511	-1.88964
  66	1	1	-0.400145	10.3214	11.5221	-1.38284
  67	1	6	0.053825	11.4948	11.0795	-1.84282
  68	1	5	0.095789	12.5571	12.4264	-2.95226
  69	1	5	0.095196	11.8929	13.1192	-1.49931
  70	1	7	0.084202	11.9745	10.2857	-1.25025
  71	1	7	0.07114	11.4481	10.6324	-2.8515
  72	1	3	-8e-06	9.34644	10.7268	-1.44674
  73	1	1	-0.400145	9.53914	8.42674	-1.14996
  74	1	6	0.053825	9.20966	9.53576	-0.473384
  75	1	5	0.095789	8.44744	11.324	-1.36086
  76	1	5	0.095196	9.25551	10.3279	-2.44291
  77	1	7	0.084202	8.16001	9.52821	-0.114954
  78	1	7	0.07114	9.82918	9.71593	0.416132
  79	1	3	-8e-06	9.32917	7.28041	-0.726216
  80	1	1	-0.400145	10.1699	5.0333	-0.82174
  81	1	6	0.053825	10.119	6.20431	-1.47519
  82	1	5	0.095789	8.29172	6.99498	-0.807976
  83	1	5	0.095196	9.57911	7.17159	0.332829
  84	1	7	0.084202	11.1016	6.66864	-1.65602
  85	1	7	0.07114	9.64541	6.17549	-2.45562
  86	1	3	-8e-06	9.61701	4.04832	-1.33536
  87	1	1	-0.400145	7.68902	2.7949	-1.16549
  88	1	6	0.053825	8.14371	4.02211	-1.01693
  89	1	5	0.095789	10.097	3.15209	-0.968053
  90	1	5	0.095196	9.70863	4.02848	-2.42298
  91	1	7	0.084202	7.70575	4.76926	-1.69305
  92	1	7	0.07114	7.98124	4.47865	-0.036379
  93	1	3	-8e-06	7.07639	2.28925	-0.220165
  94	1	1	-0.400145	4.98872	1.47189	0.537151
  95	1	6	0.053825	5.56836	2.3913	-0.239961
  96	1	5	0.095789	7.47938	2.61415	0.746029
  97	1	5	0.095196	7.25365	1.21092	-0.236648
  98	1	7	0.084202	5.24786	2.2969	-1.31013
  99	1	7	0.07114	5.37419	3.41906	-0.0295306
 100	1	3	-8e-06	3.781	1.24241	0.430633
 101	1	1	-0.400145	2.09059	-0.367952	0.822998
 102	1	6	0.053825	3.37654	-0.110925	0.969805
 103	1	5	0.095789	3.3703	1.25595	-0.578766
 104	1	5	0.095196	3.23856	1.96149	1.01262
 105	1	7	0.084202	3.77394	-0.132018	2.00617
 106	1	7	0.07114	4.01143	-0.807339	0.383913
 107	1	3	-8e-06	1.42743	-0.729759	1.82575
 108	1	1	-0.400145	-0.59048	-1.20687	2.80051
 109	1	6	0.053825	-0.0832919	-0.738237	1.67208
 110	1	5	0.095789	1.6164	-0.0410324	2.65622
 111	1	5	0.095196	1.74162	-1.7401	2.0995
 112	1	7	0.084202	-0.320926	-1.3382	0.785846
 113	1	7	0.07114	-0.358734	0.315143	1.42251
 114	1	3	-8e-06	-1.41477	-0.5575	3.48197
 115	1	1	-0.400145	-2.40075	-0.569569	5.66176
 116	1	6	0.053825	-2.13032	-1.35786	4.61729
 117	1	5	0.095789	-2.21989	-0.20297	2.8428
 118	1	5	0.095196	-0.959354	0.308237	3.93324
 119	1	7	0.084202	-1.49369	-2.22481	4.83284
 120	1	7	0.07114	-3.02288	-1.79366	4.18329
 121	1	3	-8e-06	-3.43136	-0.682454	6.32602
 122	1	1	-0.400145	-4.93363	0.418251	7.74693
 123	1	6	0.053825	-4.07647	0.609588	6.76119
 124	1	5	0.095789	-3.15398	-1.23975	7.22444
 125	1	5	0.095196	-4.17503	-1.24104	5.77522
 126	1	7	0.084202	-4.52473	1.04435	5.82429
 127	1	7	0.07114	-3.24437	1.24199	7.07833
 128	1	3	-8e-06	-6.134	0.530609	7.56831
 129	1	1	-0.400145	-8.23024	-0.306146	8.10746
 130	1	6	0.053825	-6.9846	-0.195907	8.55164
 131	1	5	0.095789	-6.43962	0.163319	6.58022
 132	1	5	0.095196	-6.3819	1.5997	7.71489
 133	1	7	0.084202	-6.86105	0.36063	9.49277
 134	1	7	0.07114	-6.50732	-1.14558	8.76852
 135	1	3	-8e-06	-9.07832	-0.992721	8.62804
 136	1	1	-0.400145	-11.1683	0.183699	8.45714
 137	1	6	0.053825	-10.4349	-0.807385	7.92697
 138	1	5	0.095789	-9.19683	-0.796961	9.70165
 139	1	5	0.095196	-8.76271	-2.04465	8.57331
 140	1	7	0.084202	-10.8875	-1.78658	8.07106
 141	1	7	0.07114	-10.2078	-0.72687	6.83016
 142	1	3	-8e-06	-11.3446	1.23852	7.83113
 143	1	1	-0.400145	-12.5043	2.32697	6.19657
 144	1	6	0.053825	-12.1677	1.1502	6.61876
 145	1	5	0.095789	-10.4055	1.69097	7.58303
 146	1	5	0.095196	-11.8324	1.99898	8.45616
 147	1	7	0.084202	-13.0073	0.517151	6.84666
 148	1	7	0.07114	-11.6154	0.597734	5.84356
 149	1	3	-8e-06	-13.1465	2.45175	5.16003
 150	1	1	-0.400145	-15.1204	2.05706	4.11157
 151	1	6	0.053825	-14.5955	2.22069	5.34364
 152	1	5	0.095789	-12.7567	1.75764	4.43041
 153	1	5	0.095196	-12.9595	3.44248	4.7314
 154	1	7	0.084202	-14.962	3.02815	5.9732
 155	1	7	0.07114	-14.7773	1.34409	6.01932
 156	1	3	-8e-06	-15.8022	2.99109	3.6745
 157	1	1	-0.400145	-16.6584	2.69268	1.53881
 158	1	6	0.053825	-15.7808	3.39446	2.25414
 159	1	5	0.095789	-15.521	3.98335	4.07601
 160	1	5	0.095196	-16.8403	2.78684	3.90681
 161	1	7	0.084202	-14.7633	3.36868	1.95031
 162	1	7	0.07114	-16.0722	4.42444	2.28026
 163	1	3	-8e-06	-16.2778	1.9757	0.623164
 164	1	1	-0.400145	-16.6606	-0.0191445	-0.607109
 165	1	6	0.053825	-16.8687	0.570284	0.589051
 166	1	5	0.095789	-15.2235	1.77518	0.589054
 167	1	5	0.095196	-16.5776	2.38554	-0.3383
 168	1	7	0.084202	-17.9049	0.755556	0.960177
 169	1	7	0.07114	-16.4167	0.0594386	1.38206
 170	1	3	-8e-06	-17.5138	-0.288055	-1.46715
 171	1	1	-0.400145	-19.1131	-1.82523	-1.99477
 172	1	6	0.053825	-18.7279	-1.07612	-1.00745
 173	1	5	0.095789	-16.9982	-0.927836	-2.19315
 174	1	5	0.095196	-17.8895	0.605997	-1.99662
 175	1	7	0.084202	-19.4934	-0.391028	-0.566939
 176	1	7	0.07114	-18.4397	-1.64352	-0.0811955
 177	1	3	-8e-06	-19.5092	-2.99642	-1.80793
 178	1	1	-0.400145	-19.5517	-5.13259	-2.80048
 179	1	6	0.053825	-19.7126	-3.84314	-3.13127
 180	1	5	0.095789	-20.4882	-3.03949	-1.30389
 181	1	5	0.095196	-18.8652	-3.51546	-1.10523
 182	1	7	0.084202	-19.029	-3.31008	-3.88773
 183	1	7	0.07114	-20.7511	-3.52704	-3.49741
 184	1	3	-8e-06	-18.4562	-5.68127	-2.89572
 185	1	1	-0.400145	-17.1301	-7.60906	-2.3347
 186	1	6	0.053825	-18.3743	-7.06882	-2.33951
 187	1	5	0.095789	-17.6649	-5.0954	-2.38344
 188	1	5	0.095196	-18.1657	-5.69952	-3.9978
 189	1	7	0.084202	-19.1147	-7.59541	-2.88599
 190	1	7	0.07114	-18.7588	-6.99564	-1.25456
 191	1	3	-8e-06	-17.049	-8.72321	-1.71513
 192	1	1	-0.400145	-15.517	-10.0475	-2.91602
 193	1	6	0.053825	-15.7635	-9.45136	-1.72717
 194	1	5	0.095789	-17.6917	-9.50673	-2.08277
 195	1	5	0.095196	-17.3719	-8.60201	-0.642541
 196	1	7	0.084202	-15.8592	-10.1687	-0.897113
 197	1	7	0.07114	-15.0399	-8.74686	-1.33074
 198	1	3	-8e-06	-14.4894	-10.7958	-3.07151
 199	1	1	-0.400145	-12.4707	-11.0669	-3.88497
 200	1	6	0.053825	-13.2399	-10.076	-3.54143
 201	1	5	0.095789	-14.7049	-11.5488	-3.77272
 202	1	5	0.095196	-14.1818	-11.3254	-2.1808
 203	1	7	0.084202	-12.951	-9.42732	-2.70689
 204	1	7	0.07114	-13.5997	-9.34592	-4.26079
 205	1	3	-8e-06	-11.2758	-10.8661	-3.8325
 206	1	1	-0.400145	-9.74413	-12.1529	-2.7311
 207	1	6	0.053825	-10.599	-11.1167	-2.49985
 208	1	5	0.095789	-10.9697	-9.84448	-4.20529
 209	1	5	0.095196	-10.8422	-11.6022	-4.56158
 210	1	7	0.084202	-11.4846	-11.2167	-1.82268
 211	1	7	0.07114	-9.96778	-10.2386	-2.21688
 212	1	3	-8e-06	-9.87394	-13.0999	-1.97757
 213	1	1	-0.400145	-10.0766	-13.078	0.262446
 214	1	6	0.053825	-9.14112	-12.9344	-0.662166
 215	1	5	0.095789	-9.53034	-13.9966	-2.51678
 216	1	5	0.095196	-10.8381	-13.3255	-1.80407
 217	1	7	0.084202	-8.80609	-11.8967	-0.467915
 218	1	7	0.07114	-8.30905	-13.6289	-0.704421
 219	1	3	-8e-06	-9.71503	-13.7154	1.28387
 220	1	1	-0.400145	-11.4587	-12.7717	2.68425
 221	1	6	0.053825	-10.8444	-13.9409	2.23227
 222	1	5	0.095789	-8.92814	-13.1107	1.76773
 223	1	5	0.095196	-9.16126	-14.697	1.14566
 224	1	7	0.084202	-10.4601	-14.4905	3.10421
 225	1	7	0.07114	-11.4864	-14.5975	1.65713
 226	1	3	-8e-06	-12.5172	-12.324	2.21974
 227	1	1	-0.400145	-14.2757	-10.5622	2.34721
 228	1	6	0.053825	-12.9994	-10.9227	2.79409
 229	1	5	0.095789	-13.2679	-13.062	2.51765
 230	1	5	0.095196	-12.4189	-12.2263	1.15581
 231	1	7	0.084202	-12.1171	-10.3873	2.38715
 232	1	7	0.07114	-12.8153	-10.978	3.9024
 233	1	3	-8e-06	-14.5596	-9.40609	2.54571
 234	1	1	-0.400145	-12.9884	-7.98111	1.71291
 235	1	6	0.053825	-14.1518	-8.4456	1.43624
 236	1	5	0.095789	-14.1739	-9.00538	3.57529
 237	1	5	0.095196	-15.6743	-9.29795	2.66592
 238	1	7	0.084202	-14.9028	-7.69418	1.34851
 239	1	7	0.07114	-14.1743	-8.93344	0.549954
 240	1	3	-0.232441	-12.2077	-5.70334	-0.445537
 241	1	8	0.444336	-12.2644	-7.62971	0.81788
 242	1	3	-0.096823	-11.9897	-6.32543	0.676984
 243	1	1	-0.491911	-11.622	-8.32877	0.0555892
 244	1	5	0.148316	-11.9469	-4.57394	-0.57121
 245	1	5	0.163898	-12.7181	-6.12923	-1.27178
 246	1	5	0.064625	-11.6964	-5.68864	1.61196

Velocities

   1	0.00216996	-0.00250903	-0.00283153
   2	0.00934064	0.00267009	0.00065035
   3	0.00239213	0.00216526	-0.0061379
   4	0.00748352	-0.00638273	-0.00376898
   5	0.00346045	-0.000132739	-0.0070423
   6	0.01335	-0.0154434	-0.00433235
   7	0.00188066	-0.0082957	0.00289685
   8	0.00745159	-0.00151493	-0.00703879
   9	0.00373207	-0.00980243	-0.00345173
  10	0.00145941	-0.00543054	7.94257e-05
  11	0.0020412	-0.00721881	-0.00111598
  12	0.00148811	-0.0172903	-0.00760507
  13	0.00608174	-0.00182668	0.00228599
  14	0.0105771	-0.0056576	-0.00610898
  15	-0.00297524	-0.0123573	-0.00376743
  16	0.00445424	-0.00551814	-0.000692919
  17	0.00883859	-0.00524315	0.000996982
  18	0.00725744	-0.00144573	-0.00698288
  19	0.00438924	-0.00587579	0.00324059
  20	0.00594749	0.00479385	0.002732
  21	0.00469822	0.00347818	-0.0110164
  22	0.00545763	-0.00233329	-0.0126576
  23	0.0116546	-0.00577857	0.00214922
  24	0.00129548	-0.005195	7.114e-06
  25	0.00701924	-0.00870274	0.00130672
  26	0.00801728	-0.00899246	0.00411285
  27	0.0119823	-0.00322791	0.00228012
  28	0.00232644	-0.0130867	6.22048e-05
  29	0.00995252	-0.00842546	0.0036293
  30	0.00600435	-0.00370564	0.00121022
  31	0.00346791	-0.00430048	0.00507229
  32	0.00377329	0.000601417	0.00185669
  33	0.00816947	-0.00432937	0.0109294
  34	0.00911851	-0.00400724	0.000944255
  35	0.0138832	-0.00622806	0.00601922
  36	0.0114434	0.00147285	-0.00406178
  37	0.00796906	-0.0041081	0.00683979
  38	0.00436997	-0.00070555	0.00881342
  39	0.00879587	0.00131416	0.00797183
  40	0.0169684	-0.0182737	0.0166167
  41	0.0114391	0.00346816	0.00794107
  42	0.00685215	0.0092789	-0.00336804
  43	0.0173247	0.00571238	0.00525723
  44	0.00198913	-0.00133917	0.00324192
  45	0.00302567	-0.00286124	0.00352735
  46	0.002807	-0.00244909	0.00523858
  47	-0.00716609	-0.0112969	-0.0045013
  48	0.00138999	0.00209968	0.00930608
  49	0.0155979	-0.0031257	0.00159372
  50	-0.004146	-0.00944261	0.0148355
  51	0.00131687	-0.0046841	0.0069569
  52	0.00437235	-0.00286805	0.00493417
  53	0.00331487	-0.00721836	0.0049137
  54	-0.00175005	-0.0112181	0.0064586
  55	0.00508589	-0.00245709	0.00639852
  56	-0.00571555	-0.0152143	0.00201552
  57	-0.00280226	-0.00315627	0.0110798
  58	0.00138448	-0.00108182	0.00523049
  59	3.13737e-05	-0.00329063	0.00679749
  60	-0.00307617	0.00171806	-0.00506423
  61	0.00304357	0.00237854	0.0163777
  62	0.00327257	-0.0065889	0.00659553
  63	-0.0162847	-0.0147452	-0.0233122
  64	-0.00913214	0.00709017	-0.0100775
  65	0.00296496	-0.00513803	-0.000106585
  66	0.00186043	-0.00218907	0.00043346
  67	0.00221053	-0.00603265	-0.00309851
  68	0.020425	-0.0259419	0.0041745
  69	-0.00403954	-0.00688988	-0.00466408
  70	0.0065222	-0.010862	-0.00971411
  71	0.0101567	-0.0097486	-0.00105973
  72	0.00346299	0.000873797	-0.00018329
  73	0.00047085	-0.00151657	-0.0042451
  74	-0.00545784	-0.00213186	-0.00233319
  75	-0.00317054	-0.00762409	-0.011174
  76	0.00744265	0.00246351	0.00279625
  77	-0.00456255	-0.00334637	-0.00852538
  78	-0.0152522	-0.00316922	-0.00582481
  79	0.00515725	-0.00173087	-0.00159726
  80	-0.00295233	-0.00370501	0.00685492
  81	0.00339694	-0.00565294	0.00144627
  82	-0.0021347	0.00359155	0.00723137
  83	0.0131526	0.0105965	-0.00917967
  84	0.00920857	-0.00176	-0.00303935
  85	0.00342212	-0.0152913	-0.00636848
  86	0.00152132	-0.00459892	-0.000832169
  87	0.00508041	0.000958679	0.00353948
  88	0.00167668	0.000366348	-0.000983381
  89	-0.0101078	0.00147769	0.000694666
  90	0.016727	0.0180301	-0.001719
  91	-0.00693065	-0.0104635	0.00266486
  92	0.0117027	-0.00503134	0.00111413
  93	0.00507852	0.00441434	0.00367348
  94	0.00772975	-0.0011335	0.00664023
  95	0.00248075	-0.000301548	-0.00255576
  96	0.0129505	-0.00625435	-0.00138911
  97	0.00698687	0.00515934	0.00459549
  98	-0.0044931	-0.0127872	-0.00829809
  99	-0.00060612	0.00748948	-0.00574958
 100	0.00447047	-0.00432682	-1.37199e-05
 101	-0.00269387	0.00531251	0.00232337
 102	0.000820471	-0.00183068	0.00838553
 103	0.00665356	-0.00895074	0.0031705
 104	0.00151733	-0.0150812	-0.0106568
 105	-0.00553764	0.00526272	-0.00737857
 106	0.00105881	-0.000978433	0.0225466
 107	-0.00480062	-0.00144302	0.00147071
 108	-0.00321172	-3.86138e-05	0.00170222
 109	-0.00248275	0.00271278	0.00167843
 110	0.00499386	0.00146194	0.00646401
 111	0.00984381	-0.00843335	-0.00978005
 112	-0.00420641	0.00272459	-0.00613808
 113	-0.00758254	-0.00633205	0.0139401
 114	0.00297444	0.00295472	-0.00135159
 115	-0.00466536	0.00382465	-0.00819543
 116	-0.000888833	0.00283391	0.00558108
 117	-0.0140331	0.0197004	0.0180264
 118	0.000319621	-0.00939329	0.00699496
 119	0.000391755	-0.00176518	0.0176132
 120	-0.00937291	-0.0132108	0.00964689
 121	-0.00333357	0.000510223	-0.00428956
 122	-0.00648978	0.00707553	-0.00236541
 123	-0.00247953	0.00602519	-0.00806855
 124	-0.000880371	0.0166388	0.0165928
 125	-0.0107276	-0.00308031	0.0138869
 126	0.00259461	0.00199069	0.00204235
 127	-0.00434302	-0.000403325	-0.0093082
 128	-0.00546836	-0.000462788	-0.0023342
 129	-0.00294869	0.00613917	0.00192355
 130	-0.00455462	0.00659068	0.00903244
 131	-0.0230131	0.000234201	-0.00681307
 132	0.00126335	0.00272285	-0.000828962
 133	-0.00452461	-0.000672711	-0.0110604
 134	-0.00435493	0.0116906	0.00815444
 135	-0.00430462	0.00566628	0.000286597
 136	-0.00128375	0.00232584	-0.00421445
 137	-0.0047265	0.00565114	-0.000898142
 138	-0.00176506	0.0258569	-0.00211338
 139	0.0117721	0.00504216	0.00479317
 140	-0.00205974	0.00813374	0.00132053
 141	0.00822555	0.0123638	-0.00372954
 142	-0.00474297	0.00127988	-0.00705688
 143	0.00457054	0.00254779	-0.00204819
 144	-0.000741068	0.0115261	-5.33322e-05
 145	0.0175776	0.00413896	-0.0123571
 146	0.0165346	0.00280517	0.0206507
 147	-0.00982219	0.013037	0.00372089
 148	0.00385965	0.0138263	0.00181912
 149	0.00585993	0.00183869	9.99484e-05
 150	-0.00405399	0.0109272	8.0944e-05
 151	0.00496251	0.00563483	-0.00104344
 152	0.0106517	0.00798007	-0.00743821
 153	-0.0102165	0.00273551	-0.00424367
 154	0.0259368	-0.00822575	-0.0117722
 155	-0.00977303	0.0182541	0.0093525
 156	-0.0126623	-9.66911e-05	-0.00811291
 157	0.00178825	0.00410957	-0.00371951
 158	-0.00455473	0.000832425	-0.0076636
 159	-0.00661919	0.0100645	-0.0152668
 160	-0.0180181	0.00510671	-0.00983059
 161	0.0268398	-0.0143135	-0.015516
 162	0.00110202	-0.00552516	-0.00367622
 163	-0.0068637	0.00630858	-0.00709912
 164	-0.00177529	0.00230047	-0.00211259
 165	-0.00159809	-0.00185638	-0.0042954
 166	0.000530971	0.0257655	-0.0168496
 167	-0.00198568	0.0243385	-0.00744791
 168	-0.00228338	0.00475797	-0.01899
 169	-0.00666239	0.020711	-0.0122393
 170	-0.00340082	0.00373586	-0.00189518
 171	-0.00411188	-0.00291409	-0.0057027
 172	0.00325646	0.00352788	-0.00735817
 173	-0.0106694	-0.000729808	-0.0163867
 174	0.0222678	0.0139867	0.0099861
 175	0.0014546	-0.0131859	0.00436847
 176	-0.00547295	-0.0105028	-0.00158214
 177	-0.000673049	6.66972e-05	-0.00313078
 178	-0.00514443	0.00323751	-0.00248345
 179	-0.00497744	0.00316901	0.000668015
 180	0.0267742	-0.00190509	0.00136654
 181	0.0262097	0.0287172	-0.0200416
 182	-0.0215275	-0.0102097	-0.0483845
 183	0.0144288	0.00470306	0.00945594
 184	-0.00494792	0.0111179	-0.00881652
 185	-0.00160802	0.00118113	0.00228942
 186	0.0026027	0.00229754	0.00654064
 187	-0.0280551	-0.00219815	-0.00112816
 188	0.00485681	0.00972027	0.00791601
 189	0.013652	0.0280985	0.00415008
 190	-0.0122511	0.0298929	0.0104761
 191	0.00270283	0.00756131	0.00233931
 192	-0.00373173	0.00417434	0.000650971
 193	0.00100736	-0.0170512	0.00120418
 194	-0.0219427	-0.0133227	0.020947
 195	-0.000602756	0.0231501	-0.0170407
 196	0.00693009	0.00112111	-0.00549735
 197	-0.0125088	0.0130428	-0.0261093
 198	0.00432555	0.00833542	0.00715716
 199	-0.000847266	-0.00133035	0.00156503
 200	0.00332779	0.00699762	0.00436745
 201	-0.0136626	-0.0203222	0.0434658
 202	0.00165302	0.0178354	0.00587686
 203	-0.0181789	0.0266744	0.00582732
 204	0.040421	0.00813541	0.00419711
 205	-0.0105483	0.00851216	-0.00221261
 206	0.00170708	0.00243879	6.21885e-05
 207	0.0112344	-0.000682805	0.012177
 208	0.0174498	0.00597209	-0.0155742
 209	0.00701814	0.00372556	-0.00363203
 210	-0.00595312	-0.0349689	-0.00576816
 211	0.0125106	0.00162183	0.00783897
 212	0.0022773	0.000202966	-0.00509139
 213	-0.00741935	0.00237183	-0.00391995
 214	-0.00588331	0.00351212	0.0116042
 215	0.0231202	0.0116143	0.0338758
 216	0.00679975	0.000125066	-0.00380612
 217	-0.00834751	0.0351254	-0.00498763
 218	-0.0438942	0.00152984	0.00447247
 219	-0.00145402	0.00496168	-0.000613819
 220	-0.00649147	0.00407067	-0.00358026
 221	0.00343931	0.00505248	0.00517342
 222	-0.00971109	0.0338842	-0.0193317
 223	-0.00995439	-0.0177928	0.00346134
 224	-0.0302475	-0.0105119	-0.0164272
 225	0.0250426	0.00447998	0.0253738
 226	-0.0013632	0.00807268	-0.00519649
 227	0.000396526	0.00434863	-0.000696704
 228	-0.0124834	0.00371133	0.0117581
 229	0.00777427	-0.00278963	0.0179464
 230	-0.0192429	0.00746789	0.0114263
 231	-0.0498192	-0.0345901	-0.0249912
 232	0.013411	0.047099	0.00139034
 233	0.00353517	0.0120256	-0.0115448
 234	-0.0105447	0.00633514	-0.00658926
 235	-0.000462974	-0.000211586	-0.00489805
 236	-0.0284762	-0.00325533	0.0154814
 237	-0.0317108	-0.0284858	0.00382491
 238	-0.0159769	0.0263638	-0.00555604
 239	-0.00482499	5.43156e-05	-0.00172691
 240	-0.0190594	0.00332975	-0.0018746
 241	-0.00273094	0.00692792	0.000335379
 242	-0.00715121	-0.000273167	-0.00918137
 243	-0.00620047	-0.000905081	-0.000900762
 244	-0.024023	-0.0214375	0.0251912
 245	0.0462879	0.00703591	0.0464538
 246	-0.01118	-0.00672957	-0.0039716

Bonds

   1	5	1	3
   2	5	2	3
   3	4	3	5
   4	2	4	5
   5	1	4	6
   6	1	4	7
   7	3	5	8
   8	7	9	11
   9	1	9	12
  10	1	9	13
  11	6	10	11
  12	8	11	14
  13	8	11	15
  14	9	1	9
  15	7	16	18
  16	1	16	19
  17	1	16	20
  18	6	17	18
  19	8	18	21
  20	8	18	22
  21	9	10	16
  22	7	23	25
  23	1	23	26
  24	1	23	27
  25	6	24	25
  26	8	25	28
  27	8	25	29
  28	9	17	23
  29	7	30	32
  30	1	30	33
  31	1	30	34
  32	6	31	32
  33	8	32	35
  34	8	32	36
  35	9	24	30
  36	7	37	39
  37	1	37	40
  38	1	37	41
  39	6	38	39
  40	8	39	42
  41	8	39	43
  42	9	31	37
  43	7	44	46
  44	1	44	47
  45	1	44	48
  46	6	45	46
  47	8	46	49
  48	8	46	50
  49	9	38	44
  50	7	51	53
  51	1	51	54
  52	1	51	55
  53	6	52	53
  54	8	53	56
  55	8	53	57
  56	9	45	51
  57	7	58	60
  58	1	58	61
  59	1	58	62
  60	6	59	60
  61	8	60	63
  62	8	60	64
  63	9	52	58
  64	7	65	67
  65	1	65	68
  66	1	65	69
  67	6	66	67
  68	8	67	70
  69	8	67	71
  70	9	59	65
  71	7	72	74
  72	1	72	75
  73	1	72	76
  74	6	73	74
  75	8	74	77
  76	8	74	78
  77	9	66	72
  78	7	79	81
  79	1	79	82
  80	1	79	83
  81	6	80	81
  82	8	81	84
  83	8	81	85
  84	9	73	79
  85	7	86	88
  86	1	86	89
  87	1	86	90
  88	6	87	88
  89	8	88	91
  90	8	88	92
  91	9	80	86
  92	7	93	95
  93	1	93	96
  94	1	93	97
  95	6	94	95
  96	8	95	98
  97	8	95	99
  98	9	87	93
  99	7	100	102
 100	1	100	103
 101	1	100	104
 102	6	101	102
 103	8	102	105
 104	8	102	106
 105	9	94	100
 106	7	107	109
 107	1	107	110
 108	1	107	111
 109	6	108	109
 110	8	109	112
 111	8	109	113
 112	9	101	107
 113	7	114	116
 114	1	114	117
 115	1	114	118
 116	6	115	116
 117	8	116	119
 118	8	116	120
 119	9	108	114
 120	7	121	123
 121	1	121	124
 122	1	121	125
 123	6	122	123
 124	8	123	126
 125	8	123	127
 126	9	115	121
 127	7	128	130
 128	1	128	131
 129	1	128	132
 130	6	129	130
 131	8	130	133
 132	8	130	134
 133	9	122	128
 134	7	135	137
 135	1	135	138
 136	1	135	139
 137	6	136	137
 138	8	137	140
 139	8	137	141
 140	9	129	135
 141	7	142	144
 142	1	142	145
 143	1	142	146
 144	6	143	144
 145	8	144	147
 146	8	144	148
 147	9	136	142
 148	7	149	151
 149	1	149	152
 150	1	149	153
 151	6	150	151
 152	8	151	154
 153	8	151	155
 154	9	143	149
 155	7	156	158
 156	1	156	159
 157	1	156	160
 158	6	157	158
 159	8	158	161
 160	8	158	162
 161	9	150	156
 162	7	163	165
 163	1	163	166
 164	1	163	167
 165	6	164	165
 166	8	165	168
 167	8	165	169
 168	9	157	163
 169	7	170	172
 170	1	170	173
 171	1	170	174
 172	6	171	172
 173	8	172	175
 174	8	172	176
 175	9	164	170
 176	7	177	179
 177	1	177	180
 178	1	177	181
 179	6	178	179
 180	8	179	182
 181	8	179	183
 182	9	171	177
 183	7	184	186
 184	1	184	187
 185	1	184	188
 186	6	185	186
 187	8	186	189
 188	8	186	190
 189	9	178	184
 190	7	191	193
 191	1	191	194
 192	1	191	195
 193	6	192	193
 194	8	193	196
 195	8	193	197
 196	9	185	191
 197	7	198	200
 198	1	198	201
 199	1	198	202
 200	6	199	200
 201	8	200	203
 202	8	200	204
 203	9	192	198
 204	7	205	207
 205	1	205	208
 206	1	205	209
 207	6	206	207
 208	8	207	210
 209	8	207	211
 210	9	199	205
 211	7	212	214
 212	1	212	215
 213	1	212	216
 214	6	213	214
 215	8	214	217
 216	8	214	218
 217	9	206	212
 218	7	219	221
 219	1	219	222
 220	1	219	223
 221	6	220	221
 222	8	221	224
 223	8	221	225
 224	9	213	219
 225	7	226	228
 226	1	226	229
 227	1	226	230
 228	6	227	228
 229	8	228	231
 230	8	228	232
 231	9	220	226
 232	7	233	235
 233	1	233	236
 234	1	233	237
 235	6	234	235
 236	8	235	238
 237	8	235	239
 238	9	227	233
 239	12	240	242
 240	1	240	244
 241	1	240	245
 242	10	241	242
 243	11	241	243
 244	1	242	246
 245	11	234	241

Angles

   1	7	1	3	2
   2	6	1	3	5
   3	6	2	3	5
   4	2	5	4	6
   5	2	5	4	7
   6	1	6	4	7
   7	5	3	5	4
   8	4	3	5	8
   9	3	4	5	8
  10	10	11	9	12
  11	10	11	9	13
  12	1	12	9	13
  13	9	9	11	10
  14	8	9	11	14
  15	8	9	11	15
  16	12	10	11	14
  17	12	10	11	15
  18	11	14	11	15
  19	13	3	1	9
  20	14	1	9	11
  21	15	1	9	12
  22	15	1	9	13
  23	10	18	16	19
  24	10	18	16	20
  25	1	19	16	20
  26	9	16	18	17
  27	8	16	18	21
  28	8	16	18	22
  29	12	17	18	21
  30	12	17	18	22
  31	11	21	18	22
  32	16	11	10	16
  33	14	10	16	18
  34	15	10	16	19
  35	15	10	16	20
  36	10	25	23	26
  37	10	25	23	27
  38	1	26	23	27
  39	9	23	25	24
  40	8	23	25	28
  41	8	23	25	29
  42	12	24	25	28
  43	12	24	25	29
  44	11	28	25	29
  45	16	18	17	23
  46	14	17	23	25
  47	15	17	23	26
  48	15	17	23	27
  49	10	32	30	33
  50	10	32	30	34
  51	1	33	30	34
  52	9	30	32	31
  53	8	30	32	35
  54	8	30	32	36
  55	12	31	32	35
  56	12	31	32	36
  57	11	35	32	36
  58	16	25	24	30
  59	14	24	30	32
  60	15	24	30	33
  61	15	24	30	34
  62	10	39	37	40
  63	10	39	37	41
  64	1	40	37	41
  65	9	37	39	38
  66	8	37	39	42
  67	8	37	39	43
  68	12	38	39	42
  69	12	38	39	43
  70	11	42	39	43
  71	16	32	31	37
  72	14	31	37	39
  73	15	31	37	40
  74	15	31	37	41
  75	10	46	44	47
  76	10	46	44	48
  77	1	47	44	48
  78	9	44	46	45
  79	8	44	46	49
  80	8	44	46	50
  81	12	45	46	49
  82	12	45	46	50
  83	11	49	46	50
  84	16	39	38	44
  85	14	38	44	46
  86	15	38	44	47
  87	15	38	44	48
  88	10	53	51	54
  89	10	53	51	55
  90	1	54	51	55
  91	9	51	53	52
  92	8	51	53	56
  93	8	51	53	57
  94	12	52	53	56
  95	12	52	53	57
  96	11	56	53	57
  97	16	46	45	51
  98	14	45	51	53
  99	15	45	51	54
 100	15	45	51	55
 101	10	60	58	61
 102	10	60	58	62
 103	1	61	58	62
 104	9	58	60	59
 105	8	58	60	63
 106	8	58	60	64
 107	12	59	60	63
 108	12	59	60	64
 109	11	63	60	64
 110	16	53	52	58
 111	14	52	58	60
 112	15	52	58	61
 113	15	52	58	62
 114	10	67	65	68
 115	10	67	65	69
 116	1	68	65	69
 117	9	65	67	66
 118	8	65	67	70
 119	8	65	67	71
 120	12	66	67	70
 121	12	66	67	71
 122	11	70	67	71
 123	16	60	59	65
 124	14	59	65	67
 125	15	59	65	68
 126	15	59	65	69
 127	10	74	72	75
 128	10	74	72	76
 129	1	75	72	76
 130	9	72	74	73
 131	8	72	74	77
 132	8	72	74	78
 133	12	73	74	77
 134	12	73	74	78
 135	11	77	74	78
 136	16	67	66	72
 137	14	66	72	74
 138	15	66	72	75
 139	15	66	72	76
 140	10	81	79	82
 141	10	81	79	83
 142	1	82	79	83
 143	9	79	81	80
 144	8	79	81	84
 145	8	79	81	85
 146	12	80	81	84
 147	12	80	81	85
 148	11	84	81	85
 149	16	74	73	79
 150	14	73	79	81
 151	15	73	79	82
 152	15	73	79	83
 153	10	88	86	89
 154	10	88	86	90
 155	1	89	86	90
 156	9	86	88	87
 157	8	86	88	91
 158	8	86	88	92
 159	12	87	88	91
 160	12	87	88	92
 161	11	91	88	92
 162	16	81	80	86
 163	14	80	86	88
 164	15	80	86	89
 165	15	80	86	90
 166	10	95	93	96
 167	10	95	93	97
 168	1	96	93	97
 169	9	93	95	94
 170	8	93	95	98
 171	8	93	95	99
 172	12	94	95	98
 173	12	94	95	99
 174	11	98	95	99
 175	16	88	87	93
 176	14	87	93	95
 177	15	87	93	96
 178	15	87	93	97
 179	10	102	100	103
 180	10	102	100	104
 181	1	103	100	104
 182	9	100	102	101
 183	8	100	102	105
 184	8	100	102	106
 185	12	101	102	105
 186	12	101	102	106
 187	11	105	102	106
 188	16	95	94	100
 189	14	94	100	102
 190	15	94	100	103
 191	15	94	100	104
 192	10	109	107	110
 193	10	109	107	111
 194	1	110	107	111
 195	9	107	109	108
 196	8	107	109	112
 197	8	107	109	113
 198	12	108	109	112
 199	12	108	109	113
 200	11	112	109	113
 201	16	102	101	107
 202	14	101	107	109
 203	15	101	107	110
 204	15	101	107	111
 205	10	116	114	117
 206	10	116	114	118
 207	1	117	114	118
 208	9	114	116	115
 209	8	114	116	119
 210	8	114	116	120
 211	12	115	116	119
 212	12	115	116	120
 213	11	119	116	120
 214	16	109	108	114
 215	14	108	114	116
 216	15	108	114	117
 217	15	108	114	118
 218	10	123	121	124
 219	10	123	121	125
 220	1	124	121	125
 221	9	121	123	122
 222	8	121	123	126
 223	8	121	123	127
 224	12	122	123	126
 225	12	122	123	127
 226	11	126	123	127
 227	16	116	115	121
 228	14	115	121	123
 229	15	115	121	124
 230	15	115	121	125
 231	10	130	128	131
 232	10	130	128	132
 233	1	131	128	132
 234	9	128	130	129
 235	8	128	130	133
 236	8	128	130	134
 237	12	129	130	133
 238	12	129	130	134
 239	11	133	130	134
 240	16	123	122	128
 241	14	122	128	130
 242	15	122	128	131
 243	15	122	128	132
 244	10	137	135	138
 245	10	137	135	139
 246	1	138	135	139
 247	9	135	137	136
 248	8	135	137	140
 249	8	135	137	141
 250	12	136	137	140
 251	12	136	137	141
 252	11	140	137	141
 253	16	130	129	135
 254	14	129	135	137
 255	15	129	135	138
 256	15	129	135	139
 257	10	144	142	145
 258	10	144	142	146