pySIMM System Object

204 atoms
203 bonds
370 angles
259 dihedrals
1 impropers

8 atom types
12 bond types
22 angle types
5 dihedral types
1 improper types

-75.352908 75.352908 xlo xhi
-75.352908 75.352908 ylo yhi
-75.352908 75.352908 zlo zhi

Masses

   1	16.0	# o
   2	12.01	# c
   3	12.01	# c2
   4	12.01	# ce
   5	1.008	# ha
   6	12.01	# c3
   7	1.008	# h1
   8	12.01	# c1

Pair Coeffs

   1	0.21	2.959921901149463	# o
   2	0.086	3.3996695084235347	# c
   3	0.086	3.3996695084235347	# c2
   4	0.086	3.3996695084235347	# ce
   5	0.015	2.59964245953351	# ha
   6	0.1094	3.3996695084235347	# c3
   7	0.0157	2.471353044121301	# h1
   8	0.21	3.3996695084235347	# c1

Bond Coeffs

   1	343.1	1.0879	# c2,ha
   2	547.3	1.3461	# c2,ce
   3	342.5	1.0883	# ce,ha
   4	354.5	1.4825	# c,ce
   5	637.7	1.2183	# c,o
   6	449.9	1.3165	# c3,o
   7	326.8	1.5095	# c2,c3
   8	330.6	1.0969	# c3,h1
   9	622.9	1.2247	# c2,o
  10	625.0	1.307	# c1,c2
  11	758.1	1.1724	# c1,o
  12	569.4	1.3343	# c2,c2

Angle Coeffs

   1	38.11	116.9	# ha,c2,ha
   2	49.51	120.45	# ce,c2,ha
   3	49.61	119.94	# c2,ce,ha
   4	46.52	116.46	# c,ce,ha
   5	65.45	120.42	# c,ce,c2
   6	68.83	123.2	# ce,c,o
   7	77.94	130.25	# o,c,o
   8	47.07	109.96	# c2,c3,h1
   9	68.15	110.35	# c2,c3,o
  10	45.94	115.68	# c3,c2,ha
  11	39.24	108.46	# h1,c3,h1
  12	52.64	116.45	# h1,c3,o
  13	65.83	113.14	# c2,o,c
  14	67.92	122.82	# c3,c2,o
  15	55.28	117.23	# ha,c2,o
  16	65.83	113.14	# c2,o,c3
  17	62.94	179.5	# c2,c1,o
  18	70.06	121.62	# c1,c2,c2
  19	49.85	120.43	# c2,c2,ha
  20	50.62	120.42	# c1,c2,ha
  21	65.83	113.14	# c3,o,c1
  22	68.89	180.0	# o,c1,o

Dihedral Coeffs

   1	1	6.65	2	180	# X,c2,ce,X
   2	1	2.175	2	180	# X,c,ce,X
   3	1	0.0	2	0	# X,c2,c3,X
   4	1	6.65	2	180	# X,c2,c2,X
   5	1	0.0	2	180	# X,c1,c2,X

Improper Coeffs

   1	10.5	-1	2	# c,X,X,o

Atoms

   1	1	1	-0.104756	-16.5049	7.96938	-10.4297
   2	1	1	-0.569213	-16.0012	9.6392	-11.7288
   3	1	2	0.789146	-16.7273	8.6957	-11.4131
   4	1	3	-0.154228	-18.188	8.91315	-13.5228
   5	1	4	-0.389642	-17.8709	8.35239	-12.3263
   6	1	5	0.157325	-19.0678	8.57812	-14.0689
   7	1	5	0.138289	-17.6014	9.71525	-14.0042
   8	1	5	0.133078	-18.5313	7.55576	-11.9813
   9	1	3	-8e-06	-16.6246	8.34355	-9.2562
  10	1	1	-0.400145	-17.4766	6.69679	-7.93845
  11	1	6	0.053825	-16.3135	7.28374	-8.23927
  12	1	5	0.095789	-17.6161	8.7362	-9.05269
  13	1	5	0.095196	-15.969	9.18045	-9.06408
  14	1	7	0.084202	-15.8197	7.73469	-7.35966
  15	1	7	0.07114	-15.5541	6.65728	-8.6829
  16	1	3	-8e-06	-17.5796	5.46636	-7.94593
  17	1	1	-0.400145	-18.4263	3.6654	-6.76089
  18	1	6	0.053825	-18.5582	4.97547	-6.89559
  19	1	5	0.095789	-16.6544	4.98984	-7.62999
  20	1	5	0.095196	-17.8197	5.10677	-8.92456
  21	1	7	0.084202	-19.559	5.26787	-7.27497
  22	1	7	0.07114	-18.2855	5.55317	-5.99863
  23	1	3	-8e-06	-18.9067	3.19604	-5.73772
  24	1	1	-0.400145	-18.8176	1.13046	-4.70682
  25	1	6	0.053825	-19.3915	1.77581	-5.73505
  26	1	5	0.095789	-19.8158	3.76474	-5.43242
  27	1	5	0.095196	-18.3065	3.33765	-4.87495
  28	1	7	0.084202	-19.2394	1.36211	-6.73291
  29	1	7	0.07114	-20.4743	1.89238	-5.73085
  30	1	3	-8e-06	-18.8906	-0.130883	-4.74524
  31	1	1	-0.400145	-18.1836	-2.19213	-5.6399
  32	1	6	0.053825	-17.8863	-0.879192	-5.58274
  33	1	5	0.095789	-19.8615	-0.471059	-5.10866
  34	1	5	0.095196	-18.8072	-0.517475	-3.72972
  35	1	7	0.084202	-16.8746	-0.667329	-5.15625
  36	1	7	0.07114	-17.8393	-0.437873	-6.56485
  37	1	3	-8e-06	-17.2346	-2.90729	-5.88273
  38	1	1	-0.400145	-16.5253	-5.13271	-5.64672
  39	1	6	0.053825	-17.1234	-4.14638	-4.99203
  40	1	5	0.095789	-16.2079	-2.44806	-5.9392
  41	1	5	0.095196	-17.3356	-3.24102	-6.91565
  42	1	7	0.084202	-18.1063	-4.41709	-4.5974
  43	1	7	0.07114	-16.5804	-3.82191	-4.17219
  44	1	3	-8e-06	-15.3047	-5.36045	-5.591
  45	1	1	-0.400145	-13.3635	-5.34204	-6.84425
  46	1	6	0.053825	-14.6009	-5.83662	-6.87546
  47	1	5	0.095789	-15.1435	-6.09121	-4.81686
  48	1	5	0.095196	-14.7926	-4.49305	-5.21941
  49	1	7	0.084202	-15.2579	-5.50081	-7.68401
  50	1	7	0.07114	-14.6907	-6.90552	-6.92733
  51	1	3	-8e-06	-13.1459	-4.30062	-7.48205
  52	1	1	-0.400145	-11.9052	-2.80994	-6.01461
  53	1	6	0.053825	-11.8352	-3.64589	-7.03655
  54	1	5	0.095789	-13.9694	-3.56373	-7.43597
  55	1	5	0.095196	-13.0489	-4.63844	-8.53886
  56	1	7	0.084202	-11.4788	-3.17793	-7.92129
  57	1	7	0.07114	-11.1659	-4.5032	-6.89451
  58	1	3	-8e-06	-11.9782	-3.15078	-4.83337
  59	1	1	-0.400145	-13.7093	-1.72136	-4.24356
  60	1	6	0.053825	-12.461	-2.03627	-3.92969
  61	1	5	0.095789	-10.9401	-3.3129	-4.47088
  62	1	5	0.095196	-12.5829	-4.0703	-4.59755
  63	1	7	0.084202	-11.7122	-1.24251	-4.11592
  64	1	7	0.07114	-12.3352	-2.28741	-2.85227
  65	1	3	-8e-06	-13.9067	-0.709985	-4.90218
  66	1	1	-0.400145	-14.7538	1.48164	-4.9808
  67	1	6	0.053825	-14.5637	0.445996	-4.15034
  68	1	5	0.095789	-14.4365	-0.9272	-5.82879
  69	1	5	0.095196	-13.0181	-0.271005	-5.37008
  70	1	7	0.084202	-13.9557	0.650393	-3.20767
  71	1	7	0.07114	-15.5398	0.0172947	-3.79881
  72	1	3	-8e-06	-15.1035	2.52158	-4.45487
  73	1	1	-0.400145	-14.6611	4.78289	-4.09925
  74	1	6	0.053825	-14.0416	3.61166	-4.37681
  75	1	5	0.095789	-15.613	2.47946	-3.47317
  76	1	5	0.095196	-15.8442	2.95363	-5.08441
  77	1	7	0.084202	-13.4734	3.66504	-5.34489
  78	1	7	0.07114	-13.2854	3.24304	-3.66574
  79	1	3	-8e-06	-14.045	5.84688	-4.20851
  80	1	1	-0.400145	-14.2152	8.09837	-3.8315
  81	1	6	0.053825	-14.8724	6.99046	-3.59231
  82	1	5	0.095789	-13.753	6.06454	-5.2677
  83	1	5	0.095196	-13.1734	5.87952	-3.59125
  84	1	7	0.084202	-15.0749	6.74956	-2.53582
  85	1	7	0.07114	-15.8654	6.92272	-4.06159
  86	1	3	-8e-06	-14.6026	9.19653	-3.45525
  87	1	1	-0.400145	-13.6059	11.015	-2.3256
  88	1	6	0.053825	-13.9794	9.74869	-2.13257
  89	1	5	0.095789	-15.6797	9.32534	-3.41554
  90	1	5	0.095196	-14.2637	9.91661	-4.2401
  91	1	7	0.084202	-13.2558	9.02121	-1.73728
  92	1	7	0.07114	-14.7178	9.74681	-1.36373
  93	1	3	-8e-06	-12.4015	11.3117	-2.4068
  94	1	1	-0.400145	-10.6251	12.2429	-1.25015
  95	1	6	0.053825	-11.6621	11.456	-1.08002
  96	1	5	0.095789	-12.3509	12.2217	-2.93912
  97	1	5	0.095196	-11.8748	10.5494	-2.96598
  98	1	7	0.084202	-11.3455	10.4609	-0.737645
  99	1	7	0.07114	-12.4025	11.7703	-0.339301
 100	1	3	-8e-06	-9.49278	11.8661	-0.828804
 101	1	1	-0.400145	-7.54194	10.9971	-1.73696
 102	1	6	0.053825	-8.70734	10.6006	-1.26339
 103	1	5	0.095789	-9.45459	11.8902	0.292818
 104	1	5	0.095196	-8.92458	12.6297	-1.31831
 105	1	7	0.084202	-9.28314	10.0008	-1.95499
 106	1	7	0.07114	-8.57604	10.0107	-0.351803
 107	1	3	-8e-06	-6.67006	10.1267	-1.99039
 108	1	1	-0.400145	-4.6672	9.7723	-3.26796
 109	1	6	0.053825	-5.82453	10.4803	-3.20771
 110	1	5	0.095789	-7.13316	9.12621	-2.11966
 111	1	5	0.095196	-5.94497	10.1129	-1.12807
 112	1	7	0.084202	-5.65001	11.6166	-3.19725
 113	1	7	0.07114	-6.45198	10.3572	-4.07748
 114	1	3	-8e-06	-4.13949	9.69687	-4.38742
 115	1	1	-0.400145	-2.22984	9.68175	-5.63366
 116	1	6	0.053825	-2.74398	10.2366	-4.52037
 117	1	5	0.095789	-4.63214	10.2515	-5.17316
 118	1	5	0.095196	-4.23816	8.64659	-4.63582
 119	1	7	0.084202	-2.21528	9.92245	-3.60552
 120	1	7	0.07114	-2.82341	11.316	-4.56498
 121	1	3	-8e-06	-1.14786	10.1096	-6.1209
 122	1	1	-0.400145	1.08066	9.68284	-6.35645
 123	1	6	0.053825	-0.0394508	9.07922	-5.91395
 124	1	5	0.095789	-0.864193	11.0229	-5.60502
 125	1	5	0.095196	-1.21818	10.4421	-7.11892
 126	1	7	0.084202	-0.344475	8.0978	-6.3776
 127	1	7	0.07114	-0.0100877	8.82217	-4.84961
 128	1	3	-8e-06	2.01833	9.03465	-6.81811
 129	1	1	-0.400145	4.11452	9.34522	-7.68133
 130	1	6	0.053825	3.20106	9.9869	-7.03567
 131	1	5	0.095789	1.69002	8.5631	-7.75337
 132	1	5	0.095196	2.24309	8.26536	-6.13001
 133	1	7	0.084202	3.48983	10.3254	-6.07316
 134	1	7	0.07114	2.79224	10.897	-7.53441
 135	1	3	-8e-06	4.9432	10.0542	-8.19684
 136	1	1	-0.400145	6.69486	11.5547	-7.94608
 137	1	6	0.053825	5.6764	10.9852	-7.24718
 138	1	5	0.095789	4.53848	10.6856	-9.02619
 139	1	5	0.095196	5.69559	9.3398	-8.55548
 140	1	7	0.084202	5.81914	10.4852	-6.27368
 141	1	7	0.07114	4.99394	11.7072	-6.94452
 142	1	3	-8e-06	7.78431	11.6181	-7.52363
 143	1	1	-0.400145	10.0402	10.7279	-7.67313
 144	1	6	0.053825	8.72495	10.5525	-8.03111
 145	1	5	0.095789	7.86406	11.4071	-6.45494
 146	1	5	0.095196	8.22328	12.5696	-7.69101
 147	1	7	0.084202	8.52818	10.4744	-9.13408
 148	1	7	0.07114	8.29367	9.51675	-7.74317
 149	1	3	-8e-06	10.9284	11.3289	-8.3521
 150	1	1	-0.400145	12.3056	13.2309	-7.96345
 151	1	6	0.053825	11.0504	12.7642	-7.82923
 152	1	5	0.095789	10.7283	11.3414	-9.38007
 153	1	5	0.095196	11.8679	10.8355	-8.15695
 154	1	7	0.084202	10.7065	12.7991	-6.81153
 155	1	7	0.07114	10.3161	13.3498	-8.33846
 156	1	3	-8e-06	12.5958	14.4688	-8.08842
 157	1	1	-0.400145	10.8776	15.8981	-8.72466
 158	1	6	0.053825	11.9939	15.3109	-9.19122
 159	1	5	0.095789	13.6442	14.4812	-8.12692
 160	1	5	0.095196	12.3264	14.9149	-7.16701
 161	1	7	0.084202	11.8964	14.6945	-10.129
 162	1	7	0.07114	12.6999	16.1224	-9.52768
 163	1	3	-8e-06	10.0003	15.9934	-9.59357
 164	1	1	-0.400145	8.24705	15.2998	-10.9252
 165	1	6	0.053825	9.07741	14.807	-10.0213
 166	1	5	0.095789	10.4798	16.2594	-10.4931
 167	1	5	0.095196	9.33864	16.7889	-9.35983
 168	1	7	0.084202	8.71943	14.372	-9.09611
 169	1	7	0.07114	9.58901	14.01	-10.4976
 170	1	3	-8e-06	7.10822	14.8406	-11.0533
 171	1	1	-0.400145	5.09974	13.8397	-10.2358
 172	1	6	0.053825	6.34026	14.0926	-9.92535
 173	1	5	0.095789	7.06502	14.2553	-11.9605
 174	1	5	0.095196	6.55439	15.7254	-11.3345
 175	1	7	0.084202	6.49082	14.626	-8.95888
 176	1	7	0.07114	6.87661	13.1786	-9.88258
 177	1	3	-8e-06	4.19	13.8377	-9.41362
 178	1	1	-0.400145	2.14172	12.9298	-8.85737
 179	1	6	0.053825	2.95819	13.1168	-9.91912
 180	1	5	0.095789	3.91393	14.8882	-9.23071
 181	1	5	0.095196	4.55909	13.298	-8.58471
 182	1	7	0.084202	3.38504	12.1516	-10.3024
 183	1	7	0.07114	2.5297	13.5933	-10.7896
 184	1	3	-8e-06	1.59608	13.9571	-8.39529
 185	1	1	-0.400145	-0.687808	14.3204	-8.08048
 186	1	6	0.053825	0.364624	13.7211	-7.51417
 187	1	5	0.095789	1.22223	14.5974	-9.18443
 188	1	5	0.095196	2.24717	14.5592	-7.85859
 189	1	7	0.084202	0.770629	14.0142	-6.57534
 190	1	7	0.07114	0.367568	12.6355	-7.50317
 191	1	3	-8e-06	-1.81204	13.8419	-7.75085
 192	1	1	-0.400145	-3.59254	12.5761	-8.49335
 193	1	6	0.053825	-2.27553	12.7502	-8.66478
 194	1	5	0.095789	-2.65588	14.5435	-7.63957
 195	1	5	0.095196	-1.82549	13.3982	-6.7597
 196	1	7	0.084202	-1.70605	11.7786	-8.64957
 197	1	7	0.07114	-1.97434	13.1431	-9.67517
 198	1	3	-0.232441	-3.68528	9.85403	-8.83373
 199	1	8	0.444336	-4.27084	12.07	-9.33341
 200	1	3	-0.096823	-4.04401	10.8169	-9.6965
 201	1	1	-0.491911	-5.18466	12.5874	-9.82948
 202	1	5	0.148316	-3.18802	8.9351	-9.15279
 203	1	5	0.163898	-3.72688	9.95993	-7.74399
 204	1	5	0.064625	-4.20821	10.4617	-10.7786

Velocities

   1	0.00393159	0.00529076	-0.000735354
   2	0.00379283	0.0100295	0.000769771
   3	0.000774506	0.00825469	0.00498715
   4	-0.000475387	0.00344463	0.003598
   5	0.00389367	0.00416326	5.92927e-06
   6	-0.00525715	0.00894177	0.0122244
   7	0.00273127	-0.00912386	-0.00628916
   8	-0.00557076	0.0179573	0.000535524
   9	-0.00592134	0.00487314	0.00173939
  10	0.00143009	0.00258856	0.00575997
  11	0.0027534	-0.000377702	0.00411613
  12	-0.00155288	0.0172465	-0.00798906
  13	0.00720383	-0.00568581	0.00493565
  14	-0.00975859	-0.0227212	0.0334473
  15	0.0216323	-0.000906758	0.00876599
  16	-0.00487275	0.00362349	-0.00653961
  17	-0.0011278	0.0049556	-0.00272338
  18	-0.00478232	0.00699981	-0.00162434
  19	-0.00518386	-0.00426409	-0.00783563
  20	-0.0261688	-0.0011302	-0.0170404
  21	-0.0200951	0.0199883	0.0213464
  22	0.021286	0.0125617	-0.0103799
  23	0.000121654	0.00299182	-0.0059453
  24	-0.00851782	0.00385358	-0.000611736
  25	-0.00899051	0.00616706	-0.00346127
  26	-0.00632159	-0.00177597	-0.0172357
  27	-0.00104283	0.00582074	-0.0158898
  28	-0.0181326	0.014833	-0.00762783
  29	-0.000949117	0.00726445	-0.0143586
  30	0.000697906	-0.00490523	-0.00650755
  31	-0.00241121	-0.00554515	-0.00528471
  32	-0.00441188	-0.00240268	-0.00833943
  33	-0.00861986	-0.022708	-0.00758658
  34	-0.0120489	1.14335e-05	-0.00850838
  35	0.00384474	-0.00873182	-0.00580743
  36	-0.0151733	0.000491073	-0.0137563
  37	0.000437329	0.00266661	-0.00389835
  38	-0.00262455	-0.000699126	-0.00493267
  39	0.00442166	-0.00262109	-0.00580568
  40	0.0101789	-0.00521591	0.00681017
  41	0.0236033	0.0116766	0.00770144
  42	0.0105876	0.000472746	-0.00580598
  43	0.00748072	-0.00460393	0.0137543
  44	-0.01015	0.00188782	-0.00899005
  45	0.00412141	0.000425489	-0.000698121
  46	0.000671405	-0.00180172	-0.00649558
  47	-0.00503292	0.00180538	9.44987e-05
  48	0.0241782	-0.0020568	2.0042e-05
  49	-0.0250289	-0.00283776	0.000487574
  50	-0.019811	0.000233791	0.00499374
  51	0.00215886	-0.0052875	-0.0134093
  52	-0.0053947	0.000858443	-0.00180412
  53	0.0008593	0.00397343	-0.00352849
  54	-0.00154612	0.00289903	-0.00701359
  55	-0.0187859	-0.00290665	-0.0137137
  56	-0.0108431	0.0205969	-0.0195572
  57	-0.0166308	0.000162696	-0.00101776
  58	-0.00863106	0.00555553	-0.00204058
  59	-0.00635822	0.00337551	-0.00230535
  60	-0.00598967	-0.00093317	-0.00327251
  61	0.00237205	0.025862	-0.00815713
  62	0.0102788	-0.0123981	-0.0390647
  63	0.0128383	0.00812081	0.0124991
  64	-0.0292096	-0.0180887	0.0108085
  65	-0.00538102	0.00346176	-0.00928096
  66	0.001895	0.000955164	-0.00205341
  67	-0.00164733	0.000821565	-0.00301574
  68	-0.0110032	0.010635	-0.0094002
  69	-0.00848066	0.00627292	-0.0144318
  70	-0.000553893	-0.0257581	0.00325701
  71	-0.00288842	-0.00691499	0.000381698
  72	0.00660091	0.00604773	-0.00451458
  73	-0.00335776	-0.00146417	-0.00152181
  74	-0.00114588	0.00452281	-0.00206515
  75	-0.00974844	-0.00437788	0.00747971
  76	0.00139127	0.00872135	-0.0124951
  77	-0.00239442	0.00812811	0.00378207
  78	0.00486065	-0.0218169	0.0045361
  79	0.0029732	0.000879892	-0.00424783
  80	-0.00322431	0.00459354	0.00117126
  81	0.00477269	0.00966723	-0.00531318
  82	0.00911053	-0.00238884	0.0119118
  83	0.0212304	-0.0114246	0.00110894
  84	0.00831165	5.27056e-05	0.0136453
  85	0.00892881	-0.0154535	0.00869733
  86	-0.00156149	0.000577623	-0.00358081
  87	0.000887394	-0.00114837	0.000550544
  88	0.000122238	0.00182532	0.00125695
  89	-0.0313637	-0.0201198	-0.00150019
  90	0.013493	0.00406491	0.00640313
  91	-0.00674448	0.00437641	0.0298264
  92	-0.000673942	-0.00976575	0.0156072
  93	0.00347837	0.00687897	-0.00115891
  94	-0.000197147	-0.00218701	-0.000880394
  95	-0.00261964	0.00422819	0.000236703
  96	0.00137373	0.0248192	-0.0110352
  97	-0.0209824	-0.000964949	-0.000414964
  98	-0.0233792	-0.0045864	-0.0108054
  99	-0.00386392	0.025449	-0.0136005
 100	0.00426421	-0.00761104	0.00402469
 101	-0.00373167	0.00436873	-0.0078422
 102	-0.00218267	0.000970814	0.00179754
 103	-0.0141472	-0.000861554	-0.00647982
 104	0.00193966	0.0132384	0.013026
 105	-0.0122369	0.00205996	0.0030126
 106	0.0191736	-0.0125038	0.00251928
 107	-0.0025953	0.00358675	0.00203839
 108	-0.00698857	0.00926353	-0.00154451
 109	-0.00156945	0.00880804	0.00261756
 110	-0.018107	0.00881745	-0.00962236
 111	0.00928151	0.0169114	0.00641356
 112	-0.0209966	0.0160498	-0.00658531
 113	-0.00713653	-0.00802959	-0.00745702
 114	-0.00656473	0.00462991	-0.00039964
 115	-0.00398911	-0.000842651	0.00654984
 116	-0.000707026	0.00337946	-0.00587445
 117	-0.0112977	0.0299955	0.0135255
 118	-0.0203308	-0.00104608	-0.0168519
 119	-0.0256315	0.000867347	-0.00573851
 120	0.0047687	0.00452558	-0.011527
 121	-0.00215171	0.00211411	-0.00100529
 122	-0.00565077	0.00219828	0.000701169
 123	-0.0013508	0.00631016	0.00414419
 124	-0.0011922	0.00753115	0.0124128
 125	-0.0256908	0.0204593	-0.00530893
 126	0.000222008	-0.025078	-0.00171904
 127	0.00297657	-0.0128346	0.000107711
 128	-0.00377248	0.00456162	-0.00512272
 129	-0.0073439	0.00244368	0.000218275
 130	0.00241988	-0.00380178	0.0054828
 131	0.00040684	-0.0163139	0.0095048
 132	-0.021457	-0.0112494	-0.0159034
 133	-0.00764079	-0.00606337	0.0122398
 134	0.013719	-0.00897565	0.0145149
 135	-0.00925151	-0.00277465	-0.000488339
 136	0.000892356	-9.17781e-05	0.00031668
 137	7.18592e-05	0.0062552	-0.00819498
 138	-0.0103857	0.00923464	0.0366402
 139	-0.000843161	0.0378633	0.00610344
 140	-0.00409368	0.0232253	-0.00041857
 141	-0.00175432	-0.000802914	-0.00652135
 142	-0.00783931	-0.00448802	0.000517542
 143	-0.00442634	-0.00108782	-0.00455303
 144	0.00228082	-0.00559359	0.000841147
 145	-0.0366707	-0.012939	0.0261063
 146	-0.0192397	-0.00947997	0.0102438
 147	0.00653539	0.00533185	0.0255016
 148	-0.0131026	-0.0113208	-0.0180506
 149	0.00955	-0.00587217	0.0034067
 150	-0.00329176	0.00213702	0.00167841
 151	0.00265128	-0.00494809	-0.00705905
 152	-0.0226283	-0.00054227	-0.0208487
 153	0.034342	0.0129563	0.0223662
 154	0.00751035	-0.0315392	-0.0126107
 155	-0.0128352	-0.0257881	0.00736158
 156	0.00584785	-0.00450219	0.00941344
 157	0.00338545	0.00393359	-0.00328255
 158	-0.00685748	0.00401681	0.000528941
 159	-0.00806837	0.0172948	-0.00249928
 160	0.0107888	-0.00127068	0.0286385
 161	-0.03217	-0.0121219	-0.00285346
 162	-0.0187606	0.0105063	-0.00961541
 163	-3.82067e-05	-0.00815785	0.00322445
 164	-0.0032137	0.00998378	-0.00254914
 165	-0.0074482	0.0052661	-0.00074783
 166	0.0368716	-0.0104006	-6.231e-05
 167	0.0306329	0.0226246	0.00662223
 168	-0.0424636	0.00826726	0.00742046
 169	0.0404931	0.0159546	-0.0031486
 170	0.000544141	0.00224828	0.00234662
 171	-0.00297134	0.00482727	-0.00124157
 172	-0.00364096	0.00494512	0.0102549
 173	0.0239011	-0.000679401	0.00474728
 174	0.00829767	-0.0060458	0.0098637
 175	-0.00183142	-0.0052451	-0.00378502
 176	0.0134687	-0.0139898	-0.00314467
 177	0.00312577	0.00788203	0.00254119
 178	0.000377881	-0.00102194	-0.00588693
 179	-0.0029056	-0.00745142	0.0055589
 180	-0.0133926	-0.0300102	-0.0115587
 181	0.0307738	-0.00928247	-0.0247626
 182	-0.0111613	0.0200964	0.0037547
 183	-0.00149305	0.0122887	-0.0209499
 184	-0.00112777	-0.00969612	-0.00148938
 185	0.0109554	-0.00337327	-0.000560958
 186	-0.00398459	-0.00586029	0.000880642
 187	-0.021868	-0.0184345	-0.00024325
 188	-0.00291118	-0.0176898	0.00658664
 189	-0.0350566	0.0112387	0.0192761
 190	-0.00791998	-0.0285765	0.000886218
 191	0.00386227	0.00291956	-0.00385928
 192	-0.00396762	0.0108577	-0.00703001
 193	0.00563704	-0.000529948	-0.0129906
 194	0.0205961	-0.0155029	0.0111331
 195	0.0217265	-0.00489169	-0.0132641
 196	-0.0430682	-0.0322529	-0.0234722
 197	0.00103399	0.0183233	0.00908997
 198	-0.00489356	0.0127305	-0.00867163
 199	0.00388803	0.0122965	-0.000987975
 200	0.00290158	-0.00253294	-0.00157869
 201	0.00270619	0.000157379	-0.00112295
 202	-0.00515438	-0.00543889	-0.0203643
 203	-7.45282e-05	-0.0197979	0.00495986
 204	-0.0260544	-0.018318	-0.0454163

Bonds

   1	5	1	3
   2	5	2	3
   3	4	3	5
   4	2	4	5
   5	1	4	6
   6	1	4	7
   7	3	5	8
   8	7	9	11
   9	1	9	12
  10	1	9	13
  11	6	10	11
  12	8	11	14
  13	8	11	15
  14	9	1	9
  15	7	16	18
  16	1	16	19
  17	1	16	20
  18	6	17	18
  19	8	18	21
  20	8	18	22
  21	9	10	16
  22	7	23	25
  23	1	23	26
  24	1	23	27
  25	6	24	25
  26	8	25	28
  27	8	25	29
  28	9	17	23
  29	7	30	32
  30	1	30	33
  31	1	30	34
  32	6	31	32
  33	8	32	35
  34	8	32	36
  35	9	24	30
  36	7	37	39
  37	1	37	40
  38	1	37	41
  39	6	38	39
  40	8	39	42
  41	8	39	43
  42	9	31	37
  43	7	44	46
  44	1	44	47
  45	1	44	48
  46	6	45	46
  47	8	46	49
  48	8	46	50
  49	9	38	44
  50	7	51	53
  51	1	51	54
  52	1	51	55
  53	6	52	53
  54	8	53	56
  55	8	53	57
  56	9	45	51
  57	7	58	60
  58	1	58	61
  59	1	58	62
  60	6	59	60
  61	8	60	63
  62	8	60	64
  63	9	52	58
  64	7	65	67
  65	1	65	68
  66	1	65	69
  67	6	66	67
  68	8	67	70
  69	8	67	71
  70	9	59	65
  71	7	72	74
  72	1	72	75
  73	1	72	76
  74	6	73	74
  75	8	74	77
  76	8	74	78
  77	9	66	72
  78	7	79	81
  79	1	79	82
  80	1	79	83
  81	6	80	81
  82	8	81	84
  83	8	81	85
  84	9	73	79
  85	7	86	88
  86	1	86	89
  87	1	86	90
  88	6	87	88
  89	8	88	91
  90	8	88	92
  91	9	80	86
  92	7	93	95
  93	1	93	96
  94	1	93	97
  95	6	94	95
  96	8	95	98
  97	8	95	99
  98	9	87	93
  99	7	100	102
 100	1	100	103
 101	1	100	104
 102	6	101	102
 103	8	102	105
 104	8	102	106
 105	9	94	100
 106	7	107	109
 107	1	107	110
 108	1	107	111
 109	6	108	109
 110	8	109	112
 111	8	109	113
 112	9	101	107
 113	7	114	116
 114	1	114	117
 115	1	114	118
 116	6	115	116
 117	8	116	119
 118	8	116	120
 119	9	108	114
 120	7	121	123
 121	1	121	124
 122	1	121	125
 123	6	122	123
 124	8	123	126
 125	8	123	127
 126	9	115	121
 127	7	128	130
 128	1	128	131
 129	1	128	132
 130	6	129	130
 131	8	130	133
 132	8	130	134
 133	9	122	128
 134	7	135	137
 135	1	135	138
 136	1	135	139
 137	6	136	137
 138	8	137	140
 139	8	137	141
 140	9	129	135
 141	7	142	144
 142	1	142	145
 143	1	142	146
 144	6	143	144
 145	8	144	147
 146	8	144	148
 147	9	136	142
 148	7	149	151
 149	1	149	152
 150	1	149	153
 151	6	150	151
 152	8	151	154
 153	8	151	155
 154	9	143	149
 155	7	156	158
 156	1	156	159
 157	1	156	160
 158	6	157	158
 159	8	158	161
 160	8	158	162
 161	9	150	156
 162	7	163	165
 163	1	163	166
 164	1	163	167
 165	6	164	165
 166	8	165	168
 167	8	165	169
 168	9	157	163
 169	7	170	172
 170	1	170	173
 171	1	170	174
 172	6	171	172
 173	8	172	175
 174	8	172	176
 175	9	164	170
 176	7	177	179
 177	1	177	180
 178	1	177	181
 179	6	178	179
 180	8	179	182
 181	8	179	183
 182	9	171	177
 183	7	184	186
 184	1	184	187
 185	1	184	188
 186	6	185	186
 187	8	186	189
 188	8	186	190
 189	9	178	184
 190	7	191	193
 191	1	191	194
 192	1	191	195
 193	6	192	193
 194	8	193	196
 195	8	193	197
 196	9	185	191
 197	12	198	200
 198	1	198	202
 199	1	198	203
 200	10	199	200
 201	11	199	201
 202	1	200	204
 203	11	192	199

Angles

   1	7	1	3	2
   2	6	1	3	5
   3	6	2	3	5
   4	2	5	4	6
   5	2	5	4	7
   6	1	6	4	7
   7	5	3	5	4
   8	4	3	5	8
   9	3	4	5	8
  10	10	11	9	12
  11	10	11	9	13
  12	1	12	9	13
  13	9	9	11	10
  14	8	9	11	14
  15	8	9	11	15
  16	12	10	11	14
  17	12	10	11	15
  18	11	14	11	15
  19	13	3	1	9
  20	14	1	9	11
  21	15	1	9	12
  22	15	1	9	13
  23	10	18	16	19
  24	10	18	16	20
  25	1	19	16	20
  26	9	16	18	17
  27	8	16	18	21
  28	8	16	18	22
  29	12	17	18	21
  30	12	17	18	22
  31	11	21	18	22
  32	16	11	10	16
  33	14	10	16	18
  34	15	10	16	19
  35	15	10	16	20
  36	10	25	23	26
  37	10	25	23	27
  38	1	26	23	27
  39	9	23	25	24
  40	8	23	25	28
  41	8	23	25	29
  42	12	24	25	28
  43	12	24	25	29
  44	11	28	25	29
  45	16	18	17	23
  46	14	17	23	25
  47	15	17	23	26
  48	15	17	23	27
  49	10	32	30	33
  50	10	32	30	34
  51	1	33	30	34
  52	9	30	32	31
  53	8	30	32	35
  54	8	30	32	36
  55	12	31	32	35
  56	12	31	32	36
  57	11	35	32	36
  58	16	25	24	30
  59	14	24	30	32
  60	15	24	30	33
  61	15	24	30	34
  62	10	39	37	40
  63	10	39	37	41
  64	1	40	37	41
  65	9	37	39	38
  66	8	37	39	42
  67	8	37	39	43
  68	12	38	39	42
  69	12	38	39	43
  70	11	42	39	43
  71	16	32	31	37
  72	14	31	37	39
  73	15	31	37	40
  74	15	31	37	41
  75	10	46	44	47
  76	10	46	44	48
  77	1	47	44	48
  78	9	44	46	45
  79	8	44	46	49
  80	8	44	46	50
  81	12	45	46	49
  82	12	45	46	50
  83	11	49	46	50
  84	16	39	38	44
  85	14	38	44	46
  86	15	38	44	47
  87	15	38	44	48
  88	10	53	51	54
  89	10	53	51	55
  90	1	54	51	55
  91	9	51	53	52
  92	8	51	53	56
  93	8	51	53	57
  94	12	52	53	56
  95	12	52	53	57
  96	11	56	53	57
  97	16	46	45	51
  98	14	45	51	53
  99	15	45	51	54
 100	15	45	51	55
 101	10	60	58	61
 102	10	60	58	62
 103	1	61	58	62
 104	9	58	60	59
 105	8	58	60	63
 106	8	58	60	64
 107	12	59	60	63
 108	12	59	60	64
 109	11	63	60	64
 110	16	53	52	58
 111	14	52	58	60
 112	15	52	58	61
 113	15	52	58	62
 114	10	67	65	68
 115	10	67	65	69
 116	1	68	65	69
 117	9	65	67	66
 118	8	65	67	70
 119	8	65	67	71
 120	12	66	67	70
 121	12	66	67	71
 122	11	70	67	71
 123	16	60	59	65
 124	14	59	65	67
 125	15	59	65	68
 126	15	59	65	69
 127	10	74	72	75
 128	10	74	72	76
 129	1	75	72	76
 130	9	72	74	73
 131	8	72	74	77
 132	8	72	74	78
 133	12	73	74	77
 134	12	73	74	78
 135	11	77	74	78
 136	16	67	66	72
 137	14	66	72	74
 138	15	66	72	75
 139	15	66	72	76
 140	10	81	79	82
 141	10	81	79	83
 142	1	82	79	83
 143	9	79	81	80
 144	8	79	81	84
 145	8	79	81	85
 146	12	80	81	84
 147	12	80	81	85
 148	11	84	81	85
 149	16	74	73	79
 150	14	73	79	81
 151	15	73	79	82
 152	15	73	79	83
 153	10	88	86	89
 154	10	88	86	90
 155	1	89	86	90
 156	9	86	88	87
 157	8	86	88	91
 158	8	86	88	92
 159	12	87	88	91
 160	12	87	88	92
 161	11	91	88	92
 162	16	81	80	86
 163	14	80	86	88
 164	15	80	86	89
 165	15	80	86	90
 166	10	95	93	96
 167	10	95	93	97
 168	1	96	93	97
 169	9	93	95	94
 170	8	93	95	98
 171	8	93	95	99
 172	12	94	95	98
 173	12	94	95	99
 174	11	98	95	99
 175	16	88	87	93
 176	14	87	93	95
 177	15	87	93	96
 178	15	87	93	97
 179	10	102	100	103
 180	10	102	100	104
 181	1	103	100	104
 182	9	100	102	101
 183	8	100	102	105
 184	8	100	102	106
 185	12	101	102	105
 186	12	101	102	106
 187	11	105	102	106
 188	16	95	94	100
 189	14	94	100	102
 190	15	94	100	103
 191	15	94	100	104
 192	10	109	107	110
 193	10	109	107	111
 194	1	110	107	111
 195	9	107	109	108
 196	8	107	109	112
 197	8	107	109	113
 198	12	108	109	112
 199	12	108	109	113
 200	11	112	109	113
 201	16	102	101	107
 202	14	101	107	109
 203	15	101	107	110
 204	15	101	107	111
 205	10	116	114	117
 206	10	116	114	118
 207	1	117	114	118
 208	9	114	116	115
 209	8	114	116	119
 210	8	114	116	120
 211	12	115	116	119
 212	12	115	116	120
 213	11	119	116	120
 214	16	109	108	114
 215	14	108	114	116
 216	15	108	114	117
 217	15	108	114	118
 218	10	123	121	124
 219	10	123	121	125
 220	1	124	121	125
 221	9	121	123	122
 222	8	121	123	126
 223	8	121	123	127
 224	12	122	123	126
 225	12	122	123	127
 226	11	126	123	127
 227	16	116	115	121
 228	14	115	121	123
 229	15	115	121	124
 230	15	115	121	125
 231	10	130	128	131
 232	10	130	128	132
 233	1	131	128	132
 234	9	128	130	129
 235	8	128	130	133
 236	8	128	130	134
 237	12	129	130	133
 238	12	129	130	134
 239	11	133	130	134
 240	16	123	122	128
 241	14	122	128	130
 242	15	122	128	131
 243	15	122	128	132
 244	10	137	135	138
 245	10	137	135	139
 246	1	138	135	139
 247	9	135	137	136
 248	8	135	137	140
 249	8	135	137	141
 250	12	136	137	140
 251	12	136	137	141
 252	11	140	137	141
 253	16	130	129	135
 254	14	129	135	137
 255	15	129	135	138
 256	15	129	135	139
 257	10	144	142	145
 258	10	144	142	146
 259	1	145	142	146
 260	9	142	144	143
 261	8	142	144	147
 262	8	142	144	148
 263	12	143	144	147
 264	12	143	144	148
 265	11	147	144	148
 266	16	137	136	142
 267	14	136	142	144
 268	15	136	142	145
 269	15	136	142	146
 270	10	151	149	152
 271	10	151	149	153
 272	1	152	149	153
 273	9	149	151	150
 274	8	149	151	154
 275	8	149	151	155
 276	12	150	151	154
 277	12	150	151	155
 278	11	154	151	155
 279	16	144	143	149
 280	14	143	149	151
 281	15	143	149	152
 282	15	143	149	153
 283	10	158	156	159
 284	10	158	156	160
 285	1	159	156	160
 286	9	156	158	157
 287	8	156	158	161
 288	8	156	158	162
 289	12	157	158	161
 290	12	157	158	162
 291	11	161	158	162
 292	16	151	150	156
 293	14	150	156	158
 294	15	150	156	159
 295	15	150	156	160
 296	10	165	163	166
 297	10	165	163	167
 298	1	166	163	167
 299	9	163	165	164
 300	8	163	165	168
 301	8	163	165	169
 302	12	164	165	168
 303	12	164	165	169
 304	11	168	165	169
 305	16	158	157	163
 306	14	157	163	165
 307	15	157	163	166
 308	15	157	163	167
 309	10	172	170	173
 310	10	172	170	174
 311	1	173	170	174
 312	9	170	172	171
 313	8	170	172	175
 314	8	170	172	176
 315	12	171	172	175
 316	12	171	172	176
 317	11	175	172	176
 318	16	165	164	170
 319	14	164	170	172
 320	15	164	170	173
 321	15	164	170	174
 322	10	179	177	180
 323	10	179	177	181
 324	1	180	177	181
 325	9	177	179	178
 326	8	177	179	182
 327	8	177	179	183
 328	12	178	179	182
 329	12	178	179	183
 330	11	182	179	183
 331	16	172	171	177
 332	14	171	177	179
 333	15	171	177	180
 334	15	171	177	181
 335	10	186	184	187
 336	10	186	184	188
 337	1	187	184	188
 338	9	184	186	185
 339	8	184	186	189
 340	8	184	186	190
 341	12	185	186	189
 342	12	185	186	190
 343	11	189	186	190
 344	16	179	178	184
 345	14	178	184	186
 346	15	178	184	187
 347	15	178	184	188
 348	10	193	191	194
 349	10	193	191	195
 350	1	194	191	195
 351	9	191	193	192
 352	8	191	193	196
 353	8	191	193	197
 354	12	192	193	196
 355	12	192	193	197
 356	11	196	193	197
 357	16	186	185	191
 358	14	185	191	193
 359	15	185	191	194
 360	15	185	191	195
 361	19	200	198	202
 362	19	200	198	203
 363	1	202	198	203
 364	17	200	199	201
 365	18	198	200	199
 366	19	198	200	204
 367	20	199	200	204
 368	21	193	192	199
 369	17	192	199	200
 370	22	192	199	201

Dihedrals

   1	2	1	3	5	4
   2	2	1	3	5	8
   3	2	2	3	5	4
   4	2	2	3	5	8
   5	1	6	4	5	3
   6	1	6	4	5	8
   7	1	7	4	5	3
   8	1	7	4	5	8
   9	3	12	9	11	10
  10	3	12	9	11	14
  11	3	12	9	11	15
  12	3	13	9	11	10
  13	3	13	9	11	14
  14	3	13	9	11	15
  15	3	1	9	11	10
  16	3	1	9	11	14
  17	3	1	9	11	15
  18	3	19	16	18	17
  19	3	19	16	18	21
  20	3	19	16	18	22
  21	3	20	16	18	17
  22	3	20	16	18	21
  23	3	20	16	18	22
  24	3	10	16	18	17
  25	3	10	16	18	21
  26	3	10	16	18	22
  27	3	26	23	25	24
  28	3	26	23	25	28
  29	3	26	23	25	29
  30	3	27	23	25	24
  31	3	27	23	25	28
  32	3	27	23	25	29
  33	3	17	23	25	24
  34	3	17	23	25	28
  35	3	17	23	25	29
  36	3	33	30	32	31
  37	3	33	30	32	35
  38	3	33	30	32	36
  39	3	34	30	32	31
  40	3	34	30	32	35
  41	3	34	30	32	36
  42	3	24	30	32	31
  43	3	24	30	32	35
  44	3	24	30	32	36
  45	3	40	37	39	38
  46	3	40	37	39	42
  47	3	40	37	39	43
  48	3	41	37	39	38
  49	3	41	37	39	42
  50	3	41	37	39	43
  51	3	31	37	39	38
  52	3	31	37	39	42
  53	3	31	37	39	43
  54	3	47	44	46	45
  55	3	47	44	46	49
  56	3	47	44	46	50
  57	3	48	44	46	45
  58	3	48	44	46	49
  59	3	48	44	46	50
  60	3	38	44	46	45
  61	3	38	44	46	49
  62	3	38	44	46	50
  63	3	54	51	53	52
  64	3	54	51	53	56
  65	3	54	51	53	57
  66	3	55	51	53	52
  67	3	55	51	53	56
  68	3	55	51	53	57
  69	3	45	51	53	52
  70	3	45	51	53	56
  71	3	45	51	53	57
  72	3	61	58	60	59
  73	3	61	58	60	63
  74	3	61	58	60	64
  75	3	62	58	60	59
  76	3	62	58	60	63
  77	3	62	58	60	64
  78	3	52	58	60	59
  79	3	52	58	60	63
  80	3	52	58	60	64
  81	3	68	65	67	66
  82	3	68	65	67	70
  83	3	68	65	67	71
  84	3	69	65	67	66
  85	3	69	65	67	70
  86	3	69	65	67	71
  87	3	59	65	67	66
  88	3	59	65	67	70
  89	3	59	65	67	71
  90	3	75	72	74	73
  91	3	75	72	74	77
  92	3	75	72	74	78
  93	3	76	72	74	73
  94	3	76	72	74	77
  95	3	76	72	74	78
  96	3	66	72	74	73
  97	3	66	72	74	77