pySIMM System Object

281 atoms
280 bonds
513 angles
358 dihedrals
1 impropers

8 atom types
12 bond types
22 angle types
5 dihedral types
1 improper types

-83.879149 83.879149 xlo xhi
-83.879149 83.879149 ylo yhi
-83.879149 83.879149 zlo zhi

Masses

   1	16.0	# o
   2	12.01	# c
   3	12.01	# c2
   4	12.01	# ce
   5	1.008	# ha
   6	12.01	# c3
   7	1.008	# h1
   8	12.01	# c1

Pair Coeffs

   1	0.21	2.959921901149463	# o
   2	0.086	3.3996695084235347	# c
   3	0.086	3.3996695084235347	# c2
   4	0.086	3.3996695084235347	# ce
   5	0.015	2.59964245953351	# ha
   6	0.1094	3.3996695084235347	# c3
   7	0.0157	2.471353044121301	# h1
   8	0.21	3.3996695084235347	# c1

Bond Coeffs

   1	343.1	1.0879	# c2,ha
   2	547.3	1.3461	# c2,ce
   3	342.5	1.0883	# ce,ha
   4	354.5	1.4825	# c,ce
   5	637.7	1.2183	# c,o
   6	449.9	1.3165	# c3,o
   7	326.8	1.5095	# c2,c3
   8	330.6	1.0969	# c3,h1
   9	622.9	1.2247	# c2,o
  10	625.0	1.307	# c1,c2
  11	758.1	1.1724	# c1,o
  12	569.4	1.3343	# c2,c2

Angle Coeffs

   1	38.11	116.9	# ha,c2,ha
   2	49.51	120.45	# ce,c2,ha
   3	49.61	119.94	# c2,ce,ha
   4	46.52	116.46	# c,ce,ha
   5	65.45	120.42	# c,ce,c2
   6	68.83	123.2	# ce,c,o
   7	77.94	130.25	# o,c,o
   8	47.07	109.96	# c2,c3,h1
   9	68.15	110.35	# c2,c3,o
  10	45.94	115.68	# c3,c2,ha
  11	39.24	108.46	# h1,c3,h1
  12	52.64	116.45	# h1,c3,o
  13	65.83	113.14	# c2,o,c
  14	67.92	122.82	# c3,c2,o
  15	55.28	117.23	# ha,c2,o
  16	65.83	113.14	# c2,o,c3
  17	62.94	179.5	# c2,c1,o
  18	70.06	121.62	# c1,c2,c2
  19	49.85	120.43	# c2,c2,ha
  20	50.62	120.42	# c1,c2,ha
  21	65.83	113.14	# c3,o,c1
  22	68.89	180.0	# o,c1,o

Dihedral Coeffs

   1	1	6.65	2	180	# X,c2,ce,X
   2	1	2.175	2	180	# X,c,ce,X
   3	1	0.0	2	0	# X,c2,c3,X
   4	1	6.65	2	180	# X,c2,c2,X
   5	1	0.0	2	180	# X,c1,c2,X

Improper Coeffs

   1	10.5	-1	2	# c,X,X,o

Atoms

   1	1	1	-0.104756	6.27093	5.78149	-4.95508
   2	1	1	-0.569213	5.8854	6.28244	-2.86862
   3	1	2	0.789146	5.55922	6.18104	-4.05403
   4	1	3	-0.154228	3.08423	6.35877	-3.58534
   5	1	4	-0.389642	4.11813	6.44421	-4.45788
   6	1	5	0.157325	2.05171	6.47587	-3.91864
   7	1	5	0.138289	3.22595	6.12058	-2.519
   8	1	5	0.133078	3.92032	6.64258	-5.50978
   9	1	3	-8e-06	7.14754	6.50557	-5.40906
  10	1	1	-0.400145	9.27002	5.52771	-5.52835
  11	1	6	0.053825	8.52797	6.34814	-4.80081
  12	1	5	0.095789	6.91167	7.56338	-5.31929
  13	1	5	0.095196	7.20977	6.33037	-6.49311
  14	1	7	0.084202	8.42154	6.13142	-3.74013
  15	1	7	0.07114	8.96891	7.35168	-4.75774
  16	1	3	-8e-06	9.75533	4.48384	-5.02648
  17	1	1	-0.400145	8.35377	3.25218	-3.61224
  18	1	6	0.053825	8.86939	3.24	-4.84582
  19	1	5	0.095789	10.2184	4.67313	-4.06308
  20	1	5	0.095196	10.5657	4.16856	-5.68281
  21	1	7	0.084202	9.43106	2.33986	-5.06663
  22	1	7	0.07114	8.14169	3.29179	-5.63725
  23	1	3	-8e-06	7.70556	2.29883	-3.15337
  24	1	1	-0.400145	5.65042	2.29994	-4.36166
  25	1	6	0.053825	6.17252	2.41334	-3.14438
  26	1	5	0.095789	7.97758	2.1959	-2.0991
  27	1	5	0.095196	7.93563	1.34599	-3.63308
  28	1	7	0.084202	5.95904	3.35071	-2.67453
  29	1	7	0.07114	5.83373	1.64031	-2.41526
  30	1	3	-8e-06	4.59679	1.67156	-4.48703
  31	1	1	-0.400145	2.78362	1.06633	-3.15221
  32	1	6	0.053825	3.28125	2.10339	-3.79112
  33	1	5	0.095789	4.82355	0.63813	-4.1701
  34	1	5	0.095196	4.33601	1.56382	-5.54773
  35	1	7	0.084202	2.60782	2.46389	-4.59251
  36	1	7	0.07114	3.50181	2.98694	-3.1927
  37	1	3	-8e-06	1.7817	1.30009	-2.46668
  38	1	1	-0.400145	-0.417999	1.88348	-2.92632
  39	1	6	0.053825	0.472534	0.923597	-3.09369
  40	1	5	0.095789	1.68848	2.31964	-2.12085
  41	1	5	0.095196	1.87241	0.655006	-1.58331
  42	1	7	0.084202	0.161834	-0.0231644	-2.60961
  43	1	7	0.07114	0.634807	0.599087	-4.14006
  44	1	3	-8e-06	-0.798761	2.59475	-3.87465
  45	1	1	-0.400145	-1.40595	1.50992	-5.89028
  46	1	6	0.053825	-1.89404	2.07214	-4.79312
  47	1	5	0.095789	0.021514	2.87977	-4.54553
  48	1	5	0.095196	-1.19209	3.51697	-3.44036
  49	1	7	0.084202	-2.59164	2.89268	-4.97645
  50	1	7	0.07114	-2.44742	1.40634	-4.15181
  51	1	3	-8e-06	-2.17645	1.31056	-6.82666
  52	1	1	-0.400145	-3.41397	2.86333	-7.92367
  53	1	6	0.053825	-2.21787	2.32302	-7.95394
  54	1	5	0.095789	-3.19843	1.10679	-6.48366
  55	1	5	0.095196	-1.86219	0.400514	-7.33048
  56	1	7	0.084202	-1.9568	1.80989	-8.87228
  57	1	7	0.07114	-1.4163	3.06487	-7.85192
  58	1	3	-8e-06	-3.60167	3.89959	-8.53676
  59	1	1	-0.400145	-5.1939	5.58735	-8.85512
  60	1	6	0.053825	-5.06953	4.29955	-8.59546
  61	1	5	0.095789	-3.20776	3.87109	-9.55385
  62	1	5	0.095196	-3.09346	4.67632	-8.02476
  63	1	7	0.084202	-5.4934	3.99178	-7.65625
  64	1	7	0.07114	-5.55093	3.6622	-9.34886
  65	1	3	-8e-06	-4.93139	6.43136	-8.00801
  66	1	1	-0.400145	-6.40246	8.17407	-7.44899
  67	1	6	0.053825	-5.4424	7.82618	-8.31281
  68	1	5	0.095789	-3.8588	6.57599	-7.91265
  69	1	5	0.095196	-5.29198	6.11934	-7.01764
  70	1	7	0.084202	-5.74562	7.81411	-9.37588
  71	1	7	0.07114	-4.56137	8.49611	-8.32022
  72	1	3	-8e-06	-7.43788	8.70563	-7.9057
  73	1	1	-0.400145	-9.43234	8.48278	-9.24057
  74	1	6	0.053825	-8.38869	7.81157	-8.74895
  75	1	5	0.095789	-7.16464	9.5569	-8.55571
  76	1	5	0.095196	-8.07807	9.07336	-7.0722
  77	1	7	0.084202	-8.68093	7.01712	-8.03984
  78	1	7	0.07114	-7.78079	7.32208	-9.50653
  79	1	3	-8e-06	-10.0088	8.08374	-10.2687
  80	1	1	-0.400145	-10.0954	5.80007	-10.2135
  81	1	6	0.053825	-10.9098	6.85153	-10.2259
  82	1	5	0.095789	-9.28312	7.88721	-11.0744
  83	1	5	0.095196	-10.608	8.88945	-10.6539
  84	1	7	0.084202	-11.5921	6.9629	-11.0817
  85	1	7	0.07114	-11.5212	6.9778	-9.32696
  86	1	3	-8e-06	-10.4585	4.7113	-9.78847
  87	1	1	-0.400145	-9.78004	2.99667	-8.56555
  88	1	6	0.053825	-9.37257	3.71425	-9.58229
  89	1	5	0.095789	-11.1256	4.28621	-10.5534
  90	1	5	0.095196	-11.0671	4.80971	-8.87696
  91	1	7	0.084202	-8.40638	4.24145	-9.53342
  92	1	7	0.07114	-9.3018	3.093	-10.5209
  93	1	3	-8e-06	-8.92428	2.827	-7.69209
  94	1	1	-0.400145	-8.01509	3.48494	-5.66588
  95	1	6	0.053825	-8.60789	3.97737	-6.74034
  96	1	5	0.095789	-7.95561	2.51695	-8.14609
  97	1	5	0.095196	-9.25187	1.99	-7.06582
  98	1	7	0.084202	-9.55786	4.50639	-6.57655
  99	1	7	0.07114	-7.98666	4.70974	-7.26689
 100	1	3	-8e-06	-7.96575	4.28295	-4.72355
 101	1	1	-0.400145	-6.51043	4.92269	-3.11069
 102	1	6	0.053825	-7.18304	3.83564	-3.54498
 103	1	5	0.095789	-8.95018	4.59472	-4.38617
 104	1	5	0.095196	-7.50557	5.21006	-5.05757
 105	1	7	0.084202	-6.52807	2.98505	-3.8167
 106	1	7	0.07114	-7.91881	3.41244	-2.84219
 107	1	3	-8e-06	-5.55779	4.68721	-2.36365
 108	1	1	-0.400145	-3.36346	5.26581	-1.68809
 109	1	6	0.053825	-4.46579	5.71607	-2.27689
 110	1	5	0.095789	-5.01455	3.76166	-2.59992
 111	1	5	0.095196	-5.91717	4.55024	-1.36353
 112	1	7	0.084202	-4.87378	6.59544	-1.75593
 113	1	7	0.07114	-4.30543	6.08453	-3.30722
 114	1	3	-8e-06	-2.35001	5.96146	-1.79776
 115	1	1	-0.400145	-0.0557527	6.15722	-1.21007
 116	1	6	0.053825	-1.17655	5.41683	-1.02235
 117	1	5	0.095789	-2.53097	6.9455	-1.37588
 118	1	5	0.095196	-2.05525	6.07643	-2.82195
 119	1	7	0.084202	-1.03931	4.3821	-1.30406
 120	1	7	0.07114	-1.5198	5.34163	0.0281662
 121	1	3	-8e-06	0.210803	7.09617	-0.465172
 122	1	1	-0.400145	2.16584	6.17627	0.334856
 123	1	6	0.053825	1.00186	6.68637	0.761721
 124	1	5	0.095789	-0.701453	7.62489	-0.173806
 125	1	5	0.095196	0.848426	7.76459	-1.04755
 126	1	7	0.084202	0.358464	5.9812	1.27902
 127	1	7	0.07114	1.02787	7.54116	1.44374
 128	1	3	-8e-06	2.95771	5.62576	1.13006
 129	1	1	-0.400145	5.32113	6.16977	1.2161
 130	1	6	0.053825	4.39119	5.40339	0.634929
 131	1	5	0.095789	2.58588	4.64561	1.46621
 132	1	5	0.095196	3.05111	6.2147	2.04559
 133	1	7	0.084202	4.2932	5.54266	-0.455764
 134	1	7	0.07114	4.59293	4.33177	0.718442
 135	1	3	-8e-06	6.33058	6.42075	0.567349
 136	1	1	-0.400145	8.64366	7.0346	0.471083
 137	1	6	0.053825	7.58499	6.83102	1.28195
 138	1	5	0.095789	6.11424	7.17779	-0.170015
 139	1	5	0.095196	6.67649	5.52234	-0.00148522
 140	1	7	0.084202	7.78046	5.97052	1.95069
 141	1	7	0.07114	7.3028	7.62493	2.00486
 142	1	3	-8e-06	8.9835	8.18194	0.126216
 143	1	1	-0.400145	11.113	9.11004	-0.368081
 144	1	6	0.053825	10.1585	8.29863	-0.85432
 145	1	5	0.095789	9.25691	8.7963	0.996603
 146	1	5	0.095196	8.17456	8.74005	-0.321585
 147	1	7	0.084202	9.77924	8.60205	-1.83502
 148	1	7	0.07114	10.5159	7.24601	-1.03288
 149	1	3	-8e-06	11.737	9.84085	-1.12434
 150	1	1	-0.400145	9.86763	11.2683	-1.7927
 151	1	6	0.053825	11.0146	10.7234	-2.18049
 152	1	5	0.095789	12.4416	9.25642	-1.69353
 153	1	5	0.095196	12.3169	10.5245	-0.50325
 154	1	7	0.084202	10.9521	10.1298	-3.09559
 155	1	7	0.07114	11.772	11.5074	-2.38053
 156	1	3	-8e-06	9.35029	12.0884	-2.54435
 157	1	1	-0.400145	7.40948	12.873	-3.42184
 158	1	6	0.053825	7.84127	12.2355	-2.34781
 159	1	5	0.095789	9.48532	11.7286	-3.61148
 160	1	5	0.095196	9.8403	13.0688	-2.44613
 161	1	7	0.084202	7.65486	12.6701	-1.36864
 162	1	7	0.07114	7.44069	11.1872	-2.21675
 163	1	3	-8e-06	7.164	14.0774	-3.34017
 164	1	1	-0.400145	6.4967	16.0482	-4.18167
 165	1	6	0.053825	6.52206	14.7439	-4.50551
 166	1	5	0.095789	8.07701	14.6839	-3.22251
 167	1	5	0.095196	6.55804	14.2548	-2.45895
 168	1	7	0.084202	5.56192	14.3234	-4.65556
 169	1	7	0.07114	7.1556	14.4823	-5.38308
 170	1	3	-8e-06	5.68574	16.768	-4.74169
 171	1	1	-0.400145	4.1942	18.3824	-3.86255
 172	1	6	0.053825	4.56913	17.1467	-3.74653
 173	1	5	0.095789	5.17211	16.3664	-5.62397
 174	1	5	0.095196	6.14856	17.6916	-5.07585
 175	1	7	0.084202	4.96648	16.9162	-2.7632
 176	1	7	0.07114	3.6807	16.5249	-3.90803
 177	1	3	-8e-06	3.94484	19.0399	-2.86973
 178	1	1	-0.400145	2.61264	20.7128	-2.09296
 179	1	6	0.053825	3.08002	20.2479	-3.14644
 180	1	5	0.095789	4.87976	19.2656	-2.38681
 181	1	5	0.095196	3.41432	18.5077	-2.10362
 182	1	7	0.084202	2.34841	19.9528	-3.90062
 183	1	7	0.07114	3.66064	20.9798	-3.68935
 184	1	3	-8e-06	2.32727	21.8876	-1.94988
 185	1	1	-0.400145	0.869418	23.3515	-1.07142
 186	1	6	0.053825	1.07869	22.1017	-1.13457
 187	1	5	0.095789	2.2165	22.3553	-2.94489
 188	1	5	0.095196	3.17893	22.4096	-1.42175
 189	1	7	0.084202	1.34528	21.5708	-0.208784
 190	1	7	0.07114	0.235724	21.5267	-1.56201
 191	1	3	-8e-06	-0.176701	23.7126	-0.477022
 192	1	1	-0.400145	-1.64877	25.4144	0.0523664
 193	1	6	0.053825	-0.359545	25.2272	-0.268899
 194	1	5	0.095789	-0.15107	23.3258	0.522039
 195	1	5	0.095196	-1.09092	23.39	-0.985308
 196	1	7	0.084202	0.00075204	25.7711	-1.16345
 197	1	7	0.07114	0.33921	25.6239	0.463501
 198	1	3	-8e-06	-2.35704	26.2295	-0.526176
 199	1	1	-0.400145	-3.13866	28.3569	-0.931451
 200	1	6	0.053825	-2.30059	27.6721	-0.175393
 201	1	5	0.095789	-3.38053	25.8566	-0.427094
 202	1	5	0.095196	-2.17761	26.1886	-1.60145
 203	1	7	0.084202	-1.29034	28.0334	-0.3306
 204	1	7	0.07114	-2.48356	27.8147	0.939668
 205	1	3	-8e-06	-4.33364	28.4971	-0.690066
 206	1	1	-0.400145	-6.52722	28.4664	-1.22595
 207	1	6	0.053825	-5.33867	28.439	-1.80204
 208	1	5	0.095789	-4.53435	29.4336	-0.16267
 209	1	5	0.095196	-4.75086	27.772	0.0715748
 210	1	7	0.084202	-5.1643	27.4422	-2.36292
 211	1	7	0.07114	-5.01788	29.278	-2.35951
 212	1	3	-8e-06	-7.46342	28.784	-1.99564
 213	1	1	-0.400145	-9.67637	28.8239	-2.4999
 214	1	6	0.053825	-8.82312	28.3605	-1.52465
 215	1	5	0.095789	-7.24857	28.4811	-3.05335
 216	1	5	0.095196	-7.51493	29.8193	-2.27567
 217	1	7	0.084202	-9.02761	28.762	-0.514861
 218	1	7	0.07114	-8.73465	27.2211	-1.42031
 219	1	3	-8e-06	-10.069	28.0131	-3.37301
 220	1	1	-0.400145	-12.3587	28.1836	-4.10175
 221	1	6	0.053825	-11.5949	27.5282	-3.17288
 222	1	5	0.095789	-9.53229	27.0126	-3.51377
 223	1	5	0.095196	-10.0216	28.4519	-4.39677
 224	1	7	0.084202	-11.9666	27.9145	-2.17067
 225	1	7	0.07114	-11.6558	26.4461	-3.09749
 226	1	3	-8e-06	-13.5834	28.1376	-4.02666
 227	1	1	-0.400145	-15.3207	28.5003	-2.46299
 228	1	6	0.053825	-14.1544	29.0121	-2.94846
 229	1	5	0.095789	-13.8917	27.081	-3.85363
 230	1	5	0.095196	-14.0198	28.3577	-4.96916
 231	1	7	0.084202	-14.2695	30.0093	-3.46888
 232	1	7	0.07114	-13.284	29.2407	-2.23541
 233	1	3	-8e-06	-16.2238	29.2277	-1.92239
 234	1	1	-0.400145	-17.1301	29.717	0.260063
 235	1	6	0.053825	-17.0179	28.7348	-0.705552
 236	1	5	0.095789	-16.9107	29.4296	-2.75296
 237	1	5	0.095196	-15.9987	30.2685	-1.81627
 238	1	7	0.084202	-16.5529	27.7959	-0.37291
 239	1	7	0.07114	-17.9879	28.3429	-1.05909
 240	1	3	-8e-06	-16.9232	29.4602	1.46872
 241	1	1	-0.400145	-17.4958	29.9991	3.64797
 242	1	6	0.053825	-17.2526	30.5019	2.49142
 243	1	5	0.095789	-15.9194	29.283	1.72777
 244	1	5	0.095196	-17.5926	28.6844	1.82316
 245	1	7	0.084202	-18.0018	31.1513	2.11728
 246	1	7	0.07114	-16.4068	31.2104	2.59809
 247	1	3	-8e-06	-16.6255	29.6784	4.42473
 248	1	1	-0.400145	-17.8281	30.2598	6.39432
 249	1	6	0.053825	-16.6915	30.3836	5.66644
 250	1	5	0.095789	-15.6333	29.7442	4.06008
 251	1	5	0.095196	-16.8313	28.6117	4.71583
 252	1	7	0.084202	-16.6664	31.4134	5.19805
 253	1	7	0.07114	-15.892	30.4267	6.28187
 254	1	3	-8e-06	-18.6508	31.1323	6.35018
 255	1	1	-0.400145	-18.64	33.3857	6.89705
 256	1	6	0.053825	-18.5013	32.2284	7.36783
 257	1	5	0.095789	-19.6294	30.7005	6.47131
 258	1	5	0.095196	-18.6877	31.5607	5.39457
 259	1	7	0.084202	-17.5298	32.0277	7.90545
 260	1	7	0.07114	-19.2931	32.1554	8.22704
 261	1	3	-8e-06	-17.5565	34.0099	6.78788
 262	1	1	-0.400145	-16.74	36.0363	6.15882
 263	1	6	0.053825	-17.7097	35.2454	5.88119
 264	1	5	0.095789	-16.7864	33.3787	6.33526
 265	1	5	0.095196	-17.0225	34.3178	7.70442
 266	1	7	0.084202	-18.6864	35.521	5.99202
 267	1	7	0.07114	-17.4711	34.862	4.94408
 268	1	3	-8e-06	-16.8183	37.1896	5.61649
 269	1	1	-0.400145	-14.6442	37.0973	4.6262
 270	1	6	0.053825	-15.9348	37.289	4.36288
 271	1	5	0.095789	-16.4438	37.9571	6.27453
 272	1	5	0.095196	-17.8739	37.513	5.30725
 273	1	7	0.084202	-16.2197	38.1219	3.81793
 274	1	7	0.07114	-16.2377	36.6985	3.45383
 275	1	3	-0.232441	-11.8336	38.1997	5.69321
 276	1	8	0.444336	-13.902	38.0092	4.63104
 277	1	3	-0.096823	-13.1973	38.3481	5.70673
 278	1	1	-0.491911	-13.8429	38.6563	3.64999
 279	1	5	0.148316	-11.1454	38.3948	6.58756
 280	1	5	0.163898	-11.3972	37.9417	4.81247
 281	1	5	0.064625	-13.7642	38.6911	6.58147

Velocities

   1	-0.00466192	-0.000598005	-0.00123726
   2	-0.00469754	-0.00458912	-0.00130738
   3	-0.00223319	-0.000852342	-0.00251605
   4	-0.0035289	-0.000209869	0.00212526
   5	-0.00598742	-0.00854143	0.00454111
   6	0.00168353	-0.0110699	-0.00226516
   7	-0.0087916	0.0197797	0.00470519
   8	-0.00411676	-0.0207009	-0.00570081
   9	-0.00395171	0.000448726	-0.00120311
  10	-0.00666816	0.00182076	-0.00149224
  11	-0.00299326	0.00296628	-0.00103486
  12	-0.0122278	-0.00361338	-0.0061767
  13	-0.00088165	-0.00372805	0.00384862
  14	-0.00430602	-0.00173697	-0.00997477
  15	-0.0028829	0.00603777	-0.00865176
  16	-0.00342713	0.00215525	-0.00196975
  17	-0.00362152	0.00456468	0.00237571
  18	0.0018308	0.00147473	0.000621043
  19	0.00993524	0.000697069	-0.000175815
  20	-0.00711112	0.00109094	-0.0173147
  21	0.00464154	-0.00224664	-0.000413361
  22	-0.000305883	-0.00339517	0.00306069
  23	0.00032592	0.00764391	-0.00167365
  24	-0.00409171	0.00286719	-0.00272543
  25	-0.000203311	0.0072975	0.000918708
  26	0.00218391	0.00252205	0.00741604
  27	0.000903118	0.00727218	-0.00615867
  28	0.00995461	0.0185785	-0.0134484
  29	-0.00578669	0.0189324	0.0157725
  30	-0.00180587	0.00672588	-5.97981e-05
  31	-7.04153e-05	0.00345387	-0.00263798
  32	-0.00390334	0.00155932	0.00287156
  33	0.000845871	0.000194636	-0.00661177
  34	-0.00893735	0.00593629	0.000693715
  35	0.000896389	-0.00355015	0.00494102
  36	-0.0117878	-0.00477989	-0.000352542
  37	-0.000787204	-0.001272	0.00420256
  38	-0.00117889	0.00255519	-0.00465741
  39	-0.000738162	0.00274569	-0.000518063
  40	0.00363036	-0.00186705	0.0069146
  41	-0.00348796	-0.00540243	0.0113994
  42	-0.00685015	0.00308207	-0.00899976
  43	-0.00348498	0.00761962	0.00390109
  44	-0.00211599	0.000702435	-0.00592757
  45	-0.00322857	0.0010178	-0.00459883
  46	-0.00358346	-0.000167639	-0.00139549
  47	-0.00649347	-0.000220681	-0.007588
  48	-0.00188466	0.0117216	-0.0130513
  49	-0.00721546	-0.00551277	0.00230935
  50	0.00504105	0.00814315	-0.00426629
  51	-0.00014883	0.00959422	-0.00579281
  52	-0.00578404	0.00978886	0.00161994
  53	-0.00294872	0.009414	-0.00122493
  54	0.00838412	-0.00692591	-0.00895611
  55	0.00568722	0.0171109	-0.0167651
  56	-0.00809802	0.00385452	-0.00340069
  57	0.00494983	0.00373623	-0.00718205
  58	0.00409685	0.00076634	-0.00595394
  59	-0.00230196	0.00271351	-0.000455413
  60	0.00805368	0.00654092	0.00135373
  61	-0.00427203	-0.0157793	-0.00219208
  62	-0.00625846	0.0016342	0.000811331
  63	0.00713556	0.0165212	0.00621985
  64	-0.00100598	0.00677611	-0.0143072
  65	-0.00890052	0.00969923	-0.000122995
  66	0.000559029	0.00590774	-0.00307615
  67	-0.0070007	0.00383687	-0.00225531
  68	-0.00700105	0.00667212	0.0156755
  69	-0.023513	0.00613308	0.0109936
  70	0.00208006	0.0150021	-0.0106335
  71	-0.00236696	0.00630315	-0.0054868
  72	-0.00357564	0.0045783	-0.000774431
  73	-0.00569498	0.0046578	-0.0042713
  74	-0.00620038	0.00647813	0.0031468
  75	-0.00470443	-0.00602757	-0.00307153
  76	0.00433747	0.00732888	-0.00829747
  77	-0.00529329	0.00452866	0.00942715
  78	-0.0120111	0.000168406	-0.000485517
  79	-0.00395871	0.0135773	-0.00492081
  80	-0.00565678	0.00499928	0.00922656
  81	-0.00588725	0.0044345	0.00428342
  82	-0.000686638	0.0094196	-0.000218118
  83	-0.013749	0.00528667	0.0079376
  84	-0.000933381	-0.00334534	0.0147237
  85	0.0151554	0.00352837	-0.0118912
  86	-0.00046916	0.00418553	0.00207096
  87	-0.00495204	0.00336433	0.00196811
  88	0.00311278	0.01241	0.00393746
  89	0.0100395	0.000691176	-0.00161381
  90	-0.00693575	-0.0112922	0.0014403
  91	-0.0010299	0.0178232	0.0036141
  92	0.00881984	0.00182408	0.000790703
  93	-0.00133703	0.00436729	-0.00364194
  94	-0.00176877	0.00763879	-0.00588176
  95	0.00151917	0.00968853	-0.00451001
  96	0.00257418	-0.000136688	0.00261086
  97	0.00822825	0.00906749	0.00709458
  98	-0.00252997	0.00564039	-0.0126634
  99	-0.00678189	0.0019422	-0.000295042
 100	-0.00591755	0.00734758	-0.00343193
 101	-0.002403	0.00503827	-0.000897941
 102	0.00114056	0.00990172	-0.00875755
 103	-0.0119941	-0.00476161	-0.00902632
 104	-0.00857102	0.0144503	0.00401188
 105	0.00841607	0.0142685	-0.00831811
 106	0.0048751	-0.00688906	-0.00500195
 107	-0.00161237	0.00700786	0.00547714
 108	0.00062279	0.000553733	0.00504402
 109	0.00184602	0.00243992	0.00416845
 110	-0.013675	0.00104797	-0.00207596
 111	-0.014835	-0.00659204	0.00248242
 112	0.00759058	0.0125113	0.0024897
 113	-0.00206858	-0.0044507	0.00355633
 114	-0.00144237	0.00169601	0.0017687
 115	0.00344804	0.000597379	-0.001956
 116	0.00694077	-2.03146e-06	-3.34682e-05
 117	0.00728541	-0.0015584	0.00511779
 118	-0.0042958	-0.00393903	-0.00535279
 119	0.00519836	-0.000794981	-0.00127066
 120	0.00396431	-0.00957158	0.00788524
 121	7.47642e-05	0.00358641	-0.00315225
 122	-0.000506968	0.0132007	0.00551997
 123	-0.00184214	0.00616448	0.0017063
 124	0.00386312	0.00276698	-0.0187557
 125	0.0122833	0.00157393	-0.00219772
 126	0.00749254	-0.00120923	0.00123625
 127	-0.0167464	-0.0137005	0.00963114
 128	-0.000733177	0.00481539	-0.000903661
 129	0.00709664	0.00430887	-0.00301808
 130	0.00788415	0.0101923	0.00064582
 131	-0.00908153	0.000161219	-0.0162659
 132	-0.00252703	0.00464789	0.00428303
 133	0.0174359	0.0156387	0.000159574
 134	0.012427	0.0068229	-0.0189335
 135	0.000709978	0.0080467	-0.00190457
 136	0.000319089	0.00177404	-0.00728853
 137	0.00236988	0.00531678	-0.00218016
 138	0.00147819	0.00917498	-0.00442867
 139	0.00804134	-0.00100641	-0.00368226
 140	-0.0133579	0.0078744	-0.000171887
 141	-0.00603728	0.015183	0.0114465
 142	0.00881339	0.00260648	-0.00483684
 143	0.00269183	0.00570801	-0.00206028
 144	0.0106865	0.00118608	-0.006851
 145	0.00812552	-0.00714375	-0.0125992
 146	0.0173231	-0.00249505	0.000765052
 147	0.00302947	0.0075581	-0.0142555
 148	8.81133e-05	0.000549493	0.000898628
 149	-0.00259226	0.00737311	-0.00119685
 150	-0.00388768	0.00562554	-0.00793465
 151	-0.00872984	0.00439545	-0.0021824
 152	-0.000330021	0.0112365	0.00766758
 153	-0.00154266	0.00617065	-0.00427231
 154	-0.00693922	-0.0061825	0.00689596
 155	-0.0108444	0.0148281	-0.00615965
 156	-0.00254623	0.00309161	-0.00378945
 157	-0.00162977	-0.00317899	-0.00154644
 158	0.000925149	-0.00108961	0.00265771
 159	-0.00428981	0.0193846	0.0123311
 160	-0.00930894	0.00407042	0.00092513
 161	0.0019513	0.00837991	-0.00549131
 162	0.00918044	0.00559338	0.00809151
 163	-0.00198937	-0.00211889	0.000436915
 164	0.0011192	0.00411644	-0.003569
 165	-0.0139063	-0.00233946	0.00375706
 166	0.0187815	-0.00236487	-0.0141923
 167	0.00965702	-0.0104344	0.00162892
 168	-0.0294671	0.00658272	-0.0205334
 169	-0.0101169	-0.0179173	-0.00341008
 170	-0.00436784	-0.000967925	-0.00599918
 171	-0.0055051	-0.00528746	-0.00293594
 172	-0.00204125	0.00531185	0.000427288
 173	0.00325461	0.0139868	-0.00510733
 174	-0.00217252	0.00599345	0.0152983
 175	-0.00195992	0.00421635	0.0110095
 176	-0.00655206	-0.00169821	-0.00196446
 177	0.00515423	0.00216299	0.00406145
 178	-0.00512363	0.00383698	0.00785147
 179	-0.00496938	-0.000579294	0.00607625
 180	-0.0182744	-0.00292522	0.00665546
 181	0.00915753	-0.00255173	0.000459834
 182	0.00552581	0.0224932	0.0135955
 183	0.00752403	0.0128743	0.0229075
 184	0.00130568	0.0104877	-0.00205432
 185	0.000890066	0.00758061	0.00479559
 186	0.0120119	-0.00210961	0.0104621
 187	0.0155662	0.0109368	-0.0114468
 188	0.00273374	0.0253959	-0.0114301
 189	0.0215238	-0.00424123	0.0207211
 190	-0.00765834	0.00242952	0.00433524
 191	0.00457746	0.00484488	-0.00800035
 192	0.000279406	0.00657642	0.00789756
 193	0.00101089	0.00606427	0.000182329
 194	0.00520613	0.0227193	0.018939
 195	-0.00330156	-0.00906242	0.0122042
 196	0.0232847	-0.0164106	-0.00816971
 197	0.00156136	-0.00531702	-0.0145833
 198	0.000696345	0.00944085	-0.00396525
 199	0.00321449	0.00611454	0.0033462
 200	0.00600029	0.0056438	-0.000634671
 201	-0.0184324	0.0211072	0.0160543
 202	-0.0118091	0.0187782	0.00121684
 203	0.01755	0.00990538	0.00218681
 204	-0.00104656	-0.00923137	-0.00608952
 205	-0.00162304	-0.00121587	0.00914482
 206	0.00353865	0.00346342	-0.00826594
 207	0.000529634	0.00671144	0.010755
 208	0.0103537	-0.00505194	0.00868381
 209	-0.00455883	0.0286041	-0.00758767
 210	0.0232596	0.0159196	0.00768207
 211	-0.00220972	0.0245088	0.00481897
 212	-0.00748827	0.00166878	-0.0150774
 213	0.00594815	-0.0018827	0.00282246
 214	-0.00364682	-0.000503725	0.00174946
 215	0.00592824	-0.00212545	0.000109168
 216	-0.0128508	0.00833634	-0.0318891
 217	-0.0235761	-0.00585911	0.0011527
 218	-0.0205062	-0.00747961	0.00237653
 219	-0.00272235	-0.00043657	-0.0174553
 220	0.00221426	-0.00689617	0.00284203
 221	0.0146773	-0.00377137	-0.0010645
 222	0.0143835	-0.000892983	-0.0234786
 223	0.00406738	-0.0186194	0.0159871
 224	0.0104126	0.0210155	0.0144114
 225	0.0371181	-0.0456071	0.0119841
 226	-0.008821	-0.00620369	-0.0015303
 227	-0.00260412	-0.00451563	0.00421386
 228	0.00150353	0.00136312	0.00545523
 229	-0.00190537	0.0101414	0.0136346
 230	-0.0143513	0.0230816	-0.00952408
 231	-0.0252148	0.00236836	0.00126157
 232	-0.00630397	-0.033256	0.00421327
 233	0.00228202	-0.00470136	0.00898091
 234	-0.00264546	0.00394904	0.00585757
 235	-0.00257306	-0.0119564	0.00488495
 236	-0.00381616	-0.00695081	-0.0265834
 237	-0.00497967	0.00401125	-0.000252093
 238	0.0198226	0.0264958	0.0158566
 239	-0.0366786	-0.00172309	0.00280643
 240	-0.00371807	0.00181218	-0.00414593
 241	0.00817727	-0.002216	-0.00133044
 242	-0.00215044	-0.00100552	-0.0099788
 243	-0.0103706	-0.0362125	0.00307632
 244	0.00657455	0.00639211	-0.00113137
 245	-0.00180661	0.0258164	0.00393473
 246	-0.00292093	0.0470929	-0.0220737
 247	0.000453747	0.00744536	0.00667213
 248	-0.00258224	-0.00362062	0.00599439
 249	-0.010732	0.00167532	0.000127069
 250	0.00261747	0.0147777	0.0325836
 251	0.0272734	0.00473534	0.000214984
 252	-0.00124664	0.00894509	-0.0181455
 253	0.0488857	0.0127807	0.0068671
 254	0.00391744	0.000614585	0.00304937
 255	-0.0074542	0.00428631	-0.00610098
 256	0.00867876	0.00254264	-0.0109301
 257	-0.0340672	0.0217054	0.00203447
 258	0.0126075	0.0224257	-0.00307263
 259	0.041162	-0.0203446	-0.0286415
 260	0.00828766	0.0554513	0.00803964
 261	0.00107297	0.00731618	-0.00711018
 262	-0.006002	0.00621791	0.00404434
 263	-0.00554704	-0.00187556	0.000800644
 264	0.0197991	-0.0198146	-0.0285255
 265	0.0259404	-0.012161	0.00208358
 266	0.0161411	-0.0154934	0.0225781
 267	-0.00839007	0.015618	0.000206471
 268	-0.0037309	0.0146127	0.00690779
 269	0.00175727	0.00454072	0.00403646
 270	0.00580584	0.00938022	-0.00159784
 271	-0.00651665	0.00610128	0.00494527
 272	0.0320775	-0.0269758	0.00321995
 273	-0.0159791	-0.00834458	-0.0208199
 274	-0.0175546	0.0323205	0.00199848
 275	0.0146414	-0.00459345	0.00223782
 276	0.00786486	-0.0015178	-0.00945149
 277	-0.00762574	0.00227983	-0.0111585
 278	0.00427659	0.00182121	-0.000323038
 279	-0.0192784	-0.00351239	-0.0206557
 280	-0.00568054	0.0230469	0.00668307
 281	0.0133994	0.028422	0.00860319

Bonds

   1	5	1	3
   2	5	2	3
   3	4	3	5
   4	2	4	5
   5	1	4	6
   6	1	4	7
   7	3	5	8
   8	7	9	11
   9	1	9	12
  10	1	9	13
  11	6	10	11
  12	8	11	14
  13	8	11	15
  14	9	1	9
  15	7	16	18
  16	1	16	19
  17	1	16	20
  18	6	17	18
  19	8	18	21
  20	8	18	22
  21	9	10	16
  22	7	23	25
  23	1	23	26
  24	1	23	27
  25	6	24	25
  26	8	25	28
  27	8	25	29
  28	9	17	23
  29	7	30	32
  30	1	30	33
  31	1	30	34
  32	6	31	32
  33	8	32	35
  34	8	32	36
  35	9	24	30
  36	7	37	39
  37	1	37	40
  38	1	37	41
  39	6	38	39
  40	8	39	42
  41	8	39	43
  42	9	31	37
  43	7	44	46
  44	1	44	47
  45	1	44	48
  46	6	45	46
  47	8	46	49
  48	8	46	50
  49	9	38	44
  50	7	51	53
  51	1	51	54
  52	1	51	55
  53	6	52	53
  54	8	53	56
  55	8	53	57
  56	9	45	51
  57	7	58	60
  58	1	58	61
  59	1	58	62
  60	6	59	60
  61	8	60	63
  62	8	60	64
  63	9	52	58
  64	7	65	67
  65	1	65	68
  66	1	65	69
  67	6	66	67
  68	8	67	70
  69	8	67	71
  70	9	59	65
  71	7	72	74
  72	1	72	75
  73	1	72	76
  74	6	73	74
  75	8	74	77
  76	8	74	78
  77	9	66	72
  78	7	79	81
  79	1	79	82
  80	1	79	83
  81	6	80	81
  82	8	81	84
  83	8	81	85
  84	9	73	79
  85	7	86	88
  86	1	86	89
  87	1	86	90
  88	6	87	88
  89	8	88	91
  90	8	88	92
  91	9	80	86
  92	7	93	95
  93	1	93	96
  94	1	93	97
  95	6	94	95
  96	8	95	98
  97	8	95	99
  98	9	87	93
  99	7	100	102
 100	1	100	103
 101	1	100	104
 102	6	101	102
 103	8	102	105
 104	8	102	106
 105	9	94	100
 106	7	107	109
 107	1	107	110
 108	1	107	111
 109	6	108	109
 110	8	109	112
 111	8	109	113
 112	9	101	107
 113	7	114	116
 114	1	114	117
 115	1	114	118
 116	6	115	116
 117	8	116	119
 118	8	116	120
 119	9	108	114
 120	7	121	123
 121	1	121	124
 122	1	121	125
 123	6	122	123
 124	8	123	126
 125	8	123	127
 126	9	115	121
 127	7	128	130
 128	1	128	131
 129	1	128	132
 130	6	129	130
 131	8	130	133
 132	8	130	134
 133	9	122	128
 134	7	135	137
 135	1	135	138
 136	1	135	139
 137	6	136	137
 138	8	137	140
 139	8	137	141
 140	9	129	135
 141	7	142	144
 142	1	142	145
 143	1	142	146
 144	6	143	144
 145	8	144	147
 146	8	144	148
 147	9	136	142
 148	7	149	151
 149	1	149	152
 150	1	149	153
 151	6	150	151
 152	8	151	154
 153	8	151	155
 154	9	143	149
 155	7	156	158
 156	1	156	159
 157	1	156	160
 158	6	157	158
 159	8	158	161
 160	8	158	162
 161	9	150	156
 162	7	163	165
 163	1	163	166
 164	1	163	167
 165	6	164	165
 166	8	165	168
 167	8	165	169
 168	9	157	163
 169	7	170	172
 170	1	170	173
 171	1	170	174
 172	6	171	172
 173	8	172	175
 174	8	172	176
 175	9	164	170
 176	7	177	179
 177	1	177	180
 178	1	177	181
 179	6	178	179
 180	8	179	182
 181	8	179	183
 182	9	171	177
 183	7	184	186
 184	1	184	187
 185	1	184	188
 186	6	185	186
 187	8	186	189
 188	8	186	190
 189	9	178	184
 190	7	191	193
 191	1	191	194
 192	1	191	195
 193	6	192	193
 194	8	193	196
 195	8	193	197
 196	9	185	191
 197	7	198	200
 198	1	198	201
 199	1	198	202
 200	6	199	200
 201	8	200	203
 202	8	200	204
 203	9	192	198
 204	7	205	207
 205	1	205	208
 206	1	205	209
 207	6	206	207
 208	8	207	210
 209	8	207	211
 210	9	199	205
 211	7	212	214
 212	1	212	215
 213	1	212	216
 214	6	213	214
 215	8	214	217
 216	8	214	218
 217	9	206	212
 218	7	219	221
 219	1	219	222
 220	1	219	223
 221	6	220	221
 222	8	221	224
 223	8	221	225
 224	9	213	219
 225	7	226	228
 226	1	226	229
 227	1	226	230
 228	6	227	228
 229	8	228	231
 230	8	228	232
 231	9	220	226
 232	7	233	235
 233	1	233	236
 234	1	233	237
 235	6	234	235
 236	8	235	238
 237	8	235	239
 238	9	227	233
 239	7	240	242
 240	1	240	243
 241	1	240	244
 242	6	241	242
 243	8	242	245
 244	8	242	246
 245	9	234	240
 246	7	247	249
 247	1	247	250
 248	1	247	251
 249	6	248	249
 250	8	249	252
 251	8	249	253
 252	9	241	247
 253	7	254	256
 254	1	254	257
 255	1	254	258
 256	6	255	256
 257	8	256	259
 258	8	256	260
 259	9	248	254
 260	7	261	263
 261	1	261	264
 262	1	261	265
 263	6	262	263
 264	8	263	266
 265	8	263	267
 266	9	255	261
 267	7	268	270
 268	1	268	271
 269	1	268	272
 270	6	269	270
 271	8	270	273
 272	8	270	274
 273	9	262	268
 274	12	275	277
 275	1	275	279
 276	1	275	280
 277	10	276	277
 278	11	276	278
 279	1	277	281
 280	11	269	276

Angles

   1	7	1	3	2
   2	6	1	3	5
   3	6	2	3	5
   4	2	5	4	6
   5	2	5	4	7
   6	1	6	4	7
   7	5	3	5	4
   8	4	3	5	8
   9	3	4	5	8
  10	10	11	9	12
  11	10	11	9	13
  12	1	12	9	13
  13	9	9	11	10
  14	8	9	11	14
  15	8	9	11	15
  16	12	10	11	14
  17	12	10	11	15
  18	11	14	11	15
  19	13	3	1	9
  20	14	1	9	11
  21	15	1	9	12
  22	15	1	9	13
  23	10	18	16	19
  24	10	18	16	20
  25	1	19	16	20
  26	9	16	18	17
  27	8	16	18	21
  28	8	16	18	22
  29	12	17	18	21
  30	12	17	18	22
  31	11	21	18	22
  32	16	11	10	16
  33	14	10	16	18
  34	15	10	16	19
  35	15	10	16	20
  36	10	25	23	26
  37	10	25	23	27
  38	1	26	23	27
  39	9	23	25	24
  40	8	23	25	28
  41	8	23	25	29
  42	12	24	25	28
  43	12	24	25	29
  44	11	28	25	29
  45	16	18	17	23
  46	14	17	23	25
  47	15	17	23	26
  48	15	17	23	27
  49	10	32	30	33
  50	10	32	30	34
  51	1	33	30	34
  52	9	30	32	31
  53	8	30	32	35
  54	8	30	32	36
  55	12	31	32	35
  56	12	31	32	36
  57	11	35	32	36
  58	16	25	24	30
  59	14	24	30	32
  60	15	24	30	33
  61	15	24	30	34
  62	10	39	37	40
  63	10	39	37	41
  64	1	40	37	41
  65	9	37	39	38
  66	8	37	39	42
  67	8	37	39	43
  68	12	38	39	42
  69	12	38	39	43
  70	11	42	39	43
  71	16	32	31	37
  72	14	31	37	39