pySIMM System Object

302 atoms
301 bonds
552 angles
385 dihedrals
1 impropers

8 atom types
12 bond types
22 angle types
5 dihedral types
1 improper types

-85.925784 85.925784 xlo xhi
-85.925784 85.925784 ylo yhi
-85.925784 85.925784 zlo zhi

Masses

   1	16.0	# o
   2	12.01	# c
   3	12.01	# c2
   4	12.01	# ce
   5	1.008	# ha
   6	12.01	# c3
   7	1.008	# h1
   8	12.01	# c1

Pair Coeffs

   1	0.21	2.959921901149463	# o
   2	0.086	3.3996695084235347	# c
   3	0.086	3.3996695084235347	# c2
   4	0.086	3.3996695084235347	# ce
   5	0.015	2.59964245953351	# ha
   6	0.1094	3.3996695084235347	# c3
   7	0.0157	2.471353044121301	# h1
   8	0.21	3.3996695084235347	# c1

Bond Coeffs

   1	343.1	1.0879	# c2,ha
   2	547.3	1.3461	# c2,ce
   3	342.5	1.0883	# ce,ha
   4	354.5	1.4825	# c,ce
   5	637.7	1.2183	# c,o
   6	449.9	1.3165	# c3,o
   7	326.8	1.5095	# c2,c3
   8	330.6	1.0969	# c3,h1
   9	622.9	1.2247	# c2,o
  10	625.0	1.307	# c1,c2
  11	758.1	1.1724	# c1,o
  12	569.4	1.3343	# c2,c2

Angle Coeffs

   1	38.11	116.9	# ha,c2,ha
   2	49.51	120.45	# ce,c2,ha
   3	49.61	119.94	# c2,ce,ha
   4	46.52	116.46	# c,ce,ha
   5	65.45	120.42	# c,ce,c2
   6	68.83	123.2	# ce,c,o
   7	77.94	130.25	# o,c,o
   8	47.07	109.96	# c2,c3,h1
   9	68.15	110.35	# c2,c3,o
  10	45.94	115.68	# c3,c2,ha
  11	39.24	108.46	# h1,c3,h1
  12	52.64	116.45	# h1,c3,o
  13	65.83	113.14	# c2,o,c
  14	67.92	122.82	# c3,c2,o
  15	55.28	117.23	# ha,c2,o
  16	65.83	113.14	# c2,o,c3
  17	62.94	179.5	# c2,c1,o
  18	70.06	121.62	# c1,c2,c2
  19	49.85	120.43	# c2,c2,ha
  20	50.62	120.42	# c1,c2,ha
  21	65.83	113.14	# c3,o,c1
  22	68.89	180.0	# o,c1,o

Dihedral Coeffs

   1	1	6.65	2	180	# X,c2,ce,X
   2	1	2.175	2	180	# X,c,ce,X
   3	1	0.0	2	0	# X,c2,c3,X
   4	1	6.65	2	180	# X,c2,c2,X
   5	1	0.0	2	180	# X,c1,c2,X

Improper Coeffs

   1	10.5	-1	2	# c,X,X,o

Atoms

   1	1	1	-0.104756	-14.3128	-7.96027	-11.3109
   2	1	1	-0.569213	-12.2204	-7.55581	-10.8916
   3	1	2	0.789146	-13.4159	-7.24312	-10.9311
   4	1	3	-0.154228	-13.1012	-5.00493	-9.66941
   5	1	4	-0.389642	-13.8489	-5.88117	-10.3715
   6	1	5	0.157325	-12.0938	-5.23033	-9.31016
   7	1	5	0.138289	-13.4619	-4.031	-9.34574
   8	1	5	0.133078	-14.8311	-5.53465	-10.6958
   9	1	3	-8e-06	-14.3709	-8.32542	-12.4762
  10	1	1	-0.400145	-13.3801	-7.35989	-14.4295
  11	1	6	0.053825	-14.3769	-7.26144	-13.5965
  12	1	5	0.095789	-15.2791	-8.93529	-12.6744
  13	1	5	0.095196	-13.5299	-8.9888	-12.6941
  14	1	7	0.084202	-14.4705	-6.28714	-13.0963
  15	1	7	0.07114	-15.3418	-7.32151	-14.1477
  16	1	3	-8e-06	-13.0081	-6.403	-15.0976
  17	1	1	-0.400145	-10.752	-6.45803	-15.5756
  18	1	6	0.053825	-11.6495	-5.80387	-14.785
  19	1	5	0.095789	-13.6978	-5.57876	-15.0518
  20	1	5	0.095196	-13.0674	-6.63415	-16.1545
  21	1	7	0.084202	-11.4945	-5.84549	-13.6791
  22	1	7	0.07114	-11.832	-4.78407	-15.1065
  23	1	3	-8e-06	-9.67789	-5.95505	-15.9021
  24	1	1	-0.400145	-7.89494	-4.68151	-14.9618
  25	1	6	0.053825	-8.54594	-5.83461	-14.8256
  26	1	5	0.095789	-9.81138	-5.01469	-16.3407
  27	1	5	0.095196	-9.30432	-6.64802	-16.6629
  28	1	7	0.084202	-7.93356	-6.71947	-14.796
  29	1	7	0.07114	-9.0862	-5.95228	-13.8836
  30	1	3	-8e-06	-6.84827	-4.5944	-15.6491
  31	1	1	-0.400145	-4.7561	-3.93478	-14.8989
  32	1	6	0.053825	-5.95179	-3.46015	-15.2248
  33	1	5	0.095789	-7.16376	-4.36372	-16.6867
  34	1	5	0.095196	-6.26574	-5.51346	-15.5611
  35	1	7	0.084202	-6.4411	-2.85795	-14.427
  36	1	7	0.07114	-5.94133	-2.73641	-16.0641
  37	1	3	-8e-06	-4.05556	-3.18793	-14.2406
  38	1	1	-0.400145	-1.73645	-2.71229	-13.8981
  39	1	6	0.053825	-2.65673	-3.6752	-14.0133
  40	1	5	0.095789	-4.47563	-3.02637	-13.2765
  41	1	5	0.095196	-3.97604	-2.15106	-14.6149
  42	1	7	0.084202	-2.40374	-4.4011	-14.8535
  43	1	7	0.07114	-2.72394	-4.31179	-13.1459
  44	1	3	-8e-06	-1.20818	-2.20939	-14.868
  45	1	1	-0.400145	0.117043	-2.67078	-16.6765
  46	1	6	0.053825	0.0738113	-2.83541	-15.3484
  47	1	5	0.095789	-1.04232	-1.15115	-14.6893
  48	1	5	0.095196	-1.8955	-2.19663	-15.7273
  49	1	7	0.084202	0.115681	-3.87297	-14.9982
  50	1	7	0.07114	0.907499	-2.32736	-14.8167
  51	1	3	-8e-06	1.18876	-2.4783	-17.217
  52	1	1	-0.400145	2.44115	-2.14639	-19.1581
  53	1	6	0.053825	1.22648	-2.56193	-18.7541
  54	1	5	0.095789	1.95765	-3.18179	-16.89
  55	1	5	0.095196	1.55088	-1.46524	-16.9801
  56	1	7	0.084202	0.384619	-1.98693	-19.1374
  57	1	7	0.07114	0.956541	-3.59736	-18.9821
  58	1	3	-8e-06	3.21742	-3.02526	-19.5153
  59	1	1	-0.400145	4.61787	-3.47347	-17.689
  60	1	6	0.053825	4.66118	-3.05129	-18.9547
  61	1	5	0.095789	3.32579	-3.03652	-20.6033
  62	1	5	0.095196	2.8768	-4.04354	-19.2359
  63	1	7	0.084202	5.06662	-2.04435	-19.0987
  64	1	7	0.07114	5.28283	-3.67306	-19.6182
  65	1	3	-8e-06	4.98017	-4.58536	-17.3833
  66	1	1	-0.400145	3.05072	-5.38826	-16.2829
  67	1	6	0.053825	4.32021	-5.09765	-16.1043
  68	1	5	0.095789	6.04354	-4.5414	-17.1153
  69	1	5	0.095196	4.82861	-5.35386	-18.1409
  70	1	7	0.084202	4.50573	-4.30493	-15.4011
  71	1	7	0.07114	4.9556	-5.88325	-15.7148
  72	1	3	-8e-06	2.45126	-5.97417	-15.3609
  73	1	1	-0.400145	0.839066	-7.50472	-16.2516
  74	1	6	0.053825	0.979898	-6.31449	-15.5987
  75	1	5	0.095789	2.45245	-5.33778	-14.4922
  76	1	5	0.095196	2.94128	-6.90752	-15.0894
  77	1	7	0.084202	0.538	-5.47146	-16.1557
  78	1	7	0.07114	0.463522	-6.30912	-14.6295
  79	1	3	-8e-06	1.25782	-7.63424	-17.4282
  80	1	1	-0.400145	-0.584479	-7.05474	-18.7174
  81	1	6	0.053825	0.718112	-6.77784	-18.5847
  82	1	5	0.095789	1.08464	-8.67208	-17.7164
  83	1	5	0.095196	2.32322	-7.49587	-17.4303
  84	1	7	0.084202	1.33656	-7.04711	-19.4441
  85	1	7	0.07114	0.938112	-5.72254	-18.354
  86	1	3	-8e-06	-1.41032	-6.32715	-19.2741
  87	1	1	-0.400145	-2.75569	-4.42194	-18.9296
  88	1	6	0.053825	-2.39906	-5.5865	-18.3998
  89	1	5	0.095789	-2.00113	-6.96885	-19.922
  90	1	5	0.095196	-0.946861	-5.6064	-19.9645
  91	1	7	0.084202	-1.89988	-5.55206	-17.4132
  92	1	7	0.07114	-3.22339	-6.2729	-18.238
  93	1	3	-8e-06	-3.48366	-3.70874	-18.1999
  94	1	1	-0.400145	-4.34165	-1.57186	-17.6713
  95	1	6	0.053825	-3.62746	-2.24126	-18.5718
  96	1	5	0.095789	-3.15596	-3.73259	-17.1479
  97	1	5	0.095196	-4.525	-4.07471	-18.1804
  98	1	7	0.084202	-4.05146	-2.15352	-19.5961
  99	1	7	0.07114	-2.6024	-1.9044	-18.6642
 100	1	3	-8e-06	-4.10567	-0.341353	-17.6189
 101	1	1	-0.400145	-4.42064	0.421732	-15.3871
 102	1	6	0.053825	-4.9109	0.430339	-16.5947
 103	1	5	0.095789	-4.3276	0.101421	-18.6102
 104	1	5	0.095196	-3.06276	-0.183837	-17.4078
 105	1	7	0.084202	-5.943	0.0706355	-16.5455
 106	1	7	0.07114	-5.0023	1.41656	-17.0364
 107	1	3	-8e-06	-4.64058	1.43266	-14.7106
 108	1	1	-0.400145	-5.48779	1.42284	-12.5289
 109	1	6	0.053825	-4.34393	1.33357	-13.2243
 110	1	5	0.095789	-5.71158	1.75384	-14.8026
 111	1	5	0.095196	-4.014	2.24226	-15.1007
 112	1	7	0.084202	-3.67839	2.1724	-13.0718
 113	1	7	0.07114	-3.73616	0.428457	-13.0148
 114	1	3	-8e-06	-6.20995	0.421895	-12.3813
 115	1	1	-0.400145	-6.40989	-1.70127	-11.4909
 116	1	6	0.053825	-5.97556	-0.491321	-11.1927
 117	1	5	0.095789	-6.21645	-0.199119	-13.2824
 118	1	5	0.095196	-7.23828	0.747304	-12.2218
 119	1	7	0.084202	-6.49642	-0.0389378	-10.3292
 120	1	7	0.07114	-4.89931	-0.445027	-10.9802
 121	1	3	-8e-06	-6.36788	-2.54232	-10.58
 122	1	1	-0.400145	-7.92223	-3.93763	-9.69258
 123	1	6	0.053825	-7.60808	-2.65628	-9.74604
 124	1	5	0.095789	-5.51	-2.40861	-9.88316
 125	1	5	0.095196	-6.24499	-3.49439	-11.0809
 126	1	7	0.084202	-8.34131	-1.96358	-10.2007
 127	1	7	0.07114	-7.37427	-2.24791	-8.75647
 128	1	3	-8e-06	-9.04283	-4.30964	-10.0932
 129	1	1	-0.400145	-10.213	-3.46027	-11.9885
 130	1	6	0.053825	-9.2915	-4.34633	-11.6088
 131	1	5	0.095789	-9.89681	-3.81468	-9.63108
 132	1	5	0.095196	-9.10727	-5.35512	-9.81558
 133	1	7	0.084202	-9.53672	-5.38635	-11.8657
 134	1	7	0.07114	-8.31992	-4.19813	-12.1106
 135	1	3	-8e-06	-9.91782	-2.63201	-12.8318
 136	1	1	-0.400145	-10.4411	-0.562019	-13.5384
 137	1	6	0.053825	-10.9592	-1.59648	-12.9511
 138	1	5	0.095789	-9.79715	-3.07893	-13.8095
 139	1	5	0.095196	-8.93792	-2.13598	-12.6058
 140	1	7	0.084202	-11.2932	-1.29459	-11.9325
 141	1	7	0.07114	-11.8981	-1.9932	-13.424
 142	1	3	-8e-06	-10.6343	-0.376992	-14.7434
 143	1	1	-0.400145	-9.62746	-0.622849	-16.9435
 144	1	6	0.053825	-9.38665	-0.465224	-15.6213
 145	1	5	0.095789	-10.9819	0.625886	-14.9367
 146	1	5	0.095196	-11.3649	-0.972025	-15.2462
 147	1	7	0.084202	-8.73901	-1.23482	-15.2123
 148	1	7	0.07114	-8.826	0.451397	-15.3473
 149	1	3	-8e-06	-8.77222	-0.239163	-17.7153
 150	1	1	-0.400145	-7.31621	-1.12967	-19.3138
 151	1	6	0.053825	-7.91681	-1.37641	-18.1593
 152	1	5	0.095789	-8.16009	0.581848	-17.3536
 153	1	5	0.095196	-9.30108	0.0936269	-18.5959
 154	1	7	0.084202	-8.53924	-2.28667	-18.1644
 155	1	7	0.07114	-7.23494	-1.55771	-17.3263
 156	1	3	-8e-06	-6.97713	-2.16754	-19.9353
 157	1	1	-0.400145	-8.20299	-4.10157	-20.3063
 158	1	6	0.053825	-8.04175	-2.8742	-20.7435
 159	1	5	0.095789	-6.55091	-2.90825	-19.2594
 160	1	5	0.095196	-6.19197	-1.89193	-20.6088
 161	1	7	0.084202	-8.94001	-2.23168	-20.6843
 162	1	7	0.07114	-7.71718	-2.85132	-21.7808
 163	1	3	-8e-06	-9.25942	-4.73875	-20.5455
 164	1	1	-0.400145	-10.0437	-6.9478	-20.9672
 165	1	6	0.053825	-9.40153	-6.18472	-20.0471
 166	1	5	0.095789	-9.32069	-4.81061	-21.6441
 167	1	5	0.095196	-10.1466	-4.18089	-20.207
 168	1	7	0.084202	-9.87008	-6.09324	-19.0446
 169	1	7	0.07114	-8.35242	-6.54435	-19.851
 170	1	3	-8e-06	-11.0982	-7.52703	-20.6512
 171	1	1	-0.400145	-11.4963	-8.99364	-18.7914
 172	1	6	0.053825	-10.9616	-8.93806	-19.9995
 173	1	5	0.095789	-11.766	-7.69309	-21.4731
 174	1	5	0.095196	-11.6611	-6.89797	-19.9196
 175	1	7	0.084202	-9.90071	-9.07701	-19.9352
 176	1	7	0.07114	-11.3417	-9.64979	-20.7055
 177	1	3	-8e-06	-12.5607	-9.61792	-18.6581
 178	1	1	-0.400145	-14.6309	-9.11931	-17.6076
 179	1	6	0.053825	-13.3267	-9.28713	-17.3336
 180	1	5	0.095789	-12.398	-10.6852	-18.5677
 181	1	5	0.095196	-13.1722	-9.53461	-19.5884
 182	1	7	0.084202	-12.8142	-8.49274	-16.8336
 183	1	7	0.07114	-13.197	-10.1441	-16.5932
 184	1	3	-8e-06	-15.0436	-7.98867	-17.806
 185	1	1	-0.400145	-16.2804	-6.83725	-19.2946
 186	1	6	0.053825	-16.2793	-8.00405	-18.6574
 187	1	5	0.095789	-14.3594	-7.37297	-18.3485
 188	1	5	0.095196	-15.3113	-7.46012	-16.86
 189	1	7	0.084202	-17.1506	-8.20873	-18.0393
 190	1	7	0.07114	-16.2013	-8.90363	-19.3143
 191	1	3	-8e-06	-17.3556	-6.33105	-19.7035
 192	1	1	-0.400145	-17.8309	-5.1502	-17.758
 193	1	6	0.053825	-17.8469	-5.03768	-19.1011
 194	1	5	0.095789	-18.2056	-7.01764	-19.65
 195	1	5	0.095196	-17.215	-6.18437	-20.7552
 196	1	7	0.084202	-18.8655	-4.92935	-19.4789
 197	1	7	0.07114	-17.288	-4.14456	-19.5235
 198	1	3	-8e-06	-17.1675	-4.3951	-17.0815
 199	1	1	-0.400145	-15.9117	-4.08695	-15.2008
 200	1	6	0.053825	-16.5025	-5.03477	-15.8918
 201	1	5	0.095789	-17.8234	-3.59605	-16.6669
 202	1	5	0.095196	-16.3508	-3.84686	-17.5899
 203	1	7	0.084202	-15.8089	-5.7019	-16.306
 204	1	7	0.07114	-17.2295	-5.64781	-15.3585
 205	1	3	-8e-06	-16.3908	-3.74075	-14.1146
 206	1	1	-0.400145	-16.0747	-2.97909	-11.9977
 207	1	6	0.053825	-15.6172	-2.79281	-13.2015
 208	1	5	0.095789	-16.5333	-4.6518	-13.4932
 209	1	5	0.095196	-17.3972	-3.26273	-14.2405
 210	1	7	0.084202	-15.7276	-1.79803	-13.6907
 211	1	7	0.07114	-14.5334	-2.98826	-13.2631
 212	1	3	-8e-06	-16.18	-2.03235	-11.2191
 213	1	1	-0.400145	-16.7911	-1.41518	-9.16316
 214	1	6	0.053825	-16.9598	-2.39609	-9.96847
 215	1	5	0.095789	-16.6523	-1.1078	-11.6956
 216	1	5	0.095196	-15.2118	-1.69967	-10.8134
 217	1	7	0.084202	-16.6048	-3.43325	-9.55796
 218	1	7	0.07114	-17.9262	-2.65272	-10.2925
 219	1	3	-8e-06	-17.7192	-0.628308	-8.9019
 220	1	1	-0.400145	-19.7369	-0.851388	-7.86747
 221	1	6	0.053825	-18.4358	-0.704831	-7.56085
 222	1	5	0.095789	-18.4675	-0.731884	-9.69455
 223	1	5	0.095196	-17.3281	0.363274	-8.97069
 224	1	7	0.084202	-18.0959	0.147782	-6.96994
 225	1	7	0.07114	-18.0442	-1.59447	-7.11221
 226	1	3	-8e-06	-20.5393	-0.594517	-6.97535
 227	1	1	-0.400145	-21.9775	-2.29034	-6.37653
 228	1	6	0.053825	-21.917	-1.14855	-7.12037
 229	1	5	0.095789	-20.6022	0.474288	-6.93884
 230	1	5	0.095196	-20.2315	-0.785542	-5.9267
 231	1	7	0.084202	-22.1676	-1.38229	-8.23064
 232	1	7	0.07114	-22.5424	-0.312649	-6.79493
 233	1	3	-8e-06	-21.65	-3.36073	-6.9227
 234	1	1	-0.400145	-19.5941	-4.50142	-6.73182
 235	1	6	0.053825	-20.563	-3.98897	-6.01496
 236	1	5	0.095789	-21.2555	-3.31981	-7.92934
 237	1	5	0.095196	-22.4343	-3.9922	-6.97071
 238	1	7	0.084202	-21.0946	-4.66874	-5.33639
 239	1	7	0.07114	-20.0087	-3.24679	-5.34788
 240	1	3	-8e-06	-19.1443	-5.59772	-6.50088
 241	1	1	-0.400145	-17.3949	-7.10404	-7.26023
 242	1	6	0.053825	-17.7741	-5.85347	-7.1151
 243	1	5	0.095789	-19.6992	-6.40289	-7.0143
 244	1	5	0.095196	-19.1828	-5.80655	-5.43968
 245	1	7	0.084202	-17.8513	-5.29845	-8.03758
 246	1	7	0.07114	-17.0326	-5.37835	-6.48923
 247	1	3	-8e-06	-16.2637	-7.32497	-7.61782
 248	1	1	-0.400145	-14.8508	-9.15506	-7.77822
 249	1	6	0.053825	-15.9871	-8.67114	-8.33542
 250	1	5	0.095789	-15.52	-7.19802	-6.78115
 251	1	5	0.095196	-15.9307	-6.70617	-8.37735
 252	1	7	0.084202	-15.9514	-8.43898	-9.35637
 253	1	7	0.07114	-16.7649	-9.43541	-8.41619
 254	1	3	-8e-06	-14.6105	-10.3139	-7.87955
 255	1	1	-0.400145	-12.7387	-11.6355	-7.19071
 256	1	6	0.053825	-13.0978	-10.5512	-7.82993
 257	1	5	0.095789	-14.8162	-10.5332	-8.93535
 258	1	5	0.095196	-15.157	-10.8949	-7.09583
 259	1	7	0.084202	-12.5364	-9.63272	-7.43313
 260	1	7	0.07114	-12.7418	-10.5894	-8.84765
 261	1	3	-8e-06	-11.6024	-11.6973	-6.74801
 262	1	1	-0.400145	-10.0315	-12.7932	-5.47999
 263	1	6	0.053825	-11.356	-12.7294	-5.71886
 264	1	5	0.095789	-11.207	-10.8702	-6.32339
 265	1	5	0.095196	-11.0296	-12.1882	-7.52065
 266	1	7	0.084202	-11.7573	-13.6763	-6.15146
 267	1	7	0.07114	-12.0806	-12.4876	-4.85398
 268	1	3	-8e-06	-9.45014	-13.8524	-5.22093
 269	1	1	-0.400145	-8.06667	-15.5349	-6.09739
 270	1	6	0.053825	-8.51854	-14.3603	-6.38433
 271	1	5	0.095789	-10.0093	-14.71	-5.04371
 272	1	5	0.095196	-8.77594	-13.619	-4.3624
 273	1	7	0.084202	-7.71099	-13.5897	-6.43613
 274	1	7	0.07114	-9.18915	-14.2917	-7.246
 275	1	3	-8e-06	-7.47855	-16.2426	-6.93611
 276	1	1	-0.400145	-5.51014	-17.5489	-6.60788
 277	1	6	0.053825	-5.94818	-16.304	-7.01005
 278	1	5	0.095789	-7.63673	-15.9131	-7.87222
 279	1	5	0.095196	-7.83086	-17.2922	-6.7288
 280	1	7	0.084202	-5.60533	-15.3939	-6.36272
 281	1	7	0.07114	-5.73038	-16.1064	-8.05527
 282	1	3	-8e-06	-4.5489	-17.5268	-5.8395
 283	1	1	-0.400145	-3.16919	-18.7952	-4.67693
 284	1	6	0.053825	-4.03992	-18.9699	-5.64409
 285	1	5	0.095789	-4.65142	-16.9619	-4.89159
 286	1	5	0.095196	-3.79475	-16.8361	-6.39635
 287	1	7	0.084202	-3.7119	-19.1605	-6.72414
 288	1	7	0.07114	-4.85508	-19.7181	-5.39615
 289	1	3	-8e-06	-3.38877	-19.3271	-3.53429
 290	1	1	-0.400145	-1.40887	-20.5144	-3.20542
 291	1	6	0.053825	-2.07501	-19.4776	-2.77732
 292	1	5	0.095789	-3.77245	-20.2516	-3.70975
 293	1	5	0.095196	-4.06006	-18.6915	-3.03698
 294	1	7	0.084202	-2.2861	-19.3962	-1.75874
 295	1	7	0.07114	-1.63409	-18.5085	-2.7781
 296	1	3	-0.232441	1.48626	-19.8866	-2.20507
 297	1	8	0.444336	-0.487508	-20.9801	-2.63968
 298	1	3	-0.096823	0.652323	-20.5818	-3.00236
 299	1	1	-0.491911	-0.690933	-21.6833	-1.71602
 300	1	5	0.148316	2.34718	-19.338	-2.59742
 301	1	5	0.163898	1.19536	-19.5057	-1.16227
 302	1	5	0.064625	0.902451	-20.8086	-3.98238

Velocities

   1	-0.00480583	-0.00447005	0.000729595
   2	-0.00720146	-0.0056624	0.00298156
   3	-0.00276357	0.000361142	-0.000583226
   4	-0.00365556	-0.00342115	0.0018706
   5	-0.00478855	-0.000128587	-0.00157215
   6	-0.0139998	-0.00985425	-0.00103191
   7	0.00843231	-0.00431469	-0.00905553
   8	0.00113212	0.00385392	-0.0207215
   9	-0.00622437	0.00905952	-0.00467859
  10	-0.00452371	-0.0016871	0.0036207
  11	0.00232428	0.00279585	0.000247547
  12	-0.0178652	0.0190101	0.0095704
  13	-0.0100386	-0.0243583	-0.00761685
  14	0.0134745	0.0031858	0.0133516
  15	-0.00695519	-0.0043056	0.000627749
  16	0.00263271	-0.000767969	-0.00174001
  17	-0.0048853	0.00162218	-0.00178404
  18	-0.00222415	0.00111644	-0.00581839
  19	-8.83929e-05	0.0101854	0.0071738
  20	-0.0155258	0.00765199	0.0147944
  21	-0.00668912	0.02192	0.00714704
  22	-0.00758963	-0.0010985	-0.0251958
  23	-0.00393523	-0.000678125	0.00120078
  24	-0.00472296	-0.00477075	-0.00274332
  25	-0.000957527	-0.00199415	-0.00084022
  26	-0.00171657	-0.00250434	-0.00277782
  27	-0.00905291	-0.0122278	-0.0102367
  28	-0.00557862	-0.0112032	-0.0120278
  29	0.00304908	0.0140498	0.0063112
  30	-0.00325511	-0.00330255	-0.00167185
  31	-0.00320672	-0.00738664	-0.0033286
  32	-0.000606603	-0.00263848	-0.00534557
  33	-0.00306265	-0.00405038	-0.00245278
  34	0.0136189	8.91053e-05	-0.0158541
  35	0.00648194	-0.00911022	-0.00695853
  36	0.00899438	0.00347258	-0.000494997
  37	0.00217578	-0.0096084	-0.00183322
  38	-0.000934748	-0.000593192	-0.00138558
  39	0.00252386	-0.00331453	-0.00155004
  40	-0.00106416	-0.0280829	-0.00153539
  41	-0.0178421	-0.0140364	-0.0174581
  42	-0.00696338	0.00813645	-0.00578944
  43	0.00339323	0.00721251	0.0030414
  44	-0.00259833	-0.000411091	0.00194153
  45	-0.00530883	-0.012636	-0.00576662
  46	-0.006245	-0.00662164	-0.00293397
  47	0.00945288	0.00597274	0.00201722
  48	-0.00160039	0.00635025	-0.00377859
  49	-0.0202076	-0.00422062	-0.00291435
  50	-0.00191983	-0.0137197	-0.00673883
  51	-0.00870454	-0.01198	-0.00652051
  52	-0.000886793	-0.0015666	-0.00835051
  53	0.00465772	-0.00414482	-0.00724278
  54	-0.00985609	-0.00201263	-0.00403094
  55	-0.00343386	-0.0163866	0.00508593
  56	-0.00171398	-0.028464	-0.0168844
  57	-0.00264592	-0.00924791	-0.00156051
  58	-0.00017969	-0.00652103	-0.00375472
  59	-0.00670385	-0.00676557	-0.00430525
  60	0.000369426	-0.00656101	-0.000945114
  61	-0.00410698	-0.0168829	-0.00175714
  62	0.0170191	0.00948738	0.00247107
  63	-0.00488623	-0.00651847	-0.0262085
  64	-0.00388361	-0.00618316	-0.00783101
  65	-0.00228224	-0.00525138	-0.00744434
  66	-0.000835203	-0.00767599	-0.0076219
  67	-0.00141486	-0.0116606	-0.00773493
  68	-0.00976994	0.000204356	-0.0110972
  69	-0.0047557	0.000608697	-0.0005472
  70	0.00476024	-0.0160409	-0.00127094
  71	-0.0091606	-0.015883	-0.0141985
  72	-0.000366642	-0.00473988	-0.00659672
  73	-0.00564269	-0.00683217	-0.00333452
  74	-0.000275775	-0.0110566	0.00225202
  75	0.0149593	-0.0100237	0.000509118
  76	-0.012017	0.000164969	0.00298673
  77	-0.000722204	-0.00757555	0.0122644
  78	-0.0160469	-0.00573851	0.00462952
  79	-0.00438519	-0.00564532	-0.00625202
  80	0.000651708	-0.00942405	-0.0056611
  81	-0.0028552	-0.00432853	-0.007262
  82	-0.0128876	-0.0171457	-0.0147663
  83	0.00317026	-0.00503841	-0.0172108
  84	0.00919764	-0.0106174	-0.00942882
  85	-0.00615117	-0.0103833	-0.0102157
  86	-0.00417405	-0.0099235	0.0028564
  87	0.00222097	-0.00324841	-0.00192374
  88	-0.0028585	-0.00716646	-0.00269483
  89	0.000283487	-0.00479389	0.000161924
  90	-0.00616063	-0.0115153	8.39618e-05
  91	-0.001855	0.000189042	-0.00409808
  92	-0.00424535	0.00353386	0.00643093
  93	0.00415929	-0.00267632	-0.00707144
  94	0.00475347	0.00477868	-0.00529801
  95	0.000306536	0.000132918	-0.00724884
  96	-0.000826728	-0.00701908	-0.0011757
  97	-0.00179422	-0.00155836	0.00528394
  98	-0.00206266	-0.00520404	-0.00591648
  99	-0.00464212	-0.00771451	-0.0207267
 100	-0.00549478	0.000638069	-0.00165382
 101	-0.00414105	0.00100727	-0.000675226
 102	-0.00204952	0.000516738	-0.00451964
 103	0.00619725	0.00320575	-0.00761393
 104	-0.00137631	0.00686169	-0.00567761
 105	-0.00158234	0.00559054	0.00608805
 106	0.00106236	0.00868625	0.00873948
 107	0.00298044	0.00254556	-0.00956412
 108	0.00417386	-0.00152904	-0.00470986
 109	0.00807531	-0.00017862	-0.0101921
 110	0.00232485	-0.017696	-0.00277406
 111	0.0143473	-0.012111	-0.00711699
 112	0.0109462	-0.0182367	-0.000681278
 113	0.00929598	-0.00807467	-0.00550149
 114	-0.00296678	-0.00230358	0.0019993
 115	0.00604478	0.00235832	-0.00270171
 116	0.00251593	-0.00108968	-0.00337474
 117	-0.0133485	-0.0161281	0.00356311
 118	-0.00572973	0.0149146	0.00740695
 119	0.00606564	0.0041084	0.00559613
 120	0.0153778	-0.00832068	-0.00948748
 121	0.00395284	-0.000623873	-0.0027987
 122	-0.00929393	0.000164878	-0.0102261
 123	-0.00492231	0.00024781	-0.0119068
 124	-0.0155312	-0.0137229	0.00276336
 125	0.0112695	0.0141331	0.00194448
 126	0.000487455	0.0158751	-0.025022
 127	-0.0126693	0.00619554	-0.0389511
 128	-0.0061282	-0.000295856	-0.00523471
 129	-0.00675281	-0.0020912	-0.00184599
 130	-0.00160494	-0.00373303	-0.00310107
 131	-0.00488304	-0.0139147	-0.00632141
 132	-0.0145488	-1.89746e-05	0.0112281
 133	0.00620942	0.00710348	-0.0131855
 134	0.00721976	0.0160327	-0.000771201
 135	-0.00262811	-0.00332106	0.000619259
 136	0.000129171	0.00155581	-0.000737229
 137	0.00090185	-0.00467093	-0.00216468
 138	-0.012229	0.00939751	0.00326497
 139	0.00772087	-0.000182267	-0.00158526
 140	0.00207763	-0.000788288	-0.00258558
 141	0.00546462	0.0136191	-0.0105692
 142	-0.00224863	-0.00176503	0.000485352
 143	0.000968247	0.00432249	0.00295248
 144	0.00312594	0.00297647	-0.00232572
 145	-0.0220178	-0.00470448	-0.00111573
 146	0.019076	-0.0227116	-0.0225131
 147	0.0081236	0.00367854	0.00221319
 148	-0.00962684	0.0188394	-0.0159408
 149	-0.00251617	-0.00233232	0.000839464
 150	0.00192028	-0.00726223	-0.00182202
 151	0.00135631	-0.00091818	-0.00208314
 152	0.000547848	0.00779484	-0.00516597
 153	0.010101	-6.55393e-05	-0.00362487
 154	-0.0119486	-0.00666798	-0.0217742
 155	0.00391235	-0.00275052	-0.0145086
 156	-0.00258764	-0.00792006	-0.0112082
 157	-0.00601254	0.000648502	-0.00180035
 158	-0.001544	-0.00686233	-0.00713639
 159	0.0150952	-0.012363	-0.00609811
 160	-0.00122954	-0.0158137	-0.0181357
 161	0.00355983	0.0026534	0.0119412
 162	0.00773352	-0.0128196	-0.012451
 163	-0.00392471	0.00315546	-0.00224779
 164	-0.00759455	0.00508861	0.00176286
 165	-0.00196463	0.00350315	0.00119776
 166	-0.0261792	0.0172547	-0.00297324
 167	-0.0048691	0.00742824	-0.00227953
 168	0.00841071	-0.0164103	-0.0011629
 169	-0.00397613	-0.0234186	0.00577329
 170	-0.00328498	-0.00545697	-0.00122849
 171	-0.00277071	-0.00384371	-0.00583771
 172	-0.00538754	-0.00428568	0.000526014
 173	-0.0132616	0.00190651	0.00190485
 174	-0.000928382	-0.0100525	0.0108857
 175	-0.00342449	0.01005	-0.0120719
 176	-0.000879462	0.0118488	0.0114842
 177	-0.00638161	0.00338615	-0.00700169
 178	-0.00261709	-0.000452181	-0.00296938
 179	-0.000582819	0.00388684	-0.0107226
 180	-0.00316879	0.00278609	0.00825408
 181	-0.00774644	-0.00642587	0.0184491
 182	0.0162913	0.00818522	0.000230687
 183	-0.0190869	0.00600982	-0.00600652
 184	-0.00763449	0.0048877	-0.0028356
 185	-0.00752233	0.00109151	-0.00127789
 186	-0.00546854	0.00132592	-0.00207748
 187	-0.0265177	0.00862005	0.00816251
 188	-0.00953239	-0.00224102	-0.0155542
 189	-0.00693252	0.012586	-0.0045035
 190	-0.0230867	0.00993388	0.0180423
 191	-0.000955569	0.00383334	-0.00377812
 192	0.000294456	-0.00601436	0.00151108
 193	-0.000426334	0.00498143	0.000377885
 194	-0.0143997	0.0150336	-0.00793574
 195	-0.0102586	0.0289281	0.00950494
 196	0.00368769	0.0200919	0.0267702
 197	0.00958995	0.00410188	-0.00535391
 198	-0.00455699	0.00141029	-0.000361876
 199	-0.00158898	0.0109717	0.00710513
 200	-0.011782	0.00707081	-0.00246194
 201	-0.00115567	0.0161185	-0.0335434
 202	0.00648307	0.0095916	-0.0111448
 203	-0.00186035	0.00199397	-0.00976198
 204	0.00567776	-0.00519252	0.00390165
 205	0.00152095	-0.00671226	0.00286666
 206	0.0022381	-0.00199492	0.000505819
 207	-0.00457444	0.00115479	0.00169632
 208	0.00966679	-3.709e-05	-0.0011153
 209	-0.00583926	0.00204482	0.00565725
 210	0.00732022	-0.0111963	-0.0086173
 211	0.0153131	0.0116463	-0.0122169
 212	-0.0078693	-0.00104846	-0.00316513
 213	-0.000848159	-0.00533933	-0.000189693
 214	-0.00398683	-0.00112627	-0.000251278
 215	0.0097952	0.00866357	-0.00695759
 216	-0.00913911	0.00491789	-0.0118905
 217	0.036097	-0.00393784	0.00213741
 218	0.0263293	-0.0169127	0.0188553
 219	-0.00170777	0.0117181	-0.00147599
 220	-0.00189921	-0.0022442	0.00200834
 221	-0.00126552	0.0103427	0.00108675
 222	0.0212691	-0.00367428	0.00533601
 223	-0.000557197	-0.00558397	0.00612012
 224	0.0076951	0.00665224	-0.0312068
 225	-0.011431	0.0249932	-0.006264
 226	0.00282187	-0.000406675	-0.00320642
 227	0.00193547	0.00198412	-0.00318424
 228	-0.00475199	-0.000789883	-0.00616839
 229	0.0024124	0.0025403	0.00301049
 230	-0.00996385	-0.00931921	-0.0169029
 231	-0.0213812	0.0139549	-0.00273652
 232	-0.0110033	-0.000669425	-0.000298933
 233	-0.00390766	-0.000808349	0.00426595
 234	0.00322205	-0.00198829	0.00153745
 235	-0.000341495	0.00467446	-0.00417168
 236	-0.00462443	-0.0350954	-0.0353095
 237	-0.00325396	0.0114355	0.00323896
 238	-0.0111864	-0.00861668	0.0175442
 239	-0.00518951	-0.0116111	0.0142265
 240	-0.000887314	-0.0100236	-0.00300318
 241	-0.00484088	-0.00278756	-0.00439476
 242	0.00453929	0.00214223	0.0037952
 243	-0.0217391	-0.0170449	0.0338555
 244	0.00810714	-0.00658304	-0.0086111
 245	0.0213685	-0.0278549	-0.016338
 246	-0.00935269	-0.0225142	-0.00447969
 247	-0.00374063	0.00249305	7.54436e-05
 248	0.00554172	-0.0058662	0.00103331
 249	-0.00196909	-0.00400934	-0.00184782
 250	-0.00162067	-0.00701874	-0.00563513
 251	0.00610963	0.0316138	0.00165599
 252	0.01023	0.00363117	-0.0080596
 253	-0.0245341	0.0215308	-0.0224498
 254	-0.0034305	0.00927687	-0.00174378
 255	-0.000268537	0.00342838	-0.0104301
 256	-0.00402071	0.00477946	0.0063385
 257	-0.0350883	-0.00975537	0.00323266
 258	-0.0296071	0.0311341	0.00596518
 259	0.00492071	0.00244799	0.00483211
 260	-0.00402754	-0.0131704	-0.034686
 261	-0.00254124	-0.0009966	-0.00822781
 262	-0.00439252	0.00118025	-0.00199773
 263	-0.00797401	0.00384129	0.000478014
 264	0.0107369	-0.00616901	-0.00374589
 265	0.00821995	-0.0583457	0.0325132
 266	-0.00978162	-0.0130346	0.0129112
 267	0.00231574	0.00820993	0.0155248
 268	0.00105016	0.0120496	-0.0122878
 269	-0.00303824	-0.00437385	-0.000964084
 270	0.00317879	0.000292541	-0.00384064
 271	0.0176608	0.0312374	0.00770627
 272	0.0290181	0.0153712	-0.0146875
 273	-0.00547166	-0.0139413	0.010047
 274	-0.00204871	0.00913982	-0.0266273
 275	-0.00580868	-0.00996228	0.000702111
 276	0.000258617	0.00339269	-0.00425945
 277	-0.00964639	0.0052561	-0.0122436
 278	0.017574	-0.0126886	-0.018545
 279	-0.00722333	-0.00536032	-0.0168711
 280	-0.0200882	-0.00779069	0.0142757
 281	0.0136617	-0.0278265	-0.00511451
 282	0.00233529	-0.0120042	0.00131008
 283	-0.00438329	0.000322227	-0.00901407
 284	-0.000475768	-0.00704505	0.0030397
 285	0.0376634	0.00771114	-0.0459426
 286	-0.0363123	-0.0231937	0.00140763
 287	-0.00700293	0.0140972	-0.00725011
 288	-0.00385448	0.0337205	0.00325906
 289	-0.00138032	0.00319881	0.00167929
 290	-0.00157502	0.00272499	-0.00680577
 291	-0.00687418	-0.0032426	-0.00618808
 292	-0.0146239	0.0183582	0.0195459
 293	0.00530414	-0.008584	-0.0196292
 294	0.024186	-0.0129295	-0.0344212
 295	-0.0158926	0.0173669	-0.0330691
 296	0.00799888	0.0045067	-0.00225111
 297	0.000413726	-0.00189572	-0.00449975
 298	0.00572304	0.0105867	0.00267439
 299	0.00306137	-0.000854277	0.00100527
 300	-0.00124147	0.0218089	-0.0239501
 301	-0.0172215	-0.0205655	-0.0392251
 302	0.000967701	0.0183341	-0.00445186

Bonds

   1	5	1	3
   2	5	2	3
   3	4	3	5
   4	2	4	5
   5	1	4	6
   6	1	4	7
   7	3	5	8
   8	7	9	11
   9	1	9	12
  10	1	9	13
  11	6	10	11
  12	8	11	14
  13	8	11	15
  14	9	1	9
  15	7	16	18
  16	1	16	19
  17	1	16	20
  18	6	17	18
  19	8	18	21
  20	8	18	22
  21	9	10	16
  22	7	23	25
  23	1	23	26
  24	1	23	27
  25	6	24	25
  26	8	25	28
  27	8	25	29
  28	9	17	23
  29	7	30	32
  30	1	30	33
  31	1	30	34
  32	6	31	32
  33	8	32	35
  34	8	32	36
  35	9	24	30
  36	7	37	39
  37	1	37	40
  38	1	37	41
  39	6	38	39
  40	8	39	42
  41	8	39	43
  42	9	31	37
  43	7	44	46
  44	1	44	47
  45	1	44	48
  46	6	45	46
  47	8	46	49
  48	8	46	50
  49	9	38	44
  50	7	51	53
  51	1	51	54
  52	1	51	55
  53	6	52	53
  54	8	53	56
  55	8	53	57
  56	9	45	51
  57	7	58	60
  58	1	58	61
  59	1	58	62
  60	6	59	60
  61	8	60	63
  62	8	60	64
  63	9	52	58
  64	7	65	67
  65	1	65	68
  66	1	65	69
  67	6	66	67
  68	8	67	70
  69	8	67	71
  70	9	59	65
  71	7	72	74
  72	1	72	75
  73	1	72	76
  74	6	73	74
  75	8	74	77
  76	8	74	78
  77	9	66	72
  78	7	79	81
  79	1	79	82
  80	1	79	83
  81	6	80	81
  82	8	81	84
  83	8	81	85
  84	9	73	79
  85	7	86	88
  86	1	86	89
  87	1	86	90
  88	6	87	88
  89	8	88	91
  90	8	88	92
  91	9	80	86
  92	7	93	95
  93	1	93	96
  94	1	93	97
  95	6	94	95
  96	8	95	98
  97	8	95	99
  98	9	87	93
  99	7	100	102
 100	1	100	103
 101	1	100	104
 102	6	101	102
 103	8	102	105
 104	8	102	106
 105	9	94	100
 106	7	107	109
 107	1	107	110
 108	1	107	111
 109	6	108	109
 110	8	109	112
 111	8	109	113
 112	9	101	107
 113	7	114	116
 114	1	114	117
 115	1	114	118
 116	6	115	116
 117	8	116	119
 118	8	116	120
 119	9	108	114
 120	7	121	123
 121	1	121	124
 122	1	121	125
 123	6	122	123
 124	8	123	126
 125	8	123	127
 126	9	115	121
 127	7	128	130
 128	1	128	131
 129	1	128	132
 130	6	129	130
 131	8	130	133
 132	8	130	134
 133	9	122	128
 134	7	135	137
 135	1	135	138
 136	1	135	139
 137	6	136	137
 138	8	137	140
 139	8	137	141
 140	9	129	135
 141	7	142	144
 142	1	142	145
 143	1	142	146
 144	6	143	144
 145	8	144	147
 146	8	144	148
 147	9	136	142
 148	7	149	151
 149	1	149	152
 150	1	149	153
 151	6	150	151
 152	8	151	154
 153	8	151	155
 154	9	143	149
 155	7	156	158
 156	1	156	159
 157	1	156	160
 158	6	157	158
 159	8	158	161
 160	8	158	162
 161	9	150	156
 162	7	163	165
 163	1	163	166
 164	1	163	167
 165	6	164	165
 166	8	165	168
 167	8	165	169
 168	9	157	163
 169	7	170	172
 170	1	170	173
 171	1	170	174
 172	6	171	172
 173	8	172	175
 174	8	172	176
 175	9	164	170
 176	7	177	179
 177	1	177	180
 178	1	177	181
 179	6	178	179
 180	8	179	182
 181	8	179	183
 182	9	171	177
 183	7	184	186
 184	1	184	187
 185	1	184	188
 186	6	185	186
 187	8	186	189
 188	8	186	190
 189	9	178	184
 190	7	191	193
 191	1	191	194
 192	1	191	195
 193	6	192	193
 194	8	193	196
 195	8	193	197
 196	9	185	191
 197	7	198	200
 198	1	198	201
 199	1	198	202
 200	6	199	200
 201	8	200	203
 202	8	200	204
 203	9	192	198
 204	7	205	207
 205	1	205	208
 206	1	205	209
 207	6	206	207
 208	8	207	210
 209	8	207	211
 210	9	199	205