pySIMM System Object

211 atoms
210 bonds
383 angles
268 dihedrals
1 impropers

8 atom types
12 bond types
22 angle types
5 dihedral types
1 improper types

-76.209264 76.209264 xlo xhi
-76.209264 76.209264 ylo yhi
-76.209264 76.209264 zlo zhi

Masses

   1	16.0	# o
   2	12.01	# c
   3	12.01	# c2
   4	12.01	# ce
   5	1.008	# ha
   6	12.01	# c3
   7	1.008	# h1
   8	12.01	# c1

Pair Coeffs

   1	0.21	2.959921901149463	# o
   2	0.086	3.3996695084235347	# c
   3	0.086	3.3996695084235347	# c2
   4	0.086	3.3996695084235347	# ce
   5	0.015	2.59964245953351	# ha
   6	0.1094	3.3996695084235347	# c3
   7	0.0157	2.471353044121301	# h1
   8	0.21	3.3996695084235347	# c1

Bond Coeffs

   1	343.1	1.0879	# c2,ha
   2	547.3	1.3461	# c2,ce
   3	342.5	1.0883	# ce,ha
   4	354.5	1.4825	# c,ce
   5	637.7	1.2183	# c,o
   6	449.9	1.3165	# c3,o
   7	326.8	1.5095	# c2,c3
   8	330.6	1.0969	# c3,h1
   9	622.9	1.2247	# c2,o
  10	625.0	1.307	# c1,c2
  11	758.1	1.1724	# c1,o
  12	569.4	1.3343	# c2,c2

Angle Coeffs

   1	38.11	116.9	# ha,c2,ha
   2	49.51	120.45	# ce,c2,ha
   3	49.61	119.94	# c2,ce,ha
   4	46.52	116.46	# c,ce,ha
   5	65.45	120.42	# c,ce,c2
   6	68.83	123.2	# ce,c,o
   7	77.94	130.25	# o,c,o
   8	47.07	109.96	# c2,c3,h1
   9	68.15	110.35	# c2,c3,o
  10	45.94	115.68	# c3,c2,ha
  11	39.24	108.46	# h1,c3,h1
  12	52.64	116.45	# h1,c3,o
  13	65.83	113.14	# c2,o,c
  14	67.92	122.82	# c3,c2,o
  15	55.28	117.23	# ha,c2,o
  16	65.83	113.14	# c2,o,c3
  17	62.94	179.5	# c2,c1,o
  18	70.06	121.62	# c1,c2,c2
  19	49.85	120.43	# c2,c2,ha
  20	50.62	120.42	# c1,c2,ha
  21	65.83	113.14	# c3,o,c1
  22	68.89	180.0	# o,c1,o

Dihedral Coeffs

   1	1	6.65	2	180	# X,c2,ce,X
   2	1	2.175	2	180	# X,c,ce,X
   3	1	0.0	2	0	# X,c2,c3,X
   4	1	6.65	2	180	# X,c2,c2,X
   5	1	0.0	2	180	# X,c1,c2,X

Improper Coeffs

   1	10.5	-1	2	# c,X,X,o

Atoms

   1	1	1	-0.104756	-1.13525	1.56205	-6.30105
   2	1	1	-0.569213	-3.33561	1.76802	-5.77786
   3	1	2	0.789146	-2.18677	1.35501	-5.63769
   4	1	3	-0.154228	-0.780191	-0.156037	-4.29847
   5	1	4	-0.389642	-1.96537	0.397944	-4.51931
   6	1	5	0.157325	0.155305	0.175278	-4.88183
   7	1	5	0.138289	-0.741446	-0.938277	-3.55509
   8	1	5	0.133078	-2.84366	0.13889	-3.88411
   9	1	3	-8e-06	-1.26519	1.52074	-7.51158
  10	1	1	-0.400145	0.953515	0.939285	-8.16955
  11	1	6	0.053825	0.0291932	1.90319	-8.28945
  12	1	5	0.095789	-2.03875	2.17081	-7.80414
  13	1	5	0.095196	-1.58536	0.532301	-7.85124
  14	1	7	0.084202	0.315549	2.93102	-7.98049
  15	1	7	0.07114	-0.235094	2.02484	-9.35937
  16	1	3	-8e-06	1.87634	1.04857	-7.36225
  17	1	1	-0.400145	4.10314	1.61593	-7.08737
  18	1	6	0.053825	3.26394	1.12458	-7.92496
  19	1	5	0.095789	1.82957	0.169816	-6.66096
  20	1	5	0.095196	1.80173	1.8873	-6.68474
  21	1	7	0.084202	3.13439	1.70681	-8.81411
  22	1	7	0.07114	3.44825	0.0751598	-8.21338
  23	1	3	-8e-06	5.2744	1.79828	-7.46271
  24	1	1	-0.400145	7.25394	2.94629	-7.21822
  25	1	6	0.053825	6.28734	2.39842	-6.49393
  26	1	5	0.095789	5.28738	2.47894	-8.30281
  27	1	5	0.095196	5.75103	0.884536	-7.73679
  28	1	7	0.084202	6.65201	1.55725	-5.84402
  29	1	7	0.07114	5.69406	3.05666	-5.82779
  30	1	3	-8e-06	7.28286	4.15512	-7.03516
  31	1	1	-0.400145	5.28664	5.34268	-6.68026
  32	1	6	0.053825	6.2218	5.07346	-7.58731
  33	1	5	0.095789	8.2604	4.51905	-7.32317
  34	1	5	0.095196	7.37374	4.37603	-6.0059
  35	1	7	0.084202	5.80527	4.5728	-8.44421
  36	1	7	0.07114	6.82845	5.94113	-7.96065
  37	1	3	-8e-06	4.94344	6.46129	-6.37988
  38	1	1	-0.400145	5.52047	7.79315	-4.63142
  39	1	6	0.053825	6.02204	7.36694	-5.83004
  40	1	5	0.095789	4.11954	6.30888	-5.68397
  41	1	5	0.095196	4.52846	7.05784	-7.16618
  42	1	7	0.084202	6.18545	8.10972	-6.60032
  43	1	7	0.07114	6.94775	6.75736	-5.78869
  44	1	3	-8e-06	6.32855	8.33683	-3.89575
  45	1	1	-0.400145	6.88339	9.8194	-2.25306
  46	1	6	0.053825	5.77201	9.37443	-2.86179
  47	1	5	0.095789	7.14134	8.89813	-4.43732
  48	1	5	0.095196	6.86246	7.58254	-3.27395
  49	1	7	0.084202	4.98636	8.89156	-2.18685
  50	1	7	0.07114	5.29478	10.1324	-3.40504
  51	1	3	-8e-06	6.77731	10.5572	-1.27324
  52	1	1	-0.400145	7.87603	12.0684	0.133359
  53	1	6	0.053825	7.88799	11.6085	-1.10734
  54	1	5	0.095789	6.8849	9.93179	-0.389526
  55	1	5	0.095196	5.81922	11.0845	-1.14361
  56	1	7	0.084202	7.83359	12.4329	-1.86286
  57	1	7	0.07114	8.83037	11.1145	-1.37999
  58	1	3	-8e-06	8.9417	12.0331	0.785639
  59	1	1	-0.400145	10.7715	10.7285	1.21685
  60	1	6	0.053825	9.44309	10.7162	1.42028
  61	1	5	0.095789	8.8202	12.7482	1.60551
  62	1	5	0.095196	9.74769	12.4059	0.150854
  63	1	7	0.084202	8.91035	9.83155	0.956842
  64	1	7	0.07114	9.10991	10.668	2.50647
  65	1	3	-8e-06	11.4054	9.6844	1.35151
  66	1	1	-0.400145	11.0381	8.6161	-0.59487
  67	1	6	0.053825	12.0657	9.06638	0.122353
  68	1	5	0.095789	10.8293	8.91517	1.89178
  69	1	5	0.095196	12.296	9.88224	1.96227
  70	1	7	0.084202	12.7944	8.3732	0.456787
  71	1	7	0.07114	12.628	9.87292	-0.354985
  72	1	3	-8e-06	11.1593	8.35395	-1.81648
  73	1	1	-0.400145	10.4658	7.68748	-3.92257
  74	1	6	0.053825	9.98574	8.1661	-2.74757
  75	1	5	0.095789	11.7754	7.39079	-1.9081
  76	1	5	0.095196	11.7942	9.11589	-2.25314
  77	1	7	0.084202	9.41727	9.10011	-2.84141
  78	1	7	0.07114	9.24725	7.54637	-2.22297
  79	1	3	-8e-06	10.2344	6.51056	-4.19981
  80	1	1	-0.400145	10.8407	5.05309	-5.85222
  81	1	6	0.053825	11.3732	5.82279	-4.91592
  82	1	5	0.095789	9.32108	6.47013	-4.80217
  83	1	5	0.095196	10.0475	5.88641	-3.34496
  84	1	7	0.084202	12.002	5.25839	-4.19249
  85	1	7	0.07114	12.081	6.52598	-5.30829
  86	1	3	-8e-06	11.5054	4.69828	-6.83377
  87	1	1	-0.400145	11.5444	6.8728	-7.79439
  88	1	6	0.053825	11.2576	5.58487	-8.0493
  89	1	5	0.095789	11.3066	3.6362	-7.13001
  90	1	5	0.095196	12.5972	4.66375	-6.61417
  91	1	7	0.084202	10.2593	5.3358	-8.39992
  92	1	7	0.07114	11.8996	5.19694	-8.85778
  93	1	3	-8e-06	10.7617	7.80857	-8.07039
  94	1	1	-0.400145	9.95534	9.87657	-7.45624
  95	1	6	0.053825	10.2986	8.70631	-6.92745
  96	1	5	0.095789	9.85302	7.44437	-8.45465
  97	1	5	0.095196	11.2918	8.46049	-8.82423
  98	1	7	0.084202	11.0777	8.63897	-6.11114
  99	1	7	0.07114	9.48851	8.15073	-6.46131
 100	1	3	-8e-06	9.29536	10.6096	-6.71106
 101	1	1	-0.400145	7.18807	11.154	-6.01425
 102	1	6	0.053825	7.81334	10.5448	-6.97704
 103	1	5	0.095789	9.67109	11.6114	-6.88787
 104	1	5	0.095196	9.46344	10.4086	-5.67084
 105	1	7	0.084202	7.55246	9.47189	-7.01293
 106	1	7	0.07114	7.63226	10.8859	-8.02167
 107	1	3	-8e-06	6.67454	12.2695	-6.21419
 108	1	1	-0.400145	7.81768	14.413	-6.37962
 109	1	6	0.053825	7.32458	13.5173	-5.53959
 110	1	5	0.095789	5.68091	12.2934	-5.9227
 111	1	5	0.095196	6.64639	12.5309	-7.29933
 112	1	7	0.084202	8.0715	13.1171	-4.85522
 113	1	7	0.07114	6.58331	13.9609	-4.8117
 114	1	3	-8e-06	7.26408	15.5542	-6.45589
 115	1	1	-0.400145	6.99674	17.6694	-5.70831
 116	1	6	0.053825	7.65053	16.5925	-5.39975
 117	1	5	0.095789	6.20143	15.4453	-6.45593
 118	1	5	0.095196	7.37361	15.9958	-7.46566
 119	1	7	0.084202	8.76384	16.6956	-5.37806
 120	1	7	0.07114	7.50292	16.1836	-4.39091
 121	1	3	-8e-06	6.94055	18.5876	-4.82892
 122	1	1	-0.400145	4.59811	18.9902	-4.66646
 123	1	6	0.053825	5.79738	19.5366	-4.94036
 124	1	5	0.095789	7.82086	19.1914	-4.83301
 125	1	5	0.095196	6.83058	18.1972	-3.81891
 126	1	7	0.084202	5.91018	19.9408	-5.9387
 127	1	7	0.07114	5.98115	20.3504	-4.34142
 128	1	3	-8e-06	3.88545	18.4828	-5.57137
 129	1	1	-0.400145	3.22029	16.5356	-6.50935
 130	1	6	0.053825	3.57175	17.0315	-5.38238
 131	1	5	0.095789	4.39343	18.5986	-6.51006
 132	1	5	0.095196	2.97407	19.0318	-5.6514
 133	1	7	0.084202	2.79267	17.011	-4.58822
 134	1	7	0.07114	4.50328	16.5308	-4.98546
 135	1	3	-8e-06	2.98293	15.3261	-6.6715
 136	1	1	-0.400145	3.77465	13.6867	-8.21413
 137	1	6	0.053825	3.1536	14.8927	-8.13922
 138	1	5	0.095789	1.93124	15.1447	-6.47208
 139	1	5	0.095196	3.51294	14.6698	-6.0289
 140	1	7	0.084202	3.77308	15.6741	-8.6465
 141	1	7	0.07114	2.16868	15.0661	-8.67046
 142	1	3	-8e-06	3.45076	12.8106	-9.04654
 143	1	1	-0.400145	3.83688	10.6883	-9.70866
 144	1	6	0.053825	4.25674	11.6049	-8.8477
 145	1	5	0.095789	3.6558	13.2005	-10.0538
 146	1	5	0.095196	2.47698	12.5285	-8.91848
 147	1	7	0.084202	4.191	11.2334	-7.83248
 148	1	7	0.07114	5.29631	11.9586	-9.01012
 149	1	3	-8e-06	3.92432	9.51331	-9.33747
 150	1	1	-0.400145	3.30523	7.36277	-10.0845
 151	1	6	0.053825	3.85313	8.4792	-10.4822
 152	1	5	0.095789	3.17186	9.25628	-8.58925
 153	1	5	0.095196	4.85924	9.30006	-8.82165
 154	1	7	0.084202	4.8823	8.31061	-10.932
 155	1	7	0.07114	3.32869	8.98662	-11.3055
 156	1	3	-8e-06	3.31529	6.30802	-10.7391
 157	1	1	-0.400145	2.12368	4.59312	-11.9134
 158	1	6	0.053825	1.97373	5.81308	-11.3108
 159	1	5	0.095789	3.62214	5.48436	-10.1046
 160	1	5	0.095196	3.98245	6.38936	-11.6258
 161	1	7	0.084202	1.57562	6.57921	-12.0298
 162	1	7	0.07114	1.20967	5.85972	-10.5522
 163	1	3	-8e-06	1.11045	3.8807	-12.0895
 164	1	1	-0.400145	0.298277	1.72343	-12.3459
 165	1	6	0.053825	1.4181	2.43834	-12.4161
 166	1	5	0.095789	0.484016	4.22822	-12.8129
 167	1	5	0.095196	0.408518	3.86177	-11.2681
 168	1	7	0.084202	2.1897	2.08653	-11.6758
 169	1	7	0.07114	1.91347	2.43637	-13.4152
 170	1	3	-8e-06	0.25087	0.512845	-12.5658
 171	1	1	-0.400145	-1.49988	-1.07556	-12.6241
 172	1	6	0.053825	-0.992409	0.0393529	-13.2251
 173	1	5	0.095789	0.344967	-0.0446326	-11.6821
 174	1	5	0.095196	1.13852	0.265342	-13.2112
 175	1	7	0.084202	-0.753794	-0.0656313	-14.2468
 176	1	7	0.07114	-1.72885	0.848537	-13.0944
 177	1	3	-8e-06	-2.53814	-1.05746	-11.9572
 178	1	1	-0.400145	-3.57957	-1.1688	-9.82155
 179	1	6	0.053825	-2.44054	-1.05623	-10.4534
 180	1	5	0.095789	-3.2408	-1.84134	-12.1465
 181	1	5	0.095196	-3.18676	-0.158426	-12.2401
 182	1	7	0.084202	-1.75602	-0.29484	-10.1267
 183	1	7	0.07114	-1.81045	-1.98395	-10.3181
 184	1	3	-8e-06	-4.39067	-0.294443	-9.52262
 185	1	1	-0.400145	-5.9432	0.466044	-7.97559
 186	1	6	0.053825	-4.95799	-0.41101	-8.12305
 187	1	5	0.095789	-5.25301	-0.564348	-10.0941
 188	1	5	0.095196	-4.11129	0.730653	-9.70076
 189	1	7	0.084202	-4.12333	-0.244039	-7.44259
 190	1	7	0.07114	-5.32379	-1.43376	-8.12722
 191	1	3	-8e-06	-6.50014	0.555388	-6.84263
 192	1	1	-0.400145	-8.38446	1.18914	-5.45106
 193	1	6	0.053825	-7.84547	1.25628	-6.70253
 194	1	5	0.095789	-5.8497	1.14729	-6.22689
 195	1	5	0.095196	-6.46825	-0.364629	-6.21943
 196	1	7	0.084202	-8.37736	0.752765	-7.48208
 197	1	7	0.07114	-7.72308	2.24765	-7.07127
 198	1	3	-8e-06	-9.57581	0.898233	-5.42716
 199	1	1	-0.400145	-11.1648	2.48023	-4.63746
 200	1	6	0.053825	-10.4208	1.36711	-4.25621
 201	1	5	0.095789	-9.60227	-0.214358	-5.48892
 202	1	5	0.095196	-10.0845	1.29769	-6.30551
 203	1	7	0.084202	-9.76658	1.41677	-3.4525
 204	1	7	0.07114	-11.0975	0.491391	-3.93287
 205	1	3	-0.232441	-12.7635	5.01355	-3.60523
 206	1	8	0.444336	-12.0324	2.83176	-3.9404
 207	1	3	-0.096823	-11.8414	4.04263	-3.54256
 208	1	1	-0.491911	-12.9345	2.16766	-3.52251
 209	1	5	0.148316	-12.5284	5.89871	-2.99465
 210	1	5	0.163898	-13.7435	4.80609	-3.94585
 211	1	5	0.064625	-10.8722	4.249	-3.18765

Velocities

   1	-0.00344953	-0.00545908	0.00131999
   2	1.47273e-05	-0.00591252	-0.0104428
   3	-0.00432666	0.000707018	0.00183786
   4	-0.00457846	0.00513569	-0.00897001
   5	-0.00102084	0.00359157	0.00125308
   6	-0.00168123	0.0128053	0.00482557
   7	-0.013528	-0.00645109	0.0167857
   8	-0.014848	-0.00695626	-0.00710831
   9	-0.00195337	0.00374236	0.00378409
  10	-0.00277639	-0.00109949	0.00170103
  11	-0.00195819	0.00325563	-0.00442005
  12	0.00843813	0.0190676	-0.000491465
  13	-0.0176468	-0.00517836	0.0130127
  14	-0.017202	0.00494924	-0.0201154
  15	-0.0128211	-0.022204	0.00366696
  16	-0.000335564	0.00967069	-0.00494677
  17	-0.00527302	0.00340281	-0.00188275
  18	-4.59075e-05	0.00104015	-0.0016412
  19	-0.00384442	0.00406106	-0.0179093
  20	-0.010969	0.0151003	-0.010007
  21	-0.0069227	-0.0134097	0.000738587
  22	-0.0183652	-0.0117594	-0.000740731
  23	-0.00566932	0.00280322	-0.00382618
  24	-0.00208074	0.000978667	-0.00628907
  25	-0.00668624	0.00446365	-0.00533876
  26	0.0032539	0.00285023	-0.0266447
  27	-0.00168515	-0.0159453	0.000293089
  28	-0.0116799	-0.000709934	-0.0267775
  29	-0.0199696	-0.00188632	-0.00819052
  30	0.002687	0.000134914	0.00495479
  31	-0.00307896	0.00584453	0.00295919
  32	-0.00965306	-0.0025936	0.00813329
  33	-0.0161352	0.00621338	-0.00882936
  34	0.00670378	0.00817266	0.00918677
  35	-0.0166468	-0.0139312	0.00202877
  36	-0.022254	0.00636606	-0.0199554
  37	0.00125309	-0.00922204	0.000134994
  38	-0.000315499	0.00572791	-0.00485396
  39	0.00274576	-0.00330635	-0.0017105
  40	-0.00199152	0.0124103	0.0122021
  41	0.00966007	0.00515807	-0.0168735
  42	0.0014974	-0.00190453	-0.0119835
  43	0.00999592	0.00321087	0.00634957
  44	0.00475697	-0.00447439	-0.00135275
  45	0.00470588	0.000480931	-0.00245468
  46	0.00134879	-0.00361038	-0.003534
  47	0.00214106	0.00376868	0.000841439
  48	-0.0129596	0.000173312	0.0159309
  49	-0.0110059	0.0136188	-0.000376485
  50	0.0102754	-0.0043597	-0.00104663
  51	0.00235683	0.00199814	-2.00702e-05
  52	0.0102124	0.00104099	-0.000669264
  53	0.0021821	-0.00541516	0.000291391
  54	0.0176049	0.00804168	0.0103034
  55	0.0123647	-0.00205885	-0.0205557
  56	0.0278262	-0.00785584	-0.00150764
  57	-0.00468098	-0.00207418	0.00949589
  58	0.00393038	0.00128273	-0.00121957
  59	0.00629228	0.000869962	0.00365501
  60	0.00334241	0.00265664	-0.00569901
  61	0.0224426	0.0113939	-0.0049666
  62	0.0209195	0.000577717	-0.00812471
  63	0.0180347	0.00255919	-0.00636766
  64	0.00405042	-0.0131349	-0.00158977
  65	0.00972055	-0.000951107	-0.00240679
  66	0.000904566	-0.0012318	0.000887776
  67	0.0118637	-0.000950957	-0.006277
  68	-0.00251543	-0.0134537	-0.0205434
  69	-0.00401621	-0.023796	-0.00469498
  70	0.004861	-0.00976734	-0.00945614
  71	0.0145314	-0.0111021	0.00368535
  72	-0.00361677	0.00441858	0.00220611
  73	0.00609799	0.00050735	-0.00310824
  74	-0.00639324	-0.000605822	-0.00137775
  75	-0.00280224	0.0159437	-0.00282859
  76	-0.0114561	0.00505433	0.00806535
  77	-0.0104743	-0.0112654	0.00492745
  78	-0.00738258	-0.0280078	0.000669108
  79	0.00161016	0.00227382	-0.00287968
  80	-0.00504198	-0.00375836	0.000541472
  81	-0.00107169	-0.000345131	-0.00394188
  82	0.0036307	0.00923335	0.00459184
  83	-0.0151593	-0.0105386	-0.00662889
  84	-0.0156072	-0.0054715	-0.00442187
  85	0.00548402	-0.022498	-0.0172522
  86	-0.00665776	0.00379277	-0.0071355
  87	0.00721766	-0.00369651	-0.00520511
  88	-0.00683775	0.00468492	-0.00504838
  89	0.010004	-0.00741547	0.000743979
  90	0.0152444	0.0150399	-0.0139841
  91	-0.0100069	2.43103e-05	0.0111342
  92	-0.00884445	0.0195152	0.00399329
  93	0.00131108	-0.00326979	-0.00211946
  94	0.00709337	0.00117563	0.00222045
  95	0.00518588	-0.0055078	0.00304825
  96	0.000876265	-0.00443332	0.000922813
  97	-0.00199912	0.00140137	0.000808094
  98	0.01054	-0.0282878	-0.00347198
  99	0.0105418	0.00944114	0.00522908
 100	0.00712329	-0.0023108	-0.00126498
 101	0.00556822	0.00048072	-0.00574951
 102	0.00195987	0.00686954	-0.00809057
 103	0.00718309	-0.00292997	0.0221095
 104	0.0118902	-0.0154317	-0.00138568
 105	-0.0159357	0.0080022	-0.00206315
 106	0.0127864	0.00383441	-0.0232351
 107	0.000695504	-0.0037865	-0.00182552
 108	0.00603982	-0.00120284	0.00148712
 109	0.00149777	0.00859587	0.00311449
 110	0.00995031	0.00581391	-0.00691785
 111	0.0350017	0.0210554	0.000629319
 112	-0.00167765	-0.0179634	-0.0143565
 113	0.00972855	-0.0124997	0.00213531
 114	0.0153529	-0.000980572	0.00140138
 115	0.00877203	0.00355504	-0.00403247
 116	0.0060339	0.0020718	-0.00707775
 117	0.0193129	0.0140555	0.00222664
 118	0.0168522	0.0189526	0.00389916
 119	0.0108792	-0.0047366	0.00423494
 120	-0.0206721	0.0197353	-0.00511173
 121	0.00422688	-0.00157221	8.82753e-05
 122	0.00143843	0.00244241	0.00156022
 123	0.0122251	-0.000440943	-0.000622257
 124	0.0102821	-0.00685446	0.0172297
 125	-0.00209212	-0.0068418	-0.0144858
 126	0.0273007	-0.0089168	0.00128062
 127	0.00269824	0.00827683	-0.0200147
 128	0.00710592	-0.00072341	0.00218649
 129	0.0071962	0.00306046	0.00336412
 130	0.00619701	-0.00723962	-0.00192754
 131	-0.00816464	-0.00506282	-0.0011507
 132	0.0165664	-0.0264878	0.0228089
 133	0.00288639	-0.000909791	-0.015283
 134	-0.00362779	0.0128933	-0.00183507
 135	6.23067e-05	0.00529192	0.000941828
 136	0.00318549	0.0112052	-0.00800659
 137	0.00174207	0.00952042	0.00157299
 138	0.0114528	-0.0167705	0.00578267
 139	-0.0122368	-0.0102628	0.00557574
 140	0.00558038	-0.00626998	-0.0173351
 141	-0.0223508	0.00873049	-0.0130356
 142	-0.00258123	0.00759027	0.000536858
 143	0.00389739	0.00100012	6.69973e-05
 144	0.00409633	-0.00210517	0.00580501
 145	-0.00247198	0.012643	-0.0227971
 146	0.00170129	0.029672	-0.00680008
 147	0.00558188	-0.0169559	0.00305983
 148	0.0123835	-0.00295294	0.0243741
 149	0.00214243	0.000773857	-8.51853e-05
 150	-0.00452041	0.00703192	0.0017741
 151	-0.00771045	-0.00137224	-0.00567537
 152	-0.00537299	-0.0246585	0.00579932
 153	-0.0122374	-0.0121471	0.0184878
 154	0.00768743	0.00574188	-0.0195846
 155	0.000524677	0.00891598	0.014104
 156	-0.0051912	0.00963462	-0.00332702
 157	0.0048089	0.00405823	-0.00402066
 158	-0.0127622	0.00300495	-0.00939985
 159	0.00202381	0.0153185	-0.00554794
 160	0.0215786	-0.0164541	0.00429292
 161	-0.000727556	0.00247039	-0.0157312
 162	-0.0108112	-0.010255	-0.0203951
 163	-0.00555691	0.00262366	0.00394948
 164	0.00737655	0.0058496	-0.00096026
 165	-0.000356785	0.00346909	0.00195743
 166	0.00839531	-0.0251676	-0.00787661
 167	-0.00255714	0.0079389	0.0155232
 168	0.0307937	-0.0212264	0.00778521
 169	-0.00855623	-0.0074549	-0.0278965
 170	-0.00522592	0.00136397	-0.006289
 171	-0.00177298	0.0023002	-6.86163e-05
 172	-0.00364398	-0.000271433	-0.00267987
 173	-0.0223198	0.00523184	0.0222494
 174	-0.0288251	0.0232146	-0.0381943
 175	-0.00668132	-0.0361274	-0.0124311
 176	0.00777666	0.00693298	-0.0174657
 177	-0.00299609	0.00279977	0.00543446
 178	-0.00579689	0.0019166	0.00422304
 179	-0.00334529	0.0122258	-0.00448929
 180	-0.00877645	0.0182545	-0.0111034
 181	-0.0113948	0.0384933	-0.0382737
 182	-0.0115584	0.00847801	-0.00616617
 183	-0.0235814	-0.00721854	0.0318829
 184	0.00893439	0.0123928	-0.0098795
 185	-0.00304287	0.003501	-0.00212412
 186	-0.0090156	-0.00531549	0.00364644
 187	-0.00195657	-0.0183977	0.0180953
 188	0.0126769	-0.00617383	0.0156601
 189	0.0313711	0.00984643	-0.00262515
 190	-0.000650822	-0.0096831	0.00850576
 191	-0.0122981	0.00482322	0.00338725
 192	-0.000760486	0.000752544	0.00136867
 193	0.00101109	0.00273515	0.00413132
 194	0.00704972	-0.00579999	-0.0295081
 195	-0.00797535	-0.0185226	-0.022632
 196	0.025748	-0.00224848	-0.0059426
 197	0.00999312	0.00432707	-0.020623
 198	0.00226916	-0.0018572	-0.00500409
 199	-0.00165859	0.00461888	-5.06101e-05
 200	0.00291859	0.0032175	0.00338947
 201	0.000436347	-0.0127479	-0.0198906
 202	-0.00851004	0.0103382	0.00423058
 203	-0.00807972	0.031323	-0.007936
 204	-0.0157699	0.00855639	-0.00898554
 205	-0.00608345	0.00572202	0.000561434
 206	0.00529665	0.0113057	0.00225316
 207	-0.000250223	0.00813645	0.00481269
 208	-0.00661347	-0.00487634	-0.00365272
 209	-0.0146487	-0.011177	-0.0133083
 210	0.0201785	-0.0132488	-0.00550192
 211	-0.00403953	0.00988844	0.0245457

Bonds

   1	5	1	3
   2	5	2	3
   3	4	3	5
   4	2	4	5
   5	1	4	6
   6	1	4	7
   7	3	5	8
   8	7	9	11
   9	1	9	12
  10	1	9	13
  11	6	10	11
  12	8	11	14
  13	8	11	15
  14	9	1	9
  15	7	16	18
  16	1	16	19
  17	1	16	20
  18	6	17	18
  19	8	18	21
  20	8	18	22
  21	9	10	16
  22	7	23	25
  23	1	23	26
  24	1	23	27
  25	6	24	25
  26	8	25	28
  27	8	25	29
  28	9	17	23
  29	7	30	32
  30	1	30	33
  31	1	30	34
  32	6	31	32
  33	8	32	35
  34	8	32	36
  35	9	24	30
  36	7	37	39
  37	1	37	40
  38	1	37	41
  39	6	38	39
  40	8	39	42
  41	8	39	43
  42	9	31	37
  43	7	44	46
  44	1	44	47
  45	1	44	48
  46	6	45	46
  47	8	46	49
  48	8	46	50
  49	9	38	44
  50	7	51	53
  51	1	51	54
  52	1	51	55
  53	6	52	53
  54	8	53	56
  55	8	53	57
  56	9	45	51
  57	7	58	60
  58	1	58	61
  59	1	58	62
  60	6	59	60
  61	8	60	63
  62	8	60	64
  63	9	52	58
  64	7	65	67
  65	1	65	68
  66	1	65	69
  67	6	66	67
  68	8	67	70
  69	8	67	71
  70	9	59	65
  71	7	72	74
  72	1	72	75
  73	1	72	76
  74	6	73	74
  75	8	74	77
  76	8	74	78
  77	9	66	72
  78	7	79	81
  79	1	79	82
  80	1	79	83
  81	6	80	81
  82	8	81	84
  83	8	81	85
  84	9	73	79
  85	7	86	88
  86	1	86	89
  87	1	86	90
  88	6	87	88
  89	8	88	91
  90	8	88	92
  91	9	80	86
  92	7	93	95
  93	1	93	96
  94	1	93	97
  95	6	94	95
  96	8	95	98
  97	8	95	99
  98	9	87	93
  99	7	100	102
 100	1	100	103
 101	1	100	104
 102	6	101	102
 103	8	102	105
 104	8	102	106
 105	9	94	100
 106	7	107	109
 107	1	107	110
 108	1	107	111
 109	6	108	109
 110	8	109	112
 111	8	109	113
 112	9	101	107
 113	7	114	116
 114	1	114	117
 115	1	114	118
 116	6	115	116
 117	8	116	119
 118	8	116	120
 119	9	108	114
 120	7	121	123
 121	1	121	124
 122	1	121	125
 123	6	122	123
 124	8	123	126
 125	8	123	127
 126	9	115	121
 127	7	128	130
 128	1	128	131
 129	1	128	132
 130	6	129	130
 131	8	130	133
 132	8	130	134
 133	9	122	128
 134	7	135	137
 135	1	135	138
 136	1	135	139
 137	6	136	137
 138	8	137	140
 139	8	137	141
 140	9	129	135
 141	7	142	144
 142	1	142	145
 143	1	142	146
 144	6	143	144
 145	8	144	147
 146	8	144	148
 147	9	136	142
 148	7	149	151
 149	1	149	152
 150	1	149	153
 151	6	150	151
 152	8	151	154
 153	8	151	155
 154	9	143	149
 155	7	156	158
 156	1	156	159
 157	1	156	160
 158	6	157	158
 159	8	158	161
 160	8	158	162
 161	9	150	156
 162	7	163	165
 163	1	163	166
 164	1	163	167
 165	6	164	165
 166	8	165	168
 167	8	165	169
 168	9	157	163
 169	7	170	172
 170	1	170	173
 171	1	170	174
 172	6	171	172
 173	8	172	175
 174	8	172	176
 175	9	164	170
 176	7	177	179
 177	1	177	180
 178	1	177	181
 179	6	178	179
 180	8	179	182
 181	8	179	183
 182	9	171	177
 183	7	184	186
 184	1	184	187
 185	1	184	188
 186	6	185	186
 187	8	186	189
 188	8	186	190
 189	9	178	184
 190	7	191	193
 191	1	191	194
 192	1	191	195
 193	6	192	193
 194	8	193	196
 195	8	193	197
 196	9	185	191
 197	7	198	200
 198	1	198	201
 199	1	198	202
 200	6	199	200
 201	8	200	203
 202	8	200	204
 203	9	192	198
 204	12	205	207
 205	1	205	209
 206	1	205	210
 207	10	206	207
 208	11	206	208
 209	1	207	211
 210	11	199	206

Angles

   1	7	1	3	2
   2	6	1	3	5
   3	6	2	3	5
   4	2	5	4	6
   5	2	5	4	7
   6	1	6	4	7
   7	5	3	5	4
   8	4	3	5	8
   9	3	4	5	8
  10	10	11	9	12
  11	10	11	9	13
  12	1	12	9	13
  13	9	9	11	10
  14	8	9	11	14
  15	8	9	11	15
  16	12	10	11	14
  17	12	10	11	15
  18	11	14	11	15
  19	13	3	1	9
  20	14	1	9	11
  21	15	1	9	12
  22	15	1	9	13
  23	10	18	16	19
  24	10	18	16	20
  25	1	19	16	20
  26	9	16	18	17
  27	8	16	18	21
  28	8	16	18	22
  29	12	17	18	21
  30	12	17	18	22
  31	11	21	18	22
  32	16	11	10	16
  33	14	10	16	18
  34	15	10	16	19
  35	15	10	16	20
  36	10	25	23	26
  37	10	25	23	27
  38	1	26	23	27
  39	9	23	25	24
  40	8	23	25	28
  41	8	23	25	29
  42	12	24	25	28
  43	12	24	25	29
  44	11	28	25	29
  45	16	18	17	23
  46	14	17	23	25
  47	15	17	23	26
  48	15	17	23	27
  49	10	32	30	33
  50	10	32	30	34
  51	1	33	30	34
  52	9	30	32	31
  53	8	30	32	35
  54	8	30	32	36
  55	12	31	32	35
  56	12	31	32	36
  57	11	35	32	36
  58	16	25	24	30
  59	14	24	30	32
  60	15	24	30	33
  61	15	24	30	34
  62	10	39	37	40
  63	10	39	37	41
  64	1	40	37	41
  65	9	37	39	38
  66	8	37	39	42
  67	8	37	39	43
  68	12	38	39	42
  69	12	38	39	43
  70	11	42	39	43
  71	16	32	31	37
  72	14	31	37	39
  73	15	31	37	40
  74	15	31	37	41
  75	10	46	44	47
  76	10	46	44	48
  77	1	47	44	48
  78	9	44	46	45
  79	8	44	46	49
  80	8	44	46	50
  81	12	45	46	49
  82	12	45	46	50
  83	11	49	46	50
  84	16	39	38	44
  85	14	38	44	46
  86	15	38	44	47
  87	15	38	44	48
  88	10	53	51	54
  89	10	53	51	55
  90	1	54	51	55
  91	9	51	53	52
  92	8	51	53	56
  93	8	51	53	57
  94	12	52	53	56
  95	12	52	53	57
  96	11	56	53	57
  97	16	46	45	51
  98	14	45	51	53
  99	15	45	51	54
 100	15	45	51	55
 101	10	60	58	61
 102	10	60	58	62
 103	1	61	58	62
 104	9	58	60	59
 105	8	58	60	63
 106	8	58	60	64
 107	12	59	60	63
 108	12	59	60	64
 109	11	63	60	64
 110	16	53	52	58
 111	14	52	58	60
 112	15	52	58	61
 113	15	52	58	62
 114	10	67	65	68
 115	10	67	65	69
 116	1	68	65	69
 117	9	65	67	66
 118	8	65	67	70
 119	8	65	67	71
 120	12	66	67	70
 121	12	66	67	71
 122	11	70	67	71
 123	16	60	59	65
 124	14	59	65	67
 125	15	59	65	68
 126	15	59	65	69
 127	10	74	72	75
 128	10	74	72	76
 129	1	75	72	76
 130	9	72	74	73
 131	8	72	74	77
 132	8	72	74	78
 133	12	73	74	77
 134	12	73	74	78
 135	11	77	74	78
 136	16	67	66	72
 137	14	66	72	74
 138	15	66	72	75
 139	15	66	72	76
 140	10	81	79	82
 141	10	81	79	83
 142	1	82	79	83
 143	9	79	81	80
 144	8	79	81	84
 145	8	79	81	85
 146	12	80	81	84
 147	12	80	81	85
 148	11	84	81	85
 149	16	74	73	79
 150	14	73	79	81
 151	15	73	79	82
 152	15	73	79	83
 153	10	88	86	89
 154	10	88	86	90
 155	1	89	86	90
 156	9	86	88	87
 157	8	86	88	91
 158	8	86	88	92
 159	12	87	88	91
 160	12	87	88	92
 161	11	91	88	92
 162	16	81	80	86
 163	14	80	86	88
 164	15	80	86	89
 165	15	80	86	90
 166	10	95	93	96
 167	10	95	93	97
 168	1	96	93	97
 169	9	93	95	94
 170	8	93	95	98
 171	8	93	95	99
 172	12	94	95	98
 173	12	94	95	99
 174	11	98	95	99
 175	16	88	87	93
 176	14	87	93	95
 177	15	87	93	96
 178	15	87	93	97
 179	10	102	100	103
 180	10	102	100	104
 181	1	103	100	104
 182	9	100	102	101
 183	8	100	102	105
 184	8	100	102	106
 185	12	101	102	105
 186	12	101	102	106
 187	11	105	102	106
 188	16	95	94	100
 189	14	94	100	102
 190	15	94	100	103
 191	15	94	100	104
 192	10	109	107	110
 193	10	109	107	111
 194	1	110	107	111
 195	9	107	109	108
 196	8	107	109	112
 197	8	107	109	113
 198	12	108	109	112
 199	12	108	109	113
 200	11	112	109	113
 201	16	102	101	107
 202	14	101	107	109
 203	15	101	107	110
 204	15	101	107	111
 205	10	116	114	117
 206	10	116	114	118
 207	1	117	114	118
 208	9	114	116	115
 209	8	114	116	119
 210	8	114	116	120
 211	12	115	116	119
 212	12	115	116	120
 213	11	119	116	120
 214	16	109	108	114
 215	14	108	114	116
 216	15	108	114	117
 217	15	108	114	118
 218	10	123	121	124
 219	10	123	121	125
 220	1	124	121	125
 221	9	121	123	122
 222	8	121	123	126
 223	8	121	123	127
 224	12	122	123	126
 225	12	122	123	127
 226	11	126	123	127
 227	16	116	115	121
 228	14	115	121	123
 229	15	115	121	124
 230	15	115	121	125
 231	10	130	128	131
 232	10	130	128	132
 233	1	131	128	132
 234	9	128	130	129
 235	8	128	130	133
 236	8	128	130	134
 237	12	129	130	133
 238	12	129	130	134
 239	11	133	130	134
 240	16	123	122	128
 241	14	122	128	130
 242	15	122	128	131
 243	15	122	128	132
 244	10	137	135	138
 245	10	137	135	139
 246	1	138	135	139
 247	9	135	137	136
 248	8	135	137	140
 249	8	135	137	141
 250	12	136	137	140
 251	12	136	137	141
 252	11	140	137	141
 253	16	130	129	135
 254	14	129	135	137
 255	15	129	135	138
 256	15	129	135	139
 257	10	144	142	145
 258	10	144	142	146
 259	1	145	142	146
 260	9	142	144	143
 261	8	142	144	147
 262	8	142	144	148
 263	12	143	144	147
 264	12	143	144	148
 265	11	147	144	148
 266	16	137	136	142
 267	14	136	142	144
 268	15	136	142	145
 269	15	136	142	146
 270	10	151	149	152
 271	10	151	149	153
 272	1	152	149	153
 273	9	149	151	150
 274	8	149	151	154
 275	8	149	151	155
 276	12	150	151	154
 277	12	150	151	155
 278	11	154	151	155
 279	16	144	143	149
 280	14	143	149	151
 281	15	143	149	152
 282	15	143	149	153
 283	10	158	156	159
 284	10	158	156	160
 285	1	159	156	160
 286	9	156	158	157
 287	8	156	158	161
 288	8	156	158	162
 289	12	157	158	161
 290	12	157	158	162
 291	11	161	158	162
 292	16	151	150	156
 293	14	150	156	158
 294	15	150	156	159
 295	15	150	156	160
 296	10	165	163	166
 297	10	165	163	167
 298	1	166	163	167
 299	9	163	165	164
 300	8	163	165	168
 301	8	163	165	169
 302	12	164	165	168
 303	12	164	165	169
 304	11	168	165	169
 305	16	158	157	163
 306	14	157	163	165
 307	15	157	163	166
 308	15	157	163	167
 309	10	172	170	173
 310	10	172	170	174
 311	1	173	170	174
 312	9	170	172	171
 313	8	170	172	175
 314	8	170	172	176
 315	12	171	172	175
 316	12	171	172	176
 317	11	175	172	176
 318	16	165	164	170
 319	14	164	170	172
 320	15	164	170	173
 321	15	164	170	174
 322	10	179	177	180
 323	10	179	177	181
 324	1	180	177	181
 325	9	177	179	178
 326	8	177	179	182
 327	8	177	179	183
 328	12	178	179	182
 329	12	178	179	183
 330	11	182	179	183
 331	16	172	171	177
 332	14	171	177	179
 333	15	171	177	180
 334	15	171	177	181
 335	10	186	184	187
 336	10	186	184	188
 337	1	187	184	188
 338	9	184	186	185
 339	8	184	186	189
 340	8	184	186	190
 341	12	185	186	189
 342	12	185	186	190
 343	11	189	186	190
 344	16	179	178	184
 345	14	178	184	186
 346	15	178	184	187
 347	15	178	184	188
 348	10	193	191	194
 349	10	193	191	195
 350	1	194	191	195
 351	9	191	193	192
 352	8	191	193	196
 353	8	191	193	197
 354	12	192	193	196
 355	12	192	193	197
 356	11	196	193	197
 357	16	186	185	191
 358	14	185	191	193
 359	15	185	191	194
 360	15	185	191	195
 361	10	200	198	201
 362	10	200	198	202
 363	1	201	198	202
 364	9	198	200	199
 365	8	198	200	203
 366	8	198	200	204
 367	12	199	200	203
 368	12	199	200	204
 369	11	203	200	204
 370	16	193	192	198
 371	14	192	198	200
 372	15	192	198	201
 373	15	192	198	202
 374	19	207	205	209
 375	19	207	205	210
 376	1	209	205	210
 377	17	207	206	208
 378	18	205	207	206
 379	19	205	207	211
 380	20	206	207	211
 381	21	200	199	206
 382	17	199	206	207
 383	22	199	206	208

Dihedrals

   1	2	1	3	5	4
   2	2	1	3	5	8
   3	2	2	3	5	4
   4	2	2	3	5	8
   5	1	6	4	5	3
   6	1	6	4	5	8
   7	1	7	4	5	3
   8	1	7	4	5	8
   9	3	12	9	11	10
  10	3	12	9	11	14
  11	3	12	9	11	15
  12	3	13	9	11	10
  13	3	13	9	11	14
  14	3	13	9	11	15
  15	3	1	9	11	10
  16	3	1	9	11	14
  17	3	1	9	11	15
  18	3	19	16	18	17
  19	3	19	16	18	21
  20	3	19	16	18	22
  21	3	20	16	18	17
  22	3	20	16	18	21
  23	3	20	16	18	22
  24	3	10	16	18	17
  25	3	10	16	18	21
  26	3	10	16	18	22
  27	3	26	23	25	24
  28	3	26	23	25	28
  29	3	26	23	25	29
  30	3	27	23	25	24
  31	3	27	23	25	28
  32	3	27	23	25	29
  33	3	17	23	25	24
  34	3	17	23	25	28
  35	3	17	23	25	29
  36	3	33	30	32	31
  37	3	33	30	32	35
  38	3	33	30	32	36
  39	3	34	30	32	31
  40	3	34	30	32	35
  41	3	34	30	32	36
  42	3	24	30	32	31
  43	3	24	30	32	35
  44	3	24	30	32	36
  45	3	40	37	39	38
  46	3	40	37	39	42
  47	3	40	37	39	43
  48	3	41	37	39	38
  49	3	41	37	39	42
  50	3	41	37	39	43
  51	3	31	37	39	38
  52	3	31	37	39	42
  53	3	31	37	39	43
  54	3	47	44	46	45
  55	3	47	44	46	49