pySIMM System Object

29 atoms
28 bonds
40 angles
34 dihedrals
1 impropers

8 atom types
12 bond types
18 angle types
5 dihedral types
1 improper types

-38.933252 38.933252 xlo xhi
-38.933252 38.933252 ylo yhi
-38.933252 38.933252 zlo zhi

Masses

   1	16.0	# o
   2	12.01	# c
   3	12.01	# c2
   4	12.01	# ce
   5	1.008	# ha
   6	12.01	# c3
   7	1.008	# h1
   8	12.01	# c1

Pair Coeffs

   1	0.21	2.959921901149463	# o
   2	0.086	3.3996695084235347	# c
   3	0.086	3.3996695084235347	# c2
   4	0.086	3.3996695084235347	# ce
   5	0.015	2.59964245953351	# ha
   6	0.1094	3.3996695084235347	# c3
   7	0.0157	2.471353044121301	# h1
   8	0.21	3.3996695084235347	# c1

Bond Coeffs

   1	343.1	1.0879	# c2,ha
   2	547.3	1.3461	# c2,ce
   3	342.5	1.0883	# ce,ha
   4	354.5	1.4825	# c,ce
   5	637.7	1.2183	# c,o
   6	449.9	1.3165	# c3,o
   7	326.8	1.5095	# c2,c3
   8	330.6	1.0969	# c3,h1
   9	622.9	1.2247	# c2,o
  10	758.1	1.1724	# c1,o
  11	569.4	1.3343	# c2,c2
  12	625.0	1.307	# c1,c2

Angle Coeffs

   1	65.45	120.42	# c,ce,c2
   2	77.94	130.25	# o,c,o
   3	38.11	116.9	# ha,c2,ha
   4	49.61	119.94	# c2,ce,ha
   5	49.51	120.45	# ce,c2,ha
   6	46.52	116.46	# c,ce,ha
   7	68.83	123.2	# ce,c,o
   8	45.94	115.68	# c3,c2,ha
   9	39.24	108.46	# h1,c3,h1
  10	52.64	116.45	# h1,c3,o
  11	47.07	109.96	# c2,c3,h1
  12	67.92	122.82	# c3,c2,o
  13	55.28	117.23	# ha,c2,o
  14	50.62	120.42	# c1,c2,ha
  15	62.94	179.5	# c2,c1,o
  16	70.06	121.62	# c1,c2,c2
  17	49.85	120.43	# c2,c2,ha
  18	68.89	180.0	# o,c1,o

Dihedral Coeffs

   1	1	6.65	2	180	# X,c2,ce,X
   2	1	2.175	2	180	# X,c,ce,X
   3	1	0.0	2	0	# X,c2,c3,X
   4	1	6.65	2	180	# X,c2,c2,X
   5	1	0.0	2	180	# X,c1,c2,X

Improper Coeffs

   1	10.5	-1	2	# c,X,X,o

Atoms

   1	1	1	-0.104756	-9.01063	-19.2485	-0.631359
   2	1	1	-0.569213	-8.82991	-19.7125	-2.74784
   3	1	2	0.789146	-8.3799	-19.5372	-1.6417
   4	1	3	-0.154228	-6.03666	-19.4797	-2.53044
   5	1	4	-0.389642	-6.90872	-19.4119	-1.51841
   6	1	5	0.157325	-4.95932	-19.5026	-2.30556
   7	1	5	0.138289	-6.32729	-19.6931	-3.54281
   8	1	5	0.133078	-6.55033	-19.2958	-0.483756
   9	1	3	-8e-06	-10.0124	-18.6166	-0.279661
  10	1	1	-0.400145	-11.4821	-20.2653	0.379838
  11	1	6	0.053825	-11.4519	-19.2011	-0.372724
  12	1	5	0.095789	-10.0807	-17.5842	-0.654022
  13	1	5	0.095196	-9.9925	-18.4997	0.803977
  14	1	7	0.084202	-11.7041	-19.4428	-1.39789
  15	1	7	0.07114	-12.2016	-18.4449	-0.0823469
  16	1	3	-8e-06	-10.8721	-21.2501	0.783598
  17	1	1	-0.400145	-8.68767	-21.6288	1.70062
  18	1	6	0.053825	-9.90839	-21.207	1.93897
  19	1	5	0.095789	-10.3044	-21.692	-0.0631278
  20	1	5	0.095196	-11.6617	-21.9748	1.05185
  21	1	7	0.084202	-10.4616	-21.7579	2.68365
  22	1	7	0.07114	-9.89676	-20.1589	2.31376
  23	1	3	-0.232441	-6.45276	-23.7197	2.04655
  24	1	8	0.444336	-7.53673	-21.7111	1.54053
  25	1	3	-0.096823	-7.00796	-22.8328	1.20448
  26	1	1	-0.491911	-6.81391	-20.7731	1.68239
  27	1	5	0.148316	-5.93383	-24.6002	1.67325
  28	1	5	0.163898	-6.37659	-23.5313	3.10192
  29	1	5	0.064625	-6.97545	-23.0683	0.134551

Velocities

   1	-0.00358725	-0.0025013	-0.000154467
   2	-0.00247376	-0.00747392	0.00333459
   3	0.00612813	-0.00382166	-0.00529456
   4	-0.0041252	-0.000748728	-0.0024782
   5	0.00117388	0.00470822	-0.00132241
   6	0.0207173	0.00624811	-0.00212131
   7	-0.000108297	0.0042207	-0.00223748
   8	0.015561	-0.00547297	0.0104581
   9	-0.00281228	-0.0129931	0.00603632
  10	-0.00384229	-0.00477564	0.00325947
  11	-0.00768986	-0.0121437	0.00371175
  12	-0.00385442	-0.0118631	-0.0111363
  13	-0.0100489	-0.00751171	0.002105
  14	-0.0126073	-0.00163787	-0.0182254
  15	-0.0208445	-0.0147321	0.0161034
  16	0.0062405	-0.0120147	0.00775055
  17	0.000754801	-0.000789544	-0.00642774
  18	0.00577207	0.000521687	0.00302344
  19	-0.0117927	0.0139984	-0.00824609
  20	0.00392834	-0.00752184	-0.0027065
  21	-0.00190629	0.0120262	0.00332651
  22	-0.00389653	0.0130387	0.0150949
  23	-0.00427254	0.00258979	-0.0104424
  24	0.000565836	-0.00411991	-0.00299068
  25	-0.00962007	-0.00276465	0.00437428
  26	-0.00602671	-0.0056109	0.000918156
  27	0.00816044	0.00322407	-0.0101461
  28	0.0229167	0.0128897	-0.0164773
  29	-0.00994077	-0.00825278	-0.0117183

Bonds

   1	5	1	3
   2	5	2	3
   3	4	3	5
   4	2	4	5
   5	1	4	6
   6	1	4	7
   7	3	5	8
   8	7	9	11
   9	1	9	12
  10	1	9	13
  11	6	10	11
  12	8	11	14
  13	8	11	15
  14	9	1	9
  15	7	16	18
  16	1	16	19
  17	1	16	20
  18	6	17	18
  19	8	18	21
  20	8	18	22
  21	9	10	16
  22	11	23	25
  23	1	23	27
  24	1	23	28
  25	12	24	25
  26	10	24	26
  27	1	25	29
  28	10	17	24

Angles

   1	2	1	3	2
   2	7	1	3	5
   3	7	2	3	5
   4	5	5	4	6
   5	5	5	4	7
   6	3	6	4	7
   7	1	3	5	4
   8	6	3	5	8
   9	4	4	5	8
  10	8	11	9	12
  11	8	11	9	13
  12	3	12	9	13
  13	11	9	11	14
  14	11	9	11	15
  15	10	10	11	14
  16	10	10	11	15
  17	9	14	11	15
  18	12	1	9	11
  19	13	1	9	12
  20	13	1	9	13
  21	8	18	16	19
  22	8	18	16	20
  23	3	19	16	20
  24	11	16	18	21
  25	11	16	18	22
  26	10	17	18	21
  27	10	17	18	22
  28	9	21	18	22
  29	12	10	16	18
  30	13	10	16	19
  31	13	10	16	20
  32	17	25	23	27
  33	17	25	23	28
  34	3	27	23	28
  35	15	25	24	26
  36	16	23	25	24
  37	17	23	25	29
  38	14	24	25	29
  39	15	17	24	25
  40	18	17	24	26

Dihedrals

   1	2	1	3	5	4
   2	2	1	3	5	8
   3	2	2	3	5	4
   4	2	2	3	5	8
   5	1	6	4	5	3
   6	1	6	4	5	8
   7	1	7	4	5	3
   8	1	7	4	5	8
   9	3	12	9	11	10
  10	3	12	9	11	14
  11	3	12	9	11	15
  12	3	13	9	11	10
  13	3	13	9	11	14
  14	3	13	9	11	15
  15	3	1	9	11	10
  16	3	1	9	11	14
  17	3	1	9	11	15
  18	3	19	16	18	17
  19	3	19	16	18	21
  20	3	19	16	18	22
  21	3	20	16	18	17
  22	3	20	16	18	21
  23	3	20	16	18	22
  24	3	10	16	18	17
  25	3	10	16	18	21
  26	3	10	16	18	22
  27	4	27	23	25	24
  28	4	27	23	25	29
  29	4	28	23	25	24
  30	4	28	23	25	29
  31	5	26	24	25	23
  32	5	26	24	25	29
  33	5	17	24	25	23
  34	5	17	24	25	29

Impropers

   1	1	3	1	2	5

