pySIMM System Object

22 atoms
21 bonds
29 angles
25 dihedrals
1 impropers

8 atom types
12 bond types
18 angle types
5 dihedral types
1 improper types

-35.373207 35.373207 xlo xhi
-35.373207 35.373207 ylo yhi
-35.373207 35.373207 zlo zhi

Masses

   1	16.0	# o
   2	12.01	# c
   3	12.01	# c2
   4	12.01	# ce
   5	1.008	# ha
   6	12.01	# c3
   7	1.008	# h1
   8	12.01	# c1

Pair Coeffs

   1	0.21	2.959921901149463	# o
   2	0.086	3.3996695084235347	# c
   3	0.086	3.3996695084235347	# c2
   4	0.086	3.3996695084235347	# ce
   5	0.015	2.59964245953351	# ha
   6	0.1094	3.3996695084235347	# c3
   7	0.0157	2.471353044121301	# h1
   8	0.21	3.3996695084235347	# c1

Bond Coeffs

   1	343.1	1.0879	# c2,ha
   2	547.3	1.3461	# c2,ce
   3	342.5	1.0883	# ce,ha
   4	354.5	1.4825	# c,ce
   5	637.7	1.2183	# c,o
   6	449.9	1.3165	# c3,o
   7	326.8	1.5095	# c2,c3
   8	330.6	1.0969	# c3,h1
   9	622.9	1.2247	# c2,o
  10	758.1	1.1724	# c1,o
  11	569.4	1.3343	# c2,c2
  12	625.0	1.307	# c1,c2

Angle Coeffs

   1	65.45	120.42	# c,ce,c2
   2	77.94	130.25	# o,c,o
   3	38.11	116.9	# ha,c2,ha
   4	49.61	119.94	# c2,ce,ha
   5	49.51	120.45	# ce,c2,ha
   6	46.52	116.46	# c,ce,ha
   7	68.83	123.2	# ce,c,o
   8	45.94	115.68	# c3,c2,ha
   9	39.24	108.46	# h1,c3,h1
  10	52.64	116.45	# h1,c3,o
  11	47.07	109.96	# c2,c3,h1
  12	67.92	122.82	# c3,c2,o
  13	55.28	117.23	# ha,c2,o
  14	50.62	120.42	# c1,c2,ha
  15	62.94	179.5	# c2,c1,o
  16	70.06	121.62	# c1,c2,c2
  17	49.85	120.43	# c2,c2,ha
  18	68.89	180.0	# o,c1,o

Dihedral Coeffs

   1	1	6.65	2	180	# X,c2,ce,X
   2	1	2.175	2	180	# X,c,ce,X
   3	1	0.0	2	0	# X,c2,c3,X
   4	1	6.65	2	180	# X,c2,c2,X
   5	1	0.0	2	180	# X,c1,c2,X

Improper Coeffs

   1	10.5	-1	2	# c,X,X,o

Atoms

   1	1	1	-0.104756	-8.7891	-13.1019	-11.3113
   2	1	1	-0.569213	-8.49841	-12.6809	-13.4397
   3	1	2	0.789146	-8.16792	-12.6216	-12.2591
   4	1	3	-0.154228	-6.32011	-11.9585	-10.6648
   5	1	4	-0.389642	-6.87693	-11.9451	-11.8929
   6	1	5	0.157325	-5.35534	-11.483	-10.4439
   7	1	5	0.138289	-6.75857	-12.4073	-9.79971
   8	1	5	0.133078	-6.39922	-11.5346	-12.8046
   9	1	3	-8e-06	-9.46269	-13.3575	-10.3177
  10	1	1	-0.400145	-9.33006	-15.4672	-9.72348
  11	1	6	0.053825	-10.2278	-14.6737	-10.2389
  12	1	5	0.095789	-10.2641	-12.705	-10.3158
  13	1	5	0.095196	-8.93727	-13.2222	-9.37754
  14	1	7	0.084202	-10.4738	-14.961	-11.2953
  15	1	7	0.07114	-11.2002	-14.6284	-9.6226
  16	1	3	-0.232441	-8.4135	-18.6507	-9.40537
  17	1	8	0.444336	-8.4785	-16.2801	-9.88344
  18	1	3	-0.096823	-8.65779	-17.3217	-9.11303
  19	1	1	-0.491911	-7.64322	-16.2205	-10.6755
  20	1	5	0.148316	-8.54996	-19.3983	-8.64906
  21	1	5	0.163898	-8.16102	-19.0762	-10.3953
  22	1	5	0.064625	-8.86456	-17.1044	-8.00905

Velocities

   1	-0.00247073	0.000960947	-0.00347534
   2	-0.00858711	-0.00711283	-0.00147557
   3	0.00237641	-0.00364965	-0.00105483
   4	-0.00897603	-0.00416574	-0.0056126
   5	-0.00541908	-0.00706549	-0.000444862
   6	-0.000824071	0.00242702	-0.0161114
   7	0.00261708	-0.000961424	-0.00957146
   8	-0.0106479	-0.012921	-0.00541637
   9	-0.00302057	0.00159686	-0.00364357
  10	0.000470137	-0.00653444	1.41646e-05
  11	0.00535931	-0.00778348	-0.00251596
  12	-0.00673054	-0.00823599	-0.00630837
  13	-0.0034466	-0.0135912	0.00547686
  14	0.000962455	-0.0172747	-0.00103923
  15	0.0164657	-0.00300513	-0.0100677
  16	-0.00306532	0.00705699	-0.00444579
  17	-0.00261829	-0.00587023	0.00401501
  18	-0.00713631	0.000623801	-0.00661997
  19	0.00616246	-0.000381328	-0.00123093
  20	0.0132092	-0.0204848	0.00075382
  21	0.00263245	-0.0107873	0.0088975
  22	0.0377617	0.0136407	-0.00410756

Bonds

   1	5	1	3
   2	5	2	3
   3	4	3	5
   4	2	4	5
   5	1	4	6
   6	1	4	7
   7	3	5	8
   8	7	9	11
   9	1	9	12
  10	1	9	13
  11	6	10	11
  12	8	11	14
  13	8	11	15
  14	9	1	9
  15	11	16	18
  16	1	16	20
  17	1	16	21
  18	12	17	18
  19	10	17	19
  20	1	18	22
  21	10	10	17

Angles

   1	2	1	3	2
   2	7	1	3	5
   3	7	2	3	5
   4	5	5	4	6
   5	5	5	4	7
   6	3	6	4	7
   7	1	3	5	4
   8	6	3	5	8
   9	4	4	5	8
  10	8	11	9	12
  11	8	11	9	13
  12	3	12	9	13
  13	11	9	11	14
  14	11	9	11	15
  15	10	10	11	14
  16	10	10	11	15
  17	9	14	11	15
  18	12	1	9	11
  19	13	1	9	12
  20	13	1	9	13
  21	17	18	16	20
  22	17	18	16	21
  23	3	20	16	21
  24	15	18	17	19
  25	16	16	18	17
  26	17	16	18	22
  27	14	17	18	22
  28	15	10	17	18
  29	18	10	17	19

Dihedrals

   1	2	1	3	5	4
   2	2	1	3	5	8
   3	2	2	3	5	4
   4	2	2	3	5	8
   5	1	6	4	5	3
   6	1	6	4	5	8
   7	1	7	4	5	3
   8	1	7	4	5	8
   9	3	12	9	11	10
  10	3	12	9	11	14
  11	3	12	9	11	15
  12	3	13	9	11	10
  13	3	13	9	11	14
  14	3	13	9	11	15
  15	3	1	9	11	10
  16	3	1	9	11	14
  17	3	1	9	11	15
  18	4	20	16	18	17
  19	4	20	16	18	22
  20	4	21	16	18	17
  21	4	21	16	18	22
  22	5	19	17	18	16
  23	5	19	17	18	22
  24	5	10	17	18	16
  25	5	10	17	18	22

Impropers

   1	1	3	1	2	5

