pySIMM System Object

85 atoms
84 bonds
149 angles
106 dihedrals
1 impropers

8 atom types
12 bond types
22 angle types
5 dihedral types
1 improper types

-56.151466 56.151466 xlo xhi
-56.151466 56.151466 ylo yhi
-56.151466 56.151466 zlo zhi

Masses

   1	16.0	# o
   2	12.01	# c
   3	12.01	# c2
   4	12.01	# ce
   5	1.008	# ha
   6	12.01	# c3
   7	1.008	# h1
   8	12.01	# c1

Pair Coeffs

   1	0.21	2.959921901149463	# o
   2	0.086	3.3996695084235347	# c
   3	0.086	3.3996695084235347	# c2
   4	0.086	3.3996695084235347	# ce
   5	0.015	2.59964245953351	# ha
   6	0.1094	3.3996695084235347	# c3
   7	0.0157	2.471353044121301	# h1
   8	0.21	3.3996695084235347	# c1

Bond Coeffs

   1	343.1	1.0879	# c2,ha
   2	547.3	1.3461	# c2,ce
   3	342.5	1.0883	# ce,ha
   4	354.5	1.4825	# c,ce
   5	637.7	1.2183	# c,o
   6	449.9	1.3165	# c3,o
   7	326.8	1.5095	# c2,c3
   8	330.6	1.0969	# c3,h1
   9	622.9	1.2247	# c2,o
  10	625.0	1.307	# c1,c2
  11	758.1	1.1724	# c1,o
  12	569.4	1.3343	# c2,c2

Angle Coeffs

   1	38.11	116.9	# ha,c2,ha
   2	49.51	120.45	# ce,c2,ha
   3	49.61	119.94	# c2,ce,ha
   4	46.52	116.46	# c,ce,ha
   5	65.45	120.42	# c,ce,c2
   6	68.83	123.2	# ce,c,o
   7	77.94	130.25	# o,c,o
   8	47.07	109.96	# c2,c3,h1
   9	68.15	110.35	# c2,c3,o
  10	45.94	115.68	# c3,c2,ha
  11	39.24	108.46	# h1,c3,h1
  12	52.64	116.45	# h1,c3,o
  13	65.83	113.14	# c2,o,c
  14	67.92	122.82	# c3,c2,o
  15	55.28	117.23	# ha,c2,o
  16	65.83	113.14	# c2,o,c3
  17	62.94	179.5	# c2,c1,o
  18	70.06	121.62	# c1,c2,c2
  19	49.85	120.43	# c2,c2,ha
  20	50.62	120.42	# c1,c2,ha
  21	65.83	113.14	# c3,o,c1
  22	68.89	180.0	# o,c1,o

Dihedral Coeffs

   1	1	6.65	2	180	# X,c2,ce,X
   2	1	2.175	2	180	# X,c,ce,X
   3	1	0.0	2	0	# X,c2,c3,X
   4	1	6.65	2	180	# X,c2,c2,X
   5	1	0.0	2	180	# X,c1,c2,X

Improper Coeffs

   1	10.5	-1	2	# c,X,X,o

Atoms

   1	1	1	-0.104756	-3.28598	4.95904	-4.86942
   2	1	1	-0.569213	-3.85924	5.14772	-2.77178
   3	1	2	0.789146	-3.49897	4.50183	-3.72502
   4	1	3	-0.154228	-2.73776	2.15253	-4.2843
   5	1	4	-0.389642	-3.11996	3.07714	-3.38779
   6	1	5	0.157325	-2.51624	1.13756	-4.03535
   7	1	5	0.138289	-2.76991	2.43425	-5.34511
   8	1	5	0.133078	-3.2767	2.78519	-2.35905
   9	1	3	-8e-06	-2.13868	5.48738	-5.02428
  10	1	1	-0.400145	-1.44167	4.58348	-7.05481
  11	1	6	0.053825	-1.6589	5.76556	-6.47593
  12	1	5	0.095789	-1.38416	4.98579	-4.47649
  13	1	5	0.095196	-2.15833	6.4589	-4.53417
  14	1	7	0.084202	-0.746819	6.39159	-6.34738
  15	1	7	0.07114	-2.39828	6.37852	-6.97333
  16	1	3	-8e-06	-1.21747	4.64365	-8.24619
  17	1	1	-0.400145	-1.66636	2.48421	-9.23913
  18	1	6	0.053825	-2.03889	3.75199	-9.16507
  19	1	5	0.095789	-0.253467	4.26036	-8.3812
  20	1	5	0.095196	-1.29103	5.63394	-8.71761
  21	1	7	0.084202	-1.95134	4.1342	-10.1236
  22	1	7	0.07114	-3.07032	3.87276	-8.83558
  23	1	3	-8e-06	-2.00975	1.69459	-8.39002
  24	1	1	-0.400145	-4.38217	1.49416	-7.96317
  25	1	6	0.053825	-3.33939	0.955409	-8.55314
  26	1	5	0.095789	-2.16042	2.21001	-7.43109
  27	1	5	0.095196	-1.30009	0.916417	-8.28136
  28	1	7	0.084202	-3.2624	-0.124781	-8.22851
  29	1	7	0.07114	-3.52683	0.822589	-9.63803
  30	1	3	-8e-06	-5.51945	1.14987	-8.3532
  31	1	1	-0.400145	-5.62928	-1.23938	-8.42928
  32	1	6	0.053825	-6.11715	-0.143862	-7.82182
  33	1	5	0.095789	-5.52708	1.1235	-9.42461
  34	1	5	0.095196	-6.23117	1.91493	-8.07302
  35	1	7	0.084202	-7.21156	-0.0527421	-7.93829
  36	1	7	0.07114	-6.03636	-0.117183	-6.70746
  37	1	3	-8e-06	-5.10172	-2.16469	-7.87397
  38	1	1	-0.400145	-3.77681	-4.13276	-8.20351
  39	1	6	0.053825	-3.7938	-2.8096	-8.3924
  40	1	5	0.095789	-5.80094	-3.00346	-7.78049
  41	1	5	0.095196	-4.88741	-1.99546	-6.88383
  42	1	7	0.084202	-2.9983	-2.1836	-7.93925
  43	1	7	0.07114	-3.73527	-2.49808	-9.4342
  44	1	3	-8e-06	-2.8788	-4.53834	-7.44755
  45	1	1	-0.400145	-3.62435	-6.35887	-6.18003
  46	1	6	0.053825	-2.77991	-6.03715	-7.12936
  47	1	5	0.095789	-2.97021	-4.0893	-6.43872
  48	1	5	0.095196	-1.92544	-4.22625	-7.85933
  49	1	7	0.084202	-1.75012	-6.0608	-6.82565
  50	1	7	0.07114	-2.83589	-6.62086	-8.04171
  51	1	3	-8e-06	-4.83933	-6.3855	-6.37915
  52	1	1	-0.400145	-6.93894	-5.25029	-6.41297
  53	1	6	0.053825	-5.75745	-5.38684	-5.7169
  54	1	5	0.095789	-5.17267	-7.42063	-6.2234
  55	1	5	0.095196	-5.11417	-6.22218	-7.44389
  56	1	7	0.084202	-5.17268	-4.52849	-5.50713
  57	1	7	0.07114	-6.01275	-5.76205	-4.66516
  58	1	3	-8e-06	-7.90119	-5.91707	-6.16902
  59	1	1	-0.400145	-10.1787	-6.33868	-6.6413
  60	1	6	0.053825	-9.22282	-5.42239	-6.75043
  61	1	5	0.095789	-8.11751	-5.97581	-5.08532
  62	1	5	0.095196	-7.7068	-6.99586	-6.47021
  63	1	7	0.084202	-9.04623	-5.03974	-7.7549
  64	1	7	0.07114	-9.49876	-4.50093	-6.27029
  65	1	3	-8e-06	-10.9344	-6.67052	-7.56105
  66	1	1	-0.400145	-11.9144	-8.64719	-8.25962
  67	1	6	0.053825	-10.7027	-8.05958	-8.07316
  68	1	5	0.095789	-10.6897	-6.03514	-8.44729
  69	1	5	0.095196	-11.9534	-6.42439	-7.18428
  70	1	7	0.084202	-10.0477	-8.57355	-7.40629
  71	1	7	0.07114	-10.1321	-7.96131	-8.96863
  72	1	3	-8e-06	-11.9462	-9.57273	-9.07546
  73	1	1	-0.400145	-12.0955	-9.79764	-11.3395
  74	1	6	0.053825	-12.8604	-9.45508	-10.3511
  75	1	5	0.095789	-12.3097	-10.4592	-8.57015
  76	1	5	0.095196	-10.958	-9.98119	-9.40781
  77	1	7	0.084202	-13.4086	-8.49426	-10.3715
  78	1	7	0.07114	-13.7526	-10.1165	-10.3422
  79	1	3	-0.232441	-11.3149	-7.38523	-13.1578
  80	1	8	0.444336	-12.2071	-9.32436	-12.4162
  81	1	3	-0.096823	-11.2234	-8.66817	-12.968
  82	1	1	-0.491911	-13.208	-9.29214	-13.0523
  83	1	5	0.148316	-10.5875	-6.86316	-13.7606
  84	1	5	0.163898	-12.1689	-6.79987	-12.8119
  85	1	5	0.064625	-10.4647	-9.11186	-13.5217

Velocities

   1	-0.00575175	-0.00322141	-0.00548077
   2	0.00315821	0.00109682	-0.00319626
   3	-0.00290782	0.00133646	-0.00682672
   4	0.00138155	0.00335764	-0.00741965
   5	0.000447839	0.0063976	-0.00396297
   6	0.0151728	0.00763763	-0.0468943
   7	-0.0112153	0.0187631	-0.0232898
   8	0.00413542	0.0111094	-0.0163259
   9	1.1082e-05	-0.0016454	-0.000461996
  10	0.003063	9.56426e-05	-0.00156364
  11	-0.000165204	0.00436116	-0.00420089
  12	-0.0109256	-0.0298875	0.000724475
  13	-0.00110992	-0.0118504	-0.0153974
  14	-0.0133457	-0.00285282	-0.00844079
  15	-0.00131669	0.00286775	-0.00739711
  16	-0.00338842	-0.000739873	0.00569805
  17	0.000873191	-0.00397584	-0.000218439
  18	-0.00197345	-0.00138871	-0.0114713
  19	0.00922505	0.00348013	0.00306314
  20	-0.0064387	-0.0226634	-0.012299
  21	-0.00721991	0.00658523	0.005275
  22	-0.0084309	0.0105337	0.0229006
  23	-0.000821264	-0.00266196	-0.00436583
  24	-0.00336976	-0.00329918	-0.000347038
  25	-0.000251321	-0.00474155	-0.00199695
  26	-2.81257e-05	-0.00168713	0.0021763
  27	0.00515559	0.0114151	-0.0125241
  28	0.0191041	-0.00233329	-0.0261378
  29	0.0037695	0.00879854	0.0159313
  30	0.00585137	0.00211716	-0.00737433
  31	-0.000164248	0.00199002	0.00104397
  32	-0.0124505	0.00188145	-0.00440269
  33	-0.014831	-0.00704983	-0.0138859
  34	0.00190324	-0.00104131	0.00217913
  35	0.011371	0.013677	-0.0044279
  36	0.0080775	0.010854	-0.00578184
  37	-0.0117231	-0.000871977	0.00278309
  38	0.00656759	-9.69149e-05	0.00177803
  39	-0.00074005	0.00307688	0.00419663
  40	-0.0109186	0.0298411	0.000287683
  41	0.0181143	0.00565454	0.00167139
  42	-0.0279743	-0.00146948	0.00911211
  43	-0.0187303	-0.010273	-0.0127133
  44	-0.00390814	-0.00681197	-0.00202112
  45	0.00310234	0.00579592	0.00174323
  46	-0.00701777	0.00113329	9.71991e-05
  47	0.00963921	0.0221759	-0.00968492
  48	0.00821964	0.00592769	-0.0385288
  49	-0.00347136	-0.0225432	0.0219898
  50	0.0209464	0.017461	-0.0150298
  51	-0.00357385	-0.00713006	0.006415
  52	0.000583728	0.00278213	-0.00873972
  53	-0.000636546	-0.00243023	0.00251619
  54	-0.0175867	-0.00441605	0.00240884
  55	3.02237e-05	-0.0198525	0.015658
  56	-0.00807119	0.00465725	-0.0166082
  57	-0.00224118	0.00888388	0.0103747
  58	-0.000652576	0.00930662	0.000800485
  59	3.89068e-05	-0.00685767	-0.00353461
  60	0.000538738	0.00447628	-0.0116201
  61	-0.00894634	-0.0304433	0.00228115
  62	-0.0104449	-0.0107582	0.0070809
  63	0.00188049	-0.0111924	-0.00323371
  64	0.00875604	-0.000767491	-0.0107308
  65	-0.00155482	-0.00177716	0.00716119
  66	-0.00102598	0.00203632	-0.00188725
  67	-0.00789466	-0.00768231	0.00455313
  68	-0.0438535	0.00766622	0.0273352
  69	-0.0420756	0.00747247	0.0155998
  70	0.0223574	-0.00476871	-0.042834
  71	0.00584775	-0.000937504	0.00668945
  72	0.00305382	-0.00527087	-0.00772531
  73	-0.00498295	-0.00587948	0.0010815
  74	0.00447367	-0.00481323	0.00335638
  75	0.000736988	-0.00933236	0.00740891
  76	0.0116533	0.0294886	0.00454303
  77	-0.0175814	0.00721014	0.0107338
  78	0.00386459	0.0140261	-0.0107833
  79	0.000457277	-0.00403875	-0.00244334
  80	-0.00632511	-0.000361974	0.00445843
  81	0.000420316	0.00226761	0.00434686
  82	-0.00243266	-0.00141044	-0.00113953
  83	0.00684958	0.00998467	-0.0124459
  84	-0.00976846	0.000305108	-0.0333091
  85	-0.00766666	-0.00580186	0.0203233

Bonds

   1	5	1	3
   2	5	2	3
   3	4	3	5
   4	2	4	5
   5	1	4	6
   6	1	4	7
   7	3	5	8
   8	7	9	11
   9	1	9	12
  10	1	9	13
  11	6	10	11
  12	8	11	14
  13	8	11	15
  14	9	1	9
  15	7	16	18
  16	1	16	19
  17	1	16	20
  18	6	17	18
  19	8	18	21
  20	8	18	22
  21	9	10	16
  22	7	23	25
  23	1	23	26
  24	1	23	27
  25	6	24	25
  26	8	25	28
  27	8	25	29
  28	9	17	23
  29	7	30	32
  30	1	30	33
  31	1	30	34
  32	6	31	32
  33	8	32	35
  34	8	32	36
  35	9	24	30
  36	7	37	39
  37	1	37	40
  38	1	37	41
  39	6	38	39
  40	8	39	42
  41	8	39	43
  42	9	31	37
  43	7	44	46
  44	1	44	47
  45	1	44	48
  46	6	45	46
  47	8	46	49
  48	8	46	50
  49	9	38	44
  50	7	51	53
  51	1	51	54
  52	1	51	55
  53	6	52	53
  54	8	53	56
  55	8	53	57
  56	9	45	51
  57	7	58	60
  58	1	58	61
  59	1	58	62
  60	6	59	60
  61	8	60	63
  62	8	60	64
  63	9	52	58
  64	7	65	67
  65	1	65	68
  66	1	65	69
  67	6	66	67
  68	8	67	70
  69	8	67	71
  70	9	59	65
  71	7	72	74
  72	1	72	75
  73	1	72	76
  74	6	73	74
  75	8	74	77
  76	8	74	78
  77	9	66	72
  78	12	79	81
  79	1	79	83
  80	1	79	84
  81	10	80	81
  82	11	80	82
  83	1	81	85
  84	11	73	80

Angles

   1	7	1	3	2
   2	6	1	3	5
   3	6	2	3	5
   4	2	5	4	6
   5	2	5	4	7
   6	1	6	4	7
   7	5	3	5	4
   8	4	3	5	8
   9	3	4	5	8
  10	10	11	9	12
  11	10	11	9	13
  12	1	12	9	13
  13	9	9	11	10
  14	8	9	11	14
  15	8	9	11	15
  16	12	10	11	14
  17	12	10	11	15
  18	11	14	11	15
  19	13	3	1	9
  20	14	1	9	11
  21	15	1	9	12
  22	15	1	9	13
  23	10	18	16	19
  24	10	18	16	20
  25	1	19	16	20
  26	9	16	18	17
  27	8	16	18	21
  28	8	16	18	22
  29	12	17	18	21
  30	12	17	18	22
  31	11	21	18	22
  32	16	11	10	16
  33	14	10	16	18
  34	15	10	16	19
  35	15	10	16	20
  36	10	25	23	26
  37	10	25	23	27
  38	1	26	23	27
  39	9	23	25	24
  40	8	23	25	28
  41	8	23	25	29
  42	12	24	25	28
  43	12	24	25	29
  44	11	28	25	29
  45	16	18	17	23
  46	14	17	23	25
  47	15	17	23	26
  48	15	17	23	27
  49	10	32	30	33
  50	10	32	30	34
  51	1	33	30	34
  52	9	30	32	31
  53	8	30	32	35
  54	8	30	32	36
  55	12	31	32	35
  56	12	31	32	36
  57	11	35	32	36
  58	16	25	24	30
  59	14	24	30	32
  60	15	24	30	33
  61	15	24	30	34
  62	10	39	37	40
  63	10	39	37	41
  64	1	40	37	41
  65	9	37	39	38
  66	8	37	39	42
  67	8	37	39	43
  68	12	38	39	42
  69	12	38	39	43
  70	11	42	39	43
  71	16	32	31	37
  72	14	31	37	39
  73	15	31	37	40
  74	15	31	37	41
  75	10	46	44	47
  76	10	46	44	48
  77	1	47	44	48
  78	9	44	46	45
  79	8	44	46	49
  80	8	44	46	50
  81	12	45	46	49
  82	12	45	46	50
  83	11	49	46	50
  84	16	39	38	44
  85	14	38	44	46
  86	15	38	44	47
  87	15	38	44	48
  88	10	53	51	54
  89	10	53	51	55
  90	1	54	51	55
  91	9	51	53	52
  92	8	51	53	56
  93	8	51	53	57
  94	12	52	53	56
  95	12	52	53	57
  96	11	56	53	57
  97	16	46	45	51
  98	14	45	51	53
  99	15	45	51	54
 100	15	45	51	55
 101	10	60	58	61
 102	10	60	58	62
 103	1	61	58	62
 104	9	58	60	59
 105	8	58	60	63
 106	8	58	60	64
 107	12	59	60	63
 108	12	59	60	64
 109	11	63	60	64
 110	16	53	52	58
 111	14	52	58	60
 112	15	52	58	61
 113	15	52	58	62
 114	10	67	65	68
 115	10	67	65	69
 116	1	68	65	69
 117	9	65	67	66
 118	8	65	67	70
 119	8	65	67	71
 120	12	66	67	70
 121	12	66	67	71
 122	11	70	67	71
 123	16	60	59	65
 124	14	59	65	67
 125	15	59	65	68
 126	15	59	65	69
 127	10	74	72	75
 128	10	74	72	76
 129	1	75	72	76
 130	9	72	74	73
 131	8	72	74	77
 132	8	72	74	78
 133	12	73	74	77
 134	12	73	74	78
 135	11	77	74	78
 136	16	67	66	72
 137	14	66	72	74
 138	15	66	72	75
 139	15	66	72	76
 140	19	81	79	83
 141	19	81	79	84
 142	1	83	79	84
 143	17	81	80	82
 144	18	79	81	80
 145	19	79	81	85
 146	20	80	81	85
 147	21	74	73	80
 148	17	73	80	81
 149	22	73	80	82

Dihedrals

   1	2	1	3	5	4
   2	2	1	3	5	8
   3	2	2	3	5	4
   4	2	2	3	5	8
   5	1	6	4	5	3
   6	1	6	4	5	8
   7	1	7	4	5	3
   8	1	7	4	5	8
   9	3	12	9	11	10
  10	3	12	9	11	14
  11	3	12	9	11	15
  12	3	13	9	11	10
  13	3	13	9	11	14
  14	3	13	9	11	15
  15	3	1	9	11	10
  16	3	1	9	11	14
  17	3	1	9	11	15
  18	3	19	16	18	17
  19	3	19	16	18	21
  20	3	19	16	18	22
  21	3	20	16	18	17
  22	3	20	16	18	21
  23	3	20	16	18	22
  24	3	10	16	18	17
  25	3	10	16	18	21
  26	3	10	16	18	22
  27	3	26	23	25	24
  28	3	26	23	25	28
  29	3	26	23	25	29
  30	3	27	23	25	24
  31	3	27	23	25	28
  32	3	27	23	25	29
  33	3	17	23	25	24
  34	3	17	23	25	28
  35	3	17	23	25	29
  36	3	33	30	32	31
  37	3	33	30	32	35
  38	3	33	30	32	36
  39	3	34	30	32	31
  40	3	34	30	32	35
  41	3	34	30	32	36
  42	3	24	30	32	31
  43	3	24	30	32	35
  44	3	24	30	32	36
  45	3	40	37	39	38
  46	3	40	37	39	42
  47	3	40	37	39	43
  48	3	41	37	39	38
  49	3	41	37	39	42
  50	3	41	37	39	43
  51	3	31	37	39	38
  52	3	31	37	39	42
  53	3	31	37	39	43
  54	3	47	44	46	45
  55	3	47	44	46	49
  56	3	47	44	46	50
  57	3	48	44	46	45
  58	3	48	44	46	49
  59	3	48	44	46	50
  60	3	38	44	46	45
  61	3	38	44	46	49
  62	3	38	44	46	50
  63	3	54	51	53	52
  64	3	54	51	53	56
  65	3	54	51	53	57
  66	3	55	51	53	52
  67	3	55	51	53	56
  68	3	55	51	53	57
  69	3	45	51	53	52
  70	3	45	51	53	56
  71	3	45	51	53	57
  72	3	61	58	60	59
  73	3	61	58	60	63
  74	3	61	58	60	64
  75	3	62	58	60	59
  76	3	62	58	60	63
  77	3	62	58	60	64
  78	3	52	58	60	59
  79	3	52	58	60	63
  80	3	52	58	60	64
  81	3	68	65	67	66
  82	3	68	65	67	70
  83	3	68	65	67	71
  84	3	69	65	67	66
  85	3	69	65	67	70
  86	3	69	65	67	71
  87	3	59	65	67	66
  88	3	59	65	67	70
  89	3	59	65	67	71
  90	3	75	72	74	73
  91	3	75	72	74	77
  92	3	75	72	74	78
  93	3	76	72	74	73
  94	3	76	72	74	77
  95	3	76	72	74	78
  96	3	66	72	74	73
  97	3	66	72	74	77
  98	3	66	72	74	78
  99	4	83	79	81	80
 100	4	83	79	81	85
 101	4	84	79	81	80
 102	4	84	79	81	85
 103	5	82	80	81	79
 104	5	82	80	81	85
 105	5	73	80	81	79
 106	5	73	80	81	85

Impropers

   1	1	3	1	2	5

