pySIMM System Object

169 atoms
168 bonds
305 angles
214 dihedrals
1 impropers

8 atom types
12 bond types
22 angle types
5 dihedral types
1 improper types

-70.746414 70.746414 xlo xhi
-70.746414 70.746414 ylo yhi
-70.746414 70.746414 zlo zhi

Masses

   1	16.0	# o
   2	12.01	# c
   3	12.01	# c2
   4	12.01	# ce
   5	1.008	# ha
   6	12.01	# c3
   7	1.008	# h1
   8	12.01	# c1

Pair Coeffs

   1	0.21	2.959921901149463	# o
   2	0.086	3.3996695084235347	# c
   3	0.086	3.3996695084235347	# c2
   4	0.086	3.3996695084235347	# ce
   5	0.015	2.59964245953351	# ha
   6	0.1094	3.3996695084235347	# c3
   7	0.0157	2.471353044121301	# h1
   8	0.21	3.3996695084235347	# c1

Bond Coeffs

   1	343.1	1.0879	# c2,ha
   2	547.3	1.3461	# c2,ce
   3	342.5	1.0883	# ce,ha
   4	354.5	1.4825	# c,ce
   5	637.7	1.2183	# c,o
   6	449.9	1.3165	# c3,o
   7	326.8	1.5095	# c2,c3
   8	330.6	1.0969	# c3,h1
   9	622.9	1.2247	# c2,o
  10	625.0	1.307	# c1,c2
  11	758.1	1.1724	# c1,o
  12	569.4	1.3343	# c2,c2

Angle Coeffs

   1	38.11	116.9	# ha,c2,ha
   2	49.51	120.45	# ce,c2,ha
   3	49.61	119.94	# c2,ce,ha
   4	46.52	116.46	# c,ce,ha
   5	65.45	120.42	# c,ce,c2
   6	68.83	123.2	# ce,c,o
   7	77.94	130.25	# o,c,o
   8	47.07	109.96	# c2,c3,h1
   9	68.15	110.35	# c2,c3,o
  10	45.94	115.68	# c3,c2,ha
  11	39.24	108.46	# h1,c3,h1
  12	52.64	116.45	# h1,c3,o
  13	65.83	113.14	# c2,o,c
  14	67.92	122.82	# c3,c2,o
  15	55.28	117.23	# ha,c2,o
  16	65.83	113.14	# c2,o,c3
  17	62.94	179.5	# c2,c1,o
  18	70.06	121.62	# c1,c2,c2
  19	49.85	120.43	# c2,c2,ha
  20	50.62	120.42	# c1,c2,ha
  21	65.83	113.14	# c3,o,c1
  22	68.89	180.0	# o,c1,o

Dihedral Coeffs

   1	1	6.65	2	180	# X,c2,ce,X
   2	1	2.175	2	180	# X,c,ce,X
   3	1	0.0	2	0	# X,c2,c3,X
   4	1	6.65	2	180	# X,c2,c2,X
   5	1	0.0	2	180	# X,c1,c2,X

Improper Coeffs

   1	10.5	-1	2	# c,X,X,o

Atoms

   1	1	1	-0.104756	-4.23464	6.83756	-17.8825
   2	1	1	-0.569213	-3.7071	6.53727	-20.0145
   3	1	2	0.789146	-3.45224	6.67916	-18.8265
   4	1	3	-0.154228	-1.38258	6.45909	-17.3824
   5	1	4	-0.389642	-1.98827	6.58262	-18.5831
   6	1	5	0.157325	-0.279877	6.49519	-17.3157
   7	1	5	0.138289	-1.90691	6.41156	-16.434
   8	1	5	0.133078	-1.39843	6.60985	-19.5061
   9	1	3	-8e-06	-5.29371	6.21156	-17.8249
  10	1	1	-0.400145	-5.05538	5.55949	-15.6739
  11	1	6	0.053825	-5.93151	6.1853	-16.4348
  12	1	5	0.095789	-5.15898	5.15798	-18.1065
  13	1	5	0.095196	-6.01396	6.63715	-18.529
  14	1	7	0.084202	-6.95702	5.76666	-16.5381
  15	1	7	0.07114	-6.05725	7.24987	-16.2086
  16	1	3	-8e-06	-4.98321	6.02068	-14.5415
  17	1	1	-0.400145	-4.64254	5.48744	-12.3899
  18	1	6	0.053825	-4.49481	4.99131	-13.6133
  19	1	5	0.095789	-5.91218	6.44975	-14.1669
  20	1	5	0.095196	-4.25714	6.85047	-14.5659
  21	1	7	0.084202	-3.45834	4.75678	-13.9129
  22	1	7	0.07114	-5.03171	4.07522	-13.8347
  23	1	3	-8e-06	-3.70755	5.41746	-11.6104
  24	1	1	-0.400145	-2.33501	3.65906	-11.9993
  25	1	6	0.053825	-3.19632	4.06895	-11.1408
  26	1	5	0.095789	-4.00407	5.97502	-10.7116
  27	1	5	0.095196	-2.84757	5.985	-12.0157
  28	1	7	0.084202	-4.09094	3.40868	-11.0218
  29	1	7	0.07114	-2.81573	4.17999	-10.1084
  30	1	3	-8e-06	-1.55621	2.77692	-11.6719
  31	1	1	-0.400145	0.590676	2.21779	-11.1408
  32	1	6	0.053825	-0.241255	3.22905	-11.1181
  33	1	5	0.095789	-1.32168	2.1851	-12.557
  34	1	5	0.095196	-1.95166	2.03799	-10.9192
  35	1	7	0.084202	-0.506307	3.64191	-10.1293
  36	1	7	0.07114	0.093313	4.06145	-11.6859
  37	1	3	-8e-06	1.53086	2.31199	-10.3611
  38	1	1	-0.400145	3.54146	1.37465	-9.86381
  39	1	6	0.053825	2.31158	1.0706	-10.2116
  40	1	5	0.095789	2.21024	3.08565	-10.6678
  41	1	5	0.095196	1.21239	2.50932	-9.34889
  42	1	7	0.084202	2.26232	0.564212	-11.207
  43	1	7	0.07114	1.73915	0.421007	-9.51299
  44	1	3	-8e-06	4.38909	0.471589	-9.99781
  45	1	1	-0.400145	5.82766	-1.00283	-9.19701
  46	1	6	0.053825	5.25545	0.118328	-8.79905
  47	1	5	0.095789	5.08204	0.811637	-10.7761
  48	1	5	0.095196	4.00642	-0.455726	-10.4028
  49	1	7	0.084202	4.6137	-0.0211082	-7.9142
  50	1	7	0.07114	5.87922	0.945772	-8.51507
  51	1	3	-8e-06	6.88419	-1.38902	-8.67091
  52	1	1	-0.400145	8.85355	-2.47569	-9.01381
  53	1	6	0.053825	7.65592	-2.35757	-9.55098
  54	1	5	0.095789	6.61093	-1.86907	-7.74171
  55	1	5	0.095196	7.56619	-0.582491	-8.44477
  56	1	7	0.084202	7.67538	-2.07524	-10.5976
  57	1	7	0.07114	7.15569	-3.37307	-9.57952
  58	1	3	-8e-06	9.84883	-2.96976	-9.59137
  59	1	1	-0.400145	10.7121	-4.74942	-10.8013
  60	1	6	0.053825	9.86467	-4.4358	-9.85306
  61	1	5	0.095789	10.7147	-2.85217	-8.95009
  62	1	5	0.095196	10.0651	-2.41754	-10.4879
  63	1	7	0.084202	8.87847	-4.8747	-10.0123
  64	1	7	0.07114	10.1429	-4.86651	-8.91725
  65	1	3	-8e-06	11.0502	-5.931	-10.888
  66	1	1	-0.400145	11.8291	-7.64503	-12.1266
  67	1	6	0.053825	11.3549	-6.41161	-12.2036
  68	1	5	0.095789	10.3208	-6.65536	-10.5698
  69	1	5	0.095196	11.9427	-6.10866	-10.2842
  70	1	7	0.084202	12.0063	-5.71019	-12.6375
  71	1	7	0.07114	10.4047	-6.35799	-12.8196
  72	1	3	-8e-06	12.6	-8.08257	-12.9389
  73	1	1	-0.400145	12.0261	-10.4464	-12.8778
  74	1	6	0.053825	12.9899	-9.50624	-12.6713
  75	1	5	0.095789	13.5061	-7.47644	-12.886
  76	1	5	0.095196	12.0877	-8.07458	-13.8715
  77	1	7	0.084202	13.3726	-9.50617	-11.633
  78	1	7	0.07114	13.8768	-9.75948	-13.2501
  79	1	3	-8e-06	11.1561	-10.659	-12.0008
  80	1	1	-0.400145	9.13474	-9.89788	-11.1914
  81	1	6	0.053825	9.82251	-9.99645	-12.3026
  82	1	5	0.095789	11.4484	-10.3068	-11.034
  83	1	5	0.095196	10.9385	-11.7629	-11.8666
  84	1	7	0.084202	9.34787	-10.6551	-13.0493
  85	1	7	0.07114	9.92526	-9.08674	-12.8335
  86	1	3	-8e-06	8.05158	-9.25273	-11.2615
  87	1	1	-0.400145	6.30847	-8.25117	-10.1433
  88	1	6	0.053825	7.29721	-9.11688	-9.94614
  89	1	5	0.095789	7.38418	-9.74832	-12.0387
  90	1	5	0.095196	8.22456	-8.16706	-11.6051
  91	1	7	0.084202	7.98931	-8.81595	-9.10719
  92	1	7	0.07114	6.97125	-10.0852	-9.56662
  93	1	3	-8e-06	5.84098	-7.52332	-9.24967
  94	1	1	-0.400145	7.69081	-6.51441	-8.28252
  95	1	6	0.053825	6.62759	-6.24989	-8.98021
  96	1	5	0.095789	5.83605	-8.02882	-8.23258
  97	1	5	0.095196	4.83487	-7.28498	-9.55555
  98	1	7	0.084202	5.93644	-5.46214	-8.57709
  99	1	7	0.07114	6.85057	-5.83173	-9.94771
 100	1	3	-8e-06	8.01524	-6.04913	-7.21007
 101	1	1	-0.400145	9.38977	-7.078	-5.57314
 102	1	6	0.053825	9.45215	-6.34684	-6.71087
 103	1	5	0.095789	7.31427	-6.4619	-6.53676
 104	1	5	0.095196	7.99643	-4.95947	-7.18982
 105	1	7	0.084202	9.9114	-5.33781	-6.67304
 106	1	7	0.07114	9.97034	-6.82129	-7.51205
 107	1	3	-8e-06	9.49422	-8.3218	-5.69604
 108	1	1	-0.400145	8.86437	-10.1832	-4.66513
 109	1	6	0.053825	8.34558	-9.08222	-5.21542
 110	1	5	0.095789	10.3831	-8.66105	-5.18205
 111	1	5	0.095196	9.76165	-8.64487	-6.6749
 112	1	7	0.084202	7.67894	-9.28547	-6.07341
 113	1	7	0.07114	7.90685	-8.36593	-4.54511
 114	1	3	-8e-06	8.35795	-10.7405	-3.7192
 115	1	1	-0.400145	6.13528	-10.4014	-3.35253
 116	1	6	0.053825	6.95511	-11.3591	-3.74786
 117	1	5	0.095789	8.30203	-10.0527	-2.8581
 118	1	5	0.095196	9.06769	-11.5216	-3.37448
 119	1	7	0.084202	6.88015	-12.2925	-3.10574
 120	1	7	0.07114	7.0332	-11.7944	-4.78956
 121	1	3	-8e-06	5.02371	-10.7893	-3.0433
 122	1	1	-0.400145	3.92531	-8.90825	-2.44957
 123	1	6	0.053825	4.24878	-10.0587	-1.98588
 124	1	5	0.095789	5.09557	-11.8744	-2.75324
 125	1	5	0.095196	4.39957	-10.7093	-3.91177
 126	1	7	0.084202	4.96728	-10.08	-1.14418
 127	1	7	0.07114	3.3809	-10.7914	-1.64541
 128	1	3	-8e-06	4.69646	-7.98641	-2.21549
 129	1	1	-0.400145	5.08621	-5.65406	-2.6028
 130	1	6	0.053825	4.6704	-6.81944	-3.17707
 131	1	5	0.095789	5.78551	-8.22459	-2.13856
 132	1	5	0.095196	4.47611	-7.49343	-1.21008
 133	1	7	0.084202	3.65332	-6.66894	-3.53255
 134	1	7	0.07114	5.1378	-7.18082	-4.10001
 135	1	3	-8e-06	6.28563	-5.47952	-2.52163
 136	1	1	-0.400145	8.12308	-5.91597	-1.19987
 137	1	6	0.053825	6.88928	-5.48912	-1.12203
 138	1	5	0.095789	6.5418	-4.49885	-2.94485
 139	1	5	0.095196	6.78527	-6.20904	-3.07227
 140	1	7	0.084202	6.29089	-6.09755	-0.412324
 141	1	7	0.07114	6.7504	-4.38556	-0.743402
 142	1	3	-8e-06	8.79243	-5.96652	-0.156442
 143	1	1	-0.400145	8.35898	-8.10565	0.706332
 144	1	6	0.053825	9.29678	-7.40037	0.0661239
 145	1	5	0.095789	8.28527	-5.80696	0.767393
 146	1	5	0.095196	9.66311	-5.29278	-0.223194
 147	1	7	0.084202	10.2611	-7.20361	0.635338
 148	1	7	0.07114	9.62766	-7.68353	-0.941272
 149	1	3	-8e-06	8.13698	-9.26722	0.385959
 150	1	1	-0.400145	9.53573	-10.6432	-0.849337
 151	1	6	0.053825	9.22259	-10.2463	0.38068
 152	1	5	0.095789	7.67612	-9.28908	-0.599579
 153	1	5	0.095196	7.54008	-9.69757	1.08117
 154	1	7	0.084202	8.91726	-11.0785	0.991313
 155	1	7	0.07114	10.1246	-9.7888	0.793903
 156	1	3	-8e-06	10.5119	-11.4302	-1.06412
 157	1	1	-0.400145	10.5395	-13.6283	-1.95609
 158	1	6	0.053825	10.2449	-12.8763	-0.879194
 159	1	5	0.095789	11.3525	-11.1925	-0.326276
 160	1	5	0.095196	10.9534	-11.3261	-2.13375
 161	1	7	0.084202	9.16573	-12.9185	-0.773473
 162	1	7	0.07114	10.6634	-13.3702	-0.00394567
 163	1	3	-0.232441	10.9897	-16.775	-2.32334
 164	1	8	0.444336	10.0026	-14.6661	-2.15171
 165	1	3	-0.096823	10.4722	-15.7974	-1.68068
 166	1	1	-0.491911	8.98647	-14.8006	-2.74438
 167	1	5	0.148316	11.5532	-17.6132	-1.91739
 168	1	5	0.163898	10.8002	-16.8671	-3.36248
 169	1	5	0.064625	10.8991	-15.7309	-0.633993

Velocities

   1	0.00224833	0.00240086	-0.0074882
   2	0.00487877	-0.00452917	-0.00577124
   3	0.00412174	-0.00283907	-0.00732535
   4	0.00250128	-0.00675685	-0.00656509
   5	0.00109009	-0.00396849	-0.00391827
   6	0.00754599	-0.0295555	0.00650262
   7	0.0124222	0.0059425	0.000915721
   8	0.00802103	-0.0128839	0.000495549
   9	0.00608016	0.000240794	-0.00186639
  10	-0.000423212	0.000550876	-0.0100789
  11	0.000241233	-0.000883347	-0.00562444
  12	0.0147361	-0.00785449	0.00683572
  13	-0.00655714	-2.51556e-05	-0.00106442
  14	0.0122957	-0.0170666	-0.0127828
  15	-0.00133549	-0.0104237	0.00218171
  16	-0.00118795	-0.00534672	-0.00871414
  17	0.00465881	0.00692296	-0.0101009
  18	-0.000398544	-0.00299633	-0.00828155
  19	0.00398182	0.000145859	-0.0127662
  20	-0.00897964	0.011484	5.18745e-05
  21	0.000488132	-0.00879502	-0.00138583
  22	0.00286782	0.000579698	-0.00653801
  23	0.00411089	-0.00394799	-0.00707258
  24	0.00505598	0.00099153	-0.00800059
  25	0.000508964	0.000262538	-0.00511849
  26	-0.00292101	-0.0018851	-0.00359833
  27	0.00591278	-0.00400481	0.0109197
  28	0.0074518	0.00582429	0.0198068
  29	0.00762488	0.000394978	0.0015375
  30	0.000890076	-0.0027402	-0.00607849
  31	0.00260551	0.0036195	-0.00178886
  32	0.00145114	-0.000764401	-0.00332518
  33	-0.00125837	-0.00862724	-0.00569273
  34	-0.012852	-0.00205831	-0.00594042
  35	-0.00654359	-0.00901603	-0.00205573
  36	0.00360154	0.00722895	-0.0124263
  37	0.00233674	-0.00199487	-0.00277521
  38	0.00322982	0.00308513	-0.00237692
  39	-0.00131249	0.0039503	-0.0103175
  40	0.0101141	-0.0140304	-0.00562862
  41	0.00821782	0.00921971	0.00538797
  42	0.00596721	-0.0168157	-0.00951312
  43	0.00508048	-0.00241795	0.00811578
  44	0.00280559	0.0041723	-0.00566144
  45	-0.0027376	-0.012841	0.00637212
  46	0.00414754	0.000805694	-0.00327083
  47	0.0159172	0.0102486	-0.00983045
  48	-0.00277223	0.0244021	-0.00475279
  49	-0.00393735	0.0185973	-0.0120797
  50	-0.00128148	0.00117192	-0.0162565
  51	0.00234675	0.00533446	0.000447167
  52	0.00318513	-2.24013e-05	-0.00044233
  53	-0.00180589	-0.000774197	-0.00462319
  54	0.0180893	0.00537113	0.00904246
  55	0.00132729	0.0198767	-0.00114323
  56	0.00152008	0.00775588	-0.00510172
  57	0.00950307	-0.00238159	0.00776237
  58	0.00418285	-0.00546774	0.00848525
  59	-0.00653629	-0.00304752	0.00222394
  60	-0.00180812	-0.00452313	0.000375266
  61	0.0110887	-0.00783927	0.0111533
  62	0.026935	0.00115533	0.00116129
  63	-0.0186984	0.00169779	0.00157279
  64	-0.0132078	-0.00723407	-0.000123166
  65	-0.00261996	-0.00119809	-0.00526059
  66	0.0104057	0.00283248	0.00377933
  67	0.0106401	-0.00691192	0.00532352
  68	0.00734955	-0.0118148	0.0109932
  69	0.0124156	0.0170897	-0.0187204
  70	0.00527866	-0.00563443	-0.00268081
  71	0.0281515	-0.00200236	0.0120126
  72	0.00204162	-0.00380342	-0.00462763
  73	0.00156009	-0.00587988	-0.000359458
  74	0.00586203	-0.00695747	-0.00208254
  75	0.0189365	-0.00729847	0.0125195
  76	0.000762766	0.00332857	0.000953628
  77	-0.0134091	0.0036605	-0.00663327
  78	0.0195292	-0.00708713	0.0201445
  79	0.00341866	0.00078899	0.00257981
  80	-0.005503	0.000878544	-0.00623493
  81	0.00250175	0.00208201	0.0014565
  82	-0.0072302	-0.000469637	-0.0259399
  83	0.0199713	-0.011615	-0.0120242
  84	0.0276799	0.0129576	0.00873973
  85	0.0267216	0.0118631	-0.00564946
  86	0.000666899	-0.00262112	0.00809764
  87	-0.00440368	-0.000591916	-0.00036925
  88	-0.00933049	-0.0018712	0.00549687
  89	0.00691787	0.013457	0.00574706
  90	-0.0308126	-0.000559745	-0.00948289
  91	-0.0020617	-0.00835019	-0.00827519
  92	0.0225575	0.00132358	-0.0106269
  93	-0.00661853	-0.00763539	0.0105433
  94	0.00499606	-0.00163286	0.00270933
  95	0.00609576	-0.00116445	-6.51008e-05
  96	0.0156262	-0.000717402	-0.0168655
  97	0.010728	-0.0176386	0.0185861
  98	0.00832157	0.00523135	6.24486e-05
  99	0.033649	-0.000836511	0.000651772
 100	0.0017692	-0.00376799	0.00618669
 101	-0.00142075	0.00173927	0.00131719
 102	0.00858294	-0.00382586	-0.00655628
 103	0.018617	-0.0125068	-0.00939182
 104	0.0170401	-0.00945965	0.00991723
 105	-0.00997347	0.00284846	0.011061
 106	0.0227859	0.0436364	0.0172705
 107	-0.00130656	-0.00561895	-0.000894051
 108	0.0058767	0.00129773	-0.00298183
 109	0.00254815	0.00403574	-0.0120245
 110	0.00883291	0.00723627	0.0139488
 111	0.0196627	-0.0117479	0.00757512
 112	0.0136387	0.00490177	0.00161128
 113	0.0172761	0.0171433	-0.0332194
 114	-0.00228478	-0.00239626	0.000218507
 115	0.00413623	0.00447057	-0.00726889
 116	-0.00503052	-0.00167203	0.00570593
 117	0.0158001	-0.0122076	0.0128632
 118	0.00486171	0.000503534	0.00842778
 119	0.0305167	0.00014073	-0.0012741
 120	0.00594526	-0.0177482	0.0026364
 121	-0.00794795	-0.0052684	-0.00411605
 122	-0.00636155	-0.000776318	-0.00783514
 123	0.0016452	-0.0059608	0.00475815
 124	0.00796321	0.0148063	0.000373555
 125	0.0043119	0.00641073	0.0034381
 126	0.0126925	0.00868868	0.0126575
 127	-0.00386925	-0.0181697	0.0124403
 128	-0.00035573	0.00347272	-0.000160529
 129	0.00556607	-0.00332082	-0.00881684
 130	0.0024068	-0.00248793	0.000758905
 131	-0.0295314	-0.000988222	-0.0225395
 132	-0.00401085	0.0248892	0.00350053
 133	-0.0167936	0.0137384	0.0130107
 134	-0.0106167	0.0355603	0.010751
 135	0.00283586	0.00238203	-0.000797623
 136	-0.00101803	0.00241134	-0.00259055
 137	0.00573193	0.000463174	-0.000185044
 138	-0.0178024	0.0370031	-0.0285035
 139	0.00419576	0.00454186	0.00938454
 140	-0.0228831	0.00811295	-0.00656079
 141	-0.0214583	-0.0278852	0.00225787
 142	0.00722699	0.00688647	-0.00865623
 143	-0.00362263	-0.00448097	-0.00250395
 144	0.00695246	-0.00358726	-0.00360472
 145	0.000782232	0.0142453	0.015813
 146	-0.00614288	-2.01645e-05	0.00689419
 147	0.0544805	0.0125341	-0.0146027
 148	-0.00310779	0.0202134	-0.00180838
 149	0.00172991	0.00244947	0.000924747
 150	-0.00062294	-6.41314e-05	-0.00036183
 151	0.00027545	0.0065086	0.00846746
 152	0.0145072	0.00237387	-0.00767279
 153	-0.0326794	0.0222627	0.0194012
 154	-0.0095718	-0.0125587	0.00685155
 155	-0.0267098	0.0123675	-0.0127871
 156	-0.00470914	-0.004998	-9.26986e-06
 157	0.00112021	0.00218339	-0.000557654
 158	-9.38248e-05	-0.00782846	0.01325
 159	0.00769116	0.00132033	0.0091286
 160	0.000374509	-0.0196696	0.022959
 161	-0.000504498	0.0218537	0.0153424
 162	-0.0205129	0.00962438	0.000113934
 163	-0.00650267	-0.00558661	-0.00549098
 164	-0.00645062	-0.000960036	-0.00739968
 165	-0.000724728	-0.00730052	-0.00174951
 166	-0.00807626	-0.000318317	0.00472937
 167	-0.013566	-0.00853914	-0.0195599
 168	-0.0361334	-0.0189072	0.0113304
 169	0.0138353	-0.0131572	-0.0283303

Bonds

   1	5	1	3
   2	5	2	3
   3	4	3	5
   4	2	4	5
   5	1	4	6
   6	1	4	7
   7	3	5	8
   8	7	9	11
   9	1	9	12
  10	1	9	13
  11	6	10	11
  12	8	11	14
  13	8	11	15
  14	9	1	9
  15	7	16	18
  16	1	16	19
  17	1	16	20
  18	6	17	18
  19	8	18	21
  20	8	18	22
  21	9	10	16
  22	7	23	25
  23	1	23	26
  24	1	23	27
  25	6	24	25
  26	8	25	28
  27	8	25	29
  28	9	17	23
  29	7	30	32
  30	1	30	33
  31	1	30	34
  32	6	31	32
  33	8	32	35
  34	8	32	36
  35	9	24	30
  36	7	37	39
  37	1	37	40
  38	1	37	41
  39	6	38	39
  40	8	39	42
  41	8	39	43
  42	9	31	37
  43	7	44	46
  44	1	44	47
  45	1	44	48
  46	6	45	46
  47	8	46	49
  48	8	46	50
  49	9	38	44
  50	7	51	53
  51	1	51	54
  52	1	51	55
  53	6	52	53
  54	8	53	56
  55	8	53	57
  56	9	45	51
  57	7	58	60
  58	1	58	61
  59	1	58	62
  60	6	59	60
  61	8	60	63
  62	8	60	64
  63	9	52	58
  64	7	65	67
  65	1	65	68
  66	1	65	69
  67	6	66	67
  68	8	67	70
  69	8	67	71
  70	9	59	65
  71	7	72	74
  72	1	72	75
  73	1	72	76
  74	6	73	74
  75	8	74	77
  76	8	74	78
  77	9	66	72
  78	7	79	81
  79	1	79	82
  80	1	79	83
  81	6	80	81
  82	8	81	84
  83	8	81	85
  84	9	73	79
  85	7	86	88
  86	1	86	89
  87	1	86	90
  88	6	87	88
  89	8	88	91
  90	8	88	92
  91	9	80	86
  92	7	93	95
  93	1	93	96
  94	1	93	97
  95	6	94	95
  96	8	95	98
  97	8	95	99
  98	9	87	93
  99	7	100	102
 100	1	100	103
 101	1	100	104
 102	6	101	102
 103	8	102	105
 104	8	102	106
 105	9	94	100
 106	7	107	109
 107	1	107	110
 108	1	107	111
 109	6	108	109
 110	8	109	112
 111	8	109	113
 112	9	101	107
 113	7	114	116
 114	1	114	117
 115	1	114	118
 116	6	115	116
 117	8	116	119
 118	8	116	120
 119	9	108	114
 120	7	121	123
 121	1	121	124
 122	1	121	125
 123	6	122	123
 124	8	123	126
 125	8	123	127
 126	9	115	121
 127	7	128	130
 128	1	128	131
 129	1	128	132
 130	6	129	130
 131	8	130	133
 132	8	130	134
 133	9	122	128
 134	7	135	137
 135	1	135	138
 136	1	135	139
 137	6	136	137
 138	8	137	140
 139	8	137	141
 140	9	129	135
 141	7	142	144
 142	1	142	145
 143	1	142	146
 144	6	143	144
 145	8	144	147
 146	8	144	148
 147	9	136	142
 148	7	149	151
 149	1	149	152
 150	1	149	153
 151	6	150	151
 152	8	151	154
 153	8	151	155
 154	9	143	149
 155	7	156	158
 156	1	156	159
 157	1	156	160
 158	6	157	158
 159	8	158	161
 160	8	158	162
 161	9	150	156
 162	12	163	165
 163	1	163	167
 164	1	163	168
 165	10	164	165
 166	11	164	166
 167	1	165	169
 168	11	157	164

Angles

   1	7	1	3	2
   2	6	1	3	5
   3	6	2	3	5
   4	2	5	4	6
   5	2	5	4	7
   6	1	6	4	7
   7	5	3	5	4
   8	4	3	5	8
   9	3	4	5	8
  10	10	11	9	12
  11	10	11	9	13
  12	1	12	9	13
  13	9	9	11	10
  14	8	9	11	14
  15	8	9	11	15
  16	12	10	11	14
  17	12	10	11	15
  18	11	14	11	15
  19	13	3	1	9
  20	14	1	9	11
  21	15	1	9	12
  22	15	1	9	13
  23	10	18	16	19
  24	10	18	16	20
  25	1	19	16	20
  26	9	16	18	17
  27	8	16	18	21
  28	8	16	18	22
  29	12	17	18	21
  30	12	17	18	22
  31	11	21	18	22
  32	16	11	10	16
  33	14	10	16	18
  34	15	10	16	19
  35	15	10	16	20
  36	10	25	23	26
  37	10	25	23	27
  38	1	26	23	27
  39	9	23	25	24
  40	8	23	25	28
  41	8	23	25	29
  42	12	24	25	28
  43	12	24	25	29
  44	11	28	25	29
  45	16	18	17	23
  46	14	17	23	25
  47	15	17	23	26
  48	15	17	23	27
  49	10	32	30	33
  50	10	32	30	34
  51	1	33	30	34
  52	9	30	32	31
  53	8	30	32	35
  54	8	30	32	36
  55	12	31	32	35
  56	12	31	32	36
  57	11	35	32	36
  58	16	25	24	30
  59	14	24	30	32
  60	15	24	30	33
  61	15	24	30	34
  62	10	39	37	40
  63	10	39	37	41
  64	1	40	37	41
  65	9	37	39	38
  66	8	37	39	42
  67	8	37	39	43
  68	12	38	39	42
  69	12	38	39	43
  70	11	42	39	43
  71	16	32	31	37
  72	14	31	37	39
  73	15	31	37	40
  74	15	31	37	41
  75	10	46	44	47
  76	10	46	44	48
  77	1	47	44	48
  78	9	44	46	45
  79	8	44	46	49
  80	8	44	46	50
  81	12	45	46	49
  82	12	45	46	50
  83	11	49	46	50
  84	16	39	38	44
  85	14	38	44	46
  86	15	38	44	47
  87	15	38	44	48
  88	10	53	51	54
  89	10	53	51	55
  90	1	54	51	55
  91	9	51	53	52
  92	8	51	53	56
  93	8	51	53	57
  94	12	52	53	56
  95	12	52	53	57
  96	11	56	53	57
  97	16	46	45	51
  98	14	45	51	53
  99	15	45	51	54
 100	15	45	51	55
 101	10	60	58	61
 102	10	60	58	62
 103	1	61	58	62
 104	9	58	60	59
 105	8	58	60	63
 106	8	58	60	64
 107	12	59	60	63
 108	12	59	60	64
 109	11	63	60	64
 110	16	53	52	58
 111	14	52	58	60
 112	15	52	58	61
 113	15	52	58	62
 114	10	67	65	68
 115	10	67	65	69
 116	1	68	65	69
 117	9	65	67	66
 118	8	65	67	70
 119	8	65	67	71
 120	12	66	67	70
 121	12	66	67	71
 122	11	70	67	71
 123	16	60	59	65
 124	14	59	65	67
 125	15	59	65	68
 126	15	59	65	69
 127	10	74	72	75
 128	10	74	72	76
 129	1	75	72	76
 130	9	72	74	73
 131	8	72	74	77
 132	8	72	74	78
 133	12	73	74	77
 134	12	73	74	78
 135	11	77	74	78
 136	16	67	66	72
 137	14	66	72	74
 138	15	66	72	75
 139	15	66	72	76
 140	10	81	79	82
 141	10	81	79	83
 142	1	82	79	83
 143	9	79	81	80
 144	8	79	81	84
 145	8	79	81	85
 146	12	80	81	84
 147	12	80	81	85
 148	11	84	81	85
 149	16	74	73	79
 150	14	73	79	81
 151	15	73	79	82
 152	15	73	79	83
 153	10	88	86	89
 154	10	88	86	90
 155	1	89	86	90
 156	9	86	88	87
 157	8	86	88	91
 158	8	86	88	92
 159	12	87	88	91
 160	12	87	88	92
 161	11	91	88	92
 162	16	81	80	86
 163	14	80	86	88
 164	15	80	86	89
 165	15	80	86	90
 166	10	95	93	96
 167	10	95	93	97
 168	1	96	93	97
 169	9	93	95	94
 170	8	93	95	98
 171	8	93	95	99
 172	12	94	95	98
 173	12	94	95	99
 174	11	98	95	99
 175	16	88	87	93
 176	14	87	93	95
 177	15	87	93	96
 178	15	87	93	97
 179	10	102	100	103
 180	10	102	100	104
 181	1	103	100	104
 182	9	100	102	101
 183	8	100	102	105
 184	8	100	102	106
 185	12	101	102	105
 186	12	101	102	106
 187	11	105	102	106
 188	16	95	94	100
 189	14	94	100	102
 190	15	94	100	103
 191	15	94	100	104
 192	10	109	107	110
 193	10	109	107	111
 194	1	110	107	111
 195	9	107	109	108
 196	8	107	109	112
 197	8	107	109	113
 198	12	108	109	112
 199	12	108	109	113
 200	11	112	109	113
 201	16	102	101	107
 202	14	101	107	109
 203	15	101	107	110
 204	15	101	107	111
 205	10	116	114	117
 206	10	116	114	118
 207	1	117	114	118
 208	9	114	116	115
 209	8	114	116	119
 210	8	114	116	120
 211	12	115	116	119
 212	12	115	116	120
 213	11	119	116	120
 214	16	109	108	114
 215	14	108	114	116
 216	15	108	114	117
 217	15	108	114	118
 218	10	123	121	124
 219	10	123	121	125
 220	1	124	121	125
 221	9	121	123	122
 222	8	121	123	126
 223	8	121	123	127
 224	12	122	123	126
 225	12	122	123	127
 226	11	126	123	127
 227	16	116	115	121
 228	14	115	121	123
 229	15	115	121	124
 230	15	115	121	125
 231	10	130	128	131
 232	10	130	128	132
 233	1	131	128	132
 234	9	128	130	129
 235	8	128	130	133
 236	8	128	130	134
 237	12	129	130	133
 238	12	129	130	134
 239	11	133	130	134
 240	16	123	122	128
 241	14	122	128	130
 242	15	122	128	131
 243	15	122	128	132
 244	10	137	135	138
 245	10	137	135	139
 246	1	138	135	139
 247	9	135	137	136
 248	8	135	137	140
 249	8	135	137	141
 250	12	136	137	140
 251	12	136	137	141
 252	11	140	137	141
 253	16	130	129	135
 254	14	129	135	137
 255	15	129	135	138
 256	15	129	135	139
 257	10	144	142	145
 258	10	144	142	146
 259	1	145	142	146
 260	9	142	144	143
 261	8	142	144	147
 262	8	142	144	148
 263	12	143	144	147
 264	12	143	144	148
 265	11	147	144	148
 266	16	137	136	142
 267	14	136	142	144
 268	15	136	142	145
 269	15	136	142	146
 270	10	151	149	152
 271	10	151	149	153
 272	1	152	149	153
 273	9	149	151	150
 274	8	149	151	154
 275	8	149	151	155
 276	12	150	151	154
 277	12	150	151	155
 278	11	154	151	155
 279	16	144	143	149
 280	14	143	149	151
 281	15	143	149	152
 282	15	143	149	153
 283	10	158	156	159
 284	10	158	156	160
 285	1	159	156	160
 286	9	156	158	157
 287	8	156	158	161
 288	8	156	158	162
 289	12	157	158	161
 290	12	157	158	162
 291	11	161	158	162
 292	16	151	150	156
 293	14	150	156	158
 294	15	150	156	159
 295	15	150	156	160
 296	19	165	163	167
 297	19	165	163	168
 298	1	167	163	168
 299	17	165	164	166
 300	18	163	165	164
 301	19	163	165	169
 302	20	164	165	169
 303	21	158	157	164
 304	17	157	164	165
 305	22	157	164	166

Dihedrals

   1	2	1	3	5	4
   2	2	1	3	5	8
   3	2	2	3	5	4
   4	2	2	3	5	8
   5	1	6	4	5	3
   6	1	6	4	5	8
   7	1	7	4	5	3
   8	1	7	4	5	8
   9	3	12	9	11	10
  10	3	12	9	11	14
  11	3	12	9	11	15
  12	3	13	9	11	10
  13	3	13	9	11	14
  14	3	13	9	11	15
  15	3	1	9	11	10
  16	3	1	9	11	14
  17	3	1	9	11	15
  18	3	19	16	18	17
  19	3	19	16	18	21
  20	3	19	16	18	22
  21	3	20	16	18	17
  22	3	20	16	18	21
  23	3	20	16	18	22
  24	3	10	16	18	17
  25	3	10	16	18	21
  26	3	10	16	18	22
  27	3	26	23	25	24
  28	3	26	23	25	28
  29	3	26	23	25	29
  30	3	27	23	25	24
  31	3	27	23	25	28
  32	3	27	23	25	29
  33	3	17	23	25	24
  34	3	17	23	25	28
  35	3	17	23	25	29
  36	3	33	30	32	31
  37	3	33	30	32	35
  38	3	33	30	32	36
  39	3	34	30	32	31
  40	3	34	30	32	35
  41	3	34	30	32	36
  42	3	24	30	32	31
  43	3	24	30	32	35
  44	3	24	30	32	36
  45	3	40	37	39	38
  46	3	40	37	39	42
  47	3	40	37	39	43
  48	3	41	37	39	38
  49	3	41	37	39	42
  50	3	41	37	39	43
  51	3	31	37	39	38
  52	3	31	37	39	42
  53	3	31	37	39	43
  54	3	47	44	46	45
  55	3	47	44	46	49
  56	3	47	44	46	50
  57	3	48	44	46	45
  58	3	48	44	46	49
  59	3	48	44	46	50
  60	3	38	44	46	45
  61	3	38	44	46	49
  62	3	38	44	46	50
  63	3	54	51	53	52
  64	3	54	51	53	56
  65	3	54	51	53	57
  66	3	55	51	53	52
  67	3	55	51	53	56
  68	3	55	51	53	57
  69	3	45	51	53	52
  70	3	45	51	53	56
  71	3	45	51	53	57
  72	3	61	58	60	59
  73	3	61	58	60	63
  74	3	61	58	60	64
  75	3	62	58	60	59
  76	3	62	58	60	63
  77	3	62	58	60	64
  78	3	52	58	60	59
  79	3	52	58	60	63
  80	3	52	58	60	64
  81	3	68	65	67	66
  82	3	68	65	67	70
  83	3	68	65	67	71
  84	3	69	65	67	66
  85	3	69	65	67	70
  86	3	69	65	67	71
  87	3	59	65	67	66
  88	3	59	65	67	70
  89	3	59	65	67	71
  90	3	75	72	74	73
  91	3	75	72	74	77
  92	3	75	72	74	78
  93	3	76	72	74	73
  94	3	76	72	74	77
  95	3	76	72	74	78
  96	3	66	72	74	73
  97	3	66	72	74	77
  98	3	66	72	74	78
  99	3	82	79	81	80
 100	3	82	79	81	84
 101	3	82	79	81	85
 102	3	83	79	81	80
 103	3	83	79	81	84
 104	3	83	79	81	85
 105	3	73	79	81	80
 106	3	73	79	81	84
 107	3	73	79	81	85
 108	3	89	86	88	87
 109	3	89	86	88	91
 110	3	89	86	88	92
 111	3	90	86	88	87
 112	3	90	86	88	91
 113	3	90	86	88	92
 114	3	80	86	88	87
 115	3	80	86	88	91
 116	3	80	86	88	92
 117	3	96	93	95	94
 118	3	96	93	95	98
 119	3	96	93	95	99
 120	3	97	93	95	94
 121	3	97	93	95	98
 122	3	97	93	95	99
 123	3	87	93	95	94
 124	3	87	93	95	98
 125	3	87	93	95	99
 126	3	103	100	102	101
 127	3	103	100	102	105
 128	3	103	100	102	106
 129	3	104	100	102	101
 130	3	104	100	102	105
 131	3	104	100	102	106
 132	3	94	100	102	101
 133	3	94	100	102	105
 134	3	94	100	102	106
 135	3	110	107	109	108
 136	3	110	107	109	112
 137	3	110	107	109	113
 138	3	111	107	109	108
 139	3	111	107	109	112
 140	3	111	107	109	113
 141	3	101	107	109	108
 142	3	101	107	109	112
 143	3	101	107	109	113
 144	3	117	114	116	115
 145	3	117	114	116	119
 146	3	117	114	116	120
 147	3	118	114	116	115
 148	3	118	114	116	119
 149	3	118	114	116	120
 150	3	108	114	116	115
 151	3	108	114	116	119
 152	3	108	114	116	120
 153	3	124	121	123	122
 154	3	124	121	123	126
 155	3	124	121	123	127
 156	3	125	121	123	122
 157	3	125	121	123	126
 158	3	125	121	123	127
 159	3	115	121	123	122
 160	3	115	121	123	126
 161	3	115	121	123	127
 162	3	131	128	130	129
 163	3	131	128	130	133
 164	3	131	128	130	134
 165	3	132	128	130	129
 166	3	132	128	130	133
 167	3	132	128	130	134
 168	3	122	128	130	129
 169	3	122	128	130	133
 170	3	122	128	130	134
 171	3	138	135	137	136
 172	3	138	135	137	140
 173	3	138	135	137	141
 174	3	139	135	137	136
 175	3	139	135	137	140
 176	3	139	135	137	141
 177	3	129	135	137	136
 178	3	129	135	137	140
 179	3	129	135	137	141
 180	3	145	142	144	143
 181	3	145	142	144	147
 182	3	145	142	144	148
 183	3	146	142	144	143
 184	3	146	142	144	147
 185	3	146	142	144	148
 186	3	136	142	144	143
 187	3	136	142	144	147
 188	3	136	142	144	148
 189	3	152	149	151	150
 190	3	152	149	151	154
 191	3	152	149	151	155
 192	3	153	149	151	150
 193	3	153	149	151	154
 194	3	153	149	151	155
 195	3	143	149	151	150
 196	3	143	149	151	154
 197	3	143	149	151	155
 198	3	159	156	158	157
 199	3	159	156	158	161
 200	3	159	156	158	162
 201	3	160	156	158	157
 202	3	160	156	158	161
 203	3	160	156	158	162
 204	3	150	156	158	157
 205	3	150	156	158	161
 206	3	150	156	158	162
 207	4	167	163	165	164
 208	4	167	163	165	169
 209	4	168	163	165	164
 210	4	168	163	165	169
 211	5	166	164	165	163
 212	5	166	164	165	169
 213	5	157	164	165	163
 214	5	157	164	165	169

Impropers

   1	1	3	1	2	5

