pySIMM System Object

260 atoms
259 bonds
474 angles
331 dihedrals
1 impropers

8 atom types
12 bond types
22 angle types
5 dihedral types
1 improper types

-81.727446 81.727446 xlo xhi
-81.727446 81.727446 ylo yhi
-81.727446 81.727446 zlo zhi

Masses

   1	16.0	# o
   2	12.01	# c
   3	12.01	# c2
   4	12.01	# ce
   5	1.008	# ha
   6	12.01	# c3
   7	1.008	# h1
   8	12.01	# c1

Pair Coeffs

   1	0.21	2.959921901149463	# o
   2	0.086	3.3996695084235347	# c
   3	0.086	3.3996695084235347	# c2
   4	0.086	3.3996695084235347	# ce
   5	0.015	2.59964245953351	# ha
   6	0.1094	3.3996695084235347	# c3
   7	0.0157	2.471353044121301	# h1
   8	0.21	3.3996695084235347	# c1

Bond Coeffs

   1	343.1	1.0879	# c2,ha
   2	547.3	1.3461	# c2,ce
   3	342.5	1.0883	# ce,ha
   4	354.5	1.4825	# c,ce
   5	637.7	1.2183	# c,o
   6	449.9	1.3165	# c3,o
   7	326.8	1.5095	# c2,c3
   8	330.6	1.0969	# c3,h1
   9	622.9	1.2247	# c2,o
  10	625.0	1.307	# c1,c2
  11	758.1	1.1724	# c1,o
  12	569.4	1.3343	# c2,c2

Angle Coeffs

   1	38.11	116.9	# ha,c2,ha
   2	49.51	120.45	# ce,c2,ha
   3	49.61	119.94	# c2,ce,ha
   4	46.52	116.46	# c,ce,ha
   5	65.45	120.42	# c,ce,c2
   6	68.83	123.2	# ce,c,o
   7	77.94	130.25	# o,c,o
   8	47.07	109.96	# c2,c3,h1
   9	68.15	110.35	# c2,c3,o
  10	45.94	115.68	# c3,c2,ha
  11	39.24	108.46	# h1,c3,h1
  12	52.64	116.45	# h1,c3,o
  13	65.83	113.14	# c2,o,c
  14	67.92	122.82	# c3,c2,o
  15	55.28	117.23	# ha,c2,o
  16	65.83	113.14	# c2,o,c3
  17	62.94	179.5	# c2,c1,o
  18	70.06	121.62	# c1,c2,c2
  19	49.85	120.43	# c2,c2,ha
  20	50.62	120.42	# c1,c2,ha
  21	65.83	113.14	# c3,o,c1
  22	68.89	180.0	# o,c1,o

Dihedral Coeffs

   1	1	6.65	2	180	# X,c2,ce,X
   2	1	2.175	2	180	# X,c,ce,X
   3	1	0.0	2	0	# X,c2,c3,X
   4	1	6.65	2	180	# X,c2,c2,X
   5	1	0.0	2	180	# X,c1,c2,X

Improper Coeffs

   1	10.5	-1	2	# c,X,X,o

Atoms

   1	1	1	-0.104756	-37.5671	3.72204	-7.76821
   2	1	1	-0.569213	-38.707	1.93886	-7.1869
   3	1	2	0.789146	-37.6884	2.51661	-7.50924
   4	1	3	-0.154228	-35.3185	2.05525	-7.96745
   5	1	4	-0.389642	-36.5368	1.60227	-7.62161
   6	1	5	0.157325	-35.1417	3.09619	-8.22287
   7	1	5	0.138289	-34.4553	1.39247	-7.99607
   8	1	5	0.133078	-36.7123	0.567517	-7.33217
   9	1	3	-8e-06	-37.3483	4.54287	-6.84795
  10	1	1	-0.400145	-36.9628	6.85279	-6.41835
  11	1	6	0.053825	-36.3821	5.74806	-6.93332
  12	1	5	0.095789	-37.0132	4.03843	-5.9389
  13	1	5	0.095196	-38.3195	4.97687	-6.59056
  14	1	7	0.084202	-36.0542	5.85919	-7.98069
  15	1	7	0.07114	-35.4731	5.44075	-6.4002
  16	1	3	-8e-06	-36.3609	7.92297	-6.33973
  17	1	1	-0.400145	-35.1995	9.01721	-8.08676
  18	1	6	0.053825	-36.4114	8.77175	-7.57498
  19	1	5	0.095789	-35.3119	7.80011	-6.05754
  20	1	5	0.095196	-36.8196	8.50989	-5.54098
  21	1	7	0.084202	-36.9662	9.67964	-7.30328
  22	1	7	0.07114	-37.1032	8.247	-8.24673
  23	1	3	-8e-06	-35.0794	8.74694	-9.29161
  24	1	1	-0.400145	-33.4862	8.28414	-10.8943
  25	1	6	0.053825	-33.8045	9.19506	-9.98259
  26	1	5	0.095789	-35.8653	9.22029	-9.88296
  27	1	5	0.095196	-35.2013	7.67613	-9.45841
  28	1	7	0.084202	-33.0314	9.34931	-9.21084
  29	1	7	0.07114	-33.9874	10.2115	-10.3647
  30	1	3	-8e-06	-32.5877	8.436	-11.7335
  31	1	1	-0.400145	-31.9446	8.06636	-13.9066
  32	1	6	0.053825	-33.0313	8.32501	-13.1881
  33	1	5	0.095789	-31.863	7.64496	-11.579
  34	1	5	0.095196	-32.0362	9.36953	-11.617
  35	1	7	0.084202	-33.5728	9.25123	-13.4507
  36	1	7	0.07114	-33.7954	7.53037	-13.2109
  37	1	3	-8e-06	-32.0335	7.76743	-15.102
  38	1	1	-0.400145	-30.7856	6.80376	-16.7818
  39	1	6	0.053825	-30.6789	7.69595	-15.793
  40	1	5	0.095789	-32.6199	8.51901	-15.635
  41	1	5	0.095196	-32.5389	6.81196	-15.214
  42	1	7	0.084202	-29.9261	7.4709	-15.0037
  43	1	7	0.07114	-30.417	8.70802	-16.143
  44	1	3	-8e-06	-30.0232	5.83635	-16.9014
  45	1	1	-0.400145	-29.4894	3.84412	-18.0499
  46	1	6	0.053825	-30.3286	4.8957	-18.0697
  47	1	5	0.095789	-29.9962	5.22385	-15.9929
  48	1	5	0.095196	-29.0037	6.1776	-17.114
  49	1	7	0.084202	-30.247	5.5075	-18.9845
  50	1	7	0.07114	-31.387	4.63388	-18.0613
  51	1	3	-8e-06	-29.8364	2.73782	-17.5883
  52	1	1	-0.400145	-29.4265	0.460883	-17.0849
  53	1	6	0.053825	-28.8057	1.62881	-17.3287
  54	1	5	0.095789	-30.5677	2.26789	-18.2411
  55	1	5	0.095196	-30.3215	2.87259	-16.6206
  56	1	7	0.084202	-28.1598	2.01645	-16.5316
  57	1	7	0.07114	-28.147	1.5874	-18.1908
  58	1	3	-8e-06	-28.7767	-0.533828	-16.7613
  59	1	1	-0.400145	-26.9925	-1.49458	-15.5585
  60	1	6	0.053825	-27.9329	-0.525056	-15.4952
  61	1	5	0.095789	-28.0951	-0.852457	-17.5507
  62	1	5	0.095196	-29.4876	-1.36786	-16.6504
  63	1	7	0.084202	-28.6416	-0.639805	-14.6494
  64	1	7	0.07114	-27.5099	0.472106	-15.3288
  65	1	3	-8e-06	-26.3936	-1.76573	-14.488
  66	1	1	-0.400145	-24.7331	-2.77308	-13.2579
  67	1	6	0.053825	-25.0072	-2.40092	-14.5019
  68	1	5	0.095789	-27.0263	-2.46112	-13.9371
  69	1	5	0.095196	-26.2885	-0.891191	-13.8381
  70	1	7	0.084202	-24.3015	-1.65374	-14.913
  71	1	7	0.07114	-25.0464	-3.21	-15.2291
  72	1	3	-8e-06	-23.578	-3.1151	-13.0105
  73	1	1	-0.400145	-22.1207	-3.6751	-11.2358
  74	1	6	0.053825	-23.3912	-3.71553	-11.6364
  75	1	5	0.095789	-22.8896	-2.26843	-13.1209
  76	1	5	0.095196	-23.2083	-3.87913	-13.7082
  77	1	7	0.084202	-23.7528	-4.75019	-11.6864
  78	1	7	0.07114	-24.0723	-3.22305	-10.9355
  79	1	3	-8e-06	-21.6897	-2.70813	-10.6073
  80	1	1	-0.400145	-19.8944	-1.4229	-10.2941
  81	1	6	0.053825	-20.4556	-2.12731	-11.2492
  82	1	5	0.095789	-21.3959	-3.01681	-9.60362
  83	1	5	0.095196	-22.425	-1.91536	-10.4673
  84	1	7	0.084202	-20.7527	-1.54423	-12.1303
  85	1	7	0.07114	-19.8778	-2.95591	-11.6215
  86	1	3	-8e-06	-18.6906	-1.57651	-9.99766
  87	1	1	-0.400145	-16.4599	-1.86641	-10.7793
  88	1	6	0.053825	-17.6292	-1.28467	-11.089
  89	1	5	0.095789	-18.5269	-2.61799	-9.73098
  90	1	5	0.095196	-18.4599	-0.990337	-9.09896
  91	1	7	0.084202	-17.6158	-0.196217	-11.2563
  92	1	7	0.07114	-18.0606	-1.66636	-12.0363
  93	1	3	-8e-06	-15.3751	-1.39453	-11.1991
  94	1	1	-0.400145	-13.4774	-1.85488	-12.4719
  95	1	6	0.053825	-14.093	-2.24642	-11.3745
  96	1	5	0.095789	-15.1123	-0.627061	-10.4946
  97	1	5	0.095196	-15.5252	-0.926173	-12.173
  98	1	7	0.084202	-14.3827	-3.28312	-11.3886
  99	1	7	0.07114	-13.549	-2.0902	-10.4514
 100	1	3	-8e-06	-12.2406	-1.92248	-12.5892
 101	1	1	-0.400145	-10.1994	-0.982788	-13.2116
 102	1	6	0.053825	-11.3626	-0.694996	-12.6029
 103	1	5	0.095789	-12.0271	-2.40062	-13.5278
 104	1	5	0.095196	-11.7918	-2.60413	-11.8658
 105	1	7	0.084202	-11.2833	-0.360373	-11.5697
 106	1	7	0.07114	-11.9254	0.0966314	-13.1008
 107	1	3	-8e-06	-9.29902	-0.125553	-13.1685
 108	1	1	-0.400145	-7.17228	0.497499	-13.9068
 109	1	6	0.053825	-8.32519	-0.0311917	-14.3449
 110	1	5	0.095789	-8.68595	-0.260418	-12.2879
 111	1	5	0.095196	-9.68935	0.88013	-13.0414
 112	1	7	0.084202	-8.78387	0.460414	-15.2155
 113	1	7	0.07114	-8.22926	-1.05679	-14.7232
 114	1	3	-8e-06	-6.94746	1.67223	-14.2138
 115	1	1	-0.400145	-4.77887	2.77181	-14.1351
 116	1	6	0.053825	-5.87541	2.44834	-13.4066
 117	1	5	0.095789	-7.8685	2.24621	-14.1636
 118	1	5	0.095196	-6.61045	1.69663	-15.2486
 119	1	7	0.084202	-5.61122	1.7592	-12.5878
 120	1	7	0.07114	-6.41028	3.301	-12.9533
 121	1	3	-8e-06	-3.77344	3.28905	-13.5717
 122	1	1	-0.400145	-2.87628	5.42155	-13.1607
 123	1	6	0.053825	-3.32853	4.60502	-14.1475
 124	1	5	0.095789	-2.90471	2.65043	-13.5092
 125	1	5	0.095196	-3.96835	3.4789	-12.5242
 126	1	7	0.084202	-4.14182	5.01368	-14.7658
 127	1	7	0.07114	-2.55404	4.36019	-14.9018
 128	1	3	-8e-06	-1.85845	6.09151	-13.3545
 129	1	1	-0.400145	-0.527643	7.91891	-12.7595
 130	1	6	0.053825	-1.48227	7.10605	-12.3186
 131	1	5	0.095789	-1.92616	6.59308	-14.3373
 132	1	5	0.095196	-0.982179	5.46873	-13.3913
 133	1	7	0.084202	-1.16684	6.48123	-11.4636
 134	1	7	0.07114	-2.42602	7.53346	-11.9495
 135	1	3	-8e-06	0.621754	7.90373	-12.2655
 136	1	1	-0.400145	2.31474	9.18641	-11.272
 137	1	6	0.053825	1.11593	9.23119	-11.8061
 138	1	5	0.095789	1.3205	7.66572	-13.0495
 139	1	5	0.095196	0.816268	7.13448	-11.491
 140	1	7	0.084202	0.34272	9.59277	-11.1421
 141	1	7	0.07114	1.13428	9.81272	-12.7506
 142	1	3	-8e-06	2.45163	8.98861	-10.0492
 143	1	1	-0.400145	1.83787	10.1093	-8.00671
 144	1	6	0.053825	2.54822	10.1903	-9.14773
 145	1	5	0.095789	3.3617	8.38512	-9.86804
 146	1	5	0.095196	1.67269	8.30246	-9.66009
 147	1	7	0.084202	2.27038	11.0614	-9.76844
 148	1	7	0.07114	3.58317	10.3103	-8.98029
 149	1	3	-8e-06	1.07684	11.0486	-7.71973
 150	1	1	-0.400145	-1.01123	11.2643	-6.79146
 151	1	6	0.053825	-0.420688	10.8296	-7.9104
 152	1	5	0.095789	1.37672	11.9772	-8.22628
 153	1	5	0.095196	1.29914	11.2037	-6.67658
 154	1	7	0.084202	-0.55472	9.74782	-8.17922
 155	1	7	0.07114	-0.731951	11.3632	-8.80919
 156	1	3	-8e-06	-2.11414	10.759	-6.57325
 157	1	1	-0.400145	-2.75322	8.48274	-7.02393
 158	1	6	0.053825	-2.18615	9.32825	-6.14545
 159	1	5	0.095789	-2.81938	10.851	-7.40522
 160	1	5	0.095196	-2.54365	11.3396	-5.73394
 161	1	7	0.084202	-2.73056	9.44717	-5.1848
 162	1	7	0.07114	-1.14204	9.0596	-5.90254
 163	1	3	-8e-06	-2.89975	7.32407	-6.61887
 164	1	1	-0.400145	-2.73282	5.16621	-7.42853
 165	1	6	0.053825	-3.35111	6.3405	-7.64235
 166	1	5	0.095789	-3.4906	7.14038	-5.7506
 167	1	5	0.095196	-1.87283	7.01181	-6.33395
 168	1	7	0.084202	-3.18861	6.75469	-8.60135
 169	1	7	0.07114	-4.4769	6.1985	-7.582
 170	1	3	-8e-06	-2.47829	4.4766	-8.43195
 171	1	1	-0.400145	-2.48764	2.45681	-9.46113
 172	1	6	0.053825	-2.26384	2.99832	-8.26753
 173	1	5	0.095789	-1.57656	4.86369	-8.94172
 174	1	5	0.095196	-3.32025	4.55501	-9.12419
 175	1	7	0.084202	-3.00694	2.64387	-7.52992
 176	1	7	0.07114	-1.28623	2.85029	-7.79743
 177	1	3	-8e-06	-1.55507	1.72001	-9.83237
 178	1	1	-0.400145	-1.84738	-0.504032	-10.671
 179	1	6	0.053825	-1.93094	0.787591	-10.9746
 180	1	5	0.095789	-1.05673	1.15987	-9.04
 181	1	5	0.095196	-0.762241	2.42844	-10.1474
 182	1	7	0.084202	-1.27021	1.0427	-11.7774
 183	1	7	0.07114	-2.89736	1.07063	-11.3675
 184	1	3	-8e-06	-2.80417	-1.15133	-11.0109
 185	1	1	-0.400145	-4.32215	-2.82867	-10.4427
 186	1	6	0.053825	-3.0641	-2.34677	-10.1902
 187	1	5	0.095789	-2.65992	-1.47465	-12.0299
 188	1	5	0.095196	-3.76552	-0.597195	-11.0171
 189	1	7	0.084202	-2.92945	-2.06253	-9.11427
 190	1	7	0.07114	-2.30677	-3.10492	-10.3773
 191	1	3	-8e-06	-4.77764	-3.81655	-9.89374
 192	1	1	-0.400145	-3.31261	-5.58501	-9.3953
 193	1	6	0.053825	-4.17925	-5.18364	-10.3283
 194	1	5	0.095789	-5.83031	-3.93112	-10.1503
 195	1	5	0.095196	-4.77231	-3.65561	-8.80026
 196	1	7	0.084202	-3.74441	-5.09845	-11.2577
 197	1	7	0.07114	-5.03304	-5.82392	-10.4918
 198	1	3	-8e-06	-2.79919	-6.73828	-9.42281
 199	1	1	-0.400145	-1.63163	-8.27876	-8.15875
 200	1	6	0.053825	-2.14254	-7.07027	-8.18126
 201	1	5	0.095789	-2.06635	-6.81251	-10.2427
 202	1	5	0.095196	-3.56321	-7.48213	-9.63076
 203	1	7	0.084202	-2.75613	-6.87993	-7.24755
 204	1	7	0.07114	-1.32924	-6.33473	-7.99561
 205	1	3	-8e-06	-1.92	-9.05024	-7.22355
 206	1	1	-0.400145	-0.740471	-10.1469	-5.34599
 207	1	6	0.053825	-1.00712	-8.99476	-6.01204
 208	1	5	0.095789	-1.82628	-10.0569	-7.56795
 209	1	5	0.095196	-2.99536	-8.9836	-6.85406
 210	1	7	0.084202	-1.41718	-8.21945	-5.41964
 211	1	7	0.07114	-0.115372	-8.5735	-6.47713
 212	1	3	-8e-06	0.267461	-10.8295	-5.62794
 213	1	1	-0.400145	1.98186	-12.2154	-4.68172
 214	1	6	0.053825	1.28617	-11.1033	-4.514
 215	1	5	0.095789	0.848387	-10.4343	-6.44605
 216	1	5	0.095196	-0.0770801	-11.7843	-5.88573
 217	1	7	0.084202	0.730813	-11.035	-3.60804
 218	1	7	0.07114	1.89118	-10.2802	-4.49224
 219	1	3	-8e-06	1.58244	-13.2711	-4.16078
 220	1	1	-0.400145	2.98895	-15.0929	-3.74512
 221	1	6	0.053825	2.20452	-14.5093	-4.68435
 222	1	5	0.095789	0.495244	-13.432	-4.15522
 223	1	5	0.095196	1.80767	-13.2212	-3.06087
 224	1	7	0.084202	2.83226	-14.0697	-5.4511
 225	1	7	0.07114	1.49655	-15.1135	-5.179
 226	1	3	-8e-06	3.7503	-15.9814	-4.03378
 227	1	1	-0.400145	4.90613	-17.7093	-3.04301
 228	1	6	0.053825	3.60665	-17.3465	-3.3076
 229	1	5	0.095789	4.79427	-15.5727	-3.95931
 230	1	5	0.095196	3.83689	-16.126	-5.05528
 231	1	7	0.084202	3.00684	-17.9316	-4.04955
 232	1	7	0.07114	2.97588	-17.1155	-2.37737
 233	1	3	-8e-06	5.1708	-18.5288	-2.13098
 234	1	1	-0.400145	4.98628	-20.703	-1.22906
 235	1	6	0.053825	5.15551	-20.0068	-2.44522
 236	1	5	0.095789	4.65585	-18.3897	-1.20778
 237	1	5	0.095196	6.19068	-18.3616	-1.74604
 238	1	7	0.084202	5.92786	-20.3185	-2.95758
 239	1	7	0.07114	4.36429	-20.1974	-3.07096
 240	1	3	-8e-06	4.94379	-21.9117	-1.15361
 241	1	1	-0.400145	6.20425	-23.9667	-1.04901
 242	1	6	0.053825	6.27585	-22.6215	-1.34483
 243	1	5	0.095789	4.15209	-22.437	-1.66088
 244	1	5	0.095196	4.56757	-22.1245	-0.0555168
 245	1	7	0.084202	7.09855	-22.151	-0.866142
 246	1	7	0.07114	6.43165	-22.4526	-2.34921
 247	1	3	-8e-06	7.10637	-24.6357	-1.46868
 248	1	1	-0.400145	8.80077	-23.7879	-0.0723353
 249	1	6	0.053825	8.25325	-24.9315	-0.637682
 250	1	5	0.095789	7.51565	-24.2441	-2.41807
 251	1	5	0.095196	6.67596	-25.6696	-1.59201
 252	1	7	0.084202	8.91451	-25.5039	-1.183
 253	1	7	0.07114	7.75901	-25.6177	0.192812
 254	1	3	-0.232441	9.36406	-22.7014	2.35024
 255	1	8	0.444336	9.81854	-24.0127	0.484483
 256	1	3	-0.096823	9.92289	-23.8169	1.76014
 257	1	1	-0.491911	10.8868	-24.1666	-0.0839094
 258	1	5	0.148316	9.35321	-22.5496	3.47528
 259	1	5	0.163898	8.65938	-22.1428	1.63834
 260	1	5	0.064625	10.445	-24.555	2.35387

Velocities

   1	0.00203691	-0.00856734	-0.0019928
   2	0.0035635	-0.00755499	-0.00404185
   3	0.00578572	-0.00971294	-0.00274531
   4	0.00256088	0.00130083	-0.0058607
   5	0.00552296	-0.00600103	-0.00934565
   6	-0.000937272	0.00254454	0.00355011
   7	0.00287427	0.00371401	-0.00996119
   8	0.00674292	-0.00676383	-0.0134476
   9	-0.00189584	-0.0083413	-0.00251858
  10	-0.00178437	-0.00758597	-0.00561747
  11	-0.00361583	-0.00811066	-0.00561991
  12	0.000230793	-0.00744036	-0.00381859
  13	-0.00342448	-0.0102017	-0.0019751
  14	-0.00555287	-0.00930987	-0.00797014
  15	0.00370441	0.000535716	-0.0145483
  16	-0.00651554	-0.00409627	-0.00615402
  17	-0.00787413	-0.00236583	-0.00226711
  18	-0.00801673	-0.00478243	-0.00424812
  19	-0.0115599	-0.00178553	0.00499478
  20	-0.0117305	-0.00638193	-0.00906601
  21	-0.00344255	-0.00684799	-0.00206503
  22	-0.0103422	0.00650508	-0.00667229
  23	-0.00775059	-0.00704851	-0.00154056
  24	-0.00443317	-0.00295645	0.00114534
  25	-0.00361005	-0.00489084	0.00273985
  26	-0.00836256	-0.00769381	-0.00394307
  27	-0.00846587	-0.00809512	0.00533078
  28	-0.00997052	-0.0122508	0.00818467
  29	5.51793e-05	-0.00748482	0.00757223
  30	-0.0058004	-0.00590006	-0.00385976
  31	-0.00538065	0.00201101	-0.00466184
  32	-0.00781121	-0.00539585	-0.00171821
  33	0.00137342	-0.000585151	-0.00351955
  34	-0.00420166	-0.00644275	-0.00855366
  35	-0.0106148	-0.00289099	0.00687105
  36	-0.00555141	-0.0115314	-0.00344647
  37	-0.00636885	-0.00238433	-0.000820985
  38	-0.00820461	-0.00425556	-0.00537417
  39	-0.00906332	-0.00483745	-0.00644307
  40	-0.0176671	-0.0109226	-0.00829636
  41	-0.00289975	-0.00546091	0.00243408
  42	-0.00581752	-0.0116565	-0.0168411
  43	-0.008037	-0.00648735	-0.00878773
  44	-0.0124714	-0.0082989	0.00123809
  45	-0.014139	-0.00343642	-0.000581319
  46	-0.0142595	-0.0043836	0.00088729
  47	-0.0115366	-0.000922128	0.0103344
  48	-0.0103895	-0.0111441	0.000729823
  49	-0.0185743	-0.0133316	-0.00401949
  50	-0.0134579	-0.00067773	0.0112519
  51	-0.00790803	-0.00614604	0.00307971
  52	0.0003629	0.00162533	0.00567225
  53	-0.0025108	-0.0021328	0.00181097
  54	-0.00795638	-0.00578264	0.0100858
  55	0.0051666	-0.00121754	0.00626316
  56	0.0047589	-0.00188938	-0.00617448
  57	-0.0100047	0.000552167	-0.00611007
  58	-0.0058422	-0.00289102	-0.00178068
  59	-0.00576588	-0.000842052	0.00264978
  60	-0.00505225	-0.00402849	-0.00315963
  61	-0.00629924	-0.00478683	-0.000462199
  62	-0.00877428	0.00293699	-0.00141095
  63	-0.00796459	-0.00686422	-0.00446208
  64	-0.00739153	-0.00344787	-0.00428453
  65	-0.00660982	-0.00414259	0.00537664
  66	-0.0042087	-0.00159975	0.000353326
  67	-0.00905976	-0.00273081	0.00262662
  68	-0.00990505	0.00242695	0.00236397
  69	-0.000486609	-0.00191036	0.00552435
  70	-0.0140032	0.00714641	0.00227636
  71	-0.00892315	-0.000682857	-0.00171606
  72	-0.00524084	0.00103917	0.00597582
  73	-0.00499074	0.0020592	0.000312305
  74	-0.00785981	0.00519868	0.00383493
  75	-0.00489519	0.00472035	-0.0035064
  76	-0.000860503	0.0032366	0.000230751
  77	0.00036483	0.00733408	0.00990177
  78	-0.00664517	0.00520344	-0.00106202
  79	0.00296949	0.00188954	0.000820333
  80	-0.00433207	0.0045371	-0.00272335
  81	0.000167103	-0.00309788	-0.00176306
  82	-0.0045797	0.00472709	0.00676541
  83	0.00472749	0.00340144	-0.00538711
  84	0.0115797	-0.0081272	-0.0101979
  85	0.000456942	-0.0119468	0.00446474
  86	-0.00388558	0.00465989	0.0021124
  87	-0.0029076	0.00487433	-0.0049605
  88	-0.00387779	0.00139558	0.00402532
  89	0.00859573	0.00612461	-0.0113033
  90	-0.00591261	0.00659769	0.00380135
  91	0.00392452	-0.00307879	0.0148378
  92	-0.00955257	0.00675035	0.00286055
  93	-0.0052259	0.00760339	-0.00265286
  94	-0.00407932	0.0075072	0.00510059
  95	-0.00347705	0.00642109	0.000463047
  96	-0.0238021	0.0114412	0.00232292
  97	-0.00692645	0.00272223	-0.00659197
  98	-0.0140387	0.0146971	0.0148885
  99	-0.00253137	0.0150246	0.00608473
 100	-0.0034244	0.0027866	-0.000869843
 101	-0.00338737	0.00266771	-0.00226686
 102	-0.00253264	-5.7764e-05	0.000416968
 103	-0.00763049	0.00383648	-0.00890416
 104	0.00569472	0.00118286	-0.0114074
 105	-0.0128143	0.000544391	0.00012603
 106	-0.0154109	-0.0037024	-0.00218512
 107	-0.00809322	0.00422008	-0.00179466
 108	-0.0105658	0.0064943	0.00166618
 109	-0.0045503	0.00904152	0.00204997
 110	-0.0123408	0.00205856	-0.00557399
 111	-0.0133425	0.00190536	0.0111248
 112	-0.00374931	-0.00420157	0.000438422
 113	-0.00780188	-0.00196469	0.0139689
 114	-0.00826474	0.00522529	0.0014543
 115	-0.00702076	0.0047385	-0.00359963
 116	0.00290461	0.0035659	-0.00265339
 117	-0.0115835	0.0160433	-0.00196146
 118	-0.00473511	0.0114835	-0.0125966
 119	0.0228804	-0.022733	-0.0105829
 120	-0.00789208	0.00211089	0.00548362
 121	-0.00198205	0.00533341	-0.00605058
 122	0.00423414	0.00333328	-0.00472322
 123	-0.00876741	0.00652039	-0.00703886
 124	0.00123364	-0.0127362	-0.00684361
 125	-0.000823004	0.0294774	-0.000416802
 126	-0.010995	0.0031582	0.000670714
 127	-0.00627416	0.00315471	-0.00606153
 128	0.0017898	0.00459978	-0.0028586
 129	0.00292227	0.00117281	-0.00488905
 130	0.00224061	0.00736722	-0.00801061
 131	-0.00274277	0.000903385	-0.00725547
 132	0.00615503	0.0109239	-0.00263518
 133	-0.00209575	0.0160368	-0.00588492
 134	0.00327981	0.00574364	-0.0183554
 135	0.0026046	0.00164366	-0.00286317
 136	-0.00745718	0.00107725	0.00183084
 137	0.00251648	-0.00474961	-0.00664291
 138	-0.000743478	-0.0062248	-0.0117188
 139	0.00203727	-0.00798208	0.00515603
 140	-0.00665216	-0.00414601	-0.0309348
 141	0.00610185	0.0044792	0.00839397
 142	-0.00219854	-0.00261444	-0.00181075
 143	-0.00509712	0.00667915	-0.00691866
 144	-0.00705501	0.00530683	-0.00574197
 145	-0.0020267	-0.00531471	0.00121615
 146	-0.00248182	-0.000825545	0.000760683
 147	-0.0227817	0.00935965	0.00693825
 148	0.00988411	0.0113635	0.00748703
 149	-0.0127406	0.00532152	-0.000915271
 150	-0.00625387	-0.00520424	0.00924164
 151	-0.00920694	0.000704512	0.00606254
 152	-0.0206474	0.0123723	-0.00888146
 153	-0.0172422	-3.94477e-05	-0.00337363
 154	-0.0015886	-0.0182487	-0.00845744
 155	-0.00142302	0.0101489	-0.00840519
 156	-0.00224719	-0.000317506	-0.00151855
 157	0.000698436	-0.00549077	-0.00490806
 158	0.00245516	0.00191646	-0.00514662
 159	-0.0060586	0.00285271	0.0149734
 160	-0.00474167	-0.01553	0.022579
 161	0.0110214	-0.00850993	-0.00842392
 162	0.00285605	0.00740014	-0.00454221
 163	-0.00957007	-0.00386758	0.00366059
 164	-0.00751782	-0.00525339	-0.00132406
 165	-0.00495773	0.000665927	0.000637982
 166	-0.0109784	0.0111236	0.00268634
 167	-0.0098043	-0.000694324	-0.0092124
 168	-0.0016889	0.00876015	-0.00345877
 169	-0.0140398	-0.010089	0.0138706
 170	-0.00163784	-0.00345818	-0.00272887
 171	-0.00792489	0.00532167	-0.00409394
 172	-0.00139658	0.0028889	-0.00197332
 173	0.0185331	-0.0176199	0.0058268
 174	0.0140845	-0.00328476	-0.0155013
 175	0.00270826	0.00512471	-0.0121622
 176	-0.0183673	0.00833783	0.00244726
 177	-0.00457592	0.00531	-0.00616727
 178	-0.00600319	-0.00102635	-0.00158216
 179	-0.00233927	-0.00242709	-0.00532192
 180	-0.0224795	-0.00577582	0.0207841
 181	-0.00899751	0.0063718	-0.0169584
 182	-0.00944846	0.000633859	-0.00233481
 183	0.0027557	0.00244321	0.0159029
 184	-0.00100307	-1.18287e-05	-0.00347665
 185	-0.00392079	-0.000916886	0.0012847
 186	0.00160377	0.00266879	-0.00223684
 187	-0.0092809	-0.0309417	0.00438898
 188	-0.0104617	-0.0320786	0.00346892
 189	-0.00178175	0.0241332	-0.00186993
 190	0.00260189	-0.00609417	-0.010134
 191	-0.00251531	-0.00363183	0.000795107
 192	0.00140905	-0.002582	-0.0045803
 193	0.00199284	-0.00344407	-0.00767019
 194	0.0294328	-0.000637673	-0.00648078
 195	0.0111064	-0.0038696	-0.00328684
 196	-0.00966811	0.0141088	-0.00937016
 197	-0.0066962	0.00643622	0.00885153
 198	0.000584672	-0.00196996	-0.00705726
 199	0.00211037	-0.00197208	-0.00131107
 200	0.00120382	0.00251646	-0.00198742
 201	0.0222911	0.00150888	0.00482503
 202	0.013827	-0.0366395	-0.0020532
 203	0.00178924	0.00218337	-0.00934707
 204	-0.00919696	0.00456537	-0.0395894
 205	0.00206678	0.000769911	0.000498307
 206	-0.00136313	-0.00615183	-0.000507671
 207	0.00683656	-0.000659796	-0.00250197
 208	-0.00319797	0.00436631	0.00505918
 209	-0.0120408	-0.0297467	-0.00478708
 210	0.0141547	0.00770742	0.00916698
 211	-0.00539837	0.0230487	-0.00157788
 212	-0.00520866	-0.00456955	-0.019238
 213	-0.00352535	0.000127495	0.00626098
 214	0.00635487	0.004614	-0.00349129
 215	0.0050333	-0.00896383	0.00642407
 216	-0.00653214	0.00343755	0.0112762
 217	0.00453172	-0.0171585	-0.00807077
 218	-0.00388983	0.000484448	-0.000474654
 219	0.00328546	-0.00396397	-0.00654912
 220	-0.000349604	0.00173076	-0.00966965
 221	-0.00112194	-0.00948842	-2.0437e-05
 222	-0.000925183	-0.00283337	-0.00394007
 223	-0.0132844	0.0174202	-0.0123631
 224	0.0094897	0.0249454	-0.0205233
 225	0.0104068	0.0226858	-0.011848
 226	-0.00451716	-0.00290762	-0.00187405
 227	0.00120008	-0.00264784	0.00878039
 228	0.00332551	-0.00768911	-0.0112174
 229	0.0139554	-0.0437045	-0.0255672
 230	-0.0266482	0.00078329	0.0125991
 231	-0.00840605	0.0059061	0.0224429
 232	0.0220792	-0.0280087	-0.0138927
 233	-0.000833568	-0.00162474	-0.00210128
 234	0.00657199	0.00126027	-0.00100357
 235	0.0070472	-0.00966327	0.000281615
 236	-0.0198808	-0.00100962	-0.00275523
 237	-0.0404665	0.00545562	-0.0089666
 238	-0.00874514	0.00311646	-0.00717401
 239	-0.00419921	0.0125178	0.000497804
 240	0.00623894	0.00863699	-0.000500121
 241	0.00995487	0.00840053	-0.00191459
 242	0.0128946	0.0124006	-0.00622926
 243	-0.0166132	0.0093074	-0.0112393
 244	0.00644111	0.0162051	-0.024713
 245	0.0110938	0.0283417	0.00147393
 246	-0.0029749	-0.00920134	-0.0353508
 247	0.0100519	-0.00526538	-0.00799087
 248	0.00856244	0.00348731	0.0060306
 249	0.00624675	-0.0159685	-0.00709917
 250	0.0241423	-0.0176174	-0.0173119
 251	-0.0320877	-0.00144061	-0.0129049
 252	-0.010839	0.00237397	-0.00245507
 253	0.0337673	-0.0186113	-0.0121926
 254	0.00296589	0.00644523	-0.00424937
 255	0.00902186	0.00606227	-0.00631651
 256	-0.00175754	0.00176742	-0.00899303
 257	-0.00463711	0.0055625	-0.00239781
 258	-0.0167144	0.00234711	-0.0031913
 259	-0.00737436	-0.0215938	-0.0302411
 260	0.0361427	-0.00744113	-0.0102031

Bonds

   1	5	1	3
   2	5	2	3
   3	4	3	5
   4	2	4	5
   5	1	4	6
   6	1	4	7
   7	3	5	8
   8	7	9	11
   9	1	9	12
  10	1	9	13
  11	6	10	11
  12	8	11	14
  13	8	11	15
  14	9	1	9
  15	7	16	18
  16	1	16	19
  17	1	16	20
  18	6	17	18
  19	8	18	21
  20	8	18	22
  21	9	10	16
  22	7	23	25
  23	1	23	26
  24	1	23	27
  25	6	24	25
  26	8	25	28
  27	8	25	29
  28	9	17	23
  29	7	30	32
  30	1	30	33
  31	1	30	34
  32	6	31	32
  33	8	32	35
  34	8	32	36
  35	9	24	30
  36	7	37	39
  37	1	37	40
  38	1	37	41
  39	6	38	39
  40	8	39	42
  41	8	39	43
  42	9	31	37
  43	7	44	46
  44	1	44	47
  45	1	44	48
  46	6	45	46
  47	8	46	49
  48	8	46	50
  49	9	38	44
  50	7	51	53
  51	1	51	54
  52	1	51	55
  53	6	52	53
  54	8	53	56
  55	8	53	57
  56	9	45	51
  57	7	58	60
  58	1	58	61
  59	1	58	62
  60	6	59	60
  61	8	60	63
  62	8	60	64
  63	9	52	58
  64	7	65	67
  65	1	65	68
  66	1	65	69
  67	6	66	67
  68	8	67	70
  69	8	67	71
  70	9	59	65
  71	7	72	74
  72	1	72	75
  73	1	72	76
  74	6	73	74
  75	8	74	77
  76	8	74	78
  77	9	66	72
  78	7	79	81
  79	1	79	82
  80	1	79	83
  81	6	80	81
  82	8	81	84
  83	8	81	85
  84	9	73	79
  85	7	86	88
  86	1	86	89
  87	1	86	90
  88	6	87	88
  89	8	88	91
  90	8	88	92
  91	9	80	86
  92	7	93	95
  93	1	93	96
  94	1	93	97
  95	6	94	95
  96	8	95	98
  97	8	95	99
  98	9	87	93
  99	7	100	102
 100	1	100	103
 101	1	100	104
 102	6	101	102
 103	8	102	105
 104	8	102	106
 105	9	94	100
 106	7	107	109
 107	1	107	110
 108	1	107	111
 109	6	108	109
 110	8	109	112
 111	8	109	113
 112	9	101	107
 113	7	114	116
 114	1	114	117
 115	1	114	118
 116	6	115	116
 117	8	116	119
 118	8	116	120
 119	9	108	114
 120	7	121	123
 121	1	121	124
 122	1	121	125
 123	6	122	123
 124	8	123	126
 125	8	123	127
 126	9	115	121
 127	7	128	130
 128	1	128	131
 129	1	128	132
 130	6	129	130
 131	8	130	133
 132	8	130	134
 133	9	122	128
 134	7	135	137
 135	1	135	138
 136	1	135	139
 137	6	136	137
 138	8	137	140
 139	8	137	141
 140	9	129	135
 141	7	142	144
 142	1	142	145
 143	1	142	146
 144	6	143	144
 145	8	144	147
 146	8	144	148
 147	9	136	142
 148	7	149	151
 149	1	149	152
 150	1	149	153
 151	6	150	151
 152	8	151	154
 153	8	151	155
 154	9	143	149
 155	7	156	158
 156	1	156	159
 157	1	156	160
 158	6	157	158
 159	8	158	161
 160	8	158	162
 161	9	150	156
 162	7	163	165
 163	1	163	166
 164	1	163	167
 165	6	164	165
 166	8	165	168
 167	8	165	169
 168	9	157	163
 169	7	170	172
 170	1	170	173
 171	1	170	174
 172	6	171	172
 173	8	172	175
 174	8	172	176
 175	9	164	170
 176	7	177	179
 177	1	177	180
 178	1	177	181
 179	6	178	179
 180	8	179	182
 181	8	179	183
 182	9	171	177
 183	7	184	186
 184	1	184	187
 185	1	184	188
 186	6	185	186
 187	8	186	189
 188	8	186	190
 189	9	178	184
 190	7	191	193
 191	1	191	194
 192	1	191	195
 193	6	192	193
 194	8	193	196
 195	8	193	197
 196	9	185	191
 197	7	198	200
 198	1	198	201
 199	1	198	202
 200	6	199	200
 201	8	200	203
 202	8	200	204
 203	9	192	198
 204	7	205	207
 205	1	205	208
 206	1	205	209
 207	6	206	207
 208	8	207	210
 209	8	207	211
 210	9	199	205
 211	7	212	214
 212	1	212	215
 213	1	212	216
 214	6	213	214
 215	8	214	217
 216	8	214	218
 217	9	206	212
 218	7	219	221
 219	1	219	222
 220	1	219	223
 221	6	220	221
 222	8	221	224
 223	8	221	225
 224	9	213	219
 225	7	226	228
 226	1	226	229
 227	1	226	230
 228	6	227	228
 229	8	228	231
 230	8	228	232
 231	9	220	226
 232	7	233	235
 233	1	233	236
 234	1	233	237
 235	6	234	235
 236	8	235	238
 237	8	235	239
 238	9	227	233
 239	7	240	242
 240	1	240	243
 241	1	240	244
 242	6	241	242
 243	8	242	245
 244	8	242	246
 245	9	234	240
 246	7	247	249
 247	1	247	250
 248	1	247	251
 249	6	248	249
 250	8	249	252
 251	8	249	253
 252	9	241	247
 253	12	254	256
 254	1	254	258
 255	1	254	259
 256	10	255	256
 257	11	255	257
 258	1	256	260
 259	11	248	255

Angles

   1	7	1	3	2
   2	6	1	3	5
   3	6	2	3	5
   4	2	5	4	6
   5	2	5	4	7
   6	1	6	4	7
   7	5	3	5	4
   8	4	3	5	8
   9	3	4	5	8
  10	10	11	9	12
  11	10	11	9	13
  12	1	12	9	13
  13	9	9	11	10
  14	8	9	11	14
  15	8	9	11	15
  16	12	10	11	14
  17	12	10	11	15
  18	11	14	11	15
  19	13	3	1	9
  20	14	1	9	11
  21	15	1	9	12
  22	15	1	9	13
  23	10	18	16	19
  24	10	18	16	20
  25	1	19	16	20
  26	9	16	18	17
  27	8	16	18	21
  28	8	16	18	22
  29	12	17	18	21
  30	12	17	18	22
  31	11	21	18	22
  32	16	11	10	16
  33	14	10	16	18
  34	15	10	16	19
  35	15	10	16	20
  36	10	25	23	26
  37	10	25	23	27
  38	1	26	23	27
  39	9	23	25	24
  40	8	23	25	28
  41	8	23	25	29
  42	12	24	25	28
  43	12	24	25	29
  44	11	28	25	29
  45	16	18	17	23
  46	14	17	23	25
  47	15	17	23	26
  48	15	17	23	27
  49	10	32	30	33
  50	10	32	30	34
  51	1	33	30	34
  52	9	30	32	31
  53	8	30	32	35
  54	8	30	32	36
  55	12	31	32	35
  56	12	31	32	36
  57	11	35	32	36
  58	16	25	24	30
  59	14	24	30	32
  60	15	24	30	33
  61	15	24	30	34
  62	10	39	37	40
  63	10	39	37	41
  64	1	40	37	41
  65	9	37	39	38
  66	8	37	39	42
  67	8	37	39	43
  68	12	38	39	42
  69	12	38	39	43
  70	11	42	39	43
  71	16	32	31	37
  72	14	31	37	39
  73	15	31	37	40
  74	15	31	37	41
  75	10	46	44	47
  76	10	46	44	48
  77	1	47	44	48
  78	9	44	46	45
  79	8	44	46	49
  80	8	44	46	50
  81	12	45	46	49
  82	12	45	46	50
  83	11	49	46	50
  84	16	39	38	44
  85	14	38	44	46
  86	15	38	44	47
  87	15	38	44	48
  88	10	53	51	54
  89	10	53	51	55
  90	1	54	51	55
  91	9	51	53	52
  92	8	51	53	56
  93	8	51	53	57
  94	12	52	53	56
  95	12	52	53	57
  96	11	56	53	57
  97	16	46	45	51
  98	14	45	51	53
  99	15	45	51	54
 100	15	45	51	55
 101	10	60	58	61
 102	10	60	58	62
 103	1	61	58	62
 104	9	58	60	59
 105	8	58	60	63
 106	8	58	60	64
 107	12	59	60	63
 108	12	59	60	64
 109	11	63	60	64
 110	16	53	52	58
 111	14	52	58	60
 112	15	52	58	61
 113	15	52	58	62
 114	10	67	65	68
 115	10	67	65	69
 116	1	68	65	69
 117	9	65	67	66
 118	8	65	67	70
 119	8	65	67	71
 120	12	66	67	70
 121	12	66	67	71
 122	11	70	67	71
 123	16	60	59	65
 124	14	59	65	67
 125	15	59	65	68
 126	15	59	65	69
 127	10	74	72	75
 128	10	74	72	76
 129	1	75	72	76
 130	9	72	74	73
 131	8	72	74	77
 132	8	72	74	78
 133	12	73	74	77
 134	12	73	74	78
 135	11	77	74	78
 136	16	67	66	72
 137	14	66	72	74
 138	15	66	72	75
 139	15	66	72	76
 140	10	81	79	82
 141	10	81	79	83
 142	1	82	79	83
 143	9	79	81	80
 144	8	79	81	84
 145	8	79	81	85
 146	12	80	81	84
 147	12	80	81	85
 148	11	84	81	85
 149	16	74	73	79
 150	14	73	79	81
 151	15	73	79	82
 152	15	73	79	83
 153	10	88	86	89
 154	10	88	86	90
 155	1	89	86	90
 156	9	86	88	87
 157	8	86	88	91
 158	8	86	88	92
 159	12	87	88	91
 160	12	87	88	92
 161	11	91	88	92
 162	16	81	80	86
 163	14	80	86	88
 164	15	80	86	89
 165	15	80	86	90
 166	10	95	93	96
 167	10	95	93	97
 168	1	96	93	97
 169	9	93	95	94
 170	8	93	95	98
 171	8	93	95	99
 172	12	94	95	98
 173	12	94	95	99
 174	11	98	95	99
 175	16	88	87	93
 176	14	87	93	95