pySIMM System Object

253 atoms
252 bonds
461 angles
322 dihedrals
1 impropers

8 atom types
12 bond types
22 angle types
5 dihedral types
1 improper types

-80.984428 80.984428 xlo xhi
-80.984428 80.984428 ylo yhi
-80.984428 80.984428 zlo zhi

Masses

   1	16.0	# o
   2	12.01	# c
   3	12.01	# c2
   4	12.01	# ce
   5	1.008	# ha
   6	12.01	# c3
   7	1.008	# h1
   8	12.01	# c1

Pair Coeffs

   1	0.21	2.959921901149463	# o
   2	0.086	3.3996695084235347	# c
   3	0.086	3.3996695084235347	# c2
   4	0.086	3.3996695084235347	# ce
   5	0.015	2.59964245953351	# ha
   6	0.1094	3.3996695084235347	# c3
   7	0.0157	2.471353044121301	# h1
   8	0.21	3.3996695084235347	# c1

Bond Coeffs

   1	343.1	1.0879	# c2,ha
   2	547.3	1.3461	# c2,ce
   3	342.5	1.0883	# ce,ha
   4	354.5	1.4825	# c,ce
   5	637.7	1.2183	# c,o
   6	449.9	1.3165	# c3,o
   7	326.8	1.5095	# c2,c3
   8	330.6	1.0969	# c3,h1
   9	622.9	1.2247	# c2,o
  10	625.0	1.307	# c1,c2
  11	758.1	1.1724	# c1,o
  12	569.4	1.3343	# c2,c2

Angle Coeffs

   1	38.11	116.9	# ha,c2,ha
   2	49.51	120.45	# ce,c2,ha
   3	49.61	119.94	# c2,ce,ha
   4	46.52	116.46	# c,ce,ha
   5	65.45	120.42	# c,ce,c2
   6	68.83	123.2	# ce,c,o
   7	77.94	130.25	# o,c,o
   8	47.07	109.96	# c2,c3,h1
   9	68.15	110.35	# c2,c3,o
  10	45.94	115.68	# c3,c2,ha
  11	39.24	108.46	# h1,c3,h1
  12	52.64	116.45	# h1,c3,o
  13	65.83	113.14	# c2,o,c
  14	67.92	122.82	# c3,c2,o
  15	55.28	117.23	# ha,c2,o
  16	65.83	113.14	# c2,o,c3
  17	62.94	179.5	# c2,c1,o
  18	70.06	121.62	# c1,c2,c2
  19	49.85	120.43	# c2,c2,ha
  20	50.62	120.42	# c1,c2,ha
  21	65.83	113.14	# c3,o,c1
  22	68.89	180.0	# o,c1,o

Dihedral Coeffs

   1	1	6.65	2	180	# X,c2,ce,X
   2	1	2.175	2	180	# X,c,ce,X
   3	1	0.0	2	0	# X,c2,c3,X
   4	1	6.65	2	180	# X,c2,c2,X
   5	1	0.0	2	180	# X,c1,c2,X

Improper Coeffs

   1	10.5	-1	2	# c,X,X,o

Atoms

   1	1	1	-0.104756	-15.0329	-13.3624	19.8008
   2	1	1	-0.569213	-13.3582	-12.3466	18.8546
   3	1	2	0.789146	-14.3795	-13.0103	18.8195
   4	1	3	-0.154228	-14.6373	-12.6383	16.2978
   5	1	4	-0.389642	-15.0288	-13.2344	17.4716
   6	1	5	0.157325	-15.135	-12.8518	15.3511
   7	1	5	0.138289	-13.7757	-11.9713	16.2448
   8	1	5	0.133078	-15.8998	-13.8922	17.4782
   9	1	3	-8e-06	-14.6358	-14.2217	20.5963
  10	1	1	-0.400145	-15.0422	-16.1166	19.2909
  11	1	6	0.053825	-15.1713	-15.6299	20.5175
  12	1	5	0.095789	-14.9001	-13.9118	21.6096
  13	1	5	0.095196	-13.5598	-14.3484	20.5726
  14	1	7	0.084202	-16.1928	-15.5623	20.8913
  15	1	7	0.07114	-14.6409	-16.1762	21.2948
  16	1	3	-8e-06	-15.4363	-17.2627	19.0548
  17	1	1	-0.400145	-15.7114	-18.7684	17.3281
  18	1	6	0.053825	-15.6685	-17.4625	17.5578
  19	1	5	0.095789	-16.3641	-17.4674	19.5596
  20	1	5	0.095196	-14.7046	-17.9997	19.4182
  21	1	7	0.084202	-14.8431	-16.9144	17.0499
  22	1	7	0.07114	-16.597	-16.917	17.2906
  23	1	3	-8e-06	-14.6625	-19.3198	16.971
  24	1	1	-0.400145	-13.6454	-21.2685	16.5186
  25	1	6	0.053825	-14.8426	-20.8089	16.7472
  26	1	5	0.095789	-13.9006	-19.2383	17.7341
  27	1	5	0.095196	-14.2638	-18.9006	16.0364
  28	1	7	0.084202	-15.5061	-20.8693	15.8874
  29	1	7	0.07114	-15.405	-21.266	17.5793
  30	1	3	-8e-06	-12.9901	-22.0289	17.2601
  31	1	1	-0.400145	-11.3096	-21.923	18.9125
  32	1	6	0.053825	-11.585	-21.579	17.6427
  33	1	5	0.095789	-12.8705	-22.974	16.7396
  34	1	5	0.095196	-13.5391	-22.2931	18.1802
  35	1	7	0.084202	-11.481	-20.5211	17.4068
  36	1	7	0.07114	-10.9485	-22.0818	16.9417
  37	1	3	-8e-06	-10.8597	-21.0675	19.7155
  38	1	1	-0.400145	-11.4528	-19.4781	21.4762
  39	1	6	0.053825	-11.9375	-20.2047	20.4315
  40	1	5	0.095789	-10.149	-20.408	19.2019
  41	1	5	0.095196	-10.261	-21.5722	20.5067
  42	1	7	0.084202	-12.7022	-20.933	20.752
  43	1	7	0.07114	-12.4481	-19.6264	19.6281
  44	1	3	-8e-06	-12.2233	-18.8536	22.2232
  45	1	1	-0.400145	-11.912	-16.5621	22.0404
  46	1	6	0.053825	-11.6882	-17.5536	22.8704
  47	1	5	0.095789	-12.4129	-19.5747	23.0069
  48	1	5	0.095196	-13.1539	-18.6582	21.6932
  49	1	7	0.084202	-10.6569	-17.7677	23.0752
  50	1	7	0.07114	-12.1462	-17.3815	23.839
  51	1	3	-8e-06	-10.9747	-16.0276	21.41
  52	1	1	-0.400145	-11.2828	-15.9288	19.1706
  53	1	6	0.053825	-10.5601	-16.598	20.0751
  54	1	5	0.095789	-10.0722	-15.9063	22.0219
  55	1	5	0.095196	-11.2829	-15.0116	21.187
  56	1	7	0.084202	-10.717	-17.6741	20.124
  57	1	7	0.07114	-9.41903	-16.5117	20.0016
  58	1	3	-8e-06	-11.5938	-16.5258	18.156
  59	1	1	-0.400145	-12.3756	-16.3599	15.9821
  60	1	6	0.053825	-12.3089	-15.6858	17.1465
  61	1	5	0.095789	-12.3152	-17.3145	18.377
  62	1	5	0.095196	-10.7304	-16.971	17.5896
  63	1	7	0.084202	-11.8425	-14.7033	17.124
  64	1	7	0.07114	-13.2656	-15.5254	17.6355
  65	1	3	-8e-06	-12.7899	-15.8139	14.9794
  66	1	1	-0.400145	-11.9874	-13.7514	14.1426
  67	1	6	0.053825	-11.7681	-15.064	14.1224
  68	1	5	0.095789	-13.5945	-15.1549	15.186
  69	1	5	0.095196	-13.2074	-16.5625	14.3037
  70	1	7	0.084202	-11.8484	-15.4539	13.1153
  71	1	7	0.07114	-10.7711	-15.2858	14.4831
  72	1	3	-8e-06	-11.1203	-12.9967	13.6998
  73	1	1	-0.400145	-11.9775	-11.0126	13.2774
  74	1	6	0.053825	-11.2655	-11.5976	14.2026
  75	1	5	0.095789	-11.148	-13.0068	12.6139
  76	1	5	0.095196	-10.1229	-13.3499	13.9851
  77	1	7	0.084202	-10.2306	-11.164	14.3775
  78	1	7	0.07114	-11.7643	-11.6749	15.1797
  79	1	3	-8e-06	-11.5738	-9.996	12.714
  80	1	1	-0.400145	-10.019	-8.92643	11.3502
  81	1	6	0.053825	-10.5751	-10.1346	11.5478
  82	1	5	0.095789	-11.1918	-9.24425	13.3971
  83	1	5	0.095196	-12.4552	-9.56868	12.2621
  84	1	7	0.084202	-11.1675	-10.5021	10.6912
  85	1	7	0.07114	-9.81039	-10.8688	11.8524
  86	1	3	-8e-06	-10.4054	-8.21671	10.4217
  87	1	1	-0.400145	-12.6976	-7.83119	10.2603
  88	1	6	0.053825	-11.56	-7.27718	10.6644
  89	1	5	0.095789	-10.5992	-8.81994	9.51767
  90	1	5	0.095196	-9.56267	-7.57794	10.1515
  91	1	7	0.084202	-11.3089	-6.32805	10.2089
  92	1	7	0.07114	-11.5613	-6.98712	11.6983
  93	1	3	-8e-06	-13.7624	-7.28555	10.5501
  94	1	1	-0.400145	-14.1263	-5.10193	9.77945
  95	1	6	0.053825	-14.3206	-6.34053	9.46828
  96	1	5	0.095789	-13.739	-6.7385	11.4914
  97	1	5	0.095196	-14.4985	-8.09121	10.6842
  98	1	7	0.084202	-15.373	-6.62428	9.32979
  99	1	7	0.07114	-13.8725	-6.65826	8.4972
 100	1	3	-8e-06	-13.3808	-4.43042	9.05366
 101	1	1	-0.400145	-11.829	-2.68613	8.7954
 102	1	6	0.053825	-12.7677	-3.16476	9.62897
 103	1	5	0.095789	-13.9609	-4.07005	8.20832
 104	1	5	0.095196	-12.5419	-5.00085	8.63395
 105	1	7	0.084202	-12.398	-3.45103	10.6218
 106	1	7	0.07114	-13.623	-2.45429	9.76945
 107	1	3	-8e-06	-11.5774	-1.48088	8.80917
 108	1	1	-0.400145	-10.6404	0.321301	7.74501
 109	1	6	0.053825	-10.6712	-1.00928	7.69519
 110	1	5	0.095789	-11.1697	-1.16014	9.77811
 111	1	5	0.095196	-12.5104	-0.893304	8.70522
 112	1	7	0.084202	-11.1355	-1.41848	6.79894
 113	1	7	0.07114	-9.70791	-1.51408	7.73311
 114	1	3	-8e-06	-10.2499	0.989043	6.75651
 115	1	1	-0.400145	-11.2777	1.85805	4.82225
 116	1	6	0.053825	-11.4112	1.77228	6.14706
 117	1	5	0.095789	-9.79314	0.37763	6.02187
 118	1	5	0.095196	-9.51332	1.76155	6.99869
 119	1	7	0.084202	-11.3789	2.7709	6.59089
 120	1	7	0.07114	-12.3484	1.32796	6.53509
 121	1	3	-8e-06	-12.1188	1.2953	4.12251
 122	1	1	-0.400145	-13.0705	-0.845408	4.43104
 123	1	6	0.053825	-12.0075	-0.221539	3.96741
 124	1	5	0.095789	-12.0349	1.70016	3.15051
 125	1	5	0.095196	-13.1365	1.52524	4.44106
 126	1	7	0.084202	-11.088	-0.521992	4.44933
 127	1	7	0.07114	-11.8584	-0.417229	2.92806
 128	1	3	-8e-06	-13.0289	-2.05906	4.56829
 129	1	1	-0.400145	-14.2254	-4.01548	4.92184
 130	1	6	0.053825	-14.3555	-2.67238	4.91559
 131	1	5	0.095789	-12.35	-2.32838	5.38526
 132	1	5	0.095196	-12.6425	-2.55973	3.67709
 133	1	7	0.084202	-15.0675	-2.30511	4.12703
 134	1	7	0.07114	-14.7737	-2.21178	5.826
 135	1	3	-8e-06	-15.1425	-4.64887	5.44809
 136	1	1	-0.400145	-16.5685	-6.42884	5.01093
 137	1	6	0.053825	-15.2941	-6.1469	5.16284
 138	1	5	0.095789	-16.1245	-4.187	5.22222
 139	1	5	0.095196	-15.0261	-4.5989	6.50843
 140	1	7	0.084202	-14.7881	-6.62853	5.99218
 141	1	7	0.07114	-14.6586	-6.32991	4.26597
 142	1	3	-8e-06	-17.025	-7.5114	5.40114
 143	1	1	-0.400145	-16.4661	-7.92793	7.5172
 144	1	6	0.053825	-17.5555	-7.63245	6.81097
 145	1	5	0.095789	-16.3305	-8.3585	5.25472
 146	1	5	0.095196	-17.8598	-7.731	4.77055
 147	1	7	0.084202	-18.3449	-8.42848	6.69187
 148	1	7	0.07114	-18.1371	-6.69753	6.99736
 149	1	3	-8e-06	-16.2772	-9.0438	8.01844
 150	1	1	-0.400145	-16.1184	-10.325	9.87633
 151	1	6	0.053825	-16.8992	-9.37491	9.34662
 152	1	5	0.095789	-15.2284	-9.14943	8.18244
 153	1	5	0.095196	-16.567	-9.81913	7.30124
 154	1	7	0.084202	-17.9608	-9.68343	9.14817
 155	1	7	0.07114	-17.0081	-8.46206	9.92122
 156	1	3	-8e-06	-16.3567	-10.8438	10.9765
 157	1	1	-0.400145	-15.7871	-12.6606	12.1899
 158	1	6	0.053825	-15.1953	-11.6261	11.5906
 159	1	5	0.095789	-17.1468	-11.5872	10.8974
 160	1	5	0.095196	-16.7552	-10.1836	11.7614
 161	1	7	0.084202	-14.6869	-10.9249	12.2573
 162	1	7	0.07114	-14.4809	-11.883	10.8111
 163	1	3	-8e-06	-15.059	-13.6059	12.5167
 164	1	1	-0.400145	-14.4532	-15.6982	11.7715
 165	1	6	0.053825	-14.3947	-14.4333	11.4609
 166	1	5	0.095789	-15.6256	-14.2927	13.1624
 167	1	5	0.095196	-14.2818	-13.2055	13.1651
 168	1	7	0.084202	-13.3933	-14.0302	11.3593
 169	1	7	0.07114	-14.8415	-14.1968	10.4998
 170	1	3	-8e-06	-13.7329	-16.4956	11.1596
 171	1	1	-0.400145	-12.3152	-17.8172	12.4036
 172	1	6	0.053825	-13.5564	-17.8082	11.885
 173	1	5	0.095789	-12.7696	-16.0561	10.9702
 174	1	5	0.095196	-14.2075	-16.7236	10.2224
 175	1	7	0.084202	-13.721	-18.5844	11.124
 176	1	7	0.07114	-14.357	-17.9074	12.6433
 177	1	3	-8e-06	-12.0159	-18.7629	13.1524
 178	1	1	-0.400145	-10.1446	-19.809	14.0556
 179	1	6	0.053825	-10.7635	-18.6482	14.0628
 180	1	5	0.095789	-11.8972	-19.6711	12.5479
 181	1	5	0.095196	-12.8649	-18.9911	13.8214
 182	1	7	0.084202	-11.1248	-18.3959	15.0839
 183	1	7	0.07114	-10.2263	-17.7591	13.7111
 184	1	3	-8e-06	-9.27036	-20.0758	14.8984
 185	1	1	-0.400145	-8.16324	-21.7517	16.068
 186	1	6	0.053825	-8.75491	-21.5029	14.9161
 187	1	5	0.095789	-9.6196	-19.9023	15.905
 188	1	5	0.095196	-8.37312	-19.4589	14.7535
 189	1	7	0.084202	-8.15908	-21.7096	13.9666
 190	1	7	0.07114	-9.64678	-22.0699	14.764
 191	1	3	-8e-06	-7.98847	-22.9465	16.213
 192	1	1	-0.400145	-6.42718	-24.6662	16.2676
 193	1	6	0.053825	-6.62959	-23.4596	15.7196
 194	1	5	0.095789	-8.77677	-23.6091	15.774
 195	1	5	0.095196	-8.09624	-23.1907	17.2657
 196	1	7	0.084202	-5.81635	-22.8311	16.0776
 197	1	7	0.07114	-6.52996	-23.3936	14.5618
 198	1	3	-8e-06	-5.61966	-25.5041	15.7713
 199	1	1	-0.400145	-5.15594	-25.1815	13.4294
 200	1	6	0.053825	-5.844	-25.9485	14.3203
 201	1	5	0.095789	-5.65965	-26.4438	16.2981
 202	1	5	0.095196	-4.59188	-25.1329	15.8571
 203	1	7	0.084202	-6.93997	-25.9904	14.2921
 204	1	7	0.07114	-5.55643	-27.003	14.2939
 205	1	3	-8e-06	-5.36339	-25.3621	12.1917
 206	1	1	-0.400145	-5.57408	-23.0432	11.7666
 207	1	6	0.053825	-4.99262	-24.1732	11.3065
 208	1	5	0.095789	-6.3338	-25.5947	11.9985
 209	1	5	0.095196	-4.75657	-26.219	11.8683
 210	1	7	0.084202	-5.09508	-24.3831	10.2144
 211	1	7	0.07114	-3.92255	-24.0648	11.6178
 212	1	3	-8e-06	-4.87655	-22.0153	11.9222
 213	1	1	-0.400145	-3.03418	-21.5389	13.232
 214	1	6	0.053825	-4.39346	-21.7685	13.3696
 215	1	5	0.095789	-5.41819	-21.1399	11.6414
 216	1	5	0.095196	-4.04443	-22.003	11.3022
 217	1	7	0.084202	-4.60524	-22.751	13.8498
 218	1	7	0.07114	-5.03753	-20.9928	13.8233
 219	1	3	-8e-06	-2.20855	-22.414	13.5248
 220	1	1	-0.400145	-0.495543	-22.8376	14.8413
 221	1	6	0.053825	-1.57149	-22.1755	14.8979
 222	1	5	0.095789	-1.47013	-22.6227	12.7196
 223	1	5	0.095196	-2.66384	-23.4222	13.7522
 224	1	7	0.084202	-2.31341	-22.5162	15.7268
 225	1	7	0.07114	-1.48646	-21.1506	14.8964
 226	1	3	-8e-06	0.594042	-22.3298	14.8743
 227	1	1	-0.400145	2.29655	-23.4075	13.4666
 228	1	6	0.053825	1.77653	-23.3155	14.7016
 229	1	5	0.095789	0.747767	-21.872	15.861
 230	1	5	0.095196	0.77018	-21.4861	14.1785
 231	1	7	0.084202	1.40494	-24.3444	15.0826
 232	1	7	0.07114	2.49533	-23.2025	15.5908
 233	1	3	-8e-06	3.4706	-23.8268	13.301
 234	1	1	-0.400145	4.04551	-25.6312	11.9589
 235	1	6	0.053825	3.84621	-24.3282	11.8492
 236	1	5	0.095789	3.67851	-24.6203	13.9373
 237	1	5	0.095196	4.20736	-23.0943	13.5053
 238	1	7	0.084202	4.84994	-23.8358	11.6054
 239	1	7	0.07114	3.1419	-23.9982	11.1678
 240	1	3	-8e-06	3.85846	-26.3833	10.9482
 241	1	1	-0.400145	4.78121	-27.2307	8.9379
 242	1	6	0.053825	4.93157	-26.3194	9.86197
 243	1	5	0.095789	2.85856	-26.2742	10.3665
 244	1	5	0.095196	3.89952	-27.3659	11.3334
 245	1	7	0.084202	5.87717	-26.625	10.2377
 246	1	7	0.07114	5.14704	-25.2498	9.56501
 247	1	3	-0.232441	3.1249	-25.537	6.82658
 248	1	8	0.444336	4.74351	-26.8306	7.80536
 249	1	3	-0.096823	3.5878	-26.7307	7.2193
 250	1	1	-0.491911	5.60808	-26.4941	7.17853
 251	1	5	0.148316	2.18091	-25.3685	6.33716
 252	1	5	0.163898	3.79815	-24.7035	6.99146
 253	1	5	0.064625	3.02766	-27.5655	6.87462

Velocities

   1	-0.00294131	0.00206949	0.00524909
   2	0.00356273	-0.00164771	-0.00433578
   3	-0.00202075	-0.00141692	0.00323791
   4	-0.00779415	0.00440198	0.00487882
   5	-0.00161003	0.00126867	0.00764506
   6	-0.00728333	0.00116452	0.00267558
   7	-0.00665209	0.00812315	0.0061175
   8	-0.00293086	0.00463241	0.00604008
   9	0.00378842	-0.00126721	0.00169682
  10	-0.00112891	-0.000310609	0.00446924
  11	0.000713345	0.00234263	0.00342763
  12	0.0103031	-0.00474499	0.0036585
  13	0.00340771	-0.0127275	-0.0300333
  14	-0.0126602	-0.00971526	-0.00343605
  15	0.00540861	-0.00231996	-0.0123411
  16	-0.00566216	0.00339172	0.00696339
  17	-0.00135736	0.00371741	0.00930822
  18	-0.000337333	0.00307959	0.000927648
  19	0.00176211	0.000280559	-0.00216711
  20	-0.000688434	0.00719628	0.0151249
  21	-0.00573023	-0.000694869	-0.00686468
  22	0.0062995	0.00910047	0.00148522
  23	-0.00906554	-0.00172353	-0.00240821
  24	-0.00117494	-0.00170287	0.00502415
  25	-0.00624419	0.000292391	-0.00167481
  26	-0.00414558	0.00306236	-0.00806733
  27	-0.0192472	-0.00598244	-0.0167747
  28	0.00303958	0.01524	0.00328367
  29	-0.0254396	0.00450564	-0.0223916
  30	-0.00357665	0.00725021	0.0044345
  31	-0.0089573	-0.00452186	0.00782931
  32	-0.00906496	-0.0105227	0.00695196
  33	-0.0231447	-0.00581176	0.0177127
  34	0.00578681	0.00910702	0.0005059
  35	-0.00538984	-0.00361675	0.00548122
  36	0.00648651	-0.00486714	7.2676e-05
  37	-0.00235927	-0.00361589	0.00454306
  38	-0.00618174	0.00501129	0.00802265
  39	-0.000758942	-0.00148473	0.00327901
  40	-0.00218933	0.00518576	-0.00789466
  41	0.0267383	-0.0237773	-0.0107374
  42	-0.00442373	0.00225923	0.0120305
  43	0.00147533	-0.0200797	-0.000254607
  44	-0.0110675	-0.000944975	0.0154082
  45	0.000804997	-0.00364308	0.00963086
  46	-0.00354157	-0.00266911	0.00963905
  47	0.00264757	0.00221215	-0.000252475
  48	-0.0202975	-0.00630702	0.00730873
  49	-0.00685584	0.00603546	0.0176569
  50	0.00463214	0.0134545	0.0194838
  51	-0.00672694	-0.00391895	0.00421512
  52	-0.00457126	-0.00098405	0.00601393
  53	-0.00649179	-0.007302	0.00406787
  54	0.00219346	0.00465487	-0.0068651
  55	-0.0106552	-0.0210313	0.00209442
  56	-0.00834137	-0.00800799	0.00857202
  57	0.00969088	-0.0169511	0.0151651
  58	-0.00355121	0.00928997	0.00888639
  59	0.0045443	-0.00377144	0.00742731
  60	0.00275272	0.00102635	0.00242752
  61	-0.00303977	0.00566858	-0.0100976
  62	-0.0035166	-0.00995753	0.00268765
  63	-0.000541632	0.00361885	0.000123049
  64	-0.000120265	0.00819901	0.012262
  65	-0.0014432	-0.000781784	0.00957824
  66	-0.00480148	-0.00227006	0.00377708
  67	-0.00499146	-0.00580529	0.00739461
  68	0.00509013	-0.0218083	0.00831978
  69	0.0118	-0.0175649	0.00373625
  70	0.00609748	-0.0210189	0.00487276
  71	-0.00667612	-0.0122119	0.0110547
  72	-0.00234234	-0.00307055	0.00469873
  73	0.00259027	-0.000722483	0.0017219
  74	0.00350939	-0.00105405	0.00437463
  75	0.00576972	-0.00486267	0.00804866
  76	-0.00965222	0.00270486	0.0103273
  77	0.00897543	0.000557081	0.00685059
  78	0.010914	0.000323844	0.0227302
  79	0.00388909	-0.00804086	0.000510951
  80	0.000789621	0.00237407	0.000474446
  81	0.00276542	-0.00484278	0.0039863
  82	-0.00797266	-0.0079037	-0.0135288
  83	0.0117383	0.00086444	0.000834858
  84	0.0154394	-0.00363164	-0.00637407
  85	0.0158765	-0.00399454	0.0107909
  86	-0.00257105	-0.00679253	-0.00353888
  87	-0.000473246	-0.00318353	-0.00343991
  88	-0.000418753	-0.00554844	-0.00335538
  89	0.00308542	-0.00529216	0.0114839
  90	-0.00317184	-0.00999533	-0.00604231
  91	-0.000501661	-7.19966e-05	0.0116865
  92	0.00297824	-0.0108936	-0.017307
  93	-0.00458377	-0.00697103	-0.00123455
  94	0.00507516	-0.00274638	0.00569497
  95	-0.00266493	-0.00340109	0.00279349
  96	0.00595126	-0.00644982	0.0165148
  97	0.00135324	-0.00723266	-0.0050974
  98	-0.0109851	-0.00119774	0.00924022
  99	-0.0180219	-0.0195687	0.00276703
 100	0.00349424	-0.00607665	8.91489e-05
 101	-0.00404687	-0.00363895	-0.00218807
 102	-0.000255802	-0.0068552	0.00517278
 103	0.0293281	-0.00912668	0.00353511
 104	-0.000504346	-0.0107825	0.00800511
 105	-0.00186705	-0.00591027	-0.00132168
 106	0.01187	-0.00152819	0.00681352
 107	0.000572291	-0.00520655	0.00781918
 108	0.00402056	-0.00381761	0.00242251
 109	-0.000592723	-0.00630925	0.000936121
 110	0.0104795	-0.0179283	0.00433787
 111	0.00292329	-0.0264292	0.00137611
 112	-0.0184914	-0.00347001	0.0166417
 113	0.00192413	-0.0154027	-0.0063052
 114	-0.00234086	-0.00911736	-0.00434224
 115	-0.00567237	-0.0034737	-0.000411237
 116	-0.00131005	0.00160884	-0.00208826
 117	-0.00757028	-0.0216718	0.00323712
 118	0.00575221	-0.0112133	0.000611187
 119	-0.00152812	-0.0106372	-0.00268687
 120	0.00620149	-0.00540704	-0.00960395
 121	-9.01242e-05	-0.0057252	-0.00340248
 122	0.00104548	-0.00752508	-0.00431937
 123	-0.00252984	-0.00917774	0.00269335
 124	0.00510326	-0.0202178	-0.0158606
 125	-0.00771658	-0.025749	-0.0146262
 126	0.00448246	-0.0165182	-0.00310845
 127	-0.00318219	-0.000524023	-0.0120249
 128	-0.00231956	-0.00302757	-0.000674134
 129	0.000483618	-0.00425457	-0.00467265
 130	0.000562882	-0.00348981	-0.00505296
 131	-0.00704242	0.0058357	-0.000977706
 132	0.00988269	-0.00557617	-0.0023176
 133	0.00653428	-0.00427719	-0.00279577
 134	0.00572604	-0.0124151	0.0021629
 135	0.0061908	-0.00410833	-0.00647919
 136	0.00549096	-0.00566242	-0.00364067
 137	0.00667607	-0.00567455	0.00227805
 138	0.00417748	0.00411987	-0.0040646
 139	0.0137719	-0.0172033	-0.00638574
 140	-0.0165539	0.000818785	0.00467883
 141	0.00741661	0.00159338	0.00690967
 142	0.00401606	-0.00149384	-0.00640228
 143	-0.0039623	-0.00245792	-0.000984549
 144	0.00121735	-0.00351817	0.00185209
 145	-0.00233112	-0.0152167	-0.00335355
 146	-0.0139884	0.000537344	-0.0123426
 147	0.0101304	-0.00139079	0.00309286
 148	0.00964231	0.00282478	0.0087766
 149	0.007	-0.00428924	0.00166298
 150	0.00177911	-0.0140083	-0.000323443
 151	0.00117334	-0.00877514	-0.00243518
 152	0.00777167	0.0239004	-0.010699
 153	0.0185441	0.000754193	0.00983747
 154	-0.00405441	-0.0228177	-0.0112639
 155	0.0142513	-0.0217098	0.0151607
 156	0.00359067	-0.00829014	0.00636159
 157	-0.00161201	-0.00191533	0.007705
 158	0.000417369	-0.00883286	0.00486657
 159	0.0167369	-0.0126874	0.00357268
 160	-0.00239613	-0.0131628	0.00809094
 161	0.00143949	0.0020655	0.000864485
 162	0.000177936	-0.015662	0.0165724
 163	0.00148839	-0.00373014	0.00648162
 164	-0.0109815	-0.000935544	-0.00233608
 165	-0.0027984	-0.00139809	0.0038979
 166	0.000385889	0.0196036	0.0186924
 167	-0.0127439	0.0139634	-0.000764675
 168	-0.0227331	-0.00323222	0.0105191
 169	-0.0119712	0.0190126	0.018526
 170	-0.00489224	0.00583764	0.00191881
 171	-0.00417486	-0.00038862	0.00854924
 172	-0.00265369	0.00225117	0.00107168
 173	0.0171792	-0.00147269	0.00175142
 174	-0.0214706	-0.0120887	-0.00879226
 175	-0.00117982	-0.0165809	0.00157777
 176	0.00367959	-0.00107343	-0.00227806
 177	-0.00658939	0.00171933	0.0116864
 178	-0.00396012	-0.00411245	0.00889071
 179	-0.00113206	0.00171541	0.00615991
 180	0.0116775	-0.00322479	0.00423821
 181	-0.00533343	0.0159392	0.0101068
 182	0.000678101	-0.00741181	0.016959
 183	0.013073	-0.00139002	0.0205163
 184	-0.00604517	-0.000447548	0.00370879
 185	-0.00357844	0.00109545	0.00482365
 186	-0.000936408	-0.00427091	0.00720758
 187	0.0104774	-0.00882054	0.01485
 188	0.0144054	-0.0162223	-0.000385976
 189	-0.0178904	-0.00491148	0.00951633
 190	-0.0291947	-0.0134283	0.0214955
 191	-0.00983344	-0.00237457	0.00724211
 192	-0.00811354	-0.00434089	0.0077956
 193	-0.00213504	0.00400149	0.00911264
 194	0.0188867	-0.01188	0.0127488
 195	-0.0311277	-0.0215145	0.000489452
 196	-0.0259439	0.0143198	0.0157908
 197	0.00130431	-0.00528017	0.0247833
 198	-0.00223065	-0.00849617	-0.00282539
 199	0.00252602	-0.00780125	0.00312288
 200	-0.00211442	-0.000452019	0.0033221
 201	-0.00396734	0.0132174	0.00719238
 202	0.0269891	-0.0110511	0.0129001
 203	-0.0365829	-0.028191	-0.0228317
 204	0.0258205	0.0179953	0.00355644
 205	-0.0136448	-0.00495776	0.00370956
 206	-0.00616786	0.00394292	0.00306468
 207	-0.0138048	-0.0042662	0.00802381
 208	0.00640682	-0.0188143	0.0233908
 209	-0.00855257	-0.0352478	0.0238396
 210	-0.00244589	0.00842107	0.022244
 211	0.0096928	0.00707269	0.00435437
 212	-0.00671199	-0.0127246	-0.00413526
 213	-0.0119022	-0.00736866	0.00548191
 214	-0.00342843	-0.00683818	-0.00354378
 215	-0.0108803	-0.0321009	0.0148303
 216	0.0122079	0.0293033	-0.00691441
 217	0.0214223	0.0197799	-0.00522005
 218	-0.0122013	-0.00096485	0.00468066
 219	-0.00637149	0.00553151	0.00831799
 220	0.00147662	-0.00232626	-0.00271855
 221	0.00289078	-0.00551555	-0.00186713
 222	0.000693872	-0.0220738	0.0108847
 223	-0.0134965	0.00483733	-0.0100919
 224	0.000102685	-0.00568082	-0.00350535
 225	-0.0074529	0.0121659	-0.000944455
 226	-0.00424762	0.00627497	0.00536813
 227	-0.00628516	-0.00696565	-0.00163415
 228	0.00141185	-0.0113835	0.00019817
 229	0.0160766	0.0222622	-0.0255842
 230	0.0126827	-0.0138031	-0.00905319
 231	-0.0189216	0.00408622	-0.0110667
 232	0.0165316	-0.0357029	0.0141654
 233	-0.00710257	-0.0296798	0.00424804
 234	-0.00643768	-0.00131148	0.00289411
 235	-0.0164557	-0.00967726	-0.000642141
 236	-0.0200362	-0.0172925	-0.0192519
 237	0.0233904	-0.0109602	0.00459567
 238	-0.0117178	0.0160235	0.0192346
 239	0.00589967	0.0113646	0.0166248
 240	-0.00786817	-0.0146264	-0.00600622
 241	0.00397253	-0.000283557	0.00469503
 242	0.00418992	0.00155868	0.00173622
 243	-0.0086593	0.0106085	-0.0230749
 244	-0.0410974	-0.0110862	0.0231636
 245	0.00360958	0.0399978	-0.0423577
 246	0.0243839	0.0107417	0.00567958
 247	0.00235653	-0.0118173	-0.000529675
 248	-0.0107176	-0.00291739	0.00804584
 249	-0.00389576	0.00120149	0.00353514
 250	-0.00525348	-0.00132797	0.000334182
 251	-0.00228979	0.0167689	-0.00846368
 252	-0.0112345	0.0107836	-0.0185581
 253	-0.00289287	-0.0144615	-0.0425432

Bonds

   1	5	1	3
   2	5	2	3
   3	4	3	5
   4	2	4	5
   5	1	4	6
   6	1	4	7
   7	3	5	8
   8	7	9	11
   9	1	9	12
  10	1	9	13
  11	6	10	11
  12	8	11	14
  13	8	11	15
  14	9	1	9
  15	7	16	18
  16	1	16	19
  17	1	16	20
  18	6	17	18
  19	8	18	21
  20	8	18	22
  21	9	10	16
  22	7	23	25
  23	1	23	26
  24	1	23	27
  25	6	24	25
  26	8	25	28
  27	8	25	29
  28	9	17	23
  29	7	30	32
  30	1	30	33
  31	1	30	34
  32	6	31	32
  33	8	32	35
  34	8	32	36
  35	9	24	30
  36	7	37	39
  37	1	37	40
  38	1	37	41
  39	6	38	39
  40	8	39	42
  41	8	39	43
  42	9	31	37
  43	7	44	46
  44	1	44	47
  45	1	44	48
  46	6	45	46
  47	8	46	49
  48	8	46	50
  49	9	38	44
  50	7	51	53
  51	1	51	54
  52	1	51	55
  53	6	52	53
  54	8	53	56
  55	8	53	57
  56	9	45	51
  57	7	58	60
  58	1	58	61
  59	1	58	62
  60	6	59	60
  61	8	60	63
  62	8	60	64
  63	9	52	58
  64	7	65	67
  65	1	65	68
  66	1	65	69
  67	6	66	67
  68	8	67	70
  69	8	67	71
  70	9	59	65
  71	7	72	74
  72	1	72	75
  73	1	72	76
  74	6	73	74
  75	8	74	77
  76	8	74	78
  77	9	66	72
  78	7	79	81
  79	1	79	82
  80	1	79	83
  81	6	80	81
  82	8	81	84
  83	8	81	85
  84	9	73	79
  85	7	86	88
  86	1	86	89
  87	1	86	90
  88	6	87	88
  89	8	88	91
  90	8	88	92
  91	9	80	86
  92	7	93	95
  93	1	93	96
  94	1	93	97
  95	6	94	95
  96	8	95	98
  97	8	95	99
  98	9	87	93
  99	7	100	102
 100	1	100	103
 101	1	100	104
 102	6	101	102
 103	8	102	105
 104	8	102	106
 105	9	94	100
 106	7	107	109
 107	1	107	110
 108	1	107	111
 109	6	108	109
 110	8	109	112
 111	8	109	113
 112	9	101	107
 113	7	114	116
 114	1	114	117
 115	1	114	118
 116	6	115	116
 117	8	116	119
 118	8	116	120
 119	9	108	114
 120	7	121	123
 121	1	121	124
 122	1	121	125
 123	6	122	123
 124	8	123	126
 125	8	123	127
 126	9	115	121
 127	7	128	130
 128	1	128	131
 129	1	128	132
 130	6	129	130
 131	8	130	133
 132	8	130	134
 133	9	122	128
 134	7	135	137
 135	1	135	138
 136	1	135	139
 137	6	136	137
 138	8	137	140
 139	8	137	141
 140	9	129	135
 141	7	142	144
 142	1	142	145
 143	1	142	146
 144	6	143	144
 145	8	144	147
 146	8	144	148
 147	9	136	142
 148	7	149	151
 149	1	149	152
 150	1	149	153
 151	6	150	151
 152	8	151	154
 153	8	151	155
 154	9	143	149
 155	7	156	158
 156	1	156	159
 157	1	156	160
 158	6	157	158
 159	8	158	161
 160	8	158	162
 161	9	150	156
 162	7	163	165
 163	1	163	166
 164	1	163	167
 165	6	164	165
 166	8	165	168
 167	8	165	169
 168	9	157	163
 169	7	170	172
 170	1	170	173
 171	1	170	174
 172	6	171	172
 173	8	172	175
 174	8	172	176
 175	9	164	170
 176	7	177	179
 177	1	177	180
 178	1	177	181
 179	6	178	179
 180	8	179	182
 181	8	179	183
 182	9	171	177
 183	7	184	186
 184	1	184	187
 185	1	184	188
 186	6	185	186
 187	8	186	189
 188	8	186	190
 189	9	178	184
 190	7	191	193
 191	1	191	194
 192	1	191	195
 193	6	192	193
 194	8	193	196
 195	8	193	197
 196	9	185	191
 197	7	198	200
 198	1	198	201
 199	1	198	202
 200	6	199	200
 201	8	200	203
 202	8	200	204
 203	9	192	198
 204	7	205	207
 205	1	205	208
 206	1	205	209
 207	6	206	207
 208	8	207	210
 209	8	207	211
 210	9	199	205
 211	7	212	214
 212	1	212	215
 213	1	212	216
 214	6	213	214
 215	8	214	217
 216	8	214	218
 217	9	206	212
 218	7	219	221
 219	1	219	222
 220	1	219	223
 221	6	220	221
 222	8	221	224
 223	8	221	225
 224	9	213	219
 225	7	226	228
 226	1	226	229
 227	1	226	230
 228	6	227	228
 229	8	228	231
 230	8	228	232
 231	9	220	226
 232	7	233	235
 233	1	233	236
 234	1	233	237
 235	6	234	235
 236	8	235	238
 237	8	235	239
 238	9	227	233
 239	7	240	242
 240	1	240	243
 241	1	240	244
 242	6	241	242
 243	8	242	245
 244	8	242	246
 245	9	234	240
 246	12	247	249
 247	1	247	251
 248	1	247	252
 249	10	248	249
 250	11	248	250
 251	1	249	253
 252	11	241	248

Angles

   1	7	1	3	2
   2	6	1	3	5
   3	6	2	3	5
   4	2	5	4	6
   5	2	5	4	7
   6	1	6	4	7
   7	5	3	5	4
   8	4	3	5	8
   9	3	4	5	8
  10	10	11	9	12
  11	10	11	9	13
  12	1	12	9	13
  13	9	9	11	10
  14	8	9	11	14
  15	8	9	11	15
  16	12	10	11	14
  17	12	10	11	15
  18	11	14	11	15
  19	13	3	1	9
  20	14	1	9	11
  21	15	1	9	12
  22	15	1	9	13
  23	10	18	16	19
  24	10	18	16	20
  25	1	19	16	20
  26	9	16	18	17
  27	8	16	18	21
  28	8	16	18	22
  29	12	17	18	21
  30	12	17	18	22
  31	11	21	18	22
  32	16	11	10	16
  33	14	10	16	18
  34	15	10	16	19
  35	15	10	16	20
  36	10	25	23	26
  37	10	25	23	27
  38	1	26	23	27
  39	9	23	25	24
  40	8	23	25	28
  41	8	23	25	29
  42	12	24	25	28
  43	12	24	25	29
  44	11	28	25	29
  45	16	18	17	23
  46	14	17	23	25
  47	15	17	23	26
  48	15	17	23	27
  49	10	32	30	33
  50	10	32	30	34
  51	1	33	30	34
  52	9	30	32	31
  53	8	30	32	35
  54	8	30	32	36
  55	12	31	32	35
  56	12	31	32	36
  57	11	35	32	36
  58	16	25	24	30
  59	14	24	30	32
  60	15	24	30	33
  61	15	24	30	34
  62	10	39	37	40
  63	10	39	37	41
  64	1	40	37	41
  65	9	37	39	38
  66	8	37	39	42
  67	8	37	39	43
  68	12	38	39	42
  69	12	38	39	43
  70	11	42	39	43
  71	16	32	31	37
  72	14	31	37	39
  73	15	31	37	40
  74	15	31	37	41
  75	10	46	44	47
  76	10	46	44	48
  77	1	47	44	48
  78	9	44	46	45
  79	8	44	46	49
  80	8	44	46	50
  81	12	45	46	49
  82	12	45	46	50
  83	11	49	46	50
  84	16	39	38	44
  85	14	38	44	46
  86	15	38	44	47
  87	15	38	44	48
  88	10	53	51	54
  89	10	53	51	55
  90	1	54	51	55
  91	9	51	53	52
  92	8	51	53	56
  93	8	51	53	57
  94	12	52	53	56
  95	12	52	53	57
  96	11	56	53	57
  97	16	46	45	51
  98	14	45	51	53
  99	15	45	51	54
 100	15	45	51	55
 101	10	60	58	61
 102	10	60	58	62
 103	1	61	58	62
 104	9	58	60	59
 105	8	58	60	63
 106	8	58	60	64
 107	12	59	60	63
 108	12	59	60	64
 109	11	63	60	64
 110	16	53	52	58
 111	14	52	58	60
 112	15	52	58	61
 113	15	52	58	62
 114	10	67	65	68
 115	10	67	65	69
 116	1	68	65	69
 117	9	65	67	66
 118	8	65	67	70
 119	8	65	67	71
 120	12	66	67	70
 121	12	66	67	71
 122	11	70	67	71
 123	16	60	59	65
 124	14	59	65	67
 125	15	59	65	68
 126	15	59	65	69
 127	10	74	72	75
 128	10	74	72	76
 129	1	75	72	76
 130	9	72	74	73
 131	8	72	74	77
 132	8	72	74	78
 133	12	73	74	77
 134	12	73	74	78
 135	11	77	74	78
 136	16	67	66	72
 137	14	66	72	74
 138	15	66	72	75
 139	15	66	72	76
 140	10	81	79	82
 141	10	81	79	83
 142	1	82	79	83
 143	9	79	81	80
 144	8	79	81	84
 145	8	79	81	85
 146	12	80	81	84
 147	12	80	81	85
 148	11	84	81	85
 149	16	74	73	79
 150	14	73	79	81
 151	15	73	79	82
 152	15	73	79	83
 153	10	88	86	89
 154	10	88	86	90
 155	1	89	86	90
 156	9	86	88	87
 157	8	86	88	91
 158	8	86	88	92
 159	12	87	88	91
 160	12	87	88	92
 161	11	91	88	92
 162	16	81	80	86
 163	14	80	86	88
 164	15	80	86	89
 165	15	80	86	90
 166	10	95	93	96
 167	10	95	93	97
 168	1	96	93	97
 169	9	93	95	94
 170	8	93	95	98
 171	8	93	95	99
 172	12	94	95	98
 173	12	94	95	99
 174	11	98	95	99
 175	16	88	87	93
 176	14	87	93	95
 177	15	87	93	96
 178	15	87	93	97
 179	10	102	100	103
 180	10	102	100	104
 181	1	103	100	104
 182	9	100	102	101
 183	8	100	102	105
 184	8	100	102	106
 185	12	101	102	105
 186	12	101	102	106
 187	11	105	102	106
 188	16	95	94	100
 189	14	94	100	102
 190	15	94	100	103
 191	15	94	100	104
 192	10	109	107	110
 193	10	109	107	111
 194	1	110	107	111
 195	9	107	109	108
 196	8	107	109	112
 197	8	107	109	113
 198	12	108	109	112
 199	12	108	109	113
 200	11	112	109	113
 201	16	102	101	107
 202	14	101	107	109
 203	15	101	107	110
 204	15	101	107	111
 205	10	116	114	117
 206	10	116	114	118
 207	1	117	114	118
 208	9	114	116	115
 209	8	114	116	119
 210	8	114	116	120
 211	12	115	116	119
 212	12	115	116	120
 213	11	119	116	120
 214	16	109	108	114
 215	14	108	114	116
 216	15	108	114	117
 217	15	108	114	118
 218	10	123	121	124
 219	10	123	121	125
 220	1	124	121	125
 221	9	121	123	122
 222	8	121	123	126
 223	8	121	123	127