pySIMM System Object

197 atoms
196 bonds
357 angles
250 dihedrals
1 impropers

8 atom types
12 bond types
22 angle types
5 dihedral types
1 improper types

-74.476632 74.476632 xlo xhi
-74.476632 74.476632 ylo yhi
-74.476632 74.476632 zlo zhi

Masses

   1	16.0	# o
   2	12.01	# c
   3	12.01	# c2
   4	12.01	# ce
   5	1.008	# ha
   6	12.01	# c3
   7	1.008	# h1
   8	12.01	# c1

Pair Coeffs

   1	0.21	2.959921901149463	# o
   2	0.086	3.3996695084235347	# c
   3	0.086	3.3996695084235347	# c2
   4	0.086	3.3996695084235347	# ce
   5	0.015	2.59964245953351	# ha
   6	0.1094	3.3996695084235347	# c3
   7	0.0157	2.471353044121301	# h1
   8	0.21	3.3996695084235347	# c1

Bond Coeffs

   1	343.1	1.0879	# c2,ha
   2	547.3	1.3461	# c2,ce
   3	342.5	1.0883	# ce,ha
   4	354.5	1.4825	# c,ce
   5	637.7	1.2183	# c,o
   6	449.9	1.3165	# c3,o
   7	326.8	1.5095	# c2,c3
   8	330.6	1.0969	# c3,h1
   9	622.9	1.2247	# c2,o
  10	625.0	1.307	# c1,c2
  11	758.1	1.1724	# c1,o
  12	569.4	1.3343	# c2,c2

Angle Coeffs

   1	38.11	116.9	# ha,c2,ha
   2	49.51	120.45	# ce,c2,ha
   3	49.61	119.94	# c2,ce,ha
   4	46.52	116.46	# c,ce,ha
   5	65.45	120.42	# c,ce,c2
   6	68.83	123.2	# ce,c,o
   7	77.94	130.25	# o,c,o
   8	47.07	109.96	# c2,c3,h1
   9	68.15	110.35	# c2,c3,o
  10	45.94	115.68	# c3,c2,ha
  11	39.24	108.46	# h1,c3,h1
  12	52.64	116.45	# h1,c3,o
  13	65.83	113.14	# c2,o,c
  14	67.92	122.82	# c3,c2,o
  15	55.28	117.23	# ha,c2,o
  16	65.83	113.14	# c2,o,c3
  17	62.94	179.5	# c2,c1,o
  18	70.06	121.62	# c1,c2,c2
  19	49.85	120.43	# c2,c2,ha
  20	50.62	120.42	# c1,c2,ha
  21	65.83	113.14	# c3,o,c1
  22	68.89	180.0	# o,c1,o

Dihedral Coeffs

   1	1	6.65	2	180	# X,c2,ce,X
   2	1	2.175	2	180	# X,c,ce,X
   3	1	0.0	2	0	# X,c2,c3,X
   4	1	6.65	2	180	# X,c2,c2,X
   5	1	0.0	2	180	# X,c1,c2,X

Improper Coeffs

   1	10.5	-1	2	# c,X,X,o

Atoms

   1	1	1	-0.104756	-13.83	0.0465923	2.47131
   2	1	1	-0.569213	-15.7143	-0.613111	3.31122
   3	1	2	0.789146	-14.8404	-0.643484	2.4817
   4	1	3	-0.154228	-14.1316	-1.9893	0.441296
   5	1	4	-0.389642	-15.0334	-1.68509	1.43245
   6	1	5	0.157325	-14.3136	-2.7746	-0.2506
   7	1	5	0.138289	-13.1927	-1.46659	0.330901
   8	1	5	0.133078	-15.9508	-2.26125	1.59407
   9	1	3	-8e-06	-13.9556	1.23253	2.25056
  10	1	1	-0.400145	-11.7396	1.60714	1.54148
  11	1	6	0.053825	-12.6786	2.0635	2.41045
  12	1	5	0.095789	-14.6713	1.63673	2.94478
  13	1	5	0.095196	-14.3104	1.39874	1.22311
  14	1	7	0.084202	-12.4771	2.16234	3.46387
  15	1	7	0.07114	-13.0312	3.08873	2.20737
  16	1	3	-8e-06	-10.6537	1.22851	1.93042
  17	1	1	-0.400145	-8.54907	2.04395	2.67875
  18	1	6	0.053825	-9.45148	2.1956	1.71138
  19	1	5	0.095789	-10.3737	0.308469	1.38957
  20	1	5	0.095196	-10.6307	0.951128	2.98509
  21	1	7	0.084202	-9.8366	3.24753	1.65818
  22	1	7	0.07114	-9.01589	2.04649	0.692397
  23	1	3	-8e-06	-7.60365	1.22185	2.56358
  24	1	1	-0.400145	-5.74226	0.360765	1.41354
  25	1	6	0.053825	-6.46541	1.49984	1.62724
  26	1	5	0.095789	-7.94797	0.246711	2.29872
  27	1	5	0.095196	-7.10147	1.18964	3.52458
  28	1	7	0.084202	-5.89481	2.33945	2.03517
  29	1	7	0.07114	-6.82617	1.8856	0.677529
  30	1	3	-8e-06	-4.58323	0.479084	0.970429
  31	1	1	-0.400145	-3.46452	0.938066	-0.980878
  32	1	6	0.053825	-4.51968	0.26176	-0.54758
  33	1	5	0.095789	-3.90553	-0.232643	1.40462
  34	1	5	0.095196	-4.15897	1.45157	1.14804
  35	1	7	0.084202	-5.44366	0.599161	-1.02348
  36	1	7	0.07114	-4.53771	-0.846215	-0.743768
  37	1	3	-8e-06	-2.85905	0.645879	-1.98375
  38	1	1	-0.400145	-2.56749	-1.66217	-1.70658
  39	1	6	0.053825	-1.93949	-0.535041	-2.02406
  40	1	5	0.095789	-2.33652	1.49115	-2.37727
  41	1	5	0.095196	-3.59952	0.414744	-2.7565
  42	1	7	0.084202	-1.12313	-0.360089	-1.31272
  43	1	7	0.07114	-1.54962	-0.574787	-3.04559
  44	1	3	-8e-06	-1.93398	-2.60191	-1.19319
  45	1	1	-0.400145	-1.81957	-4.72831	-0.652874
  46	1	6	0.053825	-2.48582	-3.97293	-1.44911
  47	1	5	0.095789	-1.73746	-2.43841	-0.133932
  48	1	5	0.095196	-0.925989	-2.60765	-1.59207
  49	1	7	0.084202	-2.31583	-4.22202	-2.47206
  50	1	7	0.07114	-3.58682	-3.90186	-1.31148
  51	1	3	-8e-06	-2.3281	-5.20307	0.401301
  52	1	1	-0.400145	-2.60527	-7.4254	0.635993
  53	1	6	0.053825	-3.29553	-6.33589	0.284933
  54	1	5	0.095789	-2.80946	-4.40705	0.945549
  55	1	5	0.095196	-1.49419	-5.54356	0.999776
  56	1	7	0.084202	-3.69133	-6.29405	-0.731178
  57	1	7	0.07114	-4.10786	-6.09986	0.982345
  58	1	3	-8e-06	-3.02969	-8.49233	0.293643
  59	1	1	-0.400145	-3.20061	-9.88999	-1.51143
  60	1	6	0.053825	-2.441	-8.89572	-1.02569
  61	1	5	0.095789	-4.10121	-8.59922	0.264116
  62	1	5	0.095196	-2.68864	-9.20197	1.01969
  63	1	7	0.084202	-1.42328	-9.22511	-0.86151
  64	1	7	0.07114	-2.39083	-8.02146	-1.71506
  65	1	3	-8e-06	-2.80275	-10.3092	-2.60792
  66	1	1	-0.400145	-2.76402	-9.07448	-4.54307
  67	1	6	0.053825	-3.56955	-9.81638	-3.85426
  68	1	5	0.095789	-2.91204	-11.4014	-2.56135
  69	1	5	0.095196	-1.72202	-10.1527	-2.80846
  70	1	7	0.084202	-4.41309	-9.23955	-3.42592
  71	1	7	0.07114	-4.00049	-10.6396	-4.36135
  72	1	3	-8e-06	-3.22846	-8.18967	-5.29015
  73	1	1	-0.400145	-4.96138	-6.71467	-4.48145
  74	1	6	0.053825	-3.63895	-6.86334	-4.64127
  75	1	5	0.095789	-4.13331	-8.53859	-5.80138
  76	1	5	0.095196	-2.53512	-8.02509	-6.11987
  77	1	7	0.084202	-3.14579	-6.04329	-5.15472
  78	1	7	0.07114	-3.05124	-6.79514	-3.70017
  79	1	3	-8e-06	-5.43212	-6.79312	-3.3483
  80	1	1	-0.400145	-6.00201	-5.76736	-1.38515
  81	1	6	0.053825	-5.90657	-5.54482	-2.70501
  82	1	5	0.095789	-4.8845	-7.35922	-2.60395
  83	1	5	0.095196	-6.34519	-7.36227	-3.47905
  84	1	7	0.084202	-6.8853	-5.28319	-3.22634
  85	1	7	0.07114	-5.17285	-4.78079	-3.00565
  86	1	3	-8e-06	-7.05584	-5.4321	-0.841391
  87	1	1	-0.400145	-8.14067	-3.43644	-0.692025
  88	1	6	0.053825	-6.98753	-4.03441	-0.358143
  89	1	5	0.095789	-7.23869	-6.02084	0.0395373
  90	1	5	0.095196	-7.90278	-5.58779	-1.54116
  91	1	7	0.084202	-6.03369	-3.75173	-0.759285
  92	1	7	0.07114	-6.87359	-4.06271	0.739306
  93	1	3	-8e-06	-8.15409	-2.86158	-1.78204
  94	1	1	-0.400145	-7.71948	-1.127	-3.17972
  95	1	6	0.053825	-7.46675	-1.51768	-1.91861
  96	1	5	0.095789	-9.18925	-2.70528	-1.92378
  97	1	5	0.095196	-7.70875	-3.46444	-2.57058
  98	1	7	0.084202	-6.42624	-1.64913	-1.54812
  99	1	7	0.07114	-7.9706	-0.883616	-1.15166
 100	1	3	-8e-06	-6.76384	-0.973708	-3.94676
 101	1	1	-0.400145	-5.92642	-3.08563	-4.68272
 102	1	6	0.053825	-6.74147	-2.06001	-5.00184
 103	1	5	0.095789	-5.77822	-0.764298	-3.52885
 104	1	5	0.095196	-6.92816	-0.0302506	-4.45521
 105	1	7	0.084202	-6.60163	-1.57857	-6.00614
 106	1	7	0.07114	-7.71737	-2.50108	-5.04884
 107	1	3	-8e-06	-4.80405	-3.08194	-5.23455
 108	1	1	-0.400145	-3.73545	-2.59918	-7.14291
 109	1	6	0.053825	-4.77226	-3.29466	-6.77534
 110	1	5	0.095789	-4.26937	-3.92724	-4.8803
 111	1	5	0.095196	-4.25471	-2.18619	-5.00081
 112	1	7	0.084202	-5.78279	-3.10221	-7.19789
 113	1	7	0.07114	-4.74693	-4.37797	-6.8483
 114	1	3	-8e-06	-3.55056	-2.20043	-8.29243
 115	1	1	-0.400145	-4.84347	-0.37686	-8.84687
 116	1	6	0.053825	-3.59684	-0.6755	-8.52602
 117	1	5	0.095789	-4.31642	-2.6222	-9.01381
 118	1	5	0.095196	-2.58346	-2.71692	-8.73392
 119	1	7	0.084202	-2.92568	-0.374825	-9.32783
 120	1	7	0.07114	-3.05342	-0.1728	-7.68591
 121	1	3	-8e-06	-5.42295	0.331233	-8.01684
 122	1	1	-0.400145	-7.17856	1.89291	-8.00303
 123	1	6	0.053825	-6.9631	0.59176	-8.14029
 124	1	5	0.095789	-4.88085	1.26432	-7.98176
 125	1	5	0.095196	-5.34206	-0.0679125	-6.98866
 126	1	7	0.084202	-7.48785	0.00786873	-7.46197
 127	1	7	0.07114	-7.17615	0.16301	-9.09442
 128	1	3	-8e-06	-7.91469	2.50776	-8.73444
 129	1	1	-0.400145	-7.55452	4.42955	-10.1432
 130	1	6	0.053825	-7.72388	4.04045	-8.88289
 131	1	5	0.095789	-8.99047	2.34904	-8.39948
 132	1	5	0.095196	-7.90617	2.04824	-9.69365
 133	1	7	0.084202	-6.88739	4.33239	-8.243
 134	1	7	0.07114	-8.64709	4.54739	-8.4971
 135	1	3	-8e-06	-6.41209	4.64797	-10.5478
 136	1	1	-0.400145	-4.20211	4.01831	-10.398
 137	1	6	0.053825	-5.42873	3.5082	-10.7456
 138	1	5	0.095789	-5.85383	5.47473	-10.0297
 139	1	5	0.095196	-6.59358	4.96509	-11.5614
 140	1	7	0.084202	-5.41417	3.21521	-11.858
 141	1	7	0.07114	-5.77435	2.62005	-10.2978
 142	1	3	-8e-06	-3.75895	3.6909	-9.23958
 143	1	1	-0.400145	-2.20926	3.979	-7.68827
 144	1	6	0.053825	-3.04231	4.69196	-8.41369
 145	1	5	0.095789	-2.98832	2.89638	-9.4356
 146	1	5	0.095196	-4.56563	3.28923	-8.62508
 147	1	7	0.084202	-3.90858	5.19799	-7.92377
 148	1	7	0.07114	-2.5679	5.41949	-9.04189
 149	1	3	-8e-06	-2.04265	4.23416	-6.48562
 150	1	1	-0.400145	-4.13874	3.42086	-5.89756
 151	1	6	0.053825	-3.04718	3.85854	-5.34585
 152	1	5	0.095789	-1.8801	5.30523	-6.34144
 153	1	5	0.095196	-1.08207	3.80969	-6.10428
 154	1	7	0.084202	-3.25558	4.68825	-4.62241
 155	1	7	0.07114	-2.66179	3.03753	-4.79562
 156	1	3	-8e-06	-4.85933	2.65025	-5.27587
 157	1	1	-0.400145	-4.822	3.09646	-2.8852
 158	1	6	0.053825	-5.57736	3.23322	-4.00434
 159	1	5	0.095789	-4.41854	1.74626	-5.10348
 160	1	5	0.095196	-5.65778	2.39667	-5.90757
 161	1	7	0.084202	-6.57929	2.74962	-3.93426
 162	1	7	0.07114	-5.73168	4.27641	-4.26524
 163	1	3	-8e-06	-5.23516	3.69689	-1.89948
 164	1	1	-0.400145	-5.06428	5.93095	-2.46653
 165	1	6	0.053825	-4.61782	5.08616	-1.54193
 166	1	5	0.095789	-5.06983	2.98122	-1.13599
 167	1	5	0.095196	-6.33114	3.79765	-1.75637
 168	1	7	0.084202	-3.55101	4.93508	-1.51405
 169	1	7	0.07114	-5.01542	5.31021	-0.531944
 170	1	3	-8e-06	-5.69725	6.92163	-2.05095
 171	1	1	-0.400145	-7.55516	8.35764	-2.26245
 172	1	6	0.053825	-7.08002	7.16179	-2.66948
 173	1	5	0.095789	-5.15757	7.81674	-2.45408
 174	1	5	0.095196	-5.74902	7.12528	-1.01094
 175	1	7	0.084202	-7.57582	6.34125	-2.40065
 176	1	7	0.07114	-6.9249	6.87778	-3.70272
 177	1	3	-8e-06	-8.76236	8.50767	-1.98899
 178	1	1	-0.400145	-9.25922	9.08236	0.221313
 179	1	6	0.053825	-9.14548	8.02678	-0.585956
 180	1	5	0.095789	-9.53062	8.14037	-2.63784
 181	1	5	0.095196	-8.88874	9.56337	-1.93387
 182	1	7	0.084202	-8.4122	7.28771	-0.239562
 183	1	7	0.07114	-10.1574	7.63158	-0.666778
 184	1	3	-8e-06	-9.54321	8.86686	1.42109
 185	1	1	-0.400145	-9.10743	6.62319	2.07591
 186	1	6	0.053825	-8.61801	7.94995	2.18698
 187	1	5	0.095789	-10.5875	8.42487	1.49356
 188	1	5	0.095196	-9.53018	9.78824	1.95
 189	1	7	0.084202	-8.44004	8.4087	3.23217
 190	1	7	0.07114	-7.59469	8.14952	1.71892
 191	1	3	-0.232441	-7.48135	4.94949	4.26969
 192	1	8	0.444336	-8.423	5.79739	2.29195
 193	1	3	-0.096823	-8.50863	5.36757	3.52046
 194	1	1	-0.491911	-7.8643	5.11427	1.51429
 195	1	5	0.148316	-7.48207	4.7699	5.32141
 196	1	5	0.163898	-6.48181	4.91693	3.7334
 197	1	5	0.064625	-9.3341	5.55406	4.14806

Velocities

   1	-0.00400199	-0.00164675	0.0059831
   2	-0.00429857	0.00679208	-0.00526879
   3	-0.00278754	-0.0002098	-0.00312146
   4	0.00353089	0.00751652	-0.006727
   5	-0.00534424	0.00104118	-0.00473759
   6	0.00454501	-0.0182111	0.00231584
   7	-0.00318873	0.01039	-0.0158263
   8	0.0142125	-0.00113548	0.0248774
   9	-0.0012781	0.00574054	-0.000112834
  10	0.00456938	0.00632133	0.000741391
  11	0.000725109	0.000445938	-0.00042973
  12	-0.0182627	-0.00683758	-0.000824015
  13	0.01078	-0.0106647	-0.00229139
  14	0.00544338	-0.000111847	0.000262127
  15	-0.00388182	0.00125273	0.0058059
  16	0.00844375	-0.00273702	-0.00280108
  17	0.00289646	-0.00372773	0.00237605
  18	-0.000555755	0.000544983	0.00114202
  19	0.00331992	0.000196537	-0.0066042
  20	0.00556763	-0.0420971	-0.0068695
  21	0.00899925	0.00537071	0.0271526
  22	-0.0222793	0.0178735	0.00213713
  23	0.0046807	0.00128153	-0.00143547
  24	0.000816979	-0.00108934	0.00678679
  25	0.00127726	-0.00473837	-0.00941727
  26	-0.0112938	-0.0200575	-0.00344318
  27	-0.00552476	0.0120918	-0.0162237
  28	-0.0197894	0.0126161	-0.0127557
  29	-0.0185025	-0.00829526	-0.0192841
  30	0.00777862	-0.000547003	0.00517279
  31	-0.00217302	-0.000410738	0.000705684
  32	-0.00134905	-0.00991146	0.00462394
  33	0.00523549	-0.00941944	0.0163162
  34	0.0160874	-0.0114138	-0.0148913
  35	0.0149816	0.0147613	0.0151143
  36	0.0105182	0.00519535	-0.00965935
  37	-0.00808721	-0.00151358	-0.00505275
  38	0.00109103	-0.000137952	-0.00756367
  39	-0.00761978	-0.00546313	-0.00596231
  40	-0.0143496	0.0117841	0.0134924
  41	-0.0119071	-0.00345427	0.00441224
  42	0.0044814	-0.019795	-0.00556058
  43	-0.0119841	0.00756264	0.00107964
  44	-0.00780582	0.000341435	-0.00408464
  45	-0.00190696	0.00168704	0.00134322
  46	0.00477592	-0.00222915	-0.00567718
  47	-0.0139196	0.0181961	-0.00301412
  48	0.00338004	0.0137965	0.0173046
  49	-0.00936398	-0.0111127	0.00309343
  50	0.00741128	0.0158317	0.00523268
  51	-0.00458553	0.00296162	0.00743848
  52	0.00227533	-0.000950938	-0.00102043
  53	-0.00272658	0.000349326	0.00433331
  54	-0.0116154	0.00041276	0.00135936
  55	0.00708606	0.00336681	-0.0240279
  56	-0.0020201	-0.00980953	-0.0167076
  57	-0.0127212	0.00219529	-0.0166847
  58	0.00595595	0.00568309	-0.00302411
  59	-0.00103669	0.00309039	-0.00685676
  60	-0.000499201	-0.00623781	0.00149236
  61	0.0134362	0.0088131	0.0067532
  62	-0.0131982	0.00715997	-0.00702603
  63	-0.0108691	0.00102345	-0.00107241
  64	-0.00143509	-0.0192214	-0.000338501
  65	-0.000268565	0.00394954	-0.00311195
  66	-0.00150855	0.00366918	-0.00593701
  67	-0.00291804	0.00430309	0.00119216
  68	0.00627522	0.00674818	0.0182538
  69	-0.00855036	-0.00610306	0.0135447
  70	-0.0012829	0.00859111	-0.00395394
  71	-0.0115753	0.0162891	-0.00601069
  72	-0.00516548	-0.00170391	0.00385154
  73	-0.00480644	-0.00291664	-0.00351925
  74	-0.00478151	-0.00197326	0.0066532
  75	0.0105363	0.020476	0.00317335
  76	-0.0199121	-0.0010365	-0.000890379
  77	-0.00178926	-0.0165107	0.00442909
  78	0.00368464	-0.00148829	0.0246498
  79	-0.00957073	0.00596874	-0.00106119
  80	0.00540519	-0.00815722	-0.00371182
  81	-0.00339216	0.00506635	-0.000495006
  82	-0.00481781	0.0162191	-0.00749521
  83	-0.00145988	-0.00913643	0.0085341
  84	0.000991681	0.0147482	0.00207228
  85	-0.0180944	-0.0180286	-0.00302229
  86	-0.000494072	-0.000544144	-0.0073228
  87	0.000232133	-0.00335946	-0.00640488
  88	0.00254628	-0.00278082	0.00295716
  89	0.00225019	-0.000857172	0.00276054
  90	-0.00192213	-0.0235273	-0.0244521
  91	0.0265138	-0.0135278	0.00106792
  92	-0.00771195	0.00647836	-0.0147762
  93	0.00115909	-0.00188698	-0.00748191
  94	-0.0054131	-0.00314178	0.00345073
  95	-0.00239829	-0.00076431	-0.00148535
  96	0.00479214	-0.0153706	9.18459e-06
  97	0.0406783	0.00615622	0.0115744
  98	-0.0239363	0.0183489	0.00650651
  99	0.00862568	-5.82374e-05	0.000530777
 100	-0.000449439	-0.00834997	-0.00846228
 101	-0.00784786	-0.00046372	-0.00568915
 102	-0.00153929	-0.00602842	-0.00703729
 103	-0.0189843	0.00788139	0.00712404
 104	0.002468	-0.00380485	-0.00635473
 105	-0.00176329	-0.0121311	0.00644702
 106	-0.0432402	-0.000407322	-0.0107226
 107	-0.00295138	-0.0035864	0.00558162
 108	-0.000117752	0.00329641	-0.0050606
 109	-0.00756419	0.00447847	-0.00284895
 110	-0.000371042	0.00209798	0.01155
 111	-0.0286778	0.0166085	-0.0180004
 112	0.0038303	-0.00396009	0.0100155
 113	0.00208677	-0.0150898	0.0105398
 114	0.00212767	0.00238712	-0.00257564
 115	-0.000785417	0.00277115	-0.00459609
 116	-0.0027094	0.00515692	0.00574897
 117	-0.0182224	0.0137245	0.0195922
 118	-0.00770398	0.00393939	0.00362008
 119	0.0106771	-0.0213341	0.0179572
 120	-0.0117977	0.0252066	0.000862925
 121	-0.00133972	0.00416161	-0.00496913
 122	0.00619515	-0.000363365	-0.00245897
 123	-0.00288509	-0.0064081	-0.0127737
 124	0.004043	0.00126343	-0.0159501
 125	0.00370281	0.00170909	0.00345183
 126	-0.00503485	0.00136515	-0.0101343
 127	-0.0142023	0.00627788	-0.00858248
 128	-0.00441891	0.002743	-0.00182382
 129	0.00198453	0.00219624	0.00489601
 130	0.00119206	0.00447701	0.0024558
 131	-0.022187	0.0145711	-0.0223363
 132	0.00236772	0.00819924	-0.00283744
 133	0.00221433	-0.0446868	0.01282
 134	0.0434819	0.0225546	0.0138676
 135	0.00265077	-0.00245608	-0.00152153
 136	-0.00133874	0.000126864	-0.00101156
 137	-0.0111386	0.00288387	-0.00151007
 138	-0.00420098	-0.0114608	-0.0136795
 139	-0.021092	0.00127075	-0.0327212
 140	0.0154331	0.00912226	0.0210692
 141	-0.00047662	-0.015039	0.00338637
 142	-0.00166911	-0.00151868	0.00173303
 143	7.36022e-05	-0.00021732	0.0039043
 144	-0.00182119	0.00349703	0.00651399
 145	0.00584201	-0.00413988	-0.0129577
 146	-0.0296849	-0.0121637	-0.00488974
 147	-0.0292607	-0.0171863	0.0149699
 148	0.00303385	0.00946809	-0.00778435
 149	-0.00321682	-0.00140765	-0.00579895
 150	-0.00444313	0.0026671	0.000254864
 151	-0.00849979	0.00325163	-0.00752435
 152	-0.0137481	0.0348043	-0.012693
 153	0.00866361	0.00871981	-0.00521499
 154	-0.00952512	-0.00296246	0.0103721
 155	-0.0133712	0.00360228	0.0268302
 156	0.000774891	-0.010023	-0.000773628
 157	-0.00901407	0.00161739	0.0012645
 158	-0.00664537	-0.00844604	-0.000100962
 159	-0.0168927	0.00726105	0.0186057
 160	0.0365101	0.0173083	0.0115265
 161	-0.016098	-0.00199848	0.0318147
 162	-0.0102618	0.0148563	-0.0246849
 163	0.0146959	-0.00158685	0.0053178
 164	-0.00663507	-0.0062513	-0.000193198
 165	-0.00705446	-0.00448045	-0.000554097
 166	-0.00497797	-0.00161832	0.0247168
 167	0.0251359	-0.012211	-0.0154217
 168	-0.023729	0.0291116	0.0126551
 169	0.0206639	0.0117322	0.00852261
 170	-0.000952628	0.00538771	0.0149773
 171	-0.00182658	0.00742031	-0.00280208
 172	-0.0103916	0.00652438	-0.00555336
 173	-0.0045931	0.00282045	-0.00180076
 174	0.0301167	0.0321829	-0.000647672
 175	0.0028985	0.0229479	0.0403284
 176	-0.00699022	-0.00446762	0.0176623
 177	-0.00303387	-0.00520299	-0.0021851
 178	0.000600487	-0.00660125	-0.00376556
 179	0.00714066	0.00445129	0.00779917
 180	-0.0268816	-0.00339795	0.0181769
 181	-0.0163792	-0.0433164	-0.0223871
 182	0.0340465	0.00195759	0.00249367
 183	-0.00270601	0.0122476	0.0128177
 184	0.00342952	-0.00723985	0.00406607
 185	0.00168106	0.00812636	-0.00703886
 186	0.00279291	-0.0122956	-0.00391194
 187	0.00417247	0.000329257	0.0151695
 188	-0.0155817	0.00136535	0.00503807
 189	0.0232894	0.0567508	0.0111424
 190	0.0141541	-0.00426627	0.006378
 191	0.00197122	0.000702358	-0.0023559
 192	-0.0140658	0.00784946	0.0140946
 193	0.00320881	-0.00709598	0.0054004
 194	0.00271033	0.00164328	0.00533344
 195	0.000920029	0.00302435	0.0448686
 196	0.00573214	-0.00567062	0.0522448
 197	-0.014	0.00461839	0.000944891

Bonds

   1	5	1	3
   2	5	2	3
   3	4	3	5
   4	2	4	5
   5	1	4	6
   6	1	4	7
   7	3	5	8
   8	7	9	11
   9	1	9	12
  10	1	9	13
  11	6	10	11
  12	8	11	14
  13	8	11	15
  14	9	1	9
  15	7	16	18
  16	1	16	19
  17	1	16	20
  18	6	17	18
  19	8	18	21
  20	8	18	22
  21	9	10	16
  22	7	23	25
  23	1	23	26
  24	1	23	27
  25	6	24	25
  26	8	25	28
  27	8	25	29
  28	9	17	23
  29	7	30	32
  30	1	30	33
  31	1	30	34
  32	6	31	32
  33	8	32	35
  34	8	32	36
  35	9	24	30
  36	7	37	39
  37	1	37	40
  38	1	37	41
  39	6	38	39
  40	8	39	42
  41	8	39	43
  42	9	31	37
  43	7	44	46
  44	1	44	47
  45	1	44	48
  46	6	45	46
  47	8	46	49
  48	8	46	50
  49	9	38	44
  50	7	51	53
  51	1	51	54
  52	1	51	55
  53	6	52	53
  54	8	53	56
  55	8	53	57
  56	9	45	51
  57	7	58	60
  58	1	58	61
  59	1	58	62
  60	6	59	60
  61	8	60	63
  62	8	60	64
  63	9	52	58
  64	7	65	67
  65	1	65	68
  66	1	65	69
  67	6	66	67
  68	8	67	70
  69	8	67	71
  70	9	59	65
  71	7	72	74
  72	1	72	75
  73	1	72	76
  74	6	73	74
  75	8	74	77
  76	8	74	78
  77	9	66	72
  78	7	79	81
  79	1	79	82
  80	1	79	83
  81	6	80	81
  82	8	81	84
  83	8	81	85
  84	9	73	79
  85	7	86	88
  86	1	86	89
  87	1	86	90
  88	6	87	88
  89	8	88	91
  90	8	88	92
  91	9	80	86
  92	7	93	95
  93	1	93	96
  94	1	93	97
  95	6	94	95
  96	8	95	98
  97	8	95	99
  98	9	87	93
  99	7	100	102
 100	1	100	103
 101	1	100	104
 102	6	101	102
 103	8	102	105
 104	8	102	106
 105	9	94	100
 106	7	107	109
 107	1	107	110
 108	1	107	111
 109	6	108	109
 110	8	109	112
 111	8	109	113
 112	9	101	107
 113	7	114	116
 114	1	114	117
 115	1	114	118
 116	6	115	116
 117	8	116	119
 118	8	116	120
 119	9	108	114
 120	7	121	123
 121	1	121	124
 122	1	121	125
 123	6	122	123
 124	8	123	126
 125	8	123	127
 126	9	115	121
 127	7	128	130
 128	1	128	131
 129	1	128	132
 130	6	129	130
 131	8	130	133
 132	8	130	134
 133	9	122	128
 134	7	135	137
 135	1	135	138
 136	1	135	139
 137	6	136	137
 138	8	137	140
 139	8	137	141
 140	9	129	135
 141	7	142	144
 142	1	142	145
 143	1	142	146
 144	6	143	144
 145	8	144	147
 146	8	144	148
 147	9	136	142
 148	7	149	151
 149	1	149	152
 150	1	149	153
 151	6	150	151
 152	8	151	154
 153	8	151	155
 154	9	143	149
 155	7	156	158
 156	1	156	159
 157	1	156	160
 158	6	157	158
 159	8	158	161
 160	8	158	162
 161	9	150	156
 162	7	163	165
 163	1	163	166
 164	1	163	167
 165	6	164	165
 166	8	165	168
 167	8	165	169
 168	9	157	163
 169	7	170	172
 170	1	170	173
 171	1	170	174
 172	6	171	172
 173	8	172	175
 174	8	172	176
 175	9	164	170
 176	7	177	179
 177	1	177	180
 178	1	177	181
 179	6	178	179
 180	8	179	182
 181	8	179	183
 182	9	171	177
 183	7	184	186
 184	1	184	187
 185	1	184	188
 186	6	185	186
 187	8	186	189
 188	8	186	190
 189	9	178	184
 190	12	191	193
 191	1	191	195
 192	1	191	196
 193	10	192	193
 194	11	192	194
 195	1	193	197
 196	11	185	192

Angles

   1	7	1	3	2
   2	6	1	3	5
   3	6	2	3	5
   4	2	5	4	6
   5	2	5	4	7
   6	1	6	4	7
   7	5	3	5	4
   8	4	3	5	8
   9	3	4	5	8
  10	10	11	9	12
  11	10	11	9	13
  12	1	12	9	13
  13	9	9	11	10
  14	8	9	11	14
  15	8	9	11	15
  16	12	10	11	14
  17	12	10	11	15
  18	11	14	11	15
  19	13	3	1	9
  20	14	1	9	11
  21	15	1	9	12
  22	15	1	9	13
  23	10	18	16	19
  24	10	18	16	20
  25	1	19	16	20
  26	9	16	18	17
  27	8	16	18	21
  28	8	16	18	22
  29	12	17	18	21
  30	12	17	18	22
  31	11	21	18	22
  32	16	11	10	16
  33	14	10	16	18
  34	15	10	16	19
  35	15	10	16	20
  36	10	25	23	26
  37	10	25	23	27
  38	1	26	23	27
  39	9	23	25	24
  40	8	23	25	28
  41	8	23	25	29
  42	12	24	25	28
  43	12	24	25	29
  44	11	28	25	29
  45	16	18	17	23
  46	14	17	23	25
  47	15	17	23	26
  48	15	17	23	27
  49	10	32	30	33
  50	10	32	30	34
  51	1	33	30	34
  52	9	30	32	31
  53	8	30	32	35
  54	8	30	32	36
  55	12	31	32	35
  56	12	31	32	36
  57	11	35	32	36
  58	16	25	24	30
  59	14	24	30	32
  60	15	24	30	33
  61	15	24	30	34
  62	10	39	37	40
  63	10	39	37	41
  64	1	40	37	41
  65	9	37	39	38
  66	8	37	39	42
  67	8	37	39	43
  68	12	38	39	42
  69	12	38	39	43
  70	11	42	39	43
  71	16	32	31	37
  72	14	31	37	39
  73	15	31	37	40
  74	15	31	37	41
  75	10	46	44	47
  76	10	46	44	48
  77	1	47	44	48
  78	9	44	46	45
  79	8	44	46	49
  80	8	44	46	50
  81	12	45	46	49
  82	12	45	46	50
  83	11	49	46	50
  84	16	39	38	44
  85	14	38	44	46
  86	15	38	44	47
  87	15	38	44	48
  88	10	53	51	54
  89	10	53	51	55
  90	1	54	51	55
  91	9	51	53	52
  92	8	51	53	56
  93	8	51	53	57
  94	12	52	53	56
  95	12	52	53	57
  96	11	56	53	57
  97	16	46	45	51
  98	14	45	51	53
  99	15	45	51	54
 100	15	45	51	55
 101	10	60	58	61
 102	10	60	58	62
 103	1	61	58	62
 104	9	58	60	59
 105	8	58	60	63
 106	8	58	60	64
 107	12	59	60	63
 108	12	59	60	64
 109	11	63	60	64
 110	16	53	52	58
 111	14	52	58	60
 112	15	52	58	61
 113	15	52	58	62
 114	10	67	65	68
 115	10	67	65	69
 116	1	68	65	69
 117	9	65	67	66
 118	8	65	67	70
 119	8	65	67	71
 120	12	66	67	70
 121	12	66	67	71
 122	11	70	67	71
 123	16	60	59	65
 124	14	59	65	67
 125	15	59	65	68
 126	15	59	65	69
 127	10	74	72	75
 128	10	74	72	76
 129	1	75	72	76
 130	9	72	74	73
 131	8	72	74	77
 132	8	72	74	78
 133	12	73	74	77
 134	12	73	74	78
 135	11	77	74	78
 136	16	67	66	72
 137	14	66	72	74
 138	15	66	72	75
 139	15	66	72	76
 140	10	81	79	82
 141	10	81	79	83
 142	1	82	79	83
 143	9	79	81	80
 144	8	79	81	84
 145	8	79	81	85
 146	12	80	81	84
 147	12	80	81	85
 148	11	84	81	85
 149	16	74	73	79
 150	14	73	79	81
 151	15	73	79	82
 152	15	73	79	83
 153	10	88	86	89
 154	10	88	86	90
 155	1	89	86	90
 156	9	86	88	87
 157	8	86	88	91
 158	8	86	88	92
 159	12	87	88	91
 160	12	87	88	92
 161	11	91	88	92
 162	16	81	80	86
 163	14	80	86	88
 164	15	80	86	89
 165	15	80	86	90
 166	10	95	93	96
 167	10	95	93	97
 168	1	96	93	97
 169	9	93	95	94
 170	8	93	95	98
 171	8	93	95	99
 172	12	94	95	98
 173	12	94	95	99
 174	11	98	95	99
 175	16	88	87	93
 176	14	87	93	95
 177	15	87	93	96
 178	15	87	93	97
 179	10	102	100	103
 180	10	102	100	104
 181	1	103	100	104
 182	9	100	102	101
 183	8	100	102	105
 184	8	100	102	106
 185	12	101	102	105
 186	12	101	102	106
 187	11	105	102	106
 188	16	95	94	100
 189	14	94	100	102
 190	15	94	100	103
 191	15	94	100	104
 192	10	109	107	110
 193	10	109	107	111
 194	1	110	107	111
 195	9	107	109	108
 196	8	107	109	112
 197	8	107	109	113
 198	12	108	109	112
 199	12	108	109	113
 200	11	112	109	113
 201	16	102	101	107
 202	14	101	107	109
 203	15	101	107	110
 204	15	101	107	111
 205	10	116	114	117
 206	10	116	114	118
 207	1	117	114	118
 208	9	114	116	115
 209	8	114	116	119
 210	8	114	116	120
 211	12	115	116	119
 212	12	115	116	120
 213	11	119	116	120
 214	16	109	108	114
 215	14	108	114	116
 216	15	108	114	117
 217	15	108	114	118
 218	10	123	121	124
 219	10	123	121	125
 220	1	124	121	125
 221	9	121	123	122
 222	8	121	123	126
 223	8	121	123	127
 224	12	122	123	126
 225	12	122	123	127
 226	11	126	123	127
 227	16	116	115	121
 228	14	115	121	123
 229	15	115	121	124
 230	15	115	121	125
 231	10	130	128	131
 232	10	130	128	132
 233	1	131	128	132
 234	9	128	130	129
 235	8	128	130	133
 236	8	128	130	134
 237	12	129	130	133
 238	12	129	130	134
 239	11	133	130	134
 240	16	123	122	128
 241	14	122	128	130
 242	15	122	128	131
 243	15	122	128	132
 244	10	137	135	138
 245	10	137	135	139
 246	1	138	135	139
 247	9	135	137	136
 248	8	135	137	140
 249	8	135	137	141
 250	12	136	137	140
 251	12	136	137	141
 252	11	140	137	141
 253	16	130	129	135
 254	14	129	135	137
 255	15	129	135	138
 256	15	129	135	139
 257	10	144	142	145
 258	10	144	142	146
 259	1	145	142	146
 260	9	142	144	143
 261	8	142	144	147
 262	8	142	144	148
 263	12	143	144	147
 264	12	143	144	148
 265	11	147	144	148
 266	16	137	136	142
 267	14	136	142	144
 268	15	136	142	145
 269	15	136	142	146
 270	10	151	149	152
 271	10	151	149	153
 272	1	152	149	153
 273	9	149	151	150
 274	8	149	151	154
 275	8	149	151	155
 276	12	150	151	154
 277	12	150	151	155
 278	11	154	151	155
 279	16	144	143	149
 280	14	143	149	151
 281	15	143	149	152
 282	15	143	149	153
 283	10	158	156	159
 284	10	158	156	160
 285	1	159	156	160
 286	9	156	158	157
 287	8	156	158	161
 288	8	156	158	162
 289	12	157	158	161
 290	12	157	158	162
 291	11	161	158	162
 292	16	151	150	156
 293	14	150	156	158
 294	15	150	156	159
 295	15	150	156	160
 296	10	165	163	166
 297	10	165	163	167
 298	1	166	163	167
 299	9	163	165	164
 300	8	163	165	168
 301	8	163	165	169
 302	12	164	165	168
 303	12	164	165	169
 304	11	168	165	169
 305	16	158	157	163
 306	14	157	163	165
 307	15	157	163	166
 308	15	157	163	167
 309	10	172	170	173
 310	10	172	170	174
 311	1	173	170	174
 312	9	170	172	171
 313	8	170	172	175
 314	8	170	172	176
 315	12	171	172	175
 316	12	171	172	176
 317	11	175	172	176
 318	16	165	164	170
 319	14	164	170	172
 320	15	164	170	173
 321	15	164	170	174
 322	10	179	177	180
 323	10	179	177	181
 324	1	180	177	181
 325	9	177	179	178
 326	8	177	179	182
 327	8	177	179	183
 328	12	178	179	182
 329	12	178	179	183
 330	11	182	179	183
 331	16	172	171	177
 332	14	171	177	179
 333	15	171	177	180
 334	15	171	177	181
 335	10	186	184	187
 336	10	186	184	188
 337	1	187	184	188
 338	9	184	186	185
 339	8	184	186	189
 340	8	184	186	190
 341	12	185	186	189
 342	12	185	186	190
 343	11	189	186	190
 344	16	179	178	184
 345	14	178	184	186
 346	15	178	184	187
 347	15	178	184	188
 348	19	193	191	195
 349	19	193	191	196
 350	1	195	191	196
 351	17	193	192	194
 352	18	191	193	192
 353	19	191	193	197
 354	20	192	193	197
 355	21	186	185	192
 356	17	185	192	193
 357	22	185	192	194

Dihedrals

   1	2	1	3	5	4
   2	2	1	3	5	8
   3	2	2	3	5	4
   4	2	2	3	5	8
   5	1	6	4	5	3
   6	1	6	4	5	8
   7	1	7	4	5	3
   8	1	7	4	5	8
   9	3	12	9	11	10
  10	3	12	9	11	14
  11	3	12	9	11	15
  12	3	13	9	11	10
  13	3	13	9	11	14
  14	3	13	9	11	15
  15	3	1	9	11	10
  16	3	1	9	11	14
  17	3	1	9	11	15
  18	3	19	16	18	17
  19	3	19	16	18	21
  20	3	19	16	18	22
  21	3	20	16	18	17
  22	3	20	16	18	21
  23	3	20	16	18	22
  24	3	10	16	18	17
  25	3	10	16	18	21
  26	3	10	16	18	22
  27	3	26	23	25	24
  28	3	26	23	25	28
  29	3	26	23	25	29
  30	3	27	23	25	24
  31	3	27	23	25	28
  32	3	27	23	25	29
  33	3	17	23	25	24
  34	3	17	23	25	28
  35	3	17	23	25	29
  36	3	33	30	32	31
  37	3	33	30	32	35
  38	3	33	30	32	36
  39	3	34	30	32	31
  40	3	34	30	32	35
  41	3	34	30	32	36
  42	3	24	30	32	31
  43	3	24	30	32	35
  44	3	24	30	32	36
  45	3	40	37	39	38
  46	3	40	37	39	42
  47	3	40	37	39	43
  48	3	41	37	39	38
  49	3	41	37	39	42
  50	3	41	37	39	43
  51	3	31	37	39	38
  52	3	31	37	39	42
  53	3	31	37	39	43
  54	3	47	44	46	45
  55	3	47	44	46	49
  56	3	47	44	46	50
  57	3	48	44	46	45
  58	3	48	44	46	49
  59	3	48	44	46	50
  60	3	38	44	46	45
  61	3	38	44	46	49
  62	3	38	44	46	50
  63	3	54	51	53	52
  64	3	54	51	53	56
  65	3	54	51	53	57
  66	3	55	51	53	52
  67	3	55	51	53	56
  68	3	55	51	53	57
  69	3	45	51	53	52
  70	3	45	51	53	56
  71	3	45	51	53	57
  72	3	61	58	60	59
  73	3	61	58	60	63
  74	3	61	58	60	64
  75	3	62	58	60	59
  76	3	62	58	60	63
  77	3	62	58	60	64
  78	3	52	58	60	59
  79	3	52	58	60	63
  80	3	52	58	60	64
  81	3	68	65	67	66
  82	3	68	65	67	70
  83	3	68	65	67	71
  84	3	69	65	67	66
  85	3	69	65	67	70
  86	3	69	65	67	71
  87	3	59	65	67	66
  88	3	59	65	67	70
  89	3	59	65	67	71
  90	3	75	72	74	73
  91	3	75	72	74	77
  92	3	75	72	74	78
  93	3	76	72	74	73
  94	3	76	72	74	77
  95	3	76	72	74	78
  96	3	66	72	74	73
  97	3	66	72	74	77
  98	3	66	72	74	78
  99	3	82	79	81	80
 100	3	82	79	81	84
 101	3	82	79	81	85
 102	3	83	79	81	80
 103	3	83	79	81	84
 104	3	83	79	81	85
 105	3	73	79	81	80
 106	3	73	79	81	84
 107	3	73	79	81	85
 108	3	89	86	88	87
 109	3	89	86	88	91
 110	3	89	86	88	92
 111	3	90	86	88	87
 112	3	90	86	88	91
 113	3	90	86	88	92
 114	3	80	86	88	87
 115	3	80	86	88	91
 116	3	80	86	88	92
 117	3	96	93	95	94
 118	3	96	93	95	98
 119	3	96	93	95	99
 120	3	97	93	95	94
 121	3	97	93	95	98
 122	3	97	93	95	99
 123	3	87	93	95	94
 124	3	87	93	95	98
 125	3	87	93	95	99
 126	3	103	100	102	101
 127	3	103	100	102	105
 128	3	103	100	102	106
 129	3	104	100	102	101
 130	3	104	100	102	105
 131	3	104	100	102	106
 132	3	94	100	102	101
 133	3	94	100	102	105
 134	3	94	100	102	106
 135	3	110	107	109	108
 136	3	110	107	109	112
 137	3	110	107	109	113
 138	3	111	107	109	108
 139	3	111	107	109	112
 140	3	111	107	109	113