pySIMM System Object

337 atoms
336 bonds
617 angles
430 dihedrals
1 impropers

8 atom types
12 bond types
22 angle types
5 dihedral types
1 improper types

-89.134896 89.134896 xlo xhi
-89.134896 89.134896 ylo yhi
-89.134896 89.134896 zlo zhi

Masses

   1	16.0	# o
   2	12.01	# c
   3	12.01	# c2
   4	12.01	# ce
   5	1.008	# ha
   6	12.01	# c3
   7	1.008	# h1
   8	12.01	# c1

Pair Coeffs

   1	0.21	2.959921901149463	# o
   2	0.086	3.3996695084235347	# c
   3	0.086	3.3996695084235347	# c2
   4	0.086	3.3996695084235347	# ce
   5	0.015	2.59964245953351	# ha
   6	0.1094	3.3996695084235347	# c3
   7	0.0157	2.471353044121301	# h1
   8	0.21	3.3996695084235347	# c1

Bond Coeffs

   1	343.1	1.0879	# c2,ha
   2	547.3	1.3461	# c2,ce
   3	342.5	1.0883	# ce,ha
   4	354.5	1.4825	# c,ce
   5	637.7	1.2183	# c,o
   6	449.9	1.3165	# c3,o
   7	326.8	1.5095	# c2,c3
   8	330.6	1.0969	# c3,h1
   9	622.9	1.2247	# c2,o
  10	625.0	1.307	# c1,c2
  11	758.1	1.1724	# c1,o
  12	569.4	1.3343	# c2,c2

Angle Coeffs

   1	38.11	116.9	# ha,c2,ha
   2	49.51	120.45	# ce,c2,ha
   3	49.61	119.94	# c2,ce,ha
   4	46.52	116.46	# c,ce,ha
   5	65.45	120.42	# c,ce,c2
   6	68.83	123.2	# ce,c,o
   7	77.94	130.25	# o,c,o
   8	47.07	109.96	# c2,c3,h1
   9	68.15	110.35	# c2,c3,o
  10	45.94	115.68	# c3,c2,ha
  11	39.24	108.46	# h1,c3,h1
  12	52.64	116.45	# h1,c3,o
  13	65.83	113.14	# c2,o,c
  14	67.92	122.82	# c3,c2,o
  15	55.28	117.23	# ha,c2,o
  16	65.83	113.14	# c2,o,c3
  17	62.94	179.5	# c2,c1,o
  18	70.06	121.62	# c1,c2,c2
  19	49.85	120.43	# c2,c2,ha
  20	50.62	120.42	# c1,c2,ha
  21	65.83	113.14	# c3,o,c1
  22	68.89	180.0	# o,c1,o

Dihedral Coeffs

   1	1	6.65	2	180	# X,c2,ce,X
   2	1	2.175	2	180	# X,c,ce,X
   3	1	0.0	2	0	# X,c2,c3,X
   4	1	6.65	2	180	# X,c2,c2,X
   5	1	0.0	2	180	# X,c1,c2,X

Improper Coeffs

   1	10.5	-1	2	# c,X,X,o

Atoms

   1	1	1	-0.104756	-16.5239	6.3642	-0.209388
   2	1	1	-0.569213	-16.5142	4.3217	0.537615
   3	1	2	0.789146	-16.9757	5.45517	0.487014
   4	1	3	-0.154228	-18.6789	5.00025	2.33427
   5	1	4	-0.389642	-18.1514	5.79055	1.3627
   6	1	5	0.157325	-19.5289	5.34885	2.92139
   7	1	5	0.138289	-18.2684	4.01648	2.57968
   8	1	5	0.133078	-18.6052	6.7671	1.19566
   9	1	3	-8e-06	-16.8257	6.47016	-1.40771
  10	1	1	-0.400145	-18.7272	7.68091	-1.37773
  11	1	6	0.053825	-17.4701	7.77308	-1.82209
  12	1	5	0.095789	-17.4937	5.67549	-1.74066
  13	1	5	0.095196	-15.924	6.37645	-2.00079
  14	1	7	0.084202	-17.3276	7.9295	-2.89653
  15	1	7	0.07114	-16.9089	8.58192	-1.36046
  16	1	3	-8e-06	-19.6391	8.29894	-1.94183
  17	1	1	-0.400145	-19.3835	10.4699	-2.9428
  18	1	6	0.053825	-19.7167	9.8381	-1.81566
  19	1	5	0.095789	-20.5851	7.91122	-1.5641
  20	1	5	0.095196	-19.6387	8.06417	-3.00951
  21	1	7	0.084202	-19.128	10.1167	-0.932517
  22	1	7	0.07114	-20.7331	10.082	-1.49232
  23	1	3	-8e-06	-18.5761	11.4119	-2.87186
  24	1	1	-0.400145	-17.2741	11.3263	-4.8695
  25	1	6	0.053825	-18.2339	12.0152	-4.23523
  26	1	5	0.095789	-17.6506	11.0516	-2.4441
  27	1	5	0.095196	-18.9209	12.2242	-2.2301
  28	1	7	0.084202	-17.9664	13.0666	-4.05456
  29	1	7	0.07114	-19.191	12.0742	-4.77821
  30	1	3	-8e-06	-17.6156	10.4344	-5.67099
  31	1	1	-0.400145	-16.6583	8.51201	-6.63681
  32	1	6	0.053825	-16.5054	9.84613	-6.5601
  33	1	5	0.095789	-18.4083	10.7861	-6.33727
  34	1	5	0.095196	-18.0229	9.58057	-5.1285
  35	1	7	0.084202	-15.52	10.1956	-6.20451
  36	1	7	0.07114	-16.6224	10.3456	-7.53357
  37	1	3	-8e-06	-16.0672	7.74404	-5.87315
  38	1	1	-0.400145	-16.2007	5.93992	-4.36553
  39	1	6	0.053825	-16.8698	6.5527	-5.34551
  40	1	5	0.095789	-15.7617	8.27839	-4.97287
  41	1	5	0.095196	-15.1659	7.36386	-6.3621
  42	1	7	0.084202	-17.1073	5.92843	-6.22061
  43	1	7	0.07114	-17.8389	6.96679	-5.04631
  44	1	3	-8e-06	-15.3637	5.0628	-4.63019
  45	1	1	-0.400145	-14.8458	4.21799	-2.40844
  46	1	6	0.053825	-15.2284	3.8898	-3.6438
  47	1	5	0.095789	-14.3762	5.51184	-4.71012
  48	1	5	0.095196	-15.54	4.57632	-5.58945
  49	1	7	0.084202	-14.5848	3.15885	-4.14703
  50	1	7	0.07114	-16.1989	3.36863	-3.65396
  51	1	3	-8e-06	-14.1139	3.417	-1.81657
  52	1	1	-0.400145	-12.6033	3.01654	-0.121074
  53	1	6	0.053825	-13.3515	3.96891	-0.636233
  54	1	5	0.095789	-13.3147	3.06888	-2.46929
  55	1	5	0.095196	-14.6667	2.5334	-1.49134
  56	1	7	0.084202	-14.0589	4.44494	0.0695163
  57	1	7	0.07114	-12.7408	4.80366	-0.980782
  58	1	3	-8e-06	-13.0756	2.29141	0.766392
  59	1	1	-0.400145	-12.7706	1.30395	2.85033
  60	1	6	0.053825	-12.1257	1.98614	1.89901
  61	1	5	0.095789	-13.3758	1.33207	0.325634
  62	1	5	0.095196	-13.961	2.72708	1.24747
  63	1	7	0.084202	-11.7542	2.96165	2.2097
  64	1	7	0.07114	-11.2396	1.489	1.47946
  65	1	3	-8e-06	-12.402	1.55318	4.00806
  66	1	1	-0.400145	-12.2701	3.17767	5.73535
  67	1	6	0.053825	-13.007	2.77285	4.69737
  68	1	5	0.095789	-11.3135	1.60821	4.07637
  69	1	5	0.095196	-12.6774	0.705815	4.6229
  70	1	7	0.084202	-14.0295	2.47204	4.98486
  71	1	7	0.07114	-13.1509	3.54044	3.91544
  72	1	3	-8e-06	-12.2334	4.38602	6.01159
  73	1	1	-0.400145	-13.8462	6.02923	6.36776
  74	1	6	0.053825	-13.3297	4.91367	6.91997
  75	1	5	0.095789	-12.1898	5.00847	5.12241
  76	1	5	0.095196	-11.3109	4.56885	6.55222
  77	1	7	0.084202	-12.9227	5.02882	7.94289
  78	1	7	0.07114	-14.0501	4.09301	7.04569
  79	1	3	-8e-06	-13.6673	7.12664	6.89174
  80	1	1	-0.400145	-12.8043	9.22988	6.79575
  81	1	6	0.053825	-12.5427	7.9982	6.37285
  82	1	5	0.095789	-13.5726	7.06602	7.98966
  83	1	5	0.095196	-14.5482	7.75112	6.73219
  84	1	7	0.084202	-12.4948	7.86392	5.28557
  85	1	7	0.07114	-11.6171	7.55451	6.74079
  86	1	3	-8e-06	-12.1913	10.1875	6.3479
  87	1	1	-0.400145	-11.827	10.2724	4.15455
  88	1	6	0.053825	-12.6914	10.7436	5.03111
  89	1	5	0.095789	-11.1234	9.93035	6.2004
  90	1	5	0.095196	-12.181	11.0115	7.06556
  91	1	7	0.084202	-12.7199	11.8444	5.11158
  92	1	7	0.07114	-13.7403	10.4492	4.87926
  93	1	3	-8e-06	-12.0029	10.4094	2.94883
  94	1	1	-0.400145	-11.1135	10.0198	0.862663
  95	1	6	0.053825	-10.7944	10.009	2.15791
  96	1	5	0.095789	-12.211	11.4472	2.66234
  97	1	5	0.095196	-12.8444	9.79927	2.61874
  98	1	7	0.084202	-10.4659	9.04833	2.57857
  99	1	7	0.07114	-10.0104	10.7313	2.41981
 100	1	3	-8e-06	-11.1359	8.92716	0.306297
 101	1	1	-0.400145	-11.6449	7.70337	-1.57262
 102	1	6	0.053825	-11.1395	8.85675	-1.17566
 103	1	5	0.095789	-12.0091	8.3992	0.637721
 104	1	5	0.095196	-10.2631	8.32444	0.549817
 105	1	7	0.084202	-10.1021	8.99103	-1.50264
 106	1	7	0.07114	-11.6542	9.76798	-1.51063
 107	1	3	-8e-06	-12.3136	7.71946	-2.6163
 108	1	1	-0.400145	-13.5913	9.72868	-2.88967
 109	1	6	0.053825	-13.6765	8.41654	-2.5545
 110	1	5	0.095789	-12.5357	6.67397	-2.85983
 111	1	5	0.095196	-11.7549	8.11771	-3.46933
 112	1	7	0.084202	-14.0346	8.25217	-1.54241
 113	1	7	0.07114	-14.3839	7.85124	-3.1531
 114	1	3	-8e-06	-14.5611	10.4519	-2.63159
 115	1	1	-0.400145	-15.7746	10.8899	-0.710702
 116	1	6	0.053825	-14.6315	11.1944	-1.31328
 117	1	5	0.095789	-15.4819	9.88206	-2.74382
 118	1	5	0.095196	-14.6297	11.2492	-3.36814
 119	1	7	0.084202	-14.4981	12.2775	-1.52094
 120	1	7	0.07114	-13.7114	10.9208	-0.807257
 121	1	3	-8e-06	-15.7332	10.7971	0.527558
 122	1	1	-0.400145	-15.9065	9.5734	2.48488
 123	1	6	0.053825	-15.8069	9.43247	1.18002
 124	1	5	0.095789	-16.5358	11.3833	0.979218
 125	1	5	0.095196	-14.8021	11.2001	0.961989
 126	1	7	0.084202	-14.9448	8.83553	0.850051
 127	1	7	0.07114	-16.6587	8.92686	0.732848
 128	1	3	-8e-06	-16.4249	8.66314	3.10464
 129	1	1	-0.400145	-15.0948	6.77425	2.62219
 130	1	6	0.053825	-15.4448	7.60216	3.58947
 131	1	5	0.095789	-17.2443	8.16278	2.5939
 132	1	5	0.095196	-16.8676	9.09563	4.00595
 133	1	7	0.084202	-15.9512	7.10946	4.4305
 134	1	7	0.07114	-14.602	8.12438	4.0306
 135	1	3	-8e-06	-14.1826	5.95384	2.81235
 136	1	1	-0.400145	-11.8332	5.49304	2.52961
 137	1	6	0.053825	-12.8099	6.36022	2.25027
 138	1	5	0.095789	-14.0505	5.71895	3.86721
 139	1	5	0.095196	-14.4512	5.01558	2.33348
 140	1	7	0.084202	-12.595	7.37361	2.61582
 141	1	7	0.07114	-12.9918	6.50927	1.18762
 142	1	3	-8e-06	-10.6408	5.82717	2.46882
 143	1	1	-0.400145	-8.78265	5.70809	1.16027
 144	1	6	0.053825	-9.98775	5.21415	1.26577
 145	1	5	0.095789	-10.0836	5.45751	3.34369
 146	1	5	0.095196	-10.4672	6.91361	2.41668
 147	1	7	0.084202	-10.6025	5.45166	0.408669
 148	1	7	0.07114	-10.1167	4.11281	1.33298
 149	1	3	-8e-06	-7.87185	4.90884	0.958278
 150	1	1	-0.400145	-8.23743	2.79244	0.00616411
 151	1	6	0.053825	-7.90498	4.02767	-0.304081
 152	1	5	0.095789	-7.72187	4.25982	1.8339
 153	1	5	0.095196	-6.93833	5.47284	0.906772
 154	1	7	0.084202	-6.90208	4.04277	-0.761254
 155	1	7	0.07114	-8.60566	4.47847	-1.02572
 156	1	3	-8e-06	-8.86298	2.05063	-0.754599
 157	1	1	-0.400145	-9.37605	0.959119	-2.72633
 158	1	6	0.053825	-8.35113	1.57352	-2.10274
 159	1	5	0.095789	-9.86864	2.41382	-0.918257
 160	1	5	0.095196	-8.97152	1.13499	-0.190775
 161	1	7	0.084202	-7.55471	0.868353	-1.88755
 162	1	7	0.07114	-7.84632	2.37858	-2.63843
 163	1	3	-8e-06	-10.0644	1.6004	-3.52746
 164	1	1	-0.400145	-11.7888	1.7884	-5.0065
 165	1	6	0.053825	-11.3376	1.03142	-4.02735
 166	1	5	0.095789	-10.3794	2.56105	-3.10425
 167	1	5	0.095196	-9.48663	1.84591	-4.39794
 168	1	7	0.084202	-12.0222	0.970927	-3.18709
 169	1	7	0.07114	-11.096	-0.0199674	-4.28723
 170	1	3	-8e-06	-12.2143	1.17393	-5.97705
 171	1	1	-0.400145	-14.1061	1.61343	-7.37171
 172	1	6	0.053825	-12.9556	2.10957	-6.89843
 173	1	5	0.095789	-12.9188	0.360702	-5.74817
 174	1	5	0.095196	-11.4048	0.72688	-6.58778
 175	1	7	0.084202	-12.2379	2.48926	-7.62278
 176	1	7	0.07114	-13.1775	3.00624	-6.30768
 177	1	3	-8e-06	-14.2675	1.12286	-8.51096
 178	1	1	-0.400145	-12.9458	2.40364	-9.90955
 179	1	6	0.053825	-14.2104	2.00313	-9.78885
 180	1	5	0.095789	-15.2168	0.597666	-8.53857
 181	1	5	0.095196	-13.5329	0.35798	-8.60338
 182	1	7	0.084202	-14.9658	2.82929	-9.69615
 183	1	7	0.07114	-14.5607	1.42831	-10.6561
 184	1	3	-8e-06	-12.099	1.62459	-10.4116
 185	1	1	-0.400145	-9.97212	0.863315	-10.4856
 186	1	6	0.053825	-10.7247	1.74226	-9.79992
 187	1	5	0.095789	-11.9857	1.93988	-11.4496
 188	1	5	0.095196	-12.3839	0.577105	-10.4313
 189	1	7	0.084202	-10.7635	1.57962	-8.7449
 190	1	7	0.07114	-10.3922	2.78498	-9.96811
 191	1	3	-8e-06	-9.54613	-0.211051	-10.0621
 192	1	1	-0.400145	-9.24153	-1.20619	-8.02332
 193	1	6	0.053825	-8.72953	-0.243548	-8.77621
 194	1	5	0.095789	-8.87599	-0.657094	-10.8283
 195	1	5	0.095196	-10.4086	-0.910145	-9.99673
 196	1	7	0.084202	-8.74247	0.775217	-8.37444
 197	1	7	0.07114	-7.70099	-0.440256	-9.09695
 198	1	3	-8e-06	-8.69447	-1.66621	-7.00466
 199	1	1	-0.400145	-7.66023	-1.35793	-4.94937
 200	1	6	0.053825	-8.43923	-0.72499	-5.85632
 201	1	5	0.095789	-7.78361	-2.19636	-7.3014
 202	1	5	0.095196	-9.39055	-2.42834	-6.62627
 203	1	7	0.084202	-9.38345	-0.451616	-5.44061
 204	1	7	0.07114	-8.04326	0.222596	-6.26112
 205	1	3	-8e-06	-6.47778	-1.13481	-4.99504
 206	1	1	-0.400145	-4.97315	-0.972727	-3.28262
 207	1	6	0.053825	-5.53517	-1.88286	-4.04682
 208	1	5	0.095789	-6.2904	-0.0879018	-4.78286
 209	1	5	0.095196	-6.12783	-1.26255	-5.98506
 210	1	7	0.084202	-4.88559	-2.40793	-4.72199
 211	1	7	0.07114	-6.07245	-2.67215	-3.4943
 212	1	3	-8e-06	-4.03948	-1.28324	-2.57113
 213	1	1	-0.400145	-2.06255	-2.08549	-3.40423
 214	1	6	0.053825	-2.68487	-0.967954	-3.20613
 215	1	5	0.095789	-4.07548	-2.34463	-2.21842
 216	1	5	0.095196	-4.11926	-0.717918	-1.63067
 217	1	7	0.084202	-2.18684	-0.183493	-2.50423
 218	1	7	0.07114	-2.86281	-0.430988	-4.15092
 219	1	3	-8e-06	-1.39463	-2.57027	-2.52226
 220	1	1	-0.400145	0.527388	-3.98623	-2.14517
 221	1	6	0.053825	-0.457373	-3.65373	-2.98259
 222	1	5	0.095789	-2.0331	-3.03984	-1.77425
 223	1	5	0.095196	-0.768237	-1.80579	-2.04461
 224	1	7	0.084202	-0.106466	-3.14399	-3.86188
 225	1	7	0.07114	-1.12175	-4.49528	-3.29342
 226	1	3	-8e-06	0.275407	-4.62988	-1.13234
 227	1	1	-0.400145	0.972559	-5.88735	0.631682
 228	1	6	0.053825	1.37618	-4.90441	-0.158708
 229	1	5	0.095789	-0.1428	-5.60813	-1.47537
 230	1	5	0.095196	-0.507515	-4.10857	-0.528232
 231	1	7	0.084202	1.5818	-3.95282	0.33162
 232	1	7	0.07114	2.32575	-5.06865	-0.681911
 233	1	3	-8e-06	1.70582	-6.45965	1.45302
 234	1	1	-0.400145	1.36848	-6.76857	3.87156
 235	1	6	0.053825	0.935898	-7.15528	2.63746
 236	1	5	0.095789	2.48226	-5.7672	1.80685
 237	1	5	0.095196	2.26486	-7.23263	0.981059
 238	1	7	0.084202	0.927363	-8.207	2.3986
 239	1	7	0.07114	-0.105344	-6.85405	2.5344
 240	1	3	-8e-06	0.99611	-5.71675	4.42319
 241	1	1	-0.400145	2.245	-3.69298	4.58935
 242	1	6	0.053825	2.05169	-4.87777	5.17168
 243	1	5	0.095789	0.296493	-6.01402	5.20743
 244	1	5	0.095196	0.454968	-5.05729	3.76492
 245	1	7	0.084202	2.97577	-5.47044	5.19686
 246	1	7	0.07114	1.64862	-4.95221	6.19063
 247	1	3	-8e-06	3.40673	-3.28354	4.69395
 248	1	1	-0.400145	4.84066	-3.44859	6.6907
 249	1	6	0.053825	3.96996	-2.68917	6.02202
 250	1	5	0.095789	3.59378	-2.5037	3.89261
 251	1	5	0.095196	4.16505	-3.97513	4.38165
 252	1	7	0.084202	3.1016	-2.53735	6.61719
 253	1	7	0.07114	4.44034	-1.74921	5.76893
 254	1	3	-8e-06	5.28416	-3.14813	7.83343
 255	1	1	-0.400145	7.14676	-2.66716	9.01766
 256	1	6	0.053825	6.73601	-3.54546	8.13766
 257	1	5	0.095789	4.74071	-3.72063	8.61013
 258	1	5	0.095196	5.15442	-2.11111	8.02682
 259	1	7	0.084202	7.28139	-3.56975	7.23297
 260	1	7	0.07114	6.75915	-4.65472	8.38033
 261	1	3	-8e-06	8.34997	-2.40986	8.9712
 262	1	1	-0.400145	10.1801	-1.03238	9.91232
 263	1	6	0.053825	8.87789	-1.36459	10.0139
 264	1	5	0.095789	8.49822	-1.88193	8.03851
 265	1	5	0.095196	9.0116	-3.32633	9.092
 266	1	7	0.084202	8.52037	-1.7994	10.9669
 267	1	7	0.07114	8.26066	-0.484259	9.94393
 268	1	3	-8e-06	10.5896	-0.315688	10.8348
 269	1	1	-0.400145	12.5358	0.366881	11.9304
 270	1	6	0.053825	12.1065	-0.511781	11.0403
 271	1	5	0.095789	10.1077	-0.477617	11.8246
 272	1	5	0.095196	10.5354	0.720554	10.578
 273	1	7	0.084202	12.4856	-0.257124	10.0561
 274	1	7	0.07114	12.4588	-1.542	11.1756
 275	1	3	-8e-06	12.5039	0.174423	13.1171
 276	1	1	-0.400145	14.5938	-0.630427	13.7457
 277	1	6	0.053825	13.7267	0.366449	13.9425
 278	1	5	0.095789	11.9489	-0.786578	13.4457
 279	1	5	0.095196	11.8048	0.965861	13.52
 280	1	7	0.084202	13.4207	0.415943	15.0272
 281	1	7	0.07114	14.1626	1.36225	13.6913
 282	1	3	-8e-06	14.8728	-1.26098	14.687
 283	1	1	-0.400145	15.7828	-0.383608	16.6538
 284	1	6	0.053825	16.1274	-0.849557	15.4711
 285	1	5	0.095789	15.1002	-2.24764	14.4333
 286	1	5	0.095196	14.1472	-1.33553	15.5135
 287	1	7	0.084202	16.7549	-0.369971	14.7098
 288	1	7	0.07114	16.7358	-1.75013	15.667
 289	1	3	-8e-06	16.6669	-0.148478	17.466
 290	1	1	-0.400145	17.8463	-1.11308	19.1822
 291	1	6	0.053825	16.6654	-1.20808	18.5418
 292	1	5	0.095789	16.4704	0.761684	18.0457
 293	1	5	0.095196	17.6288	-0.167723	17.0198
 294	1	7	0.084202	16.4294	-2.11679	18.0469
 295	1	7	0.07114	15.7853	-0.974172	19.2461
 296	1	3	-8e-06	18.8422	-1.83478	18.8243
 297	1	1	-0.400145	20.0932	-3.77588	19.1961
 298	1	6	0.053825	19.1832	-2.9964	19.7455
 299	1	5	0.095789	19.6497	-1.13386	18.5393
 300	1	5	0.095196	18.5816	-2.51013	18.0379
 301	1	7	0.084202	18.2538	-3.497	20.1868
 302	1	7	0.07114	19.3699	-2.32354	20.523
 303	1	3	-8e-06	21.2184	-3.58903	19.4881
 304	1	1	-0.400145	22.6976	-3.22124	21.2582
 305	1	6	0.053825	21.6909	-4.00804	20.9348
 306	1	5	0.095789	21.4599	-2.50589	19.3528
 307	1	5	0.095196	21.6719	-4.25581	18.6854
 308	1	7	0.084202	21.8517	-5.14408	21.0535
 309	1	7	0.07114	20.7845	-3.901	21.5754
 310	1	3	-8e-06	22.9786	-3.23559	22.4388
 311	1	1	-0.400145	24.0004	-1.87303	24.0472
 312	1	6	0.053825	24.2638	-2.42473	22.8132
 313	1	5	0.095789	23.1606	-4.17534	22.9507
 314	1	5	0.095196	22.1661	-2.68784	22.9424
 315	1	7	0.084202	24.5587	-1.75241	21.881
 316	1	7	0.07114	25.1632	-3.07652	22.9312
 317	1	3	-8e-06	24.8073	-1.02213	24.4178
 318	1	1	-0.400145	24.5141	-0.495963	26.7106
 319	1	6	0.053825	25.3526	-1.07829	25.8019
 320	1	5	0.095789	24.2395	-0.0710588	24.427
 321	1	5	0.095196	25.7135	-1.10064	23.7979
 322	1	7	0.084202	26.3975	-0.797548	25.7612
 323	1	7	0.07114	25.4649	-2.2238	26.0727
 324	1	3	-8e-06	24.271	-1.01826	27.7841
 325	1	1	-0.400145	21.996	-1.42996	27.8354
 326	1	6	0.053825	22.9138	-0.70927	28.3857
 327	1	5	0.095789	24.9319	-0.736849	28.4927
 328	1	5	0.095196	24.5387	-2.0285	27.7292
 329	1	7	0.084202	22.7518	0.330923	28.0768
 330	1	7	0.07114	22.7254	-0.739639	29.4615
 331	1	3	-0.232441	20.3569	-3.54636	27.6525
 332	1	8	0.444336	20.8735	-1.35039	28.2426
 333	1	3	-0.096823	20.0703	-2.42809	28.2825
 334	1	1	-0.491911	20.4267	-0.299693	28.6172
 335	1	5	0.148316	19.6581	-4.42313	27.8268
 336	1	5	0.163898	21.293	-3.81715	27.1114
 337	1	5	0.064625	18.9428	-2.319	28.5831

Velocities

   1	-0.00413312	0.000124815	-0.00503092
   2	-0.00378772	-0.00126999	-0.00897565
   3	-0.00368254	-0.00163654	-0.00611015
   4	-0.00417949	0.00428577	-0.00254945
   5	-0.00745178	-0.000699928	-0.00710481
   6	-0.00834762	0.00327074	-0.00839582
   7	0.00354567	0.011265	0.00473498
   8	-0.00662816	-0.00446024	-0.0104228
   9	-0.00311002	-0.00160384	-0.00601895
  10	0.00250862	0.00249816	-0.00329985
  11	0.002245	0.00287591	-0.00558249
  12	-0.00284777	0.00290782	-0.00974706
  13	-0.00426407	-0.00962552	-0.00190935
  14	0.00267964	0.00478569	-0.00751389
  15	0.00317229	-0.00103802	-0.000432021
  16	-0.000841024	-0.00148368	-0.00275647
  17	-0.00138479	0.000189062	-0.00469028
  18	-0.00367177	-0.00136881	-0.00382027
  19	0.00307922	-0.00349104	0.00357734
  20	-0.00089653	-0.00362504	-0.0004989
  21	0.00191468	-0.000157959	-0.0064448
  22	-0.00568704	-0.00324505	-0.0053307
  23	-0.000276153	0.00140802	-0.00601422
  24	-0.00406911	-0.00308635	-0.0118095
  25	0.000487994	-0.00114862	-0.00886703
  26	0.00146293	0.00595414	-0.00154014
  27	-0.00276503	0.00204887	-0.0106913
  28	-0.00740498	-0.00165519	-0.0124731
  29	-0.00110598	-0.00298695	-0.00429866
  30	-0.00439748	-0.00384916	-0.0067435
  31	2.12452e-05	-0.00554836	-0.00120882
  32	-0.00124847	-0.00792303	-0.00244064
  33	0.0025792	-0.00575914	-0.0165243
  34	-0.00100581	-0.0033357	-0.0102159
  35	-0.00495837	-0.00418823	-0.00702707
  36	-0.00169481	-0.00994738	-0.00650101
  37	0.0012498	-0.00186075	-0.00282325
  38	-0.00125042	0.00159452	-0.00383269
  39	0.00132631	0.00137941	-0.00383787
  40	0.00213789	0.00118033	-0.00180316
  41	-0.00929993	-0.00708601	-0.00556464
  42	0.00287907	0.00330673	-0.00232607
  43	0.00850032	0.00345952	-0.000991023
  44	-0.000158024	0.000357946	0.000198267
  45	-0.00501293	-0.00965996	-0.00061917
  46	-0.00108355	-0.00128863	-0.00276405
  47	0.00601759	-0.00146708	0.000494741
  48	0.00467377	0.00432438	-0.00568818
  49	-0.00208954	0.00861973	-0.010666
  50	0.00186663	-0.00204073	-0.00346563
  51	-0.00331758	-0.00876145	-0.00382847
  52	-0.000228095	-0.000348945	0.000984687
  53	-0.00137459	-0.00271375	-0.00523796
  54	-0.00428959	-0.0155033	-0.00307743
  55	-0.00115988	-0.00607643	0.00419344
  56	0.00117195	0.0089606	-0.0149099
  57	-0.00711867	-0.00443021	-0.0170278
  58	0.000993334	-0.0027608	-0.00204906
  59	-0.00376307	-0.00311536	-0.00188818
  60	-0.000786955	-0.0043203	-0.000643216
  61	0.00683971	0.000449179	0.00179467
  62	0.00276634	-0.00615029	-0.00933806
  63	-0.00257682	-0.0115785	-0.00303648
  64	-9.15944e-05	-0.0108418	0.00557195
  65	-0.0057217	-0.000586191	-0.00162046
  66	-0.00478491	0.000987252	0.00184473
  67	-0.00331131	0.00103037	-5.08735e-05
  68	-0.0052112	-0.00782457	-0.00645083
  69	-0.00752292	0.00193385	-0.0046381
  70	0.00157988	0.000301402	0.00313818
  71	-0.00200982	0.0049198	3.03767e-05
  72	-0.00610058	-0.000648527	-0.00613414
  73	-0.00167245	0.00094616	0.000359124
  74	-0.00515788	-0.00172045	-0.00320175
  75	-0.0186431	-0.0026214	-0.0101793
  76	-0.00189766	0.0118312	-0.0116817
  77	-0.00648827	-0.00174102	0.000414123
  78	-0.0120656	-0.00718641	-0.0114656
  79	-0.000723353	0.00143838	0.00184008
  80	0.000889254	0.00191288	0.000212227
  81	-0.00189708	0.00122156	-0.000802832
  82	0.0092844	-0.00112409	0.00401507
  83	-0.00614737	-0.00653968	0.00301943
  84	-0.0169964	-0.00292171	0.00120914
  85	-0.00525391	-0.0046199	-0.0116362
  86	0.00071403	0.000621874	-0.00689534
  87	-0.00656279	0.00345657	-0.0033966
  88	-0.00566503	-0.00379974	-0.0044789
  89	-0.00151795	-0.00536342	-0.00833292
  90	0.00753793	0.00705058	-0.0109021
  91	-0.00557974	-0.00105744	-0.00701531
  92	-0.00994818	-0.00478178	-0.000215972
  93	-0.00576174	-0.000827065	-0.00298213
  94	-0.00344229	-0.00136576	-0.00287397
  95	-0.00463137	-0.000785089	-0.00349278
  96	-0.00949331	-9.974e-05	-0.000596083
  97	-0.0124506	-0.00205246	0.00325564
  98	-0.00891541	0.0038444	-0.00279824
  99	-0.0103299	-0.000168331	0.0052618
 100	0.00442882	-8.16159e-05	-0.0071382
 101	0.00190379	0.000494427	-0.00425404
 102	-0.000666388	-0.00252302	-0.00752524
 103	0.0107227	-0.00532071	0.0019163
 104	0.00612987	0.00578681	-0.00678808
 105	-0.00194219	-0.00670882	-0.00562972
 106	0.00127679	0.00410327	0.00679324
 107	0.00486814	-0.000998404	-0.00616403
 108	-0.000757138	-0.00513813	0.00176521
 109	0.00359384	-0.00401566	-0.00102317
 110	0.0106725	0.00494954	-0.0125383
 111	0.000836545	0.000318595	-0.00659771
 112	0.00117551	-0.00417941	-0.00188562
 113	-6.92212e-06	-0.00584405	-0.00960186
 114	-0.00168558	-0.00658642	-0.00373512
 115	-0.00773825	-0.00501644	-0.00415963
 116	-0.00981485	-0.00476739	-0.00394048
 117	0.00311654	-0.00289136	-0.00421286
 118	-0.000151164	-0.00600971	-2.52316e-05
 119	-0.00941532	-0.00744255	-0.0172205
 120	-0.00901868	-0.00495129	-0.00627763
 121	-0.0112243	-4.14222e-05	-0.00493704
 122	-0.00304822	0.00176319	-0.00500708
 123	-0.002352	6.92614e-05	-0.00457677
 124	-0.00988165	0.00144683	0.000269458
 125	-0.00979022	-0.00620967	-0.00598196
 126	-0.00375254	0.00684226	-0.00132305
 127	0.00480475	-0.00811042	0.00696112
 128	-0.00138242	0.00175638	-0.00925056
 129	-0.00703693	-0.00221662	0.00109541
 130	-0.00854186	-0.00150572	-0.00112908
 131	0.00142634	-0.00506599	-0.0102548
 132	-0.00194159	0.00333146	-0.00605862
 133	-0.0223091	-0.000889128	-0.0130427
 134	-0.0178603	0.00257513	0.0179131
 135	-0.00255413	0.00260365	0.00103688
 136	-0.00345937	-0.0019919	-0.00309195
 137	-0.0038714	0.00264429	0.00132996
 138	-0.00455515	-9.1631e-05	-0.00327197
 139	0.000861226	-0.00387496	0.0013403
 140	-0.00126009	0.00362056	0.000367992
 141	0.00174166	0.0134766	0.00192227
 142	-0.00365377	0.00298626	-0.00287929
 143	0.000848058	-0.00336326	-0.00244834
 144	-0.000505644	-0.00275932	0.000592576
 145	-0.00456265	0.00864636	0.0106488
 146	-0.00998577	0.00446455	-0.00267768
 147	0.00713529	-0.0113315	-0.00851382
 148	0.00211709	-0.0066027	0.0113622
 149	0.00372334	-0.00526022	-0.00029916
 150	-0.00466162	-0.00192996	0.00540395
 151	0.00180097	-0.000902896	-0.00136806
 152	0.00312916	-0.00477595	-0.0132507
 153	0.00525424	0.00360612	0.012462
 154	-0.00189025	0.000128511	-0.00243017
 155	-0.00439185	0.00430493	-0.00722809
 156	-0.00634952	0.00316987	0.00205243
 157	-0.00581327	0.000427285	-0.000105685
 158	-0.00371382	0.0024018	0.00525531
 159	0.00521459	0.0116927	-0.00862015
 160	-0.0178802	-0.00522455	-0.00391697
 161	-0.0143466	-0.003218	0.012444
 162	-0.00592199	-0.00636894	0.00419397
 163	-3.65554e-06	0.00150453	0.000176221
 164	-0.00169055	-0.00311939	-0.000612584
 165	0.00232463	0.0010705	0.00272912
 166	0.0067857	0.00151806	0.000234501
 167	-0.000155811	-0.00807359	0.00406455
 168	0.000144869	0.00402771	-0.00349687
 169	0.00317983	0.00572759	-0.00486292
 170	-0.00400481	-0.00598785	-0.00317308
 171	0.00352537	-0.00166267	-0.00315759
 172	0.0074599	0.00236033	-0.00159807
 173	0.00478268	-0.000176974	0.00546981
 174	-0.00244669	-0.0128133	0.0211208
 175	0.0100762	-0.00497294	-0.00484681
 176	0.0111316	0.00565324	-0.0137212
 177	0.00297982	0.00571748	-0.00341077
 178	0.00594427	-0.003297	0.000132877
 179	0.00413918	0.00155154	0.000650566
 180	0.0145947	-0.00742573	-0.00713844
 181	-0.000243459	-0.00995977	0.00880978
 182	0.00378677	-0.0114006	-0.0049367
 183	0.00734312	-0.00124322	-0.00560891
 184	0.00310701	-0.000638129	-0.00298277
 185	0.00145025	0.00251244	-0.000643987
 186	0.00888338	0.00169577	-0.00257375
 187	0.0235993	-0.00254367	-0.00234508
 188	-0.00817407	-0.0136655	0.00129456
 189	0.00085518	0.021035	-0.0195799
 190	0.00298071	0.00605528	-0.00751508
 191	-0.000516859	-0.00098053	0.00788639
 192	0.000567807	0.00292549	0.00638857
 193	-0.00904048	0.00608478	0.00409267
 194	-0.00823159	-0.00256734	0.00330958
 195	-0.0042224	0.00450967	0.00425183
 196	0.00694919	0.00429695	0.0038288
 197	-0.00685755	0.0124744	0.00554869
 198	0.00224203	-0.00117339	-0.000208409
 199	0.00276992	-0.00800175	0.00239581
 200	0.000675567	-0.00624131	0.000786857
 201	-0.00264898	0.000624118	-0.00228355
 202	0.00481271	0.00925356	-0.00681021
 203	0.00238801	-0.00688096	-0.00382223
 204	0.0208593	-0.00235933	-0.000226341
 205	0.00452497	-0.00901507	0.000427767
 206	0.00450352	-0.00126951	0.00847646
 207	-0.00164866	-0.00290358	0.0111393
 208	-0.000156114	0.0036645	-0.0133958
 209	-0.00772942	-0.0080788	0.00922531
 210	-0.0175916	0.0138202	0.00521553
 211	0.000866275	0.00358019	0.00910439
 212	0.00432718	-0.000658787	0.00561479
 213	-1.00305e-05	0.00283497	0.00491871
 214	0.00104379	0.00314353	0.00545911
 215	0.0169366	-0.0134827	-0.0151686
 216	0.00740954	-0.0044002	0.0209662
 217	-0.0192509	0.030741	0.00236442
 218	-0.009333	0.012581	0.0100349
 219	-0.00231786	0.00185041	0.006979
 220	-0.00990715	0.000873501	0.000885421
 221	-0.00109177	-0.00123501	0.00254199
 222	-0.00175902	0.00835901	0.00607229
 223	-0.00706424	0.0020046	0.0275653
 224	0.0155486	0.00100182	-0.00739524
 225	0.0141423	0.0197306	-0.00990164
 226	0.00135499	-0.00158002	0.00897169
 227	0.0025529	-0.00332242	0.00807304
 228	0.00907915	0.00164761	0.00288934
 229	-0.0117949	0.000917119	-0.00975771
 230	0.000684561	0.00494481	0.00516713
 231	0.000569431	-0.0124875	0.012329
 232	0.00295016	0.000740106	0.0014372
 233	0.00583041	0.000870347	0.00284553
 234	0.00195106	-0.00122122	0.00216593
 235	-0.00174014	0.00315224	0.00510135
 236	-7.74379e-05	-0.0145846	0.0113599
 237	0.00376027	-0.0110244	-0.00660732
 238	-0.0122091	0.0200752	-0.00775083
 239	0.0119373	0.0280231	0.00135761
 240	-0.000260941	0.00333448	0.00319737
 241	0.00230409	-0.000982714	-0.000552936
 242	0.00303482	0.00821768	0.0131008
 243	0.00155637	0.0204932	-0.00796235
 244	0.0166868	-0.000139657	0.0048009
 245	-0.00676902	0.0284236	0.0197645
 246	-0.0207127	-0.00497759	-0.00764453
 247	0.00154007	0.00326642	0.0124327
 248	-0.00272323	-0.0054351	-0.000748913
 249	0.00415805	0.00368922	-0.00075378
 250	-0.00382625	-0.019023	0.0248643
 251	0.00835567	-0.0158982	0.0276589
 252	0.00721665	0.0130628	-0.00276037
 253	0.00453613	0.00557358	0.0186929
 254	8.70304e-05	0.00481908	0.00772066
 255	-0.00244498	0.00557537	-0.00389701
 256	0.000283247	0.00149236	0.00841935
 257	0.0295587	0.00550977	0.0149415
 258	-0.00573717	0.0299858	-0.004788
 259	-0.027479	0.0131639	0.0164332
 260	-0.0311033	-0.0136126	0.0208225
 261	-0.00852505	0.00677075	0.0128656
 262	-0.00451921	0.0125342	0.00589311
 263	0.00694295	0.00420286	0.000905765
 264	0.0128495	-0.0157152	-0.0177542
 265	-0.00768418	0.00643261	-0.00170638
 266	0.0314502	0.0182701	0.013881
 267	0.0172552	-0.00918522	-0.00399981
 268	0.00902161	0.00526472	0.00427719
 269	-0.00309004	-0.00209447	0.00728947
 270	0.00211034	-0.00273781	0.0058327
 271	0.0110418	-0.0336852	0.0275381
 272	-0.015162	-0.00875597	0.0197959
 273	0.018909	0.00290746	0.0264942
 274	-0.0167913	0.0162175	0.0180417
 275	-0.00290971	0.000973699	0.00508004
 276	0.00131527	0.00878462	0.00595639
 277	-0.000634994	-0.00963869	0.00746837
 278	0.00699711	-0.0275674	0.0285556
 279	0.0147955	0.00262005	0.00450916
 280	-0.0170134	0.00426583	-0.00717961
 281	0.00293636	0.00430122	0.0214774
 282	-0.00409201	-0.00130575	0.00211101
 283	0.00248136	-0.00340957	0.00137392
 284	0.000276598	-0.00247065	0.00425425
 285	-0.00929176	0.00346935	0.00536777
 286	0.0233302	0.0036013	-0.0102638
 287	0.0071261	0.0167198	0.0280573
 288	0.00377748	-0.0238714	0.0129761
 289	-0.000786385	0.000949489	0.0181138
 290	0.000963402	0.0110372	0.007865
 291	0.000517689	0.00617537	-0.000665135
 292	0.0564633	0.021977	-0.00409086
 293	-0.0167094	0.0103138	0.0246333
 294	-0.0213683	0.00390057	0.0375
 295	-0.000385138	0.0175234	-0.0510195
 296	-0.0094251	-0.00331321	0.0172939
 297	0.00766319	0.00294202	0.00216337
 298	-0.00573662	-0.00466549	0.0138613
 299	0.0259945	-0.000385097	0.021516
 300	-0.00291405	0.00892244	0.0029172
 301	0.00293584	-0.0345264	-0.00411818
 302	-0.034061	-0.000369486	-0.000763249
 303	-0.00502042	0.000873419	-0.000169166
 304	0.00235166	0.000425283	-7.60994e-05
 305	-0.00271365	0.00832994	0.0185726
 306	-0.0342034	-0.0146495	0.0361959
 307	0.0175782	0.040032	0.023614
 308	0.0283444	0.000179349	0.0115997
 309	-0.00821768	0.0112925	0.0227041
 310	-0.00340953	0.00446968	0.00562466
 311	0.00199025	0.00915936	-0.00505731
 312	-0.00954527	0.000720088	0.00472057
 313	-0.0175432	0.0467522	-0.00978812
 314	0.0185555	0.0293191	0.0119486
 315	0.0126322	0.015999	0.0132317
 316	0.0168272	0.0230688	-0.000333135
 317	-0.00220804	0.0100331	-0.00205252
 318	0.00071137	0.0121055	0.00331871
 319	0.00735215	0.0169973	0.00556279
 320	0.0363765	0.0115105	0.000359364
 321	0.0106098	0.00208661	-0.00783629
 322	-0.000718462	0.0291677	-0.00655321
 323	0.019166	0.00705432	0.0216122
 324	0.0046942	0.0116983	-0.000525146
 325	0.00702861	0.00787085	0.0112408
 326	0.00655135	-0.00276835	-0.00232155
 327	0.0270571	0.00154881	0.00267288
 328	0.012796	0.00950888	0.0514285
 329	0.0343978	-0.0236728	0.0289401
 330	-0.00302872	0.00379496	0.0116297
 331	-0.00289327	-0.00364363	-0.000139586
 332	-0.019546	0.00409392	0.0158379
 333	0.00175852	0.0168949	0.0187725
 334	0.00479714	0.00585626	0.00351095
 335	0.00723963	0.0180275	0.0243566
 336	-0.015145	0.0124792	-0.00184032
 337	0.0118052	0.0144895	0.015535

Bonds

   1	5	1	3
   2	5	2	3
   3	4	3	5
   4	2	4	5
   5	1	4	6
   6	1	4	7
   7	3	5	8
   8	7	9	11
   9	1	9	12
  10	1	9	13
  11	6	10	11
  12	8	11	14
  13	8	11	15
  14	9	1	9
  15	7	16	18
  16	1	16	19
  17	1	16	20
  18	6	17	18
  19	8	18	21
  20	8	18	22
  21	9	10	16
  22	7	23	25
  23	1	23	26
  24	1	23	27
  25	6	24	25
  26	8	25	28
  27	8	25	29
  28	9	17	23
  29	7	30	32
  30	1	30	33
  31	1	30	34
  32	6	31	32