pySIMM System Object

127 atoms
126 bonds
227 angles
160 dihedrals
1 impropers

8 atom types
12 bond types
22 angle types
5 dihedral types
1 improper types

-64.277383 64.277383 xlo xhi
-64.277383 64.277383 ylo yhi
-64.277383 64.277383 zlo zhi

Masses

   1	16.0	# o
   2	12.01	# c
   3	12.01	# c2
   4	12.01	# ce
   5	1.008	# ha
   6	12.01	# c3
   7	1.008	# h1
   8	12.01	# c1

Pair Coeffs

   1	0.21	2.959921901149463	# o
   2	0.086	3.3996695084235347	# c
   3	0.086	3.3996695084235347	# c2
   4	0.086	3.3996695084235347	# ce
   5	0.015	2.59964245953351	# ha
   6	0.1094	3.3996695084235347	# c3
   7	0.0157	2.471353044121301	# h1
   8	0.21	3.3996695084235347	# c1

Bond Coeffs

   1	343.1	1.0879	# c2,ha
   2	547.3	1.3461	# c2,ce
   3	342.5	1.0883	# ce,ha
   4	354.5	1.4825	# c,ce
   5	637.7	1.2183	# c,o
   6	449.9	1.3165	# c3,o
   7	326.8	1.5095	# c2,c3
   8	330.6	1.0969	# c3,h1
   9	622.9	1.2247	# c2,o
  10	625.0	1.307	# c1,c2
  11	758.1	1.1724	# c1,o
  12	569.4	1.3343	# c2,c2

Angle Coeffs

   1	38.11	116.9	# ha,c2,ha
   2	49.51	120.45	# ce,c2,ha
   3	49.61	119.94	# c2,ce,ha
   4	46.52	116.46	# c,ce,ha
   5	65.45	120.42	# c,ce,c2
   6	68.83	123.2	# ce,c,o
   7	77.94	130.25	# o,c,o
   8	47.07	109.96	# c2,c3,h1
   9	68.15	110.35	# c2,c3,o
  10	45.94	115.68	# c3,c2,ha
  11	39.24	108.46	# h1,c3,h1
  12	52.64	116.45	# h1,c3,o
  13	65.83	113.14	# c2,o,c
  14	67.92	122.82	# c3,c2,o
  15	55.28	117.23	# ha,c2,o
  16	65.83	113.14	# c2,o,c3
  17	62.94	179.5	# c2,c1,o
  18	70.06	121.62	# c1,c2,c2
  19	49.85	120.43	# c2,c2,ha
  20	50.62	120.42	# c1,c2,ha
  21	65.83	113.14	# c3,o,c1
  22	68.89	180.0	# o,c1,o

Dihedral Coeffs

   1	1	6.65	2	180	# X,c2,ce,X
   2	1	2.175	2	180	# X,c,ce,X
   3	1	0.0	2	0	# X,c2,c3,X
   4	1	6.65	2	180	# X,c2,c2,X
   5	1	0.0	2	180	# X,c1,c2,X

Improper Coeffs

   1	10.5	-1	2	# c,X,X,o

Atoms

   1	1	1	-0.104756	-0.088075	0.253957	-4.06884
   2	1	1	-0.569213	-1.83599	0.871182	-2.86466
   3	1	2	0.789146	-1.29087	0.549457	-3.92794
   4	1	3	-0.154228	-1.80992	-0.0923158	-6.3117
   5	1	4	-0.389642	-2.20335	0.40724	-5.14785
   6	1	5	0.157325	-2.53949	-0.232362	-7.0784
   7	1	5	0.138289	-0.806397	-0.453363	-6.4441
   8	1	5	0.133078	-3.24082	0.729464	-5.04298
   9	1	3	-8e-06	0.266074	-0.828408	-3.557
  10	1	1	-0.400145	1.54935	-2.70049	-3.85862
  11	1	6	0.053825	1.58483	-1.40906	-4.15006
  12	1	5	0.095789	-0.490925	-1.59416	-3.68595
  13	1	5	0.095196	0.383829	-0.658937	-2.49344
  14	1	7	0.084202	2.37561	-0.880826	-3.66354
  15	1	7	0.07114	1.64994	-1.1671	-5.23617
  16	1	3	-8e-06	2.58488	-3.36369	-3.84439
  17	1	1	-0.400145	3.41121	-5.3698	-3.20829
  18	1	6	0.053825	2.38094	-4.88423	-3.91341
  19	1	5	0.095789	3.10455	-3.14887	-2.93797
  20	1	5	0.095196	3.17968	-3.1322	-4.73761
  21	1	7	0.084202	2.32608	-5.196	-4.93137
  22	1	7	0.07114	1.37234	-5.10065	-3.52456
  23	1	3	-8e-06	3.7458	-6.50672	-3.525
  24	1	1	-0.400145	2.99718	-8.69943	-3.979
  25	1	6	0.053825	2.8182	-7.65501	-3.14539
  26	1	5	0.095789	4.74678	-6.70274	-3.14215
  27	1	5	0.095196	3.94839	-6.5683	-4.58929
  28	1	7	0.084202	1.75582	-7.32848	-3.03042
  29	1	7	0.07114	3.03843	-7.95069	-2.11942
  30	1	3	-8e-06	2.24197	-9.68317	-3.88014
  31	1	1	-0.400145	0.339526	-10.5493	-4.97855
  32	1	6	0.053825	1.5471	-10.0845	-5.16026
  33	1	5	0.095789	1.51683	-9.54394	-3.10382
  34	1	5	0.095196	2.81587	-10.5571	-3.567
  35	1	7	0.084202	2.19961	-10.8546	-5.64975
  36	1	7	0.07114	1.56066	-9.157	-5.79336
  37	1	3	-8e-06	0.172595	-11.6909	-5.43988
  38	1	1	-0.400145	-1.17091	-13.087	-4.11472
  39	1	6	0.053825	-1.18601	-12.2515	-5.16127
  40	1	5	0.095789	0.87995	-12.4049	-5.0023
  41	1	5	0.095196	0.262312	-11.703	-6.52405
  42	1	7	0.084202	-1.4794	-12.8061	-6.088
  43	1	7	0.07114	-1.83139	-11.3559	-5.0611
  44	1	3	-8e-06	-1.96814	-13.0625	-3.19962
  45	1	1	-0.400145	-2.60215	-11.9855	-1.19611
  46	1	6	0.053825	-1.94847	-11.7959	-2.35552
  47	1	5	0.095789	-1.80206	-13.8744	-2.48678
  48	1	5	0.095196	-2.98832	-13.229	-3.5799
  49	1	7	0.084202	-2.32362	-11.0279	-3.04433
  50	1	7	0.07114	-0.867618	-11.5871	-2.26783
  51	1	3	-8e-06	-2.00996	-12.0109	-0.134846
  52	1	1	-0.400145	-1.07575	-9.85088	-0.225128
  53	1	6	0.053825	-1.95519	-10.6261	0.469814
  54	1	5	0.095789	-1.03054	-12.4086	-0.225101
  55	1	5	0.095196	-2.38992	-12.7248	0.553759
  56	1	7	0.084202	-1.73695	-10.701	1.58004
  57	1	7	0.07114	-2.97621	-10.1374	0.38036
  58	1	3	-8e-06	-0.730456	-8.86638	0.36372
  59	1	1	-0.400145	0.410265	-6.84455	0.12835
  60	1	6	0.053825	0.199503	-8.01464	-0.462921
  61	1	5	0.095789	-0.189029	-9.02299	1.30809
  62	1	5	0.095196	-1.61842	-8.25102	0.529079
  63	1	7	0.084202	-0.264196	-7.94537	-1.49305
  64	1	7	0.07114	1.0865	-8.57305	-0.676246
  65	1	3	-8e-06	0.85037	-5.96723	-0.631118
  66	1	1	-0.400145	-0.591961	-4.20288	-0.52526
  67	1	6	0.053825	0.69418	-4.52377	-0.204442
  68	1	5	0.095789	0.439346	-5.94675	-1.62467
  69	1	5	0.095196	1.92283	-6.19242	-0.839878
  70	1	7	0.084202	1.45171	-3.86351	-0.647247
  71	1	7	0.07114	0.99146	-4.58099	0.827909
  72	1	3	-8e-06	-1.31127	-3.70592	0.364256
  73	1	1	-0.400145	-1.86881	-1.73015	1.61265
  74	1	6	0.053825	-1.34506	-2.15902	0.479076
  75	1	5	0.095789	-1.15965	-4.11239	1.35894
  76	1	5	0.095196	-2.34871	-4.05985	0.26137
  77	1	7	0.084202	-1.9609	-1.89144	-0.415196
  78	1	7	0.07114	-0.301668	-1.90612	0.486675
  79	1	3	-8e-06	-1.58303	-0.666553	2.11537
  80	1	1	-0.400145	-1.99937	-0.198545	4.35072
  81	1	6	0.053825	-2.58412	-0.295654	3.20502
  82	1	5	0.095789	-1.62437	0.0562646	1.36369
  83	1	5	0.095196	-0.624646	-0.570843	2.62155
  84	1	7	0.084202	-3.28529	-1.10858	3.17439
  85	1	7	0.07114	-3.06198	0.572375	2.88085
  86	1	3	-8e-06	-2.26726	0.753194	5.10513
  87	1	1	-0.400145	-1.81337	2.88379	5.92403
  88	1	6	0.053825	-1.32119	1.92523	5.08865
  89	1	5	0.095789	-2.2024	0.421244	6.13762
  90	1	5	0.095196	-3.21431	1.07686	4.91873
  91	1	7	0.084202	-1.2618	2.19816	4.02305
  92	1	7	0.07114	-0.321786	1.60301	5.29059
  93	1	3	-8e-06	-1.72814	3.98195	5.42891
  94	1	1	-0.400145	-1.57994	4.85993	3.33363
  95	1	6	0.053825	-2.47307	4.43823	4.20604
  96	1	5	0.095789	-0.669407	4.16833	5.27728
  97	1	5	0.095196	-1.97167	4.7738	6.15207
  98	1	7	0.084202	-3.30432	5.18199	4.41178
  99	1	7	0.07114	-3.10275	3.60445	3.86931
 100	1	3	-8e-06	-1.8323	5.80799	2.56651
 101	1	1	-0.400145	-2.36574	7.62264	3.85199
 102	1	6	0.053825	-1.40361	7.21849	3.04807
 103	1	5	0.095789	-2.93936	5.90446	2.38501
 104	1	5	0.095196	-1.35065	5.58261	1.59716
 105	1	7	0.084202	-1.31566	7.67424	2.12359
 106	1	7	0.07114	-0.394904	7.05538	3.41359
 107	1	3	-8e-06	-2.00996	8.43123	4.67203
 108	1	1	-0.400145	-1.47532	10.5015	5.29441
 109	1	6	0.053825	-1.8193	9.88351	4.20255
 110	1	5	0.095789	-1.03589	8.12892	5.15036
 111	1	5	0.095196	-2.83249	8.50276	5.42333
 112	1	7	0.084202	-2.84567	10.0399	3.83676
 113	1	7	0.07114	-1.22674	10.0156	3.2344
 114	1	3	-8e-06	-2.09294	11.5316	5.66131
 115	1	1	-0.400145	-4.41672	11.6828	5.7614
 116	1	6	0.053825	-3.31548	11.5418	6.55603
 117	1	5	0.095789	-2.40349	12.1	4.76012
 118	1	5	0.095196	-1.39441	12.2434	6.1172
 119	1	7	0.084202	-3.13608	12.3145	7.38723
 120	1	7	0.07114	-3.34035	10.6234	7.15
 121	1	3	-0.232441	-5.47798	9.45199	4.3423
 122	1	8	0.444336	-5.34832	11.0075	6.10726
 123	1	3	-0.096823	-5.517	9.82394	5.60571
 124	1	1	-0.491911	-6.19757	11.3917	6.87253
 125	1	5	0.148316	-5.48795	8.43868	4.07678
 126	1	5	0.163898	-5.19637	10.2442	3.61722
 127	1	5	0.064625	-5.70309	9.08778	6.33414

Velocities

   1	-0.00495551	-0.00300735	-0.0018154
   2	-0.000583212	0.00667227	0.00153075
   3	0.00114285	-0.00478177	-0.000933019
   4	0.00309344	-0.00637476	-0.00568633
   5	-0.000533691	-0.00031512	0.000739423
   6	-0.0105598	0.0101432	0.0133133
   7	-0.0165277	-0.00251368	-0.0158407
   8	0.00603929	-0.0230152	-0.000517702
   9	0.000408097	-0.00240766	-0.00224642
  10	0.000761079	-0.00166572	0.00101878
  11	-0.0046879	-0.00271413	0.0071078
  12	-0.0144836	-0.00699755	0.00422139
  13	-0.02329	4.96842e-05	-9.06924e-05
  14	-0.0083341	0.00123938	-0.00945659
  15	-0.000949532	-0.00318302	0.00425411
  16	0.00706316	0.00233275	0.00721788
  17	0.00768612	-0.00225278	-0.000275141
  18	0.000435366	-0.00118528	-0.00168397
  19	0.0176703	0.00105554	0.0129816
  20	-0.0102035	0.00419751	0.0146686
  21	0.0108936	0.0274045	-0.0115686
  22	0.00237279	-0.00271617	0.0035929
  23	0.00256536	-0.00162281	0.00155421
  24	-0.0044484	0.00323137	-0.00315232
  25	0.00269782	-0.00190952	0.000174285
  26	-0.0011849	-0.0145634	0.00306039
  27	-0.0109484	-0.00845463	0.00306447
  28	-0.000451223	0.00840884	0.000474322
  29	0.00773114	-0.00949744	0.0110575
  30	0.0045109	0.0051298	0.0019681
  31	-0.000788126	0.00106637	0.00618367
  32	-0.00130325	-0.000878788	0.00667267
  33	-0.00434068	0.00443605	-0.00454022
  34	-0.00567336	0.017823	0.0170168
  35	0.00332936	-0.0185346	-0.00164045
  36	0.0146172	-0.00579967	-0.000714936
  37	0.00389409	0.00356882	0.000128389
  38	0.00236804	0.00348661	0.000699262
  39	0.00311038	0.00312372	-0.00567348
  40	-0.0161048	0.00646963	0.00525598
  41	-0.00334445	0.0167636	0.0129802
  42	0.021742	-0.00363346	0.00526121
  43	0.001708	0.0144359	0.022483
  44	0.00287488	-0.00218401	-0.00144156
  45	2.48925e-05	-0.00143995	-0.00109909
  46	0.00183529	-0.00660919	-0.000267086
  47	0.00354946	-0.00826199	-0.0167736
  48	-0.0150235	0.004939	0.0107217
  49	0.0170319	-0.010318	0.000262682
  50	0.0144346	-0.00538388	-0.0111858
  51	0.00235726	-0.000760837	0.00102596
  52	-0.000126776	-0.00151582	-0.000257023
  53	-0.00351194	-0.00102248	-0.000189193
  54	0.0133277	0.00952379	-0.0246657
  55	0.00436809	0.0024268	0.0172172
  56	-0.0155091	0.0185238	0.00140307
  57	-0.00256336	0.0215985	-0.0154004
  58	-0.00381678	0.00326413	-0.00758295
  59	0.00267379	-0.000295565	-0.00281903
  60	0.00486514	-0.00204452	0.00230689
  61	-0.00416447	-0.0115737	0.0184953
  62	0.0194994	0.00258073	-0.0205942
  63	0.0164325	-0.0222747	0.0127672
  64	0.0173533	0.00224002	0.0197886
  65	8.64414e-05	-0.000261294	0.0030392
  66	-0.000488496	0.000696281	-0.00102592
  67	0.00277119	0.00539302	-2.36896e-05
  68	-0.0163736	0.00559262	0.0299288
  69	-0.00182167	-0.0145202	0.0379971
  70	-0.00415589	0.00379321	-0.0195437
  71	0.0175736	0.00440044	0.0115776
  72	-0.00269281	-0.0047767	0.000809571
  73	-0.0025472	0.000937443	0.000917739
  74	-0.00104778	-0.00516931	0.00625565
  75	0.0112208	-0.00371622	-0.00044975
  76	-0.0107291	0.00516559	-0.00770199
  77	-0.010627	-0.000947893	-0.00336192
  78	0.0114826	-0.0310415	-0.0176401
  79	-0.000398275	-0.00831248	0.00331879
  80	-0.000316481	0.00407914	0.000982144
  81	0.00440744	-0.000474163	0.00334531
  82	0.00096453	-0.011473	-0.011226
  83	-0.0150482	0.0068782	0.0134093
  84	-0.022256	-0.01417	-0.0203201
  85	-0.0125213	-0.0299024	-0.0214525
  86	-0.00346283	-0.00115108	-0.00104261
  87	0.0042823	-0.00158823	0.00313966
  88	0.00796214	0.00234851	0.00037132
  89	-0.0106973	0.0375087	0.0143332
  90	-0.0173837	-0.0192957	-0.0201129
  91	0.00499505	0.0025306	-0.0109826
  92	0.0150912	0.0208138	0.0346565
  93	-0.000838336	0.00208299	-0.00418902
  94	-0.00249567	-0.00249299	0.00150326
  95	-0.00302611	-0.0019385	-0.00671867
  96	0.000984106	0.0553515	0.0257384
  97	-0.0404007	0.00526863	0.000605191
  98	-0.00574175	0.0130379	0.0101547
  99	-0.0314212	0.00461789	0.0105465
 100	0.00485177	-0.000136001	-0.000249871
 101	-0.00355466	0.00793035	-0.00236937
 102	-0.0172859	0.00732873	-0.00901911
 103	0.00965301	-0.0238576	-0.00642151
 104	-0.00491617	0.0083478	-0.00746868
 105	-0.0369717	0.00685302	-5.49682e-05
 106	0.0016577	0.0172744	-0.00191348
 107	-0.000337641	-0.0104112	-0.00659223
 108	0.00191763	-0.0090857	0.000177534
 109	0.00857976	0.00513071	-0.00971161
 110	-0.0433249	-0.014577	-0.00015153
 111	-0.0180459	-0.0121521	-0.0041786
 112	-0.00485308	-0.00454226	0.00628887
 113	0.0120378	-0.0457155	0.00983308
 114	-0.0100554	0.00145412	0.000477934
 115	-0.00320136	0.00681727	-0.00400561
 116	0.00502751	-0.00305085	-0.00168288
 117	-0.00173372	0.0315238	0.0145686
 118	0.00718556	-0.00776216	-0.00970211
 119	0.00400125	-0.0166789	0.0134137
 120	0.00645485	-0.00757145	-0.00558288
 121	-0.00514559	0.00105996	5.57805e-05
 122	-0.00150424	0.00375404	0.00471345
 123	-0.00598936	0.00127235	0.00212068
 124	-0.00362231	-0.00737661	0.00390728
 125	-0.0123595	0.00744685	-0.00681297
 126	0.0149952	0.0118424	0.00209935
 127	0.0126175	-0.0151516	-0.00135858

Bonds

   1	5	1	3
   2	5	2	3
   3	4	3	5
   4	2	4	5
   5	1	4	6
   6	1	4	7
   7	3	5	8
   8	7	9	11
   9	1	9	12
  10	1	9	13
  11	6	10	11
  12	8	11	14
  13	8	11	15
  14	9	1	9
  15	7	16	18
  16	1	16	19
  17	1	16	20
  18	6	17	18
  19	8	18	21
  20	8	18	22
  21	9	10	16
  22	7	23	25
  23	1	23	26
  24	1	23	27
  25	6	24	25
  26	8	25	28
  27	8	25	29
  28	9	17	23
  29	7	30	32
  30	1	30	33
  31	1	30	34
  32	6	31	32
  33	8	32	35
  34	8	32	36
  35	9	24	30
  36	7	37	39
  37	1	37	40
  38	1	37	41
  39	6	38	39
  40	8	39	42
  41	8	39	43
  42	9	31	37
  43	7	44	46
  44	1	44	47
  45	1	44	48
  46	6	45	46
  47	8	46	49
  48	8	46	50
  49	9	38	44
  50	7	51	53
  51	1	51	54
  52	1	51	55
  53	6	52	53
  54	8	53	56
  55	8	53	57
  56	9	45	51
  57	7	58	60
  58	1	58	61
  59	1	58	62
  60	6	59	60
  61	8	60	63
  62	8	60	64
  63	9	52	58
  64	7	65	67
  65	1	65	68
  66	1	65	69
  67	6	66	67
  68	8	67	70
  69	8	67	71
  70	9	59	65
  71	7	72	74
  72	1	72	75
  73	1	72	76
  74	6	73	74
  75	8	74	77
  76	8	74	78
  77	9	66	72
  78	7	79	81
  79	1	79	82
  80	1	79	83
  81	6	80	81
  82	8	81	84
  83	8	81	85
  84	9	73	79
  85	7	86	88
  86	1	86	89
  87	1	86	90
  88	6	87	88
  89	8	88	91
  90	8	88	92
  91	9	80	86
  92	7	93	95
  93	1	93	96
  94	1	93	97
  95	6	94	95
  96	8	95	98
  97	8	95	99
  98	9	87	93
  99	7	100	102
 100	1	100	103
 101	1	100	104
 102	6	101	102
 103	8	102	105
 104	8	102	106
 105	9	94	100
 106	7	107	109
 107	1	107	110
 108	1	107	111
 109	6	108	109
 110	8	109	112
 111	8	109	113
 112	9	101	107
 113	7	114	116
 114	1	114	117
 115	1	114	118
 116	6	115	116
 117	8	116	119
 118	8	116	120
 119	9	108	114
 120	12	121	123
 121	1	121	125
 122	1	121	126
 123	10	122	123
 124	11	122	124
 125	1	123	127
 126	11	115	122

Angles

   1	7	1	3	2
   2	6	1	3	5
   3	6	2	3	5
   4	2	5	4	6
   5	2	5	4	7
   6	1	6	4	7
   7	5	3	5	4
   8	4	3	5	8
   9	3	4	5	8
  10	10	11	9	12
  11	10	11	9	13
  12	1	12	9	13
  13	9	9	11	10
  14	8	9	11	14
  15	8	9	11	15
  16	12	10	11	14
  17	12	10	11	15
  18	11	14	11	15
  19	13	3	1	9
  20	14	1	9	11
  21	15	1	9	12
  22	15	1	9	13
  23	10	18	16	19
  24	10	18	16	20
  25	1	19	16	20
  26	9	16	18	17
  27	8	16	18	21
  28	8	16	18	22
  29	12	17	18	21
  30	12	17	18	22
  31	11	21	18	22
  32	16	11	10	16
  33	14	10	16	18
  34	15	10	16	19
  35	15	10	16	20
  36	10	25	23	26
  37	10	25	23	27
  38	1	26	23	27
  39	9	23	25	24
  40	8	23	25	28
  41	8	23	25	29
  42	12	24	25	28
  43	12	24	25	29
  44	11	28	25	29
  45	16	18	17	23
  46	14	17	23	25
  47	15	17	23	26
  48	15	17	23	27
  49	10	32	30	33
  50	10	32	30	34
  51	1	33	30	34
  52	9	30	32	31
  53	8	30	32	35
  54	8	30	32	36
  55	12	31	32	35
  56	12	31	32	36
  57	11	35	32	36
  58	16	25	24	30
  59	14	24	30	32
  60	15	24	30	33
  61	15	24	30	34
  62	10	39	37	40
  63	10	39	37	41
  64	1	40	37	41
  65	9	37	39	38
  66	8	37	39	42
  67	8	37	39	43
  68	12	38	39	42
  69	12	38	39	43
  70	11	42	39	43
  71	16	32	31	37
  72	14	31	37	39
  73	15	31	37	40
  74	15	31	37	41
  75	10	46	44	47
  76	10	46	44	48
  77	1	47	44	48
  78	9	44	46	45
  79	8	44	46	49
  80	8	44	46	50
  81	12	45	46	49
  82	12	45	46	50
  83	11	49	46	50
  84	16	39	38	44
  85	14	38	44	46
  86	15	38	44	47
  87	15	38	44	48
  88	10	53	51	54
  89	10	53	51	55
  90	1	54	51	55
  91	9	51	53	52
  92	8	51	53	56
  93	8	51	53	57
  94	12	52	53	56
  95	12	52	53	57
  96	11	56	53	57
  97	16	46	45	51
  98	14	45	51	53
  99	15	45	51	54
 100	15	45	51	55
 101	10	60	58	61
 102	10	60	58	62
 103	1	61	58	62
 104	9	58	60	59
 105	8	58	60	63
 106	8	58	60	64
 107	12	59	60	63
 108	12	59	60	64
 109	11	63	60	64
 110	16	53	52	58
 111	14	52	58	60
 112	15	52	58	61
 113	15	52	58	62
 114	10	67	65	68
 115	10	67	65	69
 116	1	68	65	69
 117	9	65	67	66
 118	8	65	67	70
 119	8	65	67	71
 120	12	66	67	70
 121	12	66	67	71
 122	11	70	67	71
 123	16	60	59	65
 124	14	59	65	67
 125	15	59	65	68
 126	15	59	65	69
 127	10	74	72	75
 128	10	74	72	76
 129	1	75	72	76
 130	9	72	74	73
 131	8	72	74	77
 132	8	72	74	78
 133	12	73	74	77
 134	12	73	74	78
 135	11	77	74	78
 136	16	67	66	72
 137	14	66	72	74
 138	15	66	72	75
 139	15	66	72	76
 140	10	81	79	82
 141	10	81	79	83
 142	1	82	79	83
 143	9	79	81	80
 144	8	79	81	84
 145	8	79	81	85
 146	12	80	81	84
 147	12	80	81	85
 148	11	84	81	85
 149	16	74	73	79
 150	14	73	79	81
 151	15	73	79	82
 152	15	73	79	83
 153	10	88	86	89
 154	10	88	86	90
 155	1	89	86	90
 156	9	86	88	87
 157	8	86	88	91
 158	8	86	88	92
 159	12	87	88	91
 160	12	87	88	92
 161	11	91	88	92
 162	16	81	80	86
 163	14	80	86	88
 164	15	80	86	89
 165	15	80	86	90
 166	10	95	93	96
 167	10	95	93	97
 168	1	96	93	97
 169	9	93	95	94
 170	8	93	95	98
 171	8	93	95	99
 172	12	94	95	98
 173	12	94	95	99
 174	11	98	95	99
 175	16	88	87	93
 176	14	87	93	95
 177	15	87	93	96
 178	15	87	93	97
 179	10	102	100	103
 180	10	102	100	104
 181	1	103	100	104
 182	9	100	102	101
 183	8	100	102	105
 184	8	100	102	106
 185	12	101	102	105
 186	12	101	102	106
 187	11	105	102	106
 188	16	95	94	100
 189	14	94	100	102
 190	15	94	100	103
 191	15	94	100	104
 192	10	109	107	110
 193	10	109	107	111
 194	1	110	107	111
 195	9	107	109	108
 196	8	107	109	112
 197	8	107	109	113
 198	12	108	109	112
 199	12	108	109	113
 200	11	112	109	113
 201	16	102	101	107
 202	14	101	107	109
 203	15	101	107	110
 204	15	101	107	111
 205	10	116	114	117
 206	10	116	114	118
 207	1	117	114	118
 208	9	114	116	115
 209	8	114	116	119
 210	8	114	116	120
 211	12	115	116	119
 212	12	115	116	120
 213	11	119	116	120
 214	16	109	108	114
 215	14	108	114	116
 216	15	108	114	117
 217	15	108	114	118
 218	19	123	121	125
 219	19	123	121	126
 220	1	125	121	126
 221	17	123	122	124
 222	18	121	123	122
 223	19	121	123	127
 224	20	122	123	127
 225	21	116	115	122
 226	17	115	122	123
 227	22	115	122	124

Dihedrals

   1	2	1	3	5	4
   2	2	1	3	5	8
   3	2	2	3	5	4
   4	2	2	3	5	8
   5	1	6	4	5	3
   6	1	6	4	5	8
   7	1	7	4	5	3
   8	1	7	4	5	8
   9	3	12	9	11	10
  10	3	12	9	11	14
  11	3	12	9	11	15
  12	3	13	9	11	10
  13	3	13	9	11	14
  14	3	13	9	11	15
  15	3	1	9	11	10
  16	3	1	9	11	14
  17	3	1	9	11	15
  18	3	19	16	18	17
  19	3	19	16	18	21
  20	3	19	16	18	22
  21	3	20	16	18	17
  22	3	20	16	18	21
  23	3	20	16	18	22
  24	3	10	16	18	17
  25	3	10	16	18	21
  26	3	10	16	18	22
  27	3	26	23	25	24
  28	3	26	23	25	28
  29	3	26	23	25	29
  30	3	27	23	25	24
  31	3	27	23	25	28
  32	3	27	23	25	29
  33	3	17	23	25	24
  34	3	17	23	25	28
  35	3	17	23	25	29
  36	3	33	30	32	31
  37	3	33	30	32	35
  38	3	33	30	32	36
  39	3	34	30	32	31
  40	3	34	30	32	35
  41	3	34	30	32	36
  42	3	24	30	32	31
  43	3	24	30	32	35
  44	3	24	30	32	36
  45	3	40	37	39	38
  46	3	40	37	39	42
  47	3	40	37	39	43
  48	3	41	37	39	38
  49	3	41	37	39	42
  50	3	41	37	39	43
  51	3	31	37	39	38
  52	3	31	37	39	42
  53	3	31	37	39	43
  54	3	47	44	46	45
  55	3	47	44	46	49
  56	3	47	44	46	50
  57	3	48	44	46	45
  58	3	48	44	46	49
  59	3	48	44	46	50
  60	3	38	44	46	45
  61	3	38	44	46	49
  62	3	38	44	46	50
  63	3	54	51	53	52
  64	3	54	51	53	56
  65	3	54	51	53	57
  66	3	55	51	53	52
  67	3	55	51	53	56
  68	3	55	51	53	57
  69	3	45	51	53	52
  70	3	45	51	53	56
  71	3	45	51	53	57
  72	3	61	58	60	59
  73	3	61	58	60	63
  74	3	61	58	60	64
  75	3	62	58	60	59
  76	3	62	58	60	63
  77	3	62	58	60	64
  78	3	52	58	60	59
  79	3	52	58	60	63
  80	3	52	58	60	64
  81	3	68	65	67	66
  82	3	68	65	67	70
  83	3	68	65	67	71
  84	3	69	65	67	66
  85	3	69	65	67	70
  86	3	69	65	67	71
  87	3	59	65	67	66
  88	3	59	65	67	70
  89	3	59	65	67	71
  90	3	75	72	74	73
  91	3	75	72	74	77
  92	3	75	72	74	78
  93	3	76	72	74	73
  94	3	76	72	74	77
  95	3	76	72	74	78
  96	3	66	72	74	73
  97	3	66	72	74	77
  98	3	66	72	74	78
  99	3	82	79	81	80
 100	3	82	79	81	84
 101	3	82	79	81	85
 102	3	83	79	81	80
 103	3	83	79	81	84
 104	3	83	79	81	85
 105	3	73	79	81	80
 106	3	73	79	81	84
 107	3	73	79	81	85
 108	3	89	86	88	87
 109	3	89	86	88	91
 110	3	89	86	88	92
 111	3	90	86	88	87
 112	3	90	86	88	91
 113	3	90	86	88	92
 114	3	80	86	88	87
 115	3	80	86	88	91
 116	3	80	86	88	92
 117	3	96	93	95	94
 118	3	96	93	95	98
 119	3	96	93	95	99
 120	3	97	93	95	94
 121	3	97	93	95	98
 122	3	97	93	95	99
 123	3	87	93	95	94
 124	3	87	93	95	98
 125	3	87	93	95	99
 126	3	103	100	102	101
 127	3	103	100	102	105
 128	3	103	100	102	106
 129	3	104	100	102	101
 130	3	104	100	102	105
 131	3	104	100	102	106
 132	3	94	100	102	101
 133	3	94	100	102	105
 134	3	94	100	102	106
 135	3	110	107	109	108
 136	3	110	107	109	112
 137	3	110	107	109	113
 138	3	111	107	109	108
 139	3	111	107	109	112
 140	3	111	107	109	113
 141	3	101	107	109	108
 142	3	101	107	109	112
 143	3	101	107	109	113
 144	3	117	114	116	115
 145	3	117	114	116	119
 146	3	117	114	116	120
 147	3	118	114	116	115
 148	3	118	114	116	119
 149	3	118	114	116	120
 150	3	108	114	116	115
 151	3	108	114	116	119
 152	3	108	114	116	120
 153	4	125	121	123	122
 154	4	125	121	123	127
 155	4	126	121	123	122
 156	4	126	121	123	127
 157	5	124	122	123	121
 158	5	124	122	123	127
 159	5	115	122	123	121
 160	5	115	122	123	127

Impropers

   1	1	3	1	2	5

