pySIMM System Object

113 atoms
112 bonds
201 angles
142 dihedrals
1 impropers

8 atom types
12 bond types
22 angle types
5 dihedral types
1 improper types

-61.802685 61.802685 xlo xhi
-61.802685 61.802685 ylo yhi
-61.802685 61.802685 zlo zhi

Masses

   1	16.0	# o
   2	12.01	# c
   3	12.01	# c2
   4	12.01	# ce
   5	1.008	# ha
   6	12.01	# c3
   7	1.008	# h1
   8	12.01	# c1

Pair Coeffs

   1	0.21	2.959921901149463	# o
   2	0.086	3.3996695084235347	# c
   3	0.086	3.3996695084235347	# c2
   4	0.086	3.3996695084235347	# ce
   5	0.015	2.59964245953351	# ha
   6	0.1094	3.3996695084235347	# c3
   7	0.0157	2.471353044121301	# h1
   8	0.21	3.3996695084235347	# c1

Bond Coeffs

   1	343.1	1.0879	# c2,ha
   2	547.3	1.3461	# c2,ce
   3	342.5	1.0883	# ce,ha
   4	354.5	1.4825	# c,ce
   5	637.7	1.2183	# c,o
   6	449.9	1.3165	# c3,o
   7	326.8	1.5095	# c2,c3
   8	330.6	1.0969	# c3,h1
   9	622.9	1.2247	# c2,o
  10	625.0	1.307	# c1,c2
  11	758.1	1.1724	# c1,o
  12	569.4	1.3343	# c2,c2

Angle Coeffs

   1	38.11	116.9	# ha,c2,ha
   2	49.51	120.45	# ce,c2,ha
   3	49.61	119.94	# c2,ce,ha
   4	46.52	116.46	# c,ce,ha
   5	65.45	120.42	# c,ce,c2
   6	68.83	123.2	# ce,c,o
   7	77.94	130.25	# o,c,o
   8	47.07	109.96	# c2,c3,h1
   9	68.15	110.35	# c2,c3,o
  10	45.94	115.68	# c3,c2,ha
  11	39.24	108.46	# h1,c3,h1
  12	52.64	116.45	# h1,c3,o
  13	65.83	113.14	# c2,o,c
  14	67.92	122.82	# c3,c2,o
  15	55.28	117.23	# ha,c2,o
  16	65.83	113.14	# c2,o,c3
  17	62.94	179.5	# c2,c1,o
  18	70.06	121.62	# c1,c2,c2
  19	49.85	120.43	# c2,c2,ha
  20	50.62	120.42	# c1,c2,ha
  21	65.83	113.14	# c3,o,c1
  22	68.89	180.0	# o,c1,o

Dihedral Coeffs

   1	1	6.65	2	180	# X,c2,ce,X
   2	1	2.175	2	180	# X,c,ce,X
   3	1	0.0	2	0	# X,c2,c3,X
   4	1	6.65	2	180	# X,c2,c2,X
   5	1	0.0	2	180	# X,c1,c2,X

Improper Coeffs

   1	10.5	-1	2	# c,X,X,o

Atoms

   1	1	1	-0.104756	11.531	8.79952	9.77244
   2	1	1	-0.569213	13.1764	10.0601	10.5218
   3	1	2	0.789146	12.1874	9.85817	9.857
   4	1	3	-0.154228	12.2156	12.2852	8.91483
   5	1	4	-0.389642	11.566	11.1125	9.20635
   6	1	5	0.157325	11.7718	13.0208	8.22546
   7	1	5	0.138289	13.2007	12.5325	9.30374
   8	1	5	0.133078	10.6398	10.957	8.60638
   9	1	3	-8e-06	10.9082	8.33406	10.7333
  10	1	1	-0.400145	9.84125	6.36224	10.0395
  11	1	6	0.053825	10.8236	6.77317	10.757
  12	1	5	0.095789	9.90333	8.75376	10.7651
  13	1	5	0.095196	11.4164	8.60434	11.6454
  14	1	7	0.084202	10.7624	6.52931	11.808
  15	1	7	0.07114	11.8006	6.41742	10.5214
  16	1	3	-8e-06	9.77411	5.12921	9.78518
  17	1	1	-0.400145	9.07024	3.45755	8.32297
  18	1	6	0.053825	8.75724	4.67889	8.74935
  19	1	5	0.095789	9.49624	4.52208	10.7331
  20	1	5	0.095196	10.7767	4.71372	9.48204
  21	1	7	0.084202	8.64147	5.44363	7.94901
  22	1	7	0.07114	7.72806	4.67597	9.18324
  23	1	3	-8e-06	9.62946	3.36475	7.22666
  24	1	1	-0.400145	8.90851	1.71381	5.71562
  25	1	6	0.053825	9.60919	1.89296	6.84963
  26	1	5	0.095789	9.11706	3.87997	6.45104
  27	1	5	0.095196	10.6797	3.83968	7.28889
  28	1	7	0.084202	9.25931	1.35552	7.79008
  29	1	7	0.07114	10.6653	1.71459	6.68933
  30	1	3	-8e-06	7.8775	1.13088	5.85313
  31	1	1	-0.400145	5.9945	0.20584	4.9292
  32	1	6	0.053825	7.29155	0.412883	4.66343
  33	1	5	0.095789	7.13297	1.7802	6.20016
  34	1	5	0.095196	7.85696	0.371344	6.65253
  35	1	7	0.084202	7.88294	-0.471584	4.42254
  36	1	7	0.07114	7.4844	1.01291	3.75399
  37	1	3	-8e-06	5.3399	-0.152718	3.96012
  38	1	1	-0.400145	3.11557	-0.542891	3.47072
  39	1	6	0.053825	4.08074	-0.94726	4.29926
  40	1	5	0.095789	5.86838	-0.812093	3.22672
  41	1	5	0.095196	4.95924	0.719314	3.46688
  42	1	7	0.084202	3.92903	-0.717904	5.33292
  43	1	7	0.07114	4.23584	-2.03447	4.35721
  44	1	3	-8e-06	2.15106	0.149291	3.87301
  45	1	1	-0.400145	1.03636	2.16414	3.41366
  46	1	6	0.053825	2.20203	1.64086	3.67151
  47	1	5	0.095789	1.90989	0.016685	4.89164
  48	1	5	0.095196	1.30632	-0.240087	3.2881
  49	1	7	0.084202	2.98355	1.72905	2.92186
  50	1	7	0.07114	2.66577	2.05073	4.59315
  51	1	3	-8e-06	0.503462	2.05134	2.29021
  52	1	1	-0.400145	-0.252063	3.38359	0.622514
  53	1	6	0.053825	0.838275	3.13592	1.3155
  54	1	5	0.095789	-0.547276	2.15601	2.45056
  55	1	5	0.095196	0.561172	1.07052	1.74099
  56	1	7	0.084202	1.23576	3.92026	1.93248
  57	1	7	0.07114	1.64701	2.79121	0.639664
  58	1	3	-8e-06	-0.208778	3.35832	-0.607262
  59	1	1	-0.400145	-1.19646	3.65987	-2.6298
  60	1	6	0.053825	-1.44513	3.72627	-1.32451
  61	1	5	0.095789	0.0111806	2.30167	-0.879312
  62	1	5	0.095196	0.568853	3.95616	-1.01157
  63	1	7	0.084202	-1.81414	4.72597	-0.913815
  64	1	7	0.07114	-2.26096	3.05068	-1.02022
  65	1	3	-8e-06	-2.11105	3.31215	-3.38312
  66	1	1	-0.400145	-4.10128	3.88245	-4.20297
  67	1	6	0.053825	-2.99149	4.50294	-3.81905
  68	1	5	0.095789	-2.68233	2.58313	-2.94366
  69	1	5	0.095196	-1.67587	2.84617	-4.24184
  70	1	7	0.084202	-2.43434	5.0275	-4.61151
  71	1	7	0.07114	-3.15903	5.19668	-2.97737
  72	1	3	-8e-06	-5.22954	4.40892	-4.0228
  73	1	1	-0.400145	-6.95307	5.38302	-5.2437
  74	1	6	0.053825	-5.62664	5.3933	-5.07602
  75	1	5	0.095789	-5.3696	4.9213	-3.03292
  76	1	5	0.095196	-5.95842	3.60811	-4.14729
  77	1	7	0.084202	-5.11142	5.05945	-5.96402
  78	1	7	0.07114	-5.15277	6.33488	-4.8436
  79	1	3	-8e-06	-7.55335	6.42637	-5.31669
  80	1	1	-0.400145	-6.53357	8.34568	-6.14606
  81	1	6	0.053825	-7.28349	7.33522	-6.52957
  82	1	5	0.095789	-7.36819	6.98565	-4.40197
  83	1	5	0.095196	-8.632	6.32126	-5.31626
  84	1	7	0.084202	-8.29998	7.68278	-6.93882
  85	1	7	0.07114	-6.93857	6.67632	-7.35877
  86	1	3	-8e-06	-6.29033	9.26473	-6.903
  87	1	1	-0.400145	-6.61559	11.5258	-7.48956
  88	1	6	0.053825	-6.74794	10.6644	-6.50726
  89	1	5	0.095789	-6.8669	9.13937	-7.85957
  90	1	5	0.095196	-5.22904	9.30835	-7.04944
  91	1	7	0.084202	-6.22435	10.9494	-5.57629
  92	1	7	0.07114	-7.81008	10.5649	-6.22175
  93	1	3	-8e-06	-5.85309	12.4861	-7.32471
  94	1	1	-0.400145	-5.29961	14.5975	-8.06973
  95	1	6	0.053825	-6.29937	13.7712	-7.88969
  96	1	5	0.095789	-4.90737	12.2369	-7.85121
  97	1	5	0.095196	-5.65639	12.7178	-6.27144
  98	1	7	0.084202	-7.13522	14.1521	-7.28878
  99	1	7	0.07114	-6.761	13.4345	-8.82533
 100	1	3	-8e-06	-5.52925	15.7609	-8.33407
 101	1	1	-0.400145	-4.45238	17.0742	-9.89502
 102	1	6	0.053825	-4.3381	16.6589	-8.64729
 103	1	5	0.095789	-5.97181	16.218	-7.43035
 104	1	5	0.095196	-6.30107	15.8858	-9.12961
 105	1	7	0.084202	-3.45927	16.0479	-8.35926
 106	1	7	0.07114	-4.30258	17.4095	-7.82041
 107	1	3	-0.232441	-3.08066	19.3053	-11.8651
 108	1	8	0.444336	-4.15874	18.2004	-10.1078
 109	1	3	-0.096823	-3.08785	18.4545	-10.8467
 110	1	1	-0.491911	-4.801	19.1303	-9.72181
 111	1	5	0.148316	-2.15664	19.4839	-12.4417
 112	1	5	0.163898	-3.91088	19.8696	-12.2183
 113	1	5	0.064625	-2.11044	17.98	-10.637

Velocities

   1	0.00567232	0.00430702	-0.00473263
   2	-0.000421764	0.00436509	0.00520899
   3	0.00148522	-0.000136442	0.0037511
   4	-0.00022172	-0.00131956	-0.0054685
   5	0.000868537	0.0019898	-0.00213367
   6	-0.0144354	-0.0156313	-4.7736e-05
   7	0.0021663	-0.00267178	-0.00277464
   8	-0.00109095	0.0201872	0.00794196
   9	0.00547857	0.00307034	0.00454882
  10	0.0137734	0.00202666	-0.00708907
  11	0.00723609	0.0010061	0.00199086
  12	-0.00996669	-0.0256235	-0.0215396
  13	-0.0163856	0.00235573	-0.0258081
  14	0.0160202	-0.0227835	-0.00319731
  15	0.0191574	0.00387443	-0.0122935
  16	0.00957965	0.00375429	-0.00189681
  17	0.00269043	0.00964018	0.000964498
  18	0.00883048	-0.000362999	0.00499838
  19	0.0173754	0.0087436	0.0277153
  20	0.00186275	0.00704886	-0.00809262
  21	-0.0076258	-0.00351742	0.0372899
  22	-0.00878638	-0.01861	0.0167649
  23	-0.0110403	0.0018654	-0.00828632
  24	0.00148934	0.00619692	0.00199354
  25	0.00320652	0.000243609	-0.00262519
  26	-0.00723421	-0.0128987	-0.00264856
  27	-0.0120235	-0.00805519	-0.0237629
  28	0.00533234	0.0133055	-0.0215219
  29	0.0143808	0.0101001	0.00390097
  30	0.00288005	0.0034957	-0.00036671
  31	-0.000999339	-0.00117271	-0.00131401
  32	-0.00248372	0.00194475	0.00862354
  33	0.0138142	-0.0059994	0.00602383
  34	0.0155246	0.0318535	0.0231299
  35	-0.0081925	0.0323712	-0.0128507
  36	0.00474924	0.0227568	0.0252926
  37	-0.00887231	0.0044308	0.00361963
  38	0.00239135	-0.000783988	0.00178359
  39	-0.0107479	0.00662659	0.00336318
  40	-0.000722494	0.0221084	0.0199663
  41	-0.00256468	0.0066897	0.00660904
  42	-0.003261	-0.000162488	0.00587047
  43	0.00959618	-0.00558374	0.0180264
  44	-0.00447392	0.00039777	0.00719244
  45	-0.00127735	0.00159749	0.00202634
  46	0.00304484	0.00324354	-0.00190293
  47	-0.0234579	-0.0014643	0.0228381
  48	0.00874946	-0.0165274	0.0104533
  49	-0.00668862	-0.00192538	0.0201757
  50	-0.0114145	-0.00187836	-0.00751515
  51	-0.0072021	0.00273019	0.00469508
  52	-0.00297009	-0.00606542	-0.00509351
  53	-0.00278921	-0.00765871	-0.00426257
  54	-0.00863128	-0.00356929	-0.00559466
  55	-0.0198972	0.0117311	0.0130387
  56	-0.00236112	0.00963315	-0.0175668
  57	-0.0130019	-0.00225397	0.0156734
  58	-0.00288073	0.00231265	0.0102139
  59	-0.00525363	-0.00403933	0.00137486
  60	-0.00318956	-0.00291101	0.00292853
  61	-0.00898784	-0.0129934	0.0205385
  62	0.0121008	0.0138743	0.00182278
  63	0.0121655	0.0154145	0.00713834
  64	0.0122075	-0.0183401	-0.00157972
  65	0.00381172	0.00028165	0.00148298
  66	-0.0027679	0.00917009	0.00204232
  67	-0.00240549	0.000801874	0.00282036
  68	0.00921911	-0.0227224	-0.0253425
  69	0.0424098	0.00273751	-0.0326904
  70	0.00355137	-0.0190452	0.0117804
  71	-0.00799353	-0.0127222	0.00092308
  72	0.00247754	0.0090476	-0.00959563
  73	0.00354137	0.000416557	0.00825634
  74	0.00329994	0.00346054	0.000252583
  75	0.00369644	-0.0105074	0.000333796
  76	0.00324976	0.0111918	0.0114797
  77	-0.0101095	0.0151931	-0.0416122
  78	0.0136055	0.0163418	-0.010166
  79	-0.000644937	0.00443218	-0.00297945
  80	-0.00675053	-0.00228815	0.00264121
  81	-0.00228377	0.00226927	0.000696706
  82	0.012411	0.0232532	-0.0238759
  83	-0.0251275	-0.00137972	0.0139205
  84	-0.0144341	0.00387514	0.0203118
  85	-0.0211968	-0.0118095	0.00352682
  86	-0.00396129	0.000171122	-0.00386355
  87	0.00677396	-0.00510664	-0.00857231
  88	-0.00647608	-0.000831246	-0.00592561
  89	-0.0074848	-0.00196273	0.0164534
  90	0.00111796	-0.00411612	-0.00648763
  91	0.0028067	-0.014933	-0.014708
  92	-0.015769	-0.00434975	0.0115618
  93	-0.00161432	-8.69456e-05	7.48681e-05
  94	0.00123765	0.00415705	0.00246282
  95	0.000113152	0.000508039	0.000895711
  96	-0.0273073	-0.00428451	0.00619343
  97	-0.0132938	0.010428	0.00793317
  98	0.0114051	-0.00661621	-0.0336153
  99	0.011251	-0.000602965	0.00100349
 100	-0.00487459	0.00248217	-0.000818711
 101	0.00182967	0.00428119	-0.00655899
 102	-0.00661251	0.00147671	-0.00402761
 103	0.0185817	-0.0104601	-0.011973
 104	0.0245492	-0.0203058	-0.0372572
 105	0.0128808	-0.0078452	-0.0158136
 106	-0.00910737	0.00911737	0.000629921
 107	0.00821789	-0.00687715	-0.000839682
 108	0.000460657	0.00558745	-0.00178598
 109	0.00613969	0.00210876	0.00302519
 110	0.00697153	0.000770662	0.000540766
 111	0.00540406	0.0135935	0.0191571
 112	0.00826411	0.00643969	-0.0397026
 113	-0.00165637	0.00754239	0.0111806

Bonds

   1	5	1	3
   2	5	2	3
   3	4	3	5
   4	2	4	5
   5	1	4	6
   6	1	4	7
   7	3	5	8
   8	7	9	11
   9	1	9	12
  10	1	9	13
  11	6	10	11
  12	8	11	14
  13	8	11	15
  14	9	1	9
  15	7	16	18
  16	1	16	19
  17	1	16	20
  18	6	17	18
  19	8	18	21
  20	8	18	22
  21	9	10	16
  22	7	23	25
  23	1	23	26
  24	1	23	27
  25	6	24	25
  26	8	25	28
  27	8	25	29
  28	9	17	23
  29	7	30	32
  30	1	30	33
  31	1	30	34
  32	6	31	32
  33	8	32	35
  34	8	32	36
  35	9	24	30
  36	7	37	39
  37	1	37	40
  38	1	37	41
  39	6	38	39
  40	8	39	42
  41	8	39	43
  42	9	31	37
  43	7	44	46
  44	1	44	47
  45	1	44	48
  46	6	45	46
  47	8	46	49
  48	8	46	50
  49	9	38	44
  50	7	51	53
  51	1	51	54
  52	1	51	55
  53	6	52	53
  54	8	53	56
  55	8	53	57
  56	9	45	51
  57	7	58	60
  58	1	58	61
  59	1	58	62
  60	6	59	60
  61	8	60	63
  62	8	60	64
  63	9	52	58
  64	7	65	67
  65	1	65	68
  66	1	65	69
  67	6	66	67
  68	8	67	70
  69	8	67	71
  70	9	59	65
  71	7	72	74
  72	1	72	75
  73	1	72	76
  74	6	73	74
  75	8	74	77
  76	8	74	78
  77	9	66	72
  78	7	79	81
  79	1	79	82
  80	1	79	83
  81	6	80	81
  82	8	81	84
  83	8	81	85
  84	9	73	79
  85	7	86	88
  86	1	86	89
  87	1	86	90
  88	6	87	88
  89	8	88	91
  90	8	88	92
  91	9	80	86
  92	7	93	95
  93	1	93	96
  94	1	93	97
  95	6	94	95
  96	8	95	98
  97	8	95	99
  98	9	87	93
  99	7	100	102
 100	1	100	103
 101	1	100	104
 102	6	101	102
 103	8	102	105
 104	8	102	106
 105	9	94	100
 106	12	107	109
 107	1	107	111
 108	1	107	112
 109	10	108	109
 110	11	108	110
 111	1	109	113
 112	11	101	108

Angles

   1	7	1	3	2
   2	6	1	3	5
   3	6	2	3	5
   4	2	5	4	6
   5	2	5	4	7
   6	1	6	4	7
   7	5	3	5	4
   8	4	3	5	8
   9	3	4	5	8
  10	10	11	9	12
  11	10	11	9	13
  12	1	12	9	13
  13	9	9	11	10
  14	8	9	11	14
  15	8	9	11	15
  16	12	10	11	14
  17	12	10	11	15
  18	11	14	11	15
  19	13	3	1	9
  20	14	1	9	11
  21	15	1	9	12
  22	15	1	9	13
  23	10	18	16	19
  24	10	18	16	20
  25	1	19	16	20
  26	9	16	18	17
  27	8	16	18	21
  28	8	16	18	22
  29	12	17	18	21
  30	12	17	18	22
  31	11	21	18	22
  32	16	11	10	16
  33	14	10	16	18
  34	15	10	16	19
  35	15	10	16	20
  36	10	25	23	26
  37	10	25	23	27
  38	1	26	23	27
  39	9	23	25	24
  40	8	23	25	28
  41	8	23	25	29
  42	12	24	25	28
  43	12	24	25	29
  44	11	28	25	29
  45	16	18	17	23
  46	14	17	23	25
  47	15	17	23	26
  48	15	17	23	27
  49	10	32	30	33
  50	10	32	30	34
  51	1	33	30	34
  52	9	30	32	31
  53	8	30	32	35
  54	8	30	32	36
  55	12	31	32	35
  56	12	31	32	36
  57	11	35	32	36
  58	16	25	24	30
  59	14	24	30	32
  60	15	24	30	33
  61	15	24	30	34
  62	10	39	37	40
  63	10	39	37	41
  64	1	40	37	41
  65	9	37	39	38
  66	8	37	39	42
  67	8	37	39	43
  68	12	38	39	42
  69	12	38	39	43
  70	11	42	39	43
  71	16	32	31	37
  72	14	31	37	39
  73	15	31	37	40
  74	15	31	37	41
  75	10	46	44	47
  76	10	46	44	48
  77	1	47	44	48
  78	9	44	46	45
  79	8	44	46	49
  80	8	44	46	50
  81	12	45	46	49
  82	12	45	46	50
  83	11	49	46	50
  84	16	39	38	44
  85	14	38	44	46
  86	15	38	44	47
  87	15	38	44	48
  88	10	53	51	54
  89	10	53	51	55
  90	1	54	51	55
  91	9	51	53	52
  92	8	51	53	56
  93	8	51	53	57
  94	12	52	53	56
  95	12	52	53	57
  96	11	56	53	57
  97	16	46	45	51
  98	14	45	51	53
  99	15	45	51	54
 100	15	45	51	55
 101	10	60	58	61
 102	10	60	58	62
 103	1	61	58	62
 104	9	58	60	59
 105	8	58	60	63
 106	8	58	60	64
 107	12	59	60	63
 108	12	59	60	64
 109	11	63	60	64
 110	16	53	52	58
 111	14	52	58	60
 112	15	52	58	61
 113	15	52	58	62
 114	10	67	65	68
 115	10	67	65	69
 116	1	68	65	69
 117	9	65	67	66
 118	8	65	67	70
 119	8	65	67	71
 120	12	66	67	70
 121	12	66	67	71
 122	11	70	67	71
 123	16	60	59	65
 124	14	59	65	67
 125	15	59	65	68
 126	15	59	65	69
 127	10	74	72	75
 128	10	74	72	76
 129	1	75	72	76
 130	9	72	74	73
 131	8	72	74	77
 132	8	72	74	78
 133	12	73	74	77
 134	12	73	74	78
 135	11	77	74	78
 136	16	67	66	72
 137	14	66	72	74
 138	15	66	72	75
 139	15	66	72	76
 140	10	81	79	82
 141	10	81	79	83
 142	1	82	79	83
 143	9	79	81	80
 144	8	79	81	84
 145	8	79	81	85
 146	12	80	81	84
 147	12	80	81	85
 148	11	84	81	85
 149	16	74	73	79
 150	14	73	79	81
 151	15	73	79	82
 152	15	73	79	83
 153	10	88	86	89
 154	10	88	86	90
 155	1	89	86	90
 156	9	86	88	87
 157	8	86	88	91
 158	8	86	88	92
 159	12	87	88	91
 160	12	87	88	92
 161	11	91	88	92
 162	16	81	80	86
 163	14	80	86	88
 164	15	80	86	89
 165	15	80	86	90
 166	10	95	93	96
 167	10	95	93	97
 168	1	96	93	97
 169	9	93	95	94
 170	8	93	95	98
 171	8	93	95	99
 172	12	94	95	98
 173	12	94	95	99
 174	11	98	95	99
 175	16	88	87	93
 176	14	87	93	95
 177	15	87	93	96
 178	15	87	93	97
 179	10	102	100	103
 180	10	102	100	104
 181	1	103	100	104
 182	9	100	102	101
 183	8	100	102	105
 184	8	100	102	106
 185	12	101	102	105
 186	12	101	102	106
 187	11	105	102	106
 188	16	95	94	100
 189	14	94	100	102
 190	15	94	100	103
 191	15	94	100	104
 192	19	109	107	111
 193	19	109	107	112
 194	1	111	107	112
 195	17	109	108	110
 196	18	107	109	108
 197	19	107	109	113
 198	20	108	109	113
 199	21	102	101	108
 200	17	101	108	109
 201	22	101	108	110

Dihedrals

   1	2	1	3	5	4
   2	2	1	3	5	8
   3	2	2	3	5	4
   4	2	2	3	5	8
   5	1	6	4	5	3
   6	1	6	4	5	8
   7	1	7	4	5	3
   8	1	7	4	5	8
   9	3	12	9	11	10
  10	3	12	9	11	14
  11	3	12	9	11	15
  12	3	13	9	11	10
  13	3	13	9	11	14
  14	3	13	9	11	15
  15	3	1	9	11	10
  16	3	1	9	11	14
  17	3	1	9	11	15
  18	3	19	16	18	17
  19	3	19	16	18	21
  20	3	19	16	18	22
  21	3	20	16	18	17
  22	3	20	16	18	21
  23	3	20	16	18	22
  24	3	10	16	18	17
  25	3	10	16	18	21
  26	3	10	16	18	22
  27	3	26	23	25	24
  28	3	26	23	25	28
  29	3	26	23	25	29
  30	3	27	23	25	24
  31	3	27	23	25	28
  32	3	27	23	25	29
  33	3	17	23	25	24
  34	3	17	23	25	28
  35	3	17	23	25	29
  36	3	33	30	32	31
  37	3	33	30	32	35
  38	3	33	30	32	36
  39	3	34	30	32	31
  40	3	34	30	32	35
  41	3	34	30	32	36
  42	3	24	30	32	31
  43	3	24	30	32	35
  44	3	24	30	32	36
  45	3	40	37	39	38
  46	3	40	37	39	42
  47	3	40	37	39	43
  48	3	41	37	39	38
  49	3	41	37	39	42
  50	3	41	37	39	43
  51	3	31	37	39	38
  52	3	31	37	39	42
  53	3	31	37	39	43
  54	3	47	44	46	45
  55	3	47	44	46	49
  56	3	47	44	46	50
  57	3	48	44	46	45
  58	3	48	44	46	49
  59	3	48	44	46	50
  60	3	38	44	46	45
  61	3	38	44	46	49
  62	3	38	44	46	50
  63	3	54	51	53	52
  64	3	54	51	53	56
  65	3	54	51	53	57
  66	3	55	51	53	52
  67	3	55	51	53	56
  68	3	55	51	53	57
  69	3	45	51	53	52
  70	3	45	51	53	56
  71	3	45	51	53	57
  72	3	61	58	60	59
  73	3	61	58	60	63
  74	3	61	58	60	64
  75	3	62	58	60	59
  76	3	62	58	60	63
  77	3	62	58	60	64
  78	3	52	58	60	59
  79	3	52	58	60	63
  80	3	52	58	60	64
  81	3	68	65	67	66
  82	3	68	65	67	70
  83	3	68	65	67	71
  84	3	69	65	67	66
  85	3	69	65	67	70
  86	3	69	65	67	71
  87	3	59	65	67	66
  88	3	59	65	67	70
  89	3	59	65	67	71
  90	3	75	72	74	73
  91	3	75	72	74	77
  92	3	75	72	74	78
  93	3	76	72	74	73
  94	3	76	72	74	77
  95	3	76	72	74	78
  96	3	66	72	74	73
  97	3	66	72	74	77
  98	3	66	72	74	78
  99	3	82	79	81	80
 100	3	82	79	81	84
 101	3	82	79	81	85
 102	3	83	79	81	80
 103	3	83	79	81	84
 104	3	83	79	81	85
 105	3	73	79	81	80
 106	3	73	79	81	84
 107	3	73	79	81	85
 108	3	89	86	88	87
 109	3	89	86	88	91
 110	3	89	86	88	92
 111	3	90	86	88	87
 112	3	90	86	88	91
 113	3	90	86	88	92
 114	3	80	86	88	87
 115	3	80	86	88	91
 116	3	80	86	88	92
 117	3	96	93	95	94
 118	3	96	93	95	98
 119	3	96	93	95	99
 120	3	97	93	95	94
 121	3	97	93	95	98
 122	3	97	93	95	99
 123	3	87	93	95	94
 124	3	87	93	95	98
 125	3	87	93	95	99
 126	3	103	100	102	101
 127	3	103	100	102	105
 128	3	103	100	102	106
 129	3	104	100	102	101
 130	3	104	100	102	105
 131	3	104	100	102	106
 132	3	94	100	102	101
 133	3	94	100	102	105
 134	3	94	100	102	106
 135	4	111	107	109	108
 136	4	111	107	109	113
 137	4	112	107	109	108
 138	4	112	107	109	113
 139	5	110	108	109	107
 140	5	110	108	109	113
 141	5	101	108	109	107
 142	5	101	108	109	113

Impropers

   1	1	3	1	2	5

