

################################################################################
##################################    Init    ##################################
################################################################################
units           real
atom_style      full
pair_style      lj/cut/coul/long 12.0  12.0
kspace_style    pppm 1e-4
bond_style      harmonic
angle_style     harmonic
dihedral_style  fourier
improper_style  cvff
special_bonds   amber
pair_modify     mix arithmetic
read_data       temp.lmps
  orthogonal box = (-32.4894 -32.4894 -32.4894) to (32.4894 32.4894 32.4894)
  2 by 2 by 4 MPI processor grid
  reading atoms ...
  43 atoms
  reading velocities ...
  43 velocities
  scanning bonds ...
  3 = max bonds/atom
  scanning angles ...
  10 = max angles/atom
  scanning dihedrals ...
  12 = max dihedrals/atom
  scanning impropers ...
  1 = max impropers/atom
  reading bonds ...
  41 bonds
  reading angles ...
  61 angles
  reading dihedrals ...
  50 dihedrals
  reading impropers ...
  1 impropers
  5 = max # of 1-2 neighbors
  7 = max # of 1-3 neighbors
  14 = max # of 1-4 neighbors
  16 = max # of special neighbors
  special bonds CPU = 0.000734091 secs
  read_data CPU = 0.00878406 secs
################################################################################

min_style cg
minimize 1e-05 1e-05 10000 100000
WARNING: Using 'neigh_modify every 1 delay 0 check yes' setting during minimization (../min.cpp:190)
PPPM initialization ...
  using 12-bit tables for long-range coulomb (../kspace.cpp:332)
  G vector (1/distance) = 0.12223
  grid = 8 8 8
  stencil order = 5
  estimated absolute RMS force accuracy = 0.02318
  estimated relative force accuracy = 6.98057e-05
  using double precision KISS FFT
  3d grid and FFT values/proc = 567 32
Neighbor list info ...
  update every 1 steps, delay 0 steps, check yes
  max neighbors/atom: 2000, page size: 100000
  master list distance cutoff = 14
  ghost atom cutoff = 14
  binsize = 7, bins = 10 10 10
  1 neighbor lists, perpetual/occasional/extra = 1 0 0
  (1) pair lj/cut/coul/long, perpetual
      attributes: half, newton on
      pair build: half/bin/newton
      stencil: half/bin/3d/newton
      bin: standard
Per MPI rank memory allocation (min/avg/max) = 15.28 | 15.42 | 16.05 Mbytes
Step Temp E_pair E_mol TotEng Press 
       0    472.30434    28.069443     92.22368     179.4228    6.2955152 
     131    472.30434    26.314673    90.184922    175.62928    9.4154228 
Loop time of 0.0580266 on 16 procs for 131 steps with 43 atoms

93.0% CPU use with 16 MPI tasks x no OpenMP threads

Minimization stats:
  Stopping criterion = energy tolerance
  Energy initial, next-to-last, final = 
         120.293122483      116.500672446      116.499595414
  Force two-norm initial, final = 14.526 1.58297
  Force max component initial, final = 3.63397 0.597025
  Final line search alpha, max atom move = 0.193289 0.115398
  Iterations, force evaluations = 131 262

MPI task timing breakdown:
Section |  min time  |  avg time  |  max time  |%varavg| %total
---------------------------------------------------------------
Pair    | 5.6982e-05 | 0.0011797  | 0.0083077  |   6.7 |  2.03
Bond    | 0.00019217 | 0.00059699 | 0.0025051  |   0.0 |  1.03
Kspace  | 0.033786   | 0.042623   | 0.044658   |   1.4 | 73.45
Neigh   | 5.6982e-05 | 6.0081e-05 | 6.4135e-05 |   0.0 |  0.10
Comm    | 0.0006268  | 0.0025129  | 0.0043936  |   2.2 |  4.33
Output  | 0          | 0          | 0          |   0.0 |  0.00
Modify  | 0          | 0          | 0          |   0.0 |  0.00
Other   |            | 0.01105    |            |       | 19.05

Nlocal:    2.6875 ave 16 max 0 min
Histogram: 12 0 0 1 0 1 0 0 1 1
Nghost:    29.1875 ave 43 max 7 min
Histogram: 4 0 0 0 0 2 0 5 1 4
Neighs:    38.9375 ave 314 max 0 min
Histogram: 13 0 0 1 0 1 0 0 0 1

Total # of neighbors = 623
Ave neighs/atom = 14.4884
Ave special neighs/atom = 8.60465
Neighbor list builds = 1
Dangerous builds = 0
timestep        1
fix             pysimm_md all nvt temp 300 300 100
run             5000
PPPM initialization ...
  using 12-bit tables for long-range coulomb (../kspace.cpp:332)
  G vector (1/distance) = 0.12223
  grid = 8 8 8
  stencil order = 5
  estimated absolute RMS force accuracy = 0.02318
  estimated relative force accuracy = 6.98057e-05
  using double precision KISS FFT
  3d grid and FFT values/proc = 567 32
Per MPI rank memory allocation (min/avg/max) = 14.15 | 14.29 | 14.93 Mbytes
Step Temp E_pair E_mol TotEng Press 
     131    472.30434    26.314673    90.184922    175.62928    9.4154228 
    5131     260.6922    22.547634      112.962    168.14674   -13.350908 
Loop time of 0.929092 on 16 procs for 5000 steps with 43 atoms

Performance: 464.970 ns/day, 0.052 hours/ns, 5381.601 timesteps/s
93.5% CPU use with 16 MPI tasks x no OpenMP threads

MPI task timing breakdown:
Section |  min time  |  avg time  |  max time  |%varavg| %total
---------------------------------------------------------------
Pair    | 0.0012238  | 0.012379   | 0.11341    |  24.7 |  1.33
Bond    | 0.0020046  | 0.0080153  | 0.047704   |  13.2 |  0.86
Kspace  | 0.5964     | 0.67122    | 0.68908    |   2.5 | 72.24
Neigh   | 0.0070655  | 0.00747    | 0.0079117  |   0.3 |  0.80
Comm    | 0.016016   | 0.060454   | 0.13063    |  13.7 |  6.51
Output  | 4.6015e-05 | 5.3346e-05 | 0.00014997 |   0.0 |  0.01
Modify  | 0.040504   | 0.11558    | 0.1531     |  11.6 | 12.44
Other   |            | 0.05393    |            |       |  5.80

Nlocal:    2.6875 ave 33 max 0 min
Histogram: 14 0 1 0 0 0 0 0 0 1
Nghost:    25.8125 ave 43 max 0 min
Histogram: 2 3 0 0 0 0 4 0 3 4
Neighs:    38.9375 ave 551 max 0 min
Histogram: 15 0 0 0 0 0 0 0 0 1

Total # of neighbors = 623
Ave neighs/atom = 14.4884
Ave special neighs/atom = 8.60465
Neighbor list builds = 98
Dangerous builds = 0
unfix pysimm_md
write_dump all custom pysimm.dump.tmp id q x y z vx vy vz
quit


################################################################################
##################################    Init    ##################################
################################################################################
units           real
atom_style      full
pair_style      lj/cut/coul/long 12.0  12.0
kspace_style    pppm 1e-4
bond_style      harmonic
angle_style     harmonic
dihedral_style  fourier
improper_style  cvff
special_bonds   amber
pair_modify     mix arithmetic
read_data       temp.lmps
  orthogonal box = (-32.4894 -32.4894 -32.4894) to (32.4894 32.4894 32.4894)
  2 by 2 by 4 MPI processor grid
  reading atoms ...
  43 atoms
  reading velocities ...
  43 velocities
  scanning bonds ...
  3 = max bonds/atom
  scanning angles ...
  10 = max angles/atom
  scanning dihedrals ...
  12 = max dihedrals/atom
  scanning impropers ...
  1 = max impropers/atom
  reading bonds ...
  41 bonds
  reading angles ...
  61 angles
  reading dihedrals ...
  50 dihedrals
  reading impropers ...
  1 impropers
  5 = max # of 1-2 neighbors
  7 = max # of 1-3 neighbors
  14 = max # of 1-4 neighbors
  16 = max # of special neighbors
  special bonds CPU = 0.000730038 secs
  read_data CPU = 0.00963902 secs
################################################################################

min_style cg
minimize 1e-05 1e-05 10000 100000
WARNING: Using 'neigh_modify every 1 delay 0 check yes' setting during minimization (../min.cpp:190)
PPPM initialization ...
  using 12-bit tables for long-range coulomb (../kspace.cpp:332)
  G vector (1/distance) = 0.12223
  grid = 8 8 8
  stencil order = 5
  estimated absolute RMS force accuracy = 0.02318
  estimated relative force accuracy = 6.98057e-05
  using double precision KISS FFT
  3d grid and FFT values/proc = 567 32
Neighbor list info ...
  update every 1 steps, delay 0 steps, check yes
  max neighbors/atom: 2000, page size: 100000
  master list distance cutoff = 14
  ghost atom cutoff = 14
  binsize = 7, bins = 10 10 10
  1 neighbor lists, perpetual/occasional/extra = 1 0 0
  (1) pair lj/cut/coul/long, perpetual
      attributes: half, newton on
      pair build: half/bin/newton
      stencil: half/bin/3d/newton
      bin: standard
Per MPI rank memory allocation (min/avg/max) = 15.28 | 15.48 | 15.86 Mbytes
Step Temp E_pair E_mol TotEng Press 
       0    497.09046    27.959704    92.505743     182.6982    6.0720394 
     134    497.09046    22.290007    89.500453    174.02321    11.040809 
Loop time of 0.0657369 on 16 procs for 134 steps with 43 atoms

93.3% CPU use with 16 MPI tasks x no OpenMP threads

Minimization stats:
  Stopping criterion = linesearch alpha is zero
  Energy initial, next-to-last, final = 
         120.465446873      111.790459282      111.790459282
  Force two-norm initial, final = 16.6357 7.51392
  Force max component initial, final = 4.64527 2.55595
  Final line search alpha, max atom move = 1.35649e-10 3.46712e-10
  Iterations, force evaluations = 134 321

MPI task timing breakdown:
Section |  min time  |  avg time  |  max time  |%varavg| %total
---------------------------------------------------------------
Pair    | 0.00010657 | 0.0020306  | 0.0082021  |   5.6 |  3.09
Bond    | 0.00025558 | 0.00079346 | 0.0027936  |   0.0 |  1.21
Kspace  | 0.037982   | 0.046266   | 0.049082   |   1.5 | 70.38
Neigh   | 0.00015879 | 0.00017452 | 0.00018716 |   0.0 |  0.27
Comm    | 0.0018842  | 0.0041906  | 0.0061288  |   2.1 |  6.37
Output  | 0          | 0          | 0          |   0.0 |  0.00
Modify  | 0          | 0          | 0          |   0.0 |  0.00
Other   |            | 0.01228    |            |       | 18.68

Nlocal:    2.6875 ave 12 max 0 min
Histogram: 8 1 2 1 1 2 0 0 0 1
Nghost:    23.0625 ave 41 max 8 min
Histogram: 8 0 0 0 0 0 1 0 2 5
Neighs:    56.4375 ave 225 max 0 min
Histogram: 8 1 0 2 3 0 0 0 0 2

Total # of neighbors = 903
Ave neighs/atom = 21
Ave special neighs/atom = 8.60465
Neighbor list builds = 2
Dangerous builds = 0
timestep        1
fix             pysimm_md all nvt temp 300 300 100
run             5000
PPPM initialization ...
  using 12-bit tables for long-range coulomb (../kspace.cpp:332)
  G vector (1/distance) = 0.12223
  grid = 8 8 8
  stencil order = 5
  estimated absolute RMS force accuracy = 0.02318
  estimated relative force accuracy = 6.98057e-05
  using double precision KISS FFT
  3d grid and FFT values/proc = 567 32
Per MPI rank memory allocation (min/avg/max) = 14.15 | 14.35 | 14.74 Mbytes
Step Temp E_pair E_mol TotEng Press 
     134    497.09046    22.290007    89.500453    174.02321    11.040809 
    5134    347.99521    22.269825    114.60864    180.44538    5.4930441 
Loop time of 1.09677 on 16 procs for 5000 steps with 43 atoms

Performance: 393.885 ns/day, 0.061 hours/ns, 4558.854 timesteps/s
92.3% CPU use with 16 MPI tasks x no OpenMP threads

MPI task timing breakdown:
Section |  min time  |  avg time  |  max time  |%varavg| %total
---------------------------------------------------------------
Pair    | 0.0013239  | 0.015051   | 0.12472    |  24.3 |  1.37
Bond    | 0.0024681  | 0.008488   | 0.060604   |  15.1 |  0.77
Kspace  | 0.69733    | 0.77688    | 0.80281    |   2.7 | 70.83
Neigh   | 0.010174   | 0.010585   | 0.011014   |   0.3 |  0.97
Comm    | 0.030255   | 0.075487   | 0.15498    |  13.3 |  6.88
Output  | 4.6015e-05 | 5.1677e-05 | 0.00012708 |   0.0 |  0.00
Modify  | 0.057966   | 0.14541    | 0.18277    |  11.8 | 13.26
Other   |            | 0.06482    |            |       |  5.91

Nlocal:    2.6875 ave 35 max 0 min
Histogram: 14 0 1 0 0 0 0 0 0 1
Nghost:    25.0625 ave 43 max 8 min
Histogram: 5 0 0 0 3 0 3 2 0 3
Neighs:    38.9375 ave 595 max 0 min
Histogram: 15 0 0 0 0 0 0 0 0 1

Total # of neighbors = 623
Ave neighs/atom = 14.4884
Ave special neighs/atom = 8.60465
Neighbor list builds = 115
Dangerous builds = 0
unfix pysimm_md
write_dump all custom pysimm.dump.tmp id q x y z vx vy vz
quit


################################################################################
##################################    Init    ##################################
################################################################################
units           real
atom_style      full
pair_style      lj/cut/coul/long 12.0  12.0
kspace_style    pppm 1e-4
bond_style      harmonic
angle_style     harmonic
dihedral_style  fourier
improper_style  cvff
special_bonds   amber
pair_modify     mix arithmetic
read_data       temp.lmps
  orthogonal box = (-35.3732 -35.3732 -35.3732) to (35.3732 35.3732 35.3732)
  2 by 2 by 4 MPI processor grid
  reading atoms ...
  43 atoms
  reading velocities ...
  43 velocities
  scanning bonds ...
  3 = max bonds/atom
  scanning angles ...
  10 = max angles/atom
  scanning dihedrals ...
  12 = max dihedrals/atom
  scanning impropers ...
  1 = max impropers/atom
  reading bonds ...
  42 bonds
  reading angles ...
  63 angles
  reading dihedrals ...
  52 dihedrals
  reading impropers ...
  1 impropers
  5 = max # of 1-2 neighbors
  7 = max # of 1-3 neighbors
  14 = max # of 1-4 neighbors
  16 = max # of special neighbors
  special bonds CPU = 0.000617027 secs
  read_data CPU = 0.0154061 secs
################################################################################

min_style cg
minimize 1e-05 1e-05 10000 100000
WARNING: Using 'neigh_modify every 1 delay 0 check yes' setting during minimization (../min.cpp:190)
PPPM initialization ...
  using 12-bit tables for long-range coulomb (../kspace.cpp:332)
  G vector (1/distance) = 0.115696
  grid = 8 8 8
  stencil order = 5
  estimated absolute RMS force accuracy = 0.0255269
  estimated relative force accuracy = 7.68735e-05
  using double precision KISS FFT
  3d grid and FFT values/proc = 567 32
Neighbor list info ...
  update every 1 steps, delay 0 steps, check yes
  max neighbors/atom: 2000, page size: 100000
  master list distance cutoff = 14
  ghost atom cutoff = 14
  binsize = 7, bins = 11 11 11
  1 neighbor lists, perpetual/occasional/extra = 1 0 0
  (1) pair lj/cut/coul/long, perpetual
      attributes: half, newton on
      pair build: half/bin/newton
      stencil: half/bin/3d/newton
      bin: standard
Per MPI rank memory allocation (min/avg/max) = 15.28 | 15.46 | 16.05 Mbytes
Step Temp E_pair E_mol TotEng Press 
       0    923.65107    20.568974    315.13963     451.3442    19.621246 
     213    923.65107    9.7373885    314.15365    439.52663    14.496229 
Loop time of 0.455715 on 16 procs for 213 steps with 43 atoms

82.1% CPU use with 16 MPI tasks x no OpenMP threads

Minimization stats:
  Stopping criterion = linesearch alpha is zero
  Energy initial, next-to-last, final = 
         335.708608366      323.891037292      323.891037292
  Force two-norm initial, final = 24.695 3.97086
  Force max component initial, final = 8.56812 1.3975
  Final line search alpha, max atom move = 4.70085e-10 6.56942e-10
  Iterations, force evaluations = 213 475

MPI task timing breakdown:
Section |  min time  |  avg time  |  max time  |%varavg| %total
---------------------------------------------------------------
Pair    | 8.3447e-05 | 0.0028804  | 0.021225   |   9.7 |  0.63
Bond    | 0.00028586 | 0.0011013  | 0.0040531  |   3.3 |  0.24
Kspace  | 0.23491    | 0.27479    | 0.29416    |   3.1 | 60.30
Neigh   | 0.00025892 | 0.00027604 | 0.00029016 |   0.0 |  0.06
Comm    | 0.0003264  | 0.037259   | 0.10415    |  19.0 |  8.18
Output  | 0          | 0          | 0          |   0.0 |  0.00
Modify  | 0          | 0          | 0          |   0.0 |  0.00
Other   |            | 0.1394     |            |       | 30.59

Nlocal:    2.6875 ave 15 max 0 min
Histogram: 10 3 0 0 1 0 0 0 0 2
Nghost:    19.5625 ave 42 max 0 min
Histogram: 8 0 0 0 0 0 2 0 1 5
Neighs:    56.4375 ave 497 max 0 min
Histogram: 11 2 2 0 0 0 0 0 0 1

Total # of neighbors = 903
Ave neighs/atom = 21
Ave special neighs/atom = 9.11628
Neighbor list builds = 2
Dangerous builds = 0
timestep        1
fix             pysimm_md all nvt temp 300 300 100
run             5000
PPPM initialization ...
  using 12-bit tables for long-range coulomb (../kspace.cpp:332)
  G vector (1/distance) = 0.115696
  grid = 8 8 8
  stencil order = 5
  estimated absolute RMS force accuracy = 0.0255269
  estimated relative force accuracy = 7.68735e-05
  using double precision KISS FFT
  3d grid and FFT values/proc = 567 32
Per MPI rank memory allocation (min/avg/max) = 14.15 | 14.36 | 14.93 Mbytes
Step Temp E_pair E_mol TotEng Press 
     213    923.65107    9.7373885    314.15365    439.52663    14.496229 
    5213    243.94184    8.1441563    334.22323    372.90745     10.71684 
Loop time of 1.36 on 16 procs for 5000 steps with 43 atoms

Performance: 317.647 ns/day, 0.076 hours/ns, 3676.470 timesteps/s
89.0% CPU use with 16 MPI tasks x no OpenMP threads

MPI task timing breakdown:
Section |  min time  |  avg time  |  max time  |%varavg| %total
---------------------------------------------------------------
Pair    | 0.0012858  | 0.017107   | 0.10483    |  22.5 |  1.26
Bond    | 0.0025003  | 0.0087769  | 0.048107   |  12.1 |  0.65
Kspace  | 0.80079    | 0.88853    | 0.97457    |   4.4 | 65.33
Neigh   | 0.014076   | 0.01465    | 0.015718   |   0.4 |  1.08
Comm    | 0.0071347  | 0.10599    | 0.20794    |  20.6 |  7.79
Output  | 4.8876e-05 | 5.5045e-05 | 0.000139   |   0.0 |  0.00
Modify  | 0.10391    | 0.20046    | 0.2647     |  12.3 | 14.74
Other   |            | 0.1244     |            |       |  9.15

Nlocal:    2.6875 ave 23 max 0 min
Histogram: 13 0 0 0 2 0 0 0 0 1
Nghost:    29.0625 ave 43 max 0 min
Histogram: 4 0 0 0 1 0 0 2 0 9
Neighs:    56.4375 ave 505 max 0 min
Histogram: 13 0 0 1 1 0 0 0 0 1

Total # of neighbors = 903
Ave neighs/atom = 21
Ave special neighs/atom = 9.11628
Neighbor list builds = 110
Dangerous builds = 0
unfix pysimm_md
write_dump all custom pysimm.dump.tmp id q x y z vx vy vz
quit


################################################################################
##################################    Init    ##################################
################################################################################
units           real
atom_style      full
pair_style      lj/cut/coul/long 12.0  12.0
kspace_style    pppm 1e-4
bond_style      harmonic
angle_style     harmonic
dihedral_style  fourier
improper_style  cvff
special_bonds   amber
pair_modify     mix arithmetic
read_data       temp.lmps
  orthogonal box = (-41.827 -41.827 -41.827) to (41.827 41.827 41.827)
  2 by 2 by 4 MPI processor grid
  reading atoms ...
  36 atoms
  reading velocities ...
  36 velocities
  scanning bonds ...
  3 = max bonds/atom
  scanning angles ...
  6 = max angles/atom
  scanning dihedrals ...
  9 = max dihedrals/atom
  scanning impropers ...
  1 = max impropers/atom
  reading bonds ...
  34 bonds
  reading angles ...
  50 angles
  reading dihedrals ...
  41 dihedrals
  reading impropers ...
  1 impropers
  4 = max # of 1-2 neighbors
  6 = max # of 1-3 neighbors
  12 = max # of 1-4 neighbors
  14 = max # of special neighbors
  special bonds CPU = 0.012969 secs
  read_data CPU = 0.0386059 secs
################################################################################

min_style cg
minimize 1e-05 1e-05 10000 100000
WARNING: Using 'neigh_modify every 1 delay 0 check yes' setting during minimization (../min.cpp:190)
PPPM initialization ...
  using 12-bit tables for long-range coulomb (../kspace.cpp:332)
  G vector (1/distance) = 0.103221
  grid = 8 8 8
  stencil order = 5
  estimated absolute RMS force accuracy = 0.0250687
  estimated relative force accuracy = 7.54936e-05
  using double precision KISS FFT
  3d grid and FFT values/proc = 567 32
Neighbor list info ...
  update every 1 steps, delay 0 steps, check yes
  max neighbors/atom: 2000, page size: 100000
  master list distance cutoff = 14
  ghost atom cutoff = 14
  binsize = 7, bins = 12 12 12
  1 neighbor lists, perpetual/occasional/extra = 1 0 0
  (1) pair lj/cut/coul/long, perpetual
      attributes: half, newton on
      pair build: half/bin/newton
      stencil: half/bin/3d/newton
      bin: standard
Per MPI rank memory allocation (min/avg/max) = 13.21 | 13.41 | 13.99 Mbytes
Step Temp E_pair E_mol TotEng Press 
       0    233.02742    12.759377    23.925057    60.995801   0.79428867 
       2    233.02742    12.756341    23.753831    60.821539   0.72299842 
Loop time of 0.103829 on 16 procs for 2 steps with 36 atoms

78.9% CPU use with 16 MPI tasks x no OpenMP threads

Minimization stats:
  Stopping criterion = linesearch alpha is zero
  Energy initial, next-to-last, final = 
          36.684434195       36.510172372       36.510172372
  Force two-norm initial, final = 24.497 18.193
  Force max component initial, final = 9.85013 9.0288
  Final line search alpha, max atom move = 2.40923e-11 2.17525e-10
  Iterations, force evaluations = 2 60

MPI task timing breakdown:
Section |  min time  |  avg time  |  max time  |%varavg| %total
---------------------------------------------------------------
Pair    | 8.8215e-06 | 0.00026956 | 0.0014634  |   0.0 |  0.26
Bond    | 3.8147e-05 | 0.0001263  | 0.00039363 |   0.0 |  0.12
Kspace  | 0.08766    | 0.091173   | 0.1021     |   1.5 | 87.81
Neigh   | 0          | 0          | 0          |   0.0 |  0.00
Comm    | 3.0518e-05 | 0.0023053  | 0.013055   |   8.9 |  2.22
Output  | 0          | 0          | 0          |   0.0 |  0.00
Modify  | 0          | 0          | 0          |   0.0 |  0.00
Other   |            | 0.009954   |            |       |  9.59

Nlocal:    2.25 ave 10 max 0 min
Histogram: 9 2 1 0 0 1 0 0 1 2
Nghost:    15.75 ave 36 max 0 min
Histogram: 8 0 0 0 0 0 0 3 1 4
Neighs:    39.375 ave 245 max 0 min
Histogram: 11 2 1 0 0 0 0 0 0 2

Total # of neighbors = 630
Ave neighs/atom = 17.5
Ave special neighs/atom = 8.33333
Neighbor list builds = 0
Dangerous builds = 0
timestep        1
fix             pysimm_md all nvt temp 300 300 100
run             5000
PPPM initialization ...
  using 12-bit tables for long-range coulomb (../kspace.cpp:332)
  G vector (1/distance) = 0.103221
  grid = 8 8 8
  stencil order = 5
  estimated absolute RMS force accuracy = 0.0250687
  estimated relative force accuracy = 7.54936e-05
  using double precision KISS FFT
  3d grid and FFT values/proc = 567 32
Per MPI rank memory allocation (min/avg/max) = 12.09 | 12.28 | 12.87 Mbytes
Step Temp E_pair E_mol TotEng Press 
       2    233.02742    12.756341    23.753831    60.821539   0.72299842 
    5002    263.80886    12.781573    42.664355    82.968672    1.6022481 
Loop time of 1.17314 on 16 procs for 5000 steps with 36 atoms

Performance: 368.241 ns/day, 0.065 hours/ns, 4262.053 timesteps/s
89.9% CPU use with 16 MPI tasks x no OpenMP threads

MPI task timing breakdown:
Section |  min time  |  avg time  |  max time  |%varavg| %total
---------------------------------------------------------------
Pair    | 0.0011463  | 0.013217   | 0.087433   |  20.6 |  1.13
Bond    | 0.0022819  | 0.0078427  | 0.045844   |  12.1 |  0.67
Kspace  | 0.72064    | 0.78003    | 0.88316    |   5.8 | 66.49
Neigh   | 0.0073588  | 0.018939   | 0.026194   |   5.7 |  1.61
Comm    | 0.0051067  | 0.067523   | 0.19968    |  24.9 |  5.76
Output  | 4.5061e-05 | 5.3301e-05 | 0.00015783 |   0.0 |  0.00
Modify  | 0.08028    | 0.16962    | 0.22321    |  11.0 | 14.46
Other   |            | 0.1159     |            |       |  9.88

Nlocal:    2.25 ave 26 max 0 min
Histogram: 14 0 0 1 0 0 0 0 0 1
Nghost:    17 ave 36 max 0 min
Histogram: 4 4 1 0 0 0 0 1 0 6
Neighs:    39.375 ave 325 max 0 min
Histogram: 14 0 0 0 0 0 0 0 0 2

Total # of neighbors = 630
Ave neighs/atom = 17.5
Ave special neighs/atom = 8.33333
Neighbor list builds = 99
Dangerous builds = 0
unfix pysimm_md
write_dump all custom pysimm.dump.tmp id q x y z vx vy vz
quit


################################################################################
##################################    Init    ##################################
################################################################################
units           real
atom_style      full
pair_style      lj/cut/coul/long 12.0  12.0
kspace_style    pppm 1e-4
bond_style      harmonic
angle_style     harmonic
dihedral_style  fourier
improper_style  cvff
special_bonds   amber
pair_modify     mix arithmetic
read_data       temp.lmps
  orthogonal box = (-30.9013 -30.9013 -30.9013) to (30.9013 30.9013 30.9013)
  2 by 2 by 4 MPI processor grid
  reading atoms ...
  36 atoms
  reading velocities ...
  36 velocities
  scanning bonds ...
  3 = max bonds/atom
  scanning angles ...
  10 = max angles/atom
  scanning dihedrals ...
  12 = max dihedrals/atom
  scanning impropers ...
  1 = max impropers/atom
  reading bonds ...
  35 bonds
  reading angles ...
  54 angles
  reading dihedrals ...
  44 dihedrals
  reading impropers ...
  1 impropers
  5 = max # of 1-2 neighbors
  7 = max # of 1-3 neighbors
  14 = max # of 1-4 neighbors
  16 = max # of special neighbors
  special bonds CPU = 0.000779867 secs
  read_data CPU = 0.00883102 secs
################################################################################

min_style cg
minimize 1e-05 1e-05 10000 100000
WARNING: Using 'neigh_modify every 1 delay 0 check yes' setting during minimization (../min.cpp:190)
PPPM initialization ...
  using 12-bit tables for long-range coulomb (../kspace.cpp:332)
  G vector (1/distance) = 0.126135
  grid = 8 8 8
  stencil order = 5
  estimated absolute RMS force accuracy = 0.0185214
  estimated relative force accuracy = 5.57767e-05
  using double precision KISS FFT
  3d grid and FFT values/proc = 567 32
Neighbor list info ...
  update every 1 steps, delay 0 steps, check yes
  max neighbors/atom: 2000, page size: 100000
  master list distance cutoff = 14
  ghost atom cutoff = 14
  binsize = 7, bins = 9 9 9
  1 neighbor lists, perpetual/occasional/extra = 1 0 0
  (1) pair lj/cut/coul/long, perpetual
      attributes: half, newton on
      pair build: half/bin/newton
      stencil: half/bin/3d/newton
      bin: standard
Per MPI rank memory allocation (min/avg/max) = 15.28 | 15.43 | 16.05 Mbytes
Step Temp E_pair E_mol TotEng Press 
       0    1050.5306    15.913206     104.6663    230.17963    20.139974 
     273    1050.5306    12.631828     103.0838    225.31576     20.89621 
Loop time of 0.1043 on 16 procs for 273 steps with 36 atoms

94.3% CPU use with 16 MPI tasks x no OpenMP threads

Minimization stats:
  Stopping criterion = energy tolerance
  Energy initial, next-to-last, final = 
         120.579502109      115.716587501      115.715631694
  Force two-norm initial, final = 14.2415 1.45326
  Force max component initial, final = 6.42673 0.631913
  Final line search alpha, max atom move = 0.0506734 0.0320212
  Iterations, force evaluations = 273 546

MPI task timing breakdown:
Section |  min time  |  avg time  |  max time  |%varavg| %total
---------------------------------------------------------------
Pair    | 0.00015044 | 0.0025195  | 0.0087767  |   6.5 |  2.42
Bond    | 0.0004456  | 0.0012443  | 0.0039434  |   3.0 |  1.19
Kspace  | 0.062394   | 0.070989   | 0.074365   |   1.5 | 68.06
Neigh   | 0.000283   | 0.00029007 | 0.00029731 |   0.0 |  0.28
Comm    | 0.0034406  | 0.0073108  | 0.010478   |   2.6 |  7.01
Output  | 0          | 0          | 0          |   0.0 |  0.00
Modify  | 0          | 0          | 0          |   0.0 |  0.00
Other   |            | 0.02195    |            |       | 21.04

Nlocal:    2.25 ave 10 max 0 min
Histogram: 9 0 0 2 3 0 0 0 1 1
Nghost:    21 ave 36 max 9 min
Histogram: 4 4 0 0 0 0 1 1 5 1
Neighs:    39.375 ave 164 max 0 min
Histogram: 11 0 0 0 1 0 0 2 1 1

Total # of neighbors = 630
Ave neighs/atom = 17.5
Ave special neighs/atom = 9.22222
Neighbor list builds = 2
Dangerous builds = 0
timestep        1
fix             pysimm_md all nvt temp 300 300 100
run             5000
PPPM initialization ...
  using 12-bit tables for long-range coulomb (../kspace.cpp:332)
  G vector (1/distance) = 0.126135
  grid = 8 8 8
  stencil order = 5
  estimated absolute RMS force accuracy = 0.0185214
  estimated relative force accuracy = 5.57767e-05
  using double precision KISS FFT
  3d grid and FFT values/proc = 567 32
Per MPI rank memory allocation (min/avg/max) = 14.15 | 14.35 | 14.93 Mbytes
Step Temp E_pair E_mol TotEng Press 
     273    1050.5306    12.631828     103.0838    225.31576     20.89621 
    5273    297.92355     11.21681    121.81668    164.11536   -8.6159667 
Loop time of 0.813588 on 16 procs for 5000 steps with 36 atoms

Performance: 530.981 ns/day, 0.045 hours/ns, 6145.614 timesteps/s
93.7% CPU use with 16 MPI tasks x no OpenMP threads

MPI task timing breakdown:
Section |  min time  |  avg time  |  max time  |%varavg| %total
---------------------------------------------------------------
Pair    | 0.0011616  | 0.012116   | 0.088513   |  21.4 |  1.49
Bond    | 0.0020554  | 0.0077076  | 0.041594   |  12.3 |  0.95
Kspace  | 0.52275    | 0.58414    | 0.60933    |   2.6 | 71.80
Neigh   | 0.0057526  | 0.0059274  | 0.0061131  |   0.2 |  0.73
Comm    | 0.026016   | 0.054676   | 0.097307   |   9.9 |  6.72
Output  | 4.9829e-05 | 5.576e-05  | 0.00013304 |   0.0 |  0.01
Modify  | 0.040721   | 0.096888   | 0.12355    |   9.4 | 11.91
Other   |            | 0.05208    |            |       |  6.40

Nlocal:    2.25 ave 23 max 0 min
Histogram: 14 0 0 0 0 1 0 0 0 1
Nghost:    19.75 ave 36 max 2 min
Histogram: 4 0 0 5 0 0 1 0 0 6
Neighs:    39.375 ave 377 max 0 min
Histogram: 14 0 0 0 0 0 1 0 0 1

Total # of neighbors = 630
Ave neighs/atom = 17.5
Ave special neighs/atom = 9.22222
Neighbor list builds = 83
Dangerous builds = 0
unfix pysimm_md
write_dump all custom pysimm.dump.tmp id q x y z vx vy vz
quit


################################################################################
##################################    Init    ##################################
################################################################################
units           real
atom_style      full
pair_style      lj/cut/coul/long 12.0  12.0
kspace_style    pppm 1e-4
bond_style      harmonic
angle_style     harmonic
dihedral_style  fourier
improper_style  cvff
special_bonds   amber
pair_modify     mix arithmetic
read_data       temp.lmps
  orthogonal box = (-41.827 -41.827 -41.827) to (41.827 41.827 41.827)
  2 by 2 by 4 MPI processor grid
  reading atoms ...
  36 atoms
  reading velocities ...
  36 velocities
  scanning bonds ...
  3 = max bonds/atom
  scanning angles ...
  6 = max angles/atom
  scanning dihedrals ...
  9 = max dihedrals/atom
  scanning impropers ...
  1 = max impropers/atom
  reading bonds ...
  34 bonds
  reading angles ...
  50 angles
  reading dihedrals ...
  41 dihedrals
  reading impropers ...
  1 impropers
  4 = max # of 1-2 neighbors
  6 = max # of 1-3 neighbors
  12 = max # of 1-4 neighbors
  14 = max # of special neighbors
  special bonds CPU = 0.000781059 secs
  read_data CPU = 0.030232 secs
################################################################################

min_style cg
minimize 1e-05 1e-05 10000 100000
WARNING: Using 'neigh_modify every 1 delay 0 check yes' setting during minimization (../min.cpp:190)
PPPM initialization ...
  using 12-bit tables for long-range coulomb (../kspace.cpp:332)
  G vector (1/distance) = 0.103221
  grid = 8 8 8
  stencil order = 5
  estimated absolute RMS force accuracy = 0.0250687
  estimated relative force accuracy = 7.54936e-05
  using double precision KISS FFT
  3d grid and FFT values/proc = 567 32
Neighbor list info ...
  update every 1 steps, delay 0 steps, check yes
  max neighbors/atom: 2000, page size: 100000
  master list distance cutoff = 14
  ghost atom cutoff = 14
  binsize = 7, bins = 12 12 12
  1 neighbor lists, perpetual/occasional/extra = 1 0 0
  (1) pair lj/cut/coul/long, perpetual
      attributes: half, newton on
      pair build: half/bin/newton
      stencil: half/bin/3d/newton
      bin: standard
Per MPI rank memory allocation (min/avg/max) = 13.21 | 13.38 | 13.8 Mbytes
Step Temp E_pair E_mol TotEng Press 
       0    341.05754    12.777073    21.631886     69.99093    3.3041931 
      56    341.05754    12.188023    21.459335    69.229329    2.7266622 
Loop time of 0.094705 on 16 procs for 56 steps with 36 atoms

83.7% CPU use with 16 MPI tasks x no OpenMP threads

Minimization stats:
  Stopping criterion = linesearch alpha is zero
  Energy initial, next-to-last, final = 
         34.4089588158      33.6473571465      33.6473571465
  Force two-norm initial, final = 8.58222 2.49032
  Force max component initial, final = 3.59094 1.26362
  Final line search alpha, max atom move = 1.03452e-09 1.30724e-09
  Iterations, force evaluations = 56 161

MPI task timing breakdown:
Section |  min time  |  avg time  |  max time  |%varavg| %total
---------------------------------------------------------------
Pair    | 4.3869e-05 | 0.00069638 | 0.0040665  |   0.0 |  0.74
Bond    | 0.00011063 | 0.00033376 | 0.0011637  |   0.0 |  0.35
Kspace  | 0.04662    | 0.05349    | 0.067016   |   2.4 | 56.48
Neigh   | 0          | 0          | 0          |   0.0 |  0.00
Comm    | 9.5844e-05 | 0.0013697  | 0.0031021  |   3.4 |  1.45
Output  | 0          | 0          | 0          |   0.0 |  0.00
Modify  | 0          | 0          | 0          |   0.0 |  0.00
Other   |            | 0.03882    |            |       | 40.99

Nlocal:    2.25 ave 13 max 0 min
Histogram: 11 0 1 1 0 2 0 0 0 1
Nghost:    15.75 ave 36 max 0 min
Histogram: 8 0 0 0 0 0 1 0 3 4
Neighs:    38.4375 ave 263 max 0 min
Histogram: 11 1 1 1 0 1 0 0 0 1

Total # of neighbors = 615
Ave neighs/atom = 17.0833
Ave special neighs/atom = 8.33333
Neighbor list builds = 0
Dangerous builds = 0
timestep        1
fix             pysimm_md all nvt temp 300 300 100
run             5000
PPPM initialization ...
  using 12-bit tables for long-range coulomb (../kspace.cpp:332)
  G vector (1/distance) = 0.103221
  grid = 8 8 8
  stencil order = 5
  estimated absolute RMS force accuracy = 0.0250687
  estimated relative force accuracy = 7.54936e-05
  using double precision KISS FFT
  3d grid and FFT values/proc = 567 32
Per MPI rank memory allocation (min/avg/max) = 12.09 | 12.26 | 12.68 Mbytes
Step Temp E_pair E_mol TotEng Press 
      56    341.05754    12.188023    21.459335    69.229329    2.7266622 
    5056    309.29653    14.086305    40.720316    87.075018   -1.7379602 
Loop time of 0.984856 on 16 procs for 5000 steps with 36 atoms

Performance: 438.643 ns/day, 0.055 hours/ns, 5076.885 timesteps/s
93.3% CPU use with 16 MPI tasks x no OpenMP threads

MPI task timing breakdown:
Section |  min time  |  avg time  |  max time  |%varavg| %total
---------------------------------------------------------------
Pair    | 0.0011957  | 0.012763   | 0.11391    |  24.4 |  1.30
Bond    | 0.0020833  | 0.0074953  | 0.052999   |  14.2 |  0.76
Kspace  | 0.63483    | 0.71595    | 0.76637    |   3.8 | 72.70
Neigh   | 0.0092895  | 0.010125   | 0.010947   |   0.4 |  1.03
Comm    | 0.0064383  | 0.045623   | 0.12834    |  17.9 |  4.63
Output  | 4.6015e-05 | 5.1856e-05 | 0.00013423 |   0.0 |  0.01
Modify  | 0.045599   | 0.13873    | 0.17497    |  10.1 | 14.09
Other   |            | 0.05411    |            |       |  5.49

Nlocal:    2.25 ave 33 max 0 min
Histogram: 15 0 0 0 0 0 0 0 0 1
Nghost:    17.75 ave 36 max 0 min
Histogram: 5 0 4 0 0 0 0 0 0 7
Neighs:    39.375 ave 530 max 0 min
Histogram: 14 1 0 0 0 0 0 0 0 1

Total # of neighbors = 630
Ave neighs/atom = 17.5
Ave special neighs/atom = 8.33333
Neighbor list builds = 118
Dangerous builds = 0
unfix pysimm_md
write_dump all custom pysimm.dump.tmp id q x y z vx vy vz
quit


################################################################################
##################################    Init    ##################################
################################################################################
units           real
atom_style      full
pair_style      lj/cut/coul/long 12.0  12.0
kspace_style    pppm 1e-4
bond_style      harmonic
angle_style     harmonic
dihedral_style  fourier
improper_style  cvff
special_bonds   amber
pair_modify     mix arithmetic
read_data       temp.lmps
  orthogonal box = (-30.9013 -30.9013 -30.9013) to (30.9013 30.9013 30.9013)
  2 by 2 by 4 MPI processor grid
  reading atoms ...
  36 atoms
  reading velocities ...
  36 velocities
  scanning bonds ...
  3 = max bonds/atom
  scanning angles ...
  10 = max angles/atom
  scanning dihedrals ...
  12 = max dihedrals/atom
  scanning impropers ...
  1 = max impropers/atom
  reading bonds ...
  35 bonds
  reading angles ...
  54 angles
  reading dihedrals ...
  44 dihedrals
  reading impropers ...
  1 impropers
  5 = max # of 1-2 neighbors
  7 = max # of 1-3 neighbors
  14 = max # of 1-4 neighbors
  16 = max # of special neighbors
  special bonds CPU = 0.000829935 secs
  read_data CPU = 0.0189071 secs
################################################################################

min_style cg
minimize 1e-05 1e-05 10000 100000
WARNING: Using 'neigh_modify every 1 delay 0 check yes' setting during minimization (../min.cpp:190)
PPPM initialization ...
  using 12-bit tables for long-range coulomb (../kspace.cpp:332)
  G vector (1/distance) = 0.126135
  grid = 8 8 8
  stencil order = 5
  estimated absolute RMS force accuracy = 0.0185214
  estimated relative force accuracy = 5.57767e-05
  using double precision KISS FFT
  3d grid and FFT values/proc = 567 32
Neighbor list info ...
  update every 1 steps, delay 0 steps, check yes
  max neighbors/atom: 2000, page size: 100000
  master list distance cutoff = 14
  ghost atom cutoff = 14
  binsize = 7, bins = 9 9 9
  1 neighbor lists, perpetual/occasional/extra = 1 0 0
  (1) pair lj/cut/coul/long, perpetual
      attributes: half, newton on
      pair build: half/bin/newton
      stencil: half/bin/3d/newton
      bin: standard
Per MPI rank memory allocation (min/avg/max) = 15.28 | 15.47 | 16.05 Mbytes
Step Temp E_pair E_mol TotEng Press 
       0    1101.1952     14.84435    103.64367     233.3739    20.346365 
     219    1101.1952    10.734264     101.5936    227.21375    22.092016 
Loop time of 0.167639 on 16 procs for 219 steps with 36 atoms

87.4% CPU use with 16 MPI tasks x no OpenMP threads

Minimization stats:
  Stopping criterion = energy tolerance
  Energy initial, next-to-last, final = 
         118.488016923      112.328920684      112.327866694
  Force two-norm initial, final = 14.8045 1.49615
  Force max component initial, final = 4.79907 0.460649
  Final line search alpha, max atom move = 0.108546 0.0500015
  Iterations, force evaluations = 219 438

MPI task timing breakdown:
Section |  min time  |  avg time  |  max time  |%varavg| %total
---------------------------------------------------------------
Pair    | 0.0001018  | 0.0020235  | 0.010531   |   6.0 |  1.21
Bond    | 0.00032353 | 0.00097804 | 0.0025113  |   0.0 |  0.58
Kspace  | 0.087815   | 0.093932   | 0.099336   |   1.1 | 56.03
Neigh   | 0.00011992 | 0.00012404 | 0.00013113 |   0.0 |  0.07
Comm    | 0.0025642  | 0.016959   | 0.034582   |   7.3 | 10.12
Output  | 0          | 0          | 0          |   0.0 |  0.00
Modify  | 0          | 0          | 0          |   0.0 |  0.00
Other   |            | 0.05362    |            |       | 31.99

Nlocal:    2.25 ave 8 max 0 min
Histogram: 8 1 0 3 0 0 1 1 1 1
Nghost:    19 ave 35 max 6 min
Histogram: 8 0 0 0 0 0 0 2 2 4
Neighs:    39.375 ave 244 max 0 min
Histogram: 9 2 2 1 1 0 0 0 0 1

Total # of neighbors = 630
Ave neighs/atom = 17.5
Ave special neighs/atom = 9.22222
Neighbor list builds = 2
Dangerous builds = 0
timestep        1
fix             pysimm_md all nvt temp 300 300 100
run             5000
PPPM initialization ...
  using 12-bit tables for long-range coulomb (../kspace.cpp:332)
  G vector (1/distance) = 0.126135
  grid = 8 8 8
  stencil order = 5
  estimated absolute RMS force accuracy = 0.0185214
  estimated relative force accuracy = 5.57767e-05
  using double precision KISS FFT
  3d grid and FFT values/proc = 567 32
Per MPI rank memory allocation (min/avg/max) = 14.15 | 14.35 | 14.93 Mbytes
Step Temp E_pair E_mol TotEng Press 
     219    1101.1952    10.734264     101.5936    227.21375    22.092016 
    5219    278.45295    13.898312    129.23614    172.18499    9.3613597 
Loop time of 0.964698 on 16 procs for 5000 steps with 36 atoms

Performance: 447.809 ns/day, 0.054 hours/ns, 5182.970 timesteps/s
92.6% CPU use with 16 MPI tasks x no OpenMP threads

MPI task timing breakdown:
Section |  min time  |  avg time  |  max time  |%varavg| %total
---------------------------------------------------------------
Pair    | 0.0012739  | 0.01172    | 0.090207   |  20.1 |  1.21
Bond    | 0.0020614  | 0.007272   | 0.054412   |  14.5 |  0.75
Kspace  | 0.57895    | 0.64109    | 0.67302    |   2.7 | 66.46
Neigh   | 0.0064244  | 0.012386   | 0.013144   |   1.4 |  1.28
Comm    | 0.028456   | 0.07919    | 0.12985    |  12.1 |  8.21
Output  | 4.8161e-05 | 5.3719e-05 | 0.00013518 |   0.0 |  0.01
Modify  | 0.047351   | 0.13276    | 0.17305    |   9.9 | 13.76
Other   |            | 0.08023    |            |       |  8.32

Nlocal:    2.25 ave 35 max 0 min
Histogram: 15 0 0 0 0 0 0 0 0 1
Nghost:    23.5 ave 36 max 0 min
Histogram: 5 0 0 0 0 0 0 0 4 7
Neighs:    39.375 ave 595 max 0 min
Histogram: 15 0 0 0 0 0 0 0 0 1

Total # of neighbors = 630
Ave neighs/atom = 17.5
Ave special neighs/atom = 9.22222
Neighbor list builds = 83
Dangerous builds = 0
unfix pysimm_md
write_dump all custom pysimm.dump.tmp id q x y z vx vy vz
quit


################################################################################
##################################    Init    ##################################
################################################################################
units           real
atom_style      full
pair_style      lj/cut/coul/long 12.0  12.0
kspace_style    pppm 1e-4
bond_style      harmonic
angle_style     harmonic
dihedral_style  fourier
improper_style  cvff
special_bonds   amber
pair_modify     mix arithmetic
read_data       temp.lmps
  orthogonal box = (-30.9013 -30.9013 -30.9013) to (30.9013 30.9013 30.9013)
  2 by 2 by 4 MPI processor grid
  reading atoms ...
  36 atoms
  reading velocities ...
  36 velocities
  scanning bonds ...
  3 = max bonds/atom
  scanning angles ...
  10 = max angles/atom
  scanning dihedrals ...
  12 = max dihedrals/atom
  scanning impropers ...
  1 = max impropers/atom
  reading bonds ...
  35 bonds
  reading angles ...
  54 angles
  reading dihedrals ...
  44 dihedrals
  reading impropers ...
  1 impropers
  5 = max # of 1-2 neighbors
  7 = max # of 1-3 neighbors
  14 = max # of 1-4 neighbors
  16 = max # of special neighbors
  special bonds CPU = 0.000772953 secs
  read_data CPU = 0.008533 secs
################################################################################

min_style cg
minimize 1e-05 1e-05 10000 100000
WARNING: Using 'neigh_modify every 1 delay 0 check yes' setting during minimization (../min.cpp:190)
PPPM initialization ...
  using 12-bit tables for long-range coulomb (../kspace.cpp:332)
  G vector (1/distance) = 0.126135
  grid = 8 8 8
  stencil order = 5
  estimated absolute RMS force accuracy = 0.0185214
  estimated relative force accuracy = 5.57767e-05
  using double precision KISS FFT
  3d grid and FFT values/proc = 567 32
Neighbor list info ...
  update every 1 steps, delay 0 steps, check yes
  max neighbors/atom: 2000, page size: 100000
  master list distance cutoff = 14
  ghost atom cutoff = 14
  binsize = 7, bins = 9 9 9
  1 neighbor lists, perpetual/occasional/extra = 1 0 0
  (1) pair lj/cut/coul/long, perpetual
      attributes: half, newton on
      pair build: half/bin/newton
      stencil: half/bin/3d/newton
      bin: standard
Per MPI rank memory allocation (min/avg/max) = 15.28 | 15.5 | 16.05 Mbytes
Step Temp E_pair E_mol TotEng Press 
       0    1019.9628    14.976022    110.61724     232.0043    23.281323 
     218    1019.9628    12.488573    109.94177    228.84138    20.963866 
Loop time of 0.082851 on 16 procs for 218 steps with 36 atoms

93.1% CPU use with 16 MPI tasks x no OpenMP threads

Minimization stats:
  Stopping criterion = energy tolerance
  Energy initial, next-to-last, final = 
         125.593257079        122.4313259      122.430339655
  Force two-norm initial, final = 13.5273 1.46885
  Force max component initial, final = 4.07835 0.470656
  Final line search alpha, max atom move = 0.176634 0.083134
  Iterations, force evaluations = 218 436

MPI task timing breakdown:
Section |  min time  |  avg time  |  max time  |%varavg| %total
---------------------------------------------------------------
Pair    | 0.00013328 | 0.0019823  | 0.007941   |   5.9 |  2.39
Bond    | 0.00038266 | 0.00097977 | 0.0030048  |   0.0 |  1.18
Kspace  | 0.049553   | 0.055974   | 0.058981   |   1.4 | 67.56
Neigh   | 0.00011706 | 0.00013681 | 0.0001421  |   0.0 |  0.17
Comm    | 0.0028229  | 0.0057211  | 0.0083339  |   2.4 |  6.91
Output  | 0          | 0          | 0          |   0.0 |  0.00
Modify  | 0          | 0          | 0          |   0.0 |  0.00
Other   |            | 0.01806    |            |       | 21.79

Nlocal:    2.25 ave 8 max 0 min
Histogram: 8 2 0 1 0 1 1 0 2 1
Nghost:    22 ave 35 max 11 min
Histogram: 4 4 0 0 0 0 0 3 2 3
Neighs:    39.375 ave 161 max 0 min
Histogram: 9 2 0 1 0 1 0 0 1 2

Total # of neighbors = 630
Ave neighs/atom = 17.5
Ave special neighs/atom = 9.22222
Neighbor list builds = 1
Dangerous builds = 0
timestep        1
fix             pysimm_md all nvt temp 300 300 100
run             5000
PPPM initialization ...
  using 12-bit tables for long-range coulomb (../kspace.cpp:332)
  G vector (1/distance) = 0.126135
  grid = 8 8 8
  stencil order = 5
  estimated absolute RMS force accuracy = 0.0185214
  estimated relative force accuracy = 5.57767e-05
  using double precision KISS FFT
  3d grid and FFT values/proc = 567 32
Per MPI rank memory allocation (min/avg/max) = 14.15 | 14.38 | 14.93 Mbytes
Step Temp E_pair E_mol TotEng Press 
     218    1019.9628    12.488573    109.94177    228.84138    20.963866 
    5218    343.44377    12.110777    131.21558    179.15728    22.412253 
Loop time of 1.42338 on 16 procs for 5000 steps with 36 atoms

Performance: 303.503 ns/day, 0.079 hours/ns, 3512.764 timesteps/s
88.5% CPU use with 16 MPI tasks x no OpenMP threads

MPI task timing breakdown:
Section |  min time  |  avg time  |  max time  |%varavg| %total
---------------------------------------------------------------
Pair    | 0.0012643  | 0.012451   | 0.12918    |  27.7 |  0.87
Bond    | 0.0024347  | 0.0078296  | 0.063931   |  16.5 |  0.55
Kspace  | 0.90766    | 0.98517    | 1.0319     |   2.8 | 69.21
Neigh   | 0.013271   | 0.013521   | 0.013976   |   0.2 |  0.95
Comm    | 0.014857   | 0.052679   | 0.10014    |  11.4 |  3.70
Output  | 4.8161e-05 | 5.5626e-05 | 0.00015616 |   0.0 |  0.00
Modify  | 0.042796   | 0.16798    | 0.24325    |  12.2 | 11.80
Other   |            | 0.1837     |            |       | 12.91

Nlocal:    2.25 ave 36 max 0 min
Histogram: 15 0 0 0 0 0 0 0 0 1
Nghost:    24.75 ave 36 max 0 min
Histogram: 5 0 0 0 0 0 0 0 0 11
Neighs:    39.375 ave 630 max 0 min
Histogram: 15 0 0 0 0 0 0 0 0 1

Total # of neighbors = 630
Ave neighs/atom = 17.5
Ave special neighs/atom = 9.22222
Neighbor list builds = 87
Dangerous builds = 0
unfix pysimm_md
write_dump all custom pysimm.dump.tmp id q x y z vx vy vz
quit


################################################################################
##################################    Init    ##################################
################################################################################
units           real
atom_style      full
pair_style      lj/cut/coul/long 12.0  12.0
kspace_style    pppm 1e-4
bond_style      harmonic
angle_style     harmonic
dihedral_style  fourier
improper_style  cvff
special_bonds   amber
pair_modify     mix arithmetic
read_data       temp.lmps
  orthogonal box = (-41.827 -41.827 -41.827) to (41.827 41.827 41.827)
  2 by 2 by 4 MPI processor grid
  reading atoms ...
  35 atoms
  reading velocities ...
  35 velocities
  scanning bonds ...
  3 = max bonds/atom
  scanning angles ...
  6 = max angles/atom
  scanning dihedrals ...
  9 = max dihedrals/atom
  reading bonds ...
  34 bonds
  reading angles ...
  50 angles
  reading dihedrals ...
  41 dihedrals
  4 = max # of 1-2 neighbors
  6 = max # of 1-3 neighbors
  12 = max # of 1-4 neighbors
  14 = max # of special neighbors
  special bonds CPU = 0.000860214 secs
  read_data CPU = 0.0209761 secs
################################################################################

min_style cg
minimize 1e-05 1e-05 10000 100000
WARNING: Using 'neigh_modify every 1 delay 0 check yes' setting during minimization (../min.cpp:190)
PPPM initialization ...
  using 12-bit tables for long-range coulomb (../kspace.cpp:332)
  G vector (1/distance) = 0.0834527
  grid = 6 6 6
  stencil order = 5
  estimated absolute RMS force accuracy = 0.029211
  estimated relative force accuracy = 8.79682e-05
  using double precision KISS FFT
  3d grid and FFT values/proc = 448 24
Neighbor list info ...
  update every 1 steps, delay 0 steps, check yes
  max neighbors/atom: 2000, page size: 100000
  master list distance cutoff = 14
  ghost atom cutoff = 14
  binsize = 7, bins = 12 12 12
  1 neighbor lists, perpetual/occasional/extra = 1 0 0
  (1) pair lj/cut/coul/long, perpetual
      attributes: half, newton on
      pair build: half/bin/newton
      stencil: half/bin/3d/newton
      bin: standard
Per MPI rank memory allocation (min/avg/max) = 12.89 | 13.04 | 13.48 Mbytes
Step Temp E_pair E_mol TotEng Press 
       0    975.35115    9.4158777    234.11668      342.382    4.8591416 
     106    975.35115    6.5558672    230.75766    336.16296    7.6341267 
Loop time of 0.0941693 on 16 procs for 106 steps with 35 atoms

86.3% CPU use with 16 MPI tasks x no OpenMP threads

Minimization stats:
  Stopping criterion = energy tolerance
  Energy initial, next-to-last, final = 
         243.532560056      237.315673819      237.313522831
  Force two-norm initial, final = 21.6606 2.19415
  Force max component initial, final = 6.5717 0.797589
  Final line search alpha, max atom move = 0.104 0.0829491
  Iterations, force evaluations = 106 212

MPI task timing breakdown:
Section |  min time  |  avg time  |  max time  |%varavg| %total
---------------------------------------------------------------
Pair    | 6.1989e-05 | 0.0012229  | 0.0082686  |   5.8 |  1.30
Bond    | 0.00017142 | 0.00043426 | 0.0016656  |   0.0 |  0.46
Kspace  | 0.063818   | 0.074787   | 0.079222   |   1.6 | 79.42
Neigh   | 0.00018287 | 0.00018953 | 0.00019598 |   0.0 |  0.20
Comm    | 0.00018883 | 0.0054508  | 0.01292    |   7.6 |  5.79
Output  | 0          | 0          | 0          |   0.0 |  0.00
Modify  | 0          | 0          | 0          |   0.0 |  0.00
Other   |            | 0.01209    |            |       | 12.83

Nlocal:    2.1875 ave 11 max 0 min
Histogram: 10 2 1 0 1 0 0 0 0 2
Nghost:    15.3125 ave 34 max 0 min
Histogram: 8 0 0 0 0 0 0 2 1 5
Neighs:    37.1875 ave 195 max 0 min
Histogram: 9 2 1 1 1 0 1 0 0 1

Total # of neighbors = 595
Ave neighs/atom = 17
Ave special neighs/atom = 8.91429
Neighbor list builds = 1
Dangerous builds = 0
timestep        1
fix             pysimm_md all nvt temp 300 300 100
run             5000
PPPM initialization ...
  using 12-bit tables for long-range coulomb (../kspace.cpp:332)
  G vector (1/distance) = 0.0834527
  grid = 6 6 6
  stencil order = 5
  estimated absolute RMS force accuracy = 0.029211
  estimated relative force accuracy = 8.79682e-05
  using double precision KISS FFT
  3d grid and FFT values/proc = 448 24
Per MPI rank memory allocation (min/avg/max) = 11.77 | 11.94 | 12.36 Mbytes
Step Temp E_pair E_mol TotEng Press 
     106    975.35115    6.5558672    230.75766    336.16296    7.6341267 
    5106     381.3485    7.0436358    255.58441    301.27678   -1.7603635 
Loop time of 2.10126 on 16 procs for 5000 steps with 35 atoms

Performance: 205.591 ns/day, 0.117 hours/ns, 2379.525 timesteps/s
85.5% CPU use with 16 MPI tasks x no OpenMP threads

MPI task timing breakdown:
Section |  min time  |  avg time  |  max time  |%varavg| %total
---------------------------------------------------------------
Pair    | 0.0012989  | 0.011503   | 0.11796    |  26.0 |  0.55
Bond    | 0.0023243  | 0.0070604  | 0.050252   |  13.5 |  0.34
Kspace  | 1.2409     | 1.348      | 1.4887     |   5.3 | 64.15
Neigh   | 0.022471   | 0.022958   | 0.023742   |   0.2 |  1.09
Comm    | 0.005882   | 0.12535    | 0.24761    |  25.3 |  5.97
Output  | 4.7207e-05 | 5.5879e-05 | 0.00016212 |   0.0 |  0.00
Modify  | 0.098961   | 0.29623    | 0.45105    |  17.0 | 14.10
Other   |            | 0.2901     |            |       | 13.80

Nlocal:    2.1875 ave 31 max 0 min
Histogram: 14 1 0 0 0 0 0 0 0 1
Nghost:    23.0625 ave 35 max 0 min
Histogram: 4 1 0 0 0 0 0 0 5 6
Neighs:    37.1875 ave 563 max 0 min
Histogram: 15 0 0 0 0 0 0 0 0 1

Total # of neighbors = 595
Ave neighs/atom = 17
Ave special neighs/atom = 8.91429
Neighbor list builds = 91
Dangerous builds = 0
unfix pysimm_md
write_dump all custom pysimm.dump.tmp id q x y z vx vy vz
quit


################################################################################
##################################    Init    ##################################
################################################################################
units           real
atom_style      full
pair_style      lj/cut/coul/long 12.0  12.0
kspace_style    pppm 1e-4
bond_style      harmonic
angle_style     harmonic
dihedral_style  fourier
improper_style  cvff
special_bonds   amber
pair_modify     mix arithmetic
read_data       temp.lmps
  orthogonal box = (-30.9013 -30.9013 -30.9013) to (30.9013 30.9013 30.9013)
  2 by 2 by 4 MPI processor grid
  reading atoms ...
  36 atoms
  reading velocities ...
  36 velocities
  scanning bonds ...
  3 = max bonds/atom
  scanning angles ...
  10 = max angles/atom
  scanning dihedrals ...
  12 = max dihedrals/atom
  scanning impropers ...
  1 = max impropers/atom
  reading bonds ...
  35 bonds
  reading angles ...
  54 angles
  reading dihedrals ...
  44 dihedrals
  reading impropers ...
  1 impropers
  5 = max # of 1-2 neighbors
  7 = max # of 1-3 neighbors
  14 = max # of 1-4 neighbors
  16 = max # of special neighbors
  special bonds CPU = 0.000626087 secs
  read_data CPU = 0.017149 secs
################################################################################

min_style cg
minimize 1e-05 1e-05 10000 100000
WARNING: Using 'neigh_modify every 1 delay 0 check yes' setting during minimization (../min.cpp:190)
PPPM initialization ...
  using 12-bit tables for long-range coulomb (../kspace.cpp:332)
  G vector (1/distance) = 0.126135
  grid = 8 8 8
  stencil order = 5
  estimated absolute RMS force accuracy = 0.0185214
  estimated relative force accuracy = 5.57767e-05
  using double precision KISS FFT
  3d grid and FFT values/proc = 567 32
Neighbor list info ...
  update every 1 steps, delay 0 steps, check yes
  max neighbors/atom: 2000, page size: 100000
  master list distance cutoff = 14
  ghost atom cutoff = 14
  binsize = 7, bins = 9 9 9
  1 neighbor lists, perpetual/occasional/extra = 1 0 0
  (1) pair lj/cut/coul/long, perpetual
      attributes: half, newton on
      pair build: half/bin/newton
      stencil: half/bin/3d/newton
      bin: standard
Per MPI rank memory allocation (min/avg/max) = 15.28 | 15.47 | 16.05 Mbytes
Step Temp E_pair E_mol TotEng Press 
       0    855.01046    17.321436    103.92351    210.44678    16.633173 
     433    855.01046    10.794091    102.76585    202.76177    17.085163 
Loop time of 0.190979 on 16 procs for 433 steps with 36 atoms

92.4% CPU use with 16 MPI tasks x no OpenMP threads

Minimization stats:
  Stopping criterion = energy tolerance
  Energy initial, next-to-last, final = 
         121.244947746      113.561046136      113.559940614
  Force two-norm initial, final = 13.4381 1.69749
  Force max component initial, final = 4.51585 0.574771
  Final line search alpha, max atom move = 0.135326 0.0777817
  Iterations, force evaluations = 433 866

MPI task timing breakdown:
Section |  min time  |  avg time  |  max time  |%varavg| %total
---------------------------------------------------------------
Pair    | 0.00026035 | 0.0039157  | 0.015105   |   8.0 |  2.05
Bond    | 0.00056839 | 0.0019003  | 0.0050082  |   3.4 |  1.00
Kspace  | 0.11245    | 0.12788    | 0.13528    |   1.9 | 66.96
Neigh   | 0.0003581  | 0.00038619 | 0.00043607 |   0.0 |  0.20
Comm    | 0.004941   | 0.012598   | 0.022039   |   4.3 |  6.60
Output  | 0          | 0          | 0          |   0.0 |  0.00
Modify  | 0          | 0          | 0          |   0.0 |  0.00
Other   |            | 0.04429    |            |       | 23.19

Nlocal:    2.25 ave 9 max 0 min
Histogram: 9 0 1 1 1 0 3 0 0 1
Nghost:    20 ave 36 max 8 min
Histogram: 8 0 0 0 0 0 1 3 2 2
Neighs:    39.375 ave 195 max 0 min
Histogram: 9 2 1 0 2 0 0 1 0 1

Total # of neighbors = 630
Ave neighs/atom = 17.5
Ave special neighs/atom = 9.22222
Neighbor list builds = 4
Dangerous builds = 0
timestep        1
fix             pysimm_md all nvt temp 300 300 100
run             5000
PPPM initialization ...
  using 12-bit tables for long-range coulomb (../kspace.cpp:332)
  G vector (1/distance) = 0.126135
  grid = 8 8 8
  stencil order = 5
  estimated absolute RMS force accuracy = 0.0185214
  estimated relative force accuracy = 5.57767e-05
  using double precision KISS FFT
  3d grid and FFT values/proc = 567 32
Per MPI rank memory allocation (min/avg/max) = 14.15 | 14.37 | 14.93 Mbytes
Step Temp E_pair E_mol TotEng Press 
     433    855.01046    10.794091    102.76585    202.76177    17.085163 
    5433    294.02177    11.828092    125.70793    168.21083    5.7681905 
Loop time of 1.32696 on 16 procs for 5000 steps with 36 atoms

Performance: 325.555 ns/day, 0.074 hours/ns, 3768.000 timesteps/s
89.8% CPU use with 16 MPI tasks x no OpenMP threads

MPI task timing breakdown:
Section |  min time  |  avg time  |  max time  |%varavg| %total
---------------------------------------------------------------
Pair    | 0.0014758  | 0.013787   | 0.057467   |  15.6 |  1.04
Bond    | 0.0023987  | 0.0084134  | 0.047168   |  12.3 |  0.63
Kspace  | 0.81786    | 0.86477    | 0.96001    |   4.7 | 65.17
Neigh   | 0.0074284  | 0.0077994  | 0.0084343  |   0.3 |  0.59
Comm    | 0.017314   | 0.10167    | 0.19169    |  18.7 |  7.66
Output  | 6.1035e-05 | 7.1511e-05 | 0.00015187 |   0.0 |  0.01
Modify  | 0.050928   | 0.17589    | 0.235      |  13.0 | 13.25
Other   |            | 0.1546     |            |       | 11.65

Nlocal:    2.25 ave 22 max 0 min
Histogram: 13 0 1 0 1 0 0 0 0 1
Nghost:    24.75 ave 36 max 0 min
Histogram: 4 0 0 1 0 0 0 1 1 9
Neighs:    39.375 ave 261 max 0 min
Histogram: 13 0 0 0 0 0 1 1 0 1

Total # of neighbors = 630
Ave neighs/atom = 17.5
Ave special neighs/atom = 9.22222
Neighbor list builds = 78
Dangerous builds = 0
unfix pysimm_md
write_dump all custom pysimm.dump.tmp id q x y z vx vy vz
quit


################################################################################
##################################    Init    ##################################
################################################################################
units           real
atom_style      full
pair_style      lj/cut/coul/long 12.0  12.0
kspace_style    pppm 1e-4
bond_style      harmonic
angle_style     harmonic
dihedral_style  fourier
improper_style  cvff
special_bonds   amber
pair_modify     mix arithmetic
read_data       temp.lmps
  orthogonal box = (-41.827 -41.827 -41.827) to (41.827 41.827 41.827)
  2 by 2 by 4 MPI processor grid
  reading atoms ...
  35 atoms
  reading velocities ...
  35 velocities
  scanning bonds ...
  3 = max bonds/atom
  scanning angles ...
  6 = max angles/atom
  scanning dihedrals ...
  9 = max dihedrals/atom
  reading bonds ...
  34 bonds
  reading angles ...
  50 angles
  reading dihedrals ...
  41 dihedrals
  4 = max # of 1-2 neighbors
  6 = max # of 1-3 neighbors
  12 = max # of 1-4 neighbors
  14 = max # of special neighbors
  special bonds CPU = 0.000828981 secs
  read_data CPU = 0.0146651 secs
################################################################################

min_style cg
minimize 1e-05 1e-05 10000 100000
WARNING: Using 'neigh_modify every 1 delay 0 check yes' setting during minimization (../min.cpp:190)
PPPM initialization ...
  using 12-bit tables for long-range coulomb (../kspace.cpp:332)
  G vector (1/distance) = 0.0834527
  grid = 6 6 6
  stencil order = 5
  estimated absolute RMS force accuracy = 0.029211
  estimated relative force accuracy = 8.79682e-05
  using double precision KISS FFT
  3d grid and FFT values/proc = 448 24
Neighbor list info ...
  update every 1 steps, delay 0 steps, check yes
  max neighbors/atom: 2000, page size: 100000
  master list distance cutoff = 14
  ghost atom cutoff = 14
  binsize = 7, bins = 12 12 12
  1 neighbor lists, perpetual/occasional/extra = 1 0 0
  (1) pair lj/cut/coul/long, perpetual
      attributes: half, newton on
      pair build: half/bin/newton
      stencil: half/bin/3d/newton
      bin: standard
Per MPI rank memory allocation (min/avg/max) = 12.89 | 13.1 | 13.48 Mbytes
Step Temp E_pair E_mol TotEng Press 
       0    814.42513     8.568738    232.71944    323.82816    6.2662579 
     111    814.42513    5.7242589    230.81206    319.07631    6.4871535 
Loop time of 0.0636034 on 16 procs for 111 steps with 35 atoms

88.4% CPU use with 16 MPI tasks x no OpenMP threads

Minimization stats:
  Stopping criterion = energy tolerance
  Energy initial, next-to-last, final = 
         241.288177241      236.537985302      236.536321535
  Force two-norm initial, final = 21.2015 2.03263
  Force max component initial, final = 6.31801 0.597518
  Final line search alpha, max atom move = 0.0781788 0.0467132
  Iterations, force evaluations = 111 222

MPI task timing breakdown:
Section |  min time  |  avg time  |  max time  |%varavg| %total
---------------------------------------------------------------
Pair    | 5.6267e-05 | 0.00097957 | 0.0040224  |   0.0 |  1.54
Bond    | 0.00015974 | 0.00048111 | 0.0011253  |   0.0 |  0.76
Kspace  | 0.038221   | 0.043595   | 0.052101   |   1.9 | 68.54
Neigh   | 5.3883e-05 | 6.1706e-05 | 9.8944e-05 |   0.0 |  0.10
Comm    | 0.00018311 | 0.0020695  | 0.0046048  |   4.2 |  3.25
Output  | 0          | 0          | 0          |   0.0 |  0.00
Modify  | 0          | 0          | 0          |   0.0 |  0.00
Other   |            | 0.01642    |            |       | 25.81

Nlocal:    2.1875 ave 9 max 0 min
Histogram: 9 1 1 1 0 1 1 0 0 2
Nghost:    15.3125 ave 35 max 0 min
Histogram: 8 0 0 0 0 0 0 2 2 4
Neighs:    37.1875 ave 171 max 0 min
Histogram: 9 2 1 1 0 0 0 0 1 2

Total # of neighbors = 595
Ave neighs/atom = 17
Ave special neighs/atom = 8.91429
Neighbor list builds = 1
Dangerous builds = 0
timestep        1
fix             pysimm_md all nvt temp 300 300 100
run             5000
PPPM initialization ...
  using 12-bit tables for long-range coulomb (../kspace.cpp:332)
  G vector (1/distance) = 0.0834527
  grid = 6 6 6
  stencil order = 5
  estimated absolute RMS force accuracy = 0.029211
  estimated relative force accuracy = 8.79682e-05
  using double precision KISS FFT
  3d grid and FFT values/proc = 448 24
Per MPI rank memory allocation (min/avg/max) = 11.77 | 11.98 | 12.36 Mbytes
Step Temp E_pair E_mol TotEng Press 
     111    814.42513    5.7242589    230.81206    319.07631    6.4871535 
    5111    273.31361    4.7546828    262.29753    294.75188   0.85340381 
Loop time of 0.860475 on 16 procs for 5000 steps with 35 atoms

Performance: 502.048 ns/day, 0.048 hours/ns, 5810.744 timesteps/s
93.0% CPU use with 16 MPI tasks x no OpenMP threads

MPI task timing breakdown:
Section |  min time  |  avg time  |  max time  |%varavg| %total
---------------------------------------------------------------
Pair    | 0.0012167  | 0.011887   | 0.090014   |  21.5 |  1.38
Bond    | 0.0022554  | 0.0070627  | 0.040428   |  11.8 |  0.82
Kspace  | 0.56667    | 0.62509    | 0.67207    |   3.5 | 72.64
Neigh   | 0.0075583  | 0.0080202  | 0.0085068  |   0.3 |  0.93
Comm    | 0.0056806  | 0.045035   | 0.10499    |  18.0 |  5.23
Output  | 4.3869e-05 | 5.2303e-05 | 0.00014997 |   0.0 |  0.01
Modify  | 0.04051    | 0.10872    | 0.1441     |  10.2 | 12.64
Other   |            | 0.0546     |            |       |  6.35

Nlocal:    2.1875 ave 34 max 0 min
Histogram: 15 0 0 0 0 0 0 0 0 1
Nghost:    15.3125 ave 35 max 0 min
Histogram: 9 0 0 0 0 0 0 0 0 7
Neighs:    37.1875 ave 561 max 0 min
Histogram: 15 0 0 0 0 0 0 0 0 1

Total # of neighbors = 595
Ave neighs/atom = 17
Ave special neighs/atom = 8.91429
Neighbor list builds = 103
Dangerous builds = 0
unfix pysimm_md
write_dump all custom pysimm.dump.tmp id q x y z vx vy vz
quit


################################################################################
##################################    Init    ##################################
################################################################################
units           real
atom_style      full
pair_style      lj/cut/coul/long 12.0  12.0
kspace_style    pppm 1e-4
bond_style      harmonic
angle_style     harmonic
dihedral_style  fourier
improper_style  cvff
special_bonds   amber
pair_modify     mix arithmetic
read_data       temp.lmps
  orthogonal box = (-33.1981 -33.1981 -33.1981) to (33.1981 33.1981 33.1981)
  2 by 2 by 4 MPI processor grid
  reading atoms ...
  21 atoms
  reading velocities ...
  21 velocities
  scanning bonds ...
  3 = max bonds/atom
  scanning angles ...
  6 = max angles/atom
  scanning dihedrals ...
  9 = max dihedrals/atom
  reading bonds ...
  20 bonds
  reading angles ...
  28 angles
  reading dihedrals ...
  23 dihedrals
  4 = max # of 1-2 neighbors
  6 = max # of 1-3 neighbors
  11 = max # of 1-4 neighbors
  13 = max # of special neighbors
  special bonds CPU = 0.000841141 secs
  read_data CPU = 0.00821781 secs
################################################################################

min_style cg
minimize 1e-05 1e-05 10000 100000
WARNING: Using 'neigh_modify every 1 delay 0 check yes' setting during minimization (../min.cpp:190)
PPPM initialization ...
  using 12-bit tables for long-range coulomb (../kspace.cpp:332)
  G vector (1/distance) = 0.086633
  grid = 5 5 5
  stencil order = 5
  estimated absolute RMS force accuracy = 0.0349816
  estimated relative force accuracy = 0.000105346
  using double precision KISS FFT
  3d grid and FFT values/proc = 448 20
Neighbor list info ...
  update every 1 steps, delay 0 steps, check yes
  max neighbors/atom: 2000, page size: 100000
  master list distance cutoff = 14
  ghost atom cutoff = 14
  binsize = 7, bins = 10 10 10
  1 neighbor lists, perpetual/occasional/extra = 1 0 0
  (1) pair lj/cut/coul/long, perpetual
      attributes: half, newton on
      pair build: half/bin/newton
      stencil: half/bin/3d/newton
      bin: standard
Per MPI rank memory allocation (min/avg/max) = 12.83 | 13.04 | 13.42 Mbytes
Step Temp E_pair E_mol TotEng Press 
       0    1017.2103    1.0775979     218.2351    279.95491    13.388098 
     110    1017.2103    -2.157209     217.3909    275.87591    9.7148842 
Loop time of 0.0394593 on 16 procs for 110 steps with 21 atoms

94.1% CPU use with 16 MPI tasks x no OpenMP threads

Minimization stats:
  Stopping criterion = energy tolerance
  Energy initial, next-to-last, final = 
         219.312696429      215.235583021      215.233692399
  Force two-norm initial, final = 18.7729 1.82703
  Force max component initial, final = 7.18639 0.91151
  Final line search alpha, max atom move = 0.031332 0.0285594
  Iterations, force evaluations = 110 220

MPI task timing breakdown:
Section |  min time  |  avg time  |  max time  |%varavg| %total
---------------------------------------------------------------
Pair    | 6.2227e-05 | 0.00047074 | 0.0018945  |   0.0 |  1.19
Bond    | 0.00016236 | 0.00038162 | 0.00086355 |   0.0 |  0.97
Kspace  | 0.025085   | 0.026609   | 0.027434   |   0.4 | 67.43
Neigh   | 0          | 0          | 0          |   0.0 |  0.00
Comm    | 0.0012841  | 0.0027757  | 0.0041125  |   1.7 |  7.03
Output  | 0          | 0          | 0          |   0.0 |  0.00
Modify  | 0          | 0          | 0          |   0.0 |  0.00
Other   |            | 0.009222   |            |       | 23.37

Nlocal:    1.3125 ave 4 max 0 min
Histogram: 8 0 2 0 0 2 0 1 0 3
Nghost:    10.4375 ave 20 max 2 min
Histogram: 8 0 0 0 0 0 0 0 4 4
Neighs:    13.125 ave 71 max 0 min
Histogram: 8 3 2 1 0 0 1 0 0 1

Total # of neighbors = 210
Ave neighs/atom = 10
Ave special neighs/atom = 8.19048
Neighbor list builds = 0
Dangerous builds = 0
timestep        1
fix             pysimm_md all nvt temp 300 300 100
run             5000
PPPM initialization ...
  using 12-bit tables for long-range coulomb (../kspace.cpp:332)
  G vector (1/distance) = 0.086633
  grid = 5 5 5
  stencil order = 5
  estimated absolute RMS force accuracy = 0.0349816
  estimated relative force accuracy = 0.000105346
  using double precision KISS FFT
  3d grid and FFT values/proc = 448 20
Per MPI rank memory allocation (min/avg/max) = 11.71 | 11.93 | 12.29 Mbytes
Step Temp E_pair E_mol TotEng Press 
     110    1017.2103    -2.157209     217.3909    275.87591    9.7148842 
    5110    217.13048   -1.2163179    232.91557    244.64375   -9.7966143 
Loop time of 0.685798 on 16 procs for 5000 steps with 21 atoms

Performance: 629.923 ns/day, 0.038 hours/ns, 7290.774 timesteps/s
94.3% CPU use with 16 MPI tasks x no OpenMP threads

MPI task timing breakdown:
Section |  min time  |  avg time  |  max time  |%varavg| %total
---------------------------------------------------------------
Pair    | 0.0011535  | 0.0059855  | 0.02983    |   9.7 |  0.87
Bond    | 0.0021017  | 0.0053932  | 0.026322   |   8.0 |  0.79
Kspace  | 0.45403    | 0.48283    | 0.53168    |   2.9 | 70.40
Neigh   | 0.0064318  | 0.0069069  | 0.0075641  |   0.4 |  1.01
Comm    | 0.0090017  | 0.051567   | 0.1028     |  13.4 |  7.52
Output  | 4.5061e-05 | 5.2392e-05 | 0.00014997 |   0.0 |  0.01
Modify  | 0.035149   | 0.08369    | 0.10997    |   9.0 | 12.20
Other   |            | 0.04937    |            |       |  7.20

Nlocal:    1.3125 ave 13 max 0 min
Histogram: 14 0 0 0 0 1 0 0 0 1
Nghost:    14.1875 ave 21 max 0 min
Histogram: 4 0 0 1 0 0 1 0 0 10
Neighs:    13.125 ave 128 max 0 min
Histogram: 13 1 0 0 1 0 0 0 0 1

Total # of neighbors = 210
Ave neighs/atom = 10
Ave special neighs/atom = 8.19048
Neighbor list builds = 105
Dangerous builds = 0
unfix pysimm_md
write_dump all custom pysimm.dump.tmp id q x y z vx vy vz
quit


################################################################################
##################################    Init    ##################################
################################################################################
units           real
atom_style      full
pair_style      lj/cut/coul/long 12.0  12.0
kspace_style    pppm 1e-4
bond_style      harmonic
angle_style     harmonic
dihedral_style  fourier
improper_style  cvff
special_bonds   amber
pair_modify     mix arithmetic
read_data       temp.lmps
  orthogonal box = (-28.3821 -28.3821 -28.3821) to (28.3821 28.3821 28.3821)
  2 by 2 by 4 MPI processor grid
  reading atoms ...
  21 atoms
  reading velocities ...
  21 velocities
  scanning bonds ...
  3 = max bonds/atom
  scanning angles ...
  10 = max angles/atom
  scanning dihedrals ...
  12 = max dihedrals/atom
  reading bonds ...
  20 bonds
  reading angles ...
  30 angles
  reading dihedrals ...
  24 dihedrals
  5 = max # of 1-2 neighbors
  7 = max # of 1-3 neighbors
  13 = max # of 1-4 neighbors
  15 = max # of special neighbors
  special bonds CPU = 0.0011971 secs
  read_data CPU = 0.027864 secs
################################################################################

min_style cg
minimize 1e-05 1e-05 10000 100000
WARNING: Using 'neigh_modify every 1 delay 0 check yes' setting during minimization (../min.cpp:190)
PPPM initialization ...
  using 12-bit tables for long-range coulomb (../kspace.cpp:332)
  G vector (1/distance) = 0.0973379
  grid = 5 5 5
  stencil order = 5
  estimated absolute RMS force accuracy = 0.0333256
  estimated relative force accuracy = 0.000100359
  using double precision KISS FFT
  3d grid and FFT values/proc = 448 20
Neighbor list info ...
  update every 1 steps, delay 0 steps, check yes
  max neighbors/atom: 2000, page size: 100000
  master list distance cutoff = 14
  ghost atom cutoff = 14
  binsize = 7, bins = 9 9 9
  1 neighbor lists, perpetual/occasional/extra = 1 0 0
  (1) pair lj/cut/coul/long, perpetual
      attributes: half, newton on
      pair build: half/bin/newton
      stencil: half/bin/3d/newton
      bin: standard
Per MPI rank memory allocation (min/avg/max) = 14.89 | 15.05 | 15.48 Mbytes
Step Temp E_pair E_mol TotEng Press 
       0    1027.3112    12.104943    74.648577    147.99791    9.9527102 
     177    1027.3112    8.6776956     74.21387    144.13596    15.211188 
Loop time of 0.237157 on 16 procs for 177 steps with 21 atoms

85.5% CPU use with 16 MPI tasks x no OpenMP threads

Minimization stats:
  Stopping criterion = energy tolerance
  Energy initial, next-to-last, final = 
         86.7535206165      82.8922801634      82.8915654526
  Force two-norm initial, final = 14.0012 1.41523
  Force max component initial, final = 6.05369 0.621732
  Final line search alpha, max atom move = 0.0902062 0.0560841
  Iterations, force evaluations = 177 354

MPI task timing breakdown:
Section |  min time  |  avg time  |  max time  |%varavg| %total
---------------------------------------------------------------
Pair    | 0.00018096 | 0.0012195  | 0.0059588  |   5.1 |  0.51
Bond    | 0.00046372 | 0.0011078  | 0.0036945  |   2.7 |  0.47
Kspace  | 0.13554    | 0.14654    | 0.15519    |   1.1 | 61.79
Neigh   | 7.8917e-05 | 8.9049e-05 | 9.7036e-05 |   0.0 |  0.04
Comm    | 0.0037124  | 0.014774   | 0.033195   |   7.7 |  6.23
Output  | 0          | 0          | 0          |   0.0 |  0.00
Modify  | 0          | 0          | 0          |   0.0 |  0.00
Other   |            | 0.07343    |            |       | 30.96

Nlocal:    1.3125 ave 5 max 0 min
Histogram: 9 0 2 0 1 0 1 0 1 2
Nghost:    14.1875 ave 21 max 8 min
Histogram: 4 0 0 4 0 0 3 1 1 3
Neighs:    13.125 ave 90 max 0 min
Histogram: 11 1 2 0 0 0 0 1 0 1

Total # of neighbors = 210
Ave neighs/atom = 10
Ave special neighs/atom = 8.66667
Neighbor list builds = 1
Dangerous builds = 0
timestep        1
fix             pysimm_md all nvt temp 300 300 100
run             5000
PPPM initialization ...
  using 12-bit tables for long-range coulomb (../kspace.cpp:332)
  G vector (1/distance) = 0.0973379
  grid = 5 5 5
  stencil order = 5
  estimated absolute RMS force accuracy = 0.0333256
  estimated relative force accuracy = 0.000100359
  using double precision KISS FFT
  3d grid and FFT values/proc = 448 20
Per MPI rank memory allocation (min/avg/max) = 13.77 | 13.93 | 14.35 Mbytes
Step Temp E_pair E_mol TotEng Press 
     177    1027.3112    8.6776956     74.21387    144.13596    15.211188 
    5177     340.6442    9.5912174    84.196001    114.09513    -23.37133 
Loop time of 0.959414 on 16 procs for 5000 steps with 21 atoms

Performance: 450.275 ns/day, 0.053 hours/ns, 5211.512 timesteps/s
93.0% CPU use with 16 MPI tasks x no OpenMP threads

MPI task timing breakdown:
Section |  min time  |  avg time  |  max time  |%varavg| %total
---------------------------------------------------------------
Pair    | 0.001487   | 0.0072722  | 0.065011   |  17.8 |  0.76
Bond    | 0.0025601  | 0.0068553  | 0.043537   |  12.0 |  0.71
Kspace  | 0.63916    | 0.68233    | 0.73434    |   2.7 | 71.12
Neigh   | 0.0066266  | 0.0069869  | 0.0075276  |   0.3 |  0.73
Comm    | 0.015533   | 0.060737   | 0.12217    |  13.1 |  6.33
Output  | 4.8161e-05 | 5.4061e-05 | 0.00013113 |   0.0 |  0.01
Modify  | 0.050769   | 0.12577    | 0.15664    |   9.2 | 13.11
Other   |            | 0.06941    |            |       |  7.23

Nlocal:    1.3125 ave 18 max 0 min
Histogram: 14 1 0 0 0 0 0 0 0 1
Nghost:    14.4375 ave 21 max 1 min
Histogram: 4 1 0 0 0 0 0 0 0 11
Neighs:    13.125 ave 201 max 0 min
Histogram: 15 0 0 0 0 0 0 0 0 1

Total # of neighbors = 210
Ave neighs/atom = 10
Ave special neighs/atom = 8.66667
Neighbor list builds = 77
Dangerous builds = 0
unfix pysimm_md
write_dump all custom pysimm.dump.tmp id q x y z vx vy vz
quit


################################################################################
##################################    Init    ##################################
################################################################################
units           real
atom_style      full
pair_style      lj/cut/coul/long 12.0  12.0
kspace_style    pppm 1e-4
bond_style      harmonic
angle_style     harmonic
dihedral_style  fourier
improper_style  cvff
special_bonds   amber
pair_modify     mix arithmetic
read_data       temp.lmps
  orthogonal box = (-33.1981 -33.1981 -33.1981) to (33.1981 33.1981 33.1981)
  2 by 2 by 4 MPI processor grid
  reading atoms ...
  21 atoms
  reading velocities ...
  21 velocities
  scanning bonds ...
  3 = max bonds/atom
  scanning angles ...
  6 = max angles/atom
  scanning dihedrals ...
  9 = max dihedrals/atom
  reading bonds ...
  20 bonds
  reading angles ...
  28 angles
  reading dihedrals ...
  23 dihedrals
  4 = max # of 1-2 neighbors
  6 = max # of 1-3 neighbors
  11 = max # of 1-4 neighbors
  13 = max # of special neighbors
  special bonds CPU = 0.000638962 secs
  read_data CPU = 0.015656 secs
################################################################################

min_style cg
minimize 1e-05 1e-05 10000 100000
WARNING: Using 'neigh_modify every 1 delay 0 check yes' setting during minimization (../min.cpp:190)
PPPM initialization ...
  using 12-bit tables for long-range coulomb (../kspace.cpp:332)
  G vector (1/distance) = 0.086633
  grid = 5 5 5
  stencil order = 5
  estimated absolute RMS force accuracy = 0.0349816
  estimated relative force accuracy = 0.000105346
  using double precision KISS FFT
  3d grid and FFT values/proc = 448 20
Neighbor list info ...
  update every 1 steps, delay 0 steps, check yes
  max neighbors/atom: 2000, page size: 100000
  master list distance cutoff = 14
  ghost atom cutoff = 14
  binsize = 7, bins = 10 10 10
  1 neighbor lists, perpetual/occasional/extra = 1 0 0
  (1) pair lj/cut/coul/long, perpetual
      attributes: half, newton on
      pair build: half/bin/newton
      stencil: half/bin/3d/newton
      bin: standard
Per MPI rank memory allocation (min/avg/max) = 12.83 | 13.04 | 13.42 Mbytes
Step Temp E_pair E_mol TotEng Press 
       0    1084.8408   0.49541501    218.00967    283.17918    8.1354547 
      65    1084.8408   -1.0708154    217.35267    280.95595     10.29992 
Loop time of 0.0505107 on 16 procs for 65 steps with 21 atoms

86.0% CPU use with 16 MPI tasks x no OpenMP threads

Minimization stats:
  Stopping criterion = energy tolerance
  Energy initial, next-to-last, final = 
         218.505087409      216.283721433      216.281859259
  Force two-norm initial, final = 20.4515 1.84721
  Force max component initial, final = 8.07633 0.6877
  Final line search alpha, max atom move = 0.0883304 0.0607448
  Iterations, force evaluations = 65 130

MPI task timing breakdown:
Section |  min time  |  avg time  |  max time  |%varavg| %total
---------------------------------------------------------------
Pair    | 2.3127e-05 | 0.00028718 | 0.00092602 |   0.0 |  0.57
Bond    | 7.5817e-05 | 0.00022624 | 0.00051379 |   0.0 |  0.45
Kspace  | 0.035726   | 0.037412   | 0.044966   |   1.1 | 74.07
Neigh   | 0          | 0          | 0          |   0.0 |  0.00
Comm    | 5.4121e-05 | 0.0010637  | 0.002378   |   3.0 |  2.11
Output  | 0          | 0          | 0          |   0.0 |  0.00
Modify  | 0          | 0          | 0          |   0.0 |  0.00
Other   |            | 0.01152    |            |       | 22.81

Nlocal:    1.3125 ave 4 max 0 min
[...]
fix             pysimm_md all nvt temp 300 300 100
run             5000
PPPM initialization ...
  using 12-bit tables for long-range coulomb (../kspace.cpp:332)
  G vector (1/distance) = 0.0624677
  grid = 9 9 9
  stencil order = 5
  estimated absolute RMS force accuracy = 0.0375684
  estimated relative force accuracy = 0.000113136
  using double precision KISS FFT
  3d grid and FFT values/proc = 800 81
Per MPI rank memory allocation (min/avg/max) = 12.11 | 12.36 | 12.9 Mbytes
Step Temp E_pair E_mol TotEng Press 
       8    293.11512    204.57609    581.23043    1085.4927    2.2291998 
    5008    307.22849    178.31924    747.42931    1239.8644   0.52750836 
Loop time of 5.55221 on 16 procs for 5000 steps with 344 atoms

Performance: 77.807 ns/day, 0.308 hours/ns, 900.543 timesteps/s
89.1% CPU use with 16 MPI tasks x no OpenMP threads

MPI task timing breakdown:
Section |  min time  |  avg time  |  max time  |%varavg| %total
---------------------------------------------------------------
Pair    | 0.00084925 | 0.39459    | 3.4458     | 144.4 |  7.11
Bond    | 0.0016527  | 0.046267   | 0.346      |  42.5 |  0.83
Kspace  | 1.4466     | 4.3435     | 4.7552     |  41.4 | 78.23
Neigh   | 0.10297    | 0.10551    | 0.10843    |   0.6 |  1.90
Comm    | 0.006361   | 0.13192    | 0.34178    |  36.4 |  2.38
Output  | 4.4823e-05 | 4.6402e-05 | 5.579e-05  |   0.0 |  0.00
Modify  | 0.057795   | 0.48235    | 0.65772    |  28.6 |  8.69
Other   |            | 0.04801    |            |       |  0.86

Nlocal:    21.5 ave 226 max 0 min
Histogram: 14 0 0 0 0 1 0 0 0 1
Nghost:    60.0625 ave 221 max 0 min
Histogram: 8 2 0 0 0 3 0 2 0 1
Neighs:    2464.19 ave 27386 max 0 min
Histogram: 14 0 0 0 1 0 0 0 0 1

Total # of neighbors = 39427
Ave neighs/atom = 114.613
Ave special neighs/atom = 9.87209
Neighbor list builds = 155
Dangerous builds = 0
unfix pysimm_md
write_dump all custom pysimm.dump.tmp id q x y z vx vy vz
quit


################################################################################
##################################    Init    ##################################
################################################################################
units           real
atom_style      full
pair_style      lj/cut/coul/long 12.0  12.0
kspace_style    pppm 1e-4
bond_style      harmonic
angle_style     harmonic
dihedral_style  fourier
improper_style  cvff
special_bonds   amber
pair_modify     mix arithmetic
read_data       temp.lmps
  orthogonal box = (-90.3561 -90.3561 -90.3561) to (90.3561 90.3561 90.3561)
  2 by 2 by 4 MPI processor grid
  reading atoms ...
  351 atoms
  reading velocities ...
  351 velocities
  scanning bonds ...
  3 = max bonds/atom
  scanning angles ...
  6 = max angles/atom
  scanning dihedrals ...
  9 = max dihedrals/atom
  scanning impropers ...
  1 = max impropers/atom
  reading bonds ...
  350 bonds
  reading angles ...
  643 angles
  reading dihedrals ...
  448 dihedrals
  reading impropers ...
  1 impropers
  4 = max # of 1-2 neighbors
  6 = max # of 1-3 neighbors
  12 = max # of 1-4 neighbors
  14 = max # of special neighbors
  special bonds CPU = 0.000680923 secs
  read_data CPU = 0.0107369 secs
################################################################################

min_style cg
minimize 1e-05 1e-05 10000 100000
WARNING: Using 'neigh_modify every 1 delay 0 check yes' setting during minimization (../min.cpp:190)
PPPM initialization ...
WARNING: System is not charge neutral, net charge = -4.9e-05 (../kspace.cpp:313)
  using 12-bit tables for long-range coulomb (../kspace.cpp:332)
  G vector (1/distance) = 0.0621146
  grid = 9 9 9
  stencil order = 5
  estimated absolute RMS force accuracy = 0.037713
  estimated relative force accuracy = 0.000113572
  using double precision KISS FFT
  3d grid and FFT values/proc = 800 81
Neighbor list info ...
  update every 1 steps, delay 0 steps, check yes
  max neighbors/atom: 2000, page size: 100000
  master list distance cutoff = 14
  ghost atom cutoff = 14
  binsize = 7, bins = 26 26 26
  1 neighbor lists, perpetual/occasional/extra = 1 0 0
  (1) pair lj/cut/coul/long, perpetual
      attributes: half, newton on
      pair build: half/bin/newton
      stencil: half/bin/3d/newton
      bin: standard
Per MPI rank memory allocation (min/avg/max) = 13.24 | 13.41 | 14.03 Mbytes
Step Temp E_pair E_mol TotEng Press 
       0    290.86816     206.5185    597.31636    1107.2928    2.0161966 
       2    290.86816    206.53951    596.82095    1106.8184    2.0374694 
Loop time of 0.0797634 on 16 procs for 2 steps with 351 atoms

89.3% CPU use with 16 MPI tasks x no OpenMP threads

Minimization stats:
  Stopping criterion = linesearch alpha is zero
  Energy initial, next-to-last, final = 
         803.834864042      803.360451818      803.360451818
  Force two-norm initial, final = 50.0173 33.06
  Force max component initial, final = 14.9509 10.5729
  Final line search alpha, max atom move = 1.1334e-11 1.19834e-10
  Iterations, force evaluations = 2 63

MPI task timing breakdown:
Section |  min time  |  avg time  |  max time  |%varavg| %total
---------------------------------------------------------------
Pair    | 1.049e-05  | 0.0074058  | 0.057401   |  17.2 |  9.28
Bond    | 5.3644e-05 | 0.00071467 | 0.0032561  |   0.0 |  0.90
Kspace  | 0.016376   | 0.069239   | 0.077856   |   6.0 | 86.81
Neigh   | 0          | 0          | 0          |   0.0 |  0.00
Comm    | 2.9564e-05 | 0.00065221 | 0.0013657  |   0.0 |  0.82
Output  | 0          | 0          | 0          |   0.0 |  0.00
Modify  | 0          | 0          | 0          |   0.0 |  0.00
Other   |            | 0.001752   |            |       |  2.20

Nlocal:    21.9375 ave 111 max 0 min
Histogram: 10 1 2 0 0 1 0 0 1 1
Nghost:    108.062 ave 254 max 0 min
Histogram: 8 0 0 0 0 0 1 1 3 3
Neighs:    1570.88 ave 11719 max 0 min
Histogram: 13 0 0 1 0 1 0 0 0 1

Total # of neighbors = 25134
Ave neighs/atom = 71.6068
Ave special neighs/atom = 9.87464
Neighbor list builds = 0
Dangerous builds = 0
timestep        1
fix             pysimm_md all nvt temp 300 300 100
run             5000
PPPM initialization ...
  using 12-bit tables for long-range coulomb (../kspace.cpp:332)
  G vector (1/distance) = 0.0621146
  grid = 9 9 9
  stencil order = 5
  estimated absolute RMS force accuracy = 0.037713
  estimated relative force accuracy = 0.000113572
  using double precision KISS FFT
  3d grid and FFT values/proc = 800 81
Per MPI rank memory allocation (min/avg/max) = 12.11 | 12.28 | 12.9 Mbytes
Step Temp E_pair E_mol TotEng Press 
       2    290.86816    206.53951    596.82095    1106.8184    2.0374694 
    5002    288.23886    215.63233    743.69693    1260.0441    3.1261109 
Loop time of 4.75689 on 16 procs for 5000 steps with 351 atoms

Performance: 90.816 ns/day, 0.264 hours/ns, 1051.107 timesteps/s
89.1% CPU use with 16 MPI tasks x no OpenMP threads

MPI task timing breakdown:
Section |  min time  |  avg time  |  max time  |%varavg| %total
---------------------------------------------------------------
Pair    | 0.00065422 | 0.27104    | 2.709      | 124.7 |  5.70
Bond    | 0.0018904  | 0.044089   | 0.30945    |  37.2 |  0.93
Kspace  | 1.4434     | 3.7474     | 4.0378     |  31.8 | 78.78
Neigh   | 0.091106   | 0.092649   | 0.094448   |   0.4 |  1.95
Comm    | 0.0077689  | 0.22062    | 0.57626    |  49.5 |  4.64
Output  | 4.2915e-05 | 4.4286e-05 | 5.1975e-05 |   0.0 |  0.00
Modify  | 0.039594   | 0.33       | 0.58824    |  43.7 |  6.94
Other   |            | 0.05109    |            |       |  1.07

Nlocal:    21.9375 ave 204 max 0 min
Histogram: 13 1 0 0 1 0 0 0 0 1
Nghost:    64.75 ave 235 max 0 min
Histogram: 8 0 0 2 2 1 2 0 0 1
Neighs:    1473.62 ave 18340 max 0 min
Histogram: 14 1 0 0 0 0 0 0 0 1

Total # of neighbors = 23578
Ave neighs/atom = 67.1738
Ave special neighs/atom = 9.87464
Neighbor list builds = 162
Dangerous builds = 0
unfix pysimm_md
write_dump all custom pysimm.dump.tmp id q x y z vx vy vz
quit


################################################################################
##################################    Init    ##################################
################################################################################
units           real
atom_style      full
pair_style      lj/cut/coul/long 12.0  12.0
kspace_style    pppm 1e-4
bond_style      harmonic
angle_style     harmonic
dihedral_style  fourier
improper_style  cvff
special_bonds   amber
pair_modify     mix arithmetic
read_data       temp.lmps
  orthogonal box = (-90.9545 -90.9545 -90.9545) to (90.9545 90.9545 90.9545)
  2 by 2 by 4 MPI processor grid
  reading atoms ...
  358 atoms
  reading velocities ...
  358 velocities
  scanning bonds ...
  3 = max bonds/atom
  scanning angles ...
  6 = max angles/atom
  scanning dihedrals ...
  9 = max dihedrals/atom
  scanning impropers ...
  1 = max impropers/atom
  reading bonds ...
  357 bonds
  reading angles ...
  656 angles
  reading dihedrals ...
  457 dihedrals
  reading impropers ...
  1 impropers
  4 = max # of 1-2 neighbors
  6 = max # of 1-3 neighbors
  12 = max # of 1-4 neighbors
  14 = max # of special neighbors
  special bonds CPU = 0.00100398 secs
  read_data CPU = 0.0134079 secs
################################################################################

min_style cg
minimize 1e-05 1e-05 10000 100000
WARNING: Using 'neigh_modify every 1 delay 0 check yes' setting during minimization (../min.cpp:190)
PPPM initialization ...
WARNING: System is not charge neutral, net charge = -5e-05 (../kspace.cpp:313)
  using 12-bit tables for long-range coulomb (../kspace.cpp:332)
  G vector (1/distance) = 0.06177
  grid = 9 9 9
  stencil order = 5
  estimated absolute RMS force accuracy = 0.0378546
  estimated relative force accuracy = 0.000113998
  using double precision KISS FFT
  3d grid and FFT values/proc = 800 81
Neighbor list info ...
  update every 1 steps, delay 0 steps, check yes
  max neighbors/atom: 2000, page size: 100000
  master list distance cutoff = 14
  ghost atom cutoff = 14
  binsize = 7, bins = 26 26 26
  1 neighbor lists, perpetual/occasional/extra = 1 0 0
  (1) pair lj/cut/coul/long, perpetual
      attributes: half, newton on
      pair build: half/bin/newton
      stencil: half/bin/3d/newton
      bin: standard
Per MPI rank memory allocation (min/avg/max) = 13.24 | 13.35 | 14.03 Mbytes
Step Temp E_pair E_mol TotEng Press 
       0    259.92349    199.25875    602.04734    1077.9035    1.7912312 
      18    259.92349    197.50792    590.97039    1065.0757    2.7131509 
Loop time of 0.1487 on 16 procs for 18 steps with 358 atoms

88.4% CPU use with 16 MPI tasks x no OpenMP threads

Minimization stats:
  Stopping criterion = linesearch alpha is zero
  Energy initial, next-to-last, final = 
         801.306087643      788.478304576      788.478304576
  Force two-norm initial, final = 48.1934 33.2495
  Force max component initial, final = 16.7011 6.3543
  Final line search alpha, max atom move = 8.74265e-12 5.55534e-11
  Iterations, force evaluations = 18 93

MPI task timing breakdown:
Section |  min time  |  avg time  |  max time  |%varavg| %total
---------------------------------------------------------------
Pair    | 1.5259e-05 | 0.009298   | 0.10591    |  27.2 |  6.25
Bond    | 6.0797e-05 | 0.0010147  | 0.0076864  |   6.7 |  0.68
Kspace  | 0.030656   | 0.13445    | 0.14543    |   7.7 | 90.42
Neigh   | 0          | 0          | 0          |   0.0 |  0.00
Comm    | 5.5552e-05 | 0.00082925 | 0.0020189  |   0.0 |  0.56
Output  | 0          | 0          | 0          |   0.0 |  0.00
Modify  | 0          | 0          | 0          |   0.0 |  0.00
Other   |            | 0.00311    |            |       |  2.09

Nlocal:    22.375 ave 181 max 0 min
Histogram: 13 1 0 0 0 0 0 1 0 1
Nghost:    77.625 ave 221 max 0 min
Histogram: 8 0 1 0 1 0 2 0 2 2
Neighs:    1327.81 ave 14867 max 0 min
Histogram: 14 0 0 1 0 0 0 0 0 1

Total # of neighbors = 21245
Ave neighs/atom = 59.3436
Ave special neighs/atom = 9.87709
Neighbor list builds = 0
Dangerous builds = 0
timestep        1
fix             pysimm_md all nvt temp 300 300 100
run             5000
PPPM initialization ...
  using 12-bit tables for long-range coulomb (../kspace.cpp:332)
  G vector (1/distance) = 0.06177
  grid = 9 9 9
  stencil order = 5
  estimated absolute RMS force accuracy = 0.0378546
  estimated relative force accuracy = 0.000113998
  using double precision KISS FFT
  3d grid and FFT values/proc = 800 81
Per MPI rank memory allocation (min/avg/max) = 12.11 | 12.22 | 12.91 Mbytes
Step Temp E_pair E_mol TotEng Press 
      18    259.92349    197.50792    590.97039    1065.0757    2.7131509 
    5018    282.22755    209.41514    767.43082    1277.1782    2.3801728 
Loop time of 4.82594 on 16 procs for 5000 steps with 358 atoms

Performance: 89.516 ns/day, 0.268 hours/ns, 1036.067 timesteps/s
88.9% CPU use with 16 MPI tasks x no OpenMP threads

MPI task timing breakdown:
Section |  min time  |  avg time  |  max time  |%varavg| %total
---------------------------------------------------------------
Pair    | 0.00087547 | 0.3203     | 2.4206     | 111.3 |  6.64
Bond    | 0.0015004  | 0.045963   | 0.27549    |  34.1 |  0.95
Kspace  | 1.7871     | 3.7714     | 4.1111     |  31.0 | 78.15
Neigh   | 0.087588   | 0.08907    | 0.09158    |   0.5 |  1.85
Comm    | 0.0072732  | 0.19421    | 0.45658    |  44.6 |  4.02
Output  | 4.4107e-05 | 5.0485e-05 | 0.00012898 |   0.0 |  0.00
Modify  | 0.055544   | 0.3598     | 0.59637    |  38.0 |  7.46
Other   |            | 0.04512    |            |       |  0.94

Nlocal:    22.375 ave 161 max 0 min
Histogram: 13 0 1 0 0 0 0 0 1 1
Nghost:    89.375 ave 342 max 0 min
Histogram: 8 0 4 0 0 1 1 0 0 2
Neighs:    2847.75 ave 20968 max 0 min
Histogram: 13 0 1 0 0 0 0 0 1 1

Total # of neighbors = 45564
Ave neighs/atom = 127.274
Ave special neighs/atom = 9.87709
Neighbor list builds = 159
Dangerous builds = 0
unfix pysimm_md
write_dump all custom pysimm.dump.tmp id q x y z vx vy vz
quit


################################################################################
##################################    Init    ##################################
################################################################################
units           real
atom_style      full
pair_style      lj/cut/coul/long 12.0  12.0
kspace_style    pppm 1e-4
bond_style      harmonic
angle_style     harmonic
dihedral_style  fourier
improper_style  cvff
special_bonds   amber
pair_modify     mix arithmetic
read_data       temp.lmps
  orthogonal box = (-91.5451 -91.5451 -91.5451) to (91.5451 91.5451 91.5451)
  2 by 2 by 4 MPI processor grid
  reading atoms ...
  365 atoms
  reading velocities ...
  365 velocities
  scanning bonds ...
  3 = max bonds/atom
  scanning angles ...
  6 = max angles/atom
  scanning dihedrals ...
  9 = max dihedrals/atom
  scanning impropers ...
  1 = max impropers/atom
  reading bonds ...
  364 bonds
  reading angles ...
  669 angles
  reading dihedrals ...
  466 dihedrals
  reading impropers ...
  1 impropers
  4 = max # of 1-2 neighbors
  6 = max # of 1-3 neighbors
  12 = max # of 1-4 neighbors
  14 = max # of special neighbors
  special bonds CPU = 0.000715971 secs
  read_data CPU = 0.0108929 secs
################################################################################

min_style cg
minimize 1e-05 1e-05 10000 100000
WARNING: Using 'neigh_modify every 1 delay 0 check yes' setting during minimization (../min.cpp:190)
PPPM initialization ...
WARNING: System is not charge neutral, net charge = -5.1e-05 (../kspace.cpp:313)
  using 12-bit tables for long-range coulomb (../kspace.cpp:332)
  G vector (1/distance) = 0.0614336
  grid = 9 9 9
  stencil order = 5
  estimated absolute RMS force accuracy = 0.0379933
  estimated relative force accuracy = 0.000114416
  using double precision KISS FFT
  3d grid and FFT values/proc = 800 81
Neighbor list info ...
  update every 1 steps, delay 0 steps, check yes
  max neighbors/atom: 2000, page size: 100000
  master list distance cutoff = 14
  ghost atom cutoff = 14
  binsize = 7, bins = 27 27 27
  1 neighbor lists, perpetual/occasional/extra = 1 0 0
  (1) pair lj/cut/coul/long, perpetual
      attributes: half, newton on
      pair build: half/bin/newton
      stencil: half/bin/3d/newton
      bin: standard
Per MPI rank memory allocation (min/avg/max) = 13.24 | 13.49 | 14.04 Mbytes
Step Temp E_pair E_mol TotEng Press 
       0    333.84516    200.16148    612.82061    1175.2091    2.5657952 
       3    333.84516    200.17312    611.46512    1173.8652    2.7397309 
Loop time of 0.0755447 on 16 procs for 3 steps with 365 atoms

90.1% CPU use with 16 MPI tasks x no OpenMP threads

Minimization stats:
  Stopping criterion = linesearch alpha is zero
  Energy initial, next-to-last, final = 
         812.982094624      811.638240145      811.638240145
  Force two-norm initial, final = 63.1444 38.6516
  Force max component initial, final = 24.0652 11.8108
  Final line search alpha, max atom move = 7.33986e-12 8.66897e-11
  Iterations, force evaluations = 3 65

MPI task timing breakdown:
Section |  min time  |  avg time  |  max time  |%varavg| %total
---------------------------------------------------------------
Pair    | 1.0729e-05 | 0.0109     | 0.056071   |  17.3 | 14.43
Bond    | 4.7922e-05 | 0.0007505  | 0.0028806  |   0.0 |  0.99
Kspace  | 0.01419    | 0.06134    | 0.073482   |   7.7 | 81.20
Neigh   | 0          | 0          | 0          |   0.0 |  0.00
Comm    | 3.6478e-05 | 0.00075252 | 0.0016093  |   0.0 |  1.00
Output  | 0          | 0          | 0          |   0.0 |  0.00
Modify  | 0          | 0          | 0          |   0.0 |  0.00
Other   |            | 0.001802   |            |       |  2.39

Nlocal:    22.8125 ave 88 max 0 min
Histogram: 9 1 0 1 1 1 1 0 1 1
Nghost:    154.188 ave 353 max 0 min
Histogram: 8 0 0 0 0 0 0 2 3 3
Neighs:    2407.88 ave 12137 max 0 min
Histogram: 11 1 1 0 0 1 0 0 0 2

Total # of neighbors = 38526
Ave neighs/atom = 105.551
Ave special neighs/atom = 9.87945
Neighbor list builds = 0
Dangerous builds = 0
timestep        1
fix             pysimm_md all nvt temp 300 300 100
run             5000
PPPM initialization ...
  using 12-bit tables for long-range coulomb (../kspace.cpp:332)
  G vector (1/distance) = 0.0614336
  grid = 9 9 9
  stencil order = 5
  estimated absolute RMS force accuracy = 0.0379933
  estimated relative force accuracy = 0.000114416
  using double precision KISS FFT
  3d grid and FFT values/proc = 800 81
Per MPI rank memory allocation (min/avg/max) = 12.11 | 12.37 | 12.92 Mbytes
Step Temp E_pair E_mol TotEng Press 
       3    333.84516    200.17312    611.46512    1173.8652    2.7397309 
    5003    315.97022    203.63375    834.85501    1381.3212   -1.1061837 
Loop time of 4.57423 on 16 procs for 5000 steps with 365 atoms

Performance: 94.442 ns/day, 0.254 hours/ns, 1093.079 timesteps/s
90.1% CPU use with 16 MPI tasks x no OpenMP threads

MPI task timing breakdown:
Section |  min time  |  avg time  |  max time  |%varavg| %total
---------------------------------------------------------------
Pair    | 0.00082183 | 0.48204    | 2.6399     |  99.9 | 10.54
Bond    | 0.0014443  | 0.04856    | 0.19531    |  25.9 |  1.06
Kspace  | 1.4117     | 3.5221     | 4.0276     |  36.4 | 77.00
Neigh   | 0.086992   | 0.088739   | 0.09056    |   0.4 |  1.94
Comm    | 0.007421   | 0.15095    | 0.3526     |  38.8 |  3.30
Output  | 4.5061e-05 | 4.6566e-05 | 5.3883e-05 |   0.0 |  0.00
Modify  | 0.03737    | 0.23608    | 0.42974    |  37.9 |  5.16
Other   |            | 0.04568    |            |       |  1.00

Nlocal:    22.8125 ave 123 max 0 min
Histogram: 11 0 1 2 0 0 0 0 1 1
Nghost:    151.688 ave 347 max 0 min
Histogram: 8 0 0 0 0 0 2 0 2 4
Neighs:    2868 ave 22611 max 0 min
Histogram: 11 3 0 0 1 0 0 0 0 1

Total # of neighbors = 45888
Ave neighs/atom = 125.721
Ave special neighs/atom = 9.87945
Neighbor list builds = 140
Dangerous builds = 0
unfix pysimm_md
write_dump all custom pysimm.dump.tmp id q x y z vx vy vz
quit
