

################################################################################
##################################    Init    ##################################
################################################################################
units           real
atom_style      full
pair_style      lj/cut/coul/long 12.0  12.0
kspace_style    pppm 1e-4
bond_style      harmonic
angle_style     harmonic
dihedral_style  fourier
improper_style  cvff
special_bonds   amber
pair_modify     mix arithmetic
read_data       temp.lmps
  orthogonal box = (-100.744 -100.744 -100.744) to (100.744 100.744 100.744)
  1 by 1 by 1 MPI processor grid
  reading atoms ...
  622 atoms
  reading velocities ...
  622 velocities
  scanning bonds ...
  4 = max bonds/atom
  scanning angles ...
  6 = max angles/atom
  scanning dihedrals ...
  21 = max dihedrals/atom
  scanning impropers ...
  1 = max impropers/atom
  reading bonds ...
  641 bonds
  reading angles ...
  1171 angles
  reading dihedrals ...
  1637 dihedrals
  reading impropers ...
  40 impropers
  4 = max # of 1-2 neighbors
  7 = max # of 1-3 neighbors
  18 = max # of 1-4 neighbors
  21 = max # of special neighbors
  special bonds CPU = 0.000486135 secs
  read_data CPU = 0.00929499 secs
################################################################################

min_style cg
minimize 1e-06 1e-06 1000000 10000000
WARNING: Using 'neigh_modify every 1 delay 0 check yes' setting during minimization (../min.cpp:190)
PPPM initialization ...
WARNING: System is not charge neutral, net charge = -3e-05 (../kspace.cpp:313)
  using 12-bit tables for long-range coulomb (../kspace.cpp:332)
  G vector (1/distance) = 0.119675
  grid = 24 24 24
  stencil order = 5
  estimated absolute RMS force accuracy = 0.027374
  estimated relative force accuracy = 8.2436e-05
  using double precision KISS FFT
  3d grid and FFT values/proc = 24389 13824
Neighbor list info ...
  update every 1 steps, delay 0 steps, check yes
  max neighbors/atom: 2000, page size: 100000
  master list distance cutoff = 14
  ghost atom cutoff = 14
  binsize = 7, bins = 29 29 29
  1 neighbor lists, perpetual/occasional/extra = 1 0 0
  (1) pair lj/cut/coul/long, perpetual
      attributes: half, newton on
      pair build: half/bin/newton
      stencil: half/bin/3d/newton
      bin: standard
Per MPI rank memory allocation (min/avg/max) = 19.96 | 19.96 | 19.96 Mbytes
Step Temp E_pair E_mol TotEng Press 
       0    90.409855   -694.40501    848.91824    321.86937   -2.6449704 
       3    90.409855   -694.40501    848.25595    321.20708   -2.6449929 
Loop time of 1.01736 on 1 procs for 3 steps with 622 atoms

100.0% CPU use with 1 MPI tasks x no OpenMP threads

Minimization stats:
  Stopping criterion = energy tolerance
  Energy initial, next-to-last, final = 
         154.513223472      153.850934522      153.850934522
  Force two-norm initial, final = 8.24313e+14 4.77244e+13
  Force max component initial, final = 6.454e+14 3.598e+13
  Final line search alpha, max atom move = 1.97483e-29 7.10543e-16
  Iterations, force evaluations = 3 232

MPI task timing breakdown:
Section |  min time  |  avg time  |  max time  |%varavg| %total
---------------------------------------------------------------
Pair    | 0.34119    | 0.34119    | 0.34119    |   0.0 | 33.54
Bond    | 0.045194   | 0.045194   | 0.045194   |   0.0 |  4.44
Kspace  | 0.62947    | 0.62947    | 0.62947    |   0.0 | 61.87
Neigh   | 0          | 0          | 0          |   0.0 |  0.00
Comm    | 4.1008e-05 | 4.1008e-05 | 4.1008e-05 |   0.0 |  0.00
Output  | 0          | 0          | 0          |   0.0 |  0.00
Modify  | 0          | 0          | 0          |   0.0 |  0.00
Other   |            | 0.001468   |            |       |  0.14

Nlocal:    622 ave 622 max 622 min
Histogram: 1 0 0 0 0 0 0 0 0 0
Nghost:    0 ave 0 max 0 min
Histogram: 1 0 0 0 0 0 0 0 0 0
Neighs:    52658 ave 52658 max 52658 min
Histogram: 1 0 0 0 0 0 0 0 0 0

Total # of neighbors = 52658
Ave neighs/atom = 84.6592
Ave special neighs/atom = 10.926
Neighbor list builds = 0
Dangerous builds = 0
write_dump all custom pysimm.dump.tmp id q x y z vx vy vz
quit


################################################################################
##################################    Init    ##################################
################################################################################
units           real
atom_style      full
pair_style      lj/cut/coul/long 12.0  12.0
kspace_style    pppm 1e-4
bond_style      harmonic
angle_style     harmonic
dihedral_style  fourier
improper_style  cvff
special_bonds   amber
pair_modify     mix arithmetic
read_data       temp.lmps
  orthogonal box = (-126.929 -126.929 -126.929) to (126.929 126.929 126.929)
  1 by 1 by 1 MPI processor grid
  reading atoms ...
  684 atoms
  reading velocities ...
  684 velocities
  scanning bonds ...
  4 = max bonds/atom
  scanning angles ...
  6 = max angles/atom
  scanning dihedrals ...
  21 = max dihedrals/atom
  scanning impropers ...
  1 = max impropers/atom
  reading bonds ...
  705 bonds
  reading angles ...
  1288 angles
  reading dihedrals ...
  1801 dihedrals
  reading impropers ...
  44 impropers
  4 = max # of 1-2 neighbors
  7 = max # of 1-3 neighbors
  18 = max # of 1-4 neighbors
  21 = max # of special neighbors
  special bonds CPU = 0.00134087 secs
  read_data CPU = 0.020853 secs
################################################################################

min_style cg
minimize 1e-06 1e-06 1000000 10000000
WARNING: Using 'neigh_modify every 1 delay 0 check yes' setting during minimization (../min.cpp:190)
PPPM initialization ...
WARNING: System is not charge neutral, net charge = -3.3e-05 (../kspace.cpp:313)
  using 12-bit tables for long-range coulomb (../kspace.cpp:332)
  G vector (1/distance) = 0.10239
  grid = 24 24 24
  stencil order = 5
  estimated absolute RMS force accuracy = 0.0352896
  estimated relative force accuracy = 0.000106273
  using double precision KISS FFT
  3d grid and FFT values/proc = 24389 13824
Neighbor list info ...
  update every 1 steps, delay 0 steps, check yes
  max neighbors/atom: 2000, page size: 100000
  master list distance cutoff = 14
  ghost atom cutoff = 14
  binsize = 7, bins = 37 37 37
  1 neighbor lists, perpetual/occasional/extra = 1 0 0
  (1) pair lj/cut/coul/long, perpetual
      attributes: half, newton on
      pair build: half/bin/newton
      stencil: half/bin/3d/newton
      bin: standard
Per MPI rank memory allocation (min/avg/max) = 20.1 | 20.1 | 20.1 Mbytes
Step Temp E_pair E_mol TotEng Press 
       0    617.19806   -673.84717    1047.1003    1629.8025    1.9842774 
      18    617.19806   -678.73902    783.03852    1360.8489    3.5251877 
Loop time of 1.15487 on 1 procs for 18 steps with 684 atoms

100.0% CPU use with 1 MPI tasks x no OpenMP threads

Minimization stats:
  Stopping criterion = linesearch alpha is zero
  Energy initial, next-to-last, final = 
         373.253122189      104.299500875      104.299500875
  Force two-norm initial, final = 6.99557e+14 44.8266
  Force max component initial, final = 4.02419e+14 9.55471
  Final line search alpha, max atom move = 4.63868e-12 4.43212e-11
  Iterations, force evaluations = 18 131

MPI task timing breakdown:
Section |  min time  |  avg time  |  max time  |%varavg| %total
---------------------------------------------------------------
Pair    | 0.41159    | 0.41159    | 0.41159    |   0.0 | 35.64
Bond    | 0.054199   | 0.054199   | 0.054199   |   0.0 |  4.69
Kspace  | 0.68458    | 0.68458    | 0.68458    |   0.0 | 59.28
Neigh   | 0.00225    | 0.00225    | 0.00225    |   0.0 |  0.19
Comm    | 7.5102e-05 | 7.5102e-05 | 7.5102e-05 |   0.0 |  0.01
Output  | 0          | 0          | 0          |   0.0 |  0.00
Modify  | 0          | 0          | 0          |   0.0 |  0.00
Other   |            | 0.002176   |            |       |  0.19

Nlocal:    684 ave 684 max 684 min
Histogram: 1 0 0 0 0 0 0 0 0 0
Nghost:    0 ave 0 max 0 min
Histogram: 1 0 0 0 0 0 0 0 0 0
Neighs:    58438 ave 58438 max 58438 min
Histogram: 1 0 0 0 0 0 0 0 0 0

Total # of neighbors = 58438
Ave neighs/atom = 85.4357
Ave special neighs/atom = 10.9298
Neighbor list builds = 1
Dangerous builds = 0
write_dump all custom pysimm.dump.tmp id q x y z vx vy vz
quit


################################################################################
##################################    Init    ##################################
################################################################################
units           real
atom_style      full
pair_style      lj/cut/coul/long 12.0  12.0
kspace_style    pppm 1e-4
bond_style      harmonic
angle_style     harmonic
dihedral_style  fourier
improper_style  cvff
special_bonds   amber
pair_modify     mix arithmetic
read_data       temp.lmps
  orthogonal box = (-131.026 -131.026 -131.026) to (131.026 131.026 131.026)
  1 by 1 by 1 MPI processor grid
  reading atoms ...
  746 atoms
  reading velocities ...
  746 velocities
  scanning bonds ...
  4 = max bonds/atom
  scanning angles ...
  6 = max angles/atom
  scanning dihedrals ...
  21 = max dihedrals/atom
  scanning impropers ...
  1 = max impropers/atom
  reading bonds ...
  769 bonds
  reading angles ...
  1405 angles
  reading dihedrals ...
  1965 dihedrals
  reading impropers ...
  48 impropers
  4 = max # of 1-2 neighbors
  7 = max # of 1-3 neighbors
  18 = max # of 1-4 neighbors
  21 = max # of special neighbors
  special bonds CPU = 0.000766993 secs
  read_data CPU = 0.0120251 secs
################################################################################

min_style cg
minimize 1e-06 1e-06 1000000 10000000
WARNING: Using 'neigh_modify every 1 delay 0 check yes' setting during minimization (../min.cpp:190)
PPPM initialization ...
WARNING: System is not charge neutral, net charge = -3.6e-05 (../kspace.cpp:313)
  using 12-bit tables for long-range coulomb (../kspace.cpp:332)
  G vector (1/distance) = 0.103046
  grid = 25 25 25
  stencil order = 5
  estimated absolute RMS force accuracy = 0.0344734
  estimated relative force accuracy = 0.000103816
  using double precision KISS FFT
  3d grid and FFT values/proc = 27000 15625
Neighbor list info ...
  update every 1 steps, delay 0 steps, check yes
  max neighbors/atom: 2000, page size: 100000
  master list distance cutoff = 14
  ghost atom cutoff = 14
  binsize = 7, bins = 38 38 38
  1 neighbor lists, perpetual/occasional/extra = 1 0 0
  (1) pair lj/cut/coul/long, perpetual
      attributes: half, newton on
      pair build: half/bin/newton
      stencil: half/bin/3d/newton
      bin: standard
Per MPI rank memory allocation (min/avg/max) = 20.38 | 20.38 | 20.38 Mbytes
Step Temp E_pair E_mol TotEng Press 
       0    688.22661    -721.9799    1161.4831    1967.8504    1.9649786 
       1    688.22661    -721.9799    1161.4831    1967.8504    1.9649786 
Loop time of 0.538298 on 1 procs for 1 steps with 746 atoms

99.9% CPU use with 1 MPI tasks x no OpenMP threads

Minimization stats:
  Stopping criterion = quadratic factors are zero
  Energy initial, next-to-last, final = 
          439.50315668       439.50315668       439.50315668
  Force two-norm initial, final = 5.85097e+14 5.85097e+14
  Force max component initial, final = 3.3611e+14 3.3611e+14
  Final line search alpha, max atom move = 1.05701e-30 3.55271e-16
  Iterations, force evaluations = 1 76

MPI task timing breakdown:
Section |  min time  |  avg time  |  max time  |%varavg| %total
---------------------------------------------------------------
Pair    | 0.18184    | 0.18184    | 0.18184    |   0.0 | 33.78
Bond    | 0.025415   | 0.025415   | 0.025415   |   0.0 |  4.72
Kspace  | 0.33025    | 0.33025    | 0.33025    |   0.0 | 61.35
Neigh   | 0          | 0          | 0          |   0.0 |  0.00
Comm    | 1.7881e-05 | 1.7881e-05 | 1.7881e-05 |   0.0 |  0.00
Output  | 0          | 0          | 0          |   0.0 |  0.00
Modify  | 0          | 0          | 0          |   0.0 |  0.00
Other   |            | 0.0007758  |            |       |  0.14

Nlocal:    746 ave 746 max 746 min
Histogram: 1 0 0 0 0 0 0 0 0 0
Nghost:    0 ave 0 max 0 min
Histogram: 1 0 0 0 0 0 0 0 0 0
Neighs:    61418 ave 61418 max 61418 min
Histogram: 1 0 0 0 0 0 0 0 0 0

Total # of neighbors = 61418
Ave neighs/atom = 82.3298
Ave special neighs/atom = 10.933
Neighbor list builds = 0
Dangerous builds = 0
write_dump all custom pysimm.dump.tmp id q x y z vx vy vz
quit


################################################################################
##################################    Init    ##################################
################################################################################
units           real
atom_style      full
pair_style      lj/cut/coul/long 12.0  12.0
kspace_style    pppm 1e-4
bond_style      harmonic
angle_style     harmonic
dihedral_style  fourier
improper_style  cvff
special_bonds   amber
pair_modify     mix arithmetic
read_data       temp.lmps
  orthogonal box = (-134.882 -134.882 -134.882) to (134.882 134.882 134.882)
  1 by 1 by 1 MPI processor grid
  reading atoms ...
  808 atoms
  reading velocities ...
  808 velocities
  scanning bonds ...
  4 = max bonds/atom
  scanning angles ...
  6 = max angles/atom
  scanning dihedrals ...
  21 = max dihedrals/atom
  scanning impropers ...
  1 = max impropers/atom
  reading bonds ...
  833 bonds
  reading angles ...
  1522 angles
  reading dihedrals ...
  2129 dihedrals
  reading impropers ...
  52 impropers
  4 = max # of 1-2 neighbors
  7 = max # of 1-3 neighbors
  18 = max # of 1-4 neighbors
  21 = max # of special neighbors
  special bonds CPU = 0.000778913 secs
  read_data CPU = 0.0130961 secs
################################################################################

min_style cg
minimize 1e-06 1e-06 1000000 10000000
WARNING: Using 'neigh_modify every 1 delay 0 check yes' setting during minimization (../min.cpp:190)
PPPM initialization ...
WARNING: System is not charge neutral, net charge = -3.9e-05 (../kspace.cpp:313)
  using 12-bit tables for long-range coulomb (../kspace.cpp:332)
  G vector (1/distance) = 0.100952
  grid = 25 25 25
  stencil order = 5
  estimated absolute RMS force accuracy = 0.0365344
  estimated relative force accuracy = 0.000110022
  using double precision KISS FFT
  3d grid and FFT values/proc = 27000 15625
Neighbor list info ...
  update every 1 steps, delay 0 steps, check yes
  max neighbors/atom: 2000, page size: 100000
  master list distance cutoff = 14
  ghost atom cutoff = 14
  binsize = 7, bins = 39 39 39
  1 neighbor lists, perpetual/occasional/extra = 1 0 0
  (1) pair lj/cut/coul/long, perpetual
      attributes: half, newton on
      pair build: half/bin/newton
      stencil: half/bin/3d/newton
      bin: standard
Per MPI rank memory allocation (min/avg/max) = 20.41 | 20.41 | 20.41 Mbytes
Step Temp E_pair E_mol TotEng Press 
       0    635.59036   -820.95021    1178.9868    1886.9579     1.854208 
      34    635.59036   -834.59056    900.55695    1594.8877    3.2099339 
Loop time of 1.70944 on 1 procs for 34 steps with 808 atoms

100.0% CPU use with 1 MPI tasks x no OpenMP threads

Minimization stats:
  Stopping criterion = linesearch alpha is zero
  Energy initial, next-to-last, final = 
          358.03658836      65.9663919841      65.9663919841
  Force two-norm initial, final = 6.25245e+14 45.6847
  Force max component initial, final = 3.57592e+14 8.70554
  Final line search alpha, max atom move = 4.73692e-12 4.12375e-11
  Iterations, force evaluations = 34 249

MPI task timing breakdown:
Section |  min time  |  avg time  |  max time  |%varavg| %total
---------------------------------------------------------------
Pair    | 0.66751    | 0.66751    | 0.66751    |   0.0 | 39.05
Bond    | 0.079013   | 0.079013   | 0.079013   |   0.0 |  4.62
Kspace  | 0.95791    | 0.95791    | 0.95791    |   0.0 | 56.04
Neigh   | 0.001914   | 0.001914   | 0.001914   |   0.0 |  0.11
Comm    | 7.5817e-05 | 7.5817e-05 | 7.5817e-05 |   0.0 |  0.00
Output  | 0          | 0          | 0          |   0.0 |  0.00
Modify  | 0          | 0          | 0          |   0.0 |  0.00
Other   |            | 0.003016   |            |       |  0.18

Nlocal:    808 ave 808 max 808 min
Histogram: 1 0 0 0 0 0 0 0 0 0
Nghost:    0 ave 0 max 0 min
Histogram: 1 0 0 0 0 0 0 0 0 0
Neighs:    77570 ave 77570 max 77570 min
Histogram: 1 0 0 0 0 0 0 0 0 0

Total # of neighbors = 77570
Ave neighs/atom = 96.0025
Ave special neighs/atom = 10.9356
Neighbor list builds = 1
Dangerous builds = 0
write_dump all custom pysimm.dump.tmp id q x y z vx vy vz
quit


################################################################################
##################################    Init    ##################################
################################################################################
units           real
atom_style      full
pair_style      lj/cut/coul/long 12.0  12.0
kspace_style    pppm 1e-4
bond_style      harmonic
angle_style     harmonic
dihedral_style  fourier
improper_style  cvff
special_bonds   amber
pair_modify     mix arithmetic
read_data       temp.lmps
  orthogonal box = (-100.744 -100.744 -100.744) to (100.744 100.744 100.744)
  1 by 1 by 1 MPI processor grid
  reading atoms ...
  622 atoms
  reading velocities ...
  622 velocities
  scanning bonds ...
  4 = max bonds/atom
  scanning angles ...
  6 = max angles/atom
  scanning dihedrals ...
  21 = max dihedrals/atom
  scanning impropers ...
  1 = max impropers/atom
  reading bonds ...
  641 bonds
  reading angles ...
  1180 angles
  reading dihedrals ...
  1637 dihedrals
  reading impropers ...
  40 impropers
  4 = max # of 1-2 neighbors
  7 = max # of 1-3 neighbors
  18 = max # of 1-4 neighbors
  21 = max # of special neighbors
  special bonds CPU = 0.00128198 secs
  read_data CPU = 0.018923 secs
################################################################################

min_style cg
minimize 1e-06 1e-06 1000000 10000000
WARNING: Using 'neigh_modify every 1 delay 0 check yes' setting during minimization (../min.cpp:190)
PPPM initialization ...
WARNING: System is not charge neutral, net charge = -3e-05 (../kspace.cpp:313)
  using 12-bit tables for long-range coulomb (../kspace.cpp:332)
  G vector (1/distance) = 0.119675
  grid = 24 24 24
  stencil order = 5
  estimated absolute RMS force accuracy = 0.027374
  estimated relative force accuracy = 8.2436e-05
  using double precision KISS FFT
  3d grid and FFT values/proc = 24389 13824
Neighbor list info ...
  update every 1 steps, delay 0 steps, check yes
  max neighbors/atom: 2000, page size: 100000
  master list distance cutoff = 14
  ghost atom cutoff = 14
  binsize = 7, bins = 29 29 29
  1 neighbor lists, perpetual/occasional/extra = 1 0 0
  (1) pair lj/cut/coul/long, perpetual
      attributes: half, newton on
      pair build: half/bin/newton
      stencil: half/bin/3d/newton
      bin: standard
Per MPI rank memory allocation (min/avg/max) = 19.96 | 19.96 | 19.96 Mbytes
Step Temp E_pair E_mol TotEng Press 
       0     100.7724   -689.41024    875.18978    372.31763   -1.7914705 
       2     100.7724   -689.41024    875.05714    372.18499   -1.7913381 
Loop time of 1.22726 on 1 procs for 2 steps with 622 atoms

100.0% CPU use with 1 MPI tasks x no OpenMP threads

Minimization stats:
  Stopping criterion = quadratic factors are zero
  Energy initial, next-to-last, final = 
          185.77954136      185.646901277      185.646901277
  Force two-norm initial, final = 1.03904e+15 2.42496e+14
  Force max component initial, final = 7.46393e+14 1.57008e+14
  Final line search alpha, max atom move = 2.26276e-30 3.55271e-16
  Iterations, force evaluations = 2 168

MPI task timing breakdown:
Section |  min time  |  avg time  |  max time  |%varavg| %total
---------------------------------------------------------------
Pair    | 0.42355    | 0.42355    | 0.42355    |   0.0 | 34.51
Bond    | 0.05359    | 0.05359    | 0.05359    |   0.0 |  4.37
Kspace  | 0.74838    | 0.74838    | 0.74838    |   0.0 | 60.98
Neigh   | 0          | 0          | 0          |   0.0 |  0.00
Comm    | 5.2214e-05 | 5.2214e-05 | 5.2214e-05 |   0.0 |  0.00
Output  | 0          | 0          | 0          |   0.0 |  0.00
Modify  | 0          | 0          | 0          |   0.0 |  0.00
Other   |            | 0.001677   |            |       |  0.14

Nlocal:    622 ave 622 max 622 min
Histogram: 1 0 0 0 0 0 0 0 0 0
Nghost:    0 ave 0 max 0 min
Histogram: 1 0 0 0 0 0 0 0 0 0
Neighs:    53759 ave 53759 max 53759 min
Histogram: 1 0 0 0 0 0 0 0 0 0

Total # of neighbors = 53759
Ave neighs/atom = 86.4293
Ave special neighs/atom = 10.926
Neighbor list builds = 0
Dangerous builds = 0
write_dump all custom pysimm.dump.tmp id q x y z vx vy vz
quit


################################################################################
##################################    Init    ##################################
################################################################################
units           real
atom_style      full
pair_style      lj/cut/coul/long 12.0  12.0
kspace_style    pppm 1e-4
bond_style      harmonic
angle_style     harmonic
dihedral_style  fourier
improper_style  cvff
special_bonds   amber
pair_modify     mix arithmetic
read_data       temp.lmps
  orthogonal box = (-126.929 -126.929 -126.929) to (126.929 126.929 126.929)
  1 by 1 by 1 MPI processor grid
  reading atoms ...
  684 atoms
  reading velocities ...
  684 velocities
  scanning bonds ...
  4 = max bonds/atom
  scanning angles ...
  6 = max angles/atom
  scanning dihedrals ...
  21 = max dihedrals/atom
  scanning impropers ...
  1 = max impropers/atom
  reading bonds ...
  705 bonds
  reading angles ...
  1298 angles
  reading dihedrals ...
  1801 dihedrals
  reading impropers ...
  44 impropers
  4 = max # of 1-2 neighbors
  7 = max # of 1-3 neighbors
  18 = max # of 1-4 neighbors
  21 = max # of special neighbors
  special bonds CPU = 0.000732899 secs
  read_data CPU = 0.012784 secs
################################################################################

min_style cg
minimize 1e-06 1e-06 1000000 10000000
WARNING: Using 'neigh_modify every 1 delay 0 check yes' setting during minimization (../min.cpp:190)
PPPM initialization ...
WARNING: System is not charge neutral, net charge = -3.3e-05 (../kspace.cpp:313)
  using 12-bit tables for long-range coulomb (../kspace.cpp:332)
  G vector (1/distance) = 0.10239
  grid = 24 24 24
  stencil order = 5
  estimated absolute RMS force accuracy = 0.0352896
  estimated relative force accuracy = 0.000106273
  using double precision KISS FFT
  3d grid and FFT values/proc = 24389 13824
Neighbor list info ...
  update every 1 steps, delay 0 steps, check yes
  max neighbors/atom: 2000, page size: 100000
  master list distance cutoff = 14
  ghost atom cutoff = 14
  binsize = 7, bins = 37 37 37
  1 neighbor lists, perpetual/occasional/extra = 1 0 0
  (1) pair lj/cut/coul/long, perpetual
      attributes: half, newton on
      pair build: half/bin/newton
      stencil: half/bin/3d/newton
      bin: standard
Per MPI rank memory allocation (min/avg/max) = 20.1 | 20.1 | 20.1 Mbytes
Step Temp E_pair E_mol TotEng Press 
       0    704.07955    -666.9043    1045.9925    1812.5191    1.7368039 
       3    704.07955    -666.9043    1045.5441    1812.0706    1.7368111 
Loop time of 1.35357 on 1 procs for 3 steps with 684 atoms

100.0% CPU use with 1 MPI tasks x no OpenMP threads

Minimization stats:
  Stopping criterion = quadratic factors are zero
  Energy initial, next-to-last, final = 
         379.088240027      378.639809449      378.639809449
  Force two-norm initial, final = 3.81281e+14 1.1089e+13
  Force max component initial, final = 2.65047e+14 7.01355e+12
  Final line search alpha, max atom move = 5.0655e-29 3.55271e-16
  Iterations, force evaluations = 3 226

MPI task timing breakdown:
Section |  min time  |  avg time  |  max time  |%varavg| %total
---------------------------------------------------------------
Pair    | 0.48229    | 0.48229    | 0.48229    |   0.0 | 35.63
Bond    | 0.063123   | 0.063123   | 0.063123   |   0.0 |  4.66
Kspace  | 0.80617    | 0.80617    | 0.80617    |   0.0 | 59.56
Neigh   | 0          | 0          | 0          |   0.0 |  0.00
Comm    | 5.8413e-05 | 5.8413e-05 | 5.8413e-05 |   0.0 |  0.00
Output  | 0          | 0          | 0          |   0.0 |  0.00
Modify  | 0          | 0          | 0          |   0.0 |  0.00
Other   |            | 0.001923   |            |       |  0.14

Nlocal:    684 ave 684 max 684 min
Histogram: 1 0 0 0 0 0 0 0 0 0
Nghost:    0 ave 0 max 0 min
Histogram: 1 0 0 0 0 0 0 0 0 0
Neighs:    58716 ave 58716 max 58716 min
Histogram: 1 0 0 0 0 0 0 0 0 0

Total # of neighbors = 58716
Ave neighs/atom = 85.8421
Ave special neighs/atom = 10.9298
Neighbor list builds = 0
Dangerous builds = 0
write_dump all custom pysimm.dump.tmp id q x y z vx vy vz
quit


################################################################################
##################################    Init    ##################################
################################################################################
units           real
atom_style      full
pair_style      lj/cut/coul/long 12.0  12.0
kspace_style    pppm 1e-4
bond_style      harmonic
angle_style     harmonic
dihedral_style  fourier
improper_style  cvff
special_bonds   amber
pair_modify     mix arithmetic
read_data       temp.lmps
  orthogonal box = (-131.026 -131.026 -131.026) to (131.026 131.026 131.026)
  1 by 1 by 1 MPI processor grid
  reading atoms ...
  746 atoms
  reading velocities ...
  746 velocities
  scanning bonds ...
  4 = max bonds/atom
  scanning angles ...
  6 = max angles/atom
  scanning dihedrals ...
  21 = max dihedrals/atom
  scanning impropers ...
  1 = max impropers/atom
  reading bonds ...
  769 bonds
  reading angles ...
  1416 angles
  reading dihedrals ...
  1965 dihedrals
  reading impropers ...
  48 impropers
  4 = max # of 1-2 neighbors
  7 = max # of 1-3 neighbors
  18 = max # of 1-4 neighbors
  21 = max # of special neighbors
  special bonds CPU = 0.00140285 secs
  read_data CPU = 0.019624 secs
################################################################################

min_style cg
minimize 1e-06 1e-06 1000000 10000000
WARNING: Using 'neigh_modify every 1 delay 0 check yes' setting during minimization (../min.cpp:190)
PPPM initialization ...
WARNING: System is not charge neutral, net charge = -3.6e-05 (../kspace.cpp:313)
  using 12-bit tables for long-range coulomb (../kspace.cpp:332)
  G vector (1/distance) = 0.103046
  grid = 25 25 25
  stencil order = 5
  estimated absolute RMS force accuracy = 0.0344734
  estimated relative force accuracy = 0.000103816
  using double precision KISS FFT
  3d grid and FFT values/proc = 27000 15625
Neighbor list info ...
  update every 1 steps, delay 0 steps, check yes
  max neighbors/atom: 2000, page size: 100000
  master list distance cutoff = 14
  ghost atom cutoff = 14
  binsize = 7, bins = 38 38 38
  1 neighbor lists, perpetual/occasional/extra = 1 0 0
  (1) pair lj/cut/coul/long, perpetual
      attributes: half, newton on
      pair build: half/bin/newton
      stencil: half/bin/3d/newton
      bin: standard
Per MPI rank memory allocation (min/avg/max) = 20.38 | 20.38 | 20.38 Mbytes
Step Temp E_pair E_mol TotEng Press 
       0    710.12616   -717.17815    1179.8614    2039.6629    1.8659189 
      65    710.12616   -746.44349    841.78197    1672.3181    3.3076474 
Loop time of 2.85871 on 1 procs for 65 steps with 746 atoms

100.1% CPU use with 1 MPI tasks x no OpenMP threads

Minimization stats:
  Stopping criterion = linesearch alpha is zero
  Energy initial, next-to-last, final = 
          462.68325852      95.3384876265      95.3384876265
  Force two-norm initial, final = 2.46551e+14 46.5019
  Force max component initial, final = 1.72504e+14 15.8186
  Final line search alpha, max atom move = 5.27747e-12 8.34824e-11
  Iterations, force evaluations = 65 370

MPI task timing breakdown:
Section |  min time  |  avg time  |  max time  |%varavg| %total
---------------------------------------------------------------
Pair    | 1.0176     | 1.0176     | 1.0176     |   0.0 | 35.60
Bond    | 0.13176    | 0.13176    | 0.13176    |   0.0 |  4.61
Kspace  | 1.6975     | 1.6975     | 1.6975     |   0.0 | 59.38
Neigh   | 0.006346   | 0.006346   | 0.006346   |   0.0 |  0.22
Comm    | 0.00015259 | 0.00015259 | 0.00015259 |   0.0 |  0.01
Output  | 0          | 0          | 0          |   0.0 |  0.00
Modify  | 0          | 0          | 0          |   0.0 |  0.00
Other   |            | 0.005399   |            |       |  0.19

Nlocal:    746 ave 746 max 746 min
Histogram: 1 0 0 0 0 0 0 0 0 0
Nghost:    0 ave 0 max 0 min
Histogram: 1 0 0 0 0 0 0 0 0 0
Neighs:    65490 ave 65490 max 65490 min
Histogram: 1 0 0 0 0 0 0 0 0 0

Total # of neighbors = 65490
Ave neighs/atom = 87.7882
Ave special neighs/atom = 10.933
Neighbor list builds = 3
Dangerous builds = 0
write_dump all custom pysimm.dump.tmp id q x y z vx vy vz
quit


################################################################################
##################################    Init    ##################################
################################################################################
units           real
atom_style      full
pair_style      lj/cut/coul/long 12.0  12.0
kspace_style    pppm 1e-4
bond_style      harmonic
angle_style     harmonic
dihedral_style  fourier
improper_style  cvff
special_bonds   amber
pair_modify     mix arithmetic
read_data       temp.lmps
  orthogonal box = (-134.882 -134.882 -134.882) to (134.882 134.882 134.882)
  1 by 1 by 1 MPI processor grid
  reading atoms ...
  808 atoms
  reading velocities ...
  808 velocities
  scanning bonds ...
  4 = max bonds/atom
  scanning angles ...
  6 = max angles/atom
  scanning dihedrals ...
  21 = max dihedrals/atom
  scanning impropers ...
  1 = max impropers/atom
  reading bonds ...
  833 bonds
  reading angles ...
  1534 angles
  reading dihedrals ...
  2129 dihedrals
  reading impropers ...
  52 impropers
  4 = max # of 1-2 neighbors
  7 = max # of 1-3 neighbors
  18 = max # of 1-4 neighbors
  21 = max # of special neighbors
  special bonds CPU = 0.000785112 secs
  read_data CPU = 0.013072 secs
################################################################################

min_style cg
minimize 1e-06 1e-06 1000000 10000000
WARNING: Using 'neigh_modify every 1 delay 0 check yes' setting during minimization (../min.cpp:190)
PPPM initialization ...
WARNING: System is not charge neutral, net charge = -3.9e-05 (../kspace.cpp:313)
  using 12-bit tables for long-range coulomb (../kspace.cpp:332)
  G vector (1/distance) = 0.100952
  grid = 25 25 25
  stencil order = 5
  estimated absolute RMS force accuracy = 0.0365344
  estimated relative force accuracy = 0.000110022
  using double precision KISS FFT
  3d grid and FFT values/proc = 27000 15625
Neighbor list info ...
  update every 1 steps, delay 0 steps, check yes
  max neighbors/atom: 2000, page size: 100000
  master list distance cutoff = 14
  ghost atom cutoff = 14
  binsize = 7, bins = 39 39 39
  1 neighbor lists, perpetual/occasional/extra = 1 0 0
  (1) pair lj/cut/coul/long, perpetual
      attributes: half, newton on
      pair build: half/bin/newton
      stencil: half/bin/3d/newton
      bin: standard
Per MPI rank memory allocation (min/avg/max) = 20.41 | 20.41 | 20.41 Mbytes
Step Temp E_pair E_mol TotEng Press 
       0    748.62513   -787.88001    1223.4075    2236.3556    2.1167364 
       1    748.62513   -787.88001    1223.4075    2236.3556    2.1167364 
Loop time of 0.567734 on 1 procs for 1 steps with 808 atoms

100.2% CPU use with 1 MPI tasks x no OpenMP threads

Minimization stats:
  Stopping criterion = energy tolerance
  Energy initial, next-to-last, final = 
         435.527532898      435.527532898      435.527532898
  Force two-norm initial, final = 4.4296e+13 4.4296e+13
  Force max component initial, final = 3.45272e+13 3.45272e+13
  Final line search alpha, max atom move = 4.11585e-29 1.42109e-15
  Iterations, force evaluations = 1 74

MPI task timing breakdown:
Section |  min time  |  avg time  |  max time  |%varavg| %total
---------------------------------------------------------------
Pair    | 0.215      | 0.215      | 0.215      |   0.0 | 37.87
Bond    | 0.026803   | 0.026803   | 0.026803   |   0.0 |  4.72
Kspace  | 0.32509    | 0.32509    | 0.32509    |   0.0 | 57.26
Neigh   | 0          | 0          | 0          |   0.0 |  0.00
Comm    | 2.1696e-05 | 2.1696e-05 | 2.1696e-05 |   0.0 |  0.00
Output  | 0          | 0          | 0          |   0.0 |  0.00
Modify  | 0          | 0          | 0          |   0.0 |  0.00
Other   |            | 0.0008147  |            |       |  0.14

Nlocal:    808 ave 808 max 808 min
Histogram: 1 0 0 0 0 0 0 0 0 0
Nghost:    0 ave 0 max 0 min
Histogram: 1 0 0 0 0 0 0 0 0 0
Neighs:    75200 ave 75200 max 75200 min
Histogram: 1 0 0 0 0 0 0 0 0 0

Total # of neighbors = 75200
Ave neighs/atom = 93.0693
Ave special neighs/atom = 10.9356
Neighbor list builds = 0
Dangerous builds = 0
write_dump all custom pysimm.dump.tmp id q x y z vx vy vz
quit


################################################################################
##################################    Init    ##################################
################################################################################
units           real
atom_style      full
pair_style      lj/cut/coul/long 12.0  12.0
kspace_style    pppm 1e-4
bond_style      harmonic
angle_style     harmonic
dihedral_style  fourier
improper_style  cvff
special_bonds   amber
pair_modify     mix arithmetic
read_data       temp.lmps
  orthogonal box = (-100.744 -100.744 -100.744) to (100.744 100.744 100.744)
  1 by 1 by 1 MPI processor grid
  reading atoms ...
  622 atoms
  reading velocities ...
  622 velocities
  scanning bonds ...
  4 = max bonds/atom
  scanning angles ...
  6 = max angles/atom
  scanning dihedrals ...
  21 = max dihedrals/atom
  scanning impropers ...
  1 = max impropers/atom
  reading bonds ...
  641 bonds
  reading angles ...
  1180 angles
  reading dihedrals ...
  1637 dihedrals
  reading impropers ...
  40 impropers
  4 = max # of 1-2 neighbors
  7 = max # of 1-3 neighbors
  18 = max # of 1-4 neighbors
  21 = max # of special neighbors
  special bonds CPU = 0.00129104 secs
  read_data CPU = 0.019043 secs
################################################################################

min_style cg
minimize 1e-06 1e-06 1000000 10000000
WARNING: Using 'neigh_modify every 1 delay 0 check yes' setting during minimization (../min.cpp:190)
PPPM initialization ...
WARNING: System is not charge neutral, net charge = -3e-05 (../kspace.cpp:313)
  using 12-bit tables for long-range coulomb (../kspace.cpp:332)
  G vector (1/distance) = 0.119675
  grid = 24 24 24
  stencil order = 5
  estimated absolute RMS force accuracy = 0.027374
  estimated relative force accuracy = 8.2436e-05
  using double precision KISS FFT
  3d grid and FFT values/proc = 24389 13824
Neighbor list info ...
  update every 1 steps, delay 0 steps, check yes
  max neighbors/atom: 2000, page size: 100000
  master list distance cutoff = 14
  ghost atom cutoff = 14
  binsize = 7, bins = 29 29 29
  1 neighbor lists, perpetual/occasional/extra = 1 0 0
  (1) pair lj/cut/coul/long, perpetual
      attributes: half, newton on
      pair build: half/bin/newton
      stencil: half/bin/3d/newton
      bin: standard
Per MPI rank memory allocation (min/avg/max) = 19.96 | 19.96 | 19.96 Mbytes
Step Temp E_pair E_mol TotEng Press 
       0    166.86935   -655.41246    912.54739    566.02396  -0.81651005 
       3    166.86935   -655.41246    911.87889    565.35546  -0.81647389 
Loop time of 1.92185 on 1 procs for 3 steps with 622 atoms

100.0% CPU use with 1 MPI tasks x no OpenMP threads

Minimization stats:
  Stopping criterion = energy tolerance
  Energy initial, next-to-last, final = 
         257.134933948      256.466428807      256.466428807
  Force two-norm initial, final = 4.4992e+14 2.65873e+12
  Force max component initial, final = 3.47305e+14 1.67675e+12
  Final line search alpha, max atom move = 4.23761e-28 7.10543e-16
  Iterations, force evaluations = 3 222

MPI task timing breakdown:
Section |  min time  |  avg time  |  max time  |%varavg| %total
---------------------------------------------------------------
Pair    | 0.67616    | 0.67616    | 0.67616    |   0.0 | 35.18
Bond    | 0.082218   | 0.082218   | 0.082218   |   0.0 |  4.28
Kspace  | 1.1608     | 1.1608     | 1.1608     |   0.0 | 60.40
Neigh   | 0          | 0          | 0          |   0.0 |  0.00
Comm    | 8.2731e-05 | 8.2731e-05 | 8.2731e-05 |   0.0 |  0.00
Output  | 0          | 0          | 0          |   0.0 |  0.00
Modify  | 0          | 0          | 0          |   0.0 |  0.00
Other   |            | 0.002552   |            |       |  0.13

Nlocal:    622 ave 622 max 622 min
Histogram: 1 0 0 0 0 0 0 0 0 0
Nghost:    0 ave 0 max 0 min
Histogram: 1 0 0 0 0 0 0 0 0 0
Neighs:    57501 ave 57501 max 57501 min
Histogram: 1 0 0 0 0 0 0 0 0 0

Total # of neighbors = 57501
Ave neighs/atom = 92.4453
Ave special neighs/atom = 10.926
Neighbor list builds = 0
Dangerous builds = 0
write_dump all custom pysimm.dump.tmp id q x y z vx vy vz
quit


################################################################################
##################################    Init    ##################################
################################################################################
units           real
atom_style      full
pair_style      lj/cut/coul/long 12.0  12.0
kspace_style    pppm 1e-4
bond_style      harmonic
angle_style     harmonic
dihedral_style  fourier
improper_style  cvff
special_bonds   amber
pair_modify     mix arithmetic
read_data       temp.lmps
  orthogonal box = (-126.929 -126.929 -126.929) to (126.929 126.929 126.929)
  1 by 1 by 1 MPI processor grid
  reading atoms ...
  684 atoms
  reading velocities ...
  684 velocities
  scanning bonds ...
  4 = max bonds/atom
  scanning angles ...
  6 = max angles/atom
  scanning dihedrals ...
  21 = max dihedrals/atom
  scanning impropers ...
  1 = max impropers/atom
  reading bonds ...
  705 bonds
  reading angles ...
  1298 angles
  reading dihedrals ...
  1801 dihedrals
  reading impropers ...
  44 impropers
  4 = max # of 1-2 neighbors
  7 = max # of 1-3 neighbors
  18 = max # of 1-4 neighbors
  21 = max # of special neighbors
  special bonds CPU = 0.00070715 secs
  read_data CPU = 0.012244 secs
################################################################################

min_style cg
minimize 1e-06 1e-06 1000000 10000000
WARNING: Using 'neigh_modify every 1 delay 0 check yes' setting during minimization (../min.cpp:190)
PPPM initialization ...
WARNING: System is not charge neutral, net charge = -3.3e-05 (../kspace.cpp:313)
  using 12-bit tables for long-range coulomb (../kspace.cpp:332)
  G vector (1/distance) = 0.10239
  grid = 24 24 24
  stencil order = 5
  estimated absolute RMS force accuracy = 0.0352896
  estimated relative force accuracy = 0.000106273
  using double precision KISS FFT
  3d grid and FFT values/proc = 24389 13824
Neighbor list info ...
  update every 1 steps, delay 0 steps, check yes
  max neighbors/atom: 2000, page size: 100000
  master list distance cutoff = 14
  ghost atom cutoff = 14
  binsize = 7, bins = 37 37 37
  1 neighbor lists, perpetual/occasional/extra = 1 0 0
  (1) pair lj/cut/coul/long, perpetual
      attributes: half, newton on
      pair build: half/bin/newton
      stencil: half/bin/3d/newton
      bin: standard
Per MPI rank memory allocation (min/avg/max) = 20.1 | 20.1 | 20.1 Mbytes
Step Temp E_pair E_mol TotEng Press 
       0    672.23657   -660.72529    1096.4474     1804.324    2.1724091 
       1    672.23657   -660.72529    1096.4471    1804.3237    2.1724137 
Loop time of 0.532655 on 1 procs for 1 steps with 684 atoms

99.9% CPU use with 1 MPI tasks x no OpenMP threads

Minimization stats:
  Stopping criterion = energy tolerance
  Energy initial, next-to-last, final = 
         435.722128023      435.722128023      435.721815841
  Force two-norm initial, final = 1.33755e+14 2.50388e+13
  Force max component initial, final = 7.75791e+13 1.45407e+13
  Final line search alpha, max atom move = 4.57947e-30 6.65888e-17
  Iterations, force evaluations = 1 76

MPI task timing breakdown:
Section |  min time  |  avg time  |  max time  |%varavg| %total
---------------------------------------------------------------
Pair    | 0.2094     | 0.2094     | 0.2094     |   0.0 | 39.31
Bond    | 0.023336   | 0.023336   | 0.023336   |   0.0 |  4.38
Kspace  | 0.29916    | 0.29916    | 0.29916    |   0.0 | 56.16
Neigh   | 0          | 0          | 0          |   0.0 |  0.00
Comm    | 2.5988e-05 | 2.5988e-05 | 2.5988e-05 |   0.0 |  0.00
Output  | 0          | 0          | 0          |   0.0 |  0.00
Modify  | 0          | 0          | 0          |   0.0 |  0.00
Other   |            | 0.0007281  |            |       |  0.14

Nlocal:    684 ave 684 max 684 min
Histogram: 1 0 0 0 0 0 0 0 0 0
Nghost:    0 ave 0 max 0 min
Histogram: 1 0 0 0 0 0 0 0 0 0
Neighs:    69327 ave 69327 max 69327 min
Histogram: 1 0 0 0 0 0 0 0 0 0

Total # of neighbors = 69327
Ave neighs/atom = 101.355
Ave special neighs/atom = 10.9298
Neighbor list builds = 0
Dangerous builds = 0
write_dump all custom pysimm.dump.tmp id q x y z vx vy vz
quit


################################################################################
##################################    Init    ##################################
################################################################################
units           real
atom_style      full
pair_style      lj/cut/coul/long 12.0  12.0
kspace_style    pppm 1e-4
bond_style      harmonic
angle_style     harmonic
dihedral_style  fourier
improper_style  cvff
special_bonds   amber
pair_modify     mix arithmetic
read_data       temp.lmps
  orthogonal box = (-131.026 -131.026 -131.026) to (131.026 131.026 131.026)
  1 by 1 by 1 MPI processor grid
  reading atoms ...
  746 atoms
  reading velocities ...
  746 velocities
  scanning bonds ...
  4 = max bonds/atom
  scanning angles ...
  6 = max angles/atom
  scanning dihedrals ...
  21 = max dihedrals/atom
  scanning impropers ...
  1 = max impropers/atom
  reading bonds ...
  769 bonds
  reading angles ...
  1416 angles
  reading dihedrals ...
  1965 dihedrals
  reading impropers ...
  48 impropers
  4 = max # of 1-2 neighbors
  7 = max # of 1-3 neighbors
  18 = max # of 1-4 neighbors
  21 = max # of special neighbors
  special bonds CPU = 0.000533104 secs
  read_data CPU = 0.012074 secs
################################################################################

min_style cg
minimize 1e-06 1e-06 1000000 10000000
WARNING: Using 'neigh_modify every 1 delay 0 check yes' setting during minimization (../min.cpp:190)
PPPM initialization ...
WARNING: System is not charge neutral, net charge = -3.6e-05 (../kspace.cpp:313)
  using 12-bit tables for long-range coulomb (../kspace.cpp:332)
  G vector (1/distance) = 0.103046
  grid = 25 25 25
  stencil order = 5
  estimated absolute RMS force accuracy = 0.0344734
  estimated relative force accuracy = 0.000103816
  using double precision KISS FFT
  3d grid and FFT values/proc = 27000 15625
Neighbor list info ...
  update every 1 steps, delay 0 steps, check yes
  max neighbors/atom: 2000, page size: 100000
  master list distance cutoff = 14
  ghost atom cutoff = 14
  binsize = 7, bins = 38 38 38
  1 neighbor lists, perpetual/occasional/extra = 1 0 0
  (1) pair lj/cut/coul/long, perpetual
      attributes: half, newton on
      pair build: half/bin/newton
      stencil: half/bin/3d/newton
      bin: standard
Per MPI rank memory allocation (min/avg/max) = 20.38 | 20.38 | 20.38 Mbytes
Step Temp E_pair E_mol TotEng Press 
       0    653.26262   -731.16006    1127.5133    1847.0558    2.0385899 
       5    653.26262   -731.16006    1126.3697    1845.9122    2.0386098 
Loop time of 1.27855 on 1 procs for 5 steps with 746 atoms

100.0% CPU use with 1 MPI tasks x no OpenMP threads

Minimization stats:
  Stopping criterion = energy tolerance
  Energy initial, next-to-last, final = 
         396.353220899      395.209641049      395.209630465
  Force two-norm initial, final = 8.75585e+14 38021.3
  Force max component initial, final = 6.56883e+14 29274.8
  Final line search alpha, max atom move = 9.95576e-16 2.91453e-11
  Iterations, force evaluations = 5 193

MPI task timing breakdown:
Section |  min time  |  avg time  |  max time  |%varavg| %total
---------------------------------------------------------------
Pair    | 0.47342    | 0.47342    | 0.47342    |   0.0 | 37.03
Bond    | 0.058959   | 0.058959   | 0.058959   |   0.0 |  4.61
Kspace  | 0.74428    | 0.74428    | 0.74428    |   0.0 | 58.21
Neigh   | 0          | 0          | 0          |   0.0 |  0.00
Comm    | 4.7445e-05 | 4.7445e-05 | 4.7445e-05 |   0.0 |  0.00
Output  | 0          | 0          | 0          |   0.0 |  0.00
Modify  | 0          | 0          | 0          |   0.0 |  0.00
Other   |            | 0.001842   |            |       |  0.14

Nlocal:    746 ave 746 max 746 min
Histogram: 1 0 0 0 0 0 0 0 0 0
Nghost:    0 ave 0 max 0 min
Histogram: 1 0 0 0 0 0 0 0 0 0
Neighs:    71235 ave 71235 max 71235 min
Histogram: 1 0 0 0 0 0 0 0 0 0

Total # of neighbors = 71235
Ave neighs/atom = 95.4893
Ave special neighs/atom = 10.933
Neighbor list builds = 0
Dangerous builds = 0
write_dump all custom pysimm.dump.tmp id q x y z vx vy vz
quit


################################################################################
##################################    Init    ##################################
################################################################################
units           real
atom_style      full
pair_style      lj/cut/coul/long 12.0  12.0
kspace_style    pppm 1e-4
bond_style      harmonic
angle_style     harmonic
dihedral_style  fourier
improper_style  cvff
special_bonds   amber
pair_modify     mix arithmetic
read_data       temp.lmps
  orthogonal box = (-134.882 -134.882 -134.882) to (134.882 134.882 134.882)
  1 by 1 by 1 MPI processor grid
  reading atoms ...
  808 atoms
  reading velocities ...
  808 velocities
  scanning bonds ...
  4 = max bonds/atom
  scanning angles ...
  6 = max angles/atom
  scanning dihedrals ...
  21 = max dihedrals/atom
  scanning impropers ...
  1 = max impropers/atom
  reading bonds ...
  833 bonds
  reading angles ...
  1534 angles
  reading dihedrals ...
  2129 dihedrals
  reading impropers ...
  52 impropers
  4 = max # of 1-2 neighbors
  7 = max # of 1-3 neighbors
  18 = max # of 1-4 neighbors
  21 = max # of special neighbors
  special bonds CPU = 0.000577211 secs
  read_data CPU = 0.0112462 secs
################################################################################

min_style cg
minimize 1e-06 1e-06 1000000 10000000
WARNING: Using 'neigh_modify every 1 delay 0 check yes' setting during minimization (../min.cpp:190)
PPPM initialization ...
WARNING: System is not charge neutral, net charge = -3.9e-05 (../kspace.cpp:313)
  using 12-bit tables for long-range coulomb (../kspace.cpp:332)
  G vector (1/distance) = 0.100952
  grid = 25 25 25
  stencil order = 5
  estimated absolute RMS force accuracy = 0.0365344
  estimated relative force accuracy = 0.000110022
  using double precision KISS FFT
  3d grid and FFT values/proc = 27000 15625
Neighbor list info ...
  update every 1 steps, delay 0 steps, check yes
  max neighbors/atom: 2000, page size: 100000
  master list distance cutoff = 14
  ghost atom cutoff = 14
  binsize = 7, bins = 39 39 39
  1 neighbor lists, perpetual/occasional/extra = 1 0 0
  (1) pair lj/cut/coul/long, perpetual
      attributes: half, newton on
      pair build: half/bin/newton
      stencil: half/bin/3d/newton
      bin: standard
Per MPI rank memory allocation (min/avg/max) = 20.41 | 20.41 | 20.41 Mbytes
Step Temp E_pair E_mol TotEng Press 
       0    665.11972   -768.81651    1224.4511    2055.5892    2.2007276 
       5    665.11972   -768.81652    1223.3891    2054.5272    2.2007208 
Loop time of 0.984264 on 1 procs for 5 steps with 808 atoms

100.1% CPU use with 1 MPI tasks x no OpenMP threads

Minimization stats:
  Stopping criterion = energy tolerance
  Energy initial, next-to-last, final = 
         455.634569343      454.572589097      454.572566955
  Force two-norm initial, final = 3.02309e+14 77968.3
  Force max component initial, final = 2.07941e+14 50187.1
  Final line search alpha, max atom move = 8.80252e-15 4.41773e-10
  Iterations, force evaluations = 5 176

MPI task timing breakdown:
Section |  min time  |  avg time  |  max time  |%varavg| %total
---------------------------------------------------------------
Pair    | 0.38185    | 0.38185    | 0.38185    |   0.0 | 38.80
Bond    | 0.046024   | 0.046024   | 0.046024   |   0.0 |  4.68
Kspace  | 0.55489    | 0.55489    | 0.55489    |   0.0 | 56.38
Neigh   | 0          | 0          | 0          |   0.0 |  0.00
Comm    | 4.3392e-05 | 4.3392e-05 | 4.3392e-05 |   0.0 |  0.00
Output  | 0          | 0          | 0          |   0.0 |  0.00
Modify  | 0          | 0          | 0          |   0.0 |  0.00
Other   |            | 0.001458   |            |       |  0.15

Nlocal:    808 ave 808 max 808 min
Histogram: 1 0 0 0 0 0 0 0 0 0
Nghost:    0 ave 0 max 0 min
Histogram: 1 0 0 0 0 0 0 0 0 0
Neighs:    77063 ave 77063 max 77063 min
Histogram: 1 0 0 0 0 0 0 0 0 0

Total # of neighbors = 77063
Ave neighs/atom = 95.375
Ave special neighs/atom = 10.9356
Neighbor list builds = 0
Dangerous builds = 0
write_dump all custom pysimm.dump.tmp id q x y z vx vy vz
quit


################################################################################
##################################    Init    ##################################
################################################################################
units           real
atom_style      full
pair_style      lj/cut/coul/long 12.0  12.0
kspace_style    pppm 1e-4
bond_style      harmonic
angle_style     harmonic
dihedral_style  fourier
improper_style  cvff
special_bonds   amber
pair_modify     mix arithmetic
read_data       temp.lmps
  orthogonal box = (-138.529 -138.529 -138.529) to (138.529 138.529 138.529)
  1 by 1 by 1 MPI processor grid
  reading atoms ...
  870 atoms
  reading velocities ...
  870 velocities
  scanning bonds ...
  4 = max bonds/atom
  scanning angles ...
  6 = max angles/atom
  scanning dihedrals ...
  21 = max dihedrals/atom
  scanning impropers ...
  1 = max impropers/atom
  reading bonds ...
  897 bonds
  reading angles ...
  1652 angles
  reading dihedrals ...
  2293 dihedrals
  reading impropers ...
  56 impropers
  4 = max # of 1-2 neighbors
  7 = max # of 1-3 neighbors
  18 = max # of 1-4 neighbors
  21 = max # of special neighbors
  special bonds CPU = 0.000624895 secs
  read_data CPU = 0.0123849 secs
################################################################################

min_style cg
minimize 1e-06 1e-06 1000000 10000000
WARNING: Using 'neigh_modify every 1 delay 0 check yes' setting during minimization (../min.cpp:190)
PPPM initialization ...
WARNING: System is not charge neutral, net charge = -4.2e-05 (../kspace.cpp:313)
  using 12-bit tables for long-range coulomb (../kspace.cpp:332)
  G vector (1/distance) = 0.104596
  grid = 27 27 27
  stencil order = 5
  estimated absolute RMS force accuracy = 0.0327101
  estimated relative force accuracy = 9.85054e-05
  using double precision KISS FFT
  3d grid and FFT values/proc = 32768 19683
Neighbor list info ...
  update every 1 steps, delay 0 steps, check yes
  max neighbors/atom: 2000, page size: 100000
  master list distance cutoff = 14
  ghost atom cutoff = 14
  binsize = 7, bins = 40 40 40
  1 neighbor lists, perpetual/occasional/extra = 1 0 0
  (1) pair lj/cut/coul/long, perpetual
      attributes: half, newton on
      pair build: half/bin/newton
      stencil: half/bin/3d/newton
      bin: standard
Per MPI rank memory allocation (min/avg/max) = 21.01 | 21.01 | 21.01 Mbytes
Step Temp E_pair E_mol TotEng Press 
       0     571.9185   -839.83407    1215.0686    1856.6887    1.8081595 
      19     571.9185   -841.24019    953.97809    1594.1921    2.8715389 
Loop time of 0.986696 on 1 procs for 19 steps with 870 atoms

99.9% CPU use with 1 MPI tasks x no OpenMP threads

Minimization stats:
  Stopping criterion = linesearch alpha is zero
  Energy initial, next-to-last, final = 
         375.234513674      112.737900234      112.737900234
  Force two-norm initial, final = 5.47277e+14 39.6734
  Force max component initial, final = 3.14986e+14 11.2913
  Final line search alpha, max atom move = 4.29391e-12 4.84839e-11
  Iterations, force evaluations = 19 148

MPI task timing breakdown:
Section |  min time  |  avg time  |  max time  |%varavg| %total
---------------------------------------------------------------
Pair    | 0.32428    | 0.32428    | 0.32428    |   0.0 | 32.87
Bond    | 0.040582   | 0.040582   | 0.040582   |   0.0 |  4.11
Kspace  | 0.61841    | 0.61841    | 0.61841    |   0.0 | 62.67
Neigh   | 0.0017948  | 0.0017948  | 0.0017948  |   0.0 |  0.18
Comm    | 4.4584e-05 | 4.4584e-05 | 4.4584e-05 |   0.0 |  0.00
Output  | 0          | 0          | 0          |   0.0 |  0.00
Modify  | 0          | 0          | 0          |   0.0 |  0.00
Other   |            | 0.001585   |            |       |  0.16

Nlocal:    870 ave 870 max 870 min
Histogram: 1 0 0 0 0 0 0 0 0 0
Nghost:    0 ave 0 max 0 min
Histogram: 1 0 0 0 0 0 0 0 0 0
Neighs:    80254 ave 80254 max 80254 min
Histogram: 1 0 0 0 0 0 0 0 0 0

Total # of neighbors = 80254
Ave neighs/atom = 92.246
Ave special neighs/atom = 10.9379
Neighbor list builds = 1
Dangerous builds = 0
write_dump all custom pysimm.dump.tmp id q x y z vx vy vz
quit


################################################################################
##################################    Init    ##################################
################################################################################
units           real
atom_style      full
pair_style      lj/cut/coul/long 12.0  12.0
kspace_style    pppm 1e-4
bond_style      harmonic
angle_style     harmonic
dihedral_style  fourier
improper_style  cvff
special_bonds   amber
pair_modify     mix arithmetic
read_data       temp.lmps
  orthogonal box = (-141.994 -141.994 -141.994) to (141.994 141.994 141.994)
  1 by 1 by 1 MPI processor grid
  reading atoms ...
  932 atoms
  reading velocities ...
  932 velocities
  scanning bonds ...
  4 = max bonds/atom
  scanning angles ...
  6 = max angles/atom
  scanning dihedrals ...
  21 = max dihedrals/atom
  scanning impropers ...
  1 = max impropers/atom
  reading bonds ...
  961 bonds
  reading angles ...
  1770 angles
  reading dihedrals ...
  2457 dihedrals
  reading impropers ...
  60 impropers
  4 = max # of 1-2 neighbors
  7 = max # of 1-3 neighbors
  18 = max # of 1-4 neighbors
  21 = max # of special neighbors
  special bonds CPU = 0.00123501 secs
  read_data CPU = 0.01758 secs
################################################################################

min_style cg
minimize 1e-06 1e-06 1000000 10000000
WARNING: Using 'neigh_modify every 1 delay 0 check yes' setting during minimization (../min.cpp:190)
PPPM initialization ...
WARNING: System is not charge neutral, net charge = -4.5e-05 (../kspace.cpp:313)
  using 12-bit tables for long-range coulomb (../kspace.cpp:332)
  G vector (1/distance) = 0.102798
  grid = 27 27 27
  stencil order = 5
  estimated absolute RMS force accuracy = 0.0344259
  estimated relative force accuracy = 0.000103673
  using double precision KISS FFT
  3d grid and FFT values/proc = 32768 19683
Neighbor list info ...
  update every 1 steps, delay 0 steps, check yes
  max neighbors/atom: 2000, page size: 100000
  master list distance cutoff = 14
  ghost atom cutoff = 14
  binsize = 7, bins = 41 41 41
  1 neighbor lists, perpetual/occasional/extra = 1 0 0
  (1) pair lj/cut/coul/long, perpetual
      attributes: half, newton on
      pair build: half/bin/newton
      stencil: half/bin/3d/newton
      bin: standard
Per MPI rank memory allocation (min/avg/max) = 21.04 | 21.04 | 21.04 Mbytes
Step Temp E_pair E_mol TotEng Press 
       0    586.57937   -910.37972    1345.7113     2063.168    1.8144495 
       1    586.57937   -910.37972    1345.7113     2063.168    1.8144495 
Loop time of 0.92095 on 1 procs for 1 steps with 932 atoms

100.0% CPU use with 1 MPI tasks x no OpenMP threads

Minimization stats:
  Stopping criterion = energy tolerance
  Energy initial, next-to-last, final = 
          435.33159956       435.33159956       435.33159956
  Force two-norm initial, final = 2.99198e+14 2.99198e+14
  Force max component initial, final = 2.26191e+14 2.26191e+14
  Final line search alpha, max atom move = 1.57067e-30 3.55271e-16
  Iterations, force evaluations = 1 86

MPI task timing breakdown:
Section |  min time  |  avg time  |  max time  |%varavg| %total
---------------------------------------------------------------
Pair    | 0.32858    | 0.32858    | 0.32858    |   0.0 | 35.68
Bond    | 0.039392   | 0.039392   | 0.039392   |   0.0 |  4.28
Kspace  | 0.5518     | 0.5518     | 0.5518     |   0.0 | 59.92
Neigh   | 0          | 0          | 0          |   0.0 |  0.00
Comm    | 3.2902e-05 | 3.2902e-05 | 3.2902e-05 |   0.0 |  0.00
Output  | 0          | 0          | 0          |   0.0 |  0.00
Modify  | 0          | 0          | 0          |   0.0 |  0.00
Other   |            | 0.001141   |            |       |  0.12

Nlocal:    932 ave 932 max 932 min
Histogram: 1 0 0 0 0 0 0 0 0 0
Nghost:    0 ave 0 max 0 min
Histogram: 1 0 0 0 0 0 0 0 0 0
Neighs:    89784 ave 89784 max 89784 min
Histogram: 1 0 0 0 0 0 0 0 0 0

Total # of neighbors = 89784
Ave neighs/atom = 96.3348
Ave special neighs/atom = 10.9399
Neighbor list builds = 0
Dangerous builds = 0
write_dump all custom pysimm.dump.tmp id q x y z vx vy vz
quit


################################################################################
##################################    Init    ##################################
################################################################################
units           real
atom_style      full
pair_style      lj/cut/coul/long 12.0  12.0
kspace_style    pppm 1e-4
bond_style      harmonic
angle_style     harmonic
dihedral_style  fourier
improper_style  cvff
special_bonds   amber
pair_modify     mix arithmetic
read_data       temp.lmps
  orthogonal box = (-145.297 -145.297 -145.297) to (145.297 145.297 145.297)
  1 by 1 by 1 MPI processor grid
  reading atoms ...
  994 atoms
  reading velocities ...
  994 velocities
  scanning bonds ...
  4 = max bonds/atom
  scanning angles ...
  6 = max angles/atom
  scanning dihedrals ...
  21 = max dihedrals/atom
  scanning impropers ...
  1 = max impropers/atom
  reading bonds ...
  1025 bonds
  reading angles ...
  1888 angles
  reading dihedrals ...
  2621 dihedrals
  reading impropers ...
  64 impropers
  4 = max # of 1-2 neighbors
  7 = max # of 1-3 neighbors
  18 = max # of 1-4 neighbors
  21 = max # of special neighbors
  special bonds CPU = 0.00066781 secs
  read_data CPU = 0.0210128 secs
################################################################################

min_style cg
minimize 1e-06 1e-06 1000000 10000000
WARNING: Using 'neigh_modify every 1 delay 0 check yes' setting during minimization (../min.cpp:190)
PPPM initialization ...
WARNING: System is not charge neutral, net charge = -4.8e-05 (../kspace.cpp:313)
  using 12-bit tables for long-range coulomb (../kspace.cpp:332)
  G vector (1/distance) = 0.101138
  grid = 27 27 27
  stencil order = 5
  estimated absolute RMS force accuracy = 0.0360659
  estimated relative force accuracy = 0.000108611
  using double precision KISS FFT
  3d grid and FFT values/proc = 32768 19683
Neighbor list info ...
  update every 1 steps, delay 0 steps, check yes
  max neighbors/atom: 2000, page size: 100000
  master list distance cutoff = 14
  ghost atom cutoff = 14
  binsize = 7, bins = 42 42 42
  1 neighbor lists, perpetual/occasional/extra = 1 0 0
  (1) pair lj/cut/coul/long, perpetual
      attributes: half, newton on
      pair build: half/bin/newton
      stencil: half/bin/3d/newton
      bin: standard
Per MPI rank memory allocation (min/avg/max) = 21.45 | 21.45 | 21.45 Mbytes
Step Temp E_pair E_mol TotEng Press 
       0    655.37283   -1003.6469    1475.5429    2411.7631    1.6983656 
      32    655.37283   -1020.2084    1180.5026    2100.1614     3.167782 
Loop time of 1.96045 on 1 procs for 32 steps with 994 atoms

100.0% CPU use with 1 MPI tasks x no OpenMP threads

Minimization stats:
  Stopping criterion = linesearch alpha is zero
  Energy initial, next-to-last, final = 
         471.895993218      160.294256342      160.294256342
  Force two-norm initial, final = 4.50328e+14 60.1994
  Force max component initial, final = 3.1956e+14 16.1135
  Final line search alpha, max atom move = 2.83839e-12 4.57363e-11
  Iterations, force evaluations = 32 218

MPI task timing breakdown:
Section |  min time  |  avg time  |  max time  |%varavg| %total
---------------------------------------------------------------
Pair    | 0.79764    | 0.79764    | 0.79764    |   0.0 | 40.69
Bond    | 0.08111    | 0.08111    | 0.08111    |   0.0 |  4.14
Kspace  | 1.076      | 1.076      | 1.076      |   0.0 | 54.88
Neigh   | 0.0026281  | 0.0026281  | 0.0026281  |   0.0 |  0.13
Comm    | 6.175e-05  | 6.175e-05  | 6.175e-05  |   0.0 |  0.00
Output  | 0          | 0          | 0          |   0.0 |  0.00
Modify  | 0          | 0          | 0          |   0.0 |  0.00
Other   |            | 0.003025   |            |       |  0.15

Nlocal:    994 ave 994 max 994 min
Histogram: 1 0 0 0 0 0 0 0 0 0
Nghost:    0 ave 0 max 0 min
Histogram: 1 0 0 0 0 0 0 0 0 0
Neighs:    111506 ave 111506 max 111506 min
Histogram: 1 0 0 0 0 0 0 0 0 0

Total # of neighbors = 111506
Ave neighs/atom = 112.179
Ave special neighs/atom = 10.9416
Neighbor list builds = 1
Dangerous builds = 0
write_dump all custom pysimm.dump.tmp id q x y z vx vy vz
quit


################################################################################
##################################    Init    ##################################
################################################################################
units           real
atom_style      full
pair_style      lj/cut/coul/long 12.0  12.0
kspace_style    pppm 1e-4
bond_style      harmonic
angle_style     harmonic
dihedral_style  fourier
improper_style  cvff
special_bonds   amber
pair_modify     mix arithmetic
read_data       temp.lmps
  orthogonal box = (-148.457 -148.457 -148.457) to (148.457 148.457 148.457)
  1 by 1 by 1 MPI processor grid
  reading atoms ...
  1056 atoms
  reading velocities ...
  1056 velocities
  scanning bonds ...
  4 = max bonds/atom
  scanning angles ...
  6 = max angles/atom
  scanning dihedrals ...
  21 = max dihedrals/atom
  scanning impropers ...
  1 = max impropers/atom
  reading bonds ...
  1089 bonds
  reading angles ...
  2006 angles
  reading dihedrals ...
  2785 dihedrals
  reading impropers ...
  68 impropers
  4 = max # of 1-2 neighbors
  7 = max # of 1-3 neighbors
  18 = max # of 1-4 neighbors
  21 = max # of special neighbors
  special bonds CPU = 0.00191021 secs
  read_data CPU = 0.026525 secs
################################################################################

min_style cg
minimize 1e-06 1e-06 1000000 10000000
WARNING: Using 'neigh_modify every 1 delay 0 check yes' setting during minimization (../min.cpp:190)
PPPM initialization ...
WARNING: System is not charge neutral, net charge = -5.1e-05 (../kspace.cpp:313)
  using 12-bit tables for long-range coulomb (../kspace.cpp:332)
  G vector (1/distance) = 0.107247
  grid = 30 30 30
  stencil order = 5
  estimated absolute RMS force accuracy = 0.0299667
  estimated relative force accuracy = 9.02439e-05
  using double precision KISS FFT
  3d grid and FFT values/proc = 42875 27000
Neighbor list info ...
  update every 1 steps, delay 0 steps, check yes
  max neighbors/atom: 2000, page size: 100000
  master list distance cutoff = 14
  ghost atom cutoff = 14
  binsize = 7, bins = 43 43 43
  1 neighbor lists, perpetual/occasional/extra = 1 0 0
  (1) pair lj/cut/coul/long, perpetual
      attributes: half, newton on
      pair build: half/bin/newton
      stencil: half/bin/3d/newton
      bin: standard
Per MPI rank memory allocation (min/avg/max) = 22.49 | 22.49 | 22.49 Mbytes
Step Temp E_pair E_mol TotEng Press 
       0    569.34114   -1018.3329    1456.3236    2228.4289    1.8170523 
       5    569.34114   -1018.3329    1456.0577     2228.163    1.8170414 
Loop time of 4.30589 on 1 procs for 5 steps with 1056 atoms

100.0% CPU use with 1 MPI tasks x no OpenMP threads

Minimization stats:
  Stopping criterion = quadratic factors are zero
  Energy initial, next-to-last, final = 
         437.990746538      437.724793187      437.724793187
  Force two-norm initial, final = 4.34337e+14 8.43964e+12
  Force max component initial, final = 3.18517e+14 6.35939e+12
  Final line search alpha, max atom move = 5.58656e-29 3.55271e-16
  Iterations, force evaluations = 5 411

MPI task timing breakdown:
Section |  min time  |  avg time  |  max time  |%varavg| %total
---------------------------------------------------------------
Pair    | 1.4419     | 1.4419     | 1.4419     |   0.0 | 33.49
Bond    | 0.17804    | 0.17804    | 0.17804    |   0.0 |  4.13
Kspace  | 2.6807     | 2.6807     | 2.6807     |   0.0 | 62.26
Neigh   | 0          | 0          | 0          |   0.0 |  0.00
Comm    | 0.0001018  | 0.0001018  | 0.0001018  |   0.0 |  0.00
Output  | 0          | 0          | 0          |   0.0 |  0.00
Modify  | 0          | 0          | 0          |   0.0 |  0.00
Other   |            | 0.005141   |            |       |  0.12

Nlocal:    1056 ave 1056 max 1056 min
Histogram: 1 0 0 0 0 0 0 0 0 0
Nghost:    0 ave 0 max 0 min
Histogram: 1 0 0 0 0 0 0 0 0 0
Neighs:    98715 ave 98715 max 98715 min
Histogram: 1 0 0 0 0 0 0 0 0 0

Total # of neighbors = 98715
Ave neighs/atom = 93.4801
Ave special neighs/atom = 10.9432
Neighbor list builds = 0
Dangerous builds = 0
write_dump all custom pysimm.dump.tmp id q x y z vx vy vz
quit


################################################################################
##################################    Init    ##################################
################################################################################
units           real
atom_style      full
pair_style      lj/cut/coul/long 12.0  12.0
kspace_style    pppm 1e-4
bond_style      harmonic
angle_style     harmonic
dihedral_style  fourier
improper_style  cvff
special_bonds   amber
pair_modify     mix arithmetic
read_data       temp.lmps
  orthogonal box = (-151.488 -151.488 -151.488) to (151.488 151.488 151.488)
  1 by 1 by 1 MPI processor grid
  reading atoms ...
  1118 atoms
  reading velocities ...
  1118 velocities
  scanning bonds ...
  4 = max bonds/atom
  scanning angles ...
  6 = max angles/atom
  scanning dihedrals ...
  21 = max dihedrals/atom
  scanning impropers ...
  1 = max impropers/atom
  reading bonds ...
  1153 bonds
  reading angles ...
  2124 angles
  reading dihedrals ...
  2949 dihedrals
  reading impropers ...
  72 impropers
  4 = max # of 1-2 neighbors
  7 = max # of 1-3 neighbors
  18 = max # of 1-4 neighbors
  21 = max # of special neighbors
  special bonds CPU = 0.000874043 secs
  read_data CPU = 0.0152218 secs
################################################################################

min_style cg
minimize 1e-06 1e-06 1000000 10000000
WARNING: Using 'neigh_modify every 1 delay 0 check yes' setting during minimization (../min.cpp:190)
PPPM initialization ...
WARNING: System is not charge neutral, net charge = -5.4e-05 (../kspace.cpp:313)
  using 12-bit tables for long-range coulomb (../kspace.cpp:332)
  G vector (1/distance) = 0.105759
  grid = 30 30 30
  stencil order = 5
  estimated absolute RMS force accuracy = 0.0313131
  estimated relative force accuracy = 9.42984e-05
  using double precision KISS FFT
  3d grid and FFT values/proc = 42875 27000
Neighbor list info ...
  update every 1 steps, delay 0 steps, check yes
  max neighbors/atom: 2000, page size: 100000
  master list distance cutoff = 14
  ghost atom cutoff = 14
  binsize = 7, bins = 44 44 44
  1 neighbor lists, perpetual/occasional/extra = 1 0 0
  (1) pair lj/cut/coul/long, perpetual
      attributes: half, newton on
      pair build: half/bin/newton
      stencil: half/bin/3d/newton
      bin: standard
Per MPI rank memory allocation (min/avg/max) = 22.52 | 22.52 | 22.52 Mbytes
Step Temp E_pair E_mol TotEng Press 
       0    602.16189   -1096.1157    1601.4158    2510.2372    1.9229485 
       1    602.16189   -1096.1157    1601.4158    2510.2372    1.9229485 
Loop time of 0.755204 on 1 procs for 1 steps with 1118 atoms

100.2% CPU use with 1 MPI tasks x no OpenMP threads

Minimization stats:
  Stopping criterion = quadratic factors are zero
  Energy initial, next-to-last, final = 
         505.300123427      505.300123427      505.300123427
  Force two-norm initial, final = 5.5786e+14 5.5786e+14
  Force max component initial, final = 3.74418e+14 3.74418e+14
  Final line search alpha, max atom move = 2.37216e-31 8.88178e-17
  Iterations, force evaluations = 1 91

MPI task timing breakdown:
Section |  min time  |  avg time  |  max time  |%varavg| %total
---------------------------------------------------------------
Pair    | 0.25757    | 0.25757    | 0.25757    |   0.0 | 34.11
Bond    | 0.032236   | 0.032236   | 0.032236   |   0.0 |  4.27
Kspace  | 0.46446    | 0.46446    | 0.46446    |   0.0 | 61.50
Neigh   | 0          | 0          | 0          |   0.0 |  0.00
Comm    | 2.4557e-05 | 2.4557e-05 | 2.4557e-05 |   0.0 |  0.00
Output  | 0          | 0          | 0          |   0.0 |  0.00
Modify  | 0          | 0          | 0          |   0.0 |  0.00
Other   |            | 0.0009148  |            |       |  0.12

Nlocal:    1118 ave 1118 max 1118 min
Histogram: 1 0 0 0 0 0 0 0 0 0
Nghost:    0 ave 0 max 0 min
Histogram: 1 0 0 0 0 0 0 0 0 0
Neighs:    103528 ave 103528 max 103528 min
Histogram: 1 0 0 0 0 0 0 0 0 0

Total # of neighbors = 103528
Ave neighs/atom = 92.6011
Ave special neighs/atom = 10.9445
Neighbor list builds = 0
Dangerous builds = 0
write_dump all custom pysimm.dump.tmp id q x y z vx vy vz
quit


################################################################################
##################################    Init    ##################################
################################################################################
units           real
atom_style      full
pair_style      lj/cut/coul/long 12.0  12.0
kspace_style    pppm 1e-4
bond_style      harmonic
angle_style     harmonic
dihedral_style  fourier
improper_style  cvff
special_bonds   amber
pair_modify     mix arithmetic
read_data       temp.lmps
  orthogonal box = (-154.402 -154.402 -154.402) to (154.402 154.402 154.402)
  1 by 1 by 1 MPI processor grid
  reading atoms ...
  1180 atoms
  reading velocities ...
  1180 velocities
  scanning bonds ...
  4 = max bonds/atom
  scanning angles ...
  6 = max angles/atom
  scanning dihedrals ...
  21 = max dihedrals/atom
  scanning impropers ...
  1 = max impropers/atom
  reading bonds ...
  1217 bonds
  reading angles ...
  2242 angles
  reading dihedrals ...
  3113 dihedrals
  reading impropers ...
  76 impropers
  4 = max # of 1-2 neighbors
  7 = max # of 1-3 neighbors
  18 = max # of 1-4 neighbors
  21 = max # of special neighbors
  special bonds CPU = 0.00204492 secs
  read_data CPU = 0.024946 secs
################################################################################

min_style cg
minimize 1e-06 1e-06 1000000 10000000
WARNING: Using 'neigh_modify every 1 delay 0 check yes' setting during minimization (../min.cpp:190)
PPPM initialization ...
WARNING: System is not charge neutral, net charge = -5.7e-05 (../kspace.cpp:313)
  using 12-bit tables for long-range coulomb (../kspace.cpp:332)
  G vector (1/distance) = 0.104369
  grid = 30 30 30
  stencil order = 5
  estimated absolute RMS force accuracy = 0.0326163
  estimated relative force accuracy = 9.82231e-05
  using double precision KISS FFT
  3d grid and FFT values/proc = 42875 27000
Neighbor list info ...
  update every 1 steps, delay 0 steps, check yes
  max neighbors/atom: 2000, page size: 100000
  master list distance cutoff = 14
  ghost atom cutoff = 14
  binsize = 7, bins = 45 45 45
  1 neighbor lists, perpetual/occasional/extra = 1 0 0
  (1) pair lj/cut/coul/long, perpetual
      attributes: half, newton on
      pair build: half/bin/newton
      stencil: half/bin/3d/newton
      bin: standard
Per MPI rank memory allocation (min/avg/max) = 22.56 | 22.56 | 22.56 Mbytes
Step Temp E_pair E_mol TotEng Press 
       0    527.76584   -1197.7524    1645.1344    2302.1491   0.80961924 
       1    527.76584   -1197.7524    1645.1344    2302.1491   0.80961924 
Loop time of 1.45423 on 1 procs for 1 steps with 1180 atoms

100.0% CPU use with 1 MPI tasks x no OpenMP threads

Minimization stats:
  Stopping criterion = quadratic factors are zero
  Energy initial, next-to-last, final = 
          447.38196404       447.38196404       447.38196404
  Force two-norm initial, final = 7.28788e+14 7.28788e+14
  Force max component initial, final = 5.37328e+14 5.37328e+14
  Final line search alpha, max atom move = 6.61181e-31 3.55271e-16
  Iterations, force evaluations = 1 89

MPI task timing breakdown:
Section |  min time  |  avg time  |  max time  |%varavg| %total
---------------------------------------------------------------
Pair    | 0.53006    | 0.53006    | 0.53006    |   0.0 | 36.45
Bond    | 0.06269    | 0.06269    | 0.06269    |   0.0 |  4.31
Kspace  | 0.85967    | 0.85967    | 0.85967    |   0.0 | 59.12
Neigh   | 0          | 0          | 0          |   0.0 |  0.00
Comm    | 4.3631e-05 | 4.3631e-05 | 4.3631e-05 |   0.0 |  0.00
Output  | 0          | 0          | 0          |   0.0 |  0.00
Modify  | 0          | 0          | 0          |   0.0 |  0.00
Other   |            | 0.001766   |            |       |  0.12

Nlocal:    1180 ave 1180 max 1180 min
Histogram: 1 0 0 0 0 0 0 0 0 0
Nghost:    0 ave 0 max 0 min
Histogram: 1 0 0 0 0 0 0 0 0 0
Neighs:    115098 ave 115098 max 115098 min
Histogram: 1 0 0 0 0 0 0 0 0 0

Total # of neighbors = 115098
Ave neighs/atom = 97.5407
Ave special neighs/atom = 10.9458
Neighbor list builds = 0
Dangerous builds = 0
write_dump all custom pysimm.dump.tmp id q x y z vx vy vz
quit


################################################################################
##################################    Init    ##################################
################################################################################
units           real
atom_style      full
pair_style      lj/cut/coul/long 12.0  12.0
kspace_style    pppm 1e-4
bond_style      harmonic
angle_style     harmonic
dihedral_style  fourier
improper_style  cvff
special_bonds   amber
pair_modify     mix arithmetic
read_data       temp.lmps
  orthogonal box = (-157.209 -157.209 -157.209) to (157.209 157.209 157.209)
  1 by 1 by 1 MPI processor grid
  reading atoms ...
  1242 atoms
  reading velocities ...
  1242 velocities
  scanning bonds ...
  4 = max bonds/atom
  scanning angles ...
  6 = max angles/atom
  scanning dihedrals ...
  21 = max dihedrals/atom
  scanning impropers ...
  1 = max impropers/atom
  reading bonds ...
  1281 bonds
  reading angles ...
  2360 angles
  reading dihedrals ...
  3277 dihedrals
  reading impropers ...
  80 impropers
  4 = max # of 1-2 neighbors
  7 = max # of 1-3 neighbors
  18 = max # of 1-4 neighbors
  21 = max # of special neighbors
  special bonds CPU = 0.000843048 secs
  read_data CPU = 0.0150971 secs
################################################################################

min_style cg
minimize 1e-06 1e-06 1000000 10000000
WARNING: Using 'neigh_modify every 1 delay 0 check yes' setting during minimization (../min.cpp:190)
PPPM initialization ...
WARNING: System is not charge neutral, net charge = -6e-05 (../kspace.cpp:313)
  using 12-bit tables for long-range coulomb (../kspace.cpp:332)
  G vector (1/distance) = 0.103057
  grid = 30 30 30
  stencil order = 5
  estimated absolute RMS force accuracy = 0.0338718
  estimated relative force accuracy = 0.000102004
  using double precision KISS FFT
  3d grid and FFT values/proc = 42875 27000
Neighbor list info ...
  update every 1 steps, delay 0 steps, check yes
  max neighbors/atom: 2000, page size: 100000
  master list distance cutoff = 14
  ghost atom cutoff = 14
  binsize = 7, bins = 45 45 45
  1 neighbor lists, perpetual/occasional/extra = 1 0 0
  (1) pair lj/cut/coul/long, perpetual
      attributes: half, newton on
      pair build: half/bin/newton
      stencil: half/bin/3d/newton
      bin: standard
Per MPI rank memory allocation (min/avg/max) = 22.56 | 22.56 | 22.56 Mbytes
Step Temp E_pair E_mol TotEng Press 
       0    407.93226   -1257.3945    1633.5901    1885.2126     1.326753 
      25    407.93226    -1269.636    1359.8786    1599.2597    2.0800752 
Loop time of 1.54965 on 1 procs for 25 steps with 1242 atoms

100.1% CPU use with 1 MPI tasks x no OpenMP threads

Minimization stats:
  Stopping criterion = linesearch alpha is zero
  Energy initial, next-to-last, final = 
         376.195611984      90.2426897087      90.2426897087
  Force two-norm initial, final = 3.38275e+15 56.8145
  Force max component initial, final = 2.05114e+15 21.0858
  Final line search alpha, max atom move = 3.57843e-12 7.5454e-11
  Iterations, force evaluations = 25 143

MPI task timing breakdown:
Section |  min time  |  avg time  |  max time  |%varavg| %total
---------------------------------------------------------------
Pair    | 0.56661    | 0.56661    | 0.56661    |   0.0 | 36.56
Bond    | 0.069445   | 0.069445   | 0.069445   |   0.0 |  4.48
Kspace  | 0.90752    | 0.90752    | 0.90752    |   0.0 | 58.56
Neigh   | 0.003247   | 0.003247   | 0.003247   |   0.0 |  0.21
Comm    | 7.8917e-05 | 7.8917e-05 | 7.8917e-05 |   0.0 |  0.01
Output  | 0          | 0          | 0          |   0.0 |  0.00
Modify  | 0          | 0          | 0          |   0.0 |  0.00
Other   |            | 0.002754   |            |       |  0.18

Nlocal:    1242 ave 1242 max 1242 min
Histogram: 1 0 0 0 0 0 0 0 0 0
Nghost:    0 ave 0 max 0 min
Histogram: 1 0 0 0 0 0 0 0 0 0
Neighs:    118255 ave 118255 max 118255 min
Histogram: 1 0 0 0 0 0 0 0 0 0

Total # of neighbors = 118255
Ave neighs/atom = 95.2134
Ave special neighs/atom = 10.9469
Neighbor list builds = 1
Dangerous builds = 0
write_dump all custom pysimm.dump.tmp id q x y z vx vy vz
quit


################################################################################
##################################    Init    ##################################
################################################################################
units           real
atom_style      full
pair_style      lj/cut/coul/long 12.0  12.0
kspace_style    pppm 1e-4
bond_style      harmonic
angle_style     harmonic
dihedral_style  fourier
improper_style  cvff
special_bonds   amber
pair_modify     mix arithmetic
read_data       temp.lmps
  orthogonal box = (-159.921 -159.921 -159.921) to (159.921 159.921 159.921)
  1 by 1 by 1 MPI processor grid
  reading atoms ...
  1304 atoms
  reading velocities ...
  1304 velocities
  scanning bonds ...
  4 = max bonds/atom
  scanning angles ...
  6 = max angles/atom
  scanning dihedrals ...
  21 = max dihedrals/atom
  scanning impropers ...
  1 = max impropers/atom
  reading bonds ...
  1345 bonds
  reading angles ...
  2478 angles
  reading dihedrals ...
  3441 dihedrals
  reading impropers ...
  84 impropers
  4 = max # of 1-2 neighbors
  7 = max # of 1-3 neighbors
  18 = max # of 1-4 neighbors
[...]
  21 = max dihedrals/atom
  scanning impropers ...
  1 = max impropers/atom
  reading bonds ...
  2945 bonds
  reading angles ...
  5428 angles
  reading dihedrals ...
  7541 dihedrals
  reading impropers ...
  184 impropers
  4 = max # of 1-2 neighbors
  7 = max # of 1-3 neighbors
  18 = max # of 1-4 neighbors
  21 = max # of special neighbors
  special bonds CPU = 0.0019052 secs
  read_data CPU = 0.0294969 secs
################################################################################

min_style cg
minimize 1e-06 1e-06 1000000 10000000
WARNING: Using 'neigh_modify every 1 delay 0 check yes' setting during minimization (../min.cpp:190)
PPPM initialization ...
WARNING: System is not charge neutral, net charge = -0.000138 (../kspace.cpp:313)
  using 12-bit tables for long-range coulomb (../kspace.cpp:332)
  G vector (1/distance) = 0.103078
  grid = 40 40 40
  stencil order = 5
  estimated absolute RMS force accuracy = 0.0333753
  estimated relative force accuracy = 0.000100509
  using double precision KISS FFT
  3d grid and FFT values/proc = 91125 64000
Neighbor list info ...
  update every 1 steps, delay 0 steps, check yes
  max neighbors/atom: 2000, page size: 100000
  master list distance cutoff = 14
  ghost atom cutoff = 14
  binsize = 7, bins = 60 60 60
  1 neighbor lists, perpetual/occasional/extra = 1 0 0
  (1) pair lj/cut/coul/long, perpetual
      attributes: half, newton on
      pair build: half/bin/newton
      stencil: half/bin/3d/newton
      bin: standard
Per MPI rank memory allocation (min/avg/max) = 29.04 | 29.04 | 29.04 Mbytes
Step Temp E_pair E_mol TotEng Press 
       0    190.16874   -3077.6752    3342.8418    1882.4092   0.55345799 
      27    190.16874   -3083.5668    3080.3986    1614.0744   0.86664343 
Loop time of 8.45822 on 1 procs for 27 steps with 2854 atoms

100.0% CPU use with 1 MPI tasks x no OpenMP threads

Minimization stats:
  Stopping criterion = linesearch alpha is zero
  Energy initial, next-to-last, final = 
         265.166548854     -3.16826922057     -3.16826922057
  Force two-norm initial, final = 4.50693e+15 26.394
  Force max component initial, final = 3.60932e+15 10.7402
  Final line search alpha, max atom move = 1.73427e-11 1.86265e-10
  Iterations, force evaluations = 27 351

MPI task timing breakdown:
Section |  min time  |  avg time  |  max time  |%varavg| %total
---------------------------------------------------------------
Pair    | 3.38       | 3.38       | 3.38       |   0.0 | 39.96
Bond    | 0.33417    | 0.33417    | 0.33417    |   0.0 |  3.95
Kspace  | 4.7256     | 4.7256     | 4.7256     |   0.0 | 55.87
Neigh   | 0.0076599  | 0.0076599  | 0.0076599  |   0.0 |  0.09
Comm    | 0.00014615 | 0.00014615 | 0.00014615 |   0.0 |  0.00
Output  | 0          | 0          | 0          |   0.0 |  0.00
Modify  | 0          | 0          | 0          |   0.0 |  0.00
Other   |            | 0.01065    |            |       |  0.13

Nlocal:    2854 ave 2854 max 2854 min
Histogram: 1 0 0 0 0 0 0 0 0 0
Nghost:    0 ave 0 max 0 min
Histogram: 1 0 0 0 0 0 0 0 0 0
Neighs:    353505 ave 353505 max 353505 min
Histogram: 1 0 0 0 0 0 0 0 0 0

Total # of neighbors = 353505
Ave neighs/atom = 123.863
Ave special neighs/atom = 10.9587
Neighbor list builds = 1
Dangerous builds = 0
write_dump all custom pysimm.dump.tmp id q x y z vx vy vz
quit


################################################################################
##################################    Init    ##################################
################################################################################
units           real
atom_style      full
pair_style      lj/cut/coul/long 12.0  12.0
kspace_style    pppm 1e-4
bond_style      harmonic
angle_style     harmonic
dihedral_style  fourier
improper_style  cvff
special_bonds   amber
pair_modify     mix arithmetic
read_data       temp.lmps
  orthogonal box = (-211.096 -211.096 -211.096) to (211.096 211.096 211.096)
  1 by 1 by 1 MPI processor grid
  reading atoms ...
  2916 atoms
  reading velocities ...
  2916 velocities
  scanning bonds ...
  4 = max bonds/atom
  scanning angles ...
  6 = max angles/atom
  scanning dihedrals ...
  21 = max dihedrals/atom
  scanning impropers ...
  1 = max impropers/atom
  reading bonds ...
  3009 bonds
  reading angles ...
  5546 angles
  reading dihedrals ...
  7705 dihedrals
  reading impropers ...
  188 impropers
  4 = max # of 1-2 neighbors
  7 = max # of 1-3 neighbors
  18 = max # of 1-4 neighbors
  21 = max # of special neighbors
  special bonds CPU = 0.00446391 secs
  read_data CPU = 0.0610039 secs
################################################################################

min_style cg
minimize 1e-06 1e-06 1000000 10000000
WARNING: Using 'neigh_modify every 1 delay 0 check yes' setting during minimization (../min.cpp:190)
PPPM initialization ...
WARNING: System is not charge neutral, net charge = -0.000141 (../kspace.cpp:313)
  using 12-bit tables for long-range coulomb (../kspace.cpp:332)
  G vector (1/distance) = 0.102546
  grid = 40 40 40
  stencil order = 5
  estimated absolute RMS force accuracy = 0.0338955
  estimated relative force accuracy = 0.000102075
  using double precision KISS FFT
  3d grid and FFT values/proc = 91125 64000
Neighbor list info ...
  update every 1 steps, delay 0 steps, check yes
  max neighbors/atom: 2000, page size: 100000
  master list distance cutoff = 14
  ghost atom cutoff = 14
  binsize = 7, bins = 61 61 61
  1 neighbor lists, perpetual/occasional/extra = 1 0 0
  (1) pair lj/cut/coul/long, perpetual
      attributes: half, newton on
      pair build: half/bin/newton
      stencil: half/bin/3d/newton
      bin: standard
Per MPI rank memory allocation (min/avg/max) = 29.1 | 29.1 | 29.1 Mbytes
Step Temp E_pair E_mol TotEng Press 
       0    171.46822   -3035.4846    3418.3659    1872.7791   0.66142117 
      29    171.46822   -3145.5704    3146.7023    1491.0298     0.574715 
Loop time of 9.72226 on 1 procs for 29 steps with 2916 atoms

100.1% CPU use with 1 MPI tasks x no OpenMP threads

Minimization stats:
  Stopping criterion = linesearch alpha is zero
  Energy initial, next-to-last, final = 
         382.881232203      1.13193253307      1.13193253307
  Force two-norm initial, final = 2.69474e+15 38.599
  Force max component initial, final = 2.01042e+15 15.9853
  Final line search alpha, max atom move = 5.82612e-12 9.31323e-11
  Iterations, force evaluations = 29 367

MPI task timing breakdown:
Section |  min time  |  avg time  |  max time  |%varavg| %total
---------------------------------------------------------------
Pair    | 3.9339     | 3.9339     | 3.9339     |   0.0 | 40.46
Bond    | 0.37917    | 0.37917    | 0.37917    |   0.0 |  3.90
Kspace  | 5.386      | 5.386      | 5.386      |   0.0 | 55.40
Neigh   | 0.010324   | 0.010324   | 0.010324   |   0.0 |  0.11
Comm    | 0.00018501 | 0.00018501 | 0.00018501 |   0.0 |  0.00
Output  | 0          | 0          | 0          |   0.0 |  0.00
Modify  | 0          | 0          | 0          |   0.0 |  0.00
Other   |            | 0.01269    |            |       |  0.13

Nlocal:    2916 ave 2916 max 2916 min
Histogram: 1 0 0 0 0 0 0 0 0 0
Nghost:    0 ave 0 max 0 min
Histogram: 1 0 0 0 0 0 0 0 0 0
Neighs:    362735 ave 362735 max 362735 min
Histogram: 1 0 0 0 0 0 0 0 0 0

Total # of neighbors = 362735
Ave neighs/atom = 124.395
Ave special neighs/atom = 10.9588
Neighbor list builds = 1
Dangerous builds = 0
write_dump all custom pysimm.dump.tmp id q x y z vx vy vz
quit


################################################################################
##################################    Init    ##################################
################################################################################
units           real
atom_style      full
pair_style      lj/cut/coul/long 12.0  12.0
kspace_style    pppm 1e-4
bond_style      harmonic
angle_style     harmonic
dihedral_style  fourier
improper_style  cvff
special_bonds   amber
pair_modify     mix arithmetic
read_data       temp.lmps
  orthogonal box = (-212.615 -212.615 -212.615) to (212.615 212.615 212.615)
  1 by 1 by 1 MPI processor grid
  reading atoms ...
  2978 atoms
  reading velocities ...
  2978 velocities
  scanning bonds ...
  4 = max bonds/atom
  scanning angles ...
  6 = max angles/atom
  scanning dihedrals ...
  21 = max dihedrals/atom
  scanning impropers ...
  1 = max impropers/atom
  reading bonds ...
  3073 bonds
  reading angles ...
  5664 angles
  reading dihedrals ...
  7869 dihedrals
  reading impropers ...
  192 impropers
  4 = max # of 1-2 neighbors
  7 = max # of 1-3 neighbors
  18 = max # of 1-4 neighbors
  21 = max # of special neighbors
  special bonds CPU = 0.00446701 secs
  read_data CPU = 0.060282 secs
################################################################################

min_style cg
minimize 1e-06 1e-06 1000000 10000000
WARNING: Using 'neigh_modify every 1 delay 0 check yes' setting during minimization (../min.cpp:190)
PPPM initialization ...
WARNING: System is not charge neutral, net charge = -0.000144 (../kspace.cpp:313)
  using 12-bit tables for long-range coulomb (../kspace.cpp:332)
  G vector (1/distance) = 0.102028
  grid = 40 40 40
  stencil order = 5
  estimated absolute RMS force accuracy = 0.0344087
  estimated relative force accuracy = 0.000103621
  using double precision KISS FFT
  3d grid and FFT values/proc = 91125 64000
Neighbor list info ...
  update every 1 steps, delay 0 steps, check yes
  max neighbors/atom: 2000, page size: 100000
  master list distance cutoff = 14
  ghost atom cutoff = 14
  binsize = 7, bins = 61 61 61
  1 neighbor lists, perpetual/occasional/extra = 1 0 0
  (1) pair lj/cut/coul/long, perpetual
      attributes: half, newton on
      pair build: half/bin/newton
      stencil: half/bin/3d/newton
      bin: standard
Per MPI rank memory allocation (min/avg/max) = 29.1 | 29.1 | 29.1 Mbytes
Step Temp E_pair E_mol TotEng Press 
       0    166.58373   -3283.9048    3400.2691    1594.6069   0.45935252 
       3    166.58373   -3283.9048    3399.7761    1594.1139   0.45935658 
Loop time of 6.68626 on 1 procs for 3 steps with 2978 atoms

100.0% CPU use with 1 MPI tasks x no OpenMP threads

Minimization stats:
  Stopping criterion = quadratic factors are zero
  Energy initial, next-to-last, final = 
         116.364331779      115.871315589      115.871315589
  Force two-norm initial, final = 5.75948e+14 1.94482e+13
  Force max component initial, final = 4.64266e+14 1.36549e+13
  Final line search alpha, max atom move = 6.50445e-30 8.88178e-17
  Iterations, force evaluations = 3 242

MPI task timing breakdown:
Section |  min time  |  avg time  |  max time  |%varavg| %total
---------------------------------------------------------------
Pair    | 2.8072     | 2.8072     | 2.8072     |   0.0 | 41.99
Bond    | 0.2625     | 0.2625     | 0.2625     |   0.0 |  3.93
Kspace  | 3.6093     | 3.6093     | 3.6093     |   0.0 | 53.98
Neigh   | 0          | 0          | 0          |   0.0 |  0.00
Comm    | 9.2506e-05 | 9.2506e-05 | 9.2506e-05 |   0.0 |  0.00
Output  | 0          | 0          | 0          |   0.0 |  0.00
Modify  | 0          | 0          | 0          |   0.0 |  0.00
Other   |            | 0.007096   |            |       |  0.11

Nlocal:    2978 ave 2978 max 2978 min
Histogram: 1 0 0 0 0 0 0 0 0 0
Nghost:    0 ave 0 max 0 min
Histogram: 1 0 0 0 0 0 0 0 0 0
Neighs:    380176 ave 380176 max 380176 min
Histogram: 1 0 0 0 0 0 0 0 0 0

Total # of neighbors = 380176
Ave neighs/atom = 127.662
Ave special neighs/atom = 10.959
Neighbor list builds = 0
Dangerous builds = 0
write_dump all custom pysimm.dump.tmp id q x y z vx vy vz
quit


################################################################################
##################################    Init    ##################################
################################################################################
units           real
atom_style      full
pair_style      lj/cut/coul/long 12.0  12.0
kspace_style    pppm 1e-4
bond_style      harmonic
angle_style     harmonic
dihedral_style  fourier
improper_style  cvff
special_bonds   amber
pair_modify     mix arithmetic
read_data       temp.lmps
  orthogonal box = (-214.112 -214.112 -214.112) to (214.112 214.112 214.112)
  1 by 1 by 1 MPI processor grid
  reading atoms ...
  3040 atoms
  reading velocities ...
  3040 velocities
  scanning bonds ...
  4 = max bonds/atom
  scanning angles ...
  6 = max angles/atom
  scanning dihedrals ...
  21 = max dihedrals/atom
  scanning impropers ...
  1 = max impropers/atom
  reading bonds ...
  3137 bonds
  reading angles ...
  5782 angles
  reading dihedrals ...
  8033 dihedrals
  reading impropers ...
  196 impropers
  4 = max # of 1-2 neighbors
  7 = max # of 1-3 neighbors
  18 = max # of 1-4 neighbors
  21 = max # of special neighbors
  special bonds CPU = 0.00454903 secs
  read_data CPU = 0.041286 secs
################################################################################

min_style cg
minimize 1e-06 1e-06 1000000 10000000
WARNING: Using 'neigh_modify every 1 delay 0 check yes' setting during minimization (../min.cpp:190)
PPPM initialization ...
WARNING: System is not charge neutral, net charge = -0.000147 (../kspace.cpp:313)
  using 12-bit tables for long-range coulomb (../kspace.cpp:332)
  G vector (1/distance) = 0.101522
  grid = 40 40 40
  stencil order = 5
  estimated absolute RMS force accuracy = 0.0349149
  estimated relative force accuracy = 0.000105145
  using double precision KISS FFT
  3d grid and FFT values/proc = 91125 64000
Neighbor list info ...
  update every 1 steps, delay 0 steps, check yes
  max neighbors/atom: 2000, page size: 100000
  master list distance cutoff = 14
  ghost atom cutoff = 14
  binsize = 7, bins = 62 62 62
  1 neighbor lists, perpetual/occasional/extra = 1 0 0
  (1) pair lj/cut/coul/long, perpetual
      attributes: half, newton on
      pair build: half/bin/newton
      stencil: half/bin/3d/newton
      bin: standard
Per MPI rank memory allocation (min/avg/max) = 29.16 | 29.16 | 29.16 Mbytes
Step Temp E_pair E_mol TotEng Press 
       0    177.04943   -3356.8548    3498.0073    1744.9868   0.48077132 
      16    177.04943    -3361.807    3237.4025    1479.4299   0.77816439 
Loop time of 4.95032 on 1 procs for 16 steps with 3040 atoms

100.0% CPU use with 1 MPI tasks x no OpenMP threads

Minimization stats:
  Stopping criterion = linesearch alpha is zero
  Energy initial, next-to-last, final = 
         141.152411961     -124.404497448     -124.404497448
  Force two-norm initial, final = 2.99126e+14 36.3654
  Force max component initial, final = 1.72752e+14 13.0977
  Final line search alpha, max atom move = 8.59637e-12 1.12593e-10
  Iterations, force evaluations = 16 164

MPI task timing breakdown:
Section |  min time  |  avg time  |  max time  |%varavg| %total
---------------------------------------------------------------
Pair    | 2.0956     | 2.0956     | 2.0956     |   0.0 | 42.33
Bond    | 0.1947     | 0.1947     | 0.1947     |   0.0 |  3.93
Kspace  | 2.6451     | 2.6451     | 2.6451     |   0.0 | 53.43
Neigh   | 0.008393   | 0.008393   | 0.008393   |   0.0 |  0.17
Comm    | 0.00010419 | 0.00010419 | 0.00010419 |   0.0 |  0.00
Output  | 0          | 0          | 0          |   0.0 |  0.00
Modify  | 0          | 0          | 0          |   0.0 |  0.00
Other   |            | 0.006431   |            |       |  0.13

Nlocal:    3040 ave 3040 max 3040 min
Histogram: 1 0 0 0 0 0 0 0 0 0
Nghost:    0 ave 0 max 0 min
Histogram: 1 0 0 0 0 0 0 0 0 0
Neighs:    391898 ave 391898 max 391898 min
Histogram: 1 0 0 0 0 0 0 0 0 0

Total # of neighbors = 391898
Ave neighs/atom = 128.914
Ave special neighs/atom = 10.9592
Neighbor list builds = 1
Dangerous builds = 0
write_dump all custom pysimm.dump.tmp id q x y z vx vy vz
quit


################################################################################
##################################    Init    ##################################
################################################################################
units           real
atom_style      full
pair_style      lj/cut/coul/long 12.0  12.0
kspace_style    pppm 1e-4
bond_style      harmonic
angle_style     harmonic
dihedral_style  fourier
improper_style  cvff
special_bonds   amber
pair_modify     mix arithmetic
read_data       temp.lmps
  orthogonal box = (-215.589 -215.589 -215.589) to (215.589 215.589 215.589)
  1 by 1 by 1 MPI processor grid
  reading atoms ...
  3102 atoms
  reading velocities ...
  3102 velocities
  scanning bonds ...
  4 = max bonds/atom
  scanning angles ...
  6 = max angles/atom
  scanning dihedrals ...
  21 = max dihedrals/atom
  scanning impropers ...
  1 = max impropers/atom
  reading bonds ...
  3201 bonds
  reading angles ...
  5900 angles
  reading dihedrals ...
  8197 dihedrals
  reading impropers ...
  200 impropers
  4 = max # of 1-2 neighbors
  7 = max # of 1-3 neighbors
  18 = max # of 1-4 neighbors
  21 = max # of special neighbors
  special bonds CPU = 0.00468397 secs
  read_data CPU = 0.0633881 secs
################################################################################

min_style cg
minimize 1e-06 1e-06 1000000 10000000
WARNING: Using 'neigh_modify every 1 delay 0 check yes' setting during minimization (../min.cpp:190)
PPPM initialization ...
WARNING: System is not charge neutral, net charge = -0.00015 (../kspace.cpp:313)
  using 12-bit tables for long-range coulomb (../kspace.cpp:332)
  G vector (1/distance) = 0.101027
  grid = 40 40 40
  stencil order = 5
  estimated absolute RMS force accuracy = 0.0354143
  estimated relative force accuracy = 0.000106649
  using double precision KISS FFT
  3d grid and FFT values/proc = 91125 64000
Neighbor list info ...
  update every 1 steps, delay 0 steps, check yes
  max neighbors/atom: 2000, page size: 100000
  master list distance cutoff = 14
  ghost atom cutoff = 14
  binsize = 7, bins = 62 62 62
  1 neighbor lists, perpetual/occasional/extra = 1 0 0
  (1) pair lj/cut/coul/long, perpetual
      attributes: half, newton on
      pair build: half/bin/newton
      stencil: half/bin/3d/newton
      bin: standard
Per MPI rank memory allocation (min/avg/max) = 29.55 | 29.55 | 29.55 Mbytes
Step Temp E_pair E_mol TotEng Press 
       0    188.63048   -3438.8953    3600.8866    1905.5956   0.49451998 
       1    188.63048   -3438.8953    3600.8866    1905.5956   0.49451998 
Loop time of 2.66567 on 1 procs for 1 steps with 3102 atoms

100.1% CPU use with 1 MPI tasks x no OpenMP threads

Minimization stats:
  Stopping criterion = quadratic factors are zero
  Energy initial, next-to-last, final = 
         161.991313749      161.991313749      161.991313749
  Force two-norm initial, final = 2.55355e+14 2.55355e+14
  Force max component initial, final = 1.58589e+14 1.58589e+14
  Final line search alpha, max atom move = 2.2402e-30 3.55271e-16
  Iterations, force evaluations = 1 78

MPI task timing breakdown:
Section |  min time  |  avg time  |  max time  |%varavg| %total
---------------------------------------------------------------
Pair    | 1.1365     | 1.1365     | 1.1365     |   0.0 | 42.63
Bond    | 0.10648    | 0.10648    | 0.10648    |   0.0 |  3.99
Kspace  | 1.4197     | 1.4197     | 1.4197     |   0.0 | 53.26
Neigh   | 0          | 0          | 0          |   0.0 |  0.00
Comm    | 2.408e-05  | 2.408e-05  | 2.408e-05  |   0.0 |  0.00
Output  | 0          | 0          | 0          |   0.0 |  0.00
Modify  | 0          | 0          | 0          |   0.0 |  0.00
Other   |            | 0.003001   |            |       |  0.11

Nlocal:    3102 ave 3102 max 3102 min
Histogram: 1 0 0 0 0 0 0 0 0 0
Nghost:    0 ave 0 max 0 min
Histogram: 1 0 0 0 0 0 0 0 0 0
Neighs:    396609 ave 396609 max 396609 min
Histogram: 1 0 0 0 0 0 0 0 0 0

Total # of neighbors = 396609
Ave neighs/atom = 127.856
Ave special neighs/atom = 10.9594
Neighbor list builds = 0
Dangerous builds = 0
write_dump all custom pysimm.dump.tmp id q x y z vx vy vz
quit
