pySIMM System Object

2234 atoms
2305 bonds
4248 angles
5901 dihedrals
144 impropers

9 atom types
10 bond types
23 angle types
20 dihedral types
1 improper types

-192.715624 192.715624 xlo xhi
-192.715624 192.715624 ylo yhi
-192.715624 192.715624 zlo zhi

Masses

   1	12.01	# c3
   2	12.01	# c
   3	1.008	# hc
   4	16.0	# os
   5	16.0	# o
   6	16.0	# oh
   7	1.008	# h1
   8	1.008	# ho
   9	1.008	# h2

Pair Coeffs

   1	0.1094	3.3996695084235347	# c3
   2	0.086	3.3996695084235347	# c
   3	0.0157	2.649532787749369	# hc
   4	0.17	3.0000123434657784	# os
   5	0.21	2.959921901149463	# o
   6	0.2104	3.0664733878390478	# oh
   7	0.0157	2.471353044121301	# h1
   8	0.0047	0.5379246460131368	# ho
   9	0.0157	2.2931733004932333	# h2

Bond Coeffs

   1	331.7	1.0961	# c3,h2
   2	637.7	1.2183	# c,o
   3	300.9	1.5375	# c3,c3
   4	330.6	1.0969	# c3,hc
   5	316.7	1.4233	# c3,oh
   6	330.6	1.0969	# c3,h1
   7	371.4	0.973	# ho,oh
   8	308.6	1.4316	# c3,os
   9	313.0	1.5241	# c,c3
  10	390.8	1.3584	# c,os

Angle Coeffs

   1	46.93	108.77	# c,c3,hc
   2	67.4	123.2	# c3,c,o
   3	68.0	107.97	# c3,c3,os
   4	46.39	109.56	# c3,c3,h1
   5	46.25	110.22	# c3,c3,h2
   6	62.86	111.51	# c3,c3,c3
   7	68.89	110.72	# c3,c,os
   8	72.58	109.38	# oh,c3,os
   9	75.32	123.25	# o,c,os
  10	67.47	110.19	# c3,c3,oh
  11	46.34	109.8	# c3,c3,hc
  12	47.38	107.26	# c3,oh,ho
  13	39.24	108.46	# h1,c3,h1
  14	50.85	109.58	# h2,c3,os
  15	72.74	108.29	# os,c3,os
  16	50.8	109.78	# h1,c3,os
  17	63.28	115.98	# c,os,c3
  18	62.7	112.48	# c3,os,c3
  19	50.93	110.26	# h1,c3,oh
  20	39.4	107.58	# hc,c3,hc
  21	51.13	109.43	# h2,c3,oh
  22	51.11	109.5	# hc,c3,oh
  23	62.7	112.48	# c3,oh,c3

Dihedral Coeffs

   1	3	0.18	3	0	0.25	2	180	0.2	1	180	# c3,c3,c3,c3
   2	1	0.3833333333333333	3	0	# X,c3,os,X
   3	2	0.144	3	0	1.175	2	0	# os,c3,c3,oh
   4	3	0.1	3	0	0.85	2	180	1.35	1	180	# c3,os,c3,os
   5	2	0.144	3	0	1.175	2	0	# os,c3,c3,os
   6	3	2.7	2	180	0.0	1	0	1.15	3	0	# c3,c,os,c3
   7	2	0.0	3	0	0.25	1	0	# hc,c3,c3,oh
   8	1	0.16	3	0	# hc,c3,c3,c3
   9	1	0.15555555555555556	3	0	# X,c3,c3,X
  10	2	0.16	3	0	0.25	1	0	# ho,oh,c3,c3
  11	2	0.383	3	0	0.8	1	180	# c3,c3,os,c
  12	1	0.0	2	180	# X,c,c3,X
  13	2	2.7	2	180	1.4	1	180	# o,c,os,c3
  14	2	0.0	3	0	0.25	1	0	# hc,c3,c3,os
  15	2	0.0	3	0	0.25	1	0	# h1,c3,c3,oh
  16	1	0.16666666666666666	3	0	# X,c3,oh,X
  17	3	0.8	1	0	0.0	2	0	0.08	3	180	# hc,c3,c,o
  18	2	0.0	3	0	0.25	1	0	# h1,c3,c3,os
  19	2	0.383	3	0	0.1	2	180	# c3,c3,os,c3
  20	2	0.144	3	0	1.175	2	0	# oh,c3,c3,oh

Improper Coeffs

   1	10.5	-1	2	# c,X,X,o

Atoms

   1	1	1	-0.218842	13.9397	18.412	5.11615
   2	1	2	0.68591	13.609	18.1391	3.66024
   3	1	3	0.086668	14.8552	19.009	5.18113
   4	1	3	0.071846	14.0787	17.4654	5.65014
   5	1	3	0.062371	13.116	18.9681	5.579
   6	1	4	-0.291145	13.4204	19.301	2.96843
   7	1	1	-0.015993	13.0239	19.2426	1.58146
   8	1	5	-0.555985	13.5231	17.0171	3.19013
   9	1	2	0.652223	8.66635	24.0405	-0.228686
  10	1	3	0.062504	6.85135	24.6489	0.753278
  11	1	5	-0.583019	9.52439	24.5722	-0.913295
  12	1	1	-0.168764	7.19734	24.4221	-0.26169
  13	1	3	0.062846	7.05044	25.2994	-0.901635
  14	1	4	-0.264747	8.88792	23.0152	0.639126
  15	1	3	0.073216	6.6123	23.5822	-0.653601
  16	1	1	-0.015836	10.0172	21.3823	1.94906
  17	1	1	0.044531	10.1996	22.4283	0.833196
  18	1	1	0.341309	10.7408	21.7796	-0.470365
  19	1	1	0.132892	11.6762	20.5466	-0.219544
  20	1	6	-0.74435	11.4266	22.7551	-1.26156
  21	1	7	-0.00272	9.86105	21.4522	-1.03672
  22	1	1	-0.008403	12.2877	20.5575	1.21789
  23	1	4	-0.239698	11.2949	20.7926	2.25698
  24	1	7	0.089672	12.3489	18.3921	1.42341
  25	1	7	0.088396	13.9012	19.0995	0.937709
  26	1	7	0.05623	13.0183	21.3762	1.25291
  27	1	7	0.125955	10.9154	23.1861	1.17627
  28	1	8	0.456798	10.8131	23.5418	-1.31621
  29	1	9	0.198085	6.20663	18.0953	3.76504
  30	1	7	0.095469	4.81903	19.4827	2.44052
  31	1	1	-0.308877	6.15141	17.8245	2.69505
  32	1	8	0.426958	5.54467	21.5052	1.15554
  33	1	6	-0.128067	5.30306	16.6932	2.50382
  34	1	1	0.005701	5.63955	19.0295	1.86858
  35	1	7	0.239394	8.31932	18.3759	3.9595
  36	1	5	-0.48496	4.42984	20.7179	-0.0539176
  37	1	1	-0.003409	8.09083	19.8887	2.38519
  38	1	2	0.352525	4.56749	19.5254	-0.287342
  39	1	6	-0.665659	6.25459	21.3782	1.83621
  40	1	1	-0.510331	8.40579	18.4269	2.86324
  41	1	1	0.240953	6.76553	20.0699	1.59601
  42	1	4	0.015262	7.47479	17.5185	2.27239
  43	1	4	0.176506	5.12629	18.6021	0.573758
  44	1	3	0.090205	5.02861	18.4797	-2.11547
  45	1	1	-0.197476	4.15738	18.9352	-1.63273
  46	1	1	-0.039041	9.81135	17.9229	2.49032
  47	1	7	0.144117	9.90748	17.866	1.40171
  48	1	3	0.104606	3.77679	19.7279	-2.29103
  49	1	7	0.111943	7.02928	19.9686	0.535039
  50	1	7	0.160853	10.5769	18.6126	2.86693
  51	1	3	0.069306	3.37702	18.1782	-1.49776
  52	1	4	-0.432857	10.0103	16.6214	3.06545
  53	1	3	0.042395	9.60651	14.5237	4.68876
  54	1	2	0.753764	10.3851	16.507	4.37318
  55	1	1	-0.122098	10.5658	15.0488	4.76352
  56	1	3	0.030493	10.9443	14.9753	5.79023
  57	1	5	-0.562583	10.5943	17.4425	5.12926
  58	1	3	0.048272	11.2814	14.578	4.07973
  59	1	4	-0.191545	9.12194	20.3511	1.47718
  60	1	9	0.130627	9.6056	21.8624	2.84493
  61	1	3	0.015236	12.5182	20.6066	-0.922777
  62	1	7	0.210365	8.01136	20.541	3.26493
  63	1	1	-0.218842	13.3029	14.0975	-9.24082
  64	1	2	0.68591	12.1047	14.8923	-9.72643
  65	1	3	0.086668	13.5704	14.4261	-8.23056
  66	1	3	0.071846	14.1546	14.2549	-9.91209
  67	1	3	0.062371	13.0538	13.0307	-9.21153
  68	1	4	-0.291145	11.0072	14.6554	-8.94845
  69	1	1	-0.015993	9.77839	15.3643	-9.20633
  70	1	5	-0.555985	12.1249	15.5896	-10.7285
  71	1	2	0.652223	6.20169	18.8702	-6.62621
  72	1	3	0.062504	4.50552	18.6725	-7.94056
  73	1	5	-0.583019	6.37785	19.5117	-5.60306
  74	1	1	-0.168764	4.867	18.2482	-6.99693
  75	1	3	0.062846	4.98794	17.1654	-7.117
  76	1	4	-0.264747	7.1275	18.6854	-7.60969
  77	1	3	0.073216	4.13377	18.4437	-6.20618
  78	1	1	-0.015836	9.29601	18.0343	-6.62679
  79	1	1	0.044531	8.50537	19.1025	-7.42852
  80	1	1	0.341309	9.13655	19.2551	-8.83066
  81	1	1	0.132892	9.22765	17.8652	-9.54263
  82	1	6	-0.74435	10.4136	19.8859	-8.68377
  83	1	7	-0.00272	8.48898	19.9148	-9.42197
  84	1	1	-0.008403	9.88809	16.7989	-8.63012
  85	1	4	-0.239698	9.23561	16.7894	-7.34378
  86	1	7	0.089672	8.94202	14.8436	-8.72186
  87	1	7	0.088396	9.57641	15.3853	-10.2854
  88	1	7	0.05623	10.9451	17.0665	-8.49881
  89	1	7	0.125955	8.55667	20.0732	-6.91967
  90	1	8	0.456798	10.6308	20.2315	-9.58284
  91	1	9	0.198085	10.4749	20.0287	-2.36114
  92	1	7	0.095469	8.43957	19.2369	-1.02184
  93	1	1	-0.308877	10.4624	19.0906	-1.79212
  94	1	8	0.426958	7.00701	19.4971	-4.06721
  95	1	6	-0.128067	11.0203	19.2909	-0.488087
  96	1	1	0.005701	9.0184	18.5575	-1.65746
  97	1	7	0.239394	11.4925	18.406	-4.54205
  98	1	5	-0.48496	6.81677	16.9037	-0.908392
  99	1	1	-0.003409	9.34212	18.5244	-4.21875
 100	1	2	0.352525	7.96413	16.5672	-0.666138
 101	1	6	-0.665659	7.40635	19.5362	-3.14995
 102	1	1	-0.510331	10.7562	17.9	-3.90256
 103	1	1	0.240953	8.33267	18.4515	-3.04297
 104	1	4	0.015262	11.1861	18.1026	-2.53456
 105	1	4	0.176506	9.08839	17.2639	-1.01319
 106	1	3	0.090205	7.42914	14.6072	0.0612772
 107	1	1	-0.197476	8.30751	15.2627	0.0415451
 108	1	1	-0.039041	10.8692	16.3783	-4.18147
 109	1	7	0.144117	10.8821	16.2063	-5.26955
 110	1	3	0.104606	8.61616	15.4693	1.07244
 111	1	7	0.111943	7.79918	17.4947	-3.11879
 112	1	7	0.160853	11.8069	15.9674	-3.77678
 113	1	3	0.069306	9.13176	14.7542	-0.471438
 114	1	4	-0.432857	9.73127	15.711	-3.59974
 115	1	3	0.042395	8.36718	13.531	-2.40754
 116	1	2	0.753764	9.42248	14.4545	-4.04096
 117	1	1	-0.122098	8.14398	13.9368	-3.39951
 118	1	3	0.030493	7.70553	13.1467	-4.02043
 119	1	5	-0.562583	10.0716	13.8224	-4.85747
 120	1	3	0.048272	7.41885	14.7528	-3.29663
 121	1	4	-0.191545	8.72459	17.8299	-5.3253
 122	1	9	0.130627	10.3471	18.3377	-6.53399
 123	1	3	0.015236	8.20538	17.5331	-9.76743
 124	1	7	0.210365	9.45965	19.5896	-4.46205
 125	1	1	-0.218842	5.84929	23.8463	-12.1585
 126	1	2	0.68591	6.24842	24.406	-13.5117
 127	1	3	0.086668	6.71323	23.3541	-11.6979
 128	1	3	0.071846	5.03977	23.1179	-12.2804
 129	1	3	0.062371	5.51581	24.6613	-11.5065
 130	1	4	-0.291145	7.41818	25.1012	-13.4265
 131	1	1	-0.015993	8.04284	25.6537	-14.607
 132	1	5	-0.555985	5.5667	24.2814	-14.5141
 133	1	2	0.652223	13.3728	24.7959	-14.325
 134	1	3	0.062504	14.8652	25.5548	-12.9664
 135	1	5	-0.583019	13.8855	25.2571	-15.3327
 136	1	1	-0.168764	13.923	24.9965	-12.9238
 137	1	3	0.062846	13.1985	25.5549	-12.3194
 138	1	4	-0.264747	12.2216	24.0644	-14.313
 139	1	3	0.073216	14.0974	24.0242	-12.4501
 140	1	1	-0.015836	10.345	22.8223	-15.2512
 141	1	1	0.044531	11.5112	23.7946	-15.5505
 142	1	1	0.341309	10.9994	25.141	-16.1342
 143	1	1	0.132892	9.54028	25.0459	-16.6494
 144	1	6	-0.74435	11.9008	25.5851	-17.1556
 145	1	7	-0.00272	11.0026	25.8849	-15.3267
 146	1	1	-0.008403	8.58752	24.5226	-15.5214
 147	1	4	-0.239698	9.28407	23.5894	-14.6496
 148	1	7	0.089672	8.8707	26.3069	-14.304
 149	1	7	0.088396	7.32136	26.2625	-15.1657
 150	1	7	0.05623	7.74326	24.0112	-16.0013
 151	1	7	0.125955	12.1807	23.3155	-16.2769
 152	1	8	0.456798	12.7873	25.6353	-16.6973
 153	1	9	0.198085	8.53516	19.1207	-11.677
 154	1	7	0.095469	8.97484	17.8201	-13.5627
 155	1	1	-0.308877	9.59765	18.8624	-11.7728
 156	1	8	0.426958	9.92536	18.2936	-15.75
 157	1	6	-0.128067	9.95596	17.8967	-10.7822
 158	1	1	0.005701	9.87365	18.3433	-13.2109
 159	1	7	0.239394	8.78419	21.2954	-11.8982
 160	1	5	-0.48496	10.7343	16.6931	-15.3364
 161	1	1	-0.003409	9.83525	20.9185	-13.7812
 162	1	2	0.352525	11.3042	16.6495	-14.2572
 163	1	6	-0.665659	9.62523	19.2011	-15.4829
 164	1	1	-0.510331	9.8214	21.1581	-12.2307
 165	1	1	0.240953	10.2315	19.4794	-14.2201
 166	1	4	0.015262	10.3922	20.0278	-11.5742
 167	1	4	0.176506	10.9835	17.4095	-13.1633
 168	1	3	0.090205	12.8298	15.2806	-14.9334
 169	1	1	-0.197476	12.4979	15.7419	-13.9957
 170	1	1	-0.039041	10.6176	22.3906	-11.7525
 171	1	7	0.144117	11.6847	22.2828	-12.0013
 172	1	3	0.104606	12.2153	14.952	-13.2903
 173	1	7	0.111943	11.3259	19.4868	-14.3306
 174	1	7	0.160853	10.254	23.3098	-12.2398
 175	1	3	0.069306	13.3259	16.3174	-13.5646
 176	1	4	-0.432857	10.4286	22.4614	-10.3273
 177	1	3	0.042395	9.73495	23.1974	-7.9628
 178	1	2	0.753764	11.0862	23.4339	-9.62751
 179	1	1	-0.122098	10.8086	23.3345	-8.13512
 180	1	3	0.030493	11.1422	24.2465	-7.62555
 181	1	5	-0.562583	11.8093	24.2763	-10.1334
 182	1	3	0.048272	11.3442	22.4726	-7.72043
 183	1	4	-0.191545	10.8232	21.7841	-14.3761
 184	1	9	0.130627	9.9771	22.3592	-16.1778
 185	1	3	0.015236	9.5201	24.317	-17.4677
 186	1	7	0.210365	8.84207	21.1264	-14.2062
 187	1	1	-0.218842	14.0005	29.8546	-19.4975
 188	1	2	0.68591	13.4703	30.3637	-20.8249
 189	1	3	0.086668	15.0951	29.8609	-19.5112
 190	1	3	0.071846	13.6548	28.8275	-19.3321
 191	1	3	0.062371	13.6387	30.4877	-18.6793
 192	1	4	-0.291145	13.7291	29.4779	-21.835
 193	1	1	-0.015993	13.2489	29.7069	-23.1815
 194	1	5	-0.555985	12.9278	31.4503	-20.9607
 195	1	2	0.652223	8.56953	26.1609	-25.4307
 196	1	3	0.062504	8.11189	24.2857	-24.4783
 197	1	5	-0.583019	8.13478	26.845	-26.3423
 198	1	1	-0.168764	8.51979	24.6439	-25.4307
 199	1	3	0.062846	7.88517	24.2886	-26.2505
 200	1	4	-0.264747	9.20305	26.6444	-24.3238
 201	1	3	0.073216	9.53093	24.2421	-25.5551
 202	1	1	-0.015836	9.86715	28.2449	-22.6231
 203	1	1	0.044531	9.29923	28.0706	-24.0568
 204	1	1	0.341309	10.2085	28.7571	-25.122
 205	1	1	0.132892	11.0554	29.9555	-24.5823
 206	1	6	-0.74435	9.46322	29.1234	-26.2865
 207	1	7	-0.00272	10.9397	27.9981	-25.4293
 208	1	1	-0.008403	11.7037	29.6681	-23.1866
 209	1	4	-0.239698	11.2939	28.3767	-22.7014
 210	1	7	0.089672	13.6364	28.9287	-23.8517
 211	1	7	0.088396	13.5984	30.682	-23.5462
 212	1	7	0.05623	11.3659	30.4216	-22.4739
 213	1	7	0.125955	8.3067	28.5312	-24.0931
 214	1	8	0.456798	8.89152	28.3304	-26.4951
 215	1	9	0.198085	7.32857	26.5167	-17.9839
 216	1	7	0.095469	8.62327	28.7192	-18.0887
 217	1	1	-0.308877	8.38327	26.555	-18.2913
 218	1	8	0.426958	11.0919	27.0865	-18.1571
 219	1	6	-0.128067	9.1812	26.3611	-17.1107
 220	1	1	0.005701	8.68751	27.9612	-18.8799
 221	1	7	0.239394	10.6342	25.2234	-19.2412
 222	1	5	-0.48496	8.30116	30.3446	-20.3986
 223	1	1	-0.003409	10.2763	26.8938	-20.5732
 224	1	2	0.352525	7.5676	29.3783	-20.5468
 225	1	6	-0.665659	11.1357	27.9848	-18.5797
 226	1	1	-0.510331	9.87349	25.5133	-19.9768
 227	1	1	0.240953	10.0912	28.0395	-19.5529
 228	1	4	0.015262	8.58123	25.5727	-19.3376
 229	1	4	0.176506	7.65425	28.2017	-19.8574
 230	1	3	0.090205	6.12559	28.2842	-21.7475
 231	1	1	-0.197476	6.49798	29.3081	-21.6248
 232	1	1	-0.039041	9.82072	24.4091	-21.0489
 233	1	7	0.144117	9.58661	23.4311	-20.6026
 234	1	3	0.104606	6.92263	29.6299	-22.5756
 235	1	7	0.111943	10.2043	28.9938	-20.0773
 236	1	7	0.160853	9.04177	24.6383	-21.7936
 237	1	3	0.069306	5.65991	29.9644	-21.3762
 238	1	4	-0.432857	11.1219	24.3942	-21.6615
 239	1	3	0.042395	12.8845	23.191	-24.1999
 240	1	2	0.753764	11.3131	23.6687	-22.7983
 241	1	1	-0.122098	12.7331	23.8253	-23.3188
 242	1	3	0.030493	13.4501	23.5392	-22.5401
 243	1	5	-0.562583	10.4548	23.0009	-23.3501
 244	1	3	0.048272	12.9081	24.8726	-23.5911
 245	1	4	-0.191545	9.48827	27.1388	-21.7678
 246	1	9	0.130627	9.46608	29.1693	-22.1994
 247	1	3	0.015236	11.8776	30.0664	-25.3008
 248	1	7	0.210365	11.3403	26.8489	-20.8468
 249	1	1	-0.218842	0.636916	35.1865	-21.5782
 250	1	2	0.68591	1.24794	34.291	-20.516
 251	1	3	0.086668	0.44696	36.1805	-21.1583
 252	1	3	0.071846	-0.306481	34.751	-21.9255
 253	1	3	0.062371	1.32264	35.276	-22.4285
 254	1	4	-0.291145	1.64073	33.0954	-21.0447
 255	1	1	-0.015993	2.27043	32.0939	-20.2158
 256	1	5	-0.555985	1.34139	34.6118	-19.3438
 257	1	2	0.652223	8.68276	33.2127	-18.4271
 258	1	3	0.062504	10.3598	34.0218	-19.5079
 259	1	5	-0.583019	8.36432	33.3044	-17.2545
 260	1	1	-0.168764	10.1217	33.1352	-18.9102
 261	1	3	0.062846	10.8027	33.082	-18.053
 262	1	4	-0.264747	7.81188	33.1839	-19.4731
 263	1	3	0.073216	10.2553	32.2405	-19.53
 264	1	1	-0.015836	5.80393	33.2759	-20.8157
 265	1	1	0.044531	6.36429	33.1878	-19.3536
 266	1	1	0.341309	5.86504	31.9477	-18.5554
 267	1	1	0.132892	4.3689	31.5816	-18.7995
 268	1	6	-0.74435	6.04832	32.1272	-17.1452
 269	1	7	-0.00272	6.49016	31.113	-18.8749
 270	1	1	-0.008403	3.68426	32.5625	-19.7848
 271	1	4	-0.239698	4.50958	32.6527	-20.9563
 272	1	7	0.089672	2.35102	31.155	-20.7792
 273	1	7	0.088396	1.65576	31.9027	-19.3258
 274	1	7	0.05623	3.61028	33.5458	-19.3036
 275	1	7	0.125955	6.03895	34.0853	-18.8121
 276	1	8	0.456798	6.94753	32.5579	-17.0322
 277	1	9	0.198085	9.60228	31.1682	-22.6494
 278	1	7	0.095469	9.67667	33.6683	-24.4166
 279	1	1	-0.308877	9.43307	31.6613	-23.6111
 280	1	8	0.426958	9.41172	35.5929	-22.9043
 281	1	6	-0.128067	10.3539	31.2227	-24.628
 282	1	1	0.005701	9.64615	33.1918	-23.4275
 283	1	7	0.239394	7.40688	32.9767	-25.0287
 284	1	5	-0.48496	11.1139	35.5978	-23.1136
 285	1	1	-0.003409	7.12763	33.2909	-22.8905
 286	1	2	0.352525	11.551	34.5471	-22.6751
 287	1	6	-0.665659	8.48232	35.2695	-22.757
 288	1	1	-0.510331	7.12283	32.3801	-24.1496
 289	1	1	0.240953	8.53285	33.853	-22.572
 290	1	4	0.015262	8.08499	31.3212	-23.9974
 291	1	4	0.176506	10.9238	33.3325	-22.7595
 292	1	3	0.090205	13.4141	35.4162	-22.0173
 293	1	1	-0.197476	12.8858	34.4577	-21.9493
 294	1	1	-0.039041	5.72621	31.7799	-24.4196
 295	1	7	0.144117	5.44758	31.0493	-23.6475
 296	1	3	0.104606	13.5071	33.6755	-22.401
 297	1	7	0.111943	8.76514	33.6286	-21.5298
 298	1	7	0.160853	4.9695	32.5771	-24.3997
 299	1	3	0.069306	12.7246	34.211	-20.8931
 300	1	4	-0.432857	5.76586	31.1971	-25.7345
 301	1	3	0.042395	6.18299	28.4263	-27.495
 302	1	2	0.753764	6.08872	29.877	-25.8965
 303	1	1	-0.122098	6.15222	29.515	-27.3729
 304	1	3	0.030493	7.05076	29.9547	-27.8217
 305	1	5	-0.562583	6.12047	29.0534	-24.9951
 306	1	3	0.048272	5.27111	29.9104	-27.8909
 307	1	4	-0.191545	6.64217	32.5505	-21.7456
 308	1	9	0.130627	5.73837	34.3328	-21.1038
 309	1	3	0.015236	3.81927	31.6709	-17.8529
 310	1	7	0.210365	6.46224	34.1431	-23.0889
 311	1	1	-0.218842	-2.84487	23.5488	-16.8343
 312	1	2	0.68591	-2.06033	24.2293	-15.7282
 313	1	3	0.086668	-3.91477	23.7412	-16.6993
 314	1	3	0.071846	-2.66466	22.4684	-16.8005
 315	1	3	0.062371	-2.52387	23.9333	-17.8088
 316	1	4	-0.291145	-0.720559	24.0153	-15.8595
 317	1	1	-0.015993	0.175006	24.6029	-14.8921
 318	1	5	-0.555985	-2.57165	24.876	-14.831
 319	1	2	0.652223	2.49479	22.0115	-19.7301
 320	1	3	0.062504	1.83926	21.487	-21.7146
 321	1	5	-0.583019	2.8172	20.8788	-19.4146
 322	1	1	-0.168764	1.94299	22.3854	-21.095
 323	1	3	0.062846	0.962368	22.8613	-20.9807
 324	1	4	-0.264747	2.5621	23.0963	-18.9068
 325	1	3	0.073216	2.62352	23.0889	-21.5876
 326	1	1	-0.015836	3.22426	24.4073	-16.973
 327	1	1	0.044531	3.07391	22.9794	-17.5512
 328	1	1	0.341309	2.10042	22.0901	-16.7159
 329	1	1	0.132892	1.86453	22.5772	-15.2528
 330	1	6	-0.74435	2.59075	20.7474	-16.7302
 331	1	7	-0.00272	1.12323	22.1116	-17.2165
 332	1	1	-0.008403	1.62064	24.1305	-15.1758
 333	1	4	-0.239698	1.95948	24.7844	-16.414
 334	1	7	0.089672	-0.11683	24.3287	-13.8727
 335	1	7	0.088396	0.126232	25.6986	-14.9584
 336	1	7	0.05623	2.26718	24.5269	-14.3819
 337	1	7	0.125955	4.06724	22.5109	-17.5594
 338	1	8	0.456798	2.68407	20.5061	-17.6929
 339	1	9	0.198085	5.8078	29.3737	-18.205
 340	1	7	0.095469	2.96432	29.3978	-17.2559
 341	1	1	-0.308877	4.76346	29.157	-18.4523
 342	1	8	0.426958	2.525	26.4044	-15.7014
 343	1	6	-0.128067	4.224	30.2219	-19.2541
 344	1	1	0.005701	3.95311	28.9389	-17.1349
 345	1	7	0.239394	2.7632	28.114	-19.6078
 346	1	5	-0.48496	6.62169	28.4368	-16.1597
 347	1	1	-0.003409	3.13238	26.6736	-18.0257
 348	1	2	0.352525	5.8944	29.2619	-15.63
 349	1	6	-0.665659	2.82103	27.3431	-15.7024
 350	1	1	-0.510331	3.50732	27.3355	-19.3838
 351	1	1	0.240953	3.7201	27.4426	-16.8058
 352	1	4	0.015262	4.79018	27.9496	-19.2339
 353	1	4	0.176506	4.61853	29.5851	-16.021
 354	1	3	0.090205	6.47449	31.113	-14.6877
 355	1	1	-0.197476	6.3312	30.062	-14.4112
 356	1	1	-0.039041	3.56273	26.3616	-20.5832
 357	1	7	0.144117	4.41852	25.6794	-20.4737
 358	1	3	0.104606	7.2769	29.663	-14.026
 359	1	7	0.111943	4.68561	26.9775	-16.5621
 360	1	7	0.160853	2.64676	25.7535	-20.6327
 361	1	3	0.069306	5.56886	30.0031	-13.6257
 362	1	4	-0.432857	3.71138	27.1505	-21.7805
 363	1	3	0.042395	3.8762	29.4243	-23.1851
 364	1	2	0.753764	2.67402	27.8991	-22.2656
 365	1	1	-0.122098	3.09769	28.7128	-23.4783
 366	1	3	0.030493	2.24263	29.2643	-23.8867
 367	1	5	-0.562583	1.54212	27.9047	-21.808
 368	1	3	0.048272	3.50311	28.0479	-24.2495
 369	1	4	-0.191545	3.64352	25.3181	-18.0191
 370	1	9	0.130627	3.98293	24.4104	-16.1821
 371	1	3	0.015236	2.76657	22.3451	-14.6704
 372	1	7	0.210365	2.03477	26.662	-17.955
 373	1	1	-0.218842	-3.2672	14.2514	-14.3405
 374	1	2	0.68591	-3.59324	15.7303	-14.4311
 375	1	3	0.086668	-3.82531	13.6983	-15.1001
 376	1	3	0.071846	-3.52473	13.8719	-13.3458
 377	1	3	0.062371	-2.19813	14.105	-14.506
 378	1	4	-0.291145	-4.80307	16.0013	-13.8489
 379	1	1	-0.015993	-5.30014	17.3581	-13.8172
 380	1	5	-0.555985	-2.9472	16.5138	-15.1094
 381	1	2	0.652223	-1.27842	15.9369	-10.8727
 382	1	3	0.062504	0.418343	14.6292	-11.1026
 383	1	5	-0.583019	-1.73492	15.6958	-11.9735
 384	1	1	-0.168764	-0.0500241	15.2366	-10.319
 385	1	3	0.062846	0.673896	15.977	-9.96033
 386	1	4	-0.264747	-1.76515	16.85	-9.98061
 387	1	3	0.073216	-0.34195	14.5895	-9.48471
 388	1	1	-0.015836	-2.77876	18.6469	-11.4054
 389	1	1	0.044531	-2.95688	17.647	-10.2235
 390	1	1	0.341309	-4.21225	16.7282	-10.3855
 391	1	1	0.132892	-5.35091	17.4314	-11.1758
 392	1	6	-0.74435	-4.67866	16.3787	-9.07782
 393	1	7	-0.00272	-3.94823	15.8142	-10.9282
 394	1	1	-0.008403	-4.85577	18.0674	-12.5158
 395	1	4	-0.239698	-3.42257	18.0987	-12.5611
 396	1	7	0.089672	-6.39132	17.3526	-13.8716
 397	1	7	0.088396	-4.94149	17.9274	-14.6837
 398	1	7	0.05623	-5.22859	19.0985	-12.5576
 399	1	7	0.125955	-3.13347	18.252	-9.32698
 400	1	8	0.456798	-5.51656	15.8962	-9.2237
 401	1	9	0.198085	1.0483	22.5891	-12.82
 402	1	7	0.095469	-1.44411	22.6777	-13.427
 403	1	1	-0.308877	0.541329	21.7461	-13.3041
 404	1	8	0.426958	-0.778133	20.6575	-15.1819
 405	1	6	-0.128067	0.760944	21.8143	-14.7254
 406	1	1	0.005701	-0.984091	21.7872	-12.9844
 407	1	7	0.239394	0.764637	19.1985	-14.3088
 408	1	5	-0.48496	-3.38261	22.1251	-11.4504
 409	1	1	-0.003409	-1.03433	19.2338	-13.0733
 410	1	2	0.352525	-2.29128	22.0651	-10.9132
 411	1	6	-0.665659	-1.73214	20.5906	-14.9559
 412	1	1	-0.510331	0.518578	19.2859	-13.2385
 413	1	1	0.240953	-1.72969	20.541	-13.5312
 414	1	4	0.015262	1.07485	20.5236	-12.7468
 415	1	4	0.176506	-1.09271	21.8785	-11.5465
 416	1	3	0.090205	-3.09344	22.1198	-8.91137
 417	1	1	-0.197476	-2.11532	22.1695	-9.40432
 418	1	1	-0.039041	1.19936	18.11	-12.5103
 419	1	7	0.144117	1.41731	18.3628	-11.4626
 420	1	3	0.104606	-1.63955	23.1247	-9.15246
 421	1	7	0.111943	-2.7743	20.5461	-13.1965
 422	1	7	0.160853	0.534513	17.2334	-12.5123
 423	1	3	0.069306	-1.48649	21.3496	-9.03636
 424	1	4	-0.432857	2.39848	17.8017	-13.2382
 425	1	3	0.042395	4.79384	15.5288	-13.592
 426	1	2	0.753764	3.11186	16.6893	-12.8943
 427	1	1	-0.122098	4.2946	16.4761	-13.8263
 428	1	3	0.030493	5.00793	17.3016	-13.7204
 429	1	5	-0.562583	2.83261	15.951	-11.9625
 430	1	3	0.048272	3.94165	16.446	-14.8642
 431	1	4	-0.191545	-1.38166	18.9364	-11.689
 432	1	9	0.130627	-3.28925	19.586	-11.1586
 433	1	3	0.015236	-5.68325	18.2582	-10.5366
 434	1	7	0.210365	-1.41182	18.4183	-13.7147
 435	1	1	-0.218842	-16.5818	11.4354	-8.89273
 436	1	2	0.68591	-15.8422	12.5407	-8.16032
 437	1	3	0.086668	-16.7305	11.7263	-9.93864
 438	1	3	0.071846	-17.557	11.2621	-8.42396
 439	1	3	0.062371	-15.994	10.5108	-8.86325
 440	1	4	-0.291145	-14.6108	12.7497	-8.71157
 441	1	1	-0.015993	-13.7584	13.8117	-8.23157
 442	1	5	-0.555985	-16.2732	13.0965	-7.16243
 443	1	2	0.652223	-14.2282	19.776	-7.82232
 444	1	3	0.062504	-14.215	21.1319	-6.14847
 445	1	5	-0.583019	-15.1075	20.3625	-8.42898
 446	1	1	-0.168764	-13.6824	20.2338	-6.4813
 447	1	3	0.062846	-13.814	19.4376	-5.7397
 448	1	4	-0.264747	-13.6036	18.6441	-8.25167
 449	1	3	0.073216	-12.6142	20.458	-6.57713
 450	1	1	-0.015836	-12.9082	17.0286	-9.9243
 451	1	1	0.044531	-14.0193	18.0092	-9.48692
 452	1	1	0.341309	-15.375	17.29	-9.2698
 453	1	1	0.132892	-15.2309	15.9746	-8.45038
 454	1	6	-0.74435	-16.0364	17.0274	-10.5097
 455	1	7	-0.00272	-16.0249	17.9816	-8.73384
 456	1	1	-0.008403	-14.0684	15.1102	-9.0145
 457	1	4	-0.239698	-12.8645	15.8973	-9.03194
 458	1	7	0.089672	-12.7146	13.5364	-8.43313
 459	1	7	0.088396	-13.8573	13.959	-7.14816
 460	1	7	0.05623	-14.3116	14.8309	-10.049
 461	1	7	0.125955	-14.1495	18.7684	-10.2682
 462	1	8	0.456798	-16.9619	16.8324	-10.2262
 463	1	9	0.198085	-7.72586	18.1128	-11.7191
 464	1	7	0.095469	-8.62163	15.1877	-11.8389
 465	1	1	-0.308877	-7.75358	17.1113	-11.2726
 466	1	8	0.426958	-10.7699	14.7151	-11.2649
 467	1	6	-0.128067	-6.45229	16.5205	-11.386
 468	1	1	0.005701	-8.83676	16.2536	-11.9926
 469	1	7	0.239394	-9.3755	17.9389	-8.45964
 470	1	5	-0.48496	-9.63468	14.6665	-14.2806
 471	1	1	-0.003409	-10.4395	16.9759	-10.0691
 472	1	2	0.352525	-9.19445	15.7983	-14.3967
 473	1	6	-0.665659	-11.1358	15.4555	-11.8239
 474	1	1	-0.510331	-9.29587	17.8884	-9.5549
 475	1	1	0.240953	-10.2974	16.5816	-11.5621
 476	1	4	0.015262	-8.05327	17.248	-9.87656
 477	1	4	0.176506	-8.73211	16.5997	-13.3891
 478	1	3	0.090205	-8.16047	17.117	-15.7697
 479	1	1	-0.197476	-9.05125	16.4793	-15.7501
 480	1	1	-0.039041	-9.34579	19.3483	-10.0823
 481	1	7	0.144117	-9.30526	19.3925	-11.1802
 482	1	3	0.104606	-9.92871	17.1041	-15.9454
 483	1	7	0.111943	-10.637	17.4464	-12.1472
 484	1	7	0.160853	-10.2947	19.8172	-9.78242
 485	1	3	0.069306	-8.95667	15.726	-16.5399
 486	1	4	-0.432857	-8.25902	20.0592	-9.45635
 487	1	3	0.042395	-5.41318	20.4144	-9.03029
 488	1	2	0.753764	-7.21312	20.5249	-10.2047
 489	1	1	-0.122098	-6.1445	21.1715	-9.33538
 490	1	3	0.030493	-6.59543	21.609	-8.43646
 491	1	5	-0.562583	-7.12964	20.4307	-11.4184
 492	1	3	0.048272	-5.63771	21.9625	-9.89948
 493	1	4	-0.191545	-11.6543	17.7349	-9.89466
 494	1	9	0.130627	-13.1088	16.6752	-10.9441
 495	1	3	0.015236	-16.1588	15.3995	-8.55952
 496	1	7	0.210365	-10.4618	16.058	-9.46299
 497	1	1	-0.218842	-21.9935	20.4767	-7.00745
 498	1	2	0.68591	-21.9762	20.3674	-5.49357
 499	1	3	0.086668	-22.0403	19.4744	-7.44683
 500	1	3	0.071846	-21.0809	20.9788	-7.34714
 501	1	3	0.062371	-22.8642	21.0586	-7.32954
 502	1	4	-0.291145	-21.9958	21.6068	-4.91358
 503	1	1	-0.015993	-21.8868	21.757	-3.48081
 504	1	5	-0.555985	-22.043	19.3023	-4.90586
 505	1	2	0.652223	-16.0327	20.3512	-0.504163
 506	1	3	0.062504	-14.7393	19.4189	0.947338
 507	1	5	-0.583019	-15.7522	21.4959	-0.190401
 508	1	1	-0.168764	-15.3853	19.1242	0.11239
 509	1	3	0.062846	-16.1604	18.4402	0.476866
 510	1	4	-0.264747	-16.9787	20.0143	-1.42436
 511	1	3	0.073216	-14.7876	18.6056	-0.645184
 512	1	1	-0.015836	-18.5068	20.2925	-3.31504
 513	1	1	0.044531	-17.7591	21.0102	-2.14163
 514	1	1	0.341309	-18.6897	21.7602	-1.12847
 515	1	1	0.132892	-20.0644	22.271	-1.67821
 516	1	6	-0.74435	-17.9849	22.8658	-0.548262
 517	1	7	-0.00272	-18.9105	21.0412	-0.328563
 518	1	1	-0.008403	-20.3872	21.7344	-3.09455
 519	1	4	-0.239698	-19.9226	20.3847	-3.1434
 520	1	7	0.089672	-22.4377	20.9643	-2.95564
 521	1	7	0.088396	-22.3167	22.7246	-3.19057
 522	1	7	0.05623	-19.8439	22.3452	-3.82849
 523	1	7	0.125955	-17.0857	21.7525	-2.58872
 524	1	8	0.456798	-17.0915	22.5088	-0.273538
 525	1	9	0.198085	-17.0635	16.1337	-6.66491
 526	1	7	0.095469	-14.8569	16.4493	-4.56519
 527	1	1	-0.308877	-16.1656	16.6351	-6.27892
 528	1	8	0.426958	-15.8029	16.0848	-2.3209
 529	1	6	-0.128067	-15.0245	16.2395	-7.05092
 530	1	1	0.005701	-15.9102	16.2458	-4.8003
 531	1	7	0.239394	-17.3782	19.7322	-5.88525
 532	1	5	-0.48496	-15.2385	14.4903	-2.65799
 533	1	1	-0.003409	-17.0897	18.4563	-4.148
 534	1	2	0.352525	-15.7916	14.0685	-3.66067
 535	1	6	-0.665659	-16.1426	17.0024	-2.49693
 536	1	1	-0.510331	-17.405	18.6575	-5.6584
 537	1	1	0.240953	-16.8077	16.9852	-3.76498
 538	1	4	0.015262	-16.3385	18.0532	-6.3998
 539	1	4	0.176506	-16.1667	14.8237	-4.73814
 540	1	3	0.090205	-15.8428	12.0273	-2.96169
 541	1	1	-0.197476	-16.1605	12.6027	-3.83957
 542	1	1	-0.039041	-18.7998	18.1386	-6.11272
 543	1	7	0.144117	-18.8508	17.0452	-6.20229
 544	1	3	0.104606	-15.6626	12.1995	-4.729
 545	1	7	0.111943	-17.7755	16.4684	-3.69543
 546	1	7	0.160853	-19.5644	18.4306	-5.37415
 547	1	3	0.069306	-17.245	12.4993	-3.96496
 548	1	4	-0.432857	-19.1007	18.7986	-7.35686
 549	1	3	0.042395	-20.1641	19.4935	-9.64922
 550	1	2	0.753764	-18.7866	18.2399	-8.56418
 551	1	1	-0.122098	-19.1105	19.1956	-9.70172
 552	1	3	0.030493	-18.9186	18.7161	-10.6691
 553	1	5	-0.562583	-18.375	17.1018	-8.74473
 554	1	3	0.048272	-18.4854	20.092	-9.61455
 555	1	4	-0.191545	-18.2259	18.88	-3.36875
 556	1	9	0.130627	-18.2474	20.7623	-4.27076
 557	1	3	0.015236	-20.0383	23.3664	-1.76133
 558	1	7	0.210365	-16.1995	19.0337	-3.86346
 559	1	1	-0.218842	-28.2132	24.1436	-1.8253
 560	1	2	0.68591	-28.8427	23.8892	-0.466798
 561	1	3	0.086668	-27.215	23.6914	-1.85623
 562	1	3	0.071846	-28.1184	25.2224	-1.99028
 563	1	3	0.062371	-28.8341	23.7059	-2.61533
 564	1	4	-0.291145	-28.0026	24.2527	0.543272
 565	1	1	-0.015993	-28.4067	24.0467	1.91175
 566	1	5	-0.555985	-29.9567	23.4186	-0.314024
 567	1	2	0.652223	-25.5245	21.9993	6.40404
 568	1	3	0.062504	-26.2694	20.3094	7.51428
 569	1	5	-0.583019	-25.4354	22.7491	7.35919
 570	1	1	-0.168764	-25.8424	20.5193	6.52709
 571	1	3	0.062846	-26.5584	20.2206	5.75279
 572	1	4	-0.264747	-25.4107	22.3803	5.10005
 573	1	3	0.073216	-24.9213	19.9399	6.40235
 574	1	1	-0.015836	-24.8987	23.819	3.21277
 575	1	1	0.044531	-25.1039	23.7554	4.74881
 576	1	1	0.341309	-26.2454	24.7268	5.15064
 577	1	1	0.132892	-27.5201	24.3608	4.32969
 578	1	6	-0.74435	-25.758	26.0561	4.88459
 579	1	7	-0.00272	-26.4694	24.6389	6.21896
 580	1	1	-0.008403	-27.2205	24.4544	2.80885
 581	1	4	-0.239698	-26.1447	23.526	2.53857
 582	1	7	0.089672	-28.6621	22.9925	2.08408
 583	1	7	0.088396	-29.2872	24.6622	2.14064
 584	1	7	0.05623	-26.9109	25.4756	2.55016
 585	1	7	0.125955	-24.183	24.0723	5.25394
 586	1	8	0.456798	-26.436	26.7031	5.16964
 587	1	9	0.198085	-20.1428	23.0354	0.696434
 588	1	7	0.095469	-21.9824	24.4225	-0.457614
 589	1	1	-0.308877	-21.1479	22.6391	0.487366
 590	1	8	0.426958	-23.1922	22.0621	-0.894331
 591	1	6	-0.128067	-21.1113	21.9175	-0.755749
 592	1	1	0.005701	-22.1627	23.8199	0.442239
 593	1	7	0.239394	-22.8978	20.5795	0.583007
 594	1	5	-0.48496	-23.2018	26.4027	0.900573
 595	1	1	-0.003409	-23.8858	22.2819	1.53816
 596	1	2	0.352525	-22.4811	25.8732	1.72818
 597	1	6	-0.665659	-23.9052	22.7311	-0.825274
 598	1	1	-0.510331	-22.8042	21.1616	1.51001
 599	1	1	0.240953	-23.6409	23.3399	0.43491
 600	1	4	0.015262	-21.4916	21.7483	1.5683
 601	1	4	0.176506	-21.908	24.6372	1.60503
 602	1	3	0.090205	-22.5432	25.946	3.88563
 603	1	1	-0.197476	-22.1322	26.5328	3.05536
 604	1	1	-0.039041	-22.9509	20.1714	2.68066
 605	1	7	0.144117	-22.1303	19.438	2.67791
 606	1	3	0.104606	-22.5622	27.5414	3.08891
 607	1	7	0.111943	-24.3271	24.1869	0.572196
 608	1	7	0.160853	-22.9319	20.6974	3.64808
 609	1	3	0.069306	-21.044	26.6019	3.17075
 610	1	4	-0.432857	-24.215	19.5174	2.47353
 611	1	3	0.042395	-26.7452	18.9101	2.88799
 612	1	2	0.753764	-24.6737	18.6369	3.40817
 613	1	1	-0.122098	-26.0362	18.0842	3.01947
 614	1	3	0.030493	-26.4094	17.4077	3.79756
 615	1	5	-0.562583	-24.0978	18.3613	4.44718
 616	1	3	0.048272	-25.9541	17.5375	2.07307
 617	1	4	-0.191545	-23.8521	22.8929	2.84995
 618	1	9	0.130627	-24.5956	24.836	2.9341
 619	1	3	0.015236	-27.7342	23.3036	4.5327
 620	1	7	0.210365	-24.8743	21.8286	1.37076
 621	1	1	-0.218842	-31.2867	36.0698	7.75719
 622	1	2	0.68591	-31.2627	35.2289	6.49428
 623	1	3	0.086668	-32.2546	35.9524	8.25634
 624	1	3	0.071846	-31.1336	37.1251	7.50347
 625	1	3	0.062371	-30.492	35.7404	8.43587
 626	1	4	-0.291145	-31.4951	33.9108	6.76096
 627	1	1	-0.015993	-31.4879	32.9809	5.65928
 628	1	5	-0.555985	-31.0942	35.6925	5.37976
 629	1	2	0.652223	-34.0074	27.3111	8.31235
 630	1	3	0.062504	-35.1223	25.5368	7.826
 631	1	5	-0.583019	-34.8297	27.8406	9.03634
 632	1	1	-0.168764	-34.0742	25.848	7.90645
 633	1	3	0.062846	-33.5856	25.6985	6.93611