pySIMM System Object

2420 atoms
2497 bonds
4602 angles
6393 dihedrals
156 impropers

9 atom types
10 bond types
23 angle types
20 dihedral types
1 improper types

-198.071554 198.071554 xlo xhi
-198.071554 198.071554 ylo yhi
-198.071554 198.071554 zlo zhi

Masses

   1	12.01	# c3
   2	12.01	# c
   3	1.008	# hc
   4	16.0	# os
   5	16.0	# o
   6	16.0	# oh
   7	1.008	# h1
   8	1.008	# ho
   9	1.008	# h2

Pair Coeffs

   1	0.1094	3.3996695084235347	# c3
   2	0.086	3.3996695084235347	# c
   3	0.0157	2.649532787749369	# hc
   4	0.17	3.0000123434657784	# os
   5	0.21	2.959921901149463	# o
   6	0.2104	3.0664733878390478	# oh
   7	0.0157	2.471353044121301	# h1
   8	0.0047	0.5379246460131368	# ho
   9	0.0157	2.2931733004932333	# h2

Bond Coeffs

   1	331.7	1.0961	# c3,h2
   2	637.7	1.2183	# c,o
   3	300.9	1.5375	# c3,c3
   4	330.6	1.0969	# c3,hc
   5	316.7	1.4233	# c3,oh
   6	330.6	1.0969	# c3,h1
   7	371.4	0.973	# ho,oh
   8	308.6	1.4316	# c3,os
   9	313.0	1.5241	# c,c3
  10	390.8	1.3584	# c,os

Angle Coeffs

   1	46.93	108.77	# c,c3,hc
   2	67.4	123.2	# c3,c,o
   3	68.0	107.97	# c3,c3,os
   4	46.39	109.56	# c3,c3,h1
   5	46.25	110.22	# c3,c3,h2
   6	62.86	111.51	# c3,c3,c3
   7	68.89	110.72	# c3,c,os
   8	72.58	109.38	# oh,c3,os
   9	75.32	123.25	# o,c,os
  10	67.47	110.19	# c3,c3,oh
  11	46.34	109.8	# c3,c3,hc
  12	47.38	107.26	# c3,oh,ho
  13	39.24	108.46	# h1,c3,h1
  14	50.85	109.58	# h2,c3,os
  15	72.74	108.29	# os,c3,os
  16	50.8	109.78	# h1,c3,os
  17	63.28	115.98	# c,os,c3
  18	62.7	112.48	# c3,os,c3
  19	50.93	110.26	# h1,c3,oh
  20	39.4	107.58	# hc,c3,hc
  21	51.13	109.43	# h2,c3,oh
  22	51.11	109.5	# hc,c3,oh
  23	62.7	112.48	# c3,oh,c3

Dihedral Coeffs

   1	3	0.18	3	0	0.25	2	180	0.2	1	180	# c3,c3,c3,c3
   2	1	0.3833333333333333	3	0	# X,c3,os,X
   3	2	0.144	3	0	1.175	2	0	# os,c3,c3,oh
   4	3	0.1	3	0	0.85	2	180	1.35	1	180	# c3,os,c3,os
   5	2	0.144	3	0	1.175	2	0	# os,c3,c3,os
   6	3	2.7	2	180	0.0	1	0	1.15	3	0	# c3,c,os,c3
   7	2	0.0	3	0	0.25	1	0	# hc,c3,c3,oh
   8	1	0.16	3	0	# hc,c3,c3,c3
   9	1	0.15555555555555556	3	0	# X,c3,c3,X
  10	2	0.16	3	0	0.25	1	0	# ho,oh,c3,c3
  11	2	0.383	3	0	0.8	1	180	# c3,c3,os,c
  12	1	0.0	2	180	# X,c,c3,X
  13	2	2.7	2	180	1.4	1	180	# o,c,os,c3
  14	2	0.0	3	0	0.25	1	0	# hc,c3,c3,os
  15	2	0.0	3	0	0.25	1	0	# h1,c3,c3,oh
  16	1	0.16666666666666666	3	0	# X,c3,oh,X
  17	3	0.8	1	0	0.0	2	0	0.08	3	180	# hc,c3,c,o
  18	2	0.0	3	0	0.25	1	0	# h1,c3,c3,os
  19	2	0.383	3	0	0.1	2	180	# c3,c3,os,c3
  20	2	0.144	3	0	1.175	2	0	# oh,c3,c3,oh

Improper Coeffs

   1	10.5	-1	2	# c,X,X,o

Atoms

   1	1	1	-0.218842	21.6025	9.57422	-2.66153
   2	1	2	0.68591	20.9088	10.2226	-1.47801
   3	1	3	0.086668	22.547	10.0904	-2.8631
   4	1	3	0.071846	20.9589	9.63084	-3.54643
   5	1	3	0.062371	21.8111	8.52362	-2.4289
   6	1	4	-0.291145	21.7557	10.3564	-0.416437
   7	1	1	-0.015993	21.2431	10.9279	0.802466
   8	1	5	-0.555985	19.7553	10.618	-1.50859
   9	1	2	0.652223	24.5697	9.44979	6.45752
  10	1	3	0.062504	25.2971	7.56775	7.20723
  11	1	5	-0.583019	24.9454	10.6083	6.53586
  12	1	1	-0.168764	24.7257	8.42913	7.5718
  13	1	3	0.062846	25.2471	8.8773	8.4251
  14	1	4	-0.264747	23.9414	8.90484	5.37916
  15	1	3	0.073216	23.7361	8.08278	7.89185
  16	1	1	-0.015836	22.9679	8.64542	3.21659
  17	1	1	0.044531	23.6224	9.66158	4.18429
  18	1	1	0.341309	22.6809	10.857	4.49559
  19	1	1	0.132892	21.7151	11.1968	3.31719
  20	1	6	-0.74435	23.445	12.0136	4.85143
  21	1	7	-0.00272	22.083	10.576	5.36989
  22	1	1	-0.008403	22.2624	10.7033	1.94695
  23	1	4	-0.239698	22.627	9.29399	1.97178
  24	1	7	0.089672	20.2845	10.4576	1.05624
  25	1	7	0.088396	21.0597	12.0023	0.668632
  26	1	7	0.05623	23.1637	11.2896	1.72357
  27	1	7	0.125955	24.543	10.053	3.72536
  28	1	8	0.456798	24.0632	11.7072	5.57417
  29	1	9	0.198085	19.8809	3.91338	3.4233
  30	1	7	0.095469	21.1895	4.02096	5.36174
  31	1	1	-0.308877	19.5203	4.62044	4.17409
  32	1	8	0.426958	22.5703	5.61948	6.52341
  33	1	6	-0.128067	18.4134	3.92503	4.77216
  34	1	1	0.005701	20.5456	4.90422	5.29037
  35	1	7	0.239394	20.4713	5.83318	1.9442
  36	1	5	-0.48496	21.5929	4.98929	7.91433
  37	1	1	-0.003409	21.4721	6.71286	3.65259
  38	1	2	0.352525	20.3921	5.10224	7.73281
  39	1	6	-0.665659	22.7047	5.92731	5.59125
  40	1	1	-0.510331	20.1832	6.47992	2.78719
  41	1	1	0.240953	21.3904	6.18201	5.09347
  42	1	4	0.015262	19.1303	5.85061	3.54811
  43	1	4	0.176506	19.7841	5.10976	6.51219
  44	1	3	0.090205	18.8766	6.24117	8.75518
  45	1	1	-0.197476	19.361	5.25994	8.83714
  46	1	1	-0.039041	19.6345	7.78776	2.16597
  47	1	7	0.144117	19.2761	8.46062	2.94691
  48	1	3	0.104606	19.8671	5.18091	9.7986
  49	1	7	0.111943	20.897	6.98652	5.67685
  50	1	7	0.160853	20.439	8.32555	1.63401
  51	1	3	0.069306	18.5887	4.48164	8.76019
  52	1	4	-0.432857	18.5837	7.47512	1.24177
  53	1	3	0.042395	17.0931	5.93991	-0.352407
  54	1	2	0.753764	18.8872	7.08284	-0.0320012
  55	1	1	-0.122098	17.6211	6.78069	-0.816602
  56	1	3	0.030493	17.8678	6.52635	-1.85348
  57	1	5	-0.562583	20.0122	6.99875	-0.498702
  58	1	3	0.048272	16.9653	7.65867	-0.806012
  59	1	4	-0.191545	21.7531	8.13108	3.80833
  60	1	9	0.130627	23.6817	7.83493	3.02331
  61	1	3	0.015236	21.6296	12.2903	3.2442
  62	1	7	0.210365	22.3348	6.21595	3.18123
  63	1	1	-0.218842	11.4762	15.0714	6.0588
  64	1	2	0.68591	12.5028	15.986	6.70226
  65	1	3	0.086668	11.9323	14.0936	5.86479
  66	1	3	0.071846	11.1288	15.5026	5.11363
  67	1	3	0.062371	10.6247	14.9378	6.73529
  68	1	4	-0.291145	12.9709	15.4554	7.87137
  69	1	1	-0.015993	14.0013	16.1436	8.60794
  70	1	5	-0.555985	12.8502	17.055	6.22193
  71	1	2	0.652223	18.7053	13.8967	10.2116
  72	1	3	0.062504	18.8646	14.8012	12.1597
  73	1	5	-0.583019	19.3437	13.0456	9.61494
  74	1	1	-0.168764	18.4864	13.8741	11.7147
  75	1	3	0.062846	17.4145	13.7886	11.9265
  76	1	4	-0.264747	18.1757	15.0254	9.65822
  77	1	3	0.073216	19.0127	13.0186	12.1533
  78	1	1	-0.015836	17.0722	14.3496	7.55862
  79	1	1	0.044531	18.1747	15.2119	8.22185
  80	1	1	0.341309	17.8585	16.6921	7.91294
  81	1	1	0.132892	16.3881	17.0611	8.30704
  82	1	6	-0.74435	18.1135	16.8988	6.5173
  83	1	7	-0.00272	18.5467	17.3213	8.49139
  84	1	1	-0.008403	15.3582	15.9658	7.89589
  85	1	4	-0.239698	15.8394	14.6474	8.21859
  86	1	7	0.089672	14.066	15.7474	9.62858
  87	1	7	0.088396	13.7616	17.2085	8.67069
  88	1	7	0.05623	15.2102	16.0345	6.80971
  89	1	7	0.125955	19.1587	14.9786	7.79864
  90	1	8	0.456798	18.0391	17.8706	6.39678
  91	1	9	0.198085	20.3319	12.0518	5.11497
  92	1	7	0.095469	20.087	9.65378	6.00769
  93	1	1	-0.308877	19.6832	11.3023	4.64147
  94	1	8	0.426958	19.3514	11.6159	8.6405
  95	1	6	-0.128067	20.3885	10.6907	3.56135
  96	1	1	0.005701	19.2276	10.26	5.6933
  97	1	7	0.239394	18.0086	13.7789	4.92623
  98	1	5	-0.48496	18.4596	7.68573	6.58684
  99	1	1	-0.003409	18.2951	12.4583	6.63484
 100	1	2	0.352525	17.9302	8.18905	5.60898
 101	1	6	-0.665659	19.5374	10.8699	8.005
 102	1	1	-0.510331	17.7887	12.7275	5.16412
 103	1	1	0.240953	18.6018	10.963	6.92911
 104	1	4	0.015262	18.4931	11.9462	4.17621
 105	1	4	0.176506	18.2403	9.40788	5.07522
 106	1	3	0.090205	16.7087	6.46293	5.16973
 107	1	1	-0.197476	16.8332	7.49274	4.81372
 108	1	1	-0.039041	16.2688	12.5081	4.92762
 109	1	7	0.144117	15.7108	13.3702	5.32529
 110	1	3	0.104606	17.0958	7.46802	3.74928
 111	1	7	0.111943	17.6645	10.4612	7.20516
 112	1	7	0.160853	16.04	12.4497	3.85211
 113	1	3	0.069306	15.8879	8.0322	4.92112
 114	1	4	-0.432857	15.838	11.309	5.60289
 115	1	3	0.042395	14.1028	9.04085	5.99846
 116	1	2	0.753764	14.5007	11.1527	5.84738
 117	1	1	-0.122098	14.2206	9.90074	6.66555
 118	1	3	0.030493	13.2997	10.0317	7.24616
 119	1	5	-0.562583	13.6302	11.9252	5.47925
 120	1	3	0.048272	15.0504	9.70792	7.35595
 121	1	4	-0.191545	17.3329	12.9355	7.60311
 122	1	9	0.130627	16.97	14.657	6.51196
 123	1	3	0.015236	16.3444	17.1886	9.39697
 124	1	7	0.210365	19.2453	12.9896	6.78034
 125	1	1	-0.218842	22.334	20.0781	10.1193
 126	1	2	0.68591	22.193	21.5213	10.5664
 127	1	3	0.086668	21.5749	19.8583	9.36217
 128	1	3	0.071846	22.2023	19.4043	10.9731
 129	1	3	0.062371	23.3272	19.9212	9.68253
 130	1	4	-0.291145	22.4704	22.3786	9.54616
 131	1	1	-0.015993	22.3892	23.8124	9.71409
 132	1	5	-0.555985	21.9584	21.8419	11.7204
 133	1	2	0.652223	21.1292	24.946	4.8716
 134	1	3	0.062504	22.1269	24.5034	3.01189
 135	1	5	-0.583019	21.143	26.1585	4.73058
 136	1	1	-0.168764	21.762	23.9684	3.89631
 137	1	3	0.062846	22.5989	23.4528	4.38127
 138	1	4	-0.264747	20.5675	24.2988	5.93213
 139	1	3	0.073216	21.0219	23.2212	3.58864
 140	1	1	-0.015836	19.1871	24.0801	7.93413
 141	1	1	0.044531	19.9117	25.0589	6.97961
 142	1	1	0.341309	20.9707	25.92	7.71572
 143	1	1	0.132892	20.817	25.8217	9.25709
 144	1	6	-0.74435	20.8997	27.2627	7.2302
 145	1	7	-0.00272	21.9632	25.5281	7.46184
 146	1	1	-0.008403	20.916	24.3229	9.7041
 147	1	4	-0.239698	20.161	23.4611	8.80358
 148	1	7	0.089672	22.9448	24.2794	8.89277
 149	1	7	0.088396	22.8803	24.121	10.6454
 150	1	7	0.05623	20.5045	24.2359	10.717
 151	1	7	0.125955	19.1515	25.7203	6.54284
 152	1	8	0.456798	21.0357	27.1796	6.2463
 153	1	9	0.198085	16.7039	19.65	9.05542
 154	1	7	0.095469	14.9103	20.9334	8.22454
 155	1	1	-0.308877	16.5531	19.5379	7.96967
 156	1	8	0.426958	14.7692	23.0021	6.92131
 157	1	6	-0.128067	15.9404	18.2753	7.6784
 158	1	1	0.005701	15.6396	20.6853	7.44237
 159	1	7	0.239394	18.991	20.5175	8.76778
 160	1	5	-0.48496	13.5454	22.0214	6.0517
 161	1	1	-0.003409	17.79	22.0666	7.79945
 162	1	2	0.352525	13.9425	20.9324	5.6742
 163	1	6	-0.665659	15.651	23.124	7.35952
 164	1	1	-0.510331	18.6273	20.7366	7.75499
 165	1	1	0.240953	16.4339	21.9666	7.06447
 166	1	4	0.015262	17.808	19.6531	7.29131
 167	1	4	0.176506	14.9516	20.2121	6.25497
 168	1	3	0.090205	12.6405	20.8656	3.95388
 169	1	1	-0.197476	13.3804	20.2246	4.44819
 170	1	1	-0.039041	19.8422	20.7966	6.79913
 171	1	7	0.144117	19.5083	20.9516	5.76196
 172	1	3	0.104606	12.8952	19.2884	4.74968
 173	1	7	0.111943	16.6638	21.9302	5.98992
 174	1	7	0.160853	20.5036	21.6388	7.05735
 175	1	3	0.069306	14.1854	19.9932	3.74053
 176	1	4	-0.432857	20.5636	19.5584	6.92515
 177	1	3	0.042395	22.6816	17.9752	7.42469
 178	1	2	0.753764	21.6724	19.3819	6.14341
 179	1	1	-0.122098	22.3193	18.0278	6.39179
 180	1	3	0.030493	23.1621	17.8796	5.70573
 181	1	5	-0.562583	22.1105	20.2145	5.36688
 182	1	3	0.048272	21.5825	17.2318	6.23382
 183	1	4	-0.191545	18.5024	23.1146	7.1202
 184	1	9	0.130627	18.444	24.6199	8.53758
 185	1	3	0.015236	19.8269	26.2089	9.53187
 186	1	7	0.210365	17.5687	22.3573	8.83487
 187	1	1	-0.218842	25.1809	31.2746	7.1298
 188	1	2	0.68591	25.354	32.2606	8.26991
 189	1	3	0.086668	25.1294	31.8152	6.17888
 190	1	3	0.071846	24.2491	30.7145	7.2694
 191	1	3	0.062371	26.0221	30.5727	7.1069
 192	1	4	-0.291145	24.3475	33.1844	8.28377
 193	1	1	-0.015993	24.2696	34.1881	9.32327
 194	1	5	-0.555985	26.3132	32.2571	9.02581
 195	1	2	0.652223	19.4344	34.043	13.0583
 196	1	3	0.062504	17.7022	32.8571	12.5888
 197	1	5	-0.583019	19.7629	34.7902	13.9647
 198	1	1	-0.168764	18.0062	33.91	12.5634
 199	1	3	0.062846	17.3319	34.4964	13.1978
 200	1	4	-0.264747	20.2945	33.2789	12.3264
 201	1	3	0.073216	17.9388	34.2718	11.5318
 202	1	1	-0.015836	22.3321	32.1059	11.738
 203	1	1	0.044531	21.7112	33.2	12.6446
 204	1	1	0.341309	22.3894	34.587	12.4101
 205	1	1	0.132892	23.8536	34.5179	11.8713
 206	1	6	-0.74435	22.2952	35.4232	13.5647
 207	1	7	-0.00272	21.8125	35.0736	11.6128
 208	1	1	-0.008403	24.0031	33.5056	10.6862
 209	1	4	-0.239698	22.8019	32.7215	10.5298
 210	1	7	0.089672	23.4519	34.8854	9.09969
 211	1	7	0.088396	25.2063	34.7599	9.36856
 212	1	7	0.05623	24.8416	32.8348	10.8931
 213	1	7	0.125955	21.8555	32.9052	13.69
 214	1	8	0.456798	21.3436	35.352	13.86
 215	1	9	0.198085	21.3751	26.5847	11.8668
 216	1	7	0.095469	23.6744	27.6239	11.5401
 217	1	1	-0.308877	21.5536	27.3253	11.0749
 218	1	8	0.426958	22.6605	28.2937	8.94963
 219	1	6	-0.128067	21.8463	26.6198	9.86034
 220	1	1	0.005701	22.7573	28.2237	11.4699
 221	1	7	0.239394	20.5128	28.858	9.0259
 222	1	5	-0.48496	24.4402	29.7404	13.2121
 223	1	1	-0.003409	21.6557	30.2034	10.2969
 224	1	2	0.352525	23.2879	29.4686	13.5188
 225	1	6	-0.665659	23.3777	28.9193	9.20577
 226	1	1	-0.510331	20.4321	29.268	10.0421
 227	1	1	0.240953	22.9697	29.4051	10.482
 228	1	4	0.015262	20.385	28.1756	10.982
 229	1	4	0.176506	22.415	28.7468	12.7649
 230	1	3	0.090205	21.6027	30.4103	14.486
 231	1	1	-0.197476	22.5827	29.9981	14.7553
 232	1	1	-0.039041	19.0959	30.0286	10.1215
 233	1	7	0.144117	18.2454	29.3592	9.92641
 234	1	3	0.104606	23.1716	30.7874	15.2175
 235	1	7	0.111943	23.7589	30.0683	10.856
 236	1	7	0.160853	18.9631	30.4695	11.1224
 237	1	3	0.069306	22.4351	29.1952	15.4814
 238	1	4	-0.432857	19.1737	31.0548	9.11722
 239	1	3	0.042395	17.8065	33.8815	8.05283
 240	1	2	0.753764	18.2346	32.0417	9.09958
 241	1	1	-0.122098	18.511	33.044	7.9896
 242	1	3	0.030493	18.407	32.5553	7.01364
 243	1	5	-0.562583	17.3172	32.1442	9.89655
 244	1	3	0.048272	19.5346	33.4248	8.08525
 245	1	4	-0.191545	21.3905	31.0438	11.4517
 246	1	9	0.130627	23.1836	31.6643	12.2544
 247	1	3	0.015236	24.0565	35.5179	11.4671
 248	1	7	0.210365	21.7754	30.8485	9.41419
 249	1	1	-0.218842	23.7824	29.0788	22.1502
 250	1	2	0.68591	23.9261	28.0885	21.0086
 251	1	3	0.086668	24.4447	28.79	22.9739
 252	1	3	0.071846	22.7451	29.0861	22.5026
 253	1	3	0.062371	24.0486	30.084	21.8043
 254	1	4	-0.291145	23.1386	28.4391	19.9499
 255	1	1	-0.015993	23.1416	27.655	18.7377
 256	1	5	-0.555985	24.6504	27.1105	21.0597
 257	1	2	0.652223	28.8399	28.1815	15.2872
 258	1	3	0.062504	30.2488	29.766	14.9355
 259	1	5	-0.583019	29.0127	27.0234	15.6256
 260	1	1	-0.168764	29.7843	28.9459	14.3764
 261	1	3	0.062846	30.5667	28.2769	14.0003
 262	1	4	-0.264747	27.7577	28.9256	15.6477
 263	1	3	0.073216	29.2271	29.3642	13.531
 264	1	1	-0.015836	25.9095	29.6079	17.0647
 265	1	1	0.044531	26.7308	28.3964	16.525
 266	1	1	0.341309	25.8034	27.3697	15.8106
 267	1	1	0.132892	24.6323	26.9083	16.7392
 268	1	6	-0.74435	26.5188	26.2059	15.3713
 269	1	7	-0.00272	25.3842	27.8789	14.9349
 270	1	1	-0.008403	24.4994	27.8104	18.0019
 271	1	4	-0.239698	24.6305	29.1844	17.5898
 272	1	7	0.089672	22.3279	27.9995	18.0861
 273	1	7	0.088396	22.9619	26.597	18.9716
 274	1	7	0.05623	25.3103	27.5557	18.6953
 275	1	7	0.125955	27.2038	27.8978	17.3812
 276	1	8	0.456798	27.4941	26.4046	15.47
 277	1	9	0.198085	24.8679	32.2389	12.8125
 278	1	7	0.095469	27.0793	33.8997	14.0701
 279	1	1	-0.308877	25.1659	33.0535	13.4741
 280	1	8	0.426958	28.9631	32.4163	14.3411
 281	1	6	-0.128067	24.8546	34.3377	12.9064
 282	1	1	0.005701	26.7064	32.9506	13.6622
 283	1	7	0.239394	25.6633	33.8843	16.0231
 284	1	5	-0.48496	29.4182	33.2463	12.9387
 285	1	1	-0.003409	26.2469	31.7714	15.9028
 286	1	2	0.352525	28.5969	32.897	12.1058
 287	1	6	-0.665659	28.4719	31.8772	15.0188
 288	1	1	-0.510331	25.1765	32.9017	15.9407
 289	1	1	0.240953	27.1014	31.7875	14.6123
 290	1	4	0.015262	24.4338	32.869	14.7077
 291	1	4	0.176506	27.26	32.7166	12.3441
 292	1	3	0.090205	30.0682	32.6394	10.5479
 293	1	1	-0.197476	28.9796	32.585	10.6673
 294	1	1	-0.039041	24.2206	32.7422	17.1473
 295	1	7	0.144117	23.627	31.8182	17.084
 296	1	3	0.104606	28.5115	33.3111	9.99252
 297	1	7	0.111943	26.9199	30.8438	14.0767
 298	1	7	0.160853	24.8097	32.6784	18.0728
 299	1	3	0.069306	28.6385	31.5792	10.3932
 300	1	4	-0.432857	23.3841	33.9091	17.2114
 301	1	3	0.042395	20.402	35.1694	16.5313
 302	1	2	0.753764	22.1598	33.9132	16.5907
 303	1	1	-0.122098	21.4544	35.244	16.8286
 304	1	3	0.030493	21.9418	36.0341	16.247
 305	1	5	-0.562583	21.6166	32.9364	16.1127
 306	1	3	0.048272	21.5068	35.5074	17.8903
 307	1	4	-0.191545	25.5733	30.4943	15.9786
 308	1	9	0.130627	26.4708	30.1349	17.8454
 309	1	3	0.015236	24.8426	25.8934	17.1021
 310	1	7	0.210365	26.9313	31.8949	16.7534
 311	1	1	-0.218842	15.2243	22.2038	17.9319
 312	1	2	0.68591	16.3516	21.2422	17.5996
 313	1	3	0.086668	14.6837	21.8452	18.8143
 314	1	3	0.071846	14.5296	22.2743	17.0882
 315	1	3	0.062371	15.638	23.1983	18.1326
 316	1	4	-0.291145	16.8952	21.5042	16.3759
 317	1	1	-0.015993	18.0741	20.7767	15.9678
 318	1	5	-0.555985	16.731	20.3584	18.349
 319	1	2	0.652223	16.6933	24.6934	11.2322
 320	1	3	0.062504	15.5522	26.4103	10.6072
 321	1	5	-0.583019	16.3087	23.9613	10.3291
 322	1	1	-0.168764	16.2478	26.1311	11.4069
 323	1	3	0.062846	15.7501	26.2469	12.3772
 324	1	4	-0.264747	17.5737	24.3143	12.1941
 325	1	3	0.073216	17.1213	26.7934	11.3761
 326	1	1	-0.015836	19.2782	22.9555	13.2557
 327	1	1	0.044531	18.1599	22.9847	12.1904
 328	1	1	0.341309	17.0371	21.9203	12.4355
 329	1	1	0.132892	17.4079	20.7262	13.3781
 330	1	6	-0.74435	16.6064	21.4396	11.1548
 331	1	7	-0.00272	16.1978	22.4429	12.9129
 332	1	1	-0.008403	18.4316	21.1194	14.5045
 333	1	4	-0.239698	18.7011	22.529	14.4916
 334	1	7	0.089672	17.9403	19.6962	16.072
 335	1	7	0.088396	18.9151	21.0597	16.615
 336	1	7	0.05623	19.3705	20.593	14.2861
 337	1	7	0.125955	18.6261	22.7864	11.2163
 338	1	8	0.456798	16.2385	22.2513	10.7029
 339	1	9	0.198085	23.9871	26.5065	14.1006
 340	1	7	0.095469	23.1252	24.3558	16.0219
 341	1	1	-0.308877	23.2224	26.1661	14.812
 342	1	8	0.426958	22.1411	22.1064	13.4256
 343	1	6	-0.128067	23.3712	26.8717	16.0511
 344	1	1	0.005701	23.2909	24.6123	14.9688
 345	1	7	0.239394	20.9599	26.0126	16.0064
 346	1	5	-0.48496	24.5589	24.826	12.3765
 347	1	1	-0.003409	20.7855	24.4296	14.5291
 348	1	2	0.352525	25.1039	24.2626	13.3129
 349	1	6	-0.665659	22.2718	22.4876	14.3356
 350	1	1	-0.510331	20.8229	25.9404	14.9172
 351	1	1	0.240953	22.1923	23.8983	14.1399
 352	1	4	0.015262	21.9472	26.5354	14.2624
 353	1	4	0.176506	24.5948	24.1157	14.5797
 354	1	3	0.090205	27.1554	24.0076	13.9396
 355	1	1	-0.197476	26.4722	23.6065	13.1818
 356	1	1	-0.039041	19.5565	26.7446	14.542
 357	1	7	0.144117	19.4704	26.8233	13.4489
 358	1	3	0.104606	26.8864	23.8105	12.1876
 359	1	7	0.111943	22.3422	24.1464	13.0804
 360	1	7	0.160853	18.6534	26.2352	14.9146
 361	1	3	0.069306	26.3848	22.523	13.3225
 362	1	4	-0.432857	19.6732	28.0617	15.1236
 363	1	3	0.042395	20.7274	29.9402	17.025
 364	1	2	0.753764	19.5056	28.2497	16.4706
 365	1	1	-0.122098	19.6684	29.7131	16.8616
 366	1	3	0.030493	19.114	29.9197	17.7847
 367	1	5	-0.562583	19.2024	27.3747	17.2638
 368	1	3	0.048272	19.2872	30.3631	16.0653
 369	1	4	-0.191545	19.8943	24.2553	13.4015
 370	1	9	0.130627	20.0439	22.2318	12.9631
 371	1	3	0.015236	17.902	19.9711	12.7517
 372	1	7	0.210365	20.43	23.8607	15.4
 373	1	1	-0.218842	7.58456	17.8725	14.3977
 374	1	2	0.68591	8.7028	18.2004	15.3737
 375	1	3	0.086668	7.972	17.9134	13.375
 376	1	3	0.071846	6.77167	18.597	14.505
 377	1	3	0.062371	7.20112	16.8631	14.5838
 378	1	4	-0.291145	8.5856	17.4735	16.5301
 379	1	1	-0.015993	9.55835	17.6418	17.5871
 380	1	5	-0.555985	9.47537	19.131	15.209
 381	1	2	0.652223	10.7684	15.2925	13.1248
 382	1	3	0.062504	10.1695	15.5063	11.0666
 383	1	5	-0.583019	10.0648	16.2026	13.5179
 384	1	1	-0.168764	10.8328	14.8719	11.6667
 385	1	3	0.062846	11.8578	14.9736	11.2939
 386	1	4	-0.264747	11.5992	14.5307	13.8974
 387	1	3	0.073216	10.5196	13.827	11.5696
 388	1	1	-0.015836	12.3722	16.0996	15.69
 389	1	1	0.044531	11.747	14.7177	15.3335
 390	1	1	0.341309	10.4008	14.4474	16.0775
 391	1	1	0.132892	10.3633	15.1295	17.4733
 392	1	6	-0.74435	10.2519	13.0318	16.2319
 393	1	7	-0.00272	9.55925	14.8369	15.4944
 394	1	1	-0.008403	10.7341	16.6486	17.4077
 395	1	4	-0.239698	11.3352	16.9786	16.1419
 396	1	7	0.089672	9.08183	17.467	18.5553
 397	1	7	0.088396	9.94407	18.669	17.6036
 398	1	7	0.05623	11.462	16.8474	18.2054
 399	1	7	0.125955	12.4494	13.9561	15.69
 400	1	8	0.456798	9.45664	12.9202	16.7909
 401	1	9	0.198085	17.0645	18.2908	13.8165
 402	1	7	0.095469	16.1797	18.7102	16.2105
 403	1	1	-0.308877	16.0774	18.7285	14.0085
 404	1	8	0.426958	14.4311	20.3402	14.9537
 405	1	6	-0.128067	16.1845	20.1652	13.9137
 406	1	1	0.005701	15.5839	18.257	15.4133
 407	1	7	0.239394	13.6793	19.6542	13.031
 408	1	5	-0.48496	15.2864	16.5354	17.673
 409	1	1	-0.003409	13.2058	18.1263	14.5163
 410	1	2	0.352525	15.6419	16.0992	16.5935
 411	1	6	-0.665659	13.9783	20.0281	15.7666
 412	1	1	-0.510331	13.7774	18.5636	13.1311
 413	1	1	0.240953	14.0975	18.6126	15.679
 414	1	4	0.015262	15.172	18.209	13.0045
 415	1	4	0.176506	15.797	16.8287	15.4471
 416	1	3	0.090205	15.7489	14.0618	17.2909
 417	1	1	-0.197476	15.922	14.6204	16.3628
 418	1	1	-0.039041	12.9781	17.9253	11.9776
 419	1	7	0.144117	13.4168	16.9648	11.6739
 420	1	3	0.104606	16.964	14.4798	16.0528
 421	1	7	0.111943	13.7561	18.1742	16.6261
 422	1	7	0.160853	11.9466	17.7274	12.3094
 423	1	3	0.069306	15.2604	14.2291	15.5804
 424	1	4	-0.432857	12.9636	18.8663	10.887
 425	1	3	0.042395	13.0334	19.4879	8.13747
 426	1	2	0.753764	12.0669	18.6769	9.87212
 427	1	1	-0.122098	12.1957	19.7397	8.79342
 428	1	3	0.030493	12.3756	20.7222	9.24709
 429	1	5	-0.562583	11.3078	17.7226	9.79734
 430	1	3	0.048272	11.2752	19.7841	8.20032
 431	1	4	-0.191545	13.0761	16.6783	14.5573
 432	1	9	0.130627	13.0724	15.9709	16.523
 433	1	3	0.015236	11.1379	14.6354	18.0742
 434	1	7	0.210365	12.209	18.5837	14.6433
 435	1	1	-0.218842	0.548763	9.88682	23.7482
 436	1	2	0.68591	1.98634	9.40957	23.6615
 437	1	3	0.086668	0.496562	10.7676	24.3968
 438	1	3	0.071846	-0.0817358	9.09548	24.1686
 439	1	3	0.062371	0.175605	10.1545	22.7526
 440	1	4	-0.291145	2.7023	10.1321	22.7511
 441	1	1	-0.015993	4.11405	9.88677	22.5516
 442	1	5	-0.555985	2.39671	8.42649	24.2565
 443	1	2	0.652223	8.98798	9.86505	25.8897
 444	1	3	0.062504	10.4174	8.31036	26.3147
 445	1	5	-0.583019	8.98586	10.3235	27.0197
 446	1	1	-0.168764	9.81397	8.66264	25.4705
 447	1	3	0.062846	9.14611	7.85916	25.1396
 448	1	4	-0.264747	8.27433	10.3632	24.8413
 449	1	3	0.073216	10.4744	8.94047	24.6414
 450	1	1	-0.015836	6.96225	12.0436	23.6764
 451	1	1	0.044531	7.35213	11.4601	25.052
 452	1	1	0.341309	6.10896	10.9497	25.8228
 453	1	1	0.132892	5.17983	10.066	24.9417
 454	1	6	-0.74435	5.36984	12.0392	26.3843
 455	1	7	-0.00272	6.46473	10.3558	26.667
 456	1	1	-0.008403	4.93038	10.7343	23.5589
 457	1	4	-0.239698	6.18907	11.0723	22.9395
 458	1	7	0.089672	4.38322	10.2139	21.5387
 459	1	7	0.088396	4.35896	8.81935	22.6276
 460	1	7	0.05623	4.37984	11.6692	23.7314
 461	1	7	0.125955	7.83486	12.2445	25.6482
 462	1	8	0.456798	4.78806	11.591	27.0487
 463	1	9	0.198085	9.82784	15.2653	19.9809
 464	1	7	0.095469	6.90495	14.6027	19.3933
 465	1	1	-0.308877	9.08131	14.6287	19.4919
 466	1	8	0.426958	5.6996	13.5277	20.9717
 467	1	6	-0.128067	9.07312	14.9118	18.0853
 468	1	1	0.005701	7.67896	14.9058	20.1109
 469	1	7	0.239394	9.83994	11.7223	20.9973
 470	1	5	-0.48496	5.34255	16.6132	20.1936
 471	1	1	-0.003409	8.06976	12.8056	21.5866
 472	1	2	0.352525	6.46886	17.0455	20.3762
 473	1	6	-0.665659	6.02845	14.1125	21.7086
 474	1	1	-0.510331	9.51586	12.7723	21.0257
 475	1	1	0.240953	7.43306	14.2178	21.4873
 476	1	4	0.015262	9.46814	13.257	19.6736
 477	1	4	0.176506	7.63521	16.3321	20.3262
 478	1	3	0.090205	7.56377	18.8802	20.0386
 479	1	1	-0.197476	6.73772	18.5165	20.6596
 480	1	1	-0.039041	10.5499	13.5483	21.8874
 481	1	7	0.144117	10.3149	14.6199	21.9612
 482	1	3	0.104606	7.00631	18.6511	21.7128
 483	1	7	0.111943	7.89664	14.8333	22.2691
 484	1	7	0.160853	10.5384	13.1506	22.9131
 485	1	3	0.069306	5.84591	19.1118	20.4328
 486	1	4	-0.432857	11.8531	13.3104	21.3205
 487	1	3	0.042395	13.6634	12.9859	19.3681
 488	1	2	0.753764	12.5012	14.2921	20.6235
 489	1	1	-0.122098	13.8338	13.7997	20.0823
 490	1	3	0.030493	14.4537	13.4235	20.9051
 491	1	5	-0.562583	12.097	15.4365	20.4824
 492	1	3	0.048272	14.3608	14.6197	19.5809
 493	1	4	-0.191545	8.1701	12.3952	22.9699
 494	1	9	0.130627	6.35426	12.9448	23.8283
 495	1	3	0.015236	4.20776	9.99507	25.4454
 496	1	7	0.210365	7.44854	12.094	21.0229
 497	1	1	-0.218842	5.74731	8.17984	32.8396
 498	1	2	0.68591	5.77246	6.66741	32.7166
 499	1	3	0.086668	4.81023	8.56622	32.4242
 500	1	3	0.071846	6.59207	8.60549	32.2868
 501	1	3	0.062371	5.82711	8.46892	33.8934
 502	1	4	-0.291145	6.9154	6.15463	33.2658
 503	1	1	-0.015993	7.19594	4.73867	33.2177
 504	1	5	-0.555985	4.83156	6.02168	32.2897
 505	1	2	0.652223	8.11721	1.52918	27.4881
 506	1	3	0.062504	7.59464	-0.0888223	26.1623
 507	1	5	-0.583019	9.28628	1.20212	27.617
 508	1	1	-0.168764	7.14259	0.827617	26.5583
 509	1	3	0.062846	6.22571	0.573906	27.1026
 510	1	4	-0.264747	7.51695	2.52772	28.1944
 511	1	3	0.073216	6.8862	1.49313	25.7272
 512	1	1	-0.015836	7.38935	4.56432	29.5412
 513	1	1	0.044531	8.25423	3.32561	29.1603
 514	1	1	0.341309	8.64558	2.40799	30.3655
 515	1	1	0.132892	8.60475	3.04382	31.7981
 516	1	6	-0.74435	9.9402	1.84424	30.1191
 517	1	7	-0.00272	7.91691	1.58641	30.3706
 518	1	1	-0.008403	7.84749	4.39984	31.8537
 519	1	4	-0.239698	6.83045	4.38627	30.8445
 520	1	7	0.089672	6.28393	4.14579	33.374
 521	1	7	0.088396	7.90578	4.49836	34.0197
 522	1	7	0.05623	8.57127	5.19694	31.6358
 523	1	7	0.125955	9.17736	3.69919	28.6995
 524	1	8	0.456798	9.8886	1.46002	29.1971
 525	1	9	0.198085	4.54491	8.07132	26.3853
 526	1	7	0.095469	6.24494	6.23746	24.6006
 527	1	1	-0.308877	5.4844	7.81862	25.8752
 528	1	8	0.426958	5.4354	3.95078	24.9349
 529	1	6	-0.128067	5.70528	8.73245	24.7894
 530	1	1	0.005701	5.42156	6.37322	25.3144
 531	1	7	0.239394	7.44152	7.28125	28.5457
 532	1	5	-0.48496	4.62249	4.34233	23.486
 533	1	1	-0.003409	6.55872	5.60258	27.4894
 534	1	2	0.352525	3.86766	5.25764	23.7676
 535	1	6	-0.665659	5.89561	4.02943	25.813
 536	1	1	-0.510331	6.52774	7.08438	27.9685
 537	1	1	0.240953	5.5053	5.2716	26.4093
 538	1	4	0.015262	6.56853	7.93399	26.8098
 539	1	4	0.176506	4.1486	6.27671	24.6367
 540	1	3	0.090205	2.24422	4.49336	22.5678
 541	1	1	-0.197476	2.4653	5.37177	23.1861
 542	1	1	-0.039041	5.33441	7.43743	28.9024
 543	1	7	0.144117	4.37716	7.52833	28.3711
 544	1	3	0.104606	2.39303	6.27327	22.567
 545	1	7	0.111943	4.52858	5.18259	26.9061
 546	1	7	0.160853	5.20159	6.64711	29.6596
 547	1	3	0.069306	1.72604	5.43883	23.9935
 548	1	4	-0.432857	5.69784	8.65172	29.5832
 549	1	3	0.042395	5.66227	10.8538	31.0151
 550	1	2	0.753764	5.28825	9.87405	29.132
 551	1	1	-0.122098	5.9085	10.9909	29.9559
 552	1	3	0.030493	5.53308	11.9652	29.6212
 553	1	5	-0.562583	4.4795	10.0738	28.2351
 554	1	3	0.048272	6.99849	10.9668	29.8401
 555	1	4	-0.191545	6.29634	4.75243	28.623
 556	1	9	0.130627	8.01073	5.46768	29.5588
 557	1	3	0.015236	9.63288	3.25275	32.1242
 558	1	7	0.210365	7.53733	5.36116	27.052
 559	1	1	-0.218842	5.69698	1.94841	40.7547
 560	1	2	0.68591	5.66442	0.433538	40.8499
 561	1	3	0.086668	5.72411	2.24637	39.7008
 562	1	3	0.071846	6.59443	2.33005	41.2539
 563	1	3	0.062371	4.80591	2.37382	41.2305
 564	1	4	-0.291145	6.753	-0.124984	40.2494
 565	1	1	-0.015993	6.88399	-1.55961	40.2386
 566	1	5	-0.555985	4.77387	-0.19027	41.4
 567	1	2	0.652223	8.34282	-5.28637	36.1218
 568	1	3	0.062504	7.1967	-6.91105	35.2867
 569	1	5	-0.583019	9.35656	-5.94083	36.2877
 570	1	1	-0.168764	7.0676	-5.84801	35.5192
 571	1	3	0.062846	6.23839	-5.72876	36.2257
 572	1	4	-0.264747	8.20007	-3.97635	36.4692
 573	1	3	0.073216	6.82537	-5.30355	34.5994
 574	1	1	-0.015836	8.92587	-1.74053	37.0926
 575	1	1	0.044531	9.31281	-3.24237	37.0443
 576	1	1	0.341309	9.65121	-3.74675	38.4703
 577	1	1	0.132892	8.44355	-3.4367	39.4052
 578	1	6	-0.74435	10.8626	-3.07767	38.8632
 579	1	7	-0.00272	9.82843	-4.82797	38.4602
 580	1	1	-0.008403	8.1307	-1.91718	39.4045
 581	1	4	-0.239698	7.84635	-1.54376	38.0367
 582	1	7	0.089672	5.99355	-2.02505	39.7952
 583	1	7	0.088396	6.9944	-1.93109	41.2665
 584	1	7	0.05623	8.99535	-1.35436	39.7799
 585	1	7	0.125955	10.2019	-3.36706	36.4152
 586	1	8	0.456798	11.151	-3.43395	39.7271
 587	1	9	0.198085	9.51249	0.751769	32.2206
 588	1	7	0.095469	10.1623	2.09093	34.3295
 589	1	1	-0.308877	8.81301	0.944021	33.0468
 590	1	8	0.426958	7.51746	2.26365	34.7828
 591	1	6	-0.128067	8.02575	2.10348	32.7251
 592	1	1	0.005701	9.63085	1.13074	34.3598
 593	1	7	0.239394	6.33646	0.631925	34.1383
 594	1	5	-0.48496	11.8034	0.9238	36.1575
 595	1	1	-0.003409	7.78464	-0.119761	35.5994
 596	1	2	0.352525	11.6091	0.0592825	35.3206
 597	1	6	-0.665659	7.95064	2.27455	35.661
 598	1	1	-0.510331	7.02314	-0.21847	34.2449
 599	1	1	0.240953	8.74157	1.09176	35.6336
 600	1	4	0.015262	7.96622	-0.217524	33.1586
 601	1	4	0.176506	10.6046	0.0649516	34.3932
 602	1	3	0.090205	11.8704	-2.08424	35.2766
 603	1	1	-0.197476	12.4847	-1.17992	35.2005
 604	1	1	-0.039041	6.18283	-1.50695	34.1543
 605	1	7	0.144117	5.63718	-1.56107	33.2006
 606	1	3	0.104606	13.2275	-1.18628	36.0075
 607	1	7	0.111943	9.35761	1.04974	36.5421
 608	1	7	0.160853	6.83269	-2.39354	34.2269
 609	1	3	0.069306	13.0031	-1.18279	34.2344
 610	1	4	-0.432857	5.26963	-1.45254	35.2645
 611	1	3	0.042395	4.34159	-2.00505	37.6899
 612	1	2	0.753764	4.59006	-2.57741	35.6292
 613	1	1	-0.122098	3.71542	-2.3193	36.8467
 614	1	3	0.030493	3.16698	-3.22823	37.1213
 615	1	5	-0.562583	4.68423	-3.65879	35.0736
 616	1	3	0.048272	3.00031	-1.51952	36.623
 617	1	4	-0.191545	8.53133	-1.34693	35.7636
 618	1	9	0.130627	9.79259	-1.14688	37.415
 619	1	3	0.015236	7.56864	-3.92695	38.959
 620	1	7	0.210365	7.05097	-0.007318	36.4111
 621	1	1	-0.218842	16.4328	-6.62846	49.069
 622	1	2	0.68591	15.6762	-5.36286	48.709
 623	1	3	0.086668	15.7875	-7.28023	49.6684
 624	1	3	0.071846	17.33	-6.37581	49.6454
 625	1	3	0.062371	16.7241	-7.15882	48.1555
 626	1	4	-0.291145	14.5556	-5.64263	47.984
 627	1	1	-0.015993	13.7048	-4.55663	47.5639
 628	1	5	-0.555985	16.012	-4.24798	49.0691
 629	1	2	0.652223	8.19377	-8.02358	45.7111
 630	1	3	0.062504	6.08933	-8.32794	45.3674
 631	1	5	-0.583019	8.30069	-8.88948	46.5597
 632	1	1	-0.168764	6.92094	-7.76891	44.9225
 633	1	3	0.062846	6.68179	-6.69891	44.9381
 634	1	4	-0.264747	9.19476	-7.17616	45.3401
 635	1	3	0.073216	7.05491	-8.08784	43.8843
 636	1	1	-0.015836	11.3828	-6.21574	45.1218
 637	1	1	0.044531	10.4918	-7.1406	46.0038
 638	1	1	0.341309	10.3456	-6.65676	47.4797
 639	1	1	0.132892	11.6942	-6.13005	48.0495
 640	1	6	-0.74435	9.90045	-7.74045	48.3011
 641	1	7	-0.00272	9.60647	-5.84668	47.485
 642	1	1	-0.008403	12.3445	-5.11143	47.0795
 643	1	4	-0.239698	12.5669	-5.79047	45.8278
 644	1	7	0.089672	14.1869	-3.97972	46.7641
 645	1	7	0.088396	13.5319	-3.87768	48.4057
 646	1	7	0.05623	11.6622	-4.26753	46.9236
 647	1	7	0.125955	10.9439	-8.14143	46.0184
 648	1	8	0.456798	9.21543	-8.25738	47.7926
 649	1	9	0.198085	10.1087	-2.75227	41.2198
 650	1	7	0.095469	11.089	-5.00877	40.6635
 651	1	1	-0.308877	9.62214	-3.67092	41.5763