pySIMM System Object

1862 atoms
1921 bonds
3540 angles
4917 dihedrals
120 impropers

9 atom types
10 bond types
23 angle types
20 dihedral types
1 improper types

-181.006252 181.006252 xlo xhi
-181.006252 181.006252 ylo yhi
-181.006252 181.006252 zlo zhi

Masses

   1	12.01	# c3
   2	12.01	# c
   3	1.008	# hc
   4	16.0	# os
   5	16.0	# o
   6	16.0	# oh
   7	1.008	# h1
   8	1.008	# ho
   9	1.008	# h2

Pair Coeffs

   1	0.1094	3.3996695084235347	# c3
   2	0.086	3.3996695084235347	# c
   3	0.0157	2.649532787749369	# hc
   4	0.17	3.0000123434657784	# os
   5	0.21	2.959921901149463	# o
   6	0.2104	3.0664733878390478	# oh
   7	0.0157	2.471353044121301	# h1
   8	0.0047	0.5379246460131368	# ho
   9	0.0157	2.2931733004932333	# h2

Bond Coeffs

   1	331.7	1.0961	# c3,h2
   2	637.7	1.2183	# c,o
   3	300.9	1.5375	# c3,c3
   4	330.6	1.0969	# c3,hc
   5	316.7	1.4233	# c3,oh
   6	330.6	1.0969	# c3,h1
   7	371.4	0.973	# ho,oh
   8	308.6	1.4316	# c3,os
   9	313.0	1.5241	# c,c3
  10	390.8	1.3584	# c,os

Angle Coeffs

   1	46.93	108.77	# c,c3,hc
   2	67.4	123.2	# c3,c,o
   3	68.0	107.97	# c3,c3,os
   4	46.39	109.56	# c3,c3,h1
   5	46.25	110.22	# c3,c3,h2
   6	62.86	111.51	# c3,c3,c3
   7	68.89	110.72	# c3,c,os
   8	72.58	109.38	# oh,c3,os
   9	75.32	123.25	# o,c,os
  10	67.47	110.19	# c3,c3,oh
  11	46.34	109.8	# c3,c3,hc
  12	47.38	107.26	# c3,oh,ho
  13	39.24	108.46	# h1,c3,h1
  14	50.85	109.58	# h2,c3,os
  15	72.74	108.29	# os,c3,os
  16	50.8	109.78	# h1,c3,os
  17	63.28	115.98	# c,os,c3
  18	62.7	112.48	# c3,os,c3
  19	50.93	110.26	# h1,c3,oh
  20	39.4	107.58	# hc,c3,hc
  21	51.13	109.43	# h2,c3,oh
  22	51.11	109.5	# hc,c3,oh
  23	62.7	112.48	# c3,oh,c3

Dihedral Coeffs

   1	3	0.18	3	0	0.25	2	180	0.2	1	180	# c3,c3,c3,c3
   2	1	0.3833333333333333	3	0	# X,c3,os,X
   3	2	0.144	3	0	1.175	2	0	# os,c3,c3,oh
   4	3	0.1	3	0	0.85	2	180	1.35	1	180	# c3,os,c3,os
   5	2	0.144	3	0	1.175	2	0	# os,c3,c3,os
   6	3	2.7	2	180	0.0	1	0	1.15	3	0	# c3,c,os,c3
   7	2	0.0	3	0	0.25	1	0	# hc,c3,c3,oh
   8	1	0.16	3	0	# hc,c3,c3,c3
   9	1	0.15555555555555556	3	0	# X,c3,c3,X
  10	2	0.16	3	0	0.25	1	0	# ho,oh,c3,c3
  11	2	0.383	3	0	0.8	1	180	# c3,c3,os,c
  12	1	0.0	2	180	# X,c,c3,X
  13	2	2.7	2	180	1.4	1	180	# o,c,os,c3
  14	2	0.0	3	0	0.25	1	0	# hc,c3,c3,os
  15	2	0.0	3	0	0.25	1	0	# h1,c3,c3,oh
  16	1	0.16666666666666666	3	0	# X,c3,oh,X
  17	3	0.8	1	0	0.0	2	0	0.08	3	180	# hc,c3,c,o
  18	2	0.0	3	0	0.25	1	0	# h1,c3,c3,os
  19	2	0.383	3	0	0.1	2	180	# c3,c3,os,c3
  20	2	0.144	3	0	1.175	2	0	# oh,c3,c3,oh

Improper Coeffs

   1	10.5	-1	2	# c,X,X,o

Atoms

   1	1	1	-0.218842	19.5742	-21.9701	3.86857
   2	1	2	0.68591	18.9025	-21.5746	2.56588
   3	1	3	0.086668	20.2663	-22.7994	3.68976
   4	1	3	0.071846	18.8174	-22.2741	4.60026
   5	1	3	0.062371	20.135	-21.1148	4.26332
   6	1	4	-0.291145	19.8231	-21.2578	1.60904
   7	1	1	-0.015993	19.3715	-20.7959	0.319147
   8	1	5	-0.555985	17.6925	-21.5462	2.41712
   9	1	2	0.652223	23.2836	-16.1006	-2.48103
  10	1	3	0.062504	24.0654	-14.2749	-1.65306
  11	1	5	-0.583019	23.6636	-16.9096	-3.31069
  12	1	1	-0.168764	23.5589	-14.6106	-2.56531
  13	1	3	0.062846	24.19	-14.3905	-3.43408
  14	1	4	-0.264747	22.5381	-16.4019	-1.38229
  15	1	3	0.073216	22.6099	-14.07	-2.65912
  16	1	1	-0.015836	21.3757	-17.6719	0.271506
  17	1	1	0.044531	22.0895	-17.7491	-1.0932
  18	1	1	0.341309	21.1573	-18.2975	-2.20624
  19	1	1	0.132892	20.0748	-19.2988	-1.68009
  20	1	6	-0.74435	21.9306	-18.9188	-3.23516
  21	1	7	-0.00272	20.6592	-17.4283	-2.64739
  22	1	1	-0.008403	20.5031	-19.9625	-0.333618
  23	1	4	-0.239698	20.9524	-18.9932	0.657692
  24	1	7	0.089672	18.4788	-20.1696	0.438817
  25	1	7	0.088396	19.1004	-21.6463	-0.319082
  26	1	7	0.05623	21.3394	-20.6379	-0.557358
  27	1	7	0.125955	22.9514	-18.4235	-0.995005
  28	1	8	0.456798	22.6438	-18.2619	-3.47606
  29	1	9	0.198085	18.8222	-14.2333	3.34208
  30	1	7	0.095469	19.6665	-12.6922	1.76405
  31	1	1	-0.308877	18.1771	-14.0758	2.46489
  32	1	8	0.426958	20.9567	-13.1148	-0.208782
  33	1	6	-0.128067	17.0926	-13.2342	2.85311
  34	1	1	0.005701	19.0026	-13.4422	1.31909
  35	1	7	0.239394	19.0905	-16.3756	3.17346
  36	1	5	-0.48496	19.8563	-11.8231	-0.800738
  37	1	1	-0.003409	19.9928	-15.8779	1.23801
  38	1	2	0.352525	18.6661	-12.0453	-0.64893
  39	1	6	-0.665659	21.1342	-13.9549	0.285348
  40	1	1	-0.510331	18.7705	-16.3316	2.11705
  41	1	1	0.240953	19.8438	-14.501	0.538822
  42	1	4	0.015262	17.7086	-15.3604	2.02636
  43	1	4	0.176506	18.123	-12.7932	0.361481
  44	1	3	0.090205	17.2497	-12.3259	-2.26492
  45	1	1	-0.197476	17.6351	-11.507	-1.63922
  46	1	1	-0.039041	18.2079	-17.7287	1.77588
  47	1	7	0.144117	17.8535	-17.762	0.740524
  48	1	3	0.104606	18.1162	-10.7657	-2.29378
  49	1	7	0.111943	19.3116	-14.6908	-0.40281
  50	1	7	0.160853	19.008	-18.4686	1.88621
  51	1	3	0.069306	16.7959	-11.0294	-1.11574
  52	1	4	-0.432857	17.1457	-18.0398	2.69704
  53	1	3	0.042395	15.5734	-17.799	4.78465
  54	1	2	0.753764	17.4377	-18.4744	3.95368
  55	1	1	-0.122098	16.1627	-18.7219	4.75122
  56	1	3	0.030493	16.4077	-19.0368	5.76981
  57	1	5	-0.562583	18.56	-18.6553	4.39847
  58	1	3	0.048272	15.575	-19.5026	4.25617
  59	1	4	-0.191545	20.2172	-16.8217	0.158845
  60	1	9	0.130627	22.0704	-17.278	1.02398
  61	1	3	0.015236	19.9682	-20.1072	-2.41695
  62	1	7	0.210365	20.8766	-15.7949	1.88915
  63	1	1	-0.218842	12.0179	-21.2357	-9.47231
  64	1	2	0.68591	12.5822	-19.8884	-9.88702
  65	1	3	0.086668	12.6337	-21.657	-8.67066
  66	1	3	0.071846	12.0139	-21.9199	-10.3281
  67	1	3	0.062371	10.993	-21.112	-9.10324
  68	1	4	-0.291145	12.3948	-18.954	-8.90788
  69	1	1	-0.015993	12.8583	-17.6026	-9.10561
  70	1	5	-0.555985	13.0556	-19.6727	-10.9915
  71	1	2	0.652223	16.1329	-13.6199	-6.9732
  72	1	3	0.062504	15.3286	-11.9768	-8.10968
  73	1	5	-0.583019	17.0019	-13.7009	-6.12199
  74	1	1	-0.168764	15.2139	-12.4193	-7.11365
  75	1	3	0.062846	14.1733	-12.737	-6.98269
  76	1	4	-0.264747	15.9174	-14.5249	-7.96915
  77	1	3	0.073216	15.4625	-11.6701	-6.35344
  78	1	1	-0.015836	15.9138	-16.8247	-7.07613
  79	1	1	0.044531	16.6186	-15.7948	-7.99881
  80	1	1	0.341309	16.5806	-16.3037	-9.45553
  81	1	1	0.132892	15.1144	-16.6317	-9.88073
  82	1	6	-0.74435	17.445	-17.4384	-9.57234
  83	1	7	-0.00272	16.9663	-15.5053	-10.1021
  84	1	1	-0.008403	14.3839	-17.5217	-8.83867
  85	1	4	-0.239698	14.5504	-16.9675	-7.51459
  86	1	7	0.089672	12.336	-16.932	-8.41059
  87	1	7	0.088396	12.6192	-17.2707	-10.1249
  88	1	7	0.05623	14.8234	-18.5277	-8.87013
  89	1	7	0.125955	17.6679	-15.6714	-7.70199
  90	1	8	0.456798	17.5402	-17.5756	-10.5402
  91	1	9	0.198085	18.9344	-18.0622	-3.54025
  92	1	7	0.095469	18.499	-16.094	-1.99018
  93	1	1	-0.308877	18.1948	-18.1077	-2.73085
  94	1	8	0.426958	17.5913	-14.4514	-4.77584
  95	1	6	-0.128067	18.7733	-18.6936	-1.55888
  96	1	1	0.005701	17.6726	-16.693	-2.39144
  97	1	7	0.239394	16.8712	-19.0878	-5.22886
  98	1	5	-0.48496	16.3816	-14.5684	-1.02051
  99	1	1	-0.003409	16.9183	-16.9453	-4.84519
 100	1	2	0.352525	16.1106	-15.7304	-0.765134
 101	1	6	-0.665659	17.9901	-14.9342	-3.99413
 102	1	1	-0.510331	16.4964	-18.4111	-4.44856
 103	1	1	0.240953	17.0883	-15.9841	-3.63965
 104	1	4	0.015262	17.0655	-18.8542	-3.19431
 105	1	4	0.176506	16.6545	-16.8275	-1.37422
 106	1	3	0.090205	14.5532	-15.2276	0.641732
 107	1	1	-0.197476	15.0692	-16.1223	0.274469
 108	1	1	-0.039041	14.9666	-18.6338	-4.33293
 109	1	7	0.144117	14.5076	-18.5781	-5.33289
 110	1	3	0.104606	15.5549	-16.6198	1.12047
 111	1	7	0.111943	16.1009	-15.5676	-3.39848
 112	1	7	0.160853	14.7438	-19.6331	-3.92755
 113	1	3	0.069306	14.3398	-16.8143	-0.158636
 114	1	4	-0.432857	14.4071	-17.6101	-3.485
 115	1	3	0.042395	12.4497	-16.6393	-1.55765
 116	1	2	0.753764	13.047	-17.4797	-3.44771
 117	1	1	-0.122098	12.617	-16.3016	-2.58575
 118	1	3	0.030493	11.6878	-15.872	-2.97827
 119	1	5	-0.562583	12.2628	-18.1948	-4.04799
 120	1	3	0.048272	13.3938	-15.5276	-2.58758
 121	1	4	-0.191545	15.9168	-16.3685	-5.71285
 122	1	9	0.130627	16.4134	-17.8002	-7.1486
 123	1	3	0.015236	14.5638	-15.6843	-9.95555
 124	1	7	0.210365	17.8916	-16.9682	-5.35577
 125	1	1	-0.218842	17.0094	-9.66179	-13.9525
 126	1	2	0.68591	17.9908	-10.0544	-15.0429
 127	1	3	0.086668	16.155	-10.3453	-13.9668
 128	1	3	0.071846	16.6633	-8.63561	-14.122
 129	1	3	0.062371	17.4966	-9.71757	-12.9724
 130	1	4	-0.291145	18.74	-11.1402	-14.6769
 131	1	1	-0.015993	19.6247	-11.7611	-15.6368
 132	1	5	-0.555985	18.0377	-9.50825	-16.1324
 133	1	2	0.652223	21.3778	-16.9376	-16.9408
 134	1	3	0.062504	22.7887	-18.4266	-16.2781
 135	1	5	-0.583019	21.7407	-16.9276	-18.1063
 136	1	1	-0.168764	22.0895	-17.7048	-15.8407
 137	1	3	0.062846	22.6418	-17.0058	-15.2027
 138	1	4	-0.264747	20.2858	-16.2699	-16.4661
 139	1	3	0.073216	21.358	-18.2394	-15.2243
 140	1	1	-0.015836	18.1831	-15.0234	-16.6039
 141	1	1	0.044531	19.4528	-15.4893	-17.364
 142	1	1	0.341309	20.281	-14.2893	-17.9073
 143	1	1	0.132892	19.4423	-12.9881	-17.9754
 144	1	6	-0.74435	20.8111	-14.6367	-19.1914
 145	1	7	-0.00272	21.1145	-14.1035	-17.2173
 146	1	1	-0.008403	18.7784	-12.6469	-16.5953
 147	1	4	-0.239698	18.5198	-13.8533	-15.8371
 148	1	7	0.089672	20.3574	-12.391	-15.1157
 149	1	7	0.088396	20.1808	-10.9837	-16.175
 150	1	7	0.05623	17.828	-12.1421	-16.8107
 151	1	7	0.125955	19.1286	-16.1106	-18.2093
 152	1	8	0.456798	21.3156	-15.4844	-19.041
 153	1	9	0.198085	15.3555	-15.4876	-12.1502
 154	1	7	0.095469	13.8198	-16.4673	-13.6497
 155	1	1	-0.308877	15.5104	-16.5641	-12.3026
 156	1	8	0.426958	14.0452	-16.9627	-16.0508
 157	1	6	-0.128067	15.0488	-17.286	-11.1585
 158	1	1	0.005701	14.771	-17.0119	-13.5916
 159	1	7	0.239394	17.4034	-14.8271	-12.8354
 160	1	5	-0.48496	13.2445	-18.5184	-15.4365
 161	1	1	-0.003409	16.7771	-15.7493	-14.7185
 162	1	2	0.352525	13.7371	-19.0598	-14.4585
 163	1	6	-0.665659	14.7251	-16.2553	-15.9059
 164	1	1	-0.510331	17.4985	-15.808	-13.3222
 165	1	1	0.240953	15.5979	-16.7436	-14.8861
 166	1	4	0.015262	16.9008	-16.8138	-12.4987
 167	1	4	0.176506	14.5009	-18.4345	-13.5072
 168	1	3	0.090205	13.2659	-21.0619	-15.1101
 169	1	1	-0.197476	13.6152	-20.5557	-14.2021
 170	1	1	-0.039041	19.0076	-16.1242	-13.3847
 171	1	7	0.144117	19.1802	-17.1293	-13.7984
 172	1	3	0.104606	12.8959	-20.7348	-13.395
 173	1	7	0.111943	16.0471	-17.6959	-15.2036
 174	1	7	0.160853	19.5276	-15.4019	-14.0337
 175	1	3	0.069306	14.5859	-20.974	-13.9101
 176	1	4	-0.432857	19.5081	-16.0238	-12.0395
 177	1	3	0.042395	20.921	-15.1154	-9.99407
 178	1	2	0.753764	20.8377	-16.2499	-11.8232
 179	1	1	-0.122098	21.1949	-16.1147	-10.3516
 180	1	3	0.030493	22.2713	-16.2672	-10.207
 181	1	5	-0.562583	21.6435	-16.5168	-12.7006
 182	1	3	0.048272	20.6425	-16.8615	-9.76939
 183	1	4	-0.191545	17.7151	-16.0942	-15.7608
 184	1	9	0.130627	17.3856	-14.7644	-17.3141
 185	1	3	0.015236	18.6386	-13.1567	-18.705
 186	1	7	0.210365	16.3693	-14.7423	-14.891
 187	1	1	-0.218842	24.6568	-11.7163	-23.1271
 188	1	2	0.68591	24.5702	-10.3	-23.6658
 189	1	3	0.086668	25.1814	-12.3532	-23.8468
 190	1	3	0.071846	23.6472	-12.1132	-22.9679
 191	1	3	0.062371	25.1938	-11.7217	-22.1714
 192	1	4	-0.291145	23.6912	-10.2184	-24.7118
 193	1	1	-0.015993	23.3475	-8.94494	-25.3124
 194	1	5	-0.555985	25.2303	-9.37223	-23.2247
 195	1	2	0.652223	17.5707	-7.00093	-24.5323
 196	1	3	0.062504	16.1156	-8.44237	-23.8657
 197	1	5	-0.583019	17.6238	-5.82006	-24.8343
 198	1	1	-0.168764	16.348	-7.86896	-24.7707
 199	1	3	0.062846	15.488	-7.24169	-25.0314
 200	1	4	-0.264747	18.5972	-7.71352	-23.984
 201	1	3	0.073216	16.5473	-8.56853	-25.5895
 202	1	1	-0.015836	20.6923	-8.11776	-22.8196
 203	1	1	0.044531	19.8488	-7.07917	-23.6022
 204	1	1	0.341309	20.5992	-6.57346	-24.8739
 205	1	1	0.132892	22.1562	-6.6707	-24.7901
 206	1	6	-0.74435	20.1758	-5.25772	-25.2416
 207	1	7	-0.00272	20.3082	-7.24888	-25.6892
 208	1	1	-0.008403	22.6404	-8.06118	-24.2589
 209	1	4	-0.239698	21.5271	-8.81906	-23.7545
 210	1	7	0.089672	22.6761	-9.10693	-26.1655
 211	1	7	0.088396	24.2527	-8.43985	-25.6751
 212	1	7	0.05623	23.3568	-7.90993	-23.4518
 213	1	7	0.125955	19.6615	-6.22968	-22.9388
 214	1	8	0.456798	19.1789	-5.27673	-25.1757
 215	1	9	0.198085	19.0104	-10.3542	-18.0407
 216	1	7	0.095469	21.4304	-9.59261	-18.3599
 217	1	1	-0.308877	19.6385	-10.7171	-18.8631
 218	1	8	0.426958	21.741	-11.7678	-19.9391
 219	1	6	-0.128067	20.282	-11.9295	-18.4523
 220	1	1	0.005701	20.7061	-9.64309	-19.183
 221	1	7	0.239394	19.8688	-12.296	-21.0927
 222	1	5	-0.48496	21.8519	-7.08795	-19.5553
 223	1	1	-0.003409	20.4971	-10.2758	-21.647
 224	1	2	0.352525	20.6515	-7.20407	-19.371
 225	1	6	-0.665659	22.3345	-11.0711	-20.3032
 226	1	1	-0.510331	19.4066	-11.307	-21.2339
 227	1	1	0.240953	21.4747	-9.95047	-20.499
 228	1	4	0.015262	18.778	-10.8982	-20.0082
 229	1	4	0.176506	19.9906	-8.3899	-19.237
 230	1	3	0.090205	18.9676	-6.20792	-18.4412
 231	1	1	-0.197476	19.7068	-6.01983	-19.23
 232	1	1	-0.039041	18.3092	-11.4356	-22.3097
 233	1	7	0.144117	17.597	-12.2372	-22.0649
 234	1	3	0.104606	19.1781	-5.85032	-20.174
 235	1	7	0.111943	22.101	-9.10046	-20.7886
 236	1	7	0.160853	17.7464	-10.4904	-22.3795
 237	1	3	0.069306	20.2742	-5.12321	-18.9618
 238	1	4	-0.432857	18.9902	-11.7109	-23.5486
 239	1	3	0.042395	18.7489	-11.4965	-26.8508
 240	1	2	0.753764	18.347	-11.4828	-24.7298
 241	1	1	-0.122098	19.2594	-11.7553	-25.9157
 242	1	3	0.030493	19.5372	-12.8156	-25.9356
 243	1	5	-0.562583	17.204	-11.07	-24.8337
 244	1	3	0.048272	20.1706	-11.1526	-25.823
 245	1	4	-0.191545	19.8576	-9.05597	-22.1033
 246	1	9	0.130627	21.3183	-7.59021	-22.0935
 247	1	3	0.015236	22.5118	-6.57841	-25.8243
 248	1	7	0.210365	21.0746	-10.7207	-22.4693
 249	1	1	-0.218842	23.3003	1.26922	-15.141
 250	1	2	0.68591	22.7254	-0.118229	-14.9301
 251	1	3	0.086668	23.7867	1.60962	-14.22
 252	1	3	0.071846	22.4967	1.96642	-15.4039
 253	1	3	0.062371	24.0327	1.24617	-15.9554
 254	1	4	-0.291145	21.9032	-0.475254	-15.9604
 255	1	1	-0.015993	21.2323	-1.75063	-15.931
 256	1	5	-0.555985	22.937	-0.791951	-13.937
 257	1	2	0.652223	24.5902	-7.37315	-17.6402
 258	1	3	0.062504	25.8646	-7.81104	-19.3219
 259	1	5	-0.583019	24.6318	-7.73107	-16.4765
 260	1	1	-0.168764	25.0078	-8.25635	-18.805
 261	1	3	0.062846	25.2821	-9.25296	-18.4395
 262	1	4	-0.264747	24.1905	-6.14068	-18.0622
 263	1	3	0.073216	24.1787	-8.35483	-19.5137
 264	1	1	-0.015836	23.472	-3.84818	-18.1085
 265	1	1	0.044531	23.694	-5.08915	-17.1844
 266	1	1	0.341309	22.405	-5.50398	-16.4182
 267	1	1	0.132892	21.6669	-4.28637	-15.7926
 268	1	6	-0.74435	22.6814	-6.42819	-15.3532
 269	1	7	-0.00272	21.7356	-5.98749	-17.1374
 270	1	1	-0.008403	22.2373	-2.90189	-16.1966
 271	1	4	-0.239698	22.5214	-2.89624	-17.5971
 272	1	7	0.089672	20.4498	-1.77303	-16.7019
 273	1	7	0.088396	20.7461	-1.8919	-14.9564
 274	1	7	0.05623	23.1623	-2.72784	-15.6324
 275	1	7	0.125955	24.46	-4.83434	-16.441
 276	1	8	0.456798	23.398	-7.04496	-15.6869
 277	1	9	0.198085	22.9367	-6.52245	-22.2249
 278	1	7	0.095469	24.585	-4.14184	-23.1563
 279	1	1	-0.308877	22.9745	-5.52718	-22.6706
 280	1	8	0.426958	26.4169	-3.82294	-21.5536
 281	1	6	-0.128067	22.7512	-5.54852	-24.0923
 282	1	1	0.005701	24.4007	-4.94319	-22.428
 283	1	7	0.239394	22.5943	-2.87496	-22.433
 284	1	5	-0.48496	27.2043	-4.73327	-22.7652
 285	1	1	-0.003409	23.369	-3.57719	-20.5113
 286	1	2	0.352525	26.6611	-5.82474	-22.796
 287	1	6	-0.665659	25.7332	-3.51489	-20.8995
 288	1	1	-0.510331	22.2432	-3.46448	-21.5734
 289	1	1	0.240953	24.5978	-4.37903	-20.9961
 290	1	4	0.015262	21.9206	-4.7877	-22.0173
 291	1	4	0.176506	25.3175	-6.04269	-22.6469
 292	1	3	0.090205	28.514	-6.90425	-23.0362
 293	1	1	-0.197476	27.4396	-7.11806	-22.9859
 294	1	1	-0.039041	20.9831	-2.77768	-21.0066
 295	1	7	0.144117	20.4286	-3.44933	-20.3384
 296	1	3	0.104606	27.1293	-7.60726	-23.9164
 297	1	7	0.111943	24.7303	-5.23719	-20.3252
 298	1	7	0.160853	21.274	-1.89647	-20.4165
 299	1	3	0.069306	27.2495	-7.80085	-22.149
 300	1	4	-0.432857	20.1912	-2.3583	-22.1321
 301	1	3	0.042395	17.7087	-3.14254	-24.1791
 302	1	2	0.753764	19.2365	-3.18711	-22.6544
 303	1	1	-0.122098	18.5824	-2.55596	-23.8732
 304	1	3	0.030493	19.301	-2.51975	-24.7003
 305	1	5	-0.562583	18.8029	-4.18384	-22.0981
 306	1	3	0.048272	18.2653	-1.53438	-23.6358
 307	1	4	-0.191545	22.8617	-4.25235	-19.3456
 308	1	9	0.130627	24.4398	-3.36326	-18.2962
 309	1	3	0.015236	21.8202	-4.31944	-14.7072
 310	1	7	0.210365	23.6952	-2.56154	-20.242
 311	1	1	-0.218842	15.5113	2.43881	-13.3627
 312	1	2	0.68591	16.1537	1.74281	-12.1754
 313	1	3	0.086668	15.7123	3.51485	-13.3122
 314	1	3	0.071846	14.428	2.27369	-13.3501
 315	1	3	0.062371	15.9234	2.03482	-14.2945
 316	1	4	-0.291145	15.7264	0.452371	-12.0625
 317	1	1	-0.015993	16.2362	-0.366851	-10.9893
 318	1	5	-0.555985	16.9563	2.27758	-11.4316
 319	1	2	0.652223	12.971	-1.73497	-15.3193
 320	1	3	0.062504	13.7136	-2.03903	-17.3144
 321	1	5	-0.583019	11.8124	-1.71753	-14.9365
 322	1	1	-0.168764	13.4171	-1.20432	-16.6699
 323	1	3	0.062846	12.5981	-0.653235	-17.146
 324	1	4	-0.264747	14.0196	-2.20761	-14.5823
 325	1	3	0.073216	14.2754	-0.53474	-16.5418
 326	1	1	-0.015836	15.0913	-3.42295	-12.7429
 327	1	1	0.044531	13.7883	-2.75374	-13.2567
 328	1	1	0.341309	13.2977	-1.60898	-12.3195
 329	1	1	0.132892	13.9535	-1.6698	-10.9117
 330	1	6	-0.74435	11.8741	-1.66871	-12.2379
 331	1	7	-0.00272	13.5741	-0.650021	-12.7743
 332	1	1	-0.008403	15.513	-1.73992	-11.0029
 333	1	4	-0.239698	15.9386	-2.38016	-12.2241
 334	1	7	0.089672	16.0728	0.133758	-10.0253
 335	1	7	0.088396	17.318	-0.513134	-11.1093
 336	1	7	0.05623	15.8728	-2.3252	-10.1473
 337	1	7	0.125955	13.0111	-3.52813	-13.305
 338	1	8	0.456798	11.5583	-1.62629	-13.1827
 339	1	9	0.198085	19.9519	-6.28277	-15.3148
 340	1	7	0.095469	19.8188	-3.76828	-13.7375
 341	1	1	-0.308877	19.4948	-5.28311	-15.2609
 342	1	8	0.426958	17.2202	-3.60611	-11.837
 343	1	6	-0.128067	20.2586	-4.37826	-16.0737
 344	1	1	0.005701	19.4362	-4.79503	-13.7773
 345	1	7	0.239394	17.9416	-3.38355	-16.0839
 346	1	5	-0.48496	19.1927	-7.61836	-13.2012
 347	1	1	-0.003409	17.1004	-3.90262	-14.1583
 348	1	2	0.352525	20.1189	-6.95302	-12.771
 349	1	6	-0.665659	18.0614	-4.11105	-11.9177
 350	1	1	-0.510331	17.3658	-4.22057	-15.6664
 351	1	1	0.240953	18.0056	-4.73081	-13.2027
 352	1	4	0.015262	18.1602	-5.41284	-15.7873
 353	1	4	0.176506	20.3018	-5.60791	-12.9505
 354	1	3	0.090205	22.2127	-7.31795	-12.4148
 355	1	1	-0.197476	21.2481	-7.56124	-11.9519
 356	1	1	-0.039041	16.1011	-4.40846	-16.5367
 357	1	7	0.144117	15.7416	-5.44488	-16.4543
 358	1	3	0.104606	21.1354	-8.6513	-11.9189
 359	1	7	0.111943	17.5879	-5.74547	-13.1391
 360	1	7	0.160853	15.2902	-3.74324	-16.2093
 361	1	3	0.069306	21.2304	-7.16333	-10.9306
 362	1	4	-0.432857	16.4575	-4.10517	-17.8994
 363	1	3	0.042395	18.1064	-2.86945	-19.85
 364	1	2	0.753764	16.6397	-2.80441	-18.2878
 365	1	1	-0.122098	17.0284	-2.70654	-19.7534
 366	1	3	0.030493	16.7747	-1.71509	-20.148
 367	1	5	-0.562583	16.4644	-1.83178	-17.5722
 368	1	3	0.048272	16.5013	-3.47012	-20.3375
 369	1	4	-0.191545	15.7129	-4.16361	-13.8263
 370	1	9	0.130627	14.8487	-4.12561	-11.934
 371	1	3	0.015236	13.5923	-2.58134	-10.416
 372	1	7	0.210365	17.3296	-2.83491	-14.0318
 373	1	1	-0.218842	5.81322	2.28966	-9.26649
 374	1	2	0.68591	7.18852	2.8832	-9.03163
 375	1	3	0.086668	5.59479	1.55647	-8.48394
 376	1	3	0.071846	5.78363	1.79443	-10.2431
 377	1	3	0.062371	5.05963	3.08102	-9.23575
 378	1	4	-0.291145	7.15178	3.86988	-8.08255
 379	1	1	-0.015993	8.37132	4.54011	-7.69021
 380	1	5	-0.555985	8.1414	2.64025	-9.75765
 381	1	2	0.652223	7.27509	0.23549	-5.69274
 382	1	3	0.062504	6.83442	-1.67968	-4.79711
 383	1	5	-0.583019	6.73878	1.23201	-6.13893
 384	1	1	-0.168764	6.60896	-1.13061	-5.71867
 385	1	3	0.062846	5.5229	-1.01173	-5.80591
 386	1	4	-0.264747	8.44904	0.1925	-4.99019
 387	1	3	0.073216	6.98191	-1.70598	-6.57345
 388	1	1	-0.015836	10.0986	1.62467	-6.14366
 389	1	1	0.044531	9.35172	1.32284	-4.83154
 390	1	1	0.341309	8.64632	2.57129	-4.21906
 391	1	1	0.132892	8.47873	3.82772	-5.14836
 392	1	6	-0.74435	9.32853	2.93875	-3.01157
 393	1	7	-0.00272	7.64296	2.25084	-3.91246
 394	1	1	-0.008403	9.10832	3.74733	-6.57492
 395	1	4	-0.239698	9.25323	2.39116	-6.99818
 396	1	7	0.089672	8.13158	5.542	-7.31499
 397	1	7	0.088396	9.03403	4.66449	-8.55731
 398	1	7	0.05623	10.1141	4.18266	-6.50265
 399	1	7	0.125955	10.1143	1.01235	-4.1083
 400	1	8	0.456798	8.78248	3.65315	-2.60184
 401	1	9	0.198085	14.3868	-1.1738	-8.36535
 402	1	7	0.095469	14.2073	1.36428	-8.32453
 403	1	1	-0.308877	13.4846	-0.664415	-8.72456
 404	1	8	0.426958	12.2523	0.968798	-10.2688
 405	1	6	-0.128067	13.5585	-0.521527	-10.1514
 406	1	1	0.005701	13.3608	0.725496	-8.04052
 407	1	7	0.239394	11.0322	-0.91429	-9.86497
 408	1	5	-0.48496	13.4969	2.67806	-5.9701
 409	1	1	-0.003409	10.821	0.502096	-8.20914
 410	1	2	0.352525	13.4574	1.4903	-5.70391
 411	1	6	-0.665659	12.0879	1.8161	-9.80091
 412	1	1	-0.510331	11.0536	-0.938271	-8.76411
 413	1	1	0.240953	12.037	1.43976	-8.42841
 414	1	4	0.015262	12.3336	-1.44907	-8.3448
 415	1	4	0.176506	13.4046	0.473393	-6.61711
 416	1	3	0.090205	12.8263	1.67321	-3.65078
 417	1	1	-0.197476	13.4035	0.97546	-4.27041
 418	1	1	-0.039041	9.96593	-1.92852	-8.30057
 419	1	7	0.144117	10.1868	-2.30916	-7.29208
 420	1	3	0.104606	14.4201	0.89714	-3.86823
 421	1	7	0.111943	11.9137	2.35816	-7.8417
 422	1	7	0.160853	8.98166	-1.43657	-8.26422
 423	1	3	0.069306	12.9246	-0.0109119	-4.22717
 424	1	4	-0.432857	9.95071	-2.99491	-9.26485
 425	1	3	0.042395	8.48876	-5.87191	-10.061
 426	1	2	0.753764	9.0509	-4.01178	-9.11729
 427	1	1	-0.122098	9.20019	-5.0529	-10.2178
 428	1	3	0.030493	10.2209	-5.4533	-10.2175
 429	1	5	-0.562583	8.26692	-4.10707	-8.18608
 430	1	3	0.048272	9.0061	-4.58978	-11.192
 431	1	4	-0.191545	10.5115	0.40455	-6.79618
 432	1	9	0.130627	10.9845	2.22607	-5.91037
 433	1	3	0.015236	9.04035	4.64632	-4.6754
 434	1	7	0.210365	9.96691	0.958439	-8.73452
 435	1	1	-0.218842	0.690247	3.92003	0.909912
 436	1	2	0.68591	0.878313	5.36607	1.3328
 437	1	3	0.086668	0.567575	3.29407	1.80052
 438	1	3	0.071846	1.57316	3.57982	0.35775
 439	1	3	0.062371	-0.197357	3.82743	0.273613
 440	1	4	-0.291145	2.09845	5.55389	1.91528
 441	1	1	-0.015993	2.48665	6.85885	2.39545
 442	1	5	-0.555985	0.0155091	6.21974	1.21901
 443	1	2	0.652223	6.46347	10.778	0.87788
 444	1	3	0.062504	8.14904	11.5416	1.97987
 445	1	5	-0.583019	6.15775	11.854	0.385646
 446	1	1	-0.168764	7.63931	10.5852	1.81609
 447	1	3	0.062846	7.28305	10.1947	2.7765
 448	1	4	-0.264747	5.81556	9.60374	0.64258
 449	1	3	0.073216	8.34428	9.86799	1.37972
 450	1	1	-0.015836	4.32642	8.1422	-0.60197
 451	1	1	0.044531	4.63577	9.5939	-0.198119
 452	1	1	0.341309	3.44948	10.2334	0.560776
 453	1	1	0.132892	2.86786	9.30697	1.66111
 454	1	6	-0.74435	2.42388	10.6743	-0.330723
 455	1	7	-0.00272	3.83498	11.1292	1.05248
 456	1	1	-0.008403	2.75399	7.81986	1.21009
 457	1	4	-0.239698	3.96995	7.38831	0.570133
 458	1	7	0.089672	3.40182	6.76984	2.99558
 459	1	7	0.088396	1.69629	7.26848	3.03587
 460	1	7	0.05623	1.92836	7.75388	0.489852
 461	1	7	0.125955	4.82681	10.175	-1.10707
 462	1	8	0.456798	2.03983	11.4649	0.127362
 463	1	9	0.198085	7.44304	6.04368	-4.29865
 464	1	7	0.095469	4.6019	4.89591	-4.50597
 465	1	1	-0.308877	6.73253	5.21417	-4.22652
 466	1	8	0.426958	3.15246	5.96383	-3.20052
 467	1	6	-0.128067	7.09259	4.21519	-5.18211
 468	1	1	0.005701	5.30377	5.73993	-4.47706
 469	1	7	0.239394	6.65471	4.99708	-0.889192
 470	1	5	-0.48496	3.06396	6.43656	-6.22929
 471	1	1	-0.003409	5.35198	6.35862	-1.93275
 472	1	2	0.352525	4.22375	6.71905	-6.49359
 473	1	6	-0.665659	3.49557	6.88629	-3.35878
 474	1	1	-0.510331	6.69469	5.57238	-1.82571
 475	1	1	0.240953	4.90714	6.75344	-3.37222
 476	1	4	0.015262	6.78099	4.64155	-2.91265
 477	1	4	0.176506	5.34036	6.42121	-5.75351
 478	1	3	0.090205	5.27835	6.8443	-8.37557
 479	1	1	-0.197476	4.60418	7.46125	-7.76889
 480	1	1	-0.039041	7.98061	6.43446	-1.7546
 481	1	7	0.144117	8.18802	6.97061	-2.69014
 482	1	3	0.104606	5.11153	8.4008	-7.5225
 483	1	7	0.111943	5.38476	7.71374	-3.60711
 484	1	7	0.160853	7.89146	7.19764	-0.964973
 485	1	3	0.069306	3.71191	7.68688	-8.36272
 486	1	4	-0.432857	9.04575	5.52779	-1.41459
 487	1	3	0.042395	12.3112	5.22967	-1.10616
 488	1	2	0.753764	10.3154	6.02528	-1.30781
 489	1	1	-0.122098	11.293	4.98331	-0.784206
 490	1	3	0.030493	11.0314	3.98647	-1.15672
 491	1	5	-0.562583	10.6245	7.17681	-1.56148
 492	1	3	0.048272	11.2525	4.9694	0.310919
 493	1	4	-0.191545	5.51173	7.58071	-1.1883
 494	1	9	0.130627	3.49713	8.14113	-1.32155
 495	1	3	0.015236	1.84236	9.63576	1.87926
 496	1	7	0.210365	4.5595	5.74387	-1.48112
 497	1	1	-0.218842	2.97784	18.5857	4.30687
 498	1	2	0.68591	3.08201	17.9258	5.67036
 499	1	3	0.086668	2.12062	18.1759	3.76174
 500	1	3	0.071846	3.89496	18.4048	3.73555
 501	1	3	0.062371	2.84594	19.667	4.42991
 502	1	4	-0.291145	4.14888	18.4224	6.36722
 503	1	1	-0.015993	4.46882	17.9775	7.7041
 504	1	5	-0.555985	2.25491	17.1343	6.08525
 505	1	2	0.652223	5.55968	11.9303	9.87056
 506	1	3	0.062504	4.98103	10.5845	11.4517
 507	1	5	-0.583019	6.74592	11.9677	10.1577
 508	1	1	-0.168764	4.56762	10.9783	10.5161
 509	1	3	0.062846	3.62818	11.5021	10.7281
 510	1	4	-0.264747	4.96118	12.7611	8.96993
 511	1	3	0.073216	4.36159	10.1476	9.83281
 512	1	1	-0.015836	4.84008	14.3395	7.10349
 513	1	1	0.044531	5.72393	13.7664	8.24822
 514	1	1	0.341309	6.22834	14.8276	9.28113
 515	1	1	0.132892	6.16543	16.3401	8.87117
 516	1	6	-0.74435	7.55906	14.4698	9.67432
 517	1	7	-0.00272	5.58141	14.7275	10.1628
 518	1	1	-0.008403	5.2259	16.6237	7.65474
 519	1	4	-0.239698	4.25573	15.5697	7.54528
 520	1	7	0.089672	3.56335	17.8917	8.321
 521	1	7	0.088396	5.12061	18.7364	8.15368
 522	1	7	0.05623	5.84914	16.6343	6.75035
 523	1	7	0.125955	6.59907	13.2972	7.78122
 524	1	8	0.456798	7.48616	13.5238	9.98823
 525	1	9	0.198085	2.49506	11.1629	3.23919
 526	1	7	0.095469	3.73516	9.36765	5.405
 527	1	1	-0.308877	3.33349	10.601	3.67207
 528	1	8	0.426958	2.51906	9.87326	7.52502
 529	1	6	-0.128067	3.63994	9.45269	2.86565
 530	1	1	0.005701	2.98742	10.1125	5.1001
 531	1	7	0.239394	5.2893	13.2204	4.42064
 532	1	5	-0.48496	1.63865	8.48384	7.03324
 533	1	1	-0.003409	4.10351	12.2635	5.97321
 534	1	2	0.352525	1.14874	8.6915	5.9368
 535	1	6	-0.665659	3.10241	10.6756	7.46454
 536	1	1	-0.510331	4.33647	12.6775	4.48825
 537	1	1	0.240953	2.94913	11.2482	6.16224
 538	1	4	0.015262	4.47107	11.477	3.69946
 539	1	4	0.176506	1.68852	9.48837	4.96479
 540	1	3	0.090205	-0.802629	7.8788	6.36985
 541	1	1	-0.197476	-0.170458	8.0704	5.49423
 542	1	1	-0.039041	3.24171	13.6271	3.92304
 543	1	7	0.144117	2.26184	13.1404	3.82677
 544	1	3	0.104606	0.0224086	7.12028	4.98131
 545	1	7	0.111943	1.99891	11.7945	6.07858
 546	1	7	0.160853	3.09733	14.4763	4.61141
 547	1	3	0.069306	-0.706759	8.73807	4.80866
 548	1	4	-0.432857	3.72343	14.1454	2.66788
 549	1	3	0.042395	3.94931	15.5297	0.543928
 550	1	2	0.753764	3.19071	13.7363	1.47572
 551	1	1	-0.122098	3.83505	14.4659	0.304651
 552	1	3	0.030493	3.21589	14.366	-0.594719
 553	1	5	-0.562583	2.24511	12.9668	1.3512
 554	1	3	0.048272	4.82729	14.0476	0.107297
 555	1	4	-0.191545	3.76792	13.4388	6.74688
 556	1	9	0.130627	5.44841	14.5443	6.21402
 557	1	3	0.015236	7.16942	16.6585	8.55888
 558	1	7	0.210365	5.00513	11.7841	6.37807
 559	1	1	-0.218842	3.292	25.2876	12.4199
 560	1	2	0.68591	3.47686	24.8368	13.857
 561	1	3	0.086668	3.28181	24.4129	11.7606
 562	1	3	0.071846	4.12127	25.9429	12.1309
 563	1	3	0.062371	2.34619	25.8326	12.3182
 564	1	4	-0.291145	4.66493	24.1891	14.0309
 565	1	1	-0.015993	5.00437	23.7307	15.3529
 566	1	5	-0.555985	2.65859	25.0424	14.7368
 567	1	2	0.652223	7.12696	19.102	17.7838
 568	1	3	0.062504	6.20034	17.9054	19.3203
 569	1	5	-0.583019	8.21926	19.1469	18.3203
 570	1	1	-0.168764	5.92675	18.3812	18.3719
 571	1	3	0.062846	5.1137	19.0954	18.5456
 572	1	4	-0.264747	6.81588	19.7173	16.6091
 573	1	3	0.073216	5.57577	17.6158	17.6709
 574	1	1	-0.015836	7.23255	20.8234	14.4916
 575	1	1	0.044531	7.8152	20.4868	15.8889
 576	1	1	0.341309	8.17798	21.7877	16.6526
 577	1	1	0.132892	6.91214	22.6975	16.7181
 578	1	6	-0.74435	9.28276	22.3901	15.9566
 579	1	7	-0.00272	8.49294	21.538	17.6714
 580	1	1	-0.008403	6.35428	22.9829	15.2971
 581	1	4	-0.239698	6.0969	21.7098	14.6488
 582	1	7	0.089672	4.22569	23.0582	15.7381
 583	1	7	0.088396	5.07524	24.5933	16.0287
 584	1	7	0.05623	7.08402	23.568	14.7221
 585	1	7	0.125955	8.72675	19.8902	15.7676
 586	1	8	0.456798	9.7311	23.0116	16.5677
 587	1	9	0.198085	7.45089	16.4046	11.029
 588	1	7	0.095469	7.98357	18.7185	10.0469
 589	1	1	-0.308877	6.74909	17.2475	11.0956
 590	1	8	0.426958	5.35416	19.161	10.3065
 591	1	6	-0.128067	5.79067	17.136	10.0217
 592	1	1	0.005701	7.56914	18.5722	11.053
 593	1	7	0.239394	4.38191	18.2522	11.9894
 594	1	5	-0.48496	9.81332	20.2754	11.3267
 595	1	1	-0.003409	5.94361	19.5787	12.7515
 596	1	2	0.352525	9.68517	19.3024	12.0485
 597	1	6	-0.665659	5.77453	20.0405	10.4031
 598	1	1	-0.510331	5.19403	18.2114	12.7274
 599	1	1	0.240953	6.72394	19.8184	11.439
 600	1	4	0.015262	6.09297	17.1438	12.3758
 601	1	4	0.176506	8.65813	18.4018	11.9875
 602	1	3	0.090205	10.3437	19.3105	14.1019
 603	1	1	-0.197476	10.695	18.9435	13.131
 604	1	1	-0.039041	4.55543	17.876	14.0874
 605	1	7	0.144117	4.12773	16.8623	14.0834
 606	1	3	0.104606	11.6602	19.4115	12.9027
 607	1	7	0.111943	7.36194	20.7067	11.5455
 608	1	7	0.160853	5.30339	17.9262	14.894
 609	1	3	0.069306	10.8309	17.8568	13.1893
 610	1	4	-0.432857	3.52433	18.859	14.2772
 611	1	3	0.042395	2.33272	21.0375	15.3639
 612	1	2	0.753764	2.92429	18.9721	15.4969
 613	1	1	-0.122098	1.85845	20.0567	15.4852
 614	1	3	0.030493	1.28883	20.0403	16.422
 615	1	5	-0.562583	3.20809	18.3048	16.4783
 616	1	3	0.048272	1.17365	19.8912	14.6452
 617	1	4	-0.191545	6.8531	19.5702	13.8767
 618	1	9	0.130627	7.99587	21.3248	13.8802
 619	1	3	0.015236	6.13997	22.0993	17.2185
 620	1	7	0.210365	5.20368	20.3838	12.8707
 621	1	1	-0.218842	15.4179	29.6561	23.493
 622	1	2	0.68591	14.7884	29.9295	22.1392
 623	1	3	0.086668	14.7417	30.0008	24.2833
 624	1	3	0.071846	16.3732	30.1866	23.5752
 625	1	3	0.062371	15.5859	28.5801	23.614
 626	1	4	-0.291145	13.6191	29.244	21.9933
 627	1	1	-0.015993	12.8471	29.4025	20.7851
 628	1	5	-0.555985	15.2461	30.7101	21.3225
 629	1	2	0.652223	6.85526	27.3484	23.1729
 630	1	3	0.062504	4.77782	26.876	23.491
 631	1	5	-0.583019	7.07165	27.7086	24.3151
 632	1	1	-0.168764	5.48388	26.9517	22.6556