pySIMM System Object

808 atoms
833 bonds
1534 angles
2129 dihedrals
52 impropers

9 atom types
10 bond types
23 angle types
20 dihedral types
1 improper types

-134.882205 134.882205 xlo xhi
-134.882205 134.882205 ylo yhi
-134.882205 134.882205 zlo zhi

Masses

   1	12.01	# c3
   2	12.01	# c
   3	1.008	# hc
   4	16.0	# os
   5	16.0	# o
   6	16.0	# oh
   7	1.008	# h1
   8	1.008	# ho
   9	1.008	# h2

Pair Coeffs

   1	0.1094	3.3996695084235347	# c3
   2	0.086	3.3996695084235347	# c
   3	0.0157	2.649532787749369	# hc
   4	0.17	3.0000123434657784	# os
   5	0.21	2.959921901149463	# o
   6	0.2104	3.0664733878390478	# oh
   7	0.0157	2.471353044121301	# h1
   8	0.0047	0.5379246460131368	# ho
   9	0.0157	2.2931733004932333	# h2

Bond Coeffs

   1	331.7	1.0961	# c3,h2
   2	637.7	1.2183	# c,o
   3	300.9	1.5375	# c3,c3
   4	330.6	1.0969	# c3,hc
   5	316.7	1.4233	# c3,oh
   6	330.6	1.0969	# c3,h1
   7	371.4	0.973	# ho,oh
   8	308.6	1.4316	# c3,os
   9	313.0	1.5241	# c,c3
  10	390.8	1.3584	# c,os

Angle Coeffs

   1	46.93	108.77	# c,c3,hc
   2	67.4	123.2	# c3,c,o
   3	68.0	107.97	# c3,c3,os
   4	46.39	109.56	# c3,c3,h1
   5	46.25	110.22	# c3,c3,h2
   6	62.86	111.51	# c3,c3,c3
   7	68.89	110.72	# c3,c,os
   8	72.58	109.38	# oh,c3,os
   9	75.32	123.25	# o,c,os
  10	67.47	110.19	# c3,c3,oh
  11	46.34	109.8	# c3,c3,hc
  12	47.38	107.26	# c3,oh,ho
  13	39.24	108.46	# h1,c3,h1
  14	50.85	109.58	# h2,c3,os
  15	72.74	108.29	# os,c3,os
  16	50.8	109.78	# h1,c3,os
  17	63.28	115.98	# c,os,c3
  18	62.7	112.48	# c3,os,c3
  19	50.93	110.26	# h1,c3,oh
  20	39.4	107.58	# hc,c3,hc
  21	51.13	109.43	# h2,c3,oh
  22	51.11	109.5	# hc,c3,oh
  23	62.7	112.48	# c3,oh,c3

Dihedral Coeffs

   1	3	0.18	3	0	0.25	2	180	0.2	1	180	# c3,c3,c3,c3
   2	1	0.3833333333333333	3	0	# X,c3,os,X
   3	2	0.144	3	0	1.175	2	0	# os,c3,c3,oh
   4	3	0.1	3	0	0.85	2	180	1.35	1	180	# c3,os,c3,os
   5	2	0.144	3	0	1.175	2	0	# os,c3,c3,os
   6	3	2.7	2	180	0.0	1	0	1.15	3	0	# c3,c,os,c3
   7	2	0.0	3	0	0.25	1	0	# hc,c3,c3,oh
   8	1	0.16	3	0	# hc,c3,c3,c3
   9	1	0.15555555555555556	3	0	# X,c3,c3,X
  10	2	0.16	3	0	0.25	1	0	# ho,oh,c3,c3
  11	2	0.383	3	0	0.8	1	180	# c3,c3,os,c
  12	1	0.0	2	180	# X,c,c3,X
  13	2	2.7	2	180	1.4	1	180	# o,c,os,c3
  14	2	0.0	3	0	0.25	1	0	# hc,c3,c3,os
  15	2	0.0	3	0	0.25	1	0	# h1,c3,c3,oh
  16	1	0.16666666666666666	3	0	# X,c3,oh,X
  17	3	0.8	1	0	0.0	2	0	0.08	3	180	# hc,c3,c,o
  18	2	0.0	3	0	0.25	1	0	# h1,c3,c3,os
  19	2	0.383	3	0	0.1	2	180	# c3,c3,os,c3
  20	2	0.144	3	0	1.175	2	0	# oh,c3,c3,oh

Improper Coeffs

   1	10.5	-1	2	# c,X,X,o

Atoms

   1	1	1	-0.218842	-0.963414	23.2379	4.00656
   2	1	2	0.68591	-1.47764	21.8465	3.67841
   3	1	3	0.086668	-1.78287	23.8436	4.40802
   4	1	3	0.071846	-0.56869	23.7134	3.10148
   5	1	3	0.062371	-0.169544	23.1705	4.7588
   6	1	4	-0.291145	-1.987	21.2377	4.78778
   7	1	1	-0.015993	-2.54057	19.9106	4.6775
   8	1	5	-0.555985	-1.45836	21.3664	2.56067
   9	1	2	0.652223	-4.4348	17.5669	10.6397
  10	1	3	0.062504	-3.2234	16.9086	12.2924
  11	1	5	-0.583019	-5.47611	18.1744	10.4556
  12	1	1	-0.168764	-4.18615	16.6603	11.8313
  13	1	3	0.062846	-4.98528	16.7853	12.5708
  14	1	4	-0.264747	-3.35903	17.605	9.8067
  15	1	3	0.073216	-4.15766	15.6175	11.4969
  16	1	1	-0.015836	-1.92093	18.3358	8.03793
  17	1	1	0.044531	-3.36054	18.4008	8.59696
  18	1	1	0.341309	-4.38566	17.8854	7.54191
  19	1	1	0.132892	-3.98592	18.2755	6.07973
  20	1	6	-0.74435	-5.69338	18.392	7.82299
  21	1	7	-0.00272	-4.41693	16.7915	7.61967
  22	1	1	-0.008403	-3.00328	19.479	6.0842
  23	1	4	-0.239698	-1.81444	19.1845	6.86803
  24	1	7	0.089672	-1.79077	19.2046	4.29554
  25	1	7	0.088396	-3.39308	19.9166	3.98515
  26	1	7	0.05623	-3.53506	20.3259	6.53795
  27	1	7	0.125955	-3.59134	19.4474	8.83201
  28	1	8	0.456798	-5.82306	18.3169	8.81092
  29	1	9	0.198085	1.8887	14.3763	8.20188
  30	1	7	0.095469	0.240597	13.377	9.51298
  31	1	1	-0.308877	1.06508	13.9223	7.61719
  32	1	8	0.426958	-2.03209	14.1733	10.2211
  33	1	6	-0.128067	1.51688	12.7651	6.8891
  34	1	1	0.005701	-0.165349	13.662	8.54021
  35	1	7	0.239394	1.58215	16.4188	7.68695
  36	1	5	-0.48496	-2.40791	12.4866	9.81019
  37	1	1	-0.003409	-0.549383	16.2775	8.2133
  38	1	2	0.352525	-2.01532	12.0675	8.73172
  39	1	6	-0.665659	-1.53623	15.0148	10.0304
  40	1	1	-0.510331	0.620512	16.2024	7.17794
  41	1	1	0.240953	-1.1141	14.9006	8.67352
  42	1	4	0.015262	0.688554	14.8809	6.64096
  43	1	4	0.176506	-0.947736	12.5593	8.01862
  44	1	3	0.090205	-2.77618	11.1378	6.93951
  45	1	1	-0.197476	-2.74844	10.9394	8.01636
  46	1	1	-0.039041	0.490042	17.1645	5.96951
  47	1	7	0.144117	-0.457272	16.9688	5.44924
  48	1	3	0.104606	-3.78637	10.8618	8.37833
  49	1	7	0.111943	-1.97541	14.6892	8.01662
  50	1	7	0.160853	0.496741	18.2105	6.31352
  51	1	3	0.069306	-2.23463	9.98787	8.19816
  52	1	4	-0.432857	1.59292	16.9157	5.07124
  53	1	3	0.042395	3.8041	15.7494	4.19134
  54	1	2	0.753764	2.86989	17.2496	5.41853
  55	1	1	-0.122098	3.85402	16.8349	4.33463
  56	1	3	0.030493	4.87361	17.1191	4.61965
  57	1	5	-0.562583	3.18857	17.8567	6.42737
  58	1	3	0.048272	3.58691	17.328	3.3932
  59	1	4	-0.191545	-1.67236	16.9755	7.63078
  60	1	9	0.130627	-1.19135	18.6585	8.79325
  61	1	3	0.015236	-4.88834	18.5913	5.53798
  62	1	7	0.210365	-0.190625	16.7736	9.12164
  63	1	1	-0.218842	-7.42361	14.8525	-2.74639
  64	1	2	0.68591	-8.28083	13.81	-2.05166
  65	1	3	0.086668	-6.87277	15.4269	-1.99319
  66	1	3	0.071846	-8.05361	15.5286	-3.33478
  67	1	3	0.062371	-6.69968	14.3619	-3.4076
  68	1	4	-0.291145	-7.52193	12.7786	-1.57794
  69	1	1	-0.015993	-8.14195	11.7103	-0.834978
  70	1	5	-0.555985	-9.50123	13.8685	-1.9952
  71	1	2	0.652223	-6.79792	10.0393	4.42327
  72	1	3	0.062504	-7.27029	7.94658	4.22307
  73	1	5	-0.583019	-6.37033	10.758	5.31204
  74	1	1	-0.168764	-6.38176	8.58791	4.2533
  75	1	3	0.062846	-5.82759	8.47098	3.3153
  76	1	4	-0.264747	-7.76609	10.3838	3.52664
  77	1	3	0.073216	-5.74597	8.28139	5.09194
  78	1	1	-0.015836	-7.38073	12.6788	2.68353
  79	1	1	0.044531	-8.30345	11.7297	3.49197
  80	1	1	0.341309	-9.69103	11.659	2.8102
  81	1	1	0.132892	-9.56976	11.3474	1.28177
  82	1	6	-0.74435	-10.3768	12.8914	3.05064
  83	1	7	-0.00272	-10.2593	10.8504	3.28667
  84	1	1	-0.008403	-8.48064	12.2099	0.590673
  85	1	4	-0.239698	-7.26278	12.1553	1.3528
  86	1	7	0.089672	-7.45396	10.8581	-0.764528
  87	1	7	0.088396	-9.04755	11.3728	-1.35588
  88	1	7	0.05623	-8.83776	13.2474	0.545989
  89	1	7	0.125955	-8.44089	12.1169	4.50942
  90	1	8	0.456798	-11.2967	12.7157	2.75614
  91	1	9	0.198085	-5.21079	16.1265	5.63869
  92	1	7	0.095469	-3.29805	14.6399	6.27891
  93	1	1	-0.308877	-4.30084	16.0874	5.02481
  94	1	8	0.426958	-5.34183	12.0193	5.70685
  95	1	6	-0.128067	-3.42238	17.1691	5.35492
  96	1	1	0.005701	-3.56803	14.7422	5.2222
  97	1	7	0.239394	-6.6489	15.7567	3.35341
  98	1	5	-0.48496	-1.51292	12.7968	5.26209
  99	1	1	-0.003409	-5.74813	13.9064	4.06598
 100	1	2	0.352525	-1.42024	13.7794	4.54538
 101	1	6	-0.665659	-4.7757	12.7964	5.98707
 102	1	1	-0.510331	-5.68929	15.2388	3.21725
 103	1	1	0.240953	-4.43841	13.5271	4.80424
 104	1	4	0.015262	-4.65551	16.1479	3.64434
 105	1	4	0.176506	-2.35585	14.7713	4.43289
 106	1	3	0.090205	-0.485424	13.7846	2.60051
 107	1	1	-0.197476	-0.223326	14.0218	3.63711
 108	1	1	-0.039041	-5.45926	15.0763	1.69393
 109	1	7	0.144117	-6.32721	14.6008	1.21472
 110	1	3	0.104606	0.612783	13.3882	3.95696
 111	1	7	0.111943	-3.85517	12.8871	4.12731
 112	1	7	0.160853	-5.331	16.0612	1.21824
 113	1	3	0.069306	0.0903831	15.0707	3.69417
 114	1	4	-0.432857	-4.28353	14.2729	1.48512
 115	1	3	0.042395	-1.85756	13.6306	0.401353
 116	1	2	0.753764	-3.98146	13.9126	0.203406
 117	1	1	-0.122098	-2.74203	13.0336	0.152844
 118	1	3	0.030493	-2.62183	12.6069	-0.850157
 119	1	5	-0.562583	-4.60659	14.2651	-0.784648
 120	1	3	0.048272	-2.83756	12.2196	0.880761
 121	1	4	-0.191545	-6.05907	12.7621	3.23747
 122	1	9	0.130627	-7.82807	13.6806	2.63674
 123	1	3	0.015236	-9.29357	10.2907	1.16727
 124	1	7	0.210365	-6.51488	14.0162	4.84573
 125	1	1	-0.218842	-14.013	5.74719	-2.01284
 126	1	2	0.68591	-14.7955	5.97265	-0.7313
 127	1	3	0.086668	-14.4126	6.39586	-2.79983
 128	1	3	0.071846	-14.1128	4.7023	-2.32755
 129	1	3	0.062371	-12.9542	5.97968	-1.85211
 130	1	4	-0.291145	-16.0981	5.58537	-0.892524
 131	1	1	-0.015993	-17.0765	5.77037	0.153256
 132	1	5	-0.555985	-14.2741	6.33008	0.310405
 133	1	2	0.652223	-18.4758	9.11099	4.79055
 134	1	3	0.062504	-18.3231	9.1849	6.94169
 135	1	5	-0.583019	-19.6777	9.3147	4.73536
 136	1	1	-0.168764	-17.6997	8.91356	6.08217
 137	1	3	0.062846	-17.3924	7.86532	6.17033
 138	1	4	-0.264747	-17.6562	9.02487	3.70559
 139	1	3	0.073216	-16.8029	9.54463	6.07566
 140	1	1	-0.015836	-16.9697	9.26729	1.38741
 141	1	1	0.044531	-18.1736	9.21123	2.36191
 142	1	1	0.341309	-19.1485	8.04024	2.021
 143	1	1	0.132892	-19.0202	7.554	0.548825
 144	1	6	-0.74435	-20.4914	8.44767	2.31021
 145	1	7	-0.00272	-18.8932	7.18882	2.66529
 146	1	1	-0.008403	-17.5313	7.25748	0.14766
 147	1	4	-0.239698	-16.6303	7.91392	1.06119
 148	1	7	0.089672	-16.6626	5.49735	1.13391
 149	1	7	0.088396	-17.9129	5.09393	-0.0454151
 150	1	7	0.05623	-17.3816	7.66516	-0.860978
 151	1	7	0.125955	-18.7155	10.1634	2.29302
 152	1	8	0.456798	-20.4677	8.76859	3.25523
 153	1	9	0.198085	-11.6213	9.70726	0.928743
 154	1	7	0.095469	-12.6819	10.2002	-1.12947
 155	1	1	-0.308877	-11.9356	10.7553	0.82407
 156	1	8	0.426958	-15.0102	10.4845	-1.74803
 157	1	6	-0.128067	-10.7977	11.5857	0.57127
 158	1	1	0.005701	-12.9725	10.8877	-0.324422
 159	1	7	0.239394	-12.8764	9.26957	2.79031
 160	1	5	-0.48496	-14.3038	11.9025	-2.62048
 161	1	1	-0.003409	-14.5308	9.74917	1.44243
 162	1	2	0.352525	-13.5909	12.6285	-1.9454
 163	1	6	-0.665659	-15.0939	9.8959	-0.953431
 164	1	1	-0.510331	-13.4655	10.1606	2.52737
 165	1	1	0.240953	-14.4339	10.572	0.121783
 166	1	4	0.015262	-12.5929	11.1731	2.01586
 167	1	4	0.176506	-12.9246	12.2519	-0.811644
 168	1	3	0.090205	-13.8468	14.3558	-3.21432
 169	1	1	-0.197476	-13.3626	14.0997	-2.26426
 170	1	1	-0.039041	-14.0404	10.7251	3.84509
 171	1	7	0.144117	-14.6063	11.6507	3.65828
 172	1	3	0.104606	-12.2867	14.3019	-2.34593
 173	1	7	0.111943	-14.9393	11.5261	0.328666
 174	1	7	0.160853	-14.7235	10.0021	4.31797
 175	1	3	0.069306	-13.7797	14.7269	-1.46735
 176	1	4	-0.432857	-12.9058	10.9799	4.6952
 177	1	3	0.042395	-11.4276	10.8934	7.0778
 178	1	2	0.753764	-13.103	11.5774	5.90779
 179	1	1	-0.122098	-11.7839	11.8261	6.62626
 180	1	3	0.030493	-11.9167	12.5818	7.40976
 181	1	5	-0.562583	-14.1943	11.8844	6.35574
 182	1	3	0.048272	-11.0315	12.1825	5.91277
 183	1	4	-0.191545	-15.8524	9.94507	2.00834
 184	1	9	0.130627	-17.2415	9.79626	0.464233
 185	1	3	0.015236	-19.3766	8.37549	-0.0871604
 186	1	7	0.210365	-14.3831	8.68878	1.18574
 187	1	1	-0.218842	-26.7909	2.23998	2.92558
 188	1	2	0.68591	-27.288	2.60942	1.53977
 189	1	3	0.086668	-27.5916	2.40798	3.65385
 190	1	3	0.071846	-25.9319	2.8648	3.19617
 191	1	3	0.062371	-26.491	1.1859	2.94876
 192	1	4	-0.291145	-27.2252	3.95895	1.32661
 193	1	1	-0.015993	-27.6433	4.51026	0.0585198
 194	1	5	-0.555985	-27.7014	1.7908	0.732911
 195	1	2	0.652223	-26.1927	7.67414	-4.74172
 196	1	3	0.062504	-24.7501	9.2604	-4.89086
 197	1	5	-0.583019	-26.8724	7.14625	-5.6051
 198	1	1	-0.168764	-25.8291	9.14865	-4.73218
 199	1	3	0.062846	-26.365	9.67367	-5.53104
 200	1	4	-0.264747	-25.6686	7.02257	-3.66592
 201	1	3	0.073216	-26.0883	9.59472	-3.76576
 202	1	1	-0.015836	-24.8594	5.15401	-2.33937
 203	1	1	0.044531	-25.7628	5.5785	-3.5335
 204	1	1	0.341309	-27.243	5.13806	-3.29584
 205	1	1	0.132892	-27.3076	3.84762	-2.42833
 206	1	6	-0.74435	-27.9458	4.95674	-4.52735
 207	1	7	-0.00272	-27.7443	5.9356	-2.73214
 208	1	1	-0.008403	-26.6286	4.11337	-1.04327
 209	1	4	-0.239698	-25.6634	5.18317	-1.14221
 210	1	7	0.089672	-27.6983	5.60492	0.126556
 211	1	7	0.088396	-28.6479	4.1399	-0.183484
 212	1	7	0.05623	-26.0909	3.22133	-0.717485
 213	1	7	0.125955	-25.39	5.08587	-4.44147
 214	1	8	0.456798	-27.7166	5.7438	-5.09853
 215	1	9	0.198085	-19.3533	5.82879	-1.5449
 216	1	7	0.095469	-20.6853	3.99876	-0.349966
 217	1	1	-0.308877	-20.261	6.04779	-0.968461
 218	1	8	0.426958	-21.76	6.03314	1.17898
 219	1	6	-0.128067	-19.8808	6.41535	0.370005
 220	1	1	0.005701	-21.1723	4.79114	-0.933254
 221	1	7	0.239394	-21.9939	7.97011	-0.0646452
 222	1	5	-0.48496	-22.3844	2.37419	-1.79386
 223	1	1	-0.003409	-23.2009	6.3548	-0.92655
 224	1	2	0.352525	-21.9214	3.15608	-2.60591
 225	1	6	-0.665659	-22.422	5.30759	1.09938
 226	1	1	-0.510331	-22.2055	7.54383	-1.05935
 227	1	1	0.240953	-22.5596	5.09637	-0.30363
 228	1	4	0.015262	-20.971	7.10189	-1.65307
 229	1	4	0.176506	-21.3166	4.3458	-2.30152
 230	1	3	0.090205	-22.9521	2.49737	-4.38698
 231	1	1	-0.197476	-21.9744	2.91084	-4.10962
 232	1	1	-0.039041	-22.7865	8.65604	-1.95344
 233	1	7	0.144117	-22.8064	8.33	-3.00473
 234	1	3	0.104606	-21.1962	2.19282	-4.39561
 235	1	7	0.111943	-23.2338	4.24645	-0.45616
 236	1	7	0.160853	-23.8205	8.89231	-1.65865
 237	1	3	0.069306	-21.8182	3.84292	-4.66641
 238	1	4	-0.432857	-21.9507	9.81275	-1.79822
 239	1	3	0.042395	-21.3549	12.8183	-3.055
 240	1	2	0.753764	-22.2374	10.9167	-2.54712
 241	1	1	-0.122098	-21.2485	12.0422	-2.28803
 242	1	3	0.030493	-20.2233	11.6533	-2.31077
 243	1	5	-0.562583	-23.1681	10.997	-3.33376
 244	1	3	0.048272	-21.4397	12.4779	-1.30094
 245	1	4	-0.191545	-23.7169	6.03709	-2.24169
 246	1	9	0.130627	-24.5027	4.12533	-2.49207
 247	1	3	0.015236	-28.3616	3.58422	-2.28739
 248	1	7	0.210365	-24.0279	6.66718	-0.27227
 249	1	1	-0.218842	-26.4848	-6.48435	-2.4644
 250	1	2	0.68591	-25.2957	-6.20114	-1.5616
 251	1	3	0.086668	-26.639	-5.64604	-3.15324
 252	1	3	0.071846	-27.3875	-6.62083	-1.85834
 253	1	3	0.062371	-26.2947	-7.3932	-3.04616
 254	1	4	-0.291145	-24.2843	-5.59431	-2.25204
 255	1	1	-0.015993	-23.0442	-5.21494	-1.60717
 256	1	5	-0.555985	-25.2605	-6.51444	-0.385543
 257	1	2	0.652223	-23.2065	0.656581	1.68781
 258	1	3	0.062504	-23.5716	2.71934	2.20286
 259	1	5	-0.583019	-22.7896	0.244498	2.75667
 260	1	1	-0.168764	-23.3005	2.12377	1.32455
 261	1	3	0.062846	-22.3269	2.45586	0.950037
 262	1	4	-0.264747	-23.6491	-0.139403	0.679177
 263	1	3	0.073216	-24.0525	2.27165	0.540641
 264	1	1	-0.015836	-24.6446	-2.14519	-0.285793
 265	1	1	0.044531	-23.6621	-1.58861	0.790124
 266	1	1	0.341309	-22.1911	-2.10843	0.674478
 267	1	1	0.132892	-22.0042	-3.57917	0.164107
 268	1	6	-0.74435	-21.5853	-1.99001	1.96292
 269	1	7	-0.00272	-21.6753	-1.4438	-0.0310632
 270	1	1	-0.008403	-23.287	-4.10232	-0.553565
 271	1	4	-0.239698	-23.9371	-2.99868	-1.20462
 272	1	7	0.089672	-22.3467	-4.84777	-2.37119
 273	1	7	0.088396	-22.5917	-6.08839	-1.11977
 274	1	7	0.05623	-23.9539	-4.50478	0.219479
 275	1	7	0.125955	-24.0548	-1.88438	1.77155
 276	1	8	0.456798	-21.8726	-1.10898	2.33722
 277	1	9	0.198085	-26.118	1.50213	-1.55039
 278	1	7	0.095469	-27.9825	0.493669	-3.78353
 279	1	1	-0.308877	-26.4447	1.47278	-2.59549
 280	1	8	0.426958	-29.0877	-1.54253	-2.89887
 281	1	6	-0.128067	-26.6567	2.78203	-3.15558
 282	1	1	0.005701	-27.6812	0.543148	-2.72888
 283	1	7	0.239394	-25.4029	-0.844305	-4.33073
 284	1	5	-0.48496	-30.3814	-0.377366	-2.5204
 285	1	1	-0.003409	-25.8778	-1.27251	-2.27721
 286	1	2	0.352525	-30.0023	0.602101	-1.89951
 287	1	6	-0.665659	-28.1471	-1.86245	-2.90659
 288	1	1	-0.510331	-25.0803	-0.46781	-3.35044
 289	1	1	0.240953	-27.3775	-0.888489	-2.19746
 290	1	4	0.015262	-25.3541	0.942875	-3.3581
 291	1	4	0.176506	-28.7352	1.11955	-1.92536
 292	1	3	0.090205	-31.6945	0.715265	-0.567079
 293	1	1	-0.197476	-30.9138	1.37946	-0.957074
 294	1	1	-0.039041	-23.5421	-0.615897	-3.25206
 295	1	7	0.144117	-23.0457	0.340346	-3.46765
 296	1	3	0.104606	-31.3866	2.20702	-1.49825
 297	1	7	0.111943	-27.6553	-0.922582	-1.13365
 298	1	7	0.160853	-23.2262	-0.894395	-2.24003
 299	1	3	0.069306	-30.3429	1.78501	-0.112673
 300	1	4	-0.432857	-23.1392	-1.6182	-4.20058
 301	1	3	0.042395	-22.2932	-2.19323	-7.35436
 302	1	2	0.753764	-22.8445	-1.26305	-5.48597
 303	1	1	-0.122098	-22.4938	-2.48712	-6.31774
 304	1	3	0.030493	-23.3263	-3.20059	-6.29881
 305	1	5	-0.562583	-22.7803	-0.117977	-5.90347
 306	1	3	0.048272	-21.6048	-2.97168	-5.8982
 307	1	4	-0.191545	-25.2979	-1.0459	-0.975246
 308	1	9	0.130627	-25.4209	-2.74476	0.20724
 309	1	3	0.015236	-21.8577	-4.23365	1.03338
 310	1	7	0.210365	-25.8324	-2.34239	-2.52715
 311	1	1	-0.218842	-14.4095	-8.21732	3.32572
 312	1	2	0.68591	-13.5263	-7.02221	3.62848
 313	1	3	0.086668	-14.2182	-9.01825	4.04677
 314	1	3	0.071846	-14.2085	-8.57639	2.31023
 315	1	3	0.062371	-15.4625	-7.91894	3.39177
 316	1	4	-0.291145	-13.7183	-6.04065	2.70982
 317	1	1	-0.015993	-13.0613	-4.76268	2.84455
 318	1	5	-0.555985	-12.647	-7.02941	4.47283
 319	1	2	0.652223	-13.6052	-6.64829	-2.50338
 320	1	3	0.062504	-13.9061	-8.53527	-1.5102
 321	1	5	-0.583019	-12.8269	-6.32979	-3.38458
 322	1	1	-0.168764	-14.2626	-8.01411	-2.40538
 323	1	3	0.062846	-15.3509	-7.89793	-2.34115
 324	1	4	-0.264747	-13.9914	-5.8312	-1.48211
 325	1	3	0.073216	-14.0194	-8.60684	-3.29455
 326	1	1	-0.015836	-14.366	-3.64474	-0.468377
 327	1	1	0.044531	-13.4948	-4.47083	-1.43333
 328	1	1	0.341309	-12.006	-4.43271	-0.987913
 329	1	1	0.132892	-11.7766	-4.61957	0.549136
 330	1	6	-0.74435	-11.4356	-3.20134	-1.43903
 331	1	7	-0.00272	-11.4664	-5.23528	-1.5054
 332	1	1	-0.008403	-12.9706	-4.11887	1.44341
 333	1	4	-0.239698	-14.2679	-4.27158	0.817015
 334	1	7	0.089672	-12.0573	-4.85798	3.2743
 335	1	7	0.088396	-13.643	-4.11458	3.51327
 336	1	7	0.05623	-12.8048	-3.0443	1.59743
 337	1	7	0.125955	-13.5693	-4.01986	-2.43154
 338	1	8	0.456798	-10.8925	-3.42592	-2.21926
 339	1	9	0.198085	-19.6076	-2.29277	0.215653
 340	1	7	0.095469	-19.1923	-5.28708	0.563308
 341	1	1	-0.308877	-19.5244	-3.2922	-0.234345
 342	1	8	0.426958	-15.7912	-5.1229	1.56601
 343	1	6	-0.128067	-20.8315	-3.72319	-0.683234
 344	1	1	0.005701	-18.8591	-4.26846	0.796032
 345	1	7	0.239394	-18.5223	-5.16395	-1.83119
 346	1	5	-0.48496	-18.2438	-1.8886	2.37077
 347	1	1	-0.003409	-16.7675	-4.48497	-0.706844
 348	1	2	0.352525	-18.9198	-2.80336	2.8133
 349	1	6	-0.665659	-16.7678	-5.26774	1.59491
 350	1	1	-0.510331	-17.8765	-4.27601	-1.78557
 351	1	1	0.240953	-17.3034	-4.26156	0.731065
 352	1	4	0.015262	-18.6743	-3.13581	-1.39726
 353	1	4	0.176506	-19.2773	-3.95359	2.14876
 354	1	3	0.090205	-20.266	-2.02094	4.29869
 355	1	1	-0.197476	-19.4706	-2.77271	4.23442
 356	1	1	-0.039041	-17.2833	-4.00473	-3.19177
 357	1	7	0.144117	-17.1849	-2.91986	-3.34445
 358	1	3	0.104606	-18.6689	-2.50239	4.93026
 359	1	7	0.111943	-16.9415	-3.27223	1.03577
 360	1	7	0.160853	-16.275	-4.43865	-3.28496
 361	1	3	0.069306	-19.884	-3.74718	4.51977
 362	1	4	-0.432857	-18.1482	-4.57092	-4.19553
 363	1	3	0.042395	-18.8908	-5.50942	-6.44342
 364	1	2	0.753764	-18.077	-5.905	-4.48436
 365	1	1	-0.122098	-18.9774	-6.26924	-5.65684
 366	1	3	0.030493	-20.0224	-6.31816	-5.32946
 367	1	5	-0.562583	-17.3153	-6.69691	-3.94539
 368	1	3	0.048272	-18.6803	-7.23986	-6.07077
 369	1	4	-0.191545	-15.7188	-3.51699	-0.980033
 370	1	9	0.130627	-13.9444	-2.6312	-0.408816
 371	1	3	0.015236	-10.9476	-3.95017	0.807376
 372	1	7	0.210365	-16.3763	-5.50785	-0.791876
 373	1	1	-0.218842	-3.35342	-2.07354	6.91853
 374	1	2	0.68591	-3.00359	-2.08313	5.44198
 375	1	3	0.086668	-4.13028	-2.81756	7.12777
 376	1	3	0.071846	-3.71352	-1.08014	7.20668
 377	1	3	0.062371	-2.45845	-2.32184	7.50009
 378	1	4	-0.291145	-3.3357	-3.26669	4.85508
 379	1	1	-0.015993	-2.94449	-3.49289	3.48725
 380	1	5	-0.555985	-2.45619	-1.15147	4.87782
 381	1	2	0.652223	-4.43517	-9.9169	2.16213
 382	1	3	0.062504	-4.88735	-12.0218	2.15014
 383	1	5	-0.583019	-3.23146	-10.055	2.01568
 384	1	1	-0.168764	-5.4197	-11.0679	2.0659
 385	1	3	0.062846	-6.16508	-10.9943	2.86491
 386	1	4	-0.264747	-5.03153	-8.72801	2.4787
 387	1	3	0.073216	-5.92865	-11.0287	1.09659
 388	1	1	-0.015836	-5.0956	-6.25596	2.22914
 389	1	1	0.044531	-4.22148	-7.52361	2.52605
 390	1	1	0.341309	-3.39961	-7.39489	3.85396
 391	1	1	0.132892	-2.52899	-6.10038	3.80116
 392	1	6	-0.74435	-2.53369	-8.52618	4.05767
 393	1	7	-0.00272	-4.10516	-7.31798	4.69137
 394	1	1	-0.008403	-3.26385	-4.94326	3.04882
 395	1	4	-0.239698	-4.68626	-5.16831	3.08471
 396	1	7	0.089672	-1.86478	-3.32124	3.37846
 397	1	7	0.088396	-3.46528	-2.78805	2.82594
 398	1	7	0.05623	-2.94702	-5.00059	1.99859
 399	1	7	0.125955	-3.49047	-7.56774	1.70669
 400	1	8	0.456798	-2.68061	-9.14915	3.29152
 401	1	9	0.198085	-10.4849	-5.98427	2.70275
 402	1	7	0.095469	-10.034	-8.09721	0.601994
 403	1	1	-0.308877	-10.19	-6.21472	1.67212
 404	1	8	0.426958	-8.70064	-9.88844	1.36883
 405	1	6	-0.128067	-11.3328	-5.97907	0.805457
 406	1	1	0.005701	-9.77557	-7.71757	1.59994
 407	1	7	0.239394	-8.49454	-6.23953	-0.368688
 408	1	5	-0.48496	-10.2659	-10.4928	1.71858
 409	1	1	-0.003409	-7.28179	-6.9648	1.30129
 410	1	2	0.352525	-10.6965	-9.75647	2.59139
 411	1	6	-0.665659	-7.9141	-9.28434	1.29995
 412	1	1	-0.510331	-8.03164	-5.82592	0.538712
 413	1	1	0.240953	-8.26589	-8.02006	1.8703
 414	1	4	0.015262	-9.07591	-5.33708	1.39064
 415	1	4	0.176506	-10.5555	-8.39481	2.61198
 416	1	3	0.090205	-10.7975	-11.0433	4.30995
 417	1	1	-0.197476	-11.4255	-10.2936	3.81437
 418	1	1	-0.039041	-7.17266	-4.60761	0.118052
 419	1	7	0.144117	-7.77451	-3.69543	0.244559
 420	1	3	0.104606	-12.3654	-10.7647	3.50544
 421	1	7	0.111943	-8.11541	-8.05121	2.95956
 422	1	7	0.160853	-6.28384	-4.47445	0.748628
 423	1	3	0.069306	-11.6422	-9.49311	4.532
 424	1	4	-0.432857	-6.83146	-4.71738	-1.2808
 425	1	3	0.042395	-6.51921	-5.63651	-3.77035
 426	1	2	0.753764	-5.82714	-5.53118	-1.73095
 427	1	1	-0.122098	-5.61115	-5.35374	-3.22637
 428	1	3	0.030493	-4.77501	-5.97614	-3.5678
 429	1	5	-0.562583	-5.13019	-6.25115	-1.03609
 430	1	3	0.048272	-5.3838	-4.30286	-3.4409
 431	1	4	-0.191545	-6.51729	-6.45155	2.42834
 432	1	9	0.130627	-4.91932	-5.95029	1.19563
 433	1	3	0.015236	-1.68231	-6.33798	3.15224
 434	1	7	0.210365	-6.60352	-7.48754	0.609333
 435	1	1	-0.218842	5.10302	-3.22735	4.62152
 436	1	2	0.68591	5.95313	-4.23929	5.36888
 437	1	3	0.086668	5.20111	-3.38964	3.54267
 438	1	3	0.071846	5.42163	-2.20851	4.86811
 439	1	3	0.062371	4.05067	-3.35607	4.90018
 440	1	4	-0.291145	5.6282	-5.51269	5.01219
 441	1	1	-0.015993	6.28429	-6.62642	5.65172
 442	1	5	-0.555985	6.79341	-3.94368	6.20144
 443	1	2	0.652223	4.2043	-6.68454	9.45234
 444	1	3	0.062504	4.92361	-4.72088	8.91661
 445	1	5	-0.583019	3.325	-7.13563	10.1603
 446	1	1	-0.168764	4.9837	-5.4163	9.76197
 447	1	3	0.062846	4.58639	-4.93581	10.6628
 448	1	4	-0.264747	4.64969	-7.23287	8.29101
 449	1	3	0.073216	6.03714	-5.67104	9.92626
 450	1	1	-0.015836	3.35033	-8.39329	6.5431
 451	1	1	0.044531	4.20806	-8.5287	7.82048
 452	1	1	0.341309	5.49639	-9.32452	7.50698
 453	1	1	0.132892	5.98338	-9.1993	6.02924
 454	1	6	-0.74435	5.31857	-10.6974	7.85893
 455	1	7	-0.00272	6.28447	-8.92514	8.15896
 456	1	1	-0.008403	5.4885	-7.90815	5.29839
 457	1	4	-0.239698	4.08766	-7.61935	5.57365
 458	1	7	0.089672	6.31732	-6.47955	6.73687
 459	1	7	0.088396	7.31771	-6.70649	5.29248
 460	1	7	0.05623	5.5951	-8.07209	4.21845
 461	1	7	0.125955	3.64156	-9.0641	8.59598
 462	1	8	0.456798	6.20943	-11.0967	7.85098
 463	1	9	0.198085	-1.24767	-7.3438	6.02907
 464	1	7	0.095469	0.15492	-5.91385	3.8559
 465	1	1	-0.308877	-0.925564	-6.33782	5.73537
 466	1	8	0.426958	0.680119	-4.3315	5.89214
 467	1	6	-0.128067	-2.051	-5.68626	5.10887
 468	1	1	0.005701	0.315451	-6.45266	4.79465
 469	1	7	0.239394	0.875278	-5.12912	8.25935
 470	1	5	-0.48496	1.75267	-7.60819	2.65405
 471	1	1	-0.003409	1.82575	-6.39786	6.83118
 472	1	2	0.352525	1.1873	-8.31223	3.47512
 473	1	6	-0.665659	1.53223	-4.47285	5.4258
 474	1	1	-0.510331	0.5778	-6.03772	7.71915
 475	1	1	0.240953	1.62748	-5.89488	5.38488
 476	1	4	0.015262	-0.590067	-5.63165	6.95003
 477	1	4	0.176506	0.454106	-7.86184	4.53124
 478	1	3	0.090205	1.51953	-10.1621	2.41744
 479	1	1	-0.197476	1.17422	-9.83199	3.40389
 480	1	1	-0.039041	0.218831	-7.04587	8.85649
 481	1	7	0.144117	1.04666	-7.74158	9.06711
 482	1	3	0.104606	0.155907	-10.2062	3.57002
 483	1	7	0.111943	2.46828	-6.17493	4.7403
 484	1	7	0.160853	0.0655723	-6.48306	9.78826
 485	1	3	0.069306	1.83089	-10.245	4.17837
 486	1	4	-0.432857	-1.00015	-7.75916	8.56521
 487	1	3	0.042395	-2.40028	-10.6345	7.82681
 488	1	2	0.753764	-0.99448	-9.00695	8.00835
 489	1	1	-0.122098	-2.41397	-9.54035	7.88352
 490	1	3	0.030493	-2.88913	-9.13261	6.98391
 491	1	5	-0.562583	-0.00609428	-9.67188	7.74547
 492	1	3	0.048272	-3.00141	-9.2396	8.7593
 493	1	4	-0.191545	2.04909	-7.82748	6.8502
 494	1	9	0.130627	3.18083	-9.40362	6.14781
 495	1	3	0.015236	5.57784	-10.0547	5.47309
 496	1	7	0.210365	2.71842	-5.89835	7.22523
 497	1	1	-0.218842	9.17122	-5.35889	-5.11616
 498	1	2	0.68591	8.47613	-5.9623	-3.90491
 499	1	3	0.086668	9.34235	-6.13613	-5.8673
 500	1	3	0.071846	10.134	-4.93034	-4.81627
 501	1	3	0.062371	8.54643	-4.56626	-5.54455
 502	1	4	-0.291145	9.30583	-6.81303	-3.22639
 503	1	1	-0.015993	8.83992	-7.37156	-1.97766
 504	1	5	-0.555985	7.30316	-5.78282	-3.64241
 505	1	2	0.652223	13.7554	-9.93638	1.9331
 506	1	3	0.062504	14.1086	-11.0704	3.72588
 507	1	5	-0.583019	14.4997	-10.0542	0.973315
 508	1	1	-0.168764	14.2342	-10.0414	3.37037
 509	1	3	0.062846	15.2952	-9.76954	3.42821
 510	1	4	-0.264747	12.4308	-9.61651	1.83389
 511	1	3	0.073216	13.6573	-9.36789	4.01399
 512	1	1	-0.015836	10.2303	-9.55618	0.710037
 513	1	1	0.044531	11.7864	-9.40344	0.543674
 514	1	1	0.341309	12.2216	-8.02317	-0.0549657
 515	1	1	0.132892	11.366	-7.5569	-1.27963
 516	1	6	-0.74435	13.5921	-8.07167	-0.476446
 517	1	7	-0.00272	12.1129	-7.2789	0.744108
 518	1	1	-0.008403	9.95525	-8.21849	-1.31037
 519	1	4	-0.239698	9.54605	-8.47668	0.0442175
 520	1	7	0.089672	7.95203	-7.99351	-2.1494
 521	1	7	0.088396	8.5554	-6.55603	-1.29815
 522	1	7	0.05623	10.0261	-9.16913	-1.85559
 523	1	7	0.125955	12.113	-10.183	-0.158553
 524	1	8	0.456798	14.0717	-8.74109	0.089307
 525	1	9	0.198085	8.22376	-8.79803	4.20041
 526	1	7	0.095469	9.52175	-10.9589	5.99807
 527	1	1	-0.308877	8.19834	-9.62925	4.91897
 528	1	8	0.426958	10.8285	-12.2631	4.68138
 529	1	6	-0.128067	7.4227	-9.2855	6.07772
 530	1	1	0.005701	9.61641	-10.059	5.37505
 531	1	7	0.239394	8.41125	-12.3376	3.20118
 532	1	5	-0.48496	9.59957	-9.81248	8.18493
 533	1	1	-0.003409	9.77585	-10.7031	2.86249
 534	1	2	0.352525	10.1673	-8.98376	7.49607
 535	1	6	-0.665659	11.398	-11.4857	4.51207
 536	1	1	-0.510331	8.31723	-11.2506	3.0787
 537	1	1	0.240953	10.5367	-10.3972	4.17983
 538	1	4	0.015262	7.66091	-10.7898	4.279
 539	1	4	0.176506	10.2588	-9.00825	6.12783
 540	1	3	0.090205	11.8263	-7.58554	7.50703
 541	1	1	-0.197476	10.929	-7.80824	8.09648
 542	1	1	-0.039041	7.33026	-11.0	1.90854
 543	1	7	0.144117	6.61016	-10.2162	2.19105
 544	1	3	0.104606	11.2331	-8.05706	9.12095
 545	1	7	0.111943	11.1592	-9.51345	3.9874
 546	1	7	0.160853	7.83426	-10.6575	0.995368
 547	1	3	0.069306	10.2863	-6.92026	8.11961
 548	1	4	-0.432857	6.6247	-12.2314	1.65187
 549	1	3	0.042395	5.89367	-14.7368	1.90409
 550	1	2	0.753764	7.27079	-13.2947	1.07877
 551	1	1	-0.122098	6.33971	-14.492	0.933321
 552	1	3	0.030493	6.89536	-15.3632	0.565321
 553	1	5	-0.562583	8.45063	-13.3086	0.774483
 554	1	3	0.048272	5.53656	-14.2512	0.227906
 555	1	4	-0.191545	9.78177	-9.47676	2.08905
 556	1	9	0.130627	9.9047	-10.5116	0.27415
 557	1	3	0.015236	11.8422	-7.91683	-2.19729
 558	1	7	0.210365	10.3579	-11.4634	2.31796
 559	1	1	-0.218842	18.2401	2.72323	-3.79823
 560	1	2	0.68591	18.5486	1.82658	-2.6131
 561	1	3	0.086668	18.2555	3.77379	-3.49018
 562	1	3	0.071846	17.2572	2.47404	-4.21197
 563	1	3	0.062371	18.9997	2.55991	-4.57189
 564	1	4	-0.291145	18.2421	0.531065	-2.91487
 565	1	1	-0.015993	18.6772	-0.555791	-2.07229
 566	1	5	-0.555985	19.1226	2.21911	-1.61169
 567	1	2	0.652223	14.3727	-3.94533	1.41026
 568	1	3	0.062504	12.2333	-3.73424	1.52808
 569	1	5	-0.583019	15.0912	-4.81966	0.954998
 570	1	1	-0.168764	13.039	-4.23756	2.07611
 571	1	3	0.062846	12.8504	-5.31741	2.07477
 572	1	4	-0.264747	14.6404	-2.60177	1.38637
 573	1	3	0.073216	13.0534	-3.86895	3.10663
 574	1	1	-0.015836	15.7705	-2.54758	-0.819471
 575	1	1	0.044531	15.8069	-2.09346	0.674982
 576	1	1	0.341309	15.8223	-0.543563	0.733172
 577	1	1	0.132892	17.0708	0.0395408	-0.0216769
 578	1	6	-0.74435	15.6869	-0.0964421	2.08872
 579	1	7	-0.00272	14.935	-0.199913	0.184494
 580	1	1	-0.008403	17.6206	-1.01199	-1.03748
 581	1	4	-0.239698	16.4849	-1.62605	-1.68249
 582	1	7	0.089672	19.6087	-0.292842	-1.55168
 583	1	7	0.088396	18.9035	-1.42167	-2.70946
 584	1	7	0.05623	18.1207	-1.80772	-0.476945
 585	1	7	0.125955	16.7216	-2.47688	1.14494
 586	1	8	0.456798	14.8339	-0.457431	2.39119
 587	1	9	0.198085	13.1277	-5.47942	-0.648898
 588	1	7	0.095469	12.5182	-5.25659	-3.65872
 589	1	1	-0.308877	12.4364	-5.26508	-1.47507
 590	1	8	0.426958	14.7648	-5.07873	-4.68926
 591	1	6	-0.128067	11.273	-6.11118	-1.3494
 592	1	1	0.005701	13.2165	-5.39538	-2.82333
 593	1	7	0.239394	11.848	-3.11627	-3.21824
 594	1	5	-0.48496	14.2405	-6.67034	-5.13377
 595	1	1	-0.003409	13.8758	-2.92868	-2.45247
 596	1	2	0.352525	14.2416	-7.24154	-4.05662
 597	1	6	-0.665659	14.8887	-4.21717	-4.21348
 598	1	1	-0.510331	12.3351	-2.89128	-2.26085
 599	1	1	0.240953	14.3581	-4.3394	-2.89202
 600	1	4	0.015262	11.9543	-3.90967	-1.30475
 601	1	4	0.176506	13.8143	-6.70286	-2.87658
 602	1	3	0.090205	13.8602	-9.34959	-3.88309
 603	1	1	-0.197476	14.7237	-8.67408	-3.88214
 604	1	1	-0.039041	11.7996	-1.53701	-1.72883
 605	1	7	0.144117	11.1776	-1.69862	-0.835693
 606	1	3	0.104606	15.2544	-8.78456	-2.92894
 607	1	7	0.111943	15.1468	-4.67527	-2.20747
 608	1	7	0.160853	12.6301	-0.881207	-1.4291
 609	1	3	0.069306	15.3974	-8.94408	-4.70474
 610	1	4	-0.432857	11.0256	-0.879561	-2.75079
 611	1	3	0.042395	8.20079	-0.144827	-3.84458
 612	1	2	0.753764	9.83797	-1.38723	-3.208
 613	1	1	-0.122098	9.18991	-0.44297	-4.21095
 614	1	3	0.030493	9.08441	-0.94562	-5.17889
 615	1	5	-0.562583	9.34407	-2.44998	-2.87977
 616	1	3	0.048272	9.80273	0.457051	-4.34236
 617	1	4	-0.191545	14.3764	-2.559	-1.16086
 618	1	9	0.130627	16.204	-3.5499	-0.905844
 619	1	3	0.015236	16.7031	0.894825	-0.60221
 620	1	7	0.210365	14.2071	-2.19318	-3.20218
 621	1	1	-0.218842	23.7854	-5.8087	6.29326
 622	1	2	0.68591	24.4015	-5.7411	4.90634
 623	1	3	0.086668	22.8155	-6.3146	6.23443
 624	1	3	0.071846	23.6374	-4.79816	6.69203
 625	1	3	0.062371	24.4475	-6.36537	6.96429