pySIMM System Object

2730 atoms
2817 bonds
5192 angles
7213 dihedrals
176 impropers

9 atom types
10 bond types
23 angle types
20 dihedral types
1 improper types

-206.403502 206.403502 xlo xhi
-206.403502 206.403502 ylo yhi
-206.403502 206.403502 zlo zhi

Masses

   1	12.01	# c3
   2	12.01	# c
   3	1.008	# hc
   4	16.0	# os
   5	16.0	# o
   6	16.0	# oh
   7	1.008	# h1
   8	1.008	# ho
   9	1.008	# h2

Pair Coeffs

   1	0.1094	3.3996695084235347	# c3
   2	0.086	3.3996695084235347	# c
   3	0.0157	2.649532787749369	# hc
   4	0.17	3.0000123434657784	# os
   5	0.21	2.959921901149463	# o
   6	0.2104	3.0664733878390478	# oh
   7	0.0157	2.471353044121301	# h1
   8	0.0047	0.5379246460131368	# ho
   9	0.0157	2.2931733004932333	# h2

Bond Coeffs

   1	331.7	1.0961	# c3,h2
   2	637.7	1.2183	# c,o
   3	300.9	1.5375	# c3,c3
   4	330.6	1.0969	# c3,hc
   5	316.7	1.4233	# c3,oh
   6	330.6	1.0969	# c3,h1
   7	371.4	0.973	# ho,oh
   8	308.6	1.4316	# c3,os
   9	313.0	1.5241	# c,c3
  10	390.8	1.3584	# c,os

Angle Coeffs

   1	46.93	108.77	# c,c3,hc
   2	67.4	123.2	# c3,c,o
   3	68.0	107.97	# c3,c3,os
   4	46.39	109.56	# c3,c3,h1
   5	46.25	110.22	# c3,c3,h2
   6	62.86	111.51	# c3,c3,c3
   7	68.89	110.72	# c3,c,os
   8	72.58	109.38	# oh,c3,os
   9	75.32	123.25	# o,c,os
  10	67.47	110.19	# c3,c3,oh
  11	46.34	109.8	# c3,c3,hc
  12	47.38	107.26	# c3,oh,ho
  13	39.24	108.46	# h1,c3,h1
  14	50.85	109.58	# h2,c3,os
  15	72.74	108.29	# os,c3,os
  16	50.8	109.78	# h1,c3,os
  17	63.28	115.98	# c,os,c3
  18	62.7	112.48	# c3,os,c3
  19	50.93	110.26	# h1,c3,oh
  20	39.4	107.58	# hc,c3,hc
  21	51.13	109.43	# h2,c3,oh
  22	51.11	109.5	# hc,c3,oh
  23	62.7	112.48	# c3,oh,c3

Dihedral Coeffs

   1	3	0.18	3	0	0.25	2	180	0.2	1	180	# c3,c3,c3,c3
   2	1	0.3833333333333333	3	0	# X,c3,os,X
   3	2	0.144	3	0	1.175	2	0	# os,c3,c3,oh
   4	3	0.1	3	0	0.85	2	180	1.35	1	180	# c3,os,c3,os
   5	2	0.144	3	0	1.175	2	0	# os,c3,c3,os
   6	3	2.7	2	180	0.0	1	0	1.15	3	0	# c3,c,os,c3
   7	2	0.0	3	0	0.25	1	0	# hc,c3,c3,oh
   8	1	0.16	3	0	# hc,c3,c3,c3
   9	1	0.15555555555555556	3	0	# X,c3,c3,X
  10	2	0.16	3	0	0.25	1	0	# ho,oh,c3,c3
  11	2	0.383	3	0	0.8	1	180	# c3,c3,os,c
  12	1	0.0	2	180	# X,c,c3,X
  13	2	2.7	2	180	1.4	1	180	# o,c,os,c3
  14	2	0.0	3	0	0.25	1	0	# hc,c3,c3,os
  15	2	0.0	3	0	0.25	1	0	# h1,c3,c3,oh
  16	1	0.16666666666666666	3	0	# X,c3,oh,X
  17	3	0.8	1	0	0.0	2	0	0.08	3	180	# hc,c3,c,o
  18	2	0.0	3	0	0.25	1	0	# h1,c3,c3,os
  19	2	0.383	3	0	0.1	2	180	# c3,c3,os,c3
  20	2	0.144	3	0	1.175	2	0	# oh,c3,c3,oh

Improper Coeffs

   1	10.5	-1	2	# c,X,X,o

Atoms

   1	1	1	-0.218842	12.2411	13.0239	0.993717
   2	1	2	0.68591	11.6445	14.4026	1.20923
   3	1	3	0.086668	12.654	12.9556	-0.0178341
   4	1	3	0.071846	11.4691	12.2586	1.12977
   5	1	3	0.062371	13.0449	12.8569	1.72041
   6	1	4	-0.291145	12.5933	15.3754	1.08156
   7	1	1	-0.015993	12.2326	16.753	1.31526
   8	1	5	-0.555985	10.4659	14.5951	1.45671
   9	1	2	0.652223	17.1114	20.3215	4.28043
  10	1	3	0.062504	18.4404	19.7739	5.88055
  11	1	5	-0.583019	17.2346	20.988	3.26617
  12	1	1	-0.168764	17.8189	20.6284	5.58871
  13	1	3	0.062846	18.4499	21.5174	5.47718
  14	1	4	-0.264747	16.329	19.2131	4.39453
  15	1	3	0.073216	17.0741	20.8046	6.37338
  16	1	1	-0.015836	14.8874	17.4061	3.85296
  17	1	1	0.044531	15.5424	18.6864	3.29697
  18	1	1	0.341309	14.4698	19.6934	2.79841
  19	1	1	0.132892	13.2075	18.9964	2.17957
  20	1	6	-0.74435	15.0363	20.5964	1.84359
  21	1	7	-0.00272	14.1671	20.2837	3.67107
  22	1	1	-0.008403	13.5028	17.5266	1.75093
  23	1	4	-0.239698	14.1454	16.7548	2.80351
  24	1	7	0.089672	11.4759	16.8139	2.1083
  25	1	7	0.088396	11.8027	17.1964	0.407534
  26	1	7	0.05623	14.1878	17.5682	0.89418
  27	1	7	0.125955	16.1923	18.4154	2.45462
  28	1	8	0.456798	15.8927	20.9166	2.24855
  29	1	9	0.198085	13.1081	15.1559	8.46664
  30	1	7	0.095469	14.4524	16.9094	9.23667
  31	1	1	-0.308877	12.5851	16.1203	8.48954
  32	1	8	0.426958	15.4827	18.932	8.18979
  33	1	6	-0.128067	11.6184	16.0847	9.53703
  34	1	1	0.005701	13.5975	17.289	8.66169
  35	1	7	0.239394	13.0473	14.9406	6.14084
  36	1	5	-0.48496	14.8449	19.6319	9.68014
  37	1	1	-0.003409	13.9873	16.9119	6.09735
  38	1	2	0.352525	13.6501	19.4414	9.84774
  39	1	6	-0.665659	15.4649	18.2765	7.4425
  40	1	1	-0.510331	12.717	15.988	6.10778
  41	1	1	0.240953	14.0976	17.8752	7.30855
  42	1	4	0.015262	11.9005	16.2862	7.24548
  43	1	4	0.176506	12.947	18.3526	9.4041
  44	1	3	0.090205	12.0542	20.8878	9.93578
  45	1	1	-0.197476	12.7702	20.4172	10.6184
  46	1	1	-0.039041	11.7823	16.152	4.89368
  47	1	7	0.144117	11.4254	17.1858	4.84085
  48	1	3	0.104606	13.3967	21.196	11.0664
  49	1	7	0.111943	13.4752	18.7482	7.07682
  50	1	7	0.160853	12.3105	15.9313	3.96307
  51	1	3	0.069306	12.2206	19.8979	11.4127
  52	1	4	-0.432857	10.6717	15.2477	5.0318
  53	1	3	0.042395	9.15848	13.3187	5.95824
  54	1	2	0.753764	10.8368	13.922	4.74504
  55	1	1	-0.122098	9.5392	13.1558	4.94314
  56	1	3	0.030493	9.70652	12.0839	4.78807
  57	1	5	-0.562583	11.8759	13.4051	4.36358
  58	1	3	0.048272	8.79367	13.513	4.22391
  59	1	4	-0.191545	13.9858	17.7647	4.92926
  60	1	9	0.130627	15.6678	16.7293	4.22101
  61	1	3	0.015236	12.9336	19.5385	1.26344
  62	1	7	0.210365	14.8971	16.2985	6.12325
  63	1	1	-0.218842	4.75537	25.8649	0.324786
  64	1	2	0.68591	5.83823	26.7012	0.981693
  65	1	3	0.086668	5.0126	24.8035	0.40186
  66	1	3	0.071846	4.65608	26.1435	-0.730186
  67	1	3	0.062371	3.80062	26.0388	0.834924
  68	1	4	-0.291145	5.99908	26.3573	2.29491
  69	1	1	-0.015993	6.94573	27.0743	3.11052
  70	1	5	-0.555985	6.46932	27.5635	0.390151
  71	1	2	0.652223	11.71	26.1176	6.25471
  72	1	3	0.062504	12.1877	27.6864	7.64222
  73	1	5	-0.583019	12.4042	25.1219	6.15102
  74	1	1	-0.168764	11.5043	26.8337	7.57545
  75	1	3	0.062846	10.4726	27.1867	7.66361
  76	1	4	-0.264747	11.077	26.745	5.21623
  77	1	3	0.073216	11.7139	26.1484	8.40489
  78	1	1	-0.015836	10.0026	25.0481	3.77639
  79	1	1	0.044531	11.106	26.1305	3.89942
  80	1	1	0.341309	10.8922	27.2149	2.81537
  81	1	1	0.132892	9.41304	27.707	2.75612
  82	1	6	-0.74435	11.3168	26.6784	1.56006
  83	1	7	-0.00272	11.5342	28.0716	3.05715
  84	1	1	-0.008403	8.3797	26.553	2.85755
  85	1	4	-0.239698	8.7261	25.6789	3.95222
  86	1	7	0.089672	6.69207	26.9418	4.16991
  87	1	7	0.088396	6.88158	28.1477	2.88757
  88	1	7	0.05623	8.40065	25.9852	1.91729
  89	1	7	0.125955	12.0881	25.6759	3.71356
  90	1	8	0.456798	11.2504	27.4326	0.933199
  91	1	9	0.198085	12.3213	21.1182	3.00583
  92	1	7	0.095469	12.6056	20.1728	5.37834
  93	1	1	-0.308877	11.639	20.3758	3.44105
  94	1	8	0.426958	12.4685	23.4671	6.05407
  95	1	6	-0.128067	12.0528	19.0657	3.0426
  96	1	1	0.005701	11.6321	20.4901	4.98366
  97	1	7	0.239394	9.90836	22.5584	2.29051
  98	1	5	-0.48496	11.1293	19.7931	7.7028
  99	1	1	-0.003409	10.8433	22.8203	4.24112
 100	1	2	0.352525	10.4755	19.302	6.79755
 101	1	6	-0.665659	12.5845	22.484	5.91046
 102	1	1	-0.510331	9.88201	22.0466	3.26209
 103	1	1	0.240953	11.3497	21.9517	5.42832
 104	1	4	0.015262	10.3053	20.6839	3.01266
 105	1	4	0.176506	10.6135	19.5878	5.46932
 106	1	3	0.090205	9.16619	18.1932	8.11142
 107	1	1	-0.197476	9.3601	18.2917	7.03689
 108	1	1	-0.039041	8.40064	22.0102	3.7249
 109	1	7	0.144117	7.97643	23.0249	3.64944
 110	1	3	0.104606	9.64837	17.3119	6.64056
 111	1	7	0.111943	10.5946	21.9612	6.2252
 112	1	7	0.160853	7.79789	21.3575	3.07505
 113	1	3	0.069306	8.4444	18.6071	6.5257
 114	1	4	-0.432857	8.34136	21.5543	5.09343
 115	1	3	0.042395	6.99102	20.3117	7.30447
 116	1	2	0.753764	7.24598	21.876	5.84724
 117	1	1	-0.122098	7.36321	21.3412	7.26752
 118	1	3	0.030493	6.77043	21.9585	7.9527
 119	1	5	-0.562583	6.31601	22.5654	5.46565
 120	1	3	0.048272	8.40982	21.3551	7.5932
 121	1	4	-0.191545	10.1668	23.9946	4.7464
 122	1	9	0.130627	10.0361	24.6238	2.76446
 123	1	3	0.015236	9.25258	28.3771	3.60264
 124	1	7	0.210365	11.7457	23.1291	3.69361
 125	1	1	-0.218842	15.3825	30.7453	3.45353
 126	1	2	0.68591	15.1573	32.2299	3.66746
 127	1	3	0.086668	14.5323	30.3312	2.9035
 128	1	3	0.071846	15.4724	30.2365	4.41975
 129	1	3	0.062371	16.297	30.582	2.87155
 130	1	4	-0.291145	15.4709	32.9492	2.55388
 131	1	1	-0.015993	15.2616	34.3801	2.48704
 132	1	5	-0.555985	14.7918	32.6968	4.73342
 133	1	2	0.652223	14.2988	35.0166	-2.47432
 134	1	3	0.062504	15.6195	34.6255	-4.13262
 135	1	5	-0.583019	14.1948	36.2141	-2.69208
 136	1	1	-0.168764	15.1187	34.0687	-3.33207
 137	1	3	0.062846	15.8717	33.5665	-2.7137
 138	1	4	-0.264747	13.7297	34.3709	-1.41532
 139	1	3	0.073216	14.4617	33.3108	-3.7733
 140	1	1	-0.015836	12.2125	34.1341	0.496482
 141	1	1	0.044531	12.9	35.1138	-0.486923
 142	1	1	0.341309	13.769	36.1691	0.25653
 143	1	1	0.132892	13.4884	36.1533	1.7828
 144	1	6	-0.74435	13.5492	37.4551	-0.32904
 145	1	7	-0.00272	14.8248	35.9113	0.110861
 146	1	1	-0.008403	13.749	34.7243	2.36076
 147	1	4	-0.239698	13.159	33.7114	1.50122
 148	1	7	0.089672	15.8012	34.765	1.61449
 149	1	7	0.088396	15.682	34.873	3.37148
 150	1	7	0.05623	13.2917	34.6703	3.35482
 151	1	7	0.125955	12.1044	35.6351	-1.03679
 152	1	8	0.456798	13.7953	37.3359	-1.28743
 153	1	9	0.198085	9.78197	30.2339	2.36084
 154	1	7	0.095469	8.02415	31.0237	1.04293
 155	1	1	-0.308877	9.71239	29.7288	1.38777
 156	1	8	0.426958	8.02593	32.706	-0.760045
 157	1	6	-0.128067	9.139	28.4308	1.54748
 158	1	1	0.005701	8.84062	30.6019	0.443904
 159	1	7	0.239394	12.1352	30.9132	1.98093
 160	1	5	-0.48496	7.03478	31.413	-1.60192
 161	1	1	-0.003409	10.9403	32.083	0.583959
 162	1	2	0.352525	7.41285	30.2542	-1.52919
 163	1	6	-0.665659	8.83191	32.9399	-0.232909
 164	1	1	-0.510331	11.7975	30.8177	0.941955
 165	1	1	0.240953	9.64767	31.7672	-0.198583
 166	1	4	0.015262	11.01	29.6248	0.799899
 167	1	4	0.176506	8.29771	29.7618	-0.605383
 168	1	3	0.090205	6.46429	29.6591	-3.37304
 169	1	1	-0.197476	6.9774	29.1886	-2.52575
 170	1	1	-0.039041	13.044	30.6227	0.0528264
 171	1	7	0.144117	12.7536	30.4728	-0.998076
 172	1	3	0.104606	6.2891	28.4878	-2.03983
 173	1	7	0.111943	9.95091	31.4781	-1.21442
 174	1	7	0.160853	13.7003	31.5077	0.0942449
 175	1	3	0.069306	7.84738	28.6328	-2.8951
 176	1	4	-0.432857	13.73	29.468	0.569124
 177	1	3	0.042395	15.6306	28.004	1.68136
 178	1	2	0.753764	14.8793	29.0566	-0.0428783
 179	1	1	-0.122098	15.4385	27.8072	0.620504
 180	1	3	0.030493	16.3732	27.5038	0.133868
 181	1	5	-0.562583	15.4124	29.6348	-0.974054
 182	1	3	0.048272	14.7095	26.9922	0.541291
 183	1	4	-0.191545	11.7033	33.0004	-0.222248
 184	1	9	0.130627	11.3659	34.6453	0.977719
 185	1	3	0.015236	12.4242	36.3823	1.91845
 186	1	7	0.210365	10.6083	32.5787	1.50259
 187	1	1	-0.218842	16.7968	42.9874	0.364444
 188	1	2	0.68591	16.3129	43.9446	1.43791
 189	1	3	0.086668	16.6415	43.4313	-0.624496
 190	1	3	0.071846	16.2274	42.0528	0.425487
 191	1	3	0.062371	17.8619	42.7712	0.504308
 192	1	4	-0.291145	15.0361	44.3662	1.1892
 193	1	1	-0.015993	14.3415	45.2297	2.11955
 194	1	5	-0.555985	17.0075	44.3178	2.3704
 195	1	2	0.652223	9.35829	43.2622	5.12809
 196	1	3	0.062504	8.22199	41.585	4.4003
 197	1	5	-0.583019	9.27064	44.0239	6.07699
 198	1	1	-0.168764	8.15464	42.6789	4.41023
 199	1	3	0.062846	7.23145	42.9803	4.9181
 200	1	4	-0.264747	10.5262	42.8895	4.53097
 201	1	3	0.073216	8.13181	43.0402	3.37632
 202	1	1	-0.015836	12.9095	42.5355	4.2629
 203	1	1	0.044531	11.8187	43.3008	5.05493
 204	1	1	0.341309	11.976	44.8456	4.90989
 205	1	1	0.132892	13.418	45.331	4.55662
 206	1	6	-0.74435	11.4491	45.531	6.04894
 207	1	7	-0.00272	11.359	45.1316	4.04799
 208	1	1	-0.008403	14.0916	44.4635	3.43899
 209	1	4	-0.239698	13.2775	43.317	3.11711
 210	1	7	0.089672	13.38	45.5406	1.69062
 211	1	7	0.088396	14.9388	46.1302	2.3163
 212	1	7	0.05623	15.0605	44.1108	3.79857
 213	1	7	0.125955	11.9058	43.0308	6.11215
 214	1	8	0.456798	10.5561	45.114	6.21268
 215	1	9	0.198085	13.7249	37.0574	4.42064
 216	1	7	0.095469	15.6706	38.6882	4.15128
 217	1	1	-0.308877	13.7441	37.793	3.6037
 218	1	8	0.426958	14.7002	39.0389	1.51885
 219	1	6	-0.128067	14.2909	37.1517	2.43724
 220	1	1	0.005701	14.624	38.9993	4.03743
 221	1	7	0.239394	12.5452	38.9123	1.42457
 222	1	5	-0.48496	15.6178	41.03	5.82905
 223	1	1	-0.003409	13.0577	40.5617	2.74972
 224	1	2	0.352525	14.6216	40.3708	6.08952
 225	1	6	-0.665659	15.1669	39.8545	1.81637
 226	1	1	-0.510331	12.2163	39.2998	2.39992
 227	1	1	0.240953	14.5328	40.1971	3.0473
 228	1	4	0.015262	12.3942	38.2816	3.40466
 229	1	4	0.176506	14.0902	39.3817	5.31642
 230	1	3	0.090205	12.7904	40.0668	7.21063
 231	1	1	-0.197476	13.7274	40.6279	7.29226
 232	1	1	-0.039041	10.7133	39.6101	2.28115
 233	1	7	0.144117	10.1501	38.706	2.00719
 234	1	3	0.104606	13.47	41.6832	7.34222
 235	1	7	0.111943	15.0469	41.073	3.46143
 236	1	7	0.160853	10.3199	39.9898	3.23718
 237	1	3	0.069306	14.2306	40.3361	8.21695
 238	1	4	-0.432857	10.5867	40.6042	1.25046
 239	1	3	0.042395	8.43455	42.6222	-0.271516
 240	1	2	0.753764	9.36374	41.1594	1.01674
 241	1	1	-0.122098	9.42962	42.1985	-0.0917969
 242	1	3	0.030493	9.79639	41.7342	-1.0151
 243	1	5	-0.562583	8.35108	40.8924	1.64246
 244	1	3	0.048272	10.1188	43.0003	0.197208
 245	1	4	-0.191545	12.4423	41.2182	3.887
 246	1	9	0.130627	13.7922	42.4201	4.89415
 247	1	3	0.015236	13.2832	46.3384	4.14263
 248	1	7	0.210365	13.0388	41.242	1.88556
 249	1	1	-0.218842	16.3214	39.4468	15.1867
 250	1	2	0.68591	16.343	38.7227	13.8527
 251	1	3	0.086668	17.1281	39.068	15.8242
 252	1	3	0.071846	15.3584	39.2798	15.6818
 253	1	3	0.062371	16.4583	40.5219	15.0256
 254	1	4	-0.291145	15.3102	39.1221	13.0537
 255	1	1	-0.015993	15.1633	38.5653	11.7297
 256	1	5	-0.555985	17.1801	37.8873	13.5587
 257	1	2	0.652223	19.6099	40.8105	7.22295
 258	1	3	0.062504	20.189	42.7956	6.62799
 259	1	5	-0.583019	20.2278	39.7747	7.39866
 260	1	1	-0.168764	19.9538	41.835	6.15563
 261	1	3	0.062846	20.8184	41.4947	5.57429
 262	1	4	-0.264747	18.5035	41.1733	7.92554
 263	1	3	0.073216	19.0972	41.968	5.48492
 264	1	1	-0.015836	16.9152	41.2643	9.73916
 265	1	1	0.044531	17.9318	40.3557	8.97734
 266	1	1	0.341309	17.2608	39.0724	8.40792
 267	1	1	0.132892	16.3898	38.3204	9.46472
 268	1	6	-0.74435	18.2251	38.1466	7.88809
 269	1	7	-0.00272	16.6172	39.4026	7.58831
 270	1	1	-0.008403	16.2706	39.1162	10.7943
 271	1	4	-0.239698	15.9512	40.4872	10.4864
 272	1	7	0.089672	14.178	38.8306	11.3239
 273	1	7	0.088396	15.2223	37.4693	11.7764
 274	1	7	0.05623	17.2372	39.07	11.3114
 275	1	7	0.125955	18.7177	40.0525	9.68137
 276	1	8	0.456798	19.0448	38.6727	7.65717
 277	1	9	0.198085	15.1218	43.6006	5.68302
 278	1	7	0.095469	16.2738	45.913	7.31783
 279	1	1	-0.308877	14.9827	44.4534	6.35248
 280	1	8	0.426958	18.5666	45.2681	7.73192
 281	1	6	-0.128067	14.2668	45.527	5.71675
 282	1	1	0.005701	16.3869	44.971	6.76465
 283	1	7	0.239394	14.8558	45.1604	9.04538
 284	1	5	-0.48496	18.7101	46.5189	6.54657
 285	1	1	-0.003409	16.2255	43.4661	8.83419
 286	1	2	0.352525	18.2438	45.9834	5.55353
 287	1	6	-0.665659	18.347	44.408	8.18099
 288	1	1	-0.510331	14.7964	44.0897	8.80253
 289	1	1	0.240953	17.1103	43.9216	7.64651
 290	1	4	0.015262	14.2298	43.9645	7.48312
 291	1	4	0.176506	17.1267	45.1912	5.54058
 292	1	3	0.090205	19.7209	46.8211	4.22278
 293	1	1	-0.197476	18.8699	46.1312	4.17491
 294	1	1	-0.039041	13.8519	43.4311	9.83403
 295	1	7	0.144117	13.6285	42.3876	9.56863
 296	1	3	0.104606	18.1303	46.5262	3.46856
 297	1	7	0.111943	17.2861	43.0479	7.00595
 298	1	7	0.160853	14.3338	43.4156	10.822
 299	1	3	0.069306	19.2173	45.1564	3.81264
 300	1	4	-0.432857	12.6633	44.2395	9.89674
 301	1	3	0.042395	9.5829	44.6715	8.74772
 302	1	2	0.753764	11.5896	43.9541	9.09677
 303	1	1	-0.122098	10.4874	44.9855	9.28115
 304	1	3	0.030493	10.8195	45.9542	8.88947
 305	1	5	-0.562583	11.4456	42.9171	8.46803
 306	1	3	0.048272	10.2577	45.0959	10.3468
 307	1	4	-0.191545	16.1143	42.023	8.80396
 308	1	9	0.130627	17.459	41.932	10.4184
 309	1	3	0.015236	16.8816	37.3723	9.72104
 310	1	7	0.210365	16.7192	43.7866	9.76216
 311	1	1	-0.218842	9.73216	30.9707	10.7173
 312	1	2	0.68591	10.5247	30.2996	9.6106
 313	1	3	0.086668	9.75251	30.346	11.6169
 314	1	3	0.071846	8.69427	31.1132	10.4002
 315	1	3	0.062371	10.1697	31.9494	10.9441
 316	1	4	-0.291145	10.5433	31.0472	8.46994
 317	1	1	-0.015993	11.3415	30.5866	7.35837
 318	1	5	-0.555985	11.0311	29.1953	9.71437
 319	1	2	0.652223	9.25827	35.7398	3.6778
 320	1	3	0.062504	8.22887	37.5663	3.17132
 321	1	5	-0.583019	9.04272	35.1708	2.62186
 322	1	1	-0.168764	8.72307	37.1141	4.0393
 323	1	3	0.062846	8.00333	37.0257	4.86084
 324	1	4	-0.264747	9.99883	35.2095	4.68679
 325	1	3	0.073216	9.54901	37.7575	4.36342
 326	1	1	-0.015836	11.7543	33.7912	5.5998
 327	1	1	0.044531	10.6228	33.9068	4.53986
 328	1	1	0.341309	9.51305	32.8062	4.62796
 329	1	1	0.132892	9.91406	31.4541	5.30562
 330	1	6	-0.74435	9.01468	32.5416	3.3126
 331	1	7	-0.00272	8.6969	33.2334	5.22562
 332	1	1	-0.008403	11.2144	31.5509	6.15683
 333	1	4	-0.239698	11.3703	32.889	6.64181
 334	1	7	0.089672	11.0342	29.5808	7.05351
 335	1	7	0.088396	12.3953	30.5405	7.66542
 336	1	7	0.05623	12.0561	31.3197	5.48973
 337	1	7	0.125955	11.0995	33.836	3.55421
 338	1	8	0.456798	8.77122	33.4245	2.91328
 339	1	9	0.198085	15.5829	37.7299	6.96105
 340	1	7	0.095469	15.1845	35.4712	8.9229
 341	1	1	-0.308877	14.9435	37.2763	7.72774
 342	1	8	0.426958	14.6395	33.043	6.41016
 343	1	6	-0.128067	15.0795	37.9992	8.96164
 344	1	1	0.005701	15.2894	35.7573	7.86918
 345	1	7	0.239394	12.8911	36.5631	9.02657
 346	1	5	-0.48496	16.4689	36.2365	5.27371
 347	1	1	-0.003409	12.8436	35.1547	7.37112
 348	1	2	0.352525	17.1148	35.756	6.19286
 349	1	6	-0.665659	14.6244	33.4786	7.30518
 350	1	1	-0.510331	12.6531	36.5848	7.95236
 351	1	1	0.240953	14.3331	34.8517	7.04646
 352	1	4	0.015262	13.5859	37.434	7.27899
 353	1	4	0.176506	16.6575	35.5082	7.46366
 354	1	3	0.090205	19.1915	35.8549	6.77307
 355	1	1	-0.197476	18.5697	35.3364	6.03352
 356	1	1	-0.039041	11.2283	37.1632	7.7855
 357	1	7	0.144117	10.987	37.2723	6.71857
 358	1	3	0.104606	18.9229	35.5958	5.02881
 359	1	7	0.111943	14.4775	35.0772	5.9818
 360	1	7	0.160853	10.483	36.4884	8.23454
 361	1	3	0.069306	18.6679	34.2549	6.18412
 362	1	4	-0.432857	11.1937	38.4549	8.42534
 363	1	3	0.042395	12.2283	40.5049	9.87271
 364	1	2	0.753764	11.2712	38.5814	9.78552
 365	1	1	-0.122098	11.2929	40.043	10.2047
 366	1	3	0.030493	11.2174	40.1288	11.2951
 367	1	5	-0.562583	11.2918	37.6538	10.5781
 368	1	3	0.048272	10.4545	40.5758	9.74139
 369	1	4	-0.191545	12.0752	35.0868	6.1483
 370	1	9	0.130627	12.6496	33.3948	5.11609
 371	1	3	0.015236	10.121	30.7262	4.51011
 372	1	7	0.210365	12.4809	34.4198	8.10443
 373	1	1	-0.218842	-0.583378	29.5347	5.95411
 374	1	2	0.68591	0.468663	30.1356	6.87136
 375	1	3	0.086668	-0.230819	29.5627	4.91961
 376	1	3	0.071846	-1.51584	30.1003	6.03758
 377	1	3	0.062371	-0.767237	28.4902	6.22981
 378	1	4	-0.291145	0.314593	29.6747	8.15082
 379	1	1	-0.015993	1.21497	30.1111	9.19215
 380	1	5	-0.555985	1.19818	31.0587	6.54244
 381	1	2	0.652223	2.71209	26.9017	5.48783
 382	1	3	0.062504	2.38909	26.7566	3.36266
 383	1	5	-0.583019	2.06479	27.9229	5.61337
 384	1	1	-0.168764	2.86623	26.1783	4.1625
 385	1	3	0.062846	3.92915	26.0531	3.93363
 386	1	4	-0.264747	3.38224	26.2469	6.48138
 387	1	3	0.073216	2.39893	25.1898	4.22747
 388	1	1	-0.015836	4.12172	28.0654	8.04102
 389	1	1	0.044531	3.4056	26.6936	7.86489
 390	1	1	0.341309	1.97719	26.6799	8.49151
 391	1	1	0.132892	1.90777	27.6232	9.72205
 392	1	6	-0.74435	1.66726	25.3407	8.89108
 393	1	7	-0.00272	1.23551	27.0213	7.76108
 394	1	1	-0.008403	2.35867	29.0816	9.37818
 395	1	4	-0.239698	3.13402	29.1026	8.16371
 396	1	7	0.089672	0.662539	30.2057	10.1321
 397	1	7	0.088396	1.63475	31.1	8.96551
 398	1	7	0.05623	2.99214	29.4387	10.1992
 399	1	7	0.125955	3.99419	25.9623	8.43108
 400	1	8	0.456798	0.821805	25.4078	9.37779
 401	1	9	0.198085	9.25312	29.0383	5.55022
 402	1	7	0.095469	8.84701	28.9988	8.02224
 403	1	1	-0.308877	8.41256	29.6066	5.96062
 404	1	8	0.426958	7.557	31.3363	7.47914
 405	1	6	-0.128067	8.79679	30.9884	6.0871
 406	1	1	0.005701	8.01556	28.9599	7.31244
 407	1	7	0.239394	6.12253	31.1489	5.39449
 408	1	5	-0.48496	7.35283	26.8532	9.13993
 409	1	1	-0.003409	5.60676	29.6688	6.92558
 410	1	2	0.352525	7.41362	26.6495	7.93936
 411	1	6	-0.665659	7.1017	30.9952	8.2814
 412	1	1	-0.510331	6.02631	30.0561	5.46782
 413	1	1	0.240953	6.77744	29.6541	7.9339
 414	1	4	0.015262	7.28168	29.4589	5.07455
 415	1	4	0.176506	7.7318	27.5774	6.98949
 416	1	3	0.090205	6.91394	24.5549	8.08829
 417	1	1	-0.197476	7.13088	25.2932	7.30817
 418	1	1	-0.039041	4.93767	29.6015	4.46759
 419	1	7	0.144117	4.95074	28.5073	4.36797
 420	1	3	0.104606	7.99614	24.9568	6.72367
 421	1	7	0.111943	6.47629	29.1311	8.84948
 422	1	7	0.160853	3.93512	29.8718	4.83997
 423	1	3	0.069306	6.26622	25.3643	6.63631
 424	1	4	-0.432857	5.18327	30.2365	3.20045
 425	1	3	0.042395	5.8272	30.9641	0.866255
 426	1	2	0.753764	4.53727	29.7544	2.09375
 427	1	1	-0.122098	4.79068	30.6177	0.869876
 428	1	3	0.030493	4.13193	31.4935	0.891878
 429	1	5	-0.562583	3.85029	28.7448	2.07746
 430	1	3	0.048272	4.59668	30.0423	-0.0424674
 431	1	4	-0.191545	4.99197	28.3567	6.92492
 432	1	9	0.130627	4.71142	28.0363	8.96587
 433	1	3	0.015236	2.62844	27.2246	10.4473
 434	1	7	0.210365	4.87378	30.4137	7.27165
 435	1	1	-0.218842	-7.96014	23.5073	16.7165
 436	1	2	0.68591	-6.48689	23.1776	16.8801
 437	1	3	0.086668	-8.15181	24.5169	17.0945
 438	1	3	0.071846	-8.56583	22.792	17.2841
 439	1	3	0.062371	-8.24689	23.462	15.6594
 440	1	4	-0.291145	-5.74749	23.6492	15.8328
 441	1	1	-0.015993	-4.30917	23.4954	15.8082
 442	1	5	-0.555985	-6.05927	22.4783	17.7817
 443	1	2	0.652223	0.201018	24.9765	19.2878
 444	1	3	0.062504	1.67348	23.7763	20.3026
 445	1	5	-0.583019	0.0563755	25.7659	20.2056
 446	1	1	-0.168764	1.13899	23.7845	19.3459
 447	1	3	0.062846	0.561466	22.8588	19.2432
 448	1	4	-0.264747	-0.423378	25.0551	18.0782
 449	1	3	0.073216	1.86265	23.8457	18.5254
 450	1	1	-0.015836	-1.711	26.1497	16.3287
 451	1	1	0.044531	-1.41398	26.085	17.8413
 452	1	1	0.341309	-2.70222	25.7707	18.6413
 453	1	1	0.132892	-3.48868	24.5632	18.0567
 454	1	6	-0.74435	-3.55387	26.9177	18.7131
 455	1	7	-0.00272	-2.40848	25.5454	19.6673
 456	1	1	-0.008403	-3.64743	24.7039	16.5173
 457	1	4	-0.239698	-2.35982	24.9303	15.9059
 458	1	7	0.089672	-3.97935	23.4966	14.7609
 459	1	7	0.088396	-3.99175	22.5421	16.2504
 460	1	7	0.05623	-4.26977	25.5885	16.3273
 461	1	7	0.125955	-1.02638	27.0567	18.171
 462	1	8	0.456798	-4.17045	26.6887	19.457
 463	1	9	0.198085	1.24927	28.3835	12.0892
 464	1	7	0.095469	-1.62626	27.5168	11.5359
 465	1	1	-0.308877	0.532333	27.6377	11.7265
 466	1	8	0.426958	-2.85882	26.801	13.2148
 467	1	6	-0.128067	0.586248	27.588	10.296
 468	1	1	0.005701	-0.899993	28.017	12.1904
 469	1	7	0.239394	1.24831	25.1786	13.8951
 470	1	5	-0.48496	-3.2785	29.579	11.7401
 471	1	1	-0.003409	-0.528271	26.3674	14.1694
 472	1	2	0.352525	-2.18024	30.0981	11.8476
 473	1	6	-0.665659	-2.61284	27.5462	13.8296
 474	1	1	-0.510331	0.930043	26.2057	13.666
 475	1	1	0.240953	-1.20233	27.6786	13.6789
 476	1	4	0.015262	0.91177	26.35	12.237
 477	1	4	0.176506	-0.99016	29.4493	12.0344
 478	1	3	0.090205	-1.10989	31.8272	11.1072
 479	1	1	-0.197476	-1.98178	31.6025	11.732
 480	1	1	-0.039041	1.96044	27.1585	14.3298
 481	1	7	0.144117	1.71825	28.2177	14.1628
 482	1	3	0.104606	-1.82719	32.0371	12.7255
 483	1	7	0.111943	-0.822355	28.4951	14.307
 484	1	7	0.160853	1.95681	26.997	15.4178
 485	1	3	0.069306	-2.86457	32.0596	11.2696
 486	1	4	-0.432857	3.25652	26.797	13.8109
 487	1	3	0.042395	4.94398	26.042	11.8727
 488	1	2	0.753764	3.90569	27.6096	12.9216
 489	1	1	-0.122098	5.18589	26.9672	12.4086
 490	1	3	0.030493	5.84659	26.7252	13.2493
 491	1	5	-0.562583	3.53203	28.7238	12.5891
 492	1	3	0.048272	5.70492	27.6514	11.7268
 493	1	4	-0.191545	-0.473377	26.3514	15.6145
 494	1	9	0.130627	-2.38323	26.997	16.1426
 495	1	3	0.015236	-4.49815	24.5789	18.4871
 496	1	7	0.210365	-1.11788	25.5138	13.8052
 497	1	1	-0.218842	-4.00094	25.8763	26.0225
 498	1	2	0.68591	-4.02944	24.4045	26.3932
 499	1	3	0.086668	-4.77526	26.0823	25.2755
 500	1	3	0.071846	-3.01922	26.1284	25.6065
 501	1	3	0.062371	-4.1799	26.4886	26.9134
 502	1	4	-0.291145	-3.10385	24.1279	27.3616
 503	1	1	-0.015993	-2.88174	22.7761	27.8209
 504	1	5	-0.555985	-4.84701	23.6228	25.9414
 505	1	2	0.652223	-0.0551207	18.1805	23.8579
 506	1	3	0.062504	0.0663887	16.2105	22.9903
 507	1	5	-0.583019	1.03057	18.1308	24.4125
 508	1	1	-0.168764	-0.582282	17.0924	22.9392
 509	1	3	0.062846	-1.59901	16.8129	23.2386
 510	1	4	-0.264747	-0.952137	19.1942	24.0132
 511	1	3	0.073216	-0.608242	17.4639	21.9093
 512	1	1	-0.015836	-1.75395	21.4394	24.5729
 513	1	1	0.044531	-0.680969	20.3419	24.8652
 514	1	1	0.341309	-0.623963	19.8604	26.3525
 515	1	1	0.132892	-1.14999	20.8518	27.4453
 516	1	6	-0.74435	0.716165	19.468	26.6773
 517	1	7	-0.00272	-1.25915	18.9662	26.405
 518	1	1	-0.008403	-1.89596	22.0749	26.8535
 519	1	4	-0.239698	-2.61362	21.6224	25.7019
 520	1	7	0.089672	-3.82509	22.2167	27.8915
 521	1	7	0.088396	-2.43075	22.8182	28.8207
 522	1	7	0.05623	-1.14421	22.8182	26.5547
 523	1	7	0.125955	0.298278	20.7659	24.6093
 524	1	8	0.456798	1.01139	18.8718	25.9299
 525	1	9	0.198085	-4.1457	23.1093	20.0321
 526	1	7	0.095469	-2.09147	20.986	19.1915
 527	1	1	-0.308877	-3.13557	22.8115	19.7216
 528	1	8	0.426958	-2.77364	18.8813	20.2872
 529	1	6	-0.128067	-2.87083	23.3096	18.4031
 530	1	1	0.005701	-3.01185	21.2686	19.7195
 531	1	7	0.239394	-1.47817	23.4928	22.5459
 532	1	5	-0.48496	-3.45885	18.6222	18.7436
 533	1	1	-0.003409	-2.16778	21.4733	22.1545
 534	1	2	0.352525	-4.28736	19.5008	18.5719
 535	1	6	-0.665659	-2.41812	19.3437	21.0929
 536	1	1	-0.510331	-2.31671	23.0197	22.0165
 537	1	1	0.240953	-3.00187	20.6501	21.1454
 538	1	4	0.015262	-2.17796	23.3689	20.6316
 539	1	4	0.176506	-4.17296	20.7945	19.0014
 540	1	3	0.090205	-5.70414	18.1932	17.6003
 541	1	1	-0.197476	-5.60808	19.2554	17.8559
 542	1	1	-0.039041	-3.61529	23.6211	22.6296
 543	1	7	0.144117	-4.50553	23.4689	22.0048
 544	1	3	0.104606	-5.64845	19.8516	16.937
 545	1	7	0.111943	-4.0343	20.6069	21.5214
 546	1	7	0.160853	-3.8341	23.1512	23.6016
 547	1	3	0.069306	-6.44591	19.5473	18.5008
 548	1	4	-0.432857	-3.33714	25.0156	22.8571
 549	1	3	0.042395	-3.5467	27.6011	23.3984
 550	1	2	0.753764	-3.7754	25.9793	21.9954
 551	1	1	-0.122098	-3.22778	27.3444	22.3817
 552	1	3	0.030493	-3.58879	28.111	21.6857
 553	1	5	-0.562583	-4.53941	25.8049	21.0554
 554	1	3	0.048272	-2.1318	27.3199	22.3505
 555	1	4	-0.191545	-2.60651	21.0797	23.4696
 556	1	9	0.130627	-1.26419	22.3978	24.3636
 557	1	3	0.015236	-0.29437	21.257	28.0027
 558	1	7	0.210365	-1.11962	21.1805	22.0023
 559	1	1	-0.218842	-6.37324	22.0026	35.4069
 560	1	2	0.68591	-6.39954	20.5617	35.8839
 561	1	3	0.086668	-6.10987	22.0289	34.3439
 562	1	3	0.071846	-5.62203	22.5652	35.9722
 563	1	3	0.062371	-7.35724	22.4637	35.5502
 564	1	4	-0.291145	-5.18269	19.9661	35.7339
 565	1	1	-0.015993	-5.02436	18.5934	36.1411
 566	1	5	-0.555985	-7.39009	20.0206	36.3428
 567	1	2	0.652223	-2.34629	14.0686	33.6472
 568	1	3	0.062504	-3.093	12.1499	33.0072
 569	1	5	-0.583019	-1.34627	13.6231	34.1814
 570	1	1	-0.168764	-3.38026	13.2056	32.9469
 571	1	3	0.062846	-4.35968	13.3434	33.4187
 572	1	4	-0.264747	-2.6821	15.3893	33.614
 573	1	3	0.073216	-3.45306	13.501	31.8941
 574	1	1	-0.015836	-2.24963	17.7849	33.7508
 575	1	1	0.044531	-1.80496	16.3741	34.2192
 576	1	1	0.341309	-1.84372	16.2822	35.765
 577	1	1	0.132892	-3.26088	16.7137	36.2526
 578	1	6	-0.74435	-0.786227	17.1271	36.2506
 579	1	7	-0.00272	-1.65243	15.252	36.0862
 580	1	1	-0.008403	-3.60104	18.1427	35.7547
 581	1	4	-0.239698	-3.5429	18.1086	34.3114
 582	1	7	0.089672	-5.76536	17.9539	35.6433
 583	1	7	0.088396	-5.16829	18.5101	37.2269
 584	1	7	0.05623	-2.87075	18.8621	36.148
 585	1	7	0.125955	-0.773954	16.1979	33.8912
 586	1	8	0.456798	-0.683629	16.9751	37.2111
 587	1	9	0.198085	-0.433806	18.8203	28.7204
 588	1	7	0.095469	-0.395113	20.7809	30.4046
 589	1	1	-0.308877	-1.33331	19.1917	29.2316
 590	1	8	0.426958	-3.05079	20.8271	30.0684
 591	1	6	-0.128067	-1.99117	20.1412	28.3754
 592	1	1	0.005701	-0.903758	19.8258	30.5886
 593	1	7	0.239394	-4.0238	19.0022	29.6959
 594	1	5	-0.48496	0.663758	20.3419	32.8858
 595	1	1	-0.003409	-3.004	18.8265	31.6283
 596	1	2	0.352525	0.738576	19.2681	32.3149
 597	1	6	-0.665659	-2.88642	21.137	30.9835
 598	1	1	-0.510331	-3.38389	18.2803	30.221
 599	1	1	0.240953	-2.10857	20.08	31.5351
 600	1	4	0.015262	-2.18437	18.0492	29.4604
 601	1	4	0.176506	0.039536	18.9149	31.1935
 602	1	3	0.090205	1.08204	17.1987	32.8411
 603	1	1	-0.197476	1.63891	18.1416	32.8024
 604	1	1	-0.039041	-4.16008	16.9512	30.3206
 605	1	7	0.144117	-4.46315	16.5863	29.3281
 606	1	3	0.104606	2.00936	18.3762	33.8081
 607	1	7	0.111943	-1.77003	20.3672	32.5397
 608	1	7	0.160853	-3.52956	16.1795	30.7905
 609	1	3	0.069306	2.49117	18.0227	32.1232
 610	1	4	-0.432857	-5.31028	17.2359	31.1377
 611	1	3	0.042395	-6.72401	17.4212	33.3563
 612	1	2	0.753764	-5.98723	16.2128	31.7342
 613	1	1	-0.122098	-7.12389	16.7387	32.5972
 614	1	3	0.030493	-7.64134	15.909	33.0934
 615	1	5	-0.562583	-5.70578	15.0308	31.6247
 616	1	3	0.048272	-7.83689	17.288	31.9721
 617	1	4	-0.191545	-2.30052	17.766	32.3126
 618	1	9	0.130627	-1.5191	18.5327	34.0896
 619	1	3	0.015236	-3.9766	16.0421	35.7608
 620	1	7	0.210365	-3.92285	19.0921	32.1714
 621	1	1	-0.218842	1.93375	17.1677	47.9887
 622	1	2	0.68591	1.2879	18.2267	47.1138
 623	1	3	0.086668	1.16234	16.6659	48.5833
 624	1	3	0.071846	2.66475	17.6328	48.6599
 625	1	3	0.062371	2.43782	16.425	47.3601
 626	1	4	-0.291145	0.349115	17.6841	46.2868
 627	1	1	-0.015993	-0.365415	18.5486	45.3802
 628	1	5	-0.555985	1.55315	19.4144	47.1806
 629	1	2	0.652223	-5.28053	14.2782	43.5242
 630	1	3	0.062504	-7.15449	13.5194	42.7804
 631	1	5	-0.583019	-5.36625	13.7357	44.6101
 632	1	1	-0.168764	-6.32485	14.1445	42.4296
 633	1	3	0.062846	-6.70945	15.1362	42.1643
 634	1	4	-0.264747	-4.23298	15.0582	43.1329
 635	1	3	0.073216	-5.87993	13.6875	41.5402
 636	1	1	-0.015836	-2.03758	16.04	43.1411
 637	1	1	0.044531	-3.14824	15.415	44.0368
 638	1	1	0.341309	-3.66195	16.3642	45.1629
 639	1	1	0.132892	-2.49319	17.1342	45.8428
 640	1	6	-0.74435	-4.34751	15.6061	46.1651
 641	1	7	-0.00272	-4.34688	17.0813	44.6947
 642	1	1	-0.008403	-1.57566	17.7943	44.7827
 643	1	4	-0.239698	-1.06247	16.7454	43.9363
 644	1	7	0.089672	0.299158	18.894	44.5777
 645	1	7	0.088396	-0.724917	19.4321	45.9192
 646	1	7	0.05623	-2.16176	18.4992	44.1814