pySIMM System Object

1552 atoms
1601 bonds
2950 angles
4097 dihedrals
100 impropers

9 atom types
10 bond types
23 angle types
20 dihedral types
1 improper types

-169.940930 169.940930 xlo xhi
-169.940930 169.940930 ylo yhi
-169.940930 169.940930 zlo zhi

Masses

   1	12.01	# c3
   2	12.01	# c
   3	1.008	# hc
   4	16.0	# os
   5	16.0	# o
   6	16.0	# oh
   7	1.008	# h1
   8	1.008	# ho
   9	1.008	# h2

Pair Coeffs

   1	0.1094	3.3996695084235347	# c3
   2	0.086	3.3996695084235347	# c
   3	0.0157	2.649532787749369	# hc
   4	0.17	3.0000123434657784	# os
   5	0.21	2.959921901149463	# o
   6	0.2104	3.0664733878390478	# oh
   7	0.0157	2.471353044121301	# h1
   8	0.0047	0.5379246460131368	# ho
   9	0.0157	2.2931733004932333	# h2

Bond Coeffs

   1	331.7	1.0961	# c3,h2
   2	637.7	1.2183	# c,o
   3	300.9	1.5375	# c3,c3
   4	330.6	1.0969	# c3,hc
   5	316.7	1.4233	# c3,oh
   6	330.6	1.0969	# c3,h1
   7	371.4	0.973	# ho,oh
   8	308.6	1.4316	# c3,os
   9	313.0	1.5241	# c,c3
  10	390.8	1.3584	# c,os

Angle Coeffs

   1	46.93	108.77	# c,c3,hc
   2	67.4	123.2	# c3,c,o
   3	68.0	107.97	# c3,c3,os
   4	46.39	109.56	# c3,c3,h1
   5	46.25	110.22	# c3,c3,h2
   6	62.86	111.51	# c3,c3,c3
   7	68.89	110.72	# c3,c,os
   8	72.58	109.38	# oh,c3,os
   9	75.32	123.25	# o,c,os
  10	67.47	110.19	# c3,c3,oh
  11	46.34	109.8	# c3,c3,hc
  12	47.38	107.26	# c3,oh,ho
  13	39.24	108.46	# h1,c3,h1
  14	50.85	109.58	# h2,c3,os
  15	72.74	108.29	# os,c3,os
  16	50.8	109.78	# h1,c3,os
  17	63.28	115.98	# c,os,c3
  18	62.7	112.48	# c3,os,c3
  19	50.93	110.26	# h1,c3,oh
  20	39.4	107.58	# hc,c3,hc
  21	51.13	109.43	# h2,c3,oh
  22	51.11	109.5	# hc,c3,oh
  23	62.7	112.48	# c3,oh,c3

Dihedral Coeffs

   1	3	0.18	3	0	0.25	2	180	0.2	1	180	# c3,c3,c3,c3
   2	1	0.3833333333333333	3	0	# X,c3,os,X
   3	2	0.144	3	0	1.175	2	0	# os,c3,c3,oh
   4	3	0.1	3	0	0.85	2	180	1.35	1	180	# c3,os,c3,os
   5	2	0.144	3	0	1.175	2	0	# os,c3,c3,os
   6	3	2.7	2	180	0.0	1	0	1.15	3	0	# c3,c,os,c3
   7	2	0.0	3	0	0.25	1	0	# hc,c3,c3,oh
   8	1	0.16	3	0	# hc,c3,c3,c3
   9	1	0.15555555555555556	3	0	# X,c3,c3,X
  10	2	0.16	3	0	0.25	1	0	# ho,oh,c3,c3
  11	2	0.383	3	0	0.8	1	180	# c3,c3,os,c
  12	1	0.0	2	180	# X,c,c3,X
  13	2	2.7	2	180	1.4	1	180	# o,c,os,c3
  14	2	0.0	3	0	0.25	1	0	# hc,c3,c3,os
  15	2	0.0	3	0	0.25	1	0	# h1,c3,c3,oh
  16	1	0.16666666666666666	3	0	# X,c3,oh,X
  17	3	0.8	1	0	0.0	2	0	0.08	3	180	# hc,c3,c,o
  18	2	0.0	3	0	0.25	1	0	# h1,c3,c3,os
  19	2	0.383	3	0	0.1	2	180	# c3,c3,os,c3
  20	2	0.144	3	0	1.175	2	0	# oh,c3,c3,oh

Improper Coeffs

   1	10.5	-1	2	# c,X,X,o

Atoms

   1	1	1	-0.218842	-20.1999	27.7917	-4.89979
   2	1	2	0.68591	-20.007	26.8937	-3.69103
   3	1	3	0.086668	-20.6739	28.7292	-4.59164
   4	1	3	0.071846	-20.829	27.287	-5.64133
   5	1	3	0.062371	-19.2245	28.0147	-5.34811
   6	1	4	-0.291145	-19.2125	27.4875	-2.75293
   7	1	1	-0.015993	-18.8676	26.7617	-1.55323
   8	1	5	-0.555985	-20.5112	25.7879	-3.58746
   9	1	2	0.652223	-12.7848	28.2471	0.895058
  10	1	3	0.062504	-10.8736	28.4114	-0.0798134
  11	1	5	-0.583019	-13.3196	28.815	1.83285
  12	1	1	-0.168764	-11.2968	27.9538	0.821493
  13	1	3	0.062846	-10.79	28.3558	1.70633
  14	1	4	-0.264747	-13.4365	27.7802	-0.206865
  15	1	3	0.073216	-11.1398	26.8701	0.77357
  16	1	1	-0.015836	-15.191	27.3687	-1.78195
  17	1	1	0.044531	-14.8722	27.9011	-0.364842
  18	1	1	0.341309	-15.6399	27.126	0.740051
  19	1	1	0.132892	-17.019	26.568	0.25844
  20	1	6	-0.74435	-15.8324	27.9585	1.88837
  21	1	7	-0.00272	-14.9982	26.2911	1.04158
  22	1	1	-0.008403	-17.5763	27.3757	-0.954569
  23	1	4	-0.239698	-16.6051	27.511	-2.03277
  24	1	7	0.089672	-18.6981	25.7033	-1.7883
  25	1	7	0.088396	-19.689	26.8138	-0.826931
  26	1	7	0.05623	-17.8216	28.3812	-0.586565
  27	1	7	0.125955	-15.1684	28.9582	-0.31139
  28	1	8	0.456798	-14.9351	28.3464	2.09543
  29	1	9	0.198085	-13.5524	24.1037	-5.59708
  30	1	7	0.095469	-11.5722	24.2405	-4.39422
  31	1	1	-0.308877	-13.468	23.3366	-4.8179
  32	1	8	0.426958	-11.1085	25.3486	-2.20274
  33	1	6	-0.128067	-13.1817	22.1487	-5.56522
  34	1	1	0.005701	-12.3717	23.7808	-3.80652
  35	1	7	0.239394	-15.3368	25.0759	-4.95803
  36	1	5	-0.48496	-10.1017	23.869	-2.11187
  37	1	1	-0.003409	-14.234	25.5174	-3.14153
  38	1	2	0.352525	-10.7143	22.8231	-2.28309
  39	1	6	-0.665659	-11.9248	25.8171	-2.5181
  40	1	1	-0.510331	-15.2317	24.6219	-3.96403
  41	1	1	0.240953	-12.9111	24.8074	-2.75407
  42	1	4	0.015262	-14.7282	23.285	-4.14469
  43	1	4	0.176506	-11.8136	22.6505	-3.09347
  44	1	3	0.090205	-11.1046	21.1714	-0.96495
  45	1	1	-0.197476	-10.2983	21.5227	-1.61954
  46	1	1	-0.039041	-16.642	24.5325	-3.35594
  47	1	7	0.144117	-16.5998	24.0729	-2.36368
  48	1	3	0.104606	-9.38598	21.6686	-1.02662
  49	1	7	0.111943	-13.128	24.2596	-1.82668
  50	1	7	0.160853	-17.0522	25.542	-3.24059
  51	1	3	0.069306	-10.1149	20.7716	-2.39466
  52	1	4	-0.432857	-17.4826	23.7719	-4.23782
  53	1	3	0.042395	-18.2812	22.4633	-6.34718
  54	1	2	0.753764	-17.9965	24.355	-5.36229
  55	1	1	-0.122098	-18.8578	23.371	-6.13575
  56	1	3	0.030493	-19.1894	23.8175	-7.08004
  57	1	5	-0.562583	-17.8077	25.5112	-5.70921
  58	1	3	0.048272	-19.7338	23.1023	-5.53429
  59	1	4	-0.191545	-14.8227	25.9652	-1.88801
  60	1	9	0.130627	-14.6333	27.9686	-2.51184
  61	1	3	0.015236	-17.743	26.6889	1.07637
  62	1	7	0.210365	-13.9473	26.3894	-3.74464
  63	1	1	-0.218842	-21.8185	19.1622	6.48277
  64	1	2	0.68591	-20.4681	19.2387	7.17252
  65	1	3	0.086668	-21.7346	19.5671	5.46798
  66	1	3	0.071846	-22.5597	19.7417	7.04456
  67	1	3	0.062371	-22.1426	18.1172	6.42018
  68	1	4	-0.291145	-19.4957	18.6506	6.41331
  69	1	1	-0.015993	-18.1291	18.6339	6.87506
  70	1	5	-0.555985	-20.3048	19.7394	8.27448
  71	1	2	0.652223	-13.0742	20.6499	5.18774
  72	1	3	0.062504	-11.814	19.298	6.29502
  73	1	5	-0.583019	-12.869	21.5832	4.42993
  74	1	1	-0.168764	-12.1753	19.4291	5.26983
  75	1	3	0.062846	-12.7408	18.5379	4.97582
  76	1	4	-0.264747	-14.0723	20.5971	6.11467
  77	1	3	0.073216	-11.3185	19.5538	4.59756
  78	1	1	-0.015836	-16.2158	21.3414	5.1395
  79	1	1	0.044531	-15.0841	21.6339	6.15273
  80	1	1	0.341309	-15.6761	21.6677	7.57162
  81	1	1	0.132892	-16.5316	20.3917	7.87801
  82	1	6	-0.74435	-16.4281	22.8783	7.70456
  83	1	7	-0.00272	-14.8329	21.6998	8.27193
  84	1	1	-0.008403	-17.5011	20.0429	6.71628
  85	1	4	-0.239698	-16.7913	20.0637	5.4596
  86	1	7	0.089672	-17.5488	17.9116	6.28583
  87	1	7	0.088396	-18.0994	18.3082	7.92324
  88	1	7	0.05623	-18.2946	20.8018	6.69395
  89	1	7	0.125955	-14.6408	22.617	5.94878
  90	1	8	0.456798	-16.5018	23.0021	8.67555
  91	1	9	0.198085	-16.3333	24.9023	1.94639
  92	1	7	0.095469	-14.5596	24.0314	0.328952
  93	1	1	-0.308877	-16.5883	24.2981	1.06539
  94	1	8	0.426958	-13.3563	22.425	3.05252
  95	1	6	-0.128067	-16.9619	25.1547	-0.0223354
  96	1	1	0.005701	-15.3926	23.4001	0.664795
  97	1	7	0.239394	-17.9563	23.1849	3.43459
  98	1	5	-0.48496	-13.7005	21.8618	-1.00862
  99	1	1	-0.003409	-15.9175	22.5314	3.03692
 100	1	2	0.352525	-14.9116	21.8418	-1.15908
 101	1	6	-0.665659	-13.6567	22.9976	2.28928
 102	1	1	-0.510331	-17.4372	22.649	2.62797
 103	1	1	0.240953	-14.9243	22.5086	1.84576
 104	1	4	0.015262	-17.6496	23.4084	1.41802
 105	1	4	0.176506	-15.819	22.555	-0.425365
 106	1	3	0.090205	-14.845	20.5791	-2.90763
 107	1	1	-0.197476	-15.5947	20.9915	-2.22173
 108	1	1	-0.039041	-18.1656	21.2964	2.42435
 109	1	7	0.144117	-18.3289	20.8171	3.40281
 110	1	3	0.104606	-16.2994	21.6021	-2.79909
 111	1	7	0.111943	-14.827	21.4695	1.50204
 112	1	7	0.160853	-19.155	21.4423	1.96422
 113	1	3	0.069306	-16.1484	20.1727	-1.75152
 114	1	4	-0.432857	-17.3454	20.4441	1.60058
 115	1	3	0.042395	-16.8402	18.393	-0.292619
 116	1	2	0.753764	-17.6402	19.11	1.5741
 117	1	1	-0.122098	-16.6096	18.3263	0.775624
 118	1	3	0.030493	-16.62	17.2734	1.0825
 119	1	5	-0.562583	-18.5911	18.596	2.13877
 120	1	3	0.048272	-15.6089	18.7378	0.952639
 121	1	4	-0.191545	-15.7055	21.3214	3.79823
 122	1	9	0.130627	-16.9971	22.1081	5.22772
 123	1	3	0.015236	-15.8406	19.5477	8.00543
 124	1	7	0.210365	-15.6374	23.4061	3.6413
 125	1	1	-0.218842	-11.4705	20.2217	9.32495
 126	1	2	0.68591	-10.9659	21.3667	10.1857
 127	1	3	0.086668	-12.5489	20.3288	9.16833
 128	1	3	0.071846	-11.2716	19.2653	9.82219
 129	1	3	0.062371	-10.955	20.2367	8.35828
 130	1	4	-0.291145	-11.2994	21.1913	11.497
 131	1	1	-0.015993	-10.8754	22.1807	12.4584
 132	1	5	-0.555985	-10.3404	22.311	9.74072
 133	1	2	0.652223	-14.1342	26.3813	14.332
 134	1	3	0.062504	-14.9309	28.2635	13.6478
 135	1	5	-0.583019	-13.6039	26.8324	15.3342
 136	1	1	-0.168764	-14.8265	27.2347	13.2844
 137	1	3	0.062846	-14.2338	27.2352	12.3623
 138	1	4	-0.264747	-14.1824	25.0561	14.0143
 139	1	3	0.073216	-15.819	26.8252	13.0665
 140	1	1	-0.015836	-13.9753	22.6316	14.371
 141	1	1	0.044531	-13.5614	24.0533	14.863
 142	1	1	0.341309	-12.0151	24.2645	14.8468
 143	1	1	0.132892	-11.249	22.9192	14.931
 144	1	6	-0.74435	-11.6417	25.1255	15.928
 145	1	7	-0.00272	-11.7422	24.7442	13.8977
 146	1	1	-0.008403	-11.6512	21.9509	13.7796
 147	1	4	-0.239698	-13.0203	22.1607	13.4026
 148	1	7	0.089672	-11.0905	23.192	12.0848
 149	1	7	0.088396	-9.79268	22.0979	12.6157
 150	1	7	0.05623	-11.5088	20.9171	14.1189
 151	1	7	0.125955	-13.9197	24.1664	15.8947
 152	1	8	0.456798	-12.2308	25.9285	15.8499
 153	1	9	0.198085	-15.826	19.9879	10.4183
 154	1	7	0.095469	-17.7034	19.5031	11.7914
 155	1	1	-0.308877	-16.6514	20.7065	10.3298
 156	1	8	0.426958	-18.3903	20.4503	13.9714
 157	1	6	-0.128067	-17.3217	20.5148	9.07966
 158	1	1	0.005701	-17.6142	20.5684	11.5409
 159	1	7	0.239394	-14.2457	21.5018	11.0494
 160	1	5	-0.48496	-20.0028	20.4653	13.0693
 161	1	1	-0.003409	-15.5929	21.6714	12.7606
 162	1	2	0.352525	-20.0049	20.9476	11.9474
 163	1	6	-0.665659	-17.4077	20.5851	13.9634
 164	1	1	-0.510331	-15.0892	22.1423	11.3418
 165	1	1	0.240953	-17.1156	21.358	12.7987
 166	1	4	0.015262	-16.1426	22.0282	10.396
 167	1	4	0.176506	-18.9094	21.0768	11.1384
 168	1	3	0.090205	-22.1079	21.4362	11.9769
 169	1	1	-0.197476	-21.2546	21.5203	11.2933
 170	1	1	-0.039041	-14.5993	23.5982	11.2026
 171	1	7	0.144117	-15.4238	24.3192	11.3012
 172	1	3	0.104606	-21.4781	20.9662	10.3734
 173	1	7	0.111943	-17.635	22.3261	12.8401
 174	1	7	0.160853	-13.8502	23.8409	11.9635
 175	1	3	0.069306	-21.0987	22.5754	11.0389
 176	1	4	-0.432857	-13.9753	23.6728	9.90812
 177	1	3	0.042395	-12.1015	23.7396	8.09505
 178	1	2	0.753764	-13.2432	24.7834	9.59638
 179	1	1	-0.122098	-12.6512	24.6823	8.19884
 180	1	3	0.030493	-11.9654	25.5181	8.01587
 181	1	5	-0.562583	-13.0869	25.7344	10.345
 182	1	3	0.048272	-13.4567	24.7035	7.45615
 183	1	4	-0.191545	-15.2997	22.671	13.7712
 184	1	9	0.130627	-13.9889	21.9302	15.2158
 185	1	3	0.015236	-11.5366	22.4504	15.8815
 186	1	7	0.210365	-15.0927	20.732	13.0375
 187	1	1	-0.218842	-4.40531	27.2358	15.7576
 188	1	2	0.68591	-3.54452	26.4218	16.7061
 189	1	3	0.086668	-4.33641	28.2974	16.0173
 190	1	3	0.071846	-5.45075	26.9157	15.8439
 191	1	3	0.062371	-4.07005	27.0879	14.7248
 192	1	4	-0.291145	-4.05462	26.4353	17.9742
 193	1	1	-0.015993	-3.45807	25.6436	19.0278
 194	1	5	-0.555985	-2.50795	25.8697	16.373
 195	1	2	0.652223	-6.81471	22.7218	22.3281
 196	1	3	0.062504	-8.9539	22.937	22.2911
 197	1	5	-0.583019	-6.0757	22.0901	23.0659
 198	1	1	-0.168764	-8.09337	23.3999	22.7872
 199	1	3	0.062846	-8.20476	23.2956	23.8725
 200	1	4	-0.264747	-6.57654	22.9492	21.0051
 201	1	3	0.073216	-8.0648	24.4637	22.5265
 202	1	1	-0.015836	-5.54918	22.6	18.8243
 203	1	1	0.044531	-5.4187	22.3644	20.3531
 204	1	1	0.341309	-4.11406	23.0059	20.9241
 205	1	1	0.132892	-3.03997	23.2055	19.817
 206	1	6	-0.74435	-3.60921	22.2425	22.023
 207	1	7	-0.00272	-4.37142	24.0036	21.3017
 208	1	1	-0.008403	-3.63133	24.1388	18.7044
 209	1	4	-0.239698	-5.0561	23.9267	18.5495
 210	1	7	0.089672	-3.95046	25.8753	19.9809
 211	1	7	0.088396	-2.3917	25.8872	19.1257
 212	1	7	0.05623	-3.1226	23.963	17.7565
 213	1	7	0.125955	-5.39054	21.2825	20.5261
 214	1	8	0.456798	-4.38969	22.0997	22.6275
 215	1	9	0.198085	-9.22131	21.1863	14.9735
 216	1	7	0.095469	-7.28556	22.7555	14.3117
 217	1	1	-0.308877	-9.01079	22.1319	15.4882
 218	1	8	0.426958	-8.53674	24.7059	15.663
 219	1	6	-0.128067	-9.83025	23.1592	14.909
 220	1	1	0.005701	-7.50047	22.4718	15.3502
 221	1	7	0.239394	-9.70736	23.9574	17.3078
 222	1	5	-0.48496	-4.67848	22.0169	15.1043
 223	1	1	-0.003409	-7.61065	23.4743	17.7172
 224	1	2	0.352525	-5.44057	21.1263	15.4443
 225	1	6	-0.665659	-7.56798	24.8582	15.7408
 226	1	1	-0.510331	-9.12161	23.1152	17.7101
 227	1	1	0.240953	-7.06013	23.6379	16.2764
 228	1	4	0.015262	-9.31657	21.9536	16.8858
 229	1	4	0.176506	-6.78704	21.2525	15.6491
 230	1	3	0.090205	-5.52458	19.0247	14.9447
 231	1	1	-0.197476	-4.99153	19.6861	15.6368
 232	1	1	-0.039041	-9.68151	22.8048	19.1078
 233	1	7	0.144117	-9.34165	21.82	19.4629
 234	1	3	0.104606	-5.20708	19.3657	16.6617
 235	1	7	0.111943	-5.96614	23.7031	16.3006
 236	1	7	0.160853	-9.35412	23.5654	19.8322
 237	1	3	0.069306	-3.91532	19.5982	15.4514
 238	1	4	-0.432857	-11.1098	22.8428	18.9545
 239	1	3	0.042395	-14.0053	22.8366	20.572
 240	1	2	0.753764	-11.9073	22.7633	20.0561
 241	1	1	-0.122098	-13.3789	22.8277	19.6724
 242	1	3	0.030493	-13.641	21.9589	19.057
 243	1	5	-0.562583	-11.4992	22.6888	21.2036
 244	1	3	0.048272	-13.5679	23.7383	19.0918
 245	1	4	-0.191545	-6.92215	22.4101	18.4133
 246	1	9	0.130627	-4.93812	21.8618	18.2905
 247	1	3	0.015236	-2.16329	23.6984	20.2563
 248	1	7	0.210365	-7.45823	24.4233	18.2514
 249	1	1	-0.218842	3.03448	14.0562	17.0923
 250	1	2	0.68591	2.17414	14.1457	15.8453
 251	1	3	0.086668	4.09059	13.9942	16.8078
 252	1	3	0.071846	2.75992	13.1619	17.6632
 253	1	3	0.062371	2.87448	14.9412	17.7182
 254	1	4	-0.291145	0.846612	14.1211	16.1608
 255	1	1	-0.015993	-0.153843	14.1356	15.1204
 256	1	5	-0.555985	2.62984	14.1705	14.7156
 257	1	2	0.652223	-1.90615	20.0547	12.3233
 258	1	3	0.062504	-2.35237	21.8683	13.4029
 259	1	5	-0.583019	-1.46478	19.7082	11.2419
 260	1	1	-0.168764	-2.72732	21.3141	12.5347
 261	1	3	0.062846	-2.66724	21.9535	11.6463
 262	1	4	-0.264747	-1.73019	19.3553	13.479
 263	1	3	0.073216	-3.77337	21.0433	12.7131
 264	1	1	-0.015836	-0.590346	17.8481	15.0166
 265	1	1	0.044531	-0.969721	18.1116	13.525
 266	1	1	0.341309	-1.76079	16.9362	12.8716
 267	1	1	0.132892	-1.13501	15.532	13.1585
 268	1	6	-0.74435	-1.82814	17.1132	11.4507
 269	1	7	-0.00272	-2.77623	16.9563	13.2881
 270	1	1	-0.008403	-0.216939	15.5202	14.4187
 271	1	4	-0.239698	-0.738823	16.46	15.3679
 272	1	7	0.089672	-1.13448	13.9176	15.5635
 273	1	7	0.088396	0.0635589	13.3517	14.382
 274	1	7	0.05623	0.794152	15.8227	14.1179
 275	1	7	0.125955	-0.0305406	18.233	12.9692
 276	1	8	0.456798	-1.72047	18.0896	11.2632
 277	1	9	0.198085	-2.96209	22.1462	17.3093
 278	1	7	0.095469	-0.277752	21.5521	18.6007
 279	1	1	-0.308877	-2.36954	21.5421	18.0046
 280	1	8	0.426958	1.4434	21.3231	16.8787
 281	1	6	-0.128067	-2.61504	21.8914	19.3764
 282	1	1	0.005701	-0.849689	21.6425	17.6673
 283	1	7	0.239394	-1.52618	19.3816	19.1486
 284	1	5	-0.48496	1.62326	22.9635	17.3439
 285	1	1	-0.003409	-0.901934	19.1224	17.067
 286	1	2	0.352525	0.587385	23.5146	17.0115
 287	1	6	-0.665659	1.05674	20.4439	16.6164
 288	1	1	-0.510331	-1.98633	19.1623	18.1729
 289	1	1	0.240953	-0.369775	20.5333	16.68
 290	1	4	0.015262	-2.8757	20.2164	17.8141
 291	1	4	0.176506	-0.660791	22.9598	17.0978
 292	1	3	0.090205	1.57511	25.3156	16.347
 293	1	1	-0.197476	0.554128	24.9285	16.4492
 294	1	1	-0.039041	-2.7929	17.8499	18.2969
 295	1	7	0.144117	-3.58273	17.7884	17.5335
 296	1	3	0.104606	-0.00580117	25.5845	17.1259
 297	1	7	0.111943	-0.773699	20.7819	15.6884
 298	1	7	0.160853	-2.12622	16.9869	18.1497
 299	1	3	0.069306	0.065453	24.9384	15.4675
 300	1	4	-0.432857	-3.33452	17.8157	19.6312
 301	1	3	0.042395	-5.5603	19.0804	21.7429
 302	1	2	0.753764	-4.44445	18.5407	19.9729
 303	1	1	-0.122098	-4.73359	18.4181	21.4608
 304	1	3	0.030493	-3.84167	18.6944	22.0359
 305	1	5	-0.562583	-5.18037	19.1301	19.1959
 306	1	3	0.048272	-5.00054	17.3823	21.6989
 307	1	4	-0.191545	-1.49732	18.539	15.8922
 308	1	9	0.130627	0.44159	18.1828	15.1944
 309	1	3	0.015236	-0.485456	15.255	12.3186
 310	1	7	0.210365	-0.0624491	18.5007	17.4132
 311	1	1	-0.218842	-1.47265	13.0485	5.7107
 312	1	2	0.68591	-2.90516	12.5692	5.56331
 313	1	3	0.086668	-0.794681	12.3048	5.27636
 314	1	3	0.071846	-1.22852	13.1712	6.77202
 315	1	3	0.062371	-1.34199	14.0068	5.1955
 316	1	4	-0.291145	-3.16693	11.5258	6.40039
 317	1	1	-0.015993	-4.48574	10.9398	6.3948
 318	1	5	-0.555985	-3.70442	13.0374	4.77229
 319	1	2	0.652223	-2.12394	7.12932	11.3541
 320	1	3	0.062504	-0.762162	8.39236	12.4583
 321	1	5	-0.583019	-2.28857	6.0358	10.8411
 322	1	1	-0.168764	-1.17531	7.37823	12.5129
 323	1	3	0.062846	-1.71569	7.26914	13.4598
 324	1	4	-0.264747	-2.72867	8.27643	10.9295
 325	1	3	0.073216	-0.352021	6.65575	12.4788
 326	1	1	-0.015836	-4.47261	9.63358	9.84114
 327	1	1	0.044531	-3.66477	8.29141	9.81785
 328	1	1	0.341309	-2.89822	8.06245	8.47258
 329	1	1	0.132892	-3.66886	8.52829	7.19773
 330	1	6	-0.74435	-2.56986	6.67973	8.31558
 331	1	7	-0.00272	-1.97025	8.64653	8.53124
 332	1	1	-0.008403	-4.5483	9.80037	7.44148
 333	1	4	-0.239698	-4.18116	10.4114	8.68021
 334	1	7	0.089672	-4.74205	10.5638	5.39703
 335	1	7	0.088396	-5.22653	11.707	6.65991
 336	1	7	0.05623	-5.5958	9.477	7.50616
 337	1	7	0.125955	-4.38634	7.47191	9.93636
 338	1	8	0.456798	-2.37329	6.31079	9.22228
 339	1	9	0.198085	-3.63563	14.9477	11.9041
 340	1	7	0.095469	-1.17874	13.2895	11.2858
 341	1	1	-0.308877	-2.98053	14.1135	12.194
 342	1	8	0.426958	-2.53652	11.3161	8.67955
 343	1	6	-0.128067	-2.1575	14.525	13.3
 344	1	1	0.005701	-2.17388	13.6028	10.9489
 345	1	7	0.239394	-2.15557	11.9128	13.1453
 346	1	5	-0.48496	-4.23233	14.9898	9.44539
 347	1	1	-0.003409	-3.04969	11.2141	11.2936
 348	1	2	0.352525	-3.04649	15.2317	9.28814
 349	1	6	-0.665659	-1.9706	11.9158	9.22073
 350	1	1	-0.510331	-3.16855	11.7676	12.7468
 351	1	1	0.240953	-2.82684	12.3683	10.2729
 352	1	4	0.015262	-3.82674	13.0493	12.6824
 353	1	4	0.176506	-2.00176	14.6482	9.96055
 354	1	3	0.090205	-1.97468	17.0318	8.75755
 355	1	1	-0.197476	-2.55508	16.245	8.26179
 356	1	1	-0.039041	-3.94924	10.8491	13.7161
 357	1	7	0.144117	-5.02283	11.0813	13.6609
 358	1	3	0.104606	-3.41327	16.7019	7.75542
 359	1	7	0.111943	-3.8131	12.6591	9.88651
 360	1	7	0.160853	-3.82152	9.78958	13.4453
 361	1	3	0.069306	-1.91952	15.7508	7.51787
 362	1	4	-0.432857	-3.44963	11.0831	15.0471
 363	1	3	0.042395	-2.6858	10.6425	17.5273
 364	1	2	0.753764	-2.23812	10.5717	15.4218
 365	1	1	-0.122098	-1.88702	10.9629	16.8487
 366	1	3	0.030493	-1.77911	12.051	16.9218
 367	1	5	-0.562583	-1.5325	9.85962	14.7247
 368	1	3	0.048272	-0.946318	10.4859	17.1472
 369	1	4	-0.191545	-4.26578	10.4461	11.03
 370	1	9	0.130627	-5.54088	9.38062	9.81722
 371	1	3	0.015236	-4.35345	7.71722	6.91099
 372	1	7	0.210365	-2.16738	10.5644	11.248
 373	1	1	-0.218842	2.98359	4.286	1.75209
 374	1	2	0.68591	2.88045	5.78031	1.51189
 375	1	3	0.086668	2.27752	3.76089	1.10049
 376	1	3	0.071846	2.74207	4.06737	2.79868
 377	1	3	0.062371	4.00328	3.94869	1.54609
 378	1	4	-0.291145	2.91019	6.08022	0.173576
 379	1	1	-0.015993	2.69375	7.45293	-0.237294
 380	1	5	-0.555985	2.82851	6.59055	2.41861
 381	1	2	0.652223	-2.53902	5.07151	-1.63269
 382	1	3	0.062504	-2.54084	2.93929	-1.21534
 383	1	5	-0.583019	-3.34856	5.73273	-2.26027
 384	1	1	-0.168764	-2.20866	3.62881	-1.99362
 385	1	3	0.062846	-2.71415	3.36156	-2.92898
 386	1	4	-0.264747	-1.71213	5.57877	-0.657815
 387	1	3	0.073216	-1.12876	3.5205	-2.12988
 388	1	1	-0.015836	-0.933197	7.48139	0.797474
 389	1	1	0.044531	-1.68896	7.0213	-0.482598
 390	1	1	0.341309	-0.996337	7.64638	-1.72634
 391	1	1	0.132892	0.540875	7.40577	-1.71292
 392	1	6	-0.74435	-1.30852	9.04162	-1.79184
 393	1	7	-0.00272	-1.39233	7.19105	-2.64073
 394	1	1	-0.008403	1.17663	7.77873	-0.34738
 395	1	4	-0.239698	0.451628	7.1198	0.710373
 396	1	7	0.089672	3.16607	7.62638	-1.21258
 397	1	7	0.088396	3.16405	8.14291	0.477077
 398	1	7	0.05623	1.06805	8.86465	-0.22397
 399	1	7	0.125955	-2.71873	7.39341	-0.431487
 400	1	8	0.456798	-1.67723	9.1831	-2.68516
 401	1	9	0.198085	-4.20663	8.52461	4.74222
 402	1	7	0.095469	-2.38757	10.314	4.17992
 403	1	1	-0.308877	-3.12251	8.37551	4.818
 404	1	8	0.426958	-0.705117	8.77574	5.39714
 405	1	6	-0.128067	-2.70454	8.71801	6.14737
 406	1	1	0.005701	-2.40678	9.29322	3.78361
 407	1	7	0.239394	-0.968462	6.82028	5.37995
 408	1	5	-0.48496	-2.04828	11.105	1.68442
 409	1	1	-0.003409	-0.830601	7.35064	3.25679
 410	1	2	0.352525	-2.93781	10.273	1.62589
 411	1	6	-0.665659	-0.189948	9.20014	4.67728
 412	1	1	-0.510331	-1.48727	6.58305	4.44025
 413	1	1	0.240953	-0.93876	8.87557	3.51001
 414	1	4	0.015262	-2.86771	6.98102	4.54294
 415	1	4	0.176506	-3.1882	9.31661	2.57239
 416	1	3	0.090205	-4.13398	9.14756	0.212787
 417	1	1	-0.197476	-3.90456	10.1913	0.454698
 418	1	1	-0.039041	-1.42407	5.05666	4.2654
 419	1	7	0.144117	-2.33021	4.69538	3.75955
 420	1	3	0.104606	-3.45381	10.6699	-0.423224
 421	1	7	0.111943	-0.516718	9.43249	2.66415
 422	1	7	0.160853	-0.549067	4.78745	3.65658
 423	1	3	0.069306	-4.83613	10.7107	0.7093
 424	1	4	-0.432857	-1.28493	4.46975	5.57189
 425	1	3	0.042395	-1.06547	4.05319	8.03608
 426	1	2	0.753764	-2.3878	4.18556	6.3321
 427	1	1	-0.122098	-1.98102	3.57559	7.66736
 428	1	3	0.030493	-1.79493	2.50201	7.54545
 429	1	5	-0.562583	-3.53695	4.18966	5.92281
 430	1	3	0.048272	-2.77938	3.72662	8.4027
 431	1	4	-0.191545	-1.50629	6.96728	2.02042
 432	1	9	0.130627	-0.989913	8.57702	0.819607
 433	1	3	0.015236	0.980454	8.07121	-2.46676
 434	1	7	0.210365	0.241039	7.09848	3.19602
 435	1	1	-0.218842	-0.556174	1.82748	-12.7867
 436	1	2	0.68591	0.947796	1.69888	-12.636
 437	1	3	0.086668	-0.775347	2.47161	-13.6454
 438	1	3	0.071846	-0.998962	2.26968	-11.8867
 439	1	3	0.062371	-0.995141	0.837499	-12.9535
 440	1	4	-0.291145	1.37537	2.03293	-11.384
 441	1	1	-0.015993	2.79034	1.98955	-11.1152
 442	1	5	-0.555985	1.66147	1.2162	-13.5
 443	1	2	0.652223	5.4201	5.91554	-7.0791
 444	1	3	0.062504	6.72216	7.15969	-8.25931
 445	1	5	-0.583019	5.44585	5.65283	-5.88855
 446	1	1	-0.168764	5.82289	7.26903	-7.6425
 447	1	3	0.062846	5.01482	7.6754	-8.26093
 448	1	4	-0.264747	5.05632	5.0453	-8.06721
 449	1	3	0.073216	6.03126	7.96549	-6.8211
 450	1	1	-0.015836	3.09908	3.5593	-7.76297
 451	1	1	0.044531	4.64765	3.69425	-7.72865
 452	1	1	0.341309	5.34124	2.74786	-8.74559
 453	1	1	0.132892	4.44781	1.53465	-9.13359
 454	1	6	-0.74435	6.57382	2.30497	-8.17038
 455	1	7	-0.00272	5.55278	3.31608	-9.66148
 456	1	1	-0.008403	3.00985	1.97964	-9.58424
 457	1	4	-0.239698	2.71527	3.32446	-9.125
 458	1	7	0.089672	3.29867	2.85074	-11.5702
 459	1	7	0.088396	3.20295	1.07795	-11.561
 460	1	7	0.05623	2.2913	1.27956	-9.13865
 461	1	7	0.125955	5.00002	3.41856	-6.7257
 462	1	8	0.456798	7.1457	2.03359	-8.91248
 463	1	9	0.198085	2.39189	6.53473	-3.31143
 464	1	7	0.095469	1.15203	3.7357	-3.22308
 465	1	1	-0.308877	1.53618	5.85004	-3.28045
 466	1	8	0.426958	1.85971	2.27017	-4.71438
 467	1	6	-0.128067	0.83513	6.03669	-2.05181
 468	1	1	0.005701	2.00675	4.39282	-3.42487
 469	1	7	0.239394	0.50503	6.42066	-6.41326
 470	1	5	-0.48496	2.42726	2.02613	-1.98081
 471	1	1	-0.003409	1.72778	4.67045	-5.98761
 472	1	2	0.352525	3.25905	2.92148	-1.96971
 473	1	6	-0.665659	2.7379	2.67764	-4.93841
 474	1	1	-0.510331	1.26704	6.12785	-5.6771
 475	1	1	0.240953	2.59419	4.09168	-4.82691
 476	1	4	0.015262	0.652288	6.14019	-4.37457
 477	1	4	0.176506	3.08204	4.17231	-2.49331
 478	1	3	0.090205	5.40045	3.17213	-2.08155
 479	1	1	-0.197476	4.65748	2.74872	-1.39359
 480	1	1	-0.039041	2.4196	7.16926	-5.73226
 481	1	7	0.144117	3.31019	6.78515	-5.21461
 482	1	3	0.104606	4.8758	1.68257	-1.25803
 483	1	7	0.111943	3.57928	4.56883	-4.88541
 484	1	7	0.160853	2.71573	7.37188	-6.77187
 485	1	3	0.069306	4.74332	3.26429	-0.434254
 486	1	4	-0.432857	1.9613	8.37701	-5.0928
 487	1	3	0.042395	2.1642	10.2056	-2.8921
 488	1	2	0.753764	2.88691	9.30753	-4.71056
 489	1	1	-0.122098	2.25178	10.4644	-3.95381
 490	1	3	0.030493	1.25146	10.6772	-4.34882
 491	1	5	-0.562583	4.08944	9.1837	-4.86679
 492	1	3	0.048272	2.8763	11.3593	-4.05513
 493	1	4	-0.191545	2.47023	4.75069	-7.23746
 494	1	9	0.130627	2.78479	2.68337	-7.19182
 495	1	3	0.015236	4.33485	0.924889	-8.2262
 496	1	7	0.210365	0.840537	4.03035	-6.11304
 497	1	1	-0.218842	8.34157	-7.70592	-5.60997
 498	1	2	0.68591	9.51842	-7.17438	-6.40639
 499	1	3	0.086668	8.54821	-7.59381	-4.5401
 500	1	3	0.071846	8.18251	-8.76576	-5.83835
 501	1	3	0.062371	7.43808	-7.14316	-5.86914
 502	1	4	-0.291145	9.56418	-7.7261	-7.65578
 503	1	1	-0.015993	10.5963	-7.34869	-8.59456
 504	1	5	-0.555985	10.335	-6.39829	-5.94081
 505	1	2	0.652223	9.42666	-3.95609	-13.5898
 506	1	3	0.062504	7.8396	-5.19946	-14.3673
 507	1	5	-0.583019	10.3593	-3.18017	-13.7384
 508	1	1	-0.168764	8.6557	-4.57124	-14.7439
 509	1	3	0.062846	8.23306	-3.77399	-15.3648
 510	1	4	-0.264747	9.00279	-4.4343	-12.3837
 511	1	3	0.073216	9.33296	-5.18739	-15.3449
 512	1	1	-0.015836	8.7776	-4.39522	-9.95634
 513	1	1	0.044531	9.63697	-3.9701	-11.1694
 514	1	1	0.341309	11.0884	-4.52988	-11.1721
 515	1	1	0.132892	11.5826	-5.27748	-9.88466
 516	1	6	-0.74435	11.9428	-3.43405	-11.5272
 517	1	7	-0.00272	11.1346	-5.27159	-11.9792
 518	1	1	-0.008403	10.4175	-5.86478	-9.01153
 519	1	4	-0.239698	9.13041	-5.75579	-9.66763
 520	1	7	0.089672	10.5337	-7.98472	-9.48729
 521	1	7	0.088396	11.5838	-7.49748	-8.13626
 522	1	7	0.05623	10.3885	-5.25766	-8.09936
 523	1	7	0.125955	9.68444	-2.87402	-11.1785
 524	1	8	0.456798	11.6273	-3.1657	-12.4339
 525	1	9	0.198085	3.93625	-0.900255	-9.73549
 526	1	7	0.095469	5.70825	-0.590332	-12.1225
 527	1	1	-0.308877	4.95424	-0.674328	-10.0776
 528	1	8	0.426958	6.15204	-2.55958	-13.503
 529	1	6	-0.128067	5.11144	0.751898	-10.1511
 530	1	1	0.005701	5.17512	-1.32007	-11.4971
 531	1	7	0.239394	6.70369	-2.83745	-8.17061
 532	1	5	-0.48496	4.54526	-2.1681	-14.159
 533	1	1	-0.003409	6.85224	-2.90185	-10.3207
 534	1	2	0.352525	3.66041	-1.95629	-13.3456
 535	1	6	-0.665659	6.77699	-2.6386	-12.7342
 536	1	1	-0.510331	6.06261	-2.58237	-9.02721
 537	1	1	0.240953	5.96604	-2.67452	-11.5623
 538	1	4	0.015262	5.87157	-1.16315	-9.07543
 539	1	4	0.176506	3.85258	-1.53636	-12.0538
 540	1	3	0.090205	2.05623	-2.38903	-14.723
 541	1	1	-0.197476	2.18907	-2.20804	-13.6493
 542	1	1	-0.039041	4.68132	-3.27587	-8.8465
 543	1	7	0.144117	4.05104	-2.69573	-8.15715
 544	1	3	0.104606	1.58512	-1.34027	-13.3647
 545	1	7	0.111943	5.26791	-3.52122	-11.6193
 546	1	7	0.160853	4.13109	-3.35047	-9.79323
 547	1	3	0.069306	1.83205	-3.08315	-13.0931
 548	1	4	-0.432857	4.88092	-4.58391	-8.29786
 549	1	3	0.042395	5.18673	-7.03539	-7.85509
 550	1	2	0.753764	3.80157	-5.422	-8.23975
 551	1	1	-0.122098	4.15737	-6.75444	-7.59843
 552	1	3	0.030493	3.47722	-7.54029	-7.94739
 553	1	5	-0.562583	2.67559	-5.11347	-8.61645
 554	1	3	0.048272	4.07999	-6.66393	-6.50905
 555	1	4	-0.191545	7.35882	-4.26242	-10.256
 556	1	9	0.130627	9.01695	-3.77859	-9.07977
 557	1	3	0.015236	12.0863	-4.53574	-9.2507
 558	1	7	0.210365	7.68602	-2.19344	-10.4198
 559	1	1	-0.218842	18.6902	-13.6176	-13.0642
 560	1	2	0.68591	18.0982	-12.9271	-14.281
 561	1	3	0.086668	19.7663	-13.7541	-13.2175
 562	1	3	0.071846	18.2166	-14.5965	-12.9281
 563	1	3	0.062371	18.5311	-13.0092	-12.1668
 564	1	4	-0.291145	18.3609	-11.5879	-14.2788
 565	1	1	-0.015993	17.9679	-10.8125	-15.4281
 566	1	5	-0.555985	17.456	-13.5106	-15.136
 567	1	2	0.652223	16.0341	-5.32292	-16.7651
 568	1	3	0.062504	14.374	-4.35825	-17.7372
 569	1	5	-0.583019	16.8566	-4.4383	-16.9153
 570	1	1	-0.168764	14.7157	-5.37652	-17.5187
 571	1	3	0.062846	14.8532	-5.92392	-18.4574
 572	1	4	-0.264747	16.1766	-6.37414	-15.907
 573	1	3	0.073216	13.9539	-5.88845	-16.9204
 574	1	1	-0.015836	17.1342	-7.47179	-13.9315
 575	1	1	0.044531	17.3849	-6.48799	-15.1124
 576	1	1	0.341309	18.56	-6.9484	-16.0087
 577	1	1	0.132892	18.3289	-8.44183	-16.3961
 578	1	6	-0.74435	19.7667	-6.71298	-15.2644
 579	1	7	-0.00272	18.5866	-6.34385	-16.9229
 580	1	1	-0.008403	18.2134	-9.31899	-15.1231
 581	1	4	-0.239698	17.0572	-8.83909	-14.3985
 582	1	7	0.089672	16.9076	-10.9735	-15.6653
 583	1	7	0.088396	18.5651	-11.1338	-16.2911
 584	1	7	0.05623	19.1217	-9.21251	-14.5151
 585	1	7	0.125955	17.6401	-5.50587	-14.6954
 586	1	8	0.456798	20.505	-6.64629	-15.905
 587	1	9	0.198085	13.7215	-4.76531	-10.9745
 588	1	7	0.095469	15.1318	-6.30967	-9.43509
 589	1	1	-0.308877	13.6894	-5.86128	-11.0189
 590	1	8	0.426958	13.841	-8.452	-10.3283
 591	1	6	-0.128067	12.5794	-6.29058	-10.208
 592	1	1	0.005701	15.0902	-6.34267	-10.5317
 593	1	7	0.239394	12.9707	-8.22447	-12.1539
 594	1	5	-0.48496	17.7961	-6.00994	-9.74349
 595	1	1	-0.003409	15.1256	-7.96757	-12.5011
 596	1	2	0.352525	17.3188	-5.32698	-10.6332
 597	1	6	-0.665659	14.7744	-8.71872	-10.231
 598	1	1	-0.510331	13.6393	-7.59189	-12.7513
 599	1	1	0.240953	15.4892	-7.76619	-11.0129
 600	1	4	0.015262	13.4652	-6.21069	-12.399
 601	1	4	0.176506	16.0242	-5.3786	-11.0625
 602	1	3	0.090205	19.1845	-4.37127	-11.1439
 603	1	1	-0.197476	18.1241	-4.29716	-11.4131
 604	1	1	-0.039041	13.2462	-7.74773	-14.2302
 605	1	7	0.144117	12.2236	-7.38263	-14.4044
 606	1	3	0.104606	17.7638	-3.28766	-11.1833
 607	1	7	0.111943	16.5685	-7.92834	-10.8816
 608	1	7	0.160853	13.9277	-7.1652	-14.8671
 609	1	3	0.069306	18.0178	-4.47393	-12.4903
 610	1	4	-0.432857	13.3345	-9.15034	-14.5343
 611	1	3	0.042395	12.5474	-11.4787	-15.3256
 612	1	2	0.753764	13.3232	-9.53724	-15.8445
 613	1	1	-0.122098	13.3197	-11.053	-15.9772
 614	1	3	0.030493	14.2938	-11.4588	-15.6804
 615	1	5	-0.562583	13.2751	-8.77056	-16.7929
 616	1	3	0.048272	13.1067	-11.3375	-17.0142
 617	1	4	-0.191545	15.9005	-7.0561	-13.3153
 618	1	9	0.130627	17.9574	-7.39549	-13.2087
 619	1	3	0.015236	17.3459	-8.48753	-16.8834
 620	1	7	0.210365	15.3033	-9.0158	-12.7856
 621	1	1	-0.218842	30.4303	-7.97561	-20.8162
 622	1	2	0.68591	29.6823	-8.31345	-19.5378
 623	1	3	0.086668	30.7165	-8.90361	-21.3231
 624	1	3	0.071846	31.3327	-7.40017	-20.5793
 625	1	3	0.062371	29.7874	-7.38892	-21.4819
 626	1	4	-0.291145	28.5388	-9.01155	-19.7984
 627	1	1	-0.015993	27.7437	-9.47842	-18.6888
 628	1	5	-0.555985	30.0394	-7.94492	-18.4327
 629	1	2	0.652223	22.6727	-11.9101	-22.5027
 630	1	3	0.062504	20.9797	-13.1503	-22.985
 631	1	5	-0.583019	23.4206	-12.3887	-23.334
 632	1	1	-0.168764	21.1898	-12.2285	-22.4304