pySIMM System Object

3100 atoms
3199 bonds
5896 angles
8188 dihedrals
200 impropers

9 atom types
10 bond types
23 angle types
20 dihedral types
1 improper types

-215.588837 215.588837 xlo xhi
-215.588837 215.588837 ylo yhi
-215.588837 215.588837 zlo zhi

Masses

   1	12.01	# c3
   2	12.01	# c
   3	1.008	# hc
   4	16.0	# os
   5	16.0	# o
   6	16.0	# oh
   7	1.008	# h1
   8	1.008	# ho
   9	1.008	# h2

Pair Coeffs

   1	0.1094	3.3996695084235347	# c3
   2	0.086	3.3996695084235347	# c
   3	0.0157	2.649532787749369	# hc
   4	0.17	3.0000123434657784	# os
   5	0.21	2.959921901149463	# o
   6	0.2104	3.0664733878390478	# oh
   7	0.0157	2.471353044121301	# h1
   8	0.0047	0.5379246460131368	# ho
   9	0.0157	2.2931733004932333	# h2

Bond Coeffs

   1	331.7	1.0961	# c3,h2
   2	637.7	1.2183	# c,o
   3	300.9	1.5375	# c3,c3
   4	330.6	1.0969	# c3,hc
   5	316.7	1.4233	# c3,oh
   6	330.6	1.0969	# c3,h1
   7	371.4	0.973	# ho,oh
   8	308.6	1.4316	# c3,os
   9	313.0	1.5241	# c,c3
  10	390.8	1.3584	# c,os

Angle Coeffs

   1	46.93	108.77	# c,c3,hc
   2	67.4	123.2	# c3,c,o
   3	68.0	107.97	# c3,c3,os
   4	46.39	109.56	# c3,c3,h1
   5	46.25	110.22	# c3,c3,h2
   6	62.86	111.51	# c3,c3,c3
   7	68.89	110.72	# c3,c,os
   8	72.58	109.38	# oh,c3,os
   9	75.32	123.25	# o,c,os
  10	67.47	110.19	# c3,c3,oh
  11	46.34	109.8	# c3,c3,hc
  12	47.38	107.26	# c3,oh,ho
  13	39.24	108.46	# h1,c3,h1
  14	50.85	109.58	# h2,c3,os
  15	72.74	108.29	# os,c3,os
  16	50.8	109.78	# h1,c3,os
  17	63.28	115.98	# c,os,c3
  18	62.7	112.48	# c3,os,c3
  19	50.93	110.26	# h1,c3,oh
  20	39.4	107.58	# hc,c3,hc
  21	51.13	109.43	# h2,c3,oh
  22	51.11	109.5	# hc,c3,oh
  23	62.7	112.48	# c3,oh,c3

Dihedral Coeffs

   1	3	0.18	3	0	0.25	2	180	0.2	1	180	# c3,c3,c3,c3
   2	1	0.3833333333333333	3	0	# X,c3,os,X
   3	2	0.144	3	0	1.175	2	0	# os,c3,c3,oh
   4	3	0.1	3	0	0.85	2	180	1.35	1	180	# c3,os,c3,os
   5	2	0.144	3	0	1.175	2	0	# os,c3,c3,os
   6	3	2.7	2	180	0.0	1	0	1.15	3	0	# c3,c,os,c3
   7	2	0.0	3	0	0.25	1	0	# hc,c3,c3,oh
   8	1	0.16	3	0	# hc,c3,c3,c3
   9	1	0.15555555555555556	3	0	# X,c3,c3,X
  10	2	0.16	3	0	0.25	1	0	# ho,oh,c3,c3
  11	2	0.383	3	0	0.8	1	180	# c3,c3,os,c
  12	1	0.0	2	180	# X,c,c3,X
  13	2	2.7	2	180	1.4	1	180	# o,c,os,c3
  14	2	0.0	3	0	0.25	1	0	# hc,c3,c3,os
  15	2	0.0	3	0	0.25	1	0	# h1,c3,c3,oh
  16	1	0.16666666666666666	3	0	# X,c3,oh,X
  17	3	0.8	1	0	0.0	2	0	0.08	3	180	# hc,c3,c,o
  18	2	0.0	3	0	0.25	1	0	# h1,c3,c3,os
  19	2	0.383	3	0	0.1	2	180	# c3,c3,os,c3
  20	2	0.144	3	0	1.175	2	0	# oh,c3,c3,oh

Improper Coeffs

   1	10.5	-1	2	# c,X,X,o

Atoms

   1	1	1	-0.218842	-118.428	-123.101	-46.6762
   2	1	2	0.68591	-118.778	-123.639	-45.3012
   3	1	3	0.086668	-117.354	-123.218	-46.8536
   4	1	3	0.071846	-118.698	-122.042	-46.7408
   5	1	3	0.062371	-118.981	-123.663	-47.4387
   6	1	4	-0.291145	-118.417	-124.949	-45.1749
   7	1	1	-0.015993	-118.707	-125.642	-43.9438
   8	1	5	-0.555985	-119.306	-122.966	-44.4313
   9	1	2	0.652223	-120.159	-132.167	-44.6358
  10	1	3	0.062504	-121.608	-133.143	-45.8945
  11	1	5	-0.583019	-119.067	-132.448	-44.1698
  12	1	1	-0.168764	-121.273	-133.176	-44.8517
  13	1	3	0.062846	-120.917	-134.185	-44.6148
  14	1	4	-0.264747	-120.547	-130.913	-45.0004
  15	1	3	0.073216	-122.12	-132.928	-44.2022
  16	1	1	-0.015836	-120.425	-128.571	-45.4712
  17	1	1	0.044531	-119.685	-129.76	-44.8248
  18	1	1	0.341309	-119.381	-129.505	-43.3226
  19	1	1	0.132892	-119.178	-127.994	-42.9748
  20	1	6	-0.74435	-118.229	-130.253	-42.9219
  21	1	7	-0.00272	-120.238	-129.889	-42.7571
  22	1	1	-0.008403	-118.745	-127.166	-44.2224
  23	1	4	-0.239698	-119.609	-127.386	-45.373
  24	1	7	0.089672	-119.677	-125.315	-43.5487
  25	1	7	0.088396	-117.945	-125.412	-43.188
  26	1	7	0.05623	-117.732	-127.49	-44.4927
  27	1	7	0.125955	-118.737	-129.909	-45.3569
  28	1	8	0.456798	-118.377	-131.181	-43.2617
  29	1	9	0.198085	-125.31	-126.969	-46.7795
  30	1	7	0.095469	-125.754	-129.209	-46.1928
  31	1	1	-0.308877	-125.518	-127.116	-45.7123
  32	1	8	0.426958	-124.405	-130.927	-45.1307
  33	1	6	-0.128067	-126.824	-126.612	-45.4424
  34	1	1	0.005701	-125.388	-128.618	-45.3438
  35	1	7	0.239394	-123.192	-126.139	-46.5146
  36	1	5	-0.48496	-125.999	-131.18	-44.324
  37	1	1	-0.003409	-122.839	-128.079	-45.5631
  38	1	2	0.352525	-126.426	-130.178	-43.7694
  39	1	6	-0.665659	-123.697	-130.354	-45.5265
  40	1	1	-0.510331	-123.219	-126.553	-45.4955
  41	1	1	0.240953	-123.927	-129.039	-45.0117
  42	1	4	0.015262	-124.544	-126.389	-44.9623
  43	1	4	0.176506	-126.204	-128.889	-44.1788
  44	1	3	0.090205	-126.737	-129.884	-41.656
  45	1	1	-0.197476	-127.301	-130.242	-42.5249
  46	1	1	-0.039041	-122.265	-125.692	-44.6358
  47	1	7	0.144117	-122.224	-126.076	-43.6117
  48	1	3	0.104606	-127.612	-131.277	-42.3438
  49	1	7	0.111943	-123.816	-129.038	-43.9178
  50	1	7	0.160853	-121.249	-125.737	-45.0463
  51	1	3	0.069306	-128.191	-129.615	-42.6528
  52	1	4	-0.432857	-122.711	-124.325	-44.6376
  53	1	3	0.042395	-124.042	-122.148	-45.2662
  54	1	2	0.753764	-122.437	-123.516	-45.7053
  55	1	1	-0.122098	-122.967	-122.109	-45.4782
  56	1	3	0.030493	-122.795	-121.49	-46.3667
  57	1	5	-0.562583	-121.823	-123.855	-46.7053
  58	1	3	0.048272	-122.453	-121.661	-44.6202
  59	1	4	-0.191545	-121.664	-128.35	-44.7633
  60	1	9	0.130627	-120.622	-128.794	-46.5266
  61	1	3	0.015236	-118.365	-127.915	-42.2411
  62	1	7	0.210365	-122.674	-128.372	-46.6086
  63	1	1	-0.218842	-119.446	-124.96	-32.2701
  64	1	2	0.68591	-120.051	-126.351	-32.2128
  65	1	3	0.086668	-119.311	-124.66	-33.3144
  66	1	3	0.071846	-118.479	-124.951	-31.7563
  67	1	3	0.062371	-120.123	-124.25	-31.7807
  68	1	4	-0.291145	-121.195	-126.422	-32.956
  69	1	1	-0.015993	-121.942	-127.651	-33.0204
  70	1	5	-0.555985	-119.551	-127.273	-31.5879
  71	1	2	0.652223	-123.705	-131.764	-36.7852
  72	1	3	0.062504	-124.891	-133.233	-35.7522
  73	1	5	-0.583019	-123.354	-131.749	-37.952
  74	1	1	-0.168764	-125.045	-132.318	-36.3335
  75	1	3	0.062846	-125.57	-131.587	-35.7134
  76	1	4	-0.264747	-122.941	-131.359	-35.7279
  77	1	3	0.073216	-125.665	-132.553	-37.2064
  78	1	1	-0.015836	-121.633	-129.33	-36.3323
  79	1	1	0.044531	-121.605	-130.838	-35.9615
  80	1	1	0.341309	-120.772	-131.047	-34.6738
  81	1	1	0.132892	-121.193	-130.052	-33.5507
  82	1	6	-0.74435	-119.387	-130.91	-35.0
  83	1	7	-0.00272	-120.944	-132.071	-34.3193
  84	1	1	-0.008403	-121.314	-128.599	-34.0667
  85	1	4	-0.239698	-122.167	-128.587	-35.227
  86	1	7	0.089672	-122.978	-127.434	-33.3099
  87	1	7	0.088396	-121.968	-128.122	-32.0285
  88	1	7	0.05623	-120.314	-128.235	-34.3384
  89	1	7	0.125955	-121.112	-131.403	-36.7644
  90	1	8	0.456798	-118.921	-131.068	-34.1526
  91	1	9	0.198085	-120.223	-128.903	-40.9036
  92	1	7	0.095469	-122.511	-128.91	-42.0345
  93	1	1	-0.308877	-120.78	-127.98	-41.1137
  94	1	8	0.426958	-123.242	-130.817	-39.35
  95	1	6	-0.128067	-120.342	-127.414	-42.3534
  96	1	1	0.005701	-122.299	-128.264	-41.1736
  97	1	7	0.239394	-119.928	-127.815	-38.2415
  98	1	5	-0.48496	-125.057	-127.887	-41.7361
  99	1	1	-0.003409	-121.743	-128.905	-38.7412
 100	1	2	0.352525	-124.306	-126.931	-41.6342
 101	1	6	-0.665659	-123.084	-130.318	-40.2008
 102	1	1	-0.510331	-120.893	-127.579	-38.7125
 103	1	1	0.240953	-122.799	-128.955	-39.8774
 104	1	4	0.015262	-120.585	-127.066	-40.029
 105	1	4	0.176506	-122.97	-126.997	-41.3536
 106	1	3	0.090205	-125.87	-125.443	-41.6598
 107	1	1	-0.197476	-124.781	-125.491	-41.7759
 108	1	1	-0.039041	-121.519	-126.403	-37.9164
 109	1	7	0.144117	-121.512	-126.63	-36.8393
 110	1	3	0.104606	-124.514	-125.102	-42.7634
 111	1	7	0.111943	-123.709	-128.454	-39.5213
 112	1	7	0.160853	-120.921	-125.488	-38.0518
 113	1	3	0.069306	-124.305	-124.856	-41.0218
 114	1	4	-0.432857	-122.876	-126.174	-38.3519
 115	1	3	0.042395	-125.085	-124.255	-38.8682
 116	1	2	0.753764	-123.612	-125.251	-37.6565
 117	1	1	-0.122098	-125.029	-125.118	-38.1954
 118	1	3	0.030493	-125.732	-124.967	-37.3671
 119	1	5	-0.562583	-123.202	-124.627	-36.6933
 120	1	3	0.048272	-125.315	-126.021	-38.7466
 121	1	4	-0.191545	-122.444	-129.069	-37.4896
 122	1	9	0.130627	-120.606	-128.987	-36.5139
 123	1	3	0.015236	-122.177	-130.356	-33.1833
 124	1	7	0.210365	-121.073	-129.762	-38.9073
 125	1	1	-0.218842	-122.239	-136.791	-33.4364
 126	1	2	0.68591	-122.603	-137.26	-32.0402
 127	1	3	0.086668	-121.74	-135.82	-33.3674
 128	1	3	0.071846	-123.144	-136.693	-34.0462
 129	1	3	0.062371	-121.559	-137.509	-33.9107
 130	1	4	-0.291145	-121.537	-137.827	-31.4083
 131	1	1	-0.015993	-121.615	-138.29	-30.0388
 132	1	5	-0.555985	-123.731	-137.165	-31.5866
 133	1	2	0.652223	-116.9	-137.557	-28.3469
 134	1	3	0.062504	-115.049	-138.43	-29.0265
 135	1	5	-0.583019	-116.825	-137.996	-27.209
 136	1	1	-0.168764	-115.865	-137.818	-29.4275
 137	1	3	0.062846	-116.333	-138.34	-30.2699
 138	1	4	-0.264747	-117.934	-136.802	-28.8148
 139	1	3	0.073216	-115.46	-136.865	-29.7858
 140	1	1	-0.015836	-119.928	-135.396	-28.6083
 141	1	1	0.044531	-119.004	-136.424	-27.913
 142	1	1	0.341309	-119.781	-137.694	-27.4578
 143	1	1	0.132892	-121.313	-137.485	-27.5776
 144	1	6	-0.74435	-119.381	-138.037	-26.1286
 145	1	7	-0.00272	-119.505	-138.525	-28.1171
 146	1	1	-0.008403	-121.692	-137.098	-29.0416
 147	1	4	-0.239698	-120.796	-136.071	-29.5445
 148	1	7	0.089672	-120.722	-138.889	-29.8283
 149	1	7	0.088396	-122.484	-138.944	-29.9039
 150	1	7	0.05623	-122.716	-136.714	-29.0305
 151	1	7	0.125955	-118.581	-135.933	-27.0263
 152	1	8	0.456798	-118.398	-138.18	-26.1976
 153	1	9	0.198085	-121.396	-131.443	-31.401
 154	1	7	0.095469	-120.571	-130.295	-29.5733
 155	1	1	-0.308877	-120.347	-131.151	-31.5418
 156	1	8	0.426958	-119.185	-130.972	-27.7127
 157	1	6	-0.128067	-120.267	-130.06	-32.4558
 158	1	1	0.005701	-119.769	-130.775	-30.15
 159	1	7	0.239394	-121.02	-133.731	-31.6881
 160	1	5	-0.48496	-118.451	-129.365	-28.0833
 161	1	1	-0.003409	-119.903	-133.337	-29.8589
 162	1	2	0.352525	-118.112	-129.212	-29.246
 163	1	6	-0.665659	-119.532	-131.863	-27.9772
 164	1	1	-0.510331	-119.985	-133.49	-31.4191
 165	1	1	0.240953	-119.254	-132.02	-29.3709
 166	1	4	0.015262	-119.604	-132.26	-32.0476
 167	1	4	0.176506	-118.671	-129.847	-30.3246
 168	1	3	0.090205	-116.488	-127.88	-28.7568
 169	1	1	-0.197476	-116.953	-128.311	-29.6515
 170	1	1	-0.039041	-119.078	-134.586	-32.0176
 171	1	7	0.144117	-118.017	-134.345	-31.8554
 172	1	3	0.104606	-117.318	-127.497	-30.2876
 173	1	7	0.111943	-118.173	-132.118	-29.5379
 174	1	7	0.160853	-119.273	-135.564	-31.5482
 175	1	3	0.069306	-116.203	-128.886	-30.2063
 176	1	4	-0.432857	-119.39	-134.634	-33.4223
 177	1	3	0.042395	-120.214	-135.588	-35.7612
 178	1	2	0.753764	-118.712	-135.512	-34.2181
 179	1	1	-0.122098	-119.142	-135.382	-35.6713
 180	1	3	0.030493	-118.585	-136.088	-36.2982
 181	1	5	-0.562583	-117.897	-136.324	-33.8155
 182	1	3	0.048272	-118.95	-134.36	-36.0194
 183	1	4	-0.191545	-119.135	-134.411	-29.2862
 184	1	9	0.130627	-120.534	-134.885	-27.8454
 185	1	3	0.015236	-121.572	-136.639	-26.9303
 186	1	7	0.210365	-120.916	-133.334	-29.4405
 187	1	1	-0.218842	-120.167	-142.95	-22.6505
 188	1	2	0.68591	-121.416	-143.079	-21.7989
 189	1	3	0.086668	-119.279	-143.093	-22.0263
 190	1	3	0.071846	-120.129	-141.949	-23.0962
 191	1	3	0.062371	-120.177	-143.698	-23.4505
 192	1	4	-0.291145	-121.439	-142.14	-20.8051
 193	1	1	-0.015993	-122.567	-142.035	-19.9034
 194	1	5	-0.555985	-122.255	-143.951	-21.9615
 195	1	2	0.652223	-126.135	-137.0	-20.0367
 196	1	3	0.062504	-125.5	-135.193	-21.0172
 197	1	5	-0.583019	-127.128	-137.364	-19.4333
 198	1	1	-0.168764	-125.61	-135.577	-19.9965
 199	1	3	0.062846	-126.306	-134.936	-19.4432
 200	1	4	-0.264747	-125.321	-137.814	-20.7703
 201	1	3	0.073216	-124.632	-135.558	-19.504
 202	1	1	-0.015836	-124.62	-139.763	-22.0339
 203	1	1	0.044531	-125.65	-139.209	-21.0149
 204	1	1	0.341309	-125.62	-140.014	-19.6776
 205	1	1	0.132892	-125.112	-141.485	-19.8102
 206	1	6	-0.74435	-126.875	-139.953	-18.9978
 207	1	7	-0.00272	-124.882	-139.509	-19.0395
 208	1	1	-0.008403	-123.823	-141.597	-20.6924
 209	1	4	-0.239698	-123.516	-140.331	-21.313
 210	1	7	0.089672	-122.348	-141.293	-19.1242
 211	1	7	0.088396	-122.751	-143.002	-19.4156
 212	1	7	0.05623	-123.994	-142.339	-21.4766
 213	1	7	0.125955	-126.648	-139.293	-21.4549
 214	1	8	0.456798	-127.139	-138.989	-19.0239
 215	1	9	0.198085	-124.018	-138.247	-27.3688
 216	1	7	0.095469	-123.752	-140.649	-26.5838
 217	1	1	-0.308877	-123.317	-138.499	-26.561
 218	1	8	0.426958	-121.303	-139.737	-25.4604
 219	1	6	-0.128067	-122.008	-138.665	-27.1377
 220	1	1	0.005701	-123.796	-139.81	-25.8781
 221	1	7	0.239394	-121.491	-137.667	-24.6959
 222	1	5	-0.48496	-125.698	-141.639	-24.7369
 223	1	1	-0.003409	-122.916	-138.929	-23.6407
 224	1	2	0.352525	-125.986	-140.471	-24.9559
 225	1	6	-0.665659	-121.643	-140.509	-24.9505
 226	1	1	-0.510331	-122.549	-137.616	-24.3956
 227	1	1	0.240953	-122.977	-140.146	-24.5977
 228	1	4	0.015262	-123.375	-137.449	-25.5652
 229	1	4	0.176506	-125.164	-139.542	-25.5223
 230	1	3	0.090205	-127.232	-138.732	-24.5899
 231	1	1	-0.197476	-127.294	-139.824	-24.5234
 232	1	1	-0.039041	-122.72	-136.361	-23.5192
 233	1	7	0.144117	-122.385	-135.46	-24.0531
 234	1	3	0.104606	-127.51	-140.076	-23.4874
 235	1	7	0.111943	-123.429	-140.999	-24.0763
 236	1	7	0.160853	-123.779	-136.228	-23.2483
 237	1	3	0.069306	-128.119	-140.168	-25.1504
 238	1	4	-0.432857	-121.923	-136.575	-22.3427
 239	1	3	0.042395	-121.306	-135.426	-19.292
 240	1	2	0.753764	-122.015	-135.678	-21.316
 241	1	1	-0.122098	-121.153	-136.108	-20.1369
 242	1	3	0.030493	-120.096	-136.099	-20.4257
 243	1	5	-0.562583	-122.733	-134.698	-21.3146
 244	1	3	0.048272	-121.427	-137.125	-19.8344
 245	1	4	-0.191545	-124.182	-138.737	-22.9572
 246	1	9	0.130627	-125.09	-140.556	-22.6135
 247	1	3	0.015236	-124.831	-141.781	-18.7913
 248	1	7	0.210365	-122.134	-139.123	-22.8918
 249	1	1	-0.218842	-134.72	-142.034	-27.4491
 250	1	2	0.68591	-133.361	-141.702	-28.0383
 251	1	3	0.086668	-135.24	-142.747	-28.0983
 252	1	3	0.071846	-135.317	-141.119	-27.3623
 253	1	3	0.062371	-134.595	-142.473	-26.453
 254	1	4	-0.291145	-132.671	-140.84	-27.2338
 255	1	1	-0.015993	-131.343	-140.403	-27.5953
 256	1	5	-0.555985	-132.966	-142.149	-29.1005
 257	1	2	0.652223	-126.676	-145.174	-26.9895
 258	1	3	0.062504	-126.199	-146.544	-25.3945
 259	1	5	-0.583019	-126.725	-145.265	-28.1977
 260	1	1	-0.168764	-125.671	-145.911	-26.1162
 261	1	3	0.062846	-125.026	-146.538	-26.7425
 262	1	4	-0.264747	-127.479	-144.361	-26.2462
 263	1	3	0.073216	-125.055	-145.186	-25.5729
 264	1	1	-0.015836	-129.435	-143.056	-25.6845
 265	1	1	0.044531	-128.495	-143.517	-26.843
 266	1	1	0.341309	-127.869	-142.312	-27.6034
 267	1	1	0.132892	-128.931	-141.249	-28.0351
 268	1	6	-0.74435	-127.152	-142.73	-28.7737
 269	1	7	-0.00272	-127.163	-141.847	-26.9097
 270	1	1	-0.008403	-130.336	-141.573	-27.4517
 271	1	4	-0.239698	-130.19	-141.876	-26.0493
 272	1	7	0.089672	-131.038	-139.575	-26.9408
 273	1	7	0.088396	-131.339	-140.032	-28.6291
 274	1	7	0.05623	-130.733	-142.45	-27.9781
 275	1	7	0.125955	-129.091	-144.104	-27.5536
 276	1	8	0.456798	-126.953	-143.705	-28.6643
 277	1	9	0.198085	-125.811	-142.28	-22.2635
 278	1	7	0.095469	-127.435	-144.529	-20.9933
 279	1	1	-0.308877	-126.573	-142.609	-21.5543
 280	1	8	0.426958	-127.505	-146.263	-22.6821
 281	1	6	-0.128067	-126.144	-142.432	-20.1922
 282	1	1	0.005701	-126.825	-144.12	-21.8103
 283	1	7	0.239394	-129.294	-143.038	-21.2239
 284	1	5	-0.48496	-126.349	-146.881	-21.5745
 285	1	1	-0.003409	-128.79	-143.433	-23.3184
 286	1	2	0.352525	-125.412	-146.111	-21.7085
 287	1	6	-0.665659	-127.967	-145.693	-23.3547
 288	1	1	-0.510331	-128.987	-142.467	-22.1122
 289	1	1	0.240953	-127.542	-144.338	-23.1687
 290	1	4	0.015262	-127.744	-141.804	-21.8106
 291	1	4	0.176506	-125.522	-144.752	-21.8376
 292	1	3	0.090205	-123.93	-147.68	-21.7089
 293	1	1	-0.197476	-123.968	-146.586	-21.7737
 294	1	1	-0.039041	-130.083	-141.414	-22.3964
 295	1	7	0.144117	-129.774	-140.714	-23.1872
 296	1	3	0.104606	-123.397	-146.159	-20.9409
 297	1	7	0.111943	-126.824	-144.049	-23.9469
 298	1	7	0.160853	-130.995	-141.915	-22.7481
 299	1	3	0.069306	-123.508	-146.266	-22.7163
 300	1	4	-0.432857	-130.361	-140.74	-21.1572
 301	1	3	0.042395	-129.762	-138.064	-19.3036
 302	1	2	0.753764	-129.701	-139.585	-20.8362
 303	1	1	-0.122098	-130.127	-139.084	-19.4644
 304	1	3	0.030493	-129.72	-139.742	-18.6874
 305	1	5	-0.562583	-129.023	-138.932	-21.6148
 306	1	3	0.048272	-131.221	-139.09	-19.3913
 307	1	4	-0.191545	-128.661	-142.652	-24.5317
 308	1	9	0.130627	-130.125	-143.869	-25.4254
 309	1	3	0.015236	-129.038	-141.277	-29.1278
 310	1	7	0.210365	-129.671	-144.086	-23.3825
 311	1	1	-0.218842	-129.426	-132.599	-32.9546
 312	1	2	0.68591	-128.048	-133.015	-33.4351
 313	1	3	0.086668	-130.046	-132.317	-33.8124
 314	1	3	0.071846	-129.344	-131.745	-32.2733
 315	1	3	0.062371	-129.897	-133.432	-32.4215
 316	1	4	-0.291145	-127.178	-133.197	-32.3989
 317	1	1	-0.015993	-125.849	-133.675	-32.6967
 318	1	5	-0.555985	-127.731	-133.076	-34.6115
 319	1	2	0.652223	-123.829	-133.262	-26.318
 320	1	3	0.062504	-123.823	-132.957	-24.1829
 321	1	5	-0.583019	-122.731	-132.773	-26.5159
 322	1	1	-0.168764	-124.509	-133.314	-24.9609
 323	1	3	0.062846	-125.405	-132.683	-24.9708
 324	1	4	-0.264747	-124.596	-133.826	-27.2912
 325	1	3	0.073216	-124.805	-134.345	-24.7349
 326	1	1	-0.015836	-124.953	-135.01	-29.3944
 327	1	1	0.044531	-124.1	-133.939	-28.6528
 328	1	1	0.341309	-124.085	-132.519	-29.3171
 329	1	1	0.132892	-124.387	-132.454	-30.8534
 330	1	6	-0.74435	-122.816	-131.904	-29.065
 331	1	7	-0.00272	-124.861	-131.928	-28.8118
 332	1	1	-0.008403	-124.997	-133.772	-31.4105
 333	1	4	-0.239698	-125.781	-134.397	-30.3876
 334	1	7	0.089672	-125.353	-133.017	-33.4192
 335	1	7	0.088396	-125.922	-134.675	-33.1461
 336	1	7	0.05623	-124.154	-134.432	-31.6602
 337	1	7	0.125955	-123.07	-134.316	-28.6322
 338	1	8	0.456798	-122.645	-131.988	-28.082
 339	1	9	0.198085	-126.483	-140.123	-27.794
 340	1	7	0.095469	-128.168	-138.87	-29.9591
 341	1	1	-0.308877	-127.258	-139.393	-28.0515
 342	1	8	0.426958	-125.463	-137.167	-31.4587
 343	1	6	-0.128067	-128.548	-139.905	-27.6788
 344	1	1	0.005701	-127.156	-139.034	-29.5703
 345	1	7	0.239394	-128.687	-137.304	-28.041
 346	1	5	-0.48496	-124.516	-140.152	-29.2119
 347	1	1	-0.003409	-126.869	-136.546	-28.9656
 348	1	2	0.352525	-125.278	-140.572	-30.0689
 349	1	6	-0.665659	-126.397	-137.404	-31.2125
 350	1	1	-0.510331	-127.666	-137.044	-27.7245
 351	1	1	0.240953	-126.345	-137.733	-29.8248
 352	1	4	0.015262	-127.004	-138.222	-27.2528
 353	1	4	0.176506	-126.555	-140.126	-30.3085
 354	1	3	0.090205	-125.562	-142.529	-30.9351
 355	1	1	-0.197476	-124.88	-141.676	-31.0384
 356	1	1	-0.039041	-127.767	-136.023	-26.5656
 357	1	7	0.144117	-126.764	-135.761	-26.202
 358	1	3	0.104606	-123.859	-142.01	-30.8208
 359	1	7	0.111943	-125.307	-137.909	-29.5163
 360	1	7	0.160853	-128.257	-135.098	-26.9074
 361	1	3	0.069306	-124.928	-141.306	-32.0691
 362	1	4	-0.432857	-128.522	-136.632	-25.4976
 363	1	3	0.042395	-130.028	-138.631	-24.3552
 364	1	2	0.753764	-129.857	-136.905	-25.627
 365	1	1	-0.122098	-130.401	-137.602	-24.3899
 366	1	3	0.030493	-131.497	-137.618	-24.4121
 367	1	5	-0.562583	-130.548	-136.599	-26.5848
 368	1	3	0.048272	-130.066	-137.076	-23.4881
 369	1	4	-0.191545	-125.748	-135.778	-28.4667
 370	1	9	0.130627	-124.277	-135.701	-29.9012
 371	1	3	0.015236	-123.433	-132.314	-31.3782
 372	1	7	0.210365	-127.519	-135.914	-29.5889
 373	1	1	-0.218842	-126.539	-122.021	-30.0106
 374	1	2	0.68591	-127.447	-123.239	-30.0757
 375	1	3	0.086668	-125.495	-122.348	-30.0252
 376	1	3	0.071846	-126.731	-121.461	-29.0901
 377	1	3	0.062371	-126.705	-121.37	-30.8762
 378	1	4	-0.291145	-128.489	-123.033	-30.9421
 379	1	1	-0.015993	-129.492	-124.057	-31.1302
 380	1	5	-0.555985	-127.364	-124.172	-29.2903
 381	1	2	0.652223	-124.808	-124.287	-33.1771
 382	1	3	0.062504	-122.794	-123.943	-32.5006
 383	1	5	-0.583019	-125.35	-123.955	-32.1401
 384	1	1	-0.168764	-123.338	-124.033	-33.4482
 385	1	3	0.062846	-122.919	-124.858	-34.0319
 386	1	4	-0.264747	-125.413	-124.908	-34.2335
 387	1	3	0.073216	-123.229	-123.109	-34.0261
 388	1	1	-0.015836	-127.267	-126.238	-33.1841
 389	1	1	0.044531	-126.834	-125.21	-34.2713
 390	1	1	0.341309	-127.679	-123.901	-34.243
 391	1	1	0.132892	-129.12	-124.168	-33.7375
 392	1	6	-0.74435	-127.733	-123.368	-35.5722
 393	1	7	-0.00272	-127.219	-123.164	-33.5753
 394	1	1	-0.008403	-129.153	-124.925	-32.3686
 395	1	4	-0.239698	-127.884	-125.548	-32.0879
 396	1	7	0.089672	-130.47	-123.586	-31.2719
 397	1	7	0.088396	-129.572	-124.696	-30.2422
 398	1	7	0.05623	-129.919	-125.707	-32.4439
 399	1	7	0.125955	-127.042	-125.681	-35.238
 400	1	8	0.456798	-128.378	-122.634	-35.522
 401	1	9	0.198085	-124.149	-130.932	-32.8392
 402	1	7	0.095469	-126.597	-130.916	-33.4559
 403	1	1	-0.308877	-124.877	-130.432	-32.1945
 404	1	8	0.426958	-126.889	-130.403	-30.8138
 405	1	6	-0.128067	-125.236	-131.318	-31.1148
 406	1	1	0.005701	-126.098	-130.028	-33.0651
 407	1	7	0.239394	-125.348	-128.839	-29.9561
 408	1	5	-0.48496	-127.541	-129.021	-35.3068
 409	1	1	-0.003409	-126.427	-127.953	-31.6412
 410	1	2	0.352525	-126.339	-128.846	-35.2077
 411	1	6	-0.665659	-127.677	-129.975	-31.2183
 412	1	1	-0.510331	-125.106	-128.333	-30.9015
 413	1	1	0.240953	-127.124	-129.182	-32.2643
 414	1	4	0.015262	-124.28	-129.214	-31.6961
 415	1	4	0.176506	-125.551	-129.285	-34.18
 416	1	3	0.090205	-126.211	-127.575	-36.9402
 417	1	1	-0.197476	-125.532	-128.077	-36.2415
 418	1	1	-0.039041	-124.294	-127.065	-30.5579
 419	1	7	0.144117	-123.891	-126.603	-31.4698
 420	1	3	0.104606	-124.894	-128.768	-36.7999
 421	1	7	0.111943	-127.945	-128.859	-32.9145
 422	1	7	0.160853	-124.937	-126.307	-30.0818
 423	1	3	0.069306	-124.897	-127.329	-35.7492
 424	1	4	-0.432857	-123.24	-127.465	-29.6641
 425	1	3	0.042395	-121.026	-128.235	-28.6338
 426	1	2	0.753764	-122.189	-126.617	-29.4531
 427	1	1	-0.122098	-121.215	-127.177	-28.4294
 428	1	3	0.030493	-121.643	-127.085	-27.4245
 429	1	5	-0.562583	-122.019	-125.562	-30.0429
 430	1	3	0.048272	-120.267	-126.628	-28.472
 431	1	4	-0.191545	-126.139	-126.998	-32.6918
 432	1	9	0.130627	-128.007	-126.917	-33.625
 433	1	3	0.015236	-129.582	-124.83	-34.4806
 434	1	7	0.210365	-127.116	-127.499	-30.9128
 435	1	1	-0.218842	-135.52	-113.808	-37.6209
 436	1	2	0.68591	-135.312	-115.124	-38.35
 437	1	3	0.086668	-136.276	-113.94	-36.8399
 438	1	3	0.071846	-135.864	-113.044	-38.3266
 439	1	3	0.062371	-134.584	-113.476	-37.1592
 440	1	4	-0.291145	-134.443	-115.938	-37.68
 441	1	1	-0.015993	-134.138	-117.261	-38.1782
 442	1	5	-0.555985	-135.785	-115.357	-39.4485
 443	1	2	0.652223	-137.225	-122.104	-39.4638
 444	1	3	0.062504	-137.518	-123.162	-41.3176
 445	1	5	-0.583019	-138.373	-122.246	-39.0765
 446	1	1	-0.168764	-136.723	-122.608	-40.8046
 447	1	3	0.062846	-136.414	-121.758	-41.4235
 448	1	4	-0.264747	-136.23	-121.497	-38.7562
 449	1	3	0.073216	-135.861	-123.268	-40.6511
 450	1	1	-0.015836	-135.205	-120.559	-36.7557
 451	1	1	0.044531	-136.53	-120.868	-37.4854
 452	1	1	0.341309	-137.341	-119.569	-37.7228
 453	1	1	0.132892	-136.482	-118.431	-38.3466
 454	1	6	-0.74435	-137.955	-119.109	-36.5165
 455	1	7	-0.00272	-138.162	-119.814	-38.3962
 456	1	1	-0.008403	-135.136	-118.282	-37.5787
 457	1	4	-0.239698	-134.468	-119.559	-37.4915
 458	1	7	0.089672	-133.13	-117.535	-37.8389
 459	1	7	0.088396	-134.135	-117.296	-39.2754
 460	1	7	0.05623	-135.37	-117.956	-36.5557
 461	1	7	0.125955	-137.129	-121.546	-36.8665
 462	1	8	0.456798	-138.64	-118.474	-36.8561
 463	1	9	0.198085	-131.689	-123.866	-33.8059
 464	1	7	0.095469	-131.28	-120.844	-33.7021
 465	1	1	-0.308877	-131.194	-122.96	-34.1752
 466	1	8	0.426958	-132.718	-119.53	-34.7065
 467	1	6	-0.128067	-129.848	-122.924	-33.6843
 468	1	1	0.005701	-131.964	-121.702	-33.6857
 469	1	7	0.239394	-132.211	-123.092	-37.377
 470	1	5	-0.48496	-132.494	-119.807	-31.5572
 471	1	1	-0.003409	-133.124	-121.688	-36.02
 472	1	2	0.352525	-132.621	-121.012	-31.4018
 473	1	6	-0.665659	-133.529	-119.988	-34.3526
 474	1	1	-0.510331	-132.413	-123.039	-36.2975
 475	1	1	0.240953	-133.248	-121.375	-34.504
 476	1	4	0.015262	-131.15	-123.012	-35.6113
 477	1	4	0.176506	-132.365	-121.989	-32.3273
 478	1	3	0.090205	-132.448	-122.484	-29.8246
 479	1	1	-0.197476	-133.058	-121.608	-30.0727
 480	1	1	-0.039041	-133.244	-124.298	-35.9292
 481	1	7	0.144117	-133.473	-124.353	-34.8552
 482	1	3	0.104606	-134.108	-121.914	-30.1263
 483	1	7	0.111943	-134.073	-121.987	-34.1178
 484	1	7	0.160853	-134.208	-124.266	-36.4597
 485	1	3	0.069306	-132.937	-120.866	-29.2764
 486	1	4	-0.432857	-132.498	-125.44	-36.3947
 487	1	3	0.042395	-130.266	-126.818	-36.8945
 488	1	2	0.753764	-131.817	-126.239	-35.5175
 489	1	1	-0.122098	-131.006	-127.301	-36.2451
 490	1	3	0.030493	-131.668	-127.92	-36.8616
 491	1	5	-0.562583	-131.876	-126.157	-34.3008
 492	1	3	0.048272	-130.485	-127.939	-35.5211
 493	1	4	-0.191545	-134.44	-121.777	-36.6187
 494	1	9	0.130627	-135.444	-120.166	-35.7594
 495	1	3	0.015236	-137.029	-117.488	-38.2209
 496	1	7	0.210365	-132.549	-120.881	-36.4975
 497	1	1	-0.218842	-144.42	-118.429	-40.0914
 498	1	2	0.68591	-144.227	-118.063	-41.5526
 499	1	3	0.086668	-143.892	-117.707	-39.4582
 500	1	3	0.071846	-144.02	-119.432	-39.9085
 501	1	3	0.062371	-145.487	-118.42	-39.8424
 502	1	4	-0.291145	-144.905	-118.929	-42.3668
 503	1	1	-0.015993	-144.814	-118.824	-43.805
 504	1	5	-0.555985	-143.623	-117.069	-41.9132
 505	1	2	0.652223	-139.085	-120.524	-46.9151
 506	1	3	0.062504	-137.421	-120.3	-48.2673
 507	1	5	-0.583019	-139.502	-121.557	-47.4133
 508	1	1	-0.168764	-137.816	-119.823	-47.3631
 509	1	3	0.062846	-138.03	-118.768	-47.572
 510	1	4	-0.264747	-139.709	-119.849	-45.9105
 511	1	3	0.073216	-137.066	-119.877	-46.5659
 512	1	1	-0.015836	-141.187	-119.504	-43.9928
 513	1	1	0.044531	-140.953	-120.311	-45.3135
 514	1	1	0.341309	-142.107	-120.188	-46.3632
 515	1	1	0.132892	-143.546	-119.965	-45.7869
 516	1	6	-0.74435	-142.125	-121.347	-47.2079
 517	1	7	-0.00272	-141.867	-119.313	-46.9826
 518	1	1	-0.008403	-143.547	-119.574	-44.2868
 519	1	4	-0.239698	-142.401	-118.749	-44.0649
 520	1	7	0.089672	-144.793	-117.774	-44.1283
 521	1	7	0.088396	-145.699	-119.301	-44.2453
 522	1	7	0.05623	-143.463	-120.495	-43.6934
 523	1	7	0.125955	-140.861	-121.369	-45.0389
 524	1	8	0.456798	-141.172	-121.537	-47.4472
 525	1	9	0.198085	-137.895	-117.425	-40.2217
 526	1	7	0.095469	-136.075	-118.734	-42.3191
 527	1	1	-0.308877	-137.361	-118.294	-40.6286
 528	1	8	0.426958	-136.491	-117.54	-44.4679
 529	1	6	-0.128067	-136.27	-118.636	-39.7583
 530	1	1	0.005701	-136.812	-117.969	-42.0412
 531	1	7	0.239394	-139.979	-120.2	-41.4759
 532	1	5	-0.48496	-135.113	-116.676	-43.9523
 533	1	1	-0.003409	-139.003	-118.981	-42.9804
 534	1	2	0.352525	-135.361	-116.155	-42.8781
 535	1	6	-0.665659	-137.316	-118.094	-44.4246
 536	1	1	-0.510331	-139.444	-119.241	-41.5082
 537	1	1	0.240953	-137.913	-117.894	-43.1385
 538	1	4	0.015262	-138.265	-119.405	-40.7083
 539	1	4	0.176506	-136.171	-116.679	-41.9075
 540	1	3	0.090205	-134.267	-114.348	-43.323
 541	1	1	-0.197476	-134.798	-114.799	-42.476
 542	1	1	-0.039041	-140.41	-118.179	-40.9057
 543	1	7	0.144117	-139.901	-117.263	-40.5769
 544	1	3	0.104606	-134.1	-114.923	-41.6398
 545	1	7	0.111943	-138.408	-116.913	-43.0805
 546	1	7	0.160853	-141.155	-117.869	-41.6557
 547	1	3	0.069306	-135.608	-114.13	-42.161
 548	1	4	-0.432857	-141.103	-118.835	-39.8269
 549	1	3	0.042395	-142.572	-119.332	-37.6774
 550	1	2	0.753764	-140.699	-118.688	-38.5305
 551	1	1	-0.122098	-141.507	-119.581	-37.6015
 552	1	3	0.030493	-141.179	-119.448	-36.5638
 553	1	5	-0.562583	-139.841	-117.91	-38.1351
 554	1	3	0.048272	-141.368	-120.629	-37.8903
 555	1	4	-0.191545	-140.144	-118.539	-43.7447
 556	1	9	0.130627	-141.266	-120.192	-43.1434
 557	1	3	0.015236	-144.109	-120.906	-45.8542
 558	1	7	0.210365	-138.591	-119.901	-43.4172
 559	1	1	-0.218842	-151.628	-116.853	-45.4622
 560	1	2	0.68591	-151.973	-116.233	-46.8045
 561	1	3	0.086668	-150.539	-116.928	-45.3642
 562	1	3	0.071846	-152.058	-117.859	-45.4005
 563	1	3	0.062371	-152.025	-116.235	-44.6488
 564	1	4	-0.291145	-151.416	-116.937	-47.8291
 565	1	1	-0.015993	-151.589	-116.477	-49.184
 566	1	5	-0.555985	-152.658	-115.234	-46.9345
 567	1	2	0.652223	-147.796	-116.565	-53.6823
 568	1	3	0.062504	-147.172	-114.922	-54.9288
 569	1	5	-0.583019	-148.107	-117.294	-54.6059
 570	1	1	-0.168764	-147.137	-115.21	-53.8719
 571	1	3	0.062846	-147.654	-114.453	-53.2723
 572	1	4	-0.264747	-148.03	-116.836	-52.3648
 573	1	3	0.073216	-146.091	-115.267	-53.5483
 574	1	1	-0.015836	-148.541	-118.252	-50.4396
 575	1	1	0.044531	-148.636	-118.098	-51.9823
 576	1	1	0.341309	-150.119	-118.173	-52.436
 577	1	1	0.132892	-150.945	-117.138	-51.6092
 578	1	6	-0.74435	-150.535	-119.536	-52.2345
 579	1	7	-0.00272	-150.204	-117.929	-53.5003
 580	1	1	-0.008403	-150.817	-117.45	-50.0974
 581	1	4	-0.239698	-149.416	-117.31	-49.7803
 582	1	7	0.089672	-151.198	-115.458	-49.3
 583	1	7	0.088396	-152.656	-116.476	-49.4466
 584	1	7	0.05623	-151.154	-118.475	-49.8944
 585	1	7	0.125955	-148.091	-118.923	-52.4565
 586	1	8	0.456798	-151.403	-119.669	-52.67
 587	1	9	0.198085	-143.98	-120.187	-48.2357
 588	1	7	0.095469	-146.23	-120.666	-47.0659
 589	1	1	-0.308877	-144.655	-119.392	-47.8868
 590	1	8	0.426958	-146.131	-118.083	-46.3049
 591	1	6	-0.128067	-144.232	-118.974	-46.5776
 592	1	1	0.005701	-146.112	-119.941	-47.8816
 593	1	7	0.239394	-145.203	-116.735	-47.6348
 594	1	5	-0.48496	-148.3	-121.598	-48.549
 595	1	1	-0.003409	-146.896	-117.649	-48.6809
 596	1	2	0.352525	-147.411	-121.394	-49.3573
 597	1	6	-0.665659	-147.079	-118.318	-46.3787
 598	1	1	-0.510331	-145.413	-117.181	-48.6167
 599	1	1	0.240953	-147.173	-118.818	-47.7084
 600	1	4	0.015262	-144.541	-118.304	-48.8274
 601	1	4	0.176506	-146.301	-120.626	-49.138
 602	1	3	0.090205	-147.351	-121.154	-51.5033
 603	1	1	-0.197476	-147.437	-121.963	-50.7687
 604	1	1	-0.039041	-145.098	-116.113	-49.6832
 605	1	7	0.144117	-144.039	-115.817	-49.6458
 606	1	3	0.104606	-148.384	-122.493	-50.9338
 607	1	7	0.111943	-148.187	-119.207	-47.874
 608	1	7	0.160853	-145.306	-116.501	-50.6931
 609	1	3	0.069306	-146.604	-122.662	-50.9088