pySIMM System Object

2296 atoms
2369 bonds
4366 angles
6065 dihedrals
148 impropers

9 atom types
10 bond types
23 angle types
20 dihedral types
1 improper types

-194.533803 194.533803 xlo xhi
-194.533803 194.533803 ylo yhi
-194.533803 194.533803 zlo zhi

Masses

   1	12.01	# c3
   2	12.01	# c
   3	1.008	# hc
   4	16.0	# os
   5	16.0	# o
   6	16.0	# oh
   7	1.008	# h1
   8	1.008	# ho
   9	1.008	# h2

Pair Coeffs

   1	0.1094	3.3996695084235347	# c3
   2	0.086	3.3996695084235347	# c
   3	0.0157	2.649532787749369	# hc
   4	0.17	3.0000123434657784	# os
   5	0.21	2.959921901149463	# o
   6	0.2104	3.0664733878390478	# oh
   7	0.0157	2.471353044121301	# h1
   8	0.0047	0.5379246460131368	# ho
   9	0.0157	2.2931733004932333	# h2

Bond Coeffs

   1	331.7	1.0961	# c3,h2
   2	637.7	1.2183	# c,o
   3	300.9	1.5375	# c3,c3
   4	330.6	1.0969	# c3,hc
   5	316.7	1.4233	# c3,oh
   6	330.6	1.0969	# c3,h1
   7	371.4	0.973	# ho,oh
   8	308.6	1.4316	# c3,os
   9	313.0	1.5241	# c,c3
  10	390.8	1.3584	# c,os

Angle Coeffs

   1	46.93	108.77	# c,c3,hc
   2	67.4	123.2	# c3,c,o
   3	68.0	107.97	# c3,c3,os
   4	46.39	109.56	# c3,c3,h1
   5	46.25	110.22	# c3,c3,h2
   6	62.86	111.51	# c3,c3,c3
   7	68.89	110.72	# c3,c,os
   8	72.58	109.38	# oh,c3,os
   9	75.32	123.25	# o,c,os
  10	67.47	110.19	# c3,c3,oh
  11	46.34	109.8	# c3,c3,hc
  12	47.38	107.26	# c3,oh,ho
  13	39.24	108.46	# h1,c3,h1
  14	50.85	109.58	# h2,c3,os
  15	72.74	108.29	# os,c3,os
  16	50.8	109.78	# h1,c3,os
  17	63.28	115.98	# c,os,c3
  18	62.7	112.48	# c3,os,c3
  19	50.93	110.26	# h1,c3,oh
  20	39.4	107.58	# hc,c3,hc
  21	51.13	109.43	# h2,c3,oh
  22	51.11	109.5	# hc,c3,oh
  23	62.7	112.48	# c3,oh,c3

Dihedral Coeffs

   1	3	0.18	3	0	0.25	2	180	0.2	1	180	# c3,c3,c3,c3
   2	1	0.3833333333333333	3	0	# X,c3,os,X
   3	2	0.144	3	0	1.175	2	0	# os,c3,c3,oh
   4	3	0.1	3	0	0.85	2	180	1.35	1	180	# c3,os,c3,os
   5	2	0.144	3	0	1.175	2	0	# os,c3,c3,os
   6	3	2.7	2	180	0.0	1	0	1.15	3	0	# c3,c,os,c3
   7	2	0.0	3	0	0.25	1	0	# hc,c3,c3,oh
   8	1	0.16	3	0	# hc,c3,c3,c3
   9	1	0.15555555555555556	3	0	# X,c3,c3,X
  10	2	0.16	3	0	0.25	1	0	# ho,oh,c3,c3
  11	2	0.383	3	0	0.8	1	180	# c3,c3,os,c
  12	1	0.0	2	180	# X,c,c3,X
  13	2	2.7	2	180	1.4	1	180	# o,c,os,c3
  14	2	0.0	3	0	0.25	1	0	# hc,c3,c3,os
  15	2	0.0	3	0	0.25	1	0	# h1,c3,c3,oh
  16	1	0.16666666666666666	3	0	# X,c3,oh,X
  17	3	0.8	1	0	0.0	2	0	0.08	3	180	# hc,c3,c,o
  18	2	0.0	3	0	0.25	1	0	# h1,c3,c3,os
  19	2	0.383	3	0	0.1	2	180	# c3,c3,os,c3
  20	2	0.144	3	0	1.175	2	0	# oh,c3,c3,oh

Improper Coeffs

   1	10.5	-1	2	# c,X,X,o

Atoms

   1	1	1	-0.218842	-24.6703	-3.37623	-8.45341
   2	1	2	0.68591	-23.9979	-4.40962	-7.56869
   3	1	3	0.086668	-25.4703	-3.85122	-9.03077
   4	1	3	0.071846	-23.9352	-2.93621	-9.13629
   5	1	3	0.062371	-25.1008	-2.58578	-7.82767
   6	1	4	-0.291145	-24.8929	-4.98698	-6.71473
   7	1	1	-0.015993	-24.4329	-5.97228	-5.766
   8	1	5	-0.555985	-22.8123	-4.68619	-7.63951
   9	1	2	0.652223	-27.8399	-6.09945	0.0318594
  10	1	3	0.062504	-28.4236	-4.50347	1.35165
  11	1	5	-0.583019	-28.3379	-7.16502	-0.291595
  12	1	1	-0.168764	-27.9585	-5.49357	1.41922
  13	1	3	0.062846	-28.5675	-6.13957	2.06185
  14	1	4	-0.264747	-27.0997	-5.30592	-0.79056
  15	1	3	0.073216	-26.9593	-5.38324	1.85611
  16	1	1	-0.015836	-26.0436	-4.46477	-2.75656
  17	1	1	0.044531	-26.8054	-5.66916	-2.16256
  18	1	1	0.341309	-25.9802	-6.98216	-2.24671
  19	1	1	0.132892	-25.0031	-7.02283	-3.46649
  20	1	6	-0.74435	-26.8597	-8.10938	-2.29265
  21	1	7	-0.00272	-25.3986	-7.05475	-1.32081
  22	1	1	-0.008403	-25.4618	-6.06927	-4.6112
  23	1	4	-0.239698	-25.734	-4.71899	-4.14214
  24	1	7	0.089672	-23.4529	-5.68231	-5.36616
  25	1	7	0.088396	-24.3169	-6.94756	-6.25588
  26	1	7	0.05623	-26.3943	-6.47975	-5.01978
  27	1	7	0.125955	-27.7371	-5.80479	-2.72772
  28	1	8	0.456798	-27.491	-7.98703	-1.52821
  29	1	9	0.198085	-22.9561	-0.359443	-1.36514
  30	1	7	0.095469	-23.872	-0.877596	0.685496
  31	1	1	-0.308877	-22.2864	-1.04124	-0.839111
  32	1	8	0.426958	-25.2189	-2.77716	1.44557
  33	1	6	-0.128067	-21.1668	-0.129746	-0.564605
  34	1	1	0.005701	-23.2015	-1.65481	0.285272
  35	1	7	0.239394	-23.5142	-1.56525	-3.18438
  36	1	5	-0.48496	-24.087	-2.53848	2.83453
  37	1	1	-0.003409	-24.4208	-2.88591	-1.72481
  38	1	2	0.352525	-22.9043	-2.57962	2.52432
  39	1	6	-0.665659	-25.41	-2.77985	0.472178
  40	1	1	-0.510331	-23.1921	-2.43822	-2.60125
  41	1	1	0.240953	-24.1491	-2.83956	-0.200714
  42	1	4	0.015262	-22.0208	-2.09086	-1.78981
  43	1	4	0.176506	-22.3647	-2.17962	1.32839
  44	1	3	0.090205	-21.3735	-3.97858	3.10358
  45	1	1	-0.197476	-21.8132	-3.04566	3.47439
  46	1	1	-0.039041	-22.7486	-3.50101	-3.63764
  47	1	7	0.144117	-22.4114	-4.4147	-3.13695
  48	1	3	0.104606	-22.2393	-3.21552	4.46743
  49	1	7	0.111943	-23.6717	-3.79569	0.0387543
  50	1	7	0.160853	-23.5807	-3.7864	-4.29645
  51	1	3	0.069306	-21.0263	-2.28457	3.54034
  52	1	4	-0.432857	-21.6925	-2.95425	-4.44465
  53	1	3	0.042395	-20.0543	-1.14787	-5.49025
  54	1	2	0.753764	-21.9867	-2.09906	-5.471
  55	1	1	-0.122098	-20.7249	-1.65373	-6.19444
  56	1	3	0.030493	-20.9771	-0.96695	-7.01152
  57	1	5	-0.562583	-23.1103	-1.74001	-5.78747
  58	1	3	0.048272	-20.2109	-2.52995	-6.60599
  59	1	4	-0.191545	-24.806	-4.26309	-2.02238
  60	1	9	0.130627	-26.6769	-3.57271	-2.68304
  61	1	3	0.015236	-25.015	-8.03998	-3.88217
  62	1	7	0.210365	-25.2851	-2.2261	-1.91808
  63	1	1	-0.218842	-16.6404	-14.3323	-3.4127
  64	1	2	0.68591	-17.2757	-14.6053	-2.06205
  65	1	3	0.086668	-17.1176	-13.4586	-3.86958
  66	1	3	0.071846	-16.7675	-15.2012	-4.06842
  67	1	3	0.062371	-15.5718	-14.1262	-3.28434
  68	1	4	-0.291145	-17.0931	-13.5546	-1.20734
  69	1	1	-0.015993	-17.6627	-13.598	0.118192
  70	1	5	-0.555985	-17.8126	-15.6636	-1.77773
  71	1	2	0.652223	-21.3762	-10.7923	3.28411
  72	1	3	0.062504	-20.8196	-11.5756	5.21226
  73	1	5	-0.583019	-22.2072	-9.97474	2.92408
  74	1	1	-0.168764	-20.6185	-10.6915	4.59661
  75	1	3	0.062846	-19.5425	-10.6368	4.39452
  76	1	4	-0.264747	-21.0664	-11.9438	2.62442
  77	1	3	0.073216	-20.9312	-9.79153	5.13827
  78	1	1	-0.015836	-20.7446	-11.4785	0.223567
  79	1	1	0.044531	-21.592	-12.2062	1.29992
  80	1	1	0.341309	-21.5136	-13.7283	1.05458
  81	1	1	0.132892	-20.0229	-14.2025	0.992931
  82	1	6	-0.74435	-22.2321	-14.0118	-0.150508
  83	1	7	-0.00272	-22.0143	-14.2342	1.88987
  84	1	1	-0.008403	-19.1847	-13.3172	0.0297279
  85	1	4	-0.239698	-19.3822	-11.9214	0.344332
  86	1	7	0.089672	-17.19	-12.8337	0.749091
  87	1	7	0.088396	-17.467	-14.5753	0.579031
  88	1	7	0.05623	-19.534	-13.5062	-0.994201
  89	1	7	0.125955	-22.6426	-11.898	1.22783
  90	1	8	0.456798	-22.3994	-14.9823	-0.115817
  91	1	9	0.198085	-23.7866	-8.45539	-1.87613
  92	1	7	0.095469	-23.3519	-6.35615	-0.461339
  93	1	1	-0.308877	-23.0505	-7.68978	-2.15729
  94	1	8	0.426958	-22.6564	-8.73574	1.861
  95	1	6	-0.128067	-23.6406	-6.76159	-3.07549
  96	1	1	0.005701	-22.5391	-6.95159	-0.897001
  97	1	7	0.239394	-21.5335	-10.3163	-2.38355
  98	1	5	-0.48496	-21.3743	-4.84494	0.619737
  99	1	1	-0.003409	-21.7674	-9.36535	-0.440277
 100	1	2	0.352525	-20.9919	-5.0855	-0.513824
 101	1	6	-0.665659	-22.9873	-8.06192	1.2003
 102	1	1	-0.510331	-21.2684	-9.34978	-1.93373
 103	1	1	0.240953	-22.0086	-7.95467	0.163563
 104	1	4	0.015262	-21.9103	-8.33465	-2.74008
 105	1	4	0.176506	-21.4801	-6.06825	-1.3268
 106	1	3	0.090205	-19.5871	-3.44376	-0.569622
 107	1	1	-0.197476	-19.8894	-4.28839	-1.20041
 108	1	1	-0.039041	-19.7363	-9.16909	-2.10456
 109	1	7	0.144117	-19.2283	-10.1115	-1.84351
 110	1	3	0.104606	-20.2454	-3.89895	-2.16104
 111	1	7	0.111943	-21.0625	-7.58166	0.578465
 112	1	7	0.160853	-19.4785	-8.93781	-3.14997
 113	1	3	0.069306	-19.0234	-4.92704	-1.39646
 114	1	4	-0.432857	-19.2767	-8.12281	-1.22508
 115	1	3	0.042395	-17.1406	-6.07793	-0.415268
 116	1	2	0.753764	-17.9305	-7.98675	-1.03091
 117	1	1	-0.122098	-17.6126	-6.95436	0.0424105
 118	1	3	0.030493	-16.9274	-7.3882	0.7801
 119	1	5	-0.562583	-17.0764	-8.62342	-1.62359
 120	1	3	0.048272	-18.5277	-6.64017	0.558397
 121	1	4	-0.191545	-20.801	-10.0508	0.388046
 122	1	9	0.130627	-21.1094	-11.7513	-0.775274
 123	1	3	0.015236	-19.5962	-14.1075	2.00021
 124	1	7	0.210365	-22.7348	-9.88476	-0.388997
 125	1	1	-0.218842	-25.723	-16.7984	4.94013
 126	1	2	0.68591	-26.0216	-18.2854	5.0014
 127	1	3	0.086668	-25.086	-16.5902	4.07278
 128	1	3	0.071846	-25.2092	-16.4809	5.85428
 129	1	3	0.062371	-26.6586	-16.2378	4.83401
 130	1	4	-0.291145	-26.6259	-18.7097	3.85689
 131	1	1	-0.015993	-26.9085	-20.1094	3.62928
 132	1	5	-0.555985	-25.7929	-18.9733	5.98304
 133	1	2	0.652223	-26.3231	-20.6611	-1.49914
 134	1	3	0.062504	-27.4813	-19.7372	-3.06573
 135	1	5	-0.583019	-26.6337	-21.8074	-1.78419
 136	1	1	-0.168764	-26.7939	-19.4374	-2.26625
 137	1	3	0.062846	-27.3078	-18.7475	-1.58611
 138	1	4	-0.264747	-25.536	-20.316	-0.439681
 139	1	3	0.073216	-25.9318	-18.9214	-2.70332
 140	1	1	-0.015836	-24.0175	-20.6834	1.43905
 141	1	1	0.044531	-24.9877	-21.3437	0.426335
 142	1	1	0.341309	-26.1533	-22.0836	1.14247
 143	1	1	0.132892	-25.8625	-22.2802	2.65179
 144	1	6	-0.74435	-26.4159	-23.3236	0.476074
 145	1	7	-0.00272	-27.0534	-21.4615	1.06319
 146	1	1	-0.008403	-25.6008	-20.8988	3.33632
 147	1	4	-0.239698	-24.7966	-20.0495	2.47401
 148	1	7	0.089672	-27.588	-20.1939	2.77267
 149	1	7	0.088396	-27.4171	-20.5446	4.49685
 150	1	7	0.05623	-25.0663	-21.0742	4.27891
 151	1	7	0.125955	-24.4158	-22.0686	-0.167856
 152	1	8	0.456798	-26.6379	-23.0569	-0.458822
 153	1	9	0.198085	-20.732	-16.3437	2.30352
 154	1	7	0.095469	-19.2491	-18.1138	2.00061
 155	1	1	-0.308877	-20.6068	-16.6032	1.24426
 156	1	8	0.426958	-19.4833	-20.4899	1.44686
 157	1	6	-0.128067	-19.8654	-15.5744	0.580038
 158	1	1	0.005701	-19.9055	-17.9896	1.13005
 159	1	7	0.239394	-22.8168	-16.9634	2.46209
 160	1	5	-0.48496	-18.0974	-20.033	0.364275
 161	1	1	-0.003409	-22.3454	-18.9036	1.57356
 162	1	2	0.352525	-18.2448	-19.0471	-0.34057
 163	1	6	-0.665659	-20.3794	-20.2881	1.8257
 164	1	1	-0.510331	-22.8054	-17.4122	1.45994
 165	1	1	0.240953	-20.9019	-19.192	1.0743
 166	1	4	0.015262	-21.8867	-16.7119	0.626406
 167	1	4	0.176506	-19.1009	-18.0084	-0.0792412
 168	1	3	0.090205	-17.0349	-19.8136	-1.95503
 169	1	1	-0.197476	-17.504	-18.8677	-1.65845
 170	1	1	-0.039041	-24.2071	-17.2015	0.848046
 171	1	7	0.144117	-24.2145	-17.491	-0.214644
 172	1	3	0.104606	-16.7261	-18.104	-1.54439
 173	1	7	0.111943	-20.9989	-19.4853	0.0185071
 174	1	7	0.160853	-24.967	-17.8112	1.36113
 175	1	3	0.069306	-18.1975	-18.5484	-2.44586
 176	1	4	-0.432857	-24.498	-15.8017	1.00655
 177	1	3	0.042395	-25.6826	-13.6107	1.78784
 178	1	2	0.753764	-25.6388	-15.2986	0.446226
 179	1	1	-0.122098	-25.7752	-13.8064	0.713286
 180	1	3	0.030493	-26.7499	-13.4448	0.364477
 181	1	5	-0.562583	-26.4565	-15.9634	-0.168315
 182	1	3	0.048272	-24.981	-13.2638	0.187681
 183	1	4	-0.191545	-23.2017	-19.7208	0.750001
 184	1	9	0.130627	-23.3617	-21.4421	1.88917
 185	1	3	0.015236	-24.9504	-22.8827	2.73956
 186	1	7	0.210365	-22.3967	-19.2314	2.62304
 187	1	1	-0.218842	-29.8642	-27.2072	-0.49373
 188	1	2	0.68591	-30.2211	-28.3331	0.459165
 189	1	3	0.086668	-29.8727	-27.5786	-1.52356
 190	1	3	0.071846	-28.8616	-26.8314	-0.258696
 191	1	3	0.062371	-30.5838	-26.3866	-0.392273
 192	1	4	-0.291145	-29.282	-29.3263	0.428606
 193	1	1	-0.015993	-29.356	-30.454	1.33424
 194	1	5	-0.555985	-31.2436	-28.3561	1.12476
 195	1	2	0.652223	-24.853	-30.7399	5.50995
 196	1	3	0.062504	-23.1004	-29.512	5.27565
 197	1	5	-0.583019	-25.2573	-31.5623	6.31473
 198	1	1	-0.168764	-23.3855	-30.5645	5.16318
 199	1	3	0.062846	-22.7663	-31.1788	5.82658
 200	1	4	-0.264747	-25.6505	-29.9136	4.77408
 201	1	3	0.073216	-23.2133	-30.8672	4.12474
 202	1	1	-0.015836	-27.6367	-28.6873	4.12651
 203	1	1	0.044531	-27.091	-29.8677	4.97002
 204	1	1	0.341309	-27.7316	-31.2229	4.53289
 205	1	1	0.132892	-29.137	-31.1032	3.85585
 206	1	6	-0.74435	-27.7366	-32.168	5.60398
 207	1	7	-0.00272	-27.0728	-31.6271	3.75323
 208	1	1	-0.008403	-29.1884	-29.9563	2.79005
 209	1	4	-0.239698	-27.977	-29.1753	2.82315
 210	1	7	0.089672	-28.5551	-31.1665	1.09793
 211	1	7	0.088396	-30.3196	-30.969	1.22347
 212	1	7	0.05623	-30.0349	-29.3018	3.01594
 213	1	7	0.125955	-27.3306	-29.6839	6.02389
 214	1	8	0.456798	-26.8239	-32.1099	6.00623
 215	1	9	0.198085	-26.6144	-23.3668	5.21357
 216	1	7	0.095469	-28.9274	-24.1983	4.51696
 217	1	1	-0.308877	-26.7678	-23.9233	4.27823
 218	1	8	0.426958	-27.7726	-24.4919	1.87409
 219	1	6	-0.128067	-26.9826	-22.9675	3.22892
 220	1	1	0.005701	-28.0275	-24.8195	4.42051
 221	1	7	0.239394	-25.6872	-25.0956	2.01679
 222	1	5	-0.48496	-29.8797	-26.5564	5.7449
 223	1	1	-0.003409	-26.8945	-26.6106	3.00063
 224	1	2	0.352525	-28.7568	-26.3645	6.18881
 225	1	6	-0.665659	-28.5236	-25.1155	2.03043
 226	1	1	-0.510331	-25.6467	-25.681	2.94492
 227	1	1	0.240953	-28.1981	-25.8112	3.23454
 228	1	4	0.015262	-25.6213	-24.7884	4.07805
 229	1	4	0.176506	-27.8122	-25.5544	5.63641
 230	1	3	0.090205	-27.167	-27.4756	7.14749
 231	1	1	-0.197476	-28.17	-27.1	7.38293
 232	1	1	-0.039041	-24.3322	-26.4853	2.93387
 233	1	7	0.144117	-23.461	-25.8316	2.78081
 234	1	3	0.104606	-28.7988	-27.9424	7.65467
 235	1	7	0.111943	-29.0196	-26.5056	3.44623
 236	1	7	0.160853	-24.204	-27.0091	3.89471
 237	1	3	0.069306	-28.0938	-26.4364	8.24573
 238	1	4	-0.432857	-24.4622	-27.4298	1.85617
 239	1	3	0.042395	-23.2876	-30.2617	0.59417
 240	1	2	0.753764	-23.6128	-28.4924	1.78839
 241	1	1	-0.122098	-23.9748	-29.4086	0.629945
 242	1	3	0.030493	-23.9162	-28.8552	-0.314719
 243	1	5	-0.562583	-22.7033	-28.7103	2.57103
 244	1	3	0.048272	-25.0001	-29.7744	0.760669
 245	1	4	-0.191545	-26.6888	-27.6007	4.04281
 246	1	9	0.130627	-28.5394	-28.3023	4.59711
 247	1	3	0.015236	-29.275	-32.049	3.31639
 248	1	7	0.210365	-26.9826	-27.1226	2.0317
 249	1	1	-0.218842	-31.0261	-25.8645	15.1619
 250	1	2	0.68591	-30.6592	-25.0969	13.9043
 251	1	3	0.086668	-31.5028	-25.1874	15.8795
 252	1	3	0.071846	-30.1224	-26.2905	15.6123
 253	1	3	0.062371	-31.7168	-26.6769	14.9108
 254	1	4	-0.291145	-29.8742	-25.8452	13.0731
 255	1	1	-0.015993	-29.4045	-25.2819	11.8292
 256	1	5	-0.555985	-31.0051	-23.9469	13.6975
 257	1	2	0.652223	-33.9552	-24.9156	6.90852
 258	1	3	0.062504	-35.1437	-26.3594	5.8437
 259	1	5	-0.583019	-34.1991	-23.7929	7.31592
 260	1	1	-0.168764	-34.5174	-25.489	5.61938
 261	1	3	0.062846	-35.1214	-24.7321	5.10594
 262	1	4	-0.264747	-33.1034	-25.7819	7.52168
 263	1	3	0.073216	-33.6951	-25.7996	4.96496
 264	1	1	-0.015836	-31.8187	-26.7676	9.32522
 265	1	1	0.044531	-32.3785	-25.4363	8.7295
 266	1	1	0.341309	-31.2446	-24.4142	8.43246
 267	1	1	0.132892	-30.2879	-24.1991	9.6486
 268	1	6	-0.74435	-31.76	-23.1331	8.03995
 269	1	7	-0.00272	-30.6729	-24.8345	7.59874
 270	1	1	-0.008403	-30.5597	-25.2145	10.7961
 271	1	4	-0.239698	-30.7111	-26.5287	10.2243
 272	1	7	0.089672	-28.5943	-25.9022	11.4234
 273	1	7	0.088396	-28.9978	-24.2769	12.007
 274	1	7	0.05623	-31.4866	-24.924	11.307
 275	1	7	0.125955	-33.065	-24.9934	9.46274
 276	1	8	0.456798	-32.7127	-23.2692	7.76426
 277	1	9	0.198085	-30.219	-28.9657	5.00391
 278	1	7	0.095469	-32.6019	-30.6892	5.77612
 279	1	1	-0.308877	-30.6068	-29.8541	5.50216
 280	1	8	0.426958	-34.4586	-29.1471	6.02234
 281	1	6	-0.128067	-30.2468	-31.0528	4.79205
 282	1	1	0.005701	-32.1556	-29.716	5.53201
 283	1	7	0.239394	-31.4145	-30.9585	7.88129
 284	1	5	-0.48496	-34.7717	-29.7991	4.48283
 285	1	1	-0.003409	-31.927	-28.8278	7.94101
 286	1	2	0.352525	-33.854	-29.3715	3.80185
 287	1	6	-0.665659	-34.0268	-28.6837	6.79038
 288	1	1	-0.510331	-30.8939	-29.9933	7.95888
 289	1	1	0.240953	-32.6123	-28.65	6.56486
 290	1	4	0.015262	-30.0186	-29.8678	6.82207
 291	1	4	0.176506	-32.5466	-29.2922	4.20306
 292	1	3	0.090205	-35.1373	-28.8079	2.16051
 293	1	1	-0.197476	-34.0669	-28.828	2.39728
 294	1	1	-0.039041	-30.0722	-30.0042	9.2712
 295	1	7	0.144117	-29.4618	-29.0957	9.38403
 296	1	3	0.104606	-33.5539	-29.4668	1.66921
 297	1	7	0.111943	-32.3088	-27.6727	6.16542
 298	1	7	0.160853	-30.757	-30.0334	10.1302
 299	1	3	0.069306	-33.6642	-27.8106	2.31934
 300	1	4	-0.432857	-29.262	-31.1918	9.27952
 301	1	3	0.042395	-26.2684	-32.464	8.6721
 302	1	2	0.753764	-27.9958	-31.169	8.76167
 303	1	1	-0.122098	-27.3383	-32.5335	8.89768
 304	1	3	0.030493	-27.8098	-33.243	8.20747
 305	1	5	-0.562583	-27.3906	-30.1554	8.43712
 306	1	3	0.048272	-27.4652	-32.9045	9.92125
 307	1	4	-0.191545	-31.2523	-27.5918	8.28217
 308	1	9	0.130627	-32.6143	-27.303	9.85657
 309	1	3	0.015236	-30.4719	-23.2028	10.0731
 310	1	7	0.210365	-32.712	-29.0465	8.67749
 311	1	1	-0.218842	-21.1422	-20.2304	13.1483
 312	1	2	0.68591	-22.102	-19.2117	12.5617
 313	1	3	0.086668	-20.8201	-19.902	14.1424
 314	1	3	0.071846	-20.2639	-20.3274	12.5003
 315	1	3	0.062371	-21.638	-21.2044	13.2254
 316	1	4	-0.291145	-22.387	-19.4876	11.2574
 317	1	1	-0.015993	-23.3117	-18.6398	10.5414
 318	1	5	-0.555985	-22.5366	-18.2547	13.1794
 319	1	2	0.652223	-21.0291	-23.3979	7.88356
 320	1	3	0.062504	-20.0994	-25.1925	8.62962
 321	1	5	-0.583019	-20.0789	-23.0424	7.20741
 322	1	1	-0.168764	-21.0873	-24.7175	8.63359
 323	1	3	0.062846	-21.4001	-24.5452	9.67013
 324	1	4	-0.264747	-22.156	-22.6559	8.07707
 325	1	3	0.073216	-21.8108	-25.3836	8.1507
 326	1	1	-0.015836	-23.76	-20.8793	7.63857
 327	1	1	0.044531	-22.3004	-21.3526	7.45107
 328	1	1	0.341309	-21.2651	-20.3731	8.0855
 329	1	1	0.132892	-21.8083	-18.9376	8.36772
 330	1	6	-0.74435	-20.1201	-20.3274	7.23183
 331	1	7	-0.00272	-20.9628	-20.7922	9.05421
 332	1	1	-0.008403	-23.2352	-18.9593	9.02954
 333	1	4	-0.239698	-23.8411	-20.257	8.92557
 334	1	7	0.089672	-23.0881	-17.581	10.7054
 335	1	7	0.088396	-24.3341	-18.8143	10.904
 336	1	7	0.05623	-23.8672	-18.2367	8.4973
 337	1	7	0.125955	-22.1076	-21.4297	6.37288
 338	1	8	0.456798	-19.8211	-21.2731	7.13415
 339	1	9	0.198085	-29.0881	-23.6057	7.29824
 340	1	7	0.095469	-28.2804	-21.8138	9.57138
 341	1	1	-0.308877	-28.4234	-23.4677	8.15902
 342	1	8	0.426958	-26.3199	-19.5475	7.58843
 343	1	6	-0.128067	-28.9007	-24.2485	9.26721
 344	1	1	0.005701	-28.2941	-21.944	8.4826
 345	1	7	0.239394	-26.4104	-23.8089	9.68767
 346	1	5	-0.48496	-29.1353	-21.7832	5.72586
 347	1	1	-0.003409	-25.7563	-22.1394	8.46175
 348	1	2	0.352525	-29.7373	-21.1986	6.61309
 349	1	6	-0.665659	-26.8825	-19.9636	8.29411
 350	1	1	-0.510331	-26.0785	-23.6538	8.65041
 351	1	1	0.240953	-26.9774	-21.3396	7.92699
 352	1	4	0.015262	-27.1446	-23.9885	7.7635
 353	1	4	0.176506	-29.4283	-21.2175	7.95066
 354	1	3	0.090205	-31.7573	-20.5716	7.0526
 355	1	1	-0.197476	-30.9634	-20.3418	6.33165
 356	1	1	-0.039041	-24.901	-24.615	8.37412
 357	1	7	0.144117	-24.6428	-24.5944	7.30503
 358	1	3	0.104606	-31.3338	-20.5494	5.32095
 359	1	7	0.111943	-26.9784	-21.4431	6.83343
 360	1	7	0.160853	-24.0153	-24.3028	8.94715
 361	1	3	0.069306	-30.7042	-19.2801	6.41359
 362	1	4	-0.432857	-25.3113	-25.9435	8.75951
 363	1	3	0.042395	-27.0014	-27.7531	10.0477
 364	1	2	0.753764	-25.4228	-26.2865	10.0805
 365	1	1	-0.122098	-25.9255	-27.7128	10.2502
 366	1	3	0.030493	-25.7411	-28.0603	11.2737
 367	1	5	-0.562583	-25.105	-25.5693	11.0151
 368	1	3	0.048272	-25.411	-28.3787	9.54767
 369	1	4	-0.191545	-24.6581	-22.0117	7.52255
 370	1	9	0.130627	-24.0088	-20.1435	6.86723
 371	1	3	0.015236	-21.8882	-18.4136	7.40564
 372	1	7	0.210365	-25.4901	-21.7418	9.4503
 373	1	1	-0.218842	-12.3637	-16.3887	10.8659
 374	1	2	0.68591	-13.6611	-16.6104	11.6299
 375	1	3	0.086668	-11.539	-16.217	11.562
 376	1	3	0.071846	-12.4579	-15.5169	10.2114
 377	1	3	0.062371	-12.1323	-17.271	10.2579
 378	1	4	-0.291145	-13.7172	-15.8259	12.7547
 379	1	1	-0.015993	-14.8039	-15.9901	13.6983
 380	1	5	-0.555985	-14.4052	-17.5497	11.3951
 381	1	2	0.652223	-15.3294	-13.4679	9.28245
 382	1	3	0.062504	-14.492	-13.6527	7.30343
 383	1	5	-0.583019	-14.7285	-14.4251	9.73117
 384	1	1	-0.168764	-15.1504	-12.9739	7.85747
 385	1	3	0.062846	-16.1226	-12.9301	7.35372
 386	1	4	-0.264747	-16.242	-12.7029	9.95085
 387	1	3	0.073216	-14.7106	-11.971	7.86847
 388	1	1	-0.015836	-17.3285	-14.3082	11.5388
 389	1	1	0.044531	-16.6191	-12.9358	11.3349
 390	1	1	0.341309	-15.4009	-12.7411	12.2905
 391	1	1	0.132892	-15.636	-13.4852	13.6304
 392	1	6	-0.74435	-15.24	-11.3399	12.5364
 393	1	7	-0.00272	-14.4869	-13.1402	11.8368
 394	1	1	-0.008403	-15.9601	-14.9981	13.4226
 395	1	4	-0.239698	-16.3845	-15.2463	12.0716
 396	1	7	0.089672	-14.4255	-15.8408	14.714
 397	1	7	0.088396	-15.2008	-17.0112	13.6601
 398	1	7	0.05623	-16.7835	-15.253	14.1029
 399	1	7	0.125955	-17.3474	-12.1646	11.6096
 400	1	8	0.456798	-14.5784	-11.2828	13.2551
 401	1	9	0.198085	-21.8204	-16.4545	8.91189
 402	1	7	0.095469	-21.3123	-16.7435	11.412
 403	1	1	-0.308877	-20.848	-16.8239	9.25939
 404	1	8	0.426958	-19.3412	-18.4513	10.4632
 405	1	6	-0.128067	-20.8353	-18.2608	9.18769
 406	1	1	0.005701	-20.5811	-16.3265	10.7122
 407	1	7	0.239394	-18.3275	-17.6883	8.56661
 408	1	5	-0.48496	-20.5566	-14.5296	12.93
 409	1	1	-0.003409	-18.0883	-16.2451	10.1958
 410	1	2	0.352525	-20.7193	-14.1219	11.7951
 411	1	6	-0.665659	-19.0725	-18.1227	11.3493
 412	1	1	-0.510331	-18.4571	-16.6059	8.72231
 413	1	1	0.240953	-19.1607	-16.7079	11.2108
 414	1	4	0.015262	-19.8239	-16.2569	8.41318
 415	1	4	0.176506	-20.7482	-14.8922	10.667
 416	1	3	0.090205	-20.8068	-12.0503	12.3907
 417	1	1	-0.197476	-20.872	-12.6423	11.4699
 418	1	1	-0.039041	-17.5327	-15.8758	7.73087
 419	1	7	0.144117	-17.8144	-14.8155	7.65507
 420	1	3	0.104606	-21.8445	-12.4599	10.9983
 421	1	7	0.111943	-18.9678	-16.2598	12.1939
 422	1	7	0.160853	-16.4873	-15.9245	8.07581
 423	1	3	0.069306	-20.0771	-12.3257	10.7833
 424	1	4	-0.432857	-17.6692	-16.5371	6.46434
 425	1	3	0.042395	-16.7759	-16.4084	3.26913
 426	1	2	0.753764	-17.0027	-16.0345	5.38529
 427	1	1	-0.122098	-17.2848	-16.8516	4.13299
 428	1	3	0.030493	-18.3643	-16.8788	3.94423
 429	1	5	-0.562583	-16.3305	-15.0163	5.39876
 430	1	3	0.048272	-16.9268	-17.8777	4.27704
 431	1	4	-0.191545	-17.8974	-14.8082	10.3031
 432	1	9	0.130627	-18.1277	-14.1908	12.281
 433	1	3	0.015236	-16.5324	-13.0254	14.0658
 434	1	7	0.210365	-17.1437	-16.7571	10.448
 435	1	1	-0.218842	-7.4248	-8.50043	21.9725
 436	1	2	0.68591	-8.77817	-7.98777	21.5116
 437	1	3	0.086668	-7.56711	-9.34985	22.6488
 438	1	3	0.071846	-6.88576	-7.70632	22.5015
 439	1	3	0.062371	-6.82947	-8.82805	21.1123
 440	1	4	-0.291145	-9.29249	-8.77016	20.5166
 441	1	1	-0.015993	-10.5942	-8.49471	19.9489
 442	1	5	-0.555985	-9.26422	-6.94072	21.9029
 443	1	2	0.652223	-16.1266	-7.94776	21.8319
 444	1	3	0.062504	-17.4568	-6.2562	21.724
 445	1	5	-0.583019	-16.4513	-8.27252	22.9612
 446	1	1	-0.168764	-16.7036	-6.74949	21.0994
 447	1	3	0.062846	-15.8995	-6.04063	20.8704
 448	1	4	-0.264747	-15.2135	-8.60209	21.0601
 449	1	3	0.073216	-17.1649	-7.07859	20.1615
 450	1	1	-0.015836	-13.7603	-10.4469	20.44
 451	1	1	0.044531	-14.4629	-9.71604	21.6049
 452	1	1	0.341309	-13.4378	-9.19083	22.638
 453	1	1	0.132892	-12.2587	-8.42954	21.9694
 454	1	6	-0.74435	-12.9494	-10.2563	23.4581
 455	1	7	-0.00272	-13.9639	-8.50403	23.3038
 456	1	1	-0.008403	-11.6868	-9.23099	20.7662
 457	1	4	-0.239698	-12.7554	-9.58435	19.8613
 458	1	7	0.089672	-10.6149	-8.88929	18.9248
 459	1	7	0.088396	-10.7909	-7.41711	19.885
 460	1	7	0.05623	-11.2506	-10.1611	21.1549
 461	1	7	0.125955	-15.1428	-10.4143	22.1087
 462	1	8	0.456798	-12.6162	-9.77989	24.2612
 463	1	9	0.198085	-15.754	-13.6462	16.1492
 464	1	7	0.095469	-12.7589	-13.1242	16.3456
 465	1	1	-0.308877	-14.8833	-13.0334	15.8854
 466	1	8	0.426958	-11.9413	-12.0961	18.1657
 467	1	6	-0.128067	-14.5219	-13.297	14.5243
 468	1	1	0.005701	-13.7049	-13.378	16.842
 469	1	7	0.239394	-15.9106	-10.1191	17.1973
 470	1	5	-0.48496	-11.5551	-15.2078	17.4152
 471	1	1	-0.003409	-14.3586	-11.2559	18.1695
 472	1	2	0.352525	-12.7149	-15.5793	17.3446
 473	1	6	-0.665659	-12.4705	-12.647	18.8065
 474	1	1	-0.510331	-15.6286	-11.178	17.286
 475	1	1	0.240953	-13.7789	-12.6936	18.2401
 476	1	4	0.015262	-15.2628	-11.6518	15.9827
 477	1	4	0.176506	-13.8	-14.8019	17.0497
 478	1	3	0.090205	-13.8831	-17.3191	16.8022
 479	1	1	-0.197476	-13.1167	-17.035	17.5321
 480	1	1	-0.039041	-16.8571	-11.9361	17.8614
 481	1	7	0.144117	-16.6804	-13.0172	17.9548
 482	1	3	0.104606	-13.5228	-17.183	18.5378
 483	1	7	0.111943	-14.4482	-13.2811	18.8825
 484	1	7	0.160853	-17.074	-11.5624	18.8734
 485	1	3	0.069306	-12.2447	-17.6835	17.3887
 486	1	4	-0.432857	-17.9827	-11.6375	17.0139
 487	1	3	0.042395	-19.2622	-11.3791	14.5423
 488	1	2	0.753764	-18.4803	-12.575	16.151
 489	1	1	-0.122098	-19.6441	-12.0166	15.3475
 490	1	3	0.030493	-20.2959	-11.4173	15.9945
 491	1	5	-0.562583	-18.0946	-13.7305	16.0717
 492	1	3	0.048272	-20.2289	-12.8379	14.9202
 493	1	4	-0.191545	-14.7705	-10.8065	19.477
 494	1	9	0.130627	-13.276	-11.3582	20.8147
 495	1	3	0.015236	-11.4547	-8.32903	22.7097
 496	1	7	0.210365	-13.5936	-10.5824	17.7561
 497	1	1	-0.218842	-14.4287	-5.70821	29.3441
 498	1	2	0.68591	-14.2367	-4.23071	29.0554
 499	1	3	0.086668	-13.4959	-6.24597	29.1419
 500	1	3	0.071846	-15.223	-6.10514	28.7026
 501	1	3	0.062371	-14.7124	-5.84861	30.393
 502	1	4	-0.291145	-15.3836	-3.53239	29.3145
 503	1	1	-0.015993	-15.4675	-2.11258	29.0641
 504	1	5	-0.555985	-13.1611	-3.75028	28.746
 505	1	2	0.652223	-14.9823	0.462517	22.9594
 506	1	3	0.062504	-14.0712	1.87479	21.6086
 507	1	5	-0.583019	-16.1193	0.884306	22.8209
 508	1	1	-0.168764	-13.7908	0.976213	22.1698
 509	1	3	0.062846	-12.9673	1.21667	22.8519
 510	1	4	-0.264747	-14.6208	-0.481558	23.8727
 511	1	3	0.073216	-13.4547	0.204227	21.4698
 512	1	1	-0.015836	-14.9455	-2.34751	25.4204
 513	1	1	0.044531	-15.5967	-1.09661	24.7579
 514	1	1	0.341309	-16.0988	-0.0133101	25.7676
 515	1	1	0.132892	-16.3949	-0.480638	27.2348
 516	1	6	-0.74435	-17.2558	0.632488	25.2194
 517	1	7	-0.00272	-15.2965	0.733476	25.8359
 518	1	1	-0.008403	-15.8084	-1.8799	27.5709
 519	1	4	-0.239698	-14.6247	-2.06877	26.786
 520	1	7	0.089672	-14.5331	-1.60237	29.3364
 521	1	7	0.088396	-16.2777	-1.70302	29.6806
 522	1	7	0.05623	-16.5584	-2.63241	27.2913
 523	1	7	0.125955	-16.4567	-1.44577	24.1725
 524	1	8	0.456798	-17.002	0.883665	24.2852
 525	1	9	0.198085	-11.8841	-6.29222	23.2972
 526	1	7	0.095469	-13.0599	-4.63518	20.9894
 527	1	1	-0.308877	-12.6588	-6.08401	22.5473
 528	1	8	0.426958	-12.124	-2.39111	21.2281
 529	1	6	-0.128067	-12.6642	-7.11382	21.551
 530	1	1	0.005701	-12.3864	-4.73003	21.8517
 531	1	7	0.239394	-15.1657	-5.12895	24.5513
 532	1	5	-0.48496	-11.1205	-2.9883	19.9911
 533	1	1	-0.003409	-13.8592	-3.64586	23.6577
 534	1	2	0.352525	-10.5057	-3.91314	20.4955
 535	1	6	-0.665659	-12.7298	-2.32266	22.0141
 536	1	1	-0.510331	-14.1146	-5.07369	24.2355
 537	1	1	0.240953	-12.5827	-3.51344	22.7953
 538	1	4	0.015262	-13.9427	-6.04231	23.1869
 539	1	4	0.176506	-11.0116	-4.79304	21.4117
 540	1	3	0.090205	-8.65052	-3.42905	19.504
 541	1	1	-0.197476	-9.04778	-4.20449	20.1702
 542	1	1	-0.039041	-13.2678	-5.44335	25.4878
 543	1	7	0.144117	-12.233	-5.72302	25.2469
 544	1	3	0.104606	-8.96679	-5.17935	19.6755
 545	1	7	0.111943	-11.7201	-3.4401	23.4732
 546	1	7	0.160853	-13.2113	-4.58787	26.1805
 547	1	3	0.069306	-8.45306	-4.22755	21.0913
 548	1	4	-0.432857	-13.9832	-6.50664	26.1438
 549	1	3	0.042395	-14.7217	-8.50282	27.6919
 550	1	2	0.753764	-13.6424	-7.81626	25.9563
 551	1	1	-0.122098	-14.6496	-8.73904	26.6243
 552	1	3	0.030493	-14.3462	-9.78594	26.5053
 553	1	5	-0.562583	-12.633	-8.21731	25.3922
 554	1	3	0.048272	-15.6348	-8.59689	26.164
 555	1	4	-0.191545	-13.725	-2.72352	24.7565
 556	1	9	0.130627	-15.6446	-3.19229	25.4015
 557	1	3	0.015236	-17.4821	-0.569993	27.3629
 558	1	7	0.210365	-14.6962	-3.34444	23.0126
 559	1	1	-0.218842	-16.5558	1.26264	36.6126
 560	1	2	0.68591	-16.4309	2.77507	36.6346
 561	1	3	0.086668	-16.1371	0.876885	35.6765
 562	1	3	0.071846	-17.612	0.97781	36.6721
 563	1	3	0.062371	-16.0124	0.828734	37.4599
 564	1	4	-0.291145	-17.0887	3.34297	35.5847
 565	1	1	-0.015993	-17.0605	4.7754	35.4353
 566	1	5	-0.555985	-15.8148	3.38907	37.4878
 567	1	2	0.652223	-16.7479	8.18231	30.6646
 568	1	3	0.062504	-15.3376	9.71292	30.1018
 569	1	5	-0.583019	-17.7358	8.8349	30.3787
 570	1	1	-0.168764	-15.3275	8.67749	30.4604
 571	1	3	0.062846	-14.7738	8.62602	31.4047
 572	1	4	-0.264747	-16.7774	6.93581	31.217
 573	1	3	0.073216	-14.8235	8.04545	29.7207
 574	1	1	-0.015836	-17.7933	4.78279	31.7538
 575	1	1	0.044531	-18.052	6.28485	31.4589
 576	1	1	0.341309	-18.8046	6.95042	32.6397
 577	1	1	0.132892	-18.0225	6.66213	33.9548
 578	1	6	-0.74435	-20.1369	6.41157	32.644
 579	1	7	-0.00272	-18.8606	8.0344	32.4881
 580	1	1	-0.008403	-17.8618	5.134	34.1675
 581	1	4	-0.239698	-17.1261	4.63237	33.0291
 582	1	7	0.089672	-16.0275	5.1357	35.3438
 583	1	7	0.088396	-17.5159	5.24786	36.3163
 584	1	7	0.05623	-18.849	4.65607	34.2186
 585	1	7	0.125955	-18.6801	6.3678	30.5643
 586	1	8	0.456798	-20.6567	6.88512	33.3224
 587	1	9	0.198085	-17.0397	1.95105	27.1981
 588	1	7	0.095469	-18.3906	0.805253	29.09
 589	1	1	-0.308877	-16.6331	1.75709	28.2003
 590	1	8	0.426958	-16.0222	0.528425	30.3083
 591	1	6	-0.128067	-15.9143	0.512377	28.1661
 592	1	1	0.005701	-17.8172	1.73312	29.213
 593	1	7	0.239394	-14.5683	2.00691	30.0055
 594	1	5	-0.48496	-20.3865	2.24197	30.2816
 595	1	1	-0.003409	-16.333	2.98219	30.8658
 596	1	2	0.352525	-19.8982	2.99672	29.459
 597	1	6	-0.665659	-16.6883	0.612235	31.0215
 598	1	1	-0.510331	-15.179	2.90067	29.8219
 599	1	1	0.240953	-17.3454	1.83042	30.6893
 600	1	4	0.015262	-15.7405	2.85004	28.4975
 601	1	4	0.176506	-18.6722	2.8457	28.8724
 602	1	3	0.090205	-19.9282	5.11252	29.0118
 603	1	1	-0.197476	-20.6076	4.2536	28.9753
 604	1	1	-0.039041	-14.2523	4.13377	29.8882
 605	1	7	0.144117	-13.349	3.98977	29.2765
 606	1	3	0.104606	-21.4728	4.458	29.6181
 607	1	7	0.111943	-18.1959	1.97803	31.3683
 608	1	7	0.160853	-14.7848	5.01872	29.5046
 609	1	3	0.069306	-20.9499	4.11612	27.943
 610	1	4	-0.432857	-13.9142	4.32134	31.2754
 611	1	3	0.042395	-14.1767	5.50935	33.6642
 612	1	2	0.753764	-13.3614	5.50211	31.6747
 613	1	1	-0.122098	-13.1917	5.55097	33.185
 614	1	3	0.030493	-12.6841	6.47698	33.4806
 615	1	5	-0.562583	-13.0714	6.42212	30.9283
 616	1	3	0.048272	-12.6002	4.69114	33.5192
 617	1	4	-0.191545	-16.9883	4.25785	30.6798
 618	1	9	0.130627	-18.7527	4.24877	31.7944
 619	1	3	0.015236	-17.0094	7.05934	33.8096
 620	1	7	0.210365	-15.9069	2.9181	31.8779
 621	1	1	-0.218842	-28.5018	10.2353	40.5727