pySIMM System Object

2916 atoms
3009 bonds
5546 angles
7705 dihedrals
188 impropers

9 atom types
10 bond types
23 angle types
20 dihedral types
1 improper types

-211.096089 211.096089 xlo xhi
-211.096089 211.096089 ylo yhi
-211.096089 211.096089 zlo zhi

Masses

   1	12.01	# c3
   2	12.01	# c
   3	1.008	# hc
   4	16.0	# os
   5	16.0	# o
   6	16.0	# oh
   7	1.008	# h1
   8	1.008	# ho
   9	1.008	# h2

Pair Coeffs

   1	0.1094	3.3996695084235347	# c3
   2	0.086	3.3996695084235347	# c
   3	0.0157	2.649532787749369	# hc
   4	0.17	3.0000123434657784	# os
   5	0.21	2.959921901149463	# o
   6	0.2104	3.0664733878390478	# oh
   7	0.0157	2.471353044121301	# h1
   8	0.0047	0.5379246460131368	# ho
   9	0.0157	2.2931733004932333	# h2

Bond Coeffs

   1	331.7	1.0961	# c3,h2
   2	637.7	1.2183	# c,o
   3	300.9	1.5375	# c3,c3
   4	330.6	1.0969	# c3,hc
   5	316.7	1.4233	# c3,oh
   6	330.6	1.0969	# c3,h1
   7	371.4	0.973	# ho,oh
   8	308.6	1.4316	# c3,os
   9	313.0	1.5241	# c,c3
  10	390.8	1.3584	# c,os

Angle Coeffs

   1	46.93	108.77	# c,c3,hc
   2	67.4	123.2	# c3,c,o
   3	68.0	107.97	# c3,c3,os
   4	46.39	109.56	# c3,c3,h1
   5	46.25	110.22	# c3,c3,h2
   6	62.86	111.51	# c3,c3,c3
   7	68.89	110.72	# c3,c,os
   8	72.58	109.38	# oh,c3,os
   9	75.32	123.25	# o,c,os
  10	67.47	110.19	# c3,c3,oh
  11	46.34	109.8	# c3,c3,hc
  12	47.38	107.26	# c3,oh,ho
  13	39.24	108.46	# h1,c3,h1
  14	50.85	109.58	# h2,c3,os
  15	72.74	108.29	# os,c3,os
  16	50.8	109.78	# h1,c3,os
  17	63.28	115.98	# c,os,c3
  18	62.7	112.48	# c3,os,c3
  19	50.93	110.26	# h1,c3,oh
  20	39.4	107.58	# hc,c3,hc
  21	51.13	109.43	# h2,c3,oh
  22	51.11	109.5	# hc,c3,oh
  23	62.7	112.48	# c3,oh,c3

Dihedral Coeffs

   1	3	0.18	3	0	0.25	2	180	0.2	1	180	# c3,c3,c3,c3
   2	1	0.3833333333333333	3	0	# X,c3,os,X
   3	2	0.144	3	0	1.175	2	0	# os,c3,c3,oh
   4	3	0.1	3	0	0.85	2	180	1.35	1	180	# c3,os,c3,os
   5	2	0.144	3	0	1.175	2	0	# os,c3,c3,os
   6	3	2.7	2	180	0.0	1	0	1.15	3	0	# c3,c,os,c3
   7	2	0.0	3	0	0.25	1	0	# hc,c3,c3,oh
   8	1	0.16	3	0	# hc,c3,c3,c3
   9	1	0.15555555555555556	3	0	# X,c3,c3,X
  10	2	0.16	3	0	0.25	1	0	# ho,oh,c3,c3
  11	2	0.383	3	0	0.8	1	180	# c3,c3,os,c
  12	1	0.0	2	180	# X,c,c3,X
  13	2	2.7	2	180	1.4	1	180	# o,c,os,c3
  14	2	0.0	3	0	0.25	1	0	# hc,c3,c3,os
  15	2	0.0	3	0	0.25	1	0	# h1,c3,c3,oh
  16	1	0.16666666666666666	3	0	# X,c3,oh,X
  17	3	0.8	1	0	0.0	2	0	0.08	3	180	# hc,c3,c,o
  18	2	0.0	3	0	0.25	1	0	# h1,c3,c3,os
  19	2	0.383	3	0	0.1	2	180	# c3,c3,os,c3
  20	2	0.144	3	0	1.175	2	0	# oh,c3,c3,oh

Improper Coeffs

   1	10.5	-1	2	# c,X,X,o

Atoms

   1	1	1	-0.218842	-9.18155	-1.50035	12.9232
   2	1	2	0.68591	-9.32488	-2.57716	13.9835
   3	1	3	0.086668	-10.0294	-1.54794	12.232
   4	1	3	0.071846	-8.24713	-1.64411	12.3697
   5	1	3	0.062371	-9.16744	-0.515327	13.4043
   6	1	4	-0.291145	-10.4807	-2.4197	14.6921
   7	1	1	-0.015993	-10.7714	-3.31357	15.7869
   8	1	5	-0.555985	-8.50577	-3.46346	14.1586
   9	1	2	0.652223	-14.018	-0.368597	20.891
  10	1	3	0.062504	-13.6981	1.52698	21.8555
  11	1	5	-0.583019	-15.015	-1.01978	20.6266
  12	1	1	-0.168764	-13.8695	0.482425	22.1391
  13	1	3	0.062846	-14.7758	0.414741	22.7515
  14	1	4	-0.264747	-12.8933	-0.318997	20.1251
  15	1	3	0.073216	-13.0098	0.130624	22.721
  16	1	1	-0.015836	-11.3717	-0.659882	18.3321
  17	1	1	0.044531	-12.7545	-1.05596	18.8845
  18	1	1	0.341309	-12.8615	-2.59109	19.0947
  19	1	1	0.132892	-12.0428	-3.42006	18.048
  20	1	6	-0.74435	-14.2302	-3.00745	19.0685
  21	1	7	-0.00272	-12.4732	-2.79511	20.0987
  22	1	1	-0.008403	-11.7378	-2.59422	16.7607
  23	1	4	-0.239698	-11.1671	-1.2887	17.0531
  24	1	7	0.089672	-9.84625	-3.57678	16.3157
  25	1	7	0.088396	-11.2215	-4.24228	15.4129
  26	1	7	0.05623	-12.6926	-2.44199	16.2401
  27	1	7	0.125955	-13.5217	-0.745285	18.1665
  28	1	8	0.456798	-14.7141	-2.38895	19.6873
  29	1	9	0.198085	-6.34252	1.00682	20.0056
  30	1	7	0.095469	-7.76049	1.36967	21.8614
  31	1	1	-0.308877	-6.53225	0.0845901	20.585
  32	1	8	0.426958	-10.0466	0.66856	22.5801
  33	1	6	-0.128067	-5.31579	-0.376099	21.2052
  34	1	1	0.005701	-7.71135	0.30545	21.5964
  35	1	7	0.239394	-7.61739	0.187715	18.1209
  36	1	5	-0.48496	-9.11575	0.385921	24.0843
  37	1	1	-0.003409	-9.25298	-0.194273	19.5244
  38	1	2	0.352525	-8.14784	-0.34551	23.9273
  39	1	6	-0.665659	-10.1287	0.70416	21.5914
  40	1	1	-0.510331	-7.95024	-0.633123	18.7669
  41	1	1	0.240953	-9.10672	-0.160389	21.0717
  42	1	4	0.015262	-6.9232	-0.952304	19.6996
  43	1	4	0.176506	-7.40366	-0.460679	22.7836
  44	1	3	0.090205	-7.74232	-2.30084	24.7393
  45	1	1	-0.197476	-7.61225	-1.25071	25.0282
  46	1	1	-0.039041	-8.12171	-1.89022	17.8812
  47	1	7	0.144117	-8.44881	-2.7483	18.4903
  48	1	3	0.104606	-8.15615	-1.06426	25.9625
  49	1	7	0.111943	-9.26897	-1.18762	21.4227
  50	1	7	0.160853	-8.88643	-1.71359	17.1099
  51	1	3	0.069306	-6.54412	-1.05562	25.1814
  52	1	4	-0.432857	-6.8653	-2.19219	17.24
  53	1	3	0.042395	-4.38394	-1.88747	16.426
  54	1	2	0.753764	-6.4764	-1.47439	16.1436
  55	1	1	-0.122098	-5.13125	-1.95598	15.6271
  56	1	3	0.030493	-4.81105	-1.343	14.7772
  57	1	5	-0.562583	-7.12101	-0.574022	15.6276
  58	1	3	0.048272	-5.21456	-3.00147	15.3089
  59	1	4	-0.191545	-10.3482	-1.1115	19.2544
  60	1	9	0.130627	-11.3239	0.429038	18.2151
  61	1	3	0.015236	-12.656	-4.27541	17.7318
  62	1	7	0.210365	-9.52033	0.826831	19.22
  63	1	1	-0.218842	-9.22546	-14.047	20.7986
  64	1	2	0.68591	-10.0924	-13.6103	21.9646
  65	1	3	0.086668	-8.98352	-13.1792	20.1754
  66	1	3	0.071846	-9.75429	-14.7953	20.1985
  67	1	3	0.062371	-8.29398	-14.4804	21.1807
  68	1	4	-0.291145	-9.51891	-12.5747	22.6436
  69	1	1	-0.015993	-10.187	-12.0188	23.7894
  70	1	5	-0.555985	-11.1698	-14.1212	22.2309
  71	1	2	0.652223	-12.3424	-6.92682	25.5595
  72	1	3	0.062504	-12.8108	-7.02469	27.6586
  73	1	5	-0.583019	-12.4933	-5.99839	24.7842
  74	1	1	-0.168764	-11.9715	-6.7322	27.0186
  75	1	3	0.062846	-11.0992	-7.34057	27.2746
  76	1	4	-0.264747	-12.5221	-8.2456	25.2485
  77	1	3	0.073216	-11.7343	-5.67788	27.2044
  78	1	1	-0.015836	-11.6252	-8.6889	22.9757
  79	1	1	0.044531	-12.8788	-8.61684	23.8901
  80	1	1	0.341309	-13.5854	-9.99765	23.9236
  81	1	1	0.132892	-12.5799	-11.1608	24.1861
  82	1	6	-0.74435	-14.2834	-10.178	22.6887
  83	1	7	-0.00272	-14.3234	-9.98713	24.7358
  84	1	1	-0.008403	-11.2919	-11.0398	23.3348
  85	1	4	-0.239698	-10.7556	-9.71302	23.4729
  86	1	7	0.089672	-9.45862	-11.4768	24.4055
  87	1	7	0.088396	-10.6072	-12.8273	24.4029
  88	1	7	0.05623	-11.5449	-11.2295	22.2828
  89	1	7	0.125955	-13.5927	-7.89376	23.4739
  90	1	8	0.456798	-14.7316	-11.0456	22.7798
  91	1	9	0.198085	-12.0615	-4.88678	20.0324
  92	1	7	0.095469	-10.3894	-3.32053	21.1529
  93	1	1	-0.308877	-11.0037	-4.85017	19.7391
  94	1	8	0.426958	-11.4998	-5.05566	23.7819
  95	1	6	-0.128067	-10.8399	-3.97846	18.6133
  96	1	1	0.005701	-10.1314	-4.36131	20.9183
  97	1	7	0.239394	-11.7362	-7.71141	20.1467
  98	1	5	-0.48496	-7.90864	-3.24973	22.2853
  99	1	1	-0.003409	-11.1564	-6.52734	21.8797
 100	1	2	0.352525	-7.75677	-3.84223	21.2301
 101	1	6	-0.665659	-11.0238	-4.44632	23.1516
 102	1	1	-0.510331	-10.8389	-7.16578	20.4714
 103	1	1	0.240953	-10.3386	-5.24041	22.1806
 104	1	4	0.015262	-10.5682	-6.18134	19.4464
 105	1	4	0.176506	-8.75165	-4.42092	20.4927
 106	1	3	0.090205	-5.6109	-3.60681	21.2229
 107	1	1	-0.197476	-6.39204	-4.03163	20.5812
 108	1	1	-0.039041	-9.64884	-8.16224	20.4388
 109	1	7	0.144117	-9.92701	-9.10086	20.9419
 110	1	3	0.104606	-6.36255	-3.52471	19.6102
 111	1	7	0.111943	-9.35912	-5.54643	22.5731
 112	1	7	0.160853	-9.3907	-8.42361	19.4004
 113	1	3	0.069306	-6.19319	-5.09588	20.4199
 114	1	4	-0.432857	-8.50945	-7.57906	21.1028
 115	1	3	0.042395	-5.6438	-7.2142	21.3767
 116	1	2	0.753764	-7.44304	-8.39426	21.37
 117	1	1	-0.122098	-6.33401	-7.65531	22.1038
 118	1	3	0.030493	-5.78144	-8.35143	22.7466
 119	1	5	-0.562583	-7.38681	-9.5782	21.0831
 120	1	3	0.048272	-6.75694	-6.85577	22.7227
 121	1	4	-0.191545	-10.8701	-7.46446	22.9426
 122	1	9	0.130627	-11.9394	-8.96155	21.9601
 123	1	3	0.015236	-12.2885	-11.1228	25.2396
 124	1	7	0.210365	-12.2174	-6.24009	21.9176
 125	1	1	-0.218842	-17.7328	-9.51493	28.3183
 126	1	2	0.68591	-17.8426	-10.5155	29.4527
 127	1	3	0.086668	-17.3594	-10.0253	27.4256
 128	1	3	0.071846	-17.0412	-8.71022	28.592
 129	1	3	0.062371	-18.7181	-9.08804	28.0983
 130	1	4	-0.291145	-18.8721	-11.3845	29.2502
 131	1	1	-0.015993	-19.1403	-12.4787	30.1591
 132	1	5	-0.555985	-17.116	-10.4885	30.432
 133	1	2	0.652223	-21.1375	-15.8084	27.0541
 134	1	3	0.062504	-22.9395	-15.6274	25.8848
 135	1	5	-0.583019	-21.5083	-16.7855	27.6868
 136	1	1	-0.168764	-21.9902	-15.0958	26.0188
 137	1	3	0.062846	-22.1918	-14.0703	26.3492
 138	1	4	-0.264747	-19.9291	-15.1968	27.2166
 139	1	3	0.073216	-21.4571	-15.0592	25.0621
 140	1	1	-0.015836	-17.6268	-15.0087	28.03
 141	1	1	0.044531	-18.9838	-15.7394	28.1717
 142	1	1	0.341309	-19.571	-15.6118	29.607
 143	1	1	0.132892	-18.5466	-14.9802	30.5846
 144	1	6	-0.74435	-20.0307	-16.8937	30.0411
 145	1	7	-0.00272	-20.4407	-14.9455	29.5664
 146	1	1	-0.008403	-18.0656	-13.5983	30.0353
 147	1	4	-0.239698	-17.7158	-13.6964	28.6274
 148	1	7	0.089672	-20.1281	-12.8868	29.9182
 149	1	7	0.088396	-19.1826	-12.1177	31.1935
 150	1	7	0.05623	-17.1829	-13.2998	30.6087
 151	1	7	0.125955	-18.8069	-16.8014	27.9536
 152	1	8	0.456798	-20.7153	-17.1493	29.3659
 153	1	9	0.198085	-13.6909	-12.7065	25.9023
 154	1	7	0.095469	-13.0939	-14.8961	25.4381
 155	1	1	-0.308877	-14.0138	-13.0201	24.9012
 156	1	8	0.426958	-14.3781	-16.9901	25.5116
 157	1	6	-0.128067	-13.1672	-12.4403	23.9083
 158	1	1	0.005701	-13.9577	-14.5733	24.8434
 159	1	7	0.239394	-15.9145	-12.1281	26.6339
 160	1	5	-0.48496	-13.5575	-17.2396	23.9321
 161	1	1	-0.003409	-16.004	-14.2923	26.3845
 162	1	2	0.352525	-13.5676	-16.3084	23.1428
 163	1	6	-0.665659	-14.889	-16.4179	26.1408
 164	1	1	-0.510331	-16.198	-12.8322	25.8423
 165	1	1	0.240953	-15.2424	-15.233	25.4243
 166	1	4	0.015262	-15.3679	-12.6139	24.6893
 167	1	4	0.176506	-13.7823	-14.9932	23.4664
 168	1	3	0.090205	-13.5659	-17.5621	21.387
 169	1	1	-0.197476	-13.3894	-16.5107	21.6438
 170	1	1	-0.039041	-17.645	-12.506	25.4173
 171	1	7	0.144117	-17.952	-13.1323	24.5661
 172	1	3	0.104606	-12.366	-16.2446	21.3562
 173	1	7	0.111943	-15.9261	-15.4717	24.5979
 174	1	7	0.160853	-18.3503	-12.6979	26.2429
 175	1	3	0.069306	-14.0904	-15.8808	21.0837
 176	1	4	-0.432857	-17.6603	-11.1119	25.067
 177	1	3	0.042395	-18.2604	-8.53895	25.1663
 178	1	2	0.753764	-18.8394	-10.5535	24.6663
 179	1	1	-0.122098	-18.658	-9.08725	24.3047
 180	1	3	0.030493	-19.6171	-8.64718	24.0066
 181	1	5	-0.562583	-19.909	-11.1381	24.6425
 182	1	3	0.048272	-17.9474	-9.00006	23.4745
 183	1	4	-0.191545	-17.2801	-14.9093	26.6399
 184	1	9	0.130627	-16.8464	-15.5944	28.5376
 185	1	3	0.015236	-17.679	-15.6505	30.624
 186	1	7	0.210365	-15.4099	-14.2679	27.3041
 187	1	1	-0.218842	-23.6922	-18.5912	34.841
 188	1	2	0.68591	-23.0839	-18.85	36.2065
 189	1	3	0.086668	-24.2916	-19.455	34.5352
 190	1	3	0.071846	-22.8927	-18.4355	34.1074
 191	1	3	0.062371	-24.3267	-17.6983	34.8754
 192	1	4	-0.291145	-22.258	-19.9388	36.1853
 193	1	1	-0.015993	-21.5028	-20.3223	37.3583
 194	1	5	-0.555985	-23.3429	-18.1842	37.1962
 195	1	2	0.652223	-15.3587	-20.0153	37.2119
 196	1	3	0.062504	-14.3353	-19.7547	35.3365
 197	1	5	-0.583019	-15.0717	-20.1255	38.3921
 198	1	1	-0.168764	-14.4833	-20.5389	36.0882
 199	1	3	0.062846	-13.5089	-20.8468	36.4842
 200	1	4	-0.264747	-16.5129	-19.4692	36.7336
 201	1	3	0.073216	-14.9695	-21.3971	35.6125
 202	1	1	-0.015836	-18.5445	-18.151	36.6856
 203	1	1	0.044531	-17.4719	-18.8013	37.5989
 204	1	1	0.341309	-18.1073	-19.8175	38.598
 205	1	1	0.132892	-19.6015	-19.5331	38.9531
 206	1	6	-0.74435	-17.311	-19.966	39.7751
 207	1	7	-0.00272	-18.1098	-20.7873	38.0835
 208	1	1	-0.008403	-20.4646	-19.2227	37.6842
 209	1	4	-0.239698	-19.6288	-19.0758	36.5163
 210	1	7	0.089672	-20.9822	-21.2701	37.169
 211	1	7	0.088396	-22.178	-20.4652	38.2129
 212	1	7	0.05623	-21.009	-18.2891	37.8478
 213	1	7	0.125955	-16.9792	-18.0086	38.1697
 214	1	8	0.456798	-16.3773	-20.0931	39.4414
 215	1	9	0.198085	-17.6258	-14.0477	33.0488
 216	1	7	0.095469	-19.7643	-14.1853	34.426
 217	1	1	-0.308877	-18.2537	-14.9498	33.0298
 218	1	8	0.426958	-20.4433	-16.3178	32.7029
 219	1	6	-0.128067	-19.1323	-14.8612	31.8934
 220	1	1	0.005701	-19.0588	-15.0233	34.3578
 221	1	7	0.239394	-18.6809	-17.4884	32.1184
 222	1	5	-0.48496	-19.4601	-14.8543	37.2097
 223	1	1	-0.003409	-18.8768	-17.5747	34.2883
 224	1	2	0.352525	-18.3417	-14.8496	36.7158
 225	1	6	-0.665659	-20.885	-16.4453	33.5741
 226	1	1	-0.510331	-18.0235	-17.3978	32.9966
 227	1	1	0.240953	-19.8217	-16.3701	34.5217
 228	1	4	0.015262	-17.3835	-16.1065	32.9833
 229	1	4	0.176506	-18.0559	-14.9001	35.3831
 230	1	3	0.090205	-16.194	-15.1108	36.89
 231	1	1	-0.197476	-17.0565	-14.8954	37.5305
 232	1	1	-0.039041	-16.9301	-18.4734	32.8643
 233	1	7	0.144117	-16.3695	-18.3512	31.9257
 234	1	3	0.104606	-17.1131	-15.6868	38.2739
 235	1	7	0.111943	-20.2592	-16.4374	35.5253
 236	1	7	0.160853	-16.2204	-18.4039	33.7037
 237	1	3	0.069306	-16.8869	-13.9436	38.0388
 238	1	4	-0.432857	-17.6094	-19.74	32.881
 239	1	3	0.042395	-17.1548	-23.0152	33.1541
 240	1	2	0.753764	-16.8706	-20.8831	32.955
 241	1	1	-0.122098	-17.7615	-22.1155	32.998
 242	1	3	0.030493	-18.3116	-22.2094	32.0542
 243	1	5	-0.562583	-15.653	-20.9184	33.0243
 244	1	3	0.048272	-18.483	-22.0197	33.8178
 245	1	4	-0.191545	-17.979	-17.7562	35.4131
 246	1	9	0.130627	-18.9316	-17.2565	37.1727
 247	1	3	0.015236	-19.9778	-20.473	39.3768
 248	1	7	0.210365	-19.4943	-18.4777	34.1732
 249	1	1	-0.218842	-14.5128	-8.70752	42.625
 250	1	2	0.68591	-15.0567	-8.88467	41.2188
 251	1	3	0.086668	-14.7328	-7.69475	42.9808
 252	1	3	0.071846	-13.4284	-8.86407	42.6227
 253	1	3	0.062371	-14.9772	-9.43858	43.2963
 254	1	4	-0.291145	-14.7835	-10.1321	40.7346
 255	1	1	-0.015993	-15.2251	-10.5112	39.4129
 256	1	5	-0.555985	-15.6513	-8.00814	40.6161
 257	1	2	0.652223	-21.8259	-11.4939	38.9709
 258	1	3	0.062504	-23.2115	-12.6541	40.1377
 259	1	5	-0.583019	-21.8593	-10.3692	38.5018
 260	1	1	-0.168764	-23.0375	-12.4022	39.0854
 261	1	3	0.062846	-23.9231	-11.8963	38.6838
 262	1	4	-0.264747	-20.6932	-12.1018	39.4157
 263	1	3	0.073216	-22.8604	-13.3254	38.5225
 264	1	1	-0.015836	-18.4587	-12.2563	40.333
 265	1	1	0.044531	-19.4051	-11.4386	39.3997
 266	1	1	0.341309	-18.8235	-11.3206	37.9618
 267	1	1	0.132892	-17.354	-10.7871	37.9594
 268	1	6	-0.74435	-19.6162	-10.4681	37.1229
 269	1	7	-0.00272	-18.8352	-12.331	37.5436
 270	1	1	-0.008403	-16.7639	-10.7038	39.3972
 271	1	4	-0.239698	-17.0688	-11.9287	40.0965
 272	1	7	0.089672	-14.7373	-11.4491	39.1157
 273	1	7	0.088396	-14.936	-9.73894	38.687
 274	1	7	0.05623	-17.2356	-9.85868	39.914
 275	1	7	0.125955	-19.5073	-10.4283	39.8173
 276	1	8	0.456798	-20.4984	-10.3447	37.5794
 277	1	9	0.198085	-19.9057	-16.8894	38.7447
 278	1	7	0.095469	-20.7767	-16.8385	41.6639
 279	1	1	-0.308877	-19.7076	-17.139	39.7889
 280	1	8	0.426958	-22.1587	-14.8457	41.8616
 281	1	6	-0.128067	-19.7825	-18.5582	40.0146
 282	1	1	0.005701	-20.7927	-16.4286	40.6452
 283	1	7	0.239394	-18.4495	-16.3489	42.1158
 284	1	5	-0.48496	-23.3356	-16.0795	41.8045
 285	1	1	-0.003409	-19.0968	-14.5398	41.0616
 286	1	2	0.352525	-23.2377	-16.506	40.6655
 287	1	6	-0.665659	-21.4106	-14.2323	41.627
 288	1	1	-0.510331	-18.1823	-15.7926	41.2056
 289	1	1	0.240953	-20.5563	-14.8949	40.6867
 290	1	4	0.015262	-18.3746	-16.6636	40.0765
 291	1	4	0.176506	-22.0582	-16.7117	40.0011
 292	1	3	0.090205	-25.3712	-16.5767	40.3463
 293	1	1	-0.197476	-24.4513	-16.8435	39.8128
 294	1	1	-0.039041	-16.6907	-15.4003	41.3124
 295	1	7	0.144117	-16.3173	-14.9741	40.3695
 296	1	3	0.104606	-24.4649	-17.9177	39.5943
 297	1	7	0.111943	-20.7397	-14.5228	39.6699
 298	1	7	0.160853	-16.5658	-14.6282	42.0848
 299	1	3	0.069306	-24.414	-16.2921	38.8655
 300	1	4	-0.432857	-15.9604	-16.577	41.6998
 301	1	3	0.042395	-14.0624	-19.0844	40.6673
 302	1	2	0.753764	-15.3859	-17.3785	40.751
 303	1	1	-0.122098	-14.6939	-18.5685	41.3993
 304	1	3	0.030493	-15.4444	-19.2672	41.7869
 305	1	5	-0.562583	-15.2583	-17.0803	39.5733
 306	1	3	0.048272	-14.0698	-18.2262	42.2323
 307	1	4	-0.191545	-18.553	-13.6694	40.0392
 308	1	9	0.130627	-18.7113	-12.0574	41.3816
 309	1	3	0.015236	-17.35	-9.76148	37.5663
 310	1	7	0.210365	-19.1162	-14.0185	42.0287
 311	1	1	-0.218842	-9.95348	-8.3668	31.8355
 312	1	2	0.68591	-11.0921	-8.26993	30.8365
 313	1	3	0.086668	-9.65224	-7.36101	32.1478
 314	1	3	0.071846	-9.09856	-8.87406	31.3763
 315	1	3	0.062371	-10.2739	-8.93726	32.7149
 316	1	4	-0.291145	-11.7284	-9.46481	30.6656
 317	1	1	-0.015993	-12.8816	-9.50833	29.7979
 318	1	5	-0.555985	-11.3532	-7.25975	30.205
 319	1	2	0.652223	-13.861	-16.0749	30.7711
 320	1	3	0.062504	-13.6356	-18.0897	31.5061
 321	1	5	-0.583019	-14.1043	-16.3888	29.6192
 322	1	1	-0.168764	-13.5354	-17.063	31.8778
 323	1	3	0.062846	-12.5091	-16.9021	32.2268
 324	1	4	-0.264747	-13.8439	-14.7905	31.2179
 325	1	3	0.073216	-14.2217	-16.9144	32.7193
 326	1	1	-0.015836	-14.564	-12.461	31.1882
 327	1	1	0.044531	-14.1742	-13.6941	30.3238
 328	1	1	0.341309	-12.9834	-13.4635	29.3328
 329	1	1	0.132892	-12.7309	-11.9873	28.8707
 330	1	6	-0.74435	-13.1735	-14.289	28.1781
 331	1	7	-0.00272	-12.0756	-13.7991	29.8513
 332	1	1	-0.008403	-13.4736	-10.9363	29.7443
 333	1	4	-0.239698	-13.5747	-11.433	31.0828
 334	1	7	0.089672	-12.6184	-9.17577	28.7867
 335	1	7	0.088396	-13.649	-8.8258	30.1882
 336	1	7	0.05623	-14.4853	-10.8286	29.3304
 337	1	7	0.125955	-15.0611	-13.9597	29.735
 338	1	8	0.456798	-13.3915	-15.209	28.5062
 339	1	9	0.198085	-17.8842	-12.1971	35.7134
 340	1	7	0.095469	-15.9913	-9.8933	35.2986
 341	1	1	-0.308877	-16.8478	-11.8425	35.7563
 342	1	8	0.426958	-16.1759	-9.95877	31.7808
 343	1	6	-0.128067	-16.4859	-11.5712	37.1198
 344	1	1	0.005701	-16.6794	-10.6011	34.8206
 345	1	7	0.239394	-14.3181	-11.813	35.7076
 346	1	5	-0.48496	-19.0698	-11.7095	33.6341
 347	1	1	-0.003409	-14.7716	-11.8048	33.5792
 348	1	2	0.352525	-19.0292	-10.5561	34.0347
 349	1	6	-0.665659	-15.8262	-9.77712	32.6943
 350	1	1	-0.510331	-14.6877	-12.5259	34.9549
 351	1	1	0.240953	-16.0764	-10.9694	33.4375
 352	1	4	0.015262	-16.0196	-12.9239	35.2935
 353	1	4	0.176506	-17.9537	-9.93935	34.6263
 354	1	3	0.090205	-20.5539	-9.28628	34.8827
 355	1	1	-0.197476	-20.211	-9.60757	33.8922
 356	1	1	-0.039041	-13.7677	-13.7703	34.977
 357	1	7	0.144117	-14.1342	-14.5256	34.2674
 358	1	3	0.104606	-21.0344	-10.1166	33.378
 359	1	7	0.111943	-16.7971	-11.6029	32.9053
 360	1	7	0.160853	-12.7428	-13.4974	34.6813
 361	1	3	0.069306	-19.9168	-8.72341	33.3149
 362	1	4	-0.432857	-13.7821	-14.319	36.3104
 363	1	3	0.042395	-14.4614	-14.3626	38.9684
 364	1	2	0.753764	-13.2122	-13.6597	37.3651
 365	1	1	-0.122098	-13.411	-14.4231	38.665
 366	1	3	0.030493	-12.7822	-13.9988	39.4567
 367	1	5	-0.562583	-12.5802	-12.6183	37.2871
 368	1	3	0.048272	-13.147	-15.4774	38.522
 369	1	4	-0.191545	-14.7587	-12.8366	32.5664
 370	1	9	0.130627	-15.5079	-12.0609	30.8143
 371	1	3	0.015236	-13.1296	-11.8779	27.8541
 372	1	7	0.210365	-13.9045	-11.1377	33.4639
 373	1	1	-0.218842	-3.01905	-15.1431	26.0525
 374	1	2	0.68591	-3.58396	-14.4431	27.2777
 375	1	3	0.086668	-3.83954	-15.5166	25.4324
 376	1	3	0.071846	-2.38426	-15.9795	26.3616
 377	1	3	0.062371	-2.42769	-14.4393	25.4558
 378	1	4	-0.291145	-2.74632	-13.4461	27.7018
 379	1	1	-0.015993	-3.09112	-12.6521	28.8589
 380	1	5	-0.555985	-4.54951	-14.8587	27.9008
 381	1	2	0.652223	-5.54793	-12.1324	24.3337
 382	1	3	0.062504	-6.49235	-13.4214	22.8897
 383	1	5	-0.583019	-5.10152	-13.0287	25.0242
 384	1	1	-0.168764	-6.17939	-12.3741	22.9747
 385	1	3	0.062846	-7.05206	-11.725	22.8487
 386	1	4	-0.264747	-5.55522	-10.8022	24.6473
 387	1	3	0.073216	-5.45517	-12.1414	22.1869
 388	1	1	-0.015836	-5.80479	-10.7491	27.1417
 389	1	1	0.044531	-5.01625	-10.2661	25.8866
 390	1	1	0.341309	-3.48051	-10.5236	26.004
 391	1	1	0.132892	-3.0144	-10.4056	27.4805
 392	1	6	-0.74435	-2.78896	-9.55709	25.2051
 393	1	7	-0.00272	-3.23437	-11.531	25.6502
 394	1	1	-0.008403	-3.82125	-11.3551	28.4273
 395	1	4	-0.239698	-5.05164	-11.7759	27.8057
 396	1	7	0.089672	-2.17969	-12.3871	29.4014
 397	1	7	0.088396	-3.72145	-13.2211	29.5543
 398	1	7	0.05623	-4.06412	-10.792	29.337
 399	1	7	0.125955	-5.13715	-9.17724	25.8467
 400	1	8	0.456798	-1.8412	-9.70337	25.4013
 401	1	9	0.198085	-11.548	-10.6284	27.1141
 402	1	7	0.095469	-10.1023	-9.27292	28.6635
 403	1	1	-0.308877	-10.7487	-11.1178	27.6788
 404	1	8	0.426958	-9.67153	-11.6963	29.8078
 405	1	6	-0.128067	-11.3112	-11.7462	28.8462
 406	1	1	0.005701	-9.67637	-10.0518	28.027
 407	1	7	0.239394	-9.31151	-13.4603	28.1596
 408	1	5	-0.48496	-7.90857	-7.8483	27.6429
 409	1	1	-0.003409	-7.872	-11.8365	27.8943
 410	1	2	0.352525	-8.42835	-8.40498	26.691
 411	1	6	-0.665659	-8.84962	-11.1944	30.0084
 412	1	1	-0.510331	-8.97063	-12.8039	27.3461
 413	1	1	0.240953	-8.4517	-10.6819	28.7415
 414	1	4	0.015262	-10.1159	-12.0937	26.8258
 415	1	4	0.176506	-9.29534	-9.45921	26.7624
 416	1	3	0.090205	-7.36671	-7.2454	25.2153
 417	1	1	-0.197476	-8.16617	-7.99468	25.2498
 418	1	1	-0.039041	-8.40324	-13.7057	26.2268
 419	1	7	0.144117	-8.22048	-13.1218	25.3142
 420	1	3	0.104606	-9.07511	-7.56744	24.8138
 421	1	7	0.111943	-7.68102	-9.92127	28.9129
 422	1	7	0.160853	-7.43294	-14.1363	26.5257
 423	1	3	0.069306	-7.86833	-8.86862	24.6569
 424	1	4	-0.432857	-9.36839	-14.7478	25.9971
 425	1	3	0.042395	-11.2788	-16.2249	25.2331
 426	1	2	0.753764	-9.28406	-15.5012	24.8593
 427	1	1	-0.122098	-10.3299	-16.6038	24.841
 428	1	3	0.030493	-10.0	-17.4367	25.4729
 429	1	5	-0.562583	-8.49717	-15.2969	23.9489
 430	1	3	0.048272	-10.4802	-16.9635	23.8168
 431	1	4	-0.191545	-7.11201	-11.2686	26.7968
 432	1	9	0.130627	-5.9166	-9.9023	27.8303
 433	1	3	0.015236	-3.23779	-9.37512	27.7856
 434	1	7	0.210365	-7.19904	-12.4234	28.5382
 435	1	1	-0.218842	9.56714	-8.34471	26.9553
 436	1	2	0.68591	8.47705	-7.30805	27.1641
 437	1	3	0.086668	9.71851	-8.9091	27.8811
 438	1	3	0.071846	10.5045	-7.84624	26.6828
 439	1	3	0.062371	9.28475	-9.0394	26.1559
 440	1	4	-0.291145	7.23365	-7.83937	26.9697
 441	1	1	-0.015993	6.04532	-7.02998	27.1348
 442	1	5	-0.555985	8.71301	-6.12673	27.3445
 443	1	2	0.652223	3.6172	-3.79614	31.4439
 444	1	3	0.062504	3.14383	-1.69825	31.5685
 445	1	5	-0.583019	4.03741	-3.88059	32.586
 446	1	1	-0.168764	3.09319	-2.50906	30.8329
 447	1	3	0.062846	3.69929	-2.24532	29.9587
 448	1	4	-0.264747	3.53309	-4.83388	30.5629
 449	1	3	0.073216	2.05364	-2.64895	30.5159
 450	1	1	-0.015836	3.55919	-7.19179	29.935
 451	1	1	0.044531	4.05851	-6.12976	30.9383
 452	1	1	0.341309	5.60675	-6.07435	30.9667
 453	1	1	0.132892	6.23235	-6.00785	29.5448
 454	1	6	-0.74435	6.14488	-7.18454	31.6915
 455	1	7	-0.00272	5.8973	-5.17981	31.5195
 456	1	1	-0.008403	5.58497	-7.07169	28.6133
 457	1	4	-0.239698	4.14574	-6.94995	28.6378
 458	1	7	0.089672	5.24581	-7.4648	26.5205
 459	1	7	0.088396	6.20062	-5.99967	26.7894
 460	1	7	0.05623	5.8436	-8.05952	29.0169
 461	1	7	0.125955	3.70268	-6.39518	31.9411
 462	1	8	0.456798	7.07117	-6.88555	31.8914
 463	1	9	0.198085	-1.50555	-9.74352	29.4436
 464	1	7	0.095469	0.889115	-10.9391	27.9853
 465	1	1	-0.308877	-0.893568	-9.82431	28.5379
 466	1	8	0.426958	2.88351	-10.0613	28.2749
 467	1	6	-0.128067	-1.59091	-10.626	27.5726
 468	1	1	0.005701	0.473326	-10.4779	28.8912
 469	1	7	0.239394	0.0247399	-6.60113	28.2764
 470	1	5	-0.48496	1.96155	-12.8886	29.4528
 471	1	1	-0.003409	1.44793	-8.06272	28.969
 472	1	2	0.352525	0.956981	-12.5908	30.0765
 473	1	6	-0.665659	2.81869	-10.0309	29.2692
 474	1	1	-0.510331	-0.0112004	-7.5576	28.8176
 475	1	1	0.240953	1.51826	-9.51128	29.5241
 476	1	4	0.015262	-0.713514	-8.50561	27.9947
 477	1	4	0.176506	0.168011	-11.492	29.8717
 478	1	3	0.090205	-0.696637	-13.514	31.127
 479	1	1	-0.197476	0.397326	-13.4779	31.1783
 480	1	1	-0.039041	-0.748234	-7.29554	30.1596
 481	1	7	0.144117	-0.866835	-8.20796	30.762
 482	1	3	0.104606	0.692844	-13.0911	32.1599
 483	1	7	0.111943	1.33303	-9.4549	30.6049
 484	1	7	0.160853	-0.160861	-6.58839	30.7639
 485	1	3	0.069306	0.782466	-14.4968	31.0613
 486	1	4	-0.432857	-2.01069	-6.68226	29.8309
 487	1	3	0.042395	-4.16987	-6.25996	28.3585
 488	1	2	0.753764	-3.17635	-7.39542	29.894
 489	1	1	-0.122098	-4.35641	-6.57869	29.3906
 490	1	3	0.030493	-4.48861	-5.68871	30.0169
 491	1	5	-0.562583	-3.28606	-8.5255	30.3428
 492	1	3	0.048272	-5.27169	-7.18184	29.4205
 493	1	4	-0.191545	2.11605	-7.14846	29.8723
 494	1	9	0.130627	3.88045	-8.17755	30.2937
 495	1	3	0.015236	7.29517	-6.26617	29.6348
 496	1	7	0.210365	1.93467	-8.03865	27.9829
 497	1	1	-0.218842	9.94555	-2.29588	35.7187
 498	1	2	0.68591	10.5776	-1.19229	34.8893
 499	1	3	0.086668	10.2489	-3.27158	35.324
 500	1	3	0.071846	8.85442	-2.20957	35.6702
 501	1	3	0.062371	10.2649	-2.21086	36.7635
 502	1	4	-0.291145	10.3181	0.0362714	35.4312
 503	1	1	-0.015993	10.7451	1.24314	34.7635
 504	1	5	-0.555985	11.2954	-1.41063	33.9293
 505	1	2	0.652223	7.73065	3.15788	29.0745
 506	1	3	0.062504	7.78349	3.8731	27.0416
 507	1	5	-0.583019	7.16245	4.1348	29.5335
 508	1	1	-0.168764	7.9633	2.9414	27.5898
 509	1	3	0.062846	8.99506	2.61304	27.4181
 510	1	4	-0.264747	8.26563	2.15531	29.8259
 511	1	3	0.073216	7.28174	2.1666	27.2228
 512	1	1	-0.015836	8.61862	0.726183	31.7812
 513	1	1	0.044531	8.20175	2.14902	31.2792
 514	1	1	0.341309	9.08117	3.32179	31.829
 515	1	1	0.132892	9.75706	3.10369	33.2244
 516	1	6	-0.74435	8.30591	4.52736	31.8768
 517	1	7	-0.00272	9.88976	3.46345	31.0997
 518	1	1	-0.008403	9.67819	1.63514	33.7115
 519	1	4	-0.239698	9.81843	0.795796	32.5606
 520	1	7	0.089672	11.7296	1.113	34.2927
 521	1	7	0.088396	10.8234	2.04659	35.5074
 522	1	7	0.05623	8.69111	1.4779	34.1674
 523	1	7	0.125955	7.16787	2.32198	31.6039
 524	1	8	0.456798	7.82602	4.582	31.0001
 525	1	9	0.198085	8.05065	-4.24475	29.6879
 526	1	7	0.095469	6.40857	-2.32744	27.9346
 527	1	1	-0.308877	7.11675	-3.72655	29.4334
 528	1	8	0.426958	8.04128	-0.747097	26.9556
 529	1	6	-0.128067	6.14044	-4.68188	28.9854
 530	1	1	0.005701	7.3741	-2.68685	28.3139
 531	1	7	0.239394	6.9245	-1.64305	32.0513
 532	1	5	-0.48496	7.84269	-1.80598	25.6392
 533	1	1	-0.003409	7.80703	-0.963598	30.1884
 534	1	2	0.352525	8.249	-2.89123	26.0196
 535	1	6	-0.665659	8.0541	-0.382813	27.8811
 536	1	1	-0.510331	7.4868	-2.08972	31.2199
 537	1	1	0.240953	8.22559	-1.47588	28.7897
 538	1	4	0.015262	6.61862	-3.05474	30.6002
 539	1	4	0.176506	8.0881	-3.40122	27.2793
 540	1	3	0.090205	9.23352	-3.34892	24.1536
 541	1	1	-0.197476	9.0293	-3.83516	25.1152
 542	1	1	-0.039041	8.73218	-2.77164	31.8563
 543	1	7	0.144117	9.23532	-3.47628	31.1804
 544	1	3	0.104606	8.44623	-4.74659	24.9398
 545	1	7	0.111943	9.2802	-1.78208	28.8458
 546	1	7	0.160853	9.48392	-2.01569	32.1346
 547	1	3	0.069306	9.98012	-4.11105	25.5872
 548	1	4	-0.432857	8.26507	-3.40358	33.0625
 549	1	3	0.042395	8.08752	-4.85573	35.2727
 550	1	2	0.753764	8.0428	-4.7493	33.1193
 551	1	1	-0.122098	7.42323	-5.14516	34.4505
 552	1	3	0.030493	7.25524	-6.22822	34.4859
 553	1	5	-0.562583	8.31217	-5.55532	32.2381
 554	1	3	0.048272	6.46322	-4.6295	34.5732
 555	1	4	-0.191545	8.90411	-0.171151	30.689
 556	1	9	0.130627	7.82783	0.300971	32.4107
 557	1	3	0.015236	9.22693	3.70294	33.9772
 558	1	7	0.210365	6.92394	-0.328242	30.034
 559	1	1	-0.218842	17.5213	3.73649	38.0677
 560	1	2	0.68591	18.2756	4.91872	37.4856
 561	1	3	0.086668	16.7359	3.42584	37.3696
 562	1	3	0.071846	17.0563	4.02656	39.0162
 563	1	3	0.062371	18.208	2.89959	38.238
 564	1	4	-0.291145	17.4335	5.95281	37.2082
 565	1	1	-0.015993	17.9614	7.1517	36.6067
 566	1	5	-0.555985	19.4747	4.91728	37.2702
 567	1	2	0.652223	15.9874	9.92101	31.9226
 568	1	3	0.062504	16.886	10.227	29.9868
 569	1	5	-0.583019	15.5967	11.0686	32.0434
 570	1	1	-0.168764	16.7528	9.41672	30.7125
 571	1	3	0.062846	17.7347	9.04309	31.0246
 572	1	4	-0.264747	15.8072	8.94083	32.8522
 573	1	3	0.073216	16.1988	8.59621	30.2427
 574	1	1	-0.015836	14.7732	7.88562	34.7894
 575	1	1	0.044531	15.09	9.22819	34.08
 576	1	1	0.341309	15.9233	10.1409	35.0162
 577	1	1	0.132892	17.1827	9.34977	35.4941
 578	1	6	-0.74435	15.0431	10.5278	36.087
 579	1	7	-0.00272	16.2466	11.0389	34.4776
 580	1	1	-0.008403	16.7641	8.03214	36.1969
 581	1	4	-0.239698	16.0012	7.27096	35.2365
 582	1	7	0.089672	18.5598	6.90658	35.7192
 583	1	7	0.088396	18.6019	7.68434	37.3226
 584	1	7	0.05623	16.1516	8.25236	37.0811
 585	1	7	0.125955	14.1497	9.74134	33.8472
 586	1	8	0.456798	15.4771	11.2265	36.6187
 587	1	9	0.198085	10.479	5.39879	32.4956
 588	1	7	0.095469	10.6184	5.35615	35.0784
 589	1	1	-0.308877	11.3305	4.97231	33.0445
 590	1	8	0.426958	12.5819	3.5699	34.7201
 591	1	6	-0.128067	11.1263	3.55505	33.1787
 592	1	1	0.005701	11.4361	5.68788	34.4255
 593	1	7	0.239394	13.7951	3.78004	33.0077
 594	1	5	-0.48496	11.1558	7.71837	36.3832
 595	1	1	-0.003409	13.9697	5.62665	34.1747
 596	1	2	0.352525	11.1567	7.99658	35.197
 597	1	6	-0.665659	12.7966	4.04471	35.5499
 598	1	1	-0.510331	13.7723	4.86409	32.8328
 599	1	1	0.240953	12.7862	5.40814	35.1403
 600	1	4	0.015262	12.5087	5.23724	32.254
 601	1	4	0.176506	11.2742	7.10033	34.1704
 602	1	3	0.090205	11.766	9.61263	33.8935
 603	1	1	-0.197476	11.0366	9.42701	34.6903
 604	1	1	-0.039041	14.8907	5.20178	31.8256
 605	1	7	0.144117	14.7769	4.63352	30.8909
 606	1	3	0.104606	11.2253	10.1259	35.5146
 607	1	7	0.111943	12.9083	6.04999	36.023
 608	1	7	0.160853	14.8623	6.27524	31.5788
 609	1	3	0.069306	10.0285	9.59914	34.2954
 610	1	4	-0.432857	16.1239	4.86206	32.4872
 611	1	3	0.042395	18.2128	5.11698	34.009
 612	1	2	0.753764	17.2903	5.44862	32.0898
 613	1	1	-0.122098	18.4575	4.98499	32.9485
 614	1	3	0.030493	19.3582	5.56361	32.7118
 615	1	5	-0.562583	17.3927	6.25425	31.1791
 616	1	3	0.048272	18.6504	3.92233	32.7628
 617	1	4	-0.191545	14.0931	7.0314	33.8519
 618	1	9	0.130627	14.1292	8.07224	35.6601
 619	1	3	0.015236	17.7227	9.0507	34.5863
 620	1	7	0.210365	14.8857	5.26079	34.6612
 621	1	1	-0.218842	18.1099	19.0098	43.9894
 622	1	2	0.68591	17.8885	17.5113	44.0877
 623	1	3	0.086668	19.1848	19.2166	43.9424
 624	1	3	0.071846	17.6823	19.5082	44.8667
 625	1	3	0.062371	17.633	19.3961	43.0817
 626	1	4	-0.291145	18.4551	16.8549	43.0352
 627	1	1	-0.015993	18.3611	15.4171	42.9731
 628	1	5	-0.555985	17.3222	16.9706	45.0216
 629	1	2	0.652223	23.0495	14.1471	38.262