pySIMM System Object

2172 atoms
2241 bonds
4130 angles
5737 dihedrals
140 impropers

9 atom types
10 bond types
23 angle types
20 dihedral types
1 improper types

-190.862474 190.862474 xlo xhi
-190.862474 190.862474 ylo yhi
-190.862474 190.862474 zlo zhi

Masses

   1	12.01	# c3
   2	12.01	# c
   3	1.008	# hc
   4	16.0	# os
   5	16.0	# o
   6	16.0	# oh
   7	1.008	# h1
   8	1.008	# ho
   9	1.008	# h2

Pair Coeffs

   1	0.1094	3.3996695084235347	# c3
   2	0.086	3.3996695084235347	# c
   3	0.0157	2.649532787749369	# hc
   4	0.17	3.0000123434657784	# os
   5	0.21	2.959921901149463	# o
   6	0.2104	3.0664733878390478	# oh
   7	0.0157	2.471353044121301	# h1
   8	0.0047	0.5379246460131368	# ho
   9	0.0157	2.2931733004932333	# h2

Bond Coeffs

   1	331.7	1.0961	# c3,h2
   2	637.7	1.2183	# c,o
   3	300.9	1.5375	# c3,c3
   4	330.6	1.0969	# c3,hc
   5	316.7	1.4233	# c3,oh
   6	330.6	1.0969	# c3,h1
   7	371.4	0.973	# ho,oh
   8	308.6	1.4316	# c3,os
   9	313.0	1.5241	# c,c3
  10	390.8	1.3584	# c,os

Angle Coeffs

   1	46.93	108.77	# c,c3,hc
   2	67.4	123.2	# c3,c,o
   3	68.0	107.97	# c3,c3,os
   4	46.39	109.56	# c3,c3,h1
   5	46.25	110.22	# c3,c3,h2
   6	62.86	111.51	# c3,c3,c3
   7	68.89	110.72	# c3,c,os
   8	72.58	109.38	# oh,c3,os
   9	75.32	123.25	# o,c,os
  10	67.47	110.19	# c3,c3,oh
  11	46.34	109.8	# c3,c3,hc
  12	47.38	107.26	# c3,oh,ho
  13	39.24	108.46	# h1,c3,h1
  14	50.85	109.58	# h2,c3,os
  15	72.74	108.29	# os,c3,os
  16	50.8	109.78	# h1,c3,os
  17	63.28	115.98	# c,os,c3
  18	62.7	112.48	# c3,os,c3
  19	50.93	110.26	# h1,c3,oh
  20	39.4	107.58	# hc,c3,hc
  21	51.13	109.43	# h2,c3,oh
  22	51.11	109.5	# hc,c3,oh
  23	62.7	112.48	# c3,oh,c3

Dihedral Coeffs

   1	3	0.18	3	0	0.25	2	180	0.2	1	180	# c3,c3,c3,c3
   2	1	0.3833333333333333	3	0	# X,c3,os,X
   3	2	0.144	3	0	1.175	2	0	# os,c3,c3,oh
   4	3	0.1	3	0	0.85	2	180	1.35	1	180	# c3,os,c3,os
   5	2	0.144	3	0	1.175	2	0	# os,c3,c3,os
   6	3	2.7	2	180	0.0	1	0	1.15	3	0	# c3,c,os,c3
   7	2	0.0	3	0	0.25	1	0	# hc,c3,c3,oh
   8	1	0.16	3	0	# hc,c3,c3,c3
   9	1	0.15555555555555556	3	0	# X,c3,c3,X
  10	2	0.16	3	0	0.25	1	0	# ho,oh,c3,c3
  11	2	0.383	3	0	0.8	1	180	# c3,c3,os,c
  12	1	0.0	2	180	# X,c,c3,X
  13	2	2.7	2	180	1.4	1	180	# o,c,os,c3
  14	2	0.0	3	0	0.25	1	0	# hc,c3,c3,os
  15	2	0.0	3	0	0.25	1	0	# h1,c3,c3,oh
  16	1	0.16666666666666666	3	0	# X,c3,oh,X
  17	3	0.8	1	0	0.0	2	0	0.08	3	180	# hc,c3,c,o
  18	2	0.0	3	0	0.25	1	0	# h1,c3,c3,os
  19	2	0.383	3	0	0.1	2	180	# c3,c3,os,c3
  20	2	0.144	3	0	1.175	2	0	# oh,c3,c3,oh

Improper Coeffs

   1	10.5	-1	2	# c,X,X,o

Atoms

   1	1	1	-0.218842	3.51977	18.4182	-19.2508
   2	1	2	0.68591	4.59194	17.8256	-18.3543
   3	1	3	0.086668	3.92404	19.283	-19.7872
   4	1	3	0.071846	2.65995	18.7305	-18.6471
   5	1	3	0.062371	3.19499	17.6655	-19.9788
   6	1	4	-0.291145	5.71177	17.5057	-19.0659
   7	1	1	-0.015993	6.82479	16.8814	-18.3931
   8	1	5	-0.555985	4.4513	17.6696	-17.1532
   9	1	2	0.652223	10.1061	12.3309	-22.1011
  10	1	3	0.062504	9.38605	10.7094	-23.3156
  11	1	5	-0.583019	11.0604	13.0861	-22.1832
  12	1	1	-0.168764	10.1346	10.8768	-22.5337
  13	1	3	0.062846	11.1262	10.6171	-22.9167
  14	1	4	-0.264747	8.8899	12.6678	-21.5911
  15	1	3	0.073216	9.8963	10.2359	-21.6776
  16	1	1	-0.015836	7.1195	13.9666	-20.6784
  17	1	1	0.044531	8.60684	13.9869	-21.0606
  18	1	1	0.341309	9.50847	14.3315	-19.8435
  19	1	1	0.132892	8.82106	15.2729	-18.7994
  20	1	6	-0.74435	10.733	14.9182	-20.2918
  21	1	7	-0.00272	9.75693	13.3804	-19.3569
  22	1	1	-0.008403	7.65392	16.0889	-19.436
  23	1	4	-0.239698	6.72727	15.2575	-20.1876
  24	1	7	0.089672	6.45946	16.1973	-17.6173
  25	1	7	0.088396	7.44801	17.6383	-17.9
  26	1	7	0.05623	8.10372	16.808	-20.1335
  27	1	7	0.125955	8.74877	14.7479	-21.8317
  28	1	8	0.456798	11.0797	14.31	-21.0055
  29	1	9	0.198085	3.30169	10.4339	-18.9701
  30	1	7	0.095469	4.99448	9.02505	-19.7809
  31	1	1	-0.308877	4.10622	10.2645	-18.2526
  32	1	8	0.426958	7.30685	9.3171	-20.4682
  33	1	6	-0.128067	3.57579	9.37867	-17.2819
  34	1	1	0.005701	5.34592	9.64485	-18.9494
  35	1	7	0.239394	3.72575	12.7167	-19.2595
  36	1	5	-0.48496	7.53175	7.87506	-19.4631
  37	1	1	-0.003409	5.78701	12.1102	-19.7321
  38	1	2	0.352525	7.10322	8.03799	-18.3274
  39	1	6	-0.665659	6.93895	10.2076	-20.7018
  40	1	1	-0.510331	4.66621	12.5379	-18.7072
  41	1	1	0.240953	6.36133	10.6906	-19.4931
  42	1	4	0.015262	4.4775	11.5213	-17.6919
  43	1	4	0.176506	6.05756	8.85127	-17.9679
  44	1	3	0.090205	8.33999	8.06079	-16.5466
  45	1	1	-0.197476	7.72984	7.34549	-17.1193
  46	1	1	-0.039041	4.97385	13.8498	-17.9428
  47	1	7	0.144117	5.90536	13.7375	-17.365
  48	1	3	0.104606	8.37309	6.52835	-17.4737
  49	1	7	0.111943	7.13861	10.8252	-18.7338
  50	1	7	0.160853	5.10445	14.7031	-18.6201
  51	1	3	0.069306	6.96125	6.93189	-16.4504
  52	1	4	-0.432857	3.88138	14.1465	-17.052
  53	1	3	0.042395	1.50336	13.9637	-15.9325
  54	1	2	0.753764	2.73911	14.7229	-17.5254
  55	1	1	-0.122098	1.7227	14.9274	-16.4101
  56	1	3	0.030493	0.796713	15.355	-16.8162
  57	1	5	-0.562583	2.55407	15.0664	-18.6817
  58	1	3	0.048272	2.14485	15.6084	-15.6603
  59	1	4	-0.191545	6.93723	13.003	-19.6248
  60	1	9	0.130627	6.51045	13.7001	-21.5501
  61	1	3	0.015236	9.56504	15.9993	-18.4471
  62	1	7	0.210365	5.37666	12.1216	-20.765
  63	1	1	-0.218842	14.0812	16.3539	-9.47793
  64	1	2	0.68591	14.7717	15.0743	-9.91371
  65	1	3	0.086668	13.2755	16.5886	-10.1822
  66	1	3	0.071846	14.8002	17.1805	-9.45949
  67	1	3	0.062371	13.6503	16.2218	-8.47901
  68	1	4	-0.291145	13.9052	14.0184	-9.89969
  69	1	1	-0.015993	14.3508	12.7233	-10.3512
  70	1	5	-0.555985	15.9615	15.007	-10.1799
  71	1	2	0.652223	12.7918	8.99074	-14.1534
  72	1	3	0.062504	13.6192	7.22733	-13.2326
  73	1	5	-0.583019	12.1349	9.13946	-15.1706
  74	1	1	-0.168764	12.6696	7.77339	-13.2536
  75	1	3	0.062846	12.4206	8.09442	-12.2355
  76	1	4	-0.264747	13.7773	9.82833	-13.7211
  77	1	3	0.073216	11.8782	7.11313	-13.6263
  78	1	1	-0.015836	12.9689	12.1527	-13.7765
  79	1	1	0.044531	13.9803	11.1231	-14.3417
  80	1	1	0.341309	15.4092	11.5985	-14.0043
  81	1	1	0.132892	15.554	11.8515	-12.4648
  82	1	6	-0.74435	15.672	12.7645	-14.7921
  83	1	7	-0.00272	16.1104	10.8092	-14.3029
  84	1	1	-0.008403	14.3889	12.7109	-11.9006
  85	1	4	-0.239698	13.1197	12.1902	-12.3486
  86	1	7	0.089672	13.657	11.9481	-10.0004
  87	1	7	0.088396	15.3401	12.5002	-9.93003
  88	1	7	0.05623	14.5107	13.7354	-12.2771
  89	1	7	0.125955	13.8842	11.0542	-15.4325
  90	1	8	0.456798	16.657	12.8294	-14.8365
  91	1	9	0.198085	10.3084	13.8226	-17.3946
  92	1	7	0.095469	8.62857	11.9155	-17.505
  93	1	1	-0.308877	9.35078	13.8576	-16.8589
  94	1	8	0.426958	11.0341	10.03	-16.0636
  95	1	6	-0.128067	8.37088	14.5593	-17.6336
  96	1	1	0.005701	8.84292	12.4267	-16.5595
  97	1	7	0.239394	11.4739	14.5752	-14.8399
  98	1	5	-0.48496	7.09098	10.3201	-15.8146
  99	1	1	-0.003409	11.0372	12.477	-15.2184
 100	1	2	0.352525	6.84037	11.4738	-15.5086
 101	1	6	-0.665659	10.4228	10.5964	-16.6187
 102	1	1	-0.510331	10.5972	13.9172	-14.76
 103	1	1	0.240953	9.88117	11.5991	-15.7557
 104	1	4	0.015262	9.55914	14.4895	-15.5897
 105	1	4	0.176506	7.61909	12.5577	-15.8017
 106	1	3	0.090205	5.22443	10.9785	-14.1676
 107	1	1	-0.197476	5.62078	11.8621	-14.6818
 108	1	1	-0.039041	10.0874	13.9954	-13.2975
 109	1	7	0.144117	10.9301	13.8366	-12.6054
 110	1	3	0.104606	4.84007	12.2739	-15.3297
 111	1	7	0.111943	9.38758	11.125	-14.897
 112	1	7	0.160853	9.66621	14.9884	-13.0777
 113	1	3	0.069306	5.88811	12.6268	-13.9438
 114	1	4	-0.432857	9.09496	12.9692	-13.0941
 115	1	3	0.042395	6.71579	11.8762	-11.8403
 116	1	2	0.753764	8.71238	12.6839	-11.814
 117	1	1	-0.122098	7.74498	11.5101	-11.7648
 118	1	3	0.030493	7.86408	10.9668	-10.82
 119	1	5	-0.562583	9.11218	13.27	-10.8226
 120	1	3	0.048272	7.94241	10.8221	-12.5955
 121	1	4	-0.191545	11.6236	11.7763	-14.1016
 122	1	9	0.130627	13.1853	13.1513	-14.1796
 123	1	3	0.015236	15.5278	10.8752	-11.963
 124	1	7	0.210365	11.764	12.5579	-16.0392
 125	1	1	-0.218842	19.722	7.1173	-16.4938
 126	1	2	0.68591	21.2068	7.39743	-16.6419
 127	1	3	0.086668	19.2674	7.9004	-15.8774
 128	1	3	0.071846	19.5704	6.14295	-16.0162
 129	1	3	0.062371	19.2428	7.11985	-17.4796
 130	1	4	-0.291145	21.4171	8.55027	-17.34
 131	1	1	-0.015993	22.7525	9.06823	-17.5283
 132	1	5	-0.555985	22.0715	6.64718	-16.224
 133	1	2	0.652223	23.1088	14.4051	-17.6661
 134	1	3	0.062504	22.419	15.7363	-19.2152
 135	1	5	-0.583019	24.2898	14.696	-17.78
 136	1	1	-0.168764	21.9962	15.0419	-18.48
 137	1	3	0.062846	21.4272	14.2643	-19.0033
 138	1	4	-0.264747	22.6276	13.4486	-16.82
 139	1	3	0.073216	21.3162	15.5853	-17.8151
 140	1	1	-0.015836	22.7131	11.7874	-15.0296
 141	1	1	0.044531	23.5354	12.6963	-15.9727
 142	1	1	0.341309	24.4898	11.864	-16.8705
 143	1	1	0.132892	24.6592	10.4107	-16.362
 144	1	6	-0.74435	25.7468	12.5433	-16.9648
 145	1	7	-0.00272	24.0523	11.8028	-17.8757
 146	1	1	-0.008403	23.273	9.69981	-16.2105
 147	1	4	-0.239698	22.2568	10.6514	-15.7922
 148	1	7	0.089672	22.7413	9.83053	-18.3172
 149	1	7	0.088396	23.4245	8.26252	-17.846
 150	1	7	0.05623	23.3763	8.9136	-15.4517
 151	1	7	0.125955	24.1294	13.3817	-15.3543
 152	1	8	0.456798	25.5142	13.4312	-17.3579
 153	1	9	0.198085	17.9584	10.8918	-12.6912
 154	1	7	0.095469	19.2766	11.5423	-10.8583
 155	1	1	-0.308877	18.0271	11.981	-12.5727
 156	1	8	0.426958	21.5836	12.3842	-10.6807
 157	1	6	-0.128067	16.7846	12.4988	-12.0913
 158	1	1	0.005701	19.2023	12.3312	-11.6179
 159	1	7	0.239394	18.9227	10.7969	-14.6971
 160	1	5	-0.48496	20.69	13.5033	-9.51558
 161	1	1	-0.003409	20.6264	11.8004	-13.7612
 162	1	2	0.352525	19.6927	14.0603	-9.94769
 163	1	6	-0.665659	21.6067	11.9025	-11.5476
 164	1	1	-0.510331	19.2781	11.8272	-14.5614
 165	1	1	0.240953	20.5709	12.4622	-12.3568
 166	1	4	0.015262	18.3145	12.5827	-13.8315
 167	1	4	0.176506	18.9084	13.596	-10.9702
 168	1	3	0.090205	19.9476	15.8308	-8.73842
 169	1	1	-0.197476	19.1995	15.3979	-9.41326
 170	1	1	-0.039041	19.3606	12.4629	-15.9656
 171	1	7	0.144117	19.6059	13.5347	-15.8965
 172	1	3	0.104606	18.2626	15.2535	-8.86266
 173	1	7	0.111943	20.7614	13.5336	-12.5173
 174	1	7	0.160853	20.1444	11.9799	-16.5724
 175	1	3	0.069306	19.0159	16.0942	-10.2405
 176	1	4	-0.432857	18.0671	12.264	-16.564
 177	1	3	0.042395	16.2367	11.3921	-18.2278
 178	1	2	0.753764	17.8353	12.7775	-17.8112
 179	1	1	-0.122098	16.4196	12.4715	-18.2796
 180	1	3	0.030493	16.2792	12.812	-19.3125
 181	1	5	-0.562583	18.6595	13.3871	-18.4697
 182	1	3	0.048272	15.6984	12.9818	-17.6311
 183	1	4	-0.191545	21.6168	12.5452	-14.4937
 184	1	9	0.130627	23.3366	11.4372	-14.1952
 185	1	3	0.015236	25.1146	10.4579	-15.3668
 186	1	7	0.210365	20.9586	10.7618	-13.6158
 187	1	1	-0.218842	30.0321	13.3231	-20.3277
 188	1	2	0.68591	31.3376	12.6006	-20.0511
 189	1	3	0.086668	30.225	14.3908	-20.4715
 190	1	3	0.071846	29.3541	13.1992	-19.4753
 191	1	3	0.062371	29.5555	12.9111	-21.2242
 192	1	4	-0.291145	31.8429	12.9379	-18.8257
 193	1	1	-0.015993	33.0365	12.3033	-18.3097
 194	1	5	-0.555985	31.8757	11.851	-20.8521
 195	1	2	0.652223	32.8213	8.2538	-13.4953
 196	1	3	0.062504	31.2008	8.30914	-12.0802
 197	1	5	-0.583019	33.8066	7.55897	-13.6791
 198	1	1	-0.168764	32.2668	8.56182	-12.1168
 199	1	3	0.062846	32.8019	7.97993	-11.3578
 200	1	4	-0.264747	32.1336	8.90689	-14.4754
 201	1	3	0.073216	32.3851	9.62936	-11.9028
 202	1	1	-0.015836	31.3392	9.39731	-16.7171
 203	1	1	0.044531	32.4562	8.72203	-15.8812
 204	1	1	0.341309	33.8549	9.3362	-16.1919
 205	1	1	0.132892	33.9904	9.97412	-17.6129
 206	1	6	-0.74435	34.9067	8.40276	-15.9301
 207	1	7	-0.00272	33.979	10.1694	-15.4879
 208	1	1	-0.008403	32.738	10.8116	-18.036
 209	1	4	-0.239698	31.7265	10.7466	-17.0146
 210	1	7	0.089672	33.3459	12.7915	-17.3762
 211	1	7	0.088396	33.8554	12.3949	-19.0355
 212	1	7	0.05623	32.3201	10.3946	-18.9536
 213	1	7	0.125955	32.475	7.65662	-16.1315
 214	1	8	0.456798	34.6815	7.98788	-15.0499
 215	1	9	0.198085	26.0249	7.81663	-16.8438
 216	1	7	0.095469	27.2487	8.6757	-18.922
 217	1	1	-0.308877	26.5101	8.80306	-16.8693
 218	1	8	0.426958	27.1093	11.3695	-17.7291
 219	1	6	-0.128067	25.522	9.75066	-17.3008
 220	1	1	0.005701	27.661	8.77724	-17.91
 221	1	7	0.239394	27.2483	11.1337	-15.523
 222	1	5	-0.48496	29.9144	7.78116	-19.3348
 223	1	1	-0.003409	29.0452	10.3126	-16.4074
 224	1	2	0.352525	29.4981	7.21013	-18.3387
 225	1	6	-0.665659	27.8688	11.1949	-18.3463
 226	1	1	-0.510331	27.8773	10.2454	-15.3803
 227	1	1	0.240953	28.5602	10.0478	-17.8504
 228	1	4	0.015262	27.0841	9.05336	-15.5632
 229	1	4	0.176506	28.4304	7.60378	-17.5868
 230	1	3	0.090205	29.7721	5.7786	-16.7343
 231	1	1	-0.197476	30.1971	6.01595	-17.7159
 232	1	1	-0.039041	28.3764	10.25	-13.923
 233	1	7	0.144117	27.5345	10.2583	-13.2149
 234	1	3	0.104606	31.2517	6.25649	-17.5818
 235	1	7	0.111943	29.4374	9.91704	-18.4918
 236	1	7	0.160853	28.9767	9.34753	-13.725
 237	1	3	0.069306	30.1105	5.13999	-18.3651
 238	1	4	-0.432857	29.1787	11.4343	-13.7776
 239	1	3	0.042395	31.3965	12.9411	-11.8257
 240	1	2	0.753764	29.918	11.598	-12.6448
 241	1	1	-0.122098	30.7569	12.8643	-12.7128
 242	1	3	0.030493	30.1024	13.7423	-12.7658
 243	1	5	-0.562583	29.9512	10.8101	-11.7147
 244	1	3	0.048272	31.386	12.8381	-13.6104
 245	1	4	-0.191545	30.0653	9.35151	-16.0283
 246	1	9	0.130627	31.2493	8.86022	-17.6648
 247	1	3	0.015236	34.8269	10.6787	-17.5217
 248	1	7	0.210365	29.4746	11.3243	-16.3721
 249	1	1	-0.218842	30.5519	-0.791077	-22.6592
 250	1	2	0.68591	29.5405	0.232184	-22.1751
 251	1	3	0.086668	30.2079	-1.23187	-23.6016
 252	1	3	0.071846	30.6649	-1.58127	-21.9085
 253	1	3	0.062371	31.5224	-0.306835	-22.8165
 254	1	4	-0.291145	29.9156	0.774552	-20.9792
 255	1	1	-0.015993	29.092	1.78561	-20.3612
 256	1	5	-0.555985	28.5123	0.493185	-22.7751
 257	1	2	0.652223	29.4516	8.10708	-22.683
 258	1	3	0.062504	31.1204	9.43731	-22.9562
 259	1	5	-0.583019	28.3958	7.99091	-23.2802
 260	1	1	-0.168764	30.1478	9.43708	-22.4543
 261	1	3	0.062846	29.5348	10.2557	-22.8489
 262	1	4	-0.264747	30.1742	7.07554	-22.1631
 263	1	3	0.073216	30.3011	9.59098	-21.3799
 264	1	1	-0.015836	30.9214	4.85581	-21.5482
 265	1	1	0.044531	29.7327	5.68931	-22.1407
 266	1	1	0.341309	28.3879	5.54852	-21.3645
 267	1	1	0.132892	28.1083	4.13055	-20.7791
 268	1	6	-0.74435	27.2762	5.9113	-22.1937
 269	1	7	-0.00272	28.4352	6.26219	-20.5422
 270	1	1	-0.008403	29.2219	3.11822	-21.1407
 271	1	4	-0.239698	30.486	3.70356	-20.7993
 272	1	7	0.089672	29.4102	1.94052	-19.3218
 273	1	7	0.088396	28.0432	1.45872	-20.3476
 274	1	7	0.05623	29.179	2.92138	-22.2191
 275	1	7	0.125955	29.5575	5.34136	-23.1666
 276	1	8	0.456798	27.5486	6.75306	-22.6668
 277	1	9	0.198085	32.5029	8.53274	-19.3986
 278	1	7	0.095469	35.1809	7.86967	-20.7259
 279	1	1	-0.308877	33.5287	8.15376	-19.347
 280	1	8	0.426958	34.7867	7.25527	-23.0516
 281	1	6	-0.128067	34.4159	9.03525	-18.6309
 282	1	1	0.005701	34.0974	8.03746	-20.7934
 283	1	7	0.239394	34.9027	5.70339	-19.5446
 284	1	5	-0.48496	35.178	8.9334	-23.2606
 285	1	1	-0.003409	33.1041	5.66364	-20.7665
 286	1	2	0.352525	34.4202	9.64533	-22.6219
 287	1	6	-0.665659	34.3513	6.4494	-22.6632
 288	1	1	-0.510331	33.8145	5.68917	-19.3852
 289	1	1	0.240953	33.4649	6.89145	-21.6315
 290	1	4	0.015262	33.4531	6.88255	-18.6643
 291	1	4	0.176506	33.8323	9.31063	-21.4305
 292	1	3	0.090205	34.5703	11.3012	-23.9985
 293	1	1	-0.197476	34.0131	11.0348	-23.0925
 294	1	1	-0.039041	33.4811	4.43694	-18.5446
 295	1	7	0.144117	32.4316	4.43294	-18.22
 296	1	3	0.104606	34.2272	11.7733	-22.311
 297	1	7	0.111943	32.5465	7.273	-22.0877
 298	1	7	0.160853	33.6314	3.53454	-19.1542
 299	1	3	0.069306	32.9397	11.061	-23.3126
 300	1	4	-0.432857	34.3978	4.40998	-17.4353
 301	1	3	0.042395	34.8343	5.05926	-14.223
 302	1	2	0.753764	34.0511	4.96451	-16.2329
 303	1	1	-0.122098	35.1969	4.86049	-15.2381
 304	1	3	0.030493	35.9751	5.58892	-15.4939
 305	1	5	-0.562583	32.9189	5.29981	-15.9223
 306	1	3	0.048272	35.6294	3.85412	-15.2731
 307	1	4	-0.191545	31.6715	5.62587	-20.5818
 308	1	9	0.130627	31.573	4.53878	-22.3726
 309	1	3	0.015236	27.1902	3.73409	-21.233
 310	1	7	0.210365	33.4324	4.76303	-21.3048
 311	1	1	-0.218842	22.1016	-1.93413	-16.7306
 312	1	2	0.68591	21.2212	-0.784871	-17.1833
 313	1	3	0.086668	21.9717	-2.78486	-17.4088
 314	1	3	0.071846	21.8191	-2.23126	-15.7141
 315	1	3	0.062371	23.1528	-1.62429	-16.7345
 316	1	4	-0.291145	21.5349	0.372642	-16.5343
 317	1	1	-0.015993	20.7935	1.56942	-16.8514
 318	1	5	-0.555985	20.3226	-0.900184	-17.9979
 319	1	2	0.652223	25.1394	1.18193	-13.303
 320	1	3	0.062504	26.2952	-0.632505	-13.377
 321	1	5	-0.583019	24.7311	1.07432	-12.1582
 322	1	1	-0.168764	26.2784	0.349198	-13.8639
 323	1	3	0.062846	26.1578	0.209882	-14.945
 324	1	4	-0.264747	24.5991	2.01877	-14.2405
 325	1	3	0.073216	27.2288	0.858635	-13.6755
 326	1	1	-0.015836	23.1471	3.80684	-15.0844
 327	1	1	0.044531	23.4477	2.84321	-13.909
 328	1	1	0.341309	22.256	1.88728	-13.601
 329	1	1	0.132892	20.9069	2.25049	-14.2858
 330	1	6	-0.74435	22.1064	1.7746	-12.1834
 331	1	7	-0.00272	22.5304	0.896433	-13.9891
 332	1	1	-0.008403	21.096	2.65976	-15.792
 333	1	4	-0.239698	22.4558	3.03992	-16.0777
 334	1	7	0.089672	19.7192	1.35728	-16.8803
 335	1	7	0.088396	21.078	1.93098	-17.849
 336	1	7	0.05623	20.4437	3.52022	-15.9878
 337	1	7	0.125955	23.6619	3.44799	-13.0172
 338	1	8	0.456798	22.9815	1.42345	-11.8615
 339	1	9	0.198085	26.9737	6.03374	-19.2225
 340	1	7	0.095469	25.4957	3.44035	-19.4765
 341	1	1	-0.308877	26.8486	5.0167	-18.8374
 342	1	8	0.426958	22.6887	3.9358	-17.6017
 343	1	6	-0.128067	27.8957	4.17468	-19.3526
 344	1	1	0.005701	25.4246	4.50171	-19.2106
 345	1	7	0.239394	27.0003	3.07525	-17.1484
 346	1	5	-0.48496	25.0061	7.34558	-19.4646
 347	1	1	-0.003409	24.9918	3.84151	-16.7901
 348	1	2	0.352525	24.7136	6.57539	-20.3643
 349	1	6	-0.665659	23.186	4.06005	-18.4442
 350	1	1	-0.510331	26.5501	3.96419	-16.6835
 351	1	1	0.240953	24.4332	4.60676	-18.0288
 352	1	4	0.015262	26.9756	5.12478	-17.4082
 353	1	4	0.176506	24.897	5.21624	-20.3556
 354	1	3	0.090205	24.701	6.7254	-22.5181
 355	1	1	-0.197476	24.09	7.0518	-21.6681
 356	1	1	-0.039041	27.1008	4.09717	-15.2443
 357	1	7	0.144117	26.8093	5.07106	-14.8232
 358	1	3	0.104606	24.0314	8.14665	-21.6707
 359	1	7	0.111943	24.3183	5.66219	-17.7418
 360	1	7	0.160853	26.6904	3.31649	-14.5926
 361	1	3	0.069306	23.0816	6.63551	-21.7747
 362	1	4	-0.432857	28.5379	3.99136	-15.2942
 363	1	3	0.042395	31.0126	3.29748	-16.5266
 364	1	2	0.753764	29.156	2.79959	-15.5593
 365	1	1	-0.122098	30.67	2.9433	-15.5486
 366	1	3	0.030493	31.1417	1.97888	-15.3271
 367	1	5	-0.562583	28.5814	1.73386	-15.7165
 368	1	3	0.048272	30.9724	3.67043	-14.7855
 369	1	4	-0.191545	24.3844	4.38183	-15.587
 370	1	9	0.130627	22.503	4.62572	-14.7357
 371	1	3	0.015236	20.4513	3.09059	-13.7449
 372	1	7	0.210365	24.7449	2.77483	-16.8901
 373	1	1	-0.218842	16.1438	-2.91524	-7.05409
 374	1	2	0.68591	16.9332	-3.28405	-8.30048
 375	1	3	0.086668	16.1761	-3.74203	-6.34012
 376	1	3	0.071846	15.1009	-2.7157	-7.32161
 377	1	3	0.062371	16.5698	-2.02439	-6.58224
 378	1	4	-0.291145	16.4224	-4.41788	-8.87589
 379	1	1	-0.015993	17.0717	-5.01211	-10.0236
 380	1	5	-0.555985	18.006	-2.77372	-8.58347
 381	1	2	0.652223	14.2116	-0.777117	-10.2749
 382	1	3	0.062504	13.8292	0.902034	-8.98088
 383	1	5	-0.583019	15.0402	-1.27578	-9.53811
 384	1	1	-0.168764	13.4635	0.499136	-9.93263
 385	1	3	0.062846	13.617	1.24498	-10.7204
 386	1	4	-0.264747	13.814	-1.26481	-11.4874
 387	1	3	0.073216	12.3927	0.285189	-9.84779
 388	1	1	-0.015836	15.8513	-2.41471	-12.4013
 389	1	1	0.044531	14.33	-2.49409	-12.0682
 390	1	1	0.341309	13.9694	-3.72954	-11.1851
 391	1	1	0.132892	14.9047	-4.92028	-11.5195
 392	1	6	-0.74435	12.6104	-4.09276	-11.4481
 393	1	7	-0.00272	14.0856	-3.49164	-10.1218
 394	1	1	-0.008403	16.4104	-4.54497	-11.3438
 395	1	4	-0.239698	16.5883	-3.11698	-11.3886
 396	1	7	0.089672	17.0063	-6.10134	-9.94837
 397	1	7	0.088396	18.1387	-4.76016	-10.0446
 398	1	7	0.05623	16.966	-4.99763	-12.175
 399	1	7	0.125955	13.8118	-2.64397	-13.022
 400	1	8	0.456798	12.4845	-4.95289	-10.999
 401	1	9	0.198085	18.4871	1.74058	-15.2671
 402	1	7	0.095469	18.9115	-0.749808	-15.6332
 403	1	1	-0.308877	18.6932	1.06436	-14.4315
 404	1	8	0.426958	20.1598	-0.6439	-13.09
 405	1	6	-0.128067	20.0921	1.08012	-14.1209
 406	1	1	0.005701	18.2939	-0.391631	-14.8007
 407	1	7	0.239394	19.0136	0.844333	-11.6957
 408	1	5	-0.48496	16.8435	-2.50529	-16.0002
 409	1	1	-0.003409	17.7345	-0.812276	-12.3483
 410	1	2	0.352525	16.3098	-1.43213	-15.7863
 411	1	6	-0.665659	19.8393	-1.55146	-13.2899
 412	1	1	-0.510331	17.9985	0.708836	-12.1022
 413	1	1	0.240953	18.459	-1.36709	-13.5988
 414	1	4	0.015262	17.8825	1.4783	-13.3145
 415	1	4	0.176506	16.9159	-0.342215	-15.228
 416	1	3	0.090205	14.4098	-2.03968	-16.6047
 417	1	1	-0.197476	14.8457	-1.16527	-16.1061
 418	1	1	-0.039041	16.9985	1.28534	-11.0809
 419	1	7	0.144117	16.0003	1.37223	-11.5345
 420	1	3	0.104606	14.7578	-0.296902	-16.7694
 421	1	7	0.111943	18.0486	-2.35065	-13.8571
 422	1	7	0.160853	16.9119	0.617466	-10.2073
 423	1	3	0.069306	14.2916	-0.964957	-15.181
 424	1	4	-0.432857	17.489	2.5763	-10.6813
 425	1	3	0.042395	16.7576	5.2493	-8.84796
 426	1	2	0.753764	16.7205	3.33748	-9.84782
 427	1	1	-0.122098	17.3966	4.65801	-9.51427
 428	1	3	0.030493	17.5842	5.22371	-10.4344
 429	1	5	-0.562583	15.6205	3.01227	-9.43008
 430	1	3	0.048272	18.3538	4.4637	-9.01674
 431	1	4	-0.191545	16.3066	-1.0417	-12.4856
 432	1	9	0.130627	16.0355	-2.91495	-13.3609
 433	1	3	0.015236	14.7453	-5.12851	-12.5846
 434	1	7	0.210365	18.1099	-1.36024	-11.4686
 435	1	1	-0.218842	9.5837	-16.0391	-7.74825
 436	1	2	0.68591	9.33596	-15.2216	-9.00368
 437	1	3	0.086668	10.5919	-16.4655	-7.78822
 438	1	3	0.071846	8.85207	-16.8522	-7.68278
 439	1	3	0.062371	9.50098	-15.4046	-6.85795
 440	1	4	-0.291145	9.95482	-14.0054	-8.93736
 441	1	1	-0.015993	9.95079	-13.11	-10.0732
 442	1	5	-0.555985	8.60515	-15.5904	-9.90753
 443	1	2	0.652223	11.7773	-13.4246	-15.6847
 444	1	3	0.062504	10.7055	-13.2329	-17.5443
 445	1	5	-0.583019	12.497	-14.332	-16.0668
 446	1	1	-0.168764	10.6967	-12.79	-16.542
 447	1	3	0.062846	9.71742	-12.9566	-16.0785
 448	1	4	-0.264747	11.8388	-12.8395	-14.4557
 449	1	3	0.073216	10.8743	-11.7114	-16.6188
 450	1	1	-0.015836	12.851	-12.3055	-12.316
 451	1	1	0.044531	12.7442	-13.353	-13.4466
 452	1	1	0.341309	12.2127	-14.7086	-12.9176
 453	1	1	0.132892	10.9584	-14.5422	-12.0128
 454	1	6	-0.74435	13.2271	-15.437	-12.2208
 455	1	7	-0.00272	11.9548	-15.3197	-13.7833
 456	1	1	-0.008403	11.1822	-13.4222	-10.9604
 457	1	4	-0.239698	11.5884	-12.2047	-11.6202
 458	1	7	0.089672	10.0447	-12.0788	-9.70962
 459	1	7	0.088396	9.01294	-13.172	-10.6403
 460	1	7	0.05623	12.0014	-13.7367	-10.2996
 461	1	7	0.125955	13.7386	-13.5125	-13.8823
 462	1	8	0.456798	12.8466	-16.3487	-12.1803
 463	1	9	0.198085	15.4675	-7.3045	-12.1553
 464	1	7	0.095469	14.1869	-8.32146	-9.58153
 465	1	1	-0.308877	14.6119	-7.32992	-11.47
 466	1	8	0.426958	13.2349	-10.3629	-9.59549
 467	1	6	-0.128067	14.5492	-6.08877	-10.7525
 468	1	1	0.005701	14.7779	-8.5213	-10.486
 469	1	7	0.239394	12.3512	-8.60269	-13.5996
 470	1	5	-0.48496	16.0036	-9.49129	-8.0774
 471	1	1	-0.003409	13.2164	-9.86161	-12.0793
 472	1	2	0.352525	16.6705	-9.06694	-9.00545
 473	1	6	-0.665659	14.0457	-10.7804	-9.99886
 474	1	1	-0.510331	13.3012	-8.65487	-13.0486
 475	1	1	0.240953	14.3978	-9.91281	-11.0736
 476	1	4	0.015262	13.4147	-7.46469	-12.2509
 477	1	4	0.176506	16.1868	-8.554	-10.176
 478	1	3	0.090205	18.5446	-8.03545	-9.35113
 479	1	1	-0.197476	18.1895	-8.99163	-8.94918
 480	1	1	-0.039041	14.4349	-8.75893	-14.1042
 481	1	7	0.144117	15.4327	-8.80969	-13.6453
 482	1	3	0.104606	18.627	-9.80601	-9.53701
 483	1	7	0.111943	15.2662	-10.3097	-11.6159
 484	1	7	0.160853	14.3065	-9.68133	-14.69
 485	1	3	0.069306	18.5273	-9.07289	-7.90942
 486	1	4	-0.432857	14.2873	-7.62938	-14.9844
 487	1	3	0.042395	13.8699	-4.96494	-15.4676
 488	1	2	0.753764	15.1763	-6.5923	-14.944
 489	1	1	-0.122098	14.7535	-5.46865	-15.8761
 490	1	3	0.030493	14.5068	-5.87179	-16.8653
 491	1	5	-0.562583	16.1908	-6.56025	-14.2646
 492	1	3	0.048272	15.5695	-4.74674	-15.9783
 493	1	4	-0.191545	13.2212	-11.044	-12.9093
 494	1	9	0.130627	13.6279	-12.6164	-11.6053
 495	1	3	0.015236	10.8091	-15.4807	-11.4645
 496	1	7	0.210365	12.274	-9.79744	-11.5173
 497	1	1	-0.218842	11.2076	-21.3114	-16.7285
 498	1	2	0.68591	9.74022	-21.2768	-17.1166
 499	1	3	0.086668	11.2977	-21.4725	-15.6488
 500	1	3	0.071846	11.6772	-20.3584	-16.9949
 501	1	3	0.062371	11.7163	-22.1227	-17.2614
 502	1	4	-0.291145	9.59405	-21.2975	-18.4771
 503	1	1	-0.015993	8.28364	-21.2092	-19.0779
 504	1	5	-0.555985	8.83614	-21.3447	-16.302
 505	1	2	0.652223	5.56962	-15.0056	-19.2126
 506	1	3	0.062504	4.34783	-13.2439	-18.9814
 507	1	5	-0.583019	5.65589	-14.9297	-20.426
 508	1	1	-0.168764	4.8074	-14.0143	-18.3515
 509	1	3	0.062846	4.02651	-14.5385	-17.7887
 510	1	4	-0.264747	6.14349	-15.9855	-18.4634
 511	1	3	0.073216	5.49309	-13.5415	-17.6396
 512	1	1	-0.015836	7.73381	-17.7405	-17.8843
 513	1	1	0.044531	6.93366	-17.0586	-19.045
 514	1	1	0.341309	6.01839	-18.0429	-19.843
 515	1	1	0.132892	6.64527	-19.4551	-20.1037
 516	1	6	-0.74435	5.65191	-17.481	-21.1122
 517	1	7	-0.00272	5.10978	-18.1814	-19.2425
 518	1	1	-0.008403	7.90328	-19.7166	-19.2364
 519	1	4	-0.239698	7.62901	-19.168	-17.947
 520	1	7	0.089672	7.5355	-21.7423	-18.4749
 521	1	7	0.088396	8.31743	-21.6726	-20.0724
 522	1	7	0.05623	8.75897	-19.1971	-19.6886
 523	1	7	0.125955	7.66578	-16.6403	-19.7478
 524	1	8	0.456798	5.56842	-16.4927	-20.9868
 525	1	9	0.198085	9.28678	-16.2956	-12.8057
 526	1	7	0.095469	7.53432	-14.0293	-13.8787
 527	1	1	-0.308877	9.15178	-15.3981	-13.4246
 528	1	8	0.426958	5.27769	-14.9044	-14.3933
 529	1	6	-0.128067	9.77334	-14.2775	-12.7847
 530	1	1	0.005701	7.64337	-15.0884	-13.6096
 531	1	7	0.239394	9.89301	-16.6748	-16.4247
 532	1	5	-0.48496	5.00921	-14.3765	-12.7619
 533	1	1	-0.003409	7.8195	-16.2901	-15.897
 534	1	2	0.352525	5.77912	-14.9427	-12.0037
 535	1	6	-0.665659	5.78938	-15.2366	-15.1783
 536	1	1	-0.510331	9.27949	-16.6664	-15.514
 537	1	1	0.240953	6.9228	-15.958	-14.6818
 538	1	4	0.015262	9.78683	-15.6109	-14.6912
 539	1	4	0.176506	7.05336	-15.3339	-12.3122
 540	1	3	0.090205	4.33657	-15.1103	-10.4055
 541	1	1	-0.197476	5.39768	-15.3252	-10.58
 542	1	1	-0.039041	9.44725	-18.0637	-14.8503
 543	1	7	0.144117	9.1375	-18.0873	-13.7967
 544	1	3	0.104606	6.00168	-14.7518	-9.86726
 545	1	7	0.111943	6.61545	-16.9099	-14.2254
 546	1	7	0.160853	8.82652	-18.8064	-15.3784
 547	1	3	0.069306	5.5798	-16.3939	-10.4134
 548	1	4	-0.432857	10.8289	-18.435	-15.0163
 549	1	3	0.042395	13.1688	-19.6298	-14.752
 550	1	2	0.753764	11.7708	-18.1382	-14.0711
 551	1	1	-0.122098	13.1564	-18.5547	-14.539
 552	1	3	0.030493	13.9027	-18.3311	-13.7672
 553	1	5	-0.562583	11.5517	-17.6824	-12.957
 554	1	3	0.048272	13.4119	-18.0097	-15.4552
 555	1	4	-0.191545	7.20835	-17.4007	-16.5854
 556	1	9	0.130627	8.79218	-17.4684	-17.9529
 557	1	3	0.015236	6.98192	-19.5115	-21.1474
 558	1	7	0.210365	7.81814	-15.401	-16.5411
 559	1	1	-0.218842	6.59189	-28.8154	-21.8379
 560	1	2	0.68591	5.09115	-29.0429	-21.8536
 561	1	3	0.086668	6.81566	-27.8985	-21.2819
 562	1	3	0.071846	6.95836	-28.7055	-22.8646
 563	1	3	0.062371	7.09539	-29.6635	-21.3597
 564	1	4	-0.291145	4.43568	-27.9942	-22.4276
 565	1	1	-0.015993	2.99979	-28.0419	-22.5347
 566	1	5	-0.555985	4.55756	-30.0503	-21.4232
 567	1	2	0.652223	-1.23885	-24.0119	-22.3389
 568	1	3	0.062504	-3.03919	-23.9107	-21.1583
 569	1	5	-0.583019	-1.78617	-23.731	-23.3904
 570	1	1	-0.168764	-1.96945	-24.0977	-21.0112
 571	1	3	0.062846	-1.83185	-25.0935	-20.575
 572	1	4	-0.264747	0.0863219	-24.3084	-22.21
 573	1	3	0.073216	-1.56347	-23.3511	-20.3195
 574	1	1	-0.015836	2.4296	-24.3473	-22.9035
 575	1	1	0.044531	0.951833	-24.2722	-23.3748
 576	1	1	0.341309	0.637886	-25.4424	-24.34
 577	1	1	0.132892	1.03277	-26.7778	-23.6391
 578	1	6	-0.74435	1.37797	-25.1842	-25.5468
 579	1	7	-0.00272	-0.432103	-25.4638	-24.5758
 580	1	1	-0.008403	2.53586	-26.7617	-23.2596
 581	1	4	-0.239698	2.71772	-25.6541	-22.3504
 582	1	7	0.089672	2.53744	-28.1038	-21.5408
 583	1	7	0.088396	2.70413	-28.9291	-23.1109
 584	1	7	0.05623	3.14733	-26.6168	-24.1599
 585	1	7	0.125955	0.798137	-23.3317	-23.9169
 586	1	8	0.456798	1.12814	-25.8502	-26.2189
 587	1	9	0.198085	4.29777	-19.5229	-21.1132
 588	1	7	0.095469	5.89578	-20.9971	-22.5124
 589	1	1	-0.308877	4.57015	-20.5486	-20.8258
 590	1	8	0.426958	6.04638	-22.5211	-20.2946
 591	1	6	-0.128067	5.65885	-20.4846	-19.8888
 592	1	1	0.005701	4.93613	-21.3489	-22.1135
 593	1	7	0.239394	4.31713	-22.6424	-19.084
 594	1	5	-0.48496	4.96441	-22.0946	-24.8461
 595	1	1	-0.003409	3.80127	-23.3822	-21.0804
 596	1	2	0.352525	4.02084	-21.4795	-24.3811
 597	1	6	-0.665659	6.18674	-23.1214	-21.056
 598	1	1	-0.510331	3.5105	-22.518	-19.8188
 599	1	1	0.240953	5.03573	-22.8774	-21.8565
 600	1	4	0.015262	3.40892	-21.133	-20.1991
 601	1	4	0.176506	3.90687	-21.0597	-23.0842
 602	1	3	0.090205	1.88007	-21.3395	-24.656
 603	1	1	-0.197476	2.79802	-21.1062	-25.2074
 604	1	1	-0.039041	2.18942	-22.9343	-19.1396
 605	1	7	0.144117	2.02004	-22.37	-18.2107
 606	1	3	0.104606	2.80179	-21.6729	-26.1469
 607	1	7	0.111943	5.13014	-23.4322	-22.7996
 608	1	7	0.160853	1.3408	-22.7428	-19.8155
 609	1	3	0.069306	2.81306	-20.0335	-25.4329
 610	1	4	-0.432857	2.31603	-24.3432	-18.8716
 611	1	3	0.042395	2.06183	-26.9268	-19.3117
 612	1	2	0.753764	1.20279	-25.0843	-18.6044
 613	1	1	-0.122098	1.55559	-26.5515	-18.4146
 614	1	3	0.030493	0.649034	-27.142	-18.2368
 615	1	5	-0.562583	0.0673675	-24.6422	-18.546
 616	1	3	0.048272	2.23177	-26.6593	-17.5589
 617	1	4	-0.191545	2.62695	-23.3155	-21.9197
 618	1	9	0.130627	3.09421	-24.175	-23.7615
 619	1	3	0.015236	0.477933	-26.8141	-22.6925
 620	1	7	0.210365	3.98878	-24.4195	-20.7665
 621	1	1	-0.218842	0.087567	-31.8598	-35.4587
 622	1	2	0.68591	1.15811	-31.7324	-34.3907
 623	1	3	0.086668	-0.530532	-32.7407	-35.2526
 624	1	3	0.071846	0.555304	-31.9673	-36.4441
 625	1	3	0.062371	-0.549197	-30.9682	-35.4527
 626	1	4	-0.291145	0.612687	-31.6698	-33.1417
 627	1	1	-0.015993	1.49438	-31.5546	-32.0065
 628	1	5	-0.555985	2.35362	-31.7364	-34.6285
 629	1	2	0.652223	-2.60316	-33.1712	-26.8705
 630	1	3	0.062504	-2.90412	-34.0083	-24.9099
 631	1	5	-0.583019	-3.24717	-34.0095	-27.4727