pySIMM System Object

1056 atoms
1089 bonds
2006 angles
2785 dihedrals
68 impropers

9 atom types
10 bond types
23 angle types
20 dihedral types
1 improper types

-148.457076 148.457076 xlo xhi
-148.457076 148.457076 ylo yhi
-148.457076 148.457076 zlo zhi

Masses

   1	12.01	# c3
   2	12.01	# c
   3	1.008	# hc
   4	16.0	# os
   5	16.0	# o
   6	16.0	# oh
   7	1.008	# h1
   8	1.008	# ho
   9	1.008	# h2

Pair Coeffs

   1	0.1094	3.3996695084235347	# c3
   2	0.086	3.3996695084235347	# c
   3	0.0157	2.649532787749369	# hc
   4	0.17	3.0000123434657784	# os
   5	0.21	2.959921901149463	# o
   6	0.2104	3.0664733878390478	# oh
   7	0.0157	2.471353044121301	# h1
   8	0.0047	0.5379246460131368	# ho
   9	0.0157	2.2931733004932333	# h2

Bond Coeffs

   1	331.7	1.0961	# c3,h2
   2	637.7	1.2183	# c,o
   3	300.9	1.5375	# c3,c3
   4	330.6	1.0969	# c3,hc
   5	316.7	1.4233	# c3,oh
   6	330.6	1.0969	# c3,h1
   7	371.4	0.973	# ho,oh
   8	308.6	1.4316	# c3,os
   9	313.0	1.5241	# c,c3
  10	390.8	1.3584	# c,os

Angle Coeffs

   1	46.93	108.77	# c,c3,hc
   2	67.4	123.2	# c3,c,o
   3	68.0	107.97	# c3,c3,os
   4	46.39	109.56	# c3,c3,h1
   5	46.25	110.22	# c3,c3,h2
   6	62.86	111.51	# c3,c3,c3
   7	68.89	110.72	# c3,c,os
   8	72.58	109.38	# oh,c3,os
   9	75.32	123.25	# o,c,os
  10	67.47	110.19	# c3,c3,oh
  11	46.34	109.8	# c3,c3,hc
  12	47.38	107.26	# c3,oh,ho
  13	39.24	108.46	# h1,c3,h1
  14	50.85	109.58	# h2,c3,os
  15	72.74	108.29	# os,c3,os
  16	50.8	109.78	# h1,c3,os
  17	63.28	115.98	# c,os,c3
  18	62.7	112.48	# c3,os,c3
  19	50.93	110.26	# h1,c3,oh
  20	39.4	107.58	# hc,c3,hc
  21	51.13	109.43	# h2,c3,oh
  22	51.11	109.5	# hc,c3,oh
  23	62.7	112.48	# c3,oh,c3

Dihedral Coeffs

   1	3	0.18	3	0	0.25	2	180	0.2	1	180	# c3,c3,c3,c3
   2	1	0.3833333333333333	3	0	# X,c3,os,X
   3	2	0.144	3	0	1.175	2	0	# os,c3,c3,oh
   4	3	0.1	3	0	0.85	2	180	1.35	1	180	# c3,os,c3,os
   5	2	0.144	3	0	1.175	2	0	# os,c3,c3,os
   6	3	2.7	2	180	0.0	1	0	1.15	3	0	# c3,c,os,c3
   7	2	0.0	3	0	0.25	1	0	# hc,c3,c3,oh
   8	1	0.16	3	0	# hc,c3,c3,c3
   9	1	0.15555555555555556	3	0	# X,c3,c3,X
  10	2	0.16	3	0	0.25	1	0	# ho,oh,c3,c3
  11	2	0.383	3	0	0.8	1	180	# c3,c3,os,c
  12	1	0.0	2	180	# X,c,c3,X
  13	2	2.7	2	180	1.4	1	180	# o,c,os,c3
  14	2	0.0	3	0	0.25	1	0	# hc,c3,c3,os
  15	2	0.0	3	0	0.25	1	0	# h1,c3,c3,oh
  16	1	0.16666666666666666	3	0	# X,c3,oh,X
  17	3	0.8	1	0	0.0	2	0	0.08	3	180	# hc,c3,c,o
  18	2	0.0	3	0	0.25	1	0	# h1,c3,c3,os
  19	2	0.383	3	0	0.1	2	180	# c3,c3,os,c3
  20	2	0.144	3	0	1.175	2	0	# oh,c3,c3,oh

Improper Coeffs

   1	10.5	-1	2	# c,X,X,o

Atoms

   1	1	1	-0.218842	-32.8273	-1.47063	-7.80182
   2	1	2	0.68591	-31.8882	-0.767138	-6.83863
   3	1	3	0.086668	-33.7585	-0.901044	-7.88925
   4	1	3	0.071846	-33.0487	-2.47968	-7.43625
   5	1	3	0.062371	-32.3561	-1.53881	-8.78937
   6	1	4	-0.291145	-31.5849	0.49072	-7.27093
   7	1	1	-0.015993	-30.6519	1.28619	-6.51146
   8	1	5	-0.555985	-31.4609	-1.28285	-5.8203
   9	1	2	0.652223	-27.2267	5.79316	-10.1348
  10	1	3	0.062504	-26.1582	5.53354	-11.9836
  11	1	5	-0.583019	-27.8921	6.68721	-9.63913
  12	1	1	-0.168764	-26.0129	6.02848	-11.0164
  13	1	3	0.062846	-25.8655	7.10261	-11.1766
  14	1	4	-0.264747	-27.4599	4.46273	-9.96251
  15	1	3	0.073216	-25.1229	5.60582	-10.5364
  16	1	1	-0.015836	-28.5259	2.42927	-9.32444
  17	1	1	0.044531	-28.5614	3.96208	-9.1651
  18	1	1	0.341309	-28.4504	4.38406	-7.67121
  19	1	1	0.132892	-29.0899	3.34679	-6.68993
  20	1	6	-0.74435	-29.0491	5.66896	-7.47519
  21	1	7	-0.00272	-27.3824	4.47384	-7.4398
  22	1	1	-0.008403	-30.1511	2.45014	-7.4009
  23	1	4	-0.239698	-29.6591	1.86382	-8.63956
  24	1	7	0.089672	-29.7994	0.667389	-6.20279
  25	1	7	0.088396	-31.1329	1.6766	-5.60508
  26	1	7	0.05623	-31.0098	3.09169	-7.63981
  27	1	7	0.125955	-29.5147	4.33176	-9.56183
  28	1	8	0.456798	-28.6666	6.2598	-8.18422
  29	1	9	0.198085	-24.3776	-1.497	-9.8439
  30	1	7	0.095469	-23.4217	0.588753	-10.4273
  31	1	1	-0.308877	-24.2206	-0.840152	-8.97628
  32	1	8	0.426958	-24.0759	2.95036	-10.4251
  33	1	6	-0.128067	-23.1729	-1.41828	-8.19561
  34	1	1	0.005701	-23.8804	0.614886	-9.43027
  35	1	7	0.239394	-26.8144	-1.16898	-9.62157
  36	1	5	-0.48496	-22.4388	3.07606	-9.60986
  37	1	1	-0.003409	-26.5049	0.986766	-9.45897
  38	1	2	0.352525	-22.2972	2.32753	-8.65144
  39	1	6	-0.665659	-24.956	2.51057	-10.5443
  40	1	1	-0.510331	-26.6096	-0.445709	-8.82217
  41	1	1	0.240953	-25.0805	1.60613	-9.43687
  42	1	4	0.015262	-25.3924	-0.790452	-8.15985
  43	1	4	0.176506	-22.9261	1.12784	-8.47353
  44	1	3	0.090205	-21.979	2.69644	-6.54946
  45	1	1	-0.197476	-21.3857	2.63975	-7.47175
  46	1	1	-0.039041	-27.7237	-0.577259	-7.7561
  47	1	7	0.144117	-27.5045	0.0746698	-6.89419
  48	1	3	0.104606	-20.8852	3.60088	-7.6394
  49	1	7	0.111943	-25.0276	2.17438	-8.50021
  50	1	7	0.160853	-28.6938	-0.266983	-8.17081
  51	1	3	0.069306	-20.6366	1.84594	-7.3556
  52	1	4	-0.432857	-27.7967	-1.95208	-7.32543
  53	1	3	0.042395	-27.341	-4.48001	-7.16968
  54	1	2	0.753764	-28.4216	-2.87598	-8.11455
  55	1	1	-0.122098	-28.3669	-4.25733	-7.48496
  56	1	3	0.030493	-28.6942	-5.01428	-8.2068
  57	1	5	-0.562583	-28.9756	-2.63504	-9.17557
  58	1	3	0.048272	-29.0212	-4.28489	-6.60636
  59	1	4	-0.191545	-27.3154	1.92656	-8.70979
  60	1	9	0.130627	-28.5648	2.16067	-10.3865
  61	1	3	0.015236	-29.6133	3.89483	-5.89422
  62	1	7	0.210365	-26.8235	0.943291	-10.5085
  63	1	1	-0.218842	-27.7915	2.65936	2.95779
  64	1	2	0.68591	-26.7903	3.79779	3.03143
  65	1	3	0.086668	-27.8537	2.29744	1.92529
  66	1	3	0.071846	-28.7786	3.00634	3.28315
  67	1	3	0.062371	-27.4631	1.83414	3.59944
  68	1	4	-0.291145	-25.5637	3.40871	2.57643
  69	1	1	-0.015993	-24.4959	4.37238	2.47861
  70	1	5	-0.555985	-27.0496	4.89706	3.49541
  71	1	2	0.652223	-21.7518	5.4474	-2.37937
  72	1	3	0.062504	-19.7342	5.77654	-1.70444
  73	1	5	-0.583019	-22.2352	5.44166	-3.50009
  74	1	1	-0.168764	-20.35	4.94963	-2.07525
  75	1	3	0.062846	-20.3961	4.1675	-1.30859
  76	1	4	-0.264747	-22.3495	5.95154	-1.26039
  77	1	3	0.073216	-19.8968	4.53762	-2.98416
  78	1	1	-0.015836	-24.6852	5.16171	-1.16023
  79	1	1	0.044531	-23.7344	6.38199	-1.28807
  80	1	1	0.341309	-23.9595	7.33944	-0.0933519
  81	1	1	0.132892	-23.883	6.56744	1.26611
  82	1	6	-0.74435	-25.2165	7.99724	-0.280073
  83	1	7	-0.00272	-23.1663	8.09764	-0.112286
  84	1	1	-0.008403	-24.7477	5.28105	1.25034
  85	1	4	-0.239698	-24.4139	4.50564	0.0869945
  86	1	7	0.089672	-23.5369	3.85352	2.35407
  87	1	7	0.088396	-24.4447	4.9667	3.40024
  88	1	7	0.05623	-25.8058	5.57295	1.21214
  89	1	7	0.125955	-23.9509	6.93068	-2.21358
  90	1	8	0.456798	-25.1889	8.78288	0.312397
  91	1	9	0.198085	-27.2005	4.26929	-5.29576
  92	1	7	0.095469	-25.4533	2.77371	-6.375
  93	1	1	-0.308877	-27.1901	3.1825	-5.13853
  94	1	8	0.426958	-23.2725	4.61762	-4.55275
  95	1	6	-0.128067	-28.0903	2.53625	-6.04439
  96	1	1	0.005701	-25.7631	2.61992	-5.33508
  97	1	7	0.239394	-27.3897	4.4005	-2.39654
  98	1	5	-0.48496	-23.6446	0.76247	-5.70126
  99	1	1	-0.003409	-25.4159	4.14381	-3.27673
 100	1	2	0.352525	-24.7331	0.39251	-5.29215
 101	1	6	-0.665659	-23.9096	4.16739	-5.17967
 102	1	1	-0.510331	-26.7838	3.55701	-2.75558
 103	1	1	0.240953	-24.7403	3.30806	-4.39335
 104	1	4	0.015262	-27.5545	2.89743	-3.78403
 105	1	4	0.176506	-25.8127	1.19999	-5.06451
 106	1	3	0.090205	-24.1019	-1.63702	-4.9187
 107	1	1	-0.197476	-25.0319	-1.05692	-4.9314
 108	1	1	-0.039041	-26.6692	2.53828	-1.59111
 109	1	7	0.144117	-26.4476	3.07306	-0.654577
 110	1	3	0.104606	-25.7097	-1.49408	-5.67243
 111	1	7	0.111943	-24.1225	2.54051	-3.90715
 112	1	7	0.160853	-27.6182	2.00059	-1.44047
 113	1	3	0.069306	-25.5131	-1.11472	-3.94888
 114	1	4	-0.432857	-25.6046	1.61001	-1.87755
 115	1	3	0.042395	-24.2045	-0.731403	-2.01772
 116	1	2	0.753764	-25.1538	0.819113	-0.859061
 117	1	1	-0.122098	-23.9257	0.0242958	-1.27706
 118	1	3	0.030493	-23.4806	-0.471418	-0.406133
 119	1	5	-0.562583	-25.6531	0.765404	0.253073
 120	1	3	0.048272	-23.1852	0.699283	-1.72214
 121	1	4	-0.191545	-24.4532	4.20761	-2.20412
 122	1	9	0.130627	-25.7317	5.49492	-1.17278
 123	1	3	0.015236	-22.8381	6.27131	1.42895
 124	1	7	0.210365	-25.5817	5.14737	-3.69368
 125	1	1	-0.218842	-20.6363	10.7669	-1.087
 126	1	2	0.68591	-20.8765	12.2223	-0.724781
 127	1	3	0.086668	-20.1192	10.2631	-0.26301
 128	1	3	0.071846	-20.013	10.7111	-1.98603
 129	1	3	0.062371	-21.5944	10.2672	-1.27165
 130	1	4	-0.291145	-19.7778	12.7669	-0.121074
 131	1	1	-0.015993	-19.8501	14.0936	0.443785
 132	1	5	-0.555985	-21.8978	12.8204	-1.01218
 133	1	2	0.652223	-24.5427	16.1711	2.14
 134	1	3	0.062504	-26.2602	16.8874	1.04931
 135	1	5	-0.583019	-24.3057	17.2278	2.70578
 136	1	1	-0.168764	-25.6382	15.9872	1.10574
 137	1	3	0.062846	-25.1856	15.798	0.125229
 138	1	4	-0.264747	-23.825	15.0252	2.3191
 139	1	3	0.073216	-26.2627	15.1271	1.37193
 140	1	1	-0.015836	-22.1437	13.5577	3.31545
 141	1	1	0.044531	-22.6775	15.0103	3.2052
 142	1	1	0.341309	-21.5948	15.9759	2.63718
 143	1	1	0.132892	-20.1836	15.347	2.70421
 144	1	6	-0.74435	-21.6479	17.2213	3.34561
 145	1	7	-0.00272	-21.8155	16.1647	1.57846
 146	1	1	-0.008403	-20.1322	13.9734	1.96391
 147	1	4	-0.239698	-21.3946	13.2711	2.1154
 148	1	7	0.089672	-20.6222	14.703	-0.0462614
 149	1	7	0.088396	-18.8845	14.5929	0.293467
 150	1	7	0.05623	-19.3315	13.3787	2.42181
 151	1	7	0.125955	-22.9688	15.3465	4.20898
 152	1	8	0.456798	-22.5797	17.5448	3.19914
 153	1	9	0.198085	-22.5761	8.51406	2.37937
 154	1	7	0.095469	-22.938	8.40674	4.71865
 155	1	1	-0.308877	-23.631	8.58032	2.67702
 156	1	8	0.426958	-23.3326	10.1729	6.37663
 157	1	6	-0.128067	-24.3044	7.35226	2.3934
 158	1	1	0.005701	-23.7393	8.93482	4.18537
 159	1	7	0.239394	-22.5691	10.6056	1.23788
 160	1	5	-0.48496	-24.567	8.87004	6.88732
 161	1	1	-0.003409	-22.9467	11.2417	3.29803
 162	1	2	0.352525	-25.3051	8.45412	6.00807
 163	1	6	-0.665659	-22.8558	10.6587	5.6556
 164	1	1	-0.510331	-23.4426	10.8051	1.87098
 165	1	1	0.240953	-23.6172	10.4648	4.46066
 166	1	4	0.015262	-24.2619	9.6362	1.95896
 167	1	4	0.176506	-25.0236	8.47068	4.66961
 168	1	3	0.090205	-26.8384	7.7772	7.36969
 169	1	1	-0.197476	-26.6736	7.8461	6.28748
 170	1	1	-0.039041	-24.2932	11.8574	1.13159
 171	1	7	0.144117	-25.2457	12.0437	1.64969
 172	1	3	0.104606	-26.7336	6.83938	5.85342
 173	1	7	0.111943	-24.6272	10.884	4.57686
 174	1	7	0.160853	-23.7504	12.8135	1.06493
 175	1	3	0.069306	-27.4612	8.46624	5.84315
 176	1	4	-0.432857	-24.5068	11.3517	-0.195831
 177	1	3	0.042395	-24.1813	11.3453	-2.82651
 178	1	2	0.753764	-25.1474	12.1647	-1.08943
 179	1	1	-0.122098	-25.2014	11.5322	-2.47128
 180	1	3	0.030493	-25.7105	12.2015	-3.17513
 181	1	5	-0.562583	-25.659	13.2371	-0.80719
 182	1	3	0.048272	-25.7394	10.5786	-2.42156
 183	1	4	-0.191545	-23.2395	12.6403	3.50851
 184	1	9	0.130627	-21.4729	13.4694	4.18117
 185	1	3	0.015236	-19.9882	15.1427	3.76172
 186	1	7	0.210365	-21.8653	11.0678	3.3918
 187	1	1	-0.218842	-19.4457	23.1492	3.33766
 188	1	2	0.68591	-18.1689	23.3175	4.14053
 189	1	3	0.086668	-20.2796	23.6185	3.87068
 190	1	3	0.071846	-19.6619	22.0818	3.20968
 191	1	3	0.062371	-19.3353	23.6171	2.3527
 192	1	4	-0.291145	-18.2967	22.7908	5.39638
 193	1	1	-0.015993	-17.1941	22.8003	6.33478
 194	1	5	-0.555985	-17.1801	23.8935	3.71362
 195	1	2	0.652223	-14.9971	17.8401	8.88445
 196	1	3	0.062504	-15.8191	15.854	8.94572
 197	1	5	-0.583019	-13.9214	18.2046	9.33013
 198	1	1	-0.168764	-15.8589	16.7745	9.53909
 199	1	3	0.062846	-15.492	16.5656	10.5505
 200	1	4	-0.264747	-15.5924	18.3685	7.7767
 201	1	3	0.073216	-16.9002	17.1108	9.59666
 202	1	1	-0.015836	-15.6455	19.4859	5.59961
 203	1	1	0.044531	-14.8985	19.3509	6.95849
 204	1	1	0.341309	-14.8227	20.7111	7.71422
 205	1	1	0.132892	-14.784	21.9182	6.73465
 206	1	6	-0.74435	-13.715	20.7533	8.61924
 207	1	7	-0.00272	-15.7436	20.8088	8.30401
 208	1	1	-0.008403	-16.0441	21.9093	5.8056
 209	1	4	-0.239698	-16.5876	20.5749	5.69513
 210	1	7	0.089672	-17.5346	22.4178	7.30604
 211	1	7	0.088396	-16.8361	23.8283	6.47965
 212	1	7	0.05623	-15.7831	22.2878	4.81852
 213	1	7	0.125955	-13.8794	19.0142	6.74684
 214	1	8	0.456798	-13.6561	19.8456	9.03214
 215	1	9	0.198085	-17.373	15.4262	2.04051
 216	1	7	0.095469	-17.2962	17.8681	1.29329
 217	1	1	-0.308877	-17.8665	16.223	2.61348
 218	1	8	0.426958	-19.5263	18.3332	2.99236
 219	1	6	-0.128067	-19.2363	16.2993	2.18666
 220	1	1	0.005701	-17.1458	17.5698	2.33889
 221	1	7	0.239394	-19.37	16.9542	4.77994
 222	1	5	-0.48496	-14.9743	19.3418	1.82257
 223	1	1	-0.003409	-17.6519	18.2674	4.75774
 224	1	2	0.352525	-14.7813	18.2306	2.28997
 225	1	6	-0.665659	-18.9521	19.1328	2.91052
 226	1	1	-0.510331	-18.2869	16.8655	4.9496
 227	1	1	0.240953	-17.6354	18.7142	3.27628
 228	1	4	0.015262	-17.7154	15.9245	4.01917
 229	1	4	0.176506	-15.7451	17.3021	2.5585
 230	1	3	0.090205	-13.2868	16.6641	2.36446
 231	1	1	-0.197476	-13.4036	17.7101	2.67149
 232	1	1	-0.039041	-18.0786	16.2991	6.36615
 233	1	7	0.144117	-17.0468	15.9348	6.4892
 234	1	3	0.104606	-13.2819	17.7665	3.75825
 235	1	7	0.111943	-16.9719	19.5823	3.18068
 236	1	7	0.160853	-18.2582	17.0717	7.12932
 237	1	3	0.069306	-12.6227	18.3086	2.19231
 238	1	4	-0.432857	-19.0272	15.227	6.50121
 239	1	3	0.042395	-20.2327	12.9426	8.58481
 240	1	2	0.753764	-19.077	14.5237	7.66935
 241	1	1	-0.122098	-20.1403	13.4362	7.61027
 242	1	3	0.030493	-19.8698	12.6918	6.85196
 243	1	5	-0.562583	-18.386	14.7557	8.64768
 244	1	3	0.048272	-21.1057	13.8778	7.33746
 245	1	4	-0.191545	-16.3045	18.2347	5.28411
 246	1	9	0.130627	-14.9227	19.7041	4.80474
 247	1	3	0.015236	-14.8278	22.8292	7.34529
 248	1	7	0.210365	-18.2571	18.9918	5.32135
 249	1	1	-0.218842	-6.40702	20.1375	-3.28872
 250	1	2	0.68591	-7.71136	19.4159	-3.0027
 251	1	3	0.086668	-6.33764	20.3575	-4.35995
 252	1	3	0.071846	-5.5632	19.5033	-2.99446
 253	1	3	0.062371	-6.36762	21.0728	-2.71977
 254	1	4	-0.291145	-7.80545	19.049	-1.68948
 255	1	1	-0.015993	-8.96189	18.3115	-1.23648
 256	1	5	-0.555985	-8.5401	19.1698	-3.86173
 257	1	2	0.652223	-14.7046	21.7555	-0.338104
 258	1	3	0.062504	-15.6532	21.9261	1.59241
 259	1	5	-0.583019	-15.0322	21.4969	-1.48281
 260	1	1	-0.168764	-15.6016	22.4836	0.650338
 261	1	3	0.062846	-15.1989	23.4824	0.850202
 262	1	4	-0.264747	-13.4796	21.493	0.197936
 263	1	3	0.073216	-16.6117	22.577	0.235255
 264	1	1	-0.015836	-11.1524	20.9137	0.423809
 265	1	1	0.044531	-12.4016	20.814	-0.507424
 266	1	1	0.341309	-12.7727	19.3469	-0.868304
 267	1	1	0.132892	-11.5389	18.4724	-1.25481
 268	1	6	-0.74435	-13.6982	19.3193	-1.96223
 269	1	7	-0.00272	-13.2509	18.909	0.0114449
 270	1	1	-0.008403	-10.1972	19.2454	-1.1377
 271	1	4	-0.239698	-10.1525	19.9103	0.138073
 272	1	7	0.089672	-8.76146	17.8694	-0.251983
 273	1	7	0.088396	-9.16724	17.4858	-1.932
 274	1	7	0.05623	-10.1554	19.9895	-1.94331
 275	1	7	0.125955	-12.1753	21.3448	-1.44128
 276	1	8	0.456798	-14.296	20.1168	-1.85356
 277	1	9	0.198085	-14.2231	21.5318	4.11283
 278	1	7	0.095469	-12.0262	23.5264	4.82304
 279	1	1	-0.308877	-13.3019	21.776	4.64685
 280	1	8	0.426958	-11.3712	24.7921	2.8594
 281	1	6	-0.128067	-13.4983	21.961	6.06077
 282	1	1	0.005701	-12.6875	23.0877	4.06331
 283	1	7	0.239394	-10.6576	21.528	4.9326
 284	1	5	-0.48496	-12.5106	25.8649	3.5712
 285	1	1	-0.003409	-11.0302	21.5664	2.78127
 286	1	2	0.352525	-13.5986	25.3142	3.59408
 287	1	6	-0.665659	-10.9574	23.9533	2.51953
 288	1	1	-0.510331	-11.083	20.8664	4.16315
 289	1	1	0.240953	-11.8652	22.8748	2.75798
 290	1	4	0.015262	-12.4619	20.6206	4.45867
 291	1	4	0.176506	-13.8018	23.9773	3.81113
 292	1	3	0.090205	-14.6897	27.1279	3.1718
 293	1	1	-0.197476	-14.8999	26.0686	3.36312
 294	1	1	-0.039041	-10.3045	19.5351	4.19863
 295	1	7	0.144117	-10.8682	18.7225	3.71704
 296	1	3	0.104606	-15.5416	25.9878	4.24839
 297	1	7	0.111943	-12.5781	22.818	1.93122
 298	1	7	0.160853	-9.35199	19.6446	3.66049
 299	1	3	0.069306	-15.4338	25.6491	2.50227
 300	1	4	-0.432857	-10.0422	19.2651	5.5884
 301	1	3	0.042395	-11.0926	17.7689	8.34094
 302	1	2	0.753764	-10.958	18.5898	6.3483
 303	1	1	-0.122098	-10.5442	18.557	7.81184
 304	1	3	0.030493	-10.7647	19.5244	8.27888
 305	1	5	-0.562583	-11.9126	17.9709	5.90579
 306	1	3	0.048272	-9.46836	18.3637	7.89255
 307	1	4	-0.191545	-11.5481	20.6565	1.78664
 308	1	9	0.130627	-10.7135	21.9168	0.336009
 309	1	3	0.015236	-11.6183	18.208	-2.31684
 310	1	7	0.210365	-9.98435	21.8127	2.54412
 311	1	1	-0.218842	-11.6815	13.2458	-7.62269
 312	1	2	0.68591	-12.6635	12.1357	-7.29347
 313	1	3	0.086668	-10.6809	12.9834	-7.26502
 314	1	3	0.071846	-11.9989	14.1724	-7.13177
 315	1	3	0.062371	-11.6477	13.4041	-8.70711
 316	1	4	-0.291145	-12.5906	11.7623	-5.98336
 317	1	1	-0.015993	-13.5271	10.7784	-5.4907
 318	1	5	-0.555985	-13.3578	11.5845	-8.1288
 319	1	2	0.652223	-8.97986	10.5774	-1.56432
 320	1	3	0.062504	-7.51678	11.4377	-2.8904
 321	1	5	-0.583019	-8.81418	9.53811	-0.950145
 322	1	1	-0.168764	-7.86695	11.5677	-1.86105
 323	1	3	0.062846	-8.22907	12.595	-1.73436
 324	1	4	-0.264747	-10.1937	11.0203	-2.0068
 325	1	3	0.073216	-7.03137	11.399	-1.17197
 326	1	1	-0.015836	-12.6453	11.0995	-1.86476
 327	1	1	0.044531	-11.3732	10.23	-1.71354
 328	1	1	0.341309	-11.4309	8.96915	-2.62351
 329	1	1	0.132892	-11.9025	9.27816	-4.07491
 330	1	6	-0.74435	-12.2879	7.99813	-2.01264
 331	1	7	-0.00272	-10.4311	8.52339	-2.68429
 332	1	1	-0.008403	-13.0998	10.2767	-4.09118
 333	1	4	-0.239698	-12.8267	11.4185	-3.25522
 334	1	7	0.089672	-13.5906	9.92258	-6.17574
 335	1	7	0.088396	-14.5277	11.2264	-5.42892
 336	1	7	0.05623	-13.9622	9.74287	-3.66994
 337	1	7	0.125955	-11.3278	9.89443	-0.668868
 338	1	8	0.456798	-11.6893	7.33637	-1.61398
 339	1	9	0.198085	-13.44	16.7837	-0.0249299
 340	1	7	0.095469	-12.2045	16.1146	-2.67369
 341	1	1	-0.308877	-12.5899	16.3184	-0.535071
 342	1	8	0.426958	-13.3869	13.0588	-3.55987
 343	1	6	-0.128067	-11.4828	17.2425	-0.501186
 344	1	1	0.005701	-13.0133	15.8686	-1.97633
 345	1	7	0.239394	-10.5223	14.9098	-0.883245
 346	1	5	-0.48496	-15.5968	15.9904	-0.634577
 347	1	1	-0.003409	-12.0497	13.5228	-1.55875
 348	1	2	0.352525	-15.3913	16.5454	-1.70462
 349	1	6	-0.665659	-13.4656	14.041	-3.4907
 350	1	1	-0.510331	-11.3048	14.2903	-0.420852
 351	1	1	0.240953	-13.254	14.3435	-2.11087
 352	1	4	0.015262	-12.2445	15.1561	0.238624
 353	1	4	0.176506	-14.2088	16.564	-2.40515
 354	1	3	0.090205	-16.8575	16.7649	-3.26932
 355	1	1	-0.197476	-16.4733	17.3428	-2.42108
 356	1	1	-0.039041	-10.6359	13.4079	0.659592
 357	1	7	0.144117	-11.3918	12.7929	1.16866
 358	1	3	0.104606	-16.0621	18.2879	-2.79589
 359	1	7	0.111943	-14.1368	14.0764	-1.51234
 360	1	7	0.160853	-9.88702	12.7364	0.216413
 361	1	3	0.069306	-17.2962	17.5643	-1.73083
 362	1	4	-0.432857	-10.0209	14.3018	1.60832
 363	1	3	0.042395	-8.42155	15.53	3.30831
 364	1	2	0.753764	-8.93206	15.0536	1.26789
 365	1	1	-0.122098	-8.59541	16.0555	2.36236
 366	1	3	0.030493	-9.43374	16.7504	2.49467
 367	1	5	-0.562583	-8.28967	14.9348	0.235721
 368	1	3	0.048272	-7.69777	16.6227	2.09109
 369	1	4	-0.191545	-12.5464	12.2729	-1.01902
 370	1	9	0.130627	-13.5034	10.507	-1.51895
 371	1	3	0.015236	-12.274	8.33242	-4.49297
 372	1	7	0.210365	-11.3394	13.3303	-2.37606
 373	1	1	-0.218842	-3.69444	5.60031	-4.00461
 374	1	2	0.68591	-3.82463	6.92701	-4.73049
 375	1	3	0.086668	-4.14264	4.8101	-4.6161
 376	1	3	0.071846	-4.21356	5.65249	-3.04069
 377	1	3	0.062371	-2.63794	5.36341	-3.83394
 378	1	4	-0.291145	-2.89664	7.0343	-5.73126
 379	1	1	-0.015993	-2.89809	8.1756	-6.62216
 380	1	5	-0.555985	-4.59357	7.80483	-4.37838
 381	1	2	0.652223	-6.69763	4.21708	-9.27648
 382	1	3	0.062504	-7.6724	2.33073	-8.9311
 383	1	5	-0.583019	-6.84463	4.22501	-10.4861
 384	1	1	-0.168764	-6.98102	3.0026	-8.40915
 385	1	3	0.062846	-6.04554	2.47274	-8.20044
 386	1	4	-0.264747	-6.31517	5.29409	-8.53192
 387	1	3	0.073216	-7.43584	3.31321	-7.46079
 388	1	1	-0.015836	-6.27793	7.69972	-8.17323
 389	1	1	0.044531	-6.07165	6.55919	-9.19442
 390	1	1	0.341309	-4.65676	6.57271	-9.84219
 391	1	1	0.132892	-3.48922	6.93372	-8.87068
 392	1	6	-0.74435	-4.65851	7.47124	-10.954
 393	1	7	-0.00272	-4.46054	5.57168	-10.2468
 394	1	1	-0.008403	-3.90364	7.97915	-7.78925
 395	1	4	-0.239698	-5.1921	7.66348	-7.23743
 396	1	7	0.089672	-1.89564	8.31267	-7.04671
 397	1	7	0.088396	-3.14961	9.09095	-6.06916
 398	1	7	0.05623	-3.98448	8.94709	-8.30139
 399	1	7	0.125955	-6.80489	6.69274	-9.99972
 400	1	8	0.456798	-3.84673	7.21192	-11.4728
 401	1	9	0.198085	-11.6049	9.03503	-6.65309
 402	1	7	0.095469	-9.90505	10.8527	-7.17734
 403	1	1	-0.308877	-10.6264	9.06593	-6.15647
 404	1	8	0.426958	-8.86331	10.195	-4.89121
 405	1	6	-0.128067	-10.7902	9.72175	-4.88138
 406	1	1	0.005701	-9.6242	9.79748	-7.09071
 407	1	7	0.239394	-8.85425	7.9027	-4.39893
 408	1	5	-0.48496	-8.55716	10.7741	-9.51114
 409	1	1	-0.003409	-7.76747	8.24497	-6.25935
 410	1	2	0.352525	-9.17717	9.72521	-9.49362
 411	1	6	-0.665659	-8.06794	10.4752	-5.39106
 412	1	1	-0.510331	-8.86685	7.51367	-5.42574
 413	1	1	0.240953	-8.15988	9.70652	-6.58484
 414	1	4	0.015262	-10.1723	7.70806	-6.0031
 415	1	4	0.176506	-9.74964	9.16895	-8.38522
 416	1	3	0.090205	-8.71676	8.06877	-10.8005
 417	1	1	-0.197476	-9.43644	8.89381	-10.7438
 418	1	1	-0.039041	-8.63219	5.99392	-5.35464
 419	1	7	0.144117	-8.80622	5.53627	-6.34118
 420	1	3	0.104606	-9.32912	9.5242	-11.6348
 421	1	7	0.111943	-7.46627	10.1175	-7.33115
 422	1	7	0.160853	-7.59872	5.76216	-5.05316
 423	1	3	0.069306	-10.4512	8.47729	-10.7252
 424	1	4	-0.432857	-9.57314	5.50112	-4.38526
 425	1	3	0.042395	-10.4962	4.13665	-2.24506
 426	1	2	0.753764	-9.76449	4.15568	-4.27081
 427	1	1	-0.122098	-10.8423	3.84425	-3.24289
 428	1	3	0.030493	-11.0765	2.77307	-3.24763
 429	1	5	-0.562583	-9.18615	3.31121	-4.93453
 430	1	3	0.048272	-11.7501	4.41154	-3.4803
 431	1	4	-0.191545	-7.54184	7.50855	-7.48977
 432	1	9	0.130627	-6.27695	8.66672	-8.69492
 433	1	3	0.015236	-2.72591	7.43697	-9.47834
 434	1	7	0.210365	-6.84001	8.2737	-5.66413
 435	1	1	-0.218842	3.84168	3.22205	-4.588
 436	1	2	0.68591	4.66709	4.16508	-5.44574
 437	1	3	0.086668	4.49412	2.72977	-3.85965
 438	1	3	0.071846	3.36353	2.45786	-5.21243
 439	1	3	0.062371	3.06194	3.78488	-4.06207
 440	1	4	-0.291145	4.96148	3.60409	-6.65661
 441	1	1	-0.015993	5.67926	4.33316	-7.67853
 442	1	5	-0.555985	5.02336	5.27022	-5.07615
 443	1	2	0.652223	1.00799	8.73309	-9.15077
 444	1	3	0.062504	0.701945	9.87422	-10.9574
 445	1	5	-0.583019	0.703201	8.54261	-7.98355
 446	1	1	-0.168764	0.105515	9.44874	-10.1412
 447	1	3	0.062846	-0.613391	8.737	-10.5631
 448	1	4	-0.264747	2.15443	8.29977	-9.75079
 449	1	3	0.073216	-0.4328	10.2576	-9.63507
 450	1	1	-0.015836	2.53904	6.21582	-8.47178
 451	1	1	0.044531	3.15136	7.55086	-9.01068
 452	1	1	0.341309	4.37583	7.33362	-9.93979
 453	1	1	0.132892	5.38336	6.25943	-9.41589
 454	1	6	-0.74435	5.05388	8.57806	-10.1474
 455	1	7	-0.00272	3.98248	6.98921	-10.9053
 456	1	1	-0.008403	4.86161	5.57335	-8.12614
 457	1	4	-0.239698	3.51677	5.15896	-8.40703
 458	1	7	0.089672	5.84447	3.66328	-8.5311
 459	1	7	0.088396	6.65945	4.6535	-7.30085
 460	1	7	0.05623	4.86712	6.30816	-7.31061
 461	1	7	0.125955	3.491	8.14756	-8.15382
 462	1	8	0.456798	5.71537	8.42355	-10.8495
 463	1	9	0.198085	-1.02815	6.38109	-9.03472
 464	1	7	0.095469	-1.40772	4.31163	-6.82633
 465	1	1	-0.308877	-1.52338	5.47182	-8.67168
 466	1	8	0.426958	-0.611962	2.64438	-8.47857
 467	1	6	-0.128067	-2.8944	5.74094	-8.31496
 468	1	1	0.005701	-0.737957	4.92299	-7.44556
 469	1	7	0.239394	-0.16098	3.2133	-10.6743
 470	1	5	-0.48496	0.330467	4.84187	-4.8349
 471	1	1	-0.003409	0.989869	4.41727	-9.27425
 472	1	2	0.352525	0.178368	5.9078	-5.40549
 473	1	6	-0.665659	0.128226	2.69385	-7.84141
 474	1	1	-0.510331	-0.166076	4.2552	-10.3205
 475	1	1	0.240953	0.500393	4.06799	-7.84626
 476	1	4	0.015262	-1.46869	4.50295	-9.73049
 477	1	4	0.176506	-0.310042	6.06334	-6.67427
 478	1	3	0.090205	-0.0906145	7.37987	-3.85978
 479	1	1	-0.197476	0.530713	7.23735	-4.75147
 480	1	1	-0.039041	0.0239969	5.13552	-11.5799
 481	1	7	0.144117	-0.082863	6.20592	-11.3489
 482	1	3	0.104606	0.354691	8.07462	-5.437
 483	1	7	0.111943	1.32043	4.21087	-7.1292
 484	1	7	0.160853	1.03649	4.98372	-11.9858
 485	1	3	0.069306	1.58725	7.23606	-4.4583
 486	1	4	-0.432857	-0.944537	4.69441	-12.5476
 487	1	3	0.042395	-3.11192	3.53837	-13.3848
 488	1	2	0.753764	-2.15582	5.32067	-12.6474
 489	1	1	-0.122098	-3.06456	4.60499	-13.6341
 490	1	3	0.030493	-2.66959	4.71231	-14.6512
 491	1	5	-0.562583	-2.46192	6.36174	-12.0817
 492	1	3	0.048272	-4.07526	5.02739	-13.5886
 493	1	4	-0.191545	1.4607	5.78673	-9.33419
 494	1	9	0.130627	2.14696	6.40154	-7.46508
 495	1	3	0.015236	6.34805	6.72892	-9.17832
 496	1	7	0.210365	1.82045	3.73962	-9.52467
 497	1	1	-0.218842	14.783	6.26498	-16.2735
 498	1	2	0.68591	13.6558	6.08415	-17.2734
 499	1	3	0.086668	15.6497	6.71237	-16.7728
 500	1	3	0.071846	15.0688	5.29562	-15.8497
 501	1	3	0.062371	14.4475	6.923	-15.4644
 502	1	4	-0.291145	12.7605	5.13974	-16.8612
 503	1	1	-0.015993	11.6268	4.83915	-17.699
 504	1	5	-0.555985	13.6131	6.66474	-18.3437
 505	1	2	0.652223	5.92573	4.61789	-18.3883
 506	1	3	0.062504	5.35695	3.06133	-19.7645
 507	1	5	-0.583019	5.05834	5.46616	-18.4875
 508	1	1	-0.168764	5.71535	3.15201	-18.7336
 509	1	3	0.062846	6.65332	2.59273	-18.6303
 510	1	4	-0.264747	7.165	4.83344	-17.8708
 511	1	3	0.073216	4.97474	2.72291	-18.0491
 512	1	1	-0.015836	8.41451	5.92276	-16.1385
 513	1	1	0.044531	7.53995	6.14318	-17.3837
 514	1	1	0.341309	8.31692	6.93156	-18.4637
 515	1	1	0.132892	9.77405	6.421	-18.6784
 516	1	6	-0.74435	8.33026	8.32958	-18.1528
 517	1	7	-0.00272	7.76096	6.82279	-19.4033
 518	1	1	-0.008403	10.4785	5.84099	-17.4073
 519	1	4	-0.239698	9.55717	5.15586	-16.5411
 520	1	7	0.089672	11.2778	3.82029	-17.4873
 521	1	7	0.088396	11.9318	4.87259	-18.7498
 522	1	7	0.05623	10.8925	6.69421	-16.8545
 523	1	7	0.125955	6.65641	6.73497	-17.1163
 524	1	8	0.456798	8.7341	8.7814	-18.9348
 525	1	9	0.198085	7.5718	5.44873	-10.9518
 526	1	7	0.095469	5.8549	3.44862	-11.962
 527	1	1	-0.308877	6.58602	5.44322	-11.4353
 528	1	8	0.426958	4.60235	5.76811	-12.8539
 529	1	6	-0.128067	5.57983	5.26075	-10.432
 530	1	1	0.005701	6.47584	4.23292	-12.4169
 531	1	7	0.239394	6.79576	7.85095	-13.7809
 532	1	5	-0.48496	7.034	1.74198	-13.5773
 533	1	1	-0.003409	6.62217	5.78772	-14.4248
 534	1	2	0.352525	7.94862	2.46282	-13.2179
 535	1	6	-0.665659	4.50066	5.07376	-13.5351
 536	1	1	-0.510331	7.0938	6.8697	-13.3777
 537	1	1	0.240953	5.83405	4.6291	-13.77
 538	1	4	0.015262	6.39597	6.69624	-12.13
 539	1	4	0.176506	7.7989	3.69174	-12.632
 540	1	3	0.090205	9.47715	0.965568	-13.4728
 541	1	1	-0.197476	9.41093	2.05227	-13.3331
 542	1	1	-0.039041	8.61429	6.96272	-13.0803
 543	1	7	0.144117	8.80682	7.17782	-12.0189
 544	1	3	0.104606	9.95825	2.31967	-12.4219
 545	1	7	0.111943	5.80966	3.76584	-14.4509
 546	1	7	0.160853	9.14188	6.03094	-13.3371
 547	1	3	0.069306	9.87353	2.55587	-14.1904
 548	1	4	-0.432857	9.09236	8.05752	-13.877
 549	1	3	0.042395	10.2692	9.01553	-16.0452
 550	1	2	0.753764	10.4357	8.22713	-14.0514
 551	1	1	-0.122098	10.7186	9.30429	-15.0871
 552	1	3	0.030493	11.7993	9.43173	-15.2208
 553	1	5	-0.562583	11.2927	7.54402	-13.5171
 554	1	3	0.048272	10.2748	10.2536	-14.7667
 555	1	4	-0.191545	7.72617	5.16807	-15.121
 556	1	9	0.130627	8.73156	6.8936	-15.7562
 557	1	3	0.015236	10.3777	7.30287	-18.9179
 558	1	7	0.210365	5.93295	6.23834	-15.1543
 559	1	1	-0.218842	10.221	0.383212	-26.0539
 560	1	2	0.68591	10.2555	-0.562344	-24.8666
 561	1	3	0.086668	11.073	1.07118	-26.0047
 562	1	3	0.071846	9.29829	0.970368	-26.013
 563	1	3	0.062371	10.2553	-0.173954	-26.996
 564	1	4	-0.291145	10.3841	0.14593	-23.714
 565	1	1	-0.015993	10.3947	-0.475848	-22.4086
 566	1	5	-0.555985	10.2161	-1.77631	-24.9468
 567	1	2	0.652223	14.9619	3.24107	-24.1659
 568	1	3	0.062504	16.1794	4.05229	-25.7398
 569	1	5	-0.583019	15.3799	3.87001	-23.204
 570	1	1	-0.168764	15.1484	3.70809	-25.5992
 571	1	3	0.062846	14.9493	2.88682	-26.2977
 572	1	4	-0.264747	14.2283	2.08656	-24.1002
 573	1	3	0.073216	14.4569	4.53143	-25.809
 574	1	1	-0.015836	12.8972	2.21995	-21.9726
 575	1	1	0.044531	13.9825	1.46339	-22.8131
 576	1	1	0.341309	13.624	-0.0286147	-23.0512
 577	1	1	0.132892	12.9156	-0.609252	-21.8034
 578	1	6	-0.74435	14.8112	-0.770345	-23.3499
 579	1	7	-0.00272	12.9407	-0.0992231	-23.9052
 580	1	1	-0.008403	11.5613	0.125777	-21.5759
 581	1	4	-0.239698	11.6384	1.51879	-21.9702
 582	1	7	0.089672	10.4953	-1.56783	-22.4774
 583	1	7	0.088396	9.44036	-0.2604	-21.9108
 584	1	7	0.05623	11.2952	0.0601268	-20.5135
 585	1	7	0.125955	14.9162	1.46993	-22.2355
 586	1	8	0.456798	14.5913	-1.72024	-23.2924
 587	1	9	0.198085	9.0864	6.99869	-21.0911
 588	1	7	0.095469	11.7828	7.06901	-20.4685
 589	1	1	-0.308877	9.85094	6.21304	-21.0991
 590	1	8	0.426958	14.076	5.33218	-22.2139
 591	1	6	-0.128067	9.81263	5.54569	-19.82
 592	1	1	0.005701	11.2637	6.82779	-21.4048
 593	1	7	0.239394	9.87509	3.3164	-21.7849
 594	1	5	-0.48496	9.81521	9.1877	-20.6454
 595	1	1	-0.003409	11.7665	4.40827	-21.8789
 596	1	2	0.352525	10.4151	9.12003	-21.7098
 597	1	6	-0.665659	13.5451	6.08045	-21.846
 598	1	1	-0.510331	10.3045	4.14671	-22.362
 599	1	1	0.240953	12.1792	5.85869	-22.1968
 600	1	4	0.015262	9.49339	5.32377	-22.1682
 601	1	4	0.176506	11.1284	8.04115	-22.1754
 602	1	3	0.090205	10.9616	11.1154	-22.3171
 603	1	1	-0.197476	10.4026	10.2625	-22.7197
 604	1	1	-0.039041	10.2019	3.80974	-23.8672
 605	1	7	0.144117	10.5669	4.6498	-24.4763
 606	1	3	0.104606	9.3683	10.5719	-22.9126
 607	1	7	0.111943	12.0312	6.02136	-23.2732
 608	1	7	0.160853	10.8026	2.92229	-24.1198
 609	1	3	0.069306	10.8607	9.9571	-23.6689
 610	1	4	-0.432857	8.80945	3.56116	-24.1256
 611	1	3	0.042395	6.54824	3.05588	-26.4803
 612	1	2	0.753764	8.34678	3.58914	-25.4082
 613	1	1	-0.122098	6.85091	3.31665	-25.4596
 614	1	3	0.030493	6.30123	4.20777	-25.1337
 615	1	5	-0.562583	9.04118	3.78286	-26.3921
 616	1	3	0.048272	6.60269	2.48676	-24.7877
 617	1	4	-0.191545	12.6832	3.52877	-22.5388
 618	1	9	0.130627	13.2459	2.31813	-20.9374
 619	1	3	0.015236	12.7401	-1.68458	-21.9417
 620	1	7	0.210365	11.841	4.27872	-20.7934
 621	1	1	-0.218842	10.9759	-2.35762	-9.41535
 622	1	2	0.68591	11.188	-2.18062	-10.9096
 623	1	3	0.086668	10.0795	-1.81211	-9.09978
 624	1	3	0.071846	11.8465	-1.96987	-8.87415
 625	1	3	0.062371	10.8544	-3.42048	-9.17624
 626	1	4	-0.291145	12.0842	-3.09167	-11.389
 627	1	1	-0.015993	12.4581	-3.0612	-12.783
 628	1	5	-0.555985	10.6817	-1.2847	-11.5626