pySIMM System Object

3040 atoms
3137 bonds
5782 angles
8033 dihedrals
196 impropers

9 atom types
10 bond types
23 angle types
20 dihedral types
1 improper types

-214.112155 214.112155 xlo xhi
-214.112155 214.112155 ylo yhi
-214.112155 214.112155 zlo zhi

Masses

   1	12.01	# c3
   2	12.01	# c
   3	1.008	# hc
   4	16.0	# os
   5	16.0	# o
   6	16.0	# oh
   7	1.008	# h1
   8	1.008	# ho
   9	1.008	# h2

Pair Coeffs

   1	0.1094	3.3996695084235347	# c3
   2	0.086	3.3996695084235347	# c
   3	0.0157	2.649532787749369	# hc
   4	0.17	3.0000123434657784	# os
   5	0.21	2.959921901149463	# o
   6	0.2104	3.0664733878390478	# oh
   7	0.0157	2.471353044121301	# h1
   8	0.0047	0.5379246460131368	# ho
   9	0.0157	2.2931733004932333	# h2

Bond Coeffs

   1	331.7	1.0961	# c3,h2
   2	637.7	1.2183	# c,o
   3	300.9	1.5375	# c3,c3
   4	330.6	1.0969	# c3,hc
   5	316.7	1.4233	# c3,oh
   6	330.6	1.0969	# c3,h1
   7	371.4	0.973	# ho,oh
   8	308.6	1.4316	# c3,os
   9	313.0	1.5241	# c,c3
  10	390.8	1.3584	# c,os

Angle Coeffs

   1	46.93	108.77	# c,c3,hc
   2	67.4	123.2	# c3,c,o
   3	68.0	107.97	# c3,c3,os
   4	46.39	109.56	# c3,c3,h1
   5	46.25	110.22	# c3,c3,h2
   6	62.86	111.51	# c3,c3,c3
   7	68.89	110.72	# c3,c,os
   8	72.58	109.38	# oh,c3,os
   9	75.32	123.25	# o,c,os
  10	67.47	110.19	# c3,c3,oh
  11	46.34	109.8	# c3,c3,hc
  12	47.38	107.26	# c3,oh,ho
  13	39.24	108.46	# h1,c3,h1
  14	50.85	109.58	# h2,c3,os
  15	72.74	108.29	# os,c3,os
  16	50.8	109.78	# h1,c3,os
  17	63.28	115.98	# c,os,c3
  18	62.7	112.48	# c3,os,c3
  19	50.93	110.26	# h1,c3,oh
  20	39.4	107.58	# hc,c3,hc
  21	51.13	109.43	# h2,c3,oh
  22	51.11	109.5	# hc,c3,oh
  23	62.7	112.48	# c3,oh,c3

Dihedral Coeffs

   1	3	0.18	3	0	0.25	2	180	0.2	1	180	# c3,c3,c3,c3
   2	1	0.3833333333333333	3	0	# X,c3,os,X
   3	2	0.144	3	0	1.175	2	0	# os,c3,c3,oh
   4	3	0.1	3	0	0.85	2	180	1.35	1	180	# c3,os,c3,os
   5	2	0.144	3	0	1.175	2	0	# os,c3,c3,os
   6	3	2.7	2	180	0.0	1	0	1.15	3	0	# c3,c,os,c3
   7	2	0.0	3	0	0.25	1	0	# hc,c3,c3,oh
   8	1	0.16	3	0	# hc,c3,c3,c3
   9	1	0.15555555555555556	3	0	# X,c3,c3,X
  10	2	0.16	3	0	0.25	1	0	# ho,oh,c3,c3
  11	2	0.383	3	0	0.8	1	180	# c3,c3,os,c
  12	1	0.0	2	180	# X,c,c3,X
  13	2	2.7	2	180	1.4	1	180	# o,c,os,c3
  14	2	0.0	3	0	0.25	1	0	# hc,c3,c3,os
  15	2	0.0	3	0	0.25	1	0	# h1,c3,c3,oh
  16	1	0.16666666666666666	3	0	# X,c3,oh,X
  17	3	0.8	1	0	0.0	2	0	0.08	3	180	# hc,c3,c,o
  18	2	0.0	3	0	0.25	1	0	# h1,c3,c3,os
  19	2	0.383	3	0	0.1	2	180	# c3,c3,os,c3
  20	2	0.144	3	0	1.175	2	0	# oh,c3,c3,oh

Improper Coeffs

   1	10.5	-1	2	# c,X,X,o

Atoms

   1	1	1	-0.218842	13.4141	5.54541	2.52636
   2	1	2	0.68591	14.2636	6.79371	2.37146
   3	1	3	0.086668	13.5023	4.92614	1.62754
   4	1	3	0.071846	12.3655	5.82438	2.67795
   5	1	3	0.062371	13.7643	4.97128	3.3921
   6	1	4	-0.291145	15.5666	6.47624	2.11728
   7	1	1	-0.015993	16.5384	7.53345	1.97576
   8	1	5	-0.555985	13.8171	7.92584	2.45181
   9	1	2	0.652223	22.6447	6.03303	4.37366
  10	1	3	0.062504	23.1611	5.21814	6.29842
  11	1	5	-0.583019	23.0812	5.9736	3.23627
  12	1	1	-0.168764	23.5141	6.00221	5.61852
  13	1	3	0.062846	24.5567	5.80378	5.3451
  14	1	4	-0.264747	21.3262	6.14224	4.69454
  15	1	3	0.073216	23.4493	6.96789	6.13291
  16	1	1	-0.015836	18.958	6.25298	4.48905
  17	1	1	0.044531	20.2796	6.22262	3.69433
  18	1	1	0.341309	20.4315	7.48173	2.79929
  19	1	1	0.132892	19.0681	8.0398	2.26241
  20	1	6	-0.74435	21.3075	7.21031	1.70103
  21	1	7	-0.00272	20.9129	8.24211	3.42366
  22	1	1	-0.008403	17.942	6.9594	2.29163
  23	1	4	-0.239698	17.8494	6.26749	3.56883
  24	1	7	0.089672	16.3108	8.35017	2.67273
  25	1	7	0.088396	16.5113	7.94305	0.9579
  26	1	7	0.05623	18.1876	6.21702	1.52076
  27	1	7	0.125955	20.2912	5.32928	3.05449
  28	1	8	0.456798	22.1139	6.77369	2.09851
  29	1	9	0.198085	17.0224	7.97838	9.45997
  30	1	7	0.095469	19.3783	7.78624	9.70875
  31	1	1	-0.308877	17.5678	8.82147	9.01657
  32	1	8	0.426958	21.3227	7.43988	8.23244
  33	1	6	-0.128067	17.2388	10.023	9.73821
  34	1	1	0.005701	19.1009	8.51413	8.93198
  35	1	7	0.239394	16.3619	7.19617	7.26964
  36	1	5	-0.48496	21.9105	8.78687	9.27613
  37	1	1	-0.003409	18.4556	7.30929	6.66872
  38	1	2	0.352525	21.1775	9.76687	9.29554
  39	1	6	-0.665659	20.6008	6.98139	7.7295
  40	1	1	-0.510331	17.0349	7.94519	6.83188
  41	1	1	0.240953	19.5653	7.95187	7.54197
  42	1	4	0.015262	17.0946	9.08332	7.6898
  43	1	4	0.176506	19.8172	9.74527	9.17003
  44	1	3	0.090205	21.589	11.7398	8.54385
  45	1	1	-0.197476	21.693	11.1827	9.483
  46	1	1	-0.039041	16.4026	8.44809	5.51589
  47	1	7	0.144117	17.0107	9.24425	5.07222
  48	1	3	0.104606	22.7476	11.157	9.77433
  49	1	7	0.111943	19.9508	8.80285	6.96255
  50	1	7	0.160853	16.3574	7.62799	4.79476
  51	1	3	0.069306	21.1103	11.6897	10.261
  52	1	4	-0.432857	15.0722	8.92132	5.78377
  53	1	3	0.042395	12.8066	9.33001	7.08157
  54	1	2	0.753764	14.0424	8.02952	5.89103
  55	1	1	-0.122098	12.7265	8.74287	6.15965
  56	1	3	0.030493	11.9133	8.01478	6.26408
  57	1	5	-0.562583	14.1455	6.81772	5.78144
  58	1	3	0.048272	12.5	9.41947	5.32759
  59	1	4	-0.191545	18.9168	7.45069	5.30147
  60	1	9	0.130627	18.8961	5.35744	5.1185
  61	1	3	0.015236	19.2063	8.31483	1.2076
  62	1	7	0.210365	18.4097	6.24713	6.94566
  63	1	1	-0.218842	19.9928	18.6309	-1.86003
  64	1	2	0.68591	21.3422	18.323	-1.23716
  65	1	3	0.086668	19.2755	17.8492	-1.58919
  66	1	3	0.071846	20.087	18.6824	-2.95017
  67	1	3	0.062371	19.6294	19.5938	-1.48197
  68	1	4	-0.291145	21.2294	18.1409	0.112476
  69	1	1	-0.015993	22.4012	17.8613	0.900674
  70	1	5	-0.555985	22.3745	18.2332	-1.88301
  71	1	2	0.652223	24.779	13.7536	4.26797
  72	1	3	0.062504	26.5962	14.4514	5.18068
  73	1	5	-0.583019	24.308	12.6352	4.37808
  74	1	1	-0.168764	25.522	14.4481	5.39321
  75	1	3	0.062846	25.1745	15.4796	5.50083
  76	1	4	-0.264747	24.7575	14.5017	3.12567
  77	1	3	0.073216	25.35	13.9175	6.33701
  78	1	1	-0.015836	22.5532	14.2981	2.00573
  79	1	1	0.044531	24.0747	13.9909	1.94922
  80	1	1	0.341309	24.6996	14.6508	0.696572
  81	1	1	0.132892	24.2911	16.1502	0.578248
  82	1	6	-0.74435	24.3039	13.905	-0.457767
  83	1	7	-0.00272	25.7911	14.5904	0.790815
  84	1	1	-0.008403	22.772	16.3645	0.787861
  85	1	4	-0.239698	22.3702	15.7233	2.01631
  86	1	7	0.089672	22.2036	18.1072	1.95193
  87	1	7	0.088396	23.2305	18.4976	0.563657
  88	1	7	0.05623	22.2328	15.9142	-0.0565499
  89	1	7	0.125955	24.228	12.9076	1.85769
  90	1	8	0.456798	24.765	14.3443	-1.20366
  91	1	9	0.198085	20.5217	10.0285	2.44927
  92	1	7	0.095469	20.175	9.94231	4.98222
  93	1	1	-0.308877	19.5871	10.3404	2.93297
  94	1	8	0.426958	22.9082	11.8579	4.80703
  95	1	6	-0.128067	18.6558	9.25059	2.93263
  96	1	1	0.005701	19.8551	10.8036	4.383
  97	1	7	0.239394	20.4049	12.4961	1.03056
  98	1	5	-0.48496	19.3812	11.6138	7.06403
  99	1	1	-0.003409	21.2984	12.4457	3.01645
 100	1	2	0.352525	18.4857	11.6458	6.23567
 101	1	6	-0.665659	22.1123	11.2892	5.01254
 102	1	1	-0.510331	20.0444	12.5655	2.06638
 103	1	1	0.240953	20.9565	11.8961	4.43048
 104	1	4	0.015262	19.0896	11.4892	2.23771
 105	1	4	0.176506	18.6104	11.3068	4.9178
 106	1	3	0.090205	17.0281	12.4712	7.59778
 107	1	1	-0.197476	17.0717	12.1056	6.56508
 108	1	1	-0.039041	19.2526	13.8944	2.19452
 109	1	7	0.144117	19.8551	14.7254	1.79523
 110	1	3	0.104606	16.3717	11.2688	6.4597
 111	1	7	0.111943	20.6183	12.7364	5.0516
 112	1	7	0.160853	18.3264	13.8547	1.60008
 113	1	3	0.069306	16.7608	12.9018	5.88092
 114	1	4	-0.432857	18.9445	14.14	3.58271
 115	1	3	0.042395	17.2197	15.1893	5.63882
 116	1	2	0.753764	18.5215	15.3926	3.93714
 117	1	1	-0.122098	18.2495	15.4976	5.43056
 118	1	3	0.030493	18.3846	16.5335	5.765
 119	1	5	-0.562583	18.4305	16.337	3.17109
 120	1	3	0.048272	18.9366	14.8494	5.98726
 121	1	4	-0.191545	21.9242	13.7407	3.17668
 122	1	9	0.130627	22.0743	13.8981	1.10254
 123	1	3	0.015236	24.8119	16.7004	1.36613
 124	1	7	0.210365	22.0196	11.7401	2.57911
 125	1	1	-0.218842	30.5007	13.6913	2.00189
 126	1	2	0.68591	31.5147	14.8124	1.87216
 127	1	3	0.086668	29.738	13.807	1.22617
 128	1	3	0.071846	30.0252	13.7256	2.98846
 129	1	3	0.062371	30.9966	12.7228	1.87024
 130	1	4	-0.291145	32.238	14.6911	0.723132
 131	1	1	-0.015993	33.227	15.6723	0.331897
 132	1	5	-0.555985	31.6658	15.6725	2.72328
 133	1	2	0.652223	32.934	15.5556	-4.69697
 134	1	3	0.062504	33.3698	13.8937	-5.9986
 135	1	5	-0.583019	33.7922	16.291	-5.16005
 136	1	1	-0.168764	32.6819	14.1382	-5.18095
 137	1	3	0.062846	32.8342	13.433	-4.35587
 138	1	4	-0.264747	32.1148	15.8854	-3.65689
 139	1	3	0.073216	31.6493	14.0481	-5.5364
 140	1	1	-0.015836	31.071	17.4102	-2.04623
 141	1	1	0.044531	32.2208	17.2028	-3.06167
 142	1	1	0.341309	33.6189	17.3579	-2.39381
 143	1	1	0.132892	33.5007	17.92	-0.953349
 144	1	6	-0.74435	34.4518	18.1655	-3.22925
 145	1	7	-0.00272	34.0799	16.3656	-2.32193
 146	1	1	-0.008403	32.5617	17.0117	-0.0979012
 147	1	4	-0.239698	31.3581	16.6723	-0.838504
 148	1	7	0.089672	33.8031	15.2631	-0.505821
 149	1	7	0.088396	33.9312	15.8545	1.15242
 150	1	7	0.05623	32.29	17.5714	0.800406
 151	1	7	0.125955	32.1121	17.9698	-3.84066
 152	1	8	0.456798	34.4815	17.6733	-4.09387
 153	1	9	0.198085	26.4917	17.3447	0.0454059
 154	1	7	0.095469	26.1936	19.0854	-1.43397
 155	1	1	-0.308877	26.0442	17.0015	-0.895575
 156	1	8	0.426958	27.4581	19.8152	-3.39699
 157	1	6	-0.128067	24.6619	16.7108	-0.69077
 158	1	1	0.005701	26.2569	18.1208	-1.95381
 159	1	7	0.239394	28.3579	15.9346	-0.0717597
 160	1	5	-0.48496	25.8061	19.974	-4.05667
 161	1	1	-0.003409	28.6805	17.2482	-1.78098
 162	1	2	0.352525	25.0646	19.0176	-3.90502
 163	1	6	-0.665659	28.1632	19.3201	-2.90422
 164	1	1	-0.510331	28.1402	15.9196	-1.14657
 165	1	1	0.240953	27.6491	18.0115	-2.64769
 166	1	4	0.015262	26.7234	15.8292	-1.34532
 167	1	4	0.176506	25.2067	18.0432	-2.94974
 168	1	3	0.090205	23.953	19.3814	-5.71675
 169	1	1	-0.197476	23.8707	18.7623	-4.8152
 170	1	1	-0.039041	28.7457	14.6251	-1.72474
 171	1	7	0.144117	28.4678	14.5031	-2.78265
 172	1	3	0.104606	22.9457	19.0258	-4.2899
 173	1	7	0.111943	27.5356	17.4498	-3.58532
 174	1	7	0.160853	29.8466	14.6404	-1.66646
 175	1	3	0.069306	23.8262	17.7063	-5.10531
 176	1	4	-0.432857	28.2133	13.5558	-0.921665
 177	1	3	0.042395	28.1011	11.5265	0.750614
 178	1	2	0.753764	28.5613	12.2704	-1.21938
 179	1	1	-0.122098	27.8687	11.2834	-0.292499
 180	1	3	0.030493	28.2014	10.261	-0.508164
 181	1	5	-0.562583	29.3591	11.9526	-2.08464
 182	1	3	0.048272	26.7834	11.347	-0.434756
 183	1	4	-0.191545	29.8244	16.9793	-2.61515
 184	1	9	0.130627	30.988	18.4821	-1.81482
 185	1	3	0.015236	33.0368	18.9113	-1.02868
 186	1	7	0.210365	28.9546	17.9446	-0.980101
 187	1	1	-0.218842	40.6254	19.0022	-3.23022
 188	1	2	0.68591	41.2019	20.1287	-2.39288
 189	1	3	0.086668	40.8937	19.1495	-4.28155
 190	1	3	0.071846	39.5331	19.0014	-3.13971
 191	1	3	0.062371	41.0161	18.0384	-2.88463
 192	1	4	-0.291145	40.7789	21.3491	-2.84036
 193	1	1	-0.015993	41.1554	22.5648	-2.15202
 194	1	5	-0.555985	41.9844	19.9508	-1.47287
 195	1	2	0.652223	36.9194	26.0917	0.519152
 196	1	3	0.062504	34.8303	25.8867	0.0479925
 197	1	5	-0.583019	37.5819	26.7997	1.25897
 198	1	1	-0.168764	35.6592	26.5663	-0.181383
 199	1	3	0.062846	35.4001	27.5765	0.15528
 200	1	4	-0.264747	37.2419	24.8148	0.163368
 201	1	3	0.073216	35.8194	26.5753	-1.26484
 202	1	1	-0.015836	38.3187	22.6449	0.269518
 203	1	1	0.044531	38.3713	24.1155	0.755408
 204	1	1	0.341309	39.7081	24.8067	0.344204
 205	1	1	0.132892	40.9073	23.8326	0.109754
 206	1	6	-0.74435	40.0517	25.8578	1.24924
 207	1	7	-0.00272	39.5194	25.2708	-0.632657
 208	1	1	-0.008403	40.5056	22.5855	-0.74861
 209	1	4	-0.239698	39.0768	22.5345	-0.944481
 210	1	7	0.089672	40.8127	23.4361	-2.72506
 211	1	7	0.088396	42.2484	22.6222	-2.05912
 212	1	7	0.05623	40.8204	21.6791	-0.225719
 213	1	7	0.125955	38.2914	24.1205	1.84663
 214	1	8	0.456798	39.2124	26.3892	1.35822
 215	1	9	0.198085	34.4748	18.7993	1.52533
 216	1	7	0.095469	36.9429	18.2502	1.27225
 217	1	1	-0.308877	35.0195	19.071	0.610178
 218	1	8	0.426958	36.4832	18.6307	-1.50771
 219	1	6	-0.128067	34.8085	18.0352	-0.366365
 220	1	1	0.005701	36.5279	19.2147	0.952347
 221	1	7	0.239394	35.0029	20.248	-1.85913
 222	1	5	-0.48496	38.8075	20.0261	2.50924
 223	1	1	-0.003409	36.7138	21.0753	-0.79574
 224	1	2	0.352525	37.6952	20.4915	2.71177
 225	1	6	-0.665659	37.4251	18.8207	-1.28902
 226	1	1	-0.510331	35.177	20.919	-1.00423
 227	1	1	0.240953	37.3572	19.7809	-0.236402
 228	1	4	0.015262	34.5514	20.3684	0.171604
 229	1	4	0.176506	36.5542	20.1456	2.04997
 230	1	3	0.090205	36.3904	22.0001	3.57051
 231	1	1	-0.197476	37.4159	21.6312	3.68182
 232	1	1	-0.039041	34.4842	22.2562	-1.3212
 233	1	7	0.144117	33.408	22.1068	-1.49312
 234	1	3	0.104606	38.081	22.4671	3.47739
 235	1	7	0.111943	38.3827	19.9925	0.0896878
 236	1	7	0.160853	34.6062	22.9608	-0.483391
 237	1	3	0.069306	37.5594	21.3035	4.71403
 238	1	4	-0.432857	35.1122	22.7676	-2.50808
 239	1	3	0.042395	35.2791	25.4102	-4.51035
 240	1	2	0.753764	34.7801	24.0187	-2.93652
 241	1	1	-0.122098	35.5569	24.4	-4.18747
 242	1	3	0.030493	35.3358	23.6898	-4.99301
 243	1	5	-0.562583	33.992	24.758	-2.37183
 244	1	3	0.048272	36.6318	24.3695	-3.97579
 245	1	4	-0.191545	36.9535	22.1985	0.0904492
 246	1	9	0.130627	38.7845	22.0085	1.02198
 247	1	3	0.015236	41.629	24.4102	-0.481806
 248	1	7	0.210365	37.1714	21.2897	-1.77278
 249	1	1	-0.218842	38.4834	21.1629	11.9362
 250	1	2	0.68591	37.8402	20.3243	10.8465
 251	1	3	0.086668	38.8116	20.514	12.7558
 252	1	3	0.071846	37.758	21.8907	12.3163
 253	1	3	0.062371	39.3472	21.7002	11.5287
 254	1	4	-0.291145	37.4472	21.0996	9.79337
 255	1	1	-0.015993	36.8271	20.4994	8.63561
 256	1	5	-0.555985	37.6993	19.1166	10.9269
 257	1	2	0.652223	41.0667	16.9678	4.84583
 258	1	3	0.062504	43.0237	17.3983	4.0634
 259	1	5	-0.583019	40.5643	15.9847	5.36405
 260	1	1	-0.168764	42.1008	16.9064	3.73564
 261	1	3	0.062846	42.3179	15.862	3.4837
 262	1	4	-0.264747	40.7373	18.2492	5.16044
 263	1	3	0.073216	41.718	17.422	2.84777
 264	1	1	-0.015836	39.9446	20.0799	6.52666
 265	1	1	0.044531	39.7606	18.5693	6.18211
 266	1	1	0.341309	38.3087	18.261	5.71721
 267	1	1	0.132892	37.2354	18.8071	6.71425
 268	1	6	-0.74435	38.0855	16.8549	5.54144
 269	1	7	-0.00272	38.185	18.759	4.75096
 270	1	1	-0.008403	37.8724	19.6842	7.83045
 271	1	4	-0.239698	38.7927	20.6129	7.22156
 272	1	7	0.089672	36.4059	21.2865	7.99656
 273	1	7	0.088396	36.0021	19.8452	8.94915
 274	1	7	0.05623	38.417	19.024	8.51675
 275	1	7	0.125955	39.9679	17.9835	7.0873
 276	1	8	0.456798	38.9844	16.4193	5.48181
 277	1	9	0.198085	40.5294	21.7383	1.72693
 278	1	7	0.095469	43.2021	22.3779	3.046
 279	1	1	-0.308877	41.1873	22.4547	2.22348
 280	1	8	0.426958	43.9597	20.27	3.96406
 281	1	6	-0.128067	41.6307	23.4823	1.31931
 282	1	1	0.005701	42.4222	21.6666	2.74338
 283	1	7	0.239394	41.8873	23.6131	4.62741
 284	1	5	-0.48496	44.942	20.4355	2.57434
 285	1	1	-0.003409	41.2734	21.5493	5.03764
 286	1	2	0.352525	44.1376	20.3007	1.66681
 287	1	6	-0.665659	43.1759	20.1588	4.56737
 288	1	1	-0.510331	40.962	23.0193	4.62643
 289	1	1	0.240953	42.036	20.7624	3.94416
 290	1	4	0.015262	40.4162	23.0415	3.29461
 291	1	4	0.176506	42.8819	20.8486	1.64064
 292	1	3	0.090205	45.4124	18.9776	0.535257
 293	1	1	-0.197476	44.4333	19.4605	0.433421
 294	1	1	-0.039041	39.9708	23.6882	5.60597
 295	1	7	0.144117	38.9672	23.2453	5.52898
 296	1	3	0.104606	44.4417	20.0983	-0.458094
 297	1	7	0.111943	41.3584	19.9918	3.55253
 298	1	7	0.160853	40.3108	23.5341	6.63992
 299	1	3	0.069306	43.6647	18.6885	0.307485
 300	1	4	-0.432857	39.9646	25.0964	5.31504
 301	1	3	0.042395	38.4063	27.5615	3.74574
 302	1	2	0.753764	39.0357	25.6218	4.45833
 303	1	1	-0.122098	39.2536	27.1166	4.27964
 304	1	3	0.030493	40.1733	27.2911	3.70896
 305	1	5	-0.562583	38.0455	25.0301	4.05728
 306	1	3	0.048272	39.3524	27.5963	5.25986
 307	1	4	-0.191545	40.0291	20.8643	5.31586
 308	1	9	0.130627	40.8424	20.2123	7.14274
 309	1	3	0.015236	36.7607	17.9584	7.22479
 310	1	7	0.210365	41.9034	21.5704	5.93769
 311	1	1	-0.218842	27.6758	18.6159	8.08015
 312	1	2	0.68591	27.7124	17.5218	7.03126
 313	1	3	0.086668	27.3994	18.1898	9.05057
 314	1	3	0.071846	26.9422	19.3781	7.79704
 315	1	3	0.062371	28.6626	19.0867	8.15868
 316	1	4	-0.291145	28.1407	17.986	5.82378
 317	1	1	-0.015993	28.3075	17.0441	4.74287
 318	1	5	-0.555985	27.3366	16.3767	7.23246
 319	1	2	0.652223	30.5548	21.6442	0.388078
 320	1	3	0.062504	31.2537	23.473	-0.516163
 321	1	5	-0.583019	29.9488	21.2436	-0.589425
 322	1	1	-0.168764	31.2539	22.9902	0.468503
 323	1	3	0.062846	30.7359	23.6336	1.18841
 324	1	4	-0.264747	30.6816	20.9367	1.54332
 325	1	3	0.073216	32.2887	22.85	0.80084
 326	1	1	-0.015836	30.843	18.8717	2.83153
 327	1	1	0.044531	30.1326	19.596	1.65177
 328	1	1	0.341309	28.5715	19.6793	1.76503
 329	1	1	0.132892	27.8708	18.5664	2.61865
 330	1	6	-0.74435	28.011	19.6744	0.447624
 331	1	7	-0.00272	28.3411	20.6438	2.23641
 332	1	1	-0.008403	28.867	17.7513	3.48801
 333	1	4	-0.239698	29.9273	18.6179	3.89854
 334	1	7	0.089672	27.3566	16.5559	4.50253
 335	1	7	0.088396	29.0199	16.2665	5.0515
 336	1	7	0.05623	29.2795	16.9583	2.85008
 337	1	7	0.125955	30.3771	19.0306	0.74365
 338	1	8	0.456798	28.5274	20.3391	-0.0950132
 339	1	9	0.198085	36.2104	18.5693	4.21273
 340	1	7	0.095469	34.2447	17.9644	6.41951
 341	1	1	-0.308877	35.4906	18.9641	4.93848
 342	1	8	0.426958	31.8778	16.4595	4.26976
 343	1	6	-0.128067	36.1922	19.5432	6.04986
 344	1	1	0.005701	34.4955	17.8336	5.35979
 345	1	7	0.239394	33.7364	20.4126	6.03266
 346	1	5	-0.48496	35.4843	16.6585	2.91108
 347	1	1	-0.003409	32.5204	19.3029	4.6112
 348	1	2	0.352525	35.5229	16.055	3.97278
 349	1	6	-0.665659	32.2653	16.9039	5.07006
 350	1	1	-0.510331	33.5675	20.4031	4.94526
 351	1	1	0.240953	33.1662	17.8864	4.5597
 352	1	4	0.015262	34.7774	20.0263	4.28075
 353	1	4	0.176506	35.1025	16.5289	5.19147
 354	1	3	0.090205	36.8354	14.5713	4.83439
 355	1	1	-0.197476	36.0453	14.6286	4.07618
 356	1	1	-0.039041	33.1745	21.8351	4.50925
 357	1	7	0.144117	33.0234	21.8732	3.42107
 358	1	3	0.104606	36.4571	14.314	3.11024
 359	1	7	0.111943	33.3931	17.6811	3.5059
 360	1	7	0.160853	32.2337	22.1411	4.99244
 361	1	3	0.069306	35.2312	13.952	4.36085
 362	1	4	-0.432857	34.2475	22.7269	4.8772
 363	1	3	0.042395	36.6555	23.3542	6.04752
 364	1	2	0.753764	34.5386	23.0028	6.18545
 365	1	1	-0.122098	35.7499	23.915	6.30117
 366	1	3	0.030493	35.8398	24.3015	7.32322
 367	1	5	-0.562583	33.8974	22.6112	7.14713
 368	1	3	0.048272	35.6511	24.7561	5.60514
 369	1	4	-0.191545	31.9724	19.6272	3.31225
 370	1	9	0.130627	31.2149	17.9101	2.4751
 371	1	3	0.015236	27.4134	17.8481	1.92688
 372	1	7	0.210365	31.728	19.307	5.37461
 373	1	1	-0.218842	19.2416	24.6963	3.12081
 374	1	2	0.68591	20.4148	24.5313	4.07334
 375	1	3	0.086668	19.4301	24.1206	2.2097
 376	1	3	0.071846	19.1156	25.7536	2.8656
 377	1	3	0.062371	18.321	24.3203	3.58135
 378	1	4	-0.291145	19.9885	24.4565	5.37244
 379	1	1	-0.015993	20.9456	24.2972	6.44327
 380	1	5	-0.555985	21.5788	24.66	3.72499
 381	1	2	0.652223	19.6209	20.3804	3.30232
 382	1	3	0.062504	19.3137	20.0702	1.19397
 383	1	5	-0.583019	19.8263	21.5772	3.22017
 384	1	1	-0.168764	19.1179	19.5485	2.13786
 385	1	3	0.062846	19.6238	18.5775	2.12922
 386	1	4	-0.264747	19.7865	19.6092	4.41779
 387	1	3	0.073216	18.0418	19.3776	2.24927
 388	1	1	-0.015836	21.6589	20.7098	5.67446
 389	1	1	0.044531	20.21	20.1387	5.70235
 390	1	1	0.341309	19.1678	21.1554	6.25768
 391	1	1	0.132892	19.8035	22.0904	7.31759
 392	1	6	-0.74435	18.0918	20.4255	6.85795
 393	1	7	-0.00272	18.776	21.7816	5.44866
 394	1	1	-0.008403	21.1007	22.7972	6.80335
 395	1	4	-0.239698	21.6099	22.1442	5.62267
 396	1	7	0.089672	20.5995	24.8473	7.32494
 397	1	7	0.088396	21.9207	24.7177	6.16663
 398	1	7	0.05623	21.8539	22.7231	7.59852
 399	1	7	0.125955	20.223	19.3006	6.40897
 400	1	8	0.456798	17.5601	21.1007	7.32703
 401	1	9	0.198085	25.6433	17.5071	3.06912
 402	1	7	0.095469	25.5744	17.9319	5.54893
 403	1	1	-0.308877	25.5436	18.5309	3.44135
 404	1	8	0.426958	26.3659	20.4037	4.79605
 405	1	6	-0.128067	26.836	19.1674	3.4215
 406	1	1	0.005701	24.9183	18.4698	4.85992
 407	1	7	0.239394	25.1604	21.2183	2.83326
 408	1	5	-0.48496	23.1333	17.65	6.93007
 409	1	1	-0.003409	23.7696	20.6975	4.43749
 410	1	2	0.352525	22.8998	17.3858	5.76314
 411	1	6	-0.665659	25.8676	20.5744	5.6268
 412	1	1	-0.510331	24.2672	20.5902	2.95981
 413	1	1	0.240953	24.6379	19.8871	5.42561
 414	1	4	0.015262	24.6096	19.2348	2.59628
 415	1	4	0.176506	23.6906	17.7186	4.69989
 416	1	3	0.090205	20.9324	16.6003	6.14676
 417	1	1	-0.197476	21.6482	16.6442	5.31837
 418	1	1	-0.039041	23.1932	21.1015	1.97381
 419	1	7	0.144117	22.353	20.3953	1.91657
 420	1	3	0.104606	21.9067	15.6255	5.01118
 421	1	7	0.111943	24.1304	19.8127	6.39465
 422	1	7	0.160853	22.7744	22.0646	2.3109
 423	1	3	0.069306	21.1824	17.1589	4.46829
 424	1	4	-0.432857	23.8438	21.2513	0.699302
 425	1	3	0.042395	24.8854	21.0098	-1.5873
 426	1	2	0.753764	23.0909	21.3336	-0.438149
 427	1	1	-0.122098	23.9563	21.5847	-1.66163
 428	1	3	0.030493	24.2092	22.6497	-1.72222
 429	1	5	-0.562583	21.8784	21.1982	-0.480998
 430	1	3	0.048272	23.4183	21.289	-2.56921
 431	1	4	-0.191545	22.4052	20.2234	4.53545
 432	1	9	0.130627	22.1653	20.4143	6.60149
 433	1	3	0.015236	20.1	21.4425	8.1508
 434	1	7	0.210365	23.8087	21.7565	4.73652
 435	1	1	-0.218842	9.50124	26.7792	13.3531
 436	1	2	0.68591	10.287	25.523	13.686
 437	1	3	0.086668	10.0664	27.6597	13.6768
 438	1	3	0.071846	8.5377	26.7633	13.8746
 439	1	3	0.062371	9.32431	26.8452	12.2733
 440	1	4	-0.291145	11.1887	25.2143	12.7067
 441	1	1	-0.015993	12.0789	24.0821	12.8497
 442	1	5	-0.555985	10.046	24.8298	14.6593
 443	1	2	0.652223	16.1025	22.2893	16.7231
 444	1	3	0.062504	16.1271	20.528	17.9635
 445	1	5	-0.583019	16.5346	23.0354	17.5852
 446	1	1	-0.168764	15.861	20.8059	16.9374
 447	1	3	0.062846	14.8033	20.578	16.762
 448	1	4	-0.264747	15.7883	22.6632	15.4502
 449	1	3	0.073216	16.4706	20.2287	16.2335
 450	1	1	-0.015836	15.7699	24.1595	13.5333
 451	1	1	0.044531	15.8564	24.0599	15.0703
 452	1	1	0.341309	14.6979	24.8411	15.7387
 453	1	1	0.132892	13.3115	24.4929	15.1259
 454	1	6	-0.74435	14.9173	26.2533	15.6748
 455	1	7	-0.00272	14.6973	24.5859	16.7989
 456	1	1	-0.008403	13.3739	24.5324	13.5716
 457	1	4	-0.239698	14.4667	23.717	13.0918
 458	1	7	0.089672	12.3544	23.728	11.8477
 459	1	7	0.088396	11.5957	23.2451	13.3705
 460	1	7	0.05623	13.5772	25.5701	13.2735
 461	1	7	0.125955	16.8081	24.4912	15.4042
 462	1	8	0.456798	14.2656	26.5988	16.3388
 463	1	9	0.198085	19.7345	23.3077	9.60381
 464	1	7	0.095469	17.1145	24.6154	8.74703
 465	1	1	-0.308877	18.7245	23.2326	9.18335
 466	1	8	0.426958	15.6199	25.0905	10.2533
 467	1	6	-0.128067	18.8145	23.0366	7.76814
 468	1	1	0.005701	17.9315	24.5346	9.47575
 469	1	7	0.239394	17.3731	21.1694	11.4661
 470	1	5	-0.48496	17.339	27.2674	8.73476
 471	1	1	-0.003409	16.8992	23.2709	11.5113
 472	1	2	0.352525	18.4785	26.8891	8.95611
 473	1	6	-0.665659	16.2492	25.5096	10.9012
 474	1	1	-0.510331	17.872	22.1075	11.1832
 475	1	1	0.240953	17.3662	24.6297	10.9224
 476	1	4	0.015262	18.0671	22.0913	9.75896
 477	1	4	0.176506	18.8688	25.618	9.28689
 478	1	3	0.090205	20.4851	27.3418	8.28362
 479	1	1	-0.197476	19.6732	27.824	8.8403
 480	1	1	-0.039041	19.2221	22.1522	11.9492
 481	1	7	0.144117	19.8122	23.05	11.7147
 482	1	3	0.104606	20.0378	28.093	9.83804
 483	1	7	0.111943	18.1555	25.0122	11.5819
 484	1	7	0.160853	19.0257	22.171	13.0319
 485	1	3	0.069306	19.3795	28.7341	8.30578
 486	1	4	-0.432857	19.9181	20.9327	11.6258
 487	1	3	0.042395	20.608	18.9415	10.0343
 488	1	2	0.753764	20.9752	20.9352	10.7579
 489	1	1	-0.122098	21.4408	19.5194	10.4521
 490	1	3	0.030493	21.782	19.0309	11.3723
 491	1	5	-0.562583	21.5124	21.9332	10.3031
 492	1	3	0.048272	22.2623	19.5401	9.72621
 493	1	4	-0.191545	16.8226	23.3574	12.9541
 494	1	9	0.130627	15.9085	25.2094	13.2452
 495	1	3	0.015236	12.6023	25.2703	15.4374
 496	1	7	0.210365	15.9085	23.0304	11.0993
 497	1	1	-0.218842	13.3526	26.6659	22.9316
 498	1	2	0.68591	12.3128	25.6544	23.3802
 499	1	3	0.086668	12.9576	27.252	22.0946
 500	1	3	0.071846	14.2592	26.1413	22.6107
 501	1	3	0.062371	13.6024	27.3374	23.7609
 502	1	4	-0.291145	12.7625	24.9331	24.4525
 503	1	1	-0.015993	11.9749	23.8548	25.0041
 504	1	5	-0.555985	11.1998	25.5856	22.8897
 505	1	2	0.652223	11.492	18.12	21.4726
 506	1	3	0.062504	10.6022	16.4464	20.4437
 507	1	5	-0.583019	12.14	17.4448	22.2533
 508	1	1	-0.168764	10.6283	17.5394	20.3671
 509	1	3	0.062846	9.60898	17.9344	20.4471
 510	1	4	-0.264747	11.4421	19.4805	21.488
 511	1	3	0.073216	11.0391	17.826	19.3929
 512	1	1	-0.015836	12.1394	21.7742	21.951
 513	1	1	0.044531	12.1831	20.2884	22.4443
 514	1	1	0.341309	11.6071	20.0682	23.8829
 515	1	1	0.132892	11.81	21.2489	24.8923
 516	1	6	-0.74435	12.1655	18.88	24.4615
 517	1	7	-0.00272	10.5257	19.9208	23.7624
 518	1	1	-0.008403	12.2605	22.5612	24.2013
 519	1	4	-0.239698	11.5733	22.6292	22.9505
 520	1	7	0.089672	10.9029	24.0966	24.9881
 521	1	7	0.088396	12.2767	23.6981	26.0476
 522	1	7	0.05623	13.344	22.5081	24.0285
 523	1	7	0.125955	13.235	19.976	22.4551
 524	1	8	0.456798	12.1686	18.186	23.7408
 525	1	9	0.198085	11.7374	24.1751	17.1037
 526	1	7	0.095469	11.649	21.1562	16.5591
 527	1	1	-0.308877	12.2356	23.2145	16.9169
 528	1	8	0.426958	9.64846	20.2616	17.7483
 529	1	6	-0.128067	12.8207	23.2249	15.6048
 530	1	1	0.005701	11.2112	22.0551	17.0128
 531	1	7	0.239394	13.7953	22.8345	19.8521
 532	1	5	-0.48496	8.95333	20.4889	16.1995
 533	1	1	-0.003409	11.9134	21.8194	19.495
 534	1	2	0.352525	9.04407	21.6669	15.8966
 535	1	6	-0.665659	10.2637	20.3883	18.5195
 536	1	1	-0.510331	12.8821	23.0187	19.2704
 537	1	1	0.240953	10.7615	21.73	18.4668
 538	1	4	0.015262	13.2722	23.0283	17.8898
 539	1	4	0.176506	10.0707	22.5013	16.2449
 540	1	3	0.090205	7.1034	21.743	14.9526
 541	1	1	-0.197476	7.97864	22.3903	15.0846
 542	1	1	-0.039041	12.3386	24.4038	19.7278
 543	1	7	0.144117	11.6148	24.8428	19.0279
 544	1	3	0.104606	8.38114	22.6553	14.1002
 545	1	7	0.111943	9.98808	22.4506	18.7697
 546	1	7	0.160853	11.818	24.3092	20.6941
 547	1	3	0.069306	7.67119	23.3098	15.5976
 548	1	4	-0.432857	13.4932	25.2434	19.9175
 549	1	3	0.042395	15.1113	27.2818	20.305
 550	1	2	0.753764	13.9026	26.1172	18.9515
 551	1	1	-0.122098	15.2165	26.7788	19.337
 552	1	3	0.030493	15.5112	27.5136	18.5783
 553	1	5	-0.562583	13.29	26.3876	17.927
 554	1	3	0.048272	15.9981	26.0143	19.4193
 555	1	4	-0.191545	11.2966	21.9448	20.7933
 556	1	9	0.130627	13.1533	22.1282	21.7328
 557	1	3	0.015236	12.6108	20.9865	25.597
 558	1	7	0.210365	12.4663	20.8722	19.4298
 559	1	1	-0.218842	9.82939	26.4725	31.53
 560	1	2	0.68591	8.6782	25.8782	32.323
 561	1	3	0.086668	9.78066	26.1156	30.4954
 562	1	3	0.071846	10.7819	26.156	31.9688
 563	1	3	0.062371	9.76774	27.5667	31.5419
 564	1	4	-0.291145	8.75703	24.518	32.3616
 565	1	1	-0.015993	7.73241	23.7666	33.0432
 566	1	5	-0.555985	7.81281	26.5423	32.8619
 567	1	2	0.652223	5.06717	18.9201	31.3136
 568	1	3	0.062504	2.94615	18.6598	31.0343
 569	1	5	-0.583019	5.20416	17.947	32.033
 570	1	1	-0.168764	3.75631	19.2834	30.6397
 571	1	3	0.062846	3.52136	20.3387	30.8195
 572	1	4	-0.264747	6.04363	19.8362	31.052
 573	1	3	0.073216	3.84413	19.1195	29.56
 574	1	1	-0.015836	8.31895	20.7141	30.9635
 575	1	1	0.044531	7.37523	19.6612	31.6039
 576	1	1	0.341309	7.37895	19.8302	33.1464
 577	1	1	0.132892	7.02175	21.3106	33.4856
 578	1	6	-0.74435	8.69075	19.4409	33.5933
 579	1	7	-0.00272	6.63667	19.1693	33.6067
 580	1	1	-0.008403	8.03777	22.2727	32.817
 581	1	4	-0.239698	7.94416	22.04	31.3957
 582	1	7	0.089672	6.74085	24.0117	32.6396
 583	1	7	0.088396	7.74192	23.9999	34.1166
 584	1	7	0.05623	9.05386	22.0549	33.1717
 585	1	7	0.125955	7.74265	18.6557	31.3663
 586	1	8	0.456798	8.70378	19.4462	34.5719
 587	1	9	0.198085	10.583	19.4639	26.1993
 588	1	7	0.095469	11.947	20.8713	27.882
 589	1	1	-0.308877	10.2375	20.4328	26.5865
 590	1	8	0.426958	10.3113	22.8718	27.1691
 591	1	6	-0.128067	10.5998	21.4593	25.6464
 592	1	1	0.005701	10.8747	20.6635	27.9905
 593	1	7	0.239394	8.3292	22.3795	26.6667
 594	1	5	-0.48496	12.0724	20.0555	30.4783
 595	1	1	-0.003409	8.67433	21.7184	28.7258
 596	1	2	0.352525	11.3371	19.2506	29.9337
 597	1	6	-0.665659	10.5717	23.0526	28.0961
 598	1	1	-0.510331	8.13976	21.4898	27.282
 599	1	1	0.240953	10.2142	21.8424	28.7558
 600	1	4	0.015262	8.80181	20.3504	26.7037
 601	1	4	0.176506	10.7193	19.4307	28.7264
 602	1	3	0.090205	9.88834	17.7649	30.5409
 603	1	1	-0.197476	10.9741	17.9131	30.5641
 604	1	1	-0.039041	6.61984	21.2301	27.2686
 605	1	7	0.144117	6.23877	21.1391	26.2406
 606	1	3	0.104606	11.3102	17.8955	31.6083
 607	1	7	0.111943	10.5631	21.8843	29.7965
 608	1	7	0.160853	6.38873	20.2944	27.8021
 609	1	3	0.069306	11.4569	17.0958	30.0158
 610	1	4	-0.432857	6.0269	22.3569	27.9401
 611	1	3	0.042395	4.96579	23.6777	29.9634
 612	1	2	0.753764	4.72083	22.301	28.3273
 613	1	1	-0.122098	4.32047	23.5574	29.0851
 614	1	3	0.030493	3.27559	23.4894	29.4103
 615	1	5	-0.562583	3.97525	21.3567	28.1301
 616	1	3	0.048272	4.44209	24.433	28.4373
 617	1	4	-0.191545	8.23819	20.5958	29.5298
 618	1	9	0.130627	9.34942	20.5233	31.2921
 619	1	3	0.015236	6.05296	21.5152	33.0117
 620	1	7	0.210365	8.24605	22.6521	29.1189
 621	1	1	-0.218842	10.6158	18.0137	45.4172
 622	1	2	0.68591	11.0826	19.0854	44.4467
 623	1	3	0.086668	9.75709	18.3863	45.986
 624	1	3	0.071846	11.4272	17.7595	46.1088
 625	1	3	0.062371	10.3148	17.1177	44.8634
 626	1	4	-0.291145	10.0822	19.4462	43.5905
 627	1	1	-0.015993	10.3456	20.46	42.5992
 628	1	5	-0.555985	12.1915	19.5832	44.4699
 629	1	2	0.652223	3.98517	21.8784	40.7574
 630	1	3	0.062504	2.39578	23.1351	40.0289
 631	1	5	-0.583019	3.50779	21.7137	41.8641
 632	1	1	-0.168764	3.26627	22.6005	39.6305
 633	1	3	0.062846	3.94324	23.322	39.1581
 634	1	4	-0.264747	5.21847	21.4393	40.3743
 635	1	3	0.073216	2.93148	21.88	38.8783
 636	1	1	-0.015836	7.2972	20.2338	40.416
 637	1	1	0.044531	6.15011	20.8079	41.2999
 638	1	1	0.341309	6.63254	21.8268	42.3786
 639	1	1	0.132892	7.95787	21.3711	43.0563
 640	1	6	-0.74435	5.63302	21.9675	43.3934
 641	1	7	-0.00272	6.79336	22.7834	41.8676
 642	1	1	-0.008403	9.01244	20.9626	41.9976
 643	1	4	-0.239698	8.44911	19.891	41.2143
 644	1	7	0.089672	10.9936	20.0622	41.8076
 645	1	7	0.088396	10.8662	21.305	43.0637
 646	1	7	0.05623	9.22818	21.8197	41.3491
 647	1	7	0.125955	5.6664	19.9693	41.8188
 648	1	8	0.456798	4.73725	21.9501	42.955
 649	1	9	0.198085	8.78246	21.2253	35.3383
 650	1	7	0.095469	7.48936	19.1277	35.9074