pySIMM System Object

1180 atoms
1217 bonds
2242 angles
3113 dihedrals
76 impropers

9 atom types
10 bond types
23 angle types
20 dihedral types
1 improper types

-154.401582 154.401582 xlo xhi
-154.401582 154.401582 ylo yhi
-154.401582 154.401582 zlo zhi

Masses

   1	12.01	# c3
   2	12.01	# c
   3	1.008	# hc
   4	16.0	# os
   5	16.0	# o
   6	16.0	# oh
   7	1.008	# h1
   8	1.008	# ho
   9	1.008	# h2

Pair Coeffs

   1	0.1094	3.3996695084235347	# c3
   2	0.086	3.3996695084235347	# c
   3	0.0157	2.649532787749369	# hc
   4	0.17	3.0000123434657784	# os
   5	0.21	2.959921901149463	# o
   6	0.2104	3.0664733878390478	# oh
   7	0.0157	2.471353044121301	# h1
   8	0.0047	0.5379246460131368	# ho
   9	0.0157	2.2931733004932333	# h2

Bond Coeffs

   1	331.7	1.0961	# c3,h2
   2	637.7	1.2183	# c,o
   3	300.9	1.5375	# c3,c3
   4	330.6	1.0969	# c3,hc
   5	316.7	1.4233	# c3,oh
   6	330.6	1.0969	# c3,h1
   7	371.4	0.973	# ho,oh
   8	308.6	1.4316	# c3,os
   9	313.0	1.5241	# c,c3
  10	390.8	1.3584	# c,os

Angle Coeffs

   1	46.93	108.77	# c,c3,hc
   2	67.4	123.2	# c3,c,o
   3	68.0	107.97	# c3,c3,os
   4	46.39	109.56	# c3,c3,h1
   5	46.25	110.22	# c3,c3,h2
   6	62.86	111.51	# c3,c3,c3
   7	68.89	110.72	# c3,c,os
   8	72.58	109.38	# oh,c3,os
   9	75.32	123.25	# o,c,os
  10	67.47	110.19	# c3,c3,oh
  11	46.34	109.8	# c3,c3,hc
  12	47.38	107.26	# c3,oh,ho
  13	39.24	108.46	# h1,c3,h1
  14	50.85	109.58	# h2,c3,os
  15	72.74	108.29	# os,c3,os
  16	50.8	109.78	# h1,c3,os
  17	63.28	115.98	# c,os,c3
  18	62.7	112.48	# c3,os,c3
  19	50.93	110.26	# h1,c3,oh
  20	39.4	107.58	# hc,c3,hc
  21	51.13	109.43	# h2,c3,oh
  22	51.11	109.5	# hc,c3,oh
  23	62.7	112.48	# c3,oh,c3

Dihedral Coeffs

   1	3	0.18	3	0	0.25	2	180	0.2	1	180	# c3,c3,c3,c3
   2	1	0.3833333333333333	3	0	# X,c3,os,X
   3	2	0.144	3	0	1.175	2	0	# os,c3,c3,oh
   4	3	0.1	3	0	0.85	2	180	1.35	1	180	# c3,os,c3,os
   5	2	0.144	3	0	1.175	2	0	# os,c3,c3,os
   6	3	2.7	2	180	0.0	1	0	1.15	3	0	# c3,c,os,c3
   7	2	0.0	3	0	0.25	1	0	# hc,c3,c3,oh
   8	1	0.16	3	0	# hc,c3,c3,c3
   9	1	0.15555555555555556	3	0	# X,c3,c3,X
  10	2	0.16	3	0	0.25	1	0	# ho,oh,c3,c3
  11	2	0.383	3	0	0.8	1	180	# c3,c3,os,c
  12	1	0.0	2	180	# X,c,c3,X
  13	2	2.7	2	180	1.4	1	180	# o,c,os,c3
  14	2	0.0	3	0	0.25	1	0	# hc,c3,c3,os
  15	2	0.0	3	0	0.25	1	0	# h1,c3,c3,oh
  16	1	0.16666666666666666	3	0	# X,c3,oh,X
  17	3	0.8	1	0	0.0	2	0	0.08	3	180	# hc,c3,c,o
  18	2	0.0	3	0	0.25	1	0	# h1,c3,c3,os
  19	2	0.383	3	0	0.1	2	180	# c3,c3,os,c3
  20	2	0.144	3	0	1.175	2	0	# oh,c3,c3,oh

Improper Coeffs

   1	10.5	-1	2	# c,X,X,o

Atoms

   1	1	1	-0.218842	14.6035	-36.3604	2.9504
   2	1	2	0.68591	14.4108	-34.8708	3.168
   3	1	3	0.086668	14.7632	-36.8548	3.9143
   4	1	3	0.071846	15.4697	-36.5319	2.302
   5	1	3	0.062371	13.7082	-36.779	2.4762
   6	1	4	-0.291145	13.356	-34.6223	3.9984
   7	1	1	-0.015993	13.003	-33.2566	4.3041
   8	1	5	-0.555985	15.1318	-34.021	2.6721
   9	1	2	0.652223	6.44162	-32.2625	5.3988
  10	1	3	0.062504	4.73582	-32.9205	4.2639
  11	1	5	-0.583019	6.67922	-32.0977	6.5836
  12	1	1	-0.168764	5.08572	-32.0099	4.7637
  13	1	3	0.062846	4.36072	-31.7144	5.5307
  14	1	4	-0.264747	7.35032	-32.6804	4.4755
  15	1	3	0.073216	5.17362	-31.2117	4.0179
  16	1	1	-0.015836	9.36702	-33.5247	3.5278
  17	1	1	0.044531	8.72542	-32.982	4.8206
  18	1	1	0.341309	9.48362	-31.7355	5.3569
  19	1	1	0.132892	11.0156	-31.7686	5.0456
  20	1	6	-0.74435	9.28012	-31.6028	6.7667
  21	1	7	-0.00272	9.04442	-30.8559	4.8709
  22	1	1	-0.008403	11.529	-33.2168	4.7796
  23	1	4	-0.239698	10.7238	-33.9283	3.7986
  24	1	7	0.089672	13.1217	-32.6266	3.4136
  25	1	7	0.088396	13.6647	-32.8582	5.0839
  26	1	7	0.05623	11.4634	-33.7628	5.7296
  27	1	7	0.125955	8.76222	-33.7704	5.5835
  28	1	8	0.456798	8.29522	-31.6951	6.9091
  29	1	9	0.198085	8.94782	-33.203	-1.798
  30	1	7	0.095469	6.90372	-32.2654	-1.1243
  31	1	1	-0.308877	9.00889	-32.1276	-1.5887
  32	1	8	0.426958	6.01262	-31.5793	1.0236
  33	1	6	-0.128067	9.12038	-31.4419	-2.834
  34	1	1	0.005701	7.76162	-31.6717	-0.783298
  35	1	7	0.239394	10.4118	-33.8623	-0.183598
  36	1	5	-0.48496	5.44982	-30.2309	-0.0276978
  37	1	1	-0.003409	9.02892	-32.8535	1.1795
  38	1	2	0.352525	6.35162	-29.6741	-0.636198
  39	1	6	-0.665659	6.67682	-32.2577	1.3143
  40	1	1	-0.510331	10.3061	-32.8609	0.259902
  41	1	1	0.240953	7.92812	-31.8445	0.755402
  42	1	4	0.015262	10.1723	-31.8934	-0.793398
  43	1	4	0.176506	7.51332	-30.2701	-1.0532
  44	1	3	0.090205	7.11782	-27.6548	-0.589398
  45	1	1	-0.197476	6.28432	-28.2071	-1.0393
  46	1	1	-0.039041	11.6278	-32.5536	0.999702
  47	1	7	0.144117	11.5979	-31.5467	1.4289
  48	1	3	0.104606	5.34102	-27.7702	-0.690798
  49	1	7	0.111943	8.22282	-30.8709	1.1738
  50	1	7	0.160853	11.7682	-33.2609	1.8241
  51	1	3	0.069306	6.34382	-28.1124	-2.13
  52	1	4	-0.432857	12.7319	-32.6777	0.0860022
  53	1	3	0.042395	14.1225	-33.3012	-2.0672
  54	1	2	0.753764	13.2459	-33.9135	-0.197298
  55	1	1	-0.122098	14.4291	-33.8107	-1.1467
  56	1	3	0.030493	14.8057	-34.8105	-1.394
  57	1	5	-0.562583	12.8348	-34.9692	0.258802
  58	1	3	0.048272	15.2287	-33.2316	-0.670398
  59	1	4	-0.191545	9.37582	-32.4769	2.5328
  60	1	9	0.130627	8.79212	-34.3877	3.171
  61	1	3	0.015236	11.5573	-31.4023	5.9289
  62	1	7	0.210365	8.55982	-33.8465	1.1613
  63	1	1	-0.218842	17.1236	-23.5018	7.4666
  64	1	2	0.68591	15.8044	-22.7542	7.5432
  65	1	3	0.086668	16.9726	-24.456	6.9491
  66	1	3	0.071846	17.5042	-23.6939	8.4759
  67	1	3	0.062371	17.8545	-22.9074	6.9068
  68	1	4	-0.291145	15.2575	-22.5908	6.3017
  69	1	1	-0.015993	13.9706	-21.9538	6.1662
  70	1	5	-0.555985	15.3388	-22.3149	8.5832
  71	1	2	0.652223	9.02252	-23.267	4.007
  72	1	3	0.062504	8.29772	-21.2712	3.6492
  73	1	5	-0.583019	8.55042	-24.3661	3.7694
  74	1	1	-0.168764	8.82742	-22.0612	3.1052
  75	1	3	0.062846	9.80492	-21.6805	2.7878
  76	1	4	-0.264747	9.70682	-22.9281	5.1366
  77	1	3	0.073216	8.24612	-22.3465	2.2212
  78	1	1	-0.015836	11.4245	-24.6337	5.5936
  79	1	1	0.044531	10.1306	-23.9366	6.0887
  80	1	1	0.341309	10.4321	-23.2271	7.4264
  81	1	1	0.132892	11.6504	-22.2551	7.2657
  82	1	6	-0.74435	10.6491	-24.2392	8.4159
  83	1	7	-0.00272	9.54632	-22.6445	7.709
  84	1	1	-0.008403	12.8579	-22.9513	6.5784
  85	1	4	-0.239698	12.4236	-23.6229	5.3763
  86	1	7	0.089672	13.8149	-21.6481	5.1233
  87	1	7	0.088396	13.9374	-21.0487	6.7868
  88	1	7	0.05623	13.2654	-23.6923	7.279
  89	1	7	0.125955	9.33802	-24.677	6.2563
  90	1	8	0.456798	10.4647	-23.8021	9.2832
  91	1	9	0.198085	10.6505	-29.333	5.1581
  92	1	7	0.095469	9.41862	-29.2784	2.9681
  93	1	1	-0.308877	11.1847	-29.4819	4.2097
  94	1	8	0.426958	8.74652	-26.0123	3.5233
  95	1	6	-0.128067	11.3519	-30.8823	3.9612
  96	1	1	0.005701	10.4079	-28.8094	3.0507
  97	1	7	0.239394	12.6138	-27.4571	5.8157
  98	1	5	-0.48496	9.34282	-28.6047	0.448502
  99	1	1	-0.003409	11.0111	-26.7727	4.5125
 100	1	2	0.352525	10.5232	-28.865	0.613802
 101	1	6	-0.665659	8.84972	-27.005	3.447
 102	1	1	-0.510331	12.4123	-27.4548	4.7354
 103	1	1	0.240953	10.2398	-27.2805	3.2683
 104	1	4	0.015262	12.4523	-28.8262	4.2874
 105	1	4	0.176506	11.1415	-29.0214	1.8249
 106	1	3	0.090205	10.9162	-29.2113	-1.478
 107	1	1	-0.197476	11.4838	-29.0679	-0.550598
 108	1	1	-0.039041	13.5988	-26.7453	4.0368
 109	1	7	0.144117	13.7647	-25.753	4.4855
 110	1	3	0.104606	12.1075	-29.9543	-0.383198
 111	1	7	0.111943	10.622	-26.7439	2.3888
 112	1	7	0.160853	14.5283	-27.321	4.1668
 113	1	3	0.069306	12.1326	-28.1936	-0.659098
 114	1	4	-0.432857	13.2913	-26.6034	2.6359
 115	1	3	0.042395	13.8931	-26.7135	-0.0868978
 116	1	2	0.753764	14.1361	-25.8529	1.8678
 117	1	1	-0.122098	13.6572	-25.7753	0.426502
 118	1	3	0.030493	14.1537	-24.9461	-0.0918978
 119	1	5	-0.562583	15.1444	-25.3019	2.2761
 120	1	3	0.048272	12.5729	-25.6153	0.402202
 121	1	4	-0.191545	11.1873	-25.3465	4.3692
 122	1	9	0.130627	11.7908	-25.3283	6.3622
 123	1	3	0.015236	11.3315	-21.4229	6.6245
 124	1	7	0.210365	10.3603	-26.986	5.3724
 125	1	1	-0.218842	5.87152	-22.3227	9.1262
 126	1	2	0.68591	5.50182	-22.1461	10.5888
 127	1	3	0.086668	6.48652	-21.4776	8.8011
 128	1	3	0.071846	4.96052	-22.3555	8.5186
 129	1	3	0.062371	6.43452	-23.2534	8.9927
 130	1	4	-0.291145	4.87232	-20.9493	10.7988
 131	1	1	-0.015993	4.54452	-20.5439	12.1468
 132	1	5	-0.555985	5.67932	-23.0087	11.4304
 133	1	2	0.652223	7.65652	-22.9051	15.8597
 134	1	3	0.062504	7.93002	-24.9449	16.5013
 135	1	5	-0.583019	7.30052	-22.4822	16.9491
 136	1	1	-0.168764	7.95342	-24.3655	15.5717
 137	1	3	0.062846	7.20432	-24.763	14.8771
 138	1	4	-0.264747	7.82162	-22.1278	14.7508
 139	1	3	0.073216	8.94172	-24.4605	15.1085
 140	1	1	-0.015836	7.99252	-20.0605	13.4579
 141	1	1	0.044531	7.56862	-20.6998	14.8053
 142	1	1	0.341309	6.05902	-20.4589	15.0989
 143	1	1	0.132892	5.49502	-19.3066	14.2239
 144	1	6	-0.74435	5.88722	-20.2163	16.5014
 145	1	7	-0.00272	5.50492	-21.3693	14.8355
 146	1	1	-0.008403	5.67522	-19.6432	12.7103
 147	1	4	-0.239698	6.94702	-20.3229	12.4941
 148	1	7	0.089672	4.38042	-21.4154	12.7955
 149	1	7	0.088396	3.61222	-19.965	12.1295
 150	1	7	0.05623	5.67712	-18.6973	12.1534
 151	1	7	0.125955	8.16692	-20.2399	15.6026
 152	1	8	0.456798	6.28382	-21.026	16.9362
 153	1	9	0.198085	10.3897	-20.5825	8.8489
 154	1	7	0.095469	11.9518	-19.1082	9.8574
 155	1	1	-0.308877	11.19	-21.0853	9.4074
 156	1	8	0.426958	12.1575	-18.3084	12.1876
 157	1	6	-0.128067	12.1207	-21.6896	8.504
 158	1	1	0.005701	11.8934	-20.0814	10.3617
 159	1	7	0.239394	8.64622	-21.5092	10.1136
 160	1	5	-0.48496	13.9208	-18.7014	11.7797
 161	1	1	-0.003409	9.66192	-20.3763	11.6861
 162	1	2	0.352525	14.1429	-19.8034	11.3023
 163	1	6	-0.665659	11.1955	-18.5415	12.1179
 164	1	1	-0.510331	9.42282	-21.694	10.8661
 165	1	1	0.240953	11.1441	-19.9143	11.7222
 166	1	4	0.015262	10.6364	-22.0994	10.2358
 167	1	4	0.176506	13.2341	-20.5689	10.623
 168	1	3	0.090205	16.1256	-19.9655	12.1418
 169	1	1	-0.197476	15.4888	-20.5037	11.4298
 170	1	1	-0.039041	8.97442	-22.9147	11.6961
 171	1	7	0.144117	9.75232	-23.2092	12.4171
 172	1	3	0.104606	15.9857	-20.5283	10.4527
 173	1	7	0.111943	11.6454	-20.5447	12.4712
 174	1	7	0.160853	8.05822	-22.6935	12.2657
 175	1	3	0.069306	15.3511	-21.5349	11.7777
 176	1	4	-0.432857	8.71452	-23.9664	10.7504
 177	1	3	0.042395	7.28332	-25.795	9.4616
 178	1	2	0.753764	8.35482	-25.1952	11.2317
 179	1	1	-0.122098	8.09122	-26.1742	10.0974
 180	1	3	0.030493	7.80452	-27.1528	10.5002
 181	1	5	-0.562583	8.33462	-25.4969	12.4139
 182	1	3	0.048272	8.99562	-26.2862	9.4883
 183	1	4	-0.191545	9.27102	-20.5915	13.0572
 184	1	9	0.130627	8.10172	-18.9733	13.5748
 185	1	3	0.015236	6.12052	-18.429	14.3962
 186	1	7	0.210365	9.08282	-19.5472	11.2544
 187	1	1	-0.218842	3.32272	-20.0832	21.3435
 188	1	2	0.68591	2.97782	-18.7058	21.8785
 189	1	3	0.086668	4.13412	-20.5164	21.9379
 190	1	3	0.071846	3.65202	-19.9994	20.3013
 191	1	3	0.062371	2.44532	-20.7381	21.3906
 192	1	4	-0.291145	4.07042	-17.8826	21.8832
 193	1	1	-0.015993	3.96362	-16.4905	22.2686
 194	1	5	-0.555985	1.86872	-18.4024	22.2897
 195	1	2	0.652223	5.96582	-12.2867	18.7482
 196	1	3	0.062504	7.14022	-12.5505	16.9674
 197	1	5	-0.583019	5.54522	-11.2606	19.2573
 198	1	1	-0.168764	7.30472	-12.3864	18.0383
 199	1	3	0.062846	7.87342	-11.4597	18.1767
 200	1	4	-0.264747	5.31502	-13.4854	18.7718
 201	1	3	0.073216	7.88222	-13.2273	18.438
 202	1	1	-0.015836	3.37222	-14.9694	18.9292
 203	1	1	0.044531	3.97822	-13.5898	19.3323
 204	1	1	0.341309	4.03742	-13.4204	20.8864
 205	1	1	0.132892	2.89572	-14.2204	21.5746
 206	1	6	-0.74435	3.99602	-12.0428	21.2704
 207	1	7	-0.00272	4.98972	-13.842	21.2335
 208	1	1	-0.008403	3.06892	-15.7425	21.2516
 209	1	4	-0.239698	3.69432	-15.9214	19.9641
 210	1	7	0.089672	4.96222	-16.0352	22.284
 211	1	7	0.088396	3.53472	-16.4094	23.2761
 212	1	7	0.05623	2.10622	-16.2479	21.2641
 213	1	7	0.125955	3.33112	-12.8076	18.9151
 214	1	8	0.456798	4.58472	-11.559	20.6249
 215	1	9	0.198085	3.14662	-17.4249	13.8129
 216	1	7	0.095469	1.85132	-18.5026	15.7683
 217	1	1	-0.308877	3.61872	-17.7072	14.7633
 218	1	8	0.426958	4.31172	-19.2913	17.0383
 219	1	6	-0.128067	4.12172	-19.0554	14.6035
 220	1	1	0.005701	2.54512	-17.6615	15.8927
 221	1	7	0.239394	5.83792	-17.792	16.3654
 222	1	5	-0.48496	0.0970155	-17.0083	17.1662
 223	1	1	-0.003409	4.34992	-16.7572	17.4945
 224	1	2	0.352525	0.653316	-16.2031	16.4358
 225	1	6	-0.665659	3.55912	-19.0522	17.6456
 226	1	1	-0.510331	5.33002	-16.8252	16.3035
 227	1	1	0.240953	3.14912	-17.7208	17.3269
 228	1	4	0.015262	4.62072	-16.7065	15.055
 229	1	4	0.176506	1.81112	-16.4258	15.7384
 230	1	3	0.090205	-0.138384	-14.6336	15.1758
 231	1	1	-0.197476	0.136716	-14.7879	16.2255
 232	1	1	-0.039041	6.42262	-15.7442	16.3356
 233	1	7	0.144117	6.02042	-14.7734	16.0082
 234	1	3	0.104606	0.919716	-14.0681	16.4854
 235	1	7	0.111943	2.38032	-17.4349	18.0556
 236	1	7	0.160853	6.82392	-15.6225	17.3534
 237	1	3	0.069306	-0.737084	-14.6056	16.8624
 238	1	4	-0.432857	7.44622	-16.2166	15.4412
 239	1	3	0.042395	10.4389	-15.5464	14.172
 240	1	2	0.753764	8.59092	-15.4912	15.2904
 241	1	1	-0.122098	9.52532	-16.1424	14.2816
 242	1	3	0.030493	9.02662	-16.2192	13.3079
 243	1	5	-0.562583	8.84672	-14.4681	15.9035
 244	1	3	0.048272	9.79032	-17.1511	14.619
 245	1	4	-0.191545	3.89612	-15.3889	17.6437
 246	1	9	0.130627	2.28082	-14.878	18.8484
 247	1	3	0.015236	2.95992	-14.0804	22.661
 248	1	7	0.210365	4.90542	-17.0711	18.389
 249	1	1	-0.218842	-9.34208	-14.1032	19.9424
 250	1	2	0.68591	-8.54408	-14.7192	18.8071
 251	1	3	0.086668	-9.99608	-14.8614	20.3864
 252	1	3	0.071846	-9.95008	-13.2767	19.5579
 253	1	3	0.062371	-8.66108	-13.7182	20.7095
 254	1	4	-0.291145	-7.63808	-13.8317	18.3008
 255	1	1	-0.015993	-6.72808	-14.2245	17.2482
 256	1	5	-0.555985	-8.72708	-15.8532	18.4005
 257	1	2	0.652223	-1.85048	-18.4199	19.2422
 258	1	3	0.062504	0.138616	-17.7572	19.7483
 259	1	5	-0.583019	-2.38238	-19.3006	18.588
 260	1	1	-0.168764	-0.532384	-18.5918	19.9797
 261	1	3	0.062846	-0.710484	-18.6128	21.0605
 262	1	4	-0.264747	-2.38728	-17.1861	19.4613
 263	1	3	0.073216	-0.0529845	-19.5285	19.6727
 264	1	1	-0.015836	-3.92608	-15.3487	19.518
 265	1	1	0.044531	-3.64708	-16.7398	18.8797
 266	1	1	0.341309	-3.58308	-16.6621	17.3269
 267	1	1	0.132892	-4.70908	-15.7652	16.7136
 268	1	6	-0.74435	-3.69008	-17.9737	16.7576
 269	1	7	-0.00272	-2.60508	-16.2423	17.0659
 270	1	1	-0.008403	-5.69508	-15.244	17.7949
 271	1	4	-0.239698	-4.94908	-14.5942	18.8379
 272	1	7	0.089672	-6.20308	-13.3362	16.8729
 273	1	7	0.088396	-7.28408	-14.6677	16.4114
 274	1	7	0.05623	-6.23208	-16.1066	18.2096
 275	1	7	0.125955	-4.45708	-17.4262	19.1611
 276	1	8	0.456798	-3.18908	-18.5914	17.3682
 277	1	9	0.198085	0.703416	-15.3818	20.4199
 278	1	7	0.095469	-0.314184	-13.6102	22.6927
 279	1	1	-0.308877	0.472016	-14.3936	20.8226
 280	1	8	0.426958	-2.35408	-14.5388	23.6529
 281	1	6	-0.128067	1.64732	-13.634	21.1346
 282	1	1	0.005701	-0.457884	-14.5048	22.0714
 283	1	7	0.239394	-0.896584	-12.156	20.8469
 284	1	5	-0.48496	-1.16378	-15.1684	24.7271
 285	1	1	-0.003409	-2.37818	-13.7253	20.5019
 286	1	2	0.352525	-0.434884	-15.904	24.083
 287	1	6	-0.665659	-2.80908	-14.2721	22.8094
 288	1	1	-0.510331	-1.20708	-12.8288	20.0338
 289	1	1	0.240953	-1.96868	-14.6236	21.7076
 290	1	4	0.015262	-0.149284	-13.7306	19.715
 291	1	4	0.176506	-0.0313845	-15.6845	22.793
 292	1	3	0.090205	-0.214584	-17.3333	25.6839
 293	1	1	-0.197476	0.123216	-17.201	24.6489
 294	1	1	-0.039041	-1.50378	-11.9703	18.7862
 295	1	7	0.144117	-1.39638	-12.5487	17.8559
 296	1	3	0.104606	1.21872	-17.1767	24.6326
 297	1	7	0.111943	-2.14768	-15.6707	21.4372
 298	1	7	0.160853	-2.53398	-11.5884	18.827
 299	1	3	0.069306	-0.219384	-18.0527	24.0492
 300	1	4	-0.432857	-0.574584	-10.8689	18.8463
 301	1	3	0.042395	2.56532	-9.87811	18.4162
 302	1	2	0.753764	0.735816	-11.0226	18.4738
 303	1	1	-0.122098	1.55052	-9.78581	18.8209
 304	1	3	0.030493	1.60782	-9.67651	19.9106
 305	1	5	-0.562583	1.19602	-11.9712	17.8589
 306	1	3	0.048272	1.07172	-8.89411	18.4011
 307	1	4	-0.191545	-2.72908	-14.5641	19.3841
 308	1	9	0.130627	-4.20008	-15.4722	20.574
 309	1	3	0.015236	-5.32308	-16.3862	16.049
 310	1	7	0.210365	-3.24208	-13.1068	20.7903
 311	1	1	-0.218842	-9.51008	-15.7755	10.0553
 312	1	2	0.68591	-8.62808	-16.1619	8.8802
 313	1	3	0.086668	-9.77808	-14.7166	9.9776
 314	1	3	0.071846	-8.97408	-15.936	10.9984
 315	1	3	0.062371	-10.4221	-16.3831	10.0541
 316	1	4	-0.291145	-7.31208	-15.9126	9.1457
 317	1	1	-0.015993	-6.28508	-16.2156	8.1718
 318	1	5	-0.555985	-9.06608	-16.5662	7.8156
 319	1	2	0.652223	-6.70908	-11.2089	9.819
 320	1	3	0.062504	-8.27908	-12.2072	10.9
 321	1	5	-0.583019	-6.75808	-10.4295	8.8825
 322	1	1	-0.168764	-7.74408	-11.2513	10.9292
 323	1	3	0.062846	-7.25108	-11.1508	11.903
 324	1	4	-0.264747	-5.77408	-12.1875	9.9938
 325	1	3	0.073216	-8.46208	-10.4325	10.801
 326	1	1	-0.015836	-3.91208	-13.661	9.6111
 327	1	1	0.044531	-4.61008	-12.3647	9.1372
 328	1	1	0.341309	-4.96708	-12.5085	7.6319
 329	1	1	0.132892	-5.81108	-13.7773	7.3506
 330	1	6	-0.74435	-3.77608	-12.5183	6.8396
 331	1	7	-0.00272	-5.52808	-11.6331	7.3029
 332	1	1	-0.008403	-5.28108	-15.0385	8.1083
 333	1	4	-0.239698	-4.86208	-14.738	9.4576
 334	1	7	0.089672	-6.70908	-16.3762	7.171
 335	1	7	0.088396	-5.76308	-17.1353	8.4656
 336	1	7	0.05623	-4.40008	-15.3904	7.5557
 337	1	7	0.125955	-3.92708	-11.5135	9.2496
 338	1	8	0.456798	-4.07908	-12.256	5.9471
 339	1	9	0.198085	-2.34128	-15.2716	15.2283
 340	1	7	0.095469	-4.92408	-16.0662	13.9355
 341	1	1	-0.308877	-3.29608	-14.9223	14.8242
 342	1	8	0.426958	-4.48808	-15.9961	10.6272
 343	1	6	-0.128067	-4.18908	-14.6686	15.9293
 344	1	1	0.005701	-3.84308	-15.9631	13.7899
 345	1	7	0.239394	-5.02308	-13.2926	13.912
 346	1	5	-0.48496	-1.01908	-16.67	13.6769
 347	1	1	-0.003409	-4.21108	-14.1036	12.0687
 348	1	2	0.352525	-1.88238	-17.4843	13.9661
 349	1	6	-0.665659	-4.33708	-16.4716	11.4798
 350	1	1	-0.510331	-4.09008	-13.2012	13.3381
 351	1	1	0.240953	-3.65208	-15.537	12.3133
 352	1	4	0.015262	-3.00808	-13.6808	14.1531
 353	1	4	0.176506	-3.23608	-17.2577	14.0179
 354	1	3	0.090205	-2.29948	-19.6081	13.9578
 355	1	1	-0.197476	-1.53958	-18.9191	14.3447
 356	1	1	-0.039041	-3.84708	-11.7015	13.047
 357	1	7	0.144117	-2.85708	-11.5681	12.5865
 358	1	3	0.104606	-1.50698	-19.0093	15.4373
 359	1	7	0.111943	-2.57808	-15.5189	12.0818
 360	1	7	0.160853	-4.60108	-11.3109	12.3485
 361	1	3	0.069306	-0.561384	-19.1941	13.9332
 362	1	4	-0.432857	-3.90408	-10.9938	14.3018
 363	1	3	0.042395	-4.37008	-9.18821	16.1579
 364	1	2	0.753764	-5.08108	-10.8479	14.9802
 365	1	1	-0.122098	-4.86408	-10.1537	16.3169
 366	1	3	0.030493	-4.22608	-10.7756	16.9562
 367	1	5	-0.562583	-6.17808	-11.1863	14.564
 368	1	3	0.048272	-5.82608	-9.98921	16.8174
 369	1	4	-0.191545	-3.46708	-13.4949	10.9831
 370	1	9	0.130627	-3.03308	-13.845	8.9771
 371	1	3	0.015236	-5.68608	-14.009	6.2842
 372	1	7	0.210365	-5.27808	-14.1688	11.8053
 373	1	1	-0.218842	-11.0831	-6.00591	5.0875
 374	1	2	0.68591	-11.6711	-7.28271	5.6561
 375	1	3	0.086668	-10.0601	-5.87831	5.4621
 376	1	3	0.071846	-11.6931	-5.14831	5.3915
 377	1	3	0.062371	-11.0631	-6.06451	3.9933
 378	1	4	-0.291145	-12.9411	-7.49531	5.1903
 379	1	1	-0.015993	-13.6491	-8.71351	5.5199
 380	1	5	-0.555985	-11.0931	-7.96121	6.4865
 381	1	2	0.652223	-10.3751	-9.92221	0.808202
 382	1	3	0.062504	-9.09208	-8.75441	-0.472998
 383	1	5	-0.583019	-10.8271	-10.6146	-0.0878978
 384	1	1	-0.168764	-9.39408	-8.78451	0.580702
 385	1	3	0.062846	-9.86008	-7.83111	0.854302
 386	1	4	-0.264747	-10.6381	-10.0876	2.1356
 387	1	3	0.073216	-8.50408	-8.93641	1.2028
 388	1	1	-0.015836	-11.3501	-11.3165	4.1022
 389	1	1	0.044531	-11.5121	-11.1578	2.5762
 390	1	1	0.341309	-12.9861	-10.8573	2.2048
 391	1	1	0.132892	-13.6361	-9.76661	3.1009
 392	1	6	-0.74435	-13.7511	-12.0649	2.2433
 393	1	7	-0.00272	-13.0091	-10.4986	1.1707
 394	1	1	-0.008403	-13.2281	-9.89421	4.6023
 395	1	4	-0.239698	-11.8131	-10.1175	4.7381
 396	1	7	0.089672	-14.7271	-8.55041	5.3972
 397	1	7	0.088396	-13.4701	-8.98421	6.57
 398	1	7	0.05623	-13.7421	-10.7845	4.989
 399	1	7	0.125955	-11.2181	-12.0958	2.088
 400	1	8	0.456798	-14.4421	-11.9238	1.5403
 401	1	9	0.198085	-8.01108	-14.7065	6.1733
 402	1	7	0.095469	-9.77108	-13.7696	7.8495
 403	1	1	-0.308877	-8.08408	-13.6538	6.4776
 404	1	8	0.426958	-8.52608	-11.0512	7.9103
 405	1	6	-0.128067	-7.20208	-13.4776	7.5974
 406	1	1	0.005701	-9.56908	-13.3693	6.8503
 407	1	7	0.239394	-7.30908	-11.0428	6.361
 408	1	5	-0.48496	-12.3251	-13.9155	7.1205
 409	1	1	-0.003409	-9.36408	-11.1234	5.624
 410	1	2	0.352525	-11.7151	-14.2901	6.1341
 411	1	6	-0.665659	-9.47508	-11.2666	8.0524
 412	1	1	-0.510331	-7.84708	-11.4191	5.4823
 413	1	1	0.240953	-9.95708	-11.8651	6.8484
 414	1	4	0.015262	-7.68208	-12.8425	5.353
 415	1	4	0.176506	-10.3821	-14.0921	5.9029
 416	1	3	0.090205	-12.1701	-14.5205	4.0311
 417	1	1	-0.197476	-12.3861	-15.0242	4.9815
 418	1	1	-0.039041	-7.24108	-10.7671	4.2261
 419	1	7	0.144117	-7.57808	-11.2925	3.3183
 420	1	3	0.104606	-13.4721	-15.0368	5.1363
 421	1	7	0.111943	-11.0511	-11.7583	6.8322
 422	1	7	0.160853	-7.56208	-9.71691	4.1423
 423	1	3	0.069306	-12.0181	-16.0558	4.9302
 424	1	4	-0.432857	-5.81008	-10.8442	4.3652
 425	1	3	0.042395	-3.31408	-11.5159	3.7733
 426	1	2	0.753764	-5.03908	-10.2838	3.3858
 427	1	1	-0.122098	-3.55808	-10.4506	3.6887
 428	1	3	0.030493	-3.31408	-9.95711	4.6376
 429	1	5	-0.562583	-5.47408	-9.72251	2.3938
 430	1	3	0.048272	-2.95808	-10.0058	2.8858
 431	1	4	-0.191545	-9.96308	-11.586	4.3869
 432	1	9	0.130627	-11.9641	-12.157	4.4476
 433	1	3	0.015236	-14.7211	-9.93091	3.0787
 434	1	7	0.210365	-9.54808	-10.0431	5.7536
 435	1	1	-0.218842	-20.0541	-3.30341	-4.2485
 436	1	2	0.68591	-20.6191	-4.60471	-3.7079
 437	1	3	0.086668	-20.8681	-2.59711	-4.448
 438	1	3	0.071846	-19.4971	-3.48871	-5.1728
 439	1	3	0.062371	-19.3731	-2.86951	-3.5072
 440	1	4	-0.291145	-19.6451	-5.55181	-3.5624
 441	1	1	-0.015993	-19.9751	-6.79041	-2.9006
 442	1	5	-0.555985	-21.8031	-4.78291	-3.4741
 443	1	2	0.652223	-18.1921	-9.23941	2.3069
 444	1	3	0.062504	-18.8521	-11.2813	2.4908
 445	1	5	-0.583019	-17.6221	-8.58771	3.1688
 446	1	1	-0.168764	-17.9851	-10.7316	2.1077
 447	1	3	0.062846	-17.8721	-10.9561	1.0409
 448	1	4	-0.264747	-19.1121	-8.75291	1.4243
 449	1	3	0.073216	-17.0831	-11.0579	2.639
 450	1	1	-0.015836	-18.4891	-6.50971	0.541902
 451	1	1	0.044531	-19.4691	-7.34771	1.4159
 452	1	1	0.341309	-20.9241	-7.24171	0.895702
 453	1	1	0.132892	-21.0111	-7.46641	-0.641898
 454	1	6	-0.74435	-21.4651	-5.96441	1.2537
 455	1	7	-0.00272	-21.5221	-8.00811	1.4044
 456	1	1	-0.008403	-20.0031	-6.54761	-1.3739
 457	1	4	-0.239698	-18.6791	-6.79781	-0.859498
 458	1	7	0.089672	-19.2321	-7.56411	-3.1346
 459	1	7	0.088396	-20.9561	-7.14811	-3.2386
 460	1	7	0.05623	-20.2861	-5.50511	-1.1737
 461	1	7	0.125955	-19.4611	-6.95671	2.4421
 462	1	8	0.456798	-22.4071	-5.97831	1.0006
 463	1	9	0.198085	-15.3591	-8.37001	1.9667
 464	1	7	0.095469	-13.5811	-5.96681	2.5233
 465	1	1	-0.308877	-14.4041	-7.85551	1.7942
 466	1	8	0.426958	-13.6151	-5.72421	-0.00289783
 467	1	6	-0.128067	-13.3501	-8.46881	2.5494
 468	1	1	0.005701	-14.5561	-6.37101	2.2213
 469	1	7	0.239394	-14.7871	-7.17891	-1.4211
 470	1	5	-0.48496	-15.0851	-4.19861	3.9632
 471	1	1	-0.003409	-16.0401	-6.30761	0.143402
 472	1	2	0.352525	-15.5871	-5.29151	4.158
 473	1	6	-0.665659	-14.0831	-4.93061	0.328702
 474	1	1	-0.510331	-15.2311	-7.50981	-0.470498
 475	1	1	0.240953	-15.1531	-5.47351	1.0964
 476	1	4	0.015262	-14.1381	-7.92361	0.387402
 477	1	4	0.176506	-15.4281	-6.39391	3.3689
 478	1	3	0.090205	-17.4251	-6.03361	5.0149
 479	1	1	-0.197476	-16.4821	-5.58711	5.3513
 480	1	1	-0.039041	-16.1111	-8.73291	-0.811498
 481	1	7	0.144117	-16.5301	-9.17981	0.0986022
 482	1	3	0.104606	-16.6931	-4.65811	5.894
 483	1	7	0.111943	-15.7451	-4.65461	1.5294
 484	1	7	0.160853	-16.9551	-8.42451	-1.4441
 485	1	3	0.069306	-15.9781	-6.29031	6.0251
 486	1	4	-0.432857	-15.2891	-9.65641	-1.5465
 487	1	3	0.042395	-13.6631	-12.5504	-1.4421
 488	1	2	0.753764	-14.8871	-10.8334	-0.976698
 489	1	1	-0.122098	-13.9871	-11.6182	-1.919
 490	1	3	0.030493	-13.1031	-11.0202	-2.1715
 491	1	5	-0.562583	-15.2611	-11.2525	0.111502
 492	1	3	0.048272	-14.5301	-11.8524	-2.8414
 493	1	4	-0.191545	-17.1371	-6.80451	0.944302
 494	1	9	0.130627	-18.6951	-5.44291	0.708002
 495	1	3	0.015236	-22.0221	-7.19861	-0.983098
 496	1	7	0.210365	-16.4131	-5.64561	-0.652998
 497	1	1	-0.218842	-28.3131	-10.5676	-5.8631
 498	1	2	0.68591	-27.3901	-11.7731	-5.8395
 499	1	3	0.086668	-28.0261	-9.89551	-6.6787
 500	1	3	0.071846	-28.2481	-10.0326	-4.908
 501	1	3	0.062371	-29.3481	-10.8949	-6.0133
 502	1	4	-0.291145	-27.8541	-12.7297	-4.9832
 503	1	1	-0.015993	-27.1481	-13.9755	-4.8205
 504	1	5	-0.555985	-26.3991	-11.8723	-6.5503
 505	1	2	0.652223	-22.8941	-16.1942	-1.3734
 506	1	3	0.062504	-21.3361	-17.4958	-2.0937
 507	1	5	-0.583019	-23.2901	-16.9153	-0.475298
 508	1	1	-0.168764	-21.5951	-16.4312	-2.1218
 509	1	3	0.062846	-21.6951	-16.115	-3.1648
 510	1	4	-0.264747	-23.5351	-15.0654	-1.798
 511	1	3	0.073216	-20.7911	-15.8516	-1.6558
 512	1	1	-0.015836	-25.1791	-13.2478	-1.6851
 513	1	1	0.044531	-24.7951	-14.6736	-1.1875
 514	1	1	0.341309	-25.9271	-15.6921	-1.5007
 515	1	1	0.132892	-26.3701	-15.588	-2.9799
 516	1	6	-0.74435	-27.0311	-15.4468	-0.618898
 517	1	7	-0.00272	-25.5771	-16.7135	-1.3166
 518	1	1	-0.008403	-26.7611	-14.132	-3.3317
 519	1	4	-0.239698	-25.6231	-13.2839	-3.0603
 520	1	7	0.089672	-26.2431	-14.0177	-5.438
 521	1	7	0.088396	-27.8041	-14.8013	-5.1248
 522	1	7	0.05623	-27.6161	-13.8316	-2.7117
 523	1	7	0.125955	-24.6751	-14.6573	-0.0975978
 524	1	8	0.456798	-27.5861	-16.2511	-0.644298
 525	1	9	0.198085	-22.4171	-9.37691	-2.0617
 526	1	7	0.095469	-20.2511	-11.1885	-1.249
 527	1	1	-0.308877	-21.8681	-9.71001	-1.1731
 528	1	8	0.426958	-21.6181	-11.0358	1.0562
 529	1	6	-0.128067	-20.7481	-8.84111	-0.979798
 530	1	1	0.005701	-21.3411	-11.1616	-1.3907
 531	1	7	0.239394	-24.3701	-10.4605	0.942502
 532	1	5	-0.48496	-20.3191	-13.4145	-2.7435
 533	1	1	-0.003409	-23.5211	-11.9832	-0.358998
 534	1	2	0.352525	-21.0991	-12.663	-3.304
 535	1	6	-0.665659	-21.4501	-11.9861	0.888002
 536	1	1	-0.510331	-23.9221	-10.496	-0.0616978
 537	1	1	0.240953	-21.9881	-12.186	-0.417698
 538	1	4	0.015262	-22.7581	-9.64611	-0.0417978
 539	1	4	0.176506	-21.6321	-11.5251	-2.7607
 540	1	3	0.090205	-22.6861	-13.0508	-4.7066
 541	1	1	-0.197476	-21.5991	-12.911	-4.7182
 542	1	1	-0.039041	-24.9691	-9.89271	-1.0263
 543	1	7	0.144117	-24.5501	-9.72411	-2.0282
 544	1	3	0.104606	-21.1261	-13.8104	-5.1291
 545	1	7	0.111943	-21.7681	-13.2121	-0.739798
 546	1	7	0.160853	-25.8271	-10.5715	-1.1423
 547	1	3	0.069306	-21.3591	-12.0556	-5.3602
 548	1	4	-0.432857	-25.4091	-8.66351	-0.425598
 549	1	3	0.042395	-27.7971	-6.37531	-0.492998
 550	1	2	0.753764	-26.4581	-7.99561	-0.989098
 551	1	1	-0.122098	-26.8131	-6.74981	-0.191098
 552	1	3	0.030493	-26.0601	-5.97181	-0.363298
 553	1	5	-0.562583	-27.0631	-8.36981	-1.98
 554	1	3	0.048272	-26.8351	-6.98901	0.879002
 555	1	4	-0.191545	-24.0341	-12.3785	-1.6479
 556	1	9	0.130627	-25.9891	-12.8461	-1.0622
 557	1	3	0.015236	-27.2441	-16.2317	-3.1395
 558	1	7	0.210365	-23.9021	-12.6436	0.433502
 559	1	1	-0.218842	-19.3511	-17.2274	-10.5751
 560	1	2	0.68591	-20.1351	-15.9372	-10.7229
 561	1	3	0.086668	-19.8321	-18.0192	-11.1607
 562	1	3	0.071846	-19.3191	-17.5262	-9.5206
 563	1	3	0.062371	-18.3281	-17.0774	-10.9367
 564	1	4	-0.291145	-19.5851	-14.9362	-9.9666
 565	1	1	-0.015993	-20.2261	-13.6421	-9.9183
 566	1	5	-0.555985	-21.0681	-15.8093	-11.5003
 567	1	2	0.652223	-25.0451	-15.0344	-10.5223
 568	1	3	0.062504	-25.6141	-15.8636	-12.4248
 569	1	5	-0.583019	-25.7991	-15.7401	-9.87
 570	1	1	-0.168764	-24.8801	-15.1546	-12.0269
 571	1	3	0.062846	-25.0231	-14.1779	-12.5012
 572	1	4	-0.264747	-24.3341	-13.9802	-10.0273
 573	1	3	0.073216	-23.8691	-15.5131	-12.2538
 574	1	1	-0.015836	-23.2191	-14.8024	-7.9957
 575	1	1	0.044531	-24.2041	-13.7737	-8.5958
 576	1	1	0.341309	-23.6041	-12.3731	-8.3518
 577	1	1	0.132892	-22.1111	-12.265	-8.8395
 578	1	6	-0.74435	-23.7671	-12.0652	-6.9556
 579	1	7	-0.00272	-24.2001	-11.6474	-8.9185
 580	1	1	-0.008403	-21.2701	-13.5897	-8.7728
 581	1	4	-0.239698	-22.0791	-14.7878	-8.8541
 582	1	7	0.089672	-20.7011	-13.4138	-10.8818
 583	1	7	0.088396	-19.4641	-12.8755	-9.737
 584	1	7	0.05623	-20.7371	-13.6086	-7.8144
 585	1	7	0.125955	-25.1831	-13.8451	-8.1057
 586	1	8	0.456798	-24.7511	-11.9601	-6.7995
 587	1	9	0.198085	-25.4051	-17.9809	-3.2984
 588	1	7	0.095469	-27.0491	-17.1307	-5.2732
 589	1	1	-0.308877	-25.1821	-17.377	-4.1872
 590	1	8	0.426958	-26.1991	-16.649	-8.4643
 591	1	6	-0.128067	-25.3001	-15.9937	-3.8435
 592	1	1	0.005701	-26.1381	-17.7342	-5.3653
 593	1	7	0.239394	-22.8601	-15.9325	-5.1918
 594	1	5	-0.48496	-27.7341	-18.832	-3.3386
 595	1	1	-0.003409	-24.4101	-16.3961	-6.657
 596	1	2	0.352525	-27.2951	-19.5425	-4.229
 597	1	6	-0.665659	-26.5891	-16.9882	-7.6049
 598	1	1	-0.510331	-23.2901	-16.8309	-5.6506
 599	1	1	0.240953	-25.5301	-17.459	-6.772
 600	1	4	0.015262	-23.8411	-17.6685	-4.6086
 601	1	4	0.176506	-26.5191	-19.1201	-5.2794
 602	1	3	0.090205	-28.5781	-21.2316	-3.8714
 603	1	1	-0.197476	-27.5761	-21.038	-4.2747
 604	1	1	-0.039041	-22.1531	-17.6627	-6.2852
 605	1	7	0.144117	-22.5041	-18.6717	-6.5428
 606	1	3	0.104606	-26.8371	-21.5713	-3.6648
 607	1	7	0.111943	-25.0861	-18.3796	-7.177
 608	1	7	0.160853	-21.7711	-17.1976	-7.2077
 609	1	3	0.069306	-27.5311	-21.4129	-5.3046
 610	1	4	-0.432857	-21.1031	-17.7195	-5.3033
 611	1	3	0.042395	-18.9601	-19.3052	-3.8886
 612	1	2	0.753764	-19.9751	-18.4384	-5.5827
 613	1	1	-0.122098	-18.9581	-18.3635	-4.451
 614	1	3	0.030493	-19.2001	-17.5437	-3.7636
 615	1	5	-0.562583	-19.7831	-19.0488	-6.6216
 616	1	3	0.048272	-17.9571	-18.1915	-4.8657
 617	1	4	-0.191545	-23.8101	-16.1171	-7.9373
 618	1	9	0.130627	-22.9031	-14.4944	-6.9875
 619	1	3	0.015236	-22.1511	-11.9289	-9.8817
 620	1	7	0.210365	-24.9061	-15.4899	-6.2873
 621	1	1	-0.218842	-11.9511	-9.49711	-8.6396
 622	1	2	0.68591	-13.3651	-8.98421	-8.8403
 623	1	3	0.086668	-11.7641	-9.66351	-7.5726
 624	1	3	0.071846	-11.2341	-8.75691	-9.0106
 625	1	3	0.062371	-11.8111	-10.4401	-9.1816
 626	1	4	-0.291145	-13.5351	-7.76271	-8.2522
 627	1	1	-0.015993	-14.8091	-7.08721	-8.321
 628	1	5	-0.555985	-14.2351	-9.62821	-9.4015
 629	1	2	0.652223	-18.6981	-3.33641	-11.6067