pySIMM System Object

994 atoms
1025 bonds
1888 angles
2621 dihedrals
64 impropers

9 atom types
10 bond types
23 angle types
20 dihedral types
1 improper types

-145.297451 145.297451 xlo xhi
-145.297451 145.297451 ylo yhi
-145.297451 145.297451 zlo zhi

Masses

   1	12.01	# c3
   2	12.01	# c
   3	1.008	# hc
   4	16.0	# os
   5	16.0	# o
   6	16.0	# oh
   7	1.008	# h1
   8	1.008	# ho
   9	1.008	# h2

Pair Coeffs

   1	0.1094	3.3996695084235347	# c3
   2	0.086	3.3996695084235347	# c
   3	0.0157	2.649532787749369	# hc
   4	0.17	3.0000123434657784	# os
   5	0.21	2.959921901149463	# o
   6	0.2104	3.0664733878390478	# oh
   7	0.0157	2.471353044121301	# h1
   8	0.0047	0.5379246460131368	# ho
   9	0.0157	2.2931733004932333	# h2

Bond Coeffs

   1	331.7	1.0961	# c3,h2
   2	637.7	1.2183	# c,o
   3	300.9	1.5375	# c3,c3
   4	330.6	1.0969	# c3,hc
   5	316.7	1.4233	# c3,oh
   6	330.6	1.0969	# c3,h1
   7	371.4	0.973	# ho,oh
   8	308.6	1.4316	# c3,os
   9	313.0	1.5241	# c,c3
  10	390.8	1.3584	# c,os

Angle Coeffs

   1	46.93	108.77	# c,c3,hc
   2	67.4	123.2	# c3,c,o
   3	68.0	107.97	# c3,c3,os
   4	46.39	109.56	# c3,c3,h1
   5	46.25	110.22	# c3,c3,h2
   6	62.86	111.51	# c3,c3,c3
   7	68.89	110.72	# c3,c,os
   8	72.58	109.38	# oh,c3,os
   9	75.32	123.25	# o,c,os
  10	67.47	110.19	# c3,c3,oh
  11	46.34	109.8	# c3,c3,hc
  12	47.38	107.26	# c3,oh,ho
  13	39.24	108.46	# h1,c3,h1
  14	50.85	109.58	# h2,c3,os
  15	72.74	108.29	# os,c3,os
  16	50.8	109.78	# h1,c3,os
  17	63.28	115.98	# c,os,c3
  18	62.7	112.48	# c3,os,c3
  19	50.93	110.26	# h1,c3,oh
  20	39.4	107.58	# hc,c3,hc
  21	51.13	109.43	# h2,c3,oh
  22	51.11	109.5	# hc,c3,oh
  23	62.7	112.48	# c3,oh,c3

Dihedral Coeffs

   1	3	0.18	3	0	0.25	2	180	0.2	1	180	# c3,c3,c3,c3
   2	1	0.3833333333333333	3	0	# X,c3,os,X
   3	2	0.144	3	0	1.175	2	0	# os,c3,c3,oh
   4	3	0.1	3	0	0.85	2	180	1.35	1	180	# c3,os,c3,os
   5	2	0.144	3	0	1.175	2	0	# os,c3,c3,os
   6	3	2.7	2	180	0.0	1	0	1.15	3	0	# c3,c,os,c3
   7	2	0.0	3	0	0.25	1	0	# hc,c3,c3,oh
   8	1	0.16	3	0	# hc,c3,c3,c3
   9	1	0.15555555555555556	3	0	# X,c3,c3,X
  10	2	0.16	3	0	0.25	1	0	# ho,oh,c3,c3
  11	2	0.383	3	0	0.8	1	180	# c3,c3,os,c
  12	1	0.0	2	180	# X,c,c3,X
  13	2	2.7	2	180	1.4	1	180	# o,c,os,c3
  14	2	0.0	3	0	0.25	1	0	# hc,c3,c3,os
  15	2	0.0	3	0	0.25	1	0	# h1,c3,c3,oh
  16	1	0.16666666666666666	3	0	# X,c3,oh,X
  17	3	0.8	1	0	0.0	2	0	0.08	3	180	# hc,c3,c,o
  18	2	0.0	3	0	0.25	1	0	# h1,c3,c3,os
  19	2	0.383	3	0	0.1	2	180	# c3,c3,os,c3
  20	2	0.144	3	0	1.175	2	0	# oh,c3,c3,oh

Improper Coeffs

   1	10.5	-1	2	# c,X,X,o

Atoms

   1	1	1	-0.218842	-24.5084	-18.9521	-17.7753
   2	1	2	0.68591	-23.2362	-18.1681	-17.5126
   3	1	3	0.086668	-24.3377	-19.6602	-18.5938
   4	1	3	0.071846	-25.318	-18.2665	-18.0497
   5	1	3	0.062371	-24.7938	-19.5098	-16.8756
   6	1	4	-0.291145	-22.2452	-18.9756	-17.0376
   7	1	1	-0.015993	-20.9559	-18.3981	-16.7519
   8	1	5	-0.555985	-23.1284	-16.9732	-17.7229
   9	1	2	0.652223	-16.5625	-22.5427	-13.8403
  10	1	3	0.062504	-16.5102	-23.3803	-11.8567
  11	1	5	-0.583019	-16.2688	-22.9284	-14.9592
  12	1	1	-0.168764	-15.8127	-22.952	-12.583
  13	1	3	0.062846	-15.0513	-23.6971	-12.8366
  14	1	4	-0.264747	-17.5979	-21.7	-13.5641
  15	1	3	0.073216	-15.329	-22.0772	-12.1373
  16	1	1	-0.015836	-19.5448	-20.3606	-13.8781
  17	1	1	0.044531	-18.4534	-21.1646	-14.6073
  18	1	1	0.341309	-17.6615	-20.2462	-15.5868
  19	1	1	0.132892	-18.5382	-19.1174	-16.224
  20	1	6	-0.74435	-17.0786	-21.0386	-16.6271
  21	1	7	-0.00272	-16.8469	-19.784	-15.0168
  22	1	1	-0.008403	-20.0423	-19.5019	-16.1763
  23	1	4	-0.239698	-20.4782	-19.7877	-14.8214
  24	1	7	0.089672	-21.0517	-17.5733	-16.0322
  25	1	7	0.088396	-20.5181	-17.996	-17.6744
  26	1	7	0.05623	-20.1654	-20.4048	-16.7852
  27	1	7	0.125955	-18.92	-21.9775	-15.1706
  28	1	8	0.456798	-16.6459	-21.8119	-16.1651
  29	1	9	0.198085	-19.6674	-17.7523	-9.24398
  30	1	7	0.095469	-17.5532	-18.7314	-8.96895
  31	1	1	-0.308877	-18.8571	-17.1935	-9.70962
  32	1	8	0.426958	-16.4532	-20.297	-10.3844
  33	1	6	-0.128067	-18.5794	-16.0869	-8.85679
  34	1	1	0.005701	-17.6311	-18.1261	-9.87952
  35	1	7	0.239394	-20.8687	-18.081	-10.9568
  36	1	5	-0.48496	-15.0607	-19.2112	-9.92101
  37	1	1	-0.003409	-19.1639	-19.0957	-11.8078
  38	1	2	0.352525	-15.1975	-18.0019	-10.0395
  39	1	6	-0.665659	-17.3903	-20.3955	-10.7087
  40	1	1	-0.510331	-20.0436	-17.812	-11.6308
  41	1	1	0.240953	-17.7667	-19.076	-11.1088
  42	1	4	0.015262	-19.2824	-16.7704	-11.0036
  43	1	4	0.176506	-16.4037	-17.3501	-10.0283
  44	1	3	0.090205	-14.0329	-16.526	-11.1507
  45	1	1	-0.197476	-13.9882	-17.0966	-10.2119
  46	1	1	-0.039041	-20.749	-17.2772	-12.9103
  47	1	7	0.144117	-20.0343	-17.0629	-13.7243
  48	1	3	0.104606	-13.0885	-17.7307	-10.2369
  49	1	7	0.111943	-17.0522	-18.7403	-11.8693
  50	1	7	0.160853	-21.4483	-18.0393	-13.2931
  51	1	3	0.069306	-13.893	-16.3966	-9.37264
  52	1	4	-0.432857	-21.4792	-16.0743	-12.5663
  53	1	3	0.042395	-22.4172	-14.13	-10.9907
  54	1	2	0.753764	-22.6185	-16.1188	-11.8041
  55	1	1	-0.122098	-23.1569	-14.714	-11.5508
  56	1	3	0.030493	-24.0909	-14.7527	-10.9787
  57	1	5	-0.562583	-23.1797	-17.1378	-11.4343
  58	1	3	0.048272	-23.3438	-14.2185	-12.5098
  59	1	4	-0.191545	-18.8765	-19.2786	-13.2035
  60	1	9	0.130627	-20.0851	-21.0035	-13.1687
  61	1	3	0.015236	-18.2623	-19.0164	-17.2812
  62	1	7	0.210365	-19.6954	-19.9678	-11.4049
  63	1	1	-0.218842	-15.1105	-10.4037	-19.8852
  64	1	2	0.68591	-13.7393	-11.0536	-19.9317
  65	1	3	0.086668	-15.6732	-10.7969	-19.0308
  66	1	3	0.071846	-15.6583	-10.6176	-20.8095
  67	1	3	0.062371	-15.0021	-9.31999	-19.7658
  68	1	4	-0.291145	-13.0985	-10.9438	-18.7305
  69	1	1	-0.015993	-11.7921	-11.5285	-18.549
  70	1	5	-0.555985	-13.2624	-11.5514	-20.9394
  71	1	2	0.652223	-10.9175	-15.4105	-14.5408
  72	1	3	0.062504	-9.01441	-14.8139	-13.7318
  73	1	5	-0.583019	-11.6807	-16.3136	-14.2263
  74	1	1	-0.168764	-10.079	-14.6508	-13.5297
  75	1	3	0.062846	-10.2965	-13.5788	-13.6032
  76	1	4	-0.264747	-10.6535	-15.0063	-15.8163
  77	1	3	0.073216	-10.3137	-14.997	-12.5166
  78	1	1	-0.015836	-12.7803	-14.7898	-17.0464
  79	1	1	0.044531	-11.4206	-15.5265	-16.9321
  80	1	1	0.341309	-10.6074	-15.2982	-18.2301
  81	1	1	0.132892	-10.5419	-13.7827	-18.6178
  82	1	6	-0.74435	-11.1941	-16.091	-19.2671
  83	1	7	-0.00272	-9.58545	-15.6593	-18.059
  84	1	1	-0.008403	-11.9156	-13.0705	-18.4803
  85	1	4	-0.239698	-12.5095	-13.392	-17.2116
  86	1	7	0.089672	-11.3488	-11.1601	-17.6151
  87	1	7	0.088396	-11.1358	-11.2321	-19.3778
  88	1	7	0.05623	-12.5699	-13.4258	-19.2873
  89	1	7	0.125955	-11.5868	-16.6053	-16.816
  90	1	8	0.456798	-10.5445	-16.0647	-20.0011
  91	1	9	0.198085	-16.3143	-18.0096	-16.133
  92	1	7	0.095469	-16.5605	-17.5422	-13.6402
  93	1	1	-0.308877	-17.0157	-17.2605	-15.7446
  94	1	8	0.426958	-13.2777	-16.7709	-13.9453
  95	1	6	-0.128067	-18.3237	-17.8296	-15.6181
  96	1	1	0.005701	-16.5344	-16.7296	-14.3739
  97	1	7	0.239394	-15.4693	-15.838	-17.9228
  98	1	5	-0.48496	-16.4672	-15.238	-11.933
  99	1	1	-0.003409	-14.617	-15.9586	-15.9224
 100	1	2	0.352525	-17.3481	-15.0591	-12.7566
 101	1	6	-0.665659	-14.2125	-17.104	-13.8192
 102	1	1	-0.510331	-15.7605	-15.5157	-16.9133
 103	1	1	0.240953	-15.0883	-16.1724	-14.4616
 104	1	4	0.015262	-17.0359	-16.1368	-16.6323
 105	1	4	0.176506	-17.4604	-15.6976	-13.9614
 106	1	3	0.090205	-18.1703	-13.3185	-11.7814
 107	1	1	-0.197476	-18.4492	-14.0221	-12.5746
 108	1	1	-0.039041	-16.025	-13.9882	-16.9715
 109	1	7	0.144117	-15.198	-13.4899	-17.5005
 110	1	3	0.104606	-19.3842	-14.5175	-12.2947
 111	1	7	0.111943	-15.0345	-15.2007	-13.9525
 112	1	7	0.160853	-16.9483	-13.7699	-17.531
 113	1	3	0.069306	-18.6172	-13.4739	-13.5085
 114	1	4	-0.432857	-16.1167	-13.4723	-15.6285
 115	1	3	0.042395	-17.0821	-11.6499	-13.6077
 116	1	2	0.753764	-16.078	-12.1169	-15.4566
 117	1	1	-0.122098	-16.0574	-11.7373	-13.9828
 118	1	3	0.030493	-15.5451	-10.7772	-13.8506
 119	1	5	-0.562583	-16.0467	-11.3039	-16.3655
 120	1	3	0.048272	-15.5288	-12.5041	-13.4036
 121	1	4	-0.191545	-13.5838	-14.9522	-15.8696
 122	1	9	0.130627	-13.3283	-15.1528	-17.926
 123	1	3	0.015236	-9.82904	-13.2869	-17.9454
 124	1	7	0.210365	-14.1936	-16.916	-16.2572
 125	1	1	-0.218842	-5.53097	-17.503	-17.2643
 126	1	2	0.68591	-4.48926	-17.6836	-18.3558
 127	1	3	0.086668	-6.29689	-16.8	-17.6063
 128	1	3	0.071846	-5.06246	-17.1093	-16.3551
 129	1	3	0.062371	-5.9992	-18.4674	-17.0375
 130	1	4	-0.291145	-3.45205	-16.8044	-18.2041
 131	1	1	-0.015993	-2.36766	-16.8048	-19.1589
 132	1	5	-0.555985	-4.52725	-18.5969	-19.1623
 133	1	2	0.652223	-3.76975	-18.754	-23.9369
 134	1	3	0.062504	-4.50343	-20.6343	-24.6922
 135	1	5	-0.583019	-2.7998	-18.6877	-24.6768
 136	1	1	-0.168764	-4.69005	-19.9585	-23.8497
 137	1	3	0.062846	-4.51072	-20.4902	-22.9082
 138	1	4	-0.264747	-4.16075	-17.7609	-23.0889
 139	1	3	0.073216	-5.73597	-19.631	-23.8731
 140	1	1	-0.015836	-4.15664	-15.5171	-22.1281
 141	1	1	0.044531	-3.40126	-16.5291	-23.0253
 142	1	1	0.341309	-1.9736	-16.8342	-22.4757
 143	1	1	0.132892	-1.55143	-15.793	-21.4097
 144	1	6	-0.74435	-1.05145	-16.8792	-23.5701
 145	1	7	-0.00272	-1.98664	-17.817	-21.9873
 146	1	1	-0.008403	-2.6004	-15.7244	-20.2481
 147	1	4	-0.239698	-3.94463	-15.9043	-20.7591
 148	1	7	0.089672	-2.23997	-17.795	-19.6175
 149	1	7	0.088396	-1.44008	-16.5644	-18.6286
 150	1	7	0.05623	-2.52646	-14.734	-19.7812
 151	1	7	0.125955	-3.31306	-16.0902	-24.0278
 152	1	8	0.456798	-1.41337	-17.5884	-24.1674
 153	1	9	0.198085	-8.07716	-13.4561	-19.5871
 154	1	7	0.095469	-8.22971	-12.1074	-21.548
 155	1	1	-0.308877	-8.76224	-13.8378	-20.356
 156	1	8	0.426958	-7.11511	-12.3274	-23.7356
 157	1	6	-0.128067	-10.1194	-13.5843	-19.9779
 158	1	1	0.005701	-8.46518	-13.165	-21.7266
 159	1	7	0.239394	-6.71115	-15.4975	-19.5846
 160	1	5	-0.48496	-8.87573	-11.9374	-24.2516
 161	1	1	-0.003409	-6.37502	-14.6827	-21.5813
 162	1	2	0.352525	-9.76143	-12.5984	-23.7327
 163	1	6	-0.665659	-6.505	-12.8061	-23.1172
 164	1	1	-0.510331	-7.16192	-15.6033	-20.5795
 165	1	1	0.240953	-7.28563	-13.8305	-22.4961
 166	1	4	0.015262	-8.54955	-15.2372	-20.5293
 167	1	4	0.176506	-9.65984	-13.2584	-22.5398
 168	1	3	0.090205	-11.2016	-12.2378	-25.3013
 169	1	1	-0.197476	-11.1318	-12.8034	-24.3644
 170	1	1	-0.039041	-7.14033	-17.1051	-20.9402
 171	1	7	0.144117	-7.62001	-17.275	-21.9159
 172	1	3	0.104606	-11.9143	-12.4545	-23.6779
 173	1	7	0.111943	-7.69459	-14.5137	-23.2548
 174	1	7	0.160853	-6.10806	-17.4887	-21.0063
 175	1	3	0.069306	-11.2955	-13.8674	-24.5734
 176	1	4	-0.432857	-7.85323	-17.7842	-19.8909
 177	1	3	0.042395	-8.33373	-19.5435	-17.9351
 178	1	2	0.753764	-8.10655	-19.1192	-20.0362
 179	1	1	-0.122098	-8.91048	-19.6539	-18.8603
 180	1	3	0.030493	-9.14967	-20.713	-19.0139
 181	1	5	-0.562583	-7.8144	-19.7784	-21.0201
 182	1	3	0.048272	-9.84322	-19.0852	-18.7644
 183	1	4	-0.191545	-5.55739	-15.4916	-22.4546
 184	1	9	0.130627	-3.75147	-14.5078	-22.2854
 185	1	3	0.015236	-1.54493	-14.8199	-21.917
 186	1	7	0.210365	-5.74504	-13.9732	-21.025
 187	1	1	-0.218842	5.62175	-17.0898	-24.2624
 188	1	2	0.68591	6.58057	-16.1221	-23.5939
 189	1	3	0.086668	5.8977	-17.2161	-25.3147
 190	1	3	0.071846	4.60166	-16.6912	-24.2075
 191	1	3	0.062371	5.65295	-18.0615	-23.7565
 192	1	4	-0.291145	6.49297	-14.8754	-24.1483
 193	1	1	-0.015993	7.21698	-13.7482	-23.5968
 194	1	5	-0.555985	7.3274	-16.4392	-22.6812
 195	1	2	0.652223	3.84794	-9.19674	-21.6393
 196	1	3	0.062504	1.73161	-9.14058	-22.0342
 197	1	5	-0.583019	4.62943	-8.47852	-21.0382
 198	1	1	-0.168764	2.64985	-8.68293	-22.4205
 199	1	3	0.062846	2.57599	-7.59384	-22.323
 200	1	4	-0.264747	3.95356	-10.5514	-21.7274
 201	1	3	0.073216	2.75228	-8.94734	-23.4789
 202	1	1	-0.015836	4.61528	-12.7952	-21.0969
 203	1	1	0.044531	4.96084	-11.2884	-20.981
 204	1	1	0.341309	6.37524	-10.9707	-21.5478
 205	1	1	0.132892	7.35127	-12.1864	-21.511
 206	1	6	-0.74435	6.93614	-9.81961	-20.9101
 207	1	7	-0.00272	6.24187	-10.7261	-22.6097
 208	1	1	-0.008403	6.71343	-13.4626	-22.1609
 209	1	4	-0.239698	5.27719	-13.3323	-22.2538
 210	1	7	0.089672	7.04995	-12.863	-24.2244
 211	1	7	0.088396	8.29474	-13.9593	-23.581
 212	1	7	0.05623	6.96166	-14.3388	-21.5609
 213	1	7	0.125955	4.93062	-11.0115	-19.9212
 214	1	8	0.456798	6.20095	-9.14454	-20.884
 215	1	9	0.198085	-0.147488	-14.8638	-19.2598
 216	1	7	0.095469	1.92374	-16.3674	-19.3409
 217	1	1	-0.308877	0.413987	-15.0292	-20.1901
 218	1	8	0.426958	1.55621	-16.446	-22.0381
 219	1	6	-0.128067	-0.227382	-16.0839	-20.9235
 220	1	1	0.005701	1.87736	-15.3819	-19.8216
 221	1	7	0.239394	0.718072	-14.5466	-22.8451
 222	1	5	-0.48496	4.40789	-15.0098	-18.5292
 223	1	1	-0.003409	2.63792	-14.0876	-21.9003
 224	1	2	0.352525	3.45475	-14.2925	-18.274
 225	1	6	-0.665659	2.52882	-16.4956	-21.8873
 226	1	1	-0.510331	1.1405	-13.7843	-22.1711
 227	1	1	0.240953	2.82272	-15.371	-21.0614
 228	1	4	0.015262	0.423446	-13.7844	-20.9228
 229	1	4	0.176506	2.22711	-14.3703	-18.8543
 230	1	3	0.090205	2.55536	-13.0492	-16.7449
 231	1	1	-0.197476	3.51101	-13.1538	-17.2714
 232	1	1	-0.039041	0.939145	-12.4043	-22.8219
 233	1	7	0.144117	1.06364	-11.6053	-22.0752
 234	1	3	0.104606	3.72005	-12.218	-17.7979
 235	1	7	0.111943	3.87277	-15.4461	-20.7588
 236	1	7	0.160853	1.67524	-12.234	-23.6223
 237	1	3	0.069306	4.2981	-13.3436	-16.5364
 238	1	4	-0.432857	-0.393075	-12.4063	-23.3578
 239	1	3	0.042395	-2.68279	-10.5173	-24.8365
 240	1	2	0.753764	-0.857406	-11.2766	-23.9648
 241	1	1	-0.122098	-2.28615	-11.4649	-24.4537
 242	1	3	0.030493	-2.9198	-11.8138	-23.6293
 243	1	5	-0.562583	-0.216571	-10.2466	-24.0972
 244	1	3	0.048272	-2.30586	-12.215	-25.2525
 245	1	4	-0.191545	3.18184	-12.9492	-21.1947
 246	1	9	0.130627	4.96568	-13.3187	-20.2039
 247	1	3	0.015236	8.2085	-11.9008	-22.1342
 248	1	7	0.210365	3.15601	-14.224	-22.8605
 249	1	1	-0.218842	6.58383	-18.9883	-10.0314
 250	1	2	0.68591	5.57011	-18.1566	-10.7952
 251	1	3	0.086668	6.12872	-19.9406	-9.73644
 252	1	3	0.071846	6.91268	-18.4492	-9.13647
 253	1	3	0.062371	7.45191	-19.1837	-10.6709
 254	1	4	-0.291145	6.00484	-16.872	-10.9781
 255	1	1	-0.015993	5.21299	-15.9677	-11.7807
 256	1	5	-0.555985	4.51751	-18.6075	-11.2129
 257	1	2	0.652223	5.45706	-17.9429	-18.1478
 258	1	3	0.062504	6.14506	-16.7231	-19.7991
 259	1	5	-0.583019	4.72288	-18.8403	-17.7754
 260	1	1	-0.168764	5.90865	-17.7725	-19.59
 261	1	3	0.062846	6.79916	-18.3837	-19.7709
 262	1	4	-0.264747	5.98794	-16.9961	-17.3238
 263	1	3	0.073216	5.10663	-18.094	-20.2648
 264	1	1	-0.015836	6.67004	-15.8847	-15.2854
 265	1	1	0.044531	5.69257	-16.9351	-15.9025
 266	1	1	0.341309	4.2147	-16.5528	-15.5811
 267	1	1	0.132892	4.00067	-16.3035	-14.0552
 268	1	6	-0.74435	3.27705	-17.5467	-16.0188
 269	1	7	-0.00272	4.00384	-15.6199	-16.1052
 270	1	1	-0.008403	5.33485	-16.3882	-13.2677
 271	1	4	-0.239698	6.32001	-15.5582	-13.9186
 272	1	7	0.089672	5.56705	-14.9357	-11.658
 273	1	7	0.088396	4.16435	-16.0023	-11.4541
 274	1	7	0.05623	5.67589	-17.4301	-13.3026
 275	1	7	0.125955	5.90162	-17.9143	-15.4533
 276	1	8	0.456798	3.74454	-18.1085	-16.7038
 277	1	9	0.198085	6.69354	-14.0464	-19.6828
 278	1	7	0.095469	9.58135	-13.6062	-18.8483
 279	1	1	-0.308877	7.45506	-13.3899	-19.2559
 280	1	8	0.426958	10.4484	-15.5093	-17.6201
 281	1	6	-0.128067	7.91009	-12.3899	-20.1869
 282	1	1	0.005701	8.69098	-14.2494	-18.8345
 283	1	7	0.239394	8.52602	-12.1051	-17.1914
 284	1	5	-0.48496	10.9405	-15.9354	-19.2035
 285	1	1	-0.003409	7.8325	-14.0154	-16.3897
 286	1	2	0.352525	9.95419	-16.0626	-19.9091
 287	1	6	-0.665659	9.86075	-15.2025	-16.8778
 288	1	1	-0.510331	7.56835	-12.5884	-16.9459
 289	1	1	0.240953	8.57557	-14.8998	-17.4253
 290	1	4	0.015262	6.80181	-12.7352	-18.1476
 291	1	4	0.176506	8.82077	-15.2945	-19.8311
 292	1	3	0.090205	10.6805	-17.8633	-20.8494
 293	1	1	-0.197476	9.85364	-17.1523	-20.967
 294	1	1	-0.039041	6.82854	-11.6639	-15.955
 295	1	7	0.144117	5.75835	-11.901	-15.8862
 296	1	3	0.104606	9.90499	-16.7082	-21.9676
 297	1	7	0.111943	8.0182	-15.8304	-17.552
 298	1	7	0.160853	7.26026	-11.7824	-14.9512
 299	1	3	0.069306	8.90616	-17.6945	-20.8703
 300	1	4	-0.432857	7.0513	-10.3132	-16.4041
 301	1	3	0.042395	6.07323	-7.93004	-18.5014
 302	1	2	0.753764	6.21202	-9.73067	-17.3181
 303	1	1	-0.122098	6.71348	-8.34961	-17.7162
 304	1	3	0.030493	7.74002	-8.42241	-18.0936
 305	1	5	-0.562583	5.128	-10.1721	-17.6544
 306	1	3	0.048272	6.7023	-7.68523	-16.8451
 307	1	4	-0.191545	6.57798	-14.6473	-16.0343
 308	1	9	0.130627	7.69528	-16.2766	-15.3134
 309	1	3	0.015236	3.36427	-17.1022	-13.6519
 310	1	7	0.210365	8.45959	-13.9389	-15.489
 311	1	1	-0.218842	-0.982121	-17.4814	-7.77485
 312	1	2	0.68591	-2.41601	-17.0884	-8.08113
 313	1	3	0.086668	-0.601909	-18.1284	-8.57283
 314	1	3	0.071846	-0.936713	-18.0156	-6.81886
 315	1	3	0.062371	-0.353734	-16.585	-7.71844
 316	1	4	-0.291145	-2.46819	-16.1935	-9.10832
 317	1	1	-0.015993	-3.7395	-15.7133	-9.59787
 318	1	5	-0.555985	-3.36645	-17.4174	-7.39277
 319	1	2	0.652223	-0.103714	-11.5942	-8.7382
 320	1	3	0.062504	0.87326	-13.2655	-7.79519
 321	1	5	-0.583019	-0.513607	-10.5187	-8.3415
 322	1	1	-0.168764	1.13561	-12.2806	-8.19684
 323	1	3	0.062846	1.86269	-12.415	-9.00194
 324	1	4	-0.264747	-0.702053	-12.3431	-9.70573
 325	1	3	0.073216	1.58298	-11.6717	-7.40325
 326	1	1	-0.015836	-2.20143	-12.8625	-11.5335
 327	1	1	0.044531	-1.89715	-11.8748	-10.3816
 328	1	1	0.341309	-3.10363	-11.7968	-9.40371
 329	1	1	0.132892	-3.52311	-13.1981	-8.88581
 330	1	6	-0.74435	-4.20635	-11.1499	-10.0493
 331	1	7	-0.00272	-2.83763	-11.1796	-8.53959
 332	1	1	-0.008403	-3.5896	-14.2432	-10.0539
 333	1	4	-0.239698	-2.45223	-14.1603	-10.9487
 334	1	7	0.089672	-4.51684	-15.7659	-8.82444
 335	1	7	0.088396	-4.06697	-16.3353	-10.441
 336	1	7	0.05623	-4.48701	-13.997	-10.6369
 337	1	7	0.125955	-1.72494	-10.8752	-10.8011
 338	1	8	0.456798	-4.69133	-10.6925	-9.33482
 339	1	9	0.198085	2.07818	-14.8762	-15.4135
 340	1	7	0.095469	1.3358	-16.2178	-12.8278
 341	1	1	-0.308877	2.04078	-14.7978	-14.3217
 342	1	8	0.426958	-1.88712	-15.3903	-12.2235
 343	1	6	-0.128067	3.35805	-15.0419	-13.7964
 344	1	1	0.005701	0.948665	-15.7644	-13.7482
 345	1	7	0.239394	2.06856	-13.7952	-12.0232
 346	1	5	-0.48496	0.0871096	-15.5646	-16.5391
 347	1	1	-0.003409	-0.0574582	-13.8754	-12.3575
 348	1	2	0.352525	0.259126	-16.6384	-15.9793
 349	1	6	-0.665659	-1.27204	-15.9482	-12.7561
 350	1	1	-0.510331	1.34206	-13.2432	-12.6351
 351	1	1	0.240953	-0.362621	-15.0287	-13.3592
 352	1	4	0.015262	1.67707	-13.4381	-14.0195
 353	1	4	0.176506	0.667027	-16.8342	-14.6824
 354	1	3	0.090205	-0.963418	-18.3076	-16.5924
 355	1	1	-0.197476	0.0722387	-17.9663	-16.7029
 356	1	1	-0.039041	1.50099	-11.7416	-12.3088
 357	1	7	0.144117	0.870476	-11.1417	-12.9813
 358	1	3	0.104606	0.743784	-18.7258	-16.2837
 359	1	7	0.111943	-0.796092	-14.5839	-14.2672
 360	1	7	0.160853	1.20005	-11.5235	-11.2762
 361	1	3	0.069306	0.309241	-17.8491	-17.7666
 362	1	4	-0.432857	2.89204	-11.4102	-12.5098
 363	1	3	0.042395	6.02924	-12.1167	-11.697
 364	1	2	0.753764	3.88127	-11.927	-11.7164
 365	1	1	-0.122098	5.25852	-11.5609	-12.244
 366	1	3	0.030493	5.43045	-10.4849	-12.1263
 367	1	5	-0.562583	3.70845	-12.6074	-10.7173
 368	1	3	0.048272	5.31906	-11.8178	-13.3072
 369	1	4	-0.191545	-1.09066	-12.8651	-12.4738
 370	1	9	0.130627	-3.10157	-12.5147	-12.0599
 371	1	3	0.015236	-4.54857	-13.0981	-8.50536
 372	1	7	0.210365	-0.0399124	-14.2851	-11.3369
 373	1	1	-0.218842	-4.37246	-8.10572	-1.1556
 374	1	2	0.68591	-3.07187	-8.8868	-1.23458
 375	1	3	0.086668	-5.20636	-8.76778	-1.41298
 376	1	3	0.071846	-4.34163	-7.27152	-1.86572
 377	1	3	0.062371	-4.52567	-7.7111	-0.144423
 378	1	4	-0.291145	-2.65821	-9.30758	0.0036856
 379	1	1	-0.015993	-1.48926	-10.1526	0.136636
 380	1	5	-0.555985	-2.44051	-9.00811	-2.27007
 381	1	2	0.652223	-6.30944	-13.1455	-0.466157
 382	1	3	0.062504	-8.36781	-12.5053	-0.471492
 383	1	5	-0.583019	-6.52725	-14.2185	0.0681519
 384	1	1	-0.168764	-7.38643	-12.1179	-0.768344
 385	1	3	0.062846	-7.17858	-11.1913	-0.222338
 386	1	4	-0.264747	-5.09453	-12.7323	-0.920221
 387	1	3	0.073216	-7.39451	-11.9006	-1.84308
 388	1	1	-0.015836	-2.86245	-13.0967	-1.7722
 389	1	1	0.044531	-3.94072	-13.5974	-0.790157
 390	1	1	0.341309	-3.41514	-13.6086	0.670768
 391	1	1	0.132892	-2.67124	-12.3037	1.09409
 392	1	6	-0.74435	-2.56064	-14.7415	0.841755
 393	1	7	-0.00272	-4.26836	-13.7475	1.34598
 394	1	1	-0.008403	-1.85334	-11.6487	-0.0745383
 395	1	4	-0.239698	-2.50293	-11.7697	-1.35881
 396	1	7	0.089672	-1.06605	-10.0334	1.14095
 397	1	7	0.088396	-0.717994	-9.85344	-0.586439
 398	1	7	0.05623	-0.906609	-12.2015	-0.137056
 399	1	7	0.125955	-4.21527	-14.6248	-1.05962
 400	1	8	0.456798	-2.44027	-14.8042	1.831
 401	1	9	0.198085	-3.95629	-14.9219	-6.90323
 402	1	7	0.095469	-1.53159	-15.2092	-6.06332
 403	1	1	-0.308877	-3.32051	-14.0828	-6.59199
 404	1	8	0.426958	-1.25374	-12.4892	-6.28699
 405	1	6	-0.128067	-2.67118	-13.5726	-7.7759
 406	1	1	0.005701	-2.30238	-14.6244	-5.54756
 407	1	7	0.239394	-2.99528	-11.396	-6.03776
 408	1	5	-0.48496	-1.1756	-16.4809	-3.76224
 409	1	1	-0.003409	-2.61353	-12.4813	-4.17061
 410	1	2	0.352525	-2.3857	-16.3506	-3.82802
 411	1	6	-0.665659	-0.687054	-12.8363	-5.56919
 412	1	1	-0.510331	-3.56258	-11.988	-5.3064
 413	1	1	0.240953	-1.60013	-13.5152	-4.71521
 414	1	4	0.015262	-4.18312	-13.1127	-5.9584
 415	1	4	0.176506	-3.04199	-15.5025	-4.67472
 416	1	3	0.090205	-2.95712	-17.1639	-1.91791
 417	1	1	-0.197476	-3.34737	-17.1312	-2.94249
 418	1	1	-0.039041	-4.68145	-11.0905	-4.74667
 419	1	7	0.144117	-5.36604	-11.6808	-4.11772
 420	1	3	0.104606	-3.44763	-18.1538	-3.32416
 421	1	7	0.111943	-1.04413	-13.9592	-3.87799
 422	1	7	0.160853	-4.25999	-10.2884	-4.11812
 423	1	3	0.069306	-4.3373	-16.6586	-2.928
 424	1	4	-0.432857	-5.37257	-10.5327	-5.87943
 425	1	3	0.042395	-6.58348	-8.43252	-7.32136
 426	1	2	0.753764	-6.49435	-9.78777	-5.64879
 427	1	1	-0.122098	-7.12311	-9.31153	-6.95112
 428	1	3	0.030493	-8.17541	-9.04903	-6.78807
 429	1	5	-0.562583	-6.96936	-9.57092	-4.54673
 430	1	3	0.048272	-7.06766	-10.1051	-7.70534
 431	1	4	-0.191545	-3.41251	-13.0776	-3.11419
 432	1	9	0.130627	-1.98442	-13.7554	-1.72878
 433	1	3	0.015236	-1.91506	-12.5972	1.83432
 434	1	7	0.210365	-2.05359	-11.6202	-3.76877
 435	1	1	-0.218842	-8.3161	-9.14429	8.01441
 436	1	2	0.68591	-7.32457	-8.69884	9.07259
 437	1	3	0.086668	-7.81302	-9.80663	7.30082
 438	1	3	0.071846	-8.70492	-8.27118	7.47817
 439	1	3	0.062371	-9.14428	-9.6858	8.48436
 440	1	4	-0.291145	-6.71947	-9.77134	9.66623
 441	1	1	-0.015993	-5.62213	-9.58304	10.5905
 442	1	5	-0.555985	-7.08205	-7.52902	9.31453
 443	1	2	0.652223	-0.164542	-10.0446	6.88402
 444	1	3	0.062504	0.409275	-12.0539	6.37532
 445	1	5	-0.583019	-0.391294	-9.14771	6.08588
 446	1	1	-0.168764	0.891185	-11.1146	6.66699
 447	1	3	0.062846	1.58897	-10.7983	5.88346
 448	1	4	-0.264747	-0.803405	-10.2301	8.07551
 449	1	3	0.073216	1.4486	-11.2762	7.59755
 450	1	1	-0.015836	-3.1606	-9.48181	7.79701
 451	1	1	0.044531	-1.79062	-9.27042	8.52004
 452	1	1	0.341309	-1.87766	-9.39137	10.0755
 453	1	1	0.132892	-3.13712	-8.68104	10.6726
 454	1	6	-0.74435	-0.67632	-8.84229	10.619
 455	1	7	-0.00272	-1.93742	-10.4568	10.3336
 456	1	1	-0.008403	-4.40597	-9.01726	9.81299
 457	1	4	-0.239698	-4.09879	-9.97814	8.77078
 458	1	7	0.089672	-5.35127	-10.5463	11.0427
 459	1	7	0.088396	-5.91687	-8.8944	11.3941
 460	1	7	0.05623	-4.7123	-8.07888	9.33622
 461	1	7	0.125955	-1.4373	-8.25437	8.29961
 462	1	8	0.456798	-0.698239	-9.04423	11.5786
 463	1	9	0.198085	-2.4276	-11.438	3.51347
 464	1	7	0.095469	-4.46659	-9.36386	2.76974
 465	1	1	-0.308877	-3.4552	-11.2314	3.18981
 466	1	8	0.426958	-6.11117	-10.5549	4.15039
 467	1	6	-0.128067	-3.58105	-11.3957	1.757
 468	1	1	0.005701	-3.83704	-9.77514	3.57155
 469	1	7	0.239394	-5.12843	-12.6944	5.68322
 470	1	5	-0.48496	-3.65137	-7.00235	3.23739
 471	1	1	-0.003409	-4.28958	-10.7238	5.95718
 472	1	2	0.352525	-2.64348	-7.6639	3.41197
 473	1	6	-0.665659	-6.0114	-9.71356	4.64117
 474	1	1	-0.510331	-4.23388	-12.163	5.32607
 475	1	1	0.240953	-4.61532	-9.62256	4.91365
 476	1	4	0.015262	-4.3229	-12.1422	3.87929
 477	1	4	0.176506	-2.61166	-9.01654	3.61401
 478	1	3	0.090205	-0.595875	-7.66135	2.72163
 479	1	1	-0.197476	-1.2458	-7.06174	3.36957
 480	1	1	-0.039041	-3.02974	-13.0266	5.77954
 481	1	7	0.144117	-2.11719	-12.7988	5.20953
 482	1	3	0.104606	-0.818731	-7.03985	4.37892
 483	1	7	0.111943	-4.40719	-8.63422	5.34663
 484	1	7	0.160853	-2.81628	-12.8385	6.84293
 485	1	3	0.069306	-1.29318	-6.03934	2.9746
 486	1	4	-0.432857	-3.43199	-14.4019	5.63379
 487	1	3	0.042395	-4.93544	-16.3859	4.5363
 488	1	2	0.753764	-3.22705	-15.0789	4.464
 489	1	1	-0.122098	-3.84254	-16.4692	4.51933
 490	1	3	0.030493	-3.51474	-16.9905	5.42669
 491	1	5	-0.562583	-2.55108	-14.6793	3.52798
 492	1	3	0.048272	-3.54002	-17.05	3.63998
 493	1	4	-0.191545	-3.0637	-10.3982	6.66487
 494	1	9	0.130627	-3.52043	-8.5116	7.43113
 495	1	3	0.015236	-2.98394	-7.59873	10.5672
 496	1	7	0.210365	-5.11226	-10.7154	6.688
 497	1	1	-0.218842	-0.690153	-2.98646	11.4462
 498	1	2	0.68591	-0.558436	-2.72328	12.9356
 499	1	3	0.086668	-1.27054	-2.17756	10.9904
 500	1	3	0.071846	-1.20031	-3.94203	11.2879
 501	1	3	0.062371	0.297061	-3.02799	10.9714
 502	1	4	-0.291145	0.751282	-2.58355	13.3077
 503	1	1	-0.015993	1.0984	-2.29753	14.6771
 504	1	5	-0.555985	-1.52985	-2.52523	13.6457
 505	1	2	0.652223	-2.18861	-4.72707	18.416
 506	1	3	0.062504	-4.06773	-3.91751	19.1094
 507	1	5	-0.583019	-2.57888	-5.87987	18.3629
 508	1	1	-0.168764	-3.05651	-3.56535	18.8745
 509	1	3	0.062846	-2.61862	-3.10722	19.769
 510	1	4	-0.264747	-0.914919	-4.31011	18.1697
 511	1	3	0.073216	-3.10835	-2.81045	18.0818
 512	1	1	-0.015836	-0.0591771	-5.51333	16.183
 513	1	1	0.044531	0.105556	-5.22376	17.6962
 514	1	1	0.341309	1.47589	-4.53025	17.9382
 515	1	1	0.132892	1.80285	-3.38393	16.926
 516	1	6	-0.74435	2.52474	-5.50494	17.9248
 517	1	7	-0.00272	1.45777	-4.09733	18.947
 518	1	1	-0.008403	1.23068	-3.60901	15.4902
 519	1	4	-0.239698	-0.0611952	-4.23806	15.5348
 520	1	7	0.089672	0.352629	-1.63506	15.1365
 521	1	7	0.088396	2.0642	-1.78023	14.6915
 522	1	7	0.05623	1.92333	-4.27181	14.9625
 523	1	7	0.125955	0.0792347	-6.15979	18.2687
 524	1	8	0.456798	3.35276	-5.01305	18.1171
 525	1	9	0.198085	-2.43104	-7.16724	12.6214
 526	1	7	0.095469	-4.3292	-8.56407	14.4067
 527	1	1	-0.308877	-2.62523	-8.1535	13.0626
 528	1	8	0.426958	-1.97877	-9.94012	15.0204
 529	1	6	-0.128067	-3.32919	-8.97148	12.0919
 530	1	1	0.005701	-3.42407	-7.94213	14.4031
 531	1	7	0.239394	0.392942	-8.60544	14.425
 532	1	5	-0.48496	-5.45492	-6.89451	16.0562
 533	1	1	-0.003409	-1.16596	-7.63627	15.5902
 534	1	2	0.352525	-4.73777	-6.14653	15.4126
 535	1	6	-0.665659	-2.45035	-9.66546	15.8299
 536	1	1	-0.510331	-0.483493	-7.97628	14.2043
 537	1	1	0.240953	-2.58842	-8.25255	15.6866
 538	1	4	0.015262	-1.35922	-8.76082	13.3706
 539	1	4	0.176506	-3.80063	-6.54742	14.4957
 540	1	3	0.090205	-5.23185	-4.37133	16.5303
 541	1	1	-0.197476	-4.79603	-4.6308	15.5573
 542	1	1	-0.039041	0.0302407	-6.79315	13.3417
 543	1	7	0.144117	-0.138333	-6.99056	12.2724
 544	1	3	0.104606	-5.41264	-4.20033	14.7609
 545	1	7	0.111943	-3.09166	-7.85596	16.5827
 546	1	7	0.160853	-0.478206	-5.84425	13.5697
 547	1	3	0.069306	-3.78672	-4.20237	15.501
 548	1	4	-0.432857	1.44502	-6.70621	13.5708
 549	1	3	0.042395	4.23846	-5.35197	12.4096
 550	1	2	0.753764	2.17868	-5.87016	12.7781
 551	1	1	-0.122098	3.64951	-5.88492	13.1647
 552	1	3	0.030493	4.00749	-6.91867	13.238
 553	1	5	-0.562583	1.72257	-5.21057	11.8609
 554	1	3	0.048272	3.78161	-5.39841	14.1373
 555	1	4	-0.191545	-1.27717	-6.20937	15.8294
 556	1	9	0.130627	0.802016	-6.09795	15.8337
 557	1	3	0.015236	2.88839	-3.39031	16.8037
 558	1	7	0.210365	-0.589764	-8.0769	16.4184
 559	1	1	-0.218842	2.58629	5.11767	23.8742
 560	1	2	0.68591	2.55026	6.11345	22.7269
 561	1	3	0.086668	1.9396	4.26176	23.6516
 562	1	3	0.071846	2.23718	5.60189	24.7931
 563	1	3	0.062371	3.61273	4.76124	24.016
 564	1	4	-0.291145	2.07618	5.54313	21.5805
 565	1	1	-0.015993	2.0213	6.33376	20.3768
 566	1	5	-0.555985	2.89673	7.27464	22.8415
 567	1	2	0.652223	5.28223	3.93892	16.1756
 568	1	3	0.062504	7.1557	4.92512	16.6194
 569	1	5	-0.583019	4.83566	3.27568	15.25
 570	1	1	-0.168764	6.74311	3.90936	16.6002
 571	1	3	0.062846	6.82201	3.48165	17.6063
 572	1	4	-0.264747	4.55047	4.76807	16.973
 573	1	3	0.073216	7.32515	3.29778	15.9014
 574	1	1	-0.015836	2.39831	3.79855	17.7064
 575	1	1	0.044531	3.11477	4.85337	16.8041
 576	1	1	0.341309	2.67385	6.29677	17.2035
 577	1	1	0.132892	1.28022	6.28691	17.9032
 578	1	6	-0.74435	2.74163	7.20427	16.1004
 579	1	7	-0.00272	3.39384	6.66341	17.9458
 580	1	1	-0.008403	1.43786	5.46921	19.2293
 581	1	4	-0.239698	2.34282	4.33799	19.0417
 582	1	7	0.089672	3.02822	6.68747	20.1179
 583	1	7	0.088396	1.38545	7.21479	20.5413
 584	1	7	0.05623	0.449038	5.1036	19.5362
 585	1	7	0.125955	2.83324	4.69025	15.7576
 586	1	8	0.456798	2.38735	8.05882	16.429
 587	1	9	0.198085	2.80436	-1.72497	18.9153
 588	1	7	0.095469	3.70869	-1.55789	16.2897
 589	1	1	-0.308877	2.40551	-1.21015	18.032
 590	1	8	0.426958	3.84997	1.226	14.5267
 591	1	6	-0.128067	1.41825	-2.09429	17.4444
 592	1	1	0.005701	3.59526	-0.804059	17.0754
 593	1	7	0.239394	0.828368	0.108162	16.6483
 594	1	5	-0.48496	4.92976	-3.02788	18.291
 595	1	1	-0.003409	2.41817	1.54249	16.7843
 596	1	2	0.352525	5.40627	-1.90402	18.3212
 597	1	6	-0.665659	3.51931	0.391438	14.9292
 598	1	1	-0.510331	1.23068	0.775099	17.4246
 599	1	1	0.240953	3.54261	0.577196	16.3448
 600	1	4	0.015262	1.73003	-0.0311729	18.4979
 601	1	4	0.176506	4.83092	-0.772789	17.8136
 602	1	3	0.090205	7.49168	-2.37258	18.5809
 603	1	1	-0.197476	6.78217	-1.60108	18.9024
 604	1	1	-0.039041	0.0186187	1.59652	17.8974
 605	1	7	0.144117	-0.655324	0.95925	18.4908
 606	1	3	0.104606	6.73132	-1.58777	19.9969
 607	1	7	0.111943	4.48481	1.09732	16.5665
 608	1	7	0.160853	0.297354	2.45029	18.5313
 609	1	3	0.069306	7.14797	-0.626408	18.5536
 610	1	4	-0.432857	-0.632923	1.98241	16.672
 611	1	3	0.042395	-2.96731	2.02915	15.119
 612	1	2	0.753764	-1.71921	2.80628	16.6943
 613	1	1	-0.122098	-2.35605	2.91744	15.3151
 614	1	3	0.030493	-1.58348	2.9724	14.5395
 615	1	5	-0.562583	-2.10293	3.41803	17.676
 616	1	3	0.048272	-2.98874	3.8112	15.2621
 617	1	4	-0.191545	3.0109	2.49734	17.7028
 618	1	9	0.130627	1.37426	3.66534	17.351