pySIMM System Object

2110 atoms
2177 bonds
4012 angles
5573 dihedrals
136 impropers

9 atom types
10 bond types
23 angle types
20 dihedral types
1 improper types

-188.972622 188.972622 xlo xhi
-188.972622 188.972622 ylo yhi
-188.972622 188.972622 zlo zhi

Masses

   1	12.01	# c3
   2	12.01	# c
   3	1.008	# hc
   4	16.0	# os
   5	16.0	# o
   6	16.0	# oh
   7	1.008	# h1
   8	1.008	# ho
   9	1.008	# h2

Pair Coeffs

   1	0.1094	3.3996695084235347	# c3
   2	0.086	3.3996695084235347	# c
   3	0.0157	2.649532787749369	# hc
   4	0.17	3.0000123434657784	# os
   5	0.21	2.959921901149463	# o
   6	0.2104	3.0664733878390478	# oh
   7	0.0157	2.471353044121301	# h1
   8	0.0047	0.5379246460131368	# ho
   9	0.0157	2.2931733004932333	# h2

Bond Coeffs

   1	331.7	1.0961	# c3,h2
   2	637.7	1.2183	# c,o
   3	300.9	1.5375	# c3,c3
   4	330.6	1.0969	# c3,hc
   5	316.7	1.4233	# c3,oh
   6	330.6	1.0969	# c3,h1
   7	371.4	0.973	# ho,oh
   8	308.6	1.4316	# c3,os
   9	313.0	1.5241	# c,c3
  10	390.8	1.3584	# c,os

Angle Coeffs

   1	46.93	108.77	# c,c3,hc
   2	67.4	123.2	# c3,c,o
   3	68.0	107.97	# c3,c3,os
   4	46.39	109.56	# c3,c3,h1
   5	46.25	110.22	# c3,c3,h2
   6	62.86	111.51	# c3,c3,c3
   7	68.89	110.72	# c3,c,os
   8	72.58	109.38	# oh,c3,os
   9	75.32	123.25	# o,c,os
  10	67.47	110.19	# c3,c3,oh
  11	46.34	109.8	# c3,c3,hc
  12	47.38	107.26	# c3,oh,ho
  13	39.24	108.46	# h1,c3,h1
  14	50.85	109.58	# h2,c3,os
  15	72.74	108.29	# os,c3,os
  16	50.8	109.78	# h1,c3,os
  17	63.28	115.98	# c,os,c3
  18	62.7	112.48	# c3,os,c3
  19	50.93	110.26	# h1,c3,oh
  20	39.4	107.58	# hc,c3,hc
  21	51.13	109.43	# h2,c3,oh
  22	51.11	109.5	# hc,c3,oh
  23	62.7	112.48	# c3,oh,c3

Dihedral Coeffs

   1	3	0.18	3	0	0.25	2	180	0.2	1	180	# c3,c3,c3,c3
   2	1	0.3833333333333333	3	0	# X,c3,os,X
   3	2	0.144	3	0	1.175	2	0	# os,c3,c3,oh
   4	3	0.1	3	0	0.85	2	180	1.35	1	180	# c3,os,c3,os
   5	2	0.144	3	0	1.175	2	0	# os,c3,c3,os
   6	3	2.7	2	180	0.0	1	0	1.15	3	0	# c3,c,os,c3
   7	2	0.0	3	0	0.25	1	0	# hc,c3,c3,oh
   8	1	0.16	3	0	# hc,c3,c3,c3
   9	1	0.15555555555555556	3	0	# X,c3,c3,X
  10	2	0.16	3	0	0.25	1	0	# ho,oh,c3,c3
  11	2	0.383	3	0	0.8	1	180	# c3,c3,os,c
  12	1	0.0	2	180	# X,c,c3,X
  13	2	2.7	2	180	1.4	1	180	# o,c,os,c3
  14	2	0.0	3	0	0.25	1	0	# hc,c3,c3,os
  15	2	0.0	3	0	0.25	1	0	# h1,c3,c3,oh
  16	1	0.16666666666666666	3	0	# X,c3,oh,X
  17	3	0.8	1	0	0.0	2	0	0.08	3	180	# hc,c3,c,o
  18	2	0.0	3	0	0.25	1	0	# h1,c3,c3,os
  19	2	0.383	3	0	0.1	2	180	# c3,c3,os,c3
  20	2	0.144	3	0	1.175	2	0	# oh,c3,c3,oh

Improper Coeffs

   1	10.5	-1	2	# c,X,X,o

Atoms

   1	1	1	-0.218842	21.1378	-22.1494	1.38097
   2	1	2	0.68591	20.1594	-21.8041	0.273805
   3	1	3	0.086668	21.6775	-23.0662	1.1218
   4	1	3	0.071846	20.598	-22.2952	2.32317
   5	1	3	0.062371	21.8577	-21.3312	1.49929
   6	1	4	-0.291145	20.7991	-21.6529	-0.922529
   7	1	1	-0.015993	20.0333	-21.2824	-2.08756
   8	1	5	-0.555985	18.9581	-21.6903	0.450398
   9	1	2	0.652223	23.2004	-17.2442	-6.43095
  10	1	3	0.062504	24.2719	-15.4102	-6.09115
  11	1	5	-0.583019	23.2974	-18.1679	-7.22186
  12	1	1	-0.168764	23.5094	-15.7985	-6.77584
  13	1	3	0.062846	23.8738	-15.7262	-7.80682
  14	1	4	-0.264747	22.7859	-17.3638	-5.13894
  15	1	3	0.073216	22.6003	-15.1959	-6.66749
  16	1	1	-0.015836	22.0612	-18.3332	-3.08045
  17	1	1	0.044531	22.3836	-18.631	-4.56024
  18	1	1	0.341309	21.166	-19.2448	-5.30501
  19	1	1	0.132892	20.2313	-20.0923	-4.37943
  20	1	6	-0.74435	21.6137	-20.0444	-6.40453
  21	1	7	-0.00272	20.5947	-18.4049	-5.71622
  22	1	1	-0.008403	20.9803	-20.6156	-3.11631
  23	1	4	-0.239698	21.7074	-19.5645	-2.41817
  24	1	7	0.089672	19.244	-20.5736	-1.80686
  25	1	7	0.088396	19.5516	-22.1662	-2.5251
  26	1	7	0.05623	21.703	-21.3698	-3.45525
  27	1	7	0.125955	23.2136	-19.3485	-4.59927
  28	1	8	0.456798	22.2529	-19.4682	-6.91288
  29	1	9	0.198085	20.6526	-14.3702	0.00889845
  30	1	7	0.095469	21.0103	-13.0851	-1.92392
  31	1	1	-0.308877	19.7588	-14.2376	-0.615093
  32	1	8	0.426958	21.5403	-13.8874	-4.21414
  33	1	6	-0.128067	18.9205	-13.2771	0.0498137
  34	1	1	0.005701	20.202	-13.8151	-2.04346
  35	1	7	0.239394	20.7662	-16.5104	0.0871302
  36	1	5	-0.48496	20.4244	-12.5518	-4.56144
  37	1	1	-0.003409	21.0434	-16.3071	-2.07308
  38	1	2	0.352525	19.3417	-12.6115	-3.99734
  39	1	6	-0.665659	21.8355	-14.6484	-3.64805
  40	1	1	-0.510331	20.1338	-16.55	-0.813263
  41	1	1	0.240953	20.6874	-15.034	-2.88988
  42	1	4	0.015262	19.1366	-15.52	-0.711613
  43	1	4	0.176506	19.1102	-13.1846	-2.7646
  44	1	3	0.090205	17.4315	-12.8469	-4.96473
  45	1	1	-0.197476	18.0842	-12.0325	-4.62986
  46	1	1	-0.039041	19.4206	-17.9172	-0.797022
  47	1	7	0.144117	18.7583	-18.0134	-1.66392
  48	1	3	0.104606	18.3467	-11.4147	-5.4988
  49	1	7	0.111943	19.8632	-15.3168	-3.56098
  50	1	7	0.160853	20.163	-18.7241	-0.84775
  51	1	3	0.069306	17.5488	-11.4165	-3.89998
  52	1	4	-0.432857	18.6751	-18.031	0.425559
  53	1	3	0.042395	17.8843	-17.41	2.8795
  54	1	2	0.753764	19.314	-18.365	1.5864
  55	1	1	-0.122098	18.3405	-18.3988	2.75265
  56	1	3	0.030493	18.8618	-18.68	3.67579
  57	1	5	-0.562583	20.5026	-18.6265	1.68654
  58	1	3	0.048272	17.5502	-19.1292	2.54448
  59	1	4	-0.191545	20.9451	-17.4121	-3.01102
  60	1	9	0.130627	22.9443	-17.901	-2.59555
  61	1	3	0.015236	19.897	-20.9752	-4.94172
  62	1	7	0.210365	22.082	-16.1665	-1.74475
  63	1	1	-0.218842	10.1109	-22.2283	-8.25492
  64	1	2	0.68591	10.6941	-21.3864	-9.37528
  65	1	3	0.086668	10.7343	-22.1249	-7.35971
  66	1	3	0.071846	10.0785	-23.2815	-8.5557
  67	1	3	0.062371	9.0971	-21.8836	-8.02168
  68	1	4	-0.291145	10.7721	-20.0709	-9.01505
  69	1	1	-0.015993	11.3481	-19.1122	-9.9258
  70	1	5	-0.555985	10.9972	-21.8384	-10.4684
  71	1	2	0.652223	15.4495	-15.398	-9.76026
  72	1	3	0.062504	14.7257	-14.0175	-11.246
  73	1	5	-0.583019	16.4353	-15.3805	-9.04303
  74	1	1	-0.168764	14.6854	-14.1474	-10.1587
  75	1	3	0.062846	13.6382	-14.2426	-9.84957
  76	1	4	-0.264747	14.9442	-16.5049	-10.3738
  77	1	3	0.073216	15.1278	-13.271	-9.67158
  78	1	1	-0.015836	14.8233	-18.3683	-8.76204
  79	1	1	0.044531	15.46	-17.8244	-10.0654
  80	1	1	0.341309	15.0768	-18.769	-11.2216
  81	1	1	0.132892	13.5237	-18.9497	-11.3015
  82	1	6	-0.74435	15.7643	-20.0077	-11.0164
  83	1	7	-0.00272	15.4312	-18.3209	-12.1584
  84	1	1	-0.008403	12.8917	-19.2498	-9.91273
  85	1	4	-0.239698	13.3953	-18.3308	-8.91807
  86	1	7	0.089672	11.0742	-18.0947	-9.61802
  87	1	7	0.088396	10.9489	-19.2737	-10.936
  88	1	7	0.05623	13.1697	-20.2735	-9.62828
  89	1	7	0.125955	16.5536	-17.8076	-9.98074
  90	1	8	0.456798	15.7269	-20.453	-11.8932
  91	1	9	0.198085	18.6567	-19.0992	-6.03312
  92	1	7	0.095469	18.7262	-16.867	-4.81069
  93	1	1	-0.308877	18.1722	-18.9487	-5.05981
  94	1	8	0.426958	17.1848	-15.771	-7.60578
  95	1	6	-0.128067	19.0399	-19.3748	-4.00479
  96	1	1	0.005701	17.8046	-17.4599	-4.8618
  97	1	7	0.239394	16.1413	-20.2393	-6.8491
  98	1	5	-0.48496	17.0932	-15.0524	-3.53663
  99	1	1	-0.003409	16.3894	-18.0764	-6.92247
 100	1	2	0.352525	16.8232	-16.1361	-3.04609
 101	1	6	-0.665659	17.7229	-16.0496	-6.80869
 102	1	1	-0.510331	16.0408	-19.402	-6.14458
 103	1	1	0.240953	16.9185	-16.9302	-6.02097
 104	1	4	0.015262	16.9393	-19.675	-5.0455
 105	1	4	0.176506	17.103	-17.3522	-3.60324
 106	1	3	0.090205	15.6685	-15.3152	-1.41681
 107	1	1	-0.197476	16.0925	-16.2805	-1.71723
 108	1	1	-0.039041	14.6045	-19.45	-5.56349
 109	1	7	0.144117	13.8749	-19.5267	-6.38564
 110	1	3	0.104606	16.7882	-16.6165	-0.940892
 111	1	7	0.111943	16.0562	-16.3883	-5.60936
 112	1	7	0.160853	14.4684	-20.3353	-4.923
 113	1	3	0.069306	15.2911	-17.0222	-1.80015
 114	1	4	-0.432857	14.3613	-18.2428	-4.81345
 115	1	3	0.042395	13.1257	-16.7578	-2.65174
 116	1	2	0.753764	13.0779	-17.9745	-4.42719
 117	1	1	-0.122098	12.9705	-16.6275	-3.72771
 118	1	3	0.030493	11.9765	-16.1969	-3.89669
 119	1	5	-0.562583	12.1242	-18.7068	-4.62977
 120	1	3	0.048272	13.7273	-15.9368	-4.11844
 121	1	4	-0.191545	15.216	-17.5931	-7.61685
 122	1	9	0.130627	15.1256	-19.4134	-8.61455
 123	1	3	0.015236	13.0954	-18.0091	-11.6726
 124	1	7	0.210365	17.1905	-18.2841	-7.64577
 125	1	1	-0.218842	16.4564	-15.7719	-19.5487
 126	1	2	0.68591	17.0942	-17.0452	-20.0745
 127	1	3	0.086668	15.6381	-16.0311	-18.8695
 128	1	3	0.071846	16.0642	-15.1849	-20.3864
 129	1	3	0.062371	17.201	-15.1815	-19.0036
 130	1	4	-0.291145	17.6159	-17.7978	-19.0575
 131	1	1	-0.015993	18.1783	-19.0989	-19.336
 132	1	5	-0.555985	17.0553	-17.3744	-21.248
 133	1	2	0.652223	19.0191	-23.758	-16.7828
 134	1	3	0.062504	20.4692	-24.4378	-15.3405
 135	1	5	-0.583019	19.2607	-24.624	-17.609
 136	1	1	-0.168764	19.7951	-23.5866	-15.4898
 137	1	3	0.062846	20.3839	-22.6634	-15.5341
 138	1	4	-0.264747	18.0385	-22.8172	-16.9159
 139	1	3	0.073216	19.1021	-23.5206	-14.6438
 140	1	1	-0.015836	16.0665	-21.7587	-17.9121
 141	1	1	0.044531	17.2022	-22.7978	-18.1034
 142	1	1	0.341309	18.0912	-22.4708	-19.3383
 143	1	1	0.132892	17.4188	-21.4372	-20.2764
 144	1	6	-0.74435	18.399	-23.6915	-20.0186
 145	1	7	-0.00272	19.0275	-22.021	-18.9827
 146	1	1	-0.008403	17.0285	-20.135	-19.4916
 147	1	4	-0.239698	16.6215	-20.4466	-18.1325
 148	1	7	0.089672	18.8299	-19.4065	-18.5079
 149	1	7	0.088396	18.7998	-19.0376	-20.2384
 150	1	7	0.05623	16.1888	-19.6708	-20.0242
 151	1	7	0.125955	16.737	-23.7815	-18.2499
 152	1	8	0.456798	18.8526	-24.2552	-19.3334
 153	1	9	0.198085	13.5607	-18.9285	-13.9142
 154	1	7	0.095469	11.7986	-20.1663	-14.8268
 155	1	1	-0.308877	13.5433	-19.9681	-13.5613
 156	1	8	0.426958	11.6466	-21.8543	-16.5953
 157	1	6	-0.128067	13.1189	-20.0049	-12.1945
 158	1	1	0.005701	12.6105	-20.815	-14.4728
 159	1	7	0.239394	15.4487	-19.0578	-15.0034
 160	1	5	-0.48496	10.5709	-22.5933	-15.3057
 161	1	1	-0.003409	14.715	-20.8161	-16.0754
 162	1	2	0.352525	11.0526	-22.6901	-14.1875
 163	1	6	-0.665659	12.4802	-21.3757	-16.8435
 164	1	1	-0.510331	15.4792	-20.1494	-14.8812
 165	1	1	0.240953	13.3393	-21.4424	-15.705
 166	1	4	0.015262	14.8512	-20.5235	-13.6582
 167	1	4	0.176506	12.0477	-21.8947	-13.6828
 168	1	3	0.090205	10.0401	-24.5371	-13.7179
 169	1	1	-0.197476	10.6294	-23.7699	-13.2015
 170	1	1	-0.039041	16.9655	-20.5411	-14.7523
 171	1	7	0.144117	17.0694	-21.6159	-14.5386
 172	1	3	0.104606	10.019	-23.326	-12.4068
 173	1	7	0.111943	13.5446	-22.4955	-15.4624
 174	1	7	0.160853	17.5096	-20.3321	-15.6871
 175	1	3	0.069306	11.5102	-24.2397	-12.7471
 176	1	4	-0.432857	17.4909	-19.7474	-13.6737
 177	1	3	0.042395	19.0076	-17.9682	-12.4202
 178	1	2	0.753764	18.7934	-19.922	-13.3012
 179	1	1	-0.122098	19.1628	-19.0154	-12.1367
 180	1	3	0.030493	20.213	-19.1632	-11.8584
 181	1	5	-0.562583	19.5628	-20.7052	-13.8316
 182	1	3	0.048272	18.5265	-19.2456	-11.2746
 183	1	4	-0.191545	15.5167	-21.9031	-16.5871
 184	1	9	0.130627	15.2625	-21.9313	-18.6411
 185	1	3	0.015236	16.4987	-21.8925	-20.667
 186	1	7	0.210365	14.5294	-20.0734	-16.8652
 187	1	1	-0.218842	21.8154	-25.2137	-26.0607
 188	1	2	0.68591	21.601	-24.3983	-27.3224
 189	1	3	0.086668	21.7264	-26.2804	-26.2918
 190	1	3	0.071846	21.0555	-24.9451	-25.3175
 191	1	3	0.062371	22.8105	-25.012	-25.6476
 192	1	4	-0.291145	20.3787	-24.6558	-27.8796
 193	1	1	-0.015993	19.9214	-23.9285	-29.045
 194	1	5	-0.555985	22.4398	-23.6395	-27.7812
 195	1	2	0.652223	14.9237	-20.592	-28.7956
 196	1	3	0.062504	13.5891	-21.0706	-27.1725
 197	1	5	-0.583019	14.9875	-19.8757	-29.7815
 198	1	1	-0.168764	13.6214	-21.1637	-28.2642
 199	1	3	0.062846	12.7709	-20.6263	-28.6987
 200	1	4	-0.264747	15.9964	-21.0134	-28.0635
 201	1	3	0.073216	13.5529	-22.2243	-28.5294
 202	1	1	-0.015836	18.2836	-21.098	-27.2364
 203	1	1	0.044531	17.3509	-20.5759	-28.3629
 204	1	1	0.341309	17.7694	-21.123	-29.7627
 205	1	1	0.132892	19.2651	-21.5477	-29.8773
 206	1	6	-0.74435	17.3964	-20.222	-30.8083
 207	1	7	-0.00272	17.1959	-22.0472	-29.9125
 208	1	1	-0.008403	19.7252	-22.4394	-28.6764
 209	1	4	-0.239698	18.7564	-22.4035	-27.6102
 210	1	7	0.089672	18.9679	-24.3466	-29.3929
 211	1	7	0.088396	20.6541	-24.0187	-29.858
 212	1	7	0.05623	20.682	-22.0724	-28.3016
 213	1	7	0.125955	17.4075	-19.4824	-28.3741
 214	1	8	0.456798	16.4485	-19.976	-30.6058
 215	1	9	0.198085	17.3109	-19.484	-22.0564
 216	1	7	0.095469	19.74	-19.608	-22.8737
 217	1	1	-0.308877	17.7561	-20.3985	-22.4635
 218	1	8	0.426958	19.5396	-22.2552	-22.7238
 219	1	6	-0.128067	18.2962	-21.1664	-21.3799
 220	1	1	0.005701	18.8865	-19.9948	-23.4454
 221	1	7	0.239394	17.4879	-23.0279	-23.1438
 222	1	5	-0.48496	20.3169	-18.5184	-25.3822
 223	1	1	-0.003409	18.1872	-21.9574	-24.92
 224	1	2	0.352525	19.1566	-18.2399	-25.1263
 225	1	6	-0.665659	20.1273	-22.0833	-23.4944
 226	1	1	-0.510331	17.0956	-22.2952	-23.8649
 227	1	1	0.240953	19.3758	-21.1887	-24.3111
 228	1	4	0.015262	16.7105	-21.0985	-23.1704
 229	1	4	0.176506	18.3591	-18.9166	-24.2479
 230	1	3	0.090205	17.7623	-16.5875	-25.0211
 231	1	1	-0.197476	18.4251	-17.0639	-25.7533
 232	1	1	-0.039041	15.8383	-22.8931	-24.5273
 233	1	7	0.144117	15.1066	-23.2281	-23.7777
 234	1	3	0.104606	17.82	-17.4127	-26.5957
 235	1	7	0.111943	20.0267	-20.8447	-25.1216
 236	1	7	0.160853	15.3558	-22.1294	-25.1591
 237	1	3	0.069306	19.1485	-16.3198	-26.1032
 238	1	4	-0.432857	16.3022	-23.9972	-25.3275
 239	1	3	0.042395	15.6821	-25.8131	-28.0324
 240	1	2	0.753764	15.5538	-24.4225	-26.3851
 241	1	1	-0.122098	16.2588	-25.5381	-27.1416
 242	1	3	0.030493	16.3668	-26.4162	-26.4941
 243	1	5	-0.562583	14.4772	-23.9528	-26.714
 244	1	3	0.048272	17.2561	-25.2004	-27.4468
 245	1	4	-0.191545	17.5811	-21.1692	-25.976
 246	1	9	0.130627	19.1305	-20.4155	-27.1181
 247	1	3	0.015236	19.3215	-22.1687	-30.7805
 248	1	7	0.210365	18.5672	-22.9055	-25.3249
 249	1	1	-0.218842	23.6977	-10.1402	-28.1013
 250	1	2	0.68591	23.0847	-10.8112	-26.8855
 251	1	3	0.086668	24.5909	-9.5808	-27.8021
 252	1	3	0.071846	22.971	-9.4529	-28.5486
 253	1	3	0.062371	23.9738	-10.8989	-28.8423
 254	1	4	-0.291145	21.9254	-11.4574	-27.2066
 255	1	1	-0.015993	21.1921	-12.1763	-26.191
 256	1	5	-0.555985	23.5612	-10.738	-25.7663
 257	1	2	0.652223	23.5114	-18.2555	-24.3521
 258	1	3	0.062504	24.1858	-19.9222	-25.5391
 259	1	5	-0.583019	23.8739	-17.812	-23.2765
 260	1	1	-0.168764	23.5137	-19.7362	-24.6943
 261	1	3	0.062846	23.8482	-20.3193	-23.8283
 262	1	4	-0.264747	23.0823	-17.5011	-25.402
 263	1	3	0.073216	22.5014	-20.0534	-24.9677
 264	1	1	-0.015836	22.5443	-15.6336	-26.8204
 265	1	1	0.044531	22.9242	-16.0541	-25.3639
 266	1	1	0.341309	21.8732	-15.6006	-24.3093
 267	1	1	0.132892	21.3916	-14.1333	-24.5157
 268	1	6	-0.74435	22.3856	-15.7012	-22.9721
 269	1	7	-0.00272	21.0093	-16.266	-24.4047
 270	1	1	-0.008403	21.9496	-13.4712	-25.8032
 271	1	4	-0.239698	21.8197	-14.3905	-26.8927
 272	1	7	0.089672	20.1973	-12.4418	-26.573
 273	1	7	0.088396	21.0558	-11.541	-25.3054
 274	1	7	0.05623	23.0103	-13.2411	-25.6414
 275	1	7	0.125955	23.882	-15.5835	-25.1087
 276	1	8	0.456798	22.9416	-16.5349	-22.942
 277	1	9	0.198085	20.7429	-20.1533	-28.1411
 278	1	7	0.095469	22.2837	-19.168	-30.5762
 279	1	1	-0.308877	20.7478	-19.6406	-29.1045
 280	1	8	0.426958	24.4904	-18.486	-29.7626
 281	1	6	-0.128067	20.1539	-20.4353	-30.1447
 282	1	1	0.005701	22.2321	-19.3697	-29.4976
 283	1	7	0.239394	20.6951	-17.3808	-30.5426
 284	1	5	-0.48496	24.809	-20.0272	-30.4261
 285	1	1	-0.003409	21.8774	-16.9457	-28.7511
 286	1	2	0.352525	24.2065	-20.8002	-29.6999
 287	1	6	-0.665659	24.0896	-17.7346	-29.2483
 288	1	1	-0.510331	20.5286	-17.2314	-29.4659
 289	1	1	0.240953	22.8299	-18.1647	-28.7241
 290	1	4	0.015262	19.9787	-18.4328	-28.9081
 291	1	4	0.176506	22.959	-20.5808	-29.1802
 292	1	3	0.090205	25.8129	-22.2399	-29.6498
 293	1	1	-0.197476	24.7927	-22.134	-29.262
 294	1	1	-0.039041	19.5314	-16.0674	-29.3016
 295	1	7	0.144117	19.0864	-16.0692	-28.2988
 296	1	3	0.104606	24.179	-22.9552	-29.6503
 297	1	7	0.111943	22.9489	-18.4804	-27.68
 298	1	7	0.160853	20.053	-15.1073	-29.4269
 299	1	3	0.069306	24.8159	-22.1976	-28.1675
 300	1	4	-0.432857	18.5448	-16.2164	-30.338
 301	1	3	0.042395	15.5656	-17.4368	-31.1281
 302	1	2	0.753764	17.3853	-16.9005	-30.0973
 303	1	1	-0.122098	16.5447	-17.0021	-31.3604
 304	1	3	0.030493	17.0563	-17.6373	-32.0932
 305	1	5	-0.562583	16.9746	-17.2026	-28.9881
 306	1	3	0.048272	16.4051	-16.0057	-31.7943
 307	1	4	-0.191545	21.6153	-16.5761	-27.3838
 308	1	9	0.130627	23.4585	-15.5829	-27.4277
 309	1	3	0.015236	21.7948	-13.5163	-23.7029
 310	1	7	0.210365	22.3786	-16.1179	-29.2742
 311	1	1	-0.218842	15.7424	-5.68033	-22.0243
 312	1	2	0.68591	16.5438	-6.33688	-20.9158
 313	1	3	0.086668	16.0504	-4.63446	-22.1323
 314	1	3	0.071846	14.6759	-5.71675	-21.7725
 315	1	3	0.062371	15.9052	-6.21061	-22.969
 316	1	4	-0.291145	16.1799	-7.63945	-20.7446
 317	1	1	-0.015993	16.7681	-8.39166	-19.6635
 318	1	5	-0.555985	17.3506	-5.74773	-20.2189
 319	1	2	0.652223	13.5095	-10.3212	-23.6601
 320	1	3	0.062504	13.4716	-9.25272	-25.5296
 321	1	5	-0.583019	12.3434	-10.1438	-23.3476
 322	1	1	-0.168764	14.0578	-10.0443	-25.0493
 323	1	3	0.062846	15.1062	-9.72804	-24.9918
 324	1	4	-0.264747	14.483	-10.7375	-22.796
 325	1	3	0.073216	13.9978	-10.9546	-25.6551
 326	1	1	-0.015836	15.3876	-11.65	-20.7154
 327	1	1	0.044531	14.1546	-11.0219	-21.4101
 328	1	1	0.341309	13.6932	-9.70026	-20.7206
 329	1	1	0.132892	14.3594	-9.44414	-19.3343
 330	1	6	-0.74435	12.2685	-9.72562	-20.6302
 331	1	7	-0.00272	13.9792	-8.86305	-21.3699
 332	1	1	-0.008403	15.9173	-9.6592	-19.3964
 333	1	4	-0.239698	16.2939	-10.5716	-20.4477
 334	1	7	0.089672	16.8054	-7.78157	-18.7533
 335	1	7	0.088396	17.802	-8.66845	-19.912
 336	1	7	0.05623	16.2332	-10.0861	-18.436
 337	1	7	0.125955	13.3349	-11.7516	-21.3655
 338	1	8	0.456798	11.9517	-9.76157	-21.5726
 339	1	9	0.198085	19.7187	-15.3064	-22.7983
 340	1	7	0.095469	19.9648	-12.323	-22.7033
 341	1	1	-0.308877	19.3436	-14.3463	-23.1815
 342	1	8	0.426958	17.8876	-11.2556	-20.2785
 343	1	6	-0.128067	19.9532	-14.0697	-24.4563
 344	1	1	0.005701	19.6369	-13.2116	-22.1507
 345	1	7	0.239394	17.7494	-12.7227	-24.3642
 346	1	5	-0.48496	19.6716	-15.4022	-20.2476
 347	1	1	-0.003409	17.2011	-12.4333	-22.276
 348	1	2	0.352525	20.6327	-14.6664	-20.4014
 349	1	6	-0.665659	18.747	-11.6658	-20.5307
 350	1	1	-0.510331	17.2148	-13.2869	-23.5869
 351	1	1	0.240953	18.3939	-12.7876	-21.3365
 352	1	4	0.015262	17.9236	-14.511	-23.3422
 353	1	4	0.176506	20.7129	-13.6014	-21.2619
 354	1	3	0.090205	22.7654	-14.967	-20.297
 355	1	1	-0.197476	21.9207	-14.8387	-19.6096
 356	1	1	-0.039041	15.8203	-13.6682	-24.1339
 357	1	7	0.144117	15.373	-14.4469	-23.4983
 358	1	3	0.104606	21.8441	-15.7258	-18.9701
 359	1	7	0.111943	18.0755	-13.6316	-20.7119
 360	1	7	0.160853	15.1455	-12.8024	-24.1337
 361	1	3	0.069306	22.0994	-13.9557	-18.985
 362	1	4	-0.432857	15.9937	-14.1647	-25.4757
 363	1	3	0.042395	17.4205	-14.5865	-27.7934
 364	1	2	0.753764	16.2707	-13.3117	-26.5078
 365	1	1	-0.122098	16.4579	-14.0668	-27.8135
 366	1	3	0.030493	16.4373	-13.3743	-28.6632
 367	1	5	-0.562583	16.3138	-12.0947	-26.415
 368	1	3	0.048272	15.6608	-14.8098	-27.9339
 369	1	4	-0.191545	15.9603	-12.6805	-21.5637
 370	1	9	0.130627	15.0761	-12.1137	-19.7695
 371	1	3	0.015236	13.9406	-10.1643	-18.6185
 372	1	7	0.210365	17.2674	-11.3743	-22.5661
 373	1	1	-0.218842	7.2603	-3.07173	-16.1613
 374	1	2	0.68591	8.54544	-2.89657	-16.9551
 375	1	3	0.086668	6.40877	-2.72177	-16.7514
 376	1	3	0.071846	7.31469	-2.50303	-15.2263
 377	1	3	0.062371	7.11713	-4.12708	-15.9127
 378	1	4	-0.291145	9.11098	-1.67299	-16.7083
 379	1	1	-0.015993	10.3398	-1.28793	-17.3657
 380	1	5	-0.555985	8.88318	-3.6571	-17.8492
 381	1	2	0.652223	10.23	-4.77101	-13.5622
 382	1	3	0.062504	8.82282	-6.25658	-12.888
 383	1	5	-0.583019	9.51629	-4.37141	-14.4621
 384	1	1	-0.168764	9.81515	-5.88023	-12.6119
 385	1	3	0.062846	10.5365	-6.70317	-12.664
 386	1	4	-0.264747	11.4795	-4.30744	-13.2577
 387	1	3	0.073216	9.78604	-5.49678	-11.5864
 388	1	1	-0.015836	12.476	-3.67102	-15.4633
 389	1	1	0.044531	12.1446	-3.24802	-14.0009
 390	1	1	0.341309	11.3389	-1.91241	-13.9149
 391	1	1	0.132892	11.6542	-0.961895	-15.1011
 392	1	6	-0.74435	11.6748	-1.26161	-12.6838
 393	1	7	-0.00272	10.2627	-2.11404	-13.931
 394	1	1	-0.008403	11.5608	-1.66742	-16.4934
 395	1	4	-0.239698	11.5042	-3.09656	-16.3443
 396	1	7	0.089672	10.3389	-0.207202	-17.5431
 397	1	7	0.088396	10.4285	-1.77376	-18.3451
 398	1	7	0.05623	12.4659	-1.40721	-17.058
 399	1	7	0.125955	13.1047	-3.05734	-13.5083
 400	1	8	0.456798	11.2753	-0.370084	-12.7521
 401	1	9	0.198085	15.2149	-8.28298	-17.2199
 402	1	7	0.095469	15.5211	-5.95781	-18.2415
 403	1	1	-0.308877	14.3577	-7.69737	-17.5699
 404	1	8	0.426958	12.9664	-6.4382	-19.2806
 405	1	6	-0.128067	14.0107	-8.11368	-18.9028
 406	1	1	0.005701	14.7187	-6.18299	-17.5285
 407	1	7	0.239394	11.5982	-7.53714	-17.8108
 408	1	5	-0.48496	15.8238	-3.74698	-16.484
 409	1	1	-0.003409	12.2935	-5.64991	-16.9508
 410	1	2	0.352525	15.7089	-4.73994	-15.7883
 411	1	6	-0.665659	13.1226	-5.47012	-19.2167
 412	1	1	-0.510331	12.0518	-7.19236	-16.8682
 413	1	1	0.240953	13.496	-5.28172	-17.854
 414	1	4	0.015262	13.2743	-7.92292	-16.6458
 415	1	4	0.176506	15.1984	-5.9436	-16.1865
 416	1	3	0.090205	16.4406	-3.76812	-14.0056
 417	1	1	-0.197476	16.0932	-4.76116	-14.315
 418	1	1	-0.039041	11.0855	-7.54411	-15.7219
 419	1	7	0.144117	11.6287	-7.6372	-14.7701
 420	1	3	0.104606	16.8962	-5.48843	-14.1477
 421	1	7	0.111943	13.754	-4.22383	-17.7177
 422	1	7	0.160853	10.3379	-6.74619	-15.6015
 423	1	3	0.069306	15.2257	-5.04352	-13.7054
 424	1	4	-0.432857	10.4363	-8.7773	-16.0719
 425	1	3	0.042395	8.02477	-10.8639	-15.142
 426	1	2	0.753764	9.49145	-9.28227	-15.2236
 427	1	1	-0.122098	8.84721	-10.5383	-15.7896
 428	1	3	0.030493	9.5916	-11.3394	-15.8656
 429	1	5	-0.562583	9.18	-8.77701	-14.1569
 430	1	3	0.048272	8.45077	-10.3277	-16.79
 431	1	4	-0.191545	12.5002	-5.11535	-15.6136
 432	1	9	0.130627	13.4565	-3.26404	-15.7402
 433	1	3	0.015236	12.7	-0.661164	-14.9707
 434	1	7	0.210365	11.3906	-5.18911	-17.3873
 435	1	1	-0.218842	6.97088	10.3033	-11.2519
 436	1	2	0.68591	8.29436	9.64228	-10.914
 437	1	3	0.086668	6.96225	10.5772	-12.3121
 438	1	3	0.071846	6.84054	11.2069	-10.6457
 439	1	3	0.062371	6.14257	9.61301	-11.0543
 440	1	4	-0.291145	8.35044	8.36678	-11.3989
 441	1	1	-0.015993	9.5459	7.56562	-11.2553
 442	1	5	-0.555985	9.13747	10.162	-10.2039
 443	1	2	0.652223	15.1979	8.08576	-12.6369
 444	1	3	0.062504	16.9	8.21932	-11.3238
 445	1	5	-0.583019	15.5772	8.96561	-13.3902
 446	1	1	-0.168764	15.9872	7.62137	-11.4259
 447	1	3	0.062846	15.3759	7.73581	-10.5235
 448	1	4	-0.264747	14.0371	7.38185	-12.7726
 449	1	3	0.073216	16.2543	6.5655	-11.5445
 450	1	1	-0.015836	12.0174	6.62515	-13.9064
 451	1	1	0.044531	13.0939	7.7295	-13.8182
 452	1	1	0.341309	12.4451	9.09934	-13.5032
 453	1	1	0.132892	11.4525	9.02786	-12.3083
 454	1	6	-0.74435	11.793	9.62662	-14.6615
 455	1	7	-0.00272	13.243	9.80142	-13.254
 456	1	1	-0.008403	10.4862	7.81741	-12.46
 457	1	4	-0.239698	11.243	6.6109	-12.6877
 458	1	7	0.089672	9.25678	6.50659	-11.2706
 459	1	7	0.088396	10.0529	7.75313	-10.3003
 460	1	7	0.05623	9.85839	7.9922	-13.3446
 461	1	7	0.125955	13.6138	7.80214	-14.7814
 462	1	8	0.456798	11.737	10.5975	-14.4538
 463	1	9	0.198085	12.1877	1.39926	-15.993
 464	1	7	0.095469	9.51314	2.40654	-14.9002
 465	1	1	-0.308877	11.4563	1.46853	-15.1783
 466	1	8	0.426958	9.3636	4.56526	-14.2534
 467	1	6	-0.128067	10.8025	0.202014	-15.0274
 468	1	1	0.005701	10.4174	2.58193	-15.4987
 469	1	7	0.239394	13.3758	3.06385	-12.9391
 470	1	5	-0.48496	7.9754	3.27668	-16.856
 471	1	1	-0.003409	11.8774	4.1557	-14.0369
 472	1	2	0.352525	8.93956	2.83093	-17.456
 473	1	6	-0.665659	9.81198	4.89903	-15.0786
 474	1	1	-0.510331	12.8938	2.98859	-13.9241
 475	1	1	0.240953	10.9336	4.0346	-15.2673
 476	1	4	0.015262	12.1549	1.75884	-13.959
 477	1	4	0.176506	10.1275	2.4372	-16.9049
 478	1	3	0.090205	9.34244	1.59863	-19.1891
 479	1	1	-0.197476	8.91627	2.58126	-18.9566
 480	1	1	-0.039041	14.0284	3.01251	-14.9849
 481	1	7	0.144117	13.6435	2.94235	-16.0123
 482	1	3	0.104606	9.50067	3.35047	-19.473
 483	1	7	0.111943	11.505	4.34677	-16.1523
 484	1	7	0.160853	14.5744	3.96515	-14.915
 485	1	3	0.069306	7.88311	2.60469	-19.32
 486	1	4	-0.432857	14.935	1.94035	-14.6592
 487	1	3	0.042395	15.5654	-0.570769	-13.8981
 488	1	2	0.753764	15.0017	0.820688	-15.4417
 489	1	1	-0.122098	15.9563	-0.209338	-14.8563
 490	1	3	0.030493	16.9397	0.245213	-14.6875
 491	1	5	-0.562583	14.3896	0.656994	-16.4856
 492	1	3	0.048272	16.0643	-1.05532	-15.5453
 493	1	4	-0.191545	12.671	5.36012	-14.1241
 494	1	9	0.130627	11.3505	6.8366	-14.7532
 495	1	3	0.015236	10.838	9.93706	-12.326
 496	1	7	0.210365	11.2623	4.17384	-13.1259
 497	1	1	-0.218842	14.5887	16.3176	-13.3062
 498	1	2	0.68591	14.8038	16.6156	-11.8337
 499	1	3	0.086668	13.5661	15.9565	-13.4619
 500	1	3	0.071846	15.2983	15.549	-13.6315
 501	1	3	0.062371	14.7504	17.2266	-13.8961
 502	1	4	-0.291145	16.1024	16.9707	-11.5928
 503	1	1	-0.015993	16.5615	17.2561	-10.2536
 504	1	5	-0.555985	13.8968	16.6309	-11.0209
 505	1	2	0.652223	16.8469	12.6038	-5.5002
 506	1	3	0.062504	16.3898	11.9346	-3.50236
 507	1	5	-0.583019	18.0584	12.5262	-5.37446
 508	1	1	-0.168764	15.8585	12.174	-4.4305
 509	1	3	0.062846	15.1424	12.9819	-4.24038
 510	1	4	-0.264747	16.2203	13.1308	-6.58891
 511	1	3	0.073216	15.3099	11.29	-4.77215
 512	1	1	-0.015836	15.9719	13.8657	-8.90882
 513	1	1	0.044531	16.9654	13.6457	-7.72685
 514	1	1	0.341309	17.7322	14.9297	-7.27108
 515	1	1	0.132892	17.8683	16.096	-8.30937
 516	1	6	-0.74435	19.0308	14.559	-6.78914
 517	1	7	-0.00272	17.1627	15.3337	-6.42354
 518	1	1	-0.008403	16.9465	15.9308	-9.54824
 519	1	4	-0.239698	15.7526	15.264	-9.12126
 520	1	7	0.089672	15.798	17.7968	-9.6768
 521	1	7	0.088396	17.4537	17.8915	-10.3232
 522	1	7	0.05623	17.4746	15.3093	-10.2843
 523	1	7	0.125955	17.7045	12.9024	-8.05152
 524	1	8	0.456798	18.8746	13.7998	-6.15689
 525	1	9	0.198085	11.8327	11.0075	-10.7458
 526	1	7	0.095469	13.2984	9.21641	-8.72103
 527	1	1	-0.308877	12.5673	10.2322	-10.4917
 528	1	8	0.426958	13.0927	10.397	-6.55871
 529	1	6	-0.128067	12.1568	8.97621	-11.052
 530	1	1	0.005701	12.6795	10.0925	-8.95582
 531	1	7	0.239394	15.3942	11.9341	-11.0338
 532	1	5	-0.48496	11.8691	9.21734	-6.36326
 533	1	1	-0.003409	14.5084	11.9048	-9.05849
 534	1	2	0.352525	11.0439	9.45851	-7.22839
 535	1	6	-0.665659	13.7435	11.0281	-6.96687
 536	1	1	-0.510331	14.3804	11.8684	-10.6155
 537	1	1	0.240953	13.2864	11.3547	-8.2847
 538	1	4	0.015262	13.8498	10.5952	-11.0228
 539	1	4	0.176506	11.3259	9.89609	-8.49209
 540	1	3	0.090205	9.35004	9.01486	-5.96548
 541	1	1	-0.197476	9.54577	9.30923	-7.00377
 542	1	1	-0.039041	13.5743	13.0385	-11.2517
 543	1	7	0.144117	12.4865	12.8905	-11.2131
 544	1	3	0.104606	9.14471	8.54288	-7.67725
 545	1	7	0.111943	12.5216	12.1442	-8.25465
 546	1	7	0.160853	13.7819	13.9864	-10.7303
 547	1	3	0.069306	9.03785	10.259	-7.21094
 548	1	4	-0.432857	14.0635	13.1504	-12.6009
 549	1	3	0.042395	14.2566	13.733	-15.2519
 550	1	2	0.753764	13.3972	12.5791	-13.647
 551	1	1	-0.122098	14.2058	12.6867	-14.9304
 552	1	3	0.030493	13.7443	12.0849	-15.7225
 553	1	5	-0.562583	12.2662	12.114	-13.6023
 554	1	3	0.048272	15.2245	12.3211	-14.7542
 555	1	4	-0.191545	14.6868	13.2728	-8.63982
 556	1	9	0.130627	16.3841	13.4432	-9.8332
 557	1	3	0.015236	18.8976	16.1134	-8.692
 558	1	7	0.210365	15.3686	11.2997	-8.73978
 559	1	1	-0.218842	18.8117	25.4065	-10.3626
 560	1	2	0.68591	18.8021	25.9634	-8.95008
 561	1	3	0.086668	18.3332	24.4212	-10.3688
 562	1	3	0.071846	19.8453	25.2998	-10.7101
 563	1	3	0.062371	18.2686	26.0795	-11.036
 564	1	4	-0.291145	19.5075	25.1667	-8.09789
 565	1	1	-0.015993	19.6112	25.5433	-6.71093
 566	1	5	-0.555985	18.2352	26.9945	-8.63332
 567	1	2	0.652223	19.727	22.3128	-1.73156
 568	1	3	0.062504	18.5647	22.2994	0.0836696
 569	1	5	-0.583019	20.8017	22.202	-1.16894
 570	1	1	-0.168764	18.399	22.3601	-0.997951
 571	1	3	0.062846	17.8754	23.2932	-1.23383
 572	1	4	-0.264747	19.5683	22.4128	-3.08273
 573	1	3	0.073216	17.7757	21.5161	-1.31364
 574	1	1	-0.015836	20.2694	22.0885	-5.4048
 575	1	1	0.044531	20.7337	22.3438	-3.94502
 576	1	1	0.341309	21.5708	23.644	-3.8531
 577	1	1	0.132892	20.7652	24.804	-4.51459
 578	1	6	-0.74435	22.8232	23.369	-4.50479
 579	1	7	-0.00272	21.7619	23.8944	-2.80322
 580	1	1	-0.008403	20.4237	24.451	-5.98536
 581	1	4	-0.239698	19.609	23.2594	-5.93944
 582	1	7	0.089672	18.6157	25.6381	-6.25803
 583	1	7	0.088396	20.123	26.5119	-6.63036
 584	1	7	0.05623	21.3466	24.2579	-6.5481
 585	1	7	0.125955	21.3697	21.5081	-3.6296
 586	1	8	0.456798	23.4265	24.1255	-4.35855
 587	1	9	0.198085	18.9638	16.886	-6.1635
 588	1	7	0.095469	20.1366	18.0892	-8.13251
 589	1	1	-0.308877	18.5516	17.7779	-6.65477
 590	1	8	0.426958	17.7847	19.308	-8.49085
 591	1	6	-0.128067	17.6127	17.3586	-7.65914
 592	1	1	0.005701	19.7355	18.6005	-7.24787
 593	1	7	0.239394	16.6029	19.7021	-6.80981
 594	1	5	-0.48496	22.3731	19.5945	-7.56047
 595	1	1	-0.003409	18.5226	20.7186	-6.51842
 596	1	2	0.352525	22.0033	19.14	-6.49215
 597	1	6	-0.665659	18.4663	19.9446	-8.79043
 598	1	1	-0.510331	17.3525	19.8228	-6.01651
 599	1	1	0.240953	19.3177	20.0402	-7.65386
 600	1	4	0.015262	17.8758	18.5381	-5.63223
 601	1	4	0.176506	20.7617	18.6291	-6.23211
 602	1	3	0.090205	22.3682	19.4897	-4.3893
 603	1	1	-0.197476	22.9008	19.098	-5.26339
 604	1	1	-0.039041	16.6477	20.4364	-4.78839
 605	1	7	0.144117	15.7446	19.8693	-4.51778
 606	1	3	0.104606	23.794	19.7104	-5.43851
 607	1	7	0.111943	20.1931	20.6526	-7.90852
 608	1	7	0.160853	17.3293	20.4261	-3.92306
 609	1	3	0.069306	23.206	18.0651	-5.05904
 610	1	4	-0.432857	16.3196	21.7904	-5.15039
 611	1	3	0.042395	16.7056	24.4057	-5.23622
 612	1	2	0.753764	15.9749	22.6821	-4.17818
 613	1	1	-0.122098	15.7777	24.075	-4.75547
 614	1	3	0.030493	15.5097	24.7821	-3.96148
 615	1	5	-0.562583	15.8706	22.414	-2.99283
 616	1	3	0.048272	14.9805	24.0537	-5.50705
 617	1	4	-0.191545	19.3813	20.9561	-5.38081
 618	1	9	0.130627	21.1433	21.8631	-6.03153
 619	1	3	0.015236	19.8064	24.8628	-3.98274
 620	1	7	0.210365	18.114	21.667	-6.89711
 621	1	1	-0.218842	32.0494	31.1092	-4.38842
 622	1	2	0.68591	31.1134	30.5446	-5.44147
 623	1	3	0.086668	31.7064	32.1077	-4.09504
 624	1	3	0.071846	33.066	31.1796	-4.7917
 625	1	3	0.062371	32.0505	30.4599	-3.50593
 626	1	4	-0.291145	29.8227	30.5266	-5.00151
 627	1	1	-0.015993	28.7896	30.0572	-5.89112
 628	1	5	-0.555985	31.4717	30.2103	-6.55751
 629	1	2	0.652223	23.2833	32.2346	-2.60259