pySIMM System Object

1242 atoms
1281 bonds
2360 angles
3277 dihedrals
80 impropers

9 atom types
10 bond types
23 angle types
20 dihedral types
1 improper types

-157.209496 157.209496 xlo xhi
-157.209496 157.209496 ylo yhi
-157.209496 157.209496 zlo zhi

Masses

   1	12.01	# c3
   2	12.01	# c
   3	1.008	# hc
   4	16.0	# os
   5	16.0	# o
   6	16.0	# oh
   7	1.008	# h1
   8	1.008	# ho
   9	1.008	# h2

Pair Coeffs

   1	0.1094	3.3996695084235347	# c3
   2	0.086	3.3996695084235347	# c
   3	0.0157	2.649532787749369	# hc
   4	0.17	3.0000123434657784	# os
   5	0.21	2.959921901149463	# o
   6	0.2104	3.0664733878390478	# oh
   7	0.0157	2.471353044121301	# h1
   8	0.0047	0.5379246460131368	# ho
   9	0.0157	2.2931733004932333	# h2

Bond Coeffs

   1	331.7	1.0961	# c3,h2
   2	637.7	1.2183	# c,o
   3	300.9	1.5375	# c3,c3
   4	330.6	1.0969	# c3,hc
   5	316.7	1.4233	# c3,oh
   6	330.6	1.0969	# c3,h1
   7	371.4	0.973	# ho,oh
   8	308.6	1.4316	# c3,os
   9	313.0	1.5241	# c,c3
  10	390.8	1.3584	# c,os

Angle Coeffs

   1	46.93	108.77	# c,c3,hc
   2	67.4	123.2	# c3,c,o
   3	68.0	107.97	# c3,c3,os
   4	46.39	109.56	# c3,c3,h1
   5	46.25	110.22	# c3,c3,h2
   6	62.86	111.51	# c3,c3,c3
   7	68.89	110.72	# c3,c,os
   8	72.58	109.38	# oh,c3,os
   9	75.32	123.25	# o,c,os
  10	67.47	110.19	# c3,c3,oh
  11	46.34	109.8	# c3,c3,hc
  12	47.38	107.26	# c3,oh,ho
  13	39.24	108.46	# h1,c3,h1
  14	50.85	109.58	# h2,c3,os
  15	72.74	108.29	# os,c3,os
  16	50.8	109.78	# h1,c3,os
  17	63.28	115.98	# c,os,c3
  18	62.7	112.48	# c3,os,c3
  19	50.93	110.26	# h1,c3,oh
  20	39.4	107.58	# hc,c3,hc
  21	51.13	109.43	# h2,c3,oh
  22	51.11	109.5	# hc,c3,oh
  23	62.7	112.48	# c3,oh,c3

Dihedral Coeffs

   1	3	0.18	3	0	0.25	2	180	0.2	1	180	# c3,c3,c3,c3
   2	1	0.3833333333333333	3	0	# X,c3,os,X
   3	2	0.144	3	0	1.175	2	0	# os,c3,c3,oh
   4	3	0.1	3	0	0.85	2	180	1.35	1	180	# c3,os,c3,os
   5	2	0.144	3	0	1.175	2	0	# os,c3,c3,os
   6	3	2.7	2	180	0.0	1	0	1.15	3	0	# c3,c,os,c3
   7	2	0.0	3	0	0.25	1	0	# hc,c3,c3,oh
   8	1	0.16	3	0	# hc,c3,c3,c3
   9	1	0.15555555555555556	3	0	# X,c3,c3,X
  10	2	0.16	3	0	0.25	1	0	# ho,oh,c3,c3
  11	2	0.383	3	0	0.8	1	180	# c3,c3,os,c
  12	1	0.0	2	180	# X,c,c3,X
  13	2	2.7	2	180	1.4	1	180	# o,c,os,c3
  14	2	0.0	3	0	0.25	1	0	# hc,c3,c3,os
  15	2	0.0	3	0	0.25	1	0	# h1,c3,c3,oh
  16	1	0.16666666666666666	3	0	# X,c3,oh,X
  17	3	0.8	1	0	0.0	2	0	0.08	3	180	# hc,c3,c,o
  18	2	0.0	3	0	0.25	1	0	# h1,c3,c3,os
  19	2	0.383	3	0	0.1	2	180	# c3,c3,os,c3
  20	2	0.144	3	0	1.175	2	0	# oh,c3,c3,oh

Improper Coeffs

   1	10.5	-1	2	# c,X,X,o

Atoms

   1	1	1	-0.218842	36.3395	9.59679	-5.89428
   2	1	2	0.68591	34.8895	9.84253	-6.26937
   3	1	3	0.086668	36.8035	10.5367	-5.57702
   4	1	3	0.071846	36.8837	9.19221	-6.75514
   5	1	3	0.062371	36.3846	8.87927	-5.06641
   6	1	4	-0.291145	34.2298	10.5126	-5.28077
   7	1	1	-0.015993	32.8247	10.7939	-5.43821
   8	1	5	-0.555985	34.401	9.49349	-7.3308
   9	1	2	0.652223	29.312	10.8029	0.290289
  10	1	3	0.062504	29.3043	9.36704	1.89079
  11	1	5	-0.583019	29.1763	12.012	0.200807
  12	1	1	-0.168764	28.5804	9.94527	1.30616
  13	1	3	0.062846	27.993	10.5785	1.97969
  14	1	4	-0.264747	30.119	10.0448	-0.504334
  15	1	3	0.073216	27.913	9.2511	0.78413
  16	1	1	-0.015836	31.7404	9.44301	-2.15379
  17	1	1	0.044531	30.9211	10.6111	-1.57083
  18	1	1	0.341309	30.0453	11.3057	-2.64826
  19	1	1	0.132892	30.6656	11.2556	-4.08313
  20	1	6	-0.74435	29.7934	12.6661	-2.28407
  21	1	7	-0.00272	29.0816	10.7852	-2.64886
  22	1	1	-0.008403	32.2111	11.044	-4.0396
  23	1	4	-0.239698	32.6122	9.93374	-3.18719
  24	1	7	0.089672	32.3233	9.94085	-5.91099
  25	1	7	0.088396	32.6795	11.668	-6.08526
  26	1	7	0.05623	32.6517	11.9644	-3.63296
  27	1	7	0.125955	31.6213	11.3496	-1.1659
  28	1	8	0.456798	29.4576	12.6355	-1.34291
  29	1	9	0.198085	31.2273	4.12223	-2.83195
  30	1	7	0.095469	29.6732	4.51566	-1.1219
  31	1	1	-0.308877	30.2627	4.46448	-3.2106
  32	1	8	0.426958	28.9441	6.58191	-0.00679666
  33	1	6	-0.128067	29.6532	3.34865	-3.84439
  34	1	1	0.005701	29.4542	5.08006	-2.03492
  35	1	7	0.239394	32.4623	5.778	-3.57433
  36	1	5	-0.48496	27.32	5.69798	-0.256337
  37	1	1	-0.003409	31.1144	7.0939	-2.44461
  38	1	2	0.352525	27.0926	5.32495	-1.39699
  39	1	6	-0.665659	29.8169	6.86307	-0.387394
  40	1	1	-0.510331	31.5468	6.35828	-3.76171
  41	1	1	0.240953	29.7896	6.5857	-1.79715
  42	1	4	0.015262	30.4967	5.48501	-4.17303
  43	1	4	0.176506	28.0418	4.97061	-2.32239
  44	1	3	0.090205	25.5494	6.02438	-2.70601
  45	1	1	-0.197476	25.6907	5.21812	-1.97865
  46	1	1	-0.039041	31.8146	7.28704	-4.96491
  47	1	7	0.144117	30.8769	7.77443	-5.25511
  48	1	3	0.104606	24.9361	5.29882	-1.18747
  49	1	7	0.111943	28.9831	7.16303	-2.27025
  50	1	7	0.160853	32.5357	8.07359	-4.70317
  51	1	3	0.069306	25.5869	4.25915	-2.49452
  52	1	4	-0.432857	32.3296	6.50517	-6.05906
  53	1	3	0.042395	33.3898	4.54117	-7.43717
  54	1	2	0.753764	33.6657	6.22055	-6.11251
  55	1	1	-0.122098	34.014	5.44021	-7.37165
  56	1	3	0.030493	35.0698	5.14924	-7.34336
  57	1	5	-0.562583	34.4856	6.5535	-5.27035
  58	1	3	0.048272	33.8346	6.06324	-8.25649
  59	1	4	-0.191545	30.8447	8.47984	-2.73753
  60	1	9	0.130627	32.3393	8.98209	-1.35933
  61	1	3	0.015236	30.4923	12.2287	-4.56304
  62	1	7	0.210365	31.9062	6.9946	-1.68691
  63	1	1	-0.218842	23.5009	11.4733	-12.5878
  64	1	2	0.68591	22.5453	11.8392	-11.4667
  65	1	3	0.086668	24.4125	11.0383	-12.1611
  66	1	3	0.071846	23.7596	12.3664	-13.1672
  67	1	3	0.062371	23.032	10.733	-13.2458
  68	1	4	-0.291145	22.3027	10.765	-10.6589
  69	1	1	-0.015993	21.469	10.9232	-9.49473
  70	1	5	-0.555985	22.0248	12.9389	-11.3534
  71	1	2	0.652223	22.33	10.0239	-4.04493
  72	1	3	0.062504	20.3074	9.58572	-3.45124
  73	1	5	-0.583019	23.3878	10.0455	-3.43877
  74	1	1	-0.168764	21.2132	9.04145	-3.74083
  75	1	3	0.062846	20.9987	8.4433	-4.63377
  76	1	4	-0.264747	21.9588	10.9091	-5.01202
  77	1	3	0.073216	21.5143	8.37677	-2.92313
  78	1	1	-0.015836	23.815	11.2262	-6.60342
  79	1	1	0.044531	22.9029	11.8779	-5.53266
  80	1	1	0.341309	22.0919	13.0152	-6.19109
  81	1	1	0.132892	21.337	12.501	-7.46213
  82	1	6	-0.74435	22.9879	14.0915	-6.48596
  83	1	7	-0.00272	21.3529	13.3687	-5.46093
  84	1	1	-0.008403	22.2609	11.6797	-8.39892
  85	1	4	-0.239698	22.9773	10.6892	-7.63864
  86	1	7	0.089672	21.172	9.93828	-9.1121
  87	1	7	0.088396	20.5552	11.4681	-9.76573
  88	1	7	0.05623	22.9784	12.3695	-8.8631
  89	1	7	0.125955	23.5086	12.3091	-4.72577
  90	1	8	0.456798	22.4008	14.8645	-6.64606
  91	1	9	0.198085	28.2083	11.1942	-4.46757
  92	1	7	0.095469	28.2329	8.72254	-3.77202
  93	1	1	-0.308877	28.6073	10.3948	-5.10511
  94	1	8	0.426958	24.9498	9.45978	-3.48839
  95	1	6	-0.128067	30.0245	10.2783	-4.92684
  96	1	1	0.005701	27.9274	9.04786	-4.77363
  97	1	7	0.239394	26.7513	12.0311	-6.80557
  98	1	5	-0.48496	27.3394	6.26313	-4.77382
  99	1	1	-0.003409	25.9096	10.4569	-5.5571
 100	1	2	0.352525	28.0516	6.75299	-5.63665
 101	1	6	-0.665659	25.9137	9.19331	-3.47059
 102	1	1	-0.510331	26.8647	10.9407	-6.72021
 103	1	1	0.240953	26.3854	9.17591	-4.82071
 104	1	4	0.015262	28.2664	10.6921	-6.4616
 105	1	4	0.176506	28.3804	8.07553	-5.74188
 106	1	3	0.090205	28.3323	4.89417	-6.69885
 107	1	1	-0.197476	28.6735	5.93409	-6.76014
 108	1	1	-0.039041	26.5766	10.3336	-8.11858
 109	1	7	0.144117	25.6818	10.8091	-8.54892
 110	1	3	0.104606	29.7655	5.95048	-6.67302
 111	1	7	0.111943	25.9634	8.3112	-5.35028
 112	1	7	0.160853	27.4096	10.5261	-8.81273
 113	1	3	0.069306	28.4023	6.35502	-7.73402
 114	1	4	-0.432857	26.3507	8.91673	-7.98417
 115	1	3	0.042395	26.3405	6.20354	-8.85018
 116	1	2	0.753764	25.7379	8.26577	-9.01863
 117	1	1	-0.122098	25.449	6.81297	-8.67101
 118	1	3	0.030493	24.6258	6.43628	-9.28963
 119	1	5	-0.562583	25.4391	8.77899	-10.0849
 120	1	3	0.048272	25.1667	6.73026	-7.61464
 121	1	4	-0.191545	24.5935	10.1466	-6.06723
 122	1	9	0.130627	24.4768	11.9857	-7.03967
 123	1	3	0.015236	20.5209	11.8457	-7.1296
 124	1	7	0.210365	25.8394	11.2466	-4.79576
 125	1	1	-0.218842	19.3151	15.1763	-2.0652
 126	1	2	0.68591	18.6201	16.5262	-2.07814
 127	1	3	0.086668	18.9468	14.5696	-2.89843
 128	1	3	0.071846	19.0982	14.6598	-1.12385
 129	1	3	0.062371	20.3976	15.312	-2.16628
 130	1	4	-0.291145	17.2633	16.383	-1.96203
 131	1	1	-0.015993	16.4189	17.5539	-2.02994
 132	1	5	-0.555985	19.2179	17.5883	-2.10388
 133	1	2	0.652223	19.3625	21.2524	-4.28745
 134	1	3	0.062504	21.2058	22.1146	-3.57195
 135	1	5	-0.583019	18.7205	22.292	-4.25212
 136	1	1	-0.168764	20.8223	21.1376	-3.88661
 137	1	3	0.062846	20.9216	20.4251	-3.05894
 138	1	4	-0.264747	18.8517	20.0479	-4.67092
 139	1	3	0.073216	21.4121	20.7704	-4.73397
 140	1	1	-0.015836	17.2064	18.475	-5.5424
 141	1	1	0.044531	17.4601	19.9248	-5.05962
 142	1	1	0.341309	16.555	20.2834	-3.84565
 143	1	1	0.132892	15.3969	19.2626	-3.68767
 144	1	6	-0.74435	16.0893	21.6309	-3.99023
 145	1	7	-0.00272	17.162	20.2287	-2.9331
 146	1	1	-0.008403	15.9775	17.8278	-3.49466
 147	1	4	-0.239698	17.1233	17.6283	-4.37335
 148	1	7	0.089672	16.9328	18.4277	-1.60686
 149	1	7	0.088396	15.5189	17.3836	-1.42574
 150	1	7	0.05623	15.1954	17.1067	-3.76411
 151	1	7	0.125955	17.237	20.6076	-5.88969
 152	1	8	0.456798	16.933	22.1666	-4.02677
 153	1	9	0.198085	19.1506	13.8623	-6.98496
 154	1	7	0.095469	18.1165	14.4968	-9.01651
 155	1	1	-0.308877	19.8045	14.4306	-7.65957
 156	1	8	0.426958	17.1596	16.634	-9.76606
 157	1	6	-0.128067	20.7688	13.5594	-8.25338
 158	1	1	0.005701	18.9552	15.1507	-8.74394
 159	1	7	0.239394	19.2946	15.366	-5.22084
 160	1	5	-0.48496	18.0858	16.1221	-11.2576
 161	1	1	-0.003409	18.3587	16.6658	-6.7131
 162	1	2	0.352525	19.258	15.8272	-11.0831
 163	1	6	-0.665659	17.0818	16.7096	-8.77904
 164	1	1	-0.510331	19.6214	16.0876	-5.97976
 165	1	1	0.240953	18.4	16.5255	-8.25764
 166	1	4	0.015262	20.4785	15.4465	-6.92471
 167	1	4	0.176506	19.7917	15.3715	-9.90775
 168	1	3	0.090205	19.8826	16.4397	-13.0568
 169	1	1	-0.197476	20.3163	15.9644	-12.1689
 170	1	1	-0.039041	20.5008	17.135	-5.2643
 171	1	7	0.144117	20.9291	17.8461	-5.98723
 172	1	3	0.104606	20.6962	14.9732	-12.4443
 173	1	7	0.111943	19.0682	17.3188	-8.62366
 174	1	7	0.160853	19.9141	17.7161	-4.5354
 175	1	3	0.069306	21.1539	16.5734	-11.8082
 176	1	4	-0.432857	21.533	16.3959	-4.58834
 177	1	3	0.042395	23.0471	15.5654	-2.53268
 178	1	2	0.753764	22.5297	17.0917	-3.96326
 179	1	1	-0.122098	23.5366	16.1499	-3.31983
 180	1	3	0.030493	24.3659	16.72	-2.88417
 181	1	5	-0.562583	22.6436	18.3057	-3.97993
 182	1	3	0.048272	23.9322	15.4616	-4.07586
 183	1	4	-0.191545	18.2595	18.0762	-6.4371
 184	1	9	0.130627	16.2575	18.4187	-6.09369
 185	1	3	0.015236	14.8486	19.2357	-4.6316
 186	1	7	0.210365	17.4508	16.1457	-6.37456
 187	1	1	-0.218842	14.0836	26.9212	-2.16115
 188	1	2	0.68591	12.5757	26.9911	-2.31794
 189	1	3	0.086668	14.5625	27.5466	-2.92242
 190	1	3	0.071846	14.417	25.885	-2.29419
 191	1	3	0.062371	14.3772	27.2751	-1.16649
 192	1	4	-0.291145	12.204	26.752	-3.61068
 193	1	1	-0.015993	10.8103	26.7327	-3.98958
 194	1	5	-0.555985	11.8118	27.2908	-1.41314
 195	1	2	0.652223	8.41006	22.8398	-7.25432
 196	1	3	0.062504	9.60234	21.3957	-8.32001
 197	1	5	-0.583019	7.22303	23.1201	-7.23654
 198	1	1	-0.168764	9.15665	22.382	-8.49607
 199	1	3	0.062846	8.46892	22.3192	-9.3471
 200	1	4	-0.264747	9.24688	22.9375	-6.18314
 201	1	3	0.073216	9.95797	23.0918	-8.72966
 202	1	1	-0.015836	9.93768	23.1474	-3.86771
 203	1	1	0.044531	8.75786	23.3116	-4.86712
 204	1	1	0.341309	8.24462	24.7877	-4.8909
 205	1	1	0.132892	8.55743	25.5287	-3.55774
 206	1	6	-0.74435	6.85674	24.8527	-5.21991
 207	1	7	-0.00272	8.79595	25.3146	-5.68028
 208	1	1	-0.008403	10.1066	25.5245	-3.32848
 209	1	4	-0.239698	10.7129	24.358	-3.91839
 210	1	7	0.089672	10.727	26.6509	-5.0813
 211	1	7	0.088396	10.3282	27.6667	-3.68243
 212	1	7	0.05623	10.329	25.5352	-2.26043
 213	1	7	0.125955	7.93789	22.651	-4.55442
 214	1	8	0.456798	6.74056	24.2776	-6.02704
 215	1	9	0.198085	12.7782	18.6851	-2.27782
 216	1	7	0.095469	12.9778	20.8781	-0.920525
 217	1	1	-0.308877	13.1082	19.6373	-2.7124
 218	1	8	0.426958	14.5365	22.1026	-3.04286
 219	1	6	-0.128067	14.5477	19.6826	-2.59848
 220	1	1	0.005701	12.4847	20.8091	-1.89895
 221	1	7	0.239394	13.8953	21.1041	-4.89462
 222	1	5	-0.48496	10.724	22.1978	-0.191179
 223	1	1	-0.003409	12.1789	22.1047	-4.09968
 224	1	2	0.352525	10.3207	21.2575	-0.857073
 225	1	6	-0.665659	13.9353	22.7013	-2.51952
 226	1	1	-0.510331	12.8226	20.8993	-4.818
 227	1	1	0.240953	12.6051	22.1865	-2.61462
 228	1	4	0.015262	12.5935	19.6908	-4.06503
 229	1	4	0.176506	11.0896	20.4936	-1.69227
 230	1	3	0.090205	8.76775	19.7506	-0.724199
 231	1	1	-0.197476	8.86178	20.8304	-0.886215
 232	1	1	-0.039041	12.3025	20.684	-6.24981
 233	1	7	0.144117	11.34	20.1498	-6.24187
 234	1	3	0.104606	8.40656	21.082	-1.85048
 235	1	7	0.111943	11.9514	22.9115	-2.1191
 236	1	7	0.160853	12.1527	21.6478	-6.76057
 237	1	3	0.069306	8.31282	21.3525	-0.09819
 238	1	4	-0.432857	13.3237	19.9184	-6.91536
 239	1	3	0.042395	14.2593	18.6338	-9.83076
 240	1	2	0.753764	13.186	19.6331	-8.24291
 241	1	1	-0.122098	14.3656	18.8205	-8.75589
 242	1	3	0.030493	14.4145	17.8616	-8.22642
 243	1	5	-0.562583	12.2575	20.0126	-8.93724
 244	1	3	0.048272	15.2986	19.3667	-8.57528
 245	1	4	-0.191545	10.739	21.9937	-4.21786
 246	1	9	0.130627	9.55123	23.0185	-2.8476
 247	1	3	0.015236	8.20571	26.5641	-3.64684
 248	1	7	0.210365	12.5235	23.0233	-4.59593
 249	1	1	-0.218842	8.35894	25.4396	8.9806
 250	1	2	0.68591	8.63881	24.2363	8.09848
 251	1	3	0.086668	9.0364	25.4302	9.84169
 252	1	3	0.071846	7.32194	25.406	9.3323
 253	1	3	0.062371	8.51161	26.3605	8.4067
 254	1	4	-0.291145	7.74631	24.157	7.06716
 255	1	1	-0.015993	7.86113	23.1012	6.08833
 256	1	5	-0.555985	9.52748	23.434	8.32477
 257	1	2	0.652223	12.8331	23.8697	1.64137
 258	1	3	0.062504	12.5098	24.3834	-0.421076
 259	1	5	-0.583019	13.4999	23.1065	2.32007
 260	1	1	-0.168764	13.3073	24.4554	0.325769
 261	1	3	0.062846	13.5637	25.5101	0.468646
 262	1	4	-0.264747	11.6029	24.3469	1.98175
 263	1	3	0.073216	14.1879	23.9083	-0.0299978
 264	1	1	-0.015836	9.61067	24.8044	3.20241
 265	1	1	0.044531	10.9176	23.9754	3.20743
 266	1	1	0.341309	10.6097	22.4514	3.2973
 267	1	1	0.132892	9.45305	22.132	4.29758
 268	1	6	-0.74435	11.7755	21.7247	3.7034
 269	1	7	-0.00272	10.32	22.1128	2.29826
 270	1	1	-0.008403	9.08302	23.3618	5.17176
 271	1	4	-0.239698	8.77382	24.5092	4.34577
 272	1	7	0.089672	6.95148	23.0641	5.47545
 273	1	7	0.088396	7.96775	22.1307	6.59208
 274	1	7	0.05623	9.95617	23.5926	5.79492
 275	1	7	0.125955	11.5195	24.2655	4.07835
 276	1	8	0.456798	12.5426	22.1481	3.21544
 277	1	9	0.198085	9.17347	24.7904	-0.879509
 278	1	7	0.095469	6.77835	26.7272	-0.700374
 279	1	1	-0.308877	8.13475	25.0739	-1.09066
 280	1	8	0.426958	7.38067	28.3907	0.956521
 281	1	6	-0.128067	7.81615	24.8973	-2.48567
 282	1	1	0.005701	7.84118	26.5047	-0.536167
 283	1	7	0.239394	5.83106	25.0404	0.686898
 284	1	5	-0.48496	7.42863	29.281	-0.519631
 285	1	1	-0.003409	7.72081	25.2756	1.72031
 286	1	2	0.352525	8.35243	28.8068	-1.1591
 287	1	6	-0.665659	7.5133	27.6701	1.6282
 288	1	1	-0.510331	6.73432	24.4406	0.865889
 289	1	1	0.240953	8.16302	26.568	0.987888
 290	1	4	0.015262	7.32938	24.0955	-0.400262
 291	1	4	0.176506	8.66353	27.4731	-1.22643
 292	1	3	0.090205	9.09931	30.7322	-1.76985
 293	1	1	-0.197476	9.28389	29.6742	-1.99349
 294	1	1	-0.039041	6.31473	23.1394	1.56894
 295	1	7	0.144117	7.04346	22.3419	1.38089
 296	1	3	0.104606	9.09486	29.5036	-3.05885
 297	1	7	0.111943	9.25229	26.665	1.10116
 298	1	7	0.160853	6.2795	23.2883	2.65577
 299	1	3	0.069306	10.3308	29.4429	-1.76704
 300	1	4	-0.432857	5.00739	22.7942	1.08379
 301	1	3	0.042395	3.27387	21.1689	-1.22626
 302	1	2	0.753764	4.85812	21.9934	-0.014381
 303	1	1	-0.122098	3.38483	21.7777	-0.32151
 304	1	3	0.030493	2.89104	22.7447	-0.473368
 305	1	5	-0.562583	5.75575	21.4515	-0.639202
 306	1	3	0.048272	2.90795	21.2656	0.522058
 307	1	4	-0.191545	8.87028	24.4563	2.01544
 308	1	9	0.130627	9.84838	25.8756	3.19046
 309	1	3	0.015236	9.80725	21.3706	5.00416
 310	1	7	0.210365	7.22619	25.5656	2.65963
 311	1	1	-0.218842	10.5218	14.5773	6.31525
 312	1	2	0.68591	9.86063	13.4713	5.51185
 313	1	3	0.086668	9.80002	15.0193	7.0106
 314	1	3	0.071846	10.8775	15.3612	5.63714
 315	1	3	0.062371	11.3689	14.1759	6.88343
 316	1	4	-0.291145	8.73426	13.9135	4.88205
 317	1	1	-0.015993	8.06453	13.0491	3.93904
 318	1	5	-0.555985	10.2269	12.3084	5.52539
 319	1	2	0.652223	3.31226	16.5327	5.47788
 320	1	3	0.062504	4.23898	16.7855	7.4054
 321	1	5	-0.583019	2.21803	16.1631	5.08855
 322	1	1	-0.168764	3.53368	17.3172	6.75789
 323	1	3	0.062846	3.94666	18.304	6.52071
 324	1	4	-0.264747	4.4841	16.2971	4.81773
 325	1	3	0.073216	2.58159	17.4419	7.2862
 326	1	1	-0.015836	5.76012	15.7546	2.76918
 327	1	1	0.044531	4.45028	15.5451	3.58047
 328	1	1	0.341309	4.20105	14.0404	3.89348
 329	1	1	0.132892	5.47642	13.3152	4.40961
 330	1	6	-0.74435	3.69545	13.3944	2.72076
 331	1	7	-0.00272	3.43103	13.9502	4.66885
 332	1	1	-0.008403	6.7057	13.6608	3.51542
 333	1	4	-0.239698	6.85094	15.0909	3.42396
 334	1	7	0.089672	7.91351	12.0449	4.35349
 335	1	7	0.088396	8.69628	12.9393	3.04776
 336	1	7	0.05623	6.48726	13.2686	2.51289
 337	1	7	0.125955	3.6189	15.9096	2.9627
 338	1	8	0.456798	2.72116	13.4511	2.77644
 339	1	9	0.198085	8.91652	20.6031	1.95146
 340	1	7	0.095469	8.83087	19.3427	4.70831
 341	1	1	-0.308877	8.35055	20.3991	2.869
 342	1	8	0.426958	8.29749	16.0128	3.94395
 343	1	6	-0.128067	8.27723	21.6033	3.65593
 344	1	1	0.005701	8.97801	19.1841	3.63344
 345	1	7	0.239394	6.41989	19.8989	4.43395
 346	1	5	-0.48496	10.3531	18.739	1.10346
 347	1	1	-0.003409	6.75073	17.9336	3.5579
 348	1	2	0.352525	10.9553	18.8537	2.15897
 349	1	6	-0.665659	8.85791	16.8133	4.10051
 350	1	1	-0.510331	6.23714	19.4034	3.47009
 351	1	1	0.240953	8.28385	17.841	3.29212
 352	1	4	0.015262	7.00769	20.068	2.45515
 353	1	4	0.176506	10.4036	19.0805	3.39476
 354	1	3	0.090205	12.9153	19.6499	2.60686
 355	1	1	-0.197476	12.4704	18.7191	2.2381
 356	1	1	-0.039041	4.73374	19.5341	3.12562
 357	1	7	0.144117	4.57369	19.2691	2.07019
 358	1	3	0.104606	12.8769	18.5005	1.24427
 359	1	7	0.111943	8.42526	17.6283	2.22296
 360	1	7	0.160853	4.13246	18.849	3.7401
 361	1	3	0.069306	12.7378	17.9061	2.92343
 362	1	4	-0.432857	4.31995	20.8961	3.35326
 363	1	3	0.042395	2.83576	22.9545	4.06297
 364	1	2	0.753764	4.24926	21.4236	4.61208
 365	1	1	-0.122098	3.79529	22.8755	4.58664
 366	1	3	0.030493	4.53272	23.4921	4.06228
 367	1	5	-0.562583	4.45614	20.804	5.64338
 368	1	3	0.048272	3.67977	23.2499	5.61041
 369	1	4	-0.191545	6.02649	17.1628	2.5635
 370	1	9	0.130627	5.61722	15.2969	1.7804
 371	1	3	0.015236	5.28535	12.2371	4.31503
 372	1	7	0.210365	6.55046	17.5517	4.56775
 373	1	1	-0.218842	1.81465	8.88159	12.2881
 374	1	2	0.68591	2.42204	10.2024	12.7233
 375	1	3	0.086668	1.20236	9.03587	11.3921
 376	1	3	0.071846	1.19098	8.47683	13.0923
 377	1	3	0.062371	2.61399	8.16756	12.0601
 378	1	4	-0.291145	3.22456	10.0391	13.8194
 379	1	1	-0.015993	4.01152	11.1488	14.3105
 380	1	5	-0.555985	2.13695	11.2726	12.2132
 381	1	2	0.652223	7.54345	8.05248	10.7602
 382	1	3	0.062504	7.4312	6.16791	9.72333
 383	1	5	-0.583019	8.75485	8.04903	10.8983
 384	1	1	-0.168764	6.75587	6.86856	10.2276
 385	1	3	0.062846	6.25337	6.35884	11.0563
 386	1	4	-0.264747	6.73673	9.1252	10.9934
 387	1	3	0.073216	5.99917	7.21558	9.5144
 388	1	1	-0.015836	6.30534	11.5	11.332
 389	1	1	0.044531	7.30205	10.3428	11.5372
 390	1	1	0.341309	7.64399	10.1438	13.0298
 391	1	1	0.132892	6.38756	10.1069	13.9423
 392	1	6	-0.74435	8.56298	11.1456	13.4668
 393	1	7	-0.00272	8.16386	9.18819	13.1143
 394	1	1	-0.008403	5.37498	11.235	13.5703
 395	1	4	-0.239698	5.14144	11.2771	12.1458
 396	1	7	0.089672	4.20279	11.0103	15.3815
 397	1	7	0.088396	3.46304	12.0933	14.1925
 398	1	7	0.05623	5.83752	12.1869	13.8628
 399	1	7	0.125955	8.23233	10.5909	11.0166
 400	1	8	0.456798	9.01441	10.7249	14.243
 401	1	9	0.198085	6.65681	11.8076	5.97026
 402	1	7	0.095469	7.81126	13.7772	7.2365
 403	1	1	-0.308877	6.14869	12.5292	6.61966
 404	1	8	0.426958	5.53167	14.6942	7.71944
 405	1	6	-0.128067	5.69472	13.6213	5.80323
 406	1	1	0.005701	7.17487	13.0083	7.68464
 407	1	7	0.239394	3.88495	13.3725	7.97316
 408	1	5	-0.48496	9.5918	13.0802	9.13549
 409	1	1	-0.003409	5.36507	12.7633	9.46323
 410	1	2	0.352525	9.17441	12.0261	8.68891
 411	1	6	-0.665659	5.99709	14.9016	8.55592
 412	1	1	-0.510331	4.36142	12.4461	8.32067
 413	1	1	0.240953	6.52492	13.6378	8.94373
 414	1	4	0.015262	5.05291	11.8128	7.22842
 415	1	4	0.176506	8.00181	11.8693	8.00549
 416	1	3	0.090205	9.244	9.87598	8.96015
 417	1	1	-0.197476	9.93588	10.7136	8.8173
 418	1	1	-0.039041	3.24254	11.4989	8.79786
 419	1	7	0.144117	3.57016	10.4493	8.75254
 420	1	3	0.104606	10.6184	10.7611	9.67424
 421	1	7	0.111943	7.27055	13.779	9.73843
 422	1	7	0.160853	2.96091	11.7121	9.84247
 423	1	3	0.069306	10.5162	10.5349	7.90399
 424	1	4	-0.432857	2.12365	11.7415	7.92876
 425	1	3	0.042395	0.249053	11.3352	6.08328
 426	1	2	0.753764	0.994316	10.9877	8.07478
 427	1	1	-0.122098	-0.0966812	11.4442	7.11752
 428	1	3	0.030493	-0.333223	12.4994	7.30007
 429	1	5	-0.562583	0.876165	10.0445	8.83951
 430	1	3	0.048272	-1.0008	10.8422	7.26387
 431	1	4	-0.191545	5.91149	11.5211	9.9481
 432	1	9	0.130627	6.78755	12.4447	11.6183
 433	1	3	0.015236	6.71049	10.3095	14.9724
 434	1	7	0.210365	4.84569	13.2927	10.2779
 435	1	1	-0.218842	8.36106	-0.277657	13.1005
 436	1	2	0.68591	8.34336	-0.335318	14.6171
 437	1	3	0.086668	7.57465	-0.925404	12.6969
 438	1	3	0.071846	9.33613	-0.616099	12.7332
 439	1	3	0.062371	8.19149	0.751742	12.7637
 440	1	4	-0.291145	9.22378	0.556406	15.1605
 441	1	1	-0.015993	9.3332	0.67299	16.5949
 442	1	5	-0.555985	7.6591	-1.11849	15.2542
 443	1	2	0.652223	8.26644	5.58544	19.3794
 444	1	3	0.062504	9.51082	6.81487	20.6322
 445	1	5	-0.583019	7.34918	6.35821	19.1575
 446	1	1	-0.168764	9.63253	6.04489	19.8617
 447	1	3	0.062846	10.1972	5.20518	20.2839
 448	1	4	-0.264747	8.18535	4.22313	19.3078
 449	1	3	0.073216	10.1929	6.46169	19.0176
 450	1	1	-0.015836	7.02972	3.54959	17.2436
 451	1	1	0.044531	6.98916	3.59136	18.7882
 452	1	1	0.341309	6.8897	2.15099	19.3497
 453	1	1	0.132892	7.89873	1.15832	18.6956
 454	1	6	-0.74435	5.54813	1.6801	19.1867
 455	1	7	-0.00272	7.09208	2.19295	20.4277
 456	1	1	-0.008403	8.0763	1.37565	17.1641
 457	1	4	-0.239698	8.17556	2.77636	16.8459
 458	1	7	0.089672	10.2232	1.26075	16.8547
 459	1	7	0.088396	9.44048	-0.324471	17.0412
 460	1	7	0.05623	7.18228	0.968506	16.675
 461	1	7	0.125955	6.09616	4.1378	19.1172
 462	1	8	0.456798	5.49384	0.817872	19.6423
 463	1	9	0.198085	6.92984	8.25926	15.5847
 464	1	7	0.095469	4.30438	7.15501	14.8909
 465	1	1	-0.308877	6.39069	7.78863	14.7515
 466	1	8	0.426958	5.77661	5.83017	13.1699
 467	1	6	-0.128067	5.78853	8.79764	13.9246
 468	1	1	0.005701	5.27433	6.85575	15.3123
 469	1	7	0.239394	8.55265	5.38652	13.8514
 470	1	5	-0.48496	3.17697	6.04914	16.9943
 471	1	1	-0.003409	6.96646	4.94384	15.2567
 472	1	2	0.352525	4.14779	6.61792	17.4628
 473	1	6	-0.665659	5.23283	5.14192	13.6037
 474	1	1	-0.510331	8.00804	5.93618	14.6336
 475	1	1	0.240953	5.49982	5.35423	14.9855
 476	1	4	0.015262	7.34911	7.04287	13.9824
 477	1	4	0.176506	5.22874	7.0529	16.7441
 478	1	3	0.090205	4.72785	6.14583	19.4842
 479	1	1	-0.197476	4.2498	6.9683	18.9413
 480	1	1	-0.039041	9.08954	6.44394	15.6218
 481	1	7	0.144117	8.69065	7.18319	16.3331
 482	1	3	0.104606	3.24615	7.1309	19.3511
 483	1	7	0.111943	4.82288	4.72836	15.5842
 484	1	7	0.160853	9.47362	5.59574	16.2088
 485	1	3	0.069306	4.84578	7.87811	19.0846
 486	1	4	-0.432857	10.1602	6.96822	14.8152
 487	1	3	0.042395	11.1492	8.03594	12.6254
 488	1	2	0.753764	10.266	8.3081	14.569
 489	1	1	-0.122098	11.3559	8.59314	13.5472
 490	1	3	0.030493	12.3295	8.27677	13.9394
 491	1	5	-0.562583	9.62545	9.1839	15.1356
 492	1	3	0.048272	11.3864	9.66432	13.3163
 493	1	4	-0.191545	7.13002	4.87164	16.6877
 494	1	9	0.130627	6.11031	3.06858	16.8804
 495	1	3	0.015236	7.46815	0.151161	18.7883
 496	1	7	0.210365	7.11933	3.94622	14.817
 497	1	1	-0.218842	8.88559	-8.37333	20.1929
 498	1	2	0.68591	10.1693	-8.28816	21.0003
 499	1	3	0.086668	8.46563	-7.36849	20.0559
 500	1	3	0.071846	8.15388	-8.98834	20.7285
 501	1	3	0.062371	9.08485	-8.81363	19.2096
 502	1	4	-0.291145	10.0976	-7.30913	21.9462
 503	1	1	-0.015993	11.2414	-7.06066	22.7837
 504	1	5	-0.555985	11.1479	-8.99734	20.7947
 505	1	2	0.652223	14.0757	-2.46514	24.6079
 506	1	3	0.062504	16.1991	-2.25716	24.3272
 507	1	5	-0.583019	14.1029	-2.24197	25.8045
 508	1	1	-0.168764	15.298	-2.36755	23.7129
 509	1	3	0.062846	15.3869	-3.2751	23.1045
 510	1	4	-0.264747	12.9766	-2.88899	23.9181
 511	1	3	0.073216	15.2029	-1.49885	23.0537
 512	1	1	-0.015836	10.6415	-3.43195	23.5313
 513	1	1	0.044531	11.7185	-3.136	24.6027
 514	1	1	0.341309	11.8399	-4.33461	25.5779
 515	1	1	0.132892	11.9927	-5.69038	24.8314
 516	1	6	-0.74435	10.7099	-4.37472	26.4493
 517	1	7	-0.00272	12.7095	-4.17663	26.2176
 518	1	1	-0.008403	10.9525	-5.83584	23.6837
 519	1	4	-0.239698	10.985	-4.65422	22.8514
 520	1	7	0.089672	12.1278	-6.86114	22.1658
 521	1	7	0.088396	11.4433	-7.94168	23.4073
 522	1	7	0.05623	9.95448	-5.94705	24.1281
 523	1	7	0.125955	11.4328	-2.25303	25.1875
 524	1	8	0.456798	11.0445	-4.82492	27.2591
 525	1	9	0.198085	9.45705	-0.854851	19.578
 526	1	7	0.095469	11.2279	1.16122	20.7646
 527	1	1	-0.308877	9.42251	0.0261061	20.2311
 528	1	8	0.426958	9.15182	1.23022	22.5359
 529	1	6	-0.128067	9.15269	1.17722	19.4121
 530	1	1	0.005701	10.7853	0.179519	20.9805
 531	1	7	0.239394	7.62139	-1.24411	22.7723
 532	1	5	-0.48496	13.5711	-0.0480575	21.48
 533	1	1	-0.003409	9.80201	-1.22554	22.8736
 534	1	2	0.352525	12.9895	-0.887705	20.8156
 535	1	6	-0.665659	9.98452	1.17541	23.0483
 536	1	1	-0.510331	8.45914	-1.30758	22.062
 537	1	1	0.240953	10.6421	0.026519	22.5221
 538	1	4	0.015262	8.34594	-0.18051	21.1679
 539	1	4	0.176506	11.6631	-0.854385	20.4766
 540	1	3	0.090205	13.3771	-3.00864	20.8138
 541	1	1	-0.197476	13.692	-2.11749	20.2564
 542	1	1	-0.039041	8.26542	-2.62512	21.2644
 543	1	7	0.144117	9.05908	-2.7671	20.5168
 544	1	3	0.104606	14.7778	-1.99755	20.3555
 545	1	7	0.111943	11.63	-0.0610736	22.996
 546	1	7	0.160853	8.30462	-3.49506	21.9397
 547	1	3	0.069306	13.4439	-2.25175	19.197
 548	1	4	-0.432857	6.97553	-2.5565	20.6328
 549	1	3	0.042395	4.68893	-2.52183	19.7614
 550	1	2	0.753764	6.5416	-3.63528	19.9122
 551	1	1	-0.122098	5.17068	-3.38993	19.2956
 552	1	3	0.030493	4.53149	-4.26834	19.4436
 553	1	5	-0.562583	7.16282	-4.6787	19.7945
 554	1	3	0.048272	5.27952	-3.19689	18.2221
 555	1	4	-0.191545	10.6251	-2.36972	22.5653
 556	1	9	0.130627	9.65337	-3.54614	23.9985
 557	1	3	0.015236	11.8028	-6.50139	25.544
 558	1	7	0.210365	9.59763	-1.17685	23.9545
 559	1	1	-0.218842	20.2048	-8.10816	20.0017
 560	1	2	0.68591	19.4941	-9.40398	20.3481
 561	1	3	0.086668	21.0296	-8.31623	19.3123
 562	1	3	0.071846	20.598	-7.64795	20.9158
 563	1	3	0.062371	19.5032	-7.41523	19.5238
 564	1	4	-0.291145	18.7929	-9.88108	19.275
 565	1	1	-0.015993	17.9143	-11.0194	19.4154
 566	1	5	-0.555985	19.6165	-9.96222	21.4226
 567	1	2	0.652223	14.4712	-12.0701	23.9323
 568	1	3	0.062504	14.5882	-14.2242	23.8997
 569	1	5	-0.583019	13.8957	-11.2428	24.6221
 570	1	1	-0.168764	15.0129	-13.3862	24.4638
 571	1	3	0.062846	16.1037	-13.401	24.3529
 572	1	4	-0.264747	14.6692	-11.9467	22.5914
 573	1	3	0.073216	14.7585	-13.4946	25.5244
 574	1	1	-0.015836	15.6033	-9.73919	22.0599
 575	1	1	0.044531	14.378	-10.6869	21.9396
 576	1	1	0.341309	14.0838	-10.968	20.4472
 577	1	1	0.132892	15.3762	-11.4907	19.7275
 578	1	6	-0.74435	13.5813	-9.75927	19.8505
 579	1	7	-0.00272	13.2967	-11.7287	20.4052
 580	1	1	-0.008403	16.5637	-10.5244	19.9895
 581	1	4	-0.239698	16.72	-10.3651	21.4139
 582	1	7	0.089672	18.3537	-11.791	20.0629
 583	1	7	0.088396	17.7521	-11.46	18.424
 584	1	7	0.05623	16.3258	-9.55442	19.5325
 585	1	7	0.125955	13.4879	-10.2218	22.3801
 586	1	8	0.456798	12.6911	-9.57363	20.2612
 587	1	9	0.198085	14.4963	-4.98649	25.7517
 588	1	7	0.095469	13.5236	-7.59698	26.1959
 589	1	1	-0.308877	14.4622	-5.9032	25.1486
 590	1	8	0.426958	14.6943	-10.1134	25.5544
 591	1	6	-0.128067	13.3115	-5.86443	24.2882
 592	1	1	0.005701	14.5222	-7.15966	26.0813
 593	1	7	0.239394	15.0901	-6.74891	22.4924
 594	1	5	-0.48496	12.9893	-5.8579	28.0357
 595	1	1	-0.003409	15.2492	-8.33582	24.0072
 596	1	2	0.352525	14.1724	-6.09331	28.2328
 597	1	6	-0.665659	15.109	-9.48639	26.2117
 598	1	1	-0.510331	15.7256	-6.98655	23.3568
 599	1	1	0.240953	15.4494	-8.27519	25.5406
 600	1	4	0.015262	15.6333	-5.91061	24.3215
 601	1	4	0.176506	15.0068	-6.76593	27.3782
 602	1	3	0.090205	14.5348	-6.226	30.3537
 603	1	1	-0.197476	14.8926	-5.64318	29.4971
 604	1	1	-0.039041	17.2029	-6.95387	22.9036
 605	1	7	0.144117	17.8691	-6.93564	23.7809
 606	1	3	0.104606	14.686	-4.58048	29.6729
 607	1	7	0.111943	16.4991	-8.01311	25.7363
 608	1	7	0.160853	17.4862	-7.82562	22.2931
 609	1	3	0.069306	15.9773	-5.7788	29.4028
 610	1	4	-0.432857	17.3082	-5.74169	22.1333
 611	1	3	0.042395	19.272	-3.20346	21.3246
 612	1	2	0.753764	18.5025	-5.08687	22.0498
 613	1	1	-0.122098	18.371	-3.81887	21.2189
 614	1	3	0.030493	17.5009	-3.23959	21.5508
 615	1	5	-0.562583	19.5353	-5.4417	22.5897
 616	1	3	0.048272	18.2345	-4.086	20.1653
 617	1	4	-0.191545	15.9569	-9.45171	23.4312
 618	1	9	0.130627	15.3921	-8.8004	21.5317
 619	1	3	0.015236	15.6452	-12.471	20.1444
 620	1	7	0.210365	14.1712	-8.46505	23.842
 621	1	1	-0.218842	11.387	-16.0177	8.90032
 622	1	2	0.68591	11.8662	-15.8716	10.334
 623	1	3	0.086668	10.4789	-16.6307	8.88518
 624	1	3	0.071846	12.1626	-16.5057	8.29914
 625	1	3	0.062371	11.1627	-15.0334	8.47371
 626	1	4	-0.291145	11.0608	-15.0245	11.0428
 627	1	1	-0.015993	11.2712	-14.8405	12.4593
 628	1	5	-0.555985	12.8728	-16.4063	10.7624
 629	1	2	0.652223	8.95305	-18.4702	17.1666
 630	1	3	0.062504	8.98817	-20.3101	18.2897
 631	1	5	-0.583019	7.75764	-18.5008	16.9186
 632	1	1	-0.168764	9.66232	-19.4789	18.0532
 633	1	3	0.062846	10.5498	-19.8671	17.5401
 634	1	4	-0.264747	9.82198	-17.5412	16.6759
 635	1	3	0.073216	9.97552	-18.9888	18.982
 636	1	1	-0.015836	10.5	-15.4673	15.5794
 637	1	1	0.044531	9.34089	-16.4546	15.8434
 638	1	1	0.341309	8.75403	-17.0178	14.5184
 639	1	1	0.132892	9.20637	-16.1799	13.2922
 640	1	6	-0.74435	7.32869	-17.0535	14.6585
 641	1	7	-0.00272	9.1263	-18.0404	14.3728
 642	1	1	-0.008403	10.7667	-16.0859	13.2324