pySIMM System Object

2854 atoms
2945 bonds
5428 angles
7541 dihedrals
184 impropers

9 atom types
10 bond types
23 angle types
20 dihedral types
1 improper types

-209.555187 209.555187 xlo xhi
-209.555187 209.555187 ylo yhi
-209.555187 209.555187 zlo zhi

Masses

   1	12.01	# c3
   2	12.01	# c
   3	1.008	# hc
   4	16.0	# os
   5	16.0	# o
   6	16.0	# oh
   7	1.008	# h1
   8	1.008	# ho
   9	1.008	# h2

Pair Coeffs

   1	0.1094	3.3996695084235347	# c3
   2	0.086	3.3996695084235347	# c
   3	0.0157	2.649532787749369	# hc
   4	0.17	3.0000123434657784	# os
   5	0.21	2.959921901149463	# o
   6	0.2104	3.0664733878390478	# oh
   7	0.0157	2.471353044121301	# h1
   8	0.0047	0.5379246460131368	# ho
   9	0.0157	2.2931733004932333	# h2

Bond Coeffs

   1	331.7	1.0961	# c3,h2
   2	637.7	1.2183	# c,o
   3	300.9	1.5375	# c3,c3
   4	330.6	1.0969	# c3,hc
   5	316.7	1.4233	# c3,oh
   6	330.6	1.0969	# c3,h1
   7	371.4	0.973	# ho,oh
   8	308.6	1.4316	# c3,os
   9	313.0	1.5241	# c,c3
  10	390.8	1.3584	# c,os

Angle Coeffs

   1	46.93	108.77	# c,c3,hc
   2	67.4	123.2	# c3,c,o
   3	68.0	107.97	# c3,c3,os
   4	46.39	109.56	# c3,c3,h1
   5	46.25	110.22	# c3,c3,h2
   6	62.86	111.51	# c3,c3,c3
   7	68.89	110.72	# c3,c,os
   8	72.58	109.38	# oh,c3,os
   9	75.32	123.25	# o,c,os
  10	67.47	110.19	# c3,c3,oh
  11	46.34	109.8	# c3,c3,hc
  12	47.38	107.26	# c3,oh,ho
  13	39.24	108.46	# h1,c3,h1
  14	50.85	109.58	# h2,c3,os
  15	72.74	108.29	# os,c3,os
  16	50.8	109.78	# h1,c3,os
  17	63.28	115.98	# c,os,c3
  18	62.7	112.48	# c3,os,c3
  19	50.93	110.26	# h1,c3,oh
  20	39.4	107.58	# hc,c3,hc
  21	51.13	109.43	# h2,c3,oh
  22	51.11	109.5	# hc,c3,oh
  23	62.7	112.48	# c3,oh,c3

Dihedral Coeffs

   1	3	0.18	3	0	0.25	2	180	0.2	1	180	# c3,c3,c3,c3
   2	1	0.3833333333333333	3	0	# X,c3,os,X
   3	2	0.144	3	0	1.175	2	0	# os,c3,c3,oh
   4	3	0.1	3	0	0.85	2	180	1.35	1	180	# c3,os,c3,os
   5	2	0.144	3	0	1.175	2	0	# os,c3,c3,os
   6	3	2.7	2	180	0.0	1	0	1.15	3	0	# c3,c,os,c3
   7	2	0.0	3	0	0.25	1	0	# hc,c3,c3,oh
   8	1	0.16	3	0	# hc,c3,c3,c3
   9	1	0.15555555555555556	3	0	# X,c3,c3,X
  10	2	0.16	3	0	0.25	1	0	# ho,oh,c3,c3
  11	2	0.383	3	0	0.8	1	180	# c3,c3,os,c
  12	1	0.0	2	180	# X,c,c3,X
  13	2	2.7	2	180	1.4	1	180	# o,c,os,c3
  14	2	0.0	3	0	0.25	1	0	# hc,c3,c3,os
  15	2	0.0	3	0	0.25	1	0	# h1,c3,c3,oh
  16	1	0.16666666666666666	3	0	# X,c3,oh,X
  17	3	0.8	1	0	0.0	2	0	0.08	3	180	# hc,c3,c,o
  18	2	0.0	3	0	0.25	1	0	# h1,c3,c3,os
  19	2	0.383	3	0	0.1	2	180	# c3,c3,os,c3
  20	2	0.144	3	0	1.175	2	0	# oh,c3,c3,oh

Improper Coeffs

   1	10.5	-1	2	# c,X,X,o

Atoms

   1	1	1	-0.218842	4.41263	-1.03647	16.5038
   2	1	2	0.68591	5.6429	-1.81732	16.9278
   3	1	3	0.086668	3.54022	-1.39482	17.0597
   4	1	3	0.071846	4.24103	-1.16496	15.4292
   5	1	3	0.062371	4.56326	0.0272142	16.7217
   6	1	4	-0.291145	5.84159	-1.73208	18.2753
   7	1	1	-0.015993	6.98456	-2.38621	18.8638
   8	1	5	-0.555985	6.33778	-2.45205	16.1517
   9	1	2	0.652223	9.70067	0.732912	24.1659
  10	1	3	0.062504	10.3302	2.77701	24.4075
  11	1	5	-0.583019	9.27824	-0.138341	24.9086
  12	1	1	-0.168764	10.7303	1.77085	24.577
  13	1	3	0.062846	10.9834	1.65232	25.6367
  14	1	4	-0.264747	9.33865	0.891128	22.8622
  15	1	3	0.073216	11.635	1.6459	23.971
  16	1	1	-0.015836	8.28148	0.552297	20.7505
  17	1	1	0.044531	8.42542	-0.00681469	22.182
  18	1	1	0.341309	8.9552	-1.46481	22.1885
  19	1	1	0.132892	8.57028	-2.28557	20.9103
  20	1	6	-0.74435	8.49789	-2.14721	23.3596
  21	1	7	-0.00272	10.044	-1.39034	22.2618
  22	1	1	-0.008403	7.29508	-1.71151	20.2221
  23	1	4	-0.239698	7.37548	-0.275251	19.9938
  24	1	7	0.089672	7.85428	-2.29538	18.2005
  25	1	7	0.088396	6.78029	-3.4553	19.0046
  26	1	7	0.05623	6.45058	-1.90375	20.8975
  27	1	7	0.125955	7.44	0.00863136	22.6701
  28	1	8	0.456798	8.75926	-1.55876	24.124
  29	1	9	0.198085	10.8604	3.54222	17.2306
  30	1	7	0.095469	12.0372	4.14121	19.1391
  31	1	1	-0.308877	11.7299	2.90071	17.4056
  32	1	8	0.426958	11.9004	3.22894	21.4401
  33	1	6	-0.128067	12.6795	3.3505	16.3851
  34	1	1	0.005701	12.1548	3.08603	18.8793
  35	1	7	0.239394	9.27217	2.09116	17.2734
  36	1	5	-0.48496	13.6627	3.47823	21.2589
  37	1	1	-0.003409	9.93608	1.72626	19.3058
  38	1	2	0.352525	14.162	2.93422	20.2843
  39	1	6	-0.665659	11.0173	2.98798	21.0547
  40	1	1	-0.510331	9.95327	1.39073	17.7748
  41	1	1	0.240953	11.2789	2.22631	19.8847
  42	1	4	0.015262	11.2778	1.55791	17.2145
  43	1	4	0.176506	13.5381	2.70462	19.0768
  44	1	3	0.090205	15.6119	1.34494	20.2868
  45	1	1	-0.197476	15.6004	2.4407	20.2809
  46	1	1	-0.039041	9.44786	-0.0292189	17.4402
  47	1	7	0.144117	10.1187	-0.788383	17.85
  48	1	3	0.104606	16.1265	2.81129	21.1665
  49	1	7	0.111943	11.8561	1.3235	20.137
  50	1	7	0.160853	8.45403	-0.189835	17.8934
  51	1	3	0.069306	16.1077	2.7991	19.3787
  52	1	4	-0.432857	9.33319	-0.159595	16.0132
  53	1	3	0.042395	9.22667	0.557155	13.4683
  54	1	2	0.753764	8.23676	0.338984	15.3665
  55	1	1	-0.122098	8.32414	0.0829419	13.8701
  56	1	3	0.030493	7.44218	0.490912	13.3625
  57	1	5	-0.562583	7.29722	0.905316	15.9024
  58	1	3	0.048272	8.37952	-0.99636	13.6883
  59	1	4	-0.191545	9.57779	0.54931	20.1004
  60	1	9	0.130627	7.88136	1.57088	20.8071
  61	1	3	0.015236	8.31815	-3.30607	21.23
  62	1	7	0.210365	9.20141	2.53045	19.4948
  63	1	1	-0.218842	15.6905	-11.1295	19.4352
  64	1	2	0.68591	16.0503	-10.4763	20.7574
  65	1	3	0.086668	15.089	-10.4377	18.8354
  66	1	3	0.071846	15.1215	-12.0479	19.6157
  67	1	3	0.062371	16.6081	-11.3717	18.8882
  68	1	4	-0.291145	16.5989	-9.24021	20.5613
  69	1	1	-0.015993	17.0152	-8.45354	21.693
  70	1	5	-0.555985	15.829	-10.9947	21.8404
  71	1	2	0.652223	15.9064	-3.43005	24.3122
  72	1	3	0.062504	17.3976	-2.97405	25.7922
  73	1	5	-0.583019	14.9302	-2.74646	24.0623
  74	1	1	-0.168764	17.2429	-2.83649	24.7171
  75	1	3	0.062846	18.0576	-3.32102	24.1725
  76	1	4	-0.264747	15.9236	-4.79667	24.3248
  77	1	3	0.073216	17.2576	-1.76365	24.492
  78	1	1	-0.015836	14.6367	-5.66699	22.3939
  79	1	1	0.044531	14.7284	-5.5269	23.9363
  80	1	1	0.341309	14.7693	-6.93389	24.5779
  81	1	1	0.132892	15.8252	-7.8531	23.8901
  82	1	6	-0.74435	13.4555	-7.49627	24.5109
  83	1	7	-0.00272	15.0417	-6.81806	25.6341
  84	1	1	-0.008403	15.7899	-7.76857	22.3424
  85	1	4	-0.239698	15.7905	-6.3851	21.9326
  86	1	7	0.089672	17.73	-7.68778	21.3665
  87	1	7	0.088396	17.5294	-9.09957	22.417
  88	1	7	0.05623	14.8694	-8.25305	21.989
  89	1	7	0.125955	13.8317	-5.02124	24.3163
  90	1	8	0.456798	13.5302	-8.34838	24.9929
  91	1	9	0.198085	10.7536	-3.18013	21.5706
  92	1	7	0.095469	11.7313	-0.953437	20.6906
  93	1	1	-0.308877	10.8895	-2.95157	20.506
  94	1	8	0.426958	14.073	-1.99922	22.8532
  95	1	6	-0.128067	9.66479	-2.42823	19.9757
  96	1	1	0.005701	12.039	-1.93513	20.31
  97	1	7	0.239394	12.0672	-5.66966	21.0035
  98	1	5	-0.48496	13.8157	-0.126867	19.0018
  99	1	1	-0.003409	13.2209	-3.88685	21.5014
 100	1	2	0.352525	13.1379	-0.91455	18.3623
 101	1	6	-0.665659	13.4529	-1.55545	22.2062
 102	1	1	-0.510331	12.4644	-4.8013	20.4596
 103	1	1	0.240953	13.3171	-2.39777	21.0595
 104	1	4	0.015262	11.3175	-4.15315	19.8531
 105	1	4	0.176506	12.2766	-1.83407	18.8879
 106	1	3	0.090205	13.9338	-0.302583	16.4498
 107	1	1	-0.197476	13.1831	-0.998915	16.8414
 108	1	1	-0.039041	13.3589	-5.34255	19.3104
 109	1	7	0.144117	14.0132	-6.13476	19.7083
 110	1	3	0.104606	12.2052	-0.735608	16.4215
 111	1	7	0.111943	14.1931	-2.28517	20.4072
 112	1	7	0.160853	12.7501	-5.79557	18.5126
 113	1	3	0.069306	13.4273	-2.01856	16.5247
 114	1	4	-0.432857	14.1636	-4.26582	18.7845
 115	1	3	0.042395	15.6045	-2.85642	16.8605
 116	1	2	0.753764	15.327	-4.57425	18.1331
 117	1	1	-0.122098	16.0876	-3.32018	17.7269
 118	1	3	0.030493	17.1215	-3.57417	17.4648
 119	1	5	-0.562583	15.7498	-5.70464	17.9608
 120	1	3	0.048272	16.0943	-2.60243	18.5555
 121	1	4	-0.191545	14.5594	-4.39266	21.7257
 122	1	9	0.130627	13.7482	-6.26203	22.1471
 123	1	3	0.015236	16.8131	-7.52087	24.2147
 124	1	7	0.210365	12.6668	-3.88721	22.4514
 125	1	1	-0.218842	15.4504	-5.69842	30.6131
 126	1	2	0.68591	16.563	-6.41581	31.3551
 127	1	3	0.086668	15.1955	-6.27047	29.7163
 128	1	3	0.071846	15.7796	-4.69433	30.3233
 129	1	3	0.062371	14.561	-5.61806	31.2488
 130	1	4	-0.291145	16.0727	-7.41646	32.1393
 131	1	1	-0.015993	16.9409	-8.29091	32.8994
 132	1	5	-0.555985	17.7332	-6.08113	31.2764
 133	1	2	0.652223	14.2982	-12.5606	32.8281
 134	1	3	0.062504	12.3421	-12.9129	33.664
 135	1	5	-0.583019	14.8717	-13.3844	33.525
 136	1	1	-0.168764	12.8045	-12.2922	32.8876
 137	1	3	0.062846	12.6259	-11.2348	33.1137
 138	1	4	-0.264747	14.9177	-11.7483	31.9243
 139	1	3	0.073216	12.3508	-12.527	31.9181
 140	1	1	-0.015836	16.7747	-11.0163	30.5003
 141	1	1	0.044531	16.3439	-11.8847	31.7066
 142	1	1	0.341309	17.1133	-11.5027	33.0042
 143	1	1	0.132892	18.2773	-10.5197	32.7097
 144	1	6	-0.74435	17.5581	-12.6981	33.6509
 145	1	7	-0.00272	16.4169	-10.9963	33.6823
 146	1	1	-0.008403	17.7376	-9.25302	31.9702
 147	1	4	-0.239698	16.8404	-9.62888	30.8914
 148	1	7	0.089672	16.3202	-8.87328	33.589
 149	1	7	0.088396	17.637	-7.70371	33.5075
 150	1	7	0.05623	18.5946	-8.71137	31.5574
 151	1	7	0.125955	16.5772	-12.928	31.4523
 152	1	8	0.456798	16.721	-13.2054	33.8286
 153	1	9	0.198085	16.9338	-9.02241	25.8893
 154	1	7	0.095469	17.4817	-11.2073	25.3804
 155	1	1	-0.308877	16.0541	-9.60383	25.5839
 156	1	8	0.426958	17.2645	-13.2898	26.6541
 157	1	6	-0.128067	15.6638	-9.22942	24.264
 158	1	1	0.005701	16.4266	-11.1099	25.6683
 159	1	7	0.239394	16.0688	-8.4171	27.9832
 160	1	5	-0.48496	16.6699	-13.8734	25.0668
 161	1	1	-0.003409	16.283	-10.5748	28.1886
 162	1	2	0.352525	15.8287	-13.1885	24.5056
 163	1	6	-0.665659	17.279	-12.6215	27.3877
 164	1	1	-0.510331	15.4319	-9.30092	27.8539
 165	1	1	0.240953	16.2417	-11.6797	27.1072
 166	1	4	0.015262	14.9804	-9.36393	26.4948
 167	1	4	0.176506	15.6019	-11.8574	24.7408
 168	1	3	0.090205	14.8826	-14.8596	23.5248
 169	1	1	-0.197476	14.8675	-13.7641	23.475
 170	1	1	-0.039041	14.1785	-9.1022	28.7289
 171	1	7	0.144117	13.4648	-9.92774	28.5849
 172	1	3	0.104606	15.1755	-13.4512	22.4711
 173	1	7	0.111943	15.255	-12.1598	27.1747
 174	1	7	0.160853	14.4446	-9.07303	29.7987
 175	1	3	0.069306	13.8472	-13.4086	23.6609
 176	1	4	-0.432857	13.6103	-7.84609	28.3136
 177	1	3	0.042395	12.8062	-5.32831	28.3985
 178	1	2	0.753764	12.4806	-7.39205	28.9314
 179	1	1	-0.122098	12.0111	-6.07913	28.3223
 180	1	3	0.030493	11.1186	-5.71489	28.8447
 181	1	5	-0.562583	11.9517	-7.93185	29.8866
 182	1	3	0.048272	11.7722	-6.23076	27.2631
 183	1	4	-0.191545	15.8416	-11.1749	29.4207
 184	1	9	0.130627	17.7638	-11.3546	30.1584
 185	1	3	0.015236	18.9762	-11.0335	32.0372
 186	1	7	0.210365	17.3373	-10.2893	28.2679
 187	1	1	-0.218842	19.7372	-13.4989	39.5201
 188	1	2	0.68591	21.2197	-13.331	39.7982
 189	1	3	0.086668	19.4063	-14.4837	39.8658
 190	1	3	0.071846	19.5559	-13.4222	38.4422
 191	1	3	0.062371	19.167	-12.7185	40.0367
 192	1	4	-0.291145	21.9561	-14.2967	39.1688
 193	1	1	-0.015993	23.4016	-14.2914	39.2313
 194	1	5	-0.555985	21.6742	-12.4675	40.5309
 195	1	2	0.652223	26.675	-13.3501	34.1209
 196	1	3	0.062504	25.8005	-13.597	32.1702
 197	1	5	-0.583019	27.7782	-13.0395	34.5409
 198	1	1	-0.168764	26.4624	-14.1482	32.8477
 199	1	3	0.062846	27.4223	-14.3258	32.3505
 200	1	4	-0.264747	25.4963	-13.0919	34.7565
 201	1	3	0.073216	25.9976	-15.1111	33.0895
 202	1	1	-0.015836	23.95	-12.0439	36.3052
 203	1	1	0.044531	25.4428	-12.3032	35.9777
 204	1	1	0.341309	26.1618	-13.0675	37.1327
 205	1	1	0.132892	25.5035	-12.9094	38.5415
 206	1	6	-0.74435	27.5597	-12.768	37.1649
 207	1	7	-0.00272	26.0673	-14.1338	36.8918
 208	1	1	-0.008403	23.9429	-13.0431	38.4962
 209	1	4	-0.239698	23.4721	-13.1131	37.1348
 210	1	7	0.089672	23.7966	-15.1967	38.7523
 211	1	7	0.088396	23.7342	-14.2823	40.2781
 212	1	7	0.05623	23.4986	-12.1664	38.9728
 213	1	7	0.125955	25.9365	-11.3377	35.828
 214	1	8	0.456798	27.8637	-12.8522	36.2169
 215	1	9	0.198085	20.4581	-8.90293	33.3412
 216	1	7	0.095469	20.3697	-8.9901	35.8863
 217	1	1	-0.308877	20.3475	-9.85882	33.8728
 218	1	8	0.426958	19.2609	-11.5504	35.5224
 219	1	6	-0.128067	18.9457	-10.1772	33.9378
 220	1	1	0.005701	20.953	-9.70895	35.2971
 221	1	7	0.239394	20.1199	-12.5819	33.7831
 222	1	5	-0.48496	22.8667	-8.86948	37.2744
 223	1	1	-0.003409	21.7316	-12.145	35.1847
 224	1	2	0.352525	23.1238	-8.83777	36.0797
 225	1	6	-0.665659	19.733	-11.5215	36.3862
 226	1	1	-0.510331	21.1452	-12.1831	33.7416
 227	1	1	0.240953	21.0427	-11.0645	36.0559
 228	1	4	0.015262	21.122	-10.8602	33.1691
 229	1	4	0.176506	22.2763	-9.18966	35.0705
 230	1	3	0.090205	24.548	-8.71691	34.4464
 231	1	1	-0.197476	24.4968	-8.49709	35.5186
 232	1	1	-0.039041	21.9575	-13.0935	32.8025
 233	1	7	0.144117	21.4809	-13.1617	31.8133
 234	1	3	0.104606	25.2585	-9.09871	36.0084
 235	1	7	0.111943	21.6015	-10.9394	36.991
 236	1	7	0.160853	22.9759	-12.694	32.671
 237	1	3	0.069306	24.7245	-7.43963	35.6708
 238	1	4	-0.432857	22.005	-14.3879	33.4264
 239	1	3	0.042395	23.4053	-17.3922	33.2453
 240	1	2	0.753764	22.7964	-15.3538	32.876
 241	1	1	-0.122098	22.7583	-16.633	33.6991
 242	1	3	0.030493	21.7313	-17.0141	33.747
 243	1	5	-0.562583	23.4867	-15.2019	31.8838
 244	1	3	0.048272	23.1043	-16.4236	34.7182
 245	1	4	-0.191545	23.1621	-11.9113	35.0983
 246	1	9	0.130627	23.868	-11.113	36.8673
 247	1	3	0.015236	25.881	-13.7571	39.1264
 248	1	7	0.210365	21.5574	-13.1242	35.6533
 249	1	1	-0.218842	27.9588	-0.871776	36.3182
 250	1	2	0.68591	26.6329	-1.4902	35.9152
 251	1	3	0.086668	27.7982	0.158162	36.6556
 252	1	3	0.071846	28.6406	-0.8709	35.4603
 253	1	3	0.062371	28.4079	-1.45564	37.1296
 254	1	4	-0.291145	26.8001	-2.76505	35.4555
 255	1	1	-0.015993	25.6579	-3.53847	35.0293
 256	1	5	-0.555985	25.5686	-0.90059	35.9901
 257	1	2	0.652223	21.7476	-5.78558	40.0079
 258	1	3	0.062504	22.1592	-6.91782	41.7913
 259	1	5	-0.583019	20.9972	-4.85722	39.761
 260	1	1	-0.168764	21.4212	-6.90523	40.9812
 261	1	3	0.062846	20.421	-6.75459	41.4037
 262	1	4	-0.264747	22.9527	-5.97916	39.4077
 263	1	3	0.073216	21.4504	-7.86731	40.4571
 264	1	1	-0.015836	24.9913	-5.45663	38.2249
 265	1	1	0.044531	23.4826	-5.08913	38.3929
 266	1	1	0.341309	22.6951	-5.21331	37.0578
 267	1	1	0.132892	23.4088	-4.50754	35.8591
 268	1	6	-0.74435	21.3714	-4.67228	37.1693
 269	1	7	-0.00272	22.6194	-6.28405	36.8468
 270	1	1	-0.008403	24.8072	-3.95816	36.2562
 271	1	4	-0.239698	25.5252	-4.98746	36.9647
 272	1	7	0.089672	25.9983	-4.43665	34.4974
 273	1	7	0.088396	25.0462	-2.94887	34.3327
 274	1	7	0.05623	24.6637	-3.08978	36.9115
 275	1	7	0.125955	23.4182	-4.04935	38.7393
 276	1	8	0.456798	21.1239	-4.69783	38.1399
 277	1	9	0.198085	24.4129	-10.472	38.5917
 278	1	7	0.095469	26.1957	-9.80368	40.9778
 279	1	1	-0.308877	25.4038	-10.4265	39.0489
 280	1	8	0.426958	24.9712	-8.1034	42.1898
 281	1	6	-0.128067	25.9516	-11.7375	39.2707
 282	1	1	0.005701	25.2575	-9.70501	40.4164
 283	1	7	0.239394	27.6574	-8.84198	39.3681
 284	1	5	-0.48496	24.764	-9.50905	43.1678
 285	1	1	-0.003409	25.9123	-7.525	39.2321
 286	1	2	0.352525	24.0399	-10.2013	42.4711
 287	1	6	-0.665659	24.9284	-7.46221	41.4302
 288	1	1	-0.510331	26.9323	-8.52317	38.6055
 289	1	1	0.240953	24.9188	-8.20669	40.2065
 290	1	4	0.015262	26.2413	-9.69358	38.1295
 291	1	4	0.176506	24.1756	-10.3639	41.1176
 292	1	3	0.090205	22.7879	-10.8145	44.1183
 293	1	1	-0.197476	22.8576	-10.9745	43.0359
 294	1	1	-0.039041	27.7251	-7.88405	37.4431
 295	1	7	0.144117	27.0782	-7.68489	36.5756
 296	1	3	0.104606	22.9857	-12.0462	42.8417
 297	1	7	0.111943	23.9239	-8.17522	39.7446
 298	1	7	0.160853	28.1402	-6.91788	37.7633
 299	1	3	0.069306	21.9272	-10.6397	42.5629
 300	1	4	-0.432857	28.803	-8.77981	37.1183
 301	1	3	0.042395	29.8011	-11.2693	35.1695
 302	1	2	0.753764	28.6391	-9.73766	36.1544
 303	1	1	-0.122098	29.8882	-10.5975	36.0307
 304	1	3	0.030493	30.0179	-11.193	36.942
 305	1	5	-0.562583	27.7107	-9.77776	35.3624
 306	1	3	0.048272	30.7672	-9.95634	35.9007
 307	1	4	-0.191545	25.1587	-6.89164	38.1707
 308	1	9	0.130627	25.5678	-5.02748	39.0529
 309	1	3	0.015236	22.8145	-3.63475	35.557
 310	1	7	0.210365	26.474	-6.77027	39.7992
 311	1	1	-0.218842	22.5291	-2.92921	26.0673
 312	1	2	0.68591	21.0589	-3.20173	26.3278
 313	1	3	0.086668	22.6572	-1.89516	25.729
 314	1	3	0.071846	22.9048	-3.60954	25.2966
 315	1	3	0.062371	23.1042	-3.08367	26.9873
 316	1	4	-0.291145	20.8534	-4.43558	26.8722
 317	1	1	-0.015993	19.5131	-4.79223	27.2745
 318	1	5	-0.555985	20.1656	-2.4284	26.0282
 319	1	2	0.652223	21.3707	-10.9667	29.0792
 320	1	3	0.062504	22.596	-12.6979	29.4673
 321	1	5	-0.583019	20.4255	-11.5816	28.618
 322	1	1	-0.168764	22.6777	-11.6054	29.5133
 323	1	3	0.062846	23.4886	-11.2739	28.8543
 324	1	4	-0.264747	21.3823	-9.61855	29.2615
 325	1	3	0.073216	22.9124	-11.3026	30.5399
 326	1	1	-0.015836	20.3388	-7.45338	29.6761
 327	1	1	0.044531	20.2128	-8.81877	28.9406
 328	1	1	0.341309	20.0714	-8.72806	27.3838
 329	1	1	0.132892	19.4886	-7.39408	26.8059
 330	1	6	-0.74435	19.2738	-9.82538	26.926
 331	1	7	-0.00272	21.082	-8.84242	26.9708
 332	1	1	-0.008403	19.4736	-6.23161	27.8383
 333	1	4	-0.239698	20.5721	-6.39442	28.7422
 334	1	7	0.089672	18.8205	-4.70933	26.4284
 335	1	7	0.088396	19.1758	-4.09771	28.0557
 336	1	7	0.05623	18.5362	-6.31146	28.4053
 337	1	7	0.125955	19.3158	-9.31031	29.3381
 338	1	8	0.456798	19.6518	-10.6529	27.3458
 339	1	9	0.198085	21.81	-6.5051	34.9802
 340	1	7	0.095469	21.9837	-4.14383	33.1064
 341	1	1	-0.308877	22.3568	-6.0076	34.1721
 342	1	8	0.426958	19.1573	-5.10604	31.2328
 343	1	6	-0.128067	23.5241	-5.36364	34.707
 344	1	1	0.005701	21.404	-5.02009	33.4212
 345	1	7	0.239394	23.7667	-5.63889	32.1011
 346	1	5	-0.48496	19.434	-6.65428	34.7576
 347	1	1	-0.003409	21.8759	-6.24688	31.2122
 348	1	2	0.352525	19.4325	-5.43701	34.8612
 349	1	6	-0.665659	20.0225	-4.66352	31.4461
 350	1	1	-0.510331	23.1876	-6.56748	31.9849
 351	1	1	0.240953	20.7848	-5.64815	32.144
 352	1	4	0.015262	22.7985	-7.04431	33.2767
 353	1	4	0.176506	20.3379	-4.57386	34.2946
 354	1	3	0.090205	18.8281	-4.07322	36.4211
 355	1	1	-0.197476	18.3622	-4.68952	35.6434
 356	1	1	-0.039041	24.0968	-7.62011	31.308
 357	1	7	0.144117	23.5658	-8.57796	31.2152
 358	1	3	0.104606	17.6815	-5.40626	36.117
 359	1	7	0.111943	20.1389	-6.48106	32.4513
 360	1	7	0.160853	24.3816	-7.29137	30.2966
 361	1	3	0.069306	17.7913	-4.03954	34.9698
 362	1	4	-0.432857	25.2688	-7.79646	32.1312
 363	1	3	0.042395	26.9115	-7.22365	34.2568
 364	1	2	0.753764	26.2054	-6.80851	32.2691
 365	1	1	-0.122098	27.3045	-7.22129	33.2354
 366	1	3	0.030493	28.1471	-6.5222	33.175
 367	1	5	-0.562583	26.2001	-5.74316	31.6739
 368	1	3	0.048272	27.6557	-8.23061	32.9909
 369	1	4	-0.191545	21.3916	-7.49344	30.6614
 370	1	9	0.130627	19.3988	-7.24872	30.1941
 371	1	3	0.015236	18.4411	-7.57176	26.5314
 372	1	7	0.210365	22.0943	-5.52785	30.4088
 373	1	1	-0.218842	23.4644	-10.455	17.371
 374	1	2	0.68591	23.9845	-9.5859	18.5047
 375	1	3	0.086668	22.6201	-11.0551	17.7249
 376	1	3	0.071846	24.2601	-11.1169	17.0153
 377	1	3	0.062371	23.1191	-9.82514	16.5434
 378	1	4	-0.291145	24.5992	-8.4637	18.0162
 379	1	1	-0.015993	25.1838	-7.50384	18.9238
 380	1	5	-0.555985	24.0312	-9.96034	19.6659
 381	1	2	0.652223	20.1055	-8.05043	18.3648
 382	1	3	0.062504	18.6721	-9.65427	18.4384
 383	1	5	-0.583019	21.0943	-8.75248	18.4587
 384	1	1	-0.168764	18.7193	-8.61073	18.1059
 385	1	3	0.062846	17.9699	-8.023	18.6478
 386	1	4	-0.264747	20.0726	-6.6887	18.4666
 387	1	3	0.073216	18.4982	-8.5559	17.0345
 388	1	1	-0.015836	21.9056	-6.14429	20.091
 389	1	1	0.044531	21.2505	-5.87119	18.7039
 390	1	1	0.341309	22.2693	-5.98032	17.5287
 391	1	1	0.132892	23.6841	-5.54594	17.9947
 392	1	6	-0.74435	21.834	-5.12675	16.4645
 393	1	7	-0.00272	22.3299	-7.01338	17.1685
 394	1	1	-0.008403	24.1767	-6.36572	19.2324
 395	1	4	-0.239698	23.0644	-6.97618	19.9169
 396	1	7	0.089672	26.082	-7.0761	18.4681
 397	1	7	0.088396	25.499	-7.98595	19.8586
 398	1	7	0.05623	24.6687	-5.6664	19.9201
 399	1	7	0.125955	20.9195	-4.82624	18.722
 400	1	8	0.456798	22.578	-5.11451	15.8289
 401	1	9	0.198085	18.4672	-6.44756	24.7111
 402	1	7	0.095469	20.1196	-4.6098	24.2906
 403	1	1	-0.308877	19.4931	-6.70517	24.4327
 404	1	8	0.426958	21.8928	-6.58006	24.8574
 405	1	6	-0.128067	20.2317	-7.03938	25.6233
 406	1	1	0.005701	20.0931	-5.50241	23.6594
 407	1	7	0.239394	21.3105	-8.72701	23.7541
 408	1	5	-0.48496	20.2226	-3.41195	21.7022
 409	1	1	-0.003409	21.5263	-7.10487	22.3051
 410	1	2	0.352525	19.3365	-4.24938	21.6688
 411	1	6	-0.665659	22.4004	-5.98841	24.2572
 412	1	1	-0.510331	20.7117	-8.27099	22.9525
 413	1	1	0.240953	21.525	-5.81139	23.1494
 414	1	4	0.015262	19.4592	-7.82126	23.5172
 415	1	4	0.176506	19.18	-5.27662	22.5565
 416	1	3	0.090205	18.4672	-3.5081	19.8389
 417	1	1	-0.197476	18.2575	-4.27383	20.5953
 418	1	1	-0.039041	20.4072	-9.37249	21.9113
 419	1	7	0.144117	19.6434	-9.0277	21.2004
 420	1	3	0.104606	17.2757	-4.08037	21.0425
 421	1	7	0.111943	21.9002	-4.97248	22.5517
 422	1	7	0.160853	21.3044	-9.61569	21.3169
 423	1	3	0.069306	18.23	-5.25706	20.1082
 424	1	4	-0.432857	19.9602	-10.5295	22.6405
 425	1	3	0.042395	18.7601	-12.3636	23.8854
 426	1	2	0.753764	19.2971	-11.522	21.9736
 427	1	1	-0.122098	19.0129	-12.71	22.8781
 428	1	3	0.030493	19.903	-13.3463	22.9417
 429	1	5	-0.562583	18.9481	-11.4613	20.806
 430	1	3	0.048272	18.178	-13.2954	22.4761
 431	1	4	-0.191545	20.9881	-6.79519	20.9974
 432	1	9	0.130627	22.2278	-5.18676	20.5181
 433	1	3	0.015236	23.5846	-4.50171	18.3158
 434	1	7	0.210365	22.5699	-7.43823	22.1989
 435	1	1	-0.218842	29.9276	-2.28694	7.3061
 436	1	2	0.68591	29.1871	-1.38457	8.27779
 437	1	3	0.086668	30.8757	-2.60353	7.75278
 438	1	3	0.071846	30.1325	-1.74438	6.37644
 439	1	3	0.062371	29.327	-3.17555	7.07899
 440	1	4	-0.291145	28.5112	-2.11037	9.2168
 441	1	1	-0.015993	27.7726	-1.45381	10.2739
 442	1	5	-0.555985	29.1238	-0.174257	8.14612
 443	1	2	0.652223	29.0132	2.37983	14.4936
 444	1	3	0.062504	28.3111	4.39783	14.7682
 445	1	5	-0.583019	30.1586	2.61754	14.8383
 446	1	1	-0.168764	27.9215	3.43242	14.4257
 447	1	3	0.062846	27.5697	3.52751	13.3926
 448	1	4	-0.264747	28.5382	1.15159	14.1411
 449	1	3	0.073216	27.0816	3.13241	15.0623
 450	1	1	-0.015836	28.6084	-1.26865	13.9235
 451	1	1	0.044531	29.4429	0.0237106	14.0419
 452	1	1	0.341309	30.3607	0.191132	12.8038
 453	1	1	0.132892	29.5829	0.0194031	11.4668
 454	1	6	-0.74435	31.4673	-0.714468	12.8431
 455	1	7	-0.00272	30.7985	1.18923	12.8471
 456	1	1	-0.008403	28.6949	-1.25721	11.5019
 457	1	4	-0.239698	27.8666	-1.25461	12.684
 458	1	7	0.089672	26.9436	-2.10749	10.5749
 459	1	7	0.088396	27.335	-0.503666	9.93989
 460	1	7	0.05623	29.3629	-2.12722	11.5625
 461	1	7	0.125955	30.0698	-0.0305744	14.9403
 462	1	8	0.456798	32.0678	-0.339924	12.1473
 463	1	9	0.198085	25.9563	-4.34725	17.8324
 464	1	7	0.095469	26.3366	-5.55456	15.0547
 465	1	1	-0.308877	25.5781	-4.5604	16.8248
 466	1	8	0.426958	27.4792	-4.43691	13.5498
 467	1	6	-0.128067	24.6115	-5.61681	16.8949
 468	1	1	0.005701	26.7491	-4.98596	15.8995
 469	1	7	0.239394	25.1089	-1.40195	15.7872
 470	1	5	-0.48496	28.4777	-7.08333	14.9741
 471	1	1	-0.003409	26.8201	-2.51061	15.091
 472	1	2	0.352525	28.4041	-6.78921	16.1563
 473	1	6	-0.665659	28.2408	-4.23149	14.1585
 474	1	1	-0.510331	25.7485	-2.20886	16.1724
 475	1	1	0.240953	27.6217	-3.81143	15.3709
 476	1	4	0.015262	24.9306	-3.38219	16.3192
 477	1	4	0.176506	27.5934	-5.83415	16.7041
 478	1	3	0.090205	28.5615	-7.78192	18.0739
 479	1	1	-0.197476	29.202	-7.52429	17.2216
 480	1	1	-0.039041	26.3138	-1.72406	17.5351
 481	1	7	0.144117	26.9529	-2.47603	18.0187
 482	1	3	0.104606	30.027	-6.89509	17.5733
 483	1	7	0.111943	28.3803	-3.57091	16.1284
 484	1	7	0.160853	26.9351	-0.830677	17.3735
 485	1	3	0.069306	29.6072	-8.45125	16.8022
 486	1	4	-0.432857	25.1794	-1.3563	18.3457
 487	1	3	0.042395	22.6729	-1.6375	19.23
 488	1	2	0.753764	24.7571	-2.15968	19.3688
 489	1	1	-0.122098	23.4664	-1.64106	19.9864
 490	1	3	0.030493	23.6107	-0.617186	20.3508
 491	1	5	-0.562583	25.3488	-3.14627	19.778
 492	1	3	0.048272	23.1628	-2.28291	20.8219
 493	1	4	-0.191545	27.7186	-1.37575	15.055
 494	1	9	0.130627	29.2973	-2.12276	13.918
 495	1	3	0.015236	30.3145	-0.124637	10.6617
 496	1	7	0.210365	26.3131	-2.61533	14.12
 497	1	1	-0.218842	36.0632	4.81466	10.4617
 498	1	2	0.68591	35.3295	5.93568	9.748
 499	1	3	0.086668	35.8706	3.86573	9.94914
 500	1	3	0.071846	35.7095	4.74578	11.4963
 501	1	3	0.062371	37.1399	5.01769	10.4645
 502	1	4	-0.291145	35.5312	7.13218	10.3816
 503	1	1	-0.015993	34.8852	8.33876	9.91859
 504	1	5	-0.555985	34.7393	5.77424	8.69479
 505	1	2	0.652223	28.2307	8.98951	10.8294
 506	1	3	0.062504	26.1575	9.30477	10.326
 507	1	5	-0.583019	28.3005	9.91363	11.6215
 508	1	1	-0.168764	26.9489	8.57282	10.1295
 509	1	3	0.062846	27.1212	8.50365	9.04948
 510	1	4	-0.264747	29.2828	8.20737	10.4639
 511	1	3	0.073216	26.6349	7.58978	10.4977
 512	1	1	-0.015836	31.4684	7.12387	10.6169
 513	1	1	0.044531	30.6226	8.38322	11.0045
 514	1	1	0.341309	31.2207	9.73774	10.5
 515	1	1	0.132892	32.7838	9.8124	10.4238
 516	1	6	-0.74435	30.7551	10.8192	11.3209
 517	1	7	-0.00272	30.8354	9.88295	9.4824
 518	1	1	-0.008403	33.4628	8.4215	10.5265
 519	1	4	-0.239698	32.615	7.49516	9.84648
 520	1	7	0.089672	34.8436	8.37074	8.82092
 521	1	7	0.088396	35.4676	9.20091	10.2674
 522	1	7	0.05623	33.5374	8.14887	11.588
 523	1	7	0.125955	30.5761	8.4241	12.1002
 524	1	8	0.456798	29.7817	10.6541	11.4836
 525	1	9	0.198085	30.2342	1.88376	9.8319
 526	1	7	0.095469	27.5982	3.32465	10.4449
 527	1	1	-0.308877	29.496	2.27971	10.5411
 528	1	8	0.426958	27.2603	5.00889	8.64464
 529	1	6	-0.128067	28.8002	1.18868	11.1599
 530	1	1	0.005701	28.474	3.17512	9.79944
 531	1	7	0.239394	31.3537	4.63684	12.0207
 532	1	5	-0.48496	26.3156	3.72583	8.00312
 533	1	1	-0.003409	29.9702	5.18155	10.4436
 534	1	2	0.352525	27.0463	2.76439	7.83158
 535	1	6	-0.665659	27.957	5.47279	9.18162
 536	1	1	-0.510331	30.9442	4.16872	11.1155
 537	1	1	0.240953	29.0417	4.55882	9.37524
 538	1	4	0.015262	30.1737	3.04106	11.5509
 539	1	4	0.176506	28.1081	2.42204	8.62163
 540	1	3	0.090205	26.0511	2.12655	6.02508
 541	1	1	-0.197476	26.877	1.79838	6.66732
 542	1	1	-0.039041	32.1627	3.73865	10.2464
 543	1	7	0.144117	31.9229	2.96045	9.50939
 544	1	3	0.104606	26.6603	0.79324	7.04773
 545	1	7	0.111943	29.6279	4.43819	8.45281
 546	1	7	0.160853	32.5462	4.60095	9.67687
 547	1	3	0.069306	27.7996	1.75739	6.07514
 548	1	4	-0.432857	33.1896	3.31543	11.1627
 549	1	3	0.042395	35.3667	2.22351	12.1866
 550	1	2	0.753764	33.318	2.01117	11.55
 551	1	1	-0.122098	34.4156	1.85821	12.5909
 552	1	3	0.030493	34.527	0.804935	12.8754
 553	1	5	-0.562583	32.7097	1.06077	11.0771
 554	1	3	0.048272	34.1617	2.4456	13.4806
 555	1	4	-0.191545	30.7373	6.206	9.78125
 556	1	9	0.130627	31.8174	6.61227	11.5208
 557	1	3	0.015236	33.158	10.3975	11.2742
 558	1	7	0.210365	29.3159	5.63267	11.202
 559	1	1	-0.218842	40.6075	12.3243	6.63299
 560	1	2	0.68591	40.246	13.4592	5.69138
 561	1	3	0.086668	39.7114	11.7337	6.85398
 562	1	3	0.071846	41.0012	12.7341	7.56958
 563	1	3	0.062371	41.3639	11.6796	6.17097
 564	1	4	-0.291145	39.3041	14.2776	6.23872
 565	1	1	-0.015993	38.8236	15.4051	5.47923
 566	1	5	-0.555985	40.7413	13.6057	4.58759
 567	1	2	0.652223	33.3117	17.3221	4.84159
 568	1	3	0.062504	32.0049	17.5244	3.13941
 569	1	5	-0.583019	33.0488	18.4173	5.30667
 570	1	1	-0.168764	32.705	16.7911	3.55577
 571	1	3	0.062846	33.4977	16.5904	2.82658
 572	1	4	-0.264747	34.1848	16.435	5.39822
 573	1	3	0.073216	32.1701	15.8569	3.76074
 574	1	1	-0.015836	35.5085	15.481	7.2187
 575	1	1	0.044531	34.8411	16.762	6.65031
 576	1	1	0.341309	35.8984	17.8777	6.4537
 577	1	1	0.132892	37.0732	17.3073	5.59625
 578	1	6	-0.74435	36.2912	18.292	7.77548
 579	1	7	-0.00272	35.4533	18.7304	5.9293
 580	1	1	-0.008403	37.6874	16.0629	6.28712
 581	1	4	-0.239698	36.6258	15.092	6.38908
 582	1	7	0.089672	38.4464	15.0795	4.50087
 583	1	7	0.088396	39.6391	16.1229	5.31643
 584	1	7	0.05623	38.0585	16.3298	7.28547
 585	1	7	0.125955	34.0964	17.1217	7.37004
 586	1	8	0.456798	36.8029	19.1253	7.71073
 587	1	9	0.198085	31.9202	12.071	9.61564
 588	1	7	0.095469	34.2084	12.4199	10.756
 589	1	1	-0.308877	32.874	11.8794	9.10414
 590	1	8	0.426958	35.1639	10.9227	8.73173
 591	1	6	-0.128067	33.1795	10.4776	9.20802
 592	1	1	0.005701	33.9734	12.7786	9.74552
 593	1	7	0.239394	34.1999	11.1072	6.8466
 594	1	5	-0.48496	35.1309	14.9875	11.0918
 595	1	1	-0.003409	34.9703	13.0759	7.4218
 596	1	2	0.352525	34.0628	15.1021	10.5162
 597	1	6	-0.665659	35.8931	11.5195	8.99738
 598	1	1	-0.510331	33.8475	12.1468	6.87421
 599	1	1	0.240953	35.281	12.8026	8.90811
 600	1	4	0.015262	32.6888	12.2441	7.72102
 601	1	4	0.176506	33.4087	14.1036	9.84917
 602	1	3	0.090205	32.9934	16.6282	9.42
 603	1	1	-0.197476	33.3042	16.4206	10.4499
 604	1	1	-0.039041	33.439	12.5403	5.43967
 605	1	7	0.144117	32.6871	11.8501	5.03042
 606	1	3	0.104606	33.9509	17.2349	10.7976
 607	1	7	0.111943	35.9797	13.561	9.28596
 608	1	7	0.160853	33.0118	13.5552	5.43465
 609	1	3	0.069306	32.4124	16.371	11.0864
 610	1	4	-0.432857	34.6547	12.4946	4.66978
 611	1	3	0.042395	36.8743	13.4149	3.60849
 612	1	2	0.753764	34.7382	13.1787	3.49283
 613	1	1	-0.122098	36.1291	13.0567	2.889
 614	1	3	0.030493	36.199	13.6505	1.9701
 615	1	5	-0.562583	33.837	13.8348	2.99847
 616	1	3	0.048272	36.3398	12.0062	2.65912
 617	1	4	-0.191545	34.5174	14.439	7.25567
 618	1	9	0.130627	35.8768	15.6821	8.23472
 619	1	3	0.015236	36.6274	16.9452	4.66041
 620	1	7	0.210365	35.8873	12.9015	6.84069
 621	1	1	-0.218842	42.5011	28.4656	9.0284
 622	1	2	0.68591	42.8371	27.0087	9.28868
 623	1	3	0.086668	42.934	28.7741	8.07019
 624	1	3	0.071846	42.91	29.092	9.82984
 625	1	3	0.062371	41.4138	28.5932	8.98519
 626	1	4	-0.291145	42.3799	26.2059	8.28509
 627	1	1	-0.015993	42.6206	24.786	8.36006
 628	1	5	-0.555985	43.4792	26.6234	10.2501
 629	1	2	0.652223	41.208	23.0228	1.98247
 630	1	3	0.062504	41.2745	21.8785	0.158178
 631	1	5	-0.583019	41.6038	24.0566	1.47825
 632	1	1	-0.168764	40.9638	21.7431	1.20084
 633	1	3	0.062846	41.5409	20.9235	1.64382
 634	1	4	-0.264747	40.916	22.87	3.30569
 635	1	3	0.073216	39.9008	21.4836	1.22888
 636	1	1	-0.015836	40.4663	23.4327	5.59848
 637	1	1	0.044531	41.1642	23.9143	4.2915
 638	1	1	0.341309	42.696	24.1684	4.44432
 639	1	1	0.132892	43.043	24.855	5.7974
 640	1	6	-0.74435	43.1526	25.0118	3.3814
 641	1	7	-0.00272	43.1895	23.1912	4.39324
 642	1	1	-0.008403	42.3529	24.1341	6.98295