

################################################################################
##################################    Init    ##################################
################################################################################
units           real
atom_style      full
pair_style      lj/cut/coul/long 12.0  12.0
kspace_style    pppm 1e-4
bond_style      harmonic
angle_style     harmonic
dihedral_style  fourier
improper_style  cvff
special_bonds   amber
pair_modify     mix arithmetic
read_data       temp.lmps
  orthogonal box = (-100.744 -100.744 -100.744) to (100.744 100.744 100.744)
  1 by 1 by 1 MPI processor grid
  reading atoms ...
  124 atoms
  reading velocities ...
  124 velocities
  scanning bonds ...
  4 = max bonds/atom
  scanning angles ...
  6 = max angles/atom
  scanning dihedrals ...
  21 = max dihedrals/atom
  scanning impropers ...
  1 = max impropers/atom
  reading bonds ...
  127 bonds
  reading angles ...
  231 angles
  reading dihedrals ...
  316 dihedrals
  reading impropers ...
  8 impropers
  4 = max # of 1-2 neighbors
  7 = max # of 1-3 neighbors
  18 = max # of 1-4 neighbors
  21 = max # of special neighbors
  special bonds CPU = 0.000330925 secs
  read_data CPU = 0.00722694 secs
################################################################################

timestep        1
fix             pysimm_md all nve/limit 0.1
run             2000
PPPM initialization ...
  using 12-bit tables for long-range coulomb (../kspace.cpp:332)
  G vector (1/distance) = 0.0858795
  grid = 15 15 15
  stencil order = 5
  estimated absolute RMS force accuracy = 0.0333463
  estimated relative force accuracy = 0.000100421
  using double precision KISS FFT
  3d grid and FFT values/proc = 8000 3375
Neighbor list info ...
  update every 1 steps, delay 10 steps, check yes
  max neighbors/atom: 2000, page size: 100000
  master list distance cutoff = 14
  ghost atom cutoff = 14
  binsize = 7, bins = 29 29 29
  1 neighbor lists, perpetual/occasional/extra = 1 0 0
  (1) pair lj/cut/coul/long, perpetual
      attributes: half, newton on
      pair build: half/bin/newton
      stencil: half/bin/3d/newton
      bin: standard
Per MPI rank memory allocation (min/avg/max) = 17.27 | 17.27 | 17.27 Mbytes
Step Temp E_pair E_mol TotEng Press 
       0    2.1372681    3293.3172    218.54325     3512.644    114.89724 
    2000    853.84393   -95.320502    386.14994    603.88247   0.53977852 
Loop time of 1.88205 on 1 procs for 2000 steps with 124 atoms

Performance: 91.815 ns/day, 0.261 hours/ns, 1062.669 timesteps/s
100.0% CPU use with 1 MPI tasks x no OpenMP threads

MPI task timing breakdown:
Section |  min time  |  avg time  |  max time  |%varavg| %total
---------------------------------------------------------------
Pair    | 0.28616    | 0.28616    | 0.28616    |   0.0 | 15.20
Bond    | 0.0857     | 0.0857     | 0.0857     |   0.0 |  4.55
Kspace  | 1.4813     | 1.4813     | 1.4813     |   0.0 | 78.71
Neigh   | 0.022129   | 0.022129   | 0.022129   |   0.0 |  1.18
Comm    | 0.00092483 | 0.00092483 | 0.00092483 |   0.0 |  0.05
Output  | 1.2159e-05 | 1.2159e-05 | 1.2159e-05 |   0.0 |  0.00
Modify  | 0.0038271  | 0.0038271  | 0.0038271  |   0.0 |  0.20
Other   |            | 0.002022   |            |       |  0.11

Nlocal:    124 ave 124 max 124 min
Histogram: 1 0 0 0 0 0 0 0 0 0
Nghost:    1 ave 1 max 1 min
Histogram: 1 0 0 0 0 0 0 0 0 0
Neighs:    6540 ave 6540 max 6540 min
Histogram: 1 0 0 0 0 0 0 0 0 0

Total # of neighbors = 6540
Ave neighs/atom = 52.7419
Ave special neighs/atom = 10.6935
Neighbor list builds = 111
Dangerous builds = 0
unfix pysimm_md
min_style cg
minimize 0.001 0.001 10000 100000
WARNING: Using 'neigh_modify every 1 delay 0 check yes' setting during minimization (../min.cpp:190)
PPPM initialization ...
  using 12-bit tables for long-range coulomb (../kspace.cpp:332)
  G vector (1/distance) = 0.0858795
  grid = 15 15 15
  stencil order = 5
  estimated absolute RMS force accuracy = 0.0333463
  estimated relative force accuracy = 0.000100421
  using double precision KISS FFT
  3d grid and FFT values/proc = 8000 3375
Per MPI rank memory allocation (min/avg/max) = 18.39 | 18.39 | 18.39 Mbytes
Step Temp E_pair E_mol TotEng Press 
    2000    853.84393   -95.320502    386.14994    603.88247   0.53977852 
    2031    853.84393   -109.88273    137.45525    340.62555    1.6081031 
Loop time of 0.109894 on 1 procs for 31 steps with 124 atoms

100.1% CPU use with 1 MPI tasks x no OpenMP threads

Minimization stats:
  Stopping criterion = linesearch alpha is zero
  Energy initial, next-to-last, final = 
         290.829439405      27.5725231054      27.5725231054
  Force two-norm initial, final = 568.988 41.8978
  Force max component initial, final = 133.983 11.0584
  Final line search alpha, max atom move = 6.65245e-12 7.35656e-11
  Iterations, force evaluations = 31 118

MPI task timing breakdown:
Section |  min time  |  avg time  |  max time  |%varavg| %total
---------------------------------------------------------------
Pair    | 0.02465    | 0.02465    | 0.02465    |   0.0 | 22.43
Bond    | 0.0047939  | 0.0047939  | 0.0047939  |   0.0 |  4.36
Kspace  | 0.079864   | 0.079864   | 0.079864   |   0.0 | 72.67
Neigh   | 0.00017405 | 0.00017405 | 0.00017405 |   0.0 |  0.16
Comm    | 4.0293e-05 | 4.0293e-05 | 4.0293e-05 |   0.0 |  0.04
Output  | 0          | 0          | 0          |   0.0 |  0.00
Modify  | 0          | 0          | 0          |   0.0 |  0.00
Other   |            | 0.0003724  |            |       |  0.34

Nlocal:    124 ave 124 max 124 min
Histogram: 1 0 0 0 0 0 0 0 0 0
Nghost:    1 ave 1 max 1 min
Histogram: 1 0 0 0 0 0 0 0 0 0
Neighs:    6522 ave 6522 max 6522 min
Histogram: 1 0 0 0 0 0 0 0 0 0

Total # of neighbors = 6522
Ave neighs/atom = 52.5968
Ave special neighs/atom = 10.6935
Neighbor list builds = 1
Dangerous builds = 0
write_dump all custom pysimm.dump.tmp id q x y z vx vy vz
quit


################################################################################
##################################    Init    ##################################
################################################################################
units           real
atom_style      full
pair_style      lj/cut/coul/long 12.0  12.0
kspace_style    pppm 1e-4
bond_style      harmonic
angle_style     harmonic
dihedral_style  fourier
improper_style  cvff
special_bonds   amber
pair_modify     mix arithmetic
read_data       temp.lmps
  orthogonal box = (-100.744 -100.744 -100.744) to (100.744 100.744 100.744)
  1 by 1 by 1 MPI processor grid
  reading atoms ...
  186 atoms
  reading velocities ...
  186 velocities
  scanning bonds ...
  4 = max bonds/atom
  scanning angles ...
  6 = max angles/atom
  scanning dihedrals ...
  21 = max dihedrals/atom
  scanning impropers ...
  1 = max impropers/atom
  reading bonds ...
  191 bonds
  reading angles ...
  348 angles
  reading dihedrals ...
  480 dihedrals
  reading impropers ...
  12 impropers
  4 = max # of 1-2 neighbors
  7 = max # of 1-3 neighbors
  18 = max # of 1-4 neighbors
  21 = max # of special neighbors
  special bonds CPU = 0.000655174 secs
  read_data CPU = 0.00828791 secs
################################################################################

timestep        1
fix             pysimm_md all nve/limit 0.1
run             2000
PPPM initialization ...
  using 12-bit tables for long-range coulomb (../kspace.cpp:332)
  G vector (1/distance) = 0.0983355
  grid = 18 18 18
  stencil order = 5
  estimated absolute RMS force accuracy = 0.0293455
  estimated relative force accuracy = 8.8373e-05
  using double precision KISS FFT
  3d grid and FFT values/proc = 12167 5832
Neighbor list info ...
  update every 1 steps, delay 10 steps, check yes
  max neighbors/atom: 2000, page size: 100000
  master list distance cutoff = 14
  ghost atom cutoff = 14
  binsize = 7, bins = 29 29 29
  1 neighbor lists, perpetual/occasional/extra = 1 0 0
  (1) pair lj/cut/coul/long, perpetual
      attributes: half, newton on
      pair build: half/bin/newton
      stencil: half/bin/3d/newton
      bin: standard
Per MPI rank memory allocation (min/avg/max) = 17.65 | 17.65 | 17.65 Mbytes
Step Temp E_pair E_mol TotEng Press 
       0    568.40145    16113.782    291.94858    16719.175    548.42279 
    2000    698.19802   -139.92194    569.17814     814.2774  -0.43864299 
Loop time of 3.74022 on 1 procs for 2000 steps with 186 atoms

Performance: 46.201 ns/day, 0.519 hours/ns, 534.728 timesteps/s
100.1% CPU use with 1 MPI tasks x no OpenMP threads

MPI task timing breakdown:
Section |  min time  |  avg time  |  max time  |%varavg| %total
---------------------------------------------------------------
Pair    | 0.56475    | 0.56475    | 0.56475    |   0.0 | 15.10
Bond    | 0.14445    | 0.14445    | 0.14445    |   0.0 |  3.86
Kspace  | 2.9782     | 2.9782     | 2.9782     |   0.0 | 79.63
Neigh   | 0.042929   | 0.042929   | 0.042929   |   0.0 |  1.15
Comm    | 0.0012615  | 0.0012615  | 0.0012615  |   0.0 |  0.03
Output  | 1.2159e-05 | 1.2159e-05 | 1.2159e-05 |   0.0 |  0.00
Modify  | 0.0059252  | 0.0059252  | 0.0059252  |   0.0 |  0.16
Other   |            | 0.002679   |            |       |  0.07

Nlocal:    186 ave 186 max 186 min
Histogram: 1 0 0 0 0 0 0 0 0 0
Nghost:    4 ave 4 max 4 min
Histogram: 1 0 0 0 0 0 0 0 0 0
Neighs:    11648 ave 11648 max 11648 min
Histogram: 1 0 0 0 0 0 0 0 0 0

Total # of neighbors = 11648
Ave neighs/atom = 62.6237
Ave special neighs/atom = 10.7849
Neighbor list builds = 107
Dangerous builds = 0
unfix pysimm_md
min_style cg
minimize 0.001 0.001 10000 100000
WARNING: Using 'neigh_modify every 1 delay 0 check yes' setting during minimization (../min.cpp:190)
PPPM initialization ...
  using 12-bit tables for long-range coulomb (../kspace.cpp:332)
  G vector (1/distance) = 0.0983355
  grid = 18 18 18
  stencil order = 5
  estimated absolute RMS force accuracy = 0.0293455
  estimated relative force accuracy = 8.8373e-05
  using double precision KISS FFT
  3d grid and FFT values/proc = 12167 5832
Per MPI rank memory allocation (min/avg/max) = 18.77 | 18.77 | 18.77 Mbytes
Step Temp E_pair E_mol TotEng Press 
    2000    698.19802   -139.92194    569.17814     814.2774  -0.43864299 
    2047    698.19802   -169.90559    208.26517    423.38078    1.7244297 
Loop time of 0.61635 on 1 procs for 47 steps with 186 atoms

99.9% CPU use with 1 MPI tasks x no OpenMP threads

Minimization stats:
  Stopping criterion = linesearch alpha is zero
  Energy initial, next-to-last, final = 
         429.256204411      38.3595833315      38.3595833315
  Force two-norm initial, final = 672.633 26.7862
  Force max component initial, final = 110.947 4.47353
  Final line search alpha, max atom move = 9.00864e-12 4.03004e-11
  Iterations, force evaluations = 47 150

MPI task timing breakdown:
Section |  min time  |  avg time  |  max time  |%varavg| %total
---------------------------------------------------------------
Pair    | 0.14454    | 0.14454    | 0.14454    |   0.0 | 23.45
Bond    | 0.025391   | 0.025391   | 0.025391   |   0.0 |  4.12
Kspace  | 0.44383    | 0.44383    | 0.44383    |   0.0 | 72.01
Neigh   | 0.00081682 | 0.00081682 | 0.00081682 |   0.0 |  0.13
Comm    | 0.00013256 | 0.00013256 | 0.00013256 |   0.0 |  0.02
Output  | 0          | 0          | 0          |   0.0 |  0.00
Modify  | 0          | 0          | 0          |   0.0 |  0.00
Other   |            | 0.001638   |            |       |  0.27

Nlocal:    186 ave 186 max 186 min
Histogram: 1 0 0 0 0 0 0 0 0 0
Nghost:    3 ave 3 max 3 min
Histogram: 1 0 0 0 0 0 0 0 0 0
Neighs:    11687 ave 11687 max 11687 min
Histogram: 1 0 0 0 0 0 0 0 0 0

Total # of neighbors = 11687
Ave neighs/atom = 62.8333
Ave special neighs/atom = 10.7849
Neighbor list builds = 1
Dangerous builds = 0
write_dump all custom pysimm.dump.tmp id q x y z vx vy vz
quit


################################################################################
##################################    Init    ##################################
################################################################################
units           real
atom_style      full
pair_style      lj/cut/coul/long 12.0  12.0
kspace_style    pppm 1e-4
bond_style      harmonic
angle_style     harmonic
dihedral_style  fourier
improper_style  cvff
special_bonds   amber
pair_modify     mix arithmetic
read_data       temp.lmps
  orthogonal box = (-100.744 -100.744 -100.744) to (100.744 100.744 100.744)
  1 by 1 by 1 MPI processor grid
  reading atoms ...
  248 atoms
  reading velocities ...
  248 velocities
  scanning bonds ...
  4 = max bonds/atom
  scanning angles ...
  6 = max angles/atom
  scanning dihedrals ...
  21 = max dihedrals/atom
  scanning impropers ...
  1 = max impropers/atom
  reading bonds ...
  255 bonds
  reading angles ...
  465 angles
  reading dihedrals ...
  644 dihedrals
  reading impropers ...
  16 impropers
  4 = max # of 1-2 neighbors
  7 = max # of 1-3 neighbors
  18 = max # of 1-4 neighbors
  21 = max # of special neighbors
  special bonds CPU = 0.000805855 secs
  read_data CPU = 0.0100272 secs
################################################################################

timestep        1
fix             pysimm_md all nve/limit 0.1
run             2000
PPPM initialization ...
WARNING: System is not charge neutral, net charge = -1.2e-05 (../kspace.cpp:313)
  using 12-bit tables for long-range coulomb (../kspace.cpp:332)
  G vector (1/distance) = 0.0983352
  grid = 18 18 18
  stencil order = 5
  estimated absolute RMS force accuracy = 0.033885
  estimated relative force accuracy = 0.000102044
  using double precision KISS FFT
  3d grid and FFT values/proc = 12167 5832
Neighbor list info ...
  update every 1 steps, delay 10 steps, check yes
  max neighbors/atom: 2000, page size: 100000
  master list distance cutoff = 14
  ghost atom cutoff = 14
  binsize = 7, bins = 29 29 29
  1 neighbor lists, perpetual/occasional/extra = 1 0 0
  (1) pair lj/cut/coul/long, perpetual
      attributes: half, newton on
      pair build: half/bin/newton
      stencil: half/bin/3d/newton
      bin: standard
Per MPI rank memory allocation (min/avg/max) = 17.65 | 17.65 | 17.65 Mbytes
Step Temp E_pair E_mol TotEng Press 
       0    523.47399   -214.56746    450.82462    621.67017   0.65390159 
    2000    386.53064   -200.99312    487.12815    570.72211    4.4867014 
Loop time of 4.24814 on 1 procs for 2000 steps with 248 atoms

Performance: 40.677 ns/day, 0.590 hours/ns, 470.794 timesteps/s
100.0% CPU use with 1 MPI tasks x no OpenMP threads

MPI task timing breakdown:
Section |  min time  |  avg time  |  max time  |%varavg| %total
---------------------------------------------------------------
Pair    | 0.88059    | 0.88059    | 0.88059    |   0.0 | 20.73
Bond    | 0.19766    | 0.19766    | 0.19766    |   0.0 |  4.65
Kspace  | 3.1181     | 3.1181     | 3.1181     |   0.0 | 73.40
Neigh   | 0.038944   | 0.038944   | 0.038944   |   0.0 |  0.92
Comm    | 0.0011675  | 0.0011675  | 0.0011675  |   0.0 |  0.03
Output  | 1.2875e-05 | 1.2875e-05 | 1.2875e-05 |   0.0 |  0.00
Modify  | 0.0078819  | 0.0078819  | 0.0078819  |   0.0 |  0.19
Other   |            | 0.003765   |            |       |  0.09

Nlocal:    248 ave 248 max 248 min
Histogram: 1 0 0 0 0 0 0 0 0 0
Nghost:    0 ave 0 max 0 min
Histogram: 1 0 0 0 0 0 0 0 0 0
Neighs:    17842 ave 17842 max 17842 min
Histogram: 1 0 0 0 0 0 0 0 0 0

Total # of neighbors = 17842
Ave neighs/atom = 71.9435
Ave special neighs/atom = 10.8306
Neighbor list builds = 71
Dangerous builds = 0
unfix pysimm_md
min_style cg
minimize 0.001 0.001 10000 100000
WARNING: Using 'neigh_modify every 1 delay 0 check yes' setting during minimization (../min.cpp:190)
PPPM initialization ...
  using 12-bit tables for long-range coulomb (../kspace.cpp:332)
  G vector (1/distance) = 0.0983352
  grid = 18 18 18
  stencil order = 5
  estimated absolute RMS force accuracy = 0.033885
  estimated relative force accuracy = 0.000102044
  using double precision KISS FFT
  3d grid and FFT values/proc = 12167 5832
Per MPI rank memory allocation (min/avg/max) = 18.78 | 18.78 | 18.78 Mbytes
Step Temp E_pair E_mol TotEng Press 
    2000    386.53064   -200.99312    487.12815    570.72211    4.4867014 
    2041    386.53064   -240.61661    260.58643     304.5569    1.2577927 
Loop time of 0.23534 on 1 procs for 41 steps with 248 atoms

100.3% CPU use with 1 MPI tasks x no OpenMP threads

Minimization stats:
  Stopping criterion = energy tolerance
  Energy initial, next-to-last, final = 
         286.135027334      19.9849593439      19.9698174541
  Force two-norm initial, final = 576.762 28.0207
  Force max component initial, final = 108.861 5.88301
  Final line search alpha, max atom move = 0.00394991 0.0232373
  Iterations, force evaluations = 41 136

MPI task timing breakdown:
Section |  min time  |  avg time  |  max time  |%varavg| %total
---------------------------------------------------------------
Pair    | 0.070655   | 0.070655   | 0.070655   |   0.0 | 30.02
Bond    | 0.011077   | 0.011077   | 0.011077   |   0.0 |  4.71
Kspace  | 0.15256    | 0.15256    | 0.15256    |   0.0 | 64.82
Neigh   | 0.00039697 | 0.00039697 | 0.00039697 |   0.0 |  0.17
Comm    | 3.3855e-05 | 3.3855e-05 | 3.3855e-05 |   0.0 |  0.01
Output  | 0          | 0          | 0          |   0.0 |  0.00
Modify  | 0          | 0          | 0          |   0.0 |  0.00
Other   |            | 0.000622   |            |       |  0.26

Nlocal:    248 ave 248 max 248 min
Histogram: 1 0 0 0 0 0 0 0 0 0
Nghost:    0 ave 0 max 0 min
Histogram: 1 0 0 0 0 0 0 0 0 0
Neighs:    17771 ave 17771 max 17771 min
Histogram: 1 0 0 0 0 0 0 0 0 0

Total # of neighbors = 17771
Ave neighs/atom = 71.6573
Ave special neighs/atom = 10.8306
Neighbor list builds = 1
Dangerous builds = 0
write_dump all custom pysimm.dump.tmp id q x y z vx vy vz
quit


################################################################################
##################################    Init    ##################################
################################################################################
units           real
atom_style      full
pair_style      lj/cut/coul/long 12.0  12.0
kspace_style    pppm 1e-4
bond_style      harmonic
angle_style     harmonic
dihedral_style  fourier
improper_style  cvff
special_bonds   amber
pair_modify     mix arithmetic
read_data       temp.lmps
  orthogonal box = (-100.744 -100.744 -100.744) to (100.744 100.744 100.744)
  1 by 1 by 1 MPI processor grid
  reading atoms ...
  310 atoms
  reading velocities ...
  310 velocities
  scanning bonds ...
  4 = max bonds/atom
  scanning angles ...
  6 = max angles/atom
  scanning dihedrals ...
  21 = max dihedrals/atom
  scanning impropers ...
  1 = max impropers/atom
  reading bonds ...
  319 bonds
  reading angles ...
  582 angles
  reading dihedrals ...
  808 dihedrals
  reading impropers ...
  20 impropers
  4 = max # of 1-2 neighbors
  7 = max # of 1-3 neighbors
  18 = max # of 1-4 neighbors
  21 = max # of special neighbors
  special bonds CPU = 0.000854969 secs
  read_data CPU = 0.012392 secs
################################################################################

timestep        1
fix             pysimm_md all nve/limit 0.1
run             2000
PPPM initialization ...
WARNING: System is not charge neutral, net charge = -1.5e-05 (../kspace.cpp:313)
  using 12-bit tables for long-range coulomb (../kspace.cpp:332)
  G vector (1/distance) = 0.10594
  grid = 20 20 20
  stencil order = 5
  estimated absolute RMS force accuracy = 0.0302909
  estimated relative force accuracy = 9.122e-05
  using double precision KISS FFT
  3d grid and FFT values/proc = 15625 8000
Neighbor list info ...
  update every 1 steps, delay 10 steps, check yes
  max neighbors/atom: 2000, page size: 100000
  master list distance cutoff = 14
  ghost atom cutoff = 14
  binsize = 7, bins = 29 29 29
  1 neighbor lists, perpetual/occasional/extra = 1 0 0
  (1) pair lj/cut/coul/long, perpetual
      attributes: half, newton on
      pair build: half/bin/newton
      stencil: half/bin/3d/newton
      bin: standard
Per MPI rank memory allocation (min/avg/max) = 17.98 | 17.98 | 17.98 Mbytes
Step Temp E_pair E_mol TotEng Press 
       0    309.39976   -293.11847    491.53858    483.39905  0.065757191 
    2000    262.53804   -293.40848    499.88509     448.2926   0.56605487 
Loop time of 4.954 on 1 procs for 2000 steps with 310 atoms

Performance: 34.881 ns/day, 0.688 hours/ns, 403.714 timesteps/s
100.1% CPU use with 1 MPI tasks x no OpenMP threads

MPI task timing breakdown:
Section |  min time  |  avg time  |  max time  |%varavg| %total
---------------------------------------------------------------
Pair    | 1.0801     | 1.0801     | 1.0801     |   0.0 | 21.80
Bond    | 0.22875    | 0.22875    | 0.22875    |   0.0 |  4.62
Kspace  | 3.5873     | 3.5873     | 3.5873     |   0.0 | 72.41
Neigh   | 0.043598   | 0.043598   | 0.043598   |   0.0 |  0.88
Comm    | 0.0010629  | 0.0010629  | 0.0010629  |   0.0 |  0.02
Output  | 1.2875e-05 | 1.2875e-05 | 1.2875e-05 |   0.0 |  0.00
Modify  | 0.0090766  | 0.0090766  | 0.0090766  |   0.0 |  0.18
Other   |            | 0.004099   |            |       |  0.08

Nlocal:    310 ave 310 max 310 min
Histogram: 1 0 0 0 0 0 0 0 0 0
Nghost:    0 ave 0 max 0 min
Histogram: 1 0 0 0 0 0 0 0 0 0
Neighs:    24833 ave 24833 max 24833 min
Histogram: 1 0 0 0 0 0 0 0 0 0

Total # of neighbors = 24833
Ave neighs/atom = 80.1065
Ave special neighs/atom = 10.8581
Neighbor list builds = 66
Dangerous builds = 0
unfix pysimm_md
min_style cg
minimize 0.001 0.001 10000 100000
WARNING: Using 'neigh_modify every 1 delay 0 check yes' setting during minimization (../min.cpp:190)
PPPM initialization ...
  using 12-bit tables for long-range coulomb (../kspace.cpp:332)
  G vector (1/distance) = 0.10594
  grid = 20 20 20
  stencil order = 5
  estimated absolute RMS force accuracy = 0.0302909
  estimated relative force accuracy = 9.122e-05
  using double precision KISS FFT
  3d grid and FFT values/proc = 15625 8000
Per MPI rank memory allocation (min/avg/max) = 19.1 | 19.1 | 19.1 Mbytes
Step Temp E_pair E_mol TotEng Press 
    2000    262.53804   -293.40848    499.88509     448.2926   0.56605487 
    2039    262.53804     -314.617    312.68769    239.88668    1.2742539 
Loop time of 0.248071 on 1 procs for 39 steps with 310 atoms

100.4% CPU use with 1 MPI tasks x no OpenMP threads

Minimization stats:
  Stopping criterion = energy tolerance
  Energy initial, next-to-last, final = 
          206.47661016     -1.92764665473     -1.92931264238
  Force two-norm initial, final = 472.851 21.356
  Force max component initial, final = 73.142 6.0411
  Final line search alpha, max atom move = 0.00815841 0.0492857
  Iterations, force evaluations = 39 113

MPI task timing breakdown:
Section |  min time  |  avg time  |  max time  |%varavg| %total
---------------------------------------------------------------
Pair    | 0.079183   | 0.079183   | 0.079183   |   0.0 | 31.92
Bond    | 0.011097   | 0.011097   | 0.011097   |   0.0 |  4.47
Kspace  | 0.15708    | 0.15708    | 0.15708    |   0.0 | 63.32
Neigh   | 0          | 0          | 0          |   0.0 |  0.00
Comm    | 2.0504e-05 | 2.0504e-05 | 2.0504e-05 |   0.0 |  0.01
Output  | 0          | 0          | 0          |   0.0 |  0.00
Modify  | 0          | 0          | 0          |   0.0 |  0.00
Other   |            | 0.0006888  |            |       |  0.28

Nlocal:    310 ave 310 max 310 min
Histogram: 1 0 0 0 0 0 0 0 0 0
Nghost:    0 ave 0 max 0 min
Histogram: 1 0 0 0 0 0 0 0 0 0
Neighs:    24842 ave 24842 max 24842 min
Histogram: 1 0 0 0 0 0 0 0 0 0

Total # of neighbors = 24842
Ave neighs/atom = 80.1355
Ave special neighs/atom = 10.8581
Neighbor list builds = 0
Dangerous builds = 0
write_dump all custom pysimm.dump.tmp id q x y z vx vy vz
quit


################################################################################
##################################    Init    ##################################
################################################################################
units           real
atom_style      full
pair_style      lj/cut/coul/long 12.0  12.0
kspace_style    pppm 1e-4
bond_style      harmonic
angle_style     harmonic
dihedral_style  fourier
improper_style  cvff
special_bonds   amber
pair_modify     mix arithmetic
read_data       temp.lmps
  orthogonal box = (-100.744 -100.744 -100.744) to (100.744 100.744 100.744)
  1 by 1 by 1 MPI processor grid
  reading atoms ...
  372 atoms
  reading velocities ...
  372 velocities
  scanning bonds ...
  4 = max bonds/atom
  scanning angles ...
  6 = max angles/atom
  scanning dihedrals ...
  21 = max dihedrals/atom
  scanning impropers ...
  1 = max impropers/atom
  reading bonds ...
  383 bonds
  reading angles ...
  699 angles
  reading dihedrals ...
  972 dihedrals
  reading impropers ...
  24 impropers
  4 = max # of 1-2 neighbors
  7 = max # of 1-3 neighbors
  18 = max # of 1-4 neighbors
  21 = max # of special neighbors
  special bonds CPU = 0.000386 secs
  read_data CPU = 0.00954103 secs
################################################################################

timestep        1
fix             pysimm_md all nve/limit 0.1
run             2000
PPPM initialization ...
WARNING: System is not charge neutral, net charge = -1.8e-05 (../kspace.cpp:313)
  using 12-bit tables for long-range coulomb (../kspace.cpp:332)
  G vector (1/distance) = 0.105942
  grid = 20 20 20
  stencil order = 5
  estimated absolute RMS force accuracy = 0.0331835
  estimated relative force accuracy = 9.9931e-05
  using double precision KISS FFT
  3d grid and FFT values/proc = 15625 8000
Neighbor list info ...
  update every 1 steps, delay 10 steps, check yes
  max neighbors/atom: 2000, page size: 100000
  master list distance cutoff = 14
  ghost atom cutoff = 14
  binsize = 7, bins = 29 29 29
  1 neighbor lists, perpetual/occasional/extra = 1 0 0
  (1) pair lj/cut/coul/long, perpetual
      attributes: half, newton on
      pair build: half/bin/newton
      stencil: half/bin/3d/newton
      bin: standard
Per MPI rank memory allocation (min/avg/max) = 17.98 | 17.98 | 17.98 Mbytes
Step Temp E_pair E_mol TotEng Press 
       0    219.01807    -376.1225    535.22399    401.30931  0.041861383 
    2000    191.58555    -378.0963    522.04043    355.81485   0.53698982 
Loop time of 4.49202 on 1 procs for 2000 steps with 372 atoms

Performance: 38.468 ns/day, 0.624 hours/ns, 445.234 timesteps/s
100.0% CPU use with 1 MPI tasks x no OpenMP threads

MPI task timing breakdown:
Section |  min time  |  avg time  |  max time  |%varavg| %total
---------------------------------------------------------------
Pair    | 1.1589     | 1.1589     | 1.1589     |   0.0 | 25.80
Bond    | 0.22778    | 0.22778    | 0.22778    |   0.0 |  5.07
Kspace  | 3.049      | 3.049      | 3.049      |   0.0 | 67.87
Neigh   | 0.042672   | 0.042672   | 0.042672   |   0.0 |  0.95
Comm    | 0.00090933 | 0.00090933 | 0.00090933 |   0.0 |  0.02
Output  | 1.4067e-05 | 1.4067e-05 | 1.4067e-05 |   0.0 |  0.00
Modify  | 0.0089843  | 0.0089843  | 0.0089843  |   0.0 |  0.20
Other   |            | 0.003777   |            |       |  0.08

Nlocal:    372 ave 372 max 372 min
Histogram: 1 0 0 0 0 0 0 0 0 0
Nghost:    0 ave 0 max 0 min
Histogram: 1 0 0 0 0 0 0 0 0 0
Neighs:    30880 ave 30880 max 30880 min
Histogram: 1 0 0 0 0 0 0 0 0 0

Total # of neighbors = 30880
Ave neighs/atom = 83.0108
Ave special neighs/atom = 10.8763
Neighbor list builds = 60
Dangerous builds = 0
unfix pysimm_md
min_style cg
minimize 0.001 0.001 10000 100000
WARNING: Using 'neigh_modify every 1 delay 0 check yes' setting during minimization (../min.cpp:190)
PPPM initialization ...
  using 12-bit tables for long-range coulomb (../kspace.cpp:332)
  G vector (1/distance) = 0.105942
  grid = 20 20 20
  stencil order = 5
  estimated absolute RMS force accuracy = 0.0331835
  estimated relative force accuracy = 9.9931e-05
  using double precision KISS FFT
  3d grid and FFT values/proc = 15625 8000
Per MPI rank memory allocation (min/avg/max) = 19.11 | 19.11 | 19.11 Mbytes
Step Temp E_pair E_mol TotEng Press 
    2000    191.58555    -378.0963    522.04043    355.81485   0.53698982 
    2035    191.58555   -403.80679    362.90541    170.96934   0.87006818 
Loop time of 0.181833 on 1 procs for 35 steps with 372 atoms

100.1% CPU use with 1 MPI tasks x no OpenMP threads

Minimization stats:
  Stopping criterion = energy tolerance
  Energy initial, next-to-last, final = 
         143.944129694     -40.8970434443     -40.9013791662
  Force two-norm initial, final = 457.472 45.0641
  Force max component initial, final = 81.9728 17.4074
  Final line search alpha, max atom move = 0.00780709 0.135901
  Iterations, force evaluations = 35 74

MPI task timing breakdown:
Section |  min time  |  avg time  |  max time  |%varavg| %total
---------------------------------------------------------------
Pair    | 0.065628   | 0.065628   | 0.065628   |   0.0 | 36.09
Bond    | 0.0087223  | 0.0087223  | 0.0087223  |   0.0 |  4.80
Kspace  | 0.10688    | 0.10688    | 0.10688    |   0.0 | 58.78
Neigh   | 0          | 0          | 0          |   0.0 |  0.00
Comm    | 2.5749e-05 | 2.5749e-05 | 2.5749e-05 |   0.0 |  0.01
Output  | 0          | 0          | 0          |   0.0 |  0.00
Modify  | 0          | 0          | 0          |   0.0 |  0.00
Other   |            | 0.0005746  |            |       |  0.32

Nlocal:    372 ave 372 max 372 min
Histogram: 1 0 0 0 0 0 0 0 0 0
Nghost:    0 ave 0 max 0 min
Histogram: 1 0 0 0 0 0 0 0 0 0
Neighs:    30861 ave 30861 max 30861 min
Histogram: 1 0 0 0 0 0 0 0 0 0

Total # of neighbors = 30861
Ave neighs/atom = 82.9597
Ave special neighs/atom = 10.8763
Neighbor list builds = 0
Dangerous builds = 0
write_dump all custom pysimm.dump.tmp id q x y z vx vy vz
quit


################################################################################
##################################    Init    ##################################
################################################################################
units           real
atom_style      full
pair_style      lj/cut/coul/long 12.0  12.0
kspace_style    pppm 1e-4
bond_style      harmonic
angle_style     harmonic
dihedral_style  fourier
improper_style  cvff
special_bonds   amber
pair_modify     mix arithmetic
read_data       temp.lmps
  orthogonal box = (-100.744 -100.744 -100.744) to (100.744 100.744 100.744)
  1 by 1 by 1 MPI processor grid
  reading atoms ...
  434 atoms
  reading velocities ...
  434 velocities
  scanning bonds ...
  4 = max bonds/atom
  scanning angles ...
  6 = max angles/atom
  scanning dihedrals ...
  21 = max dihedrals/atom
  scanning impropers ...
  1 = max impropers/atom
  reading bonds ...
  447 bonds
  reading angles ...
  816 angles
  reading dihedrals ...
  1136 dihedrals
  reading impropers ...
  28 impropers
  4 = max # of 1-2 neighbors
  7 = max # of 1-3 neighbors
  18 = max # of 1-4 neighbors
  21 = max # of special neighbors
  special bonds CPU = 0.00104904 secs
  read_data CPU = 0.014236 secs
################################################################################

timestep        1
fix             pysimm_md all nve/limit 0.1
run             2000
PPPM initialization ...
WARNING: System is not charge neutral, net charge = -2.1e-05 (../kspace.cpp:313)
  using 12-bit tables for long-range coulomb (../kspace.cpp:332)
  G vector (1/distance) = 0.10594
  grid = 20 20 20
  stencil order = 5
  estimated absolute RMS force accuracy = 0.0358409
  estimated relative force accuracy = 0.000107934
  using double precision KISS FFT
  3d grid and FFT values/proc = 15625 8000
Neighbor list info ...
  update every 1 steps, delay 10 steps, check yes
  max neighbors/atom: 2000, page size: 100000
  master list distance cutoff = 14
  ghost atom cutoff = 14
  binsize = 7, bins = 29 29 29
  1 neighbor lists, perpetual/occasional/extra = 1 0 0
  (1) pair lj/cut/coul/long, perpetual
      attributes: half, newton on
      pair build: half/bin/newton
      stencil: half/bin/3d/newton
      bin: standard
Per MPI rank memory allocation (min/avg/max) = 17.99 | 17.99 | 17.99 Mbytes
Step Temp E_pair E_mol TotEng Press 
       0    164.45655   -464.16895    578.02718    326.12078  -0.28175509 
    2000     140.5087   -456.47467     563.4632    288.34181   0.18622635 
Loop time of 5.35979 on 1 procs for 2000 steps with 434 atoms

Performance: 32.240 ns/day, 0.744 hours/ns, 373.149 timesteps/s
100.1% CPU use with 1 MPI tasks x no OpenMP threads

MPI task timing breakdown:
Section |  min time  |  avg time  |  max time  |%varavg| %total
---------------------------------------------------------------
Pair    | 1.5932     | 1.5932     | 1.5932     |   0.0 | 29.73
Bond    | 0.31381    | 0.31381    | 0.31381    |   0.0 |  5.85
Kspace  | 3.3888     | 3.3888     | 3.3888     |   0.0 | 63.23
Neigh   | 0.046085   | 0.046085   | 0.046085   |   0.0 |  0.86
Comm    | 0.0010004  | 0.0010004  | 0.0010004  |   0.0 |  0.02
Output  | 1.2875e-05 | 1.2875e-05 | 1.2875e-05 |   0.0 |  0.00
Modify  | 0.012074   | 0.012074   | 0.012074   |   0.0 |  0.23
Other   |            | 0.004792   |            |       |  0.09

Nlocal:    434 ave 434 max 434 min
Histogram: 1 0 0 0 0 0 0 0 0 0
Nghost:    0 ave 0 max 0 min
Histogram: 1 0 0 0 0 0 0 0 0 0
Neighs:    35771 ave 35771 max 35771 min
Histogram: 1 0 0 0 0 0 0 0 0 0

Total # of neighbors = 35771
Ave neighs/atom = 82.4217
Ave special neighs/atom = 10.8894
Neighbor list builds = 47
Dangerous builds = 0
unfix pysimm_md
min_style cg
minimize 0.001 0.001 10000 100000
WARNING: Using 'neigh_modify every 1 delay 0 check yes' setting during minimization (../min.cpp:190)
PPPM initialization ...
  using 12-bit tables for long-range coulomb (../kspace.cpp:332)
  G vector (1/distance) = 0.10594
  grid = 20 20 20
  stencil order = 5
  estimated absolute RMS force accuracy = 0.0358409
  estimated relative force accuracy = 0.000107934
  using double precision KISS FFT
  3d grid and FFT values/proc = 15625 8000
Per MPI rank memory allocation (min/avg/max) = 19.11 | 19.11 | 19.11 Mbytes
Step Temp E_pair E_mol TotEng Press 
    2000     140.5087   -456.47467     563.4632    288.34181   0.18622635 
    2028     140.5087    -467.9384     421.2668    134.68168   0.68526776 
Loop time of 0.213923 on 1 procs for 28 steps with 434 atoms

100.0% CPU use with 1 MPI tasks x no OpenMP threads

Minimization stats:
  Stopping criterion = energy tolerance
  Energy initial, next-to-last, final = 
         106.988530633     -46.6434101257     -46.6715990176
  Force two-norm initial, final = 439.557 27.9447
  Force max component initial, final = 65.4392 12.9599
  Final line search alpha, max atom move = 0.000682039 0.00883916
  Iterations, force evaluations = 28 81

MPI task timing breakdown:
Section |  min time  |  avg time  |  max time  |%varavg| %total
---------------------------------------------------------------
Pair    | 0.083878   | 0.083878   | 0.083878   |   0.0 | 39.21
Bond    | 0.011267   | 0.011267   | 0.011267   |   0.0 |  5.27
Kspace  | 0.11814    | 0.11814    | 0.11814    |   0.0 | 55.23
Neigh   | 0          | 0          | 0          |   0.0 |  0.00
Comm    | 1.9789e-05 | 1.9789e-05 | 1.9789e-05 |   0.0 |  0.01
Output  | 0          | 0          | 0          |   0.0 |  0.00
Modify  | 0          | 0          | 0          |   0.0 |  0.00
Other   |            | 0.0006163  |            |       |  0.29

Nlocal:    434 ave 434 max 434 min
Histogram: 1 0 0 0 0 0 0 0 0 0
Nghost:    0 ave 0 max 0 min
Histogram: 1 0 0 0 0 0 0 0 0 0
Neighs:    35787 ave 35787 max 35787 min
Histogram: 1 0 0 0 0 0 0 0 0 0

Total # of neighbors = 35787
Ave neighs/atom = 82.4585
Ave special neighs/atom = 10.8894
Neighbor list builds = 0
Dangerous builds = 0
write_dump all custom pysimm.dump.tmp id q x y z vx vy vz
quit


################################################################################
##################################    Init    ##################################
################################################################################
units           real
atom_style      full
pair_style      lj/cut/coul/long 12.0  12.0
kspace_style    pppm 1e-4
bond_style      harmonic
angle_style     harmonic
dihedral_style  fourier
improper_style  cvff
special_bonds   amber
pair_modify     mix arithmetic
read_data       temp.lmps
  orthogonal box = (-100.744 -100.744 -100.744) to (100.744 100.744 100.744)
  1 by 1 by 1 MPI processor grid
  reading atoms ...
  496 atoms
  reading velocities ...
  496 velocities
  scanning bonds ...
  4 = max bonds/atom
  scanning angles ...
  6 = max angles/atom
  scanning dihedrals ...
  21 = max dihedrals/atom
  scanning impropers ...
  1 = max impropers/atom
  reading bonds ...
  511 bonds
  reading angles ...
  933 angles
  reading dihedrals ...
  1300 dihedrals
  reading impropers ...
  32 impropers
  4 = max # of 1-2 neighbors
  7 = max # of 1-3 neighbors
  18 = max # of 1-4 neighbors
  21 = max # of special neighbors
  special bonds CPU = 0.000406027 secs
  read_data CPU = 0.00975108 secs
################################################################################

timestep        1
fix             pysimm_md all nve/limit 0.1
run             2000
PPPM initialization ...
WARNING: System is not charge neutral, net charge = -2.4e-05 (../kspace.cpp:313)
  using 12-bit tables for long-range coulomb (../kspace.cpp:332)
  G vector (1/distance) = 0.10594
  grid = 20 20 20
  stencil order = 5
  estimated absolute RMS force accuracy = 0.0383153
  estimated relative force accuracy = 0.000115385
  using double precision KISS FFT
  3d grid and FFT values/proc = 15625 8000
Neighbor list info ...
  update every 1 steps, delay 10 steps, check yes
  max neighbors/atom: 2000, page size: 100000
  master list distance cutoff = 14
  ghost atom cutoff = 14
  binsize = 7, bins = 29 29 29
  1 neighbor lists, perpetual/occasional/extra = 1 0 0
  (1) pair lj/cut/coul/long, perpetual
      attributes: half, newton on
      pair build: half/bin/newton
      stencil: half/bin/3d/newton
      bin: standard
Per MPI rank memory allocation (min/avg/max) = 18 | 18 | 18 Mbytes
Step Temp E_pair E_mol TotEng Press 
       0    123.17518   -531.32785    609.22732    259.64456  -0.59685974 
    2000    116.81315   -520.67667    595.46216    247.14342  -0.24628004 
Loop time of 5.05615 on 1 procs for 2000 steps with 496 atoms

Performance: 34.176 ns/day, 0.702 hours/ns, 395.558 timesteps/s
100.0% CPU use with 1 MPI tasks x no OpenMP threads

MPI task timing breakdown:
Section |  min time  |  avg time  |  max time  |%varavg| %total
---------------------------------------------------------------
Pair    | 1.5959     | 1.5959     | 1.5959     |   0.0 | 31.56
Bond    | 0.3008     | 0.3008     | 0.3008     |   0.0 |  5.95
Kspace  | 3.0959     | 3.0959     | 3.0959     |   0.0 | 61.23
Neigh   | 0.046624   | 0.046624   | 0.046624   |   0.0 |  0.92
Comm    | 0.00089002 | 0.00089002 | 0.00089002 |   0.0 |  0.02
Output  | 1.3113e-05 | 1.3113e-05 | 1.3113e-05 |   0.0 |  0.00
Modify  | 0.01162    | 0.01162    | 0.01162    |   0.0 |  0.23
Other   |            | 0.0044     |            |       |  0.09

Nlocal:    496 ave 496 max 496 min
Histogram: 1 0 0 0 0 0 0 0 0 0
Nghost:    0 ave 0 max 0 min
Histogram: 1 0 0 0 0 0 0 0 0 0
Neighs:    41592 ave 41592 max 41592 min
Histogram: 1 0 0 0 0 0 0 0 0 0

Total # of neighbors = 41592
Ave neighs/atom = 83.8548
Ave special neighs/atom = 10.8992
Neighbor list builds = 49
Dangerous builds = 0
unfix pysimm_md
min_style cg
minimize 0.001 0.001 10000 100000
WARNING: Using 'neigh_modify every 1 delay 0 check yes' setting during minimization (../min.cpp:190)
PPPM initialization ...
  using 12-bit tables for long-range coulomb (../kspace.cpp:332)
  G vector (1/distance) = 0.10594
  grid = 20 20 20
  stencil order = 5
  estimated absolute RMS force accuracy = 0.0383153
  estimated relative force accuracy = 0.000115385
  using double precision KISS FFT
  3d grid and FFT values/proc = 15625 8000
Per MPI rank memory allocation (min/avg/max) = 19.12 | 19.12 | 19.12 Mbytes
Step Temp E_pair E_mol TotEng Press 
    2000    116.81315   -520.67667    595.46216    247.14342  -0.24628004 
    2017    116.81315   -539.64341    485.35496    118.06948   0.63934995 
Loop time of 0.265382 on 1 procs for 17 steps with 496 atoms

99.8% CPU use with 1 MPI tasks x no OpenMP threads

Minimization stats:
  Stopping criterion = linesearch alpha is zero
  Energy initial, next-to-last, final = 
          74.785494231     -54.2884431809     -54.2884431809
  Force two-norm initial, final = 382.835 41.1454
  Force max component initial, final = 58.4479 10.5808
  Final line search alpha, max atom move = 7.40186e-12 7.83179e-11
  Iterations, force evaluations = 17 94

MPI task timing breakdown:
Section |  min time  |  avg time  |  max time  |%varavg| %total
---------------------------------------------------------------
Pair    | 0.11035    | 0.11035    | 0.11035    |   0.0 | 41.58
Bond    | 0.015204   | 0.015204   | 0.015204   |   0.0 |  5.73
Kspace  | 0.13918    | 0.13918    | 0.13918    |   0.0 | 52.45
Neigh   | 0          | 0          | 0          |   0.0 |  0.00
Comm    | 1.502e-05  | 1.502e-05  | 1.502e-05  |   0.0 |  0.01
Output  | 0          | 0          | 0          |   0.0 |  0.00
Modify  | 0          | 0          | 0          |   0.0 |  0.00
Other   |            | 0.0006268  |            |       |  0.24

Nlocal:    496 ave 496 max 496 min
Histogram: 1 0 0 0 0 0 0 0 0 0
Nghost:    0 ave 0 max 0 min
Histogram: 1 0 0 0 0 0 0 0 0 0
Neighs:    41573 ave 41573 max 41573 min
Histogram: 1 0 0 0 0 0 0 0 0 0

Total # of neighbors = 41573
Ave neighs/atom = 83.8165
Ave special neighs/atom = 10.8992
Neighbor list builds = 0
Dangerous builds = 0
write_dump all custom pysimm.dump.tmp id q x y z vx vy vz
quit


################################################################################
##################################    Init    ##################################
################################################################################
units           real
atom_style      full
pair_style      lj/cut/coul/long 12.0  12.0
kspace_style    pppm 1e-4
bond_style      harmonic
angle_style     harmonic
dihedral_style  fourier
improper_style  cvff
special_bonds   amber
pair_modify     mix arithmetic
read_data       temp.lmps
  orthogonal box = (-100.744 -100.744 -100.744) to (100.744 100.744 100.744)
  1 by 1 by 1 MPI processor grid
  reading atoms ...
  558 atoms
  reading velocities ...
  558 velocities
  scanning bonds ...
  4 = max bonds/atom
  scanning angles ...
  6 = max angles/atom
  scanning dihedrals ...
  21 = max dihedrals/atom
  scanning impropers ...
  1 = max impropers/atom
  reading bonds ...
  575 bonds
  reading angles ...
  1050 angles
  reading dihedrals ...
  1464 dihedrals
  reading impropers ...
  36 impropers
  4 = max # of 1-2 neighbors
  7 = max # of 1-3 neighbors
  18 = max # of 1-4 neighbors
  21 = max # of special neighbors
  special bonds CPU = 0.00118303 secs
  read_data CPU = 0.0159562 secs
################################################################################

timestep        1
fix             pysimm_md all nve/limit 0.1
run             2000
PPPM initialization ...
WARNING: System is not charge neutral, net charge = -2.7e-05 (../kspace.cpp:313)
  using 12-bit tables for long-range coulomb (../kspace.cpp:332)
  G vector (1/distance) = 0.119676
  grid = 24 24 24
  stencil order = 5
  estimated absolute RMS force accuracy = 0.0260112
  estimated relative force accuracy = 7.83321e-05
  using double precision KISS FFT
  3d grid and FFT values/proc = 24389 13824
Neighbor list info ...
  update every 1 steps, delay 10 steps, check yes
  max neighbors/atom: 2000, page size: 100000
  master list distance cutoff = 14
  ghost atom cutoff = 14
  binsize = 7, bins = 29 29 29
  1 neighbor lists, perpetual/occasional/extra = 1 0 0
  (1) pair lj/cut/coul/long, perpetual
      attributes: half, newton on
      pair build: half/bin/newton
      stencil: half/bin/3d/newton
      bin: standard
Per MPI rank memory allocation (min/avg/max) = 18.83 | 18.83 | 18.83 Mbytes
Step Temp E_pair E_mol TotEng Press 
       0    104.04659   -604.58551    694.14952    262.31373  -0.54453217 
    2000     104.1315   -591.56881    658.68662     240.0085 -0.015468088 
Loop time of 8.50289 on 1 procs for 2000 steps with 558 atoms

Performance: 20.323 ns/day, 1.181 hours/ns, 235.214 timesteps/s
100.0% CPU use with 1 MPI tasks x no OpenMP threads

MPI task timing breakdown:
Section |  min time  |  avg time  |  max time  |%varavg| %total
---------------------------------------------------------------
Pair    | 1.9224     | 1.9224     | 1.9224     |   0.0 | 22.61
Bond    | 0.36765    | 0.36765    | 0.36765    |   0.0 |  4.32
Kspace  | 6.1405     | 6.1405     | 6.1405     |   0.0 | 72.22
Neigh   | 0.05153    | 0.05153    | 0.05153    |   0.0 |  0.61
Comm    | 0.0010338  | 0.0010338  | 0.0010338  |   0.0 |  0.01
Output  | 1.502e-05  | 1.502e-05  | 1.502e-05  |   0.0 |  0.00
Modify  | 0.014503   | 0.014503   | 0.014503   |   0.0 |  0.17
Other   |            | 0.005169   |            |       |  0.06

Nlocal:    558 ave 558 max 558 min
Histogram: 1 0 0 0 0 0 0 0 0 0
Nghost:    0 ave 0 max 0 min
Histogram: 1 0 0 0 0 0 0 0 0 0
Neighs:    46496 ave 46496 max 46496 min
Histogram: 1 0 0 0 0 0 0 0 0 0

Total # of neighbors = 46496
Ave neighs/atom = 83.3262
Ave special neighs/atom = 10.9068
Neighbor list builds = 44
Dangerous builds = 0
unfix pysimm_md
min_style cg
minimize 0.001 0.001 10000 100000
WARNING: Using 'neigh_modify every 1 delay 0 check yes' setting during minimization (../min.cpp:190)
PPPM initialization ...
  using 12-bit tables for long-range coulomb (../kspace.cpp:332)
  G vector (1/distance) = 0.119676
  grid = 24 24 24
  stencil order = 5
  estimated absolute RMS force accuracy = 0.0260112
  estimated relative force accuracy = 7.83321e-05
  using double precision KISS FFT
  3d grid and FFT values/proc = 24389 13824
Per MPI rank memory allocation (min/avg/max) = 19.96 | 19.96 | 19.96 Mbytes
Step Temp E_pair E_mol TotEng Press 
    2000     104.1315   -591.56881    658.68662     240.0085 -0.015468088 
    2022     104.1315    -615.5425    546.00353    103.35173   0.69991598 
Loop time of 0.436019 on 1 procs for 22 steps with 558 atoms

100.2% CPU use with 1 MPI tasks x no OpenMP threads

Minimization stats:
  Stopping criterion = linesearch alpha is zero
  Energy initial, next-to-last, final = 
         67.1178130235     -69.5389621456     -69.5389621456
  Force two-norm initial, final = 354.664 39.8523
  Force max component initial, final = 69.1802 9.32732
  Final line search alpha, max atom move = 4.38718e-12 4.09207e-11
  Iterations, force evaluations = 22 103

MPI task timing breakdown:
Section |  min time  |  avg time  |  max time  |%varavg| %total
---------------------------------------------------------------
Pair    | 0.13898    | 0.13898    | 0.13898    |   0.0 | 31.87
Bond    | 0.018465   | 0.018465   | 0.018465   |   0.0 |  4.23
Kspace  | 0.27776    | 0.27776    | 0.27776    |   0.0 | 63.70
Neigh   | 0          | 0          | 0          |   0.0 |  0.00
Comm    | 1.6212e-05 | 1.6212e-05 | 1.6212e-05 |   0.0 |  0.00
Output  | 0          | 0          | 0          |   0.0 |  0.00
Modify  | 0          | 0          | 0          |   0.0 |  0.00
Other   |            | 0.0007987  |            |       |  0.18

Nlocal:    558 ave 558 max 558 min
Histogram: 1 0 0 0 0 0 0 0 0 0
Nghost:    0 ave 0 max 0 min
Histogram: 1 0 0 0 0 0 0 0 0 0
Neighs:    46464 ave 46464 max 46464 min
Histogram: 1 0 0 0 0 0 0 0 0 0

Total # of neighbors = 46464
Ave neighs/atom = 83.2688
Ave special neighs/atom = 10.9068
Neighbor list builds = 0
Dangerous builds = 0
write_dump all custom pysimm.dump.tmp id q x y z vx vy vz
quit


################################################################################
##################################    Init    ##################################
################################################################################
units           real
atom_style      full
pair_style      lj/cut/coul/long 12.0  12.0
kspace_style    pppm 1e-4
bond_style      harmonic
angle_style     harmonic
dihedral_style  fourier
improper_style  cvff
special_bonds   amber
pair_modify     mix arithmetic
read_data       temp.lmps
  orthogonal box = (-100.744 -100.744 -100.744) to (100.744 100.744 100.744)
  1 by 1 by 1 MPI processor grid
  reading atoms ...
  620 atoms
  reading velocities ...
  620 velocities
  scanning bonds ...
  4 = max bonds/atom
  scanning angles ...
  6 = max angles/atom
  scanning dihedrals ...
  21 = max dihedrals/atom
  scanning impropers ...
  1 = max impropers/atom
  reading bonds ...
  639 bonds
  reading angles ...
  1167 angles
  reading dihedrals ...
  1628 dihedrals
  reading impropers ...
  40 impropers
  4 = max # of 1-2 neighbors
  7 = max # of 1-3 neighbors
  18 = max # of 1-4 neighbors
  21 = max # of special neighbors
  special bonds CPU = 0.000699043 secs
  read_data CPU = 0.0116138 secs
################################################################################

timestep        1
fix             pysimm_md all nve/limit 0.1
run             2000
PPPM initialization ...
WARNING: System is not charge neutral, net charge = -3e-05 (../kspace.cpp:313)
  using 12-bit tables for long-range coulomb (../kspace.cpp:332)
  G vector (1/distance) = 0.119675
  grid = 24 24 24
  stencil order = 5
  estimated absolute RMS force accuracy = 0.0274181
  estimated relative force accuracy = 8.25689e-05
  using double precision KISS FFT
  3d grid and FFT values/proc = 24389 13824
Neighbor list info ...
  update every 1 steps, delay 10 steps, check yes
  max neighbors/atom: 2000, page size: 100000
  master list distance cutoff = 14
  ghost atom cutoff = 14
  binsize = 7, bins = 29 29 29
  1 neighbor lists, perpetual/occasional/extra = 1 0 0
  (1) pair lj/cut/coul/long, perpetual
      attributes: half, newton on
      pair build: half/bin/newton
      stencil: half/bin/3d/newton
      bin: standard
Per MPI rank memory allocation (min/avg/max) = 18.84 | 18.84 | 18.84 Mbytes
Step Temp E_pair E_mol TotEng Press 
       0    93.913862   -678.53355    765.34097     260.0899  -0.47722418 
    2000    90.701981   -667.43606    714.33133    214.25144   0.45319811 
Loop time of 8.11484 on 1 procs for 2000 steps with 620 atoms

Performance: 21.294 ns/day, 1.127 hours/ns, 246.462 timesteps/s
100.0% CPU use with 1 MPI tasks x no OpenMP threads

MPI task timing breakdown:
Section |  min time  |  avg time  |  max time  |%varavg| %total
---------------------------------------------------------------
Pair    | 1.9634     | 1.9634     | 1.9634     |   0.0 | 24.20
Bond    | 0.37378    | 0.37378    | 0.37378    |   0.0 |  4.61
Kspace  | 5.7081     | 5.7081     | 5.7081     |   0.0 | 70.34
Neigh   | 0.048852   | 0.048852   | 0.048852   |   0.0 |  0.60
Comm    | 0.0011706  | 0.0011706  | 0.0011706  |   0.0 |  0.01
Output  | 1.3828e-05 | 1.3828e-05 | 1.3828e-05 |   0.0 |  0.00
Modify  | 0.014358   | 0.014358   | 0.014358   |   0.0 |  0.18
Other   |            | 0.005168   |            |       |  0.06

Nlocal:    620 ave 620 max 620 min
Histogram: 1 0 0 0 0 0 0 0 0 0
Nghost:    1 ave 1 max 1 min
Histogram: 1 0 0 0 0 0 0 0 0 0
Neighs:    52383 ave 52383 max 52383 min
Histogram: 1 0 0 0 0 0 0 0 0 0

Total # of neighbors = 52383
Ave neighs/atom = 84.4887
Ave special neighs/atom = 10.9129
Neighbor list builds = 40
Dangerous builds = 0
unfix pysimm_md
min_style cg
minimize 0.001 0.001 10000 100000
WARNING: Using 'neigh_modify every 1 delay 0 check yes' setting during minimization (../min.cpp:190)
PPPM initialization ...
  using 12-bit tables for long-range coulomb (../kspace.cpp:332)
  G vector (1/distance) = 0.119675
  grid = 24 24 24
  stencil order = 5
  estimated absolute RMS force accuracy = 0.0274181
  estimated relative force accuracy = 8.25689e-05
  using double precision KISS FFT
  3d grid and FFT values/proc = 24389 13824
Per MPI rank memory allocation (min/avg/max) = 19.96 | 19.96 | 19.96 Mbytes
Step Temp E_pair E_mol TotEng Press 
    2000    90.701981   -667.43606    714.33133    214.25144   0.45319811 
    2041    90.701981   -694.26376    589.79141    62.883817   0.34992224 
Loop time of 0.740627 on 1 procs for 41 steps with 620 atoms

99.9% CPU use with 1 MPI tasks x no OpenMP threads

Minimization stats:
  Stopping criterion = linesearch alpha is zero
  Energy initial, next-to-last, final = 
         46.8952710558     -104.472351331     -104.472351331
  Force two-norm initial, final = 399.445 25.6153
  Force max component initial, final = 62.8775 5.37618
  Final line search alpha, max atom move = 1.51839e-11 8.16315e-11
  Iterations, force evaluations = 41 164

MPI task timing breakdown:
Section |  min time  |  avg time  |  max time  |%varavg| %total
---------------------------------------------------------------
Pair    | 0.24826    | 0.24826    | 0.24826    |   0.0 | 33.52
Bond    | 0.032239   | 0.032239   | 0.032239   |   0.0 |  4.35
Kspace  | 0.4586     | 0.4586     | 0.4586     |   0.0 | 61.92
Neigh   | 0          | 0          | 0          |   0.0 |  0.00
Comm    | 6.5088e-05 | 6.5088e-05 | 6.5088e-05 |   0.0 |  0.01
Output  | 0          | 0          | 0          |   0.0 |  0.00
Modify  | 0          | 0          | 0          |   0.0 |  0.00
Other   |            | 0.001466   |            |       |  0.20

Nlocal:    620 ave 620 max 620 min
Histogram: 1 0 0 0 0 0 0 0 0 0
Nghost:    1 ave 1 max 1 min
Histogram: 1 0 0 0 0 0 0 0 0 0
Neighs:    52402 ave 52402 max 52402 min
Histogram: 1 0 0 0 0 0 0 0 0 0

Total # of neighbors = 52402
Ave neighs/atom = 84.5194
Ave special neighs/atom = 10.9129
Neighbor list builds = 0
Dangerous builds = 0
write_dump all custom pysimm.dump.tmp id q x y z vx vy vz
quit


################################################################################
##################################    Init    ##################################
################################################################################
units           real
atom_style      full
pair_style      lj/cut/coul/long 12.0  12.0
kspace_style    pppm 1e-4
bond_style      harmonic
angle_style     harmonic
dihedral_style  fourier
improper_style  cvff
special_bonds   amber
pair_modify     mix arithmetic
read_data       temp.lmps
  orthogonal box = (-126.929 -126.929 -126.929) to (126.929 126.929 126.929)
  1 by 1 by 1 MPI processor grid
  reading atoms ...
  682 atoms
  reading velocities ...
  682 velocities
  scanning bonds ...
  4 = max bonds/atom
  scanning angles ...
  6 = max angles/atom
  scanning dihedrals ...
  21 = max dihedrals/atom
  scanning impropers ...
  1 = max impropers/atom
  reading bonds ...
  703 bonds
  reading angles ...
  1284 angles
  reading dihedrals ...
  1792 dihedrals
  reading impropers ...
  44 impropers
  4 = max # of 1-2 neighbors
  7 = max # of 1-3 neighbors
  18 = max # of 1-4 neighbors
  21 = max # of special neighbors
  special bonds CPU = 0.00133514 secs
  read_data CPU = 0.020432 secs
################################################################################

timestep        1
fix             pysimm_md all nve/limit 0.1
run             2000
PPPM initialization ...
WARNING: System is not charge neutral, net charge = -3.3e-05 (../kspace.cpp:313)
  using 12-bit tables for long-range coulomb (../kspace.cpp:332)
  G vector (1/distance) = 0.10239
  grid = 24 24 24
  stencil order = 5
  estimated absolute RMS force accuracy = 0.0353412
  estimated relative force accuracy = 0.000106429
  using double precision KISS FFT
  3d grid and FFT values/proc = 24389 13824
Neighbor list info ...
  update every 1 steps, delay 10 steps, check yes
  max neighbors/atom: 2000, page size: 100000
  master list distance cutoff = 14
  ghost atom cutoff = 14
  binsize = 7, bins = 37 37 37
  1 neighbor lists, perpetual/occasional/extra = 1 0 0
  (1) pair lj/cut/coul/long, perpetual
      attributes: half, newton on
      pair build: half/bin/newton
      stencil: half/bin/3d/newton
      bin: standard
Per MPI rank memory allocation (min/avg/max) = 18.98 | 18.98 | 18.98 Mbytes
Step Temp E_pair E_mol TotEng Press 
       0    82.637242   -753.71238      85480.6    84894.635   -257.13333 
    2000    619.01064   -503.48854    1760.6153     2513.676    2.5177612 
Loop time of 9.18784 on 1 procs for 2000 steps with 682 atoms

Performance: 18.807 ns/day, 1.276 hours/ns, 217.679 timesteps/s
100.1% CPU use with 1 MPI tasks x no OpenMP threads

MPI task timing breakdown:
Section |  min time  |  avg time  |  max time  |%varavg| %total
---------------------------------------------------------------
Pair    | 2.3168     | 2.3168     | 2.3168     |   0.0 | 25.22
Bond    | 0.44619    | 0.44619    | 0.44619    |   0.0 |  4.86
Kspace  | 6.1634     | 6.1634     | 6.1634     |   0.0 | 67.08
Neigh   | 0.23844    | 0.23844    | 0.23844    |   0.0 |  2.60
Comm    | 0.0022717  | 0.0022717  | 0.0022717  |   0.0 |  0.02
Output  | 1.502e-05  | 1.502e-05  | 1.502e-05  |   0.0 |  0.00
Modify  | 0.017156   | 0.017156   | 0.017156   |   0.0 |  0.19
Other   |            | 0.003581   |            |       |  0.04

Nlocal:    682 ave 682 max 682 min
Histogram: 1 0 0 0 0 0 0 0 0 0
Nghost:    0 ave 0 max 0 min
Histogram: 1 0 0 0 0 0 0 0 0 0
Neighs:    58198 ave 58198 max 58198 min
Histogram: 1 0 0 0 0 0 0 0 0 0

Total # of neighbors = 58198
Ave neighs/atom = 85.3343
Ave special neighs/atom = 10.9179
Neighbor list builds = 163
Dangerous builds = 0
unfix pysimm_md
min_style cg
minimize 0.001 0.001 10000 100000
WARNING: Using 'neigh_modify every 1 delay 0 check yes' setting during minimization (../min.cpp:190)
PPPM initialization ...
  using 12-bit tables for long-range coulomb (../kspace.cpp:332)
  G vector (1/distance) = 0.10239
  grid = 24 24 24
  stencil order = 5
  estimated absolute RMS force accuracy = 0.0353412
  estimated relative force accuracy = 0.000106429
  using double precision KISS FFT
  3d grid and FFT values/proc = 24389 13824
Per MPI rank memory allocation (min/avg/max) = 20.1 | 20.1 | 20.1 Mbytes
Step Temp E_pair E_mol TotEng Press 
    2000    619.01064   -503.48854    1760.6153     2513.676    2.5177612 
    2052    619.01064   -673.71646    788.23435    1371.0672    3.4774903 
Loop time of 0.476241 on 1 procs for 52 steps with 682 atoms

99.9% CPU use with 1 MPI tasks x no OpenMP threads

Minimization stats:
  Stopping criterion = energy tolerance
  Energy initial, next-to-last, final = 
         1257.12674881      114.521947474      114.517889169
  Force two-norm initial, final = 1095.43 56.3437
  Force max component initial, final = 170.024 8.81283
  Final line search alpha, max atom move = 0.00235764 0.0207775
  Iterations, force evaluations = 52 102

MPI task timing breakdown:
Section |  min time  |  avg time  |  max time  |%varavg| %total
---------------------------------------------------------------
Pair    | 0.16837    | 0.16837    | 0.16837    |   0.0 | 35.35
Bond    | 0.022059   | 0.022059   | 0.022059   |   0.0 |  4.63
Kspace  | 0.28177    | 0.28177    | 0.28177    |   0.0 | 59.17
Neigh   | 0.0026221  | 0.0026221  | 0.0026221  |   0.0 |  0.55
Comm    | 3.6478e-05 | 3.6478e-05 | 3.6478e-05 |   0.0 |  0.01
Output  | 0          | 0          | 0          |   0.0 |  0.00
Modify  | 0          | 0          | 0          |   0.0 |  0.00
Other   |            | 0.001385   |            |       |  0.29

Nlocal:    682 ave 682 max 682 min
Histogram: 1 0 0 0 0 0 0 0 0 0
Nghost:    0 ave 0 max 0 min
Histogram: 1 0 0 0 0 0 0 0 0 0
Neighs:    58111 ave 58111 max 58111 min
Histogram: 1 0 0 0 0 0 0 0 0 0

Total # of neighbors = 58111
Ave neighs/atom = 85.2067
Ave special neighs/atom = 10.9179
Neighbor list builds = 2
Dangerous builds = 0
write_dump all custom pysimm.dump.tmp id q x y z vx vy vz
quit


################################################################################
##################################    Init    ##################################
################################################################################
units           real
atom_style      full
pair_style      lj/cut/coul/long 12.0  12.0
kspace_style    pppm 1e-4
bond_style      harmonic
angle_style     harmonic
dihedral_style  fourier
improper_style  cvff
special_bonds   amber
pair_modify     mix arithmetic
read_data       temp.lmps
  orthogonal box = (-131.026 -131.026 -131.026) to (131.026 131.026 131.026)
  1 by 1 by 1 MPI processor grid
  reading atoms ...
  744 atoms
  reading velocities ...
  744 velocities
  scanning bonds ...
  4 = max bonds/atom
  scanning angles ...
  6 = max angles/atom
  scanning dihedrals ...
  21 = max dihedrals/atom
  scanning impropers ...
  1 = max impropers/atom
  reading bonds ...
  767 bonds
  reading angles ...
  1401 angles
  reading dihedrals ...
  1956 dihedrals
  reading impropers ...
  48 impropers
  4 = max # of 1-2 neighbors
  7 = max # of 1-3 neighbors
  18 = max # of 1-4 neighbors
  21 = max # of special neighbors
  special bonds CPU = 0.000702858 secs
  read_data CPU = 0.0134461 secs
################################################################################

timestep        1
fix             pysimm_md all nve/limit 0.1
run             2000
PPPM initialization ...
WARNING: System is not charge neutral, net charge = -3.6e-05 (../kspace.cpp:313)
  using 12-bit tables for long-range coulomb (../kspace.cpp:332)
  G vector (1/distance) = 0.103046
  grid = 25 25 25
  stencil order = 5
  estimated absolute RMS force accuracy = 0.0345196
  estimated relative force accuracy = 0.000103955
  using double precision KISS FFT
  3d grid and FFT values/proc = 27000 15625
Neighbor list info ...
  update every 1 steps, delay 10 steps, check yes
  max neighbors/atom: 2000, page size: 100000
  master list distance cutoff = 14
  ghost atom cutoff = 14
  binsize = 7, bins = 38 38 38
  1 neighbor lists, perpetual/occasional/extra = 1 0 0
  (1) pair lj/cut/coul/long, perpetual
      attributes: half, newton on
      pair build: half/bin/newton
      stencil: half/bin/3d/newton
      bin: standard
Per MPI rank memory allocation (min/avg/max) = 19.26 | 19.26 | 19.26 Mbytes
Step Temp E_pair E_mol TotEng Press 
       0    567.53394   -734.61292    87326.669    87848.998   -235.34576 
    2000    690.07923   -588.72338    1924.4493    2864.0733    3.4079506 
Loop time of 9.14388 on 1 procs for 2000 steps with 744 atoms

Performance: 18.898 ns/day, 1.270 hours/ns, 218.726 timesteps/s
100.1% CPU use with 1 MPI tasks x no OpenMP threads

MPI task timing breakdown:
Section |  min time  |  avg time  |  max time  |%varavg| %total
---------------------------------------------------------------
Pair    | 2.1764     | 2.1764     | 2.1764     |   0.0 | 23.80
Bond    | 0.44241    | 0.44241    | 0.44241    |   0.0 |  4.84
Kspace  | 6.2623     | 6.2623     | 6.2623     |   0.0 | 68.49
Neigh   | 0.24002    | 0.24002    | 0.24002    |   0.0 |  2.62
Comm    | 0.0021427  | 0.0021427  | 0.0021427  |   0.0 |  0.02
Output  | 1.4067e-05 | 1.4067e-05 | 1.4067e-05 |   0.0 |  0.00
Modify  | 0.017059   | 0.017059   | 0.017059   |   0.0 |  0.19
Other   |            | 0.003554   |            |       |  0.04

Nlocal:    744 ave 744 max 744 min
Histogram: 1 0 0 0 0 0 0 0 0 0
Nghost:    0 ave 0 max 0 min
Histogram: 1 0 0 0 0 0 0 0 0 0
Neighs:    60734 ave 60734 max 60734 min
Histogram: 1 0 0 0 0 0 0 0 0 0

Total # of neighbors = 60734
Ave neighs/atom = 81.6317
Ave special neighs/atom = 10.922
Neighbor list builds = 165
Dangerous builds = 0
unfix pysimm_md
min_style cg
minimize 0.001 0.001 10000 100000
WARNING: Using 'neigh_modify every 1 delay 0 check yes' setting during minimization (../min.cpp:190)
PPPM initialization ...
  using 12-bit tables for long-range coulomb (../kspace.cpp:332)
  G vector (1/distance) = 0.103046
  grid = 25 25 25
  stencil order = 5
  estimated absolute RMS force accuracy = 0.0345196
  estimated relative force accuracy = 0.000103955
  using double precision KISS FFT
  3d grid and FFT values/proc = 27000 15625
Per MPI rank memory allocation (min/avg/max) = 20.38 | 20.38 | 20.38 Mbytes
Step Temp E_pair E_mol TotEng Press 
    2000    690.07923   -588.72338    1924.4493    2864.0733    3.4079506 
    2051    690.07923   -721.70036    902.78655    1709.4336    3.3240294 
Loop time of 0.800579 on 1 procs for 51 steps with 744 atoms

99.9% CPU use with 1 MPI tasks x no OpenMP threads

Minimization stats:
  Stopping criterion = linesearch alpha is zero
  Energy initial, next-to-last, final = 
         1335.72594721      181.086191696      181.086191696
  Force two-norm initial, final = 1095.68 59.6612
  Force max component initial, final = 147.058 12.9027
  Final line search alpha, max atom move = 2.5495e-12 3.28953e-11
  Iterations, force evaluations = 51 161

MPI task timing breakdown:
Section |  min time  |  avg time  |  max time  |%varavg| %total
---------------------------------------------------------------
Pair    | 0.26649    | 0.26649    | 0.26649    |   0.0 | 33.29
Bond    | 0.038303   | 0.038303   | 0.038303   |   0.0 |  4.78
Kspace  | 0.49106    | 0.49106    | 0.49106    |   0.0 | 61.34
Neigh   | 0.0027852  | 0.0027852  | 0.0027852  |   0.0 |  0.35
Comm    | 4.7684e-05 | 4.7684e-05 | 4.7684e-05 |   0.0 |  0.01
Output  | 0          | 0          | 0          |   0.0 |  0.00
Modify  | 0          | 0          | 0          |   0.0 |  0.00
Other   |            | 0.001885   |            |       |  0.24

Nlocal:    744 ave 744 max 744 min
Histogram: 1 0 0 0 0 0 0 0 0 0
Nghost:    0 ave 0 max 0 min
Histogram: 1 0 0 0 0 0 0 0 0 0
Neighs:    61065 ave 61065 max 61065 min
Histogram: 1 0 0 0 0 0 0 0 0 0

Total # of neighbors = 61065
Ave neighs/atom = 82.0766
Ave special neighs/atom = 10.922
Neighbor list builds = 2
Dangerous builds = 0
write_dump all custom pysimm.dump.tmp id q x y z vx vy vz
quit


################################################################################
##################################    Init    ##################################
################################################################################
units           real
atom_style      full
pair_style      lj/cut/coul/long 12.0  12.0
kspace_style    pppm 1e-4
bond_style      harmonic
angle_style     harmonic
dihedral_style  fourier
improper_style  cvff
special_bonds   amber
pair_modify     mix arithmetic
read_data       temp.lmps
  orthogonal box = (-134.882 -134.882 -134.882) to (134.882 134.882 134.882)
  1 by 1 by 1 MPI processor grid
  reading atoms ...
  806 atoms
  reading velocities ...
  806 velocities
  scanning bonds ...
  4 = max bonds/atom
  scanning angles ...
  6 = max angles/atom
  scanning dihedrals ...
  21 = max dihedrals/atom
  scanning impropers ...
  1 = max impropers/atom
  reading bonds ...
  831 bonds
  reading angles ...
  1518 angles
  reading dihedrals ...
  2120 dihedrals
  reading impropers ...
  52 impropers
  4 = max # of 1-2 neighbors
  7 = max # of 1-3 neighbors
  18 = max # of 1-4 neighbors
  21 = max # of special neighbors
  special bonds CPU = 0.00116396 secs
  read_data CPU = 0.019439 secs
################################################################################

timestep        1
fix             pysimm_md all nve/limit 0.1
run             2000
PPPM initialization ...
WARNING: System is not charge neutral, net charge = -3.9e-05 (../kspace.cpp:313)
  using 12-bit tables for long-range coulomb (../kspace.cpp:332)
  G vector (1/distance) = 0.100952
  grid = 25 25 25
  stencil order = 5
  estimated absolute RMS force accuracy = 0.0365797
  estimated relative force accuracy = 0.000110159
  using double precision KISS FFT
  3d grid and FFT values/proc = 27000 15625
Neighbor list info ...
  update every 1 steps, delay 10 steps, check yes
  max neighbors/atom: 2000, page size: 100000
  master list distance cutoff = 14
  ghost atom cutoff = 14
  binsize = 7, bins = 39 39 39
  1 neighbor lists, perpetual/occasional/extra = 1 0 0
  (1) pair lj/cut/coul/long, perpetual
      attributes: half, newton on
      pair build: half/bin/newton
      stencil: half/bin/3d/newton
      bin: standard
Per MPI rank memory allocation (min/avg/max) = 19.29 | 19.29 | 19.29 Mbytes
Step Temp E_pair E_mol TotEng Press 
       0    637.09349   -782.18455    85866.975    86613.529   -211.77304 
    2000    637.16953   -731.01759    1999.9779    2797.8818  -0.59983267 
Loop time of 10.2796 on 1 procs for 2000 steps with 806 atoms

Performance: 16.810 ns/day, 1.428 hours/ns, 194.559 timesteps/s
100.1% CPU use with 1 MPI tasks x no OpenMP threads

MPI task timing breakdown:
Section |  min time  |  avg time  |  max time  |%varavg| %total
---------------------------------------------------------------
Pair    | 2.7162     | 2.7162     | 2.7162     |   0.0 | 26.42
Bond    | 0.51478    | 0.51478    | 0.51478    |   0.0 |  5.01
Kspace  | 6.7346     | 6.7346     | 6.7346     |   0.0 | 65.51
Neigh   | 0.28749    | 0.28749    | 0.28749    |   0.0 |  2.80
Comm    | 0.0025101  | 0.0025101  | 0.0025101  |   0.0 |  0.02
Output  | 1.5974e-05 | 1.5974e-05 | 1.5974e-05 |   0.0 |  0.00
Modify  | 0.019802   | 0.019802   | 0.019802   |   0.0 |  0.19
Other   |            | 0.0042     |            |       |  0.04

Nlocal:    806 ave 806 max 806 min
Histogram: 1 0 0 0 0 0 0 0 0 0
Nghost:    0 ave 0 max 0 min
Histogram: 1 0 0 0 0 0 0 0 0 0
Neighs:    76583 ave 76583 max 76583 min
Histogram: 1 0 0 0 0 0 0 0 0 0

Total # of neighbors = 76583
Ave neighs/atom = 95.0161
Ave special neighs/atom = 10.9256
Neighbor list builds = 162
Dangerous builds = 0
unfix pysimm_md
min_style cg
minimize 0.001 0.001 10000 100000
WARNING: Using 'neigh_modify every 1 delay 0 check yes' setting during minimization (../min.cpp:190)
PPPM initialization ...
  using 12-bit tables for long-range coulomb (../kspace.cpp:332)
  G vector (1/distance) = 0.100952
  grid = 25 25 25
  stencil order = 5
  estimated absolute RMS force accuracy = 0.0365797
  estimated relative force accuracy = 0.000110159
  using double precision KISS FFT
  3d grid and FFT values/proc = 27000 15625
Per MPI rank memory allocation (min/avg/max) = 20.41 | 20.41 | 20.41 Mbytes
Step Temp E_pair E_mol TotEng Press 
    2000    637.16953   -731.01759    1999.9779    2797.8818  -0.59983267 
    2047    637.16953   -820.74461    918.10305    1626.2799     3.099799 
Loop time of 1.48061 on 1 procs for 47 steps with 806 atoms

100.1% CPU use with 1 MPI tasks x no OpenMP threads

Minimization stats:
  Stopping criterion = linesearch alpha is zero
  Energy initial, next-to-last, final = 
         1268.96027818      97.3584351099      97.3584351099
  Force two-norm initial, final = 1121.96 55.3639
  Force max component initial, final = 160.614 7.42011
  Final line search alpha, max atom move = 2.63923e-12 1.95833e-11
  Iterations, force evaluations = 47 152

MPI task timing breakdown:
Section |  min time  |  avg time  |  max time  |%varavg| %total
---------------------------------------------------------------
Pair    | 0.57087    | 0.57087    | 0.57087    |   0.0 | 38.56
Bond    | 0.069728   | 0.069728   | 0.069728   |   0.0 |  4.71
Kspace  | 0.83344    | 0.83344    | 0.83344    |   0.0 | 56.29
Neigh   | 0.0029669  | 0.0029669  | 0.0029669  |   0.0 |  0.20
Comm    | 8.2731e-05 | 8.2731e-05 | 8.2731e-05 |   0.0 |  0.01
Output  | 0          | 0          | 0          |   0.0 |  0.00
Modify  | 0          | 0          | 0          |   0.0 |  0.00
Other   |            | 0.003527   |            |       |  0.24

Nlocal:    806 ave 806 max 806 min
Histogram: 1 0 0 0 0 0 0 0 0 0
Nghost:    0 ave 0 max 0 min
Histogram: 1 0 0 0 0 0 0 0 0 0
Neighs:    76930 ave 76930 max 76930 min
Histogram: 1 0 0 0 0 0 0 0 0 0

Total # of neighbors = 76930
Ave neighs/atom = 95.4467
Ave special neighs/atom = 10.9256
Neighbor list builds = 1
Dangerous builds = 0
write_dump all custom pysimm.dump.tmp id q x y z vx vy vz
quit


################################################################################
##################################    Init    ##################################
################################################################################
units           real
atom_style      full
pair_style      lj/cut/coul/long 12.0  12.0
kspace_style    pppm 1e-4
bond_style      harmonic
angle_style     harmonic
dihedral_style  fourier
improper_style  cvff
special_bonds   amber
pair_modify     mix arithmetic
read_data       temp.lmps
  orthogonal box = (-100.744 -100.744 -100.744) to (100.744 100.744 100.744)
  1 by 1 by 1 MPI processor grid
  reading atoms ...
  124 atoms
  reading velocities ...
  124 velocities
  scanning bonds ...
  4 = max bonds/atom
  scanning angles ...
  6 = max angles/atom
  scanning dihedrals ...
  21 = max dihedrals/atom
  scanning impropers ...
  1 = max impropers/atom
  reading bonds ...
  127 bonds
  reading angles ...
  232 angles
  reading dihedrals ...
  316 dihedrals
  reading impropers ...
  8 impropers
  4 = max # of 1-2 neighbors
  7 = max # of 1-3 neighbors
  18 = max # of 1-4 neighbors
  21 = max # of special neighbors
  special bonds CPU = 0.000677109 secs
  read_data CPU = 0.00639009 secs
################################################################################

timestep        1
fix             pysimm_md all nve/limit 0.1
run             2000
PPPM initialization ...
  using 12-bit tables for long-range coulomb (../kspace.cpp:332)
  G vector (1/distance) = 0.0858795
  grid = 15 15 15
  stencil order = 5
  estimated absolute RMS force accuracy = 0.0333463
  estimated relative force accuracy = 0.000100421
  using double precision KISS FFT
  3d grid and FFT values/proc = 8000 3375
Neighbor list info ...
  update every 1 steps, delay 10 steps, check yes
  max neighbors/atom: 2000, page size: 100000
  master list distance cutoff = 14
  ghost atom cutoff = 14
  binsize = 7, bins = 29 29 29
  1 neighbor lists, perpetual/occasional/extra = 1 0 0
  (1) pair lj/cut/coul/long, perpetual
      attributes: half, newton on
      pair build: half/bin/newton
      stencil: half/bin/3d/newton
      bin: standard
Per MPI rank memory allocation (min/avg/max) = 17.27 | 17.27 | 17.27 Mbytes
Step Temp E_pair E_mol TotEng Press 
       0    2.1372681    3293.3629    274.70558    3568.8521    114.89693 
    2000    931.81029   -90.761948    412.16854    663.04518   -2.8826437 
Loop time of 1.63349 on 1 procs for 2000 steps with 124 atoms

Performance: 105.786 ns/day, 0.227 hours/ns, 1224.374 timesteps/s
100.0% CPU use with 1 MPI tasks x no OpenMP threads

MPI task timing breakdown:
Section |  min time  |  avg time  |  max time  |%varavg| %total
---------------------------------------------------------------
Pair    | 0.24312    | 0.24312    | 0.24312    |   0.0 | 14.88
Bond    | 0.071036   | 0.071036   | 0.071036   |   0.0 |  4.35
Kspace  | 1.2963     | 1.2963     | 1.2963     |   0.0 | 79.36
Neigh   | 0.017198   | 0.017198   | 0.017198   |   0.0 |  1.05
Comm    | 0.00071311 | 0.00071311 | 0.00071311 |   0.0 |  0.04
Output  | 1.1921e-05 | 1.1921e-05 | 1.1921e-05 |   0.0 |  0.00
Modify  | 0.0031776  | 0.0031776  | 0.0031776  |   0.0 |  0.19
Other   |            | 0.001888   |            |       |  0.12

Nlocal:    124 ave 124 max 124 min
Histogram: 1 0 0 0 0 0 0 0 0 0
Nghost:    0 ave 0 max 0 min
Histogram: 1 0 0 0 0 0 0 0 0 0
Neighs:    6740 ave 6740 max 6740 min
Histogram: 1 0 0 0 0 0 0 0 0 0

Total # of neighbors = 6740
Ave neighs/atom = 54.3548
Ave special neighs/atom = 10.6935
Neighbor list builds = 105
Dangerous builds = 0
unfix pysimm_md
min_style cg
minimize 0.001 0.001 10000 100000
WARNING: Using 'neigh_modify every 1 delay 0 check yes' setting during minimization (../min.cpp:190)
PPPM initialization ...
  using 12-bit tables for long-range coulomb (../kspace.cpp:332)
  G vector (1/distance) = 0.0858795
  grid = 15 15 15
  stencil order = 5
  estimated absolute RMS force accuracy = 0.0333463
  estimated relative force accuracy = 0.000100421
  using double precision KISS FFT
  3d grid and FFT values/proc = 8000 3375
Per MPI rank memory allocation (min/avg/max) = 18.39 | 18.39 | 18.39 Mbytes
Step Temp E_pair E_mol TotEng Press 
    2000    931.81029   -90.761948    412.16854    663.04518   -2.8826437 
    2024    931.81029   -117.07569    160.47465    385.03754    2.0882821 
Loop time of 0.0933661 on 1 procs for 24 steps with 124 atoms

100.7% CPU use with 1 MPI tasks x no OpenMP threads

Minimization stats:
  Stopping criterion = linesearch alpha is zero
  Energy initial, next-to-last, final = 
         321.406589141      43.3989551629      43.3989551629
  Force two-norm initial, final = 562.522 29.5007
  Force max component initial, final = 143.501 6.02626
  Final line search alpha, max atom move = 1.23544e-11 7.44511e-11
  Iterations, force evaluations = 24 104

MPI task timing breakdown:
Section |  min time  |  avg time  |  max time  |%varavg| %total
---------------------------------------------------------------
Pair    | 0.020882   | 0.020882   | 0.020882   |   0.0 | 22.37
Bond    | 0.0041707  | 0.0041707  | 0.0041707  |   0.0 |  4.47
Kspace  | 0.067983   | 0.067983   | 0.067983   |   0.0 | 72.81
Neigh   | 0          | 0          | 0          |   0.0 |  0.00
Comm    | 1.7881e-05 | 1.7881e-05 | 1.7881e-05 |   0.0 |  0.02
Output  | 0          | 0          | 0          |   0.0 |  0.00
Modify  | 0          | 0          | 0          |   0.0 |  0.00
Other   |            | 0.0003128  |            |       |  0.34

Nlocal:    124 ave 124 max 124 min
Histogram: 1 0 0 0 0 0 0 0 0 0
Nghost:    0 ave 0 max 0 min
Histogram: 1 0 0 0 0 0 0 0 0 0
Neighs:    6722 ave 6722 max 6722 min
Histogram: 1 0 0 0 0 0 0 0 0 0

Total # of neighbors = 6722
Ave neighs/atom = 54.2097
Ave special neighs/atom = 10.6935
Neighbor list builds = 0
Dangerous builds = 0
write_dump all custom pysimm.dump.tmp id q x y z vx vy vz
quit


################################################################################
##################################    Init    ##################################
################################################################################
units           real
atom_style      full
pair_style      lj/cut/coul/long 12.0  12.0
kspace_style    pppm 1e-4
bond_style      harmonic
angle_style     harmonic
dihedral_style  fourier
improper_style  cvff
special_bonds   amber
pair_modify     mix arithmetic
read_data       temp.lmps
  orthogonal box = (-100.744 -100.744 -100.744) to (100.744 100.744 100.744)
  1 by 1 by 1 MPI processor grid
  reading atoms ...
  186 atoms
  reading velocities ...
  186 velocities
  scanning bonds ...
  4 = max bonds/atom
  scanning angles ...
  6 = max angles/atom
  scanning dihedrals ...
  21 = max dihedrals/atom
  scanning impropers ...
  1 = max impropers/atom
  reading bonds ...
  191 bonds
  reading angles ...
  350 angles
  reading dihedrals ...
  480 dihedrals
  reading impropers ...
  12 impropers
  4 = max # of 1-2 neighbors
  7 = max # of 1-3 neighbors
  18 = max # of 1-4 neighbors
  21 = max # of special neighbors
  special bonds CPU = 0.000369072 secs
  read_data CPU = 0.00650311 secs
################################################################################

timestep        1
fix             pysimm_md all nve/limit 0.1
run             2000
PPPM initialization ...
  using 12-bit tables for long-range coulomb (../kspace.cpp:332)
  G vector (1/distance) = 0.0983355
  grid = 18 18 18
  stencil order = 5
  estimated absolute RMS force accuracy = 0.0293455
  estimated relative force accuracy = 8.8373e-05
  using double precision KISS FFT
  3d grid and FFT values/proc = 12167 5832
Neighbor list info ...
  update every 1 steps, delay 10 steps, check yes
  max neighbors/atom: 2000, page size: 100000
  master list distance cutoff = 14
  ghost atom cutoff = 14
  binsize = 7, bins = 29 29 29
  1 neighbor lists, perpetual/occasional/extra = 1 0 0
  (1) pair lj/cut/coul/long, perpetual
      attributes: half, newton on
      pair build: half/bin/newton
[...]
  using double precision KISS FFT
  3d grid and FFT values/proc = 91125 64000
Per MPI rank memory allocation (min/avg/max) = 29.1 | 29.1 | 29.1 Mbytes
Step Temp E_pair E_mol TotEng Press 
    2000    171.58595   -3062.9893    4146.4082    2573.3168  -0.19644916 
    2025    171.58595   -3146.4253    3157.3342    1500.8067   0.57633905 
Loop time of 3.13215 on 1 procs for 25 steps with 2914 atoms

100.0% CPU use with 1 MPI tasks x no OpenMP threads

Minimization stats:
  Stopping criterion = energy tolerance
  Energy initial, next-to-last, final = 
         1083.41888246      10.9092417323      10.9088525779
  Force two-norm initial, final = 1169 87.7556
  Force max component initial, final = 148.695 15.7747
  Final line search alpha, max atom move = 4.83582e-08 7.62837e-07
  Iterations, force evaluations = 25 133

MPI task timing breakdown:
Section |  min time  |  avg time  |  max time  |%varavg| %total
---------------------------------------------------------------
Pair    | 1.2619     | 1.2619     | 1.2619     |   0.0 | 40.29
Bond    | 0.12304    | 0.12304    | 0.12304    |   0.0 |  3.93
Kspace  | 1.7425     | 1.7425     | 1.7425     |   0.0 | 55.63
Neigh   | 0          | 0          | 0          |   0.0 |  0.00
Comm    | 5.3883e-05 | 5.3883e-05 | 5.3883e-05 |   0.0 |  0.00
Output  | 0          | 0          | 0          |   0.0 |  0.00
Modify  | 0          | 0          | 0          |   0.0 |  0.00
Other   |            | 0.004658   |            |       |  0.15

Nlocal:    2914 ave 2914 max 2914 min
Histogram: 1 0 0 0 0 0 0 0 0 0
Nghost:    0 ave 0 max 0 min
Histogram: 1 0 0 0 0 0 0 0 0 0
Neighs:    362163 ave 362163 max 362163 min
Histogram: 1 0 0 0 0 0 0 0 0 0

Total # of neighbors = 362163
Ave neighs/atom = 124.284
Ave special neighs/atom = 10.9561
Neighbor list builds = 0
Dangerous builds = 0
write_dump all custom pysimm.dump.tmp id q x y z vx vy vz
quit


################################################################################
##################################    Init    ##################################
################################################################################
units           real
atom_style      full
pair_style      lj/cut/coul/long 12.0  12.0
kspace_style    pppm 1e-4
bond_style      harmonic
angle_style     harmonic
dihedral_style  fourier
improper_style  cvff
special_bonds   amber
pair_modify     mix arithmetic
read_data       temp.lmps
  orthogonal box = (-212.615 -212.615 -212.615) to (212.615 212.615 212.615)
  1 by 1 by 1 MPI processor grid
  reading atoms ...
  2976 atoms
  reading velocities ...
  2976 velocities
  scanning bonds ...
  4 = max bonds/atom
  scanning angles ...
  6 = max angles/atom
  scanning dihedrals ...
  21 = max dihedrals/atom
  scanning impropers ...
  1 = max impropers/atom
  reading bonds ...
  3071 bonds
  reading angles ...
  5660 angles
  reading dihedrals ...
  7860 dihedrals
  reading impropers ...
  192 impropers
  4 = max # of 1-2 neighbors
  7 = max # of 1-3 neighbors
  18 = max # of 1-4 neighbors
  21 = max # of special neighbors
  special bonds CPU = 0.00446892 secs
  read_data CPU = 0.0633368 secs
################################################################################

timestep        1
fix             pysimm_md all nve/limit 0.1
run             2000
PPPM initialization ...
WARNING: System is not charge neutral, net charge = -0.000144 (../kspace.cpp:313)
  using 12-bit tables for long-range coulomb (../kspace.cpp:332)
  G vector (1/distance) = 0.102028
  grid = 40 40 40
  stencil order = 5
  estimated absolute RMS force accuracy = 0.0344202
  estimated relative force accuracy = 0.000103655
  using double precision KISS FFT
  3d grid and FFT values/proc = 91125 64000
Neighbor list info ...
  update every 1 steps, delay 10 steps, check yes
  max neighbors/atom: 2000, page size: 100000
  master list distance cutoff = 14
  ghost atom cutoff = 14
  binsize = 7, bins = 61 61 61
  1 neighbor lists, perpetual/occasional/extra = 1 0 0
  (1) pair lj/cut/coul/long, perpetual
      attributes: half, newton on
      pair build: half/bin/newton
      stencil: half/bin/3d/newton
      bin: standard
Per MPI rank memory allocation (min/avg/max) = 27.98 | 27.98 | 27.98 Mbytes
Step Temp E_pair E_mol TotEng Press 
       0    168.05422   -3206.1667    61318.288    59602.411   -37.502824 
    2000    166.69572   -3179.5664    4250.3317    2549.0079   0.31635645 
Loop time of 42.5899 on 1 procs for 2000 steps with 2976 atoms

Performance: 4.057 ns/day, 5.915 hours/ns, 46.959 timesteps/s
100.0% CPU use with 1 MPI tasks x no OpenMP threads

MPI task timing breakdown:
Section |  min time  |  avg time  |  max time  |%varavg| %total
---------------------------------------------------------------
Pair    | 12.967     | 12.967     | 12.967     |   0.0 | 30.45
Bond    | 1.7659     | 1.7659     | 1.7659     |   0.0 |  4.15
Kspace  | 26.473     | 26.473     | 26.473     |   0.0 | 62.16
Neigh   | 1.3007     | 1.3007     | 1.3007     |   0.0 |  3.05
Comm    | 0.0070028  | 0.0070028  | 0.0070028  |   0.0 |  0.02
Output  | 2.9087e-05 | 2.9087e-05 | 2.9087e-05 |   0.0 |  0.00
Modify  | 0.064536   | 0.064536   | 0.064536   |   0.0 |  0.15
Other   |            | 0.0118     |            |       |  0.03

Nlocal:    2976 ave 2976 max 2976 min
Histogram: 1 0 0 0 0 0 0 0 0 0
Nghost:    0 ave 0 max 0 min
Histogram: 1 0 0 0 0 0 0 0 0 0
Neighs:    379924 ave 379924 max 379924 min
Histogram: 1 0 0 0 0 0 0 0 0 0

Total # of neighbors = 379924
Ave neighs/atom = 127.663
Ave special neighs/atom = 10.9563
Neighbor list builds = 157
Dangerous builds = 0
unfix pysimm_md
min_style cg
minimize 0.001 0.001 10000 100000
WARNING: Using 'neigh_modify every 1 delay 0 check yes' setting during minimization (../min.cpp:190)
PPPM initialization ...
  using 12-bit tables for long-range coulomb (../kspace.cpp:332)
  G vector (1/distance) = 0.102028
  grid = 40 40 40
  stencil order = 5
  estimated absolute RMS force accuracy = 0.0344202
  estimated relative force accuracy = 0.000103655
  using double precision KISS FFT
  3d grid and FFT values/proc = 91125 64000
Per MPI rank memory allocation (min/avg/max) = 29.1 | 29.1 | 29.1 Mbytes
Step Temp E_pair E_mol TotEng Press 
    2000    166.69572   -3179.5664    4250.3317    2549.0079   0.31635645 
    2051    166.69572   -3283.6952    3141.1667    1335.7142    0.7800291 
Loop time of 6.31472 on 1 procs for 51 steps with 2976 atoms

100.1% CPU use with 1 MPI tasks x no OpenMP threads

Minimization stats:
  Stopping criterion = linesearch alpha is zero
  Energy initial, next-to-last, final = 
         1070.76525568     -142.528438977     -142.528438977
  Force two-norm initial, final = 1175.08 61.9984
  Force max component initial, final = 128.72 10.6621
  Final line search alpha, max atom move = 2.86592e-12 3.05568e-11
  Iterations, force evaluations = 51 261

MPI task timing breakdown:
Section |  min time  |  avg time  |  max time  |%varavg| %total
---------------------------------------------------------------
Pair    | 2.6208     | 2.6208     | 2.6208     |   0.0 | 41.50
Bond    | 0.24469    | 0.24469    | 0.24469    |   0.0 |  3.87
Kspace  | 3.4235     | 3.4235     | 3.4235     |   0.0 | 54.21
Neigh   | 0.016228   | 0.016228   | 0.016228   |   0.0 |  0.26
Comm    | 0.00014639 | 0.00014639 | 0.00014639 |   0.0 |  0.00
Output  | 0          | 0          | 0          |   0.0 |  0.00
Modify  | 0          | 0          | 0          |   0.0 |  0.00
Other   |            | 0.00941    |            |       |  0.15

Nlocal:    2976 ave 2976 max 2976 min
Histogram: 1 0 0 0 0 0 0 0 0 0
Nghost:    0 ave 0 max 0 min
Histogram: 1 0 0 0 0 0 0 0 0 0
Neighs:    379891 ave 379891 max 379891 min
Histogram: 1 0 0 0 0 0 0 0 0 0

Total # of neighbors = 379891
Ave neighs/atom = 127.652
Ave special neighs/atom = 10.9563
Neighbor list builds = 2
Dangerous builds = 0
write_dump all custom pysimm.dump.tmp id q x y z vx vy vz
quit


################################################################################
##################################    Init    ##################################
################################################################################
units           real
atom_style      full
pair_style      lj/cut/coul/long 12.0  12.0
kspace_style    pppm 1e-4
bond_style      harmonic
angle_style     harmonic
dihedral_style  fourier
improper_style  cvff
special_bonds   amber
pair_modify     mix arithmetic
read_data       temp.lmps
  orthogonal box = (-214.112 -214.112 -214.112) to (214.112 214.112 214.112)
  1 by 1 by 1 MPI processor grid
  reading atoms ...
  3038 atoms
  reading velocities ...
  3038 velocities
  scanning bonds ...
  4 = max bonds/atom
  scanning angles ...
  6 = max angles/atom
  scanning dihedrals ...
  21 = max dihedrals/atom
  scanning impropers ...
  1 = max impropers/atom
  reading bonds ...
  3135 bonds
  reading angles ...
  5778 angles
  reading dihedrals ...
  8024 dihedrals
  reading impropers ...
  196 impropers
  4 = max # of 1-2 neighbors
  7 = max # of 1-3 neighbors
  18 = max # of 1-4 neighbors
  21 = max # of special neighbors
  special bonds CPU = 0.00231791 secs
  read_data CPU = 0.0508029 secs
################################################################################

timestep        1
fix             pysimm_md all nve/limit 0.1
run             2000
PPPM initialization ...
WARNING: System is not charge neutral, net charge = -0.000147 (../kspace.cpp:313)
  using 12-bit tables for long-range coulomb (../kspace.cpp:332)
  G vector (1/distance) = 0.101522
  grid = 40 40 40
  stencil order = 5
  estimated absolute RMS force accuracy = 0.0349263
  estimated relative force accuracy = 0.00010518
  using double precision KISS FFT
  3d grid and FFT values/proc = 91125 64000
Neighbor list info ...
  update every 1 steps, delay 10 steps, check yes
  max neighbors/atom: 2000, page size: 100000
  master list distance cutoff = 14
  ghost atom cutoff = 14
  binsize = 7, bins = 62 62 62
  1 neighbor lists, perpetual/occasional/extra = 1 0 0
  (1) pair lj/cut/coul/long, perpetual
      attributes: half, newton on
      pair build: half/bin/newton
      stencil: half/bin/3d/newton
      bin: standard
Per MPI rank memory allocation (min/avg/max) = 28.03 | 28.03 | 28.03 Mbytes
Step Temp E_pair E_mol TotEng Press 
       0    163.33592   -3344.1949    84975.957    83110.397   -50.990415 
    2000    177.16605   -3223.0261    4337.3894    2718.1979 -0.055214379 
Loop time of 42.6727 on 1 procs for 2000 steps with 3038 atoms

Performance: 4.049 ns/day, 5.927 hours/ns, 46.868 timesteps/s
100.1% CPU use with 1 MPI tasks x no OpenMP threads

MPI task timing breakdown:
Section |  min time  |  avg time  |  max time  |%varavg| %total
---------------------------------------------------------------
Pair    | 13.349     | 13.349     | 13.349     |   0.0 | 31.28
Bond    | 1.7606     | 1.7606     | 1.7606     |   0.0 |  4.13
Kspace  | 26.126     | 26.126     | 26.126     |   0.0 | 61.22
Neigh   | 1.3518     | 1.3518     | 1.3518     |   0.0 |  3.17
Comm    | 0.0072949  | 0.0072949  | 0.0072949  |   0.0 |  0.02
Output  | 3.314e-05  | 3.314e-05  | 3.314e-05  |   0.0 |  0.00
Modify  | 0.065569   | 0.065569   | 0.065569   |   0.0 |  0.15
Other   |            | 0.01196    |            |       |  0.03

Nlocal:    3038 ave 3038 max 3038 min
Histogram: 1 0 0 0 0 0 0 0 0 0
Nghost:    0 ave 0 max 0 min
Histogram: 1 0 0 0 0 0 0 0 0 0
Neighs:    391208 ave 391208 max 391208 min
Histogram: 1 0 0 0 0 0 0 0 0 0

Total # of neighbors = 391208
Ave neighs/atom = 128.772
Ave special neighs/atom = 10.9566
Neighbor list builds = 161
Dangerous builds = 0
unfix pysimm_md
min_style cg
minimize 0.001 0.001 10000 100000
WARNING: Using 'neigh_modify every 1 delay 0 check yes' setting during minimization (../min.cpp:190)
PPPM initialization ...
  using 12-bit tables for long-range coulomb (../kspace.cpp:332)
  G vector (1/distance) = 0.101522
  grid = 40 40 40
  stencil order = 5
  estimated absolute RMS force accuracy = 0.0349263
  estimated relative force accuracy = 0.00010518
  using double precision KISS FFT
  3d grid and FFT values/proc = 91125 64000
Per MPI rank memory allocation (min/avg/max) = 29.16 | 29.16 | 29.16 Mbytes
Step Temp E_pair E_mol TotEng Press 
    2000    177.16605   -3223.0261    4337.3894    2718.1979 -0.055214379 
    2049    177.16605   -3354.8253    3237.4929    1486.5023    0.7975433 
Loop time of 2.68468 on 1 procs for 49 steps with 3038 atoms

100.1% CPU use with 1 MPI tasks x no OpenMP threads

Minimization stats:
  Stopping criterion = energy tolerance
  Energy initial, next-to-last, final = 
         1114.36328152     -117.271762136     -117.332368551
  Force two-norm initial, final = 1179.75 60.832
  Force max component initial, final = 140.678 6.94136
  Final line search alpha, max atom move = 0.00338494 0.0234961
  Iterations, force evaluations = 49 108

MPI task timing breakdown:
Section |  min time  |  avg time  |  max time  |%varavg| %total
---------------------------------------------------------------
Pair    | 1.1286     | 1.1286     | 1.1286     |   0.0 | 42.04
Bond    | 0.10467    | 0.10467    | 0.10467    |   0.0 |  3.90
Kspace  | 1.4372     | 1.4372     | 1.4372     |   0.0 | 53.53
Neigh   | 0.0084391  | 0.0084391  | 0.0084391  |   0.0 |  0.31
Comm    | 6.1035e-05 | 6.1035e-05 | 6.1035e-05 |   0.0 |  0.00
Output  | 0          | 0          | 0          |   0.0 |  0.00
Modify  | 0          | 0          | 0          |   0.0 |  0.00
Other   |            | 0.005728   |            |       |  0.21

Nlocal:    3038 ave 3038 max 3038 min
Histogram: 1 0 0 0 0 0 0 0 0 0
Nghost:    0 ave 0 max 0 min
Histogram: 1 0 0 0 0 0 0 0 0 0
Neighs:    391500 ave 391500 max 391500 min
Histogram: 1 0 0 0 0 0 0 0 0 0

Total # of neighbors = 391500
Ave neighs/atom = 128.868
Ave special neighs/atom = 10.9566
Neighbor list builds = 1
Dangerous builds = 0
write_dump all custom pysimm.dump.tmp id q x y z vx vy vz
quit


################################################################################
##################################    Init    ##################################
################################################################################
units           real
atom_style      full
pair_style      lj/cut/coul/long 12.0  12.0
kspace_style    pppm 1e-4
bond_style      harmonic
angle_style     harmonic
dihedral_style  fourier
improper_style  cvff
special_bonds   amber
pair_modify     mix arithmetic
read_data       temp.lmps
  orthogonal box = (-215.589 -215.589 -215.589) to (215.589 215.589 215.589)
  1 by 1 by 1 MPI processor grid
  reading atoms ...
  3100 atoms
  reading velocities ...
  3100 velocities
  scanning bonds ...
  4 = max bonds/atom
  scanning angles ...
  6 = max angles/atom
  scanning dihedrals ...
  21 = max dihedrals/atom
  scanning impropers ...
  1 = max impropers/atom
  reading bonds ...
  3199 bonds
  reading angles ...
  5896 angles
  reading dihedrals ...
  8188 dihedrals
  reading impropers ...
  200 impropers
  4 = max # of 1-2 neighbors
  7 = max # of 1-3 neighbors
  18 = max # of 1-4 neighbors
  21 = max # of special neighbors
  special bonds CPU = 0.0034759 secs
  read_data CPU = 0.050184 secs
################################################################################

timestep        1
fix             pysimm_md all nve/limit 0.1
run             2000
PPPM initialization ...
WARNING: System is not charge neutral, net charge = -0.00015 (../kspace.cpp:313)
  using 12-bit tables for long-range coulomb (../kspace.cpp:332)
  G vector (1/distance) = 0.101027
  grid = 40 40 40
  stencil order = 5
  estimated absolute RMS force accuracy = 0.0354257
  estimated relative force accuracy = 0.000106684
  using double precision KISS FFT
  3d grid and FFT values/proc = 91125 64000
Neighbor list info ...
  update every 1 steps, delay 10 steps, check yes
  max neighbors/atom: 2000, page size: 100000
  master list distance cutoff = 14
  ghost atom cutoff = 14
  binsize = 7, bins = 62 62 62
  1 neighbor lists, perpetual/occasional/extra = 1 0 0
  (1) pair lj/cut/coul/long, perpetual
      attributes: half, newton on
      pair build: half/bin/newton
      stencil: half/bin/3d/newton
      bin: standard
Per MPI rank memory allocation (min/avg/max) = 28.42 | 28.42 | 28.42 Mbytes
Step Temp E_pair E_mol TotEng Press 
       0    173.66397   -3416.8891    100849.88    99037.219   -59.264334 
    2000    188.75221   -3315.9837     4374.041    2801.6616  -0.36613673 
Loop time of 43.2464 on 1 procs for 2000 steps with 3100 atoms

Performance: 3.996 ns/day, 6.006 hours/ns, 46.247 timesteps/s
100.1% CPU use with 1 MPI tasks x no OpenMP threads

MPI task timing breakdown:
Section |  min time  |  avg time  |  max time  |%varavg| %total
---------------------------------------------------------------
Pair    | 13.708     | 13.708     | 13.708     |   0.0 | 31.70
Bond    | 1.8238     | 1.8238     | 1.8238     |   0.0 |  4.22
Kspace  | 26.233     | 26.233     | 26.233     |   0.0 | 60.66
Neigh   | 1.3964     | 1.3964     | 1.3964     |   0.0 |  3.23
Comm    | 0.0074649  | 0.0074649  | 0.0074649  |   0.0 |  0.02
Output  | 3.5048e-05 | 3.5048e-05 | 3.5048e-05 |   0.0 |  0.00
Modify  | 0.066201   | 0.066201   | 0.066201   |   0.0 |  0.15
Other   |            | 0.01209    |            |       |  0.03

Nlocal:    3100 ave 3100 max 3100 min
Histogram: 1 0 0 0 0 0 0 0 0 0
Nghost:    0 ave 0 max 0 min
Histogram: 1 0 0 0 0 0 0 0 0 0
Neighs:    396119 ave 396119 max 396119 min
Histogram: 1 0 0 0 0 0 0 0 0 0

Total # of neighbors = 396119
Ave neighs/atom = 127.78
Ave special neighs/atom = 10.9568
Neighbor list builds = 161
Dangerous builds = 0
unfix pysimm_md
min_style cg
minimize 0.001 0.001 10000 100000
WARNING: Using 'neigh_modify every 1 delay 0 check yes' setting during minimization (../min.cpp:190)
PPPM initialization ...
  using 12-bit tables for long-range coulomb (../kspace.cpp:332)
  G vector (1/distance) = 0.101027
  grid = 40 40 40
  stencil order = 5
  estimated absolute RMS force accuracy = 0.0354257
  estimated relative force accuracy = 0.000106684
  using double precision KISS FFT
  3d grid and FFT values/proc = 91125 64000
Per MPI rank memory allocation (min/avg/max) = 29.55 | 29.55 | 29.55 Mbytes
Step Temp E_pair E_mol TotEng Press 
    2000    188.75221   -3315.9837     4374.041    2801.6616  -0.36613673 
    2025    188.75221   -3443.2019    3340.3539    1640.7563   0.79008236 
Loop time of 2.90524 on 1 procs for 25 steps with 3100 atoms

100.0% CPU use with 1 MPI tasks x no OpenMP threads

Minimization stats:
  Stopping criterion = linesearch alpha is zero
  Energy initial, next-to-last, final = 
         1058.05726396     -102.847995702     -102.847995702
  Force two-norm initial, final = 1159.13 93.83
  Force max component initial, final = 158.087 30.0894
  Final line search alpha, max atom move = 1.28535e-12 3.86755e-11
  Iterations, force evaluations = 25 117

MPI task timing breakdown:
Section |  min time  |  avg time  |  max time  |%varavg| %total
---------------------------------------------------------------
Pair    | 1.2472     | 1.2472     | 1.2472     |   0.0 | 42.93
Bond    | 0.11549    | 0.11549    | 0.11549    |   0.0 |  3.98
Kspace  | 1.5378     | 1.5378     | 1.5378     |   0.0 | 52.93
Neigh   | 0          | 0          | 0          |   0.0 |  0.00
Comm    | 3.4571e-05 | 3.4571e-05 | 3.4571e-05 |   0.0 |  0.00
Output  | 0          | 0          | 0          |   0.0 |  0.00
Modify  | 0          | 0          | 0          |   0.0 |  0.00
Other   |            | 0.004755   |            |       |  0.16

Nlocal:    3100 ave 3100 max 3100 min
Histogram: 1 0 0 0 0 0 0 0 0 0
Nghost:    0 ave 0 max 0 min
Histogram: 1 0 0 0 0 0 0 0 0 0
Neighs:    396081 ave 396081 max 396081 min
Histogram: 1 0 0 0 0 0 0 0 0 0

Total # of neighbors = 396081
Ave neighs/atom = 127.768
Ave special neighs/atom = 10.9568
Neighbor list builds = 0
Dangerous builds = 0
write_dump all custom pysimm.dump.tmp id q x y z vx vy vz
quit
