

################################################################################
##################################    Init    ##################################
################################################################################
units           real
atom_style      full
pair_style      lj/cut/coul/long 12.0  12.0
kspace_style    pppm 1e-4
bond_style      harmonic
angle_style     harmonic
dihedral_style  fourier
improper_style  cvff
special_bonds   amber
pair_modify     mix arithmetic
read_data       temp.lmps
  orthogonal box = (-98.6673 -98.6673 -98.6673) to (98.6673 98.6673 98.6673)
  1 by 1 by 1 MPI processor grid
  reading atoms ...
  664 atoms
  reading velocities ...
  664 velocities
  scanning bonds ...
  4 = max bonds/atom
  scanning angles ...
  6 = max angles/atom
  scanning dihedrals ...
  24 = max dihedrals/atom
  scanning impropers ...
  2 = max impropers/atom
  reading bonds ...
  782 bonds
  reading angles ...
  1620 angles
  reading dihedrals ...
  2998 dihedrals
  reading impropers ...
  80 impropers
  4 = max # of 1-2 neighbors
  9 = max # of 1-3 neighbors
  23 = max # of 1-4 neighbors
  20 = max # of special neighbors
  special bonds CPU = 0.000752926 secs
  read_data CPU = 0.0114498 secs
################################################################################

min_style cg
minimize 1e-06 1e-06 1000000 10000000
WARNING: Using 'neigh_modify every 1 delay 0 check yes' setting during minimization (../min.cpp:190)
PPPM initialization ...
WARNING: System is not charge neutral, net charge = -2e-05 (../kspace.cpp:313)
  using 12-bit tables for long-range coulomb (../kspace.cpp:332)
  G vector (1/distance) = 0.144062
  grid = 32 32 32
  stencil order = 5
  estimated absolute RMS force accuracy = 0.000996289
  estimated relative force accuracy = 3.00029e-06
  using double precision KISS FFT
  3d grid and FFT values/proc = 50653 32768
Neighbor list info ...
  update every 1 steps, delay 0 steps, check yes
  max neighbors/atom: 2000, page size: 100000
  master list distance cutoff = 14
  ghost atom cutoff = 14
  binsize = 7, bins = 29 29 29
  1 neighbor lists, perpetual/occasional/extra = 1 0 0
  (1) pair lj/cut/coul/long, perpetual
      attributes: half, newton on
      pair build: half/bin/newton
      stencil: half/bin/3d/newton
      bin: standard
Per MPI rank memory allocation (min/avg/max) = 23.8 | 23.8 | 23.8 Mbytes
Step Temp E_pair E_mol TotEng Press 
       0    294.23495    144.13816    4702.9977    5428.6256   -1.0125665 
     460    294.23495    122.67002    4318.0943    5022.2541    3.3442398 
Loop time of 9.21709 on 1 procs for 460 steps with 664 atoms

99.6% CPU use with 1 MPI tasks x no OpenMP threads

Minimization stats:
  Stopping criterion = linesearch alpha is zero
  Energy initial, next-to-last, final = 
         4847.13582797      4440.76429152      4440.76429152
  Force two-norm initial, final = 858.725 5.19392
  Force max component initial, final = 299.684 0.685498
  Final line search alpha, max atom move = 2.93857e-10 2.01438e-10
  Iterations, force evaluations = 460 969

MPI task timing breakdown:
Section |  min time  |  avg time  |  max time  |%varavg| %total
---------------------------------------------------------------
Pair    | 1.3909     | 1.3909     | 1.3909     |   0.0 | 15.09
Bond    | 0.38676    | 0.38676    | 0.38676    |   0.0 |  4.20
Kspace  | 7.4051     | 7.4051     | 7.4051     |   0.0 | 80.34
Neigh   | 0.0097861  | 0.0097861  | 0.0097861  |   0.0 |  0.11
Comm    | 0.0008533  | 0.0008533  | 0.0008533  |   0.0 |  0.01
Output  | 0          | 0          | 0          |   0.0 |  0.00
Modify  | 0          | 0          | 0          |   0.0 |  0.00
Other   |            | 0.02368    |            |       |  0.26

Nlocal:    664 ave 664 max 664 min
Histogram: 1 0 0 0 0 0 0 0 0 0
Nghost:    0 ave 0 max 0 min
Histogram: 1 0 0 0 0 0 0 0 0 0
Neighs:    38144 ave 38144 max 38144 min
Histogram: 1 0 0 0 0 0 0 0 0 0

Total # of neighbors = 38144
Ave neighs/atom = 57.4458
Ave special neighs/atom = 13.7711
Neighbor list builds = 7
Dangerous builds = 0
write_dump all custom pysimm.dump.tmp id q x y z vx vy vz
quit


################################################################################
##################################    Init    ##################################
################################################################################
units           real
atom_style      full
pair_style      lj/cut/coul/long 12.0  12.0
kspace_style    pppm 1e-4
bond_style      harmonic
angle_style     harmonic
dihedral_style  fourier
improper_style  cvff
special_bonds   amber
pair_modify     mix arithmetic
read_data       temp.lmps
  orthogonal box = (-124.313 -124.313 -124.313) to (124.313 124.313 124.313)
  1 by 1 by 1 MPI processor grid
  reading atoms ...
  732 atoms
  reading velocities ...
  732 velocities
  scanning bonds ...
  4 = max bonds/atom
  scanning angles ...
  6 = max angles/atom
  scanning dihedrals ...
  24 = max dihedrals/atom
  scanning impropers ...
  2 = max impropers/atom
  reading bonds ...
  861 bonds
  reading angles ...
  1782 angles
  reading dihedrals ...
  3293 dihedrals
  reading impropers ...
  88 impropers
  4 = max # of 1-2 neighbors
  9 = max # of 1-3 neighbors
  23 = max # of 1-4 neighbors
  22 = max # of special neighbors
  special bonds CPU = 0.000844955 secs
  read_data CPU = 0.0116889 secs
################################################################################

min_style cg
minimize 1e-06 1e-06 1000000 10000000
WARNING: Using 'neigh_modify every 1 delay 0 check yes' setting during minimization (../min.cpp:190)
PPPM initialization ...
WARNING: System is not charge neutral, net charge = -2.2e-05 (../kspace.cpp:313)
  using 12-bit tables for long-range coulomb (../kspace.cpp:332)
  G vector (1/distance) = 0.143436
  grid = 40 40 40
  stencil order = 5
  estimated absolute RMS force accuracy = 0.000757774
  estimated relative force accuracy = 2.28201e-06
  using double precision KISS FFT
  3d grid and FFT values/proc = 91125 64000
Neighbor list info ...
  update every 1 steps, delay 0 steps, check yes
  max neighbors/atom: 2000, page size: 100000
  master list distance cutoff = 14
  ghost atom cutoff = 14
  binsize = 7, bins = 36 36 36
  1 neighbor lists, perpetual/occasional/extra = 1 0 0
  (1) pair lj/cut/coul/long, perpetual
      attributes: half, newton on
      pair build: half/bin/newton
      stencil: half/bin/3d/newton
      bin: standard
Per MPI rank memory allocation (min/avg/max) = 28.23 | 28.23 | 28.23 Mbytes
Step Temp E_pair E_mol TotEng Press 
       0    1074.0572    240.58597    5434.5324     8015.459      3.60282 
     800    1074.0572    148.71383    4720.7094    7209.7639    6.9076607 
Loop time of 26.2261 on 1 procs for 800 steps with 732 atoms

99.7% CPU use with 1 MPI tasks x no OpenMP threads

Minimization stats:
  Stopping criterion = energy tolerance
  Energy initial, next-to-last, final = 
         5675.11832915      4869.42735935      4869.42326871
  Force two-norm initial, final = 1399.32 6.12431
  Force max component initial, final = 755.991 0.875393
  Final line search alpha, max atom move = 0.0107553 0.0094151
  Iterations, force evaluations = 800 1597

MPI task timing breakdown:
Section |  min time  |  avg time  |  max time  |%varavg| %total
---------------------------------------------------------------
Pair    | 2.6335     | 2.6335     | 2.6335     |   0.0 | 10.04
Bond    | 0.68079    | 0.68079    | 0.68079    |   0.0 |  2.60
Kspace  | 22.828     | 22.828     | 22.828     |   0.0 | 87.04
Neigh   | 0.038506   | 0.038506   | 0.038506   |   0.0 |  0.15
Comm    | 0.0018175  | 0.0018175  | 0.0018175  |   0.0 |  0.01
Output  | 0          | 0          | 0          |   0.0 |  0.00
Modify  | 0          | 0          | 0          |   0.0 |  0.00
Other   |            | 0.04327    |            |       |  0.16

Nlocal:    732 ave 732 max 732 min
Histogram: 1 0 0 0 0 0 0 0 0 0
Nghost:    0 ave 0 max 0 min
Histogram: 1 0 0 0 0 0 0 0 0 0
Neighs:    44163 ave 44163 max 44163 min
Histogram: 1 0 0 0 0 0 0 0 0 0

Total # of neighbors = 44163
Ave neighs/atom = 60.332
Ave special neighs/atom = 13.7596
Neighbor list builds = 22
Dangerous builds = 0
write_dump all custom pysimm.dump.tmp id q x y z vx vy vz
quit


################################################################################
##################################    Init    ##################################
################################################################################
units           real
atom_style      full
pair_style      lj/cut/coul/long 12.0  12.0
kspace_style    pppm 1e-4
bond_style      harmonic
angle_style     harmonic
dihedral_style  fourier
improper_style  cvff
special_bonds   amber
pair_modify     mix arithmetic
read_data       temp.lmps
  orthogonal box = (-128.326 -128.326 -128.326) to (128.326 128.326 128.326)
  1 by 1 by 1 MPI processor grid
  reading atoms ...
  800 atoms
  reading velocities ...
  800 velocities
  scanning bonds ...
  4 = max bonds/atom
  scanning angles ...
  6 = max angles/atom
  scanning dihedrals ...
  24 = max dihedrals/atom
  scanning impropers ...
  2 = max impropers/atom
  reading bonds ...
  940 bonds
  reading angles ...
  1944 angles
  reading dihedrals ...
  3588 dihedrals
  reading impropers ...
  96 impropers
  4 = max # of 1-2 neighbors
  9 = max # of 1-3 neighbors
  23 = max # of 1-4 neighbors
  22 = max # of special neighbors
  special bonds CPU = 0.000808954 secs
  read_data CPU = 0.0130239 secs
################################################################################

min_style cg
minimize 1e-06 1e-06 1000000 10000000
WARNING: Using 'neigh_modify every 1 delay 0 check yes' setting during minimization (../min.cpp:190)
PPPM initialization ...
WARNING: System is not charge neutral, net charge = -2.4e-05 (../kspace.cpp:313)
  using 12-bit tables for long-range coulomb (../kspace.cpp:332)
  G vector (1/distance) = 0.14095
  grid = 40 40 40
  stencil order = 5
  estimated absolute RMS force accuracy = 0.000837402
  estimated relative force accuracy = 2.52181e-06
  using double precision KISS FFT
  3d grid and FFT values/proc = 91125 64000
Neighbor list info ...
  update every 1 steps, delay 0 steps, check yes
  max neighbors/atom: 2000, page size: 100000
  master list distance cutoff = 14
  ghost atom cutoff = 14
  binsize = 7, bins = 37 37 37
  1 neighbor lists, perpetual/occasional/extra = 1 0 0
  (1) pair lj/cut/coul/long, perpetual
      attributes: half, newton on
      pair build: half/bin/newton
      stencil: half/bin/3d/newton
      bin: standard
Per MPI rank memory allocation (min/avg/max) = 28.26 | 28.26 | 28.26 Mbytes
Step Temp E_pair E_mol TotEng Press 
       0    1089.5864    190.79763     6107.546    8893.3758    1.0261154 
    1826    1089.5864    154.37619    5066.0932    7815.5015     6.959144 
Loop time of 61.3038 on 1 procs for 1826 steps with 800 atoms

99.7% CPU use with 1 MPI tasks x no OpenMP threads

Minimization stats:
  Stopping criterion = energy tolerance
  Energy initial, next-to-last, final = 
         6298.34362249      5220.47318784      5220.46936813
  Force two-norm initial, final = 1207.12 6.41936
  Force max component initial, final = 307.208 1.01952
  Final line search alpha, max atom move = 0.0105265 0.010732
  Iterations, force evaluations = 1826 3647

MPI task timing breakdown:
Section |  min time  |  avg time  |  max time  |%varavg| %total
---------------------------------------------------------------
Pair    | 6.8696     | 6.8696     | 6.8696     |   0.0 | 11.21
Bond    | 1.7058     | 1.7058     | 1.7058     |   0.0 |  2.78
Kspace  | 52.513     | 52.513     | 52.513     |   0.0 | 85.66
Neigh   | 0.10286    | 0.10286    | 0.10286    |   0.0 |  0.17
Comm    | 0.0046062  | 0.0046062  | 0.0046062  |   0.0 |  0.01
Output  | 0          | 0          | 0          |   0.0 |  0.00
Modify  | 0          | 0          | 0          |   0.0 |  0.00
Other   |            | 0.108      |            |       |  0.18

Nlocal:    800 ave 800 max 800 min
Histogram: 1 0 0 0 0 0 0 0 0 0
Nghost:    0 ave 0 max 0 min
Histogram: 1 0 0 0 0 0 0 0 0 0
Neighs:    49312 ave 49312 max 49312 min
Histogram: 1 0 0 0 0 0 0 0 0 0

Total # of neighbors = 49312
Ave neighs/atom = 61.64
Ave special neighs/atom = 13.75
Neighbor list builds = 56
Dangerous builds = 0
write_dump all custom pysimm.dump.tmp id q x y z vx vy vz
quit


################################################################################
##################################    Init    ##################################
################################################################################
units           real
atom_style      full
pair_style      lj/cut/coul/long 12.0  12.0
kspace_style    pppm 1e-4
bond_style      harmonic
angle_style     harmonic
dihedral_style  fourier
improper_style  cvff
special_bonds   amber
pair_modify     mix arithmetic
read_data       temp.lmps
  orthogonal box = (-132.102 -132.102 -132.102) to (132.102 132.102 132.102)
  1 by 1 by 1 MPI processor grid
  reading atoms ...
  868 atoms
  reading velocities ...
  868 velocities
  scanning bonds ...
  4 = max bonds/atom
  scanning angles ...
  6 = max angles/atom
  scanning dihedrals ...
  24 = max dihedrals/atom
  scanning impropers ...
  2 = max impropers/atom
  reading bonds ...
  1019 bonds
  reading angles ...
  2106 angles
  reading dihedrals ...
  3883 dihedrals
  reading impropers ...
  104 impropers
  4 = max # of 1-2 neighbors
  9 = max # of 1-3 neighbors
  23 = max # of 1-4 neighbors
  22 = max # of special neighbors
  special bonds CPU = 0.000905991 secs
  read_data CPU = 0.013603 secs
################################################################################

min_style cg
minimize 1e-06 1e-06 1000000 10000000
WARNING: Using 'neigh_modify every 1 delay 0 check yes' setting during minimization (../min.cpp:190)
PPPM initialization ...
WARNING: System is not charge neutral, net charge = -2.6e-05 (../kspace.cpp:313)
  using 12-bit tables for long-range coulomb (../kspace.cpp:332)
  G vector (1/distance) = 0.147988
  grid = 45 45 45
  stencil order = 5
  estimated absolute RMS force accuracy = 0.000619222
  estimated relative force accuracy = 1.86477e-06
  using double precision KISS FFT
  3d grid and FFT values/proc = 125000 91125
Neighbor list info ...
  update every 1 steps, delay 0 steps, check yes
  max neighbors/atom: 2000, page size: 100000
  master list distance cutoff = 14
  ghost atom cutoff = 14
  binsize = 7, bins = 38 38 38
  1 neighbor lists, perpetual/occasional/extra = 1 0 0
  (1) pair lj/cut/coul/long, perpetual
      attributes: half, newton on
      pair build: half/bin/newton
      stencil: half/bin/3d/newton
      bin: standard
Per MPI rank memory allocation (min/avg/max) = 31.87 | 31.87 | 31.87 Mbytes
Step Temp E_pair E_mol TotEng Press 
       0    1044.3553    1506.3589    6518.6966    10724.048    20.221631 
     789    1044.3553     173.2564    5430.6879    8302.9367     6.617962 
Loop time of 35.8232 on 1 procs for 789 steps with 868 atoms

99.7% CPU use with 1 MPI tasks x no OpenMP threads

Minimization stats:
  Stopping criterion = energy tolerance
  Energy initial, next-to-last, final = 
         8025.05545045      5603.94942074      5603.94425632
  Force two-norm initial, final = 16710.4 5.75034
  Force max component initial, final = 11088.8 0.648052
  Final line search alpha, max atom move = 0.0156115 0.0101171
  Iterations, force evaluations = 789 1574

MPI task timing breakdown:
Section |  min time  |  avg time  |  max time  |%varavg| %total
---------------------------------------------------------------
Pair    | 3.0108     | 3.0108     | 3.0108     |   0.0 |  8.40
Bond    | 0.79369    | 0.79369    | 0.79369    |   0.0 |  2.22
Kspace  | 31.924     | 31.924     | 31.924     |   0.0 | 89.12
Neigh   | 0.04233    | 0.04233    | 0.04233    |   0.0 |  0.12
Comm    | 0.0019295  | 0.0019295  | 0.0019295  |   0.0 |  0.01
Output  | 0          | 0          | 0          |   0.0 |  0.00
Modify  | 0          | 0          | 0          |   0.0 |  0.00
Other   |            | 0.05       |            |       |  0.14

Nlocal:    868 ave 868 max 868 min
Histogram: 1 0 0 0 0 0 0 0 0 0
Nghost:    0 ave 0 max 0 min
Histogram: 1 0 0 0 0 0 0 0 0 0
Neighs:    50523 ave 50523 max 50523 min
Histogram: 1 0 0 0 0 0 0 0 0 0

Total # of neighbors = 50523
Ave neighs/atom = 58.2062
Ave special neighs/atom = 13.7419
Neighbor list builds = 23
Dangerous builds = 0
write_dump all custom pysimm.dump.tmp id q x y z vx vy vz
quit


################################################################################
##################################    Init    ##################################
################################################################################
units           real
atom_style      full
pair_style      lj/cut/coul/long 12.0  12.0
kspace_style    pppm 1e-4
bond_style      harmonic
angle_style     harmonic
dihedral_style  fourier
improper_style  cvff
special_bonds   amber
pair_modify     mix arithmetic
read_data       temp.lmps
  orthogonal box = (-135.674 -135.674 -135.674) to (135.674 135.674 135.674)
  1 by 1 by 1 MPI processor grid
  reading atoms ...
  936 atoms
  reading velocities ...
  936 velocities
  scanning bonds ...
  4 = max bonds/atom
  scanning angles ...
  6 = max angles/atom
  scanning dihedrals ...
  24 = max dihedrals/atom
  scanning impropers ...
  2 = max impropers/atom
  reading bonds ...
  1098 bonds
  reading angles ...
  2268 angles
  reading dihedrals ...
  4178 dihedrals
  reading impropers ...
  112 impropers
  4 = max # of 1-2 neighbors
  9 = max # of 1-3 neighbors
  23 = max # of 1-4 neighbors
  22 = max # of special neighbors
  special bonds CPU = 0.000962019 secs
  read_data CPU = 0.013427 secs
################################################################################

min_style cg
minimize 1e-06 1e-06 1000000 10000000
WARNING: Using 'neigh_modify every 1 delay 0 check yes' setting during minimization (../min.cpp:190)
PPPM initialization ...
WARNING: System is not charge neutral, net charge = -2.8e-05 (../kspace.cpp:313)
  using 12-bit tables for long-range coulomb (../kspace.cpp:332)
  G vector (1/distance) = 0.145849
  grid = 45 45 45
  stencil order = 5
  estimated absolute RMS force accuracy = 0.000675684
  estimated relative force accuracy = 2.0348e-06
  using double precision KISS FFT
  3d grid and FFT values/proc = 125000 91125
Neighbor list info ...
  update every 1 steps, delay 0 steps, check yes
  max neighbors/atom: 2000, page size: 100000
  master list distance cutoff = 14
  ghost atom cutoff = 14
  binsize = 7, bins = 39 39 39
  1 neighbor lists, perpetual/occasional/extra = 1 0 0
  (1) pair lj/cut/coul/long, perpetual
      attributes: half, newton on
      pair build: half/bin/newton
      stencil: half/bin/3d/newton
      bin: standard
Per MPI rank memory allocation (min/avg/max) = 31.9 | 31.9 | 31.9 Mbytes
Step Temp E_pair E_mol TotEng Press 
       0    1034.7487    483.96943    7211.5782    10579.452    3.5741936 
     884    1034.7487     171.4414    5826.7435    8882.0888    6.5078867 
Loop time of 42.0904 on 1 procs for 884 steps with 936 atoms

99.7% CPU use with 1 MPI tasks x no OpenMP threads

Minimization stats:
  Stopping criterion = energy tolerance
  Energy initial, next-to-last, final = 
          7695.5476354      5998.18591218      5998.18492712
  Force two-norm initial, final = 2769.37 7.87781
  Force max component initial, final = 1567.51 1.19433
  Final line search alpha, max atom move = 2.33817e-06 2.79255e-06
  Iterations, force evaluations = 884 1788

MPI task timing breakdown:
Section |  min time  |  avg time  |  max time  |%varavg| %total
---------------------------------------------------------------
Pair    | 4.6189     | 4.6189     | 4.6189     |   0.0 | 10.97
Bond    | 0.96633    | 0.96633    | 0.96633    |   0.0 |  2.30
Kspace  | 36.366     | 36.366     | 36.366     |   0.0 | 86.40
Neigh   | 0.077248   | 0.077248   | 0.077248   |   0.0 |  0.18
Comm    | 0.0024688  | 0.0024688  | 0.0024688  |   0.0 |  0.01
Output  | 0          | 0          | 0          |   0.0 |  0.00
Modify  | 0          | 0          | 0          |   0.0 |  0.00
Other   |            | 0.05989    |            |       |  0.14

Nlocal:    936 ave 936 max 936 min
Histogram: 1 0 0 0 0 0 0 0 0 0
Nghost:    0 ave 0 max 0 min
Histogram: 1 0 0 0 0 0 0 0 0 0
Neighs:    71158 ave 71158 max 71158 min
Histogram: 1 0 0 0 0 0 0 0 0 0

Total # of neighbors = 71158
Ave neighs/atom = 76.0235
Ave special neighs/atom = 13.735
Neighbor list builds = 31
Dangerous builds = 0
write_dump all custom pysimm.dump.tmp id q x y z vx vy vz
quit


################################################################################
##################################    Init    ##################################
################################################################################
units           real
atom_style      full
pair_style      lj/cut/coul/long 12.0  12.0
kspace_style    pppm 1e-4
bond_style      harmonic
angle_style     harmonic
dihedral_style  fourier
improper_style  cvff
special_bonds   amber
pair_modify     mix arithmetic
read_data       temp.lmps
  orthogonal box = (-139.068 -139.068 -139.068) to (139.068 139.068 139.068)
  1 by 1 by 1 MPI processor grid
  reading atoms ...
  1004 atoms
  reading velocities ...
  1004 velocities
  scanning bonds ...
  4 = max bonds/atom
  scanning angles ...
  6 = max angles/atom
  scanning dihedrals ...
  24 = max dihedrals/atom
  scanning impropers ...
  2 = max impropers/atom
  reading bonds ...
  1177 bonds
  reading angles ...
  2430 angles
  reading dihedrals ...
  4473 dihedrals
  reading impropers ...
  120 impropers
  4 = max # of 1-2 neighbors
  9 = max # of 1-3 neighbors
  23 = max # of 1-4 neighbors
  22 = max # of special neighbors
  special bonds CPU = 0.00101709 secs
  read_data CPU = 0.0140851 secs
################################################################################

min_style cg
minimize 1e-06 1e-06 1000000 10000000
WARNING: Using 'neigh_modify every 1 delay 0 check yes' setting during minimization (../min.cpp:190)
PPPM initialization ...
WARNING: System is not charge neutral, net charge = -3e-05 (../kspace.cpp:313)
  using 12-bit tables for long-range coulomb (../kspace.cpp:332)
  G vector (1/distance) = 0.143881
  grid = 45 45 45
  stencil order = 5
  estimated absolute RMS force accuracy = 0.000731848
  estimated relative force accuracy = 2.20394e-06
  using double precision KISS FFT
  3d grid and FFT values/proc = 125000 91125
Neighbor list info ...
  update every 1 steps, delay 0 steps, check yes
  max neighbors/atom: 2000, page size: 100000
  master list distance cutoff = 14
  ghost atom cutoff = 14
  binsize = 7, bins = 40 40 40
  1 neighbor lists, perpetual/occasional/extra = 1 0 0
  (1) pair lj/cut/coul/long, perpetual
      attributes: half, newton on
      pair build: half/bin/newton
      stencil: half/bin/3d/newton
      bin: standard
Per MPI rank memory allocation (min/avg/max) = 31.94 | 31.94 | 31.94 Mbytes
Step Temp E_pair E_mol TotEng Press 
       0    1213.5855     1648.788    7594.0909    12871.199    18.130069 
    1649    1213.5855    175.21584    6172.6848    9976.2209     7.554444 
Loop time of 77.8842 on 1 procs for 1649 steps with 1004 atoms

99.7% CPU use with 1 MPI tasks x no OpenMP threads

Minimization stats:
  Stopping criterion = energy tolerance
  Energy initial, next-to-last, final = 
         9242.87891363      6347.90292496      6347.90067665
  Force two-norm initial, final = 12457.8 8.06828
  Force max component initial, final = 6976.37 1.48478
  Final line search alpha, max atom move = 0.00790732 0.0117407
  Iterations, force evaluations = 1649 3294

MPI task timing breakdown:
Section |  min time  |  avg time  |  max time  |%varavg| %total
---------------------------------------------------------------
Pair    | 8.643      | 8.643      | 8.643      |   0.0 | 11.10
Bond    | 1.9078     | 1.9078     | 1.9078     |   0.0 |  2.45
Kspace  | 67.106     | 67.106     | 67.106     |   0.0 | 86.16
Neigh   | 0.10694    | 0.10694    | 0.10694    |   0.0 |  0.14
Comm    | 0.0043645  | 0.0043645  | 0.0043645  |   0.0 |  0.01
Output  | 0          | 0          | 0          |   0.0 |  0.00
Modify  | 0          | 0          | 0          |   0.0 |  0.00
Other   |            | 0.1165     |            |       |  0.15

Nlocal:    1004 ave 1004 max 1004 min
Histogram: 1 0 0 0 0 0 0 0 0 0
Nghost:    0 ave 0 max 0 min
Histogram: 1 0 0 0 0 0 0 0 0 0
Neighs:    83305 ave 83305 max 83305 min
Histogram: 1 0 0 0 0 0 0 0 0 0

Total # of neighbors = 83305
Ave neighs/atom = 82.9731
Ave special neighs/atom = 13.7291
Neighbor list builds = 41
Dangerous builds = 0
write_dump all custom pysimm.dump.tmp id q x y z vx vy vz
quit


################################################################################
##################################    Init    ##################################
################################################################################
units           real
atom_style      full
pair_style      lj/cut/coul/long 12.0  12.0
kspace_style    pppm 1e-4
bond_style      harmonic
angle_style     harmonic
dihedral_style  fourier
improper_style  cvff
special_bonds   amber
pair_modify     mix arithmetic
read_data       temp.lmps
  orthogonal box = (-142.303 -142.303 -142.303) to (142.303 142.303 142.303)
  1 by 1 by 1 MPI processor grid
  reading atoms ...
  1072 atoms
  reading velocities ...
  1072 velocities
  scanning bonds ...
  4 = max bonds/atom
  scanning angles ...
  6 = max angles/atom
  scanning dihedrals ...
  24 = max dihedrals/atom
  scanning impropers ...
  2 = max impropers/atom
  reading bonds ...
  1256 bonds
  reading angles ...
  2592 angles
  reading dihedrals ...
  4768 dihedrals
  reading impropers ...
  128 impropers
  4 = max # of 1-2 neighbors
  9 = max # of 1-3 neighbors
  23 = max # of 1-4 neighbors
  22 = max # of special neighbors
  special bonds CPU = 0.000983953 secs
  read_data CPU = 0.0151999 secs
################################################################################

min_style cg
minimize 1e-06 1e-06 1000000 10000000
WARNING: Using 'neigh_modify every 1 delay 0 check yes' setting during minimization (../min.cpp:190)
PPPM initialization ...
WARNING: System is not charge neutral, net charge = -3.2e-05 (../kspace.cpp:313)
  using 12-bit tables for long-range coulomb (../kspace.cpp:332)
  G vector (1/distance) = 0.142069
  grid = 45 45 45
  stencil order = 5
  estimated absolute RMS force accuracy = 0.000787745
  estimated relative force accuracy = 2.37227e-06
  using double precision KISS FFT
  3d grid and FFT values/proc = 125000 91125
Neighbor list info ...
  update every 1 steps, delay 0 steps, check yes
  max neighbors/atom: 2000, page size: 100000
  master list distance cutoff = 14
  ghost atom cutoff = 14
  binsize = 7, bins = 41 41 41
  1 neighbor lists, perpetual/occasional/extra = 1 0 0
  (1) pair lj/cut/coul/long, perpetual
      attributes: half, newton on
      pair build: half/bin/newton
      stencil: half/bin/3d/newton
      bin: standard
Per MPI rank memory allocation (min/avg/max) = 31.97 | 31.97 | 31.97 Mbytes
Step Temp E_pair E_mol TotEng Press 
       0    913.40841     838.1021     8124.793    11878.904    5.3647638 
     833    913.40841    203.58972    6558.1569    9677.7551    5.8222366 
Loop time of 42.1012 on 1 procs for 833 steps with 1072 atoms

99.7% CPU use with 1 MPI tasks x no OpenMP threads

Minimization stats:
  Stopping criterion = linesearch alpha is zero
  Energy initial, next-to-last, final = 
         8962.89513434      6761.74662557      6761.74662557
  Force two-norm initial, final = 7037.4 9.78116
  Force max component initial, final = 3590.6 1.2328
  Final line search alpha, max atom move = 6.79972e-11 8.3827e-11
  Iterations, force evaluations = 833 1715

MPI task timing breakdown:
Section |  min time  |  avg time  |  max time  |%varavg| %total
---------------------------------------------------------------
Pair    | 4.8865     | 4.8865     | 4.8865     |   0.0 | 11.61
Bond    | 1.0788     | 1.0788     | 1.0788     |   0.0 |  2.56
Kspace  | 35.991     | 35.991     | 35.991     |   0.0 | 85.49
Neigh   | 0.077427   | 0.077427   | 0.077427   |   0.0 |  0.18
Comm    | 0.0026965  | 0.0026965  | 0.0026965  |   0.0 |  0.01
Output  | 0          | 0          | 0          |   0.0 |  0.00
Modify  | 0          | 0          | 0          |   0.0 |  0.00
Other   |            | 0.06481    |            |       |  0.15

Nlocal:    1072 ave 1072 max 1072 min
Histogram: 1 0 0 0 0 0 0 0 0 0
Nghost:    0 ave 0 max 0 min
Histogram: 1 0 0 0 0 0 0 0 0 0
Neighs:    86537 ave 86537 max 86537 min
Histogram: 1 0 0 0 0 0 0 0 0 0

Total # of neighbors = 86537
Ave neighs/atom = 80.7248
Ave special neighs/atom = 13.7239
Neighbor list builds = 26
Dangerous builds = 0
write_dump all custom pysimm.dump.tmp id q x y z vx vy vz
quit


################################################################################
##################################    Init    ##################################
################################################################################
units           real
atom_style      full
pair_style      lj/cut/coul/long 12.0  12.0
kspace_style    pppm 1e-4
bond_style      harmonic
angle_style     harmonic
dihedral_style  fourier
improper_style  cvff
special_bonds   amber
pair_modify     mix arithmetic
read_data       temp.lmps
  orthogonal box = (-145.397 -145.397 -145.397) to (145.397 145.397 145.397)
  1 by 1 by 1 MPI processor grid
  reading atoms ...
  1140 atoms
  reading velocities ...
  1140 velocities
  scanning bonds ...
  4 = max bonds/atom
  scanning angles ...
  6 = max angles/atom
  scanning dihedrals ...
  24 = max dihedrals/atom
  scanning impropers ...
  2 = max impropers/atom
  reading bonds ...
  1335 bonds
  reading angles ...
  2754 angles
  reading dihedrals ...
  5063 dihedrals
  reading impropers ...
  136 impropers
  4 = max # of 1-2 neighbors
  9 = max # of 1-3 neighbors
  23 = max # of 1-4 neighbors
  22 = max # of special neighbors
  special bonds CPU = 0.00110292 secs
  read_data CPU = 0.016047 secs
################################################################################

min_style cg
minimize 1e-06 1e-06 1000000 10000000
WARNING: Using 'neigh_modify every 1 delay 0 check yes' setting during minimization (../min.cpp:190)
PPPM initialization ...
WARNING: System is not charge neutral, net charge = -3.4e-05 (../kspace.cpp:313)
  using 12-bit tables for long-range coulomb (../kspace.cpp:332)
  G vector (1/distance) = 0.145475
  grid = 48 48 48
  stencil order = 5
  estimated absolute RMS force accuracy = 0.000680797
  estimated relative force accuracy = 2.0502e-06
  using double precision KISS FFT
  3d grid and FFT values/proc = 148877 110592
Neighbor list info ...
  update every 1 steps, delay 0 steps, check yes
  max neighbors/atom: 2000, page size: 100000
  master list distance cutoff = 14
  ghost atom cutoff = 14
  binsize = 7, bins = 42 42 42
  1 neighbor lists, perpetual/occasional/extra = 1 0 0
  (1) pair lj/cut/coul/long, perpetual
      attributes: half, newton on
      pair build: half/bin/newton
      stencil: half/bin/3d/newton
      bin: standard
Per MPI rank memory allocation (min/avg/max) = 34.94 | 34.94 | 34.94 Mbytes
Step Temp E_pair E_mol TotEng Press 
       0    833.73617    826.62909     8531.425    12188.707     4.702803 
     806    833.73617    185.31174    6938.9229    9954.8879    5.2196499 
Loop time of 48.6214 on 1 procs for 806 steps with 1140 atoms

99.7% CPU use with 1 MPI tasks x no OpenMP threads

Minimization stats:
  Stopping criterion = energy tolerance
  Energy initial, next-to-last, final = 
         9358.05404737      7124.23605997      7124.23465951
  Force two-norm initial, final = 7112.05 11.2154
  Force max component initial, final = 4679.98 1.15954
  Final line search alpha, max atom move = 0.00770155 0.00893026
  Iterations, force evaluations = 806 1608

MPI task timing breakdown:
Section |  min time  |  avg time  |  max time  |%varavg| %total
---------------------------------------------------------------
Pair    | 5.7439     | 5.7439     | 5.7439     |   0.0 | 11.81
Bond    | 1.0713     | 1.0713     | 1.0713     |   0.0 |  2.20
Kspace  | 41.667     | 41.667     | 41.667     |   0.0 | 85.70
Neigh   | 0.072205   | 0.072205   | 0.072205   |   0.0 |  0.15
Comm    | 0.002223   | 0.002223   | 0.002223   |   0.0 |  0.00
Output  | 0          | 0          | 0          |   0.0 |  0.00
Modify  | 0          | 0          | 0          |   0.0 |  0.00
Other   |            | 0.06464    |            |       |  0.13

Nlocal:    1140 ave 1140 max 1140 min
Histogram: 1 0 0 0 0 0 0 0 0 0
Nghost:    0 ave 0 max 0 min
Histogram: 1 0 0 0 0 0 0 0 0 0
Neighs:    112054 ave 112054 max 112054 min
Histogram: 1 0 0 0 0 0 0 0 0 0

Total # of neighbors = 112054
Ave neighs/atom = 98.293
Ave special neighs/atom = 13.7193
Neighbor list builds = 21
Dangerous builds = 0
write_dump all custom pysimm.dump.tmp id q x y z vx vy vz
quit


################################################################################
##################################    Init    ##################################
################################################################################
units           real
atom_style      full
pair_style      lj/cut/coul/long 12.0  12.0
kspace_style    pppm 1e-4
bond_style      harmonic
angle_style     harmonic
dihedral_style  fourier
improper_style  cvff
special_bonds   amber
pair_modify     mix arithmetic
read_data       temp.lmps
  orthogonal box = (-148.365 -148.365 -148.365) to (148.365 148.365 148.365)
  1 by 1 by 1 MPI processor grid
  reading atoms ...
  1208 atoms
  reading velocities ...
  1208 velocities
  scanning bonds ...
  4 = max bonds/atom
  scanning angles ...
  6 = max angles/atom
  scanning dihedrals ...
  24 = max dihedrals/atom
  scanning impropers ...
  2 = max impropers/atom
  reading bonds ...
  1414 bonds
  reading angles ...
  2916 angles
  reading dihedrals ...
  5358 dihedrals
  reading impropers ...
  144 impropers
  4 = max # of 1-2 neighbors
  9 = max # of 1-3 neighbors
  23 = max # of 1-4 neighbors
  22 = max # of special neighbors
  special bonds CPU = 0.0011611 secs
  read_data CPU = 0.016252 secs
################################################################################

min_style cg
minimize 1e-06 1e-06 1000000 10000000
WARNING: Using 'neigh_modify every 1 delay 0 check yes' setting during minimization (../min.cpp:190)
PPPM initialization ...
WARNING: System is not charge neutral, net charge = -3.6e-05 (../kspace.cpp:313)
  using 12-bit tables for long-range coulomb (../kspace.cpp:332)
  G vector (1/distance) = 0.143867
  grid = 48 48 48
  stencil order = 5
  estimated absolute RMS force accuracy = 0.000727003
  estimated relative force accuracy = 2.18935e-06
  using double precision KISS FFT
  3d grid and FFT values/proc = 148877 110592
Neighbor list info ...
  update every 1 steps, delay 0 steps, check yes
  max neighbors/atom: 2000, page size: 100000
  master list distance cutoff = 14
  ghost atom cutoff = 14
  binsize = 7, bins = 43 43 43
  1 neighbor lists, perpetual/occasional/extra = 1 0 0
  (1) pair lj/cut/coul/long, perpetual
      attributes: half, newton on
      pair build: half/bin/newton
      stencil: half/bin/3d/newton
      bin: standard
Per MPI rank memory allocation (min/avg/max) = 34.98 | 34.98 | 34.98 Mbytes
Step Temp E_pair E_mol TotEng Press 
       0    1020.9617    308.05778     9293.371    13274.683   -1.0153133 
    1241    1020.9617    209.27262    7298.9363    11181.463    6.2646802 
Loop time of 77.6375 on 1 procs for 1241 steps with 1208 atoms

99.7% CPU use with 1 MPI tasks x no OpenMP threads

Minimization stats:
  Stopping criterion = linesearch alpha is zero
  Energy initial, next-to-last, final = 
         9601.42881686      7508.20891302      7508.20891302
  Force two-norm initial, final = 1926.53 9.22277
  Force max component initial, final = 349.925 2.03139
  Final line search alpha, max atom move = 1.25202e-10 2.54333e-10
  Iterations, force evaluations = 1241 2530

MPI task timing breakdown:
Section |  min time  |  avg time  |  max time  |%varavg| %total
---------------------------------------------------------------
Pair    | 9.4456     | 9.4456     | 9.4456     |   0.0 | 12.17
Bond    | 1.7872     | 1.7872     | 1.7872     |   0.0 |  2.30
Kspace  | 66.151     | 66.151     | 66.151     |   0.0 | 85.20
Neigh   | 0.14555    | 0.14555    | 0.14555    |   0.0 |  0.19
Comm    | 0.0039184  | 0.0039184  | 0.0039184  |   0.0 |  0.01
Output  | 0          | 0          | 0          |   0.0 |  0.00
Modify  | 0          | 0          | 0          |   0.0 |  0.00
Other   |            | 0.1044     |            |       |  0.13

Nlocal:    1208 ave 1208 max 1208 min
Histogram: 1 0 0 0 0 0 0 0 0 0
Nghost:    0 ave 0 max 0 min
Histogram: 1 0 0 0 0 0 0 0 0 0
Neighs:    111397 ave 111397 max 111397 min
Histogram: 1 0 0 0 0 0 0 0 0 0

Total # of neighbors = 111397
Ave neighs/atom = 92.2161
Ave special neighs/atom = 13.7152
Neighbor list builds = 41
Dangerous builds = 0
write_dump all custom pysimm.dump.tmp id q x y z vx vy vz
quit


################################################################################
##################################    Init    ##################################
################################################################################
units           real
atom_style      full
pair_style      lj/cut/coul/long 12.0  12.0
kspace_style    pppm 1e-4
bond_style      harmonic
angle_style     harmonic
dihedral_style  fourier
improper_style  cvff
special_bonds   amber
pair_modify     mix arithmetic
read_data       temp.lmps
  orthogonal box = (-151.219 -151.219 -151.219) to (151.219 151.219 151.219)
  1 by 1 by 1 MPI processor grid
  reading atoms ...
  1276 atoms
  reading velocities ...
  1276 velocities
  scanning bonds ...
  4 = max bonds/atom
  scanning angles ...
  6 = max angles/atom
  scanning dihedrals ...
  24 = max dihedrals/atom
  scanning impropers ...
  2 = max impropers/atom
  reading bonds ...
  1493 bonds
  reading angles ...
  3078 angles
  reading dihedrals ...
  5653 dihedrals
  reading impropers ...
  152 impropers
  4 = max # of 1-2 neighbors
  9 = max # of 1-3 neighbors
  23 = max # of 1-4 neighbors
  22 = max # of special neighbors
  special bonds CPU = 0.00159192 secs
  read_data CPU = 0.0175579 secs
################################################################################

min_style cg
minimize 1e-06 1e-06 1000000 10000000
WARNING: Using 'neigh_modify every 1 delay 0 check yes' setting during minimization (../min.cpp:190)
PPPM initialization ...
WARNING: System is not charge neutral, net charge = -3.8e-05 (../kspace.cpp:313)
  using 12-bit tables for long-range coulomb (../kspace.cpp:332)
  G vector (1/distance) = 0.142364
  grid = 48 48 48
  stencil order = 5
  estimated absolute RMS force accuracy = 0.000773033
  estimated relative force accuracy = 2.32797e-06
  using double precision KISS FFT
  3d grid and FFT values/proc = 148877 110592
Neighbor list info ...
  update every 1 steps, delay 0 steps, check yes
  max neighbors/atom: 2000, page size: 100000
  master list distance cutoff = 14
  ghost atom cutoff = 14
  binsize = 7, bins = 44 44 44
  1 neighbor lists, perpetual/occasional/extra = 1 0 0
  (1) pair lj/cut/coul/long, perpetual
      attributes: half, newton on
      pair build: half/bin/newton
      stencil: half/bin/3d/newton
      bin: standard
Per MPI rank memory allocation (min/avg/max) = 35.01 | 35.01 | 35.01 Mbytes
Step Temp E_pair E_mol TotEng Press 
       0    800.73511    3964.4015    9599.2159    16606.837    33.278846 
    1040    800.73511    221.33832     7658.359    10922.917    4.8625176 
Loop time of 65.1434 on 1 procs for 1040 steps with 1276 atoms

99.7% CPU use with 1 MPI tasks x no OpenMP threads

Minimization stats:
  Stopping criterion = energy tolerance
  Energy initial, next-to-last, final = 
         13563.6173851      7879.69795723      7879.69731448
  Force two-norm initial, final = 39702.7 9.78016
  Force max component initial, final = 22029.7 1.10895
  Final line search alpha, max atom move = 0.00948585 0.0105194
  Iterations, force evaluations = 1040 2074

MPI task timing breakdown:
Section |  min time  |  avg time  |  max time  |%varavg| %total
---------------------------------------------------------------
Pair    | 8.6918     | 8.6918     | 8.6918     |   0.0 | 13.34
Bond    | 1.5694     | 1.5694     | 1.5694     |   0.0 |  2.41
Kspace  | 54.676     | 54.676     | 54.676     |   0.0 | 83.93
Neigh   | 0.1102     | 0.1102     | 0.1102     |   0.0 |  0.17
Comm    | 0.0035784  | 0.0035784  | 0.0035784  |   0.0 |  0.01
Output  | 0          | 0          | 0          |   0.0 |  0.00
Modify  | 0          | 0          | 0          |   0.0 |  0.00
Other   |            | 0.0925     |            |       |  0.14

Nlocal:    1276 ave 1276 max 1276 min
Histogram: 1 0 0 0 0 0 0 0 0 0
Nghost:    0 ave 0 max 0 min
Histogram: 1 0 0 0 0 0 0 0 0 0
Neighs:    117124 ave 117124 max 117124 min
Histogram: 1 0 0 0 0 0 0 0 0 0

Total # of neighbors = 117124
Ave neighs/atom = 91.79
Ave special neighs/atom = 13.7116
Neighbor list builds = 28
Dangerous builds = 0
write_dump all custom pysimm.dump.tmp id q x y z vx vy vz
quit


################################################################################
##################################    Init    ##################################
################################################################################
units           real
atom_style      full
pair_style      lj/cut/coul/long 12.0  12.0
kspace_style    pppm 1e-4
bond_style      harmonic
angle_style     harmonic
dihedral_style  fourier
improper_style  cvff
special_bonds   amber
pair_modify     mix arithmetic
read_data       temp.lmps
  orthogonal box = (-153.969 -153.969 -153.969) to (153.969 153.969 153.969)
  1 by 1 by 1 MPI processor grid
  reading atoms ...
  1344 atoms
  reading velocities ...
  1344 velocities
  scanning bonds ...
  4 = max bonds/atom
  scanning angles ...
  6 = max angles/atom
  scanning dihedrals ...
  24 = max dihedrals/atom
  scanning impropers ...
  2 = max impropers/atom
  reading bonds ...
  1572 bonds
  reading angles ...
  3240 angles
  reading dihedrals ...
  5948 dihedrals
  reading impropers ...
  160 impropers
  4 = max # of 1-2 neighbors
  9 = max # of 1-3 neighbors
  23 = max # of 1-4 neighbors
  22 = max # of special neighbors
  special bonds CPU = 0.00124907 secs
  read_data CPU = 0.0170798 secs
################################################################################

min_style cg
minimize 1e-06 1e-06 1000000 10000000
WARNING: Using 'neigh_modify every 1 delay 0 check yes' setting during minimization (../min.cpp:190)
PPPM initialization ...
WARNING: System is not charge neutral, net charge = -4e-05 (../kspace.cpp:313)
  using 12-bit tables for long-range coulomb (../kspace.cpp:332)
  G vector (1/distance) = 0.140961
  grid = 48 48 48
  stencil order = 5
  estimated absolute RMS force accuracy = 0.000818932
  estimated relative force accuracy = 2.46619e-06
  using double precision KISS FFT
  3d grid and FFT values/proc = 148877 110592
Neighbor list info ...
  update every 1 steps, delay 0 steps, check yes
  max neighbors/atom: 2000, page size: 100000
  master list distance cutoff = 14
  ghost atom cutoff = 14
  binsize = 7, bins = 44 44 44
  1 neighbor lists, perpetual/occasional/extra = 1 0 0
  (1) pair lj/cut/coul/long, perpetual
      attributes: half, newton on
      pair build: half/bin/newton
      stencil: half/bin/3d/newton
      bin: standard
Per MPI rank memory allocation (min/avg/max) = 35.02 | 35.02 | 35.02 Mbytes
Step Temp E_pair E_mol TotEng Press 
       0    972.77163    716.65756    10191.738    14802.622   0.99344501 
     816    972.77163    244.82991    8049.3882    12188.445    6.1166904 
Loop time of 52.543 on 1 procs for 816 steps with 1344 atoms

99.7% CPU use with 1 MPI tasks x no OpenMP threads

Minimization stats:
  Stopping criterion = linesearch alpha is zero
  Energy initial, next-to-last, final = 
         10908.3953688      8294.21809395      8294.21809395
  Force two-norm initial, final = 3705.92 9.32041
  Force max component initial, final = 1610.15 1.22154
  Final line search alpha, max atom move = 7.90851e-11 9.66053e-11
  Iterations, force evaluations = 816 1679

MPI task timing breakdown:
Section |  min time  |  avg time  |  max time  |%varavg| %total
---------------------------------------------------------------
Pair    | 6.3674     | 6.3674     | 6.3674     |   0.0 | 12.12
Bond    | 1.3168     | 1.3168     | 1.3168     |   0.0 |  2.51
Kspace  | 44.685     | 44.685     | 44.685     |   0.0 | 85.04
Neigh   | 0.094294   | 0.094294   | 0.094294   |   0.0 |  0.18
Comm    | 0.002377   | 0.002377   | 0.002377   |   0.0 |  0.00
Output  | 0          | 0          | 0          |   0.0 |  0.00
Modify  | 0          | 0          | 0          |   0.0 |  0.00
Other   |            | 0.07727    |            |       |  0.15

Nlocal:    1344 ave 1344 max 1344 min
Histogram: 1 0 0 0 0 0 0 0 0 0
Nghost:    0 ave 0 max 0 min
Histogram: 1 0 0 0 0 0 0 0 0 0
Neighs:    109728 ave 109728 max 109728 min
Histogram: 1 0 0 0 0 0 0 0 0 0

Total # of neighbors = 109728
Ave neighs/atom = 81.6429
Ave special neighs/atom = 13.7083
Neighbor list builds = 25
Dangerous builds = 0
write_dump all custom pysimm.dump.tmp id q x y z vx vy vz
quit


################################################################################
##################################    Init    ##################################
################################################################################
units           real
atom_style      full
pair_style      lj/cut/coul/long 12.0  12.0
kspace_style    pppm 1e-4
bond_style      harmonic
angle_style     harmonic
dihedral_style  fourier
improper_style  cvff
special_bonds   amber
pair_modify     mix arithmetic
read_data       temp.lmps
  orthogonal box = (-156.625 -156.625 -156.625) to (156.625 156.625 156.625)
  1 by 1 by 1 MPI processor grid
  reading atoms ...
  1412 atoms
  reading velocities ...
  1412 velocities
  scanning bonds ...
  4 = max bonds/atom
  scanning angles ...
  6 = max angles/atom
  scanning dihedrals ...
  24 = max dihedrals/atom
  scanning impropers ...
  2 = max impropers/atom
  reading bonds ...
  1651 bonds
  reading angles ...
  3402 angles
  reading dihedrals ...
  6243 dihedrals
  reading impropers ...
  168 impropers
  4 = max # of 1-2 neighbors
  9 = max # of 1-3 neighbors
  23 = max # of 1-4 neighbors
  22 = max # of special neighbors
  special bonds CPU = 0.00130606 secs
  read_data CPU = 0.0175791 secs
################################################################################

min_style cg
minimize 1e-06 1e-06 1000000 10000000
WARNING: Using 'neigh_modify every 1 delay 0 check yes' setting during minimization (../min.cpp:190)
PPPM initialization ...
WARNING: System is not charge neutral, net charge = -4.2e-05 (../kspace.cpp:313)
  using 12-bit tables for long-range coulomb (../kspace.cpp:332)
  G vector (1/distance) = 0.142812
  grid = 50 50 50
  stencil order = 5
  estimated absolute RMS force accuracy = 0.000756126
  estimated relative force accuracy = 2.27705e-06
  using double precision KISS FFT
  3d grid and FFT values/proc = 166375 125000
Neighbor list info ...
  update every 1 steps, delay 0 steps, check yes
  max neighbors/atom: 2000, page size: 100000
  master list distance cutoff = 14
  ghost atom cutoff = 14
  binsize = 7, bins = 45 45 45
  1 neighbor lists, perpetual/occasional/extra = 1 0 0
  (1) pair lj/cut/coul/long, perpetual
      attributes: half, newton on
      pair build: half/bin/newton
      stencil: half/bin/3d/newton
      bin: standard
Per MPI rank memory allocation (min/avg/max) = 36.94 | 36.94 | 36.94 Mbytes
Step Temp E_pair E_mol TotEng Press 
       0    735.42973    20615.485    10672.054      34380.7    177.15798 
    1161    735.42973    231.42065    8432.1424    11756.724    4.5701647 
Loop time of 81.7355 on 1 procs for 1161 steps with 1412 atoms

99.7% CPU use with 1 MPI tasks x no OpenMP threads

Minimization stats:
  Stopping criterion = energy tolerance
  Energy initial, next-to-last, final = 
         31287.5395506      8663.56603833      8663.56301623
  Force two-norm initial, final = 371418 9.27071
  Force max component initial, final = 221178 1.53502
  Final line search alpha, max atom move = 0.00691291 0.0106114
  Iterations, force evaluations = 1161 2318

MPI task timing breakdown:
Section |  min time  |  avg time  |  max time  |%varavg| %total
---------------------------------------------------------------
Pair    | 10.149     | 10.149     | 10.149     |   0.0 | 12.42
Bond    | 1.8699     | 1.8699     | 1.8699     |   0.0 |  2.29
Kspace  | 69.454     | 69.454     | 69.454     |   0.0 | 84.97
Neigh   | 0.15102    | 0.15102    | 0.15102    |   0.0 |  0.18
Comm    | 0.0042686  | 0.0042686  | 0.0042686  |   0.0 |  0.01
Output  | 0          | 0          | 0          |   0.0 |  0.00
Modify  | 0          | 0          | 0          |   0.0 |  0.00
Other   |            | 0.1078     |            |       |  0.13

Nlocal:    1412 ave 1412 max 1412 min
Histogram: 1 0 0 0 0 0 0 0 0 0
Nghost:    0 ave 0 max 0 min
Histogram: 1 0 0 0 0 0 0 0 0 0
Neighs:    134220 ave 134220 max 134220 min
Histogram: 1 0 0 0 0 0 0 0 0 0

Total # of neighbors = 134220
Ave neighs/atom = 95.0567
Ave special neighs/atom = 13.7054
Neighbor list builds = 36
Dangerous builds = 0
write_dump all custom pysimm.dump.tmp id q x y z vx vy vz
quit


################################################################################
##################################    Init    ##################################
################################################################################
units           real
atom_style      full
pair_style      lj/cut/coul/long 12.0  12.0
kspace_style    pppm 1e-4
bond_style      harmonic
angle_style     harmonic
dihedral_style  fourier
improper_style  cvff
special_bonds   amber
pair_modify     mix arithmetic
read_data       temp.lmps
  orthogonal box = (-159.193 -159.193 -159.193) to (159.193 159.193 159.193)
  1 by 1 by 1 MPI processor grid
  reading atoms ...
  1480 atoms
  reading velocities ...
  1480 velocities
  scanning bonds ...
  4 = max bonds/atom
  scanning angles ...
  6 = max angles/atom
  scanning dihedrals ...
  24 = max dihedrals/atom
  scanning impropers ...
  2 = max impropers/atom
  reading bonds ...
  1730 bonds
  reading angles ...
  3564 angles
  reading dihedrals ...
  6538 dihedrals
  reading impropers ...
  176 impropers
  4 = max # of 1-2 neighbors
  9 = max # of 1-3 neighbors
  23 = max # of 1-4 neighbors
  22 = max # of special neighbors
  special bonds CPU = 0.00141716 secs
  read_data CPU = 0.0183039 secs
################################################################################

min_style cg
minimize 1e-06 1e-06 1000000 10000000
WARNING: Using 'neigh_modify every 1 delay 0 check yes' setting during minimization (../min.cpp:190)
PPPM initialization ...
WARNING: System is not charge neutral, net charge = -4.4e-05 (../kspace.cpp:313)
  using 12-bit tables for long-range coulomb (../kspace.cpp:332)
  G vector (1/distance) = 0.141539
  grid = 50 50 50
  stencil order = 5
  estimated absolute RMS force accuracy = 0.000796752
  estimated relative force accuracy = 2.39939e-06
  using double precision KISS FFT
  3d grid and FFT values/proc = 166375 125000
Neighbor list info ...
  update every 1 steps, delay 0 steps, check yes
  max neighbors/atom: 2000, page size: 100000
  master list distance cutoff = 14
  ghost atom cutoff = 14
  binsize = 7, bins = 46 46 46
  1 neighbor lists, perpetual/occasional/extra = 1 0 0
  (1) pair lj/cut/coul/long, perpetual
      attributes: half, newton on
      pair build: half/bin/newton
      stencil: half/bin/3d/newton
      bin: standard
Per MPI rank memory allocation (min/avg/max) = 36.98 | 36.98 | 36.98 Mbytes
Step Temp E_pair E_mol TotEng Press 
       0    657.18983    4545.6378    11198.525    18641.461     30.54724 
     865    657.18983    294.50714     8795.873    11987.679    4.0114933 
Loop time of 62.0027 on 1 procs for 865 steps with 1480 atoms

99.7% CPU use with 1 MPI tasks x no OpenMP threads

Minimization stats:
  Stopping criterion = linesearch alpha is zero
  Energy initial, next-to-last, final = 
         15744.1624514      9090.38018637      9090.38018637
  Force two-norm initial, final = 55327 8.55045
  Force max component initial, final = 32137.4 1.10642
  Final line search alpha, max atom move = 9.55826e-11 1.05754e-10
  Iterations, force evaluations = 865 1778

MPI task timing breakdown:
Section |  min time  |  avg time  |  max time  |%varavg| %total
---------------------------------------------------------------
Pair    | 6.7714     | 6.7714     | 6.7714     |   0.0 | 10.92
Bond    | 1.4969     | 1.4969     | 1.4969     |   0.0 |  2.41
Kspace  | 53.551     | 53.551     | 53.551     |   0.0 | 86.37
Neigh   | 0.095546   | 0.095546   | 0.095546   |   0.0 |  0.15
Comm    | 0.0025649  | 0.0025649  | 0.0025649  |   0.0 |  0.00
Output  | 0          | 0          | 0          |   0.0 |  0.00
Modify  | 0          | 0          | 0          |   0.0 |  0.00
Other   |            | 0.08529    |            |       |  0.14

Nlocal:    1480 ave 1480 max 1480 min
Histogram: 1 0 0 0 0 0 0 0 0 0
Nghost:    0 ave 0 max 0 min
Histogram: 1 0 0 0 0 0 0 0 0 0
Neighs:    113767 ave 113767 max 113767 min
Histogram: 1 0 0 0 0 0 0 0 0 0

Total # of neighbors = 113767
Ave neighs/atom = 76.8696
Ave special neighs/atom = 13.7027
Neighbor list builds = 25
Dangerous builds = 0
write_dump all custom pysimm.dump.tmp id q x y z vx vy vz
quit


################################################################################
##################################    Init    ##################################
################################################################################
units           real
atom_style      full
pair_style      lj/cut/coul/long 12.0  12.0
kspace_style    pppm 1e-4
bond_style      harmonic
angle_style     harmonic
dihedral_style  fourier
improper_style  cvff
special_bonds   amber
pair_modify     mix arithmetic
read_data       temp.lmps
  orthogonal box = (-161.68 -161.68 -161.68) to (161.68 161.68 161.68)
  1 by 1 by 1 MPI processor grid
  reading atoms ...
  1548 atoms
  reading velocities ...
  1548 velocities
  scanning bonds ...
  4 = max bonds/atom
  scanning angles ...
  6 = max angles/atom
  scanning dihedrals ...
  24 = max dihedrals/atom
  scanning impropers ...
  2 = max impropers/atom
  reading bonds ...
  1809 bonds
  reading angles ...
  3726 angles
  reading dihedrals ...
  6833 dihedrals
  reading impropers ...
  184 impropers
  4 = max # of 1-2 neighbors
  9 = max # of 1-3 neighbors
  23 = max # of 1-4 neighbors
  22 = max # of special neighbors
  special bonds CPU = 0.00146198 secs
  read_data CPU = 0.0187652 secs
################################################################################

min_style cg
minimize 1e-06 1e-06 1000000 10000000
WARNING: Using 'neigh_modify every 1 delay 0 check yes' setting during minimization (../min.cpp:190)
PPPM initialization ...
WARNING: System is not charge neutral, net charge = -4.6e-05 (../kspace.cpp:313)
  using 12-bit tables for long-range coulomb (../kspace.cpp:332)
  G vector (1/distance) = 0.146405
  grid = 54 54 54
  stencil order = 5
  estimated absolute RMS force accuracy = 0.000648068
  estimated relative force accuracy = 1.95164e-06
  using double precision KISS FFT
  3d grid and FFT values/proc = 205379 157464
Neighbor list info ...
  update every 1 steps, delay 0 steps, check yes
  max neighbors/atom: 2000, page size: 100000
  master list distance cutoff = 14
  ghost atom cutoff = 14
  binsize = 7, bins = 47 47 47
  1 neighbor lists, perpetual/occasional/extra = 1 0 0
  (1) pair lj/cut/coul/long, perpetual
      attributes: half, newton on
      pair build: half/bin/newton
      stencil: half/bin/3d/newton
      bin: standard
Per MPI rank memory allocation (min/avg/max) = 41.25 | 41.25 | 41.25 Mbytes
Step Temp E_pair E_mol TotEng Press 
       0    539.24094     16739.09    11757.906    30983.604      127.165 
    1117    539.24094    300.07201    9166.2663    11952.947    3.3391352 
Loop time of 111.884 on 1 procs for 1117 steps with 1548 atoms

99.7% CPU use with 1 MPI tasks x no OpenMP threads

Minimization stats:
  Stopping criterion = energy tolerance
  Energy initial, next-to-last, final = 
         28496.9954235      9466.34756218       9466.3383159
  Force two-norm initial, final = 284941 9.16952
  Force max component initial, final = 163759 1.60154
  Final line search alpha, max atom move = 0.00493391 0.00790186
  Iterations, force evaluations = 1117 2228

MPI task timing breakdown:
Section |  min time  |  avg time  |  max time  |%varavg| %total
---------------------------------------------------------------
Pair    | 9.3468     | 9.3468     | 9.3468     |   0.0 |  8.35
Bond    | 1.9619     | 1.9619     | 1.9619     |   0.0 |  1.75
Kspace  | 100.33     | 100.33     | 100.33     |   0.0 | 89.68
Neigh   | 0.1254     | 0.1254     | 0.1254     |   0.0 |  0.11
Comm    | 0.0039546  | 0.0039546  | 0.0039546  |   0.0 |  0.00
Output  | 0          | 0          | 0          |   0.0 |  0.00
Modify  | 0          | 0          | 0          |   0.0 |  0.00
Other   |            | 0.1117     |            |       |  0.10

Nlocal:    1548 ave 1548 max 1548 min
Histogram: 1 0 0 0 0 0 0 0 0 0
Nghost:    0 ave 0 max 0 min
Histogram: 1 0 0 0 0 0 0 0 0 0
Neighs:    120486 ave 120486 max 120486 min
Histogram: 1 0 0 0 0 0 0 0 0 0

Total # of neighbors = 120486
Ave neighs/atom = 77.8333
Ave special neighs/atom = 13.7003
Neighbor list builds = 31
Dangerous builds = 0
write_dump all custom pysimm.dump.tmp id q x y z vx vy vz
quit


################################################################################
##################################    Init    ##################################
################################################################################
units           real
atom_style      full
pair_style      lj/cut/coul/long 12.0  12.0
kspace_style    pppm 1e-4
bond_style      harmonic
angle_style     harmonic
dihedral_style  fourier
improper_style  cvff
special_bonds   amber
pair_modify     mix arithmetic
read_data       temp.lmps
  orthogonal box = (-164.094 -164.094 -164.094) to (164.094 164.094 164.094)
  1 by 1 by 1 MPI processor grid
  reading atoms ...
  1616 atoms
  reading velocities ...
  1616 velocities
  scanning bonds ...
  4 = max bonds/atom
  scanning angles ...
  6 = max angles/atom
  scanning dihedrals ...
  24 = max dihedrals/atom
  scanning impropers ...
  2 = max impropers/atom
  reading bonds ...
  1888 bonds
  reading angles ...
  3888 angles
  reading dihedrals ...
  7128 dihedrals
  reading impropers ...
  192 impropers
  4 = max # of 1-2 neighbors
  9 = max # of 1-3 neighbors
  23 = max # of 1-4 neighbors
  22 = max # of special neighbors
  special bonds CPU = 0.00146389 secs
  read_data CPU = 0.019341 secs
################################################################################

min_style cg
minimize 1e-06 1e-06 1000000 10000000
WARNING: Using 'neigh_modify every 1 delay 0 check yes' setting during minimization (../min.cpp:190)
PPPM initialization ...
WARNING: System is not charge neutral, net charge = -4.8e-05 (../kspace.cpp:313)
  using 12-bit tables for long-range coulomb (../kspace.cpp:332)
  G vector (1/distance) = 0.145221
  grid = 54 54 54
  stencil order = 5
  estimated absolute RMS force accuracy = 0.000680565
  estimated relative force accuracy = 2.0495e-06
  using double precision KISS FFT
  3d grid and FFT values/proc = 205379 157464
Neighbor list info ...
  update every 1 steps, delay 0 steps, check yes
  max neighbors/atom: 2000, page size: 100000
  master list distance cutoff = 14
  ghost atom cutoff = 14
  binsize = 7, bins = 47 47 47
  1 neighbor lists, perpetual/occasional/extra = 1 0 0
  (1) pair lj/cut/coul/long, perpetual
      attributes: half, newton on
      pair build: half/bin/newton
      stencil: half/bin/3d/newton
      bin: standard
Per MPI rank memory allocation (min/avg/max) = 41.26 | 41.26 | 41.26 Mbytes
Step Temp E_pair E_mol TotEng Press 
       0    496.56281    649.95814    12186.531    15226.947   -3.8093136 
    1621    496.56281    282.01853    9515.3058    12187.782    2.9721131 
Loop time of 164.536 on 1 procs for 1621 steps with 1616 atoms

99.7% CPU use with 1 MPI tasks x no OpenMP threads

Minimization stats:
  Stopping criterion = energy tolerance
  Energy initial, next-to-last, final = 
         12836.4896018      9797.32756448      9797.32435127
  Force two-norm initial, final = 3082.72 10.5632
  Force max component initial, final = 1216.57 1.61006
  Final line search alpha, max atom move = 0.00583576 0.00939592
  Iterations, force evaluations = 1621 3238

MPI task timing breakdown:
Section |  min time  |  avg time  |  max time  |%varavg| %total
---------------------------------------------------------------
Pair    | 15.239     | 15.239     | 15.239     |   0.0 |  9.26
Bond    | 2.9679     | 2.9679     | 2.9679     |   0.0 |  1.80
Kspace  | 145.96     | 145.96     | 145.96     |   0.0 | 88.71
Neigh   | 0.20152    | 0.20152    | 0.20152    |   0.0 |  0.12
Comm    | 0.0052867  | 0.0052867  | 0.0052867  |   0.0 |  0.00
Output  | 0          | 0          | 0          |   0.0 |  0.00
Modify  | 0          | 0          | 0          |   0.0 |  0.00
Other   |            | 0.1675     |            |       |  0.10

Nlocal:    1616 ave 1616 max 1616 min
Histogram: 1 0 0 0 0 0 0 0 0 0
Nghost:    0 ave 0 max 0 min
Histogram: 1 0 0 0 0 0 0 0 0 0
Neighs:    149338 ave 149338 max 149338 min
Histogram: 1 0 0 0 0 0 0 0 0 0

Total # of neighbors = 149338
Ave neighs/atom = 92.4121
Ave special neighs/atom = 13.698
Neighbor list builds = 45
Dangerous builds = 0
write_dump all custom pysimm.dump.tmp id q x y z vx vy vz
quit


################################################################################
##################################    Init    ##################################
################################################################################
units           real
atom_style      full
pair_style      lj/cut/coul/long 12.0  12.0
kspace_style    pppm 1e-4
bond_style      harmonic
angle_style     harmonic
dihedral_style  fourier
improper_style  cvff
special_bonds   amber
pair_modify     mix arithmetic
read_data       temp.lmps
  orthogonal box = (-166.438 -166.438 -166.438) to (166.438 166.438 166.438)
  1 by 1 by 1 MPI processor grid
  reading atoms ...
  1684 atoms
  reading velocities ...
  1684 velocities
  scanning bonds ...
  4 = max bonds/atom
  scanning angles ...
  6 = max angles/atom
  scanning dihedrals ...
  24 = max dihedrals/atom
  scanning impropers ...
  2 = max impropers/atom
  reading bonds ...
  1967 bonds
  reading angles ...
  4050 angles
  reading dihedrals ...
  7423 dihedrals
  reading impropers ...
  200 impropers
  4 = max # of 1-2 neighbors
  9 = max # of 1-3 neighbors
  23 = max # of 1-4 neighbors
  22 = max # of special neighbors
  special bonds CPU = 0.00149512 secs
  read_data CPU = 0.0197752 secs
################################################################################

min_style cg
minimize 1e-06 1e-06 1000000 10000000
WARNING: Using 'neigh_modify every 1 delay 0 check yes' setting during minimization (../min.cpp:190)
PPPM initialization ...
WARNING: System is not charge neutral, net charge = -5e-05 (../kspace.cpp:313)
  using 12-bit tables for long-range coulomb (../kspace.cpp:332)
  G vector (1/distance) = 0.144092
  grid = 54 54 54
  stencil order = 5
  estimated absolute RMS force accuracy = 0.000712971
  estimated relative force accuracy = 2.14709e-06
  using double precision KISS FFT
  3d grid and FFT values/proc = 205379 157464
Neighbor list info ...
  update every 1 steps, delay 0 steps, check yes
  max neighbors/atom: 2000, page size: 100000
  master list distance cutoff = 14
  ghost atom cutoff = 14
  binsize = 7, bins = 48 48 48
  1 neighbor lists, perpetual/occasional/extra = 1 0 0
  (1) pair lj/cut/coul/long, perpetual
      attributes: half, newton on
      pair build: half/bin/newton
      stencil: half/bin/3d/newton
      bin: standard
Per MPI rank memory allocation (min/avg/max) = 41.3 | 41.3 | 41.3 Mbytes
Step Temp E_pair E_mol TotEng Press 
       0    468.50019    983.75885    12964.475     16298.56   -1.9708546 
     952    468.50019    337.06382    9919.6665    12607.057    2.7944991 
Loop time of 97.2867 on 1 procs for 952 steps with 1684 atoms

99.7% CPU use with 1 MPI tasks x no OpenMP threads

Minimization stats:
  Stopping criterion = energy tolerance
  Energy initial, next-to-last, final = 
         13948.2338367        10256.73928       10256.730313
  Force two-norm initial, final = 3708 9.6876
  Force max component initial, final = 1026.99 1.47823
  Final line search alpha, max atom move = 0.00761217 0.0112525
  Iterations, force evaluations = 952 1895

MPI task timing breakdown:
Section |  min time  |  avg time  |  max time  |%varavg| %total
---------------------------------------------------------------
Pair    | 8.3641     | 8.3641     | 8.3641     |   0.0 |  8.60
Bond    | 1.8091     | 1.8091     | 1.8091     |   0.0 |  1.86
Kspace  | 86.89      | 86.89      | 86.89      |   0.0 | 89.31
Neigh   | 0.11853    | 0.11853    | 0.11853    |   0.0 |  0.12
Comm    | 0.0028846  | 0.0028846  | 0.0028846  |   0.0 |  0.00
Output  | 0          | 0          | 0          |   0.0 |  0.00
Modify  | 0          | 0          | 0          |   0.0 |  0.00
Other   |            | 0.1023     |            |       |  0.11

Nlocal:    1684 ave 1684 max 1684 min
Histogram: 1 0 0 0 0 0 0 0 0 0
Nghost:    0 ave 0 max 0 min
Histogram: 1 0 0 0 0 0 0 0 0 0
Neighs:    131024 ave 131024 max 131024 min
Histogram: 1 0 0 0 0 0 0 0 0 0

Total # of neighbors = 131024
Ave neighs/atom = 77.8052
Ave special neighs/atom = 13.696
Neighbor list builds = 27
Dangerous builds = 0
write_dump all custom pysimm.dump.tmp id q x y z vx vy vz
quit


################################################################################
##################################    Init    ##################################
################################################################################
units           real
atom_style      full
pair_style      lj/cut/coul/long 12.0  12.0
kspace_style    pppm 1e-4
bond_style      harmonic
angle_style     harmonic
dihedral_style  fourier
improper_style  cvff
special_bonds   amber
pair_modify     mix arithmetic
read_data       temp.lmps
  orthogonal box = (-168.719 -168.719 -168.719) to (168.719 168.719 168.719)
  1 by 1 by 1 MPI processor grid
  reading atoms ...
  1752 atoms
  reading velocities ...
  1752 velocities
  scanning bonds ...
  4 = max bonds/atom
  scanning angles ...
  6 = max angles/atom
  scanning dihedrals ...
  24 = max dihedrals/atom
  scanning impropers ...
  2 = max impropers/atom
  reading bonds ...
  2046 bonds
  reading angles ...
  4212 angles
  reading dihedrals ...
  7718 dihedrals
  reading impropers ...
  208 impropers
  4 = max # of 1-2 neighbors
  9 = max # of 1-3 neighbors
  23 = max # of 1-4 neighbors
  22 = max # of special neighbors
  special bonds CPU = 0.0015502 secs
  read_data CPU = 0.0205519 secs
################################################################################

min_style cg
minimize 1e-06 1e-06 1000000 10000000
WARNING: Using 'neigh_modify every 1 delay 0 check yes' setting during minimization (../min.cpp:190)
PPPM initialization ...
WARNING: System is not charge neutral, net charge = -5.2e-05 (../kspace.cpp:313)
  using 12-bit tables for long-range coulomb (../kspace.cpp:332)
  G vector (1/distance) = 0.143015
  grid = 54 54 54
  stencil order = 5
  estimated absolute RMS force accuracy = 0.000745292
  estimated relative force accuracy = 2.24442e-06
  using double precision KISS FFT
  3d grid and FFT values/proc = 205379 157464
Neighbor list info ...
  update every 1 steps, delay 0 steps, check yes
  max neighbors/atom: 2000, page size: 100000
  master list distance cutoff = 14
  ghost atom cutoff = 14
  binsize = 7, bins = 49 49 49
  1 neighbor lists, perpetual/occasional/extra = 1 0 0
  (1) pair lj/cut/coul/long, perpetual
      attributes: half, newton on
      pair build: half/bin/newton
      stencil: half/bin/3d/newton
      bin: standard
Per MPI rank memory allocation (min/avg/max) = 41.34 | 41.34 | 41.34 Mbytes
Step Temp E_pair E_mol TotEng Press 
       0     504.6651    1272.2743    13172.916    17079.239  -0.28921759 
    1017     504.6651    330.60354    10254.098     13218.75    3.0698705 
Loop time of 104.867 on 1 procs for 1017 steps with 1752 atoms

99.7% CPU use with 1 MPI tasks x no OpenMP threads

Minimization stats:
  Stopping criterion = energy tolerance
  Energy initial, next-to-last, final = 
         14445.1903935      10584.7052771      10584.7019115
  Force two-norm initial, final = 4742.9 8.2958
  Force max component initial, final = 1815.78 0.987971
  Final line search alpha, max atom move = 0.012414 0.0122647
  Iterations, force evaluations = 1017 2030

MPI task timing breakdown:
Section |  min time  |  avg time  |  max time  |%varavg| %total
---------------------------------------------------------------
Pair    | 9.7416     | 9.7416     | 9.7416     |   0.0 |  9.29
Bond    | 2.0279     | 2.0279     | 2.0279     |   0.0 |  1.93
Kspace  | 92.85      | 92.85      | 92.85      |   0.0 | 88.54
Neigh   | 0.13008    | 0.13008    | 0.13008    |   0.0 |  0.12
Comm    | 0.0031216  | 0.0031216  | 0.0031216  |   0.0 |  0.00
Output  | 0          | 0          | 0          |   0.0 |  0.00
Modify  | 0          | 0          | 0          |   0.0 |  0.00
Other   |            | 0.1145     |            |       |  0.11

Nlocal:    1752 ave 1752 max 1752 min
Histogram: 1 0 0 0 0 0 0 0 0 0
Nghost:    0 ave 0 max 0 min
Histogram: 1 0 0 0 0 0 0 0 0 0
Neighs:    142174 ave 142174 max 142174 min
Histogram: 1 0 0 0 0 0 0 0 0 0

Total # of neighbors = 142174
Ave neighs/atom = 81.1495
Ave special neighs/atom = 13.6941
Neighbor list builds = 27
Dangerous builds = 0
write_dump all custom pysimm.dump.tmp id q x y z vx vy vz
quit


################################################################################
##################################    Init    ##################################
################################################################################
units           real
atom_style      full
pair_style      lj/cut/coul/long 12.0  12.0
kspace_style    pppm 1e-4
bond_style      harmonic
angle_style     harmonic
dihedral_style  fourier
improper_style  cvff
special_bonds   amber
pair_modify     mix arithmetic
read_data       temp.lmps
  orthogonal box = (-170.939 -170.939 -170.939) to (170.939 170.939 170.939)
  1 by 1 by 1 MPI processor grid
  reading atoms ...
  1820 atoms
  reading velocities ...
  1820 velocities
  scanning bonds ...
  4 = max bonds/atom
  scanning angles ...
  6 = max angles/atom
  scanning dihedrals ...
  24 = max dihedrals/atom
  scanning impropers ...
  2 = max impropers/atom
  reading bonds ...
  2125 bonds
  reading angles ...
  4374 angles
  reading dihedrals ...
  8013 dihedrals
  reading impropers ...
  216 impropers
  4 = max # of 1-2 neighbors
  9 = max # of 1-3 neighbors
  23 = max # of 1-4 neighbors
  22 = max # of special neighbors
  special bonds CPU = 0.00162005 secs
  read_data CPU = 0.0211189 secs
################################################################################

min_style cg
minimize 1e-06 1e-06 1000000 10000000
WARNING: Using 'neigh_modify every 1 delay 0 check yes' setting during minimization (../min.cpp:190)
PPPM initialization ...
WARNING: System is not charge neutral, net charge = -5.4e-05 (../kspace.cpp:313)
  using 12-bit tables for long-range coulomb (../kspace.cpp:332)
  G vector (1/distance) = 0.141989
  grid = 54 54 54
  stencil order = 5
  estimated absolute RMS force accuracy = 0.00077754
  estimated relative force accuracy = 2.34154e-06
  using double precision KISS FFT
  3d grid and FFT values/proc = 205379 157464
Neighbor list info ...
  update every 1 steps, delay 0 steps, check yes
  max neighbors/atom: 2000, page size: 100000
  master list distance cutoff = 14
  ghost atom cutoff = 14
  binsize = 7, bins = 49 49 49
  1 neighbor lists, perpetual/occasional/extra = 1 0 0
  (1) pair lj/cut/coul/long, perpetual
      attributes: half, newton on
      pair build: half/bin/newton
      stencil: half/bin/3d/newton
      bin: standard
Per MPI rank memory allocation (min/avg/max) = 41.35 | 41.35 | 41.35 Mbytes
Step Temp E_pair E_mol TotEng Press 
       0     499.5439    1469.2797    13711.674    17889.528   0.39958797 
     913     499.5439    351.64264    10623.868    13684.084    3.0674585 
Loop time of 96.6161 on 1 procs for 913 steps with 1820 atoms

99.7% CPU use with 1 MPI tasks x no OpenMP threads

Minimization stats:
  Stopping criterion = linesearch alpha is zero
  Energy initial, next-to-last, final = 
          15180.953973      10975.5104936      10975.5104936
  Force two-norm initial, final = 10610.2 11.4689
  Force max component initial, final = 4863.23 1.77675
  Final line search alpha, max atom move = 4.94468e-11 8.78544e-11
  Iterations, force evaluations = 913 1875

MPI task timing breakdown:
Section |  min time  |  avg time  |  max time  |%varavg| %total
---------------------------------------------------------------
Pair    | 9.2055     | 9.2055     | 9.2055     |   0.0 |  9.53
Bond    | 1.9305     | 1.9305     | 1.9305     |   0.0 |  2.00
Kspace  | 85.24      | 85.24      | 85.24      |   0.0 | 88.23
Neigh   | 0.12886    | 0.12886    | 0.12886    |   0.0 |  0.13
Comm    | 0.0028818  | 0.0028818  | 0.0028818  |   0.0 |  0.00
Output  | 0          | 0          | 0          |   0.0 |  0.00
Modify  | 0          | 0          | 0          |   0.0 |  0.00
Other   |            | 0.1086     |            |       |  0.11

Nlocal:    1820 ave 1820 max 1820 min
Histogram: 1 0 0 0 0 0 0 0 0 0
Nghost:    0 ave 0 max 0 min
Histogram: 1 0 0 0 0 0 0 0 0 0
Neighs:    141237 ave 141237 max 141237 min
Histogram: 1 0 0 0 0 0 0 0 0 0

Total # of neighbors = 141237
Ave neighs/atom = 77.6027
Ave special neighs/atom = 13.6923
Neighbor list builds = 27
Dangerous builds = 0
write_dump all custom pysimm.dump.tmp id q x y z vx vy vz
quit


################################################################################
##################################    Init    ##################################
################################################################################
units           real
atom_style      full
pair_style      lj/cut/coul/long 12.0  12.0
kspace_style    pppm 1e-4
bond_style      harmonic
angle_style     harmonic
dihedral_style  fourier
improper_style  cvff
special_bonds   amber
pair_modify     mix arithmetic
read_data       temp.lmps
  orthogonal box = (-173.103 -173.103 -173.103) to (173.103 173.103 173.103)
  1 by 1 by 1 MPI processor grid
  reading atoms ...
  1888 atoms
  reading velocities ...
  1888 velocities
  scanning bonds ...
  4 = max bonds/atom
  scanning angles ...
  6 = max angles/atom
  scanning dihedrals ...
  24 = max dihedrals/atom
  scanning impropers ...
  2 = max impropers/atom
  reading bonds ...
  2204 bonds
  reading angles ...
  4536 angles
  reading dihedrals ...
  8308 dihedrals
  reading impropers ...
  224 impropers
  4 = max # of 1-2 neighbors
  9 = max # of 1-3 neighbors
  23 = max # of 1-4 neighbors
  22 = max # of special neighbors
  special bonds CPU = 0.001647 secs
  read_data CPU = 0.0214911 secs
################################################################################

min_style cg
minimize 1e-06 1e-06 1000000 10000000
WARNING: Using 'neigh_modify every 1 delay 0 check yes' setting during minimization (../min.cpp:190)
PPPM initialization ...
WARNING: System is not charge neutral, net charge = -5.6e-05 (../kspace.cpp:313)
  using 12-bit tables for long-range coulomb (../kspace.cpp:332)
  G vector (1/distance) = 0.141011
  grid = 54 54 54
  stencil order = 5
  estimated absolute RMS force accuracy = 0.000809733
  estimated relative force accuracy = 2.43849e-06
  using double precision KISS FFT
  3d grid and FFT values/proc = 205379 157464
Neighbor list info ...
  update every 1 steps, delay 0 steps, check yes
  max neighbors/atom: 2000, page size: 100000
  master list distance cutoff = 14
  ghost atom cutoff = 14
  binsize = 7, bins = 50 50 50
  1 neighbor lists, perpetual/occasional/extra = 1 0 0
  (1) pair lj/cut/coul/long, perpetual
      attributes: half, newton on
      pair build: half/bin/newton
      stencil: half/bin/3d/newton
      bin: standard
Per MPI rank memory allocation (min/avg/max) = 41.4 | 41.4 | 41.4 Mbytes
Step Temp E_pair E_mol TotEng Press 
       0    452.54057    5419.7866    14102.382    22067.613    26.321374 
     654    452.54057     356.5771    11015.419    13917.441    2.8240292 
Loop time of 67.0956 on 1 procs for 654 steps with 1888 atoms

99.7% CPU use with 1 MPI tasks x no OpenMP threads

Minimization stats:
  Stopping criterion = energy tolerance
  Energy initial, next-to-last, final = 
          19522.168332      11372.0028832      11371.9957956
  Force two-norm initial, final = 41737.3 11.8908
  Force max component initial, final = 22480.5 1.52309
  Final line search alpha, max atom move = 0.0084588 0.0128835
  Iterations, force evaluations = 654 1303

MPI task timing breakdown:
Section |  min time  |  avg time  |  max time  |%varavg| %total
---------------------------------------------------------------
Pair    | 6.8095     | 6.8095     | 6.8095     |   0.0 | 10.15
Bond    | 1.3874     | 1.3874     | 1.3874     |   0.0 |  2.07
Kspace  | 58.718     | 58.718     | 58.718     |   0.0 | 87.51
Neigh   | 0.091552   | 0.091552   | 0.091552   |   0.0 |  0.14
Comm    | 0.0020399  | 0.0020399  | 0.0020399  |   0.0 |  0.00
Output  | 0          | 0          | 0          |   0.0 |  0.00
Modify  | 0          | 0          | 0          |   0.0 |  0.00
Other   |            | 0.0869     |            |       |  0.13

Nlocal:    1888 ave 1888 max 1888 min
Histogram: 1 0 0 0 0 0 0 0 0 0
Nghost:    0 ave 0 max 0 min
Histogram: 1 0 0 0 0 0 0 0 0 0
Neighs:    155644 ave 155644 max 155644 min
Histogram: 1 0 0 0 0 0 0 0 0 0

Total # of neighbors = 155644
Ave neighs/atom = 82.4386
Ave special neighs/atom = 13.6907
Neighbor list builds = 17
Dangerous builds = 0
write_dump all custom pysimm.dump.tmp id q x y z vx vy vz
quit


################################################################################
##################################    Init    ##################################
################################################################################
units           real
atom_style      full
pair_style      lj/cut/coul/long 12.0  12.0
kspace_style    pppm 1e-4
bond_style      harmonic
angle_style     harmonic
dihedral_style  fourier
improper_style  cvff
special_bonds   amber
pair_modify     mix arithmetic
read_data       temp.lmps
  orthogonal box = (-175.214 -175.214 -175.214) to (175.214 175.214 175.214)
  1 by 1 by 1 MPI processor grid
  reading atoms ...
  1956 atoms
  reading velocities ...
  1956 velocities
  scanning bonds ...
  4 = max bonds/atom
  scanning angles ...
  6 = max angles/atom
  scanning dihedrals ...
  24 = max dihedrals/atom
  scanning impropers ...
  2 = max impropers/atom
  reading bonds ...
  2283 bonds
  reading angles ...
  4698 angles
  reading dihedrals ...
  8603 dihedrals
  reading impropers ...
  232 impropers
  4 = max # of 1-2 neighbors
  9 = max # of 1-3 neighbors
  23 = max # of 1-4 neighbors
  22 = max # of special neighbors
[...]
  scanning angles ...
  6 = max angles/atom
  scanning dihedrals ...
  24 = max dihedrals/atom
  scanning impropers ...
  2 = max impropers/atom
  reading bonds ...
  3626 bonds
  reading angles ...
  7452 angles
  reading dihedrals ...
  13618 dihedrals
  reading impropers ...
  368 impropers
  4 = max # of 1-2 neighbors
  9 = max # of 1-3 neighbors
  23 = max # of 1-4 neighbors
  22 = max # of special neighbors
  special bonds CPU = 0.00259089 secs
  read_data CPU = 0.0331669 secs
################################################################################

min_style cg
minimize 1e-06 1e-06 1000000 10000000
WARNING: Using 'neigh_modify every 1 delay 0 check yes' setting during minimization (../min.cpp:190)
PPPM initialization ...
WARNING: System is not charge neutral, net charge = -9.2e-05 (../kspace.cpp:313)
  using 12-bit tables for long-range coulomb (../kspace.cpp:332)
  G vector (1/distance) = 0.140982
  grid = 64 64 64
  stencil order = 5
  estimated absolute RMS force accuracy = 0.000803591
  estimated relative force accuracy = 2.41999e-06
  using double precision KISS FFT
  3d grid and FFT values/proc = 328509 262144
Neighbor list info ...
  update every 1 steps, delay 0 steps, check yes
  max neighbors/atom: 2000, page size: 100000
  master list distance cutoff = 14
  ghost atom cutoff = 14
  binsize = 7, bins = 59 59 59
  1 neighbor lists, perpetual/occasional/extra = 1 0 0
  (1) pair lj/cut/coul/long, perpetual
      attributes: half, newton on
      pair build: half/bin/newton
      stencil: half/bin/3d/newton
      bin: standard
Per MPI rank memory allocation (min/avg/max) = 55.85 | 55.85 | 55.85 Mbytes
Step Temp E_pair E_mol TotEng Press 
       0    297.24615    9404.6353    23309.254    35470.342      25.4248 
     884    297.24615    550.50523    17626.653    20933.611    1.7223221 
Loop time of 146.677 on 1 procs for 884 steps with 3112 atoms

99.7% CPU use with 1 MPI tasks x no OpenMP threads

Minimization stats:
  Stopping criterion = energy tolerance
  Energy initial, next-to-last, final = 
         32713.8896556      18177.1750596      18177.1581679
  Force two-norm initial, final = 62278.9 11.0223
  Force max component initial, final = 37309.7 0.774862
  Final line search alpha, max atom move = 0.00825962 0.00640007
  Iterations, force evaluations = 884 1761

MPI task timing breakdown:
Section |  min time  |  avg time  |  max time  |%varavg| %total
---------------------------------------------------------------
Pair    | 16.235     | 16.235     | 16.235     |   0.0 | 11.07
Bond    | 3.0715     | 3.0715     | 3.0715     |   0.0 |  2.09
Kspace  | 126.98     | 126.98     | 126.98     |   0.0 | 86.57
Neigh   | 0.22821    | 0.22821    | 0.22821    |   0.0 |  0.16
Comm    | 0.0031309  | 0.0031309  | 0.0031309  |   0.0 |  0.00
Output  | 0          | 0          | 0          |   0.0 |  0.00
Modify  | 0          | 0          | 0          |   0.0 |  0.00
Other   |            | 0.1592     |            |       |  0.11

Nlocal:    3112 ave 3112 max 3112 min
Histogram: 1 0 0 0 0 0 0 0 0 0
Nghost:    0 ave 0 max 0 min
Histogram: 1 0 0 0 0 0 0 0 0 0
Neighs:    277708 ave 277708 max 277708 min
Histogram: 1 0 0 0 0 0 0 0 0 0

Total # of neighbors = 277708
Ave neighs/atom = 89.2378
Ave special neighs/atom = 13.6735
Neighbor list builds = 26
Dangerous builds = 0
write_dump all custom pysimm.dump.tmp id q x y z vx vy vz
quit


################################################################################
##################################    Init    ##################################
################################################################################
units           real
atom_style      full
pair_style      lj/cut/coul/long 12.0  12.0
kspace_style    pppm 1e-4
bond_style      harmonic
angle_style     harmonic
dihedral_style  fourier
improper_style  cvff
special_bonds   amber
pair_modify     mix arithmetic
read_data       temp.lmps
  orthogonal box = (-206.745 -206.745 -206.745) to (206.745 206.745 206.745)
  1 by 1 by 1 MPI processor grid
  reading atoms ...
  3180 atoms
  reading velocities ...
  3180 velocities
  scanning bonds ...
  4 = max bonds/atom
  scanning angles ...
  6 = max angles/atom
  scanning dihedrals ...
  24 = max dihedrals/atom
  scanning impropers ...
  2 = max impropers/atom
  reading bonds ...
  3705 bonds
  reading angles ...
  7614 angles
  reading dihedrals ...
  13913 dihedrals
  reading impropers ...
  376 impropers
  4 = max # of 1-2 neighbors
  9 = max # of 1-3 neighbors
  23 = max # of 1-4 neighbors
  22 = max # of special neighbors
  special bonds CPU = 0.00266695 secs
  read_data CPU = 0.0335329 secs
################################################################################

min_style cg
minimize 1e-06 1e-06 1000000 10000000
WARNING: Using 'neigh_modify every 1 delay 0 check yes' setting during minimization (../min.cpp:190)
PPPM initialization ...
WARNING: System is not charge neutral, net charge = -9.4e-05 (../kspace.cpp:313)
  using 12-bit tables for long-range coulomb (../kspace.cpp:332)
  G vector (1/distance) = 0.149765
  grid = 72 72 72
  stencil order = 5
  estimated absolute RMS force accuracy = 0.000553509
  estimated relative force accuracy = 1.66688e-06
  using double precision KISS FFT
  3d grid and FFT values/proc = 456533 373248
Neighbor list info ...
  update every 1 steps, delay 0 steps, check yes
  max neighbors/atom: 2000, page size: 100000
  master list distance cutoff = 14
  ghost atom cutoff = 14
  binsize = 7, bins = 60 60 60
  1 neighbor lists, perpetual/occasional/extra = 1 0 0
  (1) pair lj/cut/coul/long, perpetual
      attributes: half, newton on
      pair build: half/bin/newton
      stencil: half/bin/3d/newton
      bin: standard
Per MPI rank memory allocation (min/avg/max) = 70.53 | 70.53 | 70.53 Mbytes
Step Temp E_pair E_mol TotEng Press 
       0    271.94119    11194.929    23987.724    37759.567    31.724169 
     833    271.94119    497.53146    18058.378    21132.823    1.6251392 
Loop time of 220.515 on 1 procs for 833 steps with 3180 atoms

99.7% CPU use with 1 MPI tasks x no OpenMP threads

Minimization stats:
  Stopping criterion = energy tolerance
  Energy initial, next-to-last, final = 
         35182.6535941      18555.9216965      18555.9094877
  Force two-norm initial, final = 57888.9 9.79843
  Force max component initial, final = 18975.4 1.72528
  Final line search alpha, max atom move = 0.00729166 0.0125801
  Iterations, force evaluations = 833 1659

MPI task timing breakdown:
Section |  min time  |  avg time  |  max time  |%varavg| %total
---------------------------------------------------------------
Pair    | 17.542     | 17.542     | 17.542     |   0.0 |  7.96
Bond    | 2.9567     | 2.9567     | 2.9567     |   0.0 |  1.34
Kspace  | 199.58     | 199.58     | 199.58     |   0.0 | 90.51
Neigh   | 0.27476    | 0.27476    | 0.27476    |   0.0 |  0.12
Comm    | 0.0031564  | 0.0031564  | 0.0031564  |   0.0 |  0.00
Output  | 0          | 0          | 0          |   0.0 |  0.00
Modify  | 0          | 0          | 0          |   0.0 |  0.00
Other   |            | 0.1542     |            |       |  0.07

Nlocal:    3180 ave 3180 max 3180 min
Histogram: 1 0 0 0 0 0 0 0 0 0
Nghost:    0 ave 0 max 0 min
Histogram: 1 0 0 0 0 0 0 0 0 0
Neighs:    321398 ave 321398 max 321398 min
Histogram: 1 0 0 0 0 0 0 0 0 0

Total # of neighbors = 321398
Ave neighs/atom = 101.069
Ave special neighs/atom = 13.673
Neighbor list builds = 28
Dangerous builds = 0
write_dump all custom pysimm.dump.tmp id q x y z vx vy vz
quit


################################################################################
##################################    Init    ##################################
################################################################################
units           real
atom_style      full
pair_style      lj/cut/coul/long 12.0  12.0
kspace_style    pppm 1e-4
bond_style      harmonic
angle_style     harmonic
dihedral_style  fourier
improper_style  cvff
special_bonds   amber
pair_modify     mix arithmetic
read_data       temp.lmps
  orthogonal box = (-208.233 -208.233 -208.233) to (208.233 208.233 208.233)
  1 by 1 by 1 MPI processor grid
  reading atoms ...
  3248 atoms
  reading velocities ...
  3248 velocities
  scanning bonds ...
  4 = max bonds/atom
  scanning angles ...
  6 = max angles/atom
  scanning dihedrals ...
  24 = max dihedrals/atom
  scanning impropers ...
  2 = max impropers/atom
  reading bonds ...
  3784 bonds
  reading angles ...
  7776 angles
  reading dihedrals ...
  14208 dihedrals
  reading impropers ...
  384 impropers
  4 = max # of 1-2 neighbors
  9 = max # of 1-3 neighbors
  23 = max # of 1-4 neighbors
  22 = max # of special neighbors
  special bonds CPU = 0.00273299 secs
  read_data CPU = 0.0341601 secs
################################################################################

min_style cg
minimize 1e-06 1e-06 1000000 10000000
WARNING: Using 'neigh_modify every 1 delay 0 check yes' setting during minimization (../min.cpp:190)
PPPM initialization ...
WARNING: System is not charge neutral, net charge = -9.6e-05 (../kspace.cpp:313)
  using 12-bit tables for long-range coulomb (../kspace.cpp:332)
  G vector (1/distance) = 0.149188
  grid = 72 72 72
  stencil order = 5
  estimated absolute RMS force accuracy = 0.000567284
  estimated relative force accuracy = 1.70836e-06
  using double precision KISS FFT
  3d grid and FFT values/proc = 456533 373248
Neighbor list info ...
  update every 1 steps, delay 0 steps, check yes
  max neighbors/atom: 2000, page size: 100000
  master list distance cutoff = 14
  ghost atom cutoff = 14
  binsize = 7, bins = 60 60 60
  1 neighbor lists, perpetual/occasional/extra = 1 0 0
  (1) pair lj/cut/coul/long, perpetual
      attributes: half, newton on
      pair build: half/bin/newton
      stencil: half/bin/3d/newton
      bin: standard
Per MPI rank memory allocation (min/avg/max) = 70.15 | 70.15 | 70.15 Mbytes
Step Temp E_pair E_mol TotEng Press 
       0    255.91077    15739.931     24323.28    42540.092    47.707287 
    1236    255.91077     539.1938     18336.75    21352.825    1.5416663 
Loop time of 324.989 on 1 procs for 1236 steps with 3248 atoms

99.7% CPU use with 1 MPI tasks x no OpenMP threads

Minimization stats:
  Stopping criterion = energy tolerance
  Energy initial, next-to-last, final = 
         40063.2111547      18875.9615775      18875.9435787
  Force two-norm initial, final = 121556 8.21279
  Force max component initial, final = 69866.6 1.1432
  Final line search alpha, max atom move = 0.00951878 0.0108819
  Iterations, force evaluations = 1236 2465

MPI task timing breakdown:
Section |  min time  |  avg time  |  max time  |%varavg| %total
---------------------------------------------------------------
Pair    | 24.934     | 24.934     | 24.934     |   0.0 |  7.67
Bond    | 4.4677     | 4.4677     | 4.4677     |   0.0 |  1.37
Kspace  | 295.03     | 295.03     | 295.03     |   0.0 | 90.78
Neigh   | 0.32212    | 0.32212    | 0.32212    |   0.0 |  0.10
Comm    | 0.0069439  | 0.0069439  | 0.0069439  |   0.0 |  0.00
Output  | 0          | 0          | 0          |   0.0 |  0.00
Modify  | 0          | 0          | 0          |   0.0 |  0.00
Other   |            | 0.2299     |            |       |  0.07

Nlocal:    3248 ave 3248 max 3248 min
Histogram: 1 0 0 0 0 0 0 0 0 0
Nghost:    0 ave 0 max 0 min
Histogram: 1 0 0 0 0 0 0 0 0 0
Neighs:    313350 ave 313350 max 313350 min
Histogram: 1 0 0 0 0 0 0 0 0 0

Total # of neighbors = 313350
Ave neighs/atom = 96.4748
Ave special neighs/atom = 13.6724
Neighbor list builds = 33
Dangerous builds = 0
write_dump all custom pysimm.dump.tmp id q x y z vx vy vz
quit


################################################################################
##################################    Init    ##################################
################################################################################
units           real
atom_style      full
pair_style      lj/cut/coul/long 12.0  12.0
kspace_style    pppm 1e-4
bond_style      harmonic
angle_style     harmonic
dihedral_style  fourier
improper_style  cvff
special_bonds   amber
pair_modify     mix arithmetic
read_data       temp.lmps
  orthogonal box = (-209.699 -209.699 -209.699) to (209.699 209.699 209.699)
  1 by 1 by 1 MPI processor grid
  reading atoms ...
  3316 atoms
  reading velocities ...
  3316 velocities
  scanning bonds ...
  4 = max bonds/atom
  scanning angles ...
  6 = max angles/atom
  scanning dihedrals ...
  24 = max dihedrals/atom
  scanning impropers ...
  2 = max impropers/atom
  reading bonds ...
  3863 bonds
  reading angles ...
  7938 angles
  reading dihedrals ...
  14503 dihedrals
  reading impropers ...
  392 impropers
  4 = max # of 1-2 neighbors
  9 = max # of 1-3 neighbors
  23 = max # of 1-4 neighbors
  22 = max # of special neighbors
  special bonds CPU = 0.00281096 secs
  read_data CPU = 0.0347979 secs
################################################################################

min_style cg
minimize 1e-06 1e-06 1000000 10000000
WARNING: Using 'neigh_modify every 1 delay 0 check yes' setting during minimization (../min.cpp:190)
PPPM initialization ...
WARNING: System is not charge neutral, net charge = -9.8e-05 (../kspace.cpp:313)
  using 12-bit tables for long-range coulomb (../kspace.cpp:332)
  G vector (1/distance) = 0.148624
  grid = 72 72 72
  stencil order = 5
  estimated absolute RMS force accuracy = 0.000581048
  estimated relative force accuracy = 1.74981e-06
  using double precision KISS FFT
  3d grid and FFT values/proc = 456533 373248
Neighbor list info ...
  update every 1 steps, delay 0 steps, check yes
  max neighbors/atom: 2000, page size: 100000
  master list distance cutoff = 14
  ghost atom cutoff = 14
  binsize = 7, bins = 60 60 60
  1 neighbor lists, perpetual/occasional/extra = 1 0 0
  (1) pair lj/cut/coul/long, perpetual
      attributes: half, newton on
      pair build: half/bin/newton
      stencil: half/bin/3d/newton
      bin: standard
Per MPI rank memory allocation (min/avg/max) = 70.55 | 70.55 | 70.55 Mbytes
Step Temp E_pair E_mol TotEng Press 
       0    254.55437    50196.734    24672.887    77384.971    174.55659 
     893    254.55437    544.92575    18681.127    21741.402    1.4879055 
Loop time of 237.065 on 1 procs for 893 steps with 3316 atoms

99.7% CPU use with 1 MPI tasks x no OpenMP threads

Minimization stats:
  Stopping criterion = energy tolerance
  Energy initial, next-to-last, final = 
         74869.6209795       19226.062368      19226.0524031
  Force two-norm initial, final = 840030 10.3054
  Force max component initial, final = 468659 1.17794
  Final line search alpha, max atom move = 0.00947464 0.0111605
  Iterations, force evaluations = 893 1780

MPI task timing breakdown:
Section |  min time  |  avg time  |  max time  |%varavg| %total
---------------------------------------------------------------
Pair    | 18.905     | 18.905     | 18.905     |   0.0 |  7.97
Bond    | 3.3172     | 3.3172     | 3.3172     |   0.0 |  1.40
Kspace  | 214.43     | 214.43     | 214.43     |   0.0 | 90.45
Neigh   | 0.23335    | 0.23335    | 0.23335    |   0.0 |  0.10
Comm    | 0.0032706  | 0.0032706  | 0.0032706  |   0.0 |  0.00
Output  | 0          | 0          | 0          |   0.0 |  0.00
Modify  | 0          | 0          | 0          |   0.0 |  0.00
Other   |            | 0.1737     |            |       |  0.07

Nlocal:    3316 ave 3316 max 3316 min
Histogram: 1 0 0 0 0 0 0 0 0 0
Nghost:    0 ave 0 max 0 min
Histogram: 1 0 0 0 0 0 0 0 0 0
Neighs:    324889 ave 324889 max 324889 min
Histogram: 1 0 0 0 0 0 0 0 0 0

Total # of neighbors = 324889
Ave neighs/atom = 97.9762
Ave special neighs/atom = 13.6719
Neighbor list builds = 23
Dangerous builds = 0
write_dump all custom pysimm.dump.tmp id q x y z vx vy vz
quit


################################################################################
##################################    Init    ##################################
################################################################################
units           real
atom_style      full
pair_style      lj/cut/coul/long 12.0  12.0
kspace_style    pppm 1e-4
bond_style      harmonic
angle_style     harmonic
dihedral_style  fourier
improper_style  cvff
special_bonds   amber
pair_modify     mix arithmetic
read_data       temp.lmps
  orthogonal box = (-211.145 -211.145 -211.145) to (211.145 211.145 211.145)
  1 by 1 by 1 MPI processor grid
  reading atoms ...
  3384 atoms
  reading velocities ...
  3384 velocities
  scanning bonds ...
  4 = max bonds/atom
  scanning angles ...
  6 = max angles/atom
  scanning dihedrals ...
  24 = max dihedrals/atom
  scanning impropers ...
  2 = max impropers/atom
  reading bonds ...
  3942 bonds
  reading angles ...
  8100 angles
  reading dihedrals ...
  14798 dihedrals
  reading impropers ...
  400 impropers
  4 = max # of 1-2 neighbors
  9 = max # of 1-3 neighbors
  23 = max # of 1-4 neighbors
  22 = max # of special neighbors
  special bonds CPU = 0.00280404 secs
  read_data CPU = 0.03529 secs
################################################################################

min_style cg
minimize 1e-06 1e-06 1000000 10000000
WARNING: Using 'neigh_modify every 1 delay 0 check yes' setting during minimization (../min.cpp:190)
PPPM initialization ...
WARNING: System is not charge neutral, net charge = -0.0001 (../kspace.cpp:313)
  using 12-bit tables for long-range coulomb (../kspace.cpp:332)
  G vector (1/distance) = 0.148071
  grid = 72 72 72
  stencil order = 5
  estimated absolute RMS force accuracy = 0.0005948
  estimated relative force accuracy = 1.79122e-06
  using double precision KISS FFT
  3d grid and FFT values/proc = 456533 373248
Neighbor list info ...
  update every 1 steps, delay 0 steps, check yes
  max neighbors/atom: 2000, page size: 100000
  master list distance cutoff = 14
  ghost atom cutoff = 14
  binsize = 7, bins = 61 61 61
  1 neighbor lists, perpetual/occasional/extra = 1 0 0
  (1) pair lj/cut/coul/long, perpetual
      attributes: half, newton on
      pair build: half/bin/newton
      stencil: half/bin/3d/newton
      bin: standard
Per MPI rank memory allocation (min/avg/max) = 70.6 | 70.6 | 70.6 Mbytes
Step Temp E_pair E_mol TotEng Press 
       0    245.43487    9282.9759    25343.085    37101.046    21.862211 
    1365    245.43487    521.58239    19054.271    22050.839    1.4557342 
Loop time of 363.887 on 1 procs for 1365 steps with 3384 atoms

99.7% CPU use with 1 MPI tasks x no OpenMP threads

Minimization stats:
  Stopping criterion = energy tolerance
  Energy initial, next-to-last, final = 
         34626.0611569      19575.8687332      19575.8537924
  Force two-norm initial, final = 48020.9 10.0496
  Force max component initial, final = 18216.8 1.87396
  Final line search alpha, max atom move = 0.00803571 0.0150586
  Iterations, force evaluations = 1365 2724

MPI task timing breakdown:
Section |  min time  |  avg time  |  max time  |%varavg| %total
---------------------------------------------------------------
Pair    | 30.13      | 30.13      | 30.13      |   0.0 |  8.28
Bond    | 5.1543     | 5.1543     | 5.1543     |   0.0 |  1.42
Kspace  | 327.89     | 327.89     | 327.89     |   0.0 | 90.11
Neigh   | 0.4376     | 0.4376     | 0.4376     |   0.0 |  0.12
Comm    | 0.0075316  | 0.0075316  | 0.0075316  |   0.0 |  0.00
Output  | 0          | 0          | 0          |   0.0 |  0.00
Modify  | 0          | 0          | 0          |   0.0 |  0.00
Other   |            | 0.2641     |            |       |  0.07

Nlocal:    3384 ave 3384 max 3384 min
Histogram: 1 0 0 0 0 0 0 0 0 0
Nghost:    0 ave 0 max 0 min
Histogram: 1 0 0 0 0 0 0 0 0 0
Neighs:    345270 ave 345270 max 345270 min
Histogram: 1 0 0 0 0 0 0 0 0 0

Total # of neighbors = 345270
Ave neighs/atom = 102.03
Ave special neighs/atom = 13.6714
Neighbor list builds = 42
Dangerous builds = 0
write_dump all custom pysimm.dump.tmp id q x y z vx vy vz
quit
