pySIMM System Object

1684 atoms
1967 bonds
4050 angles
7423 dihedrals
200 impropers

5 atom types
9 bond types
18 angle types
19 dihedral types
2 improper types

-166.438373 166.438373 xlo xhi
-166.438373 166.438373 ylo yhi
-166.438373 166.438373 zlo zhi

Masses

   1	12.01	# ca
   2	12.01	# cy
   3	12.01	# c3
   4	1.008	# ha
   5	1.008	# hc

Pair Coeffs

   1	0.086	3.3996695084235347	# ca
   2	0.086	3.3996695084235347	# cy
   3	0.1094	3.3996695084235347	# c3
   4	0.015	2.59964245953351	# ha
   5	0.0157	2.649532787749369	# hc

Bond Coeffs

   1	461.1	1.3984	# ca,ca
   2	300.9	1.5375	# c3,c3
   3	305.9	1.5319	# c3,cy
   4	345.8	1.086	# ca,ha
   5	321.0	1.5156	# c3,ca
   6	285.0	1.5562	# cy,cy
   7	333.3	1.0949	# cy,hc
   8	330.6	1.0969	# c3,hc
   9	321.2	1.5154	# ca,cy

Angle Coeffs

   1	67.9	96.03	# cy,c3,cy
   2	45.97	114.53	# ca,cy,hc
   3	66.62	120.02	# ca,ca,ca
   4	61.4	116.81	# ca,cy,cy
   5	44.83	114.79	# cy,cy,hc
   6	46.43	110.14	# c3,cy,hc
   7	62.86	111.51	# c3,c3,c3
   8	63.15	112.07	# c3,c3,ca
   9	46.34	109.8	# c3,c3,hc
  10	48.18	119.88	# ca,ca,ha
  11	39.4	107.58	# hc,c3,hc
  12	63.53	120.77	# c3,ca,ca
  13	60.66	118.7	# c3,cy,cy
  14	63.51	120.86	# ca,ca,cy
  15	62.73	112.39	# c3,c3,cy
  16	46.29	110.75	# cy,c3,hc
  17	46.8	110.47	# ca,c3,hc
  18	62.8	113.57	# c3,cy,ca

Dihedral Coeffs

   1	3	0.18	3	0.0	0.25	2	180.0	0.2	1	180.0	# c3,c3,cy,cy
   2	1	0.16	3	0.0	# hc,c3,cy,cy
   3	1	0.16	3	0.0	# cy,c3,cy,hc
   4	1	0.16	3	0.0	# c3,c3,cy,hc
   5	1	0.15	3	0.0	# hc,c3,cy,hc
   6	1	3.625	2	180	# X,ca,ca,X
   7	1	0.15555555555555556	3	0	# X,cy,cy,X
   8	3	0.18	3	0	0.25	2	180	0.2	1	180	# c3,c3,c3,c3
   9	1	0.16	3	0	# hc,c3,c3,c3
  10	1	0.0	2	0.0	# ca,ca,cy,cy
  11	1	0.0	2	0.0	# ca,ca,cy,c3
  12	1	0.0	2	0	# X,c3,ca,X
  13	1	0.15555555555555556	3	0	# X,c3,c3,X
  14	3	0.38	3	180.0	0.0	2	0.0	1.15	1	0.0	# ca,ca,cy,hc
  15	3	0.18	3	0.0	0.25	2	180.0	0.2	1	180.0	# cy,c3,cy,cy
  16	1	0.16	3	0.0	# cy,c3,cy,ca
  17	1	0.16	3	0.0	# c3,c3,cy,ca
  18	1	0.16	3	0.0	# hc,c3,cy,ca
  19	1	0.15	3	0	# hc,c3,c3,hc

Improper Coeffs

   1	1.1	-1	2	# ca,ca,ca,c3
   2	1.1	-1	2	# ca,X,X,ha

Atoms

   1	1	1	-0.162043	-14.5357	20.1691	28.473
   2	1	1	-0.131368	-12.0236	20.0458	26.987
   3	1	1	0.053767	-14.4728	19.9252	27.0881
   4	1	1	-0.089414	-12.0837	20.053	28.3911
   5	1	2	0.07683	-12.6395	20.7521	30.3161
   6	1	1	-0.043169	-13.2771	20.1021	29.1005
   7	1	1	0.067251	-13.2817	19.8602	26.3869
   8	1	2	0.019658	-11.2803	20.7071	29.4992
   9	1	3	-0.13357	-15.7873	20.6682	29.1717
  10	1	3	-0.181622	-10.7755	20.4193	26.2085
  11	1	2	-0.091671	-10.0823	20.7896	31.4832
  12	1	1	0.028189	-9.45609	20.2405	32.7503
  13	1	3	-0.001388	-10.3657	19.7783	30.339
  14	1	3	0.000341	-12.3654	19.8343	31.5389
  15	1	2	-0.108264	-11.4434	20.8197	32.3076
  16	1	3	-0.051806	-11.3699	18.7777	30.9797
  17	1	1	0.038269	-10.6254	20.2572	33.455
  18	1	1	0.012104	-9.70054	18.7527	35.064
  19	1	1	0.009692	-8.46569	18.7294	34.3356
  20	1	1	-0.221685	-8.37111	19.4404	33.1066
  21	1	1	-0.227504	-10.8261	19.4647	34.5831
  22	1	1	0.01292	-7.37219	17.9561	34.8127
  23	1	1	-0.039953	-5.04738	17.3498	34.8089
  24	1	2	0.00887	-3.7737	16.3138	36.1435
  25	1	1	-0.185129	-6.05977	18.1631	34.3004
  26	1	1	-0.021786	-5.25078	16.4621	35.8232
  27	1	1	0.017184	-7.57322	17.0086	35.8708
  28	1	1	-0.198557	-6.49129	16.2873	36.4322
  29	1	2	-0.002904	-3.53605	17.3502	34.965
  30	1	3	0.041883	-3.15607	17.0363	37.3666
  31	1	3	0.005012	-3.98049	18.2774	37.8046
  32	1	3	-0.193804	-1.95956	17.7387	36.6928
  33	1	3	0.042479	-2.81595	18.5224	35.6772
  34	1	3	0.00144	-3.74857	19.2907	36.6526
  35	1	3	-0.061914	-9.82456	18.0201	36.3899
  36	1	3	-0.051146	-8.97065	16.7458	36.4076
  37	1	5	0.024509	-13.0564	21.7306	30.5822
  38	1	5	0.045413	-10.8086	21.6562	29.2188
  39	1	5	0.093061	-15.8814	21.7567	29.0726
  40	1	5	0.054925	-15.7671	20.4255	30.2415
  41	1	5	0.0564	-16.6874	20.211	28.7419
  42	1	5	0.072515	-10.7681	19.9415	25.2209
  43	1	5	0.098261	-9.8697	20.1022	26.7401
  44	1	5	0.069746	-10.7189	21.5047	26.0596
  45	1	5	0.056967	-9.67679	21.753	31.1511
  46	1	5	0.059195	-9.49529	19.3481	29.8282
  47	1	5	0.053458	-13.2421	19.4527	32.0768
  48	1	5	0.063182	-11.889	21.8029	32.5008
  49	1	5	0.018836	-10.915	18.1609	31.7653
  50	1	5	0.033342	-11.8307	18.1064	30.2436
  51	1	4	0.15438	-7.53626	19.329	32.4249
  52	1	4	0.144555	-11.7985	19.4	35.061
  53	1	5	0.03716	-3.33645	15.3226	35.9804
  54	1	4	0.135836	-5.81459	18.9636	33.6121
  55	1	4	0.135526	-6.61142	15.6455	37.2996
  56	1	5	0.041277	-2.95924	16.9607	34.1189
  57	1	5	0.00856	-2.8846	16.3733	38.1977
  58	1	5	-0.004553	-5.04202	18.0543	37.9619
  59	1	5	0.042416	-1.26488	17.0349	36.2136
  60	1	5	0.068411	-1.40173	18.3914	37.3792
  61	1	5	0.009741	-2.24257	19.1777	35.0094
  62	1	5	0.002304	-4.68416	19.6173	36.1842
  63	1	5	0.050818	-10.8695	17.7602	36.6017
  64	1	5	0.045418	-9.49341	18.6849	37.1979
  65	1	5	0.050853	-8.93355	16.3476	37.4296
  66	1	5	0.040294	-9.4547	15.9808	35.7872
  67	1	1	-0.162043	-9.55219	30.9489	18.5079
  68	1	1	-0.131368	-8.68576	28.4186	17.3456
  69	1	1	0.053767	-8.7724	30.8711	17.337
  70	1	1	-0.089414	-9.65773	28.5016	18.3556
  71	1	2	0.07683	-10.4444	29.07	20.2436
  72	1	1	-0.043169	-10.0784	29.7048	18.9097
  73	1	1	0.067251	-8.36604	29.6675	16.7875
  74	1	2	0.019658	-9.95427	27.7032	19.6071
  75	1	3	-0.13357	-9.6253	32.1957	19.3707
  76	1	3	-0.181622	-7.89198	27.1558	17.0635
  77	1	2	-0.091671	-11.2591	26.5142	21.0948
  78	1	1	0.028189	-12.532	25.9119	21.649
  79	1	3	-0.001388	-11.2265	26.8189	19.5757
  80	1	3	0.000341	-11.9531	28.8223	20.5263
  81	1	2	-0.108264	-11.7639	27.8807	21.7495
  82	1	3	-0.051806	-12.3752	27.8505	19.3876
  83	1	1	0.038269	-12.9635	27.0703	22.2075
  84	1	1	0.012104	-14.8331	25.9379	23.1488
  85	1	1	0.009692	-14.3991	24.7064	22.5414
  86	1	1	-0.221685	-13.2015	24.6986	21.7659
  87	1	1	-0.227504	-14.1123	27.1498	22.9863
  88	1	1	0.01292	-15.1369	23.507	22.7608
  89	1	1	-0.039953	-15.3737	21.1108	22.6801
  90	1	2	0.00887	-16.5645	19.7085	23.7328
  91	1	1	-0.185129	-14.5891	22.2349	22.4235
  92	1	1	-0.021786	-16.5593	21.1796	23.3502
  93	1	1	0.017184	-16.4181	23.5624	23.4049
  94	1	1	-0.198557	-17.1116	22.3848	23.7768
  95	1	2	-0.002904	-15.186	19.6259	22.9419
  96	1	3	0.041883	-16.1643	19.2602	25.1647
  97	1	3	0.005012	-15.282	20.3361	25.8679
  98	1	3	-0.193804	-15.1198	18.18	24.7974
  99	1	3	0.042479	-14.1876	19.1396	24.0214
 100	1	3	0.00144	-13.9207	20.2573	25.0715
 101	1	3	-0.061914	-16.0166	25.9499	24.1018
 102	1	3	-0.051146	-17.0644	24.9025	23.7115
 103	1	5	0.024509	-9.89575	29.4696	21.1047
 104	1	5	0.045413	-9.07955	27.2077	20.0449
 105	1	5	0.093061	-10.5602	32.2258	19.944
 106	1	5	0.054925	-9.58047	33.1038	18.7565
 107	1	5	0.0564	-8.79044	32.2275	20.0817
 108	1	5	0.072515	-6.99241	27.1137	17.6901
 109	1	5	0.098261	-7.57481	27.115	16.0141
 110	1	5	0.069746	-8.48947	26.2588	17.268
 111	1	5	0.056967	-10.3376	26.0661	21.4861
 112	1	5	0.059195	-11.2147	25.958	18.8956
 113	1	5	0.053458	-12.5798	29.7102	20.676
 114	1	5	0.063182	-11.1667	28.3134	22.5612
 115	1	5	0.018836	-13.37	27.4145	19.546
 116	1	5	0.033342	-12.3629	28.3247	18.3976
 117	1	4	0.15438	-12.7997	23.8202	21.2787
 118	1	4	0.144555	-14.4057	28.0732	23.4759
 119	1	5	0.03716	-17.373	19.0985	23.315
 120	1	4	0.135836	-13.5764	22.0971	22.0682
 121	1	4	0.135526	-18.0161	22.4111	24.3768
 122	1	5	0.041277	-15.1981	18.9724	22.0626
 123	1	5	0.00856	-16.9953	18.8961	25.7817
 124	1	5	-0.004553	-15.709	21.344	25.9394
 125	1	5	0.042416	-15.5369	17.3878	24.1598
 126	1	5	0.068411	-14.6456	17.7065	25.6671
 127	1	5	0.009741	-13.2764	18.6711	23.629
 128	1	5	0.002304	-13.5592	21.2175	24.6854
 129	1	5	0.050818	-16.4881	26.9405	24.131
 130	1	5	0.045418	-15.6601	25.7383	25.1181
 131	1	5	0.050853	-17.8049	24.8114	24.5163
 132	1	5	0.040294	-17.6054	25.2503	22.8221
 133	1	1	-0.162043	3.24125	24.3556	20.3632
 134	1	1	-0.131368	2.18277	23.3435	17.8089
 135	1	1	0.053767	3.92616	23.4435	19.5382
 136	1	1	-0.089414	1.41558	24.0709	18.736
 137	1	2	0.07683	0.799937	25.5686	20.1088
 138	1	1	-0.043169	1.90939	24.5438	19.943
 139	1	1	0.067251	3.42673	22.9686	18.3442
 140	1	2	0.019658	0.246119	25.0333	18.7166
 141	1	3	-0.13357	3.89107	25.1284	21.496
 142	1	3	-0.181622	1.76368	23.0915	16.3728
 143	1	2	-0.091671	-0.857348	27.0358	18.3649
 144	1	1	0.028189	-1.00829	28.4984	17.9902
 145	1	3	-0.001388	0.352544	26.2655	17.7766
 146	1	3	0.000341	1.13635	27.057	19.8254
 147	1	2	-0.108264	-0.332351	27.5646	19.7653
 148	1	3	-0.051806	1.57724	27.0442	18.3346
 149	1	1	0.038269	-0.56961	28.9547	19.2056
 150	1	1	0.012104	-1.85899	30.9603	18.9205
 151	1	1	0.009692	-2.29878	30.5131	17.6307
 152	1	1	-0.221685	-1.9116	29.2114	17.2007
 153	1	1	-0.227504	-1.03919	30.1514	19.7423
 154	1	1	0.01292	-3.21369	31.3079	16.8759
 155	1	1	-0.039953	-4.78208	31.6215	15.0693
 156	1	2	0.00887	-6.46968	32.8786	14.8043
 157	1	1	-0.185129	-3.86817	30.7909	15.719
 158	1	1	-0.021786	-5.16152	32.8294	15.5762
 159	1	1	0.017184	-3.55411	32.6267	17.3292
 160	1	1	-0.198557	-4.60022	33.3694	16.7297
 161	1	2	-0.002904	-6.01846	31.4793	14.1966
 162	1	3	0.041883	-7.81485	32.5305	15.5011
 163	1	3	0.005012	-7.58996	31.6407	16.7634
 164	1	3	-0.193804	-8.35616	31.5043	14.4781
 165	1	3	0.042479	-7.16548	30.5267	14.6124
 166	1	3	0.00144	-7.1323	30.2628	16.1448
 167	1	3	-0.061914	-2.44715	32.2117	19.5496
 168	1	3	-0.051146	-2.80896	33.2569	18.4921
 169	1	5	0.024509	0.165168	25.4106	20.9887
 170	1	5	0.045413	-0.738633	24.5515	18.7256
 171	1	5	0.093061	4.68562	24.5395	21.9713
 172	1	5	0.054925	3.15766	25.3881	22.2695
 173	1	5	0.0564	4.33672	26.0598	21.1256
 174	1	5	0.072515	2.07795	23.9189	15.7247
 175	1	5	0.098261	0.674235	22.9919	16.2918
 176	1	5	0.069746	2.2142	22.1689	15.986
 177	1	5	0.056967	-1.79595	26.4689	18.3386
 178	1	5	0.059195	0.338756	26.0687	16.6974
 179	1	5	0.053458	1.8063	27.5557	20.5367
 180	1	5	0.063182	-0.917823	27.3349	20.6639
 181	1	5	0.018836	1.67039	28.0521	17.9102
 182	1	5	0.033342	2.5256	26.5148	18.1758
 183	1	4	0.15438	-2.32418	28.7238	16.3292
 184	1	4	0.144555	-0.860442	30.401	20.7835
 185	1	5	0.03716	-6.5749	33.6868	14.0721
 186	1	4	0.135836	-3.76107	29.7722	15.3738
 187	1	4	0.135526	-4.96558	34.2997	17.1536
 188	1	5	0.041277	-5.85108	31.4798	13.1138
 189	1	5	0.00856	-8.47698	33.3877	15.6758
 190	1	5	-0.004553	-6.91157	32.0429	17.5258
 191	1	5	0.042416	-8.44719	31.9231	13.466
 192	1	5	0.068411	-9.32389	31.0671	14.7571
 193	1	5	0.009741	-7.25194	29.6164	14.0059
 194	1	5	0.002304	-6.1985	29.8623	16.5553
 195	1	5	0.050818	-1.74846	32.6534	20.2715
 196	1	5	0.045418	-3.35196	31.9403	20.1085
 197	1	5	0.050853	-3.39961	34.056	18.9579
 198	1	5	0.040294	-1.8882	33.7219	18.1172
 199	1	1	-0.162043	5.44204	9.5504	15.4376
 200	1	1	-0.131368	5.71248	11.0411	12.9515
 201	1	1	0.053767	5.63351	8.92884	14.1907
 202	1	1	-0.089414	5.77215	11.6552	14.2167
 203	1	2	0.07683	5.04897	12.1134	16.1594
 204	1	1	-0.043169	5.64488	10.9415	15.403
 205	1	1	0.067251	5.77004	9.63521	13.0074
 206	1	2	0.019658	5.19309	12.93	14.809
 207	1	3	-0.13357	4.83768	8.83527	16.6328
 208	1	3	-0.181622	5.36523	11.8013	11.6844
 209	1	2	-0.091671	5.20729	14.9173	16.0144
 210	1	1	0.028189	5.79436	16.011	16.8886
 211	1	3	-0.001388	6.19167	14.0656	15.1653
 212	1	3	0.000341	5.98456	12.8556	17.1496
 213	1	2	-0.108264	5.06617	14.0861	17.3711
 214	1	3	-0.051806	7.11243	13.4082	16.2323
 215	1	1	0.038269	5.67991	15.2992	18.0381
 216	1	1	0.012104	6.63537	17.0871	19.2781
 217	1	1	0.009692	6.74553	17.8655	18.0722
 218	1	1	-0.221685	6.33048	17.2954	16.8309
 219	1	1	-0.227504	6.10598	15.7719	19.2729
 220	1	1	0.01292	7.21976	19.2073	18.1406
 221	1	1	-0.039953	7.43948	21.4294	17.2309
 222	1	2	0.00887	7.6264	23.3457	18.123
 223	1	1	-0.185129	7.00468	20.113	17.0632
 224	1	1	-0.021786	7.95241	21.8885	18.4115
 225	1	1	0.017184	7.81251	19.6947	19.3513
 226	1	1	-0.198557	8.12244	21.0652	19.5226
 227	1	2	-0.002904	7.03331	22.8127	16.7478
 228	1	3	0.041883	6.40027	24.0322	18.7862
 229	1	3	0.005012	5.34428	22.9813	19.2452
 230	1	3	-0.193804	5.73746	24.6218	17.5192
 231	1	3	0.042479	5.5509	23.2612	16.8078
 232	1	3	0.00144	4.76509	22.4404	17.873
 233	1	3	-0.061914	6.97585	17.698	20.6274
 234	1	3	-0.051146	8.08865	18.7436	20.5025
 235	1	5	0.024509	4.04211	11.9324	16.5543
 236	1	5	0.045413	4.28017	13.2852	14.3166
 237	1	5	0.093061	5.14008	7.78079	16.6569
 238	1	5	0.054925	3.74187	8.87156	16.596
 239	1	5	0.0564	5.16047	9.29701	17.5743
 240	1	5	0.072515	5.82854	11.3358	10.8056
 241	1	5	0.098261	5.71512	12.8396	11.7372
 242	1	5	0.069746	4.27981	11.8171	11.5252
 243	1	5	0.056967	4.28558	15.1971	15.4901
 244	1	5	0.059195	6.68745	14.5693	14.3262
 245	1	5	0.053458	6.29783	12.3022	18.0436
 246	1	5	0.063182	4.05426	13.8405	17.7156
 247	1	5	0.018836	7.75949	14.1338	16.7418
 248	1	5	0.033342	7.74767	12.616	15.8153
 249	1	4	0.15438	6.41794	17.8012	15.8776
 250	1	4	0.144555	5.99725	15.1821	20.1777
 251	1	5	0.03716	8.48034	24.0249	18.0237
 252	1	4	0.135836	6.41564	19.8593	16.1907
 253	1	4	0.135526	8.43281	21.4692	20.4814
 254	1	5	0.041277	7.54348	23.1836	15.852
 255	1	5	0.00856	6.64901	24.775	19.5544
 256	1	5	-0.004553	5.69873	22.2015	19.9295
 257	1	5	0.042416	6.40549	25.2989	16.9687
 258	1	5	0.068411	4.79666	25.1523	17.7163
 259	1	5	0.009741	5.04863	23.3223	15.8342
 260	1	5	0.002304	4.78103	21.3502	17.7649
 261	1	5	0.050818	7.28359	16.9247	21.3428
 262	1	5	0.045418	6.0789	18.1757	21.0421
 263	1	5	0.050853	8.18821	19.2848	21.452
 264	1	5	0.040294	9.04439	18.2335	20.3265
 265	1	1	-0.162043	-5.95135	9.21158	5.68327
 266	1	1	-0.131368	-3.9681	8.13923	3.81135
 267	1	1	0.053767	-6.26869	8.34513	4.62609
 268	1	1	-0.089414	-3.69198	9.19169	4.71087
 269	1	2	0.07683	-3.60676	10.242	6.5546
 270	1	1	-0.043169	-4.6382	9.70148	5.59042
 271	1	1	0.067251	-5.34509	7.84344	3.73195
 272	1	2	0.019658	-2.51404	9.67986	5.5476
 273	1	3	-0.13357	-6.86595	9.46389	6.86822
 274	1	3	-0.181622	-2.89084	7.32173	3.12351
 275	1	2	-0.091671	-0.973421	9.66012	7.30352
 276	1	1	0.028189	-0.289363	9.1225	8.54907
 277	1	3	-0.001388	-1.73207	8.64139	6.39892
 278	1	3	0.000341	-3.37761	9.42731	7.85553
 279	1	2	-0.108264	-2.1014	10.1767	8.30468
 280	1	3	-0.051806	-2.82754	8.06635	7.34111
 281	1	1	0.038269	-1.27222	9.53536	9.39711
 282	1	1	0.012104	-0.397483	8.14866	11.1282
 283	1	1	0.009692	0.691616	7.77588	10.2717
 284	1	1	-0.221685	0.703866	8.21693	8.91801
 285	1	1	-0.227504	-1.4289	9.00772	10.6763
 286	1	1	0.01292	1.74095	6.96463	10.7786
 287	1	1	-0.039953	4.02284	6.20568	10.7367
 288	1	2	0.00887	5.33728	5.50156	12.2443
 289	1	1	-0.185129	3.01069	6.95972	10.1409
 290	1	1	-0.021786	3.85092	5.53941	11.92
 291	1	1	0.017184	1.57176	6.26621	12.0161
 292	1	1	-0.198557	2.64828	5.57915	12.6262
 293	1	2	-0.002904	5.53259	6.29551	10.8821
 294	1	3	0.041883	5.9465	6.46271	13.2992
 295	1	3	0.005012	5.04049	7.71048	13.5077
 296	1	3	-0.193804	7.10683	7.04731	12.4602
 297	1	3	0.042479	6.20131	7.61877	11.3447
 298	1	3	0.00144	5.20784	8.50736	12.1573
 299	1	3	-0.061914	-0.440072	7.66919	12.5709
 300	1	3	-0.051146	0.225634	6.29351	12.7206
 301	1	5	0.024509	-3.64249	11.3288	6.69616
 302	1	5	0.045413	-1.87593	10.4186	5.04887
 303	1	5	0.093061	-7.91699	9.49663	6.55497
 304	1	5	0.054925	-6.6315	10.4192	7.35397
 305	1	5	0.0564	-6.76124	8.66884	7.61683
 306	1	5	0.072515	-3.2557	6.90319	2.17721
 307	1	5	0.098261	-2.56908	6.48833	3.76007
 308	1	5	0.069746	-2.01062	7.93739	2.90062
 309	1	5	0.056967	-0.40364	10.4196	6.75486
 310	1	5	0.059195	-1.12126	7.91374	5.85041
 311	1	5	0.053458	-4.20767	9.38978	8.57164
 312	1	5	0.063182	-2.22247	11.262	8.40629
 313	1	5	0.018836	-2.41438	7.44102	8.14288
 314	1	5	0.033342	-3.58293	7.47908	6.80553
 315	1	4	0.15438	1.41136	7.84693	8.18434
 316	1	4	0.144555	-2.2908	9.25222	11.289
 317	1	5	0.03716	5.80262	4.51003	12.2697
 318	1	4	0.135836	3.24739	7.62281	9.31621
 319	1	4	0.135526	2.56942	5.1648	13.6266
 320	1	5	0.041277	6.12644	5.77183	10.1248
 321	1	5	0.00856	6.25999	5.98128	14.234
 322	1	5	-0.004553	4.00212	7.51724	13.7998
 323	1	5	0.042416	7.79469	6.27305	12.0923
 324	1	5	0.068411	7.69688	7.80895	12.9867
 325	1	5	0.009741	6.73905	8.16157	10.5573
 326	1	5	0.002304	4.26499	8.76523	11.6613
 327	1	5	0.050818	-1.47317	7.61471	12.937
 328	1	5	0.045418	0.08497	8.39377	13.2066
 329	1	5	0.050853	0.329159	6.05193	13.786
 330	1	5	0.040294	-0.42651	5.52694	12.2828
 331	1	1	-0.162043	-16.0544	2.01411	-2.95651
 332	1	1	-0.131368	-14.0901	-0.0400323	-2.2771
 333	1	1	0.053767	-16.3538	0.901612	-2.14801
 334	1	1	-0.089414	-13.8612	0.937868	-3.26704
 335	1	2	0.07683	-13.7465	2.90119	-4.06863
 336	1	1	-0.043169	-14.8003	1.91121	-3.59667
 337	1	1	0.067251	-15.4239	-0.0645823	-1.8251
 338	1	2	0.019658	-12.6736	1.79908	-3.68402
 339	1	3	-0.13357	-16.9059	3.2704	-2.98414
 340	1	3	-0.181622	-12.9825	-0.880499	-1.66967
 341	1	2	-0.091671	-11.0483	3.48328	-3.40763
 342	1	1	0.028189	-10.346	4.61182	-2.65648
 343	1	3	-0.001388	-11.849	2.46481	-2.54494
 344	1	3	0.000341	-13.4286	4.07942	-3.11398
 345	1	2	-0.108264	-12.1262	4.56387	-3.80981
 346	1	3	-0.051806	-12.9039	3.36012	-1.83846
 347	1	1	0.038269	-11.2943	5.55196	-3.01527
 348	1	1	0.012104	-11.092	6.60667	-0.862112
 349	1	1	0.009692	-10.1286	5.63313	-0.467122
 350	1	1	-0.221685	-9.74386	4.62528	-1.3901
 351	1	1	-0.227504	-11.7049	6.55102	-2.13023
 352	1	1	0.01292	-9.72969	5.55205	0.89471
 353	1	1	-0.039953	-8.34747	4.68487	2.65325
 354	1	2	0.00887	-8.23181	4.94245	4.74758
 355	1	1	-0.185129	-8.56611	4.82643	1.28079
 356	1	1	-0.021786	-9.18006	5.20751	3.59728
 357	1	1	0.017184	-10.5294	6.19437	1.89984
 358	1	1	-0.198557	-10.2451	6.04393	3.27695
 359	1	2	-0.002904	-7.24249	4.34871	3.6487
 360	1	3	0.041883	-7.43178	6.11037	5.36303
 361	1	3	0.005012	-7.29137	7.27325	4.3357
 362	1	3	-0.193804	-6.02538	5.46905	5.33887
 363	1	3	0.042479	-5.98815	5.25877	3.80697
 364	1	3	0.00144	-6.25606	6.70272	3.28343
 365	1	3	-0.061914	-11.5554	7.65677	0.131169
 366	1	3	-0.051146	-11.7459	7.02063	1.51336
 367	1	5	0.024509	-13.8148	3.18246	-5.12603
 368	1	5	0.045413	-12.065	1.39332	-4.50031
 369	1	5	0.093061	-16.6614	3.92567	-2.13898
 370	1	5	0.054925	-17.9733	3.02414	-2.92218
 371	1	5	0.0564	-16.7466	3.83711	-3.90995
 372	1	5	0.072515	-12.3294	-0.272531	-1.03504
 373	1	5	0.098261	-12.3614	-1.33307	-2.45258
 374	1	5	0.069746	-13.391	-1.69449	-1.05845
 375	1	5	0.056967	-10.4675	3.02738	-4.21816
 376	1	5	0.059195	-11.2634	1.79279	-1.90783
 377	1	5	0.053458	-14.2198	4.82518	-2.97026
 378	1	5	0.063182	-12.2356	4.79636	-4.87585
 379	1	5	0.018836	-12.4732	4.04132	-1.09709
 380	1	5	0.033342	-13.6764	2.77845	-1.33521
 381	1	4	0.15438	-9.17141	3.76256	-1.07255
 382	1	4	0.144555	-12.5638	7.17237	-2.36312
 383	1	5	0.03716	-8.56993	4.22387	5.50243
 384	1	4	0.135836	-7.85039	4.4423	0.561395
 385	1	4	0.135526	-10.8076	6.56592	4.04506
 386	1	5	0.041277	-7.00321	3.28637	3.76956
 387	1	5	0.00856	-7.77209	6.4288	6.35624
 388	1	5	-0.004553	-8.21815	7.67	3.90588
 389	1	5	0.042416	-5.98104	4.52317	5.89681
 390	1	5	0.068411	-5.23302	6.12706	5.71607
 391	1	5	0.009741	-5.05369	4.82049	3.43488
 392	1	5	0.002304	-6.58819	6.78009	2.24042
 393	1	5	0.050818	-12.4932	8.12808	-0.188902
 394	1	5	0.045418	-10.8034	8.45361	0.19672
 395	1	5	0.050853	-11.9367	7.80896	2.25266
 396	1	5	0.040294	-12.6337	6.37551	1.49683
 397	1	1	-0.162043	-20.3765	-13.072	1.82997
 398	1	1	-0.131368	-17.6203	-12.5428	2.6844
 399	1	1	0.053767	-19.6506	-13.9161	2.68846
 400	1	1	-0.089414	-18.2702	-11.8165	1.66775
 401	1	2	0.07683	-19.7393	-10.7321	0.590517
 402	1	1	-0.043169	-19.5591	-12.0926	1.23378
 403	1	1	0.067251	-18.337	-13.6989	3.0524
 404	1	2	0.019658	-18.2778	-10.3982	1.1173
 405	1	3	-0.13357	-21.8842	-13.131	1.66748
 406	1	3	-0.181622	-16.372	-12.0605	3.40084
 407	1	2	-0.091671	-18.7705	-8.11827	1.05204
 408	1	1	0.028189	-19.4044	-6.80964	1.51034
 409	1	3	-0.001388	-18.5084	-9.22247	2.11397
 410	1	3	0.000341	-20.6453	-9.7103	1.31866
 411	1	2	-0.108264	-20.2089	-8.47578	0.485501
 412	1	3	-0.051806	-19.9268	-9.50563	2.68263
 413	1	1	0.038269	-20.6378	-7.12154	1.00243
 414	1	1	0.012104	-21.1491	-4.79455	0.749032
 415	1	1	0.009692	-19.8722	-4.43968	1.29718
 416	1	1	-0.221685	-18.9637	-5.48812	1.63133
 417	1	1	-0.227504	-21.5142	-6.14365	0.543179
 418	1	1	0.01292	-19.4968	-3.0622	1.36896
 419	1	1	-0.039953	-17.8921	-1.30006	1.66253
 420	1	2	0.00887	-17.87	0.812496	1.51735
 421	1	1	-0.185129	-18.1624	-2.66792	1.6892
 422	1	1	-0.021786	-18.8184	-0.358831	1.35034
 423	1	1	0.017184	-20.4766	-2.04205	1.10018
 424	1	1	-0.198557	-20.1444	-0.6639	1.07493
 425	1	2	-0.002904	-16.7777	-0.291419	1.88553
 426	1	3	0.041883	-17.2572	1.51045	0.275029
 427	1	3	0.005012	-17.2623	0.570217	-0.970224
 428	1	3	-0.193804	-15.7754	1.47281	0.701711
 429	1	3	0.042479	-15.6907	-0.0645061	0.807102
 430	1	3	0.00144	-16.1887	-0.528976	-0.595895
 431	1	3	-0.061914	-22.0693	-3.73766	0.164151
 432	1	3	-0.051146	-21.9361	-2.41143	0.912712
 433	1	5	0.024509	-19.8794	-10.7654	-0.496517
 434	1	5	0.045413	-17.5187	-10.198	0.355642
 435	1	5	0.093061	-22.3838	-12.5508	2.45303
 436	1	5	0.054925	-22.2465	-14.1649	1.72922
 437	1	5	0.0564	-22.1942	-12.7251	0.696548
 438	1	5	0.072515	-15.5605	-12.7929	3.31026
 439	1	5	0.098261	-16.569	-11.9037	4.46808
 440	1	5	0.069746	-16.0179	-11.1078	2.98836
 441	1	5	0.056967	-17.9451	-7.99397	0.340676
 442	1	5	0.059195	-17.7114	-9.02706	2.84204
 443	1	5	0.053458	-21.7184	-9.93508	1.34988
 444	1	5	0.063182	-20.3292	-8.60103	-0.59753
 445	1	5	0.018836	-20.3323	-8.66141	3.2548
 446	1	5	0.033342	-19.9576	-10.3993	3.31873
 447	1	4	0.15438	-17.9358	-5.31578	1.91922
 448	1	4	0.144555	-22.3919	-6.41132	-0.036665
 449	1	5	0.03716	-18.1121	1.52422	2.31435
 450	1	4	0.135836	-17.3715	-3.36131	1.93683
 451	1	4	0.135526	-20.8796	0.111123	0.880968
 452	1	5	0.041277	-16.3713	-0.23269	2.90135
 453	1	5	0.00856	-17.6456	2.51675	0.074476
 454	1	5	-0.004553	-18.2397	0.164552	-1.2613
 455	1	5	0.042416	-15.5944	1.97641	1.6618
 456	1	5	0.068411	-15.0972	1.8967	-0.0402196
 457	1	5	0.009741	-14.6964	-0.435681	1.07461
 458	1	5	0.002304	-16.559	-1.55913	-0.663965
 459	1	5	0.050818	-23.1157	-4.06714	0.19507
 460	1	5	0.045418	-21.815	-3.58212	-0.892171
 461	1	5	0.050853	-22.4778	-1.62897	0.366234
 462	1	5	0.040294	-22.4144	-2.50199	1.89644
 463	1	1	-0.162043	-10.7771	-25.2464	2.76133
 464	1	1	-0.131368	-9.56603	-22.7828	3.69515
 465	1	1	0.053767	-9.38123	-25.0877	2.86784
 466	1	1	-0.089414	-10.938	-23.0467	3.84271
 467	1	2	0.07683	-12.8262	-23.5255	3.00025
 468	1	1	-0.043169	-11.5229	-24.2186	3.3711
 469	1	1	0.067251	-8.80962	-23.8965	3.29073
 470	1	2	0.019658	-12.166	-22.2037	3.56379
 471	1	3	-0.13357	-11.4095	-26.2645	1.82852
 472	1	3	-0.181622	-9.0115	-21.3693	3.66905
 473	1	2	-0.091671	-14.2499	-21.2811	3.96051
 474	1	1	0.028189	-15.5712	-21.0719	4.68032
 475	1	3	-0.001388	-13.0548	-21.8275	4.78222
 476	1	3	0.000341	-14.0544	-23.7464	3.92105
 477	1	2	-0.108264	-14.9167	-22.5835	3.34899
 478	1	3	-0.051806	-13.571	-23.2011	5.29369
 479	1	1	0.038269	-16.1533	-22.1842	4.12922
 480	1	1	0.012104	-18.3103	-21.1485	4.32299
 481	1	1	0.009692	-17.7271	-20.0095	4.97124
 482	1	1	-0.221685	-16.307	-19.9476	5.06511
 483	1	1	-0.227504	-17.517	-22.2199	3.85163
 484	1	1	0.01292	-18.556	-18.9208	5.38461
 485	1	1	-0.039953	-18.9025	-16.7041	6.26521
 486	1	2	0.00887	-20.5143	-15.3355	6.29012
 487	1	1	-0.185129	-18.0015	-17.7056	5.89621
 488	1	1	-0.021786	-20.2371	-16.7993	6.02838
 489	1	1	0.017184	-19.9848	-19.0344	5.26451
 490	1	1	-0.198557	-20.8439	-17.9376	5.51519
 491	1	2	-0.002904	-18.9608	-15.2229	6.62875
 492	1	3	0.041883	-20.6728	-14.3614	5.0932
 493	1	3	0.005012	-19.9198	-14.8882	3.82446
 494	1	3	-0.193804	-19.7339	-13.239	5.5922
 495	1	3	0.042479	-18.468	-14.1263	5.65187
 496	1	3	0.00144	-18.3972	-14.6825	4.20773
 497	1	3	-0.061914	-19.771	-21.1454	3.90999
 498	1	3	-0.051146	-20.6324	-20.3568	4.89526
 499	1	5	0.024509	-13.0694	-23.5694	1.93188
 500	1	5	0.045413	-11.9944	-21.3737	2.86811
 501	1	5	0.093061	-10.813	-27.1846	1.78506
 502	1	5	0.054925	-11.4879	-25.865	0.809774
 503	1	5	0.0564	-12.4178	-26.5364	2.16472
 504	1	5	0.072515	-9.05459	-20.9527	2.65502
 505	1	5	0.098261	-7.96531	-21.3496	3.99885
 506	1	5	0.069746	-9.58327	-20.7079	4.33178
 507	1	5	0.056967	-13.9788	-20.4649	3.27979
 508	1	5	0.059195	-12.6151	-21.1528	5.52728
 509	1	5	0.053458	-14.5019	-24.7481	3.91472
 510	1	5	0.063182	-15.066	-22.634	2.26356
 511	1	5	0.018836	-14.3846	-23.1058	6.02426
 512	1	5	0.033342	-12.7767	-23.8141	5.73917
 513	1	4	0.15438	-15.7705	-19.0537	5.35038
 514	1	4	0.144555	-17.9318	-22.9914	3.21041
 515	1	5	0.03716	-21.1937	-15.1025	7.11753
 516	1	4	0.135836	-16.9408	-17.5185	5.99143
 517	1	4	0.135526	-21.9141	-17.9814	5.33812
 518	1	5	0.041277	-18.7364	-14.9744	7.67195
 519	1	5	0.00856	-21.7029	-14.0383	4.89751
 520	1	5	-0.004553	-20.1736	-15.9027	3.49233
 521	1	5	0.042416	-20.0238	-12.8506	6.57863
 522	1	5	0.068411	-19.6521	-12.3909	4.90022
 523	1	5	0.009741	-17.5593	-13.6024	5.97254
 524	1	5	0.002304	-17.7685	-15.5698	4.06254
 525	1	5	0.050818	-20.1592	-22.1687	3.8281
 526	1	5	0.045418	-19.86	-20.6918	2.91447
 527	1	5	0.050853	-21.6298	-20.2048	4.4635
 528	1	5	0.040294	-20.7703	-20.9529	5.80643
 529	1	1	-0.162043	-12.1173	-15.0296	-2.95122
 530	1	1	-0.131368	-10.6545	-14.6965	-0.475981
 531	1	1	0.053767	-12.2883	-13.8992	-2.12782
 532	1	1	-0.089414	-10.3057	-15.6677	-1.42747
 533	1	2	0.07683	-10.8207	-17.3437	-2.6241
 534	1	1	-0.043169	-11.0092	-15.834	-2.61895
 535	1	1	0.067251	-11.6018	-13.7647	-0.929329
 536	1	2	0.019658	-10.033	-17.1484	-1.26911
 537	1	3	-0.13357	-13.2121	-15.527	-3.87726
 538	1	3	-0.181622	-10.2854	-14.8345	0.99061
 539	1	2	-0.091671	-8.95716	-19.1555	-1.58392
 540	1	1	0.028189	-7.92877	-20.1238	-2.12987
 541	1	3	-0.001388	-8.60008	-17.6468	-1.58547
 542	1	3	0.000341	-9.75611	-17.9483	-3.58271
 543	1	2	-0.108264	-9.73381	-19.3661	-2.94449
 544	1	3	-0.051806	-8.42593	-17.3134	-3.09297
 545	1	1	0.038269	-8.6034	-20.3104	-3.31768
 546	1	1	0.012104	-7.86056	-22.5999	-3.3809
 547	1	1	0.009692	-7.18727	-22.4298	-2.1332
 548	1	1	-0.221685	-7.24778	-21.1638	-1.49291
 549	1	1	-0.227504	-8.62303	-21.555	-3.9494
 550	1	1	0.01292	-6.6487	-23.5613	-1.45575
 551	1	1	-0.039953	-5.48629	-24.5649	0.411884
 552	1	2	0.00887	-5.87643	-26.3548	1.47415
 553	1	1	-0.185129	-5.85038	-23.41	-0.285828
 554	1	1	-0.021786	-5.96645	-25.7993	0.0642276
 555	1	1	0.017184	-7.06098	-24.8751	-1.85418
 556	1	1	-0.198557	-6.78185	-26.0013	-1.04724
 557	1	2	-0.002904	-5.27398	-24.9421	1.87433
 558	1	3	0.041883	-7.15064	-26.4476	2.36034
 559	1	3	0.005012	-8.23477	-25.4091	1.91989
 560	1	3	-0.193804	-6.58666	-25.7991	3.64529
 561	1	3	0.042479	-6.24356	-24.446	2.98066
 562	1	3	0.00144	-7.61196	-24.0369	2.37232
 563	1	3	-0.061914	-7.86281	-23.9586	-4.0579
 564	1	3	-0.051146	-8.02609	-25.0682	-3.0127
 565	1	5	0.024509	-11.7581	-17.9122	-2.5993
 566	1	5	0.045413	-10.4587	-17.5817	-0.356165
 567	1	5	0.093061	-13.8617	-14.7055	-4.20352
 568	1	5	0.054925	-13.8416	-16.2709	-3.37353
 569	1	5	0.0564	-12.784	-15.9977	-4.77091
 570	1	5	0.072515	-9.28787	-15.2767	1.10557
 571	1	5	0.098261	-11.0031	-15.4771	1.51549
 572	1	5	0.069746	-10.2767	-13.8578	1.49018
 573	1	5	0.056967	-9.4314	-19.4964	-0.655195
 574	1	5	0.059195	-7.80115	-17.3226	-0.907021
 575	1	5	0.053458	-9.96844	-17.8899	-4.65752
 576	1	5	0.063182	-10.7193	-19.8464	-2.91044
 577	1	5	0.018836	-7.54044	-17.7888	-3.53421
 578	1	5	0.033342	-8.37468	-16.2339	-3.2869
 579	1	4	0.15438	-6.96542	-21.0299	-0.456798
 580	1	4	0.144555	-9.28597	-21.7361	-4.78959
 581	1	5	0.03716	-5.19996	-27.2038	1.62302
 582	1	4	0.135836	-5.58149	-22.4443	0.123173
 583	1	4	0.135526	-7.26867	-26.9565	-1.21904
 584	1	5	0.041277	-4.23445	-24.9659	2.21954
 585	1	5	0.00856	-7.53999	-27.4639	2.49879
 586	1	5	-0.004553	-8.54103	-25.4428	0.868212
 587	1	5	0.042416	-5.69723	-26.3191	4.02816
 588	1	5	0.068411	-7.31838	-25.7218	4.46019
 589	1	5	0.009741	-5.82089	-23.6982	3.66334
 590	1	5	0.002304	-7.58979	-23.2651	1.59609
 591	1	5	0.050818	-6.91595	-24.1	-4.59444
 592	1	5	0.045418	-8.66616	-24.0356	-4.8015
 593	1	5	0.050853	-9.05527	-25.0561	-2.63094
 594	1	5	0.040294	-7.87378	-26.0447	-3.48988
 595	1	1	-0.162043	-9.47638	0.100437	0.867567
 596	1	1	-0.131368	-8.1181	-2.42721	0.7258
 597	1	1	0.053767	-8.61326	-0.200314	-0.204513
 598	1	1	-0.089414	-8.84967	-2.02647	1.85964
 599	1	2	0.07683	-10.7308	-1.42584	2.64828
 600	1	1	-0.043169	-9.55274	-0.842303	1.8879
 601	1	1	0.067251	-7.96143	-1.46209	-0.32679
 602	1	2	0.019658	-9.87866	-2.75234	2.7238
 603	1	3	-0.13357	-10.3529	1.3429	0.887255
 604	1	3	-0.181622	-7.76361	-3.91094	0.638517
 605	1	2	-0.091671	-11.864	-3.9126	3.11975
 606	1	1	0.028189	-13.088	-4.70579	2.72357
 607	1	3	-0.001388	-10.7607	-3.81188	2.02373
 608	1	3	0.000341	-11.9678	-1.84235	1.7847
 609	1	2	-0.108264	-12.7433	-2.6215	2.87421
 610	1	3	-0.051806	-11.4279	-2.98883	0.883431
 611	1	1	0.038269	-13.8331	-3.5917	2.4182
 612	1	1	0.012104	-14.9609	-4.85764	0.691197
 613	1	1	0.009692	-14.2623	-6.03609	1.09131
 614	1	1	-0.221685	-13.2451	-5.92734	2.07161
 615	1	1	-0.227504	-14.714	-3.61784	1.3294
 616	1	1	0.01292	-14.5191	-7.2773	0.454229
 617	1	1	-0.039953	-14.4475	-9.66546	0.399031
 618	1	2	0.00887	-14.8852	-11.1881	-1.007
 619	1	1	-0.185129	-14.0659	-8.49248	1.0388
 620	1	1	-0.021786	-15.0999	-9.6943	-0.793322
 621	1	1	0.017184	-15.2318	-7.31087	-0.789247
 622	1	1	-0.198557	-15.4828	-8.53442	-1.46314
 623	1	2	-0.002904	-14.1174	-11.138	0.387526
 624	1	3	0.041883	-13.7796	-11.6883	-1.97434
 625	1	3	0.005012	-13.5288	-13.1854	-1.60486
 626	1	3	-0.193804	-12.5132	-10.9984	-1.41457
 627	1	3	0.042479	-12.6782	-11.5548	0.0186244
 628	1	3	0.00144	-12.7581	-13.0784	-0.23351
 629	1	3	-0.061914	-15.9444	-4.9033	-0.471847
 630	1	3	-0.051146	-15.5921	-6.00678	-1.48329
 631	1	5	0.024509	-10.9763	-0.933923	3.59671
 632	1	5	0.045413	-9.51532	-3.0587	3.7116
 633	1	5	0.093061	-10.3382	1.81682	1.87729
 634	1	5	0.054925	-11.3951	1.10446	0.647184
 635	1	5	0.0564	-10.0045	2.08912	0.167356
 636	1	5	0.072515	-6.70631	-4.09045	0.438177
 637	1	5	0.098261	-8.36433	-4.41837	-0.125925
 638	1	5	0.069746	-7.95832	-4.42126	1.58909
 639	1	5	0.056967	-11.4961	-4.08699	4.13801
 640	1	5	0.059195	-10.2782	-4.75195	1.73242
 641	1	5	0.053458	-12.5072	-1.03331	1.28292
 642	1	5	0.063182	-13.0014	-2.01623	3.75129
 643	1	5	0.018836	-12.2117	-3.54583	0.358485