pySIMM System Object

732 atoms
861 bonds
1782 angles
3293 dihedrals
88 impropers

5 atom types
9 bond types
18 angle types
19 dihedral types
2 improper types

-124.312953 124.312953 xlo xhi
-124.312953 124.312953 ylo yhi
-124.312953 124.312953 zlo zhi

Masses

   1	12.01	# ca
   2	12.01	# cy
   3	12.01	# c3
   4	1.008	# ha
   5	1.008	# hc

Pair Coeffs

   1	0.086	3.3996695084235347	# ca
   2	0.086	3.3996695084235347	# cy
   3	0.1094	3.3996695084235347	# c3
   4	0.015	2.59964245953351	# ha
   5	0.0157	2.649532787749369	# hc

Bond Coeffs

   1	461.1	1.3984	# ca,ca
   2	300.9	1.5375	# c3,c3
   3	305.9	1.5319	# c3,cy
   4	345.8	1.086	# ca,ha
   5	321.0	1.5156	# c3,ca
   6	285.0	1.5562	# cy,cy
   7	333.3	1.0949	# cy,hc
   8	330.6	1.0969	# c3,hc
   9	321.2	1.5154	# ca,cy

Angle Coeffs

   1	67.9	96.03	# cy,c3,cy
   2	45.97	114.53	# ca,cy,hc
   3	66.62	120.02	# ca,ca,ca
   4	61.4	116.81	# ca,cy,cy
   5	44.83	114.79	# cy,cy,hc
   6	46.43	110.14	# c3,cy,hc
   7	62.86	111.51	# c3,c3,c3
   8	63.15	112.07	# c3,c3,ca
   9	46.34	109.8	# c3,c3,hc
  10	48.18	119.88	# ca,ca,ha
  11	39.4	107.58	# hc,c3,hc
  12	63.53	120.77	# c3,ca,ca
  13	60.66	118.7	# c3,cy,cy
  14	63.51	120.86	# ca,ca,cy
  15	62.73	112.39	# c3,c3,cy
  16	46.29	110.75	# cy,c3,hc
  17	46.8	110.47	# ca,c3,hc
  18	62.8	113.57	# c3,cy,ca

Dihedral Coeffs

   1	3	0.18	3	0.0	0.25	2	180.0	0.2	1	180.0	# c3,c3,cy,cy
   2	1	0.16	3	0.0	# hc,c3,cy,cy
   3	1	0.16	3	0.0	# cy,c3,cy,hc
   4	1	0.16	3	0.0	# c3,c3,cy,hc
   5	1	0.15	3	0.0	# hc,c3,cy,hc
   6	1	3.625	2	180	# X,ca,ca,X
   7	1	0.15555555555555556	3	0	# X,cy,cy,X
   8	3	0.18	3	0	0.25	2	180	0.2	1	180	# c3,c3,c3,c3
   9	1	0.16	3	0	# hc,c3,c3,c3
  10	1	0.0	2	0.0	# ca,ca,cy,cy
  11	1	0.0	2	0.0	# ca,ca,cy,c3
  12	1	0.0	2	0	# X,c3,ca,X
  13	1	0.15555555555555556	3	0	# X,c3,c3,X
  14	3	0.38	3	180.0	0.0	2	0.0	1.15	1	0.0	# ca,ca,cy,hc
  15	3	0.18	3	0.0	0.25	2	180.0	0.2	1	180.0	# cy,c3,cy,cy
  16	1	0.16	3	0.0	# cy,c3,cy,ca
  17	1	0.16	3	0.0	# c3,c3,cy,ca
  18	1	0.16	3	0.0	# hc,c3,cy,ca
  19	1	0.15	3	0	# hc,c3,c3,hc

Improper Coeffs

   1	1.1	-1	2	# ca,ca,ca,c3
   2	1.1	-1	2	# ca,X,X,ha

Atoms

   1	1	1	-0.162043	-18.7414	15.5248	-31.6783
   2	1	1	-0.131368	-18.7383	13.0829	-30.0598
   3	1	1	0.053767	-19.0704	15.5016	-30.3108
   4	1	1	-0.089414	-18.6597	13.074	-31.4659
   5	1	2	0.07683	-17.9481	13.5777	-33.4025
   6	1	1	-0.043169	-18.6606	14.2325	-32.2329
   7	1	1	0.067251	-19.0684	14.3516	-29.5484
   8	1	2	0.019658	-17.9494	12.2517	-32.5281
   9	1	3	-0.13357	-18.3649	16.7883	-32.4301
  10	1	3	-0.181622	-18.36	11.8968	-29.1921
  11	1	2	-0.091671	-16.1386	11.449	-33.7499
  12	1	1	0.028189	-14.6786	11.3218	-34.1469
  13	1	3	-0.001388	-16.4421	11.9477	-32.3099
  14	1	3	0.000341	-16.4408	13.9002	-33.5872
  15	1	2	-0.108264	-16.1368	12.7811	-34.6194
  16	1	3	-0.051806	-15.7966	13.3621	-32.2776
  17	1	1	0.038269	-14.6776	12.4695	-34.8886
  18	1	1	0.012104	-12.2925	12.5692	-34.7745
  19	1	1	0.009692	-12.2772	11.3643	-33.9986
  20	1	1	-0.221685	-13.5119	10.7672	-33.619
  21	1	1	-0.227504	-13.5097	13.1774	-35.1638
  22	1	1	0.01292	-11.0398	10.8166	-33.5619
  23	1	1	-0.039953	-9.7206	9.02771	-32.6509
  24	1	2	0.00887	-7.65196	8.58956	-32.566
  25	1	1	-0.185129	-10.969	9.47859	-33.0801
  26	1	1	-0.021786	-8.58427	9.77154	-32.7665
  27	1	1	0.017184	-9.83659	11.5902	-33.6705
  28	1	1	-0.198557	-8.57506	11.0483	-33.323
  29	1	2	-0.002904	-8.97468	7.72129	-32.4383
  30	1	3	0.041883	-6.92907	7.94155	-33.773
  31	1	3	0.005012	-7.66122	8.20457	-35.1168
  32	1	3	-0.193804	-7.30401	6.46162	-33.5534
  33	1	3	0.042479	-8.8274	6.69964	-33.5935
  34	1	3	0.00144	-8.95676	7.35952	-34.9935
  35	1	3	-0.061914	-10.99	13.2223	-35.2067
  36	1	3	-0.051146	-9.89332	13.0308	-34.1517
  37	1	5	0.024509	-18.5239	13.5586	-34.3353
  38	1	5	0.045413	-18.5288	11.4045	-32.9133
  39	1	5	0.093061	-18.9581	17.6442	-32.0845
  40	1	5	0.054925	-18.5379	16.6745	-33.5075
  41	1	5	0.0564	-17.3051	17.0292	-32.2809
  42	1	5	0.072515	-17.2705	11.8189	-29.092
  43	1	5	0.098261	-18.7292	10.9595	-29.6264
  44	1	5	0.069746	-18.7856	11.9897	-28.1852
  45	1	5	0.056967	-16.7812	10.629	-34.0926
  46	1	5	0.059195	-16.188	11.2687	-31.4867
  47	1	5	0.053458	-16.1862	14.9264	-33.8791
  48	1	5	0.063182	-16.7743	12.7977	-35.5116
  49	1	5	0.018836	-14.7004	13.3327	-32.32
  50	1	5	0.033342	-16.0867	13.9406	-31.393
  51	1	4	0.15438	-13.5768	9.96572	-32.8925
  52	1	4	0.144555	-13.5409	14.1497	-35.645
  53	1	5	0.03716	-7.02565	8.60988	-31.6673
  54	1	4	0.135836	-11.8094	8.79491	-33.1134
  55	1	4	0.135526	-7.64721	11.5855	-33.4939
  56	1	5	0.041277	-9.11327	7.23371	-31.467
  57	1	5	0.00856	-5.84981	8.13539	-33.815
  58	1	5	-0.004553	-7.86596	9.26674	-35.2937
  59	1	5	0.042416	-6.95729	6.07144	-32.5865
  60	1	5	0.068411	-6.94996	5.80411	-34.36
  61	1	5	0.009741	-9.43234	5.79144	-33.4781
  62	1	5	0.002304	-9.86499	7.96372	-35.1009
  63	1	5	0.050818	-11.1285	14.2942	-35.3965
  64	1	5	0.045418	-10.6607	12.773	-36.1524
  65	1	5	0.050853	-8.92878	13.3473	-34.5685
  66	1	5	0.040294	-10.0994	13.6868	-33.2962
  67	1	1	-0.162043	-27.206	14.6158	-18.2375
  68	1	1	-0.131368	-24.7633	12.9919	-18.018
  69	1	1	0.053767	-26.6113	14.2608	-17.014
  70	1	1	-0.089414	-25.4947	13.1357	-19.2139
  71	1	2	0.07683	-26.5174	14.0788	-20.8206
  72	1	1	-0.043169	-26.6369	13.9169	-19.3177
  73	1	1	0.067251	-25.4561	13.5156	-16.9101
  74	1	2	0.019658	-25.2216	13.1631	-20.7083
  75	1	3	-0.13357	-28.2482	15.7087	-18.3886
  76	1	3	-0.181622	-23.3508	12.4427	-17.9516
  77	1	2	-0.091671	-24.459	14.0272	-22.7228
  78	1	1	0.028189	-23.7949	15.033	-23.642
  79	1	3	-0.001388	-24.0745	14.0745	-21.2167
  80	1	3	0.000341	-25.9685	15.4329	-21.3516
  81	1	2	-0.108264	-25.7396	14.9723	-22.8151
  82	1	3	-0.051806	-24.5276	15.4936	-20.7689
  83	1	1	0.038269	-24.8823	15.8482	-23.71
  84	1	1	0.012104	-23.549	17.5589	-24.701
  85	1	1	0.009692	-22.4092	16.6833	-24.7015
  86	1	1	-0.221685	-22.522	15.4145	-24.0597
  87	1	1	-0.227504	-24.7935	17.1661	-24.1474
  88	1	1	0.01292	-21.1895	17.1074	-25.3088
  89	1	1	-0.039953	-18.8565	16.8179	-25.8452
  90	1	2	0.00887	-17.5649	17.6141	-27.3222
  91	1	1	-0.185129	-20.007	16.3138	-25.238
  92	1	1	-0.021786	-18.8544	17.9578	-26.5947
  93	1	1	0.017184	-21.17	18.301	-26.1079
  94	1	1	-0.198557	-20.0093	18.7046	-26.8112
  95	1	2	-0.002904	-17.564	16.2877	-26.4443
  96	1	3	0.041883	-17.5938	17.069	-28.7743
  97	1	3	0.005012	-18.9728	16.4225	-29.1069
  98	1	3	-0.193804	-16.6929	15.8273	-28.5813
  99	1	3	0.042479	-17.5897	15.1625	-27.5114
 100	1	3	0.00144	-18.97	15.1034	-28.2326
 101	1	3	-0.061914	-23.4094	18.9906	-25.1862
 102	1	3	-0.051146	-22.4514	19.0712	-26.3782
 103	1	5	0.024509	-27.3631	13.6767	-21.3909
 104	1	5	0.045413	-25.2651	12.1817	-21.1948
 105	1	5	0.093061	-28.9094	15.7475	-17.5139
 106	1	5	0.054925	-28.8735	15.5397	-19.2741
 107	1	5	0.0564	-27.7698	16.6902	-18.4944
 108	1	5	0.072515	-23.1687	11.7228	-18.7592
 109	1	5	0.098261	-23.1721	11.9292	-16.9986
 110	1	5	0.069746	-22.6144	13.2503	-18.0447
 111	1	5	0.056967	-24.5495	13.0169	-23.1397
 112	1	5	0.059195	-23.0523	13.7748	-20.9546
 113	1	5	0.053458	-26.6013	16.3165	-21.2028
 114	1	5	0.063182	-26.6304	14.5599	-23.3043
 115	1	5	0.018836	-23.9213	16.2934	-21.2131
 116	1	5	0.033342	-24.5155	15.6196	-19.6788
 117	1	4	0.15438	-21.6936	14.7387	-23.9001
 118	1	4	0.144555	-25.6289	17.8526	-24.0522
 119	1	5	0.03716	-16.7149	18.2826	-27.1463
 120	1	4	0.135836	-19.9668	15.3345	-24.7817
 121	1	4	0.135526	-20.0294	19.5142	-27.5346
 122	1	5	0.041277	-16.715	16.1904	-25.7587
 123	1	5	0.00856	-17.238	17.7733	-29.5365
 124	1	5	-0.004553	-19.8552	17.0587	-28.971
 125	1	5	0.042416	-15.695	16.0831	-28.1983
 126	1	5	0.068411	-16.5674	15.226	-29.4895
 127	1	5	0.009741	-17.2298	14.1874	-27.1601
 128	1	5	0.002304	-19.8508	14.9782	-27.5919
 129	1	5	0.050818	-23.0226	19.6129	-24.369
 130	1	5	0.045418	-24.3828	19.409	-25.4724
 131	1	5	0.050853	-22.9434	18.6522	-27.2654
 132	1	5	0.040294	-22.237	20.1244	-26.6007
 133	1	1	-0.162043	-25.1233	5.51237	-5.04272
 134	1	1	-0.131368	-22.9013	7.34442	-4.56691
 135	1	1	0.053767	-24.3841	5.53686	-3.85005
 136	1	1	-0.089414	-23.7682	7.45934	-5.67347
 137	1	2	0.07683	-24.879	6.83519	-7.36903
 138	1	1	-0.043169	-24.8469	6.6079	-5.87641
 139	1	1	0.067251	-23.358	6.42912	-3.59443
 140	1	2	0.019658	-23.6223	7.77993	-7.15979
 141	1	3	-0.13357	-25.9534	4.31894	-5.48
 142	1	3	-0.181622	-21.5226	7.97779	-4.52683
 143	1	2	-0.091671	-24.1544	8.82668	-9.18645
 144	1	1	0.028189	-24.8876	9.79117	-10.1058
 145	1	3	-0.001388	-24.1169	9.16461	-7.66154
 146	1	3	0.000341	-25.9893	7.79146	-7.88063
 147	1	2	-0.108264	-25.4537	7.91468	-9.32452
 148	1	3	-0.051806	-25.6159	9.163	-7.24828
 149	1	1	0.038269	-26.0172	9.03095	-10.1787
 150	1	1	0.012104	-27.2498	10.9032	-10.9992
 151	1	1	0.009692	-26.041	11.6726	-11.0407
 152	1	1	-0.221685	-24.8408	11.1265	-10.5055
 153	1	1	-0.227504	-27.2556	9.56917	-10.5238
 154	1	1	0.01292	-26.0597	12.9835	-11.5833
 155	1	1	-0.039953	-24.9659	14.8326	-12.6576
 156	1	2	0.00887	-25.6437	16.4349	-13.8689
 157	1	1	-0.185129	-24.8645	13.5627	-12.0874
 158	1	1	-0.021786	-26.1523	15.5034	-12.7774
 159	1	1	0.017184	-27.3039	13.6693	-11.7553
 160	1	1	-0.198557	-27.366	14.9337	-12.3893
 161	1	2	-0.002904	-24.2798	15.6262	-13.7571
 162	1	3	0.041883	-26.0572	16.2288	-15.3487
 163	1	3	0.005012	-26.533	14.7689	-15.5894
 164	1	3	-0.193804	-24.6551	16.2229	-16.0018
 165	1	3	0.042479	-24.1199	15.0257	-15.1823
 166	1	3	0.00144	-25.1954	13.9286	-15.4692
 167	1	3	-0.061914	-28.5526	11.499	-11.5107
 168	1	3	-0.051146	-28.5939	13.0186	-11.2827
 169	1	5	0.024509	-24.7565	5.92631	-7.97034
 170	1	5	0.045413	-22.6656	7.47511	-7.59967
 171	1	5	0.093061	-26.5337	3.91579	-4.64056
 172	1	5	0.054925	-25.3111	3.51622	-5.86277
 173	1	5	0.0564	-26.6599	4.59459	-6.27283
 174	1	5	0.072515	-21.2153	8.18866	-3.49481
 175	1	5	0.098261	-21.5072	8.92498	-5.08012
 176	1	5	0.069746	-20.7734	7.31204	-4.97277
 177	1	5	0.056967	-23.2158	8.42506	-9.58673
 178	1	5	0.059195	-23.524	10.0372	-7.36023
 179	1	5	0.053458	-27.0269	7.45506	-7.76337
 180	1	5	0.063182	-25.3402	6.9585	-9.84972
 181	1	5	0.018836	-26.177	10.0015	-7.68026
 182	1	5	0.033342	-25.7579	9.18237	-6.15998
 183	1	4	0.15438	-23.9452	11.7194	-10.354
 184	1	4	0.144555	-28.1703	8.99309	-10.4266
 185	1	5	0.03716	-25.5722	17.4956	-13.6043
 186	1	4	0.135836	-23.9377	13.0036	-12.1606
 187	1	4	0.135526	-28.3127	15.4074	-12.6303
 188	1	5	0.041277	-23.4126	16.2251	-13.4576
 189	1	5	0.00856	-26.7402	16.9899	-15.7464
 190	1	5	-0.004553	-27.3591	14.4127	-14.9643
 191	1	5	0.042416	-24.0963	17.15	-15.8117
 192	1	5	0.068411	-24.67	16.0473	-17.0855
 193	1	5	0.009741	-23.0978	14.7217	-15.4403
 194	1	5	0.002304	-25.2443	13.096	-14.7575
 195	1	5	0.050818	-29.4171	11.0338	-11.0206
 196	1	5	0.045418	-28.6462	11.2929	-12.5847
 197	1	5	0.050853	-29.4642	13.4414	-11.8004
 198	1	5	0.040294	-28.7307	13.2206	-10.2127
 199	1	1	-0.162043	-10.2216	0.931262	-3.09413
 200	1	1	-0.131368	-10.8502	1.41262	-0.284044
 201	1	1	0.053767	-9.3854	0.552025	-2.03217
 202	1	1	-0.089414	-11.7634	1.63969	-1.33261
 203	1	2	0.07683	-12.5369	2.29192	-3.19625
 204	1	1	-0.043169	-11.4937	1.33899	-2.66153
 205	1	1	0.067251	-9.70748	0.695412	-0.694469
 206	1	2	0.019658	-12.7975	2.70285	-1.68655
 207	1	3	-0.13357	-9.73796	1.09262	-4.52385
 208	1	3	-0.181622	-10.9818	2.0579	1.08345
 209	1	2	-0.091671	-14.8831	3.49981	-2.35191
 210	1	1	0.028189	-16.3602	3.41183	-2.67259
 211	1	3	-0.001388	-14.29	2.36326	-1.46041
 212	1	3	0.000341	-13.8807	1.6431	-3.64005
 213	1	2	-0.108264	-14.6573	2.96464	-3.83305
 214	1	3	-0.051806	-14.4784	1.07982	-2.31807
 215	1	1	0.038269	-16.1719	2.88758	-3.92023
 216	1	1	0.012104	-18.4045	2.0173	-3.8964
 217	1	1	0.009692	-18.6351	2.66758	-2.64269
 218	1	1	-0.221685	-17.5573	3.3026	-1.97258
 219	1	1	-0.227504	-17.1375	2.08209	-4.52932
 220	1	1	0.01292	-19.9218	2.64265	-2.05255
 221	1	1	-0.039953	-21.5761	3.6012	-0.605836
 222	1	2	0.00887	-23.6926	3.5253	-0.540108
 223	1	1	-0.185129	-20.2797	3.64156	-1.11133
 224	1	1	-0.021786	-22.5086	2.68467	-1.00955
 225	1	1	0.017184	-20.9057	1.71002	-2.50552
 226	1	1	-0.198557	-22.233	1.74651	-2.00904
 227	1	2	-0.002904	-22.6036	4.60834	-0.133938
 228	1	3	0.041883	-24.5875	4.29612	-1.54398
 229	1	3	0.005012	-23.8518	4.49137	-2.89392
 230	1	3	-0.193804	-24.505	5.71538	-0.933272
 231	1	3	0.042479	-22.9662	5.82336	-1.03334
 232	1	3	0.00144	-22.7102	5.52615	-2.5513
 233	1	3	-0.061914	-19.5372	1.26596	-4.58224
 234	1	3	-0.051146	-20.5284	0.67965	-3.55944
 235	1	5	0.024509	-12.1534	3.05187	-3.88752
 236	1	5	0.045413	-12.5301	3.71841	-1.37183
 237	1	5	0.093061	-10.5123	0.784636	-5.23734
 238	1	5	0.054925	-8.847	0.48084	-4.71306
 239	1	5	0.0564	-9.48039	2.13816	-4.73321
 240	1	5	0.072515	-10.5068	1.44277	1.85792
 241	1	5	0.098261	-12.0357	2.18782	1.35899
 242	1	5	0.069746	-10.504	3.04532	1.09657
 243	1	5	0.056967	-14.5151	4.50676	-2.12079
 244	1	5	0.059195	-14.6315	2.31649	-0.418818
 245	1	5	0.053458	-13.8442	0.961005	-4.49845
 246	1	5	0.063182	-14.1979	3.65606	-4.54985
 247	1	5	0.018836	-15.5306	0.782764	-2.41286
 248	1	5	0.033342	-13.9175	0.220059	-1.92961
 249	1	4	0.15438	-17.6229	3.63185	-0.941183
 250	1	4	0.144555	-16.9175	1.52506	-5.43456
 251	1	5	0.03716	-24.2702	3.11839	0.297217
 252	1	4	0.135836	-19.6392	4.48955	-0.893675
 253	1	4	0.135526	-23.018	1.12657	-2.43106
 254	1	5	0.041277	-22.5825	4.86605	0.930788
 255	1	5	0.00856	-25.6073	3.9049	-1.64777
 256	1	5	-0.004553	-23.511	3.58167	-3.40107
 257	1	5	0.042416	-24.8665	5.7502	0.104132
 258	1	5	0.068411	-25.0408	6.48163	-1.5087
 259	1	5	0.009741	-22.5561	6.78283	-0.694162
 260	1	5	0.002304	-21.7006	5.19462	-2.82133
 261	1	5	0.050818	-19.1451	0.457285	-5.21206
 262	1	5	0.045418	-20.0736	1.95461	-5.2474
 263	1	5	0.050853	-21.4171	0.307076	-4.08432
 264	1	5	0.040294	-20.0663	-0.185132	-3.06619
 265	1	1	-0.162043	-0.0232578	8.2383	7.39001
 266	1	1	-0.131368	0.381764	5.36704	7.8518
 267	1	1	0.053767	1.10274	7.69721	8.03796
 268	1	1	-0.089414	-0.66609	5.89562	7.07534
 269	1	2	0.07683	-2.26326	7.09155	6.35255
 270	1	1	-0.043169	-0.818956	7.24405	6.79025
 271	1	1	0.067251	1.33666	6.34467	8.19178
 272	1	2	0.019658	-2.11444	5.5612	6.75548
 273	1	3	-0.13357	-0.422424	9.70022	7.47051
 274	1	3	-0.181622	0.389732	3.95278	8.40131
 275	1	2	-0.091671	-3.91957	5.08335	5.37502
 276	1	1	0.028189	-4.60953	4.72985	4.07667
 277	1	3	-0.001388	-2.38941	4.79467	5.44244
 278	1	3	0.000341	-2.51461	7.03637	4.81313
 279	1	2	-0.108264	-3.99692	6.58947	4.87417
 280	1	3	-0.051806	-1.78386	5.73796	4.36406
 281	1	1	0.038269	-4.62666	6.01611	3.60998
 282	1	1	0.012104	-4.78512	5.19435	1.35719
 283	1	1	0.009692	-4.82965	3.85463	1.85323
 284	1	1	-0.221685	-4.65927	3.6181	3.24153
 285	1	1	-0.227504	-4.62019	6.29412	2.23876
 286	1	1	0.01292	-4.94618	2.76081	0.959983
 287	1	1	-0.039953	-5.41759	0.454965	0.5293
 288	1	2	0.00887	-5.77258	-0.731602	-1.19229
 289	1	1	-0.185129	-5.37794	1.5001	1.44496
 290	1	1	-0.021786	-5.12642	0.598356	-0.796851
 291	1	1	0.017184	-4.70884	2.93569	-0.440678
 292	1	1	-0.198557	-4.83742	1.85087	-1.34898
 293	1	2	-0.002904	-6.18221	-0.832173	0.34104
 294	1	3	0.041883	-7.14128	-0.803834	-1.91712
 295	1	3	0.005012	-7.89321	0.537358	-1.77402
 296	1	3	-0.193804	-7.92578	-1.70755	-0.935446
 297	1	3	0.042479	-7.73279	-0.785295	0.289663
 298	1	3	0.00144	-8.25855	0.598545	-0.239298
 299	1	3	-0.061914	-4.91901	5.44555	-0.138481
 300	1	3	-0.051146	-4.29657	4.30387	-0.96659
 301	1	5	0.024509	-2.9824	7.71054	6.90192
 302	1	5	0.045413	-2.69366	5.19056	7.60932
 303	1	5	0.093061	-0.941752	10.0182	6.55796
 304	1	5	0.054925	0.456873	10.3441	7.59714
 305	1	5	0.0564	-1.09384	9.87437	8.32039
 306	1	5	0.072515	-0.117475	3.91021	9.3731
 307	1	5	0.098261	1.41535	3.58848	8.53935
 308	1	5	0.069746	-0.123062	3.26177	7.72087
 309	1	5	0.056967	-4.47898	4.82694	6.28287
 310	1	5	0.059195	-2.07766	3.7432	5.4121
 311	1	5	0.053458	-2.29742	7.94759	4.24224
 312	1	5	0.063182	-4.64593	7.26951	5.43889
 313	1	5	0.018836	-2.03743	5.43277	3.34101
 314	1	5	0.033342	-0.691373	5.81946	4.43118
 315	1	4	0.15438	-4.4739	2.62911	3.64564
 316	1	4	0.144555	-4.46913	7.30424	1.87154
 317	1	5	0.03716	-5.08688	-1.5141	-1.53528
 318	1	4	0.135836	-5.75667	1.35737	2.45123
 319	1	4	0.135526	-4.75076	1.98807	-2.42248
 320	1	5	0.041277	-5.80121	-1.71402	0.868102
 321	1	5	0.00856	-7.10053	-1.18077	-2.94675
 322	1	5	-0.004553	-7.37781	1.42596	-2.15766
 323	1	5	0.042416	-7.4576	-2.69328	-0.804219
 324	1	5	0.068411	-8.97724	-1.8627	-1.21067
 325	1	5	0.009741	-8.23223	-1.132	1.20299
 326	1	5	0.002304	-7.89539	1.49344	0.280461
 327	1	5	0.050818	-4.45106	6.39707	-0.420798
 328	1	5	0.045418	-5.98371	5.53026	-0.39143
 329	1	5	0.050853	-4.58341	4.42127	-2.01931
 330	1	5	0.040294	-3.20313	4.38774	-0.92573
 331	1	1	-0.162043	4.60843	0.341305	20.9726
 332	1	1	-0.131368	6.49803	-0.14077	18.8245
 333	1	1	0.053767	5.78794	-0.411984	21.1466
 334	1	1	-0.089414	5.42871	0.759872	18.714
 335	1	2	0.07683	3.42946	1.45827	18.8187
 336	1	1	-0.043169	4.5586	1.05489	19.7569
 337	1	1	0.067251	6.72393	-0.587693	20.1376
 338	1	2	0.019658	4.39601	1.03518	17.6387
 339	1	3	-0.13357	3.40064	0.180175	21.8788
 340	1	3	-0.181622	7.14469	-0.792841	17.6151
 341	1	2	-0.091671	3.1548	2.334	16.1881
 342	1	1	0.028189	2.7536	3.59463	15.4602
 343	1	3	-0.001388	4.58247	2.32039	16.8054
 344	1	3	0.000341	3.21721	2.98621	18.5729
 345	1	2	-0.108264	2.23676	2.85857	17.3757
 346	1	3	-0.051806	4.5375	3.43761	17.8865
 347	1	1	0.038269	1.99889	4.07778	16.4898
 348	1	1	0.012104	2.17532	6.28459	15.5607
 349	1	1	0.009692	2.89481	5.7649	14.4341
 350	1	1	-0.221685	3.28435	4.39686	14.4546
 351	1	1	-0.227504	1.77729	5.44817	16.6371
 352	1	1	0.01292	3.28506	6.62749	13.3672
 353	1	1	-0.039953	4.44639	7.06117	11.3085
 354	1	2	0.00887	4.47658	8.61081	9.86067
 355	1	1	-0.185129	4.0444	6.13698	12.2679
 356	1	1	-0.021786	4.0645	8.36929	11.3128
 357	1	1	0.017184	2.82975	7.98848	13.333
 358	1	1	-0.198557	3.17849	8.86428	12.2703
 359	1	2	-0.002904	4.86186	7.06723	9.85587
 360	1	3	0.041883	3.44084	8.71009	8.7084
 361	1	3	0.005012	2.08483	8.09132	9.12855
 362	1	3	-0.193804	3.99958	7.62348	7.75856
 363	1	3	0.042479	3.90785	6.47368	8.78848
 364	1	3	0.00144	2.40976	6.54752	9.24694
 365	1	3	-0.061914	1.98114	7.78456	15.7102
 366	1	3	-0.051146	1.81041	8.47583	14.3501
 367	1	5	0.024509	2.49672	0.897534	18.952
 368	1	5	0.045413	4.13026	0.157569	17.0374
 369	1	5	0.093061	2.85799	-0.744218	21.6448
 370	1	5	0.054925	2.70353	1.01994	21.7673
 371	1	5	0.0564	3.70377	0.135342	22.9324
 372	1	5	0.072515	8.17269	-1.10539	17.8371
 373	1	5	0.098261	7.18127	-0.100806	16.7649
 374	1	5	0.069746	6.58171	-1.68228	17.3051
 375	1	5	0.056967	2.85421	1.40185	15.6943
 376	1	5	0.059195	5.42941	2.33712	16.1083
 377	1	5	0.053458	2.87664	3.58245	19.4284
 378	1	5	0.063182	1.33449	2.27693	17.5995
 379	1	5	0.018836	4.47465	4.44482	17.4555
 380	1	5	0.033342	5.39946	3.41089	18.5656
 381	1	4	0.15438	3.98593	3.95831	13.7592
 382	1	4	0.144555	1.36136	5.85401	17.5538
 383	1	5	0.03716	5.32118	9.29211	9.70994
 384	1	4	0.135836	4.28546	5.09414	12.1162
 385	1	4	0.135526	2.73759	9.85163	12.1728
 386	1	5	0.041277	5.91557	6.85211	9.6458
 387	1	5	0.00856	3.35073	9.70484	8.25423
 388	1	5	-0.004553	1.60888	8.52488	10.0166
 389	1	5	0.042416	5.03199	7.8303	7.44287
 390	1	5	0.068411	3.39367	7.46141	6.85746
 391	1	5	0.009741	4.20741	5.49192	8.40082
 392	1	5	0.002304	2.16865	6.10115	10.2193
 393	1	5	0.050818	2.8568	8.20829	16.2184
 394	1	5	0.045418	1.11124	8.0064	16.3414
 395	1	5	0.050853	0.802129	8.26881	13.9692
 396	1	5	0.040294	1.88023	9.56278	14.4847
 397	1	1	-0.162043	6.14539	-7.03669	9.8728
 398	1	1	-0.131368	8.87255	-6.20485	10.5522
 399	1	1	0.053767	7.20896	-7.04715	8.9481
 400	1	1	-0.089414	7.87643	-6.43479	11.5152
 401	1	2	0.07683	5.99213	-6.23593	12.4729
 402	1	1	-0.043169	6.5806	-6.81966	11.1963
 403	1	1	0.067251	8.4883	-6.64146	9.27458
 404	1	2	0.019658	7.47836	-5.8085	12.8334
 405	1	3	-0.13357	4.68205	-7.06843	9.47182
 406	1	3	-0.181622	10.1301	-5.39799	10.8181
 407	1	2	-0.091671	6.95431	-5.77526	15.082
 408	1	1	0.028189	6.68448	-6.35418	16.4567
 409	1	3	-0.001388	7.80639	-6.62727	14.1102
 410	1	3	0.000341	5.61206	-7.22937	13.606
 411	1	2	-0.108264	5.459	-6.17341	14.7389
 412	1	3	-0.051806	6.96323	-7.92235	13.9401
 413	1	1	0.038269	5.38391	-6.68034	16.17
 414	1	1	0.012104	4.81014	-6.40531	18.4904
 415	1	1	0.009692	6.17285	-6.08967	18.8081
 416	1	1	-0.221685	7.10989	-6.00867	17.7388
 417	1	1	-0.227504	4.39983	-6.64425	17.1568
 418	1	1	0.01292	6.51998	-5.68586	20.1335
 419	1	1	-0.039953	7.97454	-4.53981	21.6856
 420	1	2	0.00887	7.53762	-3.24792	23.3223
 421	1	1	-0.185129	7.77773	-5.08151	20.4151
 422	1	1	-0.021786	6.97712	-4.48389	22.6214
 423	1	1	0.017184	5.54003	-5.74563	21.1767
 424	1	1	-0.198557	5.7277	-5.06461	22.4047
 425	1	2	-0.002904	8.68069	-3.31122	22.223
 426	1	3	0.041883	6.93026	-1.82837	23.1002
 427	1	3	0.005012	6.09528	-1.7631	21.789
 428	1	3	-0.193804	8.21042	-1.06293	22.6912
 429	1	3	0.042479	8.52968	-1.96357	21.477
 430	1	3	0.00144	7.1918	-1.91928	20.6719
 431	1	3	-0.061914	3.71241	-6.24553	19.5298
 432	1	3	-0.051146	4.23529	-6.48632	20.9482
 433	1	5	0.024509	5.2481	-5.44684	12.3122
 434	1	5	0.045413	7.70988	-4.73994	12.9162
 435	1	5	0.093061	4.09315	-7.66273	10.1815
 436	1	5	0.054925	4.55198	-7.51004	8.47588
 437	1	5	0.0564	4.26241	-6.05509	9.44903
 438	1	5	0.072515	10.4201	-5.4505	11.8748
 439	1	5	0.098261	9.97524	-4.34261	10.5615
 440	1	5	0.069746	10.9711	-5.77036	10.2199
 441	1	5	0.056967	7.22358	-4.71187	15.0892
 442	1	5	0.059195	8.86736	-6.75342	14.3598
 443	1	5	0.053458	4.75277	-7.88524	13.4191
 444	1	5	0.063182	4.74685	-5.37323	14.5035
 445	1	5	0.018836	6.91753	-8.52474	14.8564
 446	1	5	0.033342	7.32671	-8.56282	13.1261
 447	1	4	0.15438	8.11058	-5.61761	17.8491
 448	1	4	0.144555	3.34824	-6.68819	16.891
 449	1	5	0.03716	7.88384	-3.39198	24.3517
 450	1	4	0.135836	8.52201	-4.87464	19.66
 451	1	4	0.135526	4.92044	-4.94304	23.1203
 452	1	5	0.041277	9.69304	-3.46186	22.6142
 453	1	5	0.00856	6.41397	-1.40847	23.9725
 454	1	5	-0.004553	5.26984	-2.48089	21.7117
 455	1	5	0.042416	8.99071	-1.10065	23.4645
 456	1	5	0.068411	8.03567	-0.0113291	22.4286
 457	1	5	0.009741	9.40974	-1.65627	20.8983
 458	1	5	0.002304	7.01004	-2.72913	19.9604
 459	1	5	0.050818	2.87987	-6.93149	19.3281
 460	1	5	0.045418	3.30748	-5.22718	19.4678
 461	1	5	0.050853	3.47118	-6.18751	21.6768
 462	1	5	0.040294	4.40464	-7.56147	21.0902
 463	1	1	-0.162043	15.7086	-0.599408	-1.66157
 464	1	1	-0.131368	16.9701	-1.26394	0.885473
 465	1	1	0.053767	16.8871	-1.37338	-1.56478
 466	1	1	-0.089414	15.9514	-0.306151	0.761909
 467	1	2	0.07683	14.0722	0.526131	0.22143
 468	1	1	-0.043169	15.3578	0.0356854	-0.447503
 469	1	1	0.067251	17.4825	-1.67441	-0.354722
 470	1	2	0.019658	14.7414	0.0711814	1.58553
 471	1	3	-0.13357	14.8106	-0.602589	-2.88536
 472	1	3	-0.181622	17.347	-1.91354	2.20458
 473	1	2	-0.091671	12.6758	-0.241663	2.58368
 474	1	1	0.028189	11.3643	-0.955096	2.85315
 475	1	3	-0.001388	13.8438	-1.10587	2.0635
 476	1	3	0.000341	12.799	-0.355342	0.11743
 477	1	2	-0.108264	11.9802	0.313817	1.26603
 478	1	3	-0.051806	13.2669	-1.69619	0.744867
 479	1	1	0.038269	10.7493	-0.430612	1.75271
 480	1	1	0.012104	9.01721	-2.06567	1.90905
 481	1	1	0.009692	9.73042	-2.73308	2.96002
 482	1	1	-0.221685	10.9623	-2.17182	3.40979
 483	1	1	-0.227504	9.59005	-0.975891	1.21038
 484	1	1	0.01292	9.21805	-3.94738	3.50971
 485	1	1	-0.039953	9.31969	-5.80701	5.04147
 486	1	2	0.00887	8.31887	-7.66203	5.18535
 487	1	1	-0.185129	9.93555	-4.67847	4.5004
 488	1	1	-0.021786	8.0967	-6.26398	4.63636
 489	1	1	0.017184	8.01385	-4.52478	2.98537
 490	1	1	-0.198557	7.4618	-5.71227	3.52591
 491	1	2	-0.002904	9.76018	-7.14812	5.60674
 492	1	3	0.041883	7.69027	-8.07029	6.547
 493	1	3	0.005012	7.41579	-6.82619	7.45342
 494	1	3	-0.193804	8.94934	-8.67795	7.20684
 495	1	3	0.042479	9.78924	-7.38034	7.13244
 496	1	3	0.00144	8.87339	-6.34966	7.84247
 497	1	3	-0.061914	7.62023	-2.50495	1.50754
 498	1	3	-0.051146	7.40957	-4.00939	1.69043
 499	1	5	0.024509	13.8753	1.59805	0.103026
 500	1	5	0.045413	14.9207	0.848759	2.33741
 501	1	5	0.093061	15.4019	-0.551678	-3.80806
 502	1	5	0.054925	14.1269	0.255439	-2.87845
 503	1	5	0.0564	14.2046	-1.51638	-2.92127
 504	1	5	0.072515	16.7019	-2.77515	2.41505
 505	1	5	0.098261	17.2476	-1.20366	3.03512
 506	1	5	0.069746	18.3863	-2.26489	2.18887
 507	1	5	0.056967	12.9605	0.490831	3.34878
 508	1	5	0.059195	14.2863	-1.81549	2.77314
 509	1	5	0.053458	12.3185	-0.412485	-0.866924
 510	1	5	0.063182	11.8698	1.40128	1.17873
 511	1	5	0.018836	12.4442	-2.40368	0.907435
 512	1	5	0.033342	14.0238	-2.19734	0.139736
 513	1	4	0.15438	11.608	-2.64569	4.1355
 514	1	4	0.144555	9.14642	-0.569385	0.307049
 515	1	5	0.03716	8.28449	-8.4808	4.45807
 516	1	4	0.135836	10.947	-4.44369	4.80173
 517	1	4	0.135526	6.63401	-6.22468	3.04514
 518	1	5	0.041277	10.6102	-7.62596	5.1072
 519	1	5	0.00856	6.84004	-8.75987	6.47203
 520	1	5	-0.004553	6.78379	-6.0405	7.01953
 521	1	5	0.042416	9.38276	-9.49691	6.61551
 522	1	5	0.068411	8.78242	-9.04393	8.22842
 523	1	5	0.009741	10.7927	-7.4609	7.56879
 524	1	5	0.002304	9.08018	-5.29046	7.64177
 525	1	5	0.050818	7.40421	-2.23404	0.466202
 526	1	5	0.045418	6.89198	-1.96771	2.12827
 527	1	5	0.050853	6.336	-4.23204	1.64179
 528	1	5	0.040294	7.87774	-4.53653	0.84919
 529	1	1	-0.162043	24.5736	-13.2186	1.29109
 530	1	1	-0.131368	23.9302	-11.2048	3.31362
 531	1	1	0.053767	23.765	-13.4782	2.41405
 532	1	1	-0.089414	24.9209	-11.0216	2.33059
 533	1	2	0.07683	25.8019	-10.9571	0.39442
 534	1	1	-0.043169	25.2419	-11.9798	1.37581
 535	1	1	0.067251	23.4715	-12.5321	3.37516
 536	1	2	0.019658	25.4056	-9.86667	1.4777
 537	1	3	-0.13357	24.589	-14.1008	0.0565867
 538	1	3	-0.181622	23.3117	-10.0643	4.10196
 539	1	2	-0.091671	25.2748	-8.24315	-0.170142
 540	1	1	0.028189	24.6305	-7.48503	-1.31204
 541	1	3	-0.001388	24.3165	-9.02175	0.764551
 542	1	3	0.000341	24.9381	-10.5911	-0.844168
 543	1	2	-0.108264	25.7142	-9.30571	-1.26387
 544	1	3	-0.051806	23.637	-10.0361	-0.200087
 545	1	1	0.038269	25.041	-8.37933	-2.26649
 546	1	1	0.012104	23.2987	-7.64274	-3.74367
 547	1	1	0.009692	22.7826	-6.8052	-2.70581
 548	1	1	-0.221685	23.4448	-6.76354	-1.44911
 549	1	1	-0.227504	24.373	-8.52764	-3.48387
 550	1	1	0.01292	21.5463	-6.13386	-2.89879
 551	1	1	-0.039953	19.5116	-5.19173	-2.02665
 552	1	2	0.00887	17.5611	-5.08841	-2.84419
 553	1	1	-0.185129	20.7484	-5.78143	-1.78255
 554	1	1	-0.021786	19.0155	-4.96779	-3.28952
 555	1	1	0.017184	21.0079	-5.97194	-4.21153
 556	1	1	-0.198557	19.7143	-5.4272	-4.41189
 557	1	2	-0.002904	18.1477	-5.39086	-1.40673
 558	1	3	0.041883	16.6774	-3.83249	-2.58479
 559	1	3	0.005012	17.5324	-2.56237	-2.28274
 560	1	3	-0.193804	16.1568	-4.20384	-1.17832
 561	1	3	0.042479	17.5519	-4.28309	-0.522591
 562	1	3	0.00144	18.1808	-2.90547	-0.882773
 563	1	3	-0.061914	22.5506	-7.77059	-5.06272
 564	1	3	-0.051146	21.8034	-6.46954	-5.40865
 565	1	5	0.024509	26.8698	-11.0704	0.174827
 566	1	5	0.045413	26.2213	-9.28186	1.9186
 567	1	5	0.093061	23.691	-13.9356	-0.551457
 568	1	5	0.054925	24.6185	-15.1619	0.334151
 569	1	5	0.0564	25.4655	-13.8939	-0.569628
 570	1	5	0.072515	24.0693	-9.31947	4.37548
 571	1	5	0.098261	22.8505	-10.4271	5.02906
 572	1	5	0.069746	22.5354	-9.55905	3.51455
 573	1	5	0.056967	26.071	-7.69582	0.348877
 574	1	5	0.059195	23.6539	-8.42434	1.40275
 575	1	5	0.053458	24.817	-11.369	-1.60793
 576	1	5	0.063182	26.7906	-9.45186	-1.41353
 577	1	5	0.018836	22.9687	-9.56048	-0.928533
 578	1	5	0.033342	23.065	-10.8054	0.327981
 579	1	4	0.15438	23.0602	-6.21614	-0.597544
 580	1	4	0.144555	24.63	-9.32775	-4.17092
 581	1	5	0.03716	16.9837	-5.89486	-3.30972
 582	1	4	0.135836	20.984	-6.10826	-0.776971
 583	1	4	0.135526	19.2442	-5.43998	-5.3905
 584	1	5	0.041277	17.9467	-6.38713	-0.997298
 585	1	5	0.00856	15.8871	-3.66698	-3.32754
 586	1	5	-0.004553	18.2599	-2.28289	-3.05562
 587	1	5	0.042416	15.622	-5.16412	-1.16125
 588	1	5	0.068411	15.51	-3.44488	-0.734764
 589	1	5	0.009741	17.5427	-4.50722	0.55124
 590	1	5	0.002304	19.2761	-2.84168	-0.853181
 591	1	5	0.050818	21.8284	-8.59401	-4.99121
 592	1	5	0.045418	23.2411	-8.02186	-5.8779
 593	1	5	0.050853	22.53	-5.70224	-5.70524
 594	1	5	0.040294	21.1518	-6.64253	-6.2746
 595	1	1	-0.162043	21.5448	-16.2694	16.3066
 596	1	1	-0.131368	21.0473	-13.5666	15.4313
 597	1	1	0.053767	20.7702	-15.3751	17.086
 598	1	1	-0.089414	21.926	-14.4333	14.7806
 599	1	2	0.07683	22.7666	-16.1471	13.8598
 600	1	1	-0.043169	22.163	-15.7135	15.1872
 601	1	1	0.067251	20.51	-14.0311	16.6679
 602	1	2	0.019658	22.4829	-14.6533	13.39
 603	1	3	-0.13357	21.6925	-17.7398	16.6596
 604	1	3	-0.181622	20.7009	-12.2239	14.798
 605	1	2	-0.091671	22.4512	-15.3238	11.1802
 606	1	1	0.028189	21.8622	-15.9391	9.92912
 607	1	3	-0.001388	21.4501	-14.8098	12.2432
 608	1	3	0.000341	21.8882	-17.0047	12.9064
 609	1	2	-0.108264	22.759	-16.8233	11.6294
 610	1	3	-0.051806	20.6591	-16.0894	12.6396
 611	1	1	0.038269	22.1412	-17.2172	10.2992
 612	1	1	0.012104	21.6455	-17.9762	8.09536
 613	1	1	0.009692	21.3183	-16.6327	7.70264
 614	1	1	-0.221685	21.4629	-15.5758	8.64698
 615	1	1	-0.227504	22.0954	-18.283	9.40534
 616	1	1	0.01292	20.9219	-16.3641	6.36214
 617	1	1	-0.039953	19.9728	-14.9463	4.66697
 618	1	2	0.00887	20.07	-14.8997	2.55316
 619	1	1	-0.185129	20.3621	-15.1064	5.99634
 620	1	1	-0.021786	20.2336	-15.8771	3.70438
 621	1	1	0.017184	21.1572	-17.347	5.34376
 622	1	1	-0.198557	20.88	-17.0792	3.98137
 623	1	2	-0.002904	19.7484	-13.818	3.67515
 624	1	3	0.041883	21.3129	-14.3003	1.84438
 625	1	3	0.005012	22.571	-14.3509	2.76641
 626	1	3	-0.193804	20.9217	-12.8056	1.90822
 627	1	3	0.042479	20.8394	-12.7415	3.44979
 628	1	3	0.00144	22.2424	-13.2695	3.87333
 629	1	3	-0.061914	21.513	-19.1124	7.09492
 630	1	3	-0.051146	21.884	-18.6367	5.68445
 631	1	5	0.024509	23.8156	-16.4618	13.9117
 632	1	5	0.045413	23.3532	-14.0344	13.1416
 633	1	5	0.093061	20.8797	-18.0779	17.3146
 634	1	5	0.054925	22.6412	-17.922	17.1793
 635	1	5	0.0564	21.6755	-18.3675	15.7603
 636	1	5	0.072515	19.6288	-12.1558	14.5767
 637	1	5	0.098261	21.2396	-12.0764	13.854
 638	1	5	0.069746	20.971	-11.3881	15.4532
 639	1	5	0.056967	23.2974	-14.6504	10.9978
 640	1	5	0.059195	20.86	-13.923	11.981
 641	1	5	0.053458	21.678	-18.0346	13.2199
 642	1	5	0.063182	23.8056	-17.1257	11.7556