pySIMM System Object

2024 atoms
2362 bonds
4860 angles
8898 dihedrals
240 impropers

5 atom types
9 bond types
18 angle types
19 dihedral types
2 improper types

-177.275634 177.275634 xlo xhi
-177.275634 177.275634 ylo yhi
-177.275634 177.275634 zlo zhi

Masses

   1	12.01	# ca
   2	12.01	# cy
   3	12.01	# c3
   4	1.008	# ha
   5	1.008	# hc

Pair Coeffs

   1	0.086	3.3996695084235347	# ca
   2	0.086	3.3996695084235347	# cy
   3	0.1094	3.3996695084235347	# c3
   4	0.015	2.59964245953351	# ha
   5	0.0157	2.649532787749369	# hc

Bond Coeffs

   1	461.1	1.3984	# ca,ca
   2	300.9	1.5375	# c3,c3
   3	305.9	1.5319	# c3,cy
   4	345.8	1.086	# ca,ha
   5	321.0	1.5156	# c3,ca
   6	285.0	1.5562	# cy,cy
   7	333.3	1.0949	# cy,hc
   8	330.6	1.0969	# c3,hc
   9	321.2	1.5154	# ca,cy

Angle Coeffs

   1	67.9	96.03	# cy,c3,cy
   2	45.97	114.53	# ca,cy,hc
   3	66.62	120.02	# ca,ca,ca
   4	61.4	116.81	# ca,cy,cy
   5	44.83	114.79	# cy,cy,hc
   6	46.43	110.14	# c3,cy,hc
   7	62.86	111.51	# c3,c3,c3
   8	63.15	112.07	# c3,c3,ca
   9	46.34	109.8	# c3,c3,hc
  10	48.18	119.88	# ca,ca,ha
  11	39.4	107.58	# hc,c3,hc
  12	63.53	120.77	# c3,ca,ca
  13	60.66	118.7	# c3,cy,cy
  14	63.51	120.86	# ca,ca,cy
  15	62.73	112.39	# c3,c3,cy
  16	46.29	110.75	# cy,c3,hc
  17	46.8	110.47	# ca,c3,hc
  18	62.8	113.57	# c3,cy,ca

Dihedral Coeffs

   1	3	0.18	3	0.0	0.25	2	180.0	0.2	1	180.0	# c3,c3,cy,cy
   2	1	0.16	3	0.0	# hc,c3,cy,cy
   3	1	0.16	3	0.0	# cy,c3,cy,hc
   4	1	0.16	3	0.0	# c3,c3,cy,hc
   5	1	0.15	3	0.0	# hc,c3,cy,hc
   6	1	3.625	2	180	# X,ca,ca,X
   7	1	0.15555555555555556	3	0	# X,cy,cy,X
   8	3	0.18	3	0	0.25	2	180	0.2	1	180	# c3,c3,c3,c3
   9	1	0.16	3	0	# hc,c3,c3,c3
  10	1	0.0	2	0.0	# ca,ca,cy,cy
  11	1	0.0	2	0.0	# ca,ca,cy,c3
  12	1	0.0	2	0	# X,c3,ca,X
  13	1	0.15555555555555556	3	0	# X,c3,c3,X
  14	3	0.38	3	180.0	0.0	2	0.0	1.15	1	0.0	# ca,ca,cy,hc
  15	3	0.18	3	0.0	0.25	2	180.0	0.2	1	180.0	# cy,c3,cy,cy
  16	1	0.16	3	0.0	# cy,c3,cy,ca
  17	1	0.16	3	0.0	# c3,c3,cy,ca
  18	1	0.16	3	0.0	# hc,c3,cy,ca
  19	1	0.15	3	0	# hc,c3,c3,hc

Improper Coeffs

   1	1.1	-1	2	# ca,ca,ca,c3
   2	1.1	-1	2	# ca,X,X,ha

Atoms

   1	1	1	-0.162043	-17.6544	1.66397	-14.4467
   2	1	1	-0.131368	-15.1584	2.68723	-13.3094
   3	1	1	0.053767	-16.8001	0.889777	-13.6393
   4	1	1	-0.089414	-16.1291	3.51437	-13.9012
   5	1	2	0.07683	-17.4644	4.19822	-15.4037
   6	1	1	-0.043169	-17.3087	3.02798	-14.4483
   7	1	1	0.067251	-15.6174	1.37271	-13.1095
   8	1	2	0.019658	-16.1201	4.75722	-14.7704
   9	1	3	-0.13357	-18.703	1.06925	-15.3689
  10	1	3	-0.181622	-13.7168	3.11341	-13.1019
  11	1	2	-0.091671	-16.7123	6.9142	-15.3894
  12	1	1	0.028189	-17.4468	8.23751	-15.2805
  13	1	3	-0.001388	-16.5528	6.08302	-14.0885
  14	1	3	0.000341	-18.5249	5.26794	-15.0317
  15	1	2	-0.108264	-18.0541	6.35552	-16.0369
  16	1	3	-0.051806	-18.0223	5.8036	-13.6604
  17	1	1	0.038269	-18.5964	7.75806	-15.8407
  18	1	1	0.012104	-19.8256	9.60715	-14.9598
  19	1	1	0.009692	-18.6318	10.1137	-14.3475
  20	1	1	-0.221685	-17.426	9.36465	-14.4588
  21	1	1	-0.227504	-19.8324	8.36974	-15.6469
  22	1	1	0.01292	-18.6749	11.3184	-13.5921
  23	1	1	-0.039953	-17.6062	13.143	-12.4504
  24	1	2	0.00887	-18.2246	15.0461	-11.7626
  25	1	1	-0.185129	-17.473	11.9832	-13.2129
  26	1	1	-0.021786	-18.8133	13.7066	-12.1667
  27	1	1	0.017184	-19.9394	11.9091	-13.2563
  28	1	1	-0.198557	-20.0202	13.1555	-12.5885
  29	1	2	-0.002904	-16.8167	14.3889	-12.088
  30	1	3	0.041883	-18.2696	16.253	-12.7317
  31	1	3	0.005012	-18.4019	15.8178	-14.2167
  32	1	3	-0.193804	-16.7865	16.6751	-12.7129
  33	1	3	0.042479	-16.2485	15.3126	-13.1928
  34	1	3	0.00144	-17.0223	15.1803	-14.532
  35	1	3	-0.061914	-21.1216	10.3982	-14.8975
  36	1	3	-0.051146	-21.2366	11.1912	-13.5904
  37	1	5	0.024509	-17.467	3.92419	-16.4653
  38	1	5	0.045413	-15.2398	4.85659	-15.4162
  39	1	5	0.093061	-18.2949	0.915241	-16.3754
  40	1	5	0.054925	-19.5735	1.73173	-15.4538
  41	1	5	0.0564	-19.0555	0.0995595	-14.9955
  42	1	5	0.072515	-13.6597	4.1546	-12.761
  43	1	5	0.098261	-13.1481	3.03105	-14.0364
  44	1	5	0.069746	-13.2221	2.48672	-12.3494
  45	1	5	0.056967	-15.8205	6.93634	-16.0274
  46	1	5	0.059195	-15.8813	6.4865	-13.3204
  47	1	5	0.053458	-19.5766	4.96101	-15.0883
  48	1	5	0.063182	-18.0048	6.02228	-17.0806
  49	1	5	0.018836	-18.5523	6.70798	-13.3351
  50	1	5	0.033342	-18.0979	5.05834	-12.858
  51	1	4	0.15438	-16.5346	9.59441	-13.8878
  52	1	4	0.144555	-20.7493	7.91328	-16.0065
  53	1	5	0.03716	-18.3701	15.3462	-10.721
  54	1	4	0.135836	-16.4914	11.6701	-13.5482
  55	1	4	0.135526	-20.965	13.6623	-12.4172
  56	1	5	0.041277	-16.1412	14.2995	-11.2323
  57	1	5	0.00856	-18.9711	17.0447	-12.4399
  58	1	5	-0.004553	-19.2343	15.1252	-14.3877
  59	1	5	0.042416	-16.433	16.9428	-11.7097
  60	1	5	0.068411	-16.5636	17.4963	-13.4084
  61	1	5	0.009741	-15.1579	15.2689	-13.3065
  62	1	5	0.002304	-17.1063	14.1438	-14.8785
  63	1	5	0.050818	-21.9925	9.73806	-14.9982
  64	1	5	0.045418	-21.1545	11.0959	-15.7439
  65	1	5	0.050853	-22.0713	11.8993	-13.6686
  66	1	5	0.040294	-21.4833	10.5012	-12.7734
  67	1	1	-0.162043	-4.34587	-5.41778	-19.0601
  68	1	1	-0.131368	-3.86908	-5.13505	-16.2036
  69	1	1	0.053767	-3.25259	-6.01661	-18.4086
  70	1	1	-0.089414	-5.07911	-4.75563	-16.8113
  71	1	2	0.07683	-6.24446	-3.69917	-18.235
  72	1	1	-0.043169	-5.30217	-4.8865	-18.177
  73	1	1	0.067251	-3.02552	-5.88184	-17.0476
  74	1	2	0.019658	-5.99875	-3.5536	-16.6768
  75	1	3	-0.13357	-4.36466	-5.14358	-20.5532
  76	1	3	-0.181622	-3.40734	-4.56875	-14.8727
  77	1	2	-0.091671	-8.03074	-2.44269	-16.4572
  78	1	1	0.028189	-9.5416	-2.31403	-16.3623
  79	1	3	-0.001388	-7.39966	-3.80397	-16.0538
  80	1	3	0.000341	-7.75722	-4.01531	-18.3488
  81	1	2	-0.108264	-8.26279	-2.58339	-18.0256
  82	1	3	-0.051806	-8.05459	-4.80857	-17.0437
  83	1	1	0.038269	-9.73541	-2.43252	-17.7085
  84	1	1	0.012104	-12.0444	-2.92318	-17.3636
  85	1	1	0.009692	-11.8588	-2.80802	-15.9461
  86	1	1	-0.221685	-10.5529	-2.56295	-15.4334
  87	1	1	-0.227504	-10.9559	-2.81139	-18.26
  88	1	1	0.01292	-12.9646	-2.98795	-15.0704
  89	1	1	-0.039953	-14.0217	-2.77519	-12.9202
  90	1	2	0.00887	-16.038	-2.74154	-12.2702
  91	1	1	-0.185129	-12.8918	-2.56658	-13.7125
  92	1	1	-0.021786	-15.1957	-3.25697	-13.4235
  93	1	1	0.017184	-14.197	-3.51958	-15.5754
  94	1	1	-0.198557	-15.3538	-3.59964	-14.7642
  95	1	2	-0.002904	-14.6704	-2.18287	-11.6791
  96	1	3	0.041883	-16.8951	-1.45915	-12.4347
  97	1	3	0.005012	-16.3474	-0.558953	-13.5842
  98	1	3	-0.193804	-16.426	-0.695582	-11.1739
  99	1	3	0.042479	-14.9327	-0.658445	-11.5756
 100	1	3	0.00144	-14.9933	-0.00464131	-12.9871
 101	1	3	-0.061914	-13.4295	-3.15296	-17.9446
 102	1	3	-0.051146	-14.2884	-4.01188	-17.0099
 103	1	5	0.024509	-5.91179	-2.88791	-18.8935
 104	1	5	0.045413	-5.50918	-2.64374	-16.3099
 105	1	5	0.093061	-5.39174	-5.12941	-20.9386
 106	1	5	0.054925	-3.8126	-5.91585	-21.1035
 107	1	5	0.0564	-3.90404	-4.17379	-20.7784
 108	1	5	0.072515	-2.87499	-3.62021	-15.0161
 109	1	5	0.098261	-2.72788	-5.26294	-14.3625
 110	1	5	0.069746	-4.25802	-4.38262	-14.2054
 111	1	5	0.056967	-7.4726	-1.56399	-16.1119
 112	1	5	0.059195	-7.42713	-4.06801	-14.9892
 113	1	5	0.053458	-8.09905	-4.46295	-19.2902
 114	1	5	0.063182	-7.84865	-1.79529	-18.6662
 115	1	5	0.018836	-9.12814	-4.94739	-16.8628
 116	1	5	0.033342	-7.57522	-5.79587	-17.0261
 117	1	4	0.15438	-10.3134	-2.62751	-14.3786
 118	1	4	0.144555	-11.0579	-3.00962	-19.3223
 119	1	5	0.03716	-16.5331	-3.49826	-11.6516
 120	1	4	0.135836	-12.0485	-2.01512	-13.3131
 121	1	4	0.135526	-16.3219	-3.88441	-15.1648
 122	1	5	0.041277	-14.3716	-2.61915	-10.7196
 123	1	5	0.00856	-17.9774	-1.63241	-12.4839
 124	1	5	-0.004553	-16.2538	-1.02824	-14.5709
 125	1	5	0.042416	-16.6006	-1.26071	-10.2475
 126	1	5	0.068411	-16.8811	0.297178	-11.0606
 127	1	5	0.009741	-14.2847	-0.126709	-10.8677
 128	1	5	0.002304	-14.1174	-0.147508	-13.6311
 129	1	5	0.050818	-13.3713	-3.63351	-18.9294
 130	1	5	0.045418	-13.9209	-2.18289	-18.0934
 131	1	5	0.050853	-15.3266	-4.01003	-17.3653
 132	1	5	0.040294	-13.9394	-5.05145	-17.0555
 133	1	1	-0.162043	6.64006	3.8241	-14.0565
 134	1	1	-0.131368	7.19598	1.40997	-12.5073
 135	1	1	0.053767	7.79513	3.66637	-13.2648
 136	1	1	-0.089414	6.17777	1.48617	-13.4704
 137	1	2	0.07683	4.46698	2.24813	-14.467
 138	1	1	-0.043169	5.92023	2.62423	-14.2234
 139	1	1	0.067251	8.0621	2.51511	-12.5449
 140	1	2	0.019658	4.76169	0.961696	-13.5861
 141	1	3	-0.13357	6.11279	5.17627	-14.5015
 142	1	3	-0.181622	7.22072	0.369138	-11.4031
 143	1	2	-0.091671	2.9965	-0.144602	-14.5918
 144	1	1	0.028189	2.29582	-0.940466	-15.6725
 145	1	3	-0.001388	4.54557	-0.224948	-14.5574
 146	1	3	0.000341	4.11651	1.6602	-15.8635
 147	1	2	-0.108264	2.70207	1.1307	-15.4988
 148	1	3	-0.051806	4.97196	0.362626	-15.9334
 149	1	1	0.038269	2.05078	0.148317	-16.4569
 150	1	1	0.012104	1.58644	-1.27562	-18.3171
 151	1	1	0.009692	1.84338	-2.42788	-17.5016
 152	1	1	-0.221685	2.27987	-2.24578	-16.16
 153	1	1	-0.227504	1.76473	0.0377419	-17.8159
 154	1	1	0.01292	1.68371	-3.73342	-18.0417
 155	1	1	-0.039953	1.35685	-6.1071	-17.7744
 156	1	2	0.00887	0.357265	-7.54533	-18.9685
 157	1	1	-0.185129	1.58389	-4.86291	-17.1826
 158	1	1	-0.021786	1.13831	-6.24942	-19.1181
 159	1	1	0.017184	1.49833	-3.90632	-19.4506
 160	1	1	-0.198557	1.16002	-5.16672	-19.9969
 161	1	2	-0.002904	0.615948	-7.38471	-17.4096
 162	1	3	0.041883	-1.19269	-7.54649	-19.0621
 163	1	3	0.005012	-1.77623	-6.13717	-18.7413
 164	1	3	-0.193804	-1.51475	-8.32711	-17.7668
 165	1	3	0.042479	-0.818058	-7.32321	-16.8193
 166	1	3	0.00144	-1.51888	-5.9839	-17.1945
 167	1	3	-0.061914	1.07697	-1.43935	-19.74
 168	1	3	-0.051146	1.62438	-2.71726	-20.3885
 169	1	5	0.024509	3.73577	2.97707	-14.098
 170	1	5	0.045413	4.23821	0.85283	-12.6288
 171	1	5	0.093061	5.58999	5.09861	-15.4629
 172	1	5	0.054925	6.92897	5.8996	-14.6222
 173	1	5	0.0564	5.40841	5.58193	-13.7648
 174	1	5	0.072515	8.23775	0.226193	-11.0171
 175	1	5	0.098261	6.86073	-0.600956	-11.7671
 176	1	5	0.069746	6.58213	0.675794	-10.5654
 177	1	5	0.056967	2.51334	-0.182741	-13.6079
 178	1	5	0.059195	4.98811	-1.1867	-14.2695
 179	1	5	0.053458	4.18439	2.34374	-16.7188
 180	1	5	0.063182	2.02535	1.88976	-15.0883
 181	1	5	0.018836	4.69895	-0.284551	-16.7768
 182	1	5	0.033342	6.0489	0.565726	-15.9951
 183	1	4	0.15438	2.64066	-3.05848	-15.5407
 184	1	4	0.144555	1.67558	0.91565	-18.4479
 185	1	5	0.03716	0.803039	-8.43829	-19.4205
 186	1	4	0.135836	1.53335	-4.77136	-16.1041
 187	1	4	0.135526	0.86767	-5.28044	-21.0363
 188	1	5	0.041277	1.2165	-8.18212	-16.9581
 189	1	5	0.00856	-1.59818	-7.99687	-19.9767
 190	1	5	-0.004553	-1.40391	-5.3053	-19.3499
 191	1	5	0.042416	-1.049	-9.32241	-17.7457
 192	1	5	0.068411	-2.58945	-8.44536	-17.5757
 193	1	5	0.009741	-0.889197	-7.57849	-15.7546
 194	1	5	0.002304	-1.00092	-5.06286	-16.9062
 195	1	5	0.050818	1.34515	-0.573367	-20.3582
 196	1	5	0.045418	-0.0194481	-1.48899	-19.7227
 197	1	5	0.050853	1.09766	-2.89967	-21.3338
 198	1	5	0.040294	2.68242	-2.5683	-20.6391
 199	1	1	-0.162043	5.82664	2.2086	1.26264
 200	1	1	-0.131368	7.86314	0.316844	0.390383
 201	1	1	0.053767	6.45722	1.30733	2.14347
 202	1	1	-0.089414	7.42359	1.3837	-0.412158
 203	1	2	0.07683	5.94797	2.53397	-1.42003
 204	1	1	-0.043169	6.44011	2.27638	-0.00284137
 205	1	1	0.067251	7.41244	0.398063	1.72015
 206	1	2	0.019658	7.08273	1.52833	-1.88285
 207	1	3	-0.13357	4.48618	2.85662	1.55983
 208	1	3	-0.181622	8.54317	-0.91305	-0.182941
 209	1	2	-0.091671	7.13371	2.5087	-3.98508
 210	1	1	0.028189	7.47932	3.57108	-5.01131
 211	1	3	-0.001388	8.0397	2.40643	-2.73239
 212	1	3	0.000341	6.34935	3.87956	-2.07988
 213	1	2	-0.108264	5.96594	3.50199	-3.53753
 214	1	3	-0.051806	7.9007	3.81067	-2.0877
 215	1	1	0.038269	6.47832	4.40784	-4.64032
 216	1	1	0.012104	6.97494	5.84597	-6.46971
 217	1	1	0.009692	8.07743	4.99866	-6.84314
 218	1	1	-0.221685	8.32393	3.80992	-6.09154
 219	1	1	-0.227504	6.1534	5.55731	-5.34962
 220	1	1	0.01292	8.86825	5.32512	-7.98498
 221	1	1	-0.039953	10.5218	4.78487	-9.65351
 222	1	2	0.00887	10.9132	5.48469	-11.6186
 223	1	1	-0.185129	9.7984	4.39185	-8.52713
 224	1	1	-0.021786	10.2679	5.94687	-10.3206
 225	1	1	0.017184	8.67916	6.58066	-8.6539
 226	1	1	-0.198557	9.32249	6.87029	-9.88265
 227	1	2	-0.002904	11.2159	4.13304	-10.8357
 228	1	3	0.041883	10.0456	5.00065	-12.8148
 229	1	3	0.005012	8.62958	4.54834	-12.3443
 230	1	3	-0.193804	10.7399	3.64515	-13.086
 231	1	3	0.042479	10.4775	3.06533	-11.6765
 232	1	3	0.00144	8.93546	3.22636	-11.5369
 233	1	3	-0.061914	6.56532	7.01416	-7.35011
 234	1	3	-0.051146	7.76927	7.64091	-8.06016
 235	1	5	0.024509	4.90231	2.25547	-1.59638
 236	1	5	0.045413	6.78287	0.596014	-2.37558
 237	1	5	0.093061	4.36348	3.03843	2.6349
 238	1	5	0.054925	3.66044	2.21456	1.22918
 239	1	5	0.0564	4.39212	3.82105	1.04486
 240	1	5	0.072515	8.95192	-1.55062	0.610817
 241	1	5	0.098261	9.37089	-0.628741	-0.84435
 242	1	5	0.069746	7.8346	-1.51395	-0.766221
 243	1	5	0.056967	6.84849	1.53959	-4.41167
 244	1	5	0.059195	9.05871	2.02919	-2.88375
 245	1	5	0.053458	5.89476	4.78756	-1.66643
 246	1	5	0.063182	4.9277	3.17104	-3.65888
 247	1	5	0.018836	8.36267	4.59684	-2.69581
 248	1	5	0.033342	8.32166	3.85578	-1.07821
 249	1	4	0.15438	9.10619	3.09838	-6.31688
 250	1	4	0.144555	5.29299	6.16329	-5.08391
 251	1	5	0.03716	11.8019	6.03646	-11.9444
 252	1	4	0.135836	9.90334	3.37646	-8.16973
 253	1	4	0.135526	9.08411	7.75436	-10.4659
 254	1	5	0.041277	12.2792	3.90121	-10.7087
 255	1	5	0.00856	10.0299	5.68069	-13.6757
 256	1	5	-0.004553	8.04283	5.29193	-11.791
 257	1	5	0.042416	11.8113	3.75507	-13.3054
 258	1	5	0.068411	10.2811	3.0652	-13.8975
 259	1	5	0.009741	10.833	2.03738	-11.5322
 260	1	5	0.002304	8.52577	3.20243	-10.5209
 261	1	5	0.050818	6.04646	7.78444	-6.76564
 262	1	5	0.045418	5.85271	6.65749	-8.10477
 263	1	5	0.050853	7.41327	8.33541	-8.83162
 264	1	5	0.040294	8.34402	8.23768	-7.34153
 265	1	1	-0.162043	1.75932	-12.3245	0.506031
 266	1	1	-0.131368	4.41741	-12.791	1.67334
 267	1	1	0.053767	2.10733	-13.4708	1.23538
 268	1	1	-0.089414	4.1278	-11.7299	0.789104
 269	1	2	0.07683	3.15622	-10.0959	-0.150657
 270	1	1	-0.043169	2.88405	-11.5386	0.20363
 271	1	1	0.067251	3.36444	-13.7273	1.73971
 272	1	2	0.019658	4.5776	-10.295	0.534718
 273	1	3	-0.13357	0.330185	-11.9281	0.184271
 274	1	3	-0.181622	5.6588	-12.8494	2.54418
 275	1	2	-0.091671	4.69929	-7.98326	0.879061
 276	1	1	0.028189	4.37987	-6.65096	1.54453
 277	1	3	-0.001388	4.54765	-9.28599	1.72162
 278	1	3	0.000341	2.4549	-9.02548	0.719374
 279	1	2	-0.108264	3.2699	-7.82358	0.185967
 280	1	3	-0.051806	3.04891	-9.26881	2.13657
 281	1	1	0.038269	3.1596	-6.53214	0.959499
 282	1	1	0.012104	2.67165	-4.60924	2.26495
 283	1	1	0.009692	3.98182	-4.68039	2.85345
 284	1	1	-0.221685	4.84487	-5.76779	2.51879
 285	1	1	-0.227504	2.22906	-5.56652	1.32094
 286	1	1	0.01292	4.40476	-3.65615	3.74601
 287	1	1	-0.039953	6.12166	-2.42382	4.89629
 288	1	2	0.00887	6.23885	-0.460037	5.68654
 289	1	1	-0.185129	5.7853	-3.47323	4.03871
 290	1	1	-0.021786	5.20441	-1.52167	5.35243
 291	1	1	0.017184	3.44978	-2.72183	4.26677
 292	1	1	-0.198557	3.8526	-1.5985	5.02763
 293	1	2	-0.002904	7.30899	-1.51708	5.17194
 294	1	3	0.041883	6.46601	0.747442	4.73619
 295	1	3	0.005012	5.98602	0.421834	3.28695
 296	1	3	-0.193804	8.005	0.658508	4.598
 297	1	3	0.042479	8.00966	-0.771451	4.01115
 298	1	3	0.00144	7.05986	-0.620132	2.78841
 299	1	3	-0.061914	1.74261	-3.44638	2.57215
 300	1	3	-0.051146	1.96895	-2.91081	3.98974
 301	1	5	0.024509	3.14601	-9.88738	-1.22719
 302	1	5	0.045413	5.45641	-10.1984	-0.113251
 303	1	5	0.093061	-0.12257	-11.385	1.02282
 304	1	5	0.054925	-0.286718	-12.8128	-0.0176844
 305	1	5	0.0564	0.288268	-11.2823	-0.701604
 306	1	5	0.072515	5.48525	-12.3466	3.50363
 307	1	5	0.098261	6.50895	-12.3592	2.05403
 308	1	5	0.069746	5.94608	-13.8873	2.7546
 309	1	5	0.056967	5.57984	-7.97096	0.225622
 310	1	5	0.059195	5.27905	-9.44563	2.5236
 311	1	5	0.053458	1.36282	-8.95916	0.640772
 312	1	5	0.063182	3.24684	-7.70105	-0.903847
 313	1	5	0.018836	2.81207	-8.4621	2.84219
 314	1	5	0.033342	2.72024	-10.2181	2.5786
 315	1	4	0.15438	5.804	-5.93578	2.99388
 316	1	4	0.144555	1.23706	-5.53853	0.88107
 317	1	5	0.03716	6.3335	-0.185384	6.743
 318	1	4	0.135836	6.56934	-4.03998	3.55048
 319	1	4	0.135526	3.1565	-0.816775	5.31602
 320	1	5	0.041277	8.01852	-1.86105	5.93265
 321	1	5	0.00856	6.09986	1.70815	5.11934
 322	1	5	-0.004553	4.9464	0.0889169	3.18274
 323	1	5	0.042416	8.52146	0.720729	5.56633
 324	1	5	0.068411	8.43554	1.41569	3.92949
 325	1	5	0.009741	8.99861	-1.16713	3.75872
 326	1	5	0.002304	6.63964	-1.54662	2.38012
 327	1	5	0.050818	0.691825	-3.74333	2.46147
 328	1	5	0.045418	1.92316	-2.64058	1.84927
 329	1	5	0.050853	1.41646	-1.97119	4.11672
 330	1	5	0.040294	1.55496	-3.62287	4.71522
 331	1	1	-0.162043	-0.861806	-26.3676	5.05977
 332	1	1	-0.131368	0.972247	-25.3292	7.07796
 333	1	1	0.053767	-1.21011	-26.2011	6.41399
 334	1	1	-0.089414	1.38235	-25.6939	5.77917
 335	1	2	0.07683	1.37852	-25.7584	3.65218
 336	1	1	-0.043169	0.522926	-26.2293	4.82378
 337	1	1	0.067251	-0.333721	-25.7557	7.38284
 338	1	2	0.019658	2.32502	-25.1057	4.74274
 339	1	3	-0.13357	-1.89051	-26.4989	3.9509
 340	1	3	-0.181622	1.77716	-24.4071	7.9764
 341	1	2	-0.091671	3.06951	-23.5164	3.19493
 342	1	1	0.028189	2.95924	-22.2481	2.35858
 343	1	3	-0.001388	2.19063	-23.5807	4.47212
 344	1	3	0.000341	0.855891	-24.5533	2.83049
 345	1	2	-0.108264	2.17965	-24.2054	2.08552
 346	1	3	-0.051806	0.748438	-23.4401	3.90578
 347	1	1	0.038269	2.20898	-22.8623	1.37629
 348	1	1	0.012104	1.0307	-20.8084	0.960377
 349	1	1	0.009692	1.72881	-20.1812	2.03455
 350	1	1	-0.221685	2.7176	-20.9199	2.73436
 351	1	1	-0.227504	1.21993	-22.1759	0.670249
 352	1	1	0.01292	1.28584	-18.9204	2.52539
 353	1	1	-0.039953	1.45435	-17.0476	4.02789
 354	1	2	0.00887	0.36666	-15.2605	4.28995
 355	1	1	-0.185129	2.06227	-18.1708	3.45931
 356	1	1	-0.021786	0.212734	-16.6225	3.65932
 357	1	1	0.017184	0.00260073	-18.4209	2.11567
 358	1	1	-0.198557	-0.529144	-17.2274	2.65168
 359	1	2	-0.002904	1.80475	-15.7538	4.7641
 360	1	3	0.041883	0.687131	-14.0552	3.37734
 361	1	3	0.005012	1.43026	-14.5232	2.08081
 362	1	3	-0.193804	1.82762	-13.4393	4.21915
 363	1	3	0.042479	2.74788	-14.6812	4.1448
 364	1	3	0.00144	2.87938	-14.8803	2.61185
 365	1	3	-0.061914	-0.0134471	-20.0316	0.181301
 366	1	3	-0.051146	-0.866632	-19.192	1.13549
 367	1	5	0.024509	1.80583	-26.561	3.03985
 368	1	5	0.045413	3.35721	-25.4716	4.78914
 369	1	5	0.093061	-2.22427	-25.5118	3.60832
 370	1	5	0.054925	-2.77317	-27.052	4.29594
 371	1	5	0.0564	-1.47653	-27.036	3.08844
 372	1	5	0.072515	1.59714	-24.6316	9.03542
 373	1	5	0.098261	1.50573	-23.3582	7.80301
 374	1	5	0.069746	2.85299	-24.5133	7.79005
 375	1	5	0.056967	4.08966	-23.8951	3.32982
 376	1	5	0.059195	2.46455	-22.9132	5.29503
 377	1	5	0.053458	-0.031634	-24.7262	2.2097
 378	1	5	0.063182	2.62437	-25.0399	1.53057
 379	1	5	0.018836	0.541477	-22.4562	3.47583
 380	1	5	0.033342	-0.0252772	-23.6447	4.64828
 381	1	4	0.15438	3.13219	-20.5572	3.66191
 382	1	4	0.144555	0.55297	-22.7054	-0.00255281
 383	1	5	0.03716	-0.329468	-15.0101	5.09824
 384	1	4	0.135836	3.08648	-18.4216	3.7074
 385	1	4	0.135526	-1.46067	-16.7969	2.29785
 386	1	5	0.041277	1.92634	-15.8354	5.85008
 387	1	5	0.00856	-0.158617	-13.3817	3.19046
 388	1	5	-0.004553	0.949319	-15.3085	1.48662
 389	1	5	0.042416	1.51783	-13.2056	5.24744
 390	1	5	0.068411	2.26321	-12.5338	3.7773
 391	1	5	0.009741	3.70968	-14.562	4.65931
 392	1	5	0.002304	3.24669	-15.8623	2.2885
 393	1	5	0.050818	-0.660523	-20.6978	-0.402931
 394	1	5	0.045418	0.489204	-19.3678	-0.53407
 395	1	5	0.050853	-1.49948	-18.5112	0.551963
 396	1	5	0.040294	-1.54057	-19.8541	1.69391
 397	1	1	-0.162043	-7.15501	-28.2801	20.2634
 398	1	1	-0.131368	-5.56729	-25.8209	20.3
 399	1	1	0.053767	-7.49797	-27.1485	21.0287
 400	1	1	-0.089414	-5.10587	-27.0249	19.7402
 401	1	2	0.07683	-5.0958	-28.7778	18.546
 402	1	1	-0.043169	-5.85223	-28.196	19.7297
 403	1	1	0.067251	-6.74638	-25.9912	21.0458
 404	1	2	0.019658	-4.25991	-27.4268	18.5467
 405	1	3	-0.13357	-8.13521	-29.3872	19.9204
 406	1	3	-0.181622	-4.94651	-24.4714	20.0019
 407	1	2	-0.091671	-3.73927	-27.7119	16.2983
 408	1	1	0.028189	-3.99294	-27.7189	14.7998
 409	1	3	-0.001388	-4.6038	-26.7718	17.1776
 410	1	3	0.000341	-5.80267	-28.7753	17.1662
 411	1	2	-0.108264	-4.54099	-29.0909	16.3146
 412	1	3	-0.051806	-6.052	-27.2632	16.8979
 413	1	1	0.038269	-4.65959	-28.9048	14.8178
 414	1	1	0.012104	-5.30733	-28.6171	12.5482
 415	1	1	0.009692	-4.63168	-27.3506	12.5145
 416	1	1	-0.221685	-4.01393	-26.8597	13.7009
 417	1	1	-0.227504	-5.38955	-29.3826	13.7359
 418	1	1	0.01292	-4.62537	-26.5846	11.3154
 419	1	1	-0.039953	-3.84082	-24.7659	9.96335
 420	1	2	0.00887	-4.1599	-24.0772	7.99191
 421	1	1	-0.185129	-3.73887	-25.4788	11.1563
 422	1	1	-0.021786	-4.68888	-25.1127	8.96079
 423	1	1	0.017184	-5.50785	-26.9414	10.2385
 424	1	1	-0.198557	-5.52752	-26.219	9.02055
 425	1	2	-0.002904	-3.17046	-23.6539	9.17053
 426	1	3	0.041883	-3.19461	-24.5008	6.85814
 427	1	3	0.005012	-2.44634	-25.8256	7.21629
 428	1	3	-0.193804	-2.10881	-23.4257	7.08752
 429	1	3	0.042479	-1.77293	-23.8514	8.53133
 430	1	3	0.00144	-1.44351	-25.3594	8.34585
 431	1	3	-0.061914	-5.92796	-29.1894	11.2863
 432	1	3	-0.051146	-6.50315	-28.0768	10.4044
 433	1	5	0.024509	-4.54781	-29.7011	18.7681
 434	1	5	0.045413	-3.18635	-27.5082	18.7535
 435	1	5	0.093061	-8.78804	-29.6137	20.7728
 436	1	5	0.054925	-7.61097	-30.311	19.6457
 437	1	5	0.0564	-8.77183	-29.0956	19.0759
 438	1	5	0.072515	-3.85863	-24.5568	19.8933
 439	1	5	0.098261	-5.14949	-23.7575	20.8094
 440	1	5	0.069746	-5.34958	-24.0575	19.0702
 441	1	5	0.056967	-2.67989	-27.7461	16.5808
 442	1	5	0.059195	-4.41772	-25.6948	17.0826
 443	1	5	0.053458	-6.66173	-29.4475	17.0499
 444	1	5	0.063182	-3.99234	-29.9892	16.6229
 445	1	5	0.018836	-6.38094	-27.0602	15.8707
 446	1	5	0.033342	-6.78672	-26.8264	17.5839
 447	1	4	0.15438	-3.61796	-25.8567	13.7845
 448	1	4	0.144555	-5.96265	-30.3024	13.7986
 449	1	5	0.03716	-4.86409	-23.3004	7.67374
 450	1	4	0.135836	-2.99082	-25.2007	11.8893
 451	1	4	0.135526	-6.16688	-26.4956	8.18776
 452	1	5	0.041277	-3.30756	-22.636	9.55158
 453	1	5	0.00856	-3.63546	-24.4945	5.85353
 454	1	5	-0.004553	-3.07567	-26.6816	7.49049
 455	1	5	0.042416	-2.50774	-22.404	7.03449
 456	1	5	0.068411	-1.25872	-23.5015	6.40554
 457	1	5	0.009741	-0.966942	-23.2724	8.99936
 458	1	5	0.002304	-1.47886	-25.9701	9.25295
 459	1	5	0.050818	-6.71918	-29.9114	11.5248
 460	1	5	0.045418	-5.15912	-29.7344	10.7234
 461	1	5	0.050853	-6.79036	-28.4958	9.43165
 462	1	5	0.040294	-7.41961	-27.6879	10.8665
 463	1	1	-0.162043	-5.001	-18.6101	32.4424
 464	1	1	-0.131368	-4.74878	-17.0393	30.0239
 465	1	1	0.053767	-4.29959	-17.389	32.4084
 466	1	1	-0.089414	-5.62409	-18.1343	30.1204
 467	1	2	0.07683	-5.97204	-20.1907	30.5223
 468	1	1	-0.043169	-5.74638	-18.8922	31.2823
 469	1	1	0.067251	-4.17918	-16.6368	31.246
 470	1	2	0.019658	-5.83135	-19.3278	29.2069
 471	1	3	-0.13357	-4.7116	-19.6734	33.4877
 472	1	3	-0.181622	-4.20435	-16.566	28.687
 473	1	2	-0.091671	-7.00758	-20.9214	28.0192
 474	1	1	0.028189	-8.22972	-21.6636	27.5184
 475	1	3	-0.001388	-7.2128	-19.4658	28.5158
 476	1	3	0.000341	-7.42025	-20.7478	30.4493
 477	1	2	-0.108264	-7.1527	-21.7992	29.3349
 478	1	3	-0.051806	-8.19714	-19.6245	29.708
 479	1	1	0.038269	-8.35578	-22.4231	28.6492
 480	1	1	0.012104	-9.55138	-24.0876	27.4033
 481	1	1	0.009692	-9.43566	-23.2965	26.2123
 482	1	1	-0.221685	-8.68863	-22.0854	26.271
 483	1	1	-0.227504	-8.94531	-23.6853	28.6184
 484	1	1	0.01292	-9.97102	-23.7809	24.9816
 485	1	1	-0.039953	-10.2195	-23.7009	22.5889
 486	1	2	0.00887	-10.8656	-25.0629	21.0994
 487	1	1	-0.185129	-9.63879	-23.1669	23.7382
 488	1	1	-0.021786	-10.9735	-24.8346	22.5989
 489	1	1	0.017184	-10.8133	-24.9444	24.9774
 490	1	1	-0.198557	-11.2697	-25.5284	23.7689
 491	1	2	-0.002904	-9.98464	-23.7361	21.0896
 492	1	3	0.041883	-9.89118	-26.1256	20.5233
 493	1	3	0.005012	-8.75484	-26.4574	21.5373
 494	1	3	-0.193804	-9.15336	-25.2428	19.49
 495	1	3	0.042479	-8.62752	-24.2188	20.5219
 496	1	3	0.00144	-7.89009	-25.1319	21.5471
 497	1	3	-0.061914	-10.1419	-25.4862	27.3442
 498	1	3	-0.051146	-11.2455	-25.5841	26.2858
 499	1	5	0.024509	-5.21754	-20.9622	30.7172
 500	1	5	0.045413	-4.9844	-19.5341	28.5416
 501	1	5	0.093061	-4.50055	-19.2195	34.4642
 502	1	5	0.054925	-3.8417	-20.2771	33.2007
 503	1	5	0.0564	-5.56726	-20.3487	33.6123
 504	1	5	0.072515	-3.91332	-15.509	28.7314
 505	1	5	0.098261	-4.95596	-16.6716	27.8948
 506	1	5	0.069746	-3.321	-17.1483	28.3971
 507	1	5	0.056967	-6.1153	-21.0564	27.3957
 508	1	5	0.059195	-7.46573	-18.7131	27.7588
 509	1	5	0.053458	-7.8554	-21.1167	31.3864
 510	1	5	0.063182	-6.35444	-22.5103	29.5801
 511	1	5	0.018836	-9.20103	-19.9375	29.3933
 512	1	5	0.033342	-8.29203	-18.7085	30.3054
 513	1	4	0.15438	-8.43101	-21.4976	25.4014
 514	1	4	0.144555	-8.8713	-24.3576	29.4675
 515	1	5	0.03716	-11.7989	-25.0005	20.529
 516	1	4	0.135836	-8.92154	-22.3643	23.6355
 517	1	4	0.135526	-11.8143	-26.4673	23.7483
 518	1	5	0.041277	-10.4066	-22.9065	20.5115
 519	1	5	0.00856	-10.3781	-27.0113	20.0967
 520	1	5	-0.004553	-9.07566	-26.7975	22.5297
 521	1	5	0.042416	-9.83476	-24.7918	18.7549
 522	1	5	0.068411	-8.36045	-25.7682	18.9449
 523	1	5	0.009741	-7.99832	-23.4266	20.0971
 524	1	5	0.002304	-7.71357	-24.7074	22.5426
 525	1	5	0.050818	-10.5485	-25.7815	28.3199
 526	1	5	0.045418	-9.34669	-26.2026	27.1013
 527	1	5	0.050853	-11.5179	-26.6373	26.1417
 528	1	5	0.040294	-12.1437	-25.0728	26.6552
 529	1	1	-0.162043	-1.83371	-21.5526	22.1127
 530	1	1	-0.131368	-1.94303	-18.6638	21.8249
 531	1	1	0.053767	-2.2543	-20.9171	20.9286
 532	1	1	-0.089414	-1.33413	-19.2993	22.9195
 533	1	2	0.07683	-1.22384	-20.6373	24.5634
 534	1	1	-0.043169	-1.23434	-20.6816	23.044
 535	1	1	0.067251	-2.26594	-19.539	20.7734
 536	1	2	0.019658	-1.3996	-19.0714	24.4168
 537	1	3	-0.13357	-2.22821	-22.9771	22.4607
 538	1	3	-0.181622	-2.45177	-17.2346	21.8913
 539	1	2	-0.091671	-0.583416	-18.8036	26.5534
 540	1	1	0.028189	0.457443	-18.6307	27.6363
 541	1	3	-0.001388	-0.145063	-18.4792	25.099
 542	1	3	0.000341	0.155038	-20.7812	25.2775
 543	1	2	-0.108264	-0.326451	-20.3589	26.6908
 544	1	3	-0.051806	0.952295	-19.5373	24.7962
 545	1	1	0.038269	0.717026	-19.9781	27.7328
 546	1	1	0.012104	1.29786	-19.7067	30.0496
 547	1	1	0.009692	0.916146	-18.331	29.996
 548	1	1	-0.221685	0.47864	-17.7953	28.7537
 549	1	1	-0.227504	1.11458	-20.5605	28.937
 550	1	1	0.01292	0.762477	-17.5907	31.2058
 551	1	1	-0.039953	0.0140114	-15.6051	32.3742
 552	1	2	0.00887	-1.24409	-15.4615	34.0769
 553	1	1	-0.185129	0.419484	-16.2089	31.1816
 554	1	1	-0.021786	-0.101528	-16.3145	33.5431
 555	1	1	0.017184	0.727657	-18.2901	32.457
 556	1	1	-0.198557	0.240567	-17.6639	33.627
 557	1	2	-0.002904	-1.09916	-14.6293	32.7365
 558	1	3	0.041883	-2.71456	-15.9677	34.0102
 559	1	3	0.005012	-2.9	-17.0373	32.8891
 560	1	3	-0.193804	-3.37142	-14.7228	33.3713
 561	1	3	0.042479	-2.50803	-14.7525	32.0901
 562	1	3	0.00144	-2.76402	-16.1972	31.5698
 563	1	3	-0.061914	1.79326	-20.2968	31.3563
 564	1	3	-0.051146	0.936019	-19.7953	32.5224
 565	1	5	0.024509	-2.02991	-21.2069	25.0412
 566	1	5	0.045413	-2.33886	-18.6195	24.7574
 567	1	5	0.093061	-1.51673	-23.4239	23.1664
 568	1	5	0.054925	-2.2486	-23.6104	21.5654
 569	1	5	0.0564	-3.22428	-23.0074	22.9196
 570	1	5	0.072515	-1.83256	-16.6252	22.5614
 571	1	5	0.098261	-3.4833	-17.2037	22.2633
 572	1	5	0.069746	-2.4348	-16.7628	20.9009
 573	1	5	0.056967	-1.57341	-18.4132	26.8194
 574	1	5	0.059195	0.0944747	-17.4331	24.8706
 575	1	5	0.053458	0.656695	-21.7534	25.1957
 576	1	5	0.063182	-1.13641	-20.9875	27.0804
 577	1	5	0.018836	1.8726	-19.3721	25.3711
 578	1	5	0.033342	1.21449	-19.5872	23.7314
 579	1	4	0.15438	-0.0136002	-16.8363	28.6716
 580	1	4	0.144555	1.19935	-21.6385	29.0314
 581	1	5	0.03716	-1.04122	-14.8971	34.9937
 582	1	4	0.135836	0.325702	-15.6414	30.2657
 583	1	4	0.135526	-0.00729754	-18.245	34.5101
 584	1	5	0.041277	-0.799175	-13.5844	32.8727
 585	1	5	0.00856	-3.1438	-16.2603	34.9766
 586	1	5	-0.004553	-2.24209	-17.9109	32.9398
 587	1	5	0.042416	-3.21745	-13.8103	33.9643
 588	1	5	0.068411	-4.44724	-14.8364	33.1834
 589	1	5	0.009741	-2.75004	-13.9694	31.3606
 590	1	5	0.002304	-2.04329	-16.5912	30.848
 591	1	5	0.050818	2.83576	-19.993	31.5168
 592	1	5	0.045418	1.78172	-21.3939	31.3344
 593	1	5	0.050853	-0.0405407	-20.2954	32.4901
 594	1	5	0.040294	1.40941	-20.0811	33.4704
 595	1	1	-0.162043	-0.0555772	-19.5191	6.07857
 596	1	1	-0.131368	1.39935	-18.348	8.25354
 597	1	1	0.053767	1.23678	-19.9643	6.41407
 598	1	1	-0.089414	0.166395	-17.8438	7.80759
 599	1	2	0.07683	-1.88652	-18.017	7.30098
 600	1	1	-0.043169	-0.526312	-18.405	6.7633
 601	1	1	0.067251	2.00425	-19.3828	7.47025
 602	1	2	0.019658	-1.09852	-17.327	8.48796
 603	1	3	-0.13357	-0.920019	-20.2497	5.06698
 604	1	3	-0.181622	1.95034	-17.8416	9.58074
 605	1	2	-0.091671	-3.03586	-17.4928	9.78657
 606	1	1	0.028189	-4.01567	-18.1728	10.7238
 607	1	3	-0.001388	-1.59501	-18.0866	9.74701
 608	1	3	0.000341	-2.69159	-19.1555	7.99396
 609	1	2	-0.108264	-3.78718	-18.2615	8.623
 610	1	3	-0.051806	-1.80689	-19.5345	9.21658
 611	1	1	0.038269	-4.63431	-18.8824	9.72225
 612	1	1	0.012104	-5.14909	-20.6369	11.2853
 613	1	1	0.009692	-4.56436	-19.8714	12.3406
 614	1	1	-0.221685	-3.92766	-18.6421	12.0348
 615	1	1	-0.227504	-5.14053	-20.1657	9.95096
 616	1	1	0.01292	-4.51416	-20.3927	13.6591
 617	1	1	-0.039953	-4.2551	-20.1313	16.0194
 618	1	2	0.00887	-4.4398	-21.3654	17.7247
 619	1	1	-0.185129	-4.30187	-19.5255	14.7671
 620	1	1	-0.021786	-4.38602	-21.472	16.2128
 621	1	1	0.017184	-4.72661	-21.7941	13.8794
 622	1	1	-0.198557	-4.67614	-22.3588	15.1791
 623	1	2	-0.002904	-4.33308	-19.7923	17.4957
 624	1	3	0.041883	-3.15442	-21.6749	18.5395
 625	1	3	0.005012	-3.4179	-21.1281	19.9695
 626	1	3	-0.193804	-2.13828	-20.6449	17.9935
 627	1	3	0.042479	-3.04167	-19.4161	18.2511
 628	1	3	0.00144	-3.39189	-19.5636	19.7606
 629	1	3	-0.061914	-5.75131	-22.0004	11.5864
 630	1	3	-0.051146	-4.95357	-22.7117	12.6911
 631	1	5	0.024509	-2.47881	-17.3668	6.64653
 632	1	5	0.045413	-1.16945	-16.2359	8.56465
 633	1	5	0.093061	-1.77832	-19.6399	4.75945
 634	1	5	0.054925	-1.29823	-21.1912	5.47468
 635	1	5	0.0564	-0.348308	-20.4834	4.16401