pySIMM System Object

3112 atoms
3626 bonds
7452 angles
13618 dihedrals
368 impropers

5 atom types
9 bond types
18 angle types
19 dihedral types
2 improper types

-205.236163 205.236163 xlo xhi
-205.236163 205.236163 ylo yhi
-205.236163 205.236163 zlo zhi

Masses

   1	12.01	# ca
   2	12.01	# cy
   3	12.01	# c3
   4	1.008	# ha
   5	1.008	# hc

Pair Coeffs

   1	0.086	3.3996695084235347	# ca
   2	0.086	3.3996695084235347	# cy
   3	0.1094	3.3996695084235347	# c3
   4	0.015	2.59964245953351	# ha
   5	0.0157	2.649532787749369	# hc

Bond Coeffs

   1	461.1	1.3984	# ca,ca
   2	300.9	1.5375	# c3,c3
   3	305.9	1.5319	# c3,cy
   4	345.8	1.086	# ca,ha
   5	321.0	1.5156	# c3,ca
   6	285.0	1.5562	# cy,cy
   7	333.3	1.0949	# cy,hc
   8	330.6	1.0969	# c3,hc
   9	321.2	1.5154	# ca,cy

Angle Coeffs

   1	67.9	96.03	# cy,c3,cy
   2	45.97	114.53	# ca,cy,hc
   3	66.62	120.02	# ca,ca,ca
   4	61.4	116.81	# ca,cy,cy
   5	44.83	114.79	# cy,cy,hc
   6	46.43	110.14	# c3,cy,hc
   7	62.86	111.51	# c3,c3,c3
   8	63.15	112.07	# c3,c3,ca
   9	46.34	109.8	# c3,c3,hc
  10	48.18	119.88	# ca,ca,ha
  11	39.4	107.58	# hc,c3,hc
  12	63.53	120.77	# c3,ca,ca
  13	60.66	118.7	# c3,cy,cy
  14	63.51	120.86	# ca,ca,cy
  15	62.73	112.39	# c3,c3,cy
  16	46.29	110.75	# cy,c3,hc
  17	46.8	110.47	# ca,c3,hc
  18	62.8	113.57	# c3,cy,ca

Dihedral Coeffs

   1	3	0.18	3	0.0	0.25	2	180.0	0.2	1	180.0	# c3,c3,cy,cy
   2	1	0.16	3	0.0	# hc,c3,cy,cy
   3	1	0.16	3	0.0	# cy,c3,cy,hc
   4	1	0.16	3	0.0	# c3,c3,cy,hc
   5	1	0.15	3	0.0	# hc,c3,cy,hc
   6	1	3.625	2	180	# X,ca,ca,X
   7	1	0.15555555555555556	3	0	# X,cy,cy,X
   8	3	0.18	3	0	0.25	2	180	0.2	1	180	# c3,c3,c3,c3
   9	1	0.16	3	0	# hc,c3,c3,c3
  10	1	0.0	2	0.0	# ca,ca,cy,cy
  11	1	0.0	2	0.0	# ca,ca,cy,c3
  12	1	0.0	2	0	# X,c3,ca,X
  13	1	0.15555555555555556	3	0	# X,c3,c3,X
  14	3	0.38	3	180.0	0.0	2	0.0	1.15	1	0.0	# ca,ca,cy,hc
  15	3	0.18	3	0.0	0.25	2	180.0	0.2	1	180.0	# cy,c3,cy,cy
  16	1	0.16	3	0.0	# cy,c3,cy,ca
  17	1	0.16	3	0.0	# c3,c3,cy,ca
  18	1	0.16	3	0.0	# hc,c3,cy,ca
  19	1	0.15	3	0	# hc,c3,c3,hc

Improper Coeffs

   1	1.1	-1	2	# ca,ca,ca,c3
   2	1.1	-1	2	# ca,X,X,ha

Atoms

   1	1	1	-0.162043	-14.5416	-43.0383	36.689
   2	1	1	-0.131368	-13.2605	-40.5347	37.496
   3	1	1	0.053767	-14.7434	-41.8163	36.0221
   4	1	1	-0.089414	-13.2643	-41.6903	38.3016
   5	1	2	0.07683	-12.9848	-43.7361	38.8026
   6	1	1	-0.043169	-13.8747	-42.8789	37.9193
   7	1	1	0.067251	-14.1426	-40.6338	36.4041
   8	1	2	0.019658	-12.287	-42.3787	39.2397
   9	1	3	-0.13357	-14.8582	-44.3895	36.0744
  10	1	3	-0.181622	-12.2918	-39.3827	37.6895
  11	1	2	-0.091671	-10.3709	-43.5576	39.8338
  12	1	1	0.028189	-9.05922	-44.2823	39.5931
  13	1	3	-0.001388	-10.822	-42.5394	38.751
  14	1	3	0.000341	-11.8484	-44.5329	38.1064
  15	1	2	-0.108264	-11.0692	-44.9161	39.3937
  16	1	3	-0.051806	-10.9668	-43.4177	37.4758
  17	1	1	0.038269	-9.6609	-45.4502	39.212
  18	1	1	0.012104	-7.66079	-46.1423	38.0967
  19	1	1	0.009692	-7.02002	-44.9201	38.4813
  20	1	1	-0.221685	-7.76813	-43.939	39.1896
  21	1	1	-0.227504	-9.02368	-46.381	38.3933
  22	1	1	0.01292	-5.67617	-44.6675	38.0912
  23	1	1	-0.039953	-3.62911	-43.4197	38.2366
  24	1	2	0.00887	-1.63085	-43.743	37.6208
  25	1	1	-0.185129	-4.92858	-43.6203	38.7012
  26	1	1	-0.021786	-3.03572	-44.236	37.321
  27	1	1	0.017184	-5.04235	-45.5102	37.118
  28	1	1	-0.198557	-3.68196	-45.3365	36.7634
  29	1	2	-0.002904	-2.32122	-42.7945	38.6905
  30	1	3	0.041883	-0.665546	-44.5909	38.4861
  31	1	3	0.005012	-1.41559	-45.5825	39.4164
  32	1	3	-0.193804	-0.228821	-43.5352	39.5224
  33	1	3	0.042479	-1.65723	-43.2328	40.0193
  34	1	3	0.00144	-2.09256	-44.6564	40.4613
  35	1	3	-0.061914	-6.88434	-47.2177	37.3547
  36	1	3	-0.051146	-5.83286	-46.6053	36.4208
  37	1	5	0.024509	-13.5158	-44.2952	39.582
  38	1	5	0.045413	-12.3822	-42.0887	40.2926
  39	1	5	0.093061	-15.7555	-44.3359	35.445
  40	1	5	0.054925	-15.038	-45.1445	36.8497
  41	1	5	0.0564	-14.0269	-44.7372	35.4487
  42	1	5	0.072515	-11.3549	-39.5671	37.1497
  43	1	5	0.098261	-12.0506	-39.2442	38.7507
  44	1	5	0.069746	-12.717	-38.4423	37.3174
  45	1	5	0.056967	-10.5299	-43.2248	40.8666
  46	1	5	0.059195	-10.2281	-41.6221	38.6551
  47	1	5	0.053458	-12.1524	-45.3555	37.4476
  48	1	5	0.063182	-11.6664	-45.4402	40.1496
  49	1	5	0.018836	-10.0055	-43.7912	37.1009
  50	1	5	0.033342	-11.469	-42.8939	36.6559
  51	1	4	0.15438	-7.40747	-42.9297	39.3483
  52	1	4	0.144555	-9.55783	-47.238	37.9956
  53	1	5	0.03716	-1.11326	-43.2215	36.8081
  54	1	4	0.135836	-5.29747	-43.0429	39.541
  55	1	4	0.135526	-3.16276	-46.0248	36.1034
  56	1	5	0.041277	-2.20212	-41.7223	38.4998
  57	1	5	0.00856	0.161055	-45.0499	37.9292
  58	1	5	-0.004553	-2.13638	-46.2114	38.8811
  59	1	5	0.042416	0.258467	-42.6628	39.0651
  60	1	5	0.068411	0.421499	-43.9463	40.3074
  61	1	5	0.009741	-1.71082	-42.4872	40.8226
  62	1	5	0.002304	-3.18106	-44.7819	40.4924
  63	1	5	0.050818	-7.55645	-47.8609	36.7726
  64	1	5	0.045418	-6.38178	-47.8643	38.0854
  65	1	5	0.050853	-5.16967	-47.3978	36.0513
  66	1	5	0.040294	-6.33675	-46.1798	35.5436
  67	1	1	-0.162043	-21.3166	-30.4571	29.5381
  68	1	1	-0.131368	-18.4368	-30.0321	29.2543
  69	1	1	0.053767	-20.7217	-29.9541	28.3665
  70	1	1	-0.089414	-19.0567	-30.2879	30.4927
  71	1	2	0.07683	-20.2814	-31.293	31.9075
  72	1	1	-0.043169	-20.4256	-30.4851	30.6291
  73	1	1	0.067251	-19.363	-29.7486	28.2333
  74	1	2	0.019658	-18.7173	-31.0715	31.7496
  75	1	3	-0.13357	-22.7094	-31.0592	29.5764
  76	1	3	-0.181622	-16.9493	-30.2089	29.0113
  77	1	2	-0.091671	-18.3166	-32.9675	33.0405
  78	1	1	0.028189	-18.1942	-34.4556	33.3182
  79	1	3	-0.001388	-18.1549	-32.5079	31.5656
  80	1	3	0.000341	-20.4533	-32.8318	31.8002
  81	1	2	-0.108264	-19.883	-33.1842	33.201
  82	1	3	-0.051806	-19.3087	-33.2508	30.8344
  83	1	1	0.038269	-19.5432	-34.6399	33.4552
  84	1	1	0.012104	-19.2921	-36.9781	33.0186
  85	1	1	0.009692	-17.879	-36.8008	32.8648
  86	1	1	-0.221685	-17.3315	-35.4904	32.9518
  87	1	1	-0.227504	-20.1503	-35.8751	33.2374
  88	1	1	0.01292	-17.053	-37.9153	32.5531
  89	1	1	-0.039953	-14.9012	-38.9644	32.3453
  90	1	2	0.00887	-14.2297	-40.967	32.1943
  91	1	1	-0.185129	-15.6391	-37.8348	32.7002
  92	1	1	-0.021786	-15.4827	-40.1397	31.9704
  93	1	1	0.017184	-17.6489	-39.1558	32.1479
  94	1	1	-0.198557	-16.8635	-40.3089	31.9069
  95	1	2	-0.002904	-13.5489	-39.5963	32.6335
  96	1	3	0.041883	-14.0868	-41.8482	33.4612
  97	1	3	0.005012	-15.0149	-41.3396	34.6063
  98	1	3	-0.193804	-12.6955	-41.3642	33.93
  99	1	3	0.042479	-13.1028	-39.8816	34.0908
 100	1	3	0.00144	-14.331	-39.9819	35.0446
 101	1	3	-0.061914	-19.9055	-38.3666	32.9462
 102	1	3	-0.051146	-19.1523	-39.2565	31.9501
 103	1	5	0.024509	-20.7601	-30.8462	32.7869
 104	1	5	0.045413	-18.2175	-30.4882	32.5316
 105	1	5	0.093061	-22.6857	-32.1148	29.2787
 106	1	5	0.054925	-23.3861	-30.531	28.8931
 107	1	5	0.0564	-23.1386	-31.0007	30.5843
 108	1	5	0.072515	-16.3731	-30.0032	29.9218
 109	1	5	0.098261	-16.5935	-29.5268	28.229
 110	1	5	0.069746	-16.7259	-31.2346	28.6931
 111	1	5	0.056967	-17.8231	-32.3202	33.7754
 112	1	5	0.059195	-17.1536	-32.5952	31.1261
 113	1	5	0.053458	-21.4588	-33.2027	31.567
 114	1	5	0.063182	-20.3765	-32.6738	34.0368
 115	1	5	0.018836	-19.1598	-34.3371	30.7908
 116	1	5	0.033342	-19.4637	-32.8896	29.8127
 117	1	4	0.15438	-16.3113	-35.2635	32.6656
 118	1	4	0.144555	-21.231	-35.9751	33.2228
 119	1	5	0.03716	-13.7907	-41.4369	31.3073
 120	1	4	0.135836	-15.141	-36.9803	33.1438
 121	1	4	0.135526	-17.3066	-41.2784	31.7013
 122	1	5	0.041277	-12.716	-39.2725	31.9997
 123	1	5	0.00856	-14.1546	-42.9282	33.2799
 124	1	5	-0.004553	-16.0824	-41.2575	34.3689
 125	1	5	0.042416	-11.9166	-41.51	33.1684
 126	1	5	0.068411	-12.3563	-41.8319	34.8606
 127	1	5	0.009741	-12.303	-39.2291	34.4628
 128	1	5	0.002304	-15.0051	-39.117	35.0622
 129	1	5	0.050818	-20.9643	-38.3179	32.6619
 130	1	5	0.045418	-19.8655	-38.828	33.9412
 131	1	5	0.050853	-19.497	-40.293	32.0561
 132	1	5	0.040294	-19.4014	-38.9426	30.9284
 133	1	1	-0.162043	-17.9025	-22.4642	16.017
 134	1	1	-0.131368	-16.0106	-24.6811	16.2597
 135	1	1	0.053767	-17.5246	-23.2783	14.9324
 136	1	1	-0.089414	-16.1859	-23.7096	17.2635
 137	1	2	0.07683	-17.2447	-22.5028	18.6566
 138	1	1	-0.043169	-17.0893	-22.6592	17.1516
 139	1	1	0.067251	-16.6372	-24.3291	15.051
 140	1	2	0.019658	-16.2119	-23.7019	18.781
 141	1	3	-0.13357	-19.1503	-21.5999	16.0187
 142	1	3	-0.181622	-15.3646	-26.0321	16.5059
 143	1	2	-0.091671	-17.0297	-24.1984	20.8981
 144	1	1	0.028189	-17.9963	-24.796	21.9026
 145	1	3	-0.001388	-17.0242	-24.8251	19.4786
 146	1	3	0.000341	-18.5411	-23.0615	19.3053
 147	1	2	-0.108264	-18.0635	-22.9979	20.7834
 148	1	3	-0.051806	-18.4754	-24.5799	18.9765
 149	1	1	0.038269	-18.8861	-23.7596	21.8076
 150	1	1	0.012104	-20.6399	-25.1632	22.6361
 151	1	1	0.009692	-19.7291	-26.2657	22.7095
 152	1	1	-0.221685	-18.3887	-26.0843	22.27
 153	1	1	-0.227504	-20.2405	-23.9171	22.0977
 154	1	1	0.01292	-20.1894	-27.544	23.131
 155	1	1	-0.039953	-19.8049	-29.8158	23.8073
 156	1	2	0.00887	-20.9795	-31.3484	24.6749
 157	1	1	-0.185129	-19.266	-28.577	23.4622
 158	1	1	-0.021786	-21.1433	-30.0302	23.94
 159	1	1	0.017184	-21.5977	-27.7904	23.2616
 160	1	1	-0.198557	-22.0915	-29.0329	23.7297
 161	1	2	-0.002904	-19.4135	-31.0996	24.5194
 162	1	3	0.041883	-21.1678	-31.4202	26.2114
 163	1	3	0.005012	-20.9613	-30.021	26.8679
 164	1	3	-0.193804	-19.8543	-32.1489	26.5767
 165	1	3	0.042479	-18.9183	-31.0692	25.9873
 166	1	3	0.00144	-19.4051	-29.7806	26.7152
 167	1	3	-0.061914	-22.0702	-25.3146	23.1263
 168	1	3	-0.051146	-22.6059	-26.7264	22.8593
 169	1	5	0.024509	-16.9266	-21.531	19.0521
 170	1	5	0.045413	-15.2479	-23.4803	19.2537
 171	1	5	0.093061	-19.3396	-21.1783	15.0235
 172	1	5	0.054925	-19.0523	-20.7645	16.723
 173	1	5	0.0564	-20.0301	-22.187	16.3098
 174	1	5	0.072515	-14.8767	-26.4073	15.5976
 175	1	5	0.098261	-16.1133	-26.7708	16.8172
 176	1	5	0.069746	-14.6031	-25.9685	17.293
 177	1	5	0.056967	-16.0352	-23.9672	21.2985
 178	1	5	0.059195	-16.6351	-25.8468	19.3896
 179	1	5	0.053458	-19.4775	-22.5435	19.0643
 180	1	5	0.063182	-17.7203	-22.0087	21.1094
 181	1	5	0.018836	-19.224	-25.1697	19.5203
 182	1	5	0.033342	-18.5939	-24.7871	17.9084
 183	1	4	0.15438	-17.7047	-26.9112	22.1226
 184	1	4	0.144555	-20.9526	-23.1224	21.8993
 185	1	5	0.03716	-21.3583	-32.2413	24.1654
 186	1	4	0.135836	-18.1949	-28.4208	23.5138
 187	1	4	0.135526	-23.1471	-29.2048	23.9163
 188	1	5	0.041277	-18.8855	-31.8477	23.9179
 189	1	5	0.00856	-22.0793	-31.9355	26.539
 190	1	5	-0.004553	-21.5882	-29.2064	26.4849
 191	1	5	0.042416	-19.7528	-33.1199	26.0718
 192	1	5	0.068411	-19.7221	-32.3069	27.6523
 193	1	5	0.009741	-17.8486	-31.2759	26.116
 194	1	5	0.002304	-19.1354	-28.8262	26.2467
 195	1	5	0.050818	-22.7322	-24.5789	22.6523
 196	1	5	0.045418	-22.1005	-25.1182	24.2057
 197	1	5	0.050853	-23.5557	-26.8609	23.3923
 198	1	5	0.040294	-22.8264	-26.8293	21.7891
 199	1	1	-0.162043	-13.2072	-28.6043	1.85855
 200	1	1	-0.131368	-13.9476	-30.8317	3.6067
 201	1	1	0.053767	-13.9078	-29.7395	1.40952
 202	1	1	-0.089414	-13.0273	-29.8344	3.98204
 203	1	2	0.07683	-12.2972	-27.8659	4.3147
 204	1	1	-0.043169	-12.683	-28.7714	3.15578
 205	1	1	0.067251	-14.2647	-30.7845	2.23741
 206	1	2	0.019658	-12.6851	-29.0842	5.25612
 207	1	3	-0.13357	-13.1624	-27.2922	1.09702
 208	1	3	-0.181622	-14.643	-31.7466	4.59779
 209	1	2	-0.091671	-13.0343	-27.6163	7.02009
 210	1	1	0.028189	-13.8025	-26.6059	7.84896
 211	1	3	-0.001388	-13.8701	-28.5444	6.09899
 212	1	3	0.000341	-13.3019	-26.7513	4.71896
 213	1	2	-0.108264	-12.6519	-26.3899	6.08371
 214	1	3	-0.051806	-14.5715	-27.5495	5.13099
 215	1	1	0.038269	-13.4748	-25.5495	7.04441
 216	1	1	0.012104	-15.3238	-24.2966	7.90377
 217	1	1	0.009692	-15.6937	-25.4048	8.73265
 218	1	1	-0.221685	-14.9461	-26.6119	8.64778
 219	1	1	-0.227504	-14.2527	-24.3942	6.9831
 220	1	1	0.01292	-16.8416	-25.319	9.56785
 221	1	1	-0.039953	-18.2422	-26.155	11.3295
 222	1	2	0.00887	-19.8301	-25.3712	12.4922
 223	1	1	-0.185129	-17.0682	-26.2845	10.5895
 224	1	1	-0.021786	-19.0971	-25.1036	11.1877
 225	1	1	0.017184	-17.759	-24.2257	9.41771
 226	1	1	-0.198557	-18.8761	-24.0736	10.2765
 227	1	2	-0.002904	-18.8234	-26.5941	12.6607
 228	1	3	0.041883	-19.5464	-24.5141	13.7531
 229	1	3	0.005012	-18.1534	-23.8234	13.6599
 230	1	3	-0.193804	-19.2755	-25.6531	14.7627
 231	1	3	0.042479	-18.088	-26.2616	13.9826
 232	1	3	0.00144	-17.1439	-25.0328	13.8052
 233	1	3	-0.061914	-16.0823	-22.9828	7.99584
 234	1	3	-0.051146	-17.5683	-23.2122	8.30078
 235	1	5	0.024509	-11.2475	-27.5495	4.31968
 236	1	5	0.045413	-11.8775	-29.5325	5.84653
 237	1	5	0.093061	-14.0482	-26.6837	1.3171
 238	1	5	0.054925	-13.1325	-27.4658	0.0140435
 239	1	5	0.0564	-12.274	-26.7079	1.36702
 240	1	5	0.072515	-14.0052	-31.9437	5.46832
 241	1	5	0.098261	-14.8895	-32.7117	4.1379
 242	1	5	0.069746	-15.5761	-31.2946	4.95627
 243	1	5	0.056967	-12.2149	-28.1167	7.55019
 244	1	5	0.059195	-14.5075	-29.2889	6.59178
 245	1	5	0.053458	-13.4438	-25.9305	4.00525
 246	1	5	0.063182	-11.5913	-26.1173	6.0248
 247	1	5	0.018836	-15.3263	-26.9274	5.62841
 248	1	5	0.033342	-15.0511	-28.0505	4.28326
 249	1	4	0.15438	-15.2734	-27.5384	9.10371
 250	1	4	0.144555	-14.0471	-23.6163	6.25465
 251	1	5	0.03716	-20.8859	-25.6516	12.4084
 252	1	4	0.135836	-16.3486	-27.0515	10.8505
 253	1	4	0.135526	-19.5247	-23.204	10.2352
 254	1	5	0.041277	-19.2969	-27.5819	12.6837
 255	1	5	0.00856	-20.3601	-23.8369	14.041
 256	1	5	-0.004553	-17.9832	-23.1922	12.7791
 257	1	5	0.042416	-20.1225	-26.3472	14.8565
 258	1	5	0.068411	-19.0099	-25.2998	15.7644
 259	1	5	0.009741	-17.614	-27.1208	14.4734
 260	1	5	0.002304	-16.3966	-25.1027	13.0056
 261	1	5	0.050818	-15.9866	-22.4043	7.06831
 262	1	5	0.045418	-15.6431	-22.3728	8.79558
 263	1	5	0.050853	-18.0391	-22.2536	8.55288
 264	1	5	0.040294	-18.0666	-23.5809	7.39511
 265	1	1	-0.162043	-17.5082	-42.5585	-5.66631
 266	1	1	-0.131368	-19.6684	-42.1147	-3.72111
 267	1	1	0.053767	-18.7721	-43.1688	-5.75101
 268	1	1	-0.089414	-18.4882	-41.3482	-3.75997
 269	1	2	0.07683	-16.4225	-40.8632	-3.83394
 270	1	1	-0.043169	-17.4711	-41.5587	-4.6787
 271	1	1	0.067251	-19.7899	-42.9597	-4.84084
 272	1	2	0.019658	-17.5858	-40.6203	-2.7775
 273	1	3	-0.13357	-16.2875	-43.0373	-6.43023
 274	1	3	-0.181622	-20.6123	-42.1499	-2.53374
 275	1	2	-0.091671	-16.4108	-38.8006	-1.92154
 276	1	1	0.028189	-15.9107	-37.3671	-1.87797
 277	1	3	-0.001388	-17.7157	-39.0738	-2.72138
 278	1	3	0.000341	-16.0179	-39.4339	-4.28105
 279	1	2	-0.108264	-15.2555	-39.0455	-2.98675
 280	1	3	-0.051806	-17.3476	-38.6335	-4.16752
 281	1	1	0.038269	-14.9235	-37.5781	-2.79988
 282	1	1	0.012104	-14.7958	-35.2305	-3.23585
 283	1	1	0.009692	-15.8222	-34.9931	-2.26493
 284	1	1	-0.221685	-16.442	-36.1019	-1.6237
 285	1	1	-0.227504	-14.3889	-36.5448	-3.56708
 286	1	1	0.01292	-16.2558	-33.6655	-2.0003
 287	1	1	-0.039953	-17.4095	-32.0478	-0.650601
 288	1	2	0.00887	-17.3672	-29.9345	-0.496233
 289	1	1	-0.185129	-17.0106	-33.3721	-0.830508
 290	1	1	-0.021786	-17.0287	-31.0381	-1.48566
 291	1	1	0.017184	-15.8661	-32.5964	-2.8729
 292	1	1	-0.198557	-16.2051	-31.2506	-2.58942
 293	1	2	-0.002904	-17.7958	-31.1142	0.482566
 294	1	3	0.041883	-16.2498	-29.2105	0.299109
 295	1	3	0.005012	-14.9583	-30.0778	0.365165
 296	1	3	-0.193804	-16.8227	-29.3747	1.72572
 297	1	3	0.042479	-16.8496	-30.9201	1.6951
 298	1	3	0.00144	-15.375	-31.2676	1.32135
 299	1	3	-0.061914	-14.1116	-34.065	-3.9317
 300	1	3	-0.051146	-15.079	-32.8922	-4.13904
 301	1	5	0.024509	-15.5752	-41.4954	-3.54315
 302	1	5	0.045413	-17.5033	-41.0942	-1.7924
 303	1	5	0.093061	-15.7995	-43.8671	-5.90415
 304	1	5	0.054925	-15.5526	-42.2312	-6.54775
 305	1	5	0.0564	-16.563	-43.3885	-7.43254
 306	1	5	0.072515	-20.5709	-41.2118	-1.96654
 307	1	5	0.098261	-20.3513	-42.9698	-1.85327
 308	1	5	0.069746	-21.6492	-42.2993	-2.86004
 309	1	5	0.056967	-16.3377	-39.3436	-0.971533
 310	1	5	0.059195	-18.6473	-38.6714	-2.30447
 311	1	5	0.053458	-15.4677	-39.349	-5.22631
 312	1	5	0.063182	-14.4529	-39.7376	-2.70471
 313	1	5	0.018836	-17.2037	-37.5495	-4.26029
 314	1	5	0.033342	-18.0953	-38.9411	-4.90996
 315	1	4	0.15438	-17.3387	-36.0041	-1.02292
 316	1	4	0.144555	-13.7035	-36.747	-4.38404
 317	1	5	0.03716	-18.1787	-29.2568	-0.783361
 318	1	4	0.135836	-17.199	-34.1043	-0.0536809
 319	1	4	0.135526	-15.8266	-30.4227	-3.18103
 320	1	5	0.041277	-18.8522	-31.1113	0.773135
 321	1	5	0.00856	-16.0718	-28.1705	-0.00143157
 322	1	5	-0.004553	-14.5338	-30.3922	-0.595833
 323	1	5	0.042416	-17.8241	-28.9349	1.83356
 324	1	5	0.068411	-16.1801	-28.9599	2.51036
 325	1	5	0.009741	-17.1944	-31.3868	2.62622
 326	1	5	0.002304	-15.1984	-32.2681	0.908815
 327	1	5	0.050818	-13.698	-34.3707	-4.90108
 328	1	5	0.045418	-13.266	-33.7284	-3.3183
 329	1	5	0.050853	-14.5158	-32.0106	-4.47014
 330	1	5	0.040294	-15.7791	-33.1426	-4.94633
 331	1	1	-0.162043	-22.1038	-55.9388	0.290371
 332	1	1	-0.131368	-24.5044	-55.2963	-1.24172
 333	1	1	0.053767	-22.8035	-56.889	-0.470486
 334	1	1	-0.089414	-23.9731	-54.4297	-0.261018
 335	1	2	0.07683	-22.4363	-53.2878	0.655667
 336	1	1	-0.043169	-22.8164	-54.7369	0.446842
 337	1	1	0.067251	-23.9286	-56.5847	-1.21153
 338	1	2	0.019658	-23.7801	-52.9215	-0.10254
 339	1	3	-0.13357	-20.6639	-56.122	0.735452
 340	1	3	-0.181622	-25.4632	-54.8348	-2.32355
 341	1	2	-0.091671	-22.858	-50.8137	-0.589261
 342	1	1	0.028189	-22.0092	-49.8234	-1.3742
 343	1	3	-0.001388	-23.3066	-52.1084	-1.33671
 344	1	3	0.000341	-21.3253	-52.7322	-0.276525
 345	1	2	-0.108264	-21.4964	-51.2441	0.102684
 346	1	3	-0.051806	-21.9628	-52.7988	-1.69431
 347	1	1	0.038269	-20.8275	-50.2383	-0.812094
 348	1	1	0.012104	-19.6414	-49.5632	-2.78621
 349	1	1	0.009692	-20.8498	-49.0241	-3.32615
 350	1	1	-0.221685	-22.0741	-49.2342	-2.63924
 351	1	1	-0.227504	-19.6319	-50.2185	-1.53365
 352	1	1	0.01292	-20.8274	-48.3518	-4.5742
 353	1	1	-0.039953	-21.7344	-46.7706	-6.13109
 354	1	2	0.00887	-20.9674	-45.7192	-7.80137
 355	1	1	-0.185129	-21.8472	-47.4176	-4.90036
 356	1	1	-0.021786	-20.692	-46.9748	-6.98962
 357	1	1	0.017184	-19.7115	-48.5218	-5.45481
 358	1	1	-0.198557	-19.6151	-47.8015	-6.66997
 359	1	2	-0.002904	-22.1594	-45.4645	-6.78003
 360	1	3	0.041883	-20.086	-44.4571	-7.6315
 361	1	3	0.005012	-19.3557	-44.4722	-6.25786
 362	1	3	-0.193804	-21.2005	-43.4105	-7.39423
 363	1	3	0.042479	-21.7835	-44.1035	-6.1401
 364	1	3	0.00144	-20.5285	-44.2318	-5.22302
 365	1	3	-0.061914	-18.3385	-49.4453	-3.56181
 366	1	3	-0.051146	-18.5956	-49.4824	-5.07686
 367	1	5	0.024509	-22.354	-52.979	1.70454
 368	1	5	0.045413	-24.5563	-52.4182	0.485306
 369	1	5	0.093061	-19.9692	-55.8404	-0.0652822
 370	1	5	0.054925	-20.4643	-57.167	1.00376
 371	1	5	0.0564	-20.4387	-55.5027	1.61259
 372	1	5	0.072515	-24.9305	-54.2794	-3.10384
 373	1	5	0.098261	-26.2365	-54.1771	-1.90781
 374	1	5	0.069746	-25.9669	-55.6857	-2.79888
 375	1	5	0.056967	-23.6268	-50.3687	0.0535327
 376	1	5	0.059195	-24.0337	-51.9838	-2.14783
 377	1	5	0.053458	-20.3208	-53.1579	-0.163374
 378	1	5	0.063182	-21.3861	-51.0318	1.17297
 379	1	5	0.018836	-21.3909	-52.2502	-2.45185
 380	1	5	0.033342	-22.0981	-53.822	-2.05268
 381	1	4	0.15438	-23.0333	-49.0436	-3.10956
 382	1	4	0.144555	-18.7482	-50.7293	-1.16516
 383	1	5	0.03716	-21.2796	-45.8723	-8.84046
 384	1	4	0.135836	-22.6218	-47.1313	-4.19717
 385	1	4	0.135526	-18.7297	-47.8444	-7.2964
 386	1	5	0.041277	-23.1517	-45.4352	-7.23403
 387	1	5	0.00856	-19.4288	-44.2363	-8.48186
 388	1	5	-0.004553	-18.7261	-45.3441	-6.04519
 389	1	5	0.042416	-21.9201	-43.3641	-8.22408
 390	1	5	0.068411	-20.8263	-42.3955	-7.20791
 391	1	5	0.009741	-22.6208	-43.5688	-5.67448
 392	1	5	0.002304	-20.585	-44.9741	-4.41746
 393	1	5	0.050818	-17.6444	-50.251	-3.29138
 394	1	5	0.045418	-17.8469	-48.4991	-3.30162
 395	1	5	0.050853	-17.6678	-49.2424	-5.61124
 396	1	5	0.040294	-18.8789	-50.5014	-5.3714
 397	1	1	-0.162043	-26.9571	-69.6533	-6.72047
 398	1	1	-0.131368	-26.702	-67.4867	-8.66246
 399	1	1	0.053767	-26.269	-69.7941	-7.94072
 400	1	1	-0.089414	-27.6245	-67.4517	-7.59901
 401	1	2	0.07683	-28.2208	-67.5443	-5.55978
 402	1	1	-0.043169	-27.7221	-68.4711	-6.65862
 403	1	1	0.067251	-26.1286	-68.759	-8.84385
 404	1	2	0.019658	-28.1363	-66.3884	-6.64327
 405	1	3	-0.13357	-26.7579	-70.5827	-5.53715
 406	1	3	-0.181622	-26.2431	-66.2419	-9.40013
 407	1	2	-0.091671	-27.9898	-64.8115	-4.94304
 408	1	1	0.028189	-27.2801	-63.9807	-3.89328
 409	1	3	-0.001388	-27.0928	-65.4007	-6.06456
 410	1	3	0.000341	-27.1953	-67.1036	-4.47568
 411	1	2	-0.108264	-28.042	-65.9592	-3.85099
 412	1	3	-0.051806	-26.1182	-66.3349	-5.29336
 413	1	1	0.038269	-27.3156	-64.9753	-2.94684
 414	1	1	0.012104	-25.3518	-64.0673	-1.90472
 415	1	1	0.009692	-25.2885	-63.0441	-2.90137
 416	1	1	-0.221685	-26.2497	-63.0405	-3.94659
 417	1	1	-0.227504	-26.3255	-65.0913	-1.96946
 418	1	1	0.01292	-24.2037	-62.1258	-2.91541
 419	1	1	-0.039953	-23.1018	-60.1707	-3.75454
 420	1	2	0.00887	-21.3108	-59.1296	-3.34176
 421	1	1	-0.185129	-24.2497	-60.9588	-3.73235
 422	1	1	-0.021786	-22.0045	-60.4321	-2.99593
 423	1	1	0.017184	-23.0474	-62.3749	-2.10027
 424	1	1	-0.198557	-21.9366	-61.4957	-2.10138
 425	1	2	-0.002904	-22.6037	-58.8136	-4.22037
 426	1	3	0.041883	-21.2877	-57.9636	-2.32945
 427	1	3	0.005012	-22.4513	-58.1028	-1.30472
 428	1	3	-0.193804	-21.8008	-56.8339	-3.25012
 429	1	3	0.042479	-23.1492	-57.508	-3.58113
 430	1	3	0.00144	-23.7388	-57.7659	-2.15954
 431	1	3	-0.061914	-24.3359	-64.0947	-0.775202
 432	1	3	-0.051146	-22.9538	-63.6405	-1.263
 433	1	5	0.024509	-29.2159	-67.7857	-5.16809
 434	1	5	0.045413	-29.0804	-65.9198	-6.94473
 435	1	5	0.093061	-26.5944	-71.6155	-5.86956
 436	1	5	0.054925	-27.6351	-70.5782	-4.87826
 437	1	5	0.0564	-25.8872	-70.2769	-4.94394
 438	1	5	0.072515	-27.096	-65.6055	-9.66632
 439	1	5	0.098261	-25.7139	-66.496	-10.3242
 440	1	5	0.069746	-25.5597	-65.6507	-8.77893
 441	1	5	0.056967	-28.9464	-64.4016	-5.28873
 442	1	5	0.059195	-26.6445	-64.6853	-6.76461
 443	1	5	0.053458	-26.8336	-67.8813	-3.79185
 444	1	5	0.063182	-29.0325	-66.2691	-3.49686
 445	1	5	0.018836	-25.4058	-65.7885	-4.66311
 446	1	5	0.033342	-25.5446	-66.9871	-5.95819
 447	1	4	0.15438	-26.1367	-62.4312	-4.83523
 448	1	4	0.144555	-26.2838	-65.959	-1.31873
 449	1	5	0.03716	-20.3732	-59.2169	-3.89762
 450	1	4	0.135836	-25.1284	-60.6552	-4.28956
 451	1	4	0.135526	-21.074	-61.6467	-1.45979
 452	1	5	0.041277	-22.4173	-58.7048	-5.29466
 453	1	5	0.00856	-20.3086	-57.771	-1.87367
 454	1	5	-0.004553	-22.5034	-59.0481	-0.750356
 455	1	5	0.042416	-21.1716	-56.6875	-4.13599
 456	1	5	0.068411	-21.9069	-55.8701	-2.74635
 457	1	5	0.009741	-23.8047	-56.9174	-4.23237
 458	1	5	0.002304	-24.532	-58.5215	-2.09702
 459	1	5	0.050818	-24.2561	-65.0972	-0.336096
 460	1	5	0.045418	-24.6725	-63.424	0.0257265
 461	1	5	0.050853	-22.2946	-63.4923	-0.398235
 462	1	5	0.040294	-22.507	-64.4389	-1.86924
 463	1	1	-0.162043	-24.4178	-70.9589	-22.7209
 464	1	1	-0.131368	-22.6311	-68.8517	-21.8635
 465	1	1	0.053767	-23.9244	-69.9869	-23.6149
 466	1	1	-0.089414	-23.0043	-69.9088	-21.0189
 467	1	2	0.07683	-24.5174	-71.0566	-20.0717
 468	1	1	-0.043169	-23.8504	-70.9354	-21.4329
 469	1	1	0.067251	-23.0632	-68.9741	-23.1971
 470	1	2	0.019658	-23.5816	-69.8729	-19.6145
 471	1	3	-0.13357	-25.7209	-71.6922	-22.9921
 472	1	3	-0.181622	-22.137	-67.5255	-21.3087
 473	1	2	-0.091671	-23.8686	-70.4961	-17.409
 474	1	1	0.028189	-23.6229	-71.2979	-16.1483
 475	1	3	-0.001388	-22.7318	-70.4749	-18.4687
 476	1	3	0.000341	-24.0929	-72.237	-19.1547
 477	1	2	-0.108264	-24.7856	-71.7153	-17.866
 478	1	3	-0.051806	-22.5864	-71.9645	-18.8868
 479	1	1	0.038269	-24.3909	-72.3516	-16.5463
 480	1	1	0.012104	-24.4561	-73.1742	-14.307
 481	1	1	0.009692	-23.6708	-72.0552	-13.8677
 482	1	1	-0.221685	-23.2987	-71.0569	-14.8146
 483	1	1	-0.227504	-24.8884	-73.2932	-15.6508
 484	1	1	0.01292	-23.3353	-71.927	-12.4892
 485	1	1	-0.039953	-22.5203	-70.6756	-10.6095
 486	1	2	0.00887	-22.5213	-70.9279	-8.50433
 487	1	1	-0.185129	-22.8632	-70.6917	-11.9599
 488	1	1	-0.021786	-22.7037	-71.7389	-9.77813
 489	1	1	0.017184	-23.5267	-73.0397	-11.6011
 490	1	1	-0.198557	-23.2614	-72.9383	-10.2125
 491	1	2	-0.002904	-22.3335	-69.6832	-9.47959
 492	1	3	0.041883	-23.7376	-70.5104	-7.63717
 493	1	3	0.005012	-25.0552	-70.5473	-8.46393
 494	1	3	-0.193804	-23.4607	-68.9933	-7.54414
 495	1	3	0.042479	-23.4966	-68.7469	-9.06854
 496	1	3	0.00144	-24.8789	-69.3458	-9.4757
 497	1	3	-0.061914	-25.0016	-74.169	-13.2969
 498	1	3	-0.051146	-24.017	-74.373	-12.1396
 499	1	5	0.024509	-25.5998	-70.8805	-20.0847
 500	1	5	0.045413	-24.0537	-68.9198	-19.3512
 501	1	5	0.093061	-25.8274	-71.928	-24.0584
 502	1	5	0.054925	-26.5825	-71.0817	-22.694
 503	1	5	0.0564	-25.7665	-72.6368	-22.4359
 504	1	5	0.072515	-21.7809	-67.6295	-20.2763
 505	1	5	0.098261	-22.9333	-66.7728	-21.3187
 506	1	5	0.069746	-21.3045	-67.1393	-21.9098
 507	1	5	0.056967	-24.3399	-69.5215	-17.2399
 508	1	5	0.059195	-21.8116	-69.9403	-18.2018
 509	1	5	0.053458	-24.3634	-73.2461	-19.4895
 510	1	5	0.063182	-25.8631	-71.5451	-17.9789
 511	1	5	0.018836	-22.1747	-72.5932	-18.0868
 512	1	5	0.033342	-21.9663	-72.0953	-19.7831
 513	1	4	0.15438	-22.7865	-70.1401	-14.5532
 514	1	4	0.144555	-25.6101	-74.0426	-15.9605
 515	1	5	0.03716	-21.6432	-71.1718	-7.89624
 516	1	4	0.135836	-22.8246	-69.7718	-12.5296
 517	1	4	0.135526	-23.4878	-73.7422	-9.51882
 518	1	5	0.041277	-21.3554	-69.1949	-9.41671
 519	1	5	0.00856	-23.8068	-71.0187	-6.66742
 520	1	5	-0.004553	-25.302	-71.5058	-8.93684
 521	1	5	0.042416	-22.4815	-68.7659	-7.0996
 522	1	5	0.068411	-24.225	-68.4401	-6.98959
 523	1	5	0.009741	-23.3714	-67.6999	-9.35639
 524	1	5	0.002304	-25.0033	-69.6187	-10.5304
 525	1	5	0.050818	-25.2106	-75.1363	-13.7713
 526	1	5	0.045418	-25.9542	-73.7959	-12.8993
 527	1	5	0.050853	-24.4994	-74.9654	-11.3519
 528	1	5	0.040294	-23.158	-74.9565	-12.4951
 529	1	1	-0.162043	-24.3468	-66.2512	-13.6529
 530	1	1	-0.131368	-22.1183	-65.0097	-15.0664
 531	1	1	0.053767	-23.2065	-65.7474	-12.9932
 532	1	1	-0.089414	-23.3554	-65.279	-15.6729
 533	1	2	0.07683	-25.0417	-66.4212	-16.2679
 534	1	1	-0.043169	-24.4315	-65.8441	-14.9999
 535	1	1	0.067251	-22.1543	-65.1532	-13.6696
 536	1	2	0.019658	-23.7907	-65.8066	-17.024
 537	1	3	-0.13357	-25.2673	-67.3009	-13.0536
 538	1	3	-0.181622	-20.8363	-64.8008	-15.8518
 539	1	2	-0.091671	-24.9807	-65.8221	-18.9988
 540	1	1	0.028189	-25.941	-65.3146	-20.0541
 541	1	3	-0.001388	-24.4051	-64.7793	-18.0062
 542	1	3	0.000341	-26.2502	-65.66	-16.8906
 543	1	2	-0.108264	-26.2524	-66.3992	-18.2566
 544	1	3	-0.051806	-25.6609	-64.2667	-17.2473
 545	1	1	0.038269	-27.0531	-65.7975	-19.4034
 546	1	1	0.012104	-28.1546	-66.1186	-21.5174
 547	1	1	0.009692	-26.9779	-65.6999	-22.2103
 548	1	1	-0.221685	-25.8467	-65.2987	-21.4474
 549	1	1	-0.227504	-28.1724	-66.242	-20.1086
 550	1	1	0.01292	-26.8588	-65.9388	-23.6122
 551	1	1	-0.039953	-25.45	-66.0641	-25.5832
 552	1	2	0.00887	-25.0942	-67.8022	-26.7491
 553	1	1	-0.185129	-25.7226	-65.4832	-24.3396
 554	1	1	-0.021786	-26.2504	-67.057	-26.098
 555	1	1	0.017184	-27.7557	-66.8661	-24.2347
 556	1	1	-0.198557	-27.4242	-67.4701	-25.4675
 557	1	2	-0.002904	-24.1745	-66.6366	-26.2026
 558	1	3	0.041883	-24.4849	-69.0667	-26.0703
 559	1	3	0.005012	-24.7191	-69.0595	-24.5244
 560	1	3	-0.193804	-22.9897	-68.6906	-26.1639
 561	1	3	0.042479	-23.1232	-67.3918	-25.338
 562	1	3	0.00144	-23.7659	-67.9215	-24.0283
 563	1	3	-0.061914	-29.3644	-66.5729	-22.3111
 564	1	3	-0.051146	-28.9207	-67.4737	-23.4682
 565	1	5	0.024509	-25.1647	-67.5098	-16.26
 566	1	5	0.045413	-23.0744	-66.4934	-17.4908
 567	1	5	0.093061	-24.8131	-67.7793	-12.1778
 568	1	5	0.054925	-25.4906	-68.0932	-13.7788
 569	1	5	0.0564	-26.2193	-66.8539	-12.7421
 570	1	5	0.072515	-20.3376	-65.7582	-16.0468
 571	1	5	0.098261	-20.1357	-64.1603	-15.3015
 572	1	5	0.069746	-21.0384	-64.3216	-16.8178
 573	1	5	0.056967	-24.2353	-66.5303	-19.3749
 574	1	5	0.059195	-23.727	-64.0208	-18.417
 575	1	5	0.053458	-27.1875	-65.6698	-16.3205
 576	1	5	0.063182	-26.3509	-67.4877	-18.1639
 577	1	5	0.018836	-26.3288	-63.6718	-17.8835
 578	1	5	0.033342	-25.4095	-63.6714	-16.36
 579	1	4	0.15438	-24.8651	-65.1798	-21.8848
 580	1	4	0.144555	-28.9831	-66.7512	-19.597
 581	1	5	0.03716	-25.1259	-67.8912	-27.8406
 582	1	4	0.135836	-24.9661	-64.8498	-23.8948
 583	1	4	0.135526	-27.9567	-68.3506	-25.814
 584	1	5	0.041277	-23.7	-66.0225	-26.9759
 585	1	5	0.00856	-24.7448	-70.017	-26.5531
 586	1	5	-0.004553	-25.757	-68.9506	-24.1963
 587	1	5	0.042416	-22.6624	-68.5042	-27.1963
 588	1	5	0.068411	-22.3188	-69.4344	-25.7141
 589	1	5	0.009741	-22.1802	-66.8528	-25.1823
 590	1	5	0.002304	-24.2356	-67.1775	-23.3839
 591	1	5	0.050818	-29.8853	-65.6944	-22.7132
 592	1	5	0.045418	-30.0841	-67.1096	-21.6802
 593	1	5	0.050853	-28.6177	-68.4495	-23.0668
 594	1	5	0.040294	-29.7723	-67.6541	-24.1367
 595	1	1	-0.162043	-19.3085	-54.3181	-4.71783
 596	1	1	-0.131368	-20.0016	-54.7141	-7.47414
 597	1	1	0.053767	-20.5609	-53.9125	-5.21571
 598	1	1	-0.089414	-18.7064	-54.9552	-6.98773
 599	1	2	0.07683	-17.4324	-55.9794	-5.63745
 600	1	1	-0.043169	-18.404	-54.8181	-5.65219
 601	1	1	0.067251	-20.9516	-54.1622	-6.56362
 602	1	2	0.019658	-17.7022	-56.0867	-7.19243
 603	1	3	-0.13357	-18.9874	-54.2795	-3.2324
 604	1	3	-0.181622	-20.3555	-55.1463	-8.89195
 605	1	2	-0.091671	-16.9639	-58.3079	-7.09654
 606	1	1	0.028189	-17.1254	-59.8023	-6.88956
 607	1	3	-0.001388	-18.2738	-57.5132	-7.38488
 608	1	3	0.000341	-17.9924	-57.3241	-5.08025
 609	1	2	-0.108264	-16.8114	-58.2205	-5.52209
 610	1	3	-0.051806	-19.1116	-57.7131	-6.09316
 611	1	1	0.038269	-17.0505	-59.7222	-5.51902
 612	1	1	0.012104	-18.4875	-61.6448	-5.33102
 613	1	1	0.009692	-18.5044	-61.7751	-6.7533
 614	1	1	-0.221685	-17.8668	-60.7859	-7.5449
 615	1	1	-0.227504	-17.7961	-60.5807	-4.70432
 616	1	1	0.01292	-19.2368	-62.8263	-7.36421
 617	1	1	-0.039953	-19.693	-64.2806	-9.20396
 618	1	2	0.00887	-21.1261	-65.7608	-9.67849
 619	1	1	-0.185129	-18.9851	-63.1857	-8.71854
 620	1	1	-0.021786	-20.6788	-64.9039	-8.50562
 621	1	1	0.017184	-20.2338	-63.533	-6.61023
 622	1	1	-0.198557	-21.0197	-64.5575	-7.19997
 623	1	2	-0.002904	-19.9494	-65.0497	-10.4834
 624	1	3	0.041883	-22.3835	-65.3472	-10.4908
 625	1	3	0.005012	-22.3349	-66.1677	-11.8157
 626	1	3	-0.193804	-22.0209	-63.9252	-10.9779