pySIMM System Object

2160 atoms
2520 bonds
5184 angles
9488 dihedrals
256 impropers

5 atom types
9 bond types
18 angle types
19 dihedral types
2 improper types

-181.260683 181.260683 xlo xhi
-181.260683 181.260683 ylo yhi
-181.260683 181.260683 zlo zhi

Masses

   1	12.01	# ca
   2	12.01	# cy
   3	12.01	# c3
   4	1.008	# ha
   5	1.008	# hc

Pair Coeffs

   1	0.086	3.3996695084235347	# ca
   2	0.086	3.3996695084235347	# cy
   3	0.1094	3.3996695084235347	# c3
   4	0.015	2.59964245953351	# ha
   5	0.0157	2.649532787749369	# hc

Bond Coeffs

   1	461.1	1.3984	# ca,ca
   2	300.9	1.5375	# c3,c3
   3	305.9	1.5319	# c3,cy
   4	345.8	1.086	# ca,ha
   5	321.0	1.5156	# c3,ca
   6	285.0	1.5562	# cy,cy
   7	333.3	1.0949	# cy,hc
   8	330.6	1.0969	# c3,hc
   9	321.2	1.5154	# ca,cy

Angle Coeffs

   1	67.9	96.03	# cy,c3,cy
   2	45.97	114.53	# ca,cy,hc
   3	66.62	120.02	# ca,ca,ca
   4	61.4	116.81	# ca,cy,cy
   5	44.83	114.79	# cy,cy,hc
   6	46.43	110.14	# c3,cy,hc
   7	62.86	111.51	# c3,c3,c3
   8	63.15	112.07	# c3,c3,ca
   9	46.34	109.8	# c3,c3,hc
  10	48.18	119.88	# ca,ca,ha
  11	39.4	107.58	# hc,c3,hc
  12	63.53	120.77	# c3,ca,ca
  13	60.66	118.7	# c3,cy,cy
  14	63.51	120.86	# ca,ca,cy
  15	62.73	112.39	# c3,c3,cy
  16	46.29	110.75	# cy,c3,hc
  17	46.8	110.47	# ca,c3,hc
  18	62.8	113.57	# c3,cy,ca

Dihedral Coeffs

   1	3	0.18	3	0.0	0.25	2	180.0	0.2	1	180.0	# c3,c3,cy,cy
   2	1	0.16	3	0.0	# hc,c3,cy,cy
   3	1	0.16	3	0.0	# cy,c3,cy,hc
   4	1	0.16	3	0.0	# c3,c3,cy,hc
   5	1	0.15	3	0.0	# hc,c3,cy,hc
   6	1	3.625	2	180	# X,ca,ca,X
   7	1	0.15555555555555556	3	0	# X,cy,cy,X
   8	3	0.18	3	0	0.25	2	180	0.2	1	180	# c3,c3,c3,c3
   9	1	0.16	3	0	# hc,c3,c3,c3
  10	1	0.0	2	0.0	# ca,ca,cy,cy
  11	1	0.0	2	0.0	# ca,ca,cy,c3
  12	1	0.0	2	0	# X,c3,ca,X
  13	1	0.15555555555555556	3	0	# X,c3,c3,X
  14	3	0.38	3	180.0	0.0	2	0.0	1.15	1	0.0	# ca,ca,cy,hc
  15	3	0.18	3	0.0	0.25	2	180.0	0.2	1	180.0	# cy,c3,cy,cy
  16	1	0.16	3	0.0	# cy,c3,cy,ca
  17	1	0.16	3	0.0	# c3,c3,cy,ca
  18	1	0.16	3	0.0	# hc,c3,cy,ca
  19	1	0.15	3	0	# hc,c3,c3,hc

Improper Coeffs

   1	1.1	-1	2	# ca,ca,ca,c3
   2	1.1	-1	2	# ca,X,X,ha

Atoms

   1	1	1	-0.162043	8.68515	19.1783	15.9833
   2	1	1	-0.131368	6.52071	18.659	14.0847
   3	1	1	0.053767	7.73973	18.1498	16.151
   4	1	1	-0.089414	7.30219	19.8304	14.057
   5	1	2	0.07683	9.06526	21.0157	14.0167
   6	1	1	-0.043169	8.32946	20.0785	14.9596
   7	1	1	0.067251	6.71751	17.905	15.2563
   8	1	2	0.019658	7.89267	20.7305	12.9851
   9	1	3	-0.13357	10.0176	19.2167	16.7092
  10	1	3	-0.181622	5.68692	18.1814	12.9101
  11	1	2	-0.091671	9.29815	21.311	11.2242
  12	1	1	0.028189	10.3986	21.0962	10.2009
  13	1	3	-0.001388	8.60691	20.0412	11.7909
  14	1	3	0.000341	10.3301	20.4629	13.3058
  15	1	2	-0.108264	10.4714	21.5995	12.2564
  16	1	3	-0.051806	9.77643	19.2738	12.4704
  17	1	1	0.038269	11.4082	21.3453	11.0905
  18	1	1	0.012104	12.9563	20.1665	9.69786
  19	1	1	0.009692	11.907	19.8838	8.76491
  20	1	1	-0.221685	10.5822	20.3067	9.0645
  21	1	1	-0.227504	12.6932	20.8338	10.9173
  22	1	1	0.01292	12.1797	19.119	7.59741
  23	1	1	-0.039953	11.5718	18.2636	5.43721
  24	1	2	0.00887	12.6113	17.3435	3.8406
  25	1	1	-0.185129	11.2432	19.0715	6.52544
  26	1	1	-0.021786	12.7685	17.6225	5.32493
  27	1	1	0.017184	13.4316	18.429	7.46944
  28	1	1	-0.198557	13.7652	17.7137	6.29321
  29	1	2	-0.002904	11.218	18.0938	3.96962
  30	1	3	0.041883	13.3669	18.1992	2.79382
  31	1	3	0.005012	13.7595	19.5984	3.34118
  32	1	3	-0.193804	12.1973	18.5954	1.86965
  33	1	3	0.042479	11.3703	19.2754	2.97993
  34	1	3	0.00144	12.398	20.3319	3.46873
  35	1	3	-0.061914	14.3857	19.7461	9.39819
  36	1	3	-0.051146	14.4279	18.4268	8.61732
  37	1	5	0.024509	9.16664	22.0447	14.3812
  38	1	5	0.045413	7.26166	21.5816	12.7035
  39	1	5	0.093061	10.3714	20.2479	16.8317
  40	1	5	0.054925	10.7808	18.6598	16.1518
  41	1	5	0.0564	9.93615	18.7701	17.708
  42	1	5	0.072515	6.28957	17.5693	12.228
  43	1	5	0.098261	5.28554	19.029	12.341
  44	1	5	0.069746	4.83836	17.5742	13.2492
  45	1	5	0.056967	8.61528	22.1389	10.9983
  46	1	5	0.059195	7.976	19.4698	11.099
  47	1	5	0.053458	11.2039	20.2598	13.9369
  48	1	5	0.063182	10.5278	22.6089	12.6815
  49	1	5	0.018836	10.5051	18.8783	11.7515
  50	1	5	0.033342	9.43152	18.4425	13.0939
  51	1	4	0.15438	9.71961	19.9692	8.50237
  52	1	4	0.144555	13.4459	20.9324	11.693
  53	1	5	0.03716	12.5425	16.2902	3.54691
  54	1	4	0.135836	10.3465	19.6796	6.49649
  55	1	4	0.135526	14.7433	17.2664	6.14449
  56	1	5	0.041277	10.3403	17.4764	3.74848
  57	1	5	0.00856	14.1895	17.6782	2.28791
  58	1	5	-0.004553	14.3027	19.55	4.29212
  59	1	5	0.042416	11.6883	17.7274	1.42799
  60	1	5	0.068411	12.4963	19.2884	1.07055
  61	1	5	0.009741	10.4217	19.7091	2.63921
  62	1	5	0.002304	12.2018	20.6808	4.48924
  63	1	5	0.050818	14.9696	19.6407	10.3213
  64	1	5	0.045418	14.8719	20.5303	8.80392
  65	1	5	0.050853	15.4488	18.2524	8.25431
  66	1	5	0.040294	14.1883	17.5996	9.29765
  67	1	1	-0.162043	-2.55945	9.25939	21.8996
  68	1	1	-0.131368	-1.89265	8.24244	19.2346
  69	1	1	0.053767	-2.49344	7.88954	21.5879
  70	1	1	-0.089414	-2.21669	9.59003	19.4846
  71	1	2	0.07683	-2.11135	11.4957	20.4183
  72	1	1	-0.043169	-2.52491	10.073	20.7505
  73	1	1	0.067251	-2.17071	7.41094	20.3347
  74	1	2	0.019658	-1.76818	10.9459	18.9683
  75	1	3	-0.13357	-2.51237	9.80031	23.3168
  76	1	3	-0.181622	-1.18123	7.7681	17.981
  77	1	2	-0.091671	-0.313114	12.7272	18.6418
  78	1	1	0.028189	0.986852	13.4979	18.7702
  79	1	3	-0.001388	-0.241699	11.1867	18.8285
  80	1	3	0.000341	-0.741396	11.9854	20.9631
  81	1	2	-0.108264	-0.645317	13.272	20.0991
  82	1	3	-0.051806	0.277505	11.0251	20.2856
  83	1	1	0.038269	0.705267	13.9597	20.0249
  84	1	1	0.012104	3.01797	14.4427	20.3886
  85	1	1	0.009692	3.32792	13.9584	19.0757
  86	1	1	-0.221685	2.2879	13.4083	18.2758
  87	1	1	-0.227504	1.70211	14.3731	20.9065
  88	1	1	0.01292	4.67215	13.9667	18.6126
  89	1	1	-0.039953	6.3099	13.7727	16.8662
  90	1	2	0.00887	8.35648	14.2792	16.6703
  91	1	1	-0.185129	4.9639	13.7865	17.2305
  92	1	1	-0.021786	7.31875	14.0208	17.7488
  93	1	1	0.017184	5.7446	14.2203	19.5311
  94	1	1	-0.198557	7.08848	14.3077	19.0922
  95	1	2	-0.002904	7.1771	13.9948	15.6387
  96	1	3	0.041883	8.78412	15.7268	16.3187
  97	1	3	0.005012	7.69075	16.7527	16.7446
  98	1	3	-0.193804	8.59401	15.6657	14.7857
  99	1	3	0.042479	7.08838	15.3197	14.8384
 100	1	3	0.00144	6.51834	16.4719	15.7199
 101	1	3	-0.061914	4.10435	15.055	21.2573
 102	1	3	-0.051146	5.46099	14.3808	21.0157
 103	1	5	0.024509	-2.9175	12.2352	20.4915
 104	1	5	0.045413	-2.36462	11.3364	18.1355
 105	1	5	0.093061	-1.47571	9.89471	23.6631
 106	1	5	0.054925	-3.04057	9.13439	24.0106
 107	1	5	0.0564	-2.98205	10.7898	23.379
 108	1	5	0.072515	-1.44033	8.39483	17.1187
 109	1	5	0.098261	-1.45678	6.7342	17.7382
 110	1	5	0.069746	-0.0929154	7.80599	18.113
 111	1	5	0.056967	-0.963903	13.058	17.8234
 112	1	5	0.059195	0.280261	10.6161	18.0504
 113	1	5	0.053458	-0.65678	12.1107	22.0495
 114	1	5	0.063182	-1.5011	13.9508	20.1965
 115	1	5	0.018836	1.31858	11.3503	20.407
 116	1	5	0.033342	0.198653	9.99514	20.652
 117	1	4	0.15438	2.47743	12.8688	17.3554
 118	1	4	0.144555	1.47414	14.6214	21.9382
 119	1	5	0.03716	9.19304	13.5735	16.6202
 120	1	4	0.135836	4.19676	13.7397	16.4663
 121	1	4	0.135526	7.89722	14.5954	19.7569
 122	1	5	0.041277	7.33249	13.1262	14.9893
 123	1	5	0.00856	9.79761	15.9976	16.64
 124	1	5	-0.004553	7.38964	16.7342	17.799
 125	1	5	0.042416	9.19474	14.8749	14.3147
 126	1	5	0.068411	8.81169	16.6105	14.2761
 127	1	5	0.009741	6.60797	15.2319	13.856
 128	1	5	0.002304	5.54113	16.2917	16.1841
 129	1	5	0.050818	3.84739	14.9834	22.3217
 130	1	5	0.045418	4.18874	16.124	21.0233
 131	1	5	0.050853	6.24915	14.965	21.5076
 132	1	5	0.040294	5.45884	13.3906	21.4889
 133	1	1	-0.162043	-6.86601	-6.16128	18.7437
 134	1	1	-0.131368	-4.02602	-6.04965	18.019
 135	1	1	0.053767	-6.06669	-7.30331	18.5541
 136	1	1	-0.089414	-4.76934	-4.92246	18.413
 137	1	2	0.07683	-6.34945	-3.507	18.4831
 138	1	1	-0.043169	-6.10836	-4.97625	18.7731
 139	1	1	0.067251	-4.7235	-7.25326	18.2319
 140	1	2	0.019658	-4.82135	-3.44832	18.0526
 141	1	3	-0.13357	-8.38338	-6.18583	18.7319
 142	1	3	-0.181622	-2.7055	-5.96338	17.2764
 143	1	2	-0.091671	-4.80587	-1.16306	18.4713
 144	1	1	0.028189	-4.71795	0.0896149	19.3213
 145	1	3	-0.001388	-4.18569	-2.45952	19.0637
 146	1	3	0.000341	-6.42383	-2.56242	19.7141
 147	1	2	-0.108264	-6.32733	-1.22697	18.9299
 148	1	3	-0.051806	-5.01408	-2.69825	20.3587
 149	1	1	0.038269	-6.02132	0.0265638	19.729
 150	1	1	0.012104	-5.52521	1.44055	21.5942
 151	1	1	0.009692	-4.16036	1.52603	21.1673
 152	1	1	-0.221685	-3.73569	0.768616	20.0414
 153	1	1	-0.227504	-6.45719	0.621138	20.9125
 154	1	1	0.01292	-3.23194	2.31167	21.9017
 155	1	1	-0.039953	-1.12904	3.45837	22.1032
 156	1	2	0.00887	-0.415987	5.02138	23.3426
 157	1	1	-0.185129	-1.9889	2.68756	21.3211
 158	1	1	-0.021786	-1.47498	3.93039	23.3371
 159	1	1	0.017184	-3.5806	2.80662	23.2004
 160	1	1	-0.198557	-2.71941	3.67661	23.9124
 161	1	2	-0.002904	-0.0219493	4.47822	21.9003
 162	1	3	0.041883	-0.799636	6.49784	23.0644
 163	1	3	0.005012	-2.14555	6.58755	22.2858
 164	1	3	-0.193804	0.234788	6.81436	21.9594
 165	1	3	0.042479	-0.248452	5.71257	20.9885
 166	1	3	0.00144	-1.76732	6.04043	20.8498
 167	1	3	-0.061914	-6.00616	2.24338	22.7923
 168	1	3	-0.051146	-4.89797	2.40274	23.8426
 169	1	5	0.024509	-7.11503	-3.30883	17.7237
 170	1	5	0.045413	-4.58236	-3.22543	17.0061
 171	1	5	0.093061	-8.7675	-6.06394	17.7116
 172	1	5	0.054925	-8.79571	-5.37731	19.3483
 173	1	5	0.0564	-8.76616	-7.13565	19.1259
 174	1	5	0.072515	-2.0934	-6.85652	17.4535
 175	1	5	0.098261	-2.12636	-5.09035	17.6017
 176	1	5	0.069746	-2.87142	-5.87646	16.1955
 177	1	5	0.056967	-4.61115	-1.00986	17.4029
 178	1	5	0.059195	-3.09342	-2.48814	19.1625
 179	1	5	0.053458	-7.28672	-2.68532	20.3803
 180	1	5	0.063182	-7.08988	-1.10048	18.1519
 181	1	5	0.018836	-4.8227	-1.94419	21.1328
 182	1	5	0.033342	-4.84065	-3.68843	20.7995
 183	1	4	0.15438	-2.69143	0.643809	19.7796
 184	1	4	0.144555	-7.46	0.451216	21.2914
 185	1	5	0.03716	0.37112	4.93138	24.0994
 186	1	4	0.135836	-1.74223	2.48876	20.2844
 187	1	4	0.135526	-3.02043	4.15277	24.8405
 188	1	5	0.041277	0.996279	4.08185	21.8196
 189	1	5	0.00856	-0.746743	7.15895	23.9384
 190	1	5	-0.004553	-3.01063	6.09825	22.7485
 191	1	5	0.042416	1.2709	6.66106	22.2924
 192	1	5	0.068411	0.151884	7.82919	21.5527
 193	1	5	0.009741	0.288894	5.68237	20.0324
 194	1	5	0.002304	-2.41072	5.23099	20.4854
 195	1	5	0.050818	-6.88211	1.77321	23.257
 196	1	5	0.045418	-6.32345	3.2376	22.4525
 197	1	5	0.050853	-5.21306	3.13726	24.5946
 198	1	5	0.040294	-4.76245	1.44921	24.3689
 199	1	1	-0.162043	-1.56375	-13.2868	5.41824
 200	1	1	-0.131368	0.223805	-14.3291	7.47049
 201	1	1	0.053767	-0.649931	-14.3309	5.1798
 202	1	1	-0.089414	-0.844043	-13.4614	7.7569
 203	1	2	0.07683	-2.03233	-11.7134	7.56364
 204	1	1	-0.043169	-1.70888	-12.9759	6.78352
 205	1	1	0.067251	0.188283	-14.8367	6.15917
 206	1	2	0.019658	-1.02918	-12.2585	8.66349
 207	1	3	-0.13357	-2.14526	-12.4277	4.31001
 208	1	3	-0.181622	1.41595	-14.5032	8.39388
 209	1	2	-0.091671	-2.08117	-10.9528	10.2648
 210	1	1	0.028189	-3.1479	-10.5921	11.2789
 211	1	3	-0.001388	-1.9164	-12.4583	9.91857
 212	1	3	0.000341	-3.40092	-11.6741	8.29928
 213	1	2	-0.108264	-3.10852	-10.4222	9.16993
 214	1	3	-0.051806	-3.29711	-12.8463	9.31661
 215	1	1	0.038269	-4.03489	-10.1498	10.3416
 216	1	1	0.012104	-5.80956	-10.2718	11.9364
 217	1	1	0.009692	-4.88421	-10.7285	12.9323
 218	1	1	-0.221685	-3.52863	-10.9615	12.5675
 219	1	1	-0.227504	-5.40053	-10.0456	10.5986
 220	1	1	0.01292	-5.33266	-10.9887	14.256
 221	1	1	-0.039953	-4.91581	-11.3826	16.5889
 222	1	2	0.00887	-6.07994	-11.2471	18.3551
 223	1	1	-0.185129	-4.3988	-11.1189	15.3215
 224	1	1	-0.021786	-6.25406	-11.4127	16.8525
 225	1	1	0.017184	-6.73664	-11.039	14.5421
 226	1	1	-0.198557	-7.2152	-11.1923	15.8672
 227	1	2	-0.002904	-4.52037	-11.1954	18.0416
 228	1	3	0.041883	-6.33927	-9.88094	19.043
 229	1	3	0.005012	-6.24492	-8.71327	18.0193
 230	1	3	-0.193804	-5.00726	-9.73626	19.8166
 231	1	3	0.042479	-4.10482	-9.79589	18.5619
 232	1	3	0.00144	-4.70321	-8.66303	17.6712
 233	1	3	-0.061914	-7.25776	-9.99244	12.3055
 234	1	3	-0.051146	-7.74876	-10.9352	13.4127
 235	1	5	0.024509	-1.7817	-10.7799	7.04594
 236	1	5	0.045413	-0.110963	-11.6918	8.85797
 237	1	5	0.093061	-2.29234	-13.0116	3.39277
 238	1	5	0.054925	-1.47607	-11.5911	4.0738
 239	1	5	0.0564	-3.11776	-12.0118	4.60149
 240	1	5	0.072515	1.88981	-15.4818	8.24727
 241	1	5	0.098261	1.11411	-14.4317	9.44611
 242	1	5	0.069746	2.17135	-13.7304	8.20454
 243	1	5	0.056967	-1.13857	-10.4031	10.3752
 244	1	5	0.059195	-1.51842	-13.1095	10.7067
 245	1	5	0.053458	-4.2994	-11.6422	7.67065
 246	1	5	0.063182	-2.81592	-9.53167	8.60069
 247	1	5	0.018836	-4.10387	-12.8394	10.0607
 248	1	5	0.033342	-3.28878	-13.831	8.8317
 249	1	4	0.15438	-2.81888	-11.4581	13.2183
 250	1	4	0.144555	-6.10631	-9.80075	9.81122
 251	1	5	0.03716	-6.39653	-12.0918	18.9767
 252	1	4	0.135836	-3.33806	-10.9318	15.202
 253	1	4	0.135526	-8.27049	-11.1209	16.1121
 254	1	5	0.041277	-3.93183	-12.0009	18.4946
 255	1	5	0.00856	-7.23632	-9.84587	19.6738
 256	1	5	-0.004553	-6.90799	-8.7738	17.1478
 257	1	5	0.042416	-4.8273	-10.5717	20.5077
 258	1	5	0.068411	-4.92023	-8.79923	20.3822
 259	1	5	0.009741	-3.03309	-9.68086	18.7668
 260	1	5	0.002304	-4.47407	-8.70744	16.5997
 261	1	5	0.050818	-7.91331	-10.0873	11.4305
 262	1	5	0.045418	-7.34364	-8.95541	12.6544
 263	1	5	0.050853	-8.72082	-10.5859	13.7833
 264	1	5	0.040294	-7.91276	-11.9333	12.9867
 265	1	1	-0.162043	12.4516	-10.0493	7.84925
 266	1	1	-0.131368	12.3708	-12.9192	8.45156
 267	1	1	0.053767	13.5972	-10.8127	8.14148
 268	1	1	-0.089414	11.2239	-12.1056	8.42389
 269	1	2	0.07683	9.8123	-10.7113	7.66501
 270	1	1	-0.043169	11.26	-10.7493	8.12536
 271	1	1	0.067251	13.5546	-12.1651	8.40906
 272	1	2	0.019658	9.774	-12.261	8.01426
 273	1	3	-0.13357	12.496	-8.68995	7.1762
 274	1	3	-0.181622	12.3361	-14.435	8.38385
 275	1	2	-0.091671	7.99634	-12.5527	6.56756
 276	1	1	0.028189	7.31199	-12.7419	5.2302
 277	1	3	-0.001388	9.49331	-12.9465	6.65183
 278	1	3	0.000341	9.54146	-10.6725	6.13485
 279	1	2	-0.108264	8.02525	-11.0052	6.20675
 280	1	3	-0.051806	10.1744	-11.9981	5.62479
 281	1	1	0.038269	7.33515	-11.4119	4.91629
 282	1	1	0.012104	5.52271	-11.7347	3.38363
 283	1	1	0.009692	5.48403	-13.1324	3.70828
 284	1	1	-0.221685	6.37023	-13.6258	4.70786
 285	1	1	-0.227504	6.40728	-10.8476	4.04433
 286	1	1	0.01292	4.48671	-13.9685	3.12552
 287	1	1	-0.039953	3.16924	-15.9883	3.07382
 288	1	2	0.00887	1.21358	-16.422	2.37693
 289	1	1	-0.185129	4.19947	-15.2557	3.66329
 290	1	1	-0.021786	2.36873	-15.4726	2.09436
 291	1	1	0.017184	3.67904	-13.4721	2.04986
 292	1	1	-0.198557	2.55877	-14.1947	1.57226
 293	1	2	-0.002904	2.14737	-17.0215	3.51485
 294	1	3	0.041883	-0.0333906	-15.9464	3.17275
 295	1	3	0.005012	0.294803	-14.6982	4.04587
 296	1	3	-0.193804	-0.090957	-17.0704	4.2338
 297	1	3	0.042479	1.31949	-16.7986	4.8059
 298	1	3	0.00144	1.24039	-15.2839	5.16432
 299	1	3	-0.061914	4.46456	-11.1232	2.48068
 300	1	3	-0.051146	3.98755	-12.1237	1.42282
 301	1	5	0.024509	9.1628	-10.0539	8.25492
 302	1	5	0.045413	9.105	-12.5717	8.82536
 303	1	5	0.093061	12.5542	-8.79751	6.08599
 304	1	5	0.054925	13.3709	-8.11557	7.50566
 305	1	5	0.0564	11.6005	-8.1017	7.41172
 306	1	5	0.072515	12.3227	-14.7778	7.34186
 307	1	5	0.098261	11.445	-14.8327	8.88465
 308	1	5	0.069746	13.2174	-14.8716	8.8705
 309	1	5	0.056967	7.40068	-12.8799	7.42846
 310	1	5	0.059195	9.7311	-14.0147	6.5753
 311	1	5	0.053458	9.82303	-9.75361	5.606
 312	1	5	0.063182	7.44859	-10.3114	6.83034
 313	1	5	0.018836	9.90308	-12.2283	4.58652
 314	1	5	0.033342	11.2684	-12.0039	5.70192
 315	1	4	0.15438	6.3287	-14.6307	5.10414
 316	1	4	0.144555	6.31848	-9.77072	3.94066
 317	1	5	0.03716	0.954133	-17.1244	1.57714
 318	1	4	0.135836	4.65232	-15.6378	4.56788
 319	1	4	0.135526	1.85409	-13.7636	0.867795
 320	1	5	0.041277	2.42706	-18.0718	3.37618
 321	1	5	0.00856	-0.947298	-15.8408	2.57494
 322	1	5	-0.004553	0.701749	-13.8285	3.5164
 323	1	5	0.042416	-0.180589	-18.0704	3.78633
 324	1	5	0.068411	-0.898575	-16.9486	4.96749
 325	1	5	0.009741	1.60035	-17.4411	5.64982
 326	1	5	0.002304	2.19297	-14.7557	5.28231
 327	1	5	0.050818	4.84746	-10.2233	1.98269
 328	1	5	0.045418	3.60786	-10.8096	3.09094
 329	1	5	0.050853	3.11098	-11.7153	0.904128
 330	1	5	0.040294	4.77297	-12.2502	0.666689
 331	1	1	-0.162043	25.2778	-15.3201	14.6746
 332	1	1	-0.131368	24.7989	-17.4058	12.6953
 333	1	1	0.053767	26.2848	-15.8632	13.8602
 334	1	1	-0.089414	23.8367	-17.0172	13.6516
 335	1	2	0.07683	22.6137	-15.7277	14.8123
 336	1	1	-0.043169	24.0816	-16.0604	14.6308
 337	1	1	0.067251	26.0853	-16.8953	12.9648
 338	1	2	0.019658	22.3287	-16.7904	13.6698
 339	1	3	-0.13357	25.4094	-13.9787	15.373
 340	1	3	-0.181622	24.448	-18.1217	11.4062
 341	1	2	-0.091671	20.3152	-15.6917	13.1757
 342	1	1	0.028189	19.4489	-14.5897	12.5793
 343	1	3	-0.001388	21.7098	-15.9315	12.5269
 344	1	3	0.000341	22.131	-14.3824	14.2186
 345	1	2	-0.108264	20.611	-14.6582	14.3421
 346	1	3	-0.051806	22.4072	-14.5535	12.6983
 347	1	1	0.038269	19.7065	-13.7032	13.594
 348	1	1	0.012104	19.2743	-11.855	12.1298
 349	1	1	0.009692	19.0208	-12.7624	11.0539
 350	1	1	-0.221685	19.1584	-14.1593	11.2825
 351	1	1	-0.227504	19.6987	-12.3232	13.3932
 352	1	1	0.01292	18.707	-12.2597	9.76091
 353	1	1	-0.039953	17.877	-12.5493	7.51945
 354	1	2	0.00887	16.9795	-11.2252	6.12423
 355	1	1	-0.185129	18.1729	-13.1159	8.75995
 356	1	1	-0.021786	17.9584	-11.2046	7.28927
 357	1	1	0.017184	18.8493	-10.8615	9.48089
 358	1	1	-0.198557	18.4019	-10.3061	8.25807
 359	1	2	-0.002904	16.8872	-12.7878	6.39349
 360	1	3	0.041883	15.5079	-10.7625	6.30585
 361	1	3	0.005012	15.0788	-10.8259	7.80173
 362	1	3	-0.193804	14.7857	-11.9959	5.71415
 363	1	3	0.042479	15.3896	-13.01	6.713
 364	1	3	0.00144	15.0179	-12.3812	8.09073
 365	1	3	-0.061914	19.1025	-10.3577	11.9347
 366	1	3	-0.051146	19.4769	-9.9359	10.5094
 367	1	5	0.024509	22.216	-15.9492	15.8098
 368	1	5	0.045413	21.7314	-17.6667	13.9473
 369	1	5	0.093061	25.1583	-13.1575	14.6904
 370	1	5	0.054925	26.4346	-13.8192	15.7296
 371	1	5	0.0564	24.7404	-13.9162	16.2403
 372	1	5	0.072515	25.1532	-18.9363	11.2074
 373	1	5	0.098261	24.4886	-17.4296	10.5584
 374	1	5	0.069746	23.438	-18.5455	11.4485
 375	1	5	0.056967	19.7787	-16.6093	13.445
 376	1	5	0.059195	21.7191	-16.3663	11.5199
 377	1	5	0.053458	22.507	-13.4673	14.6917
 378	1	5	0.063182	20.2709	-14.9244	15.3502
 379	1	5	0.018836	21.9522	-13.7651	12.088
 380	1	5	0.033342	23.4747	-14.5859	12.4655
 381	1	4	0.15438	19.1282	-14.8824	10.481
 382	1	4	0.144555	20.0383	-11.6443	14.1689
 383	1	5	0.03716	17.3844	-10.9509	5.14392
 384	1	4	0.135836	17.8806	-14.1398	8.9591
 385	1	4	0.135526	18.3706	-9.23413	8.08977
 386	1	5	0.041277	17.2281	-13.4086	5.56015
 387	1	5	0.00856	15.2608	-9.81357	5.81374
 388	1	5	-0.004553	15.6937	-10.2555	8.508
 389	1	5	0.042416	15.0791	-12.2	4.67477
 390	1	5	0.068411	13.6915	-11.9323	5.75592
 391	1	5	0.009741	15.0402	-14.0421	6.58327
 392	1	5	0.002304	15.5976	-12.7126	8.95881
 393	1	5	0.050818	19.7081	-9.79117	12.6532
 394	1	5	0.045418	18.0547	-10.0906	12.1233
 395	1	5	0.050853	19.1726	-8.89448	10.3452
 396	1	5	0.040294	20.5686	-9.96826	10.4007
 397	1	1	-0.162043	40.256	-19.5117	9.50054
 398	1	1	-0.131368	38.4543	-19.5287	7.19976
 399	1	1	0.053767	40.6289	-19.0446	8.22526
 400	1	1	-0.089414	38.1903	-20.2452	8.37984
 401	1	2	0.07683	37.9246	-20.5529	10.4629
 402	1	1	-0.043169	39.0371	-20.2208	9.48024
 403	1	1	0.067251	39.7699	-19.0408	7.14615
 404	1	2	0.019658	36.9627	-20.5922	9.19963
 405	1	3	-0.13357	41.0043	-19.1597	10.773
 406	1	3	-0.181622	37.3888	-19.1616	6.1908
 407	1	2	-0.091671	35.1281	-20.1947	10.5623
 408	1	1	0.028189	34.1673	-19.3624	11.3906
 409	1	3	-0.001388	35.9386	-19.4566	9.46264
 410	1	3	0.000341	37.3475	-19.3933	11.3213
 411	1	2	-0.108264	36.0867	-20.1459	11.8309
 412	1	3	-0.051806	36.769	-18.4123	10.2617
 413	1	1	0.038269	34.9952	-19.3142	12.4771
 414	1	1	0.012104	33.8121	-17.4167	13.3171
 415	1	1	0.009692	32.9323	-17.4569	12.1855
 416	1	1	-0.221685	33.1637	-18.4189	11.1633
 417	1	1	-0.227504	34.9056	-18.3068	13.434
 418	1	1	0.01292	31.8994	-16.4871	12.0546
 419	1	1	-0.039953	29.9078	-15.6288	11.0289
 420	1	2	0.00887	28.6436	-13.9662	11.3241
 421	1	1	-0.185129	30.8403	-16.6633	11.1135
 422	1	1	-0.021786	29.9596	-14.5209	11.814
 423	1	1	0.017184	31.9182	-15.3189	12.8914
 424	1	1	-0.198557	30.9173	-14.3232	12.8003
 425	1	2	-0.002904	28.5849	-15.2469	10.3746
 426	1	3	0.041883	27.3862	-14.1255	12.2072
 427	1	3	0.005012	27.5307	-15.3568	13.1636
 428	1	3	-0.193804	26.4224	-14.6481	11.1179
 429	1	3	0.042479	27.2441	-15.9122	10.7862
 430	1	3	0.00144	27.3571	-16.5835	12.1816
 431	1	3	-0.061914	33.5931	-16.4008	14.4244
 432	1	3	-0.051146	33.0666	-15.0792	13.8564
 433	1	5	0.024509	38.0635	-21.4928	11.0099
 434	1	5	0.045413	36.5099	-21.559	8.95058
 435	1	5	0.093061	42.0859	-19.1137	10.5939
 436	1	5	0.054925	40.8262	-19.9062	11.557
 437	1	5	0.0564	40.6835	-18.183	11.1557
 438	1	5	0.072515	36.5674	-19.8875	6.20083
 439	1	5	0.098261	37.8049	-19.1273	5.17727
 440	1	5	0.069746	36.9718	-18.1749	6.42208
 441	1	5	0.056967	34.7425	-21.177	10.2635
 442	1	5	0.059195	35.3763	-19.0851	8.5969
 443	1	5	0.053458	38.0106	-18.9648	12.0829
 444	1	5	0.063182	36.297	-21.0968	12.3353
 445	1	5	0.018836	36.1494	-17.6215	10.7035
 446	1	5	0.033342	37.5479	-17.9354	9.65529
 447	1	4	0.15438	32.6565	-18.3916	10.2061
 448	1	4	0.144555	35.6491	-18.2083	14.2186
 449	1	5	0.03716	28.6773	-13.0014	10.8082
 450	1	4	0.135836	30.7243	-17.5537	10.5064
 451	1	4	0.135526	30.9022	-13.4491	13.4441
 452	1	5	0.041277	28.6276	-15.0402	9.301
 453	1	5	0.00856	27.0555	-13.2059	12.7058
 454	1	5	-0.004553	28.4309	-15.3919	13.7895
 455	1	5	0.042416	26.3341	-13.9649	10.2636
 456	1	5	0.068411	25.4151	-14.8658	11.4832
 457	1	5	0.009741	26.7962	-16.5542	10.0176
 458	1	5	0.002304	28.1375	-17.3489	12.2791
 459	1	5	0.050818	34.5197	-16.2142	14.9819
 460	1	5	0.045418	32.8652	-16.8009	15.1419
 461	1	5	0.050853	32.7591	-14.4255	14.6826
 462	1	5	0.040294	33.8793	-14.5639	13.3285
 463	1	1	-0.162043	43.2186	-22.2046	-5.40269
 464	1	1	-0.131368	41.1442	-20.1857	-5.41045
 465	1	1	0.053767	42.3582	-22.0135	-6.5023
 466	1	1	-0.089414	42.1403	-20.2367	-4.4219
 467	1	2	0.07683	43.2041	-21.2663	-2.89999
 468	1	1	-0.043169	43.1462	-21.1994	-4.41906
 469	1	1	0.067251	41.3678	-21.0389	-6.50581
 470	1	2	0.019658	42.0503	-20.1872	-2.90887
 471	1	3	-0.13357	43.9079	-23.533	-5.14282
 472	1	3	-0.181622	39.7936	-19.5396	-5.15358
 473	1	2	-0.091671	42.6187	-19.5476	-0.765686
 474	1	1	0.028189	43.4036	-18.8251	0.308926
 475	1	3	-0.001388	42.6729	-18.958	-2.20019
 476	1	3	0.000341	44.38	-20.5425	-2.18528
 477	1	2	-0.108264	43.7919	-20.6178	-0.747997
 478	1	3	-0.051806	44.1774	-19.0526	-2.57805
 479	1	1	0.038269	44.4197	-19.7417	0.323104
 480	1	1	0.012104	44.9856	-19.0893	2.5609
 481	1	1	0.009692	43.9152	-18.135	2.56439
 482	1	1	-0.221685	43.0681	-18.0564	1.4229
 483	1	1	-0.227504	45.1947	-19.9568	1.46133
 484	1	1	0.01292	43.6494	-17.3718	3.73921
 485	1	1	-0.039953	42.2312	-15.9685	5.08848
 486	1	2	0.00887	42.1173	-15.5328	7.16138
 487	1	1	-0.185129	42.4156	-16.6788	3.90297
 488	1	1	-0.021786	43.1231	-16.0049	6.12015
 489	1	1	0.017184	44.5946	-17.3685	4.81884
 490	1	1	-0.198557	44.3079	-16.7357	6.05414
 491	1	2	-0.002904	41.0771	-15.505	5.95792
 492	1	3	0.041883	41.465	-16.5299	8.1575
 493	1	3	0.005012	41.5443	-17.9895	7.62252
 494	1	3	-0.193804	39.9771	-16.1811	7.91884
 495	1	3	0.042479	39.9909	-16.5134	6.40935
 496	1	3	0.00144	40.5425	-17.9732	6.39768
 497	1	3	-0.061914	45.7857	-19.3498	3.82621
 498	1	3	-0.051146	45.9307	-18.075	4.6653
 499	1	5	0.024509	42.9826	-22.2562	-2.48358
 500	1	5	0.045413	41.0701	-20.4746	-2.5101
 501	1	5	0.093061	44.2257	-24.0037	-6.08166
 502	1	5	0.054925	43.2332	-24.2285	-4.62821
 503	1	5	0.0564	44.7996	-23.4007	-4.51743
 504	1	5	0.072515	39.3014	-19.2643	-6.09468
 505	1	5	0.098261	39.9008	-18.6275	-4.55358
 506	1	5	0.069746	39.1299	-20.2259	-4.61318
 507	1	5	0.056967	41.6164	-19.864	-0.451945
 508	1	5	0.059195	42.1792	-17.9914	-2.36026
 509	1	5	0.053458	45.3825	-20.9625	-2.33396
 510	1	5	0.063182	43.5635	-21.6384	-0.417765
 511	1	5	0.018836	44.807	-18.3686	-1.9945
 512	1	5	0.033342	44.3604	-18.8659	-3.64421
 513	1	4	0.15438	42.1674	-17.4592	1.38693
 514	1	4	0.144555	45.8709	-20.8037	1.52541
 515	1	5	0.03716	42.3154	-14.5578	7.62018
 516	1	4	0.135836	41.5908	-16.7553	3.2075
 517	1	4	0.135526	44.958	-16.8361	6.91787
 518	1	5	0.041277	40.6611	-14.5173	5.73035
 519	1	5	0.00856	41.7943	-16.421	9.19835
 520	1	5	-0.004553	42.5469	-18.3646	7.3844
 521	1	5	0.042416	39.7529	-15.1237	8.11812
 522	1	5	0.068411	39.279	-16.7952	8.50053
 523	1	5	0.009741	39.0212	-16.3989	5.90898
 524	1	5	0.002304	40.9678	-18.3297	5.45245
 525	1	5	0.050818	46.782	-19.7424	3.58609
 526	1	5	0.045418	45.2763	-20.1173	4.42313
 527	1	5	0.050853	46.3603	-18.3297	5.64248
 528	1	5	0.040294	46.6412	-17.3987	4.17302
 529	1	1	-0.162043	35.3944	-20.0988	2.24188
 530	1	1	-0.131368	34.7205	-18.1706	0.183482
 531	1	1	0.053767	34.9836	-18.7853	2.53572
 532	1	1	-0.089414	34.9421	-19.5308	-0.0965079
 533	1	2	0.07683	36.0836	-21.3173	-0.0228397
 534	1	1	-0.043169	35.2276	-20.4665	0.894362
 535	1	1	0.067251	34.6178	-17.8736	1.55548
 536	1	2	0.019658	35.7995	-20.2334	-1.13751
 537	1	3	-0.13357	36.2019	-20.9422	3.21213
 538	1	3	-0.181622	34.8842	-17.0908	-0.871627
 539	1	2	-0.091671	36.3387	-21.8052	-2.74757
 540	1	1	0.028189	36.1247	-22.9622	-3.70457
 541	1	3	-0.001388	35.0823	-21.0275	-2.2587
 542	1	3	0.000341	35.4442	-22.6145	-0.594986
 543	1	2	-0.108264	36.5573	-22.9047	-1.63233
 544	1	3	-0.051806	34.2718	-22.0936	-1.47134
 545	1	1	0.038269	36.2731	-23.9195	-2.7252
 546	1	1	0.012104	37.1977	-25.4488	-4.33119
 547	1	1	0.009692	37.1499	-24.4368	-5.33753
 548	1	1	-0.221685	36.6071	-23.1655	-5.00059
 549	1	1	-0.227504	36.8312	-25.1682	-2.99673
 550	1	1	0.01292	37.8386	-24.6364	-6.57071
 551	1	1	-0.039953	38.6428	-23.7988	-8.69548
 552	1	2	0.00887	40.5946	-23.9165	-9.52312
 553	1	1	-0.185129	37.7557	-23.6805	-7.62205
 554	1	1	-0.021786	39.6131	-24.7686	-8.73111
 555	1	1	0.017184	38.7967	-25.6983	-6.67442
 556	1	1	-0.198557	39.7312	-25.7355	-7.7339
 557	1	2	-0.002904	39.4678	-22.8026	-9.50081
 558	1	3	0.041883	41.7905	-23.2132	-8.81609
 559	1	3	0.005012	41.5137	-23.0022	-7.29453
 560	1	3	-0.193804	41.5946	-21.7851	-9.37382
 561	1	3	0.042479	40.1702	-21.6064	-8.80128
 562	1	3	0.00144	40.3972	-21.8982	-7.28936
 563	1	3	-0.061914	37.7755	-26.8125	-4.6591
 564	1	3	-0.051146	39.0338	-26.6554	-5.51726
 565	1	5	0.024509	37.1171	-21.4478	0.32036
 566	1	5	0.045413	36.641	-19.6314	-1.50047
 567	1	5	0.093061	36.2296	-21.9933	2.89852
 568	1	5	0.054925	35.762	-20.9113	4.21575
 569	1	5	0.0564	37.2366	-20.5845	3.27753
 570	1	5	0.072515	35.9293	-16.7639	-0.937397
 571	1	5	0.098261	34.2692	-16.2129	-0.63724
 572	1	5	0.069746	34.5807	-17.4557	-1.86081
 573	1	5	0.056967	37.1842	-21.1583	-3.0119
 574	1	5	0.059195	34.536	-20.4403	-3.00747
 575	1	5	0.053458	35.2138	-23.4127	0.121608
 576	1	5	0.063182	37.5552	-23.0039	-1.1876
 577	1	5	0.018836	33.8476	-22.8698	-2.12118
 578	1	5	0.033342	33.4591	-21.6565	-0.876749
 579	1	4	0.15438	36.7296	-22.2974	-5.63385
 580	1	4	0.144555	37.0626	-25.8581	-2.19133
 581	1	5	0.03716	40.8602	-24.2831	-10.5208
 582	1	4	0.135836	37.1313	-22.7987	-7.5658
 583	1	4	0.135526	40.596	-26.3909	-7.69518
 584	1	5	0.041277	39.0698	-22.5291	-10.4842
 585	1	5	0.00856	42.773	-23.6521	-9.03026
 586	1	5	-0.004553	41.265	-23.9002	-6.71918
 587	1	5	0.042416	41.6167	-21.7523	-10.4722
 588	1	5	0.068411	42.3212	-21.0565	-8.99089
 589	1	5	0.009741	39.7192	-20.6264	-9.00111
 590	1	5	0.002304	39.5106	-22.1448	-6.69909
 591	1	5	0.050818	37.0302	-27.3997	-5.21062
 592	1	5	0.045418	38.018	-27.3776	-3.75021
 593	1	5	0.050853	39.8494	-26.2696	-4.8919
 594	1	5	0.040294	39.3506	-27.6402	-5.88374
 595	1	1	-0.162043	23.8566	-12.6343	8.85967
 596	1	1	-0.131368	24.3581	-13.7798	6.26981
 597	1	1	0.053767	23.2937	-13.8755	8.49238
 598	1	1	-0.089414	24.7424	-12.4753	6.60489
 599	1	2	0.07683	25.73	-11.0135	7.77985
 600	1	1	-0.043169	24.5455	-11.9564	7.85655
 601	1	1	0.067251	23.5707	-14.4855	7.22926
 602	1	2	0.019658	25.9223	-11.5611	6.30308
 603	1	3	-0.13357	23.7216	-12.0677	10.2631
 604	1	3	-0.181622	24.8384	-14.3869	4.95669
 605	1	2	-0.091671	28.1522	-10.8797	6.38946
 606	1	1	0.028189	29.6268	-11.0287	6.711
 607	1	3	-0.001388	27.3315	-12.201	6.31303
 608	1	3	0.000341	27.0277	-11.4748	8.50748
 609	1	2	-0.108264	27.9817	-10.4171	7.896
 610	1	3	-0.051806	27.431	-12.7761	7.75302
 611	1	1	0.038269	29.4759	-10.6707	8.0289
 612	1	1	0.012104	31.3712	-12.0306	8.61391
 613	1	1	0.009692	31.5608	-12.3693	7.23819
 614	1	1	-0.221685	30.6241	-11.9044	6.27903
 615	1	1	-0.227504	30.2873	-11.2193	9.02579
 616	1	1	0.01292	32.602	-13.2596	6.85995
 617	1	1	-0.039953	34.0653	-14.2406	5.23679
 618	1	2	0.00887	35.3368	-15.929	5.17398
 619	1	1	-0.185129	33.0066	-13.3728	5.49825
 620	1	1	-0.021786	34.5799	-15.0799	6.176
 621	1	1	0.017184	33.2258	-14.0826	7.85731
 622	1	1	-0.198557	34.1791	-15.0711	7.50832
 623	1	2	-0.002904	34.7785	-14.9158	4.07866
 624	1	3	0.041883	34.7224	-17.2821	4.72093
 625	1	3	0.005012	35.5287	-17.7089	3.46443
 626	1	3	-0.193804	33.3705	-16.8654	4.09705
 627	1	3	0.042479	33.9848	-15.8332	3.12396
 628	1	3	0.00144	35.0591	-16.6737	2.37138
 629	1	3	-0.061914	32.3174	-12.5859	9.66598
 630	1	3	-0.051146	32.7577	-14.0115	9.30023
 631	1	5	0.024509	25.4913	-9.94953	7.89293
 632	1	5	0.045413	25.7581	-10.8513	5.48408
 633	1	5	0.093061	24.1056	-11.0418	10.3199
 634	1	5	0.054925	24.2737	-12.6722	10.9912
 635	1	5	0.0564	22.669	-12.0422	10.5717
 636	1	5	0.072515	24.0201	-14.8741	4.41333
 637	1	5	0.098261	25.6238	-15.1322	5.13314
 638	1	5	0.069746	25.2528	-13.6197	4.29105
 639	1	5	0.056967	27.9154	-10.1461	5.60955
 640	1	5	0.059195	27.5686	-12.8865	5.4901
 641	1	5	0.053458	26.9872	-11.5298	9.60212
 642	1	5	0.063182	27.6743	-9.37905	8.0706
 643	1	5	0.018836	28.4414	-13.122	7.9986
 644	1	5	0.033342	26.7389	-13.6086	7.92916
 645	1	4	0.15438	30.5806	-12.3061	5.27374
 646	1	4	0.144555	30.056	-11.0734	10.0759
 647	1	5	0.03716	36.4244	-15.9651	5.30068