pySIMM System Object

1208 atoms
1414 bonds
2916 angles
5358 dihedrals
144 impropers

5 atom types
9 bond types
18 angle types
19 dihedral types
2 improper types

-148.365420 148.365420 xlo xhi
-148.365420 148.365420 ylo yhi
-148.365420 148.365420 zlo zhi

Masses

   1	12.01	# ca
   2	12.01	# cy
   3	12.01	# c3
   4	1.008	# ha
   5	1.008	# hc

Pair Coeffs

   1	0.086	3.3996695084235347	# ca
   2	0.086	3.3996695084235347	# cy
   3	0.1094	3.3996695084235347	# c3
   4	0.015	2.59964245953351	# ha
   5	0.0157	2.649532787749369	# hc

Bond Coeffs

   1	461.1	1.3984	# ca,ca
   2	300.9	1.5375	# c3,c3
   3	305.9	1.5319	# c3,cy
   4	345.8	1.086	# ca,ha
   5	321.0	1.5156	# c3,ca
   6	285.0	1.5562	# cy,cy
   7	333.3	1.0949	# cy,hc
   8	330.6	1.0969	# c3,hc
   9	321.2	1.5154	# ca,cy

Angle Coeffs

   1	67.9	96.03	# cy,c3,cy
   2	45.97	114.53	# ca,cy,hc
   3	66.62	120.02	# ca,ca,ca
   4	61.4	116.81	# ca,cy,cy
   5	44.83	114.79	# cy,cy,hc
   6	46.43	110.14	# c3,cy,hc
   7	62.86	111.51	# c3,c3,c3
   8	63.15	112.07	# c3,c3,ca
   9	46.34	109.8	# c3,c3,hc
  10	48.18	119.88	# ca,ca,ha
  11	39.4	107.58	# hc,c3,hc
  12	63.53	120.77	# c3,ca,ca
  13	60.66	118.7	# c3,cy,cy
  14	63.51	120.86	# ca,ca,cy
  15	62.73	112.39	# c3,c3,cy
  16	46.29	110.75	# cy,c3,hc
  17	46.8	110.47	# ca,c3,hc
  18	62.8	113.57	# c3,cy,ca

Dihedral Coeffs

   1	3	0.18	3	0.0	0.25	2	180.0	0.2	1	180.0	# c3,c3,cy,cy
   2	1	0.16	3	0.0	# hc,c3,cy,cy
   3	1	0.16	3	0.0	# cy,c3,cy,hc
   4	1	0.16	3	0.0	# c3,c3,cy,hc
   5	1	0.15	3	0.0	# hc,c3,cy,hc
   6	1	3.625	2	180	# X,ca,ca,X
   7	1	0.15555555555555556	3	0	# X,cy,cy,X
   8	3	0.18	3	0	0.25	2	180	0.2	1	180	# c3,c3,c3,c3
   9	1	0.16	3	0	# hc,c3,c3,c3
  10	1	0.0	2	0.0	# ca,ca,cy,cy
  11	1	0.0	2	0.0	# ca,ca,cy,c3
  12	1	0.0	2	0	# X,c3,ca,X
  13	1	0.15555555555555556	3	0	# X,c3,c3,X
  14	3	0.38	3	180.0	0.0	2	0.0	1.15	1	0.0	# ca,ca,cy,hc
  15	3	0.18	3	0.0	0.25	2	180.0	0.2	1	180.0	# cy,c3,cy,cy
  16	1	0.16	3	0.0	# cy,c3,cy,ca
  17	1	0.16	3	0.0	# c3,c3,cy,ca
  18	1	0.16	3	0.0	# hc,c3,cy,ca
  19	1	0.15	3	0	# hc,c3,c3,hc

Improper Coeffs

   1	1.1	-1	2	# ca,ca,ca,c3
   2	1.1	-1	2	# ca,X,X,ha

Atoms

   1	1	1	-0.162043	-14.3195	34.4275	-43.1854
   2	1	1	-0.131368	-12.4932	32.8389	-44.841
   3	1	1	0.053767	-14.088	33.0545	-42.9891
   4	1	1	-0.089414	-12.9145	34.1385	-45.1848
   5	1	2	0.07683	-13.3136	36.2142	-44.9738
   6	1	1	-0.043169	-13.7813	34.8892	-44.4015
   7	1	1	0.067251	-13.2327	32.304	-43.7692
   8	1	2	0.019658	-12.3233	35.3571	-45.8738
   9	1	3	-0.13357	-14.9479	35.3337	-42.1429
  10	1	3	-0.181622	-11.2881	32.1551	-45.4593
  11	1	2	-0.091671	-10.9487	37.2165	-46.1158
  12	1	1	0.028189	-9.88916	38.2237	-45.7091
  13	1	3	-0.001388	-10.9133	35.8257	-45.4228
  14	1	3	0.000341	-12.3684	37.0753	-44.0933
  15	1	2	-0.108264	-11.9378	38.0693	-45.205
  16	1	3	-0.051806	-11.1167	36.1682	-43.9194
  17	1	1	0.038269	-10.7357	38.9492	-44.9224
  18	1	1	0.012104	-8.8784	40.0027	-43.854
  19	1	1	0.009692	-7.97663	39.251	-44.678
  20	1	1	-0.221685	-8.50201	38.2846	-45.5817
  21	1	1	-0.227504	-10.2785	39.8014	-43.92
  22	1	1	0.01292	-6.5729	39.4359	-44.5479
  23	1	1	-0.039953	-4.32009	39.1593	-45.3348
  24	1	2	0.00887	-2.46035	40.0674	-44.8939
  25	1	1	-0.185129	-5.68271	38.9556	-45.5501
  26	1	1	-0.021786	-3.83557	39.8724	-44.2791
  27	1	1	0.017184	-6.04746	40.1745	-43.4359
  28	1	1	-0.198557	-4.6634	40.453	-43.3211
  29	1	2	-0.002904	-3.02622	39.2422	-46.1263
  30	1	3	0.041883	-2.06785	41.4206	-45.5376
  31	1	3	0.005012	-3.30345	42.2476	-45.9852
  32	1	3	-0.193804	-1.56401	40.9341	-46.9119
  33	1	3	0.042479	-2.88435	40.2395	-47.3029
  34	1	3	0.00144	-3.86163	41.4411	-47.1876
  35	1	3	-0.061914	-8.34772	41.0574	-42.8967
  36	1	3	-0.051146	-6.97476	40.6652	-42.3361
  37	1	5	0.024509	-14.0909	36.7851	-45.4954
  38	1	5	0.045413	-12.484	35.3905	-46.9577
  39	1	5	0.093061	-14.1894	35.7069	-41.4437
  40	1	5	0.054925	-15.7087	34.7981	-41.5614
  41	1	5	0.0564	-15.4322	36.1995	-42.6114
  42	1	5	0.072515	-10.3665	32.4476	-44.9412
  43	1	5	0.098261	-11.1823	32.4241	-46.5176
  44	1	5	0.069746	-11.378	31.0633	-45.3984
  45	1	5	0.056967	-11.1617	37.1844	-47.1911
  46	1	5	0.059195	-10.0705	35.1689	-45.6714
  47	1	5	0.053458	-12.7982	37.5075	-43.1813
  48	1	5	0.063182	-12.7688	38.578	-45.7085
  49	1	5	0.018836	-10.2612	36.6996	-43.4833
  50	1	5	0.033342	-11.3164	35.2817	-43.3051
  51	1	4	0.15438	-7.87998	37.5717	-46.1097
  52	1	4	0.144555	-10.9655	40.2819	-43.2306
  53	1	5	0.03716	-1.62117	39.5961	-44.3705
  54	1	4	0.135836	-6.023	38.5246	-46.4845
  55	1	4	0.135526	-4.26465	41.0951	-42.5416
  56	1	5	0.041277	-2.51257	38.2942	-46.3204
  57	1	5	0.00856	-1.33416	42.0015	-44.9645
  58	1	5	-0.004553	-4.04294	42.3808	-45.1871
  59	1	5	0.042416	-0.719612	40.2351	-46.835
  60	1	5	0.068411	-1.29496	41.758	-47.5879
  61	1	5	0.009741	-2.87597	39.7735	-48.2964
  62	1	5	0.002304	-4.90367	41.1344	-47.0409
  63	1	5	0.050818	-9.04503	41.2237	-42.0658
  64	1	5	0.045418	-8.25771	42.0122	-43.4304
  65	1	5	0.050853	-6.54062	41.5222	-41.8056
  66	1	5	0.040294	-7.10476	39.8666	-41.5945
  67	1	1	-0.162043	-17.5388	18.8137	-42.695
  68	1	1	-0.131368	-14.6592	18.8352	-42.1458
  69	1	1	0.053767	-16.9001	17.8722	-41.8694
  70	1	1	-0.089414	-15.2565	19.6116	-43.1586
  71	1	2	0.07683	-16.6125	20.9661	-44.0706
  72	1	1	-0.043169	-16.6208	19.5982	-43.418
  73	1	1	0.067251	-15.5452	17.8821	-41.6081
  74	1	2	0.019658	-15.0498	20.9838	-43.783
  75	1	3	-0.13357	-19.0366	19.0594	-42.6877
  76	1	3	-0.181622	-13.2662	19.0894	-41.6008
  77	1	2	-0.091671	-15.0719	23.3129	-43.8928
  78	1	1	0.028189	-15.3083	24.7286	-43.3925
  79	1	3	-0.001388	-14.8616	22.1962	-42.8289
  80	1	3	0.000341	-17.1598	22.1515	-43.2323
  81	1	2	-0.108264	-16.642	23.2792	-44.161
  82	1	3	-0.051806	-16.1887	22.2155	-42.0188
  83	1	1	0.038269	-16.6545	24.6882	-43.6065
  84	1	1	0.012104	-16.9587	26.6085	-42.2251
  85	1	1	0.009692	-15.5397	26.6925	-42.0296
  86	1	1	-0.221685	-14.699	25.6793	-42.5729
  87	1	1	-0.227504	-17.5393	25.5582	-42.9758
  88	1	1	0.01292	-14.9934	27.7591	-41.265
  89	1	1	-0.039953	-13.1589	29.1651	-40.5992
  90	1	2	0.00887	-13.0204	31.0913	-39.7291
  91	1	1	-0.185129	-13.6138	28.0937	-41.3707
  92	1	1	-0.021786	-13.9914	29.9286	-39.8319
  93	1	1	0.017184	-15.8548	28.5723	-40.4578
  94	1	1	-0.198557	-15.3654	29.7071	-39.7683
  95	1	2	-0.002904	-12.0492	30.2066	-40.6267
  96	1	3	0.041883	-13.2288	32.3651	-40.5875
  97	1	3	0.005012	-14.091	32.0546	-41.8485
  98	1	3	-0.193804	-11.808	32.4848	-41.1857
  99	1	3	0.042479	-11.825	31.1008	-41.876
 100	1	3	0.00144	-13.1155	31.1875	-42.7446
 101	1	3	-0.061914	-17.8792	27.674	-41.6529
 102	1	3	-0.051146	-17.3304	28.2316	-40.3335
 103	1	5	0.024509	-16.9252	20.9703	-45.1215
 104	1	5	0.045413	-14.3862	20.9923	-44.6554
 105	1	5	0.093061	-19.312	19.76	-41.8897
 106	1	5	0.054925	-19.5888	18.1258	-42.5224
 107	1	5	0.0564	-19.3733	19.4835	-43.6418
 108	1	5	0.072515	-12.6344	19.5881	-42.3463
 109	1	5	0.098261	-12.7756	18.1482	-41.3228
 110	1	5	0.069746	-13.3064	19.7268	-40.7091
 111	1	5	0.056967	-14.4134	23.2377	-44.7665
 112	1	5	0.059195	-13.9295	22.2301	-42.2512
 113	1	5	0.053458	-18.2338	22.1472	-43.0093
 114	1	5	0.063182	-16.9702	23.1979	-45.2043
 115	1	5	0.018836	-16.31	23.1282	-41.4214
 116	1	5	0.033342	-16.2892	21.3535	-41.3486
 117	1	4	0.15438	-13.6462	25.5957	-42.3283
 118	1	4	0.144555	-18.614	25.4324	-43.0617
 119	1	5	0.03716	-12.6407	31.3212	-38.7274
 120	1	4	0.135836	-12.9523	27.6242	-42.0901
 121	1	4	0.135526	-16.0254	30.3953	-39.2491
 122	1	5	0.041277	-11.107	29.9248	-40.1438
 123	1	5	0.00856	-13.562	33.2476	-40.0272
 124	1	5	-0.004553	-15.0734	31.6017	-41.6707
 125	1	5	0.042416	-11.0292	32.5635	-40.4143
 126	1	5	0.068411	-11.6892	33.3256	-41.8805
 127	1	5	0.009741	-10.9187	30.8699	-42.4498
 128	1	5	0.002304	-13.5369	30.2343	-43.0853
 129	1	5	0.050818	-18.8885	27.2761	-41.4871
 130	1	5	0.045418	-17.9755	28.4927	-42.3775
 131	1	5	0.050853	-17.9171	29.1107	-40.0383
 132	1	5	0.040294	-17.4617	27.482	-39.5427
 133	1	1	-0.162043	-12.0958	4.85249	-36.8979
 134	1	1	-0.131368	-11.1587	6.88451	-35.0069
 135	1	1	0.053767	-11.9731	4.62277	-35.5147
 136	1	1	-0.089414	-11.0211	7.01308	-36.4023
 137	1	2	0.07683	-11.6332	7.0515	-38.4365
 138	1	1	-0.043169	-11.4856	6.05778	-37.2972
 139	1	1	0.067251	-11.5518	5.58935	-34.6245
 140	1	2	0.019658	-11.0798	8.13906	-37.4193
 141	1	3	-0.13357	-12.9219	3.98073	-37.8259
 142	1	3	-0.181622	-11.0475	8.0482	-34.0396
 143	1	2	-0.091671	-12.063	9.81723	-38.6868
 144	1	1	0.028189	-13.1871	10.7088	-39.1766
 145	1	3	-0.001388	-12.2397	9.16019	-37.2896
 146	1	3	0.000341	-13.0668	7.55454	-38.7671
 147	1	2	-0.108264	-12.6454	8.72836	-39.6917
 148	1	3	-0.051806	-13.5073	8.27561	-37.4612
 149	1	1	0.038269	-13.698	9.77016	-40.0256
 150	1	1	0.012104	-15.7572	10.976	-40.1482
 151	1	1	0.009692	-15.2241	11.9777	-39.2717
 152	1	1	-0.221685	-13.9265	11.798	-38.7172
 153	1	1	-0.227504	-15.0146	9.81615	-40.48
 154	1	1	0.01292	-16.0118	13.107	-38.919
 155	1	1	-0.039953	-16.2476	15.3246	-38.0225
 156	1	2	0.00887	-17.734	16.8269	-38.1537
 157	1	1	-0.185129	-15.4047	14.2636	-38.3537
 158	1	1	-0.021786	-17.5843	15.3218	-38.2981
 159	1	1	0.017184	-17.4156	13.1193	-39.2088
 160	1	1	-0.198557	-18.2127	14.2602	-38.9469
 161	1	2	-0.002904	-16.1734	16.8322	-37.8419
 162	1	3	0.041883	-17.8416	17.7311	-39.4076
 163	1	3	0.005012	-17.2333	17.0256	-40.6562
 164	1	3	-0.193804	-16.7483	18.7662	-39.0544
 165	1	3	0.042479	-15.598	17.7367	-38.9643
 166	1	3	0.00144	-15.6796	17.0338	-40.3537
 167	1	3	-0.061914	-17.1364	11.1521	-40.7624
 168	1	3	-0.051146	-18.0834	11.8918	-39.8075
 169	1	5	0.024509	-11.0157	6.83462	-39.3161
 170	1	5	0.045413	-10.1082	8.58913	-37.6544
 171	1	5	0.093061	-12.8659	2.92555	-37.5304
 172	1	5	0.054925	-12.567	4.05767	-38.8612
 173	1	5	0.0564	-13.9766	4.28181	-37.8065
 174	1	5	0.072515	-10.6595	7.71722	-33.0682
 175	1	5	0.098261	-12.0284	8.50979	-33.8724
 176	1	5	0.069746	-10.3706	8.82036	-34.4255
 177	1	5	0.056967	-11.0544	10.1974	-38.8892
 178	1	5	0.059195	-12.2157	9.82844	-36.42
 179	1	5	0.053458	-13.7649	6.81971	-39.1865
 180	1	5	0.063182	-12.0083	8.43558	-40.5349
 181	1	5	0.018836	-14.4249	8.86463	-37.5861
 182	1	5	0.033342	-13.6585	7.58325	-36.6246
 183	1	4	0.15438	-13.5348	12.4229	-37.923
 184	1	4	0.144555	-15.4417	9.00125	-41.0558
 185	1	5	0.03716	-18.3692	17.1764	-37.3323
 186	1	4	0.135836	-14.3304	14.3782	-38.2645
 187	1	4	0.135526	-19.2502	14.3235	-39.2604
 188	1	5	0.041277	-15.9053	17.1896	-36.8415
 189	1	5	0.00856	-18.836	18.1615	-39.58
 190	1	5	-0.004553	-17.6455	16.0423	-40.9118
 191	1	5	0.042416	-16.9383	19.2735	-38.0982
 192	1	5	0.068411	-16.5976	19.5321	-39.825
 193	1	5	0.009741	-14.6155	18.1726	-38.7446
 194	1	5	0.002304	-15.1956	16.053	-40.4324
 195	1	5	0.050818	-17.5756	10.1835	-41.0328
 196	1	5	0.045418	-17.043	11.7282	-41.692
 197	1	5	0.050853	-19.0009	12.1636	-40.3448
 198	1	5	0.040294	-18.3797	11.213	-38.9976
 199	1	1	-0.162043	-5.88668	0.434001	-22.4501
 200	1	1	-0.131368	-7.94084	2.35797	-21.6925
 201	1	1	0.053767	-6.24489	0.688509	-21.1143
 202	1	1	-0.089414	-7.73743	1.94078	-23.0205
 203	1	2	0.07683	-6.61774	1.56418	-24.7828
 204	1	1	-0.043169	-6.77148	1.00844	-23.3805
 205	1	1	0.067251	-7.23653	1.58406	-20.7504
 206	1	2	0.019658	-7.70317	2.64241	-24.3689
 207	1	3	-0.13357	-4.55959	-0.190496	-22.843
 208	1	3	-0.181622	-8.64853	3.65319	-21.3382
 209	1	2	-0.091671	-8.21559	2.96433	-26.6142
 210	1	1	0.028189	-8.8682	2.65616	-27.9493
 211	1	3	-0.001388	-8.88488	2.37669	-25.3384
 212	1	3	0.000341	-7.30219	0.76681	-25.9258
 213	1	2	-0.108264	-7.14677	1.85439	-27.0197
 214	1	3	-0.051806	-8.81351	0.839657	-25.5646
 215	1	1	0.038269	-7.96566	1.6912	-28.2848
 216	1	1	0.012104	-9.4218	0.893603	-29.9988
 217	1	1	0.009692	-10.3592	1.93394	-29.6859
 218	1	1	-0.221685	-10.1045	2.79259	-28.5789
 219	1	1	-0.227504	-8.23045	0.724469	-29.2516
 220	1	1	0.01292	-11.5412	2.07999	-30.4615
 221	1	1	-0.039953	-13.4117	3.37348	-31.2391
 222	1	2	0.00887	-14.6666	3.28416	-32.947
 223	1	1	-0.185129	-12.2794	3.29558	-30.4283
 224	1	1	-0.021786	-13.7716	2.38356	-32.1081
 225	1	1	0.017184	-11.937	1.04224	-31.3673
 226	1	1	-0.198557	-13.0331	1.20937	-32.2488
 227	1	2	-0.002904	-14.2287	4.44032	-31.9455
 228	1	3	0.041883	-14.196	3.82109	-34.3249
 229	1	3	0.005012	-12.6447	3.78438	-34.4399
 230	1	3	-0.193804	-14.4648	5.32816	-34.1075
 231	1	3	0.042479	-13.5347	5.46506	-32.8796
 232	1	3	0.00144	-12.1823	4.90684	-33.4245
 233	1	3	-0.061914	-9.66876	-0.0364157	-31.1758
 234	1	3	-0.051146	-11.1689	-0.268582	-31.4012
 235	1	5	0.024509	-5.60587	1.90924	-25.0268
 236	1	5	0.045413	-7.39987	3.69502	-24.3248
 237	1	5	0.093061	-4.34874	-1.07779	-22.233
 238	1	5	0.054925	-3.73572	0.519949	-22.7019
 239	1	5	0.0564	-4.5616	-0.502151	-23.895
 240	1	5	0.072515	-9.52843	3.80664	-21.9752
 241	1	5	0.098261	-7.97947	4.51236	-21.4711
 242	1	5	0.069746	-8.98784	3.64755	-20.2948
 243	1	5	0.056967	-7.85214	3.99339	-26.5059
 244	1	5	0.059195	-9.86004	2.79033	-25.0527
 245	1	5	0.053458	-6.8929	-0.225751	-26.1512
 246	1	5	0.063182	-6.11562	2.18976	-27.1845
 247	1	5	0.018836	-9.46495	0.498436	-26.3794
 248	1	5	0.033342	-9.06359	0.264722	-24.6636
 249	1	4	0.15438	-10.8387	3.48974	-28.192
 250	1	4	0.144555	-7.55292	-0.106422	-29.421
 251	1	5	0.03716	-15.7365	3.04832	-32.9376
 252	1	4	0.135836	-11.937	4.17469	-29.8944
 253	1	4	0.135526	-13.2695	0.481646	-33.019
 254	1	5	0.041277	-15.0479	4.88717	-31.3713
 255	1	5	0.00856	-14.7152	3.38774	-35.1888
 256	1	5	-0.004553	-12.1695	2.808	-34.2873
 257	1	5	0.042416	-15.5165	5.53988	-33.8691
 258	1	5	0.068411	-14.1726	5.95734	-34.957
 259	1	5	0.009741	-13.4651	6.48218	-32.4743
 260	1	5	0.002304	-11.4521	4.57483	-32.6772
 261	1	5	0.050818	-9.17069	-1.00261	-31.0252
 262	1	5	0.045418	-9.2341	0.407215	-32.0807
 263	1	5	0.050853	-11.3177	-0.791698	-32.3542
 264	1	5	0.040294	-11.5526	-0.929629	-30.6134
 265	1	1	-0.162043	-2.56242	12.4725	-13.6554
 266	1	1	-0.131368	-4.95962	11.2447	-12.5248
 267	1	1	0.053767	-2.82397	12.4255	-12.2743
 268	1	1	-0.089414	-4.82664	11.5391	-13.8972
 269	1	2	0.07683	-3.89536	11.5026	-15.8078
 270	1	1	-0.043169	-3.67833	12.1102	-14.4334
 271	1	1	0.067251	-3.95136	11.8347	-11.7381
 272	1	2	0.019658	-5.22016	10.8696	-15.2058
 273	1	3	-0.13357	-1.18028	12.7113	-14.2356
 274	1	3	-0.181622	-5.96965	10.253	-11.9776
 275	1	2	-0.091671	-5.16905	9.23767	-16.8687
 276	1	1	0.028189	-4.72855	7.93915	-17.5173
 277	1	3	-0.001388	-4.9928	9.33994	-15.3268
 278	1	3	0.000341	-3.02919	10.2659	-16.1789
 279	1	2	-0.108264	-3.82205	9.84793	-17.4447
 280	1	3	-0.051806	-3.45728	9.19872	-15.1323
 281	1	1	0.038269	-3.55586	8.45845	-17.9986
 282	1	1	0.012104	-2.5952	6.25813	-18.028
 283	1	1	0.009692	-3.83895	5.69557	-17.594
 284	1	1	-0.221685	-4.88905	6.58392	-17.2276
 285	1	1	-0.227504	-2.42709	7.65661	-18.1677
 286	1	1	0.01292	-3.97297	4.2832	-17.4493
 287	1	1	-0.039953	-5.22605	2.31479	-16.8396
 288	1	2	0.00887	-5.09242	0.263921	-17.3583
 289	1	1	-0.185129	-5.18416	3.70169	-16.9781
 290	1	1	-0.021786	-4.20494	1.49652	-17.2339
 291	1	1	0.017184	-2.92417	3.4125	-17.8968
 292	1	1	-0.198557	-3.05438	2.00324	-17.8368
 293	1	2	-0.002904	-6.27915	1.22567	-16.922
 294	1	3	0.041883	-5.5588	-0.256408	-18.7445
 295	1	3	0.005012	-5.47512	0.864607	-19.8178
 296	1	3	-0.193804	-7.08168	-0.333133	-18.485
 297	1	3	0.042479	-7.24201	1.16483	-18.1372
 298	1	3	0.00144	-6.62065	1.86065	-19.3901
 299	1	3	-0.061914	-1.36255	5.3808	-18.1585
 300	1	3	-0.051146	-1.72382	3.97223	-18.6414
 301	1	5	0.024509	-4.01651	12.2307	-16.6184
 302	1	5	0.045413	-6.17086	11.2155	-15.6278
 303	1	5	0.093061	-1.24263	13.1891	-15.2212
 304	1	5	0.054925	-0.63725	11.7651	-14.3505
 305	1	5	0.0564	-0.585772	13.3644	-13.5846
 306	1	5	0.072515	-5.53078	9.25014	-11.9062
 307	1	5	0.098261	-6.85399	10.1909	-12.6236
 308	1	5	0.069746	-6.30694	10.5467	-10.9757
 309	1	5	0.056967	-6.11064	9.65054	-17.2502
 310	1	5	0.059195	-5.63015	8.69437	-14.7101
 311	1	5	0.053458	-1.95236	10.4336	-16.303
 312	1	5	0.063182	-3.91285	10.6349	-18.203
 313	1	5	0.018836	-3.08534	8.19285	-15.3637
 314	1	5	0.033342	-3.13696	9.44994	-14.1181
 315	1	4	0.15438	-5.77671	6.27046	-16.6959
 316	1	4	0.144555	-1.4494	8.09815	-18.3331
 317	1	5	0.03716	-4.88394	-0.553881	-16.6597
 318	1	4	0.135836	-6.08853	4.26712	-16.7999
 319	1	4	0.135526	-2.33751	1.34436	-18.3173
 320	1	5	0.041277	-6.77346	0.952592	-15.9831
 321	1	5	0.00856	-5.10359	-1.20436	-19.0576
 322	1	5	-0.004553	-4.4934	1.33087	-19.9595
 323	1	5	0.042416	-7.3342	-0.993069	-17.6431
 324	1	5	0.068411	-7.66679	-0.650791	-19.358
 325	1	5	0.009741	-8.27269	1.47404	-17.923
 326	1	5	0.002304	-6.29714	2.90018	-19.2636
 327	1	5	0.050818	-0.86978	5.30903	-17.1804
 328	1	5	0.045418	-0.634264	5.82546	-18.8487
 329	1	5	0.050853	-1.95542	4.00992	-19.7136
 330	1	5	0.040294	-0.851443	3.31583	-18.5286
 331	1	1	-0.162043	-1.84205	14.5682	2.21291
 332	1	1	-0.131368	-2.21529	11.7326	1.596
 333	1	1	0.053767	-1.05009	13.5478	2.77026
 334	1	1	-0.089414	-3.16927	12.7177	1.27268
 335	1	2	0.07683	-3.87807	14.5277	0.412591
 336	1	1	-0.043169	-2.97863	14.0673	1.54737
 337	1	1	0.067251	-1.21443	12.2137	2.45968
 338	1	2	0.019658	-4.11471	12.9868	0.114148
 339	1	3	-0.13357	-1.43107	16.029	2.1899
 340	1	3	-0.181622	-2.17886	10.3577	0.954054
 341	1	2	-0.091671	-4.70155	13.5122	-2.0754
 342	1	1	0.028189	-4.43767	13.8435	-3.53174
 343	1	3	-0.001388	-3.55365	12.7892	-1.31689
 344	1	3	0.000341	-3.18331	15.0483	-0.876642
 345	1	2	-0.108264	-4.441	15.0486	-1.78923
 346	1	3	-0.051806	-2.38295	13.8108	-1.37619
 347	1	1	0.038269	-4.20252	15.1751	-3.28429
 348	1	1	0.012104	-2.74938	15.2876	-5.19356
 349	1	1	0.009692	-2.96806	13.8987	-5.44686
 350	1	1	-0.221685	-3.79619	13.1567	-4.56419
 351	1	1	-0.227504	-3.31172	15.9189	-4.06057
 352	1	1	0.01292	-2.25021	13.2411	-6.48103
 353	1	1	-0.039953	-1.81222	11.3299	-7.85675
 354	1	2	0.00887	-0.52219	10.8775	-9.46983
 355	1	1	-0.185129	-2.6413	11.9451	-6.92209
 356	1	1	-0.021786	-0.721304	11.9358	-8.40007
 357	1	1	0.017184	-1.12106	13.886	-7.08962
 358	1	1	-0.198557	-0.360881	13.247	-8.10035
 359	1	2	-0.002904	-1.81086	10.1779	-8.84451
 360	1	3	0.041883	-0.947538	11.1495	-10.9319
 361	1	3	0.005012	-2.01692	12.2794	-10.9979
 362	1	3	-0.193804	-1.79714	9.88112	-11.1717
 363	1	3	0.042479	-2.8053	10.1597	-10.0342
 364	1	3	0.00144	-3.30362	11.5972	-10.3815
 365	1	3	-0.061914	-1.85664	16.0981	-6.11806
 366	1	3	-0.051146	-0.671391	15.2592	-6.61547
 367	1	5	0.024509	-4.7507	15.1134	0.724543
 368	1	5	0.045413	-5.13233	12.6044	0.255232
 369	1	5	0.093061	-2.30906	16.6866	2.20161
 370	1	5	0.054925	-0.849059	16.2556	1.288
 371	1	5	0.0564	-0.813462	16.2796	3.06145
 372	1	5	0.072515	-1.55998	10.3673	0.0482698
 373	1	5	0.098261	-3.18597	10.026	0.672743
 374	1	5	0.069746	-1.76044	9.61192	1.64135
 375	1	5	0.056967	-5.7053	13.1246	-1.86327
 376	1	5	0.059195	-3.32854	11.76	-1.62263
 377	1	5	0.053458	-2.63121	15.9925	-0.794803
 378	1	5	0.063182	-5.28225	15.6373	-1.40423
 379	1	5	0.018836	-1.97591	13.9392	-2.38664
 380	1	5	0.033342	-1.55324	13.544	-0.712661
 381	1	4	0.15438	-3.82754	12.0737	-4.57725
 382	1	4	0.144555	-3.02069	16.9222	-3.76637
 383	1	5	0.03716	0.399413	10.2885	-9.40657
 384	1	4	0.135836	-3.55471	11.4588	-6.59862
 385	1	4	0.135526	0.459548	13.742	-8.61079
 386	1	5	0.041277	-1.63983	9.17888	-8.4286
 387	1	5	0.00856	-0.116274	11.2801	-11.6358
 388	1	5	-0.004553	-1.74294	13.2372	-10.5387
 389	1	5	0.042416	-1.22877	8.95301	-11.0184
 390	1	5	0.068411	-2.25453	9.84191	-12.164
 391	1	5	0.009741	-3.60985	9.41868	-9.94902
 392	1	5	0.002304	-3.76752	12.1607	-9.56226
 393	1	5	0.050818	-1.48068	16.9998	-5.61836
 394	1	5	0.045418	-2.44556	16.4358	-6.98046
 395	1	5	0.050853	-0.153837	15.8016	-7.41686
 396	1	5	0.040294	0.0501753	15.1373	-5.79749
 397	1	1	-0.162043	5.68962	3.44235	10.7643
 398	1	1	-0.131368	5.45379	2.86009	7.90542
 399	1	1	0.053767	6.69993	2.80896	10.0186
 400	1	1	-0.089414	4.35382	3.23035	8.7045
 401	1	2	0.07683	3.27061	4.46433	10.0571
 402	1	1	-0.043169	4.47511	3.53609	10.0558
 403	1	1	0.067251	6.59593	2.55764	8.66715
 404	1	2	0.019658	3.11525	4.08879	8.52273
 405	1	3	-0.13357	5.93041	4.0892	12.1156
 406	1	3	-0.181622	5.46015	2.9512	6.39079
 407	1	2	-0.091671	1.92384	6.04907	8.16834
 408	1	1	0.028189	1.75164	7.53034	7.90352
 409	1	3	-0.001388	3.29667	5.4364	7.78104
 410	1	3	0.000341	3.54735	5.99618	10.031
 411	1	2	-0.108264	2.10072	6.4534	9.69352
 412	1	3	-0.051806	4.30238	6.20227	8.6867
 413	1	1	0.038269	1.90979	7.88523	9.2158
 414	1	1	0.012104	2.54288	10.0992	8.54251
 415	1	1	0.009692	2.37085	9.7431	7.16438
 416	1	1	-0.221685	2.05592	8.39121	6.84929
 417	1	1	-0.227504	2.39351	9.14258	9.57607
 418	1	1	0.01292	2.60717	10.7119	6.14434
 419	1	1	-0.039953	2.9218	11.3537	3.84529
 420	1	2	0.00887	2.88867	13.183	2.7793
 421	1	1	-0.185129	2.612	10.3532	4.76484
 422	1	1	-0.021786	3.08082	12.6614	4.19574
 423	1	1	0.017184	2.77027	12.0944	6.49753
 424	1	1	-0.198557	2.94617	13.0975	5.51196
 425	1	2	-0.002904	2.70203	11.6554	2.37427
 426	1	3	0.041883	1.5457	13.8212	2.33713
 427	1	3	0.005012	0.377069	13.3627	3.25789
 428	1	3	-0.193804	1.28966	12.9915	1.05806
 429	1	3	0.042479	1.2733	11.6214	1.77412
 430	1	3	0.00144	0.194735	11.8366	2.88114
 431	1	3	-0.061914	3.08224	11.469	8.91656
 432	1	3	-0.051146	2.59152	12.5425	7.93819
 433	1	5	0.024509	2.45683	4.16305	10.7271
 434	1	5	0.045413	2.21405	3.5341	8.23632
 435	1	5	0.093061	5.00967	4.11699	12.7112
 436	1	5	0.054925	6.2898	5.11874	11.9961
 437	1	5	0.0564	6.68296	3.53339	12.689
 438	1	5	0.072515	5.7598	3.95478	6.06418
 439	1	5	0.098261	4.46573	2.74254	5.97761
 440	1	5	0.069746	6.16339	2.23101	5.95443
 441	1	5	0.056967	1.05572	5.43045	7.91031
 442	1	5	0.059195	3.53231	5.38517	6.71101
 443	1	5	0.053458	4.00727	6.43131	10.9267
 444	1	5	0.063182	1.3381	6.09708	10.3964
 445	1	5	0.018836	4.40835	7.25894	8.41076
 446	1	5	0.033342	5.3011	5.75206	8.68698
 447	1	4	0.15438	2.06742	7.99104	5.84563
 448	1	4	0.144555	2.69242	9.35534	10.5977
 449	1	5	0.03716	3.75329	13.6774	2.32272
 450	1	4	0.135836	2.36723	9.36706	4.39606
 451	1	4	0.135526	2.92895	14.155	5.75773
 452	1	5	0.041277	3.45557	11.2675	1.67987
 453	1	5	0.00856	1.58394	14.9056	2.17423
 454	1	5	-0.004553	0.501122	13.5546	4.33045
 455	1	5	0.042416	2.1054	13.0785	0.326565
 456	1	5	0.068411	0.348631	13.2374	0.55305
 457	1	5	0.009741	1.07186	10.7672	1.11576
 458	1	5	0.002304	0.225443	11.1482	3.73385
 459	1	5	0.050818	4.17934	11.4411	8.90088
 460	1	5	0.045418	2.78495	11.7437	9.93671
 461	1	5	0.050853	1.52854	12.7424	8.12451
 462	1	5	0.040294	3.1299	13.4799	8.12809
 463	1	1	-0.162043	11.093	-8.97003	3.86628
 464	1	1	-0.131368	12.8365	-7.12655	2.39208
 465	1	1	0.053767	12.2154	-9.38487	3.13335
 466	1	1	-0.089414	11.5647	-6.75903	2.88363
 467	1	2	0.07683	10.021	-6.52433	4.32693
 468	1	1	-0.043169	10.767	-7.62866	3.61374
 469	1	1	0.067251	13.0599	-8.51798	2.46934
 470	1	2	0.019658	10.8783	-5.51807	3.44416
 471	1	3	-0.13357	10.4016	-9.82492	4.91262
 472	1	3	-0.181622	13.8873	-6.12316	1.95286
 473	1	2	-0.091671	10.3958	-3.85764	5.00002
 474	1	1	0.028189	10.5868	-3.04426	6.26258
 475	1	3	-0.001388	11.6334	-4.65829	4.48727
 476	1	3	0.000341	10.4652	-6.20565	5.78615
 477	1	2	-0.108264	9.64161	-4.90661	5.93865
 478	1	3	-0.051806	11.919	-5.67637	5.62784
 479	1	1	0.038269	9.99756	-3.96141	7.0725
 480	1	1	0.012104	10.3018	-2.53677	8.95212
 481	1	1	0.009692	10.7879	-1.50352	8.07937
 482	1	1	-0.221685	10.9495	-1.77038	6.68947
 483	1	1	-0.227504	9.85237	-3.78334	8.44501
 484	1	1	0.01292	11.0159	-0.201324	8.60026
 485	1	1	-0.039953	11.0428	2.19126	8.33358
 486	1	2	0.00887	10.5243	3.76594	9.65814
 487	1	1	-0.185129	10.9596	0.92956	7.74262
 488	1	1	-0.021786	11.1299	2.36944	9.69024
 489	1	1	0.017184	11.1124	-0.00433722	10.0134
 490	1	1	-0.198557	11.1299	1.29254	10.5774
 491	1	2	-0.002904	10.3982	3.54502	8.09177
 492	1	3	0.041883	9.05545	4.01302	10.0969
 493	1	3	0.005012	8.21436	2.70515	10.0224
 494	1	3	-0.193804	8.55588	4.78461	8.8538
 495	1	3	0.042479	8.86787	3.65322	7.84764
 496	1	3	0.00144	8.09686	2.44205	8.46675
 497	1	3	-0.061914	10.1076	-2.25457	10.4326
 498	1	3	-0.051146	11.1065	-1.20712	10.9388
 499	1	5	0.024509	8.93619	-6.52812	4.16737
 500	1	5	0.045413	10.3331	-4.9294	2.69714
 501	1	5	0.093061	10.816	-9.63352	5.91012
 502	1	5	0.054925	10.5255	-10.8933	4.69561
 503	1	5	0.0564	9.32563	-9.61332	4.94521
 504	1	5	0.072515	14.6714	-6.60438	1.35501
 505	1	5	0.098261	14.3656	-5.65245	2.82044
 506	1	5	0.069746	13.4398	-5.33001	1.34097
 507	1	5	0.056967	9.82056	-3.35688	4.21187
 508	1	5	0.059195	12.486	-4.07387	4.12002
 509	1	5	0.053458	10.3002	-6.98626	6.53899
 510	1	5	0.063182	8.56366	-5.04288	5.78892
 511	1	5	0.018836	12.3016	-5.19812	6.53871
 512	1	5	0.033342	12.626	-6.46087	5.33133
 513	1	4	0.15438	11.3308	-1.043	5.98225
 514	1	4	0.144555	9.38514	-4.53368	9.07479
 515	1	5	0.03716	11.1868	4.5865	9.95504
 516	1	4	0.135836	10.675	0.850505	6.69981
 517	1	4	0.135526	11.042	1.44838	11.6482
 518	1	5	0.041277	10.9678	4.25265	7.47923
 519	1	5	0.00856	8.94414	4.5579	11.0426
 520	1	5	-0.004553	8.58033	1.85335	10.6057
 521	1	5	0.042416	9.13639	5.69755	8.66015
 522	1	5	0.068411	7.49507	5.05661	8.89888
 523	1	5	0.009741	8.58352	3.87762	6.812
 524	1	5	0.002304	8.41132	1.44298	8.14604
 525	1	5	0.050818	10.22	-3.17139	11.0218
 526	1	5	0.045418	9.09039	-1.88048	10.5977
 527	1	5	0.050853	10.8458	-0.921199	11.9658
 528	1	5	0.040294	12.1113	-1.64704	10.9733
 529	1	1	-0.162043	21.824	-17.1902	-5.08201
 530	1	1	-0.131368	23.2679	-15.3739	-3.28395
 531	1	1	0.053767	23.0011	-17.5403	-4.40234
 532	1	1	-0.089414	22.2465	-14.9454	-4.16003
 533	1	2	0.07683	20.3374	-14.9222	-5.0957
 534	1	1	-0.043169	21.558	-15.8126	-4.99893
 535	1	1	0.067251	23.6769	-16.6971	-3.54547
 536	1	2	0.019658	21.1312	-13.9075	-4.16588
 537	1	3	-0.13357	20.879	-18.2002	-5.70689
 538	1	3	-0.181622	23.7714	-14.5537	-2.11091
 539	1	2	-0.091671	19.0935	-12.9545	-3.55351
 540	1	1	0.028189	17.8074	-12.8214	-2.75991
 541	1	3	-0.001388	20.2394	-13.7901	-2.90342
 542	1	3	0.000341	19.1074	-15.3307	-4.23773
 543	1	2	-0.108264	18.3064	-14.0181	-4.42761
 544	1	3	-0.051806	19.6308	-15.2163	-2.77748
 545	1	1	0.038269	17.1393	-13.7732	-3.48638
 546	1	1	0.012104	15.7703	-14.2614	-1.57002
 547	1	1	0.009692	16.3874	-13.1927	-0.842869
 548	1	1	-0.221685	17.5031	-12.5349	-1.42977
 549	1	1	-0.227504	16.1795	-14.5883	-2.8849
 550	1	1	0.01292	15.993	-12.906	0.494809
 551	1	1	-0.039953	16.2309	-11.7061	2.5645
 552	1	2	0.00887	15.1805	-11.6195	4.39125
 553	1	1	-0.185129	16.5781	-11.8278	1.22059
 554	1	1	-0.021786	15.3287	-12.5225	3.17974
 555	1	1	0.017184	14.9354	-13.6542	1.10946
 556	1	1	-0.198557	14.576	-13.4521	2.4644
 557	1	2	-0.002904	16.2074	-10.6508	3.65848
 558	1	3	0.041883	13.9281	-10.7366	4.57329
 559	1	3	0.005012	13.2367	-10.4929	3.20483
 560	1	3	-0.193804	14.6163	-9.37583	4.83577
 561	1	3	0.042479	15.3817	-9.34048	3.49266
 562	1	3	0.00144	14.2235	-9.50791	2.45581
 563	1	3	-0.061914	14.8166	-15.2218	-0.878919
 564	1	3	-0.051146	14.0502	-14.5615	0.272282
 565	1	5	0.024509	20.0948	-14.5831	-6.10982
 566	1	5	0.045413	21.408	-12.9435	-4.60824
 567	1	5	0.093061	20.2751	-17.7414	-6.49958
 568	1	5	0.054925	20.1945	-18.6094	-4.95347
 569	1	5	0.0564	21.4329	-19.0374	-6.14959
 570	1	5	0.072515	23.5337	-13.4904	-2.23841
 571	1	5	0.098261	24.8596	-14.6437	-2.00562
 572	1	5	0.069746	23.3115	-14.8925	-1.17418
 573	1	5	0.056967	19.4236	-12.0379	-4.057
 574	1	5	0.059195	20.7104	-13.3743	-2.00419
 575	1	5	0.053458	18.6002	-16.2641	-4.51115
 576	1	5	0.063182	18.1083	-13.7586	-5.47459
 577	1	5	0.018836	18.832	-15.2747	-2.02787
 578	1	5	0.033342	20.3791	-15.9807	-2.53348
 579	1	4	0.15438	18.1762	-11.9023	-0.866278
 580	1	4	0.144555	15.8345	-15.4932	-3.37538
 581	1	5	0.03716	15.5314	-12.0344	5.33798
 582	1	4	0.135836	17.2283	-11.0881	0.770911
 583	1	4	0.135526	13.7104	-13.936	2.9068
 584	1	5	0.041277	17.1484	-10.4856	4.19496
 585	1	5	0.00856	13.2452	-11.0647	5.36682
 586	1	5	-0.004553	12.9452	-11.3803	2.6321
 587	1	5	0.042416	15.2891	-9.39643	5.70294
 588	1	5	0.068411	13.9156	-8.54216	4.96933
 589	1	5	0.009741	15.9836	-8.43568	3.34136
 590	1	5	0.002304	14.5183	-9.84025	1.45264
 591	1	5	0.050818	15.3936	-16.0663	-0.48141
 592	1	5	0.045418	14.0987	-15.6413	-1.59553
 593	1	5	0.050853	13.23	-13.9634	-0.145158
 594	1	5	0.040294	13.5867	-15.3399	0.891858
 595	1	1	-0.162043	23.6571	-21.5621	11.0822
 596	1	1	-0.131368	25.7664	-19.7746	10.2194
 597	1	1	0.053767	23.8026	-20.2688	11.6318
 598	1	1	-0.089414	25.6294	-21.0931	9.7723
 599	1	2	0.07683	24.843	-22.9198	9.04608
 600	1	1	-0.043169	24.6562	-21.9498	10.1961
 601	1	1	0.067251	24.8391	-19.3656	11.2377
 602	1	2	0.019658	25.9615	-21.9121	8.53449
 603	1	3	-0.13357	22.4729	-22.4563	11.407
 604	1	3	-0.181622	26.8887	-18.9529	9.59804
 605	1	2	-0.091671	25.6774	-22.6879	6.35261
 606	1	1	0.028189	24.9826	-22.8347	5.00683
 607	1	3	-0.001388	25.3994	-21.4008	7.1744
 608	1	3	0.000341	23.7736	-22.8984	7.92504
 609	1	2	-0.108264	24.5856	-23.7196	6.88752
 610	1	3	-0.051806	23.8581	-21.4428	7.38137
 611	1	1	0.038269	24.0663	-23.73	5.46668
 612	1	1	0.012104	22.8342	-23.5545	3.44159
 613	1	1	0.009692	23.7955	-22.6181	2.92922
 614	1	1	-0.221685	24.8592	-22.1841	3.77596
 615	1	1	-0.227504	22.9233	-24.0726	4.75566
 616	1	1	0.01292	23.672	-22.1542	1.58498
 617	1	1	-0.039953	24.2806	-20.7262	-0.247867
 618	1	2	0.00887	23.9092	-20.6706	-2.32675
 619	1	1	-0.185129	24.416	-21.0309	1.10893
 620	1	1	-0.021786	23.5393	-21.4761	-1.10322
 621	1	1	0.017184	22.8107	-22.8655	0.676389
 622	1	1	-0.198557	22.7408	-22.536	-0.698621
 623	1	2	-0.002904	24.7552	-19.7594	-1.32807
 624	1	3	0.041883	22.8675	-19.6973	-2.90797
 625	1	3	0.005012	23.6705	-18.7865	-3.87392
 626	1	3	-0.193804	22.5829	-18.7563	-1.71285
 627	1	3	0.042479	24.0631	-18.3726	-1.48535
 628	1	3	0.00144	24.4679	-17.8279	-2.89149
 629	1	3	-0.061914	21.6205	-23.9289	2.61253
 630	1	3	-0.051146	22.0137	-24.0726	1.14021
 631	1	5	0.024509	25.1719	-23.9231	9.3417
 632	1	5	0.045413	26.9899	-22.2891	8.48952
 633	1	5	0.093061	21.5957	-22.1774	10.8104
 634	1	5	0.054925	22.1996	-22.3789	12.467
 635	1	5	0.0564	22.7014	-23.5094	11.2001
 636	1	5	0.072515	27.7372	-18.8582	10.2856
 637	1	5	0.098261	26.5665	-17.9607	9.29018
 638	1	5	0.069746	27.2807	-19.4376	8.69583
 639	1	5	0.056967	26.7238	-23.0158	6.36797
 640	1	5	0.059195	25.8191	-20.4657	6.78345