pySIMM System Object

1004 atoms
1177 bonds
2430 angles
4473 dihedrals
120 impropers

5 atom types
9 bond types
18 angle types
19 dihedral types
2 improper types

-139.067526 139.067526 xlo xhi
-139.067526 139.067526 ylo yhi
-139.067526 139.067526 zlo zhi

Masses

   1	12.01	# ca
   2	12.01	# cy
   3	12.01	# c3
   4	1.008	# ha
   5	1.008	# hc

Pair Coeffs

   1	0.086	3.3996695084235347	# ca
   2	0.086	3.3996695084235347	# cy
   3	0.1094	3.3996695084235347	# c3
   4	0.015	2.59964245953351	# ha
   5	0.0157	2.649532787749369	# hc

Bond Coeffs

   1	461.1	1.3984	# ca,ca
   2	300.9	1.5375	# c3,c3
   3	305.9	1.5319	# c3,cy
   4	345.8	1.086	# ca,ha
   5	321.0	1.5156	# c3,ca
   6	285.0	1.5562	# cy,cy
   7	333.3	1.0949	# cy,hc
   8	330.6	1.0969	# c3,hc
   9	321.2	1.5154	# ca,cy

Angle Coeffs

   1	67.9	96.03	# cy,c3,cy
   2	45.97	114.53	# ca,cy,hc
   3	66.62	120.02	# ca,ca,ca
   4	61.4	116.81	# ca,cy,cy
   5	44.83	114.79	# cy,cy,hc
   6	46.43	110.14	# c3,cy,hc
   7	62.86	111.51	# c3,c3,c3
   8	63.15	112.07	# c3,c3,ca
   9	46.34	109.8	# c3,c3,hc
  10	48.18	119.88	# ca,ca,ha
  11	39.4	107.58	# hc,c3,hc
  12	63.53	120.77	# c3,ca,ca
  13	60.66	118.7	# c3,cy,cy
  14	63.51	120.86	# ca,ca,cy
  15	62.73	112.39	# c3,c3,cy
  16	46.29	110.75	# cy,c3,hc
  17	46.8	110.47	# ca,c3,hc
  18	62.8	113.57	# c3,cy,ca

Dihedral Coeffs

   1	3	0.18	3	0.0	0.25	2	180.0	0.2	1	180.0	# c3,c3,cy,cy
   2	1	0.16	3	0.0	# hc,c3,cy,cy
   3	1	0.16	3	0.0	# cy,c3,cy,hc
   4	1	0.16	3	0.0	# c3,c3,cy,hc
   5	1	0.15	3	0.0	# hc,c3,cy,hc
   6	1	3.625	2	180	# X,ca,ca,X
   7	1	0.15555555555555556	3	0	# X,cy,cy,X
   8	3	0.18	3	0	0.25	2	180	0.2	1	180	# c3,c3,c3,c3
   9	1	0.16	3	0	# hc,c3,c3,c3
  10	1	0.0	2	0.0	# ca,ca,cy,cy
  11	1	0.0	2	0.0	# ca,ca,cy,c3
  12	1	0.0	2	0	# X,c3,ca,X
  13	1	0.15555555555555556	3	0	# X,c3,c3,X
  14	3	0.38	3	180.0	0.0	2	0.0	1.15	1	0.0	# ca,ca,cy,hc
  15	3	0.18	3	0.0	0.25	2	180.0	0.2	1	180.0	# cy,c3,cy,cy
  16	1	0.16	3	0.0	# cy,c3,cy,ca
  17	1	0.16	3	0.0	# c3,c3,cy,ca
  18	1	0.16	3	0.0	# hc,c3,cy,ca
  19	1	0.15	3	0	# hc,c3,c3,hc

Improper Coeffs

   1	1.1	-1	2	# ca,ca,ca,c3
   2	1.1	-1	2	# ca,X,X,ha

Atoms

   1	1	1	-0.162043	-50.0835	-30.8461	-15.0498
   2	1	1	-0.131368	-49.6807	-28.7388	-13.062
   3	1	1	0.053767	-49.2032	-29.7652	-15.2334
   4	1	1	-0.089414	-50.7254	-29.6818	-12.9832
   5	1	2	0.07683	-51.6681	-31.5848	-12.9764
   6	1	1	-0.043169	-50.9294	-30.6715	-13.9376
   7	1	1	0.067251	-49.0268	-28.7552	-14.3094
   8	1	2	0.019658	-51.4262	-30.4619	-11.8808
   9	1	3	-0.13357	-50.0149	-32.1277	-15.8602
  10	1	3	-0.181622	-49.2051	-27.9191	-11.8769
  11	1	2	-0.091671	-51.6395	-32.0667	-10.1986
  12	1	1	0.028189	-51.183	-33.2111	-9.30751
  13	1	3	-0.001388	-50.5337	-31.1681	-10.8215
  14	1	3	0.000341	-50.8918	-32.8132	-12.4355
  15	1	2	-0.108264	-51.8871	-33.1805	-11.3029
  16	1	3	-0.051806	-49.7005	-32.1702	-11.6701
  17	1	1	0.038269	-51.3945	-34.1687	-10.2651
  18	1	1	0.012104	-49.8131	-35.6175	-9.2002
  19	1	1	0.009692	-49.5864	-34.6309	-8.18886
  20	1	1	-0.221685	-50.2428	-33.3731	-8.28679
  21	1	1	-0.227504	-50.6708	-35.3599	-10.2938
  22	1	1	0.01292	-48.643	-34.8795	-7.15551
  23	1	1	-0.039953	-47.6557	-34.3756	-5.02603
  24	1	2	0.00887	-46.3728	-35.4022	-3.69189
  25	1	1	-0.185129	-48.6379	-34.0865	-5.97378
  26	1	1	-0.021786	-46.7826	-35.4151	-5.15424
  27	1	1	0.017184	-47.7273	-35.9774	-7.27223
  28	1	1	-0.198557	-46.8123	-36.29	-6.23767
  29	1	2	-0.002904	-47.4006	-34.2025	-3.53848
  30	1	3	0.041883	-46.9259	-36.4627	-2.70805
  31	1	3	0.005012	-48.2632	-37.0836	-3.19305
  32	1	3	-0.193804	-47.4528	-35.5456	-1.5855
  33	1	3	0.042479	-48.4091	-34.7499	-2.49725
  34	1	3	0.00144	-49.2734	-35.9138	-3.05639
  35	1	3	-0.061914	-49.1156	-36.9657	-9.12721
  36	1	3	-0.051146	-47.7086	-36.8278	-8.53179
  37	1	5	0.024509	-52.7083	-31.7939	-13.2528
  38	1	5	0.045413	-52.3161	-29.9738	-11.4668
  39	1	5	0.093061	-50.9908	-32.6279	-15.8926
  40	1	5	0.054925	-49.2898	-32.8261	-15.4246
  41	1	5	0.0564	-49.7091	-31.9247	-16.8941
  42	1	5	0.072515	-48.4387	-28.4624	-11.3106
  43	1	5	0.098261	-50.0343	-27.6934	-11.1951
  44	1	5	0.069746	-48.7717	-26.9659	-12.2043
  45	1	5	0.056967	-52.5174	-31.5197	-9.8344
  46	1	5	0.059195	-49.9758	-30.5207	-10.1338
  47	1	5	0.053458	-50.6489	-33.6029	-13.1569
  48	1	5	0.063182	-52.9205	-33.3375	-11.6346
  49	1	5	0.018836	-49.1432	-32.8909	-11.0586
  50	1	5	0.033342	-48.9888	-31.6722	-12.3366
  51	1	4	0.15438	-49.9646	-32.525	-7.67181
  52	1	4	0.144555	-50.7436	-36.0392	-11.1373
  53	1	5	0.03716	-45.3291	-35.1437	-3.48138
  54	1	4	0.135836	-49.4011	-33.3465	-5.75987
  55	1	4	0.135526	-46.1811	-37.1727	-6.2707
  56	1	5	0.041277	-46.9555	-33.251	-3.22703
  57	1	5	0.00856	-46.1892	-37.2065	-2.37911
  58	1	5	-0.004553	-48.209	-37.4779	-4.21423
  59	1	5	0.042416	-46.6668	-34.9199	-1.14016
  60	1	5	0.068411	-47.9749	-36.0962	-0.790246
  61	1	5	0.009741	-48.9933	-33.9785	-1.97979
  62	1	5	0.002304	-49.7617	-35.6676	-4.00638
  63	1	5	0.050818	-49.0473	-37.4313	-10.1185
  64	1	5	0.045418	-49.7078	-37.6429	-8.49845
  65	1	5	0.050853	-47.2998	-37.8259	-8.32937
  66	1	5	0.040294	-47.0487	-36.3586	-9.27274
  67	1	1	-0.162043	-42.1815	-18.1528	-20.6704
  68	1	1	-0.131368	-41.8001	-18.2427	-17.77
  69	1	1	0.053767	-40.9662	-17.838	-20.0363
  70	1	1	-0.089414	-43.0625	-18.3434	-18.386
  71	1	2	0.07683	-44.5818	-18.9913	-19.7164
  72	1	1	-0.043169	-43.251	-18.2636	-19.7602
  73	1	1	0.067251	-40.7918	-17.8413	-18.667
  74	1	2	0.019658	-44.3522	-19.1149	-18.15
  75	1	3	-0.13357	-42.2937	-18.4926	-22.1456
  76	1	3	-0.181622	-41.5315	-18.674	-16.3403
  77	1	2	-0.091671	-45.7517	-20.9861	-18.0836
  78	1	1	0.028189	-46.138	-22.4444	-18.2965
  79	1	3	-0.001388	-44.2425	-20.6514	-17.9169
  80	1	3	0.000341	-44.6021	-20.4572	-20.2132
  81	1	2	-0.108264	-45.9999	-20.8207	-19.6446
  82	1	3	-0.051806	-43.6192	-21.1722	-19.2432
  83	1	1	0.038269	-46.3606	-22.2892	-19.637
  84	1	1	0.012104	-46.0991	-24.6396	-19.9744
  85	1	1	0.009692	-45.9158	-24.8356	-18.5645
  86	1	1	-0.221685	-45.8319	-23.6842	-17.726
  87	1	1	-0.227504	-46.2527	-23.3499	-20.5294
  88	1	1	0.01292	-45.7307	-26.1576	-18.0568
  89	1	1	-0.039953	-45.1712	-27.7248	-16.3144
  90	1	2	0.00887	-45.3394	-29.8197	-16.0724
  91	1	1	-0.185129	-45.4172	-26.4005	-16.6856
  92	1	1	-0.021786	-45.3244	-28.7751	-17.1696
  93	1	1	0.017184	-45.9393	-27.2845	-18.9247
  94	1	1	-0.198557	-45.7847	-28.6151	-18.4712
  95	1	2	-0.002904	-45.1448	-28.6003	-15.0676
  96	1	3	0.041883	-46.6788	-30.4466	-15.6132
  97	1	3	0.005012	-47.8808	-29.5015	-15.9288
  98	1	3	-0.193804	-46.5037	-30.2623	-14.0887
  99	1	3	0.042479	-46.384	-28.7216	-14.1407
 100	1	3	0.00144	-47.6882	-28.3237	-14.8905
 101	1	3	-0.061914	-45.9535	-25.7982	-20.9431
 102	1	3	-0.051146	-46.4878	-27.0902	-20.3262
 103	1	5	0.024509	-45.4376	-18.3914	-20.0481
 104	1	5	0.045413	-45.0783	-18.6106	-17.5019
 105	1	5	0.093061	-41.5794	-17.9096	-22.7405
 106	1	5	0.054925	-43.3	-18.2768	-22.5259
 107	1	5	0.0564	-42.0874	-19.5562	-22.3175
 108	1	5	0.072515	-41.3594	-19.7559	-16.2857
 109	1	5	0.098261	-42.3816	-18.432	-15.6905
 110	1	5	0.069746	-40.6457	-18.1696	-15.9344
 111	1	5	0.056967	-46.4144	-20.4279	-17.4114
 112	1	5	0.059195	-43.7636	-20.9777	-16.9855
 113	1	5	0.053458	-44.4457	-20.6181	-21.2869
 114	1	5	0.063182	-46.8112	-20.1513	-19.9555
 115	1	5	0.018836	-43.6505	-22.2655	-19.3311
 116	1	5	0.033342	-42.5805	-20.8509	-19.3791
 117	1	4	0.15438	-45.523	-23.7229	-16.6903
 118	1	4	0.144555	-46.2347	-23.1808	-21.6014
 119	1	5	0.03716	-44.5196	-30.5466	-16.0807
 120	1	4	0.135836	-45.3811	-25.6249	-15.9323
 121	1	4	0.135526	-46.0586	-29.4693	-19.0831
 122	1	5	0.041277	-44.2046	-28.6147	-14.5054
 123	1	5	0.00856	-46.8328	-31.4854	-15.9312
 124	1	5	-0.004553	-47.9915	-29.18	-16.9712
 125	1	5	0.042416	-45.5946	-30.7455	-13.7039
 126	1	5	0.068411	-47.356	-30.6194	-13.5006
 127	1	5	0.009741	-46.2725	-28.2431	-13.1598
 128	1	5	0.002304	-47.7027	-27.3211	-15.3351
 129	1	5	0.050818	-44.8932	-25.9285	-21.195
 130	1	5	0.045418	-46.4833	-25.5975	-21.883
 131	1	5	0.050853	-47.5836	-27.0445	-20.2825
 132	1	5	0.040294	-46.2287	-27.937	-20.9745
 133	1	1	-0.162043	-28.2611	-10.4058	-16.484
 134	1	1	-0.131368	-28.5647	-12.486	-14.4643
 135	1	1	0.053767	-27.1913	-10.8576	-15.6894
 136	1	1	-0.089414	-29.5403	-12.2339	-15.4463
 137	1	2	0.07683	-30.9039	-10.9755	-16.48
 138	1	1	-0.043169	-29.4071	-11.2131	-16.379
 139	1	1	0.067251	-27.3491	-11.8176	-14.7034
 140	1	2	0.019658	-31.0572	-12.1726	-15.4522
 141	1	3	-0.13357	-28.2586	-9.06157	-17.1896
 142	1	3	-0.181622	-28.8713	-13.2086	-13.1655
 143	1	2	-0.091671	-33.2023	-12.6116	-16.2416
 144	1	1	0.028189	-34.2447	-13.1319	-17.2197
 145	1	3	-0.001388	-31.7964	-13.268	-16.2742
 146	1	3	0.000341	-31.6087	-11.4818	-17.761
 147	1	2	-0.108264	-33.0654	-11.3721	-17.2263
 148	1	3	-0.051806	-31.3219	-13.0102	-17.7334
 149	1	1	0.038269	-34.1394	-12.0491	-18.0505
 150	1	1	0.012104	-35.0831	-13.2991	-19.8534
 151	1	1	0.009692	-35.163	-14.4585	-19.015
 152	1	1	-0.221685	-34.6753	-14.3802	-17.6793
 153	1	1	-0.227504	-34.4851	-12.1031	-19.3972
 154	1	1	0.01292	-35.642	-15.6874	-19.5518
 155	1	1	-0.039953	-36.3914	-17.9605	-19.3221
 156	1	2	0.00887	-37.3518	-19.3548	-20.5915
 157	1	1	-0.185129	-35.9808	-16.7796	-18.6994
 158	1	1	-0.021786	-36.5732	-18.0584	-20.6683
 159	1	1	0.017184	-35.8204	-15.8213	-20.9707
 160	1	1	-0.198557	-36.3501	-17.0016	-21.5436
 161	1	2	-0.002904	-37.1247	-19.2609	-19.0172
 162	1	3	0.041883	-38.8956	-19.3374	-20.7244
 163	1	3	0.005012	-39.48	-17.942	-20.3311
 164	1	3	-0.193804	-39.2387	-20.2015	-19.4893
 165	1	3	0.042479	-38.5721	-19.2578	-18.4615
 166	1	3	0.00144	-39.2767	-17.9061	-18.7622
 167	1	3	-0.061914	-35.625	-13.3306	-21.2714
 168	1	3	-0.051146	-35.4062	-14.7034	-21.9122
 169	1	5	0.024509	-31.2271	-9.97542	-16.1672
 170	1	5	0.045413	-31.5118	-11.9671	-14.4759
 171	1	5	0.093061	-27.2503	-8.79763	-17.5328
 172	1	5	0.054925	-28.6054	-8.26698	-16.5175
 173	1	5	0.0564	-28.9171	-9.07496	-18.0671
 174	1	5	0.072515	-29.5927	-14.0193	-13.3268
 175	1	5	0.098261	-29.2959	-12.5184	-12.4261
 176	1	5	0.069746	-27.9636	-13.6495	-12.7346
 177	1	5	0.056967	-33.5821	-12.4086	-15.233
 178	1	5	0.059195	-31.7222	-14.2985	-15.9052
 179	1	5	0.053458	-31.3787	-10.9504	-18.6928
 180	1	5	0.063182	-33.3379	-10.3857	-16.8315
 181	1	5	0.018836	-31.9039	-13.5668	-18.4789
 182	1	5	0.033342	-30.2611	-13.2483	-17.8845
 183	1	4	0.15438	-34.543	-15.255	-17.0541
 184	1	4	0.144555	-34.2836	-11.2694	-20.0625
 185	1	5	0.03716	-36.8983	-20.2276	-21.0743
 186	1	4	0.135836	-35.9864	-16.7063	-17.6182
 187	1	4	0.135526	-36.5714	-17.0852	-22.6031
 188	1	5	0.041277	-36.5199	-20.069	-18.5911
 189	1	5	0.00856	-39.2792	-19.7299	-21.6744
 190	1	5	-0.004553	-39.074	-17.074	-20.8648
 191	1	5	0.042416	-38.7668	-21.1936	-19.5207
 192	1	5	0.068411	-40.3147	-20.3389	-19.3315
 193	1	5	0.009741	-38.6649	-19.5849	-17.4184
 194	1	5	0.002304	-38.7733	-17.0051	-18.3904
 195	1	5	0.050818	-35.1549	-12.5593	-21.8945
 196	1	5	0.045418	-36.6999	-13.1099	-21.2503
 197	1	5	0.050853	-35.9604	-14.7553	-22.858
 198	1	5	0.040294	-34.3433	-14.8186	-22.1605
 199	1	1	-0.162043	-26.0177	-3.75687	-3.29028
 200	1	1	-0.131368	-24.2545	-6.04336	-2.82028
 201	1	1	0.053767	-24.7776	-3.65894	-2.63679
 202	1	1	-0.089414	-25.5854	-6.17567	-3.26676
 203	1	2	0.07683	-27.32	-5.83518	-4.44092
 204	1	1	-0.043169	-26.4318	-5.09104	-3.46367
 205	1	1	0.067251	-23.9541	-4.73735	-2.38443
 206	1	2	0.019658	-26.3485	-7.07349	-4.23282
 207	1	3	-0.13357	-26.7442	-2.56584	-3.88862
 208	1	3	-0.181622	-23.2172	-7.14303	-2.95008
 209	1	2	-0.091671	-27.0027	-7.92119	-6.31564
 210	1	1	0.028189	-27.0247	-8.01118	-7.83628
 211	1	3	-0.001388	-25.7395	-7.30303	-5.6472
 212	1	3	0.000341	-27.1623	-5.47816	-5.93997
 213	1	2	-0.108264	-27.9728	-6.67598	-6.49758
 214	1	3	-0.051806	-25.6886	-5.86929	-6.24674
 215	1	1	0.038269	-27.853	-6.93036	-7.98388
 216	1	1	0.012104	-27.0733	-6.60311	-10.2203
 217	1	1	0.009692	-26.2294	-7.75332	-10.0967
 218	1	1	-0.221685	-26.1556	-8.43126	-8.84797
 219	1	1	-0.227504	-27.8479	-6.1423	-9.1325
 220	1	1	0.01292	-25.4195	-8.15401	-11.1935
 221	1	1	-0.039953	-24.1148	-9.79238	-12.3811
 222	1	2	0.00887	-23.5509	-9.99512	-14.4107
 223	1	1	-0.185129	-24.8892	-9.47326	-11.2615
 224	1	1	-0.021786	-23.9169	-8.91569	-13.4119
 225	1	1	0.017184	-25.215	-7.25482	-12.2901
 226	1	1	-0.198557	-24.4929	-7.64791	-13.4396
 227	1	2	-0.002904	-23.7677	-11.0213	-13.2157
 228	1	3	0.041883	-24.5909	-10.4537	-15.4636
 229	1	3	0.005012	-26.0459	-10.1716	-14.9724
 230	1	3	-0.193804	-24.4665	-11.9815	-15.2622
 231	1	3	0.042479	-24.8743	-11.9618	-13.7702
 232	1	3	0.00144	-26.2489	-11.2374	-13.8278
 233	1	3	-0.061914	-27.149	-5.84125	-11.5328
 234	1	3	-0.051146	-25.7932	-5.85044	-12.2485
 235	1	5	0.024509	-28.3587	-5.95574	-4.11106
 236	1	5	0.045413	-26.7833	-7.97206	-3.78009
 237	1	5	0.093061	-26.5152	-1.64509	-3.33738
 238	1	5	0.054925	-27.8312	-2.71124	-3.85968
 239	1	5	0.0564	-26.4493	-2.41426	-4.93423
 240	1	5	0.072515	-22.726	-7.10125	-3.92995
 241	1	5	0.098261	-23.6772	-8.13316	-2.84277
 242	1	5	0.069746	-22.4427	-7.04836	-2.17876
 243	1	5	0.056967	-27.4078	-8.79674	-5.79432
 244	1	5	0.059195	-24.8149	-7.89115	-5.69749
 245	1	5	0.053458	-27.4845	-4.47591	-6.24767
 246	1	5	0.063182	-28.9897	-6.76806	-6.09719
 247	1	5	0.018836	-25.456	-5.86139	-7.31905
 248	1	5	0.033342	-24.9649	-5.22289	-5.7393
 249	1	4	0.15438	-25.3985	-9.17939	-8.6406
 250	1	4	0.144555	-28.3925	-5.20419	-9.17169
 251	1	5	0.03716	-22.5326	-9.96303	-14.8139
 252	1	4	0.135836	-25.1604	-10.2439	-10.548
 253	1	4	0.135526	-24.4366	-7.02231	-14.3251
 254	1	5	0.041277	-22.8694	-11.5722	-12.9158
 255	1	5	0.00856	-24.3916	-10.1113	-16.4868
 256	1	5	-0.004553	-26.2771	-9.13998	-14.6846
 257	1	5	0.042416	-23.4414	-12.3472	-15.4153
 258	1	5	0.068411	-25.1398	-12.5688	-15.9004
 259	1	5	0.009741	-24.9155	-12.952	-13.2993
 260	1	5	0.002304	-26.6165	-10.8219	-12.8819
 261	1	5	0.050818	-27.4687	-4.80388	-11.3718
 262	1	5	0.045418	-27.9022	-6.30996	-12.1792
 263	1	5	0.050853	-25.9128	-5.44026	-13.2593
 264	1	5	0.040294	-25.0981	-5.18855	-11.7163
 265	1	1	-0.162043	-15.1331	-0.940415	8.00129
 266	1	1	-0.131368	-13.9016	-2.97737	6.25626
 267	1	1	0.053767	-13.754	-1.0518	7.76756
 268	1	1	-0.089414	-15.2667	-2.96812	6.61176
 269	1	2	0.07683	-17.2501	-2.37547	7.06947
 270	1	1	-0.043169	-15.8331	-2.03766	7.47006
 271	1	1	0.067251	-13.1661	-2.03016	6.99712
 272	1	2	0.019658	-16.6112	-3.42766	6.06004
 273	1	3	-0.13357	-15.7917	0.252979	8.66813
 274	1	3	-0.181622	-13.3128	-3.83563	5.15238
 275	1	2	-0.091671	-18.5529	-3.3158	4.75517
 276	1	1	0.028189	-19.5339	-2.70435	3.76156
 277	1	3	-0.001388	-17.0544	-2.89758	4.66329
 278	1	3	0.000341	-17.9724	-1.35754	6.15774
 279	1	2	-0.108264	-19.1637	-2.27856	5.79518
 280	1	3	-0.051806	-17.104	-1.35636	4.86655
 281	1	1	0.038269	-20.0489	-1.81684	4.66278
 282	1	1	0.012104	-20.9046	-0.474655	2.88614
 283	1	1	0.009692	-20.4576	-1.44265	1.925
 284	1	1	-0.221685	-19.6513	-2.52892	2.38013
 285	1	1	-0.227504	-20.6484	-0.627046	4.26686
 286	1	1	0.01292	-20.7617	-1.25485	0.543179
 287	1	1	-0.039953	-20.5888	-1.85068	-1.78748
 288	1	2	0.00887	-21.6877	-1.35622	-3.52403
 289	1	1	-0.185129	-20.2846	-2.15302	-0.457751
 290	1	1	-0.021786	-21.3978	-0.810353	-2.14156
 291	1	1	0.017184	-21.6557	-0.200559	0.150493
 292	1	1	-0.198557	-22.02	0.0015752	-1.2001
 293	1	2	-0.002904	-20.7284	-2.56197	-3.12866
 294	1	3	0.041883	-23.0373	-2.0585	-3.81119
 295	1	3	0.005012	-23.6627	-2.64072	-2.50286
 296	1	3	-0.193804	-22.487	-3.32414	-4.50713
 297	1	3	0.042479	-21.6489	-3.80162	-3.29868
 298	1	3	0.00144	-22.7213	-3.86838	-2.17391
 299	1	3	-0.061914	-21.5254	0.834019	2.43519
 300	1	3	-0.051146	-22.3878	0.627078	1.19121
 301	1	5	0.024509	-17.8658	-2.77518	7.88408
 302	1	5	0.045413	-16.8432	-4.48481	6.23358
 303	1	5	0.093061	-15.1208	0.71412	9.40384
 304	1	5	0.054925	-16.7094	-0.0434117	9.19105
 305	1	5	0.0564	-16.0556	1.0167	7.92626
 306	1	5	0.072515	-12.397	-4.33587	5.49077
 307	1	5	0.098261	-13.0607	-3.22425	4.2771
 308	1	5	0.069746	-14.0199	-4.6101	4.83038
 309	1	5	0.056967	-18.7114	-4.3808	4.96284
 310	1	5	0.059195	-16.4907	-3.26197	3.7956
 311	1	5	0.053458	-18.2129	-0.381971	6.59791
 312	1	5	0.063182	-19.7061	-2.69005	6.65519
 313	1	5	0.018836	-17.5833	-0.831548	4.03032
 314	1	5	0.033342	-16.1104	-0.916253	5.02135
 315	1	4	0.15438	-19.1219	-3.19939	1.71677
 316	1	4	0.144555	-20.8629	0.159982	4.98301
 317	1	5	0.03716	-21.3437	-0.750207	-4.36956
 318	1	4	0.135836	-19.7461	-3.06434	-0.234431
 319	1	4	0.135526	-22.7977	0.703007	-1.4869
 320	1	5	0.041277	-19.8171	-2.63914	-3.73182
 321	1	5	0.00856	-23.7391	-1.4739	-4.41898
 322	1	5	-0.004553	-23.8113	-1.94021	-1.67306
 323	1	5	0.042416	-21.8691	-3.09163	-5.38582
 324	1	5	0.068411	-23.2641	-4.03276	-4.81373
 325	1	5	0.009741	-21.119	-4.74829	-3.46184
 326	1	5	0.002304	-22.3415	-3.8845	-1.14508
 327	1	5	0.050818	-20.7273	1.5519	2.20641
 328	1	5	0.045418	-22.1361	1.27876	3.23134
 329	1	5	0.050853	-23.3136	0.110642	1.47595
 330	1	5	0.040294	-22.6798	1.60425	0.785538
 331	1	1	-0.162043	-2.16006	-3.45123	15.159
 332	1	1	-0.131368	-0.941197	-3.2289	12.5159
 333	1	1	0.053767	-0.946279	-2.78323	14.9222
 334	1	1	-0.089414	-2.023	-4.08935	12.7915
 335	1	2	0.07683	-3.91039	-4.71528	13.5252
 336	1	1	-0.043169	-2.58003	-4.2222	14.0578
 337	1	1	0.067251	-0.341739	-2.71161	13.6824
 338	1	2	0.019658	-3.28894	-4.54626	12.0747
 339	1	3	-0.13357	-3.00941	-3.22235	16.3961
 340	1	3	-0.181622	-0.586798	-2.76141	11.1164
 341	1	2	-0.091671	-5.45191	-4.34652	11.1842
 342	1	1	0.028189	-6.76861	-3.64246	10.8703
 343	1	3	-0.001388	-4.19052	-3.46028	11.414
 344	1	3	0.000341	-5.08671	-3.71036	13.5522
 345	1	2	-0.108264	-6.0411	-4.5288	12.6472
 346	1	3	-0.051806	-4.60164	-2.56608	12.6174
 347	1	1	0.038269	-7.25965	-3.7926	12.1423
 348	1	1	0.012104	-8.67376	-1.88645	11.85
 349	1	1	0.009692	-8.22187	-1.75485	10.4983
 350	1	1	-0.221685	-7.19352	-2.61369	10.0213
 351	1	1	-0.227504	-8.15017	-2.88073	12.7035
 352	1	1	0.01292	-8.75196	-0.721347	9.68041
 353	1	1	-0.039953	-9.3201	0.20107	7.52531
 354	1	2	0.00887	-10.8638	1.52059	6.93918
 355	1	1	-0.185129	-8.70822	-0.821861	8.26113
 356	1	1	-0.021786	-9.97566	1.24154	8.13083
 357	1	1	0.017184	-9.45304	0.367126	10.2904
 358	1	1	-0.198557	-10.1056	1.34729	9.5132
 359	1	2	-0.002904	-10.0889	0.342395	6.20906
 360	1	3	0.041883	-12.3306	1.02205	6.95856
 361	1	3	0.005012	-12.4917	-0.228929	7.88646
 362	1	3	-0.193804	-12.3699	0.395432	5.54634
 363	1	3	0.042479	-11.2411	-0.628535	5.8133
 364	1	3	0.00144	-11.7895	-1.38138	7.05466
 365	1	3	-0.061914	-9.72347	-0.940405	12.4074
 366	1	3	-0.051146	-9.55795	0.458146	11.8028
 367	1	5	0.024509	-4.17614	-5.73207	13.8379
 368	1	5	0.045413	-3.17592	-5.45792	11.4767
 369	1	5	0.093061	-3.64019	-4.09388	16.6106
 370	1	5	0.054925	-3.66528	-2.35322	16.2621
 371	1	5	0.0564	-2.38192	-3.0385	17.2772
 372	1	5	0.072515	-1.21423	-1.91093	10.822
 373	1	5	0.098261	-0.736175	-3.56285	10.3826
 374	1	5	0.069746	0.461488	-2.44315	11.0579
 375	1	5	0.056967	-5.26359	-5.25862	10.6055
 376	1	5	0.059195	-3.78123	-2.94549	10.5361
 377	1	5	0.053458	-5.46798	-3.41855	14.5383
 378	1	5	0.063182	-6.23371	-5.55306	12.9888
 379	1	5	0.018836	-5.39314	-1.8485	12.3676
 380	1	5	0.033342	-3.75992	-2.00656	13.0372
 381	1	4	0.15438	-6.67942	-2.42672	9.08457
 382	1	4	0.144555	-8.39167	-2.91267	13.7612
 383	1	5	0.03716	-10.7601	2.50547	6.47025
 384	1	4	0.135836	-8.35531	-1.71834	7.76203
 385	1	4	0.135526	-10.7568	2.09164	9.96091
 386	1	5	0.041277	-9.49939	0.653533	5.33959
 387	1	5	0.00856	-13.08	1.8047	7.13086
 388	1	5	-0.004553	-12.1479	-0.13126	8.92116
 389	1	5	0.042416	-12.11	1.11358	4.75594
 390	1	5	0.068411	-13.3359	-0.0605587	5.29211
 391	1	5	0.009741	-11.0177	-1.28475	4.96284
 392	1	5	0.002304	-11.058	-1.96807	7.62251
 393	1	5	0.050818	-9.65995	-0.875255	13.5009
 394	1	5	0.045418	-10.7233	-1.32441	12.167
 395	1	5	0.050853	-10.4022	1.08958	12.1073
 396	1	5	0.040294	-8.64875	0.923676	12.2043
 397	1	1	-0.162043	12.608	2.16432	16.9914
 398	1	1	-0.131368	11.7459	3.14407	14.3742
 399	1	1	0.053767	12.8623	3.46858	16.5263
 400	1	1	-0.089414	11.6945	1.78737	14.7461
 401	1	2	0.07683	11.293	0.0496422	15.8975
 402	1	1	-0.043169	12.1386	1.31043	15.9732
 403	1	1	0.067251	12.4957	3.92234	15.2751
 404	1	2	0.019658	10.7546	0.61755	14.5161
 405	1	3	-0.13357	12.6759	1.76426	18.4544
 406	1	3	-0.181622	10.9391	3.72962	13.2302
 407	1	2	-0.091671	8.80342	-0.631872	14.7372
 408	1	1	0.028189	7.42874	-0.973116	15.2889
 409	1	3	-0.001388	9.24066	0.856378	14.785
 410	1	3	0.000341	10.0331	-0.0216335	16.7952
 411	1	2	-0.108264	9.36973	-1.23887	16.0913
 412	1	3	-0.051806	9.18818	1.1879	16.3043
 413	1	1	0.038269	7.92382	-1.5146	16.445
 414	1	1	0.012104	5.82311	-1.18354	17.5353
 415	1	1	0.009692	5.29448	-0.583353	16.3458
 416	1	1	-0.221685	6.14744	-0.420235	15.218
 417	1	1	-0.227504	7.17786	-1.57566	17.6186
 418	1	1	0.01292	3.95683	-0.0969158	16.3309
 419	1	1	-0.039953	2.01448	0.751526	15.1973
 420	1	2	0.00887	-0.0239133	0.990001	15.7045
 421	1	1	-0.185129	3.32009	0.266048	15.1068
 422	1	1	-0.021786	1.31781	0.767021	16.3667
 423	1	1	0.017184	3.22008	-0.0110066	17.5607
 424	1	1	-0.198557	1.8559	0.362841	17.5828
 425	1	2	-0.002904	0.787136	1.01431	14.3329
 426	1	3	0.041883	-0.99294	-0.20322	15.5096
 427	1	3	0.005012	-0.221385	-1.56429	15.466
 428	1	3	-0.193804	-1.33538	0.0319161	14.0208
 429	1	3	0.042479	0.116556	-0.115784	13.5114
 430	1	3	0.00144	0.510095	-1.51112	14.0653
 431	1	3	-0.061914	4.94362	-1.39912	18.7549
 432	1	3	-0.051146	3.90437	-0.283546	18.889
 433	1	5	0.024509	11.8689	-0.882574	15.8601
 434	1	5	0.045413	10.9687	0.0256771	13.6186
 435	1	5	0.093061	13.3921	2.3878	19.004
 436	1	5	0.054925	12.9902	0.718659	18.5629
 437	1	5	0.0564	11.6955	1.87424	18.9344
 438	1	5	0.072515	10.6932	2.96327	12.4848
 439	1	5	0.098261	11.4968	4.52603	12.7222
 440	1	5	0.069746	9.99795	4.15684	13.5981
 441	1	5	0.056967	9.06563	-1.15114	13.8075
 442	1	5	0.059195	8.71966	1.547	14.1106
 443	1	5	0.053458	10.1998	-0.104568	17.8762
 444	1	5	0.063182	10.0053	-2.12945	16.015
 445	1	5	0.018836	8.16836	1.18915	16.7094
 446	1	5	0.033342	9.64831	2.15288	16.5452
 447	1	4	0.15438	5.87333	0.181055	14.3598
 448	1	4	0.144555	7.62871	-1.89274	18.5536
 449	1	5	0.03716	-0.546164	1.92031	15.9538
 450	1	4	0.135836	3.77799	0.125995	14.1349
 451	1	4	0.135526	1.26104	0.344594	18.4909
 452	1	5	0.041277	0.766404	1.97404	13.805
 453	1	5	0.00856	-1.86066	-0.204123	16.1809
 454	1	5	-0.004553	0.436163	-1.78134	16.317
 455	1	5	0.042416	-1.75072	1.03175	13.832
 456	1	5	0.068411	-2.02584	-0.708807	13.6048
 457	1	5	0.009741	0.228071	-0.0220138	12.424
 458	1	5	0.002304	1.58473	-1.7282	14.1072
 459	1	5	0.050818	5.54309	-1.4481	19.6729
 460	1	5	0.045418	4.42712	-2.3628	18.661
 461	1	5	0.050853	3.17685	-0.552553	19.6652
 462	1	5	0.040294	4.40454	0.633023	19.2279
 463	1	1	-0.162043	21.4291	14.6802	10.6746
 464	1	1	-0.131368	18.716	15.2102	9.6631
 465	1	1	0.053767	21.0865	15.8232	9.92955
 466	1	1	-0.089414	19.0087	14.2035	10.6042
 467	1	2	0.07683	19.9712	12.524	11.4747
 468	1	1	-0.043169	20.2932	13.9448	11.0599
 469	1	1	0.067251	19.82	16.053	9.43064
 470	1	2	0.019658	18.4922	12.8199	10.9689
 471	1	3	-0.13357	22.8534	14.2022	10.8958
 472	1	3	-0.181622	17.4098	15.3038	8.89532
 473	1	2	-0.091671	17.6795	11.1408	12.373
 474	1	1	0.028189	17.262	10.5023	13.692
 475	1	3	-0.001388	17.6304	12.6927	12.2594
 476	1	3	0.000341	19.8046	12.2669	12.9926
 477	1	2	-0.108264	19.1739	10.857	12.8581
 478	1	3	-0.051806	18.5975	13.1673	13.3812
 479	1	1	0.038269	18.5378	10.2758	14.0998
 480	1	1	0.012104	17.7624	9.0465	15.9777
 481	1	1	0.009692	16.4012	9.25944	15.5624
 482	1	1	-0.221685	16.1469	9.98798	14.3588
 483	1	1	-0.227504	18.8595	9.5342	15.2276
 484	1	1	0.01292	15.3385	8.71421	16.3441
 485	1	1	-0.039953	13.0331	8.11394	16.6947
 486	1	2	0.00887	11.9744	6.97514	18.134
 487	1	1	-0.185129	14.0101	8.61692	15.8305
 488	1	1	-0.021786	13.3155	7.65431	17.9449
 489	1	1	0.017184	15.6136	8.20831	17.6617
 490	1	1	-0.198557	14.6044	7.62312	18.4627
 491	1	2	-0.002904	11.6319	7.51424	16.6743
 492	1	3	0.041883	11.8543	5.43719	17.9852
 493	1	3	0.005012	13.009	4.8674	17.1013
 494	1	3	-0.193804	10.6448	5.39579	17.0233
 495	1	3	0.042479	11.327	6.20707	15.8972
 496	1	3	0.00144	12.6257	5.38696	15.6568
 497	1	3	-0.061914	18.0753	8.15737	17.1673
 498	1	3	-0.051146	17.0082	8.30074	18.2542
 499	1	5	0.024509	20.5592	11.7557	10.9592
 500	1	5	0.045413	18.1025	12.2443	10.1234
 501	1	5	0.093061	23.052	14.0426	11.9628
 502	1	5	0.054925	23.5836	14.9313	10.5228
 503	1	5	0.0564	23.0294	13.2535	10.3735
 504	1	5	0.072515	16.9826	16.311	8.97657
 505	1	5	0.098261	16.6674	14.5941	9.28082
 506	1	5	0.069746	17.5614	15.0898	7.83018
 507	1	5	0.056967	17.318	10.6191	11.479
 508	1	5	0.059195	16.6366	13.1573	12.2373
 509	1	5	0.053458	20.7073	12.3516	13.6103
 510	1	5	0.063182	19.7794	10.1448	12.2842
 511	1	5	0.018836	18.2165	12.958	14.3891
 512	1	5	0.033342	18.8283	14.2389	13.3185
 513	1	4	0.15438	15.1545	10.1608	13.9622
 514	1	4	0.144555	19.8895	9.30813	15.4855
 515	1	5	0.03716	11.3365	7.36885	18.9331
 516	1	4	0.135836	13.751	8.85651	14.8066
 517	1	4	0.135526	14.8177	7.16555	19.4239
 518	1	5	0.041277	10.8	8.22576	16.6296
 519	1	5	0.00856	11.7045	4.89462	18.927
 520	1	5	-0.004553	14.031	5.10818	17.4181
 521	1	5	0.042416	9.75921	5.90214	17.4325
 522	1	5	0.068411	10.3522	4.38208	16.725
 523	1	5	0.009741	10.7129	6.34004	14.9979
 524	1	5	0.002304	13.4365	5.90885	15.1336
 525	1	5	0.050818	19.0593	8.39494	17.5912
 526	1	5	0.045418	18.1154	7.11202	16.835
 527	1	5	0.050853	17.1653	7.52749	19.0171
 528	1	5	0.040294	17.1264	9.27033	18.7543
 529	1	1	-0.162043	21.7928	19.7101	-4.45744
 530	1	1	-0.131368	19.3414	20.7311	-3.21788
 531	1	1	0.053767	21.2559	20.9853	-4.73204
 532	1	1	-0.089414	19.7482	19.3908	-3.13632
 533	1	2	0.07683	20.9661	17.6827	-2.80756
 534	1	1	-0.043169	20.8967	18.8918	-3.73557
 535	1	1	0.067251	20.0879	21.4527	-4.16139
 536	1	2	0.019658	19.6798	18.2936	-2.10249
 537	1	3	-0.13357	23.224	19.3168	-4.7737
 538	1	3	-0.181622	18.331	21.3615	-2.27676
 539	1	2	-0.091671	20.1611	17.2069	-0.130431
 540	1	1	0.028189	20.8867	16.9347	1.17349
 541	1	3	-0.001388	20.1735	18.6523	-0.672722
 542	1	3	0.000341	22.033	17.6678	-1.68073
 543	1	2	-0.108264	21.4071	16.5117	-0.840573
 544	1	3	-0.051806	21.6894	18.9441	-0.862465
 545	1	1	0.038269	21.9302	16.3024	0.565995
 546	1	1	0.012104	23.1917	16.3807	2.58017
 547	1	1	0.009692	22.1615	17.1649	3.20143
 548	1	1	-0.221685	20.9862	17.4758	2.45637
 549	1	1	-0.227504	23.1267	16.0214	1.21348
 550	1	1	0.01292	22.3632	17.6805	4.51523
 551	1	1	-0.039953	21.6293	18.8555	6.4804
 552	1	2	0.00887	22.42	19.2175	8.40747
 553	1	1	-0.185129	21.3044	18.3123	5.23603
 554	1	1	-0.021786	22.854	18.7068	7.05217
 555	1	1	0.017184	23.6588	17.567	5.12997
 556	1	1	-0.198557	23.9009	18.0265	6.44509
 557	1	2	-0.002904	20.9861	19.4221	7.74093
 558	1	3	0.041883	22.1335	18.212	9.54923
 559	1	3	0.005012	21.7511	16.8059	8.98316
 560	1	3	-0.193804	20.7636	18.7689	10.0014
 561	1	3	0.042479	20.0628	18.5564	8.6378
 562	1	3	0.00144	20.3043	17.0431	8.38395
 563	1	3	-0.061914	24.3911	15.9138	3.38353
 564	1	3	-0.051146	24.8399	16.9955	4.365
 565	1	5	0.024509	20.8423	16.7173	-3.3122
 566	1	5	0.045413	18.7596	17.6989	-2.1368
 567	1	5	0.093061	23.9189	19.7599	-4.04946
 568	1	5	0.054925	23.5142	19.6604	-5.77439
 569	1	5	0.0564	23.353	18.2277	-4.74308
 570	1	5	0.072515	17.5771	20.6308	-1.95878
 571	1	5	0.098261	17.8068	22.1961	-2.75879
 572	1	5	0.069746	18.8268	21.7485	-1.3778
 573	1	5	0.056967	19.1894	16.7109	-0.220546
 574	1	5	0.059195	19.5898	19.3948	-0.114854
 575	1	5	0.053458	23.0778	17.5467	-1.99241
 576	1	5	0.063182	21.2279	15.5883	-1.40192
 577	1	5	0.018836	22.237	18.9999	0.0871345
 578	1	5	0.033342	21.8766	19.8698	-1.41995
 579	1	4	0.15438	20.2213	18.1561	2.80807
 580	1	4	0.144555	23.9543	15.5474	0.694981
 581	1	5	0.03716	22.9046	20.1335	8.76376
 582	1	4	0.135836	20.2832	18.3604	4.87905
 583	1	4	0.135526	24.8511	17.877	6.9484
 584	1	5	0.041277	20.6501	20.4636	7.68582
 585	1	5	0.00856	22.8962	18.1828	10.3375
 586	1	5	-0.004553	22.4646	16.3452	8.28846
 587	1	5	0.042416	20.8123	19.8284	10.2905
 588	1	5	0.068411	20.3089	18.2094	10.8293
 589	1	5	0.009741	19.0044	18.8451	8.62316
 590	1	5	0.002304	20.1781	16.6981	7.34993
 591	1	5	0.050818	25.2294	15.6388	2.73112
 592	1	5	0.045418	24.1169	15.0111	3.945
 593	1	5	0.050853	25.5905	16.5779	5.04817
 594	1	5	0.040294	25.331	17.8026	3.80654
 595	1	1	-0.162043	26.3757	25.2312	6.79789
 596	1	1	-0.131368	24.4259	23.324	5.90423
 597	1	1	0.053767	26.6893	23.8627	6.69769
 598	1	1	-0.089414	24.1048	24.67	6.15142
 599	1	2	0.07683	24.3928	26.7521	5.86149
 600	1	1	-0.043169	25.0487	25.582	6.56224
 601	1	1	0.067251	25.7476	22.8955	6.23931
 602	1	2	0.019658	23.2697	25.7251	5.42607
 603	1	3	-0.13357	27.4501	26.2788	7.03788
 604	1	3	-0.181622	23.4025	22.43	5.21269
 605	1	2	-0.091671	22.7324	27.1744	3.66002
 606	1	1	0.028189	22.8641	27.7584	2.26346
 607	1	3	-0.001388	23.3309	25.7472	3.87568
 608	1	3	0.000341	25.0479	27.1824	4.51695
 609	1	2	-0.108264	23.9241	28.1381	4.05174
 610	1	3	-0.051806	24.85	25.9396	3.60036
 611	1	1	0.038269	23.9448	28.5486	2.58847
 612	1	1	0.012104	24.8332	28.2324	0.370629
 613	1	1	0.009692	23.6677	27.4963	0.00544603
 614	1	1	-0.221685	22.6932	27.2066	0.992834
 615	1	1	-0.227504	24.9922	28.7419	1.68032
 616	1	1	0.01292	23.5686	26.9219	-1.28681
 617	1	1	-0.039953	22.3017	25.9799	-3.09019
 618	1	2	0.00887	22.7698	24.6073	-4.6393
 619	1	1	-0.185129	22.3116	26.5014	-1.79773
 620	1	1	-0.021786	23.4513	25.6284	-3.73827
 621	1	1	0.017184	24.7588	26.696	-2.05063
 622	1	1	-0.198557	24.7195	25.9298	-3.24222
 623	1	2	-0.002904	21.4282	25.0663	-3.92109
 624	1	3	0.041883	22.8375	23.0952	-4.27074
 625	1	3	0.005012	21.7407	22.3803	-5.11912
 626	1	3	-0.193804	22.2114	23.0599	-2.85581
 627	1	3	0.042479	20.9038	23.7756	-3.26999
 628	1	3	0.00144	20.4012	22.9008	-4.44853
 629	1	3	-0.061914	25.9578	28.3984	-0.639964
 630	1	3	-0.051146	26.1065	27.1211	-1.48738
 631	1	5	0.024509	24.0904	27.5801	6.51348
 632	1	5	0.045413	22.2651	25.8834	5.83492
 633	1	5	0.093061	28.0891	25.9997	7.88499
 634	1	5	0.054925	27.0108	27.2589	7.26313
 635	1	5	0.0564	28.0902	26.3922	6.15422
 636	1	5	0.072515	23.217	21.5177	5.79367