pySIMM System Object

2296 atoms
2678 bonds
5508 angles
10078 dihedrals
272 impropers

5 atom types
9 bond types
18 angle types
19 dihedral types
2 improper types

-185.077814 185.077814 xlo xhi
-185.077814 185.077814 ylo yhi
-185.077814 185.077814 zlo zhi

Masses

   1	12.01	# ca
   2	12.01	# cy
   3	12.01	# c3
   4	1.008	# ha
   5	1.008	# hc

Pair Coeffs

   1	0.086	3.3996695084235347	# ca
   2	0.086	3.3996695084235347	# cy
   3	0.1094	3.3996695084235347	# c3
   4	0.015	2.59964245953351	# ha
   5	0.0157	2.649532787749369	# hc

Bond Coeffs

   1	461.1	1.3984	# ca,ca
   2	300.9	1.5375	# c3,c3
   3	305.9	1.5319	# c3,cy
   4	345.8	1.086	# ca,ha
   5	321.0	1.5156	# c3,ca
   6	285.0	1.5562	# cy,cy
   7	333.3	1.0949	# cy,hc
   8	330.6	1.0969	# c3,hc
   9	321.2	1.5154	# ca,cy

Angle Coeffs

   1	67.9	96.03	# cy,c3,cy
   2	45.97	114.53	# ca,cy,hc
   3	66.62	120.02	# ca,ca,ca
   4	61.4	116.81	# ca,cy,cy
   5	44.83	114.79	# cy,cy,hc
   6	46.43	110.14	# c3,cy,hc
   7	62.86	111.51	# c3,c3,c3
   8	63.15	112.07	# c3,c3,ca
   9	46.34	109.8	# c3,c3,hc
  10	48.18	119.88	# ca,ca,ha
  11	39.4	107.58	# hc,c3,hc
  12	63.53	120.77	# c3,ca,ca
  13	60.66	118.7	# c3,cy,cy
  14	63.51	120.86	# ca,ca,cy
  15	62.73	112.39	# c3,c3,cy
  16	46.29	110.75	# cy,c3,hc
  17	46.8	110.47	# ca,c3,hc
  18	62.8	113.57	# c3,cy,ca

Dihedral Coeffs

   1	3	0.18	3	0.0	0.25	2	180.0	0.2	1	180.0	# c3,c3,cy,cy
   2	1	0.16	3	0.0	# hc,c3,cy,cy
   3	1	0.16	3	0.0	# cy,c3,cy,hc
   4	1	0.16	3	0.0	# c3,c3,cy,hc
   5	1	0.15	3	0.0	# hc,c3,cy,hc
   6	1	3.625	2	180	# X,ca,ca,X
   7	1	0.15555555555555556	3	0	# X,cy,cy,X
   8	3	0.18	3	0	0.25	2	180	0.2	1	180	# c3,c3,c3,c3
   9	1	0.16	3	0	# hc,c3,c3,c3
  10	1	0.0	2	0.0	# ca,ca,cy,cy
  11	1	0.0	2	0.0	# ca,ca,cy,c3
  12	1	0.0	2	0	# X,c3,ca,X
  13	1	0.15555555555555556	3	0	# X,c3,c3,X
  14	3	0.38	3	180.0	0.0	2	0.0	1.15	1	0.0	# ca,ca,cy,hc
  15	3	0.18	3	0.0	0.25	2	180.0	0.2	1	180.0	# cy,c3,cy,cy
  16	1	0.16	3	0.0	# cy,c3,cy,ca
  17	1	0.16	3	0.0	# c3,c3,cy,ca
  18	1	0.16	3	0.0	# hc,c3,cy,ca
  19	1	0.15	3	0	# hc,c3,c3,hc

Improper Coeffs

   1	1.1	-1	2	# ca,ca,ca,c3
   2	1.1	-1	2	# ca,X,X,ha

Atoms

   1	1	1	-0.162043	18.1726	-26.4461	-14.6974
   2	1	1	-0.131368	16.4352	-27.4242	-12.5567
   3	1	1	0.053767	16.9402	-25.8513	-14.3695
   4	1	1	-0.089414	17.5282	-28.1597	-13.0547
   5	1	2	0.07683	19.5379	-28.5403	-13.6312
   6	1	1	-0.043169	18.3541	-27.6954	-14.0718
   7	1	1	0.067251	16.12	-26.313	-13.3598
   8	1	2	0.019658	18.5942	-29.0698	-12.4696
   9	1	3	-0.13357	19.2535	-25.745	-15.4998
  10	1	3	-0.181622	15.7805	-27.7021	-11.2162
  11	1	2	-0.091671	20.463	-29.6216	-11.2
  12	1	1	0.028189	21.6339	-29.3563	-10.2721
  13	1	3	-0.001388	19.2991	-28.5943	-11.1709
  14	1	3	0.000341	20.6874	-27.8182	-12.8773
  15	1	2	-0.108264	21.4097	-29.0932	-12.3614
  16	1	3	-0.051806	19.9854	-27.2675	-11.6037
  17	1	1	0.038269	22.4495	-28.9009	-11.273
  18	1	1	0.012104	23.7949	-27.7333	-9.67396
  19	1	1	0.009692	22.9411	-28.1884	-8.61804
  20	1	1	-0.221685	21.7947	-28.9652	-8.94184
  21	1	1	-0.227504	23.5029	-28.0214	-11.028
  22	1	1	0.01292	23.1973	-27.7953	-7.27565
  23	1	1	-0.039953	22.8298	-27.9796	-4.90947
  24	1	2	0.00887	23.8403	-27.304	-3.17783
  25	1	1	-0.185129	22.5524	-28.4551	-6.19069
  26	1	1	-0.021786	23.7503	-27.0057	-4.6641
  27	1	1	0.017184	24.1536	-26.761	-7.00229
  28	1	1	-0.198557	24.4864	-26.3933	-5.67536
  29	1	2	-0.002904	22.7695	-28.441	-3.46345
  30	1	3	0.041883	25.04	-28.0987	-2.60486
  31	1	3	0.005012	25.7314	-28.9861	-3.67536
  32	1	3	-0.193804	24.2913	-29.1843	-1.80486
  33	1	3	0.042479	23.5052	-29.728	-3.01526
  34	1	3	0.00144	24.6847	-30.097	-3.95537
  35	1	3	-0.061914	25.0379	-26.9172	-9.36026
  36	1	3	-0.051146	24.8181	-26.009	-8.14397
  37	1	5	0.024509	19.8761	-29.2759	-14.3705
  38	1	5	0.045413	18.3423	-30.1366	-12.4823
  39	1	5	0.093061	18.8161	-25.0836	-16.2582
  40	1	5	0.054925	19.8945	-26.4695	-16.0173
  41	1	5	0.0564	19.8899	-25.1354	-14.8465
  42	1	5	0.072515	16.2951	-27.1618	-10.4121
  43	1	5	0.098261	15.8082	-28.7725	-10.9778
  44	1	5	0.069746	14.7297	-27.3864	-11.217
  45	1	5	0.056967	20.1447	-30.6699	-11.2512
  46	1	5	0.059195	18.6896	-28.5617	-10.2595
  47	1	5	0.053458	21.2897	-27.1078	-13.4568
  48	1	5	0.063182	21.6886	-29.8081	-13.1447
  49	1	5	0.018836	20.6913	-26.8853	-10.8556
  50	1	5	0.033342	19.2666	-26.4724	-11.8267
  51	1	4	0.15438	21.0128	-29.1804	-8.22337
  52	1	4	0.144555	24.0569	-27.5685	-11.8442
  53	1	5	0.03716	23.5026	-26.5122	-2.50007
  54	1	4	0.135836	21.9305	-29.3334	-6.31848
  55	1	4	0.135526	25.275	-25.6815	-5.45154
  56	1	5	0.041277	21.8106	-28.3098	-2.95006
  57	1	5	0.00856	25.7413	-27.4991	-2.01093
  58	1	5	-0.004553	26.0083	-28.4309	-4.57906
  59	1	5	0.042416	23.64	-28.7675	-1.02414
  60	1	5	0.068411	24.9639	-29.9305	-1.3587
  61	1	5	0.009741	22.8445	-30.5736	-2.78563
  62	1	5	0.002304	24.3932	-30.1443	-5.011
  63	1	5	0.050818	25.3379	-26.3057	-10.2207
  64	1	5	0.045418	25.8711	-27.6004	-9.15172
  65	1	5	0.050853	25.7796	-25.583	-7.83026
  66	1	5	0.040294	24.1792	-25.1661	-8.43692
  67	1	1	-0.162043	3.82094	-19.3226	-15.1894
  68	1	1	-0.131368	4.6599	-19.2682	-12.3897
  69	1	1	0.053767	3.66225	-18.1975	-14.3582
  70	1	1	-0.089414	4.57841	-20.455	-13.1429
  71	1	2	0.07683	4.91735	-21.7764	-14.7715
  72	1	1	-0.043169	4.17506	-20.4834	-14.4725
  73	1	1	0.067251	4.05499	-18.1737	-13.0345
  74	1	2	0.019658	5.38412	-21.7378	-13.2548
  75	1	3	-0.13357	3.78478	-19.2531	-16.7052
  76	1	3	-0.181622	5.46089	-19.1464	-11.1064
  77	1	2	-0.091671	7.22588	-23.0622	-13.7783
  78	1	1	0.028189	8.61638	-23.3515	-14.3165
  79	1	3	-0.001388	6.92909	-21.6016	-13.3438
  80	1	3	0.000341	6.24294	-21.6712	-15.5721
  81	1	2	-0.108264	6.75206	-23.1128	-15.2936
  82	1	3	-0.051806	7.14092	-20.7933	-14.6552
  83	1	1	0.038269	8.205	-23.3999	-15.6219
  84	1	1	0.012104	10.4329	-22.9392	-16.3657
  85	1	1	0.009692	10.8751	-22.8617	-15.0062
  86	1	1	-0.221685	9.92325	-23.0115	-13.9595
  87	1	1	-0.227504	9.06749	-23.1276	-16.6824
  88	1	1	0.01292	12.2316	-22.5469	-14.7172
  89	1	1	-0.039953	14.0851	-22.3583	-13.2018
  90	1	2	0.00887	16.1758	-22.0921	-13.4116
  91	1	1	-0.185129	12.7608	-22.7435	-13.4098
  92	1	1	-0.021786	14.8928	-21.9082	-14.203
  93	1	1	0.017184	13.0937	-22.0693	-15.7607
  94	1	1	-0.198557	14.4629	-21.7961	-15.5226
  95	1	2	-0.002904	15.2333	-22.6245	-12.2432
  96	1	3	0.041883	17.1055	-23.3011	-13.6879
  97	1	3	0.005012	16.324	-24.4628	-14.3721
  98	1	3	-0.193804	17.2581	-23.8197	-12.2396
  99	1	3	0.042479	15.7492	-24.0678	-12.0129
 100	1	3	0.00144	15.3846	-24.992	-13.2141
 101	1	3	-0.061914	11.4283	-22.8046	-17.5058
 102	1	3	-0.051146	12.5447	-21.8138	-17.1548
 103	1	5	0.024509	4.27584	-22.6131	-15.0721
 104	1	5	0.045413	5.03906	-22.5533	-12.6085
 105	1	5	0.093061	4.77531	-19.007	-17.1074
 106	1	5	0.054925	3.08093	-18.4846	-17.0486
 107	1	5	0.0564	3.47152	-20.2114	-17.1378
 108	1	5	0.072515	5.48487	-20.0994	-10.5636
 109	1	5	0.098261	5.02503	-18.3923	-10.4393
 110	1	5	0.069746	6.49577	-18.8518	-11.3198
 111	1	5	0.056967	6.82556	-23.8277	-13.1027
 112	1	5	0.059195	7.44672	-21.2362	-12.4483
 113	1	5	0.053458	6.16334	-21.3684	-16.6233
 114	1	5	0.063182	6.04971	-23.9074	-15.5728
 115	1	5	0.018836	8.18898	-20.7663	-14.9789
 116	1	5	0.033342	6.78514	-19.7614	-14.5776
 117	1	4	0.15438	10.1521	-22.7796	-12.9261
 118	1	4	0.144555	8.69703	-23.0442	-17.6992
 119	1	5	0.03716	16.736	-21.1811	-13.1736
 120	1	4	0.135836	12.2075	-23.2323	-12.6163
 121	1	4	0.135526	15.1466	-21.523	-16.3205
 122	1	5	0.041277	15.2517	-22.0244	-11.3267
 123	1	5	0.00856	18.0521	-23.0496	-14.1822
 124	1	5	-0.004553	15.803	-24.2156	-15.3051
 125	1	5	0.042416	17.6705	-23.0618	-11.5588
 126	1	5	0.068411	17.8709	-24.7237	-12.1573
 127	1	5	0.009741	15.5014	-24.4935	-11.0325
 128	1	5	0.002304	14.322	-25.0486	-13.4795
 129	1	5	0.050818	10.9324	-22.4818	-18.4299
 130	1	5	0.045418	11.8721	-23.7873	-17.7111
 131	1	5	0.050853	13.3382	-21.8787	-17.91
 132	1	5	0.040294	12.1457	-20.7924	-17.2013
 133	1	1	-0.162043	-0.993467	-5.93266	-7.39937
 134	1	1	-0.131368	1.76737	-6.55331	-6.65497
 135	1	1	0.053767	0.00466619	-4.95047	-7.25092
 136	1	1	-0.089414	0.71627	-7.48206	-6.54257
 137	1	2	0.07683	-0.942792	-8.64707	-7.18061
 138	1	1	-0.043169	-0.593319	-7.19177	-6.9066
 139	1	1	0.067251	1.309	-5.24992	-6.91322
 140	1	2	0.019658	0.553172	-8.97407	-6.76141
 141	1	3	-0.13357	-2.28866	-5.70035	-8.15562
 142	1	3	-0.181622	3.23381	-6.94408	-6.66159
 143	1	2	-0.091671	0.477129	-10.9489	-7.97767
 144	1	1	0.028189	0.535324	-11.8099	-9.22435
 145	1	3	-0.001388	1.18305	-9.56988	-8.04809
 146	1	3	0.000341	-1.01785	-9.1023	-8.66458
 147	1	2	-0.108264	-1.02315	-10.6346	-8.39895
 148	1	3	-0.051806	0.421868	-8.83828	-9.18982
 149	1	1	0.038269	-0.757076	-11.5456	-9.58448
 150	1	1	0.012104	-0.289644	-12.2192	-11.8318
 151	1	1	0.009692	1.07784	-12.4637	-11.4796
 152	1	1	-0.221685	1.50769	-12.1866	-10.1516
 153	1	1	-0.227504	-1.20149	-11.6684	-10.8995
 154	1	1	0.01292	2.00229	-12.9016	-12.4694
 155	1	1	-0.039953	4.15225	-13.7318	-13.1406
 156	1	2	0.00887	4.99155	-14.5123	-14.9209
 157	1	1	-0.185129	3.29432	-13.3777	-12.1008
 158	1	1	-0.021786	3.76996	-13.7457	-14.4462
 159	1	1	0.017184	1.62515	-12.8937	-13.8555
 160	1	1	-0.198557	2.49546	-13.376	-14.8648
 161	1	2	-0.002904	5.44184	-14.4935	-13.3918
 162	1	3	0.041883	4.89986	-16.0279	-15.2343
 163	1	3	0.005012	3.69145	-16.6834	-14.4986
 164	1	3	-0.193804	6.09853	-16.5166	-14.3894
 165	1	3	0.042479	5.54986	-15.9976	-13.0408
 166	1	3	0.00144	4.14063	-16.6586	-12.982
 167	1	3	-0.061914	-0.795391	-12.544	-13.2273
 168	1	3	-0.051146	0.288698	-12.3119	-14.2861
 169	1	5	0.024509	-1.7367	-9.05551	-6.54438
 170	1	5	0.045413	0.69508	-9.5855	-5.8626
 171	1	5	0.093061	-2.68326	-4.69521	-7.96087
 172	1	5	0.054925	-3.05694	-6.42492	-7.85845
 173	1	5	0.0564	-2.13114	-5.79809	-9.23685
 174	1	5	0.072515	3.55042	-7.25328	-7.66524
 175	1	5	0.098261	3.42203	-7.77771	-5.9738
 176	1	5	0.069746	3.86833	-6.10457	-6.35107
 177	1	5	0.056967	0.630275	-11.4923	-7.03747
 178	1	5	0.059195	2.27832	-9.57665	-8.10732
 179	1	5	0.053458	-1.84391	-8.7	-9.26377
 180	1	5	0.063182	-1.81503	-10.9769	-7.72198
 181	1	5	0.018836	0.60499	-9.27801	-10.1784
 182	1	5	0.033342	0.664305	-7.77195	-9.24393
 183	1	4	0.15438	2.55072	-12.1778	-9.86062
 184	1	4	0.144555	-2.19711	-11.3469	-11.1884
 185	1	5	0.03716	5.66219	-13.9841	-15.6076
 186	1	4	0.135836	3.60748	-13.518	-11.0733
 187	1	4	0.135526	2.19694	-13.4445	-15.9064
 188	1	5	0.041277	6.37306	-13.9521	-13.1915
 189	1	5	0.00856	4.96247	-16.2812	-16.2999
 190	1	5	-0.004553	2.70764	-16.2364	-14.6885
 191	1	5	0.042416	7.04436	-16.0359	-14.6763
 192	1	5	0.068411	6.24389	-17.6012	-14.417
 193	1	5	0.009741	6.18445	-16.2231	-12.1747
 194	1	5	0.002304	3.4156	-16.1987	-12.2992
 195	1	5	0.050818	-1.6807	-11.9457	-13.4772
 196	1	5	0.045418	-1.10613	-13.5962	-13.258
 197	1	5	0.050853	-0.039463	-12.7409	-15.2414
 198	1	5	0.040294	0.405144	-11.2326	-14.4478
 199	1	1	-0.162043	8.47799	6.09851	-2.47298
 200	1	1	-0.131368	9.95301	4.49535	-4.43535
 201	1	1	0.053767	9.43141	6.63915	-3.35572
 202	1	1	-0.089414	9.21562	3.92982	-3.37844
 203	1	2	0.07683	7.52441	3.56705	-2.1421
 204	1	1	-0.043169	8.49797	4.68969	-2.46281
 205	1	1	0.067251	10.1041	5.88499	-4.29419
 206	1	2	0.019658	8.35853	2.69649	-3.17651
 207	1	3	-0.13357	7.447	6.93218	-1.73449
 208	1	3	-0.181622	10.4022	3.72022	-5.66017
 209	1	2	-0.091671	6.5361	1.30679	-3.48405
 210	1	1	0.028189	5.20625	0.875071	-4.06202
 211	1	3	-0.001388	7.33961	2.35757	-4.29319
 212	1	3	0.000341	6.10755	3.63834	-2.78026
 213	1	2	-0.108264	5.68034	2.17805	-2.46202
 214	1	3	-0.051806	6.40065	3.59771	-4.30741
 215	1	1	0.038269	4.46886	1.62143	-3.19131
 216	1	1	0.012104	2.53913	1.35926	-4.57473
 217	1	1	0.009692	3.31159	0.593815	-5.51071
 218	1	1	-0.221685	4.70293	0.410688	-5.2744
 219	1	1	-0.227504	3.13856	1.95547	-3.43672
 220	1	1	0.01292	2.69795	0.0585438	-6.67694
 221	1	1	-0.039953	2.70583	-1.38864	-8.59553
 222	1	2	0.00887	1.20814	-2.21296	-9.84863
 223	1	1	-0.185129	3.36854	-0.92076	-7.46284
 224	1	1	-0.021786	1.4195	-1.0483	-8.89247
 225	1	1	0.017184	1.36334	0.446908	-7.03063
 226	1	1	-0.198557	0.678889	-0.162424	-8.11214
 227	1	2	-0.002904	2.7087	-2.60969	-9.49459
 228	1	3	0.041883	0.410757	-3.47186	-9.41299
 229	1	3	0.005012	0.367974	-3.60459	-7.86155
 230	1	3	-0.193804	1.44089	-4.5584	-9.79837
 231	1	3	0.042479	2.56615	-4.02439	-8.88308
 232	1	3	0.00144	1.86372	-3.96329	-7.4915
 233	1	3	-0.061914	1.04006	1.52404	-4.76689
 234	1	3	-0.051146	0.654382	1.54311	-6.25194
 235	1	5	0.024509	7.53235	3.2377	-1.09644
 236	1	5	0.045413	8.89779	1.82974	-2.77655
 237	1	5	0.093061	7.86854	7.89633	-1.42382
 238	1	5	0.054925	7.09155	6.41597	-0.834028
 239	1	5	0.0564	6.57888	7.13326	-2.37435
 240	1	5	0.072515	11.3225	4.14515	-6.08018
 241	1	5	0.098261	9.63187	3.74512	-6.44065
 242	1	5	0.069746	10.6008	2.67013	-5.41255
 243	1	5	0.056967	7.13867	0.491174	-3.06611
 244	1	5	0.059195	7.75001	2.03375	-5.25756
 245	1	5	0.053458	5.44489	4.43714	-2.42516
 246	1	5	0.063182	5.74251	1.90785	-1.401
 247	1	5	0.018836	5.49777	3.44298	-4.91185
 248	1	5	0.033342	6.90026	4.50466	-4.66825
 249	1	4	0.15438	5.37892	-0.0176892	-6.00385
 250	1	4	0.144555	2.59436	2.62674	-2.77995
 251	1	5	0.03716	1.03617	-1.95462	-10.8993
 252	1	4	0.135836	4.31165	-1.36909	-7.17535
 253	1	4	0.135526	-0.367691	0.0372919	-8.32064
 254	1	5	0.041277	3.40354	-2.5894	-10.3415
 255	1	5	0.00856	-0.568208	-3.58485	-9.89516
 256	1	5	-0.004553	-0.0414418	-2.74688	-7.31389
 257	1	5	0.042416	1.70998	-4.52888	-10.8636
 258	1	5	0.068411	1.12019	-5.57689	-9.55444
 259	1	5	0.009741	3.48457	-4.62451	-8.89325
 260	1	5	0.002304	2.31986	-3.30932	-6.73914
 261	1	5	0.050818	0.679702	2.44277	-4.28691
 262	1	5	0.045418	0.525044	0.688588	-4.27566
 263	1	5	0.050853	-0.435321	1.45298	-6.34523
 264	1	5	0.040294	0.927834	2.51641	-6.67909
 265	1	1	-0.162043	22.7761	10.8692	-8.06714
 266	1	1	-0.131368	21.2353	10.5414	-10.5544
 267	1	1	0.053767	23.1901	11.3629	-9.31672
 268	1	1	-0.089414	20.738	10.2149	-9.2789
 269	1	2	0.07683	20.5885	9.43501	-7.31072
 270	1	1	-0.043169	21.4548	10.3903	-8.10515
 271	1	1	0.067251	22.4603	11.2314	-10.4817
 272	1	2	0.019658	19.7784	9.2117	-8.66128
 273	1	3	-0.13357	23.6961	10.7215	-6.86931
 274	1	3	-0.181622	20.6085	10.0683	-11.8525
 275	1	2	-0.091671	17.9384	8.53076	-7.41301
 276	1	1	0.028189	16.6896	8.71187	-6.57216
 277	1	3	-0.001388	18.3517	9.71901	-8.32766
 278	1	3	0.000341	19.5484	10.0856	-6.35757
 279	1	2	-0.108264	18.7394	8.79696	-6.06321
 280	1	3	-0.051806	18.6165	10.8758	-7.32153
 281	1	1	0.038269	17.3756	8.96387	-5.41941
 282	1	1	0.012104	15.4157	9.91905	-4.43936
 283	1	1	0.009692	14.6766	9.6205	-5.63089
 284	1	1	-0.221685	15.3567	9.07498	-6.75484
 285	1	1	-0.227504	16.8039	9.65102	-4.34962
 286	1	1	0.01292	13.2843	9.89427	-5.69175
 287	1	1	-0.039953	11.1063	9.5293	-6.64446
 288	1	2	0.00887	9.13721	9.68049	-5.86759
 289	1	1	-0.185129	12.4753	9.26505	-6.67587
 290	1	1	-0.021786	10.5205	10.2882	-5.66856
 291	1	1	0.017184	12.6653	10.7019	-4.68504
 292	1	1	-0.198557	11.2588	10.8614	-4.63208
 293	1	2	-0.002904	9.83003	8.78152	-6.97973
 294	1	3	0.041883	8.57021	8.62877	-4.87549
 295	1	3	0.005012	9.71278	7.95202	-4.0661
 296	1	3	-0.193804	8.18856	7.5161	-5.87965
 297	1	3	0.042479	9.61521	7.34038	-6.44857
 298	1	3	0.00144	10.4568	7.08009	-5.15768
 299	1	3	-0.061914	14.7118	10.5028	-3.22397
 300	1	3	-0.051146	13.5205	11.3835	-3.62924
 301	1	5	0.024509	21.1243	8.58379	-6.87414
 302	1	5	0.045413	19.7978	8.2171	-9.12195
 303	1	5	0.093061	24.2596	9.78194	-6.92496
 304	1	5	0.054925	23.1277	10.7208	-5.93095
 305	1	5	0.0564	24.4185	11.5461	-6.82332
 306	1	5	0.072515	19.5293	9.90966	-11.7363
 307	1	5	0.098261	21.0576	9.12244	-12.1797
 308	1	5	0.069746	20.7552	10.8058	-12.6516
 309	1	5	0.056967	18.0466	7.54084	-7.87251
 310	1	5	0.059195	17.6965	9.94357	-9.1785
 311	1	5	0.053458	19.9437	10.6317	-5.49214
 312	1	5	0.063182	19.3355	7.96761	-5.66368
 313	1	5	0.018836	17.7009	11.2342	-6.83392
 314	1	5	0.033342	19.1143	11.7377	-7.78421
 315	1	4	0.15438	14.8999	8.98846	-7.73401
 316	1	4	0.144555	17.3977	9.95896	-3.49487
 317	1	5	0.03716	8.36068	10.3567	-6.24178
 318	1	4	0.135836	12.8573	8.49983	-7.34191
 319	1	4	0.135526	10.7691	11.3547	-3.79815
 320	1	5	0.041277	9.43709	8.91635	-7.99358
 321	1	5	0.00856	7.73778	8.9837	-4.25517
 322	1	5	-0.004553	10.365	8.62096	-3.49306
 323	1	5	0.042416	7.46906	7.85821	-6.63674
 324	1	5	0.068411	7.78585	6.61139	-5.40785
 325	1	5	0.009741	9.7082	6.55273	-7.20667
 326	1	5	0.002304	11.5359	7.2564	-5.22854
 327	1	5	0.050818	15.4069	11.0918	-2.61224
 328	1	5	0.045418	14.3511	9.68162	-2.59144
 329	1	5	0.050853	12.9294	11.6287	-2.73781
 330	1	5	0.040294	13.8962	12.3333	-4.03098
 331	1	1	-0.162043	31.4102	4.7282	-19.3546
 332	1	1	-0.131368	31.1386	7.43342	-20.4237
 333	1	1	0.053767	32.4817	5.44709	-19.9055
 334	1	1	-0.089414	30.0255	6.61681	-20.1217
 335	1	2	0.07683	28.8374	5.3679	-18.884
 336	1	1	-0.043169	30.167	5.33518	-19.6014
 337	1	1	0.067251	32.3628	6.72973	-20.403
 338	1	2	0.019658	28.637	6.81155	-19.5091
 339	1	3	-0.13357	31.5913	3.53153	-18.4382
 340	1	3	-0.181622	31.0402	8.93864	-20.5884
 341	1	2	-0.091671	27.0907	7.26301	-17.7901
 342	1	1	0.028189	26.6613	7.67183	-16.3868
 343	1	3	-0.001388	28.4992	7.73844	-18.2703
 344	1	3	0.000341	28.8988	5.63141	-17.3554
 345	1	2	-0.108264	27.3828	5.84119	-17.1498
 346	1	3	-0.051806	29.4646	7.07777	-17.2501
 347	1	1	0.038269	26.9691	6.4556	-15.8292
 348	1	1	0.012104	27.4007	7.51934	-13.7207
 349	1	1	0.009692	26.9708	8.76821	-14.265
 350	1	1	-0.221685	26.6693	8.85793	-15.6495
 351	1	1	-0.227504	27.4427	6.35371	-14.519
 352	1	1	0.01292	26.9276	9.92049	-13.4404
 353	1	1	-0.039953	26.0956	12.1046	-12.9184
 354	1	2	0.00887	26.0499	13.3205	-11.1841
 355	1	1	-0.185129	26.0949	11.0167	-13.7899
 356	1	1	-0.021786	26.8151	12.1368	-11.7589
 357	1	1	0.017184	27.6373	9.93597	-12.1965
 358	1	1	-0.198557	27.5598	11.0435	-11.3162
 359	1	2	-0.002904	25.1857	13.2496	-12.5174
 360	1	3	0.041883	24.9899	13.1245	-10.0717
 361	1	3	0.005012	24.488	11.6547	-10.0427
 362	1	3	-0.193804	23.7972	13.8588	-10.7298
 363	1	3	0.042479	23.7564	12.9649	-11.9915
 364	1	3	0.00144	23.6482	11.5323	-11.3792
 365	1	3	-0.061914	27.8336	7.42893	-12.2654
 366	1	3	-0.051146	28.4903	8.7403	-11.8042
 367	1	5	0.024509	28.1302	4.58772	-19.1898
 368	1	5	0.045413	27.8249	6.92521	-20.2363
 369	1	5	0.093061	31.7653	3.85454	-17.4045
 370	1	5	0.054925	32.4488	2.92242	-18.7506
 371	1	5	0.0564	30.703	2.88775	-18.4475
 372	1	5	0.072515	30.2229	9.20493	-21.2699
 373	1	5	0.098261	31.9679	9.35797	-20.9974
 374	1	5	0.069746	30.8468	9.42321	-19.6254
 375	1	5	0.056967	26.3078	7.31476	-18.5559
 376	1	5	0.059195	28.6247	8.81287	-18.4487
 377	1	5	0.053458	29.3788	4.86399	-16.7362
 378	1	5	0.063182	26.7576	5.00208	-17.4782
 379	1	5	0.018836	29.3787	7.50609	-16.2447
 380	1	5	0.033342	30.5109	7.14859	-17.5552
 381	1	4	0.15438	26.5508	9.81341	-16.1482
 382	1	4	0.144555	27.8742	5.42812	-14.152
 383	1	5	0.03716	26.6186	14.2483	-11.0564
 384	1	4	0.135836	25.4157	10.9894	-14.6351
 385	1	4	0.135526	28.0159	11.0305	-10.3314
 386	1	5	0.041277	25.2198	14.1511	-13.1318
 387	1	5	0.00856	25.2768	13.5152	-9.0874
 388	1	5	-0.004553	25.2505	10.8787	-9.90651
 389	1	5	0.042416	24.0244	14.9088	-10.9628
 390	1	5	0.068411	22.874	13.832	-10.1363
 391	1	5	0.009741	22.9514	13.2097	-12.6957
 392	1	5	0.002304	23.941	10.6977	-12.028
 393	1	5	0.050818	28.5347	6.59865	-12.1136
 394	1	5	0.045418	26.9558	7.22446	-11.6391
 395	1	5	0.050853	28.6509	8.70716	-10.7192
 396	1	5	0.040294	29.4799	8.83323	-12.2705
 397	1	1	-0.162043	45.7864	7.93189	-25.3866
 398	1	1	-0.131368	45.0713	10.1679	-23.6485
 399	1	1	0.053767	46.6378	8.4272	-24.3813
 400	1	1	-0.089414	44.3517	9.84764	-24.8161
 401	1	2	0.07683	43.2663	8.59692	-26.1467
 402	1	1	-0.043169	44.688	8.77868	-25.6394
 403	1	1	0.067251	46.2943	9.47724	-23.5534
 404	1	2	0.019658	42.884	9.81979	-25.2113
 405	1	3	-0.13357	45.9355	6.55055	-25.998
 406	1	3	-0.181622	44.4979	11.0257	-22.5362
 407	1	2	-0.091671	40.6719	9.07977	-25.1471
 408	1	1	0.028189	39.5186	8.21644	-24.6642
 409	1	3	-0.001388	41.8867	9.21229	-24.1879
 410	1	3	0.000341	42.4514	7.4132	-25.5591
 411	1	2	-0.108264	41.0559	7.85645	-26.0782
 412	1	3	-0.051806	42.3846	7.74696	-24.0415
 413	1	1	0.038269	39.8557	7.15465	-25.4698
 414	1	1	0.012104	38.8655	5.62976	-23.9028
 415	1	1	0.009692	38.516	6.72294	-23.0511
 416	1	1	-0.221685	38.9001	8.03893	-23.4229
 417	1	1	-0.227504	39.6035	5.83601	-25.0898
 418	1	1	0.01292	37.91	6.47523	-21.7897
 419	1	1	-0.039953	36.7812	7.20526	-19.8031
 420	1	2	0.00887	35.8994	6.26002	-18.1332
 421	1	1	-0.185129	37.2797	7.52784	-21.0651
 422	1	1	-0.021786	36.8282	5.94633	-19.287
 423	1	1	0.017184	37.9121	5.14511	-21.2497
 424	1	1	-0.198557	37.327	4.8563	-19.9938
 425	1	2	-0.002904	35.8315	7.7333	-18.7373
 426	1	3	0.041883	34.4286	5.79417	-18.1782
 427	1	3	0.005012	33.9675	5.56701	-19.6492
 428	1	3	-0.193804	33.7452	7.13373	-17.8261
 429	1	3	0.042479	34.315	7.91491	-19.0303
 430	1	3	0.00144	33.8506	7.03333	-20.2308
 431	1	3	-0.061914	38.4878	4.20984	-23.5169
 432	1	3	-0.051146	38.5914	4.01064	-21.9995
 433	1	5	0.024509	43.1408	8.73893	-27.2265
 434	1	5	0.045413	42.5235	10.7293	-25.7057
 435	1	5	0.093061	46.9929	6.27676	-26.1021
 436	1	5	0.054925	45.4786	6.50681	-26.9945
 437	1	5	0.0564	45.4509	5.79281	-25.3698
 438	1	5	0.072515	43.9467	11.8817	-22.9446
 439	1	5	0.098261	45.2876	11.4177	-21.8852
 440	1	5	0.069746	43.8054	10.4438	-21.9163
 441	1	5	0.056967	40.3776	10.0137	-25.6408
 442	1	5	0.059195	41.7247	9.77423	-23.2599
 443	1	5	0.053458	42.7822	6.40282	-25.8289
 444	1	5	0.063182	41.001	8.01331	-27.1622
 445	1	5	0.018836	41.6869	7.107	-23.4878
 446	1	5	0.033342	43.3588	7.6807	-23.551
 447	1	4	0.15438	38.8538	8.86864	-22.7269
 448	1	4	0.144555	40.011	5.00567	-25.6577
 449	1	5	0.03716	36.3302	6.18444	-17.1306
 450	1	4	0.135836	37.1327	8.52092	-21.4751
 451	1	4	0.135526	37.2634	3.84612	-19.6012
 452	1	5	0.041277	36.2248	8.51802	-18.0815
 453	1	5	0.00856	34.188	4.96682	-17.4992
 454	1	5	-0.004553	34.5714	4.87886	-20.2529
 455	1	5	0.042416	34.0732	7.53859	-16.8618
 456	1	5	0.068411	32.6541	7.08085	-17.8157
 457	1	5	0.009741	33.9805	8.95804	-19.0902
 458	1	5	0.002304	34.3877	7.18644	-21.1753
 459	1	5	0.050818	39.1255	3.47583	-24.0257
 460	1	5	0.045418	37.4571	4.01161	-23.8377
 461	1	5	0.050853	38.1532	3.04128	-21.73
 462	1	5	0.040294	39.6501	3.97197	-21.7125
 463	1	1	-0.162043	56.3828	17.7281	-17.8113
 464	1	1	-0.131368	54.2838	17.2153	-15.8878
 465	1	1	0.053767	56.1433	18.5866	-16.7189
 466	1	1	-0.089414	54.6245	16.2944	-16.8905
 467	1	2	0.07683	54.9014	15.8432	-18.9462
 468	1	1	-0.043169	55.6444	16.5299	-17.81
 469	1	1	0.067251	55.1302	18.3355	-15.7948
 470	1	2	0.019658	53.7373	15.6037	-17.9104
 471	1	3	-0.13357	57.0615	18.2307	-19.0748
 472	1	3	-0.181622	52.9145	17.2001	-15.2275
 473	1	2	-0.091671	52.9281	13.8765	-19.2083
 474	1	1	0.028189	52.8535	12.4672	-19.7543
 475	1	3	-0.001388	53.609	14.0634	-17.8251
 476	1	3	0.000341	55.3412	14.4072	-19.3451
 477	1	2	-0.108264	54.1159	14.0914	-20.2476
 478	1	3	-0.051806	55.0656	13.5759	-18.0611
 479	1	1	0.038269	53.8786	12.6432	-20.6344
 480	1	1	0.012104	53.2376	10.6623	-21.7995
 481	1	1	0.009692	52.1478	10.4694	-20.8836
 482	1	1	-0.221685	51.9172	11.4426	-19.8684
 483	1	1	-0.227504	54.0803	11.7988	-21.7218
 484	1	1	0.01292	51.2853	9.34683	-21.0382
 485	1	1	-0.039953	49.2797	8.12428	-20.5372
 486	1	2	0.00887	48.2806	6.45318	-21.3714
 487	1	1	-0.185129	50.0286	9.28699	-20.3686
 488	1	1	-0.021786	49.6486	7.11411	-21.3731
 489	1	1	0.017184	51.6596	8.27498	-21.9183
 490	1	1	-0.198557	50.8099	7.16304	-22.1391
 491	1	2	-0.002904	47.8469	7.64424	-20.4069
 492	1	3	0.041883	47.3191	6.61308	-22.5768
 493	1	3	0.005012	47.6765	7.87442	-23.4182
 494	1	3	-0.193804	46.0589	7.07954	-21.8148
 495	1	3	0.042479	46.715	8.33745	-21.2049
 496	1	3	0.00144	47.2724	9.06878	-22.4645
 497	1	3	-0.061914	53.4047	9.73644	-22.992
 498	1	3	-0.051146	52.9989	8.30193	-22.6355
 499	1	5	0.024509	54.6982	16.4919	-19.8068
 500	1	5	0.045413	52.7823	16.1121	-18.0864
 501	1	5	0.093061	57.8704	18.9328	-18.836
 502	1	5	0.054925	56.3452	18.7496	-19.724
 503	1	5	0.0564	57.4981	17.4019	-19.6459
 504	1	5	0.072515	52.4088	16.2373	-15.3722
 505	1	5	0.098261	52.27	17.9858	-15.6377
 506	1	5	0.069746	53.0024	17.3695	-14.1472
 507	1	5	0.056967	52.0097	14.4599	-19.3374
 508	1	5	0.059195	53.0828	13.658	-16.9518
 509	1	5	0.053458	56.3336	14.3022	-19.801
 510	1	5	0.063182	53.9712	14.8065	-21.0666
 511	1	5	0.018836	55.1303	12.4935	-18.2315
 512	1	5	0.033342	55.7396	13.8367	-17.2348
 513	1	4	0.15438	51.0708	11.4225	-19.1944
 514	1	4	0.144555	54.8093	12.0314	-22.4919
 515	1	5	0.03716	48.224	5.45463	-20.924
 516	1	4	0.135836	49.6118	10.1095	-19.8013
 517	1	4	0.135526	51.0398	6.39355	-22.8697
 518	1	5	0.041277	47.5255	7.33403	-19.4067
 519	1	5	0.00856	47.1771	5.70447	-23.175
 520	1	5	-0.004553	48.7029	7.9261	-23.8013
 521	1	5	0.042416	45.7305	6.35891	-21.0525
 522	1	5	0.068411	45.2089	7.29975	-22.4663
 523	1	5	0.009741	46.0376	8.95053	-20.6048
 524	1	5	0.002304	48.0715	9.79934	-22.2914
 525	1	5	0.050818	54.441	9.74242	-23.3531
 526	1	5	0.045418	52.777	10.0944	-23.8182
 527	1	5	0.050853	52.9706	7.69506	-23.5494
 528	1	5	0.040294	53.7653	7.86117	-21.9852
 529	1	1	-0.162043	47.2407	13.3302	-19.4241
 530	1	1	-0.131368	47.1073	13.9399	-16.5761
 531	1	1	0.053767	46.5052	12.5535	-18.506
 532	1	1	-0.089414	47.6302	14.8306	-17.5276
 533	1	2	0.07683	48.845	15.493	-19.1367
 534	1	1	-0.043169	47.6652	14.5648	-18.8914
 535	1	1	0.067251	46.4289	12.8553	-17.1567
 536	1	2	0.019658	48.8292	15.755	-17.5733
 537	1	3	-0.13357	47.7233	12.8016	-20.7644
 538	1	3	-0.181622	47.4337	14.0229	-15.0961
 539	1	2	-0.091671	49.9507	17.7422	-17.9007
 540	1	1	0.028189	50.1183	19.2174	-18.1981
 541	1	3	-0.001388	48.5462	17.2708	-17.4412
 542	1	3	0.000341	48.5402	16.8978	-19.74
 543	1	2	-0.108264	49.9344	17.5259	-19.4678
 544	1	3	-0.051806	47.6393	17.5708	-18.6672
 545	1	1	0.038269	50.0795	19.0393	-19.5613
 546	1	1	0.012104	51.5007	20.9565	-19.8559
 547	1	1	0.009692	51.6286	21.0973	-18.4399
 548	1	1	-0.221685	50.9206	20.1923	-17.6012
 549	1	1	-0.227504	50.7887	19.8748	-20.4251
 550	1	1	0.01292	52.642	21.9467	-17.9017
 551	1	1	-0.039953	53.9753	22.6356	-15.9947
 552	1	2	0.00887	56.0872	22.4815	-15.8328
 553	1	1	-0.185129	52.7658	22.1414	-16.4963
 554	1	1	-0.021786	55.0279	22.9318	-16.8293
 555	1	1	0.017184	53.6991	22.3941	-18.7588
 556	1	1	-0.198557	54.9222	22.8483	-18.2179
 557	1	2	-0.002904	54.8833	22.1815	-14.8513
 558	1	3	0.041883	56.7691	21.0866	-15.9763
 559	1	3	0.005012	55.8607	20.082	-16.7562
 560	1	3	-0.193804	56.6109	20.5909	-14.5219
 561	1	3	0.042479	55.0684	20.6724	-14.5166
 562	1	3	0.00144	54.7072	19.7885	-15.7407
 563	1	3	-0.061914	52.2531	21.9042	-20.7699
 564	1	3	-0.051146	53.6805	22.1067	-20.2524
 565	1	5	0.024509	49.7227	15.0069	-19.5763
 566	1	5	0.045413	49.6837	15.4106	-16.9785
 567	1	5	0.093061	47.242	13.3358	-21.593
 568	1	5	0.054925	47.4998	11.7343	-20.877
 569	1	5	0.0564	48.8087	12.9231	-20.8701
 570	1	5	0.072515	48.3299	13.4357	-14.8603
 571	1	5	0.098261	46.6064	13.6371	-14.4873
 572	1	5	0.069746	47.6184	15.0599	-14.7894
 573	1	5	0.056967	50.7734	17.3034	-17.3267
 574	1	5	0.059195	48.1958	17.625	-16.4636
 575	1	5	0.053458	48.1796	16.9237	-20.7759
 576	1	5	0.063182	50.7607	16.9676	-19.9243
 577	1	5	0.018836	47.5005	18.6457	-18.8405
 578	1	5	0.033342	46.649	17.1035	-18.5899
 579	1	4	0.15438	51.1265	20.0974	-16.5441
 580	1	4	0.144555	50.8617	19.6449	-21.4835
 581	1	5	0.03716	56.7853	23.2507	-15.4844
 582	1	4	0.135836	52.0442	21.7501	-15.7914
 583	1	4	0.135526	55.8042	22.9402	-18.8445
 584	1	5	0.041277	54.8607	22.7995	-13.9469
 585	1	5	0.00856	57.8056	21.1169	-16.335
 586	1	5	-0.004553	55.5187	20.4096	-17.742
 587	1	5	0.042416	57.0733	21.2675	-13.7897
 588	1	5	0.068411	57.0011	19.5779	-14.3563
 589	1	5	0.009741	54.5986	20.346	-13.5803
 590	1	5	0.002304	53.7009	19.9077	-16.1436
 591	1	5	0.050818	51.735	22.8715	-20.7944
 592	1	5	0.045418	52.2834	21.5325	-21.8019
 593	1	5	0.050853	54.2655	21.1994	-20.4515
 594	1	5	0.040294	54.1577	22.9227	-20.8101
 595	1	1	-0.162043	32.4669	8.036	-14.2064
 596	1	1	-0.131368	33.8348	10.5507	-13.9851
 597	1	1	0.053767	32.036	9.16205	-14.9326
 598	1	1	-0.089414	34.1289	9.46269	-13.1481
 599	1	2	0.07683	34.7208	7.44405	-12.8882
 600	1	1	-0.043169	33.5068	8.24686	-13.3037
 601	1	1	0.067251	32.7405	10.4016	-14.8898
 602	1	2	0.019658	35.4197	8.83943	-12.6211
 603	1	3	-0.13357	31.8767	6.65638	-14.4488
 604	1	3	-0.181622	34.7402	11.7759	-13.9593
 605	1	2	-0.091671	37.4913	7.76162	-12.8139
 606	1	1	0.028189	38.693	7.20837	-13.5584
 607	1	3	-0.001388	36.6495	8.83878	-13.564
 608	1	3	0.000341	35.5634	6.8351	-14.0497
 609	1	2	-0.108264	36.775	6.39809	-13.193
 610	1	3	-0.051806	36.1141	8.08051	-14.8081
 611	1	1	0.038269	38.0553	6.05257	-13.9352
 612	1	1	0.012104	39.4579	5.91229	-15.8829
 613	1	1	0.009692	40.1798	7.06595	-15.4467
 614	1	1	-0.221685	39.7327	7.7711	-14.2995
 615	1	1	-0.227504	38.3504	5.42421	-15.1487
 616	1	1	0.01292	41.278	7.54811	-16.2051
 617	1	1	-0.039953	43.309	8.78823	-16.4083
 618	1	2	0.00887	44.7816	9.10258	-17.8904
 619	1	1	-0.185129	42.2377	8.4114	-15.604
 620	1	1	-0.021786	43.4369	8.42169	-17.7108
 621	1	1	0.017184	41.4522	7.11629	-17.5634
 622	1	1	-0.198557	42.5459	7.56311	-18.3498
 623	1	2	-0.002904	44.6479	9.49933	-16.3526
 624	1	3	0.041883	44.8333	10.4874	-18.5887
 625	1	3	0.005012	46.2437	11.0698	-18.2844
 626	1	3	-0.193804	43.9228	11.3606	-17.6945
 627	1	3	0.042479	44.6791	11.0422	-16.3846
 628	1	3	0.00144	46.143	11.4258	-16.7463
 629	1	3	-0.061914	39.8646	5.2025	-17.1656
 630	1	3	-0.051146	40.4167	6.20044	-18.1981
 631	1	5	0.024509	34.5733	6.78328	-12.0258
 632	1	5	0.045413	35.6594	9.08462	-11.58
 633	1	5	0.093061	32.2529	5.9257	-13.7223
 634	1	5	0.054925	32.1247	6.29086	-15.4523
 635	1	5	0.0564	30.7833	6.67921	-14.3584
 636	1	5	0.072515	34.1551	12.7036	-13.935
 637	1	5	0.098261	35.3915	11.8032	-14.8418
 638	1	5	0.069746	35.3841	11.7772	-13.071
 639	1	5	0.056967	37.6506	7.96477	-11.7482
 640	1	5	0.059195	37.1318	9.80669	-13.7476
 641	1	5	0.053458	35.0828	6.05885	-14.658
 642	1	5	0.063182	36.5247	5.7167	-12.3711
 643	1	5	0.018836	36.9056	7.84119	-15.5278