pySIMM System Object

3248 atoms
3784 bonds
7776 angles
14208 dihedrals
384 impropers

5 atom types
9 bond types
18 angle types
19 dihedral types
2 improper types

-208.232734 208.232734 xlo xhi
-208.232734 208.232734 ylo yhi
-208.232734 208.232734 zlo zhi

Masses

   1	12.01	# ca
   2	12.01	# cy
   3	12.01	# c3
   4	1.008	# ha
   5	1.008	# hc

Pair Coeffs

   1	0.086	3.3996695084235347	# ca
   2	0.086	3.3996695084235347	# cy
   3	0.1094	3.3996695084235347	# c3
   4	0.015	2.59964245953351	# ha
   5	0.0157	2.649532787749369	# hc

Bond Coeffs

   1	461.1	1.3984	# ca,ca
   2	300.9	1.5375	# c3,c3
   3	305.9	1.5319	# c3,cy
   4	345.8	1.086	# ca,ha
   5	321.0	1.5156	# c3,ca
   6	285.0	1.5562	# cy,cy
   7	333.3	1.0949	# cy,hc
   8	330.6	1.0969	# c3,hc
   9	321.2	1.5154	# ca,cy

Angle Coeffs

   1	67.9	96.03	# cy,c3,cy
   2	45.97	114.53	# ca,cy,hc
   3	66.62	120.02	# ca,ca,ca
   4	61.4	116.81	# ca,cy,cy
   5	44.83	114.79	# cy,cy,hc
   6	46.43	110.14	# c3,cy,hc
   7	62.86	111.51	# c3,c3,c3
   8	63.15	112.07	# c3,c3,ca
   9	46.34	109.8	# c3,c3,hc
  10	48.18	119.88	# ca,ca,ha
  11	39.4	107.58	# hc,c3,hc
  12	63.53	120.77	# c3,ca,ca
  13	60.66	118.7	# c3,cy,cy
  14	63.51	120.86	# ca,ca,cy
  15	62.73	112.39	# c3,c3,cy
  16	46.29	110.75	# cy,c3,hc
  17	46.8	110.47	# ca,c3,hc
  18	62.8	113.57	# c3,cy,ca

Dihedral Coeffs

   1	3	0.18	3	0.0	0.25	2	180.0	0.2	1	180.0	# c3,c3,cy,cy
   2	1	0.16	3	0.0	# hc,c3,cy,cy
   3	1	0.16	3	0.0	# cy,c3,cy,hc
   4	1	0.16	3	0.0	# c3,c3,cy,hc
   5	1	0.15	3	0.0	# hc,c3,cy,hc
   6	1	3.625	2	180	# X,ca,ca,X
   7	1	0.15555555555555556	3	0	# X,cy,cy,X
   8	3	0.18	3	0	0.25	2	180	0.2	1	180	# c3,c3,c3,c3
   9	1	0.16	3	0	# hc,c3,c3,c3
  10	1	0.0	2	0.0	# ca,ca,cy,cy
  11	1	0.0	2	0.0	# ca,ca,cy,c3
  12	1	0.0	2	0	# X,c3,ca,X
  13	1	0.15555555555555556	3	0	# X,c3,c3,X
  14	3	0.38	3	180.0	0.0	2	0.0	1.15	1	0.0	# ca,ca,cy,hc
  15	3	0.18	3	0.0	0.25	2	180.0	0.2	1	180.0	# cy,c3,cy,cy
  16	1	0.16	3	0.0	# cy,c3,cy,ca
  17	1	0.16	3	0.0	# c3,c3,cy,ca
  18	1	0.16	3	0.0	# hc,c3,cy,ca
  19	1	0.15	3	0	# hc,c3,c3,hc

Improper Coeffs

   1	1.1	-1	2	# ca,ca,ca,c3
   2	1.1	-1	2	# ca,X,X,ha

Atoms

   1	1	1	-0.162043	-32.9732	-30.3694	23.7128
   2	1	1	-0.131368	-33.4281	-28.9679	21.1858
   3	1	1	0.053767	-32.015	-30.2996	22.6846
   4	1	1	-0.089414	-34.4605	-29.2602	22.098
   5	1	2	0.07683	-35.4678	-29.3211	23.968
   6	1	1	-0.043169	-34.2447	-29.9257	23.2989
   7	1	1	0.067251	-32.2293	-29.6376	21.4924
   8	1	2	0.019658	-35.7136	-28.561	22.5961
   9	1	3	-0.13357	-32.6343	-30.7221	25.1496
  10	1	3	-0.181622	-33.5472	-27.9198	20.0949
  11	1	2	-0.091671	-36.9474	-26.9369	23.7145
  12	1	1	0.028189	-37.1567	-25.6964	24.5634
  13	1	3	-0.001388	-35.5884	-27.0602	22.9737
  14	1	3	0.000341	-35.2289	-28.1767	24.9902
  15	1	2	-0.108264	-36.7032	-27.6971	25.0887
  16	1	3	-0.051806	-34.5518	-27.0702	24.1327
  17	1	1	0.038269	-36.9462	-26.3514	25.7463
  18	1	1	0.012104	-36.4375	-24.2787	26.8286
  19	1	1	0.009692	-36.6388	-23.5809	25.5941
  20	1	1	-0.221685	-36.9411	-24.3248	24.4199
  21	1	1	-0.227504	-36.5098	-25.6903	26.8932
  22	1	1	0.01292	-36.4574	-22.1716	25.5352
  23	1	1	-0.039953	-36.6716	-20.0545	24.4217
  24	1	2	0.00887	-36.5154	-18.028	25.0094
  25	1	1	-0.185129	-36.9272	-21.4254	24.4169
  26	1	1	-0.021786	-36.0987	-19.4114	25.4773
  27	1	1	0.017184	-35.8447	-21.4818	26.6344
  28	1	1	-0.198557	-35.7113	-20.0715	26.6407
  29	1	2	-0.002904	-37.1867	-18.7771	23.781
  30	1	3	0.041883	-37.7156	-17.3021	25.6666
  31	1	3	0.005012	-38.7081	-18.2864	26.343
  32	1	3	-0.193804	-38.5291	-16.9276	24.4108
  33	1	3	0.042479	-38.6778	-18.3777	23.907
  34	1	3	0.00144	-39.3635	-19.0205	25.1432
  35	1	3	-0.061914	-36.1338	-23.5115	28.1048
  36	1	3	-0.051146	-35.2944	-22.2602	27.8183
  37	1	5	0.024509	-36.2279	-30.0488	24.2757
  38	1	5	0.045413	-36.6276	-28.8134	22.0459
  39	1	5	0.093061	-31.8392	-31.4769	25.1936
  40	1	5	0.054925	-33.5087	-31.1261	25.6749
  41	1	5	0.0564	-32.2897	-29.8361	25.6971
  42	1	5	0.072515	-33.2633	-26.93	20.4731
  43	1	5	0.098261	-34.5757	-27.8571	19.7186
  44	1	5	0.069746	-32.8941	-28.1575	19.246
  45	1	5	0.056967	-37.8187	-27.2412	23.122
  46	1	5	0.059195	-35.4059	-26.3561	22.1525
  47	1	5	0.053458	-34.7322	-28.4481	25.9297
  48	1	5	0.063182	-37.4205	-28.4802	25.3623
  49	1	5	0.018836	-34.4808	-26.1069	24.6534
  50	1	5	0.033342	-33.5469	-27.3487	23.7992
  51	1	4	0.15438	-36.9225	-23.8868	23.4291
  52	1	4	0.144555	-36.2256	-26.2406	27.7845
  53	1	5	0.03716	-35.7063	-17.3389	24.7431
  54	1	4	0.135836	-37.5222	-21.8618	23.623
  55	1	4	0.135526	-35.3375	-19.5285	27.5034
  56	1	5	0.041277	-36.7687	-18.5209	22.8012
  57	1	5	0.00856	-37.4405	-16.4499	26.3007
  58	1	5	-0.004553	-38.2198	-18.9749	27.0424
  59	1	5	0.042416	-37.9698	-16.2879	23.7139
  60	1	5	0.068411	-39.4923	-16.4538	24.6478
  61	1	5	0.009741	-39.2564	-18.4799	22.9803
  62	1	5	0.002304	-39.2299	-20.1074	25.1908
  63	1	5	0.050818	-35.6077	-24.1435	28.8314
  64	1	5	0.045418	-37.079	-23.2095	28.5738
  65	1	5	0.050853	-35.256	-21.6347	28.7193
  66	1	5	0.040294	-34.2626	-22.5631	27.5991
  67	1	1	-0.162043	-21.5953	-33.6331	12.8376
  68	1	1	-0.131368	-21.957	-30.7315	12.8056
  69	1	1	0.053767	-20.5265	-32.7231	12.7355
  70	1	1	-0.089414	-23.0217	-31.6392	12.6456
  71	1	2	0.07683	-24.2797	-33.2901	13.0999
  72	1	1	-0.043169	-22.8505	-33.0181	12.6601
  73	1	1	0.067251	-20.6975	-31.353	12.7195
  74	1	2	0.019658	-24.4741	-31.7146	13.0845
  75	1	3	-0.13357	-21.4232	-35.0807	13.2602
  76	1	3	-0.181622	-22.149	-29.2777	13.1966
  77	1	2	-0.091671	-26.2422	-31.915	14.5831
  78	1	1	0.028189	-26.8933	-32.0912	15.9429
  79	1	3	-0.001388	-24.7908	-31.3635	14.5636
  80	1	3	0.000341	-24.5083	-33.6791	14.5858
  81	1	2	-0.108264	-26.0505	-33.4929	14.5977
  82	1	3	-0.051806	-23.9942	-32.4337	15.3621
  83	1	1	0.038269	-26.7281	-33.4493	15.9547
  84	1	1	0.012104	-26.9561	-33.4787	18.3362
  85	1	1	0.009692	-27.1141	-32.0551	18.3418
  86	1	1	-0.221685	-27.0127	-31.3423	17.1147
  87	1	1	-0.227504	-26.677	-34.181	17.1398
  88	1	1	0.01292	-27.2881	-31.3634	19.5721
  89	1	1	-0.039953	-27.8341	-29.3946	20.8343
  90	1	2	0.00887	-28.2883	-28.9901	22.8629
  91	1	1	-0.185129	-27.7339	-30.0112	19.5876
  92	1	1	-0.021786	-27.6256	-30.0561	22.0075
  93	1	1	0.017184	-27.0648	-32.0449	20.8152
  94	1	1	-0.198557	-27.2902	-31.4067	22.0596
  95	1	2	-0.002904	-28.5376	-28.2197	21.4914
  96	1	3	0.041883	-29.7233	-29.1976	23.4107
  97	1	3	0.005012	-30.502	-30.2449	22.5591
  98	1	3	-0.193804	-30.3522	-27.8653	22.9424
  99	1	3	0.042479	-30.0817	-28.0961	21.438
 100	1	3	0.00144	-30.7479	-29.4842	21.1938
 101	1	3	-0.061914	-27.0819	-34.2706	19.6271
 102	1	3	-0.051146	-26.5492	-33.4748	20.8251
 103	1	5	0.024509	-24.8754	-33.8707	12.3856
 104	1	5	0.045413	-25.1917	-31.3102	12.3611
 105	1	5	0.093061	-21.4041	-35.1677	14.3536
 106	1	5	0.054925	-20.4847	-35.4958	12.8721
 107	1	5	0.0564	-22.245	-35.7031	12.8848
 108	1	5	0.072515	-23.0953	-28.8848	12.8046
 109	1	5	0.098261	-21.3381	-28.6526	12.8022
 110	1	5	0.069746	-22.1617	-29.1664	14.2878
 111	1	5	0.056967	-26.8984	-31.4977	13.8098
 112	1	5	0.059195	-24.6538	-30.3176	14.8648
 113	1	5	0.053458	-24.1247	-34.6554	14.9065
 114	1	5	0.063182	-26.5857	-34.0695	13.8337
 115	1	5	0.018836	-24.2536	-32.4551	16.4281
 116	1	5	0.033342	-22.9107	-32.302	15.2806
 117	1	4	0.15438	-26.9388	-30.2623	17.0699
 118	1	4	0.144555	-26.4208	-35.2357	17.1382
 119	1	5	0.03716	-27.6418	-28.466	23.5754
 120	1	4	0.135836	-28.0577	-29.4855	18.6968
 121	1	4	0.135526	-27.2168	-31.9367	23.0043
 122	1	5	0.041277	-28.0391	-27.2473	21.4117
 123	1	5	0.00856	-29.7816	-29.3716	24.4924
 124	1	5	-0.004553	-30.034	-31.2312	22.4537
 125	1	5	0.042416	-29.8259	-26.9853	23.3381
 126	1	5	0.068411	-31.4148	-27.7685	23.1893
 127	1	5	0.009741	-30.4567	-27.3008	20.7819
 128	1	5	0.002304	-30.4201	-30.0315	20.3017
 129	1	5	0.050818	-26.5477	-35.2268	19.5593
 130	1	5	0.045418	-28.1393	-34.5103	19.7977
 131	1	5	0.050853	-26.8269	-33.9884	21.7544
 132	1	5	0.040294	-25.4525	-33.4602	20.787
 133	1	1	-0.162043	-7.72827	-26.0103	9.78102
 134	1	1	-0.131368	-9.08999	-24.6109	11.9575
 135	1	1	0.053767	-7.06799	-25.5581	10.9396
 136	1	1	-0.089414	-9.68016	-24.8282	10.6983
 137	1	2	0.07683	-10.3351	-25.9298	9.00303
 138	1	1	-0.043169	-9.03505	-25.4943	9.6628
 139	1	1	0.067251	-7.71401	-24.9003	11.9672
 140	1	2	0.019658	-11.068	-25.1731	10.1903
 141	1	3	-0.13357	-7.15901	-27.0693	8.85473
 142	1	3	-0.181622	-9.88254	-24.2689	13.2058
 143	1	2	-0.091671	-12.9559	-26.4935	9.88451
 144	1	1	0.028189	-13.8069	-27.7428	10.0172
 145	1	3	-0.001388	-11.8323	-26.2997	10.9364
 146	1	3	0.000341	-10.7698	-27.41	9.18165
 147	1	2	-0.108264	-12.2346	-27.2456	8.68606
 148	1	3	-0.051806	-10.9288	-27.5471	10.7223
 149	1	1	0.038269	-13.1912	-28.3878	8.9776
 150	1	1	0.012104	-13.9004	-30.5047	9.84277
 151	1	1	0.009692	-14.5134	-29.849	10.9583
 152	1	1	-0.221685	-14.4068	-28.4349	11.071
 153	1	1	-0.227504	-13.1535	-29.7782	8.88589
 154	1	1	0.01292	-15.1335	-30.6169	11.9831
 155	1	1	-0.039953	-16.4649	-30.8118	13.9706
 156	1	2	0.00887	-17.3422	-32.4025	15.0579
 157	1	1	-0.185129	-15.9568	-29.9922	12.964
 158	1	1	-0.021786	-16.2947	-32.1621	13.9855
 159	1	1	0.017184	-14.9522	-32.0413	12.0203
 160	1	1	-0.198557	-15.5853	-32.8442	13.0013
 161	1	2	-0.002904	-17.5435	-30.8216	15.0398
 162	1	3	0.041883	-18.748	-32.9348	14.6811
 163	1	3	0.005012	-19.0779	-32.6381	13.1869
 164	1	3	-0.193804	-19.606	-31.8818	15.4191
 165	1	3	0.042479	-19.0357	-30.6652	14.6549
 166	1	3	0.00144	-19.2748	-31.0686	13.1688
 167	1	3	-0.061914	-14.0247	-32.0094	9.67262
 168	1	3	-0.051146	-14.0269	-32.7263	11.0278
 169	1	5	0.024509	-10.4907	-25.5349	7.99223
 170	1	5	0.045413	-11.6854	-24.3078	9.92212
 171	1	5	0.093061	-6.06906	-26.9753	8.77061
 172	1	5	0.054925	-7.58144	-26.9815	7.84606
 173	1	5	0.0564	-7.38335	-28.0756	9.22961
 174	1	5	0.072515	-9.28134	-23.6729	13.9037
 175	1	5	0.098261	-10.2008	-25.1802	13.7268
 176	1	5	0.069746	-10.7801	-23.689	12.9576
 177	1	5	0.056967	-13.5137	-25.5813	9.64068
 178	1	5	0.059195	-12.1483	-26.0875	11.9652
 179	1	5	0.053458	-10.1582	-28.1689	8.67835
 180	1	5	0.063182	-12.3316	-26.8041	7.68696
 181	1	5	0.018836	-11.4122	-28.4853	11.0222
 182	1	5	0.033342	-9.97514	-27.4745	11.2541
 183	1	4	0.15438	-14.6796	-27.8982	11.9713
 184	1	4	0.144555	-12.5592	-30.2737	8.12475
 185	1	5	0.03716	-16.9819	-32.812	16.0081
 186	1	4	0.135836	-16.2362	-28.9459	12.9267
 187	1	4	0.135526	-15.5194	-33.9279	12.9963
 188	1	5	0.041277	-17.3009	-30.3147	15.9803
 189	1	5	0.00856	-18.9428	-33.9716	14.9826
 190	1	5	-0.004553	-18.3614	-33.0157	12.4469
 191	1	5	0.042416	-19.3954	-31.8426	16.4972
 192	1	5	0.068411	-20.684	-32.0197	15.2858
 193	1	5	0.009741	-19.4836	-29.7031	14.9329
 194	1	5	0.002304	-18.6717	-30.5423	12.4188
 195	1	5	0.050818	-13.2118	-32.4073	9.05205
 196	1	5	0.045418	-14.9621	-32.2331	9.14736
 197	1	5	0.050853	-14.3119	-33.7761	10.8822
 198	1	5	0.040294	-13.0069	-32.7287	11.4331
 199	1	1	-0.162043	1.94319	-19.2415	20.8281
 200	1	1	-0.131368	-0.275918	-20.5993	22.1927
 201	1	1	0.053767	2.08345	-19.9397	22.0417
 202	1	1	-0.089414	-0.458067	-19.7067	21.1201
 203	1	2	0.07683	-0.200157	-18.8646	19.185
 204	1	1	-0.043169	0.591842	-19.0749	20.4656
 205	1	1	0.067251	1.04296	-20.5832	22.6759
 206	1	2	0.019658	-1.39921	-19.5844	19.9392
 207	1	3	-0.13357	3.11222	-18.8172	19.9584
 208	1	3	-0.181622	-1.33945	-21.5677	22.6756
 209	1	2	-0.091671	-2.33874	-20.1751	17.9074
 210	1	1	0.028189	-2.51206	-21.0015	16.6502
 211	1	3	-0.001388	-1.64783	-20.8698	19.109
 212	1	3	0.000341	0.105631	-19.8112	17.9907
 213	1	2	-0.108264	-1.14559	-19.4577	17.1376
 214	1	3	-0.051806	-0.23525	-21.219	18.5581
 215	1	1	0.038269	-1.49155	-20.3846	15.9846
 216	1	1	0.012104	-1.39621	-22.1893	14.4196
 217	1	1	0.009692	-2.43899	-22.8674	15.1325
 218	1	1	-0.221685	-2.96001	-22.2794	16.319
 219	1	1	-0.227504	-0.848844	-20.9731	14.8972
 220	1	1	0.01292	-2.89734	-24.1395	14.6893
 221	1	1	-0.039953	-4.44124	-25.9776	14.7664
 222	1	2	0.00887	-4.88308	-27.6278	13.5136
 223	1	1	-0.185129	-4.08721	-24.7104	15.2253
 224	1	1	-0.021786	-3.77916	-26.6124	13.7598
 225	1	1	0.017184	-2.18609	-24.84	13.6577
 226	1	1	-0.198557	-2.66316	-26.0664	13.1309
 227	1	2	-0.002904	-5.65605	-26.8836	14.6912
 228	1	3	0.041883	-5.85405	-27.4709	12.3137
 229	1	3	0.005012	-5.90425	-25.9941	11.8176
 230	1	3	-0.193804	-7.19481	-27.6021	13.0718
 231	1	3	0.042479	-6.95464	-26.3943	14.0059
 232	1	3	0.00144	-6.65296	-25.2475	12.9942
 233	1	3	-0.061914	-0.856984	-22.7601	13.1184
 234	1	3	-0.051146	-0.871762	-24.2936	13.1244
 235	1	5	0.024509	-0.348768	-17.8156	18.903
 236	1	5	0.045413	-2.29737	-18.9858	20.1314
 237	1	5	0.093061	3.64564	-19.6907	19.5641
 238	1	5	0.054925	3.82642	-18.2138	20.5314
 239	1	5	0.0564	2.77724	-18.2129	19.1064
 240	1	5	0.072515	-2.34627	-21.169	22.5
 241	1	5	0.098261	-1.2384	-21.7601	23.7511
 242	1	5	0.069746	-1.25867	-22.5278	22.1512
 243	1	5	0.056967	-3.20642	-19.5589	18.1726
 244	1	5	0.059195	-2.20243	-21.6783	19.601
 245	1	5	0.053458	1.08367	-19.697	17.5073
 246	1	5	0.063182	-1.26119	-18.3889	16.921
 247	1	5	0.018836	-0.258108	-21.9973	17.7847
 248	1	5	0.033342	0.459836	-21.5412	19.343
 249	1	4	0.15438	-3.62302	-22.8026	16.9966
 250	1	4	0.144555	0.0251515	-20.5157	14.4444
 251	1	5	0.03716	-4.63484	-28.6757	13.7147
 252	1	4	0.135836	-4.74485	-24.1851	15.9071
 253	1	4	0.135526	-2.18976	-26.5587	12.287
 254	1	5	0.041277	-5.85783	-27.5015	15.5733
 255	1	5	0.00856	-5.71395	-28.205	11.5105
 256	1	5	-0.004553	-4.944	-25.5459	11.5339
 257	1	5	0.042416	-7.28196	-28.5514	13.6189
 258	1	5	0.068411	-8.07559	-27.4945	12.4307
 259	1	5	0.009741	-7.78292	-26.1776	14.6919
 260	1	5	0.002304	-6.12388	-24.3726	13.3907
 261	1	5	0.050818	0.164007	-22.4075	12.9246
 262	1	5	0.045418	-1.47798	-22.4004	12.2879
 263	1	5	0.050853	-0.67317	-24.6623	12.1101
 264	1	5	0.040294	-0.05219	-24.656	13.758
 265	1	1	-0.162043	3.98683	-22.3822	36.7294
 266	1	1	-0.131368	3.06662	-24.9531	35.6092
 267	1	1	0.053767	4.19491	-23.6283	37.3475
 268	1	1	-0.089414	3.02699	-23.7341	34.907
 269	1	2	0.07683	2.71551	-21.6936	34.4097
 270	1	1	-0.043169	3.45842	-22.5279	35.4345
 271	1	1	0.067251	3.76599	-24.832	36.825
 272	1	2	0.019658	2.2187	-23.0782	33.8013
 273	1	3	-0.13357	4.17438	-21.0472	37.426
 274	1	3	-0.181622	2.32631	-26.2052	35.178
 275	1	2	-0.091671	1.89229	-22.0451	31.7414
 276	1	1	0.028189	2.3026	-21.4696	30.3975
 277	1	3	-0.001388	2.83957	-23.0995	32.3784
 278	1	3	0.000341	3.57297	-21.0735	33.2752
 279	1	2	-0.108264	2.39325	-20.6655	32.3528
 280	1	3	-0.051806	4.17312	-22.3185	32.5598
 281	1	1	0.038269	2.73779	-20.2853	30.9257
 282	1	1	0.012104	4.064	-19.877	28.9776
 283	1	1	0.009692	3.61521	-21.1135	28.4106
 284	1	1	-0.221685	2.7668	-21.9607	29.1765
 285	1	1	-0.227504	3.68511	-19.489	30.2845
 286	1	1	0.01292	4.0713	-21.5126	27.1248
 287	1	1	-0.039953	3.91729	-22.8865	25.1599
 288	1	2	0.00887	4.6428	-22.7271	23.1747
 289	1	1	-0.185129	3.40294	-22.5454	26.4105
 290	1	1	-0.021786	4.9477	-22.2108	24.5729
 291	1	1	0.017184	5.16337	-20.821	26.5045
 292	1	1	-0.198557	5.57638	-21.127	25.1842
 293	1	2	-0.002904	3.43261	-23.5013	23.8593
 294	1	3	0.041883	3.93149	-21.8256	22.1319
 295	1	3	0.005012	3.15122	-20.6755	22.831
 296	1	3	-0.193804	2.78858	-22.7815	21.7163
 297	1	3	0.042479	2.19119	-22.9192	23.1359
 298	1	3	0.00144	1.95457	-21.4315	23.5407
 299	1	3	-0.061914	4.96542	-18.9489	28.1802
 300	1	3	-0.051146	5.91203	-19.7427	27.2711
 301	1	5	0.024509	1.96859	-21.0092	34.8291
 302	1	5	0.045413	1.14569	-23.3018	33.8219
 303	1	5	0.093061	3.28732	-20.7885	38.0173
 304	1	5	0.054925	4.34475	-20.2422	36.7004
 305	1	5	0.0564	5.03616	-21.0752	38.1045
 306	1	5	0.072515	2.18015	-26.2244	34.091
 307	1	5	0.098261	1.33933	-26.257	35.654
 308	1	5	0.069746	2.88392	-27.1077	35.4579
 309	1	5	0.056967	0.824496	-22.276	31.8373
 310	1	5	0.059195	2.9022	-24.0756	31.8815
 311	1	5	0.053458	4.27524	-20.2815	33.5633
 312	1	5	0.063182	1.64043	-20.0266	32.8301
 313	1	5	0.018836	4.65694	-22.0719	31.6061
 314	1	5	0.033342	4.90157	-22.8569	33.1797
 315	1	4	0.15438	2.54287	-22.9806	28.8864
 316	1	4	0.144555	4.11649	-18.6226	30.7758
 317	1	5	0.03716	5.40215	-23.3714	22.7181
 318	1	4	0.135836	2.47852	-22.9946	26.7549
 319	1	4	0.135526	6.32576	-20.5408	24.6618
 320	1	5	0.041277	3.48393	-24.5934	23.7871
 321	1	5	0.00856	4.56784	-21.4909	21.3033
 322	1	5	-0.004553	3.72997	-20.0282	23.4993
 323	1	5	0.042416	3.15958	-23.7365	21.3186
 324	1	5	0.068411	2.09401	-22.3516	20.9836
 325	1	5	0.009741	1.29102	-23.544	23.1919
 326	1	5	0.002304	1.85452	-21.2248	24.6127
 327	1	5	0.050818	5.55456	-18.3029	28.8433
 328	1	5	0.045418	4.34339	-18.2876	27.5636
 329	1	5	0.050853	6.42577	-19.0532	26.5924
 330	1	5	0.040294	6.68818	-20.2149	27.8868
 331	1	1	-0.162043	-4.02464	-29.8773	47.4556
 332	1	1	-0.131368	-1.7994	-31.7447	47.1616
 333	1	1	0.053767	-3.36686	-30.4641	48.5487
 334	1	1	-0.089414	-2.63022	-31.3739	46.0815
 335	1	2	0.07683	-3.6079	-29.9992	44.7937
 336	1	1	-0.043169	-3.6794	-30.4731	46.229
 337	1	1	0.067251	-2.30591	-31.3377	48.4143
 338	1	2	0.019658	-2.43773	-31.0516	44.5998
 339	1	3	-0.13357	-4.86868	-28.6204	47.5674
 340	1	3	-0.181622	-0.426532	-32.3634	46.975
 341	1	2	-0.091671	-1.68344	-29.7939	42.7583
 342	1	1	0.028189	-0.939484	-28.6525	42.0764
 343	1	3	-0.001388	-1.21523	-30.184	44.1941
 344	1	3	0.000341	-2.91492	-28.6304	44.5611
 345	1	2	-0.108264	-2.82826	-28.7288	43.0206
 346	1	3	-0.051806	-1.44464	-28.8814	45.0064
 347	1	1	0.038269	-1.91784	-27.7255	42.3447
 348	1	1	0.012104	-0.272011	-25.9785	42.3807
 349	1	1	0.009692	0.735833	-26.9201	42.0076
 350	1	1	-0.221685	0.404889	-28.2987	41.9286
 351	1	1	-0.227504	-1.60632	-26.3882	42.5975
 352	1	1	0.01292	2.06849	-26.4815	41.7995
 353	1	1	-0.039953	4.24666	-26.7389	40.8312
 354	1	2	0.00887	5.86191	-25.4292	40.4327
 355	1	1	-0.185129	2.9629	-27.2548	41.0108
 356	1	1	-0.021786	4.64298	-25.533	41.3339
 357	1	1	0.017184	2.481	-25.201	42.2911
 358	1	1	-0.198557	3.7749	-24.6911	42.0272
 359	1	2	-0.002904	5.38682	-26.8225	39.8306
 360	1	3	0.041883	5.85392	-24.4945	39.1976
 361	1	3	0.005012	4.39747	-24.1885	38.7412
 362	1	3	-0.193804	6.32461	-25.5056	38.1252
 363	1	3	0.042479	5.15263	-26.4936	38.3342
 364	1	3	0.00144	3.90969	-25.5721	38.1437
 365	1	3	-0.061914	0.0815001	-24.5118	42.5702
 366	1	3	-0.051146	1.51295	-24.3591	43.1059
 367	1	5	0.024509	-4.52303	-30.1559	44.2104
 368	1	5	0.045413	-2.63328	-31.8862	43.9168
 369	1	5	0.093061	-4.23851	-27.7232	47.5349
 370	1	5	0.054925	-5.42958	-28.605	48.5103
 371	1	5	0.0564	-5.59338	-28.5557	46.7463
 372	1	5	0.072515	0.287067	-31.62	46.6036
 373	1	5	0.098261	-0.463592	-33.1871	46.2516
 374	1	5	0.069746	-0.0366533	-32.7635	47.9192
 375	1	5	0.056967	-1.93128	-30.6457	42.1139
 376	1	5	0.059195	-0.230494	-30.6577	44.2801
 377	1	5	0.053458	-3.41327	-27.7439	44.9718
 378	1	5	0.063182	-3.78994	-28.8869	42.5177
 379	1	5	0.018836	-0.759731	-28.0747	44.7203
 380	1	5	0.033342	-1.34705	-29.036	46.0827
 381	1	4	0.15438	1.16922	-29.0661	41.8671
 382	1	4	0.144555	-2.35102	-25.7086	42.9992
 383	1	5	0.03716	6.83757	-25.4536	40.9305
 384	1	4	0.135836	2.65304	-28.152	40.4859
 385	1	4	0.135526	4.0657	-23.6831	42.3056
 386	1	5	0.041277	6.09878	-27.6402	39.9587
 387	1	5	0.00856	6.48686	-23.6031	39.2906
 388	1	5	-0.004553	3.72858	-23.7503	39.4913
 389	1	5	0.042416	7.30045	-25.9518	38.3643
 390	1	5	0.068411	6.37841	-25.0873	37.1117
 391	1	5	0.009741	5.16756	-27.3633	37.6653
 392	1	5	0.002304	2.96103	-25.9381	38.5551
 393	1	5	0.050818	-0.618291	-24.0226	43.2594
 394	1	5	0.045418	-0.00182055	-23.9918	41.6072
 395	1	5	0.050853	1.79834	-23.2997	43.0913
 396	1	5	0.040294	1.54419	-24.6837	44.1544
 397	1	1	-0.162043	0.125024	-34.6208	62.2404
 398	1	1	-0.131368	2.46174	-33.7156	60.741
 399	1	1	0.053767	1.06676	-33.7135	62.7624
 400	1	1	-0.089414	1.6915	-34.8282	60.3521
 401	1	2	0.07683	-0.100587	-35.8424	59.8222
 402	1	1	-0.043169	0.563082	-35.2403	61.0522
 403	1	1	0.067251	2.1571	-33.2696	62.0406
 404	1	2	0.019658	1.19916	-35.3929	59.0314
 405	1	3	-0.13357	-1.2776	-34.7811	62.7979
 406	1	3	-0.181622	3.37623	-32.9715	59.785
 407	1	2	-0.091671	-0.00592262	-35.4066	57.0441
 408	1	1	0.028189	-0.936866	-34.8327	55.995
 409	1	3	-0.001388	0.675051	-34.3774	57.985
 410	1	3	0.000341	-1.23858	-35.0218	59.1503
 411	1	2	-0.108264	-1.31717	-35.8326	57.826
 412	1	3	-0.051806	-0.524148	-33.7102	58.7157
 413	1	1	0.038269	-2.07545	-35.1959	56.672
 414	1	1	0.012104	-3.28038	-33.3969	55.6342
 415	1	1	0.009692	-2.09356	-32.9891	54.9491
 416	1	1	-0.221685	-0.885727	-33.6988	55.1818
 417	1	1	-0.227504	-3.25664	-34.4596	56.5671
 418	1	1	0.01292	-2.09914	-31.8155	54.1469
 419	1	1	-0.039953	-1.06614	-30.3167	52.5874
 420	1	2	0.00887	-1.64141	-28.5723	51.5436
 421	1	1	-0.185129	-1.01663	-31.5332	53.2641
 422	1	1	-0.021786	-2.11754	-29.4588	52.6769
 423	1	1	0.017184	-3.20872	-30.9065	54.2196
 424	1	1	-0.198557	-3.25081	-29.7253	53.439
 425	1	2	-0.002904	-0.412346	-29.5816	51.43
 426	1	3	0.041883	-2.29772	-28.6693	50.1484
 427	1	3	0.005012	-2.98853	-30.0522	49.9569
 428	1	3	-0.193804	-1.0202	-28.8249	49.2941
 429	1	3	0.042479	-0.534982	-30.1197	49.9793
 430	1	3	0.00144	-1.77306	-31.0546	49.8159
 431	1	3	-0.061914	-4.58828	-32.66	55.4001
 432	1	3	-0.051146	-4.34882	-31.1589	55.1929
 433	1	5	0.024509	-0.296644	-36.9192	59.8834
 434	1	5	0.045413	1.82609	-36.1885	58.6121
 435	1	5	0.093061	-1.28138	-34.6845	63.8908
 436	1	5	0.054925	-1.69309	-35.7651	62.5475
 437	1	5	0.0564	-1.94898	-34.0161	62.3886
 438	1	5	0.072515	3.98191	-33.6708	59.1955
 439	1	5	0.098261	4.06066	-32.3058	60.3201
 440	1	5	0.069746	2.79353	-32.3576	59.0879
 441	1	5	0.056967	0.65221	-36.2092	56.6899
 442	1	5	0.059195	1.41397	-33.7069	57.5299
 443	1	5	0.053458	-2.17013	-34.9111	59.7187
 444	1	5	0.063182	-1.49387	-36.9064	57.9606
 445	1	5	0.018836	-1.1362	-33.0829	58.056
 446	1	5	0.033342	-0.211297	-33.0962	59.5648
 447	1	4	0.15438	0.0783238	-33.3214	54.8624
 448	1	4	0.144555	-4.10408	-34.6711	57.2114
 449	1	5	0.03716	-1.38207	-27.5442	51.8117
 450	1	4	0.135836	-0.205335	-32.2267	53.0757
 451	1	4	0.135526	-4.1066	-29.0574	53.44
 452	1	5	0.041277	0.569484	-29.137	51.6274
 453	1	5	0.00856	-2.92611	-27.8123	49.8761
 454	1	5	-0.004553	-3.73124	-30.3359	50.7128
 455	1	5	0.042416	-0.320082	-27.9904	49.4188
 456	1	5	0.068411	-1.21759	-28.9449	48.2268
 457	1	5	0.009741	0.391459	-30.534	49.5638
 458	1	5	0.002304	-1.8184	-31.9169	50.493
 459	1	5	0.050818	-5.28258	-32.8061	56.2372
 460	1	5	0.045418	-5.07676	-33.0722	54.5079
 461	1	5	0.050853	-5.27659	-30.6885	54.8432
 462	1	5	0.040294	-4.10401	-30.6979	56.1584
 463	1	1	-0.162043	14.1819	-29.1904	68.1631
 464	1	1	-0.131368	13.5869	-27.4333	65.9436
 465	1	1	0.053767	15.1883	-28.4687	67.4905
 466	1	1	-0.089414	12.5794	-28.0323	66.7168
 467	1	2	0.07683	11.6772	-29.7775	67.5189
 468	1	1	-0.043169	12.8625	-28.8671	67.7956
 469	1	1	0.067251	14.8972	-27.6234	66.4216
 470	1	2	0.019658	11.3729	-28.8478	66.2822
 471	1	3	-0.13357	14.4972	-30.4747	68.912
 472	1	3	-0.181622	13.322	-26.9447	64.5288
 473	1	2	-0.091671	9.17918	-29.5782	66.2736
 474	1	1	0.028189	7.72961	-29.6341	66.7113
 475	1	3	-0.001388	9.9649	-28.271	66.5744
 476	1	3	0.000341	10.4183	-29.6242	68.4157
 477	1	2	-0.108264	9.47558	-30.4944	67.5406
 478	1	3	-0.051806	9.94094	-28.174	68.1251
 479	1	1	0.038269	7.9855	-30.404	67.8086
 480	1	1	0.012104	5.67895	-31.0073	67.9477
 481	1	1	0.009692	5.39629	-30.2205	66.7808
 482	1	1	-0.221685	6.47325	-29.5712	66.1097
 483	1	1	-0.227504	7.00089	-31.1668	68.4292
 484	1	1	0.01292	4.06531	-30.1633	66.275
 485	1	1	-0.039953	2.46027	-29.6236	64.5725
 486	1	2	0.00887	0.423083	-30.085	64.2065
 487	1	1	-0.185129	3.7971	-29.6788	64.9621
 488	1	1	-0.021786	1.43743	-30.0928	65.3396
 489	1	1	0.017184	2.97577	-30.6505	67.0749
 490	1	1	-0.198557	1.64483	-30.6718	66.5881
 491	1	2	-0.002904	1.62799	-29.5589	63.3077
 492	1	3	0.041883	0.00482393	-31.3981	63.494
 493	1	3	0.005012	1.07141	-32.5131	63.6978
 494	1	3	-0.193804	0.262293	-30.9727	62.0315
 495	1	3	0.042479	1.76243	-30.6652	62.2331
 496	1	3	0.00144	2.30024	-31.9935	62.8504
 497	1	3	-0.061914	4.58816	-31.8491	68.5869
 498	1	3	-0.051146	3.2267	-31.1527	68.4865
 499	1	5	0.024509	11.9498	-30.8215	67.3228
 500	1	5	0.045413	11.4656	-29.2819	65.2802
 501	1	5	0.093061	15.4595	-30.4017	69.4342
 502	1	5	0.054925	14.5515	-31.3263	68.2223
 503	1	5	0.0564	13.7272	-30.6946	69.662
 504	1	5	0.072515	12.2486	-26.8175	64.3414
 505	1	5	0.098261	13.7144	-27.6503	63.7878
 506	1	5	0.069746	13.8062	-25.9756	64.3561
 507	1	5	0.056967	9.36525	-29.99	65.2752
 508	1	5	0.059195	9.672	-27.3738	66.0149
 509	1	5	0.053458	10.5231	-29.9112	69.4694
 510	1	5	0.063182	9.84078	-31.5152	67.3744
 511	1	5	0.018836	8.93937	-27.9665	68.5233
 512	1	5	0.033342	10.6318	-27.4145	68.5136
 513	1	4	0.15438	6.36599	-29.0448	65.1703
 514	1	4	0.144555	7.24882	-31.8876	69.2021
 515	1	5	0.03716	-0.413347	-29.3849	64.3096
 516	1	4	0.135836	4.56934	-29.4198	64.2492
 517	1	4	0.135526	0.829568	-31.12	67.1478
 518	1	5	0.041277	1.47693	-28.565	62.8736
 519	1	5	0.00856	-1.02298	-31.7238	63.6969
 520	1	5	-0.004553	1.31282	-32.7654	64.7377
 521	1	5	0.042416	-0.317784	-30.0865	61.7376
 522	1	5	0.068411	0.0685752	-31.7656	61.3029
 523	1	5	0.009741	2.28427	-30.3625	61.3219
 524	1	5	0.002304	3.24062	-31.9285	63.4103
 525	1	5	0.050818	4.81556	-32.0525	69.6412
 526	1	5	0.045418	4.53561	-32.8204	68.0785
 527	1	5	0.050853	2.43891	-31.8464	68.8066
 528	1	5	0.040294	3.20367	-30.3032	69.1811
 529	1	1	-0.162043	6.90391	-30.3606	61.117
 530	1	1	-0.131368	8.13238	-27.8282	60.3621
 531	1	1	0.053767	6.19097	-29.3249	60.4788
 532	1	1	-0.089414	8.87694	-28.9532	60.7528
 533	1	2	0.07683	9.45933	-30.5832	61.9809
 534	1	1	-0.043169	8.29987	-30.1719	61.0883
 535	1	1	0.067251	6.78039	-28.1244	60.1187
 536	1	2	0.019658	10.0962	-29.1759	61.6246
 537	1	3	-0.13357	6.24223	-31.4412	61.9552
 538	1	3	-0.181622	8.68035	-26.4135	60.4117
 539	1	2	-0.091671	12.1839	-29.9953	62.1656
 540	1	1	0.028189	13.5004	-30.7131	61.9524
 541	1	3	-0.001388	11.418	-29.5303	60.8995
 542	1	3	0.000341	10.481	-31.6037	61.3966
 543	1	2	-0.108264	11.5715	-31.4176	62.486
 544	1	3	-0.051806	11.0798	-30.8603	60.17
 545	1	1	0.038269	12.9685	-31.9559	62.21
 546	1	1	0.012104	15.0855	-32.6848	63.0888
 547	1	1	0.009692	15.627	-31.3756	62.9076
 548	1	1	-0.221685	14.8003	-30.3719	62.3315
 549	1	1	-0.227504	13.7268	-32.9617	62.8105
 550	1	1	0.01292	16.8601	-31.0265	63.5351
 551	1	1	-0.039953	18.4092	-29.2998	64.2445
 552	1	2	0.00887	18.9629	-28.874	66.2489
 553	1	1	-0.185129	17.4499	-29.7469	63.3293
 554	1	1	-0.021786	18.7796	-30.0683	65.3234
 555	1	1	0.017184	17.3671	-31.8648	64.58
 556	1	1	-0.198557	18.3007	-31.3646	65.5142
 557	1	2	-0.002904	18.5845	-27.9815	64.9987
 558	1	3	0.041883	17.86	-28.498	67.2845
 559	1	3	0.005012	16.4522	-29.0093	66.8367
 560	1	3	-0.193804	17.7555	-26.9863	66.9844
 561	1	3	0.042479	17.3566	-27.1679	65.503
 562	1	3	0.00144	16.1047	-28.0778	65.6277
 563	1	3	-0.061914	15.9418	-33.7644	63.7221
 564	1	3	-0.051146	16.7032	-33.1904	64.9213
 565	1	5	0.024509	9.18409	-30.7833	63.0223
 566	1	5	0.045413	10.2153	-28.4391	62.4281
 567	1	5	0.093061	5.18709	-31.2118	62.1437
 568	1	5	0.054925	6.733	-31.5414	62.9314
 569	1	5	0.0564	6.2946	-32.4145	61.4521
 570	1	5	0.072515	8.51166	-25.9638	61.398
 571	1	5	0.098261	8.19604	-25.7757	59.6617
 572	1	5	0.069746	9.75946	-26.4007	60.2141
 573	1	5	0.056967	12.2043	-29.2496	62.9669
 574	1	5	0.059195	11.8811	-28.7369	60.2996
 575	1	5	0.053458	10.1184	-32.6253	61.2281
 576	1	5	0.063182	11.21	-31.6109	63.5034
 577	1	5	0.018836	11.9681	-31.359	59.7615
 578	1	5	0.033342	10.3542	-30.7281	59.3569
 579	1	4	0.15438	15.0564	-29.322	62.3617
 580	1	4	0.144555	13.261	-33.8858	63.138
 581	1	5	0.03716	19.9731	-28.7133	66.6414
 582	1	4	0.135836	17.0577	-29.0366	62.6133
 583	1	4	0.135526	18.4901	-31.8918	66.4445
 584	1	5	0.041277	19.3865	-27.3273	64.6396
 585	1	5	0.00856	18.1075	-28.7377	68.3261
 586	1	5	-0.004553	16.3767	-30.0781	66.6165
 587	1	5	0.042416	18.7142	-26.4624	67.1037
 588	1	5	0.068411	16.9975	-26.4683	67.5868
 589	1	5	0.009741	17.1709	-26.2306	64.9639
 590	1	5	0.002304	15.7926	-28.5989	64.7219
 591	1	5	0.050818	16.6595	-34.1394	62.9812
 592	1	5	0.045418	15.3383	-34.6224	64.0444
 593	1	5	0.050853	16.0015	-33.038	65.7516
 594	1	5	0.040294	17.4482	-33.9202	65.2631
 595	1	1	-0.162043	0.487247	-25.8488	47.4058
 596	1	1	-0.131368	3.12668	-26.0321	48.5166
 597	1	1	0.053767	1.33549	-26.9254	47.0847
 598	1	1	-0.089414	2.32462	-24.8914	48.6816
 599	1	2	0.07683	0.51007	-24.0301	49.3624
 600	1	1	-0.043169	1.03723	-24.8432	48.198
 601	1	1	0.067251	2.6211	-27.0739	47.6834
 602	1	2	0.019658	2.00542	-23.9991	49.8776
 603	1	3	-0.13357	-0.96876	-25.8196	46.9693
 604	1	3	-0.181622	4.42321	-26.15	49.3088
 605	1	2	-0.091671	1.1871	-23.5453	52.0219
 606	1	1	0.028189	0.651029	-23.9086	53.3929
 607	1	3	-0.001388	1.94699	-24.6778	51.2678
 608	1	3	0.000341	-0.236508	-24.8341	50.4717
 609	1	2	-0.108264	-0.307706	-23.6972	51.5195
 610	1	3	-0.051806	0.86216	-25.7695	51.0609
 611	1	1	0.038269	-0.636773	-24.0966	52.9502
 612	1	1	0.012104	-0.984993	-25.7401	54.6754
 613	1	1	0.009692	0.328733	-25.4939	55.1802
 614	1	1	-0.221685	1.18444	-24.6106	54.4739
 615	1	1	-0.227504	-1.45882	-25.0752	53.5189
 616	1	1	0.01292	0.801315	-26.2006	56.3174
 617	1	1	-0.039953	2.27968	-26.4462	58.1792
 618	1	2	0.00887	2.64423	-27.8929	59.6758
 619	1	1	-0.185129	1.9419	-25.7351	57.032
 620	1	1	-0.021786	1.66245	-27.5974	58.5548
 621	1	1	0.017184	0.1218	-27.3888	56.7514
 622	1	1	-0.198557	0.584671	-28.143	57.8611
 623	1	2	-0.002904	3.34925	-26.5289	59.2499
 624	1	3	0.041883	3.76981	-28.9361	59.4471
 625	1	3	0.005012	4.80049	-28.7154	60.595
 626	1	3	-0.193804	4.52002	-28.3659	58.2212
 627	1	3	0.042479	4.77237	-26.9777	58.8528
 628	1	3	0.00144	5.48169	-27.3475	60.1855
 629	1	3	-0.061914	-1.88209	-26.7587	55.362
 630	1	3	-0.051146	-1.05525	-27.9173	55.9456
 631	1	5	0.024509	0.0509021	-23.0705	49.097
 632	1	5	0.045413	2.51327	-23.0277	49.8782
 633	1	5	0.093061	-1.46326	-24.8919	47.2823
 634	1	5	0.054925	-1.52972	-26.6581	47.3976
 635	1	5	0.0564	-1.04809	-25.8835	45.8768
 636	1	5	0.072515	5.24629	-26.5059	48.677
 637	1	5	0.098261	4.3098	-26.8459	50.1493
 638	1	5	0.069746	4.72891	-25.1797	49.7197
 639	1	5	0.056967	1.6454	-22.5523	51.943
 640	1	5	0.059195	2.90082	-25.0067	51.698