pySIMM System Object

1888 atoms
2204 bonds
4536 angles
8308 dihedrals
224 impropers

5 atom types
9 bond types
18 angle types
19 dihedral types
2 improper types

-173.102884 173.102884 xlo xhi
-173.102884 173.102884 ylo yhi
-173.102884 173.102884 zlo zhi

Masses

   1	12.01	# ca
   2	12.01	# cy
   3	12.01	# c3
   4	1.008	# ha
   5	1.008	# hc

Pair Coeffs

   1	0.086	3.3996695084235347	# ca
   2	0.086	3.3996695084235347	# cy
   3	0.1094	3.3996695084235347	# c3
   4	0.015	2.59964245953351	# ha
   5	0.0157	2.649532787749369	# hc

Bond Coeffs

   1	461.1	1.3984	# ca,ca
   2	300.9	1.5375	# c3,c3
   3	305.9	1.5319	# c3,cy
   4	345.8	1.086	# ca,ha
   5	321.0	1.5156	# c3,ca
   6	285.0	1.5562	# cy,cy
   7	333.3	1.0949	# cy,hc
   8	330.6	1.0969	# c3,hc
   9	321.2	1.5154	# ca,cy

Angle Coeffs

   1	67.9	96.03	# cy,c3,cy
   2	45.97	114.53	# ca,cy,hc
   3	66.62	120.02	# ca,ca,ca
   4	61.4	116.81	# ca,cy,cy
   5	44.83	114.79	# cy,cy,hc
   6	46.43	110.14	# c3,cy,hc
   7	62.86	111.51	# c3,c3,c3
   8	63.15	112.07	# c3,c3,ca
   9	46.34	109.8	# c3,c3,hc
  10	48.18	119.88	# ca,ca,ha
  11	39.4	107.58	# hc,c3,hc
  12	63.53	120.77	# c3,ca,ca
  13	60.66	118.7	# c3,cy,cy
  14	63.51	120.86	# ca,ca,cy
  15	62.73	112.39	# c3,c3,cy
  16	46.29	110.75	# cy,c3,hc
  17	46.8	110.47	# ca,c3,hc
  18	62.8	113.57	# c3,cy,ca

Dihedral Coeffs

   1	3	0.18	3	0.0	0.25	2	180.0	0.2	1	180.0	# c3,c3,cy,cy
   2	1	0.16	3	0.0	# hc,c3,cy,cy
   3	1	0.16	3	0.0	# cy,c3,cy,hc
   4	1	0.16	3	0.0	# c3,c3,cy,hc
   5	1	0.15	3	0.0	# hc,c3,cy,hc
   6	1	3.625	2	180	# X,ca,ca,X
   7	1	0.15555555555555556	3	0	# X,cy,cy,X
   8	3	0.18	3	0	0.25	2	180	0.2	1	180	# c3,c3,c3,c3
   9	1	0.16	3	0	# hc,c3,c3,c3
  10	1	0.0	2	0.0	# ca,ca,cy,cy
  11	1	0.0	2	0.0	# ca,ca,cy,c3
  12	1	0.0	2	0	# X,c3,ca,X
  13	1	0.15555555555555556	3	0	# X,c3,c3,X
  14	3	0.38	3	180.0	0.0	2	0.0	1.15	1	0.0	# ca,ca,cy,hc
  15	3	0.18	3	0.0	0.25	2	180.0	0.2	1	180.0	# cy,c3,cy,cy
  16	1	0.16	3	0.0	# cy,c3,cy,ca
  17	1	0.16	3	0.0	# c3,c3,cy,ca
  18	1	0.16	3	0.0	# hc,c3,cy,ca
  19	1	0.15	3	0	# hc,c3,c3,hc

Improper Coeffs

   1	1.1	-1	2	# ca,ca,ca,c3
   2	1.1	-1	2	# ca,X,X,ha

Atoms

   1	1	1	-0.162043	-4.09285	9.68612	-36.2174
   2	1	1	-0.131368	-3.12403	7.27499	-34.8212
   3	1	1	0.053767	-4.59098	9.24438	-34.9774
   4	1	1	-0.089414	-2.50329	7.82277	-35.9575
   5	1	2	0.07683	-2.18084	8.65783	-37.8818
   6	1	1	-0.043169	-2.95598	8.95685	-36.612
   7	1	1	0.067251	-4.13423	8.1177	-34.3226
   8	1	2	0.019658	-1.66364	7.35349	-37.1304
   9	1	3	-0.13357	-4.78114	10.7202	-37.0889
  10	1	3	-0.181622	-2.84121	5.88221	-34.29
  11	1	2	-0.091671	0.209068	7.30421	-38.506
  12	1	1	0.028189	1.59231	7.71126	-38.9796
  13	1	3	-0.001388	-0.131851	7.57282	-37.0149
  14	1	3	0.000341	-0.889446	9.48673	-38.1147
  15	1	2	-0.108264	-0.305345	8.60886	-39.2547
  16	1	3	-0.051806	-0.00230254	9.11847	-36.8902
  17	1	1	0.038269	1.14926	8.83544	-39.6207
  18	1	1	0.012104	3.35163	9.76674	-39.5559
  19	1	1	0.009692	3.82915	8.59776	-38.8792
  20	1	1	-0.221685	2.90435	7.57708	-38.5232
  21	1	1	-0.227504	1.97956	9.92848	-39.8617
  22	1	1	0.01292	5.19856	8.49923	-38.5095
  23	1	1	-0.039953	7.10244	7.24228	-37.7561
  24	1	2	0.00887	9.19509	7.5561	-37.7683
  25	1	1	-0.185129	5.7574	7.24731	-38.1253
  26	1	1	-0.021786	7.89952	8.34421	-37.85
  27	1	1	0.017184	6.0463	9.65375	-38.5882
  28	1	1	-0.198557	7.43329	9.57208	-38.3137
  29	1	2	-0.002904	8.26792	6.27227	-37.6622
  30	1	3	0.041883	10.0278	7.27407	-39.0438
  31	1	3	0.005012	9.17365	7.33707	-40.3394
  32	1	3	-0.193804	10.2074	5.74711	-38.9204
  33	1	3	0.042479	8.69737	5.43418	-38.892
  34	1	3	0.00144	8.26609	6.08278	-40.2355
  35	1	3	-0.061914	4.31649	10.8676	-39.9646
  36	1	3	-0.051146	5.46398	11.0084	-38.9566
  37	1	5	0.024509	-2.79826	8.53361	-38.7793
  38	1	5	0.045413	-1.94438	6.37327	-37.5332
  39	1	5	0.093061	-5.52281	10.2463	-37.7438
  40	1	5	0.054925	-4.05731	11.2477	-37.7225
  41	1	5	0.0564	-5.29991	11.4691	-36.4775
  42	1	5	0.072515	-2.98376	5.83819	-33.203
  43	1	5	0.098261	-1.80929	5.57896	-34.5056
  44	1	5	0.069746	-3.51336	5.14668	-34.749
  45	1	5	0.056967	-0.142245	6.33754	-38.8867
  46	1	5	0.059195	0.398704	6.96994	-36.2674
  47	1	5	0.053458	-1.02008	10.5549	-38.3276
  48	1	5	0.063182	-0.977956	8.46341	-40.1086
  49	1	5	0.018836	1.03244	9.46999	-36.9903
  50	1	5	0.033342	-0.40062	9.5048	-35.9431
  51	1	4	0.15438	3.16028	6.76204	-37.8566
  52	1	4	0.144555	1.58289	10.8599	-40.2532
  53	1	5	0.03716	9.82538	7.7432	-36.8919
  54	1	4	0.135836	5.21123	6.3133	-38.1894
  55	1	4	0.135526	8.10471	10.4109	-38.4698
  56	1	5	0.041277	8.36184	5.7132	-36.7246
  57	1	5	0.00856	10.9667	7.83821	-39.1085
  58	1	5	-0.004553	8.59938	8.2662	-40.4306
  59	1	5	0.042416	10.7231	5.45038	-37.9966
  60	1	5	0.068411	10.7222	5.30335	-39.7842
  61	1	5	0.009741	8.45579	4.36609	-38.8219
  62	1	5	0.002304	7.1991	6.33114	-40.2697
  63	1	5	0.050818	3.79951	11.8305	-40.0632
  64	1	5	0.045418	4.73336	10.6295	-40.9515
  65	1	5	0.050853	6.23403	11.6703	-39.3728
  66	1	5	0.040294	5.08593	11.4947	-38.0482
  67	1	1	-0.162043	-14.9571	-1.05398	-31.8424
  68	1	1	-0.131368	-13.2034	-0.798049	-29.4502
  69	1	1	0.053767	-15.338	-1.40097	-30.5317
  70	1	1	-0.089414	-12.8425	-0.401122	-30.7492
  71	1	2	0.07683	-12.5802	-0.0580306	-32.8271
  72	1	1	-0.043169	-13.6566	-0.516245	-31.8602
  73	1	1	0.067251	-14.5258	-1.27741	-29.4243
  74	1	2	0.019658	-11.642	0.0731214	-31.5424
  75	1	3	-0.13357	-15.8052	-1.28853	-33.0784
  76	1	3	-0.181622	-12.2681	-0.780853	-28.2559
  77	1	2	-0.091671	-10.3182	1.61416	-32.6604
  78	1	1	0.028189	-9.93573	2.9744	-33.211
  79	1	3	-0.001388	-11.3164	1.5882	-31.4725
  80	1	3	0.000341	-12.6837	1.39763	-33.3565
  81	1	2	-0.108264	-11.2487	1.48496	-33.9455
  82	1	3	-0.051806	-12.5922	2.25634	-32.0618
  83	1	1	0.038269	-10.7326	2.86321	-34.3137
  84	1	1	0.012104	-10.5963	5.21945	-34.6785
  85	1	1	0.009692	-9.77255	5.35475	-33.5123
  86	1	1	-0.221685	-9.49555	4.20381	-32.7217
  87	1	1	-0.227504	-11.1552	3.971	-35.0444
  88	1	1	0.01292	-9.28314	6.63473	-33.1309
  89	1	1	-0.039953	-7.821	8.04592	-31.8455
  90	1	2	0.00887	-7.12723	10.0374	-32.0512
  91	1	1	-0.185129	-8.2391	6.75566	-32.1705
  92	1	1	-0.021786	-8.28417	9.15549	-32.4899
  93	1	1	0.017184	-9.78719	7.81486	-33.7714
  94	1	1	-0.198557	-9.23871	9.09254	-33.5024
  95	1	2	-0.002904	-6.58775	8.74326	-31.2979
  96	1	3	0.041883	-5.97255	10.3722	-33.0319
  97	1	3	0.005012	-5.87702	9.31476	-34.1727
  98	1	3	-0.193804	-4.77372	9.98593	-32.1334
  99	1	3	0.042479	-5.20099	8.51067	-31.9482
 100	1	3	0.00144	-5.34906	8.02464	-33.4208
 101	1	3	-0.061914	-10.8757	6.41924	-35.5687
 102	1	3	-0.051146	-10.9394	7.71899	-34.7576
 103	1	5	0.024509	-12.3058	-0.794444	-33.5916
 104	1	5	0.045413	-10.7634	-0.579476	-31.4777
 105	1	5	0.093061	-15.7436	-0.434801	-33.7645
 106	1	5	0.054925	-16.8606	-1.4306	-32.8142
 107	1	5	0.0564	-15.4689	-2.18221	-33.6183
 108	1	5	0.072515	-11.7364	-1.73601	-28.1646
 109	1	5	0.098261	-12.8211	-0.611356	-27.3237
 110	1	5	0.069746	-11.5196	0.0153287	-28.3518
 111	1	5	0.056967	-9.48594	0.905379	-32.5718
 112	1	5	0.059195	-10.9547	1.97258	-30.5107
 113	1	5	0.053458	-13.5145	1.6174	-34.0383
 114	1	5	0.063182	-11.0017	0.694221	-34.6642
 115	1	5	0.018836	-12.4571	3.32586	-32.2678
 116	1	5	0.033342	-13.4702	2.14359	-31.4127
 117	1	4	0.15438	-9.02306	4.25596	-31.7483
 118	1	4	0.144555	-11.8733	3.87327	-35.8524
 119	1	5	0.03716	-7.37743	10.8805	-31.398
 120	1	4	0.135836	-7.71021	5.90248	-31.7627
 121	1	4	0.135526	-9.5281	9.97598	-34.0632
 122	1	5	0.041277	-6.52574	8.83725	-30.2081
 123	1	5	0.00856	-5.9571	11.4102	-33.3871
 124	1	5	-0.004553	-6.78282	9.1567	-34.7707
 125	1	5	0.042416	-4.75817	10.5438	-31.1866
 126	1	5	0.068411	-3.79647	10.1084	-32.6187
 127	1	5	0.009741	-4.50675	7.9081	-31.3492
 128	1	5	0.002304	-5.94857	7.12104	-33.583
 129	1	5	0.050818	-11.8142	6.29058	-36.1226
 130	1	5	0.045418	-10.0762	6.50282	-36.3159
 131	1	5	0.050853	-10.9461	8.57549	-35.4436
 132	1	5	0.040294	-11.8867	7.74974	-34.2042
 133	1	1	-0.162043	-13.6804	-13.0492	-21.2181
 134	1	1	-0.131368	-13.8487	-10.6127	-19.6302
 135	1	1	0.053767	-13.7643	-13.0584	-19.8117
 136	1	1	-0.089414	-14.0139	-10.6262	-21.0246
 137	1	2	0.07683	-13.4478	-11.0534	-23.026
 138	1	1	-0.043169	-13.9397	-11.7867	-21.7868
 139	1	1	0.067251	-13.8425	-11.8971	-19.0613
 140	1	2	0.019658	-13.5244	-9.73661	-22.1479
 141	1	3	-0.13357	-13.1261	-14.2127	-22.0208
 142	1	3	-0.181622	-13.4636	-9.36429	-18.8575
 143	1	2	-0.091671	-13.7034	-8.4511	-24.0576
 144	1	1	0.028189	-14.4004	-7.81111	-25.2385
 145	1	3	-0.001388	-14.5923	-8.86731	-22.8574
 146	1	3	0.000341	-14.4791	-10.7985	-24.1612
 147	1	2	-0.108264	-13.6332	-9.76464	-24.9576
 148	1	3	-0.051806	-15.5602	-9.91939	-23.4705
 149	1	1	0.038269	-14.3425	-8.93104	-26.0109
 150	1	1	0.012104	-15.8836	-7.96737	-27.5559
 151	1	1	0.009692	-15.9747	-6.7922	-26.7357
 152	1	1	-0.221685	-15.2566	-6.74637	-25.507
 153	1	1	-0.227504	-15.1167	-9.09134	-27.1571
 154	1	1	0.01292	-16.7951	-5.70153	-27.1386
 155	1	1	-0.039953	-17.5235	-3.41635	-26.9505
 156	1	2	0.00887	-18.5027	-2.06275	-28.2544
 157	1	1	-0.185129	-16.6826	-4.43343	-26.5005
 158	1	1	-0.021786	-18.334	-3.55832	-28.0384
 159	1	1	0.017184	-17.6902	-5.84876	-28.2494
 160	1	1	-0.198557	-18.4217	-4.74762	-28.7589
 161	1	2	-0.002904	-17.5592	-1.89868	-26.9832
 162	1	3	0.041883	-17.7097	-1.32739	-29.3678
 163	1	3	0.005012	-16.4357	-2.12752	-29.774
 164	1	3	-0.193804	-17.1118	-0.177867	-28.5221
 165	1	3	0.042479	-16.3539	-1.09967	-27.5379
 166	1	3	0.00144	-15.5001	-1.97782	-28.5003
 167	1	3	-0.061914	-16.5789	-8.01909	-28.9066
 168	1	3	-0.051146	-17.8792	-7.20595	-28.9069
 169	1	5	0.024509	-12.4663	-11.3799	-23.3894
 170	1	5	0.045413	-12.5928	-9.20218	-21.9268
 171	1	5	0.093061	-13.6879	-14.3494	-22.953
 172	1	5	0.054925	-13.1842	-15.1509	-21.4547
 173	1	5	0.0564	-12.0742	-14.0411	-22.281
 174	1	5	0.072515	-13.8134	-9.41928	-17.819
 175	1	5	0.098261	-13.9034	-8.46761	-19.3114
 176	1	5	0.069746	-12.3741	-9.23672	-18.8408
 177	1	5	0.056967	-12.7518	-7.98104	-23.7811
 178	1	5	0.059195	-15.0443	-8.05926	-22.2689
 179	1	5	0.053458	-14.8348	-11.678	-24.7122
 180	1	5	0.063182	-12.6367	-10.1197	-25.2468
 181	1	5	0.018836	-16.2719	-9.48105	-24.1819
 182	1	5	0.033342	-16.1309	-10.467	-22.7093
 183	1	4	0.15438	-15.3798	-5.95991	-24.773
 184	1	4	0.144555	-15.1131	-10.0208	-27.7176
 185	1	5	0.03716	-19.5156	-1.6637	-28.1309
 186	1	4	0.135836	-15.9248	-4.20775	-25.7604
 187	1	4	0.135526	-19.0072	-4.81475	-29.6708
 188	1	5	0.041277	-18.0258	-1.40472	-26.1237
 189	1	5	0.00856	-18.3148	-0.994985	-30.2205
 190	1	5	-0.004553	-16.5931	-3.16097	-30.1059
 191	1	5	0.042416	-17.8836	0.426844	-28.0254
 192	1	5	0.068411	-16.4591	0.498661	-29.0894
 193	1	5	0.009741	-15.7647	-0.569094	-26.7796
 194	1	5	0.002304	-15.1175	-2.9227	-28.097
 195	1	5	0.050818	-16.798	-9.05404	-29.1984
 196	1	5	0.045418	-15.9034	-7.61202	-29.67
 197	1	5	0.050853	-18.2403	-7.09949	-29.9377
 198	1	5	0.040294	-18.6495	-7.76338	-28.3587
 199	1	1	-0.162043	-1.73187	-8.61704	-12.2993
 200	1	1	-0.131368	-4.08971	-7.72166	-10.8325
 201	1	1	0.053767	-1.66309	-8.06112	-11.0069
 202	1	1	-0.089414	-4.1687	-8.51621	-11.9894
 203	1	2	0.07683	-3.78737	-8.97887	-14.0273
 204	1	1	-0.043169	-3.04636	-8.92509	-12.6998
 205	1	1	0.067251	-2.78257	-7.61611	-10.3262
 206	1	2	0.019658	-5.06956	-8.5329	-13.2077
 207	1	3	-0.13357	-0.545658	-8.66424	-13.2454
 208	1	3	-0.181622	-5.24815	-6.88377	-10.3234
 209	1	2	-0.091671	-6.45667	-9.47352	-14.8054
 210	1	1	0.028189	-7.17198	-10.589	-15.5433
 211	1	3	-0.001388	-6.03634	-9.74131	-13.3382
 212	1	3	0.000341	-4.16488	-10.3804	-14.5762
 213	1	2	-0.108264	-5.17472	-9.89364	-15.6554
 214	1	3	-0.051806	-5.07872	-10.9611	-13.4596
 215	1	1	0.038269	-6.08209	-10.9353	-16.2808
 216	1	1	0.012104	-7.18859	-12.901	-17.0435
 217	1	1	0.009692	-8.32777	-12.5808	-16.228
 218	1	1	-0.221685	-8.28941	-11.4122	-15.4119
 219	1	1	-0.227504	-6.01135	-12.113	-17.017
 220	1	1	0.01292	-9.46742	-13.4359	-16.2318
 221	1	1	-0.039953	-11.7704	-13.9115	-15.7038
 222	1	2	0.00887	-13.2198	-15.2195	-16.5307
 223	1	1	-0.185129	-10.6986	-13.0185	-15.6482
 224	1	1	-0.021786	-11.7125	-15.0809	-16.4047
 225	1	1	0.017184	-9.40811	-14.7039	-16.9001
 226	1	1	-0.198557	-10.5616	-15.5086	-17.0611
 227	1	2	-0.002904	-13.2909	-13.8672	-15.6957
 228	1	3	0.041883	-13.9372	-14.8432	-17.8562
 229	1	3	0.005012	-13.0849	-13.8431	-18.6983
 230	1	3	-0.193804	-15.0371	-13.9221	-17.2786
 231	1	3	0.042479	-14.0562	-12.9099	-16.6421
 232	1	3	0.00144	-13.1677	-12.5132	-17.8544
 233	1	3	-0.061914	-7.23129	-14.0764	-18.0053
 234	1	3	-0.051146	-8.09374	-15.219	-17.4612
 235	1	5	0.024509	-3.39667	-8.2988	-14.7935
 236	1	5	0.045413	-5.53046	-7.56681	-13.4451
 237	1	5	0.093061	0.385868	-8.86375	-12.7011
 238	1	5	0.054925	-0.430231	-7.70964	-13.7736
 239	1	5	0.0564	-0.669864	-9.45402	-13.9968
 240	1	5	0.072515	-5.16896	-6.71628	-9.24197
 241	1	5	0.098261	-6.20793	-7.37895	-10.5159
 242	1	5	0.069746	-5.26683	-5.90417	-10.8168
 243	1	5	0.056967	-6.86923	-8.47308	-14.9839
 244	1	5	0.059195	-6.84172	-9.81447	-12.5968
 245	1	5	0.053458	-3.33829	-11.0149	-14.9193
 246	1	5	0.063182	-4.77211	-9.1525	-16.3564
 247	1	5	0.018836	-5.59444	-11.8802	-13.7664
 248	1	5	0.033342	-4.53467	-11.1686	-12.5292
 249	1	4	0.15438	-9.0547	-11.1639	-14.6875
 250	1	4	0.144555	-5.11135	-12.3918	-17.5559
 251	1	5	0.03716	-13.6733	-16.0884	-16.0413
 252	1	4	0.135836	-10.8601	-12.0214	-15.2581
 253	1	4	0.135526	-10.562	-16.4016	-17.6785
 254	1	5	0.041277	-13.7737	-13.9559	-14.7162
 255	1	5	0.00856	-14.3167	-15.6967	-18.4318
 256	1	5	-0.004553	-12.0644	-14.1617	-18.9435
 257	1	5	0.042416	-15.6649	-14.4289	-16.5323
 258	1	5	0.068411	-15.6947	-13.4844	-18.0411
 259	1	5	0.009741	-14.5381	-12.0582	-16.146
 260	1	5	0.002304	-12.1989	-12.0559	-17.6232
 261	1	5	0.050818	-6.2221	-14.4521	-18.2168
 262	1	5	0.045418	-7.64944	-13.7382	-18.9622
 263	1	5	0.050853	-8.2633	-15.9559	-18.2565
 264	1	5	0.040294	-7.54305	-15.7351	-16.6644
 265	1	1	-0.162043	-2.72188	6.35518	-10.8484
 266	1	1	-0.131368	-3.69616	5.70439	-8.15785
 267	1	1	0.053767	-2.61056	7.21684	-9.74588
 268	1	1	-0.089414	-3.98177	4.92521	-9.29822
 269	1	2	0.07683	-3.74254	3.85768	-11.114
 270	1	1	-0.043169	-3.56183	5.26015	-10.5785
 271	1	1	0.067251	-3.11288	6.94397	-8.49093
 272	1	2	0.019658	-4.19619	3.45615	-9.64435
 273	1	3	-0.13357	-1.92245	6.51503	-12.1285
 274	1	3	-0.181622	-3.86816	5.2072	-6.73483
 275	1	2	-0.091671	-3.59387	1.23666	-10.0849
 276	1	1	0.028189	-2.64744	0.0609125	-10.2983
 277	1	3	-0.001388	-3.11198	2.42656	-9.20225
 278	1	3	0.000341	-2.45561	3.03514	-11.3582
 279	1	2	-0.108264	-3.16564	1.67391	-11.5587
 280	1	3	-0.051806	-1.8325	2.91694	-9.93769
 281	1	1	0.038269	-2.28677	0.447436	-11.551
 282	1	1	0.012104	-0.583129	-1.206	-11.6192
 283	1	1	0.009692	-0.9733	-1.6607	-10.3122
 284	1	1	-0.221685	-2.00445	-0.968317	-9.60792
 285	1	1	-0.227504	-1.21589	-0.104482	-12.2416
 286	1	1	0.01292	-0.327798	-2.79578	-9.74464
 287	1	1	-0.039953	-0.245653	-4.63991	-8.19617
 288	1	2	0.00887	0.721023	-6.52522	-8.23802
 289	1	1	-0.185129	-0.917592	-3.50475	-8.659
 290	1	1	-0.021786	0.874577	-5.12831	-8.80697
 291	1	1	0.017184	0.870704	-3.30538	-10.3449
 292	1	1	-0.198557	1.45179	-4.52159	-9.91831
 293	1	2	-0.002904	-0.57312	-5.95911	-7.50707
 294	1	3	0.041883	0.153111	-7.66814	-9.12088
 295	1	3	0.005012	-0.726605	-7.10675	-10.2834
 296	1	3	-0.193804	-0.91153	-8.21004	-8.13923
 297	1	3	0.042479	-1.70048	-6.8831	-8.03759
 298	1	3	0.00144	-2.01034	-6.5808	-9.53029
 299	1	3	-0.061914	0.483754	-1.94097	-12.4128
 300	1	3	-0.051146	1.53522	-2.55507	-11.485
 301	1	5	0.024509	-4.49375	3.77281	-11.9083
 302	1	5	0.045413	-5.22661	3.10188	-9.52488
 303	1	5	0.093061	-1.74784	7.57432	-12.3551
 304	1	5	0.054925	-2.45046	6.07263	-12.9823
 305	1	5	0.0564	-0.945938	6.02286	-12.0414
 306	1	5	0.072515	-2.97265	4.66919	-6.40024
 307	1	5	0.098261	-4.72314	4.52443	-6.65619
 308	1	5	0.069746	-4.0399	6.04097	-6.04265
 309	1	5	0.056967	-4.6433	0.958938	-9.93
 310	1	5	0.059195	-3.01955	2.23846	-8.12541
 311	1	5	0.053458	-1.79536	3.37485	-12.1656
 312	1	5	0.063182	-3.94282	1.66974	-12.3327
 313	1	5	0.018836	-1.01033	2.19128	-9.89185
 314	1	5	0.033342	-1.46388	3.8764	-9.55347
 315	1	4	0.15438	-2.27217	-1.18847	-8.58121
 316	1	4	0.144555	-0.904263	0.278369	-13.2083
 317	1	5	0.03716	1.51655	-6.86982	-7.56807
 318	1	4	0.135836	-1.90076	-3.26622	-8.27043
 319	1	4	0.135526	2.27704	-4.98501	-10.4502
 320	1	5	0.041277	-0.519112	-5.95986	-6.41282
 321	1	5	0.00856	0.893516	-8.41094	-9.44323
 322	1	5	-0.004553	-0.252499	-6.37171	-10.9447
 323	1	5	0.042416	-0.481153	-8.52064	-7.17674
 324	1	5	0.068411	-1.49782	-9.04784	-8.53899
 325	1	5	0.009741	-2.59275	-6.93336	-7.40107
 326	1	5	0.002304	-2.28988	-5.54834	-9.77104
 327	1	5	0.050818	0.977743	-1.26971	-13.1268
 328	1	5	0.045418	0.0109981	-2.73863	-13.0001
 329	1	5	0.050853	2.19455	-3.21267	-12.0656
 330	1	5	0.040294	2.16524	-1.75624	-11.0732
 331	1	1	-0.162043	-3.62709	20.277	-5.08095
 332	1	1	-0.131368	-2.59635	18.989	-2.67535
 333	1	1	0.053767	-2.51119	20.7433	-4.36637
 334	1	1	-0.089414	-3.82662	18.6391	-3.27028
 335	1	2	0.07683	-5.19853	18.1012	-4.79742
 336	1	1	-0.043169	-4.35184	19.2909	-4.38255
 337	1	1	0.067251	-2.05765	20.1865	-3.18761
 338	1	2	0.019658	-4.56275	17.3382	-3.56299
 339	1	3	-0.13357	-3.90354	20.6597	-6.52399
 340	1	3	-0.181622	-1.84023	18.0694	-1.73306
 341	1	2	-0.091671	-4.93533	15.2777	-4.6313
 342	1	1	0.028189	-4.66629	14.1793	-5.65729
 343	1	3	-0.001388	-3.74331	16.1937	-4.23041
 344	1	3	0.000341	-4.71378	17.3067	-6.0313
 345	1	2	-0.108264	-5.61715	16.0623	-5.8265
 346	1	3	-0.051806	-3.30944	16.8081	-5.59128
 347	1	1	0.038269	-5.26896	14.8681	-6.68501
 348	1	1	0.012104	-3.8257	13.8097	-8.28035
 349	1	1	0.009692	-3.19895	13.0699	-7.23062
 350	1	1	-0.221685	-3.59995	13.3002	-5.88714
 351	1	1	-0.227504	-4.82985	14.7596	-8.00338
 352	1	1	0.01292	-2.11268	12.204	-7.5316
 353	1	1	-0.039953	-0.643664	10.3677	-7.00647
 354	1	2	0.00887	0.522735	9.08545	-8.21587
 355	1	1	-0.185129	-1.71526	11.1822	-6.62217
 356	1	1	-0.021786	-0.0343817	10.4903	-8.22516
 357	1	1	0.017184	-1.46251	12.3089	-8.80428
 358	1	1	-0.198557	-0.439431	11.4139	-9.18356
 359	1	2	-0.002904	-0.148139	8.93823	-6.78209
 360	1	3	0.041883	-0.18183	7.98858	-9.05171
 361	1	3	0.005012	-1.6975	8.32192	-9.26115
 362	1	3	-0.193804	-0.228317	6.88501	-7.97065
 363	1	3	0.042479	-1.07648	7.70318	-6.96806
 364	1	3	0.00144	-2.31764	8.06128	-7.82825
 365	1	3	-0.061914	-3.38795	13.6239	-9.72252
 366	1	3	-0.051146	-1.87731	13.382	-9.79578
 367	1	5	0.024509	-6.28038	18.2773	-4.77255
 368	1	5	0.045413	-5.25098	17.0038	-2.7782
 369	1	5	0.093061	-3.305	20.049	-7.21118
 370	1	5	0.054925	-3.65523	21.7128	-6.70601
 371	1	5	0.0564	-4.96163	20.5176	-6.77663
 372	1	5	0.072515	-1.22221	18.6439	-1.03189
 373	1	5	0.098261	-1.17902	17.3959	-2.2926
 374	1	5	0.069746	-2.53038	17.4533	-1.14343
 375	1	5	0.056967	-5.57896	14.9847	-3.79339
 376	1	5	0.059195	-2.9543	15.7452	-3.61912
 377	1	5	0.053458	-4.77898	17.8111	-7.0029
 378	1	5	0.063182	-6.689	16.2786	-5.74273
 379	1	5	0.018836	-2.88085	16.0728	-6.28083
 380	1	5	0.033342	-2.58798	17.6216	-5.48258
 381	1	4	0.15438	-3.02321	12.9231	-5.05292
 382	1	4	0.144555	-5.20142	15.4326	-8.76964
 383	1	5	0.03716	1.61419	8.99019	-8.22991
 384	1	4	0.135836	-2.27952	10.9563	-5.72375
 385	1	4	0.135526	-0.0291611	11.4005	-10.1886
 386	1	5	0.041277	0.560455	8.79857	-5.95828
 387	1	5	0.00856	0.343453	7.70312	-9.9717
 388	1	5	-0.004553	-1.9367	9.29836	-9.69647
 389	1	5	0.042416	0.766401	6.63459	-7.57607
 390	1	5	0.068411	-0.706954	5.9564	-8.30712
 391	1	5	0.009741	-1.32085	7.16813	-6.0419
 392	1	5	0.002304	-2.94372	8.87897	-7.45139
 393	1	5	0.050818	-3.64755	14.4969	-10.3345
 394	1	5	0.045418	-3.9149	12.7631	-10.1539
 395	1	5	0.050853	-1.60198	13.1047	-10.8212
 396	1	5	0.040294	-1.34774	14.3151	-9.56437
 397	1	1	-0.162043	7.11299	30.7414	1.00077
 398	1	1	-0.131368	8.04676	28.0751	1.74791
 399	1	1	0.053767	8.47124	30.3678	0.992428
 400	1	1	-0.089414	6.73917	28.5256	1.99779
 401	1	2	0.07683	4.834	29.3728	1.60968
 402	1	1	-0.043169	6.29454	29.7951	1.65233
 403	1	1	0.067251	8.9105	29.1108	1.35499
 404	1	2	0.019658	5.34878	27.9184	1.98665
 405	1	3	-0.13357	6.57225	31.9463	0.253058
 406	1	3	-0.181622	8.43471	26.6121	1.7351
 407	1	2	-0.091671	3.4383	26.9724	1.05647
 408	1	1	0.028189	2.5244	26.496	-0.0611472
 409	1	3	-0.001388	4.95885	27.0512	0.755993
 410	1	3	0.000341	4.17865	29.1833	0.217089
 411	1	2	-0.108264	2.90938	28.4323	0.709105
 412	1	3	-0.051806	5.03502	28.0565	-0.428051
 413	1	1	0.038269	2.06574	27.7507	-0.347676
 414	1	1	0.012104	1.2843	27.0103	-2.47634
 415	1	1	0.009692	1.77696	25.6906	-2.20513
 416	1	1	-0.221685	2.47174	25.4488	-0.985045
 417	1	1	-0.227504	1.49924	28.0783	-1.57511
 418	1	1	0.01292	1.63462	24.6679	-3.18578
 419	1	1	-0.039953	1.75273	22.3789	-3.90713
 420	1	2	0.00887	1.19418	21.3137	-5.64062
 421	1	1	-0.185129	1.86105	23.2968	-2.85997
 422	1	1	-0.021786	1.36448	22.7351	-5.16012
 423	1	1	0.017184	1.23573	25.0185	-4.52133
 424	1	1	-0.198557	1.04772	24.0375	-5.5229
 425	1	2	-0.002904	1.70019	20.8799	-4.19217
 426	1	3	0.041883	-0.227769	20.7073	-5.70599
 427	1	3	0.005012	-1.1881	21.4119	-4.6861
 428	1	3	-0.193804	0.0841593	19.3615	-5.01221
 429	1	3	0.042479	0.54145	19.987	-3.67652
 430	1	3	0.00144	-0.689709	20.8493	-3.29512
 431	1	3	-0.061914	0.51381	27.3004	-3.75215
 432	1	3	-0.051146	1.05671	26.473	-4.91958
 433	1	5	0.024509	4.1933	29.8775	2.34242
 434	1	5	0.045413	5.02119	27.51	2.94984
 435	1	5	0.093061	6.38543	31.6995	-0.799429
 436	1	5	0.054925	7.28412	32.7807	0.282886
 437	1	5	0.0564	5.62914	32.2947	0.692031
 438	1	5	0.072515	9.51574	26.4893	1.87118
 439	1	5	0.098261	8.15743	26.1462	0.78178
 440	1	5	0.069746	7.92703	26.0686	2.54051
 441	1	5	0.056967	3.19278	26.575	2.04872
 442	1	5	0.059195	5.48822	26.0984	0.63221
 443	1	5	0.053458	4.01889	30.0887	-0.381176
 444	1	5	0.063182	2.33858	28.9564	1.48513
 445	1	5	0.018836	4.59593	27.6624	-1.35336
 446	1	5	0.033342	6.05996	28.376	-0.647382
 447	1	4	0.15438	3.01004	24.5293	-0.787578
 448	1	4	0.144555	1.24557	29.1041	-1.82292
 449	1	5	0.03716	1.83024	20.9942	-6.47356
 450	1	4	0.135836	2.07569	22.9519	-1.85505
 451	1	4	0.135526	0.690229	24.2807	-6.51876
 452	1	5	0.041277	2.66048	20.3542	-4.17769
 453	1	5	0.00856	-0.640315	20.6131	-6.71816
 454	1	5	-0.004553	-1.24904	22.5057	-4.74363
 455	1	5	0.042416	0.884868	18.8	-5.51157
 456	1	5	0.068411	-0.781936	18.702	-4.91045
 457	1	5	0.009741	0.829085	19.2569	-2.90962
 458	1	5	0.002304	-0.513088	21.622	-2.53619
 459	1	5	0.050818	0.557677	28.3661	-4.01036
 460	1	5	0.045418	-0.544496	27.0542	-3.59732
 461	1	5	0.050853	0.379996	26.5685	-5.77825
 462	1	5	0.040294	2.02597	26.8827	-5.23169
 463	1	1	-0.162043	20.2917	27.4892	8.60338
 464	1	1	-0.131368	19.675	25.1417	7.02796
 465	1	1	0.053767	20.7979	26.215	8.9263
 466	1	1	-0.089414	19.367	26.4407	6.58928
 467	1	2	0.07683	18.4187	28.3155	6.89012
 468	1	1	-0.043169	19.662	27.5703	7.34761
 469	1	1	0.067251	20.4965	25.0881	8.16978
 470	1	2	0.019658	18.0847	27.0329	6.03075
 471	1	3	-0.13357	20.1312	28.5777	9.65085
 472	1	3	-0.181622	18.911	23.9267	6.5307
 473	1	2	-0.091671	16.76	28.3095	4.62359
 474	1	1	0.028189	16.4536	29.2779	3.49602
 475	1	3	-0.001388	18.1104	27.5441	4.56541
 476	1	3	0.000341	18.6007	29.4364	5.832
 477	1	2	-0.108264	17.0946	29.6001	5.48729
 478	1	3	-0.051806	19.1724	28.6782	4.6017
 479	1	1	0.038269	16.7452	30.3884	4.23961
 480	1	1	0.012104	15.3761	31.7277	2.80119
 481	1	1	0.009692	15.0609	30.5745	2.00764
 482	1	1	-0.221685	15.5652	29.3066	2.41976
 483	1	1	-0.227504	16.1671	31.6259	3.97011
 484	1	1	0.01292	14.1683	30.6996	0.900914
 485	1	1	-0.039953	12.7324	29.7737	-0.79709
 486	1	2	0.00887	11.1201	30.521	-1.95428
 487	1	1	-0.185129	13.6005	29.5522	0.272525
 488	1	1	-0.021786	12.3223	31.0186	-1.16908
 489	1	1	0.017184	13.7713	32.004	0.449407
 490	1	1	-0.198557	12.7813	32.1768	-0.548958
 491	1	2	-0.002904	11.603	29.0655	-1.52607
 492	1	3	0.041883	9.69025	30.6007	-1.35333
 493	1	3	0.005012	9.73334	30.6881	0.203371
 494	1	3	-0.193804	9.25293	29.1354	-1.58314
 495	1	3	0.042479	10.3894	28.5106	-0.741524
 496	1	3	0.00144	10.2296	29.2454	0.622259
 497	1	3	-0.061914	14.6931	33.0583	2.53641
 498	1	3	-0.051146	14.4063	33.2483	1.04469
 499	1	5	0.024509	17.733	28.5871	7.70176
 500	1	5	0.045413	17.1811	26.4642	6.28121
 501	1	5	0.093061	20.9676	28.569	10.3611
 502	1	5	0.054925	19.2038	28.4376	10.2202
 503	1	5	0.0564	20.0974	29.5715	9.18738
 504	1	5	0.072515	19.5342	23.0248	6.57467
 505	1	5	0.098261	18.5891	24.0594	5.49037
 506	1	5	0.069746	18.0182	23.7508	7.14307
 507	1	5	0.056967	15.9095	27.6852	4.92364
 508	1	5	0.059195	18.2191	26.787	3.77886
 509	1	5	0.053458	19.1377	30.3373	6.15383
 510	1	5	0.063182	16.4633	29.8275	6.35486
 511	1	5	0.018836	19.1759	29.2881	3.68915
 512	1	5	0.033342	20.1899	28.3021	4.76976
 513	1	4	0.15438	15.2705	28.3705	1.96631
 514	1	4	0.144555	16.2577	32.4502	4.67067
 515	1	5	0.03716	11.1301	30.7113	-3.03318
 516	1	4	0.135836	13.7473	28.5407	0.626123
 517	1	4	0.135526	12.3876	33.1539	-0.811743
 518	1	5	0.041277	11.8941	28.4137	-2.35729
 519	1	5	0.00856	9.03643	31.3471	-1.82144
 520	1	5	-0.004553	10.3223	31.5111	0.62652
 521	1	5	0.042416	9.29774	28.8406	-2.641
 522	1	5	0.068411	8.24858	28.9095	-1.20669
 523	1	5	0.009741	10.3514	27.4167	-0.666105
 524	1	5	0.002304	11.0999	29.2352	1.28898
 525	1	5	0.050818	15.3073	33.8934	2.89685
 526	1	5	0.045418	13.7474	33.0952	3.09225
 527	1	5	0.050853	13.7649	34.128	0.906416
 528	1	5	0.040294	15.3479	33.457	0.520696
 529	1	1	-0.162043	10.6267	23.8931	4.74214
 530	1	1	-0.131368	12.2853	21.5993	4.08964
 531	1	1	0.053767	10.4293	23.109	3.58966
 532	1	1	-0.089414	12.3466	22.2574	5.32969
 533	1	2	0.07683	12.5403	23.9299	6.62155
 534	1	1	-0.043169	11.5233	23.3266	5.66837
 535	1	1	0.067251	11.1897	21.9863	3.29734
 536	1	2	0.019658	13.4971	22.746	6.18997
 537	1	3	-0.13357	10.1307	25.3245	4.85229
 538	1	3	-0.181622	13.4365	20.7692	3.55034
 539	1	2	-0.091671	14.7094	23.0581	8.12807
 540	1	1	0.028189	15.0687	22.8904	9.58837
 541	1	3	-0.001388	13.7763	21.9824	7.5057
 542	1	3	0.000341	12.3237	23.6863	8.14537
 543	1	2	-0.108264	13.7146	24.1929	8.6075
 544	1	3	-0.051806	12.447	22.1442	8.2943
 545	1	1	0.038269	14.1785	23.8464	10.0146
 546	1	1	0.012104	15.5662	24.3056	11.9195
 547	1	1	0.009692	16.557	23.3991	11.4301
 548	1	1	-0.221685	16.2946	22.6909	10.2242
 549	1	1	-0.227504	14.408	24.6023	11.164
 550	1	1	0.01292	17.8586	23.3902	12.0146
 551	1	1	-0.039953	20.1836	22.7089	11.9375
 552	1	2	0.00887	21.8967	23.9571	12.0186
 553	1	1	-0.185129	18.8558	22.4769	11.5688
 554	1	1	-0.021786	20.5426	23.7979	12.6941
 555	1	1	0.017184	18.2413	24.4594	12.8889
 556	1	1	-0.198557	19.6001	24.6946	13.196
 557	1	2	-0.002904	21.4991	22.6846	11.165
 558	1	3	0.041883	22.1156	25.0477	10.9291
 559	1	3	0.005012	20.7725	25.4516	10.2413
 560	1	3	-0.193804	22.7755	24.1705	9.8414
 561	1	3	0.042479	21.5792	23.2025	9.69982
 562	1	3	0.00144	20.4148	24.1854	9.38584
 563	1	3	-0.061914	15.8098	25.0584	13.2136
 564	1	3	-0.051146	17.2576	25.5528	13.2754
 565	1	5	0.024509	12.841	24.9556	6.37615
 566	1	5	0.045413	14.4041	22.9912	5.6246
 567	1	5	0.093061	10.2424	25.7098	5.87337
 568	1	5	0.054925	9.06807	25.3908	4.58975
 569	1	5	0.0564	10.689	25.987	4.17933
 570	1	5	0.072515	13.9846	20.2782	4.36415
 571	1	5	0.098261	14.145	21.397	2.99595
 572	1	5	0.069746	13.075	19.9863	2.87198
 573	1	5	0.056967	15.5531	23.3413	7.48727
 574	1	5	0.059195	14.1789	20.9662	7.41107
 575	1	5	0.053458	11.447	24.1603	8.60405
 576	1	5	0.063182	13.9233	25.2281	8.3109
 577	1	5	0.018836	12.5312	21.8219	9.34012
 578	1	5	0.033342	11.6095	21.6047	7.8334
 579	1	4	0.15438	17.059	22.1505	9.68351
 580	1	4	0.144555	13.761	25.4351	11.4209
 581	1	5	0.03716	22.7769	23.8269	12.6579
 582	1	4	0.135836	18.6602	21.7081	10.8337
 583	1	4	0.135526	19.9139	25.6297	13.65
 584	1	5	0.041277	22.1341	21.806	11.324
 585	1	5	0.00856	22.7225	25.9029	11.2515
 586	1	5	-0.004553	19.9711	25.7919	10.9042
 587	1	5	0.042416	23.6866	23.6685	10.1961
 588	1	5	0.068411	23.0167	24.7155	8.91925
 589	1	5	0.009741	21.715	22.4209	8.94188
 590	1	5	0.002304	19.4011	23.8037	9.53052
 591	1	5	0.050818	15.6195	24.3884	14.0619
 592	1	5	0.045418	15.1253	25.9094	13.3207
 593	1	5	0.050853	17.3759	26.401	12.5887
 594	1	5	0.040294	17.4708	25.9279	14.2846
 595	1	1	-0.162043	0.654374	14.7384	-5.3283
 596	1	1	-0.131368	1.88776	14.0151	-2.83048
 597	1	1	0.053767	-0.118964	14.3845	-4.20614
 598	1	1	-0.089414	2.61688	14.1893	-4.01904
 599	1	2	0.07683	3.26748	15.2029	-5.76723
 600	1	1	-0.043169	2.02542	14.5506	-5.20105
 601	1	1	0.067251	0.459185	14.004	-2.95594
 602	1	2	0.019658	3.98171	14.7379	-4.42908
 603	1	3	-0.13357	0.0356479	15.3387	-6.57892
 604	1	3	-0.181622	2.65037	13.9755	-1.51066
 605	1	2	-0.091671	5.59796	16.3801	-4.80314
 606	1	1	0.028189	6.20276	17.7686	-4.73405
 607	1	3	-0.001388	4.45861	16.0648	-3.78504
 608	1	3	0.000341	3.3239	16.7577	-5.69776
 609	1	2	-0.108264	4.81577	16.9089	-6.07881
 610	1	3	-0.051806	3.32508	17.0578	-4.17126
 611	1	1	0.038269	5.4795	18.2473	-5.79578
 612	1	1	0.012104	5.65521	20.4717	-4.90904
 613	1	1	0.009692	6.48554	19.9847	-3.85123
 614	1	1	-0.221685	6.69974	18.5888	-3.72176
 615	1	1	-0.227504	5.09923	19.5901	-5.86811
 616	1	1	0.01292	6.99814	20.8777	-2.87571
 617	1	1	-0.039953	8.54411	21.4462	-1.1421
 618	1	2	0.00887	9.01177	23.1865	-0.0408493
 619	1	1	-0.185129	8.12749	20.5143	-2.09025
 620	1	1	-0.021786	7.92306	22.6424	-0.942087
 621	1	1	0.017184	6.4173	22.1795	-2.72821
 622	1	1	-0.198557	6.88986	23.0971	-1.75772
 623	1	2	-0.002904	9.76899	21.8143	-0.321468
 624	1	3	0.041883	8.7897	23.1373	1.49496
 625	1	3	0.005012	10.1768	23.4325	2.12463
 626	1	3	-0.193804	8.62721	21.627	1.78394
 627	1	3	0.042479	9.94559	21.2169	1.09062
 628	1	3	0.00144	10.9968	22.1235	1.79977
 629	1	3	-0.061914	5.33984	21.9569	-4.99704
 630	1	3	-0.051146	5.23443	22.5743	-3.59282
 631	1	5	0.024509	3.63272	14.7705	-6.70628
 632	1	5	0.045413	4.76856	13.9807	-4.52554
 633	1	5	0.093061	-0.890643	14.817	-6.84719
 634	1	5	0.054925	0.715125	15.2633	-7.43688
 635	1	5	0.0564	-0.203438	16.3984	-6.42797
 636	1	5	0.072515	2.60661	12.9887	-1.03876
 637	1	5	0.098261	2.26433	14.7231	-0.807354
 638	1	5	0.069746	3.71408	14.1945	-1.65497