pySIMM System Object

3044 atoms
3547 bonds
7290 angles
13323 dihedrals
360 impropers

5 atom types
9 bond types
18 angle types
19 dihedral types
2 improper types

-203.704493 203.704493 xlo xhi
-203.704493 203.704493 ylo yhi
-203.704493 203.704493 zlo zhi

Masses

   1	12.01	# ca
   2	12.01	# cy
   3	12.01	# c3
   4	1.008	# ha
   5	1.008	# hc

Pair Coeffs

   1	0.086	3.3996695084235347	# ca
   2	0.086	3.3996695084235347	# cy
   3	0.1094	3.3996695084235347	# c3
   4	0.015	2.59964245953351	# ha
   5	0.0157	2.649532787749369	# hc

Bond Coeffs

   1	461.1	1.3984	# ca,ca
   2	300.9	1.5375	# c3,c3
   3	305.9	1.5319	# c3,cy
   4	345.8	1.086	# ca,ha
   5	321.0	1.5156	# c3,ca
   6	285.0	1.5562	# cy,cy
   7	333.3	1.0949	# cy,hc
   8	330.6	1.0969	# c3,hc
   9	321.2	1.5154	# ca,cy

Angle Coeffs

   1	67.9	96.03	# cy,c3,cy
   2	45.97	114.53	# ca,cy,hc
   3	66.62	120.02	# ca,ca,ca
   4	61.4	116.81	# ca,cy,cy
   5	44.83	114.79	# cy,cy,hc
   6	46.43	110.14	# c3,cy,hc
   7	62.86	111.51	# c3,c3,c3
   8	63.15	112.07	# c3,c3,ca
   9	46.34	109.8	# c3,c3,hc
  10	48.18	119.88	# ca,ca,ha
  11	39.4	107.58	# hc,c3,hc
  12	63.53	120.77	# c3,ca,ca
  13	60.66	118.7	# c3,cy,cy
  14	63.51	120.86	# ca,ca,cy
  15	62.73	112.39	# c3,c3,cy
  16	46.29	110.75	# cy,c3,hc
  17	46.8	110.47	# ca,c3,hc
  18	62.8	113.57	# c3,cy,ca

Dihedral Coeffs

   1	3	0.18	3	0.0	0.25	2	180.0	0.2	1	180.0	# c3,c3,cy,cy
   2	1	0.16	3	0.0	# hc,c3,cy,cy
   3	1	0.16	3	0.0	# cy,c3,cy,hc
   4	1	0.16	3	0.0	# c3,c3,cy,hc
   5	1	0.15	3	0.0	# hc,c3,cy,hc
   6	1	3.625	2	180	# X,ca,ca,X
   7	1	0.15555555555555556	3	0	# X,cy,cy,X
   8	3	0.18	3	0	0.25	2	180	0.2	1	180	# c3,c3,c3,c3
   9	1	0.16	3	0	# hc,c3,c3,c3
  10	1	0.0	2	0.0	# ca,ca,cy,cy
  11	1	0.0	2	0.0	# ca,ca,cy,c3
  12	1	0.0	2	0	# X,c3,ca,X
  13	1	0.15555555555555556	3	0	# X,c3,c3,X
  14	3	0.38	3	180.0	0.0	2	0.0	1.15	1	0.0	# ca,ca,cy,hc
  15	3	0.18	3	0.0	0.25	2	180.0	0.2	1	180.0	# cy,c3,cy,cy
  16	1	0.16	3	0.0	# cy,c3,cy,ca
  17	1	0.16	3	0.0	# c3,c3,cy,ca
  18	1	0.16	3	0.0	# hc,c3,cy,ca
  19	1	0.15	3	0	# hc,c3,c3,hc

Improper Coeffs

   1	1.1	-1	2	# ca,ca,ca,c3
   2	1.1	-1	2	# ca,X,X,ha

Atoms

   1	1	1	-0.162043	-1.01257	24.3277	-53.3977
   2	1	1	-0.131368	-3.42619	24.5751	-51.763
   3	1	1	0.053767	-0.987468	24.6166	-52.0209
   4	1	1	-0.089414	-3.45218	24.5434	-53.1708
   5	1	2	0.07683	-3.04652	23.8189	-55.1266
   6	1	1	-0.043169	-2.3057	24.4273	-53.9478
   7	1	1	0.067251	-2.12604	24.7354	-51.2497
   8	1	2	0.019658	-4.35583	23.9505	-54.2384
   9	1	3	-0.13357	0.188178	23.8052	-54.1651
  10	1	3	-0.181622	-4.64136	24.2993	-50.8969
  11	1	2	-0.091671	-5.3683	22.2627	-55.4789
  12	1	1	0.028189	-5.66047	20.8318	-55.8923
  13	1	3	-0.001388	-4.82164	22.4823	-54.042
  14	1	3	0.000341	-2.89834	22.2894	-55.3481
  15	1	2	-0.108264	-4.05822	22.1314	-56.369
  16	1	3	-0.051806	-3.48795	21.6826	-54.0432
  17	1	1	0.038269	-4.53181	20.7193	-56.6578
  18	1	1	0.012104	-4.64207	18.3338	-56.5092
  19	1	1	0.009692	-5.81691	18.4356	-55.6963
  20	1	1	-0.221685	-6.29388	19.7239	-55.327
  21	1	1	-0.227504	-3.9395	19.4875	-56.9304
  22	1	1	0.01292	-6.44531	17.2591	-55.2035
  23	1	1	-0.039953	-8.2852	16.1201	-54.1612
  24	1	2	0.00887	-8.88356	14.0992	-53.9747
  25	1	1	-0.185129	-7.75862	17.3132	-54.6556
  26	1	1	-0.021786	-7.64429	14.9232	-54.2771
  27	1	1	0.017184	-5.77822	15.9931	-55.3089
  28	1	1	-0.198557	-6.40319	14.7912	-54.895
  29	1	2	-0.002904	-9.63205	15.4932	-53.844
  30	1	3	0.041883	-9.66096	13.3971	-55.1156
  31	1	3	0.005012	-9.42209	14.0648	-56.4971
  32	1	3	-0.193804	-11.0894	13.8999	-54.8225
  33	1	3	0.042479	-10.7319	15.3964	-54.9303
  34	1	3	0.00144	-10.1513	15.4287	-56.3702
  35	1	3	-0.061914	-4.11819	16.9726	-56.9361
  36	1	3	-0.051146	-4.36042	15.9157	-55.8513
  37	1	5	0.024509	-3.00884	24.4135	-56.0469
  38	1	5	0.045413	-5.13724	24.627	-54.6037
  39	1	5	0.093061	1.11905	24.2503	-53.7918
  40	1	5	0.054925	0.108895	24.0422	-55.2334
  41	1	5	0.0564	0.270499	22.7159	-54.0647
  42	1	5	0.072515	-4.75027	23.2238	-50.7101
  43	1	5	0.098261	-5.55953	24.6545	-51.3809
  44	1	5	0.069746	-4.55757	24.8042	-49.9265
  45	1	5	0.056967	-6.11877	22.9961	-55.7978
  46	1	5	0.059195	-5.51389	22.2887	-53.2134
  47	1	5	0.053458	-1.91079	21.9278	-55.6599
  48	1	5	0.063182	-3.98328	22.7813	-57.2491
  49	1	5	0.018836	-3.63843	20.5974	-54.1043
  50	1	5	0.033342	-2.86984	21.8891	-53.1634
  51	1	4	0.15438	-7.05668	19.8705	-54.5716
  52	1	4	0.144555	-2.97707	19.4251	-57.4283
  53	1	5	0.03716	-8.85953	13.5011	-53.057
  54	1	4	0.135836	-8.37204	18.2064	-54.6795
  55	1	4	0.135526	-5.95134	13.8175	-55.0576
  56	1	5	0.041277	-10.0452	15.7027	-52.8511
  57	1	5	0.00856	-9.55809	12.3047	-55.1315
  58	1	5	-0.004553	-8.35946	14.1763	-56.7419
  59	1	5	0.042416	-11.4459	13.6163	-53.8225
  60	1	5	0.068411	-11.8219	13.5775	-55.5759
  61	1	5	0.009741	-11.5791	16.0779	-54.7823
  62	1	5	0.002304	-9.48383	16.2805	-56.5447
  63	1	5	0.050818	-3.04663	17.0156	-57.1689
  64	1	5	0.045418	-4.63005	16.6652	-57.857
  65	1	5	0.050853	-4.1473	14.92	-56.2604
  66	1	5	0.040294	-3.6528	16.0779	-55.0282
  67	1	1	-0.162043	2.23263	30.5581	-39.0316
  68	1	1	-0.131368	0.492909	28.2574	-38.5496
  69	1	1	0.053767	2.4343	29.6445	-37.9804
  70	1	1	-0.089414	0.152195	29.3066	-39.4249
  71	1	2	0.07683	0.393766	30.678	-41.0296
  72	1	1	-0.043169	0.978249	30.4008	-39.6542
  73	1	1	0.067251	1.61276	28.5586	-37.7532
  74	1	2	0.019658	-0.547437	29.4269	-40.7676
  75	1	3	-0.13357	3.31329	31.4915	-39.5462
  76	1	3	-0.181622	-0.168162	26.8918	-38.5831
  77	1	2	-0.091671	-0.821832	29.1473	-43.061
  78	1	1	0.028189	-0.431899	28.6983	-44.4576
  79	1	3	-0.001388	-0.140329	28.4156	-41.8733
  80	1	3	0.000341	1.2393	30.2562	-42.2616
  81	1	2	-0.108264	0.116245	30.4019	-43.3251
  82	1	3	-0.051806	1.36967	28.7159	-42.0917
  83	1	1	0.038269	0.375204	29.7807	-44.6849
  84	1	1	0.012104	1.55961	28.57	-46.3763
  85	1	1	0.009692	0.735636	27.4235	-46.1377
  86	1	1	-0.221685	-0.240271	27.4759	-45.1043
  87	1	1	-0.227504	1.43744	29.7372	-45.5865
  88	1	1	0.01292	0.953645	26.2253	-46.8719
  89	1	1	-0.039953	0.293062	24.0276	-47.5822
  90	1	2	0.00887	0.904708	22.7068	-49.1203
  91	1	1	-0.185129	-0.0182426	25.1847	-46.8683
  92	1	1	-0.021786	1.41609	23.9087	-48.3459
  93	1	1	0.017184	2.13703	26.0802	-47.6703
  94	1	1	-0.198557	2.35262	24.9318	-48.4705
  95	1	2	-0.002904	-0.408606	22.8462	-48.2305
  96	1	3	0.041883	0.365141	22.872	-50.5641
  97	1	3	0.005012	-0.0868476	24.3402	-50.8294
  98	1	3	-0.193804	-0.986461	22.1404	-50.3977
  99	1	3	0.042479	-1.52132	23.0716	-49.2857
 100	1	3	0.00144	-1.39179	24.4777	-49.9453
 101	1	3	-0.061914	2.59788	28.5531	-47.4859
 102	1	3	-0.051146	3.20946	27.1571	-47.6564
 103	1	5	0.024509	-0.0947039	31.6542	-41.1314
 104	1	5	0.045413	-1.62478	29.6203	-40.7068
 105	1	5	0.093061	3.95959	30.9782	-40.2689
 106	1	5	0.054925	3.94532	31.8531	-38.7255
 107	1	5	0.0564	2.87696	32.3667	-40.0434
 108	1	5	0.072515	-1.21345	26.9666	-38.9075
 109	1	5	0.098261	-0.158563	26.4244	-37.5905
 110	1	5	0.069746	0.355224	26.2227	-39.2771
 111	1	5	0.056967	-1.89204	29.3424	-42.9221
 112	1	5	0.059195	-0.418093	27.3668	-41.712
 113	1	5	0.053458	2.16631	30.8146	-42.4404
 114	1	5	0.063182	-0.36208	31.3884	-43.3517
 115	1	5	0.018836	1.78261	28.2192	-42.9787
 116	1	5	0.033342	1.98502	28.4358	-41.2312
 117	1	4	0.15438	-0.761575	26.5951	-44.7486
 118	1	4	0.144555	2.1447	30.5572	-45.6601
 119	1	5	0.03716	1.45601	21.7696	-48.9856
 120	1	4	0.135836	-0.993611	25.2896	-46.4074
 121	1	4	0.135526	3.19221	24.8515	-49.1541
 122	1	5	0.041277	-0.618279	21.9888	-47.5814
 123	1	5	0.00856	1.01245	22.4573	-51.3469
 124	1	5	-0.004553	0.665048	25.1198	-50.6573
 125	1	5	0.042416	-0.867794	21.1012	-50.0601
 126	1	5	0.068411	-1.60121	22.1379	-51.3042
 127	1	5	0.009741	-2.53562	22.8329	-48.9424
 128	1	5	0.002304	-1.39245	25.337	-49.264
 129	1	5	0.050818	3.39757	29.2791	-47.2917
 130	1	5	0.045418	2.11998	28.8527	-48.4274
 131	1	5	0.050853	3.80676	27.1323	-48.5767
 132	1	5	0.040294	3.89996	26.9641	-46.8255
 133	1	1	-0.162043	5.62976	23.3569	-25.116
 134	1	1	-0.131368	5.30178	21.2738	-27.1419
 135	1	1	0.053767	6.49045	22.2486	-25.2297
 136	1	1	-0.089414	4.30794	22.2294	-26.857
 137	1	2	0.07683	3.47507	24.1633	-26.5674
 138	1	1	-0.043169	4.46352	23.2219	-25.8962
 139	1	1	0.067251	6.33645	21.2685	-26.1896
 140	1	2	0.019658	3.30182	23.0293	-27.6644
 141	1	3	-0.13357	5.9977	24.6279	-24.3723
 142	1	3	-0.181622	5.33894	20.4612	-28.4231
 143	1	2	-0.091671	2.58897	24.6156	-29.2062
 144	1	1	0.028189	2.75722	25.7226	-30.2299
 145	1	3	-0.001388	3.81336	23.6921	-28.9713
 146	1	3	0.000341	4.05658	25.3639	-27.3629
 147	1	2	-0.108264	2.75081	25.7543	-28.1112
 148	1	3	-0.051806	4.90725	24.6762	-28.4681
 149	1	1	0.038269	2.88959	26.7062	-29.2858
 150	1	1	0.012104	4.01717	28.1041	-30.8696
 151	1	1	0.009692	3.92119	27.0711	-31.8561
 152	1	1	-0.221685	3.3281	25.8287	-31.4995
 153	1	1	-0.227504	3.57678	27.8919	-29.5421
 154	1	1	0.01292	4.49703	27.2594	-33.143
 155	1	1	-0.039953	4.84845	26.5916	-35.4225
 156	1	2	0.00887	5.6583	27.5084	-37.151
 157	1	1	-0.185129	4.19268	26.3695	-34.2125
 158	1	1	-0.021786	5.65887	27.6648	-35.6404
 159	1	1	0.017184	5.36457	28.3775	-33.3836
 160	1	1	-0.198557	5.91195	28.6269	-34.6662
 161	1	2	-0.002904	4.70836	26.2552	-36.8967
 162	1	3	0.041883	4.7845	28.4308	-38.039
 163	1	3	0.005012	3.60651	29.0436	-37.2227
 164	1	3	-0.193804	4.06977	27.3462	-38.877
 165	1	3	0.042479	3.41998	26.632	-37.67
 166	1	3	0.00144	2.6648	27.7988	-36.9646
 167	1	3	-0.061914	4.61402	29.4549	-31.2277
 168	1	3	-0.051146	5.75003	29.3112	-32.2477
 169	1	5	0.024509	2.5933	24.4088	-25.964
 170	1	5	0.045413	2.31143	22.5669	-27.749
 171	1	5	0.093061	6.5994	24.4042	-23.4825
 172	1	5	0.054925	5.10106	25.1675	-24.0431
 173	1	5	0.0564	6.58083	25.2996	-25.0144
 174	1	5	0.072515	5.82358	19.4904	-28.2604
 175	1	5	0.098261	5.8975	20.9912	-29.2044
 176	1	5	0.069746	4.32637	20.2708	-28.7999
 177	1	5	0.056967	1.62555	24.0933	-29.2479
 178	1	5	0.059195	4.09153	23.0199	-29.7923
 179	1	5	0.053458	4.54819	26.152	-26.7795
 180	1	5	0.063182	1.89112	25.9472	-27.4583
 181	1	5	0.018836	5.24862	25.3734	-29.2436
 182	1	5	0.033342	5.78596	24.1621	-28.067
 183	1	4	0.15438	3.39079	24.9494	-32.1292
 184	1	4	0.144555	3.77874	28.6052	-28.7494
 185	1	5	0.03716	6.62109	27.2708	-37.6168
 186	1	4	0.135836	3.44365	25.5898	-34.1396
 187	1	4	0.135526	6.49424	29.5166	-34.8854
 188	1	5	0.041277	5.12007	25.2919	-37.2176
 189	1	5	0.00856	5.34552	29.1651	-38.6304
 190	1	5	-0.004553	3.88013	29.6028	-36.3196
 191	1	5	0.042416	4.7717	26.7014	-39.4243
 192	1	5	0.068411	3.34534	27.7484	-39.5925
 193	1	5	0.009741	2.77854	25.7826	-37.9359
 194	1	5	0.002304	2.39649	27.6402	-35.913
 195	1	5	0.050818	4.98929	29.9722	-30.3357
 196	1	5	0.045418	3.82775	30.0906	-31.6546
 197	1	5	0.050853	6.02361	30.3036	-32.6281
 198	1	5	0.040294	6.63751	28.9107	-31.7413
 199	1	1	-0.162043	14.8395	10.389	-22.6805
 200	1	1	-0.131368	15.0803	11.0949	-25.511
 201	1	1	0.053767	16.0488	10.3165	-23.3961
 202	1	1	-0.089414	13.8414	10.9179	-24.8656
 203	1	2	0.07683	12.3379	11.1881	-23.3882
 204	1	1	-0.043169	13.7261	10.5841	-23.5215
 205	1	1	0.067251	16.1626	10.6506	-24.7303
 206	1	2	0.019658	12.4715	11.5694	-24.9238
 207	1	3	-0.13357	14.7635	10.4176	-21.165
 208	1	3	-0.181622	15.242	11.8305	-26.8285
 209	1	2	-0.091671	10.9043	13.261	-24.6446
 210	1	1	0.028189	10.4059	14.6347	-24.2386
 211	1	3	-0.001388	12.4238	13.1207	-24.9284
 212	1	3	0.000341	12.2221	12.5615	-22.6723
 213	1	2	-0.108264	10.765	12.8814	-23.107
 214	1	3	-0.051806	13.0764	13.5021	-23.5691
 215	1	1	0.038269	10.2841	14.3083	-22.9164
 216	1	1	0.012104	10.315	16.6241	-22.3192
 217	1	1	0.009692	10.4662	16.9808	-23.6986
 218	1	1	-0.221685	10.5816	15.9492	-24.6716
 219	1	1	-0.227504	10.3085	15.2698	-21.9078
 220	1	1	0.01292	10.5721	18.3486	-24.0733
 221	1	1	-0.039953	10.5982	20.0944	-25.722
 222	1	2	0.00887	10.4224	22.2051	-25.6773
 223	1	1	-0.185129	10.4416	18.7391	-25.4363
 224	1	1	-0.021786	10.7524	21.0428	-24.7556
 225	1	1	0.017184	10.7576	19.356	-23.0682
 226	1	1	-0.198557	10.7876	20.7337	-23.3981
 227	1	2	-0.002904	10.2366	21.0951	-26.8042
 228	1	3	0.041883	9.02935	22.885	-25.6291
 229	1	3	0.005012	7.96179	21.9368	-25.0052
 230	1	3	-0.193804	8.6795	22.8205	-27.1334
 231	1	3	0.042479	8.76134	21.2806	-27.2376
 232	1	3	0.00144	7.78461	20.8208	-26.1123
 233	1	3	-0.061914	10.1558	17.7016	-21.2592
 234	1	3	-0.051146	10.956	18.9611	-21.6139
 235	1	5	0.024509	11.5512	10.4728	-23.1209
 236	1	5	0.045413	11.7682	11.0931	-25.6168
 237	1	5	0.093061	14.914	11.4363	-20.7866
 238	1	5	0.054925	15.533	9.77485	-20.7195
 239	1	5	0.0564	13.7868	10.0653	-20.8107
 240	1	5	0.072515	14.3484	11.7198	-27.4552
 241	1	5	0.098261	16.098	11.4423	-27.3945
 242	1	5	0.069746	15.4065	12.9017	-26.6587
 243	1	5	0.056967	10.2573	12.7288	-25.3524
 244	1	5	0.059195	12.8101	13.6257	-25.8223
 245	1	5	0.053458	12.4329	12.5779	-21.596
 246	1	5	0.063182	10.0313	12.1091	-22.8465
 247	1	5	0.018836	12.953	14.563	-23.3171
 248	1	5	0.033342	14.1457	13.2674	-23.532
 249	1	4	0.15438	10.8742	16.1391	-25.6972
 250	1	4	0.144555	10.33	14.9857	-20.8605
 251	1	5	0.03716	11.2295	22.9219	-25.865
 252	1	4	0.135836	10.1603	18.0515	-26.2252
 253	1	4	0.135526	10.8292	21.5102	-22.6405
 254	1	5	0.041277	10.9317	21.173	-27.6475
 255	1	5	0.00856	9.0265	23.8972	-25.2059
 256	1	5	-0.004553	8.18234	21.5514	-24.0022
 257	1	5	0.042416	9.42221	23.329	-27.7641
 258	1	5	0.068411	7.69147	23.2262	-27.3733
 259	1	5	0.009741	8.51964	20.8785	-28.2293
 260	1	5	0.002304	7.90727	19.7933	-25.7491
 261	1	5	0.050818	10.4709	17.3368	-20.2734
 262	1	5	0.045418	9.09363	17.9645	-21.1744
 263	1	5	0.050853	10.6664	19.7771	-20.9397
 264	1	5	0.040294	12.0223	18.7691	-21.4383
 265	1	1	-0.162043	28.3729	4.8363	-30.087
 266	1	1	-0.131368	28.2137	7.65001	-30.9213
 267	1	1	0.053767	29.4657	5.56077	-30.5956
 268	1	1	-0.089414	27.1922	6.99273	-30.2108
 269	1	2	0.07683	25.7649	5.5099	-29.6898
 270	1	1	-0.043169	27.2677	5.66403	-29.8205
 271	1	1	0.067251	29.3918	6.88272	-30.99
 272	1	2	0.019658	25.6759	7.03373	-30.1342
 273	1	3	-0.13357	28.3331	3.32165	-30.002
 274	1	3	-0.181622	28.014	8.95422	-31.6705
 275	1	2	-0.091671	23.609	7.21457	-29.0789
 276	1	1	0.028189	22.659	7.37833	-27.9052
 277	1	3	-0.001388	25.059	7.74359	-28.8983
 278	1	3	0.000341	25.1954	5.50719	-28.247
 279	1	2	-0.108264	23.7041	5.68987	-28.637
 280	1	3	-0.051806	25.5979	6.90788	-27.7016
 281	1	1	0.038269	22.7457	6.06782	-27.5249
 282	1	1	0.012104	21.9534	6.62424	-25.339
 283	1	1	0.009692	21.8554	8.00109	-25.7229
 284	1	1	-0.221685	22.287	8.39242	-27.0211
 285	1	1	-0.227504	22.4778	5.65143	-26.2225
 286	1	1	0.01292	21.3958	8.96781	-24.7872
 287	1	1	-0.039953	20.5594	11.1533	-24.2404
 288	1	2	0.00887	19.5413	11.9804	-22.5764
 289	1	1	-0.185129	20.9805	10.2573	-25.2234
 290	1	1	-0.021786	20.4442	10.8091	-22.925
 291	1	1	0.017184	21.2759	8.62195	-23.4006
 292	1	1	-0.198557	20.7388	9.53051	-22.4566
 293	1	2	-0.002904	19.668	12.377	-24.1126
 294	1	3	0.041883	18.0154	11.7744	-22.3941
 295	1	3	0.005012	17.5335	10.4849	-23.1241
 296	1	3	-0.193804	17.5083	12.8901	-23.3366
 297	1	3	0.042479	18.198	12.3349	-24.6039
 298	1	3	0.00144	17.663	10.871	-24.6531
 299	1	3	-0.061914	21.4879	6.1743	-23.964
 300	1	3	-0.051146	21.7361	7.25954	-22.9087
 301	1	5	0.024509	25.3241	4.74782	-30.3433
 302	1	5	0.045413	25.1751	7.27357	-31.0794
 303	1	5	0.093061	28.0431	2.88524	-30.9658
 304	1	5	0.054925	27.6117	2.98595	-29.2468
 305	1	5	0.0564	29.316	2.91666	-29.7303
 306	1	5	0.072515	27.2231	9.5587	-31.2095
 307	1	5	0.098261	27.7319	8.76464	-32.7136
 308	1	5	0.069746	28.9344	9.55138	-31.673
 309	1	5	0.056967	23.1681	7.42355	-30.0611
 310	1	5	0.059195	25.1871	8.83158	-28.8387
 311	1	5	0.053458	25.4428	4.64164	-27.62
 312	1	5	0.063182	23.3207	4.9401	-29.3396
 313	1	5	0.018836	25.106	7.15468	-26.7522
 314	1	5	0.033342	26.6811	7.01549	-27.5602
 315	1	4	0.15438	22.4093	9.43009	-27.3088
 316	1	4	0.144555	22.6756	4.63229	-25.9058
 317	1	5	0.03716	19.9489	12.717	-21.8752
 318	1	4	0.135836	20.8968	10.5245	-26.2706
 319	1	4	0.135526	20.5408	9.24511	-21.428
 320	1	5	0.041277	20.1423	13.3466	-24.3004
 321	1	5	0.00856	17.6606	11.8585	-21.3593
 322	1	5	-0.004553	18.0349	9.55058	-22.8449
 323	1	5	0.042416	17.879	13.8853	-23.0536
 324	1	5	0.068411	16.4164	12.9405	-23.4145
 325	1	5	0.009741	18.002	12.911	-25.5168
 326	1	5	0.002304	18.2413	10.1604	-25.2557
 327	1	5	0.050818	21.9916	5.24838	-23.6587
 328	1	5	0.045418	20.4138	5.95221	-24.0046
 329	1	5	0.050853	21.2276	6.98275	-21.9765
 330	1	5	0.040294	22.8094	7.30309	-22.6837
 331	1	1	-0.162043	32.3165	6.57912	-44.796
 332	1	1	-0.131368	34.4903	8.12362	-43.6041
 333	1	1	0.053767	33.6318	6.5583	-45.2871
 334	1	1	-0.089414	33.1317	8.3597	-43.3011
 335	1	2	0.07683	31.1695	7.82538	-42.6915
 336	1	1	-0.043169	32.1056	7.60711	-43.8602
 337	1	1	0.067251	34.6651	7.2776	-44.7195
 338	1	2	0.019658	32.3155	8.72502	-42.0636
 339	1	3	-0.13357	31.2897	5.50549	-45.1082
 340	1	3	-0.181622	35.6329	8.58473	-42.7183
 341	1	2	-0.091671	31.3544	8.38521	-39.9517
 342	1	1	0.028189	31.0805	7.6302	-38.6599
 343	1	3	-0.001388	32.6576	8.01809	-40.7254
 344	1	3	0.000341	31.0335	6.64793	-41.688
 345	1	2	-0.108264	30.2633	7.4282	-40.5979
 346	1	3	-0.051806	32.4578	6.51733	-41.0766
 347	1	1	0.038269	30.1757	6.77616	-39.2333
 348	1	1	0.012104	30.6111	5.15025	-37.529
 349	1	1	0.009692	31.476	6.07809	-36.8669
 350	1	1	-0.221685	31.7826	7.31504	-37.4946
 351	1	1	-0.227504	29.9891	5.47851	-38.7559
 352	1	1	0.01292	32.062	5.73244	-35.6222
 353	1	1	-0.039953	33.0364	6.33172	-33.5125
 354	1	2	0.00887	33.2593	5.34072	-31.6543
 355	1	1	-0.185129	32.5156	6.74876	-34.7381
 356	1	1	-0.021786	33.0784	5.02106	-33.129
 357	1	1	0.017184	32.0789	4.36518	-35.1981
 358	1	1	-0.198557	32.5563	3.99638	-33.9176
 359	1	2	-0.002904	33.185	6.86569	-32.0974
 360	1	3	0.041883	32.0745	5.20759	-30.665
 361	1	3	0.005012	30.7112	5.28102	-31.4137
 362	1	3	-0.193804	32.1555	6.60315	-30.0021
 363	1	3	0.042479	31.9578	7.39717	-31.3149
 364	1	3	0.00144	30.6301	6.79518	-31.8651
 365	1	3	-0.061914	30.3374	3.78587	-36.9159
 366	1	3	-0.051146	31.5554	3.28205	-36.1268
 367	1	5	0.024509	30.2262	8.32348	-42.9451
 368	1	5	0.045413	32.1	9.79436	-41.9563
 369	1	5	0.093061	31.3921	4.65663	-44.4212
 370	1	5	0.054925	31.412	5.12844	-46.1313
 371	1	5	0.0564	30.2685	5.89561	-45.0153
 372	1	5	0.072515	35.8181	7.86065	-41.916
 373	1	5	0.098261	35.4071	9.5533	-42.2554
 374	1	5	0.069746	36.5603	8.69599	-43.2938
 375	1	5	0.056967	31.1265	9.45739	-39.9245
 376	1	5	0.059195	33.6063	8.29941	-40.2534
 377	1	5	0.053458	30.5664	5.72794	-42.06
 378	1	5	0.063182	29.3305	7.89062	-40.9426
 379	1	5	0.018836	32.4903	5.86534	-40.1949
 380	1	5	0.033342	33.1963	6.14871	-41.795
 381	1	4	0.15438	32.5852	7.95524	-37.1433
 382	1	4	0.144555	29.416	4.74996	-39.3203
 383	1	5	0.03716	34.2125	5.03945	-31.2059
 384	1	4	0.135836	32.3717	7.80432	-34.941
 385	1	4	0.135526	32.4715	2.98151	-33.542
 386	1	5	0.041277	34.0812	7.44908	-31.8794
 387	1	5	0.00856	32.1519	4.36672	-29.9644
 388	1	5	-0.004553	30.5517	4.55271	-32.2174
 389	1	5	0.042416	33.1329	6.7939	-29.5363
 390	1	5	0.068411	31.3763	6.78516	-29.2505
 391	1	5	0.009741	31.932	8.48657	-31.1869
 392	1	5	0.002304	30.4311	6.94306	-32.9335
 393	1	5	0.050818	30.076	3.05185	-37.6886
 394	1	5	0.045418	29.4752	3.85961	-36.2408
 395	1	5	0.050853	31.2809	2.37834	-35.5683
 396	1	5	0.040294	32.3481	2.99422	-36.8296
 397	1	1	-0.162043	45.4916	3.95621	-53.6985
 398	1	1	-0.131368	46.0244	3.56694	-50.8533
 399	1	1	0.053767	46.1611	2.82609	-53.191
 400	1	1	-0.089414	45.6336	4.80746	-51.3923
 401	1	2	0.07683	44.372	6.12066	-52.4908
 402	1	1	-0.043169	45.3506	4.98239	-52.7423
 403	1	1	0.067251	46.3854	2.63369	-51.8422
 404	1	2	0.019658	44.718	5.93575	-50.9535
 405	1	3	-0.13357	44.8395	3.99515	-55.0686
 406	1	3	-0.181622	45.884	3.22455	-49.3814
 407	1	2	-0.091671	42.7004	6.93102	-50.3789
 408	1	1	0.028189	41.2091	6.96655	-50.1151
 409	1	3	-0.001388	43.3698	5.53328	-50.3057
 410	1	3	0.000341	42.8533	5.78996	-52.5647
 411	1	2	-0.108264	42.3295	7.10015	-51.9109
 412	1	3	-0.051806	42.662	4.73562	-51.4371
 413	1	1	0.038269	40.8829	7.10906	-51.4412
 414	1	1	0.012104	38.7467	6.09127	-51.0365
 415	1	1	0.009692	39.0899	5.90325	-49.661
 416	1	1	-0.221685	40.3752	6.30629	-49.2112
 417	1	1	-0.227504	39.6805	6.62272	-51.9566
 418	1	1	0.01292	38.2037	5.2112	-48.7909
 419	1	1	-0.039953	37.5486	4.43999	-46.6179
 420	1	2	0.00887	35.9074	3.38795	-45.8044
 421	1	1	-0.185129	38.4109	5.22379	-47.3807
 422	1	1	-0.021786	36.5019	3.7541	-47.1494
 423	1	1	0.017184	37.0854	4.49272	-49.3353
 424	1	1	-0.198557	36.1828	3.78622	-48.5032
 425	1	2	-0.002904	37.1281	4.20038	-45.1779
 426	1	3	0.041883	34.6748	4.14523	-45.2628
 427	1	3	0.005012	34.5513	5.54428	-45.9346
 428	1	3	-0.193804	35.2105	4.5051	-43.8583
 429	1	3	0.042479	36.4226	5.31706	-44.3622
 430	1	3	0.00144	35.743	6.36502	-45.2955
 431	1	3	-0.061914	37.3747	5.68098	-51.5442
 432	1	3	-0.051146	36.8788	4.41207	-50.8392
 433	1	5	0.024509	44.648	7.0771	-52.95
 434	1	5	0.045413	45.2268	6.76883	-50.4546
 435	1	5	0.093061	45.4274	3.429	-55.8019
 436	1	5	0.054925	44.7499	5.0253	-55.4352
 437	1	5	0.0564	43.8332	3.55961	-55.0335
 438	1	5	0.072515	46.2301	4.05213	-48.75
 439	1	5	0.098261	46.4686	2.33675	-49.1194
 440	1	5	0.069746	44.8369	3.02022	-49.128
 441	1	5	0.056967	43.2728	7.7389	-49.9073
 442	1	5	0.059195	43.4152	5.05915	-49.3178
 443	1	5	0.053458	42.4505	5.53438	-53.5524
 444	1	5	0.063182	42.661	8.01957	-52.4081
 445	1	5	0.018836	41.6081	4.52229	-51.2198
 446	1	5	0.033342	43.1573	3.78536	-51.6562
 447	1	4	0.15438	40.7717	6.01087	-48.2473
 448	1	4	0.144555	39.4937	6.6175	-53.0258
 449	1	5	0.03716	35.879	2.32139	-45.5664
 450	1	4	0.135836	39.1664	5.82949	-46.8941
 451	1	4	0.135526	35.3041	3.28207	-48.8935
 452	1	5	0.041277	37.8118	3.60442	-44.563
 453	1	5	0.00856	33.7439	3.56496	-45.2615
 454	1	5	-0.004553	34.5201	5.55901	-47.0311
 455	1	5	0.042416	35.5073	3.62269	-43.2784
 456	1	5	0.068411	34.5098	5.0899	-43.2542
 457	1	5	0.009741	37.0346	5.76176	-43.568
 458	1	5	0.002304	36.3975	6.85437	-46.0276
 459	1	5	0.050818	37.3854	5.51461	-52.6288
 460	1	5	0.045418	36.665	6.49677	-51.3561
 461	1	5	0.050853	35.821	4.25158	-51.0833
 462	1	5	0.040294	37.429	3.54645	-51.23
 463	1	1	-0.162043	57.2298	-4.82509	-46.8409
 464	1	1	-0.131368	54.8611	-5.46907	-45.3097
 465	1	1	0.053767	57.3032	-5.34046	-45.531
 466	1	1	-0.089414	54.8035	-5.1109	-46.6661
 467	1	2	0.07683	55.2411	-3.74388	-48.2294
 468	1	1	-0.043169	55.9429	-4.81553	-47.4107
 469	1	1	0.067251	56.1596	-5.64886	-44.7974
 470	1	2	0.019658	53.9593	-4.05915	-47.3659
 471	1	3	-0.13357	58.3576	-3.99307	-47.4283
 472	1	3	-0.181622	53.6578	-5.32316	-44.3923
 473	1	2	-0.091671	52.6235	-3.14763	-49.0173
 474	1	1	0.028189	51.8523	-3.11367	-50.3203
 475	1	3	-0.001388	52.9117	-4.54404	-48.3986
 476	1	3	0.000341	54.8088	-4.10381	-49.6776
 477	1	2	-0.108264	53.9113	-2.85732	-49.9073
 478	1	3	-0.051806	53.7817	-5.25244	-49.474
 479	1	1	0.038269	52.9569	-2.88455	-51.0865
 480	1	1	0.012104	51.5752	-2.19096	-52.9055
 481	1	1	0.009692	50.4038	-2.40183	-52.1026
 482	1	1	-0.221685	50.5595	-2.81633	-50.7479
 483	1	1	-0.227504	52.8769	-2.3616	-52.3736
 484	1	1	0.01292	49.1169	-2.12731	-52.6481
 485	1	1	-0.039953	46.7533	-1.7618	-52.4325
 486	1	2	0.00887	45.2233	-0.986287	-53.6795
 487	1	1	-0.185129	47.9764	-1.99202	-51.8058
 488	1	1	-0.021786	46.6252	-1.56955	-53.7754
 489	1	1	0.017184	48.9686	-1.92135	-54.0616
 490	1	1	-0.198557	47.7187	-1.58185	-54.6373
 491	1	2	-0.002904	45.3892	-1.18722	-52.109
 492	1	3	0.041883	44.9762	0.53956	-53.8108
 493	1	3	0.005012	46.2752	1.34538	-53.5218
 494	1	3	-0.193804	44.1641	0.767692	-52.5165
 495	1	3	0.042479	45.2669	0.25707	-51.5632
 496	1	3	0.00144	46.4977	1.12549	-51.9722
 497	1	3	-0.061914	51.4512	-1.59469	-54.2972
 498	1	3	-0.051146	50.1656	-2.06753	-54.9857
 499	1	5	0.024509	55.6882	-2.74637	-48.1414
 500	1	5	0.045413	53.5834	-3.27346	-46.7007
 501	1	5	0.093061	59.3369	-4.38868	-47.1307
 502	1	5	0.054925	58.2957	-2.95276	-47.085
 503	1	5	0.0564	58.3184	-3.99089	-48.5247
 504	1	5	0.072515	52.7279	-5.2083	-44.963
 505	1	5	0.098261	53.7637	-4.45079	-43.7376
 506	1	5	0.069746	53.5479	-6.20845	-43.7539
 507	1	5	0.056967	52.3105	-2.39244	-48.2877
 508	1	5	0.059195	52.0523	-5.10228	-48.0066
 509	1	5	0.053458	55.6114	-4.27826	-50.4049
 510	1	5	0.063182	54.4346	-1.90273	-49.774
 511	1	5	0.018836	53.2205	-5.49004	-50.3869
 512	1	5	0.033342	54.2461	-6.17558	-49.1037
 513	1	4	0.15438	49.7386	-2.90887	-50.0487
 514	1	4	0.144555	53.7657	-2.05126	-52.9141
 515	1	5	0.03716	44.4209	-1.57652	-54.1357
 516	1	4	0.135836	48.0286	-1.98739	-50.7246
 517	1	4	0.135526	47.6145	-1.32942	-55.6881
 518	1	5	0.041277	44.6659	-1.87349	-51.6566
 519	1	5	0.00856	44.4593	0.844035	-54.7294
 520	1	5	-0.004553	47.1444	1.09959	-54.144
 521	1	5	0.042416	43.2501	0.158466	-52.4745
 522	1	5	0.068411	43.8864	1.81301	-52.3503
 523	1	5	0.009741	45.0127	0.331466	-50.5027
 524	1	5	0.002304	47.4857	0.732291	-51.705
 525	1	5	0.050818	52.3158	-1.86235	-54.9179
 526	1	5	0.045418	51.439	-0.49973	-54.2221
 527	1	5	0.050853	50.021	-1.50094	-55.9144
 528	1	5	0.040294	50.2752	-3.12184	-55.2704
 529	1	1	-0.162043	48.2935	-0.0706617	-47.1435
 530	1	1	-0.131368	47.8034	-2.20161	-45.2143
 531	1	1	0.053767	47.0275	-0.663443	-46.9608
 532	1	1	-0.089414	48.9803	-1.43503	-45.2269
 533	1	2	0.07683	50.7207	-0.526344	-46.0326
 534	1	1	-0.043169	49.2088	-0.398311	-46.1234
 535	1	1	0.067251	46.7967	-1.66972	-46.0379
 536	1	2	0.019658	50.454	-1.73497	-45.0416
 537	1	3	-0.13357	48.705	0.653258	-48.4147
 538	1	3	-0.181622	47.7086	-3.56555	-44.555
 539	1	2	-0.091671	52.569	-1.4652	-44.162
 540	1	1	0.028189	53.6455	-0.891293	-43.2647
 541	1	3	-0.001388	51.0971	-1.28163	-43.708
 542	1	3	0.000341	51.4723	0.511337	-45.1462
 543	1	2	-0.108264	52.8364	-0.229198	-45.1111
 544	1	3	-0.051806	50.9007	0.260046	-43.7229
 545	1	1	0.038269	53.8664	0.1991	-44.075
 546	1	1	0.012104	56.1729	0.243577	-43.3942
 547	1	1	0.009692	55.9819	-0.942007	-42.6211
 548	1	1	-0.221685	54.682	-1.51674	-42.5686
 549	1	1	-0.227504	55.1316	0.777059	-44.1884
 550	1	1	0.01292	57.1155	-1.66879	-42.1487
 551	1	1	-0.039953	58.0259	-3.72315	-41.2344
 552	1	2	0.00887	59.4511	-4.97852	-42.1823
 553	1	1	-0.185129	56.9562	-2.82683	-41.3354
 554	1	1	-0.021786	59.2075	-3.50262	-41.9032
 555	1	1	0.017184	58.4016	-1.38901	-42.7139
 556	1	1	-0.198557	59.4445	-2.33763	-42.6329
 557	1	2	-0.002904	58.1189	-5.24327	-41.3712
 558	1	3	0.041883	59.1261	-5.58356	-43.5818
 559	1	3	0.005012	58.0285	-4.75588	-44.327
 560	1	3	-0.193804	58.3282	-6.82488	-43.1252
 561	1	3	0.042479	57.2336	-6.0209	-42.3887
 562	1	3	0.00144	56.7294	-5.07887	-43.5149
 563	1	3	-0.061914	57.5545	0.862953	-43.479
 564	1	3	-0.051146	58.6054	-0.233051	-43.6816
 565	1	5	0.024509	51.2187	-0.732649	-46.9863
 566	1	5	0.045413	50.7506	-2.74267	-45.3565
 567	1	5	0.093061	47.9991	0.463146	-49.2322
 568	1	5	0.054925	49.6943	0.323462	-48.7557
 569	1	5	0.0564	48.7514	1.73673	-48.2501
 570	1	5	0.072515	48.0155	-4.35709	-45.2497
 571	1	5	0.098261	46.6817	-3.77802	-44.2322
 572	1	5	0.069746	48.3551	-3.62236	-43.6704
 573	1	5	0.056967	52.7911	-2.46688	-44.544
 574	1	5	0.059195	50.7844	-1.8149	-42.8016
 575	1	5	0.053458	51.4815	1.54975	-45.5001
 576	1	5	0.063182	53.2554	-0.419501	-46.1067
 577	1	5	0.018836	51.4739	0.769375	-42.9376
 578	1	5	0.033342	49.848	0.55685	-43.629
 579	1	4	0.15438	54.5042	-2.51445	-42.1921
 580	1	4	0.144555	55.3257	1.54325	-44.9323
 581	1	5	0.03716	60.3541	-5.41449	-41.7409
 582	1	4	0.135836	55.9934	-3.13611	-40.95
 583	1	4	0.135526	60.3206	-2.25329	-43.2688
 584	1	5	0.041277	58.2508	-5.80083	-40.4373
 585	1	5	0.00856	60.0044	-5.81064	-44.1988
 586	1	5	-0.004553	58.23	-3.68728	-44.446
 587	1	5	0.042416	58.9029	-7.47456	-42.4503
 588	1	5	0.068411	57.9472	-7.4344	-43.9553
 589	1	5	0.009741	56.4438	-6.63511	-41.9384
 590	1	5	0.002304	56.1577	-4.20623	-43.197
 591	1	5	0.050818	57.7675	1.40345	-42.5478
 592	1	5	0.045418	57.6211	1.59401	-44.2946
 593	1	5	0.050853	58.5371	-0.608946	-44.7107
 594	1	5	0.040294	59.6081	0.197608	-43.565
 595	1	1	-0.162043	34.0054	2.32855	-41.0023
 596	1	1	-0.131368	36.5344	1.52622	-39.9105
 597	1	1	0.053767	34.865	3.26639	-40.3985
 598	1	1	-0.089414	35.5978	0.596447	-40.3885
 599	1	2	0.07683	34.3911	-0.123156	-41.9766
 600	1	1	-0.043169	34.4075	0.99495	-40.9542
 601	1	1	0.067251	36.1488	2.89985	-39.899
 602	1	2	0.019658	35.7189	-0.632053	-41.2848
 603	1	3	-0.13357	32.7475	2.75264	-41.7431
 604	1	3	-0.181622	37.9314	1.04263	-39.5394
 605	1	2	-0.091671	36.2513	-1.76577	-43.2631
 606	1	1	0.028189	36.8315	-1.89637	-44.6595
 607	1	3	-0.001388	36.7827	-0.575812	-42.4106
 608	1	3	0.000341	34.855	0.264089	-43.4132
 609	1	2	-0.108264	34.9648	-1.17439	-43.9748
 610	1	3	-0.051806	36.3471	0.673148	-43.2244
 611	1	1	0.038269	35.7339	-1.34393	-45.2746
 612	1	1	0.012104	37.1362	-0.528806	-47.0506
 613	1	1	0.009692	38.2722	-1.14862	-46.4439
 614	1	1	-0.221685	38.1203	-1.78335	-45.1835
 615	1	1	-0.227504	35.8634	-0.574329	-46.4343
 616	1	1	0.01292	39.5499	-1.04775	-47.0566
 617	1	1	-0.039953	41.7941	-1.80291	-47.3885
 618	1	2	0.00887	43.4775	-1.17935	-48.5021
 619	1	1	-0.185129	40.6095	-1.9165	-46.6667
 620	1	1	-0.021786	42.0062	-0.847752	-48.3321
 621	1	1	0.017184	39.773	-0.0656099	-48.081
 622	1	1	-0.198557	41.0394	0.0828704	-48.703
 623	1	2	-0.002904	43.2217	-2.31441	-47.4142
 624	1	3	0.041883	44.54	-0.28351	-47.814
 625	1	3	0.005012	45.8717	-1.08935	-47.8548
 626	1	3	-0.193804	44.1477	-0.376718	-46.3211
 627	1	3	0.042479	44.182	-1.92168	-46.27
 628	1	3	0.00144	45.6122	-2.23521	-46.7947
 629	1	3	-0.061914	37.2916	0.224098	-48.3626
 630	1	3	-0.051146	38.6643	0.910847	-48.4422
 631	1	5	0.024509	33.518	-0.784918	-41.9354
 632	1	5	0.045413	35.6726	-1.59445	-40.7622
 633	1	5	0.093061	32.0402	1.91868	-41.8309
 634	1	5	0.054925	32.9803	3.10133	-42.7553
 635	1	5	0.0564	32.2334	3.56419	-41.2143
 636	1	5	0.072515	38.2521	1.45568	-38.5749
 637	1	5	0.098261	38.6656	1.33496	-40.3004
 638	1	5	0.069746	37.9647	-0.0502711	-39.4488
 639	1	5	0.056967	36.1327	-2.70681	-42.7129
 640	1	5	0.059195	37.8339	-0.619193	-42.1007
 641	1	5	0.053458	34.2178	0.963374	-43.9684
 642	1	5	0.063182	34.0393	-1.75868	-43.9074
 643	1	5	0.018836	36.8986	0.773149	-44.1662