pySIMM System Object

936 atoms
1098 bonds
2268 angles
4178 dihedrals
112 impropers

5 atom types
9 bond types
18 angle types
19 dihedral types
2 improper types

-135.674272 135.674272 xlo xhi
-135.674272 135.674272 ylo yhi
-135.674272 135.674272 zlo zhi

Masses

   1	12.01	# ca
   2	12.01	# cy
   3	12.01	# c3
   4	1.008	# ha
   5	1.008	# hc

Pair Coeffs

   1	0.086	3.3996695084235347	# ca
   2	0.086	3.3996695084235347	# cy
   3	0.1094	3.3996695084235347	# c3
   4	0.015	2.59964245953351	# ha
   5	0.0157	2.649532787749369	# hc

Bond Coeffs

   1	461.1	1.3984	# ca,ca
   2	300.9	1.5375	# c3,c3
   3	305.9	1.5319	# c3,cy
   4	345.8	1.086	# ca,ha
   5	321.0	1.5156	# c3,ca
   6	285.0	1.5562	# cy,cy
   7	333.3	1.0949	# cy,hc
   8	330.6	1.0969	# c3,hc
   9	321.2	1.5154	# ca,cy

Angle Coeffs

   1	67.9	96.03	# cy,c3,cy
   2	45.97	114.53	# ca,cy,hc
   3	66.62	120.02	# ca,ca,ca
   4	61.4	116.81	# ca,cy,cy
   5	44.83	114.79	# cy,cy,hc
   6	46.43	110.14	# c3,cy,hc
   7	62.86	111.51	# c3,c3,c3
   8	63.15	112.07	# c3,c3,ca
   9	46.34	109.8	# c3,c3,hc
  10	48.18	119.88	# ca,ca,ha
  11	39.4	107.58	# hc,c3,hc
  12	63.53	120.77	# c3,ca,ca
  13	60.66	118.7	# c3,cy,cy
  14	63.51	120.86	# ca,ca,cy
  15	62.73	112.39	# c3,c3,cy
  16	46.29	110.75	# cy,c3,hc
  17	46.8	110.47	# ca,c3,hc
  18	62.8	113.57	# c3,cy,ca

Dihedral Coeffs

   1	3	0.18	3	0.0	0.25	2	180.0	0.2	1	180.0	# c3,c3,cy,cy
   2	1	0.16	3	0.0	# hc,c3,cy,cy
   3	1	0.16	3	0.0	# cy,c3,cy,hc
   4	1	0.16	3	0.0	# c3,c3,cy,hc
   5	1	0.15	3	0.0	# hc,c3,cy,hc
   6	1	3.625	2	180	# X,ca,ca,X
   7	1	0.15555555555555556	3	0	# X,cy,cy,X
   8	3	0.18	3	0	0.25	2	180	0.2	1	180	# c3,c3,c3,c3
   9	1	0.16	3	0	# hc,c3,c3,c3
  10	1	0.0	2	0.0	# ca,ca,cy,cy
  11	1	0.0	2	0.0	# ca,ca,cy,c3
  12	1	0.0	2	0	# X,c3,ca,X
  13	1	0.15555555555555556	3	0	# X,c3,c3,X
  14	3	0.38	3	180.0	0.0	2	0.0	1.15	1	0.0	# ca,ca,cy,hc
  15	3	0.18	3	0.0	0.25	2	180.0	0.2	1	180.0	# cy,c3,cy,cy
  16	1	0.16	3	0.0	# cy,c3,cy,ca
  17	1	0.16	3	0.0	# c3,c3,cy,ca
  18	1	0.16	3	0.0	# hc,c3,cy,ca
  19	1	0.15	3	0	# hc,c3,c3,hc

Improper Coeffs

   1	1.1	-1	2	# ca,ca,ca,c3
   2	1.1	-1	2	# ca,X,X,ha

Atoms

   1	1	1	-0.162043	-16.7309	51.4313	34.4905
   2	1	1	-0.131368	-18.5531	49.1712	34.8526
   3	1	1	0.053767	-16.3474	50.0902	34.3138
   4	1	1	-0.089414	-18.8656	50.4844	35.2566
   5	1	2	0.07683	-19.1081	52.5889	35.0992
   6	1	1	-0.043169	-17.9944	51.5566	35.1004
   7	1	1	0.067251	-17.1986	49.0205	34.5017
   8	1	2	0.019658	-20.1048	51.3644	35.2632
   9	1	3	-0.13357	-15.9463	52.605	33.9333
  10	1	3	-0.181622	-19.5952	48.0857	34.6564
  11	1	2	-0.091671	-21.823	52.639	34.3397
  12	1	1	0.028189	-22.6169	53.2918	33.221
  13	1	3	-0.001388	-20.9563	51.406	33.9637
  14	1	3	0.000341	-19.4951	53.2095	33.7314
  15	1	2	-0.108264	-20.8252	53.866	34.1907
  16	1	3	-0.051806	-19.969	51.9788	32.9073
  17	1	1	0.038269	-21.757	54.3504	33.0976
  18	1	1	0.012104	-22.5254	54.7471	30.8662
  19	1	1	0.009692	-23.4196	53.634	30.9732
  20	1	1	-0.221685	-23.412	52.851	32.161
  21	1	1	-0.227504	-21.6225	55.0632	31.9075
  22	1	1	0.01292	-24.2398	53.2732	29.8693
  23	1	1	-0.039953	-26.0643	52.0492	28.8987
  24	1	2	0.00887	-27.167	52.1874	27.0979
  25	1	1	-0.185129	-25.3347	52.3792	30.0407
  26	1	1	-0.021786	-25.8329	52.6176	27.6817
  27	1	1	0.017184	-24.003	53.857	28.5801
  28	1	1	-0.198557	-24.8435	53.5758	27.4756
  29	1	2	-0.002904	-27.4399	51.5299	28.5167
  30	1	3	0.041883	-28.3296	53.2013	26.9585
  31	1	3	0.005012	-28.1973	54.3973	27.94
  32	1	3	-0.193804	-29.4616	52.4153	27.651
  33	1	3	0.042479	-28.719	52.2615	28.9941
  34	1	3	0.00144	-28.4611	53.7562	29.3283
  35	1	3	-0.061914	-22.52	55.6133	29.6177
  36	1	3	-0.051146	-22.8185	54.7843	28.3625
  37	1	5	0.024509	-19.0651	53.3089	35.9249
  38	1	5	0.045413	-20.6925	51.3234	36.1876
  39	1	5	0.093061	-16.1108	53.5101	34.5311
  40	1	5	0.054925	-16.2477	52.8202	32.9007
  41	1	5	0.0564	-14.8693	52.3953	33.9337
  42	1	5	0.072515	-20.0134	48.1257	33.6431
  43	1	5	0.098261	-20.4213	48.1986	35.3693
  44	1	5	0.069746	-19.1601	47.0894	34.8035
  45	1	5	0.056967	-22.3602	52.5437	35.2909
  46	1	5	0.059195	-21.492	50.4879	33.6928
  47	1	5	0.053458	-18.7552	53.8668	33.2586
  48	1	5	0.063182	-20.7295	54.5421	35.0489
  49	1	5	0.018836	-20.4598	52.2555	31.9658
  50	1	5	0.033342	-19.1532	51.2882	32.6717
  51	1	4	0.15438	-23.9186	51.8959	32.2329
  52	1	4	0.144555	-20.8446	55.8103	31.786
  53	1	5	0.03716	-27.1279	51.4803	26.2619
  54	1	4	0.135836	-25.6569	52.0207	31.0115
  55	1	4	0.135526	-24.7373	54.0851	26.5226
  56	1	5	0.041277	-27.5635	50.4414	28.5035
  57	1	5	0.00856	-28.5503	53.5017	25.9264
  58	1	5	-0.004553	-27.2215	54.8934	27.8835
  59	1	5	0.042416	-29.6722	51.452	27.1659
  60	1	5	0.068411	-30.3938	52.9912	27.7385
  61	1	5	0.009741	-29.2858	51.7293	29.7684
  62	1	5	0.002304	-27.6274	53.9026	30.0246
  63	1	5	0.050818	-21.5572	56.1252	29.4945
  64	1	5	0.045418	-23.2832	56.3952	29.7213
  65	1	5	0.050853	-22.995	55.4592	27.5153
  66	1	5	0.040294	-21.935	54.184	28.1104
  67	1	1	-0.162043	-9.90414	37.2632	35.6949
  68	1	1	-0.131368	-12.6346	36.8915	34.697
  69	1	1	0.053767	-10.2566	36.3115	34.7236
  70	1	1	-0.089414	-12.3206	37.6909	35.8141
  71	1	2	0.07683	-11.346	39.1481	37.0091
  72	1	1	-0.043169	-11.0313	37.8395	36.3115
  73	1	1	0.067251	-11.5451	36.1048	34.2783
  74	1	2	0.019658	-12.8119	38.9978	36.4168
  75	1	3	-0.13357	-8.47896	37.7242	35.9395
  76	1	3	-0.181622	-13.9469	36.9818	33.9404
  77	1	2	-0.091671	-13.1081	41.3083	36.5665
  78	1	1	0.028189	-12.9307	42.7617	36.1535
  79	1	3	-0.001388	-12.947	40.2226	35.4657
  80	1	3	0.000341	-10.8013	40.4409	36.3542
  81	1	2	-0.108264	-11.6515	41.4356	37.1883
  82	1	3	-0.051806	-11.4932	40.4481	34.9608
  83	1	1	0.038269	-11.6826	42.8681	36.7025
  84	1	1	0.012104	-11.2042	44.7473	35.3056
  85	1	1	0.009692	-12.5204	44.6757	34.7397
  86	1	1	-0.221685	-13.3612	43.5855	35.1104
  87	1	1	-0.227504	-10.749	43.7896	36.2396
  88	1	1	0.01292	-12.9205	45.6375	33.7642
  89	1	1	-0.039953	-14.435	46.4851	32.0918
  90	1	2	0.00887	-14.7024	48.3635	31.1564
  91	1	1	-0.185129	-14.1639	45.5313	33.0747
  92	1	1	-0.021786	-13.6265	47.5604	31.8623
  93	1	1	0.017184	-12.0991	46.7917	33.5285
  94	1	1	-0.198557	-12.4774	47.7981	32.6094
  95	1	2	-0.002904	-15.6438	47.1063	31.4076
  96	1	3	0.041883	-15.4391	49.5062	31.9001
  97	1	3	0.005012	-15.3825	49.3026	33.4469
  98	1	3	-0.193804	-16.8922	49.0971	31.5675
  99	1	3	0.042479	-16.8094	47.7064	32.2371
 100	1	3	0.00144	-16.3456	48.0691	33.6785
 101	1	3	-0.061914	-10.1922	45.7514	34.7851
 102	1	3	-0.051146	-10.879	47.0599	34.3907
 103	1	5	0.024509	-11.2443	39.1169	38.1004
 104	1	5	0.045413	-13.6301	38.8935	37.1388
 105	1	5	0.093061	-8.3261	37.9923	36.9922
 106	1	5	0.054925	-8.24311	38.603	35.3268
 107	1	5	0.0564	-7.75949	36.9351	35.6873
 108	1	5	0.072515	-13.8751	37.7085	33.1219
 109	1	5	0.098261	-14.7637	37.2956	34.602
 110	1	5	0.069746	-14.2202	36.0111	33.5082
 111	1	5	0.056967	-13.9345	41.1258	37.2638
 112	1	5	0.059195	-13.7325	40.1717	34.7016
 113	1	5	0.053458	-9.7139	40.5836	36.3693
 114	1	5	0.063182	-11.5579	41.3219	38.2751
 115	1	5	0.018836	-11.368	41.3979	34.4258
 116	1	5	0.033342	-11.1411	39.6419	34.3064
 117	1	4	0.15438	-14.2939	43.3541	34.6151
 118	1	4	0.144555	-9.70944	43.7385	36.5478
 119	1	5	0.03716	-14.521	48.6005	30.1022
 120	1	4	0.135836	-14.9111	44.7818	33.2969
 121	1	4	0.135526	-11.9404	48.7389	32.534
 122	1	5	0.041277	-15.9962	46.607	30.4982
 123	1	5	0.00856	-15.1661	50.5175	31.5738
 124	1	5	-0.004553	-14.3863	49.196	33.8916
 125	1	5	0.042416	-17.08	49.0365	30.4863
 126	1	5	0.068411	-17.6479	49.7546	32.0098
 127	1	5	0.009741	-17.7424	47.1302	32.2025
 128	1	5	0.002304	-15.9081	47.2542	34.2674
 129	1	5	0.050818	-9.68211	45.3313	33.9088
 130	1	5	0.045418	-9.4193	45.9588	35.5363
 131	1	5	0.050853	-11.1886	47.5939	35.2984
 132	1	5	0.040294	-10.1604	47.7056	33.8698
 133	1	1	-0.162043	-11.2516	22.7193	31.2103
 134	1	1	-0.131368	-12.5898	23.9661	28.9172
 135	1	1	0.053767	-11.1456	22.2493	29.8925
 136	1	1	-0.089414	-12.8654	24.3106	30.257
 137	1	2	0.07683	-12.5186	24.859	32.2772
 138	1	1	-0.043169	-12.2532	23.6977	31.3442
 139	1	1	0.067251	-11.8015	22.8033	28.8146
 140	1	2	0.019658	-13.2091	25.5722	31.0373
 141	1	3	-0.13357	-10.3014	22.3195	32.3244
 142	1	3	-0.181622	-12.9701	24.8327	27.7314
 143	1	2	-0.091671	-12.8126	27.6464	32.0381
 144	1	1	0.028189	-11.9856	28.854	32.4528
 145	1	3	-0.001388	-12.3263	26.8316	30.8037
 146	1	3	0.000341	-11.3086	25.7654	32.6124
 147	1	2	-0.108264	-12.1229	26.9089	33.2663
 148	1	3	-0.051806	-10.9082	26.3536	31.2286
 149	1	1	0.038269	-11.386	28.2084	33.4993
 150	1	1	0.012104	-9.5962	29.7898	33.4853
 151	1	1	0.009692	-10.2366	30.5054	32.4213
 152	1	1	-0.221685	-11.4228	29.9761	31.8412
 153	1	1	-0.227504	-10.1393	28.5872	33.9906
 154	1	1	0.01292	-9.66104	31.7092	31.9341
 155	1	1	-0.039953	-9.83807	33.8438	30.8285
 156	1	2	0.00887	-8.7849	35.6581	31.1032
 157	1	1	-0.185129	-10.4475	32.6419	31.2014
 158	1	1	-0.021786	-8.56322	34.1636	31.213
 159	1	1	0.017184	-8.31935	32.0501	32.2979
 160	1	1	-0.198557	-7.77338	33.3142	31.9843
 161	1	2	-0.002904	-10.2562	35.2972	30.6253
 162	1	3	0.041883	-9.02979	36.4951	32.3856
 163	1	3	0.005012	-9.62055	35.6151	33.5368
 164	1	3	-0.193804	-10.2688	37.2854	31.9058
 165	1	3	0.042479	-11.1484	36.0376	31.6599
 166	1	3	0.00144	-11.0989	35.336	33.0456
 167	1	3	-0.061914	-8.31423	30.3147	34.1106
 168	1	3	-0.051146	-7.46605	31.0648	33.0775
 169	1	5	0.024509	-13.1583	24.6179	33.1345
 170	1	5	0.045413	-14.2813	25.7836	31.1216
 171	1	5	0.093061	-9.38397	22.9197	32.289
 172	1	5	0.054925	-10.0173	21.2631	32.2387
 173	1	5	0.0564	-10.763	22.4624	33.3094
 174	1	5	0.072515	-13.9016	25.3791	27.9243
 175	1	5	0.098261	-13.1178	24.2256	26.8296
 176	1	5	0.069746	-12.1838	25.5677	27.5192
 177	1	5	0.056967	-13.8986	27.7903	32.088
 178	1	5	0.059195	-12.4097	27.3185	29.8242
 179	1	5	0.053458	-10.5069	25.3206	33.2145
 180	1	5	0.063182	-12.7714	26.5961	34.0937
 181	1	5	0.018836	-10.1853	27.1757	31.3053
 182	1	5	0.033342	-10.4924	25.5994	30.5497
 183	1	4	0.15438	-11.8461	30.367	30.9227
 184	1	4	0.144555	-9.61073	27.9759	34.7152
 185	1	5	0.03716	-8.17583	36.1906	30.3643
 186	1	4	0.135836	-11.5145	32.5113	31.0584
 187	1	4	0.135526	-6.81797	33.6413	32.3829
 188	1	5	0.041277	-10.4893	35.592	29.5962
 189	1	5	0.00856	-8.18323	37.1212	32.6939
 190	1	5	-0.004553	-9.05289	34.7209	33.8167
 191	1	5	0.042416	-10.0786	37.8563	30.9861
 192	1	5	0.068411	-10.6737	37.9729	32.6584
 193	1	5	0.009741	-12.165	36.2617	31.3134
 194	1	5	0.002304	-11.3951	34.2811	33.0663
 195	1	5	0.050818	-7.72198	29.4984	34.5433
 196	1	5	0.045418	-8.56665	30.996	34.9332
 197	1	5	0.050853	-6.63478	31.5705	33.5849
 198	1	5	0.040294	-7.02138	30.3423	32.3812
 199	1	1	-0.162043	-12.669	11.0671	22.3251
 200	1	1	-0.131368	-11.7552	12.6298	20.0374
 201	1	1	0.053767	-11.6757	10.6385	21.4325
 202	1	1	-0.089414	-12.8608	12.997	20.8349
 203	1	2	0.07683	-14.0479	13.3664	22.5477
 204	1	1	-0.043169	-13.3578	12.2058	21.8656
 205	1	1	0.067251	-11.308	11.3138	20.2868
 206	1	2	0.019658	-13.4254	14.2914	21.4203
 207	1	3	-0.13357	-12.8396	10.4794	23.7146
 208	1	3	-0.181622	-11.0138	13.6125	19.1498
 209	1	2	-0.091671	-13.5289	16.1358	22.8979
 210	1	1	0.028189	-13.111	16.9753	24.1092
 211	1	3	-0.001388	-12.4576	15.2223	22.2244
 212	1	3	0.000341	-13.4042	13.8586	23.8586
 213	1	2	-0.108264	-14.2074	15.1776	23.9616
 214	1	3	-0.051806	-11.9904	14.321	23.402
 215	1	1	0.038269	-13.7097	16.1311	25.0153
 216	1	1	0.012104	-12.1122	16.7337	26.692
 217	1	1	0.009692	-11.5171	17.6685	25.7898
 218	1	1	-0.221685	-11.9902	17.746	24.4504
 219	1	1	-0.227504	-13.1915	15.9233	26.2913
 220	1	1	0.01292	-10.4073	18.4392	26.2243
 221	1	1	-0.039953	-9.06423	20.4383	26.1617
 222	1	2	0.00887	-7.96809	21.4137	27.6863
 223	1	1	-0.185129	-10.1094	19.6863	25.6109
 224	1	1	-0.021786	-8.35503	20.0146	27.2577
 225	1	1	0.017184	-9.67506	18.0275	27.3826
 226	1	1	-0.198557	-8.64919	18.8285	27.9261
 227	1	2	-0.002904	-8.76873	21.9171	26.4118
 228	1	3	0.041883	-8.71626	22.0838	28.8666
 229	1	3	0.005012	-10.1542	21.4916	29.0383
 230	1	3	-0.193804	-8.99855	23.451	28.2036
 231	1	3	0.042479	-9.82927	22.8731	27.0337
 232	1	3	0.00144	-10.9321	22.0823	27.793
 233	1	3	-0.061914	-11.5675	16.5652	28.1
 234	1	3	-0.051146	-10.0451	16.7419	28.101
 235	1	5	0.024509	-15.1409	13.2857	22.5829
 236	1	5	0.045413	-14.1318	14.8277	20.7764
 237	1	5	0.093061	-12.1399	10.9413	24.4221
 238	1	5	0.054925	-12.649	9.3989	23.7107
 239	1	5	0.0564	-13.8582	10.6374	24.0901
 240	1	5	0.072515	-11.7006	14.3554	18.7254
 241	1	5	0.098261	-10.5204	13.0984	18.3156
 242	1	5	0.069746	-10.2452	14.1492	19.7193
 243	1	5	0.056967	-14.1945	16.6408	22.188
 244	1	5	0.059195	-11.6694	15.7266	21.6518
 245	1	5	0.053458	-13.4535	13.1828	24.7207
 246	1	5	0.063182	-15.2976	15.0645	23.9198
 247	1	5	0.018836	-11.4457	14.8736	24.1772
 248	1	5	0.033342	-11.3549	13.4906	23.0771
 249	1	4	0.15438	-11.4368	18.2786	23.684
 250	1	4	0.144555	-13.5623	15.119	26.9187
 251	1	5	0.03716	-6.89745	21.6466	27.6834
 252	1	4	0.135836	-10.7636	20.1221	24.8627
 253	1	4	0.135526	-8.19288	18.5969	28.8837
 254	1	5	0.041277	-8.15571	22.4204	25.6561
 255	1	5	0.00856	-8.1435	22.1407	29.8007
 256	1	5	-0.004553	-10.2372	20.408	29.1649
 257	1	5	0.042416	-8.0831	23.9552	27.8636
 258	1	5	0.068411	-9.55529	24.1466	28.8439
 259	1	5	0.009741	-10.2246	23.6302	26.345
 260	1	5	0.002304	-11.4819	21.337	27.2067
 261	1	5	0.050818	-11.8218	15.58	28.5108
 262	1	5	0.045418	-12.0225	17.3153	28.7597
 263	1	5	0.050853	-9.67765	16.741	29.135
 264	1	5	0.040294	-9.57696	15.8892	27.5926
 265	1	1	-0.162043	-6.62716	-0.890818	13.9346
 266	1	1	-0.131368	-5.09188	1.24021	12.6729
 267	1	1	0.053767	-5.45083	-1.13245	13.2058
 268	1	1	-0.089414	-6.0696	1.4955	13.656
 269	1	2	0.07683	-8.05674	1.35047	14.3854
 270	1	1	-0.043169	-6.83747	0.472242	14.1974
 271	1	1	0.067251	-4.75672	-0.124526	12.5581
 272	1	2	0.019658	-7.16178	2.54077	13.843
 273	1	3	-0.13357	-7.67179	-1.9618	14.196
 274	1	3	-0.181622	-4.62472	2.29042	11.6822
 275	1	2	-0.091671	-8.47194	4.09003	15.0209
 276	1	1	0.028189	-9.01366	4.80518	16.2589
 277	1	3	-0.001388	-7.03931	3.4876	15.0804
 278	1	3	0.000341	-8.39762	1.75046	15.8342
 279	1	2	-0.108264	-9.39855	2.88024	15.4673
 280	1	3	-0.051806	-7.1231	2.51587	16.2922
 281	1	1	0.038269	-9.82881	3.76077	16.6113
 282	1	1	0.012104	-9.87254	4.50027	18.8767
 283	1	1	0.009692	-9.0209	5.6032	18.5403
 284	1	1	-0.221685	-8.53573	5.72244	17.2057
 285	1	1	-0.227504	-10.2253	3.52667	17.9219
 286	1	1	0.01292	-8.61098	6.50429	19.5635
 287	1	1	-0.039953	-7.72675	8.61362	20.3355
 288	1	2	0.00887	-7.90787	9.63754	22.1703
 289	1	1	-0.185129	-8.08578	7.7958	19.2543
 290	1	1	-0.021786	-7.95035	8.23546	21.6295
 291	1	1	0.017184	-8.80879	6.13366	20.9354
 292	1	1	-0.198557	-8.53361	7.02854	21.988
 293	1	2	-0.002904	-7.56203	10.0994	20.6882
 294	1	3	0.041883	-9.25027	10.3516	22.4577
 295	1	3	0.005012	-10.3948	9.83487	21.5075
 296	1	3	-0.193804	-8.87655	11.7176	21.8412
 297	1	3	0.042479	-8.65751	11.1706	20.4111
 298	1	3	0.00144	-10.0233	10.5046	20.1259
 299	1	3	-0.061914	-10.3989	4.32305	20.2888
 300	1	3	-0.051146	-9.34277	4.76147	21.3012
 301	1	5	0.024509	-8.92893	1.04229	13.7965
 302	1	5	0.045413	-7.47601	3.05101	12.9252
 303	1	5	0.093061	-7.23322	-2.81244	14.7324
 304	1	5	0.054925	-8.09115	-2.3368	13.2541
 305	1	5	0.0564	-8.50007	-1.57502	14.8026
 306	1	5	0.072515	-5.2295	2.25825	10.7675
 307	1	5	0.098261	-3.57693	2.12748	11.4008
 308	1	5	0.069746	-4.70478	3.29902	12.1063
 309	1	5	0.056967	-8.71278	4.57457	14.0672
 310	1	5	0.059195	-6.20446	4.19934	15.0781
 311	1	5	0.053458	-8.763	0.952838	16.493
 312	1	5	0.063182	-10.2051	2.58441	14.7852
 313	1	5	0.018836	-7.25735	3.03431	17.25
 314	1	5	0.033342	-6.24199	1.86717	16.3791
 315	1	4	0.15438	-7.75036	6.42117	16.9398
 316	1	4	0.144555	-10.7474	2.61523	18.1953
 317	1	5	0.03716	-7.13911	9.85502	22.9203
 318	1	4	0.135836	-8.05273	8.18021	18.2406
 319	1	4	0.135526	-8.7986	6.81128	23.0181
 320	1	5	0.041277	-6.55377	10.5093	20.5636
 321	1	5	0.00856	-9.53101	10.3908	23.5175
 322	1	5	-0.004553	-10.5567	8.7517	21.465
 323	1	5	0.042416	-7.96178	12.1465	22.2741
 324	1	5	0.068411	-9.67029	12.4687	21.9153
 325	1	5	0.009741	-8.37713	11.9349	19.6757
 326	1	5	0.002304	-10.0441	9.81357	19.2741
 327	1	5	0.050818	-10.6801	3.28042	20.4839
 328	1	5	0.045418	-11.3041	4.92965	20.4202
 329	1	5	0.050853	-9.7764	4.75448	22.3092
 330	1	5	0.040294	-8.51713	4.03809	21.3027
 331	1	1	-0.162043	-6.3886	-4.09316	-0.914557
 332	1	1	-0.131368	-3.70346	-3.02841	-0.452037
 333	1	1	0.053767	-5.22807	-4.64614	-1.48476
 334	1	1	-0.089414	-4.87739	-2.34614	-0.0729157
 335	1	2	0.07683	-6.78457	-2.03013	0.800702
 336	1	1	-0.043169	-6.15333	-2.84024	-0.315344
 337	1	1	0.067251	-3.96168	-4.13262	-1.28896
 338	1	2	0.019658	-5.32691	-1.47334	1.09298
 339	1	3	-0.13357	-7.70668	-4.83927	-0.812379
 340	1	3	-0.181622	-2.33125	-2.70037	0.106599
 341	1	2	-0.091671	-5.96536	-0.996691	3.29903
 342	1	1	0.028189	-6.28771	-1.32281	4.75256
 343	1	3	-0.001388	-5.02493	-1.97589	2.5354
 344	1	3	0.000341	-7.16137	-2.79695	2.09241
 345	1	2	-0.108264	-7.41595	-1.54999	2.97893
 346	1	3	-0.051806	-5.79136	-3.32678	2.60402
 347	1	1	0.038269	-7.53984	-1.80603	4.46546
 348	1	1	0.012104	-7.44348	-3.23037	6.39341
 349	1	1	0.009692	-6.1763	-2.67187	6.76142
 350	1	1	-0.221685	-5.5491	-1.77096	5.8536
 351	1	1	-0.227504	-8.10874	-2.83363	5.21308
 352	1	1	0.01292	-5.51517	-3.12407	7.94254
 353	1	1	-0.039953	-3.63862	-3.17435	9.45896
 354	1	2	0.00887	-3.33815	-3.93321	11.4055
 355	1	1	-0.185129	-4.2498	-2.59816	8.34115
 356	1	1	-0.021786	-4.23353	-4.15202	10.2045
 357	1	1	0.017184	-6.16993	-4.06186	8.80866
 358	1	1	-0.198557	-5.54006	-4.56764	9.96803
 359	1	2	-0.002904	-2.6285	-2.80212	10.5423
 360	1	3	0.041883	-3.87831	-3.16052	12.631
 361	1	3	0.005012	-5.03171	-2.1941	12.2152
 362	1	3	-0.193804	-2.69063	-2.19155	12.8308
 363	1	3	0.042479	-2.80543	-1.53692	11.4336
 364	1	3	0.00144	-4.28093	-1.04534	11.4382
 365	1	3	-0.061914	-8.01773	-4.42257	7.13676
 366	1	3	-0.051146	-7.63648	-4.40112	8.61618
 367	1	5	0.024509	-7.53728	-1.30525	0.468832
 368	1	5	0.045413	-5.17103	-0.397664	0.951221
 369	1	5	0.093061	-7.92992	-5.37222	-1.74508
 370	1	5	0.054925	-8.53823	-4.15189	-0.613122
 371	1	5	0.0564	-7.6755	-5.57641	-0.000547915
 372	1	5	0.072515	-1.5368	-3.04913	-0.564997
 373	1	5	0.098261	-2.18267	-3.17763	1.08288
 374	1	5	0.069746	-2.20833	-1.61784	0.235509
 375	1	5	0.056967	-5.77869	0.0637672	3.09153
 376	1	5	0.059195	-3.97219	-1.99085	2.84318
 377	1	5	0.053458	-7.97761	-3.52563	2.01562
 378	1	5	0.063182	-8.14746	-0.84073	2.57307
 379	1	5	0.018836	-5.84074	-3.741	3.61862
 380	1	5	0.033342	-5.3618	-4.09194	1.94929
 381	1	4	0.15438	-4.50794	-1.48767	5.93545
 382	1	4	0.144555	-8.97813	-3.37008	4.84605
 383	1	5	0.03716	-2.69217	-4.77093	11.691
 384	1	4	0.135836	-3.78119	-1.75065	7.85745
 385	1	4	0.135526	-6.0759	-5.17319	10.6927
 386	1	5	0.041277	-1.57608	-2.9975	10.3089
 387	1	5	0.00856	-4.11074	-3.78463	13.503
 388	1	5	-0.004553	-5.87949	-2.63416	11.6796
 389	1	5	0.042416	-1.73524	-2.71574	12.9746
 390	1	5	0.068411	-2.82623	-1.49062	13.6649
 391	1	5	0.009741	-2.07549	-0.738853	11.2488
 392	1	5	0.002304	-4.71189	-0.810248	10.4571
 393	1	5	0.050818	-7.63481	-5.34509	6.68192
 394	1	5	0.045418	-9.11108	-4.454	7.04555
 395	1	5	0.050853	-8.24595	-3.64782	9.13185
 396	1	5	0.040294	-7.88178	-5.37059	9.06842
 397	1	1	-0.162043	4.4048	-9.55218	-11.8534
 398	1	1	-0.131368	5.93378	-9.35635	-9.35937
 399	1	1	0.053767	5.50227	-10.3791	-11.5492
 400	1	1	-0.089414	4.99593	-8.38955	-9.7689
 401	1	2	0.07683	3.19754	-7.52598	-10.4897
 402	1	1	-0.043169	4.28852	-8.46927	-10.9602
 403	1	1	0.067251	6.23278	-10.2763	-10.3825
 404	1	2	0.019658	3.99424	-7.44985	-9.11628
 405	1	3	-0.13357	3.37655	-9.87288	-12.9225
 406	1	3	-0.181622	6.45999	-9.47204	-7.94084
 407	1	2	-0.091671	2.03728	-6.83197	-8.01063
 408	1	1	0.028189	0.669804	-7.03299	-7.37448
 409	1	3	-0.001388	2.99935	-8.05102	-8.0808
 410	1	3	0.000341	1.83337	-8.14948	-10.1007
 411	1	2	-0.108264	1.25725	-6.88918	-9.40143
 412	1	3	-0.051806	2.19672	-9.08883	-8.91546
 413	1	1	0.038269	0.0121058	-7.077	-8.56375
 414	1	1	0.012104	-1.9932	-7.73875	-7.47179
 415	1	1	0.009692	-1.31791	-7.70279	-6.20279
 416	1	1	-0.221685	0.0734501	-7.38577	-6.16306
 417	1	1	-0.227504	-1.31275	-7.47669	-8.68538
 418	1	1	0.01292	-2.03959	-8.00387	-5.01135
 419	1	1	-0.039953	-2.2756	-8.0454	-2.61838
 420	1	2	0.00887	-3.87497	-8.35958	-1.26901
 421	1	1	-0.185129	-1.50051	-7.69654	-3.72621
 422	1	1	-0.021786	-3.52802	-8.56667	-2.72849
 423	1	1	0.017184	-3.35537	-8.57467	-5.10145
 424	1	1	-0.198557	-4.143	-8.81422	-3.95002
 425	1	2	-0.002904	-2.40356	-7.76375	-1.12646
 426	1	3	0.041883	-4.7755	-7.17221	-0.846197
 427	1	3	0.005012	-4.7232	-6.01803	-1.89765
 428	1	3	-0.193804	-3.89547	-6.61658	0.296161
 429	1	3	0.042479	-2.66367	-6.33021	-0.593967
 430	1	3	0.00144	-3.27003	-5.4235	-1.70239
 431	1	3	-0.061914	-3.48675	-8.00396	-7.54757
 432	1	3	-0.051146	-3.93619	-8.96938	-6.44802
 433	1	5	0.024509	3.12052	-6.59936	-11.0709
 434	1	5	0.045413	4.40204	-6.47213	-8.83419
 435	1	5	0.093061	2.57757	-10.5048	-12.5149
 436	1	5	0.054925	3.83368	-10.4074	-13.7643
 437	1	5	0.0564	2.91638	-8.95773	-13.3154
 438	1	5	0.072515	5.85176	-10.172	-7.35492
 439	1	5	0.098261	6.44322	-8.50015	-7.43229
 440	1	5	0.069746	7.49532	-9.83521	-7.93386
 441	1	5	0.056967	2.5268	-5.88577	-7.75034
 442	1	5	0.059195	3.42404	-8.4017	-7.13205
 443	1	5	0.053458	1.23738	-8.58248	-10.9134
 444	1	5	0.063182	1.25857	-5.98223	-10.0182
 445	1	5	0.018836	1.31321	-9.46912	-8.38679
 446	1	5	0.033342	2.8067	-9.94668	-9.22439
 447	1	4	0.15438	0.671765	-7.4426	-5.26207
 448	1	4	0.144555	-1.79493	-7.55892	-9.65443
 449	1	5	0.03716	-4.06922	-9.26286	-0.680068
 450	1	4	0.135836	-0.568291	-7.16312	-3.58539
 451	1	4	0.135526	-5.16739	-9.16917	-4.00895
 452	1	5	0.041277	-1.73941	-8.33432	-0.467915
 453	1	5	0.00856	-5.79178	-7.45269	-0.542558
 454	1	5	-0.004553	-4.97044	-6.28843	-2.93172
 455	1	5	0.042416	-3.69087	-7.36357	1.07602
 456	1	5	0.068411	-4.31007	-5.72436	0.777654
 457	1	5	0.009741	-1.81746	-5.87669	-0.0630587
 458	1	5	0.002304	-2.68752	-5.33764	-2.62813
 459	1	5	0.050818	-3.76727	-8.41344	-8.52638
 460	1	5	0.045418	-4.0256	-7.05449	-7.43463
 461	1	5	0.050853	-5.0329	-8.9942	-6.41445
 462	1	5	0.040294	-3.60364	-9.98434	-6.70061
 463	1	1	-0.162043	18.3454	-17.7137	-12.6277
 464	1	1	-0.131368	17.1488	-18.2526	-10.0161
 465	1	1	0.053767	18.3817	-18.977	-12.0114
 466	1	1	-0.089414	17.3435	-16.9491	-10.5129
 467	1	2	0.07683	17.2035	-15.3585	-11.9124
 468	1	1	-0.043169	17.906	-16.6957	-11.7586
 469	1	1	0.067251	17.8127	-19.2301	-10.7797
 470	1	2	0.019658	16.571	-15.6397	-10.4846
 471	1	3	-0.13357	18.5908	-17.4994	-14.1084
 472	1	3	-0.181622	16.1891	-18.5847	-8.88875
 473	1	2	-0.091671	14.8216	-14.1838	-10.9848
 474	1	1	0.028189	13.4993	-13.7708	-11.6053
 475	1	3	-0.001388	15.0439	-15.7049	-10.7571
 476	1	3	0.000341	15.9733	-15.3132	-12.8583
 477	1	2	-0.108264	15.4464	-13.9207	-12.4226
 478	1	3	-0.051806	14.9677	-16.2944	-12.1934
 479	1	1	0.038269	14.0355	-13.5557	-12.8448
 480	1	1	0.012104	11.8689	-13.7706	-13.838
 481	1	1	0.009692	11.2899	-13.9855	-12.5436
 482	1	1	-0.221685	12.148	-14.0624	-11.4109
 483	1	1	-0.227504	13.2679	-13.6333	-14.0052
 484	1	1	0.01292	9.88466	-14.1759	-12.4107
 485	1	1	-0.039953	7.87731	-14.3402	-11.0992
 486	1	2	0.00887	5.79885	-14.3279	-11.5026
 487	1	1	-0.185129	9.25605	-14.1267	-11.1307
 488	1	1	-0.021786	7.12531	-14.4734	-12.2247
 489	1	1	0.017184	9.07869	-14.3729	-13.5828
 490	1	1	-0.198557	7.66675	-14.4668	-13.5063
 491	1	2	-0.002904	6.67505	-14.1897	-10.1778
 492	1	3	0.041883	5.02541	-12.9838	-11.5456
 493	1	3	0.005012	5.98353	-11.7898	-11.8491
 494	1	3	-0.193804	4.76479	-12.8135	-10.0313
 495	1	3	0.042479	6.25824	-12.803	-9.62719
 496	1	3	0.00144	6.83088	-11.6647	-10.5176
 497	1	3	-0.061914	10.9926	-13.6791	-15.0763
 498	1	3	-0.051146	9.73325	-14.5431	-14.9437
 499	1	5	0.024509	17.8736	-14.4949	-11.9987
 500	1	5	0.045413	16.8544	-14.9583	-9.67408
 501	1	5	0.093061	19.3068	-18.2302	-14.5049
 502	1	5	0.054925	18.9968	-16.498	-14.2929
 503	1	5	0.0564	17.6582	-17.6023	-14.6747
 504	1	5	0.072515	15.1739	-18.739	-9.27447
 505	1	5	0.098261	16.1532	-17.7751	-8.14962
 506	1	5	0.069746	16.4952	-19.5006	-8.36781
 507	1	5	0.056967	15.1677	-13.5438	-10.1642
 508	1	5	0.059195	14.4243	-16.1868	-9.991
 509	1	5	0.053458	16.1698	-15.4592	-13.9244
 510	1	5	0.063182	16.1782	-13.1085	-12.5101
 511	1	5	0.018836	13.9618	-16.2397	-12.6283
 512	1	5	0.033342	15.2995	-17.3356	-12.2411
 513	1	4	0.15438	11.8096	-14.4002	-10.4391
 514	1	4	0.144555	13.7292	-13.5957	-14.987
 515	1	5	0.03716	5.13055	-15.1956	-11.5292
 516	1	4	0.135836	9.7842	-13.8823	-10.2169
 517	1	4	0.135526	7.03966	-14.5424	-14.3892
 518	1	5	0.041277	6.52603	-14.9879	-9.44232
 519	1	5	0.00856	4.11929	-12.9949	-12.1642
 520	1	5	-0.004553	6.58408	-11.8698	-12.7639
 521	1	5	0.042416	4.21515	-13.6613	-9.59866
 522	1	5	0.068411	4.22886	-11.8908	-9.77532
 523	1	5	0.009741	6.43692	-12.6612	-8.55403
 524	1	5	0.002304	7.9177	-11.6648	-10.6668
 525	1	5	0.050818	11.546	-13.9853	-15.9734
 526	1	5	0.045418	10.6963	-12.6336	-15.2286
 527	1	5	0.050853	9.0353	-14.2944	-15.7531
 528	1	5	0.040294	10.0073	-15.5976	-15.0767
 529	1	1	-0.162043	16.6246	-33.7687	-10.6987
 530	1	1	-0.131368	14.5405	-32.0743	-9.54027
 531	1	1	0.053767	15.2741	-33.8269	-11.089
 532	1	1	-0.089414	15.8269	-32.1997	-8.98121
 533	1	2	0.07683	17.9539	-32.1702	-8.95081
 534	1	1	-0.043169	16.8205	-33.0062	-9.52851
 535	1	1	0.067251	14.2914	-33.0283	-10.5415
 536	1	2	0.019658	16.8176	-31.2475	-8.33986
 537	1	3	-0.13357	17.7617	-34.3164	-11.5417
 538	1	3	-0.181622	13.5969	-30.9283	-9.22304
 539	1	2	-0.091671	18.2895	-29.4524	-8.26867
 540	1	1	0.028189	19.0623	-28.282	-8.84525
 541	1	3	-0.001388	17.0234	-29.8846	-9.05112
 542	1	3	0.000341	18.7139	-31.2306	-9.92611
 543	1	2	-0.108264	19.4424	-30.3685	-8.85362
 544	1	3	-0.051806	17.5903	-30.2879	-10.4428
 545	1	1	0.038269	20.0749	-29.0715	-9.33122
 546	1	1	0.012104	20.5673	-27.4335	-11.0144
 547	1	1	0.009692	19.4546	-26.6431	-10.5857
 548	1	1	-0.221685	18.6695	-27.1093	-9.49413
 549	1	1	-0.227504	20.8218	-28.7049	-10.4504
 550	1	1	0.01292	19.0755	-25.486	-11.3286
 551	1	1	-0.039953	17.6898	-23.5489	-11.6917
 552	1	2	0.00887	17.126	-22.4539	-13.4135
 553	1	1	-0.185129	18.0158	-24.6403	-10.8893
 554	1	1	-0.021786	18.2686	-23.3185	-12.9061
 555	1	1	0.017184	19.6735	-25.2333	-12.6102
 556	1	1	-0.198557	19.2265	-24.1758	-13.4401
 557	1	2	-0.002904	16.4536	-22.7243	-11.9988
 558	1	3	0.041883	17.2669	-20.9104	-13.4397
 559	1	3	0.005012	18.3615	-20.4368	-12.4363
 560	1	3	-0.193804	15.9627	-20.5386	-12.6995
 561	1	3	0.042479	16.3069	-21.3051	-11.4022
 562	1	3	0.00144	17.7021	-20.723	-11.0265
 563	1	3	-0.061914	21.4653	-26.948	-12.1381
 564	1	3	-0.051146	20.6545	-26.2232	-13.2166
 565	1	5	0.024509	18.6008	-32.6979	-8.24022
 566	1	5	0.045413	16.7584	-31.1871	-7.24682
 567	1	5	0.093061	17.4385	-35.1877	-12.125
 568	1	5	0.054925	18.6048	-34.6284	-10.9128
 569	1	5	0.0564	18.1257	-33.5567	-12.2445
 570	1	5	0.072515	12.5503	-31.2539	-9.2695
 571	1	5	0.098261	13.7274	-30.1072	-9.93886
 572	1	5	0.069746	13.7796	-30.5319	-8.21647
 573	1	5	0.056967	18.1668	-29.4316	-7.17905
 574	1	5	0.059195	16.1756	-29.1887	-9.0442
 575	1	5	0.053458	19.342	-31.7116	-10.6858
 576	1	5	0.063182	20.0398	-30.9427	-8.1354
 577	1	5	0.018836	17.9741	-29.4366	-11.0178
 578	1	5	0.033342	16.8549	-30.8061	-11.0658
 579	1	4	0.15438	17.7181	-26.6729	-9.22466
 580	1	4	0.144555	21.538	-29.3912	-10.891
 581	1	5	0.03716	16.5861	-22.8297	-14.2897
 582	1	4	0.135836	17.4339	-24.82	-9.99573
 583	1	4	0.135526	19.5524	-24.0814	-14.4716
 584	1	5	0.041277	15.5006	-23.2647	-12.0066
 585	1	5	0.00856	17.3597	-20.4733	-14.442
 586	1	5	-0.004553	19.3587	-20.8758	-12.5689
 587	1	5	0.042416	15.0653	-20.9298	-13.1995
 588	1	5	0.068411	15.8331	-19.4617	-12.5554
 589	1	5	0.009741	15.5567	-21.2153	-10.6067
 590	1	5	0.002304	18.3168	-21.3316	-10.3511
 591	1	5	0.050818	22.0185	-27.7785	-12.5946
 592	1	5	0.045418	22.2133	-26.2587	-11.7259
 593	1	5	0.050853	21.3417	-25.7187	-13.9078
 594	1	5	0.040294	20.0987	-26.9641	-13.8055
 595	1	1	-0.162043	10.3223	-22.1403	-21.3168
 596	1	1	-0.131368	10.1937	-21.6986	-18.4472
 597	1	1	0.053767	10.7746	-20.9405	-20.7293
 598	1	1	-0.089414	9.67133	-22.832	-19.089
 599	1	2	0.07683	9.2739	-24.4682	-20.3766
 600	1	1	-0.043169	9.71253	-23.0249	-20.4379
 601	1	1	0.067251	10.7035	-20.6833	-19.3233
 602	1	2	0.019658	9.2105	-24.259	-18.7984
 603	1	3	-0.13357	10.4696	-22.438	-22.7996
 604	1	3	-0.181622	10.161	-21.6374	-16.9276
 605	1	2	-0.091671	9.44239	-26.5748	-18.5332
 606	1	1	0.028189	10.182	-27.9035	-18.4735
 607	1	3	-0.001388	10.2584	-25.2747	-18.2592
 608	1	3	0.000341	10.3811	-25.5349	-20.5766
 609	1	2	-0.108264	9.53575	-26.7456	-20.1163
 610	1	3	-0.051806	11.3404	-25.2892	-19.3765
 611	1	1	0.038269	10.2784	-28.0308	-19.8244
 612	1	1	0.012104	11.8155	-29.8325	-19.5774
 613	1	1	0.009692	11.6662	-29.7625	-18.1494
 614	1	1	-0.221685	10.8769	-28.7188	-17.5806
 615	1	1	-0.227504	11.1461	-28.9286	-20.4376
 616	1	1	0.01292	12.2991	-30.7378	-17.3288
 617	1	1	-0.039953	12.4767	-31.9954	-15.3002
 618	1	2	0.00887	13.5879	-33.656	-14.6025
 619	1	1	-0.185129	11.8912	-30.9269	-15.9752
 620	1	1	-0.021786	13.4277	-32.7986	-15.8441
 621	1	1	0.017184	13.3161	-31.5882	-17.886
 622	1	1	-0.198557	13.9172	-32.6294	-17.1342
 623	1	2	-0.002904	12.4628	-32.7209	-13.9671
 624	1	3	0.041883	14.8017	-33.414	-13.6722
 625	1	3	0.005012	14.4653	-34.1407	-12.3372
 626	1	3	-0.193804	14.6337	-31.9264	-13.2855
 627	1	3	0.042479	13.1878	-32.0818	-12.76
 628	1	3	0.00144	13.3387	-33.2186	-11.7075
 629	1	3	-0.061914	12.657	-30.926	-20.2162
 630	1	3	-0.051146	13.8132	-31.3452	-19.3002
 631	1	5	0.024509	8.33126	-24.6823	-20.8946
 632	1	5	0.045413	8.22439	-24.3392	-18.3262
 633	1	5	0.093061	9.54238	-22.2037	-23.3373
 634	1	5	0.054925	10.6996	-23.4964	-22.972
 635	1	5	0.0564	11.2772	-21.8458	-23.2479
 636	1	5	0.072515	9.3095	-21.0406	-16.5784
 637	1	5	0.098261	11.0816	-21.215	-16.5125
 638	1	5	0.069746	10.0468	-22.6388	-16.4949
 639	1	5	0.056967	8.44068	-26.583	-18.087
 640	1	5	0.059195	10.6123	-25.1196	-17.2326
 641	1	5	0.053458	10.8366	-25.599	-21.5722