pySIMM System Object

1752 atoms
2046 bonds
4212 angles
7718 dihedrals
208 impropers

5 atom types
9 bond types
18 angle types
19 dihedral types
2 improper types

-168.718634 168.718634 xlo xhi
-168.718634 168.718634 ylo yhi
-168.718634 168.718634 zlo zhi

Masses

   1	12.01	# ca
   2	12.01	# cy
   3	12.01	# c3
   4	1.008	# ha
   5	1.008	# hc

Pair Coeffs

   1	0.086	3.3996695084235347	# ca
   2	0.086	3.3996695084235347	# cy
   3	0.1094	3.3996695084235347	# c3
   4	0.015	2.59964245953351	# ha
   5	0.0157	2.649532787749369	# hc

Bond Coeffs

   1	461.1	1.3984	# ca,ca
   2	300.9	1.5375	# c3,c3
   3	305.9	1.5319	# c3,cy
   4	345.8	1.086	# ca,ha
   5	321.0	1.5156	# c3,ca
   6	285.0	1.5562	# cy,cy
   7	333.3	1.0949	# cy,hc
   8	330.6	1.0969	# c3,hc
   9	321.2	1.5154	# ca,cy

Angle Coeffs

   1	67.9	96.03	# cy,c3,cy
   2	45.97	114.53	# ca,cy,hc
   3	66.62	120.02	# ca,ca,ca
   4	61.4	116.81	# ca,cy,cy
   5	44.83	114.79	# cy,cy,hc
   6	46.43	110.14	# c3,cy,hc
   7	62.86	111.51	# c3,c3,c3
   8	63.15	112.07	# c3,c3,ca
   9	46.34	109.8	# c3,c3,hc
  10	48.18	119.88	# ca,ca,ha
  11	39.4	107.58	# hc,c3,hc
  12	63.53	120.77	# c3,ca,ca
  13	60.66	118.7	# c3,cy,cy
  14	63.51	120.86	# ca,ca,cy
  15	62.73	112.39	# c3,c3,cy
  16	46.29	110.75	# cy,c3,hc
  17	46.8	110.47	# ca,c3,hc
  18	62.8	113.57	# c3,cy,ca

Dihedral Coeffs

   1	3	0.18	3	0.0	0.25	2	180.0	0.2	1	180.0	# c3,c3,cy,cy
   2	1	0.16	3	0.0	# hc,c3,cy,cy
   3	1	0.16	3	0.0	# cy,c3,cy,hc
   4	1	0.16	3	0.0	# c3,c3,cy,hc
   5	1	0.15	3	0.0	# hc,c3,cy,hc
   6	1	3.625	2	180	# X,ca,ca,X
   7	1	0.15555555555555556	3	0	# X,cy,cy,X
   8	3	0.18	3	0	0.25	2	180	0.2	1	180	# c3,c3,c3,c3
   9	1	0.16	3	0	# hc,c3,c3,c3
  10	1	0.0	2	0.0	# ca,ca,cy,cy
  11	1	0.0	2	0.0	# ca,ca,cy,c3
  12	1	0.0	2	0	# X,c3,ca,X
  13	1	0.15555555555555556	3	0	# X,c3,c3,X
  14	3	0.38	3	180.0	0.0	2	0.0	1.15	1	0.0	# ca,ca,cy,hc
  15	3	0.18	3	0.0	0.25	2	180.0	0.2	1	180.0	# cy,c3,cy,cy
  16	1	0.16	3	0.0	# cy,c3,cy,ca
  17	1	0.16	3	0.0	# c3,c3,cy,ca
  18	1	0.16	3	0.0	# hc,c3,cy,ca
  19	1	0.15	3	0	# hc,c3,c3,hc

Improper Coeffs

   1	1.1	-1	2	# ca,ca,ca,c3
   2	1.1	-1	2	# ca,X,X,ha

Atoms

   1	1	1	-0.162043	-21.8252	13.5755	25.2006
   2	1	1	-0.131368	-21.2794	11.2562	23.4998
   3	1	1	0.053767	-20.9481	12.5376	25.567
   4	1	1	-0.089414	-22.3387	12.1517	23.2598
   5	1	2	0.07683	-23.2931	14.0248	22.9543
   6	1	1	-0.043169	-22.5946	13.256	24.0639
   7	1	1	0.067251	-20.6873	11.4486	24.7606
   8	1	2	0.019658	-23.0021	12.7611	22.038
   9	1	3	-0.13357	-21.8257	14.944	25.857
  10	1	3	-0.181622	-20.7332	10.3022	22.4537
  11	1	2	-0.091671	-23.1569	14.0933	20.14
  12	1	1	0.028189	-22.6739	15.0898	19.1026
  13	1	3	-0.001388	-22.0699	13.311	20.9252
  14	1	3	0.000341	-22.4985	15.1697	22.2687
  15	1	2	-0.108264	-23.4489	15.3608	21.0547
  16	1	3	-0.051806	-21.2756	14.4343	21.6503
  17	1	1	0.038269	-22.9242	16.1792	19.89
  18	1	1	0.012104	-21.4352	17.5038	18.5687
  19	1	1	0.009692	-21.1531	16.3679	17.742
  20	1	1	-0.221685	-21.7403	15.1129	18.0656
  21	1	1	-0.227504	-22.2676	17.3947	19.708
  22	1	1	0.01292	-20.2418	16.4865	16.6566
  23	1	1	-0.039953	-19.2314	15.6596	14.6398
  24	1	2	0.00887	-18.0804	16.5167	13.0847
  25	1	1	-0.185129	-20.173	15.4787	15.6528
  26	1	1	-0.021786	-18.4736	16.7867	14.5264
  27	1	1	0.017184	-19.4256	17.6601	16.5321
  28	1	1	-0.198557	-18.5681	17.8499	15.421
  29	1	2	-0.002904	-18.9648	15.2049	13.2148
  30	1	3	0.041883	-18.7668	17.28	11.9246
  31	1	3	0.005012	-20.1674	17.8247	12.3164
  32	1	3	-0.193804	-19.1848	16.096	11.0289
  33	1	3	0.042479	-20.0343	15.3993	12.1114
  34	1	3	0.00144	-21.0316	16.5422	12.4438
  35	1	3	-0.061914	-20.8439	18.8635	18.2354
  36	1	3	-0.051146	-19.449	18.7289	17.6124
  37	1	5	0.024509	-24.3447	14.2621	23.1534
  38	1	5	0.045413	-23.8716	12.2066	21.6661
  39	1	5	0.093061	-22.828	15.3899	25.839
  40	1	5	0.054925	-21.1413	15.6257	25.3373
  41	1	5	0.0564	-21.507	14.8801	26.905
  42	1	5	0.072515	-20.3471	9.38664	22.919
  43	1	5	0.098261	-19.9139	10.7677	21.8923
  44	1	5	0.069746	-21.5123	10.0112	21.7383
  45	1	5	0.056967	-24.0188	13.4896	19.8308
  46	1	5	0.059195	-21.484	12.575	20.3612
  47	1	5	0.053458	-22.2864	16.0579	22.8764
  48	1	5	0.063182	-24.4948	15.5559	21.3204
  49	1	5	0.018836	-20.6995	15.0648	20.9613
  50	1	5	0.033342	-20.5875	14.0447	22.4083
  51	1	4	0.15438	-21.4343	14.1845	17.5981
  52	1	4	0.144555	-22.3866	18.2095	20.415
  53	1	5	0.03716	-17.0162	16.3385	12.8945
  54	1	4	0.135836	-20.8609	14.6424	15.6077
  55	1	4	0.135526	-18.0221	18.7748	15.262
  56	1	5	0.041277	-18.4136	14.2651	13.0987
  57	1	5	0.00856	-18.1294	18.0226	11.4281
  58	1	5	-0.004553	-20.155	18.4174	13.2384
  59	1	5	0.042416	-18.3314	15.4881	10.6978
  60	1	5	0.068411	-19.7733	16.4057	10.1537
  61	1	5	0.009741	-20.521	14.4731	11.7809
  62	1	5	0.002304	-21.488	16.4388	13.435
  63	1	5	0.050818	-20.7835	19.4987	19.1282
  64	1	5	0.045418	-21.5054	19.3767	17.5258
  65	1	5	0.050853	-19.1341	19.7016	17.2135
  66	1	5	0.040294	-18.73	18.4608	18.3971
  67	1	1	-0.162043	-18.4488	-1.07025	30.2564
  68	1	1	-0.131368	-16.7061	-0.704217	27.9569
  69	1	1	0.053767	-17.7274	-2.12772	29.6707
  70	1	1	-0.089414	-17.2353	0.372555	28.6884
  71	1	2	0.07683	-18.7948	1.51062	29.5696
  72	1	1	-0.043169	-18.058	0.201485	29.7964
  73	1	1	0.067251	-16.8867	-1.95029	28.5834
  74	1	2	0.019658	-17.8685	1.69484	28.2983
  75	1	3	-0.13357	-19.6945	-1.29188	31.0954
  76	1	3	-0.181622	-16.2382	-0.566101	26.5192
  77	1	2	-0.091671	-18.2191	3.98163	28.3714
  78	1	1	0.028189	-18.0088	5.4019	28.8545
  79	1	3	-0.001388	-17.0565	2.97926	28.6043
  80	1	3	0.000341	-18.4094	2.70649	30.484
  81	1	2	-0.108264	-19.1367	3.80544	29.6626
  82	1	3	-0.051806	-16.909	2.94536	30.1518
  83	1	1	0.038269	-18.7836	5.25048	29.9633
  84	1	1	0.012104	-18.8341	7.61493	30.2733
  85	1	1	0.009692	-18.0292	7.79145	29.0956
  86	1	1	-0.221685	-17.648	6.64446	28.3395
  87	1	1	-0.227504	-19.2723	6.33235	30.6885
  88	1	1	0.01292	-17.6972	9.10624	28.6574
  89	1	1	-0.039953	-16.9193	10.6577	26.9883
  90	1	2	0.00887	-17.1562	12.7422	26.6861
  91	1	1	-0.185129	-17.2114	9.33993	27.339
  92	1	1	-0.021786	-17.1826	11.7162	27.8081
  93	1	1	0.017184	-17.9362	10.2282	29.519
  94	1	1	-0.198557	-17.7416	11.5588	29.0743
  95	1	2	-0.002904	-16.8547	11.5062	25.7308
  96	1	3	0.041883	-18.4744	13.3164	26.1018
  97	1	3	0.005012	-19.6765	12.3652	26.3818
  98	1	3	-0.193804	-18.2048	13.0611	24.6009
  99	1	3	0.042479	-18.046	11.5297	24.74
 100	1	3	0.00144	-19.3747	11.1235	25.4487
 101	1	3	-0.061914	-19.3952	8.82119	31.0073
 102	1	3	-0.051146	-18.4304	10.0102	30.9387
 103	1	5	0.024509	-19.8751	1.40381	29.4152
 104	1	5	0.045413	-18.3386	1.69584	27.3077
 105	1	5	0.093061	-19.8395	-0.473276	31.8113
 106	1	5	0.054925	-19.6257	-2.22652	31.6661
 107	1	5	0.0564	-20.5872	-1.34916	30.4603
 108	1	5	0.072515	-17.0822	-0.659398	25.8245
 109	1	5	0.098261	-15.5052	-1.34198	26.2653
 110	1	5	0.069746	-15.7656	0.409282	26.3493
 111	1	5	0.056967	-18.6867	3.90276	27.3824
 112	1	5	0.059195	-16.1403	3.13561	28.0212
 113	1	5	0.053458	-18.6746	2.62329	31.5453
 114	1	5	0.063182	-20.2081	3.61954	29.5205
 115	1	5	0.018836	-16.5251	3.8874	30.5641
 116	1	5	0.033342	-16.2614	2.13011	30.4996
 117	1	4	0.15438	-17.1112	6.69145	27.4014
 118	1	4	0.144555	-19.9938	6.19889	31.4884
 119	1	5	0.03716	-16.3598	13.4932	26.7322
 120	1	4	0.135836	-17.1548	8.57007	26.5807
 121	1	4	0.135526	-18.0395	12.4159	29.6706
 122	1	5	0.041277	-15.8867	11.5449	25.219
 123	1	5	0.00856	-18.6704	14.3658	26.3547
 124	1	5	-0.004553	-19.861	12.1114	27.4325
 125	1	5	0.042416	-17.2882	13.5522	24.2453
 126	1	5	0.068411	-19.0307	13.362	23.9466
 127	1	5	0.009741	-17.8674	11.0036	23.794
 128	1	5	0.002304	-19.3807	10.1542	25.9604
 129	1	5	0.050818	-19.6008	8.58057	32.0581
 130	1	5	0.045418	-20.3524	9.10718	30.5526
 131	1	5	0.050853	-18.9295	10.9067	31.3279
 132	1	5	0.040294	-17.5712	9.81579	31.5933
 133	1	1	-0.162043	-22.1824	-5.26812	16.1227
 134	1	1	-0.131368	-19.4013	-6.16821	16.2479
 135	1	1	0.053767	-21.5587	-5.99247	15.09
 136	1	1	-0.089414	-20.0961	-5.66255	17.361
 137	1	2	0.07683	-21.2641	-4.28438	18.4765
 138	1	1	-0.043169	-21.4167	-5.236	17.3032
 139	1	1	0.067251	-20.2439	-6.41602	15.1494
 140	1	2	0.019658	-19.7544	-4.77043	18.5391
 141	1	3	-0.13357	-23.4376	-4.43899	15.9202
 142	1	3	-0.181622	-17.8872	-6.24183	16.1749
 143	1	2	-0.091671	-19.6446	-4.15885	20.772
 144	1	1	0.028189	-19.8677	-4.30355	22.2642
 145	1	3	-0.001388	-19.6396	-5.45902	19.9247
 146	1	3	0.000341	-21.8597	-4.7449	19.8348
 147	1	2	-0.108264	-21.1623	-3.67225	20.7148
 148	1	3	-0.051806	-21.0633	-6.04275	20.1533
 149	1	1	0.038269	-21.1632	-3.89074	22.2158
 150	1	1	0.012104	-21.4925	-4.57874	24.473
 151	1	1	0.009692	-20.1269	-5.02142	24.5382
 152	1	1	-0.221685	-19.3119	-4.93857	23.3722
 153	1	1	-0.227504	-22.0485	-4.06344	23.2753
 154	1	1	0.01292	-19.6008	-5.5269	25.76
 155	1	1	-0.039953	-17.7462	-6.08026	27.1969
 156	1	2	0.00887	-17.5121	-6.06909	29.3057
 157	1	1	-0.185129	-18.1956	-5.65024	25.9474
 158	1	1	-0.021786	-18.5926	-6.2713	28.2538
 159	1	1	0.017184	-20.478	-5.7974	26.8596
 160	1	1	-0.198557	-19.9725	-6.10456	28.1457
 161	1	2	-0.002904	-16.5285	-5.8515	28.0768
 162	1	3	0.041883	-17.3962	-4.72652	30.0798
 163	1	3	0.005012	-18.0686	-3.56113	29.2935
 164	1	3	-0.193804	-15.894	-4.43986	29.8499
 165	1	3	0.042479	-15.9883	-4.41698	28.3068
 166	1	3	0.00144	-17.104	-3.35718	28.0643
 167	1	3	-0.061914	-22.3699	-4.59031	25.7145
 168	1	3	-0.051146	-21.9836	-5.72538	26.6701
 169	1	5	0.024509	-21.4644	-3.23268	18.2398
 170	1	5	0.045413	-18.9619	-4.03915	18.3407
 171	1	5	0.093061	-24.0136	-4.36031	16.8505
 172	1	5	0.054925	-24.0892	-4.88741	15.1598
 173	1	5	0.0564	-23.1846	-3.42341	15.5914
 174	1	5	0.072515	-17.5627	-7.0182	15.4708
 175	1	5	0.098261	-17.4565	-6.47833	17.1557
 176	1	5	0.069746	-17.466	-5.28547	15.8412
 177	1	5	0.056967	-18.8735	-3.43038	20.4935
 178	1	5	0.059195	-18.794	-6.14299	20.0691
 179	1	5	0.053458	-22.9531	-4.80608	19.9
 180	1	5	0.063182	-21.3455	-2.63721	20.4019
 181	1	5	0.018836	-21.2189	-6.39755	21.1803
 182	1	5	0.033342	-21.3004	-6.86667	19.4678
 183	1	4	0.15438	-18.3176	-5.36318	23.3077
 184	1	4	0.144555	-23.096	-3.7923	23.1895
 185	1	5	0.03716	-17.2778	-6.93442	29.9355
 186	1	4	0.135836	-17.474	-5.29989	25.2197
 187	1	4	0.135526	-20.6167	-6.16023	29.0178
 188	1	5	0.041277	-15.7237	-6.59038	27.9942
 189	1	5	0.00856	-17.6917	-4.77718	31.1352
 190	1	5	-0.004553	-19.1224	-3.70141	29.0252
 191	1	5	0.042416	-15.2474	-5.24681	30.2226
 192	1	5	0.068411	-15.5503	-3.4934	30.2876
 193	1	5	0.009741	-15.0435	-4.19307	27.7959
 194	1	5	0.002304	-17.5972	-3.37795	27.0865
 195	1	5	0.050818	-23.4298	-4.6867	25.4468
 196	1	5	0.045418	-22.2614	-3.63115	26.2369
 197	1	5	0.050853	-22.4991	-5.58538	27.6287
 198	1	5	0.040294	-22.3381	-6.67837	26.2569
 199	1	1	-0.162043	-11.9722	0.276495	5.2629
 200	1	1	-0.131368	-11.1818	-2.51236	5.45852
 201	1	1	0.053767	-10.9942	-0.295371	4.42958
 202	1	1	-0.089414	-12.3275	-2.00482	6.09965
 203	1	2	0.07683	-13.3062	-0.643268	7.40269
 204	1	1	-0.043169	-12.6951	-0.666155	6.01404
 205	1	1	0.067251	-10.609	-1.62365	4.52834
 206	1	2	0.019658	-12.9048	-2.17182	7.49586
 207	1	3	-0.13357	-12.0456	1.7687	5.53461
 208	1	3	-0.181622	-10.4786	-3.77435	5.92486
 209	1	2	-0.091671	-14.5577	-2.51373	9.094
 210	1	1	0.028189	-15.9694	-2.71607	9.61696
 211	1	3	-0.001388	-14.2696	-2.90548	7.61843
 212	1	3	0.000341	-14.8535	-0.651087	7.48986
 213	1	2	-0.108264	-14.9438	-0.96968	9.00709
 214	1	3	-0.051806	-15.2397	-1.99635	6.81174
 215	1	1	0.038269	-16.2939	-1.3952	9.54455
 216	1	1	0.012104	-18.5977	-1.91128	9.8605
 217	1	1	0.009692	-18.2765	-3.3091	9.92904
 218	1	1	-0.221685	-16.9258	-3.72363	9.74032
 219	1	1	-0.227504	-17.6061	-0.936296	9.59469
 220	1	1	0.01292	-19.3099	-4.26301	10.1465
 221	1	1	-0.039953	-20.0712	-6.47459	10.7058
 222	1	2	0.00887	-21.9104	-7.28814	11.3718
 223	1	1	-0.185129	-18.9987	-5.60048	10.5249
 224	1	1	-0.021786	-21.372	-6.06961	10.6433
 225	1	1	0.017184	-20.6846	-3.86111	10.0587
 226	1	1	-0.198557	-21.7378	-4.75389	10.3721
 227	1	2	-0.002904	-20.3932	-7.76472	11.4429
 228	1	3	0.041883	-22.3157	-7.19628	12.866
 229	1	3	0.005012	-21.5978	-6.00619	13.5717
 230	1	3	-0.193804	-21.5269	-8.41368	13.4028
 231	1	3	0.042479	-20.1384	-7.88921	12.9667
 232	1	3	0.00144	-20.0939	-6.48667	13.6412
 233	1	3	-0.061914	-20.0179	-1.43266	10.111
 234	1	3	-0.051146	-21.0467	-2.45404	9.6143
 235	1	5	0.024509	-12.8303	0.0629417	8.09353
 236	1	5	0.045413	-12.1739	-2.47139	8.25621
 237	1	5	0.093061	-11.7781	2.34665	4.64106
 238	1	5	0.054925	-11.3561	2.05291	6.33919
 239	1	5	0.0564	-13.0579	2.06683	5.8346
 240	1	5	0.072515	-9.89031	-4.22183	5.11402
 241	1	5	0.098261	-11.2016	-4.5252	6.26702
 242	1	5	0.069746	-9.79665	-3.55626	6.75606
 243	1	5	0.056967	-13.7653	-2.79149	9.79943
 244	1	5	0.059195	-14.2793	-3.97592	7.37824
 245	1	5	0.053458	-15.3727	0.249231	7.13869
 246	1	5	0.063182	-14.3914	-0.277365	9.65395
 247	1	5	0.018836	-16.2946	-2.261	6.95943
 248	1	5	0.033342	-15.032	-2.00465	5.73391
 249	1	4	0.15438	-16.6324	-4.76174	9.64139
 250	1	4	0.144555	-17.8456	0.112272	9.44887
 251	1	5	0.03716	-22.5743	-7.9449	10.7988
 252	1	4	0.135836	-17.9924	-5.93	10.7545
 253	1	4	0.135526	-22.7741	-4.43327	10.4182
 254	1	5	0.041277	-20.1781	-8.69647	10.9082
 255	1	5	0.00856	-23.3961	-7.23663	13.0531
 256	1	5	-0.004553	-21.74	-5.01486	13.1243
 257	1	5	0.042416	-21.8021	-9.35118	12.8994
 258	1	5	0.068411	-21.6255	-8.56457	14.4858
 259	1	5	0.009741	-19.2996	-8.54095	13.2417
 260	1	5	0.002304	-19.3665	-5.77222	13.2372
 261	1	5	0.050818	-20.2014	-0.466086	9.62482
 262	1	5	0.045418	-20.1581	-1.27717	11.1884
 263	1	5	0.050853	-22.0438	-2.16901	9.97339
 264	1	5	0.040294	-21.0838	-2.42247	8.51788
 265	1	1	-0.162043	1.38869	-1.60757	11.4634
 266	1	1	-0.131368	2.02521	-2.98928	8.96055
 267	1	1	0.053767	2.65556	-1.57301	10.8588
 268	1	1	-0.089414	0.841455	-3.22463	9.69127
 269	1	2	0.07683	-0.948348	-2.76688	10.7379
 270	1	1	-0.043169	0.545795	-2.57051	10.8809
 271	1	1	0.067251	2.96413	-2.22565	9.68283
 272	1	2	0.019658	-0.619907	-3.52847	9.3835
 273	1	3	-0.13357	0.930663	-0.609556	12.5115
 274	1	3	-0.181622	2.2064	-3.38393	7.50679
 275	1	2	-0.091671	-2.79309	-3.08679	8.64679
 276	1	1	0.028189	-3.91819	-2.25387	8.0536
 277	1	3	-0.001388	-1.33152	-2.67384	8.29793
 278	1	3	0.000341	-1.77344	-1.5334	10.2849
 279	1	2	-0.108264	-3.08896	-2.29716	9.99652
 280	1	3	-0.051806	-1.22078	-1.22945	8.86289
 281	1	1	0.038269	-4.14935	-1.5589	9.20697
 282	1	1	0.012104	-5.27009	0.155276	7.9771
 283	1	1	0.009692	-5.0904	-0.595855	6.77022
 284	1	1	-0.221685	-4.32752	-1.79622	6.80045
 285	1	1	-0.227504	-4.74282	-0.298103	9.20927
 286	1	1	0.01292	-5.63374	-0.112876	5.55087
 287	1	1	-0.039953	-6.46167	-0.474873	3.31987
 288	1	2	0.00887	-7.88722	0.556824	2.13897
 289	1	1	-0.185129	-5.86441	-1.00272	4.46695
 290	1	1	-0.021786	-6.86702	0.830615	3.23237
 291	1	1	0.017184	-6.07625	1.24456	5.45434
 292	1	1	-0.198557	-6.73667	1.72138	4.2982
 293	1	2	-0.002904	-7.42885	-0.959842	2.24941
 294	1	3	0.041883	-9.40029	0.491799	2.47394
 295	1	3	0.005012	-9.62247	0.167682	3.98082
 296	1	3	-0.193804	-9.74197	-0.857694	1.80109
 297	1	3	0.042479	-8.74465	-1.69016	2.63954
 298	1	3	0.00144	-9.17878	-1.33895	4.09539
 299	1	3	-0.061914	-6.05818	1.45529	7.96068
 300	1	3	-0.051146	-5.87985	2.19271	6.62591
 301	1	5	0.024509	-1.40968	-3.35391	11.5409
 302	1	5	0.045413	-0.866344	-4.59586	9.34457
 303	1	5	0.093061	1.76703	-0.291319	13.1464
 304	1	5	0.054925	0.162229	-1.04414	13.1628
 305	1	5	0.0564	0.507363	0.284971	12.0381
 306	1	5	0.072515	1.54799	-4.21916	7.23787
 307	1	5	0.098261	3.23982	-3.69565	7.31009
 308	1	5	0.069746	1.97437	-2.5422	6.84279
 309	1	5	0.056967	-2.97133	-4.16878	8.65155
 310	1	5	0.059195	-1.00723	-2.82412	7.26076
 311	1	5	0.053458	-1.83307	-0.691228	10.9851
 312	1	5	0.063182	-3.474	-2.87825	10.8432
 313	1	5	0.018836	-1.83379	-0.506776	8.30946
 314	1	5	0.033342	-0.189721	-0.858144	8.87899
 315	1	4	0.15438	-4.00772	-2.30641	5.89845
 316	1	4	0.144555	-4.78456	0.303885	10.1115
 317	1	5	0.03716	-7.69649	1.02674	1.16779
 318	1	4	0.135836	-5.72969	-2.0747	4.5626
 319	1	4	0.135526	-7.19662	2.70435	4.26779
 320	1	5	0.041277	-6.97946	-1.37191	1.33913
 321	1	5	0.00856	-9.98949	1.34319	2.11091
 322	1	5	-0.004553	-9.14753	0.841385	4.70195
 323	1	5	0.042416	-9.50452	-0.867881	0.727983
 324	1	5	0.068411	-10.7893	-1.16302	1.92533
 325	1	5	0.009741	-8.75569	-2.76536	2.42126
 326	1	5	0.002304	-8.44198	-1.536	4.8825
 327	1	5	0.050818	-5.7528	2.11307	8.7842
 328	1	5	0.045418	-7.12263	1.23232	8.10954
 329	1	5	0.050853	-6.58377	3.03325	6.5782
 330	1	5	0.040294	-4.87006	2.62002	6.58051
 331	1	1	-0.162043	16.5087	0.764795	11.0162
 332	1	1	-0.131368	15.6656	1.76384	8.40943
 333	1	1	0.053767	16.7169	2.08677	10.5895
 334	1	1	-0.089414	15.6601	0.392024	8.74471
 335	1	2	0.07683	15.259	-1.34835	9.89383
 336	1	1	-0.043169	16.1007	-0.0889784	9.97361
 337	1	1	0.067251	16.3753	2.55732	9.33669
 338	1	2	0.019658	14.7362	-0.798659	8.50176
 339	1	3	-0.13357	16.5436	0.348711	12.4759
 340	1	3	-0.181622	14.8248	2.34252	7.2845
 341	1	2	-0.091671	12.786	-2.093	8.75137
 342	1	1	0.028189	11.4004	-2.41881	9.30216
 343	1	3	-0.001388	13.2128	-0.592461	8.74303
 344	1	3	0.000341	13.9948	-1.38857	10.787
 345	1	2	-0.108264	13.3353	-2.63019	10.1325
 346	1	3	-0.051806	13.1471	-0.202105	10.2459
 347	1	1	0.038269	11.8887	-2.87416	10.5095
 348	1	1	0.012104	9.95409	-2.00384	11.6435
 349	1	1	0.009692	9.43649	-1.52657	10.4039
 350	1	1	-0.221685	10.181	-1.73762	9.2155
 351	1	1	-0.227504	11.2077	-2.6474	11.7077
 352	1	1	0.01292	8.28554	-0.694672	10.3909
 353	1	1	-0.039953	6.51881	0.459597	9.24905
 354	1	2	0.00887	4.81937	1.56178	9.85415
 355	1	1	-0.185129	7.56374	-0.46333	9.18622
 356	1	1	-0.021786	6.15201	1.09009	10.402
 357	1	1	0.017184	7.8435	-0.0810182	11.6098
 358	1	1	-0.198557	6.73725	0.800268	11.6321
 359	1	2	-0.002904	5.23544	0.813977	8.51146
 360	1	3	0.041883	3.51515	0.8444	10.2727
 361	1	3	0.005012	3.81526	-0.60797	10.7509
 362	1	3	-0.193804	2.91197	0.612201	8.86845
 363	1	3	0.042479	4.09576	-0.230155	8.33896
 364	1	3	0.00144	4.18912	-1.36022	9.40965
 365	1	3	-0.061914	9.1911	-1.74687	12.9309
 366	1	3	-0.051146	8.57914	-0.339925	12.9153
 367	1	5	0.024509	15.8316	-2.28319	9.87782
 368	1	5	0.045413	14.9719	-1.39607	7.61352
 369	1	5	0.093061	15.5759	0.534327	12.958
 370	1	5	0.054925	17.3079	0.910202	13.0277
 371	1	5	0.0564	16.7748	-0.718904	12.5782
 372	1	5	0.072515	15.2652	3.26796	6.89544
 373	1	5	0.098261	13.8106	2.57353	7.63374
 374	1	5	0.069746	14.7407	1.63581	6.44962
 375	1	5	0.056967	13.0724	-2.64772	7.84993
 376	1	5	0.059195	12.6947	0.0696436	8.04043
 377	1	5	0.053458	14.1553	-1.42877	11.8711
 378	1	5	0.063182	13.9662	-3.52692	10.1111
 379	1	5	0.018836	12.1256	-0.179299	10.6422
 380	1	5	0.033342	13.6029	0.769165	10.4531
 381	1	4	0.15438	9.9187	-1.23886	8.29437
 382	1	4	0.144555	11.6825	-2.85798	12.6606
 383	1	5	0.03716	4.68792	2.64521	9.75771
 384	1	4	0.135836	7.75668	-1.01476	8.27221
 385	1	4	0.135526	6.34156	1.20748	12.5575
 386	1	5	0.041277	5.34125	1.46409	7.63585
 387	1	5	0.00856	2.87431	1.416	10.9556
 388	1	5	-0.004553	4.54423	-0.719877	11.5616
 389	1	5	0.042416	2.77265	1.54664	8.30693
 390	1	5	0.068411	1.95667	0.0743254	8.88127
 391	1	5	0.009741	3.96426	-0.600752	7.31473
 392	1	5	0.002304	5.13808	-1.90922	9.44983
 393	1	5	0.050818	9.83939	-1.85547	13.8095
 394	1	5	0.045418	8.38979	-2.49021	13.0318
 395	1	5	0.050853	7.90703	-0.226652	13.7753
 396	1	5	0.040294	9.37814	0.403099	13.0342
 397	1	1	-0.162043	23.3812	15.6795	6.89801
 398	1	1	-0.131368	21.6045	14.5272	4.85952
 399	1	1	0.053767	22.8658	16.4058	5.80909
 400	1	1	-0.089414	22.2845	13.7591	5.82261
 401	1	2	0.07683	23.0712	13.0805	7.6721
 402	1	1	-0.043169	23.1466	14.2967	6.76775
 403	1	1	0.067251	22.0562	15.8595	4.83513
 404	1	2	0.019658	22.0587	12.4776	6.60401
 405	1	3	-0.13357	24.0053	16.3214	8.12333
 406	1	3	-0.181622	20.4371	14.0124	4.03798
 407	1	2	-0.091671	21.14	11.1035	8.23738
 408	1	1	0.028189	20.2905	10.7473	9.4487
 409	1	3	-0.001388	20.7274	12.3421	7.39909
 410	1	3	0.000341	22.2272	13.1977	8.96649
 411	1	2	-0.108264	22.1843	11.6772	9.28395
 412	1	3	-0.051806	20.7991	13.5022	8.4312
 413	1	1	0.038269	21.2082	11.2218	10.3475
 414	1	1	0.012104	20.3749	9.70847	12.0086
 415	1	1	0.009692	19.3533	9.25877	11.1075
 416	1	1	-0.221685	19.3751	9.7402	9.76709
 417	1	1	-0.227504	21.3397	10.6637	11.6153
 418	1	1	0.01292	18.435	8.24711	11.5195
 419	1	1	-0.039953	16.6775	6.64901	11.0876
 420	1	2	0.00887	15.4753	5.42388	12.3136
 421	1	1	-0.185129	17.4325	7.73705	10.64
 422	1	1	-0.021786	16.8012	6.14393	12.35
 423	1	1	0.017184	18.4622	7.77351	12.8731
 424	1	1	-0.198557	17.6106	6.73525	13.3124
 425	1	2	-0.002904	15.292	6.04384	10.8621
 426	1	3	0.041883	15.4653	3.90111	12.0465
 427	1	3	0.005012	16.7266	3.46336	11.2251
 428	1	3	-0.193804	14.3416	3.88099	10.9864
 429	1	3	0.042479	15.0809	4.78477	9.97614
 430	1	3	0.00144	16.4144	4.01779	9.77792
 431	1	3	-0.061914	20.5887	9.02896	13.3498
 432	1	3	-0.051146	19.2788	8.49645	13.9279
 433	1	5	0.024509	24.0252	12.5561	7.80254
 434	1	5	0.045413	22.3716	11.5648	6.08354
 435	1	5	0.093061	24.7925	15.6842	8.5449
 436	1	5	0.054925	23.2511	16.4896	8.90201
 437	1	5	0.0564	24.4562	17.2906	7.87563
 438	1	5	0.072515	20.3947	14.5072	3.05964
 439	1	5	0.098261	19.4867	14.1999	4.55275
 440	1	5	0.069746	20.521	12.9325	3.86444
 441	1	5	0.056967	21.4494	10.2475	7.62926
 442	1	5	0.059195	19.8051	12.2574	6.8109
 443	1	5	0.053458	22.6149	13.8591	9.7511
 444	1	5	0.063182	23.173	11.2067	9.34947
 445	1	5	0.018836	20.0285	13.4283	9.20923
 446	1	5	0.033342	20.7213	14.4918	7.96322
 447	1	4	0.15438	18.7738	9.30898	8.97837
 448	1	4	0.144555	22.2029	10.887	12.2346
 449	1	5	0.03716	14.7384	5.71584	13.0702
 450	1	4	0.135836	17.2091	8.17966	9.67929
 451	1	4	0.135526	17.536	6.45689	14.3594
 452	1	5	0.041277	14.4716	6.76024	10.7472
 453	1	5	0.00856	15.2692	3.28163	12.9305
 454	1	5	-0.004553	17.7028	3.76061	11.6293
 455	1	5	0.042416	13.4046	4.32768	11.3477
 456	1	5	0.068411	14.1169	2.88378	10.5985
 457	1	5	0.009741	14.5281	4.96032	9.04493
 458	1	5	0.002304	17.2348	4.59659	9.33358
 459	1	5	0.050818	21.0489	9.7173	14.0702
 460	1	5	0.045418	21.2847	8.19108	13.2232
 461	1	5	0.050853	19.4983	7.83901	14.7789
 462	1	5	0.040294	18.692	9.33712	14.3199
 463	1	1	-0.162043	25.2716	18.6138	-7.96417
 464	1	1	-0.131368	22.4764	17.867	-7.68745
 465	1	1	0.053767	24.4807	18.2196	-9.06016
 466	1	1	-0.089414	23.1914	18.5087	-6.66088
 467	1	2	0.07683	24.822	18.667	-5.31197
 468	1	1	-0.043169	24.532	18.8573	-6.79097
 469	1	1	0.067251	23.1518	17.8532	-8.92128
 470	1	2	0.019658	23.2945	18.2781	-5.16392
 471	1	3	-0.13357	26.7871	18.5216	-7.97042
 472	1	3	-0.181622	21.2303	17.041	-7.42327
 473	1	2	-0.091671	23.3529	18.8531	-2.9184
 474	1	1	0.028189	23.3527	19.7783	-1.71366
 475	1	3	-0.001388	22.7158	19.3796	-4.23326
 476	1	3	0.000341	24.9661	19.9455	-4.44453
 477	1	2	-0.108264	24.8877	19.2331	-3.06647
 478	1	3	-0.051806	23.5759	20.628	-4.57707
 479	1	1	0.038269	24.6754	20.1047	-1.8448
 480	1	1	0.012104	24.7834	20.6649	0.480778
 481	1	1	0.009692	23.3955	20.3364	0.638166
 482	1	1	-0.221685	22.6906	19.811	-0.483838
 483	1	1	-0.227504	25.4506	20.4834	-0.752908
 484	1	1	0.01292	22.789	20.431	1.92743
 485	1	1	-0.039953	21.0156	19.9645	3.49698
 486	1	2	0.00887	20.9282	19.8575	5.61061
 487	1	1	-0.185129	21.5199	19.8381	2.19997
 488	1	1	-0.021786	21.7405	20.5159	4.51232
 489	1	1	0.017184	23.5016	21.0649	3.0008
 490	1	1	-0.198557	23.013	21.0463	4.32841
 491	1	2	-0.002904	20.0581	19.2358	4.43253
 492	1	3	0.041883	21.4767	18.6	6.3364
 493	1	3	0.005012	22.5126	17.8384	5.44783
 494	1	3	-0.193804	20.2238	17.701	6.22152
 495	1	3	0.042479	20.1817	17.7094	4.6752
 496	1	3	0.00144	21.6065	17.2095	4.31086
 497	1	3	-0.061914	25.6393	21.0075	1.68731
 498	1	3	-0.051146	24.8272	21.7588	2.74368
 499	1	5	0.024509	25.5766	17.9016	-5.09498
 500	1	5	0.045413	23.0467	17.2584	-4.84623
 501	1	5	0.093061	27.1911	18.7024	-8.9744
 502	1	5	0.054925	27.1181	17.5266	-7.64776
 503	1	5	0.0564	27.2304	19.2621	-7.29306
 504	1	5	0.072515	20.6061	16.9681	-8.32268
 505	1	5	0.098261	20.6209	17.4902	-6.62925
 506	1	5	0.069746	21.4959	16.0231	-7.11248
 507	1	5	0.056967	23.0916	17.8135	-2.6866
 508	1	5	0.059195	21.6266	19.5113	-4.23955
 509	1	5	0.053458	25.8469	20.5724	-4.6309
 510	1	5	0.063182	25.6376	18.4443	-2.93153
 511	1	5	0.018836	23.4359	21.4515	-3.86492
 512	1	5	0.033342	23.3848	21.0108	-5.58806
 513	1	4	0.15438	21.6895	19.4072	-0.422133
 514	1	4	0.144555	26.531	20.5525	-0.831808
 515	1	5	0.03716	20.3829	20.5271	6.28495
 516	1	4	0.135836	20.9797	19.2318	1.4855
 517	1	4	0.135526	23.6043	21.4004	5.16736
 518	1	5	0.041277	19.014	19.5671	4.40957
 519	1	5	0.00856	21.8169	18.7749	7.36475
 520	1	5	-0.004553	23.3654	18.4222	5.08142
 521	1	5	0.042416	19.3314	18.1587	6.67095
 522	1	5	0.068411	20.3543	16.7023	6.65805
 523	1	5	0.009741	19.3747	17.107	4.23961
 524	1	5	0.002304	21.9479	17.4125	3.28913
 525	1	5	0.050818	26.5062	21.6141	1.39583
 526	1	5	0.045418	26.0315	20.0809	2.12615
 527	1	5	0.050853	25.4184	21.843	3.66438
 528	1	5	0.040294	24.6372	22.7814	2.39343
 529	1	1	-0.162043	21.2878	8.04907	-2.64493
 530	1	1	-0.131368	19.0598	9.69967	-3.48338
 531	1	1	0.053767	20.0884	8.12728	-1.91234
 532	1	1	-0.089414	20.1544	9.42878	-4.32265
 533	1	2	0.07683	22.2397	9.42685	-4.7206
 534	1	1	-0.043169	21.2223	8.62693	-3.92602
 535	1	1	0.067251	19.0184	8.91506	-2.31694
 536	1	2	0.019658	21.0299	10.3441	-5.1577
 537	1	3	-0.13357	22.6129	7.67353	-2.00378
 538	1	3	-0.181622	18.1964	10.9365	-3.66036
 539	1	2	-0.091671	22.2309	11.0434	-6.99807
 540	1	1	0.028189	22.8053	10.9833	-8.39873
 541	1	3	-0.001388	20.9739	10.1835	-6.69865
 542	1	3	0.000341	22.7511	8.8231	-6.05808
 543	1	2	-0.108264	23.4406	10.1153	-6.57448
 544	1	3	-0.051806	21.4665	8.72796	-6.92696
 545	1	1	0.038269	23.8561	10.1724	-8.03376
 546	1	1	0.012104	25.2362	11.1884	-9.72082
 547	1	1	0.009692	24.1658	12.0616	-10.0848
 548	1	1	-0.221685	22.9359	11.9674	-9.38022
 549	1	1	-0.227504	25.1062	10.2818	-8.64436
 550	1	1	0.01292	24.3976	13.1255	-11.0023
 551	1	1	-0.039953	23.639	15.0097	-12.3058
 552	1	2	0.00887	24.5589	16.8546	-12.789
 553	1	1	-0.185129	23.3215	13.9136	-11.5015
 554	1	1	-0.021786	24.9305	15.4083	-12.5124
 555	1	1	0.017184	25.7456	13.5096	-11.3065
 556	1	1	-0.198557	26.0224	14.7093	-12.0026
 557	1	2	-0.002904	23.054	16.3871	-12.5871
 558	1	3	0.041883	24.7311	17.9358	-11.6862
 559	1	3	0.005012	24.708	17.3067	-10.256
 560	1	3	-0.193804	23.3304	18.5848	-11.773
 561	1	3	0.042479	22.5539	17.2921	-11.4306
 562	1	3	0.00144	23.2022	16.8765	-10.0804
 563	1	3	-0.061914	26.5755	11.2985	-10.4276
 564	1	3	-0.051146	26.9215	12.7697	-10.6886
 565	1	5	0.024509	23.0333	9.87476	-4.11079
 566	1	5	0.045413	21.0261	11.3889	-4.82507
 567	1	5	0.093061	23.2605	8.5522	-1.89657
 568	1	5	0.054925	23.1448	6.93442	-2.61504
 569	1	5	0.0564	22.4697	7.24368	-1.00546
 570	1	5	0.072515	18.0844	11.1918	-4.72151
 571	1	5	0.098261	18.6419	11.7995	-3.15025
 572	1	5	0.069746	17.1922	10.7805	-3.24684
 573	1	5	0.056967	22.1819	12.0576	-6.58276
 574	1	5	0.059195	20.0398	10.477	-7.19372
 575	1	5	0.053458	23.3723	7.92143	-5.9889
 576	1	5	0.063182	24.1905	10.5197	-5.88366
 577	1	5	0.018836	21.6811	8.51217	-7.98157
 578	1	5	0.033342	20.7574	7.97648	-6.55595
 579	1	4	0.15438	22.1734	12.7327	-9.44427
 580	1	4	0.144555	25.9657	9.75248	-8.2452
 581	1	5	0.03716	24.793	17.2362	-13.789
 582	1	4	0.135836	22.2858	13.7345	-11.2422
 583	1	4	0.135526	27.0278	15.1149	-12.0618
 584	1	5	0.041277	22.4228	16.4705	-13.4787
 585	1	5	0.00856	25.5638	18.631	-11.8512
 586	1	5	-0.004553	25.4336	16.5074	-10.0643
 587	1	5	0.042416	23.0998	18.9623	-12.7792
 588	1	5	0.068411	23.1741	19.4009	-11.0555
 589	1	5	0.009741	21.4648	17.4157	-11.3802
 590	1	5	0.002304	23.0557	15.8373	-9.76644
 591	1	5	0.050818	26.5261	10.7617	-11.3837
 592	1	5	0.045418	27.3779	10.8324	-9.84179
 593	1	5	0.050853	27.1936	13.2506	-9.74027
 594	1	5	0.040294	27.8033	12.8257	-11.3397
 595	1	1	-0.162043	9.73016	2.50875	7.55009
 596	1	1	-0.131368	9.94454	2.60629	4.68442
 597	1	1	0.053767	10.16	1.39534	6.80906
 598	1	1	-0.089414	9.37062	3.65	5.43727
 599	1	2	0.07683	9.58016	5.10372	6.97804
 600	1	1	-0.043169	9.31412	3.61686	6.81595
 601	1	1	0.067251	10.3023	1.41443	5.39399
 602	1	2	0.019658	9.55708	5.16433	5.39951
 603	1	3	-0.13357	9.82079	2.53465	9.06888
 604	1	3	-0.181622	10.3261	2.91329	3.23901
 605	1	2	-0.091671	10.7894	7.14759	5.51376
 606	1	1	0.028189	12.0622	7.96864	5.55918
 607	1	3	-0.001388	10.9662	5.67986	5.01995
 608	1	3	0.000341	11.0475	5.50512	7.33525
 609	1	2	-0.108264	10.92	7.02956	7.08025
 610	1	3	-0.051806	11.8663	5.0191	6.10464
 611	1	1	0.038269	12.2201	7.8118	6.92459
 612	1	1	0.012104	14.6032	7.57943	6.60464
 613	1	1	0.009692	14.4395	7.78053	5.20411
 614	1	1	-0.221685	13.1432	7.96949	4.67466
 615	1	1	-0.227504	13.4879	7.57841	7.474
 616	1	1	0.01292	15.5363	7.6089	4.32481
 617	1	1	-0.039953	16.6215	7.94613	2.20125
 618	1	2	0.00887	18.6762	7.92835	1.70054
 619	1	1	-0.185129	15.5254	8.19297	3.03134
 620	1	1	-0.021786	17.7057	7.21112	2.61713
 621	1	1	0.017184	16.6882	6.89271	4.76711
 622	1	1	-0.198557	17.8001	6.71405	3.91667
 623	1	2	-0.002904	17.4354	8.79426	1.23752
 624	1	3	0.041883	19.1265	7.23199	0.396347
 625	1	3	0.005012	19.8114	8.34956	-0.435672
 626	1	3	-0.193804	17.7933	7.02781	-0.360892
 627	1	3	0.042479	17.3647	8.50802	-0.279463
 628	1	3	0.00144	18.593	9.23855	-0.895974
 629	1	3	-0.061914	15.9862	7.26127	7.14942
 630	1	3	-0.051146	16.7369	6.33376	6.18036
 631	1	5	0.024509	8.80722	5.66845	7.51216
 632	1	5	0.045413	8.73635	5.72044	4.93187
 633	1	5	0.093061	8.841	2.75171	9.51313
 634	1	5	0.054925	10.5271	3.2971	9.4162
 635	1	5	0.0564	10.154	1.56907	9.4703
 636	1	5	0.072515	9.9037	2.19788	2.53012
 637	1	5	0.098261	11.4152	2.93856	3.11295
 638	1	5	0.069746	9.94298	3.89179	2.92598
 639	1	5	0.056967	9.90766	7.66569	5.11799
 640	1	5	0.059195	11.2805	5.55047	3.97772
 641	1	5	0.053458	11.4219	5.20554	8.32127
 642	1	5	0.063182	10.1519	7.52159	7.68863
 643	1	5	0.018836	12.8979	5.38346	6.08617
 644	1	5	0.033342	11.9155	3.92699	6.02974
 645	1	4	0.15438	12.9592	7.88575	3.60881
 646	1	4	0.144555	13.5877	7.2638	8.5069
 647	1	5	0.03716	19.5013	8.45101	2.19216
 648	1	4	0.135836	14.7667	8.91117	2.73747
 649	1	4	0.135526	18.7154	6.25797	4.27219