pySIMM System Object

2228 atoms
2599 bonds
5346 angles
9783 dihedrals
264 impropers

5 atom types
9 bond types
18 angle types
19 dihedral types
2 improper types

-183.189133 183.189133 xlo xhi
-183.189133 183.189133 ylo yhi
-183.189133 183.189133 zlo zhi

Masses

   1	12.01	# ca
   2	12.01	# cy
   3	12.01	# c3
   4	1.008	# ha
   5	1.008	# hc

Pair Coeffs

   1	0.086	3.3996695084235347	# ca
   2	0.086	3.3996695084235347	# cy
   3	0.1094	3.3996695084235347	# c3
   4	0.015	2.59964245953351	# ha
   5	0.0157	2.649532787749369	# hc

Bond Coeffs

   1	461.1	1.3984	# ca,ca
   2	300.9	1.5375	# c3,c3
   3	305.9	1.5319	# c3,cy
   4	345.8	1.086	# ca,ha
   5	321.0	1.5156	# c3,ca
   6	285.0	1.5562	# cy,cy
   7	333.3	1.0949	# cy,hc
   8	330.6	1.0969	# c3,hc
   9	321.2	1.5154	# ca,cy

Angle Coeffs

   1	67.9	96.03	# cy,c3,cy
   2	45.97	114.53	# ca,cy,hc
   3	66.62	120.02	# ca,ca,ca
   4	61.4	116.81	# ca,cy,cy
   5	44.83	114.79	# cy,cy,hc
   6	46.43	110.14	# c3,cy,hc
   7	62.86	111.51	# c3,c3,c3
   8	63.15	112.07	# c3,c3,ca
   9	46.34	109.8	# c3,c3,hc
  10	48.18	119.88	# ca,ca,ha
  11	39.4	107.58	# hc,c3,hc
  12	63.53	120.77	# c3,ca,ca
  13	60.66	118.7	# c3,cy,cy
  14	63.51	120.86	# ca,ca,cy
  15	62.73	112.39	# c3,c3,cy
  16	46.29	110.75	# cy,c3,hc
  17	46.8	110.47	# ca,c3,hc
  18	62.8	113.57	# c3,cy,ca

Dihedral Coeffs

   1	3	0.18	3	0.0	0.25	2	180.0	0.2	1	180.0	# c3,c3,cy,cy
   2	1	0.16	3	0.0	# hc,c3,cy,cy
   3	1	0.16	3	0.0	# cy,c3,cy,hc
   4	1	0.16	3	0.0	# c3,c3,cy,hc
   5	1	0.15	3	0.0	# hc,c3,cy,hc
   6	1	3.625	2	180	# X,ca,ca,X
   7	1	0.15555555555555556	3	0	# X,cy,cy,X
   8	3	0.18	3	0	0.25	2	180	0.2	1	180	# c3,c3,c3,c3
   9	1	0.16	3	0	# hc,c3,c3,c3
  10	1	0.0	2	0.0	# ca,ca,cy,cy
  11	1	0.0	2	0.0	# ca,ca,cy,c3
  12	1	0.0	2	0	# X,c3,ca,X
  13	1	0.15555555555555556	3	0	# X,c3,c3,X
  14	3	0.38	3	180.0	0.0	2	0.0	1.15	1	0.0	# ca,ca,cy,hc
  15	3	0.18	3	0.0	0.25	2	180.0	0.2	1	180.0	# cy,c3,cy,cy
  16	1	0.16	3	0.0	# cy,c3,cy,ca
  17	1	0.16	3	0.0	# c3,c3,cy,ca
  18	1	0.16	3	0.0	# hc,c3,cy,ca
  19	1	0.15	3	0	# hc,c3,c3,hc

Improper Coeffs

   1	1.1	-1	2	# ca,ca,ca,c3
   2	1.1	-1	2	# ca,X,X,ha

Atoms

   1	1	1	-0.162043	-6.55437	-26.3347	9.37149
   2	1	1	-0.131368	-3.9465	-25.0147	9.27766
   3	1	1	0.053767	-6.35742	-24.9897	9.73719
   4	1	1	-0.089414	-4.10224	-26.4107	9.17728
   5	1	2	0.07683	-4.86707	-28.2419	8.41606
   6	1	1	-0.043169	-5.34285	-27.0363	9.21087
   7	1	1	0.067251	-5.12727	-24.3655	9.6818
   8	1	2	0.019658	-3.44819	-27.5305	8.38679
   9	1	3	-0.13357	-7.91235	-26.9174	9.02489
  10	1	3	-0.181622	-2.69559	-24.2786	8.83456
  11	1	2	-0.091671	-2.87601	-28.7462	6.48918
  12	1	1	0.028189	-2.85389	-29.0683	5.00685
  13	1	3	-0.001388	-3.18666	-27.2757	6.87881
  14	1	3	0.000341	-5.27359	-28.3168	6.9181
  15	1	2	-0.108264	-4.29763	-29.4545	6.50862
  16	1	3	-0.051806	-4.61411	-27.0485	6.30571
  17	1	1	0.038269	-4.08108	-29.6762	5.02221
  18	1	1	0.012104	-4.32376	-29.287	2.67158
  19	1	1	0.009692	-3.05023	-28.6335	2.6441
  20	1	1	-0.221685	-2.33176	-28.4679	3.85989
  21	1	1	-0.227504	-4.88756	-29.7428	3.88663
  22	1	1	0.01292	-2.5598	-28.0794	1.42993
  23	1	1	-0.039953	-0.811712	-27.109	0.100113
  24	1	2	0.00887	-0.534937	-26.7122	-1.95953
  25	1	1	-0.185129	-1.19527	-27.6902	1.30836
  26	1	1	-0.021786	-1.64941	-26.9983	-0.968469
  27	1	1	0.017184	-3.43193	-27.9525	0.297319
  28	1	1	-0.198557	-2.96413	-27.457	-0.944592
  29	1	2	-0.002904	0.442723	-26.8472	-0.715655
  30	1	3	0.041883	-0.0288388	-27.8191	-2.91723
  31	1	3	0.005012	-0.323125	-29.247	-2.38305
  32	1	3	-0.193804	1.48763	-27.7425	-2.64621
  33	1	3	0.042479	1.36977	-28.0158	-1.13282
  34	1	3	0.00144	0.629145	-29.3804	-1.16506
  35	1	3	-0.061914	-5.10776	-29.4924	1.38604
  36	1	3	-0.051146	-4.9015	-28.323	0.415057
  37	1	5	0.024509	-4.93238	-29.1976	8.94912
  38	1	5	0.045413	-2.62779	-28.0382	8.90725
  39	1	5	0.093061	-8.70754	-26.4438	9.61428
  40	1	5	0.054925	-7.94311	-27.9953	9.2268
  41	1	5	0.0564	-8.14237	-26.7646	7.96322
  42	1	5	0.072515	-2.73017	-24.0644	7.75929
  43	1	5	0.098261	-1.79631	-24.8745	9.03352
  44	1	5	0.069746	-2.58923	-23.3245	9.36572
  45	1	5	0.056967	-2.07501	-29.2141	7.07419
  46	1	5	0.059195	-2.42696	-26.5254	6.62738
  47	1	5	0.053458	-6.33721	-28.4747	6.70129
  48	1	5	0.063182	-4.3923	-30.3714	7.10275
  49	1	5	0.018836	-4.63968	-27.0378	5.20879
  50	1	5	0.033342	-5.07004	-26.1197	6.6628
  51	1	4	0.15438	-1.46473	-27.8232	3.94163
  52	1	4	0.144555	-5.90813	-30.1078	3.94456
  53	1	5	0.03716	-0.545038	-25.7241	-2.43272
  54	1	4	0.135836	-0.453642	-27.8895	2.07336
  55	1	4	0.135526	-3.58699	-27.4403	-1.83373
  56	1	5	0.041277	1.00336	-25.9386	-0.469517
  57	1	5	0.00856	-0.310544	-27.6757	-3.96802
  58	1	5	-0.004553	-1.37524	-29.3958	-2.11374
  59	1	5	0.042416	1.91281	-26.7543	-2.87053
  60	1	5	0.068411	2.05932	-28.5151	-3.17953
  61	1	5	0.009741	2.32892	-28.0483	-0.600772
  62	1	5	0.002304	0.0933398	-29.5994	-0.234113
  63	1	5	0.050818	-6.17945	-29.6117	1.58959
  64	1	5	0.045418	-4.77135	-30.4205	0.906295
  65	1	5	0.050853	-5.3225	-28.5851	-0.563904
  66	1	5	0.040294	-5.46233	-27.4522	0.778194
  67	1	1	-0.162043	-6.52542	-11.7444	16.301
  68	1	1	-0.131368	-5.22998	-11.4839	13.6901
  69	1	1	0.053767	-6.73037	-10.6484	15.4428
  70	1	1	-0.089414	-4.82868	-12.4277	14.6553
  71	1	2	0.07683	-5.04435	-14.0115	16.0559
  72	1	1	-0.043169	-5.44852	-12.5558	15.8927
  73	1	1	0.067251	-6.12709	-10.532	14.207
  74	1	2	0.019658	-4.33257	-13.8627	14.6445
  75	1	3	-0.13357	-7.46547	-12.1048	17.4369
  76	1	3	-0.181622	-4.86256	-11.5786	12.2208
  77	1	2	-0.091671	-4.46974	-16.1614	14.3321
  78	1	1	0.028189	-5.14179	-17.4722	13.9701
  79	1	3	-0.001388	-5.08916	-14.8683	13.7365
  80	1	3	0.000341	-6.13715	-15.0876	15.8092
  81	1	2	-0.108264	-5.1863	-16.3144	15.7425
  82	1	3	-0.051806	-6.53004	-14.8611	14.3214
  83	1	1	0.038269	-5.75989	-17.6038	15.1835
  84	1	1	0.012104	-7.36015	-19.1053	14.2284
  85	1	1	0.009692	-6.73437	-18.9627	12.948
  86	1	1	-0.221685	-5.63723	-18.0679	12.8099
  87	1	1	-0.227504	-6.92334	-18.3544	15.3459
  88	1	1	0.01292	-7.25978	-19.6471	11.8176
  89	1	1	-0.039953	-7.11476	-20.389	9.5398
  90	1	2	0.00887	-8.17117	-21.77	8.33015
  91	1	1	-0.185129	-6.50413	-19.7458	10.6148
  92	1	1	-0.021786	-8.32869	-21.0001	9.63114
  93	1	1	0.017184	-8.54241	-20.2863	11.8975
  94	1	1	-0.198557	-9.06981	-21.0266	10.8101
  95	1	2	-0.002904	-6.74686	-21.0631	8.23099
  96	1	3	0.041883	-7.80922	-23.2774	8.33827
  97	1	3	0.005012	-7.13368	-23.6839	9.68129
  98	1	3	-0.193804	-6.60551	-23.2417	7.36906
  99	1	3	0.042479	-5.76376	-22.2602	8.21617
 100	1	3	0.00144	-5.72351	-22.9711	9.60406
 101	1	3	-0.061914	-8.51892	-20.0711	14.4134
 102	1	3	-0.051146	-9.38941	-20.1517	13.1527
 103	1	5	0.024509	-4.39891	-14.2137	16.9187
 104	1	5	0.045413	-3.24162	-13.9687	14.6249
 105	1	5	0.093061	-8.31145	-12.698	17.068
 106	1	5	0.054925	-7.86876	-11.2039	17.9161
 107	1	5	0.0564	-6.9501	-12.6921	18.2069
 108	1	5	0.072515	-3.88993	-12.0681	12.0875
 109	1	5	0.098261	-4.80076	-10.5823	11.7652
 110	1	5	0.069746	-5.61255	-12.1575	11.6681
 111	1	5	0.056967	-3.37342	-16.1887	14.3216
 112	1	5	0.059195	-4.99375	-14.726	12.6529
 113	1	5	0.053458	-6.95742	-15.1357	16.5358
 114	1	5	0.063182	-4.54139	-16.4395	16.6206
 115	1	5	0.018836	-7.16079	-15.663	13.9174
 116	1	5	0.033342	-7.04771	-13.9097	14.1596
 117	1	4	0.15438	-5.23884	-17.7733	11.8465
 118	1	4	0.144555	-7.46984	-18.3476	16.2836
 119	1	5	0.03716	-8.86985	-21.5141	7.52597
 120	1	4	0.135836	-5.47786	-19.4083	10.53
 121	1	4	0.135526	-9.99667	-21.5869	10.8853
 122	1	5	0.041277	-6.61697	-20.4059	7.36399
 123	1	5	0.00856	-8.62142	-23.9468	8.02851
 124	1	5	-0.004553	-7.70234	-23.4698	10.5946
 125	1	5	0.042416	-6.8673	-22.8344	6.38235
 126	1	5	0.068411	-6.12957	-24.2168	7.22154
 127	1	5	0.009741	-4.77301	-22.0362	7.80152
 128	1	5	0.002304	-5.48309	-22.3403	10.4685
 129	1	5	0.050818	-9.14329	-19.7813	15.2681
 130	1	5	0.045418	-8.11976	-21.0687	14.6373
 131	1	5	0.050853	-10.0896	-20.9912	13.2483
 132	1	5	0.040294	-9.99653	-19.2404	13.078
 133	1	1	-0.162043	-6.82864	3.23454	9.4347
 134	1	1	-0.131368	-7.71557	1.42401	7.29216
 135	1	1	0.053767	-7.51415	3.66384	8.28365
 136	1	1	-0.089414	-7.22026	0.977657	8.53172
 137	1	2	0.07683	-5.94567	0.778678	10.2187
 138	1	1	-0.043169	-6.80235	1.83187	9.54135
 139	1	1	0.067251	-7.93082	2.815	7.27731
 140	1	2	0.019658	-6.42306	-0.201716	9.06129
 141	1	3	-0.13357	-6.06776	4.16538	10.3608
 142	1	3	-0.181622	-7.84866	0.535339	6.06962
 143	1	2	-0.091671	-5.99336	-2.02707	10.438
 144	1	1	0.028189	-6.26771	-3.02296	11.5508
 145	1	3	-0.001388	-7.21828	-1.30311	9.81337
 146	1	3	0.000341	-6.52261	0.139634	11.5102
 147	1	2	-0.108264	-5.52063	-1.04334	11.596
 148	1	3	-0.051806	-7.83466	-0.537198	11.019
 149	1	1	0.038269	-5.86641	-2.17572	12.5443
 150	1	1	0.012104	-7.01779	-3.49689	14.1693
 151	1	1	0.009692	-7.44824	-4.39317	13.1374
 152	1	1	-0.221685	-7.11661	-4.10546	11.7834
 153	1	1	-0.227504	-6.27963	-2.32739	13.8664
 154	1	1	0.01292	-8.25501	-5.51724	13.4639
 155	1	1	-0.039953	-9.25268	-7.63323	12.9181
 156	1	2	0.00887	-10.1298	-9.20303	14.0393
 157	1	1	-0.185129	-8.42164	-6.58132	12.5342
 158	1	1	-0.021786	-9.81813	-7.71924	14.1569
 159	1	1	0.017184	-8.85083	-5.62064	14.7644
 160	1	1	-0.198557	-9.59954	-6.76139	15.1454
 161	1	2	-0.002904	-9.45245	-9.10441	12.6023
 162	1	3	0.041883	-9.25542	-10.2581	14.7645
 163	1	3	0.005012	-7.8489	-9.68087	15.0986
 164	1	3	-0.193804	-8.94831	-11.1857	13.5662
 165	1	3	0.042479	-8.26495	-10.0956	12.7094
 166	1	3	0.00144	-7.16484	-9.55767	13.6772
 167	1	3	-0.061914	-7.33819	-3.79364	15.6253
 168	1	3	-0.051146	-8.69806	-4.48999	15.769
 169	1	5	0.024509	-4.88026	1.02903	10.285
 170	1	5	0.045413	-5.67088	-0.594117	8.36697
 171	1	5	0.093061	-6.55352	5.14747	10.4199
 172	1	5	0.054925	-5.04158	4.31711	10.004
 173	1	5	0.0564	-6.016	3.75564	11.3772
 174	1	5	0.072515	-8.63588	0.90192	5.39901
 175	1	5	0.098261	-8.10428	-0.492419	6.35562
 176	1	5	0.069746	-6.90913	0.506387	5.50421
 177	1	5	0.056967	-5.23503	-2.34583	9.71275
 178	1	5	0.059195	-7.90367	-1.9146	9.21341
 179	1	5	0.053458	-6.60023	0.789403	12.3907
 180	1	5	0.063182	-4.46476	-0.746935	11.6004
 181	1	5	0.018836	-8.27701	-1.20594	11.7685
 182	1	5	0.033342	-8.60087	0.18807	10.7162
 183	1	4	0.15438	-7.55148	-4.63921	10.9466
 184	1	4	0.144555	-6.04857	-1.57964	14.6185
 185	1	5	0.03716	-11.1904	-9.47752	14.0305
 186	1	4	0.135836	-7.86981	-6.64074	11.6032
 187	1	4	0.135526	-9.9652	-6.90024	16.1582
 188	1	5	0.041277	-10.1165	-9.33741	11.7626
 189	1	5	0.00856	-9.74394	-10.7569	15.6108
 190	1	5	-0.004553	-7.82943	-8.76181	15.6963
 191	1	5	0.042416	-9.85742	-11.5867	13.0965
 192	1	5	0.068411	-8.29179	-12.0267	13.8152
 193	1	5	0.009741	-7.87577	-10.4517	11.7474
 194	1	5	0.002304	-6.75871	-8.56451	13.4511
 195	1	5	0.050818	-7.33415	-2.87578	16.2267
 196	1	5	0.045418	-6.55683	-4.44517	16.0373
 197	1	5	0.050853	-8.8102	-4.85749	16.797
 198	1	5	0.040294	-9.4968	-3.75521	15.6063
 199	1	1	-0.162043	-2.65427	7.91162	-5.59686
 200	1	1	-0.131368	-5.50527	7.3184	-5.77789
 201	1	1	0.053767	-3.45565	8.32095	-6.67791
 202	1	1	-0.089414	-4.7526	7.11037	-4.60936
 203	1	2	0.07683	-3.15444	6.37596	-3.42017
 204	1	1	-0.043169	-3.39816	7.40271	-4.51487
 205	1	1	0.067251	-4.8107	8.05329	-6.7558
 206	1	2	0.019658	-4.69883	6.03462	-3.54095
 207	1	3	-0.13357	-1.14482	7.82228	-5.68534
 208	1	3	-0.181622	-6.83184	6.62933	-6.04007
 209	1	2	-0.091671	-4.68849	5.19483	-1.37776
 210	1	1	0.028189	-4.72801	5.2641	0.136712
 211	1	3	-0.001388	-5.27825	6.40565	-2.15179
 212	1	3	0.000341	-3.0097	6.91512	-1.96988
 213	1	2	-0.108264	-3.14451	5.54882	-1.24196
 214	1	3	-0.051806	-4.38258	7.59562	-1.7022
 215	1	1	0.038269	-3.40229	5.57946	0.254606
 216	1	1	0.012104	-3.79261	6.47049	2.44166
 217	1	1	0.009692	-5.18323	6.14464	2.33064
 218	1	1	-0.221685	-5.66858	5.58786	1.11536
 219	1	1	-0.227504	-2.89934	6.25775	1.36395
 220	1	1	0.01292	-6.07553	6.45571	3.39329
 221	1	1	-0.039953	-8.2039	6.28026	4.4898
 222	1	2	0.00887	-8.97067	6.80528	6.39193
 223	1	1	-0.185129	-7.37778	5.88019	3.44003
 224	1	1	-0.021786	-7.78773	7.10727	5.48887
 225	1	1	0.017184	-5.64836	7.32001	4.45641
 226	1	1	-0.198557	-6.49344	7.61696	5.55421
 227	1	2	-0.002904	-9.45409	5.83102	5.22757
 228	1	3	0.041883	-8.81369	5.85112	7.60242
 229	1	3	0.005012	-7.59334	4.90259	7.41084
 230	1	3	-0.193804	-10.0063	4.90682	7.32096
 231	1	3	0.042479	-9.5044	4.44971	5.93074
 232	1	3	0.00144	-8.07138	3.93089	6.25595
 233	1	3	-0.061914	-3.24513	7.06146	3.7304
 234	1	3	-0.051146	-4.27624	7.97271	4.40925
 235	1	5	0.024509	-2.42622	5.59714	-3.67611
 236	1	5	0.045413	-4.98645	5.03496	-3.88734
 237	1	5	0.093061	-0.723066	8.71143	-6.17085
 238	1	5	0.054925	-0.847121	6.94654	-6.27289
 239	1	5	0.0564	-0.69396	7.73815	-4.68884
 240	1	5	0.072515	-7.44299	7.20418	-6.74702
 241	1	5	0.098261	-7.40798	6.51875	-5.11304
 242	1	5	0.069746	-6.67521	5.6295	-6.46337
 243	1	5	0.056967	-4.94242	4.2149	-1.79983
 244	1	5	0.059195	-6.3638	6.55282	-2.09244
 245	1	5	0.053458	-2.11265	7.50726	-1.7504
 246	1	5	0.063182	-2.4269	4.78705	-1.56978
 247	1	5	0.018836	-4.52818	7.8656	-0.648492
 248	1	5	0.033342	-4.53581	8.4977	-2.30841
 249	1	4	0.15438	-6.72572	5.49278	0.896955
 250	1	4	0.144555	-1.87556	6.61762	1.38565
 251	1	5	0.03716	-9.64667	7.64084	6.60475
 252	1	4	0.135836	-7.712	5.11677	2.74696
 253	1	4	0.135526	-6.15658	8.20307	6.40371
 254	1	5	0.041277	-10.4124	6.09984	4.76958
 255	1	5	0.00856	-8.8447	6.34259	8.5829
 256	1	5	-0.004553	-6.62324	5.3827	7.23259
 257	1	5	0.042416	-10.9655	5.4411	7.26952
 258	1	5	0.068411	-10.1082	4.0902	8.04774
 259	1	5	0.009741	-10.1445	3.70637	5.4392
 260	1	5	0.002304	-7.37715	3.85149	5.41017
 261	1	5	0.050818	-2.32445	7.62932	3.54567
 262	1	5	0.045418	-2.98191	6.24512	4.41511
 263	1	5	0.050853	-3.92634	8.22863	5.4174
 264	1	5	0.040294	-4.34646	8.91439	3.84988
 265	1	1	-0.162043	-8.54522	-1.74387	-16.1276
 266	1	1	-0.131368	-10.5237	0.437227	-15.9773
 267	1	1	0.053767	-9.61392	-1.59062	-17.0297
 268	1	1	-0.089414	-9.34922	0.3927	-15.2057
 269	1	2	0.07683	-7.81663	-0.316454	-13.9174
 270	1	1	-0.043169	-8.41883	-0.63296	-15.2741
 271	1	1	0.067251	-10.5419	-0.571041	-16.9569
 272	1	2	0.019658	-8.88409	0.861018	-13.8424
 273	1	3	-0.13357	-7.7277	-3.01465	-15.9892
 274	1	3	-0.181622	-11.6919	1.36187	-15.6899
 275	1	2	-0.091671	-7.5305	1.99992	-12.3511
 276	1	1	0.028189	-6.37523	2.87931	-11.9214
 277	1	3	-0.001388	-8.01771	2.14659	-13.8154
 278	1	3	0.000341	-6.44937	0.419675	-13.9149
 279	1	2	-0.108264	-6.45756	0.823606	-12.4146
 280	1	3	-0.051806	-6.76362	1.75515	-14.6493
 281	1	1	0.038269	-5.45735	1.87414	-11.968
 282	1	1	0.012104	-3.68065	3.45818	-11.8113
 283	1	1	0.009692	-4.63625	4.53028	-11.796
 284	1	1	-0.221685	-6.02139	4.22596	-11.9277
 285	1	1	-0.227504	-4.08546	2.11101	-11.985
 286	1	1	0.01292	-4.19728	5.87633	-11.6536
 287	1	1	-0.039953	-4.61488	8.20087	-11.1833
 288	1	2	0.00887	-3.42622	9.75784	-10.3729
 289	1	1	-0.185129	-5.12525	6.91521	-11.359
 290	1	1	-0.021786	-3.27451	8.4558	-11.1438
 291	1	1	0.017184	-2.79794	6.18268	-11.7025
 292	1	1	-0.198557	-2.31499	7.46978	-11.3643
 293	1	2	-0.002904	-4.98894	9.46708	-10.4331
 294	1	3	0.041883	-3.15179	9.81523	-8.84427
 295	1	3	0.005012	-3.28326	8.40735	-8.18748
 296	1	3	-0.193804	-4.46151	10.4995	-8.38758
 297	1	3	0.042479	-5.3983	9.4004	-8.94128
 298	1	3	0.00144	-4.83239	8.11509	-8.2692
 299	1	3	-0.061914	-2.20141	3.73363	-11.5914
 300	1	3	-0.051146	-1.79432	5.11746	-12.1107
 301	1	5	0.024509	-7.88409	-1.12988	-13.1853
 302	1	5	0.045413	-9.65128	0.822533	-13.0601
 303	1	5	0.093061	-7.68408	-3.56215	-16.9391
 304	1	5	0.054925	-8.16637	-3.68016	-15.2355
 305	1	5	0.0564	-6.69809	-2.78943	-15.6846
 306	1	5	0.072515	-11.3518	2.29602	-15.226
 307	1	5	0.098261	-12.4079	0.885644	-15.0089
 308	1	5	0.069746	-12.2251	1.62116	-16.6133
 309	1	5	0.056967	-8.33358	1.90571	-11.61
 310	1	5	0.059195	-8.51755	3.08631	-14.0814
 311	1	5	0.053458	-5.58183	-0.149118	-14.2717
 312	1	5	0.063182	-6.58963	-0.0130504	-11.7179
 313	1	5	0.018836	-5.95077	2.48815	-14.5677
 314	1	5	0.033342	-6.98811	1.61341	-15.7144
 315	1	4	0.15438	-6.78874	4.97759	-12.0629
 316	1	4	0.144555	-3.37276	1.30059	-12.1012
 317	1	5	0.03716	-3.10744	10.6702	-10.8889
 318	1	4	0.135836	-6.17377	6.73408	-11.1586
 319	1	4	0.135526	-1.2564	7.67687	-11.2578
 320	1	5	0.041277	-5.57419	10.2063	-10.9911
 321	1	5	0.00856	-2.23735	10.3517	-8.56166
 322	1	5	-0.004553	-2.64977	7.61574	-8.60665
 323	1	5	0.042416	-4.62031	11.4738	-8.87091
 324	1	5	0.068411	-4.53465	10.6395	-7.30108
 325	1	5	0.009741	-6.46479	9.5708	-8.7478
 326	1	5	0.002304	-5.09607	7.15864	-8.73424
 327	1	5	0.050818	-1.58202	2.96826	-12.0762
 328	1	5	0.045418	-1.98633	3.67933	-10.5166
 329	1	5	0.050853	-0.787208	5.35989	-11.7497
 330	1	5	0.040294	-1.73587	5.08498	-13.2062
 331	1	1	-0.162043	-22.2669	-8.03646	-19.1024
 332	1	1	-0.131368	-22.3512	-5.65771	-20.7897
 333	1	1	0.053767	-22.5274	-8.07466	-20.4833
 334	1	1	-0.089414	-22.298	-5.59954	-19.3796
 335	1	2	0.07683	-21.6018	-6.03103	-17.4176
 336	1	1	-0.043169	-22.3016	-6.73195	-18.5702
 337	1	1	0.067251	-22.6106	-6.95265	-21.2825
 338	1	2	0.019658	-21.561	-4.74954	-18.3493
 339	1	3	-0.13357	-21.8038	-9.2487	-18.3147
 340	1	3	-0.181622	-22.0028	-4.48632	-21.6891
 341	1	2	-0.091671	-19.68	-3.96003	-17.1733
 342	1	1	0.028189	-18.2	-3.9209	-16.8045
 343	1	3	-0.001388	-20.039	-4.51876	-18.5789
 344	1	3	0.000341	-20.1132	-6.39117	-17.1922
 345	1	2	-0.108264	-19.7632	-5.22719	-16.2278
 346	1	3	-0.051806	-19.4514	-5.95526	-18.5274
 347	1	1	0.038269	-18.2842	-5.01473	-15.9735
 348	1	1	0.012104	-15.9917	-5.57301	-16.4287
 349	1	1	0.009692	-15.8883	-4.45287	-17.3078
 350	1	1	-0.221685	-17.0354	-3.64152	-17.5302
 351	1	1	-0.227504	-17.2174	-5.89977	-15.8088
 352	1	1	0.01292	-14.6928	-4.24454	-18.0492
 353	1	1	-0.039953	-13.3139	-2.92717	-19.5071
 354	1	2	0.00887	-11.3374	-3.0679	-20.2541
 355	1	1	-0.185129	-14.45	-3.00368	-18.7012
 356	1	1	-0.021786	-12.3946	-3.92912	-19.5867
 357	1	1	0.017184	-13.7058	-5.28398	-18.1275
 358	1	1	-0.198557	-12.5072	-5.11249	-18.8623
 359	1	2	-0.002904	-12.4102	-1.89531	-20.1622
 360	1	3	0.041883	-10.145	-2.50898	-19.4386
 361	1	3	0.005012	-10.4854	-2.45622	-17.9196
 362	1	3	-0.193804	-10.2504	-1.02034	-19.8481
 363	1	3	0.042479	-11.6878	-0.823145	-19.3112
 364	1	3	0.00144	-11.5514	-1.28792	-17.8324
 365	1	3	-0.061914	-14.7876	-6.46574	-16.1789
 366	1	3	-0.051146	-13.9389	-6.62267	-17.4474
 367	1	5	0.024509	-22.1911	-5.9584	-16.496
 368	1	5	0.045413	-22.1032	-3.86397	-17.9984
 369	1	5	0.093061	-20.72	-9.38645	-18.4128
 370	1	5	0.054925	-22.2938	-10.1624	-18.6738
 371	1	5	0.0564	-22.0377	-9.14106	-17.2482
 372	1	5	0.072515	-22.8207	-4.27696	-22.3895
 373	1	5	0.098261	-21.1045	-4.70171	-22.2782
 374	1	5	0.069746	-21.8175	-3.5741	-21.1089
 375	1	5	0.056967	-20.2586	-3.0765	-16.8789
 376	1	5	0.059195	-19.7632	-3.90132	-19.4401
 377	1	5	0.053458	-19.8961	-7.40708	-16.8409
 378	1	5	0.063182	-20.406	-5.15455	-15.3423
 379	1	5	0.018836	-18.3574	-5.96949	-18.4901
 380	1	5	0.033342	-19.7652	-6.57201	-19.3697
 381	1	4	0.15438	-17.0755	-2.91827	-18.334
 382	1	4	0.144555	-17.35	-6.83505	-15.2745
 383	1	5	0.03716	-11.0503	-3.35114	-21.2727
 384	1	4	0.135836	-15.0685	-2.12873	-18.5419
 385	1	4	0.135526	-11.7185	-5.85833	-18.8686
 386	1	5	0.041277	-12.7313	-1.5019	-21.1306
 387	1	5	0.00856	-9.17643	-2.97393	-19.6611
 388	1	5	-0.004553	-10.7992	-3.39855	-17.4539
 389	1	5	0.042416	-10.1825	-0.874647	-20.9355
 390	1	5	0.068411	-9.50426	-0.372624	-19.3694
 391	1	5	0.009741	-12.0804	0.195337	-19.4237
 392	1	5	0.002304	-12.481	-1.55382	-17.3142
 393	1	5	0.050818	-15.094	-7.457	-15.8218
 394	1	5	0.045418	-14.1709	-6.02092	-15.3874
 395	1	5	0.050853	-12.9864	-7.10206	-17.188
 396	1	5	0.040294	-14.4505	-7.29589	-18.1461
 397	1	1	-0.162043	-26.6729	-13.4557	-33.8191
 398	1	1	-0.131368	-24.5779	-11.4549	-34.1818
 399	1	1	0.053767	-25.5771	-13.636	-34.685
 400	1	1	-0.089414	-25.7968	-11.1742	-33.5381
 401	1	2	0.07683	-27.3756	-11.4308	-32.1429
 402	1	1	-0.043169	-26.7926	-12.1271	-33.3623
 403	1	1	0.067251	-24.5865	-12.6901	-34.8514
 404	1	2	0.019658	-26.2368	-10.3437	-32.3452
 405	1	3	-0.13357	-27.5273	-14.5982	-33.3012
 406	1	3	-0.181622	-23.3319	-10.6137	-34.009
 407	1	2	-0.091671	-26.3957	-9.74824	-30.1008
 408	1	1	0.028189	-26.1479	-9.88833	-28.6089
 409	1	3	-0.001388	-25.3844	-10.4465	-31.051
 410	1	3	0.000341	-27.0591	-12.042	-30.7515
 411	1	2	-0.108264	-27.5369	-10.8337	-29.8994
 412	1	3	-0.051806	-25.5089	-11.9473	-30.6642
 413	1	1	0.038269	-27.1325	-10.8261	-28.4378
 414	1	1	0.012104	-26.0492	-11.6322	-26.4611
 415	1	1	0.009692	-25.0079	-10.6641	-26.6298
 416	1	1	-0.221685	-25.033	-9.81483	-27.7703
 417	1	1	-0.227504	-27.0835	-11.771	-27.4147
 418	1	1	0.01292	-23.9133	-10.6336	-25.7219
 419	1	1	-0.039953	-21.9431	-9.62002	-24.8095
 420	1	2	0.00887	-20.5648	-10.0669	-23.2732
 421	1	1	-0.185129	-23.0142	-9.52635	-25.6967
 422	1	1	-0.021786	-21.7553	-10.6782	-23.9787
 423	1	1	0.017184	-23.7112	-11.7326	-24.8176
 424	1	1	-0.198557	-22.6284	-11.7566	-23.9055
 425	1	2	-0.002904	-20.7696	-8.82676	-24.2556
 426	1	3	0.041883	-20.7458	-9.43758	-21.8733
 427	1	3	0.005012	-22.23	-9.00648	-21.6425
 428	1	3	-0.193804	-20.0406	-8.08974	-22.1454
 429	1	3	0.042479	-20.9905	-7.64515	-23.2754
 430	1	3	0.00144	-22.3771	-7.73556	-22.5724
 431	1	3	-0.061914	-26.0472	-12.5602	-25.2587
 432	1	3	-0.051146	-24.6167	-12.9515	-24.8725
 433	1	5	0.024509	-28.4115	-11.092	-32.2613
 434	1	5	0.045413	-26.5603	-9.32571	-32.5918
 435	1	5	0.093061	-27.6482	-15.3782	-34.0633
 436	1	5	0.054925	-28.5278	-14.2475	-33.0191
 437	1	5	0.0564	-27.068	-15.0577	-32.4172
 438	1	5	0.072515	-23.5804	-9.5496	-33.9124
 439	1	5	0.098261	-22.6585	-10.7279	-34.8666
 440	1	5	0.069746	-22.7893	-10.9212	-33.1072
 441	1	5	0.056967	-26.7075	-8.74766	-30.4238
 442	1	5	0.059195	-24.3711	-10.0278	-31.0898
 443	1	5	0.053458	-27.509	-13.0165	-30.5257
 444	1	5	0.063182	-28.5691	-10.5179	-30.0934
 445	1	5	0.018836	-25.1209	-12.1658	-29.6614
 446	1	5	0.033342	-25.0033	-12.6103	-31.3737
 447	1	4	0.15438	-24.1865	-9.2037	-28.0601
 448	1	4	0.144555	-27.7919	-12.5925	-27.377
 449	1	5	0.03716	-19.609	-10.5909	-23.3768
 450	1	4	0.135836	-23.1472	-8.63514	-26.299
 451	1	4	0.135526	-22.4733	-12.5707	-23.2042
 452	1	5	0.041277	-19.9425	-8.63999	-24.9492
 453	1	5	0.00856	-20.3145	-10.0191	-21.0491
 454	1	5	-0.004553	-22.9939	-9.77871	-21.7968
 455	1	5	0.042416	-19.0044	-8.21294	-22.4839
 456	1	5	0.068411	-20.0402	-7.40766	-21.2941
 457	1	5	0.009741	-20.765	-6.65675	-23.6939
 458	1	5	0.002304	-23.2486	-7.76639	-23.2389
 459	1	5	0.050818	-26.6323	-13.4675	-25.4553
 460	1	5	0.045418	-26.5239	-12.0523	-24.4106
 461	1	5	0.050853	-24.6312	-13.4766	-23.9091
 462	1	5	0.040294	-24.2239	-13.6586	-25.6144
 463	1	1	-0.162043	-18.0516	-10.8568	-46.9808
 464	1	1	-0.131368	-16.2621	-10.3768	-44.7588
 465	1	1	0.053767	-16.8793	-10.0863	-47.1147
 466	1	1	-0.089414	-17.3145	-11.3038	-44.688
 467	1	2	0.07683	-19.3761	-11.7799	-44.8579
 468	1	1	-0.043169	-18.1727	-11.5435	-45.7579
 469	1	1	0.067251	-16.0197	-9.86007	-46.0447
 470	1	2	0.019658	-18.4037	-11.4917	-43.6477
 471	1	3	-0.13357	-19.236	-10.6784	-47.9152
 472	1	3	-0.181622	-15.6906	-9.72195	-43.5131
 473	1	2	-0.091671	-19.8157	-12.6455	-42.2278
 474	1	1	0.028189	-20.4321	-13.8609	-41.5661
 475	1	3	-0.001388	-18.3988	-12.8146	-42.8403
 476	1	3	0.000341	-19.83	-13.2479	-44.6269
 477	1	2	-0.108264	-20.7941	-12.9544	-43.4436
 478	1	3	-0.051806	-18.6	-13.8993	-43.9352
 479	1	1	0.038269	-21.2667	-14.1334	-42.6116
 480	1	1	0.012104	-22.6531	-15.4529	-41.176
 481	1	1	0.009692	-21.7886	-15.1691	-40.0658
 482	1	1	-0.221685	-20.6842	-14.2908	-40.2643
 483	1	1	-0.227504	-22.4358	-14.8722	-42.4498
 484	1	1	0.01292	-22.0953	-15.6942	-38.7762
 485	1	1	-0.039953	-21.7967	-15.787	-36.3911
 486	1	2	0.00887	-22.9126	-16.5637	-34.7645
 487	1	1	-0.185129	-21.4537	-15.1952	-37.6055
 488	1	1	-0.021786	-22.7802	-16.7222	-36.2717
 489	1	1	0.017184	-23.111	-16.7	-38.6363
 490	1	1	-0.198557	-23.5113	-17.1811	-37.3645
 491	1	2	-0.002904	-21.771	-15.463	-34.9091
 492	1	3	0.041883	-24.0885	-15.7622	-34.1452
 493	1	3	0.005012	-24.7048	-14.7785	-35.1838
 494	1	3	-0.193804	-23.2803	-14.808	-33.2356
 495	1	3	0.042479	-22.4556	-14.1784	-34.3807
 496	1	3	0.00144	-23.5681	-13.6926	-35.3602
 497	1	3	-0.061914	-23.9443	-16.2253	-40.9652
 498	1	3	-0.051146	-23.7878	-17.2819	-39.8658
 499	1	5	0.024509	-20.2087	-11.0867	-45.0273
 500	1	5	0.045413	-18.593	-10.6035	-43.0329
 501	1	5	0.093061	-18.9032	-10.4785	-48.9415
 502	1	5	0.054925	-19.8634	-9.83746	-47.5942
 503	1	5	0.0564	-19.8617	-11.5793	-47.9372
 504	1	5	0.072515	-14.6539	-9.40186	-43.6764
 505	1	5	0.098261	-15.6959	-10.415	-42.6627
 506	1	5	0.069746	-16.2763	-8.83772	-43.2356
 507	1	5	0.056967	-19.952	-11.7111	-41.6697
 508	1	5	0.059195	-17.5681	-12.9637	-42.1393
 509	1	5	0.053458	-20.2512	-13.7768	-45.4908
 510	1	5	0.063182	-21.579	-12.2263	-43.6817
 511	1	5	0.018836	-18.8206	-14.8902	-43.518
 512	1	5	0.033342	-17.7357	-13.9917	-44.6056
 513	1	4	0.15438	-20.0503	-13.9327	-39.4648
 514	1	4	0.144555	-23.172	-14.9415	-43.2446
 515	1	5	0.03716	-22.6382	-17.4343	-34.1584
 516	1	4	0.135836	-20.781	-14.3481	-37.6054
 517	1	4	0.135526	-24.349	-17.8605	-37.24
 518	1	5	0.041277	-20.8408	-15.6898	-34.3763
 519	1	5	0.00856	-24.8313	-16.3716	-33.6156
 520	1	5	-0.004553	-25.0575	-15.2238	-36.1221
 521	1	5	0.042416	-22.6551	-15.3438	-32.5075
 522	1	5	0.068411	-23.8997	-14.0875	-32.6906
 523	1	5	0.009741	-21.7654	-13.3877	-34.0636
 524	1	5	0.002304	-23.2619	-13.5157	-36.3981
 525	1	5	0.050818	-24.2651	-16.7136	-41.8943
 526	1	5	0.045418	-24.741	-15.5256	-40.6818
 527	1	5	0.050853	-24.7734	-17.6957	-39.6172
 528	1	5	0.040294	-23.1826	-18.1133	-40.2492
 529	1	1	-0.162043	-20.3795	-8.15731	-36.7136
 530	1	1	-0.131368	-17.4785	-8.25422	-36.759
 531	1	1	0.053767	-19.6158	-8.62103	-35.6246
 532	1	1	-0.089414	-18.2319	-7.59188	-37.7435
 533	1	2	0.07683	-19.7444	-7.4731	-39.2304
 534	1	1	-0.043169	-19.6216	-7.51875	-37.7149
 535	1	1	0.067251	-18.2289	-8.64807	-35.6368
 536	1	2	0.019658	-18.1674	-7.59335	-39.2586
 537	1	3	-0.13357	-21.8321	-8.55207	-36.9162
 538	1	3	-0.181622	-16.0637	-8.74417	-37.0118
 539	1	2	-0.091671	-18.1477	-6.69551	-41.3818
 540	1	1	0.028189	-18.1436	-5.61231	-42.4392
 541	1	3	-0.001388	-17.6999	-6.29036	-39.9518
 542	1	3	0.000341	-20.0186	-6.09041	-39.8939
 543	1	2	-0.108264	-19.7207	-6.52593	-41.3549
 544	1	3	-0.051806	-18.7682	-5.25005	-39.5145
 545	1	1	0.038269	-19.5085	-5.44518	-42.4062
 546	1	1	0.012104	-19.4892	-4.80085	-44.7238
 547	1	1	0.009692	-18.0845	-5.05118	-44.7949
 548	1	1	-0.221685	-17.4102	-5.48319	-43.6198
 549	1	1	-0.227504	-20.224	-5.07509	-43.5464
 550	1	1	0.01292	-17.4363	-5.10162	-46.0645
 551	1	1	-0.039953	-15.4881	-5.648	-47.3985
 552	1	2	0.00887	-15.3904	-6.94888	-49.0732
 553	1	1	-0.185129	-16.0279	-5.28531	-46.161
 554	1	1	-0.021786	-16.2852	-5.86048	-48.4967
 555	1	1	0.017184	-18.2326	-5.20635	-47.2512
 556	1	1	-0.198557	-17.6629	-5.64472	-48.4679
 557	1	2	-0.002904	-14.4524	-6.68388	-47.8251
 558	1	3	0.041883	-15.762	-8.45304	-48.9102
 559	1	3	0.005012	-16.693	-8.68401	-47.6775
 560	1	3	-0.193804	-14.4075	-8.98065	-48.3859
 561	1	3	0.042479	-14.3817	-8.0751	-47.1341
 562	1	3	0.00144	-15.737	-8.43119	-46.4601
 563	1	3	-0.061914	-20.2318	-4.34993	-45.9678
 564	1	3	-0.051146	-19.751	-5.14317	-47.1878
 565	1	5	0.024509	-20.3335	-8.29128	-39.6617
 566	1	5	0.045413	-17.7235	-8.50122	-39.6843
 567	1	5	0.093061	-22.2995	-7.96165	-37.7141
 568	1	5	0.054925	-22.4132	-8.38863	-36.0005
 569	1	5	0.0564	-21.9166	-9.61175	-37.1878
 570	1	5	0.072515	-16.071	-9.74183	-37.4678
 571	1	5	0.098261	-15.4928	-8.80315	-36.0767
 572	1	5	0.069746	-15.5265	-8.06707	-37.6877
 573	1	5	0.056967	-17.735	-7.65261	-41.7215
 574	1	5	0.059195	-16.6476	-6.00961	-39.8196
 575	1	5	0.053458	-20.9984	-5.63513	-39.703
 576	1	5	0.063182	-20.3399	-7.36488	-41.6953
 577	1	5	0.018836	-18.7011	-4.30945	-40.0763
 578	1	5	0.033342	-18.7223	-5.01728	-38.4427
 579	1	4	0.15438	-16.4116	-5.89779	-43.6411
 580	1	4	0.144555	-21.3095	-5.0837	-43.5475
 581	1	5	0.03716	-14.9331	-6.73753	-50.0461
 582	1	4	0.135836	-15.3813	-5.30948	-45.2938
 583	1	4	0.135526	-18.2908	-5.96144	-49.2952
 584	1	5	0.041277	-13.4571	-6.29684	-48.0699
 585	1	5	0.00856	-16.1135	-8.94103	-49.8279
 586	1	5	-0.004553	-17.6175	-8.09823	-47.6546
 587	1	5	0.042416	-13.5763	-8.77448	-49.0748
 588	1	5	0.068411	-14.4099	-10.0544	-48.1561
 589	1	5	0.009741	-13.5106	-8.22316	-46.4836
 590	1	5	0.002304	-16.1142	-7.72392	-45.7181
 591	1	5	0.050818	-20.0436	-3.28134	-46.1335
 592	1	5	0.045418	-21.317	-4.46822	-45.8558
 593	1	5	0.050853	-20.1519	-6.16353	-47.1336
 594	1	5	0.040294	-20.158	-4.68879	-48.1003
 595	1	1	-0.162043	-16.3233	-7.15078	-21.1138
 596	1	1	-0.131368	-15.4658	-5.69518	-23.4292
 597	1	1	0.053767	-16.8328	-5.86805	-21.3977
 598	1	1	-0.089414	-14.884	-6.91653	-23.0481
 599	1	2	0.07683	-15.0301	-8.97643	-22.5586
 600	1	1	-0.043169	-15.3124	-7.61911	-21.9469
 601	1	1	0.067251	-16.4252	-5.11185	-22.5404
 602	1	2	0.019658	-14.4739	-8.17847	-23.8057
 603	1	3	-0.13357	-16.903	-8.02038	-20.0093
 604	1	3	-0.181622	-15.1296	-5.13774	-24.8072
 605	1	2	-0.091671	-14.841	-10.0902	-25.1067
 606	1	1	0.028189	-15.657	-11.0248	-25.9784
 607	1	3	-0.001388	-15.3842	-8.63602	-24.9754
 608	1	3	0.000341	-16.2674	-9.7375	-23.1254
 609	1	2	-0.108264	-15.4902	-10.8466	-23.8763
 610	1	3	-0.051806	-16.7629	-8.82102	-24.282
 611	1	1	0.038269	-16.2614	-11.6504	-24.9135
 612	1	1	0.012104	-18.2149	-12.0547	-26.2624
 613	1	1	0.009692	-17.5672	-11.454	-27.3847
 614	1	1	-0.221685	-16.2856	-10.8721	-27.2148
 615	1	1	-0.227504	-17.5798	-12.1106	-24.9986
 616	1	1	0.01292	-18.2474	-11.3319	-28.624
 617	1	1	-0.039953	-18.2707	-10.9667	-30.986
 618	1	2	0.00887	-19.7154	-10.9888	-32.5256
 619	1	1	-0.185129	-17.5173	-11.0894	-29.8222
 620	1	1	-0.021786	-19.6285	-11.0415	-31.0127
 621	1	1	0.017184	-19.6726	-11.4934	-28.6749
 622	1	1	-0.198557	-20.3913	-11.3539	-29.8898
 623	1	2	-0.002904	-18.1225	-10.9481	-32.4969
 624	1	3	0.041883	-20.0682	-9.6402	-33.2083
 625	1	3	0.005012	-19.723	-9.83306	-34.7112
 626	1	3	-0.193804	-18.9373	-8.69771	-32.7362
 627	1	3	0.042479	-17.791	-9.61791	-33.2092
 628	1	3	0.00144	-18.1447	-9.84549	-34.7084