
Host: node50

Timers On : Mon Dec 12 15:31:13 2022
Timers Off: Mon Dec 12 18:45:34 2022

Wall Time:    11660.96 seconds

                                                       Time (seconds)
Module                                       User      System        Wall        Calls

--------------------------------------------------------------------------------------

**************************************************************************************
