pySIMM System Object

1514 atoms
1723 bonds
2856 angles
4532 dihedrals
504 impropers

10 atom types
15 bond types
26 angle types
12 dihedral types
2 improper types

-173.800306 173.800306 xlo xhi
-173.800306 173.800306 ylo yhi
-173.800306 173.800306 zlo zhi

Masses

   1	12.01	# ca
   2	12.01	# cp
   3	14.01	# na
   4	12.01	# cc
   5	14.01	# nc
   6	12.01	# cd
   7	14.01	# nd
   8	1.008	# ha
   9	1.008	# hn
  10	1.008	# h5

Pair Coeffs

   1	0.086	3.3996695084235347	# ca
   2	0.086	3.3996695084235347	# cp
   3	0.17	3.249998523775958	# na
   4	0.086	3.3996695084235347	# cc
   5	0.17	3.249998523775958	# nc
   6	0.086	3.3996695084235347	# cd
   7	0.17	3.249998523775958	# nd
   8	0.015	2.59964245953351	# ha
   9	0.0157	1.069078461768407	# hn
  10	0.015	2.421462715905442	# h5

Bond Coeffs

   1	425.8	1.3802	# cd,na
   2	525.4	1.3172	# cc,nd
   3	345.8	1.086	# ca,ha
   4	351.4	1.4854	# cp,cp
   5	467.7	1.3517	# ca,nc
   6	385.1	1.4555	# ca,cd
   7	467.7	1.3517	# ca,nd
   8	525.4	1.3172	# cd,nc
   9	450.2	1.4058	# ca,cp
  10	425.8	1.3802	# cc,na
  11	420.5	1.384	# ca,na
  12	351.7	1.0819	# cc,h5
  13	461.1	1.3984	# ca,ca
  14	408.4	1.01	# hn,na
  15	385.1	1.4555	# ca,cc

Angle Coeffs

   1	48.18	119.88	# ca,ca,ha
   2	66.28	123.45	# ca,cd,na
   3	64.05	121.11	# ca,cp,cp
   4	46.75	125.5	# cc,na,hn
   5	67.6	123.24	# ca,cd,nc
   6	46.75	125.5	# cd,na,hn
   7	72.48	104.88	# ca,nc,cd
   8	74.9	112.22	# na,cd,nc
   9	66.62	120.02	# ca,ca,ca
  10	46.63	125.54	# ca,na,hn
  11	65.02	120.79	# ca,ca,cd
  12	47.98	119.86	# cp,ca,ha
  13	69.46	119.72	# ca,ca,nc
  14	72.48	104.88	# ca,nd,cc
  15	69.08	118.34	# ca,ca,na
  16	66.72	118.38	# ca,cp,ca
  17	69.46	119.72	# ca,ca,nd
  18	74.9	112.22	# na,cc,nd
  19	67.4	113.15	# ca,na,cc
  20	66.26	120.69	# ca,ca,cp
  21	50.58	125.52	# h5,cc,nd
  22	67.4	113.15	# ca,na,cd
  23	49.58	121.55	# h5,cc,na
  24	66.28	123.45	# ca,cc,na
  25	67.6	123.24	# ca,cc,nd
  26	65.02	120.79	# ca,ca,cc

Dihedral Coeffs

   1	1	4.8	2	180	# X,ca,nc,X
   2	1	4.8	2	180	# X,ca,nd,X
   3	1	4.0	2	180	# X,ca,cd,X
   4	1	4.75	2	180	# X,cd,nc,X
   5	1	4.75	2	180	# X,cc,nd,X
   6	1	1.7	2	180	# X,cc,na,X
   7	1	1.0	2	180	# X,cp,cp,X
   8	1	3.625	2	180	# X,ca,cp,X
   9	1	0.3	2	180	# X,ca,na,X
  10	1	1.7	2	180	# X,cd,na,X
  11	1	3.625	2	180	# X,ca,ca,X
  12	1	4.0	2	180	# X,ca,cc,X

Improper Coeffs

   1	1.1	-1	2	# na,X,X,hn
   2	1.1	-1	2	# ca,X,X,ha

Atoms

   1	1	1	-0.155485	-6.63837	34.9439	-77.6956
   2	1	2	-0.03785	-5.38778	34.7622	-78.3499
   3	1	1	-0.234781	-5.98554	32.3937	-78.7663
   4	1	1	0.378053	-7.20078	32.6206	-78.1196
   5	1	1	-0.208553	-5.08139	33.4731	-78.8802
   6	1	3	-0.411858	-1.8097	37.4375	-80.6652
   7	1	1	-0.147234	-4.30133	36.8807	-77.452
   8	1	1	0.107751	-7.50641	33.8511	-77.6085
   9	1	4	0.626409	-9.13537	32.4351	-77.2533
  10	1	2	0.00453	-4.41519	35.8946	-78.4775
  11	1	1	0.356173	-2.59185	38.034	-78.6968
  12	1	1	0.030551	-2.69497	37.0953	-79.6865
  13	1	1	-0.286062	-3.38891	37.9543	-77.5539
  14	1	5	-0.595919	-1.66803	38.9724	-78.9871
  15	1	1	-0.206338	-3.58128	36.0142	-79.6235
  16	1	6	0.462884	-1.19718	38.6002	-80.1883
  17	1	3	-0.691987	-8.74835	33.7675	-77.0471
  18	1	7	-0.710982	-8.19292	31.7339	-77.9096
  19	1	1	-0.062645	1.4267	41.2102	-81.0268
  20	1	1	0.026743	-0.149546	39.3376	-80.9202
  21	1	1	-0.399843	1.86262	40.777	-82.2884
  22	1	1	-0.107518	0.426235	40.4935	-80.3521
  23	1	1	0.292439	1.30254	39.6335	-82.8713
  24	1	1	-0.410418	0.305333	38.9175	-82.1931
  25	1	8	0.148547	-6.9247	35.9085	-77.2918
  26	1	8	0.179912	-5.75729	31.4082	-79.1577
  27	1	8	0.155197	-4.12181	33.3058	-79.3617
  28	1	9	0.340258	-1.62097	36.9665	-81.5307
  29	1	8	0.137111	-4.91219	36.7959	-76.558
  30	1	8	0.181656	-3.29287	38.7017	-76.7739
  31	1	8	0.164633	-3.64374	35.3008	-80.4379
  32	1	9	0.430928	-9.26755	34.4858	-76.5792
  33	1	8	0.141007	1.85894	42.0973	-80.5685
  34	1	8	0.203537	2.63495	41.3248	-82.8189
  35	1	8	0.116715	0.0976265	40.8391	-79.3754
  36	1	8	0.18244	-0.108707	38.0381	-82.6705
  37	1	1	-0.155485	-10.9824	22.8339	-80.0246
  38	1	2	-0.03785	-11.6958	22.7957	-78.7967
  39	1	1	-0.234781	-11.472	20.326	-78.7855
  40	1	1	0.378053	-10.7655	20.4137	-79.9882
  41	1	1	-0.208553	-11.9401	21.5247	-78.1955
  42	1	3	-0.411858	-11.226	27.6348	-77.6123
  43	1	1	-0.147234	-13.3859	24.1574	-77.4469
  44	1	1	0.107751	-10.5465	21.6284	-80.5753
  45	1	4	0.626409	-9.66341	20.0271	-81.7685
  46	1	2	0.00453	-12.15	24.07	-78.1555
  47	1	1	0.356173	-13.0036	26.4973	-76.9924
  48	1	1	0.030551	-11.8112	26.41	-77.6567
  49	1	1	-0.286062	-13.823	25.3722	-76.8658
  50	1	5	-0.595919	-13.2267	27.7463	-76.5255
  51	1	1	-0.206338	-11.346	25.2363	-78.2524
  52	1	6	0.462884	-12.1346	28.4285	-76.9104
  53	1	3	-0.691987	-9.84856	21.415	-81.7232
  54	1	7	-0.710982	-10.2221	19.4089	-80.7107
  55	1	1	-0.062645	-12.6047	31.9937	-75.694
  56	1	1	0.026743	-11.8938	29.8569	-76.6356
  57	1	1	-0.399843	-11.4044	32.5911	-76.1168
  58	1	1	-0.107518	-12.8439	30.6345	-75.9483
  59	1	1	0.292439	-10.4245	31.839	-76.8042
  60	1	1	-0.410418	-10.6974	30.478	-77.0565
  61	1	8	0.148547	-10.7903	23.7718	-80.533
  62	1	8	0.179912	-11.6391	19.3576	-78.3266
  63	1	8	0.155197	-12.4714	21.4769	-77.2482
  64	1	9	0.340258	-10.3402	27.9207	-77.9891
  65	1	8	0.137111	-14.0194	23.2777	-77.3723
  66	1	8	0.181656	-14.7672	25.4467	-76.3373
  67	1	8	0.164633	-10.3862	25.2169	-78.7561
  68	1	9	0.430928	-9.5432	22.0897	-82.3977
  69	1	8	0.141007	-13.3538	32.5797	-75.1649
  70	1	8	0.203537	-11.2386	33.6414	-75.9062
  71	1	8	0.116715	-13.7743	30.1824	-75.6137
  72	1	8	0.18244	-9.94338	29.9032	-77.5833
  73	1	1	-0.155485	-7.01977	8.8464	-83.1092
  74	1	2	-0.03785	-7.91176	9.9111	-82.7954
  75	1	1	-0.234781	-9.25722	8.32716	-81.4397
  76	1	1	0.378053	-8.3643	7.31414	-81.7898
  77	1	1	-0.208553	-9.02559	9.62542	-81.9479
  78	1	3	-0.411858	-8.34605	14.9383	-82.8835
  79	1	1	-0.147234	-7.05534	11.4543	-84.6292
  80	1	1	0.107751	-7.28725	7.5776	-82.588
  81	1	4	0.626409	-7.3554	5.45871	-82.0494
  82	1	2	0.00453	-7.70683	11.2835	-83.3696
  83	1	1	0.356173	-7.34838	13.8391	-84.5082
  84	1	1	0.030551	-7.97925	13.6923	-83.3035
  85	1	1	-0.286062	-6.86827	12.73	-85.2034
  86	1	5	-0.595919	-7.28352	15.1285	-84.8912
  87	1	1	-0.206338	-8.17781	12.4466	-82.6956
  88	1	6	0.462884	-7.89923	15.7902	-83.8987
  89	1	3	-0.691987	-6.61001	6.40719	-82.7662
  90	1	7	-0.710982	-8.42178	6.01251	-81.446
  91	1	1	-0.062645	-7.72106	19.4086	-84.9927
  92	1	1	0.026743	-8.08119	17.2542	-83.8979
  93	1	1	-0.399843	-8.39719	20.0582	-83.9503
  94	1	1	-0.107518	-7.569	18.0176	-84.965
  95	1	1	0.292439	-8.93574	19.3293	-82.8642
  96	1	1	-0.410418	-8.76217	17.9262	-82.8555
  97	1	8	0.148547	-6.14837	9.00591	-83.7331
  98	1	8	0.179912	-10.1111	8.0982	-80.811
  99	1	8	0.155197	-9.73804	10.4101	-81.7112
 100	1	9	0.340258	-8.8338	15.2002	-82.0451
 101	1	8	0.137111	-6.71648	10.5846	-85.1829
 102	1	8	0.181656	-6.38329	12.8615	-86.1644
 103	1	8	0.164633	-8.6687	12.3773	-81.7314
 104	1	9	0.430928	-5.78318	6.2456	-83.3076
 105	1	8	0.141007	-7.31417	19.9775	-85.8263
 106	1	8	0.203537	-8.50547	21.135	-83.9968
 107	1	8	0.116715	-7.04321	17.529	-85.7815
 108	1	8	0.18244	-9.17425	17.3666	-82.0214
 109	1	1	-0.155485	-10.2256	-4.94532	-77.8537
 110	1	2	-0.03785	-10.6668	-3.72897	-77.2616
 111	1	1	-0.234781	-11.3287	-4.99535	-75.2358
 112	1	1	0.378053	-10.8498	-6.15573	-75.8442
 113	1	1	-0.208553	-11.2354	-3.78198	-75.9531
 114	1	3	-0.411858	-8.12241	-0.525631	-80.1652
 115	1	1	-0.147234	-11.3261	-1.30608	-77.7268
 116	1	1	0.107751	-10.3434	-6.12451	-77.1136
 117	1	4	0.626409	-10.1461	-8.12068	-76.2493
 118	1	2	0.00453	-10.4571	-2.41623	-77.9541
 119	1	1	0.356173	-9.95902	0.101393	-79.1259
 120	1	1	0.030551	-9.13514	-0.962838	-79.3672
 121	1	1	-0.286062	-11.0825	-0.041413	-78.3098
 122	1	5	-0.595919	-9.5172	1.22235	-79.731
 123	1	1	-0.206338	-9.33506	-2.22723	-78.8068
 124	1	6	0.462884	-8.39272	0.832994	-80.3537
 125	1	3	-0.691987	-9.91778	-7.38371	-77.4201
 126	1	7	-0.710982	-10.7425	-7.38211	-75.2962
 127	1	1	-0.062645	-5.551	2.12161	-82.5179
 128	1	1	0.026743	-7.52677	1.73987	-81.1328
 129	1	1	-0.399843	-5.86941	3.48547	-82.6104
 130	1	1	-0.107518	-6.37226	1.25698	-81.7808
 131	1	1	0.292439	-7.01464	4.01102	-81.9672
 132	1	1	-0.410418	-7.82751	3.11445	-81.2411
 133	1	8	0.148547	-9.79212	-4.96277	-78.8467
 134	1	8	0.179912	-11.7161	-5.03521	-74.2236
 135	1	8	0.155197	-11.5534	-2.86308	-75.4678
 136	1	9	0.340258	-7.33248	-1.04181	-80.505
 137	1	8	0.137111	-12.1961	-1.42843	-77.0879
 138	1	8	0.181656	-11.7291	0.809931	-78.1254
 139	1	8	0.164633	-8.62208	-3.02382	-78.983
 140	1	9	0.430928	-9.44775	-7.69442	-78.2486
 141	1	8	0.141007	-4.66532	1.73104	-83.0152
 142	1	8	0.203537	-5.2178	4.1366	-83.181
 143	1	8	0.116715	-6.10474	0.207387	-81.7235
 144	1	8	0.18244	-8.7143	3.50249	-80.7417
 145	1	1	-0.155485	-10.2399	-11.7393	-66.6697
 146	1	2	-0.03785	-10.2438	-13.007	-67.3186
 147	1	1	-0.234781	-10.7279	-14.0802	-65.1352
 148	1	1	0.378053	-10.6962	-12.8184	-64.5419
 149	1	1	-0.208553	-10.5032	-14.1668	-66.5268
 150	1	3	-0.411858	-10.0925	-11.3804	-72.0818
 151	1	1	-0.147234	-9.31102	-14.2953	-69.309
 152	1	1	0.107751	-10.4727	-11.6967	-65.2909
 153	1	4	0.626409	-10.6853	-11.1896	-63.1734
 154	1	2	0.00453	-9.94696	-13.128	-68.7853
 155	1	1	0.356173	-9.31326	-13.3603	-71.5278
 156	1	1	0.030551	-9.92721	-12.2399	-71.0384
 157	1	1	-0.286062	-8.99224	-14.4201	-70.6796
 158	1	5	-0.595919	-9.06173	-13.2631	-72.8498
 159	1	1	-0.206338	-10.2608	-12.0752	-69.6892
 160	1	6	0.462884	-9.52804	-12.0465	-73.1732
 161	1	3	-0.691987	-10.4749	-10.6279	-64.4412
 162	1	7	-0.710982	-10.8354	-12.5255	-63.234
 163	1	1	-0.062645	-8.64768	-11.5883	-76.8333
 164	1	1	0.026743	-9.41488	-11.4531	-74.5184
 165	1	1	-0.399843	-9.09195	-10.2765	-77.0663
 166	1	1	-0.107518	-8.80304	-12.1675	-75.5658
 167	1	1	0.292439	-9.71598	-9.53014	-76.0406
 168	1	1	-0.410418	-9.88177	-10.1463	-74.7811
 169	1	8	0.148547	-10.0236	-10.8288	-67.2159
 170	1	8	0.179912	-10.9087	-14.9597	-64.527
 171	1	8	0.155197	-10.5342	-15.1447	-66.9994
 172	1	9	0.340258	-10.4879	-10.4572	-72.0772
 173	1	8	0.137111	-9.03264	-15.1018	-68.6373
 174	1	8	0.181656	-8.49412	-15.299	-71.0743
 175	1	8	0.164633	-10.7548	-11.1716	-69.3512
 176	1	9	0.430928	-10.3141	-9.66251	-64.6568
 177	1	8	0.141007	-8.16786	-12.1567	-77.6277
 178	1	8	0.203537	-8.94922	-9.84302	-78.0493
 179	1	8	0.116715	-8.43493	-13.1758	-75.3927
 180	1	8	0.18244	-10.3515	-9.56799	-73.9923
 181	1	1	-0.155485	-10.7464	-16.6768	-54.7439
 182	1	2	-0.03785	-11.296	-15.5316	-54.1054
 183	1	1	-0.234781	-11.9311	-16.9645	-52.181
 184	1	1	0.378053	-11.3871	-18.0617	-52.8537
 185	1	1	-0.208553	-11.8822	-15.6991	-52.8141
 186	1	3	-0.411858	-11.1651	-12.5681	-58.1368
 187	1	1	-0.147234	-11.1713	-12.9738	-54.062
 188	1	1	0.107751	-10.8191	-17.9046	-54.0863
 189	1	4	0.626409	-10.7425	-19.9958	-53.4667
 190	1	2	0.00453	-11.2588	-14.1986	-54.792
 191	1	1	0.356173	-11.0975	-11.7049	-56.115
 192	1	1	0.030551	-11.1994	-12.8749	-56.8148
 193	1	1	-0.286062	-11.0898	-11.7212	-54.7175
 194	1	5	-0.595919	-10.9876	-10.6375	-56.9381
 195	1	1	-0.206338	-11.2834	-14.1297	-56.2108
 196	1	6	0.462884	-11.0157	-11.1814	-58.1672
 197	1	3	-0.691987	-10.3879	-19.1249	-54.5046
 198	1	7	-0.710982	-11.3442	-19.3505	-52.449
 199	1	1	-0.062645	-10.5424	-8.33182	-60.6296
 200	1	1	0.026743	-10.8728	-10.43	-59.4276
 201	1	1	-0.399843	-10.5418	-9.02183	-61.8545
 202	1	1	-0.107518	-10.7033	-9.0334	-59.425
 203	1	1	0.292439	-10.7091	-10.425	-61.8953
 204	1	1	-0.410418	-10.8812	-11.1024	-60.6699
 205	1	8	0.148547	-10.2662	-16.6075	-55.7126
 206	1	8	0.179912	-12.3869	-17.1006	-51.2064
 207	1	8	0.155197	-12.3254	-14.8426	-52.313
 208	1	9	0.340258	-11.1988	-13.1884	-58.9256
 209	1	8	0.137111	-11.1338	-13.0011	-52.9768
 210	1	8	0.181656	-11.0022	-10.7916	-54.1657
 211	1	8	0.164633	-11.3734	-15.022	-56.8189
 212	1	9	0.430928	-9.93072	-19.3608	-55.3642
 213	1	8	0.141007	-10.4103	-7.25182	-60.6068
 214	1	8	0.203537	-10.4078	-8.46052	-62.7719
 215	1	8	0.116715	-10.6906	-8.49083	-58.4828
 216	1	8	0.18244	-11.0049	-12.1794	-60.7046
 217	1	1	-0.155485	-13.1627	-26.2812	-45.2418
 218	1	2	-0.03785	-13.4747	-26.979	-46.441
 219	1	1	-0.234781	-15.2316	-28.2369	-45.2381
 220	1	1	0.378053	-14.8908	-27.5353	-44.0825
 221	1	1	-0.208553	-14.5077	-27.9599	-46.4164
 222	1	3	-0.411858	-11.6768	-24.1054	-50.1595
 223	1	1	-0.147234	-12.2737	-27.8107	-48.4994
 224	1	1	0.107751	-13.8857	-26.6067	-44.087
 225	1	4	0.626409	-14.7748	-26.7916	-42.0934
 226	1	2	0.00453	-12.741	-26.7173	-47.7138
 227	1	1	0.356173	-11.4745	-26.2968	-50.1876
 228	1	1	0.030551	-11.9202	-25.2391	-49.4403
 229	1	1	-0.286062	-11.6281	-27.6081	-49.7375
 230	1	5	-0.595919	-10.9393	-25.8992	-51.3577
 231	1	1	-0.206338	-12.5484	-25.3951	-48.1976
 232	1	6	0.462884	-11.0804	-24.5649	-51.3384
 233	1	3	-0.691987	-13.7712	-26.1221	-42.8136
 234	1	7	-0.710982	-15.4577	-27.651	-42.8684
 235	1	1	-0.062645	-9.68115	-23.4551	-54.6768
 236	1	1	0.026743	-10.6712	-23.6937	-52.4559
 237	1	1	-0.399843	-9.89074	-22.0693	-54.6282
 238	1	1	-0.107518	-10.0723	-24.2584	-53.5989
 239	1	1	0.292439	-10.4971	-21.4634	-53.503
 240	1	1	-0.410418	-10.8744	-22.2946	-52.4243
 241	1	8	0.148547	-12.37	-25.5414	-45.2182
 242	1	8	0.179912	-16.0294	-28.9713	-45.2112
 243	1	8	0.155197	-14.7592	-28.4909	-47.3317
 244	1	9	0.340258	-11.9121	-23.1556	-49.9327
 245	1	8	0.137111	-12.4178	-28.8248	-48.1353
 246	1	8	0.181656	-11.2777	-28.4359	-50.3442
 247	1	8	0.164633	-12.9212	-24.5395	-47.6446
 248	1	9	0.430928	-13.1645	-25.3984	-42.4811
 249	1	8	0.141007	-9.22062	-23.9137	-55.5498
 250	1	8	0.203537	-9.58712	-21.4698	-55.4782
 251	1	8	0.116715	-9.90763	-25.3316	-53.6537
 252	1	8	0.18244	-11.3417	-21.8289	-51.5624
 253	1	1	-0.155485	-10.2675	-19.6926	-34.6348
 254	1	2	-0.03785	-9.97709	-21.0615	-34.852
 255	1	1	-0.234781	-7.64054	-20.6612	-34.1457
 256	1	1	0.378053	-7.97547	-19.3217	-33.9216
 257	1	1	-0.208553	-8.65063	-21.5305	-34.6257
 258	1	3	-0.411858	-12.6417	-24.0963	-37.8676
 259	1	1	-0.147234	-12.1348	-22.19	-34.265
 260	1	1	0.107751	-9.23439	-18.8657	-34.1972
 261	1	4	0.626409	-8.00254	-17.2647	-33.3838
 262	1	2	0.00453	-11.0863	-21.9873	-35.2055
 263	1	1	0.356173	-13.2734	-23.6332	-35.8094
 264	1	1	0.030551	-12.2825	-23.4256	-36.7321
 265	1	1	-0.286062	-13.2296	-23.0293	-34.5533
 266	1	5	-0.595919	-14.2443	-24.433	-36.2839
 267	1	1	-0.206338	-11.1607	-22.6248	-36.4729
 268	1	6	0.462884	-13.8608	-24.7033	-37.5405
 269	1	3	-0.691987	-9.27507	-17.542	-33.898
 270	1	7	-0.710982	-7.19941	-18.3462	-33.3996
 271	1	1	-0.062645	-16.584	-27.0253	-38.7549
 272	1	1	0.026743	-14.6591	-25.5497	-38.4504
 273	1	1	-0.399843	-16.2151	-27.2306	-40.0889
 274	1	1	-0.107518	-15.8148	-26.1819	-37.9482
 275	1	1	0.292439	-15.0924	-26.5862	-40.652
 276	1	1	-0.410418	-14.3122	-25.7519	-39.8107
 277	1	8	0.148547	-11.2697	-19.3039	-34.7845
 278	1	8	0.179912	-6.63556	-21.0073	-33.9322
 279	1	8	0.155197	-8.42891	-22.5839	-34.779
 280	1	9	0.340258	-12.1356	-24.174	-38.7297
 281	1	8	0.137111	-12.088	-21.6851	-33.3044
 282	1	8	0.181656	-14.0329	-23.1918	-33.8426
 283	1	8	0.164633	-10.3912	-22.4634	-37.2209
 284	1	9	0.430928	-10.0876	-16.9543	-33.8417
 285	1	8	0.141007	-17.4644	-27.516	-38.3446
 286	1	8	0.203537	-16.8236	-27.8815	-40.7138
 287	1	8	0.116715	-16.1124	-26.0384	-36.9126
 288	1	8	0.18244	-13.4377	-25.2622	-40.2181
 289	1	1	-0.155485	0.243668	-13.8835	-26.0356
 290	1	2	-0.03785	-0.033448	-14.5367	-27.2687
 291	1	1	-0.234781	1.9192	-16.0158	-26.8652
 292	1	1	0.378053	2.15261	-15.3389	-25.6645
 293	1	1	-0.208553	0.823117	-15.6087	-27.6648
 294	1	3	-0.411858	-3.94386	-15.2074	-30.4188
 295	1	1	-0.147234	-1.6454	-12.7446	-28.0589
 296	1	1	0.107751	1.33868	-14.3108	-25.2833
 297	1	4	0.626409	2.86934	-14.6813	-23.7665
 298	1	2	0.00453	-1.20381	-14.1015	-28.1033
 299	1	1	0.356173	-3.47148	-13.246	-29.5368
 300	1	1	0.030551	-3.05109	-14.5458	-29.6171
 301	1	1	-0.286062	-2.78081	-12.3096	-28.7711
 302	1	5	-0.595919	-4.59674	-13.0315	-30.2394
 303	1	1	-0.206338	-1.92564	-15.0176	-28.923
 304	1	6	0.462884	-4.88604	-14.2312	-30.7642
 305	1	3	-0.691987	1.77898	-13.8566	-24.078
 306	1	7	-0.710982	3.10951	-15.5792	-24.7408
 307	1	1	-0.062645	-8.16103	-13.5595	-32.5281
 308	1	1	0.026743	-6.09868	-14.4618	-31.5745
 309	1	1	-0.399843	-8.48856	-14.8263	-33.0248
 310	1	1	-0.107518	-6.9789	-13.3845	-31.8035
 311	1	1	0.292439	-7.62533	-15.9313	-32.843
 312	1	1	-0.410418	-6.42813	-15.7275	-32.1169
 313	1	8	0.148547	-0.389841	-13.0865	-25.6649
 314	1	8	0.179912	2.57055	-16.8327	-27.1573
 315	1	8	0.155197	0.64461	-16.1172	-28.6081
 316	1	9	0.340258	-3.97051	-16.1826	-30.6676
 317	1	8	0.137111	-1.09627	-12.0174	-27.4688
 318	1	8	0.181656	-3.12832	-11.2833	-28.727
 319	1	8	0.164633	-1.63249	-16.0587	-28.9811
 320	1	9	0.430928	1.36725	-13.1526	-23.4974
 321	1	8	0.141007	-8.82594	-12.7128	-32.6931
 322	1	8	0.203537	-9.41284	-14.9357	-33.5822
 323	1	8	0.116715	-6.75027	-12.3967	-31.4112
 324	1	8	0.18244	-5.77357	-16.5809	-31.9557
 325	1	1	-0.155485	8.74056	-22.4015	-17.9937
 326	1	2	-0.03785	8.91798	-21.0293	-17.6764
 327	1	1	-0.234781	9.35134	-21.6882	-15.3186
 328	1	1	0.378053	9.11909	-23.0209	-15.6741
 329	1	1	-0.208553	9.2499	-20.6954	-16.3267
 330	1	3	-0.411858	6.74469	-16.7939	-19.2569
 331	1	1	-0.147234	8.70152	-20.2937	-20.1049
 332	1	1	0.107751	8.86624	-23.3445	-16.9764
 333	1	4	0.626409	8.58831	-25.0836	-15.6922
 334	1	2	0.00453	8.58962	-19.9924	-18.7123
 335	1	1	0.356173	7.50858	-18.2856	-20.6801
 336	1	1	0.030551	7.48272	-17.9356	-19.3577
 337	1	1	-0.286062	8.15296	-19.4501	-21.0953
 338	1	5	-0.595919	6.76934	-17.4518	-21.4382
 339	1	1	-0.206338	7.98756	-18.7575	-18.3418
 340	1	6	0.462884	6.27742	-16.5677	-20.5569
 341	1	3	-0.691987	8.58136	-24.6686	-17.0296
 342	1	7	-0.710982	8.9741	-24.0955	-14.8615
 343	1	1	-0.062645	3.89943	-13.6299	-20.2425
 344	1	1	0.026743	5.27813	-15.5355	-20.8985
 345	1	1	-0.399843	3.2662	-13.6486	-21.494
 346	1	1	-0.107518	4.88129	-14.5821	-19.9401
 347	1	1	0.292439	3.61471	-14.6061	-22.4765
 348	1	1	-0.410418	4.65349	-15.5119	-22.1667
 349	1	8	0.148547	8.42407	-22.7156	-18.981
 350	1	8	0.179912	9.53947	-21.4334	-14.2812
 351	1	8	0.155197	9.38882	-19.653	-16.0537
 352	1	9	0.340258	6.45845	-16.3174	-18.4216
 353	1	8	0.137111	9.17273	-21.22	-20.4189
 354	1	8	0.181656	8.16829	-19.7131	-22.1476
 355	1	8	0.164633	7.83608	-18.5	-17.2997
 356	1	9	0.430928	8.21018	-25.1741	-17.8083
 357	1	8	0.141007	3.61618	-12.8904	-19.4959
 358	1	8	0.203537	2.48995	-12.9195	-21.6933
 359	1	8	0.116715	5.34338	-14.5604	-18.9588
 360	1	8	0.18244	4.93112	-16.2593	-22.9088
 361	1	1	-0.155485	4.42522	-29.8591	-23.2089
 362	1	2	-0.03785	3.51331	-30.0845	-22.1432
 363	1	1	-0.234781	1.68502	-29.2111	-23.564
 364	1	1	0.378053	2.63146	-28.9364	-24.5556
 365	1	1	-0.208553	2.13374	-29.795	-22.3552
 366	1	3	-0.411858	6.46381	-28.9826	-18.3457
 367	1	1	-0.147234	3.37396	-31.2025	-19.8271
 368	1	1	0.107751	3.93815	-29.3059	-24.3936
 369	1	4	0.626409	3.70734	-28.0714	-26.176
 370	1	2	0.00453	4.03621	-30.3605	-20.7706
 371	1	1	0.356173	4.90458	-30.509	-18.0836
 372	1	1	0.030551	5.54917	-29.7298	-19.0031
 373	1	1	-0.286062	3.81242	-31.2916	-18.4798
 374	1	5	-0.595919	5.3747	-30.2873	-16.8304
 375	1	1	-0.206338	5.15975	-29.6178	-20.3342
 376	1	6	0.462884	6.27284	-29.3001	-17.0025
 377	1	3	-0.691987	4.64147	-28.8277	-25.4571
 378	1	7	-0.710982	2.46712	-28.1807	-25.663
 379	1	1	-0.062645	7.25517	-27.9797	-13.5726
 380	1	1	0.026743	6.89709	-28.5	-15.9299
 381	1	1	-0.399843	7.90853	-26.7842	-13.9248
 382	1	1	-0.107518	6.72712	-28.8173	-14.5702
 383	1	1	0.292439	8.06452	-26.416	-15.2764
 384	1	1	-0.410418	7.60316	-27.3203	-16.2596
 385	1	8	0.148547	5.48721	-30.0365	-23.0799
 386	1	8	0.179912	0.656589	-28.8928	-23.6967
 387	1	8	0.155197	1.43169	-29.9217	-21.5343
 388	1	9	0.340258	7.05881	-28.2693	-18.719
 389	1	8	0.137111	2.49406	-31.7584	-20.141
 390	1	8	0.181656	3.28144	-31.889	-17.7464
 391	1	8	0.164633	5.64678	-28.9053	-20.9905
 392	1	9	0.430928	5.63329	-28.8446	-25.5975
 393	1	8	0.141007	7.11581	-28.2373	-12.5246
 394	1	8	0.203537	8.25666	-26.1044	-13.1495
 395	1	8	0.116715	6.17759	-29.712	-14.288
 396	1	8	0.18244	7.71858	-27.0508	-17.2978
 397	1	1	-0.155485	-3.23336	-21.1994	-29.9988
 398	1	2	-0.03785	-2.05936	-20.4692	-29.6812
 399	1	1	-0.234781	-3.44286	-18.4647	-29.2525
 400	1	1	0.378053	-4.56777	-19.2049	-29.6222
 401	1	1	-0.208553	-2.18146	-19.1016	-29.3005
 402	1	3	-0.411858	1.22521	-24.1341	-28.7406
 403	1	1	-0.147234	0.346001	-20.5221	-30.4758
 404	1	1	0.107751	-4.4549	-20.5248	-29.9615
 405	1	4	0.626409	-6.52558	-19.8581	-30.1293
 406	1	2	0.00453	-0.726302	-21.1301	-29.7608
 407	1	1	0.356173	1.77508	-22.3952	-29.9747
 408	1	1	0.030551	0.752493	-22.9728	-29.2714
 409	1	1	-0.286062	1.60279	-21.1568	-30.597
 410	1	5	-0.595919	2.89579	-23.1442	-29.936
 411	1	1	-0.206338	-0.512423	-22.3909	-29.146
 412	1	6	0.462884	2.55682	-24.1867	-29.1601
 413	1	3	-0.691987	-5.70037	-20.9823	-30.2629
 414	1	7	-0.710982	-5.84021	-18.7698	-29.7236
 415	1	1	-0.062645	5.77667	-26.1303	-28.73
 416	1	1	0.026743	3.50786	-25.2281	-28.7304
 417	1	1	-0.399843	5.40491	-27.0804	-27.7664
 418	1	1	-0.107518	4.83674	-25.2015	-29.1941
 419	1	1	0.292439	4.07866	-27.1418	-27.2784
 420	1	1	-0.410418	3.13664	-26.2305	-27.8043
 421	1	8	0.148547	-3.178	-22.2399	-30.3002
 422	1	8	0.179912	-3.55729	-17.4392	-28.9246
 423	1	8	0.155197	-1.28643	-18.5499	-29.0213
 424	1	9	0.340258	0.764425	-24.7671	-28.1118
 425	1	8	0.137111	0.185108	-19.5605	-30.9564
 426	1	8	0.181656	2.424	-20.7044	-31.1425
 427	1	8	0.164633	-1.2989	-22.8729	-28.5748
 428	1	9	0.430928	-5.96355	-21.885	-30.6094
 429	1	8	0.141007	6.79971	-26.0883	-29.0986
 430	1	8	0.203537	6.15702	-27.7682	-27.3983
 431	1	8	0.116715	5.14773	-24.4446	-29.9101
 432	1	8	0.18244	2.12505	-26.2642	-27.4125
 433	1	1	-0.155485	-12.9139	-10.7227	-32.0638
 434	1	2	-0.03785	-12.1051	-11.5273	-31.2077
 435	1	1	-0.234781	-11.0767	-9.45982	-30.3011
 436	1	1	0.378053	-11.8797	-8.71913	-31.164
 437	1	1	-0.208553	-11.2008	-10.8636	-30.3221
 438	1	3	-0.411858	-10.1904	-16.1167	-30.5794
 439	1	1	-0.147234	-13.3231	-13.7308	-31.7042
 440	1	1	0.107751	-12.7708	-9.33063	-32.0011
 441	1	4	0.626409	-12.806	-7.15653	-32.2673
 442	1	2	0.00453	-12.1662	-13.0289	-31.2433
 443	1	1	0.356173	-12.238	-15.8552	-31.3398
 444	1	1	0.030551	-11.1351	-15.1905	-30.8857
 445	1	1	-0.286062	-13.3642	-15.1447	-31.7607
 446	1	5	-0.595919	-12.0433	-17.1915	-31.355
 447	1	1	-0.206338	-11.0472	-13.8005	-30.8257
 448	1	6	0.462884	-10.7939	-17.3373	-30.8802
 449	1	3	-0.691987	-13.3962	-8.34806	-32.7194
 450	1	7	-0.710982	-11.8885	-7.38315	-31.3113
 451	1	1	-0.062645	-10.0187	-21.0357	-31.1298
 452	1	1	0.026743	-10.0841	-18.6225	-30.7797
 453	1	1	-0.399843	-8.65632	-21.0526	-30.7938
 454	1	1	-0.107518	-10.7237	-19.8243	-31.1351
 455	1	1	0.292439	-7.98272	-19.8646	-30.428
 456	1	1	-0.410418	-8.72766	-18.6681	-30.3884
 457	1	8	0.148547	-13.6053	-11.1679	-32.7693
 458	1	8	0.179912	-10.3814	-8.95328	-29.6403
 459	1	8	0.155197	-10.593	-11.4383	-29.6303
 460	1	9	0.340258	-9.24899	-15.9658	-30.2568
 461	1	8	0.137111	-14.2038	-13.1738	-32.0083
 462	1	8	0.181656	-14.2401	-15.678	-32.115
 463	1	8	0.164633	-10.1269	-13.3373	-30.4904
 464	1	9	0.430928	-14.1005	-8.4458	-33.426
 465	1	8	0.141007	-10.523	-21.956	-31.417
 466	1	8	0.203537	-8.12447	-21.9954	-30.8295
 467	1	8	0.116715	-11.7679	-19.8159	-31.4359
 468	1	8	0.18244	-8.20129	-17.7587	-30.1183
 469	1	1	-0.155485	-6.73111	1.74501	-29.6055
 470	1	2	-0.03785	-7.82141	0.962916	-29.1362
 471	1	1	-0.234781	-6.72297	0.799648	-26.9223
 472	1	1	0.378053	-5.65769	1.54168	-27.4336
 473	1	1	-0.208553	-7.80226	0.506902	-27.7849
 474	1	3	-0.411858	-10.8714	-2.43872	-31.1464
 475	1	1	-0.147234	-9.50923	1.42196	-31.0034
 476	1	1	0.107751	-5.67583	2.00192	-28.7218
 477	1	4	0.626409	-3.76756	2.46828	-27.7497
 478	1	2	0.00453	-8.91453	0.53145	-30.0603
 479	1	1	0.356173	-10.9173	-0.353371	-31.843
 480	1	1	0.030551	-10.3364	-1.20735	-30.9462
 481	1	1	-0.286062	-10.5221	0.987599	-31.8937
 482	1	5	-0.595919	-11.8335	-0.984037	-32.6142
 483	1	1	-0.206338	-9.34976	-0.818132	-30.0387
 484	1	6	0.462884	-11.7873	-2.25721	-32.184
 485	1	3	-0.691987	-4.4808	2.62198	-28.9503
 486	1	7	-0.710982	-4.49808	1.83697	-26.8143
 487	1	1	-0.062645	-14.2705	-4.23815	-34.2729
 488	1	1	0.026743	-12.5825	-3.37	-32.7372
 489	1	1	-0.399843	-14.0564	-5.54272	-33.7916
 490	1	1	-0.107518	-13.5303	-3.16211	-33.7559
 491	1	1	0.292439	-13.1021	-5.78932	-32.7789
 492	1	1	-0.410418	-12.3945	-4.68475	-32.2601
 493	1	8	0.148547	-6.68936	2.07875	-30.6365
 494	1	8	0.179912	-6.68518	0.434241	-25.9015
 495	1	8	0.155197	-8.63087	-0.0905769	-27.4124
 496	1	9	0.340258	-10.6552	-3.29897	-30.6747
 497	1	8	0.137111	-9.18696	2.45943	-31.0282
 498	1	8	0.181656	-10.9814	1.65986	-32.6102
 499	1	8	0.164633	-8.90175	-1.53676	-29.3604
 500	1	9	0.430928	-4.14955	3.02738	-29.804
 501	1	8	0.141007	-15.0048	-4.0556	-35.0549
 502	1	8	0.203537	-14.6296	-6.36078	-34.2126
 503	1	8	0.116715	-13.6968	-2.15985	-34.143
 504	1	8	0.18244	-11.6598	-4.87755	-31.486
 505	1	1	-0.155485	3.86208	2.11564	-18.7945
 506	1	2	-0.03785	4.02786	1.86184	-20.1829
 507	1	1	-0.234781	6.41664	1.34026	-19.758
 508	1	1	0.378053	6.20311	1.58981	-18.3984
 509	1	1	-0.208553	5.32333	1.48346	-20.6479
 510	1	3	-0.411858	1.66416	2.93686	-24.5199
 511	1	1	-0.147234	1.56604	1.51723	-20.6679
 512	1	1	0.107751	4.96844	1.97113	-17.9542
 513	1	4	0.626409	6.38221	1.8434	-16.2874
 514	1	2	0.00453	2.85211	1.95042	-21.1093
 515	1	1	0.356173	0.599944	2.07249	-22.7995
 516	1	1	0.030551	1.82432	2.50243	-23.2344
 517	1	1	-0.286062	0.434354	1.57142	-21.5091
 518	1	5	-0.595919	-0.345081	2.18876	-23.7514
 519	1	1	-0.206338	2.97685	2.45313	-22.4356
 520	1	6	0.462884	0.309539	2.71019	-24.8
 521	1	3	-0.691987	5.05011	2.14509	-16.6071
 522	1	7	-0.710982	7.09051	1.50135	-17.3808
 523	1	1	-0.062645	-0.251065	3.83144	-28.3906
 524	1	1	0.026743	-0.340422	2.99069	-26.0986
 525	1	1	-0.399843	-1.60073	3.49179	-28.5801
 526	1	1	-0.107518	0.375719	3.57524	-27.1616
 527	1	1	0.292439	-2.3513	2.88885	-27.5441
 528	1	1	-0.410418	-1.69869	2.66423	-26.3121
 529	1	8	0.148547	2.90197	2.4203	-18.3929
 530	1	8	0.179912	7.39864	1.03224	-20.1007
 531	1	8	0.155197	5.46636	1.2634	-21.7027
 532	1	9	0.340258	2.36122	3.30189	-25.1425
 533	1	8	0.137111	1.45456	1.10675	-19.6684
 534	1	8	0.181656	-0.54184	1.22799	-21.1839
 535	1	8	0.164633	3.93267	2.80461	-22.809
 536	1	9	0.430928	4.33326	2.46092	-15.9825
 537	1	8	0.141007	0.316212	4.28656	-29.2002
 538	1	8	0.203537	-2.05942	3.68493	-29.5429
 539	1	8	0.116715	1.42068	3.84074	-27.0412
 540	1	8	0.18244	-2.26245	2.19908	-25.5047
 541	1	1	-0.155485	16.5372	2.91411	-10.9533
 542	1	2	-0.03785	15.5629	1.98913	-10.4914
 543	1	1	-0.234781	16.4541	2.23717	-8.193
 544	1	1	0.378053	17.3445	3.19768	-8.67803
 545	1	1	-0.208553	15.556	1.6438	-9.1086
 546	1	3	-0.411858	10.7408	1.59934	-11.6757
 547	1	1	-0.147234	14.6748	1.20901	-12.7581
 548	1	1	0.107751	17.4055	3.48304	-10.0154
 549	1	4	0.626409	18.6265	4.88543	-8.8673
 550	1	2	0.00453	14.4508	1.55815	-11.3933
 551	1	1	0.356173	12.2954	1.13088	-13.1613
 552	1	1	0.030551	12.0796	1.43035	-11.8445
 553	1	1	-0.286062	13.5976	0.980792	-13.6483
 554	1	5	-0.595919	11.1394	1.10277	-13.8612
 555	1	1	-0.206338	13.1125	1.64935	-10.9297
 556	1	6	0.462884	10.2057	1.4496	-12.9592
 557	1	3	-0.691987	18.2748	4.52171	-10.1753
 558	1	7	-0.710982	18.1054	4.04606	-7.95372
 559	1	1	-0.062645	6.5667	2.39725	-12.5189
 560	1	1	0.026743	8.78474	1.7088	-13.2746
 561	1	1	-0.399843	6.08258	2.30172	-13.8296
 562	1	1	-0.107518	7.90624	2.10418	-12.2457
 563	1	1	0.292439	6.92407	1.91278	-14.8982
 564	1	1	-0.410418	8.27326	1.61113	-14.5919
 565	1	8	0.148547	16.5384	3.25038	-11.9844
 566	1	8	0.179912	16.4149	2.01973	-7.13064
 567	1	8	0.155197	14.8089	0.946488	-8.74192
 568	1	9	0.340258	10.2623	1.93004	-10.8558
 569	1	8	0.137111	15.695	1.14884	-13.1287
 570	1	8	0.181656	13.7607	0.760254	-14.6982
 571	1	8	0.164633	12.8995	1.96014	-9.91198
 572	1	9	0.430928	18.4436	5.05396	-11.0074
 573	1	8	0.141007	5.90095	2.69242	-11.7093
 574	1	8	0.203537	5.03988	2.53751	-14.0069
 575	1	8	0.116715	8.25002	2.18953	-11.2202
 576	1	8	0.18244	8.93988	1.31894	-15.4021
 577	1	1	-0.155485	19.9981	7.74649	1.10045
 578	1	2	-0.03785	19.5924	8.95165	0.469221
 579	1	1	-0.234781	18.7068	9.75272	2.64333
 580	1	1	0.378053	19.1249	8.55267	3.22577
 581	1	1	-0.208553	18.9543	9.95051	1.26292
 582	1	3	-0.411858	19.6099	7.55387	-4.35778
 583	1	1	-0.147234	20.3656	10.387	-1.48349
 584	1	1	0.107751	19.7526	7.60237	2.46911
 585	1	4	0.626409	19.5864	6.94991	4.55353
 586	1	2	0.00453	19.8349	9.1577	-0.992912
 587	1	1	0.356173	20.3378	9.53827	-3.74182
 588	1	1	0.030551	19.8065	8.36472	-3.27955
 589	1	1	-0.286062	20.6292	10.5821	-2.85951
 590	1	5	-0.595919	20.5175	9.51506	-5.0801
 591	1	1	-0.206338	19.5512	8.12271	-1.92454
 592	1	6	0.462884	20.0699	8.30149	-5.44527
 593	1	3	-0.691987	20.0642	6.56476	3.29127
 594	1	7	-0.710982	19.0027	8.16197	4.51539
 595	1	1	-0.062645	20.4976	8.19646	-9.21143
 596	1	1	0.026743	20.0407	7.81832	-6.84106
 597	1	1	-0.399843	19.8965	6.96938	-9.53237
 598	1	1	-0.107518	20.5506	8.62357	-7.87765
 599	1	1	0.292439	19.3632	6.13482	-8.52326
 600	1	1	-0.410418	19.4797	6.56396	-7.18093
 601	1	8	0.148547	20.5077	6.9694	0.541117
 602	1	8	0.179912	18.211	10.5023	3.25094
 603	1	8	0.155197	18.6311	10.8753	0.790666
 604	1	9	0.340258	19.2139	6.63136	-4.38527
 605	1	8	0.137111	20.5982	11.1815	-0.778922
 606	1	8	0.181656	21.0489	11.5089	-3.2359
 607	1	8	0.164633	19.129	7.17947	-1.5956
 608	1	9	0.430928	20.5869	5.74001	3.07011
 609	1	8	0.141007	20.9049	8.83178	-9.99552
 610	1	8	0.203537	19.8481	6.66885	-10.5727
 611	1	8	0.116715	20.9918	9.59032	-7.6477
 612	1	8	0.18244	19.0587	5.92811	-6.40889
 613	1	1	-0.155485	16.9441	4.31381	15.3884
 614	1	2	-0.03785	17.0894	5.71146	15.1865
 615	1	1	-0.234781	16.8258	6.03965	17.6335
 616	1	1	0.378053	16.7342	4.65043	17.7839
 617	1	1	-0.208553	16.9998	6.56662	16.3269
 618	1	3	-0.411858	19.0367	5.2066	10.6317
 619	1	1	-0.147234	16.8976	7.45705	13.3012
 620	1	1	0.107751	16.7715	3.84066	16.6852
 621	1	4	0.626409	16.6715	2.64308	18.5021
 622	1	2	0.00453	17.3896	6.21506	13.806
 623	1	1	0.356173	17.8829	7.01076	11.1322