pySIMM System Object

974 atoms
1108 bonds
1836 angles
2912 dihedrals
324 impropers

10 atom types
15 bond types
26 angle types
12 dihedral types
2 improper types

-149.318528 149.318528 xlo xhi
-149.318528 149.318528 ylo yhi
-149.318528 149.318528 zlo zhi

Masses

   1	12.01	# ca
   2	12.01	# cp
   3	14.01	# na
   4	12.01	# cc
   5	14.01	# nc
   6	12.01	# cd
   7	14.01	# nd
   8	1.008	# ha
   9	1.008	# hn
  10	1.008	# h5

Pair Coeffs

   1	0.086	3.3996695084235347	# ca
   2	0.086	3.3996695084235347	# cp
   3	0.17	3.249998523775958	# na
   4	0.086	3.3996695084235347	# cc
   5	0.17	3.249998523775958	# nc
   6	0.086	3.3996695084235347	# cd
   7	0.17	3.249998523775958	# nd
   8	0.015	2.59964245953351	# ha
   9	0.0157	1.069078461768407	# hn
  10	0.015	2.421462715905442	# h5

Bond Coeffs

   1	425.8	1.3802	# cd,na
   2	525.4	1.3172	# cc,nd
   3	345.8	1.086	# ca,ha
   4	351.4	1.4854	# cp,cp
   5	467.7	1.3517	# ca,nc
   6	385.1	1.4555	# ca,cd
   7	467.7	1.3517	# ca,nd
   8	525.4	1.3172	# cd,nc
   9	450.2	1.4058	# ca,cp
  10	425.8	1.3802	# cc,na
  11	420.5	1.384	# ca,na
  12	351.7	1.0819	# cc,h5
  13	461.1	1.3984	# ca,ca
  14	408.4	1.01	# hn,na
  15	385.1	1.4555	# ca,cc

Angle Coeffs

   1	48.18	119.88	# ca,ca,ha
   2	66.28	123.45	# ca,cd,na
   3	64.05	121.11	# ca,cp,cp
   4	46.75	125.5	# cc,na,hn
   5	67.6	123.24	# ca,cd,nc
   6	46.75	125.5	# cd,na,hn
   7	72.48	104.88	# ca,nc,cd
   8	74.9	112.22	# na,cd,nc
   9	66.62	120.02	# ca,ca,ca
  10	46.63	125.54	# ca,na,hn
  11	65.02	120.79	# ca,ca,cd
  12	47.98	119.86	# cp,ca,ha
  13	69.46	119.72	# ca,ca,nc
  14	72.48	104.88	# ca,nd,cc
  15	69.08	118.34	# ca,ca,na
  16	66.72	118.38	# ca,cp,ca
  17	69.46	119.72	# ca,ca,nd
  18	74.9	112.22	# na,cc,nd
  19	67.4	113.15	# ca,na,cc
  20	66.26	120.69	# ca,ca,cp
  21	50.58	125.52	# h5,cc,nd
  22	67.4	113.15	# ca,na,cd
  23	49.58	121.55	# h5,cc,na
  24	66.28	123.45	# ca,cc,na
  25	67.6	123.24	# ca,cc,nd
  26	65.02	120.79	# ca,ca,cc

Dihedral Coeffs

   1	1	4.8	2	180	# X,ca,nc,X
   2	1	4.8	2	180	# X,ca,nd,X
   3	1	4.0	2	180	# X,ca,cd,X
   4	1	4.75	2	180	# X,cd,nc,X
   5	1	4.75	2	180	# X,cc,nd,X
   6	1	1.7	2	180	# X,cc,na,X
   7	1	1.0	2	180	# X,cp,cp,X
   8	1	3.625	2	180	# X,ca,cp,X
   9	1	0.3	2	180	# X,ca,na,X
  10	1	1.7	2	180	# X,cd,na,X
  11	1	3.625	2	180	# X,ca,ca,X
  12	1	4.0	2	180	# X,ca,cc,X

Improper Coeffs

   1	1.1	-1	2	# na,X,X,hn
   2	1.1	-1	2	# ca,X,X,ha

Atoms

   1	1	1	-0.155485	-25.0012	24.0231	57.985
   2	1	2	-0.03785	-25.0458	23.3944	59.2611
   3	1	1	-0.234781	-22.5789	23.5911	59.41
   4	1	1	0.378053	-22.5849	24.1989	58.1554
   5	1	1	-0.208553	-23.8163	23.1891	59.9576
   6	1	3	-0.411858	-28.1333	22.285	63.0637
   7	1	1	-0.147234	-27.4162	22.4811	59.0305
   8	1	1	0.107751	-23.755	24.4063	57.479
   9	1	4	0.626409	-22.0434	25.0934	56.3055
  10	1	2	0.00453	-26.3425	22.9339	59.8557
  11	1	1	0.356173	-28.7552	21.9885	60.9735
  12	1	1	0.030551	-27.7352	22.4305	61.7699
  13	1	1	-0.286062	-28.6278	22.0063	59.583
  14	1	5	-0.595919	-29.806	21.5531	61.6996
  15	1	1	-0.206338	-26.5224	22.9082	61.2657
  16	1	6	0.462884	-29.4119	21.7301	62.972
  17	1	3	-0.691987	-23.4424	24.9955	56.2878
  18	1	7	-0.710982	-21.5185	24.6209	57.4503
  19	1	1	-0.062645	-32.2966	20.4528	65.0815
  20	1	1	0.026743	-30.2268	21.37	64.1478
  21	1	1	-0.399843	-31.8075	20.6589	66.381
  22	1	1	-0.107518	-31.5085	20.8069	63.9753
  23	1	1	0.292439	-30.5374	21.2159	66.5738
  24	1	1	-0.410418	-29.7528	21.5691	65.4669
  25	1	8	0.148547	-25.9065	24.2118	57.4196
  26	1	8	0.179912	-21.6394	23.4219	59.9248
  27	1	8	0.155197	-23.8202	22.6819	60.918
  28	1	9	0.340258	-27.6278	22.5022	63.9026
  29	1	8	0.137111	-27.2932	22.4669	57.9517
  30	1	8	0.181656	-29.4386	21.6443	58.9602
  31	1	8	0.164633	-25.7458	23.2559	61.9374
  32	1	9	0.430928	-24.0598	25.2552	55.542
  33	1	8	0.141007	-33.2825	20.0194	64.9269
  34	1	8	0.203537	-32.4088	20.3878	67.243
  35	1	8	0.116715	-31.8973	20.6409	62.9738
  36	1	8	0.18244	-28.7744	21.996	65.6498
  37	1	1	-0.155485	-11.785	25.2723	57.5618
  38	1	2	-0.03785	-11.8997	25.0085	56.1696
  39	1	1	-0.234781	-9.64707	23.9769	56.2071
  40	1	1	0.378053	-9.57497	24.2609	57.5717
  41	1	1	-0.208553	-10.8148	24.3589	55.5092
  42	1	3	-0.411858	-16.8504	25.5795	55.5455
  43	1	1	-0.147234	-13.0369	25.8995	54.0789
  44	1	1	0.107751	-10.6082	24.8882	58.2115
  45	1	4	0.626409	-8.98317	24.4472	59.6065
  46	1	2	0.00453	-13.1289	25.4021	55.413
  47	1	1	0.356173	-15.432	26.1237	53.9558
  48	1	1	0.030551	-15.5272	25.6447	55.2344
  49	1	1	-0.286062	-14.186	26.2687	53.3438
  50	1	5	-0.595919	-16.6441	26.3821	53.4213
  51	1	1	-0.206338	-14.4162	25.2781	56.0014
  52	1	6	0.462884	-17.5004	26.0312	54.3938
  53	1	3	-0.691987	-10.2544	25.0332	59.5203
  54	1	7	-0.710982	-8.56264	23.9792	58.4174
  55	1	1	-0.062645	-20.9658	26.5546	52.9394
  56	1	1	0.026743	-18.9676	26.0763	54.2594
  57	1	1	-0.399843	-21.7804	26.0953	53.9883
  58	1	1	-0.107518	-19.5696	26.5387	53.0741
  59	1	1	0.292439	-21.21	25.6202	55.1911
  60	1	1	-0.410418	-19.8037	25.6334	55.3066
  61	1	8	0.148547	-12.577	25.7788	58.1021
  62	1	8	0.179912	-8.82269	23.4727	55.7147
  63	1	8	0.155197	-10.8956	24.1309	54.4492
  64	1	9	0.340258	-17.2806	25.2395	56.3869
  65	1	8	0.137111	-12.0587	26.0112	53.6194
  66	1	8	0.181656	-14.1205	26.6453	52.3289
  67	1	8	0.164633	-14.5386	24.8788	57.0022
  68	1	9	0.430928	-10.782	25.4508	60.2628
  69	1	8	0.141007	-21.4111	26.9148	52.0141
  70	1	8	0.203537	-22.8565	26.1043	53.8593
  71	1	8	0.116715	-18.9498	26.8845	52.2504
  72	1	8	0.18244	-19.3683	25.2633	56.2288
  73	1	1	-0.155485	0.631685	18.6575	61.2154
  74	1	2	-0.03785	0.0840993	19.8332	60.6365
  75	1	1	-0.234781	1.58328	19.5339	58.6853
  76	1	1	0.378053	2.08274	18.3752	59.2849
  77	1	1	-0.208553	0.576158	20.2575	59.3663
  78	1	3	-0.411858	-4.26631	22.3379	60.8884
  79	1	1	-0.147234	-0.9689	20.7619	62.7536
  80	1	1	0.107751	1.61821	17.969	60.5049
  81	1	4	0.626409	3.07603	16.5418	59.7167
  82	1	2	0.00453	-1.00145	20.5859	61.3383
  83	1	1	0.356173	-3.06245	21.9517	62.6894
  84	1	1	0.030551	-3.10551	21.7788	61.3324
  85	1	1	-0.286062	-1.99493	21.4518	63.4375
  86	1	5	-0.595919	-4.14294	22.6167	63.1476
  87	1	1	-0.206338	-2.10362	21.1157	60.6144
  88	1	6	0.462884	-4.8723	22.8427	62.0427
  89	1	3	-0.691987	2.24705	16.8027	60.818
  90	1	7	-0.710982	2.99324	17.5112	58.7875
  91	1	1	-0.062645	-7.94604	24.6869	63.2758
  92	1	1	0.026743	-6.1767	23.5322	62.0494
  93	1	1	-0.399843	-8.68552	24.8303	62.0912
  94	1	1	-0.107518	-6.70507	24.0361	63.2533
  95	1	1	0.292439	-8.19391	24.33	60.8636
  96	1	1	-0.410418	-6.93155	23.6955	60.8655
  97	1	8	0.148547	0.268918	18.2824	62.166
  98	1	8	0.179912	1.95961	19.8448	57.7166
  99	1	8	0.155197	0.176964	21.1629	58.916
 100	1	9	0.340258	-4.62364	22.3783	59.9504
 101	1	8	0.137111	-0.126652	20.3725	63.3187
 102	1	8	0.181656	-1.9728	21.5942	64.5124
 103	1	8	0.164633	-2.18049	20.9823	59.5404
 104	1	9	0.430928	2.09586	16.2154	61.6146
 105	1	8	0.141007	-8.33254	25.0729	64.2171
 106	1	8	0.203537	-9.64626	25.3296	62.1338
 107	1	8	0.116715	-6.14689	23.9258	64.1797
 108	1	8	0.18244	-6.5559	23.31	59.9231
 109	1	1	-0.155485	9.64753	9.81592	52.9152
 110	1	2	-0.03785	8.88075	10.9151	52.4363
 111	1	1	-0.234781	9.04857	9.98112	50.1432
 112	1	1	0.378053	9.78009	8.91232	50.6623
 113	1	1	-0.208553	8.60162	10.9803	51.0373
 114	1	3	-0.411858	6.81373	12.3763	56.7666
 115	1	1	-0.147234	8.04363	13.2724	52.9621
 116	1	1	0.107751	10.0719	8.85113	51.9965
 117	1	4	0.626409	10.8609	7.10173	50.946
 118	1	2	0.00453	8.31065	11.9328	53.3808
 119	1	1	0.356173	7.02326	13.7808	55.0868
 120	1	1	0.030551	7.31849	12.5148	55.5108
 121	1	1	-0.286062	7.39671	14.2023	53.8092
 122	1	5	-0.595919	6.32069	14.4683	56.0123
 123	1	1	-0.206338	7.94531	11.561	54.7035
 124	1	6	0.462884	6.18126	13.5963	57.0244
 125	1	3	-0.691987	10.7749	7.70283	52.2106
 126	1	7	-0.710982	10.2571	7.8395	49.9967
 127	1	1	-0.062645	4.61532	13.1273	60.4461
 128	1	1	0.026743	5.40986	13.8627	58.2556
 129	1	1	-0.399843	3.89066	14.3186	60.5907
 130	1	1	-0.107518	5.35945	12.8982	59.2823
 131	1	1	0.292439	3.89937	15.3074	59.5786
 132	1	1	-0.410418	4.68392	15.063	58.4289
 133	1	8	0.148547	9.89746	9.71973	53.9652
 134	1	8	0.179912	8.8172	10.0143	49.0841
 135	1	8	0.155197	7.99323	11.7926	50.649
 136	1	9	0.340258	6.80548	11.5556	57.3429
 137	1	8	0.137111	8.32893	13.5877	51.9626
 138	1	8	0.181656	7.16247	15.2097	53.4818
 139	1	8	0.164633	8.09065	10.5495	55.0634
 140	1	9	0.430928	11.1458	7.35465	53.0737
 141	1	8	0.141007	4.59325	12.3734	61.2306
 142	1	8	0.203537	3.30988	14.4659	61.4933
 143	1	8	0.116715	5.90351	11.9644	59.1917
 144	1	8	0.18244	4.69951	15.8114	57.6376
 145	1	1	-0.155485	10.2294	2.56914	41.5574
 146	1	2	-0.03785	11.5326	2.16652	41.9535
 147	1	1	-0.234781	12.0742	1.69335	39.5802
 148	1	1	0.378053	10.7796	2.08967	39.2369
 149	1	1	-0.208553	12.4428	1.72862	40.9453
 150	1	3	-0.411858	11.61	4.01536	46.6356
 151	1	1	-0.147234	12.7207	1.12401	43.9399
 152	1	1	0.107751	9.9031	2.50724	40.2001
 153	1	4	0.626409	8.96388	2.54898	38.2268
 154	1	2	0.00453	11.9244	2.17581	43.398
 155	1	1	0.356173	12.6308	2.13297	46.1249
 156	1	1	0.030551	11.8779	3.1542	45.6119
 157	1	1	-0.286062	13.0741	1.09229	45.3072
 158	1	5	-0.595919	12.8529	2.28528	47.4458
 159	1	1	-0.206338	11.4943	3.21674	44.2667
 160	1	6	0.462884	12.2291	3.43546	47.7474
 161	1	3	-0.691987	8.72623	2.80546	39.5842
 162	1	7	-0.710982	10.2192	2.1149	38.0079
 163	1	1	-0.062645	12.8198	3.86542	51.4646
 164	1	1	0.026743	12.2043	4.01534	49.1047
 165	1	1	-0.399843	12.1729	5.08413	51.7194
 166	1	1	-0.107518	12.8363	3.33986	50.1664
 167	1	1	0.292439	11.5357	5.8006	50.6801
 168	1	1	-0.410418	11.5594	5.2438	49.3805
 169	1	8	0.148547	9.49497	2.88427	42.2902
 170	1	8	0.179912	12.7619	1.365	38.8085
 171	1	8	0.155197	13.4484	1.42871	41.2302
 172	1	9	0.340258	11.0953	4.87759	46.6119
 173	1	8	0.137111	13.0414	0.31186	43.293
 174	1	8	0.181656	13.6674	0.287373	45.7272
 175	1	8	0.164633	10.9028	4.04618	43.8948
 176	1	9	0.430928	7.87686	3.13681	39.9996
 177	1	8	0.141007	13.3131	3.32364	52.2692
 178	1	8	0.203537	12.1778	5.47319	52.7306
 179	1	8	0.116715	13.3423	2.39482	49.9852
 180	1	8	0.18244	11.0671	5.79219	48.5836
 181	1	1	-0.155485	11.1754	0.687676	27.994
 182	1	2	-0.03785	10.3051	1.80995	28.0595
 183	1	1	-0.234781	11.2374	2.63787	25.9212
 184	1	1	0.378053	12.0607	1.51283	25.885
 185	1	1	-0.208553	10.353	2.77565	27.0121
 186	1	3	-0.411858	8.88354	2.05471	32.8838
 187	1	1	-0.147234	7.98607	2.36612	28.891
 188	1	1	0.107751	12.0254	0.580145	26.8861
 189	1	4	0.626409	13.3962	-0.0306171	25.2919
 190	1	2	0.00453	9.32775	1.97808	29.1764
 191	1	1	0.356173	7.47373	2.44341	31.2388
 192	1	1	0.030551	8.75716	2.06056	31.5246
 193	1	1	-0.286062	7.04727	2.59408	29.9193
 194	1	5	-0.595919	6.75755	2.68366	32.3539
 195	1	1	-0.206338	9.71568	1.80914	30.5335
 196	1	6	0.462884	7.63022	2.46616	33.3499
 197	1	3	-0.691987	12.8891	-0.420496	26.542
 198	1	7	-0.710982	12.9161	1.16417	24.9049
 199	1	1	-0.062645	5.6803	3.37185	36.4662
 200	1	1	0.026743	7.30172	2.68616	34.7715
 201	1	1	-0.399843	6.64013	3.18248	37.4709
 202	1	1	-0.107518	6.01249	3.12721	35.1284
 203	1	1	0.292439	7.94583	2.73893	37.1569
 204	1	1	-0.410418	8.25352	2.48988	35.7995
 205	1	8	0.148547	11.1492	-0.0827832	28.757
 206	1	8	0.179912	11.2717	3.36126	25.1139
 207	1	8	0.155197	9.6968	3.64178	27.0572
 208	1	9	0.340258	9.70214	1.87102	33.436
 209	1	8	0.137111	7.67856	2.49116	27.8559
 210	1	8	0.181656	6.02965	2.90455	29.7086
 211	1	8	0.164633	10.7353	1.54462	30.7925
 212	1	9	0.430928	13.0703	-1.27658	27.0305
 213	1	8	0.141007	4.6782	3.71402	36.7172
 214	1	8	0.203537	6.36024	3.38183	38.4983
 215	1	8	0.116715	5.2599	3.28874	34.3606
 216	1	8	0.18244	9.25693	2.15347	35.5581
 217	1	1	-0.155485	16.0919	2.68757	14.9684
 218	1	2	-0.03785	16.8551	2.73404	16.1642
 219	1	1	-0.234781	17.7091	4.96301	15.5222
 220	1	1	0.378053	16.9386	4.88373	14.3605
 221	1	1	-0.208553	17.6535	3.88222	16.4301
 222	1	3	-0.411858	15.6508	0.686344	20.5652
 223	1	1	-0.147234	17.3542	0.343554	16.8491
 224	1	1	0.107751	16.1595	3.7877	14.1067
 225	1	4	0.626409	15.9274	5.29067	12.5324
 226	1	2	0.00453	16.7992	1.62022	17.1499
 227	1	1	0.356173	16.7362	-0.465652	19.036
 228	1	1	0.030551	16.1816	0.754679	19.3144
 229	1	1	-0.286062	17.3363	-0.706813	17.7965
 230	1	5	-0.595919	16.6079	-1.32313	20.0718
 231	1	1	-0.206338	16.2007	1.82742	18.418
 232	1	6	0.462884	15.9373	-0.612035	20.9939
 233	1	3	-0.691987	15.4967	4.01722	12.9365
 234	1	7	-0.710982	16.8194	5.81385	13.3922
 235	1	1	-0.062645	15.5163	-2.92721	23.9706
 236	1	1	0.026743	15.5287	-1.13571	22.3112
 237	1	1	-0.399843	14.7239	-2.14345	24.8265
 238	1	1	-0.107518	15.9039	-2.42977	22.7176
 239	1	1	0.292439	14.3035	-0.850201	24.441
 240	1	1	-0.410418	14.7372	-0.361748	23.1888
 241	1	8	0.148547	15.4567	1.83618	14.7478
 242	1	8	0.179912	18.3142	5.84296	15.7117
 243	1	8	0.155197	18.2374	3.91937	17.3472
 244	1	9	0.340258	15.1633	1.39914	21.0783
 245	1	8	0.137111	17.8221	0.186171	15.8806
 246	1	8	0.181656	17.7711	-1.67752	17.5843
 247	1	8	0.164633	15.7632	2.78697	18.6748
 248	1	9	0.430928	14.8152	3.4359	12.4901
 249	1	8	0.141007	15.8225	-3.92826	24.2678
 250	1	8	0.203537	14.4166	-2.55628	25.7803
 251	1	8	0.116715	16.5078	-3.05057	22.0604
 252	1	8	0.18244	14.4124	0.630388	22.8927
 253	1	1	-0.155485	7.39988	2.3051	5.73437
 254	1	2	-0.03785	8.81493	2.20191	5.79731
 255	1	1	-0.234781	8.68072	-0.0785076	4.85348
 256	1	1	0.378053	7.29305	0.0635938	4.80179
 257	1	1	-0.208553	9.43864	0.995639	5.36866
 258	1	3	-0.411858	12.3172	4.339	8.67471
 259	1	1	-0.147234	9.57965	4.60877	5.6289
 260	1	1	0.107751	6.68437	1.20451	5.24991
 261	1	4	0.626409	5.20613	-0.238478	4.53048
 262	1	2	0.00453	9.64954	3.34013	6.27294
 263	1	1	0.356173	11.3238	5.45646	7.05856
 264	1	1	0.030551	11.3682	4.24934	7.70202
 265	1	1	-0.286062	10.4258	5.67436	6.01104
 266	1	5	-0.595919	12.2305	6.32186	7.55624
 267	1	1	-0.206338	10.5699	3.16027	7.33749
 268	1	6	0.462884	12.8299	5.63265	8.54076
 269	1	3	-0.691987	5.33767	1.03387	5.10758
 270	1	7	-0.710982	6.39853	-0.829236	4.33508
 271	1	1	-0.062645	15.4384	8.01243	9.90768
 272	1	1	0.026743	13.9058	6.18234	9.38883
 273	1	1	-0.399843	15.9296	7.29275	11.0056
 274	1	1	-0.107518	14.4217	7.46425	9.11614
 275	1	1	0.292439	15.4312	6.01249	11.3272
 276	1	1	-0.410418	14.4321	5.46015	10.4884
 277	1	8	0.148547	6.89292	3.20623	6.06285
 278	1	8	0.179912	9.1456	-0.991454	4.49732
 279	1	8	0.155197	10.523	0.917868	5.40341
 280	1	9	0.340258	12.621	3.62698	9.311
 281	1	8	0.137111	8.89169	4.74342	4.79801
 282	1	8	0.181656	10.4038	6.6337	5.50528
 283	1	8	0.164633	10.6457	2.20631	7.84902
 284	1	9	0.430928	4.60315	1.67986	5.32692
 285	1	8	0.141007	15.8337	8.99934	9.67564
 286	1	8	0.203537	16.7045	7.73172	11.631
 287	1	8	0.116715	14.0398	8.03825	8.27544
 288	1	8	0.18244	14.0324	4.48339	10.7232
 289	1	1	-0.155485	3.59384	-8.61451	-2.76782
 290	1	2	-0.03785	4.14537	-8.33358	-1.48388
 291	1	1	-0.234781	6.25074	-9.43101	-2.17239
 292	1	1	0.378053	5.68979	-9.62898	-3.43233
 293	1	1	-0.208553	5.46724	-8.78425	-1.19556
 294	1	3	-0.411858	3.86024	-4.60407	1.84853
 295	1	1	-0.147234	1.99668	-7.49355	-0.393231
 296	1	1	0.107751	4.39683	-9.27707	-3.70519
 297	1	4	0.626409	5.43115	-9.92037	-5.52135
 298	1	2	0.00453	3.4181	-7.46566	-0.504829
 299	1	1	0.356173	2.04972	-5.65641	1.1694
 300	1	1	0.030551	3.41498	-5.64444	1.09038
 301	1	1	-0.286062	1.30397	-6.59105	0.446515
 302	1	5	-0.595919	1.5832	-4.65043	1.93938
 303	1	1	-0.206338	4.13817	-6.51628	0.271569
 304	1	6	0.462884	2.69403	-4.00197	2.32821
 305	1	3	-0.691987	4.17368	-9.52423	-5.03519
 306	1	7	-0.710982	6.33547	-10.0371	-4.53461
 307	1	1	-0.062645	1.46226	-0.922192	4.1678
 308	1	1	0.026743	2.68991	-2.75201	3.11284
 309	1	1	-0.399843	2.67131	-0.287395	4.4971
 310	1	1	-0.107518	1.47444	-2.14529	3.48173
 311	1	1	0.292439	3.91209	-0.88094	4.17145
 312	1	1	-0.410418	3.89534	-2.11481	3.48397
 313	1	8	0.148547	2.61038	-8.25141	-3.04391
 314	1	8	0.179912	7.28199	-9.71453	-1.99091
 315	1	8	0.155197	5.90124	-8.59	-0.218359
 316	1	9	0.340258	4.80018	-4.26647	1.95645
 317	1	8	0.137111	1.43133	-8.21501	-0.975974
 318	1	8	0.181656	0.221828	-6.58639	0.513007
 319	1	8	0.164633	5.2158	-6.4261	0.186625
 320	1	9	0.430928	3.39673	-9.22215	-5.5927
 321	1	8	0.141007	0.51069	-0.467053	4.43631
 322	1	8	0.203537	2.63858	0.655427	5.03084
 323	1	8	0.116715	0.53109	-2.61625	3.21678
 324	1	8	0.18244	4.84927	-2.56317	3.22519
 325	1	1	-0.155485	15.5894	-7.49394	-10.326
 326	1	2	-0.03785	14.3583	-7.85766	-10.9472
 327	1	1	-0.234781	15.3737	-7.21438	-13.1336
 328	1	1	0.378053	16.5628	-6.90626	-12.4703
 329	1	1	-0.208553	14.2795	-7.68863	-12.3684
 330	1	3	-0.411858	9.60778	-9.49171	-10.1592
 331	1	1	-0.147234	13.3627	-8.66257	-8.7259
 332	1	1	0.107751	16.6402	-7.03459	-11.1156
 333	1	4	0.626409	18.5639	-6.41507	-11.9322
 334	1	2	0.00453	13.2083	-8.40773	-10.1283
 335	1	1	0.356173	11.085	-9.38208	-8.53383
 336	1	1	0.030551	10.912	-9.1875	-9.87433
 337	1	1	-0.286062	12.3079	-9.13739	-7.92428
 338	1	5	-0.595919	9.95365	-9.76148	-7.92402
 339	1	1	-0.206338	11.9302	-8.69443	-10.7036
 340	1	6	0.462884	9.04805	-9.79623	-8.91102
 341	1	3	-0.691987	17.9004	-6.69986	-10.733
 342	1	7	-0.710982	17.7443	-6.51265	-12.9967
 343	1	1	-0.062645	5.28276	-10.0977	-9.35139
 344	1	1	0.026743	7.61211	-10.0022	-8.64274
 345	1	1	-0.399843	4.85861	-10.0506	-8.01007
 346	1	1	-0.107518	6.64951	-10.0364	-9.66796
 347	1	1	0.292439	5.80264	-10.0501	-6.95824
 348	1	1	-0.410418	7.16576	-10.086	-7.30915
 349	1	8	0.148547	15.751	-7.56884	-9.26179
 350	1	8	0.179912	15.3164	-7.10998	-14.2117
 351	1	8	0.155197	13.3708	-7.94445	-12.9001
 352	1	9	0.340258	9.12032	-9.38794	-11.0305
 353	1	8	0.137111	14.3032	-8.48938	-8.22318
 354	1	8	0.181656	12.4203	-9.29733	-6.85723
 355	1	8	0.164633	11.7239	-8.52654	-11.7518
 356	1	9	0.430928	18.3078	-6.78443	-9.82328
 357	1	8	0.141007	4.55229	-10.1539	-10.1543
 358	1	8	0.203537	3.79561	-10.0509	-7.79266
 359	1	8	0.116715	6.95222	-10.0148	-10.7098
 360	1	8	0.18244	7.90211	-10.0553	-6.5083
 361	1	1	-0.155485	23.6827	-4.39151	-3.16849
 362	1	2	-0.03785	24.3464	-3.69646	-4.21516
 363	1	1	-0.234781	24.0285	-1.5767	-2.99348
 364	1	1	0.378053	23.2899	-2.28512	-2.04569
 365	1	1	-0.208553	24.5749	-2.29788	-4.07574
 366	1	3	-0.411858	22.4221	-5.631	-8.34671
 367	1	1	-0.147234	25.6603	-4.08811	-6.36401
 368	1	1	0.107751	23.2149	-3.65251	-2.07686
 369	1	4	0.626409	21.7308	-2.83479	-0.716961
 370	1	2	0.00453	24.504	-4.31464	-5.56286
 371	1	1	0.356173	24.5246	-4.97797	-8.29762
 372	1	1	0.030551	23.4285	-5.23577	-7.52034
 373	1	1	-0.286062	25.6823	-4.43172	-7.73618
 374	1	5	-0.595919	24.2661	-5.18268	-9.60694
 375	1	1	-0.206338	23.3691	-4.92247	-6.16054
 376	1	6	0.462884	22.9692	-5.53179	-9.629
 377	1	3	-0.691987	22.3203	-4.03864	-1.12047
 378	1	7	-0.710982	22.3739	-1.76199	-1.20926
 379	1	1	-0.062645	22.0311	-5.59333	-13.3028
 380	1	1	0.026743	22.1779	-5.69396	-10.8657
 381	1	1	-0.399843	20.6577	-5.87458	-13.2385
 382	1	1	-0.107518	22.7834	-5.50578	-12.1228
 383	1	1	0.292439	20.0151	-6.08865	-12.0022
 384	1	1	-0.410418	20.7956	-5.99415	-10.8235
 385	1	8	0.148547	23.4444	-5.44497	-3.26792
 386	1	8	0.179912	24.0539	-0.492948	-2.96046
 387	1	8	0.155197	25.0394	-1.75085	-4.89297
 388	1	9	0.340258	21.4656	-5.81123	-8.10929
 389	1	8	0.137111	26.5195	-3.58781	-5.92401
 390	1	8	0.181656	26.5351	-4.20614	-8.36742
 391	1	8	0.164633	22.4429	-5.03106	-5.60629
 392	1	9	0.430928	21.9245	-4.95122	-0.995002
 393	1	8	0.141007	22.515	-5.43714	-14.2648
 394	1	8	0.203537	20.0751	-5.94063	-14.1554
 395	1	8	0.116715	23.8436	-5.2737	-12.1857
 396	1	8	0.18244	20.3161	-6.13986	-9.86611
 397	1	1	-0.155485	15.8942	2.8345	-5.85184
 398	1	2	-0.03785	14.9852	2.88354	-4.75471
 399	1	1	-0.234781	13.4817	4.31761	-6.09656
 400	1	1	0.378053	14.3759	4.19759	-7.15868
 401	1	1	-0.208553	13.7964	3.65878	-4.89076
 402	1	3	-0.411858	17.7822	0.411071	-1.40078
 403	1	1	-0.147234	14.0998	1.44647	-2.8567
 404	1	1	0.107751	15.5553	3.5178	-7.02636
 405	1	4	0.626409	15.216	4.09216	-9.10729
 406	1	2	0.00453	15.2055	2.05363	-3.5275
 407	1	1	0.356173	15.5867	0.303677	-1.34839
 408	1	1	0.030551	16.6487	0.915686	-1.95774
 409	1	1	-0.286062	14.2823	0.565619	-1.76757
 410	1	5	-0.595919	15.9842	-0.618676	-0.447083
 411	1	1	-0.206338	16.5148	1.77674	-3.05214
 412	1	6	0.462884	17.3232	-0.585231	-0.535353
 413	1	3	-0.691987	16.1622	3.50041	-8.2544
 414	1	7	-0.710982	14.16	4.57491	-8.42931
 415	1	1	-0.062645	18.4667	-3.85621	0.976221
 416	1	1	0.026743	18.2076	-1.62905	0.0128226
 417	1	1	-0.399843	19.8012	-3.89261	0.538975
 418	1	1	-0.107518	17.6692	-2.73805	0.692371
 419	1	1	0.292439	20.3868	-2.76972	-0.0872396
 420	1	1	-0.410418	19.5894	-1.62262	-0.277803
 421	1	8	0.148547	16.7873	2.22163	-5.81166
 422	1	8	0.179912	12.5475	4.85151	-6.23167
 423	1	8	0.155197	13.0945	3.71589	-4.06265
 424	1	9	0.340258	18.7315	0.551205	-1.69682
 425	1	8	0.137111	13.0918	1.61244	-3.22665
 426	1	8	0.181656	13.4478	0.0560475	-1.2977
 427	1	8	0.164633	17.3877	2.20407	-3.53278
 428	1	9	0.430928	16.9618	2.96361	-8.5336
 429	1	8	0.141007	18.0269	-4.71665	1.47682
 430	1	8	0.203537	20.3901	-4.78704	0.712164
 431	1	8	0.116715	16.6115	-2.76066	0.943373
 432	1	8	0.18244	20.0296	-0.785393	-0.809328
 433	1	1	-0.155485	5.91003	3.21936	-13.2836
 434	1	2	-0.03785	6.67881	4.3507	-13.6649
 435	1	1	-0.234781	4.96944	5.83564	-12.6766
 436	1	1	0.378053	4.27095	4.69829	-12.2647
 437	1	1	-0.208553	6.17796	5.65133	-13.3793
 438	1	3	-0.411858	11.4722	4.65006	-12.5467
 439	1	1	-0.147234	8.58022	3.68621	-15.2778
 440	1	1	0.107751	4.70665	3.44524	-12.6028
 441	1	4	0.626409	2.97406	3.33852	-11.2626
 442	1	2	0.00453	8.11299	4.20742	-14.0355
 443	1	1	0.356173	10.876	3.93681	-14.5401
 444	1	1	0.030551	10.4099	4.43306	-13.3547
 445	1	1	-0.286062	9.97008	3.55664	-15.5405
 446	1	5	-0.595919	12.2273	3.82068	-14.5305
 447	1	1	-0.206338	9.05964	4.58804	-13.0579
 448	1	6	0.462884	12.5691	4.21999	-13.2908
 449	1	3	-0.691987	3.87721	2.54994	-11.9931
 450	1	7	-0.710982	3.20895	4.6554	-11.4322
 451	1	1	-0.062645	16.2394	3.38829	-12.7375
 452	1	1	0.026743	13.9067	4.10049	-12.6794
 453	1	1	-0.399843	16.338	3.55543	-11.3422
 454	1	1	-0.107518	15.0207	3.62908	-13.3963
 455	1	1	0.292439	15.2383	4.03725	-10.5969
 456	1	1	-0.410418	14.0639	4.36589	-11.3025
 457	1	8	0.148547	6.29942	2.21528	-13.4174
 458	1	8	0.179912	4.63261	6.8236	-12.3858
 459	1	8	0.155197	6.78692	6.51639	-13.6347
 460	1	9	0.340258	11.4726	4.9176	-11.5786
 461	1	8	0.137111	7.85824	3.38601	-16.0328
 462	1	8	0.181656	10.3401	3.14901	-16.4752
 463	1	8	0.164633	8.73684	4.9605	-12.0906
 464	1	9	0.430928	3.96454	1.55281	-11.9636
 465	1	8	0.141007	17.0917	3.0236	-13.3077
 466	1	8	0.203537	17.2693	3.31083	-10.8431
 467	1	8	0.116715	14.9327	3.42909	-14.4614
 468	1	8	0.18244	13.2185	4.71439	-10.7213
 469	1	1	-0.155485	0.331798	-7.61401	-8.92495
 470	1	2	-0.03785	1.13467	-6.49174	-9.2834
 471	1	1	-0.234781	2.67325	-8.02176	-10.4823
 472	1	1	0.378053	1.84372	-9.0802	-10.1268
 473	1	1	-0.208553	2.32248	-6.73239	-10.041
 474	1	3	-0.411858	1.2772	-1.51516	-9.82252
 475	1	1	-0.147234	-0.144076	-4.80061	-7.83623
 476	1	1	0.107751	0.737657	-8.8849	-9.34903
 477	1	4	0.626409	0.832119	-10.9409	-10.0744
 478	1	2	0.00453	0.737894	-5.08743	-8.92451
 479	1	1	0.356173	0.0328878	-2.43167	-8.2558
 480	1	1	0.030551	0.87926	-2.70003	-9.29334
 481	1	1	-0.286062	-0.50614	-3.47453	-7.49985
 482	1	5	-0.595919	-0.15436	-1.10442	-8.09726
 483	1	1	-0.206338	1.24258	-3.98966	-9.67486
 484	1	6	0.462884	0.621113	-0.557869	-9.04947
 485	1	3	-0.691987	0.103056	-10.0896	-9.2277
 486	1	7	-0.710982	1.93449	-10.3472	-10.5589
 487	1	1	-0.062645	0.189174	3.17396	-8.65566
 488	1	1	0.026743	0.795301	0.890496	-9.25109
 489	1	1	-0.399843	1.1327	3.65607	-9.57023
 490	1	1	-0.107518	0.0345038	1.79463	-8.487
 491	1	1	0.292439	1.93111	2.79277	-10.3457
 492	1	1	-0.410418	1.73187	1.40095	-10.1857
 493	1	8	0.148547	-0.597453	-7.49281	-8.38084
 494	1	8	0.179912	3.53685	-8.19522	-11.1144
 495	1	8	0.155197	2.97815	-5.91212	-10.3114
 496	1	9	0.340258	1.88222	-1.35516	-10.6047
 497	1	8	0.137111	-0.537129	-5.61109	-7.23165
 498	1	8	0.181656	-1.1675	-3.2535	-6.66896
 499	1	8	0.164633	1.88604	-4.13051	-10.5338
 500	1	9	0.430928	-0.835372	-10.2487	-8.91176
 501	1	8	0.141007	-0.410769	3.86807	-8.06959
 502	1	8	0.203537	1.2607	4.72189	-9.6648
 503	1	8	0.116715	-0.69077	1.42688	-7.76574
 504	1	8	0.18244	2.3298	0.716184	-10.7706
 505	1	1	-0.155485	-1.57261	-10.906	-18.8256
 506	1	2	-0.03785	-0.604568	-11.872	-19.2006
 507	1	1	-0.234781	-0.868648	-11.1929	-21.5626
 508	1	1	0.378053	-1.7869	-10.2231	-21.1458
 509	1	1	-0.208553	-0.267255	-12.0112	-20.5765
 510	1	3	-0.411858	-0.308078	-14.3039	-14.8776
 511	1	1	-0.147234	1.52496	-12.2558	-17.9205
 512	1	1	0.107751	-2.13415	-10.1137	-19.827
 513	1	4	0.626409	-2.97174	-8.46438	-20.9789
 514	1	2	0.00453	0.152592	-12.5726	-18.1283
 515	1	1	0.356173	1.45752	-13.3257	-15.7665
 516	1	1	0.030551	0.182589	-13.7561	-16.0239
 517	1	1	-0.286062	2.18402	-12.6144	-16.724
 518	1	5	-0.595919	1.76503	-13.4495	-14.4605
 519	1	1	-0.206338	-0.526908	-13.3556	-17.161
 520	1	6	0.462884	0.643213	-13.9516	-13.9192
 521	1	3	-0.691987	-2.93619	-9.02246	-19.6961
 522	1	7	-0.710982	-2.32405	-9.22549	-21.8818
 523	1	1	-0.062645	-1.46369	-13.898	-10.7846
 524	1	1	0.026743	0.259726	-13.771	-12.5082
 525	1	1	-0.399843	-0.867344	-12.8208	-10.1096
 526	1	1	-0.107518	-0.930657	-14.3319	-12.0065
 527	1	1	0.292439	0.328304	-12.2405	-10.5918
 528	1	1	-0.410418	0.939108	-12.8198	-11.7232
 529	1	8	0.148547	-1.80258	-10.7267	-17.7805
 530	1	8	0.179912	-0.582231	-11.2522	-22.6069
 531	1	8	0.155197	0.496193	-12.7308	-20.8628
 532	1	9	0.340258	-1.26744	-14.5273	-14.6873
 533	1	8	0.137111	2.03339	-11.618	-18.6396
 534	1	8	0.181656	3.18136	-12.2556	-16.4938
 535	1	8	0.164633	-1.58721	-13.5615	-17.2639
 536	1	9	0.430928	-3.26292	-8.59093	-18.8511
 537	1	8	0.141007	-2.38731	-14.3374	-10.4128
 538	1	8	0.203537	-1.3492	-12.4212	-9.22419
 539	1	8	0.116715	-1.46095	-15.0903	-12.5742
 540	1	8	0.18244	1.83137	-12.348	-12.1319
 541	1	1	-0.155485	-3.3887	1.28804	-16.2065
 542	1	2	-0.03785	-4.48573	0.549082	-15.6841
 543	1	1	-0.234781	-4.73664	2.22805	-13.8885
 544	1	1	0.378053	-3.63385	2.90213	-14.4148
 545	1	1	-0.208553	-5.15518	1.03969	-14.5265
 546	1	3	-0.411858	-4.91677	-2.70948	-19.4392
 547	1	1	-0.147234	-4.97612	-1.9219	-15.4196
 548	1	1	0.107751	-2.99908	2.45266	-15.5395
 549	1	4	0.626409	-1.89415	4.10526	-14.6328
 550	1	2	0.00453	-4.82379	-0.78309	-16.2641
 551	1	1	0.356173	-5.04822	-3.37181	-17.343
 552	1	1	0.030551	-4.99267	-2.27088	-18.155
 553	1	1	-0.286062	-5.07796	-3.22732	-15.9534
 554	1	5	-0.595919	-4.94104	-4.5183	-18.0501
 555	1	1	-0.206338	-4.85334	-0.968324	-17.6693
 556	1	6	0.462884	-4.81105	-4.09661	-19.3201
 557	1	3	-0.691987	-1.89491	3.23376	-15.7335
 558	1	7	-0.710982	-2.98224	3.94044	-13.8622
 559	1	1	-0.062645	-3.84095	-5.23022	-22.8051
 560	1	1	0.026743	-4.43311	-4.9683	-20.4494
 561	1	1	-0.399843	-3.43546	-6.54979	-22.5587
 562	1	1	-0.107518	-4.31912	-4.44032	-21.7512
 563	1	1	0.292439	-3.52866	-7.11509	-21.269
 564	1	1	-0.410418	-4.0768	-6.31785	-20.2368
 565	1	8	0.148547	-2.81888	0.916491	-17.0508
 566	1	8	0.179912	-5.20421	2.5886	-12.9784
 567	1	8	0.155197	-5.98582	0.474586	-14.1099
 568	1	9	0.340258	-4.76278	-2.16206	-20.2657
 569	1	8	0.137111	-4.9285	-1.79101	-14.3411
 570	1	8	0.181656	-5.11151	-4.10297	-15.3143
 571	1	8	0.164633	-4.73105	-0.126615	-18.3426
 572	1	9	0.430928	-1.15022	3.09576	-16.3889
 573	1	8	0.141007	-3.74643	-4.80557	-23.8024
 574	1	8	0.203537	-3.00754	-7.14371	-23.3639
 575	1	8	0.116715	-4.58942	-3.40986	-21.9555
 576	1	8	0.18244	-4.14763	-6.7132	-19.2289
 577	1	1	-0.155485	0.487542	6.7208	-4.35856
 578	1	2	-0.03785	1.29379	7.36549	-5.3313
 579	1	1	-0.234781	3.09427	7.5691	-3.63295
 580	1	1	0.378053	2.25232	6.95109	-2.70142
 581	1	1	-0.208553	2.6108	7.76629	-4.9528
 582	1	3	-0.411858	1.43959	7.12026	-10.3677
 583	1	1	-0.147234	-0.65247	7.7765	-6.88792
 584	1	1	0.107751	1.00881	6.5353	-3.08188
 585	1	4	0.626409	1.33462	6.12026	-0.966361
 586	1	2	0.00453	0.746116	7.5519	-6.71305
 587	1	1	0.356173	-0.433854	7.47348	-9.25698
 588	1	1	0.030551	0.9267	7.38936	-9.12576
 589	1	1	-0.286062	-1.25523	7.7166	-8.15904
 590	1	5	-0.595919	-0.840277	7.17484	-10.5007
 591	1	1	-0.206338	1.55741	7.38585	-7.87148
 592	1	6	0.462884	0.300212	6.93519	-11.1616
 593	1	3	-0.691987	0.412123	5.9663	-2.00836
 594	1	7	-0.710982	2.4758	6.69986	-1.38778
 595	1	1	-0.062645	1.54085	5.7785	-14.5559
 596	1	1	0.026743	0.330098	6.36767	-12.5206
 597	1	1	-0.399843	0.423716	5.06598	-15.0241
 598	1	1	-0.107518	1.49945	6.39669	-13.2983
 599	1	1	0.292439	-0.760442	4.99169	-14.2531
 600	1	1	-0.410418	-0.801203	5.7081	-13.0394
 601	1	8	0.148547	-0.506097	6.36015	-4.59926
 602	1	8	0.179912	4.08466	7.89193	-3.33143
 603	1	8	0.155197	3.247	8.25682	-5.68456
 604	1	9	0.340258	2.34038	6.71365	-10.5803
 605	1	8	0.137111	-1.2831	7.94881	-6.02023
 606	1	8	0.181656	-2.32829	7.80362	-8.29323
 607	1	8	0.164633	2.61895	7.18139	-7.78184
 608	1	9	0.430928	-0.488465	5.53393	-1.96561
 609	1	8	0.141007	2.45399	5.82563	-15.1462
 610	1	8	0.203537	0.490876	4.55173	-15.9753
 611	1	8	0.116715	2.37468	6.9211	-12.9338
 612	1	8	0.18244	-1.69666	5.64165	-12.4234
 613	1	1	-0.155485	-8.21308	4.82913	0.331295
 614	1	2	-0.03785	-7.96177	4.15776	1.56442
 615	1	1	-0.234781	-10.385	3.635	1.70904
 616	1	1	0.378053	-10.5754	4.29844	0.496811
 617	1	1	-0.208553	-9.0739	3.55988	2.23257
 618	1	3	-0.411858	-2.98847	4.42021	1.22348
 619	1	1	-0.147234	-6.3104	3.82506	3.51348
 620	1	1	0.107751	-9.51762	4.85341	-0.165105
 621	1	4	0.626409	-11.3738	5.16394	-1.27285
 622	1	2	0.00453	-6.56813	4.0715	2.12685
 623	1	1	0.356173	-3.92638	4.00118	3.16346
 624	1	1	0.030551	-4.17306	4.19999	1.83504
 625	1	1	-0.286062	-4.99396	3.78587	4.03872
 626	1	5	-0.595919	-2.60744	4.12498	3.45094
 627	1	1	-0.206338	-5.44726	4.24931	1.27493
 628	1	6	0.462884	-2.05724	4.42279	2.26107
 629	1	3	-0.691987	-9.99356	5.40066	-1.31896
 630	1	7	-0.710982	-11.7345	4.49126	-0.164914
 631	1	1	-0.062645	1.51965	5.58051	2.8292
 632	1	1	0.026743	-0.666033	4.85278	2.02892
 633	1	1	-0.399843	1.8945	5.92827	1.51717
 634	1	1	-0.107518	0.245806	5.04183	3.08287
 635	1	1	0.292439	1.0148	5.72478	0.434358
 636	1	1	-0.410418	-0.250185	5.16713	0.717487