pySIMM System Object

434 atoms
493 bonds
816 angles
1292 dihedrals
144 impropers

10 atom types
15 bond types
26 angle types
12 dihedral types
2 improper types

-112.095147 112.095147 xlo xhi
-112.095147 112.095147 ylo yhi
-112.095147 112.095147 zlo zhi

Masses

   1	12.01	# ca
   2	12.01	# cp
   3	14.01	# na
   4	12.01	# cc
   5	14.01	# nc
   6	12.01	# cd
   7	14.01	# nd
   8	1.008	# ha
   9	1.008	# hn
  10	1.008	# h5

Pair Coeffs

   1	0.086	3.3996695084235347	# ca
   2	0.086	3.3996695084235347	# cp
   3	0.17	3.249998523775958	# na
   4	0.086	3.3996695084235347	# cc
   5	0.17	3.249998523775958	# nc
   6	0.086	3.3996695084235347	# cd
   7	0.17	3.249998523775958	# nd
   8	0.015	2.59964245953351	# ha
   9	0.0157	1.069078461768407	# hn
  10	0.015	2.421462715905442	# h5

Bond Coeffs

   1	425.8	1.3802	# cd,na
   2	525.4	1.3172	# cc,nd
   3	345.8	1.086	# ca,ha
   4	351.4	1.4854	# cp,cp
   5	467.7	1.3517	# ca,nc
   6	385.1	1.4555	# ca,cd
   7	467.7	1.3517	# ca,nd
   8	525.4	1.3172	# cd,nc
   9	450.2	1.4058	# ca,cp
  10	425.8	1.3802	# cc,na
  11	420.5	1.384	# ca,na
  12	351.7	1.0819	# cc,h5
  13	461.1	1.3984	# ca,ca
  14	408.4	1.01	# hn,na
  15	385.1	1.4555	# ca,cc

Angle Coeffs

   1	48.18	119.88	# ca,ca,ha
   2	66.28	123.45	# ca,cd,na
   3	64.05	121.11	# ca,cp,cp
   4	46.75	125.5	# cc,na,hn
   5	67.6	123.24	# ca,cd,nc
   6	46.75	125.5	# cd,na,hn
   7	72.48	104.88	# ca,nc,cd
   8	74.9	112.22	# na,cd,nc
   9	66.62	120.02	# ca,ca,ca
  10	46.63	125.54	# ca,na,hn
  11	65.02	120.79	# ca,ca,cd
  12	47.98	119.86	# cp,ca,ha
  13	69.46	119.72	# ca,ca,nc
  14	72.48	104.88	# ca,nd,cc
  15	69.08	118.34	# ca,ca,na
  16	66.72	118.38	# ca,cp,ca
  17	69.46	119.72	# ca,ca,nd
  18	74.9	112.22	# na,cc,nd
  19	67.4	113.15	# ca,na,cc
  20	66.26	120.69	# ca,ca,cp
  21	50.58	125.52	# h5,cc,nd
  22	67.4	113.15	# ca,na,cd
  23	49.58	121.55	# h5,cc,na
  24	66.28	123.45	# ca,cc,na
  25	67.6	123.24	# ca,cc,nd
  26	65.02	120.79	# ca,ca,cc

Dihedral Coeffs

   1	1	4.8	2	180	# X,ca,nc,X
   2	1	4.8	2	180	# X,ca,nd,X
   3	1	4.0	2	180	# X,ca,cd,X
   4	1	4.75	2	180	# X,cd,nc,X
   5	1	4.75	2	180	# X,cc,nd,X
   6	1	1.7	2	180	# X,cc,na,X
   7	1	1.0	2	180	# X,cp,cp,X
   8	1	3.625	2	180	# X,ca,cp,X
   9	1	0.3	2	180	# X,ca,na,X
  10	1	1.7	2	180	# X,cd,na,X
  11	1	3.625	2	180	# X,ca,ca,X
  12	1	4.0	2	180	# X,ca,cc,X

Improper Coeffs

   1	1.1	-1	2	# na,X,X,hn
   2	1.1	-1	2	# ca,X,X,ha

Atoms

   1	1	1	-0.155485	28.2138	-14.3966	-37.5213
   2	1	2	-0.03785	29.4681	-13.9652	-37.0076
   3	1	1	-0.234781	28.4191	-11.851	-36.2613
   4	1	1	0.378053	27.2012	-12.33	-36.7404
   5	1	1	-0.208553	29.5525	-12.6781	-36.3991
   6	1	3	-0.411858	33.5803	-15.9089	-34.9587
   7	1	1	-0.147234	31.0071	-15.6677	-38.1421
   8	1	1	0.107751	27.1134	-13.544	-37.3659
   9	1	4	0.626409	25.1418	-12.6127	-37.1746
  10	1	2	0.00453	30.6689	-14.8543	-37.0198
  11	1	1	0.356173	32.9767	-16.4758	-36.999
  12	1	1	0.030551	32.6342	-15.7175	-35.9141
  13	1	1	-0.286062	32.1691	-16.4781	-38.1415
  14	1	5	-0.595919	34.1337	-17.1438	-36.792
  15	1	1	-0.206338	31.509	-14.8948	-35.8773
  16	1	6	0.462884	34.4961	-16.7801	-35.5484
  17	1	3	-0.691987	25.7995	-13.7443	-37.6833
  18	1	7	-0.710982	25.9982	-11.7418	-36.6141
  19	1	1	-0.062645	37.834	-18.4667	-34.8906
  20	1	1	0.026743	35.7277	-17.2195	-34.8665
  21	1	1	-0.399843	38.107	-18.0412	-33.5809
  22	1	1	-0.107518	36.6489	-18.0595	-35.5249
  23	1	1	0.292439	37.2016	-17.2124	-32.9078
  24	1	1	-0.410418	36.023	-16.8025	-33.5458
  25	1	8	0.148547	28.1016	-15.3787	-37.9677
  26	1	8	0.179912	28.4675	-10.8828	-35.7752
  27	1	8	0.155197	30.5099	-12.327	-36.0222
  28	1	9	0.340258	33.6394	-15.4952	-34.047
  29	1	8	0.137111	30.3781	-15.6396	-39.0278
  30	1	8	0.181656	32.4479	-17.08	-38.9998
  31	1	8	0.164633	31.2773	-14.3117	-34.9928
  32	1	9	0.430928	25.3796	-14.5531	-38.1005
  33	1	8	0.141007	38.5367	-19.1084	-35.4177
  34	1	8	0.203537	39.0201	-18.3506	-33.0821
  35	1	8	0.116715	36.4492	-18.3908	-36.5405
  36	1	8	0.18244	35.3444	-16.1608	-32.9973
  37	1	1	-0.155485	20.8397	-6.36707	-30.4377
  38	1	2	-0.03785	20.1396	-5.84228	-31.5531
  39	1	1	-0.234781	19.3557	-3.96478	-30.1343
  40	1	1	0.378053	20.0202	-4.54498	-29.0488
  41	1	1	-0.208553	19.4106	-4.62747	-31.386
  42	1	3	-0.411858	21.9341	-9.04217	-34.9694
  43	1	1	-0.147234	18.7921	-6.91561	-33.4092
  44	1	1	0.107751	20.7514	-5.68742	-29.2227
  45	1	4	0.626409	20.5848	-5.19653	-27.1043
  46	1	2	0.00453	20.0567	-6.65623	-32.8041
  47	1	1	0.356173	19.7983	-8.51877	-34.9019
  48	1	1	0.030551	21.0252	-8.22232	-34.3721
  49	1	1	-0.286062	18.6529	-7.85592	-34.4557
  50	1	5	-0.595919	19.8644	-9.5373	-35.7858
  51	1	1	-0.206338	21.2028	-7.32337	-33.3142
  52	1	6	0.462884	21.1667	-9.86445	-35.7992
  53	1	3	-0.691987	21.1743	-6.09756	-28.0004
  54	1	7	-0.710982	19.9371	-4.20224	-27.741
  55	1	1	-0.062645	21.4047	-13.0376	-37.8668
  56	1	1	0.026743	21.7255	-11.0107	-36.5416
  57	1	1	-0.399843	22.788	-13.283	-37.8467
  58	1	1	-0.107518	20.8807	-11.9047	-37.2261
  59	1	1	0.292439	23.6706	-12.3881	-37.2013
  60	1	1	-0.410418	23.1145	-11.2638	-36.5519
  61	1	8	0.148547	21.3526	-7.32056	-30.5014
  62	1	8	0.179912	18.7582	-3.07197	-29.9859
  63	1	8	0.155197	18.8552	-4.2238	-32.2293
  64	1	9	0.340258	22.9199	-9.11783	-34.7924
  65	1	8	0.137111	17.9035	-6.43829	-33.0043
  66	1	8	0.181656	17.6841	-8.1072	-34.8735
  67	1	8	0.164633	22.1812	-7.16565	-32.873
  68	1	9	0.430928	21.6094	-6.96904	-27.7681
  69	1	8	0.141007	20.7313	-13.727	-38.3725
  70	1	8	0.203537	23.173	-14.1616	-38.3518
  71	1	8	0.116715	19.8065	-11.7371	-37.2336
  72	1	8	0.18244	23.7921	-10.5836	-36.0463
  73	1	1	-0.155485	17.4345	0.366522	-17.4459
  74	1	2	-0.03785	16.9126	0.159135	-18.7476
  75	1	1	-0.234781	15.4502	2.13343	-18.4268
  76	1	1	0.378053	15.9326	2.24208	-17.1151
  77	1	1	-0.208553	15.9509	1.08685	-19.2465
  78	1	3	-0.411858	18.5329	-2.79439	-22.5595
  79	1	1	-0.147234	17.3174	-2.30149	-18.6617
  80	1	1	0.107751	16.9285	1.41327	-16.6838
  81	1	4	0.626409	16.1204	2.54715	-15.012
  82	1	2	0.00453	17.2718	-1.11275	-19.4482
  83	1	1	0.356173	18.1518	-3.54282	-20.5248
  84	1	1	0.030551	18.0479	-2.43578	-21.3253
  85	1	1	-0.286062	17.7647	-3.52275	-19.1904
  86	1	5	-0.595919	18.7239	-4.5769	-21.1536
  87	1	1	-0.206338	17.6177	-1.19037	-20.8292
  88	1	6	0.462884	18.9824	-4.11239	-22.3826
  89	1	3	-0.691987	17.1275	1.64275	-15.3635
  90	1	7	-0.710982	15.4403	2.98323	-16.092
  91	1	1	-0.062645	21.0107	-6.97191	-23.7777
  92	1	1	0.026743	19.7115	-4.93892	-23.3678
  93	1	1	-0.399843	21.157	-6.61209	-25.1202
  94	1	1	-0.107518	20.2701	-6.15557	-22.9222
  95	1	1	0.292439	20.5579	-5.43724	-25.6343
  96	1	1	-0.410418	19.8772	-4.58232	-24.7298
  97	1	8	0.148547	18.1576	-0.319595	-17.0186
  98	1	8	0.179912	14.6467	2.78261	-18.7582
  99	1	8	0.155197	15.524	0.928708	-20.2339
 100	1	9	0.340258	18.6548	-2.21926	-23.3744
 101	1	8	0.137111	17.0188	-2.26619	-17.6176
 102	1	8	0.181656	17.8448	-4.41895	-18.5849
 103	1	8	0.164633	17.6042	-0.304767	-21.456
 104	1	9	0.430928	17.7203	1.13361	-14.7387
 105	1	8	0.141007	21.4488	-7.89293	-23.3986
 106	1	8	0.203537	21.7064	-7.28352	-25.7679
 107	1	8	0.116715	20.1597	-6.46606	-21.8866
 108	1	8	0.18244	19.4189	-3.67743	-25.1186
 109	1	1	-0.155485	7.86644	5.51534	-7.62487
 110	1	2	-0.03785	7.85368	5.74027	-9.0318
 111	1	1	-0.234781	5.43026	5.22525	-9.06023
 112	1	1	0.378053	5.50459	4.95991	-7.69435
 113	1	1	-0.208553	6.61081	5.62001	-9.72341
 114	1	3	-0.411858	12.5337	4.47187	-10.1881
 115	1	1	-0.147234	9.133	6.56659	-11.0807
 116	1	1	0.107751	6.66889	5.14417	-7.00147
 117	1	4	0.626409	5.11365	4.30396	-5.7096
 118	1	2	0.00453	9.12231	5.90579	-9.8142
 119	1	1	0.356173	11.3447	5.73144	-11.5421
 120	1	1	0.030551	11.382	5.18656	-10.2879
 121	1	1	-0.286062	10.24	6.47747	-11.9554
 122	1	5	-0.595919	12.4052	5.35111	-12.2865
 123	1	1	-0.206338	10.3012	5.22797	-9.40278
 124	1	6	0.462884	13.1026	4.55314	-11.4626
 125	1	3	-0.691987	6.43677	4.77487	-5.7057
 126	1	7	-0.710982	4.53981	4.43603	-6.91701
 127	1	1	-0.062645	16.113	2.27724	-11.2153
 128	1	1	0.026743	14.2876	3.76658	-11.8562
 129	1	1	-0.399843	16.4962	2.16628	-12.5569
 130	1	1	-0.107518	15.0028	3.05405	-10.8727
 131	1	1	0.292439	15.7806	2.82621	-13.5866
 132	1	1	-0.410418	14.7009	3.65539	-13.2058
 133	1	8	0.148547	8.78503	5.58391	-7.05405
 134	1	8	0.179912	4.49831	5.06616	-9.59203
 135	1	8	0.155197	6.57821	5.74754	-10.8018
 136	1	9	0.340258	12.8154	3.86261	-9.44284
 137	1	8	0.137111	8.247	7.10002	-11.413
 138	1	8	0.181656	10.2193	6.90785	-12.9509
 139	1	8	0.164633	10.3299	4.66348	-8.47832
 140	1	9	0.430928	7.0933	4.7174	-4.95173
 141	1	8	0.141007	16.6597	1.74223	-10.4412
 142	1	8	0.203537	17.3366	1.52613	-12.7939
 143	1	8	0.116715	14.7171	3.11074	-9.82799
 144	1	8	0.18244	14.1291	4.16247	-13.982
 145	1	1	-0.155485	-5.45059	0.427795	-2.85582
 146	1	2	-0.03785	-4.75537	1.09652	-3.90737
 147	1	1	-0.234781	-6.9078	1.9114	-4.80936
 148	1	1	0.378053	-7.54992	1.18687	-3.81445
 149	1	1	-0.208553	-5.50527	1.87211	-4.83913
 150	1	3	-0.411858	0.160241	1.64134	-2.85938
 151	1	1	-0.147234	-2.86149	0.827039	-5.51169
 152	1	1	0.107751	-6.85585	0.514726	-2.84366
 153	1	4	0.626409	-9.02266	0.204624	-2.64952
 154	1	2	0.00453	-3.28456	0.979166	-4.15791
 155	1	1	0.356173	-0.59273	1.2487	-4.88844
 156	1	1	0.030551	-0.956725	1.28391	-3.56717
 157	1	1	-0.286062	-1.51589	0.971614	-5.88985
 158	1	5	-0.595919	0.67638	1.63842	-5.07876
 159	1	1	-0.206338	-2.29608	1.17215	-3.15091
 160	1	6	0.462884	1.11354	1.92776	-3.84721
 161	1	3	-0.691987	-7.78942	-0.0860738	-2.03251
 162	1	7	-0.710982	-8.87106	0.997176	-3.71847
 163	1	1	-0.062645	4.2393	3.25503	-2.13286
 164	1	1	0.026743	2.4282	2.55552	-3.61029
 165	1	1	-0.399843	4.95895	3.75619	-3.2323
 166	1	1	-0.107518	2.97232	2.67785	-2.31828
 167	1	1	0.292439	4.41274	3.71204	-4.53542
 168	1	1	-0.410418	3.16071	3.08462	-4.69459
 169	1	8	0.148547	-4.9174	-0.180874	-2.13392
 170	1	8	0.179912	-7.48704	2.44857	-5.55246
 171	1	8	0.155197	-4.98611	2.42065	-5.62184
 172	1	9	0.340258	0.229923	1.84866	-1.88033
 173	1	8	0.137111	-3.60485	0.665855	-6.28836
 174	1	8	0.181656	-1.20504	0.952884	-6.92905
 175	1	8	0.164633	-2.5792	1.33042	-2.11608
 176	1	9	0.430928	-7.63082	-0.740783	-1.29099
 177	1	8	0.141007	4.65875	3.32018	-1.13103
 178	1	8	0.203537	5.92058	4.22696	-3.06327
 179	1	8	0.116715	2.43686	2.2883	-1.45876
 180	1	8	0.18244	2.7355	3.02876	-5.69603
 181	1	1	-0.155485	-12.4476	-1.02451	7.39124
 182	1	2	-0.03785	-13.2765	-0.445847	6.40017
 183	1	1	-0.234781	-14.1438	1.16585	8.06116
 184	1	1	0.378053	-13.3578	0.532035	9.0231
 185	1	1	-0.208553	-14.1021	0.662837	6.7434
 186	1	3	-0.411858	-11.5183	-1.5029	1.84499
 187	1	1	-0.147234	-14.6227	-1.42805	4.52388
 188	1	1	0.107751	-12.5223	-0.498046	8.6821
 189	1	4	0.626409	-12.5975	-0.24137	10.8413
 190	1	2	0.00453	-13.3566	-1.03298	5.0394
 191	1	1	0.356173	-13.6253	-1.87205	2.38874
 192	1	1	0.030551	-12.3921	-1.55218	2.89289
 193	1	1	-0.286062	-14.766	-1.85985	3.19063
 194	1	5	-0.595919	-13.6019	-1.98637	1.05187
 195	1	1	-0.206338	-12.208	-1.12319	4.21187
 196	1	6	0.462884	-12.3411	-1.66645	0.726065
 197	1	3	-0.691987	-11.9662	-0.974727	9.82692
 198	1	7	-0.710982	-13.399	0.721178	10.3563
 199	1	1	-0.062645	-12.7324	-0.590707	-2.85314
 200	1	1	0.026743	-11.9582	-1.28058	-0.644257
 201	1	1	-0.399843	-11.448	-0.126926	-3.15009
 202	1	1	-0.107518	-12.9802	-1.1714	-1.60897
 203	1	1	0.292439	-10.3712	-0.287349	-2.2494
 204	1	1	-0.410418	-10.6394	-0.887032	-0.993582
 205	1	8	0.148547	-11.8381	-1.89398	7.16958
 206	1	8	0.179912	-14.8079	1.97354	8.3486
 207	1	8	0.155197	-14.7359	1.10814	5.9796
 208	1	9	0.340258	-10.5964	-1.10911	1.84368
 209	1	8	0.137111	-15.502	-1.35032	5.15922
 210	1	8	0.181656	-15.7368	-2.08683	2.7629
 211	1	8	0.164633	-11.2416	-0.780561	4.56603
 212	1	9	0.430928	-11.4475	-1.8232	9.94282
 213	1	8	0.141007	-13.5432	-0.468743	-3.5684
 214	1	8	0.203537	-11.2708	0.342867	-4.11534
 215	1	8	0.116715	-13.9996	-1.46353	-1.36979
 216	1	8	0.18244	-9.83977	-0.970537	-0.26859
 217	1	1	-0.155485	-4.91321	-6.00875	14.8391
 218	1	2	-0.03785	-6.02568	-6.61189	15.5014
 219	1	1	-0.234781	-4.46074	-8.04204	16.7696
 220	1	1	0.378053	-3.41178	-7.32962	16.1993
 221	1	1	-0.208553	-5.76957	-7.6953	16.3931
 222	1	3	-0.411858	-9.73824	-3.69646	13.6906
 223	1	1	-0.147234	-8.23628	-6.11878	16.6209
 224	1	1	0.107751	-3.61771	-6.41766	15.2003
 225	1	4	0.626409	-1.53351	-6.38879	15.8834
 226	1	2	0.00453	-7.40497	-6.01504	15.4607
 227	1	1	0.356173	-9.88643	-4.68573	15.6443
 228	1	1	0.030551	-9.12176	-4.59347	14.5116
 229	1	1	-0.286062	-9.47945	-5.46737	16.7175
 230	1	5	-0.595919	-10.9399	-3.85295	15.6232
 231	1	1	-0.206338	-7.87388	-5.22208	14.3749
 232	1	6	0.462884	-10.823	-3.23143	14.4455
 233	1	3	-0.691987	-2.39216	-5.87183	14.8941
 234	1	7	-0.710982	-2.14604	-7.3146	16.6372
 235	1	1	-0.062645	-13.371	-0.430722	14.5661
 236	1	1	0.026743	-11.6963	-2.12499	14.0275
 237	1	1	-0.399843	-13.3298	0.0303643	13.2414
 238	1	1	-0.107518	-12.5789	-1.52312	14.9459
 239	1	1	0.292439	-12.5119	-0.598595	12.2788
 240	1	1	-0.410418	-11.6653	-1.64582	12.7023
 241	1	8	0.148547	-5.05444	-5.18548	14.1552
 242	1	8	0.179912	-4.26211	-8.77406	17.5454
 243	1	8	0.155197	-6.59426	-8.21581	16.8718
 244	1	9	0.340258	-9.38328	-3.28634	12.846
 245	1	8	0.137111	-7.88923	-6.6573	17.4967
 246	1	8	0.181656	-10.0812	-5.50388	17.6198
 247	1	8	0.164633	-7.28054	-5.08772	13.4765
 248	1	9	0.430928	-2.18103	-5.13623	14.2432
 249	1	8	0.141007	-14.0327	0.0366117	15.2939
 250	1	8	0.203537	-13.9845	0.841916	12.9299
 251	1	8	0.116715	-12.6218	-1.87796	15.9733
 252	1	8	0.18244	-11.0239	-2.1314	11.9802
 253	1	1	-0.155485	5.11224	-7.79656	10.473
 254	1	2	-0.03785	5.93471	-6.67972	10.2159
 255	1	1	-0.234781	5.95756	-7.28312	7.82499
 256	1	1	0.378053	4.96547	-8.23631	8.09873
 257	1	1	-0.208553	6.40921	-6.46399	8.89214
 258	1	3	-0.411858	2.81363	-4.5882	13.1957
 259	1	1	-0.147234	6.72775	-5.35721	12.2498
 260	1	1	0.107751	4.60312	-8.50423	9.3963
 261	1	4	0.626409	2.91598	-8.70694	8.07001
 262	1	2	0.00453	5.77004	-5.60309	11.2289
 263	1	1	0.356173	4.97206	-4.50872	13.68
 264	1	1	0.030551	4.06856	-4.64637	12.6623
 265	1	1	-0.286062	6.33188	-4.78618	13.4839
 266	1	5	-0.595919	4.34737	-4.39046	14.8686
 267	1	1	-0.206338	4.42748	-5.18105	11.4276
 268	1	6	0.462884	3.04492	-4.54949	14.5722
 269	1	3	-0.691987	3.31711	-8.92746	9.3851
 270	1	7	-0.710982	3.95661	-8.5218	7.24146
 271	1	1	-0.062645	1.66564	-5.79683	17.8398
 272	1	1	0.026743	2.03868	-4.94448	15.5824
 273	1	1	-0.399843	0.393091	-6.23243	17.4595
 274	1	1	-0.107518	2.4802	-5.15608	16.9041
 275	1	1	0.292439	-0.138073	-5.95097	16.1813
 276	1	1	-0.410418	0.692465	-5.27042	15.2527
 277	1	8	0.148547	4.6413	-7.89671	11.4463
 278	1	8	0.179912	6.15606	-7.00898	6.79438
 279	1	8	0.155197	6.9796	-5.56482	8.67134
 280	1	9	0.340258	1.96016	-4.86953	12.7467
 281	1	8	0.137111	7.73694	-5.74517	12.1351
 282	1	8	0.181656	7.01925	-4.72555	14.3207
 283	1	8	0.164633	3.66045	-5.45113	10.7073
 284	1	9	0.430928	2.69651	-8.95345	10.1728
 285	1	8	0.141007	2.03887	-5.99328	18.843
 286	1	8	0.203537	-0.222557	-6.75576	18.1885
 287	1	8	0.116715	3.49571	-4.89811	17.1935
 288	1	8	0.18244	0.324283	-5.10905	14.2471
 289	1	1	-0.155485	-4.76891	-2.28572	13.0983
 290	1	2	-0.03785	-4.09189	-1.61447	12.0598
 291	1	1	-0.234781	-5.69878	0.261265	12.2804
 292	1	1	0.378053	-6.35554	-0.452708	13.2952
 293	1	1	-0.208553	-4.56205	-0.328518	11.6595
 294	1	3	-0.411858	-2.09392	-5.05628	9.04639
 295	1	1	-0.147234	-1.71371	-2.43239	12.1831
 296	1	1	0.107751	-5.88072	-1.67757	13.668
 297	1	4	0.626409	-7.56261	-1.10548	14.9346
 298	1	2	0.00453	-2.93506	-2.33376	11.4575
 299	1	1	0.356173	-0.986345	-4.24091	10.7652
 300	1	1	0.030551	-2.12642	-4.10168	10.0202
 301	1	1	-0.286062	-0.727331	-3.38363	11.8391
 302	1	5	-0.595919	-0.234537	-5.28162	10.3473
 303	1	1	-0.206338	-3.13469	-3.18141	10.3365
 304	1	6	0.462884	-0.900488	-5.75117	9.27442
 305	1	3	-0.691987	-6.65082	-2.13453	14.6782
 306	1	7	-0.710982	-7.43432	-0.0980223	14.0444
 307	1	1	-0.062645	-0.203757	-7.71382	6.11112
 308	1	1	0.026743	-0.35078	-6.78064	8.36366
 309	1	1	-0.399843	1.05116	-8.26285	6.41693
 310	1	1	-0.107518	-0.906235	-6.98351	7.08372
 311	1	1	0.292439	1.55843	-8.214	7.72878
 312	1	1	-0.410418	0.824946	-7.48741	8.69735
 313	1	8	0.148547	-4.42064	-3.24986	13.4409
 314	1	8	0.179912	-6.05173	1.24951	12.0037
 315	1	8	0.155197	-4.03027	0.212426	10.8794
 316	1	9	0.340258	-2.7373	-5.19003	8.28682
 317	1	8	0.137111	-1.56296	-1.7917	13.0497
 318	1	8	0.181656	0.200285	-3.45993	12.3926
 319	1	8	0.164633	-4.07383	-3.16456	9.79257
 320	1	9	0.430928	-6.57532	-2.99987	15.1839
 321	1	8	0.141007	-0.600016	-7.79545	5.10115
 322	1	8	0.203537	1.63889	-8.75691	5.64586
 323	1	8	0.116715	-1.82568	-6.48615	6.79465
 324	1	8	0.18244	1.2616	-7.31897	9.67672
 325	1	1	-0.155485	-17.1023	4.11665	17.2595
 326	1	2	-0.03785	-16.3131	4.0186	18.437
 327	1	1	-0.234781	-17.7349	5.73903	19.5143
 328	1	1	0.378053	-18.4937	5.79364	18.346
 329	1	1	-0.208553	-16.6474	4.84076	19.5539
 330	1	3	-0.411858	-12.0825	1.50018	17.1168
 331	1	1	-0.147234	-15.1888	2.21074	19.7427
 332	1	1	0.107751	-18.1808	5.01146	17.2667
 333	1	4	0.626409	-19.8907	6.30731	16.8306
 334	1	2	0.00453	-15.2124	3.01665	18.5697
 335	1	1	0.356173	-13.1982	1.12193	18.9819
 336	1	1	0.030551	-13.1863	1.88647	17.8469
 337	1	1	-0.286062	-14.1846	1.25155	19.954
 338	1	5	-0.595919	-12.1887	0.247929	19.0111
 339	1	1	-0.206338	-14.1881	2.84179	17.5892
 340	1	6	0.462884	-11.5137	0.461378	17.8737
 341	1	3	-0.691987	-19.0842	5.2967	16.2839
 342	1	7	-0.710982	-19.5541	6.58815	18.1012
 343	1	1	-0.062645	-9.07608	-2.39041	18.1522
 344	1	1	0.026743	-10.3564	-0.399297	17.526
 345	1	1	-0.399843	-8.29833	-2.25284	17.0066
 346	1	1	-0.107518	-10.0834	-1.46798	18.4084
 347	1	1	0.292439	-8.49085	-1.18265	16.1006
 348	1	1	-0.410418	-9.53246	-0.252357	16.3737
 349	1	8	0.148547	-16.9	3.48807	16.3994
 350	1	8	0.179912	-17.9872	6.3757	20.3556
 351	1	8	0.155197	-16.0465	4.77727	20.4585
 352	1	9	0.340258	-11.7814	1.82504	16.2144
 353	1	8	0.137111	-15.9751	2.32338	20.485
 354	1	8	0.181656	-14.1657	0.621867	20.8371
 355	1	8	0.164633	-14.1702	3.44996	16.6911
 356	1	9	0.430928	-19.1067	4.94814	15.3447
 357	1	8	0.141007	-8.91445	-3.22087	18.8356
 358	1	8	0.203537	-7.53279	-3.00075	16.8458
 359	1	8	0.116715	-10.6796	-1.6226	19.3027
 360	1	8	0.18244	-9.69649	0.566099	15.6788
 361	1	1	-0.155485	-26.0816	14.9521	20.6782
 362	1	2	-0.03785	-26.239	13.6284	20.1948
 363	1	1	-0.234781	-27.7998	13.1391	22.0479
 364	1	1	0.378053	-27.5786	14.4314	22.521
 365	1	1	-0.208553	-27.1125	12.7389	20.8831
 366	1	3	-0.411858	-23.246	10.3218	17.9455
 367	1	1	-0.147234	-25.5073	13.7482	17.7687
 368	1	1	0.107751	-26.7701	15.3053	21.8433
 369	1	4	0.626409	-27.1668	16.0096	23.8602
 370	1	2	0.00453	-25.4384	13.1252	19.0468
 371	1	1	0.356173	-24.1656	11.9823	16.8255
 372	1	1	0.030551	-24.0024	11.4474	18.0746
 373	1	1	-0.286062	-24.8836	13.1671	16.6415
 374	1	5	-0.595919	-23.627	11.1949	15.8728
 375	1	1	-0.206338	-24.644	11.96	19.2047
 376	1	6	0.462884	-23.0878	10.1783	16.5652
 377	1	3	-0.691987	-26.5712	16.3876	22.6465
 378	1	7	-0.710982	-27.8913	14.886	23.7475
 379	1	1	-0.062645	-21.9876	7.67147	13.9512
 380	1	1	0.026743	-22.4286	9.02033	15.9369
 381	1	1	-0.399843	-21.1545	6.82574	14.7008
 382	1	1	-0.107518	-22.5825	8.78544	14.5583
 383	1	1	0.292439	-20.9159	7.07479	16.0717
 384	1	1	-0.410418	-21.6209	8.13518	16.685
 385	1	8	0.148547	-25.3787	15.6334	20.2103
 386	1	8	0.179912	-28.4	12.4466	22.6278
 387	1	8	0.155197	-27.2187	11.7176	20.5251
 388	1	9	0.340258	-22.9803	9.66106	18.6545
 389	1	8	0.137111	-26.111	14.6437	17.6464
 390	1	8	0.181656	-24.9855	13.5903	15.6483
 391	1	8	0.164633	-24.564	11.4693	20.1697
 392	1	9	0.430928	-25.8542	17.0783	22.5406
 393	1	8	0.141007	-22.1517	7.48657	12.8916
 394	1	8	0.203537	-20.6626	6.00025	14.2001
 395	1	8	0.116715	-23.2064	9.44743	13.9628
 396	1	8	0.18244	-21.4428	8.32621	17.7393
 397	1	1	-0.155485	-18.4901	22.4867	24.4215
 398	1	2	-0.03785	-19.6999	22.6678	25.1373
 399	1	1	-0.234781	-19.38	25.1172	25.0515
 400	1	1	0.378053	-18.1867	24.8996	24.3585
 401	1	1	-0.208553	-20.1391	23.9889	25.4352
 402	1	3	-0.411858	-23.6502	19.6174	25.4603
 403	1	1	-0.147234	-19.9122	20.7149	26.7153
 404	1	1	0.107751	-17.777	23.6289	24.0486
 405	1	4	0.626409	-16.3224	25.0967	23.3888
 406	1	2	0.00453	-20.4558	21.5007	25.6598
 407	1	1	0.356173	-21.9502	19.4404	26.8443
 408	1	1	0.030551	-22.433	20.1355	25.7673
 409	1	1	-0.286062	-20.6642	19.688	27.3289
 410	1	5	-0.595919	-22.848	18.5462	27.3091
 411	1	1	-0.206338	-21.7466	21.1929	25.1649
 412	1	6	0.462884	-23.866	18.6486	26.4415
 413	1	3	-0.691987	-16.5764	23.7271	23.4113
 414	1	7	-0.710982	-17.2929	25.8248	23.951
 415	1	1	-0.062645	-26.5005	16.1775	27.5836
 416	1	1	0.026743	-25.0451	17.7722	26.4497
 417	1	1	-0.399843	-27.1661	15.9288	26.3744
 418	1	1	-0.107518	-25.3995	17.0451	27.6014
 419	1	1	0.292439	-26.7561	16.5553	25.179
 420	1	1	-0.410418	-25.7734	17.5655	25.2581
 421	1	8	0.148547	-18.1251	21.4921	24.1887
 422	1	8	0.179912	-19.681	26.1275	25.3072
 423	1	8	0.155197	-21.0516	24.1253	26.0112
 424	1	9	0.340258	-24.3037	19.9292	24.7654
 425	1	8	0.137111	-18.9161	20.9455	27.0846
 426	1	8	0.181656	-20.272	19.1051	28.1553
 427	1	8	0.164633	-22.1835	21.7662	24.3533
 428	1	9	0.430928	-15.9848	22.9927	23.0693
 429	1	8	0.141007	-26.787	15.6424	28.4867
 430	1	8	0.203537	-27.9371	15.1618	26.3338
 431	1	8	0.116715	-24.8384	17.1805	28.5227
 432	1	8	0.18244	-25.442	18.0498	24.3494
 433	1	8	0	37.4122	-16.8848	-31.8939
 434	1	10	0	-15.4111	25.4928	22.9616

Velocities

   1	9.51453e-06	0.000177189	-0.000164107
   2	7.29689e-05	8.85716e-05	0.000285412
   3	-3.79471e-06	-7.94132e-05	0.000752777
   4	-0.000178954	-8.58479e-05	0.000675056
   5	-6.67196e-05	-4.57988e-05	0.000426986
   6	0.000430787	0.000623793	0.000388123
   7	6.61877e-05	4.91169e-05	0.000640426
   8	-3.37067e-05	0.000222933	0.000139718
   9	7.49179e-06	0.00018851	0.000447187
  10	-0.000128448	0.000110393	0.000510418
  11	0.000158858	0.000311145	0.000560654
  12	0.000223209	0.000407799	0.000458181
  13	0.000127058	0.000170121	0.000727062
  14	5.76487e-05	0.000273933	0.000283789
  15	0.000233405	0.000226295	0.000594427
  16	0.000233827	0.000332711	0.000264885
  17	-0.000198982	0.000171247	-5.67536e-05
  18	-6.0958e-06	-0.000220188	0.000938687
  19	-0.000302391	-0.000689064	-0.000427511
  20	0.000187079	-0.000168572	-0.00028675
  21	0.000148016	-0.000643192	-0.000562237
  22	-0.000369252	-0.000537067	-0.000624005
  23	0.000651395	-0.000424871	-0.000359612
  24	0.000646611	-0.000270321	-0.000362797
  25	0.000164151	0.00047793	-0.000675745
  26	-0.000155299	-0.000342152	0.000885682
  27	3.54197e-06	5.3852e-05	0.000352393
  28	0.000486056	0.000850725	0.00013213
  29	1.55655e-05	-0.000117547	0.000495372
  30	0.000164837	3.29534e-05	0.000723391
  31	8.64232e-05	0.000313467	0.00045335
  32	3.2157e-05	0.000580605	-0.000532275
  33	-0.00054287	-0.00100398	-0.000519548
  34	8.73068e-05	-0.00072964	-0.000770258
  35	-0.000765145	-0.000556846	-0.000483888
  36	0.00106566	-7.87021e-05	-0.000137364
  37	-0.000250858	0.000197152	-0.000109121
  38	-0.000206718	0.000237618	-3.31406e-05
  39	-0.00052346	4.56108e-05	3.40071e-05
  40	-0.000453069	3.97889e-05	-3.94644e-05
  41	-0.000341782	0.000123774	-5.09244e-05
  42	-0.000221905	-0.000106106	0.000320835
  43	-0.000105329	0.000283024	3.21436e-05
  44	-0.000252125	0.000197242	-0.000108679
  45	-0.000609649	-0.000303628	-0.00011305
  46	-0.000133622	0.000197646	5.85147e-05
  47	-0.00021534	0.000137272	0.000114377
  48	-0.000235044	-7.87977e-05	0.00031404
  49	-0.000113551	0.000311152	1.03584e-05
  50	-0.000203935	0.000361671	-9.96432e-05
  51	-0.000137907	2.94103e-05	0.000185974
  52	-0.000263201	0.000244956	-0.000108353
  53	-0.000278082	3.50094e-05	-0.000207962
  54	-0.000707018	-0.000263822	4.92065e-05
  55	8.06242e-05	0.000679781	-0.000685705
  56	-0.000199026	0.000432308	-0.000381201
  57	-1.10153e-05	0.000533892	-0.000264473
  58	-0.000108348	0.000596963	-0.000754308
  59	-0.000152249	0.000366148	2.56893e-05
  60	-0.000231992	0.000421865	-8.79081e-05
  61	-0.000355926	0.000142621	-9.10281e-06
  62	-0.000716961	-8.9603e-05	5.41769e-05
  63	-0.000414527	7.72313e-05	-1.91525e-05
  64	-0.000340194	-0.000489435	0.000454086
  65	-7.08109e-05	0.000400967	-5.66001e-05
  66	-0.000152423	0.000511253	-0.000142709
  67	-0.000141674	9.05059e-05	0.00021045
  68	0.000235777	0.000227784	-0.000395753
  69	8.43187e-05	0.000681986	-0.000906193
  70	2.23105e-05	0.000448635	-0.000123195
  71	-8.39266e-05	0.000676149	-0.000930241
  72	-0.000243689	0.000382132	1.55929e-06
  73	-7.61569e-05	-0.00021349	-0.000131405
  74	-9.81473e-05	-0.000108967	-0.000164287
  75	-0.000447802	-0.000401001	0.000437685
  76	-0.000216151	-0.000439049	0.000359757
  77	-0.000422578	-0.000213311	0.000179775
  78	0.000458675	-0.000553914	4.90757e-05
  79	0.00051349	5.82505e-05	-6.98631e-05
  80	-0.000210197	-0.000498646	0.000181478
  81	0.000377192	-0.000132499	0.000294276
  82	0.000235679	-4.90822e-05	-0.000227868
  83	0.000960331	-0.000126805	0.000242851
  84	0.000725185	-0.000268759	5.97088e-05
  85	0.000808788	6.13371e-05	0.000190854
  86	0.000918615	-0.000249204	0.000383121
  87	0.000286078	-0.000252042	-0.000246663
  88	0.000537115	-0.000532662	0.00018493
  89	-5.93528e-05	-0.000638829	0.0002244
  90	0.000168608	-0.000239313	0.000392403
  91	0.000505407	-0.000449186	-0.000302717
  92	0.000183811	-0.000700108	8.6894e-05
  93	-0.000152267	-0.000510955	-0.000401229
  94	0.000667472	-0.000546846	-4.03229e-05
  95	-0.00050983	-0.000596861	-0.000178842
  96	-0.000476206	-0.000808425	-2.04699e-05
  97	0.000196203	-5.73504e-05	-0.000376032
  98	-0.000607582	-0.000450462	0.000711267
  99	-0.000561397	-7.92693e-05	0.00020944
 100	0.000136314	-0.00076935	-0.000162197
 101	0.000363713	0.000120469	-0.000102627
 102	0.000737349	0.000140949	0.000310367
 103	-8.21502e-05	-0.000432521	-0.000503551
 104	-0.000883331	-0.00150557	0.000295274
 105	0.00107477	-0.000236682	-0.000448812
 106	-0.000216491	-0.000383476	-0.000585819
 107	0.00125746	-0.000412889	6.86855e-05
 108	-0.000855048	-0.000959691	8.66801e-05
 109	-0.000248786	-1.62409e-05	-0.000205224
 110	-0.000297916	-0.000534314	-0.000312952
 111	-0.00022223	-0.00111018	1.97163e-05
 112	-0.000147552	-0.000606912	0.000129757
 113	-0.00032348	-0.00106521	-0.000182051
 114	0.000106192	0.000274287	-0.000331583
 115	-0.000426531	-0.000675963	-0.000641108
 116	-0.000216694	4.14564e-05	2.88582e-05
 117	0.000259898	-0.000529109	0.00032282
 118	-0.000299952	-0.000501409	-0.000517026
 119	-0.000255918	-0.000420661	-0.000669976
 120	-0.000152418	-0.000170899	-0.000576638
 121	-0.000373634	-0.000555625	-0.000658842
 122	-3.33265e-05	-0.000239398	-0.000503419
 123	-9.7336e-05	-8.69701e-05	-0.000473183
 124	0.000248025	0.000214948	-0.000246501
 125	-4.84689e-05	0.000339475	0.000148614
 126	0.000140707	-0.000929687	0.000294546
 127	0.000837921	0.000946445	0.000433581
 128	0.000641695	0.000594052	0.000141066
 129	0.000762938	0.000644574	0.000436571
 130	0.000755418	0.000909825	0.000306059
 131	0.000718291	0.00035367	0.00031351
 132	0.000777345	0.000478284	0.000186802
 133	-0.000270655	0.000280951	-0.000265323
 134	-0.000194089	-0.00154222	8.3744e-05
 135	-0.000373935	-0.00146689	-0.000253011
 136	0.000402338	0.000792563	-3.67047e-05
 137	-0.000477166	-0.000767178	-0.000657512
 138	-0.000368835	-0.000493182	-0.000614655
 139	0.000170715	0.000287077	-0.000266327
 140	-0.000229269	0.00188004	0.000445355
 141	0.000873473	0.00106443	0.000525527
 142	0.000805104	0.000629594	0.000529893
 143	0.000680853	0.00100621	0.000290157
 144	0.000722367	0.000256978	7.15453e-05
 145	-0.000258889	0.000553395	-0.000596944
 146	-0.000308704	-0.000119992	-0.000987471
 147	-0.000165138	-0.000246796	-0.00123857
 148	-0.000183627	3.31745e-05	-0.00111197
 149	-0.000182069	-0.0004344	-0.00131423
 150	-0.00108706	0.00174301	0.000216196
 151	0.000101712	-0.000282286	-0.000585302
 152	-0.000262005	0.000355429	-0.000820015
 153	-0.000284803	0.000572054	-0.000810906
 154	-0.000313929	3.36542e-05	-0.000736159
 155	-0.000346401	0.00126629	-5.51693e-05
 156	-0.000740398	0.00136728	-0.000157355
 157	0.000160961	0.000257923	-0.000243714
 158	-0.000288059	0.00130387	0.000407272
 159	-0.000717482	0.000472998	-0.000488477
 160	-0.000588055	0.00128447	0.000522718
 161	-0.000309195	0.000587322	-0.000698516
 162	-0.000216349	0.000180649	-0.00103767
 163	0.000131256	5.69805e-05	0.000586381
 164	-0.000134305	0.000445607	0.000682562
 165	0.000384405	-0.00042709	0.000508021
 166	-0.000167151	0.000573191	0.000681078
 167	0.000423133	-0.000570671	0.00045978
 168	0.000371334	-0.000505562	0.000582222
 169	-0.00017471	0.0012302	-6.48918e-05
 170	-0.000137763	-0.000338482	-0.00134281
 171	-0.000126545	-0.000720696	-0.00146444
 172	-0.00151058	0.00150257	0.000280349
 173	0.000413488	-0.00112329	-0.00070616
 174	0.000533053	-0.000296211	-0.000122936
 175	-0.00110083	5.20623e-05	-0.000533972
 176	-0.000434582	0.000117623	-0.00111494
 177	6.19259e-05	0.000273393	0.000589257
 178	0.000531687	-0.000724414	0.000441043
 179	-0.000412304	0.00111013	0.000794647
 180	0.000557181	-0.000853066	0.000535528
 181	-0.000440985	0.000420661	0.000463568
 182	-0.000351215	0.000139397	0.00019092
 183	-0.00146438	-0.000421663	0.000319893
 184	-0.00108271	0.000175739	0.000426141
 185	-0.00111922	-0.000421979	0.000287372
 186	7.45722e-05	0.000922121	-0.000687354
 187	0.000341451	0.000335779	-0.000320946
 188	-0.000802772	0.000410426	0.000482638
 189	0.000233351	0.00111892	0.000401736
 190	0.000241192	0.00046174	-0.00014807
 191	0.000241913	0.000800094	-0.000509305
 192	0.000164118	0.001108	-0.000542621
 193	0.000325274	0.000526548	-0.000418346
 194	0.00017915	0.000342195	-0.000521843
 195	0.000221177	0.000860453	-0.000335401
 196	0.000124536	0.000345049	-0.000689747
 197	3.04635e-07	0.00106631	0.000373215
 198	-0.000445397	0.000672067	0.000434509
 199	2.2881e-06	-0.000667887	-0.00103915
 200	3.7802e-05	-0.000221656	-0.000932044
 201	-0.000305447	0.000466427	-0.000680746
 202	0.000244041	-0.00143846	-0.00132037
 203	-0.000237593	0.000548869	-0.000722025
 204	-0.000175846	0.000623401	-0.000716046
 205	0.000123774	0.00075902	0.00067104