pySIMM System Object

650 atoms
739 bonds
1224 angles
1940 dihedrals
216 impropers

10 atom types
15 bond types
26 angle types
12 dihedral types
2 improper types

-129.600166 129.600166 xlo xhi
-129.600166 129.600166 ylo yhi
-129.600166 129.600166 zlo zhi

Masses

   1	12.01	# ca
   2	12.01	# cp
   3	14.01	# na
   4	12.01	# cc
   5	14.01	# nc
   6	12.01	# cd
   7	14.01	# nd
   8	1.008	# ha
   9	1.008	# hn
  10	1.008	# h5

Pair Coeffs

   1	0.086	3.3996695084235347	# ca
   2	0.086	3.3996695084235347	# cp
   3	0.17	3.249998523775958	# na
   4	0.086	3.3996695084235347	# cc
   5	0.17	3.249998523775958	# nc
   6	0.086	3.3996695084235347	# cd
   7	0.17	3.249998523775958	# nd
   8	0.015	2.59964245953351	# ha
   9	0.0157	1.069078461768407	# hn
  10	0.015	2.421462715905442	# h5

Bond Coeffs

   1	425.8	1.3802	# cd,na
   2	525.4	1.3172	# cc,nd
   3	345.8	1.086	# ca,ha
   4	351.4	1.4854	# cp,cp
   5	467.7	1.3517	# ca,nc
   6	385.1	1.4555	# ca,cd
   7	467.7	1.3517	# ca,nd
   8	525.4	1.3172	# cd,nc
   9	450.2	1.4058	# ca,cp
  10	425.8	1.3802	# cc,na
  11	420.5	1.384	# ca,na
  12	351.7	1.0819	# cc,h5
  13	461.1	1.3984	# ca,ca
  14	408.4	1.01	# hn,na
  15	385.1	1.4555	# ca,cc

Angle Coeffs

   1	48.18	119.88	# ca,ca,ha
   2	66.28	123.45	# ca,cd,na
   3	64.05	121.11	# ca,cp,cp
   4	46.75	125.5	# cc,na,hn
   5	67.6	123.24	# ca,cd,nc
   6	46.75	125.5	# cd,na,hn
   7	72.48	104.88	# ca,nc,cd
   8	74.9	112.22	# na,cd,nc
   9	66.62	120.02	# ca,ca,ca
  10	46.63	125.54	# ca,na,hn
  11	65.02	120.79	# ca,ca,cd
  12	47.98	119.86	# cp,ca,ha
  13	69.46	119.72	# ca,ca,nc
  14	72.48	104.88	# ca,nd,cc
  15	69.08	118.34	# ca,ca,na
  16	66.72	118.38	# ca,cp,ca
  17	69.46	119.72	# ca,ca,nd
  18	74.9	112.22	# na,cc,nd
  19	67.4	113.15	# ca,na,cc
  20	66.26	120.69	# ca,ca,cp
  21	50.58	125.52	# h5,cc,nd
  22	67.4	113.15	# ca,na,cd
  23	49.58	121.55	# h5,cc,na
  24	66.28	123.45	# ca,cc,na
  25	67.6	123.24	# ca,cc,nd
  26	65.02	120.79	# ca,ca,cc

Dihedral Coeffs

   1	1	4.8	2	180	# X,ca,nc,X
   2	1	4.8	2	180	# X,ca,nd,X
   3	1	4.0	2	180	# X,ca,cd,X
   4	1	4.75	2	180	# X,cd,nc,X
   5	1	4.75	2	180	# X,cc,nd,X
   6	1	1.7	2	180	# X,cc,na,X
   7	1	1.0	2	180	# X,cp,cp,X
   8	1	3.625	2	180	# X,ca,cp,X
   9	1	0.3	2	180	# X,ca,na,X
  10	1	1.7	2	180	# X,cd,na,X
  11	1	3.625	2	180	# X,ca,ca,X
  12	1	4.0	2	180	# X,ca,cc,X

Improper Coeffs

   1	1.1	-1	2	# na,X,X,hn
   2	1.1	-1	2	# ca,X,X,ha

Atoms

   1	1	1	-0.155485	1.56466	43.0357	-25.0587
   2	1	2	-0.03785	2.97007	42.8521	-25.1328
   3	1	1	-0.234781	2.93912	42.1492	-22.7458
   4	1	1	0.378053	1.54543	42.2852	-22.747
   5	1	1	-0.208553	3.64691	42.4332	-23.9443
   6	1	3	-0.411858	6.85405	43.9434	-28.2029
   7	1	1	-0.147234	2.93575	42.8628	-27.6689
   8	1	1	0.107751	0.911823	42.7363	-23.8682
   9	1	4	0.626409	-0.548386	42.1665	-22.3563
  10	1	2	0.00453	3.66662	43.0419	-26.4524
  11	1	1	0.356173	4.85871	43.4466	-28.9764
  12	1	1	0.030551	5.59073	43.5818	-27.8278
  13	1	1	-0.286062	3.51916	43.0748	-28.9326
  14	1	5	-0.595919	5.57779	43.7225	-30.0786
  15	1	1	-0.206338	5.04321	43.3976	-26.5481
  16	1	6	0.462884	6.7904	44.033	-29.5995
  17	1	3	-0.691987	-0.421549	42.7133	-23.6364
  18	1	7	-0.710982	0.653104	41.9517	-21.7802
  19	1	1	-0.062645	8.74503	44.9795	-32.7088
  20	1	1	0.026743	7.91046	44.4412	-30.4684
  21	1	1	-0.399843	10.0143	45.248	-32.1746
  22	1	1	-0.107518	7.70554	44.5729	-31.859
  23	1	1	0.292439	10.2414	45.1137	-30.7989
  24	1	1	-0.410418	9.19661	44.7191	-29.9497
  25	1	8	0.148547	0.989444	43.3776	-25.91
  26	1	8	0.179912	3.44296	41.7821	-21.858
  27	1	8	0.155197	4.7212	42.2741	-23.9693
  28	1	9	0.340258	7.64653	44.142	-27.6201
  29	1	8	0.137111	1.90009	42.5417	-27.6405
  30	1	8	0.181656	2.95824	42.9557	-29.8534
  31	1	8	0.164633	5.64545	43.5491	-25.6596
  32	1	9	0.430928	-1.16023	42.9208	-24.28
  33	1	8	0.141007	8.56098	45.0853	-33.7758
  34	1	8	0.203537	10.8264	45.5602	-32.8237
  35	1	8	0.116715	6.72626	44.3717	-32.2866
  36	1	8	0.18244	9.40192	44.6226	-28.8909
  37	1	1	-0.155485	-2.74674	40.4052	-12.2533
  38	1	2	-0.03785	-3.33106	39.2458	-12.8203
  39	1	1	-0.234781	-3.08228	38.0802	-10.6542
  40	1	1	0.378053	-2.47918	39.2347	-10.1445
  41	1	1	-0.208553	-3.52548	38.0982	-11.9984
  42	1	3	-0.411858	-2.52248	40.2211	-17.6655
  43	1	1	-0.147234	-5.0319	38.9342	-14.6688
  44	1	1	0.107751	-2.36387	40.359	-10.9145
  45	1	4	0.626409	-1.38021	40.6496	-8.99746
  46	1	2	0.00453	-3.70792	39.2574	-14.2595
  47	1	1	0.356173	-4.48722	39.5295	-16.9372
  48	1	1	0.030551	-3.1956	39.7813	-16.5617
  49	1	1	-0.286062	-5.43478	39.0814	-16.0141
  50	1	5	-0.595919	-4.69669	39.8362	-18.2302
  51	1	1	-0.206338	-2.76582	39.6808	-15.2351
  52	1	6	0.462884	-3.50403	40.2815	-18.6582
  53	1	3	-0.691987	-1.72824	41.3102	-10.1799
  54	1	7	-0.710982	-1.8746	39.3972	-8.94823
  55	1	1	-0.062645	-4.29864	41.5733	-22.1113
  56	1	1	0.026743	-3.29804	40.8367	-20.0094
  57	1	1	-0.399843	-3.04153	41.9828	-22.5685
  58	1	1	-0.107518	-4.41913	40.9914	-20.8479
  59	1	1	0.292439	-1.87646	41.8047	-21.7837
  60	1	1	-0.410418	-2.02788	41.2451	-20.4919
  61	1	8	0.148547	-2.59776	41.3007	-12.8467
  62	1	8	0.179912	-3.16723	37.1942	-10.0342
  63	1	8	0.155197	-3.97375	37.2059	-12.43
  64	1	9	0.340258	-1.56766	40.5245	-17.7389
  65	1	8	0.137111	-5.75883	38.6272	-13.9211
  66	1	8	0.181656	-6.45523	38.8946	-16.3303
  67	1	8	0.164633	-1.7486	39.9319	-14.9534
  68	1	9	0.430928	-1.40089	42.2063	-10.4857
  69	1	8	0.141007	-5.18235	41.6995	-22.7333
  70	1	8	0.203537	-2.97978	42.4134	-23.5599
  71	1	8	0.116715	-5.40489	40.685	-20.5075
  72	1	8	0.18244	-1.13777	41.1111	-19.8844
  73	1	1	-0.155485	3.96377	34.9728	-0.824703
  74	1	2	-0.03785	3.46296	35.1162	-2.14593
  75	1	1	-0.234781	2.70733	32.756	-2.08527
  76	1	1	0.378053	3.15203	32.6871	-0.765559
  77	1	1	-0.208553	2.87822	33.9753	-2.77685
  78	1	3	-0.411858	1.34327	38.6157	-5.00682
  79	1	1	-0.147234	4.34658	37.497	-2.46033
  80	1	1	0.107751	3.80636	33.7406	-0.190292
  81	1	4	0.626409	3.43987	32.1726	1.27232
  82	1	2	0.00453	3.4129	36.4666	-2.78942
  83	1	1	0.356173	3.14561	39.0747	-3.83115
  84	1	1	0.030551	2.26418	38.0843	-4.16413
  85	1	1	-0.286062	4.21797	38.8074	-2.97722
  86	1	5	-0.595919	2.83327	40.2437	-4.43001
  87	1	1	-0.206338	2.34765	36.7832	-3.67236
  88	1	6	0.462884	1.74819	39.9409	-5.16265
  89	1	3	-0.691987	4.06931	33.412	1.10366
  90	1	7	-0.710982	2.91712	31.7052	0.125548
  91	1	1	-0.062645	1.00367	43.036	-7.21104
  92	1	1	0.026743	1.09897	40.8632	-6.10714
  93	1	1	-0.399843	0.0268555	42.5492	-8.09432
  94	1	1	-0.107518	1.55111	42.1888	-6.23818
  95	1	1	0.292439	-0.449254	41.2217	-7.98995
  96	1	1	-0.410418	0.0633086	40.4137	-6.95594
  97	1	8	0.148547	4.37668	35.8156	-0.283266
  98	1	8	0.179912	2.19481	31.9085	-2.52818
  99	1	8	0.155197	2.50911	34.051	-3.79567
 100	1	9	0.340258	0.585965	38.1542	-5.47833
 101	1	8	0.137111	5.17666	37.2765	-1.79596
 102	1	8	0.181656	4.92103	39.5945	-2.72748
 103	1	8	0.164633	1.58671	36.0544	-3.92678
 104	1	9	0.430928	4.38443	34.0193	1.83507
 105	1	8	0.141007	1.36764	44.0575	-7.30049
 106	1	8	0.203537	-0.355744	43.2087	-8.8644
 107	1	8	0.116715	2.34333	42.5584	-5.59188
 108	1	8	0.18244	-0.291286	39.3899	-6.89369
 109	1	1	-0.155485	-3.71131	26.2825	7.86047
 110	1	2	-0.03785	-3.49092	25.8047	6.54031
 111	1	1	-0.234781	-4.58694	23.6767	7.14326
 112	1	1	0.378053	-4.7186	24.1608	8.44602
 113	1	1	-0.208553	-3.97899	24.5151	6.18389
 114	1	3	-0.411858	0.560149	28.4898	5.46417
 115	1	1	-0.147234	-2.86519	26.6236	4.20312
 116	1	1	0.107751	-4.35102	25.438	8.76863
 117	1	4	0.626409	-4.89039	24.3227	10.5581
 118	1	2	0.00453	-2.61377	26.5647	5.60566
 119	1	1	0.356173	-0.84013	27.8908	3.87134
 120	1	1	0.030551	-0.595144	27.8219	5.21467
 121	1	1	-0.286062	-1.98168	27.2963	3.32629
 122	1	5	-0.595919	0.10984	28.6038	3.23259
 123	1	1	-0.206338	-1.44335	27.1818	6.11521
 124	1	6	0.462884	0.936779	28.9919	4.21824
 125	1	3	-0.691987	-4.53096	25.6006	10.1116
 126	1	7	-0.710982	-5.05468	23.4561	9.54197
 127	1	1	-0.062645	3.72876	31.4301	5.00037
 128	1	1	0.026743	2.04713	29.943	4.03835
 129	1	1	-0.399843	3.94721	32.0029	3.73919
 130	1	1	-0.107518	2.7785	30.4113	5.14883
 131	1	1	0.292439	3.26368	31.5263	2.59676
 132	1	1	-0.410418	2.34306	30.4737	2.76689
 133	1	8	0.148547	-3.34371	27.254	8.17194
 134	1	8	0.179912	-4.87516	22.6571	6.91173
 135	1	8	0.155197	-3.7922	24.1309	5.18379
 136	1	9	0.340258	1.00057	28.661	6.34869
 137	1	8	0.137111	-3.75936	26.1534	3.8021
 138	1	8	0.181656	-2.17159	27.3643	2.26036
 139	1	8	0.164633	-1.19276	27.1273	7.16854
 140	1	9	0.430928	-4.24092	26.3723	10.6816
 141	1	8	0.141007	4.27127	31.7951	5.87009
 142	1	8	0.203537	4.67241	32.8031	3.64491
 143	1	8	0.116715	2.58941	30.0192	6.14211
 144	1	8	0.18244	1.77984	30.1262	1.90144
 145	1	1	-0.155485	-0.795877	14.8233	13.6981
 146	1	2	-0.03785	-1.99034	15.3542	13.1322
 147	1	1	-0.234781	-1.88303	13.6492	11.3452
 148	1	1	0.378053	-0.719756	13.1613	11.9362
 149	1	1	-0.208553	-2.51356	14.7549	11.9487
 150	1	3	-0.411858	-4.35048	19.7386	12.8472
 151	1	1	-0.147234	-2.7061	16.7691	15.1336
 152	1	1	0.107751	-0.19213	13.7332	13.0605
 153	1	4	0.626409	1.03235	12.0459	12.3942
 154	1	2	0.00453	-2.66881	16.5466	13.7247
 155	1	1	0.356173	-3.82543	18.8804	14.8034
 156	1	1	0.030551	-3.83622	18.6416	13.4568
 157	1	1	-0.286062	-3.28356	17.9387	15.6823
 158	1	5	-0.595919	-4.27084	20.1228	15.0947
 159	1	1	-0.206338	-3.26351	17.5124	12.8724
 160	1	6	0.462884	-4.532	20.6509	13.8869
 161	1	3	-0.691987	0.953728	13.05	13.3721
 162	1	7	-0.710982	0.0139925	12.1193	11.5187
 163	1	1	-0.062645	-4.77898	24.3986	14.3834
 164	1	1	0.026743	-4.78417	22.0788	13.6305
 165	1	1	-0.399843	-4.83121	24.8394	13.0488
 166	1	1	-0.107518	-4.74524	23.0249	14.6707
 167	1	1	0.292439	-4.92502	23.9118	11.9865
 168	1	1	-0.410418	-4.94276	22.5409	12.3073
 169	1	8	0.148547	-0.349584	15.2667	14.5813
 170	1	8	0.179912	-2.27507	13.1794	10.4495
 171	1	8	0.155197	-3.42865	15.1417	11.5078
 172	1	9	0.340258	-4.3839	19.941	11.8638
 173	1	8	0.137111	-2.27077	16.0305	15.8005
 174	1	8	0.181656	-3.27739	18.134	16.7488
 175	1	8	0.164633	-3.22538	17.4094	11.7932
 176	1	9	0.430928	1.58851	13.2119	14.1307
 177	1	8	0.141007	-4.71909	25.1176	15.198
 178	1	8	0.203537	-4.81857	25.904	12.8436
 179	1	8	0.116715	-4.63198	22.694	15.7001
 180	1	8	0.18244	-4.98278	21.8333	11.4859
 181	1	1	-0.155485	0.801944	5.1169	3.77567
 182	1	2	-0.03785	0.620437	6.18054	4.7084
 183	1	1	-0.234781	-1.16529	7.10328	3.25064
 184	1	1	0.378053	-0.979975	6.02079	2.40045
 185	1	1	-0.208553	-0.344224	7.18936	4.38904
 186	1	3	-0.411858	1.4979	8.11834	9.19392
 187	1	1	-0.147234	2.63206	5.57939	6.21743
 188	1	1	0.107751	0.000897986	5.09536	2.62537
 189	1	4	0.626409	-1.28488	4.49134	0.970407
 190	1	2	0.00453	1.39147	6.26013	5.99977
 191	1	1	0.356173	2.91413	6.66306	8.364
 192	1	1	0.030551	1.69937	7.25574	8.17793
 193	1	1	-0.286062	3.39628	5.77169	7.39904
 194	1	5	-0.595919	3.52812	7.12638	9.48294
 195	1	1	-0.206338	0.90796	7.08224	7.05027
 196	1	6	0.462884	2.67294	8.0619	9.93734
 197	1	3	-0.691987	-0.107925	4.14061	1.65004
 198	1	7	-0.710982	-1.77874	5.66971	1.3831
 199	1	1	-0.062645	4.18374	9.90427	12.9138
 200	1	1	0.026743	2.89971	9.0097	11.0439
 201	1	1	-0.399843	3.21547	10.9088	13.1202
 202	1	1	-0.107518	4.03283	8.96712	11.8742
 203	1	1	0.292439	2.08495	10.9974	12.2777
 204	1	1	-0.410418	1.95471	10.0316	11.2639
 205	1	8	0.148547	1.5045	4.31467	3.96519
 206	1	8	0.179912	-1.949	7.82584	3.04953
 207	1	8	0.155197	-0.483668	8.04894	5.03411
 208	1	9	0.340258	0.730391	8.75124	9.33155
 209	1	8	0.137111	3.03395	4.93686	5.44127
 210	1	8	0.181656	4.36094	5.29642	7.53795
 211	1	8	0.164633	-0.0384127	7.60287	6.98976
 212	1	9	0.430928	0.336348	3.24189	1.6285
 213	1	8	0.141007	5.06004	9.85025	13.5567
 214	1	8	0.203537	3.35698	11.6283	13.9189
 215	1	8	0.116715	4.78654	8.19891	11.7195
 216	1	8	0.18244	1.09016	10.1116	10.6164
 217	1	1	-0.155485	-10.3594	2.48466	4.87619
 218	1	2	-0.03785	-9.86176	3.45765	3.96477
 219	1	1	-0.234781	-10.6588	5.24434	5.48992
 220	1	1	0.378053	-11.137	4.25458	6.34655
 221	1	1	-0.208553	-10.0219	4.83774	4.2977
 222	1	3	-0.411858	-6.2536	3.93596	0.561206
 223	1	1	-0.147234	-9.39341	1.80181	2.06726
 224	1	1	0.107751	-10.9858	2.93026	6.04355
 225	1	4	0.626409	-12.0181	3.17979	7.95305
 226	1	2	0.00453	-9.13737	3.04852	2.71698
 227	1	1	0.356173	-7.59433	2.19484	0.508286
 228	1	1	0.030551	-7.38751	3.41498	1.09024
 229	1	1	-0.286062	-8.62238	1.3657	0.9633
 230	1	5	-0.595919	-6.60275	1.87463	-0.353155
 231	1	1	-0.206338	-8.10678	3.87251	2.19453
 232	1	6	0.462884	-5.74522	2.90073	-0.224638
 233	1	3	-0.691987	-11.5332	2.20939	7.06404
 234	1	7	-0.710982	-11.7725	4.42835	7.52044
 235	1	1	-0.062645	-2.36295	1.46175	-1.1004
 236	1	1	0.026743	-4.31049	2.82001	-0.548698
 237	1	1	-0.399843	-1.53042	2.37979	-0.434041
 238	1	1	-0.107518	-3.75254	1.66467	-1.12482
 239	1	1	0.292439	-2.06192	3.57601	0.0949761
 240	1	1	-0.410418	-3.43967	3.81831	-0.0679152
 241	1	8	0.148547	-10.2356	1.42405	4.69122
 242	1	8	0.179912	-10.7828	6.29025	5.74899
 243	1	8	0.155197	-9.66044	5.6032	3.61735
 244	1	9	0.340258	-5.72779	4.71871	0.907075
 245	1	8	0.137111	-10.1761	1.15187	2.44578
 246	1	8	0.181656	-8.76353	0.386844	0.518431
 247	1	8	0.164633	-7.82423	4.79857	2.68229
 248	1	9	0.430928	-11.536	1.21614	7.1872
 249	1	8	0.141007	-1.9475	0.549093	-1.52252
 250	1	8	0.203537	-0.470369	2.16896	-0.341412
 251	1	8	0.116715	-4.40251	0.889814	-1.52358
 252	1	8	0.18244	-3.84546	4.71755	0.38184
 253	1	1	-0.155485	-15.427	-6.65915	13.187
 254	1	2	-0.03785	-14.4943	-5.9429	12.3875
 255	1	1	-0.234781	-13.4866	-8.1055	11.7109
 256	1	1	0.378053	-14.3922	-8.75576	12.5549
 257	1	1	-0.208553	-13.5392	-6.69228	11.6349
 258	1	3	-0.411858	-13.6049	-1.25062	10.6759
 259	1	1	-0.147234	-14.9347	-3.78429	13.6169
 260	1	1	0.107751	-15.3265	-8.04521	13.2516
 261	1	4	0.626409	-15.4536	-10.1577	13.7592
 262	1	2	0.00453	-14.48	-4.44359	12.4345
 263	1	1	0.356173	-14.4789	-1.64025	12.6551
 264	1	1	0.030551	-14.0118	-2.24699	11.5208
 265	1	1	-0.286062	-14.9478	-2.38332	13.7317
 266	1	5	-0.595919	-14.409	-0.302338	12.5857
 267	1	1	-0.206338	-13.9949	-3.64188	11.3597
 268	1	6	0.462884	-13.8722	-0.0687005	11.3815
 269	1	3	-0.691987	-16.0295	-8.91339	14.0294
 270	1	7	-0.710982	-14.4689	-10.0718	12.8415
 271	1	1	-0.062645	-13.7708	3.70871	11.2867
 272	1	1	0.026743	-13.6067	1.29971	10.8984
 273	1	1	-0.399843	-13.1351	3.9484	10.0635
 274	1	1	-0.107518	-13.995	2.39245	11.7007
 275	1	1	0.292439	-12.7136	2.88731	9.23433
 276	1	1	-0.410418	-12.9691	1.56026	9.66192
 277	1	8	0.148547	-16.1916	-6.15139	13.7617
 278	1	8	0.179912	-12.7402	-8.68116	11.1737
 279	1	8	0.155197	-12.8011	-6.17102	11.0316
 280	1	9	0.340258	-13.2348	-1.33488	9.74774
 281	1	8	0.137111	-15.2579	-4.36441	14.4743
 282	1	8	0.181656	-15.2918	-1.88294	14.63
 283	1	8	0.164633	-13.6347	-4.09315	10.4416
 284	1	9	0.430928	-16.7847	-8.71608	14.6575
 285	1	8	0.141007	-14.0862	4.53775	11.9169
 286	1	8	0.203537	-12.9539	4.97407	9.74821
 287	1	8	0.116715	-14.4873	2.22472	12.6552
 288	1	8	0.18244	-12.6569	0.73305	9.03874
 289	1	1	-0.155485	-12.5987	-19.9137	9.41251
 290	1	2	-0.03785	-12.3249	-18.7316	10.1547
 291	1	1	-0.234781	-10.0553	-18.6542	9.17233
 292	1	1	0.378053	-10.3471	-19.8456	8.51652
 293	1	1	-0.208553	-11.057	-18.0968	9.98712
 294	1	3	-0.411858	-14.2018	-15.0487	12.881
 295	1	1	-0.147234	-14.1033	-19.0273	11.9846
 296	1	1	0.107751	-11.5909	-20.4145	8.57901
 297	1	4	0.626409	-10.1537	-21.7872	7.70348
 298	1	2	0.00453	-13.2747	-18.1903	11.174
 299	1	1	0.356173	-14.8497	-17.1137	13.2596
 300	1	1	0.030551	-14.0615	-16.3248	12.4704
 301	1	1	-0.286062	-14.8987	-18.4935	13.0313
 302	1	5	-0.595919	-15.5292	-16.3786	14.1735
 303	1	1	-0.206338	-13.2802	-16.7987	11.4255
 304	1	6	0.462884	-15.1456	-15.1178	13.8998
 305	1	3	-0.691987	-11.5271	-21.6157	7.92866
 306	1	7	-0.710982	-9.45072	-20.6737	7.96171
 307	1	1	-0.062645	-17.2625	-12.7289	15.9539
 308	1	1	0.026743	-15.6999	-13.891	14.4905
 309	1	1	-0.399843	-16.8775	-11.4949	15.3975
 310	1	1	-0.107518	-16.684	-13.923	15.4934
 311	1	1	0.292439	-15.8779	-11.4317	14.3992
 312	1	1	-0.410418	-15.2869	-12.6381	13.9898
 313	1	8	0.148547	-13.5393	-20.4405	9.52625
 314	1	8	0.179912	-9.05299	-18.2408	9.12916
 315	1	8	0.155197	-10.8073	-17.2175	10.5738
 316	1	9	0.340258	-13.7973	-14.218	12.4874
 317	1	8	0.137111	-14.0967	-20.1012	11.8228
 318	1	8	0.181656	-15.524	-19.1234	13.6547
 319	1	8	0.164633	-12.6885	-16.1126	10.8302
 320	1	9	0.430928	-12.2054	-22.3525	7.96094
 321	1	8	0.141007	-18.0271	-12.7675	16.7271
 322	1	8	0.203537	-17.354	-10.5876	15.7501
 323	1	8	0.116715	-17.0101	-14.8762	15.9023
 324	1	8	0.18244	-14.5288	-12.5776	13.217
 325	1	1	-0.155485	-2.09924	-26.1796	13.9852
 326	1	2	-0.03785	-2.08157	-26.4271	12.5924
 327	1	1	-0.234781	0.00399477	-27.7294	12.8764
 328	1	1	0.378053	-0.0149628	-27.4016	14.2369
 329	1	1	-0.208553	-1.04555	-27.2452	12.0552
 330	1	3	-0.411858	-5.66476	-25.8839	9.08214
 331	1	1	-0.147234	-3.16501	-24.2712	11.9121
 332	1	1	0.107751	-1.07156	-26.7087	14.7602
 333	1	4	0.626409	0.587401	-26.7316	16.1578
 334	1	2	0.00453	-3.03072	-25.6781	11.7222
 335	1	1	0.356173	-4.81794	-24.1717	10.1809
 336	1	1	0.030551	-4.71348	-25.525	9.9974
 337	1	1	-0.286062	-4.0538	-23.5048	11.135
 338	1	5	-0.595919	-5.77667	-23.6327	9.41555
 339	1	1	-0.206338	-3.82286	-26.3203	10.7328
 340	1	6	0.462884	-6.32303	-24.6828	8.78648
 341	1	3	-0.691987	-0.76209	-26.3842	16.0357
 342	1	7	-0.710982	1.01139	-27.4755	15.1188
 343	1	1	-0.062645	-9.62125	-25.5229	7.0948
 344	1	1	0.026743	-7.58931	-24.556	8.03908
 345	1	1	-0.399843	-10.2356	-24.2577	7.10317
 346	1	1	-0.107518	-8.31105	-25.6754	7.58152
 347	1	1	0.292439	-9.51363	-23.1117	7.5021
 348	1	1	-0.410418	-8.17553	-23.2833	7.89805
 349	1	8	0.148547	-2.8482	-25.5287	14.4245
 350	1	8	0.179912	0.862212	-28.2452	12.4603
 351	1	8	0.155197	-1.00412	-27.4074	10.9809
 352	1	9	0.340258	-5.93762	-26.8088	8.80253
 353	1	8	0.137111	-2.56544	-23.7738	12.6699
 354	1	8	0.181656	-4.18218	-22.4373	11.2833
 355	1	8	0.164633	-3.76716	-27.3941	10.5873
 356	1	9	0.430928	-1.29501	-25.8177	16.6643
 357	1	8	0.141007	-10.1812	-26.3975	6.77036
 358	1	8	0.203537	-11.2663	-24.1595	6.77877
 359	1	8	0.116715	-7.89001	-26.6721	7.66065
 360	1	8	0.18244	-7.63409	-22.4116	8.26291
 361	1	1	-0.155485	-1.46033	-18.5392	15.6475
 362	1	2	-0.03785	-1.50202	-18.067	16.9804
 363	1	1	-0.234781	-2.40691	-15.918	16.1623
 364	1	1	0.378053	-2.27202	-16.3995	14.8544
 365	1	1	-0.208553	-2.00244	-16.7579	17.2302
 366	1	3	-0.411858	-0.115344	-22.4387	18.6793
 367	1	1	-0.147234	0.432605	-18.402	18.5673
 368	1	1	0.107751	-1.86109	-17.6832	14.6289
 369	1	4	0.626409	-1.56115	-16.47	12.8525
 370	1	2	0.00453	-0.781881	-18.8813	17.9955
 371	1	1	0.356173	1.06553	-20.6532	19.166
 372	1	1	0.030551	-0.154612	-21.0882	18.7222
 373	1	1	-0.286062	1.37015	-19.2882	19.152
 374	1	5	-0.595919	1.92642	-21.6842	19.3467
 375	1	1	-0.206338	-1.08696	-20.2574	18.1021
 376	1	6	0.462884	1.21678	-22.7531	18.9482
 377	1	3	-0.691987	-1.51092	-17.7845	13.3255
 378	1	7	-0.710982	-2.1712	-15.654	13.7316
 379	1	1	-0.062645	3.69699	-25.4643	17.9862
 380	1	1	0.026743	1.78479	-24.055	18.5455
 381	1	1	-0.399843	2.86258	-26.3068	17.2279
 382	1	1	-0.107518	3.1647	-24.322	18.6104
 383	1	1	0.292439	1.47652	-26.0654	17.1486
 384	1	1	-0.410418	0.951081	-24.9918	17.8988
 385	1	8	0.148547	-0.98391	-19.4846	15.4106
 386	1	8	0.179912	-2.66994	-14.8785	16.3256
 387	1	8	0.155197	-1.99221	-16.3716	18.2467
 388	1	9	0.340258	-0.796358	-23.0458	18.2687
 389	1	8	0.137111	0.703743	-17.3585	18.4255
 390	1	8	0.181656	2.35215	-18.9498	19.4648
 391	1	8	0.164633	-1.96045	-20.6668	17.6046
 392	1	9	0.430928	-0.948847	-18.5059	12.9128
 393	1	8	0.141007	4.76974	-25.6444	18.0185
 394	1	8	0.203537	3.29025	-27.124	16.6509
 395	1	8	0.116715	3.83209	-23.6123	19.0931
 396	1	8	0.18244	-0.104414	-24.786	17.8306
 397	1	1	-0.155485	2.39793	-19.3227	6.39385
 398	1	2	-0.03785	2.6256	-18.2553	5.48601
 399	1	1	-0.234781	4.71949	-19.3395	4.75949
 400	1	1	0.378053	4.47396	-20.3514	5.69251
 401	1	1	-0.208553	3.79376	-18.2739	4.67317
 402	1	3	-0.411858	1.76615	-14.3312	8.04439
 403	1	1	-0.147234	0.360031	-17.1291	5.475
 404	1	1	0.107751	3.34598	-20.3429	6.46355
 405	1	4	0.626409	4.57186	-22.089	6.92329
 406	1	2	0.00453	1.77272	-17.047	5.62134
 407	1	1	0.356173	0.0960451	-15.2248	6.92516
 408	1	1	0.030551	1.45889	-15.051	6.9368
 409	1	1	-0.286062	-0.492904	-16.2048	6.11996
 410	1	5	-0.595919	-0.472248	-14.7342	8.0485
 411	1	1	-0.206338	2.32847	-15.9522	6.32057
 412	1	6	0.462884	0.5982	-14.4267	8.79649
 413	1	3	-0.691987	3.38805	-21.4313	7.28582
 414	1	7	-0.710982	5.24827	-21.4157	5.97323
 415	1	1	-0.062645	2.04537	-15.7837	11.9696
 416	1	1	0.026743	0.659912	-14.7824	10.226
 417	1	1	-0.399843	0.895211	-16.3036	12.5695
 418	1	1	-0.107518	1.92537	-15.011	10.8113
 419	1	1	0.292439	-0.393002	-15.9552	12.1044
 420	1	1	-0.410418	-0.497868	-15.1721	10.9384
 421	1	8	0.148547	1.54938	-19.303	7.07001
 422	1	8	0.179912	5.61885	-19.3721	4.15384
 423	1	8	0.155197	3.9878	-17.4414	4.00058
 424	1	9	0.340258	2.68547	-14.2304	8.43235
 425	1	8	0.137111	-0.0688903	-18.0025	4.99057
 426	1	8	0.181656	-1.5627	-16.3762	6.17514
 427	1	8	0.164633	3.38697	-15.9488	6.56244
 428	1	9	0.430928	2.66761	-21.7738	7.89216
 429	1	8	0.141007	3.0293	-16.0149	12.3732
 430	1	8	0.203537	0.994557	-16.9037	13.4703
 431	1	8	0.116715	2.839	-14.7019	10.3165
 432	1	8	0.18244	-1.48162	-14.985	10.5136
 433	1	1	-0.155485	7.40661	-24.7903	-0.351695
 434	1	2	-0.03785	7.69793	-26.08	0.173179
 435	1	1	-0.234781	7.12173	-27.0719	-2.01295
 436	1	1	0.378053	6.83484	-25.7868	-2.48441
 437	1	1	-0.208553	7.54836	-27.2152	-0.671466
 438	1	3	-0.411858	6.89427	-27.0239	5.00739
 439	1	1	-0.147234	9.20445	-25.3696	2.03945
 440	1	1	0.107751	6.98404	-24.6924	-1.6798
 441	1	4	0.626409	6.22156	-24.1046	-3.6438
 442	1	2	0.00453	8.13575	-26.1948	1.59403
 443	1	1	0.356173	8.59219	-25.794	4.31519
 444	1	1	0.030551	7.66462	-26.7207	3.9138
 445	1	1	-0.286062	9.43678	-25.1562	3.41006
 446	1	5	-0.595919	8.35733	-25.366	5.56326
 447	1	1	-0.206338	7.3758	-26.9225	2.55349
 448	1	6	0.462884	7.26407	-26.0442	5.93534
 449	1	3	-0.691987	6.62199	-23.5891	-2.40115
 450	1	7	-0.710982	6.3635	-25.4419	-3.69911
 451	1	1	-0.062645	4.33109	-25.6275	8.32061
 452	1	1	0.026743	6.27442	-25.4673	6.85816
 453	1	1	-0.399843	4.11892	-24.2415	8.20302
 454	1	1	-0.107518	5.34791	-26.2476	7.57372
 455	1	1	0.292439	4.95076	-23.4582	7.36977
 456	1	1	-0.410418	6.09475	-24.0716	6.82819
 457	1	8	0.148547	7.48735	-23.9069	0.27377
 458	1	8	0.179912	7.00578	-27.9248	-2.67257
 459	1	8	0.155197	7.78049	-28.2027	-0.280357
 460	1	9	0.340258	6.0038	-27.4881	4.99323
 461	1	8	0.137111	9.7796	-24.8069	1.30893
 462	1	8	0.181656	10.1432	-24.4115	3.75997
 463	1	8	0.164633	6.51071	-27.5005	2.24469
 464	1	9	0.430928	6.47135	-22.658	-2.06165
 465	1	8	0.141007	3.66347	-26.2327	8.93119
 466	1	8	0.203537	3.26588	-23.7934	8.70021
 467	1	8	0.116715	5.45274	-27.3282	7.60039
 468	1	8	0.18244	6.74478	-23.4755	6.18978
 469	1	1	-0.155485	8.55588	-14.5324	-6.72208
 470	1	2	-0.03785	7.23565	-14.2674	-6.2752
 471	1	1	-0.234781	7.84927	-11.9034	-5.91157
 472	1	1	0.378053	9.14498	-12.2123	-6.33595
 473	1	1	-0.208553	6.88684	-12.9403	-5.89604
 474	1	3	-0.411858	5.82128	-18.8874	-5.03301
 475	1	1	-0.147234	5.11342	-15.3892	-7.06883
 476	1	1	0.107751	9.46569	-13.4751	-6.7494
 477	1	4	0.626409	11.2178	-12.1755	-6.82379
 478	1	2	0.00453	6.25603	-15.3851	-6.22186
 479	1	1	0.356173	4.67193	-17.6821	-6.47739
 480	1	1	0.030551	5.69205	-17.6394	-5.56638
 481	1	1	-0.286062	4.31932	-16.5482	-7.21238
 482	1	5	-0.595919	4.20339	-18.9362	-6.63954
 483	1	1	-0.206338	6.53233	-16.5301	-5.43047
 484	1	6	0.462884	4.94024	-19.6678	-5.78578
 485	1	3	-0.691987	10.7831	-13.4792	-7.09783
 486	1	7	-0.710982	10.2187	-11.3995	-6.36501
 487	1	1	-0.062645	4.42635	-23.2415	-6.89075
 488	1	1	0.026743	4.93546	-21.144	-5.75146
 489	1	1	-0.399843	5.0915	-23.952	-5.88288
 490	1	1	-0.107518	4.32252	-21.8485	-6.80552
 491	1	1	0.292439	5.63758	-23.2994	-4.75705
 492	1	1	-0.410418	5.58237	-21.882	-4.72621
 493	1	8	0.148547	8.84778	-15.5289	-7.03559
 494	1	8	0.179912	7.61694	-10.8946	-5.58728
 495	1	8	0.155197	5.87607	-12.7336	-5.55172
 496	1	9	0.340258	6.5437	-19.2218	-4.42276
 497	1	8	0.137111	4.90236	-14.5144	-7.67815
 498	1	8	0.181656	3.49499	-16.5895	-7.9115
 499	1	8	0.164633	7.40078	-16.5558	-4.78046
 500	1	9	0.430928	11.3179	-14.2261	-7.49564
 501	1	8	0.141007	3.99089	-23.7687	-7.73724
 502	1	8	0.203537	5.14877	-25.037	-5.94421
 503	1	8	0.116715	3.82373	-21.3077	-7.60566
 504	1	8	0.18244	6.02635	-21.3555	-3.89072
 505	1	1	-0.155485	15.4653	-2.76549	-8.63614
 506	1	2	-0.03785	15.8263	-2.8101	-7.27001
 507	1	1	-0.234781	15.747	-0.341803	-7.19184
 508	1	1	0.378053	15.2518	-0.354424	-8.50008
 509	1	1	-0.208553	16.0212	-1.58483	-6.57226
 510	1	3	-0.411858	15.7189	-7.78309	-6.90059
 511	1	1	-0.147234	14.3601	-4.09343	-5.72723
 512	1	1	0.107751	15.2125	-1.52408	-9.2176
 513	1	4	0.626409	13.689	-0.166939	-9.89259
 514	1	2	0.00453	15.5205	-4.07791	-6.55365
 515	1	1	0.356173	14.3004	-6.49027	-5.82015
 516	1	1	0.030551	15.4756	-6.49323	-6.5248
 517	1	1	-0.286062	13.7327	-5.30215	-5.36432
 518	1	5	-0.595919	13.7309	-7.70706	-5.79073
 519	1	1	-0.206338	16.0989	-5.31284	-6.95129
 520	1	6	0.462884	14.5783	-8.47895	-6.48568
 521	1	3	-0.691987	14.3703	-1.32951	-10.2603
 522	1	7	-0.710982	14.3794	0.556037	-8.99538
 523	1	1	-0.062645	14.9249	-12.0391	-7.77026
 524	1	1	0.026743	14.2764	-9.87683	-6.84379
 525	1	1	-0.399843	13.6249	-12.5295	-7.55773
 526	1	1	-0.107518	15.2418	-10.7132	-7.43637
 527	1	1	0.292439	12.6173	-11.7017	-7.00801
 528	1	1	-0.410418	12.9814	-10.3935	-6.63429
 529	1	8	0.148547	15.162	-3.67545	-9.14397
 530	1	8	0.179912	15.7056	0.57471	-6.61351
 531	1	8	0.155197	16.2293	-1.61442	-5.50524
 532	1	9	0.340258	16.4659	-8.13025	-7.47335
 533	1	8	0.137111	13.8712	-3.15303	-5.48312
 534	1	8	0.181656	12.7836	-5.32109	-4.8382
 535	1	8	0.164633	16.9377	-5.33558	-7.63872
 536	1	9	0.430928	14.0078	-2.03872	-10.8651
 537	1	8	0.141007	15.6887	-12.6832	-8.2019
 538	1	8	0.203537	13.3956	-13.5503	-7.84132
 539	1	8	0.116715	16.2509	-10.353	-7.60785
 540	1	8	0.18244	12.2173	-9.74752	-6.20365
 541	1	1	-0.155485	7.65797	-9.4715	-9.94162
 542	1	2	-0.03785	8.64887	-8.59172	-10.4539
 543	1	1	-0.234781	9.84972	-10.585	-11.3557
 544	1	1	0.378053	8.82783	-11.3956	-10.862
 545	1	1	-0.208553	9.74838	-9.18537	-11.1585
 546	1	3	-0.411858	10.2092	-3.81312	-10.6451
 547	1	1	-0.147234	7.24165	-6.51151	-9.90888
 548	1	1	0.107751	7.78376	-10.8339	-10.1864
 549	1	4	0.626409	7.41925	-12.9423	-10.5532
 550	1	2	0.00453	8.488	-7.09777	-10.3082
 551	1	1	0.356173	8.14709	-4.28784	-10.0771
 552	1	1	0.030551	9.33842	-4.83524	-10.4617
 553	1	1	-0.286062	7.06564	-5.11504	-9.78398
 554	1	5	-0.595919	8.20703	-2.93907	-9.99756
 555	1	1	-0.206338	9.56336	-6.20935	-10.5839
 556	1	6	0.462884	9.48016	-2.66477	-10.3217
 557	1	3	-0.691987	6.87588	-11.806	-9.94987
 558	1	7	-0.710982	8.651	-12.724	-11.0505
 559	1	1	-0.062645	10.0694	1.00142	-9.51832
 560	1	1	0.026743	10.1121	-1.33494	-10.2219
 561	1	1	-0.399843	11.4726	1.05822	-9.60495
 562	1	1	-0.107518	9.3968	-0.201865	-9.79223
 563	1	1	0.292439	12.2137	-0.0536879	-10.0545
 564	1	1	-0.410418	11.4993	-1.20982	-10.4405
 565	1	8	0.148547	6.79661	-9.11977	-9.39168
 566	1	8	0.179912	10.6548	-11.0298	-11.9295
 567	1	8	0.155197	10.515	-8.559	-11.5989
 568	1	9	0.340258	11.1935	-3.87375	-10.8163
 569	1	8	0.137111	6.38207	-7.13546	-9.70038
 570	1	8	0.181656	6.12337	-4.68368	-9.46483
 571	1	8	0.164633	10.5422	-6.57295	-10.868
 572	1	9	0.430928	5.9976	-11.7401	-9.46806
 573	1	8	0.141007	9.50833	1.86146	-9.15823
 574	1	8	0.203537	12.0034	1.94904	-9.27595
 575	1	8	0.116715	8.32516	-0.270069	-9.62081
 576	1	8	0.18244	12.0511	-2.08821	-10.7333
 577	1	1	-0.155485	-2.85429	-17.4484	-9.34117
 578	1	2	-0.03785	-2.6653	-16.113	-8.9243
 579	1	1	-0.234781	-4.74566	-16.3009	-7.57179
 580	1	1	0.378053	-4.8139	-17.6564	-7.91991
 581	1	1	-0.208553	-3.65008	-15.5369	-8.06104
 582	1	3	-0.411858	2.12856	-16.2289	-10.2719
 583	1	1	-0.147234	-1.20022	-14.0357	-9.2829
 584	1	1	0.107751	-3.89461	-18.1652	-8.79041
 585	1	4	0.626409	-4.92427	-19.7599	-7.77738
 586	1	2	0.00453	-1.37179	-15.4512	-9.28191
 587	1	1	0.356173	1.11783	-14.2966	-9.90084
 588	1	1	0.030551	0.947476	-15.649	-9.93576
 589	1	1	-0.286062	0.0527712	-13.4498	-9.58167
 590	1	5	-0.595919	2.39865	-13.966	-10.1471
 591	1	1	-0.206338	-0.245557	-16.265	-9.5945
 592	1	6	0.462884	3.00253	-15.1506	-10.3567
 593	1	3	-0.691987	-3.97397	-19.5023	-8.75888
 594	1	7	-0.710982	-5.56117	-18.6469	-7.36247
 595	1	1	-0.062645	6.42316	-16.5791	-11.205
 596	1	1	0.026743	4.44536	-15.2903	-10.5905
 597	1	1	-0.399843	7.21172	-15.4185	-11.1101
 598	1	1	-0.107518	5.04545	-16.5173	-10.9358
 599	1	1	0.292439	6.64556	-14.1967	-10.6937
 600	1	1	-0.410418	5.26143	-14.1593	-10.4516
 601	1	8	0.148547	-2.16205	-17.9585	-9.99683
 602	1	8	0.179912	-5.43939	-15.8972	-6.84235
 603	1	8	0.155197	-3.51344	-14.5219	-7.69762
 604	1	9	0.340258	2.35246	-17.2067	-10.3322
 605	1	8	0.137111	-2.04237	-13.3936	-9.04201
 606	1	8	0.181656	0.201543	-12.3763	-9.56014
 607	1	8	0.164633	-0.269612	-17.345	-9.53768
 608	1	9	0.430928	-3.35427	-20.1732	-9.17389
 609	1	8	0.141007	6.87475	-17.5248	-11.4974
 610	1	8	0.203537	8.27615	-15.4557	-11.3275
 611	1	8	0.116715	4.44674	-17.4169	-11.0379
 612	1	8	0.18244	4.78864	-13.2192	-10.1895
 613	1	1	-0.155485	-0.907862	-25.2175	-12.4317
 614	1	2	-0.03785	0.190546	-25.7658	-11.7196
 615	1	1	-0.234781	1.49749	-25.7997	-13.8187
 616	1	1	0.378053	0.398417	-25.2333	-14.4736
 617	1	1	-0.208553	1.39463	-26.0484	-12.4278
 618	1	3	-0.411858	-2.70326	-25.4215	-7.8518
 619	1	1	-0.147234	0.969143	-24.7837	-9.58038
 620	1	1	0.107751	-0.758781	-24.9689	-13.7936
 621	1	4	0.626409	-0.891641	-24.2526	-15.8326
 622	1	2	0.00453	0.112414	-25.7108	-10.2344
 623	1	1	0.356173	-0.731142	-24.4239	-7.9289
 624	1	1	0.030551	-1.44521	-25.5006	-8.38976
 625	1	1	-0.286062	0.533426	-24.105	-8.42605
 626	1	5	-0.595919	-1.53073	-23.5552	-7.28947
 627	1	1	-0.206338	-1.08097	-26.1318	-9.58523
 628	1	6	0.462884	-2.74308	-24.1303	-7.32808
 629	1	3	-0.691987	-1.60905	-24.3267	-14.6421
 630	1	7	-0.710982	0.327172	-24.7989	-15.7504
 631	1	1	-0.062645	-6.34532	-23.0884	-6.56115