pySIMM System Object

1730 atoms
1969 bonds
3264 angles
5180 dihedrals
576 impropers

10 atom types
15 bond types
26 angle types
12 dihedral types
2 improper types

-181.895464 181.895464 xlo xhi
-181.895464 181.895464 ylo yhi
-181.895464 181.895464 zlo zhi

Masses

   1	12.01	# ca
   2	12.01	# cp
   3	14.01	# na
   4	12.01	# cc
   5	14.01	# nc
   6	12.01	# cd
   7	14.01	# nd
   8	1.008	# ha
   9	1.008	# hn
  10	1.008	# h5

Pair Coeffs

   1	0.086	3.3996695084235347	# ca
   2	0.086	3.3996695084235347	# cp
   3	0.17	3.249998523775958	# na
   4	0.086	3.3996695084235347	# cc
   5	0.17	3.249998523775958	# nc
   6	0.086	3.3996695084235347	# cd
   7	0.17	3.249998523775958	# nd
   8	0.015	2.59964245953351	# ha
   9	0.0157	1.069078461768407	# hn
  10	0.015	2.421462715905442	# h5

Bond Coeffs

   1	425.8	1.3802	# cd,na
   2	525.4	1.3172	# cc,nd
   3	345.8	1.086	# ca,ha
   4	351.4	1.4854	# cp,cp
   5	467.7	1.3517	# ca,nc
   6	385.1	1.4555	# ca,cd
   7	467.7	1.3517	# ca,nd
   8	525.4	1.3172	# cd,nc
   9	450.2	1.4058	# ca,cp
  10	425.8	1.3802	# cc,na
  11	420.5	1.384	# ca,na
  12	351.7	1.0819	# cc,h5
  13	461.1	1.3984	# ca,ca
  14	408.4	1.01	# hn,na
  15	385.1	1.4555	# ca,cc

Angle Coeffs

   1	48.18	119.88	# ca,ca,ha
   2	66.28	123.45	# ca,cd,na
   3	64.05	121.11	# ca,cp,cp
   4	46.75	125.5	# cc,na,hn
   5	67.6	123.24	# ca,cd,nc
   6	46.75	125.5	# cd,na,hn
   7	72.48	104.88	# ca,nc,cd
   8	74.9	112.22	# na,cd,nc
   9	66.62	120.02	# ca,ca,ca
  10	46.63	125.54	# ca,na,hn
  11	65.02	120.79	# ca,ca,cd
  12	47.98	119.86	# cp,ca,ha
  13	69.46	119.72	# ca,ca,nc
  14	72.48	104.88	# ca,nd,cc
  15	69.08	118.34	# ca,ca,na
  16	66.72	118.38	# ca,cp,ca
  17	69.46	119.72	# ca,ca,nd
  18	74.9	112.22	# na,cc,nd
  19	67.4	113.15	# ca,na,cc
  20	66.26	120.69	# ca,ca,cp
  21	50.58	125.52	# h5,cc,nd
  22	67.4	113.15	# ca,na,cd
  23	49.58	121.55	# h5,cc,na
  24	66.28	123.45	# ca,cc,na
  25	67.6	123.24	# ca,cc,nd
  26	65.02	120.79	# ca,ca,cc

Dihedral Coeffs

   1	1	4.8	2	180	# X,ca,nc,X
   2	1	4.8	2	180	# X,ca,nd,X
   3	1	4.0	2	180	# X,ca,cd,X
   4	1	4.75	2	180	# X,cd,nc,X
   5	1	4.75	2	180	# X,cc,nd,X
   6	1	1.7	2	180	# X,cc,na,X
   7	1	1.0	2	180	# X,cp,cp,X
   8	1	3.625	2	180	# X,ca,cp,X
   9	1	0.3	2	180	# X,ca,na,X
  10	1	1.7	2	180	# X,cd,na,X
  11	1	3.625	2	180	# X,ca,ca,X
  12	1	4.0	2	180	# X,ca,cc,X

Improper Coeffs

   1	1.1	-1	2	# na,X,X,hn
   2	1.1	-1	2	# ca,X,X,ha

Atoms

   1	1	1	-0.155485	-9.85342	-60.7718	-37.392
   2	1	2	-0.03785	-10.4229	-62.0635	-37.2212
   3	1	1	-0.234781	-12.6752	-61.0211	-37.1895
   4	1	1	0.378053	-12.0695	-59.7736	-37.3532
   5	1	1	-0.208553	-11.8443	-62.1641	-37.1245
   6	1	3	-0.411858	-9.31874	-66.9324	-37.8871
   7	1	1	-0.147234	-8.23027	-63.1954	-36.5924
   8	1	1	0.107751	-10.7101	-59.6702	-37.45
   9	1	4	0.626409	-11.6472	-57.6998	-37.5787
  10	1	2	0.00453	-9.54719	-63.2789	-37.1392
  11	1	1	0.356173	-7.86969	-65.5429	-36.988
  12	1	1	0.030551	-9.13128	-65.6364	-37.5086
  13	1	1	-0.286062	-7.38413	-64.3237	-36.5145
  14	1	5	-0.595919	-7.22525	-66.7268	-37.0106
  15	1	1	-0.206338	-10.0009	-64.5439	-37.6063
  16	1	6	0.462884	-8.11624	-67.5669	-37.5613
  17	1	3	-0.691987	-10.4062	-58.3515	-37.5997
  18	1	7	-0.710982	-12.668	-58.5653	-37.4319
  19	1	1	-0.062645	-6.32791	-70.9117	-37.6688
  20	1	1	0.026743	-7.85184	-68.9985	-37.8001
  21	1	1	-0.399843	-7.30471	-71.7353	-38.249
  22	1	1	-0.107518	-6.60395	-69.5536	-37.4471
  23	1	1	0.292439	-8.55062	-71.2044	-38.6052
  24	1	1	-0.410418	-8.82322	-69.8467	-38.3833
  25	1	8	0.148547	-8.78247	-60.6378	-37.4922
  26	1	8	0.179912	-13.7543	-61.0902	-37.1059
  27	1	8	0.155197	-12.3035	-63.1365	-36.9709
  28	1	9	0.340258	-10.1281	-67.3503	-38.308
  29	1	8	0.137111	-7.86836	-62.2477	-36.2054
  30	1	8	0.181656	-6.38471	-64.264	-36.0973
  31	1	8	0.164633	-10.9844	-64.6581	-38.048
  32	1	9	0.430928	-9.50131	-57.9321	-37.6967
  33	1	8	0.141007	-5.35815	-71.3188	-37.3903
  34	1	8	0.203537	-7.10104	-72.7869	-38.4249
  35	1	8	0.116715	-5.83871	-68.9259	-36.9977
  36	1	8	0.18244	-9.79576	-69.4661	-38.6701
  37	1	1	-0.155485	-21.1994	-53.3	-37.9641
  38	1	2	-0.03785	-20.416	-52.2821	-37.3539
  39	1	1	-0.234781	-22.4862	-51.2843	-36.4247
  40	1	1	0.378053	-23.216	-52.2986	-37.0452
  41	1	1	-0.208553	-21.0832	-51.2798	-36.5882
  42	1	3	-0.411858	-15.8033	-54.2999	-37.6256
  43	1	1	-0.147234	-18.2486	-51.0015	-37.6542
  44	1	1	0.107751	-22.5871	-53.2598	-37.788
  45	1	4	0.626409	-24.7515	-53.5836	-37.7626
  46	1	2	0.00453	-18.9275	-52.2481	-37.513
  47	1	1	0.356173	-16.1251	-52.1269	-37.7655
  48	1	1	0.030551	-16.7643	-53.33	-37.6331
  49	1	1	-0.286062	-16.8449	-50.9324	-37.7854
  50	1	5	-0.595919	-14.7886	-52.2717	-37.8523
  51	1	1	-0.206338	-18.1556	-53.4435	-37.5101
  52	1	6	0.462884	-14.6008	-53.5974	-37.7599
  53	1	3	-0.691987	-23.5493	-54.096	-38.2739
  54	1	7	-0.710982	-24.5513	-52.4849	-37.0131
  55	1	1	-0.062645	-10.8398	-53.99	-37.9596
  56	1	1	0.026743	-13.2662	-54.2272	-37.7894
  57	1	1	-0.399843	-10.6888	-55.3796	-37.8468
  58	1	1	-0.107518	-12.1191	-53.4219	-37.9303
  59	1	1	0.292439	-11.8132	-56.225	-37.7021
  60	1	1	-0.410418	-13.0943	-55.6269	-37.6765
  61	1	8	0.148547	-20.7386	-54.0712	-38.571
  62	1	8	0.179912	-22.9985	-50.5307	-35.8365
  63	1	8	0.155197	-20.4987	-50.504	-36.0997
  64	1	9	0.340258	-15.9147	-55.2927	-37.5226
  65	1	8	0.137111	-18.8245	-50.0803	-37.6753
  66	1	8	0.181656	-16.3249	-49.9867	-37.8926
  67	1	8	0.164633	-18.6262	-54.4121	-37.3821
  68	1	9	0.430928	-23.4316	-54.9065	-38.8512
  69	1	8	0.141007	-9.96853	-53.3473	-38.0693
  70	1	8	0.203537	-9.68859	-55.7955	-37.8705
  71	1	8	0.116715	-12.2185	-52.3429	-38.0183
  72	1	8	0.18244	-13.957	-56.2759	-37.5639
  73	1	1	-0.155485	-34.603	-51.0174	-32.6383
  74	1	2	-0.03785	-33.5646	-50.5802	-33.5058
  75	1	1	-0.234781	-33.7692	-48.3033	-32.5437
  76	1	1	0.378053	-34.7858	-48.7775	-31.7123
  77	1	1	-0.208553	-33.1581	-49.2135	-33.4373
  78	1	3	-0.411858	-29.6927	-52.5114	-36.0787
  79	1	1	-0.147234	-33.6715	-52.5778	-35.0775
  80	1	1	0.107751	-35.173	-50.0873	-31.7645
  81	1	4	0.626409	-36.3244	-48.997	-30.2567
  82	1	2	0.00453	-32.9158	-51.5352	-34.4615
  83	1	1	0.356173	-31.713	-53.3686	-36.2356
  84	1	1	0.030551	-30.9802	-52.3706	-35.6531
  85	1	1	-0.286062	-33.0769	-53.4986	-35.969
  86	1	5	-0.595919	-30.9552	-54.155	-37.0274
  87	1	1	-0.206338	-31.5307	-51.4353	-34.7686
  88	1	6	0.462884	-29.7239	-53.6302	-36.9167
  89	1	3	-0.691987	-36.156	-50.2632	-30.8374
  90	1	7	-0.710982	-35.4917	-48.0867	-30.7927
  91	1	1	-0.062645	-27.5238	-55.8973	-39.0119
  92	1	1	0.026743	-28.5318	-54.1933	-37.5803
  93	1	1	-0.399843	-26.2557	-55.3303	-38.8095
  94	1	1	-0.107518	-28.6504	-55.3335	-38.3978
  95	1	1	0.292439	-26.0942	-54.1834	-37.9987
  96	1	1	-0.410418	-27.2486	-53.6269	-37.4025
  97	1	8	0.148547	-34.9324	-52.0502	-32.635
  98	1	8	0.179912	-33.4729	-47.2611	-32.491
  99	1	8	0.155197	-32.3777	-48.8539	-34.1026
 100	1	9	0.340258	-28.8876	-51.9633	-35.8324
 101	1	8	0.137111	-34.7349	-52.6594	-34.8721
 102	1	8	0.181656	-33.6474	-54.2923	-36.4388
 103	1	8	0.164633	-30.9102	-50.6738	-34.3085
 104	1	9	0.430928	-36.6623	-51.1004	-30.6246
 105	1	8	0.141007	-27.6394	-56.7794	-39.6386
 106	1	8	0.203537	-25.3981	-55.7865	-39.2895
 107	1	8	0.116715	-29.6243	-55.7904	-38.5548
 108	1	8	0.18244	-27.1237	-52.7489	-36.7768
 109	1	1	-0.155485	-41.6993	-41.0621	-23.8018
 110	1	2	-0.03785	-40.4088	-40.7778	-24.33
 111	1	1	-0.234781	-40.4216	-38.6304	-23.0838
 112	1	1	0.378053	-41.6791	-38.9635	-22.5781
 113	1	1	-0.208553	-39.7907	-39.5442	-23.9595
 114	1	3	-0.411858	-39.4331	-45.3816	-26.0917
 115	1	1	-0.147234	-38.7569	-41.3399	-26.2003
 116	1	1	0.107751	-42.2854	-40.1339	-22.9385
 117	1	4	0.626409	-43.5265	-39.0239	-21.5239
 118	1	2	0.00453	-39.7145	-41.762	-25.2274
 119	1	1	0.356173	-38.4044	-43.6174	-26.9103
 120	1	1	0.030551	-39.3222	-44.0293	-25.9848
 121	1	1	-0.286062	-38.0951	-42.2626	-27.0436
 122	1	5	-0.595919	-37.9091	-44.6531	-27.6197
 123	1	1	-0.206338	-39.9929	-43.1535	-25.1266
 124	1	6	0.462884	-38.5519	-45.7225	-27.1224
 125	1	3	-0.691987	-43.4814	-40.1974	-22.2891
 126	1	7	-0.710982	-42.432	-38.2619	-21.7048
 127	1	1	-0.062645	-39.013	-49.4604	-27.5845
 128	1	1	0.026743	-38.3779	-47.1013	-27.6228
 129	1	1	-0.399843	-38.1053	-49.7293	-28.6194
 130	1	1	-0.107518	-39.1443	-48.1567	-27.0884
 131	1	1	0.292439	-37.302	-48.7035	-29.171
 132	1	1	-0.410418	-37.46	-47.3981	-28.6549
 133	1	8	0.148547	-42.2286	-41.9705	-24.0623
 134	1	8	0.179912	-39.9486	-37.7007	-22.7868
 135	1	8	0.155197	-38.7972	-39.308	-24.3305
 136	1	9	0.340258	-40.0206	-45.9997	-25.5639
 137	1	8	0.137111	-38.5399	-40.2822	-26.3161
 138	1	8	0.181656	-37.3734	-41.9437	-27.7881
 139	1	8	0.164633	-40.6904	-43.5376	-24.3923
 140	1	9	0.430928	-44.1677	-40.9264	-22.3223
 141	1	8	0.141007	-39.6194	-50.261	-27.1656
 142	1	8	0.203537	-38.0185	-50.7458	-28.9842
 143	1	8	0.116715	-39.8598	-47.9738	-26.2942
 144	1	8	0.18244	-36.8561	-46.5943	-29.0741
 145	1	1	-0.155485	-42.6801	-30.6749	-15.3816
 146	1	2	-0.03785	-44.097	-30.753	-15.4915
 147	1	1	-0.234781	-44.2555	-28.3974	-14.7372
 148	1	1	0.378053	-42.8647	-28.3684	-14.6407
 149	1	1	-0.208553	-44.8664	-29.5968	-15.1629
 150	1	3	-0.411858	-44.5139	-34.9936	-18.1739
 151	1	1	-0.147234	-46.0507	-32.3768	-15.4143
 152	1	1	0.107751	-42.1153	-29.4695	-14.9505
 153	1	4	0.626409	-40.8384	-27.8034	-14.3336
 154	1	2	0.00453	-44.773	-32.0137	-15.9372
 155	1	1	0.356173	-46.0864	-34.3654	-16.7692
 156	1	1	0.030551	-44.8622	-34.0266	-17.2784
 157	1	1	-0.286062	-46.7145	-33.5537	-15.8246
 158	1	5	-0.595919	-46.547	-35.5213	-17.2878
 159	1	1	-0.206338	-44.1677	-32.8731	-16.8954
 160	1	6	0.462884	-45.5812	-35.896	-18.1415
 161	1	3	-0.691987	-40.8044	-29.1412	-14.7553
 162	1	7	-0.710982	-42.0951	-27.3303	-14.2609
 163	1	1	-0.062645	-46.8094	-39.1788	-19.5785
 164	1	1	0.026743	-45.6389	-37.13	-18.9471
 165	1	1	-0.399843	-45.7655	-39.5141	-20.4544
 166	1	1	-0.107518	-46.7441	-37.9948	-18.8327
 167	1	1	0.292439	-44.641	-38.6694	-20.6025
 168	1	1	-0.410418	-44.5999	-37.4815	-19.8389
 169	1	8	0.148547	-42.0527	-31.5309	-15.6025
 170	1	8	0.179912	-44.8336	-27.513	-14.4926
 171	1	8	0.155197	-45.9483	-29.6269	-15.2616
 172	1	9	0.340258	-43.6831	-35.0603	-18.7342
 173	1	8	0.137111	-46.522	-31.7449	-14.667
 174	1	8	0.181656	-47.6833	-33.8342	-15.4258
 175	1	8	0.164633	-43.2085	-32.6311	-17.3392
 176	1	9	0.430928	-39.9934	-29.7137	-14.8927
 177	1	8	0.141007	-47.6714	-39.8343	-19.4711
 178	1	8	0.203537	-45.8371	-40.4356	-21.0197
 179	1	8	0.116715	-47.5583	-37.7501	-18.1549
 180	1	8	0.18244	-43.7352	-36.8353	-19.9512
 181	1	1	-0.155485	-42.129	-18.1768	-10.6552
 182	1	2	-0.03785	-40.9775	-18.0128	-11.4702
 183	1	1	-0.234781	-41.4024	-15.5719	-11.5318
 184	1	1	0.378053	-42.5111	-15.7749	-10.707
 185	1	1	-0.208553	-40.6331	-16.6985	-11.9042
 186	1	3	-0.411858	-40.1077	-22.7806	-12.8134
 187	1	1	-0.147234	-38.6947	-19.0801	-11.7491
 188	1	1	0.107751	-42.8533	-17.0352	-10.2999
 189	1	4	0.626409	-44.1778	-15.5434	-9.40377
 190	1	2	0.00453	-40.1155	-19.1861	-11.8114
 191	1	1	0.356173	-38.4576	-21.3951	-12.3704
 192	1	1	0.030551	-39.8204	-21.5008	-12.4452
 193	1	1	-0.286062	-37.8566	-20.1846	-12.0213
 194	1	5	-0.595919	-37.8437	-22.5604	-12.6633
 195	1	1	-0.206338	-40.6875	-20.4372	-12.168
 196	1	6	0.462884	-38.8584	-23.3967	-12.934
 197	1	3	-0.691987	-43.93	-16.9219	-9.47369
 198	1	7	-0.710982	-43.3282	-14.8398	-10.1751
 199	1	1	-0.062645	-37.2157	-26.7088	-13.7842
 200	1	1	0.026743	-38.6797	-24.8085	-13.3226
 201	1	1	-0.399843	-38.3313	-27.5079	-14.0843
 202	1	1	-0.107518	-37.3912	-25.3687	-13.4102
 203	1	1	0.292439	-39.6408	-26.9804	-14.0092
 204	1	1	-0.410418	-39.7888	-25.6309	-13.6201
 205	1	8	0.148547	-42.4093	-19.1534	-10.2761
 206	1	8	0.179912	-41.1378	-14.5681	-11.8454
 207	1	8	0.155197	-39.7579	-16.5601	-12.5348
 208	1	9	0.340258	-41.0055	-23.1984	-12.981
 209	1	8	0.137111	-38.2454	-18.1349	-11.4561
 210	1	8	0.181656	-36.7761	-20.1131	-11.9595
 211	1	8	0.164633	-41.7628	-20.5592	-12.2409
 212	1	9	0.430928	-44.399	-17.6485	-8.96788
 213	1	8	0.141007	-36.2105	-27.1217	-13.8425
 214	1	8	0.203537	-38.1726	-28.54	-14.3741
 215	1	8	0.116715	-36.5186	-24.7605	-13.1848
 216	1	8	0.18244	-40.7942	-25.2267	-13.5652
 217	1	1	-0.155485	-45.2791	-5.1697	-8.83416
 218	1	2	-0.03785	-46.5975	-5.56458	-8.48521
 219	1	1	-0.234781	-47.3926	-3.28342	-9.0596
 220	1	1	0.378053	-46.0806	-2.94183	-9.39464
 221	1	1	-0.208553	-47.6437	-4.59902	-8.60251
 222	1	3	-0.411858	-45.89	-10.5506	-8.37812
 223	1	1	-0.147234	-47.8862	-7.21757	-7.04387
 224	1	1	0.107751	-45.0764	-3.86146	-9.27616
 225	1	4	0.626409	-44.3012	-1.96557	-10.0334
 226	1	2	0.00453	-46.8708	-6.96003	-8.01221
 227	1	1	0.356173	-47.4106	-9.57767	-7.11705
 228	1	1	0.030551	-46.43	-9.34298	-8.0415
 229	1	1	-0.286062	-48.1614	-8.5262	-6.5893
 230	1	5	-0.595919	-47.5337	-10.8901	-6.83683
 231	1	1	-0.206338	-46.124	-8.06225	-8.51657
 232	1	6	0.462884	-46.6099	-11.4758	-7.61593
 233	1	3	-0.691987	-43.9211	-3.26364	-9.66861
 234	1	7	-0.710982	-45.6198	-1.75987	-9.8607
 235	1	1	-0.062645	-47.0346	-15.1691	-6.90245
 236	1	1	0.026743	-46.4003	-12.9365	-7.66619
 237	1	1	-0.399843	-46.0604	-15.739	-7.73461
 238	1	1	-0.107518	-47.1987	-13.7793	-6.86916
 239	1	1	0.292439	-45.23	-14.9306	-8.54502
 240	1	1	-0.410418	-45.4198	-13.5293	-8.49783
 241	1	8	0.148547	-44.445	-5.85577	-8.74425
 242	1	8	0.179912	-48.1851	-2.54993	-9.16251
 243	1	8	0.155197	-48.664	-4.88445	-8.35962
 244	1	9	0.340258	-45.1661	-10.7514	-9.04473
 245	1	8	0.137111	-48.4542	-6.3883	-6.63159
 246	1	8	0.181656	-48.9337	-8.72661	-5.8547
 247	1	8	0.164633	-45.3582	-7.92266	-9.27106
 248	1	9	0.430928	-43.0014	-3.65513	-9.68943
 249	1	8	0.141007	-47.6651	-15.7996	-6.27876
 250	1	8	0.203537	-45.9503	-16.8167	-7.73933
 251	1	8	0.116715	-47.9586	-13.3539	-6.2184
 252	1	8	0.18244	-44.7825	-12.9086	-9.11964
 253	1	1	-0.155485	-33.4763	-3.58765	-12.9876
 254	1	2	-0.03785	-34.4253	-3.56737	-11.9313
 255	1	1	-0.234781	-33.182	-5.39669	-10.8159
 256	1	1	0.378053	-32.2535	-5.35328	-11.8586
 257	1	1	-0.208553	-34.2764	-4.5021	-10.8628
 258	1	3	-0.411858	-39.1211	-1.972	-11.1442
 259	1	1	-0.147234	-35.2967	-1.23289	-12.4109
 260	1	1	0.107751	-32.4266	-4.50384	-12.9151
 261	1	4	0.626409	-30.526	-5.55088	-13.0772
 262	1	2	0.00453	-35.5277	-2.55764	-11.9324
 263	1	1	0.356173	-37.5855	-0.632432	-11.968
 264	1	1	0.030551	-37.8108	-1.89896	-11.5015
 265	1	1	-0.286062	-36.3219	-0.261214	-12.4291
 266	1	5	-0.595919	-38.7012	0.12533	-11.9293
 267	1	1	-0.206338	-36.8244	-2.8899	-11.4591
 268	1	6	0.462884	-39.6339	-0.704316	-11.4357
 269	1	3	-0.691987	-31.365	-4.65637	-13.7531
 270	1	7	-0.710982	-31.0811	-6.01249	-11.9404
 271	1	1	-0.062645	-42.8619	1.28909	-11.4236
 272	1	1	0.026743	-41.0507	-0.339979	-11.2428
 273	1	1	-0.399843	-43.7693	0.344443	-10.9182
 274	1	1	-0.107518	-41.5114	0.946141	-11.5837
 275	1	1	0.292439	-43.3467	-0.952351	-10.5602
 276	1	1	-0.410418	-41.9791	-1.27354	-10.7278
 277	1	8	0.148547	-33.5544	-2.90545	-13.827
 278	1	8	0.179912	-33.0291	-6.08125	-9.98857
 279	1	8	0.155197	-34.9898	-4.49444	-10.0432
 280	1	9	0.340258	-39.6244	-2.76521	-10.7969
 281	1	8	0.137111	-34.3053	-0.955588	-12.758
 282	1	8	0.181656	-36.1519	0.746165	-12.7939
 283	1	8	0.164633	-37.05	-3.88999	-11.1047
 284	1	9	0.430928	-31.0989	-4.0613	-14.5158
 285	1	8	0.141007	-43.2025	2.28575	-11.6972
 286	1	8	0.203537	-44.8181	0.610004	-10.8004
 287	1	8	0.116715	-40.819	1.68338	-11.9828
 288	1	8	0.18244	-41.6391	-2.26375	-10.4625
 289	1	1	-0.155485	-21.5897	-7.39845	-6.65932
 290	1	2	-0.03785	-22.7471	-8.12422	-7.04174
 291	1	1	-0.234781	-23.0346	-8.85214	-4.69178
 292	1	1	0.378053	-21.8997	-8.1078	-4.3558
 293	1	1	-0.208553	-23.4613	-8.84757	-6.04147
 294	1	3	-0.411858	-26.1697	-7.34296	-10.6375
 295	1	1	-0.147234	-22.2956	-8.1579	-9.53329
 296	1	1	0.107751	-21.214	-7.41684	-5.3157
 297	1	4	0.626409	-20.3705	-7.02793	-3.33866
 298	1	2	0.00453	-23.2224	-8.06008	-8.45532
 299	1	1	0.356173	-24.0529	-7.72612	-11.1195
 300	1	1	0.030551	-24.9576	-7.66086	-10.0936
 301	1	1	-0.286062	-22.7048	-7.99105	-10.8737
 302	1	5	-0.595919	-24.6154	-7.43259	-12.3073
 303	1	1	-0.206338	-24.5884	-7.8078	-8.74993
 304	1	6	0.462884	-25.9008	-7.19811	-12.0028
 305	1	3	-0.691987	-20.2157	-6.7284	-4.69925
 306	1	7	-0.710982	-21.3764	-7.89758	-3.1285
 307	1	1	-0.062645	-27.3296	-5.67979	-15.1584
 308	1	1	0.026743	-26.8778	-6.69339	-12.9839
 309	1	1	-0.399843	-28.6527	-5.42375	-14.7681
 310	1	1	-0.107518	-26.4507	-6.31449	-14.2713
 311	1	1	0.292439	-29.1364	-5.85304	-13.5113
 312	1	1	-0.410418	-28.2346	-6.50549	-12.6435
 313	1	8	0.148547	-21.0411	-6.80347	-7.38121
 314	1	8	0.179912	-23.5795	-9.38415	-3.91906
 315	1	8	0.155197	-24.3517	-9.40535	-6.32175
 316	1	9	0.340258	-27.0112	-7.03724	-10.1565
 317	1	8	0.137111	-21.2483	-8.35207	-9.31769
 318	1	8	0.181656	-22.0012	-8.03646	-11.6978
 319	1	8	0.164633	-25.3062	-7.67207	-7.94823
 320	1	9	0.430928	-19.5709	-6.08021	-5.1069
 321	1	8	0.141007	-26.9706	-5.35559	-16.1334
 322	1	8	0.203537	-29.3093	-4.90864	-15.4605
 323	1	8	0.116715	-25.4154	-6.46182	-14.5689
 324	1	8	0.18244	-28.5991	-6.8194	-11.669
 325	1	1	-0.155485	-21.6297	-6.11677	8.04915
 326	1	2	-0.03785	-20.3735	-5.94934	7.4105
 327	1	1	-0.234781	-19.6285	-4.57683	9.34252
 328	1	1	0.378053	-20.8939	-4.7418	9.91412
 329	1	1	-0.208553	-19.3746	-5.18339	8.08653
 330	1	3	-0.411858	-18.8687	-5.59012	2.63135
 331	1	1	-0.147234	-20.8953	-7.61761	5.56201
 332	1	1	0.107751	-21.8325	-5.51179	9.28791
 333	1	4	0.626409	-22.7083	-4.47612	10.9935
 334	1	2	0.00453	-20.1884	-6.46092	6.01281
 335	1	1	0.356173	-20.1715	-7.2305	3.30065
 336	1	1	0.030551	-19.4332	-6.16229	3.73198
 337	1	1	-0.286062	-20.8971	-8.00575	4.20445
 338	1	5	-0.595919	-20.1447	-7.35436	1.95915
 339	1	1	-0.206338	-19.4196	-5.7315	5.06442
 340	1	6	0.462884	-19.3642	-6.33923	1.55781
 341	1	3	-0.691987	-22.9887	-5.41155	9.98952
 342	1	7	-0.710982	-21.4104	-4.11633	10.9983
 343	1	1	-0.062645	-17.9317	-4.70065	-1.54957
 344	1	1	0.026743	-19.0989	-6.02096	0.140849
 345	1	1	-0.399843	-18.6164	-5.38359	-2.56548
 346	1	1	-0.107518	-18.1852	-5.00606	-0.205952
 347	1	1	0.292439	-19.5716	-6.3819	-2.25966
 348	1	1	-0.410418	-19.773	-6.70048	-0.899174
 349	1	8	0.148547	-22.4456	-6.63342	7.55717
 350	1	8	0.179912	-18.8944	-3.94731	9.83365
 351	1	8	0.155197	-18.4064	-5.03561	7.61584
 352	1	9	0.340258	-18.3153	-4.75446	2.5835
 353	1	8	0.137111	-21.4751	-8.202	6.27017
 354	1	8	0.181656	-21.4713	-8.85473	3.84895
 355	1	8	0.164633	-18.8973	-4.82443	5.3475
 356	1	9	0.430928	-23.8912	-5.74539	9.71773
 357	1	8	0.141007	-17.2133	-3.92273	-1.80072
 358	1	8	0.203537	-18.4233	-5.1102	-3.59595
 359	1	8	0.116715	-17.6484	-4.45991	0.562371
 360	1	8	0.18244	-20.5032	-7.46819	-0.646452
 361	1	1	-0.155485	-31.7248	-6.02709	7.09523
 362	1	2	-0.03785	-31.3575	-4.6634	7.22021
 363	1	1	-0.234781	-31.5884	-4.3975	4.77132
 364	1	1	0.378053	-31.9097	-5.75579	4.68845
 365	1	1	-0.208553	-31.3196	-3.85214	6.0495
 366	1	3	-0.411858	-27.8705	-4.65442	10.7093
 367	1	1	-0.147234	-31.2496	-2.97523	9.14793
 368	1	1	0.107751	-32.0146	-6.51635	5.82084
 369	1	4	0.626409	-32.2209	-7.75932	4.03971
 370	1	2	0.00453	-30.7994	-4.1674	8.50902
 371	1	1	0.356173	-29.4679	-3.14556	10.7745
 372	1	1	0.030551	-29.0598	-4.30209	10.1681
 373	1	1	-0.286062	-30.5945	-2.46476	10.2975
 374	1	5	-0.595919	-28.5723	-2.72685	11.7007
 375	1	1	-0.206338	-29.6828	-4.84829	9.04807
 376	1	6	0.462884	-27.5624	-3.6051	11.5747
 377	1	3	-0.691987	-32.2664	-7.79731	5.43902
 378	1	7	-0.710982	-32.0378	-6.5092	3.57388
 379	1	1	-0.062645	-24.5571	-2.07212	13.32
 380	1	1	0.026743	-26.1946	-3.39645	12.087
 381	1	1	-0.399843	-23.5109	-2.79767	12.7231
 382	1	1	-0.107518	-25.89	-2.34541	12.9711
 383	1	1	0.292439	-23.7792	-3.8348	11.8069
 384	1	1	-0.410418	-25.1312	-4.17032	11.5691
 385	1	8	0.148547	-31.7276	-6.68265	7.95948
 386	1	8	0.179912	-31.4871	-3.80977	3.86521
 387	1	8	0.155197	-30.9922	-2.818	6.13272
 388	1	9	0.340258	-27.2645	-5.39982	10.4266
 389	1	8	0.137111	-32.0899	-2.43272	8.7218
 390	1	8	0.181656	-30.8945	-1.52847	10.7558
 391	1	8	0.164633	-29.2701	-5.71737	8.54617
 392	1	9	0.430928	-32.3355	-8.61231	6.01766
 393	1	8	0.141007	-24.3355	-1.2547	14.0033
 394	1	8	0.203537	-22.4766	-2.52511	12.9237
 395	1	8	0.116715	-26.6892	-1.7289	13.3754
 396	1	8	0.18244	-25.3495	-4.9517	10.8576
 397	1	1	-0.155485	-30.3063	-7.17957	-6.22532
 398	1	2	-0.03785	-29.6781	-8.39757	-5.8567
 399	1	1	-0.234781	-28.151	-8.15413	-7.79615
 400	1	1	0.378053	-28.7784	-6.94321	-8.10706
 401	1	1	-0.208553	-28.6064	-8.87563	-6.66793
 402	1	3	-0.411858	-31.3523	-8.81896	-1.13334
 403	1	1	-0.147234	-30.1611	-10.5816	-4.64476
 404	1	1	0.107751	-29.8292	-6.50405	-7.35059
 405	1	4	0.626409	-29.4438	-5.12882	-9.00647
 406	1	2	0.00453	-30.1399	-9.15531	-4.65082
 407	1	1	0.356173	-30.987	-10.5958	-2.38148
 408	1	1	0.030551	-30.964	-9.22784	-2.37521
 409	1	1	-0.286062	-30.5902	-11.3107	-3.5131
 410	1	5	-0.595919	-31.3866	-11.0971	-1.19546
 411	1	1	-0.206338	-30.558	-8.46764	-3.47789
 412	1	6	0.462884	-31.5851	-10.0078	-0.435728
 413	1	3	-0.691987	-30.2824	-5.35199	-7.90714
 414	1	7	-0.710982	-28.4975	-6.08863	-9.12191
 415	1	1	-0.062645	-32.4326	-11.4151	2.97438
 416	1	1	0.026743	-31.9427	-10.0708	0.994358
 417	1	1	-0.399843	-32.4732	-10.2542	3.76
 418	1	1	-0.107518	-32.1548	-11.3216	1.60544
 419	1	1	0.292439	-32.2651	-8.97835	3.18619
 420	1	1	-0.410418	-32.0331	-8.90666	1.79388
 421	1	8	0.148547	-31.1473	-6.79154	-5.66184
 422	1	8	0.179912	-27.3476	-8.53446	-8.41444
 423	1	8	0.155197	-28.1126	-9.80736	-6.40203
 424	1	9	0.340258	-31.3837	-7.88578	-0.76342
 425	1	8	0.137111	-29.8531	-11.1232	-5.53497
 426	1	8	0.181656	-30.6025	-12.3952	-3.50167
 427	1	8	0.164633	-30.5298	-7.38495	-3.42442
 428	1	9	0.430928	-31.0609	-4.79013	-7.62048
 429	1	8	0.141007	-32.5932	-12.3925	3.42498
 430	1	8	0.203537	-32.6699	-10.3539	4.82077
 431	1	8	0.116715	-32.0959	-12.2328	1.01529
 432	1	8	0.18244	-31.8579	-7.92866	1.35687
 433	1	1	-0.155485	-23.1023	-1.13541	-17.936
 434	1	2	-0.03785	-23.3415	-1.47459	-16.5717
 435	1	1	-0.234781	-20.897	-1.45406	-16.1721
 436	1	1	0.378053	-20.7135	-1.10596	-17.5091
 437	1	1	-0.208553	-22.2166	-1.6387	-15.7093
 438	1	3	-0.411858	-26.8166	-2.96434	-13.239
 439	1	1	-0.147234	-25.7576	-0.696517	-16.4988
 440	1	1	0.107751	-21.7767	-0.969605	-18.3582
 441	1	4	0.626409	-19.8947	-0.494993	-19.375
 442	1	2	0.00453	-24.7303	-1.55814	-16.0105
 443	1	1	0.356173	-27.2655	-1.46352	-14.7867
 444	1	1	0.030551	-26.3083	-2.33091	-14.3376
 445	1	1	-0.286062	-27.0302	-0.642594	-15.8899
 446	1	5	-0.595919	-28.3662	-1.4832	-14.0116
 447	1	1	-0.206338	-25.0315	-2.40895	-14.9076
 448	1	6	0.462884	-28.0703	-2.37492	-13.0517
 449	1	3	-0.691987	-21.2805	-0.597353	-19.5789
 450	1	7	-0.710982	-19.5486	-0.820237	-18.117
 451	1	1	-0.062645	-31.0339	-2.12296	-10.721
 452	1	1	0.026743	-28.981	-2.66671	-11.9275
 453	1	1	-0.399843	-30.7648	-3.14006	-9.7975
 454	1	1	-0.107518	-30.1564	-1.90303	-11.7864
 455	1	1	0.292439	-29.629	-3.97343	-9.93169
 456	1	1	-0.410418	-28.7234	-3.68995	-10.9822
 457	1	8	0.148547	-23.9226	-0.99531	-18.6308
 458	1	8	0.179912	-20.0398	-1.54071	-15.5133
 459	1	8	0.155197	-22.3727	-1.85701	-14.6564
 460	1	9	0.340258	-26.3948	-3.68685	-12.6808
 461	1	8	0.137111	-25.5415	-0.0139942	-17.3152
 462	1	8	0.181656	-27.7948	0.0507448	-16.223
 463	1	8	0.164633	-24.2854	-3.08122	-14.4969
 464	1	9	0.430928	-21.7864	-0.388676	-20.4188
 465	1	8	0.141007	-31.9363	-1.52131	-10.6298
 466	1	8	0.203537	-31.493	-3.32138	-9.01709
 467	1	8	0.116715	-30.3857	-1.11332	-12.4968
 468	1	8	0.18244	-27.8366	-4.3078	-11.0752
 469	1	1	-0.155485	-8.86428	-0.144845	-17.3524
 470	1	2	-0.03785	-10.2145	0.233119	-17.0964
 471	1	1	-0.234781	-9.841	-0.191546	-14.6815
 472	1	1	0.378053	-8.54694	-0.60133	-14.9889
 473	1	1	-0.208553	-10.6653	0.239403	-15.74
 474	1	3	-0.411858	-14.7742	0.277344	-19.1238
 475	1	1	-0.147234	-10.7664	1.00924	-19.4897
 476	1	1	0.107751	-8.06797	-0.537497	-16.268
 477	1	4	0.626409	-6.58037	-1.40181	-14.911
 478	1	2	0.00453	-11.1803	0.52446	-18.2099
 479	1	1	0.356173	-13.0431	0.938561	-20.3059
 480	1	1	0.030551	-13.437	0.487	-19.0786
 481	1	1	-0.286062	-11.6929	1.21808	-20.5434
 482	1	5	-0.595919	-14.0885	1.02645	-21.1636
 483	1	1	-0.206338	-12.5619	0.256889	-18.0201
 484	1	6	0.462884	-15.1366	0.613637	-20.427
 485	1	3	-0.691987	-6.7828	-1.00717	-16.2445
 486	1	7	-0.710982	-7.64983	-1.13561	-14.1438
 487	1	1	-0.062645	-18.2402	0.701014	-22.6248
 488	1	1	0.026743	-16.5313	0.500865	-20.8945
 489	1	1	-0.399843	-19.2292	0.274624	-21.7176
 490	1	1	-0.107518	-16.9013	0.817259	-22.2137
 491	1	1	0.292439	-18.8911	-0.0533215	-20.3851
 492	1	1	-0.410418	-17.538	0.0635482	-20.007
 493	1	8	0.148547	-8.4748	-0.186732	-18.3628
 494	1	8	0.179912	-10.193	-0.236483	-13.6564
 495	1	8	0.155197	-11.675	0.560645	-15.5036
 496	1	9	0.340258	-15.3797	-0.0581697	-18.3961
 497	1	8	0.137111	-9.71725	1.22741	-19.664
 498	1	8	0.181656	-11.3793	1.57613	-21.5179
 499	1	8	0.164633	-12.9387	-0.156114	-17.0921
 500	1	9	0.430928	-6.16494	-1.15665	-17.0186
 501	1	8	0.141007	-18.5067	0.946329	-23.651
 502	1	8	0.203537	-20.2564	0.19477	-22.0548
 503	1	8	0.116715	-16.1462	1.15142	-22.9211
 504	1	8	0.18244	-17.2833	-0.183386	-18.9825
 505	1	1	-0.155485	-3.94128	-5.17228	-4.50261
 506	1	2	-0.03785	-3.55039	-5.93087	-5.6346
 507	1	1	-0.234781	-2.28271	-7.4439	-4.13901
 508	1	1	0.378053	-2.70867	-6.67445	-3.0492
 509	1	1	-0.208553	-2.70216	-7.06069	-5.43901
 510	1	3	-0.411858	-3.28427	-4.4537	-10.4614
 511	1	1	-0.147234	-5.47153	-5.20051	-7.06433
 512	1	1	0.107751	-3.49587	-5.57631	-3.24789
 513	1	4	0.626409	-3.09898	-5.84708	-1.12127
 514	1	2	0.00453	-4.08881	-5.53033	-6.96774
 515	1	1	0.356173	-5.16767	-4.4571	-9.32188
 516	1	1	0.030551	-3.84628	-4.8142	-9.26589
 517	1	1	-0.286062	-6.02191	-4.66189	-8.24193
 518	1	5	-0.595919	-5.48419	-3.86383	-10.4831
 519	1	1	-0.206338	-3.25811	-5.35436	-8.11001
 520	1	6	0.462884	-4.33333	-3.84885	-11.1692
 521	1	3	-0.691987	-3.75805	-5.01979	-2.03783
 522	1	7	-0.710982	-2.45375	-6.85987	-1.73391
 523	1	1	-0.062645	-3.03136	-2.81151	-14.5953
 524	1	1	0.026743	-4.23646	-3.25471	-12.5187
 525	1	1	-0.399843	-4.17441	-2.20262	-15.1445
 526	1	1	-0.107518	-3.06046	-3.32995	-13.2892
 527	1	1	0.292439	-5.35563	-2.06432	-14.3809
 528	1	1	-0.410418	-5.3535	-2.59767	-13.0765
 529	1	8	0.148547	-4.57364	-4.29735	-4.60841
 530	1	8	0.179912	-1.66109	-8.31667	-3.96921
 531	1	8	0.155197	-2.40754	-7.65999	-6.29702
 532	1	9	0.340258	-2.32608	-4.53715	-10.7465
 533	1	8	0.137111	-6.11462	-5.34491	-6.19996
 534	1	8	0.181656	-7.06586	-4.37586	-8.31214
 535	1	8	0.164633	-2.19547	-5.56862	-8.06125
 536	1	9	0.430928	-4.27446	-4.18479	-1.8387
 537	1	8	0.141007	-2.11971	-2.88855	-15.1842
 538	1	8	0.203537	-4.13015	-1.80252	-16.1513
 539	1	8	0.116715	-2.17421	-3.81341	-12.8921
 540	1	8	0.18244	-6.26554	-2.51695	-12.4866
 541	1	1	-0.155485	1.80083	-10.3736	8.69588
 542	1	2	-0.03785	1.58771	-9.09347	8.11935
 543	1	1	-0.234781	3.027	-8.08926	9.8659
 544	1	1	0.378053	3.22955	-9.36861	10.386
 545	1	1	-0.208553	2.19571	-7.95777	8.73096
 546	1	3	-0.411858	-1.49565	-6.75122	4.93134
 547	1	1	-0.147234	1.06351	-9.84534	5.75834
 548	1	1	0.107751	2.61415	-10.4564	9.82941
 549	1	4	0.626409	3.95928	-11.0647	11.4403
 550	1	2	0.00453	0.831688	-8.94568	6.84037
 551	1	1	0.356173	-0.392384	-8.55892	4.33544
 552	1	1	0.030551	-0.655783	-7.72105	5.38515
 553	1	1	-0.286062	0.459622	-9.65314	4.49551
 554	1	5	-0.595919	-0.999071	-8.15029	3.20229
 555	1	1	-0.206338	-0.0607907	-7.85957	6.64343
 556	1	6	0.462884	-1.6519	-7.03664	3.57124
 557	1	3	-0.691987	3.03269	-11.5591	10.5112
 558	1	7	-0.710982	4.05612	-9.72355	11.3915
 559	1	1	-0.062645	-3.80847	-4.21247	2.25203
 560	1	1	0.026743	-2.41115	-6.17711	2.6428
 561	1	1	-0.399843	-3.80911	-4.4816	0.876726
 562	1	1	-0.107518	-3.10621	-5.05033	3.12653
 563	1	1	0.292439	-3.11563	-5.59634	0.346906
 564	1	1	-0.410418	-2.43825	-6.43902	1.25416
 565	1	8	0.148547	1.3625	-11.2632	8.25631
 566	1	8	0.179912	3.5398	-7.24012	10.3042
 567	1	8	0.155197	2.0709	-6.97812	8.2764
 568	1	9	0.340258	-1.85476	-5.959	5.43087
 569	1	8	0.137111	1.76722	-10.663	5.8882
 570	1	8	0.181656	0.669253	-10.3041	3.65356
 571	1	8	0.164633	-0.262332	-7.15306	7.44163
 572	1	9	0.430928	2.80347	-12.5189	10.3355
 573	1	8	0.141007	-4.34368	-3.34837	2.64124
 574	1	8	0.203537	-4.34623	-3.80775	0.220043
 575	1	8	0.116715	-3.11456	-4.81726	4.18566
 576	1	8	0.18244	-1.89664	-7.29942	0.863106
 577	1	1	-0.155485	9.6264	-6.92724	19.0606
 578	1	2	-0.03785	10.3541	-8.15166	18.9967
 579	1	1	-0.234781	11.8017	-7.30819	20.8416
 580	1	1	0.378053	11.0456	-6.13728	20.8738
 581	1	1	-0.208553	11.458	-8.3028	19.8967
 582	1	3	-0.411858	7.73468	-10.2053	15.1733
 583	1	1	-0.147234	10.3533	-10.6142	18.3062
 584	1	1	0.107751	10.0124	-5.96198	19.998
 585	1	4	0.626409	10.2281	-4.22098	21.3142
 586	1	2	0.00453	9.9378	-9.26653	18.0636
 587	1	1	0.356173	9.02133	-11.4237	16.4754
 588	1	1	0.030551	8.63578	-10.1413	16.1999
 589	1	1	-0.286062	9.90611	-11.6937	17.5155
 590	1	5	-0.595919	8.38908	-12.3237	15.6992
 591	1	1	-0.206338	9.06141	-9.04013	16.958
 592	1	6	0.462884	7.57969	-11.5762	14.9343
 593	1	3	-0.691987	9.46834	-4.73864	20.2525
 594	1	7	-0.710982	11.1913	-5.07708	21.6986
 595	1	1	-0.062645	5.47105	-14.1416	13.1133
 596	1	1	0.026743	6.58864	-12.1596	14.0082
 597	1	1	-0.399843	4.65095	-13.3293	12.3171
 598	1	1	-0.107518	6.43906	-13.559	13.9405
 599	1	1	0.292439	4.78677	-11.922	12.3329
 600	1	1	-0.410418	5.75267	-11.3566	13.1981
 601	1	8	0.148547	8.76795	-6.74392	18.4279
 602	1	8	0.179912	12.6271	-7.4349	21.5341
 603	1	8	0.155197	12.0639	-9.20198	19.8707
 604	1	9	0.340258	7.20826	-9.45934	14.7545
 605	1	8	0.137111	10.9906	-10.8454	19.1517
 606	1	8	0.181656	10.1923	-12.7176	17.73
 607	1	8	0.164633	8.70749	-8.0477	16.7097
 608	1	9	0.430928	8.70269	-4.29463	19.7853
 609	1	8	0.141007	5.36251	-15.2242	13.0925
 610	1	8	0.203537	3.91335	-13.8026	11.6797
 611	1	8	0.116715	7.06442	-14.204	14.5527
 612	1	8	0.18244	5.85684	-10.2762	13.2103
 613	1	1	-0.155485	13.4154	3.97756	28.9981
 614	1	2	-0.03785	14.2587	2.90478	28.5817
 615	1	1	-0.234781	16.1954	4.08684	29.5773
 616	1	1	0.378053	15.3328	5.11332	29.9576
 617	1	1	-0.208553	15.6506	2.98383	28.8874