pySIMM System Object

1802 atoms
2051 bonds
3400 angles
5396 dihedrals
600 impropers

10 atom types
15 bond types
26 angle types
12 dihedral types
2 improper types

-184.439786 184.439786 xlo xhi
-184.439786 184.439786 ylo yhi
-184.439786 184.439786 zlo zhi

Masses

   1	12.01	# ca
   2	12.01	# cp
   3	14.01	# na
   4	12.01	# cc
   5	14.01	# nc
   6	12.01	# cd
   7	14.01	# nd
   8	1.008	# ha
   9	1.008	# hn
  10	1.008	# h5

Pair Coeffs

   1	0.086	3.3996695084235347	# ca
   2	0.086	3.3996695084235347	# cp
   3	0.17	3.249998523775958	# na
   4	0.086	3.3996695084235347	# cc
   5	0.17	3.249998523775958	# nc
   6	0.086	3.3996695084235347	# cd
   7	0.17	3.249998523775958	# nd
   8	0.015	2.59964245953351	# ha
   9	0.0157	1.069078461768407	# hn
  10	0.015	2.421462715905442	# h5

Bond Coeffs

   1	425.8	1.3802	# cd,na
   2	525.4	1.3172	# cc,nd
   3	345.8	1.086	# ca,ha
   4	351.4	1.4854	# cp,cp
   5	467.7	1.3517	# ca,nc
   6	385.1	1.4555	# ca,cd
   7	467.7	1.3517	# ca,nd
   8	525.4	1.3172	# cd,nc
   9	450.2	1.4058	# ca,cp
  10	425.8	1.3802	# cc,na
  11	420.5	1.384	# ca,na
  12	351.7	1.0819	# cc,h5
  13	461.1	1.3984	# ca,ca
  14	408.4	1.01	# hn,na
  15	385.1	1.4555	# ca,cc

Angle Coeffs

   1	48.18	119.88	# ca,ca,ha
   2	66.28	123.45	# ca,cd,na
   3	64.05	121.11	# ca,cp,cp
   4	46.75	125.5	# cc,na,hn
   5	67.6	123.24	# ca,cd,nc
   6	46.75	125.5	# cd,na,hn
   7	72.48	104.88	# ca,nc,cd
   8	74.9	112.22	# na,cd,nc
   9	66.62	120.02	# ca,ca,ca
  10	46.63	125.54	# ca,na,hn
  11	65.02	120.79	# ca,ca,cd
  12	47.98	119.86	# cp,ca,ha
  13	69.46	119.72	# ca,ca,nc
  14	72.48	104.88	# ca,nd,cc
  15	69.08	118.34	# ca,ca,na
  16	66.72	118.38	# ca,cp,ca
  17	69.46	119.72	# ca,ca,nd
  18	74.9	112.22	# na,cc,nd
  19	67.4	113.15	# ca,na,cc
  20	66.26	120.69	# ca,ca,cp
  21	50.58	125.52	# h5,cc,nd
  22	67.4	113.15	# ca,na,cd
  23	49.58	121.55	# h5,cc,na
  24	66.28	123.45	# ca,cc,na
  25	67.6	123.24	# ca,cc,nd
  26	65.02	120.79	# ca,ca,cc

Dihedral Coeffs

   1	1	4.8	2	180	# X,ca,nc,X
   2	1	4.8	2	180	# X,ca,nd,X
   3	1	4.0	2	180	# X,ca,cd,X
   4	1	4.75	2	180	# X,cd,nc,X
   5	1	4.75	2	180	# X,cc,nd,X
   6	1	1.7	2	180	# X,cc,na,X
   7	1	1.0	2	180	# X,cp,cp,X
   8	1	3.625	2	180	# X,ca,cp,X
   9	1	0.3	2	180	# X,ca,na,X
  10	1	1.7	2	180	# X,cd,na,X
  11	1	3.625	2	180	# X,ca,ca,X
  12	1	4.0	2	180	# X,ca,cc,X

Improper Coeffs

   1	1.1	-1	2	# na,X,X,hn
   2	1.1	-1	2	# ca,X,X,ha

Atoms

   1	1	1	-0.155485	46.3717	-4.72173	-59.1764
   2	1	2	-0.03785	47.5287	-4.44703	-59.9569
   3	1	1	-0.234781	48.9121	-5.56059	-58.2231
   4	1	1	0.378053	47.7477	-5.81187	-57.4948
   5	1	1	-0.208553	48.7951	-4.87637	-59.4553
   6	1	3	-0.411858	48.8581	-3.42324	-64.7037
   7	1	1	-0.147234	46.3828	-2.77263	-61.4985
   8	1	1	0.107751	46.5326	-5.39825	-57.9643
   9	1	4	0.626409	46.312	-6.44065	-56.0542
  10	1	2	0.00453	47.4132	-3.73548	-61.2728
  11	1	1	0.356173	47.1509	-2.41354	-63.7525
  12	1	1	0.030551	48.1458	-3.32915	-63.5457
  13	1	1	-0.286062	46.2445	-2.10699	-62.7371
  14	1	5	-0.595919	47.1853	-1.90443	-65.0005
  15	1	1	-0.206338	48.3173	-4.01149	-62.3359
  16	1	6	0.462884	48.2287	-2.52699	-65.5725
  17	1	3	-0.691987	45.5891	-5.78331	-57.0603
  18	1	7	-0.710982	47.6328	-6.45794	-56.3142
  19	1	1	-0.062645	48.3528	-1.14447	-69.1044
  20	1	1	0.026743	48.6602	-2.29487	-66.964
  21	1	1	-0.399843	49.4583	-1.82718	-69.6344
  22	1	1	-0.107518	47.9604	-1.37923	-67.7776
  23	1	1	0.292439	50.1669	-2.73994	-68.8439
  24	1	1	-0.410418	49.771	-2.97295	-67.5195
  25	1	8	0.148547	45.383	-4.43844	-59.5188
  26	1	8	0.179912	49.8712	-5.88745	-57.8366
  27	1	8	0.155197	49.6969	-4.65838	-60.0206
  28	1	9	0.340258	49.6511	-4.00373	-64.905
  29	1	8	0.137111	45.6934	-2.52648	-60.6966
  30	1	8	0.181656	45.4638	-1.37444	-62.9112
  31	1	8	0.164633	49.1038	-4.74933	-62.2253
  32	1	9	0.430928	44.597	-5.65009	-57.1066
  33	1	8	0.141007	47.7986	-0.434746	-69.7152
  34	1	8	0.203537	49.7708	-1.6522	-70.6593
  35	1	8	0.116715	47.1021	-0.844496	-67.378
  36	1	8	0.18244	50.3396	-3.68458	-66.9337
  37	1	1	-0.155485	52.1272	-11.8726	-49.251
  38	1	2	-0.03785	51.0389	-11.4923	-48.4176
  39	1	1	-0.234781	52.4487	-11.9403	-46.4268
  40	1	1	0.378053	53.4878	-12.3048	-47.2827
  41	1	1	-0.208553	51.2243	-11.5355	-47.0027
  42	1	3	-0.411858	48.1003	-9.18918	-51.8057
  43	1	1	-0.147234	48.5055	-11.3267	-48.3247
  44	1	1	0.107751	53.3202	-12.273	-48.6397
  45	1	4	0.626409	55.3485	-12.9055	-48.1176
  46	1	2	0.00453	49.7312	-11.0479	-49.0006
  47	1	1	0.356173	47.256	-10.1731	-50.0272
  48	1	1	0.030551	48.4227	-9.90884	-50.6917
  49	1	1	-0.286062	47.2618	-10.8923	-48.8321
  50	1	5	-0.595919	46.1855	-9.65684	-50.6621
  51	1	1	-0.206338	49.6766	-10.3225	-50.224
  52	1	6	0.462884	46.7094	-9.057	-51.7426
  53	1	3	-0.691987	54.4957	-12.6698	-49.2066
  54	1	7	-0.710982	54.7327	-12.6939	-46.9409
  55	1	1	-0.062645	43.7029	-7.58871	-53.5158
  56	1	1	0.026743	45.8963	-8.34117	-52.7452
  57	1	1	-0.399843	44.2931	-6.99665	-54.6419
  58	1	1	-0.107518	44.5003	-8.25728	-52.579
  59	1	1	0.292439	45.6906	-7.05864	-54.8495
  60	1	1	-0.410418	46.4747	-7.73171	-53.8837
  61	1	8	0.148547	52.0336	-11.8708	-50.331
  62	1	8	0.179912	52.5994	-11.9616	-45.3529
  63	1	8	0.155197	50.4157	-11.2245	-46.3465
  64	1	9	0.340258	48.711	-8.81688	-52.5108
  65	1	8	0.137111	48.522	-11.8978	-47.4008
  66	1	8	0.181656	46.3294	-11.0996	-48.3182
  67	1	8	0.164633	50.5807	-10.0659	-50.7643
  68	1	9	0.430928	54.7211	-12.7398	-50.1804
  69	1	8	0.141007	42.6266	-7.53558	-53.3647
  70	1	8	0.203537	43.6548	-6.48749	-55.3542
  71	1	8	0.116715	44.0266	-8.71418	-51.7137
  72	1	8	0.18244	47.5472	-7.78008	-54.0431
  73	1	1	-0.155485	63.176	-13.4728	-39.8693
  74	1	2	-0.03785	62.0319	-14.1053	-40.4265
  75	1	1	-0.234781	61.3237	-14.7642	-38.145
  76	1	1	0.378053	62.4661	-14.1372	-37.6417
  77	1	1	-0.208553	61.1076	-14.7374	-39.5428
  78	1	3	-0.411858	59.3093	-13.803	-44.6533
  79	1	1	-0.147234	62.9261	-14.337	-42.7871
  80	1	1	0.107751	63.3415	-13.5074	-38.4819
  81	1	4	0.626409	64.0057	-13.3401	-36.4036
  82	1	2	0.00453	61.8229	-14.1264	-41.9079
  83	1	1	0.356173	61.4749	-14.1896	-44.7023
  84	1	1	0.030551	60.4113	-13.9749	-43.8678
  85	1	1	-0.286062	62.759	-14.3766	-44.1888
  86	1	5	-0.595919	61.1095	-14.1803	-46.0
  87	1	1	-0.206338	60.5307	-13.9442	-42.4724
  88	1	6	0.462884	59.7898	-13.9367	-45.9602
  89	1	3	-0.691987	64.336	-12.9749	-37.7175
  90	1	7	-0.710982	62.8658	-14.053	-36.3552
  91	1	1	-0.062645	58.7402	-13.845	-49.6011
  92	1	1	0.026743	58.9507	-13.8029	-47.167
  93	1	1	-0.399843	57.3822	-13.5053	-49.4984
  94	1	1	-0.107518	59.5173	-13.9834	-48.4434
  95	1	1	0.292439	56.7774	-13.3068	-48.236
  96	1	1	-0.410418	57.5779	-13.4765	-47.0835
  97	1	8	0.148547	63.8962	-12.9651	-40.5013
  98	1	8	0.179912	60.6375	-15.2594	-37.4663
  99	1	8	0.155197	60.2359	-15.2399	-39.9543
 100	1	9	0.340258	58.3632	-13.6139	-44.3734
 101	1	8	0.137111	63.9163	-14.4971	-42.3694
 102	1	8	0.181656	63.5924	-14.5471	-44.8615
 103	1	8	0.164633	59.6674	-13.7644	-41.8401
 104	1	9	0.430928	65.1314	-12.4466	-38.0187
 105	1	8	0.141007	59.1991	-13.9934	-50.5766
 106	1	8	0.203537	56.8031	-13.3923	-50.4071
 107	1	8	0.116715	60.5703	-14.2361	-48.5397
 108	1	8	0.18244	57.1141	-13.3199	-46.1147
 109	1	1	-0.155485	65.2273	-14.0064	-24.845
 110	1	2	-0.03785	64.0109	-14.2446	-25.5461
 111	1	1	-0.234781	62.789	-14.1593	-23.3901
 112	1	1	0.378053	64.0029	-13.9211	-22.7478
 113	1	1	-0.208553	62.8011	-14.3206	-24.792
 114	1	3	-0.411858	65.4331	-13.0992	-30.2367
 115	1	1	-0.147234	62.9946	-15.1832	-27.6825
 116	1	1	0.107751	65.1724	-13.8582	-23.4539
 117	1	4	0.626409	65.5226	-13.4953	-21.3236
 118	1	2	0.00453	63.9766	-14.3689	-27.0406
 119	1	1	0.356173	63.769	-14.4851	-29.8523
 120	1	1	0.030551	64.7381	-13.731	-29.249
 121	1	1	-0.286062	62.8821	-15.2443	-29.0891
 122	1	5	-0.595919	63.7922	-14.3563	-31.194
 123	1	1	-0.206338	64.8795	-13.6352	-27.8592
 124	1	6	0.462884	64.803	-13.5027	-31.4196
 125	1	3	-0.691987	66.1749	-13.6017	-22.5619
 126	1	7	-0.710982	64.1982	-13.6996	-21.4338
 127	1	1	-0.062645	66.698	-11.7552	-34.2054
 128	1	1	0.026743	65.1954	-13.0321	-32.7637
 129	1	1	-0.399843	65.9579	-12.1418	-35.3328
 130	1	1	-0.107518	66.3139	-12.1914	-32.9303
 131	1	1	0.292439	64.8134	-12.9642	-35.2083
 132	1	1	-0.410418	64.4613	-13.4034	-33.9129
 133	1	8	0.148547	66.1743	-13.9476	-25.3689
 134	1	8	0.179912	61.8701	-14.1961	-22.8153
 135	1	8	0.155197	61.8557	-14.4702	-25.3068
 136	1	9	0.340258	66.184	-12.4409	-30.1427
 137	1	8	0.137111	62.3084	-15.7706	-27.0793
 138	1	8	0.181656	62.1228	-15.8448	-29.5788
 139	1	8	0.164633	65.6255	-12.9807	-27.4235
 140	1	9	0.430928	67.1533	-13.4841	-22.744
 141	1	8	0.141007	67.5695	-11.113	-34.3167
 142	1	8	0.203537	66.267	-11.7814	-36.3067
 143	1	8	0.116715	66.9041	-11.8815	-32.0747
 144	1	8	0.18244	63.5869	-14.043	-33.7995
 145	1	1	-0.155485	59.5143	-11.507	-13.2789
 146	1	2	-0.03785	60.6672	-11.8849	-12.5358
 147	1	1	-0.234781	59.244	-12.1216	-10.5185
 148	1	1	0.378053	58.1423	-11.7445	-11.288
 149	1	1	-0.208553	60.5065	-12.19	-11.1505
 150	1	3	-0.411858	63.7809	-12.6674	-16.4016
 151	1	1	-0.147234	63.2062	-11.6598	-12.4701
 152	1	1	0.107751	58.2853	-11.4522	-12.6157
 153	1	4	0.626409	56.1949	-11.269	-12.0016
 154	1	2	0.00453	62.0124	-11.9613	-13.1935
 155	1	1	0.356173	64.5488	-12.069	-14.4293
 156	1	1	0.030551	63.4104	-12.3668	-15.1269
 157	1	1	-0.286062	64.4797	-11.7104	-13.0819
 158	1	5	-0.595919	65.6512	-12.1539	-15.204
 159	1	1	-0.206338	62.1317	-12.3267	-14.5623
 160	1	6	0.462884	65.169	-12.5092	-16.4062
 161	1	3	-0.691987	57.0522	-11.1329	-13.1026
 162	1	7	-0.710982	56.859	-11.6293	-10.8879
 163	1	1	-0.062645	68.1795	-12.6286	-18.7111
 164	1	1	0.026743	65.9992	-12.6853	-17.6125
 165	1	1	-0.399843	67.5809	-12.9587	-19.9387
 166	1	1	-0.107518	67.392	-12.4906	-17.5588
 167	1	1	0.292439	66.1857	-13.1662	-20.0312
 168	1	1	-0.410418	65.4189	-13.0317	-18.8528
 169	1	8	0.148547	59.5829	-11.2472	-14.3289
 170	1	8	0.179912	59.1136	-12.3625	-9.46901
 171	1	8	0.155197	61.3683	-12.5053	-10.5681
 172	1	9	0.340258	63.1998	-12.923	-17.1799
 173	1	8	0.137111	63.138	-11.3575	-11.429
 174	1	8	0.181656	65.3863	-11.4681	-12.5382
 175	1	8	0.164633	61.2606	-12.5854	-15.1533
 176	1	9	0.430928	56.8019	-10.8723	-14.0371
 177	1	8	0.141007	69.2543	-12.4707	-18.6472
 178	1	8	0.203537	68.2072	-13.0534	-20.818
 179	1	8	0.116715	67.8663	-12.2238	-16.6175
 180	1	8	0.18244	64.3473	-13.1858	-18.9259
 181	1	1	-0.155485	50.8846	-10.7741	-3.30989
 182	1	2	-0.03785	49.908	-11.5077	-4.03199
 183	1	1	-0.234781	48.8499	-12.1482	-1.884
 184	1	1	0.378053	49.8316	-11.4103	-1.21465
 185	1	1	-0.208553	48.8895	-12.1869	-3.29942
 186	1	3	-0.411858	52.2902	-11.4589	-8.43003
 187	1	1	-0.147234	48.7766	-11.4045	-6.31411
 188	1	1	0.107751	50.802	-10.7544	-1.91878
 189	1	4	0.626409	51.0457	-10.4097	0.221344
 190	1	2	0.00453	49.9595	-11.5212	-5.52568
 191	1	1	0.356173	50.0949	-11.3217	-8.33343
 192	1	1	0.030551	51.227	-11.48	-7.58225
 193	1	1	-0.286062	48.8375	-11.2963	-7.72367
 194	1	5	-0.595919	50.3828	-11.1668	-9.64378
 195	1	1	-0.206338	51.2139	-11.5724	-6.18923
 196	1	6	0.462884	51.7239	-11.2409	-9.68715
 197	1	3	-0.691987	51.5966	-10.1042	-1.02885
 198	1	7	-0.710982	49.9705	-11.2148	0.116479
 199	1	1	-0.062645	52.6634	-10.5987	-13.3026
 200	1	1	0.026743	52.5265	-11.0824	-10.9137
 201	1	1	-0.399843	54.06	-10.7407	-13.2601
 202	1	1	-0.107518	51.9037	-10.7777	-12.1382
 203	1	1	0.292439	54.72	-11.0694	-12.0536
 204	1	1	-0.410418	53.933	-11.2225	-10.8914
 205	1	8	0.148547	51.6581	-10.2145	-3.82376
 206	1	8	0.179912	48.082	-12.6643	-1.3182
 207	1	8	0.155197	48.1373	-12.7576	-3.83896
 208	1	9	0.340258	53.2677	-11.5345	-8.21263
 209	1	8	0.137111	47.8112	-11.3465	-5.81848
 210	1	8	0.181656	47.9454	-11.1675	-8.32687
 211	1	8	0.164633	52.1387	-11.6735	-5.63189
 212	1	9	0.430928	52.3826	-9.51241	-1.2169
 213	1	8	0.141007	52.1627	-10.3538	-14.2372
 214	1	8	0.203537	54.6253	-10.6085	-14.175
 215	1	8	0.116715	50.8233	-10.6647	-12.1842
 216	1	8	0.18244	54.4416	-11.4727	-9.96606
 217	1	1	-0.155485	46.6094	-12.8274	9.44391
 218	1	2	-0.03785	47.9582	-12.5669	9.8127
 219	1	1	-0.234781	47.628	-13.9123	11.8676
 220	1	1	0.378053	46.3108	-14.1373	11.4689
 221	1	1	-0.208553	48.4475	-13.1216	11.0331
 222	1	3	-0.411858	49.8474	-10.9515	5.43096
 223	1	1	-0.147234	49.8325	-10.88	9.53501
 224	1	1	0.107751	45.829	-13.6085	10.3034
 225	1	4	0.626409	44.2873	-14.7773	11.3266
 226	1	2	0.00453	48.8544	-11.7365	8.94726
 227	1	1	0.356173	50.6223	-10.2259	7.35935
 228	1	1	0.030551	49.6788	-11.0326	6.78278
 229	1	1	-0.286062	50.721	-10.1183	8.74626
 230	1	5	-0.595919	51.401	-9.62357	6.44051
 231	1	1	-0.206338	48.7765	-11.8017	7.52819
 232	1	6	0.462884	50.9304	-10.0817	5.26999
 233	1	3	-0.691987	44.5245	-13.9937	10.1866
 234	1	7	-0.710982	45.3754	-14.8625	12.1115
 235	1	1	-0.062645	53.2319	-8.51649	2.70688
 236	1	1	0.026743	51.5203	-9.72094	3.96708
 237	1	1	-0.399843	52.7149	-9.02574	1.50759
 238	1	1	-0.107518	52.6357	-8.86192	3.92486
 239	1	1	0.292439	51.5911	-9.885	1.50342
 240	1	1	-0.410418	51.0083	-10.2215	2.74644
 241	1	8	0.148547	46.1887	-12.415	8.53393
 242	1	8	0.179912	47.9957	-14.3453	12.7917
 243	1	8	0.155197	49.4824	-12.9545	11.3206
 244	1	9	0.340258	49.3517	-11.4389	4.70606
 245	1	8	0.137111	49.8957	-10.8043	10.617
 246	1	8	0.181656	51.4734	-9.47463	9.18901
 247	1	8	0.164633	48.0678	-12.4583	7.03615
 248	1	9	0.430928	43.8846	-13.7901	9.4447
 249	1	8	0.141007	54.0957	-7.85465	2.69901
 250	1	8	0.203537	53.1942	-8.74256	0.578294
 251	1	8	0.116715	53.0513	-8.46203	4.84638
 252	1	8	0.18244	50.1476	-10.8828	2.74275
 253	1	1	-0.155485	34.471	-15.6256	5.37139
 254	1	2	-0.03785	35.363	-14.7539	6.04975
 255	1	1	-0.234781	34.7163	-12.9375	4.49039
 256	1	1	0.378053	33.8317	-13.8252	3.8708
 257	1	1	-0.208553	35.4858	-13.4113	5.58067
 258	1	3	-0.411858	39.3729	-15.1375	9.08492
 259	1	1	-0.147234	35.5109	-16.1654	8.14667
 260	1	1	0.107751	33.7445	-15.1216	4.29314
 261	1	4	0.626409	32.3075	-14.7363	2.70145
 262	1	2	0.00453	36.1215	-15.2453	7.24264
 263	1	1	0.356173	37.5042	-16.2281	9.48776
 264	1	1	0.030551	38.104	-15.3491	8.62722
 265	1	1	-0.286062	36.1959	-16.6599	9.27614
 266	1	5	-0.595919	38.3221	-16.5857	10.4949
 267	1	1	-0.206338	37.4557	-14.825	7.50076
 268	1	6	0.462884	39.4594	-15.9205	10.2423
 269	1	3	-0.691987	32.8124	-15.7473	3.52834
 270	1	7	-0.710982	32.9498	-13.5648	2.88121
 271	1	1	-0.062645	41.703	-16.926	13.1169
 272	1	1	0.026743	40.6547	-16.0196	11.1034
 273	1	1	-0.399843	42.8895	-16.2513	12.8043
 274	1	1	-0.107518	40.5978	-16.8128	12.2669
 275	1	1	0.292439	43.0005	-15.4576	11.6428
 276	1	1	-0.410418	41.8644	-15.3455	10.8019
 277	1	8	0.148547	34.3549	-16.66	5.6758
 278	1	8	0.179912	34.7811	-11.9133	4.14138
 279	1	8	0.155197	36.1564	-12.7275	6.09416
 280	1	9	0.340258	40.0849	-14.5502	8.6937
 281	1	8	0.137111	34.4861	-16.4838	7.97736
 282	1	8	0.181656	35.7352	-17.3565	9.96849
 283	1	8	0.164633	37.9644	-14.1418	6.82928
 284	1	9	0.430928	32.4088	-16.6543	3.6707
 285	1	8	0.141007	41.6376	-17.5387	14.0138
 286	1	8	0.203537	43.7487	-16.3479	13.4653
 287	1	8	0.116715	39.6844	-17.3437	12.523
 288	1	8	0.18244	41.9279	-14.7392	9.90869
 289	1	1	-0.155485	24.2491	-7.4795	-0.667785
 290	1	2	-0.03785	25.6367	-7.74678	-0.822359
 291	1	1	-0.234781	26.0889	-5.31644	-0.646152
 292	1	1	0.378053	24.7189	-5.10445	-0.472179
 293	1	1	-0.208553	26.5433	-6.64514	-0.817027
 294	1	3	-0.411858	28.7582	-11.5727	0.193308
 295	1	1	-0.147234	25.355	-10.1398	-1.619
 296	1	1	0.107751	23.8432	-6.15363	-0.498423
 297	1	4	0.626409	22.8063	-4.29456	7.91334e-05
 298	1	2	0.00453	26.1248	-9.15819	-0.927781
 299	1	1	0.356173	26.9346	-11.8501	-1.01457
 300	1	1	0.030551	27.6992	-10.9157	-0.370462
 301	1	1	-0.286062	25.7522	-11.493	-1.66273
 302	1	5	-0.595919	27.4314	-13.0918	-0.871389
 303	1	1	-0.206338	27.3292	-9.56638	-0.28907
 304	1	6	0.462884	28.5389	-12.916	-0.134846
 305	1	3	-0.691987	22.6004	-5.66296	-0.231038
 306	1	7	-0.710982	24.0924	-3.94436	-0.184702
 307	1	1	-0.062645	29.493	-16.4515	0.788935
 308	1	1	0.026743	29.3294	-14.0486	0.382964
 309	1	1	-0.399843	30.6065	-16.2394	1.61204
 310	1	1	-0.107518	28.8645	-15.3627	0.176098
 311	1	1	0.292439	31.1435	-14.9442	1.7973
 312	1	1	-0.410418	30.5007	-13.8624	1.15269
 313	1	8	0.148547	23.5254	-8.28573	-0.627702
 314	1	8	0.179912	26.7732	-4.4753	-0.611961
 315	1	8	0.155197	27.6077	-6.82839	-0.940597
 316	1	9	0.340258	29.4446	-11.2088	0.848062
 317	1	8	0.137111	24.4382	-9.84389	-2.12115
 318	1	8	0.181656	25.1594	-12.2493	-2.16582
 319	1	8	0.164633	27.9155	-8.86043	0.288838
 320	1	9	0.430928	21.7529	-6.17761	-0.0913229
 321	1	8	0.141007	29.0918	-17.4535	0.650066
 322	1	8	0.203537	31.0607	-17.097	2.09426
 323	1	8	0.116715	27.9724	-15.5424	-0.418532
 324	1	8	0.18244	30.9001	-12.8635	1.30625
 325	1	1	-0.155485	23.6492	5.62959	5.50088
 326	1	2	-0.03785	22.4025	5.15112	5.0186
 327	1	1	-0.234781	21.2806	6.45464	6.81809
 328	1	1	0.378053	22.5374	6.87572	7.26615
 329	1	1	-0.208553	21.2197	5.59466	5.69018
 330	1	3	-0.411858	20.7233	1.00768	2.69042
 331	1	1	-0.147234	23.4995	4.00478	3.02843
 332	1	1	0.107751	23.6601	6.48929	6.59404
 333	1	4	0.626409	24.199	7.58953	8.3942
 334	1	2	0.00453	22.3885	4.12179	3.92151
 335	1	1	0.356173	22.6281	1.95356	2.13403
 336	1	1	0.030551	21.5073	2.10418	2.90403
 337	1	1	-0.286062	23.636	2.914	2.1455
 338	1	5	-0.595919	22.6394	0.77905	1.47744
 339	1	1	-0.206338	21.3511	3.15064	3.82416
 340	1	6	0.462884	21.4864	0.197796	1.83983
 341	1	3	-0.691987	24.7359	6.96823	7.26186
 342	1	7	-0.710982	22.8509	7.5758	8.38418
 343	1	1	-0.062645	19.4828	-2.99075	1.35849
 344	1	1	0.026743	21.1093	-1.17229	1.44014
 345	1	1	-0.399843	20.4383	-3.82963	0.763524
 346	1	1	-0.107518	19.8261	-1.68054	1.72069
 347	1	1	0.292439	21.7512	-3.37024	0.50465
 348	1	1	-0.410418	22.0439	-2.02357	0.809369
 349	1	8	0.148547	24.5892	5.29019	5.08471
 350	1	8	0.179912	20.3891	6.75494	7.35811
 351	1	8	0.155197	20.2485	5.24847	5.34857
 352	1	9	0.340258	19.866	0.762374	3.15058
 353	1	8	0.137111	24.2907	4.74673	3.04508
 354	1	8	0.181656	24.5112	2.78723	1.51741
 355	1	8	0.164633	20.4986	3.17113	4.49302
 356	1	9	0.430928	25.6978	6.75044	7.09716
 357	1	8	0.141007	18.4798	-3.36115	1.56116
 358	1	8	0.203537	20.1601	-4.84927	0.524687
 359	1	8	0.116715	19.0776	-1.05479	2.19547
 360	1	8	0.18244	23.0507	-1.65481	0.617669
 361	1	1	-0.155485	33.8242	4.75533	7.46667
 362	1	2	-0.03785	33.2358	4.461	8.72417
 363	1	1	-0.234781	33.5955	2.05064	8.31532
 364	1	1	0.378053	34.1306	2.38044	7.06836
 365	1	1	-0.208553	33.1569	3.10403	9.14844
 366	1	3	-0.411858	29.3303	7.4203	9.18977
 367	1	1	-0.147234	32.6709	5.76276	10.8528
 368	1	1	0.107751	34.2833	3.68732	6.69143
 369	1	4	0.626409	34.7987	2.34357	5.04999
 370	1	2	0.00453	32.4787	5.50666	9.46407
 371	1	1	0.356173	30.6967	7.15542	10.8918
 372	1	1	0.030551	30.5397	6.92983	9.55116
 373	1	1	-0.286062	31.7889	6.60636	11.5733
 374	1	5	-0.595919	29.6191	7.78213	11.4205
 375	1	1	-0.206338	31.3935	6.12456	8.79988
 376	1	6	0.462884	28.7635	7.85856	10.3869
 377	1	3	-0.691987	34.7655	3.69596	5.41662
 378	1	7	-0.710982	34.4407	1.53557	6.06431
 379	1	1	-0.062645	25.3803	8.84865	11.8097
 380	1	1	0.026743	27.3292	8.18821	10.4968
 381	1	1	-0.399843	24.5367	8.55546	10.7229
 382	1	1	-0.107518	26.7654	8.63782	11.7046
 383	1	1	0.292439	25.0629	8.06699	9.51022
 384	1	1	-0.410418	26.4676	7.94735	9.40344
 385	1	8	0.148547	33.8607	5.77388	7.09509
 386	1	8	0.179912	33.4628	1.00952	8.58926
 387	1	8	0.155197	32.6614	2.87133	10.0886
 388	1	9	0.340258	28.8777	7.34411	8.29955
 389	1	8	0.137111	33.4815	5.26048	11.375
 390	1	8	0.181656	31.8901	6.75583	12.6429
 391	1	8	0.164633	31.1724	5.88685	7.76452
 392	1	9	0.430928	34.9354	4.48613	4.82389
 393	1	8	0.141007	24.9591	9.19776	12.7504
 394	1	8	0.203537	23.4584	8.65935	10.8264
 395	1	8	0.116715	27.4039	8.81679	12.5664
 396	1	8	0.18244	26.8856	7.57519	8.48087
 397	1	1	-0.155485	32.6531	-7.53059	2.59503
 398	1	2	-0.03785	32.4565	-6.852	1.36231
 399	1	1	-0.234781	30.864	-8.62287	0.675919
 400	1	1	0.378053	31.0726	-9.24711	1.90866
 401	1	1	-0.208553	31.5619	-7.42353	0.409655
 402	1	3	-0.411858	34.2162	-2.29291	2.53119
 403	1	1	-0.147234	33.6228	-5.25853	-0.240512
 404	1	1	0.107751	31.9507	-8.71896	2.81463
 405	1	4	0.626409	31.0828	-10.5769	3.57256
 406	1	2	0.00453	33.1607	-5.56294	1.07456
 407	1	1	0.356173	34.4017	-3.10034	0.492389
 408	1	1	0.030551	33.9746	-3.39002	1.75986
 409	1	1	-0.286062	34.2489	-4.02768	-0.539611
 410	1	5	-0.595919	34.9052	-1.85228	0.403337
 411	1	1	-0.206338	33.3534	-4.59703	2.0997
 412	1	6	0.462884	34.7685	-1.36254	1.64591
 413	1	3	-0.691987	31.9854	-9.55391	3.88976
 414	1	7	-0.710982	30.5033	-10.385	2.36629
 415	1	1	-0.062645	35.8033	2.27225	1.36607
 416	1	1	0.026743	35.0953	0.0269867	2.0183
 417	1	1	-0.399843	35.5547	2.73726	2.66709
 418	1	1	-0.107518	35.5692	0.92807	1.0457
 419	1	1	0.292439	35.1053	1.85696	3.67777
 420	1	1	-0.410418	34.8998	0.502487	3.33475
 421	1	8	0.148547	33.3427	-7.14862	3.3394
 422	1	8	0.179912	30.1922	-9.05656	-0.0553387
 423	1	8	0.155197	31.3934	-6.91326	-0.535834
 424	1	9	0.340258	33.9702	-2.13803	3.49249
 425	1	8	0.137111	33.4945	-5.99074	-1.03312
 426	1	8	0.181656	34.5879	-3.78551	-1.54111
 427	1	8	0.164633	32.99	-4.77055	3.10661
 428	1	9	0.430928	32.5468	-9.47918	4.71615
 429	1	8	0.141007	36.1614	2.95308	0.596316
 430	1	8	0.203537	35.7352	3.78223	2.89097
 431	1	8	0.116715	35.7369	0.588641	0.0265077
 432	1	8	0.18244	34.5367	-0.16752	4.10735
 433	1	1	-0.155485	23.4325	-18.641	1.50651
 434	1	2	-0.03785	23.8078	-17.3831	2.05242
 435	1	1	-0.234781	21.6435	-16.4328	1.31517
 436	1	1	0.378053	21.3212	-17.6782	0.780187
 437	1	1	-0.208553	22.8963	-16.2911	1.94665
 438	1	3	-0.411858	27.7691	-14.6444	3.32762
 439	1	1	-0.147234	25.6426	-18.1267	3.66404
 440	1	1	0.107751	22.1871	-18.7341	0.872707
 441	1	4	0.626409	20.377	-19.2942	-0.222684
 442	1	2	0.00453	25.1196	-17.1772	2.73622
 443	1	1	0.356173	27.4499	-16.6268	4.22275
 444	1	1	0.030551	26.9812	-15.7468	3.28726
 445	1	1	-0.286062	26.8094	-17.8543	4.41886
 446	1	5	-0.595919	28.5051	-16.1211	4.90078
 447	1	1	-0.206338	25.8292	-15.9663	2.53353
 448	1	6	0.462884	28.6701	-14.901	4.35945
 449	1	3	-0.691987	21.6062	-19.7938	0.236194
 450	1	7	-0.710982	20.1956	-18.0073	0.12048
 451	1	1	-0.062645	31.4132	-13.1906	6.3431
 452	1	1	0.026743	29.6706	-13.9127	4.7968
 453	1	1	-0.399843	31.5729	-11.9977	5.61814
 454	1	1	-0.107518	30.4837	-14.1518	5.91954
 455	1	1	0.292439	30.8238	-11.7576	4.44313
 456	1	1	-0.410418	29.8411	-12.7036	4.08738
 457	1	8	0.148547	24.1015	-19.4932	1.55571
 458	1	8	0.179912	20.9421	-15.6096	1.23319
 459	1	8	0.155197	23.1616	-15.3298	2.38017
 460	1	9	0.340258	27.7188	-13.8215	2.75391
 461	1	8	0.137111	25.0977	-19.0495	3.84296
 462	1	8	0.181656	27.1799	-18.5457	5.16767
 463	1	8	0.164633	25.4741	-15.2177	1.83181
 464	1	9	0.430928	21.9755	-20.7158	0.102447
 465	1	8	0.141007	32.0312	-13.3876	7.21709
 466	1	8	0.203537	32.3375	-11.2981	5.93325
 467	1	8	0.116715	30.3787	-15.0774	6.47927
 468	1	8	0.18244	29.244	-12.5035	3.20552
 469	1	1	-0.155485	10.2737	-15.5087	-3.86668
 470	1	2	-0.03785	11.1853	-15.8573	-2.8318
 471	1	1	-0.234781	10.2563	-14.0269	-1.44106
 472	1	1	0.378053	9.38801	-13.7135	-2.48761
 473	1	1	-0.208553	11.1556	-15.1016	-1.62129
 474	1	3	-0.411858	15.5758	-18.1894	-2.11584
 475	1	1	-0.147234	11.8044	-18.1625	-3.72606
 476	1	1	0.107751	9.40115	-14.4368	-3.64802
 477	1	4	0.626409	7.99256	-12.7669	-3.7862
 478	1	2	0.00453	12.1589	-16.9834	-3.00407
 479	1	1	0.356173	13.9591	-19.1421	-3.2631
 480	1	1	0.030551	14.3132	-18.0052	-2.58966
 481	1	1	-0.286062	12.6994	-19.2498	-3.85657
 482	1	5	-0.595919	14.9381	-20.0718	-3.23229
 483	1	1	-0.206338	13.4569	-16.9112	-2.42909
 484	1	6	0.462884	15.9124	-19.485	-2.51739
 485	1	3	-0.691987	8.49128	-13.8718	-4.49394
 486	1	7	-0.710982	8.51073	-12.6914	-2.54736
 487	1	1	-0.062645	18.6501	-22.0926	-2.17648
 488	1	1	0.026743	17.1863	-20.137	-2.15831
 489	1	1	-0.399843	19.6028	-21.4007	-1.40943
 490	1	1	-0.107518	17.453	-21.4626	-2.54908
 491	1	1	0.292439	19.3776	-20.0629	-1.01403
 492	1	1	-0.410418	18.1626	-19.4554	-1.39968
 493	1	8	0.148547	10.2751	-16.0365	-4.81372
 494	1	8	0.179912	10.2373	-13.4386	-0.529792
 495	1	8	0.155197	11.8306	-15.3625	-0.810518
 496	1	9	0.340258	16.1325	-17.5659	-1.55866
 497	1	8	0.137111	10.8102	-18.2455	-4.15545
 498	1	8	0.181656	12.4245	-20.1586	-4.38065
 499	1	8	0.164633	13.7797	-16.0298	-1.88552
 500	1	9	0.430928	8.31525	-14.1035	-5.45211
 501	1	8	0.141007	18.8333	-23.1201	-2.48441
 502	1	8	0.203537	20.5225	-21.904	-1.13401
 503	1	8	0.116715	16.7216	-22.0114	-3.13719
 504	1	8	0.18244	17.9894	-18.4295	-1.09155
 505	1	1	-0.155485	6.31341	-1.85643	-0.559617
 506	1	2	-0.03785	6.44076	-2.54995	-1.78992
 507	1	1	-0.234781	7.17847	-0.41796	-2.84184
 508	1	1	0.378053	7.0529	0.213809	-1.59933
 509	1	1	-0.208553	6.86462	-1.80023	-2.93246
 510	1	3	-0.411858	5.53767	-7.00363	-4.00476
 511	1	1	-0.147234	6.43652	-4.81413	-0.655553
 512	1	1	0.107751	6.6198	-0.500781	-0.521522
 513	1	4	0.626409	6.93359	1.57911	0.0294756
 514	1	2	0.00453	6.2016	-4.03262	-1.82903
 515	1	1	0.356173	6.04303	-6.84333	-1.86957
 516	1	1	0.030551	5.74148	-6.11359	-2.98739
 517	1	1	-0.286062	6.35733	-6.21966	-0.666761
 518	1	5	-0.595919	6.11367	-8.15934	-2.12689
 519	1	1	-0.206338	5.82139	-4.71272	-3.02169
 520	1	6	0.462884	5.86802	-8.24374	-3.4414
 521	1	3	-0.691987	6.52691	0.339223	0.534052
 522	1	7	-0.710982	7.28375	1.50827	-1.27009
 523	1	1	-0.062645	5.95796	-10.7374	-6.30527
 524	1	1	0.026743	6.07031	-9.48453	-4.21409
 525	1	1	-0.399843	6.66378	-11.7996	-5.71666
 526	1	1	-0.107518	5.69434	-9.57327	-5.56799
 527	1	1	0.292439	7.09965	-11.7273	-4.37308
 528	1	1	-0.410418	6.73368	-10.5858	-3.62949
 529	1	8	0.148547	5.96309	-2.34843	0.339969
 530	1	8	0.179912	7.50818	0.15642	-3.70106
 531	1	8	0.155197	6.99044	-2.30218	-3.88719
 532	1	9	0.340258	5.4371	-6.80277	-4.98322
 533	1	8	0.137111	6.77073	-4.33577	0.259824
 534	1	8	0.181656	6.61626	-6.81539	0.202832
 535	1	8	0.164633	5.64397	-4.16862	-3.94287
 536	1	9	0.430928	5.99962	0.184648	1.37196
 537	1	8	0.141007	5.64524	-10.7995	-7.34582
 538	1	8	0.203537	6.90055	-12.6684	-6.31955
 539	1	8	0.116715	5.17958	-8.74914	-6.05101
 540	1	8	0.18244	7.06803	-10.5137	-2.59534
 541	1	1	-0.155485	6.85012	13.2329	-1.3345
 542	1	2	-0.03785	7.1271	12.4814	-0.158758
 543	1	1	-0.234781	6.16772	14.3554	1.17564
 544	1	1	0.378053	5.85083	15.0128	-0.0143709
 545	1	1	-0.208553	6.81614	13.0982	1.09676
 546	1	3	-0.411858	7.32785	7.7466	1.47416
 547	1	1	-0.147234	8.01823	10.4692	-1.49335
 548	1	1	0.107751	6.23968	14.4809	-1.20974
 549	1	4	0.626409	4.94849	16.2102	-1.52025
 550	1	2	0.00453	7.55434	11.0357	-0.261563
 551	1	1	0.356173	7.92499	8.23935	-0.580282
 552	1	1	0.030551	7.56928	8.77726	0.624151
 553	1	1	-0.286062	8.18873	9.07497	-1.6649
 554	1	5	-0.595919	7.87032	6.88815	-0.561329
 555	1	1	-0.206338	7.35109	10.1422	0.827175
 556	1	6	0.462884	7.49957	6.59886	0.695597
 557	1	3	-0.691987	5.7336	15.2663	-2.19424
 558	1	7	-0.710982	5.07581	16.1108	-0.182651
 559	1	1	-0.062645	6.44169	3.8393	3.05093
 560	1	1	0.026743	7.19972	5.24458	1.20209
 561	1	1	-0.399843	6.49277	2.71571	2.22043
 562	1	1	-0.107518	6.79117	5.09253	2.54299
 563	1	1	0.292439	6.90842	2.81038	0.86996
 564	1	1	-0.410418	7.26282	4.09124	0.381572
 565	1	8	0.148547	6.99442	12.8206	-2.3245
 566	1	8	0.179912	5.85547	14.7806	2.12307
 567	1	8	0.155197	7.02782	12.5807	2.02539
 568	1	9	0.340258	7.1189	7.79048	2.45529
 569	1	8	0.137111	8.20636	11.1079	-2.34953
 570	1	8	0.181656	8.4667	8.64618	-2.62312
 571	1	8	0.164633	6.96814	10.4862	1.7791
 572	1	9	0.430928	5.74619	15.0845	-3.17901
 573	1	8	0.141007	6.13071	3.74062	4.08936
 574	1	8	0.203537	6.22178	1.75561	2.64465
 575	1	8	0.116715	6.73966	5.94494	3.2112
 576	1	8	0.18244	7.58034	4.18327	-0.657343
 577	1	1	-0.155485	-2.01587	22.8769	3.27662
 578	1	2	-0.03785	-1.39513	23.5909	2.21815
 579	1	1	-0.234781	-1.86794	25.7152	3.4024
 580	1	1	0.378053	-2.46869	24.9748	4.42289
 581	1	1	-0.208553	-1.34289	25.0142	2.29223
 582	1	3	-0.411858	1.37758	20.099	-0.154568
 583	1	1	-0.147234	-1.2057	23.2991	-0.27984
 584	1	1	0.107751	-2.54914	23.6114	4.3411
 585	1	4	0.626409	-3.4183	24.3301	6.21616
 586	1	2	0.00453	-0.845762	22.8714	1.02999
 587	1	1	0.356173	0.135402	21.5532	-1.2488
 588	1	1	0.030551	0.506238	21.1429	0.00350338
 589	1	1	-0.286062	-0.726755	22.6353	-1.42871
 590	1	5	-0.595919	0.709817	20.8112	-2.21263
 591	1	1	-0.206338	0.0322841	21.7597	1.17116
 592	1	6	0.462884	1.47483	19.9354	-1.54205
 593	1	3	-0.691987	-3.19107	23.1702	5.45965
 594	1	7	-0.710982	-2.99845	25.4354	5.57557
 595	1	1	-0.062645	3.07055	17.9518	-4.33768
 596	1	1	0.026743	2.32721	18.941	-2.22829
 597	1	1	-0.399843	3.93689	17.1015	-3.64048
 598	1	1	-0.107518	2.28185	18.8673	-3.63517
 599	1	1	0.292439	4.02714	17.1432	-2.22887
 600	1	1	-0.410418	3.19991	18.0624	-1.5373
 601	1	8	0.148547	-2.09713	21.7959	3.24468
 602	1	8	0.179912	-1.81055	26.7959	3.48022
 603	1	8	0.155197	-0.867139	25.5701	1.48716
 604	1	9	0.340258	1.86375	19.5758	0.551468
 605	1	8	0.137111	-1.88128	24.1431	-0.394961
 606	1	8	0.181656	-1.00442	22.9484	-2.42925
 607	1	8	0.164633	0.347295	21.4218	2.15266
 608	1	9	0.430928	-3.35285	22.2234	5.74128
 609	1	8	0.141007	3.00939	17.9096	-5.42343
 610	1	8	0.203537	4.54046	16.4067	-4.21176
 611	1	8	0.116715	1.62157	19.5234	-4.19658
 612	1	8	0.18244	3.26226	18.0903	-0.453876
 613	1	1	-0.155485	-4.39579	29.9823	16.2183
 614	1	2	-0.03785	-4.63341	30.6809	15.0001
 615	1	1	-0.234781	-5.30432	32.6715	16.3162
 616	1	1	0.378053	-5.06897	31.9419	17.4819
 617	1	1	-0.208553	-5.08321	32.0337	15.0752
 618	1	3	-0.411858	-4.6755	26.7211	11.921
 619	1	1	-0.147234	-4.07777	30.7321	12.5057
 620	1	1	0.107751	-4.62508	30.6504	17.4246
 621	1	4	0.626409	-4.90058	31.2857	19.4987
 622	1	2	0.00453	-4.45155	30.0016	13.6754
 623	1	1	0.356173	-4.15451	28.7235	11.1743
 624	1	1	0.030551	-4.51104	28.0192	12.2907
 625	1	1	-0.286062	-3.92732	30.0991	11.2496
 626	1	5	-0.595919	-4.0763	27.9284	10.0858
 627	1	1	-0.206338	-4.67215	28.6033	13.5495
 628	1	6	0.462884	-4.40236	26.7115	10.5508
 629	1	3	-0.691987	-4.49625	30.201	18.7077
 630	1	7	-0.710982	-5.24495	32.3515	18.7531
 631	1	1	-0.062645	-4.89113	23.0947	9.51679
 632	1	1	0.026743	-4.45316	25.4892	9.72361
 633	1	1	-0.399843	-4.43622	23.1197	8.18961