pySIMM System Object

1442 atoms
1641 bonds
2720 angles
4316 dihedrals
480 impropers

10 atom types
15 bond types
26 angle types
12 dihedral types
2 improper types

-170.927046 170.927046 xlo xhi
-170.927046 170.927046 ylo yhi
-170.927046 170.927046 zlo zhi

Masses

   1	12.01	# ca
   2	12.01	# cp
   3	14.01	# na
   4	12.01	# cc
   5	14.01	# nc
   6	12.01	# cd
   7	14.01	# nd
   8	1.008	# ha
   9	1.008	# hn
  10	1.008	# h5

Pair Coeffs

   1	0.086	3.3996695084235347	# ca
   2	0.086	3.3996695084235347	# cp
   3	0.17	3.249998523775958	# na
   4	0.086	3.3996695084235347	# cc
   5	0.17	3.249998523775958	# nc
   6	0.086	3.3996695084235347	# cd
   7	0.17	3.249998523775958	# nd
   8	0.015	2.59964245953351	# ha
   9	0.0157	1.069078461768407	# hn
  10	0.015	2.421462715905442	# h5

Bond Coeffs

   1	425.8	1.3802	# cd,na
   2	525.4	1.3172	# cc,nd
   3	345.8	1.086	# ca,ha
   4	351.4	1.4854	# cp,cp
   5	467.7	1.3517	# ca,nc
   6	385.1	1.4555	# ca,cd
   7	467.7	1.3517	# ca,nd
   8	525.4	1.3172	# cd,nc
   9	450.2	1.4058	# ca,cp
  10	425.8	1.3802	# cc,na
  11	420.5	1.384	# ca,na
  12	351.7	1.0819	# cc,h5
  13	461.1	1.3984	# ca,ca
  14	408.4	1.01	# hn,na
  15	385.1	1.4555	# ca,cc

Angle Coeffs

   1	48.18	119.88	# ca,ca,ha
   2	66.28	123.45	# ca,cd,na
   3	64.05	121.11	# ca,cp,cp
   4	46.75	125.5	# cc,na,hn
   5	67.6	123.24	# ca,cd,nc
   6	46.75	125.5	# cd,na,hn
   7	72.48	104.88	# ca,nc,cd
   8	74.9	112.22	# na,cd,nc
   9	66.62	120.02	# ca,ca,ca
  10	46.63	125.54	# ca,na,hn
  11	65.02	120.79	# ca,ca,cd
  12	47.98	119.86	# cp,ca,ha
  13	69.46	119.72	# ca,ca,nc
  14	72.48	104.88	# ca,nd,cc
  15	69.08	118.34	# ca,ca,na
  16	66.72	118.38	# ca,cp,ca
  17	69.46	119.72	# ca,ca,nd
  18	74.9	112.22	# na,cc,nd
  19	67.4	113.15	# ca,na,cc
  20	66.26	120.69	# ca,ca,cp
  21	50.58	125.52	# h5,cc,nd
  22	67.4	113.15	# ca,na,cd
  23	49.58	121.55	# h5,cc,na
  24	66.28	123.45	# ca,cc,na
  25	67.6	123.24	# ca,cc,nd
  26	65.02	120.79	# ca,ca,cc

Dihedral Coeffs

   1	1	4.8	2	180	# X,ca,nc,X
   2	1	4.8	2	180	# X,ca,nd,X
   3	1	4.0	2	180	# X,ca,cd,X
   4	1	4.75	2	180	# X,cd,nc,X
   5	1	4.75	2	180	# X,cc,nd,X
   6	1	1.7	2	180	# X,cc,na,X
   7	1	1.0	2	180	# X,cp,cp,X
   8	1	3.625	2	180	# X,ca,cp,X
   9	1	0.3	2	180	# X,ca,na,X
  10	1	1.7	2	180	# X,cd,na,X
  11	1	3.625	2	180	# X,ca,ca,X
  12	1	4.0	2	180	# X,ca,cc,X

Improper Coeffs

   1	1.1	-1	2	# na,X,X,hn
   2	1.1	-1	2	# ca,X,X,ha

Atoms

   1	1	1	-0.155485	45.5257	-61.2743	0.769083
   2	1	2	-0.03785	45.3183	-62.6826	0.794494
   3	1	1	-0.234781	45.5135	-62.716	-1.6787
   4	1	1	0.378053	45.7018	-61.3338	-1.65287
   5	1	1	-0.208553	45.3218	-63.3854	-0.448933
   6	1	3	-0.411858	45.405	-66.673	3.86945
   7	1	1	-0.147234	44.4214	-62.7497	3.17785
   8	1	1	0.107751	45.7118	-60.6512	-0.468708
   9	1	4	0.626409	45.9953	-59.2874	-2.15482
  10	1	2	0.00453	45.0723	-63.4039	2.08765
  11	1	1	0.356173	44.5362	-64.755	4.50778
  12	1	1	0.030551	45.1666	-65.3902	3.4733
  13	1	1	-0.286062	44.151	-63.4187	4.39268
  14	1	5	-0.595919	44.3459	-65.5743	5.56165
  15	1	1	-0.206338	45.4543	-64.765	2.25427
  16	1	6	0.462884	44.8698	-66.7436	5.1593
  17	1	3	-0.691987	45.9078	-59.3318	-0.755675
  18	1	7	-0.710982	45.8755	-60.5094	-2.70537
  19	1	1	-0.062645	44.2451	-69.1103	8.06025
  20	1	1	0.026743	44.8618	-67.9702	5.98051
  21	1	1	-0.399843	44.7985	-70.3049	7.57435
  22	1	1	-0.107518	44.28	-67.9539	7.26569
  23	1	1	0.292439	45.3852	-70.3424	6.30338
  24	1	1	-0.410418	45.4172	-69.185	5.51182
  25	1	8	0.148547	45.5486	-60.6928	1.68356
  26	1	8	0.179912	45.5007	-63.2415	-2.62721
  27	1	8	0.155197	45.1397	-64.4561	-0.461577
  28	1	9	0.340258	45.8367	-67.4174	3.35323
  29	1	8	0.137111	44.0932	-61.7207	3.06814
  30	1	8	0.181656	43.6424	-62.9289	5.21602
  31	1	8	0.164633	45.9635	-65.3056	1.46453
  32	1	9	0.430928	45.9616	-58.5593	-0.119114
  33	1	8	0.141007	43.7876	-69.0755	9.04697
  34	1	8	0.203537	44.7751	-71.206	8.17966
  35	1	8	0.116715	43.8449	-67.0357	7.65216
  36	1	8	0.18244	45.8759	-69.2471	4.53254
  37	1	1	-0.155485	46.6849	-60.1805	-12.3661
  38	1	2	-0.03785	46.3693	-58.793	-12.3355
  39	1	1	-0.234781	45.7683	-58.9254	-14.7424
  40	1	1	0.378053	46.0795	-60.2857	-14.7188
  41	1	1	-0.208553	45.9139	-58.1851	-13.546
  42	1	3	-0.411858	46.3307	-58.2194	-7.33609
  43	1	1	-0.147234	46.7302	-56.5954	-11.0793
  44	1	1	0.107751	46.5236	-60.8748	-13.5683
  45	1	4	0.626409	46.3721	-62.3417	-15.1833
  46	1	2	0.00453	46.4862	-58.0033	-11.0618
  47	1	1	0.356173	46.6607	-56.5031	-8.67139
  48	1	1	0.030551	46.4401	-57.8524	-8.64292
  49	1	1	-0.286062	46.8152	-55.8377	-9.88843
  50	1	5	-0.595919	46.6948	-55.9716	-7.4309
  51	1	1	-0.206338	46.3404	-58.6377	-9.796
  52	1	6	0.462884	46.4925	-57.0272	-6.62562
  53	1	3	-0.691987	46.7309	-62.1944	-13.8359
  54	1	7	-0.710982	45.9824	-61.1755	-15.7302
  55	1	1	-0.062645	46.5164	-55.6206	-3.10338
  56	1	1	0.026743	46.44	-56.9462	-5.15358
  57	1	1	-0.399843	46.3248	-56.7805	-2.3352
  58	1	1	-0.107518	46.5761	-55.706	-4.50161
  59	1	1	0.292439	46.1926	-58.0455	-2.95267
  60	1	1	-0.410418	46.2508	-58.102	-4.36274
  61	1	8	0.148547	47.0516	-60.6947	-11.486
  62	1	8	0.179912	45.409	-58.4696	-15.6586
  63	1	8	0.155197	45.641	-57.1337	-13.5498
  64	1	9	0.340258	46.1557	-59.1311	-6.95293
  65	1	8	0.137111	46.8681	-56.0863	-12.0284
  66	1	8	0.181656	46.9962	-54.7684	-9.90175
  67	1	8	0.164633	46.1284	-59.6971	-9.71662
  68	1	9	0.430928	47.051	-62.9105	-13.2128
  69	1	8	0.141007	46.6189	-54.6511	-2.62025
  70	1	8	0.203537	46.2832	-56.6917	-1.25586
  71	1	8	0.116715	46.7227	-54.7999	-5.0844
  72	1	8	0.18244	46.1481	-59.0734	-4.83497
  73	1	1	-0.155485	42.7705	-64.8909	-25.8027
  74	1	2	-0.03785	43.6205	-64.1296	-24.9504
  75	1	1	-0.234781	43.3495	-62.1925	-26.4744
  76	1	1	0.378053	42.5048	-62.971	-27.2659
  77	1	1	-0.208553	43.9069	-62.7799	-25.3167
  78	1	3	-0.411858	45.1832	-63.9672	-20.1618
  79	1	1	-0.147234	44.4656	-66.1119	-23.5905
  80	1	1	0.107751	42.2458	-64.2736	-26.9434
  81	1	4	0.626409	41.116	-63.6702	-28.7197
  82	1	2	0.00453	44.1749	-64.7175	-23.6859
  83	1	1	0.356173	45.1686	-65.8508	-21.3013
  84	1	1	0.030551	44.9001	-64.512	-21.3809
  85	1	1	-0.286062	44.9634	-66.6865	-22.3999
  86	1	5	-0.595919	45.6163	-66.2031	-20.0799
  87	1	1	-0.206338	44.4051	-63.9033	-22.5405
  88	1	6	0.462884	45.6193	-65.05	-19.3914
  89	1	3	-0.691987	41.376	-64.7624	-27.876
  90	1	7	-0.710982	41.8219	-62.5838	-28.3607
  91	1	1	-0.062645	46.8275	-66.0532	-15.9455
  92	1	1	0.026743	46.0291	-64.9528	-17.9762
  93	1	1	-0.399843	46.8087	-64.8274	-15.2643
  94	1	1	-0.107518	46.4405	-66.1118	-17.2898
  95	1	1	0.292439	46.4026	-63.639	-15.9147
  96	1	1	-0.410418	46.0178	-63.7248	-17.2729
  97	1	8	0.148547	42.5006	-65.9119	-25.5586
  98	1	8	0.179912	43.5465	-61.1618	-26.7495
  99	1	8	0.155197	44.5716	-62.1846	-24.6969
 100	1	9	0.340258	45.0953	-63.0109	-19.8669
 101	1	8	0.137111	44.3174	-66.7503	-24.4562
 102	1	8	0.181656	45.1852	-67.7453	-22.323
 103	1	8	0.164633	44.1775	-62.8432	-22.5521
 104	1	9	0.430928	40.9375	-65.6624	-27.8992
 105	1	8	0.141007	47.139	-66.9629	-15.436
 106	1	8	0.203537	47.1096	-64.8082	-14.2238
 107	1	8	0.116715	46.4581	-67.0704	-17.8022
 108	1	8	0.18244	45.7045	-62.8129	-17.7716
 109	1	1	-0.155485	35.3438	-57.0226	-36.3118
 110	1	2	-0.03785	35.8522	-56.6332	-35.0422
 111	1	1	-0.234781	34.5483	-54.5294	-35.198
 112	1	1	0.378053	34.0802	-54.9468	-36.4442
 113	1	1	-0.208553	35.4389	-55.3779	-34.5036
 114	1	3	-0.411858	37.529	-61.0145	-33.2
 115	1	1	-0.147234	37.8496	-56.9336	-33.5083
 116	1	1	0.107751	34.4729	-56.1468	-36.971
 117	1	4	0.626409	33.1115	-55.1014	-38.3313
 118	1	2	0.00453	36.7938	-57.5103	-34.2753
 119	1	1	0.356173	38.5043	-59.1047	-32.7041
 120	1	1	0.030551	37.5116	-59.6734	-33.4553
 121	1	1	-0.286062	38.7122	-57.7257	-32.7201
 122	1	5	-0.595919	39.1597	-60.017	-31.9615
 123	1	1	-0.206338	36.6356	-58.9242	-34.2529
 124	1	6	0.462884	38.5451	-61.1745	-32.2494
 125	1	3	-0.691987	33.8705	-56.2737	-38.1877
 126	1	7	-0.710982	33.2347	-54.2901	-37.2659
 127	1	1	-0.062645	38.4674	-64.8344	-31.2232
 128	1	1	0.026743	38.8709	-62.4516	-31.5806
 129	1	1	-0.399843	39.4239	-64.8527	-30.1948
 130	1	1	-0.107518	38.1868	-63.6401	-31.904
 131	1	1	0.292439	40.1342	-63.6816	-29.8417
 132	1	1	-0.410418	39.852	-62.5035	-30.5661
 133	1	8	0.148547	35.6415	-57.9595	-36.7691
 134	1	8	0.179912	34.2263	-53.5779	-34.7895
 135	1	8	0.155197	35.7997	-55.073	-33.5243
 136	1	9	0.340258	36.8987	-61.7177	-33.5384
 137	1	8	0.137111	37.9951	-55.8569	-33.5259
 138	1	8	0.181656	39.5022	-57.2899	-32.1177
 139	1	8	0.164633	35.8295	-59.4036	-34.7969
 140	1	9	0.430928	33.9496	-57.0286	-38.8417
 141	1	8	0.141007	37.9292	-65.7432	-31.4854
 142	1	8	0.203537	39.614	-65.7828	-29.672
 143	1	8	0.116715	37.4292	-63.6458	-32.6804
 144	1	8	0.18244	40.3824	-61.5908	-30.2982
 145	1	1	-0.155485	26.9931	-46.5496	-38.5374
 146	1	2	-0.03785	27.0691	-46.8229	-39.9325
 147	1	1	-0.234781	26.0611	-44.5931	-40.3748
 148	1	1	0.378053	25.9856	-44.3812	-38.9983
 149	1	1	-0.208553	26.6083	-45.8129	-40.8338
 150	1	3	-0.411858	29.8289	-51.0714	-39.783
 151	1	1	-0.147234	27.1101	-48.6574	-41.6944
 152	1	1	0.107751	26.4527	-45.3249	-38.1261
 153	1	4	0.626409	25.6259	-43.6035	-37.0507
 154	1	2	0.00453	27.5813	-48.1415	-40.4481
 155	1	1	0.356173	28.4937	-50.612	-41.4699
 156	1	1	0.030551	28.9467	-50.1445	-40.2666
 157	1	1	-0.286062	27.5646	-49.8878	-42.2142
 158	1	5	-0.595919	29.0431	-51.7979	-41.794
 159	1	1	-0.206338	28.5253	-48.9232	-39.7179
 160	1	6	0.462884	29.8556	-52.0726	-40.762
 161	1	3	-0.691987	26.2453	-44.8495	-36.8655
 162	1	7	-0.710982	25.4683	-43.3118	-38.3545
 163	1	1	-0.062645	31.3834	-55.4045	-41.7192
 164	1	1	0.026743	30.6708	-53.3035	-40.69
 165	1	1	-0.399843	32.1916	-55.6851	-40.6082
 166	1	1	-0.107518	30.6274	-54.2266	-41.7538
 167	1	1	0.292439	32.2625	-54.7904	-39.5156
 168	1	1	-0.410418	31.4991	-53.5998	-39.5812
 169	1	8	0.148547	27.3094	-47.2819	-37.8041
 170	1	8	0.179912	25.6985	-43.8341	-41.0593
 171	1	8	0.155197	26.6801	-45.9745	-41.9055
 172	1	9	0.340258	30.3542	-51.0508	-38.9271
 173	1	8	0.137111	26.3645	-48.106	-42.2585
 174	1	8	0.181656	27.2057	-50.2776	-43.1606
 175	1	8	0.164633	28.9269	-48.5787	-38.7721
 176	1	9	0.430928	26.4565	-45.2969	-35.9942
 177	1	8	0.141007	31.3359	-56.098	-42.5565
 178	1	8	0.203537	32.7655	-56.604	-40.6031
 179	1	8	0.116715	30.0032	-54.0288	-42.6216
 180	1	8	0.18244	31.5527	-52.9127	-38.7426
 181	1	1	-0.155485	19.3727	-35.2798	-38.5129
 182	1	2	-0.03785	20.1848	-34.7882	-37.4561
 183	1	1	-0.234781	19.3634	-32.4966	-37.934
 184	1	1	0.378053	18.5735	-33.0257	-38.9565
 185	1	1	-0.208553	20.164	-33.3873	-37.1817
 186	1	3	-0.411858	22.9829	-38.9013	-36.6021
 187	1	1	-0.147234	21.0984	-35.5233	-35.2101
 188	1	1	0.107751	18.5873	-34.3672	-39.222
 189	1	4	0.626409	17.2031	-33.3276	-40.5553
 190	1	2	0.00453	20.9919	-35.7301	-36.6169
 191	1	1	0.356173	22.387	-37.5423	-34.9745
 192	1	1	0.030551	22.3163	-37.7398	-36.3268
 193	1	1	-0.286062	21.7913	-36.4298	-34.3793
 194	1	5	-0.595919	23.048	-38.538	-34.3541
 195	1	1	-0.206338	21.6249	-36.8727	-37.1842
 196	1	6	0.462884	23.4003	-39.3668	-35.3499
 197	1	3	-0.691987	17.709	-34.5951	-40.237
 198	1	7	-0.710982	17.729	-32.3637	-39.7766
 199	1	1	-0.062645	25.0609	-42.2415	-33.5331
 200	1	1	0.026743	24.1208	-40.6366	-35.1196
 201	1	1	-0.399843	25.4429	-43.0769	-34.5919
 202	1	1	-0.107518	24.4118	-41.0307	-33.7987
 203	1	1	0.292439	25.1929	-42.7135	-35.9354
 204	1	1	-0.410418	24.5234	-41.4887	-36.1774
 205	1	8	0.148547	19.33	-36.3392	-38.739
 206	1	8	0.179912	19.3423	-31.4314	-37.7304
 207	1	8	0.155197	20.7842	-32.9916	-36.3812
 208	1	9	0.340258	23.1179	-39.3519	-37.4896
 209	1	8	0.137111	20.6013	-34.6699	-34.7571
 210	1	8	0.181656	21.8511	-36.2915	-33.3053
 211	1	8	0.164633	21.5798	-37.0643	-38.2506
 212	1	9	0.430928	17.4899	-35.4653	-40.6826
 213	1	8	0.141007	25.2649	-42.5268	-32.503
 214	1	8	0.203537	25.9497	-44.0057	-34.3598
 215	1	8	0.116715	24.1183	-40.3991	-32.9639
 216	1	8	0.18244	24.3251	-41.2106	-37.2079
 217	1	1	-0.155485	14.0026	-23.4972	-43.0227
 218	1	2	-0.03785	14.2539	-24.2341	-44.2107
 219	1	1	-0.234781	14.7629	-22.1254	-45.3989
 220	1	1	0.378053	14.4768	-21.4361	-44.2206
 221	1	1	-0.208553	14.6394	-23.5311	-45.3884
 222	1	3	-0.411858	14.9729	-28.9821	-42.7216
 223	1	1	-0.147234	13.2875	-26.2856	-45.313
 224	1	1	0.107751	14.1205	-22.104	-43.0805
 225	1	4	0.626409	13.9772	-19.9405	-42.7968
 226	1	2	0.00453	14.0565	-25.7108	-44.26
 227	1	1	0.356173	13.7194	-28.4925	-44.4631
 228	1	1	0.030551	14.4569	-27.948	-43.4455
 229	1	1	-0.286062	13.105	-27.6808	-45.4168
 230	1	5	-0.595919	13.7271	-29.8389	-44.4286
 231	1	1	-0.206338	14.6462	-26.5686	-43.2939
 232	1	6	0.462884	14.5146	-30.127	-43.3811
 233	1	3	-0.691987	13.8237	-21.168	-42.1326
 234	1	7	-0.710982	14.4204	-20.1013	-44.0551
 235	1	1	-0.062645	14.7805	-33.9029	-43.4479
 236	1	1	0.026743	14.8984	-31.5021	-43.0131
 237	1	1	-0.399843	15.6882	-34.1426	-42.4056
 238	1	1	-0.107518	14.3965	-32.5911	-43.7516
 239	1	1	0.292439	16.2161	-33.0767	-41.6407
 240	1	1	-0.410418	15.794	-31.7646	-41.9511
 241	1	8	0.148547	13.6726	-23.9959	-42.1178
 242	1	8	0.179912	15.028	-21.5778	-46.2969
 243	1	8	0.155197	14.8332	-24.0903	-46.3009
 244	1	9	0.340258	15.6057	-28.9477	-41.9423
 245	1	8	0.137111	12.829	-25.6328	-46.0515
 246	1	8	0.181656	12.5311	-28.1261	-46.2222
 247	1	8	0.164633	15.2616	-26.1684	-42.4951
 248	1	9	0.430928	13.4462	-21.3192	-41.218
 249	1	8	0.141007	14.3799	-34.729	-44.0323
 250	1	8	0.203537	15.9781	-35.1651	-42.1952
 251	1	8	0.116715	13.7065	-32.4194	-44.574
 252	1	8	0.18244	16.2042	-30.9465	-41.3675
 253	1	1	-0.155485	10.5664	-17.6542	-32.6382
 254	1	2	-0.03785	9.62999	-17.7586	-33.6982
 255	1	1	-0.234781	7.88506	-18.4231	-32.0883
 256	1	1	0.378053	8.82369	-18.2573	-31.0678
 257	1	1	-0.208553	8.2966	-18.1641	-33.4136
 258	1	3	-0.411858	11.7998	-18.1267	-38.211
 259	1	1	-0.147234	9.67061	-15.9632	-35.4489
 260	1	1	0.107751	10.1235	-17.9297	-31.3425
 261	1	4	0.626409	9.73741	-17.8091	-29.202
 262	1	2	0.00453	10.0038	-17.2899	-35.0556
 263	1	1	0.356173	10.8153	-16.2763	-37.538
 264	1	1	0.030551	11.1055	-17.566	-37.1802
 265	1	1	-0.286062	10.0827	-15.4423	-36.6929
 266	1	5	-0.595919	11.318	-15.9646	-38.7465
 267	1	1	-0.206338	10.7364	-18.115	-35.9463
 268	1	6	0.462884	11.9073	-17.0988	-39.1541
 269	1	3	-0.691987	10.7596	-17.7093	-30.1552
 270	1	7	-0.710982	8.5715	-18.1944	-29.7499
 271	1	1	-0.062645	13.2912	-16.2026	-42.5576
 272	1	1	0.026743	12.5659	-17.2367	-40.4666
 273	1	1	-0.399843	13.7326	-17.4487	-43.0205
 274	1	1	-0.107518	12.6951	-16.105	-41.2957
 275	1	1	0.292439	13.6008	-18.6139	-42.2353
 276	1	1	-0.410418	13.0444	-18.4833	-40.939
 277	1	8	0.148547	11.5745	-17.2961	-32.8204
 278	1	8	0.179912	6.85395	-18.657	-31.8398
 279	1	8	0.155197	7.57351	-18.2286	-34.2246
 280	1	9	0.340258	12.1727	-19.0551	-38.2769
 281	1	8	0.137111	9.10594	-15.3324	-34.7692
 282	1	8	0.181656	9.85122	-14.4274	-36.999
 283	1	8	0.164633	11.0015	-19.1315	-35.6729
 284	1	9	0.430928	11.645	-17.258	-30.013
 285	1	8	0.141007	13.3867	-15.3173	-43.183
 286	1	8	0.203537	14.1599	-17.5268	-44.0183
 287	1	8	0.116715	12.3358	-15.1359	-40.9586
 288	1	8	0.18244	12.9283	-19.3659	-40.3251
 289	1	1	-0.155485	1.27399	-14.2063	-22.5347
 290	1	2	-0.03785	1.85572	-15.1296	-23.45
 291	1	1	-0.234781	-0.40656	-15.4896	-24.4245
 292	1	1	0.378053	-0.923202	-14.5672	-23.5125
 293	1	1	-0.208553	0.980345	-15.7722	-24.3821
 294	1	3	-0.411858	6.24685	-16.4815	-25.5372
 295	1	1	-0.147234	4.14801	-15.0908	-22.3053
 296	1	1	0.107751	-0.102565	-13.9737	-22.5964
 297	1	4	0.626409	-2.15132	-13.2288	-22.3981
 298	1	2	0.00453	3.34328	-15.3815	-23.4525
 299	1	1	0.356173	6.15525	-15.7334	-23.4733
 300	1	1	0.030551	5.39574	-16.0465	-24.567
 301	1	1	-0.286062	5.5521	-15.2543	-22.3107
 302	1	5	-0.595919	7.47363	-15.9251	-23.6969
 303	1	1	-0.206338	4.00621	-15.8805	-24.6108
 304	1	6	0.462884	7.51408	-16.3864	-24.957
 305	1	3	-0.691987	-0.863965	-13.1268	-21.8501
 306	1	7	-0.710982	-2.19397	-14.1175	-23.4082
 307	1	1	-0.062645	11.1917	-16.6528	-25.8562
 308	1	1	0.026743	8.75647	-16.6939	-25.6879
 309	1	1	-0.399843	11.1147	-17.0822	-27.1925
 310	1	1	-0.107518	10.0185	-16.458	-25.1107
 311	1	1	0.292439	9.86664	-17.3848	-27.7826
 312	1	1	-0.410418	8.70676	-17.1935	-27.0055
 313	1	8	0.148547	1.87632	-13.6606	-21.8197
 314	1	8	0.179912	-1.06759	-15.9613	-25.1439
 315	1	8	0.155197	1.37633	-16.5014	-25.0817
 316	1	9	0.340258	6.04629	-16.7181	-26.4941
 317	1	8	0.137111	3.68146	-14.7362	-21.3929
 318	1	8	0.181656	6.15988	-15.0171	-21.4444
 319	1	8	0.164633	3.46286	-16.1016	-25.5211
 320	1	9	0.430928	-0.562346	-12.4931	-21.1358
 321	1	8	0.141007	12.1581	-16.438	-25.4023
 322	1	8	0.203537	12.0312	-17.2075	-27.7587
 323	1	8	0.116715	10.0896	-16.0901	-24.0899
 324	1	8	0.18244	7.74727	-17.3852	-27.4769
 325	1	1	-0.155485	-10.8376	-8.89494	-27.8266
 326	1	2	-0.03785	-11.0341	-9.02796	-26.4276
 327	1	1	-0.234781	-12.4397	-6.98183	-26.4791
 328	1	1	0.378053	-12.1763	-6.86804	-27.8487
 329	1	1	-0.208553	-11.8586	-8.06444	-25.7703
 330	1	3	-0.411858	-7.79867	-10.4452	-22.8879
 331	1	1	-0.147234	-9.88202	-11.2871	-26.314
 332	1	1	0.107751	-11.4291	-7.81878	-28.4841
 333	1	4	0.626409	-11.8338	-6.14789	-29.8247
 334	1	2	0.00453	-10.2294	-10.0527	-25.6865
 335	1	1	0.356173	-8.24823	-11.7401	-24.6064
 336	1	1	0.030551	-8.64647	-10.6115	-23.942
 337	1	1	-0.286062	-8.88538	-12.1347	-25.783
 338	1	5	-0.595919	-7.14037	-12.2837	-24.0617
 339	1	1	-0.206338	-9.61427	-9.73173	-24.4455
 340	1	6	0.462884	-6.84765	-11.4612	-23.0424
 341	1	3	-0.691987	-11.2349	-7.41224	-29.7642
 342	1	7	-0.710982	-12.4614	-5.83334	-28.6745
 343	1	1	-0.062645	-4.20401	-10.674	-20.4426
 344	1	1	0.026743	-5.6025	-11.5364	-22.2498
 345	1	1	-0.399843	-3.15697	-11.5162	-20.8423
 346	1	1	-0.107518	-5.40858	-10.6692	-21.1564
 347	1	1	0.292439	-3.30266	-12.3976	-21.9401
 348	1	1	-0.410418	-4.55235	-12.418	-22.6012
 349	1	8	0.148547	-10.1669	-9.55638	-28.3628
 350	1	8	0.179912	-13.0196	-6.21446	-25.9776
 351	1	8	0.155197	-12.0129	-8.13969	-24.697
 352	1	9	0.340258	-7.75028	-9.6671	-22.2562
 353	1	8	0.137111	-10.3476	-11.5552	-27.2581
 354	1	8	0.181656	-8.55909	-13.0307	-26.2998
 355	1	8	0.164633	-9.80704	-8.7818	-23.9587
 356	1	9	0.430928	-10.6254	-7.82061	-30.444
 357	1	8	0.141007	-4.07663	-10.0071	-19.592
 358	1	8	0.203537	-2.22692	-11.4832	-20.2875
 359	1	8	0.116715	-6.19461	-9.99023	-20.8435
 360	1	8	0.18244	-4.67829	-13.0792	-23.4577
 361	1	1	-0.155485	-5.80813	-9.51426	-37.2727
 362	1	2	-0.03785	-5.38151	-8.18744	-37.0084
 363	1	1	-0.234781	-3.05359	-9.00053	-36.8137
 364	1	1	0.378053	-3.52645	-10.3012	-37.0157
 365	1	1	-0.208553	-3.9909	-7.93942	-36.8221
 366	1	3	-0.411858	-9.17274	-6.49559	-34.3188
 367	1	1	-0.147234	-6.36351	-5.82103	-37.2164
 368	1	1	0.107751	-4.8472	-10.5255	-37.2922
 369	1	4	0.626409	-3.79149	-12.4141	-37.0205
 370	1	2	0.00453	-6.39725	-7.14448	-36.6863
 371	1	1	0.356173	-8.22966	-5.18481	-35.8132
 372	1	1	0.030551	-8.25574	-6.45761	-35.3149
 373	1	1	-0.286062	-7.29219	-4.83551	-36.7933
 374	1	5	-0.595919	-9.11797	-4.38585	-35.1747
 375	1	1	-0.206338	-7.37745	-7.46127	-35.7152
 376	1	6	0.462884	-9.64914	-5.18785	-34.2343
 377	1	3	-0.691987	-5.0347	-11.8707	-37.3662
 378	1	7	-0.710982	-2.85487	-11.4621	-36.8453
 379	1	1	-0.062645	-11.8751	-3.02901	-32.0389
 380	1	1	0.026743	-10.5582	-4.75544	-33.1543
 381	1	1	-0.399843	-12.1649	-3.91649	-30.988
 382	1	1	-0.107518	-11.0582	-3.44147	-33.1039
 383	1	1	0.292439	-11.6578	-5.23197	-30.9874
 384	1	1	-0.410418	-10.8909	-5.64213	-32.1033
 385	1	8	0.148547	-6.86151	-9.74601	-37.3878
 386	1	8	0.179912	-2.00746	-8.83664	-36.5787
 387	1	8	0.155197	-3.66048	-6.93179	-36.5796
 388	1	9	0.340258	-9.40753	-7.26678	-33.7246
 389	1	8	0.137111	-5.60081	-5.56299	-37.9469
 390	1	8	0.181656	-7.25775	-3.81918	-37.1709
 391	1	8	0.164633	-7.3961	-8.43812	-35.2439
 392	1	9	0.430928	-5.89688	-12.3682	-37.4797
 393	1	8	0.141007	-12.2553	-2.00977	-32.0148
 394	1	8	0.203537	-12.7572	-3.57924	-30.1396
 395	1	8	0.116715	-10.8101	-2.73694	-33.8941
 396	1	8	0.18244	-10.4905	-6.6447	-32.1147
 397	1	1	-0.155485	4.86343	-16.0664	-31.9831
 398	1	2	-0.03785	3.61857	-16.3485	-31.3701
 399	1	1	-0.234781	4.59497	-15.8121	-29.1613
 400	1	1	0.378053	5.80697	-15.542	-29.8041
 401	1	1	-0.208553	3.50043	-16.2284	-29.9553
 402	1	3	-0.411858	0.0167572	-15.3143	-34.6754
 403	1	1	-0.147234	1.8188	-17.9702	-32.1156
 404	1	1	0.107751	5.92192	-15.6828	-31.1599
 405	1	4	0.626409	7.80162	-15.0039	-30.2977
 406	1	2	0.00453	2.44169	-16.6938	-32.2102
 407	1	1	0.356173	0.176495	-17.3083	-33.7508
 408	1	1	0.030551	0.773878	-16.0797	-33.8407
 409	1	1	-0.286062	0.68522	-18.2908	-32.8968
 410	1	5	-0.595919	-0.940396	-17.3769	-34.503
 411	1	1	-0.206338	1.90821	-15.7296	-33.1028
 412	1	6	0.462884	-1.05101	-16.1443	-35.0255
 413	1	3	-0.691987	7.19017	-15.3465	-31.5089
 414	1	7	-0.710982	6.96056	-15.1119	-29.2495
 415	1	1	-0.062645	-4.45269	-16.1556	-36.6818
 416	1	1	0.026743	-2.23061	-15.6868	-35.7838
 417	1	1	-0.399843	-4.61259	-14.8009	-37.0081
 418	1	1	-0.107518	-3.27579	-16.589	-36.0595
 419	1	1	0.292439	-3.58171	-13.8648	-36.7597
 420	1	1	-0.410418	-2.38268	-14.3367	-36.1801
 421	1	8	0.148547	4.98574	-16.1405	-33.0588
 422	1	8	0.179912	4.50452	-15.6731	-28.0904
 423	1	8	0.155197	2.53664	-16.4211	-29.4886
 424	1	9	0.340258	0.118294	-14.3386	-34.8914
 425	1	8	0.137111	2.22528	-18.7073	-31.4274
 426	1	8	0.181656	0.190118	-19.2529	-32.821
 427	1	8	0.164633	2.34407	-14.7382	-33.1733
 428	1	9	0.430928	7.65713	-15.5498	-32.3733
 429	1	8	0.141007	-5.24964	-16.8694	-36.8809
 430	1	8	0.203537	-5.54303	-14.4841	-37.4642
 431	1	8	0.116715	-3.18313	-17.6335	-35.7724
 432	1	8	0.18244	-1.60306	-13.6121	-35.9669
 433	1	1	-0.155485	14.1049	-13.0358	-21.0236
 434	1	2	-0.03785	12.9646	-12.6299	-21.7682
 435	1	1	-0.234781	11.738	-12.2836	-19.6434
 436	1	1	0.378053	12.8764	-12.7072	-18.9545
 437	1	1	-0.208553	11.7881	-12.2498	-21.0559
 438	1	3	-0.411858	11.0352	-13.4883	-26.3263
 439	1	1	-0.147234	14.1908	-12.3345	-23.9734
 440	1	1	0.107751	14.0124	-13.056	-19.6306
 441	1	4	0.626409	14.274	-13.3442	-17.483
 442	1	2	0.00453	12.9945	-12.6524	-23.2635
 443	1	1	0.356173	13.1158	-12.8191	-26.0707
 444	1	1	0.030551	11.958	-13.1054	-25.4003
 445	1	1	-0.286062	14.2597	-12.4159	-25.3813
 446	1	5	-0.595919	12.9908	-13.0136	-27.3981
 447	1	1	-0.206338	11.8472	-13.0411	-24.0077
 448	1	6	0.462884	11.7217	-13.4275	-27.5413
 449	1	3	-0.691987	14.9367	-13.4547	-18.7126
 450	1	7	-0.710982	13.021	-12.8729	-17.6237
 451	1	1	-0.062645	11.3767	-14.0707	-31.2545
 452	1	1	0.026743	11.1349	-13.8017	-28.8398
 453	1	1	-0.399843	10.0419	-14.4901	-31.3443
 454	1	1	-0.107518	11.9157	-13.7265	-30.0092
 455	1	1	0.292439	9.22224	-14.5751	-30.195
 456	1	1	-0.410418	9.79415	-14.2345	-28.9501
 457	1	8	0.148547	15.0114	-13.3629	-21.5202
 458	1	8	0.179912	10.8442	-12.0092	-19.0935
 459	1	8	0.155197	10.9103	-11.9239	-21.6083
 460	1	9	0.340258	10.1061	-13.8426	-26.173
 461	1	8	0.137111	15.071	-12.0164	-23.422
 462	1	8	0.181656	15.1686	-12.1846	-25.9258
 463	1	8	0.164633	10.922	-13.3159	-23.5108
 464	1	9	0.430928	15.8521	-13.827	-18.8776
 465	1	8	0.141007	11.9927	-13.9973	-32.1489
 466	1	8	0.203537	9.64247	-14.7434	-32.3195
 467	1	8	0.116715	12.9474	-13.3876	-29.9546
 468	1	8	0.18244	9.16553	-14.2977	-28.0662
 469	1	1	-0.155485	8.68001	-14.7444	-7.83423
 470	1	2	-0.03785	9.14882	-13.7829	-8.76854
 471	1	1	-0.234781	6.94794	-12.6453	-8.65668
 472	1	1	0.378053	6.5233	-13.6253	-7.75782
 473	1	1	-0.208553	8.26581	-12.7321	-9.16154
 474	1	3	-0.411858	12.4249	-13.5964	-12.5514
 475	1	1	-0.147234	11.6105	-14.4348	-8.62435
 476	1	1	0.107751	7.37169	-14.6216	-7.36196
 477	1	4	0.626409	5.39279	-14.8923	-6.47695
 478	1	2	0.00453	10.5112	-13.9158	-9.37305
 479	1	1	0.356173	13.043	-14.2903	-10.5575
 480	1	1	0.030551	11.9944	-13.7839	-11.2756
 481	1	1	-0.286062	12.8838	-14.622	-9.21021
 482	1	5	-0.595919	14.1476	-14.4415	-11.3191
 483	1	1	-0.206338	10.7221	-13.5799	-10.7363
 484	1	6	0.462884	13.7523	-14.0294	-12.5352
 485	1	3	-0.691987	6.68141	-15.443	-6.52481
 486	1	7	-0.710982	5.29749	-13.7707	-7.21329
 487	1	1	-0.062645	16.7133	-14.6181	-14.8294
 488	1	1	0.026743	14.5983	-14.0686	-13.741
 489	1	1	-0.399843	16.1862	-14.2248	-16.0705
 490	1	1	-0.107518	15.9214	-14.5436	-13.6747
 491	1	1	0.292439	14.8627	-13.7383	-16.1745
 492	1	1	-0.410418	14.0936	-13.6587	-14.9948
 493	1	8	0.148547	9.30041	-15.5799	-7.53017
 494	1	8	0.179912	6.2636	-11.8612	-8.96285
 495	1	8	0.155197	8.61017	-11.9796	-9.86606
 496	1	9	0.340258	11.9035	-13.274	-13.3472
 497	1	8	0.137111	11.4703	-14.6897	-7.5778
 498	1	8	0.181656	13.7196	-15.0264	-8.6496
 499	1	8	0.164633	9.9092	-13.2167	-11.3557
 500	1	9	0.430928	6.99209	-16.2953	-6.10097
 501	1	8	0.141007	17.7328	-14.9917	-14.758
 502	1	8	0.203537	16.8122	-14.2996	-16.9519
 503	1	8	0.116715	16.3351	-14.8654	-12.7221
 504	1	8	0.18244	13.0758	-13.2918	-15.0792
 505	1	1	-0.155485	-5.36214	-12.0087	-3.1499
 506	1	2	-0.03785	-4.96862	-13.2762	-3.65419
 507	1	1	-0.234781	-6.86633	-14.3193	-2.45206
 508	1	1	0.378053	-7.18018	-13.063	-1.93185
 509	1	1	-0.208553	-5.75409	-14.4188	-3.31729
 510	1	3	-0.411858	-0.552308	-15.4447	-4.40794
 511	1	1	-0.147234	-3.18036	-12.4223	-5.26943
 512	1	1	0.107751	-6.47454	-11.9536	-2.30768
 513	1	4	0.626409	-7.94717	-11.4537	-0.77765
 514	1	2	0.00453	-3.67152	-13.4246	-4.37989
 515	1	1	0.356173	-1.07447	-13.5842	-5.46345
 516	1	1	0.030551	-1.55786	-14.5609	-4.63745
 517	1	1	-0.286062	-1.88001	-12.4995	-5.82209
 518	1	5	-0.595919	0.222066	-13.7965	-5.77699
 519	1	1	-0.206338	-2.83328	-14.527	-4.0739
 520	1	6	0.462884	0.5351	-14.9207	-5.10982
 521	1	3	-0.691987	-6.97758	-10.8941	-1.61891
 522	1	7	-0.710982	-8.10175	-12.7749	-0.990859
 523	1	1	-0.062645	3.38249	-17.2885	-4.29317
 524	1	1	0.026743	1.88016	-15.5268	-5.07503
 525	1	1	-0.399843	4.44886	-16.6931	-4.98133
 526	1	1	-0.107518	2.10854	-16.7089	-4.34167
 527	1	1	0.292439	4.26221	-15.5069	-5.72982
 528	1	1	-0.410418	2.96879	-14.9416	-5.75713
 529	1	8	0.148547	-4.77703	-11.1187	-3.35332
 530	1	8	0.179912	-7.43533	-15.1899	-2.14496
 531	1	8	0.155197	-5.46861	-15.3945	-3.70193
 532	1	9	0.340258	-0.559969	-16.2478	-3.80737
 533	1	8	0.137111	-3.80906	-11.57	-5.51488
 534	1	8	0.181656	-1.49082	-11.7263	-6.47585
 535	1	8	0.164633	-3.14384	-15.2844	-3.36276
 536	1	9	0.430928	-6.68341	-9.93759	-1.65353
 537	1	8	0.141007	3.53955	-18.2018	-3.72269
 538	1	8	0.203537	5.42534	-17.1597	-4.9303
 539	1	8	0.116715	1.30035	-17.1919	-3.80331
 540	1	8	0.18244	2.8079	-14.0273	-6.32714
 541	1	1	-0.155485	-13.9099	-13.9518	9.01604
 542	1	2	-0.03785	-14.1095	-12.9173	8.05858
 543	1	1	-0.234781	-15.5239	-11.7137	9.69879
 544	1	1	0.378053	-15.2676	-12.7319	10.6164
 545	1	1	-0.208553	-14.9441	-11.8157	8.41592
 546	1	3	-0.411858	-11.647	-10.7351	4.28417
 547	1	1	-0.147234	-13.0265	-14.1452	6.09435
 548	1	1	0.107751	-14.5136	-13.8193	10.2712
 549	1	4	0.626409	-15.0473	-13.8826	12.3905
 550	1	2	0.00453	-13.3799	-12.9266	6.74941
 551	1	1	0.356173	-11.8468	-12.9254	4.38053
 552	1	1	0.030551	-12.2008	-11.7553	4.99198
 553	1	1	-0.286062	-12.2599	-14.1523	4.90554
 554	1	5	-0.595919	-11.0738	-12.7096	3.29586
 555	1	1	-0.206338	-12.9556	-11.7025	6.16474
 556	1	6	0.462884	-10.9621	-11.3708	3.24518
 557	1	3	-0.691987	-14.3899	-14.604	11.3828
 558	1	7	-0.710982	-15.6173	-12.7603	11.9163
 559	1	1	-0.062645	-9.26	-8.56488	1.34079
 560	1	1	0.026743	-10.171	-10.6491	2.23098
 561	1	1	-0.399843	-8.56361	-9.28155	0.356627
 562	1	1	-0.107518	-10.0571	-9.24509	2.27145
 563	1	1	0.292439	-8.68117	-10.6869	0.26286
 564	1	1	-0.410418	-9.49369	-11.3466	1.20878
 565	1	8	0.148547	-13.2556	-14.7904	8.80666
 566	1	8	0.179912	-16.1194	-10.8565	9.99292
 567	1	8	0.155197	-15.1258	-11.0227	7.69465
 568	1	9	0.340258	-11.7023	-9.75083	4.47045
 569	1	8	0.137111	-13.3503	-15.092	6.51628
 570	1	8	0.181656	-11.9754	-15.0748	4.41177
 571	1	8	0.164633	-13.1711	-10.749	6.63399
 572	1	9	0.430928	-13.827	-15.4251	11.4975
 573	1	8	0.141007	-9.17998	-7.48103	1.38748
 574	1	8	0.203537	-7.96272	-8.73648	-0.361823
 575	1	8	0.116715	-10.5735	-8.67035	3.03244
 576	1	8	0.18244	-9.57175	-12.431	1.16676
 577	1	1	-0.155485	-18.7054	-6.75676	18.921
 578	1	2	-0.03785	-17.4655	-7.26537	19.3937
 579	1	1	-0.234781	-16.7059	-4.95933	19.8469
 580	1	1	0.378053	-17.9242	-4.49959	19.3439
 581	1	1	-0.208553	-16.4877	-6.35381	19.8835
 582	1	3	-0.411858	-16.5992	-11.3515	16.6913
 583	1	1	-0.147234	-16.5897	-9.46765	20.3258
 584	1	1	0.107751	-18.9005	-5.3718	18.9467
 585	1	4	0.626409	-19.4955	-3.30796	18.544
 586	1	2	0.00453	-17.1226	-8.70736	19.2445
 587	1	1	0.356173	-16.2319	-11.3515	18.8603
 588	1	1	0.030551	-16.7433	-10.6174	17.8244
 589	1	1	-0.286062	-16.155	-10.8024	20.1443
 590	1	5	-0.595919	-15.7715	-12.5528	18.4438
 591	1	1	-0.206338	-17.2053	-9.30743	17.9637
 592	1	6	0.462884	-15.9667	-12.5215	17.1144
 593	1	3	-0.691987	-19.954	-4.63302	18.4874
 594	1	7	-0.710982	-18.2716	-3.22372	19.094
 595	1	1	-0.062645	-14.3489	-15.6568	15.7113
 596	1	1	0.026743	-15.489	-13.5481	16.1703
 597	1	1	-0.399843	-14.4256	-15.4093	14.3292
 598	1	1	-0.107518	-14.8591	-14.7211	16.6248
 599	1	1	0.292439	-15.0392	-14.2342	13.8382
 600	1	1	-0.410418	-15.5977	-13.3426	14.7777
 601	1	8	0.148547	-19.4645	-7.42252	18.5249
 602	1	8	0.179912	-15.9427	-4.24952	20.1474
 603	1	8	0.155197	-15.5259	-6.73592	20.2182
 604	1	9	0.340258	-16.7912	-11.0808	15.7433
 605	1	8	0.137111	-16.5008	-9.0022	21.3042
 606	1	8	0.181656	-15.7243	-11.3787	20.9558
 607	1	8	0.164633	-17.549	-8.73975	17.1053
 608	1	9	0.430928	-20.7782	-4.96108	18.0221
 609	1	8	0.141007	-13.8692	-16.5605	16.0821
 610	1	8	0.203537	-13.9973	-16.1292	13.6412
 611	1	8	0.116715	-14.7605	-14.904	17.6922
 612	1	8	0.18244	-16.0551	-12.4355	14.3984
 613	1	1	-0.155485	-17.8018	7.33258	14.3319
 614	1	2	-0.03785	-16.8033	6.43353	14.8199
 615	1	1	-0.234781	-15.0597	7.90242	13.8367
 616	1	1	0.378053	-16.0698	8.72863	13.3668
 617	1	1	-0.208553	-15.4341	6.75097	14.5492
 618	1	3	-0.411858	-19.762	2.5335	16.1697
 619	1	1	-0.147234	-16.1408	4.46119	16.2873
 620	1	1	0.107751	-17.3879	8.46362	13.6127
 621	1	4	0.626409	-17.1553	10.1755	12.2696
 622	1	2	0.00453	-17.1465	5.15488	15.5421
 623	1	1	0.356173	-17.6518	2.66917	16.7735
 624	1	1	0.030551	-18.6485	3.32842	16.1093