pySIMM System Object

938 atoms
1067 bonds
1768 angles
2804 dihedrals
312 impropers

10 atom types
15 bond types
26 angle types
12 dihedral types
2 improper types

-147.379107 147.379107 xlo xhi
-147.379107 147.379107 ylo yhi
-147.379107 147.379107 zlo zhi

Masses

   1	12.01	# ca
   2	12.01	# cp
   3	14.01	# na
   4	12.01	# cc
   5	14.01	# nc
   6	12.01	# cd
   7	14.01	# nd
   8	1.008	# ha
   9	1.008	# hn
  10	1.008	# h5

Pair Coeffs

   1	0.086	3.3996695084235347	# ca
   2	0.086	3.3996695084235347	# cp
   3	0.17	3.249998523775958	# na
   4	0.086	3.3996695084235347	# cc
   5	0.17	3.249998523775958	# nc
   6	0.086	3.3996695084235347	# cd
   7	0.17	3.249998523775958	# nd
   8	0.015	2.59964245953351	# ha
   9	0.0157	1.069078461768407	# hn
  10	0.015	2.421462715905442	# h5

Bond Coeffs

   1	425.8	1.3802	# cd,na
   2	525.4	1.3172	# cc,nd
   3	345.8	1.086	# ca,ha
   4	351.4	1.4854	# cp,cp
   5	467.7	1.3517	# ca,nc
   6	385.1	1.4555	# ca,cd
   7	467.7	1.3517	# ca,nd
   8	525.4	1.3172	# cd,nc
   9	450.2	1.4058	# ca,cp
  10	425.8	1.3802	# cc,na
  11	420.5	1.384	# ca,na
  12	351.7	1.0819	# cc,h5
  13	461.1	1.3984	# ca,ca
  14	408.4	1.01	# hn,na
  15	385.1	1.4555	# ca,cc

Angle Coeffs

   1	48.18	119.88	# ca,ca,ha
   2	66.28	123.45	# ca,cd,na
   3	64.05	121.11	# ca,cp,cp
   4	46.75	125.5	# cc,na,hn
   5	67.6	123.24	# ca,cd,nc
   6	46.75	125.5	# cd,na,hn
   7	72.48	104.88	# ca,nc,cd
   8	74.9	112.22	# na,cd,nc
   9	66.62	120.02	# ca,ca,ca
  10	46.63	125.54	# ca,na,hn
  11	65.02	120.79	# ca,ca,cd
  12	47.98	119.86	# cp,ca,ha
  13	69.46	119.72	# ca,ca,nc
  14	72.48	104.88	# ca,nd,cc
  15	69.08	118.34	# ca,ca,na
  16	66.72	118.38	# ca,cp,ca
  17	69.46	119.72	# ca,ca,nd
  18	74.9	112.22	# na,cc,nd
  19	67.4	113.15	# ca,na,cc
  20	66.26	120.69	# ca,ca,cp
  21	50.58	125.52	# h5,cc,nd
  22	67.4	113.15	# ca,na,cd
  23	49.58	121.55	# h5,cc,na
  24	66.28	123.45	# ca,cc,na
  25	67.6	123.24	# ca,cc,nd
  26	65.02	120.79	# ca,ca,cc

Dihedral Coeffs

   1	1	4.8	2	180	# X,ca,nc,X
   2	1	4.8	2	180	# X,ca,nd,X
   3	1	4.0	2	180	# X,ca,cd,X
   4	1	4.75	2	180	# X,cd,nc,X
   5	1	4.75	2	180	# X,cc,nd,X
   6	1	1.7	2	180	# X,cc,na,X
   7	1	1.0	2	180	# X,cp,cp,X
   8	1	3.625	2	180	# X,ca,cp,X
   9	1	0.3	2	180	# X,ca,na,X
  10	1	1.7	2	180	# X,cd,na,X
  11	1	3.625	2	180	# X,ca,ca,X
  12	1	4.0	2	180	# X,ca,cc,X

Improper Coeffs

   1	1.1	-1	2	# na,X,X,hn
   2	1.1	-1	2	# ca,X,X,ha

Atoms

   1	1	1	-0.155485	28.3825	57.3226	17.8682
   2	1	2	-0.03785	28.0536	58.5881	18.4286
   3	1	1	-0.234781	26.6346	57.4376	20.1061
   4	1	1	0.378053	26.9955	56.2194	19.5295
   5	1	1	-0.208553	27.1682	58.6212	19.5485
   6	1	3	-0.411858	29.8584	63.267	18.7511
   7	1	1	-0.147234	28.9513	59.9718	16.4841
   8	1	1	0.107751	27.8298	56.177	18.4473
   9	1	4	0.626409	27.2591	54.1604	19.068
  10	1	2	0.00453	28.6402	59.8504	17.8725
  11	1	1	0.356173	29.7871	62.2061	16.8248
  12	1	1	0.030551	29.4864	62.1005	18.1549
  13	1	1	-0.286062	29.5256	61.1485	15.9522
  14	1	5	-0.595919	30.3432	63.399	16.5283
  15	1	1	-0.206338	28.9194	60.9553	18.7227
  16	1	6	0.462884	30.385	64.0362	17.7099
  17	1	3	-0.691987	28.0107	54.8663	18.1177
  18	1	7	-0.710982	26.6309	54.9839	19.9271
  19	1	1	-0.062645	31.9939	67.3888	16.9504
  20	1	1	0.026743	30.9335	65.3931	17.895
  21	1	1	-0.399843	32.0023	67.9901	18.2186
  22	1	1	-0.107518	31.4614	66.0994	16.794
  23	1	1	0.292439	31.4814	67.3067	19.3242
  24	1	1	-0.410418	30.9516	66.0184	19.1649
  25	1	8	0.148547	29.0688	57.2394	17.033
  26	1	8	0.179912	25.9662	57.4544	20.9602
  27	1	8	0.155197	26.8837	59.5771	19.9793
  28	1	9	0.340258	29.7869	63.5253	19.7179
  29	1	8	0.137111	28.7289	59.1487	15.8116
  30	1	8	0.181656	29.7632	61.2448	14.8983
  31	1	8	0.164633	28.7258	60.9056	19.7885
  32	1	9	0.430928	28.5836	54.4833	17.3899
  33	1	8	0.141007	32.3981	67.9154	16.0885
  34	1	8	0.203537	32.4119	68.9867	18.3502
  35	1	8	0.116715	31.4617	65.6435	15.8072
  36	1	8	0.18244	30.557	65.516	20.0395
  37	1	1	-0.155485	22.2989	49.9078	27.0848
  38	1	2	-0.03785	22.1442	48.8738	26.12
  39	1	1	-0.234781	20.1368	48.0787	27.3325
  40	1	1	0.378053	20.3176	49.1181	28.2453
  41	1	1	-0.208553	21.0605	47.9588	26.2714
  42	1	3	-0.411858	24.9104	50.7476	22.3741
  43	1	1	-0.147234	23.4267	47.5058	24.3992
  44	1	1	0.107751	21.3719	49.9815	28.1293
  45	1	4	0.626409	20.0897	50.5413	29.8088
  46	1	2	0.00453	23.0607	48.7742	24.9414
  47	1	1	0.356173	24.7004	48.5759	22.6574
  48	1	1	0.030551	24.3555	49.7954	23.1735
  49	1	1	-0.286062	24.2519	47.398	23.2572
  50	1	5	-0.595919	25.4691	48.6946	21.5551
  51	1	1	-0.206338	23.5484	49.9475	24.3053
  52	1	6	0.462884	25.5874	50.022	21.3906
  53	1	3	-0.691987	21.2732	50.8912	29.1427
  54	1	7	-0.710982	19.5161	49.4471	29.2765
  55	1	1	-0.062645	27.757	50.447	18.3115
  56	1	1	0.026743	26.3491	50.651	20.2963
  57	1	1	-0.399843	27.8383	51.8455	18.2149
  58	1	1	-0.107518	27.0183	49.8567	19.3462
  59	1	1	0.292439	27.1753	52.6765	19.147
  60	1	1	-0.410418	26.4335	52.056	20.1757
  61	1	8	0.148547	23.1124	50.6211	27.0154
  62	1	8	0.179912	19.2895	47.4094	27.4346
  63	1	8	0.155197	20.9119	47.1778	25.5299
  64	1	9	0.340258	24.8459	51.7469	22.451
  65	1	8	0.137111	23.0699	46.5982	24.8784
  66	1	8	0.181656	24.5297	46.4365	22.8394
  67	1	8	0.164633	23.2716	50.9339	24.6602
  68	1	9	0.430928	21.8539	51.6885	29.3194
  69	1	8	0.141007	28.2681	49.8141	17.5885
  70	1	8	0.203537	28.4164	52.2806	17.4081
  71	1	8	0.116715	26.9685	48.7727	19.4132
  72	1	8	0.18244	25.9276	52.695	20.8921
  73	1	1	-0.155485	9.4177	49.9456	32.4903
  74	1	2	-0.03785	10.6229	49.2477	32.772
  75	1	1	-0.234781	9.49536	47.1158	32.2096
  76	1	1	0.378053	8.34089	47.8435	31.9185
  77	1	1	-0.208553	10.6395	47.8284	32.6317
  78	1	3	-0.411858	15.4893	50.2542	32.3017
  79	1	1	-0.147234	11.856	51.13	33.9775
  80	1	1	0.107751	8.31186	49.203	32.0652
  81	1	4	0.626409	6.40919	48.464	31.2779
  82	1	2	0.00453	11.8717	49.991	33.1183
  83	1	1	0.356173	14.2202	51.4646	33.6298
  84	1	1	0.030551	14.2361	50.3675	32.8126
  85	1	1	-0.286062	13.0324	51.8698	34.2453
  86	1	5	-0.595919	15.4248	52.0759	33.6718
  87	1	1	-0.206338	13.1025	49.6038	32.5292
  88	1	6	0.462884	16.1783	51.3467	32.831
  89	1	3	-0.691987	7.0801	49.6333	31.6679
  90	1	7	-0.710982	7.17305	47.37	31.4425
  91	1	1	-0.062645	19.4714	53.2002	32.4915
  92	1	1	0.026743	17.5497	51.697	32.4197
  93	1	1	-0.399843	20.1023	52.4577	31.4781
  94	1	1	-0.107518	18.1984	52.8277	32.9491
  95	1	1	0.292439	19.4816	51.3133	30.9272
  96	1	1	-0.410418	18.2205	50.9385	31.4358
  97	1	8	0.148547	9.37109	51.0272	32.5518
  98	1	8	0.179912	9.50025	46.0382	32.0851
  99	1	8	0.155197	11.553	47.2811	32.8508
 100	1	9	0.340258	15.8283	49.6004	31.6185
 101	1	8	0.137111	10.9196	51.4368	34.4355
 102	1	8	0.181656	13.025	52.7473	34.8826
 103	1	8	0.164633	13.1517	48.7698	31.8369
 104	1	9	0.430928	6.74152	50.5741	31.6134
 105	1	8	0.141007	19.9545	54.0805	32.9108
 106	1	8	0.203537	21.0749	52.7768	31.122
 107	1	8	0.116715	17.7055	53.4282	33.7097
 108	1	8	0.18244	17.7412	50.0674	31.0016
 109	1	1	-0.155485	-2.21409	41.4819	28.0973
 110	1	2	-0.03785	-0.888459	41.3012	27.6171
 111	1	1	-0.234781	-1.64528	39.3298	26.3257
 112	1	1	0.378053	-2.92478	39.5246	26.8463
 113	1	1	-0.208553	-0.626381	40.2234	26.7213
 114	1	3	-0.411858	1.23896	45.6664	28.9429
 115	1	1	-0.147234	1.48644	41.6011	28.4349
 116	1	1	0.107751	-3.19287	40.5715	27.6853
 117	1	4	0.626409	-4.94467	39.2833	27.4622
 118	1	2	0.00453	0.225442	42.1743	28.0955
 119	1	1	0.356173	2.33839	43.7625	29.056
 120	1	1	0.030551	1.13628	44.3245	28.7206
 121	1	1	-0.286062	2.54957	42.3903	28.9234
 122	1	5	-0.595919	3.21496	44.6807	29.5036
 123	1	1	-0.206338	0.0506322	43.5764	28.2485
 124	1	6	0.462884	2.54006	45.838	29.4302
 125	1	3	-0.691987	-4.49679	40.4636	28.0744
 126	1	7	-0.710982	-3.99873	38.7281	26.684
 127	1	1	-0.062645	2.95547	49.5629	30.0591
 128	1	1	0.026743	3.12032	47.1378	29.8223
 129	1	1	-0.399843	4.26107	49.6107	30.5739
 130	1	1	-0.107518	2.38812	48.3341	29.6905
 131	1	1	0.292439	5.02481	48.4306	30.7296
 132	1	1	-0.410418	4.43107	47.2116	30.3408
 133	1	8	0.148547	-2.4476	42.2664	28.8085
 134	1	8	0.179912	-1.44944	38.4898	25.6683
 135	1	8	0.155197	0.382766	40.0787	26.3426
 136	1	9	0.340258	0.545516	46.3757	28.7935
 137	1	8	0.137111	1.62611	40.5272	28.3427
 138	1	8	0.181656	3.50692	41.9598	29.1974
 139	1	8	0.164633	-0.887975	44.053	27.9878
 140	1	9	0.430928	-4.98346	41.0094	28.7596
 141	1	8	0.141007	2.37954	50.479	29.9442
 142	1	8	0.203537	4.67907	50.5704	30.854
 143	1	8	0.116715	1.37878	48.3218	29.2934
 144	1	8	0.18244	5.00881	46.2947	30.4501
 145	1	1	-0.155485	-6.4782	30.0841	23.3214
 146	1	2	-0.03785	-7.70874	30.0845	24.0469
 147	1	1	-0.234781	-8.15991	27.8122	23.1236
 148	1	1	0.378053	-6.9518	27.8741	22.4337
 149	1	1	-0.208553	-8.53202	28.9174	23.9216
 150	1	3	-0.411858	-7.17345	34.7232	25.9831
 151	1	1	-0.147234	-9.34623	31.2708	25.6485
 152	1	1	0.107751	-6.15131	28.974	22.5387
 153	1	4	0.626409	-5.29039	27.5142	21.158
 154	1	2	0.00453	-8.12863	31.2722	24.891
 155	1	1	0.356173	-8.94006	33.5048	26.4528
 156	1	1	0.030551	-7.769	33.521	25.751
 157	1	1	-0.286062	-9.75867	32.3782	26.4237
 158	1	5	-0.595919	-9.14244	34.6549	27.1291
 159	1	1	-0.206338	-7.32843	32.4523	24.9646
 160	1	6	0.462884	-8.05324	35.386	26.8426
 161	1	3	-0.691987	-5.06604	28.7707	21.7382
 162	1	7	-0.710982	-6.43309	26.9545	21.5951
 163	1	1	-0.062645	-8.46059	38.6065	28.8033
 164	1	1	0.026743	-7.78845	36.7259	27.398
 165	1	1	-0.399843	-7.24101	39.2517	28.5391
 166	1	1	-0.107518	-8.72463	37.3474	28.2455
 167	1	1	0.292439	-6.27316	38.6547	27.6993
 168	1	1	-0.410418	-6.58084	37.4039	27.121
 169	1	8	0.148547	-5.79101	30.9167	23.3485
 170	1	8	0.179912	-8.79334	26.9375	23.0246
 171	1	8	0.155197	-9.48343	28.8536	24.4343
 172	1	9	0.340258	-6.28994	35.0618	25.6462
 173	1	8	0.137111	-9.9951	30.4049	25.6491
 174	1	8	0.181656	-10.6819	32.3661	26.9927
 175	1	8	0.164633	-6.39412	32.5519	24.4319
 176	1	9	0.430928	-4.29468	29.3871	21.5684
 177	1	8	0.141007	-9.19928	39.0699	29.4543
 178	1	8	0.203537	-7.04917	40.2154	28.9962
 179	1	8	0.116715	-9.66322	36.8488	28.4749
 180	1	8	0.18244	-5.83328	36.9432	26.4837
 181	1	1	-0.155485	-7.71938	18.1088	17.619
 182	1	2	-0.03785	-6.35488	18.1544	17.218
 183	1	1	-0.234781	-6.31857	15.6737	17.1935
 184	1	1	0.378053	-7.64921	15.6796	17.6123
 185	1	1	-0.208553	-5.6769	16.917	16.9972
 186	1	3	-0.411858	-5.2998	22.8872	18.5462
 187	1	1	-0.147234	-4.52456	19.6125	16.2028
 188	1	1	0.107751	-8.31845	16.8578	17.7946
 189	1	4	0.626409	-9.57181	15.1573	18.3548
 190	1	2	0.00453	-5.62482	19.46	17.1004
 191	1	1	0.356173	-4.1333	21.8539	16.9933
 192	1	1	0.030551	-5.20488	21.7296	17.8344
 193	1	1	-0.286062	-3.77141	20.8067	16.1451
 194	1	5	-0.595919	-3.51438	23.0437	17.1376
 195	1	1	-0.206338	-5.97139	20.5633	17.9293
 196	1	6	0.462884	-4.22637	23.6598	18.0949
 197	1	3	-0.691987	-9.57215	16.5545	18.2367
 198	1	7	-0.710982	-8.40934	14.6168	17.9468
 199	1	1	-0.062645	-2.42586	26.9406	18.6955
 200	1	1	0.026743	-3.89857	24.9932	18.6328
 201	1	1	-0.399843	-3.23643	27.5327	19.6771
 202	1	1	-0.107518	-2.76036	25.6832	18.1745
 203	1	1	0.292439	-4.39833	26.8799	20.1491
 204	1	1	-0.410418	-4.70394	25.6071	19.6185
 205	1	8	0.148547	-8.28415	19.0167	17.7955
 206	1	8	0.179912	-5.79566	14.7322	17.0656
 207	1	8	0.155197	-4.62609	16.9219	16.7209
 208	1	9	0.340258	-5.95154	23.1257	19.2722
 209	1	8	0.137111	-4.25008	18.7912	15.5474
 210	1	8	0.181656	-2.92171	20.9167	15.4802
 211	1	8	0.164633	-6.77512	20.4935	18.653
 212	1	9	0.430928	-10.2936	17.1843	18.5312
 213	1	8	0.141007	-1.53763	27.4532	18.3314
 214	1	8	0.203537	-2.96365	28.5095	20.0587
 215	1	8	0.116715	-2.12308	25.2358	17.4157
 216	1	8	0.18244	-5.59521	25.1066	19.9829
 217	1	1	-0.155485	-8.51463	4.73985	19.9096
 218	1	2	-0.03785	-9.09836	5.37065	21.0422
 219	1	1	-0.234781	-7.84998	3.83615	22.5251
 220	1	1	0.378053	-7.29366	3.24884	21.3883
 221	1	1	-0.208553	-8.76707	4.89323	22.3424
 222	1	3	-0.411858	-10.2487	10.0479	19.6565
 223	1	1	-0.147234	-11.2678	6.5658	21.5685
 224	1	1	0.107751	-7.63773	3.6709	20.133
 225	1	4	0.626409	-6.15614	2.06127	20.0372
 226	1	2	0.00453	-10.0099	6.54245	20.8992
 227	1	1	0.356173	-11.6592	8.82027	20.8171
 228	1	1	0.030551	-10.4495	8.80408	20.1755
 229	1	1	-0.286062	-12.1084	7.7004	21.5202
 230	1	5	-0.595919	-12.2642	10.0221	20.7215
 231	1	1	-0.206338	-9.59811	7.69297	20.1768
 232	1	6	0.462884	-11.3846	10.7693	20.0352
 233	1	3	-0.691987	-6.94783	2.90142	19.2379
 234	1	7	-0.710982	-6.37355	2.26733	21.3478
 235	1	1	-0.062645	-12.9127	14.2381	19.961
 236	1	1	0.026743	-11.5672	12.2083	19.7652
 237	1	1	-0.399843	-11.891	14.9841	19.3526
 238	1	1	-0.107518	-12.7439	12.8634	20.1761
 239	1	1	0.292439	-10.6905	14.3649	18.9352
 240	1	1	-0.410418	-10.5616	12.9716	19.1294
 241	1	8	0.148547	-8.75055	5.07285	18.9047
 242	1	8	0.179912	-7.56336	3.48709	23.5113
 243	1	8	0.155197	-9.19957	5.38119	23.2131
 244	1	9	0.340258	-9.43826	10.4055	19.1832
 245	1	8	0.137111	-11.5808	5.69295	22.136
 246	1	8	0.181656	-13.0591	7.73168	22.0412
 247	1	8	0.164633	-8.62699	7.72835	19.6945
 248	1	9	0.430928	-6.91649	2.99411	18.2415
 249	1	8	0.141007	-13.832	14.7232	20.2831
 250	1	8	0.203537	-12.0367	16.0485	19.2106
 251	1	8	0.116715	-13.5338	12.3026	20.6695
 252	1	8	0.18244	-9.63497	12.5001	18.8183
 253	1	1	-0.155485	-3.4304	-1.34885	9.34966
 254	1	2	-0.03785	-4.36424	-1.52177	10.4061
 255	1	1	-0.234781	-6.12175	-2.02046	8.73503
 256	1	1	0.378053	-5.16958	-1.84517	7.7271
 257	1	1	-0.208553	-5.71304	-1.84705	10.0784
 258	1	3	-0.411858	-4.70578	-0.0762843	15.2317
 259	1	1	-0.147234	-2.71669	-2.06921	12.2358
 260	1	1	0.107751	-3.88101	-1.50814	8.03673
 261	1	4	0.626409	-4.14192	-1.65997	5.87057
 262	1	2	0.00453	-3.91838	-1.42079	11.8284
 263	1	1	0.356173	-3.05359	-1.33618	14.5002
 264	1	1	0.030551	-4.19248	-0.680419	14.1171
 265	1	1	-0.286062	-2.28135	-2.04045	13.5769
 266	1	5	-0.595919	-2.82492	-1.21808	15.8204
 267	1	1	-0.206338	-4.67517	-0.708755	12.8006
 268	1	6	0.462884	-3.83633	-0.455506	16.2625
 269	1	3	-0.691987	-3.19554	-1.37875	6.86636
 270	1	7	-0.710982	-5.34666	-1.95967	6.3938
 271	1	1	-0.062645	-3.28605	-0.434874	20.0023
 272	1	1	0.026743	-4.00153	-0.101155	17.6881
 273	1	1	-0.399843	-4.29447	0.430978	20.44
 274	1	1	-0.107518	-3.13552	-0.685025	18.635
 275	1	1	0.292439	-5.15152	1.08461	19.5288
 276	1	1	-0.410418	-5.00165	0.794193	18.1475
 277	1	8	0.148547	-2.39717	-1.09109	9.55619
 278	1	8	0.179912	-7.13993	-2.28803	8.47451
 279	1	8	0.155197	-6.43161	-2.00356	10.8792
 280	1	9	0.340258	-5.5615	0.439213	15.3193
 281	1	8	0.137111	-2.14103	-2.63075	11.5048
 282	1	8	0.181656	-1.38284	-2.55489	13.9003
 283	1	8	0.164633	-5.58979	-0.19471	12.5239
 284	1	9	0.430928	-2.22758	-1.15642	6.73474
 285	1	8	0.141007	-2.61951	-0.911477	20.7183
 286	1	8	0.203537	-4.39738	0.632013	21.5046
 287	1	8	0.116715	-2.35313	-1.36813	18.3142
 288	1	8	0.18244	-5.66402	1.2662	17.434
 289	1	1	-0.155485	-10.5303	-5.17488	-3.05275
 290	1	2	-0.03785	-10.3707	-4.62199	-1.75128
 291	1	1	-0.234781	-12.5835	-5.57874	-1.14175
 292	1	1	0.378053	-12.6726	-6.12601	-2.42274
 293	1	1	-0.208553	-11.4303	-4.82652	-0.812777
 294	1	3	-0.411858	-6.86162	-2.89745	1.446
 295	1	1	-0.147234	-8.24216	-3.3615	-2.38634
 296	1	1	0.107751	-11.6841	-5.90341	-3.33695
 297	1	4	0.626409	-13.2003	-7.2306	-4.16001
 298	1	2	0.00453	-9.10341	-3.89879	-1.37868
 299	1	1	0.356173	-6.64366	-2.66947	-0.728003
 300	1	1	0.030551	-7.4755	-3.13395	0.251839
 301	1	1	-0.286062	-7.00442	-2.76168	-2.07086
 302	1	5	-0.595919	-5.49709	-2.16884	-0.229563
 303	1	1	-0.206338	-8.69358	-3.76916	-0.0198023
 304	1	6	0.462884	-5.64465	-2.30332	1.09879
 305	1	3	-0.691987	-12.0043	-6.57269	-4.47696
 306	1	7	-0.710982	-13.6292	-6.93819	-2.91868
 307	1	1	-0.062645	-2.35793	-1.09502	2.54022
 308	1	1	0.026743	-4.62005	-1.88908	2.07469
 309	1	1	-0.399843	-2.60359	-1.18148	3.9189
 310	1	1	-0.107518	-3.36417	-1.43659	1.6274
 311	1	1	0.292439	-3.86304	-1.59885	4.40871
 312	1	1	-0.410418	-4.8576	-1.94391	3.46638
 313	1	8	0.148547	-9.76392	-5.0856	-3.80871
 314	1	8	0.179912	-13.3752	-5.76204	-0.42323
 315	1	8	0.155197	-11.3576	-4.40749	0.185779
 316	1	9	0.340258	-7.13656	-3.20455	2.36258
 317	1	8	0.137111	-8.5381	-3.39735	-3.42825
 318	1	8	0.181656	-6.34698	-2.36236	-2.83499
 319	1	8	0.164633	-9.27969	-4.18633	0.790899
 320	1	9	0.430928	-11.3785	-6.85752	-5.20778
 321	1	8	0.141007	-1.38639	-0.770516	2.17434
 322	1	8	0.203537	-1.80961	-0.920057	4.60738
 323	1	8	0.116715	-3.15628	-1.37695	0.562704
 324	1	8	0.18244	-5.82175	-2.27251	3.84086
 325	1	1	-0.155485	-19.2004	-16.8158	-2.58194
 326	1	2	-0.03785	-19.2984	-16.0719	-3.78548
 327	1	1	-0.234781	-20.0027	-18.1353	-4.96674
 328	1	1	0.378053	-19.8761	-18.8301	-3.76088
 329	1	1	-0.208553	-19.706	-16.7512	-4.97328
 330	1	3	-0.411858	-16.7656	-12.1918	-5.64557
 331	1	1	-0.147234	-19.0601	-13.8019	-2.66128
 332	1	1	0.107751	-19.4977	-18.1764	-2.62201
 333	1	4	0.626409	-19.7432	-20.3082	-2.23487
 334	1	2	0.00453	-18.8651	-14.6419	-3.79928
 335	1	1	0.356173	-17.7317	-12.0681	-3.67271
 336	1	1	0.030551	-17.5911	-12.8473	-4.78824
 337	1	1	-0.286062	-18.4939	-12.5094	-2.58984
 338	1	5	-0.595919	-17.0051	-10.9356	-3.75769
 339	1	1	-0.206338	-18.1258	-14.133	-4.89797
 340	1	6	0.462884	-16.4007	-11.0344	-4.95296
 341	1	3	-0.691987	-19.4088	-19.0933	-1.62409
 342	1	7	-0.710982	-20.0434	-20.1523	-3.53802
 343	1	1	-0.062645	-13.9037	-9.34909	-7.24778
 344	1	1	0.026743	-15.402	-10.0781	-5.46298
 345	1	1	-0.399843	-13.3717	-8.36563	-6.40292
 346	1	1	-0.107518	-14.8878	-10.2206	-6.76715
 347	1	1	0.292439	-13.8442	-8.20732	-5.07821
 348	1	1	-0.410418	-14.9029	-9.03586	-4.6521
 349	1	8	0.148547	-18.8492	-16.3558	-1.66522
 350	1	8	0.179912	-20.2959	-18.6645	-5.86707
 351	1	8	0.155197	-19.7838	-16.197	-5.90519
 352	1	9	0.340258	-16.3398	-12.5493	-6.4804
 353	1	8	0.137111	-19.6322	-14.1719	-1.81531
 354	1	8	0.181656	-18.5978	-11.8827	-1.71059
 355	1	8	0.164633	-17.9148	-14.7494	-5.76482
 356	1	9	0.430928	-19.1121	-18.947	-0.680244
 357	1	8	0.141007	-13.5383	-9.45717	-8.26589
 358	1	8	0.203537	-12.5942	-7.71239	-6.78047
 359	1	8	0.116715	-15.2594	-10.9991	-7.42451
 360	1	8	0.18244	-15.2718	-8.9312	-3.63256
 361	1	1	-0.155485	-16.7965	-20.6223	7.78489
 362	1	2	-0.03785	-16.369	-21.8357	7.17902
 363	1	1	-0.234781	-14.2154	-21.6648	8.37507
 364	1	1	0.378053	-14.658	-20.4585	8.91719
 365	1	1	-0.208553	-15.0879	-22.3599	7.51248
 366	1	3	-0.411858	-18.5505	-21.8595	2.70189
 367	1	1	-0.147234	-17.3332	-23.8953	6.04319
 368	1	1	0.107751	-15.9183	-19.9865	8.6695
 369	1	4	0.626409	-14.7815	-18.5706	9.88546
 370	1	2	0.00453	-17.1572	-22.4816	6.09223
 371	1	1	0.356173	-18.3197	-23.7222	3.8514
 372	1	1	0.030551	-18.1672	-22.3632	3.90555
 373	1	1	-0.286062	-17.9275	-24.5249	4.92548
 374	1	5	-0.595919	-18.7977	-24.1245	2.65494
 375	1	1	-0.206338	-17.6004	-21.6989	4.99611
 376	1	6	0.462884	-18.9126	-22.9841	1.95521
 377	1	3	-0.691987	-16.0473	-18.7929	9.32352
 378	1	7	-0.710982	-13.9373	-19.5899	9.64756
 379	1	1	-0.062645	-20.0209	-24.046	-1.51217
 380	1	1	0.026743	-19.3244	-22.9186	0.539878
 381	1	1	-0.399843	-20.0563	-22.8141	-2.18331
 382	1	1	-0.107518	-19.6535	-24.095	-0.16005
 383	1	1	0.292439	-19.7316	-21.6133	-1.52012
 384	1	1	-0.410418	-19.3751	-21.6861	-0.152197
 385	1	8	0.148547	-17.7616	-20.1889	7.54544
 386	1	8	0.179912	-13.2119	-22.0184	8.58455
 387	1	8	0.155197	-14.7452	-23.2738	7.03239
 388	1	9	0.340258	-18.5089	-20.9091	2.38726
 389	1	8	0.137111	-16.9774	-24.5024	6.87194
 390	1	8	0.181656	-18.0362	-25.6025	4.86588
 391	1	8	0.164633	-17.4287	-20.628	4.97346
 392	1	9	0.430928	-16.8168	-18.1507	9.29688
 393	1	8	0.141007	-20.2692	-24.9651	-2.0388
 394	1	8	0.203537	-20.3304	-22.7786	-3.23595
 395	1	8	0.116715	-19.6189	-25.0563	0.346471
 396	1	8	0.18244	-19.1204	-20.7754	0.370433
 397	1	1	-0.155485	-5.63847	-15.9896	7.96381
 398	1	2	-0.03785	-5.84142	-14.8693	8.82711
 399	1	1	-0.234781	-4.19293	-13.6034	7.4584
 400	1	1	0.378053	-4.07394	-14.7104	6.62186
 401	1	1	-0.208553	-5.08219	-13.6871	8.55179
 402	1	3	-0.411858	-10.1648	-16.4682	10.7713
 403	1	1	-0.147234	-7.07701	-13.7957	10.8177
 404	1	1	0.107751	-4.76055	-15.861	6.88334
 405	1	4	0.626409	-3.67708	-16.0143	4.98902
 406	1	2	0.00453	-6.92224	-14.8731	9.88519
 407	1	1	0.356173	-9.223	-14.6334	11.5265
 408	1	1	0.030551	-9.02522	-15.7325	10.7397
 409	1	1	-0.286062	-8.23008	-13.6592	11.6261
 410	1	5	-0.595919	-10.4852	-14.5795	12.0084
 411	1	1	-0.206338	-7.92656	-15.8827	9.89215
 412	1	6	0.462884	-11.0625	-15.6727	11.4832
 413	1	3	-0.691987	-4.50488	-16.7344	5.8636
 414	1	7	-0.710982	-3.38452	-14.7919	5.46807
 415	1	1	-0.062645	-14.8165	-15.1694	11.6519
 416	1	1	0.026743	-12.5109	-15.9382	11.4505
 417	1	1	-0.399843	-15.2695	-16.3228	10.9843
 418	1	1	-0.107518	-13.4443	-14.9805	11.8864
 419	1	1	0.292439	-14.3614	-17.3349	10.5998
 420	1	1	-0.410418	-12.9936	-17.1253	10.8624
 421	1	8	0.148547	-6.17307	-16.9199	8.09459
 422	1	8	0.179912	-3.65685	-12.6898	7.22508
 423	1	8	0.155197	-5.21908	-12.793	9.14876
 424	1	9	0.340258	-10.4053	-17.2568	10.198
 425	1	8	0.137111	-6.33004	-13.0132	10.878
 426	1	8	0.181656	-8.38636	-12.7897	12.2552
 427	1	8	0.164633	-7.91389	-16.7126	9.20018
 428	1	9	0.430928	-4.87461	-17.6558	5.72793
 429	1	8	0.141007	-15.5226	-14.4016	11.9621
 430	1	8	0.203537	-16.3309	-16.4432	10.7984
 431	1	8	0.116715	-13.0988	-14.0577	12.3462
 432	1	8	0.18244	-12.2969	-17.8943	10.5461
 433	1	1	-0.155485	2.16014	-9.56834	-0.690149
 434	1	2	-0.03785	2.78741	-10.8142	-0.455142
 435	1	1	-0.234781	4.62491	-9.64381	0.718002
 436	1	1	0.378053	3.92607	-8.44481	0.541225
 437	1	1	-0.208553	4.04399	-10.8337	0.215366
 438	1	3	-0.411858	-0.635436	-13.9109	1.32324
 439	1	1	-0.147234	2.07621	-12.9989	-1.61033
 440	1	1	0.107751	2.77817	-8.41509	-0.205854
 441	1	4	0.626409	2.92584	-6.64103	1.03525
 442	1	2	0.00453	1.96387	-12.0495	-0.554558
 443	1	1	0.356173	0.375556	-14.3791	-0.574808
 444	1	1	0.030551	0.261507	-13.4474	0.420144
 445	1	1	-0.286062	1.27625	-14.171	-1.62882
 446	1	5	-0.595919	-0.416589	-15.4548	-0.341347
 447	1	1	-0.206338	1.02202	-12.2816	0.475532
 448	1	6	0.462884	-1.00205	-15.1646	0.837324
 449	1	3	-0.691987	2.19381	-7.20578	-0.0151144
 450	1	7	-0.710982	4.06495	-7.31543	1.27532
 451	1	1	-0.062645	-3.07145	-18.1782	1.88264
 452	1	1	0.026743	-1.8895	-16.061	1.60352
 453	1	1	-0.399843	-3.53457	-17.7681	3.1465
 454	1	1	-0.107518	-2.25213	-17.3306	1.11869
 455	1	1	0.292439	-3.19399	-16.4975	3.66368
 456	1	1	-0.410418	-2.37593	-15.6663	2.87026
 457	1	8	0.148547	1.15912	-9.5297	-1.10668
 458	1	8	0.179912	5.5019	-9.66794	1.35661
 459	1	8	0.155197	4.4942	-11.793	0.461927
 460	1	9	0.340258	-0.927682	-13.4894	2.18739
 461	1	8	0.137111	2.79511	-12.8197	-2.40593
 462	1	8	0.181656	1.36433	-14.9054	-2.42095
 463	1	8	0.164633	0.922414	-11.5839	1.30162
 464	1	9	0.430928	1.27322	-6.93957	-0.298854
 465	1	8	0.141007	-3.34441	-19.156	1.49017
 466	1	8	0.203537	-4.16501	-18.4384	3.71965
 467	1	8	0.116715	-1.89639	-17.6596	0.145752
 468	1	8	0.18244	-2.11535	-14.6936	3.27328
 469	1	1	-0.155485	-6.66918	-6.35103	-0.453059
 470	1	2	-0.03785	-6.54583	-6.61961	0.937607
 471	1	1	-0.234781	-8.35563	-8.30282	0.722998
 472	1	1	0.378053	-8.42461	-8.01805	-0.643638
 473	1	1	-0.208553	-7.41345	-7.59695	1.51127
 474	1	3	-0.411858	-1.89856	-4.94761	1.50255
 475	1	1	-0.147234	-5.57638	-5.66958	3.12536
 476	1	1	0.107751	-7.61614	-7.06296	-1.19019
 477	1	4	0.626409	-8.81467	-8.03458	-2.73702
 478	1	2	0.00453	-5.45519	-5.96539	1.73251
 479	1	1	0.356173	-3.29005	-4.87841	3.20117
 480	1	1	0.030551	-3.18649	-5.14799	1.86519
 481	1	1	-0.286062	-4.49779	-5.12099	3.86644
 482	1	5	-0.595919	-2.0978	-4.50584	3.7299
 483	1	1	-0.206338	-4.21782	-5.68711	1.09925
 484	1	6	0.462884	-1.24854	-4.62781	2.69415
 485	1	3	-0.691987	-7.85041	-7.03673	-2.5301
 486	1	7	-0.710982	-9.17277	-8.63182	-1.58682
 487	1	1	-0.062645	2.25548	-4.5546	4.15674
 488	1	1	0.026743	0.222259	-4.66861	2.81144
 489	1	1	-0.399843	2.96416	-5.24058	3.15436
 490	1	1	-0.107518	0.878973	-4.31737	4.0048
 491	1	1	0.292439	2.32487	-5.64127	1.96313
 492	1	1	-0.410418	0.983578	-5.24004	1.76704
 493	1	8	0.148547	-6.04419	-5.6117	-0.940614
 494	1	8	0.179912	-8.98776	-9.0792	1.14032
 495	1	8	0.155197	-7.312	-7.85012	2.56323
 496	1	9	0.340258	-1.48168	-5.09886	0.604532
 497	1	8	0.137111	-6.51006	-5.88938	3.6359
 498	1	8	0.181656	-4.57598	-4.93003	4.93226
 499	1	8	0.164633	-4.04994	-5.94386	0.0598002
 500	1	9	0.430928	-7.43159	-6.43283	-3.20839
 501	1	8	0.141007	2.7492	-4.28936	5.08957
 502	1	8	0.203537	3.99454	-5.54491	3.32928
 503	1	8	0.116715	0.313305	-3.8839	4.82537
 504	1	8	0.18244	0.478641	-5.55666	0.867662
 505	1	1	-0.155485	-11.6387	-17.5488	-6.92265
 506	1	2	-0.03785	-12.59	-16.654	-7.47295
 507	1	1	-0.234781	-12.7732	-18.1195	-9.46068
 508	1	1	0.378053	-11.7963	-18.9504	-8.89968
 509	1	1	-0.208553	-13.156	-16.9561	-8.7464
 510	1	3	-0.411858	-11.602	-11.8289	-6.94548
 511	1	1	-0.147234	-13.1169	-15.3054	-5.39842
 512	1	1	0.107751	-11.2774	-18.6713	-7.66569
 513	1	4	0.626409	-10.1507	-20.2714	-8.62577
 514	1	2	0.00453	-12.7887	-15.3464	-6.78412
 515	1	1	0.356173	-12.4454	-12.9949	-5.28057
 516	1	1	0.030551	-12.2123	-13.0051	-6.63032
 517	1	1	-0.286062	-12.9572	-14.1246	-4.63829
 518	1	5	-0.595919	-11.9685	-11.8752	-4.69816
 519	1	1	-0.206338	-12.3581	-14.1528	-7.4191
 520	1	6	0.462884	-11.412	-11.1953	-5.7117
 521	1	3	-0.691987	-10.2534	-19.535	-7.43982
 522	1	7	-0.710982	-11.1352	-19.9694	-9.49495
 523	1	1	-0.062645	-9.23649	-8.19686	-6.52985
 524	1	1	0.026743	-10.5806	-9.98333	-5.54336
 525	1	1	-0.399843	-8.85993	-7.7637	-5.25018
 526	1	1	-0.107518	-10.071	-9.31242	-6.67307
 527	1	1	0.292439	-9.31559	-8.4295	-4.08614
 528	1	1	-0.410418	-10.2164	-9.5047	-4.26305
 529	1	8	0.148547	-11.1326	-17.315	-5.9915
 530	1	8	0.179912	-13.1545	-18.3345	-10.4531
 531	1	8	0.155197	-13.8629	-16.2609	-9.19196
 532	1	9	0.340258	-11.1759	-11.5784	-7.81786
 533	1	8	0.137111	-13.4156	-16.2244	-4.89966
 534	1	8	0.181656	-13.1204	-14.1087	-3.56547
 535	1	8	0.164633	-12.0215	-14.1716	-8.45081
 536	1	9	0.430928	-9.58687	-19.5179	-6.68925
 537	1	8	0.141007	-8.84893	-7.69548	-7.41542
 538	1	8	0.203537	-8.16927	-6.93208	-5.16512
 539	1	8	0.116715	-10.3192	-9.65071	-7.67349
 540	1	8	0.18244	-10.5784	-10.0298	-3.37879
 541	1	1	-0.155485	0.385908	-19.4744	-4.43516
 542	1	2	-0.03785	-0.0760417	-20.4421	-5.36908
 543	1	1	-0.234781	2.30207	-20.9656	-5.89446
 544	1	1	0.378053	2.69777	-20.0274	-4.93725
 545	1	1	-0.208553	0.914941	-21.1734	-6.09899
 546	1	3	-0.411858	-4.20814	-22.0461	-7.79966
 547	1	1	-0.147234	-2.4876	-20.2343	-4.54923
 548	1	1	0.107751	1.75586	-19.3211	-4.24943
 549	1	4	0.626409	3.73645	-18.9657	-3.40882
 550	1	2	0.00453	-1.55344	-20.6964	-5.53139
 551	1	1	0.356173	-4.33937	-21.0086	-5.86342
 552	1	1	0.030551	-3.46529	-21.5244	-6.77945
 553	1	1	-0.286062	-3.88	-20.3721	-4.71511
 554	1	5	-0.595919	-5.61725	-21.1183	-6.26454
 555	1	1	-0.206338	-2.07634	-21.3775	-6.66944
 556	1	6	0.462884	-5.52486	-21.7103	-7.46507
 557	1	3	-0.691987	2.38634	-18.636	-3.26578
 558	1	7	-0.710982	3.93837	-19.8093	-4.44123
 559	1	1	-0.062645	-7.67154	-22.4997	-10.501
 560	1	1	0.026743	-6.6821	-21.8412	-8.37012
 561	1	1	-0.399843	-8.85245	-21.8127	-10.1709
 562	1	1	-0.107518	-6.58128	-22.4888	-9.61626
 563	1	1	0.292439	-8.98237	-21.1404	-8.9376
 564	1	1	-0.410418	-7.90299	-21.2208	-8.03181
 565	1	8	0.148547	-0.28902	-18.87	-3.8443
 566	1	8	0.179912	3.04849	-21.5627	-6.40568
 567	1	8	0.155197	0.61129	-21.9474	-6.79577
 568	1	9	0.340258	-3.88112	-22.4181	-8.67295
 569	1	8	0.137111	-2.14344	-19.7437	-3.64694
 570	1	8	0.181656	-4.5859	-19.9699	-3.99642
 571	1	8	0.164633	-1.42926	-21.7365	-7.46005
 572	1	9	0.430928	1.97442	-18.1894	-2.46387
 573	1	8	0.141007	-7.58404	-23.0044	-11.4611
 574	1	8	0.203537	-9.67316	-21.7664	-10.8838
 575	1	8	0.116715	-5.66009	-22.9836	-9.90697
 576	1	8	0.18244	-7.96389	-20.7001	-7.08295
 577	1	1	-0.155485	11.0109	-11.7087	2.14378
 578	1	2	-0.03785	10.109	-12.7651	2.42938
 579	1	1	-0.234781	10.2352	-12.1585	4.83951
 580	1	1	0.378053	11.1448	-11.1519	4.50991
 581	1	1	-0.208553	9.71501	-12.9573	3.79199
 582	1	3	-0.411858	8.13279	-16.9878	0.627933
 583	1	1	-0.147234	9.52526	-13.2043	-0.0238902
 584	1	1	0.107751	11.477	-10.9322	3.20264
 585	1	4	0.626409	12.7359	-9.75142	4.52297
 586	1	2	0.00453	9.62259	-13.6615	1.32782
 587	1	1	0.356173	8.57244	-15.3068	-0.718311
 588	1	1	0.030551	8.71674	-15.7661	0.561636
 589	1	1	-0.286062	9.00115	-14.0212	-1.05365
 590	1	5	-0.595919	7.87366	-16.1731	-1.48605
 591	1	1	-0.206338	9.22215	-14.9935	1.60835
 592	1	6	0.462884	7.53174	-17.1435	-0.622286
 593	1	3	-0.691987	12.4347	-9.97654	3.17608
 594	1	7	-0.710982	11.8929	-10.3986	5.34933
 595	1	1	-0.062645	4.9217	-19.7736	0.0839142
 596	1	1	0.026743	6.47486	-18.1421	-0.865164
 597	1	1	-0.399843	4.17249	-19.7379	-1.09603
 598	1	1	-0.107518	6.06921	-18.9825	0.193489
 599	1	1	0.292439	4.60329	-18.9918	-2.21224
 600	1	1	-0.410418	5.76025	-18.1953	-2.0851
 601	1	8	0.148547	11.3808	-11.5345	1.1403
 602	1	8	0.179912	9.98314	-12.3375	5.8793
 603	1	8	0.155197	9.0091	-13.7427	4.04379
 604	1	9	0.340258	7.9474	-17.5281	1.4527
 605	1	8	0.137111	9.80262	-12.1829	-0.266372
 606	1	8	0.181656	8.86345	-13.6484	-2.06318
 607	1	8	0.164633	9.2816	-15.3995	2.61136
 608	1	9	0.430928	12.9884	-9.68494	2.39159
 609	1	8	0.141007	4.59747	-20.3847	0.92387
 610	1	8	0.203537	3.26945	-20.3381	-1.17744
 611	1	8	0.116715	6.60112	-18.9857	1.13822
 612	1	8	0.18244	6.04556	-17.5383	-2.90466
 613	1	1	-0.155485	22.0547	-11.5955	0.238724
 614	1	2	-0.03785	21.7672	-10.2661	-0.15232
 615	1	1	-0.234781	23.6962	-10.313	-1.69605
 616	1	1	0.378053	23.9266	-11.6375	-1.31201
 617	1	1	-0.208553	22.598	-9.63338	-1.11856
 618	1	3	-0.411858	18.6099	-8.44051	3.27897
 619	1	1	-0.147234	19.3883	-9.6038	-0.583637
 620	1	1	0.107751	23.1397	-12.2326	-0.362476
 621	1	4	0.626409	24.3187	-13.7138	-1.42678
 622	1	2	0.00453	20.5004	-9.64173	0.30337
 623	1	1	0.356173	17.9898	-8.78558	1.18816
 624	1	1	0.030551	19.0654	-8.77572	2.03626
 625	1	1	-0.286062	18.1176	-9.17952	-0.144061
 626	1	5	-0.595919	16.843	-8.52673	1.83757
 627	1	1	-0.206338	20.3332	-9.22166	1.6477
 628	1	6	0.462884	17.2233	-8.37877	3.11749
 629	1	3	-0.691987	23.4345	-13.5571	-0.352046
 630	1	7	-0.710982	24.7228	-12.5351	-1.93321
 631	1	1	-0.062645	15.7103	-8.55701	6.60313