pySIMM System Object

1226 atoms
1395 bonds
2312 angles
3668 dihedrals
408 impropers

10 atom types
15 bond types
26 angle types
12 dihedral types
2 improper types

-161.669178 161.669178 xlo xhi
-161.669178 161.669178 ylo yhi
-161.669178 161.669178 zlo zhi

Masses

   1	12.01	# ca
   2	12.01	# cp
   3	14.01	# na
   4	12.01	# cc
   5	14.01	# nc
   6	12.01	# cd
   7	14.01	# nd
   8	1.008	# ha
   9	1.008	# hn
  10	1.008	# h5

Pair Coeffs

   1	0.086	3.3996695084235347	# ca
   2	0.086	3.3996695084235347	# cp
   3	0.17	3.249998523775958	# na
   4	0.086	3.3996695084235347	# cc
   5	0.17	3.249998523775958	# nc
   6	0.086	3.3996695084235347	# cd
   7	0.17	3.249998523775958	# nd
   8	0.015	2.59964245953351	# ha
   9	0.0157	1.069078461768407	# hn
  10	0.015	2.421462715905442	# h5

Bond Coeffs

   1	425.8	1.3802	# cd,na
   2	525.4	1.3172	# cc,nd
   3	345.8	1.086	# ca,ha
   4	351.4	1.4854	# cp,cp
   5	467.7	1.3517	# ca,nc
   6	385.1	1.4555	# ca,cd
   7	467.7	1.3517	# ca,nd
   8	525.4	1.3172	# cd,nc
   9	450.2	1.4058	# ca,cp
  10	425.8	1.3802	# cc,na
  11	420.5	1.384	# ca,na
  12	351.7	1.0819	# cc,h5
  13	461.1	1.3984	# ca,ca
  14	408.4	1.01	# hn,na
  15	385.1	1.4555	# ca,cc

Angle Coeffs

   1	48.18	119.88	# ca,ca,ha
   2	66.28	123.45	# ca,cd,na
   3	64.05	121.11	# ca,cp,cp
   4	46.75	125.5	# cc,na,hn
   5	67.6	123.24	# ca,cd,nc
   6	46.75	125.5	# cd,na,hn
   7	72.48	104.88	# ca,nc,cd
   8	74.9	112.22	# na,cd,nc
   9	66.62	120.02	# ca,ca,ca
  10	46.63	125.54	# ca,na,hn
  11	65.02	120.79	# ca,ca,cd
  12	47.98	119.86	# cp,ca,ha
  13	69.46	119.72	# ca,ca,nc
  14	72.48	104.88	# ca,nd,cc
  15	69.08	118.34	# ca,ca,na
  16	66.72	118.38	# ca,cp,ca
  17	69.46	119.72	# ca,ca,nd
  18	74.9	112.22	# na,cc,nd
  19	67.4	113.15	# ca,na,cc
  20	66.26	120.69	# ca,ca,cp
  21	50.58	125.52	# h5,cc,nd
  22	67.4	113.15	# ca,na,cd
  23	49.58	121.55	# h5,cc,na
  24	66.28	123.45	# ca,cc,na
  25	67.6	123.24	# ca,cc,nd
  26	65.02	120.79	# ca,ca,cc

Dihedral Coeffs

   1	1	4.8	2	180	# X,ca,nc,X
   2	1	4.8	2	180	# X,ca,nd,X
   3	1	4.0	2	180	# X,ca,cd,X
   4	1	4.75	2	180	# X,cd,nc,X
   5	1	4.75	2	180	# X,cc,nd,X
   6	1	1.7	2	180	# X,cc,na,X
   7	1	1.0	2	180	# X,cp,cp,X
   8	1	3.625	2	180	# X,ca,cp,X
   9	1	0.3	2	180	# X,ca,na,X
  10	1	1.7	2	180	# X,cd,na,X
  11	1	3.625	2	180	# X,ca,ca,X
  12	1	4.0	2	180	# X,ca,cc,X

Improper Coeffs

   1	1.1	-1	2	# na,X,X,hn
   2	1.1	-1	2	# ca,X,X,ha

Atoms

   1	1	1	-0.155485	-52.4314	34.5436	5.16129
   2	1	2	-0.03785	-53.2688	35.6923	5.08306
   3	1	1	-0.234781	-52.5073	36.0551	2.75422
   4	1	1	0.378053	-51.7055	34.9209	2.87512
   5	1	1	-0.208553	-53.29	36.4354	3.86523
   6	1	3	-0.411858	-57.3211	37.7466	7.22906
   7	1	1	-0.147234	-53.6343	35.9793	7.58775
   8	1	1	0.107751	-51.6751	34.1981	4.03541
   9	1	4	0.626409	-50.3335	33.3319	2.53926
  10	1	2	0.00453	-54.1022	36.1299	6.24789
  11	1	1	0.356173	-55.6391	37.0095	8.44246
  12	1	1	0.030551	-56.0982	37.1497	7.16175
  13	1	1	-0.286062	-54.398	36.4202	8.69263
  14	1	5	-0.595919	-56.5155	37.4958	9.34553
  15	1	1	-0.206338	-55.3741	36.7314	6.04089
  16	1	6	0.462884	-57.5373	37.9419	8.59605
  17	1	3	-0.691987	-50.8048	33.161	3.85005
  18	1	7	-0.710982	-50.8867	34.4023	1.94161
  19	1	1	-0.062645	-60.0524	39.2874	11.1002
  20	1	1	0.026743	-58.7566	38.56	9.1521
  21	1	1	-0.399843	-61.0865	39.721	10.2562
  22	1	1	-0.107518	-58.8974	38.7123	10.5475
  23	1	1	0.292439	-60.965	39.5833	8.86773
  24	1	1	-0.410418	-59.8095	39.008	8.31869
  25	1	8	0.148547	-52.3908	33.9404	6.06144
  26	1	8	0.179912	-52.5074	36.6215	1.82949
  27	1	8	0.155197	-53.899	37.3326	3.79489
  28	1	9	0.340258	-57.9414	37.9874	6.47831
  29	1	8	0.137111	-52.6555	35.5431	7.7659
  30	1	8	0.181656	-54.0417	36.3211	9.71227
  31	1	8	0.164633	-55.7804	36.8512	5.04259
  32	1	9	0.430928	-50.5352	32.4521	4.50529
  33	1	8	0.141007	-60.141	39.3924	12.1797
  34	1	8	0.203537	-61.9846	40.1651	10.6741
  35	1	8	0.116715	-58.1045	38.3789	11.212
  36	1	8	0.18244	-59.7464	38.9143	7.24144
  37	1	1	-0.155485	-47.9168	35.7411	-7.0958
  38	1	2	-0.03785	-46.6735	35.2186	-6.64323
  39	1	1	-0.234781	-45.4957	36.7319	-8.20597
  40	1	1	0.378053	-46.7373	37.2327	-8.60112
  41	1	1	-0.208553	-45.4712	35.7143	-7.22693
  42	1	3	-0.411858	-48.0699	33.4453	-2.18521
  43	1	1	-0.147234	-45.669	33.1743	-5.49166
  44	1	1	0.107751	-47.8988	36.7316	-8.08176
  45	1	4	0.626409	-48.3125	38.394	-9.43763
  46	1	2	0.00453	-46.6242	34.2342	-5.51982
  47	1	1	0.356173	-46.4769	32.4564	-3.33474
  48	1	1	0.030551	-47.3879	33.4769	-3.35901
  49	1	1	-0.286062	-45.5947	32.2733	-4.40291
  50	1	5	-0.595919	-46.5498	31.7461	-2.18705
  51	1	1	-0.206338	-47.5048	34.38	-4.41716
  52	1	6	0.462884	-47.515	32.3694	-1.49029
  53	1	3	-0.691987	-48.9357	37.4303	-8.63206
  54	1	7	-0.710982	-46.9734	38.2586	-9.44029
  55	1	1	-0.062645	-47.7776	30.5668	1.84099
  56	1	1	0.026743	-47.9405	32.0001	-0.128118
  57	1	1	-0.399843	-48.7443	31.3458	2.50142
  58	1	1	-0.107518	-47.3745	30.8977	0.537868
  59	1	1	0.292439	-49.3281	32.4647	1.86506
  60	1	1	-0.410418	-48.918	32.7611	0.548284
  61	1	8	0.148547	-48.8548	35.39	-6.68065
  62	1	8	0.179912	-44.5856	37.1505	-8.62152
  63	1	8	0.155197	-44.5126	35.343	-6.87234
  64	1	9	0.340258	-48.7835	34.0715	-1.85813
  65	1	8	0.137111	-44.9858	33.0524	-6.32812
  66	1	8	0.181656	-44.8674	31.4693	-4.37365
  67	1	8	0.164633	-48.2183	35.1956	-4.3743
  68	1	9	0.430928	-49.9129	37.3586	-8.42173
  69	1	8	0.141007	-47.3304	29.7079	2.3378
  70	1	8	0.203537	-49.0343	31.0789	3.51122
  71	1	8	0.116715	-46.6192	30.2941	0.0404411
  72	1	8	0.18244	-49.3648	33.6226	0.0638019
  73	1	1	-0.155485	-42.8088	47.2261	-13.2474
  74	1	2	-0.03785	-43.2821	45.9255	-13.5755
  75	1	1	-0.234781	-41.044	45.3467	-14.4583
  76	1	1	0.378053	-40.6161	46.6243	-14.1046
  77	1	1	-0.208553	-42.383	45.0018	-14.1855
  78	1	3	-0.411858	-46.6025	42.5935	-11.9551
  79	1	1	-0.147234	-45.8137	46.3092	-13.4787
  80	1	1	0.107751	-41.4681	47.5245	-13.5248
  81	1	4	0.626409	-39.4559	48.3668	-13.7364
  82	1	2	0.00453	-44.6716	45.4843	-13.2516
  83	1	1	0.356173	-47.2782	44.5451	-12.7103
  84	1	1	0.030551	-46.1765	43.773	-12.466
  85	1	1	-0.286062	-47.1261	45.8408	-13.2174
  86	1	5	-0.595919	-48.4225	43.8953	-12.39
  87	1	1	-0.206338	-44.8708	44.1857	-12.7218
  88	1	6	0.462884	-47.9909	42.7108	-11.92
  89	1	3	-0.691987	-40.7499	48.6608	-13.2733
  90	1	7	-0.710982	-39.3787	47.1277	-14.2484
  91	1	1	-0.062645	-51.0327	40.7318	-10.7906
  92	1	1	0.026743	-48.8449	41.6432	-11.3693
  93	1	1	-0.399843	-50.4206	39.628	-10.168
  94	1	1	-0.107518	-50.2478	41.7424	-11.3701
  95	1	1	0.292439	-49.0129	39.5003	-10.1475
  96	1	1	-0.410418	-48.2548	40.5019	-10.7851
  97	1	8	0.148547	-43.4551	47.9491	-12.762
  98	1	8	0.179912	-40.3497	44.651	-14.9174
  99	1	8	0.155197	-42.7366	44.0099	-14.4555
 100	1	9	0.340258	-46.054	41.8106	-11.6465
 101	1	8	0.137111	-45.6746	47.3042	-13.8925
 102	1	8	0.181656	-48.0005	46.4543	-13.405
 103	1	8	0.164633	-44.0301	43.533	-12.5105
 104	1	9	0.430928	-41.0595	49.5041	-12.8306
 105	1	8	0.141007	-52.1172	40.8203	-10.8088
 106	1	8	0.203537	-51.0439	38.8709	-9.70613
 107	1	8	0.116715	-50.7287	42.6061	-11.8228
 108	1	8	0.18244	-47.1751	40.4059	-10.7541
 109	1	1	-0.155485	-28.1933	49.1146	-16.3858
 110	1	2	-0.03785	-28.8732	47.9628	-15.9061
 111	1	1	-0.234781	-26.7155	46.7415	-15.8553
 112	1	1	0.378053	-26.0923	47.8857	-16.3543
 113	1	1	-0.208553	-28.1103	46.7873	-15.6363
 114	1	3	-0.411858	-33.3645	49.8432	-14.5534
 115	1	1	-0.147234	-31.1007	46.7917	-16.1186
 116	1	1	0.107751	-26.8123	49.0243	-16.5945
 117	1	4	0.626409	-24.72	49.2831	-17.1816
 118	1	2	0.00453	-30.3606	47.9508	-15.742
 119	1	1	0.356173	-33.1519	47.8317	-15.4242
 120	1	1	0.030551	-32.4593	48.9585	-15.0717
 121	1	1	-0.286062	-32.5006	46.7249	-15.9653
 122	1	5	-0.595919	-34.4637	47.941	-15.1538
 123	1	1	-0.206338	-31.0682	49.0686	-15.215
 124	1	6	0.462884	-34.5867	49.1596	-14.6078
 125	1	3	-0.691987	-25.9537	49.9481	-17.1111
 126	1	7	-0.710982	-24.7958	48.0292	-16.7008
 127	1	1	-0.062645	-37.2327	51.4071	-13.04
 128	1	1	0.026743	-35.8756	49.6744	-14.0996
 129	1	1	-0.399843	-38.3663	50.5777	-13.1051
 130	1	1	-0.107518	-35.9953	50.9572	-13.5305
 131	1	1	0.292439	-38.2833	49.2831	-13.6666
 132	1	1	-0.410418	-37.03	48.8661	-14.1597
 133	1	8	0.148547	-28.7358	50.0206	-16.6318
 134	1	8	0.179912	-26.1346	45.8444	-15.671
 135	1	8	0.155197	-28.6137	45.9015	-15.256
 136	1	9	0.340258	-33.1915	50.7492	-14.1588
 137	1	8	0.137111	-30.578	45.9393	-16.5443
 138	1	8	0.181656	-33.0684	45.8429	-16.2417
 139	1	8	0.164633	-30.5421	49.9629	-14.8998
 140	1	9	0.430928	-26.1687	50.8604	-17.4649
 141	1	8	0.141007	-37.3092	52.4009	-12.6033
 142	1	8	0.203537	-39.3098	50.9405	-12.7136
 143	1	8	0.116715	-35.133	51.6122	-13.4648
 144	1	8	0.18244	-36.9513	47.8697	-14.592
 145	1	1	-0.155485	-15.6172	43.7174	-18.3258
 146	1	2	-0.03785	-15.9639	44.4586	-19.4864
 147	1	1	-0.234781	-15.0783	42.633	-20.902
 148	1	1	0.378053	-14.7624	41.9316	-19.7377
 149	1	1	-0.208553	-15.6692	43.9086	-20.7672
 150	1	3	-0.411858	-19.7477	47.5257	-18.2486
 151	1	1	-0.147234	-16.1142	46.9124	-20.0634
 152	1	1	0.107751	-15.0002	42.4738	-18.5036
 153	1	4	0.626409	-14.1786	40.4551	-18.3244
 154	1	2	0.00453	-16.649	45.7791	-19.3871
 155	1	1	0.356173	-18.0007	48.2421	-19.3822
 156	1	1	0.030551	-18.5231	47.1578	-18.729
 157	1	1	-0.286062	-16.7802	48.1569	-20.0543
 158	1	5	-0.595919	-18.8283	49.3039	-19.338
 159	1	1	-0.206338	-17.8825	45.9119	-18.6937
 160	1	6	0.462884	-19.9029	48.8498	-18.674
 161	1	3	-0.691987	-14.5922	41.565	-17.5716
 162	1	7	-0.710982	-14.2615	40.6834	-19.6471
 163	1	1	-0.062645	-22.3356	51.7456	-18.8554
 164	1	1	0.026743	-21.1293	49.6515	-18.4879
 165	1	1	-0.399843	-23.483	51.1981	-18.2639
 166	1	1	-0.107518	-21.1734	50.9739	-18.9713
 167	1	1	0.292439	-23.4845	49.8745	-17.7667
 168	1	1	-0.410418	-22.2896	49.1236	-17.8731
 169	1	8	0.148547	-15.8187	44.1093	-17.3346
 170	1	8	0.179912	-14.8868	42.1876	-21.8722
 171	1	8	0.155197	-15.9429	44.4679	-21.6592
 172	1	9	0.340258	-20.4291	46.9607	-17.7737
 173	1	8	0.137111	-15.1769	46.8112	-20.6049
 174	1	8	0.181656	-16.3896	49.0198	-20.5825
 175	1	8	0.164633	-18.3388	45.0577	-18.2044
 176	1	9	0.430928	-14.6853	41.6192	-16.5752
 177	1	8	0.141007	-22.345	52.7637	-19.2396
 178	1	8	0.203537	-24.375	51.8096	-18.199
 179	1	8	0.116715	-20.2992	51.4081	-19.45
 180	1	8	0.18244	-22.2937	48.1037	-17.5013
 181	1	1	-0.155485	-13.8565	32.1656	-24.5422
 182	1	2	-0.03785	-13.3175	31.54	-23.3786
 183	1	1	-0.234781	-12.9622	29.4752	-24.7176
 184	1	1	0.378053	-13.5212	30.1224	-25.8163
 185	1	1	-0.208553	-12.8512	30.1936	-23.5082
 186	1	3	-0.411858	-13.2924	35.5677	-20.3027
 187	1	1	-0.147234	-13.1801	31.5023	-20.8305
 188	1	1	0.107751	-13.9252	31.4253	-25.7301
 189	1	4	0.626409	-14.2827	30.6197	-27.7362
 190	1	2	0.00453	-13.2563	32.2494	-22.0483
 191	1	1	0.356173	-13.1386	33.5191	-19.5217
 192	1	1	0.030551	-13.2415	34.2532	-20.6711
 193	1	1	-0.286062	-13.1095	32.1275	-19.5677
 194	1	5	-0.595919	-13.1063	34.2957	-18.4213
 195	1	1	-0.206338	-13.2948	33.672	-21.947
 196	1	6	0.462884	-13.2167	35.5421	-18.905
 197	1	3	-0.691987	-14.4043	31.7828	-26.9591
 198	1	7	-0.710982	-13.744	29.6044	-27.0395
 199	1	1	-0.062645	-13.3507	37.7134	-15.8008
 200	1	1	0.026743	-13.3114	36.7362	-18.0415
 201	1	1	-0.399843	-13.6539	38.9706	-16.3454
 202	1	1	-0.107518	-13.2007	36.6039	-16.6433
 203	1	1	0.292439	-13.7762	39.145	-17.7428
 204	1	1	-0.410418	-13.5623	38.0212	-18.5742
 205	1	8	0.148547	-14.2362	33.1793	-24.5137
 206	1	8	0.179912	-12.6276	28.4475	-24.8084
 207	1	8	0.155197	-12.3914	29.6924	-22.6628
 208	1	9	0.340258	-13.3972	36.3789	-20.8856
 209	1	8	0.137111	-13.1978	30.4183	-20.8552
 210	1	8	0.181656	-13.0543	31.5558	-18.6477
 211	1	8	0.164633	-13.3503	34.2997	-22.8278
 212	1	9	0.430928	-14.8057	32.6575	-27.2386
 213	1	8	0.141007	-13.2544	37.5874	-14.7242
 214	1	8	0.203537	-13.7876	39.8116	-15.6748
 215	1	8	0.116715	-13.0002	35.63	-16.2035
 216	1	8	0.18244	-13.6695	38.1533	-19.646
 217	1	1	-0.155485	-14.6065	21.1216	-32.1883
 218	1	2	-0.03785	-15.5181	21.8973	-32.9662
 219	1	1	-0.234781	-16.5732	19.8018	-33.7625
 220	1	1	0.378053	-15.6385	19.0875	-33.0179
 221	1	1	-0.208553	-16.5109	21.2085	-33.726
 222	1	3	-0.411858	-14.7779	26.5546	-31.1432
 223	1	1	-0.147234	-15.8262	24.0742	-34.235
 224	1	1	0.107751	-14.7084	19.7215	-32.2414
 225	1	4	0.626409	-14.4209	17.5434	-32.2026
 226	1	2	0.00453	-15.4453	23.3967	-33.0357
 227	1	1	0.356173	-15.4552	26.2144	-33.2062
 228	1	1	0.030551	-15.0536	25.5817	-32.0604
 229	1	1	-0.286062	-15.8383	25.4819	-34.3277
 230	1	5	-0.595919	-15.4713	27.5549	-33.0702
 231	1	1	-0.206338	-15.0335	24.185	-31.924
 232	1	6	0.462884	-15.0815	27.752	-31.8018
 233	1	3	-0.691987	-13.9292	18.7478	-31.6659
 234	1	7	-0.710982	-15.4806	17.7546	-33.0008
 235	1	1	-0.062645	-15.5371	31.4747	-31.2446
 236	1	1	0.026743	-15.0546	29.0804	-31.1582
 237	1	1	-0.399843	-15.1663	31.6079	-29.8967
 238	1	1	-0.107518	-15.4785	30.2205	-31.8682
 239	1	1	0.292439	-14.6998	30.4948	-29.1606
 240	1	1	-0.410418	-14.648	29.2426	-29.815
 241	1	8	0.148547	-13.8249	21.5976	-31.6076
 242	1	8	0.179912	-17.3035	19.2736	-34.3661
 243	1	8	0.155197	-17.2399	21.7734	-34.3006
 244	1	9	0.340258	-14.5157	26.4495	-30.1795
 245	1	8	0.137111	-16.1185	23.4981	-35.1081
 246	1	8	0.181656	-16.1534	25.9948	-35.2301
 247	1	8	0.164633	-14.7556	23.7226	-30.9837
 248	1	9	0.430928	-13.1014	18.8674	-31.1147
 249	1	8	0.141007	-15.8805	32.3389	-31.81
 250	1	8	0.203537	-15.2197	32.5865	-29.4341
 251	1	8	0.116715	-15.7891	30.1301	-32.9062
 252	1	8	0.18244	-14.3029	28.3854	-29.2461
 253	1	1	-0.155485	-7.56785	14.0605	-24.4914
 254	1	2	-0.03785	-7.08877	13.5574	-25.7317
 255	1	1	-0.234781	-4.90109	13.0821	-24.6672
 256	1	1	0.378053	-5.42099	13.551	-23.4607
 257	1	1	-0.208553	-5.74521	13.0834	-25.7995
 258	1	3	-0.411858	-10.587	15.0169	-29.1018
 259	1	1	-0.147234	-7.9861	12.1838	-27.6367
 260	1	1	0.107751	-6.69971	14.0342	-23.3913
 261	1	4	0.626409	-5.73826	14.0605	-21.4202
 262	1	2	0.00453	-7.98907	13.4146	-26.9184
 263	1	1	0.356173	-9.6759	13.0108	-29.1283
 264	1	1	0.030551	-9.67536	14.2108	-28.4694
 265	1	1	-0.286062	-8.83583	11.9691	-28.7397
 266	1	5	-0.595919	-10.5709	12.9863	-30.1294
 267	1	1	-0.206338	-8.86511	14.4537	-27.3472
 268	1	6	0.462884	-11.1297	14.2055	-30.1085
 269	1	3	-0.691987	-6.9301	14.3805	-22.0918
 270	1	7	-0.710982	-4.81177	13.5607	-22.2563
 271	1	1	-0.062645	-13.8213	13.8297	-32.7266
 272	1	1	0.026743	-12.2194	14.582	-31.0381
 273	1	1	-0.399843	-14.3676	15.1141	-32.7796
 274	1	1	-0.107518	-12.7467	13.575	-31.8737
 275	1	1	0.292439	-13.8429	16.1785	-32.013
 276	1	1	-0.410418	-12.7694	15.8909	-31.1251
 277	1	8	0.148547	-8.59356	14.3968	-24.3863
 278	1	8	0.179912	-3.88553	12.7035	-24.7077
 279	1	8	0.155197	-5.36507	12.6999	-26.7436
 280	1	9	0.340258	-10.8725	15.9453	-28.8527
 281	1	8	0.137111	-7.33539	11.3775	-27.3078
 282	1	8	0.181656	-8.85361	11.026	-29.2756
 283	1	8	0.164633	-8.88766	15.4081	-26.8325
 284	1	9	0.430928	-7.77801	14.7265	-21.6853
 285	1	8	0.141007	-14.2257	13.0318	-33.3463
 286	1	8	0.203537	-15.1953	15.3025	-33.4605
 287	1	8	0.116715	-12.3442	12.5658	-31.8434
 288	1	8	0.18244	-12.3628	16.6849	-30.5122
 289	1	1	-0.155485	2.6781	10.6158	-14.1834
 290	1	2	-0.03785	2.27576	11.1002	-15.4623
 291	1	1	-0.234781	4.20939	9.89994	-16.4589
 292	1	1	0.378053	4.55674	9.44955	-15.1839
 293	1	1	-0.208553	3.07149	10.731	-16.5907
 294	1	3	-0.411858	-1.80052	12.9253	-17.8621
 295	1	1	-0.147234	0.544339	12.6974	-14.4945
 296	1	1	0.107751	3.82067	9.81693	-14.0942
 297	1	4	0.626409	5.46878	8.50906	-13.5057
 298	1	2	0.00453	1.0378	11.9471	-15.606
 299	1	1	0.356173	-1.37712	13.4028	-15.7562
 300	1	1	0.030551	-0.892529	12.7454	-16.8534
 301	1	1	-0.286062	-0.66756	13.416	-14.5572
 302	1	5	-0.595919	-2.57597	13.9683	-15.9907
 303	1	1	-0.206338	0.294642	11.9965	-16.8238
 304	1	6	0.462884	-2.83333	13.6663	-17.2728
 305	1	3	-0.691987	4.39921	9.25694	-12.993
 306	1	7	-0.710982	5.58123	8.6413	-14.8412
 307	1	1	-0.062645	-6.31843	15.0545	-17.7844
 308	1	1	0.026743	-4.0862	14.0681	-17.9481
 309	1	1	-0.399843	-6.52542	14.8356	-19.1534
 310	1	1	-0.107518	-5.10441	14.6852	-17.1941
 311	1	1	0.292439	-5.52152	14.248	-19.9572
 312	1	1	-0.410418	-4.31344	13.8544	-19.3295
 313	1	8	0.148547	2.10562	10.8309	-13.2901
 314	1	8	0.179912	4.80843	9.60708	-17.3139
 315	1	8	0.155197	2.80798	11.0958	-17.5785
 316	1	9	0.340258	-1.77242	12.5685	-18.8009
 317	1	8	0.137111	1.10406	12.7198	-13.5656
 318	1	8	0.181656	-1.05677	13.9591	-13.7031
 319	1	8	0.164633	0.610345	11.4355	-17.6959
 320	1	9	0.430928	4.0386	9.21923	-12.0597
 321	1	8	0.141007	-7.09364	15.5153	-17.1753
 322	1	8	0.203537	-7.46695	15.1458	-19.5905
 323	1	8	0.116715	-4.96454	14.8611	-16.1305
 324	1	8	0.18244	-3.54198	13.3989	-19.943
 325	1	1	-0.155485	13.2536	-0.032741	-15.919
 326	1	2	-0.03785	12.6358	0.398229	-14.7074
 327	1	1	-0.234781	14.0451	-1.25536	-13.4883
 328	1	1	0.378053	14.6278	-1.62405	-14.701
 329	1	1	-0.208553	13.044	-0.255216	-13.5003
 330	1	3	-0.411858	9.79088	3.9936	-12.5585
 331	1	1	-0.147234	10.9983	1.96519	-15.913
 332	1	1	0.107751	14.2158	-1.04496	-15.8663
 333	1	4	0.626409	15.841	-2.46093	-16.2382
 334	1	2	0.00453	11.6173	1.51698	-14.7018
 335	1	1	0.356173	9.75517	3.65487	-14.7313
 336	1	1	0.030551	10.3134	3.22698	-13.56
 337	1	1	-0.286062	10.0772	3.03566	-15.9371
 338	1	5	-0.595919	8.89818	4.67649	-14.5405
 339	1	1	-0.206338	11.2472	2.18465	-13.4952
 340	1	6	0.462884	8.92699	4.87934	-13.2133
 341	1	3	-0.691987	14.9505	-1.58686	-16.8783
 342	1	7	-0.710982	15.6352	-2.49988	-14.9087
 343	1	1	-0.062645	7.1602	6.85953	-10.4956
 344	1	1	0.026743	8.08727	5.88529	-12.533
 345	1	1	-0.399843	6.31223	7.67573	-11.2621
 346	1	1	-0.107518	8.03921	5.96743	-11.1275
 347	1	1	0.292439	6.3617	7.65176	-12.6754
 348	1	1	-0.410418	7.2781	6.76709	-13.281
 349	1	8	0.148547	13.0233	0.422988	-16.8724
 350	1	8	0.179912	14.3744	-1.72689	-12.5685
 351	1	8	0.155197	12.5894	0.014311	-12.5537
 352	1	9	0.340258	9.97109	3.93837	-11.5723
 353	1	8	0.137111	11.2213	1.47877	-16.8551
 354	1	8	0.181656	9.61803	3.37737	-16.8588
 355	1	8	0.164633	11.6841	1.91943	-12.5412
 356	1	9	0.430928	14.9602	-1.31827	-17.8424
 357	1	8	0.141007	7.12455	6.9021	-9.4088
 358	1	8	0.203537	5.63472	8.35204	-10.7541
 359	1	8	0.116715	8.65754	5.32018	-10.5146
 360	1	8	0.18244	7.32254	6.73542	-14.3675
 361	1	1	-0.155485	17.5359	-2.52663	-27.2753
 362	1	2	-0.03785	16.8422	-3.27124	-26.2827
 363	1	1	-0.234781	14.7005	-2.7393	-27.3902
 364	1	1	0.378053	15.4109	-1.92181	-28.267
 365	1	1	-0.208553	15.4302	-3.42526	-26.3995
 366	1	3	-0.411858	17.1144	-3.3271	-21.3201
 367	1	1	-0.147234	18.8213	-4.21322	-24.9432
 368	1	1	0.107751	16.7806	-1.89279	-28.2705
 369	1	4	0.626409	15.9675	-0.246348	-29.439
 370	1	2	0.00453	17.5129	-3.64926	-25.0034
 371	1	1	0.356173	18.7593	-4.161	-22.5255
 372	1	1	0.030551	17.5216	-3.58544	-22.5894
 373	1	1	-0.286062	19.4463	-4.48771	-23.7008
 374	1	5	-0.595919	19.157	-4.3331	-21.2446
 375	1	1	-0.206338	16.859	-3.3251	-23.787
 376	1	6	0.462884	18.1426	-3.82716	-20.5206
 377	1	3	-0.691987	17.1675	-0.902371	-29.1307
 378	1	7	-0.710982	14.8917	-0.912347	-28.9869
 379	1	1	-0.062645	18.9554	-4.57263	-16.8947
 380	1	1	0.026743	18.0751	-3.82772	-19.046
 381	1	1	-0.399843	17.889	-3.94289	-16.2333
 382	1	1	-0.107518	19.0548	-4.49919	-18.2914
 383	1	1	0.292439	16.9204	-3.20611	-16.9464
 384	1	1	-0.410418	17.0223	-3.17576	-18.3584
 385	1	8	0.148547	18.5991	-2.33398	-27.1799
 386	1	8	0.179912	13.616	-2.73636	-27.404
 387	1	8	0.155197	14.8913	-3.99588	-25.647
 388	1	9	0.340258	16.227	-2.97509	-21.0156
 389	1	8	0.137111	19.3423	-4.44601	-25.8682
 390	1	8	0.181656	20.4357	-4.92872	-23.6432
 391	1	8	0.164633	15.8857	-2.846	-23.788
 392	1	9	0.430928	18.0834	-0.501386	-29.2115
 393	1	8	0.141007	19.7075	-5.1176	-16.3278
 394	1	8	0.203537	17.823	-3.99062	-15.1481
 395	1	8	0.116715	19.8791	-4.99911	-18.794
 396	1	8	0.18244	16.2762	-2.63347	-18.9223
 397	1	1	-0.155485	8.85958	5.87097	-24.7616
 398	1	2	-0.03785	10.2674	5.94566	-24.6026
 399	1	1	-0.234781	9.96742	6.0924	-22.1512
 400	1	1	0.378053	8.58593	6.02299	-22.3501
 401	1	1	-0.208553	10.8065	6.06486	-23.2895
 402	1	3	-0.411858	12.7903	3.60369	-28.2294
 403	1	1	-0.147234	11.7976	7.07193	-26.2842
 404	1	1	0.107751	8.06482	5.92868	-23.6119
 405	1	4	0.626409	6.46933	6.04849	-22.1175
 406	1	2	0.00453	11.1641	5.89504	-25.7916
 407	1	1	0.356173	12.9236	5.78667	-27.9885
 408	1	1	0.030551	12.3017	4.65866	-27.5237
 409	1	1	-0.286062	12.6783	7.02673	-27.391
 410	1	5	-0.595919	13.8222	5.50215	-28.9576
 411	1	1	-0.206338	11.4237	4.65883	-26.4345
 412	1	6	0.462884	13.7725	4.1628	-29.0512
 413	1	3	-0.691987	6.70595	5.9393	-23.497
 414	1	7	-0.710982	7.6153	6.0692	-21.4131
 415	1	1	-0.062645	16.9654	3.17021	-30.8271
 416	1	1	0.026743	14.783	3.34292	-29.7475
 417	1	1	-0.399843	17.0079	1.7966	-30.5313
 418	1	1	-0.107518	15.8697	3.94287	-30.4112
 419	1	1	0.292439	15.903	1.15614	-29.9278
 420	1	1	-0.410418	14.7701	1.93713	-29.6177
 421	1	8	0.148547	8.41746	5.7929	-25.7491
 422	1	8	0.179912	10.3639	6.18638	-21.1456
 423	1	8	0.155197	11.8853	6.12941	-23.1647
 424	1	9	0.340258	12.6466	2.625	-28.0572
 425	1	8	0.137111	11.6088	8.01975	-25.786
 426	1	8	0.181656	13.1901	7.91273	-27.7508
 427	1	8	0.164633	10.9826	3.73918	-26.0641
 428	1	9	0.430928	6.02256	5.89744	-24.2287
 429	1	8	0.141007	17.8096	3.65436	-31.3143
 430	1	8	0.203537	17.8907	1.22335	-30.7948
 431	1	8	0.116715	15.8937	5.02122	-30.548
 432	1	8	0.18244	13.9471	1.44837	-29.1075
 433	1	1	-0.155485	4.74289	3.51247	-12.5223
 434	1	2	-0.03785	3.98931	4.702	-12.3644
 435	1	1	-0.234781	3.79002	4.22366	-9.94462
 436	1	1	0.378053	4.47595	3.02445	-10.1646
 437	1	1	-0.208553	3.53507	5.05837	-11.06
 438	1	3	-0.411858	4.53211	6.02623	-17.1323
 439	1	1	-0.147234	2.17649	5.76539	-13.7837
 440	1	1	0.107751	4.95922	2.71446	-11.4047
 441	1	4	0.626409	5.10615	0.995535	-10.0857
 442	1	2	0.00453	3.54434	5.40807	-13.5997
 443	1	1	0.356173	2.58856	6.22823	-16.1155
 444	1	1	0.030551	3.91311	5.95062	-15.9238
 445	1	1	-0.286062	1.68732	6.16825	-15.0484
 446	1	5	-0.595919	2.30786	6.43403	-17.4198
 447	1	1	-0.206338	4.42851	5.51376	-14.7036
 448	1	6	0.462884	3.49695	6.28852	-18.0308
 449	1	3	-0.691987	5.42839	1.44023	-11.3711
 450	1	7	-0.710982	4.60155	1.98088	-9.31706
 451	1	1	-0.062645	2.6916	6.45411	-21.7261
 452	1	1	0.026743	3.6771	6.32771	-19.4953
 453	1	1	-0.399843	3.95928	6.28879	-22.3055
 454	1	1	-0.107518	2.55549	6.47666	-20.3322
 455	1	1	0.292439	5.11689	6.16836	-21.502
 456	1	1	-0.410418	4.95034	6.18618	-20.0975
 457	1	8	0.148547	5.04363	3.16904	-13.5062
 458	1	8	0.179912	3.38477	4.44062	-8.96224
 459	1	8	0.155197	2.93267	5.95396	-10.9329
 460	1	9	0.340258	5.51074	5.92337	-17.3355
 461	1	8	0.137111	1.47663	5.63155	-12.9632
 462	1	8	0.181656	0.634451	6.36365	-15.2192
 463	1	8	0.164633	5.46888	5.21829	-14.6202
 464	1	9	0.430928	5.70296	0.872451	-12.1506
 465	1	8	0.141007	1.80908	6.56543	-22.3527
 466	1	8	0.203537	4.04083	6.29078	-23.386
 467	1	8	0.116715	1.56538	6.58973	-19.8976
 468	1	8	0.18244	5.83699	6.08319	-19.4787
 469	1	1	-0.155485	0.932264	-3.43763	-0.5746
 470	1	2	-0.03785	2.06498	-2.77869	-1.11488
 471	1	1	-0.234781	2.48967	-1.74667	1.09608
 472	1	1	0.378053	1.38293	-2.43961	1.59665
 473	1	1	-0.208553	2.81982	-1.91204	-0.270839
 474	1	3	-0.411858	3.76353	-1.65805	-5.71225
 475	1	1	-0.147234	2.58105	-4.43619	-2.94224
 476	1	1	0.107751	0.627966	-3.22416	0.769837
 477	1	4	0.626409	-0.139199	-3.30026	2.81346
 478	1	2	0.00453	2.50518	-3.0805	-2.50737
 479	1	1	0.356173	3.44657	-3.73777	-5.07335
 480	1	1	0.030551	3.34073	-2.43153	-4.67515
 481	1	1	-0.286062	3.06218	-4.77578	-4.2247
 482	1	5	-0.595919	3.95209	-3.84911	-6.31785
 483	1	1	-0.206338	2.89427	-2.05129	-3.40415
 484	1	6	0.462884	4.13783	-2.57578	-6.69749
 485	1	3	-0.691987	-0.369574	-3.76923	1.51282
 486	1	7	-0.710982	0.930764	-2.48457	2.87041
 487	1	1	-0.062645	5.58482	-2.79077	-10.1926
 488	1	1	0.026743	4.66531	-2.18315	-8.01436
 489	1	1	-0.399843	5.62438	-1.43627	-10.5594
 490	1	1	-0.107518	5.0945	-3.16007	-8.93288
 491	1	1	0.292439	5.17933	-0.430096	-9.67017
 492	1	1	-0.410418	4.72966	-0.825185	-8.39389
 493	1	8	0.148547	0.329621	-4.10204	-1.18468
 494	1	8	0.179912	3.0831	-1.12649	1.75903
 495	1	8	0.155197	3.70034	-1.41566	-0.671694
 496	1	9	0.340258	3.80619	-0.656334	-5.77094
 497	1	8	0.137111	2.29953	-5.22988	-2.25541
 498	1	8	0.181656	3.14871	-5.80597	-4.55231
 499	1	8	0.164633	2.83881	-1.0071	-3.11346
 500	1	9	0.430928	-1.05176	-4.44384	1.22502
 501	1	8	0.141007	5.91585	-3.5602	-10.8877
 502	1	8	0.203537	5.98114	-1.17668	-11.5495
 503	1	8	0.116715	5.0535	-4.21325	-8.66593
 504	1	8	0.18244	4.37335	-0.052119	-7.72098
 505	1	1	-0.155485	0.064514	-3.83648	14.7679
 506	1	2	-0.03785	-0.422945	-4.50757	13.6079
 507	1	1	-0.234781	-1.47022	-6.21793	15.06
 508	1	1	0.378053	-1.01873	-5.50262	16.1633
 509	1	1	-0.208553	-1.16551	-5.71449	13.7821
 510	1	3	-0.411858	-1.86418	-3.91143	8.87754
 511	1	1	-0.147234	0.934908	-3.27945	11.8008
 512	1	1	0.107751	-0.265134	-4.36926	16.0247
 513	1	4	0.626409	-0.720852	-4.77494	18.1352
 514	1	2	0.00453	-0.247208	-3.95954	12.2235
 515	1	1	0.356173	0.0758657	-3.11641	9.54282
 516	1	1	0.030551	-1.07417	-3.72122	9.96325
 517	1	1	-0.286062	1.10465	-2.85785	10.4567
 518	1	5	-0.595919	0.0752727	-2.92831	8.2023
 519	1	1	-0.206338	-1.28084	-4.15719	11.2705
 520	1	6	0.462884	-1.09026	-3.46978	7.80237
 521	1	3	-0.691987	-0.0307187	-3.88709	17.2872
 522	1	7	-0.710982	-1.28558	-5.77827	17.447
 523	1	1	-0.062645	-2.99962	-4.8091	4.82157
 524	1	1	0.026743	-1.482	-3.71644	6.3977
 525	1	1	-0.399843	-2.16013	-4.45412	3.75987
 526	1	1	-0.107518	-2.66568	-4.43537	6.12709
 527	1	1	0.292439	-0.99205	-3.68467	3.97326
 528	1	1	-0.410418	-0.674215	-3.32315	5.30449
 529	1	8	0.148547	0.618807	-2.90817	14.6844
 530	1	8	0.179912	-2.07103	-7.1099	15.2033
 531	1	8	0.155197	-1.52346	-6.26082	12.9138
 532	1	9	0.340258	-2.74964	-4.3809	8.83467
 533	1	8	0.137111	1.74272	-3.12681	12.5104
 534	1	8	0.181656	2.02048	-2.38815	10.1145
 535	1	8	0.164633	-2.20834	-4.6494	11.5413
 536	1	9	0.430928	0.484818	-3.06994	17.5547
 537	1	8	0.141007	-3.90345	-5.38642	4.63639
 538	1	8	0.203537	-2.44106	-4.7584	2.75871
 539	1	8	0.116715	-3.32389	-4.74746	6.93008
 540	1	8	0.18244	0.239659	-2.76109	5.49192
 541	1	1	-0.155485	2.12251	-9.90643	21.1983
 542	1	2	-0.03785	1.79106	-10.6016	22.39
 543	1	1	-0.234781	4.19233	-10.9753	22.8129
 544	1	1	0.378053	4.47291	-10.2915	21.6236
 545	1	1	-0.208553	2.83799	-11.1138	23.2058
 546	1	3	-0.411858	-1.32436	-7.46465	23.602
 547	1	1	-0.147234	-0.603526	-11.0566	21.8844
 548	1	1	0.107751	3.46568	-9.76898	20.8635
 549	1	4	0.626409	5.3869	-9.4306	19.9024
 550	1	2	0.00453	0.363902	-10.5525	22.7961
 551	1	1	0.356173	-1.98719	-9.15798	22.3511
 552	1	1	0.030551	-1.18762	-8.80934	23.4163
 553	1	1	-0.286062	-1.80654	-10.3587	21.6606
 554	1	5	-0.595919	-2.46774	-8.06186	21.7339
 555	1	1	-0.206338	0.0138347	-9.48366	23.6546
 556	1	6	0.462884	-1.88394	-7.05251	22.3962
 557	1	3	-0.691987	4.01975	-9.15506	19.7823
 558	1	7	-0.710982	5.6746	-10.0776	21.0487
 559	1	1	-0.062645	-0.21885	-3.69204	21.7773
 560	1	1	0.026743	-1.45073	-5.80228	21.7388
 561	1	1	-0.399843	-0.199824	-3.66308	20.3708
 562	1	1	-0.107518	-0.806227	-4.77366	22.4542
 563	1	1	0.292439	-0.811171	-4.69388	19.6211
 564	1	1	-0.410418	-1.48345	-5.71056	20.333
 565	1	8	0.148547	1.34705	-9.45631	20.585
 566	1	8	0.179912	5.0056	-11.3759	23.408
 567	1	8	0.155197	2.59029	-11.6124	24.1399
 568	1	9	0.340258	-0.731	-6.89726	24.1791
 569	1	8	0.137111	-0.309071	-11.8304	21.1796
 570	1	8	0.181656	-2.41252	-10.5727	20.7862
 571	1	8	0.164633	0.790622	-9.00262	24.2403
 572	1	9	0.430928	3.54553	-8.74867	18.9986
 573	1	8	0.141007	0.259763	-2.89778	22.3477
 574	1	8	0.203537	0.302323	-2.8453	19.8663
 575	1	8	0.116715	-0.75733	-4.80674	23.5384
 576	1	8	0.18244	-1.93479	-6.52552	19.7694
 577	1	1	-0.155485	15.5441	-14.092	19.4421
 578	1	2	-0.03785	14.9037	-12.9203	19.9362
 579	1	1	-0.234781	16.2833	-13.031	21.9789
 580	1	1	0.378053	16.8862	-14.1742	21.4593
 581	1	1	-0.208553	15.2807	-12.4093	21.2099
 582	1	3	-0.411858	10.4712	-10.6814	19.2798
 583	1	1	-0.147234	14.1398	-11.7794	17.8048
 584	1	1	0.107751	16.5216	-14.6928	20.247
 585	1	4	0.626409	18.1823	-15.8245	21.1209
 586	1	2	0.00453	13.8748	-12.1925	19.142
 587	1	1	0.356173	11.9837	-10.7108	17.682
 588	1	1	0.030551	11.7232	-11.1129	18.9639
 589	1	1	-0.286062	13.1982	-11.0233	17.0708
 590	1	5	-0.595919	10.9501	-10.0292	17.1475
 591	1	1	-0.206338	12.6353	-11.8383	19.7363
 592	1	6	0.462884	10.0287	-10.0351	18.122
 593	1	3	-0.691987	17.3167	-15.7849	20.0137
 594	1	7	-0.710982	17.8953	-14.8617	22.0111
 595	1	1	-0.062645	6.98195	-8.37725	16.5909
 596	1	1	0.026743	8.67572	-9.47227	17.9686
 597	1	1	-0.399843	6.03899	-8.51967	17.6234
 598	1	1	-0.107518	8.28639	-8.86275	16.7609
 599	1	1	0.292439	6.39179	-9.14644	18.8428
 600	1	1	-0.410418	7.72373	-9.57909	19.0043
 601	1	8	0.148547	15.2789	-14.5054	18.4747
 602	1	8	0.179912	16.6114	-12.6335	22.9332
 603	1	8	0.155197	14.8161	-11.4973	21.5767
 604	1	9	0.340258	9.9495	-10.8389	20.1234
 605	1	8	0.137111	15.0978	-12.0219	17.3535
 606	1	8	0.181656	13.392	-10.6868	16.0589
 607	1	8	0.164633	12.403	-12.1339	20.7542
 608	1	9	0.430928	17.3366	-16.376	19.2048
 609	1	8	0.141007	6.69994	-7.92656	15.641
 610	1	8	0.203537	5.02315	-8.18091	17.4552
 611	1	8	0.116715	8.99692	-8.78238	15.9413
 612	1	8	0.18244	7.98985	-10.0646	19.9378
 613	1	1	-0.155485	26.9695	-17.7315	28.3527
 614	1	2	-0.03785	25.5971	-17.5833	28.6619
 615	1	1	-0.234781	25.9863	-18.6483	30.8614
 616	1	1	0.378053	27.3326	-18.7914	30.5132
 617	1	1	-0.208553	25.1206	-18.0308	29.9278
 618	1	3	-0.411858	23.1948	-17.919	24.2986
 619	1	1	-0.147234	23.811	-15.9687	27.8671
 620	1	1	0.107751	27.7893	-18.3233	29.3111
 621	1	4	0.626409	29.3805	-19.3431	30.3917
 622	1	2	0.00453	24.6548	-17.089	27.6258
 623	1	1	0.356173	22.7424	-16.3072	25.7375
 624	1	1	0.030551	23.5708	-17.3674	25.4891
 625	1	1	-0.286062	22.8504	-15.5635	26.9148
 626	1	5	-0.595919	21.8319	-16.1532	24.7611
 627	1	1	-0.206338	24.5421	-17.7925	26.3985
 628	1	6	0.462884	22.097	-17.1497	23.9007
 629	1	3	-0.691987	29.1037	-18.638	29.2165
 630	1	7	-0.710982	28.3098	-19.4214	31.2042
 631	1	1	-0.062645	20.7814	-18.6095	20.6342