pySIMM System Object

1766 atoms
2010 bonds
3332 angles
5288 dihedrals
588 impropers

10 atom types
15 bond types
26 angle types
12 dihedral types
2 improper types

-183.176461 183.176461 xlo xhi
-183.176461 183.176461 ylo yhi
-183.176461 183.176461 zlo zhi

Masses

   1	12.01	# ca
   2	12.01	# cp
   3	14.01	# na
   4	12.01	# cc
   5	14.01	# nc
   6	12.01	# cd
   7	14.01	# nd
   8	1.008	# ha
   9	1.008	# hn
  10	1.008	# h5

Pair Coeffs

   1	0.086	3.3996695084235347	# ca
   2	0.086	3.3996695084235347	# cp
   3	0.17	3.249998523775958	# na
   4	0.086	3.3996695084235347	# cc
   5	0.17	3.249998523775958	# nc
   6	0.086	3.3996695084235347	# cd
   7	0.17	3.249998523775958	# nd
   8	0.015	2.59964245953351	# ha
   9	0.0157	1.069078461768407	# hn
  10	0.015	2.421462715905442	# h5

Bond Coeffs

   1	425.8	1.3802	# cd,na
   2	525.4	1.3172	# cc,nd
   3	345.8	1.086	# ca,ha
   4	351.4	1.4854	# cp,cp
   5	467.7	1.3517	# ca,nc
   6	385.1	1.4555	# ca,cd
   7	467.7	1.3517	# ca,nd
   8	525.4	1.3172	# cd,nc
   9	450.2	1.4058	# ca,cp
  10	425.8	1.3802	# cc,na
  11	420.5	1.384	# ca,na
  12	351.7	1.0819	# cc,h5
  13	461.1	1.3984	# ca,ca
  14	408.4	1.01	# hn,na
  15	385.1	1.4555	# ca,cc

Angle Coeffs

   1	48.18	119.88	# ca,ca,ha
   2	66.28	123.45	# ca,cd,na
   3	64.05	121.11	# ca,cp,cp
   4	46.75	125.5	# cc,na,hn
   5	67.6	123.24	# ca,cd,nc
   6	46.75	125.5	# cd,na,hn
   7	72.48	104.88	# ca,nc,cd
   8	74.9	112.22	# na,cd,nc
   9	66.62	120.02	# ca,ca,ca
  10	46.63	125.54	# ca,na,hn
  11	65.02	120.79	# ca,ca,cd
  12	47.98	119.86	# cp,ca,ha
  13	69.46	119.72	# ca,ca,nc
  14	72.48	104.88	# ca,nd,cc
  15	69.08	118.34	# ca,ca,na
  16	66.72	118.38	# ca,cp,ca
  17	69.46	119.72	# ca,ca,nd
  18	74.9	112.22	# na,cc,nd
  19	67.4	113.15	# ca,na,cc
  20	66.26	120.69	# ca,ca,cp
  21	50.58	125.52	# h5,cc,nd
  22	67.4	113.15	# ca,na,cd
  23	49.58	121.55	# h5,cc,na
  24	66.28	123.45	# ca,cc,na
  25	67.6	123.24	# ca,cc,nd
  26	65.02	120.79	# ca,ca,cc

Dihedral Coeffs

   1	1	4.8	2	180	# X,ca,nc,X
   2	1	4.8	2	180	# X,ca,nd,X
   3	1	4.0	2	180	# X,ca,cd,X
   4	1	4.75	2	180	# X,cd,nc,X
   5	1	4.75	2	180	# X,cc,nd,X
   6	1	1.7	2	180	# X,cc,na,X
   7	1	1.0	2	180	# X,cp,cp,X
   8	1	3.625	2	180	# X,ca,cp,X
   9	1	0.3	2	180	# X,ca,na,X
  10	1	1.7	2	180	# X,cd,na,X
  11	1	3.625	2	180	# X,ca,ca,X
  12	1	4.0	2	180	# X,ca,cc,X

Improper Coeffs

   1	1.1	-1	2	# na,X,X,hn
   2	1.1	-1	2	# ca,X,X,ha

Atoms

   1	1	1	-0.155485	-6.15448	-44.356	51.0586
   2	1	2	-0.03785	-5.65244	-45.3371	51.9595
   3	1	1	-0.234781	-4.11811	-43.6319	52.9031
   4	1	1	0.378053	-4.64179	-42.7055	52.0012
   5	1	1	-0.208553	-4.6288	-44.9489	52.8761
   6	1	3	-0.411858	-6.8329	-49.7685	54.034
   7	1	1	-0.147234	-6.64137	-47.3404	50.7321
   8	1	1	0.107751	-5.62123	-43.0644	51.1178
   9	1	4	0.626409	-5.07601	-40.9614	50.8639
  10	1	2	0.00453	-6.17598	-46.7429	51.9429
  11	1	1	0.356173	-7.14247	-49.3945	51.888
  12	1	1	0.030551	-6.7005	-48.8311	53.0536
  13	1	1	-0.286062	-7.12692	-48.6672	50.6971
  14	1	5	-0.595919	-7.55531	-50.6658	52.0675
  15	1	1	-0.206338	-6.21279	-47.522	53.1331
  16	1	6	0.462884	-7.35931	-50.8851	53.378
  17	1	3	-0.691987	-5.92691	-41.9625	50.3728
  18	1	7	-0.710982	-4.29231	-41.4116	51.8608
  19	1	1	-0.062645	-8.47623	-54.4708	53.9313
  20	1	1	0.026743	-7.66054	-52.1637	54.0506
  21	1	1	-0.399843	-8.24262	-54.6297	55.3059
  22	1	1	-0.107518	-8.18606	-53.2447	53.3122
  23	1	1	0.292439	-7.7221	-53.5688	56.0574
  24	1	1	-0.410418	-7.43309	-52.3455	55.4356
  25	1	8	0.148547	-6.94287	-44.5919	50.3528
  26	1	8	0.179912	-3.33458	-43.3327	53.5909
  27	1	8	0.155197	-4.20841	-45.6853	53.555
  28	1	9	0.340258	-6.59882	-49.695	55.0071
  29	1	8	0.137111	-6.60036	-46.776	49.8056
  30	1	8	0.181656	-7.47173	-49.1273	49.7775
  31	1	8	0.164633	-5.88872	-47.1115	54.0828
  32	1	9	0.430928	-6.59525	-41.8813	49.6303
  33	1	8	0.141007	-8.88025	-55.2921	53.3426
  34	1	8	0.203537	-8.46303	-55.5734	55.7945
  35	1	8	0.116715	-8.37076	-53.1348	52.2466
  36	1	8	0.18244	-7.03092	-51.5449	56.0441
  37	1	1	-0.155485	0.994977	-34.2878	55.7425
  38	1	2	-0.03785	1.0488	-33.7006	54.4489
  39	1	1	-0.234781	3.15043	-32.5547	55.0923
  40	1	1	0.378053	3.06064	-33.1604	56.3472
  41	1	1	-0.208553	2.13528	-32.8266	54.1464
  42	1	3	-0.411858	-2.24368	-36.69	52.1294
  43	1	1	-0.147234	-0.443052	-33.0262	52.4947
  44	1	1	0.107751	2.01257	-33.9843	56.6501
  45	1	4	0.626409	3.39091	-33.8331	58.3389
  46	1	2	0.00453	-0.00147777	-34.0114	53.4283
  47	1	1	0.356173	-1.98357	-34.5961	51.5076
  48	1	1	0.030551	-1.55577	-35.5468	52.3934
  49	1	1	-0.286062	-1.43914	-33.3104	51.5319
  50	1	5	-0.595919	-2.93846	-35.073	50.6804
  51	1	1	-0.206338	-0.581027	-35.307	53.3657
  52	1	6	0.462884	-3.08816	-36.3496	51.0705
  53	1	3	-0.691987	2.18713	-34.4221	57.9286
  54	1	7	-0.710982	3.92535	-33.0566	57.3783
  55	1	1	-0.062645	-5.7919	-37.7968	48.8385
  56	1	1	0.026743	-4.03795	-37.2989	50.4621
  57	1	1	-0.399843	-5.86223	-39.1197	49.306
  58	1	1	-0.107518	-4.88364	-36.8953	49.4122
  59	1	1	0.292439	-5.02547	-39.5628	50.3556
  60	1	1	-0.410418	-4.1246	-38.633	50.9183
  61	1	8	0.148547	0.179965	-34.9434	56.0272
  62	1	8	0.179912	3.98886	-31.9057	54.8636
  63	1	8	0.155197	2.20328	-32.3821	53.1566
  64	1	9	0.340258	-2.17332	-37.5835	52.5824
  65	1	8	0.137111	-0.0207095	-32.026	52.5359
  66	1	8	0.181656	-1.78419	-32.5621	50.8267
  67	1	8	0.164633	-0.261315	-36.098	54.0348
  68	1	9	0.430928	1.60439	-35.0421	58.4573
  69	1	8	0.141007	-6.43971	-37.4637	48.0301
  70	1	8	0.203537	-6.57042	-39.8001	48.8478
  71	1	8	0.116715	-4.83899	-35.874	49.0417
  72	1	8	0.18244	-3.48229	-38.9751	51.7231
  73	1	1	-0.155485	13.8021	-30.838	61.7691
  74	1	2	-0.03785	12.5132	-30.3774	61.3842
  75	1	1	-0.234781	13.5816	-28.5107	60.1531
  76	1	1	0.378053	14.826	-29.0055	60.5466
  77	1	1	-0.208553	12.4252	-29.2056	60.5744
  78	1	3	-0.411858	7.91433	-32.2691	60.6711
  79	1	1	-0.147234	11.2057	-31.7668	63.0677
  80	1	1	0.107751	14.9192	-30.1239	61.3272
  81	1	4	0.626409	16.9061	-29.3617	60.8228
  82	1	2	0.00453	11.283	-31.1241	61.7959
  83	1	1	0.356173	9.00424	-32.5987	62.5543
  84	1	1	0.030551	9.06789	-31.98	61.3356
  85	1	1	-0.286062	10.0655	-32.5053	63.4564
  86	1	5	-0.595919	7.85123	-33.2801	62.7135
  87	1	1	-0.206338	10.1743	-31.2356	60.9135
  88	1	6	0.462884	7.19944	-33.0805	61.5562
  89	1	3	-0.691987	16.2437	-30.3779	61.5279
  90	1	7	-0.710982	16.0422	-28.5186	60.2302
  91	1	1	-0.062645	4.00348	-35.087	61.8946
  92	1	1	0.026743	5.88729	-33.6761	61.2421
  93	1	1	-0.399843	3.39972	-34.8717	60.6459
  94	1	1	-0.107518	5.23933	-34.4949	62.1863
  95	1	1	0.292439	4.0169	-34.0535	59.6715
  96	1	1	-0.410418	5.25732	-33.4603	59.995
  97	1	8	0.148547	13.921	-31.7377	62.3622
  98	1	8	0.179912	13.5263	-27.6205	59.5355
  99	1	8	0.155197	11.4484	-28.828	60.2838
 100	1	9	0.340258	7.63863	-31.9937	59.7452
 101	1	8	0.137111	12.0367	-31.6784	63.7616
 102	1	8	0.181656	10.0026	-32.9988	64.42
 103	1	8	0.164633	10.1979	-30.7862	59.9265
 104	1	9	0.430928	16.6586	-31.1386	62.0297
 105	1	8	0.141007	3.52093	-35.7168	62.6393
 106	1	8	0.203537	2.44618	-35.3435	60.4411
 107	1	8	0.116715	5.69981	-34.6777	63.1541
 108	1	8	0.18244	5.73251	-32.8367	59.2444
 109	1	1	-0.155485	25.7452	-23.1499	56.6191
 110	1	2	-0.03785	24.4687	-23.2091	55.9917
 111	1	1	-0.234781	25.3631	-21.8566	54.116
 112	1	1	0.378053	26.5907	-21.8126	54.7754
 113	1	1	-0.208553	24.3054	-22.5612	54.7301
 114	1	3	-0.411858	22.3252	-26.8023	58.7989
 115	1	1	-0.147234	21.978	-23.4721	56.4292
 116	1	1	0.107751	26.7685	-22.4469	55.9736
 117	1	4	0.626409	28.6052	-21.4393	55.3425
 118	1	2	0.00453	23.3173	-23.9238	56.6335
 119	1	1	0.356173	21.1211	-25.2621	57.7889
 120	1	1	0.030551	22.4003	-25.6967	58.0042
 121	1	1	-0.286062	20.873	-24.138	57.0023
 122	1	5	-0.595919	20.2138	-26.0412	58.4079
 123	1	1	-0.206338	23.5236	-25.0685	57.4529
 124	1	6	0.462884	20.9544	-26.9782	59.0197
 125	1	3	-0.691987	28.0595	-22.2326	56.3634
 126	1	7	-0.710982	27.7102	-21.1814	54.3725
 127	1	1	-0.062645	20.6442	-30.0497	61.2339
 128	1	1	0.026743	20.3766	-28.0714	59.8266
 129	1	1	-0.399843	19.2501	-30.1626	61.3553
 130	1	1	-0.107518	21.2023	-29.014	60.4706
 131	1	1	0.292439	18.3871	-29.24	60.7192
 132	1	1	-0.410418	18.9781	-28.2016	59.9689
 133	1	8	0.148547	25.9179	-23.6105	57.5847
 134	1	8	0.179912	25.2434	-21.3588	53.1599
 135	1	8	0.155197	23.3492	-22.6181	54.2166
 136	1	9	0.340258	23.0741	-27.3822	59.1289
 137	1	8	0.137111	21.7962	-22.5847	55.8298
 138	1	8	0.181656	19.8541	-23.7996	56.8466
 139	1	8	0.164633	24.5181	-25.4637	57.6242
 140	1	9	0.430928	28.5108	-22.5295	57.2074
 141	1	8	0.141007	21.2961	-30.767	61.7286
 142	1	8	0.203537	18.8405	-30.9736	61.9459
 143	1	8	0.116715	22.2819	-28.9482	60.3892
 144	1	8	0.18244	18.3268	-27.4833	59.4727
 145	1	1	-0.155485	31.0763	-15.11	47.7194
 146	1	2	-0.03785	32.2287	-14.8495	48.5139
 147	1	1	-0.234781	32.6019	-12.773	47.2016
 148	1	1	0.378053	31.4529	-13.0633	46.4652
 149	1	1	-0.208553	32.9812	-13.6682	48.2282
 150	1	3	-0.411858	31.2637	-18.2018	52.1335
 151	1	1	-0.147234	33.9436	-15.8211	50.1498
 152	1	1	0.107751	30.7315	-14.1946	46.7225
 153	1	4	0.626409	29.7747	-13.0046	45.1598
 154	1	2	0.00453	32.6058	-15.7615	49.6491
 155	1	1	0.356173	33.2913	-17.3982	51.8528
 156	1	1	0.030551	32.0157	-17.3714	51.3619
 157	1	1	-0.286062	34.2926	-16.6313	51.2553
 158	1	5	-0.595919	33.3985	-18.202	52.9327
 159	1	1	-0.206338	31.6237	-16.5719	50.2851
 160	1	6	0.462884	32.1541	-18.6804	53.0971
 161	1	3	-0.691987	29.6546	-14.1959	45.8885
 162	1	7	-0.710982	30.8847	-12.32	45.4921
 163	1	1	-0.062645	32.2673	-20.797	56.2428
 164	1	1	0.026743	31.7483	-19.5872	54.1866
 165	1	1	-0.399843	30.9457	-21.2698	56.3099
 166	1	1	-0.107518	32.6649	-19.9667	55.1846
 167	1	1	0.292439	30.0043	-20.931	55.3114
 168	1	1	-0.410418	30.429	-20.0854	54.2637
 169	1	8	0.148547	30.4688	-15.993	47.874
 170	1	8	0.179912	33.1581	-11.8644	46.9991
 171	1	8	0.155197	33.8479	-13.4206	48.8338
 172	1	9	0.340258	30.2804	-18.3965	52.0714
 173	1	8	0.137111	34.7228	-15.2335	49.6749
 174	1	8	0.181656	35.304	-16.6626	51.6454
 175	1	8	0.164633	30.5856	-16.5525	49.9774
 176	1	9	0.430928	28.9114	-14.8657	45.8354
 177	1	8	0.141007	32.9893	-21.0697	57.01
 178	1	8	0.203537	30.6616	-21.9155	57.1327
 179	1	8	0.116715	33.688	-19.6006	55.1484
 180	1	8	0.18244	29.7038	-19.8228	53.5006
 181	1	1	-0.155485	31.6653	-4.70825	39.1038
 182	1	2	-0.03785	30.2756	-4.54201	39.3519
 183	1	1	-0.234781	30.4392	-2.2011	38.5576
 184	1	1	0.378053	31.7929	-2.41851	38.2991
 185	1	1	-0.208553	29.6834	-3.27229	39.0833
 186	1	3	-0.411858	29.3368	-8.76112	41.9372
 187	1	1	-0.147234	28.1267	-5.87935	39.2785
 188	1	1	0.107751	32.376	-3.62324	38.5814
 189	1	4	0.626409	33.8055	-2.27028	37.6306
 190	1	2	0.00453	29.4371	-5.69268	39.8103
 191	1	1	0.356173	27.8575	-7.90135	40.5533
 192	1	1	0.030551	29.1048	-7.71992	41.0874
 193	1	1	-0.286062	27.3304	-6.98676	39.6417
 194	1	5	-0.595919	27.2761	-9.03155	41.0004
 195	1	1	-0.206338	29.9337	-6.64546	40.7417
 196	1	6	0.462884	28.1864	-9.55011	41.8393
 197	1	3	-0.691987	33.6787	-3.55249	38.1845
 198	1	7	-0.710982	32.6625	-1.56675	37.7194
 199	1	1	-0.062645	26.6322	-12.8017	43.0023
 200	1	1	0.026743	27.9931	-10.8217	42.5609
 201	1	1	-0.399843	27.5976	-13.2729	43.9047
 202	1	1	-0.107518	26.8277	-11.5815	42.3432
 203	1	1	0.292439	28.7721	-12.5301	44.1669
 204	1	1	-0.410418	28.9542	-11.3115	43.4749
 205	1	8	0.148547	32.1508	-5.66491	39.2611
 206	1	8	0.179912	29.9911	-1.24073	38.3271
 207	1	8	0.155197	28.624	-3.12586	39.2788
 208	1	9	0.340258	30.1515	-8.94702	42.4944
 209	1	8	0.137111	27.7423	-5.17328	38.5475
 210	1	8	0.181656	26.3426	-7.14488	39.2228
 211	1	8	0.164633	30.9199	-6.53801	41.18
 212	1	9	0.430928	34.368	-4.27988	38.1925
 213	1	8	0.141007	25.7273	-13.3757	42.8127
 214	1	8	0.203537	27.4194	-14.2142	44.4106
 215	1	8	0.116715	26.0703	-11.229	41.6475
 216	1	8	0.18244	29.8551	-10.7412	43.6776
 217	1	1	-0.155485	33.5274	6.84459	32.409
 218	1	2	-0.03785	34.8749	6.74278	32.8578
 219	1	1	-0.234781	35.1016	9.20014	32.6813
 220	1	1	0.378053	33.7828	9.25333	32.2348
 221	1	1	-0.208553	35.6446	7.93564	32.9863
 222	1	3	-0.411858	35.0631	2.18403	34.9898
 223	1	1	-0.147234	36.8513	5.16462	32.8117
 224	1	1	0.107751	33.0306	8.11852	32.1009
 225	1	4	0.626409	31.8925	9.89291	31.4986
 226	1	2	0.00453	35.5009	5.42617	33.1897
 227	1	1	0.356173	36.7807	3.02183	33.9006
 228	1	1	0.030551	35.4811	3.25882	34.2615
 229	1	1	-0.286062	37.4987	3.95992	33.1594
 230	1	5	-0.595919	37.2243	1.83333	34.355
 231	1	1	-0.206338	34.7972	4.43522	33.9268
 232	1	6	0.462884	36.1718	1.33139	35.0189
 233	1	3	-0.691987	31.8043	8.49604	31.6234
 234	1	7	-0.710982	33.0962	10.3523	31.8794
 235	1	1	-0.062645	37.3642	-2.04473	36.2614
 236	1	1	0.026743	36.1856	0.0179142	35.6902
 237	1	1	-0.399843	36.2176	-2.53026	36.9092
 238	1	1	-0.107518	37.3443	-0.781681	35.6549
 239	1	1	0.292439	35.0371	-1.75485	36.9727
 240	1	1	-0.410418	35.0481	-0.479326	36.3649
 241	1	8	0.148547	32.9139	5.95962	32.2815
 242	1	8	0.179912	35.678	10.1137	32.7798
 243	1	8	0.155197	36.669	7.87449	33.3458
 244	1	9	0.340258	34.1709	2.02892	35.4242
 245	1	8	0.137111	37.3968	5.90912	32.2378
 246	1	8	0.181656	38.5269	3.75937	32.8787
 247	1	8	0.164633	33.7784	4.60444	34.258
 248	1	9	0.430928	31.0184	7.91435	31.4089
 249	1	8	0.141007	38.2696	-2.64687	36.218
 250	1	8	0.203537	36.2527	-3.51305	37.3643
 251	1	8	0.116715	38.2362	-0.424209	35.1463
 252	1	8	0.18244	34.1394	0.112418	36.4082
 253	1	1	-0.155485	21.0473	8.32287	27.456
 254	1	2	-0.03785	22.4213	7.96318	27.4252
 255	1	1	-0.234781	21.7955	5.8241	26.3379
 256	1	1	0.378053	20.4627	6.24561	26.3489
 257	1	1	-0.208553	22.7751	6.69057	26.8824
 258	1	3	-0.411858	26.8227	9.45556	29.4437
 259	1	1	-0.147234	23.2173	10.3431	27.6823
 260	1	1	0.107751	20.117	7.43889	26.9154
 261	1	4	0.626409	18.3834	6.50603	25.9883
 262	1	2	0.00453	23.453	8.94929	27.8803
 263	1	1	0.356173	25.3354	10.8813	28.6682
 264	1	1	0.030551	25.5857	9.55014	28.864
 265	1	1	-0.286062	24.1535	11.3172	28.0767
 266	1	5	-0.595919	26.3514	11.6538	29.0825
 267	1	1	-0.206338	24.6797	8.5475	28.4839
 268	1	6	0.462884	27.2597	10.7837	29.5457
 269	1	3	-0.691987	18.7799	7.61179	26.7487
 270	1	7	-0.710982	19.3982	5.64521	25.7767
 271	1	1	-0.062645	30.0909	13.0895	30.5065
 272	1	1	0.026743	28.571	11.2252	30.0648
 273	1	1	-0.399843	31.058	12.1905	30.9646
 274	1	1	-0.107518	28.8588	12.606	30.062
 275	1	1	0.292439	30.8187	10.7992	31.0006
 276	1	1	-0.410418	29.5587	10.3272	30.5468
 277	1	8	0.148547	20.7195	9.2696	27.8702
 278	1	8	0.179912	22.0524	4.87093	25.8882
 279	1	8	0.155197	23.8213	6.40061	26.84
 280	1	9	0.340258	27.3231	8.62874	29.7112
 281	1	8	0.137111	22.3072	10.6731	27.1904
 282	1	8	0.181656	23.9828	12.3769	27.9188
 283	1	8	0.164633	24.899	7.49976	28.6583
 284	1	9	0.430928	18.2379	8.4348	26.9326
 285	1	8	0.141007	30.2946	14.1583	30.4885
 286	1	8	0.203537	32.0176	12.5755	31.3037
 287	1	8	0.116715	28.1241	13.3211	29.7009
 288	1	8	0.18244	29.3565	9.26432	30.556
 289	1	1	-0.155485	14.3493	0.229201	17.2708
 290	1	2	-0.03785	15.0339	0.167548	18.5157
 291	1	1	-0.234781	16.4122	-1.68841	17.6221
 292	1	1	0.378053	15.7171	-1.58475	16.4141
 293	1	1	-0.208553	16.0663	-0.804641	18.6719
 294	1	3	-0.411858	16.0198	3.31538	22.3462
 295	1	1	-0.147234	13.3326	1.55721	19.7721
 296	1	1	0.107751	14.7211	-0.661533	16.2621
 297	1	4	0.626409	15.0579	-1.74558	14.3945
 298	1	2	0.00453	14.6822	1.12498	19.6123
 299	1	1	0.356173	13.9814	3.0348	21.5513
 300	1	1	0.030551	15.278	2.60932	21.4364
 301	1	1	-0.286062	12.9741	2.51719	20.7391
 302	1	5	-0.595919	13.845	4.00128	22.4747
 303	1	1	-0.206338	15.6755	1.66328	20.4802
 304	1	6	0.462884	15.0857	4.16323	22.9558
 305	1	3	-0.691987	14.2595	-0.754485	14.9835
 306	1	7	-0.710982	15.9292	-2.27444	15.2735
 307	1	1	-0.062645	14.7004	7.14875	25.243
 308	1	1	0.026743	15.4073	5.1939	23.9592
 309	1	1	-0.399843	15.9953	7.27973	25.7615
 310	1	1	-0.107518	14.4096	6.1065	24.3567
 311	1	1	0.292439	17.0133	6.35567	25.4288
 312	1	1	-0.410418	16.6977	5.32016	24.5203
 313	1	8	0.148547	13.5805	0.9717	17.0895
 314	1	8	0.179912	17.2049	-2.4215	17.7261
 315	1	8	0.155197	16.5942	-0.87574	19.6191
 316	1	9	0.340258	17.0248	3.35399	22.4507
 317	1	8	0.137111	12.5572	1.14135	19.1353
 318	1	8	0.181656	11.9527	2.86394	20.8517
 319	1	8	0.164633	16.7167	1.38242	20.3724
 320	1	9	0.430928	13.5694	-0.186364	14.532
 321	1	8	0.141007	13.9212	7.85815	25.5163
 322	1	8	0.203537	16.1955	8.09561	26.4462
 323	1	8	0.116715	13.4031	6.02952	23.9528
 324	1	8	0.18244	17.4826	4.61735	24.2498
 325	1	1	-0.155485	22.9087	-5.98216	7.65122
 326	1	2	-0.03785	21.5616	-6.11492	7.22714
 327	1	1	-0.234781	22.3507	-6.11232	4.87278
 328	1	1	0.378053	23.6602	-5.95555	5.33985
 329	1	1	-0.208553	21.3019	-6.18686	5.82458
 330	1	3	-0.411858	17.272	-4.31957	9.09198
 331	1	1	-0.147234	20.6894	-6.53136	9.57393
 332	1	1	0.107751	23.9066	-5.9156	6.68255
 333	1	4	0.626409	25.7402	-5.54631	5.56169
 334	1	2	0.00453	20.4708	-6.04076	8.25088
 335	1	1	0.356173	18.6597	-5.49218	10.333
 336	1	1	0.030551	18.392	-5.09583	9.05051
 337	1	1	-0.286062	19.7896	-6.25459	10.625
 338	1	5	-0.595919	17.7938	-4.96067	11.2162
 339	1	1	-0.206338	19.2691	-5.32961	7.98402
 340	1	6	0.462884	16.978	-4.21454	10.4561
 341	1	3	-0.691987	25.2309	-5.68474	6.85819
 342	1	7	-0.710982	24.7917	-5.74526	4.62538
 343	1	1	-0.062645	14.1438	-1.70074	10.686
 344	1	1	0.026743	15.9592	-3.30118	11.009
 345	1	1	-0.399843	14.1161	-1.44346	12.0654
 346	1	1	-0.107518	15.0753	-2.60646	10.1599
 347	1	1	0.292439	15.0072	-2.09882	12.9478
 348	1	1	-0.410418	15.8898	-3.05254	12.3977
 349	1	8	0.148547	23.1591	-5.86465	8.69924
 350	1	8	0.179912	22.1582	-6.13257	3.8055
 351	1	8	0.155197	20.2764	-6.28272	5.47739
 352	1	9	0.340258	16.8599	-3.79305	8.3438
 353	1	8	0.137111	21.5941	-7.08964	9.79599
 354	1	8	0.181656	19.9861	-6.56131	11.6467
 355	1	8	0.164633	19.0816	-4.89841	7.00675
 356	1	9	0.430928	25.7107	-5.50929	7.71784
 357	1	8	0.141007	13.4585	-1.18206	10.0183
 358	1	8	0.203537	13.4089	-0.715367	12.4446
 359	1	8	0.116715	15.0932	-2.77474	9.08826
 360	1	8	0.18244	16.5869	-3.56074	13.0625
 361	1	1	-0.155485	31.5081	-3.29396	13.8118
 362	1	2	-0.03785	31.5383	-2.26786	12.8324
 363	1	1	-0.234781	30.7388	-0.65432	14.5285
 364	1	1	0.378053	30.6659	-1.7058	15.4468
 365	1	1	-0.208553	31.19	-0.942027	13.2185
 366	1	3	-0.411858	29.7362	-4.24163	8.66797
 367	1	1	-0.147234	32.6561	-2.06219	10.5312
 368	1	1	0.107751	31.1024	-2.95767	15.1066
 369	1	4	0.626409	30.1439	-2.98101	17.0692
 370	1	2	0.00453	31.6611	-2.61669	11.3883
 371	1	1	0.356173	31.6145	-3.09873	8.60853
 372	1	1	0.030551	30.6696	-3.63351	9.44036
 373	1	1	-0.286062	32.6486	-2.31486	9.13537
 374	1	5	-0.595919	31.3308	-3.35073	7.30785
 375	1	1	-0.206338	30.6523	-3.43089	10.8199
 376	1	6	0.462884	30.1574	-4.0061	7.35847
 377	1	3	-0.691987	30.8511	-3.78096	16.161
 378	1	7	-0.710982	30.0641	-1.70172	16.6579
 379	1	1	-0.062645	28.9406	-4.4359	3.78036
 380	1	1	0.026743	29.3256	-4.36428	6.19111
 381	1	1	-0.399843	27.637	-4.9184	3.99271
 382	1	1	-0.107518	29.7716	-4.14333	4.87475
 383	1	1	0.292439	27.1472	-5.13311	5.29685
 384	1	1	-0.410418	28.0235	-4.88286	6.37858
 385	1	8	0.148547	31.7253	-4.3224	13.5431
 386	1	8	0.179912	30.3784	0.330521	14.8054
 387	1	8	0.155197	31.1718	-0.160232	12.4622
 388	1	9	0.340258	28.8852	-4.68121	8.96074
 389	1	8	0.137111	33.4185	-1.41457	10.9571
 390	1	8	0.181656	33.3827	-1.87124	8.47124
 391	1	8	0.164633	29.8467	-3.81972	11.4339
 392	1	9	0.430928	30.9704	-4.77492	16.2065
 393	1	8	0.141007	29.3005	-4.2613	2.76831
 394	1	8	0.203537	26.9807	-5.10588	3.14501
 395	1	8	0.116715	30.7663	-3.74035	4.70041
 396	1	8	0.18244	27.6606	-5.03684	7.38328
 397	1	1	-0.155485	22.4791	2.27858	22.3425
 398	1	2	-0.03785	22.0533	0.957592	22.0538
 399	1	1	-0.234781	19.7127	1.77205	21.9298
 400	1	1	0.378053	20.1727	3.06128	22.2186
 401	1	1	-0.208553	20.6598	0.721176	21.8608
 402	1	3	-0.411858	26.2369	-1.32098	20.4047
 403	1	1	-0.147234	22.8342	-1.3593	22.7136
 404	1	1	0.107751	21.5075	3.2799	22.4269
 405	1	4	0.626409	20.3759	5.14055	22.6362
 406	1	2	0.00453	23.0468	-0.157391	21.9788
 407	1	1	0.356173	24.8871	-2.28333	21.856
 408	1	1	0.030551	25.099	-1.13593	21.1402
 409	1	1	-0.286062	23.7588	-2.42629	22.666
 410	1	5	-0.595919	25.8424	-3.20457	21.6239
 411	1	1	-0.206338	24.2175	-0.0458029	21.1776
 412	1	6	0.462884	26.6417	-2.62503	20.7135
 413	1	3	-0.691987	21.6664	4.59753	22.7104
 414	1	7	-0.710982	19.4497	4.20372	22.3285
 415	1	1	-0.062645	28.9887	-5.43083	19.7483
 416	1	1	0.026743	27.7508	-3.3439	20.0508
 417	1	1	-0.399843	29.684	-4.86948	18.6691
 418	1	1	-0.107518	28.0214	-4.67635	20.4211
 419	1	1	0.292439	29.4601	-3.53025	18.2737
 420	1	1	-0.410418	28.5131	-2.77052	19.0025
 421	1	8	0.148547	23.5265	2.49826	22.5192
 422	1	8	0.179912	18.657	1.59329	21.7688
 423	1	8	0.155197	20.3234	-0.288288	21.634
 424	1	9	0.340258	26.64	-0.712433	19.7148
 425	1	8	0.137111	21.9455	-1.45061	23.3331
 426	1	8	0.181656	23.6003	-3.34722	23.2168
 427	1	8	0.164633	24.3998	0.843627	20.5837
 428	1	9	0.430928	22.5139	5.08807	22.922
 429	1	8	0.141007	29.1742	-6.45983	20.0499
 430	1	8	0.203537	30.415	-5.47975	18.1516
 431	1	8	0.116715	27.4613	-5.14313	21.2274
 432	1	8	0.18244	28.3231	-1.75069	18.6825
 433	1	1	-0.155485	10.7332	11.6167	21.9035
 434	1	2	-0.03785	11.6822	10.7121	21.3428
 435	1	1	-0.234781	9.91839	9.8031	19.8715
 436	1	1	0.378053	9.02216	10.6887	20.4667
 437	1	1	-0.208553	11.2549	9.8195	20.3171
 438	1	3	-0.411858	16.0964	8.51504	22.398
 439	1	1	-0.147234	13.7567	11.8929	22.1874
 440	1	1	0.107751	9.41539	11.5718	21.4333
 441	1	4	0.626409	7.24731	11.6393	21.1546
 442	1	2	0.00453	13.1003	10.6839	21.8162
 443	1	1	0.356173	15.7864	10.6841	22.6376
 444	1	1	0.030551	15.1678	9.51361	22.2949
 445	1	1	-0.286062	15.1049	11.9008	22.6012
 446	1	5	-0.595919	17.0784	10.4935	22.9564
 447	1	1	-0.206338	13.8324	9.46294	21.8773
 448	1	6	0.462884	17.2695	9.17662	22.7769
 449	1	3	-0.691987	8.29842	12.2445	21.8619
 450	1	7	-0.710982	7.69889	10.735	20.2673
 451	1	1	-0.062645	20.9634	8.81086	23.4723
 452	1	1	0.026743	18.5931	8.5433	22.9431
 453	1	1	-0.399843	21.1748	7.44966	23.2282
 454	1	1	-0.107518	19.6825	9.34904	23.33
 455	1	1	0.292439	20.1115	6.59288	22.8553
 456	1	1	-0.410418	18.8239	7.16486	22.7081
 457	1	8	0.148547	11.0111	12.2945	22.7027
 458	1	8	0.179912	9.57187	9.10716	19.1149
 459	1	8	0.155197	11.969	9.1365	19.8643
 460	1	9	0.340258	15.9669	7.52431	22.2814
 461	1	8	0.137111	13.2227	12.836	22.1138
 462	1	8	0.181656	15.6203	12.8203	22.8557
 463	1	8	0.164633	13.3717	8.51762	21.6087
 464	1	9	0.430928	8.21481	12.8749	22.6369
 465	1	8	0.141007	21.7893	9.45194	23.7744
 466	1	8	0.203537	22.1749	7.05916	23.3672
 467	1	8	0.116715	19.5417	10.4106	23.5151
 468	1	8	0.18244	18.0085	6.51869	22.4003
 469	1	1	-0.155485	1.9694	3.3304	18.0588
 470	1	2	-0.03785	1.86413	4.65929	17.5629
 471	1	1	-0.234781	2.66572	3.90335	15.3529
 472	1	1	0.378053	2.78817	2.62251	15.8849
 473	1	1	-0.208553	2.20397	4.92292	16.2055
 474	1	3	-0.411858	3.40193	8.87664	19.535
 475	1	1	-0.147234	0.461281	6.07264	19.214
 476	1	1	0.107751	2.42969	2.3421	17.1763
 477	1	4	0.626409	3.18613	0.554254	16.1578
 478	1	2	0.00453	1.64667	5.82706	18.4582
 479	1	1	0.356173	1.39241	8.15664	20.0403
 480	1	1	0.030551	2.5165	7.89173	19.3111
 481	1	1	-0.286062	0.325155	7.24598	20.0072
 482	1	5	-0.595919	1.52702	9.3078	20.7535
 483	1	1	-0.206338	2.69448	6.76769	18.5189
 484	1	6	0.462884	2.77757	9.71238	20.4545
 485	1	3	-0.691987	2.67859	1.01108	17.3863
 486	1	7	-0.710982	3.27109	1.54268	15.2532
 487	1	1	-0.062645	3.83949	12.6756	22.6161
 488	1	1	0.026743	3.53965	10.8199	21.0637
 489	1	1	-0.399843	5.22514	12.7009	22.346
 490	1	1	-0.107518	3.00615	11.7181	22.0037
 491	1	1	0.292439	5.78673	11.8026	21.4113
 492	1	1	-0.410418	4.90771	10.9312	20.7474
 493	1	8	0.148547	1.76959	3.10788	19.1014
 494	1	8	0.179912	2.95269	4.09584	14.325
 495	1	8	0.155197	2.14404	5.94347	15.8331
 496	1	9	0.340258	4.34676	8.94821	19.2026
 497	1	8	0.137111	-0.356589	5.35895	19.1604
 498	1	8	0.181656	-0.572974	7.44506	20.5814
 499	1	8	0.164633	3.61785	6.61017	17.9698
 500	1	9	0.430928	2.5435	0.479214	18.2249
 501	1	8	0.141007	3.41136	13.3712	23.3351
 502	1	8	0.203537	5.85856	13.4095	22.868
 503	1	8	0.116715	1.95116	11.6665	22.2615
 504	1	8	0.18244	5.34916	10.2451	20.0373
 505	1	1	-0.155485	6.35961	-3.60588	5.87861
 506	1	2	-0.03785	5.57234	-4.12594	6.9438
 507	1	1	-0.234781	4.63643	-5.78985	5.34586
 508	1	1	0.378053	5.42855	-5.23376	4.33849
 509	1	1	-0.208553	4.70545	-5.22485	6.64359
 510	1	3	-0.411858	4.66031	-3.80566	11.9242
 511	1	1	-0.147234	6.14087	-2.16639	8.46572
 512	1	1	0.107751	6.23929	-4.17335	4.61496
 513	1	4	0.626409	6.42041	-4.73865	2.52049
 514	1	2	0.00453	5.61772	-3.48777	8.30796
 515	1	1	0.356173	5.53737	-2.14487	10.7803
 516	1	1	0.030551	5.11591	-3.44101	10.6858
 517	1	1	-0.286062	6.09493	-1.48497	9.69434
 518	1	5	-0.595919	5.29816	-1.61784	11.9877
 519	1	1	-0.206338	5.11832	-4.14535	9.47257
 520	1	6	0.462884	4.74416	-2.62594	12.6758
 521	1	3	-0.691987	6.87259	-3.81626	3.46969
 522	1	7	-0.710982	5.53575	-5.60952	3.04409
 523	1	1	-0.062645	3.42433	-3.27162	16.1918
 524	1	1	0.026743	4.23874	-2.44019	14.0485
 525	1	1	-0.399843	3.2434	-1.9524	16.6513
 526	1	1	-0.107518	3.88128	-3.51446	14.8838
 527	1	1	0.292439	3.51573	-0.854555	15.8045
 528	1	1	-0.410418	4.06446	-1.13252	14.5385
 529	1	8	0.148547	7.04946	-2.78435	6.01012
 530	1	8	0.179912	3.97807	-6.62023	5.11445
 531	1	8	0.155197	4.05969	-5.63287	7.41343
 532	1	9	0.340258	4.2216	-4.6673	12.1954
 533	1	8	0.137111	6.55338	-1.63213	7.6209
 534	1	8	0.181656	6.46633	-0.473018	9.80812
 535	1	8	0.164633	4.73952	-5.1594	9.42816
 536	1	9	0.430928	7.45552	-3.01574	3.31599
 537	1	8	0.141007	3.18701	-4.11199	16.8413
 538	1	8	0.203537	2.8419	-1.78626	17.6448
 539	1	8	0.116715	4.00262	-4.53764	14.5423
 540	1	8	0.18244	4.29716	-0.295121	13.8833
 541	1	1	-0.155485	5.82411	-11.5862	-7.157
 542	1	2	-0.03785	5.702	-10.1892	-6.91382
 543	1	1	-0.234781	5.89025	-9.76708	-9.34532
 544	1	1	0.378053	6.06299	-11.1366	-9.5311
 545	1	1	-0.208553	5.70595	-9.29962	-8.02881
 546	1	3	-0.411858	6.87026	-6.78876	-3.44442
 547	1	1	-0.147234	4.97462	-10.2805	-4.46031
 548	1	1	0.107751	5.99187	-12.0119	-8.48123
 549	1	4	0.626409	6.65653	-13.0211	-10.3006
 550	1	2	0.00453	5.66754	-9.63205	-5.52577
 551	1	1	0.356173	5.60865	-8.51881	-2.93357
 552	1	1	0.030551	6.29722	-7.91344	-3.94716
 553	1	1	-0.286062	4.93418	-9.72281	-3.15907
 554	1	5	-0.595919	5.69802	-7.8164	-1.78334
 555	1	1	-0.206338	6.35521	-8.42183	-5.24495
 556	1	6	0.462884	6.47643	-6.76833	-2.10459
 557	1	3	-0.691987	6.29397	-13.2546	-8.96476
 558	1	7	-0.710982	6.45037	-11.7446	-10.6654
 559	1	1	-0.062645	8.21752	-3.71548	-0.682822
 560	1	1	0.026743	6.90001	-5.71772	-1.15884
 561	1	1	-0.399843	7.778	-3.73762	0.647385
 562	1	1	-0.107518	7.77717	-4.69661	-1.57917
 563	1	1	0.292439	6.88181	-4.73246	1.10584
 564	1	1	-0.410418	6.45813	-5.71254	0.182531
 565	1	8	0.148547	5.86348	-12.2941	-6.33623
 566	1	8	0.179912	5.96194	-9.09202	-10.191
 567	1	8	0.155197	5.59638	-8.23132	-7.86261
 568	1	9	0.340258	7.45857	-6.128	-3.91737
 569	1	8	0.137111	4.44403	-11.208	-4.65675
 570	1	8	0.181656	4.39751	-10.2009	-2.3466
 571	1	8	0.164633	6.92752	-7.91215	-6.01245
 572	1	9	0.430928	6.46619	-14.0906	-8.4389
 573	1	8	0.141007	8.90381	-2.94107	-1.02024
 574	1	8	0.203537	8.13314	-2.96775	1.32265
 575	1	8	0.116715	8.1405	-4.66255	-2.6004
 576	1	8	0.18244	5.77921	-6.4931	0.522844
 577	1	1	-0.155485	11.9617	-9.25753	-18.7204
 578	1	2	-0.03785	11.4221	-10.5623	-18.8971
 579	1	1	-0.234781	10.9593	-10.0439	-21.2679
 580	1	1	0.378053	11.5033	-8.77781	-21.0594
 581	1	1	-0.208553	10.9315	-10.9383	-20.1785
 582	1	3	-0.411858	9.33008	-12.5337	-14.7974
 583	1	1	-0.147234	12.0532	-12.7735	-17.8528
 584	1	1	0.107751	11.9916	-8.40635	-19.8356
 585	1	4	0.626409	12.2277	-6.79418	-21.3068
 586	1	2	0.00453	11.3256	-11.5505	-17.7858
 587	1	1	0.356173	10.8876	-13.6085	-15.9174
 588	1	1	0.030551	10.2082	-12.4223	-15.8321
 589	1	1	-0.286062	11.8469	-13.8083	-16.9125
 590	1	5	-0.595919	10.4787	-14.4938	-14.9835
 591	1	1	-0.206338	10.3878	-11.3687	-16.737
 592	1	6	0.462884	9.53025	-13.8274	-14.3061
 593	1	3	-0.691987	12.4692	-7.12991	-19.9622
 594	1	7	-0.710982	11.6313	-7.79766	-21.9703
 595	1	1	-0.062645	8.39247	-16.1856	-11.5559
 596	1	1	0.026743	8.80986	-14.3728	-13.1398
 597	1	1	-0.399843	7.58877	-15.3344	-10.7786
 598	1	1	-0.107518	9.02001	-15.6977	-12.7125
 599	1	1	0.292439	7.36496	-13.9961	-11.1731
 600	1	1	-0.410418	7.93817	-13.5581	-12.3866
 601	1	8	0.148547	12.3513	-8.94156	-17.7585
 602	1	8	0.179912	10.5782	-10.3136	-22.2469
 603	1	8	0.155197	10.5099	-11.932	-20.3124
 604	1	9	0.340258	8.66483	-11.8579	-14.4658
 605	1	8	0.137111	12.7593	-12.9218	-18.6661
 606	1	8	0.181656	12.3802	-14.7508	-16.9712
 607	1	8	0.164633	9.78357	-10.469	-16.6838
 608	1	9	0.430928	12.9058	-6.55896	-19.2644
 609	1	8	0.141007	8.56431	-17.2143	-11.2454
 610	1	8	0.203537	7.14782	-15.7154	-9.86422
 611	1	8	0.116715	9.67961	-16.3511	-13.2782
 612	1	8	0.18244	7.77963	-12.5253	-12.6783
 613	1	1	-0.155485	11.2947	-0.25988	-30.7235
 614	1	2	-0.03785	10.4272	-1.36214	-30.5274
 615	1	1	-0.234781	9.01119	-0.505734	-32.3881
 616	1	1	0.378053	9.88297	0.58166	-32.5218
 617	1	1	-0.208553	9.28894	-1.47455	-31.3865
 618	1	3	-0.411858	12.2164	-2.57839	-26.0021
 619	1	1	-0.147234	10.3224	-3.69493	-29.4708
 620	1	1	0.107751	10.9764	0.666693	-31.7089
 621	1	4	0.626409	10.8668	2.40655	-33.0153
 622	1	2	0.00453	10.7087	-2.32249	-29.4087
 623	1	1	0.356173	11.2325	-4.0895	-27.268
 624	1	1	0.030551	11.6266	-2.78291	-27.2123
 625	1	1	-0.286062	10.5802	-4.58546	-28.4007
 626	1	5	-0.595919	11.5192	-4.74297	-26.1227
 627	1	1	-0.206338	11.3788	-1.8684	-28.2374
 628	1	6	0.462884	12.097	-3.80762	-25.348
 629	1	3	-0.691987	11.6273	1.80979	-32.0066
 630	1	7	-0.710982	9.80368	1.65021	-33.3582
 631	1	1	-0.062645	13.5137	-3.23331	-21.8657
 632	1	1	0.026743	12.5149	-4.03372	-23.9483
 633	1	1	-0.399843	13.2197	-4.45686	-21.2409
 634	1	1	-0.107518	13.1572	-3.02225	-23.2061
 635	1	1	0.292439	12.5749	-5.49569	-21.9512
 636	1	1	-0.410418	12.2538	-5.26226	-23.3067
 637	1	8	0.148547	12.1875	-0.125712	-30.1251
 638	1	8	0.179912	8.13496	-0.574338	-33.0236
 639	1	8	0.155197	8.59701	-2.30077	-31.2463
 640	1	9	0.340258	12.56	-1.71886	-25.6177