pySIMM System Object

362 atoms
411 bonds
680 angles
1076 dihedrals
120 impropers

10 atom types
15 bond types
26 angle types
12 dihedral types
2 improper types

-86.187824 86.187824 xlo xhi
-86.187824 86.187824 ylo yhi
-86.187824 86.187824 zlo zhi

Masses

   1	12.01	# ca
   2	12.01	# cp
   3	14.01	# na
   4	12.01	# cc
   5	14.01	# nc
   6	12.01	# cd
   7	14.01	# nd
   8	1.008	# ha
   9	1.008	# hn
  10	1.008	# h5

Pair Coeffs

   1	0.086	3.3996695084235347	# ca
   2	0.086	3.3996695084235347	# cp
   3	0.17	3.249998523775958	# na
   4	0.086	3.3996695084235347	# cc
   5	0.17	3.249998523775958	# nc
   6	0.086	3.3996695084235347	# cd
   7	0.17	3.249998523775958	# nd
   8	0.015	2.59964245953351	# ha
   9	0.0157	1.069078461768407	# hn
  10	0.015	2.421462715905442	# h5

Bond Coeffs

   1	425.8	1.3802	# cd,na
   2	525.4	1.3172	# cc,nd
   3	345.8	1.086	# ca,ha
   4	351.4	1.4854	# cp,cp
   5	467.7	1.3517	# ca,nc
   6	385.1	1.4555	# ca,cd
   7	467.7	1.3517	# ca,nd
   8	525.4	1.3172	# cd,nc
   9	450.2	1.4058	# ca,cp
  10	425.8	1.3802	# cc,na
  11	420.5	1.384	# ca,na
  12	351.7	1.0819	# cc,h5
  13	461.1	1.3984	# ca,ca
  14	408.4	1.01	# hn,na
  15	385.1	1.4555	# ca,cc

Angle Coeffs

   1	48.18	119.88	# ca,ca,ha
   2	66.28	123.45	# ca,cd,na
   3	64.05	121.11	# ca,cp,cp
   4	46.75	125.5	# cc,na,hn
   5	67.6	123.24	# ca,cd,nc
   6	46.75	125.5	# cd,na,hn
   7	72.48	104.88	# ca,nc,cd
   8	74.9	112.22	# na,cd,nc
   9	66.62	120.02	# ca,ca,ca
  10	46.63	125.54	# ca,na,hn
  11	65.02	120.79	# ca,ca,cd
  12	47.98	119.86	# cp,ca,ha
  13	69.46	119.72	# ca,ca,nc
  14	72.48	104.88	# ca,nd,cc
  15	69.08	118.34	# ca,ca,na
  16	66.72	118.38	# ca,cp,ca
  17	69.46	119.72	# ca,ca,nd
  18	74.9	112.22	# na,cc,nd
  19	67.4	113.15	# ca,na,cc
  20	66.26	120.69	# ca,ca,cp
  21	50.58	125.52	# h5,cc,nd
  22	67.4	113.15	# ca,na,cd
  23	49.58	121.55	# h5,cc,na
  24	66.28	123.45	# ca,cc,na
  25	67.6	123.24	# ca,cc,nd
  26	65.02	120.79	# ca,ca,cc

Dihedral Coeffs

   1	1	4.8	2	180	# X,ca,nc,X
   2	1	4.8	2	180	# X,ca,nd,X
   3	1	4.0	2	180	# X,ca,cd,X
   4	1	4.75	2	180	# X,cd,nc,X
   5	1	4.75	2	180	# X,cc,nd,X
   6	1	1.7	2	180	# X,cc,na,X
   7	1	1.0	2	180	# X,cp,cp,X
   8	1	3.625	2	180	# X,ca,cp,X
   9	1	0.3	2	180	# X,ca,na,X
  10	1	1.7	2	180	# X,cd,na,X
  11	1	3.625	2	180	# X,ca,ca,X
  12	1	4.0	2	180	# X,ca,cc,X

Improper Coeffs

   1	1.1	-1	2	# na,X,X,hn
   2	1.1	-1	2	# ca,X,X,ha

Atoms

   1	1	1	-0.155485	34.2325	15.3677	-22.0671
   2	1	2	-0.03785	33.0071	16.0903	-22.0319
   3	1	1	-0.234781	31.835	14.0109	-21.3674
   4	1	1	0.378053	33.0553	13.3381	-21.4361
   5	1	1	-0.208553	31.8186	15.3916	-21.6652
   6	1	3	-0.411858	31.2296	20.7894	-21.813
   7	1	1	-0.147234	33.7586	18.0311	-23.4946
   8	1	1	0.107751	34.2065	14.0037	-21.7556
   9	1	4	0.626409	34.5719	11.8542	-21.5756
  10	1	2	0.00453	32.9441	17.5318	-22.4342
  11	1	1	0.356173	32.7708	20.218	-23.2756
  12	1	1	0.030551	31.9929	19.7497	-22.2522
  13	1	1	-0.286062	33.6748	19.3749	-23.9244
  14	1	5	-0.595919	32.5409	21.5236	-23.5262
  15	1	1	-0.206338	32.0378	18.4259	-21.8014
  16	1	6	0.462884	31.6063	21.8639	-22.6237
  17	1	3	-0.691987	35.212	13.0817	-21.8072
  18	1	7	-0.710982	33.2646	12.0131	-21.3011
  19	1	1	-0.062645	30.9659	25.5555	-23.2334
  20	1	1	0.026743	31.05	23.2236	-22.4881
  21	1	1	-0.399843	30.0236	25.8452	-22.2344
  22	1	1	-0.107518	31.4744	24.2526	-23.3548
  23	1	1	0.292439	29.5886	24.8379	-21.3643
  24	1	1	-0.410418	30.0949	23.5366	-21.4915
  25	1	8	0.148547	35.1615	15.8554	-22.3416
  26	1	8	0.179912	30.928	13.462	-21.1392
  27	1	8	0.155197	30.8672	15.9167	-21.6696
  28	1	9	0.340258	30.553	20.7997	-21.0722
  29	1	8	0.137111	34.4379	17.3571	-24.0087
  30	1	8	0.181656	34.2814	19.7558	-24.7389
  31	1	8	0.164633	31.407	18.0953	-20.9833
  32	1	9	0.430928	36.1704	13.2264	-22.0625
  33	1	8	0.141007	31.3063	26.3348	-23.9121
  34	1	8	0.203537	29.6274	26.8504	-22.1294
  35	1	8	0.116715	32.2059	24.041	-24.1306
  36	1	8	0.18244	29.7423	22.7811	-20.8004
  37	1	1	-0.155485	29.3184	1.82175	-21.3572
  38	1	2	-0.03785	29.8812	2.86484	-20.569
  39	1	1	-0.234781	27.931	2.74171	-19.0494
  40	1	1	0.378053	27.4062	1.73703	-19.861
  41	1	1	-0.208553	29.1701	3.30811	-19.4153
  42	1	3	-0.411858	32.8776	6.83466	-21.1871
  43	1	1	-0.147234	32.2819	2.78007	-21.4295
  44	1	1	0.107751	28.0776	1.29892	-20.9697
  45	1	4	0.626409	26.1356	0.302009	-20.7802
  46	1	2	0.00453	31.166	3.52857	-20.951
  47	1	1	0.356173	33.5906	4.79891	-21.6288
  48	1	1	0.030551	32.5148	5.52215	-21.1925
  49	1	1	-0.286062	33.5045	3.40999	-21.7629
  50	1	5	-0.595919	34.6539	5.59055	-21.8871
  51	1	1	-0.206338	31.2963	4.93848	-20.8347
  52	1	6	0.462884	34.207	6.82906	-21.6165
  53	1	3	-0.691987	27.2872	0.365699	-21.582
  54	1	7	-0.710982	26.2195	1.11954	-19.7162
  55	1	1	-0.062645	37.1497	9.12488	-22.2927
  56	1	1	0.026743	35.0194	8.05319	-21.7627
  57	1	1	-0.399843	36.5797	10.3899	-22.0755
  58	1	1	-0.107518	36.3699	7.96839	-22.1503
  59	1	1	0.292439	35.2196	10.5192	-21.7118
  60	1	1	-0.410418	34.4673	9.33528	-21.5374
  61	1	8	0.148547	29.8148	1.47303	-22.2563
  62	1	8	0.179912	27.3771	3.08017	-18.1808
  63	1	8	0.155197	29.5934	4.09623	-18.7977
  64	1	9	0.340258	32.3273	7.63571	-20.933
  65	1	8	0.137111	32.2014	1.69959	-21.5121
  66	1	8	0.181656	34.3631	2.84615	-22.1113
  67	1	8	0.164633	30.466	5.5486	-20.4952
  68	1	9	0.430928	27.4698	-0.144971	-22.4252
  69	1	8	0.141007	38.1933	9.03477	-22.5874
  70	1	8	0.203537	37.1956	11.271	-22.213
  71	1	8	0.116715	36.8203	6.99667	-22.3366
  72	1	8	0.18244	33.4224	9.43578	-21.2622
  73	1	1	-0.155485	18.6914	0.472811	-13.7377
  74	1	2	-0.03785	18.2802	-0.707221	-14.4197
  75	1	1	-0.234781	16.9627	-1.34757	-12.4117
  76	1	1	0.378053	17.409	-0.187226	-11.7774
  77	1	1	-0.208553	17.4022	-1.60098	-13.7323
  78	1	3	-0.411858	21.6539	-0.600648	-18.1562
  79	1	1	-0.147234	18.0231	-1.82825	-16.7047
  80	1	1	0.107751	18.2292	0.686601	-12.4347
  81	1	4	0.626409	17.8399	1.36885	-10.3907
  82	1	2	0.00453	18.7831	-1.02096	-15.8028
  83	1	1	0.356173	19.7599	-1.69491	-18.3728
  84	1	1	0.030551	20.485	-0.902092	-17.5266
  85	1	1	-0.286062	18.5059	-2.17268	-17.9889
  86	1	5	-0.595919	20.418	-1.93626	-19.528
  87	1	1	-0.206338	20.0507	-0.546999	-16.2444
  88	1	6	0.462884	21.5759	-1.27175	-19.3797
  89	1	3	-0.691987	18.5045	1.70962	-11.5784
  90	1	7	-0.710982	17.1581	0.214817	-10.5111
  91	1	1	-0.062645	23.6318	-2.04515	-22.4783
  92	1	1	0.026743	22.6691	-1.26882	-20.3718
  93	1	1	-0.399843	24.8048	-1.31183	-22.2266
  94	1	1	-0.107518	22.5716	-2.01877	-21.5589
  95	1	1	0.292439	24.9279	-0.525274	-21.0587
  96	1	1	-0.410418	23.8481	-0.524516	-20.1482
  97	1	8	0.148547	19.3444	1.19697	-14.2102
  98	1	8	0.179912	16.3136	-2.03618	-11.8821
  99	1	8	0.155197	17.0877	-2.52173	-14.2152
 100	1	9	0.340258	22.4292	-0.0617966	-17.8141
 101	1	8	0.137111	17.0433	-2.18807	-16.406
 102	1	8	0.181656	17.9338	-2.7967	-18.6669
 103	1	8	0.164633	20.6878	0.044435	-15.5976
 104	1	9	0.430928	19.1015	2.49958	-11.7308
 105	1	8	0.141007	23.538	-2.63725	-23.3866
 106	1	8	0.203537	25.6081	-1.33975	-22.9539
 107	1	8	0.116715	21.6729	-2.59598	-21.7628
 108	1	8	0.18244	23.9445	0.0773682	-19.251
 109	1	1	-0.155485	13.4841	-1.75885	-1.19798
 110	1	2	-0.03785	14.5386	-0.89764	-0.784621
 111	1	1	-0.234781	14.4213	-1.89613	1.48386
 112	1	1	0.378053	13.3722	-2.70099	1.04191
 113	1	1	-0.208553	15.0015	-0.996736	0.562901
 114	1	3	-0.411858	16.1516	0.853954	-5.25045
 115	1	1	-0.147234	15.5864	1.36903	-1.21149
 116	1	1	0.107751	12.9382	-2.6372	-0.25369
 117	1	4	0.626409	11.7924	-4.11511	0.886769
 118	1	2	0.00453	15.1355	0.113464	-1.7185
 119	1	1	0.356173	16.3097	2.0412	-3.40266
 120	1	1	0.030551	15.8634	0.852103	-3.91244
 121	1	1	-0.286062	16.1768	2.33891	-2.04761
 122	1	5	-0.595919	16.8871	2.80993	-4.3433
 123	1	1	-0.206338	15.2732	-0.139794	-3.1142
 124	1	6	0.462884	16.8034	2.07532	-5.46313
 125	1	3	-0.691987	11.921	-3.53761	-0.386636
 126	1	7	-0.710982	12.673	-3.6004	1.7626
 127	1	1	-0.062645	18.7107	4.17609	-7.9639
 128	1	1	0.026743	17.3888	2.51752	-6.74654
 129	1	1	-0.399843	18.6249	3.40118	-9.12785
 130	1	1	-0.107518	18.0948	3.73645	-6.78783
 131	1	1	0.292439	17.9117	2.17986	-9.14181
 132	1	1	-0.410418	17.2962	1.75577	-7.9378
 133	1	8	0.148547	13.087	-1.71275	-2.20555
 134	1	8	0.179912	14.7661	-1.97141	2.50948
 135	1	8	0.155197	15.8273	-0.372168	0.893682
 136	1	9	0.340258	16.0035	0.123931	-5.92429
 137	1	8	0.137111	15.4667	1.59543	-0.155747
 138	1	8	0.181656	16.5314	3.28895	-1.66268
 139	1	8	0.164633	14.9631	-1.08582	-3.54345
 140	1	9	0.430928	11.3901	-3.75526	-1.20815
 141	1	8	0.141007	19.2598	5.11558	-7.9641
 142	1	8	0.203537	19.111	3.76443	-10.0251
 143	1	8	0.116715	18.186	4.34565	-5.89212
 144	1	8	0.18244	16.7546	0.81477	-7.94434
 145	1	1	-0.155485	10.3018	-8.91473	11.0775
 146	1	2	-0.03785	9.58894	-8.13393	10.1267
 147	1	1	-0.234781	8.06863	-7.35647	11.9072
 148	1	1	0.378053	8.75459	-8.18296	12.7961
 149	1	1	-0.208553	8.504	-7.32709	10.5672
 150	1	3	-0.411858	10.4722	-6.761	5.36814
 151	1	1	-0.147234	9.06139	-9.48052	8.10156
 152	1	1	0.107751	9.8725	-8.87484	12.4116
 153	1	4	0.626409	9.24914	-9.45284	14.426
 154	1	2	0.00453	9.72717	-8.35477	8.6621
 155	1	1	0.356173	9.41642	-8.62095	5.88658
 156	1	1	0.030551	10.1204	-7.56884	6.41199
 157	1	1	-0.286062	8.89321	-9.61888	6.70871
 158	1	5	-0.595919	9.24919	-8.50462	4.5552
 159	1	1	-0.206338	10.2768	-7.37464	7.7929
 160	1	6	0.462884	9.88799	-7.36538	4.24901
 161	1	3	-0.691987	10.2673	-9.6371	13.4776
 162	1	7	-0.710982	8.35051	-8.53566	14.0295
 163	1	1	-0.062645	9.1547	-6.85708	0.566971
 164	1	1	0.026743	9.9366	-6.81137	2.88183
 165	1	1	-0.399843	9.98996	-5.7735	0.254064
 166	1	1	-0.107518	9.14859	-7.38447	1.86492
 167	1	1	0.292439	10.8332	-5.20081	1.23386
 168	1	1	-0.410418	10.7626	-5.71315	2.55071
 169	1	8	0.148547	11.0961	-9.58339	10.7625
 170	1	8	0.179912	7.17536	-6.83353	12.2308
 171	1	8	0.155197	7.93003	-6.76836	9.831
 172	1	9	0.340258	10.9543	-5.87988	5.39337
 173	1	8	0.137111	8.60048	-10.2047	8.76895
 174	1	8	0.181656	8.3269	-10.4377	6.27854
 175	1	8	0.164633	10.7485	-6.48161	8.19014
 176	1	9	0.430928	10.9777	-10.3445	13.496
 177	1	8	0.141007	8.51905	-7.30215	-0.196059
 178	1	8	0.203537	9.99952	-5.4002	-0.763114
 179	1	8	0.116715	8.50089	-8.22833	2.08984
 180	1	8	0.18244	11.4061	-5.27239	3.30586
 181	1	1	-0.155485	-0.647783	-11.1551	18.7987
 182	1	2	-0.03785	0.243763	-11.7351	17.8625
 183	1	1	-0.234781	-1.55829	-11.7152	16.1612
 184	1	1	0.378053	-2.39302	-11.101	17.0989
 185	1	1	-0.208553	-0.23146	-12.0188	16.5488
 186	1	3	-0.411858	5.07984	-10.7332	17.2201
 187	1	1	-0.147234	2.13769	-12.7125	19.2753
 188	1	1	0.107751	-1.94383	-10.8566	18.3685
 189	1	4	0.626409	-3.93452	-10.0013	18.0694
 190	1	2	0.00453	1.68774	-11.8932	18.1985
 191	1	1	0.356173	4.43331	-12.1245	18.7972
 192	1	1	0.030551	3.99116	-11.304	17.7957
 193	1	1	-0.286062	3.51733	-12.8468	19.5707
 194	1	5	-0.595919	5.7852	-12.1502	18.8607
 195	1	1	-0.206338	2.64618	-11.1715	17.4462
 196	1	6	0.462884	6.16473	-11.3213	17.8717
 197	1	3	-0.691987	-2.9224	-10.1785	19.0233
 198	1	7	-0.710982	-3.6346	-10.5998	16.9015
 199	1	1	-0.062645	9.87763	-11.874	17.3269
 200	1	1	0.026743	7.55	-11.1449	17.395
 201	1	1	-0.399843	10.0982	-11.0944	16.1768
 202	1	1	-0.107518	8.60829	-11.9038	17.9275
 203	1	1	0.292439	9.07819	-10.2621	15.6642
 204	1	1	-0.410418	7.82635	-10.279	16.3143
 205	1	8	0.148547	-0.308522	-10.8816	19.7923
 206	1	8	0.179912	-1.91681	-11.8949	15.1535
 207	1	8	0.155197	0.452846	-12.4531	15.8233
 208	1	9	0.340258	5.11605	-10.1486	16.4043
 209	1	8	0.137111	1.40739	-13.268	19.8583
 210	1	8	0.181656	3.87269	-13.4983	20.3618
 211	1	8	0.164633	2.3373	-10.5235	16.6321
 212	1	9	0.430928	-2.89918	-9.81251	19.9554
 213	1	8	0.141007	10.6777	-12.4883	17.7353
 214	1	8	0.203537	11.0765	-11.1058	15.7086
 215	1	8	0.116715	8.43102	-12.5604	18.7758
 216	1	8	0.18244	7.03621	-9.66353	15.8973
 217	1	1	-0.155485	-13.3144	-6.96253	11.7241
 218	1	2	-0.03785	-12.3944	-7.95718	12.1617
 219	1	1	-0.234781	-13.0604	-9.3581	10.227
 220	1	1	0.378053	-13.9631	-8.36015	9.85327
 221	1	1	-0.208553	-12.2774	-9.15124	11.3873
 222	1	3	-0.411858	-8.48829	-8.5514	15.3523
 223	1	1	-0.147234	-12.1705	-6.94547	14.4667
 224	1	1	0.107751	-14.0735	-7.21024	10.5815
 225	1	4	0.626409	-15.486	-7.20325	8.92094
 226	1	2	0.00453	-11.6173	-7.7557	13.4299
 227	1	1	0.356173	-10.2398	-7.30924	15.8397
 228	1	1	0.030551	-9.69198	-8.1041	14.8701
 229	1	1	-0.286062	-11.4839	-6.70997	15.6716
 230	1	5	-0.595919	-9.45878	-7.22134	16.9263
 231	1	1	-0.206338	-10.3414	-8.35674	13.6504
 232	1	6	0.462884	-8.39828	-7.98705	16.6329
 233	1	3	-0.691987	-15.0393	-6.44012	10.0057
 234	1	7	-0.710982	-14.8233	-8.37085	8.81562
 235	1	1	-0.062645	-6.4229	-7.73651	19.8417
 236	1	1	0.026743	-7.3055	-8.19634	17.6066
 237	1	1	-0.399843	-5.31289	-8.5444	19.5751
 238	1	1	-0.107518	-7.40497	-7.56575	18.8641
 239	1	1	0.292439	-5.15663	-9.18781	18.3249
 240	1	1	-0.410418	-6.16852	-9.00328	17.3483
 241	1	8	0.148547	-13.434	-6.02624	12.2558
 242	1	8	0.179912	-12.9946	-10.2702	9.64374
 243	1	8	0.155197	-11.6011	-9.93744	11.7102
 244	1	9	0.340258	-7.83145	-9.17597	14.9186
 245	1	8	0.137111	-13.1585	-6.51257	14.3491
 246	1	8	0.181656	-11.9042	-6.09841	16.4623
 247	1	8	0.164633	-9.87746	-8.9791	12.8932
 248	1	9	0.430928	-15.3933	-5.54979	10.3048
 249	1	8	0.141007	-6.52745	-7.23759	20.8029
 250	1	8	0.203537	-4.5629	-8.65166	20.3487
 251	1	8	0.116715	-8.25873	-6.93463	19.0967
 252	1	8	0.18244	-6.05187	-9.49446	16.3867
 253	1	1	-0.155485	-24.6564	-0.734701	6.53326
 254	1	2	-0.03785	-23.908	-0.41928	7.70384
 255	1	1	-0.234781	-25.9055	0.780737	8.5735
 256	1	1	0.378053	-26.6028	0.407399	7.42169
 257	1	1	-0.208553	-24.562	0.353426	8.71426
 258	1	3	-0.411858	-20.3364	-3.77737	6.80916
 259	1	1	-0.147234	-21.6092	-0.497686	8.88535
 260	1	1	0.107751	-25.9848	-0.325936	6.4519
 261	1	4	0.626409	-28.0738	0.0191869	5.92798
 262	1	2	0.00453	-22.5226	-0.98184	7.89442
 263	1	1	0.356173	-20.0258	-2.25245	8.36367
 264	1	1	0.030551	-20.8694	-2.67147	7.37645
 265	1	1	-0.286062	-20.364	-1.13301	9.13207
 266	1	5	-0.595919	-18.9624	-3.08465	8.48922
 267	1	1	-0.206338	-22.1108	-2.10041	7.12193
 268	1	6	0.462884	-19.1838	-4.02465	7.54982
 269	1	3	-0.691987	-26.9004	-0.602006	5.48439
 270	1	7	-0.710982	-27.8931	0.649731	7.10457
 271	1	1	-0.062645	-18.0177	-7.31501	6.08539
 272	1	1	0.026743	-18.3789	-5.24287	7.33425
 273	1	1	-0.399843	-16.9659	-7.649	6.94496
 274	1	1	-0.107518	-18.7219	-6.12381	6.28614
 275	1	1	0.292439	-16.5851	-6.79929	8.00499
 276	1	1	-0.410418	-17.2956	-5.58505	8.1737
 277	1	8	0.148547	-24.2342	-1.29649	5.71225
 278	1	8	0.179912	-26.4107	1.34849	9.34765
 279	1	8	0.155197	-24.0398	0.591395	9.63585
 280	1	9	0.340258	-20.7406	-4.36549	6.10453
 281	1	8	0.137111	-21.8782	0.364403	9.48789
 282	1	8	0.181656	-19.6954	-0.790901	9.91488
 283	1	8	0.164633	-22.7538	-2.56192	6.3864
 284	1	9	0.430928	-26.7654	-1.09538	4.62403
 285	1	8	0.141007	-18.2961	-7.98359	5.27347
 286	1	8	0.203537	-16.4319	-8.58598	6.80059
 287	1	8	0.116715	-19.5393	-5.89636	5.61115
 288	1	8	0.18244	-17.0402	-4.91217	8.98624
 289	1	1	-0.155485	-38.4177	5.1407	6.98782
 290	1	2	-0.03785	-37.5794	5.15974	5.84868
 291	1	1	-0.234781	-39.2571	6.54709	4.66763
 292	1	1	0.378053	-40.0545	6.50591	5.81763
 293	1	1	-0.208553	-38.0188	5.85541	4.68421
 294	1	3	-0.411858	-33.97	1.86701	4.57929
 295	1	1	-0.147234	-35.3967	4.83855	7.02841
 296	1	1	0.107751	-39.6362	5.80779	6.91574
 297	1	4	0.626409	-41.6345	6.60791	7.23909
 298	1	2	0.00453	-36.2511	4.49437	5.9427
 299	1	1	0.356173	-33.7951	3.20009	6.32206
 300	1	1	0.030551	-34.6055	2.85944	5.27141
 301	1	1	-0.286062	-34.1585	4.19749	7.22337
 302	1	5	-0.595919	-32.6595	2.48436	6.33933
 303	1	1	-0.206338	-35.8415	3.47986	5.0349
 304	1	6	0.462884	-32.7618	1.68777	5.26708
 305	1	3	-0.691987	-40.6177	5.86311	7.8464
 306	1	7	-0.710982	-41.2804	7.04701	6.01604
 307	1	1	-0.062645	-30.6983	-0.798041	3.26986
 308	1	1	0.026743	-31.6707	0.787442	4.84891
 309	1	1	-0.399843	-29.4934	-0.787406	3.9911
 310	1	1	-0.107518	-31.7775	-0.00744505	3.69135
 311	1	1	0.292439	-29.3545	-0.014579	5.16845
 312	1	1	-0.410418	-30.4667	0.741214	5.58627
 313	1	8	0.148547	-38.1239	4.60765	7.88599
 314	1	8	0.179912	-39.6003	7.08897	3.79291
 315	1	8	0.155197	-37.376	5.88052	3.80755
 316	1	9	0.340258	-34.2568	1.42322	3.72603
 317	1	8	0.137111	-35.7037	5.62136	7.71716
 318	1	8	0.181656	-33.4946	4.45961	8.0401
 319	1	8	0.164633	-36.4811	3.17774	4.21179
 320	1	9	0.430928	-40.601	5.50943	8.78298
 321	1	8	0.141007	-30.7934	-1.40716	2.37309
 322	1	8	0.203537	-28.6708	-1.39987	3.64152
 323	1	8	0.116715	-32.6905	-0.00853808	3.10521
 324	1	8	0.18244	-30.3689	1.34807	6.48546
 325	1	1	-0.155485	-46.1416	-1.1642	13.155
 326	1	2	-0.03785	-45.2061	-0.133605	13.4316
 327	1	1	-0.234781	-43.5783	-1.83959	14.1895
 328	1	1	0.378053	-44.5144	-2.82458	13.8677
 329	1	1	-0.208553	-43.9302	-0.489974	13.9615
 330	1	3	-0.411858	-44.0862	4.03778	10.9945
 331	1	1	-0.147234	-46.7921	1.85115	13.1397
 332	1	1	0.107751	-45.7507	-2.48494	13.3857
 333	1	4	0.626409	-45.5019	-4.63885	13.4336
 334	1	2	0.00453	-45.4966	1.26717	13.008
 335	1	1	0.356173	-46.0809	3.78711	11.8848
 336	1	1	0.030551	-44.8332	3.23531	11.7888
 337	1	1	-0.286062	-47.0912	3.11907	12.5837
 338	1	5	-0.595919	-46.1778	4.9287	11.1647
 339	1	1	-0.206338	-44.4938	1.99286	12.321
 340	1	6	0.462884	-44.963	5.05044	10.6029
 341	1	3	-0.691987	-46.4133	-3.64046	13.0983
 342	1	7	-0.710982	-44.3467	-4.16283	13.9102
 343	1	1	-0.062645	-45.2069	7.77602	7.97182
 344	1	1	0.026743	-44.5949	6.03884	9.57228
 345	1	1	-0.399843	-43.9471	7.6628	7.35664
 346	1	1	-0.107518	-45.5304	6.96171	9.07008
 347	1	1	0.292439	-42.9666	6.7926	7.87361
 348	1	1	-0.410418	-43.3034	6.01441	9.00276
 349	1	8	0.148547	-47.1019	-0.939886	12.7041
 350	1	8	0.179912	-42.6002	-2.12503	14.5614
 351	1	8	0.155197	-43.2027	0.290269	14.1718
 352	1	9	0.340258	-43.1878	3.83737	10.5988
 353	1	8	0.137111	-47.5723	1.29943	13.6573
 354	1	8	0.181656	-48.0839	3.5517	12.6465
 355	1	8	0.164633	-43.5138	1.56101	12.1476
 356	1	9	0.430928	-47.3268	-3.7582	12.7008
 357	1	8	0.141007	-45.9491	8.46626	7.57631
 358	1	8	0.203537	-43.7114	8.26113	6.47891
 359	1	8	0.116715	-46.5264	7.01362	9.503
 360	1	8	0.18244	-42.5768	5.30956	9.37887
 361	1	8	0	28.8615	25.0648	-20.5898
 362	1	10	0	-45.7365	-5.68509	13.2905

Velocities

   1	-0.000466774	-0.000520247	-0.000868882
   2	-0.000302218	-0.000269594	-0.000162179
   3	-0.000295774	-1.54506e-05	0.000667432
   4	-0.00052064	-0.000382396	-0.000432269
   5	-0.00020916	5.46026e-05	0.000781816
   6	0.000458553	-7.49301e-05	0.000475327
   7	0.000136133	-8.93908e-05	-5.37442e-05
   8	-0.000672121	-0.000495507	-0.00108947
   9	-0.000665887	-0.000472448	-0.00101449
  10	-1.02496e-05	-0.000221853	-9.9306e-05
  11	0.000582461	0.000102158	0.000503351
  12	0.000470246	-3.49463e-05	0.00028538
  13	0.000491628	0.000103132	0.000289234
  14	0.000633478	0.000250347	0.000709559
  15	0.000221513	-0.000160824	2.50622e-05
  16	0.000383158	5.01558e-05	0.00059062
  17	-0.000752878	-0.000582226	-0.00167517
  18	-0.000564587	-0.000471911	-0.000507806
  19	0.000158891	3.31688e-05	-0.00011168
  20	0.000104214	-9.65392e-06	0.000279166
  21	-6.96369e-05	4.14275e-05	-0.000257343
  22	0.000156054	-2.84592e-05	0.000272767
  23	-0.000314071	-5.73863e-05	-0.000302784
  24	-0.000317729	1.04777e-06	-1.40672e-05
  25	-0.000483529	-0.000722335	-0.00121183
  26	-0.000287847	0.000176491	0.0015544
  27	-9.22853e-05	0.000234089	0.00169647
  28	0.000508614	-0.000340573	0.000445406
  29	1.52503e-05	-4.74261e-05	-0.000281265
  30	0.000598236	0.000197807	0.000409443
  31	8.5376e-06	-0.000107923	1.87709e-05
  32	-0.000864743	-0.000716163	-0.00216465
  33	0.00028417	-2.75511e-05	-6.84903e-05
  34	-0.000157137	9.53124e-05	-0.000231474
  35	0.000345385	-6.85061e-05	0.000457091
  36	-0.000512396	-0.000112825	-8.60161e-05
  37	-0.000515159	0.000811506	-0.000360216
  38	-0.000203767	0.000521981	-0.000204106
  39	0.000397111	3.21908e-05	0.000553491
  40	1.43638e-05	0.000315311	0.000326206
  41	0.000286906	9.27722e-05	0.000259585
  42	0.000202784	0.000115271	3.43386e-05
  43	-0.000368723	0.00026075	-0.000152498
  44	-0.000340225	0.000745641	-5.36302e-05
  45	-9.42328e-05	0.000438783	0.000365436
  46	-0.000309836	0.000417066	-0.000372804
  47	-9.47941e-05	8.95432e-05	-1.11299e-05
  48	-9.28032e-05	0.000203881	-0.00026665
  49	-0.000244054	0.000111303	-4.6354e-05
  50	0.000112734	-0.000155274	0.00034692
  51	-0.000295775	0.000437533	-0.000511424
  52	0.000252945	-0.000118634	0.000295889
  53	-0.000451892	0.000866212	-6.71916e-05
  54	0.000136505	0.000193291	0.000586197
  55	0.000179181	-6.91301e-05	0.000269122
  56	0.000331737	-0.000257373	0.000306095
  57	-0.000173532	-0.000144206	-0.000402047
  58	0.000435538	-0.000184923	0.000533174
  59	-0.000289333	-0.000291466	-0.000538168
  60	3.06922e-05	-0.000410803	-7.7692e-05
  61	-0.000802383	0.00106689	-0.000621993
  62	0.000776104	-0.000369809	0.000953888
  63	0.000640443	-0.000241615	0.000424369
  64	0.000445643	0.0002458	0.00038233
  65	-0.000401608	0.000288023	2.51644e-05
  66	-0.000169664	1.02157e-05	0.000189147
  67	-0.000316509	0.000509552	-0.000679011
  68	-0.000756641	0.00125467	-0.000394476
  69	0.000247512	5.85532e-05	0.000481836
  70	-0.000354399	-2.3721e-05	-0.000679396
  71	0.000582745	-0.000159144	0.000936393
  72	-2.74764e-05	-0.000440503	-0.000249779
  73	-0.000673279	6.17795e-06	9.8009e-05
  74	-0.000317851	-0.000141052	0.000190891
  75	0.000522379	-0.000807038	0.000555962
  76	0.000322879	-0.000689023	0.000529665
  77	0.000214485	-0.000533999	0.000387896
  78	-5.2089e-05	-3.89074e-05	0.000355282
  79	-0.000227553	9.46836e-05	0.000123033
  80	-0.000290511	-0.000319831	0.000245935
  81	0.000262188	-0.000492225	0.000328882
  82	-0.000311907	0.000124225	0.000146784
  83	-0.000138565	0.000142308	0.000186333
  84	-0.000205363	0.000189273	0.000202161
  85	-0.000182422	0.000166035	0.00012583
  86	2.84899e-05	-1.88667e-05	0.000294706
  87	-0.000344926	0.000273506	0.000153363
  88	7.64727e-05	-0.000113022	0.000402015
  89	-0.000290174	-0.000270496	0.000137411
  90	0.000692172	-0.00080296	0.000654705
  91	0.00042295	-4.08512e-05	0.000509367
  92	0.000221266	-0.000190792	0.000510704
  93	0.000219334	0.000238417	0.000467976
  94	0.000392776	-0.000228789	0.000506592
  95	6.97947e-05	0.000203068	0.000507661
  96	0.000129732	-7.01723e-05	0.000567453
  97	-0.00115568	0.0003305	-7.17853e-05
  98	0.000981879	-0.00111366	0.000715047
  99	0.000463453	-0.000637824	0.000409532
 100	0.000133022	-0.00044252	0.000596582
 101	-0.000175077	-5.03135e-06	0.00017715
 102	-0.000122266	9.41353e-05	0.000137614
 103	-0.00044373	0.000355053	0.000182189
 104	-0.000710312	-1.04723e-05	-0.000118644
 105	0.000566376	-5.60306e-05	0.000491862
 106	0.000225921	0.000446705	0.000467808
 107	0.00049622	-0.000353696	0.00045389
 108	4.65027e-05	-2.49485e-05	0.000549298
 109	-0.000321288	-1.68685e-05	4.18428e-05
 110	-0.000351385	6.76399e-05	-0.000159657
 111	-0.000541621	0.000801775	0.000226065
 112	-0.000294416	0.000482717	0.000293016
 113	-0.000557859	0.00055345	-1.98331e-05
 114	0.000394225	9.22891e-05	-0.000250937
 115	-0.000125587	-0.000302522	-0.000300215
 116	-0.000244954	0.000221978	0.000249018
 117	0.000280126	1.02977e-05	0.000195481
 118	-0.000258181	-0.000189628	-0.000394085
 119	0.000263426	-0.000203915	-0.000114876
 120	0.000157913	-0.000104219	-0.000294263
 121	0.000123059	-0.000346252	-0.000117741
 122	0.00038711	-3.92427e-05	7.65143e-05
 123	-0.000206005	-9.62631e-05	-0.000456214
 124	0.000413605	0.000153368	-3.34337e-05
 125	4.52814e-05	-4.23463e-07	0.000243366
 126	-8.86334e-06	0.000299177	0.000316466
 127	-0.000233761	0.000411584	-0.000525168
 128	0.000344111	0.000300641	2.73628e-06
 129	-5.2309e-05	4.99578e-05	-0.000308318
 130	-4.04816e-05	0.000539236	-0.000347186
 131	0.000280682	-0.000157915	9.31009e-05
 132	0.000509785	1.4424e-06	0.000203078
 133	-0.000289926	-0.00040761	2.21356e-05
 134	-0.000644976	0.00113647	0.000290114
 135	-0.000656685	0.000692447	-5.42132e-05
 136	0.000475283	0.000232904	-0.00042301
 137	-0.000259249	-0.000347675	-0.000303482
 138	0.000204957	-0.000458447	6.38912e-05
 139	-0.000450698	3.76512e-05	-0.00060997
 140	-0.000108145	9.08385e-06	0.000340177
 141	-0.000541259	0.000606669	-0.000905718
 142	-0.000178671	-8.59333e-05	-0.000432629
 143	-0.000274824	0.000850663	-0.00052077
 144	0.000801997	-0.000154217	0.000481166
 145	-0.000802027	-0.000337653	-0.000438131
 146	-0.000907758	-0.000274452	-0.000293817
 147	-0.000281726	5.54587e-05	0.00014063
 148	-4.769e-05	0.000149668	4.15001e-05
 149	-0.000789946	-0.000261531	-5.38498e-05
 150	0.000579913	-6.01228e-05	-0.000281838
 151	-0.000331937	3.90945e-05	-0.000662154
 152	-0.00037018	-0.000179131	-0.000265387
 153	0.000289329	0.000272822	7.50357e-05
 154	-0.000725935	0.000118397	-0.000387882
 155	0.000415677	3.67875e-05	-0.000474388
 156	0.000138172	0.000129885	-0.000278259
 157	0.000198729	2.51465e-05	-0.000708879
 158	0.000762312	-0.000116122	-0.000491362
 159	-0.000547285	0.000240762	-0.000191389
 160	0.000734944	-0.000103304	-0.000353386
 161	-3.20591e-05	3.79763e-06	-0.000228961
 162	0.000409254	0.000484649	0.000293612
 163	0.000935782	-0.000376047	-0.000406181
 164	0.000789988	-0.000303889	-0.00034913
 165	0.000765769	-0.000222353	-0.000242444
 166	0.000952659	-0.000426792	-0.000433322
 167	0.000583522	-0.000203705	-8.94168e-05
 168	0.000637426	-0.000223675	-0.000175255
 169	-0.00093894	-0.000382686	-0.000639852
 170	-4.29948e-05	0.000315636	0.00039351
 171	-0.000976083	-0.000318185	5.7175e-05
 172	0.00145445	-0.000519332	-0.000367399
 173	-0.000433539	-7.50904e-05	-0.000879249
 174	0.000515787	-3.68298e-05	-0.000996233
 175	-0.000909039	0.000341177	4.77633e-06
 176	-0.000427203	-0.000404861	-0.000482883
 177	0.00101998	-0.000356247	-0.000504445
 178	0.000710011	-3.03561e-05	-0.000175905
 179	0.00103754	-0.000507204	-0.000528386
 180	0.000449208	-9.79431e-05	-8.65281e-05
 181	0.000224388	0.000485805	-0.000315703
 182	2.21737e-05	0.0005942	-0.000479336
 183	-9.15532e-05	0.00074078	-0.000302116
 184	-7.69334e-05	0.000277494	2.22939e-05
 185	2.8823e-05	0.000939325	-0.000529536
 186	-0.000241904	0.000104371	-0.000279225
 187	-0.000343818	0.000485293	-0.000181493
 188	0.000126323	0.000288788	-6.22194e-05
 189	-5.77761e-06	-5.77478e-05	0.000496866
 190	-0.000107065	0.000407265	-0.000322059
 191	-0.000283146	0.000247017	-8.86524e-05
 192	-0.000188396	0.000301481	-9.05692e-05
 193	-0.000384443	0.000413221	-1.31729e-05
 194	-0.000277858	-5.07509e-05	-0.000380315
 195	-8.63755e-05	0.000356393	-0.000224728
 196	-0.000289368	-0.000203016	-0.000551213
 197	0.000253847	8.5703e-05	0.000224209
 198	-0.000192447	6.04443e-05	0.0003416
 199	-0.000378491	-0.000641181	-0.00045644
 200	-0.000322524	-0.000446216	-0.000720478
 201	3.63375e-05	-0.000111724	-2.10205e-05
 202	-0.000557812	-0.000791285	-0.00083359
 203	0.000142289	-9.92773e-07	-0.000115146
 204	-8.7328e-05	-0.000261359	-0.000509491
 205	0.000378178	0.000476333	-0.000372028
 206	-0.000191602	0.000930233	-0.000294143
 207	3.66249e-05	0.00129054	-0.000739243
 208	-0.000392114	0.000286102	-0.000160196
 209	-0.000486812	0.000571319	-0.000277569
 210	-0.000551204	0.000418359	7.75321e-05
 211	2.70486e-05	0.000282091	-0.000324445
 212	0.000933059	0.000950217	-0.00010635
 213	-0.000560775	-0.000845649	-0.000385783
 214	0.000259998	0.000207478	0.000412178
 215	-0.000850783	-0.00109099	-0.00113788
 216	-1.61508e-05	-0.00025785	-0.00063642
 217	0.000379316	0.000462261	2.06631e-05
 218	0.000429919	0.000629254	0.000370552
 219	0.000921295	0.000248606	0.000446016
 220	0.000952743	0.000142971	-3.94229e-05
 221	0.000649429	0.00053372	0.000607743
 222	-2.03644e-05	0.000189346	0.000862277
 223	6.04406e-05	0.000393015	0.000676408
 224	0.000704516	0.000251961	-0.000229717
 225	0.000833481	-0.000154725	-0.000488474
 226	0.000218918	0.000635939	0.000589546
 227	-0.000281017	-0.000303416	0.00110861
 228	-4.8508e-05	0.000119663	0.000920679
 229	-0.000240069	-0.000176046	0.00101174
 230	-0.000383779	-0.000557141	0.00124789
 231	0.000153672	0.000545665	0.000681414
 232	-0.00014368	-0.000195557	0.00101905
 233	0.000677849	5.34889e-06	-0.000557772
 234	0.00107772	-0.000111552	-0.000205737
 235	0.000143938	-0.000356292	0.000921018
 236	8.69537e-06	-0.000112477	0.000904007
 237	0.000101859	-0.000336274	0.000794172
 238	6.08454e-05	-0.000256271	0.000960617
 239	6.87723e-05	-0.00012293	0.00066464
 240	8.6682e-05	7.03879e-05	0.00068644
 241	5.38344e-05	0.000457634	-2.67892e-05
 242	0.00111211	3.55684e-05	0.000802556
 243	0.00056519	0.000614514	0.00100127
 244	0.000426645	0.000867203	0.000478614
 245	0.000172951	0.00062029	0.000498429
 246	-0.000350836	-0.000402322	0.00112291
 247	0.000344927	0.000818144	0.000603534
 248	0.000448667	-2.2092e-05	-0.000650642
 249	0.000152547	-0.000519419	0.000988014
 250	7.14531e-05	-0.000588865	0.000807685
 251	8.8786e-05	-0.000282857	0.00107054
 252	0.000175675	0.000301528	0.000585773
 253	-0.000207653	-5.57856e-05	-0.000263576
 254	-0.000252713	-0.00021491	-0.000172002
 255	-0.000127715	0.000313261	-0.000465589
 256	-0.000189165	3.51561e-05	-0.000363372
 257	-0.000145105	0.000257829	-0.000421051
 258	-0.000372503	-0.000936384	-0.000507278
 259	-0.000415026	-0.00112063	7.26667e-05
 260	-0.000156086	-1.29296e-05	-0.000301082
 261	4.72907e-06	0.000179857	-0.000511909
 262	-0.000476318	-0.000804791	-8.95723e-07
 263	-0.000386212	-0.0010149	-0.000448788
 264	-0.000597897	-0.00106922	-0.000234523
 265	-0.000403774	-0.00118325	-0.00017362
 266	-0.000152226	-0.000790174	-0.000800842
 267	-0.00069739	-0.000997151	4.12815e-05
 268	-0.000109657	-0.000847844	-0.000764889
 269	-7.4236e-05	9.9911e-07	-0.00038111
 270	-0.00010681	9.06521e-05	-0.000431341
 271	0.000520227	-0.000937592	-0.000407551
 272	0.000173919	-0.000774877	-0.000701055
 273	0.000782792	-0.000548168	-0.000515465
 274	0.000237825	-0.00104435	-0.000480678
 275	0.000690854	-0.000445657	-0.000610134
 276	0.000359223	-0.000548358	-0.000725038
 277	-0.00018077	-2.91091e-05	-0.000267211
 278	-6.69737e-05	0.000594189	-0.000615082
 279	-8.97981e-05	0.000601329	-0.000554025
 280	-0.000274596	-0.000825998	-0.000673805
 281	-0.00033039	-0.00124674	0.0002902