pySIMM System Object

506 atoms
575 bonds
952 angles
1508 dihedrals
168 impropers

10 atom types
15 bond types
26 angle types
12 dihedral types
2 improper types

-118.514194 118.514194 xlo xhi
-118.514194 118.514194 ylo yhi
-118.514194 118.514194 zlo zhi

Masses

   1	12.01	# ca
   2	12.01	# cp
   3	14.01	# na
   4	12.01	# cc
   5	14.01	# nc
   6	12.01	# cd
   7	14.01	# nd
   8	1.008	# ha
   9	1.008	# hn
  10	1.008	# h5

Pair Coeffs

   1	0.086	3.3996695084235347	# ca
   2	0.086	3.3996695084235347	# cp
   3	0.17	3.249998523775958	# na
   4	0.086	3.3996695084235347	# cc
   5	0.17	3.249998523775958	# nc
   6	0.086	3.3996695084235347	# cd
   7	0.17	3.249998523775958	# nd
   8	0.015	2.59964245953351	# ha
   9	0.0157	1.069078461768407	# hn
  10	0.015	2.421462715905442	# h5

Bond Coeffs

   1	425.8	1.3802	# cd,na
   2	525.4	1.3172	# cc,nd
   3	345.8	1.086	# ca,ha
   4	351.4	1.4854	# cp,cp
   5	467.7	1.3517	# ca,nc
   6	385.1	1.4555	# ca,cd
   7	467.7	1.3517	# ca,nd
   8	525.4	1.3172	# cd,nc
   9	450.2	1.4058	# ca,cp
  10	425.8	1.3802	# cc,na
  11	420.5	1.384	# ca,na
  12	351.7	1.0819	# cc,h5
  13	461.1	1.3984	# ca,ca
  14	408.4	1.01	# hn,na
  15	385.1	1.4555	# ca,cc

Angle Coeffs

   1	48.18	119.88	# ca,ca,ha
   2	66.28	123.45	# ca,cd,na
   3	64.05	121.11	# ca,cp,cp
   4	46.75	125.5	# cc,na,hn
   5	67.6	123.24	# ca,cd,nc
   6	46.75	125.5	# cd,na,hn
   7	72.48	104.88	# ca,nc,cd
   8	74.9	112.22	# na,cd,nc
   9	66.62	120.02	# ca,ca,ca
  10	46.63	125.54	# ca,na,hn
  11	65.02	120.79	# ca,ca,cd
  12	47.98	119.86	# cp,ca,ha
  13	69.46	119.72	# ca,ca,nc
  14	72.48	104.88	# ca,nd,cc
  15	69.08	118.34	# ca,ca,na
  16	66.72	118.38	# ca,cp,ca
  17	69.46	119.72	# ca,ca,nd
  18	74.9	112.22	# na,cc,nd
  19	67.4	113.15	# ca,na,cc
  20	66.26	120.69	# ca,ca,cp
  21	50.58	125.52	# h5,cc,nd
  22	67.4	113.15	# ca,na,cd
  23	49.58	121.55	# h5,cc,na
  24	66.28	123.45	# ca,cc,na
  25	67.6	123.24	# ca,cc,nd
  26	65.02	120.79	# ca,ca,cc

Dihedral Coeffs

   1	1	4.8	2	180	# X,ca,nc,X
   2	1	4.8	2	180	# X,ca,nd,X
   3	1	4.0	2	180	# X,ca,cd,X
   4	1	4.75	2	180	# X,cd,nc,X
   5	1	4.75	2	180	# X,cc,nd,X
   6	1	1.7	2	180	# X,cc,na,X
   7	1	1.0	2	180	# X,cp,cp,X
   8	1	3.625	2	180	# X,ca,cp,X
   9	1	0.3	2	180	# X,ca,na,X
  10	1	1.7	2	180	# X,cd,na,X
  11	1	3.625	2	180	# X,ca,ca,X
  12	1	4.0	2	180	# X,ca,cc,X

Improper Coeffs

   1	1.1	-1	2	# na,X,X,hn
   2	1.1	-1	2	# ca,X,X,ha

Atoms

   1	1	1	-0.155485	-7.99545	-10.0174	43.7385
   2	1	2	-0.03785	-7.11548	-11.0725	43.3928
   3	1	1	-0.234781	-6.78682	-10.0075	41.1738
   4	1	1	0.378053	-7.60221	-8.9473	41.591
   5	1	1	-0.208553	-6.5484	-11.0733	42.0821
   6	1	3	-0.411858	-5.77403	-15.5685	45.3014
   7	1	1	-0.147234	-6.54451	-11.5722	45.7918
   8	1	1	0.107751	-8.20361	-8.99812	42.816
   9	1	4	0.626409	-8.56648	-7.06588	41.8769
  10	1	2	0.00453	-6.71186	-12.0475	44.4557
  11	1	1	0.356173	-5.93934	-13.7656	46.5464
  12	1	1	0.030551	-6.07907	-14.2376	45.2681
  13	1	1	-0.286062	-6.16244	-12.4248	46.8448
  14	1	5	-0.595919	-5.5636	-14.7259	47.4093
  15	1	1	-0.206338	-6.45927	-13.4224	44.1896
  16	1	6	0.462884	-5.45777	-15.8201	46.6426
  17	1	3	-0.691987	-8.86496	-7.83402	43.0063
  18	1	7	-0.710982	-7.83473	-7.75761	40.9786
  19	1	1	-0.062645	-4.40225	-18.5139	49.0941
  20	1	1	0.026743	-5.04545	-17.1317	47.1756
  21	1	1	-0.399843	-4.24513	-19.6214	48.2471
  22	1	1	-0.107518	-4.79474	-17.2789	48.557
  23	1	1	0.292439	-4.48212	-19.4951	46.8721
  24	1	1	-0.410418	-4.88442	-18.2611	46.3397
  25	1	8	0.148547	-8.45667	-9.96892	44.7187
  26	1	8	0.179912	-6.30132	-9.96389	40.2049
  27	1	8	0.155197	-5.85603	-11.864	41.8043
  28	1	9	0.340258	-5.79056	-16.2328	44.5495
  29	1	8	0.137111	-6.68665	-10.5178	46.0083
  30	1	8	0.181656	-6.02649	-12.0625	47.858
  31	1	8	0.164633	-6.57288	-13.8275	43.1897
  32	1	9	0.430928	-9.37251	-7.54162	43.8183
  33	1	8	0.141007	-4.22092	-18.6055	50.1632
  34	1	8	0.203537	-3.938	-20.5804	48.6522
  35	1	8	0.116715	-4.91147	-16.429	49.2251
  36	1	8	0.18244	-5.05551	-18.1917	45.2727
  37	1	1	-0.155485	-5.31097	0.731528	35.0084
  38	1	2	-0.03785	-6.71293	0.582383	34.8648
  39	1	1	-0.234781	-6.65063	2.01834	32.8516
  40	1	1	0.378053	-5.27908	2.18227	33.0587
  41	1	1	-0.208553	-7.36826	1.22561	33.7753
  42	1	3	-0.411858	-8.04732	-2.83918	38.35
  43	1	1	-0.147234	-8.35701	0.918495	36.6964
  44	1	1	0.107751	-4.64281	1.54132	34.0876
  45	1	4	0.626409	-3.30593	2.97013	33.1211
  46	1	2	0.00453	-7.50355	0.0240728	35.9938
  47	1	1	0.356173	-8.82653	-0.777348	38.3221
  48	1	1	0.030551	-8.04042	-1.66661	37.6381
  49	1	1	-0.286062	-9.01869	0.527151	37.874
  50	1	5	-0.595919	-9.31188	-1.30155	39.4561
  51	1	1	-0.206338	-7.33663	-1.30439	36.4777
  52	1	6	0.462884	-8.82806	-2.55154	39.4782
  53	1	3	-0.691987	-3.3642	2.00711	34.136
  54	1	7	-0.710982	-4.45577	3.04268	32.4252
  55	1	1	-0.062645	-10.109	-3.72597	42.8242
  56	1	1	0.026743	-9.10543	-3.46153	40.6095
  57	1	1	-0.399843	-9.70063	-5.06117	42.8512
  58	1	1	-0.107518	-9.82192	-2.94172	41.7078
  59	1	1	0.292439	-8.98705	-5.63913	41.7729
  60	1	1	-0.410418	-8.6832	-4.81611	40.6585
  61	1	8	0.148547	-4.79646	0.326587	35.8731
  62	1	8	0.179912	-7.14823	2.56516	32.0577
  63	1	8	0.155197	-8.45099	1.1558	33.6943
  64	1	9	0.340258	-7.57793	-3.70267	38.1416
  65	1	8	0.137111	-8.45239	1.94377	36.3469
  66	1	8	0.181656	-9.63297	1.21555	38.4439
  67	1	8	0.164633	-6.67722	-2.00247	35.9724
  68	1	9	0.430928	-2.64301	1.7707	34.79
  69	1	8	0.141007	-10.6467	-3.29278	43.6651
  70	1	8	0.203537	-9.93999	-5.64057	43.7336
  71	1	8	0.116715	-10.1491	-1.90537	41.7131
  72	1	8	0.18244	-8.12914	-5.25148	39.8321
  73	1	1	-0.155485	-2.3325	8.68851	23.9426
  74	1	2	-0.03785	-1.64502	7.60743	24.5495
  75	1	1	-0.234781	-1.7932	6.32871	22.4407
  76	1	1	0.378053	-2.45901	7.41659	21.8732
  77	1	1	-0.208553	-1.38608	6.43309	23.7886
  78	1	3	-0.411858	-2.04476	6.40435	29.3501
  79	1	1	-0.147234	0.0851547	8.1492	26.3196
  80	1	1	0.107751	-2.71759	8.5437	22.606
  81	1	4	0.626409	-3.31959	8.81386	20.5222
  82	1	2	0.00453	-1.20816	7.66816	25.9673
  83	1	1	0.356173	-0.26259	7.45839	28.6022
  84	1	1	0.030551	-1.52155	7.03565	28.2676
  85	1	1	-0.286062	0.567104	8.05039	27.6456
  86	1	5	-0.595919	0.0662787	7.10102	29.8619
  87	1	1	-0.206338	-2.03273	7.10699	26.9707
  88	1	6	0.462884	-1.0027	6.40192	30.2779
  89	1	3	-0.691987	-3.31013	9.44659	21.7748
  90	1	7	-0.710982	-2.85022	7.55618	20.5914
  91	1	1	-0.062645	0.104757	4.66204	33.4548
  92	1	1	0.026743	-1.03012	5.58153	31.5003
  93	1	1	-0.399843	-0.988339	3.81466	33.6992
  94	1	1	-0.107518	0.0849181	5.5339	32.3572
  95	1	1	0.292439	-2.13383	3.85111	32.8714
  96	1	1	-0.410418	-2.14069	4.75919	31.7928
  97	1	8	0.148547	-2.53909	9.59825	24.4962
  98	1	8	0.179912	-1.57691	5.45187	21.8398
  99	1	8	0.155197	-0.851135	5.60867	24.2553
 100	1	9	0.340258	-2.90617	5.89188	29.4143
 101	1	8	0.137111	0.731853	8.54472	25.5401
 102	1	8	0.181656	1.57479	8.35037	27.9123
 103	1	8	0.164633	-3.00287	6.68964	26.7207
 104	1	9	0.430928	-3.57418	10.3907	21.9781
 105	1	8	0.141007	0.979056	4.63356	34.1019
 106	1	8	0.203537	-0.947263	3.14057	34.5465
 107	1	8	0.116715	0.951173	6.15938	32.1562
 108	1	8	0.18244	-3.01813	4.77733	31.1545
 109	1	1	-0.155485	-2.15738	7.84936	8.96595
 110	1	2	-0.03785	-1.53514	7.32575	10.1337
 111	1	1	-0.234781	0.486479	6.7934	8.81789
 112	1	1	0.378053	-0.168166	7.28428	7.69144
 113	1	1	-0.208553	-0.208932	6.81597	10.0414
 114	1	3	-0.411858	-3.53664	9.368	14.251
 115	1	1	-0.147234	-2.19647	6.07433	12.2111
 116	1	1	0.107751	-1.43276	7.80388	7.76591
 117	1	4	0.626409	-0.676331	7.85318	5.71025
 118	1	2	0.00453	-2.21144	7.28561	11.461
 119	1	1	0.356173	-3.07722	7.21894	14.1298
 120	1	1	0.030551	-3.1528	8.3749	13.3984
 121	1	1	-0.286062	-2.63422	6.0303	13.5508
 122	1	5	-0.595919	-3.35772	7.42578	15.43
 123	1	1	-0.206338	-2.72666	8.46218	12.066
 124	1	6	0.462884	-3.59435	8.74393	15.5028
 125	1	3	-0.691987	-1.78551	8.19665	6.50202
 126	1	7	-0.710982	0.307894	7.29945	6.43685
 127	1	1	-0.062645	-4.22092	11.5327	18.0017
 128	1	1	0.026743	-3.78735	9.46528	16.7762
 129	1	1	-0.399843	-4.02012	10.8636	19.2189
 130	1	1	-0.107518	-4.0851	10.8419	16.7893
 131	1	1	0.292439	-3.68097	9.49111	19.2464
 132	1	1	-0.410418	-3.61172	8.80758	18.0136
 133	1	8	0.148547	-3.1696	8.23775	8.9993
 134	1	8	0.179912	1.49492	6.40305	8.73439
 135	1	8	0.155197	0.280452	6.44222	10.9383
 136	1	9	0.340258	-3.57957	10.3533	14.0677
 137	1	8	0.137111	-1.79314	5.17393	11.7542
 138	1	8	0.181656	-2.56974	5.12604	14.1466
 139	1	8	0.164633	-2.70275	9.41196	11.5425
 140	1	9	0.430928	-2.66945	8.5482	6.18545
 141	1	8	0.141007	-4.45359	12.5955	17.9941
 142	1	8	0.203537	-4.08722	11.4271	20.1419
 143	1	8	0.116715	-4.22045	11.3851	15.8602
 144	1	8	0.18244	-3.34625	7.75105	18.0186
 145	1	1	-0.155485	4.74173	0.832924	0.445731
 146	1	2	-0.03785	3.6735	1.6517	-0.0133118
 147	1	1	-0.234781	2.28369	-0.355019	-0.38503
 148	1	1	0.378053	3.3554	-1.12658	0.055703
 149	1	1	-0.208553	2.45466	1.04099	-0.420147
 150	1	3	-0.411858	2.57118	5.90062	2.16954
 151	1	1	-0.147234	3.53389	3.84831	-1.22759
 152	1	1	0.107751	4.5365	-0.555467	0.450272
 153	1	4	0.626409	4.61787	-2.74078	0.609517
 154	1	2	0.00453	3.70841	3.13808	-0.0057681
 155	1	1	0.356173	2.82406	5.79812	-0.0130768
 156	1	1	0.030551	3.10986	5.15866	1.16576
 157	1	1	-0.286062	3.09534	5.19056	-1.24048
 158	1	5	-0.595919	2.0455	6.8841	0.179993
 159	1	1	-0.206338	3.52707	3.82476	1.21984
 160	1	6	0.462884	1.82555	6.87497	1.50365
 161	1	3	-0.691987	5.3729	-1.57379	0.82261
 162	1	7	-0.710982	3.38614	-2.46496	0.150818
 163	1	1	-0.062645	-1.35167	8.86336	2.07423
 164	1	1	0.026743	0.742189	7.61479	2.17483
 165	1	1	-0.399843	-1.53165	8.69553	3.45997
 166	1	1	-0.107518	-0.215999	8.33515	1.43852
 167	1	1	0.292439	-0.554202	8.03492	4.23754
 168	1	1	-0.410418	0.571862	7.50978	3.5699
 169	1	8	0.148547	5.67802	1.26986	0.776661
 170	1	8	0.179912	1.35413	-0.829729	-0.678986
 171	1	8	0.155197	1.62825	1.67314	-0.738831
 172	1	9	0.340258	2.455	5.63309	3.13096
 173	1	8	0.137111	3.61991	3.30759	-2.16675
 174	1	8	0.181656	2.8332	5.69413	-2.16458
 175	1	8	0.164633	3.54931	3.28516	2.16117
 176	1	9	0.430928	6.33271	-1.5129	1.10686
 177	1	8	0.141007	-2.10282	9.38185	1.48154
 178	1	8	0.203537	-2.42019	9.10114	3.93031
 179	1	8	0.116715	-0.113211	8.4268	0.359932
 180	1	8	0.18244	1.31289	6.98406	4.16278
 181	1	1	-0.155485	-0.878907	-11.6656	-3.19632
 182	1	2	-0.03785	-0.876034	-10.6828	-2.16986
 183	1	1	-0.234781	-3.2972	-10.3091	-2.57434
 184	1	1	0.378053	-3.24508	-11.2595	-3.59643
 185	1	1	-0.208553	-2.10548	-10.0223	-1.86712
 186	1	3	-0.411858	2.37787	-7.38498	-0.252906
 187	1	1	-0.147234	1.42508	-11.2521	-1.21074
 188	1	1	0.107751	-2.077	-11.9147	-3.87307
 189	1	4	0.626409	-3.62984	-12.4503	-5.31777
 190	1	2	0.00453	0.40271	-10.2943	-1.48854
 191	1	1	0.356173	2.86387	-9.527	-0.323795
 192	1	1	0.030551	1.88663	-8.60722	-0.588881
 193	1	1	-0.286062	2.65685	-10.8769	-0.621678
 194	1	5	-0.595919	3.97671	-8.9486	0.184329
 195	1	1	-0.206338	0.65285	-8.93509	-1.15995
 196	1	6	0.462884	3.67393	-7.63907	0.203175
 197	1	3	-0.691987	-2.3017	-12.7132	-4.95266
 198	1	7	-0.710982	-4.22528	-11.596	-4.46479
 199	1	1	-0.062645	6.77298	-5.802	1.42836
 200	1	1	0.026743	4.60152	-6.56271	0.606453
 201	1	1	-0.399843	6.37161	-4.46036	1.29162
 202	1	1	-0.107518	5.89754	-6.84371	1.07751
 203	1	1	0.292439	5.08147	-4.14167	0.81298
 204	1	1	-0.410418	4.21454	-5.21037	0.497371
 205	1	8	0.148547	0.0357285	-12.1681	-3.49071
 206	1	8	0.179912	-4.22569	-9.787	-2.36978
 207	1	8	0.155197	-2.12737	-9.27221	-1.08075
 208	1	9	0.340258	1.93607	-6.48738	-0.343545
 209	1	8	0.137111	1.25407	-12.2975	-1.45182
 210	1	8	0.181656	3.43815	-11.6011	-0.418006
 211	1	8	0.164633	-0.0745969	-8.16296	-1.38582
 212	1	9	0.430928	-1.63833	-13.2734	-5.45216
 213	1	8	0.141007	7.76903	-6.04107	1.7959
 214	1	8	0.203537	7.06667	-3.67083	1.55483
 215	1	8	0.116715	6.2264	-7.87567	1.17197
 216	1	8	0.18244	3.22619	-4.96376	0.125419
 217	1	1	-0.155485	-13.6563	-9.86249	-9.87178
 218	1	2	-0.03785	-13.1892	-10.8694	-8.99166
 219	1	1	-0.234781	-15.3234	-10.7359	-7.74224
 220	1	1	0.378053	-15.745	-9.74199	-8.63161
 221	1	1	-0.208553	-14.0312	-11.2888	-7.92049
 222	1	3	-0.411858	-8.46113	-12.0568	-7.73239
 223	1	1	-0.147234	-11.5032	-11.9882	-10.4939
 224	1	1	0.107751	-14.9218	-9.32487	-9.64049
 225	1	4	0.626409	-16.781	-8.18258	-9.64607
 226	1	2	0.00453	-11.8399	-11.4621	-9.21364
 227	1	1	0.356173	-9.28536	-12.5078	-9.72444
 228	1	1	0.030551	-9.58924	-11.9769	-8.4993
 229	1	1	-0.286062	-10.2262	-12.528	-10.7547
 230	1	5	-0.595919	-8.02252	-12.9704	-9.77379
 231	1	1	-0.206338	-10.8552	-11.4613	-8.18934
 232	1	6	0.462884	-7.52729	-12.6944	-8.55699
 233	1	3	-0.691987	-15.5536	-8.32389	-10.3052
 234	1	7	-0.710982	-16.9146	-9.06245	-8.63566
 235	1	1	-0.062645	-4.05844	-14.1969	-8.67729
 236	1	1	0.026743	-6.15071	-13.0472	-8.15551
 237	1	1	-0.399843	-3.51963	-13.7874	-7.45018
 238	1	1	-0.107518	-5.35516	-13.8104	-9.03246
 239	1	1	0.292439	-4.26233	-12.9766	-6.56041
 240	1	1	-0.410418	-5.59043	-12.6424	-6.91939
 241	1	8	0.148547	-13.0355	-9.50404	-10.686
 242	1	8	0.179912	-15.9782	-11.0534	-6.93774
 243	1	8	0.155197	-13.6812	-12.066	-7.24498
 244	1	9	0.340258	-8.33073	-11.7715	-6.77799
 245	1	8	0.137111	-12.2529	-11.9889	-11.281
 246	1	8	0.181656	-9.96442	-12.9435	-11.7218
 247	1	8	0.164633	-11.0722	-11.0441	-7.21133
 248	1	9	0.430928	-15.2312	-7.81602	-11.1041
 249	1	8	0.141007	-3.47102	-14.8035	-9.36361
 250	1	8	0.203537	-2.50524	-14.0813	-7.20904
 251	1	8	0.116715	-5.75326	-14.1297	-9.9924
 252	1	8	0.18244	-6.16315	-12.0205	-6.23795
 253	1	1	-0.155485	-14.3958	-1.15579	-16.8278
 254	1	2	-0.03785	-15.0468	-0.329903	-15.8678
 255	1	1	-0.234781	-14.1397	1.66747	-17.0128
 256	1	1	0.378053	-13.5687	0.820753	-17.9635
 257	1	1	-0.208553	-14.8769	1.08302	-15.9602
 258	1	3	-0.411858	-16.7104	-3.95119	-12.8144
 259	1	1	-0.147234	-17.1951	-0.257063	-14.5143
 260	1	1	0.107751	-13.6604	-0.538548	-17.8457
 261	1	4	0.626409	-12.6574	0.0140516	-19.7086
 262	1	2	0.00453	-15.9818	-0.925257	-14.8616
 263	1	1	0.356173	-17.8843	-2.12466	-13.1597
 264	1	1	0.030551	-16.7053	-2.75249	-13.4565
 265	1	1	-0.286062	-18.1559	-0.853305	-13.6666
 266	1	5	-0.595919	-18.6703	-2.87941	-12.3631
 267	1	1	-0.206338	-15.7333	-2.20574	-14.3003
 268	1	6	0.462884	-17.9392	-3.98432	-12.1483
 269	1	3	-0.691987	-13.0376	-1.09097	-18.9312
 270	1	7	-0.710982	-12.9564	1.17891	-19.1072
 271	1	1	-0.062645	-19.9701	-6.07753	-9.72418
 272	1	1	0.026743	-18.3486	-5.08711	-11.2583
 273	1	1	-0.399843	-19.0506	-7.08717	-9.39655
 274	1	1	-0.107518	-19.6128	-5.07622	-10.639
 275	1	1	0.292439	-17.7827	-7.14381	-10.0108
 276	1	1	-0.410418	-17.464	-6.15003	-10.9662
 277	1	8	0.148547	-14.5257	-2.23173	-16.8187
 278	1	8	0.179912	-14.0471	2.74274	-17.1211
 279	1	8	0.155197	-15.3502	1.72946	-15.2252
 280	1	9	0.340258	-15.9884	-4.64553	-12.7934
 281	1	8	0.137111	-17.4122	0.715417	-14.9476
 282	1	8	0.181656	-19.09	-0.358993	-13.422
 283	1	8	0.164633	-14.8195	-2.74543	-14.5222
 284	1	9	0.430928	-13.0451	-2.0498	-19.2252
 285	1	8	0.141007	-20.9501	-6.05253	-9.2518
 286	1	8	0.203537	-19.3155	-7.84396	-8.66082
 287	1	8	0.116715	-20.3193	-4.27972	-10.86
 288	1	8	0.18244	-16.4842	-6.15926	-11.4209
 289	1	1	-0.155485	-4.6443	-3.39355	-26.577
 290	1	2	-0.03785	-5.68535	-4.36246	-26.6066
 291	1	1	-0.234781	-4.01684	-6.13317	-27.0093
 292	1	1	0.378053	-3.0211	-5.16166	-26.9057
 293	1	1	-0.208553	-5.35849	-5.72074	-26.8743
 294	1	3	-0.411858	-9.01021	-2.52898	-23.3633
 295	1	1	-0.147234	-8.21148	-4.45382	-26.9001
 296	1	1	0.107751	-3.32984	-3.83541	-26.7642
 297	1	4	0.626409	-1.1902	-4.16589	-26.5009
 298	1	2	0.00453	-7.06746	-4.02362	-26.1676
 299	1	1	0.356173	-9.66267	-3.51567	-25.2202
 300	1	1	0.030551	-8.5675	-3.16293	-24.484
 301	1	1	-0.286062	-9.52057	-4.17838	-26.4422
 302	1	5	-0.595919	-10.7964	-3.04305	-24.6659
 303	1	1	-0.206338	-7.25763	-3.3605	-24.9279
 304	1	6	0.462884	-10.3985	-2.47563	-23.5156
 305	1	3	-0.691987	-2.15546	-3.15428	-26.6018
 306	1	7	-0.710982	-1.70353	-5.38236	-26.7533
 307	1	1	-0.062645	-11.4845	1.0791	-23.171
 308	1	1	0.026743	-11.0941	-1.31366	-22.9588
 309	1	1	-0.399843	-11.9596	1.11236	-21.8535
 310	1	1	-0.107518	-11.0684	-0.13554	-23.7226
 311	1	1	0.292439	-12.0602	-0.059841	-21.0715
 312	1	1	-0.410418	-11.5855	-1.27217	-21.6333
 313	1	8	0.148547	-4.85648	-2.35353	-26.3528
 314	1	8	0.179912	-3.74566	-7.17942	-27.0968
 315	1	8	0.155197	-6.1479	-6.46864	-26.8646
 316	1	9	0.340258	-8.47349	-1.93692	-22.7533
 317	1	8	0.137111	-8.07124	-4.98025	-27.841
 318	1	8	0.181656	-10.3989	-4.45842	-27.0138
 319	1	8	0.164633	-6.40848	-3.04833	-24.3291
 320	1	9	0.430928	-2.0258	-2.18434	-26.379
 321	1	8	0.141007	-11.4266	1.99146	-23.7606
 322	1	8	0.203537	-12.2968	2.05803	-21.4343
 323	1	8	0.116715	-10.6591	-0.156845	-24.7299
 324	1	8	0.18244	-11.5902	-2.1831	-21.0441
 325	1	1	-0.155485	6.63146	4.25604	-23.0945
 326	1	2	-0.03785	6.58677	3.08325	-23.8966
 327	1	1	-0.234781	9.03148	3.2142	-24.2096
 328	1	1	0.378053	9.02661	4.38039	-23.4473
 329	1	1	-0.208553	7.80234	2.55901	-24.4178
 330	1	3	-0.411858	3.8335	-1.02185	-24.3009
 331	1	1	-0.147234	4.26859	2.99238	-24.9618
 332	1	1	0.107751	7.88038	4.85694	-22.8755
 333	1	4	0.626409	9.59032	6.15148	-22.4079
 334	1	2	0.00453	5.31694	2.37307	-24.219
 335	1	1	0.356173	3.09112	0.88431	-25.1095
 336	1	1	0.030551	4.09664	0.303895	-24.3862
 337	1	1	-0.286062	3.14776	2.25021	-25.4141
 338	1	5	-0.595919	2.15922	-0.0263075	-25.4837
 339	1	1	-0.206338	5.2174	0.992894	-23.9258
 340	1	6	0.462884	2.64035	-1.18841	-25.0036
 341	1	3	-0.691987	8.2212	5.96564	-22.1438
 342	1	7	-0.710982	10.078	5.17377	-23.1921
 343	1	1	-0.062645	2.20457	-4.94748	-24.9947
 344	1	1	0.026743	2.02544	-2.51699	-25.1979
 345	1	1	-0.399843	0.961252	-5.09083	-25.6186
 346	1	1	-0.107518	2.723	-3.66803	-24.7737
 347	1	1	0.292439	0.196054	-3.96756	-26.0001
 348	1	1	-0.410418	0.75704	-2.68207	-25.802
 349	1	8	0.148547	5.72578	4.66392	-22.6685
 350	1	8	0.179912	9.95922	2.84762	-24.6345
 351	1	8	0.155197	7.7733	1.65891	-25.0274
 352	1	9	0.340258	4.3624	-1.72705	-23.8218
 353	1	8	0.137111	4.36486	4.03988	-25.237
 354	1	8	0.181656	2.37168	2.70276	-26.0221
 355	1	8	0.164633	6.0095	0.483728	-23.3867
 356	1	9	0.430928	7.68347	6.37921	-21.3983
 357	1	8	0.141007	2.7607	-5.82535	-24.6721
 358	1	8	0.203537	0.545963	-6.08724	-25.7566
 359	1	8	0.116715	3.69337	-3.58764	-24.2967
 360	1	8	0.18244	0.21168	-1.79713	-26.1157
 361	1	1	-0.155485	12.1954	10.9052	-12.4528
 362	1	2	-0.03785	11.4156	10.2335	-13.4527
 363	1	1	-0.234781	10.7798	8.54904	-11.7418
 364	1	1	0.378053	11.5312	9.25156	-10.8118
 365	1	1	-0.208553	10.7404	9.03454	-13.0592
 366	1	3	-0.411858	10.0153	9.69163	-18.2453
 367	1	1	-0.147234	12.2798	11.6408	-15.4255
 368	1	1	0.107751	12.2327	10.3718	-11.1519
 369	1	4	0.626409	12.5806	9.80773	-9.05122
 370	1	2	0.00453	11.358	10.6827	-14.898
 371	1	1	0.356173	11.5282	11.1966	-17.6721
 372	1	1	0.030551	10.5703	10.3555	-17.1849
 373	1	1	-0.286062	12.367	11.9054	-16.8114
 374	1	5	-0.595919	11.674	11.0576	-19.0015
 375	1	1	-0.206338	10.452	10.0732	-15.8217
 376	1	6	0.462884	10.8293	10.0612	-19.3185
 377	1	3	-0.691987	12.9323	10.7592	-10.0311
 378	1	7	-0.710982	11.7099	8.90885	-9.53278
 379	1	1	-0.062645	12.5041	8.57379	-22.3244
 380	1	1	0.026743	10.9761	9.25414	-20.5489
 381	1	1	-0.399843	11.6969	7.46532	-22.5895
 382	1	1	-0.107518	12.1272	9.47663	-21.3304
 383	1	1	0.292439	10.4563	7.27571	-21.9417
 384	1	1	-0.410418	10.1094	8.17998	-20.9008
 385	1	8	0.148547	12.7585	11.8023	-12.6774
 386	1	8	0.179912	10.2781	7.63476	-11.4452
 387	1	8	0.155197	10.1987	8.43597	-13.7771
 388	1	9	0.340258	9.44068	8.87061	-18.215
 389	1	8	0.137111	12.998	12.1239	-14.7731
 390	1	8	0.181656	13.1365	12.5515	-17.2206
 391	1	8	0.164633	9.71665	9.34729	-15.5111
 392	1	9	0.430928	13.5932	11.5072	-9.93899
 393	1	8	0.141007	13.4335	8.72194	-22.8696
 394	1	8	0.203537	12.0051	6.76874	-23.3658
 395	1	8	0.116715	12.7996	10.2992	-21.1019
 396	1	8	0.18244	9.1973	8.01089	-20.3403
 397	1	1	-0.155485	11.7048	0.528182	-4.11929
 398	1	2	-0.03785	12.1957	1.46366	-3.17508
 399	1	1	-0.234781	13.5852	-0.35478	-2.1994
 400	1	1	0.378053	13.1077	-1.22186	-3.19238
 401	1	1	-0.208553	13.1298	0.9936	-2.20027
 402	1	3	-0.411858	13.3168	6.31991	-3.94346
 403	1	1	-0.147234	10.6174	3.21882	-4.04846
 404	1	1	0.107751	12.1655	-0.778018	-4.07485
 405	1	4	0.626409	13.0499	-2.61711	-4.79142
 406	1	2	0.00453	11.8514	2.90798	-3.40039
 407	1	1	0.356173	11.3937	5.42796	-4.53924
 408	1	1	0.030551	12.5214	5.21035	-3.7939
 409	1	1	-0.286062	10.3931	4.46928	-4.64901
 410	1	5	-0.595919	11.4585	6.57064	-5.23469
 411	1	1	-0.206338	12.8101	3.95212	-3.23395
 412	1	6	0.462884	12.649	7.09001	-4.90744
 413	1	3	-0.691987	12.0306	-1.70187	-5.0475
 414	1	7	-0.710982	13.6145	-2.42123	-3.58236
 415	1	1	-0.062645	14.7728	10.1072	-5.90602
 416	1	1	0.026743	13.1956	8.26751	-5.61625
 417	1	1	-0.399843	14.1963	10.4325	-7.15188
 418	1	1	-0.107518	14.3064	9.00374	-5.1646
 419	1	1	0.292439	13.1329	9.6595	-7.67073
 420	1	1	-0.410418	12.6204	8.63724	-6.84673
 421	1	8	0.148547	11.0784	0.834793	-4.94815
 422	1	8	0.179912	14.3643	-0.692233	-1.52424
 423	1	8	0.155197	13.5467	1.69572	-1.48316
 424	1	9	0.340258	14.2576	6.4507	-3.61932
 425	1	8	0.137111	9.8603	2.44972	-4.1702
 426	1	8	0.181656	9.51223	4.6697	-5.2497
 427	1	8	0.164633	13.7799	3.75057	-2.79229
 428	1	9	0.430928	11.46	-1.65331	-5.86836
 429	1	8	0.141007	15.6059	10.6935	-5.52308
 430	1	8	0.203537	14.6074	11.2503	-7.7334
 431	1	8	0.116715	14.7758	8.75793	-4.21708
 432	1	8	0.18244	11.7909	8.04281	-7.22385
 433	1	1	-0.155485	12.8029	1.98667	-13.7394
 434	1	2	-0.03785	13.9903	1.2001	-13.6961
 435	1	1	-0.234781	15.0674	2.76944	-15.27
 436	1	1	0.378053	13.8553	3.44963	-15.3534
 437	1	1	-0.208553	15.1302	1.64393	-14.427
 438	1	3	-0.411858	13.1614	-1.92327	-9.86021
 439	1	1	-0.147234	14.7787	-1.20736	-13.5448
 440	1	1	0.107751	12.787	3.12311	-14.5612
 441	1	4	0.626409	12.1626	4.37311	-16.2206
 442	1	2	0.00453	14.0392	-0.118537	-12.9892
 443	1	1	0.356173	14.3196	-2.56447	-11.6119
 444	1	1	0.030551	13.5559	-1.54771	-11.1047
 445	1	1	-0.286062	14.928	-2.43396	-12.8601
 446	1	5	-0.595919	14.4717	-3.57507	-10.7282
 447	1	1	-0.206338	13.3893	-0.312855	-11.7434
 448	1	6	0.462884	13.8088	-3.14532	-9.64404
 449	1	3	-0.691987	11.7078	3.84504	-15.0033
 450	1	7	-0.710982	13.4902	4.24581	-16.3678
 451	1	1	-0.062645	15.057	-5.23765	-6.73754
 452	1	1	0.026743	13.9109	-3.75792	-8.30434
 453	1	1	-0.399843	14.5062	-4.52858	-5.65378
 454	1	1	-0.107518	14.7704	-4.84411	-8.05625
 455	1	1	0.292439	13.5773	-3.49233	-5.87156
 456	1	1	-0.410418	13.2533	-3.16343	-7.2085
 457	1	8	0.148547	11.9001	1.6556	-13.2391
 458	1	8	0.179912	15.8858	3.03736	-15.9298
 459	1	8	0.155197	16.0497	1.06506	-14.393
 460	1	9	0.340258	12.7382	-1.34443	-9.16054
 461	1	8	0.137111	15.2586	-1.08712	-14.5126
 462	1	8	0.181656	15.5352	-3.24081	-13.2561
 463	1	8	0.164633	12.8378	0.493639	-11.2723
 464	1	9	0.430928	10.7471	3.65476	-14.7903
 465	1	8	0.141007	15.7605	-6.04859	-6.56033
 466	1	8	0.203537	14.7921	-4.77671	-4.63396
 467	1	8	0.116715	15.2785	-5.33315	-8.88384
 468	1	8	0.18244	12.6011	-2.32379	-7.39601
 469	1	1	-0.155485	2.88693	10.1821	-19.1143
 470	1	2	-0.03785	2.90262	9.01816	-18.3015
 471	1	1	-0.234781	0.774267	9.72774	-17.2687
 472	1	1	0.378053	0.795615	10.8635	-18.0836
 473	1	1	-0.208553	1.83929	8.80389	-17.3811
 474	1	3	-0.411858	7.02582	6.19479	-17.4334
 475	1	1	-0.147234	3.85106	7.30049	-19.8186
 476	1	1	0.107751	1.8258	11.0768	-18.9607
 477	1	4	0.626409	0.344408	12.655	-19.1107
 478	1	2	0.00453	3.91283	7.95971	-18.563
 479	1	1	0.356173	5.81869	6.05232	-19.2737
 480	1	1	0.030551	5.87769	6.64425	-18.0411
 481	1	1	-0.286062	4.80556	6.33911	-20.1839
 482	1	5	-0.595919	6.89666	5.29944	-19.5188
 483	1	1	-0.206338	4.94373	7.61588	-17.6411
 484	1	6	0.462884	7.64161	5.3965	-18.4099
 485	1	3	-0.691987	1.56037	12.2288	-19.6405
 486	1	7	-0.710982	-0.13468	11.8383	-18.1655
 487	1	1	-0.062645	10.9102	4.11701	-19.7443
 488	1	1	0.026743	9.02644	4.87594	-18.3808
 489	1	1	-0.399843	11.7693	4.31779	-18.6637
 490	1	1	-0.107518	9.54489	4.34187	-19.5784
 491	1	1	0.292439	11.2636	4.61193	-17.3795
 492	1	1	-0.410418	9.88493	4.93505	-17.2531
 493	1	8	0.148547	3.66108	10.3553	-19.8546
 494	1	8	0.179912	-0.0640434	9.56032	-16.6007
 495	1	8	0.155197	1.81994	7.88549	-16.7992
 496	1	9	0.340258	7.39963	6.46325	-16.5407
 497	1	8	0.137111	3.05519	7.55698	-20.5146
 498	1	8	0.181656	4.77276	5.85398	-21.1495
 499	1	8	0.164633	5.02067	8.12286	-16.6843
 500	1	9	0.430928	2.10793	12.6822	-20.3489
 501	1	8	0.141007	11.2927	3.76746	-20.7027
 502	1	8	0.203537	12.824	4.07856	-18.7859
 503	1	8	0.116715	8.89786	4.15306	-20.4263
 504	1	8	0.18244	9.49856	5.23917	-16.2868
 505	1	8	0	-4.35392	-20.3531	46.2188
 506	1	10	0	-0.133575	13.5619	-19.4575

Velocities

   1	0.000596255	0.000491239	0.000285824
   2	0.000665235	0.000580177	0.000319631
   3	0.00041259	0.000811847	0.000226893
   4	0.000483022	0.000647447	0.000391321
   5	0.000605509	0.00070056	0.000178319
   6	0.000523791	0.000366034	-0.000245784
   7	5.35413e-06	0.000340564	0.000611643
   8	0.000588159	0.000571966	0.000388979
   9	-0.00012712	0.000401556	0.000423747
  10	0.000623836	0.000508801	0.000338972
  11	9.25055e-05	-4.6733e-05	0.000374469
  12	0.000557009	0.000411171	9.43619e-05
  13	-0.000227742	-3.09149e-05	0.000411212
  14	-0.000207406	-0.000386536	5.57194e-05
  15	0.00092905	0.000565085	-4.88689e-05
  16	1.42611e-05	-0.000123777	-0.000171701
  17	0.000284157	0.000297795	0.000525751
  18	0.000115237	0.000701839	0.000441646
  19	0.000425373	-0.000716185	-0.000508921
  20	-0.000163752	-0.000536857	-0.000608952
  21	8.66305e-05	-0.00068628	-0.000514253
  22	0.000252533	-0.000720665	-0.000615949
  23	-0.000608326	-0.000543878	-0.000644992
  24	-0.000638273	-0.000609551	-0.000643057
  25	0.000445617	0.00033107	0.000285978
  26	0.000182043	0.000765294	0.000153761
  27	0.000562363	0.000745588	-1.01167e-05
  28	0.00142283	0.00077383	-0.000670822
  29	-0.000281684	0.000178357	0.000664948
  30	-0.000706989	-7.14998e-05	0.000786033
  31	0.00138605	0.000691217	-0.000167534
  32	0.000152069	0.000308496	0.000613676
  33	0.000907982	-0.000603573	-0.000469027
  34	0.000212302	-0.000597571	-0.000720648
  35	0.000650047	-0.000540109	-0.000442444
  36	-0.00110044	-0.000782497	-0.00036079
  37	-8.79894e-05	0.000485277	0.00115955
  38	2.01159e-07	0.000131145	0.000604062
  39	0.000610938	-0.000948596	-9.47429e-05
  40	0.000468706	-0.000524003	0.000448132
  41	0.000337596	-0.000592663	-1.17116e-05
  42	0.000429919	0.00030163	0.000727964
  43	-0.00102009	-0.000184487	-0.000127265
  44	0.000163988	0.000181242	0.00108643
  45	0.000363051	-0.000240461	0.000649539
  46	-0.000293323	0.000109143	0.000360546
  47	-0.000480549	-6.57475e-05	0.000148209
  48	0.000123204	0.000185873	0.000526314
  49	-0.00111252	-0.000264408	-0.00020212
  50	-0.000648576	-0.000133862	8.66771e-06
  51	0.000203487	0.000297214	0.000619331
  52	-0.000245585	6.42356e-05	0.000273543
  53	6.74074e-05	0.00043326	0.00129988
  54	0.000571806	-0.000789492	0.000246617
  55	-0.00181802	-7.26984e-05	-0.000403054
  56	-0.000740529	6.13227e-05	9.3494e-05
  57	-0.0014055	4.57631e-05	-0.000107897
  58	-0.0014184	-6.49348e-05	-0.000302414
  59	-0.000774813	0.000231506	0.000276636
  60	-0.000493096	0.00016216	0.000301047
  61	-0.000414919	0.000928737	0.00156172
  62	0.000877073	-0.00159495	-0.000695346
  63	0.000399727	-0.000972425	-0.000499054
  64	0.000776474	0.000445883	0.000885761
  65	-0.00155612	-0.000336214	-0.000385592
  66	-0.00172408	-0.000545053	-0.000529045
  67	0.000640581	0.000571517	0.000868179
  68	-0.000284409	0.00122248	0.00198329
  69	-0.00229446	-0.000140972	-0.000737309
  70	-0.00161502	4.34956e-05	-0.000134455
  71	-0.00153197	-0.000141721	-0.000456269
  72	7.71368e-05	0.000216373	0.000652546
  73	0.000621151	0.000341663	-0.000419731
  74	-0.000292467	-0.000129186	-0.000266858
  75	-0.000667158	-8.27417e-05	-0.000257806
  76	0.000287825	0.00041997	-0.000418173
  77	-0.00101457	-0.000387663	-0.000134093
  78	0.000389691	-0.0012957	-0.000514768
  79	-0.000617743	0.000460988	-0.000213069
  80	0.000796721	0.000558295	-0.000454303
  81	0.00087686	0.000800846	-0.000372245
  82	-0.000338471	-0.000202374	-0.000272023
  83	-0.000178993	-0.000189734	-0.000319608
  84	3.52685e-05	-0.000792805	-0.000400319
  85	-0.000562574	0.0005518	-0.000224382
  86	5.25256e-06	-0.000320227	-0.000387441
  87	-4.52957e-05	-0.000759937	-0.000364025
  88	0.000321747	-0.000853096	-0.000434792
  89	0.00132306	0.000874202	-0.000440988
  90	0.000519706	0.000663875	-0.000438688
  91	0.000488029	-0.000310348	-0.000110163
  92	0.000425308	-0.000716463	-0.000281212
  93	0.000466696	-0.000203283	0.000187956
  94	0.000439324	-0.000528958	-0.000293393
  95	0.000393032	-0.000348712	0.000287963
  96	0.00041075	-0.000629222	2.21624e-05
  97	0.00110004	0.000490149	-0.00049874
  98	-0.00123264	-0.000280201	-0.000187192
  99	-0.0017826	-0.000788199	3.00635e-05
 100	0.000652037	-0.00175156	-0.000617791
 101	-0.00083599	0.000837944	-0.000216587
 102	-0.000748338	0.00118281	-0.000238784
 103	0.000148301	-0.00115377	-0.000450859
 104	0.00172673	0.00097852	-0.000417942
 105	0.000536678	-0.000256318	-0.000192491
 106	0.000572797	-0.000114371	0.000248269
 107	0.000445254	-0.000578927	-0.000441138
 108	0.000271567	-0.000593399	0.000210525
 109	0.000560001	0.000671157	0.000408303
 110	5.92302e-05	-0.000377094	0.0002104
 111	-0.000346626	-0.00154039	5.24627e-05
 112	7.18626e-05	-0.00060639	0.000218594
 113	-0.000356151	-0.00143236	3.48348e-05
 114	-0.00031684	0.00014159	-0.000227499
 115	0.000359188	-3.11774e-05	0.000497942
 116	0.000542043	0.000491723	0.000406731
 117	0.00050192	0.000385767	0.000409951
 118	1.23646e-05	-0.000212923	0.000191888
 119	0.000265848	0.000232656	0.000229621
 120	-0.000206988	3.16807e-05	-5.49807e-05
 121	0.000483719	0.000202434	0.000521596
 122	0.000597001	0.000493336	0.000230176
 123	-0.000344649	-0.000198347	-0.000112127
 124	0.000175004	0.000421122	-6.6179e-05
 125	0.000868506	0.00122765	0.000552515
 126	4.97248e-05	-0.000676677	0.000202043
 127	-0.0010379	0.000306107	-0.000222648
 128	6.27619e-05	0.000513649	-0.000163366
 129	-0.000317946	0.000531241	-0.000211121