pySIMM System Object

1082 atoms
1231 bonds
2040 angles
3236 dihedrals
360 impropers

10 atom types
15 bond types
26 angle types
12 dihedral types
2 improper types

-154.853818 154.853818 xlo xhi
-154.853818 154.853818 ylo yhi
-154.853818 154.853818 zlo zhi

Masses

   1	12.01	# ca
   2	12.01	# cp
   3	14.01	# na
   4	12.01	# cc
   5	14.01	# nc
   6	12.01	# cd
   7	14.01	# nd
   8	1.008	# ha
   9	1.008	# hn
  10	1.008	# h5

Pair Coeffs

   1	0.086	3.3996695084235347	# ca
   2	0.086	3.3996695084235347	# cp
   3	0.17	3.249998523775958	# na
   4	0.086	3.3996695084235347	# cc
   5	0.17	3.249998523775958	# nc
   6	0.086	3.3996695084235347	# cd
   7	0.17	3.249998523775958	# nd
   8	0.015	2.59964245953351	# ha
   9	0.0157	1.069078461768407	# hn
  10	0.015	2.421462715905442	# h5

Bond Coeffs

   1	425.8	1.3802	# cd,na
   2	525.4	1.3172	# cc,nd
   3	345.8	1.086	# ca,ha
   4	351.4	1.4854	# cp,cp
   5	467.7	1.3517	# ca,nc
   6	385.1	1.4555	# ca,cd
   7	467.7	1.3517	# ca,nd
   8	525.4	1.3172	# cd,nc
   9	450.2	1.4058	# ca,cp
  10	425.8	1.3802	# cc,na
  11	420.5	1.384	# ca,na
  12	351.7	1.0819	# cc,h5
  13	461.1	1.3984	# ca,ca
  14	408.4	1.01	# hn,na
  15	385.1	1.4555	# ca,cc

Angle Coeffs

   1	48.18	119.88	# ca,ca,ha
   2	66.28	123.45	# ca,cd,na
   3	64.05	121.11	# ca,cp,cp
   4	46.75	125.5	# cc,na,hn
   5	67.6	123.24	# ca,cd,nc
   6	46.75	125.5	# cd,na,hn
   7	72.48	104.88	# ca,nc,cd
   8	74.9	112.22	# na,cd,nc
   9	66.62	120.02	# ca,ca,ca
  10	46.63	125.54	# ca,na,hn
  11	65.02	120.79	# ca,ca,cd
  12	47.98	119.86	# cp,ca,ha
  13	69.46	119.72	# ca,ca,nc
  14	72.48	104.88	# ca,nd,cc
  15	69.08	118.34	# ca,ca,na
  16	66.72	118.38	# ca,cp,ca
  17	69.46	119.72	# ca,ca,nd
  18	74.9	112.22	# na,cc,nd
  19	67.4	113.15	# ca,na,cc
  20	66.26	120.69	# ca,ca,cp
  21	50.58	125.52	# h5,cc,nd
  22	67.4	113.15	# ca,na,cd
  23	49.58	121.55	# h5,cc,na
  24	66.28	123.45	# ca,cc,na
  25	67.6	123.24	# ca,cc,nd
  26	65.02	120.79	# ca,ca,cc

Dihedral Coeffs

   1	1	4.8	2	180	# X,ca,nc,X
   2	1	4.8	2	180	# X,ca,nd,X
   3	1	4.0	2	180	# X,ca,cd,X
   4	1	4.75	2	180	# X,cd,nc,X
   5	1	4.75	2	180	# X,cc,nd,X
   6	1	1.7	2	180	# X,cc,na,X
   7	1	1.0	2	180	# X,cp,cp,X
   8	1	3.625	2	180	# X,ca,cp,X
   9	1	0.3	2	180	# X,ca,na,X
  10	1	1.7	2	180	# X,cd,na,X
  11	1	3.625	2	180	# X,ca,ca,X
  12	1	4.0	2	180	# X,ca,cc,X

Improper Coeffs

   1	1.1	-1	2	# na,X,X,hn
   2	1.1	-1	2	# ca,X,X,ha

Atoms

   1	1	1	-0.155485	54.0499	-2.02852	-49.5684
   2	1	2	-0.03785	54.5252	-2.42971	-50.8466
   3	1	1	-0.234781	52.1958	-2.36475	-51.6948
   4	1	1	0.378053	51.7738	-1.97657	-50.4217
   5	1	1	-0.208553	53.5772	-2.58584	-51.902
   6	1	3	-0.411858	58.7753	-2.55614	-53.5418
   7	1	1	-0.147234	56.77	-3.30794	-50.0418
   8	1	1	0.107751	52.6784	-1.81086	-49.4099
   9	1	4	0.626409	50.6493	-1.38588	-48.7141
  10	1	2	0.00453	55.9801	-2.7086	-51.0688
  11	1	1	0.356173	58.7039	-3.31215	-51.477
  12	1	1	0.030551	57.9598	-2.722	-52.4619
  13	1	1	-0.286062	58.1343	-3.61626	-50.24
  14	1	5	-0.595919	59.9691	-3.5534	-51.8761
  15	1	1	-0.206338	56.6038	-2.40856	-52.3113
  16	1	6	0.462884	59.9997	-3.09903	-53.1392
  17	1	3	-0.691987	51.9886	-1.42481	-48.3005
  18	1	7	-0.710982	50.5129	-1.72485	-50.0096
  19	1	1	-0.062645	63.5058	-3.8969	-54.3524
  20	1	1	0.026743	61.1871	-3.18422	-54.011
  21	1	1	-0.399843	63.4716	-3.39537	-55.6627
  22	1	1	-0.107518	62.3701	-3.78726	-53.5349
  23	1	1	0.292439	62.3092	-2.78716	-56.153
  24	1	1	-0.410418	61.1748	-2.68373	-55.3347
  25	1	8	0.148547	54.7318	-1.88146	-48.7381
  26	1	8	0.179912	51.4681	-2.49761	-52.4878
  27	1	8	0.155197	53.917	-2.9144	-52.8806
  28	1	9	0.340258	58.5532	-2.16733	-54.4398
  29	1	8	0.137111	56.3067	-3.56813	-49.0944
  30	1	8	0.181656	58.7321	-4.09258	-49.4708
  31	1	8	0.164633	56.0477	-1.94147	-53.1167
  32	1	9	0.430928	52.3476	-1.22538	-47.3864
  33	1	8	0.141007	64.4057	-4.37158	-53.9674
  34	1	8	0.203537	64.3443	-3.47574	-56.3031
  35	1	8	0.116715	62.4083	-4.18327	-52.5231
  36	1	8	0.18244	60.2908	-2.20952	-55.7431
  37	1	1	-0.155485	40.7159	-1.67268	-52.2077
  38	1	2	-0.03785	40.6113	-1.93984	-50.8154
  39	1	1	-0.234781	38.5117	-3.18529	-51.2335
  40	1	1	0.378053	38.6512	-2.89701	-52.5911
  41	1	1	-0.208553	39.4963	-2.69626	-50.3476
  42	1	3	-0.411858	45.3171	-1.15736	-49.2208
  43	1	1	-0.147234	41.269	-0.973317	-48.5673
  44	1	1	0.107751	39.7107	-2.16219	-53.0486
  45	1	4	0.626409	38.394	-2.74235	-54.6957
  46	1	2	0.00453	41.6491	-1.45887	-49.8531
  47	1	1	0.356173	43.5779	-0.678165	-47.9589
  48	1	1	0.030551	43.9532	-1.1258	-49.197
  49	1	1	-0.286062	42.2301	-0.575242	-47.6131
  50	1	5	-0.595919	44.641	-0.420527	-47.1724
  51	1	1	-0.206338	43.0325	-1.52277	-50.1746
  52	1	6	0.462884	45.6948	-0.734208	-47.9425
  53	1	3	-0.691987	39.5698	-2.03678	-54.4
  54	1	7	-0.710982	37.8316	-3.2694	-53.5936
  55	1	1	-0.062645	48.6703	-0.263924	-45.6493
  56	1	1	0.026743	47.0902	-0.679316	-47.4658
  57	1	1	-0.399843	49.7372	-0.627286	-46.4841
  58	1	1	-0.107518	47.3591	-0.289148	-46.1396
  59	1	1	0.292439	49.5133	-1.01124	-47.8266
  60	1	1	-0.410418	48.1799	-1.02938	-48.2973
  61	1	8	0.148547	41.5395	-1.08934	-52.6042
  62	1	8	0.179912	37.6679	-3.77257	-50.8879
  63	1	8	0.155197	39.4146	-2.92595	-49.2879
  64	1	9	0.340258	45.9235	-1.48199	-49.9526
  65	1	8	0.137111	40.2143	-0.909442	-48.313
  66	1	8	0.181656	41.9472	-0.221732	-46.6276
  67	1	8	0.164633	43.3663	-1.91514	-51.129
  68	1	9	0.430928	40.1629	-1.54731	-55.0425
  69	1	8	0.141007	48.8528	0.0349706	-44.619
  70	1	8	0.203537	50.7428	-0.599442	-46.0821
  71	1	8	0.116715	46.5424	-0.0130549	-45.4771
  72	1	8	0.18244	48.0073	-1.33023	-49.3258
  73	1	1	-0.155485	29.2992	-8.91728	-57.7394
  74	1	2	-0.03785	29.8757	-7.86051	-56.9832
  75	1	1	-0.234781	28.2418	-8.30595	-55.1733
  76	1	1	0.378053	27.7055	-9.33105	-55.954
  77	1	1	-0.208553	29.3335	-7.57461	-55.6941
  78	1	3	-0.411858	34.1545	-5.2424	-56.6622
  79	1	1	-0.147234	31.102	-6.77726	-58.9295
  80	1	1	0.107751	28.2279	-9.62071	-57.1835
  81	1	4	0.626409	26.558	-10.9518	-56.7183
  82	1	2	0.00453	31.0174	-7.06404	-57.5338
  83	1	1	0.356173	33.1476	-5.55143	-58.5933
  84	1	1	0.030551	33.0758	-5.82522	-57.2546
  85	1	1	-0.286062	32.1655	-6.01894	-59.468
  86	1	5	-0.595919	34.23	-4.8061	-58.8988
  87	1	1	-0.206338	32.0393	-6.5681	-56.6796
  88	1	6	0.462884	34.8314	-4.61727	-57.713
  89	1	3	-0.691987	27.519	-10.6649	-57.6986
  90	1	7	-0.710982	26.6697	-10.1384	-55.653
  91	1	1	-0.062645	37.8643	-2.47148	-58.4719
  92	1	1	0.026743	36.0649	-3.82952	-57.5323
  93	1	1	-0.399843	38.4242	-2.31248	-57.1937
  94	1	1	-0.107518	36.6937	-3.22513	-58.6371
  95	1	1	0.292439	37.8198	-2.90156	-56.0597
  96	1	1	-0.410418	36.6416	-3.65523	-56.2547
  97	1	8	0.148547	29.6883	-9.18556	-58.715
  98	1	8	0.179912	27.8135	-8.08857	-54.2006
  99	1	8	0.155197	29.7471	-6.7585	-55.1076
 100	1	9	0.340258	34.412	-5.24098	-55.6912
 101	1	8	0.137111	30.3169	-7.12517	-59.5945
 102	1	8	0.181656	32.2265	-5.78666	-60.5255
 103	1	8	0.164633	32.0266	-6.77282	-55.6144
 104	1	9	0.430928	27.6355	-11.1157	-58.585
 105	1	8	0.141007	38.3326	-2.01105	-59.3395
 106	1	8	0.203537	39.3272	-1.72293	-57.0882
 107	1	8	0.116715	36.2704	-3.33975	-59.632
 108	1	8	0.18244	36.1786	-4.10716	-55.3834
 109	1	1	-0.155485	16.9234	-15.4855	-52.213
 110	1	2	-0.03785	17.8561	-14.7329	-51.4396
 111	1	1	-0.234781	16.4866	-15.1594	-49.4216
 112	1	1	0.378053	15.6027	-15.8791	-50.219
 113	1	1	-0.208553	17.6184	-14.5945	-50.0388
 114	1	3	-0.411858	21.5661	-14.3316	-54.8246
 115	1	1	-0.147234	19.6651	-12.9467	-51.4676
 116	1	1	0.107751	15.8174	-16.0416	-51.5591
 117	1	4	0.626409	14.0016	-17.0831	-50.922
 118	1	2	0.00453	19.0705	-14.1056	-52.0558
 119	1	1	0.356173	21.3902	-12.9295	-53.138
 120	1	1	0.030551	20.8206	-14.0259	-53.7249
 121	1	1	-0.286062	20.831	-12.3574	-51.998
 122	1	5	-0.595919	22.478	-12.508	-53.8068
 123	1	1	-0.206338	19.6724	-14.6497	-53.2244
 124	1	6	0.462884	22.5683	-13.3553	-54.8424
 125	1	3	-0.691987	14.7964	-16.8132	-52.0476
 126	1	7	-0.710982	14.4884	-16.5031	-49.8123
 127	1	1	-0.062645	24.535	-13.9146	-58.0418
 128	1	1	0.026743	23.5885	-13.2276	-55.8994
 129	1	1	-0.399843	25.4939	-12.8924	-57.9548
 130	1	1	-0.107518	23.5919	-14.0838	-57.0177
 131	1	1	0.292439	25.5371	-12.029	-56.8351
 132	1	1	-0.410418	24.5725	-12.2195	-55.8253
 133	1	8	0.148547	17.0505	-15.6149	-53.2811
 134	1	8	0.179912	16.302	-15.0617	-48.3576
 135	1	8	0.155197	18.3311	-14.0624	-49.4157
 136	1	9	0.340258	21.4219	-15.0697	-55.4882
 137	1	8	0.137111	19.2088	-12.4857	-50.5972
 138	1	8	0.181656	21.284	-11.4773	-51.554
 139	1	8	0.164633	19.2729	-15.5348	-53.7047
 140	1	9	0.430928	14.6477	-17.1292	-52.9872
 141	1	8	0.141007	24.5169	-14.5752	-58.9063
 142	1	8	0.203537	26.2135	-12.7798	-58.757
 143	1	8	0.116715	22.8523	-14.8717	-57.1113
 144	1	8	0.18244	24.5852	-11.5541	-54.9629
 145	1	1	-0.155485	9.16022	-16.7683	-42.0782
 146	1	2	-0.03785	8.15988	-17.4079	-42.8693
 147	1	1	-0.234781	6.41852	-16.4407	-41.3995
 148	1	1	0.378053	7.42892	-15.8281	-40.6633
 149	1	1	-0.208553	6.79233	-17.2295	-42.5048
 150	1	3	-0.411858	10.6802	-18.1539	-47.1241
 151	1	1	-0.147234	7.64904	-19.213	-44.5993
 152	1	1	0.107751	8.74744	-15.9955	-40.9843
 153	1	4	0.626409	8.5167	-14.6268	-39.2881
 154	1	2	0.00453	8.49626	-18.1672	-44.1179
 155	1	1	0.356173	8.91729	-19.3676	-46.641
 156	1	1	0.030551	9.77157	-18.4166	-46.1527
 157	1	1	-0.286062	7.84851	-19.8145	-45.8633
 158	1	5	-0.595919	9.21451	-19.7112	-47.9149
 159	1	1	-0.206338	9.60264	-17.7824	-44.9192
 160	1	6	0.462884	10.2786	-18.9447	-48.2026
 161	1	3	-0.691987	9.48058	-15.2464	-40.1015
 162	1	7	-0.710982	7.26842	-14.9945	-39.6234
 163	1	1	-0.062645	11.1067	-19.4109	-51.8879
 164	1	1	0.026743	10.9463	-18.8693	-49.5137
 165	1	1	-0.399843	12.2511	-18.5984	-52.0101
 166	1	1	-0.107518	10.4656	-19.5539	-50.6445
 167	1	1	0.292439	12.7735	-17.923	-50.8843
 168	1	1	-0.410418	12.0949	-18.0693	-49.6592
 169	1	8	0.148547	10.213	-16.8667	-42.3168
 170	1	8	0.179912	5.37976	-16.2758	-41.1363
 171	1	8	0.155197	6.00859	-17.6664	-43.1172
 172	1	9	0.340258	11.4116	-17.4654	-47.1251
 173	1	8	0.137111	6.80753	-19.54	-43.9958
 174	1	8	0.181656	7.17626	-20.5729	-46.2492
 175	1	8	0.164633	10.2566	-16.9696	-44.6246
 176	1	9	0.430928	10.4743	-15.1174	-40.0695
 177	1	8	0.141007	10.7104	-19.934	-52.756
 178	1	8	0.203537	12.7364	-18.5076	-52.9753
 179	1	8	0.116715	9.57852	-20.1774	-50.5623
 180	1	8	0.18244	12.4977	-17.5508	-48.797
 181	1	1	-0.155485	0.179981	-10.8602	-35.0381
 182	1	2	-0.03785	1.02714	-9.72218	-34.9471
 183	1	1	-0.234781	-0.976728	-8.26661	-35.0688
 184	1	1	0.378053	-1.77078	-9.41312	-35.1548
 185	1	1	-0.208553	0.425074	-8.42901	-34.9614
 186	1	3	-0.411858	5.3483	-11.8333	-36.3001
 187	1	1	-0.147234	3.34191	-9.02436	-34.1064
 188	1	1	0.107751	-1.19876	-10.6548	-35.1375
 189	1	4	0.626409	-3.37532	-10.8063	-35.3011
 190	1	2	0.00453	2.51496	-9.88579	-34.8897
 191	1	1	0.356173	5.32914	-10.1702	-34.8651
 192	1	1	0.030551	4.53423	-10.996	-35.6116
 193	1	1	-0.286062	4.7518	-9.16468	-34.0836
 194	1	5	-0.595919	6.64393	-10.4451	-35.04
 195	1	1	-0.206338	3.14224	-10.9007	-35.6568
 196	1	6	0.462884	6.63901	-11.4473	-35.9361
 197	1	3	-0.691987	-2.20144	-11.5712	-35.236
 198	1	7	-0.710982	-3.1169	-9.4859	-35.2559
 199	1	1	-0.062645	10.2527	-12.2656	-36.8087
 200	1	1	0.026743	7.83484	-12.0664	-36.5392
 201	1	1	-0.399843	10.0753	-13.2317	-37.8182
 202	1	1	-0.107518	9.13919	-11.6805	-36.1807
 203	1	1	0.292439	8.77815	-13.6404	-38.2017
 204	1	1	-0.410418	7.68372	-13.0551	-37.5331
 205	1	8	0.148547	0.588561	-11.8644	-35.0187
 206	1	8	0.179912	-1.43967	-7.28625	-35.094
 207	1	8	0.155197	1.05932	-7.54689	-34.9191
 208	1	9	0.340258	5.09824	-12.5322	-36.9765
 209	1	8	0.137111	2.87803	-8.24498	-33.508
 210	1	8	0.181656	5.38273	-8.50558	-33.4971
 211	1	8	0.164633	2.56403	-11.5581	-36.2965
 212	1	9	0.430928	-2.13178	-12.5701	-35.2049
 213	1	8	0.141007	11.2543	-11.9556	-36.5165
 214	1	8	0.203537	10.9472	-13.6596	-38.2999
 215	1	8	0.116715	9.28757	-10.922	-35.4159
 216	1	8	0.18244	6.69003	-13.3645	-37.8354
 217	1	1	-0.155485	-13.3882	-5.91472	-33.3054
 218	1	2	-0.03785	-12.4811	-6.0301	-34.396
 219	1	1	-0.234781	-12.9992	-3.70079	-35.0437
 220	1	1	0.378053	-13.8835	-3.63168	-33.9652
 221	1	1	-0.208553	-12.2862	-4.90375	-35.2454
 222	1	3	-0.411858	-8.43179	-8.90766	-35.2575
 223	1	1	-0.147234	-12.4924	-8.53679	-34.7287
 224	1	1	0.107751	-14.0473	-4.69281	-33.1181
 225	1	4	0.626409	-15.2919	-2.99743	-32.4956
 226	1	2	0.00453	-11.7652	-7.31338	-34.6676
 227	1	1	0.356173	-10.4613	-9.75745	-35.1568
 228	1	1	0.030551	-9.75226	-8.58752	-35.1053
 229	1	1	-0.286062	-11.8465	-9.76639	-34.983
 230	1	5	-0.595919	-9.65985	-10.8254	-35.3342
 231	1	1	-0.206338	-10.3579	-7.34392	-34.8747
 232	1	6	0.462884	-8.42311	-10.3033	-35.3654
 233	1	3	-0.691987	-14.9322	-4.31016	-32.1467
 234	1	7	-0.710982	-14.6593	-2.58919	-33.6103
 235	1	1	-0.062645	-6.19862	-13.3631	-35.5067
 236	1	1	0.026743	-7.20329	-11.1353	-35.4336
 237	1	1	-0.399843	-4.91804	-12.7963	-35.4441
 238	1	1	-0.107518	-7.32842	-12.5372	-35.4985
 239	1	1	0.292439	-4.74259	-11.3939	-35.3871
 240	1	1	-0.410418	-5.90088	-10.5798	-35.3954
 241	1	8	0.148547	-13.5511	-6.74765	-32.6298
 242	1	8	0.179912	-12.8781	-2.84462	-35.6985
 243	1	8	0.155197	-11.603	-4.98567	-36.0875
 244	1	9	0.340258	-7.63224	-8.30033	-35.2228
 245	1	8	0.137111	-13.5703	-8.51995	-34.5914
 246	1	8	0.181656	-12.3922	-10.7026	-35.0267
 247	1	8	0.164633	-9.7699	-6.43344	-34.8207
 248	1	9	0.430928	-15.3182	-4.86808	-31.4102
 249	1	8	0.141007	-6.32279	-14.4434	-35.5497
 250	1	8	0.203537	-4.06012	-13.4579	-35.4419
 251	1	8	0.116715	-8.31356	-12.9958	-35.5301
 252	1	8	0.18244	-5.76749	-9.50364	-35.3433
 253	1	1	-0.155485	-16.5735	-3.46816	-22.4338
 254	1	2	-0.03785	-17.9645	-3.3186	-22.6518
 255	1	1	-0.234781	-18.3823	-4.1427	-20.3528
 256	1	1	0.378053	-16.9994	-4.28361	-20.1849
 257	1	1	-0.208553	-18.8617	-3.64541	-21.5919
 258	1	3	-0.411858	-17.6381	-2.95944	-27.6175
 259	1	1	-0.147234	-19.3041	-1.69478	-24.0785
 260	1	1	0.107751	-16.1474	-3.93968	-21.1963
 261	1	4	0.626409	-15.0286	-4.69781	-19.4892
 262	1	2	0.00453	-18.4183	-2.80548	-23.9762
 263	1	1	0.356173	-18.9463	-1.60855	-26.464
 264	1	1	0.030551	-18.1469	-2.71486	-26.3767
 265	1	1	-0.286062	-19.5667	-1.08199	-25.3265
 266	1	5	-0.595919	-18.9442	-1.09633	-27.7117
 267	1	1	-0.206338	-17.8408	-3.33223	-25.1618
 268	1	6	0.462884	-18.1137	-1.90159	-28.3964
 269	1	3	-0.691987	-14.88	-4.17063	-20.7759
 270	1	7	-0.710982	-16.3222	-4.75794	-19.1134
 271	1	1	-0.062645	-17.5642	-0.0596889	-31.6472
 272	1	1	0.026743	-17.6614	-1.62604	-29.7763
 273	1	1	-0.399843	-16.6482	-0.893958	-32.2996
 274	1	1	-0.107518	-18.0699	-0.429637	-30.3971
 275	1	1	0.292439	-16.2507	-2.1308	-31.7479
 276	1	1	-0.410418	-16.7757	-2.48702	-30.4781
 277	1	8	0.148547	-15.8558	-3.20431	-23.2027
 278	1	8	0.179912	-19.0533	-4.42001	-19.547
 279	1	8	0.155197	-19.9323	-3.53516	-21.7495
 280	1	9	0.340258	-16.9526	-3.64194	-27.8797
 281	1	8	0.137111	-19.7235	-1.26589	-23.1716
 282	1	8	0.181656	-20.1822	-0.192276	-25.4073
 283	1	8	0.164633	-17.1523	-4.16931	-25.1186
 284	1	9	0.430928	-14.0224	-3.99597	-21.2617
 285	1	8	0.141007	-17.8688	0.882528	-32.0981
 286	1	8	0.203537	-16.2496	-0.592462	-33.2662
 287	1	8	0.116715	-18.7522	0.246068	-29.8872
 288	1	8	0.18244	-16.4563	-3.41427	-30.0211
 289	1	1	-0.155485	-15.1309	-9.25939	-9.29371
 290	1	2	-0.03785	-14.7228	-7.96499	-9.70472
 291	1	1	-0.234781	-15.496	-7.03485	-7.55478
 292	1	1	0.378053	-15.873	-8.32549	-7.18074
 293	1	1	-0.208553	-14.9195	-6.85965	-8.83138
 294	1	3	-0.411858	-14.2725	-6.72231	-14.5507
 295	1	1	-0.147234	-12.6033	-8.03284	-11.0329
 296	1	1	0.107751	-15.7101	-9.38639	-8.02915
 297	1	4	0.626409	-16.6421	-10.0249	-6.16001
 298	1	2	0.00453	-14.0016	-7.77981	-10.9868
 299	1	1	0.356173	-12.5533	-7.40407	-13.3492
 300	1	1	0.030551	-13.9012	-7.16333	-13.3138
 301	1	1	-0.286062	-11.8651	-7.84303	-12.2182
 302	1	5	-0.595919	-12.0247	-7.12524	-14.5524
 303	1	1	-0.206338	-14.6684	-7.32766	-12.1551
 304	1	6	0.462884	-13.0735	-6.70001	-15.2728
 305	1	3	-0.691987	-16.1924	-10.4976	-7.40186
 306	1	7	-0.710982	-16.4311	-8.70509	-6.01802
 307	1	1	-0.062645	-11.4552	-5.54719	-18.4844
 308	1	1	0.026743	-12.9288	-6.17816	-16.6423
 309	1	1	-0.399843	-12.5592	-5.08362	-19.2102
 310	1	1	-0.107518	-11.6431	-6.09457	-17.2123
 311	1	1	0.292439	-13.8705	-5.16702	-18.6831
 312	1	1	-0.410418	-14.0353	-5.72232	-17.3956
 313	1	8	0.148547	-14.9796	-10.1209	-9.93554
 314	1	8	0.179912	-15.6403	-6.20831	-6.86726
 315	1	8	0.155197	-14.59	-5.8715	-9.14486
 316	1	9	0.340258	-15.1431	-6.28842	-14.8182
 317	1	8	0.137111	-12.0954	-8.35935	-10.1287
 318	1	8	0.181656	-10.7949	-8.01233	-12.2621
 319	1	8	0.164633	-15.7319	-7.11221	-12.145
 320	1	9	0.430928	-16.2483	-11.4332	-7.75499
 321	1	8	0.141007	-10.4519	-5.47904	-18.8997
 322	1	8	0.203537	-12.3851	-4.6616	-20.1918
 323	1	8	0.116715	-10.774	-6.43627	-16.6562
 324	1	8	0.18244	-15.0401	-5.77795	-16.9861
 325	1	1	-0.155485	-24.4733	-7.9179	0.845213
 326	1	2	-0.03785	-23.2654	-7.56543	1.50085
 327	1	1	-0.234781	-24.5858	-6.50181	3.30414
 328	1	1	0.378053	-25.7514	-6.88912	2.63552
 329	1	1	-0.208553	-23.3387	-6.83538	2.72279
 330	1	3	-0.411858	-20.313	-10.5903	-1.16131
 331	1	1	-0.147234	-20.8927	-7.0142	0.778086
 332	1	1	0.107751	-25.6787	-7.55373	1.44333
 333	1	4	0.626409	-27.7604	-7.27419	2.03815
 334	1	2	0.00453	-21.9628	-7.94928	0.883796
 335	1	1	0.356173	-19.6572	-8.56162	-0.592129
 336	1	1	0.030551	-20.6351	-9.50051	-0.408252
 337	1	1	-0.286062	-19.7349	-7.31115	0.0245118
 338	1	5	-0.595919	-18.7551	-8.96223	-1.50633
 339	1	1	-0.206338	-21.813	-9.23201	0.292249
 340	1	6	0.462884	-19.1936	-10.1733	-1.88528
 341	1	3	-0.691987	-26.9487	-7.79313	1.01977
 342	1	7	-0.710982	-27.034	-6.70885	3.02064
 343	1	1	-0.062645	-18.5785	-12.8678	-4.49614
 344	1	1	0.026743	-18.6544	-10.9053	-3.0452
 345	1	1	-0.399843	-17.7485	-12.1794	-5.39716
 346	1	1	-0.107518	-19.0554	-12.2223	-3.34436
 347	1	1	0.292439	-17.3728	-10.8384	-5.15221
 348	1	1	-0.410418	-17.7901	-10.2504	-3.94272
 349	1	8	0.148547	-24.4609	-8.44246	-0.10364
 350	1	8	0.179912	-24.6546	-5.97029	4.24719
 351	1	8	0.155197	-22.4185	-6.55666	3.2312
 352	1	9	0.340258	-20.8708	-11.4055	-1.33585
 353	1	8	0.137111	-21.0034	-6.02511	1.21501
 354	1	8	0.181656	-18.951	-6.5784	-0.136646
 355	1	8	0.164633	-22.6058	-9.9693	0.352428
 356	1	9	0.430928	-27.243	-8.23828	0.173409
 357	1	8	0.141007	-18.8836	-13.8911	-4.70632
 358	1	8	0.203537	-17.4378	-12.6733	-6.31064
 359	1	8	0.116715	-19.7203	-12.7599	-2.67633
 360	1	8	0.18244	-17.5074	-9.21779	-3.74223
 361	1	1	-0.155485	-33.7702	-8.36699	-7.15839
 362	1	2	-0.03785	-32.8946	-8.15942	-6.04987
 363	1	1	-0.234781	-31.4112	-6.79531	-7.48169
 364	1	1	0.378053	-32.29	-7.02322	-8.53031
 365	1	1	-0.208553	-31.7241	-7.36542	-6.24023
 366	1	3	-0.411858	-31.3449	-8.89904	-1.46453
 367	1	1	-0.147234	-34.4709	-8.46675	-4.06157
 368	1	1	0.107751	-33.4157	-7.78785	-8.39002
 369	1	4	0.626409	-33.2762	-6.92099	-10.4051
 370	1	2	0.00453	-33.1822	-8.61525	-4.65429
 371	1	1	0.356173	-33.5008	-8.68349	-1.8578
 372	1	1	0.030551	-32.2904	-8.94824	-2.43544
 373	1	1	-0.286062	-34.6381	-8.50371	-2.65419
 374	1	5	-0.595919	-33.37	-8.42875	-0.535234
 375	1	1	-0.206338	-32.0846	-8.9278	-3.81181
 376	1	6	0.462884	-32.0409	-8.4759	-0.333371
 377	1	3	-0.691987	-34.0649	-7.76777	-9.60291
 378	1	7	-0.710982	-32.1892	-6.48915	-9.74873
 379	1	1	-0.062645	-31.4228	-6.89547	3.05932
 380	1	1	0.026743	-31.3487	-7.97863	0.872551
 381	1	1	-0.399843	-30.0203	-6.83268	3.08356
 382	1	1	-0.107518	-32.0808	-7.46126	1.95719
 383	1	1	0.292439	-29.2484	-7.34802	2.02264
 384	1	1	-0.410418	-29.9341	-7.9316	0.930611
 385	1	8	0.148547	-34.6845	-8.9403	-7.04951
 386	1	8	0.179912	-30.5449	-6.15898	-7.62508
 387	1	8	0.155197	-31.0799	-7.13296	-5.39722
 388	1	9	0.340258	-30.3506	-8.92014	-1.58059
 389	1	8	0.137111	-35.315	-8.18951	-4.6871
 390	1	8	0.181656	-35.589	-8.26511	-2.18989
 391	1	8	0.164633	-31.0823	-9.02062	-4.21546
 392	1	9	0.430928	-34.9371	-8.1972	-9.8489
 393	1	8	0.141007	-32.0032	-6.48967	3.88539
 394	1	8	0.203537	-29.5132	-6.37779	3.93239
 395	1	8	0.116715	-33.1677	-7.47666	1.93455
 396	1	8	0.18244	-29.3561	-8.31685	0.103499
 397	1	1	-0.155485	-25.833	-2.04447	-13.4741
 398	1	2	-0.03785	-26.5442	-1.31546	-14.4676
 399	1	1	-0.234781	-24.4059	-0.275519	-15.1665
 400	1	1	0.378053	-23.748	-1.0703	-14.2237
 401	1	1	-0.208553	-25.8115	-0.400129	-15.2815
 402	1	3	-0.411858	-30.7983	-3.54671	-13.2744
 403	1	1	-0.147234	-28.5267	-1.63248	-16.0604
 404	1	1	0.107751	-24.4551	-1.87444	-13.3759
 405	1	4	0.626409	-22.3288	-2.29243	-13.215
 406	1	2	0.00453	-27.9774	-1.66391	-14.7405
 407	1	1	0.356173	-30.4965	-2.82505	-15.322
 408	1	1	0.030551	-29.9906	-2.79745	-14.053
 409	1	1	-0.286062	-29.7898	-2.20562	-16.3581
 410	1	5	-0.595919	-31.6259	-3.57546	-15.3959
 411	1	1	-0.206338	-28.7656	-2.2332	-13.7097
 412	1	6	0.462884	-31.7636	-4.05008	-14.1447
 413	1	3	-0.691987	-23.5692	-2.61295	-12.6539
 414	1	7	-0.710982	-22.4221	-1.2988	-14.1203
 415	1	1	-0.062645	-34.7221	-6.4558	-13.9453
 416	1	1	0.026743	-32.7578	-5.03478	-13.6749
 417	1	1	-0.399843	-34.5952	-6.91956	-12.6178
 418	1	1	-0.107518	-33.8028	-5.52836	-14.4747
 419	1	1	0.292439	-33.5296	-6.47311	-11.8058
 420	1	1	-0.410418	-32.6446	-5.52951	-12.3625
 421	1	8	0.148547	-26.3156	-2.80393	-12.8722
 422	1	8	0.179912	-23.8307	0.349261	-15.8412
 423	1	8	0.155197	-26.3303	0.168507	-16.0486
 424	1	9	0.340258	-30.6928	-3.76978	-12.3013
 425	1	8	0.137111	-27.9305	-1.23439	-16.876
 426	1	8	0.181656	-30.1743	-2.24181	-17.3715
 427	1	8	0.164633	-28.4094	-2.29165	-12.688
 428	1	9	0.430928	-23.769	-3.37318	-12.0325
 429	1	8	0.141007	-35.5344	-6.81584	-14.5736
 430	1	8	0.203537	-35.3076	-7.64099	-12.2329
 431	1	8	0.116715	-33.9097	-5.17824	-15.4985
 432	1	8	0.18244	-31.8286	-5.1873	-11.7396
 433	1	1	-0.155485	-12.9574	0.662858	-15.7365
 434	1	2	-0.03785	-13.4095	-0.064203	-16.8583
 435	1	1	-0.234781	-12.1098	1.43104	-18.332
 436	1	1	0.378053	-11.6466	2.09433	-17.187
 437	1	1	-0.208553	-13.0011	0.339536	-18.1615
 438	1	3	-0.411858	-17.5403	-2.28251	-15.3535
 439	1	1	-0.147234	-13.5023	-2.37067	-15.9348
 440	1	1	0.107751	-12.0962	1.72867	-15.9493
 441	1	4	0.626409	-10.4225	3.08958	-15.7611
 442	1	2	0.00453	-14.1862	-1.28857	-16.5559
 443	1	1	0.356173	-15.5832	-3.24904	-15.114
 444	1	1	0.030551	-16.2477	-2.24183	-15.7645
 445	1	1	-0.286062	-14.1948	-3.35125	-15.1971
 446	1	5	-0.595919	-16.3953	-3.95269	-14.2961
 447	1	1	-0.206338	-15.5975	-1.22858	-16.4747
 448	1	6	0.462884	-17.57	-3.30872	-14.408
 449	1	3	-0.691987	-11.3881	2.40792	-15.0181
 450	1	7	-0.710982	-10.6363	2.98984	-17.0886
 451	1	1	-0.062645	-19.8587	-4.84858	-11.8061
 452	1	1	0.026743	-18.7507	-3.58074	-13.5721
 453	1	1	-0.399843	-21.0284	-4.09246	-11.9892
 454	1	1	-0.107518	-18.7295	-4.59648	-12.5984
 455	1	1	0.292439	-21.0807	-3.05671	-12.9503
 456	1	1	-0.410418	-19.9245	-2.80965	-13.7163
 457	1	8	0.148547	-13.2223	0.34897	-14.7319
 458	1	8	0.179912	-11.7208	1.70441	-19.3069
 459	1	8	0.155197	-13.3275	-0.236954	-19.0237
 460	1	9	0.340258	-18.285	-1.64642	-15.5776
 461	1	8	0.137111	-12.4149	-2.37481	-15.9326
 462	1	8	0.181656	-13.6622	-4.09617	-14.6194
 463	1	8	0.164633	-16.1378	-0.36181	-16.8418
 464	1	9	0.430928	-11.4068	2.27955	-14.0262
 465	1	8	0.141007	-19.8244	-5.63776	-11.0572
 466	1	8	0.203537	-21.8931	-4.31178	-11.3737
 467	1	8	0.116715	-17.832	-5.19212	-12.4529
 468	1	8	0.18244	-19.9726	-2.02047	-14.4592
 469	1	1	-0.155485	-8.19105	2.3007	-5.66182
 470	1	2	-0.03785	-7.26268	1.3947	-6.22561
 471	1	1	-0.234781	-6.78451	0.517996	-3.95802
 472	1	1	0.378053	-7.65699	1.48113	-3.43844
 473	1	1	-0.208553	-6.57665	0.491319	-5.3606
 474	1	3	-0.411858	-8.21869	2.67342	-10.9581
 475	1	1	-0.147234	-5.5151	1.87981	-7.97548
 476	1	1	0.107751	-8.35127	2.30507	-4.28055
 477	1	4	0.626409	-8.4865	3.02167	-2.23441
 478	1	2	0.00453	-6.87559	1.61367	-7.64781
 479	1	1	0.356173	-6.16695	2.65203	-10.1624
 480	1	1	0.030551	-7.46511	2.32381	-9.8793
 481	1	1	-0.286062	-5.15226	2.41002	-9.2341
 482	1	5	-0.595919	-6.05071	3.24035	-11.3711
 483	1	1	-0.206338	-7.8717	1.82684	-8.63695
 484	1	6	0.462884	-7.30299	3.23549	-11.8539
 485	1	3	-0.691987	-8.9512	3.25951	-3.5311
 486	1	7	-0.710982	-7.78151	1.87758	-2.15044
 487	1	1	-0.062645	-6.98229	4.67207	-15.3476
 488	1	1	0.026743	-7.65615	3.69487	-13.2115
 489	1	1	-0.399843	-8.21446	4.30561	-15.9095
 490	1	1	-0.107518	-6.69578	4.33614	-14.0168
 491	1	1	0.292439	-9.19794	3.65643	-15.1377
 492	1	1	-0.410418	-8.92755	3.42494	-13.7661
 493	1	8	0.148547	-8.66197	3.06377	-6.27138
 494	1	8	0.179912	-6.20667	-0.103656	-3.28221
 495	1	8	0.155197	-5.83243	-0.182547	-5.77879
 496	1	9	0.340258	-9.20634	2.5615	-11.0861
 497	1	8	0.137111	-4.75326	1.75923	-7.2092
 498	1	8	0.181656	-4.12706	2.67452	-9.46932
 499	1	8	0.164633	-8.92008	1.65919	-8.41278
 500	1	9	0.430928	-9.44097	4.07121	-3.85086
 501	1	8	0.141007	-6.22595	5.16306	-15.9563
 502	1	8	0.203537	-8.40623	4.48718	-16.9652
 503	1	8	0.116715	-5.71394	4.56603	-13.6107
 504	1	8	0.18244	-9.6556	2.89652	-13.1673
 505	1	1	-0.155485	-6.44919	6.60138	8.46837
 506	1	2	-0.03785	-7.13138	5.36715	8.35196
 507	1	1	-0.234781	-8.12611	5.73822	10.5883
 508	1	1	0.378053	-7.47587	6.97778	10.6365
 509	1	1	-0.208553	-7.95032	4.93133	9.43428
 510	1	3	-0.411858	-7.83603	5.60221	3.48925
 511	1	1	-0.147234	-6.91478	3.33658	6.7686
 512	1	1	0.107751	-6.65388	7.35848	9.61386
 513	1	4	0.626409	-6.77964	8.93403	11.1056
 514	1	2	0.00453	-7.15603	4.7212	7.01162
 515	1	1	0.356173	-7.27178	3.67597	4.39523
 516	1	1	0.030551	-7.50596	4.99707	4.64985
 517	1	1	-0.286062	-6.96196	2.80681	5.45116
 518	1	5	-0.595919	-7.43569	3.3974	3.07905
 519	1	1	-0.206338	-7.46006	5.56068	5.91621
 520	1	6	0.462884	-7.80784	4.57759	2.54738
 521	1	3	-0.691987	-6.20218	8.60539	9.87688
 522	1	7	-0.710982	-7.56466	7.94615	11.5802
 523	1	1	-0.062645	-9.16234	6.33743	-0.510986
 524	1	1	0.026743	-8.21881	4.81256	1.15085
 525	1	1	-0.399843	-9.1462	5.312	-1.46113
 526	1	1	-0.107518	-8.69316	6.08955	0.780715
 527	1	1	0.292439	-8.62344	4.03229	-1.15235
 528	1	1	-0.410418	-8.17455	3.79991	0.167073
 529	1	8	0.148547	-5.8357	6.98028	7.65759
 530	1	8	0.179912	-8.78796	5.44583	11.396
 531	1	8	0.155197	-8.51019	4.00431	9.33477
 532	1	9	0.340258	-8.11292	6.55514	3.34598
 533	1	8	0.137111	-6.68149	2.68369	7.60593
 534	1	8	0.181656	-6.78505	1.75544	5.25078
 535	1	8	0.164633	-7.68693	6.6113	6.06375
 536	1	9	0.430928	-5.51693	9.13873	9.37361
 537	1	8	0.141007	-9.52903	7.32751	-0.77475
 538	1	8	0.203537	-9.48825	5.5419	-2.46232
 539	1	8	0.116715	-8.72569	6.90393	1.49561
 540	1	8	0.18244	-7.77875	2.81878	0.426019
 541	1	1	-0.155485	2.50218	13.5224	11.9771
 542	1	2	-0.03785	1.87206	14.2245	10.9102
 543	1	1	-0.234781	4.07374	14.9472	10.0805
 544	1	1	0.378053	4.65142	14.1844	11.0929
 545	1	1	-0.208553	2.66978	14.9606	9.99212
 546	1	3	-0.411858	-2.97866	13.7103	12.0577
 547	1	1	-0.147234	0.0739498	13.4999	9.32522
 548	1	1	0.107751	3.90146	13.5447	12.0425
 549	1	4	0.626409	5.98801	12.9119	12.1422
 550	1	2	0.00453	0.432926	14.0098	10.6064
 551	1	1	0.356173	-2.19361	13.2237	10.0541
 552	1	1	0.030551	-1.87838	13.8005	11.2565
 553	1	1	-0.286062	-1.24349	13.0883	9.04287
 554	1	5	-0.595919	-3.42077	12.6764	10.0716
 555	1	1	-0.206338	-0.572331	14.1736	11.5929
 556	1	6	0.462884	-3.85552	12.9115	11.3202
 557	1	3	-0.691987	4.757	12.7908	12.8082
 558	1	7	-0.710982	5.93623	13.8178	11.1532
 559	1	1	-0.062645	-6.45784	11.6418	13.7857
 560	1	1	0.026743	-4.99844	12.1916	11.9083
 561	1	1	-0.399843	-6.92902	10.5107	13.0959
 562	1	1	-0.107518	-5.46794	12.4558	13.2092
 563	1	1	0.292439	-6.45002	10.2015	11.8069
 564	1	1	-0.410418	-5.54771	11.1033	11.2067
 565	1	8	0.148547	1.9236	12.894	12.6454
 566	1	8	0.179912	4.7022	15.4185	9.33241
 567	1	8	0.155197	2.19125	15.4752	9.16199
 568	1	9	0.340258	-3.0392	13.9175	13.0378
 569	1	8	0.137111	0.850473	13.3413	8.5802
 570	1	8	0.181656	-1.50381	12.6064	8.10662
 571	1	8	0.164633	-0.323339	14.5363	12.5844
 572	1	9	0.430928	4.51575	12.0785	13.471
 573	1	8	0.141007	-6.8194	11.8577	14.7889
 574	1	8	0.203537	-7.63926	9.83582	13.5691
 575	1	8	0.116715	-5.07039	13.2899	13.7783
 576	1	8	0.18244	-5.16441	10.8952	10.2147
 577	1	1	-0.155485	14.1514	12.8125	5.70036
 578	1	2	-0.03785	14.0507	11.4126	5.82179
 579	1	1	-0.234781	15.9657	11.1748	4.26678
 580	1	1	0.378053	16.0192	12.5745	4.16531
 581	1	1	-0.208553	14.9606	10.5924	5.09045
 582	1	3	-0.411858	11.4024	10.5745	10.0024
 583	1	1	-0.147234	11.608	11.253	5.94385
 584	1	1	0.107751	15.1209	13.3297	4.86058
 585	1	4	0.626409	16.5254	14.6181	3.84151
 586	1	2	0.00453	12.8512	10.9459	6.56147
 587	1	1	0.356173	10.5044	11.0942	8.05602
 588	1	1	0.030551	11.6655	10.6833	8.65702
 589	1	1	-0.286062	10.4233	11.343	6.69067
 590	1	5	-0.595919	9.53716	11.3398	8.94442
 591	1	1	-0.206338	12.8824	10.638	7.95292
 592	1	6	0.462884	10.085	11.0409	10.1287
 593	1	3	-0.691987	15.3646	14.6277	4.61266
 594	1	7	-0.710982	16.901	13.3663	3.49853
 595	1	1	-0.062645	8.64941	10.5631	13.6316
 596	1	1	0.026743	9.2902	11.1874	11.365
 597	1	1	-0.399843	7.44688	11.2929	13.5107
 598	1	1	-0.107518	9.58136	10.5293	12.5739
 599	1	1	0.292439	7.19944	12.0719	12.3582
 600	1	1	-0.410418	8.13502	11.9877	11.3143
 601	1	8	0.148547	13.4572	13.468	6.2173
 602	1	8	0.179912	16.674	10.5685	3.71295
 603	1	8	0.155197	14.8622	9.51093	5.14543
 604	1	9	0.340258	12.0387	10.3441	10.7441
 605	1	8	0.137111	11.598	11.5523	4.8982
 606	1	8	0.181656	9.49167	11.6851	6.25294
 607	1	8	0.164633	13.8269	10.4901	8.4664
 608	1	9	0.430928	15.0222	15.4134	5.1352
 609	1	8	0.141007	8.8519	9.99851	14.5397
 610	1	8	0.203537	6.74048	11.3055	14.3343
 611	1	8	0.116715	10.4707	9.91324	12.6622
 612	1	8	0.18244	7.92333	12.5341	10.3969
 613	1	1	-0.155485	18.6594	15.196	12.345
 614	1	2	-0.03785	19.1474	16.2854	11.5578
 615	1	1	-0.234781	21.3163	16.1192	12.7529
 616	1	1	0.378053	20.7944	15.0654	13.4914
 617	1	1	-0.208553	20.4814	16.7368	11.8044
 618	1	3	-0.411858	18.6535	18.6661	7.19787
 619	1	1	-0.147234	16.9077	16.7694	10.3853
 620	1	1	0.107751	19.509	14.637	13.3114
 621	1	4	0.626409	20.516	13.501	14.8913
 622	1	2	0.00453	18.3252	16.9334	10.4728
 623	1	1	0.356173	16.8665	17.9234	8.26692
 624	1	1	0.030551	18.2016	18.1831	8.38945