pySIMM System Object

542 atoms
616 bonds
1020 angles
1616 dihedrals
180 impropers

10 atom types
15 bond types
26 angle types
12 dihedral types
2 improper types

-121.478269 121.478269 xlo xhi
-121.478269 121.478269 ylo yhi
-121.478269 121.478269 zlo zhi

Masses

   1	12.01	# ca
   2	12.01	# cp
   3	14.01	# na
   4	12.01	# cc
   5	14.01	# nc
   6	12.01	# cd
   7	14.01	# nd
   8	1.008	# ha
   9	1.008	# hn
  10	1.008	# h5

Pair Coeffs

   1	0.086	3.3996695084235347	# ca
   2	0.086	3.3996695084235347	# cp
   3	0.17	3.249998523775958	# na
   4	0.086	3.3996695084235347	# cc
   5	0.17	3.249998523775958	# nc
   6	0.086	3.3996695084235347	# cd
   7	0.17	3.249998523775958	# nd
   8	0.015	2.59964245953351	# ha
   9	0.0157	1.069078461768407	# hn
  10	0.015	2.421462715905442	# h5

Bond Coeffs

   1	425.8	1.3802	# cd,na
   2	525.4	1.3172	# cc,nd
   3	345.8	1.086	# ca,ha
   4	351.4	1.4854	# cp,cp
   5	467.7	1.3517	# ca,nc
   6	385.1	1.4555	# ca,cd
   7	467.7	1.3517	# ca,nd
   8	525.4	1.3172	# cd,nc
   9	450.2	1.4058	# ca,cp
  10	425.8	1.3802	# cc,na
  11	420.5	1.384	# ca,na
  12	351.7	1.0819	# cc,h5
  13	461.1	1.3984	# ca,ca
  14	408.4	1.01	# hn,na
  15	385.1	1.4555	# ca,cc

Angle Coeffs

   1	48.18	119.88	# ca,ca,ha
   2	66.28	123.45	# ca,cd,na
   3	64.05	121.11	# ca,cp,cp
   4	46.75	125.5	# cc,na,hn
   5	67.6	123.24	# ca,cd,nc
   6	46.75	125.5	# cd,na,hn
   7	72.48	104.88	# ca,nc,cd
   8	74.9	112.22	# na,cd,nc
   9	66.62	120.02	# ca,ca,ca
  10	46.63	125.54	# ca,na,hn
  11	65.02	120.79	# ca,ca,cd
  12	47.98	119.86	# cp,ca,ha
  13	69.46	119.72	# ca,ca,nc
  14	72.48	104.88	# ca,nd,cc
  15	69.08	118.34	# ca,ca,na
  16	66.72	118.38	# ca,cp,ca
  17	69.46	119.72	# ca,ca,nd
  18	74.9	112.22	# na,cc,nd
  19	67.4	113.15	# ca,na,cc
  20	66.26	120.69	# ca,ca,cp
  21	50.58	125.52	# h5,cc,nd
  22	67.4	113.15	# ca,na,cd
  23	49.58	121.55	# h5,cc,na
  24	66.28	123.45	# ca,cc,na
  25	67.6	123.24	# ca,cc,nd
  26	65.02	120.79	# ca,ca,cc

Dihedral Coeffs

   1	1	4.8	2	180	# X,ca,nc,X
   2	1	4.8	2	180	# X,ca,nd,X
   3	1	4.0	2	180	# X,ca,cd,X
   4	1	4.75	2	180	# X,cd,nc,X
   5	1	4.75	2	180	# X,cc,nd,X
   6	1	1.7	2	180	# X,cc,na,X
   7	1	1.0	2	180	# X,cp,cp,X
   8	1	3.625	2	180	# X,ca,cp,X
   9	1	0.3	2	180	# X,ca,na,X
  10	1	1.7	2	180	# X,cd,na,X
  11	1	3.625	2	180	# X,ca,ca,X
  12	1	4.0	2	180	# X,ca,cc,X

Improper Coeffs

   1	1.1	-1	2	# na,X,X,hn
   2	1.1	-1	2	# ca,X,X,ha

Atoms

   1	1	1	-0.155485	32.2452	-27.6258	23.714
   2	1	2	-0.03785	31.6289	-28.8666	23.4126
   3	1	1	-0.234781	30.302	-27.7503	21.6438
   4	1	1	0.378053	30.947	-26.5509	21.9601
   5	1	1	-0.208553	30.6393	-28.9072	22.3871
   6	1	3	-0.411858	30.9611	-33.1731	25.9272
   7	1	1	-0.147234	33.4604	-30.4155	24.2003
   8	1	1	0.107751	31.8566	-26.5035	22.9803
   9	1	4	0.626409	31.6888	-24.5562	22.0089
  10	1	2	0.00453	32.0711	-30.108	24.1124
  11	1	1	0.356173	32.9656	-32.4639	25.3616
  12	1	1	0.030551	31.631	-32.1612	25.306
  13	1	1	-0.286062	33.9172	-31.6011	24.8161
  14	1	5	-0.595919	33.1901	-33.6459	25.9696
  15	1	1	-0.206338	31.1338	-31.01	24.682
  16	1	6	0.462884	31.9626	-34.0726	26.3059
  17	1	3	-0.691987	32.3199	-25.2289	23.0632
  18	1	7	-0.710982	30.8353	-25.3542	21.3392
  19	1	1	-0.062645	32.5391	-37.4716	27.8911
  20	1	1	0.026743	31.7012	-35.3552	26.9864
  21	1	1	-0.399843	31.2348	-37.8346	28.261
  22	1	1	-0.107518	32.767	-36.2368	27.2643
  23	1	1	0.292439	30.1642	-36.9686	28.0048
  24	1	1	-0.410418	30.394	-35.7405	27.3677
  25	1	8	0.148547	33.0016	-27.5534	24.4884
  26	1	8	0.179912	29.5861	-27.7804	20.8296
  27	1	8	0.155197	30.1764	-29.8587	22.136
  28	1	9	0.340258	29.9726	-33.2767	26.0637
  29	1	8	0.137111	34.1823	-29.7381	23.7514
  30	1	8	0.181656	34.9707	-31.855	24.863
  31	1	8	0.164633	30.0693	-30.8025	24.6441
  32	1	9	0.430928	33.0583	-24.8793	23.6432
  33	1	8	0.141007	33.374	-38.1415	28.0852
  34	1	8	0.203537	31.0485	-38.787	28.7476
  35	1	8	0.116715	33.781	-35.9691	26.9788
  36	1	8	0.18244	29.5465	-35.0915	27.1844
  37	1	1	-0.155485	29.308	-18.086	12.5958
  38	1	2	-0.03785	29.34	-19.2876	13.3621
  39	1	1	-0.234781	27.9225	-20.3621	11.6268
  40	1	1	0.378053	27.9497	-19.1685	10.9058
  41	1	1	-0.208553	28.6284	-20.4181	12.8503
  42	1	3	-0.411858	30.6272	-21.2249	17.8621
  43	1	1	-0.147234	31.1148	-18.3749	14.9496
  44	1	1	0.107751	28.6188	-18.0796	11.3842
  45	1	4	0.626409	27.8525	-17.6891	9.38323
  46	1	2	0.00453	30.1167	-19.3553	14.6514
  47	1	1	0.356173	31.5431	-19.3813	17.0853
  48	1	1	0.030551	30.6359	-20.3633	16.8006
  49	1	1	-0.286062	31.8189	-18.371	16.1695
  50	1	5	-0.595919	32.1014	-19.5415	18.2967
  51	1	1	-0.206338	29.8914	-20.385	15.6138
  52	1	6	0.462884	31.5489	-20.6726	18.7589
  53	1	3	-0.691987	28.546	-17.0951	10.4443
  54	1	7	-0.710982	27.4391	-18.9353	9.68164
  55	1	1	-0.062645	33.2604	-21.0901	22.0992
  56	1	1	0.026743	31.9398	-21.266	20.0511
  57	1	1	-0.399843	32.8737	-22.3857	22.4628
  58	1	1	-0.107518	32.8146	-20.5484	20.8906
  59	1	1	0.292439	32.0065	-23.1479	21.6452
  60	1	1	-0.410418	31.5103	-22.551	20.4619
  61	1	8	0.148547	29.8058	-17.1827	12.9212
  62	1	8	0.179912	27.4075	-21.2261	11.2207
  63	1	8	0.155197	28.6487	-21.3622	13.3842
  64	1	9	0.340258	30.0949	-22.0684	17.9831
  65	1	8	0.137111	31.3633	-17.6053	14.229
  66	1	8	0.181656	32.5656	-17.619	16.3994
  67	1	8	0.164633	29.1515	-21.1595	15.4552
  68	1	9	0.430928	28.995	-16.1992	10.4485
  69	1	8	0.141007	33.925	-20.5107	22.7367
  70	1	8	0.203537	33.2507	-22.7928	23.3933
  71	1	8	0.116715	33.1512	-19.5543	20.6077
  72	1	8	0.18244	30.8563	-23.1398	19.8254
  73	1	1	-0.155485	21.3276	-21.2904	1.05033
  74	1	2	-0.03785	22.2225	-21.6499	2.09319
  75	1	1	-0.234781	20.4319	-23.0573	3.07901
  76	1	1	0.378053	19.562	-22.5692	2.10332
  77	1	1	-0.208553	21.7721	-22.6061	3.05735
  78	1	3	-0.411858	25.4601	-19.2574	5.03059
  79	1	1	-0.147234	24.0196	-20.0111	1.28179
  80	1	1	0.107751	20.0306	-21.7976	1.07672
  81	1	4	0.626409	17.872	-21.6677	1.19787
  82	1	2	0.00453	23.4593	-20.8247	2.3176
  83	1	1	0.356173	25.3859	-18.8311	2.87758
  84	1	1	0.030551	24.9264	-19.6692	3.85445
  85	1	1	-0.286062	24.9726	-19.0026	1.55606
  86	1	5	-0.595919	26.1735	-17.8543	3.38008
  87	1	1	-0.206338	23.9606	-20.6511	3.63605
  88	1	6	0.462884	26.2007	-18.1242	4.69565
  89	1	3	-0.691987	18.9601	-21.3202	0.391653
  90	1	7	-0.710982	18.2143	-22.5323	2.16987
  91	1	1	-0.062645	28.1617	-15.3426	6.37711
  92	1	1	0.026743	26.9042	-17.3233	5.70949
  93	1	1	-0.399843	28.2445	-15.8288	7.69405
  94	1	1	-0.107518	27.5123	-16.0966	5.38691
  95	1	1	0.292439	27.6805	-17.0787	8.03844
  96	1	1	-0.410418	26.9889	-17.7872	7.03798
  97	1	8	0.148547	21.5735	-20.5168	0.334779
  98	1	8	0.179912	20.0433	-23.6528	3.89843
  99	1	8	0.155197	22.4301	-22.9152	3.8635
 100	1	9	0.340258	25.2976	-19.6211	5.95275
 101	1	8	0.137111	23.6728	-20.1222	0.260024
 102	1	8	0.181656	25.3455	-18.3403	0.782538
 103	1	8	0.164633	23.5458	-21.189	4.47964
 104	1	9	0.430928	18.9674	-20.5883	-0.290887
 105	1	8	0.141007	28.6158	-14.3894	6.11378
 106	1	8	0.203537	28.7814	-15.2483	8.43532
 107	1	8	0.116715	27.4614	-15.7181	4.369
 108	1	8	0.18244	26.5635	-18.7485	7.30611
 109	1	1	-0.155485	8.533	-18.1411	6.9453
 110	1	2	-0.03785	9.76401	-18.4578	7.56792
 111	1	1	-0.234781	9.2302	-16.8562	9.37878
 112	1	1	0.378053	8.05483	-16.5239	8.69501
 113	1	1	-0.208553	10.0826	-17.8362	8.81016
 114	1	3	-0.411858	12.607	-19.2039	3.56605
 115	1	1	-0.147234	11.4472	-20.3779	7.32165
 116	1	1	0.107751	7.71029	-17.1968	7.5552
 117	1	4	0.626409	6.41422	-15.4713	7.8415
 118	1	2	0.00453	10.7753	-19.2356	6.79815
 119	1	1	0.356173	12.7442	-20.5701	5.28952
 120	1	1	0.030551	12.0878	-19.4801	4.78949
 121	1	1	-0.286062	12.4324	-21.059	6.5636
 122	1	5	-0.595919	13.6919	-21.0108	4.43276
 123	1	1	-0.206338	11.1083	-18.7852	5.49624
 124	1	6	0.462884	13.6099	-20.1594	3.39503
 125	1	3	-0.691987	6.61077	-16.5991	7.03623
 126	1	7	-0.710982	7.23939	-15.4618	8.90641
 127	1	1	-0.062645	15.243	-19.1378	0.131393
 128	1	1	0.026743	14.5193	-20.1555	2.23293
 129	1	1	-0.399843	16.3585	-19.9837	0.102877
 130	1	1	-0.107518	14.3433	-19.2099	1.20104
 131	1	1	0.292439	16.5815	-20.9332	1.12839
 132	1	1	-0.410418	15.6196	-21.0369	2.156
 133	1	8	0.148547	8.27515	-18.5644	5.98022
 134	1	8	0.179912	9.51367	-16.3003	10.2657
 135	1	8	0.155197	11.0458	-18.0424	9.27164
 136	1	9	0.340258	12.4265	-18.4066	2.98472
 137	1	8	0.137111	11.1949	-20.7309	8.31835
 138	1	8	0.181656	12.9574	-21.925	6.95257
 139	1	8	0.164633	10.6436	-17.8979	5.07955
 140	1	9	0.430928	6.17959	-16.7829	6.15149
 141	1	8	0.141007	15.0951	-18.3985	-0.653425
 142	1	8	0.203537	17.064	-19.8823	-0.713409
 143	1	8	0.116715	13.5119	-18.514	1.2217
 144	1	8	0.18244	15.7924	-21.743	2.96725
 145	1	1	-0.155485	4.92654	-5.47955	12.6636
 146	1	2	-0.03785	3.89828	-5.90252	11.7751
 147	1	1	-0.234781	2.43439	-4.09345	12.627
 148	1	1	0.378053	3.49112	-3.66389	13.4242
 149	1	1	-0.208553	2.6448	-5.22226	11.8121
 150	1	3	-0.411858	5.04681	-10.3619	9.56016
 151	1	1	-0.147234	3.69294	-6.47875	9.36955
 152	1	1	0.107751	4.6662	-4.36649	13.4817
 153	1	4	0.626409	4.78788	-2.50888	14.6423
 154	1	2	0.00453	4.1205	-6.88441	10.6664
 155	1	1	0.356173	4.19221	-8.64124	8.48659
 156	1	1	0.030551	4.6811	-9.04224	9.70233
 157	1	1	-0.286062	3.71794	-7.35331	8.27265
 158	1	5	-0.595919	4.17264	-9.63295	7.58843
 159	1	1	-0.206338	4.66009	-8.19692	10.8318
 160	1	6	0.462884	4.67041	-10.6872	8.2458
 161	1	3	-0.691987	5.50277	-3.67393	14.313
 162	1	7	-0.710982	3.55097	-2.51332	14.1211
 163	1	1	-0.062645	4.13045	-13.3803	5.65592
 164	1	1	0.026743	4.75085	-12.0122	7.59057
 165	1	1	-0.399843	4.82493	-14.4649	6.19592
 166	1	1	-0.107518	4.12252	-12.1619	6.33507
 167	1	1	0.292439	5.5261	-14.3518	7.42056
 168	1	1	-0.410418	5.43447	-13.1293	8.13556
 169	1	8	0.148547	5.90775	-5.94118	12.6404
 170	1	8	0.179912	1.50923	-3.52826	12.5988
 171	1	8	0.155197	1.84832	-5.54242	11.1438
 172	1	9	0.340258	5.40227	-10.992	10.2575
 173	1	8	0.137111	3.30815	-5.47233	9.22596
 174	1	8	0.181656	3.34906	-7.06214	7.29536
 175	1	8	0.164633	4.98281	-8.54834	11.8062
 176	1	9	0.430928	6.47385	-3.84794	14.4909
 177	1	8	0.141007	3.619	-13.4691	4.69947
 178	1	8	0.203537	4.84396	-15.3859	5.62699
 179	1	8	0.116715	3.59079	-11.3298	5.88121
 180	1	8	0.18244	5.97449	-13.0369	9.07345
 181	1	1	-0.155485	1.57914	8.48426	14.5625
 182	1	2	-0.03785	2.09158	7.36013	13.8609
 183	1	1	-0.234781	0.96256	8.16169	11.8082
 184	1	1	0.378053	0.44887	9.22961	12.5484
 185	1	1	-0.208553	1.78223	7.22162	12.4756
 186	1	3	-0.411858	3.5789	2.6978	15.102
 187	1	1	-0.147234	3.92906	6.77572	15.4929
 188	1	1	0.107751	0.769554	9.38626	13.8683
 189	1	4	0.626409	-0.710332	10.8696	13.2551
 190	1	2	0.00453	2.92252	6.34684	14.5803
 191	1	1	0.356173	4.51355	4.49144	15.9727
 192	1	1	0.030551	3.53281	4.06448	15.1183
 193	1	1	-0.286062	4.73643	5.85172	16.1891
 194	1	5	-0.595919	5.22073	3.46544	16.4833
 195	1	1	-0.206338	2.72382	4.95007	14.3906
 196	1	6	0.462884	4.66926	2.37853	15.921
 197	1	3	-0.691987	0.0784903	10.4634	14.34
 198	1	7	-0.710982	-0.452807	10.1486	12.1473
 199	1	1	-0.062645	7.10811	-0.379705	16.7961
 200	1	1	0.026743	5.24749	1.02514	16.0598
 201	1	1	-0.399843	6.57822	-1.46852	16.0877
 202	1	1	-0.107518	6.44758	0.855309	16.7778
 203	1	1	0.292439	5.3456	-1.35864	15.4063
 204	1	1	-0.410418	4.6833	-0.106964	15.4257
 205	1	8	0.148547	1.7703	8.61269	15.6223
 206	1	8	0.179912	0.699433	8.05404	10.7613
 207	1	8	0.155197	2.18434	6.3765	11.922
 208	1	9	0.340258	3.04417	2.0622	14.5368
 209	1	8	0.137111	4.10324	7.8395	15.6304
 210	1	8	0.181656	5.52798	6.17212	16.8574
 211	1	8	0.164633	1.95918	4.58416	13.7131
 212	1	9	0.430928	0.00690539	10.7802	15.2881
 213	1	8	0.141007	8.04536	-0.478714	17.3399
 214	1	8	0.203537	7.10988	-2.41303	16.1048
 215	1	8	0.116715	6.89866	1.70034	17.292
 216	1	8	0.18244	3.75006	-0.0144477	14.8785
 217	1	1	-0.155485	-9.81953	8.79004	8.8307
 218	1	2	-0.03785	-8.6917	9.27167	9.55658
 219	1	1	-0.234781	-8.79676	7.30198	11.0413
 220	1	1	0.378053	-9.9173	6.88423	10.3342
 221	1	1	-0.208553	-8.17493	8.49096	10.6295
 222	1	3	-0.411858	-4.76656	11.9598	10.2356
 223	1	1	-0.147234	-8.82366	11.7609	9.87334
 224	1	1	0.107751	-10.3691	7.55687	9.22877
 225	1	4	0.626409	-11.684	5.88085	9.7419
 226	1	2	0.00453	-8.09301	10.6288	9.41037
 227	1	1	0.356173	-6.75941	12.8718	10.4381
 228	1	1	0.030551	-6.05867	11.8634	9.82886
 229	1	1	-0.286062	-8.15723	12.8941	10.3973
 230	1	5	-0.595919	-5.9827	13.5628	11.3035
 231	1	1	-0.206338	-6.68073	10.7162	9.33373
 232	1	6	0.462884	-4.80957	12.9097	11.2536
 233	1	3	-0.691987	-11.4683	6.87377	8.76787
 234	1	7	-0.710982	-10.7315	5.87935	10.6838
 235	1	1	-0.062645	-3.13522	13.5086	14.5979
 236	1	1	0.026743	-3.78761	12.9364	12.3171
 237	1	1	-0.399843	-2.05498	12.6121	14.5234
 238	1	1	-0.107518	-3.99645	13.6678	13.5012
 239	1	1	0.292439	-1.79382	11.8889	13.337
 240	1	1	-0.410418	-2.65577	12.0932	12.2395
 241	1	8	0.148547	-10.2556	9.37282	8.026
 242	1	8	0.179912	-8.46271	6.74755	11.9113
 243	1	8	0.155197	-7.33473	8.86974	11.2074
 244	1	9	0.340258	-4.0422	11.275	10.1139
 245	1	8	0.137111	-9.89812	11.6726	10.012
 246	1	8	0.181656	-8.69886	13.6692	10.9289
 247	1	8	0.164633	-6.0937	9.83464	9.09627
 248	1	9	0.430928	-12.1356	7.1803	8.08362
 249	1	8	0.141007	-3.33684	14.0491	15.5209
 250	1	8	0.203537	-1.42697	12.4749	15.3964
 251	1	8	0.116715	-4.86906	14.3095	13.5959
 252	1	8	0.18244	-2.46618	11.5167	11.3403
 253	1	1	-0.155485	-16.5552	-0.450034	2.32049
 254	1	2	-0.03785	-17.247	-0.548471	3.56158
 255	1	1	-0.234781	-17.9958	-2.82754	2.92985
 256	1	1	0.378053	-17.2942	-2.69218	1.73293
 257	1	1	-0.208553	-17.9733	-1.74698	3.8365
 258	1	3	-0.411858	-15.0838	2.91313	6.56954
 259	1	1	-0.147234	-18.4021	0.80316	5.35192
 260	1	1	0.107751	-16.6263	-1.53613	1.43316
 261	1	4	0.626409	-16.4184	-3.01145	-0.182571
 262	1	2	0.00453	-17.2255	0.546424	4.58818
 263	1	1	0.356173	-17.1939	2.30951	6.77531
 264	1	1	0.030551	-16.0821	2.17223	5.98758
 265	1	1	-0.286062	-18.3912	1.67418	6.4584
 266	1	5	-0.595919	-16.9374	3.00242	7.89664
 267	1	1	-0.206338	-16.0402	1.27527	4.90437
 268	1	6	0.462884	-15.6478	3.3431	7.77894
 269	1	3	-0.691987	-16.077	-1.69898	0.18884
 270	1	7	-0.710982	-17.1596	-3.61595	0.762403
 271	1	1	-0.062645	-14.503	3.90256	11.3122
 272	1	1	0.026743	-14.8764	3.90934	8.90109
 273	1	1	-0.399843	-13.2732	4.54137	11.1197
 274	1	1	-0.107518	-15.3199	3.63305	10.2098
 275	1	1	0.292439	-12.8815	5.0057	9.84565
 276	1	1	-0.410418	-13.6749	4.64157	8.7299
 277	1	8	0.148547	-16.0014	0.445574	2.06325
 278	1	8	0.179912	-18.531	-3.74668	3.14387
 279	1	8	0.155197	-18.4979	-1.85097	4.78345
 280	1	9	0.340258	-14.1006	2.87795	6.36577
 281	1	8	0.137111	-19.3232	0.281101	5.10712
 282	1	8	0.181656	-19.265	1.81834	7.08466
 283	1	8	0.164633	-15.114	1.08388	4.37334
 284	1	9	0.430928	-15.5546	-1.03473	-0.349018
 285	1	8	0.141007	-14.8211	3.60904	12.3106
 286	1	8	0.203537	-12.6553	4.77569	11.9846
 287	1	8	0.116715	-16.249	3.09181	10.3698
 288	1	8	0.18244	-13.3502	4.92098	7.73343
 289	1	1	-0.155485	-11.1594	0.724194	-9.80733
 290	1	2	-0.03785	-11.8489	0.707475	-8.56102
 291	1	1	-0.234781	-10.8084	2.85262	-7.93894
 292	1	1	0.378053	-10.1564	2.84034	-9.1673
 293	1	1	-0.208553	-11.6482	1.76896	-7.63788
 294	1	3	-0.411858	-13.5299	-2.33876	-5.08283
 295	1	1	-0.147234	-14.0986	-0.473373	-8.68901
 296	1	1	0.107751	-10.2963	1.80589	-10.0543
 297	1	4	0.626409	-9.19359	3.4696	-10.9442
 298	1	2	0.00453	-12.7916	-0.3576	-8.13223
 299	1	1	0.356173	-14.7549	-1.92484	-6.87419
 300	1	1	0.030551	-13.5092	-1.78207	-6.32533
 301	1	1	-0.286062	-15.0869	-1.2766	-8.06955
 302	1	5	-0.595919	-15.5601	-2.6597	-6.07879
 303	1	1	-0.206338	-12.4962	-1.03836	-6.92652
 304	1	6	0.462884	-14.8148	-2.86583	-4.98137
 305	1	3	-0.691987	-9.58424	2.13792	-11.1805
 306	1	7	-0.710982	-9.45992	3.85622	-9.68819
 307	1	1	-0.062645	-16.1442	-5.68728	-2.88863
 308	1	1	0.026743	-15.2891	-3.60735	-3.80922
 309	1	1	-0.399843	-16.3701	-5.04499	-1.66293
 310	1	1	-0.107518	-15.663	-4.94915	-3.97419
 311	1	1	0.292439	-16.0558	-3.6805	-1.46825
 312	1	1	-0.410418	-15.4299	-2.99314	-2.54008
 313	1	8	0.148547	-11.3014	-0.0663598	-10.5371
 314	1	8	0.179912	-10.7012	3.70242	-7.27408
 315	1	8	0.155197	-12.195	1.76265	-6.69772
 316	1	9	0.340258	-12.7564	-2.51715	-4.46631
 317	1	8	0.137111	-14.3615	0.127651	-9.55662
 318	1	8	0.181656	-16.103	-1.32662	-8.44782
 319	1	8	0.164633	-11.5329	-0.907546	-6.4447
 320	1	9	0.430928	-9.65772	1.70676	-12.0825
 321	1	8	0.141007	-16.3768	-6.74305	-3.01018
 322	1	8	0.203537	-16.8121	-5.60731	-0.843024
 323	1	8	0.116715	-15.5209	-5.43259	-4.93751
 324	1	8	0.18244	-15.2041	-1.93675	-2.44272
 325	1	1	-0.155485	-17.0154	4.26987	-12.552
 326	1	2	-0.03785	-15.862	4.50297	-13.3526
 327	1	1	-0.234781	-17.2924	4.60418	-15.3413
 328	1	1	0.378053	-18.3733	4.69591	-14.4683
 329	1	1	-0.208553	-16.0174	4.45045	-14.7698
 330	1	3	-0.411858	-11.7939	7.41482	-13.6187
 331	1	1	-0.147234	-14.4509	5.28037	-11.3459
 332	1	1	0.107751	-18.2752	4.28878	-13.1597
 333	1	4	0.626409	-19.7721	5.81255	-13.3373
 334	1	2	0.00453	-14.6692	5.2065	-12.7586
 335	1	1	0.356173	-12.6231	6.81808	-11.662
 336	1	1	0.030551	-12.8447	6.79575	-13.0077
 337	1	1	-0.286062	-13.4302	6.08534	-10.7904
 338	1	5	-0.595919	-11.4273	7.36239	-11.381
 339	1	1	-0.206338	-13.8277	5.99988	-13.5935
 340	1	6	0.462884	-10.8464	7.40266	-12.5927
 341	1	3	-0.691987	-19.3776	4.76341	-12.5114
 342	1	7	-0.710982	-19.277	5.68916	-14.5777
 343	1	1	-0.062645	-8.61498	5.02902	-14.3758
 344	1	1	0.026743	-9.61433	6.61591	-12.8225
 345	1	1	-0.399843	-8.54557	4.08359	-13.3359
 346	1	1	-0.107518	-9.22072	6.2723	-14.1314
 347	1	1	0.292439	-8.86717	4.45552	-12.0111
 348	1	1	-0.410418	-9.16236	5.80926	-11.7602
 349	1	8	0.148547	-16.9713	4.35681	-11.4746
 350	1	8	0.179912	-17.4007	4.92034	-16.3731
 351	1	8	0.155197	-15.1589	4.54546	-15.4248
 352	1	9	0.340258	-11.5685	7.31067	-14.5907
 353	1	8	0.137111	-15.0539	4.6871	-10.6672
 354	1	8	0.181656	-13.2054	6.07115	-9.72872
 355	1	8	0.164633	-13.9286	6.01307	-14.6696
 356	1	9	0.430928	-19.5011	4.77048	-11.5158
 357	1	8	0.141007	-8.36082	4.74462	-15.3946
 358	1	8	0.203537	-8.26083	3.06007	-13.5562
 359	1	8	0.116715	-9.49501	6.90235	-14.9725
 360	1	8	0.18244	-9.47263	6.06956	-10.7502
 361	1	1	-0.155485	-13.9044	14.7141	-14.4027
 362	1	2	-0.03785	-14.0129	13.9345	-13.2244
 363	1	1	-0.234781	-11.8622	12.8568	-13.7201
 364	1	1	0.378053	-11.8983	13.5004	-14.956
 365	1	1	-0.208553	-12.9309	13.0969	-12.8372
 366	1	3	-0.411858	-17.6758	10.6238	-13.2318
 367	1	1	-0.147234	-16.2701	14.3087	-12.0462
 368	1	1	0.107751	-12.796	14.5034	-15.2268
 369	1	4	0.626409	-11.9968	13.6834	-17.0625
 370	1	2	0.00453	-15.3687	13.5101	-12.802
 371	1	1	0.356173	-17.9105	12.5296	-12.1373
 372	1	1	0.030551	-17.0665	11.8019	-12.9279
 373	1	1	-0.286062	-17.5474	13.8081	-11.6907
 374	1	5	-0.595919	-19.0297	11.8313	-11.8485
 375	1	1	-0.206338	-15.7881	12.2371	-13.2627
 376	1	6	0.462884	-18.8624	10.6643	-12.4987
 377	1	3	-0.691987	-12.7369	14.7581	-16.5664
 378	1	7	-0.710982	-11.3969	12.9799	-16.0891
 379	1	1	-0.062645	-21.3131	8.28755	-10.901
 380	1	1	0.026743	-19.7307	9.48391	-12.3213
 381	1	1	-0.399843	-21.0154	7.09201	-11.5712
 382	1	1	-0.107518	-20.6773	9.47702	-11.2803
 383	1	1	0.292439	-20.1881	7.09147	-12.7134
 384	1	1	-0.410418	-19.5582	8.30192	-13.0828
 385	1	8	0.148547	-14.7672	15.2535	-14.7787
 386	1	8	0.179912	-11.1649	12.0434	-13.5499
 387	1	8	0.155197	-13.0444	12.4585	-11.9633
 388	1	9	0.340258	-17.2703	9.81427	-13.6691
 389	1	8	0.137111	-15.9592	15.2971	-11.7176
 390	1	8	0.181656	-18.234	14.3812	-11.0784
 391	1	8	0.164633	-15.1254	11.6213	-13.8644
 392	1	9	0.430928	-13.3917	15.2981	-17.0997
 393	1	8	0.141007	-21.9947	8.28842	-10.0535
 394	1	8	0.203537	-21.4813	6.167	-11.2449
 395	1	8	0.116715	-20.8475	10.377	-10.6953
 396	1	8	0.18244	-18.8372	8.27314	-13.8954
 397	1	1	-0.155485	-6.48117	6.63335	-20.2006
 398	1	2	-0.03785	-7.3833	6.40342	-21.2715
 399	1	1	-0.234781	-5.45974	6.15616	-22.8049
 400	1	1	0.378053	-4.60832	6.41573	-21.7255
 401	1	1	-0.208553	-6.85671	6.16966	-22.5742
 402	1	3	-0.411858	-11.1135	9.52292	-21.5861
 403	1	1	-0.147234	-9.43027	6.23713	-19.8153
 404	1	1	0.107751	-5.11603	6.63761	-20.4763
 405	1	4	0.626409	-2.95451	6.93316	-20.4855
 406	1	2	0.00453	-8.82492	6.67907	-21.0262
 407	1	1	0.356173	-11.0366	8.00761	-19.9837
 408	1	1	0.030551	-10.5926	8.30895	-21.2456
 409	1	1	-0.286062	-10.5448	6.91025	-19.277
 410	1	5	-0.595919	-11.6972	9.04078	-19.4345
 411	1	1	-0.206338	-9.4594	7.69493	-21.7867
 412	1	6	0.462884	-11.643	9.98828	-20.3836
 413	1	3	-0.691987	-4.08369	6.97574	-19.6573
 414	1	7	-0.710982	-3.26684	6.5675	-21.7434
 415	1	1	-0.062645	-12.3753	13.6849	-20.8626
 416	1	1	0.026743	-11.893	11.4128	-20.1175
 417	1	1	-0.399843	-12.3857	14.1272	-19.5284
 418	1	1	-0.107518	-12.0999	12.3396	-21.157
 419	1	1	0.292439	-12.0531	13.2444	-18.4774
 420	1	1	-0.410418	-11.8446	11.89	-18.7946
 421	1	8	0.148547	-6.84423	6.89555	-19.2124
 422	1	8	0.179912	-5.04374	6.01161	-23.796
 423	1	8	0.155197	-7.54139	6.03469	-23.4082
 424	1	9	0.340258	-10.8559	10.0921	-22.3719
 425	1	8	0.137111	-8.93551	5.47165	-19.2234
 426	1	8	0.181656	-10.9063	6.70328	-18.2766
 427	1	8	0.164633	-8.96669	8.11785	-22.6561
 428	1	9	0.430928	-4.11674	7.20803	-18.6838
 429	1	8	0.141007	-12.5757	14.3841	-21.6722
 430	1	8	0.203537	-12.5695	15.1755	-19.317
 431	1	8	0.116715	-12.1152	12.0103	-22.1912
 432	1	8	0.18244	-11.6378	11.1912	-17.9853
 433	1	1	-0.155485	-1.56149	14.4349	-13.7296
 434	1	2	-0.03785	-0.673052	13.9579	-14.7245
 435	1	1	-0.234781	-1.1165	15.9584	-16.1056
 436	1	1	0.378053	-1.96444	16.4097	-15.0982
 437	1	1	-0.208553	-0.470476	14.7235	-15.9073
 438	1	3	-0.411858	-0.867955	9.38872	-16.274
 439	1	1	-0.147234	1.34285	12.4669	-14.7639
 440	1	1	0.107751	-2.17443	15.669	-13.9642
 441	1	4	0.626409	-3.32399	17.5184	-13.9217
 442	1	2	0.00453	-0.0702828	12.6065	-14.6864
 443	1	1	0.356173	1.07035	10.2856	-15.7318
 444	1	1	0.030551	-0.283343	10.3614	-15.5247
 445	1	1	-0.286062	1.92778	11.2934	-15.2844
 446	1	5	-0.595919	1.37905	9.34953	-16.6512
 447	1	1	-0.206338	-0.898014	11.5105	-15.0245
 448	1	6	0.462884	0.181083	8.89726	-17.0519
 449	1	3	-0.691987	-3.07121	16.3447	-13.1981
 450	1	7	-0.710982	-2.66432	17.5578	-15.0891
 451	1	1	-0.062645	0.819398	7.47799	-20.4956
 452	1	1	0.026743	-0.0405358	8.18054	-18.3217
 453	1	1	-0.399843	-0.480221	7.1488	-20.9063
 454	1	1	-0.107518	1.03595	7.98458	-19.2078
 455	1	1	0.292439	-1.57974	7.28345	-20.0345
 456	1	1	-0.410418	-1.33877	7.79578	-18.7363
 457	1	8	0.148547	-1.76391	13.8602	-12.8317
 458	1	8	0.179912	-0.985954	16.5413	-17.0107
 459	1	8	0.155197	0.170138	14.3239	-16.6906
 460	1	9	0.340258	-1.84508	9.29187	-16.4734
 461	1	8	0.137111	1.96927	13.3329	-14.5628
 462	1	8	0.181656	2.98894	11.241	-15.5025
 463	1	8	0.164633	-1.97384	11.6393	-15.0871
 464	1	9	0.430928	-3.37083	16.1376	-12.2635
 465	1	8	0.141007	1.65634	7.36962	-21.1822
 466	1	8	0.203537	-0.648667	6.77602	-21.9146
 467	1	8	0.116715	2.04007	8.28747	-18.9214
 468	1	8	0.18244	-2.17474	7.93945	-18.0657
 469	1	1	-0.155485	-11.8935	21.9235	-8.88049
 470	1	2	-0.03785	-11.9646	20.5108	-8.91895
 471	1	1	-0.234781	-14.194	20.6642	-9.96974
 472	1	1	0.378053	-14.0552	22.0573	-9.95757
 473	1	1	-0.208553	-13.1253	19.8871	-9.46203
 474	1	3	-0.411858	-8.04505	18.7582	-11.0761
 475	1	1	-0.147234	-9.80041	20.1674	-7.67871
 476	1	1	0.107751	-12.9506	22.6472	-9.41116
 477	1	4	0.626409	-14.2462	24.1557	-10.2744
 478	1	2	0.00453	-10.6798	19.7969	-8.73688
 479	1	1	0.356173	-7.91505	19.4895	-9.00454
 480	1	1	0.030551	-8.77155	19.0061	-9.95958
 481	1	1	-0.286062	-8.40271	20.0161	-7.80686
 482	1	5	-0.595919	-6.65776	19.6104	-9.47947
 483	1	1	-0.206338	-10.1538	19.1503	-9.87834
 484	1	6	0.462884	-6.75725	19.1531	-10.7346
 485	1	3	-0.691987	-13.0266	23.987	-9.61899
 486	1	7	-0.710982	-14.8743	22.982	-10.4975
 487	1	1	-0.062645	-5.17806	20.8428	-13.697
 488	1	1	0.026743	-5.80198	19.456	-11.7931
 489	1	1	-0.399843	-4.34208	19.8153	-14.1609
 490	1	1	-0.107518	-5.91499	20.6555	-12.5188
 491	1	1	0.292439	-4.20895	18.6049	-13.4466
 492	1	1	-0.410418	-4.96193	18.4389	-12.2676
 493	1	8	0.148547	-10.9873	22.4299	-8.56599
 494	1	8	0.179912	-15.0696	20.2095	-10.4207
 495	1	8	0.155197	-13.1601	18.8023	-9.53995
 496	1	9	0.340258	-8.37855	18.5522	-12.002
 497	1	8	0.137111	-10.1994	20.711	-6.82601
 498	1	8	0.181656	-7.71628	20.4259	-7.07377
 499	1	8	0.164633	-10.7789	18.967	-10.7468
 500	1	9	0.430928	-12.4007	24.702	-9.3007
 501	1	8	0.141007	-5.27339	21.7696	-14.2595
 502	1	8	0.203537	-3.77754	19.9496	-15.0818
 503	1	8	0.116715	-6.60138	21.4287	-12.1831
 504	1	8	0.18244	-4.92906	17.5021	-11.723
 505	1	1	-0.155485	-22.9376	22.5174	-11.1095
 506	1	2	-0.03785	-23.3549	23.7765	-11.6167
 507	1	1	-0.234781	-25.3797	22.7097	-12.5402
 508	1	1	0.378053	-24.9109	21.4811	-12.0613
 509	1	1	-0.208553	-24.5952	23.865	-12.3078
 510	1	3	-0.411858	-18.794	25.4767	-12.0973
 511	1	1	-0.147234	-22.6821	26.225	-11.1421
 512	1	1	0.107751	-23.7446	21.4081	-11.3497
 513	1	4	0.626409	-24.5938	19.4345	-11.627
 514	1	2	0.00453	-22.3851	24.9038	-11.5933
 515	1	1	0.356173	-20.3671	26.8685	-11.4499
 516	1	1	0.030551	-20.12	25.6116	-11.9264
 517	1	1	-0.286062	-21.6679	27.2175	-11.0616
 518	1	5	-0.595919	-19.2159	27.5693	-11.2898
 519	1	1	-0.206338	-21.0707	24.6085	-12.0094
 520	1	6	0.462884	-18.272	26.6583	-11.5887
 521	1	3	-0.691987	-23.5155	20.0991	-11.049
 522	1	7	-0.710982	-25.4528	20.2569	-12.2412
 523	1	1	-0.062645	-14.8954	27.9205	-10.392
 524	1	1	0.026743	-16.8515	26.7367	-11.2285
 525	1	1	-0.399843	-14.2044	26.7013	-10.2637
 526	1	1	-0.107518	-16.2328	27.9309	-10.8227
 527	1	1	0.292439	-14.8354	25.4805	-10.593
 528	1	1	-0.410418	-16.1175	25.5353	-11.1561
 529	1	8	0.148547	-21.9902	22.4111	-10.5907
 530	1	8	0.179912	-26.2983	22.7474	-13.1143
 531	1	8	0.155197	-24.9029	24.8203	-12.7267
 532	1	9	0.340258	-18.2791	24.6431	-12.3157
 533	1	8	0.137111	-23.6874	26.4533	-10.7974
 534	1	8	0.181656	-21.8619	28.2007	-10.6464
 535	1	8	0.164633	-20.8008	23.6166	-12.3567
 536	1	9	0.430928	-22.766	19.6996	-10.5144
 537	1	8	0.141007	-14.4158	28.8545	-10.1072
 538	1	8	0.203537	-13.1974	26.7053	-9.86268
 539	1	8	0.116715	-16.7871	28.8654	-10.856
 540	1	8	0.18244	-16.5898	24.5872	-11.3877
 541	1	8	0	29.156	-37.2495	28.2969
 542	1	10	0	-24.69	18.359	-11.5617

Velocities

   1	-0.000123917	-0.000220569	0.000139679
   2	-0.000108465	-1.39551e-05	-7.51113e-05
   3	-2.022e-05	0.000354543	0.000137316
   4	-0.000153705	6.52303e-05	0.000550163
   5	-0.000202677	8.90689e-05	-8.79277e-05
   6	-3.47764e-05	-0.000282356	-0.000669748
   7	0.000171901	-2.54131e-07	-0.000205574
   8	-0.000274045	0.000205539	0.000488433
   9	0.000101171	-4.80654e-05	0.000381379
  10	-2.80311e-05	-0.000130032	-0.000390682
  11	0.000175162	0.000127167	7.51973e-05
  12	-0.000293721	-0.000158396	-0.000530883
  13	7.45876e-05	0.000325732	0.000141917
  14	-0.000133792	0.000293506	0.00033496
  15	2.20247e-05	-0.00034736	-0.000660633
  16	-0.000157266	-2.45717e-05	-0.000188114
  17	-7.61485e-05	-3.65402e-05	0.000568952
  18	3.71485e-05	0.000205189	0.00043592
  19	0.000202888	0.000202107	0.00048431
  20	-0.000354446	-7.74922e-05	-0.00017632
  21	4.9116e-06	0.000173536	0.000218286
  22	-0.000139024	0.000143343	0.000442997
  23	-0.000100168	-8.94821e-05	-0.000443022
  24	-0.000340468	-0.000345416	-0.000777957
  25	3.10666e-05	-0.000323257	0.000110526
  26	0.000126973	0.00023029	-9.71137e-05
  27	-0.000144326	5.49385e-05	-0.000156702
  28	4.79544e-05	-8.13008e-05	-0.00109298
  29	-1.31434e-05	0.000132542	-0.000242129
  30	7.61679e-05	0.00053564	0.000535238
  31	-0.000284205	-0.000534773	-0.000929417
  32	-0.000182019	-0.000181598	0.000701167
  33	0.000173699	0.000286696	0.000957913
  34	-0.000218779	0.000419569	0.000497557
  35	-0.000461604	0.000643713	0.000741595
  36	-0.00101753	-0.000698282	-0.00126321
  37	0.000204258	5.21328e-05	0.000355011
  38	-6.34871e-06	0.000241544	0.00051792
  39	0.000229911	3.20506e-05	0.000390325
  40	0.000502951	-0.000133639	0.000201358
  41	0.00010109	0.000196782	0.000643728
  42	0.000331477	0.000247016	0.000500012
  43	-0.000240276	0.00056543	0.000743857
  44	0.000431267	-0.000120359	3.21822e-07
  45	0.000396313	-0.000185532	-8.39885e-05
  46	-0.000103223	0.00047625	0.000807036
  47	-5.1836e-05	0.000541485	0.000696865
  48	8.24388e-05	0.000497094	0.000794378
  49	-0.000173618	0.000622391	0.000848132
  50	0.000206595	0.000352399	0.000668468
  51	-7.959e-05	0.000496386	0.000731045
  52	0.000397409	0.000228203	0.000454341
  53	0.00052838	-0.000177755	-5.92879e-05
  54	0.000517705	-0.00014667	3.25491e-05
  55	0.00107669	-0.000405534	3.19195e-05
  56	0.000600265	-5.92527e-05	0.000340158
  57	0.000839945	-0.000380603	4.87911e-05
  58	0.000839223	-0.000219065	0.000159655
  59	0.000494173	-0.000228021	0.000297633
  60	0.000450313	-5.67989e-05	0.000354338
  61	7.40395e-05	0.000106627	0.000285124
  62	0.00015373	-2.59959e-05	0.000663419
  63	-6.74661e-05	0.000290192	0.000816125
  64	0.00088639	-0.000125992	0.000179215
  65	-0.000195046	0.000534497	0.000750827
  66	-0.000196262	0.00065667	0.000738007
  67	6.17829e-05	0.00037182	0.000839573
  68	0.000641953	-0.000260204	-0.000140959
  69	0.00137265	-0.000580267	-9.12498e-05
  70	0.00101839	-0.000487163	-5.64442e-05
  71	0.000910593	-0.000287681	0.000205919
  72	0.000110807	0.000184741	0.000472158
  73	0.000108827	0.000616088	4.37277e-06
  74	0.000184712	0.000161136	-0.000235642
  75	0.000147407	-6.38411e-05	-0.000586722
  76	0.000127444	0.000297053	-0.000402685
  77	0.000135188	6.50442e-06	-0.00040334
  78	0.000424002	-0.000333254	-0.00040688
  79	0.000465837	-0.000235901	-0.000403819
  80	8.84508e-05	0.000674371	-0.000129396
  81	1.9419e-05	0.000766457	6.27282e-05
  82	0.000360663	-0.000103807	-0.000349049
  83	0.00054876	-0.000328092	-0.000431372
  84	0.000455363	-0.000264302	-0.000423112
  85	0.000643653	-0.000392315	-0.000468729
  86	0.000589128	-0.000386628	-0.00039883
  87	0.000458073	-0.000236676	-0.000388128
  88	0.000469091	-0.000407026	-0.000375785
  89	5.10349e-05	0.00108802	0.000201372
  90	0.000125405	0.000468215	-0.000223137
  91	-9.47443e-06	-0.000236134	-0.000467299
  92	0.000374186	-0.000429153	-0.000317206
  93	-0.00024697	1.13084e-05	-0.000312211
  94	0.000355269	-0.000528332	-0.000463166
  95	0.000171147	-0.000131174	-0.00019266