pySIMM System Object

578 atoms
657 bonds
1088 angles
1724 dihedrals
192 impropers

10 atom types
15 bond types
26 angle types
12 dihedral types
2 improper types

-124.304353 124.304353 xlo xhi
-124.304353 124.304353 ylo yhi
-124.304353 124.304353 zlo zhi

Masses

   1	12.01	# ca
   2	12.01	# cp
   3	14.01	# na
   4	12.01	# cc
   5	14.01	# nc
   6	12.01	# cd
   7	14.01	# nd
   8	1.008	# ha
   9	1.008	# hn
  10	1.008	# h5

Pair Coeffs

   1	0.086	3.3996695084235347	# ca
   2	0.086	3.3996695084235347	# cp
   3	0.17	3.249998523775958	# na
   4	0.086	3.3996695084235347	# cc
   5	0.17	3.249998523775958	# nc
   6	0.086	3.3996695084235347	# cd
   7	0.17	3.249998523775958	# nd
   8	0.015	2.59964245953351	# ha
   9	0.0157	1.069078461768407	# hn
  10	0.015	2.421462715905442	# h5

Bond Coeffs

   1	425.8	1.3802	# cd,na
   2	525.4	1.3172	# cc,nd
   3	345.8	1.086	# ca,ha
   4	351.4	1.4854	# cp,cp
   5	467.7	1.3517	# ca,nc
   6	385.1	1.4555	# ca,cd
   7	467.7	1.3517	# ca,nd
   8	525.4	1.3172	# cd,nc
   9	450.2	1.4058	# ca,cp
  10	425.8	1.3802	# cc,na
  11	420.5	1.384	# ca,na
  12	351.7	1.0819	# cc,h5
  13	461.1	1.3984	# ca,ca
  14	408.4	1.01	# hn,na
  15	385.1	1.4555	# ca,cc

Angle Coeffs

   1	48.18	119.88	# ca,ca,ha
   2	66.28	123.45	# ca,cd,na
   3	64.05	121.11	# ca,cp,cp
   4	46.75	125.5	# cc,na,hn
   5	67.6	123.24	# ca,cd,nc
   6	46.75	125.5	# cd,na,hn
   7	72.48	104.88	# ca,nc,cd
   8	74.9	112.22	# na,cd,nc
   9	66.62	120.02	# ca,ca,ca
  10	46.63	125.54	# ca,na,hn
  11	65.02	120.79	# ca,ca,cd
  12	47.98	119.86	# cp,ca,ha
  13	69.46	119.72	# ca,ca,nc
  14	72.48	104.88	# ca,nd,cc
  15	69.08	118.34	# ca,ca,na
  16	66.72	118.38	# ca,cp,ca
  17	69.46	119.72	# ca,ca,nd
  18	74.9	112.22	# na,cc,nd
  19	67.4	113.15	# ca,na,cc
  20	66.26	120.69	# ca,ca,cp
  21	50.58	125.52	# h5,cc,nd
  22	67.4	113.15	# ca,na,cd
  23	49.58	121.55	# h5,cc,na
  24	66.28	123.45	# ca,cc,na
  25	67.6	123.24	# ca,cc,nd
  26	65.02	120.79	# ca,ca,cc

Dihedral Coeffs

   1	1	4.8	2	180	# X,ca,nc,X
   2	1	4.8	2	180	# X,ca,nd,X
   3	1	4.0	2	180	# X,ca,cd,X
   4	1	4.75	2	180	# X,cd,nc,X
   5	1	4.75	2	180	# X,cc,nd,X
   6	1	1.7	2	180	# X,cc,na,X
   7	1	1.0	2	180	# X,cp,cp,X
   8	1	3.625	2	180	# X,ca,cp,X
   9	1	0.3	2	180	# X,ca,na,X
  10	1	1.7	2	180	# X,cd,na,X
  11	1	3.625	2	180	# X,ca,ca,X
  12	1	4.0	2	180	# X,ca,cc,X

Improper Coeffs

   1	1.1	-1	2	# na,X,X,hn
   2	1.1	-1	2	# ca,X,X,ha

Atoms

   1	1	1	-0.155485	0.94718	55.6601	17.7453
   2	1	2	-0.03785	1.83471	54.9587	18.6085
   3	1	1	-0.234781	1.976	53.1322	16.9451
   4	1	1	0.378053	1.05008	53.8222	16.1635
   5	1	1	-0.208553	2.36715	53.7103	18.1711
   6	1	3	-0.411858	2.08226	54.2456	23.5436
   7	1	1	-0.147234	2.19357	56.8071	20.3409
   8	1	1	0.107751	0.594233	55.0592	16.5307
   9	1	4	0.626409	-0.499387	54.3076	14.7935
  10	1	2	0.00453	2.07105	55.4248	20.01
  11	1	1	0.356173	2.25782	56.2695	22.6941
  12	1	1	0.030551	2.16361	54.9425	22.378
  13	1	1	-0.286062	2.29495	57.2374	21.6857
  14	1	5	-0.595919	2.23269	56.4666	24.0301
  15	1	1	-0.206338	2.06604	54.475	21.066
  16	1	6	0.462884	2.09867	55.228	24.5355
  17	1	3	-0.691987	-0.358044	55.4311	15.623
  18	1	7	-0.710982	0.395997	53.3483	15.0871
  19	1	1	-0.062645	1.69549	55.7106	28.2796
  20	1	1	0.026743	1.92629	54.9285	25.9702
  21	1	1	-0.399843	1.52478	54.3875	28.7162
  22	1	1	-0.107518	1.8968	55.9748	26.9153
  23	1	1	0.292439	1.55941	53.3334	27.7953
  24	1	1	-0.410418	1.75841	53.601	26.4333
  25	1	8	0.148547	0.482303	56.5881	18.0599
  26	1	8	0.179912	2.31829	52.15	16.6382
  27	1	8	0.155197	3.0523	53.1663	18.8164
  28	1	9	0.340258	1.95081	53.2594	23.6731
  29	1	8	0.137111	2.19627	57.5468	19.5449
  30	1	8	0.181656	2.36281	58.2878	21.9472
  31	1	8	0.164633	1.92515	53.4184	20.8657
  32	1	9	0.430928	-0.975378	56.2195	15.6714
  33	1	8	0.141007	1.6673	56.5327	28.9915
  34	1	8	0.203537	1.36388	54.1729	29.7681
  35	1	8	0.116715	2.01921	57.0039	26.5877
  36	1	8	0.18244	1.77363	52.7638	25.7465
  37	1	1	-0.155485	-2.52809	44.5502	11.5475
  38	1	2	-0.03785	-3.60375	45.2386	12.1607
  39	1	1	-0.234781	-4.02085	43.2626	13.595
  40	1	1	0.378053	-2.93482	42.627	12.9838
  41	1	1	-0.208553	-4.35695	44.5716	13.1698
  42	1	3	-0.411858	-2.42829	50.0774	12.4071
  43	1	1	-0.147234	-5.01035	47.1334	11.1877
  44	1	1	0.107751	-2.25144	43.2498	11.9755
  45	1	4	0.626409	-1.31116	41.3427	12.4807
  46	1	2	0.00453	-3.83511	46.6786	11.8523
  47	1	1	0.356173	-4.2691	49.4247	11.3918
  48	1	1	0.030551	-3.1365	48.9831	12.0204
  49	1	1	-0.286062	-5.23043	48.5115	10.9442
  50	1	5	-0.595919	-4.32952	50.7757	11.3614
  51	1	1	-0.206338	-2.87368	47.6333	12.2688
  52	1	6	0.462884	-3.22224	51.1592	12.0203
  53	1	3	-0.691987	-1.23487	42.4308	11.601
  54	1	7	-0.710982	-2.36879	41.4399	13.3091
  55	1	1	-0.062645	-3.58543	54.8924	12.6067
  56	1	1	0.026743	-2.92615	52.5479	12.4252
  57	1	1	-0.399843	-2.50699	55.1396	13.4742
  58	1	1	-0.107518	-3.80064	53.6014	12.0991
  59	1	1	0.292439	-1.59434	54.1117	13.8026
  60	1	1	-0.410418	-1.80229	52.8379	13.2305
  61	1	8	0.148547	-1.91959	45.0345	10.7911
  62	1	8	0.179912	-4.55094	42.7696	14.4026
  63	1	8	0.155197	-5.16628	45.1062	13.6624
  64	1	9	0.340258	-1.60832	50.1144	12.9861
  65	1	8	0.137111	-5.75309	46.4054	10.871
  66	1	8	0.181656	-6.13196	48.8694	10.4588
  67	1	8	0.164633	-1.98285	47.3229	12.8051
  68	1	9	0.430928	-0.514271	42.6144	10.9299
  69	1	8	0.141007	-4.28096	55.6905	12.3539
  70	1	8	0.203537	-2.379	56.1348	13.8851
  71	1	8	0.116715	-4.6692	53.4105	11.4735
  72	1	8	0.18244	-1.11303	52.0462	13.5032
  73	1	1	-0.155485	0.516569	31.9	19.1844
  74	1	2	-0.03785	-0.273642	32.6762	18.2942
  75	1	1	-0.234781	-2.12348	31.0527	18.5781
  76	1	1	0.378053	-1.28038	30.281	19.3819
  77	1	1	-0.208553	-1.61302	32.2571	18.0375
  78	1	3	-0.411858	-0.182059	36.9065	15.5119
  79	1	1	-0.147234	1.69469	33.5693	17.0118
  80	1	1	0.107751	-0.0298711	30.7273	19.7064
  81	1	4	0.626409	-0.309293	28.6701	20.3772
  82	1	2	0.00453	0.361914	33.7626	17.4832
  83	1	1	0.356173	1.54947	35.5559	15.6786
  84	1	1	0.030551	0.287037	35.79	16.1538
  85	1	1	-0.286062	2.29631	34.4616	16.1053
  86	1	5	-0.595919	1.90533	36.4359	14.7301
  87	1	1	-0.206338	-0.355433	34.9128	17.0429
  88	1	6	0.462884	0.838504	37.2393	14.6111
  89	1	3	-0.691987	0.594766	29.7407	20.4046
  90	1	7	-0.710982	-1.47839	29.0147	19.807
  91	1	1	-0.062645	1.83417	39.3698	11.6578
  92	1	1	0.026743	0.781871	38.3097	13.594
  93	1	1	-0.399843	0.790264	40.2986	11.5939
  94	1	1	-0.107518	1.83709	38.4011	12.6634
  95	1	1	0.292439	-0.274889	40.2722	12.5251
  96	1	1	-0.410418	-0.280489	39.2444	13.5018
  97	1	8	0.148547	1.54605	32.1661	19.3962
  98	1	8	0.179912	-3.10459	30.6753	18.3105
  99	1	8	0.155197	-2.21977	32.8143	17.3288
 100	1	9	0.340258	-1.08625	37.3384	15.5858
 101	1	8	0.137111	2.24091	32.6738	17.2921
 102	1	8	0.181656	3.28577	34.2857	15.6975
 103	1	8	0.164633	-1.37763	35.0868	17.3617
 104	1	9	0.430928	1.54965	29.7115	20.7042
 105	1	8	0.141007	2.64958	39.4018	10.9381
 106	1	8	0.203537	0.821134	41.0469	10.8118
 107	1	8	0.116715	2.66351	37.6959	12.6995
 108	1	8	0.18244	-1.09526	39.2203	14.2195
 109	1	1	-0.155485	-2.96637	17.4136	20.846
 110	1	2	-0.03785	-3.34744	18.2323	19.7529
 111	1	1	-0.234781	-3.45484	16.2128	18.3201
 112	1	1	0.378053	-3.0188	15.452	19.4103
 113	1	1	-0.208553	-3.62746	17.6079	18.5016
 114	1	3	-0.411858	-1.01093	22.4228	21.0619
 115	1	1	-0.147234	-4.23427	20.5985	19.3076
 116	1	1	0.107751	-2.83504	16.0429	20.6292
 117	1	4	0.626409	-2.22847	13.9482	20.6959
 118	1	2	0.00453	-3.27311	19.7184	19.8873
 119	1	1	0.356173	-2.94819	22.5185	20.02
 120	1	1	0.030551	-2.03345	21.6711	20.5802
 121	1	1	-0.286062	-4.08278	22.0061	19.3806
 122	1	5	-0.595919	-2.55746	23.8089	20.1267
 123	1	1	-0.206338	-2.14999	20.2823	20.5449
 124	1	6	0.462884	-1.36346	23.7353	20.7413
 125	1	3	-0.691987	-2.37556	15.0956	21.4845
 126	1	7	-0.710982	-2.64665	14.1494	19.4311
 127	1	1	-0.062645	1.67581	25.7397	21.7955
 128	1	1	0.026743	-0.473401	24.8846	21.004
 129	1	1	-0.399843	1.30632	27.0362	21.4146
 130	1	1	-0.107518	0.792282	24.6739	21.5897
 131	1	1	0.292439	0.0425152	27.2962	20.8327
 132	1	1	-0.410418	-0.834722	26.2036	20.6482
 133	1	8	0.148547	-2.73673	17.8458	21.8138
 134	1	8	0.179912	-3.59505	15.7409	17.3538
 135	1	8	0.155197	-3.89804	18.2275	17.6497
 136	1	9	0.340258	-0.150497	22.1072	21.4691
 137	1	8	0.137111	-5.09537	20.1789	18.7937
 138	1	8	0.181656	-4.79872	22.6832	18.9269
 139	1	8	0.164633	-1.36981	19.6513	20.9562
 140	1	9	0.430928	-2.09714	15.2108	22.4395
 141	1	8	0.141007	2.65308	25.5547	22.2373
 142	1	8	0.203537	2.01208	27.8427	21.5737
 143	1	8	0.116715	1.1132	23.6783	21.8753
 144	1	8	0.18244	-1.80303	26.3813	20.1821
 145	1	1	-0.155485	1.14335	3.79672	15.9183
 146	1	2	-0.03785	0.13539	4.77763	16.1183
 147	1	1	-0.234781	-1.09446	3.84049	14.1759
 148	1	1	0.378053	-0.0847422	2.88344	14.0291
 149	1	1	-0.208553	-0.978041	4.78735	15.2249
 150	1	3	-0.411858	-0.630603	9.07086	18.7237
 151	1	1	-0.147234	0.780034	5.21169	18.5151
 152	1	1	0.107751	0.984775	2.8813	14.8789
 153	1	4	0.626409	1.16461	1.26827	13.4186
 154	1	2	0.00453	0.218999	5.70033	17.2976
 155	1	1	0.356173	0.332224	7.29848	19.606
 156	1	1	0.030551	-0.196508	7.79902	18.4469
 157	1	1	-0.286062	0.84166	6.00559	19.6749
 158	1	5	-0.595919	0.247019	8.16951	20.6223
 159	1	1	-0.206338	-0.280786	7.03648	17.269
 160	1	6	0.462884	-0.360089	9.23915	20.0896
 161	1	3	-0.691987	1.795	1.85084	14.5249
 162	1	7	-0.710982	0.00928064	1.89085	13.1123
 163	1	1	-0.062645	-0.660968	11.4743	23.1193
 164	1	1	0.026743	-0.697493	10.4218	20.9104
 165	1	1	-0.399843	-1.26853	12.6165	22.5894
 166	1	1	-0.107518	-0.373887	10.3939	22.2831
 167	1	1	0.292439	-1.61633	12.6953	21.2198
 168	1	1	-0.410418	-1.33363	11.5788	20.3933
 169	1	8	0.148547	2.01732	3.74957	16.5581
 170	1	8	0.179912	-1.94782	3.82968	13.5068
 171	1	8	0.155197	-1.7754	5.50999	15.3775
 172	1	9	0.340258	-1.06829	9.73297	18.1075
 173	1	8	0.137111	1.13129	4.18617	18.5739
 174	1	8	0.181656	1.23827	5.62716	20.6106
 175	1	8	0.164633	-0.714046	7.4502	16.3646
 176	1	9	0.430928	2.68507	1.60367	14.9125
 177	1	8	0.141007	-0.406734	11.4211	24.176
 178	1	8	0.203537	-1.48014	13.4383	23.262
 179	1	8	0.116715	0.104348	9.52019	22.718
 180	1	8	0.18244	-1.59308	11.6388	19.3404
 181	1	1	-0.155485	-2.8011	-3.59244	4.18515
 182	1	2	-0.03785	-2.25534	-4.33181	5.26999
 183	1	1	-0.234781	-3.57605	-6.30619	4.59492
 184	1	1	0.378053	-4.06305	-5.56038	3.5244
 185	1	1	-0.208553	-2.65711	-5.68388	5.46066
 186	1	3	-0.411858	-0.0498263	-1.68378	8.96957
 187	1	1	-0.147234	0.119001	-4.503	5.98167
 188	1	1	0.107751	-3.69809	-4.25388	3.334
 189	1	4	0.626409	-4.87623	-5.00141	1.64482
 190	1	2	0.00453	-1.12544	-3.82315	6.09315
 191	1	1	0.356173	1.00883	-3.2183	7.79593
 192	1	1	0.030551	-0.168548	-2.52317	7.89243
 193	1	1	-0.286062	1.19972	-4.20244	6.82959
 194	1	5	-0.595919	1.87096	-2.89369	8.77095
 195	1	1	-0.206338	-1.27098	-2.79293	7.06397
 196	1	6	0.462884	1.2127	-1.98208	9.50032
 197	1	3	-0.691987	-4.23155	-3.85435	2.13754
 198	1	7	-0.710982	-4.81614	-6.02302	2.51469
 199	1	1	-0.062645	3.59799	-1.4677	12.3824
 200	1	1	0.026743	1.78525	-1.42234	10.7414
 201	1	1	-0.399843	2.97668	-0.44148	13.1021
 202	1	1	-0.107518	3.01403	-1.93684	11.2037
 203	1	1	0.292439	1.75702	0.128003	12.6645
 204	1	1	-0.410418	1.15771	-0.398715	11.494
 205	1	8	0.148547	-2.46769	-2.58153	3.97718
 206	1	8	0.179912	-3.84649	-7.35161	4.69729
 207	1	8	0.155197	-2.20552	-6.26185	6.26442
 208	1	9	0.340258	-0.74097	-1.07126	9.3653
 209	1	8	0.137111	0.221811	-5.29988	5.24879
 210	1	8	0.181656	2.13668	-4.74629	6.78067
 211	1	8	0.164633	-2.22108	-2.28665	7.20018
 212	1	9	0.430928	-4.13946	-2.96573	1.68296
 213	1	8	0.141007	4.53631	-1.89761	12.7272
 214	1	8	0.203537	3.45696	-0.0898195	14.0069
 215	1	8	0.116715	3.51862	-2.72887	10.6564
 216	1	8	0.18244	0.219533	0.0329781	11.1581
 217	1	1	-0.155485	-11.7324	-13.3478	-0.718576
 218	1	2	-0.03785	-11.4904	-12.0752	-0.145458
 219	1	1	-0.234781	-12.5546	-12.8464	1.95714
 220	1	1	0.378053	-12.6982	-14.1101	1.37972
 221	1	1	-0.208553	-11.9407	-11.8309	1.18668
 222	1	3	-0.411858	-7.8192	-8.70848	-0.408366
 223	1	1	-0.147234	-10.8022	-10.8117	-2.25762
 224	1	1	0.107751	-12.3424	-14.3223	0.074817
 225	1	4	0.626409	-12.579	-16.2089	1.12764
 226	1	2	0.00453	-10.637	-11.0832	-0.866732
 227	1	1	0.356173	-9.01863	-9.18452	-2.18603
 228	1	1	0.030551	-8.80742	-9.51024	-0.874503
 229	1	1	-0.286062	-10.0052	-9.84792	-2.92248
 230	1	5	-0.595919	-8.25643	-8.13433	-2.57132
 231	1	1	-0.206338	-9.59495	-10.4219	-0.169533
 232	1	6	0.462884	-7.57355	-7.82148	-1.45655
 233	1	3	-0.691987	-12.3849	-15.6614	-0.148813
 234	1	7	-0.710982	-12.9219	-15.2733	2.03055
 235	1	1	-0.062645	-6.07628	-4.3625	-1.94308
 236	1	1	0.026743	-6.77862	-6.59568	-1.25516
 237	1	1	-0.399843	-5.50027	-4.13853	-0.677576
 238	1	1	-0.107518	-6.7055	-5.58616	-2.23166
 239	1	1	0.292439	-5.51013	-5.15334	0.305491
 240	1	1	-0.410418	-6.14436	-6.37026	-0.0167684
 241	1	8	0.148547	-11.3466	-13.5924	-1.70192
 242	1	8	0.179912	-12.8022	-12.6998	3.00313
 243	1	8	0.155197	-11.7514	-10.8615	1.64171
 244	1	9	0.340258	-7.46709	-8.63911	0.529723
 245	1	8	0.137111	-11.5913	-11.3193	-2.80562
 246	1	8	0.181656	-10.1688	-9.58906	-3.96246
 247	1	8	0.164633	-9.41362	-10.6187	0.882174
 248	1	9	0.430928	-12.0119	-16.141	-0.942222
 249	1	8	0.141007	-6.05692	-3.58073	-2.69984
 250	1	8	0.203537	-5.03106	-3.18324	-0.470684
 251	1	8	0.116715	-7.18191	-5.73324	-3.19792
 252	1	8	0.18244	-6.15468	-7.14684	0.740127
 253	1	1	-0.155485	-4.76589	-15.1289	-2.55761
 254	1	2	-0.03785	-6.10067	-15.5537	-2.32571
 255	1	1	-0.234781	-6.86878	-13.21	-2.59077
 256	1	1	0.378053	-5.53697	-12.8334	-2.76058
 257	1	1	-0.208553	-7.14442	-14.5786	-2.37857
 258	1	3	-0.411858	-9.30016	-19.119	-1.27373
 259	1	1	-0.147234	-5.57556	-17.5506	-0.850417
 260	1	1	0.107751	-4.5387	-13.7691	-2.79063
 261	1	4	0.626409	-3.71175	-11.7497	-2.82718
 262	1	2	0.00453	-6.40083	-16.9366	-1.83961
 263	1	1	0.356173	-7.29825	-19.1698	-0.37557
 264	1	1	0.030551	-8.03169	-18.6674	-1.41943
 265	1	1	-0.286062	-6.02046	-18.6702	-0.10787
 266	1	5	-0.595919	-8.07556	-19.8565	0.494622
 267	1	1	-0.206338	-7.64102	-17.5448	-2.15216
 268	1	6	0.462884	-9.31014	-19.604	0.0326467
 269	1	3	-0.691987	-3.35349	-13.1039	-2.897
 270	1	7	-0.710982	-5.04404	-11.5804	-2.78508
 271	1	1	-0.062645	-11.2558	-19.0832	3.2329
 272	1	1	0.026743	-10.4242	-19.2895	0.947822
 273	1	1	-0.399843	-12.0665	-18.0047	2.8403
 274	1	1	-0.107518	-10.3884	-19.6746	2.301
 275	1	1	0.292439	-12.0847	-17.5646	1.50079
 276	1	1	-0.410418	-11.3757	-18.3239	0.543607
 277	1	8	0.148547	-3.94043	-15.8297	-2.50057
 278	1	8	0.179912	-7.6443	-12.4505	-2.54448
 279	1	8	0.155197	-8.16588	-14.8702	-2.15234
 280	1	9	0.340258	-10.1046	-18.8114	-1.78483
 281	1	8	0.137111	-4.65153	-17.0619	-0.554072
 282	1	8	0.181656	-5.47344	-19.0237	0.75973
 283	1	8	0.164633	-8.32307	-17.0771	-2.85369
 284	1	9	0.430928	-2.43074	-13.4844	-2.81912
 285	1	8	0.141007	-11.2026	-19.3742	4.28005
 286	1	8	0.203537	-12.6045	-17.4313	3.59234
 287	1	8	0.116715	-9.64608	-20.3929	2.64027
 288	1	8	0.18244	-11.364	-17.9694	-0.475026
 289	1	1	-0.155485	7.72334	-11.4256	-4.43892
 290	1	2	-0.03785	6.40516	-11.4708	-4.96454
 291	1	1	-0.234781	7.34845	-11.9441	-7.20345
 292	1	1	0.378053	8.62761	-11.8068	-6.65659
 293	1	1	-0.208553	6.23438	-11.7825	-6.34534
 294	1	3	-0.411858	1.60818	-11.1375	-3.40741
 295	1	1	-0.147234	5.44627	-9.68686	-3.48453
 296	1	1	0.107751	8.79614	-11.6226	-5.31126
 297	1	4	0.626409	10.6528	-11.2222	-6.37591
 298	1	2	0.00453	5.26542	-10.9286	-4.16201
 299	1	1	0.356173	3.11333	-9.61	-2.91992
 300	1	1	0.030551	2.93695	-10.8354	-3.50603
 301	1	1	-0.286062	4.37157	-9.01347	-2.86944
 302	1	5	-0.595919	1.95092	-9.07352	-2.50316
 303	1	1	-0.206338	3.97119	-11.5193	-4.16539
 304	1	6	0.462884	1.03599	-10.0002	-2.8222
 305	1	3	-0.691987	10.1135	-11.3557	-5.08972
 306	1	7	-0.710982	9.77973	-11.5983	-7.32874
 307	1	1	-0.062645	-2.27966	-8.28464	-2.17661
 308	1	1	0.026743	-0.41485	-9.79901	-2.63577
 309	1	1	-0.399843	-3.18621	-9.32715	-2.40894
 310	1	1	-0.107518	-0.902996	-8.52762	-2.271
 311	1	1	0.292439	-2.73875	-10.6315	-2.70679
 312	1	1	-0.410418	-1.34473	-10.846	-2.83695
 313	1	8	0.148547	7.89763	-11.1449	-3.40607
 314	1	8	0.179912	7.23124	-12.0454	-8.27724
 315	1	8	0.155197	5.23546	-11.7649	-6.77439
 316	1	9	0.340258	1.12246	-11.9208	-3.80324
 317	1	8	0.137111	6.41997	-9.20551	-3.50809
 318	1	8	0.181656	4.49263	-8.03803	-2.41106
 319	1	8	0.164633	3.78911	-12.4536	-4.68666
 320	1	9	0.430928	10.5284	-11.0281	-4.23931
 321	1	8	0.141007	-2.64197	-7.29067	-1.92087
 322	1	8	0.203537	-4.2549	-9.1407	-2.31271
 323	1	8	0.116715	-0.211668	-7.70585	-2.10366
 324	1	8	0.18244	-0.985255	-11.8359	-3.08335
 325	1	1	-0.155485	10.9001	-3.99009	-13.0021
 326	1	2	-0.03785	12.0871	-4.49384	-13.5913
 327	1	1	-0.234781	11.4574	-3.44739	-15.7322
 328	1	1	0.378053	10.2451	-3.08122	-15.1438
 329	1	1	-0.208553	12.381	-4.16851	-14.9447
 330	1	3	-0.411858	13.8335	-7.22083	-9.77982
 331	1	1	-0.147234	12.2703	-6.95178	-13.56
 332	1	1	0.107751	10.0145	-3.2742	-13.8087
 333	1	4	0.626409	8.1433	-2.85512	-14.8612
 334	1	2	0.00453	12.6649	-5.71514	-12.9769
 335	1	1	0.356173	12.9364	-8.11931	-11.578
 336	1	1	0.030551	13.4436	-6.95504	-11.0603
 337	1	1	-0.286062	12.3841	-8.16437	-12.8554
 338	1	5	-0.595919	12.8676	-9.09359	-10.6549
 339	1	1	-0.206338	13.2796	-5.71618	-11.6975
 340	1	6	0.462884	13.3666	-8.52026	-9.55196
 341	1	3	-0.691987	8.68271	-3.08375	-13.5904
 342	1	7	-0.710982	9.09695	-2.84622	-15.8065
 343	1	1	-0.062645	13.7259	-9.04204	-5.81923
 344	1	1	0.026743	13.2334	-9.10134	-8.206
 345	1	1	-0.399843	12.7016	-9.97215	-5.58234
 346	1	1	-0.107518	13.9505	-8.56873	-7.11849
 347	1	1	0.292439	11.9183	-10.4819	-6.64576
 348	1	1	-0.410418	12.2733	-10.1071	-7.95884
 349	1	8	0.148547	10.5904	-4.33328	-12.0203
 350	1	8	0.179912	11.5914	-3.33262	-16.8025
 351	1	8	0.155197	13.2519	-4.61494	-15.4191
 352	1	9	0.340258	14.1124	-6.55958	-9.07805
 353	1	8	0.137111	11.7466	-6.94083	-14.513
 354	1	8	0.181656	11.9646	-9.0898	-13.2349
 355	1	8	0.164633	13.528	-4.78431	-11.1998
 356	1	9	0.430928	8.15419	-3.39046	-12.793
 357	1	8	0.141007	14.3064	-8.64069	-4.99085
 358	1	8	0.203537	12.4884	-10.2607	-4.55984
 359	1	8	0.116715	14.7057	-7.80567	-7.27987
 360	1	8	0.18244	11.6651	-10.4719	-8.78603
 361	1	1	-0.155485	5.13852	-13.4971	-16.5256
 362	1	2	-0.03785	4.7947	-12.5959	-15.4819
 363	1	1	-0.234781	4.4359	-14.5281	-13.9698
 364	1	1	0.378053	4.72378	-15.3839	-15.0356
 365	1	1	-0.208553	4.4707	-13.1334	-14.2033
 366	1	3	-0.411858	5.88666	-7.64992	-15.8026
 367	1	1	-0.147234	3.17239	-10.7364	-15.8605
 368	1	1	0.107751	5.10543	-14.8731	-16.2474
 369	1	4	0.626409	4.87685	-17.0598	-16.3473
 370	1	2	0.00453	4.53027	-11.1466	-15.7425
 371	1	1	0.356173	3.83601	-8.42946	-15.9646
 372	1	1	0.030551	5.15095	-8.80469	-15.8738
 373	1	1	-0.286062	2.8146	-9.37797	-15.9793
 374	1	5	-0.595919	3.68303	-7.09228	-15.9453
 375	1	1	-0.206338	5.54917	-10.1507	-15.7604
 376	1	6	0.462884	4.93147	-6.6212	-15.8136
 377	1	3	-0.691987	5.26024	-15.9307	-17.0943
 378	1	7	-0.710982	4.57445	-16.73	-15.0785
 379	1	1	-0.062645	4.369	-2.9044	-15.2765
 380	1	1	0.026743	5.21647	-5.18156	-15.6134
 381	1	1	-0.399843	5.67321	-2.43994	-15.0527
 382	1	1	-0.107518	4.14808	-4.26131	-15.5549
 383	1	1	0.292439	6.77044	-3.31457	-15.1646
 384	1	1	-0.410418	6.52743	-4.68391	-15.4277
 385	1	8	0.148547	5.34058	-13.1314	-17.527
 386	1	8	0.179912	4.13096	-14.9398	-13.0141
 387	1	8	0.155197	4.18084	-12.4504	-13.4076
 388	1	9	0.340258	6.8778	-7.55132	-15.6741
 389	1	8	0.137111	2.39102	-11.4915	-15.8203
 390	1	8	0.181656	1.77894	-9.05956	-16.0273
 391	1	8	0.164633	6.59193	-10.4238	-15.6347
 392	1	9	0.430928	5.44931	-15.9001	-18.0774
 393	1	8	0.141007	3.52397	-2.2208	-15.2217
 394	1	8	0.203537	5.84311	-1.39073	-14.8258
 395	1	8	0.116715	3.12713	-4.60443	-15.7011
 396	1	8	0.18244	7.37962	-5.35464	-15.4679
 397	1	1	-0.155485	4.06067	-28.4456	-13.7818
 398	1	2	-0.03785	3.04802	-27.7178	-14.4736
 399	1	1	-0.234781	2.03266	-29.8605	-15.1842
 400	1	1	0.378053	3.04797	-30.5359	-14.5044
 401	1	1	-0.208553	2.04611	-28.4482	-15.173
 402	1	3	-0.411858	3.54575	-23.2952	-16.7819
 403	1	1	-0.147234	2.71541	-25.4298	-13.3853
 404	1	1	0.107751	4.02519	-29.851	-13.8343
 405	1	4	0.626409	4.37741	-32.026	-13.7453
 406	1	2	0.00453	3.02742	-26.2201	-14.5297
 407	1	1	0.356173	2.90819	-23.392	-14.6834
 408	1	1	0.030551	3.21721	-24.1516	-15.7775
 409	1	1	-0.286062	2.64038	-24.0153	-13.457
 410	1	5	-0.595919	3.03441	-22.0629	-14.9406
 411	1	1	-0.206338	3.27665	-25.5518	-15.757
 412	1	6	0.462884	3.52047	-22.0233	-16.1952
 413	1	3	-0.691987	4.89465	-30.7848	-13.3266
 414	1	7	-0.710982	3.23799	-31.869	-14.4426
 415	1	1	-0.062645	5.15781	-19.8981	-18.8685
 416	1	1	0.026743	4.08347	-20.8248	-16.8728
 417	1	1	-0.399843	5.24258	-18.6441	-18.2555
 418	1	1	-0.107518	4.57895	-20.9709	-18.1857
 419	1	1	0.292439	4.77071	-18.4322	-16.9388
 420	1	1	-0.410418	4.20075	-19.5456	-16.2594
 421	1	8	0.148547	4.85352	-27.9241	-13.2565
 422	1	8	0.179912	1.2741	-30.4227	-15.718
 423	1	8	0.155197	1.27084	-27.9019	-15.7057
 424	1	9	0.340258	3.92799	-23.5335	-17.6784
 425	1	8	0.137111	2.52452	-25.9289	-12.4384
 426	1	8	0.181656	2.43536	-23.4189	-12.575
 427	1	8	0.164633	3.53522	-26.117	-16.6466
 428	1	9	0.430928	5.6834	-30.6307	-12.7293
 429	1	8	0.141007	5.54472	-20.0437	-19.8752
 430	1	8	0.203537	5.71204	-17.8372	-18.8055
 431	1	8	0.116715	4.52857	-21.9259	-18.6966
 432	1	8	0.18244	3.83976	-19.4068	-15.2423
 433	1	1	-0.155485	12.6145	-32.2114	-14.7625
 434	1	2	-0.03785	13.3718	-33.1528	-14.0255
 435	1	1	-0.234781	15.4252	-31.9324	-14.682
 436	1	1	0.378053	14.621	-30.9788	-15.3296
 437	1	1	-0.208553	14.7927	-33.0257	-14.023
 438	1	3	-0.411858	9.11064	-33.8984	-12.0295
 439	1	1	-0.147234	12.5732	-35.5218	-13.4383
 440	1	1	0.107751	13.2694	-31.1576	-15.3764
 441	1	4	0.626409	13.7726	-29.1669	-16.074
 442	1	2	0.00453	12.5677	-34.1147	-13.2134
 443	1	1	0.356173	10.321	-35.6654	-12.5613
 444	1	1	0.030551	10.3802	-34.3425	-12.2174
 445	1	1	-0.286062	11.4459	-36.313	-13.0937
 446	1	5	-0.595919	9.03823	-36.0932	-12.6213
 447	1	1	-0.206338	11.4804	-33.5445	-12.506
 448	1	6	0.462884	8.31902	-34.9712	-12.428
 449	1	3	-0.691987	12.7046	-30.0464	-15.8975
 450	1	7	-0.710982	14.9615	-29.758	-15.8215
 451	1	1	-0.062645	4.9064	-35.8092	-13.8151
 452	1	1	0.026743	6.90549	-34.8123	-12.8354
 453	1	1	-0.399843	4.33399	-34.5365	-13.9502
 454	1	1	-0.107518	6.19072	-35.941	-13.2764
 455	1	1	0.292439	5.00141	-33.3698	-13.515
 456	1	1	-0.410418	6.28174	-33.5347	-12.9219
 457	1	8	0.148547	11.5316	-32.2656	-14.7908
 458	1	8	0.179912	16.4964	-31.7745	-14.6189
 459	1	8	0.155197	15.389	-33.7303	-13.4477
 460	1	9	0.340258	8.81028	-32.9511	-11.905
 461	1	8	0.137111	13.377	-35.9634	-14.0227
 462	1	8	0.181656	11.3722	-37.35	-13.4046
 463	1	8	0.164633	11.4171	-32.4687	-12.3808
 464	1	9	0.430928	11.7302	-29.8141	-15.9466
 465	1	8	0.141007	4.37278	-36.692	-14.1616
 466	1	8	0.203537	3.35319	-34.4442	-14.4125
 467	1	8	0.116715	6.6447	-36.9279	-13.225
 468	1	8	0.18244	6.8295	-32.651	-12.6244
 469	1	1	-0.155485	5.28511	-22.1812	-12.4425
 470	1	2	-0.03785	6.5324	-22.8079	-12.1687
 471	1	1	-0.234781	6.316	-22.1152	-9.81209
 472	1	1	0.378053	5.0842	-21.5374	-10.128
 473	1	1	-0.208553	7.03319	-22.7631	-10.8397
 474	1	3	-0.411858	10.3039	-24.0186	-15.3235
 475	1	1	-0.147234	6.8571	-25.0173	-13.303
 476	1	1	0.107751	4.57408	-21.5699	-11.3927
 477	1	4	0.626409	3.20249	-20.5032	-10.0197
 478	1	2	0.00453	7.24073	-23.652	-13.1823
 479	1	1	0.356173	8.74191	-25.4555	-14.7311
 480	1	1	0.030551	9.10254	-24.1357	-14.6683
 481	1	1	-0.286062	7.60584	-25.9296	-14.0755
 482	1	5	-0.595919	9.66745	-26.2045	-15.3572
 483	1	1	-0.206338	8.39187	-23.2005	-13.8919
 484	1	6	0.462884	10.6463	-25.3372	-15.6621
 485	1	3	-0.691987	3.33987	-20.9442	-11.3551
 486	1	7	-0.710982	4.26345	-20.895	-9.2867
 487	1	1	-0.062645	14.3424	-25.4186	-16.6225
 488	1	1	0.026743	11.9797	-25.8009	-16.1206
 489	1	1	-0.399843	14.5953	-26.8006	-16.5462
 490	1	1	-0.107518	13.0484	-24.9194	-16.3803
 491	1	1	0.292439	13.5475	-27.7131	-16.3146
 492	1	1	-0.410418	12.2416	-27.1872	-16.1806
 493	1	8	0.148547	4.9036	-22.2003	-13.4451
 494	1	8	0.179912	6.68299	-22.076	-8.79233
 495	1	8	0.155197	7.97141	-23.2626	-10.6101
 496	1	9	0.340258	10.8922	-23.2071	-15.3869
 497	1	8	0.137111	6.0038	-25.3738	-12.7309
 498	1	8	0.181656	7.36062	-26.9846	-14.1119
 499	1	8	0.164633	8.73523	-22.1766	-13.7854
 500	1	9	0.430928	2.73743	-20.7434	-12.1351
 501	1	8	0.141007	15.163	-24.7285	-16.8101
 502	1	8	0.203537	15.6091	-27.1819	-16.653
 503	1	8	0.116715	12.8911	-23.8458	-16.3662
 504	1	8	0.18244	11.4223	-27.8607	-15.9624
 505	1	1	-0.155485	-7.10026	-14.7185	-11.7616
 506	1	2	-0.03785	-6.73171	-16.0813	-11.9082
 507	1	1	-0.234781	-9.03886	-16.539	-12.7212
 508	1	1	0.378053	-9.38458	-15.2066	-12.4454
 509	1	1	-0.208553	-7.71124	-16.9739	-12.4401
 510	1	3	-0.411858	-2.11343	-18.196	-10.8925
 511	1	1	-0.147234	-5.54332	-16.1829	-9.74861
 512	1	1	0.107751	-8.41215	-14.3347	-12.0424
 513	1	4	0.626409	-10.3962	-13.5035	-11.6461
 514	1	2	0.00453	-5.53384	-16.5505	-11.1244
 515	1	1	0.356173	-3.38506	-17.1589	-9.42324
 516	1	1	0.030551	-3.34264	-17.5696	-10.728
 517	1	1	-0.286062	-4.47428	-16.4792	-8.89115
 518	1	5	-0.595919	-2.26498	-17.4547	-8.75791
 519	1	1	-0.206338	-4.40634	-17.2856	-11.6245
 520	1	6	0.462884	-1.46814	-18.0737	-9.64139
 521	1	3	-0.691987	-9.02889	-13.2038	-11.6244
 522	1	7	-0.710982	-10.63	-14.6749	-12.276
 523	1	1	-0.062645	1.47928	-18.4735	-7.32533
 524	1	1	0.026743	-0.100537	-18.5129	-9.20621
 525	1	1	-0.399843	2.36493	-19.2632	-8.04672
 526	1	1	-0.107518	0.267534	-18.1138	-7.89832
 527	1	1	0.292439	2.10813	-19.6833	-9.37461
 528	1	1	-0.410418	0.855443	-19.2806	-9.9558
 529	1	8	0.148547	-6.42133	-14.0174	-11.2871
 530	1	8	0.179912	-9.81611	-17.2443	-12.9951
 531	1	8	0.155197	-7.47803	-18.0341	-12.4957
 532	1	9	0.340258	-1.7335	-18.6028	-11.7279
 533	1	8	0.137111	-6.40257	-15.6521	-9.34512
 534	1	8	0.181656	-4.47701	-16.1824	-7.84773
 535	1	8	0.164633	-4.36006	-17.5807	-12.6675
 536	1	9	0.430928	-8.60371	-12.3975	-11.209
 537	1	8	0.141007	1.72785	-18.1427	-6.31913
 538	1	8	0.203537	3.29961	-19.5316	-7.56029
 539	1	8	0.116715	-0.387224	-17.4989	-7.28837
 540	1	8	0.18244	0.611327	-19.6051	-10.9605
 541	1	1	-0.155485	-21.4023	-9.6974	-11.7969
 542	1	2	-0.03785	-20.6667	-10.9069	-11.9573
 543	1	1	-0.234781	-22.2771	-11.5936	-13.7155
 544	1	1	0.378053	-22.9666	-10.395	-13.5166
 545	1	1	-0.208553	-21.1268	-11.8455	-12.9297
 546	1	3	-0.411858	-15.9379	-12.5442	-11.0991
 547	1	1	-0.147234	-19.3198	-10.5467	-9.84614
 548	1	1	0.107751	-22.5367	-9.493	-12.5834
 549	1	4	0.626409	-24.3185	-8.77252	-13.587
 550	1	2	0.00453	-19.4355	-11.1543	-11.1322
 551	1	1	0.356173	-17.0699	-11.3482	-9.63082
 552	1	1	0.030551	-17.1727	-12.0007	-10.8287
 553	1	1	-0.286062	-18.1338	-10.6285	-9.09377
 554	1	5	-0.595919	-15.8247	-11.3948	-9.13922
 555	1	1	-0.206338	-18.3322	-11.9201	-11.62
 556	1	6	0.462884	-15.1207	-12.0676	-10.0629
 557	1	3	-0.691987	-23.3932	-8.43215	-12.6036
 558	1	7	-0.710982	-24.0754	-9.96023	-14.1528
 559	1	1	-0.062645	-11.651	-11.074	-9.02717
 560	1	1	0.026743	-13.6379	-12.102	-10.012
 561	1	1	-0.399843	-10.8453	-11.7399	-9.95025
 562	1	1	-0.107518	-13.0269	-11.2775	-9.04366
 563	1	1	0.292439	-11.3788	-12.6849	-10.8624
 564	1	1	-0.410418	-12.7956	-12.8385	-10.8969
 565	1	8	0.148547	-21.0872	-8.9302	-11.0998
 566	1	8	0.179912	-22.6358	-12.3015	-14.4546
 567	1	8	0.155197	-20.5955	-12.7838	-13.0615
 568	1	9	0.340258	-15.6349	-13.008	-11.937
 569	1	8	0.137111	-20.151	-9.98139	-9.43627
 570	1	8	0.181656	-18.0187	-10.1124	-8.14655
 571	1	8	0.164633	-18.3623	-12.3751	-12.6037
 572	1	9	0.430928	-23.3952	-7.61395	-12.0228
 573	1	8	0.141007	-11.2146	-10.3995	-8.29317
 574	1	8	0.203537	-9.77833	-11.5775	-9.87402
 575	1	8	0.116715	-13.6247	-10.7233	-8.3251
 576	1	8	0.18244	-13.2245	-13.5385	-11.6082
 577	1	8	0	1.42652	52.31	28.1346
 578	1	10	0	-25.1439	-8.11742	-13.833

Velocities

   1	-0.000182736	-0.000245919	1.51126e-05
   2	-0.000170299	-0.0001924	5.53782e-05
   3	-4.92425e-05	-0.000252029	0.000146862
   4	-4.16251e-06	-0.000314483	0.000122695
   5	-0.000181763	-0.000208627	0.000121049
   6	-0.000330429	4.69879e-05	5.86728e-05
   7	-0.000356168	-0.000226202	-0.000149757
   8	1.00687e-05	-0.000224982	-6.80192e-05
   9	-1.74455e-06	-0.000332496	3.5779e-05
  10	-0.000352842	-0.000220252	-1.92776e-05
  11	-0.000504224	-7.78155e-05	-6.62438e-05
  12	-0.000433328	-0.000134862	1.59966e-05
  13	-0.000463576	-6.3958e-05	-9.33463e-05
  14	-0.00047719	0.000146601	-0.000132626
  15	-0.000172608	-0.000247615	1.88439e-06
  16	-0.000287777	0.000225789	-5.47679e-05
  17	-1.78258e-05	-0.000282859	-2.76398e-05
  18	-2.13863e-05	-0.000393928	5.0335e-05
  19	0.000530078	0.000464772	-3.65417e-05
  20	9.35717e-06	0.000333244	-9.32826e-05
  21	0.000618413	0.000387055	1.18899e-06
  22	0.000226801	0.000394645	-0.000183063
  23	0.000371504	0.000308775	-3.25209e-05
  24	0.000109939	0.000364857	-9.49629e-05
  25	-0.000307256	-0.000265821	-2.73187e-05
  26	-0.000186131	-0.00035259	0.00032295
  27	-0.000113099	-0.000138763	0.000222001
  28	-9.23436e-05	1.35311e-05	0.000338743
  29	-0.000372477	-0.000325141	-0.000139704
  30	-0.00039695	-0.000157284	-0.000146799
  31	5.32696e-05	-0.000475065	0.000137501
  32	-0.000326947	-0.00048943	6.30996e-05
  33	0.000718912	0.000453995	-3.98574e-05
  34	0.000802985	0.000405641	-1.74841e-05
  35	0.00016566	0.000384617	-0.000167775
  36	-6.32412e-05	0.000348409	-0.000150755
  37	0.000296971	0.0002818	0.000386502
  38	0.000137653	2.24847e-05	0.000298684
  39	-0.000126966	-0.000198909	-0.000168335
  40	2.60939e-05	-9.73629e-06	-0.000165719
  41	-1.61785e-05	-0.000112527	6.22984e-05
  42	0.000209097	-0.000216418	-8.28477e-05
  43	-1.81857e-05	-0.000160014	0.000500985
  44	0.000247213	0.000302388	0.000227665
  45	0.00025827	0.00027932	-0.000171843
  46	1.12469e-05	-7.00081e-05	0.000310701
  47	3.81633e-06	-0.000258301	0.000446336
  48	0.000150201	-0.000200955	5.65482e-05
  49	-0.000153952	-0.000215361	0.000579396
  50	-0.000152416	-0.000300311	0.000604859
  51	0.000241371	-0.000200299	4.56572e-05
  52	-0.000107066	-0.000361279	0.000344008