pySIMM System Object

1694 atoms
1928 bonds
3196 angles
5072 dihedrals
564 impropers

10 atom types
15 bond types
26 angle types
12 dihedral types
2 improper types

-180.596167 180.596167 xlo xhi
-180.596167 180.596167 ylo yhi
-180.596167 180.596167 zlo zhi

Masses

   1	12.01	# ca
   2	12.01	# cp
   3	14.01	# na
   4	12.01	# cc
   5	14.01	# nc
   6	12.01	# cd
   7	14.01	# nd
   8	1.008	# ha
   9	1.008	# hn
  10	1.008	# h5

Pair Coeffs

   1	0.086	3.3996695084235347	# ca
   2	0.086	3.3996695084235347	# cp
   3	0.17	3.249998523775958	# na
   4	0.086	3.3996695084235347	# cc
   5	0.17	3.249998523775958	# nc
   6	0.086	3.3996695084235347	# cd
   7	0.17	3.249998523775958	# nd
   8	0.015	2.59964245953351	# ha
   9	0.0157	1.069078461768407	# hn
  10	0.015	2.421462715905442	# h5

Bond Coeffs

   1	425.8	1.3802	# cd,na
   2	525.4	1.3172	# cc,nd
   3	345.8	1.086	# ca,ha
   4	351.4	1.4854	# cp,cp
   5	467.7	1.3517	# ca,nc
   6	385.1	1.4555	# ca,cd
   7	467.7	1.3517	# ca,nd
   8	525.4	1.3172	# cd,nc
   9	450.2	1.4058	# ca,cp
  10	425.8	1.3802	# cc,na
  11	420.5	1.384	# ca,na
  12	351.7	1.0819	# cc,h5
  13	461.1	1.3984	# ca,ca
  14	408.4	1.01	# hn,na
  15	385.1	1.4555	# ca,cc

Angle Coeffs

   1	48.18	119.88	# ca,ca,ha
   2	66.28	123.45	# ca,cd,na
   3	64.05	121.11	# ca,cp,cp
   4	46.75	125.5	# cc,na,hn
   5	67.6	123.24	# ca,cd,nc
   6	46.75	125.5	# cd,na,hn
   7	72.48	104.88	# ca,nc,cd
   8	74.9	112.22	# na,cd,nc
   9	66.62	120.02	# ca,ca,ca
  10	46.63	125.54	# ca,na,hn
  11	65.02	120.79	# ca,ca,cd
  12	47.98	119.86	# cp,ca,ha
  13	69.46	119.72	# ca,ca,nc
  14	72.48	104.88	# ca,nd,cc
  15	69.08	118.34	# ca,ca,na
  16	66.72	118.38	# ca,cp,ca
  17	69.46	119.72	# ca,ca,nd
  18	74.9	112.22	# na,cc,nd
  19	67.4	113.15	# ca,na,cc
  20	66.26	120.69	# ca,ca,cp
  21	50.58	125.52	# h5,cc,nd
  22	67.4	113.15	# ca,na,cd
  23	49.58	121.55	# h5,cc,na
  24	66.28	123.45	# ca,cc,na
  25	67.6	123.24	# ca,cc,nd
  26	65.02	120.79	# ca,ca,cc

Dihedral Coeffs

   1	1	4.8	2	180	# X,ca,nc,X
   2	1	4.8	2	180	# X,ca,nd,X
   3	1	4.0	2	180	# X,ca,cd,X
   4	1	4.75	2	180	# X,cd,nc,X
   5	1	4.75	2	180	# X,cc,nd,X
   6	1	1.7	2	180	# X,cc,na,X
   7	1	1.0	2	180	# X,cp,cp,X
   8	1	3.625	2	180	# X,ca,cp,X
   9	1	0.3	2	180	# X,ca,na,X
  10	1	1.7	2	180	# X,cd,na,X
  11	1	3.625	2	180	# X,ca,ca,X
  12	1	4.0	2	180	# X,ca,cc,X

Improper Coeffs

   1	1.1	-1	2	# na,X,X,hn
   2	1.1	-1	2	# ca,X,X,ha

Atoms

   1	1	1	-0.155485	-19.9296	-67.572	19.3732
   2	1	2	-0.03785	-19.5375	-68.9287	19.1909
   3	1	1	-0.234781	-17.7133	-68.5841	20.8366
   4	1	1	0.378053	-18.1433	-67.2666	20.9914
   5	1	1	-0.208553	-18.4144	-69.4099	19.9305
   6	1	3	-0.411858	-21.267	-73.3854	17.6327
   7	1	1	-0.147234	-20.9496	-69.3305	17.1006
   8	1	1	0.107751	-19.2037	-66.7862	20.2748
   9	1	4	0.626409	-18.4065	-65.2506	21.6141
  10	1	2	0.00453	-20.2881	-69.8367	18.2608
  11	1	1	0.356173	-21.693	-71.5452	16.5041
  12	1	1	0.030551	-21.0656	-72.0385	17.6143
  13	1	1	-0.286062	-21.6553	-70.1795	16.217
  14	1	5	-0.595919	-22.2945	-72.5208	15.7917
  15	1	1	-0.206338	-20.3599	-71.2346	18.5147
  16	1	6	0.462884	-22.023	-73.6391	16.4851
  17	1	3	-0.691987	-19.3916	-65.4852	20.6428
  18	1	7	-0.710982	-17.6375	-66.3345	21.8226
  19	1	1	-0.062645	-23.6407	-76.4385	14.4966
  20	1	1	0.026743	-22.4622	-74.9884	16.0798
  21	1	1	-0.399843	-23.3068	-77.5617	15.269
  22	1	1	-0.107518	-23.2194	-75.1625	14.9026
  23	1	1	0.292439	-22.5565	-77.4112	16.4416
  24	1	1	-0.410418	-22.1379	-76.1348	16.8441
  25	1	8	0.148547	-20.7861	-67.1598	18.8521
  26	1	8	0.179912	-16.8648	-68.9462	21.4068
  27	1	8	0.155197	-18.0749	-70.4319	19.7892
  28	1	9	0.340258	-20.938	-74.0573	18.3012
  29	1	8	0.137111	-20.8936	-68.2708	16.8712
  30	1	8	0.181656	-22.1503	-69.7997	15.3298
  31	1	8	0.164633	-19.8965	-71.6706	19.392
  32	1	9	0.430928	-20.0989	-64.8479	20.3292
  33	1	8	0.141007	-24.223	-76.551	13.5846
  34	1	8	0.203537	-23.6271	-78.5526	14.9623
  35	1	8	0.116715	-23.4832	-74.3005	14.2947
  36	1	8	0.18244	-21.5579	-76.0514	17.7547
  37	1	1	-0.155485	-11.6594	-65.0253	29.4137
  38	1	2	-0.03785	-11.6669	-63.6381	29.098
  39	1	1	-0.234781	-9.51944	-63.3866	30.3139
  40	1	1	0.378053	-9.55525	-64.752	30.6007
  41	1	1	-0.208553	-10.5818	-62.8351	29.5622
  42	1	3	-0.411858	-15.2018	-63.6474	25.5185
  43	1	1	-0.147234	-13.2128	-61.6956	28.5266
  44	1	1	0.107751	-10.592	-65.5293	30.1638
  45	1	4	0.626409	-9.14139	-66.7243	31.2837
  46	1	2	0.00453	-12.7799	-63.036	28.2933
  47	1	1	0.356173	-14.8537	-61.8734	26.7711
  48	1	1	0.030551	-14.4479	-63.1599	26.5429
  49	1	1	-0.286062	-14.2514	-61.1069	27.7699
  50	1	5	-0.595919	-15.8483	-61.5023	25.9377
  51	1	1	-0.206338	-13.427	-63.7823	27.2701
  52	1	6	0.462884	-16.0522	-62.5914	25.1792
  53	1	3	-0.691987	-10.359	-66.803	30.5921
  54	1	7	-0.710982	-8.64801	-65.4724	31.2927
  55	1	1	-0.062645	-18.8768	-61.655	22.8268
  56	1	1	0.026743	-17.0681	-62.6758	24.1127
  57	1	1	-0.399843	-19.0469	-62.8462	22.1022
  58	1	1	-0.107518	-17.8966	-61.5742	23.8263
  59	1	1	0.292439	-18.2318	-63.9725	22.358
  60	1	1	-0.410418	-17.2447	-63.8596	23.362
  61	1	8	0.148547	-12.4682	-65.6755	29.1011
  62	1	8	0.179912	-8.68811	-62.7827	30.6612
  63	1	8	0.155197	-10.5549	-61.7772	29.3142
  64	1	9	0.340258	-15.1666	-64.5552	25.0905
  65	1	8	0.137111	-12.7463	-61.1138	29.3164
  66	1	8	0.181656	-14.5838	-60.0898	27.9474
  67	1	8	0.164633	-13.1218	-64.7959	27.0366
  68	1	9	0.430928	-10.923	-67.6187	30.4492
  69	1	8	0.141007	-19.5064	-60.7914	22.6222
  70	1	8	0.203537	-19.8136	-62.8885	21.3374
  71	1	8	0.116715	-17.7816	-60.6488	24.3856
  72	1	8	0.18244	-16.6223	-64.726	23.56
  73	1	1	-0.155485	1.24816	-67.0202	35.8419
  74	1	2	-0.03785	-0.0793312	-66.5289	35.9778
  75	1	1	-0.234781	0.833575	-64.3413	36.6982
  76	1	1	0.378053	2.1183	-64.8589	36.5294
  77	1	1	-0.208553	-0.264808	-65.1838	36.416
  78	1	3	-0.411858	-4.59698	-67.3891	33.9676
  79	1	1	-0.147234	-1.25617	-68.7864	35.8968
  80	1	1	0.107751	2.30659	-66.1519	36.1265
  81	1	4	0.626409	4.22219	-65.1162	36.34
  82	1	2	0.00453	-1.25316	-67.3862	35.6222
  83	1	1	0.356173	-3.43361	-69.0151	34.888
  84	1	1	0.030551	-3.43731	-67.6729	34.623
  85	1	1	-0.286062	-2.34796	-69.6088	35.5359
  86	1	5	-0.595919	-4.55132	-69.6199	34.4341
  87	1	1	-0.206338	-2.3825	-66.8227	34.969
  88	1	6	0.462884	-5.24912	-68.6209	33.8683
  89	1	3	-0.691987	3.65088	-66.3555	36.0118
  90	1	7	-0.710982	3.28892	-64.2088	36.6768
  91	1	1	-0.062645	-8.36892	-70.2695	32.4846
  92	1	1	0.026743	-6.54959	-68.8034	33.1958
  93	1	1	-0.399843	-9.02336	-69.1814	31.8853
  94	1	1	-0.107518	-7.14068	-70.0794	33.1322
  95	1	1	0.292439	-8.46256	-67.8839	31.9265
  96	1	1	-0.410418	-7.22714	-67.7191	32.592
  97	1	8	0.148547	1.43807	-68.0263	35.4849
  98	1	8	0.179912	0.704329	-63.3127	37.0179
  99	1	8	0.155197	-1.27252	-64.7959	36.5402
 100	1	9	0.340258	-4.91456	-66.5056	33.6103
 101	1	8	0.137111	-0.406501	-69.2308	36.4074
 102	1	8	0.181656	-2.35644	-70.6735	35.742
 103	1	8	0.164633	-2.41226	-65.7685	34.715
 104	1	9	0.430928	4.12682	-67.1778	35.6955
 105	1	8	0.141007	-8.80707	-71.2649	32.4474
 106	1	8	0.203537	-9.96984	-69.3533	31.3868
 107	1	8	0.116715	-6.64249	-70.9319	33.5872
 108	1	8	0.18244	-6.79637	-66.7233	32.6214
 109	1	1	-0.155485	12.4021	-57.124	38.0128
 110	1	2	-0.03785	11.0602	-56.7688	37.7034
 111	1	1	-0.234781	11.7547	-54.3868	37.6109
 112	1	1	0.378053	13.0574	-54.7851	37.9131
 113	1	1	-0.208553	10.7602	-55.386	37.5052
 114	1	3	-0.411858	9.32116	-61.3932	36.7137
 115	1	1	-0.147234	8.63244	-57.5201	37.8854
 116	1	1	0.107751	13.354	-56.1058	38.1035
 117	1	4	0.626409	15.1474	-54.8735	38.2954
 118	1	2	0.00453	9.99572	-57.8201	37.5845
 119	1	1	0.356173	7.97583	-59.7768	37.3644
 120	1	1	0.030551	9.27861	-60.0799	37.0803
 121	1	1	-0.286062	7.61533	-58.4936	37.7748
 122	1	5	-0.595919	7.1652	-60.8388	37.1962
 123	1	1	-0.206338	10.3157	-59.1445	37.1709
 124	1	6	0.462884	7.9911	-61.8202	36.8012
 125	1	3	-0.691987	14.6879	-56.1959	38.3619
 126	1	7	-0.710982	14.1525	-54.0057	38.0348
 127	1	1	-0.062645	7.99143	-65.4908	35.8117
 128	1	1	0.026743	7.53325	-63.1904	36.4941
 129	1	1	-0.399843	6.62404	-65.7989	35.8982
 130	1	1	-0.107518	8.44133	-64.1941	36.1024
 131	1	1	0.292439	5.6804	-64.8169	36.2801
 132	1	1	-0.410418	6.16517	-63.5267	36.581
 133	1	8	0.148547	12.6855	-58.1541	38.1921
 134	1	8	0.179912	11.5332	-53.3372	37.4507
 135	1	8	0.155197	9.74886	-55.0879	37.2424
 136	1	9	0.340258	10.1169	-61.9339	36.4297
 137	1	8	0.137111	8.36357	-56.525	38.227
 138	1	8	0.181656	6.57882	-58.2701	38.0038
 139	1	8	0.164633	11.3296	-59.4227	36.909
 140	1	9	0.430928	15.2312	-57.0185	38.5397
 141	1	8	0.141007	8.70591	-66.2555	35.5134
 142	1	8	0.203537	6.29759	-66.8049	35.662
 143	1	8	0.116715	9.50143	-63.9782	36.0234
 144	1	8	0.18244	5.45051	-62.7592	36.8751
 145	1	1	-0.155485	17.9296	-44.8719	37.2601
 146	1	2	-0.03785	19.1088	-45.3665	37.8896
 147	1	1	-0.234781	19.865	-43.0263	38.2243
 148	1	1	0.378053	18.7088	-42.593	37.5799
 149	1	1	-0.208553	20.0533	-44.415	38.3844
 150	1	3	-0.411858	17.8496	-50.2497	38.2307
 151	1	1	-0.147234	20.7206	-47.3245	38.0905
 152	1	1	0.107751	17.7726	-43.4858	37.1376
 153	1	4	0.626409	17.185	-41.4311	36.663
 154	1	2	0.00453	19.378	-46.8403	38.0144
 155	1	1	0.356173	19.9476	-49.5924	38.2744
 156	1	1	0.030551	18.6566	-49.1503	38.1751
 157	1	1	-0.286062	21.0137	-48.6971	38.2294
 158	1	5	-0.595919	20.018	-50.9306	38.4065
 159	1	1	-0.206338	18.3213	-47.7952	38.0511
 160	1	6	0.462884	18.7355	-51.3227	38.3761
 161	1	3	-0.691987	16.7656	-42.7665	36.5579
 162	1	7	-0.710982	18.3678	-41.323	37.2925
 163	1	1	-0.062645	18.925	-55.0821	38.7883
 164	1	1	0.026743	18.3218	-52.7345	38.4802
 165	1	1	-0.399843	17.576	-55.4501	38.6792
 166	1	1	-0.107518	19.2924	-53.7352	38.681
 167	1	1	0.292439	16.5727	-54.4783	38.4586
 168	1	1	-0.410418	16.9669	-53.1237	38.3752
 169	1	8	0.148547	17.1845	-45.5444	36.8522
 170	1	8	0.179912	20.59	-42.3027	38.5807
 171	1	8	0.155197	20.944	-44.7556	38.9038
 172	1	9	0.340258	16.847	-50.2954	38.1917
 173	1	8	0.137111	21.551	-46.6289	38.0241
 174	1	8	0.181656	22.0328	-49.0626	38.2922
 175	1	8	0.164633	17.2829	-47.4887	38.0077
 176	1	9	0.430928	15.9384	-43.108	36.1066
 177	1	8	0.141007	19.6919	-55.8373	38.9492
 178	1	8	0.203537	17.3169	-56.4995	38.7527
 179	1	8	0.116715	20.3426	-53.4664	38.7631
 180	1	8	0.18244	16.1964	-52.3784	38.2049
 181	1	1	-0.155485	22.2792	-32.6507	35.7797
 182	1	2	-0.03785	20.9968	-32.0614	35.956
 183	1	1	-0.234781	22.093	-29.8714	36.34
 184	1	1	0.378053	23.3288	-30.4908	36.1459
 185	1	1	-0.208553	20.9274	-30.6649	36.2418
 186	1	3	-0.411858	18.3117	-36.2983	36.221
 187	1	1	-0.147234	18.5698	-32.328	35.2355
 188	1	1	0.107751	23.4055	-31.8305	35.8846
 189	1	4	0.626409	25.3956	-30.927	35.8909
 190	1	2	0.00453	19.7538	-32.8841	35.8073
 191	1	1	0.356173	17.4409	-34.45	35.4071
 192	1	1	0.030551	18.5639	-34.983	35.9788
 193	1	1	-0.286062	17.4082	-33.1066	35.0289
 194	1	5	-0.595919	16.4704	-35.3743	35.2448
 195	1	1	-0.206338	19.7369	-34.2522	36.1921
 196	1	6	0.462884	17.02	-36.5002	35.7281
 197	1	3	-0.691987	24.7223	-32.1453	35.7237
 198	1	7	-0.710982	24.5488	-29.9154	36.1567
 199	1	1	-0.062645	14.4985	-39.2483	35.0327
 200	1	1	0.026743	16.3666	-37.8218	35.6951
 201	1	1	-0.399843	15.1733	-40.3783	35.5254
 202	1	1	-0.107518	15.0929	-37.9806	35.1177
 203	1	1	0.292439	16.4439	-40.2541	36.132
 204	1	1	-0.410418	17.0149	-38.9652	36.2106
 205	1	8	0.148547	22.385	-33.7008	35.5329
 206	1	8	0.179912	22.0477	-28.8082	36.5494
 207	1	8	0.155197	19.9578	-30.1982	36.3956
 208	1	9	0.340258	18.9258	-36.9939	36.6055
 209	1	8	0.137111	18.5695	-31.2907	34.9127
 210	1	8	0.181656	16.5172	-32.6947	34.5678
 211	1	8	0.164633	20.6052	-34.7194	36.6429
 212	1	9	0.430928	25.1241	-33.0322	35.4875
 213	1	8	0.141007	13.5166	-39.3497	34.5745
 214	1	8	0.203537	14.6977	-41.349	35.4465
 215	1	8	0.116715	14.5681	-37.117	34.7166
 216	1	8	0.18244	17.9943	-38.8729	36.6681
 217	1	1	-0.155485	29.4071	-21.3821	35.9876
 218	1	2	-0.03785	30.4982	-22.1018	36.5474
 219	1	1	-0.234781	31.3834	-19.9815	37.4753
 220	1	1	0.378053	30.2974	-19.3158	36.9054
 221	1	1	-0.208553	31.4806	-21.3784	37.2872
 222	1	3	-0.411858	28.7111	-26.783	36.1506
 223	1	1	-0.147234	31.8924	-24.1943	36.1742
 224	1	1	0.107751	29.3558	-19.9992	36.1869
 225	1	4	0.626409	28.8801	-17.8657	36.2599
 226	1	2	0.00453	30.6171	-23.5819	36.3598
 227	1	1	0.356173	30.8658	-26.3658	35.9936
 228	1	1	0.030551	29.6398	-25.787	36.1805
 229	1	1	-0.286062	32.0249	-25.5883	35.9852
 230	1	5	-0.595919	30.7727	-27.7013	35.8283
 231	1	1	-0.206338	29.4625	-24.411	36.3602
 232	1	6	0.462884	29.4554	-27.9439	35.9243
 233	1	3	-0.691987	28.4355	-19.0935	35.7476
 234	1	7	-0.710982	30.0168	-17.9988	36.9661
 235	1	1	-0.062645	29.109	-31.6803	35.3916
 236	1	1	0.026743	28.8555	-29.2848	35.7939
 237	1	1	-0.399843	27.7204	-31.8547	35.5051
 238	1	1	-0.107518	29.6695	-30.404	35.5361
 239	1	1	0.292439	26.87	-30.7569	35.7716
 240	1	1	-0.410418	27.4612	-29.482	35.9136
 241	1	8	0.148547	28.6475	-21.8854	35.4004
 242	1	8	0.179912	32.1205	-19.4254	38.0446
 243	1	8	0.155197	32.3127	-21.9146	37.7367
 244	1	9	0.340258	27.7152	-26.7163	36.2615
 245	1	8	0.137111	32.7839	-23.5735	36.1548
 246	1	8	0.181656	32.9913	-26.0566	35.8333
 247	1	8	0.164633	28.4741	-23.9946	36.5198
 248	1	9	0.430928	27.6063	-19.2644	35.2143
 249	1	8	0.141007	29.7567	-32.5309	35.1887
 250	1	8	0.203537	27.3093	-32.8505	35.3893
 251	1	8	0.116715	30.7457	-30.2824	35.44
 252	1	8	0.18244	26.8071	-28.64	36.1154
 253	1	1	-0.155485	18.871	-15.8177	31.445
 254	1	2	-0.03785	20.2139	-15.9354	31.0049
 255	1	1	-0.234781	19.417	-16.9227	28.8829
 256	1	1	0.378053	18.1076	-16.7605	29.3444
 257	1	1	-0.208553	20.475	-16.5194	29.7313
 258	1	3	-0.411858	24.5052	-16.1547	33.6166
 259	1	1	-0.147234	21.2537	-14.0336	32.2863
 260	1	1	0.107751	17.8602	-16.2684	30.5959
 261	1	4	0.626409	15.9983	-16.5666	29.5099
 262	1	2	0.00453	21.3134	-15.3872	31.8461
 263	1	1	0.356173	23.3312	-14.2989	33.4669
 264	1	1	0.030551	23.3883	-15.6049	33.0591
 265	1	1	-0.286062	22.2697	-13.4754	33.0907
 266	1	5	-0.595919	24.3766	-13.9697	34.2491
 267	1	1	-0.206338	22.4159	-16.1906	32.2384
 268	1	6	0.462884	25.0812	-15.1077	34.345
 269	1	3	-0.691987	16.5112	-16.2005	30.76
 270	1	7	-0.710982	16.9664	-16.9427	28.6518
 271	1	1	-0.062645	28.0138	-14.1663	36.5447
 272	1	1	0.026743	26.3168	-15.2291	35.1438
 273	1	1	-0.399843	28.6758	-15.3938	36.6778
 274	1	1	-0.107518	26.8382	-14.0902	35.7889
 275	1	1	0.292439	28.1786	-16.5658	36.0697
 276	1	1	-0.410418	26.9975	-16.4624	35.2928
 277	1	8	0.148547	18.6361	-15.3784	32.409
 278	1	8	0.179912	19.5914	-17.326	27.8906
 279	1	8	0.155197	21.5036	-16.6078	29.3893
 280	1	9	0.340258	24.8473	-17.0924	33.5252
 281	1	8	0.137111	20.4139	-13.4138	31.9838
 282	1	8	0.181656	22.2368	-12.4443	33.4265
 283	1	8	0.164633	22.4797	-17.2311	31.9369
 284	1	9	0.430928	16.003	-15.7468	31.4958
 285	1	8	0.141007	28.406	-13.2742	37.0289
 286	1	8	0.203537	29.5844	-15.4507	37.2742
 287	1	8	0.116715	26.3346	-13.1312	35.6961
 288	1	8	0.18244	26.6043	-17.3485	34.8141
 289	1	1	-0.155485	12.0728	-12.8143	19.8338
 290	1	2	-0.03785	12.664	-13.9842	20.3846
 291	1	1	-0.234781	14.1341	-14.1384	18.3955
 292	1	1	0.378053	13.5315	-12.9806	17.8991
 293	1	1	-0.208553	13.6965	-14.6348	19.6452
 294	1	3	-0.411858	13.4379	-15.906	24.9642
 295	1	1	-0.147234	10.877	-14.3651	22.1491
 296	1	1	0.107751	12.5367	-12.3562	18.5984
 297	1	4	0.626409	13.0196	-11.242	16.7793
 298	1	2	0.00453	12.2344	-14.4886	21.7266
 299	1	1	0.356173	11.4285	-15.2867	24.3007
 300	1	1	0.030551	12.7276	-15.438	23.8976
 301	1	1	-0.286062	10.4656	-14.7589	23.4406
 302	1	5	-0.595919	11.2649	-15.6078	25.5972
 303	1	1	-0.206338	13.1785	-15.0468	22.6323
 304	1	6	0.462884	12.4928	-15.9733	25.9952
 305	1	3	-0.691987	12.1743	-11.2434	17.8989
 306	1	7	-0.710982	13.8347	-12.3127	16.7677
 307	1	1	-0.062645	12.2389	-15.9704	29.7626
 308	1	1	0.026743	12.8375	-16.2018	27.4081
 309	1	1	-0.399843	13.5814	-16.158	30.1235
 310	1	1	-0.107518	11.8714	-15.9916	28.4116
 311	1	1	0.292439	14.5637	-16.4381	29.1463
 312	1	1	-0.410418	14.1604	-16.4995	27.7963
 313	1	8	0.148547	11.3078	-12.2661	20.3718
 314	1	8	0.179912	14.9252	-14.6193	17.8299
 315	1	8	0.155197	14.1535	-15.5362	20.045
 316	1	9	0.340258	14.4462	-15.9888	25.0518
 317	1	8	0.137111	10.1396	-13.9525	21.4663
 318	1	8	0.181656	9.44151	-14.6382	23.7786
 319	1	8	0.164633	14.2292	-15.1195	22.3713
 320	1	9	0.430928	11.512	-10.5391	18.16
 321	1	8	0.141007	11.4883	-15.7558	30.5207
 322	1	8	0.203537	13.8521	-16.0993	31.1714
 323	1	8	0.116715	10.843	-15.7636	28.1425
 324	1	8	0.18244	14.9223	-16.68	27.0429
 325	1	1	-0.155485	21.2888	-7.85536	10.3178
 326	1	2	-0.03785	20.0362	-7.64233	9.69578
 327	1	1	-0.234781	21.1301	-6.06677	8.123
 328	1	1	0.378053	22.3533	-6.32519	8.75714
 329	1	1	-0.208553	19.9657	-6.72108	8.60818
 330	1	3	-0.411858	15.5832	-8.05883	11.9772
 331	1	1	-0.147234	19.0225	-9.77525	10.5489
 332	1	1	0.107751	22.3951	-7.1742	9.8254
 333	1	4	0.626409	24.3937	-6.43885	9.37285
 334	1	2	0.00453	18.864	-8.39353	10.2339
 335	1	1	0.356173	16.9217	-9.78388	11.7059
 336	1	1	0.030551	16.7202	-8.47714	11.3462
 337	1	1	-0.286062	18.0532	-10.481	11.2882
 338	1	5	-0.595919	15.9945	-10.2188	12.5765
 339	1	1	-0.206338	17.6649	-7.73589	10.6201
 340	1	6	0.462884	15.2089	-9.15035	12.7717
 341	1	3	-0.691987	23.6729	-7.2441	10.2598
 342	1	7	-0.710982	23.5924	-5.86008	8.4548
 343	1	1	-0.062645	12.3462	-7.94679	14.9599
 344	1	1	0.026743	14.1476	-9.11395	13.7972
 345	1	1	-0.399843	12.2297	-9.01235	15.8674
 346	1	1	-0.107518	13.3123	-7.98962	13.9439
 347	1	1	0.292439	13.0661	-10.1489	15.767
 348	1	1	-0.410418	13.9894	-10.1872	14.7016
 349	1	8	0.148547	21.3841	-8.52494	11.1661
 350	1	8	0.179912	21.0957	-5.39016	7.27592
 351	1	8	0.155197	19.0086	-6.54747	8.12217
 352	1	9	0.340258	15.1968	-7.13316	12.0028
 353	1	8	0.137111	19.9383	-10.2849	10.2608
 354	1	8	0.181656	18.1994	-11.5119	11.5934
 355	1	8	0.164633	17.5331	-6.6737	10.4424
 356	1	9	0.430928	24.0464	-7.8584	10.9547
 357	1	8	0.141007	11.7026	-7.07445	15.0553
 358	1	8	0.203537	11.4974	-8.94383	16.6633
 359	1	8	0.116715	13.4009	-7.14586	13.2677
 360	1	8	0.18244	14.6445	-11.0532	14.6166
 361	1	1	-0.155485	29.5377	-13.0199	15.9068
 362	1	2	-0.03785	29.292	-11.6368	16.1165
 363	1	1	-0.234781	27.9401	-12.1902	18.1124
 364	1	1	0.378053	28.1477	-13.5404	17.8302
 365	1	1	-0.208553	28.5138	-11.2391	17.2421
 366	1	3	-0.411858	27.8617	-8.34056	12.7246
 367	1	1	-0.147234	30.8817	-10.4893	14.4497
 368	1	1	0.107751	28.9529	-13.9319	16.7939
 369	1	4	0.626409	27.884	-15.6397	17.6425
 370	1	2	0.00453	29.5958	-10.6424	15.048
 371	1	1	0.356173	29.985	-8.88953	12.8679
 372	1	1	0.030551	28.7578	-9.04887	13.4487
 373	1	1	-0.286062	31.0873	-9.59736	13.3647
 374	1	5	-0.595919	29.9194	-8.07452	11.7856
 375	1	1	-0.206338	28.5141	-9.89347	14.5284
 376	1	6	0.462884	28.6096	-7.78247	11.688
 377	1	3	-0.691987	28.8532	-15.2899	16.69
 378	1	7	-0.710982	27.495	-14.5833	18.3779
 379	1	1	-0.062645	28.0628	-5.68336	8.55737
 380	1	1	0.026743	27.9673	-7.0261	10.594
 381	1	1	-0.399843	26.6566	-5.65965	8.49135
 382	1	1	-0.107518	28.7131	-6.38185	9.59041
 383	1	1	0.292439	25.8784	-6.33539	9.45227
 384	1	1	-0.410418	26.5583	-6.97825	10.5117
 385	1	8	0.148547	30.0635	-13.3608	15.0211
 386	1	8	0.179912	27.2804	-11.9017	18.9236
 387	1	8	0.155197	28.3013	-10.183	17.3926
 388	1	9	0.340258	26.8786	-8.24019	12.8876
 389	1	8	0.137111	31.7152	-11.0738	14.8306
 390	1	8	0.181656	32.0576	-9.48659	12.8927
 391	1	8	0.164633	27.5111	-10.0233	14.9221
 392	1	9	0.430928	29.2133	-15.8758	15.9607
 393	1	8	0.141007	28.6533	-5.17779	7.79591
 394	1	8	0.203537	26.1558	-5.14867	7.67144
 395	1	8	0.116715	29.7996	-6.41077	9.62167
 396	1	8	0.18244	25.9756	-7.48564	11.2646
 397	1	1	-0.155485	19.6554	-16.7042	23.7868
 398	1	2	-0.03785	19.2812	-17.4707	22.6518
 399	1	1	-0.234781	16.9024	-16.9645	23.1296
 400	1	1	0.378053	17.3172	-16.2065	24.2288
 401	1	1	-0.208553	17.8939	-17.6031	22.3477
 402	1	3	-0.411858	23.6386	-17.4873	20.1805
 403	1	1	-0.147234	20.1758	-19.4059	21.2532
 404	1	1	0.107751	18.6451	-16.1079	24.5435
 405	1	4	0.626409	17.4347	-14.9725	25.9592
 406	1	2	0.00453	20.3309	-18.0924	21.7873
 407	1	1	0.356173	22.3174	-19.2476	20.1527
 408	1	1	0.030551	22.4627	-17.9825	20.6532
 409	1	1	-0.286062	21.1719	-19.9954	20.4393
 410	1	5	-0.595919	23.3651	-19.6029	19.3775
 411	1	1	-0.206338	21.5114	-17.3684	21.4724
 412	1	6	0.462884	24.1549	-18.5158	19.3889
 413	1	3	-0.691987	18.7521	-15.3339	25.6574
 414	1	7	-0.710982	16.5464	-15.4978	25.0846
 415	1	1	-0.062645	27.0002	-19.3043	17.0077
 416	1	1	0.026743	25.3971	-18.3838	18.6036
 417	1	1	-0.399843	27.6763	-18.0738	16.9621
 418	1	1	-0.107518	25.8606	-19.4511	17.8117
 419	1	1	0.292439	27.2443	-16.9808	17.747
 420	1	1	-0.410418	26.123	-17.1713	18.585
 421	1	8	0.148547	20.6972	-16.5916	24.0657
 422	1	8	0.179912	15.8484	-17.048	22.8892
 423	1	8	0.155197	17.5947	-18.1797	21.4754
 424	1	9	0.340258	24.0232	-16.5674	20.3004
 425	1	8	0.137111	19.279	-19.9725	21.4902
 426	1	8	0.181656	21.061	-20.9942	20.0313
 427	1	8	0.164633	21.6569	-16.3551	21.8305
 428	1	9	0.430928	19.577	-15.0834	26.1684
 429	1	8	0.141007	27.3398	-20.1415	16.401
 430	1	8	0.203537	28.5388	-17.9735	16.3131
 431	1	8	0.116715	25.3258	-20.3977	17.8109
 432	1	8	0.18244	25.782	-16.3258	19.1732
 433	1	1	-0.155485	7.00276	-13.0927	28.2858
 434	1	2	-0.03785	8.00981	-12.2166	27.8048
 435	1	1	-0.234781	6.47073	-11.4119	26.0483
 436	1	1	0.378053	5.50932	-12.294	26.5428
 437	1	1	-0.208553	7.7315	-11.3882	26.6812
 438	1	3	-0.411858	12.9168	-12.9364	27.6035
 439	1	1	-0.147234	9.61694	-11.8049	29.7387
 440	1	1	0.107751	5.77549	-13.1021	27.6154
 441	1	4	0.626409	3.75656	-13.4539	26.8564
 442	1	2	0.00453	9.37292	-12.2154	28.396
 443	1	1	0.356173	11.9851	-12.1636	29.4385
 444	1	1	0.030551	11.7364	-12.5768	28.1584
 445	1	1	-0.286062	10.9302	-11.7681	30.2677
 446	1	5	-0.595919	13.3032	-12.2229	29.7368
 447	1	1	-0.206338	10.4649	-12.6143	27.5909
 448	1	6	0.462884	13.8519	-12.7191	28.614
 449	1	3	-0.691987	4.67009	-13.8714	27.835
 450	1	7	-0.710982	4.26503	-12.4905	26.0675
 451	1	1	-0.062645	17.5814	-13.0135	29.2428
 452	1	1	0.026743	15.2773	-13.0418	28.4461
 453	1	1	-0.399843	17.9942	-13.7084	28.0933
 454	1	1	-0.107518	16.2254	-12.7051	29.4289
 455	1	1	0.292439	17.0552	-14.121	27.1194
 456	1	1	-0.410418	15.7147	-13.7303	27.2957
 457	1	8	0.148547	7.19637	-13.7597	29.1189
 458	1	8	0.179912	6.24383	-10.7846	25.1932
 459	1	8	0.155197	8.50882	-10.7251	26.3077
 460	1	9	0.340258	13.077	-13.3361	26.6958
 461	1	8	0.137111	8.779	-11.4896	30.355
 462	1	8	0.181656	11.13	-11.443	31.2827
 463	1	8	0.164633	10.3134	-12.9553	26.5703
 464	1	9	0.430928	4.52873	-14.5696	28.5398
 465	1	8	0.141007	18.3074	-12.7359	30.0041
 466	1	8	0.203537	19.0382	-13.986	28.0
 467	1	8	0.116715	15.9116	-12.1792	30.3269
 468	1	8	0.18244	14.9994	-14.0264	26.538
 469	1	1	-0.155485	-3.75466	-10.3791	18.9686
 470	1	2	-0.03785	-2.85372	-10.0395	20.0156
 471	1	1	-0.234781	-1.98702	-8.18225	18.6182
 472	1	1	0.378053	-2.84549	-8.59278	17.5991
 473	1	1	-0.208553	-2.00399	-8.90564	19.8312
 474	1	3	-0.411858	-0.245074	-12.2523	23.6739
 475	1	1	-0.147234	-3.7917	-11.7322	21.6925
 476	1	1	0.107751	-3.72773	-9.61817	17.7967
 477	1	4	0.626409	-3.75086	-8.9671	15.7151
 478	1	2	0.00453	-2.71284	-10.9229	21.2202
 479	1	1	0.356173	-2.36783	-12.7341	23.3624
 480	1	1	0.030551	-1.33882	-11.9453	22.9289
 481	1	1	-0.286062	-3.6261	-12.6425	22.763
 482	1	5	-0.595919	-1.9838	-13.555	24.3647
 483	1	1	-0.206338	-1.45505	-11.0421	21.871
 484	1	6	0.462884	-0.687925	-13.2485	24.5457
 485	1	3	-0.691987	-4.38171	-9.83285	16.6202
 486	1	7	-0.710982	-2.85218	-8.17115	16.3197
 487	1	1	-0.062645	0.544527	-15.4691	27.3657
 488	1	1	0.026743	0.18704	-13.8713	25.555
 489	1	1	-0.399843	1.86445	-15.0121	27.5218
 490	1	1	-0.107518	-0.289796	-14.8947	26.3947
 491	1	1	0.292439	2.37506	-13.9831	26.6983
 492	1	1	-0.410418	1.52295	-13.4429	25.7126
 493	1	8	0.148547	-4.39176	-11.2529	19.036
 494	1	8	0.179912	-1.29384	-7.36632	18.4434
 495	1	8	0.155197	-1.32116	-8.60853	20.6218
 496	1	9	0.340258	0.679159	-11.8625	23.6203
 497	1	8	0.137111	-4.76621	-11.6543	21.2203
 498	1	8	0.181656	-4.43932	-13.2679	23.1147
 499	1	8	0.164633	-0.588866	-10.4854	21.5324
 500	1	9	0.430928	-4.98219	-10.6	16.3877
 501	1	8	0.141007	0.1592	-16.2637	28.0015
 502	1	8	0.203537	2.48999	-15.4625	28.2839
 503	1	8	0.116715	-1.31295	-15.2475	26.2911
 504	1	8	0.18244	1.91717	-12.6514	25.0839
 505	1	1	-0.155485	2.76189	-6.51698	6.23204
 506	1	2	-0.03785	2.03174	-7.60687	6.77652
 507	1	1	-0.234781	2.62425	-8.96891	4.79445
 508	1	1	0.378053	3.2957	-7.86061	4.27846
 509	1	1	-0.208553	1.99069	-8.83366	6.04906
 510	1	3	-0.411858	-1.91286	-8.39715	9.74553
 511	1	1	-0.147234	1.78465	-6.72219	9.15675
 512	1	1	0.107751	3.3745	-6.69371	4.98793
 513	1	4	0.626409	4.29194	-6.47086	3.01697
 514	1	2	0.00453	1.26469	-7.45649	8.04959
 515	1	1	0.356173	-0.188222	-7.22288	10.4514
 516	1	1	0.030551	-0.705484	-7.89184	9.37674
 517	1	1	-0.286062	1.0645	-6.60873	10.3693
 518	1	5	-0.595919	-0.997733	-7.31033	11.5274
 519	1	1	-0.206338	-0.0198445	-8.04755	8.17069
 520	1	6	0.462884	-2.02737	-8.05872	11.0962
 521	1	3	-0.691987	4.04088	-5.78848	4.21698
 522	1	7	-0.710982	3.86529	-7.74448	3.06357
 523	1	1	-0.062645	-5.05605	-10.0063	12.2846
 524	1	1	0.026743	-3.09433	-8.58427	11.97
 525	1	1	-0.399843	-4.95039	-9.85303	13.6749
 526	1	1	-0.107518	-4.12088	-9.39246	11.4408
 527	1	1	0.292439	-3.94407	-9.03688	14.2419
 528	1	1	-0.410418	-3.06125	-8.37192	13.3646
 529	1	8	0.148547	2.79599	-5.55876	6.73864
 530	1	8	0.179912	2.57451	-9.88678	4.21841
 531	1	8	0.155197	1.4534	-9.68304	6.46298
 532	1	9	0.340258	-2.50991	-9.01024	9.22219
 533	1	8	0.137111	2.77188	-6.27442	9.08223
 534	1	8	0.181656	1.46867	-6.08787	11.2307
 535	1	8	0.164633	-0.460346	-8.59839	7.34663
 536	1	9	0.430928	4.20101	-4.81792	4.40454
 537	1	8	0.141007	-5.83897	-10.6313	11.8595
 538	1	8	0.203537	-5.66113	-10.3645	14.3139
 539	1	8	0.116715	-4.19255	-9.56604	10.3724
 540	1	8	0.18244	-2.26135	-7.76623	13.7886
 541	1	1	-0.155485	6.09146	-9.4951	-8.31582
 542	1	2	-0.03785	5.86002	-8.28349	-7.60357
 543	1	1	-0.234781	6.02227	-7.03746	-9.74295
 544	1	1	0.378053	6.25683	-8.24744	-10.3932
 545	1	1	-0.208553	5.81734	-7.06411	-8.34722
 546	1	3	-0.411858	5.98618	-6.16	-3.0583
 547	1	1	-0.147234	5.13607	-9.40282	-5.41808
 548	1	1	0.107751	6.27795	-9.42612	-9.7009
 549	1	4	0.626409	6.62512	-9.76585	-11.8342
 550	1	2	0.00453	5.6683	-8.27402	-6.11431
 551	1	1	0.356173	5.26097	-8.22187	-3.31869
 552	1	1	0.030551	5.78132	-7.14286	-3.97623
 553	1	1	-0.286062	4.93115	-9.38447	-4.01842
 554	1	5	-0.595919	5.10894	-7.97681	-2.00059
 555	1	1	-0.206338	6.00476	-7.11997	-5.35437
 556	1	6	0.462884	5.53893	-6.71198	-1.85509
 557	1	3	-0.691987	6.51128	-10.4262	-10.6016
 558	1	7	-0.710982	6.47554	-8.43489	-11.708
 559	1	1	-0.062645	5.86231	-3.89878	0.673253
 560	1	1	0.026743	5.50305	-5.96438	-0.582461
 561	1	1	-0.399843	5.33623	-4.49945	1.82669
 562	1	1	-0.107518	5.93947	-4.62533	-0.522755
 563	1	1	0.292439	4.8936	-5.84259	1.80966
 564	1	1	-0.410418	5.00251	-6.5562	0.596736
 565	1	8	0.148547	6.14524	-10.4484	-7.80314
 566	1	8	0.179912	5.99234	-6.11443	-10.3117
 567	1	8	0.155197	5.60351	-6.12819	-7.84026
 568	1	9	0.340258	6.32322	-5.2279	-3.21248
 569	1	8	0.137111	4.85057	-10.2912	-5.97281
 570	1	8	0.181656	4.51075	-10.2326	-3.48848
 571	1	8	0.164633	6.43385	-6.24174	-5.82171
 572	1	9	0.430928	6.57161	-11.4126	-10.4333
 573	1	8	0.141007	6.19994	-2.86464	0.699581
 574	1	8	0.203537	5.27629	-3.91696	2.73852
 575	1	8	0.116715	6.33308	-4.13248	-1.40512
 576	1	8	0.18244	4.65421	-7.58778	0.564055
 577	1	1	-0.155485	6.87636	-3.54431	-19.6715
 578	1	2	-0.03785	7.15879	-4.67477	-20.4973
 579	1	1	-0.234781	7.27877	-3.12168	-22.4418
 580	1	1	0.378053	7.0239	-2.05511	-21.5806
 581	1	1	-0.208553	7.34957	-4.42442	-21.8947
 582	1	3	-0.411858	7.2359	-7.97758	-16.7069
 583	1	1	-0.147234	7.37922	-7.24054	-20.7238
 584	1	1	0.107751	6.82285	-2.27537	-20.25
 585	1	4	0.626409	6.83584	-0.133966	-20.6832
 586	1	2	0.00453	7.26418	-6.06631	-19.9087
 587	1	1	0.356173	7.4026	-8.67603	-18.7826
 588	1	1	0.030551	7.30164	-7.56428	-17.9974
 589	1	1	-0.286062	7.45476	-8.54239	-20.1706
 590	1	5	-0.595919	7.40913	-9.812	-18.0477
 591	1	1	-0.206338	7.24068	-6.2642	-18.498
 592	1	6	0.462884	7.28501	-9.36916	-16.7845
 593	1	3	-0.691987	6.65756	-1.06315	-19.6481
 594	1	7	-0.710982	7.01399	-0.738516	-21.8719
 595	1	1	-0.062645	7.17226	-12.4261	-14.5335
 596	1	1	0.026743	7.18413	-10.2257	-15.589
 597	1	1	-0.399843	6.97515	-11.833	-13.2736
 598	1	1	-0.107518	7.26949	-11.6266	-15.6833
 599	1	1	0.292439	6.86619	-10.4299	-13.1449
 600	1	1	-0.410418	6.98285	-9.65133	-14.3149
 601	1	8	0.148547	6.71018	-3.63052	-18.6083
 602	1	8	0.179912	7.4511	-2.93143	-23.4959
 603	1	8	0.155197	7.58193	-5.23806	-22.5717
 604	1	9	0.340258	7.14029	-7.42339	-15.8752
 605	1	8	0.137111	7.39279	-7.15631	-21.8037
 606	1	8	0.181656	7.52818	-9.42547	-20.7961
 607	1	8	0.164633	7.17306	-5.44464	-17.7982
 608	1	9	0.430928	6.56233	-0.865705	-18.6714
 609	1	8	0.141007	7.24582	-13.5079	-14.6256
 610	1	8	0.203537	6.89386	-12.4692	-12.3998
 611	1	8	0.116715	7.41786	-12.0957	-16.6529
 612	1	8	0.18244	6.89703	-8.5751	-14.2119
 613	1	1	-0.155485	12.4269	8.26696	-25.028
 614	1	2	-0.03785	11.3957	7.83691	-25.9075
 615	1	1	-0.234781	12.5501	9.00149	-27.77
 616	1	1	0.378053	13.5494	9.38361	-26.8732
 617	1	1	-0.208553	11.4743	8.22605	-27.2793
 618	1	3	-0.411858	8.50021	5.67577	-22.3996
 619	1	1	-0.147234	9.84088	5.87089	-26.2765
 620	1	1	0.107751	13.4704	9.03272	-25.554
 621	1	4	0.626409	15.2987	10.1632	-25.9482
 622	1	2	0.00453	10.3252	6.90615	-25.4223
 623	1	1	0.356173	8.59255	4.90853	-24.4617
 624	1	1	0.030551	8.98169	5.93952	-23.6507
 625	1	1	-0.286062	8.97663	4.86258	-25.8007
 626	1	5	-0.595919	7.94001	3.95085	-23.7792
 627	1	1	-0.206338	9.85938	6.94546	-24.0769
 628	1	6	0.462884	7.93467	4.39989	-22.5156
 629	1	3	-0.691987	14.5809	9.51774	-24.9327
 630	1	7	-0.710982	14.6736	10.0833	-27.1373
 631	1	1	-0.062645	7.09362	3.2795	-18.982
 632	1	1	0.026743	7.50055	3.5734	-21.3717
 633	1	1	-0.399843	6.85687	1.90941	-19.1822
 634	1	1	-0.107518	7.43864	4.10021	-20.0666
 635	1	1	0.292439	6.94147	1.33788	-20.4738
 636	1	1	-0.410418	7.21662	2.20229	-21.5533