
Host: chesdens.d3.icgm.fr

Timers On : Thu Dec 15 13:56:32 2022
Timers Off: Thu Dec 15 14:12:14 2022

Wall Time:      941.58 seconds

                                                       Time (seconds)
Module                                       User      System        Wall        Calls

--------------------------------------------------------------------------------------

**************************************************************************************
