

################################################################################
##################################    Init    ##################################
################################################################################
units           real
atom_style      full
pair_style      lj/cut/coul/long 12.0  12.0
kspace_style    pppm 1e-4
bond_style      harmonic
angle_style     harmonic
dihedral_style  fourier
improper_style  cvff
special_bonds   amber
pair_modify     mix arithmetic
read_data       temp.lmps
  orthogonal box = (-102.372 -102.372 -102.372) to (102.372 102.372 102.372)
  1 by 1 by 1 MPI processor grid
  reading atoms ...
  764 atoms
  reading velocities ...
  764 velocities
  scanning bonds ...
  4 = max bonds/atom
  scanning angles ...
  6 = max angles/atom
  scanning dihedrals ...
  27 = max dihedrals/atom
  scanning impropers ...
  1 = max impropers/atom
  reading bonds ...
  892 bonds
  reading angles ...
  1860 angles
  reading dihedrals ...
  3448 dihedrals
  reading impropers ...
  60 impropers
  4 = max # of 1-2 neighbors
  10 = max # of 1-3 neighbors
  24 = max # of 1-4 neighbors
  25 = max # of special neighbors
  special bonds CPU = 0.00172091 secs
  read_data CPU = 0.013938 secs
################################################################################

min_style cg
minimize 1e-06 1e-06 1000000 10000000
WARNING: Using 'neigh_modify every 1 delay 0 check yes' setting during minimization (../min.cpp:190)
PPPM initialization ...
WARNING: System is not charge neutral, net charge = -5e-05 (../kspace.cpp:313)
  using 12-bit tables for long-range coulomb (../kspace.cpp:332)
  G vector (1/distance) = 0.141168
  grid = 32 32 32
  stencil order = 5
  estimated absolute RMS force accuracy = 0.00125595
  estimated relative force accuracy = 3.78224e-06
  using double precision KISS FFT
  3d grid and FFT values/proc = 50653 32768
Neighbor list info ...
  update every 1 steps, delay 0 steps, check yes
  max neighbors/atom: 2000, page size: 100000
  master list distance cutoff = 14
  ghost atom cutoff = 14
  binsize = 7, bins = 30 30 30
  1 neighbor lists, perpetual/occasional/extra = 1 0 0
  (1) pair lj/cut/coul/long, perpetual
      attributes: half, newton on
      pair build: half/bin/newton
      stencil: half/bin/3d/newton
      bin: standard
Per MPI rank memory allocation (min/avg/max) = 24.76 | 24.76 | 24.76 Mbytes
Step Temp E_pair E_mol TotEng Press 
       0    386.22046    1181.9857    7809.3932    9869.7825  -0.72412771 
     287    386.22046     1186.958    7344.4331    9409.7947    4.9513205 
Loop time of 5.57655 on 1 procs for 287 steps with 764 atoms

99.7% CPU use with 1 MPI tasks x no OpenMP threads

Minimization stats:
  Stopping criterion = energy tolerance
  Energy initial, next-to-last, final = 
         8991.37889504      8531.39749384      8531.39106316
  Force two-norm initial, final = 874.105 5.95973
  Force max component initial, final = 305.637 1.11161
  Final line search alpha, max atom move = 0.0569007 0.0632512
  Iterations, force evaluations = 287 573

MPI task timing breakdown:
Section |  min time  |  avg time  |  max time  |%varavg| %total
---------------------------------------------------------------
Pair    | 1.0141     | 1.0141     | 1.0141     |   0.0 | 18.18
Bond    | 0.2567     | 0.2567     | 0.2567     |   0.0 |  4.60
Kspace  | 4.2854     | 4.2854     | 4.2854     |   0.0 | 76.85
Neigh   | 0.0038109  | 0.0038109  | 0.0038109  |   0.0 |  0.07
Comm    | 0.00061965 | 0.00061965 | 0.00061965 |   0.0 |  0.01
Output  | 0          | 0          | 0          |   0.0 |  0.00
Modify  | 0          | 0          | 0          |   0.0 |  0.00
Other   |            | 0.01595    |            |       |  0.29

Nlocal:    764 ave 764 max 764 min
Histogram: 1 0 0 0 0 0 0 0 0 0
Nghost:    0 ave 0 max 0 min
Histogram: 1 0 0 0 0 0 0 0 0 0
Neighs:    49599 ave 49599 max 49599 min
Histogram: 1 0 0 0 0 0 0 0 0 0

Total # of neighbors = 49599
Ave neighs/atom = 64.9202
Ave special neighs/atom = 13.9319
Neighbor list builds = 2
Dangerous builds = 0
write_dump all custom pysimm.dump.tmp id q x y z vx vy vz
quit


################################################################################
##################################    Init    ##################################
################################################################################
units           real
atom_style      full
pair_style      lj/cut/coul/long 12.0  12.0
kspace_style    pppm 1e-4
bond_style      harmonic
angle_style     harmonic
dihedral_style  fourier
improper_style  cvff
special_bonds   amber
pair_modify     mix arithmetic
read_data       temp.lmps
  orthogonal box = (-128.98 -128.98 -128.98) to (128.98 128.98 128.98)
  1 by 1 by 1 MPI processor grid
  reading atoms ...
  842 atoms
  reading velocities ...
  842 velocities
  scanning bonds ...
  4 = max bonds/atom
  scanning angles ...
  6 = max angles/atom
  scanning dihedrals ...
  27 = max dihedrals/atom
  scanning impropers ...
  1 = max impropers/atom
  reading bonds ...
  982 bonds
  reading angles ...
  2046 angles
  reading dihedrals ...
  3788 dihedrals
  reading impropers ...
  66 impropers
  4 = max # of 1-2 neighbors
  10 = max # of 1-3 neighbors
  24 = max # of 1-4 neighbors
  25 = max # of special neighbors
  special bonds CPU = 0.000956059 secs
  read_data CPU = 0.013701 secs
################################################################################

min_style cg
minimize 1e-06 1e-06 1000000 10000000
WARNING: Using 'neigh_modify every 1 delay 0 check yes' setting during minimization (../min.cpp:190)
PPPM initialization ...
WARNING: System is not charge neutral, net charge = -5.5e-05 (../kspace.cpp:313)
  using 12-bit tables for long-range coulomb (../kspace.cpp:332)
  G vector (1/distance) = 0.149912
  grid = 45 45 45
  stencil order = 5
  estimated absolute RMS force accuracy = 0.000642141
  estimated relative force accuracy = 1.93379e-06
  using double precision KISS FFT
  3d grid and FFT values/proc = 125000 91125
Neighbor list info ...
  update every 1 steps, delay 0 steps, check yes
  max neighbors/atom: 2000, page size: 100000
  master list distance cutoff = 14
  ghost atom cutoff = 14
  binsize = 7, bins = 37 37 37
  1 neighbor lists, perpetual/occasional/extra = 1 0 0
  (1) pair lj/cut/coul/long, perpetual
      attributes: half, newton on
      pair build: half/bin/newton
      stencil: half/bin/3d/newton
      bin: standard
Per MPI rank memory allocation (min/avg/max) = 32.66 | 32.66 | 32.66 Mbytes
Step Temp E_pair E_mol TotEng Press 
       0    747.70569    1234.8965    8762.0712    11871.362   -1.6980035 
    1094    747.70569    1200.4296    7756.3377    10831.162    4.9604181 
Loop time of 50.1111 on 1 procs for 1094 steps with 842 atoms

99.7% CPU use with 1 MPI tasks x no OpenMP threads

Minimization stats:
  Stopping criterion = energy tolerance
  Energy initial, next-to-last, final = 
         9996.96776861      8956.77122794      8956.76735414
  Force two-norm initial, final = 1068.21 7.95868
  Force max component initial, final = 311.001 1.77719
  Final line search alpha, max atom move = 0.0373753 0.066423
  Iterations, force evaluations = 1094 2186

MPI task timing breakdown:
Section |  min time  |  avg time  |  max time  |%varavg| %total
---------------------------------------------------------------
Pair    | 4.7046     | 4.7046     | 4.7046     |   0.0 |  9.39
Bond    | 1.0665     | 1.0665     | 1.0665     |   0.0 |  2.13
Kspace  | 44.241     | 44.241     | 44.241     |   0.0 | 88.29
Neigh   | 0.030329   | 0.030329   | 0.030329   |   0.0 |  0.06
Comm    | 0.0027633  | 0.0027633  | 0.0027633  |   0.0 |  0.01
Output  | 0          | 0          | 0          |   0.0 |  0.00
Modify  | 0          | 0          | 0          |   0.0 |  0.00
Other   |            | 0.06618    |            |       |  0.13

Nlocal:    842 ave 842 max 842 min
Histogram: 1 0 0 0 0 0 0 0 0 0
Nghost:    0 ave 0 max 0 min
Histogram: 1 0 0 0 0 0 0 0 0 0
Neighs:    61298 ave 61298 max 61298 min
Histogram: 1 0 0 0 0 0 0 0 0 0

Total # of neighbors = 61298
Ave neighs/atom = 72.8005
Ave special neighs/atom = 13.9216
Neighbor list builds = 14
Dangerous builds = 0
write_dump all custom pysimm.dump.tmp id q x y z vx vy vz
quit


################################################################################
##################################    Init    ##################################
################################################################################
units           real
atom_style      full
pair_style      lj/cut/coul/long 12.0  12.0
kspace_style    pppm 1e-4
bond_style      harmonic
angle_style     harmonic
dihedral_style  fourier
improper_style  cvff
special_bonds   amber
pair_modify     mix arithmetic
read_data       temp.lmps
  orthogonal box = (-133.144 -133.144 -133.144) to (133.144 133.144 133.144)
  1 by 1 by 1 MPI processor grid
  reading atoms ...
  920 atoms
  reading velocities ...
  920 velocities
  scanning bonds ...
  4 = max bonds/atom
  scanning angles ...
  6 = max angles/atom
  scanning dihedrals ...
  27 = max dihedrals/atom
  scanning impropers ...
  1 = max impropers/atom
  reading bonds ...
  1072 bonds
  reading angles ...
  2232 angles
  reading dihedrals ...
  4128 dihedrals
  reading impropers ...
  72 impropers
  4 = max # of 1-2 neighbors
  10 = max # of 1-3 neighbors
  24 = max # of 1-4 neighbors
  25 = max # of special neighbors
  special bonds CPU = 0.0010078 secs
  read_data CPU = 0.0130701 secs
################################################################################

min_style cg
minimize 1e-06 1e-06 1000000 10000000
WARNING: Using 'neigh_modify every 1 delay 0 check yes' setting during minimization (../min.cpp:190)
PPPM initialization ...
WARNING: System is not charge neutral, net charge = -6e-05 (../kspace.cpp:313)
  using 12-bit tables for long-range coulomb (../kspace.cpp:332)
  G vector (1/distance) = 0.147357
  grid = 45 45 45
  stencil order = 5
  estimated absolute RMS force accuracy = 0.00071294
  estimated relative force accuracy = 2.147e-06
  using double precision KISS FFT
  3d grid and FFT values/proc = 125000 91125
Neighbor list info ...
  update every 1 steps, delay 0 steps, check yes
  max neighbors/atom: 2000, page size: 100000
  master list distance cutoff = 14
  ghost atom cutoff = 14
  binsize = 7, bins = 39 39 39
  1 neighbor lists, perpetual/occasional/extra = 1 0 0
  (1) pair lj/cut/coul/long, perpetual
      attributes: half, newton on
      pair build: half/bin/newton
      stencil: half/bin/3d/newton
      bin: standard
Per MPI rank memory allocation (min/avg/max) = 32.71 | 32.71 | 32.71 Mbytes
Step Temp E_pair E_mol TotEng Press 
       0    696.98386    1236.4059    9146.0648    12291.764  -0.19208822 
     689    696.98386    1192.5592    8174.4597    11276.312    4.8955023 
Loop time of 32.7728 on 1 procs for 689 steps with 920 atoms

99.7% CPU use with 1 MPI tasks x no OpenMP threads

Minimization stats:
  Stopping criterion = energy tolerance
  Energy initial, next-to-last, final = 
         10382.4706976      9367.02314071      9367.01889888
  Force two-norm initial, final = 1228.59 5.31988
  Force max component initial, final = 306.275 1.15832
  Final line search alpha, max atom move = 0.0596397 0.0690817
  Iterations, force evaluations = 689 1377

MPI task timing breakdown:
Section |  min time  |  avg time  |  max time  |%varavg| %total
---------------------------------------------------------------
Pair    | 3.65       | 3.65       | 3.65       |   0.0 | 11.14
Bond    | 0.73532    | 0.73532    | 0.73532    |   0.0 |  2.24
Kspace  | 28.317     | 28.317     | 28.317     |   0.0 | 86.40
Neigh   | 0.022156   | 0.022156   | 0.022156   |   0.0 |  0.07
Comm    | 0.0017185  | 0.0017185  | 0.0017185  |   0.0 |  0.01
Output  | 0          | 0          | 0          |   0.0 |  0.00
Modify  | 0          | 0          | 0          |   0.0 |  0.00
Other   |            | 0.04677    |            |       |  0.14

Nlocal:    920 ave 920 max 920 min
Histogram: 1 0 0 0 0 0 0 0 0 0
Nghost:    0 ave 0 max 0 min
Histogram: 1 0 0 0 0 0 0 0 0 0
Neighs:    74775 ave 74775 max 74775 min
Histogram: 1 0 0 0 0 0 0 0 0 0

Total # of neighbors = 74775
Ave neighs/atom = 81.2772
Ave special neighs/atom = 13.913
Neighbor list builds = 9
Dangerous builds = 0
write_dump all custom pysimm.dump.tmp id q x y z vx vy vz
quit


################################################################################
##################################    Init    ##################################
################################################################################
units           real
atom_style      full
pair_style      lj/cut/coul/long 12.0  12.0
kspace_style    pppm 1e-4
bond_style      harmonic
angle_style     harmonic
dihedral_style  fourier
improper_style  cvff
special_bonds   amber
pair_modify     mix arithmetic
read_data       temp.lmps
  orthogonal box = (-137.062 -137.062 -137.062) to (137.062 137.062 137.062)
  1 by 1 by 1 MPI processor grid
  reading atoms ...
  998 atoms
  reading velocities ...
  998 velocities
  scanning bonds ...
  4 = max bonds/atom
  scanning angles ...
  6 = max angles/atom
  scanning dihedrals ...
  27 = max dihedrals/atom
  scanning impropers ...
  1 = max impropers/atom
  reading bonds ...
  1162 bonds
  reading angles ...
  2418 angles
  reading dihedrals ...
  4468 dihedrals
  reading impropers ...
  78 impropers
  4 = max # of 1-2 neighbors
  10 = max # of 1-3 neighbors
  24 = max # of 1-4 neighbors
  25 = max # of special neighbors
  special bonds CPU = 0.00105095 secs
  read_data CPU = 0.014956 secs
################################################################################

min_style cg
minimize 1e-06 1e-06 1000000 10000000
WARNING: Using 'neigh_modify every 1 delay 0 check yes' setting during minimization (../min.cpp:190)
PPPM initialization ...
WARNING: System is not charge neutral, net charge = -6.5e-05 (../kspace.cpp:313)
  using 12-bit tables for long-range coulomb (../kspace.cpp:332)
  G vector (1/distance) = 0.145036
  grid = 45 45 45
  stencil order = 5
  estimated absolute RMS force accuracy = 0.000783329
  estimated relative force accuracy = 2.35897e-06
  using double precision KISS FFT
  3d grid and FFT values/proc = 125000 91125
Neighbor list info ...
  update every 1 steps, delay 0 steps, check yes
  max neighbors/atom: 2000, page size: 100000
  master list distance cutoff = 14
  ghost atom cutoff = 14
  binsize = 7, bins = 40 40 40
  1 neighbor lists, perpetual/occasional/extra = 1 0 0
  (1) pair lj/cut/coul/long, perpetual
      attributes: half, newton on
      pair build: half/bin/newton
      stencil: half/bin/3d/newton
      bin: standard
Per MPI rank memory allocation (min/avg/max) = 32.75 | 32.75 | 32.75 Mbytes
Step Temp E_pair E_mol TotEng Press 
       0    844.48624    1429.0806     10063.71    14002.492    1.1969026 
     963    844.48624    1220.0947    8638.7661    12368.562    5.5461763 
Loop time of 46.5044 on 1 procs for 963 steps with 998 atoms

99.7% CPU use with 1 MPI tasks x no OpenMP threads

Minimization stats:
  Stopping criterion = energy tolerance
  Energy initial, next-to-last, final = 
         11492.7907353       9858.8661765      9858.86080371
  Force two-norm initial, final = 2004.82 6.17463
  Force max component initial, final = 1017.86 2.51949
  Final line search alpha, max atom move = 0.0554604 0.139732
  Iterations, force evaluations = 963 1923

MPI task timing breakdown:
Section |  min time  |  avg time  |  max time  |%varavg| %total
---------------------------------------------------------------
Pair    | 5.7966     | 5.7966     | 5.7966     |   0.0 | 12.46
Bond    | 1.1055     | 1.1055     | 1.1055     |   0.0 |  2.38
Kspace  | 39.483     | 39.483     | 39.483     |   0.0 | 84.90
Neigh   | 0.049382   | 0.049382   | 0.049382   |   0.0 |  0.11
Comm    | 0.0022154  | 0.0022154  | 0.0022154  |   0.0 |  0.00
Output  | 0          | 0          | 0          |   0.0 |  0.00
Modify  | 0          | 0          | 0          |   0.0 |  0.00
Other   |            | 0.06786    |            |       |  0.15

Nlocal:    998 ave 998 max 998 min
Histogram: 1 0 0 0 0 0 0 0 0 0
Nghost:    0 ave 0 max 0 min
Histogram: 1 0 0 0 0 0 0 0 0 0
Neighs:    86591 ave 86591 max 86591 min
Histogram: 1 0 0 0 0 0 0 0 0 0

Total # of neighbors = 86591
Ave neighs/atom = 86.7645
Ave special neighs/atom = 13.9058
Neighbor list builds = 18
Dangerous builds = 0
write_dump all custom pysimm.dump.tmp id q x y z vx vy vz
quit


################################################################################
##################################    Init    ##################################
################################################################################
units           real
atom_style      full
pair_style      lj/cut/coul/long 12.0  12.0
kspace_style    pppm 1e-4
bond_style      harmonic
angle_style     harmonic
dihedral_style  fourier
improper_style  cvff
special_bonds   amber
pair_modify     mix arithmetic
read_data       temp.lmps
  orthogonal box = (-140.768 -140.768 -140.768) to (140.768 140.768 140.768)
  1 by 1 by 1 MPI processor grid
  reading atoms ...
  1076 atoms
  reading velocities ...
  1076 velocities
  scanning bonds ...
  4 = max bonds/atom
  scanning angles ...
  6 = max angles/atom
  scanning dihedrals ...
  27 = max dihedrals/atom
  scanning impropers ...
  1 = max impropers/atom
  reading bonds ...
  1252 bonds
  reading angles ...
  2604 angles
  reading dihedrals ...
  4808 dihedrals
  reading impropers ...
  84 impropers
  4 = max # of 1-2 neighbors
  10 = max # of 1-3 neighbors
  24 = max # of 1-4 neighbors
  25 = max # of special neighbors
  special bonds CPU = 0.00104022 secs
  read_data CPU = 0.014379 secs
################################################################################

min_style cg
minimize 1e-06 1e-06 1000000 10000000
WARNING: Using 'neigh_modify every 1 delay 0 check yes' setting during minimization (../min.cpp:190)
PPPM initialization ...
WARNING: System is not charge neutral, net charge = -7e-05 (../kspace.cpp:313)
  using 12-bit tables for long-range coulomb (../kspace.cpp:332)
  G vector (1/distance) = 0.14292
  grid = 45 45 45
  stencil order = 5
  estimated absolute RMS force accuracy = 0.000853304
  estimated relative force accuracy = 2.5697e-06
  using double precision KISS FFT
  3d grid and FFT values/proc = 125000 91125
Neighbor list info ...
  update every 1 steps, delay 0 steps, check yes
  max neighbors/atom: 2000, page size: 100000
  master list distance cutoff = 14
  ghost atom cutoff = 14
  binsize = 7, bins = 41 41 41
  1 neighbor lists, perpetual/occasional/extra = 1 0 0
  (1) pair lj/cut/coul/long, perpetual
      attributes: half, newton on
      pair build: half/bin/newton
      stencil: half/bin/3d/newton
      bin: standard
Per MPI rank memory allocation (min/avg/max) = 32.78 | 32.78 | 32.78 Mbytes
Step Temp E_pair E_mol TotEng Press 
       0    775.48977    2861.9216    10478.894    15825.772    17.921253 
     652    775.48977    1254.6164     9037.912    12777.485    5.1762471 
Loop time of 31.6928 on 1 procs for 652 steps with 1076 atoms

99.7% CPU use with 1 MPI tasks x no OpenMP threads

Minimization stats:
  Stopping criterion = energy tolerance
  Energy initial, next-to-last, final = 
          13340.815575      10292.5356294      10292.5284198
  Force two-norm initial, final = 15617.4 13.0199
  Force max component initial, final = 7254.48 4.17716
  Final line search alpha, max atom move = 0.0194096 0.0810769
  Iterations, force evaluations = 652 1300

MPI task timing breakdown:
Section |  min time  |  avg time  |  max time  |%varavg| %total
---------------------------------------------------------------
Pair    | 3.7564     | 3.7564     | 3.7564     |   0.0 | 11.85
Bond    | 0.7996     | 0.7996     | 0.7996     |   0.0 |  2.52
Kspace  | 27.063     | 27.063     | 27.063     |   0.0 | 85.39
Neigh   | 0.024176   | 0.024176   | 0.024176   |   0.0 |  0.08
Comm    | 0.0015192  | 0.0015192  | 0.0015192  |   0.0 |  0.00
Output  | 0          | 0          | 0          |   0.0 |  0.00
Modify  | 0          | 0          | 0          |   0.0 |  0.00
Other   |            | 0.04857    |            |       |  0.15

Nlocal:    1076 ave 1076 max 1076 min
Histogram: 1 0 0 0 0 0 0 0 0 0
Nghost:    0 ave 0 max 0 min
Histogram: 1 0 0 0 0 0 0 0 0 0
Neighs:    81336 ave 81336 max 81336 min
Histogram: 1 0 0 0 0 0 0 0 0 0

Total # of neighbors = 81336
Ave neighs/atom = 75.5911
Ave special neighs/atom = 13.8996
Neighbor list builds = 8
Dangerous builds = 0
write_dump all custom pysimm.dump.tmp id q x y z vx vy vz
quit


################################################################################
##################################    Init    ##################################
################################################################################
units           real
atom_style      full
pair_style      lj/cut/coul/long 12.0  12.0
kspace_style    pppm 1e-4
bond_style      harmonic
angle_style     harmonic
dihedral_style  fourier
improper_style  cvff
special_bonds   amber
pair_modify     mix arithmetic
read_data       temp.lmps
  orthogonal box = (-144.289 -144.289 -144.289) to (144.289 144.289 144.289)
  1 by 1 by 1 MPI processor grid
  reading atoms ...
  1154 atoms
  reading velocities ...
  1154 velocities
  scanning bonds ...
  4 = max bonds/atom
  scanning angles ...
  6 = max angles/atom
  scanning dihedrals ...
  27 = max dihedrals/atom
  scanning impropers ...
  1 = max impropers/atom
  reading bonds ...
  1342 bonds
  reading angles ...
  2790 angles
  reading dihedrals ...
  5148 dihedrals
  reading impropers ...
  90 impropers
  4 = max # of 1-2 neighbors
  10 = max # of 1-3 neighbors
  24 = max # of 1-4 neighbors
  25 = max # of special neighbors
  special bonds CPU = 0.00117397 secs
  read_data CPU = 0.0152428 secs
################################################################################

min_style cg
minimize 1e-06 1e-06 1000000 10000000
WARNING: Using 'neigh_modify every 1 delay 0 check yes' setting during minimization (../min.cpp:190)
PPPM initialization ...
WARNING: System is not charge neutral, net charge = -7.5e-05 (../kspace.cpp:313)
  using 12-bit tables for long-range coulomb (../kspace.cpp:332)
  G vector (1/distance) = 0.140992
  grid = 45 45 45
  stencil order = 5
  estimated absolute RMS force accuracy = 0.000922953
  estimated relative force accuracy = 2.77945e-06
  using double precision KISS FFT
  3d grid and FFT values/proc = 125000 91125
Neighbor list info ...
  update every 1 steps, delay 0 steps, check yes
  max neighbors/atom: 2000, page size: 100000
  master list distance cutoff = 14
  ghost atom cutoff = 14
  binsize = 7, bins = 42 42 42
  1 neighbor lists, perpetual/occasional/extra = 1 0 0
  (1) pair lj/cut/coul/long, perpetual
      attributes: half, newton on
      pair build: half/bin/newton
      stencil: half/bin/3d/newton
      bin: standard
Per MPI rank memory allocation (min/avg/max) = 32.82 | 32.82 | 32.82 Mbytes
Step Temp E_pair E_mol TotEng Press 
       0    723.11389    1424.6724    11037.398    14947.322   -1.4875778 
    1422    723.11389    1255.3637    9329.6364    13070.251    4.5766352 
Loop time of 69.9917 on 1 procs for 1422 steps with 1154 atoms

99.7% CPU use with 1 MPI tasks x no OpenMP threads

Minimization stats:
  Stopping criterion = energy tolerance
  Energy initial, next-to-last, final = 
         12462.0706415      10585.0082705      10585.0000815
  Force two-norm initial, final = 1817.91 7.46463
  Force max component initial, final = 466.563 3.10258
  Final line search alpha, max atom move = 0.0338341 0.104973
  Iterations, force evaluations = 1422 2841

MPI task timing breakdown:
Section |  min time  |  avg time  |  max time  |%varavg| %total
---------------------------------------------------------------
Pair    | 8.6904     | 8.6904     | 8.6904     |   0.0 | 12.42
Bond    | 1.8947     | 1.8947     | 1.8947     |   0.0 |  2.71
Kspace  | 59.226     | 59.226     | 59.226     |   0.0 | 84.62
Neigh   | 0.063015   | 0.063015   | 0.063015   |   0.0 |  0.09
Comm    | 0.003979   | 0.003979   | 0.003979   |   0.0 |  0.01
Output  | 0          | 0          | 0          |   0.0 |  0.00
Modify  | 0          | 0          | 0          |   0.0 |  0.00
Other   |            | 0.1131     |            |       |  0.16

Nlocal:    1154 ave 1154 max 1154 min
Histogram: 1 0 0 0 0 0 0 0 0 0
Nghost:    0 ave 0 max 0 min
Histogram: 1 0 0 0 0 0 0 0 0 0
Neighs:    88446 ave 88446 max 88446 min
Histogram: 1 0 0 0 0 0 0 0 0 0

Total # of neighbors = 88446
Ave neighs/atom = 76.643
Ave special neighs/atom = 13.8943
Neighbor list builds = 21
Dangerous builds = 0
write_dump all custom pysimm.dump.tmp id q x y z vx vy vz
quit


################################################################################
##################################    Init    ##################################
################################################################################
units           real
atom_style      full
pair_style      lj/cut/coul/long 12.0  12.0
kspace_style    pppm 1e-4
bond_style      harmonic
angle_style     harmonic
dihedral_style  fourier
improper_style  cvff
special_bonds   amber
pair_modify     mix arithmetic
read_data       temp.lmps
  orthogonal box = (-147.646 -147.646 -147.646) to (147.646 147.646 147.646)
  1 by 1 by 1 MPI processor grid
  reading atoms ...
  1232 atoms
  reading velocities ...
  1232 velocities
  scanning bonds ...
  4 = max bonds/atom
  scanning angles ...
  6 = max angles/atom
  scanning dihedrals ...
  27 = max dihedrals/atom
  scanning impropers ...
  1 = max impropers/atom
  reading bonds ...
  1432 bonds
  reading angles ...
  2976 angles
  reading dihedrals ...
  5488 dihedrals
  reading impropers ...
  96 impropers
  4 = max # of 1-2 neighbors
  10 = max # of 1-3 neighbors
  24 = max # of 1-4 neighbors
  25 = max # of special neighbors
  special bonds CPU = 0.0012598 secs
  read_data CPU = 0.0160441 secs
################################################################################

min_style cg
minimize 1e-06 1e-06 1000000 10000000
WARNING: Using 'neigh_modify every 1 delay 0 check yes' setting during minimization (../min.cpp:190)
PPPM initialization ...
WARNING: System is not charge neutral, net charge = -8e-05 (../kspace.cpp:313)
  using 12-bit tables for long-range coulomb (../kspace.cpp:332)
  G vector (1/distance) = 0.144252
  grid = 48 48 48
  stencil order = 5
  estimated absolute RMS force accuracy = 0.000802163
  estimated relative force accuracy = 2.41569e-06
  using double precision KISS FFT
  3d grid and FFT values/proc = 148877 110592
Neighbor list info ...
  update every 1 steps, delay 0 steps, check yes
  max neighbors/atom: 2000, page size: 100000
  master list distance cutoff = 14
  ghost atom cutoff = 14
  binsize = 7, bins = 43 43 43
  1 neighbor lists, perpetual/occasional/extra = 1 0 0
  (1) pair lj/cut/coul/long, perpetual
      attributes: half, newton on
      pair build: half/bin/newton
      stencil: half/bin/3d/newton
      bin: standard
Per MPI rank memory allocation (min/avg/max) = 35.41 | 35.41 | 35.41 Mbytes
Step Temp E_pair E_mol TotEng Press 
       0    550.97545    1711.6066    11394.569    15127.912  -0.87642449 
    1077    550.97545     1284.184    9712.2397     13018.16    3.4960199 
Loop time of 66.7688 on 1 procs for 1077 steps with 1232 atoms

99.7% CPU use with 1 MPI tasks x no OpenMP threads

Minimization stats:
  Stopping criterion = linesearch alpha is zero
  Energy initial, next-to-last, final = 
         13106.1754077      10996.4236084      10996.4236084
  Force two-norm initial, final = 5017.79 14.8483
  Force max component initial, final = 2243.68 5.50361
  Final line search alpha, max atom move = 3.02168e-11 1.66301e-10
  Iterations, force evaluations = 1077 2206

MPI task timing breakdown:
Section |  min time  |  avg time  |  max time  |%varavg| %total
---------------------------------------------------------------
Pair    | 7.0289     | 7.0289     | 7.0289     |   0.0 | 10.53
Bond    | 1.5808     | 1.5808     | 1.5808     |   0.0 |  2.37
Kspace  | 58.024     | 58.024     | 58.024     |   0.0 | 86.90
Neigh   | 0.040316   | 0.040316   | 0.040316   |   0.0 |  0.06
Comm    | 0.0025122  | 0.0025122  | 0.0025122  |   0.0 |  0.00
Output  | 0          | 0          | 0          |   0.0 |  0.00
Modify  | 0          | 0          | 0          |   0.0 |  0.00
Other   |            | 0.09267    |            |       |  0.14

Nlocal:    1232 ave 1232 max 1232 min
Histogram: 1 0 0 0 0 0 0 0 0 0
Nghost:    0 ave 0 max 0 min
Histogram: 1 0 0 0 0 0 0 0 0 0
Neighs:    88297 ave 88297 max 88297 min
Histogram: 1 0 0 0 0 0 0 0 0 0

Total # of neighbors = 88297
Ave neighs/atom = 71.6696
Ave special neighs/atom = 13.8896
Neighbor list builds = 12
Dangerous builds = 0
write_dump all custom pysimm.dump.tmp id q x y z vx vy vz
quit


################################################################################
##################################    Init    ##################################
################################################################################
units           real
atom_style      full
pair_style      lj/cut/coul/long 12.0  12.0
kspace_style    pppm 1e-4
bond_style      harmonic
angle_style     harmonic
dihedral_style  fourier
improper_style  cvff
special_bonds   amber
pair_modify     mix arithmetic
read_data       temp.lmps
  orthogonal box = (-150.856 -150.856 -150.856) to (150.856 150.856 150.856)
  1 by 1 by 1 MPI processor grid
  reading atoms ...
  1310 atoms
  reading velocities ...
  1310 velocities
  scanning bonds ...
  4 = max bonds/atom
  scanning angles ...
  6 = max angles/atom
  scanning dihedrals ...
  27 = max dihedrals/atom
  scanning impropers ...
  1 = max impropers/atom
  reading bonds ...
  1522 bonds
  reading angles ...
  3162 angles
  reading dihedrals ...
  5828 dihedrals
  reading impropers ...
  102 impropers
  4 = max # of 1-2 neighbors
  10 = max # of 1-3 neighbors
  24 = max # of 1-4 neighbors
  25 = max # of special neighbors
  special bonds CPU = 0.00128198 secs
  read_data CPU = 0.0168161 secs
################################################################################

min_style cg
minimize 1e-06 1e-06 1000000 10000000
WARNING: Using 'neigh_modify every 1 delay 0 check yes' setting during minimization (../min.cpp:190)
PPPM initialization ...
WARNING: System is not charge neutral, net charge = -8.5e-05 (../kspace.cpp:313)
  using 12-bit tables for long-range coulomb (../kspace.cpp:332)
  G vector (1/distance) = 0.142553
  grid = 48 48 48
  stencil order = 5
  estimated absolute RMS force accuracy = 0.000859676
  estimated relative force accuracy = 2.58889e-06
  using double precision KISS FFT
  3d grid and FFT values/proc = 148877 110592
Neighbor list info ...
  update every 1 steps, delay 0 steps, check yes
  max neighbors/atom: 2000, page size: 100000
  master list distance cutoff = 14
  ghost atom cutoff = 14
  binsize = 7, bins = 44 44 44
  1 neighbor lists, perpetual/occasional/extra = 1 0 0
  (1) pair lj/cut/coul/long, perpetual
      attributes: half, newton on
      pair build: half/bin/newton
      stencil: half/bin/3d/newton
      bin: standard
Per MPI rank memory allocation (min/avg/max) = 35.83 | 35.83 | 35.83 Mbytes
Step Temp E_pair E_mol TotEng Press 
       0    595.13177    4301.5322    12002.589    18626.254    26.106476 
     898    595.13177    1284.8511    10156.951    13763.935    3.8399321 
Loop time of 55.4435 on 1 procs for 898 steps with 1310 atoms

99.7% CPU use with 1 MPI tasks x no OpenMP threads

Minimization stats:
  Stopping criterion = energy tolerance
  Energy initial, next-to-last, final = 
         16304.1210947      11441.8099774      11441.8021835
  Force two-norm initial, final = 43953.2 9.09517
  Force max component initial, final = 25431.9 2.66631
  Final line search alpha, max atom move = 0.0114121 0.0304282
  Iterations, force evaluations = 898 1793

MPI task timing breakdown:
Section |  min time  |  avg time  |  max time  |%varavg| %total
---------------------------------------------------------------
Pair    | 6.5494     | 6.5494     | 6.5494     |   0.0 | 11.81
Bond    | 1.3624     | 1.3624     | 1.3624     |   0.0 |  2.46
Kspace  | 47.405     | 47.405     | 47.405     |   0.0 | 85.50
Neigh   | 0.043412   | 0.043412   | 0.043412   |   0.0 |  0.08
Comm    | 0.0022364  | 0.0022364  | 0.0022364  |   0.0 |  0.00
Output  | 0          | 0          | 0          |   0.0 |  0.00
Modify  | 0          | 0          | 0          |   0.0 |  0.00
Other   |            | 0.08081    |            |       |  0.15

Nlocal:    1310 ave 1310 max 1310 min
Histogram: 1 0 0 0 0 0 0 0 0 0
Nghost:    0 ave 0 max 0 min
Histogram: 1 0 0 0 0 0 0 0 0 0
Neighs:    102699 ave 102699 max 102699 min
Histogram: 1 0 0 0 0 0 0 0 0 0

Total # of neighbors = 102699
Ave neighs/atom = 78.3962
Ave special neighs/atom = 13.8855
Neighbor list builds = 12
Dangerous builds = 0
write_dump all custom pysimm.dump.tmp id q x y z vx vy vz
quit


################################################################################
##################################    Init    ##################################
################################################################################
units           real
atom_style      full
pair_style      lj/cut/coul/long 12.0  12.0
kspace_style    pppm 1e-4
bond_style      harmonic
angle_style     harmonic
dihedral_style  fourier
improper_style  cvff
special_bonds   amber
pair_modify     mix arithmetic
read_data       temp.lmps
  orthogonal box = (-153.936 -153.936 -153.936) to (153.936 153.936 153.936)
  1 by 1 by 1 MPI processor grid
  reading atoms ...
  1388 atoms
  reading velocities ...
  1388 velocities
  scanning bonds ...
  4 = max bonds/atom
  scanning angles ...
  6 = max angles/atom
  scanning dihedrals ...
  27 = max dihedrals/atom
  scanning impropers ...
  1 = max impropers/atom
  reading bonds ...
  1612 bonds
  reading angles ...
  3348 angles
  reading dihedrals ...
  6168 dihedrals
  reading impropers ...
  108 impropers
  4 = max # of 1-2 neighbors
  10 = max # of 1-3 neighbors
  24 = max # of 1-4 neighbors
  25 = max # of special neighbors
  special bonds CPU = 0.001369 secs
  read_data CPU = 0.0174849 secs
################################################################################

min_style cg
minimize 1e-06 1e-06 1000000 10000000
WARNING: Using 'neigh_modify every 1 delay 0 check yes' setting during minimization (../min.cpp:190)
PPPM initialization ...
WARNING: System is not charge neutral, net charge = -9e-05 (../kspace.cpp:313)
  using 12-bit tables for long-range coulomb (../kspace.cpp:332)
  G vector (1/distance) = 0.140978
  grid = 48 48 48
  stencil order = 5
  estimated absolute RMS force accuracy = 0.000916992
  estimated relative force accuracy = 2.76149e-06
  using double precision KISS FFT
  3d grid and FFT values/proc = 148877 110592
Neighbor list info ...
  update every 1 steps, delay 0 steps, check yes
  max neighbors/atom: 2000, page size: 100000
  master list distance cutoff = 14
  ghost atom cutoff = 14
  binsize = 7, bins = 44 44 44
  1 neighbor lists, perpetual/occasional/extra = 1 0 0
  (1) pair lj/cut/coul/long, perpetual
      attributes: half, newton on
      pair build: half/bin/newton
      stencil: half/bin/3d/newton
      bin: standard
Per MPI rank memory allocation (min/avg/max) = 35.84 | 35.84 | 35.84 Mbytes
Step Temp E_pair E_mol TotEng Press 
       0    649.58557    1384.9964    12542.624    16613.256   -4.6012637 
     527    649.58557    1297.1775    10532.452    14515.265     4.062002 
Loop time of 33.517 on 1 procs for 527 steps with 1388 atoms

99.7% CPU use with 1 MPI tasks x no OpenMP threads

Minimization stats:
  Stopping criterion = energy tolerance
  Energy initial, next-to-last, final = 
         13927.6204847      11829.6389674      11829.6294087
  Force two-norm initial, final = 2010.07 7.85418
  Force max component initial, final = 512.556 1.54747
  Final line search alpha, max atom move = 0.0567191 0.0877713
  Iterations, force evaluations = 527 1051

MPI task timing breakdown:
Section |  min time  |  avg time  |  max time  |%varavg| %total
---------------------------------------------------------------
Pair    | 4.423      | 4.423      | 4.423      |   0.0 | 13.20
Bond    | 0.85851    | 0.85851    | 0.85851    |   0.0 |  2.56
Kspace  | 28.154     | 28.154     | 28.154     |   0.0 | 84.00
Neigh   | 0.030003   | 0.030003   | 0.030003   |   0.0 |  0.09
Comm    | 0.0015206  | 0.0015206  | 0.0015206  |   0.0 |  0.00
Output  | 0          | 0          | 0          |   0.0 |  0.00
Modify  | 0          | 0          | 0          |   0.0 |  0.00
Other   |            | 0.04986    |            |       |  0.15

Nlocal:    1388 ave 1388 max 1388 min
Histogram: 1 0 0 0 0 0 0 0 0 0
Nghost:    0 ave 0 max 0 min
Histogram: 1 0 0 0 0 0 0 0 0 0
Neighs:    118033 ave 118033 max 118033 min
Histogram: 1 0 0 0 0 0 0 0 0 0

Total # of neighbors = 118033
Ave neighs/atom = 85.0382
Ave special neighs/atom = 13.8818
Neighbor list builds = 7
Dangerous builds = 0
write_dump all custom pysimm.dump.tmp id q x y z vx vy vz
quit


################################################################################
##################################    Init    ##################################
################################################################################
units           real
atom_style      full
pair_style      lj/cut/coul/long 12.0  12.0
kspace_style    pppm 1e-4
bond_style      harmonic
angle_style     harmonic
dihedral_style  fourier
improper_style  cvff
special_bonds   amber
pair_modify     mix arithmetic
read_data       temp.lmps
  orthogonal box = (-156.897 -156.897 -156.897) to (156.897 156.897 156.897)
  1 by 1 by 1 MPI processor grid
  reading atoms ...
  1466 atoms
  reading velocities ...
  1466 velocities
  scanning bonds ...
  4 = max bonds/atom
  scanning angles ...
  6 = max angles/atom
  scanning dihedrals ...
  27 = max dihedrals/atom
  scanning impropers ...
  1 = max impropers/atom
  reading bonds ...
  1702 bonds
  reading angles ...
  3534 angles
  reading dihedrals ...
  6508 dihedrals
  reading impropers ...
  114 impropers
  4 = max # of 1-2 neighbors
  10 = max # of 1-3 neighbors
  24 = max # of 1-4 neighbors
  25 = max # of special neighbors
  special bonds CPU = 0.00143504 secs
  read_data CPU = 0.0182071 secs
################################################################################

min_style cg
minimize 1e-06 1e-06 1000000 10000000
WARNING: Using 'neigh_modify every 1 delay 0 check yes' setting during minimization (../min.cpp:190)
PPPM initialization ...
WARNING: System is not charge neutral, net charge = -9.5e-05 (../kspace.cpp:313)
  using 12-bit tables for long-range coulomb (../kspace.cpp:332)
  G vector (1/distance) = 0.142675
  grid = 50 50 50
  stencil order = 5
  estimated absolute RMS force accuracy = 0.000851896
  estimated relative force accuracy = 2.56546e-06
  using double precision KISS FFT
  3d grid and FFT values/proc = 166375 125000
Neighbor list info ...
  update every 1 steps, delay 0 steps, check yes
  max neighbors/atom: 2000, page size: 100000
  master list distance cutoff = 14
  ghost atom cutoff = 14
  binsize = 7, bins = 45 45 45
  1 neighbor lists, perpetual/occasional/extra = 1 0 0
  (1) pair lj/cut/coul/long, perpetual
      attributes: half, newton on
      pair build: half/bin/newton
      stencil: half/bin/3d/newton
      bin: standard
Per MPI rank memory allocation (min/avg/max) = 37.76 | 37.76 | 37.76 Mbytes
Step Temp E_pair E_mol TotEng Press 
       0    525.22842     1814.985    12959.864    17068.462   0.11730803 
     368    525.22842    1331.5585    10976.784    14601.955    3.3404638 
Loop time of 26.6932 on 1 procs for 368 steps with 1466 atoms

99.7% CPU use with 1 MPI tasks x no OpenMP threads

Minimization stats:
  Stopping criterion = energy tolerance
  Energy initial, next-to-last, final = 
         14774.8486312      12308.3515645      12308.3421154
  Force two-norm initial, final = 3935.67 6.39151
  Force max component initial, final = 1597.91 1.81458
  Final line search alpha, max atom move = 0.0396428 0.0719349
  Iterations, force evaluations = 368 733

MPI task timing breakdown:
Section |  min time  |  avg time  |  max time  |%varavg| %total
---------------------------------------------------------------
Pair    | 3.0079     | 3.0079     | 3.0079     |   0.0 | 11.27
Bond    | 0.62226    | 0.62226    | 0.62226    |   0.0 |  2.33
Kspace  | 22.996     | 22.996     | 22.996     |   0.0 | 86.15
Neigh   | 0.030553   | 0.030553   | 0.030553   |   0.0 |  0.11
Comm    | 0.0008955  | 0.0008955  | 0.0008955  |   0.0 |  0.00
Output  | 0          | 0          | 0          |   0.0 |  0.00
Modify  | 0          | 0          | 0          |   0.0 |  0.00
Other   |            | 0.03578    |            |       |  0.13

Nlocal:    1466 ave 1466 max 1466 min
Histogram: 1 0 0 0 0 0 0 0 0 0
Nghost:    0 ave 0 max 0 min
Histogram: 1 0 0 0 0 0 0 0 0 0
Neighs:    120389 ave 120389 max 120389 min
Histogram: 1 0 0 0 0 0 0 0 0 0

Total # of neighbors = 120389
Ave neighs/atom = 82.1207
Ave special neighs/atom = 13.8786
Neighbor list builds = 7
Dangerous builds = 0
write_dump all custom pysimm.dump.tmp id q x y z vx vy vz
quit


################################################################################
##################################    Init    ##################################
################################################################################
units           real
atom_style      full
pair_style      lj/cut/coul/long 12.0  12.0
kspace_style    pppm 1e-4
bond_style      harmonic
angle_style     harmonic
dihedral_style  fourier
improper_style  cvff
special_bonds   amber
pair_modify     mix arithmetic
read_data       temp.lmps
  orthogonal box = (-159.75 -159.75 -159.75) to (159.75 159.75 159.75)
  1 by 1 by 1 MPI processor grid
  reading atoms ...
  1544 atoms
  reading velocities ...
  1544 velocities
  scanning bonds ...
  4 = max bonds/atom
  scanning angles ...
  6 = max angles/atom
  scanning dihedrals ...
  27 = max dihedrals/atom
  scanning impropers ...
  1 = max impropers/atom
  reading bonds ...
  1792 bonds
  reading angles ...
  3720 angles
  reading dihedrals ...
  6848 dihedrals
  reading impropers ...
  120 impropers
  4 = max # of 1-2 neighbors
  10 = max # of 1-3 neighbors
  24 = max # of 1-4 neighbors
  25 = max # of special neighbors
  special bonds CPU = 0.00151801 secs
  read_data CPU = 0.0189102 secs
################################################################################

min_style cg
minimize 1e-06 1e-06 1000000 10000000
WARNING: Using 'neigh_modify every 1 delay 0 check yes' setting during minimization (../min.cpp:190)
PPPM initialization ...
WARNING: System is not charge neutral, net charge = -0.0001 (../kspace.cpp:313)
  using 12-bit tables for long-range coulomb (../kspace.cpp:332)
  G vector (1/distance) = 0.141268
  grid = 50 50 50
  stencil order = 5
  estimated absolute RMS force accuracy = 0.000902599
  estimated relative force accuracy = 2.71815e-06
  using double precision KISS FFT
  3d grid and FFT values/proc = 166375 125000
Neighbor list info ...
  update every 1 steps, delay 0 steps, check yes
  max neighbors/atom: 2000, page size: 100000
  master list distance cutoff = 14
  ghost atom cutoff = 14
  binsize = 7, bins = 46 46 46
  1 neighbor lists, perpetual/occasional/extra = 1 0 0
  (1) pair lj/cut/coul/long, perpetual
      attributes: half, newton on
      pair build: half/bin/newton
      stencil: half/bin/3d/newton
      bin: standard
Per MPI rank memory allocation (min/avg/max) = 37.81 | 37.81 | 37.81 Mbytes
Step Temp E_pair E_mol TotEng Press 
       0    557.88621    6247.6053    13657.539     22471.08    36.029526 
     275    557.88621    1343.8479    11443.276     15353.06    3.6097856 
Loop time of 20.1974 on 1 procs for 275 steps with 1544 atoms

99.7% CPU use with 1 MPI tasks x no OpenMP threads

Minimization stats:
  Stopping criterion = energy tolerance
  Energy initial, next-to-last, final = 
         19905.1441311      12787.1294822      12787.1236583
  Force two-norm initial, final = 75971.5 31.4023
  Force max component initial, final = 40599.2 12.0659
  Final line search alpha, max atom move = 0.00701556 0.0846491
  Iterations, force evaluations = 275 546

MPI task timing breakdown:
Section |  min time  |  avg time  |  max time  |%varavg| %total
---------------------------------------------------------------
Pair    | 2.3968     | 2.3968     | 2.3968     |   0.0 | 11.87
Bond    | 0.4881     | 0.4881     | 0.4881     |   0.0 |  2.42
Kspace  | 17.257     | 17.257     | 17.257     |   0.0 | 85.44
Neigh   | 0.025995   | 0.025995   | 0.025995   |   0.0 |  0.13
Comm    | 0.00069475 | 0.00069475 | 0.00069475 |   0.0 |  0.00
Output  | 0          | 0          | 0          |   0.0 |  0.00
Modify  | 0          | 0          | 0          |   0.0 |  0.00
Other   |            | 0.0287     |            |       |  0.14

Nlocal:    1544 ave 1544 max 1544 min
Histogram: 1 0 0 0 0 0 0 0 0 0
Nghost:    0 ave 0 max 0 min
Histogram: 1 0 0 0 0 0 0 0 0 0
Neighs:    122895 ave 122895 max 122895 min
Histogram: 1 0 0 0 0 0 0 0 0 0

Total # of neighbors = 122895
Ave neighs/atom = 79.5952
Ave special neighs/atom = 13.8756
Neighbor list builds = 6
Dangerous builds = 0
write_dump all custom pysimm.dump.tmp id q x y z vx vy vz
quit


################################################################################
##################################    Init    ##################################
################################################################################
units           real
atom_style      full
pair_style      lj/cut/coul/long 12.0  12.0
kspace_style    pppm 1e-4
bond_style      harmonic
angle_style     harmonic
dihedral_style  fourier
improper_style  cvff
special_bonds   amber
pair_modify     mix arithmetic
read_data       temp.lmps
  orthogonal box = (-102.372 -102.372 -102.372) to (102.372 102.372 102.372)
  1 by 1 by 1 MPI processor grid
  reading atoms ...
  764 atoms
  reading velocities ...
  764 velocities
  scanning bonds ...
  4 = max bonds/atom
  scanning angles ...
  6 = max angles/atom
  scanning dihedrals ...
  27 = max dihedrals/atom
  scanning impropers ...
  1 = max impropers/atom
  reading bonds ...
  892 bonds
  reading angles ...
  1860 angles
  reading dihedrals ...
  3448 dihedrals
  reading impropers ...
  60 impropers
  4 = max # of 1-2 neighbors
  10 = max # of 1-3 neighbors
  24 = max # of 1-4 neighbors
  25 = max # of special neighbors
  special bonds CPU = 0.00092411 secs
  read_data CPU = 0.012316 secs
################################################################################

min_style cg
minimize 1e-06 1e-06 1000000 10000000
WARNING: Using 'neigh_modify every 1 delay 0 check yes' setting during minimization (../min.cpp:190)
PPPM initialization ...
WARNING: System is not charge neutral, net charge = -5e-05 (../kspace.cpp:313)
  using 12-bit tables for long-range coulomb (../kspace.cpp:332)
  G vector (1/distance) = 0.141168
  grid = 32 32 32
  stencil order = 5
  estimated absolute RMS force accuracy = 0.00125595
  estimated relative force accuracy = 3.78224e-06
  using double precision KISS FFT
  3d grid and FFT values/proc = 50653 32768
Neighbor list info ...
  update every 1 steps, delay 0 steps, check yes
  max neighbors/atom: 2000, page size: 100000
  master list distance cutoff = 14
  ghost atom cutoff = 14
  binsize = 7, bins = 30 30 30
  1 neighbor lists, perpetual/occasional/extra = 1 0 0
  (1) pair lj/cut/coul/long, perpetual
      attributes: half, newton on
      pair build: half/bin/newton
      stencil: half/bin/3d/newton
      bin: standard
Per MPI rank memory allocation (min/avg/max) = 24.76 | 24.76 | 24.76 Mbytes
Step Temp E_pair E_mol TotEng Press 
       0    276.94394    871.94229    7344.0028    8845.8148   -3.7574081 
     215    276.94394    871.71083    6912.5525     8414.133    3.0564617 
Loop time of 4.382 on 1 procs for 215 steps with 764 atoms

99.7% CPU use with 1 MPI tasks x no OpenMP threads

Minimization stats:
  Stopping criterion = energy tolerance
  Energy initial, next-to-last, final = 
         8215.94509506       7784.2702505      7784.26333911
  Force two-norm initial, final = 866.323 10.39
  Force max component initial, final = 288.062 3.06076
  Final line search alpha, max atom move = 0.0349162 0.10687
  Iterations, force evaluations = 215 427

MPI task timing breakdown:
Section |  min time  |  avg time  |  max time  |%varavg| %total
---------------------------------------------------------------
Pair    | 0.9188     | 0.9188     | 0.9188     |   0.0 | 20.97
Bond    | 0.19035    | 0.19035    | 0.19035    |   0.0 |  4.34
Kspace  | 3.2551     | 3.2551     | 3.2551     |   0.0 | 74.28
Neigh   | 0.004256   | 0.004256   | 0.004256   |   0.0 |  0.10
Comm    | 0.00044179 | 0.00044179 | 0.00044179 |   0.0 |  0.01
Output  | 0          | 0          | 0          |   0.0 |  0.00
Modify  | 0          | 0          | 0          |   0.0 |  0.00
Other   |            | 0.01302    |            |       |  0.30

Nlocal:    764 ave 764 max 764 min
Histogram: 1 0 0 0 0 0 0 0 0 0
Nghost:    0 ave 0 max 0 min
Histogram: 1 0 0 0 0 0 0 0 0 0
Neighs:    63091 ave 63091 max 63091 min
Histogram: 1 0 0 0 0 0 0 0 0 0

Total # of neighbors = 63091
Ave neighs/atom = 82.5798
Ave special neighs/atom = 13.9319
Neighbor list builds = 2
Dangerous builds = 0
write_dump all custom pysimm.dump.tmp id q x y z vx vy vz
quit


################################################################################
##################################    Init    ##################################
################################################################################
units           real
atom_style      full
pair_style      lj/cut/coul/long 12.0  12.0
kspace_style    pppm 1e-4
bond_style      harmonic
angle_style     harmonic
dihedral_style  fourier
improper_style  cvff
special_bonds   amber
pair_modify     mix arithmetic
read_data       temp.lmps
  orthogonal box = (-128.98 -128.98 -128.98) to (128.98 128.98 128.98)
  1 by 1 by 1 MPI processor grid
  reading atoms ...
  842 atoms
  reading velocities ...
  842 velocities
  scanning bonds ...
  4 = max bonds/atom
  scanning angles ...
  6 = max angles/atom
  scanning dihedrals ...
  27 = max dihedrals/atom
  scanning impropers ...
  1 = max impropers/atom
  reading bonds ...
  982 bonds
  reading angles ...
  2046 angles
  reading dihedrals ...
  3788 dihedrals
  reading impropers ...
  66 impropers
  4 = max # of 1-2 neighbors
  10 = max # of 1-3 neighbors
  24 = max # of 1-4 neighbors
  25 = max # of special neighbors
  special bonds CPU = 0.000941038 secs
  read_data CPU = 0.0127418 secs
################################################################################

min_style cg
minimize 1e-06 1e-06 1000000 10000000
WARNING: Using 'neigh_modify every 1 delay 0 check yes' setting during minimization (../min.cpp:190)
PPPM initialization ...
WARNING: System is not charge neutral, net charge = -5.5e-05 (../kspace.cpp:313)
  using 12-bit tables for long-range coulomb (../kspace.cpp:332)
  G vector (1/distance) = 0.149912
  grid = 45 45 45
  stencil order = 5
  estimated absolute RMS force accuracy = 0.000642141
  estimated relative force accuracy = 1.93379e-06
  using double precision KISS FFT
  3d grid and FFT values/proc = 125000 91125
Neighbor list info ...
  update every 1 steps, delay 0 steps, check yes
  max neighbors/atom: 2000, page size: 100000
  master list distance cutoff = 14
  ghost atom cutoff = 14
  binsize = 7, bins = 37 37 37
  1 neighbor lists, perpetual/occasional/extra = 1 0 0
  (1) pair lj/cut/coul/long, perpetual
      attributes: half, newton on
      pair build: half/bin/newton
      stencil: half/bin/3d/newton
      bin: standard
Per MPI rank memory allocation (min/avg/max) = 32.66 | 32.66 | 32.66 Mbytes
Step Temp E_pair E_mol TotEng Press 
       0    1160.6829    902.24178    8329.4041    12141.317    1.4657894 
     492    1160.6829    888.96996    7392.3715    11191.012    7.6130794 
Loop time of 23.1101 on 1 procs for 492 steps with 842 atoms

99.7% CPU use with 1 MPI tasks x no OpenMP threads

Minimization stats:
  Stopping criterion = energy tolerance
  Energy initial, next-to-last, final = 
         9231.64584225      8281.34734478      8281.34145147
  Force two-norm initial, final = 1056 4.66052
  Force max component initial, final = 305.786 0.57966
  Final line search alpha, max atom move = 0.05051 0.0292786
  Iterations, force evaluations = 492 983

MPI task timing breakdown:
Section |  min time  |  avg time  |  max time  |%varavg| %total
---------------------------------------------------------------
Pair    | 2.2966     | 2.2966     | 2.2966     |   0.0 |  9.94
Bond    | 0.47843    | 0.47843    | 0.47843    |   0.0 |  2.07
Kspace  | 20.285     | 20.285     | 20.285     |   0.0 | 87.77
Neigh   | 0.016362   | 0.016362   | 0.016362   |   0.0 |  0.07
Comm    | 0.0012033  | 0.0012033  | 0.0012033  |   0.0 |  0.01
Output  | 0          | 0          | 0          |   0.0 |  0.00
Modify  | 0          | 0          | 0          |   0.0 |  0.00
Other   |            | 0.03274    |            |       |  0.14

Nlocal:    842 ave 842 max 842 min
Histogram: 1 0 0 0 0 0 0 0 0 0
Nghost:    0 ave 0 max 0 min
Histogram: 1 0 0 0 0 0 0 0 0 0
Neighs:    69298 ave 69298 max 69298 min
Histogram: 1 0 0 0 0 0 0 0 0 0

Total # of neighbors = 69298
Ave neighs/atom = 82.3017
Ave special neighs/atom = 13.9216
Neighbor list builds = 7
Dangerous builds = 0
write_dump all custom pysimm.dump.tmp id q x y z vx vy vz
quit


################################################################################
##################################    Init    ##################################
################################################################################
units           real
atom_style      full
pair_style      lj/cut/coul/long 12.0  12.0
kspace_style    pppm 1e-4
bond_style      harmonic
angle_style     harmonic
dihedral_style  fourier
improper_style  cvff
special_bonds   amber
pair_modify     mix arithmetic
read_data       temp.lmps
  orthogonal box = (-133.144 -133.144 -133.144) to (133.144 133.144 133.144)
  1 by 1 by 1 MPI processor grid
  reading atoms ...
  920 atoms
  reading velocities ...
  920 velocities
  scanning bonds ...
  4 = max bonds/atom
  scanning angles ...
  6 = max angles/atom
  scanning dihedrals ...
  27 = max dihedrals/atom
  scanning impropers ...
  1 = max impropers/atom
  reading bonds ...
  1072 bonds
  reading angles ...
  2232 angles
  reading dihedrals ...
  4128 dihedrals
  reading impropers ...
  72 impropers
  4 = max # of 1-2 neighbors
  10 = max # of 1-3 neighbors
  24 = max # of 1-4 neighbors
  25 = max # of special neighbors
  special bonds CPU = 0.000983953 secs
  read_data CPU = 0.014091 secs
################################################################################

min_style cg
minimize 1e-06 1e-06 1000000 10000000
WARNING: Using 'neigh_modify every 1 delay 0 check yes' setting during minimization (../min.cpp:190)
PPPM initialization ...
WARNING: System is not charge neutral, net charge = -6e-05 (../kspace.cpp:313)
  using 12-bit tables for long-range coulomb (../kspace.cpp:332)
  G vector (1/distance) = 0.147357
  grid = 45 45 45
  stencil order = 5
  estimated absolute RMS force accuracy = 0.00071294
  estimated relative force accuracy = 2.147e-06
  using double precision KISS FFT
  3d grid and FFT values/proc = 125000 91125
Neighbor list info ...
  update every 1 steps, delay 0 steps, check yes
  max neighbors/atom: 2000, page size: 100000
  master list distance cutoff = 14
  ghost atom cutoff = 14
  binsize = 7, bins = 39 39 39
  1 neighbor lists, perpetual/occasional/extra = 1 0 0
  (1) pair lj/cut/coul/long, perpetual
      attributes: half, newton on
      pair build: half/bin/newton
      stencil: half/bin/3d/newton
      bin: standard
Per MPI rank memory allocation (min/avg/max) = 32.71 | 32.71 | 32.71 Mbytes
Step Temp E_pair E_mol TotEng Press 
       0     1388.412    949.67525    9165.3079     13918.35  0.051689942 
     365     1388.412    922.09197    7895.6044    12621.063    8.8223921 
Loop time of 17.2795 on 1 procs for 365 steps with 920 atoms

99.7% CPU use with 1 MPI tasks x no OpenMP threads

Minimization stats:
  Stopping criterion = energy tolerance
  Energy initial, next-to-last, final = 
         10114.9831727      8817.70513389      8817.69639885
  Force two-norm initial, final = 1216.05 9.83425
  Force max component initial, final = 307.727 2.3549
  Final line search alpha, max atom move = 0.0587122 0.138262
  Iterations, force evaluations = 365 726

MPI task timing breakdown:
Section |  min time  |  avg time  |  max time  |%varavg| %total
---------------------------------------------------------------
Pair    | 1.6909     | 1.6909     | 1.6909     |   0.0 |  9.79
Bond    | 0.38714    | 0.38714    | 0.38714    |   0.0 |  2.24
Kspace  | 15.161     | 15.161     | 15.161     |   0.0 | 87.74
Neigh   | 0.013374   | 0.013374   | 0.013374   |   0.0 |  0.08
Comm    | 0.0009923  | 0.0009923  | 0.0009923  |   0.0 |  0.01
Output  | 0          | 0          | 0          |   0.0 |  0.00
Modify  | 0          | 0          | 0          |   0.0 |  0.00
Other   |            | 0.02625    |            |       |  0.15

Nlocal:    920 ave 920 max 920 min
Histogram: 1 0 0 0 0 0 0 0 0 0
Nghost:    0 ave 0 max 0 min
Histogram: 1 0 0 0 0 0 0 0 0 0
Neighs:    65554 ave 65554 max 65554 min
Histogram: 1 0 0 0 0 0 0 0 0 0

Total # of neighbors = 65554
Ave neighs/atom = 71.2543
Ave special neighs/atom = 13.913
Neighbor list builds = 6
Dangerous builds = 0
write_dump all custom pysimm.dump.tmp id q x y z vx vy vz
quit


################################################################################
##################################    Init    ##################################
################################################################################
units           real
atom_style      full
pair_style      lj/cut/coul/long 12.0  12.0
kspace_style    pppm 1e-4
bond_style      harmonic
angle_style     harmonic
dihedral_style  fourier
improper_style  cvff
special_bonds   amber
pair_modify     mix arithmetic
read_data       temp.lmps
  orthogonal box = (-137.062 -137.062 -137.062) to (137.062 137.062 137.062)
  1 by 1 by 1 MPI processor grid
  reading atoms ...
  998 atoms
  reading velocities ...
  998 velocities
  scanning bonds ...
  4 = max bonds/atom
  scanning angles ...
  6 = max angles/atom
  scanning dihedrals ...
  27 = max dihedrals/atom
  scanning impropers ...
  1 = max impropers/atom
  reading bonds ...
  1162 bonds
  reading angles ...
  2418 angles
  reading dihedrals ...
  4468 dihedrals
  reading impropers ...
  78 impropers
  4 = max # of 1-2 neighbors
  10 = max # of 1-3 neighbors
  24 = max # of 1-4 neighbors
  25 = max # of special neighbors
  special bonds CPU = 0.00103903 secs
  read_data CPU = 0.0151989 secs
################################################################################

min_style cg
minimize 1e-06 1e-06 1000000 10000000
WARNING: Using 'neigh_modify every 1 delay 0 check yes' setting during minimization (../min.cpp:190)
PPPM initialization ...
WARNING: System is not charge neutral, net charge = -6.5e-05 (../kspace.cpp:313)
  using 12-bit tables for long-range coulomb (../kspace.cpp:332)
  G vector (1/distance) = 0.145036
  grid = 45 45 45
  stencil order = 5
  estimated absolute RMS force accuracy = 0.000783329
  estimated relative force accuracy = 2.35897e-06
  using double precision KISS FFT
  3d grid and FFT values/proc = 125000 91125
Neighbor list info ...
  update every 1 steps, delay 0 steps, check yes
  max neighbors/atom: 2000, page size: 100000
  master list distance cutoff = 14
  ghost atom cutoff = 14
  binsize = 7, bins = 40 40 40
  1 neighbor lists, perpetual/occasional/extra = 1 0 0
  (1) pair lj/cut/coul/long, perpetual
      attributes: half, newton on
      pair build: half/bin/newton
      stencil: half/bin/3d/newton
      bin: standard
Per MPI rank memory allocation (min/avg/max) = 32.75 | 32.75 | 32.75 Mbytes
Step Temp E_pair E_mol TotEng Press 
       0    1532.4133    956.22743    9789.6108    15299.968   0.98911124 
     570    1532.4133    939.52412    8260.9089    13754.562    10.159693 
Loop time of 27.7706 on 1 procs for 570 steps with 998 atoms

99.7% CPU use with 1 MPI tasks x no OpenMP threads

Minimization stats:
  Stopping criterion = energy tolerance
  Energy initial, next-to-last, final = 
         10745.8382231      9200.43875818       9200.4330502
  Force two-norm initial, final = 1405.17 5.9873
  Force max component initial, final = 376.379 1.62645
  Final line search alpha, max atom move = 0.050663 0.0824006
  Iterations, force evaluations = 570 1131

MPI task timing breakdown:
Section |  min time  |  avg time  |  max time  |%varavg| %total
---------------------------------------------------------------
Pair    | 3.4703     | 3.4703     | 3.4703     |   0.0 | 12.50
Bond    | 0.64916    | 0.64916    | 0.64916    |   0.0 |  2.34
Kspace  | 23.574     | 23.574     | 23.574     |   0.0 | 84.89
Neigh   | 0.03263    | 0.03263    | 0.03263    |   0.0 |  0.12
Comm    | 0.0014861  | 0.0014861  | 0.0014861  |   0.0 |  0.01
Output  | 0          | 0          | 0          |   0.0 |  0.00
Modify  | 0          | 0          | 0          |   0.0 |  0.00
Other   |            | 0.04267    |            |       |  0.15

Nlocal:    998 ave 998 max 998 min
Histogram: 1 0 0 0 0 0 0 0 0 0
Nghost:    0 ave 0 max 0 min
Histogram: 1 0 0 0 0 0 0 0 0 0
Neighs:    87159 ave 87159 max 87159 min
Histogram: 1 0 0 0 0 0 0 0 0 0

Total # of neighbors = 87159
Ave neighs/atom = 87.3337
Ave special neighs/atom = 13.9058
Neighbor list builds = 11
Dangerous builds = 0
write_dump all custom pysimm.dump.tmp id q x y z vx vy vz
quit


################################################################################
##################################    Init    ##################################
################################################################################
units           real
atom_style      full
pair_style      lj/cut/coul/long 12.0  12.0
kspace_style    pppm 1e-4
bond_style      harmonic
angle_style     harmonic
dihedral_style  fourier
improper_style  cvff
special_bonds   amber
pair_modify     mix arithmetic
read_data       temp.lmps
  orthogonal box = (-140.768 -140.768 -140.768) to (140.768 140.768 140.768)
  1 by 1 by 1 MPI processor grid
  reading atoms ...
  1076 atoms
  reading velocities ...
  1076 velocities
  scanning bonds ...
  4 = max bonds/atom
  scanning angles ...
  6 = max angles/atom
  scanning dihedrals ...
  27 = max dihedrals/atom
  scanning impropers ...
  1 = max impropers/atom
  reading bonds ...
  1252 bonds
  reading angles ...
  2604 angles
  reading dihedrals ...
  4808 dihedrals
  reading impropers ...
  84 impropers
  4 = max # of 1-2 neighbors
  10 = max # of 1-3 neighbors
  24 = max # of 1-4 neighbors
  25 = max # of special neighbors
  special bonds CPU = 0.00109792 secs
  read_data CPU = 0.0154321 secs
################################################################################

min_style cg
minimize 1e-06 1e-06 1000000 10000000
WARNING: Using 'neigh_modify every 1 delay 0 check yes' setting during minimization (../min.cpp:190)
PPPM initialization ...
WARNING: System is not charge neutral, net charge = -7e-05 (../kspace.cpp:313)
  using 12-bit tables for long-range coulomb (../kspace.cpp:332)
  G vector (1/distance) = 0.14292
  grid = 45 45 45
  stencil order = 5
  estimated absolute RMS force accuracy = 0.000853304
  estimated relative force accuracy = 2.5697e-06
  using double precision KISS FFT
  3d grid and FFT values/proc = 125000 91125
Neighbor list info ...
  update every 1 steps, delay 0 steps, check yes
  max neighbors/atom: 2000, page size: 100000
  master list distance cutoff = 14
  ghost atom cutoff = 14
  binsize = 7, bins = 41 41 41
  1 neighbor lists, perpetual/occasional/extra = 1 0 0
  (1) pair lj/cut/coul/long, perpetual
      attributes: half, newton on
      pair build: half/bin/newton
      stencil: half/bin/3d/newton
      bin: standard
Per MPI rank memory allocation (min/avg/max) = 33.16 | 33.16 | 33.16 Mbytes
Step Temp E_pair E_mol TotEng Press 
       0    1287.7999    19501.944     10198.45    33826.982    229.40234 
     565    1287.7999    925.90831    8554.6138    13607.111    8.4484619 
Loop time of 28.7785 on 1 procs for 565 steps with 1076 atoms

99.7% CPU use with 1 MPI tasks x no OpenMP threads

Minimization stats:
  Stopping criterion = energy tolerance
  Energy initial, next-to-last, final = 
         29700.3932905      9480.53130229       9480.5220994
  Force two-norm initial, final = 334008 7.43739
  Force max component initial, final = 175171 3.3876
  Final line search alpha, max atom move = 0.0382824 0.129686
  Iterations, force evaluations = 565 1126

MPI task timing breakdown:
Section |  min time  |  avg time  |  max time  |%varavg| %total
---------------------------------------------------------------
Pair    | 4.4171     | 4.4171     | 4.4171     |   0.0 | 15.35
Bond    | 0.69566    | 0.69566    | 0.69566    |   0.0 |  2.42
Kspace  | 23.581     | 23.581     | 23.581     |   0.0 | 81.94
Neigh   | 0.036904   | 0.036904   | 0.036904   |   0.0 |  0.13
Comm    | 0.0015788  | 0.0015788  | 0.0015788  |   0.0 |  0.01
Output  | 0          | 0          | 0          |   0.0 |  0.00
Modify  | 0          | 0          | 0          |   0.0 |  0.00
Other   |            | 0.04601    |            |       |  0.16

Nlocal:    1076 ave 1076 max 1076 min
Histogram: 1 0 0 0 0 0 0 0 0 0
Nghost:    0 ave 0 max 0 min
Histogram: 1 0 0 0 0 0 0 0 0 0
Neighs:    115273 ave 115273 max 115273 min
Histogram: 1 0 0 0 0 0 0 0 0 0

Total # of neighbors = 115273
Ave neighs/atom = 107.131
Ave special neighs/atom = 13.8996
Neighbor list builds = 10
Dangerous builds = 0
write_dump all custom pysimm.dump.tmp id q x y z vx vy vz
quit


################################################################################
##################################    Init    ##################################
################################################################################
units           real
atom_style      full
pair_style      lj/cut/coul/long 12.0  12.0
kspace_style    pppm 1e-4
bond_style      harmonic
angle_style     harmonic
dihedral_style  fourier
improper_style  cvff
special_bonds   amber
pair_modify     mix arithmetic
read_data       temp.lmps
  orthogonal box = (-144.289 -144.289 -144.289) to (144.289 144.289 144.289)
  1 by 1 by 1 MPI processor grid
  reading atoms ...
  1154 atoms
  reading velocities ...
  1154 velocities
  scanning bonds ...
  4 = max bonds/atom
  scanning angles ...
  6 = max angles/atom
  scanning dihedrals ...
  27 = max dihedrals/atom
  scanning impropers ...
  1 = max impropers/atom
  reading bonds ...
  1342 bonds
  reading angles ...
  2790 angles
  reading dihedrals ...
  5148 dihedrals
  reading impropers ...
  90 impropers
  4 = max # of 1-2 neighbors
  10 = max # of 1-3 neighbors
  24 = max # of 1-4 neighbors
  25 = max # of special neighbors
  special bonds CPU = 0.00122094 secs
  read_data CPU = 0.0154648 secs
################################################################################

min_style cg
minimize 1e-06 1e-06 1000000 10000000
WARNING: Using 'neigh_modify every 1 delay 0 check yes' setting during minimization (../min.cpp:190)
PPPM initialization ...
WARNING: System is not charge neutral, net charge = -7.5e-05 (../kspace.cpp:313)
  using 12-bit tables for long-range coulomb (../kspace.cpp:332)
  G vector (1/distance) = 0.140992
  grid = 45 45 45
  stencil order = 5
  estimated absolute RMS force accuracy = 0.000922953
  estimated relative force accuracy = 2.77945e-06
  using double precision KISS FFT
  3d grid and FFT values/proc = 125000 91125
Neighbor list info ...
  update every 1 steps, delay 0 steps, check yes
  max neighbors/atom: 2000, page size: 100000
  master list distance cutoff = 14
  ghost atom cutoff = 14
  binsize = 7, bins = 42 42 42
  1 neighbor lists, perpetual/occasional/extra = 1 0 0
  (1) pair lj/cut/coul/long, perpetual
      attributes: half, newton on
      pair build: half/bin/newton
      stencil: half/bin/3d/newton
      bin: standard
Per MPI rank memory allocation (min/avg/max) = 33.2 | 33.2 | 33.2 Mbytes
Step Temp E_pair E_mol TotEng Press 
       0    1072.4162    1000.9573    10574.174    15260.891  -0.37017553 
     873    1072.4162    947.17503    8912.1119    13545.046    7.0676719 
Loop time of 44.6145 on 1 procs for 873 steps with 1154 atoms

99.7% CPU use with 1 MPI tasks x no OpenMP threads

Minimization stats:
  Stopping criterion = energy tolerance
  Energy initial, next-to-last, final = 
         11575.1313485      9859.29244919      9859.28688852
  Force two-norm initial, final = 1734.62 7.9914
  Force max component initial, final = 441.222 3.29872
  Final line search alpha, max atom move = 0.0486689 0.160545
  Iterations, force evaluations = 873 1741

MPI task timing breakdown:
Section |  min time  |  avg time  |  max time  |%varavg| %total
---------------------------------------------------------------
Pair    | 6.7131     | 6.7131     | 6.7131     |   0.0 | 15.05
Bond    | 1.1523     | 1.1523     | 1.1523     |   0.0 |  2.58
Kspace  | 36.618     | 36.618     | 36.618     |   0.0 | 82.08
Neigh   | 0.051439   | 0.051439   | 0.051439   |   0.0 |  0.12
Comm    | 0.0024765  | 0.0024765  | 0.0024765  |   0.0 |  0.01
Output  | 0          | 0          | 0          |   0.0 |  0.00
Modify  | 0          | 0          | 0          |   0.0 |  0.00
Other   |            | 0.07728    |            |       |  0.17

Nlocal:    1154 ave 1154 max 1154 min
Histogram: 1 0 0 0 0 0 0 0 0 0
Nghost:    0 ave 0 max 0 min
Histogram: 1 0 0 0 0 0 0 0 0 0
Neighs:    110167 ave 110167 max 110167 min
Histogram: 1 0 0 0 0 0 0 0 0 0

Total # of neighbors = 110167
Ave neighs/atom = 95.4653
Ave special neighs/atom = 13.8943
Neighbor list builds = 14
Dangerous builds = 0
write_dump all custom pysimm.dump.tmp id q x y z vx vy vz
quit


################################################################################
##################################    Init    ##################################
################################################################################
units           real
atom_style      full
pair_style      lj/cut/coul/long 12.0  12.0
kspace_style    pppm 1e-4
bond_style      harmonic
angle_style     harmonic
dihedral_style  fourier
improper_style  cvff
special_bonds   amber
pair_modify     mix arithmetic
read_data       temp.lmps
  orthogonal box = (-147.646 -147.646 -147.646) to (147.646 147.646 147.646)
  1 by 1 by 1 MPI processor grid
  reading atoms ...
  1232 atoms
  reading velocities ...
  1232 velocities
  scanning bonds ...
  4 = max bonds/atom
  scanning angles ...
  6 = max angles/atom
  scanning dihedrals ...
  27 = max dihedrals/atom
  scanning impropers ...
  1 = max impropers/atom
  reading bonds ...
  1432 bonds
  reading angles ...
  2976 angles
  reading dihedrals ...
  5488 dihedrals
  reading impropers ...
  96 impropers
  4 = max # of 1-2 neighbors
  10 = max # of 1-3 neighbors
  24 = max # of 1-4 neighbors
  25 = max # of special neighbors
  special bonds CPU = 0.00122094 secs
  read_data CPU = 0.0155411 secs
################################################################################

min_style cg
minimize 1e-06 1e-06 1000000 10000000
WARNING: Using 'neigh_modify every 1 delay 0 check yes' setting during minimization (../min.cpp:190)
PPPM initialization ...
WARNING: System is not charge neutral, net charge = -8e-05 (../kspace.cpp:313)
  using 12-bit tables for long-range coulomb (../kspace.cpp:332)
  G vector (1/distance) = 0.144252
  grid = 48 48 48
  stencil order = 5
  estimated absolute RMS force accuracy = 0.000802163
  estimated relative force accuracy = 2.41569e-06
  using double precision KISS FFT
  3d grid and FFT values/proc = 148877 110592
Neighbor list info ...
  update every 1 steps, delay 0 steps, check yes
  max neighbors/atom: 2000, page size: 100000
  master list distance cutoff = 14
  ghost atom cutoff = 14
  binsize = 7, bins = 43 43 43
  1 neighbor lists, perpetual/occasional/extra = 1 0 0
  (1) pair lj/cut/coul/long, perpetual
      attributes: half, newton on
      pair build: half/bin/newton
      stencil: half/bin/3d/newton
      bin: standard
Per MPI rank memory allocation (min/avg/max) = 35.41 | 35.41 | 35.41 Mbytes
Step Temp E_pair E_mol TotEng Press 
       0    863.65707    1769.7656    10993.397    15932.246     6.085042 
     563    863.65707    981.43373    9313.4995    13464.017    5.4285928 
Loop time of 33.9777 on 1 procs for 563 steps with 1232 atoms

99.7% CPU use with 1 MPI tasks x no OpenMP threads

Minimization stats:
  Stopping criterion = energy tolerance
  Energy initial, next-to-last, final = 
         12763.1626111      10294.9428519      10294.9331852
  Force two-norm initial, final = 10370.7 5.12904
  Force max component initial, final = 6695.97 1.42819
  Final line search alpha, max atom move = 0.028788 0.0411149
  Iterations, force evaluations = 563 1120

MPI task timing breakdown:
Section |  min time  |  avg time  |  max time  |%varavg| %total
---------------------------------------------------------------
Pair    | 3.527      | 3.527      | 3.527      |   0.0 | 10.38
Bond    | 0.7892     | 0.7892     | 0.7892     |   0.0 |  2.32
Kspace  | 29.587     | 29.587     | 29.587     |   0.0 | 87.08
Neigh   | 0.022966   | 0.022966   | 0.022966   |   0.0 |  0.07
Comm    | 0.0014346  | 0.0014346  | 0.0014346  |   0.0 |  0.00
Output  | 0          | 0          | 0          |   0.0 |  0.00
Modify  | 0          | 0          | 0          |   0.0 |  0.00
Other   |            | 0.05005    |            |       |  0.15

Nlocal:    1232 ave 1232 max 1232 min
Histogram: 1 0 0 0 0 0 0 0 0 0
Nghost:    0 ave 0 max 0 min
Histogram: 1 0 0 0 0 0 0 0 0 0
Neighs:    88809 ave 88809 max 88809 min
Histogram: 1 0 0 0 0 0 0 0 0 0

Total # of neighbors = 88809
Ave neighs/atom = 72.0852
Ave special neighs/atom = 13.8896
Neighbor list builds = 7
Dangerous builds = 0
write_dump all custom pysimm.dump.tmp id q x y z vx vy vz
quit


################################################################################
##################################    Init    ##################################
################################################################################
units           real
atom_style      full
pair_style      lj/cut/coul/long 12.0  12.0
kspace_style    pppm 1e-4
bond_style      harmonic
angle_style     harmonic
dihedral_style  fourier
improper_style  cvff
special_bonds   amber
pair_modify     mix arithmetic
read_data       temp.lmps
  orthogonal box = (-150.856 -150.856 -150.856) to (150.856 150.856 150.856)
  1 by 1 by 1 MPI processor grid
  reading atoms ...
  1310 atoms
  reading velocities ...
  1310 velocities
  scanning bonds ...
  4 = max bonds/atom
  scanning angles ...
  6 = max angles/atom
  scanning dihedrals ...
  27 = max dihedrals/atom
  scanning impropers ...
  1 = max impropers/atom
  reading bonds ...
  1522 bonds
  reading angles ...
  3162 angles
  reading dihedrals ...
  5828 dihedrals
  reading impropers ...
  102 impropers
  4 = max # of 1-2 neighbors
  10 = max # of 1-3 neighbors
  24 = max # of 1-4 neighbors
  25 = max # of special neighbors
  special bonds CPU = 0.00126696 secs
  read_data CPU = 0.016865 secs
################################################################################

min_style cg
minimize 1e-06 1e-06 1000000 10000000
WARNING: Using 'neigh_modify every 1 delay 0 check yes' setting during minimization (../min.cpp:190)
PPPM initialization ...
WARNING: System is not charge neutral, net charge = -8.5e-05 (../kspace.cpp:313)
  using 12-bit tables for long-range coulomb (../kspace.cpp:332)
  G vector (1/distance) = 0.142553
  grid = 48 48 48
  stencil order = 5
  estimated absolute RMS force accuracy = 0.000859676
  estimated relative force accuracy = 2.58889e-06
  using double precision KISS FFT
  3d grid and FFT values/proc = 148877 110592
Neighbor list info ...
  update every 1 steps, delay 0 steps, check yes
  max neighbors/atom: 2000, page size: 100000
  master list distance cutoff = 14
  ghost atom cutoff = 14
  binsize = 7, bins = 44 44 44
  1 neighbor lists, perpetual/occasional/extra = 1 0 0
  (1) pair lj/cut/coul/long, perpetual
      attributes: half, newton on
      pair build: half/bin/newton
      stencil: half/bin/3d/newton
      bin: standard
Per MPI rank memory allocation (min/avg/max) = 35.45 | 35.45 | 35.45 Mbytes
Step Temp E_pair E_mol TotEng Press 
       0    681.60982     2073.634    11496.116     16229.31    7.6989465 
     394    681.60982    993.32267     9781.835    13434.718    4.1925101 
Loop time of 24.3478 on 1 procs for 394 steps with 1310 atoms

99.7% CPU use with 1 MPI tasks x no OpenMP threads

Minimization stats:
  Stopping criterion = energy tolerance
  Energy initial, next-to-last, final = 
         13569.7497135      10775.1672681      10775.1576819
  Force two-norm initial, final = 8838.41 6.09231
  Force max component initial, final = 4330.85 1.01406
  Final line search alpha, max atom move = 0.0380852 0.0386206
  Iterations, force evaluations = 394 783

MPI task timing breakdown:
Section |  min time  |  avg time  |  max time  |%varavg| %total
---------------------------------------------------------------
Pair    | 2.6153     | 2.6153     | 2.6153     |   0.0 | 10.74
Bond    | 0.58537    | 0.58537    | 0.58537    |   0.0 |  2.40
Kspace  | 21.092     | 21.092     | 21.092     |   0.0 | 86.63
Neigh   | 0.017054   | 0.017054   | 0.017054   |   0.0 |  0.07
Comm    | 0.00099874 | 0.00099874 | 0.00099874 |   0.0 |  0.00
Output  | 0          | 0          | 0          |   0.0 |  0.00
Modify  | 0          | 0          | 0          |   0.0 |  0.00
Other   |            | 0.03709    |            |       |  0.15

Nlocal:    1310 ave 1310 max 1310 min
Histogram: 1 0 0 0 0 0 0 0 0 0
Nghost:    0 ave 0 max 0 min
Histogram: 1 0 0 0 0 0 0 0 0 0
Neighs:    94294 ave 94294 max 94294 min
Histogram: 1 0 0 0 0 0 0 0 0 0

Total # of neighbors = 94294
Ave neighs/atom = 71.9802
Ave special neighs/atom = 13.8855
Neighbor list builds = 5
Dangerous builds = 0
write_dump all custom pysimm.dump.tmp id q x y z vx vy vz
quit


################################################################################
##################################    Init    ##################################
################################################################################
units           real
atom_style      full
pair_style      lj/cut/coul/long 12.0  12.0
kspace_style    pppm 1e-4
bond_style      harmonic
angle_style     harmonic
dihedral_style  fourier
improper_style  cvff
special_bonds   amber
pair_modify     mix arithmetic
read_data       temp.lmps
  orthogonal box = (-153.936 -153.936 -153.936) to (153.936 153.936 153.936)
  1 by 1 by 1 MPI processor grid
  reading atoms ...
  1388 atoms
  reading velocities ...
  1388 velocities
  scanning bonds ...
  4 = max bonds/atom
  scanning angles ...
  6 = max angles/atom
  scanning dihedrals ...
  27 = max dihedrals/atom
  scanning impropers ...
  1 = max impropers/atom
  reading bonds ...
  1612 bonds
  reading angles ...
  3348 angles
  reading dihedrals ...
  6168 dihedrals
  reading impropers ...
  108 impropers
  4 = max # of 1-2 neighbors
  10 = max # of 1-3 neighbors
  24 = max # of 1-4 neighbors
  25 = max # of special neighbors
  special bonds CPU = 0.00134301 secs
  read_data CPU = 0.0171721 secs
################################################################################

min_style cg
[...]
  scanning angles ...
  6 = max angles/atom
  scanning dihedrals ...
  27 = max dihedrals/atom
  scanning impropers ...
  1 = max impropers/atom
  reading bonds ...
  4132 bonds
  reading angles ...
  8556 angles
  reading dihedrals ...
  15688 dihedrals
  reading impropers ...
  276 impropers
  4 = max # of 1-2 neighbors
  10 = max # of 1-3 neighbors
  24 = max # of 1-4 neighbors
  25 = max # of special neighbors
  special bonds CPU = 0.00301313 secs
  read_data CPU = 0.0371962 secs
################################################################################

min_style cg
minimize 1e-06 1e-06 1000000 10000000
WARNING: Using 'neigh_modify every 1 delay 0 check yes' setting during minimization (../min.cpp:190)
PPPM initialization ...
WARNING: System is not charge neutral, net charge = -0.00023 (../kspace.cpp:313)
  using 12-bit tables for long-range coulomb (../kspace.cpp:332)
  G vector (1/distance) = 0.14739
  grid = 72 72 72
  stencil order = 5
  estimated absolute RMS force accuracy = 0.000684767
  estimated relative force accuracy = 2.06216e-06
  using double precision KISS FFT
  3d grid and FFT values/proc = 456533 373248
Neighbor list info ...
  update every 1 steps, delay 0 steps, check yes
  max neighbors/atom: 2000, page size: 100000
  master list distance cutoff = 14
  ghost atom cutoff = 14
  binsize = 7, bins = 61 61 61
  1 neighbor lists, perpetual/occasional/extra = 1 0 0
  (1) pair lj/cut/coul/long, perpetual
      attributes: half, newton on
      pair build: half/bin/newton
      stencil: half/bin/3d/newton
      bin: standard
Per MPI rank memory allocation (min/avg/max) = 71.44 | 71.44 | 71.44 Mbytes
Step Temp E_pair E_mol TotEng Press 
       0    354.56159    9164.0536    27099.948    40038.123    18.869607 
     404    354.56159    1329.6174     21066.01    26169.748    2.1664955 
Loop time of 105.339 on 1 procs for 404 steps with 3572 atoms

99.7% CPU use with 1 MPI tasks x no OpenMP threads

Minimization stats:
  Stopping criterion = energy tolerance
  Energy initial, next-to-last, final = 
         36264.0015346      22395.6415241      22395.6272929
  Force two-norm initial, final = 64581.8 16.9802
  Force max component initial, final = 29254.4 5.59341
  Final line search alpha, max atom move = 0.018409 0.102969
  Iterations, force evaluations = 404 801

MPI task timing breakdown:
Section |  min time  |  avg time  |  max time  |%varavg| %total
---------------------------------------------------------------
Pair    | 9.4618     | 9.4618     | 9.4618     |   0.0 |  8.98
Bond    | 1.5797     | 1.5797     | 1.5797     |   0.0 |  1.50
Kspace  | 94.134     | 94.134     | 94.134     |   0.0 | 89.36
Neigh   | 0.082493   | 0.082493   | 0.082493   |   0.0 |  0.08
Comm    | 0.0012941  | 0.0012941  | 0.0012941  |   0.0 |  0.00
Output  | 0          | 0          | 0          |   0.0 |  0.00
Modify  | 0          | 0          | 0          |   0.0 |  0.00
Other   |            | 0.08039    |            |       |  0.08

Nlocal:    3572 ave 3572 max 3572 min
Histogram: 1 0 0 0 0 0 0 0 0 0
Nghost:    0 ave 0 max 0 min
Histogram: 1 0 0 0 0 0 0 0 0 0
Neighs:    364556 ave 364556 max 364556 min
Histogram: 1 0 0 0 0 0 0 0 0 0

Total # of neighbors = 364556
Ave neighs/atom = 102.059
Ave special neighs/atom = 13.8443
Neighbor list builds = 7
Dangerous builds = 0
write_dump all custom pysimm.dump.tmp id q x y z vx vy vz
quit


################################################################################
##################################    Init    ##################################
################################################################################
units           real
atom_style      full
pair_style      lj/cut/coul/long 12.0  12.0
kspace_style    pppm 1e-4
bond_style      harmonic
angle_style     harmonic
dihedral_style  fourier
improper_style  cvff
special_bonds   amber
pair_modify     mix arithmetic
read_data       temp.lmps
  orthogonal box = (-214.508 -214.508 -214.508) to (214.508 214.508 214.508)
  1 by 1 by 1 MPI processor grid
  reading atoms ...
  3650 atoms
  reading velocities ...
  3650 velocities
  scanning bonds ...
  4 = max bonds/atom
  scanning angles ...
  6 = max angles/atom
  scanning dihedrals ...
  27 = max dihedrals/atom
  scanning impropers ...
  1 = max impropers/atom
  reading bonds ...
  4222 bonds
  reading angles ...
  8742 angles
  reading dihedrals ...
  16028 dihedrals
  reading impropers ...
  282 impropers
  4 = max # of 1-2 neighbors
  10 = max # of 1-3 neighbors
  24 = max # of 1-4 neighbors
  25 = max # of special neighbors
  special bonds CPU = 0.00311399 secs
  read_data CPU = 0.0377309 secs
################################################################################

min_style cg
minimize 1e-06 1e-06 1000000 10000000
WARNING: Using 'neigh_modify every 1 delay 0 check yes' setting during minimization (../min.cpp:190)
PPPM initialization ...
WARNING: System is not charge neutral, net charge = -0.000235 (../kspace.cpp:313)
  using 12-bit tables for long-range coulomb (../kspace.cpp:332)
  G vector (1/distance) = 0.146803
  grid = 72 72 72
  stencil order = 5
  estimated absolute RMS force accuracy = 0.000701894
  estimated relative force accuracy = 2.11373e-06
  using double precision KISS FFT
  3d grid and FFT values/proc = 456533 373248
Neighbor list info ...
  update every 1 steps, delay 0 steps, check yes
  max neighbors/atom: 2000, page size: 100000
  master list distance cutoff = 14
  ghost atom cutoff = 14
  binsize = 7, bins = 62 62 62
  1 neighbor lists, perpetual/occasional/extra = 1 0 0
  (1) pair lj/cut/coul/long, perpetual
      attributes: half, newton on
      pair build: half/bin/newton
      stencil: half/bin/3d/newton
      bin: standard
Per MPI rank memory allocation (min/avg/max) = 71.51 | 71.51 | 71.51 Mbytes
Step Temp E_pair E_mol TotEng Press 
       0    281.16815    195098.73    27459.102    225616.09    664.25768 
     314    281.16815    1345.1781    21482.437    25885.874    1.6379622 
Loop time of 81.5073 on 1 procs for 314 steps with 3650 atoms

99.7% CPU use with 1 MPI tasks x no OpenMP threads

Minimization stats:
  Stopping criterion = energy tolerance
  Energy initial, next-to-last, final = 
         222557.835749      22827.6378022      22827.6152936
  Force two-norm initial, final = 4.21757e+06 12.9784
  Force max component initial, final = 2.81918e+06 1.76993
  Final line search alpha, max atom move = 0.0324781 0.0574839
  Iterations, force evaluations = 314 623

MPI task timing breakdown:
Section |  min time  |  avg time  |  max time  |%varavg| %total
---------------------------------------------------------------
Pair    | 7.3526     | 7.3526     | 7.3526     |   0.0 |  9.02
Bond    | 1.2609     | 1.2609     | 1.2609     |   0.0 |  1.55
Kspace  | 72.769     | 72.769     | 72.769     |   0.0 | 89.28
Neigh   | 0.059915   | 0.059915   | 0.059915   |   0.0 |  0.07
Comm    | 0.0010605  | 0.0010605  | 0.0010605  |   0.0 |  0.00
Output  | 0          | 0          | 0          |   0.0 |  0.00
Modify  | 0          | 0          | 0          |   0.0 |  0.00
Other   |            | 0.0642     |            |       |  0.08

Nlocal:    3650 ave 3650 max 3650 min
Histogram: 1 0 0 0 0 0 0 0 0 0
Nghost:    0 ave 0 max 0 min
Histogram: 1 0 0 0 0 0 0 0 0 0
Neighs:    360964 ave 360964 max 360964 min
Histogram: 1 0 0 0 0 0 0 0 0 0

Total # of neighbors = 360964
Ave neighs/atom = 98.8942
Ave special neighs/atom = 13.8438
Neighbor list builds = 5
Dangerous builds = 0
write_dump all custom pysimm.dump.tmp id q x y z vx vy vz
quit


################################################################################
##################################    Init    ##################################
################################################################################
units           real
atom_style      full
pair_style      lj/cut/coul/long 12.0  12.0
kspace_style    pppm 1e-4
bond_style      harmonic
angle_style     harmonic
dihedral_style  fourier
improper_style  cvff
special_bonds   amber
pair_modify     mix arithmetic
read_data       temp.lmps
  orthogonal box = (-216.051 -216.051 -216.051) to (216.051 216.051 216.051)
  1 by 1 by 1 MPI processor grid
  reading atoms ...
  3728 atoms
  reading velocities ...
  3728 velocities
  scanning bonds ...
  4 = max bonds/atom
  scanning angles ...
  6 = max angles/atom
  scanning dihedrals ...
  27 = max dihedrals/atom
  scanning impropers ...
  1 = max impropers/atom
  reading bonds ...
  4312 bonds
  reading angles ...
  8928 angles
  reading dihedrals ...
  16368 dihedrals
  reading impropers ...
  288 impropers
  4 = max # of 1-2 neighbors
  10 = max # of 1-3 neighbors
  24 = max # of 1-4 neighbors
  25 = max # of special neighbors
  special bonds CPU = 0.00318193 secs
  read_data CPU = 0.0382781 secs
################################################################################

min_style cg
minimize 1e-06 1e-06 1000000 10000000
WARNING: Using 'neigh_modify every 1 delay 0 check yes' setting during minimization (../min.cpp:190)
PPPM initialization ...
WARNING: System is not charge neutral, net charge = -0.00024 (../kspace.cpp:313)
  using 12-bit tables for long-range coulomb (../kspace.cpp:332)
  G vector (1/distance) = 0.146228
  grid = 72 72 72
  stencil order = 5
  estimated absolute RMS force accuracy = 0.000719
  estimated relative force accuracy = 2.16525e-06
  using double precision KISS FFT
  3d grid and FFT values/proc = 456533 373248
Neighbor list info ...
  update every 1 steps, delay 0 steps, check yes
  max neighbors/atom: 2000, page size: 100000
  master list distance cutoff = 14
  ghost atom cutoff = 14
  binsize = 7, bins = 62 62 62
  1 neighbor lists, perpetual/occasional/extra = 1 0 0
  (1) pair lj/cut/coul/long, perpetual
      attributes: half, newton on
      pair build: half/bin/newton
      stencil: half/bin/3d/newton
      bin: standard
Per MPI rank memory allocation (min/avg/max) = 71.52 | 71.52 | 71.52 Mbytes
Step Temp E_pair E_mol TotEng Press 
       0     240.2365     12282.17    27814.494    42765.567    28.331373 
     298     240.2365    1364.7917    21824.492    25858.186    1.4355671 
Loop time of 77.4182 on 1 procs for 298 steps with 3728 atoms

99.7% CPU use with 1 MPI tasks x no OpenMP threads

Minimization stats:
  Stopping criterion = energy tolerance
  Energy initial, next-to-last, final = 
         40096.6644934       23189.306912      23189.2838877
  Force two-norm initial, final = 82611.7 13.3783
  Force max component initial, final = 47024.6 1.49295
  Final line search alpha, max atom move = 0.0333464 0.0497846
  Iterations, force evaluations = 298 590

MPI task timing breakdown:
Section |  min time  |  avg time  |  max time  |%varavg| %total
---------------------------------------------------------------
Pair    | 6.9689     | 6.9689     | 6.9689     |   0.0 |  9.00
Bond    | 1.2115     | 1.2115     | 1.2115     |   0.0 |  1.56
Kspace  | 69.138     | 69.138     | 69.138     |   0.0 | 89.30
Neigh   | 0.036894   | 0.036894   | 0.036894   |   0.0 |  0.05
Comm    | 0.00088835 | 0.00088835 | 0.00088835 |   0.0 |  0.00
Output  | 0          | 0          | 0          |   0.0 |  0.00
Modify  | 0          | 0          | 0          |   0.0 |  0.00
Other   |            | 0.06202    |            |       |  0.08

Nlocal:    3728 ave 3728 max 3728 min
Histogram: 1 0 0 0 0 0 0 0 0 0
Nghost:    0 ave 0 max 0 min
Histogram: 1 0 0 0 0 0 0 0 0 0
Neighs:    363320 ave 363320 max 363320 min
Histogram: 1 0 0 0 0 0 0 0 0 0

Total # of neighbors = 363320
Ave neighs/atom = 97.4571
Ave special neighs/atom = 13.8433
Neighbor list builds = 3
Dangerous builds = 0
write_dump all custom pysimm.dump.tmp id q x y z vx vy vz
quit


################################################################################
##################################    Init    ##################################
################################################################################
units           real
atom_style      full
pair_style      lj/cut/coul/long 12.0  12.0
kspace_style    pppm 1e-4
bond_style      harmonic
angle_style     harmonic
dihedral_style  fourier
improper_style  cvff
special_bonds   amber
pair_modify     mix arithmetic
read_data       temp.lmps
  orthogonal box = (-217.573 -217.573 -217.573) to (217.573 217.573 217.573)
  1 by 1 by 1 MPI processor grid
  reading atoms ...
  3806 atoms
  reading velocities ...
  3806 velocities
  scanning bonds ...
  4 = max bonds/atom
  scanning angles ...
  6 = max angles/atom
  scanning dihedrals ...
  27 = max dihedrals/atom
  scanning impropers ...
  1 = max impropers/atom
  reading bonds ...
  4402 bonds
  reading angles ...
  9114 angles
  reading dihedrals ...
  16708 dihedrals
  reading impropers ...
  294 impropers
  4 = max # of 1-2 neighbors
  10 = max # of 1-3 neighbors
  24 = max # of 1-4 neighbors
  25 = max # of special neighbors
  special bonds CPU = 0.00322318 secs
  read_data CPU = 0.0386479 secs
################################################################################

min_style cg
minimize 1e-06 1e-06 1000000 10000000
WARNING: Using 'neigh_modify every 1 delay 0 check yes' setting during minimization (../min.cpp:190)
PPPM initialization ...
WARNING: System is not charge neutral, net charge = -0.000245 (../kspace.cpp:313)
  using 12-bit tables for long-range coulomb (../kspace.cpp:332)
  G vector (1/distance) = 0.145667
  grid = 72 72 72
  stencil order = 5
  estimated absolute RMS force accuracy = 0.000736085
  estimated relative force accuracy = 2.2167e-06
  using double precision KISS FFT
  3d grid and FFT values/proc = 456533 373248
Neighbor list info ...
  update every 1 steps, delay 0 steps, check yes
  max neighbors/atom: 2000, page size: 100000
  master list distance cutoff = 14
  ghost atom cutoff = 14
  binsize = 7, bins = 63 63 63
  1 neighbor lists, perpetual/occasional/extra = 1 0 0
  (1) pair lj/cut/coul/long, perpetual
      attributes: half, newton on
      pair build: half/bin/newton
      stencil: half/bin/3d/newton
      bin: standard
Per MPI rank memory allocation (min/avg/max) = 71.96 | 71.96 | 71.96 Mbytes
Step Temp E_pair E_mol TotEng Press 
       0    263.71856    12729.569    28646.309     44366.97     29.12008 
     263    263.71856    1351.9111    22265.915    26608.917    1.5610698 
Loop time of 68.7162 on 1 procs for 263 steps with 3806 atoms

99.7% CPU use with 1 MPI tasks x no OpenMP threads

Minimization stats:
  Stopping criterion = energy tolerance
  Energy initial, next-to-last, final = 
         41375.8788382      23617.8477366      23617.8258975
  Force two-norm initial, final = 105998 10.138
  Force max component initial, final = 63825.5 2.56955
  Final line search alpha, max atom move = 0.0330505 0.0849251
  Iterations, force evaluations = 263 519

MPI task timing breakdown:
Section |  min time  |  avg time  |  max time  |%varavg| %total
---------------------------------------------------------------
Pair    | 6.7098     | 6.7098     | 6.7098     |   0.0 |  9.76
Bond    | 1.0926     | 1.0926     | 1.0926     |   0.0 |  1.59
Kspace  | 60.754     | 60.754     | 60.754     |   0.0 | 88.41
Neigh   | 0.10284    | 0.10284    | 0.10284    |   0.0 |  0.15
Comm    | 0.0010815  | 0.0010815  | 0.0010815  |   0.0 |  0.00
Output  | 0          | 0          | 0          |   0.0 |  0.00
Modify  | 0          | 0          | 0          |   0.0 |  0.00
Other   |            | 0.0562     |            |       |  0.08

Nlocal:    3806 ave 3806 max 3806 min
Histogram: 1 0 0 0 0 0 0 0 0 0
Nghost:    0 ave 0 max 0 min
Histogram: 1 0 0 0 0 0 0 0 0 0
Neighs:    397399 ave 397399 max 397399 min
Histogram: 1 0 0 0 0 0 0 0 0 0

Total # of neighbors = 397399
Ave neighs/atom = 104.414
Ave special neighs/atom = 13.8429
Neighbor list builds = 8
Dangerous builds = 0
write_dump all custom pysimm.dump.tmp id q x y z vx vy vz
quit


################################################################################
##################################    Init    ##################################
################################################################################
units           real
atom_style      full
pair_style      lj/cut/coul/long 12.0  12.0
kspace_style    pppm 1e-4
bond_style      harmonic
angle_style     harmonic
dihedral_style  fourier
improper_style  cvff
special_bonds   amber
pair_modify     mix arithmetic
read_data       temp.lmps
  orthogonal box = (-219.073 -219.073 -219.073) to (219.073 219.073 219.073)
  1 by 1 by 1 MPI processor grid
  reading atoms ...
  3884 atoms
  reading velocities ...
  3884 velocities
  scanning bonds ...
  4 = max bonds/atom
  scanning angles ...
  6 = max angles/atom
  scanning dihedrals ...
  27 = max dihedrals/atom
  scanning impropers ...
  1 = max impropers/atom
  reading bonds ...
  4492 bonds
  reading angles ...
  9300 angles
  reading dihedrals ...
  17048 dihedrals
  reading impropers ...
  300 impropers
  4 = max # of 1-2 neighbors
  10 = max # of 1-3 neighbors
  24 = max # of 1-4 neighbors
  25 = max # of special neighbors
  special bonds CPU = 0.00324798 secs
  read_data CPU = 0.041173 secs
################################################################################

min_style cg
minimize 1e-06 1e-06 1000000 10000000
WARNING: Using 'neigh_modify every 1 delay 0 check yes' setting during minimization (../min.cpp:190)
PPPM initialization ...
WARNING: System is not charge neutral, net charge = -0.00025 (../kspace.cpp:313)
  using 12-bit tables for long-range coulomb (../kspace.cpp:332)
  G vector (1/distance) = 0.145118
  grid = 72 72 72
  stencil order = 5
  estimated absolute RMS force accuracy = 0.000753149
  estimated relative force accuracy = 2.26809e-06
  using double precision KISS FFT
  3d grid and FFT values/proc = 456533 373248
Neighbor list info ...
  update every 1 steps, delay 0 steps, check yes
  max neighbors/atom: 2000, page size: 100000
  master list distance cutoff = 14
  ghost atom cutoff = 14
  binsize = 7, bins = 63 63 63
  1 neighbor lists, perpetual/occasional/extra = 1 0 0
  (1) pair lj/cut/coul/long, perpetual
      attributes: half, newton on
      pair build: half/bin/newton
      stencil: half/bin/3d/newton
      bin: standard
Per MPI rank memory allocation (min/avg/max) = 71.59 | 71.59 | 71.59 Mbytes
Step Temp E_pair E_mol TotEng Press 
       0    236.81369     7955.616    29143.215    39839.827    12.186663 
     462    236.81369    1376.9958    22649.964    26767.956    1.4309876 
Loop time of 115.865 on 1 procs for 462 steps with 3884 atoms

99.7% CPU use with 1 MPI tasks x no OpenMP threads

Minimization stats:
  Stopping criterion = energy tolerance
  Energy initial, next-to-last, final = 
          37098.830623      24026.9832166      24026.9597802
  Force two-norm initial, final = 32565.3 11.8058
  Force max component initial, final = 14012.5 6.77685
  Final line search alpha, max atom move = 0.0276661 0.187489
  Iterations, force evaluations = 462 916

MPI task timing breakdown:
Section |  min time  |  avg time  |  max time  |%varavg| %total
---------------------------------------------------------------
Pair    | 11.161     | 11.161     | 11.161     |   0.0 |  9.63
Bond    | 1.9157     | 1.9157     | 1.9157     |   0.0 |  1.65
Kspace  | 102.59     | 102.59     | 102.59     |   0.0 | 88.55
Neigh   | 0.095701   | 0.095701   | 0.095701   |   0.0 |  0.08
Comm    | 0.0014491  | 0.0014491  | 0.0014491  |   0.0 |  0.00
Output  | 0          | 0          | 0          |   0.0 |  0.00
Modify  | 0          | 0          | 0          |   0.0 |  0.00
Other   |            | 0.09733    |            |       |  0.08

Nlocal:    3884 ave 3884 max 3884 min
Histogram: 1 0 0 0 0 0 0 0 0 0
Nghost:    0 ave 0 max 0 min
Histogram: 1 0 0 0 0 0 0 0 0 0
Neighs:    385513 ave 385513 max 385513 min
Histogram: 1 0 0 0 0 0 0 0 0 0

Total # of neighbors = 385513
Ave neighs/atom = 99.2567
Ave special neighs/atom = 13.8424
Neighbor list builds = 8
Dangerous builds = 0
write_dump all custom pysimm.dump.tmp id q x y z vx vy vz
quit
