pySIMM System Object

1934 atoms
2242 bonds
4650 angles
8548 dihedrals
150 impropers

6 atom types
11 bond types
24 angle types
21 dihedral types
2 improper types

-172.687557 172.687557 xlo xhi
-172.687557 172.687557 ylo yhi
-172.687557 172.687557 zlo zhi

Masses

   1	12.01	# ca
   2	12.01	# c3
   3	12.01	# cy
   4	12.01	# cp
   5	1.008	# ha
   6	1.008	# hc

Pair Coeffs

   1	0.086	3.3996695084235347	# ca
   2	0.1094	3.3996695084235347	# c3
   3	0.086	3.3996695084235347	# cy
   4	0.086	3.3996695084235347	# cp
   5	0.015	2.59964245953351	# ha
   6	0.0157	2.649532787749369	# hc

Bond Coeffs

   1	321.2	1.5154	# ca,cy
   2	461.1	1.3984	# ca,ca
   3	345.8	1.086	# ca,ha
   4	300.9	1.5375	# c3,c3
   5	305.9	1.5319	# c3,cy
   6	450.2	1.4058	# ca,cp
   7	351.4	1.4854	# cp,cp
   8	321.0	1.5156	# c3,ca
   9	330.6	1.0969	# c3,hc
  10	333.3	1.0949	# cy,hc
  11	285.0	1.5562	# cy,cy

Angle Coeffs

   1	66.72	118.38	# ca,cp,ca
   2	46.8	110.47	# ca,c3,hc
   3	62.86	111.51	# c3,c3,c3
   4	46.43	110.14	# c3,cy,hc
   5	63.43	120.63	# c3,ca,cp
   6	63.56	112.24	# ca,c3,ca
   7	64.05	121.11	# ca,cp,cp
   8	66.62	120.02	# ca,ca,ca
   9	47.98	119.86	# cp,ca,ha
  10	39.4	107.58	# hc,c3,hc
  11	63.53	120.77	# c3,ca,ca
  12	63.51	120.86	# ca,ca,cy
  13	62.8	113.57	# c3,cy,ca
  14	67.9	96.03	# cy,c3,cy
  15	61.4	116.81	# ca,cy,cy
  16	63.15	112.07	# c3,c3,ca
  17	45.97	114.53	# ca,cy,hc
  18	66.26	120.69	# ca,ca,cp
  19	46.34	109.8	# c3,c3,hc
  20	48.18	119.88	# ca,ca,ha
  21	62.73	112.39	# c3,c3,cy
  22	46.29	110.75	# cy,c3,hc
  23	44.83	114.79	# cy,cy,hc
  24	60.66	118.7	# c3,cy,cy

Dihedral Coeffs

   1	1	0.15555555555555556	3	0	# X,cy,cy,X
   2	1	3.625	2	180	# X,ca,cp,X
   3	3	0.18	3	0	0.25	2	180	0.2	1	180	# c3,c3,c3,c3
   4	1	0.16	3	0	# hc,c3,c3,c3
   5	1	0.0	2	0.0	# ca,ca,cy,cy
   6	1	1.0	2	180	# X,cp,cp,X
   7	1	0.0	2	0.0	# ca,ca,cy,c3
   8	3	0.38	3	180.0	0.0	2	0.0	1.15	1	0.0	# ca,ca,cy,hc
   9	1	0.0	2	0	# X,c3,ca,X
  10	1	0.16	3	0.0	# cy,c3,cy,ca
  11	1	0.15555555555555556	3	0	# X,c3,c3,X
  12	1	0.16	3	0.0	# c3,c3,cy,ca
  13	1	0.16	3	0.0	# hc,c3,cy,ca
  14	3	0.18	3	0.0	0.25	2	180.0	0.2	1	180.0	# cy,c3,cy,cy
  15	1	0.15	3	0	# hc,c3,c3,hc
  16	3	0.18	3	0.0	0.25	2	180.0	0.2	1	180.0	# c3,c3,cy,cy
  17	1	0.16	3	0.0	# hc,c3,cy,cy
  18	1	0.16	3	0.0	# cy,c3,cy,hc
  19	1	0.16	3	0.0	# c3,c3,cy,hc
  20	1	0.15	3	0.0	# hc,c3,cy,hc
  21	1	3.625	2	180	# X,ca,ca,X

Improper Coeffs

   1	1.1	-1	2	# ca,ca,ca,c3
   2	1.1	-1	2	# ca,X,X,ha

Atoms

   1	1	1	0.055893	-60.3482	-15.1561	-26.915
   2	1	1	0.066037	-59.1728	-15.882	-26.8711
   3	1	1	-0.13485	-58.4379	-16.0995	-25.6882
   4	1	1	-0.112685	-59.1155	-15.636	-24.5393
   5	1	1	-0.113466	-60.9285	-14.535	-25.7981
   6	1	2	0.031197	-57.6898	-14.1441	-22.7216
   7	1	1	-0.092412	-60.2871	-14.893	-24.5999
   8	1	3	0.085064	-60.1079	-14.3051	-23.2119
   9	1	3	0.073163	-58.7894	-15.1847	-23.1111
  10	1	3	-0.014897	-57.4647	-13.3896	-24.0505
  11	1	2	0.044047	-59.6143	-12.8454	-22.9632
  12	1	1	-0.216606	-55.4428	-11.5805	-24.1739
  13	1	3	-0.029794	-58.7813	-12.5284	-24.2429
  14	1	2	-0.27828	-58.524	-13.1262	-21.8903
  15	1	1	0.002791	-57.8711	-11.3172	-24.1818
  16	1	1	-0.015593	-56.7374	-12.0634	-23.9692
  17	1	1	-0.275006	-57.8352	-10.0321	-24.7369
  18	1	1	-0.00175	-56.5412	-9.47926	-24.8889
  19	1	4	0.011736	-55.3776	-10.2214	-24.5678
  20	1	2	0.056595	-56.1841	-8.14827	-25.5717
  21	1	3	-0.006078	-51.0128	-7.23443	-26.3233
  22	1	4	0.009572	-54.2032	-9.40584	-24.8889
  23	1	1	0.047642	-54.644	-8.18076	-25.4561
  24	1	1	-0.203391	-53.7122	-7.23192	-25.9409
  25	1	1	-0.073691	-52.3668	-7.54624	-25.7131
  26	1	1	-0.02876	-51.9468	-8.72997	-25.1578
  27	1	3	0.009648	-50.5222	-8.59277	-25.667
  28	1	1	-0.19087	-52.8305	-9.74213	-24.775
  29	1	2	0.036362	-50.7691	-7.47872	-27.8325
  30	1	2	0.011094	-51.7252	-8.55758	-28.4179
  31	1	2	-0.166666	-49.4569	-8.28575	-27.7633
  32	1	2	-0.004747	-51.2079	-9.87941	-27.7952
  33	1	2	0.045805	-50.0378	-9.41447	-26.8878
  34	1	2	-0.016724	-56.6608	-8.20454	-27.0552
  35	1	2	-0.038268	-56.8229	-6.956	-24.8052
  36	1	2	0.015931	-56.6087	-6.85256	-27.8016
  37	1	2	0.006127	-56.756	-5.61087	-25.566
  38	1	2	-0.02901	-57.3053	-5.72934	-27.0046
  39	1	6	0.060706	-56.9696	-17.6345	-26.1099
  40	1	6	0.109818	-62.9142	-13.8532	-26.33
  41	1	6	0.034398	-56.7909	-14.5456	-22.2369
  42	1	6	0.029719	-60.8831	-14.5808	-22.4886
  43	1	6	0.036789	-58.8453	-15.9786	-22.3585
  44	1	6	0.059436	-57.1101	-14.0154	-24.8707
  45	1	6	0.028349	-60.3855	-12.1135	-22.6924
  46	1	5	0.156131	-54.5643	-12.2143	-24.113
  47	1	6	0.059364	-59.335	-12.5955	-25.1814
  48	1	6	0.111824	-57.9558	-12.2282	-21.6117
  49	1	6	0.047288	-58.9407	-13.5751	-20.9785
  50	1	5	0.182101	-58.7295	-9.53607	-25.1003
  51	1	6	0.044359	-50.5055	-6.33493	-25.9572
  52	1	5	0.179067	-53.9981	-6.35089	-26.5013
  53	1	6	0.038058	-49.7424	-8.4805	-24.9057
  54	1	5	0.140142	-52.4929	-10.7257	-24.4653
  55	1	6	0.008074	-50.7085	-6.56403	-28.4344
  56	1	6	-0.001887	-52.7805	-8.37083	-28.1908
  57	1	6	0.034873	-48.6432	-7.7369	-27.2692
  58	1	6	0.057592	-49.1128	-8.63751	-28.7446
  59	1	6	0.004826	-51.9876	-10.4231	-27.2502
  60	1	6	0.004917	-49.3251	-10.2129	-26.6459
  61	1	6	0.011371	-57.7017	-8.55083	-27.0826
  62	1	6	0.016934	-56.0763	-8.95206	-27.6079
  63	1	6	0.017694	-56.35	-6.84857	-23.8204
  64	1	6	0.024086	-57.8805	-7.18051	-24.6164
  65	1	6	0.001925	-57.094	-6.95977	-28.7802
  66	1	6	-0.011831	-55.5696	-6.57402	-28.0065
  67	1	6	-0.015908	-55.7227	-5.24771	-25.5948
  68	1	6	0.008977	-57.3323	-4.85479	-25.0179
  69	1	6	0.008233	-58.3831	-5.93431	-26.9625
  70	1	6	0.006802	-57.1834	-4.77303	-27.5288
  71	1	2	-0.163429	-57.0138	-16.6269	-25.6786
  72	1	6	0.069136	-56.3511	-15.9801	-26.2671
  73	1	6	0.097616	-56.6143	-16.6815	-24.6584
  74	1	2	-0.211261	-61.9883	-13.452	-25.8996
  75	1	6	0.077702	-62.2301	-13.034	-24.9147
  76	1	6	0.070844	-61.6476	-12.6287	-26.5399
  77	1	1	0.055893	-48.2086	-7.0953	-32.3572
  78	1	1	0.066037	-47.9821	-8.75652	-32.7512
  79	1	1	-0.13485	-49.009	-9.89948	-33.3435
  80	1	1	-0.112685	-50.4892	-9.53886	-33.8504
  81	1	1	-0.113466	-49.5078	-6.37784	-32.8868
  82	1	2	0.031197	-52.8186	-10.9079	-34.2704
  83	1	1	-0.092412	-51.0125	-8.05904	-33.7435
  84	1	3	0.085064	-52.2471	-8.49167	-34.6088
  85	1	3	0.073163	-51.6473	-9.98481	-34.7289
  86	1	3	-0.014897	-52.8742	-10.6672	-32.7405
  87	1	2	0.044047	-53.6979	-8.74625	-34.0813
  88	1	1	-0.216606	-54.9181	-12.2775	-31.8954
  89	1	3	-0.029794	-53.4803	-9.20483	-32.6205
  90	1	2	-0.27828	-54.029	-10.0861	-34.8024
  91	1	1	0.002791	-54.6566	-9.85767	-31.9261
  92	1	1	-0.015593	-54.1327	-11.1239	-32.0152
  93	1	1	-0.275006	-56.0159	-9.59463	-31.7254
  94	1	1	-0.00175	-56.8145	-10.7338	-31.4759
  95	1	4	0.011736	-56.274	-12.0446	-31.542
  96	1	2	0.056595	-58.3348	-10.7595	-31.2435
  97	1	3	-0.006078	-60.6164	-15.5296	-30.8166
  98	1	4	0.009572	-57.3793	-13.0047	-31.4014
  99	1	1	0.047642	-58.5928	-12.2752	-31.2903
 100	1	1	-0.203391	-59.8408	-12.929	-31.162
 101	1	1	-0.073691	-59.7793	-14.3261	-31.2087
 102	1	1	-0.02876	-58.6008	-15.0283	-31.2246
 103	1	3	0.009648	-59.2463	-16.343	-30.8122
 104	1	1	-0.19087	-57.3425	-14.4208	-31.2983
 105	1	2	0.036362	-61.1238	-15.6788	-29.3646
 106	1	2	0.011094	-60.2309	-14.8576	-28.3914
 107	1	2	-0.166666	-60.6592	-17.1286	-29.0929
 108	1	2	-0.004747	-58.8798	-15.6786	-28.353
 109	1	2	0.045805	-59.1586	-16.8496	-29.3443
 110	1	2	-0.016724	-58.6486	-10.1808	-29.8298
 111	1	2	-0.038268	-59.1168	-10.0256	-32.3765
 112	1	2	0.015931	-60.087	-9.63313	-29.7004
 113	1	2	0.006127	-59.5119	-8.57829	-32.0025
 114	1	2	-0.02901	-60.3912	-8.51447	-30.7284
 115	1	6	0.060706	-48.9136	-11.8328	-34.3158
 116	1	6	0.109818	-48.5392	-4.78826	-31.6207
 117	1	6	0.034398	-52.7642	-11.9553	-34.5929
 118	1	6	0.029719	-52.3472	-7.98919	-35.5744
 119	1	6	0.036789	-51.3423	-10.2689	-35.7417
 120	1	6	0.059436	-51.9452	-10.9039	-32.2134
 121	1	6	0.028349	-54.4173	-7.93083	-34.2285
 122	1	5	0.156131	-54.5371	-13.2686	-32.1185
 123	1	6	0.059364	-52.9953	-8.4758	-31.9845
 124	1	6	0.111824	-54.9982	-10.5076	-34.5017
 125	1	6	0.047288	-54.0169	-9.98519	-35.8961
 126	1	5	0.182101	-56.4247	-8.59384	-31.8062
 127	1	6	0.044359	-61.3532	-15.8706	-31.5523
 128	1	5	0.179067	-60.7722	-12.3978	-30.9999
 129	1	6	0.038058	-59.193	-17.1611	-31.5388
 130	1	5	0.140142	-56.4151	-14.9819	-31.2459
 131	1	6	0.008074	-62.2	-15.511	-29.2317
 132	1	6	-0.001887	-60.1148	-13.7894	-28.6101
 133	1	6	0.034873	-61.0808	-17.8486	-29.8084
 134	1	6	0.057592	-60.8813	-17.4834	-28.0779
 135	1	6	0.004826	-57.9826	-15.0793	-28.5531
 136	1	6	0.004917	-58.5061	-17.7191	-29.1964
 137	1	6	0.011371	-57.9574	-9.35638	-29.6123
 138	1	6	0.016934	-58.4662	-10.9416	-29.0593
 139	1	6	0.017694	-60.0408	-10.5724	-32.6039
 140	1	6	0.024086	-58.5292	-10.0271	-33.3038
 141	1	6	0.001925	-60.2519	-9.25307	-28.6841
 142	1	6	-0.011831	-60.7994	-10.4543	-29.8405
 143	1	6	-0.015908	-60.0426	-8.10631	-32.8391
 144	1	6	0.008977	-58.6039	-7.98624	-31.839
 145	1	6	0.008233	-60.252	-7.53363	-30.2558
 146	1	6	0.006802	-61.4505	-8.57516	-31.0094
 147	1	2	-0.163429	-48.5572	-11.3456	-33.3999
 148	1	6	0.069136	-47.463	-11.4195	-33.3822
 149	1	6	0.097616	-48.9491	-11.9077	-32.5434
 150	1	2	-0.211261	-49.295	-4.84338	-32.4153
 151	1	6	0.077702	-48.8771	-4.18734	-33.1852
 152	1	6	0.070844	-50.1694	-4.37911	-31.9439
 153	1	1	0.055893	-44.6417	4.50398	-34.7617
 154	1	1	0.066037	-43.6098	4.17521	-35.6113
 155	1	1	-0.13485	-43.8058	3.67511	-36.9169
 156	1	1	-0.112685	-45.1743	3.69287	-37.265
 157	1	1	-0.113466	-45.9407	4.80713	-35.2069
 158	1	2	0.031197	-46.9616	2.18042	-38.665
 159	1	1	-0.092412	-46.1067	4.41752	-36.5474
 160	1	3	0.085064	-47.1266	4.44147	-37.6803
 161	1	3	0.073163	-46.1093	3.49119	-38.4524
 162	1	3	-0.014897	-47.1641	1.59133	-37.2244
 163	1	2	0.044047	-48.4602	3.65722	-37.6565
 164	1	1	-0.216606	-48.4776	-0.794621	-36.7313
 165	1	3	-0.029794	-48.1519	2.63409	-36.5507
 166	1	2	-0.27828	-48.3459	2.82185	-38.9639
 167	1	1	0.002791	-49.1363	1.51747	-36.4344
 168	1	1	-0.015593	-48.3025	0.578713	-36.9896
 169	1	1	-0.275006	-50.192	1.23781	-35.576
 170	1	1	-0.00175	-50.4534	-0.128336	-35.3737
 171	1	4	0.011736	-49.6351	-1.1329	-35.9634
 172	1	2	0.056595	-51.4911	-0.713046	-34.4043
 173	1	3	-0.006078	-51.6637	-5.89802	-33.498
 174	1	4	0.009572	-50.1057	-2.44264	-35.4584
 175	1	1	0.047642	-51.162	-2.19886	-34.543
 176	1	1	-0.203391	-51.7952	-3.232	-33.828
 177	1	1	-0.073691	-51.3417	-4.52111	-34.0995
 178	1	1	-0.02876	-50.3327	-4.79509	-35.0616
 179	1	3	0.009648	-50.3048	-6.3324	-35.0363
 180	1	1	-0.19087	-49.6748	-3.76583	-35.7604
 181	1	2	0.036362	-51.1353	-6.92612	-31.7011
 182	1	2	0.011094	-49.2574	-7.37267	-31.8673
 183	1	2	-0.166666	-50.0528	-8.35975	-31.8095
 184	1	2	-0.004747	-48.0031	-7.82119	-33.472
 185	1	2	0.045805	-48.962	-7.83162	-34.4283
 186	1	2	-0.016724	-51.2662	-0.265796	-32.9261
 187	1	2	-0.038268	-52.9496	-0.445743	-34.8744
 188	1	2	0.015931	-51.839	1.12573	-32.565
 189	1	2	0.006127	-53.4658	0.97221	-34.5413
 190	1	2	-0.02901	-53.296	1.30597	-33.0437
 191	1	6	0.060706	-41.8535	2.80136	-37.2694
 192	1	6	0.109818	-47.9362	5.61775	-34.9259
 193	1	6	0.034398	-46.5854	1.48013	-39.4214
 194	1	6	0.029719	-47.2672	5.42192	-38.1482
 195	1	6	0.036789	-45.7402	3.8731	-39.4105
 196	1	6	0.059436	-46.2232	1.35492	-36.7151
 197	1	6	0.028349	-49.374	4.25126	-37.5293
 198	1	5	0.156131	-47.7433	-1.5378	-37.0248
 199	1	6	0.059364	-47.9178	3.06277	-35.5727
 200	1	6	0.111824	-49.1482	2.07927	-39.0712
 201	1	6	0.047288	-48.3283	3.45401	-39.862
 202	1	5	0.182101	-50.7069	2.03016	-35.0503
 203	1	6	0.044359	-52.7206	-6.10922	-33.693
 204	1	5	0.179067	-52.5736	-3.04349	-33.0957
 205	1	6	0.038058	-50.731	-6.67456	-35.9846
 206	1	5	0.140142	-48.8915	-3.96856	-36.4836
 207	1	6	0.008074	-51.2934	-6.43407	-30.7338
 208	1	6	-0.001887	-48.7774	-7.05022	-30.8497
 209	1	6	0.034873	-50.9036	-9.06742	-31.6925
 210	1	6	0.057592	-49.6918	-9.10694	-30.9646
 211	1	6	0.004826	-46.9463	-7.53184	-33.8607
 212	1	6	0.004917	-48.7381	-8.56726	-35.2285
 213	1	6	0.011371	-50.1956	-0.297413	-32.6849
 214	1	6	0.016934	-51.7479	-0.990052	-32.2577
 215	1	6	0.017694	-53.6212	-1.16674	-34.391
 216	1	6	0.024086	-53.0323	-0.624482	-35.9545
 217	1	6	0.001925	-51.2097	1.91632	-32.9848
 218	1	6	-0.011831	-51.7982	1.25972	-31.4766
 219	1	6	-0.015908	-54.5267	1.04505	-34.8119
 220	1	6	0.008977	-52.9409	1.71669	-35.1505
 221	1	6	0.008233	-53.6227	2.33629	-32.8541
 222	1	6	0.006802	-53.9509	0.651167	-32.4543
 223	1	2	-0.163429	-42.6916	3.22081	-37.8402
 224	1	6	0.069136	-43.0446	2.44758	-38.5338
 225	1	6	0.097616	-42.3096	4.06034	-38.4337
 226	1	2	-0.211261	-46.9946	5.51254	-34.3732
 227	1	6	0.077702	-47.2044	4.95246	-33.4536
 228	1	6	0.070844	-46.6594	6.51748	-34.0888
 229	1	1	0.055893	-30.9746	-2.05416	-32.9149
 230	1	1	0.066037	-30.4251	-0.862743	-32.4766
 231	1	1	-0.13485	-31.0917	0.0574404	-31.6586
 232	1	1	-0.112685	-32.4324	-0.285605	-31.4387
 233	1	1	-0.113466	-32.2077	-2.53083	-32.4033
 234	1	2	0.031197	-34.6383	0.861691	-30.531
 235	1	1	-0.092412	-32.9521	-1.5464	-31.7147
 236	1	3	0.085064	-33.9146	-1.51234	-30.5052
 237	1	3	0.073163	-33.3875	-0.0340422	-30.3076
 238	1	3	-0.014897	-35.0196	0.596374	-32.0359
 239	1	2	0.044047	-35.47	-1.31132	-30.5447
 240	1	1	-0.216606	-37.0436	2.30305	-32.4869
 241	1	3	-0.029794	-35.6866	-0.838327	-31.9889
 242	1	2	-0.27828	-35.6526	0.00320256	-29.7287
 243	1	1	0.002791	-37.0056	-0.13254	-32.3069
 244	1	1	-0.015593	-36.3796	1.08149	-32.4819
 245	1	1	-0.275006	-38.3367	-0.193295	-31.8374
 246	1	1	-0.00175	-39.0606	1.03196	-31.8403
 247	1	4	0.011736	-38.436	2.21867	-32.2847
 248	1	2	0.056595	-40.4688	1.36752	-31.266
 249	1	3	-0.006078	-42.2732	6.30884	-32.2562
 250	1	4	0.009572	-39.3743	3.32307	-32.1867
 251	1	1	0.047642	-40.5358	2.89553	-31.5084
 252	1	1	-0.203391	-41.617	3.79262	-31.2728
 253	1	1	-0.073691	-41.4405	5.10294	-31.7704
 254	1	1	-0.02876	-40.4047	5.38357	-32.6297
 255	1	3	0.009648	-41.152	6.45039	-33.3696
 256	1	1	-0.19087	-39.3265	4.54579	-32.8815
 257	1	2	0.036362	-43.5681	6.19831	-33.0975
 258	1	2	0.011094	-43.7197	4.76185	-33.5952
 259	1	2	-0.166666	-43.1573	6.93201	-34.398
 260	1	2	-0.004747	-42.5193	4.57305	-34.615
 261	1	2	0.045805	-41.9205	6.0469	-34.6661
 262	1	2	-0.016724	-41.6024	0.664294	-32.0651
 263	1	2	-0.038268	-40.5821	1.08146	-29.7406
 264	1	2	0.015931	-41.7807	-0.828973	-31.71
 265	1	2	0.006127	-40.8011	-0.407329	-29.3824
 266	1	2	-0.02901	-41.9557	-1.03819	-30.1907
 267	1	6	0.060706	-30.0998	0.833468	-29.8965
 268	1	6	0.109818	-32.2107	-4.51057	-33.2893
 269	1	6	0.034398	-34.5402	1.91154	-30.2276
 270	1	6	0.029719	-33.6523	-2.21321	-29.7053
 271	1	6	0.036789	-32.9238	0.1808	-29.3382
 272	1	6	0.059436	-34.226	0.77811	-32.7683
 273	1	6	0.028349	-36.0787	-2.16615	-30.2242
 274	1	5	0.156131	-36.5218	3.25313	-32.5404
 275	1	6	0.059364	-35.3688	-1.56924	-32.7414
 276	1	6	0.111824	-36.6728	0.406621	-29.7624
 277	1	6	0.047288	-35.3622	-0.116964	-28.676
 278	1	5	0.182101	-38.7371	-1.10872	-31.4197
 279	1	6	0.044359	-42.3283	7.14871	-31.5549
 280	1	5	0.179067	-42.5504	3.46725	-30.8243
 281	1	6	0.038058	-40.674	7.43427	-33.4383
 282	1	5	0.140142	-38.5642	4.76967	-33.6211
 283	1	6	0.008074	-44.4693	6.59806	-32.6162
 284	1	6	-0.001887	-43.7908	3.99035	-32.8199
 285	1	6	0.034873	-42.9025	7.98689	-34.2228
 286	1	6	0.057592	-43.9067	6.89653	-35.199
 287	1	6	0.004826	-41.8215	3.76735	-34.3547
 288	1	6	0.004917	-41.3929	6.28071	-35.5992
 289	1	6	0.011371	-41.4202	0.768709	-33.1427
 290	1	6	0.016934	-42.5537	1.1732	-31.863
 291	1	6	0.017694	-41.4323	1.64745	-29.3383
 292	1	6	0.024086	-39.69	1.4578	-29.2233
 293	1	6	0.001925	-40.918	-1.40381	-32.0657
 294	1	6	-0.011831	-42.6576	-1.22668	-32.2366
 295	1	6	-0.015908	-41.0188	-0.49405	-28.3104
 296	1	6	0.008977	-39.8793	-0.973488	-29.5522
 297	1	6	0.008233	-42.0213	-2.11086	-29.9686
 298	1	6	0.006802	-42.9055	-0.588566	-29.8728
 299	1	2	-0.163429	-30.387	1.16794	-30.901
 300	1	6	0.069136	-29.477	1.48917	-31.4232
 301	1	6	0.097616	-31.0375	2.04468	-30.7933
 302	1	2	-0.211261	-32.5917	-3.99898	-32.3966
 303	1	6	0.077702	-32.1821	-4.50631	-31.5146
 304	1	6	0.070844	-33.6818	-4.12101	-32.3817
 305	1	1	0.055893	-17.0469	4.10025	-38.122
 306	1	1	0.066037	-16.8662	4.26017	-36.7586
 307	1	1	-0.13485	-17.3229	3.33102	-35.8073
 308	1	1	-0.112685	-18.1473	2.33076	-36.3524
 309	1	1	-0.113466	-17.6353	2.94363	-38.6756
 310	1	2	0.031197	-19.7204	0.330969	-35.4726
 311	1	1	-0.092412	-18.2661	2.11979	-37.7237
 312	1	3	0.085064	-18.4386	0.606077	-37.5722
 313	1	3	0.073163	-18.3628	0.868216	-36.0153
 314	1	3	-0.014897	-20.7604	1.34386	-36.0493
 315	1	2	0.044047	-19.7889	-0.156489	-37.7511
 316	1	1	-0.216606	-23.0445	0.35475	-35.0176
 317	1	3	-0.029794	-20.8288	0.975899	-37.5877
 318	1	2	-0.27828	-19.8799	-0.911822	-36.393
 319	1	1	0.002791	-22.264	0.542225	-37.3226
 320	1	1	-0.015593	-22.2155	0.914541	-35.9946
 321	1	1	-0.275006	-23.0848	-0.508414	-37.771
 322	1	1	-0.00175	-24.0018	-1.02987	-36.8251
 323	1	4	0.011736	-24.0106	-0.564089	-35.4919
 324	1	2	0.056595	-24.9308	-2.25214	-36.9924
 325	1	3	-0.006078	-27.4752	-3.85435	-32.5113
 326	1	4	0.009572	-24.9608	-1.36863	-34.7222
 327	1	1	0.047642	-25.5041	-2.38334	-35.5582
 328	1	1	-0.203391	-26.4056	-3.35729	-35.0382
 329	1	1	-0.073691	-26.706	-3.21161	-33.6746
 330	1	1	-0.02876	-26.2167	-2.18792	-32.9122
 331	1	3	0.009648	-26.9588	-2.59945	-31.6729
 332	1	1	-0.19087	-25.3228	-1.22215	-33.3624
 333	1	2	0.036362	-29.0195	-3.75528	-32.3433
 334	1	2	0.011094	-29.6022	-2.64412	-33.245
 335	1	2	-0.166666	-29.1025	-3.09658	-30.9443
 336	1	2	-0.004747	-28.9926	-1.32923	-32.6205
 337	1	2	0.045805	-28.2675	-1.85517	-31.3263
 338	1	2	-0.016724	-26.027	-1.93311	-38.0474
 339	1	2	-0.038268	-24.0851	-3.49481	-37.402
 340	1	2	0.015931	-26.8561	-3.16247	-38.4852
 341	1	2	0.006127	-24.9189	-4.71466	-37.8566
 342	1	2	-0.02901	-25.9577	-4.33545	-38.9335
 343	1	6	0.060706	-16.4751	4.25095	-34.0337
 344	1	6	0.109818	-18.2514	1.92481	-40.4877
 345	1	6	0.034398	-19.7694	0.145622	-34.3922
 346	1	6	0.029719	-17.6172	0.0123368	-37.988
 347	1	6	0.036789	-17.5281	0.384143	-35.4964
 348	1	6	0.059436	-20.5907	2.39124	-35.7769
 349	1	6	0.028349	-19.8826	-0.770962	-38.6553
 350	1	5	0.156131	-22.8932	0.536319	-33.9586
 351	1	6	0.059364	-20.7297	1.79046	-38.3139
 352	1	6	0.111824	-20.836	-1.43256	-36.2484
 353	1	6	0.047288	-19.0641	-1.63593	-36.2637
 354	1	5	0.182101	-22.9544	-0.951516	-38.753
 355	1	6	0.044359	-27.0956	-4.82419	-32.1716
 356	1	5	0.179067	-26.8195	-4.16559	-35.6283
 357	1	6	0.038058	-26.3538	-2.82632	-30.7879
 358	1	5	0.140142	-24.9304	-0.436918	-32.7245
 359	1	6	0.008074	-29.5515	-4.71144	-32.4224
 360	1	6	-0.001887	-29.4095	-2.75677	-34.3199
 361	1	6	0.034873	-28.6278	-3.70665	-30.1629
 362	1	6	0.057592	-30.1203	-2.85624	-30.6135
 363	1	6	0.004826	-28.3925	-0.724968	-33.3126
 364	1	6	0.004917	-28.1713	-1.10715	-30.5295
 365	1	6	0.011371	-25.5467	-1.51661	-38.9425
 366	1	6	0.016934	-26.6973	-1.15212	-37.6655
 367	1	6	0.017694	-23.4252	-3.78631	-36.5744
 368	1	6	0.024086	-23.4265	-3.22161	-38.2358
 369	1	6	0.001925	-27.5209	-2.87739	-39.3104
 370	1	6	-0.011831	-27.5055	-3.48735	-37.6646
 371	1	6	-0.015908	-25.4245	-5.16676	-36.9969
 372	1	6	0.008977	-24.2466	-5.48518	-38.2549
 373	1	6	0.008233	-25.4329	-4.0546	-39.856
 374	1	6	0.006802	-26.5783	-5.20809	-39.1733
 375	1	2	-0.163429	-16.7773	3.25911	-34.3927
 376	1	6	0.069136	-17.5321	2.86842	-33.699
 377	1	6	0.097616	-15.9009	2.60112	-34.3453
 378	1	2	-0.211261	-17.397	2.49763	-40.1067
 379	1	6	0.077702	-17.2506	3.35901	-40.7704
 380	1	6	0.070844	-16.5055	1.86213	-40.1748
 381	1	1	0.055893	-12.0244	17.6496	-33.9281
 382	1	1	0.066037	-11.617	16.901	-32.8407
 383	1	1	-0.13485	-10.7128	15.8269	-32.9285
 384	1	1	-0.112685	-10.1177	15.7408	-34.2009
 385	1	1	-0.113466	-11.5347	17.4697	-35.2338
 386	1	2	0.031197	-10.0127	13.3022	-35.4174
 387	1	1	-0.092412	-10.488	16.5279	-35.282
 388	1	3	0.085064	-9.82216	15.611	-36.3027
 389	1	3	0.073163	-9.41364	14.7019	-35.065
 390	1	3	-0.014897	-11.5443	13.5173	-35.2514
 391	1	2	0.044047	-10.596	14.6368	-37.243
 392	1	1	-0.216606	-12.5414	11.0747	-35.9096
 393	1	3	-0.029794	-11.936	14.4244	-36.4892
 394	1	2	-0.27828	-9.82618	13.3134	-36.9623
 395	1	1	0.002791	-12.7896	13.2605	-36.9478
 396	1	1	-0.015593	-12.457	12.4711	-35.872
 397	1	1	-0.275006	-13.2163	12.7434	-38.1764
 398	1	1	-0.00175	-13.4325	11.3465	-38.2088
 399	1	4	0.011736	-13.1234	10.5361	-37.0861
 400	1	2	0.056595	-13.8545	10.4906	-39.422
 401	1	3	-0.006078	-13.3365	5.20914	-38.8466
 402	1	4	0.009572	-13.2914	9.12932	-37.4696
 403	1	1	0.047642	-13.666	9.0786	-38.8393
 404	1	1	-0.203391	-13.7715	7.84858	-39.5375
 405	1	1	-0.073691	-13.5175	6.71844	-38.7525
 406	1	1	-0.02876	-13.239	6.77055	-37.4139
 407	1	3	0.009648	-13.0666	5.27412	-37.2759
 408	1	1	-0.19087	-13.071	7.95789	-36.6994
 409	1	2	0.036362	-14.5525	4.25785	-38.9541
 410	1	2	0.011094	-15.8459	4.96661	-38.4701
 411	1	2	-0.166666	-14.238	3.30918	-37.7726
 412	1	2	-0.004747	-15.6145	5.1104	-36.9157
 413	1	2	0.045805	-14.2246	4.42056	-36.6986
 414	1	2	-0.016724	-15.359	10.7272	-39.7696
 415	1	2	-0.038268	-12.9116	10.6915	-40.6472
 416	1	2	0.015931	-15.6105	11.2859	-41.1894
 417	1	2	0.006127	-13.1552	11.9848	-41.4689
 418	1	2	-0.02901	-14.6369	12.4328	-41.5234
 419	1	6	0.060706	-9.73151	14.0789	-32.0907
 420	1	6	0.109818	-13.2139	17.7855	-36.5692
 421	1	6	0.034398	-9.58425	12.4446	-34.8837
 422	1	6	0.029719	-8.96822	16.0531	-36.8276
 423	1	6	0.036789	-8.33209	14.6285	-34.9067
 424	1	6	0.059436	-11.8609	13.8436	-34.2576
 425	1	6	0.028349	-10.6744	14.9392	-38.2947
 426	1	5	0.156131	-12.123	10.4468	-35.13
 427	1	6	0.059364	-12.5161	15.329	-36.3012
 428	1	6	0.111824	-10.2757	12.4411	-37.4562
 429	1	6	0.047288	-8.7691	13.3753	-37.2546
 430	1	5	0.182101	-13.3101	13.3769	-39.0487
 431	1	6	0.044359	-12.4926	4.86327	-39.4536
 432	1	5	0.179067	-13.9975	7.78633	-40.5973
 433	1	6	0.038058	-12.084	4.92341	-36.9412
 434	1	5	0.140142	-12.7661	7.98207	-35.6583
 435	1	6	0.008074	-14.6553	3.75626	-39.9242
 436	1	6	-0.001887	-16.1027	5.90426	-38.9796
 437	1	6	0.034873	-13.2643	2.81046	-37.8791
 438	1	6	0.057592	-14.9993	2.53756	-37.6018
 439	1	6	0.004826	-15.7146	6.13417	-36.5329
 440	1	6	0.004917	-14.0599	4.06082	-35.6754
 441	1	6	0.011371	-15.7952	11.4225	-39.0402
 442	1	6	0.016934	-15.928	9.79471	-39.6611
 443	1	6	0.017694	-13.05	9.84601	-41.3326
 444	1	6	0.024086	-11.8622	10.6493	-40.3275
 445	1	6	0.001925	-16.6462	11.6408	-41.2663
 446	1	6	-0.011831	-15.4946	10.4825	-41.9284
 447	1	6	-0.015908	-12.7973	11.8112	-42.4919
 448	1	6	0.008977	-12.5411	12.8038	-41.0757
 449	1	6	0.008233	-14.8001	13.2502	-40.8099
 450	1	6	0.006802	-14.8636	12.8401	-42.5168
 451	1	2	-0.163429	-10.5264	14.7905	-31.8348
 452	1	6	0.069136	-10.2541	15.2689	-30.8858
 453	1	6	0.097616	-11.4494	14.2204	-31.6722
 454	1	2	-0.211261	-12.1684	18.0999	-36.4609
 455	1	6	0.077702	-12.1518	19.1944	-36.3878
 456	1	6	0.070844	-11.6339	17.8173	-37.3763
 457	1	1	0.055893	-14.3166	25.489	-20.4036
 458	1	1	0.066037	-13.7605	24.2321	-20.3311
 459	1	1	-0.13485	-12.5133	23.8746	-20.8686
 460	1	1	-0.112685	-11.9012	24.9712	-21.5068
 461	1	1	-0.113466	-13.8005	26.5255	-21.2039
 462	1	2	0.031197	-10.7215	24.5657	-23.9127
 463	1	1	-0.092412	-12.537	26.184	-21.725
 464	1	3	0.085064	-11.5551	26.6265	-22.8038
 465	1	3	0.073163	-10.8012	25.2532	-22.5209
 466	1	3	-0.014897	-12.1898	24.123	-24.1336
 467	1	2	0.044047	-11.8558	26.5641	-24.3398
 468	1	1	-0.216606	-12.0874	22.8067	-26.4964
 469	1	3	-0.029794	-12.9627	25.4748	-24.4475
 470	1	2	-0.27828	-10.5857	25.813	-24.8339
 471	1	1	0.002791	-13.2163	24.8638	-25.8224
 472	1	1	-0.015593	-12.5483	23.7015	-25.5323
 473	1	1	-0.275006	-13.5165	25.2609	-27.1334
 474	1	1	-0.00175	-13.1872	24.3089	-28.1327
 475	1	4	0.011736	-12.4878	23.1185	-27.8154
 476	1	2	0.056595	-13.4416	24.412	-29.6476
 477	1	3	-0.006078	-12.0564	20.172	-32.4898
 478	1	4	0.009572	-12.1895	22.4009	-29.0536
 479	1	1	0.047642	-12.7243	23.1323	-30.1431
 480	1	1	-0.203391	-12.674	22.5994	-31.4539
 481	1	1	-0.073691	-11.9604	21.3994	-31.5997
 482	1	1	-0.02876	-11.4654	20.6871	-30.5287
 483	1	3	0.009648	-11.5067	19.3531	-31.2506
 484	1	1	-0.19087	-11.6155	21.1165	-29.2087
 485	1	2	0.036362	-13.4547	19.5528	-32.7178
 486	1	2	0.011094	-13.3151	18.1039	-33.2656
 487	1	2	-0.166666	-13.9219	19.2251	-31.2796
 488	1	2	-0.004747	-12.8189	17.2825	-32.0012
 489	1	2	0.045805	-12.6762	18.3862	-30.913
 490	1	2	-0.016724	-14.9793	24.3721	-29.8924
 491	1	2	-0.038268	-12.7979	25.7066	-30.2208
 492	1	2	0.015931	-15.4175	24.7436	-31.3276
 493	1	2	0.006127	-13.2357	26.0343	-31.6667
 494	1	2	-0.02901	-14.7727	26.0609	-31.8075
 495	1	6	0.060706	-11.8336	22.116	-19.8022
 496	1	6	0.109818	-15.0245	28.2223	-20.6363
 497	1	6	0.034398	-9.95656	23.7876	-24.0273
 498	1	6	0.029719	-10.9677	27.5183	-22.5593
 499	1	6	0.036789	-9.80035	25.3764	-22.093
 500	1	6	0.059436	-12.601	23.4456	-23.3841
 501	1	6	0.028349	-12.0722	27.5218	-24.8295
 502	1	5	0.156131	-11.4445	21.9657	-26.2588
 503	1	6	0.059364	-13.87	25.6884	-23.8734
 504	1	6	0.111824	-10.6239	25.5634	-25.9032
 505	1	6	0.047288	-9.66458	26.3783	-24.6378
 506	1	5	0.182101	-13.9488	26.23	-27.3612
 507	1	6	0.044359	-11.4312	20.1932	-33.3892
 508	1	5	0.179067	-13.1962	23.0454	-32.2909
 509	1	6	0.038058	-10.5396	18.8534	-31.3737
 510	1	5	0.140142	-11.376	20.4818	-28.3618
 511	1	6	0.008074	-14.1505	20.1792	-33.2899
 512	1	6	-0.001887	-14.2313	17.6823	-33.6996
 513	1	6	0.034873	-14.8523	18.64	-31.2562
 514	1	6	0.057592	-14.059	20.1105	-30.6457
 515	1	6	0.004826	-13.4934	16.4552	-31.744
 516	1	6	0.004917	-12.6747	17.9988	-29.8864
 517	1	6	0.011371	-15.4629	25.0813	-29.208
 518	1	6	0.016934	-15.373	23.3807	-29.6324
 519	1	6	0.017694	-11.7037	25.6326	-30.1728
 520	1	6	0.024086	-13.0771	26.5584	-29.588
 521	1	6	0.001925	-16.5102	24.8408	-31.3587
 522	1	6	-0.011831	-15.1649	23.9342	-32.0204
 523	1	6	-0.015908	-12.8142	25.2993	-32.3618
 524	1	6	0.008977	-12.8259	27.0094	-31.9592
 525	1	6	0.008233	-15.1747	26.8948	-31.2173
 526	1	6	0.006802	-15.0476	26.2489	-32.8531
 527	1	2	-0.163429	-11.9443	22.468	-20.8352
 528	1	6	0.069136	-12.603	21.7664	-21.3617
 529	1	6	0.097616	-10.9568	22.4261	-21.3112
 530	1	2	-0.211261	-14.5446	27.8066	-21.5311
 531	1	6	0.077702	-13.8654	28.569	-21.9322
 532	1	6	0.070844	-15.3258	27.6234	-22.2792
 533	1	1	0.055893	-10.2902	18.7444	-4.12683
 534	1	1	0.066037	-10.2245	17.6418	-4.96745
 535	1	1	-0.13485	-10.5951	17.731	-6.32611
 536	1	1	-0.112685	-10.7885	19.0478	-6.7962
 537	1	1	-0.113466	-10.7209	20.0133	-4.54268
 538	1	2	0.031197	-11.2067	20.3121	-9.07623
 539	1	1	-0.092412	-10.8628	20.1358	-5.93122
 540	1	3	0.085064	-11.878	20.8747	-6.77785
 541	1	3	0.073163	-11.7754	19.6587	-7.78331
 542	1	3	-0.014897	-12.5128	21.0394	-9.50116
 543	1	2	0.044047	-11.3699	22.0955	-7.58564
 544	1	1	-0.216606	-12.6841	22.2445	-11.9287
 545	1	3	-0.029794	-12.6349	22.2472	-8.47205
 546	1	2	-0.27828	-10.3173	21.4714	-8.54476
 547	1	1	0.002791	-12.5296	23.1564	-9.6797
 548	1	1	-0.015593	-12.408	22.1145	-10.567
 549	1	1	-0.275006	-12.9714	24.435	-10.0459
 550	1	1	-0.00175	-13.1673	24.6355	-11.4348
 551	1	4	0.011736	-13.0035	23.5607	-12.3474
 552	1	2	0.056595	-13.6907	25.9001	-12.1601
 553	1	3	-0.006078	-14.2837	25.5085	-17.4615
 554	1	4	0.009572	-13.3774	24.0212	-13.6845
 555	1	1	0.047642	-13.7947	25.3755	-13.604
 556	1	1	-0.203391	-14.2002	26.1005	-14.7563
 557	1	1	-0.073691	-14.1562	25.3634	-15.9469
 558	1	1	-0.02876	-13.7086	24.0724	-16.0104
 559	1	3	0.009648	-13.7435	24.0111	-17.5127
 560	1	1	-0.19087	-13.3011	23.3209	-14.9118
 561	1	2	0.036362	-15.6899	25.3844	-18.1251
 562	1	2	0.011094	-15.5759	25.0846	-19.6586
 563	1	2	-0.166666	-16.1556	23.9883	-17.6524
 564	1	2	-0.004747	-14.9732	23.6116	-19.663
 565	1	2	0.045805	-14.905	23.2355	-18.1632
 566	1	2	-0.016724	-15.101	26.3443	-11.6698
 567	1	2	-0.038268	-12.6669	27.0691	-12.1002
 568	1	2	0.015931	-15.1043	27.1573	-10.3532
 569	1	2	0.006127	-12.667	27.8301	-10.7558
 570	1	2	-0.02901	-14.0823	28.3143	-10.3756
 571	1	6	0.060706	-10.503	15.6146	-6.79915
 572	1	6	0.109818	-10.7463	21.0137	-2.61671
 573	1	6	0.034398	-10.7538	19.6374	-9.81354
 574	1	6	0.029719	-12.835	21.051	-6.2725
 575	1	6	0.036789	-12.673	19.0536	-7.95691
 576	1	6	0.059436	-13.3715	20.3686	-9.62296
 577	1	6	0.028349	-11.059	22.9755	-7.00868
 578	1	5	0.156131	-12.7268	21.3931	-12.6001
 579	1	6	0.059364	-13.5665	22.3603	-7.9049
 580	1	6	0.111824	-9.99912	22.1633	-9.33592
 581	1	6	0.047288	-9.42343	21.112	-8.01827
 582	1	5	0.182101	-13.1985	25.1853	-9.29953
 583	1	6	0.044359	-13.6628	26.2903	-17.9124
 584	1	5	0.179067	-14.4872	27.1469	-14.7266
 585	1	6	0.038058	-12.7702	23.826	-17.9789
 586	1	5	0.140142	-12.9213	22.308	-14.9963
 587	1	6	0.008074	-16.3861	26.1977	-17.8845
 588	1	6	-0.001887	-16.5114	25.1616	-20.2282
 589	1	6	0.034873	-17.0813	23.6581	-18.1451
 590	1	6	0.057592	-16.2982	23.9179	-16.5662
 591	1	6	0.004826	-15.5522	22.9238	-20.2932
 592	1	6	0.004917	-14.9089	22.1552	-17.9721
 593	1	6	0.011371	-15.7528	25.4674	-11.5632
 594	1	6	0.016934	-15.5606	26.9739	-12.4424
 595	1	6	0.017694	-12.8988	27.7914	-12.8934
 596	1	6	0.024086	-11.6576	26.6926	-12.3116
 597	1	6	0.001925	-14.8981	26.4992	-9.50317
 598	1	6	-0.011831	-16.1088	27.5647	-10.1825
 599	1	6	-0.015908	-11.9928	28.6931	-10.826
 600	1	6	0.008977	-12.2684	27.1883	-9.9617
 601	1	6	0.008233	-14.0557	28.8048	-9.39427
 602	1	6	0.006802	-14.4104	29.0705	-11.1007
 603	1	2	-0.163429	-11.0302	16.5185	-7.12929
 604	1	6	0.069136	-12.107	16.3415	-7.01822
 605	1	6	0.097616	-10.8172	16.6573	-8.1966
 606	1	2	-0.211261	-11.2767	21.0448	-3.57669
 607	1	6	0.077702	-11.1739	22.0595	-3.98101
 608	1	6	0.070844	-12.3408	20.8637	-3.38107
 609	1	1	0.055893	-0.311509	8.94482	5.88477
 610	1	1	0.066037	-0.282505	7.95583	4.92402
 611	1	1	-0.13485	-1.28852	7.77212	3.94803
 612	1	1	-0.112685	-2.28373	8.77036	4.0353
 613	1	1	-0.113466	-1.40283	9.79238	6.1123
 614	1	2	0.031197	-3.87277	10.1097	2.37895
 615	1	1	-0.092412	-2.3682	9.63869	5.10862
 616	1	3	0.085064	-3.80416	10.0011	4.84465
 617	1	3	0.073163	-3.70273	9.07671	3.55096
 618	1	3	-0.014897	-5.40579	10.3685	2.51579
 619	1	2	0.044047	-4.03886	11.4174	4.30299