pySIMM System Object

3806 atoms
4402 bonds
9114 angles
16708 dihedrals
294 impropers

6 atom types
11 bond types
24 angle types
21 dihedral types
2 improper types

-217.572688 217.572688 xlo xhi
-217.572688 217.572688 ylo yhi
-217.572688 217.572688 zlo zhi

Masses

   1	12.01	# ca
   2	12.01	# c3
   3	12.01	# cy
   4	12.01	# cp
   5	1.008	# ha
   6	1.008	# hc

Pair Coeffs

   1	0.086	3.3996695084235347	# ca
   2	0.1094	3.3996695084235347	# c3
   3	0.086	3.3996695084235347	# cy
   4	0.086	3.3996695084235347	# cp
   5	0.015	2.59964245953351	# ha
   6	0.0157	2.649532787749369	# hc

Bond Coeffs

   1	321.2	1.5154	# ca,cy
   2	461.1	1.3984	# ca,ca
   3	345.8	1.086	# ca,ha
   4	300.9	1.5375	# c3,c3
   5	305.9	1.5319	# c3,cy
   6	450.2	1.4058	# ca,cp
   7	351.4	1.4854	# cp,cp
   8	321.0	1.5156	# c3,ca
   9	330.6	1.0969	# c3,hc
  10	333.3	1.0949	# cy,hc
  11	285.0	1.5562	# cy,cy

Angle Coeffs

   1	66.72	118.38	# ca,cp,ca
   2	46.8	110.47	# ca,c3,hc
   3	62.86	111.51	# c3,c3,c3
   4	46.43	110.14	# c3,cy,hc
   5	63.43	120.63	# c3,ca,cp
   6	63.56	112.24	# ca,c3,ca
   7	64.05	121.11	# ca,cp,cp
   8	66.62	120.02	# ca,ca,ca
   9	47.98	119.86	# cp,ca,ha
  10	39.4	107.58	# hc,c3,hc
  11	63.53	120.77	# c3,ca,ca
  12	63.51	120.86	# ca,ca,cy
  13	62.8	113.57	# c3,cy,ca
  14	67.9	96.03	# cy,c3,cy
  15	61.4	116.81	# ca,cy,cy
  16	63.15	112.07	# c3,c3,ca
  17	45.97	114.53	# ca,cy,hc
  18	66.26	120.69	# ca,ca,cp
  19	46.34	109.8	# c3,c3,hc
  20	48.18	119.88	# ca,ca,ha
  21	62.73	112.39	# c3,c3,cy
  22	46.29	110.75	# cy,c3,hc
  23	44.83	114.79	# cy,cy,hc
  24	60.66	118.7	# c3,cy,cy

Dihedral Coeffs

   1	1	0.15555555555555556	3	0	# X,cy,cy,X
   2	1	3.625	2	180	# X,ca,cp,X
   3	3	0.18	3	0	0.25	2	180	0.2	1	180	# c3,c3,c3,c3
   4	1	0.16	3	0	# hc,c3,c3,c3
   5	1	0.0	2	0.0	# ca,ca,cy,cy
   6	1	1.0	2	180	# X,cp,cp,X
   7	1	0.0	2	0.0	# ca,ca,cy,c3
   8	3	0.38	3	180.0	0.0	2	0.0	1.15	1	0.0	# ca,ca,cy,hc
   9	1	0.0	2	0	# X,c3,ca,X
  10	1	0.16	3	0.0	# cy,c3,cy,ca
  11	1	0.15555555555555556	3	0	# X,c3,c3,X
  12	1	0.16	3	0.0	# c3,c3,cy,ca
  13	1	0.16	3	0.0	# hc,c3,cy,ca
  14	3	0.18	3	0.0	0.25	2	180.0	0.2	1	180.0	# cy,c3,cy,cy
  15	1	0.15	3	0	# hc,c3,c3,hc
  16	3	0.18	3	0.0	0.25	2	180.0	0.2	1	180.0	# c3,c3,cy,cy
  17	1	0.16	3	0.0	# hc,c3,cy,cy
  18	1	0.16	3	0.0	# cy,c3,cy,hc
  19	1	0.16	3	0.0	# c3,c3,cy,hc
  20	1	0.15	3	0.0	# hc,c3,cy,hc
  21	1	3.625	2	180	# X,ca,ca,X

Improper Coeffs

   1	1.1	-1	2	# ca,ca,ca,c3
   2	1.1	-1	2	# ca,X,X,ha

Atoms

   1	1	1	0.055893	1.90995	-3.1389	43.2714
   2	1	1	0.066037	2.11505	-3.11774	41.905
   3	1	1	-0.13485	1.37492	-2.3214	41.0107
   4	1	1	-0.112685	0.50732	-1.43956	41.6845
   5	1	1	-0.113466	0.888163	-2.41756	43.915
   6	1	2	0.031197	-2.03936	-1.11104	40.7517
   7	1	1	-0.092412	0.264067	-1.5032	43.0477
   8	1	3	0.085064	-1.01406	-0.681925	42.9651
   9	1	3	0.073163	-0.725551	-0.585602	41.4047
  10	1	3	-0.014897	-1.97639	-2.63499	41.0311
  11	1	2	0.044047	-2.4519	-1.28583	43.0431
  12	1	1	-0.216606	-4.30926	-3.33627	39.8963
  13	1	3	-0.029794	-2.25288	-2.75996	42.5824
  14	1	2	-0.27828	-3.08385	-0.609894	41.792
  15	1	1	0.002791	-3.51065	-3.523	42.1885
  16	1	1	-0.015593	-3.27214	-3.3975	40.835
  17	1	1	-0.275006	-4.80229	-3.64923	42.7229
  18	1	1	-0.00175	-5.85482	-3.75071	41.7822
  19	1	4	0.011736	-5.60941	-3.58023	40.4002
  20	1	2	0.056595	-7.36481	-3.83439	42.0798
  21	1	3	-0.006078	-10.5809	-2.6533	37.9842
  22	1	4	0.009572	-6.89806	-3.47105	39.7083
  23	1	1	0.047642	-7.94451	-3.63011	40.6595
  24	1	1	-0.203391	-9.30443	-3.47421	40.2814
  25	1	1	-0.073691	-9.50794	-3.17222	38.9301
  26	1	1	-0.02876	-8.49254	-2.98644	38.0334
  27	1	3	0.009648	-9.39671	-2.44345	36.9446
  28	1	1	-0.19087	-7.14206	-3.10705	38.3581
  29	1	2	0.036362	-11.5139	-3.6378	37.2368
  30	1	2	0.011094	-10.8977	-5.05576	37.125
  31	1	2	-0.166666	-11.3345	-3.15549	35.7839
  32	1	2	-0.004747	-9.71894	-4.85535	36.1346
  33	1	2	0.045805	-9.80664	-3.35221	35.7632
  34	1	2	-0.016724	-7.69373	-5.23571	42.6633
  35	1	2	-0.038268	-7.78416	-2.70012	43.0646
  36	1	2	0.015931	-9.13738	-5.36831	43.1956
  37	1	2	0.006127	-9.20739	-2.84571	43.656
  38	1	2	-0.02901	-9.47201	-4.26043	44.2168
  39	1	6	0.060706	1.08349	-3.49722	39.2134
  40	1	6	0.109818	-0.0452594	-3.69452	45.3951
  41	1	6	0.034398	-2.21264	-0.816977	39.7089
  42	1	6	0.029719	-0.974259	0.282348	43.4835
  43	1	6	0.036789	-0.50754	0.430357	41.0578
  44	1	6	0.059436	-1.10308	-3.14792	40.6218
  45	1	6	0.028349	-2.98482	-1.14277	43.9914
  46	1	5	0.156131	-4.13961	-3.02151	38.8722
  47	1	6	0.059364	-1.54566	-3.34062	43.1812
  48	1	6	0.111824	-4.10405	-0.959274	41.5837
  49	1	6	0.047288	-3.10014	0.485508	41.8724
  50	1	5	0.182101	-4.98234	-3.58676	43.7909
  51	1	6	0.044359	-11.1097	-1.74714	38.2996
  52	1	5	0.179067	-10.1307	-3.52434	40.9788
  53	1	6	0.038058	-9.2124	-1.41132	36.6271
  54	1	5	0.140142	-6.34683	-2.88345	37.6546
  55	1	6	0.008074	-12.5532	-3.63016	37.5825
  56	1	6	-0.001887	-10.5804	-5.45456	38.0953
  57	1	6	0.034873	-11.6329	-2.10755	35.6422
  58	1	6	0.057592	-11.8602	-3.78762	35.0541
  59	1	6	0.004826	-8.75293	-5.12185	36.573
  60	1	6	0.004917	-9.32696	-3.10477	34.8079
  61	1	6	0.011371	-7.00631	-5.44462	43.4935
  62	1	6	0.016934	-7.50613	-6.00821	41.9103
  63	1	6	0.017694	-7.68624	-1.72352	42.5729
  64	1	6	0.024086	-7.08793	-2.68565	43.9116
  65	1	6	0.001925	-9.25816	-6.34887	43.6725
  66	1	6	-0.011831	-9.84972	-5.33637	42.3629
  67	1	6	-0.015908	-9.95885	-2.60123	42.8992
  68	1	6	0.008977	-9.34107	-2.10895	44.4583
  69	1	6	0.008233	-8.86154	-4.40845	45.1172
  70	1	6	0.006802	-10.5212	-4.34647	44.5268
  71	1	2	-0.163429	1.41327	-2.49169	39.5027
  72	1	6	0.069136	0.761239	-1.76534	39.002
  73	1	6	0.097616	2.43139	-2.34762	39.1205
  74	1	2	-0.211261	0.418563	-2.70235	45.3299
  75	1	6	0.077702	1.26	-2.6765	46.0333
  76	1	6	0.070844	-0.319695	-1.96204	45.6621
  77	1	1	0.055893	-6.80551	-6.8252	37.2307
  78	1	1	0.066037	-5.55194	-7.1374	36.0982
  79	1	1	-0.13485	-4.29481	-8.19707	36.1109
  80	1	1	-0.112685	-4.14085	-9.33034	37.2375
  81	1	1	-0.113466	-7.04979	-7.87657	38.376
  82	1	2	0.031197	-2.14665	-10.9161	38.1805
  83	1	1	-0.092412	-5.19671	-9.42539	38.4053
  84	1	3	0.085064	-4.58358	-10.8304	38.7586
  85	1	3	0.073163	-3.54592	-10.6936	37.5316
  86	1	3	-0.014897	-1.94088	-9.61416	38.9991
  87	1	2	0.044047	-3.64312	-11.141	39.9659
  88	1	1	-0.216606	0.447134	-9.1321	40.2339
  89	1	3	-0.029794	-2.94803	-9.78819	40.215
  90	1	2	-0.27828	-2.52524	-11.9671	39.2637
  91	1	1	0.002791	-1.71899	-9.81806	41.0955
  92	1	1	-0.015593	-0.846155	-9.63484	40.053
  93	1	1	-0.275006	-1.39768	-9.5901	42.4355
  94	1	1	-0.00175	-0.0553702	-9.21232	42.6662
  95	1	4	0.011736	0.840211	-8.97447	41.5898
  96	1	2	0.056595	0.56904	-8.82666	44.0171
  97	1	3	-0.006078	4.79243	-5.80395	43.774
  98	1	4	0.009572	2.0716	-8.38777	42.1381
  99	1	1	0.047642	1.93778	-8.30904	43.5471
 100	1	1	-0.203391	2.87931	-7.61476	44.336
 101	1	1	-0.073691	3.96401	-7.06652	43.6426
 102	1	1	-0.02876	4.08206	-7.1119	42.2689
 103	1	3	0.009648	4.9533	-5.86234	42.1961
 104	1	1	-0.19087	3.1272	-7.73331	41.4529
 105	1	2	0.036362	4.08594	-4.44303	44.0054
 106	1	2	0.011094	2.62095	-4.46205	43.4603
 107	1	2	-0.166666	4.82425	-3.61676	42.9273
 108	1	2	-0.004747	2.82304	-4.46201	41.8917
 109	1	2	0.045805	4.37017	-4.49564	41.7379
 110	1	2	-0.016724	-0.26078	-7.69305	44.7039
 111	1	2	-0.038268	0.747278	-10.0729	44.9337
 112	1	2	0.015931	-0.194458	-7.73652	46.2473
 113	1	2	0.006127	-0.452927	-10.2937	45.881
 114	1	2	-0.02901	-0.695172	-9.08559	46.8211
 115	1	6	0.060706	-3.3623	-8.9401	34.3049
 116	1	6	0.109818	-8.49574	-6.23292	38.8778
 117	1	6	0.034398	-1.33386	-11.1924	37.497
 118	1	6	0.029719	-5.24732	-11.6917	38.6609
 119	1	6	0.036789	-3.69271	-11.4215	36.7264
 120	1	6	0.059436	-1.94979	-8.70357	38.3929
 121	1	6	0.028349	-4.11335	-11.6097	40.8397
 122	1	5	0.156131	1.07207	-8.81785	39.4046
 123	1	6	0.059364	-3.626	-8.98552	40.4871
 124	1	6	0.111824	-1.6887	-12.2136	39.9318
 125	1	6	0.047288	-2.9086	-12.8987	38.8255
 126	1	5	0.182101	-2.14557	-9.62253	43.2208
 127	1	6	0.044359	5.72793	-5.89049	44.3379
 128	1	5	0.179067	2.70783	-7.39373	45.383
 129	1	6	0.038058	5.98044	-6.01034	41.8449
 130	1	5	0.140142	3.12025	-7.6066	40.3752
 131	1	6	0.008074	4.17614	-4.0456	45.0241
 132	1	6	-0.001887	1.96059	-5.24752	43.8398
 133	1	6	0.034873	5.91494	-3.62124	43.0634
 134	1	6	0.057592	4.49099	-2.57264	42.8632
 135	1	6	0.004826	2.2628	-5.23876	41.3592
 136	1	6	0.004917	4.72452	-4.14927	40.759
 137	1	6	0.011371	-1.31753	-7.77525	44.4224
 138	1	6	0.016934	0.0651597	-6.70974	44.3418
 139	1	6	0.017694	1.64767	-9.95109	45.5501
 140	1	6	0.024086	0.913505	-10.9698	44.3227
 141	1	6	0.001925	-0.784615	-6.91407	46.6712
 142	1	6	-0.011831	0.839333	-7.57266	46.5719
 143	1	6	-0.015908	-0.296861	-11.1999	46.4798
 144	1	6	0.008977	-1.35381	-10.4704	45.2809
 145	1	6	0.008233	-1.76929	-9.01799	47.0364
 146	1	6	0.006802	-0.196907	-9.2627	47.783
 147	1	2	-0.163429	-3.24678	-8.11536	35.0186
 148	1	6	0.069136	-3.32609	-7.17253	34.4636
 149	1	6	0.097616	-2.23682	-8.17246	35.4428
 150	1	2	-0.211261	-8.36754	-7.29814	39.1107
 151	1	6	0.077702	-9.30741	-7.74165	38.7659
 152	1	6	0.070844	-8.32108	-7.286	40.2035
 153	1	1	0.055893	-20.0286	-9.99397	38.5033
 154	1	1	0.066037	-19.7032	-10.3691	37.2053
 155	1	1	-0.13485	-18.8937	-11.4881	36.9231
 156	1	1	-0.112685	-18.6683	-12.3069	38.0431
 157	1	1	-0.113466	-19.6797	-10.7447	39.642
 158	1	2	0.031197	-16.0897	-13.0924	38.5463
 159	1	1	-0.092412	-19.0692	-11.973	39.3268
 160	1	3	0.085064	-18.1091	-12.9594	39.984
 161	1	3	0.073163	-17.6377	-13.3297	38.5141
 162	1	3	-0.014897	-15.9569	-11.5446	38.6016
 163	1	2	0.044047	-16.7908	-12.5538	40.709
 164	1	1	-0.216606	-13.2614	-10.9579	38.689
 165	1	3	-0.029794	-16.4518	-11.1844	40.066
 166	1	2	-0.27828	-15.7862	-13.5174	40.0128
 167	1	1	0.002791	-15.0542	-10.6675	40.3037
 168	1	1	-0.015593	-14.6158	-10.9692	39.0438
 169	1	1	-0.275006	-14.2168	-10.3298	41.367
 170	1	1	-0.00175	-12.8532	-10.1861	41.022
 171	1	4	0.011736	-12.388	-10.489	39.7106
 172	1	2	0.056595	-11.6968	-9.75921	41.9459
 173	1	3	-0.006078	-6.76473	-9.41223	40.0521
 174	1	4	0.009572	-10.9283	-10.2923	39.6837
 175	1	1	0.047642	-10.5175	-9.8797	40.975
 176	1	1	-0.203391	-9.17186	-9.58521	41.2765
 177	1	1	-0.073691	-8.26748	-9.72175	40.2198
 178	1	1	-0.02876	-8.67439	-10.1175	38.9168
 179	1	3	0.009648	-7.33677	-10.143	38.173
 180	1	1	-0.19087	-10.0083	-10.429	38.6112
 181	1	2	0.036362	-5.59926	-7.63439	39.8572
 182	1	2	0.011094	-6.00767	-6.91773	38.1051
 183	1	2	-0.166666	-4.80755	-7.2842	38.2841
 184	1	2	-0.004747	-6.5499	-7.74811	36.2728
 185	1	2	0.045805	-6.40686	-9.04221	36.6407
 186	1	2	-0.016724	-11.8256	-8.2796	42.4064
 187	1	2	-0.038268	-11.4916	-10.7234	43.1517
 188	1	2	0.015931	-12.8146	-8.0653	43.5731
 189	1	2	0.006127	-12.4503	-10.481	44.3417
 190	1	2	-0.02901	-12.4986	-8.99587	44.7629
 191	1	6	0.060706	-18.8519	-11.6112	34.76
 192	1	6	0.109818	-19.4113	-10.9137	41.794
 193	1	6	0.034398	-15.5068	-13.5982	37.7663
 194	1	6	0.029719	-18.5958	-13.7857	40.5134
 195	1	6	0.036789	-17.858	-14.3639	38.2281
 196	1	6	0.059436	-16.414	-11.0118	37.7643
 197	1	6	0.028349	-16.8117	-12.5822	41.8056
 198	1	5	0.156131	-12.9087	-11.2926	37.7196
 199	1	6	0.059364	-17.2074	-10.4081	40.1765
 200	1	6	0.111824	-14.7428	-13.3361	40.3052
 201	1	6	0.047288	-16.024	-14.5735	40.1989
 202	1	5	0.182101	-14.6049	-10.1828	42.3664
 203	1	6	0.044359	-6.20226	-10.0977	40.6955
 204	1	5	0.179067	-8.85605	-9.2416	42.2563
 205	1	6	0.038058	-7.12878	-11.195	37.9609
 206	1	5	0.140142	-10.3186	-10.7467	37.6212
 207	1	6	0.008074	-5.68772	-6.83411	40.6026
 208	1	6	-0.001887	-6.21381	-5.78002	38.2866
 209	1	6	0.034873	-3.81702	-7.62151	38.6689
 210	1	6	0.057592	-4.07777	-6.39842	37.9859
 211	1	6	0.004826	-7.34182	-7.57429	35.4409
 212	1	6	0.004917	-6.06416	-9.67471	35.7959
 213	1	6	0.011371	-12.1045	-7.64768	41.5547
 214	1	6	0.016934	-10.844	-7.9231	42.7395
 215	1	6	0.017694	-10.468	-10.6065	43.5296
 216	1	6	0.024086	-11.5759	-11.765	42.8153
 217	1	6	0.001925	-13.842	-8.2349	43.2338
 218	1	6	-0.011831	-12.7657	-7.01997	43.9036
 219	1	6	-0.015908	-12.1265	-11.089	45.1959
 220	1	6	0.008977	-13.4581	-10.8269	44.09
 221	1	6	0.008233	-13.2495	-8.85817	45.5511
 222	1	6	0.006802	-11.5293	-8.71197	45.1932
 223	1	2	-0.163429	-18.1559	-11.6604	35.6064
 224	1	6	0.069136	-17.4045	-10.8723	35.4701
 225	1	6	0.097616	-17.641	-12.6279	35.5604
 226	1	2	-0.211261	-19.7556	-10.1826	41.0522
 227	1	6	0.077702	-19.1371	-9.282	41.1527
 228	1	6	0.070844	-20.7874	-9.91017	41.306
 229	1	1	0.055893	-10.2874	-13.2344	33.9568
 230	1	1	0.066037	-11.1411	-13.2331	32.8663
 231	1	1	-0.13485	-11.616	-12.0475	32.2746
 232	1	1	-0.112685	-11.3605	-10.9061	33.0524
 233	1	1	-0.113466	-9.8606	-12.0563	34.6016
 234	1	2	0.031197	-12.2054	-8.3428	33.0335
 235	1	1	-0.092412	-10.5608	-10.9086	34.1877
 236	1	3	0.085064	-10.2375	-9.42147	34.0803
 237	1	3	0.073163	-11.1263	-9.42966	32.7691
 238	1	3	-0.014897	-13.1032	-9.03784	34.0878
 239	1	2	0.044047	-10.9099	-8.33036	34.9778
 240	1	1	-0.216606	-15.3151	-7.55103	34.6773
 241	1	3	-0.029794	-12.2345	-9.01219	35.4236
 242	1	2	-0.27828	-11.383	-7.33247	33.8807
 243	1	1	0.002791	-13.3343	-8.11296	35.979
 244	1	1	-0.015593	-14.0641	-8.13987	34.8249
 245	1	1	-0.275006	-13.7746	-7.49696	37.1595
 246	1	1	-0.00175	-15.0454	-6.86498	37.0591
 247	1	4	0.011736	-15.7801	-6.89083	35.8411
 248	1	2	0.056595	-15.8835	-6.19355	38.1749
 249	1	3	-0.006078	-20.9911	-6.33897	37.3032
 250	1	4	0.009572	-17.1078	-6.32121	36.0688
 251	1	1	0.047642	-17.2115	-5.94725	37.4268
 252	1	1	-0.203391	-18.471	-5.6535	38.0045
 253	1	1	-0.073691	-19.5852	-5.75133	37.1539
 254	1	1	-0.02876	-19.4686	-6.13309	35.8288
 255	1	3	0.009648	-20.8191	-6.81806	35.8042
 256	1	1	-0.19087	-18.2422	-6.44397	35.2356
 257	1	2	0.036362	-21.2508	-7.67385	38.0643
 258	1	2	0.011094	-19.9499	-8.50965	38.1884
 259	1	2	-0.166666	-22.0158	-8.45762	36.9726
 260	1	2	-0.004747	-19.6587	-8.9409	36.7037
 261	1	2	0.045805	-20.8884	-8.36559	35.9205
 262	1	2	-0.016724	-16.1199	-7.14271	39.3921
 263	1	2	-0.038268	-15.2876	-4.82472	38.6069
 264	1	2	0.015931	-14.9699	-7.18213	40.4238
 265	1	2	0.006127	-14.1092	-4.93986	39.5985
 266	1	2	-0.02901	-14.4991	-5.77267	40.833
 267	1	6	0.060706	-11.3322	-11.745	30.149
 268	1	6	0.109818	-8.52354	-10.9942	35.9184
 269	1	6	0.034398	-12.7162	-7.9391	32.1503
 270	1	6	0.029719	-9.17756	-9.18802	33.9304
 271	1	6	0.036789	-10.5923	-9.21727	31.8365
 272	1	6	0.059436	-13.5545	-9.98076	33.7597
 273	1	6	0.028349	-10.2871	-7.9163	35.7808
 274	1	5	0.156131	-15.9024	-7.63914	33.7697
 275	1	6	0.059364	-12.0921	-9.94624	35.9747
 276	1	6	0.111824	-11.9943	-6.51191	34.2801
 277	1	6	0.047288	-10.5436	-6.9045	33.3161
 278	1	5	0.182101	-13.1982	-7.54815	38.0757
 279	1	6	0.044359	-21.7977	-5.61523	37.4635
 280	1	5	0.179067	-18.5966	-5.54503	39.0764
 281	1	6	0.038058	-21.5575	-6.41725	35.101
 282	1	5	0.140142	-18.1905	-6.96568	34.2857
 283	1	6	0.008074	-21.7973	-7.56626	39.0096
 284	1	6	-0.001887	-19.1114	-8.02499	38.6977
 285	1	6	0.034873	-22.9367	-7.94902	36.6544
 286	1	6	0.057592	-22.2706	-9.48668	37.258
 287	1	6	0.004826	-18.6654	-8.67112	36.3367
 288	1	6	0.004917	-21.1005	-8.88773	34.9792
 289	1	6	0.011371	-16.3352	-8.15854	39.0362
 290	1	6	0.016934	-17.0116	-6.81991	39.9402
 291	1	6	0.017694	-16.0758	-4.22973	39.0867
 292	1	6	0.024086	-14.9723	-4.25962	37.7203
 293	1	6	0.001925	-14.1237	-7.74609	40.0209
 294	1	6	-0.011831	-15.3092	-7.72086	41.3165
 295	1	6	-0.015908	-13.7951	-3.93717	39.9151
 296	1	6	0.008977	-13.2462	-5.40223	39.1052
 297	1	6	0.008233	-13.6455	-5.84393	41.5174
 298	1	6	0.006802	-15.3035	-5.26291	41.3791
 299	1	2	-0.163429	-12.142	-11.9723	30.8531
 300	1	6	0.069136	-12.5992	-12.9221	30.5488
 301	1	6	0.097616	-12.904	-11.1889	30.7573
 302	1	2	-0.211261	-8.61455	-11.9838	35.4601
 303	1	6	0.077702	-8.64092	-12.7312	36.2627
 304	1	6	0.070844	-7.71164	-12.1534	34.8617
 305	1	1	0.055893	-12.5374	-28.7555	28.4537
 306	1	1	0.066037	-13.3536	-27.9716	27.6546
 307	1	1	-0.13485	-13.0326	-26.6371	27.3272
 308	1	1	-0.112685	-11.97	-26.109	28.0866
 309	1	1	-0.113466	-11.349	-28.2868	29.0395
 310	1	2	0.031197	-10.7431	-23.6952	28.4329
 311	1	1	-0.092412	-11.1768	-26.8997	28.9126
 312	1	3	0.085064	-9.95677	-26.0115	28.758
 313	1	3	0.073163	-10.8417	-25.1181	27.7992
 314	1	3	-0.014897	-11.6386	-23.8269	29.691
 315	1	2	0.044047	-9.48986	-25.0329	29.8744
 316	1	1	-0.216606	-11.2689	-21.3598	30.7289
 317	1	3	-0.029794	-10.8053	-24.758	30.6633
 318	1	2	-0.27828	-9.3035	-23.745	29.0232
 319	1	1	0.002791	-10.7775	-23.5731	31.6093
 320	1	1	-0.015593	-11.474	-22.7475	30.7503
 321	1	1	-0.275006	-9.86463	-23.097	32.5582
 322	1	1	-0.00175	-9.7663	-21.6922	32.6661
 323	1	4	0.011736	-10.4434	-20.8425	31.76
 324	1	2	0.056595	-8.80318	-20.908	33.5731
 325	1	3	-0.006078	-7.93699	-15.8929	32.2089
 326	1	4	0.009572	-9.96668	-19.4683	31.9746
 327	1	1	0.047642	-9.02558	-19.4762	33.0396
 328	1	1	-0.203391	-8.30616	-18.3065	33.3831
 329	1	1	-0.073691	-8.64296	-17.1569	32.6618
 330	1	1	-0.02876	-9.52068	-17.1625	31.6036
 331	1	3	0.009648	-8.9415	-15.9039	30.9783
 332	1	1	-0.19087	-10.1845	-18.3163	31.1746
 333	1	2	0.036362	-8.24495	-14.5427	32.9021
 334	1	2	0.011094	-9.65067	-14.5641	33.58
 335	1	2	-0.166666	-8.49988	-13.6866	31.6403
 336	1	2	-0.004747	-10.6355	-14.5668	32.3457
 337	1	2	0.045805	-9.67478	-14.5488	31.1212
 338	1	2	-0.016724	-9.24368	-21.0591	35.0554
 339	1	2	-0.038268	-7.34227	-21.4112	33.3506
 340	1	2	0.015931	-8.21247	-20.5159	36.0701
 341	1	2	0.006127	-6.31378	-20.9285	34.401
 342	1	2	-0.02901	-6.81385	-21.1299	35.8476
 343	1	6	0.060706	-14.6077	-26.2768	25.8784
 344	1	6	0.109818	-9.7181	-28.766	30.3846
 345	1	6	0.034398	-10.9662	-22.8519	27.7674
 346	1	6	0.029719	-9.09133	-26.4922	28.2887
 347	1	6	0.036789	-10.516	-25.0868	26.7538
 348	1	6	0.059436	-12.6788	-24.1018	29.4831
 349	1	6	0.028349	-8.62472	-25.3535	30.4682
 350	1	5	0.156131	-11.6443	-20.7352	29.9251
 351	1	6	0.059364	-11.2966	-25.6462	31.0753
 352	1	6	0.111824	-9.05176	-22.8635	29.6281
 353	1	6	0.047288	-8.53775	-23.8657	28.2449
 354	1	5	0.182101	-9.21914	-23.7702	33.1128
 355	1	6	0.044359	-6.87256	-15.9931	31.9693
 356	1	5	0.179067	-7.49489	-18.2984	34.0989
 357	1	6	0.038058	-8.49281	-16.0204	29.9856
 358	1	5	0.140142	-10.7538	-18.3495	30.2514
 359	1	6	0.008074	-7.44191	-14.1709	33.5498
 360	1	6	-0.001887	-9.82763	-15.3689	34.305
 361	1	6	0.034873	-7.64297	-13.6811	30.9521
 362	1	6	0.057592	-8.77108	-12.6453	31.857
 363	1	6	0.004826	-11.3856	-15.368	32.3625
 364	1	6	0.004917	-10.1362	-14.1789	30.1972
 365	1	6	0.011371	-9.40354	-22.1233	35.2727
 366	1	6	0.016934	-10.211	-20.5636	35.2104
 367	1	6	0.017694	-7.00102	-21.1331	32.3449
 368	1	6	0.024086	-7.33207	-22.5071	33.3811
 369	1	6	0.001925	-8.55132	-20.7408	37.0893
 370	1	6	-0.011831	-8.15348	-19.4238	35.9963
 371	1	6	-0.015908	-6.06894	-19.8748	34.237
 372	1	6	0.008977	-5.37391	-21.4782	34.2638
 373	1	6	0.008233	-6.85431	-22.2047	36.0677
 374	1	6	0.006802	-6.09773	-20.6876	36.5517
 375	1	2	-0.163429	-13.5941	-25.9261	26.1095
 376	1	6	0.069136	-13.6451	-24.8428	26.2751
 377	1	6	0.097616	-12.9652	-26.1047	25.2287
 378	1	2	-0.211261	-10.2434	-29.2053	29.5275
 379	1	6	0.077702	-10.645	-30.176	29.8445
 380	1	6	0.070844	-9.50709	-29.3861	28.7349
 381	1	1	0.055893	-24.9183	-38.3264	24.1346
 382	1	1	0.066037	-25.2125	-37.1354	23.5005
 383	1	1	-0.13485	-24.2422	-36.3207	22.8792
 384	1	1	-0.112685	-22.9344	-36.7814	23.1274
 385	1	1	-0.113466	-23.6268	-38.8701	24.2415
 386	1	2	0.031197	-20.4341	-35.6976	23.0488
 387	1	1	-0.092412	-22.6531	-37.9794	23.765
 388	1	3	0.085064	-21.2222	-38.0318	23.2673
 389	1	3	0.073163	-21.5385	-36.6661	22.5174
 390	1	3	-0.014897	-20.9105	-35.408	24.4961
 391	1	2	0.044047	-20.0124	-37.6917	24.1858
 392	1	1	-0.216606	-18.8804	-33.8255	25.3387
 393	1	3	-0.029794	-20.6533	-36.7689	25.2656
 394	1	2	-0.27828	-19.2571	-36.6936	23.2631
 395	1	1	0.002791	-19.6877	-35.9811	26.1265
 396	1	1	-0.015593	-19.8844	-34.8003	25.4414
 397	1	1	-0.275006	-18.5059	-36.2841	26.8107
 398	1	1	-0.00175	-17.5485	-35.249	26.8634
 399	1	4	0.011736	-17.7246	-34.0481	26.1312
 400	1	2	0.056595	-16.1494	-35.334	27.491
 401	1	3	-0.006078	-12.6512	-31.7288	25.8695
 402	1	4	0.009572	-16.4626	-33.2906	26.179
 403	1	1	0.047642	-15.5312	-34.0333	26.9545
 404	1	1	-0.203391	-14.1778	-33.6406	27.0622
 405	1	1	-0.073691	-13.8664	-32.4416	26.4189
 406	1	1	-0.02876	-14.7588	-31.7137	25.6731
 407	1	3	0.009648	-13.677	-30.8839	24.993
 408	1	1	-0.19087	-16.0815	-32.122	25.4635
 409	1	2	0.036362	-11.9523	-30.6548	26.7312
 410	1	2	0.011094	-12.9432	-30.0494	27.7762
 411	1	2	-0.166666	-11.8581	-29.5367	25.6679
 412	1	2	-0.004747	-13.9051	-29.1689	26.8881
 413	1	2	0.045805	-13.385	-29.4272	25.4435
 414	1	2	-0.016724	-16.2609	-35.2971	29.0442
 415	1	2	-0.038268	-15.367	-36.5855	26.9772
 416	1	2	0.015931	-15.0255	-35.9019	29.7477
 417	1	2	0.006127	-15.3842	-37.7647	27.9766
 418	1	2	-0.02901	-14.7802	-37.3795	29.3501
 419	1	6	0.060706	-24.0996	-34.2419	22.2918
 420	1	6	0.109818	-24.1417	-40.7046	25.2818
 421	1	6	0.034398	-20.2195	-34.8197	22.4266
 422	1	6	0.029719	-20.986	-38.8823	22.6183
 423	1	6	0.036789	-21.5082	-36.7145	21.4235
 424	1	6	0.059436	-21.9077	-34.9593	24.5661
 425	1	6	0.028349	-19.4323	-38.5453	24.5582
 426	1	5	0.156131	-18.9447	-33.0043	24.6326
 427	1	6	0.059364	-21.483	-37.2126	25.8265
 428	1	6	0.111824	-18.3857	-36.2354	23.7502
 429	1	6	0.047288	-18.9289	-37.1595	22.3241
 430	1	5	0.182101	-18.3136	-37.2775	27.1996
 431	1	6	0.044359	-11.9329	-32.3453	25.3177
 432	1	5	0.179067	-13.4213	-34.253	27.5415
 433	1	6	0.038058	-13.593	-30.9981	23.9067
 434	1	5	0.140142	-16.7412	-31.6266	24.7586
 435	1	6	0.008074	-10.9886	-30.9642	27.1541
 436	1	6	-0.001887	-13.4522	-30.761	28.439
 437	1	6	0.034873	-11.3201	-29.8555	24.764
 438	1	6	0.057592	-11.3911	-28.6141	26.0351
 439	1	6	0.004826	-14.9733	-29.3577	27.0558
 440	1	6	0.004917	-13.6817	-28.6575	24.7204
 441	1	6	0.011371	-17.1448	-35.8653	29.363
 442	1	6	0.016934	-16.4205	-34.2663	29.3871
 443	1	6	0.017694	-14.3172	-36.3261	26.7945
 444	1	6	0.024086	-15.7663	-36.9107	26.0077
 445	1	6	0.001925	-15.1409	-35.8281	30.8366
 446	1	6	-0.011831	-14.1405	-35.3077	29.4906
 447	1	6	-0.015908	-14.8361	-38.619	27.5595
 448	1	6	0.008977	-16.4174	-38.101	28.1229
 449	1	6	0.008233	-15.2029	-38.0417	30.1166
 450	1	6	0.006802	-13.6986	-37.566	29.3415
 451	1	2	-0.163429	-24.5612	-35.1726	21.9396
 452	1	6	0.069136	-24.1822	-35.3763	20.9305
 453	1	6	0.097616	-25.6428	-35.0039	21.8653
 454	1	2	-0.211261	-23.3297	-40.2959	24.6675
 455	1	6	0.077702	-23.2058	-40.9477	23.794
 456	1	6	0.070844	-22.4065	-40.344	25.2584
 457	1	1	0.055893	-35.9694	-42.4527	15.1524
 458	1	1	0.066037	-36.1465	-41.0995	15.3821
 459	1	1	-0.13485	-35.3888	-40.1092	14.7241
 460	1	1	-0.112685	-34.6189	-40.6293	13.6636
 461	1	1	-0.113466	-35.0958	-42.9853	14.1906
 462	1	2	0.031197	-31.9797	-39.8843	13.4735
 463	1	1	-0.092412	-34.5027	-41.9865	13.3979
 464	1	3	0.085064	-33.2379	-41.8168	12.571
 465	1	3	0.073163	-33.37	-40.2605	12.8591
 466	1	3	-0.014897	-32.0491	-40.4999	14.8936
 467	1	2	0.044047	-31.8151	-42.1821	13.0923
 468	1	1	-0.216606	-29.9609	-40.0166	16.6043
 469	1	3	-0.029794	-31.97	-42.0634	14.6354
 470	1	2	-0.27828	-31.054	-40.8792	12.7145
 471	1	1	0.002791	-30.6891	-42.0303	15.4374
 472	1	1	-0.015593	-30.7357	-40.6752	15.6421
 473	1	1	-0.275006	-29.9368	-42.9028	16.2285
 474	1	1	-0.00175	-29.0939	-42.2713	17.1721
 475	1	4	0.011736	-29.0735	-40.8607	17.3254
 476	1	2	0.056595	-28.2311	-42.9723	18.2333
 477	1	3	-0.006078	-25.9087	-39.7983	21.8051
 478	1	4	0.009572	-28.145	-40.5328	18.4171
 479	1	1	0.047642	-27.6567	-41.7467	18.9741
 480	1	1	-0.203391	-26.8298	-41.7371	20.1227
 481	1	1	-0.073691	-26.4201	-40.4699	20.5457
 482	1	1	-0.02876	-26.8374	-39.2984	19.9674
 483	1	3	0.009648	-26.3515	-38.4367	21.1208
 484	1	1	-0.19087	-27.788	-39.262	18.9414
 485	1	2	0.036362	-26.8051	-39.8566	23.0756
 486	1	2	0.011094	-26.3528	-38.8057	24.131
 487	1	2	-0.166666	-28.1008	-39.1531	22.6107
 488	1	2	-0.004747	-26.7093	-37.4215	23.4356
 489	1	2	0.045805	-27.3956	-37.8706	22.1084
 490	1	2	-0.016724	-29.1416	-43.8518	19.1431
 491	1	2	-0.038268	-27.1235	-43.8161	17.5414
 492	1	2	0.015931	-28.3824	-44.8267	20.0735
 493	1	2	0.006127	-26.3599	-44.7557	18.5025
 494	1	2	-0.02901	-27.3204	-45.651	19.3143
 495	1	6	0.060706	-34.867	-38.6429	16.2343
 496	1	6	0.109818	-35.5639	-45.0885	13.9702
 497	1	6	0.034398	-31.6977	-38.8252	13.421
 498	1	6	0.029719	-33.3405	-42.0826	11.5132
 499	1	6	0.036789	-33.565	-39.6612	11.9632
 500	1	6	0.059436	-32.856	-40.1043	15.515
 501	1	6	0.028349	-31.3886	-43.1211	12.718
 502	1	5	0.156131	-30.0772	-38.9616	16.8289
 503	1	6	0.059364	-32.7194	-42.7198	15.0783
 504	1	6	0.111824	-30.0176	-40.8669	13.0784
 505	1	6	0.047288	-31.0478	-40.6989	11.6309
 506	1	5	0.182101	-30.0494	-43.9806	16.1685
 507	1	6	0.044359	-24.8408	-39.9327	22.0016
 508	1	5	0.179067	-26.5379	-42.6314	20.6579
 509	1	6	0.038058	-25.5567	-37.7295	20.8656
 510	1	5	0.140142	-28.2321	-38.3368	18.5891
 511	1	6	0.008074	-26.9568	-40.8616	23.4888
 512	1	6	-0.001887	-26.813	-38.9107	25.1224
 513	1	6	0.034873	-28.8014	-38.9584	23.4353
 514	1	6	0.057592	-28.6395	-39.6992	21.8255
 515	1	6	0.004826	-27.3282	-36.784	24.0804
 516	1	6	0.004917	-28.0722	-37.1194	21.6824
 517	1	6	0.011371	-29.7991	-44.459	18.5084
 518	1	6	0.016934	-29.8026	-43.2109	19.7411
 519	1	6	0.017694	-26.413	-43.1532	17.0306
 520	1	6	0.024086	-27.5826	-44.436	16.7604
 521	1	6	0.001925	-29.101	-45.5089	20.5453
 522	1	6	-0.011831	-27.9086	-44.2762	20.8924
 523	1	6	-0.015908	-25.7365	-44.1677	19.1855
 524	1	6	0.008977	-25.6738	-45.3877	17.9245
 525	1	6	0.008233	-27.8259	-46.3468	18.6319
 526	1	6	0.006802	-26.7481	-46.2612	20.0244
 527	1	2	-0.163429	-35.2809	-38.6777	15.2189
 528	1	6	0.069136	-34.6311	-38.0782	14.5693
 529	1	6	0.097616	-36.2671	-38.1975	15.2405
 530	1	2	-0.211261	-34.6912	-44.4488	14.1508
 531	1	6	0.077702	-33.9644	-44.6419	13.3521
 532	1	6	0.070844	-34.2383	-44.7581	15.101
 533	1	1	0.055893	-52.821	-41.6793	19.9355
 534	1	1	0.066037	-52.6298	-40.4178	19.4007
 535	1	1	-0.13485	-51.3563	-39.823	19.2919
 536	1	1	-0.112685	-50.3026	-40.7274	19.5314
 537	1	1	-0.113466	-51.776	-42.4971	20.3934
 538	1	2	0.031197	-47.7139	-40.8453	19.0513
 539	1	1	-0.092412	-50.5094	-41.9984	20.0509
 540	1	3	0.085064	-49.1251	-42.0904	20.6517
 541	1	3	0.073163	-48.8771	-40.6375	20.0641
 542	1	3	-0.014897	-46.574	-41.049	20.0944
 543	1	2	0.044047	-48.1118	-42.9837	19.8935
 544	1	1	-0.216606	-44.289	-41.3697	18.6222
 545	1	3	-0.029794	-46.8573	-42.5079	20.6647
 546	1	2	-0.27828	-47.9671	-42.2825	18.5118
 547	1	1	0.002791	-45.5195	-42.8906	20.0743
 548	1	1	-0.015593	-45.2563	-41.6289	19.6001
 549	1	1	-0.275006	-44.9173	-44.0427	19.5615
 550	1	1	-0.00175	-43.8646	-43.8169	18.6446
 551	1	4	0.011736	-43.5333	-42.5022	18.2188
 552	1	2	0.056595	-43.0025	-44.8714	17.9222
 553	1	3	-0.006078	-38.7576	-43.0977	15.5417
 554	1	4	0.009572	-42.4213	-42.5883	17.2605
 555	1	1	0.047642	-42.109	-43.9548	17.0726
 556	1	1	-0.203391	-40.977	-44.3514	16.3316
 557	1	1	-0.073691	-40.2413	-43.3218	15.7334
 558	1	1	-0.02876	-40.5072	-41.9834	15.9586
 559	1	3	0.009648	-39.0481	-41.5655	15.7946
 560	1	1	-0.19087	-41.5698	-41.5629	16.7738
 561	1	2	0.036362	-37.8372	-43.4864	16.7243
 562	1	2	0.011094	-36.4349	-42.8561	16.536
 563	1	2	-0.166666	-38.3449	-42.5817	17.8715
 564	1	2	-0.004747	-36.685	-41.3117	16.7887
 565	1	2	0.045805	-38.2201	-41.2621	17.0744
 566	1	2	-0.016724	-42.1378	-45.6983	18.9199
 567	1	2	-0.038268	-43.8319	-45.7905	16.9791
 568	1	2	0.015931	-42.9068	-46.8335	19.6339
 569	1	2	0.006127	-44.5791	-46.9397	17.6948
 570	1	2	-0.02901	-43.6518	-47.7424	18.6327
 571	1	6	0.060706	-50.1769	-38.1116	18.673
 572	1	6	0.109818	-51.2234	-44.4457	21.166
 573	1	6	0.034398	-47.5651	-40.0562	18.3035
 574	1	6	0.029719	-49.1118	-42.225	21.7398
 575	1	6	0.036789	-48.7033	-39.8147	20.7672
 576	1	6	0.059436	-46.4779	-40.2376	20.8253
 577	1	6	0.028349	-48.3103	-44.0628	19.8866
 578	1	5	0.156131	-44.1552	-40.3899	18.1753
 579	1	6	0.059364	-46.9208	-42.6173	21.7539
 580	1	6	0.111824	-47.1262	-42.6702	17.9212
 581	1	6	0.047288	-48.8767	-42.3534	17.9012
 582	1	5	0.182101	-45.2729	-45.0287	19.8317
 583	1	6	0.044359	-38.3641	-43.3784	14.5585
 584	1	5	0.179067	-40.6287	-45.3791	16.3167
 585	1	6	0.038058	-38.8396	-40.8796	14.9663
 586	1	5	0.140142	-41.665	-40.5352	17.1092
 587	1	6	0.008074	-37.8142	-44.557	16.9631
 588	1	6	-0.001887	-35.6513	-43.2641	17.1882
 589	1	6	0.034873	-37.6936	-42.609	18.7569
 590	1	6	0.057592	-39.3681	-42.8085	18.1956
 591	1	6	0.004826	-36.0518	-40.915	17.5932
 592	1	6	0.004917	-38.5377	-40.3693	17.6275
 593	1	6	0.011371	-41.687	-45.031	19.6661
 594	1	6	0.016934	-41.3034	-46.162	18.3802
 595	1	6	0.017694	-43.1538	-46.2439	16.2443
 596	1	6	0.024086	-44.5472	-45.1875	16.4046
 597	1	6	0.001925	-43.6169	-46.4133	20.3542
 598	1	6	-0.011831	-42.2008	-47.4381	20.2173
 599	1	6	-0.015908	-45.0078	-47.6152	16.9438
 600	1	6	0.008977	-45.4264	-46.5412	18.2627
 601	1	6	0.008233	-44.2368	-48.4937	19.1782
 602	1	6	0.006802	-42.9163	-48.2891	18.0283
 603	1	2	-0.163429	-51.1461	-38.3281	19.1394
 604	1	6	0.069136	-51.9267	-37.8822	18.5103
 605	1	6	0.097616	-51.1718	-37.8286	20.1156
 606	1	2	-0.211261	-51.9811	-43.6703	21.3339
 607	1	6	0.077702	-51.912	-43.3488	22.3804
 608	1	6	0.070844	-52.9667	-44.1292	21.1854
 609	1	1	0.055893	-66.8963	-37.8028	9.61067
 610	1	1	0.066037	-66.0274	-36.7564	9.35147
 611	1	1	-0.13485	-64.8527	-36.5438	10.0992
 612	1	1	-0.112685	-64.5207	-37.6235	10.9403
 613	1	1	-0.113466	-66.6817	-38.7487	10.6274
 614	1	2	0.031197	-62.4292	-38.4373	12.3118
 615	1	1	-0.092412	-65.3969	-38.6732	11.1908
 616	1	3	0.085064	-64.8322	-38.9478	12.5701
 617	1	3	0.073163	-63.8268	-37.7554	12.288
 618	1	3	-0.014897	-62.3464	-38.6424	13.851
 619	1	2	0.044047	-63.9152	-40.19	12.7149
 620	1	1	-0.216606	-59.9216	-39.6597	14.6877
 621	1	3	-0.029794	-63.3697	-39.8383	14.1227
 622	1	2	-0.27828	-62.7181	-39.8685	11.7751
 623	1	1	0.002791	-62.1631	-40.6133	14.6062
 624	1	1	-0.015593	-61.2841	-39.5903	14.381
 625	1	1	-0.275006	-61.8063	-41.8516	15.1439
 626	1	1	-0.00175	-60.4341	-41.9655	15.4741
 627	1	4	0.011736	-59.5191	-40.9001	15.2552