pySIMM System Object

2168 atoms
2512 bonds
5208 angles
9568 dihedrals
168 impropers

6 atom types
11 bond types
24 angle types
21 dihedral types
2 improper types

-179.602297 179.602297 xlo xhi
-179.602297 179.602297 ylo yhi
-179.602297 179.602297 zlo zhi

Masses

   1	12.01	# ca
   2	12.01	# c3
   3	12.01	# cy
   4	12.01	# cp
   5	1.008	# ha
   6	1.008	# hc

Pair Coeffs

   1	0.086	3.3996695084235347	# ca
   2	0.1094	3.3996695084235347	# c3
   3	0.086	3.3996695084235347	# cy
   4	0.086	3.3996695084235347	# cp
   5	0.015	2.59964245953351	# ha
   6	0.0157	2.649532787749369	# hc

Bond Coeffs

   1	321.2	1.5154	# ca,cy
   2	461.1	1.3984	# ca,ca
   3	345.8	1.086	# ca,ha
   4	300.9	1.5375	# c3,c3
   5	305.9	1.5319	# c3,cy
   6	450.2	1.4058	# ca,cp
   7	351.4	1.4854	# cp,cp
   8	321.0	1.5156	# c3,ca
   9	330.6	1.0969	# c3,hc
  10	333.3	1.0949	# cy,hc
  11	285.0	1.5562	# cy,cy

Angle Coeffs

   1	66.72	118.38	# ca,cp,ca
   2	46.8	110.47	# ca,c3,hc
   3	62.86	111.51	# c3,c3,c3
   4	46.43	110.14	# c3,cy,hc
   5	63.43	120.63	# c3,ca,cp
   6	63.56	112.24	# ca,c3,ca
   7	64.05	121.11	# ca,cp,cp
   8	66.62	120.02	# ca,ca,ca
   9	47.98	119.86	# cp,ca,ha
  10	39.4	107.58	# hc,c3,hc
  11	63.53	120.77	# c3,ca,ca
  12	63.51	120.86	# ca,ca,cy
  13	62.8	113.57	# c3,cy,ca
  14	67.9	96.03	# cy,c3,cy
  15	61.4	116.81	# ca,cy,cy
  16	63.15	112.07	# c3,c3,ca
  17	45.97	114.53	# ca,cy,hc
  18	66.26	120.69	# ca,ca,cp
  19	46.34	109.8	# c3,c3,hc
  20	48.18	119.88	# ca,ca,ha
  21	62.73	112.39	# c3,c3,cy
  22	46.29	110.75	# cy,c3,hc
  23	44.83	114.79	# cy,cy,hc
  24	60.66	118.7	# c3,cy,cy

Dihedral Coeffs

   1	1	0.15555555555555556	3	0	# X,cy,cy,X
   2	1	3.625	2	180	# X,ca,cp,X
   3	3	0.18	3	0	0.25	2	180	0.2	1	180	# c3,c3,c3,c3
   4	1	0.16	3	0	# hc,c3,c3,c3
   5	1	0.0	2	0.0	# ca,ca,cy,cy
   6	1	1.0	2	180	# X,cp,cp,X
   7	1	0.0	2	0.0	# ca,ca,cy,c3
   8	3	0.38	3	180.0	0.0	2	0.0	1.15	1	0.0	# ca,ca,cy,hc
   9	1	0.0	2	0	# X,c3,ca,X
  10	1	0.16	3	0.0	# cy,c3,cy,ca
  11	1	0.15555555555555556	3	0	# X,c3,c3,X
  12	1	0.16	3	0.0	# c3,c3,cy,ca
  13	1	0.16	3	0.0	# hc,c3,cy,ca
  14	3	0.18	3	0.0	0.25	2	180.0	0.2	1	180.0	# cy,c3,cy,cy
  15	1	0.15	3	0	# hc,c3,c3,hc
  16	3	0.18	3	0.0	0.25	2	180.0	0.2	1	180.0	# c3,c3,cy,cy
  17	1	0.16	3	0.0	# hc,c3,cy,cy
  18	1	0.16	3	0.0	# cy,c3,cy,hc
  19	1	0.16	3	0.0	# c3,c3,cy,hc
  20	1	0.15	3	0.0	# hc,c3,cy,hc
  21	1	3.625	2	180	# X,ca,ca,X

Improper Coeffs

   1	1.1	-1	2	# ca,ca,ca,c3
   2	1.1	-1	2	# ca,X,X,ha

Atoms

   1	1	1	0.055893	67.6027	33.1892	-4.87131
   2	1	1	0.066037	66.5872	33.6866	-5.66925
   3	1	1	-0.13485	65.2923	33.9637	-5.18977
   4	1	1	-0.112685	65.2055	33.8651	-3.78697
   5	1	1	-0.113466	67.453	32.9039	-3.50234
   6	1	2	0.031197	63.0713	32.5358	-2.70899
   7	1	1	-0.092412	66.2261	33.3649	-2.99259
   8	1	3	0.085064	65.3103	33.0923	-1.80733
   9	1	3	0.073163	64.1399	33.674	-2.71052
  10	1	3	-0.014897	63.7174	31.4497	-3.60894
  11	1	2	0.044047	64.8029	31.6739	-1.39982
  12	1	1	-0.216606	61.8304	29.4971	-3.53629
  13	1	3	-0.029794	64.8969	30.8682	-2.72623
  14	1	2	-0.27828	63.2792	31.9644	-1.27568
  15	1	1	0.002791	64.1423	29.5519	-2.77272
  16	1	1	-0.015593	63.1127	30.0596	-3.53076
  17	1	1	-0.275006	64.0109	28.4174	-1.96174
  18	1	1	-0.00175	62.7753	27.7378	-2.07052
  19	1	4	0.011736	61.7089	28.2706	-2.83522
  20	1	2	0.056595	62.3518	26.4661	-1.31586
  21	1	3	-0.006078	57.3987	24.7427	-2.26381
  22	1	4	0.009572	60.5232	27.4308	-2.62314
  23	1	1	0.047642	60.8757	26.3593	-1.75728
  24	1	1	-0.203391	59.9446	25.3375	-1.44682
  25	1	1	-0.073691	58.6587	25.5342	-1.96093
  26	1	1	-0.02876	58.3162	26.5811	-2.77627
  27	1	3	0.009648	56.996	25.9608	-3.20012
  28	1	1	-0.19087	59.2324	27.5472	-3.20202
  29	1	2	0.036362	57.4421	23.5496	-3.25249
  30	1	2	0.011094	58.6223	23.6514	-4.2576
  31	1	2	-0.166666	56.2711	23.9251	-4.18309
  32	1	2	-0.004747	58.2179	24.8431	-5.16578
  33	1	2	0.045805	56.8523	25.295	-4.58879
  34	1	2	-0.016724	63.2221	25.2699	-1.80124
  35	1	2	-0.038268	62.4816	26.6854	0.219461
  36	1	2	0.015931	63.0952	23.9885	-0.943725
  37	1	2	0.006127	62.3182	25.3943	1.05325
  38	1	2	-0.02901	63.2614	24.2741	0.564767
  39	1	6	0.060706	64.2737	35.0099	-6.78935
  40	1	6	0.109818	68.4682	31.0245	-3.13009
  41	1	6	0.034398	62.0475	32.8325	-2.96901
  42	1	6	0.029719	65.5226	33.6935	-0.916464
  43	1	6	0.036789	63.7068	34.6039	-2.32631
  44	1	6	0.059436	63.9497	31.7675	-4.62768
  45	1	6	0.028349	65.2834	31.2215	-0.52328
  46	1	5	0.156131	60.98	29.9926	-3.993
  47	1	6	0.059364	65.8922	30.8164	-3.17274
  48	1	6	0.111824	62.6841	31.0618	-1.08079
  49	1	6	0.047288	63.0575	32.7048	-0.495082
  50	1	5	0.182101	64.7864	28.115	-1.26552
  51	1	6	0.044359	56.7201	24.563	-1.42261
  52	1	5	0.179067	60.1948	24.4528	-0.875462
  53	1	6	0.038058	56.0878	26.494	-2.89816
  54	1	5	0.140142	58.9875	28.3002	-3.94412
  55	1	6	0.008074	57.3501	22.5629	-2.78123
  56	1	6	-0.001887	59.5906	23.8057	-3.76695
  57	1	6	0.034873	55.3126	24.008	-3.6522
  58	1	6	0.057592	56.1594	23.2367	-5.03287
  59	1	6	0.004826	58.9683	25.6418	-5.17326
  60	1	6	0.004917	56.2375	25.8569	-5.30313
  61	1	6	0.011371	64.2768	25.5737	-1.78431
  62	1	6	0.016934	62.9873	25.0378	-2.84824
  63	1	6	0.017694	61.752	27.4351	0.552613
  64	1	6	0.024086	63.4723	27.1002	0.442935
  65	1	6	0.001925	63.8561	23.2643	-1.26117
  66	1	6	-0.011831	62.1281	23.5084	-1.12493
  67	1	6	-0.015908	61.2794	25.0485	1.01204
  68	1	6	0.008977	62.5283	25.6135	2.10782
  69	1	6	0.008233	64.3004	24.5685	0.762375
  70	1	6	0.006802	63.0761	23.357	1.13818
  71	1	2	-0.163429	64.0945	34.1774	-6.09781
  72	1	6	0.069136	63.8911	33.2806	-6.69626
  73	1	6	0.097616	63.1915	34.4099	-5.52008
  74	1	2	-0.211261	68.4242	32.04	-2.71703
  75	1	6	0.077702	69.4363	32.4616	-2.75174
  76	1	6	0.070844	68.1292	31.963	-1.66322
  77	1	1	0.055893	57.8638	24.4241	-10.2066
  78	1	1	0.066037	58.1849	25.396	-11.5885
  79	1	1	-0.13485	59.5883	25.9203	-12.2631
  80	1	1	-0.112685	61.0239	25.4108	-11.7605
  81	1	1	-0.113466	59.0569	23.6131	-9.57463
  82	1	2	0.031197	63.6145	26.2389	-11.9441
  83	1	1	-0.092412	61.1195	24.3949	-10.5587
  84	1	3	0.085064	62.6198	24.1573	-10.9697
  85	1	3	0.073163	62.4661	25.2073	-12.1822
  86	1	3	-0.014897	63.1439	27.0173	-10.6833
  87	1	2	0.044047	63.8696	24.6904	-10.2075
  88	1	1	-0.216606	65.1133	28.8582	-10.1755
  89	1	3	-0.029794	63.3267	25.9553	-9.51754
  90	1	2	-0.27828	64.7043	25.2797	-11.3835
  91	1	1	0.002791	64.3668	26.8898	-8.95057
  92	1	1	-0.015593	64.192	27.832	-9.93344
  93	1	1	-0.275006	65.5292	26.7875	-8.18036
  94	1	1	-0.00175	66.4447	27.8506	-8.34002
  95	1	4	0.011736	66.2135	28.8891	-9.2773
  96	1	2	0.056595	67.8013	28.0152	-7.63538
  97	1	3	-0.006078	69.9867	32.7369	-7.9854
  98	1	4	0.009572	67.3317	29.8374	-9.19374
  99	1	1	0.047642	68.2784	29.3348	-8.26624
 100	1	1	-0.203391	69.3948	30.1011	-7.86356
 101	1	1	-0.073691	69.5047	31.3699	-8.44763
 102	1	1	-0.02876	68.5341	31.8894	-9.27901
 103	1	3	0.009648	68.8471	33.3323	-8.91613
 104	1	1	-0.19087	67.3986	31.1695	-9.67055
 105	1	2	0.036362	69.6134	33.2707	-6.57773
 106	1	2	0.011094	68.3406	32.5609	-6.03356
 107	1	2	-0.166666	69.0603	34.6573	-6.98035
 108	1	2	-0.004747	67.189	33.133	-6.95127
 109	1	2	0.045805	67.9517	34.1052	-7.90662
 110	1	2	-0.016724	67.587	28.1529	-6.09521
 111	1	2	-0.038268	68.7849	26.8635	-8.00258
 112	1	2	0.015931	68.7881	27.6483	-5.26413
 113	1	2	0.006127	68.7693	25.7014	-6.98407
 114	1	2	-0.02901	69.1206	26.1619	-5.54679
 115	1	6	0.060706	60.3492	27.6464	-13.3265
 116	1	6	0.109818	57.3292	23.1471	-8.21704
 117	1	6	0.034398	63.9041	26.8488	-12.809
 118	1	6	0.029719	62.8826	23.1551	-11.3128
 119	1	6	0.036789	62.5743	24.7702	-13.1806
 120	1	6	0.059436	62.1818	27.5234	-10.8007
 121	1	6	0.028349	64.387	23.9713	-9.56002
 122	1	5	0.156131	65.0174	29.5488	-11.007
 123	1	6	0.059364	62.5103	25.784	-8.82473
 124	1	6	0.111824	65.6075	25.808	-11.0486
 125	1	6	0.047288	64.9993	24.5116	-12.1112
 126	1	5	0.182101	65.7168	25.9364	-7.53561
 127	1	6	0.044359	71.0073	33.0122	-8.27356
 128	1	5	0.179067	70.0433	29.7957	-7.05064
 129	1	6	0.038058	69.2052	33.9724	-9.72997
 130	1	5	0.140142	66.5625	31.6391	-10.1788
 131	1	6	0.008074	70.4441	33.3029	-5.86161
 132	1	6	-0.001887	68.3771	31.4699	-5.96161
 133	1	6	0.034873	69.7988	35.2663	-7.52042
 134	1	6	0.057592	68.6805	35.2469	-6.1356
 135	1	6	0.004826	66.5663	32.3677	-7.42867
 136	1	6	0.004917	67.3127	34.8756	-8.35618
 137	1	6	0.011371	66.7083	27.5698	-5.79056
 138	1	6	0.016934	67.3596	29.1946	-5.83461
 139	1	6	0.017694	69.8092	27.2565	-8.04556
 140	1	6	0.024086	68.5622	26.484	-9.00844
 141	1	6	0.001925	68.5856	27.7828	-4.19396
 142	1	6	-0.011831	69.6688	28.26	-5.48965
 143	1	6	-0.015908	69.4704	24.9186	-7.30019
 144	1	6	0.008977	67.7759	25.2389	-6.97949
 145	1	6	0.008233	68.5832	25.5234	-4.83384
 146	1	6	0.006802	70.1903	26.001	-5.36077
 147	1	2	-0.163429	59.533	26.9176	-13.4039
 148	1	6	0.069136	59.6234	26.4087	-14.3712
 149	1	6	0.097616	58.5862	27.4715	-13.399
 150	1	2	-0.211261	58.3162	22.7255	-8.44915
 151	1	6	0.077702	58.0678	21.7068	-8.76337
 152	1	6	0.070844	58.8058	22.7235	-7.46991
 153	1	1	0.055893	57.2262	9.94274	-7.45028
 154	1	1	0.066037	56.8898	9.96883	-8.78744
 155	1	1	-0.13485	57.6769	10.6229	-9.75983
 156	1	1	-0.112685	58.9376	11.0013	-9.24882
 157	1	1	-0.113466	58.4327	10.409	-6.91156
 158	1	2	0.031197	60.0731	13.4678	-9.7539
 159	1	1	-0.092412	59.3063	10.8468	-7.9206
 160	1	3	0.085064	60.5253	11.7337	-8.05226
 161	1	3	0.073163	60.1267	11.9101	-9.5818
 162	1	3	-0.014897	58.7577	13.86	-9.03571
 163	1	2	0.044047	60.5703	13.1804	-7.49142
 164	1	1	-0.216606	58.8881	16.5777	-9.20862
 165	1	3	-0.029794	59.0703	13.6056	-7.50713
 166	1	2	-0.27828	61.1626	13.9084	-8.73141
 167	1	1	0.002791	58.8144	15.0765	-7.30392
 168	1	1	-0.015593	58.5882	15.3277	-8.63958
 169	1	1	-0.275006	59.3004	16.0243	-6.40347
 170	1	1	-0.00175	59.4632	17.3268	-6.91363
 171	1	4	0.011736	59.2653	17.5999	-8.29382
 172	1	2	0.056595	60.0221	18.5467	-6.16152
 173	1	3	-0.006078	61.1116	22.9957	-8.76994
 174	1	4	0.009572	59.7018	18.9855	-8.55308
 175	1	1	0.047642	60.156	19.5305	-7.32633
 176	1	1	-0.203391	60.6772	20.834	-7.23286
 177	1	1	-0.073691	60.7141	21.5566	-8.42547
 178	1	1	-0.02876	60.2306	21.0421	-9.65927
 179	1	3	0.009648	60.528	22.2038	-10.6257
 180	1	1	-0.19087	59.7329	19.7319	-9.7642
 181	1	2	0.036362	60.2424	24.9097	-8.44651
 182	1	2	0.011094	58.7044	25.019	-9.61349
 183	1	2	-0.166666	59.6459	25.8401	-9.85322
 184	1	2	-0.004747	58.2376	24.2216	-11.4852
 185	1	2	0.045805	59.4461	23.648	-11.7265
 186	1	2	-0.016724	59.0045	19.1026	-5.12522
 187	1	2	-0.038268	61.4242	18.2938	-5.52372
 188	1	2	0.015931	58.977	18.3125	-3.7989
 189	1	2	0.006127	61.4079	17.5893	-4.14507
 190	1	2	-0.02901	60.3835	18.2126	-3.17255
 191	1	6	0.060706	56.3988	11.7432	-11.1017
 192	1	6	0.109818	59.7449	10.8171	-5.22933
 193	1	6	0.034398	60.1923	13.8452	-10.7772
 194	1	6	0.029719	61.4844	11.2275	-7.89712
 195	1	6	0.036789	60.8506	11.4755	-10.2795
 196	1	6	0.059436	57.8601	13.3934	-9.45401
 197	1	6	0.028349	61.1061	13.3158	-6.54356
 198	1	5	0.156131	58.9124	16.7307	-10.2825
 199	1	6	0.059364	58.3846	12.9773	-6.93651
 200	1	6	0.111824	61.2215	14.9973	-8.60126
 201	1	6	0.047288	62.1605	13.5349	-8.99858
 202	1	5	0.182101	59.5914	15.7388	-5.40201
 203	1	6	0.044359	62.1883	23.0985	-8.59649
 204	1	5	0.179067	61.0148	21.2629	-6.29468
 205	1	6	0.038058	61.3072	21.8343	-11.2971
 206	1	5	0.140142	59.3965	19.3171	-10.7088
 207	1	6	0.008074	59.9749	25.2373	-7.4356
 208	1	6	-0.001887	57.8384	25.4201	-8.93899
 209	1	6	0.034873	60.5528	26.4884	-9.84073
 210	1	6	0.057592	59.2036	26.9377	-9.90363
 211	1	6	0.004826	57.3461	23.6883	-12.006
 212	1	6	0.004917	59.7029	23.6594	-12.805
 213	1	6	0.011371	57.998	19.1246	-5.56327
 214	1	6	0.016934	59.2603	20.1437	-4.88988
 215	1	6	0.017694	61.9268	19.2581	-5.37942
 216	1	6	0.024086	62.054	17.7259	-6.22092
 217	1	6	0.001925	58.5736	17.3072	-3.96903
 218	1	6	-0.011831	58.2973	18.8077	-3.09381
 219	1	6	-0.015908	62.4092	17.6477	-3.69992
 220	1	6	0.008977	61.1994	16.5221	-4.26567
 221	1	6	0.008233	60.3384	17.618	-2.25134
 222	1	6	0.006802	60.7222	19.2172	-2.88713
 223	1	2	-0.163429	57.1817	10.9761	-11.1498
 224	1	6	0.069136	57.995	11.3626	-11.7763
 225	1	6	0.097616	56.7607	10.0956	-11.6507
 226	1	2	-0.211261	58.6979	10.5544	-5.42389
 227	1	6	0.077702	58.0658	11.3378	-4.98789
 228	1	6	0.070844	58.4842	9.61666	-4.89612
 229	1	1	0.055893	42.9953	15.6437	-11.0967
 230	1	1	0.066037	42.7989	14.362	-11.5859
 231	1	1	-0.13485	43.4916	13.2358	-11.1187
 232	1	1	-0.112685	44.5159	13.5393	-10.2105
 233	1	1	-0.113466	43.8444	15.8924	-9.99427
 234	1	2	0.031197	46.3969	12.2062	-8.84804
 235	1	1	-0.092412	44.6613	14.8007	-9.63242
 236	1	3	0.085064	45.0772	14.2233	-8.27245
 237	1	3	0.073163	44.9714	12.8118	-8.96783
 238	1	3	-0.014897	47.2571	13.127	-9.77663
 239	1	2	0.044047	46.5265	14.2241	-7.69261
 240	1	1	-0.216606	49.5926	11.8955	-9.4619
 241	1	3	-0.029794	47.3846	14.4668	-8.95418
 242	1	2	-0.27828	46.733	12.7047	-7.41561
 243	1	1	0.002791	48.8672	14.1389	-8.82343
 244	1	1	-0.015593	48.7604	13.007	-9.6147
 245	1	1	-0.275006	49.7362	14.1764	-7.71599
 246	1	1	-0.00175	50.6066	13.0719	-7.54484
 247	1	4	0.011736	50.5815	11.9947	-8.46028
 248	1	2	0.056595	51.4858	12.7181	-6.3174
 249	1	3	-0.006078	53.9842	8.00322	-6.46299
 250	1	4	0.009572	51.4416	10.9244	-7.9622
 251	1	1	0.047642	51.9181	11.2837	-6.67981
 252	1	1	-0.203391	52.7341	10.4027	-5.92368
 253	1	1	-0.073691	52.9895	9.16204	-6.53148
 254	1	1	-0.02876	52.6393	8.8996	-7.8326
 255	1	3	0.009648	53.6436	7.78604	-8.0028
 256	1	1	-0.19087	51.865	9.74756	-8.62232
 257	1	2	0.036362	55.5117	8.23835	-6.47256
 258	1	2	0.011094	55.8179	9.65838	-6.9914
 259	1	2	-0.166666	55.9163	7.36355	-7.68365
 260	1	2	-0.004747	55.4341	9.59345	-8.52738
 261	1	2	0.045805	55.0018	8.08956	-8.6971
 262	1	2	-0.016724	52.7368	13.6349	-6.22431
 263	1	2	-0.038268	50.6894	12.6895	-4.97743
 264	1	2	0.015931	52.4344	15.0293	-5.63288
 265	1	2	0.006127	50.4532	14.0719	-4.32272
 266	1	2	-0.02901	51.7401	14.9227	-4.25862
 267	1	6	0.060706	42.3681	11.4938	-10.4843
 268	1	6	0.109818	43.3215	17.9722	-9.65812
 269	1	6	0.034398	46.4783	11.1256	-9.01995
 270	1	6	0.029719	44.3566	14.4028	-7.46709
 271	1	6	0.036789	44.2328	12.1288	-8.53362
 272	1	6	0.059436	46.9207	13.1896	-10.8172
 273	1	6	0.028349	46.7095	14.8995	-6.84741
 274	1	5	0.156131	49.3865	10.954	-9.96056
 275	1	6	0.059364	47.1684	15.4088	-9.47089
 276	1	6	0.111824	47.7518	12.4467	-7.10159
 277	1	6	0.047288	46.0319	12.3198	-6.66253
 278	1	5	0.182101	49.6297	14.9493	-6.96674
 279	1	6	0.044359	53.7033	7.16917	-5.81042
 280	1	5	0.179067	53.1707	10.6825	-4.9701
 281	1	6	0.038058	53.2467	6.79746	-8.2593
 282	1	5	0.140142	51.6441	9.54512	-9.66551
 283	1	6	0.008074	56.0256	7.98661	-5.53634
 284	1	6	-0.001887	55.3681	10.4906	-6.43713
 285	1	6	0.034873	55.6462	6.30672	-7.54823
 286	1	6	0.057592	56.9836	7.41296	-7.93622
 287	1	6	0.004826	54.7073	10.351	-8.84645
 288	1	6	0.004917	55.0825	7.71775	-9.72616
 289	1	6	0.011371	53.1945	13.7453	-7.21613
 290	1	6	0.016934	53.4907	13.1531	-5.58832
 291	1	6	0.017694	51.2445	12.081	-4.25221
 292	1	6	0.024086	49.7271	12.1826	-5.12625
 293	1	6	0.001925	51.8029	15.6001	-6.32409
 294	1	6	-0.011831	53.3707	15.5917	-5.52678
 295	1	6	-0.015908	50.0647	13.9274	-3.30665
 296	1	6	0.008977	49.6754	14.6194	-4.86348
 297	1	6	0.008233	51.5022	15.9263	-3.88375
 298	1	6	0.006802	52.4352	14.4706	-3.53917
 299	1	2	-0.163429	42.991	11.8174	-11.3272
 300	1	6	0.069136	42.3902	11.7382	-12.2419
 301	1	6	0.097616	43.8293	11.1154	-11.4176
 302	1	2	-0.211261	43.6858	17.1046	-9.09393
 303	1	6	0.077702	42.973	16.9017	-8.28535
 304	1	6	0.070844	44.644	17.3828	-8.63769
 305	1	1	0.055893	29.0383	13.0485	-19.9084
 306	1	1	0.066037	29.2812	11.8719	-19.2185
 307	1	1	-0.13485	30.01	11.8246	-18.017
 308	1	1	-0.112685	30.6384	13.0391	-17.693
 309	1	1	-0.113466	29.4633	14.3071	-19.4352
 310	1	2	0.031197	32.37	13.9444	-15.8392
 311	1	1	-0.092412	30.3636	14.2326	-18.3561
 312	1	3	0.085064	30.5787	15.086	-17.1063
 313	1	3	0.073163	30.9249	13.73	-16.3733
 314	1	3	-0.014897	33.2254	13.9581	-17.1436
 315	1	2	0.044047	31.8362	15.9742	-16.8524
 316	1	1	-0.216606	35.6119	14.3208	-16.0084
 317	1	3	-0.029794	32.8851	15.3506	-17.8075
 318	1	2	-0.27828	32.275	15.448	-15.4545
 319	1	1	0.002791	34.3379	15.7242	-17.5437
 320	1	1	-0.015593	34.6383	14.4888	-16.9974
 321	1	1	-0.275006	34.9578	16.9052	-17.0971
 322	1	1	-0.00175	36.0092	16.7518	-16.1615
 323	1	4	0.011736	36.3471	15.4764	-15.66
 324	1	2	0.056595	36.7342	17.867	-15.3774
 325	1	3	-0.006078	39.0863	16.2341	-10.9089
 326	1	4	0.009572	37.2966	15.6415	-14.5596
 327	1	1	0.047642	37.5198	17.0252	-14.341
 328	1	1	-0.203391	38.2317	17.4665	-13.1936
 329	1	1	-0.073691	38.7872	16.456	-12.3929
 330	1	1	-0.02876	38.5779	15.1192	-12.6411
 331	1	3	0.009648	38.8826	14.6927	-11.2301
 332	1	1	-0.19087	37.777	14.6472	-13.6778
 333	1	2	0.036362	40.5332	16.2688	-10.3431
 334	1	2	0.011094	41.5825	16.0885	-11.4728
 335	1	2	-0.166666	40.5737	14.8855	-9.64908
 336	1	2	-0.004747	41.3466	14.6033	-11.9415
 337	1	2	0.045805	40.2663	14.0809	-10.931
 338	1	2	-0.016724	37.6843	18.6397	-16.332
 339	1	2	-0.038268	35.6858	18.8163	-14.7159
 340	1	2	0.015931	38.2847	19.9165	-15.7028
 341	1	2	0.006127	36.255	20.1444	-14.1603
 342	1	2	-0.02901	37.1836	20.8559	-15.1677
 343	1	6	0.060706	29.6556	9.73568	-17.5425
 344	1	6	0.109818	29.5519	16.4273	-19.8762
 345	1	6	0.034398	32.6997	13.2591	-15.0483
 346	1	6	0.029719	29.6804	15.5983	-16.7446
 347	1	6	0.036789	30.2546	13.4545	-15.5517
 348	1	6	0.059436	33.1467	13.0572	-17.762
 349	1	6	0.028349	31.6888	17.0581	-16.9378
 350	1	5	0.156131	35.7018	13.3966	-15.4476
 351	1	6	0.059364	32.5991	15.3589	-18.8652
 352	1	6	0.111824	33.2309	15.8657	-15.1124
 353	1	6	0.047288	31.5168	15.6347	-14.6818
 354	1	5	0.182101	34.5638	17.8806	-17.3628
 355	1	6	0.044359	38.3719	16.6789	-10.2074
 356	1	5	0.179067	38.2956	18.5065	-12.9023
 357	1	6	0.038058	38.0789	14.1795	-10.6904
 358	1	5	0.140142	37.4719	13.6084	-13.748
 359	1	6	0.008074	40.7408	17.1145	-9.67614
 360	1	6	-0.001887	41.5428	16.8266	-12.2843
 361	1	6	0.034873	39.7955	14.7761	-8.88058
 362	1	6	0.057592	41.5381	14.6336	-9.19166
 363	1	6	0.004826	41.121	14.4863	-13.0091
 364	1	6	0.004917	40.2633	12.9923	-10.7969
 365	1	6	0.011371	37.127	18.9318	-17.2318
 366	1	6	0.016934	38.4934	17.9789	-16.6696
 367	1	6	0.017694	35.1492	18.2829	-13.9205
 368	1	6	0.024086	34.9293	19.0878	-15.4615
 369	1	6	0.001925	38.8844	20.4465	-16.4536
 370	1	6	-0.011831	38.9685	19.6467	-14.889
 371	1	6	-0.015908	36.7937	19.9659	-13.2253
 372	1	6	0.008977	35.4235	20.8124	-13.9019
 373	1	6	0.008233	36.5852	21.2254	-16.0107
 374	1	6	0.006802	37.6415	21.7332	-14.6935
 375	1	2	-0.163429	29.91	10.6733	-17.0326
 376	1	6	0.069136	30.8621	10.5208	-16.5093
 377	1	6	0.097616	29.1371	10.8692	-16.2793
 378	1	2	-0.211261	28.8168	15.6131	-19.8604
 379	1	6	0.077702	28.386	15.5341	-20.8664
 380	1	6	0.070844	28.0134	15.8951	-19.1689
 381	1	1	0.055893	23.8636	0.130118	-27.691
 382	1	1	0.066037	23.8803	-0.360003	-26.4007
 383	1	1	-0.13485	23.466	0.378173	-25.2748
 384	1	1	-0.112685	23.1858	1.71847	-25.6009
 385	1	1	-0.113466	23.4004	1.41226	-28.0393
 386	1	2	0.031197	22.98	4.06465	-24.2558
 387	1	1	-0.092412	23.1351	2.19485	-26.9027
 388	1	3	0.085064	22.2866	3.40348	-26.5384
 389	1	3	0.073163	22.3583	2.86901	-25.0439
 390	1	3	-0.014897	24.4601	4.06544	-24.7366
 391	1	2	0.044047	22.8604	4.84835	-26.4506
 392	1	1	-0.216606	25.3876	6.19572	-23.36
 393	1	3	-0.029794	24.376	4.59153	-26.2276
 394	1	2	-0.27828	22.3569	5.25753	-25.0365
 395	1	1	0.002791	25.1883	5.78045	-25.752
 396	1	1	-0.015593	25.2657	5.3244	-24.4513
 397	1	1	-0.275006	25.2087	7.14246	-26.0812
 398	1	1	-0.00175	25.4634	8.03221	-25.0146
 399	1	4	0.011736	25.5677	7.56451	-23.6821
 400	1	2	0.056595	25.438	9.57009	-25.0737
 401	1	3	-0.006078	25.2406	12.1002	-20.3788
 402	1	4	0.009572	25.5943	8.7283	-22.7853
 403	1	1	0.047642	25.4743	9.90644	-23.5727
 404	1	1	-0.203391	25.3518	11.189	-22.981
 405	1	1	-0.073691	25.3768	11.1813	-21.5831
 406	1	1	-0.02876	25.5524	10.0521	-20.8313
 407	1	3	0.009648	25.4848	10.7857	-19.5086
 408	1	1	-0.19087	25.6499	8.76658	-21.3672
 409	1	2	0.036362	26.4033	13.0268	-19.9489
 410	1	2	0.011094	27.754	12.522	-20.5305
 411	1	2	-0.166666	26.5119	12.6147	-18.4614
 412	1	2	-0.004747	28.0162	11.1941	-19.7203
 413	1	2	0.045805	26.792	11.1216	-18.7483
 414	1	2	-0.016724	26.7182	10.0909	-25.7924
 415	1	2	-0.038268	24.1249	10.1001	-25.7321
 416	1	2	0.015931	26.5407	11.5065	-26.3848
 417	1	2	0.006127	24.304	10.4868	-27.2181
 418	1	2	-0.02901	25.3867	11.5769	-27.4166
 419	1	6	0.060706	22.162	-0.0748095	-23.6048
 420	1	6	0.109818	23.8822	2.49284	-29.8518
 421	1	6	0.034398	22.8241	4.06126	-23.1697
 422	1	6	0.029719	21.2862	3.41665	-26.9844
 423	1	6	0.036789	21.3992	2.57775	-24.602
 424	1	6	0.059436	25.003	3.13206	-24.5511
 425	1	6	0.028349	22.5991	5.52414	-27.2746
 426	1	5	0.156131	25.2442	5.86139	-22.3379
 427	1	6	0.059364	24.8665	4.00456	-27.0119
 428	1	6	0.111824	22.7393	6.23371	-24.709
 429	1	6	0.047288	21.2604	5.27131	-24.972
 430	1	5	0.182101	24.9477	7.48743	-27.0751
 431	1	6	0.044359	24.2637	12.5773	-20.2435
 432	1	5	0.179067	25.2147	12.0989	-23.5556
 433	1	6	0.038058	24.6707	10.5021	-18.8325
 434	1	5	0.140142	25.7315	7.87569	-20.753
 435	1	6	0.008074	26.2192	14.0959	-20.1114
 436	1	6	-0.001887	27.7991	12.4062	-21.6211
 437	1	6	0.034873	25.5742	12.7717	-17.91
 438	1	6	0.057592	27.3175	13.1205	-17.9144
 439	1	6	0.004826	28.1972	10.3083	-20.3424
 440	1	6	0.004917	26.968	10.5128	-17.853
 441	1	6	0.011371	26.9804	9.41086	-26.6138
 442	1	6	0.016934	27.5712	10.0777	-25.1014
 443	1	6	0.017694	23.7729	10.9926	-25.2
 444	1	6	0.024086	23.3237	9.35622	-25.632
 445	1	6	0.001925	27.4758	11.8356	-26.8555
 446	1	6	-0.011831	26.34	12.2131	-25.5708
 447	1	6	-0.015908	23.3499	10.8353	-27.6333
 448	1	6	0.008977	24.5849	9.59654	-27.7929
 449	1	6	0.008233	25.7947	11.4842	-28.4313
 450	1	6	0.006802	24.9236	12.5702	-27.3582
 451	1	2	-0.163429	23.2061	-0.224224	-23.9064
 452	1	6	0.069136	23.4068	-1.30287	-23.8987
 453	1	6	0.097616	23.847	0.242102	-23.1479
 454	1	2	-0.211261	23.0841	1.85188	-29.4575
 455	1	6	0.077702	22.9813	0.991354	-30.1302
 456	1	6	0.070844	22.146	2.4192	-29.4951
 457	1	1	0.055893	16.1001	-13.4509	-27.567
 458	1	1	0.066037	16.4897	-13.244	-26.2597
 459	1	1	-0.13485	16.0362	-12.1797	-25.4606
 460	1	1	-0.112685	15.0094	-11.4538	-26.0932
 461	1	1	-0.113466	15.1845	-12.6321	-28.2526
 462	1	2	0.031197	15.1126	-8.72915	-26.0762
 463	1	1	-0.092412	14.6016	-11.6718	-27.4013
 464	1	3	0.085064	13.8682	-10.3383	-27.4989
 465	1	3	0.073163	14.3424	-10.0864	-26.0021
 466	1	3	-0.014897	16.4191	-9.10961	-26.8263
 467	1	2	0.044047	14.4085	-9.0975	-28.274
 468	1	1	-0.216606	17.8922	-6.79838	-27.0035
 469	1	3	-0.029794	15.9361	-9.36394	-28.3187
 470	1	2	-0.27828	14.2794	-8.00482	-27.1732
 471	1	1	0.002791	16.8161	-8.18974	-28.6907
 472	1	1	-0.015593	17.239	-7.96914	-27.4061
 473	1	1	-0.275006	16.9719	-7.26637	-29.728
 474	1	1	-0.00175	17.7283	-6.12098	-29.3865
 475	1	4	0.011736	18.1844	-5.89644	-28.0617
 476	1	2	0.056595	18.1119	-4.9673	-30.3245
 477	1	3	-0.006078	21.4666	-1.42557	-28.3337
 478	1	4	0.009572	18.8892	-4.60647	-28.0314
 479	1	1	0.047642	18.8718	-4.05395	-29.3393
 480	1	1	-0.203391	19.6014	-2.8807	-29.6376
 481	1	1	-0.073691	20.2152	-2.25338	-28.5483
 482	1	1	-0.02876	20.236	-2.78938	-27.2804
 483	1	3	0.009648	21.4879	-2.02724	-26.8697
 484	1	1	-0.19087	19.6432	-4.02246	-26.9802
 485	1	2	0.036362	22.7893	-1.95175	-28.9527
 486	1	2	0.011094	24.0204	-1.23876	-28.3234
 487	1	2	-0.166666	22.9546	-3.33133	-28.2738
 488	1	2	-0.004747	24.0442	-1.80753	-26.8394
 489	1	2	0.045805	22.8345	-2.79363	-26.8283
 490	1	2	-0.016724	19.0111	-5.52053	-31.471
 491	1	2	-0.038268	16.8307	-4.28026	-30.8766
 492	1	2	0.015931	19.2361	-4.54908	-32.6542
 493	1	2	0.006127	17.1074	-3.27567	-32.0175
 494	1	2	-0.02901	17.9188	-3.92233	-33.1601
 495	1	6	0.060706	16.089	-11.0004	-23.6379
 496	1	6	0.109818	14.6095	-13.6858	-30.0556
 497	1	6	0.034398	15.2384	-8.19147	-25.1281
 498	1	6	0.029719	12.7815	-10.4188	-27.6118
 499	1	6	0.036789	13.5199	-10.023	-25.2813
 500	1	6	0.059436	17.0229	-9.88133	-26.3423
 501	1	6	0.028349	13.9266	-8.87879	-29.2351
 502	1	5	0.156131	18.1365	-6.58836	-25.9674
 503	1	6	0.059364	16.2331	-10.2949	-28.8068
 504	1	6	0.111824	14.7109	-7.03993	-27.473
 505	1	6	0.047288	13.2371	-7.84318	-26.8665
 506	1	5	0.182101	16.5349	-7.41586	-30.7102
 507	1	6	0.044359	21.3268	-0.344365	-28.4251
 508	1	5	0.179067	19.7331	-2.50548	-30.6439
 509	1	6	0.038058	21.3554	-1.32243	-26.0429
 510	1	5	0.140142	19.8092	-4.53039	-26.0358
 511	1	6	0.008074	22.8071	-1.9804	-30.0493
 512	1	6	-0.001887	24.9704	-1.40167	-28.8492
 513	1	6	0.034873	23.9312	-3.79352	-28.4772
 514	1	6	0.057592	22.1729	-4.05268	-28.5442
 515	1	6	0.004826	25.0112	-2.2608	-26.5849
 516	1	6	0.004917	22.9006	-3.56607	-26.052
 517	1	6	0.011371	18.5418	-6.42428	-31.8804
 518	1	6	0.016934	19.9803	-5.83834	-31.065
 519	1	6	0.017694	16.2964	-3.77542	-30.0612
 520	1	6	0.024086	16.1479	-5.04721	-31.2638
 521	1	6	0.001925	19.7187	-5.09018	-33.478
 522	1	6	-0.011831	19.935	-3.75772	-32.3663
 523	1	6	-0.015908	17.6459	-2.40401	-31.628
 524	1	6	0.008977	16.1545	-2.90148	-32.4127
 525	1	6	0.008233	17.3096	-4.70104	-33.6372
 526	1	6	0.006802	18.1376	-3.17241	-33.9307
 527	1	2	-0.163429	16.6694	-11.7849	-24.1391
 528	1	6	0.069136	16.7258	-12.6453	-23.4606
 529	1	6	0.097616	17.6882	-11.407	-24.2898
 530	1	2	-0.211261	14.9585	-12.6909	-29.7524
 531	1	6	0.077702	14.2055	-11.9598	-30.0719
 532	1	6	0.070844	15.8868	-12.4785	-30.2972
 533	1	1	0.055893	13.6654	-28.034	-18.7255
 534	1	1	0.066037	13.7169	-26.9649	-17.8435
 535	1	1	-0.13485	14.3977	-25.7703	-18.1323
 536	1	1	-0.112685	14.7928	-25.6618	-19.4749
 537	1	1	-0.113466	14.2716	-27.9968	-19.9974
 538	1	2	0.031197	15.6927	-23.747	-20.9996
 539	1	1	-0.092412	14.717	-26.7159	-20.3778
 540	1	3	0.085064	15.8801	-26.2039	-21.2162
 541	1	3	0.073163	15.9781	-25.0209	-20.1678
 542	1	3	-0.014897	17.0598	-23.7093	-21.7331
 543	1	2	0.044047	15.5382	-25.4802	-22.5513
 544	1	1	-0.216606	16.876	-21.4335	-23.1915
 545	1	3	-0.029794	16.9472	-24.8753	-22.81
 546	1	2	-0.27828	14.7059	-24.2486	-22.0931
 547	1	1	0.002791	17.0613	-23.7706	-23.8494
 548	1	1	-0.015593	17.1685	-22.77	-22.9135
 549	1	1	-0.275006	16.6562	-23.5413	-25.1712
 550	1	1	-0.00175	16.4904	-22.1796	-25.5292
 551	1	4	0.011736	16.6037	-21.1551	-24.5526
 552	1	2	0.056595	16.0753	-21.5893	-26.8969
 553	1	3	-0.006078	15.7429	-16.3124	-27.1837
 554	1	4	0.009572	16.249	-19.8732	-25.1669
 555	1	1	0.047642	15.9321	-20.1015	-26.5274
 556	1	1	-0.203391	15.6375	-19.0276	-27.4011
 557	1	1	-0.073691	15.5537	-17.768	-26.7911
 558	1	1	-0.02876	15.8846	-17.55	-25.4737
 559	1	3	0.009648	16.1415	-16.0678	-25.6676
 560	1	1	-0.19087	16.3109	-18.5687	-24.617
 561	1	2	0.036362	17.0307	-15.9232	-27.9492
 562	1	2	0.011094	17.2594	-14.3845	-27.8758
 563	1	2	-0.166666	18.1479	-16.3821	-26.9828
 564	1	2	-0.004747	17.6926	-14.1597	-26.3631
 565	1	2	0.045805	17.6167	-15.5934	-25.7635
 566	1	2	-0.016724	17.1988	-21.7664	-27.9578
 567	1	2	-0.038268	14.7071	-22.126	-27.4125
 568	1	2	0.015931	17.2592	-23.1848	-28.5673
 569	1	2	0.006127	14.7656	-23.5175	-28.0871
 570	1	2	-0.02901	15.8919	-23.616	-29.1388
 571	1	6	0.060706	15.0206	-23.8071	-17.4518
 572	1	6	0.109818	14.6172	-29.0677	-21.8505
 573	1	6	0.034398	15.4028	-22.8475	-20.442
 574	1	6	0.029719	16.7246	-26.8982	-21.297
 575	1	6	0.036789	16.8779	-24.9489	-19.5454
 576	1	6	0.059436	17.9357	-23.7182	-21.0736
 577	1	6	0.028349	15.1105	-26.0963	-23.3522
 578	1	5	0.156131	16.8052	-20.6775	-22.4164
 579	1	6	0.059364	17.7582	-25.6126	-22.833
 580	1	6	0.111824	14.55	-23.5156	-22.896
 581	1	6	0.047288	13.725	-24.5267	-21.6862
 582	1	5	0.182101	16.4552	-24.363	-25.8464
 583	1	6	0.044359	14.8436	-15.8042	-27.5487
 584	1	5	0.179067	15.5257	-19.1596	-28.4726
 585	1	6	0.038058	15.4977	-15.4003	-25.0846
 586	1	5	0.140142	16.7057	-18.3704	-23.6258
 587	1	6	0.008074	17.1088	-16.3362	-28.9627
 588	1	6	-0.001887	17.9995	-13.9894	-28.584
 589	1	6	0.034873	19.1477	-16.0536	-27.3007
 590	1	6	0.057592	18.1773	-17.468	-26.8254
 591	1	6	0.004826	18.6685	-13.6647	-26.2737
 592	1	6	0.004917	18.2052	-15.7225	-24.8465
 593	1	6	0.011371	18.172	-21.5124	-27.5177
 594	1	6	0.016934	17.037	-21.0562	-28.7785
 595	1	6	0.017694	14.3112	-21.4205	-28.1544
 596	1	6	0.024086	13.9799	-22.1446	-26.5903
 597	1	6	0.001925	17.5888	-23.9055	-27.8101
 598	1	6	-0.011831	18.0119	-23.2068	-29.3656
 599	1	6	-0.015908	13.8019	-23.7257	-28.5689
 600	1	6	0.008977	14.8976	-24.2976	-27.3308
 601	1	6	0.008233	15.9557	-24.6436	-29.5186
 602	1	6	0.006802	15.6424	-22.9752	-29.9946
 603	1	2	-0.163429	14.8902	-24.8215	-17.0548
 604	1	6	0.069136	14.1772	-24.765	-16.2227
 605	1	6	0.097616	15.8545	-25.1546	-16.6519
 606	1	2	-0.211261	14.6415	-29.2505	-20.769
 607	1	6	0.077702	15.6507	-29.5891	-20.5044
 608	1	6	0.070844	13.943	-30.0688	-20.5536
 609	1	1	0.055893	4.14379	-30.4668	-4.57494
 610	1	1	0.066037	4.06812	-29.0931	-4.68516
 611	1	1	-0.13485	4.93222	-28.3323	-5.5008
 612	1	1	-0.112685	5.98587	-29.1046	-6.03544
 613	1	1	-0.113466	5.05819	-31.2618	-5.28433
 614	1	2	0.031197	6.28751	-28.762	-8.64144
 615	1	1	-0.092412	6.0252	-30.4897	-5.94686
 616	1	3	0.085064	6.89882	-30.6519	-7.17051
 617	1	3	0.073163	6.90635	-29.0649	-7.2506
 618	1	3	-0.014897	7.49836	-29.2466	-9.4964
 619	1	2	0.044047	6.18886	-31.0854	-8.48762
 620	1	1	-0.216606	7.73414	-28.7709	-12.1463
 621	1	3	-0.029794	7.39216	-30.8304	-9.42415
 622	1	2	-0.27828	5.23916	-29.8974	-8.81289
 623	1	1	0.002791	7.12662	-30.7753	-10.9182
 624	1	1	-0.015593	7.27381	-29.4078	-10.9881
 625	1	1	-0.275006	7.31212	-31.6316	-12.0105
 626	1	1	-0.00175	7.61127	-30.9939	-13.2381
 627	1	4	0.011736	7.85006	-29.5996	-13.2919
 628	1	2	0.056595	7.94235	-31.6747	-14.58
 629	1	3	-0.006078	11.0595	-28.9522	-17.692
 630	1	4	0.009572	8.42125	-29.2817	-14.6063
 631	1	1	0.047642	8.46585	-30.4633	-15.3858
 632	1	1	-0.203391	9.13987	-30.4796	-16.6293
 633	1	1	-0.073691	9.71339	-29.2714	-17.0563
 634	1	1	-0.02876	9.73482	-28.1465	-16.2493
 635	1	3	0.009648	11.0975	-27.6923	-16.7445
 636	1	1	-0.19087	9.12994	-28.1181	-14.9875