pySIMM System Object

3026 atoms
3502 bonds
7254 angles
13308 dihedrals
234 impropers

6 atom types
11 bond types
24 angle types
21 dihedral types
2 improper types

-201.272835 201.272835 xlo xhi
-201.272835 201.272835 ylo yhi
-201.272835 201.272835 zlo zhi

Masses

   1	12.01	# ca
   2	12.01	# c3
   3	12.01	# cy
   4	12.01	# cp
   5	1.008	# ha
   6	1.008	# hc

Pair Coeffs

   1	0.086	3.3996695084235347	# ca
   2	0.1094	3.3996695084235347	# c3
   3	0.086	3.3996695084235347	# cy
   4	0.086	3.3996695084235347	# cp
   5	0.015	2.59964245953351	# ha
   6	0.0157	2.649532787749369	# hc

Bond Coeffs

   1	321.2	1.5154	# ca,cy
   2	461.1	1.3984	# ca,ca
   3	345.8	1.086	# ca,ha
   4	300.9	1.5375	# c3,c3
   5	305.9	1.5319	# c3,cy
   6	450.2	1.4058	# ca,cp
   7	351.4	1.4854	# cp,cp
   8	321.0	1.5156	# c3,ca
   9	330.6	1.0969	# c3,hc
  10	333.3	1.0949	# cy,hc
  11	285.0	1.5562	# cy,cy

Angle Coeffs

   1	66.72	118.38	# ca,cp,ca
   2	46.8	110.47	# ca,c3,hc
   3	62.86	111.51	# c3,c3,c3
   4	46.43	110.14	# c3,cy,hc
   5	63.43	120.63	# c3,ca,cp
   6	63.56	112.24	# ca,c3,ca
   7	64.05	121.11	# ca,cp,cp
   8	66.62	120.02	# ca,ca,ca
   9	47.98	119.86	# cp,ca,ha
  10	39.4	107.58	# hc,c3,hc
  11	63.53	120.77	# c3,ca,ca
  12	63.51	120.86	# ca,ca,cy
  13	62.8	113.57	# c3,cy,ca
  14	67.9	96.03	# cy,c3,cy
  15	61.4	116.81	# ca,cy,cy
  16	63.15	112.07	# c3,c3,ca
  17	45.97	114.53	# ca,cy,hc
  18	66.26	120.69	# ca,ca,cp
  19	46.34	109.8	# c3,c3,hc
  20	48.18	119.88	# ca,ca,ha
  21	62.73	112.39	# c3,c3,cy
  22	46.29	110.75	# cy,c3,hc
  23	44.83	114.79	# cy,cy,hc
  24	60.66	118.7	# c3,cy,cy

Dihedral Coeffs

   1	1	0.15555555555555556	3	0	# X,cy,cy,X
   2	1	3.625	2	180	# X,ca,cp,X
   3	3	0.18	3	0	0.25	2	180	0.2	1	180	# c3,c3,c3,c3
   4	1	0.16	3	0	# hc,c3,c3,c3
   5	1	0.0	2	0.0	# ca,ca,cy,cy
   6	1	1.0	2	180	# X,cp,cp,X
   7	1	0.0	2	0.0	# ca,ca,cy,c3
   8	3	0.38	3	180.0	0.0	2	0.0	1.15	1	0.0	# ca,ca,cy,hc
   9	1	0.0	2	0	# X,c3,ca,X
  10	1	0.16	3	0.0	# cy,c3,cy,ca
  11	1	0.15555555555555556	3	0	# X,c3,c3,X
  12	1	0.16	3	0.0	# c3,c3,cy,ca
  13	1	0.16	3	0.0	# hc,c3,cy,ca
  14	3	0.18	3	0.0	0.25	2	180.0	0.2	1	180.0	# cy,c3,cy,cy
  15	1	0.15	3	0	# hc,c3,c3,hc
  16	3	0.18	3	0.0	0.25	2	180.0	0.2	1	180.0	# c3,c3,cy,cy
  17	1	0.16	3	0.0	# hc,c3,cy,cy
  18	1	0.16	3	0.0	# cy,c3,cy,hc
  19	1	0.16	3	0.0	# c3,c3,cy,hc
  20	1	0.15	3	0.0	# hc,c3,cy,hc
  21	1	3.625	2	180	# X,ca,ca,X

Improper Coeffs

   1	1.1	-1	2	# ca,ca,ca,c3
   2	1.1	-1	2	# ca,X,X,ha

Atoms

   1	1	1	0.055893	13.3771	51.0401	6.44277
   2	1	1	0.066037	12.332	50.232	6.03648
   3	1	1	-0.13485	12.3172	48.8322	6.16926
   4	1	1	-0.112685	13.4352	48.3583	6.88168
   5	1	1	-0.113466	14.5916	50.5344	6.94358
   6	1	2	0.031197	14.7269	46.1745	5.89346
   7	1	1	-0.092412	14.519	49.1559	7.21733
   8	1	3	0.085064	15.4564	47.9739	7.43375
   9	1	3	0.073163	14.2098	47.0596	7.06567
  10	1	3	-0.014897	14.8127	47.1803	4.71386
  11	1	2	0.044047	16.5593	47.5208	6.42298
  12	1	1	-0.216606	15.7158	45.5017	2.82789
  13	1	3	-0.029794	16.0595	48.0865	5.06265
  14	1	2	-0.27828	16.2151	46.0065	6.3179
  15	1	1	0.002791	16.6968	47.5065	3.80545
  16	1	1	-0.015593	15.6039	46.7176	3.50958
  17	1	1	-0.275006	18.0025	47.1617	3.42071
  18	1	1	-0.00175	18.1248	46.0131	2.60189
  19	1	4	0.011736	17.0011	45.201	2.32104
  20	1	2	0.056595	19.4291	45.3584	2.10369
  21	1	3	-0.006078	18.9429	40.398	0.178727
  22	1	4	0.009572	17.463	43.9652	1.68483
  23	1	1	0.047642	18.8771	44.0302	1.53792
  24	1	1	-0.203391	19.6063	42.9404	0.997712
  25	1	1	-0.073691	18.8276	41.8247	0.679144
  26	1	1	-0.02876	17.4744	41.7573	0.854157
  27	1	3	0.009648	17.3686	40.3143	0.397459
  28	1	1	-0.19087	16.7069	42.8118	1.34608
  29	1	2	0.036362	19.0882	40.1192	-1.3352
  30	1	2	0.011094	18.5212	41.2781	-2.20187
  31	1	2	-0.166666	17.9773	39.0666	-1.51632
  32	1	2	-0.004747	16.9872	41.1686	-1.99684
  33	1	2	0.045805	16.839	39.9766	-1.01593
  34	1	2	-0.016724	20.069	46.2443	1.00076
  35	1	2	-0.038268	20.4094	45.1346	3.2948
  36	1	2	0.015931	21.494	45.8147	0.585309
  37	1	2	0.006127	21.8461	44.7347	2.88198
  38	1	2	-0.02901	22.429	45.6758	1.80506
  39	1	6	0.060706	11.3243	48.062	4.40241
  40	1	6	0.109818	15.7228	52.2536	7.62054
  41	1	6	0.034398	14.1682	45.2497	5.70247
  42	1	6	0.029719	15.8072	47.8499	8.46412
  43	1	6	0.036789	13.8614	46.4325	7.89357
  44	1	6	0.059436	13.8764	47.6736	4.44697
  45	1	6	0.028349	17.5938	47.7634	6.69625
  46	1	5	0.156131	14.8996	44.7883	2.78621
  47	1	6	0.059364	15.9243	49.1713	5.0365
  48	1	6	0.111824	16.8205	45.4781	5.5691
  49	1	6	0.047288	16.3187	45.4869	7.2801
  50	1	5	0.182101	18.8659	47.6953	3.80366
  51	1	6	0.044359	19.5446	39.7134	0.786758
  52	1	5	0.179067	20.6816	42.9366	0.872819
  53	1	6	0.038058	17.0341	39.5903	1.14844
  54	1	5	0.140142	15.6348	42.7402	1.49707
  55	1	6	0.008074	20.0846	39.7809	-1.64221
  56	1	6	-0.001887	18.9079	42.2598	-1.90385
  57	1	6	0.034873	18.123	38.1784	-0.885767
  58	1	6	0.057592	17.8502	38.7511	-2.557
  59	1	6	0.004826	16.5478	42.0922	-1.60238
  60	1	6	0.004917	15.8447	39.5129	-1.03224
  61	1	6	0.011371	20.1153	47.2816	1.35728
  62	1	6	0.016934	19.4228	46.2463	0.118885
  63	1	6	0.017694	19.9985	44.3814	3.97969
  64	1	6	0.024086	20.4889	46.0625	3.87366
  65	1	6	0.001925	21.9087	46.5543	-0.111478
  66	1	6	-0.011831	21.4551	44.8665	0.0380371
  67	1	6	-0.015908	21.8615	43.7021	2.51914
  68	1	6	0.008977	22.4943	44.7528	3.76732
  69	1	6	0.008233	22.5928	46.6678	2.24573
  70	1	6	0.006802	23.4096	45.3057	1.48023
  71	1	2	-0.163429	11.2967	47.9351	5.49175
  72	1	6	0.069136	11.4847	46.8773	5.71342
  73	1	6	0.097616	10.2819	48.1736	5.83317
  74	1	2	-0.211261	15.8715	51.3469	7.02118
  75	1	6	0.077702	16.6837	50.7701	7.48067
  76	1	6	0.070844	16.2005	51.6541	6.0205
  77	1	1	0.055893	17.2424	44.7919	-2.52872
  78	1	1	0.066037	15.5498	44.6145	-2.78515
  79	1	1	-0.13485	14.3797	45.6932	-3.19663
  80	1	1	-0.112685	14.7173	47.2044	-3.61692
  81	1	1	-0.113466	17.9328	46.1173	-3.02329
  82	1	2	0.031197	13.3896	49.5889	-3.78085
  83	1	1	-0.092412	16.2119	47.7017	-3.61315
  84	1	3	0.085064	15.7248	48.9582	-4.42548
  85	1	3	0.073163	14.211	48.4073	-4.39425
  86	1	3	-0.014897	13.8333	49.6017	-2.29191
  87	1	2	0.044047	15.5808	50.4035	-3.86333
  88	1	1	-0.216606	12.6637	51.3093	-0.486085
  89	1	3	-0.029794	15.3215	50.1471	-2.36853
  90	1	2	-0.27828	14.168	50.7897	-4.39167
  91	1	1	0.002791	14.8337	51.3304	-1.57712
  92	1	1	-0.015593	13.5466	50.8643	-1.48084
  93	1	1	-0.275006	15.3904	52.2878	-0.729987
  94	1	1	-0.00175	14.4923	52.8446	0.204037
  95	1	4	0.011736	13.158	52.3712	0.323346
  96	1	2	0.056595	14.845	53.8537	1.30607
  97	1	3	-0.006078	11.4465	54.2828	5.23588
  98	1	4	0.009572	12.5443	53.0368	1.48597
  99	1	1	0.047642	13.5059	53.9136	2.052
 100	1	1	-0.203391	13.272	54.5746	3.27523
 101	1	1	-0.073691	12.0077	54.3703	3.83398
 102	1	1	-0.02876	11.0703	53.5126	3.30068
 103	1	3	0.009648	10.3325	53.329	4.62537
 104	1	1	-0.19087	11.3108	52.7673	2.13648
 105	1	2	0.036362	12.1518	53.3784	6.27934
 106	1	2	0.011094	12.9348	52.2113	5.5884
 107	1	2	-0.166666	10.8991	52.6574	6.82745
 108	1	2	-0.004747	11.7754	51.2663	5.07559
 109	1	2	0.045805	10.4878	52.0355	5.47164
 110	1	2	-0.016724	15.9731	53.2852	2.227
 111	1	2	-0.038268	15.2045	55.2489	0.713324
 112	1	2	0.015931	16.876	54.3823	2.83374
 113	1	2	0.006127	16.7195	55.4235	0.460172
 114	1	2	-0.02901	17.5673	55.2396	1.74498
 115	1	6	0.060706	12.6663	44.771	-4.14279
 116	1	6	0.109818	19.6091	44.9841	-2.05288
 117	1	6	0.034398	12.3076	49.5714	-3.96213
 118	1	6	0.029719	16.1124	49.0664	-5.44011
 119	1	6	0.036789	13.7991	48.1532	-5.37677
 120	1	6	0.059436	13.6127	48.67	-1.76269
 121	1	6	0.028349	16.394	51.1011	-4.10032
 122	1	5	0.156131	11.7059	50.8344	-0.30186
 123	1	6	0.059364	16.1258	49.634	-1.85675
 124	1	6	0.111824	13.8199	51.7617	-4.01622
 125	1	6	0.047288	14.123	50.8022	-5.48916
 126	1	5	0.182101	16.4508	52.5161	-0.738515
 127	1	6	0.044359	11.0705	55.2148	5.67254
 128	1	5	0.179067	14.0508	55.1095	3.80684
 129	1	6	0.038058	9.3135	53.7288	4.66843
 130	1	5	0.140142	10.6518	51.9677	1.81451
 131	1	6	0.008074	12.7341	53.9183	7.03649
 132	1	6	-0.001887	13.6708	52.4901	4.82671
 133	1	6	0.034873	10.1448	53.3552	7.21751
 134	1	6	0.057592	11.1196	51.919	7.60939
 135	1	6	0.004826	11.8604	50.9689	4.02405
 136	1	6	0.004917	9.59174	51.4039	5.51687
 137	1	6	0.011371	16.6204	52.608	1.65626
 138	1	6	0.016934	15.538	52.6739	3.02843
 139	1	6	0.017694	14.8864	56.0367	1.40857
 140	1	6	0.024086	14.6465	55.4184	-0.216739
 141	1	6	0.001925	17.6356	53.927	3.4819
 142	1	6	-0.011831	16.2733	55.0355	3.4754
 143	1	6	-0.015908	16.9148	56.4144	0.0310577
 144	1	6	0.008977	17.0433	54.6944	-0.291761
 145	1	6	0.008233	18.5252	54.7795	1.46985
 146	1	6	0.006802	17.8071	56.2217	2.17218
 147	1	2	-0.163429	12.9313	45.2461	-3.1904
 148	1	6	0.069136	12.7475	44.5225	-2.38679
 149	1	6	0.097616	12.2574	46.0978	-3.03663
 150	1	2	-0.211261	19.495	45.819	-2.75756
 151	1	6	0.077702	20.0408	45.4615	-3.6357
 152	1	6	0.070844	20.0402	46.6269	-2.25662
 153	1	1	0.055893	28.1867	41.5243	-7.60568
 154	1	1	0.066037	27.3485	40.8431	-8.47449
 155	1	1	-0.13485	26.7366	41.4859	-9.56846
 156	1	1	-0.112685	27.3086	42.7368	-9.85764
 157	1	1	-0.113466	28.6852	42.8208	-7.83384
 158	1	2	0.031197	25.6631	44.8798	-10.2636
 159	1	1	-0.092412	28.2805	43.3446	-9.07842
 160	1	3	0.085064	28.086	44.7096	-9.73962
 161	1	3	0.073163	26.9331	44.0196	-10.5867
 162	1	3	-0.014897	25.3445	44.5361	-8.77573
 163	1	2	0.044047	27.38	45.9283	-9.07645
 164	1	1	-0.216606	23.087	45.6799	-7.64819
 165	1	3	-0.029794	26.5228	45.2503	-7.98607
 166	1	2	-0.27828	26.3268	46.2841	-10.1657
 167	1	1	0.002791	25.4583	46.1086	-7.36115
 168	1	1	-0.015593	24.4273	45.4907	-8.01103
 169	1	1	-0.275006	25.3144	47.0152	-6.31517
 170	1	1	-0.00175	23.9756	47.2933	-5.96307
 171	1	4	0.011736	22.8865	46.638	-6.61112
 172	1	2	0.056595	23.4965	48.1983	-4.81435
 173	1	3	-0.006078	18.3947	48.313	-3.48885
 174	1	4	0.009572	21.6438	47.026	-5.91799
 175	1	1	0.047642	21.9911	47.9236	-4.87758
 176	1	1	-0.203391	21.0295	48.4608	-4.00202
 177	1	1	-0.073691	19.7154	48.0455	-4.21857
 178	1	1	-0.02876	19.348	47.1381	-5.24915
 179	1	3	0.009648	17.8164	47.087	-5.09575
 180	1	1	-0.19087	20.3006	46.6111	-6.1375
 181	1	2	0.036362	17.5169	47.6483	-1.66591
 182	1	2	0.011094	17.0315	45.7944	-1.92857
 183	1	2	-0.166666	16.0658	46.6047	-1.7335
 184	1	2	-0.004747	16.4172	44.6751	-3.58143
 185	1	2	0.045805	16.3428	45.7079	-4.46575
 186	1	2	-0.016724	24.0483	47.7744	-3.41724
 187	1	2	-0.038268	23.7701	49.7015	-5.10578
 188	1	2	0.015931	25.483	48.2607	-3.10364
 189	1	2	0.006127	25.2261	50.1382	-4.82719
 190	1	2	-0.02901	25.6709	49.7647	-3.39715
 191	1	6	0.060706	24.5961	41.148	-9.57013
 192	1	6	0.109818	29.696	44.6175	-7.13843
 193	1	6	0.034398	24.8274	44.7894	-10.9688
 194	1	6	0.029719	28.936	45.047	-10.3427
 195	1	6	0.036789	27.1237	44.0076	-11.6654
 196	1	6	0.059436	25.1506	43.4758	-8.58878
 197	1	6	0.028349	28.0315	46.7455	-8.74225
 198	1	5	0.156131	22.276	45.1012	-8.07832
 199	1	6	0.059364	27.0775	44.6901	-7.23701
 200	1	6	0.111824	25.6264	47.0686	-9.84813
 201	1	6	0.047288	26.7935	46.5925	-11.111
 202	1	5	0.182101	26.1728	47.4248	-5.79991
 203	1	6	0.044359	18.1746	49.382	-3.57902
 204	1	5	0.179067	21.2882	49.1384	-3.19482
 205	1	6	0.038058	17.415	47.5682	-5.9914
 206	1	5	0.140142	20.0287	45.9308	-6.93804
 207	1	6	0.008074	18.0274	47.7922	-0.706935
 208	1	6	-0.001887	17.4283	45.2337	-0.986233
 209	1	6	0.034873	15.4011	47.4657	-1.48874
 210	1	6	0.057592	15.3895	46.192	-0.852484
 211	1	6	0.004826	16.6445	43.6442	-4.06859
 212	1	6	0.004917	15.5347	45.5587	-5.21129
 213	1	6	0.011371	24.0001	46.685	-3.30688
 214	1	6	0.016934	23.3952	48.185	-2.63734
 215	1	6	0.017694	23.1115	50.3153	-4.47796
 216	1	6	0.024086	23.508	49.9341	-6.14621
 217	1	6	0.001925	26.2135	47.6778	-3.673
 218	1	6	-0.011831	25.7052	48.0686	-2.04624
 219	1	6	-0.015908	25.3126	51.2236	-4.96332
 220	1	6	0.008977	25.9021	49.6799	-5.5581
 221	1	6	0.008233	26.7226	50.042	-3.25102
 222	1	6	0.006802	25.0847	50.3479	-2.67503
 223	1	2	-0.163429	25.4626	40.9819	-10.2225
 224	1	6	0.069136	25.2727	41.4953	-11.1732
 225	1	6	0.097616	25.5263	39.9064	-10.4289
 226	1	2	-0.211261	29.4358	43.615	-6.77708
 227	1	6	0.077702	28.8349	43.7277	-5.86608
 228	1	6	0.070844	30.3685	43.1075	-6.50135
 229	1	1	0.055893	14.7318	40.2429	-10.294
 230	1	1	0.066037	15.137	38.9601	-10.6253
 231	1	1	-0.13485	15.918	38.161	-9.77602
 232	1	1	-0.112685	16.4299	38.86	-8.67347
 233	1	1	-0.113466	15.0721	40.8553	-9.0667
 234	1	2	0.031197	18.1697	38.3159	-6.71248
 235	1	1	-0.092412	16.0489	40.1543	-8.32926
 236	1	3	0.085064	16.284	39.921	-6.83241
 237	1	3	0.073163	16.7204	38.4585	-7.2444
 238	1	3	-0.014897	18.9646	39.2784	-7.64164
 239	1	2	0.044047	17.5181	40.4495	-6.02464
 240	1	1	-0.216606	21.4962	38.9042	-6.79399
 241	1	3	-0.029794	18.5684	40.7275	-7.12835
 242	1	2	-0.27828	18.0288	39.122	-5.39315
 243	1	1	0.002791	20.0306	40.8502	-6.69263
 244	1	1	-0.015593	20.3611	39.6099	-7.18202
 245	1	1	-0.275006	20.8016	41.506	-5.71222
 246	1	1	-0.00175	22.0354	40.8775	-5.38509
 247	1	4	0.011736	22.3637	39.6127	-5.93394
 248	1	2	0.056595	23.1502	41.3355	-4.40722
 249	1	3	-0.006078	27.7177	38.7396	-4.84515
 250	1	4	0.009572	23.6593	39.1823	-5.4181
 251	1	1	0.047642	24.1538	40.1691	-4.53813
 252	1	1	-0.203391	25.488	40.1155	-4.05556
 253	1	1	-0.073691	26.2514	39.0059	-4.46544
 254	1	1	-0.02876	25.7564	38.0804	-5.36363
 255	1	3	0.009648	27.1104	37.7761	-5.9472
 256	1	1	-0.19087	24.4703	38.135	-5.90102
 257	1	2	0.036362	28.5746	39.7284	-5.69249
 258	1	2	0.011094	27.6747	40.7705	-6.38735
 259	1	2	-0.166666	28.9622	38.8212	-6.8843
 260	1	2	-0.004747	26.8407	39.9009	-7.40329
 261	1	2	0.045805	27.5074	38.4781	-7.27217
 262	1	2	-0.016724	23.8235	42.6591	-4.87671
 263	1	2	-0.038268	22.6618	41.4117	-2.93152
 264	1	2	0.015931	23.0571	43.9365	-4.47647
 265	1	2	0.006127	21.9112	42.7132	-2.57057
 266	1	2	-0.02901	22.7241	43.9585	-2.97196
 267	1	6	0.060706	15.2231	36.1759	-9.25347
 268	1	6	0.109818	13.8709	42.6528	-9.25673
 269	1	6	0.034398	18.5554	37.2926	-6.62308
 270	1	6	0.029719	15.3811	39.9836	-6.21516
 271	1	6	0.036789	16.0914	37.6508	-6.85392
 272	1	6	0.059436	18.8949	39.0665	-8.71413
 273	1	6	0.028349	17.3224	41.2748	-5.32909
 274	1	5	0.156131	21.6805	37.8795	-7.09914
 275	1	6	0.059364	18.2479	41.4596	-7.87803
 276	1	6	0.111824	18.9801	39.2332	-4.85528
 277	1	6	0.047288	17.2862	38.6743	-4.72062
 278	1	5	0.182101	20.4558	42.4147	-5.23275
 279	1	6	0.044359	28.3206	38.2371	-4.08092
 280	1	5	0.179067	25.9359	40.9426	-3.51438
 281	1	6	0.038058	27.4481	36.7349	-5.89684
 282	1	5	0.140142	24.1749	37.5269	-6.74983
 283	1	6	0.008074	29.43	40.1681	-5.1645
 284	1	6	-0.001887	27.07	41.3986	-5.72326
 285	1	6	0.034873	29.5404	37.94	-6.5724
 286	1	6	0.057592	29.5217	39.3342	-7.67732
 287	1	6	0.004826	25.7559	39.9574	-7.26858
 288	1	6	0.004917	27.4094	37.8536	-8.1689
 289	1	6	0.011371	23.9711	42.6412	-5.96466
 290	1	6	0.016934	24.8244	42.7362	-4.43574
 291	1	6	0.017694	23.5327	41.3372	-2.26732
 292	1	6	0.024086	22.031	40.5436	-2.70606
 293	1	6	0.001925	22.1352	44.0242	-5.06354
 294	1	6	-0.011831	23.6764	44.805	-4.71896
 295	1	6	-0.015908	21.7101	42.7342	-1.49227
 296	1	6	0.008977	20.9385	42.7375	-3.07214
 297	1	6	0.008233	22.1692	44.8702	-2.72438
 298	1	6	0.006802	23.6554	43.9895	-2.39165
 299	1	2	-0.163429	15.9856	36.6482	-9.88493
 300	1	6	0.069136	15.8227	36.3167	-10.9182
 301	1	6	0.097616	16.967	36.2755	-9.56634
 302	1	2	-0.211261	14.28	42.0052	-8.47123
 303	1	6	0.077702	13.4421	41.6318	-7.86978
 304	1	6	0.070844	14.9119	42.625	-7.82279
 305	1	1	0.055893	6.63341	33.7961	-23.4828
 306	1	1	0.066037	7.37174	32.754	-22.9453
 307	1	1	-0.13485	7.78706	32.7426	-21.5983
 308	1	1	-0.112685	7.60427	33.9702	-20.9335
 309	1	1	-0.113466	6.27006	34.9405	-22.7499
 310	1	2	0.031197	8.13088	35.0031	-18.4722
 311	1	1	-0.092412	6.89	35.0288	-21.4918
 312	1	3	0.085064	6.39382	35.5296	-20.1445
 313	1	3	0.073163	7.18823	34.3225	-19.5087
 314	1	3	-0.014897	9.188	35.6892	-19.3779
 315	1	2	0.044047	6.97732	36.7864	-19.433
 316	1	1	-0.216606	10.611	36.8434	-17.423
 317	1	3	-0.029794	8.40775	36.8953	-20.0367
 318	1	2	-0.27828	7.22967	36.1887	-18.0194
 319	1	1	0.002791	9.3767	37.7994	-19.2911
 320	1	1	-0.015593	10.0493	36.7433	-18.7033
 321	1	1	-0.275006	9.23559	39.048	-18.6665
 322	1	1	-0.00175	9.9097	39.2126	-17.4348
 323	1	4	0.011736	10.5814	38.1281	-16.8276
 324	1	2	0.056595	9.82345	40.4249	-16.4873
 325	1	3	-0.006078	11.0316	39.4204	-11.4469
 326	1	4	0.009572	10.9487	38.5172	-15.4607
 327	1	1	0.047642	10.5141	39.8489	-15.2294
 328	1	1	-0.203391	10.5848	40.4195	-13.9333
 329	1	1	-0.073691	11.1892	39.6269	-12.9486
 330	1	1	-0.02876	11.5842	38.3294	-13.1807
 331	1	3	0.009648	11.498	37.9284	-11.7241
 332	1	1	-0.19087	11.4342	37.6941	-14.4151
 333	1	2	0.036362	12.1028	39.9371	-10.4484
 334	1	2	0.011094	13.4731	40.1596	-11.1539
 335	1	2	-0.166666	12.3526	38.6297	-9.6602
 336	1	2	-0.004747	13.9293	38.6897	-11.4992
 337	1	2	0.045805	12.7929	37.8069	-10.8926
 338	1	2	-0.016724	10.621	41.6125	-17.0916
 339	1	2	-0.038268	8.32808	40.8009	-16.2393
 340	1	2	0.015931	10.4112	42.9447	-16.338
 341	1	2	0.006127	8.09481	42.1744	-15.5647
 342	1	2	-0.02901	8.91441	43.3034	-16.2259
 343	1	6	0.060706	8.56112	30.7158	-21.5289
 344	1	6	0.109818	5.31465	36.8831	-22.8589
 345	1	6	0.034398	8.5213	34.3572	-17.6758
 346	1	6	0.029719	5.3065	35.496	-20.0145
 347	1	6	0.036789	6.57139	33.5653	-19.0125
 348	1	6	0.059436	9.73848	35.0094	-20.0378
 349	1	6	0.028349	6.36284	37.6945	-19.4739
 350	1	5	0.156131	10.936	35.967	-16.8723
 351	1	6	0.059364	8.44228	36.9957	-21.1271
 352	1	6	0.111824	7.73843	36.8863	-17.341
 353	1	6	0.047288	6.30268	35.8482	-17.5384
 354	1	5	0.182101	8.55886	39.7995	-19.0594
 355	1	6	0.044359	10.0182	39.5445	-11.0496
 356	1	5	0.179067	10.1398	41.3732	-13.6831
 357	1	6	0.038058	10.7796	37.1379	-11.4799
 358	1	5	0.140142	11.5879	36.6272	-14.54
 359	1	6	0.008074	11.7799	40.7832	-9.82925
 360	1	6	-0.001887	13.4665	40.8433	-12.0126
 361	1	6	0.034873	11.439	38.2365	-9.19254
 362	1	6	0.057592	13.1237	38.7145	-8.88398
 363	1	6	0.004826	14.1704	38.5194	-12.5563
 364	1	6	0.004917	13.0953	36.7766	-10.6687
 365	1	6	0.011371	10.3099	41.7579	-18.1345
 366	1	6	0.016934	11.6911	41.3686	-17.1191
 367	1	6	0.017694	7.83736	40.0129	-15.6533
 368	1	6	0.024086	7.80283	40.8338	-17.2008
 369	1	6	0.001925	10.9413	43.7488	-16.8638
 370	1	6	-0.011831	10.853	42.8822	-15.3364
 371	1	6	-0.015908	8.33327	42.1203	-14.4985
 372	1	6	0.008977	7.02761	42.4246	-15.6183
 373	1	6	0.008233	8.51553	43.4973	-17.2301
 374	1	6	0.006802	8.79659	44.2312	-15.6519
 375	1	2	-0.163429	8.13008	31.4653	-20.8533
 376	1	6	0.069136	8.86166	31.6582	-20.0588
 377	1	6	0.097616	7.23566	31.03	-20.3909
 378	1	2	-0.211261	5.11648	35.8436	-23.1483
 379	1	6	0.077702	4.95445	35.8255	-24.2334
 380	1	6	0.070844	4.18562	35.5278	-22.6616
 381	1	1	0.055893	8.9425	23.7681	-35.1717
 382	1	1	0.066037	9.49127	22.9923	-34.1745
 383	1	1	-0.13485	8.83836	22.6988	-32.9592
 384	1	1	-0.112685	7.50717	23.1641	-32.9733
 385	1	1	-0.113466	7.62597	24.2547	-35.1832
 386	1	2	0.031197	6.20821	24.4064	-30.9044
 387	1	1	-0.092412	6.93005	23.8382	-34.0359
 388	1	3	0.085064	5.63715	24.1174	-33.2943
 389	1	3	0.073163	6.29601	23.3538	-32.0606
 390	1	3	-0.014897	7.28686	25.4532	-31.2952
 391	1	2	0.044047	5.27388	25.5194	-32.7331
 392	1	1	-0.216606	6.97465	27.3111	-29.3218
 393	1	3	-0.029794	6.67066	26.1804	-32.5605
 394	1	2	-0.27828	4.88045	25.1276	-31.2799
 395	1	1	0.002791	6.69887	27.442	-31.7338
 396	1	1	-0.015593	7.2096	26.8192	-30.6163
 397	1	1	-0.275006	5.93182	28.6083	-31.6882
 398	1	1	-0.00175	5.815	29.2063	-30.4176
 399	1	4	0.011736	6.32617	28.5748	-29.2553
 400	1	2	0.056595	4.98712	30.4533	-30.0794
 401	1	3	-0.006078	3.97534	31.2881	-24.9695
 402	1	4	0.009572	5.87737	29.3484	-28.0833
 403	1	1	0.047642	5.09513	30.4413	-28.5478
 404	1	1	-0.203391	4.40935	31.2959	-27.6555
 405	1	1	-0.073691	4.63877	31.0323	-26.3046
 406	1	1	-0.02876	5.40252	29.9892	-25.8447
 407	1	3	0.009648	4.8569	30.0793	-24.4261
 408	1	1	-0.19087	6.01108	29.0593	-26.6973
 409	1	2	0.036362	4.43708	32.4835	-24.1063
 410	1	2	0.011094	5.89921	32.8999	-24.4643
 411	1	2	-0.166666	4.61788	31.7375	-22.7646
 412	1	2	-0.004747	6.75884	31.7155	-23.8775
 413	1	2	0.045805	5.68296	30.7492	-23.2966
 414	1	2	-0.016724	5.65775	31.7225	-30.6844
 415	1	2	-0.038268	3.50139	30.2863	-30.5333
 416	1	2	0.015931	4.66647	32.8919	-30.8788
 417	1	2	0.006127	3.18882	31.0001	-31.8677
 418	1	2	-0.02901	3.47742	32.5202	-31.8012
 419	1	6	0.060706	8.80335	21.2781	-31.3238
 420	1	6	0.109818	7.40748	24.8452	-37.258
 421	1	6	0.034398	6.27001	24.0092	-29.8834
 422	1	6	0.029719	4.75089	23.6219	-33.7056
 423	1	6	0.036789	5.78111	22.4287	-31.7793
 424	1	6	0.059436	8.29972	25.0469	-31.3863
 425	1	6	0.028349	4.53125	26.0919	-33.303
 426	1	5	0.156131	7.20607	26.7338	-28.4328
 427	1	6	0.059364	7.27732	26.2515	-33.467
 428	1	6	0.111824	4.6667	25.9977	-30.6446
 429	1	6	0.047288	4.01556	24.4511	-31.2497
 430	1	5	0.182101	5.40641	28.9789	-32.561
 431	1	6	0.044359	2.88882	31.1515	-24.9331
 432	1	5	0.179067	3.70441	32.0516	-27.9853
 433	1	6	0.038058	4.30671	29.204	-24.0637
 434	1	5	0.140142	6.4922	28.158	-26.3316
 435	1	6	0.008074	3.72904	33.3205	-24.0703
 436	1	6	-0.001887	6.09732	33.1319	-25.5187
 437	1	6	0.034873	3.69969	31.232	-22.4338
 438	1	6	0.057592	4.96849	32.3774	-21.9451
 439	1	6	0.004826	7.46812	31.275	-24.59
 440	1	6	0.004917	6.07064	30.0532	-22.5427
 441	1	6	0.011371	6.08805	31.4789	-31.6648
 442	1	6	0.016934	6.49739	32.0429	-30.0538
 443	1	6	0.017694	2.82648	30.6999	-29.774
 444	1	6	0.024086	3.24618	29.2212	-30.6105
 445	1	6	0.001925	5.19206	33.7628	-31.2904
 446	1	6	-0.011831	4.28001	33.2002	-29.9002
 447	1	6	-0.015908	2.13967	30.836	-32.1444
 448	1	6	0.008977	3.79288	30.5557	-32.6674
 449	1	6	0.008233	3.6721	32.8846	-32.818
 450	1	6	0.006802	2.58199	33.0483	-31.4489
 451	1	2	-0.163429	9.48789	22.0062	-31.7763
 452	1	6	0.069136	10.3959	21.4698	-32.0791
 453	1	6	0.097616	9.7671	22.733	-31.0036
 454	1	2	-0.211261	7.04676	25.1455	-36.2663
 455	1	6	0.077702	5.95108	25.0925	-36.2784
 456	1	6	0.070844	7.33309	26.1921	-36.1058
 457	1	1	0.055893	16.3544	12.229	-43.2113
 458	1	1	0.066037	16.677	11.9408	-41.897
 459	1	1	-0.13485	15.7079	11.6883	-40.9062
 460	1	1	-0.112685	14.4123	11.5456	-41.4416
 461	1	1	-0.113466	15.0446	12.235	-43.7188
 462	1	2	0.031197	12.3536	12.8988	-40.2299
 463	1	1	-0.092412	14.105	11.7837	-42.7739
 464	1	3	0.085064	12.6171	11.9462	-42.5029
 465	1	3	0.073163	12.9599	11.6645	-40.9778
 466	1	3	-0.014897	13.3305	14.0466	-40.5953
 467	1	2	0.044047	11.891	13.3247	-42.4797
 468	1	1	-0.216606	12.3046	16.2738	-39.3549
 469	1	3	-0.029794	13.0369	14.3163	-42.1313
 470	1	2	-0.27828	11.1212	13.1958	-41.1338
 471	1	1	0.002791	12.6152	15.7015	-41.7007
 472	1	1	-0.015593	12.8492	15.4734	-40.3689
 473	1	1	-0.275006	11.8401	16.7551	-42.1872
 474	1	1	-0.00175	11.3911	17.6599	-41.2001
 475	1	4	0.011736	11.6131	17.4272	-39.8172
 476	1	2	0.056595	10.5587	18.9241	-41.4459
 477	1	3	-0.006078	9.32347	21.7826	-37.1857
 478	1	4	0.009572	10.9188	18.4827	-39.0602
 479	1	1	0.047642	10.2991	19.361	-39.9916
 480	1	1	-0.203391	9.62466	20.5225	-39.5574
 481	1	1	-0.073691	9.50981	20.6596	-38.1739
 482	1	1	-0.02876	10.1076	19.8219	-37.2653
 483	1	3	0.009648	9.99063	20.82	-36.1143
 484	1	1	-0.19087	10.9006	18.7352	-37.6598
 485	1	2	0.036362	10.3189	22.9669	-37.2678
 486	1	2	0.011094	10.2157	23.826	-35.9836
 487	1	2	-0.166666	11.6837	22.2953	-36.9906
 488	1	2	-0.004747	10.8504	22.8968	-34.8566
 489	1	2	0.045805	11.2466	21.6181	-35.6704
 490	1	2	-0.016724	11.4196	19.9484	-42.2434
 491	1	2	-0.038268	9.24143	18.5704	-42.196
 492	1	2	0.015931	10.6361	21.1601	-42.8001
 493	1	2	0.006127	8.46513	19.801	-42.7186
 494	1	2	-0.02901	9.36302	20.7322	-43.5614
 495	1	6	0.060706	16.3729	12.7329	-39.1262
 496	1	6	0.109818	15.1858	12.3289	-45.8785
 497	1	6	0.034398	12.1477	12.7635	-39.1607
 498	1	6	0.029719	11.9797	11.1833	-42.9629
 499	1	6	0.036789	12.5261	10.7352	-40.593
 500	1	6	0.059436	14.3677	13.8806	-40.2955
 501	1	6	0.028349	11.2887	13.57	-43.3634
 502	1	5	0.156131	12.3739	16.015	-38.3035
 503	1	6	0.059364	13.8796	14.3296	-42.8233
 504	1	6	0.111824	10.5926	14.1169	-40.8522
 505	1	6	0.047288	10.4008	12.3667	-41.1428
 506	1	5	0.182101	11.5856	16.8508	-43.2378
 507	1	6	0.044359	8.28229	22.0779	-37.0183
 508	1	5	0.179067	9.24384	21.2795	-40.2305
 509	1	6	0.038058	9.35906	20.5036	-35.2769
 510	1	5	0.140142	11.4861	18.1543	-36.9546
 511	1	6	0.008074	10.2748	23.5485	-38.1971
 512	1	6	-0.001887	10.694	24.8128	-36.0371
 513	1	6	0.034873	12.4959	23.0222	-36.8477
 514	1	6	0.057592	11.9906	21.5858	-37.77
 515	1	6	0.004826	11.6766	23.3888	-34.3269
 516	1	6	0.004917	12.0289	21.0148	-35.1931
 517	1	6	0.011371	11.8765	19.4337	-43.0987
 518	1	6	0.016934	12.2515	20.3023	-41.6205
 519	1	6	0.017694	8.5906	17.9714	-41.5458
 520	1	6	0.024086	9.47706	17.9381	-43.0609
 521	1	6	0.001925	11.2865	21.7319	-43.4742
 522	1	6	-0.011831	10.3701	21.8434	-41.9871
 523	1	6	-0.015908	8.03609	20.3598	-41.8796
 524	1	6	0.008977	7.61756	19.4635	-43.3285
 525	1	6	0.008233	9.65389	20.2124	-44.4836
 526	1	6	0.006802	8.79555	21.6216	-43.8631
 527	1	2	-0.163429	16.0032	11.742	-39.4179
 528	1	6	0.069136	15.1055	11.529	-38.8244
 529	1	6	0.097616	16.7674	11.0036	-39.1455
 530	1	2	-0.211261	14.6712	12.8453	-45.0587
 531	1	6	0.077702	13.5923	12.7746	-45.2443
 532	1	6	0.070844	14.9516	13.9051	-45.1004
 533	1	1	0.055893	32.6287	5.39996	-44.0955
 534	1	1	0.066037	32.2326	4.85595	-42.8854
 535	1	1	-0.13485	31.1204	5.3508	-42.1699
 536	1	1	-0.112685	30.3207	6.24593	-42.9133
 537	1	1	-0.113466	31.9713	6.46605	-44.7239
 538	1	2	0.031197	27.9148	7.34828	-42.7931
 539	1	1	-0.092412	30.7442	6.77916	-44.1249
 540	1	3	0.085064	29.9691	8.06199	-43.9531
 541	1	3	0.073163	29.4558	7.46059	-42.5797
 542	1	3	-0.014897	27.5841	8.86997	-42.704
 543	1	2	0.044047	28.6959	8.20339	-44.8176
 544	1	1	-0.216606	24.8584	9.16125	-42.9671
 545	1	3	-0.029794	28.1429	9.44542	-44.0815
 546	1	2	-0.27828	27.7847	7.04732	-44.3138
 547	1	1	0.002791	26.7163	9.82242	-44.3922
 548	1	1	-0.015593	26.2251	9.34497	-43.2054
 549	1	1	-0.275006	25.925	10.0891	-45.5106
 550	1	1	-0.00175	24.5315	10.0016	-45.288
 551	1	4	0.011736	24.0141	9.58055	-44.0318
 552	1	2	0.056595	23.399	10.2784	-46.2968
 553	1	3	-0.006078	18.6685	10.8516	-44.2766
 554	1	4	0.009572	22.5459	9.60442	-44.1047
 555	1	1	0.047642	22.1745	10.0004	-45.411
 556	1	1	-0.203391	20.8319	10.2867	-45.7347
 557	1	1	-0.073691	19.8934	10.0772	-44.717
 558	1	1	-0.02876	20.2566	9.74045	-43.4251
 559	1	3	0.009648	19.0758	10.473	-42.7982
 560	1	1	-0.19087	21.5957	9.54584	-43.054
 561	1	2	0.036362	18.7742	12.3967	-44.2906
 562	1	2	0.011094	17.6231	13.02	-43.4592
 563	1	2	-0.166666	19.9407	12.6721	-43.3131
 564	1	2	-0.004747	18.0134	12.6607	-41.9653
 565	1	2	0.045805	19.3388	11.8576	-42.144
 566	1	2	-0.016724	23.3954	11.7614	-46.7763
 567	1	2	-0.038268	23.4013	9.28711	-47.4959
 568	1	2	0.015931	24.4353	12.0776	-47.876
 569	1	2	0.006127	24.4358	9.61726	-48.5969
 570	1	2	-0.02901	24.3456	11.0882	-49.0579
 571	1	6	0.060706	29.8746	5.20697	-40.4003
 572	1	6	0.109818	31.8748	7.74898	-46.4687
 573	1	6	0.034398	27.3699	6.68379	-42.1108
 574	1	6	0.029719	30.5941	8.96271	-43.9289
 575	1	6	0.036789	29.7307	7.97631	-41.6523
 576	1	6	0.059436	27.9318	9.35309	-41.7834
 577	1	6	0.028349	28.8396	8.291	-45.9019
 578	1	5	0.156131	24.475	8.7157	-42.0549
 579	1	6	0.059364	28.8335	10.2956	-44.0286
 580	1	6	0.111824	26.7515	7.1286	-44.6776
 581	1	6	0.047288	28.1679	6.05471	-44.5841
 582	1	5	0.182101	26.3671	10.324	-46.4702
 583	1	6	0.044359	17.7116	10.4676	-44.6469
 584	1	5	0.179067	20.553	10.754	-46.6736
 585	1	6	0.038058	18.3736	9.84833	-42.2355
 586	1	5	0.140142	21.8995	9.4818	-42.0142
 587	1	6	0.008074	18.8967	12.845	-45.2845
 588	1	6	-0.001887	17.4768	14.0985	-43.6043
 589	1	6	0.034873	20.0556	13.7394	-43.0753
 590	1	6	0.057592	20.9103	12.296	-43.6619
 591	1	6	0.004826	18.094	13.553	-41.3305
 592	1	6	0.004917	19.9642	11.8306	-41.243
 593	1	6	0.011371	23.548	12.4314	-45.9201
 594	1	6	0.016934	22.4086	12.0084	-47.1856
 595	1	6	0.017694	22.4069	9.29477	-47.9611
 596	1	6	0.024086	23.5629	8.26345	-47.1336
 597	1	6	0.001925	25.4463	12.064	-47.4554
 598	1	6	-0.011831	24.2729	13.0984	-48.2448
 599	1	6	-0.015908	24.2714	8.95688	-49.4577
 600	1	6	0.008977	25.448	9.40214	-48.2381
 601	1	6	0.008233	25.1444	11.2999	-49.78
 602	1	6	0.006802	23.3937	11.2417	-49.5827
 603	1	2	-0.163429	30.9322	5.12601	-40.6809
 604	1	6	0.069136	31.2805	4.12837	-40.3854
 605	1	6	0.097616	31.4949	5.86671	-40.0997
 606	1	2	-0.211261	32.6236	7.34233	-45.7776
 607	1	6	0.077702	33.1509	8.18489	-45.3137
 608	1	6	0.070844	33.3504	6.77346	-46.371
 609	1	1	0.055893	42.9174	-8.81809	-41.9741
 610	1	1	0.066037	42.262	-8.77081	-40.7567
 611	1	1	-0.13485	41.252	-7.82981	-40.4721
 612	1	1	-0.112685	40.8101	-7.12233	-41.6084
 613	1	1	-0.113466	42.6443	-7.9375	-43.0321
 614	1	2	0.031197	38.785	-5.57458	-42.2999
 615	1	1	-0.092412	41.4869	-7.17119	-42.822
 616	1	3	0.085064	41.0632	-5.77816	-43.2295
 617	1	3	0.073163	40.2725	-5.71805	-41.8572
 618	1	3	-0.014897	38.8617	-4.08892	-42.76
 619	1	2	0.044047	39.9593	-5.6804	-44.3101
 620	1	1	-0.216606	36.6652	-2.63391	-43.4485
 621	1	3	-0.029794	39.6821	-4.1696	-44.1189
 622	1	2	-0.27828	38.7312	-6.36022	-43.6408
 623	1	1	0.002791	38.443	-3.62244	-44.7854
 624	1	1	-0.015593	37.7246	-3.539	-43.6136
 625	1	1	-0.275006	38.1892	-2.82951	-45.9059
 626	1	1	-0.00175	37.0585	-1.99058	-45.8081
 627	1	4	0.011736	36.3001	-1.90444	-44.613
 628	1	2	0.056595	36.6318	-0.935476	-46.838
 629	1	3	-0.006078	33.4803	2.80452	-45.037
 630	1	4	0.009572	35.3149	-0.820622	-44.7752
 631	1	1	0.047642	35.5027	-0.237961	-46.0554
 632	1	1	-0.203391	34.8312	0.949955	-46.4103
 633	1	1	-0.073691	33.8909	1.42206	-45.4916
 634	1	1	-0.02876	33.6707	0.842763	-44.2587
 635	1	3	0.009648	33.1645	2.14219	-43.6369
 636	1	1	-0.19087	34.4367	-0.24774	-43.816
 637	1	2	0.036362	34.6263	3.80208	-44.7029
 638	1	2	0.011094	34.0762	5.01785	-43.9168
 639	1	2	-0.166666	35.3646	3.1143	-43.5324
 640	1	2	-0.004747	33.6468	4.40029	-42.5245
 641	1	2	0.045805	34.0959	2.90977	-42.6696
 642	1	2	-0.016724	37.8328	0.0157374	-47.1443
 643	1	2	-0.038268	36.1068	-1.6356	-48.1218