pySIMM System Object

842 atoms
982 bonds
2046 angles
3788 dihedrals
66 impropers

6 atom types
11 bond types
24 angle types
21 dihedral types
2 improper types

-128.980473 128.980473 xlo xhi
-128.980473 128.980473 ylo yhi
-128.980473 128.980473 zlo zhi

Masses

   1	12.01	# ca
   2	12.01	# c3
   3	12.01	# cy
   4	12.01	# cp
   5	1.008	# ha
   6	1.008	# hc

Pair Coeffs

   1	0.086	3.3996695084235347	# ca
   2	0.1094	3.3996695084235347	# c3
   3	0.086	3.3996695084235347	# cy
   4	0.086	3.3996695084235347	# cp
   5	0.015	2.59964245953351	# ha
   6	0.0157	2.649532787749369	# hc

Bond Coeffs

   1	321.2	1.5154	# ca,cy
   2	461.1	1.3984	# ca,ca
   3	345.8	1.086	# ca,ha
   4	300.9	1.5375	# c3,c3
   5	305.9	1.5319	# c3,cy
   6	450.2	1.4058	# ca,cp
   7	351.4	1.4854	# cp,cp
   8	321.0	1.5156	# c3,ca
   9	330.6	1.0969	# c3,hc
  10	333.3	1.0949	# cy,hc
  11	285.0	1.5562	# cy,cy

Angle Coeffs

   1	66.72	118.38	# ca,cp,ca
   2	46.8	110.47	# ca,c3,hc
   3	62.86	111.51	# c3,c3,c3
   4	46.43	110.14	# c3,cy,hc
   5	63.43	120.63	# c3,ca,cp
   6	63.56	112.24	# ca,c3,ca
   7	64.05	121.11	# ca,cp,cp
   8	66.62	120.02	# ca,ca,ca
   9	47.98	119.86	# cp,ca,ha
  10	39.4	107.58	# hc,c3,hc
  11	63.53	120.77	# c3,ca,ca
  12	63.51	120.86	# ca,ca,cy
  13	62.8	113.57	# c3,cy,ca
  14	67.9	96.03	# cy,c3,cy
  15	61.4	116.81	# ca,cy,cy
  16	63.15	112.07	# c3,c3,ca
  17	45.97	114.53	# ca,cy,hc
  18	66.26	120.69	# ca,ca,cp
  19	46.34	109.8	# c3,c3,hc
  20	48.18	119.88	# ca,ca,ha
  21	62.73	112.39	# c3,c3,cy
  22	46.29	110.75	# cy,c3,hc
  23	44.83	114.79	# cy,cy,hc
  24	60.66	118.7	# c3,cy,cy

Dihedral Coeffs

   1	1	0.15555555555555556	3	0	# X,cy,cy,X
   2	1	3.625	2	180	# X,ca,cp,X
   3	3	0.18	3	0	0.25	2	180	0.2	1	180	# c3,c3,c3,c3
   4	1	0.16	3	0	# hc,c3,c3,c3
   5	1	0.0	2	0.0	# ca,ca,cy,cy
   6	1	1.0	2	180	# X,cp,cp,X
   7	1	0.0	2	0.0	# ca,ca,cy,c3
   8	3	0.38	3	180.0	0.0	2	0.0	1.15	1	0.0	# ca,ca,cy,hc
   9	1	0.0	2	0	# X,c3,ca,X
  10	1	0.16	3	0.0	# cy,c3,cy,ca
  11	1	0.15555555555555556	3	0	# X,c3,c3,X
  12	1	0.16	3	0.0	# c3,c3,cy,ca
  13	1	0.16	3	0.0	# hc,c3,cy,ca
  14	3	0.18	3	0.0	0.25	2	180.0	0.2	1	180.0	# cy,c3,cy,cy
  15	1	0.15	3	0	# hc,c3,c3,hc
  16	3	0.18	3	0.0	0.25	2	180.0	0.2	1	180.0	# c3,c3,cy,cy
  17	1	0.16	3	0.0	# hc,c3,cy,cy
  18	1	0.16	3	0.0	# cy,c3,cy,hc
  19	1	0.16	3	0.0	# c3,c3,cy,hc
  20	1	0.15	3	0.0	# hc,c3,cy,hc
  21	1	3.625	2	180	# X,ca,ca,X

Improper Coeffs

   1	1.1	-1	2	# ca,ca,ca,c3
   2	1.1	-1	2	# ca,X,X,ha

Atoms

   1	1	1	0.055893	12.0954	-15.1253	35.478
   2	1	1	0.066037	12.9471	-14.4817	34.6072
   3	1	1	-0.13485	12.8427	-13.13	34.2412
   4	1	1	-0.112685	11.8494	-12.4767	34.992
   5	1	1	-0.113466	11.0237	-14.4977	36.1426
   6	1	2	0.031197	10.0835	-10.8028	33.7973
   7	1	1	-0.092412	11.0057	-13.1095	35.8917
   8	1	3	0.085064	10.0799	-11.9019	36.0248
   9	1	3	0.073163	11.0373	-11.1928	34.969
  10	1	3	-0.014897	9.7237	-12.1793	33.1641
  11	1	2	0.044047	8.66822	-11.7952	35.3698
  12	1	1	-0.216606	8.0786	-11.5427	31.0813
  13	1	3	-0.029794	8.7515	-12.8412	34.231
  14	1	2	-0.27828	8.8059	-10.4436	34.6093
  15	1	1	0.002791	7.68392	-12.7578	33.1583
  16	1	1	-0.015593	8.52956	-12.207	32.2268
  17	1	1	-0.275006	6.28964	-12.654	33.0823
  18	1	1	-0.00175	5.79738	-12.0932	31.8804
  19	1	4	0.011736	6.67284	-11.5744	30.8945
  20	1	2	0.056595	4.32361	-11.8738	31.5011
  21	1	3	-0.006078	3.4664	-10.1671	26.5525
  22	1	4	0.009572	5.86351	-11.0246	29.8011
  23	1	1	0.047642	4.48994	-11.1957	30.1233
  24	1	1	-0.203391	3.47821	-10.8658	29.1894
  25	1	1	-0.073691	3.93053	-10.298	27.9927
  26	1	1	-0.02876	5.25922	-10.1552	27.6781
  27	1	3	0.009648	5.00207	-10.0059	26.1884
  28	1	1	-0.19087	6.2907	-10.5534	28.5334
  29	1	2	0.036362	3.04894	-11.4216	25.7447
  30	1	2	0.011094	3.68935	-12.7265	26.2922
  31	1	2	-0.166666	3.90184	-11.2228	24.4754
  32	1	2	-0.004747	5.19125	-12.5692	25.936
  33	1	2	0.045805	5.25141	-11.1912	25.2217
  34	1	2	-0.016724	3.60167	-13.2524	31.4261
  35	1	2	-0.038268	3.64646	-10.9242	32.5301
  36	1	2	0.015931	2.05818	-13.1776	31.3429
  37	1	2	0.006127	2.1113	-10.8358	32.3785
  38	1	2	-0.02901	1.45609	-12.2329	32.4056
  39	1	6	0.060706	13.6104	-13.0972	32.2155
  40	1	6	0.109818	9.43859	-15.9615	36.3377
  41	1	6	0.034398	10.4534	-10.0339	33.1076
  42	1	6	0.029719	10.0817	-11.4286	37.0127
  43	1	6	0.036789	11.5555	-10.3097	35.3583
  44	1	6	0.059436	10.5765	-12.7661	32.81
  45	1	6	0.028349	7.81079	-11.8858	36.0483
  46	1	5	0.156131	8.74682	-11.0134	30.41
  47	1	6	0.059364	8.96264	-13.8634	34.5563
  48	1	6	0.111824	7.94098	-10.2189	33.9703
  49	1	6	0.047288	8.96854	-9.59697	35.2901
  50	1	5	0.182101	5.64173	-12.9525	33.9003
  51	1	6	0.044359	2.84419	-9.29611	26.3189
  52	1	5	0.179067	2.42965	-11.0825	29.347
  53	1	6	0.038058	5.27037	-9.0419	25.7422
  54	1	5	0.140142	7.33062	-10.5743	28.2238
  55	1	6	0.008074	1.97067	-11.5055	25.5593
  56	1	6	-0.001887	3.52379	-12.8708	27.3659
  57	1	6	0.034873	3.67921	-10.2817	23.9538
  58	1	6	0.057592	3.82086	-12.06	23.7676
  59	1	6	0.004826	5.84085	-12.6256	26.8169
  60	1	6	0.004917	6.12692	-11.0717	24.5712
  61	1	6	0.011371	3.85015	-13.828	32.3269
  62	1	6	0.016934	3.98942	-13.8312	30.5777
  63	1	6	0.017694	4.0831	-9.91968	32.4551
  64	1	6	0.024086	3.86311	-11.279	33.5457
  65	1	6	0.001925	1.64066	-14.1838	31.4755
  66	1	6	-0.011831	1.74898	-12.8545	30.344
  67	1	6	-0.015908	1.8549	-10.3245	31.4435
  68	1	6	0.008977	1.69937	-10.2233	33.1905
  69	1	6	0.008233	1.59496	-12.6753	33.4007
  70	1	6	0.006802	0.374287	-12.1387	32.2473
  71	1	2	-0.163429	13.644	-12.4855	33.1257
  72	1	6	0.069136	13.2543	-11.4908	32.8769
  73	1	6	0.097616	14.6954	-12.3726	33.4178
  74	1	2	-0.211261	9.97738	-15.2346	36.958
  75	1	6	0.077702	10.4427	-15.7787	37.7892
  76	1	6	0.070844	9.24043	-14.5408	37.3813
  77	1	1	0.055893	7.81621	-16.7505	23.5267
  78	1	1	0.066037	9.22739	-15.7701	23.6519
  79	1	1	-0.13485	10.8015	-16.1357	23.9794
  80	1	1	-0.112685	11.3261	-17.6527	24.0657
  81	1	1	-0.113466	8.00718	-18.3104	23.4025
  82	1	2	0.031197	13.496	-18.9192	25.1585
  83	1	1	-0.092412	10.3087	-18.8392	23.8924
  84	1	3	0.085064	11.5297	-19.8193	23.8922
  85	1	3	0.073163	12.5435	-18.5659	23.9757
  86	1	3	-0.014897	12.5932	-18.6789	26.3867
  87	1	2	0.044047	11.9917	-20.7098	25.0987
  88	1	1	-0.216606	13.6381	-18.7628	28.8875
  89	1	3	-0.029794	11.574	-19.8918	26.3489
  90	1	2	-0.27828	13.5285	-20.4709	25.0448
  91	1	1	0.002791	12.1594	-20.2947	27.6884
  92	1	1	-0.015593	13.0684	-19.2598	27.7085
  93	1	1	-0.275006	11.6338	-20.8487	28.8638
  94	1	1	-0.00175	12.2408	-20.426	30.0693
  95	1	4	0.011736	13.2628	-19.4448	30.0729
  96	1	2	0.056595	11.7944	-20.7735	31.5026
  97	1	3	-0.006078	14.4055	-18.3401	35.4652
  98	1	4	0.009572	13.6348	-19.1679	31.4678
  99	1	1	0.047642	12.7893	-19.9298	32.3182
 100	1	1	-0.203391	12.8629	-19.8217	33.7293
 101	1	1	-0.073691	13.899	-19.0041	34.1937
 102	1	1	-0.02876	14.7504	-18.3148	33.3711
 103	1	3	0.009648	15.4011	-17.5466	34.5045
 104	1	1	-0.19087	14.6345	-18.2994	31.9782
 105	1	2	0.036362	13.6013	-17.197	36.1441
 106	1	2	0.011094	12.6308	-16.5096	35.1376
 107	1	2	-0.166666	14.7304	-16.1465	36.2671
 108	1	2	-0.004747	13.6206	-15.7559	34.1525
 109	1	2	0.045805	15.0244	-16.0688	34.7499
 110	1	2	-0.016724	10.3322	-20.2837	31.7445
 111	1	2	-0.038268	11.9753	-22.2909	31.8091
 112	1	2	0.015931	9.57725	-21.1277	32.7942
 113	1	2	0.006127	10.6932	-23.1144	31.5501
 114	1	2	-0.02901	9.48605	-22.6193	32.3875
 115	1	6	0.060706	12.0004	-14.4851	23.2574
 116	1	6	0.109818	5.76795	-18.1088	23.5647
 117	1	6	0.034398	14.4686	-18.4111	25.1674
 118	1	6	0.029719	11.6502	-20.4168	22.9839
 119	1	6	0.036789	13.14	-18.4084	23.0707
 120	1	6	0.059436	12.2207	-17.6522	26.4649
 121	1	6	0.028349	11.6681	-21.7581	25.0788
 122	1	5	0.156131	14.2469	-17.8649	28.9062
 123	1	6	0.059364	10.5072	-19.7365	26.4287
 124	1	6	0.111824	14.0655	-20.9502	25.8749
 125	1	6	0.047288	13.9713	-20.8106	24.0988
 126	1	5	0.182101	10.7506	-21.4781	28.8488
 127	1	6	0.044359	14.8911	-18.9961	36.1962
 128	1	5	0.179067	12.1755	-20.326	34.3997
 129	1	6	0.038058	16.4654	-17.7407	34.6779
 130	1	5	0.140142	15.2541	-17.6745	31.3434
 131	1	6	0.008074	13.1306	-17.4689	37.0973
 132	1	6	-0.001887	11.905	-17.1641	34.6381
 133	1	6	0.034873	15.5887	-16.5156	36.846
 134	1	6	0.057592	14.4064	-15.194	36.7068
 135	1	6	0.004826	13.4735	-15.981	33.0889
 136	1	6	0.004917	15.7991	-15.3433	34.4723
 137	1	6	0.011371	9.76141	-20.3314	30.8085
 138	1	6	0.016934	10.3313	-19.2271	32.0434
 139	1	6	0.017694	12.2515	-22.4249	32.863
 140	1	6	0.024086	12.8087	-22.6975	31.2216
 141	1	6	0.001925	8.56792	-20.7242	32.9454
 142	1	6	-0.011831	10.0913	-21.0474	33.7594
 143	1	6	-0.015908	10.8789	-24.1743	31.7652
 144	1	6	0.008977	10.4394	-23.0565	30.4851
 145	1	6	0.008233	8.56761	-22.786	31.8099
 146	1	6	0.006802	9.39421	-23.2259	33.2975
 147	1	2	-0.163429	11.7891	-15.0066	24.1989
 148	1	6	0.069136	11.3915	-14.2736	24.9115
 149	1	6	0.097616	12.7388	-15.383	24.5983
 150	1	2	-0.211261	6.49163	-18.8569	23.2152
 151	1	6	0.077702	6.19296	-19.0074	22.1736
 152	1	6	0.070844	6.23697	-19.7363	23.8189
 153	1	1	0.055893	-1.25808	-21.5232	14.7278
 154	1	1	0.066037	-0.899079	-20.3243	14.1451
 155	1	1	-0.13485	0.440425	-20.0653	13.7618
 156	1	1	-0.112685	1.22619	-21.2416	13.7314
 157	1	1	-0.113466	-0.464254	-22.6771	14.7814
 158	1	2	0.031197	3.85598	-21.4852	14.5943
 159	1	1	-0.092412	0.760112	-22.485	14.1235
 160	1	3	0.085064	2.11973	-23.1436	14.0216
 161	1	3	0.073163	2.67882	-21.7208	13.5789
 162	1	3	-0.014897	3.13351	-21.1587	15.9252
 163	1	2	0.044047	2.96415	-23.539	15.2611
 164	1	1	-0.216606	5.05025	-20.8112	17.92
 165	1	3	-0.029794	2.4646	-22.5387	16.342
 166	1	2	-0.27828	4.33626	-22.9484	14.8279
 167	1	1	0.002791	3.30484	-22.4619	17.5877
 168	1	1	-0.015593	3.92959	-21.3012	17.2293
 169	1	1	-0.275006	3.60111	-23.2121	18.7232
 170	1	1	-0.00175	4.62762	-22.6708	19.5291
 171	1	4	0.011736	5.373	-21.5296	19.112
 172	1	2	0.056595	5.07772	-23.1705	20.9144
 173	1	3	-0.006078	8.74465	-20.4673	23.6309
 174	1	4	0.009572	6.39047	-21.2504	20.1478
 175	1	1	0.047642	6.17186	-22.1434	21.2271
 176	1	1	-0.203391	6.87745	-22.0374	22.4449
 177	1	1	-0.073691	7.85453	-21.0395	22.5
 178	1	1	-0.02876	8.17705	-20.2369	21.373
 179	1	3	0.009648	9.35537	-19.4258	21.9181
 180	1	1	-0.19087	7.43554	-20.2872	20.1801
 181	1	2	0.036362	8.44975	-19.1165	25.2741
 182	1	2	0.011094	8.18046	-17.3692	24.477
 183	1	2	-0.166666	9.21697	-17.4806	25.2026
 184	1	2	-0.004747	8.86443	-16.4341	22.7432
 185	1	2	0.045805	9.71271	-17.4122	22.3615
 186	1	2	-0.016724	3.93817	-23.0777	21.9728
 187	1	2	-0.038268	5.71127	-24.5923	20.867
 188	1	2	0.015931	2.92743	-24.2469	21.927
 189	1	2	0.006127	4.68764	-25.7502	20.833
 190	1	2	-0.02901	3.63129	-25.6206	21.951
 191	1	6	0.060706	0.549932	-17.9406	14.1884
 192	1	6	0.109818	-1.76556	-24.3636	15.1685
 193	1	6	0.034398	4.62815	-20.7715	14.2807
 194	1	6	0.029719	2.19804	-23.9119	13.2444
 195	1	6	0.036789	3.05781	-21.6954	12.5515
 196	1	6	0.059436	2.48128	-20.2801	15.8727
 197	1	6	0.028349	2.95315	-24.6011	15.5361
 198	1	5	0.156131	5.60685	-19.9398	17.5911
 199	1	6	0.059364	1.39586	-22.5614	16.5599
 200	1	6	0.111824	5.10436	-23.0326	15.6088
 201	1	6	0.047288	4.7192	-23.413	13.909
 202	1	5	0.182101	3.05824	-24.1178	18.9616
 203	1	6	0.044359	9.39714	-21.2732	23.9845
 204	1	5	0.179067	6.66423	-22.6725	23.2986
 205	1	6	0.038058	10.2653	-19.7972	21.4347
 206	1	5	0.140142	7.63841	-19.6232	19.3462
 207	1	6	0.008074	7.64399	-19.3039	25.9961
 208	1	6	-0.001887	7.23669	-16.933	25.0175
 209	1	6	0.034873	10.0379	-17.7521	25.9016
 210	1	6	0.057592	9.21513	-16.6101	26.0094
 211	1	6	0.004826	8.43681	-15.8057	21.8636
 212	1	6	0.004917	10.6006	-17.0031	21.8365
 213	1	6	0.011371	3.40498	-22.1242	21.8646
 214	1	6	0.016934	4.37816	-23.0693	22.9775
 215	1	6	0.017694	6.33626	-24.7319	21.7586
 216	1	6	0.024086	6.38658	-24.672	20.0051
 217	1	6	0.001925	2.29867	-24.1677	21.0338
 218	1	6	-0.011831	2.2485	-24.172	22.7859
 219	1	6	-0.015908	5.21721	-26.7051	20.9428
 220	1	6	0.008977	4.19263	-25.786	19.8566
 221	1	6	0.008233	2.887	-26.4209	21.8526
 222	1	6	0.006802	4.11955	-25.7579	22.9247
 223	1	2	-0.163429	0.992807	-18.6752	13.5038
 224	1	6	0.069136	2.08055	-18.6476	13.6434
 225	1	6	0.097616	0.77627	-18.3537	12.4777
 226	1	2	-0.211261	-0.837491	-23.9271	15.5581
 227	1	6	0.077702	-0.0531639	-24.6909	15.4888
 228	1	6	0.070844	-0.992499	-23.6975	16.6196
 229	1	1	0.055893	2.66607	-12.2107	11.6916
 230	1	1	0.066037	1.54423	-11.4021	11.5818
 231	1	1	-0.13485	0.824701	-10.9315	12.6904
 232	1	1	-0.112685	1.22616	-11.514	13.8991
 233	1	1	-0.113466	3.19155	-12.6058	12.947
 234	1	2	0.031197	0.285733	-11.5393	16.3903
 235	1	1	-0.092412	2.34838	-12.3226	14.0448
 236	1	3	0.085064	2.57747	-11.8899	15.5066
 237	1	3	0.073163	1.27605	-11.0111	15.321
 238	1	3	-0.014897	-0.028651	-12.9759	15.8666
 239	1	2	0.044047	2.24094	-12.7414	16.7848
 240	1	1	-0.216606	-1.99646	-14.5134	16.7619
 241	1	3	-0.029794	1.26711	-13.8063	16.2368
 242	1	2	-0.27828	1.28744	-11.7809	17.553
 243	1	1	0.002791	0.366517	-14.5425	17.2359
 244	1	1	-0.015593	-0.763938	-13.8697	16.8271
 245	1	1	-0.275006	0.332098	-15.7953	17.8788
 246	1	1	-0.00175	-0.962675	-16.3503	18.0724
 247	1	4	0.011736	-2.06254	-15.7657	17.4109
 248	1	2	0.056595	-1.36847	-17.7208	18.6765
 249	1	3	-0.006078	-4.81052	-20.2278	15.7243
 250	1	4	0.009572	-3.08054	-16.7916	17.2318
 251	1	1	0.047642	-2.74887	-17.9346	17.9964
 252	1	1	-0.203391	-3.47992	-19.1443	17.845
 253	1	1	-0.073691	-4.42538	-19.1896	16.7989
 254	1	1	-0.02876	-4.51462	-18.136	15.9108
 255	1	3	0.009648	-4.68793	-19.0238	14.7086
 256	1	1	-0.19087	-3.89357	-16.9054	16.0881
 257	1	2	0.036362	-3.8288	-21.2747	15.1318
 258	1	2	0.011094	-2.38899	-20.9165	15.5156
 259	1	2	-0.166666	-3.84501	-20.8896	13.6325
 260	1	2	-0.004747	-2.1025	-19.5738	14.7288
 261	1	2	0.045805	-3.42976	-19.4213	13.8683
 262	1	2	-0.016724	-0.311421	-18.8178	18.3244
 263	1	2	-0.038268	-1.53004	-17.5737	20.2132
 264	1	2	0.015931	-0.432733	-20.145	19.1155
 265	1	2	0.006127	-1.76048	-18.9211	20.9325
 266	1	2	-0.02901	-0.624532	-19.9212	20.6312
 267	1	6	0.060706	0.430594	-8.81516	12.944
 268	1	6	0.109818	4.99376	-13.5874	12.2445
 269	1	6	0.034398	-0.577166	-10.8979	16.61
 270	1	6	0.029719	3.50243	-11.3263	15.6701
 271	1	6	0.036789	1.41535	-9.92968	15.4284
 272	1	6	0.059436	-0.436653	-13.0238	14.8513
 273	1	6	0.028349	3.09855	-13.1237	17.3524
 274	1	5	0.156131	-2.80285	-14.1443	16.1367
 275	1	6	0.059364	1.71592	-14.4466	15.469
 276	1	6	0.111824	0.820534	-12.2453	18.432
 277	1	6	0.047288	1.79227	-10.8578	17.8691
 278	1	5	0.182101	1.24242	-16.333	18.1205
 279	1	6	0.044359	-5.81826	-20.646	15.8231
 280	1	5	0.179067	-3.20213	-20.0498	18.366
 281	1	6	0.038058	-5.57397	-18.8434	14.0893
 282	1	5	0.140142	-3.84996	-16.1726	15.289
 283	1	6	0.008074	-4.09081	-22.3211	15.3318
 284	1	6	-0.001887	-2.16381	-20.8998	16.5833
 285	1	6	0.034873	-4.8434	-20.9868	13.1831
 286	1	6	0.057592	-3.138	-21.4539	13.0106
 287	1	6	0.004826	-1.83476	-18.7195	15.3601
 288	1	6	0.004917	-3.2958	-18.8386	12.9484
 289	1	6	0.011371	0.68782	-18.4269	18.5465
 290	1	6	0.016934	-0.323674	-19.0241	17.2472
 291	1	6	0.017694	-2.35998	-16.891	20.4383
 292	1	6	0.024086	-0.625147	-17.1088	20.6262
 293	1	6	0.001925	0.471685	-20.7448	18.951
 294	1	6	-0.011831	-1.25784	-20.7492	18.7314
 295	1	6	-0.015908	-2.72259	-19.3492	20.6253
 296	1	6	0.008977	-1.82334	-18.7526	22.0151
 297	1	6	0.008233	0.311256	-19.5407	21.0607
 298	1	6	0.006802	-0.833836	-20.8797	21.1229
 299	1	2	-0.163429	-0.0972114	-9.726	12.6357
 300	1	6	0.069136	-0.484197	-9.56617	11.6214
 301	1	6	0.097616	-0.957711	-9.86024	13.3028
 302	1	2	-0.211261	4.63086	-13.0504	13.1299
 303	1	6	0.077702	5.28813	-12.1883	13.2966
 304	1	6	0.070844	4.7285	-13.7228	13.9913
 305	1	1	0.055893	5.11934	-0.0549124	1.34194
 306	1	1	0.066037	4.01081	0.202771	2.13314
 307	1	1	-0.13485	3.52308	-0.717748	3.07811
 308	1	1	-0.112685	4.1322	-1.98235	3.02262
 309	1	1	-0.113466	5.82992	-1.27105	1.40527
 310	1	2	0.031197	4.02135	-4.23717	4.52003
 311	1	1	-0.092412	5.22681	-2.2666	2.2012
 312	1	3	0.085064	5.85526	-3.20978	3.22263
 313	1	3	0.073163	4.63707	-2.86059	4.15596
 314	1	3	-0.014897	3.35069	-4.67111	3.18635
 315	1	2	0.044047	5.81516	-4.76689	3.13289
 316	1	1	-0.216606	2.50918	-6.9704	4.14832
 317	1	3	-0.029794	4.56076	-5.04997	2.25548
 318	1	2	-0.27828	5.32228	-5.08945	4.57311
 319	1	1	0.002791	4.02303	-6.4796	2.30502
 320	1	1	-0.015593	2.95256	-6.13356	3.11805
 321	1	1	-0.275006	4.71188	-7.69524	2.46601
 322	1	1	-0.00175	4.25234	-8.58257	3.46934
 323	1	4	0.011736	3.16167	-8.21636	4.29108
 324	1	2	0.056595	4.9854	-9.81562	4.05607
 325	1	3	-0.006078	4.6251	-9.87171	9.1469
 326	1	4	0.009572	3.17552	-9.05396	5.49627
 327	1	1	0.047642	4.27465	-9.93539	5.42449
 328	1	1	-0.203391	4.75729	-10.579	6.59219
 329	1	1	-0.073691	4.0724	-10.3409	7.79883
 330	1	1	-0.02876	2.99227	-9.46592	7.84909
 331	1	3	0.009648	3.39332	-8.89239	9.18743
 332	1	1	-0.19087	2.53407	-8.77622	6.72305
 333	1	2	0.036362	4.45539	-10.6843	10.4629
 334	1	2	0.011094	3.26881	-11.6867	10.3843
 335	1	2	-0.166666	3.8673	-9.56805	11.3598
 336	1	2	-0.004747	2.01641	-10.735	10.3076
 337	1	2	0.045805	2.63718	-9.31	10.4608
 338	1	2	-0.016724	4.6888	-11.0888	3.21951
 339	1	2	-0.038268	6.52512	-9.59495	4.23751
 340	1	2	0.015931	5.50356	-11.16	1.91051
 341	1	2	0.006127	7.40072	-9.81916	2.97654
 342	1	2	-0.02901	7.01756	-11.0932	2.19467
 343	1	6	0.060706	2.07094	-1.15827	4.62718
 344	1	6	0.109818	7.47048	-2.40264	0.552883
 345	1	6	0.034398	3.38667	-4.26037	5.41481
 346	1	6	0.029719	6.83345	-2.88768	3.5965
 347	1	6	0.036789	4.89277	-2.31656	5.072
 348	1	6	0.059436	2.59591	-3.97736	2.79964
 349	1	6	0.028349	6.7459	-5.25623	2.81954
 350	1	5	0.156131	1.86635	-6.58531	4.93211
 351	1	6	0.059364	4.59553	-4.60127	1.25654
 352	1	6	0.111824	5.13714	-6.15655	4.74254
 353	1	6	0.047288	6.02209	-4.73633	5.34276
 354	1	5	0.182101	5.65053	-7.84307	1.95475
 355	1	6	0.044359	5.611	-9.39515	9.10836
 356	1	5	0.179067	5.70975	-11.0969	6.60145
 357	1	6	0.038058	3.62608	-7.82149	9.19573
 358	1	5	0.140142	1.87935	-7.91799	6.82919
 359	1	6	0.008074	5.38253	-11.1272	10.8469
 360	1	6	-0.001887	3.31911	-12.4265	9.57491
 361	1	6	0.034873	4.52903	-8.69358	11.436
 362	1	6	0.057592	3.61453	-9.88922	12.3777
 363	1	6	0.004826	1.36381	-10.8983	9.44037
 364	1	6	0.004917	1.94148	-8.55363	10.844
 365	1	6	0.011371	3.61686	-11.1439	2.98851
 366	1	6	0.016934	4.92232	-11.9768	3.82171
 367	1	6	0.017694	6.90185	-10.3011	4.98431
 368	1	6	0.024086	6.71339	-8.5939	4.6468
 369	1	6	0.001925	5.21379	-10.3376	1.24419
 370	1	6	-0.011831	5.27034	-12.0938	1.38349
 371	1	6	-0.015908	8.45278	-9.88894	3.28081
 372	1	6	0.008977	7.35087	-8.95603	2.30859
 373	1	6	0.008233	7.57543	-11.1295	1.2503
 374	1	6	0.006802	7.31461	-11.9768	2.77451
 375	1	2	-0.163429	2.65285	-0.306445	4.25336
 376	1	6	0.069136	3.26124	0.0725773	5.08315
 377	1	6	0.097616	1.94276	0.478295	3.96358
 378	1	2	-0.211261	7.26805	-1.39376	0.933355
 379	1	6	0.077702	7.48183	-0.68449	0.123858
 380	1	6	0.070844	7.96899	-1.19337	1.75289
 381	1	1	0.055893	0.426927	14.6211	-0.66371
 382	1	1	0.066037	-0.623356	13.8748	-0.143804
 383	1	1	-0.13485	-0.548939	13.2626	1.12724
 384	1	1	-0.112685	0.600643	13.6282	1.86167
 385	1	1	-0.113466	1.63783	14.859	0.00416504
 386	1	2	0.031197	2.05451	11.5901	3.01426
 387	1	1	-0.092412	1.63123	14.3836	1.32257
 388	1	3	0.085064	2.6634	13.8793	2.314
 389	1	3	0.073163	1.4846	13.0461	2.97281
 390	1	3	-0.014897	1.96113	11.1488	1.53651
 391	1	2	0.044047	3.74239	12.8077	1.95525
 392	1	1	-0.216606	2.95153	8.59529	1.50351
 393	1	3	-0.029794	3.08351	11.9937	0.797262
 394	1	2	-0.27828	3.57681	11.8702	3.18502
 395	1	1	0.002791	3.7062	10.6526	0.453038
 396	1	1	-0.015593	2.7617	9.92806	1.12911
 397	1	1	-0.275006	4.89418	10.1115	-0.0511708
 398	1	1	-0.00175	5.04351	8.71907	0.166188
 399	1	4	0.011736	4.11729	7.99562	0.959362
 400	1	2	0.056595	6.20778	7.82287	-0.294263
 401	1	3	-0.006078	6.78261	3.38933	2.41568
 402	1	4	0.009572	4.64312	6.64207	1.16159
 403	1	1	0.047642	5.85123	6.50349	0.433075
 404	1	1	-0.203391	6.64709	5.34015	0.574091
 405	1	1	-0.073691	6.14025	4.33064	1.40784
 406	1	1	-0.02876	5.00943	4.52159	2.17861
 407	1	3	0.009648	5.50614	3.64857	3.31404
 408	1	1	-0.19087	4.23842	5.68506	2.12122
 409	1	2	0.036362	6.7435	1.85055	2.21181
 410	1	2	0.011094	5.55017	1.40983	1.30321
 411	1	2	-0.166666	6.24445	1.44601	3.61864
 412	1	2	-0.004747	4.29161	1.69389	2.20596
 413	1	2	0.045805	4.91941	2.2377	3.52439
 414	1	2	-0.016724	6.14501	7.66531	-1.83848
 415	1	2	-0.038268	7.56736	8.4352	0.166102
 416	1	2	0.015931	7.38788	6.97423	-2.4395
 417	1	2	0.006127	8.82551	7.82423	-0.499049
 418	1	2	-0.02901	8.68727	7.69944	-2.03205
 419	1	6	0.060706	-1.21046	11.7473	2.53954
 420	1	6	0.109818	3.23231	14.6147	-1.44996
 421	1	6	0.034398	1.60113	10.9127	3.74879
 422	1	6	0.029719	3.086	14.6476	2.97082
 423	1	6	0.036789	1.22168	13.3784	3.98292
 424	1	6	0.059436	0.955556	11.1549	1.11577
 425	1	6	0.028349	4.75505	13.1858	1.76692
 426	1	5	0.156131	2.27482	8.07052	2.16968
 427	1	6	0.059364	2.79715	12.5715	-0.0822874
 428	1	6	0.111824	4.19333	10.9633	3.11762
 429	1	6	0.047288	3.80347	12.3787	4.13192
 430	1	5	0.182101	5.64166	10.7183	-0.551916
 431	1	6	0.044359	7.74245	3.71445	2.83258
 432	1	5	0.179067	7.63895	5.25853	0.149474
 433	1	6	0.038058	5.6801	4.15806	4.26839
 434	1	5	0.140142	3.46175	5.89686	2.84873
 435	1	6	0.008074	7.70557	1.40584	1.92927
 436	1	6	-0.001887	5.50605	1.87061	0.308019
 437	1	6	0.034873	6.90001	1.81068	4.42212
 438	1	6	0.057592	6.11161	0.365551	3.75357
 439	1	6	0.004826	3.52305	2.32129	1.73656
 440	1	6	0.004917	4.27009	2.14694	4.40307
 441	1	6	0.011371	6.05455	8.65921	-2.29643
 442	1	6	0.016934	5.24052	7.11136	-2.12185
 443	1	6	0.017694	7.65668	8.36731	1.25805
 444	1	6	0.024086	7.57274	9.50568	-0.0721237
 445	1	6	0.001925	7.30426	6.95981	-3.53364
 446	1	6	-0.011831	7.42874	5.92787	-2.1142
 447	1	6	-0.015908	9.04244	6.84204	-0.0687557
 448	1	6	0.008977	9.69586	8.45081	-0.265957
 449	1	6	0.008233	8.69366	8.70267	-2.47788
 450	1	6	0.006802	9.55425	7.16447	-2.43996
 451	1	2	-0.163429	-1.50779	12.1712	1.57229
 452	1	6	0.069136	-2.52418	12.5692	1.68142
 453	1	6	0.097616	-1.54357	11.353	0.842354
 454	1	2	-0.211261	2.89131	15.3439	-0.704691
 455	1	6	0.077702	2.70068	16.2907	-1.22536
 456	1	6	0.070844	3.71205	15.5127	0.0033299
 457	1	1	0.055893	-6.7075	11.2546	-12.1234
 458	1	1	0.066037	-7.81963	10.7658	-11.4678
 459	1	1	-0.13485	-8.73948	11.5638	-10.7617
 460	1	1	-0.112685	-8.33906	12.9125	-10.7152
 461	1	1	-0.113466	-6.46606	12.6321	-12.3046
 462	1	2	0.031197	-8.74509	15.1372	-9.23734
 463	1	1	-0.092412	-7.34457	13.4184	-11.538
 464	1	3	0.085064	-7.93248	14.8302	-11.5581
 465	1	3	0.073163	-8.99366	14.2681	-10.5195
 466	1	3	-0.014897	-7.31922	14.7013	-8.75054
 467	1	2	0.044047	-7.30602	16.051	-10.8303
 468	1	1	-0.216606	-6.23448	15.678	-6.40584
 469	1	3	-0.029794	-6.36148	15.3395	-9.84776
 470	1	2	-0.27828	-8.48182	16.509	-9.91967
 471	1	1	0.002791	-5.81618	16.195	-8.73758
 472	1	1	-0.015593	-6.59084	15.6195	-7.76435
 473	1	1	-0.275006	-4.68933	16.976	-8.50228
 474	1	1	-0.00175	-4.37771	17.1608	-7.14056
 475	1	4	0.011736	-5.11585	16.5135	-6.11011
 476	1	2	0.056595	-3.12842	17.8662	-6.60168
 477	1	3	-0.006078	-1.45478	16.2644	-2.14516
 478	1	4	0.009572	-4.3951	16.7321	-4.83624
 479	1	1	0.047642	-3.26459	17.5375	-5.1121
 480	1	1	-0.203391	-2.25292	17.7391	-4.15857
 481	1	1	-0.073691	-2.42907	17.1186	-2.92119
 482	1	1	-0.02876	-3.52091	16.3126	-2.62651
 483	1	3	0.009648	-2.69103	15.3833	-1.73337
 484	1	1	-0.19087	-4.51827	16.0569	-3.59084
 485	1	2	0.036362	-0.583907	15.2896	-2.99285
 486	1	2	0.011094	0.1166	14.2524	-2.08912
 487	1	2	-0.166666	-1.62098	14.3298	-3.6183
 488	1	2	-0.004747	-1.07674	13.386	-1.52127
 489	1	2	0.045805	-2.31081	13.9847	-2.27613
 490	1	2	-0.016724	-1.82762	17.2033	-7.16426
 491	1	2	-0.038268	-3.18706	19.4072	-6.83645
 492	1	2	0.015931	-1.37929	17.6841	-8.56727
 493	1	2	0.006127	-1.9343	19.9797	-7.53666
 494	1	2	-0.02901	-1.61637	19.1924	-8.82504
 495	1	6	0.060706	-10.2414	11.3646	-9.21298
 496	1	6	0.109818	-4.97254	12.4195	-13.8716
 497	1	6	0.034398	-9.54046	15.1189	-8.48175
 498	1	6	0.029719	-8.34572	15.137	-12.525
 499	1	6	0.036789	-10.0418	14.3318	-10.8316
 500	1	6	0.059436	-7.2328	13.6326	-8.52558
 501	1	6	0.028349	-6.85206	16.8193	-11.4688
 502	1	5	0.156131	-6.72633	15.0757	-5.64907
 503	1	6	0.059364	-5.59525	14.7185	-10.3252
 504	1	6	0.111824	-8.1948	17.2941	-9.20715
 505	1	6	0.047288	-9.34551	16.8595	-10.5009
 506	1	5	0.182101	-4.06864	17.3416	-9.3109
 507	1	6	0.044359	-0.911466	16.7765	-1.3436
 508	1	5	0.179067	-1.30117	18.1863	-4.42598
 509	1	6	0.038058	-2.95976	15.3748	-0.671311
 510	1	5	0.140142	-5.23611	15.2536	-3.46017
 511	1	6	0.008074	0.0875379	15.7702	-3.7154
 512	1	6	-0.001887	0.88067	13.6414	-2.58835
 513	1	6	0.034873	-1.16264	13.4534	-4.09906
 514	1	6	0.057592	-2.27547	14.807	-4.35537
 515	1	6	0.004826	-0.917595	12.3139	-1.69695
 516	1	6	0.004917	-3.15175	13.2863	-2.3703
 517	1	6	0.011371	-1.93186	16.1101	-7.16486
 518	1	6	0.016934	-0.992675	17.4163	-6.48726
 519	1	6	0.017694	-3.3342	19.9341	-5.8846
 520	1	6	0.024086	-4.06536	19.6503	-7.44873
 521	1	6	0.001925	-1.87746	17.0964	-9.34695
 522	1	6	-0.011831	-0.308851	17.467	-8.67595
 523	1	6	-0.015908	-1.07467	19.9375	-6.85477
 524	1	6	0.008977	-2.09722	21.0376	-7.77805
 525	1	6	0.008233	-2.45531	19.3088	-9.5233
 526	1	6	0.006802	-0.73747	19.6252	-9.31958
 527	1	2	-0.163429	-10.0826	11.0696	-10.2574
 528	1	6	0.069136	-10.901	11.4892	-10.8556
 529	1	6	0.097616	-10.1532	9.97602	-10.3127
 530	1	2	-0.211261	-5.48278	13.2102	-13.3074
 531	1	6	0.077702	-5.99257	13.8623	-14.0272
 532	1	6	0.070844	-4.71464	13.8058	-12.7989
 533	1	1	0.055893	-15.5394	2.6933	-22.3901
 534	1	1	0.066037	-16.313	2.97146	-21.2741
 535	1	1	-0.13485	-16.5926	4.2716	-20.8164
 536	1	1	-0.112685	-15.8746	5.24793	-21.518
 537	1	1	-0.113466	-14.9222	3.70147	-23.1691
 538	1	2	0.031197	-15.363	7.84795	-21.0937
 539	1	1	-0.092412	-15.0623	4.9903	-22.6122
 540	1	3	0.085064	-15.1508	6.43151	-23.1288
 541	1	3	0.073163	-16.0793	6.70802	-21.8727
 542	1	3	-0.014897	-14.123	7.10534	-20.5132
 543	1	2	0.044047	-14.0132	7.49319	-22.9637
 544	1	1	-0.216606	-12.5423	8.45564	-18.7399
 545	1	3	-0.029794	-13.1905	6.90773	-21.7895
 546	1	2	-0.27828	-14.7878	8.66091	-22.2886
 547	1	1	0.002791	-12.228	7.84233	-21.0762
 548	1	1	-0.015593	-13.0135	7.97037	-19.9627
 549	1	1	-0.275006	-10.9186	8.32119	-21.1648
 550	1	1	-0.00175	-10.4432	8.93406	-19.979
 551	1	4	0.011736	-11.215	8.954	-18.7854
 552	1	2	0.056595	-9.05964	9.56136	-19.7611
 553	1	3	-0.006078	-7.77859	10.8082	-14.7764
 554	1	4	0.009572	-10.3808	9.48691	-17.6977
 555	1	1	0.047642	-9.11814	9.84081	-18.2462
 556	1	1	-0.203391	-8.09074	10.3596	-17.4274
 557	1	1	-0.073691	-8.45267	10.5843	-16.1016
 558	1	1	-0.02876	-9.63271	10.167	-15.5475
 559	1	3	0.009648	-9.1278	10.3029	-14.1105
 560	1	1	-0.19087	-10.6444	9.55653	-16.2996
 561	1	2	0.036362	-6.73125	9.76559	-14.3353
 562	1	2	0.011094	-6.42289	9.93608	-12.8255
 563	1	2	-0.166666	-7.56351	8.46335	-14.2756
 564	1	2	-0.004747	-7.74128	9.39586	-12.1212
 565	1	2	0.045805	-8.65618	9.03375	-13.3411
 566	1	2	-0.016724	-7.93039	8.57216	-20.1828
 567	1	2	-0.038268	-8.96692	10.8898	-20.5534
 568	1	2	0.015931	-6.51284	9.19294	-20.2562
 569	1	2	0.006127	-7.55812	11.5145	-20.5051
 570	1	2	-0.02901	-6.48855	10.5321	-21.0269
 571	1	6	0.060706	-18.5571	5.10115	-20.4207
 572	1	6	0.109818	-14.3696	2.40559	-24.8265
 573	1	6	0.034398	-15.978	8.40487	-20.3757
 574	1	6	0.029719	-15.635	6.54327	-24.1053
 575	1	6	0.036789	-17.1118	6.99132	-22.1054
 576	1	6	0.059436	-14.3564	6.25076	-19.8691
 577	1	6	0.028349	-13.4493	7.74593	-23.8706
 578	1	5	0.156131	-13.1241	8.4111	-17.8254
 579	1	6	0.059364	-12.7756	5.91384	-21.9907
 580	1	6	0.111824	-14.1334	9.48517	-21.9739
 581	1	6	0.047288	-15.5755	9.06661	-22.9387
 582	1	5	0.182101	-10.3103	8.19388	-22.0546
 583	1	6	0.044359	-7.49154	11.846	-14.5989
 584	1	5	0.179067	-7.08813	10.5695	-17.7746
 585	1	6	0.038058	-9.66757	11.0201	-13.4835
 586	1	5	0.140142	-11.5474	9.15535	-15.8516
 587	1	6	0.008074	-5.83755	9.70856	-14.9693
 588	1	6	-0.001887	-5.52246	9.41319	-12.4773
 589	1	6	0.034873	-7.01132	7.62539	-13.8267
 590	1	6	0.057592	-7.94569	8.1382	-15.2521
 591	1	6	0.004826	-7.53546	8.56456	-11.4343
 592	1	6	0.004917	-9.45476	8.32201	-13.0974
 593	1	6	0.011371	-8.1577	8.18302	-21.1829
 594	1	6	0.016934	-7.92218	7.70419	-19.5113
 595	1	6	0.017694	-9.70258	11.6095	-20.1707
 596	1	6	0.024086	-9.22992	10.7037	-21.6029
 597	1	6	0.001925	-5.83263	8.48353	-20.7443
 598	1	6	-0.011831	-6.11642	9.34081	-19.2467
 599	1	6	-0.015908	-7.30932	11.8399	-19.4918
 600	1	6	0.008977	-7.55765	12.4274	-21.0956
 601	1	6	0.008233	-6.66916	10.3375	-22.0922
 602	1	6	0.006802	-5.49346	10.9886	-20.951
 603	1	2	-0.163429	-17.7385	4.611	-19.8793
 604	1	6	0.069136	-18.1433	3.71152	-19.399
 605	1	6	0.097616	-17.4041	5.29176	-19.0868
 606	1	2	-0.211261	-14.3335	3.46666	-24.5497
 607	1	6	0.077702	-14.8785	4.03476	-25.3137
 608	1	6	0.070844	-13.284	3.78444	-24.582
 609	1	1	0.055893	-14.296	12.6686	-26.1619
 610	1	1	0.066037	-14.4845	12.7848	-24.794
 611	1	1	-0.13485	-15.6238	12.2566	-24.1438
 612	1	1	-0.112685	-16.4294	11.439	-24.9693
 613	1	1	-0.113466	-15.2464	12.1038	-27.0239
 614	1	2	0.031197	-18.4067	9.67405	-24.807
 615	1	1	-0.092412	-16.2616	11.4154	-26.3484
 616	1	3	0.085064	-17.7253	11.1742	-26.6327
 617	1	3	0.073163	-17.9272	11.1393	-25.0622
 618	1	3	-0.014897	-19.8538	9.82128	-25.3762
 619	1	2	0.044047	-18.0995	9.75559	-27.1126
 620	1	1	-0.216606	-20.7603	7.30721	-25.0483
 621	1	3	-0.029794	-19.6334	9.91979	-26.9405
 622	1	2	-0.27828	-17.6808	8.85665	-25.9129
 623	1	1	0.002791	-20.4471	8.65085	-27.0552
 624	1	1	-0.015593	-20.6406	8.54935	-25.6881
 625	1	1	-0.275006	-20.2975	7.53063	-27.8816
 626	1	1	-0.00175	-20.4634	6.27328	-27.2662
 627	1	4	0.011736	-20.756	6.16173	-25.8863
 628	1	2	0.056595	-20.0344	4.92257	-27.8611
 629	1	3	-0.006078	-17.7905	2.39623	-24.2665
 630	1	4	0.009572	-20.5416	4.76352	-25.4841
 631	1	1	0.047642	-19.9995	4.06614	-26.5821
 632	1	1	-0.203391	-19.2394	2.89857	-26.3722
 633	1	1	-0.073691	-19.0965	2.45242	-25.0496
 634	1	1	-0.02876	-19.7775	3.04633	-23.9835
 635	1	3	0.009648	-18.602	2.93306	-23.0448