pySIMM System Object

2324 atoms
2692 bonds
5580 angles
10248 dihedrals
180 impropers

6 atom types
11 bond types
24 angle types
21 dihedral types
2 improper types

-183.931719 183.931719 xlo xhi
-183.931719 183.931719 ylo yhi
-183.931719 183.931719 zlo zhi

Masses

   1	12.01	# ca
   2	12.01	# c3
   3	12.01	# cy
   4	12.01	# cp
   5	1.008	# ha
   6	1.008	# hc

Pair Coeffs

   1	0.086	3.3996695084235347	# ca
   2	0.1094	3.3996695084235347	# c3
   3	0.086	3.3996695084235347	# cy
   4	0.086	3.3996695084235347	# cp
   5	0.015	2.59964245953351	# ha
   6	0.0157	2.649532787749369	# hc

Bond Coeffs

   1	321.2	1.5154	# ca,cy
   2	461.1	1.3984	# ca,ca
   3	345.8	1.086	# ca,ha
   4	300.9	1.5375	# c3,c3
   5	305.9	1.5319	# c3,cy
   6	450.2	1.4058	# ca,cp
   7	351.4	1.4854	# cp,cp
   8	321.0	1.5156	# c3,ca
   9	330.6	1.0969	# c3,hc
  10	333.3	1.0949	# cy,hc
  11	285.0	1.5562	# cy,cy

Angle Coeffs

   1	66.72	118.38	# ca,cp,ca
   2	46.8	110.47	# ca,c3,hc
   3	62.86	111.51	# c3,c3,c3
   4	46.43	110.14	# c3,cy,hc
   5	63.43	120.63	# c3,ca,cp
   6	63.56	112.24	# ca,c3,ca
   7	64.05	121.11	# ca,cp,cp
   8	66.62	120.02	# ca,ca,ca
   9	47.98	119.86	# cp,ca,ha
  10	39.4	107.58	# hc,c3,hc
  11	63.53	120.77	# c3,ca,ca
  12	63.51	120.86	# ca,ca,cy
  13	62.8	113.57	# c3,cy,ca
  14	67.9	96.03	# cy,c3,cy
  15	61.4	116.81	# ca,cy,cy
  16	63.15	112.07	# c3,c3,ca
  17	45.97	114.53	# ca,cy,hc
  18	66.26	120.69	# ca,ca,cp
  19	46.34	109.8	# c3,c3,hc
  20	48.18	119.88	# ca,ca,ha
  21	62.73	112.39	# c3,c3,cy
  22	46.29	110.75	# cy,c3,hc
  23	44.83	114.79	# cy,cy,hc
  24	60.66	118.7	# c3,cy,cy

Dihedral Coeffs

   1	1	0.15555555555555556	3	0	# X,cy,cy,X
   2	1	3.625	2	180	# X,ca,cp,X
   3	3	0.18	3	0	0.25	2	180	0.2	1	180	# c3,c3,c3,c3
   4	1	0.16	3	0	# hc,c3,c3,c3
   5	1	0.0	2	0.0	# ca,ca,cy,cy
   6	1	1.0	2	180	# X,cp,cp,X
   7	1	0.0	2	0.0	# ca,ca,cy,c3
   8	3	0.38	3	180.0	0.0	2	0.0	1.15	1	0.0	# ca,ca,cy,hc
   9	1	0.0	2	0	# X,c3,ca,X
  10	1	0.16	3	0.0	# cy,c3,cy,ca
  11	1	0.15555555555555556	3	0	# X,c3,c3,X
  12	1	0.16	3	0.0	# c3,c3,cy,ca
  13	1	0.16	3	0.0	# hc,c3,cy,ca
  14	3	0.18	3	0.0	0.25	2	180.0	0.2	1	180.0	# cy,c3,cy,cy
  15	1	0.15	3	0	# hc,c3,c3,hc
  16	3	0.18	3	0.0	0.25	2	180.0	0.2	1	180.0	# c3,c3,cy,cy
  17	1	0.16	3	0.0	# hc,c3,cy,cy
  18	1	0.16	3	0.0	# cy,c3,cy,hc
  19	1	0.16	3	0.0	# c3,c3,cy,hc
  20	1	0.15	3	0.0	# hc,c3,cy,hc
  21	1	3.625	2	180	# X,ca,ca,X

Improper Coeffs

   1	1.1	-1	2	# ca,ca,ca,c3
   2	1.1	-1	2	# ca,X,X,ha

Atoms

   1	1	1	0.055893	-54.6251	-44.1169	-39.6654
   2	1	1	0.066037	-54.3608	-42.9755	-40.3974
   3	1	1	-0.13485	-53.1521	-42.742	-41.0776
   4	1	1	-0.112685	-52.3154	-43.8742	-41.0713
   5	1	1	-0.113466	-53.7052	-45.1691	-39.5016
   6	1	2	0.031197	-49.6745	-43.5181	-40.4984
   7	1	1	-0.092412	-52.5734	-45.015	-40.3252
   8	1	3	0.085064	-51.137	-45.5191	-40.4107
   9	1	3	0.073163	-50.8423	-44.2121	-41.2656
  10	1	3	-0.014897	-50.3692	-42.9825	-39.2165
  11	1	2	0.044047	-50.1041	-45.4404	-39.2429
  12	1	1	-0.216606	-48.2986	-41.7952	-37.9255
  13	1	3	-0.029794	-50.657	-44.2861	-38.3635
  14	1	2	-0.27828	-48.9089	-44.7712	-39.9821
  15	1	1	0.002791	-49.7028	-43.6991	-37.3388
  16	1	1	-0.015593	-49.4567	-42.5657	-38.0788
  17	1	1	-0.275006	-48.8144	-44.1867	-36.3714
  18	1	1	-0.00175	-47.7062	-43.3526	-36.0937
  19	1	4	0.011736	-47.4605	-42.1808	-36.8497
  20	1	2	0.056595	-46.575	-43.6239	-35.0873
  21	1	3	-0.006078	-42.7802	-39.9029	-34.7993
  22	1	4	0.009572	-46.1762	-41.6144	-36.4225
  23	1	1	0.047642	-45.6375	-42.4353	-35.3947
  24	1	1	-0.203391	-44.4329	-42.0824	-34.7382
  25	1	1	-0.073691	-43.7944	-40.9434	-35.2413
  26	1	1	-0.02876	-44.3248	-40.1492	-36.2253
  27	1	3	0.009648	-43.397	-38.9825	-35.9366
  28	1	1	-0.19087	-45.5575	-40.4048	-36.8315
  29	1	2	0.036362	-43.0186	-39.0711	-33.5147
  30	1	2	0.011094	-44.5214	-38.9853	-33.1324
  31	1	2	-0.166666	-42.8043	-37.6476	-34.0685
  32	1	2	-0.004747	-45.1247	-38.0861	-34.2433
  33	1	2	0.045805	-43.9047	-37.7524	-35.1441
  34	1	2	-0.016724	-47.1578	-43.5784	-33.6444
  35	1	2	-0.038268	-45.8997	-44.9924	-35.3924
  36	1	2	0.015931	-46.2006	-44.0949	-32.5447
  37	1	2	0.006127	-44.9277	-45.4722	-34.2905
  38	1	2	-0.02901	-45.5934	-45.47	-32.8976
  39	1	6	0.060706	-53.5028	-40.985	-42.2946
  40	1	6	0.109818	-54.7843	-46.8075	-38.5837
  41	1	6	0.034398	-49.085	-42.7901	-41.0696
  42	1	6	0.029719	-51.0112	-46.452	-40.9709
  43	1	6	0.036789	-50.5516	-44.4175	-42.3016
  44	1	6	0.059436	-51.1952	-42.2887	-39.3874
  45	1	6	0.028349	-49.8873	-46.3825	-38.7241
  46	1	5	0.156131	-48.0311	-41.0022	-38.616
  47	1	6	0.059364	-51.67	-44.4358	-37.9825
  48	1	6	0.111824	-48.075	-44.5202	-39.3124
  49	1	6	0.047288	-48.5245	-45.3928	-40.8021
  50	1	5	0.182101	-48.9459	-45.1591	-35.9081
  51	1	6	0.044359	-41.7246	-40.1615	-34.9381
  52	1	5	0.179067	-44.0388	-42.6188	-33.8845
  53	1	6	0.038058	-42.6991	-38.7054	-36.7344
  54	1	5	0.140142	-46.0269	-39.71	-37.5204
  55	1	6	0.008074	-42.3651	-39.3348	-32.6737
  56	1	6	-0.001887	-45.007	-39.9663	-33.0742
  57	1	6	0.034873	-41.8022	-37.5011	-34.495
  58	1	6	0.057592	-43.0029	-36.8624	-33.3254
  59	1	6	0.004826	-45.9403	-38.5768	-34.7872
  60	1	6	0.004917	-44.0383	-36.8456	-35.7472
  61	1	6	0.011371	-48.0626	-44.199	-33.6111
  62	1	6	0.016934	-47.4787	-42.5565	-33.4035
  63	1	6	0.017694	-45.3728	-44.9428	-36.3543
  64	1	6	0.024086	-46.675	-45.7602	-35.5061
  65	1	6	0.001925	-46.7476	-44.1726	-31.5966
  66	1	6	-0.011831	-45.3989	-43.3696	-32.372
  67	1	6	-0.015908	-44.0341	-44.8384	-34.2751
  68	1	6	0.008977	-44.582	-46.4865	-34.5272
  69	1	6	0.008233	-46.3866	-46.2287	-32.8775
  70	1	6	0.006802	-44.8587	-45.7574	-32.1348
  71	1	2	-0.163429	-52.7397	-41.3834	-41.6146
  72	1	6	0.069136	-52.6074	-40.663	-40.7979
  73	1	6	0.097616	-51.795	-41.4433	-42.1688
  74	1	2	-0.211261	-53.8475	-46.253	-38.4481
  75	1	6	0.077702	-53.0211	-46.9725	-38.5007
  76	1	6	0.070844	-53.8545	-45.8204	-37.4399
  77	1	1	0.055893	-47.6327	-34.203	-32.787
  78	1	1	0.066037	-48.5081	-33.4058	-34.0345
  79	1	1	-0.13485	-50.0954	-33.4453	-34.466
  80	1	1	-0.112685	-51.2059	-34.1932	-33.5794
  81	1	1	-0.113466	-48.4511	-34.8865	-31.6279
  82	1	2	0.031197	-53.7454	-35.1137	-33.9427
  83	1	1	-0.092412	-50.7773	-34.957	-32.269
  84	1	3	0.085064	-52.3002	-35.0518	-31.8987
  85	1	3	0.073163	-52.6836	-34.2239	-33.2283
  86	1	3	-0.014897	-52.8944	-36.2891	-34.4854
  87	1	2	0.044047	-53.189	-36.3303	-32.0204
  88	1	1	-0.216606	-54.6157	-37.9583	-35.8332
  89	1	3	-0.029794	-52.5257	-37.1129	-33.1755
  90	1	2	-0.27828	-54.4548	-35.732	-32.7027
  91	1	1	0.002791	-53.3352	-38.2378	-33.7813
  92	1	1	-0.015593	-53.6469	-37.538	-34.9159
  93	1	1	-0.275006	-53.9566	-39.4307	-33.4028
  94	1	1	-0.00175	-54.8723	-39.9409	-34.3526
  95	1	4	0.011736	-55.1855	-39.2268	-35.5403
  96	1	2	0.056595	-55.6681	-41.2536	-34.256
  97	1	3	-0.006078	-58.1859	-42.7414	-38.6287
  98	1	4	0.009572	-56.1701	-40.0083	-36.301
  99	1	1	0.047642	-56.4542	-41.1945	-35.5767
 100	1	1	-0.203391	-57.2408	-42.2265	-36.136
 101	1	1	-0.073691	-57.7816	-41.9508	-37.3972
 102	1	1	-0.02876	-57.4984	-40.805	-38.1057
 103	1	3	0.009648	-57.8655	-41.4178	-39.4488
 104	1	1	-0.19087	-56.6429	-39.8072	-37.6228
 105	1	2	0.036362	-57.2118	-43.7802	-39.2443
 106	1	2	0.011094	-55.7332	-43.4646	-38.8601
 107	1	2	-0.166666	-57.2702	-43.3144	-40.7178
 108	1	2	-0.004747	-55.4224	-42.1544	-39.6908
 109	1	2	0.045805	-56.7617	-41.8808	-40.436
 110	1	2	-0.016724	-54.6935	-42.472	-34.2196
 111	1	2	-0.038268	-56.6544	-41.2404	-33.0491
 112	1	2	0.015931	-55.2698	-43.6924	-33.4664
 113	1	2	0.006127	-56.0668	-41.8894	-31.7757
 114	1	2	-0.02901	-55.641	-43.3623	-31.9991
 115	1	6	0.060706	-51.3323	-32.0225	-35.5297
 116	1	6	0.109818	-46.3219	-35.4175	-31.1306
 117	1	6	0.034398	-54.3916	-34.6075	-34.6708
 118	1	6	0.029719	-52.609	-34.551	-30.9786
 119	1	6	0.036789	-53.1104	-33.2329	-33.0405
 120	1	6	0.059436	-52.0943	-35.9915	-35.1702
 121	1	6	0.028349	-53.361	-36.8917	-31.0934
 122	1	5	0.156131	-54.9146	-37.3613	-36.6884
 123	1	6	0.059364	-51.4947	-37.3987	-32.9969
 124	1	6	0.111824	-55.1989	-36.4947	-32.971
 125	1	6	0.047288	-54.9441	-34.971	-32.0796
 126	1	5	0.182101	-53.7464	-39.9167	-32.4567
 127	1	6	0.044359	-59.2298	-43.0709	-38.6749
 128	1	5	0.179067	-57.347	-43.1994	-35.6702
 129	1	6	0.038058	-58.7256	-40.977	-39.9647
 130	1	5	0.140142	-56.2856	-38.9956	-38.2484
 131	1	6	0.008074	-57.4971	-44.828	-39.0875
 132	1	6	-0.001887	-55.5075	-43.3931	-37.7899
 133	1	6	0.034873	-58.2909	-43.3281	-41.1255
 134	1	6	0.057592	-56.6239	-43.8912	-41.3922
 135	1	6	0.004826	-55.0108	-41.3265	-39.1021
 136	1	6	0.004917	-56.6518	-41.2546	-41.3302
 137	1	6	0.011371	-53.7609	-42.1846	-33.7172
 138	1	6	0.016934	-54.4092	-42.7605	-35.2401
 139	1	6	0.017694	-57.566	-41.7915	-33.3148
 140	1	6	0.024086	-56.9727	-40.212	-32.8335
 141	1	6	0.001925	-54.5486	-44.5193	-33.4859
 142	1	6	-0.011831	-56.164	-44.0518	-33.9879
 143	1	6	-0.015908	-56.798	-41.8387	-30.959
 144	1	6	0.008977	-55.1968	-41.311	-31.4447
 145	1	6	0.008233	-54.7872	-43.583	-31.3456
 146	1	6	0.006802	-56.4524	-44.0311	-31.6845
 147	1	2	-0.163429	-50.5354	-32.7468	-35.7376
 148	1	6	0.069136	-49.7014	-32.2076	-36.2033
 149	1	6	0.097616	-50.918	-33.472	-36.4662
 150	1	2	-0.211261	-47.2921	-35.3884	-30.6171
 151	1	6	0.077702	-47.0978	-34.712	-29.7783
 152	1	6	0.070844	-47.4046	-36.421	-30.2653
 153	1	1	0.055893	-44.7914	-30.6246	-18.111
 154	1	1	0.066037	-45.0876	-29.3807	-18.6418
 155	1	1	-0.13485	-46.1405	-29.1692	-19.5601
 156	1	1	-0.112685	-46.7199	-30.3667	-20.0331
 157	1	1	-0.113466	-45.5581	-31.772	-18.3687
 158	1	2	0.031197	-48.4216	-31.2585	-21.983
 159	1	1	-0.092412	-46.474	-31.5839	-19.4109
 160	1	3	0.085064	-47.8249	-32.1683	-19.7701
 161	1	3	0.073163	-48.1063	-30.8001	-20.5169
 162	1	3	-0.014897	-47.0338	-31.7007	-22.5266
 163	1	2	0.044047	-47.9891	-33.2583	-20.8616
 164	1	1	-0.216606	-47.6449	-32.6364	-25.0281
 165	1	3	-0.029794	-46.7192	-33.035	-21.7281
 166	1	2	-0.27828	-49.1267	-32.6182	-21.7073
 167	1	1	0.002791	-46.7175	-33.727	-23.0667
 168	1	1	-0.015593	-47.0173	-32.5862	-23.7732
 169	1	1	-0.275006	-46.9871	-35.0189	-23.5203
 170	1	1	-0.00175	-47.4785	-35.1083	-24.8394
 171	1	4	0.011736	-47.7971	-33.9388	-25.5812
 172	1	2	0.056595	-47.8628	-36.3892	-25.603
 173	1	3	-0.006078	-50.0159	-36.0549	-30.4307
 174	1	4	0.009572	-48.3937	-34.3575	-26.8628
 175	1	1	0.047642	-48.4221	-35.7738	-26.8906
 176	1	1	-0.203391	-48.9371	-36.4925	-27.9889
 177	1	1	-0.073691	-49.4207	-35.7202	-29.0484
 178	1	1	-0.02876	-49.3912	-34.2993	-29.033
 179	1	3	0.009648	-50.1103	-33.9604	-30.3425
 180	1	1	-0.19087	-48.893	-33.5758	-27.9386
 181	1	2	0.036362	-49.2221	-36.7045	-32.304
 182	1	2	0.011094	-48.244	-35.1947	-33.0216
 183	1	2	-0.166666	-49.2493	-35.5699	-33.6982
 184	1	2	-0.004747	-48.4432	-33.125	-32.888
 185	1	2	0.045805	-49.6109	-33.1236	-32.2052
 186	1	2	-0.016724	-46.6238	-37.2717	-25.9283
 187	1	2	-0.038268	-48.9862	-37.2054	-24.8939
 188	1	2	0.015931	-46.1446	-38.1391	-24.7424
 189	1	2	0.006127	-48.503	-38.1181	-23.7422
 190	1	2	-0.02901	-47.2925	-38.9848	-24.1507
 191	1	6	0.060706	-47.1869	-27.7642	-20.8386
 192	1	6	0.109818	-44.5979	-33.1344	-16.9783
 193	1	6	0.034398	-48.9765	-30.5442	-22.6041
 194	1	6	0.029719	-48.4773	-32.3822	-18.9164
 195	1	6	0.036789	-48.9383	-30.2093	-20.1186
 196	1	6	0.059436	-46.2735	-30.9117	-22.5147
 197	1	6	0.028349	-48.1613	-34.2811	-20.5037
 198	1	5	0.156131	-48.0318	-31.7496	-25.5191
 199	1	6	0.059364	-45.7637	-33.1172	-21.1989
 200	1	6	0.111824	-49.3499	-33.1828	-22.6228
 201	1	6	0.047288	-50.0558	-32.4973	-21.1339
 202	1	5	0.182101	-46.8626	-35.8751	-22.8706
 203	1	6	0.044359	-50.9532	-36.5993	-30.272
 204	1	5	0.179067	-48.9565	-37.5772	-28.0179
 205	1	6	0.038058	-51.0639	-33.5079	-30.0563
 206	1	5	0.140142	-48.8976	-32.491	-27.9137
 207	1	6	0.008074	-48.5783	-37.5932	-32.3439
 208	1	6	-0.001887	-47.2162	-35.6377	-33.3649
 209	1	6	0.034873	-50.1287	-36.0828	-34.1537
 210	1	6	0.057592	-48.9195	-35.7466	-34.8233
 211	1	6	0.004826	-47.7728	-32.1978	-32.6869
 212	1	6	0.004917	-50.2445	-32.2538	-32.4757
 213	1	6	0.011371	-45.798	-36.6408	-26.2822
 214	1	6	0.016934	-46.8709	-37.9479	-26.7565
 215	1	6	0.017694	-49.4754	-37.8518	-25.6335
 216	1	6	0.024086	-49.7641	-36.5251	-24.5231
 217	1	6	0.001925	-45.7122	-37.5029	-23.9619
 218	1	6	-0.011831	-45.3397	-38.8039	-25.0804
 219	1	6	-0.015908	-49.3273	-38.7721	-23.4305
 220	1	6	0.008977	-48.2491	-37.5166	-22.8638
 221	1	6	0.008233	-46.9294	-39.5469	-23.281
 222	1	6	0.006802	-47.6147	-39.7241	-24.8956
 223	1	2	-0.163429	-46.7341	-27.8011	-19.84
 224	1	6	0.069136	-47.5114	-27.5555	-19.106
 225	1	6	0.097616	-45.9651	-27.0198	-19.7925
 226	1	2	-0.211261	-45.5653	-33.0012	-17.4784
 227	1	6	0.077702	-46.3389	-32.9187	-16.7051
 228	1	6	0.070844	-45.7665	-33.9078	-18.0625
 229	1	1	0.055893	-32.664	-21.1202	-14.1667
 230	1	1	0.066037	-33.6096	-20.2273	-13.6905
 231	1	1	-0.13485	-34.876	-20.6169	-13.2177
 232	1	1	-0.112685	-35.1632	-21.9777	-13.4303
 233	1	1	-0.113466	-32.85	-22.5147	-14.0907
 234	1	2	0.031197	-37.2157	-23.7161	-13.1608
 235	1	1	-0.092412	-34.1685	-22.8884	-13.7784
 236	1	3	0.085064	-34.771	-24.0139	-12.9419
 237	1	3	0.073163	-35.9384	-23.0004	-12.6186
 238	1	3	-0.014897	-37.021	-23.6956	-14.7125
 239	1	2	0.044047	-35.5017	-25.2485	-13.5397
 240	1	1	-0.216606	-39.2496	-25.009	-15.4326
 241	1	3	-0.029794	-35.8662	-24.744	-14.9562
 242	1	2	-0.27828	-36.8558	-25.178	-12.7741
 243	1	1	0.002791	-36.8923	-25.5793	-15.6937
 244	1	1	-0.015593	-37.8991	-24.6443	-15.5224
 245	1	1	-0.275006	-37.1459	-26.9581	-15.656
 246	1	1	-0.00175	-38.4992	-27.3547	-15.5896
 247	1	4	0.011736	-39.5353	-26.3894	-15.5684
 248	1	2	0.056595	-39.0478	-28.7667	-15.2854
 249	1	3	-0.006078	-44.2931	-29.179	-14.5095
 250	1	4	0.009572	-40.812	-27.0769	-15.3409
 251	1	1	0.047642	-40.538	-28.4459	-15.0927
 252	1	1	-0.203391	-41.5607	-29.3527	-14.7255
 253	1	1	-0.073691	-42.8346	-28.782	-14.6345
 254	1	1	-0.02876	-43.1171	-27.5058	-15.0435
 255	1	3	0.009648	-44.6226	-27.7138	-15.0444
 256	1	1	-0.19087	-42.1387	-26.5718	-15.3961
 257	1	2	0.036362	-44.9374	-30.1022	-15.5597
 258	1	2	0.011094	-44.1255	-30.0536	-16.8832
 259	1	2	-0.166666	-46.1848	-29.2533	-15.9007
 260	1	2	-0.004747	-44.458	-28.6252	-17.4687
 261	1	2	0.045805	-45.3891	-28.0126	-16.3688
 262	1	2	-0.016724	-38.8669	-29.7308	-16.4905
 263	1	2	-0.038268	-38.4784	-29.3746	-13.966
 264	1	2	0.015931	-37.4385	-30.3064	-16.6122
 265	1	2	0.006127	-37.0839	-30.0345	-14.0897
 266	1	2	-0.02901	-36.9862	-30.9855	-15.302
 267	1	6	0.060706	-35.536	-19.9376	-11.2692
 268	1	6	0.109818	-30.8649	-23.1557	-14.6903
 269	1	6	0.034398	-38.1757	-23.3386	-12.7871
 270	1	6	0.029719	-34.1625	-24.3184	-12.0833
 271	1	6	0.036789	-36.0646	-22.7519	-11.5591
 272	1	6	0.059436	-36.9043	-22.6968	-15.1471
 273	1	6	0.028349	-34.9621	-26.2025	-13.4884
 274	1	5	0.156131	-40.013	-24.3026	-15.123
 275	1	6	0.059364	-35.0112	-24.4428	-15.5718
 276	1	6	0.111824	-37.5954	-25.909	-13.1249
 277	1	6	0.047288	-36.729	-25.3051	-11.6903
 278	1	5	0.182101	-36.3298	-27.6578	-15.5381
 279	1	6	0.044359	-44.6517	-29.3913	-13.4961
 280	1	5	0.179067	-41.3803	-30.4084	-14.5492
 281	1	6	0.038058	-45.203	-27.0854	-14.3599
 282	1	5	0.140142	-42.3722	-25.5562	-15.6995
 283	1	6	0.008074	-45.157	-31.116	-15.2035
 284	1	6	-0.001887	-43.057	-30.2915	-16.8179
 285	1	6	0.034873	-46.81	-29.048	-15.0204
 286	1	6	0.057592	-46.8237	-29.6914	-16.6783
 287	1	6	0.004826	-43.5733	-28.0323	-17.734
 288	1	6	0.004917	-46.0152	-27.1872	-16.73
 289	1	6	0.011371	-39.14	-29.2195	-17.4228
 290	1	6	0.016934	-39.563	-30.5731	-16.385
 291	1	6	0.017694	-39.1668	-30.1508	-13.6092
 292	1	6	0.024086	-38.4545	-28.6068	-13.1816
 293	1	6	0.001925	-36.7346	-29.5094	-16.8792
 294	1	6	-0.011831	-37.4083	-31.0365	-17.4308
 295	1	6	-0.015908	-36.8698	-30.5968	-13.172
 296	1	6	0.008977	-36.3054	-29.2686	-14.1563
 297	1	6	0.008233	-35.9552	-31.3462	-15.4073
 298	1	6	0.006802	-37.6146	-31.8669	-15.1193
 299	1	2	-0.163429	-35.7321	-19.733	-12.3289
 300	1	6	0.069136	-35.5283	-18.6703	-12.5112
 301	1	6	0.097616	-36.7994	-19.9049	-12.5157
 302	1	2	-0.211261	-31.7019	-23.5078	-14.0745
 303	1	6	0.077702	-31.3315	-23.6612	-13.0534
 304	1	6	0.070844	-32.0188	-24.4815	-14.4683
 305	1	1	0.055893	-29.3106	-5.70515	-16.1636
 306	1	1	0.066037	-29.8716	-5.69489	-14.8966
 307	1	1	-0.13485	-29.7804	-6.77337	-14.0014
 308	1	1	-0.112685	-29.2434	-7.93374	-14.5785
 309	1	1	-0.113466	-28.5536	-6.79615	-16.6415
 310	1	2	0.031197	-28.8546	-10.4913	-13.8411
 311	1	1	-0.092412	-28.6423	-7.9479	-15.8348
 312	1	3	0.085064	-27.6458	-9.03995	-15.4438
 313	1	3	0.073163	-28.3538	-9.03189	-14.0315
 314	1	3	-0.014897	-30.005	-10.6018	-14.8884
 315	1	2	0.044047	-27.7517	-10.5302	-15.8938
 316	1	1	-0.216606	-30.7011	-13.1252	-14.3869
 317	1	3	-0.029794	-29.249	-10.6617	-16.2736
 318	1	2	-0.27828	-27.675	-11.248	-14.5143
 319	1	1	0.002791	-29.7845	-12.0819	-16.3952
 320	1	1	-0.015593	-30.4785	-12.0083	-15.1991
 321	1	1	-0.275006	-29.1989	-13.2804	-16.8394
 322	1	1	-0.00175	-29.4738	-14.4389	-16.0753
 323	1	4	0.011736	-30.2461	-14.3619	-14.8959
 324	1	2	0.056595	-28.8224	-15.8291	-16.226
 325	1	3	-0.006078	-29.7739	-19.2827	-12.232
 326	1	4	0.009572	-30.169	-15.6468	-14.2006
 327	1	1	0.047642	-29.3044	-16.5118	-14.9242
 328	1	1	-0.203391	-28.9916	-17.8075	-14.4332
 329	1	1	-0.073691	-29.5548	-18.1151	-13.1875
 330	1	1	-0.02876	-30.4473	-17.2997	-12.5462
 331	1	3	0.009648	-30.8579	-18.3441	-11.5355
 332	1	1	-0.19087	-30.8209	-16.0393	-13.0057
 333	1	2	0.036362	-30.6028	-20.5209	-12.6472
 334	1	2	0.011094	-31.5039	-20.1875	-13.8648
 335	1	2	-0.166666	-31.6253	-20.5501	-11.4855
 336	1	2	-0.004747	-32.5746	-19.1967	-13.2642
 337	1	2	0.045805	-32.177	-19.1306	-11.7476
 338	1	2	-0.016724	-29.3841	-16.5217	-17.4991
 339	1	2	-0.038268	-27.2704	-15.6952	-16.2821
 340	1	2	0.015931	-28.641	-17.8195	-17.8897
 341	1	2	0.006127	-26.53	-16.9871	-16.7
 342	1	2	-0.02901	-27.1159	-17.6015	-17.9897
 343	1	6	0.060706	-30.6561	-5.79556	-12.2716
 344	1	6	0.109818	-27.4376	-7.60627	-18.3141
 345	1	6	0.034398	-29.1012	-10.7878	-12.8138
 346	1	6	0.029719	-26.5973	-8.72243	-15.4444
 347	1	6	0.036789	-27.7197	-8.73631	-13.1884
 348	1	6	0.059436	-30.8147	-9.87307	-14.7712
 349	1	6	0.028349	-27.0301	-10.8594	-16.6519
 350	1	5	0.156131	-31.0589	-13.0282	-13.3672
 351	1	6	0.059364	-29.578	-9.98255	-17.068
 352	1	6	0.111824	-27.8393	-12.3316	-14.5762
 353	1	6	0.047288	-26.7186	-11.0699	-14.004
 354	1	5	0.182101	-28.4714	-13.2844	-17.6443
 355	1	6	0.044359	-28.9228	-19.5515	-11.5966
 356	1	5	0.179067	-28.3739	-18.5185	-14.9674
 357	1	6	0.038058	-30.6699	-18.1105	-10.4817
 358	1	5	0.140142	-31.549	-15.4169	-12.4956
 359	1	6	0.008074	-30.0188	-21.4421	-12.7625
 360	1	6	-0.001887	-30.9903	-19.8158	-14.7604
 361	1	6	0.034873	-31.1438	-20.6439	-10.5019
 362	1	6	0.057592	-32.382	-21.3401	-11.5703
 363	1	6	0.004826	-32.6536	-18.2372	-13.7905
 364	1	6	0.004917	-32.9978	-18.8333	-11.0833
 365	1	6	0.011371	-29.3101	-15.8236	-18.3433
 366	1	6	0.016934	-30.4531	-16.7345	-17.3678
 367	1	6	0.017694	-26.8904	-15.3481	-15.3124
 368	1	6	0.024086	-27.0009	-14.9213	-17.0105
 369	1	6	0.001925	-29.0215	-18.1801	-18.8537
 370	1	6	-0.011831	-28.8553	-18.6083	-17.1599
 371	1	6	-0.015908	-26.5664	-17.7222	-15.8896
 372	1	6	0.008977	-25.4676	-16.7606	-16.8564
 373	1	6	0.008233	-26.9036	-16.9334	-18.8346
 374	1	6	0.006802	-26.6181	-18.5553	-18.2054
 375	1	2	-0.163429	-29.9796	-6.6277	-12.5034
 376	1	6	0.069136	-30.4138	-7.53961	-12.075
 377	1	6	0.097616	-29.0245	-6.4381	-11.9983
 378	1	2	-0.211261	-27.5312	-6.66653	-17.7559
 379	1	6	0.077702	-27.8184	-5.88294	-18.4682
 380	1	6	0.070844	-26.5434	-6.41217	-17.3525
 381	1	1	0.055893	-37.9997	6.99069	-11.8449
 382	1	1	0.066037	-37.7973	6.15385	-10.7646
 383	1	1	-0.13485	-36.5875	5.48334	-10.5142
 384	1	1	-0.112685	-35.6902	5.60033	-11.5866
 385	1	1	-0.113466	-37.0368	7.21554	-12.8506
 386	1	2	0.031197	-33.4091	4.33455	-12.2609
 387	1	1	-0.092412	-35.912	6.37694	-12.7164
 388	1	3	0.085064	-34.4296	6.44477	-13.0727
 389	1	3	0.073163	-34.1823	5.58557	-11.7624
 390	1	3	-0.014897	-34.5184	3.54925	-13.0113
 391	1	2	0.044047	-33.7695	5.58238	-14.1993
 392	1	1	-0.216606	-33.0664	1.43141	-13.7683
 393	1	3	-0.029794	-34.7446	4.37803	-14.3422
 394	1	2	-0.27828	-32.576	4.97016	-13.4108
 395	1	1	0.002791	-34.2164	3.14337	-15.0677
 396	1	1	-0.015593	-34.0341	2.42963	-13.9011
 397	1	1	-0.275006	-33.4565	2.90082	-16.2251
 398	1	1	-0.00175	-32.5846	1.78558	-16.1685
 399	1	4	0.011736	-32.3912	1.07916	-14.958
 400	1	2	0.056595	-31.5973	1.30381	-17.252
 401	1	3	-0.006078	-27.8023	-2.08502	-15.6073
 402	1	4	0.009572	-31.2636	0.16074	-15.1225
 403	1	1	0.047642	-30.7779	0.269152	-16.4528
 404	1	1	-0.203391	-29.6293	-0.447019	-16.8821
 405	1	1	-0.073691	-29.0472	-1.25365	-15.8952
 406	1	1	-0.02876	-29.5015	-1.3126	-14.6059
 407	1	3	0.009648	-28.3473	-2.14999	-14.1098
 408	1	1	-0.19087	-30.6187	-0.626335	-14.1364
 409	1	2	0.036362	-27.7289	-3.58616	-15.9996
 410	1	2	0.011094	-29.1507	-4.18825	-16.2015
 411	1	2	-0.166666	-27.3214	-4.18386	-14.6316
 412	1	2	-0.004747	-29.7468	-4.1933	-14.7415
 413	1	2	0.045805	-28.562	-3.65941	-13.8734
 414	1	2	-0.016724	-32.3804	0.621587	-18.4129
 415	1	2	-0.038268	-30.6825	2.46661	-17.75
 416	1	2	0.015931	-31.5905	0.600055	-19.7408
 417	1	2	0.006127	-31.152	3.07412	-19.0909
 418	1	2	-0.02901	-31.1996	2.01973	-20.2247
 419	1	6	0.060706	-35.8277	3.85481	-9.30615
 420	1	6	0.109818	-36.9453	7.98121	-14.8742
 421	1	6	0.034398	-32.8478	3.77682	-11.5007
 422	1	6	0.029719	-33.9983	7.45177	-13.0637
 423	1	6	0.036789	-33.6204	6.08962	-10.9685
 424	1	6	0.059436	-35.3927	3.28052	-12.4083
 425	1	6	0.028349	-33.5156	6.11077	-15.1267
 426	1	5	0.156131	-32.7854	1.02507	-12.8025
 427	1	6	0.059364	-35.7724	4.65408	-14.6022
 428	1	6	0.111824	-32.0097	4.22989	-13.9921
 429	1	6	0.047288	-31.8792	5.73722	-13.0465
 430	1	5	0.182101	-33.4837	3.57356	-17.0752
 431	1	6	0.044359	-26.8402	-1.57883	-15.7425
 432	1	5	0.179067	-29.2011	-0.34185	-17.8732
 433	1	6	0.038058	-27.7066	-1.6957	-13.346
 434	1	5	0.140142	-30.9354	-0.655169	-13.099
 435	1	6	0.008074	-27.0318	-3.81055	-16.8163
 436	1	6	-0.001887	-29.7837	-3.68727	-16.9453
 437	1	6	0.034873	-26.3811	-3.76187	-14.2496
 438	1	6	0.057592	-27.2299	-5.27728	-14.6283
 439	1	6	0.004826	-30.708	-3.67462	-14.6342
 440	1	6	0.004917	-28.6098	-3.95362	-12.8177
 441	1	6	0.011371	-33.3205	1.16154	-18.5874
 442	1	6	0.016934	-32.6636	-0.400128	-18.128
 443	1	6	0.017694	-29.6578	2.10146	-17.8936
 444	1	6	0.024086	-30.6168	3.25152	-16.9853
 445	1	6	0.001925	-32.1789	0.0957113	-20.5178
 446	1	6	-0.011831	-30.6812	0.00222001	-19.6069
 447	1	6	-0.015908	-30.49	3.89932	-19.3825
 448	1	6	0.008977	-32.1511	3.50726	-18.9611
 449	1	6	0.008233	-31.9113	2.35768	-20.9887
 450	1	6	0.006802	-30.2197	1.96504	-20.7163
 451	1	2	-0.163429	-36.2103	4.87458	-9.17541
 452	1	6	0.069136	-35.43	5.46569	-8.68056
 453	1	6	0.097616	-37.0741	4.82363	-8.50081
 454	1	2	-0.211261	-37.1106	8.35132	-13.8548
 455	1	6	0.077702	-38.0915	8.84244	-13.8319
 456	1	6	0.070844	-36.3483	9.11134	-13.6439
 457	1	1	0.055893	-35.3799	15.0	2.03823
 458	1	1	0.066037	-34.9848	13.69	2.20022
 459	1	1	-0.13485	-34.1945	12.9756	1.28353
 460	1	1	-0.112685	-33.7822	13.8044	0.224979
 461	1	1	-0.113466	-35.0398	15.8055	0.934346
 462	1	2	0.031197	-33.7649	12.9957	-2.35626
 463	1	1	-0.092412	-34.1724	15.1225	0.0595974
 464	1	3	0.085064	-33.546	15.2437	-1.32651
 465	1	3	0.073163	-33.1186	13.7202	-1.13798
 466	1	3	-0.014897	-35.2852	13.039	-2.02055
 467	1	2	0.044047	-34.353	15.2354	-2.66238
 468	1	1	-0.216606	-36.2815	11.7554	-4.17025
 469	1	3	-0.029794	-35.6836	14.5539	-2.25076
 470	1	2	-0.27828	-33.6085	14.1068	-3.43417
 471	1	1	0.002791	-36.561	14.0469	-3.38411
 472	1	1	-0.015593	-36.2308	12.7258	-3.16414
 473	1	1	-0.275006	-36.9327	14.5299	-4.64891
 474	1	1	-0.00175	-37.1096	13.5507	-5.65501
 475	1	4	0.011736	-36.8138	12.1906	-5.40709
 476	1	2	0.056595	-37.4455	13.7902	-7.13994
 477	1	3	-0.006078	-37.5309	9.43175	-10.231
 478	1	4	0.009572	-36.9272	11.4527	-6.66685
 479	1	1	0.047642	-37.2765	12.3594	-7.70308
 480	1	1	-0.203391	-37.4788	11.902	-9.03143
 481	1	1	-0.073691	-37.2081	10.5428	-9.24045
 482	1	1	-0.02876	-36.9214	9.67349	-8.22005
 483	1	3	0.009648	-37.231	8.4366	-9.03218
 484	1	1	-0.19087	-36.8118	10.0581	-6.88438
 485	1	2	0.036362	-39.0129	9.13576	-10.5656
 486	1	2	0.011094	-39.1753	7.71437	-11.1963
 487	1	2	-0.166666	-39.6118	8.85442	-9.16719
 488	1	2	-0.004747	-38.927	6.75496	-9.95552
 489	1	2	0.045805	-38.6015	7.74316	-8.79985
 490	1	2	-0.016724	-38.9056	14.3153	-7.25372
 491	1	2	-0.038268	-36.4267	14.7865	-7.76722
 492	1	2	0.015931	-39.2899	14.8406	-8.65658
 493	1	2	0.006127	-36.8217	15.2897	-9.17455
 494	1	2	-0.02901	-38.259	15.8525	-9.20157
 495	1	6	0.060706	-34.1076	11.1105	2.39112
 496	1	6	0.109818	-34.7945	17.8458	0.24531
 497	1	6	0.034398	-33.3513	12.0112	-2.60864
 498	1	6	0.029719	-32.7022	15.9392	-1.39098
 499	1	6	0.036789	-32.0356	13.5571	-1.11798
 500	1	6	0.059436	-35.5676	12.5702	-1.07295
 501	1	6	0.028349	-34.4432	16.1987	-3.17974
 502	1	5	0.156131	-35.8544	10.7662	-4.04253
 503	1	6	0.059364	-36.235	15.0656	-1.45603
 504	1	6	0.111824	-34.0863	13.8488	-4.38902
 505	1	6	0.047288	-32.5564	14.3572	-3.62621
 506	1	5	0.182101	-36.9994	15.593	-4.85629
 507	1	6	0.044359	-36.8651	9.37472	-11.0973
 508	1	5	0.179067	-37.8347	12.5363	-9.83352
 509	1	6	0.038058	-36.3886	7.75155	-9.15187
 510	1	5	0.140142	-36.6797	9.34525	-6.07694
 511	1	6	0.008074	-39.5247	9.92916	-11.1244
 512	1	6	-0.001887	-40.1481	7.53072	-11.671
 513	1	6	0.034873	-40.6486	8.4917	-9.21298
 514	1	6	0.057592	-39.5806	9.71816	-8.49041
 515	1	6	0.004826	-39.7742	6.0823	-9.7681
 516	1	6	0.004917	-38.74	7.31519	-7.79915
 517	1	6	0.011371	-39.039	15.1407	-6.54228
 518	1	6	0.016934	-39.6097	13.5303	-6.94837
 519	1	6	0.017694	-35.4303	14.3273	-7.80499
 520	1	6	0.024086	-36.335	15.6658	-7.1179
 521	1	6	0.001925	-40.2765	15.3184	-8.60679
 522	1	6	-0.011831	-39.3923	14.004	-9.35582
 523	1	6	-0.015908	-36.7278	14.4783	-9.90449
 524	1	6	0.008977	-36.119	16.0708	-9.49149
 525	1	6	0.008233	-38.2982	16.7671	-8.59555
 526	1	6	0.006802	-38.5263	16.1384	-10.2268
 527	1	2	-0.163429	-33.8615	11.4999	1.39528
 528	1	6	0.069136	-34.4231	10.9152	0.656467
 529	1	6	0.097616	-32.7923	11.3261	1.22224
 530	1	2	-0.211261	-35.5644	17.2093	0.698608
 531	1	6	0.077702	-36.4312	17.1957	0.0266272
 532	1	6	0.070844	-35.8752	17.6791	1.6402
 533	1	1	0.055893	-29.4296	12.3479	18.7896
 534	1	1	0.066037	-28.8003	11.3262	18.0936
 535	1	1	-0.13485	-29.0821	11.0744	16.7347
 536	1	1	-0.112685	-29.8072	12.0993	16.0942
 537	1	1	-0.113466	-30.3268	13.25	18.1946
 538	1	2	0.031197	-30.5413	12.7125	13.629
 539	1	1	-0.092412	-30.3818	13.1553	16.7947
 540	1	3	0.085064	-31.5203	13.3196	15.8112
 541	1	3	0.073163	-30.8881	12.1057	15.0176
 542	1	3	-0.014897	-32.0033	12.8249	13.0987
 543	1	2	0.044047	-31.4228	14.5115	14.8221
 544	1	1	-0.216606	-32.2283	13.6208	10.4671
 545	1	3	-0.029794	-32.5927	14.0669	13.9117
 546	1	2	-0.27828	-30.1639	14.1818	13.9706
 547	1	1	0.002791	-32.7232	14.7461	12.5655
 548	1	1	-0.015593	-32.2456	13.6759	11.8632
 549	1	1	-0.275006	-33.1676	15.9357	11.9848
 550	1	1	-0.00175	-33.1336	15.9449	10.5677
 551	1	4	0.011736	-32.6986	14.8042	9.83378
 552	1	2	0.056595	-33.5871	17.0755	9.61888
 553	1	3	-0.006078	-34.2148	15.788	4.58048
 554	1	4	0.009572	-32.8682	15.0813	8.4005
 555	1	1	0.047642	-33.3632	16.3998	8.25617
 556	1	1	-0.203391	-33.7527	16.9046	6.9948
 557	1	1	-0.073691	-33.5211	16.0584	5.90327
 558	1	1	-0.02876	-33.0919	14.7561	6.05085
 559	1	3	0.009648	-33.7372	14.2884	4.75647
 560	1	1	-0.19087	-32.8052	14.19	7.29967
 561	1	2	0.036362	-35.7604	15.6744	4.58519
 562	1	2	0.011094	-36.2599	14.9967	3.2759
 563	1	2	-0.166666	-36.0071	14.5086	5.5713
 564	1	2	-0.004747	-35.7949	13.4853	3.46407
 565	1	2	0.045805	-35.0774	13.508	4.84628
 566	1	2	-0.016724	-35.0962	17.4272	9.79231
 567	1	2	-0.038268	-32.6857	18.3378	9.72567
 568	1	2	0.015931	-35.4095	18.3569	10.9877
 569	1	2	0.006127	-33.0044	19.2382	10.9408
 570	1	2	-0.02901	-34.5023	19.606	11.0071
 571	1	6	0.060706	-28.794	9.79267	15.0078
 572	1	6	0.109818	-30.9403	14.3273	19.976
 573	1	6	0.034398	-29.8313	12.1504	13.0095
 574	1	6	0.029719	-32.5158	13.1903	16.2527
 575	1	6	0.036789	-31.4632	11.1747	14.9521
 576	1	6	0.059436	-32.5626	11.8822	13.1222
 577	1	6	0.028349	-31.4848	15.5194	15.2514
 578	1	5	0.156131	-31.9067	12.7435	9.91527
 579	1	6	0.059364	-33.5448	13.9287	14.4376
 580	1	6	0.111824	-30.0733	14.8165	13.0789
 581	1	6	0.047288	-29.2318	14.2575	14.5457
 582	1	5	0.182101	-33.5258	16.7615	12.5861
 583	1	6	0.044359	-33.816	16.3397	3.72215
 584	1	5	0.179067	-34.2749	17.8494	6.88334
 585	1	6	0.038058	-33.0459	13.895	4.00341
 586	1	5	0.140142	-32.6337	13.1261	7.42694
 587	1	6	0.008074	-36.2915	16.6013	4.83541
 588	1	6	-0.001887	-37.3377	15.0829	3.0852
 589	1	6	0.034873	-37.0562	14.1804	5.5893
 590	1	6	0.057592	-35.6992	14.7279	6.6016
 591	1	6	0.004826	-36.6276	12.775	3.3783
 592	1	6	0.004917	-35.0081	12.5236	5.32564
 593	1	6	0.011371	-35.6872	16.5058	9.8764
 594	1	6	0.016934	-35.453	17.9362	8.88875
 595	1	6	0.017694	-32.8118	18.9424	8.81808
 596	1	6	0.024086	-31.6292	18.0408	9.75354
 597	1	6	0.001925	-35.307	17.809	11.9298
 598	1	6	-0.011831	-36.4592	18.6725	10.9343
 599	1	6	-0.015908	-32.4068	20.1565	10.879
 600	1	6	0.008977	-32.7041	18.7371	11.8678
 601	1	6	0.008233	-34.7004	20.1938	11.9122
 602	1	6	0.006802	-34.7532	20.2456	10.1508
 603	1	2	-0.163429	-28.8724	9.71183	16.0991
 604	1	6	0.069136	-27.9506	9.24332	16.466
 605	1	6	0.097616	-29.7083	9.04007	16.33
 606	1	2	-0.211261	-31.3439	14.0424	18.9963
 607	1	6	0.077702	-31.6268	14.9639	18.4723
 608	1	6	0.070844	-32.2544	13.4539	19.1636
 609	1	1	0.055893	-15.8435	8.9743	28.8741
 610	1	1	0.066037	-15.3478	8.52736	27.6677
 611	1	1	-0.13485	-16.1449	7.92013	26.6753
 612	1	1	-0.112685	-17.4443	7.63336	27.1416
 613	1	1	-0.113466	-17.1855	8.85514	29.2667
 614	1	2	0.031197	-19.395	8.47844	25.5609
 615	1	1	-0.092412	-17.9243	8.0625	28.3715
 616	1	3	0.085064	-19.3737	7.9173	27.9709
 617	1	3	0.073163	-18.8378	7.41958	26.559
 618	1	3	-0.014897	-20.8888	8.02997	25.6018
 619	1	2	0.044047	-20.1348	9.22705	27.6443
 620	1	1	-0.216606	-22.4411	9.49145	23.836