pySIMM System Object

1310 atoms
1522 bonds
3162 angles
5828 dihedrals
102 impropers

6 atom types
11 bond types
24 angle types
21 dihedral types
2 improper types

-150.856476 150.856476 xlo xhi
-150.856476 150.856476 ylo yhi
-150.856476 150.856476 zlo zhi

Masses

   1	12.01	# ca
   2	12.01	# c3
   3	12.01	# cy
   4	12.01	# cp
   5	1.008	# ha
   6	1.008	# hc

Pair Coeffs

   1	0.086	3.3996695084235347	# ca
   2	0.1094	3.3996695084235347	# c3
   3	0.086	3.3996695084235347	# cy
   4	0.086	3.3996695084235347	# cp
   5	0.015	2.59964245953351	# ha
   6	0.0157	2.649532787749369	# hc

Bond Coeffs

   1	321.2	1.5154	# ca,cy
   2	461.1	1.3984	# ca,ca
   3	345.8	1.086	# ca,ha
   4	300.9	1.5375	# c3,c3
   5	305.9	1.5319	# c3,cy
   6	450.2	1.4058	# ca,cp
   7	351.4	1.4854	# cp,cp
   8	321.0	1.5156	# c3,ca
   9	330.6	1.0969	# c3,hc
  10	333.3	1.0949	# cy,hc
  11	285.0	1.5562	# cy,cy

Angle Coeffs

   1	66.72	118.38	# ca,cp,ca
   2	46.8	110.47	# ca,c3,hc
   3	62.86	111.51	# c3,c3,c3
   4	46.43	110.14	# c3,cy,hc
   5	63.43	120.63	# c3,ca,cp
   6	63.56	112.24	# ca,c3,ca
   7	64.05	121.11	# ca,cp,cp
   8	66.62	120.02	# ca,ca,ca
   9	47.98	119.86	# cp,ca,ha
  10	39.4	107.58	# hc,c3,hc
  11	63.53	120.77	# c3,ca,ca
  12	63.51	120.86	# ca,ca,cy
  13	62.8	113.57	# c3,cy,ca
  14	67.9	96.03	# cy,c3,cy
  15	61.4	116.81	# ca,cy,cy
  16	63.15	112.07	# c3,c3,ca
  17	45.97	114.53	# ca,cy,hc
  18	66.26	120.69	# ca,ca,cp
  19	46.34	109.8	# c3,c3,hc
  20	48.18	119.88	# ca,ca,ha
  21	62.73	112.39	# c3,c3,cy
  22	46.29	110.75	# cy,c3,hc
  23	44.83	114.79	# cy,cy,hc
  24	60.66	118.7	# c3,cy,cy

Dihedral Coeffs

   1	1	0.15555555555555556	3	0	# X,cy,cy,X
   2	1	3.625	2	180	# X,ca,cp,X
   3	3	0.18	3	0	0.25	2	180	0.2	1	180	# c3,c3,c3,c3
   4	1	0.16	3	0	# hc,c3,c3,c3
   5	1	0.0	2	0.0	# ca,ca,cy,cy
   6	1	1.0	2	180	# X,cp,cp,X
   7	1	0.0	2	0.0	# ca,ca,cy,c3
   8	3	0.38	3	180.0	0.0	2	0.0	1.15	1	0.0	# ca,ca,cy,hc
   9	1	0.0	2	0	# X,c3,ca,X
  10	1	0.16	3	0.0	# cy,c3,cy,ca
  11	1	0.15555555555555556	3	0	# X,c3,c3,X
  12	1	0.16	3	0.0	# c3,c3,cy,ca
  13	1	0.16	3	0.0	# hc,c3,cy,ca
  14	3	0.18	3	0.0	0.25	2	180.0	0.2	1	180.0	# cy,c3,cy,cy
  15	1	0.15	3	0	# hc,c3,c3,hc
  16	3	0.18	3	0.0	0.25	2	180.0	0.2	1	180.0	# c3,c3,cy,cy
  17	1	0.16	3	0.0	# hc,c3,cy,cy
  18	1	0.16	3	0.0	# cy,c3,cy,hc
  19	1	0.16	3	0.0	# c3,c3,cy,hc
  20	1	0.15	3	0.0	# hc,c3,cy,hc
  21	1	3.625	2	180	# X,ca,ca,X

Improper Coeffs

   1	1.1	-1	2	# ca,ca,ca,c3
   2	1.1	-1	2	# ca,X,X,ha

Atoms

   1	1	1	0.055893	16.7687	35.214	25.567
   2	1	1	0.066037	17.1396	34.263	24.6394
   3	1	1	-0.13485	17.2342	34.5472	23.2639
   4	1	1	-0.112685	17.1869	35.9318	23.0105
   5	1	1	-0.113466	16.6415	36.5908	25.3106
   6	1	2	0.031197	15.5553	36.9139	21.0756
   7	1	1	-0.092412	16.976	36.9043	23.9772
   8	1	3	0.085064	16.7468	38.0162	22.9504
   9	1	3	0.073163	16.913	36.8777	21.8527
  10	1	3	-0.014897	14.5206	36.385	22.1195
  11	1	2	0.044047	15.3652	38.6568	22.617
  12	1	1	-0.216606	11.9215	35.8835	21.4565
  13	1	3	-0.029794	14.3887	37.587	23.1443
  14	1	2	-0.27828	15.3027	38.4489	21.0762
  15	1	1	0.002791	12.9561	37.7012	22.6865
  16	1	1	-0.015593	13.0457	36.6331	21.8269
  17	1	1	-0.275006	11.7586	38.1841	23.2186
  18	1	1	-0.00175	10.5948	37.5383	22.7483
  19	1	4	0.011736	10.6758	36.4068	21.8987
  20	1	2	0.056595	9.15393	37.8125	23.207
  21	1	3	-0.006078	5.6511	34.0108	22.1308
  22	1	4	0.009572	9.32493	35.8463	21.7623
  23	1	1	0.047642	8.41852	36.6544	22.5018
  24	1	1	-0.203391	7.06368	36.2765	22.6552
  25	1	1	-0.073691	6.6845	35.1129	21.9774
  26	1	1	-0.02876	7.56991	34.3183	21.2902
  27	1	3	0.009648	6.67455	33.0924	21.3415
  28	1	1	-0.19087	8.93323	34.6109	21.187
  29	1	2	0.036362	5.48789	33.2677	23.4809
  30	1	2	0.011094	6.76982	33.3212	24.357
  31	1	2	-0.166666	5.56413	31.8061	22.9949
  32	1	2	-0.004747	7.77312	32.4247	23.5851
  33	1	2	0.045805	6.95803	31.9499	22.35
  34	1	2	-0.016724	9.06853	37.7172	24.7631
  35	1	2	-0.038268	8.70074	39.2047	22.6844
  36	1	2	0.015931	7.76871	38.2798	25.3862
  37	1	2	0.006127	7.37288	39.7018	23.2982
  38	1	2	-0.02901	7.41609	39.6798	24.8404
  39	1	6	0.060706	18.0859	33.6619	21.481
  40	1	6	0.109818	15.0841	37.3093	26.6385
  41	1	6	0.034398	15.5477	36.4226	20.0945
  42	1	6	0.029719	17.5345	38.777	22.9214
  43	1	6	0.036789	17.7561	37.0351	21.1711
  44	1	6	0.059436	14.7355	35.3816	22.4991
  45	1	6	0.028349	15.2028	39.6801	22.9784
  46	1	5	0.156131	12.0016	34.9334	20.9388
  47	1	6	0.059364	14.4599	37.3936	24.214
  48	1	6	0.111824	14.3311	38.7241	20.6437
  49	1	6	0.047288	16.0915	39.003	20.5495
  50	1	5	0.182101	11.738	38.9433	23.9937
  51	1	6	0.044359	4.69189	34.1703	21.6259
  52	1	5	0.179067	6.37357	36.7956	23.3074
  53	1	6	0.038058	6.30801	32.717	20.3797
  54	1	5	0.140142	9.64964	33.9077	20.7749
  55	1	6	0.008074	4.57057	33.5168	24.0291
  56	1	6	-0.001887	7.1462	34.3385	24.5122
  57	1	6	0.034873	4.77969	31.5564	22.267
  58	1	6	0.057592	5.54347	31.0775	23.8176
  59	1	6	0.004826	8.69253	32.9571	23.3167
  60	1	6	0.004917	7.3449	31.0288	21.8964
  61	1	6	0.011371	9.89814	38.2831	25.2033
  62	1	6	0.016934	9.20964	36.6759	25.0815
  63	1	6	0.017694	8.61667	39.1839	21.59
  64	1	6	0.024086	9.478	39.9436	22.9193
  65	1	6	0.001925	7.88632	38.3357	26.4759
  66	1	6	-0.011831	6.93459	37.5937	25.2102
  67	1	6	-0.015908	6.54077	39.0829	22.9426
  68	1	6	0.008977	7.17188	40.7239	22.9529
  69	1	6	0.008233	8.16451	40.4029	25.1903
  70	1	6	0.006802	6.44814	40.0026	25.2442
  71	1	2	-0.163429	17.2508	33.4935	22.1721
  72	1	6	0.069136	17.3602	32.4854	22.5911
  73	1	6	0.097616	16.3214	33.5169	21.5902
  74	1	2	-0.211261	16.098	37.585	26.3224
  75	1	6	0.077702	16.7318	37.6137	27.2173
  76	1	6	0.070844	16.0595	38.5994	25.9065
  77	1	1	0.055893	8.52038	21.0723	23.2308
  78	1	1	0.066037	10.1097	20.7535	23.7991
  79	1	1	-0.13485	11.0906	21.5643	24.8383
  80	1	1	-0.112685	10.5811	22.8251	25.69
  81	1	1	-0.113466	7.65868	22.1462	23.996
  82	1	2	0.031197	11.7335	24.8739	27.0348
  83	1	1	-0.092412	9.10265	23.3495	25.5159
  84	1	3	0.085064	9.32535	24.2092	26.8164
  85	1	3	0.073163	10.8189	23.6174	26.9559
  86	1	3	-0.014897	11.6641	25.4495	25.5914
  87	1	2	0.044047	9.57051	25.7526	26.8836
  88	1	1	-0.216606	13.3096	27.5764	25.7859
  89	1	3	-0.029794	10.2124	26.0762	25.5182
  90	1	2	-0.27828	10.7945	25.8117	27.8465
  91	1	1	0.002791	10.9037	27.4271	25.4025
  92	1	1	-0.015593	12.1657	26.8703	25.4028
  93	1	1	-0.275006	10.6598	28.7144	25.9133
  94	1	1	-0.00175	11.8048	29.4831	26.2353
  95	1	4	0.011736	13.1041	28.9387	26.1077
  96	1	2	0.056595	11.8502	30.8592	26.9362
  97	1	3	-0.006078	16.7064	32.5737	28.4544
  98	1	4	0.009572	14.0649	29.8851	26.6764
  99	1	1	0.047642	13.3567	30.9676	27.2579
 100	1	1	-0.203391	14.0321	31.9898	27.9793
 101	1	1	-0.073691	15.4246	31.824	28.0711
 102	1	1	-0.02876	16.0927	30.8631	27.3583
 103	1	3	0.009648	17.4396	31.5183	27.5129
 104	1	1	-0.19087	15.4781	29.8431	26.6357
 105	1	2	0.036362	17.1023	33.934	27.8289
 106	1	2	0.011094	16.2679	34.1858	26.5603
 107	1	2	-0.166666	18.486	33.5783	27.2323
 108	1	2	-0.004747	16.799	33.0902	25.5472
 109	1	2	0.045805	17.9684	32.4133	26.3589
 110	1	2	-0.016724	11.4178	31.9676	25.9287
 111	1	2	-0.038268	10.9991	30.8766	28.2436
 112	1	2	0.015931	10.876	33.2359	26.6234
 113	1	2	0.006127	9.59084	31.4831	28.0422
 114	1	2	-0.02901	9.64199	32.9382	27.5114
 115	1	6	0.060706	13.1887	21.9496	25.2157
 116	1	6	0.109818	6.33409	21.5246	22.288
 117	1	6	0.034398	12.7381	24.7156	27.4469
 118	1	6	0.029719	8.69173	23.9674	27.6719
 119	1	6	0.036789	10.9824	22.9936	27.8413
 120	1	6	0.059436	11.9967	24.7601	24.8112
 121	1	6	0.028349	8.70674	26.3673	27.1666
 122	1	5	0.156131	14.2659	27.0876	25.9416
 123	1	6	0.059364	9.58491	25.8418	24.6612
 124	1	6	0.111824	11.204	26.8235	27.9684
 125	1	6	0.047288	10.5618	25.4101	28.8422
 126	1	5	0.182101	9.65443	29.0509	26.1394
 127	1	6	0.044359	16.9925	32.5157	29.5104
 128	1	5	0.179067	13.5205	32.8443	28.4095
 129	1	6	0.038058	18.2285	30.9249	27.9885
 130	1	5	0.140142	16.0326	29.098	26.0742
 131	1	6	0.008074	17.1132	34.7801	28.5273
 132	1	6	-0.001887	15.1785	34.1946	26.6917
 133	1	6	0.034873	19.2031	33.2504	27.998
 134	1	6	0.057592	18.9501	34.3899	26.6568
 135	1	6	0.004826	16.0246	32.421	25.1512
 136	1	6	0.004917	18.7342	31.9433	25.729
 137	1	6	0.011371	10.6277	31.5794	25.2723
 138	1	6	0.016934	12.2577	32.2302	25.2721
 139	1	6	0.017694	11.5095	31.4724	29.0108
 140	1	6	0.024086	10.9167	29.862	28.6548
 141	1	6	0.001925	10.6159	33.9936	25.8729
 142	1	6	-0.011831	11.6696	33.6716	27.2423
 143	1	6	-0.015908	9.032	31.4552	28.9862
 144	1	6	0.008977	9.02923	30.8649	27.3322
 145	1	6	0.008233	8.72434	33.136	26.9428
 146	1	6	0.006802	9.64027	33.6389	28.3562
 147	1	2	-0.163429	12.5232	21.1004	25.0173
 148	1	6	0.069136	12.6045	20.4025	25.8595
 149	1	6	0.097616	12.8883	20.5904	24.1174
 150	1	2	-0.211261	6.22823	22.0407	23.2515
 151	1	6	0.077702	5.48872	21.421	23.7683
 152	1	6	0.070844	5.7962	23.0036	22.9554
 153	1	1	0.055893	-5.6199	17.9756	29.3154
 154	1	1	0.066037	-4.78095	17.1008	29.9857
 155	1	1	-0.13485	-3.43572	17.4227	30.2733
 156	1	1	-0.112685	-2.961	18.583	29.6232
 157	1	1	-0.113466	-5.20789	19.2392	28.8595
 158	1	2	0.031197	-0.646476	20.0427	29.4324
 159	1	1	-0.092412	-3.82429	19.4539	28.959
 160	1	3	0.085064	-3.02348	20.6888	29.3294
 161	1	3	0.073163	-2.03348	19.7135	30.0767
 162	1	3	-0.014897	-0.756828	19.418	28.0158
 163	1	2	0.044047	-2.12934	21.452	28.3147
 164	1	1	-0.216606	1.62887	20.203	26.9797
 165	1	3	-0.029794	-1.79259	20.3518	27.269
 166	1	2	-0.27828	-0.82508	21.564	29.1543
 167	1	1	0.002791	-0.662541	20.6868	26.3197
 168	1	1	-0.015593	0.257085	19.8949	26.9765
 169	1	1	-0.275006	-0.311946	21.8407	25.6116
 170	1	1	-0.00175	1.06954	22.0997	25.4878
 171	1	4	0.011736	2.02632	21.2861	26.1494
 172	1	2	0.056595	1.7308	23.3185	24.816
 173	1	3	-0.006078	6.96664	24.0196	25.1173
 174	1	4	0.009572	3.35715	21.9013	25.9734
 175	1	1	0.047642	3.18876	23.097	25.2333
 176	1	1	-0.203391	4.27155	23.9426	24.9157
 177	1	1	-0.073691	5.52867	23.5169	25.3548
 178	1	1	-0.02876	5.7183	22.2874	26.0427
 179	1	3	0.009648	7.23968	22.2769	26.2487
 180	1	1	-0.19087	4.63994	21.4599	26.3994
 181	1	2	0.036362	8.28394	24.0591	23.4415
 182	1	2	0.011094	8.81077	22.221	23.1314
 183	1	2	-0.166666	9.74203	23.0136	23.4584
 184	1	2	-0.004747	9.08242	20.5518	24.3489
 185	1	2	0.045805	8.88952	21.186	25.5291
 186	1	2	-0.016724	1.62361	23.2463	23.266
 187	1	2	-0.038268	1.2279	24.6858	25.3747
 188	1	2	0.015931	0.257984	23.7097	22.715
 189	1	2	0.006127	-0.0940951	25.2051	24.759
 190	1	2	-0.02901	-0.100628	25.1234	23.2175
 191	1	6	0.060706	-2.82954	17.2743	32.3478
 192	1	6	0.109818	-6.35184	20.9873	29.4399
 193	1	6	0.034398	0.237726	19.759	30.0168
 194	1	6	0.029719	-3.55281	21.402	29.971
 195	1	6	0.036789	-1.97868	19.8478	31.1625
 196	1	6	0.059436	-0.950122	18.3394	28.0111
 197	1	6	0.028349	-2.53761	22.3906	27.9194
 198	1	5	0.156131	2.32802	19.7054	27.6437
 199	1	6	0.059364	-2.65773	19.8846	26.7859
 200	1	6	0.111824	0.0108	22.0042	28.5942
 201	1	6	0.047288	-0.970685	22.1427	30.0765
 202	1	5	0.182101	-1.07256	22.5205	25.2519
 203	1	6	0.044359	7.09004	24.97	25.6486
 204	1	5	0.179067	4.15035	24.8471	24.3282
 205	1	6	0.038058	7.39811	22.3896	27.3245
 206	1	5	0.140142	4.78058	20.5346	26.9486
 207	1	6	0.008074	7.9436	24.494	22.4924
 208	1	6	-0.001887	8.67267	22.0601	21.9781
 209	1	6	0.034873	10.3927	23.8831	23.7088
 210	1	6	0.057592	10.627	22.932	22.6746
 211	1	6	0.004826	8.78859	19.4284	24.361
 212	1	6	0.004917	9.50844	20.7477	26.3381
 213	1	6	0.011371	1.83216	22.2241	22.9239
 214	1	6	0.016934	2.39814	23.8832	22.8197
 215	1	6	0.017694	1.99035	25.45	25.179
 216	1	6	0.024086	1.12969	24.629	26.4666
 217	1	6	0.001925	-0.525456	23.0009	23.0085
 218	1	6	-0.011831	0.288031	23.7079	21.618
 219	1	6	-0.015908	-0.248742	26.2473	25.0657
 220	1	6	0.008977	-0.944917	24.6465	25.1606
 221	1	6	0.008233	-1.08684	25.4147	22.8346
 222	1	6	0.006802	0.623461	25.8435	22.8142
 223	1	2	-0.163429	-2.66025	16.7569	31.3954
 224	1	6	0.069136	-2.96432	15.7101	31.5199
 225	1	6	0.097616	-1.58266	16.7693	31.1901
 226	1	2	-0.211261	-6.17955	20.3653	28.5532
 227	1	6	0.077702	-5.79108	21.0121	27.7566
 228	1	6	0.070844	-7.14879	19.9734	28.22
 229	1	1	0.055893	-15.1304	5.35927	31.6706
 230	1	1	0.066037	-14.418	4.75478	32.6844
 231	1	1	-0.13485	-13.8497	5.47889	33.7636
 232	1	1	-0.112685	-14.0868	6.8737	33.6549
 233	1	1	-0.113466	-15.6526	6.65681	31.7544
 234	1	2	0.031197	-13.0774	9.33872	34.375
 235	1	1	-0.092412	-15.0777	7.3557	32.8191
 236	1	3	0.085064	-15.3045	8.62749	33.6043
 237	1	3	0.073163	-14.0999	8.14246	34.5213
 238	1	3	-0.014897	-12.5438	9.23292	32.9102
 239	1	2	0.044047	-14.8868	10.0137	33.0648
 240	1	1	-0.216606	-10.8892	11.4351	32.4804
 241	1	3	-0.029794	-13.8078	9.61501	32.0276
 242	1	2	-0.27828	-14.0636	10.5385	34.275
 243	1	1	0.002791	-12.9966	10.7532	31.495
 244	1	1	-0.015593	-11.8949	10.4733	32.2602
 245	1	1	-0.275006	-13.2577	11.9796	30.8945
 246	1	1	-0.00175	-12.2226	12.9278	30.9986
 247	1	4	0.011736	-11.045	12.6575	31.7529
 248	1	2	0.056595	-12.2511	14.3653	30.4545
 249	1	3	-0.006078	-8.43267	17.5752	32.0354
 250	1	4	0.009572	-10.1975	13.873	31.7063
 251	1	1	0.047642	-10.8967	14.8629	30.9645
 252	1	1	-0.203391	-10.4243	16.1874	30.86
 253	1	1	-0.073691	-9.16866	16.4093	31.4206
 254	1	1	-0.02876	-8.43634	15.452	32.0831
 255	1	3	0.009648	-7.55231	16.4839	32.7828
 256	1	1	-0.19087	-8.95435	14.1686	32.3383
 257	1	2	0.036362	-7.41392	18.3616	31.1883
 258	1	2	0.011094	-6.86538	17.4811	30.0232
 259	1	2	-0.166666	-6.24318	18.3642	32.1966
 260	1	2	-0.004747	-5.92894	16.4528	30.7648
 261	1	2	0.045805	-6.12043	16.823	32.2692
 262	1	2	-0.016724	-12.2756	14.4134	28.8999
 263	1	2	-0.038268	-13.3998	15.2184	31.0775
 264	1	2	0.015931	-13.6722	14.1739	28.2816
 265	1	2	0.006127	-14.7906	15.0113	30.4323
 266	1	2	-0.02901	-14.7413	15.1057	28.8919
 267	1	6	0.060706	-12.1486	5.25011	35.0832
 268	1	6	0.109818	-16.7039	6.8157	29.8643
 269	1	6	0.034398	-12.3124	9.41523	35.1577
 270	1	6	0.029719	-16.2732	8.68849	34.1122
 271	1	6	0.036789	-14.3472	7.98039	35.5761
 272	1	6	0.059436	-12.0528	8.27874	32.6889
 273	1	6	0.028349	-15.6974	10.6589	32.7033
 274	1	5	0.156131	-10.0712	11.2724	33.1744
 275	1	6	0.059364	-14.1284	8.93375	31.2332
 276	1	6	0.111824	-13.5617	11.4938	34.069
 277	1	6	0.047288	-14.677	10.6512	35.1792
 278	1	5	0.182101	-14.2091	12.1766	30.4194
 279	1	6	0.044359	-9.02861	18.2385	32.6722
 280	1	5	0.179067	-11.0173	16.9916	30.4363
 281	1	6	0.038058	-7.59943	16.493	33.8773
 282	1	5	0.140142	-8.47139	13.4733	33.0172
 283	1	6	0.008074	-7.75241	19.3577	30.878
 284	1	6	-0.001887	-7.61051	17.0288	29.3562
 285	1	6	0.034873	-6.51633	18.8133	33.1619
 286	1	6	0.057592	-5.342	18.8709	31.8292
 287	1	6	0.004826	-6.11986	15.4042	30.5027
 288	1	6	0.004917	-5.30995	16.4682	32.9176
 289	1	6	0.011371	-11.5621	13.6855	28.4921
 290	1	6	0.016934	-11.9298	15.4012	28.569
 291	1	6	0.017694	-13.156	16.2822	30.9706
 292	1	6	0.024086	-13.4625	15.0281	32.1569
 293	1	6	0.001925	-13.9697	13.1282	28.4171
 294	1	6	-0.011831	-13.6223	14.3399	27.198
 295	1	6	-0.015908	-15.483	15.7702	30.8181
 296	1	6	0.008977	-15.2089	14.0457	30.7334
 297	1	6	0.008233	-15.7267	14.8628	28.4746
 298	1	6	0.006802	-14.5204	16.1415	28.6032
 299	1	2	-0.163429	-13.156	4.83679	34.9501
 300	1	6	0.069136	-13.7191	5.01397	35.8746
 301	1	6	0.097616	-13.0594	3.75193	34.817
 302	1	2	-0.211261	-16.7801	7.19281	30.8917
 303	1	6	0.077702	-17.7549	6.88913	31.2928
 304	1	6	0.070844	-16.7598	8.28874	30.8485
 305	1	1	0.055893	-9.62152	-8.2932	26.7821
 306	1	1	0.066037	-10.6917	-8.84905	26.1114
 307	1	1	-0.13485	-11.723	-8.03379	25.6139
 308	1	1	-0.112685	-11.3013	-6.70275	25.486
 309	1	1	-0.113466	-9.16547	-6.9663	26.6073
 310	1	2	0.031197	-12.5669	-4.39924	26.0694
 311	1	1	-0.092412	-10.0244	-6.24374	25.7431
 312	1	3	0.085064	-10.3166	-4.85362	25.1285
 313	1	3	0.073163	-11.823	-5.35663	25.0696
 314	1	3	-0.014897	-11.8817	-4.61084	27.4851
 315	1	2	0.044047	-10.4437	-3.47607	25.8369
 316	1	1	-0.216606	-13.1718	-2.90495	29.1864
 317	1	3	-0.029794	-10.4756	-3.92172	27.2926
 318	1	2	-0.27828	-11.9279	-3.08496	25.5533
 319	1	1	0.002791	-10.9094	-2.86339	28.2765
 320	1	1	-0.015593	-12.0799	-3.53698	28.5718
 321	1	1	-0.275006	-10.9091	-1.45992	28.1806
 322	1	1	-0.00175	-12.0446	-0.802339	28.7013
 323	1	4	0.011736	-13.026	-1.51163	29.4229
 324	1	2	0.056595	-12.5497	0.608712	28.3269
 325	1	3	-0.006078	-17.0669	2.16311	30.7151
 326	1	4	0.009572	-14.0692	-0.557813	29.805
 327	1	1	0.047642	-13.9456	0.594745	28.9939
 328	1	1	-0.203391	-14.9652	1.58414	28.9929
 329	1	1	-0.073691	-15.953	1.40903	29.9786
 330	1	1	-0.02876	-15.6896	0.603587	31.0531
 331	1	3	0.009648	-16.5831	1.36961	32.0033
 332	1	1	-0.19087	-14.8465	-0.507784	30.9898
 333	1	2	0.036362	-16.9591	3.63859	31.1219
 334	1	2	0.011094	-15.4937	4.06422	31.0178
 335	1	2	-0.166666	-17.1633	3.53271	32.6528
 336	1	2	-0.004747	-14.7799	3.32413	32.2234
 337	1	2	0.045805	-15.9999	2.54194	32.8785
 338	1	2	-0.016724	-11.6172	1.66945	28.9757
 339	1	2	-0.038268	-12.6193	0.775565	26.7796
 340	1	2	0.015931	-11.8999	3.11441	28.5089
 341	1	2	0.006127	-12.8458	2.22892	26.2992
 342	1	2	-0.02901	-11.8781	3.22836	26.9701
 343	1	6	0.060706	-13.2104	-9.60254	25.38
 344	1	6	0.109818	-7.09951	-7.15556	27.2284
 345	1	6	0.034398	-13.663	-4.44087	26.0476
 346	1	6	0.029719	-9.86536	-4.71193	24.1404
 347	1	6	0.036789	-12.2883	-5.32546	24.078
 348	1	6	0.059436	-11.8867	-5.64789	27.8385
 349	1	6	0.028349	-9.68504	-2.7266	25.5787
 350	1	5	0.156131	-14.124	-3.40607	29.3287
 351	1	6	0.059364	-9.58338	-4.45477	27.6172
 352	1	6	0.111824	-12.2778	-2.20579	26.1049
 353	1	6	0.047288	-12.1165	-2.91294	24.4847
 354	1	5	0.182101	-10.1942	-0.943928	27.5478
 355	1	6	0.044359	-18.084	1.92015	30.3881
 356	1	5	0.179067	-14.9411	2.46244	28.3609
 357	1	6	0.038058	-17.3508	0.792493	32.5309
 358	1	5	0.140142	-14.7418	-1.22646	31.7968
 359	1	6	0.008074	-17.6594	4.31066	30.6108
 360	1	6	-0.001887	-15.0159	3.95433	30.0407
 361	1	6	0.034873	-18.1426	3.11054	32.9192
 362	1	6	0.057592	-17.045	4.48207	33.1912
 363	1	6	0.004826	-13.9245	2.70709	31.9196
 364	1	6	0.004917	-15.8375	2.2818	33.932
 365	1	6	0.011371	-10.5754	1.429	28.7263
 366	1	6	0.016934	-11.6933	1.61527	30.0697
 367	1	6	0.017694	-13.4017	0.124431	26.3689
 368	1	6	0.024086	-11.6741	0.434118	26.3403
 369	1	6	0.001925	-11.1485	3.78988	28.9371
 370	1	6	-0.011831	-12.8712	3.44837	28.8908
 371	1	6	-0.015908	-13.8797	2.53205	26.4912
 372	1	6	0.008977	-12.7154	2.27399	25.2105
 373	1	6	0.008233	-10.8583	3.03855	26.6107
 374	1	6	0.006802	-12.1359	4.25209	26.6707
 375	1	2	-0.163429	-13.1396	-8.5081	25.3415
 376	1	6	0.069136	-13.836	-8.10298	26.0863
 377	1	6	0.097616	-13.4789	-8.18436	24.3501
 378	1	2	-0.211261	-7.91501	-6.42308	27.2759
 379	1	6	0.077702	-7.56594	-5.5062	26.7851
 380	1	6	0.070844	-8.10007	-6.19898	28.3337
 381	1	1	0.055893	-19.5112	-7.68155	24.0589
 382	1	1	0.066037	-18.6974	-8.33399	23.158
 383	1	1	-0.13485	-18.4895	-9.72964	23.1496
 384	1	1	-0.112685	-19.1718	-10.3475	24.2191
 385	1	1	-0.113466	-20.1526	-8.28411	25.1535
 386	1	2	0.031197	-18.4078	-12.5549	25.6383
 387	1	1	-0.092412	-19.891	-9.6626	25.1812
 388	1	3	0.085064	-20.217	-10.9051	25.9847
 389	1	3	0.073163	-19.4512	-11.7156	24.8451
 390	1	3	-0.014897	-17.3641	-11.4799	25.9999
 391	1	2	0.044047	-19.4505	-11.2819	27.2955
 392	1	1	-0.216606	-15.0885	-12.3966	27.1374
 393	1	3	-0.029794	-18.0577	-10.5912	27.1188
 394	1	2	-0.27828	-19.1531	-12.7768	26.9864
 395	1	1	0.002791	-16.9241	-11.058	28.0317
 396	1	1	-0.015593	-16.3724	-11.8655	27.0696
 397	1	1	-0.275006	-16.1736	-10.5793	29.1213
 398	1	1	-0.00175	-14.8731	-11.139	29.2609
 399	1	4	0.011736	-14.3787	-12.0701	28.3169
 400	1	2	0.056595	-13.7442	-10.716	30.2337
 401	1	3	-0.006078	-8.88206	-11.7974	28.4706
 402	1	4	0.009572	-12.9725	-12.3354	28.6053
 403	1	1	0.047642	-12.5477	-11.5316	29.6871
 404	1	1	-0.203391	-11.1606	-11.3467	29.9572
 405	1	1	-0.073691	-10.2544	-12.0703	29.1475
 406	1	1	-0.02876	-10.7184	-12.8354	28.0903
 407	1	3	0.009648	-9.54592	-12.5085	27.2267
 408	1	1	-0.19087	-12.0603	-12.9817	27.7557
 409	1	2	0.036362	-8.41687	-10.4355	27.8445
 410	1	2	0.011094	-9.57588	-9.43354	27.8018
 411	1	2	-0.166666	-8.29554	-10.7989	26.3455
 412	1	2	-0.004747	-10.6128	-10.1563	26.8556
 413	1	2	0.045805	-9.73781	-11.333	26.2339
 414	1	2	-0.016724	-13.4729	-9.18215	30.1122
 415	1	2	-0.038268	-14.0673	-11.1542	31.6916
 416	1	2	0.015931	-13.0567	-8.53505	31.4505
 417	1	2	0.006127	-14.8695	-10.0882	32.4713
 418	1	2	-0.02901	-14.1395	-8.72192	32.5422
 419	1	6	0.060706	-17.1199	-9.77911	21.4658
 420	1	6	0.109818	-20.6236	-6.5688	26.3928
 421	1	6	0.034398	-18.0241	-13.4531	25.1381
 422	1	6	0.029719	-21.284	-11.1354	26.0769
 423	1	6	0.036789	-20.095	-12.37	24.2474
 424	1	6	0.059436	-16.9019	-10.9913	25.1358
 425	1	6	0.028349	-19.9763	-11.0781	28.2366
 426	1	5	0.156131	-14.6369	-12.9313	26.3088
 427	1	6	0.059364	-18.1091	-9.50543	26.9844
 428	1	6	0.111824	-18.5276	-13.2562	27.7517
 429	1	6	0.047288	-20.0704	-13.3682	26.8616
 430	1	5	0.182101	-16.531	-9.76995	29.7493
 431	1	6	0.044359	-8.03555	-12.3384	28.9075
 432	1	5	0.179067	-10.8152	-10.5791	30.6414
 433	1	6	0.038058	-8.98843	-13.3528	26.8049
 434	1	5	0.140142	-12.3637	-13.3845	26.7952
 435	1	6	0.008074	-7.49759	-10.0198	28.2756
 436	1	6	-0.001887	-9.98829	-9.15661	28.7798
 437	1	6	0.034873	-7.53277	-11.5682	26.1585
 438	1	6	0.057592	-8.08465	-9.94903	25.6838
 439	1	6	0.004826	-11.5643	-10.4224	27.3196
 440	1	6	0.004917	-10.0377	-11.6331	25.222
 441	1	6	0.011371	-14.3754	-8.66514	29.7638
 442	1	6	0.016934	-12.7083	-8.98828	29.3485
 443	1	6	0.017694	-13.1308	-11.341	32.2336
 444	1	6	0.024086	-14.6138	-12.1064	31.6864
 445	1	6	0.001925	-12.8581	-7.46552	31.3056
 446	1	6	-0.011831	-12.1163	-8.98509	31.7922
 447	1	6	-0.015908	-15.0777	-10.4472	33.4871
 448	1	6	0.008977	-15.8443	-9.95167	31.9878
 449	1	6	0.008233	-14.8859	-7.92157	32.457
 450	1	6	0.006802	-13.6702	-8.60482	33.5273
 451	1	2	-0.163429	-17.6761	-10.474	22.1075
 452	1	6	0.069136	-16.951	-11.1473	22.5808
 453	1	6	0.097616	-18.3276	-11.0778	21.4638
 454	1	2	-0.211261	-21.0379	-7.55414	26.1455
 455	1	6	0.077702	-22.0429	-7.40384	25.7322
 456	1	6	0.070844	-21.1379	-8.12042	27.0797
 457	1	1	0.055893	-20.3603	1.29262	13.528
 458	1	1	0.066037	-19.1381	0.715427	13.2567
 459	1	1	-0.13485	-19.0011	-0.517366	12.588
 460	1	1	-0.112685	-20.2244	-0.943392	12.0324
 461	1	1	-0.113466	-21.5952	0.834475	13.0389
 462	1	2	0.031197	-21.1302	-3.5176	12.203
 463	1	1	-0.092412	-21.4288	-0.276219	12.19
 464	1	3	0.085064	-22.2492	-1.39997	11.5691
 465	1	3	0.073163	-20.8712	-2.18389	11.4241
 466	1	3	-0.014897	-21.1735	-3.06362	13.6903
 467	1	2	0.044047	-23.1559	-2.3685	12.3821
 468	1	1	-0.216606	-21.3818	-4.9388	15.6805
 469	1	3	-0.029794	-22.5431	-2.26993	13.8001
 470	1	2	-0.27828	-22.6332	-3.74039	11.8669
 471	1	1	0.002791	-22.9733	-3.33235	14.7817
 472	1	1	-0.015593	-21.7937	-4.02949	14.6966
 473	1	1	-0.275006	-23.8543	-3.42464	15.8612
 474	1	1	-0.00175	-23.509	-4.38936	16.834
 475	1	4	0.011736	-22.3193	-5.15529	16.7289
 476	1	2	0.056595	-24.2225	-4.61989	18.1761
 477	1	3	-0.006078	-21.2829	-7.10126	21.7848
 478	1	4	0.009572	-22.1711	-5.93522	17.9681
 479	1	1	0.047642	-23.2214	-5.57822	18.8541
 480	1	1	-0.203391	-23.1729	-5.96168	20.2144
 481	1	1	-0.073691	-22.1493	-6.85061	20.5596
 482	1	1	-0.02876	-21.1987	-7.29781	19.6686
 483	1	3	0.009648	-20.2215	-7.68246	20.7641
 484	1	1	-0.19087	-21.0996	-6.77133	18.3737
 485	1	2	0.036362	-20.5282	-5.88476	22.4126
 486	1	2	0.011094	-19.3865	-6.34533	23.3696
 487	1	2	-0.166666	-19.6342	-5.39983	21.2493
 488	1	2	-0.004747	-18.3695	-7.06376	22.377
 489	1	2	0.045805	-18.9916	-6.78191	20.9786
 490	1	2	-0.016724	-24.4034	-3.26746	18.9371
 491	1	2	-0.038268	-25.5844	-5.31947	17.9108
 492	1	2	0.015931	-25.4035	-3.29574	20.1205
 493	1	2	0.006127	-26.4892	-5.40011	19.1588
 494	1	2	-0.02901	-26.729	-4.00277	19.7653
 495	1	6	0.060706	-17.5461	-1.7344	11.5419
 496	1	6	0.109818	-22.9866	2.48252	13.2393
 497	1	6	0.034398	-20.4545	-4.3507	11.9723
 498	1	6	0.029719	-22.7188	-1.14845	10.6119
 499	1	6	0.036789	-20.5841	-2.39232	10.3877
 500	1	6	0.059436	-20.2529	-2.58292	14.0361
 501	1	6	0.028349	-24.2374	-2.19852	12.3078
 502	1	5	0.156131	-20.3877	-5.37319	15.6917
 503	1	6	0.059364	-22.555	-1.26947	14.2368
 504	1	6	0.111824	-23.0712	-4.59482	12.4005
 505	1	6	0.047288	-22.8044	-3.87346	10.79
 506	1	5	0.182101	-24.6892	-2.74171	15.9794
 507	1	6	0.044359	-21.6952	-7.79819	22.5225
 508	1	5	0.179067	-23.8426	-5.56677	20.9656
 509	1	6	0.038058	-19.9982	-8.75236	20.8329
 510	1	5	0.140142	-20.2223	-6.92619	17.7542
 511	1	6	0.008074	-21.1762	-5.10915	22.8396
 512	1	6	-0.001887	-18.9149	-5.54958	23.9612
 513	1	6	0.034873	-18.8998	-4.64266	21.5591
 514	1	6	0.057592	-20.201	-4.99642	20.4007
 515	1	6	0.004826	-17.3426	-6.69731	22.5055
 516	1	6	0.004917	-18.264	-6.79118	20.1574
 517	1	6	0.011371	-24.7765	-2.51145	18.2365
 518	1	6	0.016934	-23.4287	-2.90158	19.2849
 519	1	6	0.017694	-25.415	-6.32874	17.5129
 520	1	6	0.024086	-26.1259	-4.76769	17.1312
 521	1	6	0.001925	-25.6178	-2.2662	20.4341
 522	1	6	-0.011831	-24.9527	-3.78125	20.9905
 523	1	6	-0.015908	-26.0341	-6.05739	19.9098
 524	1	6	0.008977	-27.4513	-5.85152	18.8848
 525	1	6	0.008233	-27.2858	-3.38828	19.0458
 526	1	6	0.006802	-27.3551	-4.08939	20.6623
 527	1	2	-0.163429	-17.7214	-1.33134	12.547
 528	1	6	0.069136	-16.852	-0.719648	12.8189
 529	1	6	0.097616	-17.7715	-2.17529	13.2457
 530	1	2	-0.211261	-22.9373	1.40815	13.4559
 531	1	6	0.077702	-23.763	0.920339	12.9233
 532	1	6	0.070844	-23.1032	1.27375	14.532
 533	1	1	0.055893	-14.0209	15.2621	7.32587
 534	1	1	0.066037	-13.1168	14.4906	6.62988
 535	1	1	-0.13485	-12.4626	13.369	7.18641
 536	1	1	-0.112685	-12.7015	13.273	8.57468
 537	1	1	-0.113466	-14.3051	15.1385	8.69366
 538	1	2	0.031197	-13.4447	11.0247	9.79181
 539	1	1	-0.092412	-13.4947	14.1565	9.28574
 540	1	3	0.085064	-13.4063	13.3688	10.5684
 541	1	3	0.073163	-12.5447	12.3065	9.74915
 542	1	3	-0.014897	-13.2008	10.6298	11.283
 543	1	2	0.044047	-14.6743	12.6039	10.9895
 544	1	1	-0.216606	-14.7501	8.39874	11.7112
 545	1	3	-0.029794	-13.986	11.7548	12.0845
 546	1	2	-0.27828	-14.8903	11.5983	9.82131
 547	1	1	0.002791	-14.8291	10.6478	12.6514
 548	1	1	-0.015593	-14.1672	9.65365	11.9645
 549	1	1	-0.275006	-16.1592	10.5427	13.0581
 550	1	1	-0.00175	-16.7373	9.27043	12.8961
 551	1	4	0.011736	-16.0355	8.19767	12.2902
 552	1	2	0.056595	-18.1949	8.91756	13.1982
 553	1	3	-0.006078	-19.5672	3.9363	12.7845
 554	1	4	0.009572	-16.9617	7.0497	12.2041
 555	1	1	0.047642	-18.229	7.47585	12.678
 556	1	1	-0.203391	-19.3182	6.59016	12.7755
 557	1	1	-0.073691	-19.0823	5.28841	12.3306
 558	1	1	-0.02876	-17.8289	4.83007	11.9801
 559	1	3	0.009648	-18.135	3.38699	12.3952
 560	1	1	-0.19087	-16.7057	5.67551	11.9396
 561	1	2	0.036362	-19.6431	3.71293	14.312
 562	1	2	0.011094	-19.8124	2.20447	14.6056
 563	1	2	-0.166666	-18.1728	3.88379	14.7606
 564	1	2	-0.004747	-18.3887	1.59278	14.2482
 565	1	2	0.045805	-17.5984	2.85578	13.7583
 566	1	2	-0.016724	-18.4188	8.9879	14.7393
 567	1	2	-0.038268	-19.1752	9.82828	12.3922
 568	1	2	0.015931	-19.8983	8.9199	15.194
 569	1	2	0.006127	-20.1581	10.6269	13.2773
 570	1	2	-0.02901	-20.8769	9.70087	14.2813
 571	1	6	0.060706	-11.4585	12.7241	5.3726
 572	1	6	0.109818	-14.9132	16.6911	10.0757
 573	1	6	0.034398	-13.2388	10.2534	9.03912
 574	1	6	0.029719	-12.9026	13.9003	11.3846
 575	1	6	0.036789	-11.5133	12.139	10.0795
 576	1	6	0.059436	-12.144	10.488	11.5374
 577	1	6	0.028349	-15.5379	13.2053	11.2988
 578	1	5	0.156131	-14.2911	7.66445	11.057
 579	1	6	0.059364	-13.4251	12.3257	12.8344
 580	1	6	0.111824	-15.6473	10.836	10.0491
 581	1	6	0.047288	-15.1708	12.0901	8.88065
 582	1	5	0.182101	-16.7297	11.402	13.3969
 583	1	6	0.044359	-20.4258	3.54384	12.229
 584	1	5	0.179067	-20.2546	6.86658	13.2455
 585	1	6	0.038058	-18.0964	2.64189	11.5931
 586	1	5	0.140142	-15.6985	5.29437	11.8047
 587	1	6	0.008074	-20.3607	4.35245	14.8412
 588	1	6	-0.001887	-20.1288	1.96028	15.6283
 589	1	6	0.034873	-18.0102	3.595	15.8089
 590	1	6	0.057592	-17.7825	4.90005	14.622
 591	1	6	0.004826	-17.9382	1.06102	15.0966
 592	1	6	0.004917	-16.5085	2.74063	13.8086
 593	1	6	0.011371	-18.0085	9.93752	15.107
 594	1	6	0.016934	-17.8422	8.19981	15.2413
 595	1	6	0.017694	-19.763	9.21143	11.7
 596	1	6	0.024086	-18.6185	10.5286	11.7563
 597	1	6	0.001925	-19.9638	9.31742	16.215
 598	1	6	-0.011831	-20.2211	7.87409	15.2617
 599	1	6	-0.015908	-20.8975	11.1324	12.6434
 600	1	6	0.008977	-19.6157	11.4118	13.8206
 601	1	6	0.008233	-21.5697	10.2874	14.898
 602	1	6	0.006802	-21.4913	8.98496	13.7202
 603	1	2	-0.163429	-11.639	12.3705	6.39546
 604	1	6	0.069136	-10.6643	12.2045	6.87058
 605	1	6	0.097616	-12.154	11.404	6.33295
 606	1	2	-0.211261	-15.3697	15.9341	9.42643
 607	1	6	0.077702	-16.035	16.4503	8.72298
 608	1	6	0.070844	-15.9905	15.2809	10.051
 609	1	1	0.055893	-20.0656	12.9196	-8.75013
 610	1	1	0.066037	-18.7331	13.2635	-8.82717
 611	1	1	-0.13485	-17.9745	13.7306	-7.73863
 612	1	1	-0.112685	-18.7934	13.9799	-6.6241
 613	1	1	-0.113466	-20.8673	13.089	-7.60442
 614	1	2	0.031197	-18.1344	13.1153	-4.23408
 615	1	1	-0.092412	-20.1538	13.7334	-6.57524
 616	1	3	0.085064	-20.2587	14.048	-5.09164
 617	1	3	0.073163	-18.6793	14.262	-5.14087
 618	1	3	-0.014897	-18.4972	13.7732	-2.88103
 619	1	2	0.044047	-20.4492	12.8761	-4.0978
 620	1	1	-0.216606	-17.6617	12.8259	-0.509408
 621	1	3	-0.029794	-20.0769	13.6761	-2.81263
 622	1	2	-0.27828	-19.1996	11.9896	-4.36213
 623	1	1	0.002791	-19.8772	12.8889	-1.53322
 624	1	1	-0.015593	-18.4981	12.9073	-1.62937
 625	1	1	-0.275006	-20.5305	12.9427	-0.293439
 626	1	1	-0.00175	-19.7171	12.8282	0.858153
 627	1	4	0.011736	-18.3124	12.6809	0.740819
 628	1	2	0.056595	-20.1239	13.0746	2.33005
 629	1	3	-0.006078	-16.0787	13.9979	5.60875
 630	1	4	0.009572	-17.7197	12.728	2.08425
 631	1	1	0.047642	-18.741	13.0577	3.00571
 632	1	1	-0.203391	-18.42	13.4716	4.32067
 633	1	1	-0.073691	-17.0785	13.3091	4.68799
 634	1	1	-0.02876	-16.1131	12.8106	3.84198
 635	1	3	0.009648	-14.9718	13.3413	4.68611
 636	1	1	-0.19087	-16.3596	12.6325	2.47389
 637	1	2	0.036362	-15.8195	15.5292	5.40817
 638	1	2	0.011094	-14.504	15.9984	6.10347
 639	1	2	-0.166666	-15.3018	15.6047	3.95442
 640	1	2	-0.004747	-13.3826	15.203	5.30206