pySIMM System Object

2012 atoms
2332 bonds
4836 angles
8888 dihedrals
156 impropers

6 atom types
11 bond types
24 angle types
21 dihedral types
2 improper types

-175.053434 175.053434 xlo xhi
-175.053434 175.053434 ylo yhi
-175.053434 175.053434 zlo zhi

Masses

   1	12.01	# ca
   2	12.01	# c3
   3	12.01	# cy
   4	12.01	# cp
   5	1.008	# ha
   6	1.008	# hc

Pair Coeffs

   1	0.086	3.3996695084235347	# ca
   2	0.1094	3.3996695084235347	# c3
   3	0.086	3.3996695084235347	# cy
   4	0.086	3.3996695084235347	# cp
   5	0.015	2.59964245953351	# ha
   6	0.0157	2.649532787749369	# hc

Bond Coeffs

   1	321.2	1.5154	# ca,cy
   2	461.1	1.3984	# ca,ca
   3	345.8	1.086	# ca,ha
   4	300.9	1.5375	# c3,c3
   5	305.9	1.5319	# c3,cy
   6	450.2	1.4058	# ca,cp
   7	351.4	1.4854	# cp,cp
   8	321.0	1.5156	# c3,ca
   9	330.6	1.0969	# c3,hc
  10	333.3	1.0949	# cy,hc
  11	285.0	1.5562	# cy,cy

Angle Coeffs

   1	66.72	118.38	# ca,cp,ca
   2	46.8	110.47	# ca,c3,hc
   3	62.86	111.51	# c3,c3,c3
   4	46.43	110.14	# c3,cy,hc
   5	63.43	120.63	# c3,ca,cp
   6	63.56	112.24	# ca,c3,ca
   7	64.05	121.11	# ca,cp,cp
   8	66.62	120.02	# ca,ca,ca
   9	47.98	119.86	# cp,ca,ha
  10	39.4	107.58	# hc,c3,hc
  11	63.53	120.77	# c3,ca,ca
  12	63.51	120.86	# ca,ca,cy
  13	62.8	113.57	# c3,cy,ca
  14	67.9	96.03	# cy,c3,cy
  15	61.4	116.81	# ca,cy,cy
  16	63.15	112.07	# c3,c3,ca
  17	45.97	114.53	# ca,cy,hc
  18	66.26	120.69	# ca,ca,cp
  19	46.34	109.8	# c3,c3,hc
  20	48.18	119.88	# ca,ca,ha
  21	62.73	112.39	# c3,c3,cy
  22	46.29	110.75	# cy,c3,hc
  23	44.83	114.79	# cy,cy,hc
  24	60.66	118.7	# c3,cy,cy

Dihedral Coeffs

   1	1	0.15555555555555556	3	0	# X,cy,cy,X
   2	1	3.625	2	180	# X,ca,cp,X
   3	3	0.18	3	0	0.25	2	180	0.2	1	180	# c3,c3,c3,c3
   4	1	0.16	3	0	# hc,c3,c3,c3
   5	1	0.0	2	0.0	# ca,ca,cy,cy
   6	1	1.0	2	180	# X,cp,cp,X
   7	1	0.0	2	0.0	# ca,ca,cy,c3
   8	3	0.38	3	180.0	0.0	2	0.0	1.15	1	0.0	# ca,ca,cy,hc
   9	1	0.0	2	0	# X,c3,ca,X
  10	1	0.16	3	0.0	# cy,c3,cy,ca
  11	1	0.15555555555555556	3	0	# X,c3,c3,X
  12	1	0.16	3	0.0	# c3,c3,cy,ca
  13	1	0.16	3	0.0	# hc,c3,cy,ca
  14	3	0.18	3	0.0	0.25	2	180.0	0.2	1	180.0	# cy,c3,cy,cy
  15	1	0.15	3	0	# hc,c3,c3,hc
  16	3	0.18	3	0.0	0.25	2	180.0	0.2	1	180.0	# c3,c3,cy,cy
  17	1	0.16	3	0.0	# hc,c3,cy,cy
  18	1	0.16	3	0.0	# cy,c3,cy,hc
  19	1	0.16	3	0.0	# c3,c3,cy,hc
  20	1	0.15	3	0.0	# hc,c3,cy,hc
  21	1	3.625	2	180	# X,ca,ca,X

Improper Coeffs

   1	1.1	-1	2	# ca,ca,ca,c3
   2	1.1	-1	2	# ca,X,X,ha

Atoms

   1	1	1	0.055893	-31.3056	38.3348	47.6253
   2	1	1	0.066037	-31.4994	37.9958	46.2993
   3	1	1	-0.13485	-30.7677	36.9908	45.6398
   4	1	1	-0.112685	-29.9699	36.2433	46.5274
   5	1	1	-0.113466	-30.377	37.7004	48.4699
   6	1	2	0.031197	-27.3824	35.7344	45.8211
   7	1	1	-0.092412	-29.7922	36.5726	47.8634
   8	1	3	0.085064	-28.5407	35.7158	48.0127
   9	1	3	0.073163	-28.7415	35.341	46.4817
  10	1	3	-0.014897	-27.4206	37.2871	45.8361
  11	1	2	0.044047	-27.0891	36.2845	48.0723
  12	1	1	-0.216606	-25.0363	37.9419	44.6975
  13	1	3	-0.029794	-27.2242	37.6598	47.364
  14	1	2	-0.27828	-26.4074	35.4006	46.9876
  15	1	1	0.002791	-25.9331	38.3252	46.9294
  16	1	1	-0.015593	-26.1014	38.0025	45.6038
  17	1	1	-0.275006	-24.6877	38.6229	47.4957
  18	1	1	-0.00175	-23.6162	38.7109	46.5772
  19	1	4	0.011736	-23.7895	38.3824	45.2104
  20	1	2	0.056595	-22.1486	39.0358	46.9012
  21	1	3	-0.006078	-18.8275	39.1533	42.7515
  22	1	4	0.009572	-22.479	38.442	44.5522
  23	1	1	0.047642	-21.5037	38.8203	45.5145
  24	1	1	-0.203391	-20.1564	39.0401	45.1372
  25	1	1	-0.073691	-19.8604	38.7665	43.7968
  26	1	1	-0.02876	-20.8087	38.4137	42.8699
  27	1	3	0.009648	-19.9281	38.7527	41.6805
  28	1	1	-0.19087	-22.166	38.2849	43.1778
  29	1	2	0.036362	-18.5557	40.6442	42.4283
  30	1	2	0.011094	-19.7539	41.5597	42.7966
  31	1	2	-0.166666	-18.7019	40.6236	40.8927
  32	1	2	-0.004747	-20.8377	41.162	41.7615
  33	1	2	0.045805	-20.1426	40.073	40.9007
  34	1	2	-0.016724	-22.0548	40.5109	47.3909
  35	1	2	-0.038268	-21.5961	38.0407	47.9624
  36	1	2	0.015931	-20.6916	40.9025	48.0075
  37	1	2	0.006127	-20.2197	38.4413	48.5407
  38	1	2	-0.02901	-20.221	39.8901	49.0741
  39	1	6	0.060706	-31.7302	36.7403	43.7157
  40	1	6	0.109818	-30.7967	38.3839	50.4817
  41	1	6	0.034398	-27.1604	35.2656	44.8542
  42	1	6	0.029719	-28.6467	34.8646	48.6941
  43	1	6	0.036789	-28.9576	34.2807	46.3107
  44	1	6	0.059436	-28.2616	37.7372	45.3036
  45	1	6	0.028349	-26.6129	36.2936	49.0607
  46	1	5	0.156131	-25.1448	37.5376	43.6965
  47	1	6	0.059364	-27.9351	38.3526	47.8185
  48	1	6	0.111824	-25.3703	35.698	46.7802
  49	1	6	0.047288	-26.42	34.334	47.2499
  50	1	5	0.182101	-24.5535	38.7339	48.5669
  51	1	6	0.044359	-17.9147	38.5482	42.7217
  52	1	5	0.179067	-19.4058	39.4343	45.8102
  53	1	6	0.038058	-19.6517	37.9201	41.0242
  54	1	5	0.140142	-22.9267	38.1362	42.4181
  55	1	6	0.008074	-17.5892	41.0196	42.7875
  56	1	6	-0.001887	-20.0917	41.4329	43.8315
  57	1	6	0.034873	-17.988	39.9458	40.4044
  58	1	6	0.057592	-18.6255	41.6222	40.4396
  59	1	6	0.004826	-21.7654	40.8162	42.2313
  60	1	6	0.004917	-20.5877	39.9486	39.9054
  61	1	6	0.011371	-22.8219	40.6757	48.1587
  62	1	6	0.016934	-22.2961	41.1942	46.5662
  63	1	6	0.017694	-21.5376	37.0318	47.5336
  64	1	6	0.024086	-22.3013	37.9782	48.8004
  65	1	6	0.001925	-20.7733	41.8974	48.4631
  66	1	6	-0.011831	-19.9343	40.9917	47.2218
  67	1	6	-0.015908	-19.4433	38.329	47.7758
  68	1	6	0.008977	-19.9531	37.7542	49.3538
  69	1	6	0.008233	-20.8857	39.9514	49.9456
  70	1	6	0.006802	-19.2153	40.1586	49.4214
  71	1	2	-0.163429	-30.7197	36.8446	44.1296
  72	1	6	0.069136	-30.2549	37.7234	43.6655
  73	1	6	0.097616	-30.1425	35.9605	43.8322
  74	1	2	-0.211261	-29.9383	38.2669	49.8087
  75	1	6	0.077702	-29.2125	37.6092	50.3026
  76	1	6	0.070844	-29.4714	39.2518	49.6839
  77	1	1	0.055893	-22.8134	43.0818	38.0575
  78	1	1	0.066037	-24.3121	42.7824	37.2671
  79	1	1	-0.13485	-25.8362	43.3346	37.5484
  80	1	1	-0.112685	-26.1431	44.4896	38.6201
  81	1	1	-0.113466	-22.7301	44.299	39.0545
  82	1	2	0.031197	-28.3337	45.3887	39.9615
  83	1	1	-0.092412	-24.9689	45.0966	39.476
  84	1	3	0.085064	-25.9667	46.2114	39.9504
  85	1	3	0.073163	-27.1184	45.5868	39.0088
  86	1	3	-0.014897	-27.888	44.1817	40.8227
  87	1	2	0.044047	-26.6696	46.2815	41.3475
  88	1	1	-0.216606	-29.9076	43.4633	42.5506
  89	1	3	-0.029794	-26.772	44.7998	41.777
  90	1	2	-0.27828	-28.1303	46.6032	40.914
  91	1	1	0.002791	-27.7217	44.4754	42.9133
  92	1	1	-0.015593	-28.6725	43.931	42.0965
  93	1	1	-0.275006	-27.8759	44.6436	44.2927
  94	1	1	-0.00175	-29.1008	44.149	44.8053
  95	1	4	0.011736	-30.0828	43.5694	43.9563
  96	1	2	0.056595	-29.5531	44.1315	46.2772
  97	1	3	-0.006078	-33.8795	41.3157	47.3534
  98	1	4	0.009572	-31.2152	43.1397	44.7851
  99	1	1	0.047642	-30.9352	43.4678	46.1359
 100	1	1	-0.203391	-31.7887	43.0528	47.1849
 101	1	1	-0.073691	-32.9488	42.3767	46.7842
 102	1	1	-0.02876	-33.1981	42.0303	45.4755
 103	1	3	0.009648	-34.147	40.9033	45.8415
 104	1	1	-0.19087	-32.3328	42.3475	44.4233
 105	1	2	0.036362	-33.3105	40.0141	47.9767
 106	1	2	0.011094	-31.8731	39.7304	47.4544
 107	1	2	-0.166666	-34.1477	38.9773	47.1914
 108	1	2	-0.004747	-32.1117	39.3376	45.9412
 109	1	2	0.045805	-33.663	39.4297	45.7942
 110	1	2	-0.016724	-28.5839	43.2477	47.1235
 111	1	2	-0.038268	-29.7028	45.5727	46.8508
 112	1	2	0.015931	-28.5083	43.6735	48.6071
 113	1	2	0.006127	-28.4392	46.0631	47.593
 114	1	2	-0.02901	-28.0502	45.1434	48.778
 115	1	6	0.060706	-27.921	42.7812	37.3466
 116	1	6	0.109818	-20.6923	43.36	39.2122
 117	1	6	0.034398	-29.3171	45.3046	39.4821
 118	1	6	0.029719	-25.7017	47.2374	39.6838
 119	1	6	0.036789	-27.4164	46.226	38.1709
 120	1	6	0.059436	-27.6721	43.2735	40.2518
 121	1	6	0.028349	-26.224	46.9656	42.0806
 122	1	5	0.156131	-30.662	43.0502	41.8892
 123	1	6	0.059364	-25.8168	44.2984	41.8867
 124	1	6	0.111824	-28.8363	46.6097	41.7559
 125	1	6	0.047288	-28.2067	47.5639	40.3869
 126	1	5	0.182101	-27.1091	45.0963	44.9116
 127	1	6	0.044359	-34.7601	41.6823	47.8925
 128	1	5	0.179067	-31.5263	43.1649	48.2306
 129	1	6	0.038058	-35.1855	41.0129	45.5103
 130	1	5	0.140142	-32.4542	41.9364	43.4264
 131	1	6	0.008074	-33.408	39.9444	49.0673
 132	1	6	-0.001887	-31.1295	40.5201	47.6114
 133	1	6	0.034873	-35.2292	39.116	47.3294
 134	1	6	0.057592	-33.9023	37.9342	47.43
 135	1	6	0.004826	-31.5157	39.9107	45.2215
 136	1	6	0.004917	-34.0658	38.84	44.9611
 137	1	6	0.011371	-27.5691	43.3104	46.7101
 138	1	6	0.016934	-28.8736	42.1911	47.0509
 139	1	6	0.017694	-30.5399	45.6005	47.5606
 140	1	6	0.024086	-29.9619	46.2736	46.0465
 141	1	6	0.001925	-27.8259	43.0096	49.153
 142	1	6	-0.011831	-29.4937	43.5501	49.0704
 143	1	6	-0.015908	-28.5928	47.0866	47.9578
 144	1	6	0.008977	-27.6027	46.1108	46.8862
 145	1	6	0.008233	-26.9604	45.1763	48.9039
 146	1	6	0.006802	-28.4812	45.5385	49.7069
 147	1	2	-0.163429	-26.9923	42.7459	36.7638
 148	1	6	0.069136	-27.1549	43.3026	35.8329
 149	1	6	0.097616	-26.7984	41.6981	36.5037
 150	1	2	-0.211261	-21.1654	44.3188	39.4614
 151	1	6	0.077702	-20.5552	45.0277	38.8945
 152	1	6	0.070844	-20.9723	44.4102	40.5366
 153	1	1	0.055893	-11.4085	49.8555	35.8283
 154	1	1	0.066037	-11.9453	49.9764	34.5611
 155	1	1	-0.13485	-13.1247	50.7189	34.3333
 156	1	1	-0.112685	-13.4566	51.5531	35.4219
 157	1	1	-0.113466	-11.7721	50.6253	36.9434
 158	1	2	0.031197	-16.0278	51.7089	36.3993
 159	1	1	-0.092412	-12.764	51.5696	36.6234
 160	1	3	0.085064	-13.8365	52.3729	37.3418
 161	1	3	0.073163	-14.6506	52.3332	35.9771
 162	1	3	-0.014897	-15.6907	50.2155	36.6667
 163	1	2	0.044047	-14.8077	51.7654	38.3911
 164	1	1	-0.216606	-18.0231	48.9889	37.5229
 165	1	3	-0.029794	-14.8262	50.2655	37.997
 166	1	2	-0.27828	-16.164	52.2897	37.8376
 167	1	1	0.002791	-15.9112	49.4402	38.6278
 168	1	1	-0.015593	-16.6813	49.3959	37.4979
 169	1	1	-0.275006	-16.3446	49.0806	39.9017
 170	1	1	-0.00175	-17.6505	48.5479	39.9493
 171	1	4	0.011736	-18.4726	48.5064	38.7872
 172	1	2	0.056595	-18.3836	48.0021	41.1879
 173	1	3	-0.006078	-23.1898	45.859	40.6676
 174	1	4	0.009572	-19.7765	47.9377	39.1736
 175	1	1	0.047642	-19.7277	47.6259	40.5555
 176	1	1	-0.203391	-20.7963	46.99	41.22
 177	1	1	-0.073691	-21.9106	46.6891	40.4317
 178	1	1	-0.02876	-21.9747	47.0133	39.0489
 179	1	3	0.009648	-23.3562	46.473	38.6687
 180	1	1	-0.19087	-20.9163	47.6457	38.3785
 181	1	2	0.036362	-23.6285	43.7765	40.8638
 182	1	2	0.011094	-23.3692	43.0042	39.1064
 183	1	2	-0.166666	-24.5563	42.9572	39.5583
 184	1	2	-0.004747	-23.5916	43.7118	37.1562
 185	1	2	0.045805	-24.1207	44.9165	37.4809
 186	1	2	-0.016724	-17.6944	46.7306	41.7661
 187	1	2	-0.038268	-18.6122	49.0853	42.2834
 188	1	2	0.015931	-16.4654	47.0249	42.6563
 189	1	2	0.006127	-17.3871	49.356	43.1876
 190	1	2	-0.02901	-16.7874	48.054	43.7611
 191	1	6	0.060706	-13.4219	50.4428	32.2045
 192	1	6	0.109818	-11.7112	51.0452	39.0766
 193	1	6	0.034398	-16.8708	51.8972	35.7227
 194	1	6	0.029719	-13.5278	53.3795	37.6447
 195	1	6	0.036789	-14.8021	53.3195	35.5251
 196	1	6	0.059436	-15.2655	49.6875	35.8074
 197	1	6	0.028349	-14.5893	51.9898	39.4427
 198	1	5	0.156131	-18.6682	49.0438	36.6523
 199	1	6	0.059364	-13.8683	49.7498	38.0134
 200	1	6	0.111824	-17.0317	51.8925	38.382
 201	1	6	0.047288	-16.2199	53.3867	37.8412
 202	1	5	0.182101	-15.7148	49.2148	40.7714
 203	1	6	0.044359	-23.8078	46.3908	41.3995
 204	1	5	0.179067	-20.7438	46.7032	42.2654
 205	1	6	0.038058	-23.9884	47.3435	38.4695
 206	1	5	0.140142	-20.9546	47.8648	37.3164
 207	1	6	0.008074	-23.1086	43.1709	41.6163
 208	1	6	-0.001887	-22.7237	42.045	39.2863
 209	1	6	0.034873	-25.4973	42.9746	40.1542
 210	1	6	0.057592	-24.9514	41.8415	39.4959
 211	1	6	0.004826	-23.0016	43.7063	36.1548
 212	1	6	0.004917	-24.8459	45.2665	36.7184
 213	1	6	0.011371	-17.4053	46.0574	40.9483
 214	1	6	0.016934	-18.4162	46.1755	42.3782
 215	1	6	0.017694	-19.4347	48.7625	42.9345
 216	1	6	0.024086	-18.9412	50.0234	41.8177
 217	1	6	0.001925	-15.6335	47.3872	42.0425
 218	1	6	-0.011831	-16.121	46.0913	43.1188
 219	1	6	-0.015908	-17.6864	50.0121	44.0148
 220	1	6	0.008977	-16.6204	49.9034	42.6295
 221	1	6	0.008233	-15.8777	48.2843	44.33
 222	1	6	0.006802	-17.501	47.6107	44.4678
 223	1	2	-0.163429	-14.0176	50.5236	33.1223
 224	1	6	0.069136	-14.6127	49.6071	33.2194
 225	1	6	0.097616	-14.7101	51.3654	32.9994
 226	1	2	-0.211261	-11.2703	50.3505	38.3512
 227	1	6	0.077702	-11.5183	49.3292	38.6661
 228	1	6	0.070844	-10.1801	50.4614	38.4025
 229	1	1	0.055893	-17.3726	38.3921	27.0175
 230	1	1	0.066037	-16.1481	38.3187	26.377
 231	1	1	-0.13485	-14.9243	38.6199	26.9906
 232	1	1	-0.112685	-15.0643	39.1396	28.2868
 233	1	1	-0.113466	-17.4606	38.6071	28.413
 234	1	2	0.031197	-13.5351	40.2235	30.1865
 235	1	1	-0.092412	-16.2598	39.0612	28.9993
 236	1	3	0.085064	-15.5478	38.7847	30.3361
 237	1	3	0.073163	-14.2114	38.9909	29.5209
 238	1	3	-0.014897	-14.5238	41.4026	29.8734
 239	1	2	0.044047	-15.392	39.7909	31.5225
 240	1	1	-0.216606	-13.2037	43.4601	30.9647
 241	1	3	-0.029794	-15.7375	41.131	30.8482
 242	1	2	-0.27828	-13.8422	39.8654	31.6659
 243	1	1	0.002791	-15.3092	42.393	31.5899
 244	1	1	-0.015593	-14.32	42.6782	30.6685
 245	1	1	-0.275006	-15.1442	42.7092	32.9543
 246	1	1	-0.00175	-14.0307	43.5229	33.2899
 247	1	4	0.011736	-13.1476	43.9682	32.2803
 248	1	2	0.056595	-13.4624	43.8806	34.6917
 249	1	3	-0.006078	-9.05949	46.9319	34.7494
 250	1	4	0.009572	-12.0464	44.6983	32.8967
 251	1	1	0.047642	-12.1467	44.5911	34.3024
 252	1	1	-0.203391	-11.1714	45.1775	35.1562
 253	1	1	-0.073691	-10.117	45.8422	34.4985
 254	1	1	-0.02876	-10.1677	46.089	33.148
 255	1	3	0.009648	-9.28055	47.2991	33.219
 256	1	1	-0.19087	-11.1083	45.5494	32.2763
 257	1	2	0.036362	-9.3606	48.27	35.4699
 258	1	2	0.011094	-10.878	48.4632	35.5732
 259	1	2	-0.166666	-8.99361	49.2917	34.3662
 260	1	2	-0.004747	-11.3376	48.6642	34.0741
 261	1	2	0.045805	-9.95167	48.7003	33.3084
 262	1	2	-0.016724	-14.3875	44.872	35.4522
 263	1	2	-0.038268	-13.1328	42.6262	35.554
 264	1	2	0.015931	-15.6221	44.1989	36.0928
 265	1	2	0.006127	-14.3517	41.9805	36.2555
 266	1	2	-0.02901	-15.219	43.0179	37.0014
 267	1	6	0.060706	-13.2978	37.1982	26.8215
 268	1	6	0.109818	-19.5759	38.1992	28.6749
 269	1	6	0.034398	-12.4802	40.3897	29.9344
 270	1	6	0.029719	-15.7057	37.7738	30.7272
 271	1	6	0.036789	-13.5261	38.1359	29.5143
 272	1	6	0.059436	-14.7409	41.5651	28.8123
 273	1	6	0.028349	-15.9514	39.5538	32.4362
 274	1	5	0.156131	-12.3696	43.5601	30.2777
 275	1	6	0.059364	-16.7491	41.1707	30.4283
 276	1	6	0.111824	-13.4995	40.6338	32.3705
 277	1	6	0.047288	-13.405	38.9027	31.9643
 278	1	5	0.182101	-15.7758	42.2507	33.7041
 279	1	6	0.044359	-8.05508	46.5657	34.9889
 280	1	5	0.179067	-11.2658	45.1711	36.2376
 281	1	6	0.038058	-8.3791	47.292	32.5959
 282	1	5	0.140142	-11.1579	45.8114	31.2241
 283	1	6	0.008074	-8.82985	48.4169	36.4189
 284	1	6	-0.001887	-11.4264	47.6868	36.12
 285	1	6	0.034873	-7.93697	49.2291	34.0697
 286	1	6	0.057592	-9.21174	50.3358	34.6253
 287	1	6	0.004826	-12.073	47.9302	33.7212
 288	1	6	0.004917	-9.97924	49.2547	32.362
 289	1	6	0.011371	-14.713	45.6735	34.7763
 290	1	6	0.016934	-13.8143	45.3576	36.2526
 291	1	6	0.017694	-12.4211	42.9158	36.3376
 292	1	6	0.024086	-12.6209	41.8749	34.9385
 293	1	6	0.001925	-16.3048	43.8477	35.3103
 294	1	6	-0.011831	-16.1775	44.94	36.6817
 295	1	6	-0.015908	-13.999	41.2241	36.968
 296	1	6	0.008977	-14.965	41.4422	35.5261
 297	1	6	0.008233	-16.1187	42.5313	37.3993
 298	1	6	0.006802	-14.6581	43.403	37.863
 299	1	2	-0.163429	-13.586	38.1795	26.4252
 300	1	6	0.069136	-13.6231	38.1047	25.3311
 301	1	6	0.097616	-12.7957	38.8953	26.6837
 302	1	2	-0.211261	-18.6413	38.1436	29.247
 303	1	6	0.077702	-18.5055	37.1056	29.5746
 304	1	6	0.070844	-18.7603	38.7678	30.1413
 305	1	1	0.055893	-15.4105	36.5196	11.4991
 306	1	1	0.066037	-14.4805	35.6215	11.9925
 307	1	1	-0.13485	-14.7091	34.7956	13.1041
 308	1	1	-0.112685	-15.8948	35.1142	13.7827
 309	1	1	-0.113466	-16.7096	36.6378	12.0396
 310	1	2	0.031197	-17.0052	34.5165	16.1466
 311	1	1	-0.092412	-16.8613	35.9751	13.2746
 312	1	3	0.085064	-18.0072	35.2688	14.0065
 313	1	3	0.073163	-16.8872	34.3251	14.6079
 314	1	3	-0.014897	-16.5104	35.9835	16.353
 315	1	2	0.044047	-18.7264	35.8271	15.2775
 316	1	1	-0.216606	-16.6865	36.1582	19.0222
 317	1	3	-0.029794	-17.7075	36.8642	15.8082
 318	1	2	-0.27828	-18.5507	34.6344	16.2627
 319	1	1	0.002791	-17.8912	37.3273	17.2493
 320	1	1	-0.015593	-16.8095	36.5993	17.7031
 321	1	1	-0.275006	-18.9996	37.5993	18.0727
 322	1	1	-0.00175	-18.8623	37.2493	19.4394
 323	1	4	0.011736	-17.7059	36.5844	19.9024
 324	1	2	0.056595	-19.9403	37.3158	20.5439
 325	1	3	-0.006078	-18.5684	35.069	25.2504
 326	1	4	0.009572	-17.9074	36.2069	21.2992
 327	1	1	0.047642	-19.2138	36.5914	21.706
 328	1	1	-0.203391	-19.6848	36.3008	23.0184
 329	1	1	-0.073691	-18.78	35.5926	23.8252
 330	1	1	-0.02876	-17.5078	35.2895	23.4246
 331	1	3	0.009648	-17.0679	34.8083	24.7785
 332	1	1	-0.19087	-16.9857	35.5803	22.1694
 333	1	2	0.036362	-18.3766	36.0039	26.4762
 334	1	2	0.011094	-18.0325	37.4414	26.0212
 335	1	2	-0.166666	-17.0059	35.4996	26.9916
 336	1	2	-0.004747	-16.6042	37.2773	25.3735
 337	1	2	0.045805	-16.2529	35.7721	25.6716
 338	1	2	-0.016724	-20.2532	38.803	20.8712
 339	1	2	-0.038268	-21.2158	36.5503	20.0826
 340	1	2	0.015931	-21.4879	39.0033	21.7801
 341	1	2	0.006127	-22.4488	36.7636	20.9907
 342	1	2	-0.02901	-22.7298	38.2609	21.2409
 343	1	6	0.060706	-14.2945	32.6815	12.8786
 344	1	6	0.109818	-18.6146	37.6688	11.9469
 345	1	6	0.034398	-16.5264	33.749	16.7675
 346	1	6	0.029719	-18.7329	34.7765	13.35
 347	1	6	0.036789	-16.9711	33.2645	14.3463
 348	1	6	0.059436	-15.5006	36.1955	15.9849
 349	1	6	0.028349	-19.7522	36.1891	15.134
 350	1	5	0.156131	-15.9239	35.4482	19.3249
 351	1	6	0.059364	-17.4707	37.6668	15.1008
 352	1	6	0.111824	-18.8874	34.8599	17.2834
 353	1	6	0.047288	-19.0664	33.7284	15.9165
 354	1	5	0.182101	-19.9352	37.9653	17.6624
 355	1	6	0.044359	-19.1284	34.1649	25.5135
 356	1	5	0.179067	-20.6626	36.5917	23.3819
 357	1	6	0.038058	-16.7214	33.7709	24.8454
 358	1	5	0.140142	-15.9632	35.3513	21.887
 359	1	6	0.008074	-19.1832	35.9553	27.218
 360	1	6	-0.001887	-18.7693	37.9226	25.3651
 361	1	6	0.034873	-17.0231	34.4341	27.261
 362	1	6	0.057592	-16.607	36.0577	27.8473
 363	1	6	0.004826	-16.5336	37.6022	24.3278
 364	1	6	0.004917	-15.177	35.5608	25.7087
 365	1	6	0.011371	-20.4374	39.3405	19.9318
 366	1	6	0.016934	-19.376	39.2769	21.3306
 367	1	6	0.017694	-20.9982	35.4774	20.0009
 368	1	6	0.024086	-21.4909	36.8846	19.0747
 369	1	6	0.001925	-21.7106	40.0749	21.8594
 370	1	6	-0.011831	-21.2645	38.6603	22.7963
 371	1	6	-0.015908	-22.3057	36.2487	21.9466
 372	1	6	0.008977	-23.3277	36.3017	20.5233
 373	1	6	0.008233	-23.0479	38.7289	20.3001
 374	1	6	0.006802	-23.5624	38.3687	21.9475
 375	1	2	-0.163429	-13.8906	33.5539	13.4066
 376	1	6	0.069136	-12.8462	33.6839	13.0962
 377	1	6	0.097616	-13.8943	33.3317	14.4809
 378	1	2	-0.211261	-17.8821	37.2147	11.2683
 379	1	6	0.077702	-17.551	37.99	10.5661
 380	1	6	0.070844	-18.3924	36.4326	10.6925
 381	1	1	0.055893	-0.718523	38.709	9.43616
 382	1	1	0.066037	-0.847196	37.4116	9.89386
 383	1	1	-0.13485	-1.79792	36.5017	9.39655
 384	1	1	-0.112685	-2.71905	37.1166	8.5328
 385	1	1	-0.113466	-1.55381	39.2782	8.4542
 386	1	2	0.031197	-5.09196	36.402	7.45629
 387	1	1	-0.092412	-2.62838	38.4365	8.10917
 388	1	3	0.085064	-3.4868	38.1979	6.87256
 389	1	3	0.073163	-3.56709	36.6864	7.34614
 390	1	3	-0.014897	-5.4803	37.2033	8.72759
 391	1	2	0.044047	-4.98469	38.6304	6.77097
 392	1	1	-0.216606	-8.10955	36.6361	8.83471
 393	1	3	-0.029794	-5.4241	38.7175	8.26067
 394	1	2	-0.27828	-5.62229	37.293	6.29617
 395	1	1	0.002791	-6.92256	38.7418	8.53173
 396	1	1	-0.015593	-6.96136	37.4259	8.93907
 397	1	1	-0.275006	-8.03983	39.4049	7.99993
 398	1	1	-0.00175	-9.25595	38.6803	8.03414
 399	1	4	0.011736	-9.27952	37.3231	8.4355
 400	1	2	0.056595	-10.6394	39.1313	7.52095
 401	1	3	-0.006078	-14.5355	35.4841	7.78024
 402	1	4	0.009572	-10.6174	36.7836	8.18555
 403	1	1	0.047642	-11.4362	37.8186	7.66492
 404	1	1	-0.203391	-12.8143	37.6057	7.40446
 405	1	1	-0.073691	-13.2509	36.287	7.59551
 406	1	1	-0.02876	-12.4421	35.2892	8.07716
 407	1	3	0.009648	-13.5865	34.3464	8.36589
 408	1	1	-0.19087	-11.1132	35.4849	8.45371
 409	1	2	0.036362	-15.5054	35.7587	8.9627
 410	1	2	0.011094	-14.7894	36.5304	10.1066
 411	1	2	-0.166666	-15.6	34.3312	9.55279
 412	1	2	-0.004747	-13.767	35.4651	10.6664
 413	1	2	0.045805	-14.0846	34.1876	9.82032
 414	1	2	-0.016724	-11.2104	40.2488	8.44522
 415	1	2	-0.038268	-10.5855	39.5644	6.02349
 416	1	2	0.015931	-12.2053	41.184	7.72183
 417	1	2	0.006127	-10.4252	41.0903	5.83486
 418	1	2	-0.02901	-11.5678	41.8958	6.50259
 419	1	6	0.060706	-1.59502	34.4775	8.6454
 420	1	6	0.109818	-0.436866	41.1264	8.21104
 421	1	6	0.034398	-5.39107	35.3465	7.4373
 422	1	6	0.029719	-2.97727	38.3659	5.91742
 423	1	6	0.036789	-3.09159	35.9588	6.67932
 424	1	6	0.059436	-4.94302	36.9202	9.63942
 425	1	6	0.028349	-5.19285	39.5128	6.15295
 426	1	5	0.156131	-8.08795	35.5602	8.97323
 427	1	6	0.059364	-4.84314	39.4196	8.8687
 428	1	6	0.111824	-6.71912	37.3318	6.24974
 429	1	6	0.047288	-5.24074	36.9735	5.31693
 430	1	5	0.182101	-7.95453	40.3841	7.54326
 431	1	6	0.044359	-15.0695	35.2088	6.86406
 432	1	5	0.179067	-13.4883	38.399	7.10108
 433	1	6	0.038058	-13.5957	33.4014	7.81139
 434	1	5	0.140142	-10.5234	34.7188	8.94648
 435	1	6	0.008074	-16.4704	36.1921	8.67219
 436	1	6	-0.001887	-14.3354	37.49	9.82922
 437	1	6	0.034873	-15.9737	33.5973	8.8249
 438	1	6	0.057592	-16.2175	34.2594	10.4573
 439	1	6	0.004826	-12.7219	35.7967	10.6875
 440	1	6	0.004917	-13.7939	33.2464	10.3033
 441	1	6	0.011371	-10.3863	40.8667	8.82561
 442	1	6	0.016934	-11.6881	39.8023	9.32715
 443	1	6	0.017694	-11.5134	39.2633	5.52004
 444	1	6	0.024086	-9.77482	39.0347	5.50631
 445	1	6	0.001925	-12.5939	41.9331	8.42328
 446	1	6	-0.011831	-13.0692	40.6	7.38421
 447	1	6	-0.015908	-10.3809	41.3327	4.76553
 448	1	6	0.008977	-9.46792	41.4093	6.26208
 449	1	6	0.008233	-11.1726	42.8718	6.81262
 450	1	6	0.006802	-12.3542	42.1002	5.76479
 451	1	2	-0.163429	-1.72656	34.9988	9.60156
 452	1	6	0.069136	-0.888974	34.7218	10.2538
 453	1	6	0.097616	-2.64861	34.6261	10.0645
 454	1	2	-0.211261	-1.23438	40.5627	7.71085
 455	1	6	0.077702	-0.906982	40.3522	6.68534
 456	1	6	0.070844	-2.11781	41.2108	7.65595
 457	1	1	0.055893	10.8299	29.177	3.59944
 458	1	1	0.066037	9.9453	28.3652	4.28731
 459	1	1	-0.13485	8.55678	28.3673	4.06059
 460	1	1	-0.112685	8.19984	29.1271	2.93054
 461	1	1	-0.113466	10.4471	30.0647	2.57722
 462	1	2	0.031197	6.12582	30.8773	3.18734
 463	1	1	-0.092412	9.09201	29.9204	2.22382
 464	1	3	0.085064	7.99196	30.7439	1.56093
 465	1	3	0.073163	6.97215	29.8428	2.38046
 466	1	3	-0.014897	7.12861	31.4	4.2542
 467	1	2	0.044047	7.61259	32.2027	1.9679
 468	1	1	-0.216606	5.61225	33.1913	5.61808
 469	1	3	-0.029794	8.13229	32.3037	3.42679
 470	1	2	-0.27828	6.07593	32.0434	2.15798
 471	1	1	0.002791	7.61186	33.4637	4.25496
 472	1	1	-0.015593	6.74508	32.6776	4.97824
 473	1	1	-0.275006	7.4347	34.8435	4.08594
 474	1	1	-0.00175	6.3779	35.4135	4.83391
 475	1	4	0.011736	5.49677	34.6036	5.59021
 476	1	2	0.056595	5.93142	36.8869	4.83296
 477	1	3	-0.006078	1.53381	37.9871	7.66701
 478	1	4	0.009572	4.4226	35.4529	6.11252
 479	1	1	0.047642	4.64152	36.7896	5.67881
 480	1	1	-0.203391	3.75895	37.8336	6.05853
 481	1	1	-0.073691	2.63964	37.4202	6.79035
 482	1	1	-0.02876	2.456	36.1355	7.22599
 483	1	3	0.009648	1.34042	36.4971	8.18172
 484	1	1	-0.19087	3.34385	35.0938	6.95925
 485	1	2	0.036362	1.92335	38.7528	8.95622
 486	1	2	0.011094	0.712136	38.8543	9.93744
 487	1	2	-0.166666	2.76461	37.7029	9.71931
 488	1	2	-0.004747	0.559284	37.3628	10.4598
 489	1	2	0.045805	1.67934	36.6017	9.69224
 490	1	2	-0.016724	7.03199	37.7521	5.51222
 491	1	2	-0.038268	5.64422	37.3608	3.37779
 492	1	2	0.015931	6.83566	39.2774	5.35254
 493	1	2	0.006127	5.44582	38.8877	3.23676
 494	1	2	-0.02901	6.6029	39.6813	3.88077
 495	1	6	0.060706	7.80298	26.7277	5.25937
 496	1	6	0.109818	11.6664	31.8382	2.84832
 497	1	6	0.034398	5.15892	30.522	3.5652
 498	1	6	0.029719	7.91827	30.6189	0.475094
 499	1	6	0.036789	6.32341	29.2241	1.7508
 500	1	6	0.059436	7.55017	30.6368	4.91179
 501	1	6	0.028349	7.93671	32.9963	1.28304
 502	1	5	0.156131	4.8438	32.5536	6.04226
 503	1	6	0.059364	9.20216	32.1302	3.55385
 504	1	6	0.111824	5.59536	32.9479	2.55545
 505	1	6	0.047288	5.56772	31.7573	1.22717
 506	1	5	0.182101	8.03219	35.418	3.38548
 507	1	6	0.044359	0.69778	38.4347	7.12244
 508	1	5	0.179067	3.92481	38.8761	5.81755
 509	1	6	0.038058	0.385314	36.0132	7.96489
 510	1	5	0.140142	3.22596	34.099	7.37645
 511	1	6	0.008074	2.43713	39.7073	8.78672
 512	1	6	-0.001887	0.843402	39.5697	10.7598
 513	1	6	0.034873	3.02288	38.023	10.7388
 514	1	6	0.057592	3.69136	37.4201	9.20319
 515	1	6	0.004826	0.617552	37.2945	11.554
 516	1	6	0.004917	1.97794	35.6579	10.1653
 517	1	6	0.011371	8.00429	37.4947	5.0721
 518	1	6	0.016934	7.10125	37.4989	6.57822
 519	1	6	0.017694	4.76586	36.8356	2.98056
 520	1	6	0.024086	6.48678	37.0794	2.73422
 521	1	6	0.001925	7.72136	39.7991	5.73684
 522	1	6	-0.011831	5.99344	39.6141	5.96641
 523	1	6	-0.015908	4.49442	39.1871	3.68957
 524	1	6	0.008977	5.37434	39.1477	2.17301
 525	1	6	0.008233	7.5231	39.5028	3.30927
 526	1	6	0.006802	6.39413	40.7569	3.82001
 527	1	2	-0.163429	7.55066	27.77	5.02807
 528	1	6	0.069136	7.53297	28.3292	5.97172
 529	1	6	0.097616	6.5372	27.7836	4.60828
 530	1	2	-0.211261	11.3485	31.164	2.04334
 531	1	6	0.077702	12.25	30.7389	1.5848
 532	1	6	0.070844	10.8377	31.7657	1.28142
 533	1	1	0.055893	20.1835	15.2566	9.3379
 534	1	1	0.066037	18.9514	14.6792	9.09458
 535	1	1	-0.13485	17.777	15.4451	8.94419
 536	1	1	-0.112685	18.0359	16.8204	8.77392
 537	1	1	-0.113466	20.4124	16.6405	9.36765
 538	1	2	0.031197	16.6965	18.9148	7.88539
 539	1	1	-0.092412	19.2961	17.3788	8.94432
 540	1	3	0.085064	18.7591	18.7598	9.23632
 541	1	3	0.073163	17.3117	18.1288	9.07679
 542	1	3	-0.014897	16.4845	20.2703	8.62917
 543	1	2	0.044047	18.8531	19.7843	8.0743
 544	1	1	-0.216606	15.2039	22.0149	6.93259
 545	1	3	-0.029794	17.962	20.8621	8.73067
 546	1	2	-0.27828	17.928	19.1874	6.97468
 547	1	1	0.002791	17.4644	21.9792	7.83966
 548	1	1	-0.015593	16.1835	21.4983	7.7852
 549	1	1	-0.275006	17.9646	22.9425	6.95927
 550	1	1	-0.00175	16.9945	23.5401	6.1176
 551	1	4	0.011736	15.6378	23.1142	6.14417
 552	1	2	0.056595	17.2039	24.655	5.07115
 553	1	3	-0.006078	12.9073	27.1329	3.57307
 554	1	4	0.009572	14.8659	23.9557	5.22001
 555	1	1	0.047642	15.7564	24.8559	4.59061
 556	1	1	-0.203391	15.2788	25.9177	3.79212
 557	1	1	-0.073691	13.8912	25.9782	3.60539
 558	1	1	-0.02876	13.0165	25.1347	4.26747
 559	1	3	0.009648	11.9092	26.1778	4.33809
 560	1	1	-0.19087	13.4619	24.1294	5.13788
 561	1	2	0.036362	13.1403	28.2872	4.5801
 562	1	2	0.011094	11.8638	29.1624	4.70996
 563	1	2	-0.166666	13.0683	27.5666	5.94704
 564	1	2	-0.004747	10.8586	28.2159	5.48965
 565	1	2	0.045805	11.6904	26.9139	5.68856
 566	1	2	-0.016724	17.7561	25.9669	5.70711
 567	1	2	-0.038268	18.0757	24.1871	3.87155
 568	1	2	0.015931	19.2802	25.9598	5.9709
 569	1	2	0.006127	19.5941	24.1738	4.15941
 570	1	2	-0.02901	20.0845	25.5229	4.72714
 571	1	6	0.060706	16.3359	13.8262	8.85003
 572	1	6	0.109818	22.5326	16.6406	9.8269
 573	1	6	0.034398	15.8159	18.47	7.40512
 574	1	6	0.029719	19.0512	19.1619	10.2138
 575	1	6	0.036789	16.6605	18.0942	9.95791
 576	1	6	0.059436	15.9087	20.1935	9.5589
 577	1	6	0.028349	19.8593	20.0946	7.76552
 578	1	5	0.156131	14.2015	21.604	6.86866
 579	1	6	0.059364	18.3026	21.1926	9.71917
 580	1	6	0.111824	17.7104	19.8984	6.1664
 581	1	6	0.047288	18.3369	18.2723	6.5267
 582	1	5	0.182101	19.0189	23.1861	6.9296
 583	1	6	0.044359	12.609	27.4705	2.57441
 584	1	5	0.179067	15.9293	26.7128	3.44273
 585	1	6	0.038058	10.9782	25.9169	3.82313
 586	1	5	0.140142	12.7843	23.6098	5.8077
 587	1	6	0.008074	14.059	28.8648	4.41824
 588	1	6	-0.001887	12.0107	30.1238	5.21969
 589	1	6	0.034873	13.0581	28.2639	6.79707
 590	1	6	0.057592	13.8763	26.8433	6.11164
 591	1	6	0.004826	10.4869	28.6751	6.41525
 592	1	6	0.004917	11.3292	26.2792	6.50745
 593	1	6	0.011371	17.2202	26.1844	6.64018
 594	1	6	0.016934	17.5528	26.8089	5.03494
 595	1	6	0.017694	17.901	24.8615	3.02298
 596	1	6	0.024086	17.7545	23.19	3.54318
 597	1	6	0.001925	19.5148	25.3026	6.8144
 598	1	6	-0.011831	19.5992	26.9654	6.27304
 599	1	6	-0.015908	20.137	23.9502	3.23237
 600	1	6	0.008977	19.8362	23.366	4.85892
 601	1	6	0.008233	21.15	25.4532	4.98023
 602	1	6	0.006802	19.9917	26.2934	3.95067
 603	1	2	-0.163429	16.3822	14.8824	9.14367
 604	1	6	0.069136	16.0788	14.955	10.1953
 605	1	6	0.097616	15.6477	15.4298	8.53997
 606	1	2	-0.211261	21.6492	17.2737	9.97796
 607	1	6	0.077702	21.8571	18.2503	9.52336
 608	1	6	0.070844	21.5199	17.4223	11.057
 609	1	1	0.055893	24.1744	2.97402	-1.76666
 610	1	1	0.066037	22.7978	2.97614	-1.8767
 611	1	1	-0.13485	21.925	3.25324	-0.806547
 612	1	1	-0.112685	22.6179	3.69255	0.337427
 613	1	1	-0.113466	24.8607	3.19144	-0.559268
 614	1	2	0.031197	22.0735	5.20395	2.41006
 615	1	1	-0.092412	23.9966	3.62871	0.458331
 616	1	3	0.085064	23.9714	3.68063	1.97198
 617	1	3	0.073163	22.3897	3.7897	1.83748
 618	1	3	-0.014897	22.2819	4.86235	3.91181
 619	1	2	0.044047	24.3897	5.02112	2.62072
 620	1	1	-0.216606	21.7845	7.24135	5.14511
 621	1	3	-0.029794	23.8578	4.70362	4.04392
 622	1	2	-0.27828	23.3454	6.03006	2.06025
 623	1	1	0.002791	23.7954	5.86901	5.00466
 624	1	1	-0.015593	22.4309	6.02294	4.88719
 625	1	1	-0.275006	24.6554	6.90867	5.36988
 626	1	1	-0.00175	24.0201	8.10492	5.76299
 627	1	4	0.011736	22.615	8.26748	5.66806
 628	1	2	0.056595	24.7195	9.4028	6.18358
 629	1	3	-0.006078	21.6101	13.3115	7.77794
 630	1	4	0.009572	22.29	9.65862	6.02787
 631	1	1	0.047642	23.5027	10.3279	6.3337
 632	1	1	-0.203391	23.5068	11.6403	6.84956
 633	1	1	-0.073691	22.2596	12.2689	6.89828
 634	1	1	-0.02876	21.0743	11.6243	6.61862
 635	1	3	0.009648	20.2378	12.588	7.45547
 636	1	1	-0.19087	21.0272	10.2732	6.24325
 637	1	2	0.036362	21.7555	13.1318	9.30916
 638	1	2	0.011094	20.7371	14.0385	10.0456
 639	1	2	-0.166666	21.0782	11.7654	9.56357
 640	1	2	-0.004747	19.34	13.3549	9.73919
 641	1	2	0.045805	19.7515	12.1311	8.85744
 642	1	2	-0.016724	25.467	9.20714	7.54142
 643	1	2	-0.038268	25.6567	9.90175	5.04427
 644	1	2	0.015931	26.9773	9.53004	7.47624
 645	1	2	0.006127	26.5654	11.087	5.45286