pySIMM System Object

3260 atoms
3772 bonds
7812 angles
14328 dihedrals
252 impropers

6 atom types
11 bond types
24 angle types
21 dihedral types
2 improper types

-206.435912 206.435912 xlo xhi
-206.435912 206.435912 ylo yhi
-206.435912 206.435912 zlo zhi

Masses

   1	12.01	# ca
   2	12.01	# c3
   3	12.01	# cy
   4	12.01	# cp
   5	1.008	# ha
   6	1.008	# hc

Pair Coeffs

   1	0.086	3.3996695084235347	# ca
   2	0.1094	3.3996695084235347	# c3
   3	0.086	3.3996695084235347	# cy
   4	0.086	3.3996695084235347	# cp
   5	0.015	2.59964245953351	# ha
   6	0.0157	2.649532787749369	# hc

Bond Coeffs

   1	321.2	1.5154	# ca,cy
   2	461.1	1.3984	# ca,ca
   3	345.8	1.086	# ca,ha
   4	300.9	1.5375	# c3,c3
   5	305.9	1.5319	# c3,cy
   6	450.2	1.4058	# ca,cp
   7	351.4	1.4854	# cp,cp
   8	321.0	1.5156	# c3,ca
   9	330.6	1.0969	# c3,hc
  10	333.3	1.0949	# cy,hc
  11	285.0	1.5562	# cy,cy

Angle Coeffs

   1	66.72	118.38	# ca,cp,ca
   2	46.8	110.47	# ca,c3,hc
   3	62.86	111.51	# c3,c3,c3
   4	46.43	110.14	# c3,cy,hc
   5	63.43	120.63	# c3,ca,cp
   6	63.56	112.24	# ca,c3,ca
   7	64.05	121.11	# ca,cp,cp
   8	66.62	120.02	# ca,ca,ca
   9	47.98	119.86	# cp,ca,ha
  10	39.4	107.58	# hc,c3,hc
  11	63.53	120.77	# c3,ca,ca
  12	63.51	120.86	# ca,ca,cy
  13	62.8	113.57	# c3,cy,ca
  14	67.9	96.03	# cy,c3,cy
  15	61.4	116.81	# ca,cy,cy
  16	63.15	112.07	# c3,c3,ca
  17	45.97	114.53	# ca,cy,hc
  18	66.26	120.69	# ca,ca,cp
  19	46.34	109.8	# c3,c3,hc
  20	48.18	119.88	# ca,ca,ha
  21	62.73	112.39	# c3,c3,cy
  22	46.29	110.75	# cy,c3,hc
  23	44.83	114.79	# cy,cy,hc
  24	60.66	118.7	# c3,cy,cy

Dihedral Coeffs

   1	1	0.15555555555555556	3	0	# X,cy,cy,X
   2	1	3.625	2	180	# X,ca,cp,X
   3	3	0.18	3	0	0.25	2	180	0.2	1	180	# c3,c3,c3,c3
   4	1	0.16	3	0	# hc,c3,c3,c3
   5	1	0.0	2	0.0	# ca,ca,cy,cy
   6	1	1.0	2	180	# X,cp,cp,X
   7	1	0.0	2	0.0	# ca,ca,cy,c3
   8	3	0.38	3	180.0	0.0	2	0.0	1.15	1	0.0	# ca,ca,cy,hc
   9	1	0.0	2	0	# X,c3,ca,X
  10	1	0.16	3	0.0	# cy,c3,cy,ca
  11	1	0.15555555555555556	3	0	# X,c3,c3,X
  12	1	0.16	3	0.0	# c3,c3,cy,ca
  13	1	0.16	3	0.0	# hc,c3,cy,ca
  14	3	0.18	3	0.0	0.25	2	180.0	0.2	1	180.0	# cy,c3,cy,cy
  15	1	0.15	3	0	# hc,c3,c3,hc
  16	3	0.18	3	0.0	0.25	2	180.0	0.2	1	180.0	# c3,c3,cy,cy
  17	1	0.16	3	0.0	# hc,c3,cy,cy
  18	1	0.16	3	0.0	# cy,c3,cy,hc
  19	1	0.16	3	0.0	# c3,c3,cy,hc
  20	1	0.15	3	0.0	# hc,c3,cy,hc
  21	1	3.625	2	180	# X,ca,ca,X

Improper Coeffs

   1	1.1	-1	2	# ca,ca,ca,c3
   2	1.1	-1	2	# ca,X,X,ha

Atoms

   1	1	1	0.055893	6.09444	-20.3164	44.4861
   2	1	1	0.066037	6.01762	-19.234	43.6321
   3	1	1	-0.13485	5.54805	-19.3024	42.3067
   4	1	1	-0.112685	5.03552	-20.5782	41.999
   5	1	1	-0.113466	5.78528	-21.6329	44.1007
   6	1	2	0.031197	5.60432	-21.7211	39.5788
   7	1	1	-0.092412	5.17564	-21.6757	42.834
   8	1	3	0.085064	4.86221	-22.6811	41.7384
   9	1	3	0.073163	4.66197	-21.4247	40.7843
  10	1	3	-0.014897	7.01033	-21.4686	40.1773
  11	1	2	0.044047	5.94391	-23.5365	41.0072
  12	1	1	-0.216606	8.46645	-22.0952	38.0059
  13	1	3	-0.029794	7.24344	-22.6882	41.1554
  14	1	2	-0.27828	5.51997	-23.2753	39.5332
  15	1	1	0.002791	8.40142	-23.0607	40.2401
  16	1	1	-0.015593	8.17821	-22.0087	39.3745
  17	1	1	-0.275006	8.99032	-24.267	39.834
  18	1	1	-0.00175	9.44052	-24.3152	38.4941
  19	1	4	0.011736	9.16225	-23.2583	37.596
  20	1	2	0.056595	10.0754	-25.5184	37.7725
  21	1	3	-0.006078	10.5288	-25.0837	32.4668
  22	1	4	0.009572	9.4944	-23.7055	36.2375
  23	1	1	0.047642	10.0378	-25.018	36.3117
  24	1	1	-0.203391	10.4615	-25.6997	35.1432
  25	1	1	-0.073691	10.1907	-25.0308	33.9457
  26	1	1	-0.02876	9.63622	-23.7818	33.8762
  27	1	3	0.009648	9.87649	-23.6366	32.3827
  28	1	1	-0.19087	9.31073	-23.0247	35.0046
  29	1	2	0.036362	11.9808	-24.8327	31.9917
  30	1	2	0.011094	12.7997	-23.999	33.014
  31	1	2	-0.166666	11.7361	-23.7627	30.9094
  32	1	2	-0.004747	12.1516	-22.591	32.9256
  33	1	2	0.045805	11.0424	-22.7654	31.8587
  34	1	2	-0.016724	11.5236	-25.718	38.2995
  35	1	2	-0.038268	9.21259	-26.7994	37.9766
  36	1	2	0.015931	12.2003	-27.0259	37.831
  37	1	2	0.006127	9.89703	-28.1081	37.5164
  38	1	2	-0.02901	11.3163	-28.2613	38.1063
  39	1	6	0.060706	5.17562	-17.2714	41.654
  40	1	6	0.109818	5.59682	-23.7387	44.5909
  41	1	6	0.034398	5.37496	-21.1945	38.6439
  42	1	6	0.029719	3.95064	-23.2674	41.8981
  43	1	6	0.036789	3.63109	-21.2935	40.4377
  44	1	6	0.059436	7.17638	-20.4605	40.5642
  45	1	6	0.028349	6.01455	-24.5883	41.3115
  46	1	5	0.156131	8.08635	-21.3729	37.2914
  47	1	6	0.059364	7.53797	-22.4668	42.1854
  48	1	6	0.111824	6.20579	-23.7254	38.8029
  49	1	6	0.047288	4.50277	-23.6317	39.3213
  50	1	5	0.182101	9.02037	-25.1319	40.4882
  51	1	6	0.044359	10.0239	-25.8562	31.8764
  52	1	5	0.179067	10.9507	-26.6655	35.1537
  53	1	6	0.038058	8.98554	-23.5666	31.7491
  54	1	5	0.140142	8.94626	-22.0046	34.9424
  55	1	6	0.008074	12.5	-25.728	31.6334
  56	1	6	-0.001887	12.7636	-24.4165	34.0262
  57	1	6	0.034873	11.0777	-24.1138	30.1029
  58	1	6	0.057592	12.6666	-23.3694	30.4763
  59	1	6	0.004826	11.7518	-22.2469	33.8842
  60	1	6	0.004917	10.7334	-21.8247	31.386
  61	1	6	0.011371	11.5032	-25.7238	39.3972
  62	1	6	0.016934	12.1416	-24.8628	38.0079
  63	1	6	0.017694	8.24851	-26.6859	37.4639
  64	1	6	0.024086	8.98126	-26.9134	39.0424
  65	1	6	0.001925	13.1613	-27.1425	38.348
  66	1	6	-0.011831	12.4345	-26.9662	36.7625
  67	1	6	-0.015908	9.94437	-28.1449	36.423
  68	1	6	0.008977	9.28284	-28.9645	37.8225
  69	1	6	0.008233	11.239	-28.4119	39.191
  70	1	6	0.006802	11.7946	-29.1588	37.694
  71	1	2	-0.163429	5.69198	-18.1732	41.3026
  72	1	6	0.069136	6.74801	-17.9186	41.1488
  73	1	6	0.097616	5.26545	-18.4468	40.3297
  74	1	2	-0.211261	6.18466	-22.8635	44.8937
  75	1	6	0.077702	7.24538	-23.0985	44.7419
  76	1	6	0.070844	6.02417	-22.7071	45.9677
  77	1	1	0.055893	13.2362	-21.8791	36.0852
  78	1	1	0.066037	12.7942	-20.218	36.019
  79	1	1	-0.13485	13.1413	-18.9458	37.0014
  80	1	1	-0.112685	14.1936	-19.0595	38.2084
  81	1	1	-0.113466	14.4012	-22.2992	37.0557
  82	1	2	0.031197	14.7968	-17.6188	40.4322
  83	1	1	-0.092412	14.8952	-20.4384	38.5099
  84	1	3	0.085064	15.8695	-19.6651	39.4678
  85	1	3	0.073163	15.165	-18.2706	39.0685
  86	1	3	-0.014897	13.6039	-18.4888	40.8945
  87	1	2	0.044047	15.7899	-19.6525	41.0292
  88	1	1	-0.216606	12.2119	-17.751	43.1136
  89	1	3	-0.029794	14.2843	-19.8618	41.311
  90	1	2	-0.27828	15.9763	-18.1322	41.3085
  91	1	1	0.002791	13.8055	-19.5502	42.7141
  92	1	1	-0.015593	13.2108	-18.3665	42.3537
  93	1	1	-0.275006	13.4673	-20.2615	43.869
  94	1	1	-0.00175	12.539	-19.615	44.7181
  95	1	4	0.011736	11.9359	-18.3821	44.3537
  96	1	2	0.056595	11.9093	-20.1907	45.9975
  97	1	3	-0.006078	7.38899	-18.027	47.4478
  98	1	4	0.009572	10.8891	-18.0688	45.3354
  99	1	1	0.047642	10.8529	-19.1136	46.2921
 100	1	1	-0.203391	9.8052	-19.2066	47.2327
 101	1	1	-0.073691	8.87909	-18.1577	47.2089
 102	1	1	-0.02876	8.91496	-17.1319	46.288
 103	1	3	0.009648	7.42862	-16.8163	46.4214
 104	1	1	-0.19087	9.88376	-17.0696	45.2779
 105	1	2	0.036362	6.4158	-19.0255	46.7685
 106	1	2	0.011094	7.02699	-19.6191	45.4554
 107	1	2	-0.166666	5.3926	-18.0042	46.2203
 108	1	2	-0.004747	6.97886	-18.3942	44.454
 109	1	2	0.045805	6.40805	-17.2472	45.3319
 110	1	2	-0.016724	11.24	-21.5742	45.7115
 111	1	2	-0.038268	12.9478	-20.2584	47.1561
 112	1	2	0.015931	11.2676	-22.5259	46.9286
 113	1	2	0.006127	13.6812	-21.6167	47.2235
 114	1	2	-0.02901	12.7098	-22.8091	47.4176
 115	1	6	0.060706	12.414	-17.0169	37.6686
 116	1	6	0.109818	13.7094	-24.2608	36.2015
 117	1	6	0.034398	14.6309	-16.5342	40.4231
 118	1	6	0.029719	16.9317	-19.6981	39.2163
 119	1	6	0.036789	15.801	-17.585	38.4982
 120	1	6	0.059436	12.7513	-18.4808	40.2077
 121	1	6	0.028349	16.4774	-20.327	41.5551
 122	1	5	0.156131	11.6351	-16.9087	42.7464
 123	1	6	0.059364	13.8946	-20.8067	40.9448
 124	1	6	0.111824	15.8652	-17.874	42.3705
 125	1	6	0.047288	16.9487	-17.76	40.9582
 126	1	5	0.182101	13.8247	-21.2701	44.0474
 127	1	6	0.044359	7.07719	-17.7621	48.4642
 128	1	5	0.179067	9.65171	-20.0871	47.8461
 129	1	6	0.038058	7.18095	-15.8404	46.8533
 130	1	5	0.140142	9.79952	-16.3856	44.4398
 131	1	6	0.008074	5.98893	-19.7801	47.441
 132	1	6	-0.001887	8.00415	-20.1065	45.539
 133	1	6	0.034873	4.96495	-17.3679	47.008
 134	1	6	0.057592	4.56499	-18.4611	45.6621
 135	1	6	0.004826	7.92172	-18.1895	43.9348
 136	1	6	0.004917	5.97549	-16.4212	44.7535
 137	1	6	0.011371	11.7576	-22.0816	44.8884
 138	1	6	0.016934	10.2064	-21.4337	45.3695
 139	1	6	0.017694	12.4385	-20.0999	48.1159
 140	1	6	0.024086	13.6761	-19.4429	47.0577
 141	1	6	0.001925	10.7709	-23.4717	46.6774
 142	1	6	-0.011831	10.6922	-22.0824	47.7495
 143	1	6	-0.015908	14.4163	-21.6054	48.0381
 144	1	6	0.008977	14.2497	-21.7621	46.2971
 145	1	6	0.008233	13.1133	-23.6805	46.886
 146	1	6	0.006802	12.6719	-23.0841	48.4795
 147	1	2	-0.163429	12.4623	-17.614	36.7496
 148	1	6	0.069136	13.009	-17.0341	35.9962
 149	1	6	0.097616	11.4366	-17.7589	36.3889
 150	1	2	-0.211261	14.5939	-23.8691	36.7199
 151	1	6	0.077702	15.3988	-24.0865	36.0107
 152	1	6	0.070844	14.6586	-24.5213	37.5986
 153	1	1	0.055893	21.4279	-29.4855	29.1778
 154	1	1	0.066037	21.6039	-28.239	28.5873
 155	1	1	-0.13485	22.3678	-27.2211	29.1901
 156	1	1	-0.112685	23.1182	-27.6675	30.2898
 157	1	1	-0.113466	22.0861	-29.8893	30.3567
 158	1	2	0.031197	22.9407	-26.1957	32.5796
 159	1	1	-0.092412	23.0163	-28.9413	30.8254
 160	1	3	0.085064	23.6563	-28.5361	32.1542
 161	1	3	0.073163	23.7297	-27.0705	31.5494
 162	1	3	-0.014897	21.4598	-26.6441	32.3923
 163	1	2	0.044047	22.887	-28.3433	33.4979
 164	1	1	-0.216606	19.8835	-25.1763	34.1147
 165	1	3	-0.029794	21.4345	-28.1	33.0251
 166	1	2	-0.27828	23.3586	-26.9139	33.8955
 167	1	1	0.002791	20.4806	-27.5319	34.0495
 168	1	1	-0.015593	20.4767	-26.2815	33.4975
 169	1	1	-0.275006	19.9571	-27.8348	35.3083
 170	1	1	-0.00175	19.2754	-26.7653	35.9378
 171	1	4	0.011736	19.2251	-25.4745	35.3397
 172	1	2	0.056595	18.5443	-26.7796	37.2976
 173	1	3	-0.006078	15.8096	-22.4941	38.8503
 174	1	4	0.009572	18.439	-24.5919	36.2125
 175	1	1	0.047642	18.0375	-25.3309	37.3516
 176	1	1	-0.203391	17.2148	-24.7707	38.3546
 177	1	1	-0.073691	16.8063	-23.4472	38.1435
 178	1	1	-0.02876	17.1899	-22.7184	36.9851
 179	1	3	0.009648	16.498	-21.3797	37.213
 180	1	1	-0.19087	18.0274	-23.2534	36.0003
 181	1	2	0.036362	13.6806	-22.3711	39.013
 182	1	2	0.011094	13.0368	-21.8684	37.2568
 183	1	2	-0.166666	12.8214	-21.0247	38.1837
 184	1	2	-0.004747	13.8098	-20.7236	35.6937
 185	1	2	0.045805	14.923	-20.299	36.3394
 186	1	2	-0.016724	17.3312	-27.7532	37.3183
 187	1	2	-0.038268	19.5066	-27.0471	38.4906
 188	1	2	0.015931	17.7123	-29.2392	37.5012
 189	1	2	0.006127	19.8762	-28.5363	38.6874
 190	1	2	-0.02901	18.6298	-29.4481	38.7256
 191	1	6	0.060706	22.2615	-25.5949	27.761
 192	1	6	0.109818	22.2641	-31.2268	32.0633
 193	1	6	0.034398	23.1269	-25.1152	32.5383
 194	1	6	0.029719	24.6375	-28.9859	32.3411
 195	1	6	0.036789	24.7509	-26.6927	31.4288
 196	1	6	0.059436	21.0594	-26.5171	31.3836
 197	1	6	0.028349	23.0246	-29.1276	34.2527
 198	1	5	0.156131	19.9245	-24.1777	33.6927
 199	1	6	0.059364	20.9878	-28.9047	32.4438
 200	1	6	0.111824	22.8418	-26.5203	34.7815
 201	1	6	0.047288	24.4418	-26.8663	34.0715
 202	1	5	0.182101	20.0739	-28.8175	35.7462
 203	1	6	0.044359	16.2241	-22.2338	39.8305
 204	1	5	0.179067	16.8747	-25.3416	39.2126
 205	1	6	0.038058	17.2885	-20.6541	37.4139
 206	1	5	0.140142	18.3194	-22.6877	35.1239
 207	1	6	0.008074	13.1049	-23.2263	39.3879
 208	1	6	-0.001887	12.1572	-22.6055	37.0316
 209	1	6	0.034873	12.6916	-20.4558	39.1339
 210	1	6	0.057592	11.6683	-20.7466	38.1909
 211	1	6	0.004826	13.9231	-20.7862	34.5406
 212	1	6	0.004917	15.2192	-19.2796	36.0172
 213	1	6	0.011371	16.7415	-27.6281	36.4044
 214	1	6	0.016934	16.6661	-27.482	38.1477
 215	1	6	0.017694	19.0303	-26.6983	39.4159
 216	1	6	0.024086	20.4217	-26.4522	38.3728
 217	1	6	0.001925	18.2027	-29.6178	36.5982
 218	1	6	-0.011831	16.799	-29.8349	37.6252
 219	1	6	-0.015908	20.4364	-28.6493	39.6242
 220	1	6	0.008977	20.5507	-28.8642	37.8894
 221	1	6	0.008233	18.9406	-30.4991	38.7811
 222	1	6	0.006802	18.0598	-29.2367	39.6397
 223	1	2	-0.163429	22.1997	-25.7512	28.845
 224	1	6	0.069136	21.2254	-25.3761	29.1832
 225	1	6	0.097616	22.9786	-25.139	29.3161
 226	1	2	-0.211261	21.6777	-31.1252	31.1419
 227	1	6	0.077702	20.6167	-31.0862	31.4182
 228	1	6	0.070844	21.8349	-32.0321	30.5451
 229	1	1	0.055893	20.1473	-18.3727	33.4028
 230	1	1	0.066037	20.2715	-18.0498	32.0618
 231	1	1	-0.13485	19.3322	-18.4395	31.0904
 232	1	1	-0.112685	18.4053	-19.3787	31.5686
 233	1	1	-0.113466	19.0859	-19.1502	33.91
 234	1	2	0.031197	16.5532	-20.9865	30.4584
 235	1	1	-0.092412	18.2925	-19.7385	32.906
 236	1	3	0.085064	16.8197	-20.1278	32.7738
 237	1	3	0.073163	16.9588	-19.7112	31.2514
 238	1	3	-0.014897	17.7558	-21.9348	30.7167
 239	1	2	0.044047	16.3106	-21.6035	32.6995
 240	1	1	-0.216606	17.336	-24.2364	29.299
 241	1	3	-0.029794	17.5737	-22.3723	32.2361
 242	1	2	-0.27828	15.4517	-21.5405	31.4023
 243	1	1	0.002791	17.3609	-23.7757	31.69
 244	1	1	-0.015593	17.5379	-23.3942	30.3895
 245	1	1	-0.275006	16.903	-25.0441	32.0702
 246	1	1	-0.00175	16.7564	-25.9656	30.9983
 247	1	4	0.011736	16.9785	-25.5614	29.6535
 248	1	2	0.056595	16.396	-27.4693	31.055
 249	1	3	-0.006078	18.1997	-30.1493	26.9685
 250	1	4	0.009572	16.883	-26.7332	28.7815
 251	1	1	0.047642	16.6174	-27.8684	29.5808
 252	1	1	-0.203391	16.785	-29.177	29.0651
 253	1	1	-0.073691	17.2006	-29.269	27.7259
 254	1	1	-0.02876	17.4641	-28.1486	26.9583
 255	1	3	0.009648	18.5333	-28.8411	26.1408
 256	1	1	-0.19087	17.3394	-26.8456	27.4492
 257	1	2	0.036362	19.584	-30.5397	27.5709
 258	1	2	0.011094	19.9777	-29.5865	28.7286
 259	1	2	-0.166666	20.5164	-30.0492	26.4388
 260	1	2	-0.004747	20.2138	-28.2171	27.9925
 261	1	2	0.045805	20.0259	-28.5853	26.4806
 262	1	2	-0.016724	17.3346	-28.2766	32.005
 263	1	2	-0.038268	14.8979	-27.6909	31.3994
 264	1	2	0.015931	16.9637	-28.1924	33.5051
 265	1	2	0.006127	14.572	-27.5364	32.9002
 266	1	2	-0.02901	15.4634	-28.4548	33.7582
 267	1	6	0.060706	18.4443	-16.9334	29.8118
 268	1	6	0.109818	19.3566	-18.5376	35.9791
 269	1	6	0.034398	16.2679	-20.8366	29.4096
 270	1	6	0.029719	16.1277	-19.5198	33.3668
 271	1	6	0.036789	16.3465	-18.8584	30.9385
 272	1	6	0.059436	18.7295	-21.5506	30.3933
 273	1	6	0.028349	15.8133	-21.9945	33.596
 274	1	5	0.156131	17.468	-23.9118	28.2724
 275	1	6	0.059364	18.4399	-22.2702	32.8965
 276	1	6	0.111824	15.0727	-22.5221	31.0876
 277	1	6	0.047288	14.6074	-20.8449	31.4933
 278	1	5	0.182101	16.7049	-25.2869	33.1072
 279	1	6	0.044359	17.7673	-30.9659	26.3799
 280	1	5	0.179067	16.7626	-30.0527	29.7048
 281	1	6	0.038058	18.3544	-28.9149	25.0623
 282	1	5	0.140142	17.7777	-25.9999	26.9296
 283	1	6	0.008074	19.6955	-31.6028	27.8184
 284	1	6	-0.001887	19.2787	-29.5374	29.57
 285	1	6	0.034873	20.3082	-30.5401	25.4777
 286	1	6	0.057592	21.5856	-30.1631	26.6605
 287	1	6	0.004826	19.6213	-27.3841	28.3788
 288	1	6	0.004917	20.5455	-27.9102	25.7891
 289	1	6	0.011371	18.3755	-27.96	31.8597
 290	1	6	0.016934	17.2994	-29.3379	31.7353
 291	1	6	0.017694	14.6089	-28.7046	31.092
 292	1	6	0.024086	14.2784	-27.0033	30.8105
 293	1	6	0.001925	17.2351	-27.2113	33.9044
 294	1	6	-0.011831	17.5568	-28.9261	34.0648
 295	1	6	-0.015908	13.5167	-27.7825	33.0739
 296	1	6	0.008977	14.7062	-26.4933	33.21
 297	1	6	0.008233	15.2269	-28.3099	34.8188
 298	1	6	0.006802	15.2353	-29.5026	33.5234
 299	1	2	-0.163429	19.1782	-17.7464	29.7491
 300	1	6	0.069136	20.1304	-17.318	29.412
 301	1	6	0.097616	18.8381	-18.4508	28.98
 302	1	2	-0.211261	18.7166	-19.1958	35.3794
 303	1	6	0.077702	17.6757	-18.8884	35.5358
 304	1	6	0.070844	18.8389	-20.2137	35.7664
 305	1	1	0.055893	32.4924	-7.76066	30.1463
 306	1	1	0.066037	31.9782	-8.28909	28.9725
 307	1	1	-0.13485	30.638	-8.71023	28.8644
 308	1	1	-0.112685	29.9781	-8.80482	30.1014
 309	1	1	-0.113466	31.7619	-7.68945	31.3481
 310	1	2	0.031197	27.5474	-9.67966	30.9369
 311	1	1	-0.092412	30.5319	-8.37039	31.3019
 312	1	3	0.085064	29.175	-8.11271	31.9393
 313	1	3	0.073163	28.5452	-8.54939	30.557
 314	1	3	-0.014897	28.5045	-10.8565	31.2464
 315	1	2	0.044047	28.5221	-9.08698	32.9706
 316	1	1	-0.216606	26.6445	-12.6665	31.917
 317	1	3	-0.029794	29.1721	-10.4627	32.6269
 318	1	2	-0.27828	27.101	-9.20214	32.3497
 319	1	1	0.002791	28.483	-11.7015	33.1859
 320	1	1	-0.015593	27.8859	-12.0241	31.9839
 321	1	1	-0.275006	27.9341	-12.06	34.4269
 322	1	1	-0.00175	26.7709	-12.8653	34.3789
 323	1	4	0.011736	26.1293	-13.1344	33.1486
 324	1	2	0.056595	25.9294	-13.3641	35.5698
 325	1	3	-0.006078	20.9413	-14.6303	34.4463
 326	1	4	0.009572	24.8265	-13.7463	33.4253
 327	1	1	0.047642	24.6904	-13.9193	34.8271
 328	1	1	-0.203391	23.4697	-14.3766	35.3835
 329	1	1	-0.073691	22.4599	-14.6972	34.4656
 330	1	1	-0.02876	22.5772	-14.4392	33.1185
 331	1	3	0.009648	21.0826	-14.2972	32.9011
 332	1	1	-0.19087	23.7363	-13.9217	32.538
 333	1	2	0.036362	20.098	-15.9332	34.437
 334	1	2	0.011094	20.9128	-17.1397	33.8698
 335	1	2	-0.166666	19.1563	-15.5944	33.2583
 336	1	2	-0.004747	21.0529	-16.781	32.3389
 337	1	2	0.045805	20.2887	-15.4312	32.2177
 338	1	2	-0.016724	26.707	-14.479	36.3219
 339	1	2	-0.038268	25.5827	-12.1685	36.5114
 340	1	2	0.015931	26.0635	-14.8859	37.6664
 341	1	2	0.006127	25.0061	-12.5647	37.8919
 342	1	2	-0.02901	25.8399	-13.6648	38.5834
 343	1	6	0.060706	30.5785	-9.04083	26.7197
 344	1	6	0.109818	31.8592	-7.18886	33.4552
 345	1	6	0.034398	26.7466	-9.88288	30.2148
 346	1	6	0.029719	28.9913	-7.0731	32.2322
 347	1	6	0.036789	28.0249	-7.75767	30.007
 348	1	6	0.059436	29.1586	-11.1515	30.4182
 349	1	6	0.028349	28.5676	-8.77883	34.0227
 350	1	5	0.156131	26.0724	-12.7177	30.9967
 351	1	6	0.059364	30.2656	-10.4828	32.6903
 352	1	6	0.111824	26.4621	-9.92779	32.8708
 353	1	6	0.047288	26.5794	-8.23597	32.3179
 354	1	5	0.182101	28.3371	-11.6753	35.358
 355	1	6	0.044359	20.4834	-13.8554	35.0711
 356	1	5	0.179067	23.2815	-14.403	36.4487
 357	1	6	0.038058	20.7338	-13.3086	32.5825
 358	1	5	0.140142	23.7673	-13.5839	31.5073
 359	1	6	0.008074	19.5809	-16.1478	35.3802
 360	1	6	-0.001887	21.8631	-17.361	34.3725
 361	1	6	0.034873	18.5933	-14.6643	33.42
 362	1	6	0.057592	18.4395	-16.3898	33.0172
 363	1	6	0.004826	22.0816	-16.796	31.9563
 364	1	6	0.004917	19.9445	-15.2008	31.202
 365	1	6	0.011371	27.7265	-14.1264	36.5262
 366	1	6	0.016934	26.8086	-15.3628	35.6786
 367	1	6	0.017694	24.8905	-11.4832	36.005
 368	1	6	0.024086	26.4938	-11.5903	36.7055
 369	1	6	0.001925	26.7107	-15.6112	38.1756
 370	1	6	-0.011831	25.1085	-15.3934	37.4862
 371	1	6	-0.015908	23.9687	-12.8966	37.7893
 372	1	6	0.008977	24.9734	-11.6774	38.5369
 373	1	6	0.008233	26.8141	-13.2497	38.8729
 374	1	6	0.006802	25.3412	-13.9811	39.5084
 375	1	2	-0.163429	29.8961	-8.7943	27.5427
 376	1	6	0.069136	29.1207	-9.56964	27.5765
 377	1	6	0.097616	29.4096	-7.84013	27.306
 378	1	2	-0.211261	32.1311	-6.75414	32.4854
 379	1	6	0.077702	33.2098	-6.55401	32.5004
 380	1	6	0.070844	31.6105	-5.7937	32.3862
 381	1	1	0.055893	43.3615	-5.0157	18.6214
 382	1	1	0.066037	42.5914	-6.0477	18.1311
 383	1	1	-0.13485	41.1814	-6.07262	18.1963
 384	1	1	-0.112685	40.6695	-4.86004	18.7096
 385	1	1	-0.113466	42.8653	-3.84942	19.2208
 386	1	2	0.031197	38.5638	-4.67318	20.4692
 387	1	1	-0.092412	41.4632	-3.82668	19.1788
 388	1	3	0.085064	40.305	-3.0627	19.7803
 389	1	3	0.073163	39.37	-4.2193	19.21
 390	1	3	-0.014897	39.6129	-5.48946	21.2572
 391	1	2	0.044047	40.0196	-3.05323	21.3107
 392	1	1	-0.216606	38.1385	-6.06525	23.4552
 393	1	3	-0.029794	40.6343	-4.40559	21.7951
 394	1	2	-0.27828	38.4922	-3.34185	21.2749
 395	1	1	0.002791	40.2309	-4.86781	23.1813
 396	1	1	-0.015593	39.2956	-5.76856	22.7187
 397	1	1	-0.275006	40.1852	-4.28575	24.4526
 398	1	1	-0.00175	39.1439	-4.73963	25.2904
 399	1	4	0.011736	38.1129	-5.5691	24.7849
 400	1	2	0.056595	38.8353	-4.25559	26.7155
 401	1	3	-0.006078	33.8798	-4.60185	28.201
 402	1	4	0.009572	37.0251	-5.6015	25.7763
 403	1	1	0.047642	37.438	-4.86727	26.9159
 404	1	1	-0.203391	36.5442	-4.58487	27.9719
 405	1	1	-0.073691	35.2575	-5.12089	27.8472
 406	1	1	-0.02876	34.8263	-5.75327	26.6965
 407	1	3	0.009648	33.3866	-5.28165	26.8587
 408	1	1	-0.19087	35.6702	-5.98338	25.6016
 409	1	2	0.036362	33.0429	-5.32116	29.2873
 410	1	2	0.011094	33.4512	-6.82593	29.4233
 411	1	2	-0.166666	31.7083	-5.40495	28.5125
 412	1	2	-0.004747	32.8977	-7.46062	28.0902
 413	1	2	0.045805	32.2797	-6.2458	27.3457
 414	1	2	-0.016724	39.8604	-4.8628	27.7183
 415	1	2	-0.038268	38.7843	-2.69448	26.7842
 416	1	2	0.015931	39.9705	-4.04854	29.0268
 417	1	2	0.006127	40.0789	-2.0695	27.3515
 418	1	2	-0.02901	40.3977	-2.57924	28.779
 419	1	6	0.060706	39.2649	-7.00314	17.7815
 420	1	6	0.109818	44.3857	-3.21973	20.6297
 421	1	6	0.034398	37.6074	-5.17559	20.2772
 422	1	6	0.029719	40.1189	-2.07628	19.3414
 423	1	6	0.036789	38.6884	-3.88959	18.4184
 424	1	6	0.059436	40.0176	-6.35032	20.7155
 425	1	6	0.028349	40.3322	-2.15345	21.8552
 426	1	5	0.156131	37.2859	-6.56832	23.0114
 427	1	6	0.059364	41.6975	-4.54453	21.5783
 428	1	6	0.111824	38.0569	-3.4616	22.2761
 429	1	6	0.047288	37.9316	-2.56205	20.7418
 430	1	5	0.182101	40.8616	-3.48844	24.7394
 431	1	6	0.044359	33.7744	-3.51292	28.2628
 432	1	5	0.179067	36.7919	-3.88929	28.7669
 433	1	6	0.038058	33.0153	-4.60531	26.0808
 434	1	5	0.140142	35.2885	-6.31315	24.6408
 435	1	6	0.008074	32.9798	-4.78732	30.2436
 436	1	6	-0.001887	34.5124	-7.02703	29.6183
 437	1	6	0.034873	31.3446	-4.4206	28.1854
 438	1	6	0.057592	30.902	-5.89709	29.0706
 439	1	6	0.004826	33.6329	-8.05039	27.5276
 440	1	6	0.004917	31.5441	-6.51843	26.5792
 441	1	6	0.011371	40.8546	-4.89424	27.253
 442	1	6	0.016934	39.5959	-5.90391	27.9451
 443	1	6	0.017694	37.9564	-2.36871	27.4251
 444	1	6	0.024086	38.5717	-2.27747	25.7912
 445	1	6	0.001925	40.6841	-4.52905	29.708
 446	1	6	-0.011831	39.0002	-4.06053	29.5377
 447	1	6	-0.015908	39.9956	-0.97536	27.3607
 448	1	6	0.008977	40.9188	-2.31155	26.6894
 449	1	6	0.008233	41.4758	-2.4742	28.9559
 450	1	6	0.006802	39.8983	-1.93905	29.5176
 451	1	2	-0.163429	40.3297	-7.26611	17.8075
 452	1	6	0.069136	40.6081	-7.63905	16.8141
 453	1	6	0.097616	40.4569	-8.08669	18.5244
 454	1	2	-0.211261	43.727	-2.78231	19.8692
 455	1	6	0.077702	44.3572	-2.2836	19.1225
 456	1	6	0.070844	43.1129	-2.01554	20.3575
 457	1	1	0.055893	51.4707	-8.96936	5.52595
 458	1	1	0.066037	50.8022	-10.1506	5.78291
 459	1	1	-0.13485	49.3954	-10.2343	5.8507
 460	1	1	-0.112685	48.7669	-9.05889	5.38793
 461	1	1	-0.113466	50.8482	-7.75675	5.19254
 462	1	2	0.031197	46.6583	-7.94502	6.77444
 463	1	1	-0.092412	49.4582	-7.9067	5.04346
 464	1	3	0.085064	48.2182	-7.03298	5.08218
 465	1	3	0.073163	47.4103	-8.34898	5.45981
 466	1	3	-0.014897	47.7853	-7.94289	7.8357
 467	1	2	0.044047	47.9118	-6.04577	6.2449
 468	1	1	-0.216606	46.6337	-7.17349	10.2322
 469	1	3	-0.029794	48.67	-6.68116	7.44698
 470	1	2	-0.27828	46.4287	-6.42602	6.52061
 471	1	1	0.002791	48.3168	-6.14345	8.81115
 472	1	1	-0.015593	47.5209	-7.20527	9.14565
 473	1	1	-0.275006	48.4101	-4.96294	9.54677
 474	1	1	-0.00175	47.639	-4.95443	10.73
 475	1	4	0.011736	46.7465	-6.01275	11.051
 476	1	2	0.056595	47.6148	-3.83679	11.7793
 477	1	3	-0.006078	44.573	-4.70378	16.0304
 478	1	4	0.009572	46.0341	-5.64231	12.2885
 479	1	1	0.047642	46.5669	-4.40655	12.7536
 480	1	1	-0.203391	46.1835	-3.87201	14.004
 481	1	1	-0.073691	45.149	-4.55608	14.6414
 482	1	1	-0.02876	44.558	-5.69361	14.1561
 483	1	3	0.009648	43.8272	-5.98664	15.4631
 484	1	1	-0.19087	45.0338	-6.35131	13.0125
 485	1	2	0.036362	45.4996	-5.2984	17.132
 486	1	2	0.011094	44.6686	-5.72136	18.3722
 487	1	2	-0.166666	45.818	-6.71252	16.5964
 488	1	2	-0.004747	43.7967	-6.93981	17.8329
 489	1	2	0.045805	44.3414	-7.11982	16.3774
 490	1	2	-0.016724	49.0322	-3.6923	12.4112
 491	1	2	-0.038268	47.134	-2.5077	11.1287
 492	1	2	0.015931	49.2412	-2.41873	13.2652
 493	1	2	0.006127	47.3124	-1.26883	12.0346
 494	1	2	-0.02901	48.764	-1.14035	12.5427
 495	1	6	0.060706	48.8822	-11.4783	7.54914
 496	1	6	0.109818	52.4092	-6.44661	4.45831
 497	1	6	0.034398	45.766	-8.53354	7.02205
 498	1	6	0.029719	47.9314	-6.59644	4.11914
 499	1	6	0.036789	46.6928	-8.66067	4.693
 500	1	6	0.059436	48.2946	-8.90324	7.95679
 501	1	6	0.028349	48.1148	-4.98592	6.04665
 502	1	5	0.156131	45.9204	-7.96644	10.4313
 503	1	6	0.059364	49.7442	-6.818	7.31418
 504	1	6	0.111824	46.0067	-5.90248	7.38943
 505	1	6	0.047288	45.782	-6.24191	5.65204
 506	1	5	0.182101	49.0271	-4.12711	9.23254
 507	1	6	0.044359	43.9517	-3.86676	16.3669
 508	1	5	0.179067	46.6481	-3.00483	14.4546
 509	1	6	0.038058	42.734	-5.93645	15.4108
 510	1	5	0.140142	44.6833	-7.3346	12.7163
 511	1	6	0.008074	46.3814	-4.69237	17.3749
 512	1	6	-0.001887	45.2489	-5.97421	19.2695
 513	1	6	0.034873	46.3282	-7.34577	17.3362
 514	1	6	0.057592	46.4177	-6.7076	15.677
 515	1	6	0.004826	43.887	-7.82637	18.474
 516	1	6	0.004917	44.2071	-8.13159	15.9749
 517	1	6	0.011371	49.7758	-3.66546	11.6043
 518	1	6	0.016934	49.2661	-4.58141	13.0111
 519	1	6	0.017694	46.0816	-2.5976	10.8293
 520	1	6	0.024086	47.7017	-2.33061	10.2066
 521	1	6	0.001925	50.3063	-2.3194	13.5098
 522	1	6	-0.011831	48.7218	-2.51674	14.2236
 523	1	6	-0.015908	46.625	-1.32347	12.8865
 524	1	6	0.008977	47.0406	-0.365508	11.4739
 525	1	6	0.008233	49.4265	-0.939658	11.6906
 526	1	6	0.006802	48.8457	-0.280086	13.2191
 527	1	2	-0.163429	48.6533	-11.3996	6.4791
 528	1	6	0.069136	47.5674	-11.2844	6.3741
 529	1	6	0.097616	48.9376	-12.3462	6.00286
 530	1	2	-0.211261	51.5689	-6.42075	5.16321
 531	1	6	0.077702	50.897	-5.61087	4.85334
 532	1	6	0.070844	51.9677	-6.16811	6.15351
 533	1	1	0.055893	62.2275	-21.2796	-1.47255
 534	1	1	0.066037	60.9928	-21.9056	-1.53609
 535	1	1	-0.13485	59.8802	-21.4472	-0.802013
 536	1	1	-0.112685	60.058	-20.1676	-0.240884
 537	1	1	-0.113466	62.4641	-20.116	-0.721939
 538	1	2	0.031197	58.5507	-18.3251	0.898323
 539	1	1	-0.092412	61.2922	-19.5274	-0.218535
 540	1	3	0.085064	60.9792	-18.7541	1.04448
 541	1	3	0.073163	59.5753	-19.4872	1.03505
 542	1	3	-0.014897	58.6949	-17.7664	2.34628
 543	1	2	0.044047	60.6227	-17.2552	0.869237
 544	1	1	-0.216606	56.9072	-15.6977	2.66355
 545	1	3	-0.029794	60.1114	-17.0344	2.31347
 546	1	2	-0.27828	59.3131	-17.2835	0.0303812
 547	1	1	0.002791	59.3412	-15.7608	2.58101
 548	1	1	-0.015593	58.1245	-16.3865	2.63707
 549	1	1	-0.275006	59.4958	-14.3795	2.44698
 550	1	1	-0.00175	58.2952	-13.6353	2.54185
 551	1	4	0.011736	57.0353	-14.2821	2.68531
 552	1	2	0.056595	58.1308	-12.1041	2.4694
 553	1	3	-0.006078	53.5112	-10.203	3.91487
 554	1	4	0.009572	55.9881	-13.2515	2.76967
 555	1	1	0.047642	56.6078	-11.9864	2.63393
 556	1	1	-0.203391	55.8825	-10.7916	2.82093
 557	1	1	-0.073691	54.5109	-10.9397	3.05285
 558	1	1	-0.02876	53.9082	-12.1679	3.24034
 559	1	3	0.009648	52.8055	-11.6015	4.13397
 560	1	1	-0.19087	54.6297	-13.3702	3.1674
 561	1	2	0.036362	53.9734	-9.81026	5.33891
 562	1	2	0.011094	52.749	-9.41673	6.20181
 563	1	2	-0.166666	54.2887	-11.1763	5.99144
 564	1	2	-0.004747	52.0068	-10.7973	6.45255
 565	1	2	0.045805	52.9127	-11.8062	5.67168
 566	1	2	-0.016724	58.8563	-11.3817	3.6442
 567	1	2	-0.038268	58.5437	-11.5169	1.08872
 568	1	2	0.015931	60.3788	-11.2061	3.44096
 569	1	2	0.006127	60.0675	-11.3332	0.900976
 570	1	2	-0.02901	60.7088	-10.5643	2.07619
 571	1	6	0.060706	57.8089	-21.7542	-0.235394
 572	1	6	0.109818	63.9038	-18.5952	-0.15989
 573	1	6	0.034398	57.5392	-18.5963	0.570595
 574	1	6	0.029719	61.6661	-18.9529	1.87572
 575	1	6	0.036789	59.3446	-20.1764	1.85573
 576	1	6	0.059436	58.5321	-18.5086	3.13662
 577	1	6	0.028349	61.4243	-16.592	0.52038
 578	1	5	0.156131	55.9456	-16.2004	2.64824
 579	1	6	0.059364	60.8312	-17.2993	3.0971
 580	1	6	0.111824	58.8082	-16.3089	-0.00647073
 581	1	6	0.047288	59.4762	-17.6269	-0.999553
 582	1	5	0.182101	60.4666	-13.9349	2.26892
 583	1	6	0.044359	52.9356	-9.42546	3.40084
 584	1	5	0.179067	56.3679	-9.82277	2.87997
 585	1	6	0.038058	51.7842	-11.7035	3.75126
 586	1	5	0.140142	54.2079	-14.3161	3.49177
 587	1	6	0.008074	54.7956	-9.08472	5.37727
 588	1	6	-0.001887	52.9876	-8.89371	7.13734
 589	1	6	0.034873	54.4824	-11.0992	7.07091
 590	1	6	0.057592	55.1342	-11.7022	5.53022
 591	1	6	0.004826	51.8845	-11.0151	7.52172
 592	1	6	0.004917	52.8051	-12.8458	6.00553
 593	1	6	0.011371	58.6684	-11.9162	4.58457
 594	1	6	0.016934	58.43	-10.3794	3.77208
 595	1	6	0.017694	58.0738	-10.532	0.969413
 596	1	6	0.024086	58.1462	-12.1461	0.281623
 597	1	6	0.001925	60.8856	-12.173	3.52912
 598	1	6	-0.011831	60.7811	-10.5765	4.24468
 599	1	6	-0.015908	60.2541	-10.789	-0.033464
 600	1	6	0.008977	60.5524	-12.3086	0.787175
 601	1	6	0.008233	61.7968	-10.5199	1.94056
 602	1	6	0.006802	60.3446	-9.52862	2.069
 603	1	2	-0.163429	58.7116	-22.3443	-0.436933
 604	1	6	0.069136	58.4798	-23.0415	-1.2518
 605	1	6	0.097616	58.9378	-22.9348	0.459327
 606	1	2	-0.211261	63.852	-19.684	-0.284252
 607	1	6	0.077702	64.1232	-20.1486	0.671668
 608	1	6	0.070844	64.6079	-19.9706	-1.02618
 609	1	1	0.055893	62.2839	-30.7015	-16.535
 610	1	1	0.066037	60.9306	-30.5313	-16.3011
 611	1	1	-0.13485	60.4232	-30.1253	-15.0508
 612	1	1	-0.112685	61.4189	-29.657	-14.1711
 613	1	1	-0.113466	63.2744	-30.4527	-15.5707
 614	1	2	0.031197	61.5156	-28.2684	-11.9347
 615	1	1	-0.092412	62.7765	-29.8062	-14.4273
 616	1	3	0.085064	63.1564	-29.8039	-12.9621
 617	1	3	0.073163	61.6083	-29.6412	-12.6597
 618	1	3	-0.014897	62.1335	-28.7227	-10.5792
 619	1	2	0.044047	63.7873	-28.4973	-12.4141
 620	1	1	-0.216606	62.0555	-26.6114	-8.81199
 621	1	3	-0.029794	63.6859	-28.8741	-10.9157
 622	1	2	-0.27828	62.6581	-27.4421	-12.5922
 623	1	1	0.002791	63.9025	-27.7629	-9.91192
 624	1	1	-0.015593	62.5733	-27.6426	-9.60364
 625	1	1	-0.275006	64.8744	-26.8331	-9.53402
 626	1	1	-0.00175	64.4045	-25.8133	-8.67302
 627	1	4	0.011736	63.0379	-25.7206	-8.30003
 628	1	2	0.056595	65.2421	-24.6876	-8.04894
 629	1	3	-0.006078	62.941	-22.0483	-4.18616
 630	1	4	0.009572	62.8869	-24.5719	-7.39454
 631	1	1	0.047642	64.1528	-23.9518	-7.23937
 632	1	1	-0.203391	64.3355	-22.9124	-6.301
 633	1	1	-0.073691	63.1914	-22.4842	-5.61626
 634	1	1	-0.02876	61.9692	-23.1178	-5.73329
 635	1	3	0.009648	61.5409	-22.7696	-4.31243
 636	1	1	-0.19087	61.7816	-24.2208	-6.5782
 637	1	2	0.036362	63.6555	-22.8524	-3.07126
 638	1	2	0.011094	63.0045	-22.563	-1.69273
 639	1	2	-0.166666	63.1163	-24.2864	-3.2819