pySIMM System Object

2558 atoms
2962 bonds
6138 angles
11268 dihedrals
198 impropers

6 atom types
11 bond types
24 angle types
21 dihedral types
2 improper types

-190.067250 190.067250 xlo xhi
-190.067250 190.067250 ylo yhi
-190.067250 190.067250 zlo zhi

Masses

   1	12.01	# ca
   2	12.01	# c3
   3	12.01	# cy
   4	12.01	# cp
   5	1.008	# ha
   6	1.008	# hc

Pair Coeffs

   1	0.086	3.3996695084235347	# ca
   2	0.1094	3.3996695084235347	# c3
   3	0.086	3.3996695084235347	# cy
   4	0.086	3.3996695084235347	# cp
   5	0.015	2.59964245953351	# ha
   6	0.0157	2.649532787749369	# hc

Bond Coeffs

   1	321.2	1.5154	# ca,cy
   2	461.1	1.3984	# ca,ca
   3	345.8	1.086	# ca,ha
   4	300.9	1.5375	# c3,c3
   5	305.9	1.5319	# c3,cy
   6	450.2	1.4058	# ca,cp
   7	351.4	1.4854	# cp,cp
   8	321.0	1.5156	# c3,ca
   9	330.6	1.0969	# c3,hc
  10	333.3	1.0949	# cy,hc
  11	285.0	1.5562	# cy,cy

Angle Coeffs

   1	66.72	118.38	# ca,cp,ca
   2	46.8	110.47	# ca,c3,hc
   3	62.86	111.51	# c3,c3,c3
   4	46.43	110.14	# c3,cy,hc
   5	63.43	120.63	# c3,ca,cp
   6	63.56	112.24	# ca,c3,ca
   7	64.05	121.11	# ca,cp,cp
   8	66.62	120.02	# ca,ca,ca
   9	47.98	119.86	# cp,ca,ha
  10	39.4	107.58	# hc,c3,hc
  11	63.53	120.77	# c3,ca,ca
  12	63.51	120.86	# ca,ca,cy
  13	62.8	113.57	# c3,cy,ca
  14	67.9	96.03	# cy,c3,cy
  15	61.4	116.81	# ca,cy,cy
  16	63.15	112.07	# c3,c3,ca
  17	45.97	114.53	# ca,cy,hc
  18	66.26	120.69	# ca,ca,cp
  19	46.34	109.8	# c3,c3,hc
  20	48.18	119.88	# ca,ca,ha
  21	62.73	112.39	# c3,c3,cy
  22	46.29	110.75	# cy,c3,hc
  23	44.83	114.79	# cy,cy,hc
  24	60.66	118.7	# c3,cy,cy

Dihedral Coeffs

   1	1	0.15555555555555556	3	0	# X,cy,cy,X
   2	1	3.625	2	180	# X,ca,cp,X
   3	3	0.18	3	0	0.25	2	180	0.2	1	180	# c3,c3,c3,c3
   4	1	0.16	3	0	# hc,c3,c3,c3
   5	1	0.0	2	0.0	# ca,ca,cy,cy
   6	1	1.0	2	180	# X,cp,cp,X
   7	1	0.0	2	0.0	# ca,ca,cy,c3
   8	3	0.38	3	180.0	0.0	2	0.0	1.15	1	0.0	# ca,ca,cy,hc
   9	1	0.0	2	0	# X,c3,ca,X
  10	1	0.16	3	0.0	# cy,c3,cy,ca
  11	1	0.15555555555555556	3	0	# X,c3,c3,X
  12	1	0.16	3	0.0	# c3,c3,cy,ca
  13	1	0.16	3	0.0	# hc,c3,cy,ca
  14	3	0.18	3	0.0	0.25	2	180.0	0.2	1	180.0	# cy,c3,cy,cy
  15	1	0.15	3	0	# hc,c3,c3,hc
  16	3	0.18	3	0.0	0.25	2	180.0	0.2	1	180.0	# c3,c3,cy,cy
  17	1	0.16	3	0.0	# hc,c3,cy,cy
  18	1	0.16	3	0.0	# cy,c3,cy,hc
  19	1	0.16	3	0.0	# c3,c3,cy,hc
  20	1	0.15	3	0.0	# hc,c3,cy,hc
  21	1	3.625	2	180	# X,ca,ca,X

Improper Coeffs

   1	1.1	-1	2	# ca,ca,ca,c3
   2	1.1	-1	2	# ca,X,X,ha

Atoms

   1	1	1	0.055893	21.4257	-24.0607	-57.8384
   2	1	1	0.066037	22.1941	-24.5405	-56.7846
   3	1	1	-0.13485	21.6753	-24.7241	-55.485
   4	1	1	-0.112685	20.2791	-24.5443	-55.411
   5	1	1	-0.113466	20.0699	-23.7125	-57.7151
   6	1	2	0.031197	19.3142	-22.9582	-53.3757
   7	1	1	-0.092412	19.5257	-24.0642	-56.4709
   8	1	3	0.085064	18.3928	-23.5836	-55.5823
   9	1	3	0.073163	19.2255	-24.1668	-54.3641
  10	1	3	-0.014897	20.3496	-22.0312	-54.0547
  11	1	2	0.044047	18.1676	-22.0841	-55.2117
  12	1	1	-0.216606	20.3755	-19.9262	-52.3335
  13	1	3	-0.029794	19.593	-21.4583	-55.3214
  14	1	2	-0.27828	17.9669	-22.2372	-53.6769
  15	1	1	0.002791	19.789	-20.0945	-54.6852
  16	1	1	-0.015593	20.4067	-20.5952	-53.564
  17	1	1	-0.275006	19.1744	-18.8387	-54.7361
  18	1	1	-0.00175	19.2917	-18.0637	-53.5585
  19	1	4	0.011736	19.8484	-18.6092	-52.375
  20	1	2	0.056595	18.7196	-16.6561	-53.3205
  21	1	3	-0.006078	18.4063	-15.112	-48.2252
  22	1	4	0.009572	19.5958	-17.6703	-51.272
  23	1	1	0.047642	18.9393	-16.5205	-51.7977
  24	1	1	-0.203391	18.4954	-15.4753	-50.9481
  25	1	1	-0.073691	18.7443	-15.6838	-49.5894
  26	1	1	-0.02876	19.3408	-16.8048	-49.0842
  27	1	3	0.009648	19.0898	-16.4213	-47.6348
  28	1	1	-0.19087	19.7998	-17.8591	-49.8775
  29	1	2	0.036362	19.2682	-13.9734	-47.6272
  30	1	2	0.011094	20.703	-13.9474	-48.2198
  31	1	2	-0.166666	19.5656	-14.5619	-46.2334
  32	1	2	-0.004747	21.3588	-15.2258	-47.6305
  33	1	2	0.045805	20.2333	-15.8461	-46.7659
  34	1	2	-0.016724	19.5624	-15.6273	-54.1252
  35	1	2	-0.038268	17.2129	-16.6061	-53.7212
  36	1	2	0.015931	18.9544	-14.2074	-54.1525
  37	1	2	0.006127	16.6098	-15.1837	-53.8121
  38	1	2	-0.02901	17.4905	-14.2236	-54.6412
  39	1	6	0.060706	23.253	-24.0485	-54.156
  40	1	6	0.109818	19.4118	-23.2499	-59.7269
  41	1	6	0.034398	19.5062	-23.2056	-52.3242
  42	1	6	0.029719	17.434	-24.0877	-55.7462
  43	1	6	0.036789	18.7479	-25.0217	-53.8733
  44	1	6	0.059436	21.3353	-22.4724	-54.2066
  45	1	6	0.028349	17.3677	-21.5669	-55.756
  46	1	5	0.156131	20.6716	-20.4046	-51.406
  47	1	6	0.059364	20.0781	-21.5571	-56.2932
  48	1	6	0.111824	17.8665	-21.2731	-53.16
  49	1	6	0.047288	17.0964	-22.8594	-53.4288
  50	1	5	0.182101	18.607	-18.5137	-55.6018
  51	1	6	0.044359	17.3417	-14.9852	-47.9999
  52	1	5	0.179067	17.963	-14.6007	-51.2984
  53	1	6	0.038058	18.4323	-17.0856	-47.0633
  54	1	5	0.140142	20.2231	-18.7672	-49.4608
  55	1	6	0.008074	18.7801	-12.9907	-47.6123
  56	1	6	-0.001887	20.7116	-13.9369	-49.3169
  57	1	6	0.034873	18.6555	-14.7636	-45.6515
  58	1	6	0.057592	20.2479	-13.9372	-45.6397
  59	1	6	0.004826	21.7112	-15.9142	-48.4055
  60	1	6	0.004917	20.6004	-16.5257	-45.9865
  61	1	6	0.011371	19.6549	-15.9761	-55.1624
  62	1	6	0.016934	20.5831	-15.5838	-53.7229
  63	1	6	0.017694	16.6211	-17.2152	-53.0255
  64	1	6	0.024086	17.0889	-17.0656	-54.7089
  65	1	6	0.001925	19.5529	-13.5677	-54.8134
  66	1	6	-0.011831	19.0075	-13.7573	-53.1544
  67	1	6	-0.015908	16.4564	-14.7723	-52.8098
  68	1	6	0.008977	15.613	-15.2433	-54.2671
  69	1	6	0.008233	17.4674	-14.5335	-55.6942
  70	1	6	0.006802	17.0739	-13.2092	-54.5989
  71	1	2	-0.163429	22.5624	-24.8944	-54.2633
  72	1	6	0.069136	21.9686	-24.9638	-53.3435
  73	1	6	0.097616	23.1625	-25.8091	-54.3436
  74	1	2	-0.211261	19.3502	-22.8254	-58.7172
  75	1	6	0.077702	18.2881	-22.717	-58.4651
  76	1	6	0.070844	19.7938	-21.8228	-58.747
  77	1	1	0.055893	26.3543	-15.0915	-47.6293
  78	1	1	0.066037	27.7345	-16.0629	-47.9624
  79	1	1	-0.13485	28.3871	-16.6028	-49.3717
  80	1	1	-0.112685	27.858	-16.1107	-50.8044
  81	1	1	-0.113466	25.6994	-14.2977	-48.8221
  82	1	2	0.031197	28.0149	-16.9674	-53.3869
  83	1	1	-0.092412	26.6493	-15.1032	-50.8897
  84	1	3	0.085064	27.0105	-14.8964	-52.4042
  85	1	3	0.073163	28.2496	-15.9168	-52.258
  86	1	3	-0.014897	26.7969	-17.7758	-52.8654
  87	1	2	0.044047	26.2207	-15.4816	-53.6146
  88	1	1	-0.216606	26.3616	-19.6039	-54.8429
  89	1	3	-0.029794	25.5889	-16.761	-53.028
  90	1	2	-0.27828	27.3903	-16.046	-54.4748
  91	1	1	0.002791	25.0237	-17.7384	-54.0308
  92	1	1	-0.015593	26.0549	-18.6355	-53.8795
  93	1	1	-0.275006	24.2332	-17.662	-55.1819
  94	1	1	-0.00175	24.4468	-18.6906	-56.1244
  95	1	4	0.011736	25.462	-19.661	-55.9388
  96	1	2	0.056595	23.727	-18.8765	-57.4692
  97	1	3	-0.006078	24.6236	-23.3127	-60.0191
  98	1	4	0.009572	25.4814	-20.5345	-57.1177
  99	1	1	0.047642	24.5352	-20.0502	-58.0534
 100	1	1	-0.203391	24.2653	-20.7455	-59.2536
 101	1	1	-0.073691	24.9682	-21.9458	-59.4388
 102	1	1	-0.02876	25.7973	-22.4691	-58.4658
 103	1	3	0.009648	25.5342	-23.9115	-58.8668
 104	1	1	-0.19087	26.0863	-21.805	-57.2678
 105	1	2	0.036362	23.2401	-23.9609	-59.7523
 106	1	2	0.011094	22.5882	-23.3469	-58.4848
 107	1	2	-0.166666	23.6999	-25.3426	-59.234
 108	1	2	-0.004747	23.4745	-23.9027	-57.3085
 109	1	2	0.045805	24.5295	-24.7826	-58.0561
 110	1	2	-0.016724	22.2499	-19.2911	-57.1852
 111	1	2	-0.038268	23.8296	-17.6163	-58.3799
 112	1	2	0.015931	21.2784	-18.9384	-58.3319
 113	1	2	0.006127	22.5903	-16.696	-58.2837
 114	1	2	-0.02901	21.2753	-17.4245	-58.6606
 115	1	6	0.060706	30.4433	-17.1575	-49.7562
 116	1	6	0.109818	24.3572	-13.8227	-47.0843
 117	1	6	0.034398	28.8904	-17.5542	-53.6921
 118	1	6	0.029719	27.3197	-13.8922	-52.7005
 119	1	6	0.036789	29.2355	-15.4581	-52.39
 120	1	6	0.059436	26.9573	-18.262	-51.8987
 121	1	6	0.028349	25.5343	-14.794	-54.1246
 122	1	5	0.156131	27.2529	-20.2203	-54.7891
 123	1	6	0.059364	24.9156	-16.598	-52.1943
 124	1	6	0.111824	27.0458	-16.5999	-55.3588
 125	1	6	0.047288	28.0828	-15.2596	-54.8042
 126	1	5	0.182101	23.5398	-16.8453	-55.3463
 127	1	6	0.044359	24.9796	-23.5079	-61.0367
 128	1	5	0.179067	23.4464	-20.4662	-59.9067
 129	1	6	0.038058	26.3992	-24.4867	-59.2152
 130	1	5	0.140142	26.6073	-22.29	-56.4485
 131	1	6	0.008074	22.5719	-23.999	-60.6218
 132	1	6	-0.001887	22.4394	-22.2648	-58.4849
 133	1	6	0.034873	24.315	-25.885	-59.9657
 134	1	6	0.057592	22.8751	-25.9969	-58.9226
 135	1	6	0.004826	23.8733	-23.1301	-56.6417
 136	1	6	0.004917	24.9936	-25.55	-57.4241
 137	1	6	0.011371	21.8935	-18.7759	-56.2837
 138	1	6	0.016934	22.1948	-20.3636	-56.9592
 139	1	6	0.017694	23.9337	-17.9276	-59.4273
 140	1	6	0.024086	24.7385	-17.0498	-58.1387
 141	1	6	0.001925	20.262	-19.2595	-58.0706
 142	1	6	-0.011831	21.5568	-19.5014	-59.2297
 143	1	6	-0.015908	22.7231	-15.8202	-58.9313
 144	1	6	0.008977	22.5032	-16.3118	-57.261
 145	1	6	0.008233	20.4431	-16.9373	-58.1363
 146	1	6	0.006802	21.0808	-17.2997	-59.7336
 147	1	2	-0.163429	29.5335	-17.5938	-49.3262
 148	1	6	0.069136	29.7569	-17.8953	-48.2955
 149	1	6	0.097616	29.2884	-18.4979	-49.8969
 150	1	2	-0.211261	24.5692	-13.4149	-48.0811
 151	1	6	0.077702	24.8683	-12.387	-47.8533
 152	1	6	0.070844	23.5865	-13.4376	-48.5632
 153	1	1	0.055893	23.8493	-1.11552	-45.8924
 154	1	1	0.066037	25.1813	-1.27402	-45.5656
 155	1	1	-0.13485	26.1364	-1.76055	-46.482
 156	1	1	-0.112685	25.632	-1.81799	-47.7988
 157	1	1	-0.113466	23.3102	-1.28887	-47.1755
 158	1	2	0.031197	26.054	-4.05819	-49.3376
 159	1	1	-0.092412	24.3092	-1.55592	-48.1276
 160	1	3	0.085064	24.4137	-2.21273	-49.4919
 161	1	3	0.073163	25.9322	-2.5108	-49.1305
 162	1	3	-0.014897	25.2958	-4.63762	-48.1159
 163	1	2	0.044047	23.811	-3.61143	-49.8109
 164	1	1	-0.216606	25.4178	-7.33433	-48.5569
 165	1	3	-0.029794	23.7769	-4.30085	-48.4159
 166	1	2	-0.27828	25.04	-4.27036	-50.5004
 167	1	1	0.002791	23.5483	-5.79253	-48.4207
 168	1	1	-0.015593	24.8671	-6.09852	-48.1912
 169	1	1	-0.275006	22.6268	-6.67587	-48.9855
 170	1	1	-0.00175	23.1096	-7.9822	-49.2172
 171	1	4	0.011736	24.4806	-8.29983	-49.0148
 172	1	2	0.056595	22.335	-9.17307	-49.8136
 173	1	3	-0.006078	24.8624	-13.7004	-50.8695
 174	1	4	0.009572	24.7082	-9.67819	-49.4771
 175	1	1	0.047642	23.4717	-10.1949	-49.9358
 176	1	1	-0.203391	23.3522	-11.503	-50.446
 177	1	1	-0.073691	24.5327	-12.2502	-50.4796
 178	1	1	-0.02876	25.778	-11.743	-50.0181
 179	1	3	0.009648	26.7295	-12.9068	-50.326
 180	1	1	-0.19087	25.9064	-10.44	-49.5155
 181	1	2	0.036362	24.5549	-15.6096	-49.9736
 182	1	2	0.011094	25.7482	-15.6976	-48.4533
 183	1	2	-0.166666	25.9759	-16.5324	-49.386
 184	1	2	-0.004747	27.6249	-14.8895	-48.0265
 185	1	2	0.045805	27.8454	-14.3335	-49.2457
 186	1	2	-0.016724	21.2487	-9.70922	-48.8378
 187	1	2	-0.038268	21.7469	-8.87711	-51.227
 188	1	2	0.015931	19.9505	-8.872	-48.8307
 189	1	2	0.006127	20.409	-8.09936	-51.2296
 190	1	2	-0.02901	19.3757	-8.70153	-50.2529
 191	1	6	0.060706	27.3901	-3.23583	-45.5092
 192	1	6	0.109818	21.3252	-0.422751	-47.1557
 193	1	6	0.034398	27.067	-4.44575	-49.5034
 194	1	6	0.029719	24.2839	-1.53358	-50.3416
 195	1	6	0.036789	26.6493	-1.98307	-49.7686
 196	1	6	0.059436	25.7007	-4.34039	-47.1446
 197	1	6	0.028349	22.8724	-3.61654	-50.3791
 198	1	5	0.156131	26.486	-7.52368	-48.5372
 199	1	6	0.059364	23.1984	-3.79188	-47.6444
 200	1	6	0.111824	24.8777	-5.32919	-50.7442
 201	1	6	0.047288	25.3384	-3.74185	-51.4159
 202	1	5	0.182101	21.6302	-6.35011	-49.2519
 203	1	6	0.044359	24.6671	-13.8132	-51.9415
 204	1	5	0.179067	22.4056	-11.9146	-50.7819
 205	1	6	0.038058	27.3862	-12.5531	-51.1254
 206	1	5	0.140142	26.8586	-10.0414	-49.1812
 207	1	6	0.008074	23.5498	-15.9309	-49.6812
 208	1	6	-0.001887	25.0884	-16.089	-47.5713
 209	1	6	0.034873	25.9573	-17.1964	-50.2812
 210	1	6	0.057592	26.034	-17.6226	-48.9264
 211	1	6	0.004826	28.1588	-14.3424	-47.151
 212	1	6	0.004917	28.9206	-14.3439	-49.5169
 213	1	6	0.011371	21.656	-9.76853	-47.8199
 214	1	6	0.016934	20.9825	-10.7349	-49.1231
 215	1	6	0.017694	21.5657	-9.82934	-51.7413
 216	1	6	0.024086	22.4871	-8.33974	-51.834
 217	1	6	0.001925	20.1406	-7.88797	-48.3867
 218	1	6	-0.011831	19.2047	-9.36242	-48.1923
 219	1	6	-0.015908	19.9918	-8.10359	-52.2446
 220	1	6	0.008977	20.5823	-7.04745	-50.9825
 221	1	6	0.008233	18.4834	-8.06374	-50.2187
 222	1	6	0.006802	19.0528	-9.68091	-50.6295
 223	1	2	-0.163429	27.4945	-2.30014	-46.0724
 224	1	6	0.069136	28.1239	-2.50121	-46.9481
 225	1	6	0.097616	28.025	-1.58132	-45.4357
 226	1	2	-0.211261	21.82	-1.3531	-47.4608
 227	1	6	0.077702	21.6234	-1.50184	-48.5298
 228	1	6	0.070844	21.3505	-2.17949	-46.9129
 229	1	1	0.055893	25.8895	-9.63443	-32.331
 230	1	1	0.066037	26.568	-8.47188	-31.9996
 231	1	1	-0.13485	26.3695	-7.24545	-32.6519
 232	1	1	-0.112685	25.5275	-7.3218	-33.7715
 233	1	1	-0.113466	24.864	-9.64026	-33.3042
 234	1	2	0.031197	24.525	-5.61677	-35.5891
 235	1	1	-0.092412	24.7727	-8.45819	-34.0698
 236	1	3	0.085064	23.5606	-7.6356	-34.5255
 237	1	3	0.073163	24.4482	-6.36759	-34.2319
 238	1	3	-0.014897	25.381	-6.57478	-36.4799
 239	1	2	0.044047	23.1141	-7.42193	-36.0056
 240	1	1	-0.216606	25.3818	-5.07818	-38.6733
 241	1	3	-0.029794	24.3982	-7.76535	-36.7966
 242	1	2	-0.27828	23.0684	-5.86586	-36.0692
 243	1	1	0.002791	24.4323	-7.28755	-38.2444
 244	1	1	-0.015593	25.351	-6.2863	-37.97
 245	1	1	-0.275006	23.3932	-7.09103	-39.174
 246	1	1	-0.00175	23.4069	-5.88266	-39.9126
 247	1	4	0.011736	24.4354	-4.93268	-39.7108
 248	1	2	0.056595	22.2744	-5.28081	-40.7838
 249	1	3	-0.006078	22.8742	-0.159412	-42.232
 250	1	4	0.009572	24.0949	-3.70134	-40.4242
 251	1	1	0.047642	22.8015	-3.84644	-40.9832
 252	1	1	-0.203391	22.1456	-2.76013	-41.6202
 253	1	1	-0.073691	22.8731	-1.56052	-41.6241
 254	1	1	-0.02876	24.1766	-1.48308	-41.2116
 255	1	3	0.009648	24.4165	-0.125522	-41.8292
 256	1	1	-0.19087	24.863	-2.52147	-40.5838
 257	1	2	0.036362	22.905	0.0608542	-43.7609
 258	1	2	0.011094	23.3784	-1.2299	-44.4622
 259	1	2	-0.166666	24.1536	0.967519	-43.8798
 260	1	2	-0.004747	24.9079	-1.33302	-44.067
 261	1	2	0.045805	25.1233	-0.033622	-43.2106
 262	1	2	-0.016724	22.1724	-5.99235	-42.1609
 263	1	2	-0.038268	20.8955	-5.22818	-40.0552
 264	1	2	0.015931	21.4282	-7.34402	-42.0999
 265	1	2	0.006127	20.0841	-6.5467	-40.0737
 266	1	2	-0.02901	20.0252	-7.18668	-41.4774
 267	1	6	0.060706	25.9091	-5.47185	-31.4919
 268	1	6	0.109818	24.1216	-11.6505	-32.9542
 269	1	6	0.034398	24.8511	-4.57006	-35.544
 270	1	6	0.029719	22.6771	-7.74409	-33.8868
 271	1	6	0.036789	24.0631	-5.69783	-33.4549
 272	1	6	0.059436	26.374	-6.81662	-36.0858
 273	1	6	0.028349	22.2013	-7.94577	-36.3159
 274	1	5	0.156131	25.9674	-4.23353	-38.3255
 275	1	6	0.059364	24.7632	-8.7868	-36.6409
 276	1	6	0.111824	22.8751	-5.46956	-37.0734
 277	1	6	0.047288	22.3226	-5.44263	-35.3825
 278	1	5	0.182101	22.5518	-7.76987	-39.1968
 279	1	6	0.044359	22.2517	0.584868	-41.7233
 280	1	5	0.179067	21.1637	-2.84755	-42.0743
 281	1	6	0.038058	24.7101	0.681708	-41.1491
 282	1	5	0.140142	25.8924	-2.43463	-40.2511
 283	1	6	0.008074	21.9884	0.488203	-44.1865
 284	1	6	-0.001887	22.7913	-2.13565	-44.2655
 285	1	6	0.034873	24.0505	1.90278	-43.3116
 286	1	6	0.057592	24.4248	1.22283	-44.9125
 287	1	6	0.004826	25.1911	-2.28162	-43.5932
 288	1	6	0.004917	26.1664	0.304116	-43.1701
 289	1	6	0.011371	23.176	-6.14197	-42.5802
 290	1	6	0.016934	21.6379	-5.34058	-42.8643
 291	1	6	0.017694	20.2712	-4.466	-40.5377
 292	1	6	0.024086	21.0339	-4.89446	-39.0186
 293	1	6	0.001925	22.0129	-8.06714	-41.5184
 294	1	6	-0.011831	21.3351	-7.75609	-43.1127
 295	1	6	-0.015908	19.0629	-6.34516	-39.7261
 296	1	6	0.008977	20.5038	-7.26202	-39.3605
 297	1	6	0.008233	19.5329	-8.1656	-41.4178
 298	1	6	0.006802	19.4085	-6.55939	-42.1343
 299	1	2	-0.163429	26.7563	-5.91504	-32.0295
 300	1	6	0.069136	27.5836	-6.03347	-31.3186
 301	1	6	0.097616	27.0786	-5.20261	-32.7991
 302	1	2	-0.211261	23.7583	-10.6811	-33.3179
 303	1	6	0.077702	22.9205	-10.3718	-32.6811
 304	1	6	0.070844	23.3726	-10.8304	-34.3341
 305	1	1	0.055893	31.2049	-8.84983	-16.385
 306	1	1	0.066037	30.8482	-7.57229	-16.7854
 307	1	1	-0.13485	29.991	-7.31584	-17.8686
 308	1	1	-0.112685	29.6838	-8.45782	-18.6257
 309	1	1	-0.113466	30.6837	-10.0058	-17.004
 310	1	2	0.031197	28.3407	-9.024	-20.8877
 311	1	1	-0.092412	29.9943	-9.74972	-18.2053
 312	1	3	0.085064	28.7404	-10.3546	-18.8394
 313	1	3	0.073163	28.42	-8.892	-19.3406
 314	1	3	-0.014897	29.8218	-9.30435	-21.2914
 315	1	2	0.044047	28.731	-11.1999	-20.1511
 316	1	1	-0.216606	29.4427	-9.4757	-23.9226
 317	1	3	-0.029794	30.066	-10.7923	-20.8235
 318	1	2	-0.27828	27.6674	-10.4223	-20.9808
 319	1	1	0.002791	30.2026	-11.1349	-22.3018
 320	1	1	-0.015593	30.0317	-9.82047	-22.7021
 321	1	1	-0.275006	29.7262	-12.2102	-23.0736
 322	1	1	-0.00175	29.1915	-11.8914	-24.3453
 323	1	4	0.011736	29.0976	-10.5501	-24.7734
 324	1	2	0.056595	28.4077	-12.8295	-25.2885
 325	1	3	-0.006078	25.1066	-10.3356	-28.5085
 326	1	4	0.009572	28.3063	-10.5037	-26.004
 327	1	1	0.047642	27.8562	-11.8087	-26.3163
 328	1	1	-0.203391	26.8632	-12.0008	-27.3118
 329	1	1	-0.073691	26.463	-10.8622	-28.0337
 330	1	1	-0.02876	26.9367	-9.60009	-27.7252
 331	1	3	0.009648	25.6821	-8.8998	-28.1786
 332	1	1	-0.19087	27.8124	-9.35938	-26.6669
 333	1	2	0.036362	24.7388	-10.2098	-30.0136
 334	1	2	0.011094	26.0047	-10.2004	-30.9144
 335	1	2	-0.166666	24.3165	-8.72068	-30.0464
 336	1	2	-0.004747	26.6988	-8.83981	-30.5347
 337	1	2	0.045805	25.6755	-8.18536	-29.5443
 338	1	2	-0.016724	29.3821	-13.8454	-25.9435
 339	1	2	-0.038268	27.2759	-13.5483	-24.4861
 340	1	2	0.015931	28.6654	-14.9785	-26.7109
 341	1	2	0.006127	26.6135	-14.7501	-25.2021
 342	1	2	-0.02901	27.6504	-15.7162	-25.8127
 343	1	6	0.060706	29.8034	-5.17039	-17.5926
 344	1	6	0.109818	30.7032	-12.1733	-17.0386
 345	1	6	0.034398	27.8381	-8.20491	-21.4173
 346	1	6	0.029719	28.0244	-10.7712	-18.1224
 347	1	6	0.036789	27.4948	-8.45341	-18.9508
 348	1	6	0.059436	30.5425	-8.53977	-20.9814
 349	1	6	0.028349	28.5593	-12.277	-20.0315
 350	1	5	0.156131	29.1334	-8.45832	-24.137
 351	1	6	0.059364	30.9586	-11.0012	-20.2232
 352	1	6	0.111824	27.5684	-10.7837	-22.0125
 353	1	6	0.047288	26.6755	-10.4411	-20.5092
 354	1	5	0.182101	29.6467	-13.2073	-22.6531
 355	1	6	0.044359	24.2421	-10.6549	-27.916
 356	1	5	0.179067	26.3617	-12.9481	-27.457
 357	1	6	0.038058	25.1484	-8.32248	-27.4153
 358	1	5	0.140142	27.9998	-8.35676	-26.2971
 359	1	6	0.008074	23.961	-10.9062	-30.3499
 360	1	6	-0.001887	26.6595	-11.0772	-30.8281
 361	1	6	0.034873	23.4903	-8.50069	-29.3556
 362	1	6	0.057592	24.0344	-8.34792	-31.0383
 363	1	6	0.004826	27.7343	-8.93267	-30.1831
 364	1	6	0.004917	25.7413	-7.09218	-29.4851
 365	1	6	0.011371	30.0018	-14.3022	-25.1606
 366	1	6	0.016934	30.0716	-13.3208	-26.6176
 367	1	6	0.017694	26.506	-12.8217	-24.1951
 368	1	6	0.024086	27.6925	-13.9366	-23.5495
 369	1	6	0.001925	29.4089	-15.6932	-27.0858
 370	1	6	-0.011831	28.1519	-14.5685	-27.589
 371	1	6	-0.015908	25.9315	-14.4007	-25.9826
 372	1	6	0.008977	25.9889	-15.297	-24.4843
 373	1	6	0.008233	28.1891	-16.2262	-25.0034
 374	1	6	0.006802	27.1362	-16.4933	-26.3924
 375	1	2	-0.163429	29.2476	-6.0034	-18.0412
 376	1	6	0.069136	29.1009	-5.77242	-19.1036
 377	1	6	0.097616	28.2606	-6.04708	-17.5647
 378	1	2	-0.211261	30.6235	-11.3555	-16.3117
 379	1	6	0.077702	31.4434	-11.469	-15.5916
 380	1	6	0.070844	29.6774	-11.4751	-15.7696
 381	1	1	0.055893	38.0101	2.90563	-8.41255
 382	1	1	0.066037	36.9268	3.49189	-9.03347
 383	1	1	-0.13485	35.6221	2.9632	-9.02775
 384	1	1	-0.112685	35.5845	1.7306	-8.35183
 385	1	1	-0.113466	37.9605	1.69851	-7.68884
 386	1	2	0.031197	34.0422	-0.450141	-8.78101
 387	1	1	-0.092412	36.6709	1.14046	-7.73289
 388	1	3	0.085064	35.8532	-0.00161793	-7.14626
 389	1	3	0.073163	34.6022	0.677766	-7.8636
 390	1	3	-0.014897	35.1211	-0.545278	-9.89739
 391	1	2	0.044047	35.8667	-1.45156	-7.7222
 392	1	1	-0.216606	34.0386	-2.51406	-11.3752
 393	1	3	-0.029794	36.3545	-1.23375	-9.18155
 394	1	2	-0.27828	34.3393	-1.69409	-7.89466
 395	1	1	0.002791	36.1383	-2.38961	-10.1451
 396	1	1	-0.015593	35.0684	-1.78318	-10.7723
 397	1	1	-0.275006	36.2734	-3.78374	-10.06
 398	1	1	-0.00175	35.3234	-4.54217	-10.7821
 399	1	4	0.011736	34.2337	-3.91477	-11.4318
 400	1	2	0.056595	35.1748	-6.07562	-10.795
 401	1	3	-0.006078	30.5129	-7.94785	-12.6015
 402	1	4	0.009572	33.2963	-4.95168	-11.8758
 403	1	1	0.047642	33.8074	-6.22041	-11.4898
 404	1	1	-0.203391	33.0563	-7.41032	-11.6721
 405	1	1	-0.073691	31.8138	-7.22038	-12.2876
 406	1	1	-0.02876	31.3389	-5.99646	-12.6739
 407	1	3	0.009648	29.9805	-6.52174	-13.0769
 408	1	1	-0.19087	32.0211	-4.79653	-12.4765
 409	1	2	0.036362	30.3652	-8.81199	-13.8801
 410	1	2	0.011094	31.4361	-8.42601	-14.9397
 411	1	2	-0.166666	29.0837	-8.17413	-14.4681
 412	1	2	-0.004747	30.9852	-6.98445	-15.3929
 413	1	2	0.045805	29.6721	-6.74885	-14.5747
 414	1	2	-0.016724	36.3069	-6.70812	-11.6576
 415	1	2	-0.038268	35.1291	-6.65903	-9.34712
 416	1	2	0.015931	36.5741	-8.18815	-11.3045
 417	1	2	0.006127	36.4828	-7.24657	-8.88776
 418	1	2	-0.02901	36.9757	-8.38119	-9.8201
 419	1	6	0.060706	34.1991	4.5961	-9.07738
 420	1	6	0.109818	40.0755	1.53376	-7.22974
 421	1	6	0.034398	33.005	-0.329666	-9.11812
 422	1	6	0.029719	35.8024	-0.0213351	-6.05217
 423	1	6	0.036789	33.8256	1.04562	-7.1842
 424	1	6	0.059436	35.2973	0.382745	-10.452
 425	1	6	0.028349	36.4139	-2.20033	-7.1358
 426	1	5	0.156131	33.1065	-2.05068	-11.681
 427	1	6	0.059364	37.3352	-0.754149	-9.27159
 428	1	6	0.111824	34.1082	-2.6442	-8.395
 429	1	6	0.047288	33.8014	-1.66274	-6.93746
 430	1	5	0.182101	37.0055	-4.24297	-9.40522
 431	1	6	0.044359	29.9885	-8.3893	-11.7468
 432	1	5	0.179067	33.3888	-8.38145	-11.3208
 433	1	6	0.038058	29.1192	-6.12186	-12.5304
 434	1	5	0.140142	31.5941	-3.82894	-12.7191
 435	1	6	0.008074	30.2903	-9.89061	-13.6953
 436	1	6	-0.001887	32.4822	-8.49161	-14.6139
 437	1	6	0.034873	28.2295	-8.23006	-13.7787
 438	1	6	0.057592	28.7722	-8.59791	-15.4311
 439	1	6	0.004826	31.761	-6.21299	-15.3062
 440	1	6	0.004917	28.9945	-6.00872	-15.0177
 441	1	6	0.011371	37.24	-6.14954	-11.5052
 442	1	6	0.016934	36.0659	-6.61448	-12.7246
 443	1	6	0.017694	34.3847	-7.46279	-9.28965
 444	1	6	0.024086	34.7945	-5.88994	-8.63877
 445	1	6	0.001925	37.3609	-8.59205	-11.9542
 446	1	6	-0.011831	35.6712	-8.77443	-11.5128
 447	1	6	-0.015908	36.4001	-7.62329	-7.86045
 448	1	6	0.008977	37.2348	-6.44888	-8.86642
 449	1	6	0.008233	38.0682	-8.45054	-9.74041
 450	1	6	0.006802	36.5777	-9.34266	-9.47107
 451	1	2	-0.163429	34.4084	3.66117	-9.61157
 452	1	6	0.069136	34.5691	3.90471	-10.6691
 453	1	6	0.097616	33.515	3.02801	-9.54532
 454	1	2	-0.211261	39.1168	1.11411	-6.90007
 455	1	6	0.077702	39.0053	1.32677	-5.82972
 456	1	6	0.070844	39.1665	0.0253665	-7.02544
 457	1	1	0.055893	36.069	17.8893	-2.75578
 458	1	1	0.066037	35.0808	17.6807	-3.69637
 459	1	1	-0.13485	34.199	16.5842	-3.68114
 460	1	1	-0.112685	34.3367	15.8208	-2.50536
 461	1	1	-0.113466	36.3172	17.0305	-1.67044
 462	1	2	0.031197	34.3944	13.0963	-2.66474
 463	1	1	-0.092412	35.3324	16.0302	-1.56316
 464	1	3	0.085064	35.1321	14.6743	-0.900116
 465	1	3	0.073163	33.9843	14.4349	-1.97477
 466	1	3	-0.014897	35.6176	13.5116	-3.52515
 467	1	2	0.044047	36.0882	13.4575	-1.09712
 468	1	1	-0.216606	36.3037	11.1472	-4.67512
 469	1	3	-0.029794	36.7658	13.7629	-2.46206
 470	1	2	-0.27828	35.0501	12.357	-1.46193
 471	1	1	0.002791	37.4906	12.6079	-3.12769
 472	1	1	-0.015593	36.492	12.3854	-4.0479
 473	1	1	-0.275006	38.4098	11.6239	-2.74302
 474	1	1	-0.00175	38.3373	10.4122	-3.46844
 475	1	4	0.011736	37.3087	10.1812	-4.41412
 476	1	2	0.056595	39.2137	9.16496	-3.26669
 477	1	3	-0.006078	38.1339	5.03427	-6.42511
 478	1	4	0.009572	37.4106	8.79061	-4.87647
 479	1	1	0.047642	38.5176	8.17838	-4.22935
 480	1	1	-0.203391	38.9072	6.85634	-4.55342
 481	1	1	-0.073691	38.0553	6.18102	-5.43431
 482	1	1	-0.02876	36.9862	6.77548	-6.05811
 483	1	3	0.009648	36.8958	5.71809	-7.14497
 484	1	1	-0.19087	36.652	8.1206	-5.87125
 485	1	2	0.036362	39.2423	5.08388	-7.50894
 486	1	2	0.011094	38.9272	4.08788	-8.66344
 487	1	2	-0.166666	38.9313	6.40658	-8.24763
 488	1	2	-0.004747	37.6783	4.76357	-9.3842
 489	1	2	0.045805	37.4545	6.06038	-8.54975
 490	1	2	-0.016724	40.6759	9.49812	-3.68546
 491	1	2	-0.038268	39.1332	8.68473	-1.78847
 492	1	2	0.015931	41.7236	8.43396	-3.28206
 493	1	2	0.006127	40.1702	7.5979	-1.4252
 494	1	2	-0.02901	41.6049	8.02955	-1.79672
 495	1	6	0.060706	32.9085	15.1872	-4.7318
 496	1	6	0.109818	37.4784	16.4368	0.065987
 497	1	6	0.034398	33.5953	12.5571	-3.18872
 498	1	6	0.029719	34.7707	14.7162	0.13318
 499	1	6	0.036789	32.982	14.3512	-1.54075
 500	1	6	0.059436	35.4215	14.2935	-4.26343
 501	1	6	0.028349	36.7623	13.2312	-0.261536
 502	1	5	0.156131	35.4211	10.922	-5.26467
 503	1	6	0.059364	37.3117	14.7086	-2.50977
 504	1	6	0.111824	35.5162	11.4032	-1.74486
 505	1	6	0.047288	34.3367	12.1701	-0.647926
 506	1	5	0.182101	39.0922	11.7682	-1.91162
 507	1	6	0.044359	37.9737	4.03827	-5.99918
 508	1	5	0.179067	39.81	6.39212	-4.17792
 509	1	6	0.038058	35.9594	5.15111	-7.16693
 510	1	5	0.140142	35.8988	8.62325	-6.46925
 511	1	6	0.008074	40.2674	5.00798	-7.12536
 512	1	6	-0.001887	39.7576	3.89668	-9.35567
 513	1	6	0.034873	39.5329	6.5383	-9.1583
 514	1	6	0.057592	39.0553	7.30016	-7.62225
 515	1	6	0.004826	37.8502	4.92282	-10.4567
 516	1	6	0.004917	36.9052	6.84382	-9.08664
 517	1	6	0.011371	40.9697	10.4439	-3.21178
 518	1	6	0.016934	40.7241	9.67088	-4.76853
 519	1	6	0.017694	38.1217	8.31848	-1.56934
 520	1	6	0.024086	39.3021	9.53868	-1.12084
 521	1	6	0.001925	42.7303	8.82798	-3.47102
 522	1	6	-0.011831	41.623	7.54701	-3.91589
 523	1	6	-0.015908	39.9233	6.65794	-1.93135
 524	1	6	0.008977	40.1189	7.39164	-0.348578
 525	1	6	0.008233	41.8984	8.88019	-1.16783
 526	1	6	0.006802	42.3063	7.21458	-1.57733
 527	1	2	-0.163429	33.2965	16.2074	-4.8419
 528	1	6	0.069136	32.4386	16.8882	-4.90389
 529	1	6	0.097616	33.8381	16.2591	-5.79468
 530	1	2	-0.211261	37.5615	17.0993	-0.804457
 531	1	6	0.077702	38.4511	16.8005	-1.37274
 532	1	6	0.070844	37.7245	18.1193	-0.434748
 533	1	1	0.055893	31.456	32.9313	-10.9232
 534	1	1	0.066037	30.5099	32.0173	-11.3534
 535	1	1	-0.13485	30.4892	30.6808	-10.9137
 536	1	1	-0.112685	31.3336	30.4441	-9.81361
 537	1	1	-0.113466	32.4535	32.6208	-9.98197
 538	1	2	0.031197	31.6589	28.5294	-8.04772
 539	1	1	-0.092412	32.2594	31.3756	-9.3573
 540	1	3	0.085064	33.1912	30.3191	-8.79439
 541	1	3	0.073163	32.1466	29.2546	-9.33046
 542	1	3	-0.014897	32.9559	27.7085	-7.80117
 543	1	2	0.044047	33.1748	30.1125	-7.2541
 544	1	1	-0.216606	33.0141	25.7441	-5.92246
 545	1	3	-0.029794	33.9837	28.7895	-7.2456
 546	1	2	-0.27828	31.7216	29.6417	-6.96255
 547	1	1	0.002791	33.9794	27.9758	-5.96528
 548	1	1	-0.015593	33.1052	27.0348	-6.45061
 549	1	1	-0.275006	34.8383	27.7495	-4.88464
 550	1	1	-0.00175	34.6905	26.4939	-4.24543
 551	1	4	0.011736	33.7947	25.5174	-4.75945
 552	1	2	0.056595	35.5264	25.9183	-3.08016
 553	1	3	-0.006078	35.3851	20.7148	-2.53468
 554	1	4	0.009572	33.9847	24.2671	-4.01346
 555	1	1	0.047642	34.9886	24.4767	-3.03905
 556	1	1	-0.203391	35.5173	23.3981	-2.29363
 557	1	1	-0.073691	34.9022	22.155	-2.49492
 558	1	1	-0.02876	33.9257	21.9503	-3.44898
 559	1	3	0.009648	34.2619	20.479	-3.6238
 560	1	1	-0.19087	33.4804	22.9731	-4.29589
 561	1	2	0.036362	36.6951	20.4134	-3.31064
 562	1	2	0.011094	36.8192	18.8914	-3.61135
 563	1	2	-0.166666	36.3639	20.9044	-4.73917
 564	1	2	-0.004747	35.6847	18.649	-4.69767
 565	1	2	0.045805	35.0707	20.0676	-4.88083
 566	1	2	-0.016724	37.058	25.9065	-3.3818
 567	1	2	-0.038268	35.2114	26.627	-1.73381
 568	1	2	0.015931	37.7854	27.253	-3.14967
 569	1	2	0.006127	35.908	27.9968	-1.57533
 570	1	2	-0.02901	37.4327	27.8864	-1.78659
 571	1	6	0.060706	29.5215	28.7429	-11.0225
 572	1	6	0.109818	34.1186	33.3571	-8.80451
 573	1	6	0.034398	30.7215	27.9645	-8.12634
 574	1	6	0.029719	34.1978	30.326	-9.22903
 575	1	6	0.036789	32.4625	28.5713	-10.1274
 576	1	6	0.059436	33.2582	27.0878	-8.65297
 577	1	6	0.028349	33.5637	30.9344	-6.63993
 578	1	5	0.156131	32.4491	24.9548	-6.40731
 579	1	6	0.059364	34.9671	28.8691	-7.72382
 580	1	6	0.111824	31.5955	29.2512	-5.94396
 581	1	6	0.047288	30.9787	30.434	-7.12309
 582	1	5	0.182101	35.5958	28.472	-4.61143
 583	1	6	0.044359	35.2908	20.1602	-1.59461
 584	1	5	0.179067	36.3999	23.5007	-1.67085
 585	1	6	0.038058	33.4591	19.7792	-3.36724
 586	1	5	0.140142	32.867	22.7719	-5.16795
 587	1	6	0.008074	37.6013	20.8548	-2.87744
 588	1	6	-0.001887	37.8079	18.5628	-3.95768
 589	1	6	0.034873	37.1331	20.6285	-5.47454
 590	1	6	0.057592	36.1997	21.9873	-4.80703
 591	1	6	0.004826	36.076	18.1886	-5.61436
 592	1	6	0.004917	34.5444	20.2032	-5.83391
 593	1	6	0.011371	37.2334	25.5647	-4.41014
 594	1	6	0.016934	37.5454	25.171	-2.73104
 595	1	6	0.017694	35.5367	25.983	-0.906303
 596	1	6	0.024086	34.1262	26.75	-1.62155
 597	1	6	0.001925	37.5515	27.9553	-3.95519
 598	1	6	-0.011831	38.8693	27.09	-3.2019
 599	1	6	-0.015908	35.7063	28.3944	-0.572627
 600	1	6	0.008977	35.4859	28.7163	-2.28681
 601	1	6	0.008233	37.8912	28.8805	-1.71036
 602	1	6	0.006802	37.8633	27.2748	-0.983069
 603	1	2	-0.163429	29.8136	29.5643	-11.6886
 604	1	6	0.069136	28.9076	29.9246	-12.1918
 605	1	6	0.097616	30.4863	29.1576	-12.4537
 606	1	2	-0.211261	33.7277	33.4306	-9.82699
 607	1	6	0.077702	34.5042	33.0727	-10.5141
 608	1	6	0.070844	33.5501	34.4921	-10.0406
 609	1	1	0.055893	16.805	41.8643	-12.7735
 610	1	1	0.066037	16.416	40.551	-12.5888
 611	1	1	-0.13485	17.2007	39.4506	-12.9821
 612	1	1	-0.112685	18.5034	39.8284	-13.3568
 613	1	1	-0.113466	18.0292	42.2413	-13.3535
 614	1	2	0.031197	20.8205	38.6187	-13.5191
 615	1	1	-0.092412	18.8958	41.1481	-13.525
 616	1	3	0.085064	20.0651	40.7936	-14.4224
 617	1	3	0.073163	19.6139	39.281	-14.2381
 618	1	3	-0.014897	21.7778	38.5866	-14.7439
 619	1	2	0.044047	21.4742	40.8438	-13.773
 620	1	1	-0.216606	23.9965	37.3507	-13.7682
 621	1	3	-0.029794	22.2266	40.1039	-14.9096
 622	1	2	-0.27828	21.3935	39.773	-12.6466
 623	1	1	0.002791	23.6277	39.6137	-14.5992
 624	1	1	-0.015593	23.2428	38.2989	-14.4692
 625	1	1	-0.275006	24.7895	40.1305	-14.0125
 626	1	1	-0.00175	25.636	39.1721	-13.4083
 627	1	4	0.011736	25.2554	37.8118	-13.3067
 628	1	2	0.056595	26.9722	39.4405	-12.6965
 629	1	3	-0.006078	29.6025	35.1684	-11.0906
 630	1	4	0.009572	26.2875	37.0987	-12.5448