pySIMM System Object

998 atoms
1162 bonds
2418 angles
4468 dihedrals
78 impropers

6 atom types
11 bond types
24 angle types
21 dihedral types
2 improper types

-137.062205 137.062205 xlo xhi
-137.062205 137.062205 ylo yhi
-137.062205 137.062205 zlo zhi

Masses

   1	12.01	# ca
   2	12.01	# c3
   3	12.01	# cy
   4	12.01	# cp
   5	1.008	# ha
   6	1.008	# hc

Pair Coeffs

   1	0.086	3.3996695084235347	# ca
   2	0.1094	3.3996695084235347	# c3
   3	0.086	3.3996695084235347	# cy
   4	0.086	3.3996695084235347	# cp
   5	0.015	2.59964245953351	# ha
   6	0.0157	2.649532787749369	# hc

Bond Coeffs

   1	321.2	1.5154	# ca,cy
   2	461.1	1.3984	# ca,ca
   3	345.8	1.086	# ca,ha
   4	300.9	1.5375	# c3,c3
   5	305.9	1.5319	# c3,cy
   6	450.2	1.4058	# ca,cp
   7	351.4	1.4854	# cp,cp
   8	321.0	1.5156	# c3,ca
   9	330.6	1.0969	# c3,hc
  10	333.3	1.0949	# cy,hc
  11	285.0	1.5562	# cy,cy

Angle Coeffs

   1	66.72	118.38	# ca,cp,ca
   2	46.8	110.47	# ca,c3,hc
   3	62.86	111.51	# c3,c3,c3
   4	46.43	110.14	# c3,cy,hc
   5	63.43	120.63	# c3,ca,cp
   6	63.56	112.24	# ca,c3,ca
   7	64.05	121.11	# ca,cp,cp
   8	66.62	120.02	# ca,ca,ca
   9	47.98	119.86	# cp,ca,ha
  10	39.4	107.58	# hc,c3,hc
  11	63.53	120.77	# c3,ca,ca
  12	63.51	120.86	# ca,ca,cy
  13	62.8	113.57	# c3,cy,ca
  14	67.9	96.03	# cy,c3,cy
  15	61.4	116.81	# ca,cy,cy
  16	63.15	112.07	# c3,c3,ca
  17	45.97	114.53	# ca,cy,hc
  18	66.26	120.69	# ca,ca,cp
  19	46.34	109.8	# c3,c3,hc
  20	48.18	119.88	# ca,ca,ha
  21	62.73	112.39	# c3,c3,cy
  22	46.29	110.75	# cy,c3,hc
  23	44.83	114.79	# cy,cy,hc
  24	60.66	118.7	# c3,cy,cy

Dihedral Coeffs

   1	1	0.15555555555555556	3	0	# X,cy,cy,X
   2	1	3.625	2	180	# X,ca,cp,X
   3	3	0.18	3	0	0.25	2	180	0.2	1	180	# c3,c3,c3,c3
   4	1	0.16	3	0	# hc,c3,c3,c3
   5	1	0.0	2	0.0	# ca,ca,cy,cy
   6	1	1.0	2	180	# X,cp,cp,X
   7	1	0.0	2	0.0	# ca,ca,cy,c3
   8	3	0.38	3	180.0	0.0	2	0.0	1.15	1	0.0	# ca,ca,cy,hc
   9	1	0.0	2	0	# X,c3,ca,X
  10	1	0.16	3	0.0	# cy,c3,cy,ca
  11	1	0.15555555555555556	3	0	# X,c3,c3,X
  12	1	0.16	3	0.0	# c3,c3,cy,ca
  13	1	0.16	3	0.0	# hc,c3,cy,ca
  14	3	0.18	3	0.0	0.25	2	180.0	0.2	1	180.0	# cy,c3,cy,cy
  15	1	0.15	3	0	# hc,c3,c3,hc
  16	3	0.18	3	0.0	0.25	2	180.0	0.2	1	180.0	# c3,c3,cy,cy
  17	1	0.16	3	0.0	# hc,c3,cy,cy
  18	1	0.16	3	0.0	# cy,c3,cy,hc
  19	1	0.16	3	0.0	# c3,c3,cy,hc
  20	1	0.15	3	0.0	# hc,c3,cy,hc
  21	1	3.625	2	180	# X,ca,ca,X

Improper Coeffs

   1	1.1	-1	2	# ca,ca,ca,c3
   2	1.1	-1	2	# ca,X,X,ha

Atoms

   1	1	1	0.055893	18.2207	-26.6624	7.66665
   2	1	1	0.066037	16.843	-26.6161	7.60885
   3	1	1	-0.13485	16.0901	-26.6638	6.42386
   4	1	1	-0.112685	16.915	-26.6385	5.28846
   5	1	1	-0.113466	19.0328	-26.868	6.53293
   6	1	2	0.031197	16.6205	-25.9482	2.70262
   7	1	1	-0.092412	18.2936	-26.7766	5.33702
   8	1	3	0.085064	18.3988	-27.2208	3.87953
   9	1	3	0.073163	16.8236	-27.0149	3.82299
  10	1	3	-0.014897	17.1984	-24.6465	3.34216
  11	1	2	0.044047	18.9261	-26.31	2.73006
  12	1	1	-0.216606	16.8132	-22.8422	1.35745
  13	1	3	-0.029794	18.7638	-24.896	3.33884
  14	1	2	-0.27828	17.7422	-26.394	1.72242
  15	1	1	0.002791	18.8493	-23.7389	2.36278
  16	1	1	-0.015593	17.4925	-23.4948	2.394
  17	1	1	-0.275006	19.6404	-23.4407	1.24436
  18	1	1	-0.00175	19.006	-22.6926	0.227033
  19	1	4	0.011736	17.6328	-22.3624	0.305507
  20	1	2	0.056595	19.6087	-22.2878	-1.12875
  21	1	3	-0.006078	16.5548	-19.1641	-4.14509
  22	1	4	0.009572	17.2556	-21.6573	-0.925457
  23	1	1	0.047642	18.3927	-21.5894	-1.77532
  24	1	1	-0.203391	18.3501	-20.8673	-2.99264
  25	1	1	-0.073691	17.1078	-20.3075	-3.31174
  26	1	1	-0.02876	16.0225	-20.3488	-2.4725
  27	1	3	0.009648	15.3047	-19.2051	-3.16856
  28	1	1	-0.19087	16.0468	-20.9775	-1.22398
  29	1	2	0.036362	17.0938	-17.7236	-3.96016
  30	1	2	0.011094	17.7287	-17.4992	-2.56098
  31	1	2	-0.166666	15.7677	-16.9588	-3.77327
  32	1	2	-0.004747	16.5104	-17.5439	-1.60123
  33	1	2	0.045805	15.3063	-17.7827	-2.55353
  34	1	2	-0.016724	20.823	-21.3392	-0.901023
  35	1	2	-0.038268	20.0145	-23.5644	-1.92022
  36	1	2	0.015931	21.7062	-21.0983	-2.14966
  37	1	2	0.006127	20.8428	-23.2724	-3.19068
  38	1	2	-0.02901	22.0823	-22.411	-2.87119
  39	1	6	0.060706	14.1409	-26.7972	7.37267
  40	1	6	0.109818	20.9982	-26.8109	7.44604
  41	1	6	0.034398	15.6094	-25.8745	2.28282
  42	1	6	0.029719	18.7412	-28.2514	3.73654
  43	1	6	0.036789	16.2369	-27.9147	3.60858
  44	1	6	0.059436	16.727	-24.3427	4.28348
  45	1	6	0.028349	19.9197	-26.5551	2.3343
  46	1	5	0.156131	15.7306	-22.7768	1.3232
  47	1	6	0.059364	19.3148	-24.7319	4.27158
  48	1	6	0.111824	17.8552	-25.7174	0.864559
  49	1	6	0.047288	17.587	-27.4141	1.34595
  50	1	5	0.182101	20.6486	-23.828	1.13697
  51	1	6	0.044359	16.3276	-19.3912	-5.19259
  52	1	5	0.179067	19.2175	-20.7041	-3.61885
  53	1	6	0.038058	14.3516	-19.4491	-3.65057
  54	1	5	0.140142	15.2351	-20.8896	-0.50896
  55	1	6	0.008074	17.7153	-17.3601	-4.78829
  56	1	6	-0.001887	18.4918	-18.2444	-2.30924
  57	1	6	0.034873	15.093	-17.0556	-4.63517
  58	1	6	0.057592	15.9142	-15.894	-3.5428
  59	1	6	0.004826	16.6097	-18.3183	-0.831882
  60	1	6	0.004917	14.3435	-17.4681	-2.13145
  61	1	6	0.011371	21.4674	-21.7753	-0.126865
  62	1	6	0.016934	20.4758	-20.377	-0.50294
  63	1	6	0.017694	19.1178	-24.1383	-2.18871
  64	1	6	0.024086	20.614	-24.2167	-1.27273
  65	1	6	0.001925	22.6233	-20.5768	-1.84773
  66	1	6	-0.011831	21.1969	-20.4274	-2.84843
  67	1	6	-0.015908	20.2206	-22.7655	-3.93727
  68	1	6	0.008977	21.1624	-24.2198	-3.64333
  69	1	6	0.008233	22.7666	-22.9883	-2.23581
  70	1	6	0.006802	22.6243	-22.1829	-3.79773
  71	1	2	-0.163429	14.5853	-26.8491	6.37088
  72	1	6	0.069136	14.1189	-26.0688	5.75671
  73	1	6	0.097616	14.3263	-27.8225	5.93693
  74	1	2	-0.211261	20.4905	-27.2826	6.59549
  75	1	6	0.077702	20.5817	-28.3699	6.70762
  76	1	6	0.070844	21.0239	-26.9899	5.68254
  77	1	1	0.055893	16.1109	-19.7018	4.81351
  78	1	1	0.066037	14.7219	-20.7201	4.84083
  79	1	1	-0.13485	13.6178	-21.0486	6.01794
  80	1	1	-0.112685	13.5873	-20.2481	7.4105
  81	1	1	-0.113466	16.2772	-18.6441	5.96971
  82	1	2	0.031197	12.5366	-20.6227	9.91017
  83	1	1	-0.092412	14.6676	-19.1397	7.69656
  84	1	3	0.085064	13.808	-18.7028	8.93715
  85	1	3	0.073163	12.7056	-19.8236	8.57894
  86	1	3	-0.014897	13.8572	-21.4219	9.98034
  87	1	2	0.044047	14.1477	-19.0141	10.4317
  88	1	1	-0.216606	14.4049	-23.4136	11.6249
  89	1	3	-0.029794	14.9396	-20.3343	10.326
  90	1	2	-0.27828	12.762	-19.4913	10.9526
  91	1	1	0.002791	15.2017	-21.1104	11.5975
  92	1	1	-0.015593	14.2306	-22.061	11.3096
  93	1	1	-0.275006	16.446	-21.4626	12.1423
  94	1	1	-0.00175	16.6394	-22.8204	12.4731
  95	1	4	0.011736	15.6094	-23.7659	12.2778
  96	1	2	0.056595	17.991	-23.5157	12.7382
  97	1	3	-0.006078	18.0874	-28.5079	11.1776
  98	1	4	0.009572	16.1775	-25.1099	12.4171
  99	1	1	0.047642	17.5751	-24.993	12.6088
 100	1	1	-0.203391	18.4318	-26.099	12.3911
 101	1	1	-0.073691	17.7988	-27.3156	12.0903
 102	1	1	-0.02876	16.4284	-27.4304	11.9639
 103	1	3	0.009648	16.5131	-28.6057	11.0163
 104	1	1	-0.19087	15.5673	-26.3362	12.0697
 105	1	2	0.036362	18.5686	-28.3267	9.70672
 106	1	2	0.011094	18.2444	-26.9045	9.17012
 107	1	2	-0.166666	17.5037	-29.1822	8.98011
 108	1	2	-0.004747	16.6638	-26.9092	9.08101
 109	1	2	0.045805	16.2938	-28.373	9.50005
 110	1	2	-0.016724	19.0449	-23.134	11.6446
 111	1	2	-0.038268	18.4997	-23.221	14.1794
 112	1	2	0.015931	20.4918	-23.0908	12.1843
 113	1	2	0.006127	19.3948	-21.963	14.2474
 114	1	2	-0.02901	20.6487	-22.0744	13.3422
 115	1	6	0.060706	12.7507	-22.6363	4.82128
 116	1	6	0.109818	18.1722	-18.3896	4.78659
 117	1	6	0.034398	11.6125	-21.2052	10.0138
 118	1	6	0.029719	13.4087	-17.6862	8.91558
 119	1	6	0.036789	11.7333	-19.4235	8.27219
 120	1	6	0.059436	14.0046	-22.0887	9.12482
 121	1	6	0.028349	14.6266	-18.2067	10.9998
 122	1	5	0.156131	13.7588	-24.1739	11.1996
 123	1	6	0.059364	15.8426	-20.2505	9.7382
 124	1	6	0.111824	12.7994	-19.8633	11.9856
 125	1	6	0.047288	11.9976	-18.7052	10.8874
 126	1	5	0.182101	17.2779	-20.7671	12.1054
 127	1	6	0.044359	18.5529	-29.3767	11.6559
 128	1	5	0.179067	19.5074	-25.986	12.3109
 129	1	6	0.038058	16.0687	-29.5449	11.364
 130	1	5	0.140142	14.5413	-26.3849	11.7204
 131	1	6	0.008074	19.6028	-28.6422	9.52019
 132	1	6	-0.001887	18.6659	-26.067	9.73677
 133	1	6	0.034873	17.4954	-30.2263	9.32336
 134	1	6	0.057592	17.5992	-29.1826	7.88644
 135	1	6	0.004826	16.1674	-26.0915	9.61135
 136	1	6	0.004917	15.3225	-28.713	9.11978
 137	1	6	0.011371	18.8282	-22.1442	11.2274
 138	1	6	0.016934	18.9827	-23.8259	10.7952
 139	1	6	0.017694	19.0835	-24.0765	14.5442
 140	1	6	0.024086	17.6493	-23.1144	14.8654
 141	1	6	0.001925	21.1881	-22.8383	11.3745
 142	1	6	-0.011831	20.7761	-24.0883	12.5405
 143	1	6	-0.015908	19.705	-21.779	15.2838
 144	1	6	0.008977	18.8052	-21.09	13.9412
 145	1	6	0.008233	20.8745	-21.0818	12.9313
 146	1	6	0.006802	21.5169	-22.3639	13.9481
 147	1	2	-0.163429	12.5885	-22.1372	5.78457
 148	1	6	0.069136	12.6419	-22.8986	6.57232
 149	1	6	0.097616	11.574	-21.7204	5.78333
 150	1	2	-0.211261	17.5931	-17.8166	5.52322
 151	1	6	0.077702	17.3818	-16.8853	4.98783
 152	1	6	0.070844	18.3256	-17.6464	6.3215
 153	1	1	0.055893	21.502	-9.50888	-0.742673
 154	1	1	0.066037	20.4832	-10.2834	-1.28124
 155	1	1	-0.13485	19.1283	-10.1637	-0.927835
 156	1	1	-0.112685	18.9455	-9.35555	0.194682
 157	1	1	-0.113466	21.2665	-8.57627	0.293674
 158	1	2	0.031197	16.8693	-9.05777	1.9023
 159	1	1	-0.092412	19.9621	-8.66114	0.826721
 160	1	3	0.085064	18.9824	-7.77332	1.5869
 161	1	3	0.073163	17.8258	-8.52021	0.796993
 162	1	3	-0.014897	17.6824	-10.2551	2.44546
 163	1	2	0.044047	18.605	-8.0403	3.08136
 164	1	1	-0.216606	16.6505	-12.0316	4.17419
 165	1	3	-0.029794	18.8714	-9.56922	3.23726
 166	1	2	-0.27828	17.0539	-7.96901	2.99589
 167	1	1	0.002791	18.2961	-10.2524	4.46434
 168	1	1	-0.015593	17.2505	-10.8316	3.77642
 169	1	1	-0.275006	18.8698	-10.8457	5.593
 170	1	1	-0.00175	18.232	-12.0115	6.07612
 171	1	4	0.011736	17.1196	-12.5713	5.39587
 172	1	2	0.056595	18.7053	-12.935	7.21622
 173	1	3	-0.006078	16.305	-17.5977	8.0079
 174	1	4	0.009572	16.7859	-13.8612	6.01606
 175	1	1	0.047642	17.7286	-14.1071	7.04171
 176	1	1	-0.203391	17.7202	-15.3042	7.78725
 177	1	1	-0.073691	16.7055	-16.2121	7.46845
 178	1	1	-0.02876	15.7089	-15.9356	6.49372
 179	1	3	0.009648	14.7401	-17.1062	6.69433
 180	1	1	-0.19087	15.7247	-14.7603	5.73011
 181	1	2	0.036362	16.9619	-19.6072	7.68929
 182	1	2	0.011094	16.3931	-20.0865	5.9021
 183	1	2	-0.166666	15.8629	-20.7539	6.84741
 184	1	2	-0.004747	14.78	-19.5505	4.6934
 185	1	2	0.045805	14.1237	-18.8059	5.61766
 186	1	2	-0.016724	20.1712	-13.437	7.03882
 187	1	2	-0.038268	18.4837	-12.2787	8.60688
 188	1	2	0.015931	21.2678	-12.4422	7.49209
 189	1	2	0.006127	19.5587	-11.2325	8.97203
 190	1	2	-0.02901	20.9792	-11.8283	8.87976
 191	1	6	0.060706	17.5663	-9.86827	-2.40174
 192	1	6	0.109818	22.1584	-7.1937	1.70537
 193	1	6	0.034398	15.8387	-9.27228	1.59225
 194	1	6	0.029719	19.0721	-6.69878	1.39383
 195	1	6	0.036789	17.2736	-7.90467	0.0785104
 196	1	6	0.059436	17.9001	-11.0264	1.69787
 197	1	6	0.028349	19.0804	-7.38768	3.82412
 198	1	5	0.156131	15.9654	-12.5761	3.53243
 199	1	6	0.059364	19.9027	-9.86703	3.0191
 200	1	6	0.111824	16.5593	-8.22531	3.94256
 201	1	6	0.047288	16.6984	-6.98359	2.66561
 202	1	5	0.182101	19.8005	-10.4722	5.99697
 203	1	6	0.044359	16.1095	-17.4921	9.08043
 204	1	5	0.179067	18.4463	-15.5098	8.56697
 205	1	6	0.038058	13.8311	-16.6816	7.13022
 206	1	5	0.140142	14.9632	-14.5429	4.98816
 207	1	6	0.008074	18.0239	-19.8608	7.80405
 208	1	6	-0.001887	17.3324	-20.5728	5.40392
 209	1	6	0.034873	15.5652	-21.2454	7.80204
 210	1	6	0.057592	16.0022	-21.9107	6.6273
 211	1	6	0.004826	14.5832	-19.2294	3.5936
 212	1	6	0.004917	13.0232	-18.8662	5.49002
 213	1	6	0.011371	20.3432	-13.7253	5.99359
 214	1	6	0.016934	20.3058	-14.3504	7.63112
 215	1	6	0.017694	18.4923	-13.0583	9.37954
 216	1	6	0.024086	17.4891	-11.8152	8.64657
 217	1	6	0.001925	21.3857	-11.6443	6.75318
 218	1	6	-0.011831	22.2338	-12.9619	7.52228
 219	1	6	-0.015908	19.3804	-10.8678	9.99146
 220	1	6	0.008977	19.4756	-10.3621	8.31051
 221	1	6	0.008233	21.7218	-11.0517	9.10255
 222	1	6	0.006802	21.0915	-12.6056	9.64667
 223	1	2	-0.163429	17.9778	-10.6717	-1.77864
 224	1	6	0.069136	18.3019	-11.4835	-2.44203
 225	1	6	0.097616	17.1675	-11.0604	-1.14972
 226	1	2	-0.211261	22.2268	-7.45481	0.642162
 227	1	6	0.077702	23.2646	-7.74291	0.433335
 228	1	6	0.070844	22.0018	-6.55478	0.0566596
 229	1	1	0.055893	15.3184	-8.5845	-11.213
 230	1	1	0.066037	14.9368	-8.07685	-9.99134
 231	1	1	-0.13485	15.8205	-7.52366	-9.0612
 232	1	1	-0.112685	17.0824	-7.36198	-9.6428
 233	1	1	-0.113466	16.5494	-8.27236	-11.8459
 234	1	2	0.031197	19.4685	-7.94746	-8.72537
 235	1	1	-0.092412	17.3943	-7.53813	-10.9782
 236	1	3	0.085064	18.7861	-6.85637	-10.8389
 237	1	3	0.073163	18.4518	-6.90392	-9.2851
 238	1	3	-0.014897	19.2134	-9.28431	-9.55616
 239	1	2	0.044047	20.2189	-7.49304	-10.8734
 240	1	1	-0.216606	20.8469	-11.0116	-8.39988
 241	1	3	-0.029794	19.8666	-8.97244	-10.9557
 242	1	2	-0.27828	20.7086	-7.32478	-9.40165
 243	1	1	0.002791	20.9625	-9.97891	-10.6008
 244	1	1	-0.015593	20.26	-10.3831	-9.48346
 245	1	1	-0.275006	22.374	-9.87085	-10.5269
 246	1	1	-0.00175	23.0082	-10.4235	-9.3777
 247	1	4	0.011736	22.2541	-11.1414	-8.42404
 248	1	2	0.056595	24.3705	-10.0125	-8.74687
 249	1	3	-0.006078	22.7932	-8.63362	-4.46863
 250	1	4	0.009572	23.0225	-11.2761	-7.19445
 251	1	1	0.047642	24.1039	-10.3824	-7.25638
 252	1	1	-0.203391	24.509	-9.70605	-6.06788
 253	1	1	-0.073691	23.6771	-9.80755	-4.91751
 254	1	1	-0.02876	22.5772	-10.672	-4.99242
 255	1	3	0.009648	21.5906	-9.52684	-4.88035
 256	1	1	-0.19087	22.4041	-11.6152	-5.98895
 257	1	2	0.036362	22.4036	-8.31454	-2.97906
 258	1	2	0.011094	22.3594	-9.56282	-2.02119
 259	1	2	-0.166666	20.8915	-8.07417	-3.20589
 260	1	2	-0.004747	21.1695	-10.4174	-2.60365
 261	1	2	0.045805	20.6112	-9.5054	-3.71738
 262	1	2	-0.016724	25.505	-10.9092	-9.32872
 263	1	2	-0.038268	24.6877	-8.49024	-8.94924
 264	1	2	0.015931	26.8965	-10.2431	-9.23613
 265	1	2	0.006127	25.5897	-8.21595	-10.1735
 266	1	2	-0.02901	26.9633	-8.91846	-10.0385
 267	1	6	0.060706	14.6108	-7.72623	-7.2707
 268	1	6	0.109818	16.0409	-8.46998	-13.942
 269	1	6	0.034398	19.508	-8.04368	-7.63303
 270	1	6	0.029719	18.8224	-5.84179	-11.25
 271	1	6	0.036789	18.51	-5.94977	-8.74885
 272	1	6	0.059436	18.1821	-9.65238	-9.53968
 273	1	6	0.028349	20.8972	-7.11921	-11.6506
 274	1	5	0.156131	20.2742	-11.146	-7.49018
 275	1	6	0.059364	19.2981	-9.23032	-11.8549
 276	1	6	0.111824	21.617	-7.87452	-9.15699
 277	1	6	0.047288	20.8641	-6.27195	-9.12793
 278	1	5	0.182101	22.8998	-9.18503	-11.1817
 279	1	6	0.044359	22.904	-7.70997	-5.0484
 280	1	5	0.179067	25.2205	-8.8903	-6.12015
 281	1	6	0.038058	21.0854	-9.25009	-5.81319
 282	1	5	0.140142	21.46	-12.1475	-6.01938
 283	1	6	0.008074	22.9278	-7.4519	-2.54932
 284	1	6	-0.001887	23.2991	-10.1213	-1.92336
 285	1	6	0.034873	20.6907	-7.30663	-3.96686
 286	1	6	0.057592	20.3337	-7.80527	-2.30029
 287	1	6	0.004826	21.4109	-11.4549	-2.86887
 288	1	6	0.004917	19.5689	-9.70493	-3.99384
 289	1	6	0.011371	25.2981	-11.1217	-10.3862
 290	1	6	0.016934	25.5213	-11.8813	-8.81905
 291	1	6	0.017694	25.22	-8.08693	-8.0831
 292	1	6	0.024086	23.7682	-7.90441	-9.02425
 293	1	6	0.001925	27.6716	-10.9317	-9.59583
 294	1	6	-0.011831	27.1212	-10.0396	-8.18086
 295	1	6	-0.015908	25.7378	-7.13578	-10.2991
 296	1	6	0.008977	25.0908	-8.57143	-11.083
 297	1	6	0.008233	27.36	-9.11239	-11.0434
 298	1	6	0.006802	27.6762	-8.24397	-9.54681
 299	1	2	-0.163429	15.4671	-7.14475	-7.635
 300	1	6	0.069136	16.3099	-7.33009	-6.95753
 301	1	6	0.097616	15.2063	-6.0815	-7.56754
 302	1	2	-0.211261	16.8931	-8.64761	-13.2745
 303	1	6	0.077702	17.7396	-8.05792	-13.6474
 304	1	6	0.070844	17.1614	-9.70898	-13.3448
 305	1	1	0.055893	3.99671	-13.0184	-0.852186
 306	1	1	0.066037	3.63278	-11.7408	-1.24403
 307	1	1	-0.13485	3.91855	-11.2066	-2.50691
 308	1	1	-0.112685	4.76993	-12.0129	-3.27158
 309	1	1	-0.113466	4.66729	-13.9068	-1.72651
 310	1	2	0.031197	5.95685	-11.7777	-5.64871
 311	1	1	-0.092412	5.14532	-13.3074	-2.91519
 312	1	3	0.085064	5.21303	-13.777	-4.37874
 313	1	3	0.073163	4.80676	-12.2981	-4.75182
 314	1	3	-0.014897	7.15432	-11.6821	-4.64965
 315	1	2	0.044047	6.52089	-13.9957	-5.21664
 316	1	1	-0.216606	8.93419	-10.6583	-6.32582
 317	1	3	-0.029794	7.58205	-13.186	-4.43332
 318	1	2	-0.27828	6.23694	-13.0819	-6.44562
 319	1	1	0.002791	8.8684	-12.8187	-5.18288
 320	1	1	-0.015593	8.50775	-11.4869	-5.28858
 321	1	1	-0.275006	9.6313	-13.4494	-6.19075
 322	1	1	-0.00175	10.1412	-12.614	-7.22038
 323	1	4	0.011736	9.82684	-11.2394	-7.24818
 324	1	2	0.056595	10.8563	-13.0285	-8.53216
 325	1	3	-0.006078	11.5268	-9.0787	-12.1697
 326	1	4	0.009572	10.2717	-10.675	-8.51693
 327	1	1	0.047642	10.8268	-11.6971	-9.32504
 328	1	1	-0.203391	11.3056	-11.416	-10.6401
 329	1	1	-0.073691	11.0987	-10.0931	-11.0825
 330	1	1	-0.02876	10.6363	-9.12012	-10.2335
 331	1	3	0.009648	11.127	-7.99202	-11.0787
 332	1	1	-0.19087	10.2323	-9.32613	-8.92096
 333	1	2	0.036362	12.9994	-8.6811	-12.5009
 334	1	2	0.011094	13.9544	-9.23811	-11.4379
 335	1	2	-0.166666	12.9959	-7.17437	-12.1425
 336	1	2	-0.004747	13.4904	-8.47651	-10.1264
 337	1	2	0.045805	12.4953	-7.38325	-10.6972
 338	1	2	-0.016724	12.3271	-13.4535	-8.23112
 339	1	2	-0.038268	10.0404	-14.1374	-9.26223
 340	1	2	0.015931	12.6229	-14.9346	-8.55087
 341	1	2	0.006127	10.8126	-14.8468	-10.4008
 342	1	2	-0.02901	12.2514	-15.2746	-10.0116
 343	1	6	0.060706	2.79785	-9.35624	-2.31551
 344	1	6	0.109818	3.76933	-15.8557	-2.02983
 345	1	6	0.034398	5.73944	-10.8793	-6.24008
 346	1	6	0.029719	4.47512	-14.5433	-4.64043
 347	1	6	0.036789	3.8461	-12.1894	-5.26745
 348	1	6	0.059436	6.99021	-11.054	-3.7674
 349	1	6	0.028349	6.78185	-15.0373	-5.44197
 350	1	5	0.156131	8.48809	-9.68476	-6.50083
 351	1	6	0.059364	7.72696	-13.5269	-3.40193
 352	1	6	0.111824	7.08863	-12.9896	-7.13166
 353	1	6	0.047288	5.36319	-13.4171	-7.02094
 354	1	5	0.182101	9.71506	-14.5302	-6.23871
 355	1	6	0.044359	10.9005	-9.06574	-13.0683
 356	1	5	0.179067	11.8118	-12.1547	-11.2517
 357	1	6	0.038058	10.3891	-7.24469	-11.3921
 358	1	5	0.140142	9.93669	-8.51774	-8.25982
 359	1	6	0.008074	13.3158	-8.89511	-13.5294
 360	1	6	-0.001887	13.96	-10.331	-11.3348
 361	1	6	0.034873	12.2949	-6.59601	-12.7609
 362	1	6	0.057592	13.9777	-6.6877	-12.2044
 363	1	6	0.004826	13.1246	-9.1194	-9.31599
 364	1	6	0.004917	12.4383	-6.46749	-10.0954
 365	1	6	0.011371	12.5732	-13.2568	-7.17935
 366	1	6	0.016934	13.0183	-12.8341	-8.81759
 367	1	6	0.017694	9.10294	-13.7196	-9.65192
 368	1	6	0.024086	9.7478	-14.9072	-8.53777
 369	1	6	0.001925	12.0583	-15.5794	-7.86467
 370	1	6	-0.011831	13.6862	-15.1459	-8.38046
 371	1	6	-0.015908	10.8554	-14.1934	-11.2797
 372	1	6	0.008977	10.2444	-15.7317	-10.7149
 373	1	6	0.008233	12.3751	-16.3524	-10.1773
 374	1	6	0.006802	12.9622	-14.7745	-10.6824
 375	1	2	-0.163429	3.16426	-10.0297	-3.10052
 376	1	6	0.069136	3.81146	-9.44448	-3.76556
 377	1	6	0.097616	2.30074	-10.371	-3.68433
 378	1	2	-0.211261	4.64217	-15.4123	-1.5354
 379	1	6	0.077702	5.54307	-15.8769	-1.95508
 380	1	6	0.070844	4.59745	-15.6744	-0.470806
 381	1	1	0.055893	-3.76304	-3.68213	9.19487
 382	1	1	0.066037	-3.41675	-3.01735	8.03821
 383	1	1	-0.13485	-3.70598	-3.48114	6.73907
 384	1	1	-0.112685	-4.38207	-4.71665	6.7861
 385	1	1	-0.113466	-4.38965	-4.93958	9.24503
 386	1	2	0.031197	-4.06458	-6.78757	5.05033
 387	1	1	-0.092412	-4.66585	-5.4074	7.94998
 388	1	3	0.085064	-5.23531	-6.61487	7.22685
 389	1	3	0.073163	-4.94468	-5.80911	5.88199
 390	1	3	-0.014897	-2.70797	-6.70986	5.79291
 391	1	2	0.044047	-4.44217	-7.948	7.0426
 392	1	1	-0.216606	-1.26679	-8.43385	4.30001
 393	1	3	-0.029794	-2.95394	-7.49504	7.14914
 394	1	2	-0.27828	-4.63881	-8.15849	5.51398
 395	1	1	0.002791	-1.89932	-8.47138	6.64414
 396	1	1	-0.015593	-1.70943	-7.79654	5.46089
 397	1	1	-0.275006	-1.58906	-9.8296	6.81233
 398	1	1	-0.00175	-0.962784	-10.4588	5.70629
 399	1	4	0.011736	-0.836369	-9.77102	4.47351
 400	1	2	0.056595	-0.486349	-11.9264	5.56377
 401	1	3	-0.006078	0.339102	-13.6321	0.607817
 402	1	4	0.009572	-0.357793	-10.708	3.45695
 403	1	1	0.047642	-0.11542	-11.9637	4.06639
 404	1	1	-0.203391	0.262794	-13.0965	3.29695
 405	1	1	-0.073691	0.440472	-12.8597	1.92378
 406	1	1	-0.02876	0.102445	-11.659	1.34704
 407	1	3	0.009648	-0.0658426	-12.2356	-0.0349845
 408	1	1	-0.19087	-0.328619	-10.5385	2.05383
 409	1	2	0.036362	1.60322	-14.0179	-0.221416
 410	1	2	0.011094	2.83427	-13.1333	0.141688
 411	1	2	-0.166666	1.19188	-13.4292	-1.59182
 412	1	2	-0.004747	2.40181	-11.707	-0.371028
 413	1	2	0.045805	1.03476	-11.9804	-1.07754
 414	1	2	-0.016724	0.778497	-12.2048	6.42119
 415	1	2	-0.038268	-1.61557	-12.9626	5.85324
 416	1	2	0.015931	0.47378	-12.4094	7.9219
 417	1	2	0.006127	-1.88092	-13.2417	7.35254
 418	1	2	-0.02901	-0.581856	-13.5136	8.14171
 419	1	6	0.060706	-3.89	-3.15916	4.60079
 420	1	6	0.109818	-4.30326	-5.19882	11.399
 421	1	6	0.034398	-4.03511	-6.61248	3.96755
 422	1	6	0.029719	-6.29507	-6.81555	7.41837
 423	1	6	0.036789	-5.84358	-5.52791	5.32264
 424	1	6	0.059436	-2.26537	-5.70988	5.8455
 425	1	6	0.028349	-4.74189	-8.78209	7.68934
 426	1	5	0.156131	-1.3061	-7.95701	3.32636
 427	1	6	0.059364	-2.69065	-6.99374	8.08649
 428	1	6	0.111824	-4.07489	-9.01689	5.12426
 429	1	6	0.047288	-5.69603	-8.28098	5.24224
 430	1	5	0.182101	-1.85343	-10.352	7.72207
 431	1	6	0.044359	-0.421569	-14.4198	0.571363
 432	1	5	0.179067	0.334038	-14.0922	3.72308
 433	1	6	0.038058	-1.0693	-12.1716	-0.470432
 434	1	5	0.140142	-0.693694	-9.64211	1.56337
 435	1	6	0.008074	1.82393	-15.0923	-0.242686
 436	1	6	-0.001887	3.14015	-13.1534	1.1957
 437	1	6	0.034873	0.24899	-13.8517	-1.96683
 438	1	6	0.057592	1.95015	-13.5402	-2.3768
 439	1	6	0.004826	2.41798	-10.9149	0.388437
 440	1	6	0.004917	0.768769	-11.2472	-1.84843
 441	1	6	0.011371	1.49991	-11.3862	6.29965
 442	1	6	0.016934	1.27261	-13.111	6.04725
 443	1	6	0.017694	-1.34411	-13.9207	5.3933
 444	1	6	0.024086	-2.54695	-12.6443	5.36706
 445	1	6	0.001925	0.124227	-11.4692	8.36466
 446	1	6	-0.011831	1.39827	-12.6778	8.44862
 447	1	6	-0.015908	-2.5476	-14.1084	7.4452
 448	1	6	0.008977	-2.41887	-12.4032	7.80472
 449	1	6	0.008233	-0.809931	-13.6015	9.21154
 450	1	6	0.006802	-0.163703	-14.478	7.82508
 451	1	2	-0.163429	-3.35149	-2.74351	5.46155
 452	1	6	0.069136	-3.60982	-1.67991	5.53655
 453	1	6	0.097616	-2.27681	-2.81647	5.25398
 454	1	2	-0.211261	-4.74318	-5.68362	10.5184
 455	1	6	0.077702	-5.83036	-5.71724	10.6605
 456	1	6	0.070844	-4.37402	-6.71604	10.4838
 457	1	1	0.055893	-8.07082	12.3224	10.6853
 458	1	1	0.066037	-6.87792	11.9882	10.0798
 459	1	1	-0.13485	-6.7576	11.0007	9.08091
 460	1	1	-0.112685	-7.934	10.2404	8.97677
 461	1	1	-0.113466	-9.25271	11.5639	10.5681
 462	1	2	0.031197	-8.33175	7.7423	7.96275
 463	1	1	-0.092412	-9.05439	10.4182	9.76992
 464	1	3	0.085064	-9.86945	9.39256	9.00027
 465	1	3	0.073163	-8.62223	9.26434	8.02234
 466	1	3	-0.014897	-7.6315	7.5347	9.31686
 467	1	2	0.044047	-10.073	7.92494	9.50824
 468	1	1	-0.216606	-6.98689	4.8936	9.29029
 469	1	3	-0.029794	-8.80527	7.65315	10.3857
 470	1	2	-0.27828	-9.75561	7.1563	8.19468
 471	1	1	0.002791	-8.47227	6.19969	10.7107
 472	1	1	-0.015593	-7.48874	6.10505	9.76383
 473	1	1	-0.275006	-8.98387	5.09447	11.4013
 474	1	1	-0.00175	-8.3685	3.85511	11.0786
 475	1	4	0.011736	-7.43375	3.76068	10.0113
 476	1	2	0.056595	-8.5902	2.46989	11.7282
 477	1	3	-0.006078	-5.57844	-1.49372	9.84374
 478	1	4	0.009572	-7.05507	2.35711	9.82995
 479	1	1	0.047642	-7.65779	1.59993	10.8642
 480	1	1	-0.203391	-7.32398	0.237734	11.061
 481	1	1	-0.073691	-6.51647	-0.316553	10.0597
 482	1	1	-0.02876	-6.03466	0.391996	8.98762
 483	1	3	0.009648	-5.06148	-0.69292	8.57264
 484	1	1	-0.19087	-6.18253	1.77715	8.87357
 485	1	2	0.036362	-4.29554	-1.59157	10.7242
 486	1	2	0.011094	-3.26362	-2.58289	10.105
 487	1	2	-0.166666	-3.55365	-0.27444	10.3993
 488	1	2	-0.004747	-2.80583	-1.83324	8.7762
 489	1	2	0.045805	-3.56306	-0.47659	8.86592
 490	1	2	-0.016724	-8.13125	2.44657	13.2142
 491	1	2	-0.038268	-10.0501	1.95551	11.5704
 492	1	2	0.015931	-9.14261	3.08982	14.1904
 493	1	2	0.006127	-11.0588	2.57348	12.5658
 494	1	2	-0.02901	-10.5591	2.49753	14.0249
 495	1	6	0.060706	-4.78072	11.5771	8.38631
 496	1	6	0.109818	-10.9142	11.2768	11.9264
 497	1	6	0.034398	-7.7925	7.38403	7.07681
 498	1	6	0.029719	-10.7877	9.77629	8.55006
 499	1	6	0.036789	-8.79056	9.63999	7.01013
 500	1	6	0.059436	-6.72197	8.126	9.46784
 501	1	6	0.028349	-11.0418	7.70544	9.97433
 502	1	5	0.156131	-6.31269	4.82702	8.44284
 503	1	6	0.059364	-8.67017	8.35006	11.22
 504	1	6	0.111824	-9.75619	6.06557	8.32597
 505	1	6	0.047288	-10.4497	7.4136	7.38269
 506	1	5	0.182101	-9.7799	5.20143	12.1271
 507	1	6	0.044359	-6.06699	-2.45699	9.66176
 508	1	5	0.179067	-7.65176	-0.331394	11.9249
 509	1	6	0.038058	-5.25746	-1.1383	7.5915
 510	1	5	0.140142	-5.65037	2.36309	8.1313
 511	1	6	0.008074	-4.47987	-1.75599	11.7931
 512	1	6	-0.001887	-2.4187	-2.85202	10.7524
 513	1	6	0.034873	-2.53715	-0.241162	10.8167
 514	1	6	0.057592	-4.09032	0.624191	10.7302
 515	1	6	0.004826	-1.71367	-1.75186	8.70006
 516	1	6	0.004917	-3.09288	0.334797	8.29628
 517	1	6	0.011371	-7.15655	2.94219	13.3122
 518	1	6	0.016934	-7.98152	1.40656	13.5297
 519	1	6	0.017694	-10.0581	0.868267	11.7221
 520	1	6	0.024086	-10.396	2.1242	10.5422
 521	1	6	0.001925	-9.17407	4.17436	14.0384
 522	1	6	-0.011831	-8.80138	2.93402	15.2216
 523	1	6	-0.015908	-12.0177	2.04651	12.4826
 524	1	6	0.008977	-11.2619	3.61514	12.2965
 525	1	6	0.008233	-11.2606	3.02419	14.6841
 526	1	6	0.006802	-10.548	1.44773	14.3456
 527	1	2	-0.163429	-5.56794	10.8502	8.15034
 528	1	6	0.069136	-5.13317	9.84647	8.23013
 529	1	6	0.097616	-5.86695	11.0061	7.10637
 530	1	2	-0.211261	-10.5965	11.9731	11.1407
 531	1	6	0.077702	-10.5549	12.9786	11.5778
 532	1	6	0.070844	-11.3685	11.9789	10.361
 533	1	1	0.055893	2.15159	23.7606	2.66303
 534	1	1	0.066037	2.69022	23.2005	3.80149
 535	1	1	-0.13485	1.98441	22.4548	4.7508
 536	1	1	-0.112685	0.639538	22.3102	4.39092
 537	1	1	-0.113466	0.748857	23.9079	2.52157
 538	1	2	0.031197	-1.26939	20.6503	4.77762
 539	1	1	-0.092412	0.0253739	23.0916	3.42474
 540	1	3	0.085064	-1.34843	23.0296	4.12496
 541	1	3	0.073163	-0.631144	22.0266	5.12537
 542	1	3	-0.014897	-2.53057	20.8726	5.61093
 543	1	2	0.044047	-2.50637	22.1756	3.53202
 544	1	1	-0.216606	-4.16201	18.7727	5.88544
 545	1	3	-0.029794	-3.35938	21.9889	4.85024
 546	1	2	-0.27828	-1.80594	20.804	3.32449
 547	1	1	0.002791	-4.50158	20.9678	4.84271
 548	1	1	-0.015593	-3.69869	19.9617	5.3358
 549	1	1	-0.275006	-5.8691	20.9914	5.19817
 550	1	1	-0.00175	-6.39595	19.7935	5.75942
 551	1	4	0.011736	-5.56406	18.6703	5.96069
 552	1	2	0.056595	-7.76507	19.5583	6.45424
 553	1	3	-0.006078	-8.21849	14.8381	8.99672
 554	1	4	0.009572	-6.33303	17.6039	6.58207
 555	1	1	0.047642	-7.60866	18.0953	6.9388
 556	1	1	-0.203391	-8.47298	17.3203	7.76383
 557	1	1	-0.073691	-8.04863	15.9943	7.99264
 558	1	1	-0.02876	-6.85899	15.5068	7.50794
 559	1	3	0.009648	-6.84563	14.3098	8.40432
 560	1	1	-0.19087	-5.90008	16.3	6.89065
 561	1	2	0.036362	-7.85625	15.0254	10.499
 562	1	2	0.011094	-7.55916	13.6569	11.2225
 563	1	2	-0.166666	-6.40823	15.5621	10.4197
 564	1	2	-0.004747	-6.16899	13.2306	10.5765
 565	1	2	0.045805	-5.86232	14.376	9.59158
 566	1	2	-0.016724	-7.91994	20.5165	7.67838
 567	1	2	-0.038268	-8.95086	19.6647	5.45186
 568	1	2	0.015931	-9.31654	21.1646	7.78386
 569	1	2	0.006127	-9.42337	21.1168	5.19546
 570	1	2	-0.02901	-9.67109	21.9334	6.49102
 571	1	6	0.060706	3.6515	21.8671	6.01084
 572	1	6	0.109818	0.658084	25.0293	0.669163
 573	1	6	0.034398	-0.682422	19.7512	5.00363
 574	1	6	0.029719	-1.69539	23.9881	4.52723
 575	1	6	0.036789	-0.604665	22.2736	6.19375
 576	1	6	0.059436	-2.33046	21.0081	6.68089
 577	1	6	0.028349	-3.0232	22.5977	2.66097
 578	1	5	0.156131	-3.50149	18.041	6.3388
 579	1	6	0.059364	-3.5704	22.9264	5.37764
 580	1	6	0.111824	-2.50582	20.01	3.0324
 581	1	6	0.047288	-1.0036	20.8413	2.57615
 582	1	5	0.182101	-6.44745	21.9086	5.15807
 583	1	6	0.044359	-9.09905	14.2053	8.85717
 584	1	5	0.179067	-9.37462	17.7285	8.21
 585	1	6	0.038058	-6.8607	13.3583	7.86846
 586	1	5	0.140142	-4.89004	15.9538	6.69739
 587	1	6	0.008074	-8.54275	15.6762	11.0548
 588	1	6	-0.001887	-7.50067	13.7207	12.3169
 589	1	6	0.034873	-5.93076	15.6497	11.4061
 590	1	6	0.057592	-6.32566	16.5314	9.91111
 591	1	6	0.004826	-5.39356	13.0498	11.3325
 592	1	6	0.004917	-4.80306	14.4554	9.31671
 593	1	6	0.011371	-7.17979	21.3244	7.61554
 594	1	6	0.016934	-7.69469	19.9849	8.61213
 595	1	6	0.017694	-9.80425	19.098	5.84714
 596	1	6	0.024086	-8.68378	19.1864	4.50071
 597	1	6	0.001925	-9.34601	21.8491	8.64121
 598	1	6	-0.011831	-10.0694	20.3881	7.97272
 599	1	6	-0.015908	-10.3452	21.0938	4.60046
 600	1	6	0.008977	-8.67987	21.6365	4.57954
 601	1	6	0.008233	-9.07041	22.8515	6.44817
 602	1	6	0.006802	-10.7202	22.2524	6.53545
 603	1	2	-0.163429	2.5624	21.9844	6.07258
 604	1	6	0.069136	2.34461	22.7043	6.87105
 605	1	6	0.097616	2.13754	21.016	6.36451
 606	1	2	-0.211261	0.0988342	24.9292	1.60778
 607	1	6	0.077702	-0.927788	24.6359	1.35551
 608	1	6	0.070844	0.0622886	25.915	2.08722
 609	1	1	0.055893	-0.559289	12.3074	-0.595119
 610	1	1	0.066037	-1.00682	13.3103	0.258466
 611	1	1	-0.13485	-0.0776926	13.9928	1.07566
 612	1	1	-0.112685	1.25685	13.8729	0.647298
 613	1	1	-0.113466	0.788011	12.1038	-0.941283
 614	1	2	0.031197	3.48298	15.1259	1.29814
 615	1	1	-0.092412	1.65504	13.0736	-0.413621
 616	1	3	0.085064	3.10338	13.0502	0.0226496
 617	1	3	0.073163	2.63311	13.8385	1.31231
 618	1	3	-0.014897	4.87559	14.4591	1.58466
 619	1	2	0.044047	4.03736	14.0736	-0.699409
 620	1	1	-0.216606	6.27934	16.6719	1.84143
 621	1	3	-0.029794	5.28369	13.8507	0.187191
 622	1	2	-0.27828	3.51758	15.4616	-0.218303
 623	1	1	0.002791	6.37852	14.9134	0.146125
 624	1	1	-0.015593	6.08893	15.3537	1.43022
 625	1	1	-0.275006	6.71883	15.8309	-0.868133
 626	1	1	-0.00175	6.87104	17.187	-0.483459
 627	1	4	0.011736	6.76002	17.5721	0.868404
 628	1	2	0.056595	6.82059	18.43	-1.40396
 629	1	3	-0.006078	4.36724	22.3741	1.13622
 630	1	4	0.009572	6.63377	19.0239	0.94087
 631	1	1	0.047642	6.47357	19.5337	-0.366649
 632	1	1	-0.203391	5.81034	20.7795	-0.550664
 633	1	1	-0.073691	5.54961	21.5347	0.611787