pySIMM System Object

2792 atoms
3232 bonds
6696 angles
12288 dihedrals
216 impropers

6 atom types
11 bond types
24 angle types
21 dihedral types
2 improper types

-195.830340 195.830340 xlo xhi
-195.830340 195.830340 ylo yhi
-195.830340 195.830340 zlo zhi

Masses

   1	12.01	# ca
   2	12.01	# c3
   3	12.01	# cy
   4	12.01	# cp
   5	1.008	# ha
   6	1.008	# hc

Pair Coeffs

   1	0.086	3.3996695084235347	# ca
   2	0.1094	3.3996695084235347	# c3
   3	0.086	3.3996695084235347	# cy
   4	0.086	3.3996695084235347	# cp
   5	0.015	2.59964245953351	# ha
   6	0.0157	2.649532787749369	# hc

Bond Coeffs

   1	321.2	1.5154	# ca,cy
   2	461.1	1.3984	# ca,ca
   3	345.8	1.086	# ca,ha
   4	300.9	1.5375	# c3,c3
   5	305.9	1.5319	# c3,cy
   6	450.2	1.4058	# ca,cp
   7	351.4	1.4854	# cp,cp
   8	321.0	1.5156	# c3,ca
   9	330.6	1.0969	# c3,hc
  10	333.3	1.0949	# cy,hc
  11	285.0	1.5562	# cy,cy

Angle Coeffs

   1	66.72	118.38	# ca,cp,ca
   2	46.8	110.47	# ca,c3,hc
   3	62.86	111.51	# c3,c3,c3
   4	46.43	110.14	# c3,cy,hc
   5	63.43	120.63	# c3,ca,cp
   6	63.56	112.24	# ca,c3,ca
   7	64.05	121.11	# ca,cp,cp
   8	66.62	120.02	# ca,ca,ca
   9	47.98	119.86	# cp,ca,ha
  10	39.4	107.58	# hc,c3,hc
  11	63.53	120.77	# c3,ca,ca
  12	63.51	120.86	# ca,ca,cy
  13	62.8	113.57	# c3,cy,ca
  14	67.9	96.03	# cy,c3,cy
  15	61.4	116.81	# ca,cy,cy
  16	63.15	112.07	# c3,c3,ca
  17	45.97	114.53	# ca,cy,hc
  18	66.26	120.69	# ca,ca,cp
  19	46.34	109.8	# c3,c3,hc
  20	48.18	119.88	# ca,ca,ha
  21	62.73	112.39	# c3,c3,cy
  22	46.29	110.75	# cy,c3,hc
  23	44.83	114.79	# cy,cy,hc
  24	60.66	118.7	# c3,cy,cy

Dihedral Coeffs

   1	1	0.15555555555555556	3	0	# X,cy,cy,X
   2	1	3.625	2	180	# X,ca,cp,X
   3	3	0.18	3	0	0.25	2	180	0.2	1	180	# c3,c3,c3,c3
   4	1	0.16	3	0	# hc,c3,c3,c3
   5	1	0.0	2	0.0	# ca,ca,cy,cy
   6	1	1.0	2	180	# X,cp,cp,X
   7	1	0.0	2	0.0	# ca,ca,cy,c3
   8	3	0.38	3	180.0	0.0	2	0.0	1.15	1	0.0	# ca,ca,cy,hc
   9	1	0.0	2	0	# X,c3,ca,X
  10	1	0.16	3	0.0	# cy,c3,cy,ca
  11	1	0.15555555555555556	3	0	# X,c3,c3,X
  12	1	0.16	3	0.0	# c3,c3,cy,ca
  13	1	0.16	3	0.0	# hc,c3,cy,ca
  14	3	0.18	3	0.0	0.25	2	180.0	0.2	1	180.0	# cy,c3,cy,cy
  15	1	0.15	3	0	# hc,c3,c3,hc
  16	3	0.18	3	0.0	0.25	2	180.0	0.2	1	180.0	# c3,c3,cy,cy
  17	1	0.16	3	0.0	# hc,c3,cy,cy
  18	1	0.16	3	0.0	# cy,c3,cy,hc
  19	1	0.16	3	0.0	# c3,c3,cy,hc
  20	1	0.15	3	0.0	# hc,c3,cy,hc
  21	1	3.625	2	180	# X,ca,ca,X

Improper Coeffs

   1	1.1	-1	2	# ca,ca,ca,c3
   2	1.1	-1	2	# ca,X,X,ha

Atoms

   1	1	1	0.055893	0.239691	-33.6834	-48.4227
   2	1	1	0.066037	0.883127	-32.4691	-48.5927
   3	1	1	-0.13485	1.16609	-31.5869	-47.5278
   4	1	1	-0.112685	0.877262	-32.15	-46.266
   5	1	1	-0.113466	-0.246718	-34.1398	-47.1872
   6	1	2	0.031197	-0.401443	-30.6212	-44.3579
   7	1	1	-0.092412	0.195428	-33.3476	-46.1176
   8	1	3	0.085064	-0.213209	-33.0607	-44.6878
   9	1	3	0.073163	0.616452	-31.7124	-44.819
  10	1	3	-0.014897	-1.34582	-30.5078	-45.5739
  11	1	2	0.044047	-1.64714	-32.5937	-44.2882
  12	1	1	-0.216606	-3.09613	-28.7072	-44.5722
  13	1	3	-0.029794	-2.1705	-31.8572	-45.5646
  14	1	2	-0.27828	-1.25855	-31.4271	-43.3365
  15	1	1	0.002791	-3.39665	-30.9752	-45.3863
  16	1	1	-0.015593	-2.67039	-29.8056	-45.3332
  17	1	1	-0.275006	-4.66597	-31.1209	-44.8127
  18	1	1	-0.00175	-5.20342	-29.957	-44.2144
  19	1	4	0.011736	-4.41371	-28.7928	-44.054
  20	1	2	0.056595	-6.5609	-29.8236	-43.501
  21	1	3	-0.006078	-6.94699	-25.8004	-40.0504
  22	1	4	0.009572	-5.11013	-27.8885	-43.1261
  23	1	1	0.047642	-6.36803	-28.4662	-42.791
  24	1	1	-0.203391	-7.2154	-27.8705	-41.8234
  25	1	1	-0.073691	-6.71215	-26.7041	-41.2441
  26	1	1	-0.02876	-5.47986	-26.1817	-41.5242
  27	1	3	0.009648	-5.50734	-25.2021	-40.3589
  28	1	1	-0.19087	-4.60562	-26.7356	-42.4634
  29	1	2	0.036362	-7.87199	-24.5692	-40.1951
  30	1	2	0.011094	-7.96415	-24.0713	-41.6649
  31	1	2	-0.166666	-6.96328	-23.4764	-39.5994
  32	1	2	-0.004747	-6.55481	-23.4791	-41.9329
  33	1	2	0.045805	-5.80807	-23.7023	-40.5963
  34	1	2	-0.016724	-7.68789	-29.7575	-44.5687
  35	1	2	-0.038268	-6.77991	-31.0061	-42.5057
  36	1	2	0.015931	-9.11105	-29.8299	-43.9732
  37	1	2	0.006127	-8.22254	-31.1486	-41.9613
  38	1	2	-0.02901	-9.28785	-31.0744	-43.0773
  39	1	6	0.060706	0.828794	-29.5813	-48.28
  40	1	6	0.109818	-1.00333	-36.1197	-47.6387
  41	1	6	0.034398	0.0292077	-29.6803	-43.9931
  42	1	6	0.029719	0.187472	-33.7588	-43.9444
  43	1	6	0.036789	1.51126	-31.6834	-44.1878
  44	1	6	0.059436	-0.860346	-30.2118	-46.5058
  45	1	6	0.028349	-2.30538	-33.364	-43.8673
  46	1	5	0.156131	-2.43067	-27.8877	-44.3219
  47	1	6	0.059364	-2.18202	-32.4543	-46.4801
  48	1	6	0.111824	-2.12942	-30.8712	-42.9639
  49	1	6	0.047288	-0.668531	-31.7682	-42.4749
  50	1	5	0.182101	-5.16533	-32.0831	-44.7776
  51	1	6	0.044359	-7.06726	-26.2945	-39.08
  52	1	5	0.179067	-8.15324	-28.3008	-41.4983
  53	1	6	0.038058	-4.74994	-25.3511	-39.5816
  54	1	5	0.140142	-3.59834	-26.3628	-42.6178
  55	1	6	0.008074	-8.84343	-24.6757	-39.6981
  56	1	6	-0.001887	-8.22166	-24.8699	-42.3711
  57	1	6	0.034873	-6.67539	-23.6803	-38.5588
  58	1	6	0.057592	-7.40074	-22.4703	-39.6679
  59	1	6	0.004826	-6.04156	-23.9722	-42.7644
  60	1	6	0.004917	-4.9475	-23.0361	-40.4562
  61	1	6	0.011371	-7.56697	-30.5966	-45.2666
  62	1	6	0.016934	-7.5844	-28.8417	-45.1656
  63	1	6	0.017694	-6.07448	-30.9251	-41.6685
  64	1	6	0.024086	-6.54336	-31.9491	-43.0117
  65	1	6	0.001925	-9.84677	-29.8577	-44.7869
  66	1	6	-0.011831	-9.32027	-28.9221	-43.3961
  67	1	6	-0.015908	-8.42252	-30.3812	-41.2078
  68	1	6	0.008977	-8.31549	-32.1087	-41.4379
  69	1	6	0.008233	-9.21817	-31.9761	-43.6997
  70	1	6	0.006802	-10.2909	-31.0724	-42.6322
  71	1	2	-0.163429	1.59538	-30.145	-47.7338
  72	1	6	0.069136	1.76917	-29.6389	-46.7761
  73	1	6	0.097616	2.52579	-30.0949	-48.3127
  74	1	2	-0.211261	-1.28476	-35.239	-47.0481
  75	1	6	0.077702	-1.39101	-35.5567	-46.0035
  76	1	6	0.070844	-2.26632	-34.897	-47.399
  77	1	1	0.055893	-5.50405	-22.6376	-46.8722
  78	1	1	0.066037	-4.73294	-22.1462	-48.327
  79	1	1	-0.13485	-4.73076	-22.784	-49.8403
  80	1	1	-0.112685	-5.68145	-24.0063	-50.2571
  81	1	1	-0.113466	-6.65535	-23.7086	-46.9657
  82	1	2	0.031197	-5.7808	-25.8728	-52.2285
  83	1	1	-0.092412	-6.64315	-24.6559	-49.1881
  84	1	3	0.085064	-7.39771	-25.3409	-50.3915
  85	1	3	0.073163	-6.37042	-24.6661	-51.4326
  86	1	3	-0.014897	-4.89221	-26.5957	-51.1745
  87	1	2	0.044047	-7.33249	-26.85	-50.7734
  88	1	1	-0.216606	-3.44684	-28.7689	-52.0803
  89	1	3	-0.029794	-5.96641	-27.2656	-50.2083
  90	1	2	-0.27828	-7.05263	-26.7664	-52.3035
  91	1	1	0.002791	-5.42943	-28.5889	-50.6914
  92	1	1	-0.015593	-4.46943	-28.0251	-51.4835
  93	1	1	-0.275006	-5.6161	-29.9607	-50.5215
  94	1	1	-0.00175	-4.65784	-30.7573	-51.1892
  95	1	4	0.011736	-3.57199	-30.1745	-51.8977
  96	1	2	0.056595	-4.56198	-32.2906	-51.1664
  97	1	3	-0.006078	0.06725	-34.32	-52.3084
  98	1	4	0.009572	-2.66273	-31.2544	-52.3028
  99	1	1	0.047642	-3.24962	-32.4937	-51.9441
 100	1	1	-0.203391	-2.55005	-33.7109	-52.0939
 101	1	1	-0.073691	-1.24452	-33.6073	-52.5929
 102	1	1	-0.02876	-0.635123	-32.3905	-52.8246
 103	1	3	0.009648	0.767544	-32.9169	-52.5496
 104	1	1	-0.19087	-1.2993	-31.1663	-52.6786
 105	1	2	0.036362	0.462547	-34.6692	-50.852
 106	1	2	0.011094	-0.263609	-33.7323	-49.8431
 107	1	2	-0.166666	1.89848	-34.097	-50.8463
 108	1	2	-0.004747	0.451572	-32.3402	-50.0505
 109	1	2	0.045805	1.47583	-32.6489	-51.1872
 110	1	2	-0.016724	-4.43834	-32.7902	-49.6902
 111	1	2	-0.038268	-5.75243	-32.9527	-51.9217
 112	1	2	0.015931	-5.00622	-34.2105	-49.4754
 113	1	2	0.006127	-6.92477	-33.3246	-50.9861
 114	1	2	-0.02901	-6.50208	-34.3101	-49.8666
 115	1	6	0.060706	-4.32923	-22.0522	-51.8384
 116	1	6	0.109818	-6.48708	-23.2803	-44.7856
 117	1	6	0.034398	-5.29989	-25.6326	-53.1851
 118	1	6	0.029719	-8.4299	-25.0343	-50.5671
 119	1	6	0.036789	-6.8271	-23.9573	-52.1319
 120	1	6	0.059436	-4.08771	-25.9742	-50.7733
 121	1	6	0.028349	-8.18821	-27.4664	-50.4699
 122	1	5	0.156131	-2.61758	-28.3129	-52.6109
 123	1	6	0.059364	-5.86964	-27.1529	-49.133
 124	1	6	0.111824	-6.86018	-27.7469	-52.7602
 125	1	6	0.047288	-7.87263	-26.2813	-52.8504
 126	1	5	0.182101	-6.40217	-30.3685	-49.8949
 127	1	6	0.044359	0.353786	-35.107	-53.0148
 128	1	5	0.179067	-2.92494	-34.6435	-51.6883
 129	1	6	0.038058	1.46777	-32.8929	-53.3918
 130	1	5	0.140142	-0.772998	-30.2175	-52.7029
 131	1	6	0.008074	0.394753	-35.7346	-50.5984
 132	1	6	-0.001887	-1.35408	-33.7092	-49.8866
 133	1	6	0.034873	2.53551	-34.5455	-51.6215
 134	1	6	0.057592	2.41129	-34.1946	-49.8804
 135	1	6	0.004826	-0.233871	-31.5038	-50.2303
 136	1	6	0.004917	2.30847	-31.9361	-51.2359
 137	1	6	0.011371	-4.9879	-32.118	-49.0195
 138	1	6	0.016934	-3.39413	-32.7454	-49.3579
 139	1	6	0.017694	-5.40982	-33.8721	-52.4142
 140	1	6	0.024086	-6.10622	-32.2902	-52.7223
 141	1	6	0.001925	-4.87908	-34.5098	-48.4272
 142	1	6	-0.011831	-4.43057	-34.9268	-50.0723
 143	1	6	-0.015908	-7.74572	-33.7612	-51.5689
 144	1	6	0.008977	-7.32234	-32.4102	-50.5298
 145	1	6	0.008233	-7.12602	-34.1246	-48.9828
 146	1	6	0.006802	-6.7129	-35.3395	-50.1838
 147	1	2	-0.163429	-3.80212	-22.2022	-50.8882
 148	1	6	0.069136	-3.40097	-21.2327	-50.5684
 149	1	6	0.097616	-2.95582	-22.8749	-51.0731
 150	1	2	-0.211261	-7.21186	-23.7551	-45.4548
 151	1	6	0.077702	-8.1115	-23.1599	-45.2701
 152	1	6	0.070844	-7.31393	-24.7634	-45.0341
 153	1	1	0.055893	-18.8178	-21.0587	-40.9648
 154	1	1	0.066037	-18.5639	-19.8029	-41.4984
 155	1	1	-0.13485	-18.2795	-19.6324	-42.8728
 156	1	1	-0.112685	-18.5607	-20.7761	-43.6502
 157	1	1	-0.113466	-18.995	-22.2277	-41.7179
 158	1	2	0.031197	-16.6689	-21.6689	-45.4735
 159	1	1	-0.092412	-18.9476	-21.9891	-43.0992
 160	1	3	0.085064	-18.5534	-22.7808	-44.3273
 161	1	3	0.073163	-18.1386	-21.4	-44.9898
 162	1	3	-0.014897	-15.8482	-21.6234	-44.1638
 163	1	2	0.044047	-17.262	-23.6455	-44.3841
 164	1	1	-0.216606	-13.3159	-22.2949	-44.9907
 165	1	3	-0.029794	-16.3004	-22.9252	-43.386
 166	1	2	-0.27828	-16.7322	-23.1958	-45.775
 167	1	1	0.002791	-14.8555	-23.3461	-43.4451
 168	1	1	-0.015593	-14.4561	-22.2539	-44.1733
 169	1	1	-0.275006	-14.1378	-24.5368	-43.3442
 170	1	1	-0.00175	-12.8917	-24.5407	-44.0053
 171	1	4	0.011736	-12.5051	-23.4559	-44.8412
 172	1	2	0.056595	-11.8712	-25.6918	-44.0542
 173	1	3	-0.006078	-7.90853	-25.5435	-47.5246
 174	1	4	0.009572	-11.2792	-23.8487	-45.5608
 175	1	1	0.047642	-10.9087	-25.1404	-45.1099
 176	1	1	-0.203391	-9.80374	-25.83	-45.6423
 177	1	1	-0.073691	-9.11739	-25.1721	-46.6625
 178	1	1	-0.02876	-9.47186	-23.8775	-47.131
 179	1	3	0.009648	-8.50592	-23.6917	-48.3165
 180	1	1	-0.19087	-10.5735	-23.1842	-46.6024
 181	1	2	0.036362	-5.80796	-25.6015	-47.2088
 182	1	2	0.011094	-5.21595	-23.7622	-47.1236
 183	1	2	-0.166666	-4.76761	-24.4474	-48.0932
 184	1	2	-0.004747	-5.85508	-21.9805	-47.9993
 185	1	2	0.045805	-6.80961	-22.5246	-48.7979
 186	1	2	-0.016724	-11.1197	-25.8508	-42.7034
 187	1	2	-0.038268	-12.4767	-27.0453	-44.5419
 188	1	2	0.015931	-11.9283	-26.6105	-41.6305
 189	1	2	0.006127	-13.2057	-27.874	-43.456
 190	1	2	-0.02901	-12.3943	-27.9879	-42.147
 191	1	6	0.060706	-16.5435	-18.3375	-42.995
 192	1	6	0.109818	-19.1767	-24.3903	-41.8575
 193	1	6	0.034398	-16.3045	-21.0322	-46.2894
 194	1	6	0.029719	-19.3814	-23.2876	-44.8352
 195	1	6	0.036789	-18.768	-21.1137	-45.8394
 196	1	6	0.059436	-15.9038	-20.6718	-43.6295
 197	1	6	0.028349	-17.3959	-24.7248	-44.2395
 198	1	5	0.156131	-13.0957	-21.5219	-45.7195
 199	1	6	0.059364	-16.6523	-22.8127	-42.3624
 200	1	6	0.111824	-15.7539	-23.6302	-46.0215
 201	1	6	0.047288	-17.4338	-23.4314	-46.5867
 202	1	5	0.182101	-14.541	-25.3915	-42.8188
 203	1	6	0.044359	-8.16977	-26.4348	-48.1056
 204	1	5	0.179067	-9.51121	-26.8186	-45.3031
 205	1	6	0.038058	-9.14036	-23.6838	-49.2058
 206	1	5	0.140142	-10.8868	-22.2202	-46.9895
 207	1	6	0.008074	-5.40006	-26.1471	-46.3472
 208	1	6	-0.001887	-4.52794	-23.7103	-46.1787
 209	1	6	0.034873	-4.46952	-25.2429	-48.8146
 210	1	6	0.057592	-3.587	-24.362	-48.1253
 211	1	6	0.004826	-6.07025	-20.8842	-47.6813
 212	1	6	0.004917	-6.91317	-21.975	-49.7549
 213	1	6	0.011371	-10.8346	-24.8637	-42.3194
 214	1	6	0.016934	-10.1843	-26.3999	-42.8725
 215	1	6	0.017694	-11.6682	-27.6772	-44.9293
 216	1	6	0.024086	-13.1535	-26.8676	-45.3877
 217	1	6	0.001925	-12.7966	-26.0151	-41.3241
 218	1	6	-0.011831	-11.3086	-26.7456	-40.7349
 219	1	6	-0.015908	-13.4036	-28.8807	-43.8456
 220	1	6	0.008977	-14.1873	-27.4403	-43.2434
 221	1	6	0.008233	-12.999	-28.4872	-41.3795
 222	1	6	0.006802	-11.5164	-28.6226	-42.3208
 223	1	2	-0.163429	-17.5536	-18.4142	-43.4165
 224	1	6	0.069136	-17.461	-18.4581	-44.5087
 225	1	6	0.097616	-18.0933	-17.4935	-43.163
 226	1	2	-0.211261	-18.9734	-23.6185	-41.1049
 227	1	6	0.077702	-17.9994	-23.8371	-40.6502
 228	1	6	0.070844	-19.7359	-23.7088	-40.3214
 229	1	1	0.055893	-5.55315	-13.3149	-39.4162
 230	1	1	0.066037	-6.38839	-12.4054	-38.7877
 231	1	1	-0.13485	-7.54019	-12.7739	-38.0777
 232	1	1	-0.112685	-7.87136	-14.129	-38.2134
 233	1	1	-0.113466	-5.76985	-14.7099	-39.3326
 234	1	2	0.031197	-9.87822	-15.7144	-37.4308
 235	1	1	-0.092412	-7.02533	-15.0706	-38.7971
 236	1	3	0.085064	-7.4818	-16.192	-37.8524
 237	1	3	0.073163	-8.45962	-15.1176	-37.2347
 238	1	3	-0.014897	-10.0654	-15.6649	-38.9818
 239	1	2	0.044047	-8.4442	-17.3653	-38.2337
 240	1	1	-0.216606	-12.5411	-16.6237	-39.0875
 241	1	3	-0.029794	-9.14208	-16.8327	-39.5072
 242	1	2	-0.27828	-9.546	-17.2053	-37.1444
 243	1	1	0.002791	-10.4346	-17.536	-39.9199
 244	1	1	-0.015593	-11.2246	-16.4718	-39.5229
 245	1	1	-0.275006	-10.8858	-18.8668	-39.8062
 246	1	1	-0.00175	-12.2388	-19.0531	-39.4221
 247	1	4	0.011736	-13.0541	-17.9363	-39.1273
 248	1	2	0.056595	-12.9805	-20.3675	-39.0585
 249	1	3	-0.006078	-17.9889	-19.8825	-37.328
 250	1	4	0.009572	-14.3185	-18.4004	-38.5669
 251	1	1	0.047642	-14.2703	-19.8043	-38.4236
 252	1	1	-0.203391	-15.368	-20.5235	-37.8815
 253	1	1	-0.073691	-16.4667	-19.7418	-37.4735
 254	1	1	-0.02876	-16.5355	-18.3966	-37.7594
 255	1	3	0.009648	-18.0415	-18.3668	-37.7994
 256	1	1	-0.19087	-15.4957	-17.6609	-38.3246
 257	1	2	0.036362	-18.8659	-20.6022	-38.3837
 258	1	2	0.011094	-18.0674	-20.7681	-39.6871
 259	1	2	-0.166666	-19.849	-19.4706	-38.7666
 260	1	2	-0.004747	-17.9019	-19.2955	-40.2219
 261	1	2	0.045805	-18.7502	-18.4672	-39.1809
 262	1	2	-0.016724	-13.3533	-21.1694	-40.3385
 263	1	2	-0.038268	-12.2215	-21.2494	-38.0207
 264	1	2	0.015931	-12.1721	-21.9712	-40.9239
 265	1	2	0.006127	-11.1055	-22.148	-38.6101
 266	1	2	-0.02901	-11.5668	-22.9154	-39.8675
 267	1	6	0.060706	-7.80161	-12.0893	-36.0377
 268	1	6	0.109818	-3.92068	-15.3665	-40.2597
 269	1	6	0.034398	-10.6781	-15.2674	-36.8272
 270	1	6	0.029719	-6.70196	-16.5578	-37.1756
 271	1	6	0.036789	-8.29125	-14.8799	-36.1785
 272	1	6	0.059436	-9.96224	-14.675	-39.4392
 273	1	6	0.028349	-7.98702	-18.3594	-38.3153
 274	1	5	0.156131	-13.082	-15.8168	-38.6039
 275	1	6	0.059364	-8.45674	-16.6085	-40.3324
 276	1	6	0.111824	-10.4065	-17.8711	-37.2885
 277	1	6	0.047288	-9.15424	-17.3596	-36.1298
 278	1	5	0.182101	-10.1918	-19.6913	-39.9018
 279	1	6	0.044359	-18.3545	-20.0583	-36.3103
 280	1	5	0.179067	-15.3971	-21.6085	-37.8681
 281	1	6	0.038058	-18.5429	-17.679	-37.1093
 282	1	5	0.140142	-15.6081	-16.6259	-38.6313
 283	1	6	0.008074	-19.3469	-21.5255	-38.0372
 284	1	6	-0.001887	-17.1352	-21.3391	-39.6129
 285	1	6	0.034873	-20.4442	-19.1224	-37.9107
 286	1	6	0.057592	-20.5383	-19.7305	-39.5806
 287	1	6	0.004826	-16.8607	-18.9808	-40.3612
 288	1	6	0.004917	-19.1288	-17.5144	-39.5714
 289	1	6	0.011371	-13.7534	-20.4911	-41.1036
 290	1	6	0.016934	-14.1595	-21.8762	-40.1028
 291	1	6	0.017694	-12.9449	-21.9144	-37.5323
 292	1	6	0.024086	-11.8057	-20.6161	-37.2262
 293	1	6	0.001925	-11.4007	-21.2868	-41.2975
 294	1	6	-0.011831	-12.515	-22.5578	-41.7834
 295	1	6	-0.015908	-10.7791	-22.8663	-37.8474
 296	1	6	0.008977	-10.2229	-21.5479	-38.8516
 297	1	6	0.008233	-10.7217	-23.4579	-40.3027
 298	1	6	0.006802	-12.3145	-23.6669	-39.5823
 299	1	2	-0.163429	-8.19519	-11.8796	-37.0399
 300	1	6	0.069136	-8.01672	-10.8194	-37.259
 301	1	6	0.097616	-9.2807	-12.0367	-37.0166
 302	1	2	-0.211261	-4.65957	-15.7256	-39.5323
 303	1	6	0.077702	-4.13715	-15.9246	-38.5886
 304	1	6	0.070844	-5.05943	-16.6767	-39.9052
 305	1	1	0.055893	-1.05728	2.52457	-38.5495
 306	1	1	0.066037	-2.04543	2.28299	-37.6098
 307	1	1	-0.13485	-2.13766	1.08374	-36.8825
 308	1	1	-0.112685	-1.28821	0.0805383	-37.3734
 309	1	1	-0.113466	-0.0611195	1.57938	-38.8735
 310	1	2	0.031197	-1.02047	-2.57029	-36.9921
 311	1	1	-0.092412	-0.308848	0.301412	-38.3346
 312	1	3	0.085064	0.556996	-0.861544	-37.8512
 313	1	3	0.073163	-0.563682	-1.10264	-36.7589
 314	1	3	-0.014897	-1.79515	-2.46743	-38.3376
 315	1	2	0.044047	0.652706	-2.24007	-38.5832
 316	1	1	-0.216606	-2.5749	-5.02374	-38.6133
 317	1	3	-0.029794	-0.654292	-2.27735	-39.4207
 318	1	2	-0.27828	0.337223	-3.20673	-37.4052
 319	1	1	0.002791	-1.08738	-3.63661	-39.9594
 320	1	1	-0.015593	-2.09393	-3.77959	-39.0279
 321	1	1	-0.275006	-0.446904	-4.74133	-40.547
 322	1	1	-0.00175	-1.00335	-6.01014	-40.2474
 323	1	4	0.011736	-2.05537	-6.13747	-39.3123
 324	1	2	0.056595	-0.473775	-7.39457	-40.677
 325	1	3	-0.006078	-2.36458	-11.5092	-37.8919
 326	1	4	0.009572	-2.30154	-7.55969	-39.0723
 327	1	1	0.047642	-1.39831	-8.32649	-39.8533
 328	1	1	-0.203391	-1.33119	-9.73788	-39.7024
 329	1	1	-0.073691	-2.27203	-10.3029	-38.8265
 330	1	1	-0.02876	-3.12002	-9.53521	-38.0641
 331	1	3	0.009648	-3.35421	-10.6102	-37.0337
 332	1	1	-0.19087	-3.14886	-8.14313	-38.1024
 333	1	2	0.036362	-3.24653	-12.746	-38.2289
 334	1	2	0.011094	-4.331	-12.4035	-39.29
 335	1	2	-0.166666	-4.0871	-12.8186	-36.9314
 336	1	2	-0.004747	-5.27985	-11.4116	-38.5157
 337	1	2	0.045805	-4.67822	-11.398	-37.071
 338	1	2	-0.016724	-0.671183	-7.57773	-42.2068
 339	1	2	-0.038268	1.02652	-7.5271	-40.2716
 340	1	2	0.015931	0.0386132	-8.8255	-42.779
 341	1	2	0.006127	1.76485	-8.73839	-40.8891
 342	1	2	-0.02901	1.53788	-8.84846	-42.4122
 343	1	6	0.060706	-3.7649	1.6187	-35.5504
 344	1	6	0.109818	1.64535	1.11867	-40.1294
 345	1	6	0.034398	-1.55174	-3.05009	-36.1605
 346	1	6	0.029719	1.53905	-0.572098	-37.4614
 347	1	6	0.036789	-0.24739	-0.962705	-35.7194
 348	1	6	0.059436	-2.63761	-1.76709	-38.3409
 349	1	6	0.028349	1.58311	-2.43327	-39.1318
 350	1	5	0.156131	-3.2347	-5.13238	-37.759
 351	1	6	0.059364	-0.759988	-1.45246	-40.134
 352	1	6	0.111824	0.242214	-4.25481	-37.7199
 353	1	6	0.047288	1.08706	-3.14732	-36.6047
 354	1	5	0.182101	0.462125	-4.62928	-41.129
 355	1	6	0.044359	-1.43153	-11.8046	-37.3996
 356	1	5	0.179067	-0.570513	-10.3466	-40.1738
 357	1	6	0.038058	-3.04228	-10.3785	-36.0092
 358	1	5	0.140142	-3.716	-7.55271	-37.3903
 359	1	6	0.008074	-2.68302	-13.6604	-38.4519
 360	1	6	-0.001887	-3.95802	-12.0125	-40.2455
 361	1	6	0.034873	-3.46612	-12.934	-36.0318
 362	1	6	0.057592	-4.84326	-13.6134	-36.9259
 363	1	6	0.004826	-5.42381	-10.437	-38.9995
 364	1	6	0.004917	-5.39421	-11.1221	-36.2872
 365	1	6	0.011371	-0.275509	-6.69471	-42.7256
 366	1	6	0.016934	-1.74242	-7.62101	-42.4429
 367	1	6	0.017694	1.11605	-7.55873	-39.1779
 368	1	6	0.024086	1.56375	-6.62704	-40.5945
 369	1	6	0.001925	-0.0701331	-8.83807	-43.8709
 370	1	6	-0.011831	-0.446891	-9.73548	-42.4076
 371	1	6	-0.015908	1.44776	-9.66455	-40.4001
 372	1	6	0.008977	2.83995	-8.64618	-40.6891
 373	1	6	0.008233	2.04306	-8.01199	-42.9126
 374	1	6	0.006802	1.99857	-9.77018	-42.7896
 375	1	2	-0.163429	-2.89122	0.955297	-35.5713
 376	1	6	0.069136	-3.24759	-0.071322	-35.4209
 377	1	6	0.097616	-2.24677	1.2173	-34.7233
 378	1	2	-0.211261	1.25444	1.95155	-39.532
 379	1	6	0.077702	1.13254	2.81351	-40.1999
 380	1	6	0.070844	2.00795	2.21168	-38.7785
 381	1	1	0.055893	-11.8368	13.9391	-37.7275
 382	1	1	0.066037	-12.1969	12.9434	-36.8436
 383	1	1	-0.13485	-11.3304	12.3787	-35.8866
 384	1	1	-0.112685	-10.0404	12.9322	-35.9894
 385	1	1	-0.113466	-10.5528	14.507	-37.8193
 386	1	2	0.031197	-7.63676	11.7424	-35.5621
 387	1	1	-0.092412	-9.67633	13.906	-36.9005
 388	1	3	0.085064	-8.24537	13.995	-36.3984
 389	1	3	0.073163	-8.66673	12.8882	-35.3308
 390	1	3	-0.014897	-8.11827	11.1358	-36.9055
 391	1	2	0.044047	-7.04197	13.3473	-37.1517
 392	1	1	-0.216606	-6.26244	9.20166	-37.2214
 393	1	3	-0.029794	-7.7209	12.223	-37.9892
 394	1	2	-0.27828	-6.38333	12.566	-35.9788
 395	1	1	0.002791	-6.80479	11.1558	-38.5658
 396	1	1	-0.015593	-7.13963	10.2194	-37.612
 397	1	1	-0.275006	-5.58944	11.1355	-39.2643
 398	1	1	-0.00175	-4.76343	10.0141	-39.0179
 399	1	4	0.011736	-5.08663	9.08216	-38.0017
 400	1	2	0.056595	-3.37133	9.73272	-39.6136
 401	1	3	-0.006078	-0.419575	6.13681	-37.049
 402	1	4	0.009572	-3.94222	8.18351	-37.8134
 403	1	1	0.047642	-2.93309	8.53433	-38.7495
 404	1	1	-0.203391	-1.66299	7.90446	-38.7395
 405	1	1	-0.073691	-1.51689	6.89399	-37.7813
 406	1	1	-0.02876	-2.47531	6.60365	-36.8448
 407	1	3	0.009648	-1.53391	5.81591	-35.9571
 408	1	1	-0.19087	-3.71925	7.23341	-36.7844
 409	1	2	0.036362	0.010767	4.72111	-37.5199
 410	1	2	0.011094	-1.11316	4.03582	-38.3569
 411	1	2	-0.166666	-0.0921957	3.97527	-36.1687
 412	1	2	-0.004747	-2.23118	3.74976	-37.279
 413	1	2	0.045805	-1.59462	4.27305	-35.9565
 414	1	2	-0.016724	-3.50727	9.3247	-41.1108
 415	1	2	-0.038268	-2.40862	10.9454	-39.4098
 416	1	2	0.015931	-2.21709	9.57981	-41.9212
 417	1	2	0.006127	-2.29359	11.8469	-40.6602
 418	1	2	-0.02901	-1.79117	11.0697	-41.9025
 419	1	6	0.060706	-11.1382	11.4451	-33.9388
 420	1	6	0.109818	-9.76658	15.2676	-39.6872
 421	1	6	0.034398	-7.50224	11.0367	-34.7328
 422	1	6	0.029719	-7.96075	14.9623	-35.9703
 423	1	6	0.036789	-8.64147	13.2261	-34.2891
 424	1	6	0.059436	-9.14794	10.7625	-36.901
 425	1	6	0.028349	-6.38944	14.0356	-37.7034
 426	1	5	0.156131	-6.43446	8.59753	-36.3369
 427	1	6	0.059364	-8.49655	12.567	-38.6816
 428	1	6	0.111824	-5.54206	11.9376	-36.3015
 429	1	6	0.047288	-6.03639	13.2315	-35.1768
 430	1	5	0.182101	-5.28326	11.9596	-39.8986
 431	1	6	0.044359	0.435104	6.73128	-36.7077
 432	1	5	0.179067	-0.842098	8.22347	-39.3731
 433	1	6	0.038058	-1.35942	6.22097	-34.9542
 434	1	5	0.140142	-4.42627	7.06027	-35.9797
 435	1	6	0.008074	1.00236	4.6759	-37.9871
 436	1	6	-0.001887	-1.46461	4.5892	-39.2373
 437	1	6	0.034873	0.541718	4.42185	-35.3898
 438	1	6	0.057592	0.144795	2.90541	-36.2308
 439	1	6	0.004826	-3.22451	4.14187	-37.5324
 440	1	6	0.004917	-2.02319	3.83262	-35.0479
 441	1	6	0.011371	-4.31824	9.90032	-41.5763
 442	1	6	0.016934	-3.79788	8.26895	-41.1897
 443	1	6	0.017694	-1.40014	10.5871	-39.1688
 444	1	6	0.024086	-2.72912	11.5421	-38.5458
 445	1	6	0.001925	-2.35418	9.24932	-42.9586
 446	1	6	-0.011831	-1.40698	8.96814	-41.5064
 447	1	6	-0.015908	-1.62047	12.689	-40.4555
 448	1	6	0.008977	-3.27447	12.2822	-40.8841
 449	1	6	0.008233	-2.16647	11.5709	-42.804
 450	1	6	0.006802	-0.695981	11.1225	-41.9516
 451	1	2	-0.163429	-11.741	11.3498	-34.8504
 452	1	6	0.069136	-12.7948	11.4689	-34.5695
 453	1	6	0.097616	-11.6078	10.3325	-35.2385
 454	1	2	-0.211261	-10.1745	15.6492	-38.7432
 455	1	6	0.077702	-11.0454	16.2736	-38.9791
 456	1	6	0.070844	-9.41537	16.2939	-38.2831
 457	1	1	0.055893	-24.2499	19.2215	-28.7947
 458	1	1	0.066037	-24.1394	17.8945	-28.43
 459	1	1	-0.13485	-22.9248	17.2948	-28.0442
 460	1	1	-0.112685	-21.9006	18.2466	-27.8681
 461	1	1	-0.113466	-23.1932	20.1462	-28.7576
 462	1	2	0.031197	-19.3953	17.7828	-28.8756
 463	1	1	-0.092412	-22.0361	19.591	-28.1811
 464	1	3	0.085064	-20.539	19.8541	-28.1436
 465	1	3	0.073163	-20.3771	18.3143	-27.7812
 466	1	3	-0.014897	-20.274	17.7579	-30.1538
 467	1	2	0.044047	-19.6629	20.039	-29.418
 468	1	1	-0.216606	-18.4895	16.9098	-32.0297
 469	1	3	-0.029794	-20.4764	19.2884	-30.51
 470	1	2	-0.27828	-18.5105	19.0453	-29.092
 471	1	1	0.002791	-19.7402	18.9834	-31.7968
 472	1	1	-0.015593	-19.5435	17.6576	-31.4857
 473	1	1	-0.275006	-18.9389	19.6931	-32.6974
 474	1	1	-0.00175	-17.9718	18.9224	-33.3797
 475	1	4	0.011736	-17.7469	17.5637	-33.0482
 476	1	2	0.056595	-16.9612	19.4344	-34.4178
 477	1	3	-0.006078	-13.5417	15.8236	-36.3106
 478	1	4	0.009572	-16.5785	17.0957	-33.808
 479	1	1	0.047642	-16.1206	18.1592	-34.6345
 480	1	1	-0.203391	-15.0574	17.9663	-35.5495
 481	1	1	-0.073691	-14.43	16.7203	-35.4694
 482	1	1	-0.02876	-14.8485	15.7075	-34.6462
 483	1	3	0.009648	-14.0081	14.6525	-35.3431
 484	1	1	-0.19087	-15.9822	15.8071	-33.8336
 485	1	2	0.036362	-14.0707	15.3641	-37.698
 486	1	2	0.011094	-13.2498	14.1519	-38.2289
 487	1	2	-0.166666	-15.3731	14.6157	-37.3318
 488	1	2	-0.004747	-13.6666	12.9803	-37.234
 489	1	2	0.045805	-14.7121	13.6666	-36.3046
 490	1	2	-0.016724	-17.7234	19.8938	-35.6954
 491	1	2	-0.038268	-16.1101	20.5869	-33.8091
 492	1	2	0.015931	-16.8671	20.6883	-36.7101
 493	1	2	0.006127	-15.2382	21.3355	-34.8421
 494	1	2	-0.02901	-16.0741	21.8319	-36.0409
 495	1	6	0.060706	-22.6933	15.3452	-28.961
 496	1	6	0.109818	-24.0514	22.1264	-28.9402
 497	1	6	0.034398	-18.8631	16.8531	-28.6381
 498	1	6	0.029719	-20.2111	20.5335	-27.3492
 499	1	6	0.036789	-19.9673	18.136	-26.7811
 500	1	6	0.059436	-21.1651	17.1277	-30.0859
 501	1	6	0.028349	-19.3652	21.0678	-29.6559
 502	1	5	0.156131	-18.2217	15.9266	-31.657
 503	1	6	0.059364	-21.4939	19.65	-30.6723
 504	1	6	0.111824	-17.7937	18.9336	-29.9171
 505	1	6	0.047288	-17.9589	19.3283	-28.1853
 506	1	5	0.182101	-19.0237	20.7682	-32.8191
 507	1	6	0.044359	-12.4776	16.0828	-36.3039
 508	1	5	0.179067	-14.7439	18.7109	-36.2699
 509	1	6	0.038058	-13.2383	14.1867	-34.7192
 510	1	5	0.140142	-16.3865	14.9618	-33.2863
 511	1	6	0.008074	-14.1997	16.1682	-38.4332
 512	1	6	-0.001887	-13.4198	13.8929	-39.2822
 513	1	6	0.034873	-15.8118	14.0798	-38.1855
 514	1	6	0.057592	-16.1457	15.2646	-36.8992
 515	1	6	0.004826	-14.0293	12.0914	-37.7665
 516	1	6	0.004917	-15.405	12.9662	-35.8219
 517	1	6	0.011371	-18.5571	20.5407	-35.3928
 518	1	6	0.016934	-18.1751	19.026	-36.1934
 519	1	6	0.017694	-15.4748	20.1964	-33.0034
 520	1	6	0.024086	-16.7771	21.3235	-33.3444
 521	1	6	0.001925	-17.5212	21.1069	-37.4854
 522	1	6	-0.011831	-16.1772	20.0151	-37.2292
 523	1	6	-0.015908	-14.4314	20.6842	-35.1966
 524	1	6	0.008977	-14.753	22.1915	-34.3562
 525	1	6	0.008233	-16.7759	22.6018	-35.6948
 526	1	6	0.006802	-15.4169	22.3088	-36.779
 527	1	2	-0.163429	-22.714	15.7942	-27.9603
 528	1	6	0.069136	-21.7669	15.5529	-27.462
 529	1	6	0.097616	-23.5223	15.3162	-27.393
 530	1	2	-0.211261	-23.2538	21.5239	-29.3921
 531	1	6	0.077702	-22.3092	22.0662	-29.2611
 532	1	6	0.070844	-23.4542	21.4513	-30.4683
 533	1	1	0.055893	-40.2523	14.2922	-22.5221
 534	1	1	0.066037	-39.4589	13.3574	-21.876
 535	1	1	-0.13485	-38.082	13.2325	-22.1625
 536	1	1	-0.112685	-37.5522	14.2991	-22.9198
 537	1	1	-0.113466	-39.7643	15.2194	-23.4532
 538	1	2	0.031197	-35.1744	15.2038	-23.6667
 539	1	1	-0.092412	-38.3647	15.2535	-23.523
 540	1	3	0.085064	-37.409	15.4962	-24.6656
 541	1	3	0.073163	-36.4728	14.4094	-23.9959
 542	1	3	-0.014897	-34.6516	15.3469	-25.1305
 543	1	2	0.044047	-36.587	16.807	-24.6015
 544	1	1	-0.216606	-32.1618	16.5355	-25.3223
 545	1	3	-0.029794	-35.6265	16.446	-25.7565
 546	1	2	-0.27828	-35.7057	16.6269	-23.3326
 547	1	1	0.002791	-34.3929	17.3024	-25.9096
 548	1	1	-0.015593	-33.5462	16.3579	-25.4022
 549	1	1	-0.275006	-34.0037	18.5819	-26.3053
 550	1	1	-0.00175	-32.6095	18.8172	-26.2309
 551	1	4	0.011736	-31.7123	17.8055	-25.7816
 552	1	2	0.056595	-31.8505	20.0951	-26.6419
 553	1	3	-0.006078	-26.7451	19.5883	-27.3822
 554	1	4	0.009572	-30.3384	18.3134	-25.9147
 555	1	1	0.047642	-30.4029	19.6436	-26.3929
 556	1	1	-0.203391	-29.2383	20.3414	-26.7765
 557	1	1	-0.073691	-28.0257	19.6709	-26.5781
 558	1	1	-0.02876	-27.9606	18.3528	-26.1667
 559	1	3	0.009648	-26.6624	18.0795	-26.9187
 560	1	1	-0.19087	-29.1105	17.6043	-25.8733
 561	1	2	0.036362	-26.886	19.4822	-28.9212
 562	1	2	0.011094	-25.5466	19.0174	-29.551
 563	1	2	-0.166666	-27.6952	18.1769	-29.1032
 564	1	2	-0.004747	-25.4409	17.4963	-29.1052
 565	1	2	0.045805	-26.7394	17.2998	-28.261
 566	1	2	-0.016724	-32.0488	20.4409	-28.1501
 567	1	2	-0.038268	-32.1817	21.3066	-25.7252
 568	1	2	0.015931	-33.3727	21.1697	-28.4784
 569	1	2	0.006127	-33.5195	22.0046	-26.0605
 570	1	2	-0.02901	-33.6137	22.3828	-27.5543
 571	1	6	0.060706	-36.2333	12.1599	-21.7929
 572	1	6	0.109818	-40.2303	16.8764	-24.7725
 573	1	6	0.034398	-34.4904	14.7491	-22.9392
 574	1	6	0.029719	-37.8316	15.2827	-25.6548
 575	1	6	0.036789	-36.2841	13.4796	-24.545
 576	1	6	0.059436	-34.5457	14.3947	-25.6636
 577	1	6	0.028349	-37.1438	17.7479	-24.6947
 578	1	5	0.156131	-31.4879	15.7666	-24.9588
 579	1	6	0.059364	-36.1244	16.2052	-26.7035
 580	1	6	0.111824	-34.9044	17.3744	-23.2597
 581	1	6	0.047288	-36.2896	16.6542	-22.4033
 582	1	5	0.182101	-34.7233	19.3119	-26.6529
 583	1	6	0.044359	-25.9424	20.2578	-27.054
 584	1	5	0.179067	-29.2806	21.2913	-27.2993
 585	1	6	0.038058	-25.8049	17.7989	-26.2974
 586	1	5	0.140142	-29.0765	16.528	-25.7385
 587	1	6	0.008074	-27.3241	20.362	-29.4089
 588	1	6	-0.001887	-25.4754	19.1407	-30.6397
 589	1	6	0.034873	-27.7563	17.8555	-30.1528
 590	1	6	0.057592	-28.7156	18.2287	-28.7033
 591	1	6	0.004826	-25.3343	16.8171	-29.9612
 592	1	6	0.004917	-27.0519	16.2522	-28.1681
 593	1	6	0.011371	-31.9695	19.5288	-28.7559
 594	1	6	0.016934	-31.2346	21.0968	-28.4805
 595	1	6	0.017694	-31.3815	22.0522	-25.82
 596	1	6	0.024086	-32.1843	20.9897	-24.6741
 597	1	6	0.001925	-34.2155	20.4749	-28.4069
 598	1	6	-0.011831	-33.3488	21.5088	-29.5218
 599	1	6	-0.015908	-33.6195	22.9105	-25.4493
 600	1	6	0.008977	-34.3596	21.3559	-25.7884
 601	1	6	0.008233	-34.5981	22.8194	-27.7653
 602	1	6	0.006802	-32.8679	23.1572	-27.7763
 603	1	2	-0.163429	-37.3053	11.9542	-21.9044
 604	1	6	0.069136	-37.6479	11.463	-20.9851
 605	1	6	0.097616	-37.4304	11.2465	-22.733
 606	1	2	-0.211261	-40.6529	15.9095	-24.4724
 607	1	6	0.077702	-40.766	15.2937	-25.3732
 608	1	6	0.070844	-41.6535	16.0961	-24.0627
 609	1	1	0.055893	-50.2878	9.06661	-8.96028
 610	1	1	0.066037	-49.0655	8.55586	-8.57769
 611	1	1	-0.13485	-47.9832	8.34843	-9.45601
 612	1	1	-0.112685	-48.2708	8.84012	-10.7442
 613	1	1	-0.113466	-50.6165	9.45105	-10.2711
 614	1	2	0.031197	-46.7503	9.8785	-12.6265
 615	1	1	-0.092412	-49.5021	9.34674	-11.1193
 616	1	3	0.085064	-49.1709	9.35461	-12.594
 617	1	3	0.073163	-47.7473	8.77277	-12.1719