

################################################################################
##################################    Init    ##################################
################################################################################
units           real
atom_style      full
pair_style      lj/cut/coul/long 12.0  12.0
kspace_style    pppm 1e-4
bond_style      harmonic
angle_style     harmonic
dihedral_style  fourier
improper_style  cvff
special_bonds   amber
pair_modify     mix arithmetic
read_data       temp.lmps
  orthogonal box = (-95.2802 -95.2802 -95.2802) to (95.2802 95.2802 95.2802)
  1 by 1 by 1 MPI processor grid
  reading atoms ...
  644 atoms
  reading velocities ...
  644 velocities
  scanning bonds ...
  4 = max bonds/atom
  scanning angles ...
  6 = max angles/atom
  scanning dihedrals ...
  24 = max dihedrals/atom
  scanning impropers ...
  1 = max impropers/atom
  reading bonds ...
  742 bonds
  reading angles ...
  1560 angles
  reading dihedrals ...
  2868 dihedrals
  reading impropers ...
  40 impropers
  4 = max # of 1-2 neighbors
  9 = max # of 1-3 neighbors
  23 = max # of 1-4 neighbors
  23 = max # of special neighbors
  special bonds CPU = 0.000702858 secs
  read_data CPU = 0.010993 secs
################################################################################

min_style cg
minimize 1e-06 1e-06 1000000 10000000
WARNING: Using 'neigh_modify every 1 delay 0 check yes' setting during minimization (../min.cpp:190)
PPPM initialization ...
  using 12-bit tables for long-range coulomb (../kspace.cpp:332)
  G vector (1/distance) = 0.141731
  grid = 30 30 30
  stencil order = 5
  estimated absolute RMS force accuracy = 0.00181966
  estimated relative force accuracy = 5.47985e-06
  using double precision KISS FFT
  3d grid and FFT values/proc = 42875 27000
Neighbor list info ...
  update every 1 steps, delay 0 steps, check yes
  max neighbors/atom: 2000, page size: 100000
  master list distance cutoff = 14
  ghost atom cutoff = 14
  binsize = 7, bins = 28 28 28
  1 neighbor lists, perpetual/occasional/extra = 1 0 0
  (1) pair lj/cut/coul/long, perpetual
      attributes: half, newton on
      pair build: half/bin/newton
      stencil: half/bin/3d/newton
      bin: standard
Per MPI rank memory allocation (min/avg/max) = 22.87 | 22.87 | 22.87 Mbytes
Step Temp E_pair E_mol TotEng Press 
       0    420.80579     176.3457    4764.7271    5747.6148  -0.29071484 
     476    420.80579    131.92659    4289.3579    5227.8265    5.2340917 
Loop time of 7.58832 on 1 procs for 476 steps with 644 atoms

99.7% CPU use with 1 MPI tasks x no OpenMP threads

Minimization stats:
  Stopping criterion = energy tolerance
  Energy initial, next-to-last, final = 
         4941.07277917      4421.28632429      4421.28454243
  Force two-norm initial, final = 858.532 9.14095
  Force max component initial, final = 287.557 1.32695
  Final line search alpha, max atom move = 0.0090686 0.0120336
  Iterations, force evaluations = 476 950

MPI task timing breakdown:
Section |  min time  |  avg time  |  max time  |%varavg| %total
---------------------------------------------------------------
Pair    | 2.1464     | 2.1464     | 2.1464     |   0.0 | 28.29
Bond    | 0.34799    | 0.34799    | 0.34799    |   0.0 |  4.59
Kspace  | 5.0305     | 5.0305     | 5.0305     |   0.0 | 66.29
Neigh   | 0.040459   | 0.040459   | 0.040459   |   0.0 |  0.53
Comm    | 0.0011015  | 0.0011015  | 0.0011015  |   0.0 |  0.01
Output  | 0          | 0          | 0          |   0.0 |  0.00
Modify  | 0          | 0          | 0          |   0.0 |  0.00
Other   |            | 0.02188    |            |       |  0.29

Nlocal:    644 ave 644 max 644 min
Histogram: 1 0 0 0 0 0 0 0 0 0
Nghost:    0 ave 0 max 0 min
Histogram: 1 0 0 0 0 0 0 0 0 0
Neighs:    65257 ave 65257 max 65257 min
Histogram: 1 0 0 0 0 0 0 0 0 0

Total # of neighbors = 65257
Ave neighs/atom = 101.331
Ave special neighs/atom = 13.6708
Neighbor list builds = 22
Dangerous builds = 0
write_dump all custom pysimm.dump.tmp id q x y z vx vy vz
quit


################################################################################
##################################    Init    ##################################
################################################################################
units           real
atom_style      full
pair_style      lj/cut/coul/long 12.0  12.0
kspace_style    pppm 1e-4
bond_style      harmonic
angle_style     harmonic
dihedral_style  fourier
improper_style  cvff
special_bonds   amber
pair_modify     mix arithmetic
read_data       temp.lmps
  orthogonal box = (-95.2802 -95.2802 -95.2802) to (95.2802 95.2802 95.2802)
  1 by 1 by 1 MPI processor grid
  reading atoms ...
  644 atoms
  reading velocities ...
  644 velocities
  scanning bonds ...
  4 = max bonds/atom
  scanning angles ...
  6 = max angles/atom
  scanning dihedrals ...
  24 = max dihedrals/atom
  scanning impropers ...
  1 = max impropers/atom
  reading bonds ...
  742 bonds
  reading angles ...
  1560 angles
  reading dihedrals ...
  2868 dihedrals
  reading impropers ...
  40 impropers
  4 = max # of 1-2 neighbors
  9 = max # of 1-3 neighbors
  23 = max # of 1-4 neighbors
  23 = max # of special neighbors
  special bonds CPU = 0.000663042 secs
  read_data CPU = 0.00949788 secs
################################################################################

min_style cg
minimize 1e-06 1e-06 1000000 10000000
WARNING: Using 'neigh_modify every 1 delay 0 check yes' setting during minimization (../min.cpp:190)
PPPM initialization ...
  using 12-bit tables for long-range coulomb (../kspace.cpp:332)
  G vector (1/distance) = 0.141731
  grid = 30 30 30
  stencil order = 5
  estimated absolute RMS force accuracy = 0.00181966
  estimated relative force accuracy = 5.47985e-06
  using double precision KISS FFT
  3d grid and FFT values/proc = 42875 27000
Neighbor list info ...
  update every 1 steps, delay 0 steps, check yes
  max neighbors/atom: 2000, page size: 100000
  master list distance cutoff = 14
  ghost atom cutoff = 14
  binsize = 7, bins = 28 28 28
  1 neighbor lists, perpetual/occasional/extra = 1 0 0
  (1) pair lj/cut/coul/long, perpetual
      attributes: half, newton on
      pair build: half/bin/newton
      stencil: half/bin/3d/newton
      bin: standard
Per MPI rank memory allocation (min/avg/max) = 22.87 | 22.87 | 22.87 Mbytes
Step Temp E_pair E_mol TotEng Press 
       0    402.53874    183.04871    4686.4738    5641.0528  -0.23944688 
     390    402.53874    158.23349    4286.8259    5216.5896    4.8097305 
Loop time of 6.27369 on 1 procs for 390 steps with 644 atoms

100.0% CPU use with 1 MPI tasks x no OpenMP threads

Minimization stats:
  Stopping criterion = linesearch alpha is zero
  Energy initial, next-to-last, final = 
         4869.52251931      4445.05935795      4445.05935795
  Force two-norm initial, final = 855.162 10.246
  Force max component initial, final = 302.335 1.49212
  Final line search alpha, max atom move = 8.24325e-11 1.22999e-10
  Iterations, force evaluations = 390 829

MPI task timing breakdown:
Section |  min time  |  avg time  |  max time  |%varavg| %total
---------------------------------------------------------------
Pair    | 1.3273     | 1.3273     | 1.3273     |   0.0 | 21.16
Bond    | 0.31952    | 0.31952    | 0.31952    |   0.0 |  5.09
Kspace  | 4.6016     | 4.6016     | 4.6016     |   0.0 | 73.35
Neigh   | 0.012448   | 0.012448   | 0.012448   |   0.0 |  0.20
Comm    | 0.00044203 | 0.00044203 | 0.00044203 |   0.0 |  0.01
Output  | 0          | 0          | 0          |   0.0 |  0.00
Modify  | 0          | 0          | 0          |   0.0 |  0.00
Other   |            | 0.01241    |            |       |  0.20

Nlocal:    644 ave 644 max 644 min
Histogram: 1 0 0 0 0 0 0 0 0 0
Nghost:    0 ave 0 max 0 min
Histogram: 1 0 0 0 0 0 0 0 0 0
Neighs:    48593 ave 48593 max 48593 min
Histogram: 1 0 0 0 0 0 0 0 0 0

Total # of neighbors = 48593
Ave neighs/atom = 75.455
Ave special neighs/atom = 13.6708
Neighbor list builds = 9
Dangerous builds = 0
write_dump all custom pysimm.dump.tmp id q x y z vx vy vz
quit


################################################################################
##################################    Init    ##################################
################################################################################
units           real
atom_style      full
pair_style      lj/cut/coul/long 12.0  12.0
kspace_style    pppm 1e-4
bond_style      harmonic
angle_style     harmonic
dihedral_style  fourier
improper_style  cvff
special_bonds   amber
pair_modify     mix arithmetic
read_data       temp.lmps
  orthogonal box = (-95.2802 -95.2802 -95.2802) to (95.2802 95.2802 95.2802)
  1 by 1 by 1 MPI processor grid
  reading atoms ...
  644 atoms
  reading velocities ...
  644 velocities
  scanning bonds ...
  4 = max bonds/atom
  scanning angles ...
  6 = max angles/atom
  scanning dihedrals ...
  24 = max dihedrals/atom
  scanning impropers ...
  1 = max impropers/atom
  reading bonds ...
  742 bonds
  reading angles ...
  1560 angles
  reading dihedrals ...
  2868 dihedrals
  reading impropers ...
  40 impropers
  4 = max # of 1-2 neighbors
  9 = max # of 1-3 neighbors
  23 = max # of 1-4 neighbors
  23 = max # of special neighbors
  special bonds CPU = 0.000710011 secs
  read_data CPU = 0.0105748 secs
################################################################################

min_style cg
minimize 1e-06 1e-06 1000000 10000000
WARNING: Using 'neigh_modify every 1 delay 0 check yes' setting during minimization (../min.cpp:190)
PPPM initialization ...
  using 12-bit tables for long-range coulomb (../kspace.cpp:332)
  G vector (1/distance) = 0.141731
  grid = 30 30 30
  stencil order = 5
  estimated absolute RMS force accuracy = 0.00181966
  estimated relative force accuracy = 5.47985e-06
  using double precision KISS FFT
  3d grid and FFT values/proc = 42875 27000
Neighbor list info ...
  update every 1 steps, delay 0 steps, check yes
  max neighbors/atom: 2000, page size: 100000
  master list distance cutoff = 14
  ghost atom cutoff = 14
  binsize = 7, bins = 28 28 28
  1 neighbor lists, perpetual/occasional/extra = 1 0 0
  (1) pair lj/cut/coul/long, perpetual
      attributes: half, newton on
      pair build: half/bin/newton
      stencil: half/bin/3d/newton
      bin: standard
Per MPI rank memory allocation (min/avg/max) = 22.87 | 22.87 | 22.87 Mbytes
Step Temp E_pair E_mol TotEng Press 
       0    388.88636    167.35283    4667.7142    5580.4303   -1.2283332 
     335    388.88636    146.42105     4280.017    5171.8013    4.7185211 
Loop time of 5.37009 on 1 procs for 335 steps with 644 atoms

99.7% CPU use with 1 MPI tasks x no OpenMP threads

Minimization stats:
  Stopping criterion = linesearch alpha is zero
  Energy initial, next-to-last, final = 
         4835.06702873      4426.43805742      4426.43805742
  Force two-norm initial, final = 854.289 9.51489
  Force max component initial, final = 296.636 1.00074
  Final line search alpha, max atom move = 8.8581e-11 8.86466e-11
  Iterations, force evaluations = 335 719

MPI task timing breakdown:
Section |  min time  |  avg time  |  max time  |%varavg| %total
---------------------------------------------------------------
Pair    | 1.3347     | 1.3347     | 1.3347     |   0.0 | 24.85
Bond    | 0.26146    | 0.26146    | 0.26146    |   0.0 |  4.87
Kspace  | 3.7454     | 3.7454     | 3.7454     |   0.0 | 69.75
Neigh   | 0.012639   | 0.012639   | 0.012639   |   0.0 |  0.24
Comm    | 0.00052476 | 0.00052476 | 0.00052476 |   0.0 |  0.01
Output  | 0          | 0          | 0          |   0.0 |  0.00
Modify  | 0          | 0          | 0          |   0.0 |  0.00
Other   |            | 0.0153     |            |       |  0.28

Nlocal:    644 ave 644 max 644 min
Histogram: 1 0 0 0 0 0 0 0 0 0
Nghost:    0 ave 0 max 0 min
Histogram: 1 0 0 0 0 0 0 0 0 0
Neighs:    53037 ave 53037 max 53037 min
Histogram: 1 0 0 0 0 0 0 0 0 0

Total # of neighbors = 53037
Ave neighs/atom = 82.3556
Ave special neighs/atom = 13.6708
Neighbor list builds = 8
Dangerous builds = 0
write_dump all custom pysimm.dump.tmp id q x y z vx vy vz
quit


################################################################################
##################################    Init    ##################################
################################################################################
units           real
atom_style      full
pair_style      lj/cut/coul/long 12.0  12.0
kspace_style    pppm 1e-4
bond_style      harmonic
angle_style     harmonic
dihedral_style  fourier
improper_style  cvff
special_bonds   amber
pair_modify     mix arithmetic
read_data       temp.lmps
  orthogonal box = (-120.046 -120.046 -120.046) to (120.046 120.046 120.046)
  1 by 1 by 1 MPI processor grid
  reading atoms ...
  710 atoms
  reading velocities ...
  710 velocities
  scanning bonds ...
  4 = max bonds/atom
  scanning angles ...
  6 = max angles/atom
  scanning dihedrals ...
  24 = max dihedrals/atom
  scanning impropers ...
  1 = max impropers/atom
  reading bonds ...
  817 bonds
  reading angles ...
  1716 angles
  reading dihedrals ...
  3150 dihedrals
  reading impropers ...
  44 impropers
  4 = max # of 1-2 neighbors
  9 = max # of 1-3 neighbors
  23 = max # of 1-4 neighbors
  23 = max # of special neighbors
  special bonds CPU = 0.000675201 secs
  read_data CPU = 0.0105782 secs
################################################################################

min_style cg
minimize 1e-06 1e-06 1000000 10000000
WARNING: Using 'neigh_modify every 1 delay 0 check yes' setting during minimization (../min.cpp:190)
PPPM initialization ...
WARNING: System is not charge neutral, net charge = 1.1e-05 (../kspace.cpp:313)
  using 12-bit tables for long-range coulomb (../kspace.cpp:332)
  G vector (1/distance) = 0.146217
  grid = 40 40 40
  stencil order = 5
  estimated absolute RMS force accuracy = 0.00111565
  estimated relative force accuracy = 3.35974e-06
  using double precision KISS FFT
  3d grid and FFT values/proc = 91125 64000
Neighbor list info ...
  update every 1 steps, delay 0 steps, check yes
  max neighbors/atom: 2000, page size: 100000
  master list distance cutoff = 14
  ghost atom cutoff = 14
  binsize = 7, bins = 35 35 35
  1 neighbor lists, perpetual/occasional/extra = 1 0 0
  (1) pair lj/cut/coul/long, perpetual
      attributes: half, newton on
      pair build: half/bin/newton
      stencil: half/bin/3d/newton
      bin: standard
Per MPI rank memory allocation (min/avg/max) = 27.95 | 27.95 | 27.95 Mbytes
Step Temp E_pair E_mol TotEng Press 
       0    1001.4487    199.15414    5314.3368     7629.947    2.3419666 
     806    1001.4487    157.40688    4658.6528    6932.5157     6.942669 
Loop time of 27.2419 on 1 procs for 806 steps with 710 atoms

99.7% CPU use with 1 MPI tasks x no OpenMP threads

Minimization stats:
  Stopping criterion = linesearch alpha is zero
  Energy initial, next-to-last, final = 
          5513.4909481      4816.05970559      4816.05970559
  Force two-norm initial, final = 1045.43 7.89854
  Force max component initial, final = 297.986 1.20203
  Final line search alpha, max atom move = 1.23982e-10 1.49031e-10
  Iterations, force evaluations = 806 1661

MPI task timing breakdown:
Section |  min time  |  avg time  |  max time  |%varavg| %total
---------------------------------------------------------------
Pair    | 3.6865     | 3.6865     | 3.6865     |   0.0 | 13.53
Bond    | 0.66203    | 0.66203    | 0.66203    |   0.0 |  2.43
Kspace  | 22.806     | 22.806     | 22.806     |   0.0 | 83.72
Neigh   | 0.042765   | 0.042765   | 0.042765   |   0.0 |  0.16
Comm    | 0.0018106  | 0.0018106  | 0.0018106  |   0.0 |  0.01
Output  | 0          | 0          | 0          |   0.0 |  0.00
Modify  | 0          | 0          | 0          |   0.0 |  0.00
Other   |            | 0.04255    |            |       |  0.16

Nlocal:    710 ave 710 max 710 min
Histogram: 1 0 0 0 0 0 0 0 0 0
Nghost:    0 ave 0 max 0 min
Histogram: 1 0 0 0 0 0 0 0 0 0
Neighs:    60387 ave 60387 max 60387 min
Histogram: 1 0 0 0 0 0 0 0 0 0

Total # of neighbors = 60387
Ave neighs/atom = 85.0521
Ave special neighs/atom = 13.6592
Neighbor list builds = 23
Dangerous builds = 0
write_dump all custom pysimm.dump.tmp id q x y z vx vy vz
quit


################################################################################
##################################    Init    ##################################
################################################################################
units           real
atom_style      full
pair_style      lj/cut/coul/long 12.0  12.0
kspace_style    pppm 1e-4
bond_style      harmonic
angle_style     harmonic
dihedral_style  fourier
improper_style  cvff
special_bonds   amber
pair_modify     mix arithmetic
read_data       temp.lmps
  orthogonal box = (-123.921 -123.921 -123.921) to (123.921 123.921 123.921)
  1 by 1 by 1 MPI processor grid
  reading atoms ...
  776 atoms
  reading velocities ...
  776 velocities
  scanning bonds ...
  4 = max bonds/atom
  scanning angles ...
  6 = max angles/atom
  scanning dihedrals ...
  24 = max dihedrals/atom
  scanning impropers ...
  1 = max impropers/atom
  reading bonds ...
  892 bonds
  reading angles ...
  1872 angles
  reading dihedrals ...
  3432 dihedrals
  reading impropers ...
  48 impropers
  4 = max # of 1-2 neighbors
  9 = max # of 1-3 neighbors
  23 = max # of 1-4 neighbors
  23 = max # of special neighbors
  special bonds CPU = 0.000852108 secs
  read_data CPU = 0.0114598 secs
################################################################################

min_style cg
minimize 1e-06 1e-06 1000000 10000000
WARNING: Using 'neigh_modify every 1 delay 0 check yes' setting during minimization (../min.cpp:190)
PPPM initialization ...
WARNING: System is not charge neutral, net charge = 1.2e-05 (../kspace.cpp:313)
  using 12-bit tables for long-range coulomb (../kspace.cpp:332)
  G vector (1/distance) = 0.143686
  grid = 40 40 40
  stencil order = 5
  estimated absolute RMS force accuracy = 0.00123507
  estimated relative force accuracy = 3.71937e-06
  using double precision KISS FFT
  3d grid and FFT values/proc = 91125 64000
Neighbor list info ...
  update every 1 steps, delay 0 steps, check yes
  max neighbors/atom: 2000, page size: 100000
  master list distance cutoff = 14
  ghost atom cutoff = 14
  binsize = 7, bins = 36 36 36
  1 neighbor lists, perpetual/occasional/extra = 1 0 0
  (1) pair lj/cut/coul/long, perpetual
      attributes: half, newton on
      pair build: half/bin/newton
      stencil: half/bin/3d/newton
      bin: standard
Per MPI rank memory allocation (min/avg/max) = 27.98 | 27.98 | 27.98 Mbytes
Step Temp E_pair E_mol TotEng Press 
       0    916.08674    1059.7821    6080.5881    9256.6477    15.134527 
     484    916.08674    179.14722     5090.905    7386.3297    6.5965837 
Loop time of 17.4582 on 1 procs for 484 steps with 776 atoms

99.7% CPU use with 1 MPI tasks x no OpenMP threads

Minimization stats:
  Stopping criterion = linesearch alpha is zero
  Energy initial, next-to-last, final = 
         7140.37026277      5270.05224662      5270.05224662
  Force two-norm initial, final = 11832.6 10.9547
  Force max component initial, final = 7202.16 1.36952
  Final line search alpha, max atom move = 7.51302e-11 1.02892e-10
  Iterations, force evaluations = 484 1013

MPI task timing breakdown:
Section |  min time  |  avg time  |  max time  |%varavg| %total
---------------------------------------------------------------
Pair    | 2.8296     | 2.8296     | 2.8296     |   0.0 | 16.21
Bond    | 0.44221    | 0.44221    | 0.44221    |   0.0 |  2.53
Kspace  | 14.102     | 14.102     | 14.102     |   0.0 | 80.77
Neigh   | 0.055407   | 0.055407   | 0.055407   |   0.0 |  0.32
Comm    | 0.0014219  | 0.0014219  | 0.0014219  |   0.0 |  0.01
Output  | 0          | 0          | 0          |   0.0 |  0.00
Modify  | 0          | 0          | 0          |   0.0 |  0.00
Other   |            | 0.02767    |            |       |  0.16

Nlocal:    776 ave 776 max 776 min
Histogram: 1 0 0 0 0 0 0 0 0 0
Nghost:    0 ave 0 max 0 min
Histogram: 1 0 0 0 0 0 0 0 0 0
Neighs:    86153 ave 86153 max 86153 min
Histogram: 1 0 0 0 0 0 0 0 0 0

Total # of neighbors = 86153
Ave neighs/atom = 111.022
Ave special neighs/atom = 13.6495
Neighbor list builds = 23
Dangerous builds = 0
write_dump all custom pysimm.dump.tmp id q x y z vx vy vz
quit


################################################################################
##################################    Init    ##################################
################################################################################
units           real
atom_style      full
pair_style      lj/cut/coul/long 12.0  12.0
kspace_style    pppm 1e-4
bond_style      harmonic
angle_style     harmonic
dihedral_style  fourier
improper_style  cvff
special_bonds   amber
pair_modify     mix arithmetic
read_data       temp.lmps
  orthogonal box = (-127.567 -127.567 -127.567) to (127.567 127.567 127.567)
  1 by 1 by 1 MPI processor grid
  reading atoms ...
  842 atoms
  reading velocities ...
  842 velocities
  scanning bonds ...
  4 = max bonds/atom
  scanning angles ...
  6 = max angles/atom
  scanning dihedrals ...
  24 = max dihedrals/atom
  scanning impropers ...
  1 = max impropers/atom
  reading bonds ...
  967 bonds
  reading angles ...
  2028 angles
  reading dihedrals ...
  3714 dihedrals
  reading impropers ...
  52 impropers
  4 = max # of 1-2 neighbors
  9 = max # of 1-3 neighbors
  23 = max # of 1-4 neighbors
  23 = max # of special neighbors
  special bonds CPU = 0.00125217 secs
  read_data CPU = 0.0202899 secs
################################################################################

min_style cg
minimize 1e-06 1e-06 1000000 10000000
WARNING: Using 'neigh_modify every 1 delay 0 check yes' setting during minimization (../min.cpp:190)
PPPM initialization ...
WARNING: System is not charge neutral, net charge = 1.3e-05 (../kspace.cpp:313)
  using 12-bit tables for long-range coulomb (../kspace.cpp:332)
  G vector (1/distance) = 0.141409
  grid = 40 40 40
  stencil order = 5
  estimated absolute RMS force accuracy = 0.00135374
  estimated relative force accuracy = 4.07676e-06
  using double precision KISS FFT
  3d grid and FFT values/proc = 91125 64000
Neighbor list info ...
  update every 1 steps, delay 0 steps, check yes
  max neighbors/atom: 2000, page size: 100000
  master list distance cutoff = 14
  ghost atom cutoff = 14
  binsize = 7, bins = 37 37 37
  1 neighbor lists, perpetual/occasional/extra = 1 0 0
  (1) pair lj/cut/coul/long, perpetual
      attributes: half, newton on
      pair build: half/bin/newton
      stencil: half/bin/3d/newton
      bin: standard
Per MPI rank memory allocation (min/avg/max) = 28.01 | 28.01 | 28.01 Mbytes
Step Temp E_pair E_mol TotEng Press 
       0    873.48592    1446.2476    6351.8612    9987.8169    19.158685 
     631    873.48592    195.19889    5402.7222    7787.6291    5.9837837 
Loop time of 21.6093 on 1 procs for 631 steps with 842 atoms

99.7% CPU use with 1 MPI tasks x no OpenMP threads

Minimization stats:
  Stopping criterion = linesearch alpha is zero
  Energy initial, next-to-last, final = 
         7798.10884078      5597.92107397      5597.92107397
  Force two-norm initial, final = 17964 9.86213
  Force max component initial, final = 9281.86 1.59281
  Final line search alpha, max atom move = 1.06248e-10 1.69233e-10
  Iterations, force evaluations = 631 1308

MPI task timing breakdown:
Section |  min time  |  avg time  |  max time  |%varavg| %total
---------------------------------------------------------------
Pair    | 3.2612     | 3.2612     | 3.2612     |   0.0 | 15.09
Bond    | 0.59579    | 0.59579    | 0.59579    |   0.0 |  2.76
Kspace  | 17.675     | 17.675     | 17.675     |   0.0 | 81.79
Neigh   | 0.039314   | 0.039314   | 0.039314   |   0.0 |  0.18
Comm    | 0.0014031  | 0.0014031  | 0.0014031  |   0.0 |  0.01
Output  | 0          | 0          | 0          |   0.0 |  0.00
Modify  | 0          | 0          | 0          |   0.0 |  0.00
Other   |            | 0.03679    |            |       |  0.17

Nlocal:    842 ave 842 max 842 min
Histogram: 1 0 0 0 0 0 0 0 0 0
Nghost:    0 ave 0 max 0 min
Histogram: 1 0 0 0 0 0 0 0 0 0
Neighs:    73832 ave 73832 max 73832 min
Histogram: 1 0 0 0 0 0 0 0 0 0

Total # of neighbors = 73832
Ave neighs/atom = 87.6865
Ave special neighs/atom = 13.6413
Neighbor list builds = 18
Dangerous builds = 0
write_dump all custom pysimm.dump.tmp id q x y z vx vy vz
quit


################################################################################
##################################    Init    ##################################
################################################################################
units           real
atom_style      full
pair_style      lj/cut/coul/long 12.0  12.0
kspace_style    pppm 1e-4
bond_style      harmonic
angle_style     harmonic
dihedral_style  fourier
improper_style  cvff
special_bonds   amber
pair_modify     mix arithmetic
read_data       temp.lmps
  orthogonal box = (-131.017 -131.017 -131.017) to (131.017 131.017 131.017)
  1 by 1 by 1 MPI processor grid
  reading atoms ...
  908 atoms
  reading velocities ...
  908 velocities
  scanning bonds ...
  4 = max bonds/atom
  scanning angles ...
  6 = max angles/atom
  scanning dihedrals ...
  24 = max dihedrals/atom
  scanning impropers ...
  1 = max impropers/atom
  reading bonds ...
  1042 bonds
  reading angles ...
  2184 angles
  reading dihedrals ...
  3996 dihedrals
  reading impropers ...
  56 impropers
  4 = max # of 1-2 neighbors
  9 = max # of 1-3 neighbors
  23 = max # of 1-4 neighbors
  23 = max # of special neighbors
  special bonds CPU = 0.000945091 secs
  read_data CPU = 0.013546 secs
################################################################################

min_style cg
minimize 1e-06 1e-06 1000000 10000000
WARNING: Using 'neigh_modify every 1 delay 0 check yes' setting during minimization (../min.cpp:190)
PPPM initialization ...
WARNING: System is not charge neutral, net charge = 1.4e-05 (../kspace.cpp:313)
  using 12-bit tables for long-range coulomb (../kspace.cpp:332)
  G vector (1/distance) = 0.148651
  grid = 45 45 45
  stencil order = 5
  estimated absolute RMS force accuracy = 0.000992767
  estimated relative force accuracy = 2.98969e-06
  using double precision KISS FFT
  3d grid and FFT values/proc = 125000 91125
Neighbor list info ...
  update every 1 steps, delay 0 steps, check yes
  max neighbors/atom: 2000, page size: 100000
  master list distance cutoff = 14
  ghost atom cutoff = 14
  binsize = 7, bins = 38 38 38
  1 neighbor lists, perpetual/occasional/extra = 1 0 0
  (1) pair lj/cut/coul/long, perpetual
      attributes: half, newton on
      pair build: half/bin/newton
      stencil: half/bin/3d/newton
      bin: standard
Per MPI rank memory allocation (min/avg/max) = 31.63 | 31.63 | 31.63 Mbytes
Step Temp E_pair E_mol TotEng Press 
       0    826.13483    2960.1874    6871.7154    12065.437    39.389851 
     919    826.13483    197.83584    5749.4236    8180.7932    5.6492562 
Loop time of 43.4069 on 1 procs for 919 steps with 908 atoms

99.7% CPU use with 1 MPI tasks x no OpenMP threads

Minimization stats:
  Stopping criterion = linesearch alpha is zero
  Energy initial, next-to-last, final = 
         9831.90274923      5947.25943476      5947.25943476
  Force two-norm initial, final = 36112.2 11.7622
  Force max component initial, final = 18015.4 1.96444
  Final line search alpha, max atom move = 4.83207e-11 9.49228e-11
  Iterations, force evaluations = 919 1887

MPI task timing breakdown:
Section |  min time  |  avg time  |  max time  |%varavg| %total
---------------------------------------------------------------
Pair    | 5.3652     | 5.3652     | 5.3652     |   0.0 | 12.36
Bond    | 0.95617    | 0.95617    | 0.95617    |   0.0 |  2.20
Kspace  | 36.967     | 36.967     | 36.967     |   0.0 | 85.16
Neigh   | 0.057727   | 0.057727   | 0.057727   |   0.0 |  0.13
Comm    | 0.0020769  | 0.0020769  | 0.0020769  |   0.0 |  0.00
Output  | 0          | 0          | 0          |   0.0 |  0.00
Modify  | 0          | 0          | 0          |   0.0 |  0.00
Other   |            | 0.05888    |            |       |  0.14

Nlocal:    908 ave 908 max 908 min
Histogram: 1 0 0 0 0 0 0 0 0 0
Nghost:    0 ave 0 max 0 min
Histogram: 1 0 0 0 0 0 0 0 0 0
Neighs:    86767 ave 86767 max 86767 min
Histogram: 1 0 0 0 0 0 0 0 0 0

Total # of neighbors = 86767
Ave neighs/atom = 95.5584
Ave special neighs/atom = 13.6344
Neighbor list builds = 23
Dangerous builds = 0
write_dump all custom pysimm.dump.tmp id q x y z vx vy vz
quit


################################################################################
##################################    Init    ##################################
################################################################################
units           real
atom_style      full
pair_style      lj/cut/coul/long 12.0  12.0
kspace_style    pppm 1e-4
bond_style      harmonic
angle_style     harmonic
dihedral_style  fourier
improper_style  cvff
special_bonds   amber
pair_modify     mix arithmetic
read_data       temp.lmps
  orthogonal box = (-134.294 -134.294 -134.294) to (134.294 134.294 134.294)
  1 by 1 by 1 MPI processor grid
  reading atoms ...
  974 atoms
  reading velocities ...
  974 velocities
  scanning bonds ...
  4 = max bonds/atom
  scanning angles ...
  6 = max angles/atom
  scanning dihedrals ...
  24 = max dihedrals/atom
  scanning impropers ...
  1 = max impropers/atom
  reading bonds ...
  1117 bonds
  reading angles ...
  2340 angles
  reading dihedrals ...
  4278 dihedrals
  reading impropers ...
  60 impropers
  4 = max # of 1-2 neighbors
  9 = max # of 1-3 neighbors
  23 = max # of 1-4 neighbors
  23 = max # of special neighbors
  special bonds CPU = 0.00100398 secs
  read_data CPU = 0.013427 secs
################################################################################

min_style cg
minimize 1e-06 1e-06 1000000 10000000
WARNING: Using 'neigh_modify every 1 delay 0 check yes' setting during minimization (../min.cpp:190)
PPPM initialization ...
WARNING: System is not charge neutral, net charge = 1.5e-05 (../kspace.cpp:313)
  using 12-bit tables for long-range coulomb (../kspace.cpp:332)
  G vector (1/distance) = 0.146668
  grid = 45 45 45
  stencil order = 5
  estimated absolute RMS force accuracy = 0.001077
  estimated relative force accuracy = 3.24336e-06
  using double precision KISS FFT
  3d grid and FFT values/proc = 125000 91125
Neighbor list info ...
  update every 1 steps, delay 0 steps, check yes
  max neighbors/atom: 2000, page size: 100000
  master list distance cutoff = 14
  ghost atom cutoff = 14
  binsize = 7, bins = 39 39 39
  1 neighbor lists, perpetual/occasional/extra = 1 0 0
  (1) pair lj/cut/coul/long, perpetual
      attributes: half, newton on
      pair build: half/bin/newton
      stencil: half/bin/3d/newton
      bin: standard
Per MPI rank memory allocation (min/avg/max) = 32.04 | 32.04 | 32.04 Mbytes
Step Temp E_pair E_mol TotEng Press 
       0    763.03918    818.84366    7551.9013    10583.809    6.2074426 
     686    763.03918    217.94069    6222.0592     8653.064    5.2682546 
Loop time of 35.0401 on 1 procs for 686 steps with 974 atoms

99.7% CPU use with 1 MPI tasks x no OpenMP threads

Minimization stats:
  Stopping criterion = linesearch alpha is zero
  Energy initial, next-to-last, final = 
         8370.74491647      6439.99992712      6439.99992712
  Force two-norm initial, final = 7230.25 11.534
  Force max component initial, final = 3759.68 2.44866
  Final line search alpha, max atom move = 6.26263e-11 1.5335e-10
  Iterations, force evaluations = 686 1422

MPI task timing breakdown:
Section |  min time  |  avg time  |  max time  |%varavg| %total
---------------------------------------------------------------
Pair    | 5.1762     | 5.1762     | 5.1762     |   0.0 | 14.77
Bond    | 0.79968    | 0.79968    | 0.79968    |   0.0 |  2.28
Kspace  | 28.947     | 28.947     | 28.947     |   0.0 | 82.61
Neigh   | 0.067387   | 0.067387   | 0.067387   |   0.0 |  0.19
Comm    | 0.0016596  | 0.0016596  | 0.0016596  |   0.0 |  0.00
Output  | 0          | 0          | 0          |   0.0 |  0.00
Modify  | 0          | 0          | 0          |   0.0 |  0.00
Other   |            | 0.04795    |            |       |  0.14

Nlocal:    974 ave 974 max 974 min
Histogram: 1 0 0 0 0 0 0 0 0 0
Nghost:    0 ave 0 max 0 min
Histogram: 1 0 0 0 0 0 0 0 0 0
Neighs:    104805 ave 104805 max 104805 min
Histogram: 1 0 0 0 0 0 0 0 0 0

Total # of neighbors = 104805
Ave neighs/atom = 107.603
Ave special neighs/atom = 13.6283
Neighbor list builds = 21
Dangerous builds = 0
write_dump all custom pysimm.dump.tmp id q x y z vx vy vz
quit


################################################################################
##################################    Init    ##################################
################################################################################
units           real
atom_style      full
pair_style      lj/cut/coul/long 12.0  12.0
kspace_style    pppm 1e-4
bond_style      harmonic
angle_style     harmonic
dihedral_style  fourier
improper_style  cvff
special_bonds   amber
pair_modify     mix arithmetic
read_data       temp.lmps
  orthogonal box = (-137.418 -137.418 -137.418) to (137.418 137.418 137.418)
  1 by 1 by 1 MPI processor grid
  reading atoms ...
  1040 atoms
  reading velocities ...
  1040 velocities
  scanning bonds ...
  4 = max bonds/atom
  scanning angles ...
  6 = max angles/atom
  scanning dihedrals ...
  24 = max dihedrals/atom
  scanning impropers ...
  1 = max impropers/atom
  reading bonds ...
  1192 bonds
  reading angles ...
  2496 angles
  reading dihedrals ...
  4560 dihedrals
  reading impropers ...
  64 impropers
  4 = max # of 1-2 neighbors
  9 = max # of 1-3 neighbors
  23 = max # of 1-4 neighbors
  23 = max # of special neighbors
  special bonds CPU = 0.00106311 secs
  read_data CPU = 0.0140982 secs
################################################################################

min_style cg
minimize 1e-06 1e-06 1000000 10000000
WARNING: Using 'neigh_modify every 1 delay 0 check yes' setting during minimization (../min.cpp:190)
PPPM initialization ...
WARNING: System is not charge neutral, net charge = 1.6e-05 (../kspace.cpp:313)
  using 12-bit tables for long-range coulomb (../kspace.cpp:332)
  G vector (1/distance) = 0.144829
  grid = 45 45 45
  stencil order = 5
  estimated absolute RMS force accuracy = 0.00116085
  estimated relative force accuracy = 3.49586e-06
  using double precision KISS FFT
  3d grid and FFT values/proc = 125000 91125
Neighbor list info ...
  update every 1 steps, delay 0 steps, check yes
  max neighbors/atom: 2000, page size: 100000
  master list distance cutoff = 14
  ghost atom cutoff = 14
  binsize = 7, bins = 40 40 40
  1 neighbor lists, perpetual/occasional/extra = 1 0 0
  (1) pair lj/cut/coul/long, perpetual
      attributes: half, newton on
      pair build: half/bin/newton
      stencil: half/bin/3d/newton
      bin: standard
Per MPI rank memory allocation (min/avg/max) = 32.07 | 32.07 | 32.07 Mbytes
Step Temp E_pair E_mol TotEng Press 
       0    694.53703    11100.307    8017.7034    21269.035    140.58314 
    1169    694.53703    234.36576    6480.8225    8866.2123    4.6892046 
Loop time of 57.1078 on 1 procs for 1169 steps with 1040 atoms

99.7% CPU use with 1 MPI tasks x no OpenMP threads

Minimization stats:
  Stopping criterion = energy tolerance
  Energy initial, next-to-last, final = 
         19118.0106198         6715.18877      6715.18827746
  Force two-norm initial, final = 190847 9.15066
  Force max component initial, final = 112698 1.15611
  Final line search alpha, max atom move = 0.00680592 0.00786836
  Iterations, force evaluations = 1169 2334

MPI task timing breakdown:
Section |  min time  |  avg time  |  max time  |%varavg| %total
---------------------------------------------------------------
Pair    | 8.1852     | 8.1852     | 8.1852     |   0.0 | 14.33
Bond    | 1.3652     | 1.3652     | 1.3652     |   0.0 |  2.39
Kspace  | 47.34      | 47.34      | 47.34      |   0.0 | 82.90
Neigh   | 0.1306     | 0.1306     | 0.1306     |   0.0 |  0.23
Comm    | 0.0033166  | 0.0033166  | 0.0033166  |   0.0 |  0.01
Output  | 0          | 0          | 0          |   0.0 |  0.00
Modify  | 0          | 0          | 0          |   0.0 |  0.00
Other   |            | 0.08359    |            |       |  0.15

Nlocal:    1040 ave 1040 max 1040 min
Histogram: 1 0 0 0 0 0 0 0 0 0
Nghost:    0 ave 0 max 0 min
Histogram: 1 0 0 0 0 0 0 0 0 0
Neighs:    101019 ave 101019 max 101019 min
Histogram: 1 0 0 0 0 0 0 0 0 0

Total # of neighbors = 101019
Ave neighs/atom = 97.1337
Ave special neighs/atom = 13.6231
Neighbor list builds = 39
Dangerous builds = 0
write_dump all custom pysimm.dump.tmp id q x y z vx vy vz
quit


################################################################################
##################################    Init    ##################################
################################################################################
units           real
atom_style      full
pair_style      lj/cut/coul/long 12.0  12.0
kspace_style    pppm 1e-4
bond_style      harmonic
angle_style     harmonic
dihedral_style  fourier
improper_style  cvff
special_bonds   amber
pair_modify     mix arithmetic
read_data       temp.lmps
  orthogonal box = (-140.406 -140.406 -140.406) to (140.406 140.406 140.406)
  1 by 1 by 1 MPI processor grid
  reading atoms ...
  1106 atoms
  reading velocities ...
  1106 velocities
  scanning bonds ...
  4 = max bonds/atom
  scanning angles ...
  6 = max angles/atom
  scanning dihedrals ...
  24 = max dihedrals/atom
  scanning impropers ...
  1 = max impropers/atom
  reading bonds ...
  1267 bonds
  reading angles ...
  2652 angles
  reading dihedrals ...
  4842 dihedrals
  reading impropers ...
  68 impropers
  4 = max # of 1-2 neighbors
  9 = max # of 1-3 neighbors
  23 = max # of 1-4 neighbors
  23 = max # of special neighbors
  special bonds CPU = 0.00107408 secs
  read_data CPU = 0.015167 secs
################################################################################

min_style cg
minimize 1e-06 1e-06 1000000 10000000
WARNING: Using 'neigh_modify every 1 delay 0 check yes' setting during minimization (../min.cpp:190)
PPPM initialization ...
WARNING: System is not charge neutral, net charge = 1.7e-05 (../kspace.cpp:313)
  using 12-bit tables for long-range coulomb (../kspace.cpp:332)
  G vector (1/distance) = 0.143123
  grid = 45 45 45
  stencil order = 5
  estimated absolute RMS force accuracy = 0.00124431
  estimated relative force accuracy = 3.74721e-06
  using double precision KISS FFT
  3d grid and FFT values/proc = 125000 91125
Neighbor list info ...
  update every 1 steps, delay 0 steps, check yes
  max neighbors/atom: 2000, page size: 100000
  master list distance cutoff = 14
  ghost atom cutoff = 14
  binsize = 7, bins = 41 41 41
  1 neighbor lists, perpetual/occasional/extra = 1 0 0
  (1) pair lj/cut/coul/long, perpetual
      attributes: half, newton on
      pair build: half/bin/newton
      stencil: half/bin/3d/newton
      bin: standard
Per MPI rank memory allocation (min/avg/max) = 32.1 | 32.1 | 32.1 Mbytes
Step Temp E_pair E_mol TotEng Press 
       0     794.4649    427.38485    8549.8546    11594.044   -2.3362567 
     532     794.4649     243.2197    6909.4532    9769.4775    5.2936371 
Loop time of 26.5489 on 1 procs for 532 steps with 1106 atoms

99.7% CPU use with 1 MPI tasks x no OpenMP threads

Minimization stats:
  Stopping criterion = energy tolerance
  Energy initial, next-to-last, final = 
         8977.23944697      7152.67434339      7152.67286318
  Force two-norm initial, final = 2545.92 11.9568
  Force max component initial, final = 1241.33 1.71482
  Final line search alpha, max atom move = 0.0091847 0.0157501
  Iterations, force evaluations = 532 1060

MPI task timing breakdown:
Section |  min time  |  avg time  |  max time  |%varavg| %total
---------------------------------------------------------------
Pair    | 3.8633     | 3.8633     | 3.8633     |   0.0 | 14.55
Bond    | 0.66262    | 0.66262    | 0.66262    |   0.0 |  2.50
Kspace  | 21.924     | 21.924     | 21.924     |   0.0 | 82.58
Neigh   | 0.05655    | 0.05655    | 0.05655    |   0.0 |  0.21
Comm    | 0.0014439  | 0.0014439  | 0.0014439  |   0.0 |  0.01
Output  | 0          | 0          | 0          |   0.0 |  0.00
Modify  | 0          | 0          | 0          |   0.0 |  0.00
Other   |            | 0.04058    |            |       |  0.15

Nlocal:    1106 ave 1106 max 1106 min
Histogram: 1 0 0 0 0 0 0 0 0 0
Nghost:    0 ave 0 max 0 min
Histogram: 1 0 0 0 0 0 0 0 0 0
Neighs:    106246 ave 106246 max 106246 min
Histogram: 1 0 0 0 0 0 0 0 0 0

Total # of neighbors = 106246
Ave neighs/atom = 96.0633
Ave special neighs/atom = 13.6184
Neighbor list builds = 17
Dangerous builds = 0
write_dump all custom pysimm.dump.tmp id q x y z vx vy vz
quit


################################################################################
##################################    Init    ##################################
################################################################################
units           real
atom_style      full
pair_style      lj/cut/coul/long 12.0  12.0
kspace_style    pppm 1e-4
bond_style      harmonic
angle_style     harmonic
dihedral_style  fourier
improper_style  cvff
special_bonds   amber
pair_modify     mix arithmetic
read_data       temp.lmps
  orthogonal box = (-143.272 -143.272 -143.272) to (143.272 143.272 143.272)
  1 by 1 by 1 MPI processor grid
  reading atoms ...
  1172 atoms
  reading velocities ...
  1172 velocities
  scanning bonds ...
  4 = max bonds/atom
  scanning angles ...
  6 = max angles/atom
  scanning dihedrals ...
  24 = max dihedrals/atom
  scanning impropers ...
  1 = max impropers/atom
  reading bonds ...
  1342 bonds
  reading angles ...
  2808 angles
  reading dihedrals ...
  5124 dihedrals
  reading impropers ...
  72 impropers
  4 = max # of 1-2 neighbors
  9 = max # of 1-3 neighbors
  23 = max # of 1-4 neighbors
  23 = max # of special neighbors
  special bonds CPU = 0.0015471 secs
  read_data CPU = 0.0166481 secs
################################################################################

min_style cg
minimize 1e-06 1e-06 1000000 10000000
WARNING: Using 'neigh_modify every 1 delay 0 check yes' setting during minimization (../min.cpp:190)
PPPM initialization ...
WARNING: System is not charge neutral, net charge = 1.8e-05 (../kspace.cpp:313)
  using 12-bit tables for long-range coulomb (../kspace.cpp:332)
  G vector (1/distance) = 0.14154
  grid = 45 45 45
  stencil order = 5
  estimated absolute RMS force accuracy = 0.00132746
  estimated relative force accuracy = 3.99761e-06
  using double precision KISS FFT
  3d grid and FFT values/proc = 125000 91125
Neighbor list info ...
  update every 1 steps, delay 0 steps, check yes
  max neighbors/atom: 2000, page size: 100000
  master list distance cutoff = 14
  ghost atom cutoff = 14
  binsize = 7, bins = 41 41 41
  1 neighbor lists, perpetual/occasional/extra = 1 0 0
  (1) pair lj/cut/coul/long, perpetual
      attributes: half, newton on
      pair build: half/bin/newton
      stencil: half/bin/3d/newton
      bin: standard
Per MPI rank memory allocation (min/avg/max) = 32.11 | 32.11 | 32.11 Mbytes
Step Temp E_pair E_mol TotEng Press 
       0     601.9067     1470.129    8908.1994    12479.301    8.9314327 
     572     601.9067    269.44353    7228.6076    9599.0236    3.9536323 
Loop time of 30.0065 on 1 procs for 572 steps with 1172 atoms

99.7% CPU use with 1 MPI tasks x no OpenMP threads

Minimization stats:
  Stopping criterion = linesearch alpha is zero
  Energy initial, next-to-last, final = 
         10378.3283746      7498.05107728      7498.05107728
  Force two-norm initial, final = 11758.9 11.9954
  Force max component initial, final = 4647.96 1.4195
  Final line search alpha, max atom move = 5.58341e-11 7.92567e-11
  Iterations, force evaluations = 572 1194

MPI task timing breakdown:
Section |  min time  |  avg time  |  max time  |%varavg| %total
---------------------------------------------------------------
Pair    | 4.6982     | 4.6982     | 4.6982     |   0.0 | 15.66
Bond    | 0.78858    | 0.78858    | 0.78858    |   0.0 |  2.63
Kspace  | 24.404     | 24.404     | 24.404     |   0.0 | 81.33
Neigh   | 0.067639   | 0.067639   | 0.067639   |   0.0 |  0.23
Comm    | 0.0016594  | 0.0016594  | 0.0016594  |   0.0 |  0.01
Output  | 0          | 0          | 0          |   0.0 |  0.00
Modify  | 0          | 0          | 0          |   0.0 |  0.00
Other   |            | 0.04672    |            |       |  0.16

Nlocal:    1172 ave 1172 max 1172 min
Histogram: 1 0 0 0 0 0 0 0 0 0
Nghost:    0 ave 0 max 0 min
Histogram: 1 0 0 0 0 0 0 0 0 0
Neighs:    113888 ave 113888 max 113888 min
Histogram: 1 0 0 0 0 0 0 0 0 0

Total # of neighbors = 113888
Ave neighs/atom = 97.1741
Ave special neighs/atom = 13.6143
Neighbor list builds = 19
Dangerous builds = 0
write_dump all custom pysimm.dump.tmp id q x y z vx vy vz
quit


################################################################################
##################################    Init    ##################################
################################################################################
units           real
atom_style      full
pair_style      lj/cut/coul/long 12.0  12.0
kspace_style    pppm 1e-4
bond_style      harmonic
angle_style     harmonic
dihedral_style  fourier
improper_style  cvff
special_bonds   amber
pair_modify     mix arithmetic
read_data       temp.lmps
  orthogonal box = (-146.028 -146.028 -146.028) to (146.028 146.028 146.028)
  1 by 1 by 1 MPI processor grid
  reading atoms ...
  1238 atoms
  reading velocities ...
  1238 velocities
  scanning bonds ...
  4 = max bonds/atom
  scanning angles ...
  6 = max angles/atom
  scanning dihedrals ...
  24 = max dihedrals/atom
  scanning impropers ...
  1 = max impropers/atom
  reading bonds ...
  1417 bonds
  reading angles ...
  2964 angles
  reading dihedrals ...
  5406 dihedrals
  reading impropers ...
  76 impropers
  4 = max # of 1-2 neighbors
  9 = max # of 1-3 neighbors
  23 = max # of 1-4 neighbors
  23 = max # of special neighbors
  special bonds CPU = 0.00122094 secs
  read_data CPU = 0.016767 secs
################################################################################

min_style cg
minimize 1e-06 1e-06 1000000 10000000
WARNING: Using 'neigh_modify every 1 delay 0 check yes' setting during minimization (../min.cpp:190)
PPPM initialization ...
WARNING: System is not charge neutral, net charge = 1.9e-05 (../kspace.cpp:313)
  using 12-bit tables for long-range coulomb (../kspace.cpp:332)
  G vector (1/distance) = 0.145129
  grid = 48 48 48
  stencil order = 5
  estimated absolute RMS force accuracy = 0.00113888
  estimated relative force accuracy = 3.42971e-06
  using double precision KISS FFT
  3d grid and FFT values/proc = 148877 110592
Neighbor list info ...
  update every 1 steps, delay 0 steps, check yes
  max neighbors/atom: 2000, page size: 100000
  master list distance cutoff = 14
  ghost atom cutoff = 14
  binsize = 7, bins = 42 42 42
  1 neighbor lists, perpetual/occasional/extra = 1 0 0
  (1) pair lj/cut/coul/long, perpetual
      attributes: half, newton on
      pair build: half/bin/newton
      stencil: half/bin/3d/newton
      bin: standard
Per MPI rank memory allocation (min/avg/max) = 34.7 | 34.7 | 34.7 Mbytes
Step Temp E_pair E_mol TotEng Press 
       0    685.86949    467.64066    9376.4416    12373.063   -2.6601622 
     693    685.86949    251.54168    7559.3868    10339.909    4.5501412 
Loop time of 42.8473 on 1 procs for 693 steps with 1238 atoms

99.7% CPU use with 1 MPI tasks x no OpenMP threads

Minimization stats:
  Stopping criterion = energy tolerance
  Energy initial, next-to-last, final = 
         9844.08223432       7810.9359391      7810.92843607
  Force two-norm initial, final = 2373.32 11.6042
  Force max component initial, final = 935.267 2.059
  Final line search alpha, max atom move = 0.00852064 0.017544
  Iterations, force evaluations = 693 1383

MPI task timing breakdown:
Section |  min time  |  avg time  |  max time  |%varavg| %total
---------------------------------------------------------------
Pair    | 6.3251     | 6.3251     | 6.3251     |   0.0 | 14.76
Bond    | 0.96141    | 0.96141    | 0.96141    |   0.0 |  2.24
Kspace  | 35.408     | 35.408     | 35.408     |   0.0 | 82.64
Neigh   | 0.092257   | 0.092257   | 0.092257   |   0.0 |  0.22
Comm    | 0.0021524  | 0.0021524  | 0.0021524  |   0.0 |  0.01
Output  | 0          | 0          | 0          |   0.0 |  0.00
Modify  | 0          | 0          | 0          |   0.0 |  0.00
Other   |            | 0.05841    |            |       |  0.14

Nlocal:    1238 ave 1238 max 1238 min
Histogram: 1 0 0 0 0 0 0 0 0 0
Nghost:    0 ave 0 max 0 min
Histogram: 1 0 0 0 0 0 0 0 0 0
Neighs:    136761 ave 136761 max 136761 min
Histogram: 1 0 0 0 0 0 0 0 0 0

Total # of neighbors = 136761
Ave neighs/atom = 110.469
Ave special neighs/atom = 13.6107
Neighbor list builds = 23
Dangerous builds = 0
write_dump all custom pysimm.dump.tmp id q x y z vx vy vz
quit


################################################################################
##################################    Init    ##################################
################################################################################
units           real
atom_style      full
pair_style      lj/cut/coul/long 12.0  12.0
kspace_style    pppm 1e-4
bond_style      harmonic
angle_style     harmonic
dihedral_style  fourier
improper_style  cvff
special_bonds   amber
pair_modify     mix arithmetic
read_data       temp.lmps
  orthogonal box = (-148.684 -148.684 -148.684) to (148.684 148.684 148.684)
  1 by 1 by 1 MPI processor grid
  reading atoms ...
  1304 atoms
  reading velocities ...
  1304 velocities
  scanning bonds ...
  4 = max bonds/atom
  scanning angles ...
  6 = max angles/atom
  scanning dihedrals ...
  24 = max dihedrals/atom
  scanning impropers ...
  1 = max impropers/atom
  reading bonds ...
  1492 bonds
  reading angles ...
  3120 angles
  reading dihedrals ...
  5688 dihedrals
  reading impropers ...
  80 impropers
  4 = max # of 1-2 neighbors
  9 = max # of 1-3 neighbors
  23 = max # of 1-4 neighbors
  23 = max # of special neighbors
  special bonds CPU = 0.00124502 secs
  read_data CPU = 0.017096 secs
################################################################################

min_style cg
minimize 1e-06 1e-06 1000000 10000000
WARNING: Using 'neigh_modify every 1 delay 0 check yes' setting during minimization (../min.cpp:190)
PPPM initialization ...
WARNING: System is not charge neutral, net charge = 2e-05 (../kspace.cpp:313)
  using 12-bit tables for long-range coulomb (../kspace.cpp:332)
  G vector (1/distance) = 0.143697
  grid = 48 48 48
  stencil order = 5
  estimated absolute RMS force accuracy = 0.00120767
  estimated relative force accuracy = 3.63686e-06
  using double precision KISS FFT
  3d grid and FFT values/proc = 148877 110592
Neighbor list info ...
  update every 1 steps, delay 0 steps, check yes
  max neighbors/atom: 2000, page size: 100000
  master list distance cutoff = 14
  ghost atom cutoff = 14
  binsize = 7, bins = 43 43 43
  1 neighbor lists, perpetual/occasional/extra = 1 0 0
  (1) pair lj/cut/coul/long, perpetual
      attributes: half, newton on
      pair build: half/bin/newton
      stencil: half/bin/3d/newton
      bin: standard
Per MPI rank memory allocation (min/avg/max) = 34.74 | 34.74 | 34.74 Mbytes
Step Temp E_pair E_mol TotEng Press 
       0    835.36132    157701.84    10096.579    171042.96     1636.902 
     655    835.36132    275.97528    7942.4805    11462.995    5.7228042 
Loop time of 42.6127 on 1 procs for 655 steps with 1304 atoms

99.7% CPU use with 1 MPI tasks x no OpenMP threads

Minimization stats:
  Stopping criterion = linesearch alpha is zero
  Energy initial, next-to-last, final = 
         167798.418253      8218.45581544      8218.45581544
  Force two-norm initial, final = 3.47919e+06 10.7757
  Force max component initial, final = 2.26444e+06 1.80861
  Final line search alpha, max atom move = 5.37443e-11 9.72027e-11
  Iterations, force evaluations = 655 1359

MPI task timing breakdown:
Section |  min time  |  avg time  |  max time  |%varavg| %total
---------------------------------------------------------------
Pair    | 6.7183     | 6.7183     | 6.7183     |   0.0 | 15.77
Bond    | 0.99575    | 0.99575    | 0.99575    |   0.0 |  2.34
Kspace  | 34.75      | 34.75      | 34.75      |   0.0 | 81.55
Neigh   | 0.087807   | 0.087807   | 0.087807   |   0.0 |  0.21
Comm    | 0.0019269  | 0.0019269  | 0.0019269  |   0.0 |  0.00
Output  | 0          | 0          | 0          |   0.0 |  0.00
Modify  | 0          | 0          | 0          |   0.0 |  0.00
Other   |            | 0.05877    |            |       |  0.14

Nlocal:    1304 ave 1304 max 1304 min
Histogram: 1 0 0 0 0 0 0 0 0 0
Nghost:    0 ave 0 max 0 min
Histogram: 1 0 0 0 0 0 0 0 0 0
Neighs:    148301 ave 148301 max 148301 min
Histogram: 1 0 0 0 0 0 0 0 0 0

Total # of neighbors = 148301
Ave neighs/atom = 113.728
Ave special neighs/atom = 13.6074
Neighbor list builds = 20
Dangerous builds = 0
write_dump all custom pysimm.dump.tmp id q x y z vx vy vz
quit


################################################################################
##################################    Init    ##################################
################################################################################
units           real
atom_style      full
pair_style      lj/cut/coul/long 12.0  12.0
kspace_style    pppm 1e-4
bond_style      harmonic
angle_style     harmonic
dihedral_style  fourier
improper_style  cvff
special_bonds   amber
pair_modify     mix arithmetic
read_data       temp.lmps
  orthogonal box = (-151.248 -151.248 -151.248) to (151.248 151.248 151.248)
  1 by 1 by 1 MPI processor grid
  reading atoms ...
  1370 atoms
  reading velocities ...
  1370 velocities
  scanning bonds ...
  4 = max bonds/atom
  scanning angles ...
  6 = max angles/atom
  scanning dihedrals ...
  24 = max dihedrals/atom
  scanning impropers ...
  1 = max impropers/atom
  reading bonds ...
  1567 bonds
  reading angles ...
  3276 angles
  reading dihedrals ...
  5970 dihedrals
  reading impropers ...
  84 impropers
  4 = max # of 1-2 neighbors
  9 = max # of 1-3 neighbors
  23 = max # of 1-4 neighbors
  23 = max # of special neighbors
  special bonds CPU = 0.00130916 secs
  read_data CPU = 0.0171928 secs
################################################################################

min_style cg
minimize 1e-06 1e-06 1000000 10000000
WARNING: Using 'neigh_modify every 1 delay 0 check yes' setting during minimization (../min.cpp:190)
PPPM initialization ...
WARNING: System is not charge neutral, net charge = 2.1e-05 (../kspace.cpp:313)
  using 12-bit tables for long-range coulomb (../kspace.cpp:332)
  G vector (1/distance) = 0.142349
  grid = 48 48 48
  stencil order = 5
  estimated absolute RMS force accuracy = 0.00127623
  estimated relative force accuracy = 3.84332e-06
  using double precision KISS FFT
  3d grid and FFT values/proc = 148877 110592
Neighbor list info ...
  update every 1 steps, delay 0 steps, check yes
  max neighbors/atom: 2000, page size: 100000
  master list distance cutoff = 14
  ghost atom cutoff = 14
  binsize = 7, bins = 44 44 44
  1 neighbor lists, perpetual/occasional/extra = 1 0 0
  (1) pair lj/cut/coul/long, perpetual
      attributes: half, newton on
      pair build: half/bin/newton
      stencil: half/bin/3d/newton
      bin: standard
Per MPI rank memory allocation (min/avg/max) = 34.77 | 34.77 | 34.77 Mbytes
Step Temp E_pair E_mol TotEng Press 
       0    614.82185    1326.7443    10439.273    14274.939    3.8609808 
     713    614.82185    309.41588    8299.1321    11117.469    4.0927333 
Loop time of 46.5751 on 1 procs for 713 steps with 1370 atoms

99.7% CPU use with 1 MPI tasks x no OpenMP threads

Minimization stats:
  Stopping criterion = linesearch alpha is zero
  Energy initial, next-to-last, final = 
         11766.0173322      8608.54802359      8608.54802359
  Force two-norm initial, final = 13004.6 12.471
  Force max component initial, final = 6783.24 1.07726
  Final line search alpha, max atom move = 7.53962e-11 8.1221e-11
  Iterations, force evaluations = 713 1473

MPI task timing breakdown:
Section |  min time  |  avg time  |  max time  |%varavg| %total
---------------------------------------------------------------
Pair    | 6.4488     | 6.4488     | 6.4488     |   0.0 | 13.85
Bond    | 1.1515     | 1.1515     | 1.1515     |   0.0 |  2.47
Kspace  | 38.813     | 38.813     | 38.813     |   0.0 | 83.33
Neigh   | 0.093691   | 0.093691   | 0.093691   |   0.0 |  0.20
Comm    | 0.0019295  | 0.0019295  | 0.0019295  |   0.0 |  0.00
Output  | 0          | 0          | 0          |   0.0 |  0.00
Modify  | 0          | 0          | 0          |   0.0 |  0.00
Other   |            | 0.06588    |            |       |  0.14

Nlocal:    1370 ave 1370 max 1370 min
Histogram: 1 0 0 0 0 0 0 0 0 0
Nghost:    0 ave 0 max 0 min
Histogram: 1 0 0 0 0 0 0 0 0 0
Neighs:    132447 ave 132447 max 132447 min
Histogram: 1 0 0 0 0 0 0 0 0 0

Total # of neighbors = 132447
Ave neighs/atom = 96.6766
Ave special neighs/atom = 13.6044
Neighbor list builds = 22
Dangerous builds = 0
write_dump all custom pysimm.dump.tmp id q x y z vx vy vz
quit


################################################################################
##################################    Init    ##################################
################################################################################
units           real
atom_style      full
pair_style      lj/cut/coul/long 12.0  12.0
kspace_style    pppm 1e-4
bond_style      harmonic
angle_style     harmonic
dihedral_style  fourier
improper_style  cvff
special_bonds   amber
pair_modify     mix arithmetic
read_data       temp.lmps
  orthogonal box = (-153.728 -153.728 -153.728) to (153.728 153.728 153.728)
  1 by 1 by 1 MPI processor grid
  reading atoms ...
  1436 atoms
  reading velocities ...
  1436 velocities
  scanning bonds ...
  4 = max bonds/atom
  scanning angles ...
  6 = max angles/atom
  scanning dihedrals ...
  24 = max dihedrals/atom
  scanning impropers ...
  1 = max impropers/atom
  reading bonds ...
  1642 bonds
  reading angles ...
  3432 angles
  reading dihedrals ...
  6252 dihedrals
  reading impropers ...
  88 impropers
  4 = max # of 1-2 neighbors
  9 = max # of 1-3 neighbors
  23 = max # of 1-4 neighbors
  23 = max # of special neighbors
  special bonds CPU = 0.00135708 secs
  read_data CPU = 0.017617 secs
################################################################################

min_style cg
minimize 1e-06 1e-06 1000000 10000000
WARNING: Using 'neigh_modify every 1 delay 0 check yes' setting during minimization (../min.cpp:190)
PPPM initialization ...
WARNING: System is not charge neutral, net charge = 2.2e-05 (../kspace.cpp:313)
  using 12-bit tables for long-range coulomb (../kspace.cpp:332)
  G vector (1/distance) = 0.141082
  grid = 48 48 48
  stencil order = 5
  estimated absolute RMS force accuracy = 0.00134461
  estimated relative force accuracy = 4.04926e-06
  using double precision KISS FFT
  3d grid and FFT values/proc = 148877 110592
Neighbor list info ...
  update every 1 steps, delay 0 steps, check yes
  max neighbors/atom: 2000, page size: 100000
  master list distance cutoff = 14
  ghost atom cutoff = 14
  binsize = 7, bins = 44 44 44
  1 neighbor lists, perpetual/occasional/extra = 1 0 0
  (1) pair lj/cut/coul/long, perpetual
      attributes: half, newton on
      pair build: half/bin/newton
      stencil: half/bin/3d/newton
      bin: standard
Per MPI rank memory allocation (min/avg/max) = 34.78 | 34.78 | 34.78 Mbytes
Step Temp E_pair E_mol TotEng Press 
       0    645.26669    1348.7416    10918.548    15027.394     2.996903 
     528    645.26669    337.63318    8647.1955    11744.933    4.3264307 
Loop time of 33.5561 on 1 procs for 528 steps with 1436 atoms

99.7% CPU use with 1 MPI tasks x no OpenMP threads

Minimization stats:
  Stopping criterion = energy tolerance
  Energy initial, next-to-last, final = 
          12267.289654      8984.83762592      8984.82869016
  Force two-norm initial, final = 6498.13 11.7102
  Force max component initial, final = 2522.84 1.41745
  Final line search alpha, max atom move = 0.00841045 0.0119214
  Iterations, force evaluations = 528 1052

MPI task timing breakdown:
Section |  min time  |  avg time  |  max time  |%varavg| %total
---------------------------------------------------------------
Pair    | 4.7348     | 4.7348     | 4.7348     |   0.0 | 14.11
Bond    | 0.8646     | 0.8646     | 0.8646     |   0.0 |  2.58
Kspace  | 27.838     | 27.838     | 27.838     |   0.0 | 82.96
Neigh   | 0.066089   | 0.066089   | 0.066089   |   0.0 |  0.20
Comm    | 0.0016139  | 0.0016139  | 0.0016139  |   0.0 |  0.00
Output  | 0          | 0          | 0          |   0.0 |  0.00
Modify  | 0          | 0          | 0          |   0.0 |  0.00
Other   |            | 0.0508     |            |       |  0.15

Nlocal:    1436 ave 1436 max 1436 min
Histogram: 1 0 0 0 0 0 0 0 0 0
Nghost:    0 ave 0 max 0 min
Histogram: 1 0 0 0 0 0 0 0 0 0
Neighs:    127463 ave 127463 max 127463 min
Histogram: 1 0 0 0 0 0 0 0 0 0

Total # of neighbors = 127463
Ave neighs/atom = 88.7625
Ave special neighs/atom = 13.6017
Neighbor list builds = 16
Dangerous builds = 0
write_dump all custom pysimm.dump.tmp id q x y z vx vy vz
quit


################################################################################
##################################    Init    ##################################
################################################################################
units           real
atom_style      full
pair_style      lj/cut/coul/long 12.0  12.0
kspace_style    pppm 1e-4
bond_style      harmonic
angle_style     harmonic
dihedral_style  fourier
improper_style  cvff
special_bonds   amber
pair_modify     mix arithmetic
read_data       temp.lmps
  orthogonal box = (-156.13 -156.13 -156.13) to (156.13 156.13 156.13)
  1 by 1 by 1 MPI processor grid
  reading atoms ...
  1502 atoms
  reading velocities ...
  1502 velocities
  scanning bonds ...
  4 = max bonds/atom
  scanning angles ...
  6 = max angles/atom
  scanning dihedrals ...
  24 = max dihedrals/atom
  scanning impropers ...
  1 = max impropers/atom
  reading bonds ...
  1717 bonds
  reading angles ...
  3588 angles
  reading dihedrals ...
  6534 dihedrals
  reading impropers ...
  92 impropers
  4 = max # of 1-2 neighbors
  9 = max # of 1-3 neighbors
  23 = max # of 1-4 neighbors
  23 = max # of special neighbors
  special bonds CPU = 0.001266 secs
  read_data CPU = 0.0180888 secs
################################################################################

min_style cg
minimize 1e-06 1e-06 1000000 10000000
WARNING: Using 'neigh_modify every 1 delay 0 check yes' setting during minimization (../min.cpp:190)
PPPM initialization ...
WARNING: System is not charge neutral, net charge = 2.3e-05 (../kspace.cpp:313)
  using 12-bit tables for long-range coulomb (../kspace.cpp:332)
  G vector (1/distance) = 0.143061
  grid = 50 50 50
  stencil order = 5
  estimated absolute RMS force accuracy = 0.00123521
  estimated relative force accuracy = 3.71979e-06
  using double precision KISS FFT
  3d grid and FFT values/proc = 166375 125000
Neighbor list info ...
  update every 1 steps, delay 0 steps, check yes
  max neighbors/atom: 2000, page size: 100000
  master list distance cutoff = 14
  ghost atom cutoff = 14
  binsize = 7, bins = 45 45 45
  1 neighbor lists, perpetual/occasional/extra = 1 0 0
  (1) pair lj/cut/coul/long, perpetual
      attributes: half, newton on
      pair build: half/bin/newton
      stencil: half/bin/3d/newton
      bin: standard
Per MPI rank memory allocation (min/avg/max) = 36.7 | 36.7 | 36.7 Mbytes
Step Temp E_pair E_mol TotEng Press 
       0    674.30922    3933.1823    11500.021    18450.194    25.213389 
     463    674.30922    324.55803    9057.5873    12399.137    4.5024485 
Loop time of 34.5892 on 1 procs for 463 steps with 1502 atoms

99.7% CPU use with 1 MPI tasks x no OpenMP threads

Minimization stats:
  Stopping criterion = energy tolerance
  Energy initial, next-to-last, final = 
         15433.2028345       9382.1479454      9382.14533275
  Force two-norm initial, final = 56766.2 11.7096
  Force max component initial, final = 35122.4 1.21456
  Final line search alpha, max atom move = 0.00853299 0.0103638
  Iterations, force evaluations = 463 922

MPI task timing breakdown:
Section |  min time  |  avg time  |  max time  |%varavg| %total
---------------------------------------------------------------
Pair    | 4.618      | 4.618      | 4.618      |   0.0 | 13.35
Bond    | 0.78747    | 0.78747    | 0.78747    |   0.0 |  2.28
Kspace  | 29.067     | 29.067     | 29.067     |   0.0 | 84.04
Neigh   | 0.06801    | 0.06801    | 0.06801    |   0.0 |  0.20
Comm    | 0.0015118  | 0.0015118  | 0.0015118  |   0.0 |  0.00
Output  | 0          | 0          | 0          |   0.0 |  0.00
Modify  | 0          | 0          | 0          |   0.0 |  0.00
Other   |            | 0.04675    |            |       |  0.14

Nlocal:    1502 ave 1502 max 1502 min
Histogram: 1 0 0 0 0 0 0 0 0 0
Nghost:    0 ave 0 max 0 min
Histogram: 1 0 0 0 0 0 0 0 0 0
Neighs:    144768 ave 144768 max 144768 min
Histogram: 1 0 0 0 0 0 0 0 0 0

Total # of neighbors = 144768
Ave neighs/atom = 96.3835
Ave special neighs/atom = 13.5992
Neighbor list builds = 15
Dangerous builds = 0
write_dump all custom pysimm.dump.tmp id q x y z vx vy vz
quit


################################################################################
##################################    Init    ##################################
################################################################################
units           real
atom_style      full
pair_style      lj/cut/coul/long 12.0  12.0
kspace_style    pppm 1e-4
bond_style      harmonic
angle_style     harmonic
dihedral_style  fourier
improper_style  cvff
special_bonds   amber
pair_modify     mix arithmetic
read_data       temp.lmps
  orthogonal box = (-158.461 -158.461 -158.461) to (158.461 158.461 158.461)
  1 by 1 by 1 MPI processor grid
  reading atoms ...
  1568 atoms
  reading velocities ...
  1568 velocities
  scanning bonds ...
  4 = max bonds/atom
  scanning angles ...
  6 = max angles/atom
  scanning dihedrals ...
  24 = max dihedrals/atom
  scanning impropers ...
  1 = max impropers/atom
  reading bonds ...
  1792 bonds
  reading angles ...
  3744 angles
  reading dihedrals ...
  6816 dihedrals
  reading impropers ...
  96 impropers
  4 = max # of 1-2 neighbors
  9 = max # of 1-3 neighbors
  23 = max # of 1-4 neighbors
  23 = max # of special neighbors
  special bonds CPU = 0.00144005 secs
  read_data CPU = 0.019402 secs
################################################################################

min_style cg
minimize 1e-06 1e-06 1000000 10000000
WARNING: Using 'neigh_modify every 1 delay 0 check yes' setting during minimization (../min.cpp:190)
PPPM initialization ...
WARNING: System is not charge neutral, net charge = 2.4e-05 (../kspace.cpp:313)
  using 12-bit tables for long-range coulomb (../kspace.cpp:332)
  G vector (1/distance) = 0.141898
  grid = 50 50 50
  stencil order = 5
  estimated absolute RMS force accuracy = 0.00129577
  estimated relative force accuracy = 3.90217e-06
  using double precision KISS FFT
  3d grid and FFT values/proc = 166375 125000
Neighbor list info ...
  update every 1 steps, delay 0 steps, check yes
  max neighbors/atom: 2000, page size: 100000
  master list distance cutoff = 14
  ghost atom cutoff = 14
  binsize = 7, bins = 46 46 46
  1 neighbor lists, perpetual/occasional/extra = 1 0 0
  (1) pair lj/cut/coul/long, perpetual
      attributes: half, newton on
      pair build: half/bin/newton
      stencil: half/bin/3d/newton
      bin: standard
Per MPI rank memory allocation (min/avg/max) = 36.74 | 36.74 | 36.74 Mbytes
Step Temp E_pair E_mol TotEng Press 
       0    677.06463    2415.3162     12024.02    17601.858    10.336573 
     653    677.06463    342.39965    9401.5136    12906.434    4.6176958 
Loop time of 51.2532 on 1 procs for 653 steps with 1568 atoms

99.7% CPU use with 1 MPI tasks x no OpenMP threads

Minimization stats:
  Stopping criterion = linesearch alpha is zero
  Energy initial, next-to-last, final = 
         14439.3365486      9743.91328746      9743.91328746
  Force two-norm initial, final = 25911.1 13.3788
  Force max component initial, final = 15091.3 1.45592
  Final line search alpha, max atom move = 5.47069e-11 7.96489e-11
  Iterations, force evaluations = 653 1355

MPI task timing breakdown:
Section |  min time  |  avg time  |  max time  |%varavg| %total
---------------------------------------------------------------
Pair    | 7.0431     | 7.0431     | 7.0431     |   0.0 | 13.74
Bond    | 1.2117     | 1.2117     | 1.2117     |   0.0 |  2.36
Kspace  | 42.823     | 42.823     | 42.823     |   0.0 | 83.55
Neigh   | 0.10355    | 0.10355    | 0.10355    |   0.0 |  0.20
Comm    | 0.002315   | 0.002315   | 0.002315   |   0.0 |  0.00
Output  | 0          | 0          | 0          |   0.0 |  0.00
Modify  | 0          | 0          | 0          |   0.0 |  0.00
Other   |            | 0.06916    |            |       |  0.13

Nlocal:    1568 ave 1568 max 1568 min
Histogram: 1 0 0 0 0 0 0 0 0 0
Nghost:    0 ave 0 max 0 min
Histogram: 1 0 0 0 0 0 0 0 0 0
Neighs:    153126 ave 153126 max 153126 min
Histogram: 1 0 0 0 0 0 0 0 0 0

Total # of neighbors = 153126
Ave neighs/atom = 97.6569
Ave special neighs/atom = 13.5969
Neighbor list builds = 22
Dangerous builds = 0
write_dump all custom pysimm.dump.tmp id q x y z vx vy vz
quit


################################################################################
##################################    Init    ##################################
################################################################################
units           real
atom_style      full
pair_style      lj/cut/coul/long 12.0  12.0
kspace_style    pppm 1e-4
bond_style      harmonic
angle_style     harmonic
dihedral_style  fourier
improper_style  cvff
special_bonds   amber
pair_modify     mix arithmetic
read_data       temp.lmps
  orthogonal box = (-160.725 -160.725 -160.725) to (160.725 160.725 160.725)
  1 by 1 by 1 MPI processor grid
  reading atoms ...
  1634 atoms
  reading velocities ...
  1634 velocities
  scanning bonds ...
  4 = max bonds/atom
  scanning angles ...
  6 = max angles/atom
  scanning dihedrals ...
  24 = max dihedrals/atom
  scanning impropers ...
  1 = max impropers/atom
  reading bonds ...
  1867 bonds
  reading angles ...
  3900 angles
  reading dihedrals ...
  7098 dihedrals
  reading impropers ...
  100 impropers
  4 = max # of 1-2 neighbors
  9 = max # of 1-3 neighbors
  23 = max # of 1-4 neighbors
  23 = max # of special neighbors
  special bonds CPU = 0.00148702 secs
  read_data CPU = 0.0194349 secs
################################################################################

min_style cg
minimize 1e-06 1e-06 1000000 10000000
WARNING: Using 'neigh_modify every 1 delay 0 check yes' setting during minimization (../min.cpp:190)
PPPM initialization ...
WARNING: System is not charge neutral, net charge = 2.5e-05 (../kspace.cpp:313)
  using 12-bit tables for long-range coulomb (../kspace.cpp:332)
  G vector (1/distance) = 0.140798
  grid = 50 50 50
  stencil order = 5
  estimated absolute RMS force accuracy = 0.00135622
  estimated relative force accuracy = 4.0842e-06
  using double precision KISS FFT
  3d grid and FFT values/proc = 166375 125000
Neighbor list info ...
  update every 1 steps, delay 0 steps, check yes
  max neighbors/atom: 2000, page size: 100000
  master list distance cutoff = 14
  ghost atom cutoff = 14
  binsize = 7, bins = 46 46 46
  1 neighbor lists, perpetual/occasional/extra = 1 0 0
  (1) pair lj/cut/coul/long, perpetual
      attributes: half, newton on
      pair build: half/bin/newton
      stencil: half/bin/3d/newton
      bin: standard
Per MPI rank memory allocation (min/avg/max) = 36.75 | 36.75 | 36.75 Mbytes
Step Temp E_pair E_mol TotEng Press 
       0    711.65584    1801.4386    12641.012    17906.551    4.2851372 
     693    711.65584    372.26061    9737.0277    13573.389    4.6543021 
Loop time of 54.5926 on 1 procs for 693 steps with 1634 atoms

99.7% CPU use with 1 MPI tasks x no OpenMP threads

Minimization stats:
  Stopping criterion = linesearch alpha is zero
  Energy initial, next-to-last, final = 
         14442.4506271      10109.2883249      10109.2883249
  Force two-norm initial, final = 19957.3 13.365
  Force max component initial, final = 13601.5 1.63413
  Final line search alpha, max atom move = 4.71886e-11 7.71121e-11
  Iterations, force evaluations = 693 1433

MPI task timing breakdown:
Section |  min time  |  avg time  |  max time  |%varavg| %total
---------------------------------------------------------------
Pair    | 7.8415     | 7.8415     | 7.8415     |   0.0 | 14.36
Bond    | 1.3321     | 1.3321     | 1.3321     |   0.0 |  2.44
Kspace  | 45.216     | 45.216     | 45.216     |   0.0 | 82.82
Neigh   | 0.12415    | 0.12415    | 0.12415    |   0.0 |  0.23
Comm    | 0.0023026  | 0.0023026  | 0.0023026  |   0.0 |  0.00
Output  | 0          | 0          | 0          |   0.0 |  0.00
Modify  | 0          | 0          | 0          |   0.0 |  0.00
Other   |            | 0.07654    |            |       |  0.14

Nlocal:    1634 ave 1634 max 1634 min
Histogram: 1 0 0 0 0 0 0 0 0 0
Nghost:    0 ave 0 max 0 min
Histogram: 1 0 0 0 0 0 0 0 0 0
Neighs:    160694 ave 160694 max 160694 min
Histogram: 1 0 0 0 0 0 0 0 0 0

Total # of neighbors = 160694
Ave neighs/atom = 98.3439
Ave special neighs/atom = 13.5949
Neighbor list builds = 25
Dangerous builds = 0
write_dump all custom pysimm.dump.tmp id q x y z vx vy vz
quit


################################################################################
##################################    Init    ##################################
################################################################################
units           real
atom_style      full
pair_style      lj/cut/coul/long 12.0  12.0
kspace_style    pppm 1e-4
bond_style      harmonic
angle_style     harmonic
dihedral_style  fourier
improper_style  cvff
special_bonds   amber
pair_modify     mix arithmetic
read_data       temp.lmps
  orthogonal box = (-162.927 -162.927 -162.927) to (162.927 162.927 162.927)
  1 by 1 by 1 MPI processor grid
  reading atoms ...
  1700 atoms
  reading velocities ...
  1700 velocities
  scanning bonds ...
  4 = max bonds/atom
  scanning angles ...
  6 = max angles/atom
  scanning dihedrals ...
  24 = max dihedrals/atom
  scanning impropers ...
  1 = max impropers/atom
  reading bonds ...
  1942 bonds
  reading angles ...
  4056 angles
  reading dihedrals ...
  7380 dihedrals
  reading impropers ...
  104 impropers
  4 = max # of 1-2 neighbors
  9 = max # of 1-3 neighbors
  23 = max # of 1-4 neighbors
  23 = max # of special neighbors
  special bonds CPU = 0.001508 secs
  read_data CPU = 0.019814 secs
################################################################################

min_style cg
minimize 1e-06 1e-06 1000000 10000000
WARNING: Using 'neigh_modify every 1 delay 0 check yes' setting during minimization (../min.cpp:190)
PPPM initialization ...
WARNING: System is not charge neutral, net charge = 2.6e-05 (../kspace.cpp:313)
  using 12-bit tables for long-range coulomb (../kspace.cpp:332)
  G vector (1/distance) = 0.145791
  grid = 54 54 54
  stencil order = 5
  estimated absolute RMS force accuracy = 0.00109742
  estimated relative force accuracy = 3.30484e-06
  using double precision KISS FFT
  3d grid and FFT values/proc = 205379 157464
Neighbor list info ...
  update every 1 steps, delay 0 steps, check yes
  max neighbors/atom: 2000, page size: 100000
  master list distance cutoff = 14
  ghost atom cutoff = 14
  binsize = 7, bins = 47 47 47
  1 neighbor lists, perpetual/occasional/extra = 1 0 0
  (1) pair lj/cut/coul/long, perpetual
      attributes: half, newton on
      pair build: half/bin/newton
      stencil: half/bin/3d/newton
      bin: standard
Per MPI rank memory allocation (min/avg/max) = 41.02 | 41.02 | 41.02 Mbytes
Step Temp E_pair E_mol TotEng Press 
       0    619.04202    6487.7047    13068.521      22691.3    40.524987 
     803    619.04202    401.20527    10121.301     13657.58    4.0417577 
Loop time of 82.1939 on 1 procs for 803 steps with 1700 atoms

99.7% CPU use with 1 MPI tasks x no OpenMP threads

Minimization stats:
  Stopping criterion = energy tolerance
  Energy initial, next-to-last, final = 
         19556.2260697      10522.5066055      10522.5059666
  Force two-norm initial, final = 62830.5 13.8514
  Force max component initial, final = 28220.1 1.25245
  Final line search alpha, max atom move = 0.00368601 0.00461655
  Iterations, force evaluations = 803 1602

MPI task timing breakdown:
Section |  min time  |  avg time  |  max time  |%varavg| %total
---------------------------------------------------------------
Pair    | 8.528      | 8.528      | 8.528      |   0.0 | 10.38
Bond    | 1.5085     | 1.5085     | 1.5085     |   0.0 |  1.84
Kspace  | 71.943     | 71.943     | 71.943     |   0.0 | 87.53
Neigh   | 0.12581    | 0.12581    | 0.12581    |   0.0 |  0.15
Comm    | 0.0024948  | 0.0024948  | 0.0024948  |   0.0 |  0.00
Output  | 0          | 0          | 0          |   0.0 |  0.00
Modify  | 0          | 0          | 0          |   0.0 |  0.00
Other   |            | 0.08635    |            |       |  0.11

Nlocal:    1700 ave 1700 max 1700 min
Histogram: 1 0 0 0 0 0 0 0 0 0
Nghost:    0 ave 0 max 0 min
Histogram: 1 0 0 0 0 0 0 0 0 0
Neighs:    148685 ave 148685 max 148685 min
Histogram: 1 0 0 0 0 0 0 0 0 0

Total # of neighbors = 148685
Ave neighs/atom = 87.4618
Ave special neighs/atom = 13.5929
Neighbor list builds = 26
Dangerous builds = 0
write_dump all custom pysimm.dump.tmp id q x y z vx vy vz
quit


################################################################################
##################################    Init    ##################################
################################################################################
units           real
atom_style      full
pair_style      lj/cut/coul/long 12.0  12.0
kspace_style    pppm 1e-4
bond_style      harmonic
angle_style     harmonic
dihedral_style  fourier
improper_style  cvff
special_bonds   amber
pair_modify     mix arithmetic
read_data       temp.lmps
  orthogonal box = (-165.071 -165.071 -165.071) to (165.071 165.071 165.071)
  1 by 1 by 1 MPI processor grid
  reading atoms ...
  1766 atoms
  reading velocities ...
  1766 velocities
  scanning bonds ...
  4 = max bonds/atom
  scanning angles ...
  6 = max angles/atom
  scanning dihedrals ...
  24 = max dihedrals/atom
  scanning impropers ...
  1 = max impropers/atom
  reading bonds ...
  2017 bonds
  reading angles ...
  4212 angles
  reading dihedrals ...
  7662 dihedrals
  reading impropers ...
  108 impropers
  4 = max # of 1-2 neighbors
  9 = max # of 1-3 neighbors
  23 = max # of 1-4 neighbors
  23 = max # of special neighbors
  special bonds CPU = 0.00155807 secs
  read_data CPU = 0.0201032 secs
################################################################################

min_style cg
minimize 1e-06 1e-06 1000000 10000000
[...]
  6 = max angles/atom
  scanning dihedrals ...
  24 = max dihedrals/atom
  scanning impropers ...
  1 = max impropers/atom
  reading bonds ...
  3442 bonds
  reading angles ...
  7176 angles
  reading dihedrals ...
  13020 dihedrals
  reading impropers ...
  184 impropers
  4 = max # of 1-2 neighbors
  9 = max # of 1-3 neighbors
  23 = max # of 1-4 neighbors
  23 = max # of special neighbors
  special bonds CPU = 0.00261712 secs
  read_data CPU = 0.0328438 secs
################################################################################

min_style cg
minimize 1e-06 1e-06 1000000 10000000
WARNING: Using 'neigh_modify every 1 delay 0 check yes' setting during minimization (../min.cpp:190)
PPPM initialization ...
WARNING: System is not charge neutral, net charge = 4.6e-05 (../kspace.cpp:313)
  using 12-bit tables for long-range coulomb (../kspace.cpp:332)
  G vector (1/distance) = 0.143718
  grid = 64 64 64
  stencil order = 5
  estimated absolute RMS force accuracy = 0.00118491
  estimated relative force accuracy = 3.56832e-06
  using double precision KISS FFT
  3d grid and FFT values/proc = 328509 262144
Neighbor list info ...
  update every 1 steps, delay 0 steps, check yes
  max neighbors/atom: 2000, page size: 100000
  master list distance cutoff = 14
  ghost atom cutoff = 14
  binsize = 7, bins = 57 57 57
  1 neighbor lists, perpetual/occasional/extra = 1 0 0
  (1) pair lj/cut/coul/long, perpetual
      attributes: half, newton on
      pair build: half/bin/newton
      stencil: half/bin/3d/newton
      bin: standard
Per MPI rank memory allocation (min/avg/max) = 55.86 | 55.86 | 55.86 Mbytes
Step Temp E_pair E_mol TotEng Press 
       0     256.6282    4097.5702    22908.612    29315.596    4.2924842 
     478     256.6282    570.12972    17275.229    20154.772    1.5988449 
Loop time of 111.457 on 1 procs for 478 steps with 3020 atoms

99.7% CPU use with 1 MPI tasks x no OpenMP threads

Minimization stats:
  Stopping criterion = linesearch alpha is zero
  Energy initial, next-to-last, final = 
           27006.18188      17845.3584608      17845.3584608
  Force two-norm initial, final = 22542.1 15.4973
  Force max component initial, final = 11539.8 1.33858
  Final line search alpha, max atom move = 3.54957e-11 4.75138e-11
  Iterations, force evaluations = 478 1004

MPI task timing breakdown:
Section |  min time  |  avg time  |  max time  |%varavg| %total
---------------------------------------------------------------
Pair    | 11.975     | 11.975     | 11.975     |   0.0 | 10.74
Bond    | 1.6933     | 1.6933     | 1.6933     |   0.0 |  1.52
Kspace  | 97.506     | 97.506     | 97.506     |   0.0 | 87.48
Neigh   | 0.18696    | 0.18696    | 0.18696    |   0.0 |  0.17
Comm    | 0.0019915  | 0.0019915  | 0.0019915  |   0.0 |  0.00
Output  | 0          | 0          | 0          |   0.0 |  0.00
Modify  | 0          | 0          | 0          |   0.0 |  0.00
Other   |            | 0.09423    |            |       |  0.08

Nlocal:    3020 ave 3020 max 3020 min
Histogram: 1 0 0 0 0 0 0 0 0 0
Nghost:    0 ave 0 max 0 min
Histogram: 1 0 0 0 0 0 0 0 0 0
Neighs:    359963 ave 359963 max 359963 min
Histogram: 1 0 0 0 0 0 0 0 0 0

Total # of neighbors = 359963
Ave neighs/atom = 119.193
Ave special neighs/atom = 13.5722
Neighbor list builds = 17
Dangerous builds = 0
write_dump all custom pysimm.dump.tmp id q x y z vx vy vz
quit


################################################################################
##################################    Init    ##################################
################################################################################
units           real
atom_style      full
pair_style      lj/cut/coul/long 12.0  12.0
kspace_style    pppm 1e-4
bond_style      harmonic
angle_style     harmonic
dihedral_style  fourier
improper_style  cvff
special_bonds   amber
pair_modify     mix arithmetic
read_data       temp.lmps
  orthogonal box = (-199.648 -199.648 -199.648) to (199.648 199.648 199.648)
  1 by 1 by 1 MPI processor grid
  reading atoms ...
  3086 atoms
  reading velocities ...
  3086 velocities
  scanning bonds ...
  4 = max bonds/atom
  scanning angles ...
  6 = max angles/atom
  scanning dihedrals ...
  24 = max dihedrals/atom
  scanning impropers ...
  1 = max impropers/atom
  reading bonds ...
  3517 bonds
  reading angles ...
  7332 angles
  reading dihedrals ...
  13302 dihedrals
  reading impropers ...
  188 impropers
  4 = max # of 1-2 neighbors
  9 = max # of 1-3 neighbors
  23 = max # of 1-4 neighbors
  23 = max # of special neighbors
  special bonds CPU = 0.00274301 secs
  read_data CPU = 0.0335271 secs
################################################################################

min_style cg
minimize 1e-06 1e-06 1000000 10000000
WARNING: Using 'neigh_modify every 1 delay 0 check yes' setting during minimization (../min.cpp:190)
PPPM initialization ...
WARNING: System is not charge neutral, net charge = 4.7e-05 (../kspace.cpp:313)
  using 12-bit tables for long-range coulomb (../kspace.cpp:332)
  G vector (1/distance) = 0.143139
  grid = 64 64 64
  stencil order = 5
  estimated absolute RMS force accuracy = 0.0012138
  estimated relative force accuracy = 3.65531e-06
  using double precision KISS FFT
  3d grid and FFT values/proc = 328509 262144
Neighbor list info ...
  update every 1 steps, delay 0 steps, check yes
  max neighbors/atom: 2000, page size: 100000
  master list distance cutoff = 14
  ghost atom cutoff = 14
  binsize = 7, bins = 58 58 58
  1 neighbor lists, perpetual/occasional/extra = 1 0 0
  (1) pair lj/cut/coul/long, perpetual
      attributes: half, newton on
      pair build: half/bin/newton
      stencil: half/bin/3d/newton
      bin: standard
Per MPI rank memory allocation (min/avg/max) = 55.92 | 55.92 | 55.92 Mbytes
Step Temp E_pair E_mol TotEng Press 
       0    322.97213    7972.0571     23403.69    34345.734    20.585809 
     430    322.97213    628.01937    17672.585    21270.591    2.0241887 
Loop time of 82.0734 on 1 procs for 430 steps with 3086 atoms

99.7% CPU use with 1 MPI tasks x no OpenMP threads

Minimization stats:
  Stopping criterion = energy tolerance
  Energy initial, next-to-last, final = 
          31375.746788      18300.6182785      18300.6042378
  Force two-norm initial, final = 53992.6 14.0524
  Force max component initial, final = 25781.2 2.133
  Final line search alpha, max atom move = 0.00788742 0.0168238
  Iterations, force evaluations = 430 854

MPI task timing breakdown:
Section |  min time  |  avg time  |  max time  |%varavg| %total
---------------------------------------------------------------
Pair    | 9.947      | 9.947      | 9.947      |   0.0 | 12.12
Bond    | 1.4772     | 1.4772     | 1.4772     |   0.0 |  1.80
Kspace  | 70.422     | 70.422     | 70.422     |   0.0 | 85.80
Neigh   | 0.14289    | 0.14289    | 0.14289    |   0.0 |  0.17
Comm    | 0.001734   | 0.001734   | 0.001734   |   0.0 |  0.00
Output  | 0          | 0          | 0          |   0.0 |  0.00
Modify  | 0          | 0          | 0          |   0.0 |  0.00
Other   |            | 0.08228    |            |       |  0.10

Nlocal:    3086 ave 3086 max 3086 min
Histogram: 1 0 0 0 0 0 0 0 0 0
Nghost:    0 ave 0 max 0 min
Histogram: 1 0 0 0 0 0 0 0 0 0
Neighs:    349750 ave 349750 max 349750 min
Histogram: 1 0 0 0 0 0 0 0 0 0

Total # of neighbors = 349750
Ave neighs/atom = 113.334
Ave special neighs/atom = 13.5716
Neighbor list builds = 13
Dangerous builds = 0
write_dump all custom pysimm.dump.tmp id q x y z vx vy vz
quit


################################################################################
##################################    Init    ##################################
################################################################################
units           real
atom_style      full
pair_style      lj/cut/coul/long 12.0  12.0
kspace_style    pppm 1e-4
bond_style      harmonic
angle_style     harmonic
dihedral_style  fourier
improper_style  cvff
special_bonds   amber
pair_modify     mix arithmetic
read_data       temp.lmps
  orthogonal box = (-201.084 -201.084 -201.084) to (201.084 201.084 201.084)
  1 by 1 by 1 MPI processor grid
  reading atoms ...
  3152 atoms
  reading velocities ...
  3152 velocities
  scanning bonds ...
  4 = max bonds/atom
  scanning angles ...
  6 = max angles/atom
  scanning dihedrals ...
  24 = max dihedrals/atom
  scanning impropers ...
  1 = max impropers/atom
  reading bonds ...
  3592 bonds
  reading angles ...
  7488 angles
  reading dihedrals ...
  13584 dihedrals
  reading impropers ...
  192 impropers
  4 = max # of 1-2 neighbors
  9 = max # of 1-3 neighbors
  23 = max # of 1-4 neighbors
  23 = max # of special neighbors
  special bonds CPU = 0.00265813 secs
  read_data CPU = 0.0331142 secs
################################################################################

min_style cg
minimize 1e-06 1e-06 1000000 10000000
WARNING: Using 'neigh_modify every 1 delay 0 check yes' setting during minimization (../min.cpp:190)
PPPM initialization ...
WARNING: System is not charge neutral, net charge = 4.8e-05 (../kspace.cpp:313)
  using 12-bit tables for long-range coulomb (../kspace.cpp:332)
  G vector (1/distance) = 0.142575
  grid = 64 64 64
  stencil order = 5
  estimated absolute RMS force accuracy = 0.00124265
  estimated relative force accuracy = 3.74221e-06
  using double precision KISS FFT
  3d grid and FFT values/proc = 328509 262144
Neighbor list info ...
  update every 1 steps, delay 0 steps, check yes
  max neighbors/atom: 2000, page size: 100000
  master list distance cutoff = 14
  ghost atom cutoff = 14
  binsize = 7, bins = 58 58 58
  1 neighbor lists, perpetual/occasional/extra = 1 0 0
  (1) pair lj/cut/coul/long, perpetual
      attributes: half, newton on
      pair build: half/bin/newton
      stencil: half/bin/3d/newton
      bin: standard
Per MPI rank memory allocation (min/avg/max) = 55.93 | 55.93 | 55.93 Mbytes
Step Temp E_pair E_mol TotEng Press 
       0    346.50689    5023.5452    23919.719    32197.842    7.5739415 
     544    346.50689    597.89407    17999.075    21851.546    2.2460647 
Loop time of 110.593 on 1 procs for 544 steps with 3152 atoms

99.7% CPU use with 1 MPI tasks x no OpenMP threads

Minimization stats:
  Stopping criterion = linesearch alpha is zero
  Energy initial, next-to-last, final = 
         28943.2644528       18596.969054       18596.969054
  Force two-norm initial, final = 28023.1 15.9496
  Force max component initial, final = 10916.3 1.73685
  Final line search alpha, max atom move = 4.61563e-11 8.01665e-11
  Iterations, force evaluations = 544 1134

MPI task timing breakdown:
Section |  min time  |  avg time  |  max time  |%varavg| %total
---------------------------------------------------------------
Pair    | 13.959     | 13.959     | 13.959     |   0.0 | 12.62
Bond    | 1.9896     | 1.9896     | 1.9896     |   0.0 |  1.80
Kspace  | 94.348     | 94.348     | 94.348     |   0.0 | 85.31
Neigh   | 0.18246    | 0.18246    | 0.18246    |   0.0 |  0.16
Comm    | 0.002284   | 0.002284   | 0.002284   |   0.0 |  0.00
Output  | 0          | 0          | 0          |   0.0 |  0.00
Modify  | 0          | 0          | 0          |   0.0 |  0.00
Other   |            | 0.1116     |            |       |  0.10

Nlocal:    3152 ave 3152 max 3152 min
Histogram: 1 0 0 0 0 0 0 0 0 0
Nghost:    0 ave 0 max 0 min
Histogram: 1 0 0 0 0 0 0 0 0 0
Neighs:    373398 ave 373398 max 373398 min
Histogram: 1 0 0 0 0 0 0 0 0 0

Total # of neighbors = 373398
Ave neighs/atom = 118.464
Ave special neighs/atom = 13.5711
Neighbor list builds = 16
Dangerous builds = 0
write_dump all custom pysimm.dump.tmp id q x y z vx vy vz
quit


################################################################################
##################################    Init    ##################################
################################################################################
units           real
atom_style      full
pair_style      lj/cut/coul/long 12.0  12.0
kspace_style    pppm 1e-4
bond_style      harmonic
angle_style     harmonic
dihedral_style  fourier
improper_style  cvff
special_bonds   amber
pair_modify     mix arithmetic
read_data       temp.lmps
  orthogonal box = (-202.501 -202.501 -202.501) to (202.501 202.501 202.501)
  1 by 1 by 1 MPI processor grid
  reading atoms ...
  3218 atoms
  reading velocities ...
  3218 velocities
  scanning bonds ...
  4 = max bonds/atom
  scanning angles ...
  6 = max angles/atom
  scanning dihedrals ...
  24 = max dihedrals/atom
  scanning impropers ...
  1 = max impropers/atom
  reading bonds ...
  3667 bonds
  reading angles ...
  7644 angles
  reading dihedrals ...
  13866 dihedrals
  reading impropers ...
  196 impropers
  4 = max # of 1-2 neighbors
  9 = max # of 1-3 neighbors
  23 = max # of 1-4 neighbors
  23 = max # of special neighbors
  special bonds CPU = 0.00271797 secs
  read_data CPU = 0.033659 secs
################################################################################

min_style cg
minimize 1e-06 1e-06 1000000 10000000
WARNING: Using 'neigh_modify every 1 delay 0 check yes' setting during minimization (../min.cpp:190)
PPPM initialization ...
WARNING: System is not charge neutral, net charge = 4.9e-05 (../kspace.cpp:313)
  using 12-bit tables for long-range coulomb (../kspace.cpp:332)
  G vector (1/distance) = 0.142025
  grid = 64 64 64
  stencil order = 5
  estimated absolute RMS force accuracy = 0.00127148
  estimated relative force accuracy = 3.82901e-06
  using double precision KISS FFT
  3d grid and FFT values/proc = 328509 262144
Neighbor list info ...
  update every 1 steps, delay 0 steps, check yes
  max neighbors/atom: 2000, page size: 100000
  master list distance cutoff = 14
  ghost atom cutoff = 14
  binsize = 7, bins = 58 58 58
  1 neighbor lists, perpetual/occasional/extra = 1 0 0
  (1) pair lj/cut/coul/long, perpetual
      attributes: half, newton on
      pair build: half/bin/newton
      stencil: half/bin/3d/newton
      bin: standard
Per MPI rank memory allocation (min/avg/max) = 56.32 | 56.32 | 56.32 Mbytes
Step Temp E_pair E_mol TotEng Press 
       0     372.3782    3095.5222    24576.855    31243.211  -0.24477821 
     597     372.3782    582.65073    18398.374    22551.858    2.4237471 
Loop time of 123.311 on 1 procs for 597 steps with 3218 atoms

99.7% CPU use with 1 MPI tasks x no OpenMP threads

Minimization stats:
  Stopping criterion = linesearch alpha is zero
  Energy initial, next-to-last, final = 
         27672.3773747      18981.0243182      18981.0243182
  Force two-norm initial, final = 16490.7 16.4386
  Force max component initial, final = 8908.59 1.93836
  Final line search alpha, max atom move = 3.66709e-11 7.10814e-11
  Iterations, force evaluations = 597 1242

MPI task timing breakdown:
Section |  min time  |  avg time  |  max time  |%varavg| %total
---------------------------------------------------------------
Pair    | 18.202     | 18.202     | 18.202     |   0.0 | 14.76
Bond    | 2.2323     | 2.2323     | 2.2323     |   0.0 |  1.81
Kspace  | 102.49     | 102.49     | 102.49     |   0.0 | 83.12
Neigh   | 0.25792    | 0.25792    | 0.25792    |   0.0 |  0.21
Comm    | 0.0029123  | 0.0029123  | 0.0029123  |   0.0 |  0.00
Output  | 0          | 0          | 0          |   0.0 |  0.00
Modify  | 0          | 0          | 0          |   0.0 |  0.00
Other   |            | 0.124      |            |       |  0.10

Nlocal:    3218 ave 3218 max 3218 min
Histogram: 1 0 0 0 0 0 0 0 0 0
Nghost:    0 ave 0 max 0 min
Histogram: 1 0 0 0 0 0 0 0 0 0
Neighs:    448656 ave 448656 max 448656 min
Histogram: 1 0 0 0 0 0 0 0 0 0

Total # of neighbors = 448656
Ave neighs/atom = 139.421
Ave special neighs/atom = 13.5705
Neighbor list builds = 19
Dangerous builds = 0
write_dump all custom pysimm.dump.tmp id q x y z vx vy vz
quit


################################################################################
##################################    Init    ##################################
################################################################################
units           real
atom_style      full
pair_style      lj/cut/coul/long 12.0  12.0
kspace_style    pppm 1e-4
bond_style      harmonic
angle_style     harmonic
dihedral_style  fourier
improper_style  cvff
special_bonds   amber
pair_modify     mix arithmetic
read_data       temp.lmps
  orthogonal box = (-203.897 -203.897 -203.897) to (203.897 203.897 203.897)
  1 by 1 by 1 MPI processor grid
  reading atoms ...
  3284 atoms
  reading velocities ...
  3284 velocities
  scanning bonds ...
  4 = max bonds/atom
  scanning angles ...
  6 = max angles/atom
  scanning dihedrals ...
  24 = max dihedrals/atom
  scanning impropers ...
  1 = max impropers/atom
  reading bonds ...
  3742 bonds
  reading angles ...
  7800 angles
  reading dihedrals ...
  14148 dihedrals
  reading impropers ...
  200 impropers
  4 = max # of 1-2 neighbors
  9 = max # of 1-3 neighbors
  23 = max # of 1-4 neighbors
  23 = max # of special neighbors
  special bonds CPU = 0.00287104 secs
  read_data CPU = 0.0344729 secs
################################################################################

min_style cg
minimize 1e-06 1e-06 1000000 10000000
WARNING: Using 'neigh_modify every 1 delay 0 check yes' setting during minimization (../min.cpp:190)
PPPM initialization ...
WARNING: System is not charge neutral, net charge = 5e-05 (../kspace.cpp:313)
  using 12-bit tables for long-range coulomb (../kspace.cpp:332)
  G vector (1/distance) = 0.141489
  grid = 64 64 64
  stencil order = 5
  estimated absolute RMS force accuracy = 0.00130027
  estimated relative force accuracy = 3.91573e-06
  using double precision KISS FFT
  3d grid and FFT values/proc = 328509 262144
Neighbor list info ...
  update every 1 steps, delay 0 steps, check yes
  max neighbors/atom: 2000, page size: 100000
  master list distance cutoff = 14
  ghost atom cutoff = 14
  binsize = 7, bins = 59 59 59
  1 neighbor lists, perpetual/occasional/extra = 1 0 0
  (1) pair lj/cut/coul/long, perpetual
      attributes: half, newton on
      pair build: half/bin/newton
      stencil: half/bin/3d/newton
      bin: standard
Per MPI rank memory allocation (min/avg/max) = 56.38 | 56.38 | 56.38 Mbytes
Step Temp E_pair E_mol TotEng Press 
       0    571.36624    6629.7272    25224.847    37445.964    14.261936 
     541    571.36624    665.49867    18736.211    24993.099    3.7575124 
Loop time of 111.357 on 1 procs for 541 steps with 3284 atoms

99.7% CPU use with 1 MPI tasks x no OpenMP threads

Minimization stats:
  Stopping criterion = linesearch alpha is zero
  Energy initial, next-to-last, final = 
         31854.5743089      19401.7093117      19401.7093117
  Force two-norm initial, final = 38514.9 15.51
  Force max component initial, final = 13323.9 2.27337
  Final line search alpha, max atom move = 5.03987e-11 1.14575e-10
  Iterations, force evaluations = 541 1129

MPI task timing breakdown:
Section |  min time  |  avg time  |  max time  |%varavg| %total
---------------------------------------------------------------
Pair    | 15.08      | 15.08      | 15.08      |   0.0 | 13.54
Bond    | 2.065      | 2.065      | 2.065      |   0.0 |  1.85
Kspace  | 93.847     | 93.847     | 93.847     |   0.0 | 84.28
Neigh   | 0.24997    | 0.24997    | 0.24997    |   0.0 |  0.22
Comm    | 0.0026278  | 0.0026278  | 0.0026278  |   0.0 |  0.00
Output  | 0          | 0          | 0          |   0.0 |  0.00
Modify  | 0          | 0          | 0          |   0.0 |  0.00
Other   |            | 0.1124     |            |       |  0.10

Nlocal:    3284 ave 3284 max 3284 min
Histogram: 1 0 0 0 0 0 0 0 0 0
Nghost:    0 ave 0 max 0 min
Histogram: 1 0 0 0 0 0 0 0 0 0
Neighs:    406627 ave 406627 max 406627 min
Histogram: 1 0 0 0 0 0 0 0 0 0

Total # of neighbors = 406627
Ave neighs/atom = 123.821
Ave special neighs/atom = 13.57
Neighbor list builds = 19
Dangerous builds = 0
write_dump all custom pysimm.dump.tmp id q x y z vx vy vz
quit
