pySIMM System Object

3086 atoms
3517 bonds
7332 angles
13302 dihedrals
188 impropers

5 atom types
9 bond types
18 angle types
19 dihedral types
2 improper types

-199.648108 199.648108 xlo xhi
-199.648108 199.648108 ylo yhi
-199.648108 199.648108 zlo zhi

Masses

   1	12.01	# ca
   2	12.01	# cy
   3	12.01	# c3
   4	1.008	# ha
   5	1.008	# hc

Pair Coeffs

   1	0.086	3.3996695084235347	# ca
   2	0.086	3.3996695084235347	# cy
   3	0.1094	3.3996695084235347	# c3
   4	0.015	2.59964245953351	# ha
   5	0.0157	2.649532787749369	# hc

Bond Coeffs

   1	300.9	1.5375	# c3,c3
   2	305.9	1.5319	# c3,cy
   3	345.8	1.086	# ca,ha
   4	321.0	1.5156	# c3,ca
   5	285.0	1.5562	# cy,cy
   6	330.6	1.0969	# c3,hc
   7	333.3	1.0949	# cy,hc
   8	321.2	1.5154	# ca,cy
   9	461.1	1.3984	# ca,ca

Angle Coeffs

   1	66.62	120.02	# ca,ca,ca
   2	61.4	116.81	# ca,cy,cy
   3	44.83	114.79	# cy,cy,hc
   4	46.43	110.14	# c3,cy,hc
   5	63.15	112.07	# c3,c3,ca
   6	46.34	109.8	# c3,c3,hc
   7	39.4	107.58	# hc,c3,hc
   8	48.18	119.88	# ca,ca,ha
   9	63.53	120.77	# c3,ca,ca
  10	60.66	118.7	# c3,cy,cy
  11	63.51	120.86	# ca,ca,cy
  12	62.73	112.39	# c3,c3,cy
  13	46.29	110.75	# cy,c3,hc
  14	46.8	110.47	# ca,c3,hc
  15	62.8	113.57	# c3,cy,ca
  16	62.86	111.51	# c3,c3,c3
  17	67.9	96.03	# cy,c3,cy
  18	45.97	114.53	# ca,cy,hc

Dihedral Coeffs

   1	1	0.16	3	0.0	# hc,c3,cy,cy
   2	1	0.16	3	0.0	# cy,c3,cy,hc
   3	1	0.16	3	0.0	# c3,c3,cy,hc
   4	1	0.15	3	0.0	# hc,c3,cy,hc
   5	1	3.625	2	180	# X,ca,ca,X
   6	1	0.15555555555555556	3	0	# X,cy,cy,X
   7	3	0.18	3	0	0.25	2	180	0.2	1	180	# c3,c3,c3,c3
   8	1	0.16	3	0	# hc,c3,c3,c3
   9	1	0.0	2	0.0	# ca,ca,cy,cy
  10	1	0.0	2	0.0	# ca,ca,cy,c3
  11	1	0.15555555555555556	3	0	# X,c3,c3,X
  12	1	0.0	2	0	# X,c3,ca,X
  13	3	0.38	3	180.0	0.0	2	0.0	1.15	1	0.0	# ca,ca,cy,hc
  14	3	0.18	3	0.0	0.25	2	180.0	0.2	1	180.0	# cy,c3,cy,cy
  15	1	0.16	3	0.0	# cy,c3,cy,ca
  16	1	0.16	3	0.0	# c3,c3,cy,ca
  17	1	0.16	3	0.0	# hc,c3,cy,ca
  18	1	0.15	3	0	# hc,c3,c3,hc
  19	3	0.18	3	0.0	0.25	2	180.0	0.2	1	180.0	# c3,c3,cy,cy

Improper Coeffs

   1	1.1	-1	2	# ca,ca,ca,c3
   2	1.1	-1	2	# ca,X,X,ha

Atoms

   1	1	1	-0.439951	26.1225	-13.9969	40.358
   2	1	1	0.043044	26.4759	-15.1345	39.606
   3	1	1	0.126458	27.5157	-15.0024	42.1137
   4	1	1	0.016683	27.2118	-16.194	40.1265
   5	1	1	0.121946	26.7921	-13.9433	41.5944
   6	1	2	0.005505	26.6704	-17.1924	39.1221
   7	1	1	-0.445809	27.6675	-16.2371	41.4581
   8	1	2	0.001585	25.8308	-15.9851	38.5263
   9	1	3	0.031166	24.3578	-16.4159	38.7461
  10	1	2	-0.048351	25.1482	-18.7099	38.24
  11	1	1	-0.041771	23.8555	-19.5078	38.1611
  12	1	2	-0.107179	24.3113	-17.4981	37.6334
  13	1	3	-0.106774	24.4181	-17.2559	40.0535
  14	1	3	-0.025838	25.5927	-18.1842	39.6309
  15	1	1	-0.051955	23.1315	-18.4526	37.6323
  16	1	1	-0.09124	21.1573	-19.6538	37.9113
  17	1	1	-0.099966	21.8836	-20.7165	38.423
  18	1	1	-0.017311	23.2658	-20.6753	38.6919
  19	1	1	-0.020587	21.7251	-18.4057	37.5758
  20	1	2	-0.042503	20.6498	-21.487	38.8579
  21	1	2	0.004295	19.8142	-20.2716	38.2742
  22	1	3	0.00226	19.06	-19.7547	39.5215
  23	1	3	-0.145049	20.066	-19.9888	40.6676
  24	1	3	0.011953	17.9762	-20.7996	39.8903
  25	1	3	0.014921	18.8007	-21.985	40.4649
  26	1	3	0.025749	20.2635	-21.4864	40.3542
  27	1	3	0.154129	20.9565	-17.1387	37.21
  28	1	3	-0.203386	19.7401	-17.4234	36.3017
  29	1	3	-0.113237	20.5372	-16.3368	38.4614
  30	1	3	0.129534	23.9883	-21.7661	39.4789
  31	1	3	-0.091829	24.0673	-21.4339	40.9854
  32	1	3	-0.19809	25.3882	-22.0853	38.9085
  33	1	4	0.228684	25.3333	-13.3095	40.0718
  34	1	5	0.042843	27.4276	-17.6427	38.4704
  35	1	4	0.232532	27.9785	-17.1481	41.9589
  36	1	5	0.035382	26.0608	-15.6764	37.5005
  37	1	5	0.041247	23.6084	-15.6176	38.6977
  38	1	5	0.06146	25.9655	-19.1044	37.6243
  39	1	5	0.068364	24.6065	-17.1375	36.6406
  40	1	5	0.055799	23.4889	-17.8069	40.2485
  41	1	5	0.04347	24.6506	-16.6498	40.9385
  42	1	5	0.076294	25.9349	-18.9236	40.362
  43	1	5	0.058767	20.5001	-22.4589	38.3747
  44	1	5	0.056756	19.15	-20.4984	37.4328
  45	1	5	0.029415	18.6684	-18.7352	39.4445
  46	1	5	0.049793	19.6303	-19.8142	41.6612
  47	1	5	0.063468	20.9849	-19.3951	40.5735
  48	1	5	-0.012542	17.3798	-21.0972	39.0181
  49	1	5	-0.012458	18.6386	-22.912	39.8998
  50	1	5	0.013933	20.9584	-22.0149	41.017
  51	1	5	0.014892	21.6351	-16.4963	36.6335
  52	1	5	0.04353	20.0434	-18.0034	35.421
  53	1	5	0.048722	19.2919	-16.4854	35.9512
  54	1	5	0.053734	18.9667	-17.9876	36.8358
  55	1	5	0.029251	21.3989	-16.1381	39.108
  56	1	5	0.025572	19.7959	-16.8794	39.0547
  57	1	5	0.023611	20.1002	-15.3723	38.1744
  58	1	5	0.021405	23.395	-22.6854	39.3871
  59	1	5	0.009991	24.4832	-22.2796	41.5474
  60	1	5	0.026343	23.0744	-21.2144	41.3924
  61	1	5	0.026093	24.7005	-20.5619	41.1712
  62	1	5	0.043016	26.0788	-21.2456	39.0491
  63	1	5	0.050907	25.3269	-22.3048	37.8351
  64	1	5	0.051325	25.8182	-22.9618	39.409
  65	1	1	-0.439951	36.1032	-8.88897	44.6518
  66	1	1	0.043044	35.1039	-8.25385	45.4155
  67	1	1	0.126458	35.7374	-7.05672	43.0528
  68	1	1	0.016683	34.3784	-7.15695	44.9585
  69	1	1	0.121946	36.4419	-8.15975	43.4968
  70	1	2	0.005505	33.1734	-7.46719	45.8318
  71	1	1	-0.445809	34.5895	-6.55873	43.6994
  72	1	2	0.001585	34.0053	-8.71063	46.3575
  73	1	3	0.031166	33.1688	-9.93827	45.9135
  74	1	2	-0.048351	31.1948	-8.54689	46.4299
  75	1	1	-0.041771	30.0431	-9.52597	46.2769
  76	1	2	-0.107179	32.0342	-9.79049	46.9645
  77	1	3	-0.106774	32.4975	-9.45988	44.5946
  78	1	3	-0.025838	31.9422	-8.11414	45.1397
  79	1	1	-0.051955	30.768	-10.6064	46.7525
  80	1	1	-0.09124	29.0609	-12.0395	46.0784
  81	1	1	-0.099966	28.3504	-10.9643	45.5695
  82	1	1	-0.017311	28.8354	-9.63883	45.5594
  83	1	1	-0.020587	30.3617	-11.9506	46.6105
  84	1	2	-0.042503	27.3451	-11.8469	44.8399
  85	1	2	0.004295	28.1623	-13.0768	45.4308
  86	1	3	0.00226	28.6646	-13.8063	44.1623
  87	1	3	-0.145049	28.9123	-12.6337	43.182
  88	1	3	0.011953	27.4207	-14.4991	43.5413
  89	1	3	0.014921	26.5969	-13.2833	42.9486
  90	1	3	0.025749	27.4824	-12.0556	43.3102
  91	1	3	0.154129	31.1857	-13.1824	46.9808
  92	1	3	-0.203386	32.1198	-13.6329	45.8391
  93	1	3	-0.113237	31.9749	-12.995	48.2953
  94	1	3	0.129534	28.177	-8.45173	44.8618
  95	1	3	-0.091829	26.6406	-8.44626	45.02
  96	1	3	-0.19809	28.5804	-8.35808	43.3765
  97	1	4	0.228684	36.4715	-9.88915	44.8565
  98	1	5	0.042843	32.9242	-6.6909	46.5647
  99	1	4	0.232532	33.8791	-5.88966	43.2246
 100	1	5	0.035382	34.2828	-8.71182	47.418
 101	1	5	0.041247	33.7063	-10.8908	45.8819
 102	1	5	0.06146	31.0092	-7.73056	47.1382
 103	1	5	0.068364	32.3821	-9.7447	48.0034
 104	1	5	0.055799	31.7103	-10.1405	44.2451
 105	1	5	0.04347	33.213	-9.31943	43.7785
 106	1	5	0.076294	31.3945	-7.47781	44.4353
 107	1	5	0.058767	26.3037	-11.7548	45.1678
 108	1	5	0.056756	27.622	-13.7349	46.1206
 109	1	5	0.029415	29.5158	-14.4803	44.3099
 110	1	5	0.049793	29.1688	-12.9532	42.1641
 111	1	5	0.063468	29.6949	-11.9402	43.5166
 112	1	5	-0.012542	26.8435	-15.1434	44.2175
 113	1	5	-0.012458	25.555	-13.2397	43.2923
 114	1	5	0.013933	27.2792	-11.1771	42.69
 115	1	5	0.014892	30.4807	-14.0059	47.1548
 116	1	5	0.04353	31.5691	-13.7312	44.8982
 117	1	5	0.048722	32.5727	-14.6049	46.0703
 118	1	5	0.053734	32.9288	-12.9158	45.68
 119	1	5	0.029251	32.7675	-12.246	48.1818
 120	1	5	0.025572	32.4445	-13.9382	48.6015
 121	1	5	0.023611	31.308	-12.6713	49.1043
 122	1	5	0.021405	28.546	-7.5398	45.3493
 123	1	5	0.009991	26.1799	-9.28342	44.4819
 124	1	5	0.026343	26.215	-7.51623	44.6228
 125	1	5	0.026093	26.3604	-8.52137	46.0783
 126	1	5	0.043016	28.1395	-9.1678	42.7889
 127	1	5	0.050907	29.6672	-8.42299	43.269
 128	1	5	0.051325	28.2491	-7.40658	42.9425
 129	1	1	-0.439951	27.8344	-13.7968	35.7269
 130	1	1	0.043044	28.3979	-13.8851	37.0145
 131	1	1	0.126458	28.4753	-16.1712	35.5656
 132	1	1	0.016683	29.0536	-15.0098	37.4958
 133	1	1	0.121946	27.8434	-15.0447	35.0757
 134	1	2	0.005505	29.7531	-14.2526	38.6093
 135	1	1	-0.445809	29.212	-16.203	36.7648
 136	1	2	0.001585	28.9981	-12.9638	38.0584
 137	1	3	0.031166	30.1479	-12.0271	37.6038
 138	1	2	-0.048351	31.3622	-12.8902	39.5732
 139	1	1	-0.041771	32.6061	-12.0218	39.6109
 140	1	2	-0.107179	30.6099	-11.6068	39.0258
 141	1	3	-0.106774	31.2562	-13.015	37.1425
 142	1	3	-0.025838	31.2545	-13.9137	38.4113
 143	1	1	-0.051955	31.9485	-10.8952	39.1347
 144	1	1	-0.09124	33.6443	-9.54384	40.0286
 145	1	1	-0.099966	34.3106	-10.6698	40.4958
 146	1	1	-0.017311	33.7524	-11.9627	40.4256
 147	1	1	-0.020587	32.3742	-9.58337	39.4253
 148	1	2	-0.042503	35.1065	-9.88323	41.5267
 149	1	2	0.004295	34.33	-8.60979	41.0075
 150	1	3	0.00226	35.4561	-7.69801	40.4688
 151	1	3	-0.145049	36.4667	-8.72188	39.9036
 152	1	3	0.011953	36.3075	-7.13185	41.6441
 153	1	3	0.014921	37.1043	-8.40841	42.1519
 154	1	3	0.025749	36.5852	-9.53826	41.2103
 155	1	3	0.154129	31.5058	-8.33504	39.2992
 156	1	3	-0.203386	30.6842	-8.30383	37.9919
 157	1	3	-0.113237	30.5946	-8.16021	40.5304
 158	1	3	0.129534	34.1785	-13.1398	41.297
 159	1	3	-0.091829	33.5538	-13.0488	42.7052
 160	1	3	-0.19809	35.7127	-13.2989	41.378
 161	1	4	0.228684	27.5061	-12.8708	35.2661
 162	1	5	0.042843	29.4967	-14.5833	39.622
 163	1	4	0.232532	29.8736	-17.013	37.0542
 164	1	5	0.035382	28.2663	-12.4938	38.7259
 165	1	5	0.041247	29.882	-11.2236	36.9063
 166	1	5	0.06146	31.0617	-13.2954	40.5466
 167	1	5	0.068364	29.8107	-11.1752	39.6394
 168	1	5	0.055799	32.221	-12.5203	36.972
 169	1	5	0.04347	30.9851	-13.5635	36.2311
 170	1	5	0.076294	31.9576	-14.7557	38.4248
 171	1	5	0.058767	34.9601	-10.1992	42.5621
 172	1	5	0.056756	33.654	-8.09425	41.6953
 173	1	5	0.029415	35.1291	-6.93688	39.7494
 174	1	5	0.049793	37.4175	-8.26076	39.6006
 175	1	5	0.063468	36.0794	-9.30338	39.0568
 176	1	5	-0.012542	36.9777	-6.30586	41.3718
 177	1	5	-0.012458	38.1914	-8.25475	42.1346
 178	1	5	0.013933	37.2588	-10.4014	41.1434
 179	1	5	0.014892	32.1758	-7.46564	39.2684
 180	1	5	0.04353	29.8949	-9.06385	37.9993
 181	1	5	0.048722	31.3307	-8.48394	37.1238
 182	1	5	0.053734	30.2055	-7.32546	37.8612
 183	1	5	0.029251	31.1933	-8.13063	41.4488
 184	1	5	0.025572	29.8809	-8.9885	40.6148
 185	1	5	0.023611	30.0265	-7.22381	40.466
 186	1	5	0.021405	33.7918	-14.0562	40.8319
 187	1	5	0.009991	33.9305	-12.178	43.2546
 188	1	5	0.026343	33.7879	-13.9472	43.2895
 189	1	5	0.026093	32.4621	-12.9616	42.6399
 190	1	5	0.043016	36.1706	-12.4742	41.9361
 191	1	5	0.050907	36.1526	-13.321	40.373
 192	1	5	0.051325	35.9774	-14.2351	41.8849
 193	1	1	-0.439951	34.1138	-18.3712	25.4777
 194	1	1	0.043044	34.3972	-17.1011	26.0164
 195	1	1	0.126458	32.927	-17.1062	23.7304
 196	1	1	0.016683	33.8535	-15.9216	25.5182
 197	1	1	0.121946	33.4283	-18.2823	24.2529
 198	1	2	0.005505	33.9983	-15.1812	26.8376
 199	1	1	-0.445809	33.0065	-15.8659	24.3926
 200	1	2	0.001585	34.6372	-16.5229	27.3967
 201	1	3	0.031166	33.6668	-16.9667	28.5193
 202	1	2	-0.048351	33.4293	-14.5565	29.009
 203	1	1	-0.041771	32.6209	-14.5524	30.2964
 204	1	2	-0.107179	34.0893	-15.897	29.5624
 205	1	3	-0.106774	32.2839	-16.4582	28.0213
 206	1	3	-0.025838	32.7183	-14.9999	27.7019
 207	1	1	-0.051955	33.2039	-15.7099	30.7828
 208	1	1	-0.09124	31.6948	-15.7218	32.5515
 209	1	1	-0.099966	31.0857	-14.5841	32.0485
 210	1	1	-0.017311	31.4485	-13.9766	30.826
 211	1	1	-0.020587	32.7165	-16.4316	31.8924
 212	1	2	-0.042503	29.9117	-14.6686	33.0169
 213	1	2	0.004295	30.6189	-15.9681	33.5912
 214	1	3	0.00226	29.5835	-17.0869	33.321
 215	1	3	-0.145049	28.9371	-16.6257	31.9936
 216	1	3	0.011953	28.3532	-16.9339	34.2591
 217	1	3	0.014921	27.634	-15.6349	33.6926
 218	1	3	0.025749	28.554	-15.2178	32.5059
 219	1	3	0.154129	33.1909	-17.8099	32.3469
 220	1	3	-0.203386	32.4704	-18.9487	31.5918
 221	1	3	-0.113237	34.7243	-17.9712	32.2571
 222	1	3	0.129534	30.6885	-12.8551	30.1232
 223	1	3	-0.091829	30.1313	-11.8041	31.1089
 224	1	3	-0.19809	29.5711	-13.4056	29.2097
 225	1	4	0.228684	34.303	-19.3053	25.9967
 226	1	5	0.042843	34.6488	-14.2995	26.8004
 227	1	4	0.232532	32.4036	-15.0027	24.1295
 228	1	5	0.035382	35.6909	-16.4856	27.6972
 229	1	5	0.041247	33.7354	-18.0173	28.8186
 230	1	5	0.06146	34.0911	-13.6906	28.8875
 231	1	5	0.068364	35.165	-15.8709	29.7734
 232	1	5	0.055799	31.5075	-16.5135	28.7955
 233	1	5	0.04347	31.9244	-16.9952	27.1357
 234	1	5	0.076294	31.9515	-14.3279	27.2992
 235	1	5	0.058767	29.8112	-13.8197	33.7012
 236	1	5	0.056756	30.965	-15.9273	34.6291
 237	1	5	0.029415	29.9922	-18.1035	33.3065
 238	1	5	0.049793	28.0629	-17.2297	31.7118
 239	1	5	0.063468	29.6336	-16.6098	31.145
 240	1	5	-0.012542	27.6819	-17.8022	34.2894
 241	1	5	-0.012458	26.5866	-15.8239	33.4225
 242	1	5	0.013933	28.0437	-14.5859	31.7716
 243	1	5	0.014892	32.9267	-17.915	33.4074
 244	1	5	0.04353	32.753	-18.9705	30.5358
 245	1	5	0.048722	31.3829	-18.8268	31.6403
 246	1	5	0.053734	32.7222	-19.9228	32.0289
 247	1	5	0.029251	35.0402	-18.9162	32.7165
 248	1	5	0.025572	35.231	-17.1531	32.7842
 249	1	5	0.023611	35.0658	-17.9735	31.2152
 250	1	5	0.021405	31.4018	-12.3299	29.4746
 251	1	5	0.009991	29.3345	-12.2238	31.7345
 252	1	5	0.026343	29.7144	-10.9476	30.5643
 253	1	5	0.026093	30.9259	-11.4314	31.7674
 254	1	5	0.043016	28.7816	-13.8889	29.7929
 255	1	5	0.050907	29.9673	-14.1486	28.5088
 256	1	5	0.051325	29.1145	-12.5974	28.625
 257	1	1	-0.439951	22.4741	-21.8454	22.0232
 258	1	1	0.043044	22.7732	-21.7898	23.4004
 259	1	1	0.126458	22.9342	-24.2497	22.2376
 260	1	1	0.016683	23.2358	-22.8882	24.1197
 261	1	1	0.121946	22.4793	-23.1608	21.5161
 262	1	2	0.005505	23.9744	-22.0363	25.134
 263	1	1	-0.445809	23.4424	-24.1573	23.5463
 264	1	2	0.001585	23.429	-20.7813	24.3339
 265	1	3	0.031166	24.7119	-20.0707	23.8292
 266	1	2	-0.048351	25.745	-20.7751	25.9638
 267	1	1	-0.041771	27.0961	-20.0808	25.9218
 268	1	2	-0.107179	25.1828	-19.4982	25.1964
 269	1	3	-0.106774	25.6952	-21.2486	23.5874
 270	1	3	-0.025838	25.5158	-21.94	24.9693
 271	1	1	-0.051955	26.6031	-18.9603	25.2747
 272	1	1	-0.09124	28.7797	-18.221	24.892
 273	1	1	-0.099966	29.2739	-19.369	25.4908
 274	1	1	-0.017311	28.4628	-20.4238	25.962
 275	1	1	-0.020587	27.4094	-18.0028	24.6283
 276	1	2	-0.042503	30.7125	-19.0929	25.0748
 277	1	2	0.004295	30.149	-17.7648	24.4133
 278	1	3	0.00226	30.5134	-17.9352	22.9205
 279	1	3	-0.145049	30.3494	-19.459	22.714
 280	1	3	0.011953	32.0496	-17.8147	22.7101
 281	1	3	0.014921	32.6029	-19.1643	23.3351
 282	1	3	0.025749	31.3086	-19.8557	23.8594
 283	1	3	0.154129	26.8286	-16.8952	23.7515
 284	1	3	-0.203386	27.5406	-15.5398	23.9581
 285	1	3	-0.113237	26.8009	-17.2844	22.2565
 286	1	3	0.129534	28.958	-21.7851	26.4445
 287	1	3	-0.091829	30.2199	-21.6777	27.3293
 288	1	3	-0.19809	29.1835	-22.7696	25.2757
 289	1	4	0.228684	22.3967	-20.9663	21.392
 290	1	5	0.042843	23.6328	-22.1536	26.1691
 291	1	4	0.232532	24.0608	-24.9255	23.9988
 292	1	5	0.035382	22.7327	-20.1208	24.8631
 293	1	5	0.041247	24.5735	-19.3585	23.0083
 294	1	5	0.06146	25.3581	-20.9601	26.9731
 295	1	5	0.068364	24.4304	-18.8944	25.7175
 296	1	5	0.055799	26.7246	-20.9166	23.4
 297	1	5	0.04347	25.3875	-21.8836	22.7547
 298	1	5	0.076294	26.0797	-22.8633	25.1445
 299	1	5	0.058767	31.4181	-18.9744	25.9024
 300	1	5	0.056756	30.4894	-16.8171	24.842
 301	1	5	0.029415	29.9434	-17.3097	22.2272
 302	1	5	0.049793	30.6982	-19.7966	21.7277
 303	1	5	0.063468	29.3214	-19.8167	22.8584
 304	1	5	-0.012542	32.3613	-17.685	21.6653
 305	1	5	-0.012458	33.1819	-19.7527	22.611
 306	1	5	0.013933	31.4333	-20.9335	24.0
 307	1	5	0.014892	25.7845	-16.7493	24.0583
 308	1	5	0.04353	28.5725	-15.5696	23.5895
 309	1	5	0.048722	27.5632	-15.2743	25.0225
 310	1	5	0.053734	27.0138	-14.7413	23.4209
 311	1	5	0.029251	26.3182	-18.2559	22.1096
 312	1	5	0.025572	27.8083	-17.3529	21.8384
 313	1	5	0.023611	26.2453	-16.5392	21.6737
 314	1	5	0.021405	28.1691	-22.2162	27.0747
 315	1	5	0.009991	30.0565	-20.9728	28.1542
 316	1	5	0.026343	31.0859	-21.3351	26.7505
 317	1	5	0.026093	30.4709	-22.6536	27.7635
 318	1	5	0.043016	29.3693	-23.7829	25.6528
 319	1	5	0.050907	30.0417	-22.4764	24.6654
 320	1	5	0.051325	28.3084	-22.8068	24.6185
 321	1	1	-0.439951	32.9627	-26.1033	15.3502
 322	1	1	0.043044	32.5273	-24.8257	15.7498
 323	1	1	0.126458	32.374	-25.3217	13.0925
 324	1	1	0.016683	31.9843	-23.8835	14.8851
 325	1	1	0.121946	32.946	-26.2413	13.9501
 326	1	2	0.005505	31.3455	-23.0793	16.0041
 327	1	1	-0.445809	31.7711	-24.1202	13.5121
 328	1	2	0.001585	31.945	-24.1761	16.9888
 329	1	3	0.031166	30.6843	-24.837	17.6131
 330	1	2	-0.048351	29.7477	-22.5389	17.6012
 331	1	1	-0.041771	28.4551	-22.6786	18.3866
 332	1	2	-0.107179	30.3272	-23.6692	18.5665
 333	1	3	-0.106774	29.6115	-24.7145	16.494
 334	1	3	-0.025838	29.8109	-23.2009	16.195
 335	1	1	-0.051955	28.952	-23.6766	19.2047
 336	1	1	-0.09124	26.8787	-23.8888	20.2147
 337	1	1	-0.099966	26.4016	-22.845	19.4447
 338	1	1	-0.017311	27.1288	-22.201	18.4273
 339	1	1	-0.020587	28.1886	-24.4034	20.1369
 340	1	2	-0.042503	25.0122	-22.8893	20.0507
 341	1	2	0.004295	25.5517	-24.1084	20.9198
 342	1	3	0.00226	24.6416	-25.2793	20.4641
 343	1	3	-0.145049	24.3857	-24.9471	18.9763
 344	1	3	0.011953	23.1891	-25.0937	21.0014
 345	1	3	0.014921	22.6528	-23.8537	20.1688
 346	1	3	0.025749	23.859	-23.5172	19.2367
 347	1	3	0.154129	28.7383	-25.5806	20.934
 348	1	3	-0.203386	28.2991	-25.5529	22.4145
 349	1	3	-0.113237	28.3638	-26.9209	20.2678
 350	1	3	0.129534	26.5269	-21.1377	17.5158
 351	1	3	-0.091829	26.0537	-21.7563	16.1838
 352	1	3	-0.19809	27.4843	-19.9504	17.2709
 353	1	4	0.228684	33.1954	-26.9105	16.0372
 354	1	5	0.042843	31.7317	-22.0582	16.1048
 355	1	4	0.232532	31.1501	-23.4983	12.8752
 356	1	5	0.035382	32.6898	-23.8365	17.7182
 357	1	5	0.041247	30.8171	-25.826	18.0688
 358	1	5	0.06146	30.211	-21.5465	17.6557
 359	1	5	0.068364	31.1373	-23.3819	19.2475
 360	1	5	0.055799	28.5989	-24.9475	16.8485
 361	1	5	0.04347	29.8282	-25.3528	15.6278
 362	1	5	0.076294	29.185	-22.7634	15.4084
 363	1	5	0.058767	24.7207	-21.9747	20.5734
 364	1	5	0.056756	25.5922	-23.9898	22.0047
 365	1	5	0.029415	25.0509	-26.2805	20.643
 366	1	5	0.049793	23.6312	-25.601	18.5165
 367	1	5	0.063468	25.2925	-24.9763	18.3579
 368	1	5	-0.012542	22.5423	-25.9752	20.9001
 369	1	5	-0.012458	21.716	-24.0828	19.6439
 370	1	5	0.013933	23.5795	-22.9642	18.3313
 371	1	5	0.014892	29.8339	-25.5097	20.9263
 372	1	5	0.04353	28.8271	-26.3243	22.9887
 373	1	5	0.048722	27.2229	-25.7357	22.5152
 374	1	5	0.053734	28.528	-24.5792	22.8641
 375	1	5	0.029251	27.2769	-27.0642	20.2543
 376	1	5	0.025572	28.8141	-27.7635	20.8072
 377	1	5	0.023611	28.7229	-26.9508	19.2315
 378	1	5	0.021405	25.6386	-20.7308	18.0167
 379	1	5	0.009991	25.5571	-21.0034	15.5588
 380	1	5	0.026343	25.3392	-22.5685	16.3679
 381	1	5	0.026093	26.8971	-22.1685	15.618
 382	1	5	0.043016	26.9705	-19.146	16.7298
 383	1	5	0.050907	28.3529	-20.2545	16.6753
 384	1	5	0.051325	27.8441	-19.5415	18.2236
 385	1	1	-0.439951	24.7389	-33.825	8.06396
 386	1	1	0.043044	25.5674	-33.4294	9.13056
 387	1	1	0.126458	25.4841	-36.1073	8.58749
 388	1	1	0.016683	26.2049	-34.3437	9.96369
 389	1	1	0.121946	24.8292	-35.1984	7.76832
 390	1	2	0.005505	26.1875	-33.4111	11.1608
 391	1	1	-0.445809	26.0971	-35.737	9.79894
 392	1	2	0.001585	25.4724	-32.3658	10.2099
 393	1	3	0.031166	26.4828	-31.1897	10.1269
 394	1	2	-0.048351	26.9407	-31.6769	12.5129
 395	1	1	-0.041771	27.8339	-30.5237	12.9427
 396	1	2	-0.107179	26.23	-30.6248	11.5504
 397	1	3	-0.106774	27.8653	-31.8873	10.266
 398	1	3	-0.025838	27.5287	-32.7271	11.5307
 399	1	1	-0.051955	27.2203	-29.6127	12.1002
 400	1	1	-0.09124	28.8651	-28.0377	12.5906
 401	1	1	-0.099966	29.462	-28.9426	13.4528
 402	1	1	-0.017311	29.0575	-30.2832	13.6023
 403	1	1	-0.020587	27.7553	-28.3501	11.7749
 404	1	2	-0.042503	30.7029	-28.0945	13.6536
 405	1	2	0.004295	30.026	-27.053	12.6661
 406	1	3	0.00226	31.0342	-26.9919	11.4893
 407	1	3	-0.145049	31.5556	-28.4468	11.4251
 408	1	3	0.011953	32.3537	-26.2797	11.9135
 409	1	3	0.014921	33.02	-27.3328	12.8987
 410	1	3	0.025749	31.9962	-28.5027	12.9065
 411	1	3	0.154129	27.189	-27.4746	10.66
 412	1	3	-0.203386	27.1949	-25.9724	11.0206
 413	1	3	-0.113237	27.906	-27.7229	9.3148
 414	1	3	0.129534	29.8785	-31.3125	14.3751
 415	1	3	-0.091829	30.8063	-32.1279	13.4477
 416	1	3	-0.19809	29.0008	-32.2452	15.2389
 417	1	4	0.228684	23.9713	-33.183	7.64423
 418	1	5	0.042843	25.6333	-33.7939	12.0259
 419	1	4	0.232532	26.2856	-36.4428	10.6015
 420	1	5	0.035382	24.4498	-32.0539	10.4525
 421	1	5	0.041247	26.3539	-30.4983	9.28602
 422	1	5	0.06146	26.3303	-32.1038	13.3177
 423	1	5	0.068364	25.1796	-30.3899	11.7601
 424	1	5	0.055799	28.6856	-31.177	10.4333
 425	1	5	0.04347	28.1185	-32.5076	9.39656
 426	1	5	0.076294	28.3109	-33.391	11.9127
 427	1	5	0.058767	30.8722	-27.7649	14.6835
 428	1	5	0.056756	29.7771	-26.0709	13.0811
 429	1	5	0.029415	30.6276	-26.6077	10.5484
 430	1	5	0.049793	32.3947	-28.5693	10.7256
 431	1	5	0.063468	30.7814	-29.1814	11.1675
 432	1	5	-0.012542	33.0197	-26.0083	11.0838
 433	1	5	-0.012458	34.0361	-27.6092	12.5877
 434	1	5	0.013933	32.4329	-29.457	13.2218
 435	1	5	0.014892	26.1383	-27.7598	10.5183
 436	1	5	0.04353	26.661	-25.3904	10.2591
 437	1	5	0.048722	28.2168	-25.5813	11.0875
 438	1	5	0.053734	26.6983	-25.8051	11.9847
 439	1	5	0.029251	27.898	-28.7873	9.05581
 440	1	5	0.025572	28.9501	-27.3992	9.35161
 441	1	5	0.023611	27.4101	-27.1741	8.50442
 442	1	5	0.021405	30.5275	-30.7613	15.0682
 443	1	5	0.009991	30.2355	-32.7802	12.7811
 444	1	5	0.026343	31.4841	-32.7583	14.0367
 445	1	5	0.026093	31.4174	-31.4679	12.8224
 446	1	5	0.043016	28.3836	-32.9032	14.6158
 447	1	5	0.050907	28.3354	-31.6593	15.8855
 448	1	5	0.051325	29.6258	-32.8782	15.881
 449	1	1	-0.439951	24.199	-44.8545	1.17122
 450	1	1	0.043044	24.8212	-43.7491	0.556586
 451	1	1	0.126458	22.2005	-44.1432	-0.0714415
 452	1	1	0.016683	24.1391	-42.8373	-0.243654
 453	1	1	0.121946	22.8799	-45.0523	0.717933
 454	1	2	0.005505	25.1321	-41.7171	0.0186551
 455	1	1	-0.445809	22.7575	-42.9264	-0.511191
 456	1	2	0.001585	25.9072	-42.7545	0.934148
 457	1	3	0.031166	25.8321	-42.1268	2.35235
 458	1	2	-0.048351	26.0928	-39.9497	1.20056
 459	1	1	-0.041771	26.2531	-38.9687	2.35143
 460	1	2	-0.107179	26.8684	-40.9908	2.12459
 461	1	3	-0.106774	24.4742	-41.3692	2.34055
 462	1	3	-0.025838	24.6954	-40.6021	1.0055
 463	1	1	-0.051955	26.9245	-39.8727	3.1551
 464	1	1	-0.09124	26.6749	-38.4391	4.97835
 465	1	1	-0.099966	26.0052	-37.5318	4.17048
 466	1	1	-0.017311	25.6762	-37.7707	2.81764
 467	1	1	-0.020587	27.112	-39.71	4.54247
 468	1	2	-0.042503	25.5328	-36.6845	5.34294
 469	1	2	0.004295	26.2981	-37.7223	6.26855
 470	1	3	0.00226	25.1588	-38.3189	7.13576
 471	1	3	-0.145049	23.9694	-38.3324	6.15059
 472	1	3	0.011953	24.6155	-37.2729	8.15199
 473	1	3	0.014921	23.8622	-36.2368	7.22733
 474	1	3	0.025749	24.0605	-36.8292	5.80374
 475	1	3	0.154129	27.7312	-40.7929	5.42412
 476	1	3	-0.203386	28.675	-40.2164	6.50257
 477	1	3	-0.113237	26.671	-41.712	6.06031
 478	1	3	0.129534	24.8321	-36.8583	1.92866
 479	1	3	-0.091829	25.0989	-35.3597	2.19277
 480	1	3	-0.19809	23.3247	-37.1693	2.01712
 481	1	4	0.228684	24.6364	-45.4077	1.9961
 482	1	5	0.042843	25.6568	-41.3518	-0.871913
 483	1	4	0.232532	22.1643	-42.1011	-0.891947
 484	1	5	0.035382	26.9184	-43.0366	0.618697
 485	1	5	0.041247	26.015	-42.8112	3.1877
 486	1	5	0.06146	26.5848	-39.6473	0.268322
 487	1	5	0.068364	27.8466	-41.3379	1.77112
 488	1	5	0.055799	24.3487	-40.7019	3.20302
 489	1	5	0.04347	23.6132	-42.0447	2.30506
 490	1	5	0.076294	23.8827	-39.9541	0.661019
 491	1	5	0.058767	25.897	-35.6513	5.35415
 492	1	5	0.056756	27.1379	-37.3334	6.85487
 493	1	5	0.029415	25.3808	-39.2839	7.60058
 494	1	5	0.049793	23.0255	-38.5976	6.6378
 495	1	5	0.063468	24.1124	-38.9972	5.28871
 496	1	5	-0.012542	23.9644	-37.6824	8.93532
 497	1	5	-0.012458	22.8156	-36.0955	7.52787
 498	1	5	0.013933	23.3098	-36.4759	5.09103
 499	1	5	0.014892	28.3489	-41.4268	4.77443
 500	1	5	0.04353	28.1191	-39.6459	7.25598
 501	1	5	0.048722	29.4207	-39.552	6.04821
 502	1	5	0.053734	29.2101	-41.0233	7.01857
 503	1	5	0.029251	27.1452	-42.573	6.54739
 504	1	5	0.025572	25.986	-42.0894	5.29726
 505	1	5	0.023611	26.0775	-41.185	6.81182
 506	1	5	0.021405	25.1327	-37.049	0.890046
 507	1	5	0.009991	24.7308	-35.0553	3.17986
 508	1	5	0.026343	24.5948	-34.7397	1.44095
 509	1	5	0.026093	26.1735	-35.1429	2.14358
 510	1	5	0.043016	22.7643	-36.591	1.27215
 511	1	5	0.050907	22.9206	-36.9288	3.00367
 512	1	5	0.051325	23.1399	-38.2296	1.82987
 513	1	1	-0.439951	19.5928	-36.5505	9.77105
 514	1	1	0.043044	19.9017	-37.8504	9.32542
 515	1	1	0.126458	20.6062	-37.2611	11.8904
 516	1	1	0.016683	20.6231	-38.7627	10.0923
 517	1	1	0.121946	19.8775	-36.3588	11.1355
 518	1	2	0.005505	21.1862	-39.4817	8.88375
 519	1	1	-0.445809	21.1188	-38.4647	11.3758
 520	1	2	0.001585	20.3719	-38.4392	8.00777
 521	1	3	0.031166	19.3702	-39.3238	7.21659
 522	1	2	-0.048351	21.2085	-40.9732	7.11589
 523	1	1	-0.041771	20.6747	-42.0388	6.17146
 524	1	2	-0.107179	20.4092	-39.9299	6.23476
 525	1	3	-0.106774	19.0752	-40.496	8.19129
 526	1	3	-0.025838	20.5524	-40.8511	8.5165
 527	1	1	-0.051955	19.9794	-41.1182	5.39356
 528	1	1	-0.09124	20.1331	-42.5609	3.53324
 529	1	1	-0.099966	20.8128	-43.487	4.31783
 530	1	1	-0.017311	21.2156	-43.2277	5.64015
 531	1	1	-0.020587	19.7815	-41.2807	4.00901
 532	1	2	-0.042503	21.5287	-44.1112	3.13454
 533	1	2	0.004295	20.7549	-43.0696	2.24044
 534	1	3	0.00226	19.9114	-43.9745	1.30832
 535	1	3	-0.145049	19.5687	-45.1703	2.2247
 536	1	3	0.011953	20.8303	-44.7045	0.280387
 537	1	3	0.014921	21.611	-45.7504	1.18512
 538	1	3	0.025749	21.0332	-45.4775	2.60701
 539	1	3	0.154129	19.4362	-40.0932	3.1134
 540	1	3	-0.203386	20.6995	-39.4225	2.53532
 541	1	3	-0.113237	18.4434	-40.4633	1.99004
 542	1	3	0.129534	22.2931	-44.0714	6.31747
 543	1	3	-0.091829	22.0141	-44.3025	7.81859
 544	1	3	-0.19809	23.7031	-43.4865	6.10179
 545	1	4	0.228684	19.3248	-35.739	9.10224
 546	1	5	0.042843	22.2806	-39.4734	8.82923
 547	1	4	0.232532	21.9317	-39.0109	11.8433
 548	1	5	0.035382	20.9257	-37.7346	7.37759
 549	1	5	0.041247	18.5047	-38.8164	6.77237
 550	1	5	0.06146	22.3008	-40.8975	7.13867
 551	1	5	0.068364	20.9741	-39.1726	5.68057
 552	1	5	0.055799	18.5359	-41.322	7.70982
 553	1	5	0.04347	18.5083	-40.1804	9.07668
 554	1	5	0.076294	20.7182	-41.6749	9.22121
 555	1	5	0.058767	22.6186	-44.0476	3.18017
 556	1	5	0.056756	21.339	-42.3295	1.69009
 557	1	5	0.029415	19.0389	-43.4897	0.853969
 558	1	5	0.049793	19.0859	-45.9975	1.68518
 559	1	5	0.063468	18.9386	-44.8995	3.08208
 560	1	5	-0.012542	20.3002	-45.1884	-0.550534
 561	1	5	-0.012458	21.4901	-46.7813	0.827205
 562	1	5	0.013933	21.1558	-46.3147	3.3055
 563	1	5	0.014892	18.9338	-39.3431	3.73826
 564	1	5	0.04353	20.4379	-38.4977	2.00629
 565	1	5	0.048722	21.2171	-40.0809	1.8293
 566	1	5	0.053734	21.4025	-39.1673	3.33721
 567	1	5	0.029251	18.9073	-41.1243	1.24941
 568	1	5	0.025572	18.1004	-39.5621	1.46658
 569	1	5	0.023611	17.5625	-40.9709	2.40269
 570	1	5	0.021405	22.2821	-45.0619	5.84373
 571	1	5	0.009991	22.1371	-43.3783	8.39411
 572	1	5	0.026343	22.7084	-45.0463	8.22903
 573	1	5	0.026093	20.9925	-44.6728	7.97132
 574	1	5	0.043016	23.9048	-43.3423	5.03381
 575	1	5	0.050907	24.469	-44.1619	6.50279
 576	1	5	0.051325	23.81	-42.5177	6.60157
 577	1	1	-0.439951	14.0922	-36.1764	21.1656
 578	1	1	0.043044	14.5372	-34.9064	20.7918
 579	1	1	0.126458	11.9543	-35.5667	20.0958
 580	1	1	0.016683	13.7767	-34.0356	20.0611
 581	1	1	0.121946	12.74	-36.4885	20.856
 582	1	2	0.005505	14.9614	-33.1658	19.6556
 583	1	1	-0.445809	12.4773	-34.3313	19.6434
 584	1	2	0.001585	15.843	-34.1758	20.5109
 585	1	3	0.031166	16.9215	-34.6826	19.5045
 586	1	2	-0.048351	15.2271	-34.6009	17.707
 587	1	1	-0.041771	15.9852	-35.1303	16.503
 588	1	2	-0.107179	16.1062	-35.6111	18.5639
 589	1	3	-0.106774	17.119	-33.4033	18.6434
 590	1	3	-0.025838	15.6294	-33.2011	18.2441
 591	1	1	-0.051955	16.7463	-36.0133	17.2463
 592	1	1	-0.09124	17.9699	-36.5482	15.3476
 593	1	1	-0.099966	17.2259	-35.6458	14.607
 594	1	1	-0.017311	16.2334	-34.8055	15.1553
 595	1	1	-0.020587	17.8527	-36.7259	16.7394
 596	1	2	-0.042503	18.105	-35.7847	13.3722
 597	1	2	0.004295	18.9538	-36.8215	14.2267
 598	1	3	0.00226	20.3519	-36.1594	14.2955
 599	1	3	-0.145049	20.0072	-34.6526	14.3361
 600	1	3	0.011953	21.0431	-36.218	12.9032
 601	1	3	0.014921	20.2033	-35.1853	12.0434
 602	1	3	0.025749	19.1383	-34.6723	13.0576
 603	1	3	0.154129	18.8234	-37.576	17.5543
 604	1	3	-0.203386	19.9642	-36.7229	18.1504
 605	1	3	-0.113237	18.1179	-38.4011	18.6533
 606	1	3	0.129534	15.5129	-33.6753	14.4268
 607	1	3	-0.091829	15.163	-34.0364	12.9661
 608	1	3	-0.19809	16.3136	-32.3566	14.4951
 609	1	4	0.228684	14.7732	-36.8954	21.6081
 610	1	5	0.042843	14.9429	-32.1448	20.0526
 611	1	4	0.232532	11.9258	-33.686	18.9671
 612	1	5	0.035382	16.3152	-33.7208	21.3886
 613	1	5	0.041247	17.8221	-35.1122	19.9559
 614	1	5	0.06146	14.149	-34.7761	17.648
 615	1	5	0.068364	15.5986	-36.4408	19.0628
 616	1	5	0.055799	17.7783	-33.5652	17.7804
 617	1	5	0.04347	17.5097	-32.5626	19.2323
 618	1	5	0.076294	15.4096	-32.3493	17.5899
 619	1	5	0.058767	17.5985	-36.1745	12.4824
 620	1	5	0.056756	18.9758	-37.8586	13.8739
 621	1	5	0.029415	20.9908	-36.5078	15.1153
 622	1	5	0.049793	20.8934	-34.0097	14.2391
 623	1	5	0.063468	19.4561	-34.3509	15.2365
 624	1	5	-0.012542	22.1166	-35.9868	12.9046
 625	1	5	-0.012458	20.8329	-34.4059	11.5938
 626	1	5	0.013933	18.7096	-33.7036	12.7791
 627	1	5	0.014892	19.2875	-38.2974	16.869
 628	1	5	0.04353	20.4792	-36.1566	17.3663
 629	1	5	0.048722	20.7046	-37.3597	18.6503
 630	1	5	0.053734	19.5826	-36.0054	18.8833
 631	1	5	0.029251	17.7117	-37.7549	19.4403
 632	1	5	0.025572	18.8216	-39.0998	19.1227
 633	1	5	0.023611	17.293	-38.9868	18.2283
 634	1	5	0.021405	14.5608	-33.5005	14.9449
 635	1	5	0.009991	16.0647	-34.1277	12.3489
 636	1	5	0.026343	14.5273	-33.2619	12.5191
 637	1	5	0.026093	14.6178	-34.9876	12.9227
 638	1	5	0.043016	16.5369	-32.0881	15.5338
 639	1	5	0.050907	15.745	-31.5327	14.0462
 640	1	5	0.051325	17.2655	-32.4428	13.9613
 641	1	1	-0.439951	12.7224	-42.2919	31.2327
 642	1	1	0.043044	13.3389	-42.9377	30.1604
 643	1	1	0.126458	14.9278	-41.2916	31.7008
 644	1	1	0.016683	14.6587	-42.7649	29.8462
 645	1	1	0.121946	13.548	-41.4692	32.044
 646	1	2	0.005505	14.506	-43.3132	28.433
 647	1	1	-0.445809	15.5007	-41.915	30.5666
 648	1	2	0.001585	12.9704	-43.5039	28.7957
 649	1	3	0.031166	12.2223	-42.6936	27.6892