pySIMM System Object

2030 atoms
2317 bonds
4836 angles
8790 dihedrals
124 impropers

5 atom types
9 bond types
18 angle types
19 dihedral types
2 improper types

-173.135585 173.135585 xlo xhi
-173.135585 173.135585 ylo yhi
-173.135585 173.135585 zlo zhi

Masses

   1	12.01	# ca
   2	12.01	# cy
   3	12.01	# c3
   4	1.008	# ha
   5	1.008	# hc

Pair Coeffs

   1	0.086	3.3996695084235347	# ca
   2	0.086	3.3996695084235347	# cy
   3	0.1094	3.3996695084235347	# c3
   4	0.015	2.59964245953351	# ha
   5	0.0157	2.649532787749369	# hc

Bond Coeffs

   1	300.9	1.5375	# c3,c3
   2	305.9	1.5319	# c3,cy
   3	345.8	1.086	# ca,ha
   4	321.0	1.5156	# c3,ca
   5	285.0	1.5562	# cy,cy
   6	330.6	1.0969	# c3,hc
   7	333.3	1.0949	# cy,hc
   8	321.2	1.5154	# ca,cy
   9	461.1	1.3984	# ca,ca

Angle Coeffs

   1	66.62	120.02	# ca,ca,ca
   2	61.4	116.81	# ca,cy,cy
   3	44.83	114.79	# cy,cy,hc
   4	46.43	110.14	# c3,cy,hc
   5	63.15	112.07	# c3,c3,ca
   6	46.34	109.8	# c3,c3,hc
   7	39.4	107.58	# hc,c3,hc
   8	48.18	119.88	# ca,ca,ha
   9	63.53	120.77	# c3,ca,ca
  10	60.66	118.7	# c3,cy,cy
  11	63.51	120.86	# ca,ca,cy
  12	62.73	112.39	# c3,c3,cy
  13	46.29	110.75	# cy,c3,hc
  14	46.8	110.47	# ca,c3,hc
  15	62.8	113.57	# c3,cy,ca
  16	62.86	111.51	# c3,c3,c3
  17	67.9	96.03	# cy,c3,cy
  18	45.97	114.53	# ca,cy,hc

Dihedral Coeffs

   1	1	0.16	3	0.0	# hc,c3,cy,cy
   2	1	0.16	3	0.0	# cy,c3,cy,hc
   3	1	0.16	3	0.0	# c3,c3,cy,hc
   4	1	0.15	3	0.0	# hc,c3,cy,hc
   5	1	3.625	2	180	# X,ca,ca,X
   6	1	0.15555555555555556	3	0	# X,cy,cy,X
   7	3	0.18	3	0	0.25	2	180	0.2	1	180	# c3,c3,c3,c3
   8	1	0.16	3	0	# hc,c3,c3,c3
   9	1	0.0	2	0.0	# ca,ca,cy,cy
  10	1	0.0	2	0.0	# ca,ca,cy,c3
  11	1	0.15555555555555556	3	0	# X,c3,c3,X
  12	1	0.0	2	0	# X,c3,ca,X
  13	3	0.38	3	180.0	0.0	2	0.0	1.15	1	0.0	# ca,ca,cy,hc
  14	3	0.18	3	0.0	0.25	2	180.0	0.2	1	180.0	# cy,c3,cy,cy
  15	1	0.16	3	0.0	# cy,c3,cy,ca
  16	1	0.16	3	0.0	# c3,c3,cy,ca
  17	1	0.16	3	0.0	# hc,c3,cy,ca
  18	1	0.15	3	0	# hc,c3,c3,hc
  19	3	0.18	3	0.0	0.25	2	180.0	0.2	1	180.0	# c3,c3,cy,cy

Improper Coeffs

   1	1.1	-1	2	# ca,ca,ca,c3
   2	1.1	-1	2	# ca,X,X,ha

Atoms

   1	1	1	-0.439951	28.1461	29.7503	-38.3952
   2	1	1	0.043044	28.1575	28.7232	-39.3594
   3	1	1	0.126458	30.056	30.6505	-39.6462
   4	1	1	0.016683	29.1359	28.6152	-40.3432
   5	1	1	0.121946	29.073	30.7699	-38.6794
   6	1	2	0.005505	28.9559	27.1172	-40.4963
   7	1	1	-0.445809	30.2151	29.5124	-40.456
   8	1	2	0.001585	27.8508	27.2361	-39.3663
   9	1	3	0.031166	28.4295	26.394	-38.1976
  10	1	2	-0.048351	29.2803	24.8757	-39.9639
  11	1	1	-0.041771	29.8188	23.6915	-39.1753
  12	1	2	-0.107179	28.176	24.9968	-38.823
  13	1	3	-0.106774	29.9678	26.5683	-38.3493
  14	1	3	-0.025838	30.0502	26.22	-39.8636
  15	1	1	-0.051955	28.8625	23.8048	-38.1796
  16	1	1	-0.09124	30.0233	22.2602	-36.8785
  17	1	1	-0.099966	30.9609	22.1225	-37.8887
  18	1	1	-0.017311	30.9912	22.9146	-39.0531
  19	1	1	-0.020587	28.9632	23.1919	-36.9151
  20	1	2	-0.042503	31.9074	21.2913	-37.0413
  21	1	2	0.004295	30.8387	21.4497	-35.88
  22	1	3	0.00226	31.6435	22.1899	-34.7858
  23	1	3	-0.145049	32.5806	23.1108	-35.5946
  24	1	3	0.011953	32.6772	21.1955	-34.1981
  25	1	3	0.014921	33.7216	21.0466	-35.3391
  26	1	3	0.025749	33.1648	21.9692	-36.4521
  27	1	3	0.154129	28.0361	23.5417	-35.7538
  28	1	3	-0.203386	27.611	22.3012	-34.9378
  29	1	3	-0.113237	28.6436	24.6253	-34.836
  30	1	3	0.129534	32.1703	22.9098	-40.0235
  31	1	3	-0.091829	33.1925	24.0223	-39.7022
  32	1	3	-0.19809	31.7252	22.9773	-41.5014
  33	1	4	0.228684	27.5904	29.6921	-37.4649
  34	1	5	0.042843	28.6199	26.7939	-41.4887
  35	1	4	0.232532	31.1314	29.2846	-40.991
  36	1	5	0.035382	26.8227	26.9788	-39.6474
  37	1	5	0.041247	28.0	26.5817	-37.2069
  38	1	5	0.06146	28.926	24.6316	-40.9728
  39	1	5	0.068364	27.1351	24.8184	-39.1186
  40	1	5	0.055799	30.5398	25.8734	-37.7209
  41	1	5	0.04347	30.305	27.5884	-38.1256
  42	1	5	0.076294	31.0363	26.2713	-40.3355
  43	1	5	0.058767	32.0943	20.2718	-37.3966
  44	1	5	0.056756	30.372	20.5259	-35.5203
  45	1	5	0.029415	31.0436	22.6909	-34.0193
  46	1	5	0.049793	33.3372	23.606	-34.9701
  47	1	5	0.063468	32.0493	23.8728	-36.1801
  48	1	5	-0.012542	32.2173	20.2347	-33.9327
  49	1	5	-0.012458	33.8172	20.0065	-35.6771
  50	1	5	0.013933	33.919	22.2747	-37.1865
  51	1	5	0.014892	27.1183	23.9659	-36.1817
  52	1	5	0.04353	27.1899	21.5314	-35.5967
  53	1	5	0.048722	26.8462	22.5691	-34.1982
  54	1	5	0.053734	28.4618	21.8663	-34.4004
  55	1	5	0.029251	28.9677	25.4964	-35.4157
  56	1	5	0.025572	29.5137	24.2476	-34.2919
  57	1	5	0.023611	27.906	24.9651	-34.0984
  58	1	5	0.021405	32.6938	21.953	-39.8973
  59	1	5	0.009991	34.0939	23.9083	-40.3173
  60	1	5	0.026343	33.4953	23.9876	-38.6501
  61	1	5	0.026093	32.7786	25.0158	-39.8947
  62	1	5	0.043016	31.2764	23.9486	-41.7401
  63	1	5	0.050907	30.9876	22.1944	-41.7185
  64	1	5	0.051325	32.5826	22.829	-42.1697
  65	1	1	-0.439951	28.0586	39.902	-44.1043
  66	1	1	0.043044	28.3205	40.3933	-42.8091
  67	1	1	0.126458	25.7038	39.9253	-43.4074
  68	1	1	0.016683	27.3337	40.536	-41.8344
  69	1	1	0.121946	26.6825	39.7842	-44.3717
  70	1	2	0.005505	28.3102	40.3492	-40.6839
  71	1	1	-0.445809	25.981	40.2016	-42.0551
  72	1	2	0.001585	29.428	40.1816	-41.7925
  73	1	3	0.031166	29.9224	38.7234	-41.6083
  74	1	2	-0.048351	29.6245	39.1252	-39.1899
  75	1	1	-0.041771	30.1978	37.8664	-38.5617
  76	1	2	-0.107179	30.7416	38.9457	-40.3089
  77	1	3	-0.106774	28.659	37.9741	-41.0991
  78	1	3	-0.025838	28.2886	38.9739	-39.9672
  79	1	1	-0.051955	31.1723	37.7066	-39.536
  80	1	1	-0.09124	31.5574	35.5345	-38.7766
  81	1	1	-0.099966	30.5664	35.684	-37.8194
  82	1	1	-0.017311	29.7576	36.8352	-37.7067
  83	1	1	-0.020587	31.8525	36.491	-39.7676
  84	1	2	-0.042503	30.5225	34.1958	-37.4901
  85	1	2	0.004295	31.662	34.0322	-38.5868
  86	1	3	0.00226	31.0072	33.1061	-39.6398
  87	1	3	-0.145049	29.5229	33.5442	-39.5885
  88	1	3	0.011953	30.9541	31.6912	-39.0044
  89	1	3	0.014921	29.8261	31.8379	-37.9045
  90	1	3	0.025749	29.3786	33.32	-38.0638
  91	1	3	0.154129	32.8067	36.2004	-40.9261
  92	1	3	-0.203386	32.0848	35.6831	-42.1886
  93	1	3	-0.113237	33.7127	37.4043	-41.2655
  94	1	3	0.129534	28.5569	36.9964	-36.7755
  95	1	3	-0.091829	28.8213	36.412	-35.3702
  96	1	3	-0.19809	27.2532	36.4265	-37.3715
  97	1	4	0.228684	28.8281	39.518	-44.7664
  98	1	5	0.042843	28.4022	41.2089	-40.0101
  99	1	4	0.232532	25.2661	40.0363	-41.2556
 100	1	5	0.035382	30.2266	40.9324	-41.8138
 101	1	5	0.041247	30.4441	38.2941	-42.4675
 102	1	5	0.06146	29.6855	40.0235	-38.5639
 103	1	5	0.068364	31.5013	39.7329	-40.3822
 104	1	5	0.055799	28.8779	36.9643	-40.7296
 105	1	5	0.04347	27.8812	37.8931	-41.862
 106	1	5	0.076294	27.3898	38.7558	-39.3807
 107	1	5	0.058767	30.7957	33.9257	-36.464
 108	1	5	0.056756	32.6309	33.6635	-38.2317
 109	1	5	0.029415	31.4667	33.1195	-40.6339
 110	1	5	0.049793	28.8531	32.9195	-40.1937
 111	1	5	0.063468	29.3622	34.5862	-39.8931
 112	1	5	-0.012542	31.9062	31.3021	-38.6199
 113	1	5	-0.012458	30.1423	31.5384	-36.8966
 114	1	5	0.013933	28.3811	33.5129	-37.6592
 115	1	5	0.014892	33.4739	35.3931	-40.5962
 116	1	5	0.04353	31.3475	34.9157	-41.9346
 117	1	5	0.048722	32.8047	35.2444	-42.8905
 118	1	5	0.053734	31.5619	36.486	-42.7122
 119	1	5	0.029251	33.1319	38.2359	-41.6821
 120	1	5	0.025572	34.472	37.1201	-42.0048
 121	1	5	0.023611	34.2321	37.7631	-40.368
 122	1	5	0.021405	28.3951	38.0738	-36.6394
 123	1	5	0.009991	28.9136	35.3196	-35.4028
 124	1	5	0.026343	27.9995	36.6607	-34.6872
 125	1	5	0.026093	29.7474	36.8227	-34.9484
 126	1	5	0.043016	27.2613	35.3341	-37.3853
 127	1	5	0.050907	27.1102	36.773	-38.3987
 128	1	5	0.051325	26.3864	36.7459	-36.7799
 129	1	1	-0.439951	23.8652	27.5355	-42.2894
 130	1	1	0.043044	25.1107	28.1866	-42.1869
 131	1	1	0.126458	24.8942	26.3389	-44.1753
 132	1	1	0.016683	26.135	28.0196	-43.1153
 133	1	1	0.121946	23.8617	26.5342	-43.2778
 134	1	2	0.005505	26.7357	29.3911	-42.8481
 135	1	1	-0.445809	26.0451	27.1498	-44.2209
 136	1	2	0.001585	25.5766	29.5706	-41.7779
 137	1	3	0.031166	24.7559	30.7724	-42.3102
 138	1	2	-0.048351	26.9344	31.7076	-43.0064
 139	1	1	-0.041771	26.5453	33.0973	-43.4794
 140	1	2	-0.107179	25.7774	31.8767	-41.9251
 141	1	3	-0.106774	24.9123	30.6586	-43.8532
 142	1	3	-0.025838	26.4588	30.5169	-43.8829
 143	1	1	-0.051955	25.5465	33.2475	-42.5336
 144	1	1	-0.09124	25.3624	35.4966	-43.0935
 145	1	1	-0.099966	26.3534	35.346	-44.0504
 146	1	1	-0.017311	27.0757	34.1502	-44.2476
 147	1	1	-0.020587	24.9491	34.4815	-42.2119
 148	1	2	-0.042503	26.521	36.845	-44.2481
 149	1	2	0.004295	25.3915	37.0116	-43.1461
 150	1	3	0.00226	24.254	37.7292	-43.9116
 151	1	3	-0.145049	24.3848	37.1344	-45.333
 152	1	3	0.011953	24.6458	39.2042	-44.2286
 153	1	3	0.014921	25.7727	39.0401	-45.3355
 154	1	3	0.025749	25.879	37.4933	-45.5006
 155	1	3	0.154129	24.0854	34.75	-40.9856
 156	1	3	-0.203386	22.9386	33.7288	-40.8311
 157	1	3	-0.113237	24.9504	34.8119	-39.7107
 158	1	3	0.129534	28.3266	34.0012	-45.1061
 159	1	3	-0.091829	29.4505	34.9664	-44.6739
 160	1	3	-0.19809	28.0001	34.1584	-46.6059
 161	1	4	0.228684	22.9723	27.8616	-41.7658
 162	1	5	0.042843	27.7646	29.378	-42.4775
 163	1	4	0.232532	26.7095	27.197	-45.0777
 164	1	5	0.035382	25.8739	29.6596	-40.7271
 165	1	5	0.041247	23.7342	30.877	-41.9265
 166	1	5	0.06146	27.9674	31.6145	-42.6492
 167	1	5	0.068364	26.0552	31.8816	-40.8643
 168	1	5	0.055799	24.5518	31.548	-44.386
 169	1	5	0.04347	24.4037	29.7835	-44.2693
 170	1	5	0.076294	26.9273	30.4099	-44.8691
 171	1	5	0.058767	27.5176	37.2353	-44.0297
 172	1	5	0.056756	25.6434	37.4969	-42.199
 173	1	5	0.029415	23.258	37.6207	-43.4644
 174	1	5	0.049793	23.7403	37.638	-46.0675
 175	1	5	0.063468	24.1836	36.0562	-45.3811
 176	1	5	-0.012542	23.8167	39.837	-44.5719
 177	1	5	-0.012458	25.5313	39.5858	-46.2572
 178	1	5	0.013933	26.3146	37.1818	-46.4576
 179	1	5	0.014892	23.6191	35.7361	-41.1106
 180	1	5	0.04353	23.3246	32.7381	-40.5668
 181	1	5	0.048722	22.3688	33.6417	-41.7648
 182	1	5	0.053734	22.2475	34.0421	-40.0388
 183	1	5	0.029251	25.7492	35.552	-39.8348
 184	1	5	0.025572	25.4163	33.8416	-39.4989
 185	1	5	0.023611	24.3471	35.1008	-38.841
 186	1	5	0.021405	28.7125	32.9831	-44.9658
 187	1	5	0.009991	29.2153	36.003	-44.9409
 188	1	5	0.026343	30.3966	34.7015	-45.1621
 189	1	5	0.026093	29.5998	34.9151	-43.589
 190	1	5	0.043016	27.6304	35.1672	-46.8246
 191	1	5	0.050907	27.228	33.4396	-46.9084
 192	1	5	0.051325	28.8913	33.9792	-47.22
 193	1	1	-0.439951	17.8687	27.5627	-53.6005
 194	1	1	0.043044	17.9175	28.7141	-52.7898
 195	1	1	0.126458	15.5489	27.3766	-52.8018
 196	1	1	0.016683	16.8906	29.078	-51.9242
 197	1	1	0.121946	16.5879	26.9803	-53.623
 198	1	2	0.005505	17.8149	29.8275	-50.98
 199	1	1	-0.445809	15.6767	28.3724	-51.815
 200	1	2	0.001585	18.9797	29.4378	-51.9853
 201	1	3	0.031166	19.9366	28.5652	-51.1368
 202	1	2	-0.048351	19.3715	30.0795	-49.2658
 203	1	1	-0.041771	20.3421	29.6386	-48.1813
 204	1	2	-0.107179	20.5365	29.7224	-50.2926
 205	1	3	-0.106774	18.9819	27.8486	-50.1398
 206	1	3	-0.025838	18.2207	29.1148	-49.6566
 207	1	1	-0.051955	21.3597	29.3479	-49.0741
 208	1	1	-0.09124	22.6281	28.4676	-47.3407
 209	1	1	-0.099966	21.5933	28.7077	-46.4536
 210	1	1	-0.017311	20.3397	29.235	-46.8307
 211	1	1	-0.020587	22.5402	28.6574	-48.732
 212	1	2	-0.042503	22.2628	27.9492	-45.3148
 213	1	2	0.004295	23.4535	27.6929	-46.334
 214	1	3	0.00226	23.5001	26.1516	-46.4492
 215	1	3	-0.145049	22.0081	25.7665	-46.3152
 216	1	3	0.011953	24.0403	25.5221	-45.1327
 217	1	3	0.014921	22.8508	25.7613	-44.1096
 218	1	3	0.025749	21.7913	26.5104	-44.9772
 219	1	3	0.154129	23.5959	28.1452	-49.7084
 220	1	3	-0.203386	23.2372	26.7453	-50.2546
 221	1	3	-0.113237	23.8724	29.1341	-50.8624
 222	1	3	0.129534	19.1121	29.3431	-45.9319
 223	1	3	-0.091829	19.4637	29.7563	-44.4851
 224	1	3	-0.19809	18.2899	28.0373	-45.9499
 225	1	4	0.228684	18.7435	27.1059	-54.052
 226	1	5	0.042843	17.5906	30.895	-50.87
 227	1	4	0.232532	14.9816	28.4914	-50.99
 228	1	5	0.035382	19.4717	30.2588	-52.5199
 229	1	5	0.041247	20.6353	27.937	-51.6989
 230	1	5	0.06146	19.0706	31.1321	-49.202
 231	1	5	0.068364	20.9496	30.5488	-50.8833
 232	1	5	0.055799	19.5188	27.3361	-49.3308
 233	1	5	0.04347	18.3225	27.1224	-50.627
 234	1	5	0.076294	17.4242	28.9655	-48.918
 235	1	5	0.058767	22.4801	28.5511	-44.4282
 236	1	5	0.056756	24.4206	28.1466	-46.0997
 237	1	5	0.029415	23.9957	25.769	-47.3488
 238	1	5	0.049793	21.853	24.6816	-46.2305
 239	1	5	0.063468	21.3796	26.1431	-47.1331
 240	1	5	-0.012542	24.3156	24.4619	-45.2083
 241	1	5	-0.012458	22.4978	24.8251	-43.6574
 242	1	5	0.013933	20.775	26.438	-44.5745
 243	1	5	0.014892	24.5367	28.0405	-49.1523
 244	1	5	0.04353	22.3394	26.7778	-50.8787
 245	1	5	0.048722	23.0457	26.0421	-49.4366
 246	1	5	0.053734	24.0579	26.3437	-50.8616
 247	1	5	0.029251	24.7285	28.7985	-51.461
 248	1	5	0.025572	24.1046	30.1321	-50.4701
 249	1	5	0.023611	23.0085	29.2194	-51.532
 250	1	5	0.021405	18.4702	30.1348	-46.3399
 251	1	5	0.009991	20.0183	28.9656	-43.9658
 252	1	5	0.026343	18.5517	29.9586	-43.9098
 253	1	5	0.026093	20.0759	30.667	-44.4799
 254	1	5	0.043016	18.8524	27.2074	-45.5096
 255	1	5	0.050907	18.033	27.7573	-46.9774
 256	1	5	0.051325	17.3566	28.1553	-45.3856
 257	1	1	-0.439951	17.4248	18.5115	-43.9147
 258	1	1	0.043044	18.2779	19.2926	-44.7158
 259	1	1	0.126458	18.8656	16.653	-44.6553
 260	1	1	0.016683	19.2966	18.7777	-45.5058
 261	1	1	0.121946	17.8491	17.1717	-43.8787
 262	1	2	0.005505	19.4285	20.0458	-46.3378
 263	1	1	-0.445809	19.6062	17.4037	-45.5912
 264	1	2	0.001585	18.2524	20.6245	-45.4324
 265	1	3	0.031166	17.0904	20.8547	-46.4323
 266	1	2	-0.048351	18.8631	21.5835	-48.0016
 267	1	1	-0.041771	18.066	22.1237	-49.18
 268	1	2	-0.107179	17.6794	22.125	-47.0928
 269	1	3	-0.106774	17.3156	19.7571	-47.5114
 270	1	3	-0.025838	18.8228	20.0439	-47.7689
 271	1	1	-0.051955	17.0248	22.5732	-48.3825
 272	1	1	-0.09124	16.252	23.9197	-50.1235
 273	1	1	-0.099966	17.3058	23.4958	-50.9221
 274	1	1	-0.017311	18.3507	22.675	-50.4457
 275	1	1	-0.020587	16.1256	23.5832	-48.7624
 276	1	2	-0.042503	17.1346	24.6362	-51.917
 277	1	2	0.004295	15.9361	25.1131	-51.0013
 278	1	3	0.00226	14.7072	24.9999	-51.9375
 279	1	3	-0.145049	15.0652	23.7795	-52.8157
 280	1	3	0.011953	14.7507	26.1052	-53.03
 281	1	3	0.014921	15.9511	25.6419	-53.9607
 282	1	3	0.025749	16.4364	24.3299	-53.2683
 283	1	3	0.154129	15.263	24.3296	-47.7496
 284	1	3	-0.203386	15.9603	25.6198	-47.269
 285	1	3	-0.113237	13.8443	24.6319	-48.2786
 286	1	3	0.129534	19.7219	22.5479	-51.102
 287	1	3	-0.091829	20.6098	23.7692	-50.7736
 288	1	3	-0.19809	19.632	22.3214	-52.6273
 289	1	4	0.228684	16.5256	18.8815	-43.4326
 290	1	5	0.042843	20.4023	20.5439	-46.2633
 291	1	4	0.232532	20.2893	16.9728	-46.3162
 292	1	5	0.035382	18.4881	21.4882	-44.7994
 293	1	5	0.041247	16.0811	20.938	-46.0102
 294	1	5	0.06146	19.8595	22.0248	-47.8791
 295	1	5	0.068364	17.8919	22.9364	-46.3862
 296	1	5	0.055799	16.6954	19.9046	-48.4049
 297	1	5	0.04347	17.1329	18.7432	-47.1319
 298	1	5	0.076294	19.3243	19.4165	-48.5163
 299	1	5	0.058767	18.0017	25.2927	-52.0275
 300	1	5	0.056756	16.0148	26.082	-50.5013
 301	1	5	0.029415	13.7389	24.9206	-51.4288
 302	1	5	0.049793	14.3663	23.6351	-53.6519
 303	1	5	0.063468	15.1319	22.8374	-52.2561
 304	1	5	-0.012542	13.8163	26.2385	-53.5909
 305	1	5	-0.012458	15.6437	25.5256	-55.0084
 306	1	5	0.013933	16.9914	23.6592	-53.9354
 307	1	5	0.014892	15.1401	23.6813	-46.872
 308	1	5	0.04353	16.0974	26.3272	-48.0958
 309	1	5	0.048722	16.9484	25.3885	-46.852
 310	1	5	0.053734	15.37	26.1148	-46.4881
 311	1	5	0.029251	13.3766	23.7224	-48.6763
 312	1	5	0.025572	13.8675	25.3858	-49.0736
 313	1	5	0.023611	13.2067	25.016	-47.4726
 314	1	5	0.021405	20.2165	21.6635	-50.6793
 315	1	5	0.009991	20.7109	23.8945	-49.688
 316	1	5	0.026343	20.1819	24.6927	-51.1825
 317	1	5	0.026093	21.6154	23.6443	-51.1941
 318	1	5	0.043016	20.6198	22.0847	-53.0417
 319	1	5	0.050907	19.2585	23.2146	-53.141
 320	1	5	0.051325	18.9587	21.4856	-52.8556
 321	1	1	-0.439951	12.3105	7.26888	-47.2805
 322	1	1	0.043044	11.7791	8.46887	-47.7991
 323	1	1	0.126458	10.4023	7.36153	-45.7316
 324	1	1	0.016683	10.7005	9.1321	-47.2211
 325	1	1	0.121946	11.4912	6.71132	-46.279
 326	1	2	0.005505	11.1172	10.487	-47.7547
 327	1	1	-0.445809	10.0089	8.66271	-46.0887
 328	1	2	0.001585	12.329	9.7314	-48.4458
 329	1	3	0.031166	13.5839	10.378	-47.806
 330	1	2	-0.048351	12.2955	12.4916	-47.7775
 331	1	1	-0.041771	13.3434	13.5053	-47.3376
 332	1	2	-0.107179	13.4861	11.751	-48.5337
 333	1	3	-0.106774	13.1154	10.7028	-46.3591
 334	1	3	-0.025838	11.8054	11.4468	-46.7447
 335	1	1	-0.051955	14.3671	12.8781	-48.0265
 336	1	1	-0.09124	15.9234	14.3211	-47.0663
 337	1	1	-0.099966	14.9056	14.9145	-46.3372
 338	1	1	-0.017311	13.5632	14.4855	-46.3455
 339	1	1	-0.020587	15.735	13.1762	-47.872
 340	1	2	-0.042503	15.8543	15.6927	-45.4423
 341	1	2	0.004295	17.0231	15.0384	-46.2931
 342	1	3	0.00226	17.8236	14.2478	-45.2324
 343	1	3	-0.145049	16.7073	13.7498	-44.2841
 344	1	3	0.011953	18.5676	15.2128	-44.2632
 345	1	3	0.014921	17.3837	15.8158	-43.39
 346	1	3	0.025749	16.1203	15.1541	-44.0107
 347	1	3	0.154129	16.8368	12.3335	-48.5102
 348	1	3	-0.203386	18.0061	13.1894	-49.0454
 349	1	3	-0.113237	17.3473	11.2273	-47.5609
 350	1	3	0.129534	12.5198	15.0241	-45.3698
 351	1	3	-0.091829	12.3763	14.1252	-44.1213
 352	1	3	-0.19809	11.1497	15.2686	-46.0403
 353	1	4	0.228684	13.2903	6.88106	-47.54
 354	1	5	0.042843	10.3859	10.9661	-48.4162
 355	1	4	0.232532	9.34217	9.2748	-45.4898
 356	1	5	0.035382	12.3429	9.71359	-49.5418
 357	1	5	0.041247	14.5202	9.81914	-47.9136
 358	1	5	0.06146	11.4973	12.9103	-48.4023
 359	1	5	0.068364	13.4171	11.6808	-49.6258
 360	1	5	0.055799	13.8251	11.3396	-45.8152
 361	1	5	0.04347	12.9322	9.80417	-45.7589
 362	1	5	0.076294	11.1736	11.8079	-45.9268
 363	1	5	0.058767	15.754	16.7821	-45.4928
 364	1	5	0.056756	17.6405	15.7216	-46.8862
 365	1	5	0.029415	18.4745	13.4634	-45.6309
 366	1	5	0.049793	17.1008	13.2673	-43.3781
 367	1	5	0.063468	15.9969	13.0611	-44.76
 368	1	5	-0.012542	19.3368	14.7359	-43.6416
 369	1	5	-0.012458	17.5223	15.6354	-42.3158
 370	1	5	0.013933	15.2533	15.1675	-43.3409
 371	1	5	0.014892	16.3984	11.8259	-49.3795
 372	1	5	0.04353	18.7085	12.5698	-49.6166
 373	1	5	0.048722	18.5619	13.6631	-48.2279
 374	1	5	0.053734	17.6329	13.9786	-49.7102
 375	1	5	0.029251	17.8738	11.6475	-46.6998
 376	1	5	0.025572	18.0395	10.557	-48.0856
 377	1	5	0.023611	16.5178	10.6232	-47.1784
 378	1	5	0.021405	12.8743	16.0013	-45.0166
 379	1	5	0.009991	11.7207	14.5963	-43.3783
 380	1	5	0.026343	13.349	13.9494	-43.6493
 381	1	5	0.026093	11.952	13.1497	-44.3732
 382	1	5	0.043016	10.4652	15.7736	-45.3474
 383	1	5	0.050907	10.6815	14.3272	-46.3501
 384	1	5	0.051325	11.263	15.9044	-46.9274
 385	1	1	-0.439951	13.7577	6.40942	-34.5341
 386	1	1	0.043044	14.7723	6.8942	-35.3829
 387	1	1	0.126458	15.0649	4.32745	-34.5347
 388	1	1	0.016683	15.815	6.10478	-35.8587
 389	1	1	0.121946	14.0337	5.11403	-34.0574
 390	1	2	0.005505	16.0494	6.9784	-37.079
 391	1	1	-0.445809	15.9554	4.73789	-35.5449
 392	1	2	0.001585	14.856	7.87408	-36.5391
 393	1	3	0.031166	13.7746	7.75612	-37.6463
 394	1	2	-0.048351	15.6776	7.77484	-39.2372
 395	1	1	-0.041771	14.9968	7.87393	-40.5952
 396	1	2	-0.107179	14.4744	8.66462	-38.6909
 397	1	3	-0.106774	13.9964	6.32973	-38.223
 398	1	3	-0.025838	15.5315	6.44697	-38.4426
 399	1	1	-0.051955	13.9462	8.63592	-40.1134
 400	1	1	-0.09124	12.8218	8.37293	-42.1334
 401	1	1	-0.099966	13.8985	7.66384	-42.6394
 402	1	1	-0.017311	15.0032	7.2557	-41.8648
 403	1	1	-0.020587	12.7353	8.83661	-40.8035
 404	1	2	-0.042503	13.1658	7.25409	-43.9072
 405	1	2	0.004295	11.9226	8.04234	-43.3141
 406	1	3	0.00226	10.8597	6.92258	-43.1475
 407	1	3	-0.145049	11.7207	5.68852	-42.7922
 408	1	3	0.011953	10.3273	6.44406	-44.5282
 409	1	3	0.014921	11.5734	5.68651	-45.1552
 410	1	3	0.025749	12.6442	5.80323	-44.0277
 411	1	3	0.154129	11.5094	9.47459	-40.1546
 412	1	3	-0.203386	10.7656	10.435	-41.1097
 413	1	3	-0.113237	10.5451	8.41958	-39.5695
 414	1	3	0.129534	16.0373	6.2502	-42.3648
 415	1	3	-0.091829	15.6955	4.8075	-41.9313
 416	1	3	-0.19809	17.4785	6.62381	-41.9522
 417	1	4	0.228684	12.8138	6.91951	-34.3707
 418	1	5	0.042843	17.0404	7.44519	-37.123
 419	1	4	0.232532	16.5855	4.05275	-36.1031
 420	1	5	0.035382	15.0979	8.90348	-36.2499
 421	1	5	0.041247	12.7524	8.02531	-37.3562
 422	1	5	0.06146	16.6802	8.21714	-39.196
 423	1	5	0.068364	14.7243	9.66612	-38.3208
 424	1	5	0.055799	13.4441	6.15521	-39.1556
 425	1	5	0.04347	13.7273	5.54021	-37.513
 426	1	5	0.076294	16.047	5.56565	-38.8378
 427	1	5	0.058767	13.6004	7.63803	-44.8353
 428	1	5	0.056756	11.568	8.9093	-43.8793
 429	1	5	0.029415	10.0574	7.14226	-42.4367
 430	1	5	0.049793	11.1429	4.75345	-42.7773
 431	1	5	0.063468	12.2488	5.78255	-41.8342
 432	1	5	-0.012542	9.43226	5.80954	-44.484
 433	1	5	-0.012458	11.326	4.658	-45.4494
 434	1	5	0.013933	13.4243	5.03587	-44.0905
 435	1	5	0.014892	11.8638	10.0826	-39.3119
 436	1	5	0.04353	9.9811	10.9828	-40.5729
 437	1	5	0.048722	10.2916	9.88984	-41.9343
 438	1	5	0.053734	11.4601	11.1696	-41.5368
 439	1	5	0.029251	11.0755	7.72162	-38.9125
 440	1	5	0.025572	10.066	7.83352	-40.3584
 441	1	5	0.023611	9.75447	8.90283	-38.9821
 442	1	5	0.021405	16.0094	6.26842	-43.4623
 443	1	5	0.009991	15.7877	4.68128	-40.8487
 444	1	5	0.026343	16.3701	4.08911	-42.4136
 445	1	5	0.026093	14.669	4.54518	-42.2097
 446	1	5	0.043016	17.6201	6.53285	-40.8688
 447	1	5	0.050907	17.7088	7.65613	-42.2443
 448	1	5	0.051325	18.2042	5.96316	-42.4428
 449	1	1	-0.439951	7.90436	-4.47735	-37.6729
 450	1	1	0.043044	7.5459	-3.23867	-38.2403
 451	1	1	0.126458	5.9579	-4.11973	-36.2156
 452	1	1	0.016683	6.51432	-2.44306	-37.7486
 453	1	1	0.121946	6.97771	-4.91249	-36.7073
 454	1	2	0.005505	7.11466	-1.15969	-38.2917
 455	1	1	-0.445809	5.73175	-2.7948	-36.6312
 456	1	2	0.001585	8.29207	-2.06532	-38.8495
 457	1	3	0.031166	9.54649	-1.55371	-38.0909
 458	1	2	-0.048351	8.52168	0.689334	-38.3092
 459	1	1	-0.041771	9.61122	1.61454	-37.7982
 460	1	2	-0.107179	9.70621	-0.218808	-38.8664
 461	1	3	-0.106774	8.97782	-1.09515	-36.7182
 462	1	3	-0.025838	7.81463	-0.222793	-37.2717
 463	1	1	-0.051955	10.6405	0.825614	-38.2805
 464	1	1	-0.09124	12.178	2.10881	-37.0972
 465	1	1	-0.099966	11.147	2.89918	-36.6164
 466	1	1	-0.017311	9.7798	2.64209	-36.8504
 467	1	1	-0.020587	11.985	0.9512	-37.8811
 468	1	2	-0.042503	12.0489	3.68188	-35.6768
 469	1	2	0.004295	13.2314	2.77646	-36.2277
 470	1	3	0.00226	13.7314	2.04777	-34.9549
 471	1	3	-0.145049	12.4254	1.85302	-34.1502
 472	1	3	0.011953	14.4647	3.03705	-34.0006
 473	1	3	0.014921	13.2819	3.9406	-33.4514
 474	1	3	0.025749	12.0307	3.34776	-34.1641
 475	1	3	0.154129	13.0587	-0.06703	-38.2543
 476	1	3	-0.203386	14.4015	0.597044	-38.6321
 477	1	3	-0.113237	13.2542	-1.12539	-37.1469
 478	1	3	0.129534	8.60678	3.3468	-36.1747
 479	1	3	-0.091829	8.83361	4.86731	-36.0211
 480	1	3	-0.19809	8.2532	2.69807	-34.8185
 481	1	4	0.228684	8.85178	-4.97286	-37.8589
 482	1	5	0.042843	6.49265	-0.641279	-39.0309
 483	1	4	0.232532	5.12481	-2.08853	-36.0737
 484	1	5	0.035382	8.40995	-2.11302	-39.9384
 485	1	5	0.041247	10.4113	-2.22699	-38.0732
 486	1	5	0.06146	7.849	1.14137	-39.048
 487	1	5	0.068364	9.77627	-0.334417	-39.9546
 488	1	5	0.055799	9.70135	-0.519426	-36.1264
 489	1	5	0.04347	8.62669	-1.93227	-36.1065
 490	1	5	0.076294	7.16397	0.266435	-36.5378
 491	1	5	0.058767	12.1023	4.75389	-35.8869
 492	1	5	0.056756	14.0278	3.27965	-36.7833
 493	1	5	0.029415	14.3005	1.13043	-35.1369
 494	1	5	0.049793	12.6018	1.46741	-33.136
 495	1	5	0.063468	11.695	1.20077	-34.6469
 496	1	5	-0.012542	15.034	2.56122	-33.1912
 497	1	5	-0.012458	13.2326	3.93859	-32.3544
 498	1	5	0.013933	11.0945	3.58048	-33.6465
 499	1	5	0.014892	12.7105	-0.601811	-39.1478
 500	1	5	0.04353	14.8695	1.07514	-37.7637
 501	1	5	0.048722	14.25	1.36055	-39.4057
 502	1	5	0.053734	15.1036	-0.148604	-39.0253
 503	1	5	0.029251	13.9495	-1.90774	-37.4756
 504	1	5	0.025572	12.3027	-1.60449	-36.8924
 505	1	5	0.023611	13.6553	-0.679503	-36.2321
 506	1	5	0.021405	7.73061	3.22431	-36.8248
 507	1	5	0.009991	9.63247	5.08302	-35.3017
 508	1	5	0.026343	7.91978	5.3591	-35.665
 509	1	5	0.026093	9.10651	5.3174	-36.984
 510	1	5	0.043016	7.32966	3.12737	-34.4107
 511	1	5	0.050907	9.04951	2.84847	-34.0836
 512	1	5	0.051325	8.1053	1.6188	-34.9291
 513	1	1	-0.439951	12.756	-0.828716	-25.5801
 514	1	1	0.043044	12.6227	-1.54139	-26.7872
 515	1	1	0.126458	14.878	-2.03748	-25.3279
 516	1	1	0.016683	13.626	-2.3638	-27.2884
 517	1	1	0.121946	13.8778	-1.21804	-24.8208
 518	1	2	0.005505	13.2044	-2.16612	-28.7319
 519	1	1	-0.445809	14.8567	-2.55583	-26.6359
 520	1	2	0.001585	12.0579	-1.22909	-28.1644
 521	1	3	0.031166	10.749	-1.95975	-28.5695
 522	1	2	-0.048351	11.9537	-2.56386	-30.6482
 523	1	1	-0.041771	10.8701	-3.23359	-31.4732
 524	1	2	-0.107179	10.7989	-1.62411	-30.086
 525	1	3	-0.106774	11.1518	-3.46095	-28.5256
 526	1	3	-0.025838	12.4375	-3.34014	-29.3934
 527	1	1	-0.051955	9.86481	-2.4174	-30.9822
 528	1	1	-0.09124	8.40207	-3.23798	-32.5963
 529	1	1	-0.099966	9.41108	-4.04944	-33.0879
 530	1	1	-0.017311	10.7396	-4.03006	-32.6283
 531	1	1	-0.020587	8.59589	-2.28325	-31.5768
 532	1	2	-0.042503	8.6527	-4.4102	-34.3495
 533	1	2	0.004295	7.49018	-3.49026	-33.7859
 534	1	3	0.00226	6.322	-4.49356	-33.5951
 535	1	3	-0.145049	7.05617	-5.79147	-33.1849
 536	1	3	0.011953	5.76043	-4.96565	-34.9699
 537	1	3	0.014921	6.92903	-5.87966	-35.5367
 538	1	3	0.025749	8.00067	-5.81331	-34.4087
 539	1	3	0.154129	7.64788	-1.13463	-31.2498
 540	1	3	-0.203386	7.91944	0.0701089	-32.1762
 541	1	3	-0.113237	6.15971	-1.54427	-31.306
 542	1	3	0.129534	11.8849	-4.67633	-33.3997
 543	1	3	-0.091829	12.9722	-5.27436	-32.4804
 544	1	3	-0.19809	12.497	-3.67668	-34.4044
 545	1	4	0.228684	12.1697	0.0551749	-25.3506
 546	1	5	0.042843	13.9727	-1.72067	-29.375
 547	1	4	0.232532	15.7518	-2.89086	-27.1503
 548	1	5	0.035382	12.0708	-0.166913	-28.4355
 549	1	5	0.041247	9.83675	-1.67623	-28.0296
 550	1	5	0.06146	12.761	-2.10594	-31.2324
 551	1	5	0.068364	10.8477	-0.550586	-30.3041
 552	1	5	0.055799	10.3951	-4.11891	-28.9721
 553	1	5	0.04347	11.3554	-3.81788	-27.5078
 554	1	5	0.076294	13.0045	-4.26322	-29.5651
 555	1	5	0.058767	9.14608	-4.12136	-35.2821
 556	1	5	0.056756	7.20648	-2.59693	-34.3495
 557	1	5	0.029415	5.54631	-4.17284	-32.8891
 558	1	5	0.049793	6.38975	-6.66492	-33.1451
 559	1	5	0.063468	7.58067	-5.71679	-32.2234
 560	1	5	-0.012542	4.80239	-5.49975	-34.9191
 561	1	5	-0.012458	6.5822	-6.89133	-35.7855
 562	1	5	0.013933	8.70929	-6.65091	-34.42
 563	1	5	0.014892	7.8514	-0.811464	-30.2205
 564	1	5	0.04353	7.27119	0.917116	-31.9193
 565	1	5	0.048722	7.73988	-0.196768	-33.2251
 566	1	5	0.053734	8.96184	0.40061	-32.0843
 567	1	5	0.029251	5.84089	-1.74886	-32.3347
 568	1	5	0.025572	5.52451	-0.739934	-30.9144
 569	1	5	0.023611	5.98015	-2.44241	-30.7019
 570	1	5	0.021405	11.4681	-5.50964	-33.9806
 571	1	5	0.009991	13.5392	-4.48787	-31.9687
 572	1	5	0.026343	13.6834	-5.87164	-33.0644
 573	1	5	0.026093	12.5233	-5.92872	-31.7225
 574	1	5	0.043016	11.7267	-3.30095	-35.0896
 575	1	5	0.050907	13.2811	-4.15474	-35.0045
 576	1	5	0.051325	12.9369	-2.81666	-33.8839
 577	1	1	-0.439951	18.6615	-5.87365	-14.537
 578	1	1	0.043044	18.0502	-4.81564	-15.2132
 579	1	1	0.126458	17.069	-5.47114	-12.7096
 580	1	1	0.016683	17.0389	-4.06869	-14.6541
 581	1	1	0.121946	18.1199	-6.24999	-13.283
 582	1	2	0.005505	17.4049	-2.80863	-15.4294
 583	1	1	-0.445809	16.5617	-4.32394	-13.3643
 584	1	2	0.001585	18.5657	-3.67062	-16.0682
 585	1	3	0.031166	18.3185	-3.56805	-17.6007
 586	1	2	-0.048351	15.8892	-3.55823	-17.1796
 587	1	1	-0.041771	15.3118	-3.49465	-18.5865
 588	1	2	-0.107179	17.0487	-4.44143	-17.8109
 589	1	3	-0.106774	17.7716	-2.11593	-17.6884
 590	1	3	-0.025838	16.6127	-2.28592	-16.6656
 591	1	1	-0.051955	16.3108	-4.28313	-19.1342
 592	1	1	-0.09124	15.5694	-3.72235	-21.2746
 593	1	1	-0.099966	14.5968	-2.89764	-20.7326
 594	1	1	-0.017311	14.4714	-2.65201	-19.3459
 595	1	1	-0.020587	16.5611	-4.37977	-20.5207
 596	1	2	-0.042503	14.2824	-2.23159	-22.0712
 597	1	2	0.004295	15.4017	-3.17596	-22.6807
 598	1	3	0.00226	16.4684	-2.17733	-23.1977
 599	1	3	-0.145049	16.3669	-1.02119	-22.1755
 600	1	3	0.011953	15.9579	-1.4247	-24.4571
 601	1	3	0.014921	14.8235	-0.489611	-23.8789
 602	1	3	0.025749	14.8451	-0.815115	-22.3558
 603	1	3	0.154129	17.7288	-5.11448	-21.1778
 604	1	3	-0.203386	19.0149	-4.26355	-21.259
 605	1	3	-0.113237	18.0097	-6.48192	-20.5172
 606	1	3	0.129534	13.5614	-1.60689	-18.7025
 607	1	3	-0.091829	12.1709	-1.54415	-19.3723
 608	1	3	-0.19809	14.2085	-0.204689	-18.6447
 609	1	4	0.228684	19.5706	-6.32769	-14.9188
 610	1	5	0.042843	17.7313	-1.96817	-14.807
 611	1	4	0.232532	15.8994	-3.63106	-12.8551
 612	1	5	0.035382	19.5831	-3.34294	-15.8277
 613	1	5	0.041247	19.187	-3.80011	-18.2218
 614	1	5	0.06146	15.2287	-4.03301	-16.445
 615	1	5	0.068364	17.1432	-5.47885	-17.4712
 616	1	5	0.055799	17.426	-1.84767	-18.6951
 617	1	5	0.04347	18.5108	-1.37279	-17.3605
 618	1	5	0.076294	15.9823	-1.40867	-16.4828
 619	1	5	0.058767	13.2619	-2.37694	-22.4425
 620	1	5	0.056756	15.0803	-3.90599	-23.4318
 621	1	5	0.029415	17.4732	-2.59543	-23.3238
 622	1	5	0.049793	16.9546	-0.139316	-22.4675
 623	1	5	0.063468	16.6554	-1.30569	-21.1555
 624	1	5	-0.012542	16.7269	-0.859533	-25.0003
 625	1	5	-0.012458	14.9943	0.567138	-24.1239
 626	1	5	0.013933	14.4148	-0.0121222	-21.7516
 627	1	5	0.014892	17.4315	-5.32641	-22.2133
 628	1	5	0.04353	18.7954	-3.24108	-21.585
 629	1	5	0.048722	19.72	-4.70534	-21.974
 630	1	5	0.053734	19.5211	-4.2078	-20.293
 631	1	5	0.029251	18.3884	-6.36076	-19.4952
 632	1	5	0.025572	18.758	-7.04261	-21.0913
 633	1	5	0.023611	17.0943	-7.08568	-20.4747
 634	1	5	0.021405	13.3938	-1.91926	-17.6634
 635	1	5	0.009991	12.238	-1.15962	-20.3973
 636	1	5	0.026343	11.4995	-0.884587	-18.8085
 637	1	5	0.026093	11.7138	-2.54106	-19.4088
 638	1	5	0.043016	15.2354	-0.253995	-18.2687
 639	1	5	0.050907	13.6348	0.456022	-17.983
 640	1	5	0.051325	14.2408	0.263607	-19.6308
 641	1	1	-0.439951	26.6839	-5.23773	-4.4602
 642	1	1	0.043044	26.5039	-5.57555	-5.80161
 643	1	1	0.126458	27.6077	-3.10488	-5.3031
 644	1	1	0.016683	26.9445	-4.79747	-6.83087
 645	1	1	0.121946	27.2539	-3.95999	-4.20707
 646	1	2	0.005505	26.7869	-5.8913	-7.88026