pySIMM System Object

3152 atoms
3592 bonds
7488 angles
13584 dihedrals
192 impropers

5 atom types
9 bond types
18 angle types
19 dihedral types
2 improper types

-201.084474 201.084474 xlo xhi
-201.084474 201.084474 ylo yhi
-201.084474 201.084474 zlo zhi

Masses

   1	12.01	# ca
   2	12.01	# cy
   3	12.01	# c3
   4	1.008	# ha
   5	1.008	# hc

Pair Coeffs

   1	0.086	3.3996695084235347	# ca
   2	0.086	3.3996695084235347	# cy
   3	0.1094	3.3996695084235347	# c3
   4	0.015	2.59964245953351	# ha
   5	0.0157	2.649532787749369	# hc

Bond Coeffs

   1	300.9	1.5375	# c3,c3
   2	305.9	1.5319	# c3,cy
   3	345.8	1.086	# ca,ha
   4	321.0	1.5156	# c3,ca
   5	285.0	1.5562	# cy,cy
   6	330.6	1.0969	# c3,hc
   7	333.3	1.0949	# cy,hc
   8	321.2	1.5154	# ca,cy
   9	461.1	1.3984	# ca,ca

Angle Coeffs

   1	66.62	120.02	# ca,ca,ca
   2	61.4	116.81	# ca,cy,cy
   3	44.83	114.79	# cy,cy,hc
   4	46.43	110.14	# c3,cy,hc
   5	63.15	112.07	# c3,c3,ca
   6	46.34	109.8	# c3,c3,hc
   7	39.4	107.58	# hc,c3,hc
   8	48.18	119.88	# ca,ca,ha
   9	63.53	120.77	# c3,ca,ca
  10	60.66	118.7	# c3,cy,cy
  11	63.51	120.86	# ca,ca,cy
  12	62.73	112.39	# c3,c3,cy
  13	46.29	110.75	# cy,c3,hc
  14	46.8	110.47	# ca,c3,hc
  15	62.8	113.57	# c3,cy,ca
  16	62.86	111.51	# c3,c3,c3
  17	67.9	96.03	# cy,c3,cy
  18	45.97	114.53	# ca,cy,hc

Dihedral Coeffs

   1	1	0.16	3	0.0	# hc,c3,cy,cy
   2	1	0.16	3	0.0	# cy,c3,cy,hc
   3	1	0.16	3	0.0	# c3,c3,cy,hc
   4	1	0.15	3	0.0	# hc,c3,cy,hc
   5	1	3.625	2	180	# X,ca,ca,X
   6	1	0.15555555555555556	3	0	# X,cy,cy,X
   7	3	0.18	3	0	0.25	2	180	0.2	1	180	# c3,c3,c3,c3
   8	1	0.16	3	0	# hc,c3,c3,c3
   9	1	0.0	2	0.0	# ca,ca,cy,cy
  10	1	0.0	2	0.0	# ca,ca,cy,c3
  11	1	0.15555555555555556	3	0	# X,c3,c3,X
  12	1	0.0	2	0	# X,c3,ca,X
  13	3	0.38	3	180.0	0.0	2	0.0	1.15	1	0.0	# ca,ca,cy,hc
  14	3	0.18	3	0.0	0.25	2	180.0	0.2	1	180.0	# cy,c3,cy,cy
  15	1	0.16	3	0.0	# cy,c3,cy,ca
  16	1	0.16	3	0.0	# c3,c3,cy,ca
  17	1	0.16	3	0.0	# hc,c3,cy,ca
  18	1	0.15	3	0	# hc,c3,c3,hc
  19	3	0.18	3	0.0	0.25	2	180.0	0.2	1	180.0	# c3,c3,cy,cy

Improper Coeffs

   1	1.1	-1	2	# ca,ca,ca,c3
   2	1.1	-1	2	# ca,X,X,ha

Atoms

   1	1	1	-0.439951	-40.2205	-17.1119	-0.451062
   2	1	1	0.043044	-39.5353	-18.2165	-0.992747
   3	1	1	0.126458	-42.1735	-18.6035	-0.450794
   4	1	1	0.016683	-40.1686	-19.4006	-1.35667
   5	1	1	0.121946	-41.5432	-17.4253	-0.0904926
   6	1	2	0.005505	-39.1049	-19.7701	-2.37435
   7	1	1	-0.445809	-41.5552	-19.6078	-1.21744
   8	1	2	0.001585	-38.384	-18.42	-1.95943
   9	1	3	0.031166	-38.4006	-17.5753	-3.25956
  10	1	2	-0.048351	-38.0254	-19.7236	-4.43649
  11	1	1	-0.041771	-37.7726	-19.2875	-5.87267
  12	1	2	-0.107179	-37.3014	-18.3696	-4.0134
  13	1	3	-0.106774	-39.7098	-18.0268	-3.96802
  14	1	3	-0.025838	-39.4615	-19.5594	-3.86917
  15	1	1	-0.051955	-37.146	-18.1099	-5.50033
  16	1	1	-0.09124	-37.1722	-17.3835	-7.71221
  17	1	1	-0.099966	-37.7765	-18.5718	-8.08846
  18	1	1	-0.017311	-38.2252	-19.5535	-7.18311
  19	1	1	-0.020587	-36.91	-17.0284	-6.37147
  20	1	2	-0.042503	-38.0528	-18.1043	-9.50632
  21	1	2	0.004295	-37.3633	-16.7412	-9.07923
  22	1	3	0.00226	-38.5028	-15.7142	-9.27665
  23	1	3	-0.145049	-39.7683	-16.5098	-8.89507
  24	1	3	0.011953	-38.7342	-15.5451	-10.7999
  25	1	3	0.014921	-39.4126	-16.8815	-11.2108
  26	1	3	0.025749	-39.4876	-17.6661	-9.87695
  27	1	3	0.154129	-36.4498	-15.6584	-5.8794
  28	1	3	-0.203386	-35.3943	-15.017	-6.80701
  29	1	3	-0.113237	-37.6375	-14.6987	-5.64748
  30	1	3	0.129534	-39.1032	-20.7283	-7.60721
  31	1	3	-0.091829	-40.6062	-20.4208	-7.4285
  32	1	3	-0.19809	-38.7191	-22.0457	-6.89727
  33	1	4	0.228684	-39.8175	-16.1046	-0.434908
  34	1	5	0.042843	-38.571	-20.7039	-2.16284
  35	1	4	0.232532	-42.103	-20.3792	-1.74868
  36	1	5	0.035382	-37.3983	-18.5068	-1.48772
  37	1	5	0.041247	-38.2429	-16.4976	-3.13781
  38	1	5	0.06146	-37.5316	-20.6597	-4.14903
  39	1	5	0.068364	-36.3556	-18.4615	-3.46596
  40	1	5	0.055799	-39.7771	-17.6723	-5.00467
  41	1	5	0.04347	-40.6145	-17.7057	-3.43614
  42	1	5	0.076294	-40.2382	-20.219	-4.26882
  43	1	5	0.058767	-37.5575	-18.6736	-10.3008
  44	1	5	0.056756	-36.445	-16.4732	-9.61348
  45	1	5	0.029415	-38.3733	-14.7623	-8.7517
  46	1	5	0.049793	-40.6978	-15.9706	-9.1247
  47	1	5	0.063468	-39.7898	-16.8222	-7.84264
  48	1	5	-0.012542	-37.7943	-15.3768	-11.3414
  49	1	5	-0.012458	-38.834	-17.4202	-11.9725
  50	1	5	0.013933	-40.2351	-18.4678	-9.88101
  51	1	5	0.014892	-35.9645	-15.8045	-4.90543
  52	1	5	0.04353	-34.559	-15.7079	-6.97724
  53	1	5	0.048722	-34.9902	-14.1015	-6.35727
  54	1	5	0.053734	-35.8259	-14.7525	-7.77946
  55	1	5	0.029251	-38.3961	-15.1588	-5.00502
  56	1	5	0.025572	-38.1222	-14.4263	-6.58911
  57	1	5	0.023611	-37.2988	-13.7746	-5.1626
  58	1	5	0.021405	-38.938	-20.8907	-8.68044
  59	1	5	0.009991	-41.2192	-21.2224	-7.85936
  60	1	5	0.026343	-40.878	-19.4837	-7.92619
  61	1	5	0.026093	-40.8731	-20.3238	-6.37262
  62	1	5	0.043016	-38.9432	-22.0027	-5.82497
  63	1	5	0.050907	-37.6478	-22.2507	-7.01718
  64	1	5	0.051325	-39.2749	-22.8901	-7.32364
  65	1	1	-0.439951	-46.0791	-20.4264	9.59957
  66	1	1	0.043044	-46.6106	-19.1566	9.29842
  67	1	1	0.126458	-44.3336	-19.1717	10.7918
  68	1	1	0.016683	-45.9795	-17.9642	9.64205
  69	1	1	0.121946	-44.9663	-20.355	10.4595
  70	1	2	0.005505	-46.6453	-17.1787	8.52562
  71	1	1	-0.445809	-44.7411	-17.9116	10.3138
  72	1	2	0.001585	-47.3584	-18.5384	8.12919
  73	1	3	0.031166	-46.8185	-18.8403	6.70448
  74	1	2	-0.048351	-46.9347	-16.3959	6.35348
  75	1	1	-0.041771	-46.6155	-16.2418	4.87787
  76	1	2	-0.107179	-47.6434	-17.7634	5.94616
  77	1	3	-0.106774	-45.3865	-18.2357	6.72406
  78	1	3	-0.025838	-45.7759	-16.8391	7.28688
  79	1	1	-0.051955	-47.2313	-17.4293	4.51849
  80	1	1	-0.09124	-46.3074	-17.2498	2.38753
  81	1	1	-0.099966	-45.6762	-16.0724	2.75423
  82	1	1	-0.017311	-45.7226	-15.5276	4.05473
  83	1	1	-0.020587	-47.0548	-18.0582	3.26655
  84	1	2	-0.042503	-44.8132	-16.0284	1.50145
  85	1	2	0.004295	-45.5406	-17.3797	1.08258
  86	1	3	0.00226	-44.3719	-18.3925	0.999324
  87	1	3	-0.145049	-43.431	-17.9054	2.12821
  88	1	3	0.011953	-43.5678	-18.0267	-0.280697
  89	1	3	0.014921	-42.8456	-16.6791	0.131175
  90	1	3	0.025749	-43.3277	-16.4569	1.59229
  91	1	3	0.154129	-47.5955	-19.429	2.86634
  92	1	3	-0.203386	-46.6414	-20.5729	3.26199
  93	1	3	-0.113237	-49.018	-19.6874	3.40986
  94	1	3	0.129534	-44.9282	-14.3197	4.54595
  95	1	3	-0.091829	-44.8507	-13.1927	3.49234
  96	1	3	-0.19809	-43.5206	-14.7086	5.04018
  97	1	4	0.228684	-46.4002	-21.3422	9.11379
  98	1	5	0.042843	-47.2903	-16.3593	8.86403
  99	1	4	0.232532	-44.1099	-17.0292	10.3427
 100	1	5	0.035382	-48.4509	-18.5701	8.21424
 101	1	5	0.041247	-46.9161	-19.8774	6.36825
 102	1	5	0.06146	-47.5737	-15.6067	6.76772
 103	1	5	0.068364	-48.7258	-17.8282	6.1084
 104	1	5	0.055799	-44.9299	-18.1854	5.72698
 105	1	5	0.04347	-44.7057	-18.7837	7.38282
 106	1	5	0.076294	-44.964	-16.1222	7.45182
 107	1	5	0.058767	-44.9722	-15.1675	0.842565
 108	1	5	0.056756	-46.1455	-17.3449	0.16959
 109	1	5	0.029415	-44.6573	-19.4491	1.05409
 110	1	5	0.049793	-42.4696	-18.4339	2.16244
 111	1	5	0.063468	-43.8774	-17.9695	3.12916
 112	1	5	-0.012542	-44.1512	-17.9553	-1.2082
 113	1	5	-0.012458	-43.0215	-15.8468	-0.563114
 114	1	5	0.013933	-42.6752	-15.7932	2.16811
 115	1	5	0.014892	-47.6714	-19.4443	1.77113
 116	1	5	0.04353	-45.6294	-20.3834	2.89003
 117	1	5	0.048722	-46.9842	-21.5271	2.84305
 118	1	5	0.053734	-46.5861	-20.682	4.34808
 119	1	5	0.029251	-49.0171	-19.7809	4.50236
 120	1	5	0.025572	-49.4279	-20.6159	2.9931
 121	1	5	0.023611	-49.6926	-18.8669	3.13468
 122	1	5	0.021405	-45.4643	-13.9044	5.40946
 123	1	5	0.009991	-44.245	-13.493	2.62896
 124	1	5	0.026343	-44.3972	-12.2916	3.92372
 125	1	5	0.026093	-45.8536	-12.9279	3.1343
 126	1	5	0.043016	-42.8869	-15.0522	4.21809
 127	1	5	0.050907	-43.5818	-15.5165	5.77415
 128	1	5	0.051325	-43.0246	-13.8532	5.51542
 129	1	1	-0.439951	-36.3457	-19.8793	0.988442
 130	1	1	0.043044	-37.7359	-20.0429	1.14426
 131	1	1	0.126458	-36.4322	-22.1049	-0.0542865
 132	1	1	0.016683	-38.411	-21.2122	0.809559
 133	1	1	0.121946	-35.7617	-20.9407	0.271775
 134	1	2	0.005505	-39.5629	-20.935	1.75643
 135	1	1	-0.445809	-37.774	-22.3546	0.287374
 136	1	2	0.001585	-38.7928	-19.5998	2.14032
 137	1	3	0.031166	-38.4702	-19.7778	3.64836
 138	1	2	-0.048351	-40.6742	-20.8799	3.78926
 139	1	1	-0.041771	-40.8424	-21.0991	5.28018
 140	1	2	-0.107179	-39.9124	-19.5444	4.17704
 141	1	3	-0.106774	-38.2812	-21.3132	3.79615
 142	1	3	-0.025838	-39.5952	-21.7397	3.08248
 143	1	1	-0.051955	-40.1849	-19.9266	5.62392
 144	1	1	-0.09124	-41.208	-19.9887	7.73509
 145	1	1	-0.099966	-41.8584	-21.1683	7.39198
 146	1	1	-0.017311	-41.8038	-21.7203	6.09642
 147	1	1	-0.020587	-40.4291	-19.2416	6.83121
 148	1	2	-0.042503	-42.9406	-20.9844	8.44184
 149	1	2	0.004295	-42.2076	-19.6385	8.82336
 150	1	3	0.00226	-41.7946	-19.8652	10.2974
 151	1	3	-0.145049	-41.4797	-21.378	10.3225
 152	1	3	0.011953	-43.0479	-19.8596	11.2257
 153	1	3	0.014921	-43.7756	-21.2184	10.844
 154	1	3	0.025749	-42.8451	-21.8152	9.74615
 155	1	3	0.154129	-40.0847	-17.7778	7.08513
 156	1	3	-0.203386	-38.6674	-17.4018	6.6003
 157	1	3	-0.113237	-41.1469	-16.8429	6.47311
 158	1	3	0.129534	-42.803	-22.7272	5.53637
 159	1	3	-0.091829	-44.0947	-22.0274	5.06789
 160	1	3	-0.19809	-43.1175	-23.8731	6.52295
 161	1	4	0.228684	-35.7736	-19.098	1.47816
 162	1	5	0.042843	-40.539	-20.8234	1.27044
 163	1	4	0.232532	-38.2241	-23.3419	0.273759
 164	1	5	0.035382	-39.2872	-18.653	1.89518
 165	1	5	0.041247	-37.6778	-19.1418	4.06117
 166	1	5	0.06146	-41.614	-20.8001	3.22983
 167	1	5	0.068364	-40.3481	-18.5892	3.86226
 168	1	5	0.055799	-38.2373	-21.6382	4.84357
 169	1	5	0.04347	-37.3827	-21.679	3.28757
 170	1	5	0.076294	-39.7912	-22.8162	3.00433
 171	1	5	0.058767	-43.9573	-20.9304	8.04592
 172	1	5	0.056756	-42.735	-18.6929	8.67122
 173	1	5	0.029415	-40.9767	-19.2249	10.6507
 174	1	5	0.049793	-41.3027	-21.7607	11.3376
 175	1	5	0.063468	-40.6265	-21.6614	9.69228
 176	1	5	-0.012542	-42.8269	-19.7943	12.2993
 177	1	5	-0.012458	-43.9343	-21.8649	11.7172
 178	1	5	0.013933	-42.9538	-22.8989	9.61665
 179	1	5	0.014892	-40.0986	-17.6153	8.17093
 180	1	5	0.04353	-38.6047	-17.4118	5.50631
 181	1	5	0.048722	-37.9238	-18.105	6.99602
 182	1	5	0.053734	-38.3978	-16.3949	6.94212
 183	1	5	0.029251	-42.1433	-17.0925	6.8578
 184	1	5	0.025572	-41.1724	-16.9324	5.38041
 185	1	5	0.023611	-40.9374	-15.7962	6.72627
 186	1	5	0.021405	-42.3481	-23.1907	4.65105
 187	1	5	0.009991	-44.6355	-21.5801	5.91019
 188	1	5	0.026343	-44.7649	-22.741	4.57255
 189	1	5	0.026093	-43.8598	-21.229	4.35351
 190	1	5	0.043016	-43.6868	-23.5107	7.38632
 191	1	5	0.050907	-42.1913	-24.3339	6.88876
 192	1	5	0.051325	-43.7133	-24.6524	6.03174
 193	1	1	-0.439951	-28.5834	-28.9386	4.93727
 194	1	1	0.043044	-29.0446	-27.9993	5.88126
 195	1	1	0.126458	-26.6066	-27.4908	4.77166
 196	1	1	0.016683	-28.3649	-26.8179	6.17544
 197	1	1	0.121946	-27.2789	-28.6639	4.48771
 198	1	2	0.005505	-29.6334	-26.0773	6.57041
 199	1	1	-0.445809	-27.1565	-26.4511	5.54591
 200	1	2	0.001585	-30.4043	-27.4161	6.22276
 201	1	3	0.031166	-31.3095	-27.027	5.0231
 202	1	2	-0.048351	-31.5939	-24.8697	6.189
 203	1	1	-0.041771	-32.6396	-24.1572	5.35072
 204	1	2	-0.107179	-32.3642	-26.2114	5.81502
 205	1	3	-0.106774	-30.4953	-25.9193	4.29832
 206	1	3	-0.025838	-30.1913	-25.0509	5.55064
 207	1	1	-0.051955	-33.3119	-25.3239	5.01767
 208	1	1	-0.09124	-34.5247	-24.1479	3.41085
 209	1	1	-0.099966	-33.8426	-22.9877	3.73351
 210	1	1	-0.017311	-32.7713	-22.9414	4.65005
 211	1	1	-0.020587	-34.2227	-25.4173	3.94118
 212	1	2	-0.042503	-34.4107	-22.2098	2.55493
 213	1	2	0.004295	-35.1909	-23.5426	2.18772
 214	1	3	0.00226	-34.6392	-23.8989	0.783731
 215	1	3	-0.145049	-33.1718	-23.4194	0.874908
 216	1	3	0.011953	-35.1573	-22.8959	-0.289734
 217	1	3	0.014921	-34.3875	-21.5585	0.0772499
 218	1	3	0.025749	-33.525	-21.9768	1.30449
 219	1	3	0.154129	-34.821	-26.704	3.37544
 220	1	3	-0.203386	-33.9244	-27.3431	2.29095
 221	1	3	-0.113237	-35.179	-27.7289	4.47397
 222	1	3	0.129534	-31.8372	-21.7547	4.87687
 223	1	3	-0.091829	-32.5911	-20.4067	4.90579
 224	1	3	-0.19809	-30.6742	-21.7173	3.85946
 225	1	4	0.228684	-29.219	-29.6944	4.48736
 226	1	5	0.042843	-29.6661	-25.7409	7.61324
 227	1	4	0.232532	-26.7721	-25.4366	5.53413
 228	1	5	0.035382	-30.9302	-27.9166	7.04411
 229	1	5	0.041247	-31.6713	-27.8615	4.41524
 230	1	5	0.06146	-31.5772	-24.5829	7.24724
 231	1	5	0.068364	-32.8321	-26.7612	6.64018
 232	1	5	0.055799	-31.0761	-25.3885	3.53287
 233	1	5	0.04347	-29.5895	-26.3038	3.82897
 234	1	5	0.076294	-29.5894	-24.148	5.40015
 235	1	5	0.058767	-35.0143	-21.3404	2.83116
 236	1	5	0.056756	-36.2832	-23.5123	2.23321
 237	1	5	0.029415	-34.7642	-24.9468	0.489106
 238	1	5	0.049793	-32.6473	-23.4614	-0.0902677
 239	1	5	0.063468	-32.5741	-23.9651	1.61698
 240	1	5	-0.012542	-34.9865	-23.2023	-1.33021
 241	1	5	-0.012458	-33.8177	-21.1609	-0.773041
 242	1	5	0.013933	-32.6653	-21.3184	1.45784
 243	1	5	0.014892	-35.7645	-26.4336	2.88333
 244	1	5	0.04353	-33.0107	-27.7631	2.71811
 245	1	5	0.048722	-33.6266	-26.6049	1.53893
 246	1	5	0.053734	-34.4573	-28.1534	1.77821
 247	1	5	0.029251	-35.7245	-28.579	4.04553
 248	1	5	0.025572	-35.8175	-27.2687	5.23861
 249	1	5	0.023611	-34.2801	-28.1192	4.96565
 250	1	5	0.021405	-31.3849	-21.8816	5.86922
 251	1	5	0.009991	-33.0009	-20.1561	3.91994
 252	1	5	0.026343	-31.9179	-19.5944	5.20694
 253	1	5	0.026093	-33.4204	-20.4426	5.6235
 254	1	5	0.043016	-31.0226	-21.4391	2.86187
 255	1	5	0.050907	-30.1869	-22.6945	3.7763
 256	1	5	0.051325	-29.9174	-20.9845	4.1653
 257	1	1	-0.439951	-24.5685	-25.6634	-6.02187
 258	1	1	0.043044	-25.9783	-25.6521	-5.95511
 259	1	1	0.126458	-24.8211	-27.9633	-6.84264
 260	1	1	0.016683	-26.7545	-26.7844	-6.2038
 261	1	1	0.121946	-24.0482	-26.8486	-6.57674
 262	1	2	0.005505	-27.856	-26.3579	-5.24344
 263	1	1	-0.445809	-26.2009	-28.0299	-6.56689
 264	1	2	0.001585	-26.982	-25.068	-4.97292
 265	1	3	0.031166	-26.6081	-25.1645	-3.47246
 266	1	2	-0.048351	-28.867	-26.1037	-3.14224
 267	1	1	-0.041771	-28.9409	-26.2446	-1.63057
 268	1	2	-0.107179	-27.9926	-24.8047	-2.87375
 269	1	3	-0.106774	-26.5265	-26.6967	-3.23287
 270	1	3	-0.025838	-27.8945	-27.0715	-3.86503
 271	1	1	-0.051955	-28.181	-25.1055	-1.39378
 272	1	1	-0.09124	-27.7418	-25.8514	0.778102
 273	1	1	-0.099966	-28.4608	-27.0059	0.525215
 274	1	1	-0.017311	-29.0399	-27.3179	-0.721715
 275	1	1	-0.020587	-27.451	-24.8828	-0.206046
 276	1	2	-0.042503	-28.0564	-27.6712	1.83143
 277	1	2	0.004295	-27.2541	-26.3322	2.13763
 278	1	3	0.00226	-25.7962	-26.8253	2.30192
 279	1	3	-0.145049	-25.7215	-27.9718	1.26925
 280	1	3	0.011953	-25.6311	-27.6506	3.61384
 281	1	3	0.014921	-26.4096	-28.991	3.28492
 282	1	3	0.025749	-26.9331	-28.7436	1.83834
 283	1	3	0.154129	-26.4677	-23.7228	-0.0542518
 284	1	3	-0.203386	-26.6444	-22.9797	1.28862
 285	1	3	-0.113237	-24.9949	-24.1443	-0.259957
 286	1	3	0.129534	-29.6971	-28.644	-1.09757
 287	1	3	-0.091829	-30.7565	-29.0832	-0.0628675
 288	1	3	-0.19809	-28.6715	-29.7672	-1.35835
 289	1	4	0.228684	-23.9455	-24.9073	-5.55625
 290	1	5	0.042843	-28.8405	-26.2048	-5.70056
 291	1	4	0.232532	-26.7376	-28.9682	-6.47215
 292	1	5	0.035382	-27.4222	-24.1108	-5.26399
 293	1	5	0.041247	-25.7524	-24.5592	-3.15535
 294	1	5	0.06146	-29.8297	-25.9639	-3.64805
 295	1	5	0.068364	-28.4014	-23.8465	-3.2155
 296	1	5	0.055799	-26.4401	-26.971	-2.17416
 297	1	5	0.04347	-25.6978	-27.1516	-3.76355
 298	1	5	0.076294	-28.1634	-28.1341	-3.87583
 299	1	5	0.058767	-28.8951	-27.9261	2.48268
 300	1	5	0.056756	-27.5931	-25.7204	2.9774
 301	1	5	0.029415	-25.0277	-26.0556	2.19339
 302	1	5	0.049793	-24.7834	-28.5421	1.32925
 303	1	5	0.063468	-25.8608	-27.641	0.231873
 304	1	5	-0.012542	-24.5906	-27.8387	3.90984
 305	1	5	-0.012458	-25.7741	-29.8791	3.4001
 306	1	5	0.013933	-27.164	-29.6735	1.31273
 307	1	5	0.014892	-26.6992	-22.9995	-0.846658
 308	1	5	0.04353	-26.3632	-23.6166	2.13573
 309	1	5	0.048722	-27.6885	-22.6702	1.424
 310	1	5	0.053734	-26.0166	-22.0809	1.31987
 311	1	5	0.029251	-24.8825	-24.8002	-1.12908
 312	1	5	0.025572	-24.6029	-24.6794	0.607543
 313	1	5	0.023611	-24.3625	-23.2612	-0.416088
 314	1	5	0.021405	-30.2316	-28.4855	-2.04337
 315	1	5	0.009991	-31.505	-28.2941	0.0829183
 316	1	5	0.026343	-30.2975	-29.3033	0.908578
 317	1	5	0.026093	-31.2788	-29.9861	-0.403319
 318	1	5	0.043016	-29.1305	-30.5818	-1.93221
 319	1	5	0.050907	-28.3011	-30.1944	-0.423575
 320	1	5	0.051325	-27.8123	-29.3902	-1.92488
 321	1	1	-0.439951	-19.4256	-34.9067	1.23564
 322	1	1	0.043044	-19.8883	-33.6745	1.7381
 323	1	1	0.126458	-17.1903	-33.9126	1.46504
 324	1	1	0.016683	-19.0524	-32.5887	1.98776
 325	1	1	0.121946	-18.021	-34.9901	1.22001
 326	1	2	0.005505	-20.1613	-31.5669	1.79582
 327	1	1	-0.445809	-17.6619	-32.6186	1.75754
 328	1	2	0.001585	-21.1099	-32.805	1.50512
 329	1	3	0.031166	-21.5532	-32.596	0.0322994
 330	1	2	-0.048351	-21.6	-30.181	0.59215
 331	1	1	-0.041771	-22.2123	-29.5593	-0.653503
 332	1	2	-0.107179	-22.5418	-31.4323	0.296835
 333	1	3	-0.106774	-20.3376	-31.8751	-0.615063
 334	1	3	-0.025838	-20.1678	-30.7684	0.463738
 335	1	1	-0.051955	-23.0213	-30.6534	-0.911443
 336	1	1	-0.09124	-23.5964	-29.7515	-2.96841
 337	1	1	-0.099966	-22.8101	-28.6479	-2.70201
 338	1	1	-0.017311	-22.0014	-28.4985	-1.56117
 339	1	1	-0.020587	-23.7065	-30.872	-2.12178
 340	1	2	-0.042503	-23.1109	-27.9734	-4.02736
 341	1	2	0.004295	-24.0168	-29.2485	-4.33697
 342	1	3	0.00226	-23.3596	-29.8366	-5.60832
 343	1	3	-0.145049	-21.8638	-29.5202	-5.38635
 344	1	3	0.011953	-23.6322	-28.914	-6.83646
 345	1	3	0.014921	-22.7428	-27.6365	-6.53028
 346	1	3	0.025749	-22.0685	-28.0042	-5.1685
 347	1	3	0.154129	-24.4339	-32.1718	-2.44831
 348	1	3	-0.203386	-25.8076	-31.9341	-3.11195
 349	1	3	-0.113237	-23.556	-33.1001	-3.31443
 350	1	3	0.129534	-21.0359	-27.333	-1.37773
 351	1	3	-0.091829	-19.6375	-27.676	-1.93409
 352	1	3	-0.19809	-20.9536	-26.848	0.0869263
 353	1	4	0.228684	-20.072	-35.6473	0.776001
 354	1	5	0.042843	-20.3888	-30.9649	2.68333
 355	1	4	0.232532	-17.0484	-31.7274	1.67259
 356	1	5	0.035382	-21.9348	-32.9757	2.20678
 357	1	5	0.041247	-21.9481	-33.4748	-0.491573
 358	1	5	0.06146	-21.7827	-29.6285	1.52164
 359	1	5	0.068364	-23.3213	-31.6576	1.03452
 360	1	5	0.055799	-20.5581	-31.4726	-1.61232
 361	1	5	0.04347	-19.4604	-32.522	-0.696488
 362	1	5	0.076294	-19.347	-30.0567	0.32015
 363	1	5	0.058767	-23.5827	-26.9946	-3.92619
 364	1	5	0.056756	-25.0946	-29.1148	-4.4428
 365	1	5	0.029415	-23.5803	-30.8933	-5.7985
 366	1	5	0.049793	-21.2454	-29.744	-6.26693
 367	1	5	0.063468	-21.4319	-30.0332	-4.51679
 368	1	5	-0.012542	-23.3938	-29.362	-7.81017
 369	1	5	-0.012458	-22.0414	-27.4161	-7.34585
 370	1	5	0.013933	-21.1469	-27.4449	-4.96652
 371	1	5	0.014892	-24.6249	-32.6962	-1.50284
 372	1	5	0.04353	-26.3598	-32.8772	-3.20703
 373	1	5	0.048722	-25.6989	-31.5042	-4.11448
 374	1	5	0.053734	-26.4104	-31.2489	-2.50577
 375	1	5	0.029251	-23.3469	-32.6489	-4.29071
 376	1	5	0.025572	-24.0554	-34.0624	-3.48241
 377	1	5	0.023611	-22.5959	-33.2982	-2.82303
 378	1	5	0.021405	-21.4183	-26.4894	-1.96743
 379	1	5	0.009991	-18.968	-26.8094	-1.86669
 380	1	5	0.026343	-19.7026	-27.9717	-2.98841
 381	1	5	0.026093	-19.1817	-28.5038	-1.38005
 382	1	5	0.043016	-20.362	-25.9266	0.155486
 383	1	5	0.050907	-20.4813	-27.5993	0.730511
 384	1	5	0.051325	-21.956	-26.6365	0.480565
 385	1	1	-0.439951	-12.1217	-34.2642	-9.86892
 386	1	1	0.043044	-13.2521	-34.5621	-9.08597
 387	1	1	0.126458	-12.6576	-36.351	-11.0487
 388	1	1	0.016683	-14.0957	-35.6365	-9.34524
 389	1	1	0.121946	-11.8081	-35.2885	-10.7817
 390	1	2	0.005505	-15.2913	-34.9864	-8.6764
 391	1	1	-0.445809	-13.9062	-36.5203	-10.4231
 392	1	2	0.001585	-14.3322	-33.7569	-8.38712
 393	1	3	0.031166	-14.2623	-33.6964	-6.83967
 394	1	2	-0.048351	-16.6454	-34.3735	-6.8888
 395	1	1	-0.041771	-17.061	-34.2469	-5.4311
 396	1	2	-0.107179	-15.6895	-33.1297	-6.61104
 397	1	3	-0.106774	-14.3996	-35.186	-6.4139
 398	1	3	-0.025838	-15.6608	-35.5125	-7.2643
 399	1	1	-0.051955	-16.232	-33.1627	-5.19531
 400	1	1	-0.09124	-16.6693	-33.3095	-2.91719
 401	1	1	-0.099966	-17.507	-34.3849	-3.1539
 402	1	1	-0.017311	-17.6834	-34.996	-4.40943
 403	1	1	-0.020587	-15.897	-32.6803	-3.9154
 404	1	2	-0.042503	-17.7069	-34.6912	-1.6821
 405	1	2	0.004295	-16.7457	-33.4563	-1.40532
 406	1	3	0.00226	-15.5613	-34.1076	-0.648305
 407	1	3	-0.145049	-15.465	-35.4981	-1.31752
 408	1	3	0.011953	-15.9917	-34.5518	0.782063
 409	1	3	0.014921	-16.9461	-35.7868	0.49888
 410	1	3	0.025749	-16.9396	-35.8819	-1.05626
 411	1	3	0.154129	-14.8222	-31.6223	-3.68291
 412	1	3	-0.203386	-15.2314	-30.5881	-2.61055
 413	1	3	-0.113237	-13.4545	-32.2561	-3.34866
 414	1	3	0.129534	-18.4426	-36.3076	-4.58949
 415	1	3	-0.091829	-17.4979	-37.5284	-4.54589
 416	1	3	-0.19809	-19.3124	-36.3224	-5.86613
 417	1	4	0.228684	-11.6478	-33.288	-9.88535
 418	1	5	0.042843	-16.1552	-34.8327	-9.33373
 419	1	4	0.232532	-14.6961	-37.1433	-10.8306
 420	1	5	0.035382	-14.5601	-32.7936	-8.85827
 421	1	5	0.041247	-13.4261	-33.1299	-6.41368
 422	1	5	0.06146	-17.4581	-34.2235	-7.60975
 423	1	5	0.068364	-15.9025	-32.2045	-7.15975
 424	1	5	0.055799	-14.5697	-35.3066	-5.33604
 425	1	5	0.04347	-13.5278	-35.7915	-6.69345
 426	1	5	0.076294	-16.0408	-36.5387	-7.22125
 427	1	5	0.058767	-18.7428	-34.6142	-1.34203
 428	1	5	0.056756	-17.1702	-32.5928	-0.886554
 429	1	5	0.029415	-14.6314	-33.5299	-0.653866
 430	1	5	0.049793	-14.7542	-36.167	-0.811761
 431	1	5	0.063468	-15.2033	-35.4564	-2.38305
 432	1	5	-0.012542	-15.1624	-34.8136	1.45237
 433	1	5	-0.012458	-16.6154	-36.6957	1.01863
 434	1	5	0.013933	-17.2301	-36.8695	-1.43272
 435	1	5	0.014892	-14.6955	-31.0681	-4.62218
 436	1	5	0.04353	-14.5027	-29.7692	-2.56594
 437	1	5	0.048722	-15.2859	-31.0451	-1.61552
 438	1	5	0.053734	-16.2125	-30.1563	-2.84548
 439	1	5	0.029251	-13.1646	-32.9882	-4.1106
 440	1	5	0.025572	-13.478	-32.772	-2.38436
 441	1	5	0.023611	-12.6726	-31.4879	-3.30265
 442	1	5	0.021405	-19.1309	-36.4081	-3.73994
 443	1	5	0.009991	-16.82	-37.5421	-5.40435
 444	1	5	0.026343	-18.0727	-38.463	-4.55396
 445	1	5	0.026093	-16.8848	-37.5173	-3.63781
 446	1	5	0.043016	-18.6941	-36.319	-6.77139
 447	1	5	0.050907	-19.9704	-35.4446	-5.89476
 448	1	5	0.051325	-19.9437	-37.2193	-5.89277
 449	1	1	-0.439951	-5.65424	-41.5979	-17.7921
 450	1	1	0.043044	-4.95591	-41.4392	-16.5774
 451	1	1	0.126458	-4.28561	-39.7116	-18.5729
 452	1	1	0.016683	-4.06514	-40.3937	-16.3424
 453	1	1	0.121946	-5.18302	-40.7363	-18.7999
 454	1	2	0.005505	-4.29011	-40.4117	-14.8387
 455	1	1	-0.445809	-3.76027	-39.4067	-17.3028
 456	1	2	0.001585	-5.29674	-41.6062	-15.1072
 457	1	3	0.031166	-6.66819	-41.0508	-14.648
 458	1	2	-0.048351	-5.41063	-39.9128	-12.8458
 459	1	1	-0.041771	-6.52352	-39.3216	-11.9914
 460	1	2	-0.107179	-6.41031	-41.1196	-13.1175
 461	1	3	-0.106774	-6.55844	-39.5299	-14.9568
 462	1	3	-0.025838	-5.19161	-39.2913	-14.2535
 463	1	1	-0.051955	-7.39076	-40.3762	-12.2265
 464	1	1	-0.09124	-9.1834	-39.0676	-11.5008
 465	1	1	-0.099966	-8.31581	-38.0133	-11.2511
 466	1	1	-0.017311	-6.93929	-38.0427	-11.5688
 467	1	1	-0.020587	-8.78878	-40.2932	-12.0799
 468	1	2	-0.042503	-9.43952	-36.9956	-11.0944
 469	1	2	0.004295	-10.4284	-38.2007	-11.395
 470	1	3	0.00226	-11.1235	-37.7516	-12.7079
 471	1	3	-0.145049	-10.0018	-36.9763	-13.435
 472	1	3	0.011953	-12.101	-36.5744	-12.4419
 473	1	3	0.014921	-11.1271	-35.3667	-12.1353
 474	1	3	0.025749	-9.71832	-36.0144	-12.2628
 475	1	3	0.154129	-9.71656	-41.4429	-12.4742
 476	1	3	-0.203386	-10.7929	-41.7221	-11.4023
 477	1	3	-0.113237	-10.3593	-41.2687	-13.8641
 478	1	3	0.129534	-5.96892	-36.8666	-11.4655
 479	1	3	-0.091829	-6.1813	-36.0372	-10.18
 480	1	3	-0.19809	-5.97547	-35.9614	-12.7135
 481	1	4	0.228684	-6.53598	-42.2209	-17.9022
 482	1	5	0.042843	-3.40043	-40.6363	-14.2389
 483	1	4	0.232532	-3.28444	-38.4608	-17.0643
 484	1	5	0.035382	-5.03744	-42.5823	-14.6808
 485	1	5	0.041247	-7.54895	-41.577	-15.0315
 486	1	5	0.06146	-4.48533	-40.1447	-12.305
 487	1	5	0.068364	-6.11044	-42.1085	-12.7509
 488	1	5	0.055799	-7.37494	-38.9448	-14.5179
 489	1	5	0.04347	-6.52719	-39.3129	-16.0296
 490	1	5	0.076294	-4.77878	-38.2776	-14.294
 491	1	5	0.058767	-9.51769	-36.5302	-10.1057
 492	1	5	0.056756	-11.1272	-38.4779	-10.598
 493	1	5	0.029415	-11.5801	-38.5496	-13.2977
 494	1	5	0.049793	-10.3534	-36.4514	-14.3292
 495	1	5	0.063468	-9.14357	-37.5983	-13.7158
 496	1	5	-0.012542	-12.7963	-36.3538	-13.2623
 497	1	5	-0.012458	-11.3056	-34.5093	-12.7976
 498	1	5	0.013933	-8.93566	-35.277	-12.4548
 499	1	5	0.014892	-9.09598	-42.3468	-12.5332
 500	1	5	0.04353	-11.5024	-40.8895	-11.3245
 501	1	5	0.048722	-10.3286	-41.8699	-10.4191
 502	1	5	0.053734	-11.3596	-42.6285	-11.6493
 503	1	5	0.029251	-10.7351	-42.2302	-14.2353
 504	1	5	0.025572	-9.63015	-40.8882	-14.5842
 505	1	5	0.023611	-11.2049	-40.5776	-13.8353
 506	1	5	0.021405	-4.95927	-37.2927	-11.3971
 507	1	5	0.009991	-7.14634	-35.5162	-10.1956
 508	1	5	0.026343	-5.39207	-35.2827	-10.0719
 509	1	5	0.026093	-6.155	-36.684	-9.29389
 510	1	5	0.043016	-5.05728	-35.3629	-12.7595
 511	1	5	0.050907	-6.81831	-35.2667	-12.7046
 512	1	5	0.051325	-6.04098	-36.5595	-13.6266
 513	1	1	-0.439951	-13.3648	-31.1117	-15.5349
 514	1	1	0.043044	-13.041	-32.3632	-16.092
 515	1	1	0.126458	-15.6774	-31.9392	-15.5797
 516	1	1	0.016683	-13.9722	-33.3776	-16.2913
 517	1	1	0.121946	-14.753	-30.9241	-15.4065
 518	1	2	0.005505	-12.9292	-34.4792	-16.2401
 519	1	1	-0.445809	-15.3278	-33.2577	-15.9271
 520	1	2	0.001585	-11.8698	-33.3218	-15.9971
 521	1	3	0.031166	-10.9319	-33.41	-17.229
 522	1	2	-0.048351	-11.2474	-35.8589	-17.0532
 523	1	1	-0.041771	-10.2484	-36.4079	-18.0622
 524	1	2	-0.107179	-10.1942	-34.7027	-16.7941
 525	1	3	-0.106774	-11.8712	-33.9015	-18.3648
 526	1	3	-0.025838	-12.4899	-35.1024	-17.5962
 527	1	1	-0.051955	-9.33308	-35.3863	-17.8382
 528	1	1	-0.09124	-7.59804	-36.7354	-18.6644
 529	1	1	-0.099966	-8.5082	-37.7603	-18.8864
 530	1	1	-0.017311	-9.85538	-37.6967	-18.4821
 531	1	1	-0.020587	-7.94519	-35.5331	-18.0167
 532	1	2	-0.042503	-7.43936	-38.8416	-18.8962
 533	1	2	0.004295	-6.40331	-37.676	-18.6455
 534	1	3	0.00226	-5.50348	-37.7329	-19.9047
 535	1	3	-0.145049	-6.49861	-38.1605	-21.0075
 536	1	3	0.011953	-4.60403	-39.0046	-19.8813
 537	1	3	0.014921	-5.64291	-40.1789	-20.1376
 538	1	3	0.025749	-6.99924	-39.4192	-20.2642
 539	1	3	0.154129	-6.94879	-34.5696	-17.3793
 540	1	3	-0.203386	-6.4946	-35.0688	-15.9934
 541	1	3	-0.113237	-5.73468	-34.2773	-18.2875
 542	1	3	0.129534	-10.7002	-38.956	-18.3196
 543	1	3	-0.091829	-12.1772	-38.7448	-18.7185
 544	1	3	-0.19809	-10.5851	-39.5228	-16.8898
 545	1	4	0.228684	-12.6294	-30.4335	-15.1144
 546	1	5	0.042843	-13.0883	-35.2161	-15.4446
 547	1	4	0.232532	-15.9877	-34.1072	-15.7835
 548	1	5	0.035382	-11.3387	-33.2925	-15.0386
 549	1	5	0.041247	-10.3101	-32.5316	-17.4426
 550	1	5	0.06146	-11.4895	-36.5472	-16.238
 551	1	5	0.068364	-9.7303	-34.6299	-15.8036
 552	1	5	0.055799	-11.3238	-34.2097	-19.265
 553	1	5	0.04347	-12.6178	-33.1509	-18.6546
 554	1	5	0.076294	-13.2403	-35.697	-18.1316
 555	1	5	0.058767	-7.55505	-39.6125	-18.1291
 556	1	5	0.056756	-5.83262	-37.6812	-17.7131
 557	1	5	0.029415	-4.9551	-36.8095	-20.1268
 558	1	5	0.049793	-6.00434	-38.396	-21.9608
 559	1	5	0.063468	-7.28633	-37.4208	-21.201
 560	1	5	-0.012542	-3.78854	-39.005	-20.6165
 561	1	5	-0.012458	-5.37294	-40.7886	-21.01
 562	1	5	0.013933	-7.77502	-39.9825	-20.7977
 563	1	5	0.014892	-7.46263	-33.6116	-17.2249
 564	1	5	0.04353	-5.85114	-34.3272	-15.5038
 565	1	5	0.048722	-5.93433	-36.0075	-16.0746
 566	1	5	0.053734	-7.36234	-35.2458	-15.3461
 567	1	5	0.029251	-5.09178	-35.1587	-18.3897
 568	1	5	0.025572	-5.12625	-33.4665	-17.8677
 569	1	5	0.023611	-6.06353	-33.9703	-19.2883
 570	1	5	0.021405	-10.2972	-39.7166	-19.0013
 571	1	5	0.009991	-12.6943	-38.0886	-18.0092
 572	1	5	0.026343	-12.7111	-39.7031	-18.7371
 573	1	5	0.026093	-12.2486	-38.2985	-19.7184
 574	1	5	0.043016	-9.53346	-39.6973	-16.632
 575	1	5	0.050907	-11.1194	-40.4772	-16.8061
 576	1	5	0.051325	-11.004	-38.8305	-16.1503
 577	1	1	-0.439951	-23.1741	-25.4553	-21.1831
 578	1	1	0.043044	-22.8331	-24.7914	-20.002
 579	1	1	0.126458	-21.5778	-23.9469	-22.306
 580	1	1	0.016683	-21.8851	-23.8063	-19.9495
 581	1	1	0.121946	-22.5658	-24.9784	-22.3763
 582	1	2	0.005505	-21.7014	-23.9089	-18.4403
 583	1	1	-0.445809	-21.1877	-23.3652	-21.0763
 584	1	2	0.001585	-22.8034	-25.0528	-18.502
 585	1	3	0.031166	-22.103	-26.2865	-17.8513
 586	1	2	-0.048351	-19.9666	-25.5573	-18.8517
 587	1	1	-0.041771	-19.0024	-26.6481	-18.4275
 588	1	2	-0.107179	-21.0627	-26.7054	-18.9286
 589	1	3	-0.106774	-21.2282	-25.573	-16.7826
 590	1	3	-0.025838	-20.4883	-24.6039	-17.7478
 591	1	1	-0.051955	-19.949	-27.6521	-18.5098
 592	1	1	-0.09124	-18.4107	-29.1627	-17.6451
 593	1	1	-0.099966	-17.4806	-28.1455	-17.5107
 594	1	1	-0.017311	-17.7458	-26.792	-17.809
 595	1	1	-0.020587	-19.7478	-28.9676	-18.043
 596	1	2	-0.042503	-16.4977	-29.0119	-16.7367
 597	1	2	0.004295	-17.5622	-30.1795	-16.9053
 598	1	3	0.00226	-17.935	-30.5316	-15.4458
 599	1	3	-0.145049	-17.8516	-29.1576	-14.7411
 600	1	3	0.011953	-16.7438	-31.2477	-14.7459
 601	1	3	0.014921	-15.6877	-30.0797	-14.56
 602	1	3	0.025749	-16.4061	-28.8532	-15.1961
 603	1	3	0.154129	-20.8123	-30.0568	-17.9471
 604	1	3	-0.203386	-21.5992	-29.9647	-16.6215
 605	1	3	-0.113237	-21.7712	-30.0642	-19.1582
 606	1	3	0.129534	-16.8385	-25.6067	-17.4933
 607	1	3	-0.091829	-15.345	-25.9147	-17.7383
 608	1	3	-0.19809	-17.0687	-25.0863	-16.0569
 609	1	4	0.228684	-23.8108	-26.3332	-21.1624
 610	1	5	0.042843	-22.0042	-23.0195	-17.8831
 611	1	4	0.232532	-20.3516	-22.6771	-21.0058
 612	1	5	0.035382	-23.7295	-24.8077	-17.9713
 613	1	5	0.041247	-22.7748	-27.0711	-17.487
 614	1	5	0.06146	-19.6704	-25.0633	-19.7812
 615	1	5	0.068364	-21.4854	-26.9494	-19.9064
 616	1	5	0.055799	-20.5512	-26.2583	-16.2559
 617	1	5	0.04347	-21.8341	-25.0386	-16.0406
 618	1	5	0.076294	-19.7457	-23.9346	-17.3004
 619	1	5	0.058767	-15.525	-29.1554	-17.2199
 620	1	5	0.056756	-17.2579	-31.0473	-17.501
 621	1	5	0.029415	-18.8911	-31.0542	-15.3245
 622	1	5	0.049793	-17.948	-29.2321	-13.6487
 623	1	5	0.063468	-18.5883	-28.4295	-15.1058
 624	1	5	-0.012542	-16.9901	-31.7428	-13.7973