pySIMM System Object

1304 atoms
1492 bonds
3120 angles
5688 dihedrals
80 impropers

5 atom types
9 bond types
18 angle types
19 dihedral types
2 improper types

-148.683847 148.683847 xlo xhi
-148.683847 148.683847 ylo yhi
-148.683847 148.683847 zlo zhi

Masses

   1	12.01	# ca
   2	12.01	# cy
   3	12.01	# c3
   4	1.008	# ha
   5	1.008	# hc

Pair Coeffs

   1	0.086	3.3996695084235347	# ca
   2	0.086	3.3996695084235347	# cy
   3	0.1094	3.3996695084235347	# c3
   4	0.015	2.59964245953351	# ha
   5	0.0157	2.649532787749369	# hc

Bond Coeffs

   1	300.9	1.5375	# c3,c3
   2	305.9	1.5319	# c3,cy
   3	345.8	1.086	# ca,ha
   4	321.0	1.5156	# c3,ca
   5	285.0	1.5562	# cy,cy
   6	330.6	1.0969	# c3,hc
   7	333.3	1.0949	# cy,hc
   8	321.2	1.5154	# ca,cy
   9	461.1	1.3984	# ca,ca

Angle Coeffs

   1	66.62	120.02	# ca,ca,ca
   2	61.4	116.81	# ca,cy,cy
   3	44.83	114.79	# cy,cy,hc
   4	46.43	110.14	# c3,cy,hc
   5	63.15	112.07	# c3,c3,ca
   6	46.34	109.8	# c3,c3,hc
   7	39.4	107.58	# hc,c3,hc
   8	48.18	119.88	# ca,ca,ha
   9	63.53	120.77	# c3,ca,ca
  10	60.66	118.7	# c3,cy,cy
  11	63.51	120.86	# ca,ca,cy
  12	62.73	112.39	# c3,c3,cy
  13	46.29	110.75	# cy,c3,hc
  14	46.8	110.47	# ca,c3,hc
  15	62.8	113.57	# c3,cy,ca
  16	62.86	111.51	# c3,c3,c3
  17	67.9	96.03	# cy,c3,cy
  18	45.97	114.53	# ca,cy,hc

Dihedral Coeffs

   1	1	0.16	3	0.0	# hc,c3,cy,cy
   2	1	0.16	3	0.0	# cy,c3,cy,hc
   3	1	0.16	3	0.0	# c3,c3,cy,hc
   4	1	0.15	3	0.0	# hc,c3,cy,hc
   5	1	3.625	2	180	# X,ca,ca,X
   6	1	0.15555555555555556	3	0	# X,cy,cy,X
   7	3	0.18	3	0	0.25	2	180	0.2	1	180	# c3,c3,c3,c3
   8	1	0.16	3	0	# hc,c3,c3,c3
   9	1	0.0	2	0.0	# ca,ca,cy,cy
  10	1	0.0	2	0.0	# ca,ca,cy,c3
  11	1	0.15555555555555556	3	0	# X,c3,c3,X
  12	1	0.0	2	0	# X,c3,ca,X
  13	3	0.38	3	180.0	0.0	2	0.0	1.15	1	0.0	# ca,ca,cy,hc
  14	3	0.18	3	0.0	0.25	2	180.0	0.2	1	180.0	# cy,c3,cy,cy
  15	1	0.16	3	0.0	# cy,c3,cy,ca
  16	1	0.16	3	0.0	# c3,c3,cy,ca
  17	1	0.16	3	0.0	# hc,c3,cy,ca
  18	1	0.15	3	0	# hc,c3,c3,hc
  19	3	0.18	3	0.0	0.25	2	180.0	0.2	1	180.0	# c3,c3,cy,cy

Improper Coeffs

   1	1.1	-1	2	# ca,ca,ca,c3
   2	1.1	-1	2	# ca,X,X,ha

Atoms

   1	1	1	-0.439951	33.824	11.8783	5.79929
   2	1	1	0.043044	34.8861	11.5932	4.9186
   3	1	1	0.126458	33.036	13.372	4.02013
   4	1	1	0.016683	35.0608	12.2406	3.69798
   5	1	1	0.121946	32.845	12.7022	5.21537
   6	1	2	0.005505	36.558	11.991	3.67104
   7	1	1	-0.445809	34.2078	13.2685	3.24914
   8	1	2	0.001585	36.3616	11.2701	5.0694
   9	1	3	0.031166	37.1803	12.1494	6.0538
  10	1	2	-0.048351	38.7918	12.3916	4.18502
  11	1	1	-0.041771	39.9721	13.1035	4.82781
  12	1	2	-0.107179	38.5878	11.6838	5.59725
  13	1	3	-0.106774	37.0727	13.577	5.44625
  14	1	3	-0.025838	37.4774	13.1974	3.99301
  15	1	1	-0.051955	39.7844	12.497	6.05828
  16	1	1	-0.09124	41.3537	13.929	7.0111
  17	1	1	-0.099966	41.5669	14.5105	5.77227
  18	1	1	-0.017311	40.8101	14.22	4.62033
  19	1	1	-0.020587	40.37	12.9468	7.25801
  20	1	2	-0.042503	42.4312	15.6281	6.32788
  21	1	2	0.004295	42.1871	14.9675	7.74925
  22	1	3	0.00226	41.4695	16.0977	8.52374
  23	1	3	-0.145049	40.6213	16.7906	7.43725
  24	1	3	0.011953	42.5082	17.2116	8.81228
  25	1	3	0.014921	42.7403	17.8565	7.41746
  26	1	3	0.025749	41.8123	17.035	6.48781
  27	1	3	0.154129	39.9423	12.4307	8.62938
  28	1	3	-0.203386	41.1357	12.2304	9.58931
  29	1	3	-0.113237	38.8629	13.3306	9.26975
  30	1	3	0.129534	40.9081	15.0412	3.33695
  31	1	3	-0.091829	39.8448	16.1599	3.28389
  32	1	3	-0.19809	40.8539	14.1661	2.06467
  33	1	4	0.228684	33.8248	11.6049	6.84944
  34	1	5	0.042843	36.9024	11.3706	2.8353
  35	1	4	0.232532	34.4828	13.9854	2.48232
  36	1	5	0.035382	36.5949	10.1999	5.11489
  37	1	5	0.041247	36.9403	12.0393	7.11772
  38	1	5	0.06146	39.0537	11.7449	3.33897
  39	1	5	0.068364	38.7362	10.598	5.63544
  40	1	5	0.055799	37.7671	14.2907	5.90828
  41	1	5	0.04347	36.059	13.9924	5.51311
  42	1	5	0.076294	37.4847	14.0016	3.25029
  43	1	5	0.058767	43.4672	15.6512	5.97192
  44	1	5	0.056756	43.0748	14.5872	8.26698
  45	1	5	0.029415	40.9182	15.7797	9.41468
  46	1	5	0.049793	40.1562	17.7226	7.78751
  47	1	5	0.063468	39.8433	16.1447	7.00916
  48	1	5	-0.012542	43.4355	16.8073	9.23845
  49	1	5	-0.012458	43.7913	17.7972	7.1057
  50	1	5	0.013933	41.5654	17.5467	5.55039
  51	1	5	0.014892	39.4872	11.4423	8.48301
  52	1	5	0.04353	41.904	11.6001	9.12408
  53	1	5	0.048722	40.809	11.7389	10.5141
  54	1	5	0.053734	41.5944	13.1883	9.86117
  55	1	5	0.029251	38.0183	13.4778	8.58757
  56	1	5	0.025572	39.262	14.3177	9.52028
  57	1	5	0.023611	38.4778	12.8776	10.1918
  58	1	5	0.021405	41.889	15.5345	3.33687
  59	1	5	0.009991	40.013	16.8127	2.41813
  60	1	5	0.026343	39.8812	16.7801	4.18611
  61	1	5	0.026093	38.8345	15.7488	3.20458
  62	1	5	0.043016	39.8653	13.7107	1.93403
  63	1	5	0.050907	41.5993	13.3624	2.11653
  64	1	5	0.051325	41.0674	14.7682	1.17268
  65	1	1	-0.439951	22.313	11.2554	-0.36094
  66	1	1	0.043044	22.8571	11.5634	0.897098
  67	1	1	0.126458	21.342	9.31062	0.796154
  68	1	1	0.016683	22.5901	10.8424	2.05436
  69	1	1	0.121946	21.6334	10.0257	-0.352733
  70	1	2	0.005505	22.9662	11.9963	2.97222
  71	1	1	-0.445809	21.7129	9.73843	2.08742
  72	1	2	0.001585	23.2526	12.8183	1.64442
  73	1	3	0.031166	24.7688	13.1244	1.70328
  74	1	2	-0.048351	24.4175	13.4071	4.13276
  75	1	1	-0.041771	25.7557	13.9502	4.60866
  76	1	2	-0.107179	24.6927	14.2247	2.79357
  77	1	3	-0.106774	25.3546	11.9023	2.46588
  78	1	3	-0.025838	24.3588	11.9273	3.66067
  79	1	1	-0.051955	25.9936	14.662	3.44508
  80	1	1	-0.09124	28.1559	15.1159	4.17179
  81	1	1	-0.099966	27.9252	14.3984	5.33479
  82	1	1	-0.017311	26.7365	13.6765	5.58326
  83	1	1	-0.020587	27.2481	15.207	3.09983
  84	1	2	-0.042503	29.3897	14.4316	5.75925
  85	1	2	0.004295	29.6471	15.2434	4.4161
  86	1	3	0.00226	30.6063	14.3207	3.62585
  87	1	3	-0.145049	30.1319	12.909	4.0487
  88	1	3	0.011953	31.9867	14.4252	4.32791
  89	1	3	0.014921	31.7524	13.6455	5.68624
  90	1	3	0.025749	30.272	13.1746	5.56686
  91	1	3	0.154129	27.6238	15.8187	1.75184
  92	1	3	-0.203386	28.0959	14.7533	0.738086
  93	1	3	-0.113237	26.4933	16.6866	1.15673
  94	1	3	0.129534	26.5052	12.7028	6.73561
  95	1	3	-0.091829	27.1107	13.2041	8.06549
  96	1	3	-0.19809	27.0049	11.2811	6.39818
  97	1	4	0.228684	22.2989	11.945	-1.19884
  98	1	5	0.042843	22.1614	12.3373	3.63388
  99	1	4	0.232532	21.267	9.35094	2.99789
 100	1	5	0.035382	22.6299	13.6937	1.42551
 101	1	5	0.041247	25.2353	13.3906	0.749718
 102	1	5	0.06146	23.5581	13.7196	4.73804
 103	1	5	0.068364	24.0019	15.0442	2.5616
 104	1	5	0.055799	26.3967	12.055	2.77553
 105	1	5	0.04347	25.3016	10.9718	1.88588
 106	1	5	0.076294	24.4829	11.1545	4.42839
 107	1	5	0.058767	29.6016	14.9629	6.69384
 108	1	5	0.056756	30.0261	16.2654	4.52805
 109	1	5	0.029415	30.6476	14.4956	2.5449
 110	1	5	0.049793	30.7728	12.0972	3.68148
 111	1	5	0.063468	29.1039	12.6816	3.73818
 112	1	5	-0.012542	32.3817	15.4414	4.45843
 113	1	5	-0.012458	32.0005	14.2263	6.58453
 114	1	5	0.013933	30.0315	12.324	6.21316
 115	1	5	0.014892	28.4752	16.4902	1.92373
 116	1	5	0.04353	28.8743	14.1155	1.17029
 117	1	5	0.048722	28.5082	15.2304	-0.159644
 118	1	5	0.053734	27.2736	14.1047	0.425668
 119	1	5	0.029251	25.6297	16.0758	0.868664
 120	1	5	0.025572	26.8439	17.2168	0.262375
 121	1	5	0.023611	26.1576	17.4365	1.88413
 122	1	5	0.021405	25.421	12.6303	6.89283
 123	1	5	0.009991	28.2065	13.2173	8.02712
 124	1	5	0.026343	26.8111	12.5527	8.89595
 125	1	5	0.026093	26.7618	14.2199	8.29041
 126	1	5	0.043016	28.0936	11.2549	6.29468
 127	1	5	0.050907	26.5729	10.9269	5.45566
 128	1	5	0.051325	26.7231	10.5736	7.18788
 129	1	1	-0.439951	18.4836	0.459591	-5.81888
 130	1	1	0.043044	19.8674	0.689824	-5.95608
 131	1	1	0.126458	18.2799	1.69156	-7.9307
 132	1	1	0.016683	20.4097	1.45984	-6.98451
 133	1	1	0.121946	17.7431	0.908114	-6.9294
 134	1	2	0.005505	21.6111	1.87812	-6.16123
 135	1	1	-0.445809	19.6241	2.09927	-7.96469
 136	1	2	0.001585	20.9997	1.00625	-4.98951
 137	1	3	0.031166	20.6963	2.03944	-3.86922
 138	1	2	-0.048351	22.7612	3.16266	-4.61123
 139	1	1	-0.041771	22.9349	4.27833	-3.60444
 140	1	2	-0.107179	22.1578	2.30867	-3.4133
 141	1	3	-0.106774	20.3417	3.32594	-4.66212
 142	1	3	-0.025838	21.5823	3.32158	-5.602
 143	1	1	-0.051955	22.4193	3.54077	-2.54847
 144	1	1	-0.09124	22.2733	5.49891	-1.2776
 145	1	1	-0.099966	22.6918	6.23907	-2.37137
 146	1	1	-0.017311	22.9748	5.68474	-3.63534
 147	1	1	-0.020587	21.9593	4.12419	-1.3448
 148	1	2	-0.042503	22.3039	7.57192	-1.75098
 149	1	2	0.004295	21.8788	6.72993	-0.473864
 150	1	3	0.00226	20.3798	7.06294	-0.30456
 151	1	3	-0.145049	19.9081	7.1765	-1.77286
 152	1	3	0.011953	20.1967	8.54398	0.145185
 153	1	3	0.014921	20.5557	9.35111	-1.17082
 154	1	3	0.025749	20.9596	8.2349	-2.17288
 155	1	3	0.154129	21.1898	3.40139	-0.239117
 156	1	3	-0.203386	19.6631	3.39302	-0.482066
 157	1	3	-0.113237	21.7111	1.96856	0.00842402
 158	1	3	0.129534	23.2936	6.46243	-4.91104
 159	1	3	-0.091829	24.358	7.55629	-4.67676
 160	1	3	-0.19809	22.0373	7.04416	-5.59586
 161	1	4	0.228684	18.0279	0.114091	-4.89812
 162	1	5	0.042843	22.58	1.56319	-6.56631
 163	1	4	0.232532	19.9807	2.92164	-8.57619
 164	1	5	0.035382	21.5837	0.141181	-4.6554
 165	1	5	0.041247	19.9831	1.7104	-3.10814
 166	1	5	0.06146	23.6936	2.80286	-5.06287
 167	1	5	0.068364	22.7101	1.40789	-3.12087
 168	1	5	0.055799	20.2809	4.21934	-4.02759
 169	1	5	0.04347	19.3981	3.23046	-5.20128
 170	1	5	0.076294	21.6546	4.12994	-6.33879
 171	1	5	0.058767	23.1271	8.28349	-1.62485
 172	1	5	0.056756	22.4625	6.89309	0.438931
 173	1	5	0.029415	19.815	6.35258	0.309742
 174	1	5	0.049793	18.8757	7.54351	-1.86241
 175	1	5	0.063468	19.9932	6.24188	-2.34205
 176	1	5	-0.012542	19.1962	8.79242	0.52332
 177	1	5	-0.012458	19.7377	10.0048	-1.5017
 178	1	5	0.013933	20.8985	8.56282	-3.21337
 179	1	5	0.014892	21.3575	3.95992	0.691071
 180	1	5	0.04353	19.3895	2.73519	-1.30989
 181	1	5	0.048722	19.2919	4.39452	-0.72117
 182	1	5	0.053734	19.1334	3.04102	0.411784
 183	1	5	0.029251	22.7945	1.97523	0.181267
 184	1	5	0.025572	21.503	1.31447	-0.846727
 185	1	5	0.023611	21.2302	1.52982	0.891675
 186	1	5	0.021405	23.7327	5.75013	-5.62177
 187	1	5	0.009991	23.9797	8.34625	-4.01656
 188	1	5	0.026343	24.652	8.02007	-5.62663
 189	1	5	0.026093	25.2573	7.12708	-4.21714
 190	1	5	0.043016	21.7043	7.96129	-5.10386
 191	1	5	0.050907	21.2078	6.32746	-5.58122
 192	1	5	0.051325	22.2539	7.29511	-6.64157
 193	1	1	-0.439951	10.4924	10.4112	-6.77755
 194	1	1	0.043044	11.0223	9.9594	-5.55407
 195	1	1	0.126458	8.51245	9.09026	-6.16332
 196	1	1	0.016683	10.3644	9.06252	-4.71736
 197	1	1	0.121946	9.15671	10.0099	-6.9711
 198	1	2	0.005505	11.6534	8.58392	-4.06416
 199	1	1	-0.445809	9.11739	8.48629	-5.04185
 200	1	2	0.001585	12.4013	9.57882	-5.04568
 201	1	3	0.031166	13.2501	8.63861	-5.94862
 202	1	2	-0.048351	13.617	7.34097	-3.87191
 203	1	1	-0.041771	14.6529	6.30168	-4.26113
 204	1	2	-0.107179	14.3504	8.30168	-4.90989
 205	1	3	-0.106774	12.4217	7.32515	-5.99963
 206	1	3	-0.025838	12.1877	7.18622	-4.46887
 207	1	1	-0.051955	15.2725	7.12039	-5.19115
 208	1	1	-0.09124	16.4939	5.28929	-5.95942
 209	1	1	-0.099966	15.9134	4.48568	-4.99185
 210	1	1	-0.017311	14.8624	4.91217	-4.15225
 211	1	1	-0.020587	16.1502	6.63617	-6.18709
 212	1	2	-0.042503	16.4707	3.20269	-5.58829
 213	1	2	0.004295	17.1145	4.12344	-6.71125
 214	1	3	0.00226	16.4251	3.62179	-8.00562
 215	1	3	-0.145049	15.0154	3.24416	-7.49494
 216	1	3	0.011953	16.93	2.20048	-8.40204
 217	1	3	0.014921	16.3088	1.28336	-7.27034
 218	1	3	0.025749	15.5158	2.28968	-6.3896
 219	1	3	0.154129	16.6669	7.41922	-7.39127
 220	1	3	-0.203386	15.6808	7.36586	-8.57723
 221	1	3	-0.113237	17.0332	8.87805	-7.04051
 222	1	3	0.129534	14.0406	4.01598	-3.22612
 223	1	3	-0.091829	14.8865	2.90076	-2.56994
 224	1	3	-0.19809	12.7997	3.42157	-3.92825
 225	1	4	0.228684	11.092	10.8759	-7.55377
 226	1	5	0.042843	11.7263	8.79775	-2.99143
 227	1	4	0.232532	8.73292	7.58737	-4.57082
 228	1	5	0.035382	12.9661	10.3989	-4.58714
 229	1	5	0.041247	13.5768	9.06423	-6.90281
 230	1	5	0.06146	13.6386	7.63619	-2.81606
 231	1	5	0.068364	14.8557	9.18223	-4.49568
 232	1	5	0.055799	12.9795	6.482	-6.42751
 233	1	5	0.04347	11.4903	7.4366	-6.56027
 234	1	5	0.076294	11.591	6.33232	-4.13158
 235	1	5	0.058767	17.1546	2.65338	-4.93544
 236	1	5	0.056756	18.2036	4.15538	-6.79048
 237	1	5	0.029415	16.4376	4.33055	-8.84058
 238	1	5	0.049793	14.4142	2.72799	-8.2468
 239	1	5	0.063468	14.4341	4.09615	-7.11873
 240	1	5	-0.012542	16.642	1.86665	-9.40546
 241	1	5	-0.012458	15.7009	0.477092	-7.69911
 242	1	5	0.013933	14.7281	1.80729	-5.80332
 243	1	5	0.014892	17.5936	6.93555	-7.72703
 244	1	5	0.04353	14.7609	7.90291	-8.34175
 245	1	5	0.048722	15.4069	6.33396	-8.81959
 246	1	5	0.053734	16.1212	7.82157	-9.47259
 247	1	5	0.029251	17.4986	9.37653	-7.89995
 248	1	5	0.025572	17.7451	8.90781	-6.20603
 249	1	5	0.023611	16.1464	9.45681	-6.75682
 250	1	5	0.021405	13.6699	4.64767	-2.40827
 251	1	5	0.009991	15.2011	2.14994	-3.30455
 252	1	5	0.026343	14.3086	2.38579	-1.79236
 253	1	5	0.026093	15.7851	3.32083	-2.10044
 254	1	5	0.043016	13.0796	2.72007	-4.71851
 255	1	5	0.050907	12.1944	4.20846	-4.38687
 256	1	5	0.051325	12.1681	2.88462	-3.20968
 257	1	1	-0.439951	14.5352	-0.792137	-11.374
 258	1	1	0.043044	14.103	0.533352	-11.5691
 259	1	1	0.126458	16.7189	-0.0407449	-12.1572
 260	1	1	0.016683	14.955	1.5381	-12.0381
 261	1	1	0.121946	15.8409	-1.06573	-11.8227
 262	1	2	0.005505	14.2999	2.61133	-11.1996
 263	1	1	-0.445809	16.3315	1.3079	-12.2204
 264	1	2	0.001585	13.3851	1.46898	-10.6065
 265	1	3	0.031166	11.9437	1.94039	-10.927
 266	1	2	-0.048351	12.7894	4.22953	-10.5911
 267	1	1	-0.041771	11.5186	5.05656	-10.6491
 268	1	2	-0.107179	11.9145	3.11225	-9.89553
 269	1	3	-0.106774	12.1097	2.64851	-12.2982
 270	1	3	-0.025838	13.2927	3.56954	-11.8951
 271	1	1	-0.051955	10.7681	4.10674	-9.96354
 272	1	1	-0.09124	9.43697	5.84465	-9.07112
 273	1	1	-0.099966	10.1387	6.77803	-9.83168
 274	1	1	-0.017311	11.302	6.44224	-10.5558
 275	1	1	-0.020587	9.79421	4.48001	-9.01491
 276	1	2	-0.042503	9.78123	7.92593	-8.90672
 277	1	2	0.004295	9.00488	6.87256	-8.03297
 278	1	3	0.00226	7.55799	7.41822	-8.04747
 279	1	3	-0.145049	7.4407	8.00112	-9.47334
 280	1	3	0.011953	7.46589	8.7405	-7.21784
 281	1	3	0.014921	8.21819	9.78695	-8.14409
 282	1	3	0.025749	8.67741	8.91687	-9.35079
 283	1	3	0.154129	9.38889	3.53264	-7.88587
 284	1	3	-0.203386	10.2563	3.73315	-6.62187
 285	1	3	-0.113237	7.88598	3.62158	-7.5423
 286	1	3	0.129534	12.3099	7.43312	-11.1468
 287	1	3	-0.091829	12.5538	8.70403	-10.3052
 288	1	3	-0.19809	11.8944	7.81536	-12.5829
 289	1	4	0.228684	14.0311	-1.45366	-10.676
 290	1	5	0.042843	14.9971	3.12645	-10.5321
 291	1	4	0.232532	17.0577	2.10663	-12.1087
 292	1	5	0.035382	13.5123	1.17719	-9.55845
 293	1	5	0.041247	11.1499	1.18707	-10.8483
 294	1	5	0.06146	13.5872	4.70137	-10.0041
 295	1	5	0.068364	12.1779	2.80327	-8.87849
 296	1	5	0.055799	11.2141	3.21003	-12.5943
 297	1	5	0.04347	12.3709	1.95294	-13.1062
 298	1	5	0.076294	13.6919	4.23955	-12.6669
 299	1	5	0.058767	10.6337	8.42266	-8.44566
 300	1	5	0.056756	9.36196	6.67714	-7.02008
 301	1	5	0.029415	6.78255	6.68472	-7.79586
 302	1	5	0.049793	6.50787	8.56104	-9.63004
 303	1	5	0.063468	7.53195	7.24592	-10.265
 304	1	5	-0.012542	6.44396	9.06225	-6.97787
 305	1	5	-0.012458	7.58604	10.6461	-8.40475
 306	1	5	0.013933	8.90939	9.4951	-10.2539
 307	1	5	0.014892	9.56679	2.50732	-8.23608
 308	1	5	0.04353	10.0612	4.70254	-6.15037
 309	1	5	0.048722	11.3241	3.6877	-6.86758
 310	1	5	0.053734	10.0475	2.95003	-5.8825
 311	1	5	0.029251	7.27426	3.52398	-8.44797
 312	1	5	0.025572	7.64212	4.57568	-7.06201
 313	1	5	0.023611	7.60037	2.81769	-6.85238
 314	1	5	0.021405	13.2797	6.9244	-11.2193
 315	1	5	0.009991	12.7667	8.44511	-9.26267
 316	1	5	0.026343	11.6845	9.37232	-10.3305
 317	1	5	0.026093	13.4137	9.26297	-10.6949
 318	1	5	0.043016	12.6472	8.46212	-13.0506
 319	1	5	0.050907	10.9346	8.34786	-12.5817
 320	1	5	0.051325	11.784	6.91775	-13.2045
 321	1	1	-0.439951	25.0298	-6.79335	-11.3777
 322	1	1	0.043044	24.4815	-7.16108	-12.6274
 323	1	1	0.126458	24.0679	-8.90561	-10.5709
 324	1	1	0.016683	23.6494	-8.26808	-12.7841
 325	1	1	0.121946	24.8555	-7.78469	-10.3896
 326	1	2	0.005505	22.879	-7.65384	-13.9369
 327	1	1	-0.445809	23.3225	-9.1505	-11.7375
 328	1	2	0.001585	23.8601	-6.41675	-13.8038
 329	1	3	0.031166	22.9147	-5.23217	-13.4899
 330	1	2	-0.048351	21.214	-6.32446	-14.919
 331	1	1	-0.041771	20.1361	-5.23916	-14.9613
 332	1	2	-0.107179	22.2554	-5.12655	-14.9014
 333	1	3	-0.106774	21.8131	-5.89556	-12.6187
 334	1	3	-0.025838	21.4824	-7.06316	-13.5846
 335	1	1	-0.051955	21.0584	-4.20225	-15.022
 336	1	1	-0.09124	19.3807	-2.64128	-14.5566
 337	1	1	-0.099966	18.4709	-3.68053	-14.3989
 338	1	1	-0.017311	18.8095	-5.04456	-14.5109
 339	1	1	-0.020587	20.7632	-2.84637	-14.7596
 340	1	2	-0.042503	17.5264	-2.86234	-13.5217
 341	1	2	0.004295	18.5461	-1.6755	-13.734
 342	1	3	0.00226	19.0412	-1.36772	-12.3055
 343	1	3	-0.145049	19.0495	-2.76674	-11.6503
 344	1	3	0.011953	17.908	-0.708788	-11.48
 345	1	3	0.014921	16.9304	-1.90751	-11.1919
 346	1	3	0.025749	17.5762	-3.08522	-11.9811
 347	1	3	0.154129	21.8172	-1.73646	-14.5957
 348	1	3	-0.203386	23.1355	-2.02683	-15.3549
 349	1	3	-0.113237	21.2966	-0.356026	-15.071
 350	1	3	0.129534	17.8071	-6.14049	-14.1505
 351	1	3	-0.091829	18.0058	-6.71883	-12.7335
 352	1	3	-0.19809	17.762	-7.2644	-15.2089
 353	1	4	0.228684	25.4182	-5.80292	-11.1638
 354	1	5	0.042843	22.913	-8.2178	-14.8763
 355	1	4	0.232532	22.4837	-9.8385	-11.7733
 356	1	5	0.035382	24.5446	-6.23204	-14.6398
 357	1	5	0.041247	23.382	-4.32759	-13.0821
 358	1	5	0.06146	21.2337	-6.98108	-15.7969
 359	1	5	0.068364	22.964	-5.07758	-15.7368
 360	1	5	0.055799	20.9567	-5.24189	-12.4366
 361	1	5	0.04347	22.1874	-6.23685	-11.6506
 362	1	5	0.076294	20.7379	-7.79148	-13.2543
 363	1	5	0.058767	16.513	-2.71855	-13.9123
 364	1	5	0.056756	18.1742	-0.796536	-14.2723
 365	1	5	0.029415	19.9972	-0.834192	-12.2435
 366	1	5	0.049793	19.2486	-2.7343	-10.5743
 367	1	5	0.063468	19.7643	-3.45732	-12.1038
 368	1	5	-0.012542	18.2425	-0.221533	-10.5541
 369	1	5	-0.012458	16.8112	-2.08833	-10.1189
 370	1	5	0.013933	17.2315	-4.0684	-11.6434
 371	1	5	0.014892	22.0635	-1.64949	-13.5297
 372	1	5	0.04353	23.8121	-1.16423	-15.3105
 373	1	5	0.048722	22.9374	-2.24817	-16.4115
 374	1	5	0.053734	23.6758	-2.87112	-14.9181
 375	1	5	0.029251	20.9485	-0.407139	-16.1105
 376	1	5	0.025572	22.0879	0.401997	-15.0152
 377	1	5	0.023611	20.4715	0.00650873	-14.4511
 378	1	5	0.021405	16.8135	-5.67316	-14.1531
 379	1	5	0.009991	17.0495	-7.06991	-12.3261
 380	1	5	0.026343	18.4182	-5.97305	-12.0442
 381	1	5	0.026093	18.6789	-7.5776	-12.7526
 382	1	5	0.043016	16.9615	-7.97939	-14.9809
 383	1	5	0.050907	18.7101	-7.81468	-15.2455
 384	1	5	0.051325	17.5705	-6.84709	-16.2055
 385	1	1	-0.439951	13.4431	-3.41955	-6.32637
 386	1	1	0.043044	14.6624	-2.97904	-6.86807
 387	1	1	0.126458	13.816	-1.61846	-4.68825
 388	1	1	0.016683	15.437	-1.96276	-6.32828
 389	1	1	0.121946	13.0284	-2.59886	-5.26231
 390	1	2	0.005505	16.6676	-2.34015	-7.13838
 391	1	1	-0.445809	15.1116	-1.28894	-5.13284
 392	1	2	0.001585	15.7847	-3.53124	-7.71792
 393	1	3	0.031166	16.5173	-4.80281	-7.20721
 394	1	2	-0.048351	18.5832	-3.52022	-7.70408
 395	1	1	-0.041771	19.7033	-4.53747	-7.54826
 396	1	2	-0.107179	17.6922	-4.73211	-8.21185
 397	1	3	-0.106774	17.1763	-4.3502	-5.87468
 398	1	3	-0.025838	17.8406	-3.054	-6.41659
 399	1	1	-0.051955	18.9022	-5.60264	-7.93505
 400	1	1	-0.09124	20.7903	-6.92015	-8.33512
 401	1	1	-0.099966	21.5982	-5.83059	-8.03537
 402	1	1	-0.017311	21.1052	-4.55101	-7.71497
 403	1	1	-0.020587	19.3847	-6.82977	-8.42363
 404	1	2	-0.042503	22.8061	-6.38837	-8.77405
 405	1	2	0.004295	21.8977	-7.64467	-9.07798
 406	1	3	0.00226	22.6273	-8.79874	-8.34161
 407	1	3	-0.145049	23.2541	-8.07995	-7.12655
 408	1	3	0.011953	23.9386	-9.18058	-9.08614
 409	1	3	0.014921	24.8612	-7.90701	-8.86654
 410	1	3	0.025749	23.9711	-6.99345	-7.96084
 411	1	3	0.154129	18.4383	-7.87631	-9.01664
 412	1	3	-0.203386	19.094	-8.86222	-10.008
 413	1	3	-0.113237	17.7436	-8.65949	-7.88216
 414	1	3	0.129534	22.0031	-3.31652	-7.7043
 415	1	3	-0.091829	21.7118	-2.3939	-6.50164
 416	1	3	-0.19809	21.9317	-2.53318	-9.03271
 417	1	4	0.228684	12.9371	-4.3323	-6.6241
 418	1	5	0.042843	16.9878	-1.57712	-7.85454
 419	1	4	0.232532	15.7971	-0.657702	-4.57942
 420	1	5	0.035382	15.5741	-3.53049	-8.79307
 421	1	5	0.041247	15.939	-5.7347	-7.18547
 422	1	5	0.06146	18.8036	-2.70052	-8.39429
 423	1	5	0.068364	17.3728	-4.73822	-9.26039
 424	1	5	0.055799	17.909	-5.07412	-5.49507
 425	1	5	0.04347	16.4413	-4.15389	-5.08349
 426	1	5	0.076294	18.4171	-2.45586	-5.70065
 427	1	5	0.058767	23.1535	-5.77555	-9.61086
 428	1	5	0.056756	21.6819	-7.87255	-10.1221
 429	1	5	0.029415	21.9952	-9.6585	-8.08675
 430	1	5	0.049793	23.9524	-8.71749	-6.56606
 431	1	5	0.063468	22.5121	-7.67872	-6.42377
 432	1	5	-0.012542	24.4143	-10.1084	-8.7417
 433	1	5	-0.012458	25.8325	-8.17528	-8.43073
 434	1	5	0.013933	24.5402	-6.26904	-7.36496
 435	1	5	0.014892	17.6551	-7.34455	-9.57241
 436	1	5	0.04353	18.3355	-9.50954	-10.4655
 437	1	5	0.048722	19.8247	-9.50582	-9.50349
 438	1	5	0.053734	19.6009	-8.32247	-10.8139
 439	1	5	0.029251	17.2191	-7.97718	-7.20185
 440	1	5	0.025572	18.4772	-9.22638	-7.29466
 441	1	5	0.023611	17.0075	-9.3655	-8.28659
 442	1	5	0.021405	23.0396	-3.66118	-7.59223
 443	1	5	0.009991	20.7157	-1.94441	-6.58096
 444	1	5	0.026343	22.4472	-1.58134	-6.45044
 445	1	5	0.026093	21.7607	-2.95606	-5.56066
 446	1	5	0.043016	20.9513	-2.06165	-9.16023
 447	1	5	0.050907	22.1107	-3.19829	-9.88706
 448	1	5	0.051325	22.6895	-1.74016	-9.05423
 449	1	1	-0.439951	12.289	-6.34826	6.01458
 450	1	1	0.043044	12.8462	-7.22023	5.05689
 451	1	1	0.126458	10.2329	-7.64253	5.65512
 452	1	1	0.016683	12.1114	-8.19319	4.38462
 453	1	1	0.121946	10.968	-6.70201	6.34902
 454	1	2	0.005505	13.0707	-8.24683	3.21285
 455	1	1	-0.445809	10.7266	-8.37858	4.56412
 456	1	2	0.001585	13.9042	-7.12921	3.96984
 457	1	3	0.031166	13.8344	-5.90893	3.01115
 458	1	2	-0.048351	13.9765	-7.57506	1.18268
 459	1	1	-0.041771	14.1297	-6.71501	-0.0607987
 460	1	2	-0.107179	14.8155	-6.4499	1.93567
 461	1	3	-0.106774	12.4473	-6.06393	2.32608
 462	1	3	-0.025838	12.6055	-7.55395	1.90774
 463	1	1	-0.051955	14.8596	-5.7362	0.594792
 464	1	1	-0.09124	14.7049	-4.35296	-1.27506
 465	1	1	-0.099966	13.9657	-5.33048	-1.91993
 466	1	1	-0.017311	13.5356	-6.5313	-1.32676
 467	1	1	-0.020587	15.0942	-4.4449	0.079129
 468	1	2	-0.042503	13.5797	-4.43012	-3.07385
 469	1	2	0.004295	14.4464	-3.31027	-2.35804
 470	1	3	0.00226	13.4124	-2.18712	-2.09802
 471	1	3	-0.145049	12.1329	-2.99355	-1.77351
 472	1	3	0.011953	12.9602	-1.51987	-3.4337
 473	1	3	0.014921	12.0628	-2.64944	-4.09791
 474	1	3	0.025749	12.1535	-3.81913	-3.08064
 475	1	3	0.154129	15.6596	-3.30699	0.925565
 476	1	3	-0.203386	16.652	-2.41755	0.143948
 477	1	3	-0.113237	14.5389	-2.4555	1.56316
 478	1	3	0.129534	12.5444	-7.47419	-2.00697
 479	1	3	-0.091829	11.0868	-7.20431	-1.57244
 480	1	3	-0.19809	12.9118	-8.96312	-1.82134
 481	1	4	0.228684	12.7783	-5.4465	6.36835
 482	1	5	0.042843	13.5581	-9.21761	3.06396
 483	1	4	0.232532	10.0955	-8.93371	3.87741
 484	1	5	0.035382	14.9181	-7.39627	4.29009
 485	1	5	0.041247	14.067	-4.93334	3.45302
 486	1	5	0.06146	14.434	-8.56904	1.10825
 487	1	5	0.068364	15.7969	-6.74103	2.32857
 488	1	5	0.055799	12.3166	-5.39195	1.46795
 489	1	5	0.04347	11.6142	-5.89993	3.01887
 490	1	5	0.076294	11.7591	-8.02513	1.39894
 491	1	5	0.058767	13.9226	-4.77673	-4.05331
 492	1	5	0.056756	15.339	-2.96518	-2.89
 493	1	5	0.029415	13.7024	-1.45675	-1.33582
 494	1	5	0.049793	11.24	-2.35872	-1.68288
 495	1	5	0.063468	12.2149	-3.60586	-0.86585
 496	1	5	-0.012542	12.4167	-0.572923	-3.31669
 497	1	5	-0.012458	11.0452	-2.30133	-4.31928
 498	1	5	0.013933	11.3372	-4.54244	-3.18338
 499	1	5	0.014892	16.2247	-3.75914	1.7511
 500	1	5	0.04353	16.1467	-1.85639	-0.650629
 501	1	5	0.048722	17.4397	-3.02883	-0.313985
 502	1	5	0.053734	17.1314	-1.69348	0.81433
 503	1	5	0.029251	14.9594	-1.72224	2.26245
 504	1	5	0.025572	13.8332	-3.08363	2.1173
 505	1	5	0.023611	13.9685	-1.91016	0.805979
 506	1	5	0.021405	12.5923	-7.27404	-3.08552
 507	1	5	0.009991	10.9167	-7.48806	-0.530875
 508	1	5	0.026343	10.3872	-7.77668	-2.19434
 509	1	5	0.026093	10.8352	-6.14309	-1.67139
 510	1	5	0.043016	13.9407	-9.15099	-2.1532
 511	1	5	0.050907	12.2442	-9.60222	-2.41271
 512	1	5	0.051325	12.8274	-9.26808	-0.771837
 513	1	1	-0.439951	0.867226	-0.247799	3.2052
 514	1	1	0.043044	2.249	-0.160502	3.44016
 515	1	1	0.126458	0.727436	1.38843	5.05403
 516	1	1	0.016683	2.83739	0.701962	4.3507
 517	1	1	0.121946	0.153938	0.547626	4.11832
 518	1	2	0.005505	4.2356	0.501355	3.78315
 519	1	1	-0.445809	2.11845	1.58705	5.18119
 520	1	2	0.001585	3.55195	-0.502192	2.75443
 521	1	3	0.031166	4.15851	-1.8821	3.11674
 522	1	2	-0.048351	6.26108	-0.620314	3.46251
 523	1	1	-0.041771	7.30654	-1.70676	3.6681
 524	1	2	-0.107179	5.54927	-1.65086	2.47816
 525	1	3	-0.106774	4.45291	-1.76908	4.63922
 526	1	3	-0.025838	5.20235	-0.406881	4.58656
 527	1	1	-0.051955	6.66715	-2.61652	2.84069
 528	1	1	-0.09124	8.10426	-4.29449	3.58487
 529	1	1	-0.099966	8.79188	-3.36809	4.3502
 530	1	1	-0.017311	8.36778	-2.03774	4.538
 531	1	1	-0.020587	6.94684	-4.00147	2.83697
 532	1	2	-0.042503	9.57433	-4.42796	5.10602
 533	1	2	0.004295	8.76502	-5.4924	4.25208
 534	1	3	0.00226	7.96801	-6.26707	5.33855
 535	1	3	-0.145049	7.67458	-5.16761	6.38613
 536	1	3	0.011953	8.90365	-7.1631	6.20453
 537	1	3	0.014921	9.74783	-6.10009	7.02875
 538	1	3	0.025749	9.15189	-4.74183	6.55924
 539	1	3	0.154129	6.13203	-5.08032	2.12617
 540	1	3	-0.203386	4.94497	-5.58197	2.97734
 541	1	3	-0.113237	5.66256	-4.63746	0.722521
 542	1	3	0.129534	9.01017	-1.10502	5.56249
 543	1	3	-0.091829	8.21475	-1.03583	6.884
 544	1	3	-0.19809	9.25962	0.309111	4.9922
 545	1	4	0.228684	0.416358	-0.790209	2.38046
 546	1	5	0.042843	4.70548	1.40925	3.38749
 547	1	4	0.232532	2.57129	2.37395	5.77604
 548	1	5	0.035382	3.58753	-0.260079	1.68588
 549	1	5	0.041247	3.58716	-2.75153	2.77757
 550	1	5	0.06146	6.64127	0.307126	3.01792
 551	1	5	0.068364	5.51424	-1.37706	1.4169
 552	1	5	0.055799	5.08271	-2.5868	5.01318
 553	1	5	0.04347	3.5408	-1.7327	5.24881
 554	1	5	0.076294	5.55012	0.00315378	5.53916
 555	1	5	0.058767	10.6585	-4.39451	4.95915
 556	1	5	0.056756	9.33945	-6.14088	3.58385
 557	1	5	0.029415	7.0832	-6.79923	4.97279
 558	1	5	0.049793	7.23467	-5.56487	7.31197
 559	1	5	0.063468	7.02342	-4.36629	6.01338
 560	1	5	-0.012542	8.38532	-7.87926	6.8558
 561	1	5	-0.012458	9.69035	-6.27663	8.11093
 562	1	5	0.013933	9.31472	-3.92715	7.27408
 563	1	5	0.014892	6.79516	-5.942	1.97371
 564	1	5	0.04353	4.46857	-6.44867	2.5025
 565	1	5	0.048722	4.18353	-4.80881	3.10331
 566	1	5	0.053734	5.27687	-5.88355	3.97598
 567	1	5	0.029251	4.92816	-3.82578	0.783061
 568	1	5	0.025572	5.19565	-5.47462	0.188781
 569	1	5	0.023611	6.51281	-4.28753	0.123438
 570	1	5	0.021405	9.99564	-1.52127	5.80957
 571	1	5	0.009991	7.98458	-2.03836	7.2613
 572	1	5	0.026343	7.27047	-0.501326	6.75563
 573	1	5	0.026093	8.79325	-0.509096	7.65318
 574	1	5	0.043016	9.82157	0.252281	4.05129
 575	1	5	0.050907	9.84176	0.914377	5.69813
 576	1	5	0.051325	8.31615	0.832643	4.79744
 577	1	1	-0.439951	-8.29702	-1.34633	12.735
 578	1	1	0.043044	-7.60657	-1.31638	11.5118
 579	1	1	0.126458	-9.22122	-3.51829	12.0453
 580	1	1	0.016683	-7.88101	-2.25659	10.5417
 581	1	1	0.121946	-9.15185	-2.45653	13.0001
 582	1	2	0.005505	-7.76383	-1.27889	9.38881
 583	1	1	-0.445809	-8.67112	-3.38005	10.7588
 584	1	2	0.001585	-7.37478	-0.208709	10.4842
 585	1	3	0.031166	-5.96283	0.278841	10.0157
 586	1	2	-0.048351	-5.47957	-2.00678	9.21746
 587	1	1	-0.041771	-4.07929	-1.90834	8.65872
 588	1	2	-0.107179	-5.03538	-0.941953	10.2977
 589	1	3	-0.106774	-6.16024	0.212054	8.47649
 590	1	3	-0.025838	-6.57587	-1.28147	8.39595
 591	1	1	-0.051955	-3.67115	-0.970743	9.59978
 592	1	1	-0.09124	-1.87476	-0.390489	8.20955
 593	1	1	-0.099966	-2.33125	-1.29008	7.25463
 594	1	1	-0.017311	-3.49695	-2.07038	7.38622
 595	1	1	-0.020587	-2.57522	-0.0949918	9.40422
 596	1	2	-0.042503	-1.5261	-0.664432	6.13078
 597	1	2	0.004295	-0.959448	0.330704	7.22147
 598	1	3	0.00226	-1.37946	1.7224	6.68443
 599	1	3	-0.145049	-2.75975	1.42525	6.06118
 600	1	3	0.011953	-0.588884	2.08075	5.38624
 601	1	3	0.014921	-1.23723	1.10388	4.31167
 602	1	3	0.025749	-2.26123	0.288992	5.14436
 603	1	3	0.154129	-2.23428	1.08895	10.3244
 604	1	3	-0.203386	-2.71455	0.877719	11.7819
 605	1	3	-0.113237	-0.713309	1.38098	10.3683
 606	1	3	0.129534	-4.12936	-2.92312	6.27252
 607	1	3	-0.091829	-4.74161	-4.23649	6.82031
 608	1	3	-0.19809	-3.14384	-3.29688	5.13784
 609	1	4	0.228684	-8.30775	-0.468567	13.3731
 610	1	5	0.042843	-8.70204	-1.08683	8.8562
 611	1	4	0.232532	-8.93362	-4.06067	9.9553
 612	1	5	0.035382	-8.05425	0.644958	10.569
 613	1	5	0.041247	-5.63266	1.24631	10.413
 614	1	5	0.06146	-5.74032	-3.01164	9.56784
 615	1	5	0.068364	-5.02354	-1.26633	11.3444
 616	1	5	0.055799	-5.24543	0.429879	7.91933
 617	1	5	0.04347	-6.95389	0.886895	8.12778
 618	1	5	0.076294	-6.78377	-1.67893	7.39539
 619	1	5	0.058767	-0.804814	-1.33392	5.64947
 620	1	5	0.056756	0.112228	0.256505	7.4375
 621	1	5	0.029415	-1.38937	2.52641	7.43023
 622	1	5	0.049793	-3.17104	2.27834	5.50274
 623	1	5	0.063468	-3.5052	1.09923	6.7911
 624	1	5	-0.012542	-0.651664	3.13352	5.08079
 625	1	5	-0.012458	-1.6536	1.64074	3.44894
 626	1	5	0.013933	-3.04642	-0.17208	4.53618
 627	1	5	0.014892	-2.73486	1.98494	9.93552
 628	1	5	0.04353	-3.80572	0.85518	11.8503
 629	1	5	0.048722	-2.37362	1.69494	12.4297
 630	1	5	0.053734	-2.32305	-0.063478	12.1888
 631	1	5	0.029251	-0.338312	1.73267	9.40298
 632	1	5	0.025572	-0.151021	0.481116	10.6489
 633	1	5	0.023611	-0.484742	2.16547	11.1006
 634	1	5	0.021405	-4.9463	-2.34779	5.825
 635	1	5	0.009991	-3.99109	-4.81866	7.37027
 636	1	5	0.026343	-5.12401	-4.86171	6.00369
 637	1	5	0.026093	-5.58583	-4.04317	7.4889
 638	1	5	0.043016	-2.24226	-3.77315	5.54374
 639	1	5	0.050907	-2.84183	-2.42054	4.55902
 640	1	5	0.051325	-3.60701	-3.99617	4.43056
 641	1	1	-0.439951	-13.7407	2.99704	6.86015
 642	1	1	0.043044	-14.6409	3.76503	7.61503
 643	1	1	0.126458	-12.0474	4.7185	7.38696
 644	1	1	0.016683	-14.2293	4.8829	8.29612
 645	1	1	0.121946	-12.4251	3.51789	6.71571