pySIMM System Object

1502 atoms
1717 bonds
3588 angles
6534 dihedrals
92 impropers

5 atom types
9 bond types
18 angle types
19 dihedral types
2 improper types

-156.130164 156.130164 xlo xhi
-156.130164 156.130164 ylo yhi
-156.130164 156.130164 zlo zhi

Masses

   1	12.01	# ca
   2	12.01	# cy
   3	12.01	# c3
   4	1.008	# ha
   5	1.008	# hc

Pair Coeffs

   1	0.086	3.3996695084235347	# ca
   2	0.086	3.3996695084235347	# cy
   3	0.1094	3.3996695084235347	# c3
   4	0.015	2.59964245953351	# ha
   5	0.0157	2.649532787749369	# hc

Bond Coeffs

   1	300.9	1.5375	# c3,c3
   2	305.9	1.5319	# c3,cy
   3	345.8	1.086	# ca,ha
   4	321.0	1.5156	# c3,ca
   5	285.0	1.5562	# cy,cy
   6	330.6	1.0969	# c3,hc
   7	333.3	1.0949	# cy,hc
   8	321.2	1.5154	# ca,cy
   9	461.1	1.3984	# ca,ca

Angle Coeffs

   1	66.62	120.02	# ca,ca,ca
   2	61.4	116.81	# ca,cy,cy
   3	44.83	114.79	# cy,cy,hc
   4	46.43	110.14	# c3,cy,hc
   5	63.15	112.07	# c3,c3,ca
   6	46.34	109.8	# c3,c3,hc
   7	39.4	107.58	# hc,c3,hc
   8	48.18	119.88	# ca,ca,ha
   9	63.53	120.77	# c3,ca,ca
  10	60.66	118.7	# c3,cy,cy
  11	63.51	120.86	# ca,ca,cy
  12	62.73	112.39	# c3,c3,cy
  13	46.29	110.75	# cy,c3,hc
  14	46.8	110.47	# ca,c3,hc
  15	62.8	113.57	# c3,cy,ca
  16	62.86	111.51	# c3,c3,c3
  17	67.9	96.03	# cy,c3,cy
  18	45.97	114.53	# ca,cy,hc

Dihedral Coeffs

   1	1	0.16	3	0.0	# hc,c3,cy,cy
   2	1	0.16	3	0.0	# cy,c3,cy,hc
   3	1	0.16	3	0.0	# c3,c3,cy,hc
   4	1	0.15	3	0.0	# hc,c3,cy,hc
   5	1	3.625	2	180	# X,ca,ca,X
   6	1	0.15555555555555556	3	0	# X,cy,cy,X
   7	3	0.18	3	0	0.25	2	180	0.2	1	180	# c3,c3,c3,c3
   8	1	0.16	3	0	# hc,c3,c3,c3
   9	1	0.0	2	0.0	# ca,ca,cy,cy
  10	1	0.0	2	0.0	# ca,ca,cy,c3
  11	1	0.15555555555555556	3	0	# X,c3,c3,X
  12	1	0.0	2	0	# X,c3,ca,X
  13	3	0.38	3	180.0	0.0	2	0.0	1.15	1	0.0	# ca,ca,cy,hc
  14	3	0.18	3	0.0	0.25	2	180.0	0.2	1	180.0	# cy,c3,cy,cy
  15	1	0.16	3	0.0	# cy,c3,cy,ca
  16	1	0.16	3	0.0	# c3,c3,cy,ca
  17	1	0.16	3	0.0	# hc,c3,cy,ca
  18	1	0.15	3	0	# hc,c3,c3,hc
  19	3	0.18	3	0.0	0.25	2	180.0	0.2	1	180.0	# c3,c3,cy,cy

Improper Coeffs

   1	1.1	-1	2	# ca,ca,ca,c3
   2	1.1	-1	2	# ca,X,X,ha

Atoms

   1	1	1	-0.439951	23.2176	38.3072	3.68638
   2	1	1	0.043044	23.2478	39.6139	3.16105
   3	1	1	0.126458	21.2774	39.068	4.97358
   4	1	1	0.016683	22.3972	40.6242	3.60774
   5	1	1	0.121946	22.1041	38.0553	4.50915
   6	1	2	0.005505	23.3994	41.7263	3.3166
   7	1	1	-0.445809	21.46	40.4213	4.63876
   8	1	2	0.001585	24.3693	40.5805	2.81788
   9	1	3	0.031166	25.5645	40.6521	3.80767
  10	1	2	-0.048351	25.2246	43.1062	3.74907
  11	1	1	-0.041771	26.418	43.6406	4.52689
  12	1	2	-0.107179	26.2019	41.9526	3.24945
  13	1	3	-0.106774	24.9098	41.1285	5.13568
  14	1	3	-0.025838	24.1326	42.3375	4.53989
  15	1	1	-0.051955	27.2649	42.6333	4.09431
  16	1	1	-0.09124	28.8784	43.3209	5.6269
  17	1	1	-0.099966	28.0408	44.3429	6.04163
  18	1	1	-0.017311	26.7101	44.5011	5.6074
  19	1	1	-0.020587	28.5025	42.329	4.69524
  20	1	2	-0.042503	28.9198	44.7287	7.21806
  21	1	2	0.004295	29.8813	43.5581	6.74781
  22	1	3	0.00226	29.8814	42.6137	7.97257
  23	1	3	-0.145049	28.4468	42.7464	8.52402
  24	1	3	0.011953	30.6772	43.3059	9.10846
  25	1	3	0.014921	29.7286	44.4483	9.56699
  26	1	3	0.025749	28.5001	44.2839	8.6374
  27	1	3	0.154129	29.2913	41.064	4.36611
  28	1	3	-0.203386	30.8123	41.318	4.27757
  29	1	3	-0.113237	28.9796	39.9165	5.35187
  30	1	3	0.129534	25.7379	45.4776	6.2655
  31	1	3	-0.091829	24.9039	44.8027	7.37676
  32	1	3	-0.19809	24.8241	46.1903	5.24368
  33	1	4	0.228684	24.0608	37.6274	3.62008
  34	1	5	0.042843	23.0703	42.4608	2.57228
  35	1	4	0.232532	21.0663	41.2316	5.24385
  36	1	5	0.035382	24.6562	40.5958	1.75999
  37	1	5	0.041247	26.206	39.7648	3.8571
  38	1	5	0.06146	24.833	43.7896	2.98607
  39	1	5	0.068364	26.425	41.9196	2.17635
  40	1	5	0.055799	25.6473	41.4267	5.89196
  41	1	5	0.04347	24.2507	40.3729	5.58135
  42	1	5	0.076294	23.5081	42.9177	5.22642
  43	1	5	0.058767	29.3352	45.7422	7.19003
  44	1	5	0.056756	30.8881	43.8541	6.43277
  45	1	5	0.029415	30.2136	41.5892	7.7756
  46	1	5	0.049793	28.3146	42.2507	9.49588
  47	1	5	0.063468	27.6752	42.3832	7.8323
  48	1	5	-0.012542	31.644	43.6894	8.75717
  49	1	5	-0.012458	30.1936	45.4372	9.46258
  50	1	5	0.013933	27.5904	44.756	9.02593
  51	1	5	0.014892	28.971	40.7251	3.37215
  52	1	5	0.04353	31.0266	42.1422	3.58567
  53	1	5	0.048722	31.3324	40.4243	3.9109
  54	1	5	0.053734	31.2321	41.5735	5.25759
  55	1	5	0.029251	27.9007	39.7416	5.4243
  56	1	5	0.025572	29.3466	40.1413	6.35727
  57	1	5	0.023611	29.4521	38.9833	5.02089
  58	1	5	0.021405	26.3367	46.2602	6.74959
  59	1	5	0.009991	24.3114	45.5477	7.92262
  60	1	5	0.026343	25.5498	44.2912	8.09837
  61	1	5	0.026093	24.2144	44.0599	6.96644
  62	1	5	0.043016	24.1213	45.4896	4.77804
  63	1	5	0.050907	25.4219	46.6569	4.45064
  64	1	5	0.051325	24.2384	46.9781	5.73367
  65	1	1	-0.439951	11.5021	31.9504	6.21911
  66	1	1	0.043044	12.6239	31.5007	6.93903
  67	1	1	0.126458	11.8376	29.8844	4.90987
  68	1	1	0.016683	13.3914	30.4068	6.56312
  69	1	1	0.121946	11.1259	31.0228	5.23234
  70	1	2	0.005505	14.6026	30.8534	7.36629
  71	1	1	-0.445809	13.0849	29.5579	5.47938
  72	1	2	0.001585	13.7034	32.0851	7.82357
  73	1	3	0.031166	14.4523	33.3293	7.29043
  74	1	2	-0.048351	16.5145	32.0916	7.84466
  75	1	1	-0.041771	17.5881	33.143	7.62386
  76	1	2	-0.107179	15.5992	33.3035	8.33871
  77	1	3	-0.106774	15.124	32.8081	5.98837
  78	1	3	-0.025838	15.7741	31.5351	6.59899
  79	1	1	-0.051955	16.8036	34.1869	8.07693
  80	1	1	-0.09124	18.5729	35.6432	7.76485
  81	1	1	-0.099966	19.3499	34.6096	7.27771
  82	1	1	-0.017311	18.9087	33.2752	7.15081
  83	1	1	-0.020587	17.2357	35.5254	8.18241
  84	1	2	-0.042503	20.5553	35.5039	7.02284
  85	1	2	0.004295	19.6496	36.6901	7.58063
  86	1	3	0.00226	19.5396	37.6466	6.37061
  87	1	3	-0.145049	19.5522	36.6726	5.16806
  88	1	3	0.011953	20.9288	38.3293	6.25218
  89	1	3	0.014921	21.8543	37.1655	5.71499
  90	1	3	0.025749	20.8663	35.9678	5.57916
  91	1	3	0.154129	16.4305	36.6968	8.7336
  92	1	3	-0.203386	15.2191	37.0465	7.8455
  93	1	3	-0.113237	15.9993	36.4546	10.1959
  94	1	3	0.129534	19.7166	32.1155	6.58238
  95	1	3	-0.091829	21.1814	32.1114	7.07224
  96	1	3	-0.19809	19.6465	32.1064	5.04061
  97	1	4	0.228684	11.0303	32.9176	6.3595
  98	1	5	0.042843	14.9195	30.152	8.147
  99	1	4	0.232532	13.7507	28.7936	5.09176
 100	1	5	0.035382	13.4348	32.1388	8.88518
 101	1	5	0.041247	13.8614	34.2474	7.20551
 102	1	5	0.06146	16.7796	31.3255	8.58307
 103	1	5	0.068364	15.2599	33.2929	9.3812
 104	1	5	0.055799	15.8627	33.5116	5.58257
 105	1	5	0.04347	14.399	32.576	5.19771
 106	1	5	0.076294	16.3566	30.9015	5.91863
 107	1	5	0.058767	21.4571	35.2628	7.59632
 108	1	5	0.056756	19.99	37.1891	8.49495
 109	1	5	0.029415	18.6914	38.3422	6.39522
 110	1	5	0.049793	19.6094	37.1752	4.1939
 111	1	5	0.063468	18.686	35.9986	5.14276
 112	1	5	-0.012542	21.3023	38.807	7.16776
 113	1	5	-0.012458	22.7411	36.9811	6.33589
 114	1	5	0.013933	21.2031	35.1805	4.89385
 115	1	5	0.014892	17.0833	37.5795	8.73704
 116	1	5	0.04353	15.5233	37.1485	6.79616
 117	1	5	0.048722	14.769	37.995	8.16356
 118	1	5	0.053734	14.4481	36.2728	7.90931
 119	1	5	0.029251	15.3039	35.6098	10.27
 120	1	5	0.025572	15.5021	37.3423	10.6063
 121	1	5	0.023611	16.8723	36.2352	10.8235
 122	1	5	0.021405	19.2602	31.1811	6.93456
 123	1	5	0.009991	21.7404	32.9642	6.66892
 124	1	5	0.026343	21.692	31.1945	6.75245
 125	1	5	0.026093	21.2234	32.1575	8.16773
 126	1	5	0.043016	20.0978	33.014	4.62178
 127	1	5	0.050907	18.6035	32.0597	4.70263
 128	1	5	0.051325	20.1765	31.2381	4.62984
 129	1	1	-0.439951	8.11766	31.8119	-4.533
 130	1	1	0.043044	9.18495	32.7353	-4.64525
 131	1	1	0.126458	6.7557	33.7413	-3.87313
 132	1	1	0.016683	9.05035	34.0779	-4.27912
 133	1	1	0.121946	6.87914	32.4142	-4.23099
 134	1	2	0.005505	10.4876	34.1859	-3.80191
 135	1	1	-0.445809	7.84807	34.6203	-3.77745
 136	1	2	0.001585	10.66	32.6801	-4.24419
 137	1	3	0.031166	10.9869	31.9288	-2.92582
 138	1	2	-0.048351	12.1976	33.9419	-2.21515
 139	1	1	-0.041771	12.7463	33.5132	-0.864347
 140	1	2	-0.107179	12.4394	32.446	-2.68465
 141	1	3	-0.106774	10.1572	32.725	-1.89068
 142	1	3	-0.025838	10.6659	34.1396	-2.26431
 143	1	1	-0.051955	13.0327	32.2173	-1.29239
 144	1	1	-0.09124	13.0497	31.4871	0.944203
 145	1	1	-0.099966	12.557	32.717	1.34053
 146	1	1	-0.017311	12.3537	33.8005	0.46252
 147	1	1	-0.020587	13.1604	31.1164	-0.410937
 148	1	2	-0.042503	12.0099	32.1895	2.66551
 149	1	2	0.004295	12.6724	30.8099	2.25229
 150	1	3	0.00226	11.4974	29.8114	2.24688
 151	1	3	-0.145049	10.3408	30.6788	1.7137
 152	1	3	0.011953	10.9799	29.5684	3.69204
 153	1	3	0.014921	10.2147	30.9207	4.03031
 154	1	3	0.025749	10.4968	31.7937	2.77116
 155	1	3	0.154129	13.4168	29.6663	-0.826188
 156	1	3	-0.203386	12.1843	28.9461	-1.41214
 157	1	3	-0.113237	14.623	29.5538	-1.78342
 158	1	3	0.129534	11.7624	35.1526	0.859529
 159	1	3	-0.091829	12.6611	35.8683	1.89066
 160	1	3	-0.19809	10.3095	35.0682	1.36844
 161	1	4	0.228684	8.26654	30.7375	-4.49773
 162	1	5	0.042843	11.1049	34.9333	-4.3137
 163	1	4	0.232532	7.80772	35.5448	-3.21071
 164	1	5	0.035382	11.3661	32.4812	-5.05833
 165	1	5	0.041247	10.8172	30.85	-2.94743
 166	1	5	0.06146	12.7697	34.727	-2.72367
 167	1	5	0.068364	13.122	32.2918	-3.5283
 168	1	5	0.055799	10.3626	32.4522	-0.855594
 169	1	5	0.04347	9.09566	32.6068	-2.05756
 170	1	5	0.076294	10.2472	34.9809	-1.70016
 171	1	5	0.058767	12.4015	32.6786	3.56332
 172	1	5	0.056756	13.5225	30.4723	2.85428
 173	1	5	0.029415	11.6734	28.889	1.68016
 174	1	5	0.049793	9.36646	30.1722	1.76228
 175	1	5	0.063468	10.4952	31.0178	0.688717
 176	1	5	-0.012542	10.3299	28.6905	3.8038
 177	1	5	-0.012458	9.15309	30.758	4.25903
 178	1	5	0.013933	9.7775	32.6083	2.65363
 179	1	5	0.014892	13.6916	29.1146	0.0823304
 180	1	5	0.04353	12.0634	29.174	-2.47597
 181	1	5	0.048722	11.2676	29.2265	-0.87966
 182	1	5	0.053734	12.3055	27.8589	-1.32872
 183	1	5	0.029251	15.5135	30.0136	-1.33675
 184	1	5	0.025572	14.42	30.0573	-2.73691
 185	1	5	0.023611	14.8544	28.5023	-1.99501
 186	1	5	0.021405	11.7489	35.7889	-0.0341698
 187	1	5	0.009991	12.7131	35.3036	2.83019
 188	1	5	0.026343	12.2747	36.8706	2.11456
 189	1	5	0.026093	13.6815	35.9776	1.50201
 190	1	5	0.043016	10.2868	34.7137	2.40366
 191	1	5	0.050907	9.70855	34.3913	0.748425
 192	1	5	0.051325	9.83747	36.0582	1.35052
 193	1	1	-0.439951	2.08528	31.8485	6.82832
 194	1	1	0.043044	3.20421	31.0486	6.52416
 195	1	1	0.126458	0.793243	29.7844	6.48508
 196	1	1	0.016683	3.11011	29.7172	6.13259
 197	1	1	0.121946	0.89141	31.1032	6.88995
 198	1	2	0.005505	4.45467	29.7305	5.42246
 199	1	1	-0.445809	1.88109	29.0422	5.98255
 200	1	2	0.001585	4.55323	31.2543	5.85664
 201	1	3	0.031166	4.5714	32.0238	4.50649
 202	1	2	-0.048351	5.94917	30.1379	3.68301
 203	1	1	-0.041771	6.38486	30.6018	2.30518
 204	1	2	-0.107179	6.02958	31.6732	4.10327
 205	1	3	-0.106774	3.72262	31.1255	3.5633
 206	1	3	-0.025838	4.44674	29.7838	3.8714
 207	1	1	-0.051955	6.4432	31.9377	2.66348
 208	1	1	-0.09124	6.67252	32.5118	0.42398
 209	1	1	-0.099966	6.68223	31.1748	0.0719807
 210	1	1	-0.017311	6.44407	30.1236	0.981305
 211	1	1	-0.020587	6.52823	32.9984	1.73681
 212	1	2	-0.042503	6.71503	31.4659	-1.42138
 213	1	2	0.004295	6.65177	33.0059	-1.01093
 214	1	3	0.00226	5.30716	33.462	-1.63593
 215	1	3	-0.145049	4.43945	32.1883	-1.5233
 216	1	3	0.011953	5.41089	33.5441	-3.19169
 217	1	3	0.014921	5.53425	32.0228	-3.62248
 218	1	3	0.025749	5.43551	31.2682	-2.2586
 219	1	3	0.154129	6.50597	34.4865	2.0732
 220	1	3	-0.203386	5.07704	35.0567	2.04875
 221	1	3	-0.113237	7.19151	34.8052	3.42102
 222	1	3	0.129534	6.25263	28.6552	0.616367
 223	1	3	-0.091829	7.22258	28.1894	-0.492663
 224	1	3	-0.19809	4.78698	28.35	0.240496
 225	1	4	0.228684	2.11608	32.9324	6.87181
 226	1	5	0.042843	5.19958	29.0459	5.84488
 227	1	4	0.232532	1.76754	28.1171	5.42642
 228	1	5	0.035382	5.36616	31.5239	6.54093
 229	1	5	0.041247	4.3076	33.0864	4.55033
 230	1	5	0.06146	6.64434	29.4468	4.17477
 231	1	5	0.068364	6.78271	31.944	4.85283
 232	1	5	0.055799	3.79848	31.4212	2.50875
 233	1	5	0.04347	2.66243	31.1086	3.83713
 234	1	5	0.076294	4.07625	28.8895	3.35744
 235	1	5	0.058767	7.60587	31.0928	-1.93105
 236	1	5	0.056756	7.4762	33.673	-1.26604
 237	1	5	0.029415	4.86418	34.3556	-1.18109
 238	1	5	0.049793	3.48876	32.2701	-2.05528
 239	1	5	0.063468	4.23135	31.8842	-0.488913
 240	1	5	-0.012542	4.56685	34.0465	-3.68089
 241	1	5	-0.012458	4.76522	31.7421	-4.35456
 242	1	5	0.013933	5.10595	30.2289	-2.36421
 243	1	5	0.014892	7.07667	35.0094	1.29461
 244	1	5	0.04353	4.48495	34.6269	2.8615
 245	1	5	0.048722	4.57806	34.8267	1.10059
 246	1	5	0.053734	5.08898	36.1464	2.17414
 247	1	5	0.029251	7.31457	35.8883	3.54463
 248	1	5	0.025572	8.18403	34.3433	3.4739
 249	1	5	0.023611	6.59941	34.4362	4.26693
 250	1	5	0.021405	6.48611	28.0589	1.50814
 251	1	5	0.009991	6.99095	28.6634	-1.45378
 252	1	5	0.026343	7.15701	27.103	-0.63069
 253	1	5	0.026093	8.2593	28.4346	-0.228849
 254	1	5	0.043016	4.48245	28.8974	-0.65721
 255	1	5	0.050907	4.1127	28.6403	1.0528
 256	1	5	0.051325	4.64775	27.2785	0.0513472
 257	1	1	-0.439951	1.06745	32.606	-5.69944
 258	1	1	0.043044	0.681767	33.1393	-4.45849
 259	1	1	0.126458	2.27005	34.7049	-6.0616
 260	1	1	0.016683	1.0892	34.4039	-4.01884
 261	1	1	0.121946	1.78331	33.4879	-6.52424
 262	1	2	0.005505	1.21107	33.9599	-2.57413
 263	1	1	-0.445809	2.00356	35.1773	-4.76317
 264	1	2	0.001585	0.829496	32.5153	-3.08517
 265	1	3	0.031166	-0.442391	32.1482	-2.28751
 266	1	2	-0.048351	0.571573	33.4052	-0.426519
 267	1	1	-0.041771	-0.368121	33.0823	0.726941
 268	1	2	-0.107179	0.288451	31.9359	-0.929836
 269	1	3	-0.106774	-1.15868	33.5153	-2.12354
 270	1	3	-0.025838	0.0618129	34.3059	-1.5805
 271	1	1	-0.051955	-0.562812	31.7678	0.311988
 272	1	1	-0.09124	-0.826172	31.1038	2.56486
 273	1	1	-0.099966	-0.698119	32.4297	2.97258
 274	1	1	-0.017311	-0.342621	33.4626	2.08112
 275	1	1	-0.020587	-0.653561	30.6989	1.22505
 276	1	2	-0.042503	-0.200919	32.0499	4.35648
 277	1	2	0.004295	-0.333193	30.5513	3.89362
 278	1	3	0.00226	-1.35727	29.9637	4.89384
 279	1	3	-0.145049	-2.29982	31.1615	5.14188
 280	1	3	0.011953	-0.719317	29.8421	6.31296
 281	1	3	0.014921	-0.60378	31.3562	6.77552
 282	1	3	0.025749	-1.17744	32.1375	5.55513
 283	1	3	0.154129	-0.325531	29.2683	0.795513
 284	1	3	-0.203386	1.16185	28.9119	1.02258
 285	1	3	-0.113237	-1.2495	28.2219	1.45523
 286	1	3	0.129534	0.225768	34.8134	2.50984
 287	1	3	-0.091829	1.71863	34.7245	2.88215
 288	1	3	-0.19809	-0.591495	35.4698	3.64382
 289	1	4	0.228684	1.09049	31.5349	-5.87239
 290	1	5	0.042843	2.20898	34.1259	-2.15462
 291	1	4	0.232532	2.66934	35.8841	-4.27833
 292	1	5	0.035382	1.5871	31.7246	-3.06267
 293	1	5	0.041247	-1.04117	31.3116	-2.66888
 294	1	5	0.06146	1.5919	33.6495	-0.107939
 295	1	5	0.068364	1.13542	31.243	-0.98932
 296	1	5	0.055799	-1.99043	33.473	-1.40838
 297	1	5	0.04347	-1.53279	33.9156	-3.07475
 298	1	5	0.076294	-0.0936052	35.3669	-1.34812
 299	1	5	0.058767	0.795072	32.4216	4.59874
 300	1	5	0.056756	0.577557	29.9537	3.83066
 301	1	5	0.029415	-1.86572	29.0517	4.5589
 302	1	5	0.049793	-3.02307	30.9759	5.94856
 303	1	5	0.063468	-2.84935	31.4803	4.2465
 304	1	5	-0.012542	-1.2907	29.2328	7.02557
 305	1	5	-0.012458	-1.11817	31.5415	7.7277
 306	1	5	0.013933	-1.5253	33.1478	5.80161
 307	1	5	0.014892	-0.506026	29.201	-0.285468
 308	1	5	0.04353	1.40182	28.8384	2.08845
 309	1	5	0.048722	1.819	29.6705	0.581527
 310	1	5	0.053734	1.40147	27.9474	0.558067
 311	1	5	0.029251	-2.30357	28.4953	1.32033
 312	1	5	0.025572	-1.05006	28.1344	2.52891
 313	1	5	0.023611	-1.09562	27.2334	1.00469
 314	1	5	0.021405	0.155227	35.4872	1.64575
 315	1	5	0.009991	2.27792	34.2025	2.09744
 316	1	5	0.026343	1.87237	34.1867	3.82349
 317	1	5	0.026093	2.14592	35.7284	2.99674
 318	1	5	0.043016	-0.247982	36.496	3.82423
 319	1	5	0.050907	-0.490353	34.9119	4.58132
 320	1	5	0.051325	-1.6559	35.5094	3.38016
 321	1	1	-0.439951	8.09172	35.6782	-15.4398
 322	1	1	0.043044	6.73916	35.7845	-15.8343
 323	1	1	0.126458	7.89703	33.33	-16.1284
 324	1	1	0.016683	5.9921	34.6873	-16.2635
 325	1	1	0.121946	8.64973	34.414	-15.7221
 326	1	2	0.005505	4.68054	35.273	-15.7849
 327	1	1	-0.445809	6.5068	33.377	-16.3234
 328	1	2	0.001585	5.51526	36.5288	-15.3053
 329	1	3	0.031166	5.3028	36.5474	-13.7668
 330	1	2	-0.048351	3.01165	35.7168	-14.2232
 331	1	1	-0.041771	2.36905	35.7208	-12.8452
 332	1	2	-0.107179	3.81469	37.0029	-13.7461
 333	1	3	-0.106774	5.19853	35.0409	-13.4124
 334	1	3	-0.025838	4.12316	34.6684	-14.4728
 335	1	1	-0.051955	3.06271	36.8499	-12.4298
 336	1	1	-0.09124	2.51802	36.379	-10.1961
 337	1	1	-0.099966	1.86145	35.2324	-10.6169
 338	1	1	-0.017311	1.82806	34.7764	-11.9466
 339	1	1	-0.020587	3.27766	37.1855	-11.0754
 340	1	2	-0.042503	1.83585	34.6043	-9.23727
 341	1	2	0.004295	2.53567	35.9338	-8.73433
 342	1	3	0.00226	3.85308	35.4092	-8.12384
 343	1	3	-0.145049	4.23198	34.2627	-9.09
 344	1	3	0.011953	3.57777	34.5786	-6.83753
 345	1	3	0.014921	2.98733	33.2338	-7.40239
 346	1	3	0.025749	2.89434	33.506	-8.92685
 347	1	3	0.154129	4.25633	38.286	-10.6648
 348	1	3	-0.203386	3.70103	39.1789	-9.53352
 349	1	3	-0.113237	5.66448	37.7537	-10.3126
 350	1	3	0.129534	1.26028	33.4039	-12.3088
 351	1	3	-0.091829	2.33866	32.3037	-12.4245
 352	1	3	-0.19809	0.363001	33.448	-13.5654
 353	1	4	0.228684	8.60193	36.4331	-14.8502
 354	1	5	0.042843	3.93212	35.4379	-16.5688
 355	1	4	0.232532	5.88274	32.4898	-16.362
 356	1	5	0.035382	5.3006	37.4843	-15.7972
 357	1	5	0.041247	6.01788	37.1471	-13.1929
 358	1	5	0.06146	2.31313	35.8471	-15.0584
 359	1	5	0.068364	3.62312	37.937	-14.2871
 360	1	5	0.055799	4.86906	34.8603	-12.3831
 361	1	5	0.04347	6.14439	34.5187	-13.5589
 362	1	5	0.076294	3.82586	33.6197	-14.5321
 363	1	5	0.058767	0.838955	34.3855	-8.83931
 364	1	5	0.056756	1.95935	36.5606	-8.04484
 365	1	5	0.029415	4.62865	36.1631	-7.97151
 366	1	5	0.049793	5.10006	33.6817	-8.7458
 367	1	5	0.063468	4.42714	34.595	-10.1158
 368	1	5	-0.012542	4.46456	34.4037	-6.21399
 369	1	5	-0.012458	3.59225	32.3603	-7.12354
 370	1	5	0.013933	2.8071	32.5907	-9.52258
 371	1	5	0.014892	4.38386	38.9378	-11.5392
 372	1	5	0.04353	4.37241	40.0256	-9.34358
 373	1	5	0.048722	3.59207	38.6158	-8.59885
 374	1	5	0.053734	2.71739	39.5805	-9.80768
 375	1	5	0.029251	5.72851	37.4299	-9.27153
 376	1	5	0.025572	6.41457	38.5422	-10.4515
 377	1	5	0.023611	5.94299	36.9036	-10.9446
 378	1	5	0.021405	0.608602	33.1057	-11.4768
 379	1	5	0.009991	1.93027	31.3359	-12.1076
 380	1	5	0.026343	3.20613	32.5309	-11.7942
 381	1	5	0.026093	2.68564	32.1808	-13.4541
 382	1	5	0.043016	-0.119529	32.4766	-13.7309
 383	1	5	0.050907	0.944058	33.6966	-14.4615
 384	1	5	0.051325	-0.425267	34.2025	-13.4486
 385	1	1	-0.439951	10.2705	26.2345	-6.68658
 386	1	1	0.043044	10.1707	27.6311	-6.56404
 387	1	1	0.126458	12.6821	26.6427	-6.3981
 388	1	1	0.016683	11.2532	28.4849	-6.39916
 389	1	1	0.121946	11.5919	25.8005	-6.48617
 390	1	2	0.005505	10.4452	29.7255	-6.74718
 391	1	1	-0.445809	12.5963	28.0499	-6.4168
 392	1	2	0.001585	9.22697	28.7328	-6.99227
 393	1	3	0.031166	8.95329	28.8658	-8.51794
 394	1	2	-0.048351	9.39942	31.2777	-8.13481
 395	1	1	-0.041771	9.01284	31.9446	-9.44299
 396	1	2	-0.107179	8.23806	30.2346	-8.45203
 397	1	3	-0.106774	10.3392	29.236	-9.11835
 398	1	3	-0.025838	10.6794	30.3855	-8.12726
 399	1	1	-0.051955	8.0487	31.0007	-9.74921
 400	1	1	-0.09124	7.90347	31.8607	-11.9054
 401	1	1	-0.099966	8.74987	32.8937	-11.5445
 402	1	1	-0.017311	9.46553	32.9389	-10.3337
 403	1	1	-0.020587	7.52447	30.8095	-11.043
 404	1	2	-0.042503	8.81196	33.4724	-12.9433
 405	1	2	0.004295	7.8805	32.2582	-13.376
 406	1	3	0.00226	8.78218	31.5014	-14.3909
 407	1	3	-0.145049	10.2004	31.7206	-13.8169
 408	1	3	0.011953	8.9431	32.3104	-15.7166
 409	1	3	0.014921	9.8271	33.5528	-15.276
 410	1	3	0.025749	10.0971	33.2626	-13.7697
 411	1	3	0.154129	6.67825	29.5995	-11.424
 412	1	3	-0.203386	5.45955	29.9845	-12.2902
 413	1	3	-0.113237	7.52437	28.5049	-12.1078
 414	1	3	0.129534	10.5815	33.9436	-10.0648
 415	1	3	-0.091829	11.9746	33.3422	-10.3469
 416	1	3	-0.19809	10.5104	34.541	-8.64126
 417	1	4	0.228684	9.45058	25.5829	-6.97147
 418	1	5	0.042843	10.3428	30.4377	-5.92441
 419	1	4	0.232532	13.453	28.7117	-6.49571
 420	1	5	0.035382	8.34385	28.8566	-6.35453
 421	1	5	0.041247	8.40613	28.0435	-8.99498
 422	1	5	0.06146	9.27605	31.9072	-7.24799
 423	1	5	0.068364	7.36384	30.2518	-7.78986
 424	1	5	0.055799	10.2763	29.5797	-10.1589
 425	1	5	0.04347	11.0557	28.4056	-9.07363
 426	1	5	0.076294	11.6439	30.8862	-8.26121
 427	1	5	0.058767	8.40035	34.4816	-13.0315
 428	1	5	0.056756	6.88867	32.483	-13.7734
 429	1	5	0.029415	8.51632	30.4516	-14.5562
 430	1	5	0.049793	10.994	31.368	-14.4908
 431	1	5	0.063468	10.3508	31.257	-12.833
 432	1	5	-0.012542	9.39584	31.7511	-16.546
 433	1	5	-0.012458	10.7306	33.6547	-15.8916
 434	1	5	0.013933	10.9871	33.7688	-13.3768
 435	1	5	0.014892	6.28118	29.1652	-10.4971
 436	1	5	0.04353	4.79913	29.1208	-12.4363
 437	1	5	0.048722	5.76899	30.3449	-13.2783
 438	1	5	0.053734	4.87971	30.7756	-11.8003
 439	1	5	0.029251	8.37526	28.2195	-11.4777
 440	1	5	0.025572	7.91734	28.8504	-13.0694
 441	1	5	0.023611	6.92199	27.6061	-12.2897
 442	1	5	0.021405	10.4475	34.7793	-10.7642
 443	1	5	0.009991	12.2266	32.5633	-9.62058
 444	1	5	0.026343	12.7485	34.118	-10.2925
 445	1	5	0.026093	12.0125	32.8964	-11.348
 446	1	5	0.043016	10.7323	33.7853	-7.87847
 447	1	5	0.050907	9.51014	34.9464	-8.44216
 448	1	5	0.051325	11.2348	35.357	-8.52813
 449	1	1	-0.439951	18.3624	19.8788	-15.2123
 450	1	1	0.043044	17.1534	20.4184	-14.7238
 451	1	1	0.126458	17.0645	17.804	-15.4608
 452	1	1	0.016683	15.9529	19.7206	-14.7438
 453	1	1	0.121946	18.2626	18.4973	-15.4812
 454	1	2	0.005505	15.1028	20.9731	-14.7101
 455	1	1	-0.445809	15.8176	18.3984	-15.2004
 456	1	2	0.001585	16.471	21.7789	-14.6602
 457	1	3	0.031166	16.4248	22.4838	-13.272
 458	1	2	-0.048351	14.0052	22.7504	-13.7099
 459	1	1	-0.041771	13.5241	23.6193	-12.566
 460	1	2	-0.107179	15.3685	23.5708	-13.6244
 461	1	3	-0.106774	15.6191	21.4897	-12.3881
 462	1	3	-0.025838	14.4197	21.2974	-13.3603
 463	1	1	-0.051955	14.7043	24.3359	-12.4825
 464	1	1	-0.09124	13.9562	25.322	-10.5006
 465	1	1	-0.099966	12.7986	24.5624	-10.5699
 466	1	1	-0.017311	12.5333	23.6017	-11.5675
 467	1	1	-0.020587	15.042	25.1713	-11.3957
 468	1	2	-0.042503	12.3505	24.9265	-9.16656
 469	1	2	0.004295	13.6519	25.8306	-9.09274
 470	1	3	0.00226	14.4286	25.2341	-7.89391
 471	1	3	-0.145049	14.1243	23.7245	-8.03703
 472	1	3	0.011953	13.6963	25.5141	-6.54308
 473	1	3	0.014921	12.4335	24.5535	-6.63839
 474	1	3	0.025749	12.5878	23.8925	-8.03307
 475	1	3	0.154129	16.4248	25.7963	-11.227
 476	1	3	-0.203386	16.3672	27.2209	-10.6303
 477	1	3	-0.113237	17.3641	24.8916	-10.4
 478	1	3	0.129534	11.3289	22.663	-11.6134
 479	1	3	-0.091829	10.0193	23.3618	-11.1838
 480	1	3	-0.19809	11.5545	21.3676	-10.8039
 481	1	4	0.228684	19.2278	20.4797	-15.4729
 482	1	5	0.042843	14.4508	21.1032	-15.5819
 483	1	4	0.232532	14.8671	17.9369	-15.449
 484	1	5	0.035382	16.7091	22.4539	-15.4904
 485	1	5	0.041247	17.3859	22.8329	-12.8778
 486	1	5	0.06146	13.4204	22.8475	-14.6326
 487	1	5	0.068364	15.6332	24.1841	-14.4938
 488	1	5	0.055799	15.3215	21.9227	-11.4243
 489	1	5	0.04347	16.1637	20.5572	-12.1914
 490	1	5	0.076294	13.6246	20.6118	-13.0457
 491	1	5	0.058767	11.3861	25.4408	-9.10658
 492	1	5	0.056756	13.4916	26.911	-9.00927
 493	1	5	0.029415	15.4947	25.4839	-7.86269
 494	1	5	0.049793	14.4922	23.133	-7.18662
 495	1	5	0.063468	14.5145	23.2791	-8.96142
 496	1	5	-0.012542	14.2973	25.3166	-5.64569
 497	1	5	-0.012458	12.378	23.8512	-5.79608
 498	1	5	0.013933	12.0249	22.9592	-8.12298
 499	1	5	0.014892	16.8695	25.8931	-12.2262
 500	1	5	0.04353	16.0338	27.2054	-9.58642
 501	1	5	0.048722	15.6765	27.8528	-11.2026
 502	1	5	0.053734	17.3579	27.6913	-10.6578
 503	1	5	0.029251	18.3602	25.3428	-10.3116
 504	1	5	0.025572	17.4808	23.9114	-10.8739
 505	1	5	0.023611	16.9739	24.7268	-9.39071
 506	1	5	0.021405	11.1918	22.3613	-12.6602
 507	1	5	0.009991	10.0301	23.6104	-10.1158
 508	1	5	0.026343	9.15556	22.7109	-11.3681
 509	1	5	0.026093	9.87076	24.2892	-11.7514
 510	1	5	0.043016	10.7495	20.6476	-10.9973
 511	1	5	0.050907	11.5728	21.5662	-9.72922
 512	1	5	0.051325	12.5049	20.8942	-11.0722
 513	1	1	-0.439951	21.8304	7.85697	-8.66947
 514	1	1	0.043044	22.0367	8.96805	-9.50556
 515	1	1	0.126458	24.2015	7.35282	-9.12036
 516	1	1	0.016683	23.2991	9.3575	-9.93883
 517	1	1	0.121946	22.9656	7.03328	-8.58221
 518	1	2	0.005505	22.9205	10.8309	-10.0215
 519	1	1	-0.445809	24.4701	8.61275	-9.69288
 520	1	2	0.001585	21.4655	10.365	-9.59026
 521	1	3	0.031166	20.596	10.6656	-10.8446
 522	1	2	-0.048351	21.9614	12.732	-10.9723
 523	1	1	-0.041771	21.2918	13.5518	-12.0606
 524	1	2	-0.107179	20.5027	12.1923	-10.6336
 525	1	3	-0.106774	21.5938	10.5474	-12.0308
 526	1	3	-0.025838	22.7146	11.4432	-11.4296
 527	1	1	-0.051955	20.0334	13.0298	-11.8107
 528	1	1	-0.09124	19.1037	14.5225	-13.3249
 529	1	1	-0.099966	20.3354	15.1337	-13.4692
 530	1	1	-0.017311	21.5143	14.7176	-12.8233
 531	1	1	-0.020587	18.8415	13.4895	-12.4068
 532	1	2	-0.042503	19.7649	16.342	-14.1945
 533	1	2	0.004295	18.3596	15.6102	-14.0742
 534	1	3	0.00226	17.9894	15.3312	-15.5587
 535	1	3	-0.145049	19.3679	15.1161	-16.225
 536	1	3	0.011953	17.5957	16.6505	-16.2818
 537	1	3	0.014921	18.9651	17.4519	-16.3433
 538	1	3	0.025749	19.9798	16.4438	-15.7199
 539	1	3	0.154129	17.4355	12.9868	-12.0967
 540	1	3	-0.203386	17.1544	11.6667	-12.8447
 541	1	3	-0.113237	17.1666	12.8335	-10.5839
 542	1	3	0.129534	22.8122	15.5157	-12.8575
 543	1	3	-0.091829	24.0478	14.6206	-13.0969
 544	1	3	-0.19809	22.9774	16.3575	-11.5744
 545	1	4	0.228684	20.954	7.73471	-8.04118
 546	1	5	0.042843	23.4805	11.4821	-9.34014
 547	1	4	0.232532	25.4708	9.02263	-9.78569
 548	1	5	0.035382	21.0485	10.7479	-8.6513
 549	1	5	0.041247	19.6489	10.1194	-10.9341
 550	1	5	0.06146	22.4913	13.3155	-10.2102
 551	1	5	0.068364	20.0676	12.4803	-9.66932
 552	1	5	0.055799	21.1893	10.9452	-12.9705
 553	1	5	0.04347	21.9205	9.51485	-12.2098
 554	1	5	0.076294	23.6153	11.5803	-12.0404
 555	1	5	0.058767	19.8905	17.3	-13.6779
 556	1	5	0.056756	17.5608	16.1034	-13.5095
 557	1	5	0.029415	17.2768	14.5109	-15.7119
 558	1	5	0.049793	19.3099	15.0653	-17.3217
 559	1	5	0.063468	19.8947	14.2219	-15.8672
 560	1	5	-0.012542	17.1349	16.5244	-17.2706
 561	1	5	-0.012458	19.207	17.7787	-17.3633
 562	1	5	0.013933	21.0195	16.6099	-16.0286
 563	1	5	0.014892	16.7198	13.7301	-12.4715
 564	1	5	0.04353	16.1238	11.3316	-12.674
 565	1	5	0.048722	17.8345	10.8734	-12.5107
 566	1	5	0.053734	17.2938	11.8007	-13.9249
 567	1	5	0.029251	17.7518	12.0117	-10.1553
 568	1	5	0.025572	16.1063	12.6176	-10.4021
 569	1	5	0.023611	17.4206	13.7571	-10.0489
 570	1	5	0.021405	22.7567	16.2154	-13.7017
 571	1	5	0.009991	24.229	13.9546	-12.2451
 572	1	5	0.026343	24.9464	15.2337	-13.2401
 573	1	5	0.026093	23.9118	14.0042	-13.9945
 574	1	5	0.043016	22.1108	17.0155	-11.4322
 575	1	5	0.050907	23.8749	16.9858	-11.6327
 576	1	5	0.051325	23.0652	15.7147	-10.6899
 577	1	1	-0.439951	25.558	-4.00366	-12.118
 578	1	1	0.043044	25.3765	-3.51838	-10.8204
 579	1	1	0.126458	23.2626	-4.90627	-11.8994
 580	1	1	0.016683	24.2355	-3.71478	-10.1022
 581	1	1	0.121946	24.466	-4.73635	-12.662
 582	1	2	0.005505	24.7208	-2.93615	-8.89542
 583	1	1	-0.445809	23.1171	-4.38264	-10.5935
 584	1	2	0.001585	26.0661	-2.7169	-9.71988
 585	1	3	0.031166	26.2365	-1.16479	-9.73054
 586	1	2	-0.048351	23.7863	-0.964056	-9.96327
 587	1	1	-0.041771	23.554	0.527665	-10.072
 588	1	2	-0.107179	25.1503	-0.701371	-10.7349
 589	1	3	-0.106774	25.61	-0.795012	-8.35579
 590	1	3	-0.025838	24.2377	-1.49411	-8.57153
 591	1	1	-0.051955	24.7525	0.773714	-10.7197
 592	1	1	-0.09124	24.4357	3.06424	-10.3823
 593	1	1	-0.099966	23.2254	2.8071	-9.75827
 594	1	1	-0.017311	22.7536	1.51115	-9.46458
 595	1	1	-0.020587	25.3297	2.06172	-10.8153
 596	1	2	-0.042503	23.0653	4.2338	-9.26707
 597	1	2	0.004295	24.4551	4.53335	-9.97453
 598	1	3	0.00226	25.3646	4.97196	-8.79152
 599	1	3	-0.145049	24.8405	4.08988	-7.63493
 600	1	3	0.011953	24.9453	6.3691	-8.23288
 601	1	3	0.014921	23.5409	6.05938	-7.57169
 602	1	3	0.025749	23.3669	4.5341	-7.78147
 603	1	3	0.154129	26.7401	2.37756	-11.3079
 604	1	3	-0.203386	27.7885	2.29059	-10.1769
 605	1	3	-0.113237	27.1538	1.51023	-12.5172
 606	1	3	0.129534	21.5342	1.16187	-8.61262
 607	1	3	-0.091829	20.3293	2.08615	-8.89518
 608	1	3	-0.19809	21.8535	1.11021	-7.10184
 609	1	4	0.228684	26.4832	-3.84757	-12.6637
 610	1	5	0.042843	24.8396	-3.5243	-7.97879
 611	1	4	0.232532	22.2086	-4.50686	-10.0129
 612	1	5	0.035382	26.9481	-3.19817	-9.28355
 613	1	5	0.041247	27.2558	-0.812485	-9.91656
 614	1	5	0.06146	23.0152	-1.56128	-10.4613
 615	1	5	0.068364	25.2537	-1.12798	-11.7387
 616	1	5	0.055799	25.5217	0.288284	-8.20037
 617	1	5	0.04347	26.1697	-1.22627	-7.51498
 618	1	5	0.076294	23.5092	-1.41199	-7.75735
 619	1	5	0.058767	22.187	4.76184	-9.6546
 620	1	5	0.056756	24.4424	5.25049	-10.8028
 621	1	5	0.029415	26.4408	4.88892	-8.98041
 622	1	5	0.049793	25.2726	4.36038	-6.66112
 623	1	5	0.063468	24.9939	3.01462	-7.79507
 624	1	5	-0.012542	25.6526	6.81844	-7.52322
 625	1	5	-0.012458	23.491	6.39163	-6.52625
 626	1	5	0.013933	22.6754	4.0885	-7.06223
 627	1	5	0.014892	26.7386	3.41854	-11.657
 628	1	5	0.04353	27.4863	2.89223	-9.31329
 629	1	5	0.048722	28.7617	2.66001	-10.5234
 630	1	5	0.053734	27.923	1.26242	-9.83202
 631	1	5	0.029251	27.2617	0.456138	-12.2357
 632	1	5	0.025572	28.1135	1.85005	-12.9262
 633	1	5	0.023611	26.4038	1.57768	-13.3153
 634	1	5	0.021405	21.2219	0.149062	-8.89931
 635	1	5	0.009991	20.5287	3.11453	-8.57058
 636	1	5	0.026343	19.4374	1.73146	-8.36361
 637	1	5	0.026093	20.0988	2.10298	-9.96792
 638	1	5	0.043016	22.7861	0.568581	-6.91121
 639	1	5	0.050907	21.0473	0.603754	-6.55685
 640	1	5	0.051325	21.9577	2.1113	-6.67768
 641	1	1	-0.439951	23.8056	-16.5072	-14.9256
 642	1	1	0.043044	24.7598	-15.6283	-15.446
 643	1	1	0.126458	25.5579	-17.1344	-13.2923
 644	1	1	0.016683	26.0078	-15.476	-14.9181
 645	1	1	0.121946	24.2391	-17.3024	-13.8239
 646	1	2	0.005505	26.3945	-14.3453	-15.8528
 647	1	1	-0.445809	26.4706	-16.1876	-13.8133
 648	1	2	0.001585	24.9465	-14.53	-16.4913
 649	1	3	0.031166	24.3239	-13.1031	-16.3931
 650	1	2	-0.048351	25.4455	-12.8164	-14.206
 651	1	1	-0.041771	24.9472	-11.4545	-13.7456
 652	1	2	-0.107179	24.0179	-12.9835	-14.8794