pySIMM System Object

1106 atoms
1267 bonds
2652 angles
4842 dihedrals
68 impropers

5 atom types
9 bond types
18 angle types
19 dihedral types
2 improper types

-140.406080 140.406080 xlo xhi
-140.406080 140.406080 ylo yhi
-140.406080 140.406080 zlo zhi

Masses

   1	12.01	# ca
   2	12.01	# cy
   3	12.01	# c3
   4	1.008	# ha
   5	1.008	# hc

Pair Coeffs

   1	0.086	3.3996695084235347	# ca
   2	0.086	3.3996695084235347	# cy
   3	0.1094	3.3996695084235347	# c3
   4	0.015	2.59964245953351	# ha
   5	0.0157	2.649532787749369	# hc

Bond Coeffs

   1	300.9	1.5375	# c3,c3
   2	305.9	1.5319	# c3,cy
   3	345.8	1.086	# ca,ha
   4	321.0	1.5156	# c3,ca
   5	285.0	1.5562	# cy,cy
   6	330.6	1.0969	# c3,hc
   7	333.3	1.0949	# cy,hc
   8	321.2	1.5154	# ca,cy
   9	461.1	1.3984	# ca,ca

Angle Coeffs

   1	66.62	120.02	# ca,ca,ca
   2	61.4	116.81	# ca,cy,cy
   3	44.83	114.79	# cy,cy,hc
   4	46.43	110.14	# c3,cy,hc
   5	63.15	112.07	# c3,c3,ca
   6	46.34	109.8	# c3,c3,hc
   7	39.4	107.58	# hc,c3,hc
   8	48.18	119.88	# ca,ca,ha
   9	63.53	120.77	# c3,ca,ca
  10	60.66	118.7	# c3,cy,cy
  11	63.51	120.86	# ca,ca,cy
  12	62.73	112.39	# c3,c3,cy
  13	46.29	110.75	# cy,c3,hc
  14	46.8	110.47	# ca,c3,hc
  15	62.8	113.57	# c3,cy,ca
  16	62.86	111.51	# c3,c3,c3
  17	67.9	96.03	# cy,c3,cy
  18	45.97	114.53	# ca,cy,hc

Dihedral Coeffs

   1	1	0.16	3	0.0	# hc,c3,cy,cy
   2	1	0.16	3	0.0	# cy,c3,cy,hc
   3	1	0.16	3	0.0	# c3,c3,cy,hc
   4	1	0.15	3	0.0	# hc,c3,cy,hc
   5	1	3.625	2	180	# X,ca,ca,X
   6	1	0.15555555555555556	3	0	# X,cy,cy,X
   7	3	0.18	3	0	0.25	2	180	0.2	1	180	# c3,c3,c3,c3
   8	1	0.16	3	0	# hc,c3,c3,c3
   9	1	0.0	2	0.0	# ca,ca,cy,cy
  10	1	0.0	2	0.0	# ca,ca,cy,c3
  11	1	0.15555555555555556	3	0	# X,c3,c3,X
  12	1	0.0	2	0	# X,c3,ca,X
  13	3	0.38	3	180.0	0.0	2	0.0	1.15	1	0.0	# ca,ca,cy,hc
  14	3	0.18	3	0.0	0.25	2	180.0	0.2	1	180.0	# cy,c3,cy,cy
  15	1	0.16	3	0.0	# cy,c3,cy,ca
  16	1	0.16	3	0.0	# c3,c3,cy,ca
  17	1	0.16	3	0.0	# hc,c3,cy,ca
  18	1	0.15	3	0	# hc,c3,c3,hc
  19	3	0.18	3	0.0	0.25	2	180.0	0.2	1	180.0	# c3,c3,cy,cy

Improper Coeffs

   1	1.1	-1	2	# ca,ca,ca,c3
   2	1.1	-1	2	# ca,X,X,ha

Atoms

   1	1	1	-0.439951	27.353	10.1678	14.866
   2	1	1	0.043044	27.4151	10.884	16.0779
   3	1	1	0.126458	26.662	8.2624	16.2469
   4	1	1	0.016683	27.2424	10.2731	17.319
   5	1	1	0.121946	26.8434	8.86436	15.0111
   6	1	2	0.005505	28.1667	11.2431	18.0327
   7	1	1	-0.445809	26.981	8.897	17.4604
   8	1	2	0.001585	28.3554	11.9437	16.6266
   9	1	3	0.031166	29.8664	11.7678	16.3223
  10	1	2	-0.048351	30.2146	12.0914	18.7534
  11	1	1	-0.041771	31.7307	12.1744	18.8683
  12	1	2	-0.107179	30.3907	12.8125	17.3445
  13	1	3	-0.106774	30.2145	10.4095	16.9959
  14	1	3	-0.025838	29.5868	10.721	18.3847
  15	1	1	-0.051955	31.8781	12.8079	17.6455
  16	1	1	-0.09124	34.1867	12.532	17.7659
  17	1	1	-0.099966	34.0416	11.9108	18.9954
  18	1	1	-0.017311	32.8003	11.5845	19.5768
  19	1	1	-0.020587	33.101	12.932	16.9576
  20	1	2	-0.042503	35.4935	11.4709	19.0619
  21	1	2	0.004295	35.6634	12.1797	17.6531
  22	1	3	0.00226	36.0898	11.0075	16.7385
  23	1	3	-0.145049	35.3115	9.80617	17.314
  24	1	3	0.011953	37.5368	10.605	17.121
  25	1	3	0.014921	37.3634	9.9091	18.4997
  26	1	3	0.025749	35.8372	9.99636	18.7518
  27	1	3	0.154129	33.1906	13.4314	15.5176
  28	1	3	-0.203386	34.3929	14.3744	15.2904
  29	1	3	-0.113237	33.199	12.2702	14.4997
  30	1	3	0.129534	32.6755	10.6831	20.8029
  31	1	3	-0.091829	32.459	9.20428	20.4127
  32	1	3	-0.19809	31.5846	11.1617	21.7866
  33	1	4	0.228684	27.818	10.5172	13.95
  34	1	5	0.042843	27.6911	11.8337	18.8244
  35	1	4	0.232532	27.1827	8.34788	18.3744
  36	1	5	0.035382	27.9919	12.9734	16.53
  37	1	5	0.041247	30.1668	11.8986	15.2765
  38	1	5	0.06146	29.6675	12.6429	19.5274
  39	1	5	0.068364	29.95	13.8108	17.237
  40	1	5	0.055799	31.2952	10.2244	17.0479
  41	1	5	0.04347	29.7448	9.55227	16.4973
  42	1	5	0.076294	29.6289	9.93069	19.141
  43	1	5	0.058767	36.0796	11.8847	19.89
  44	1	5	0.056756	36.3558	13.0282	17.6167
  45	1	5	0.029415	35.959	11.1777	15.665
  46	1	5	0.049793	35.6161	8.84766	16.8711
  47	1	5	0.063468	34.2216	9.90685	17.2274
  48	1	5	-0.012542	38.203	11.4755	17.1794
  49	1	5	-0.012458	37.9396	10.4089	19.2891
  50	1	5	0.013933	35.4715	9.267	19.4837
  51	1	5	0.014892	32.2868	14.022	15.3181
  52	1	5	0.04353	34.3903	15.1879	16.0268
  53	1	5	0.048722	34.3483	14.8231	14.2903
  54	1	5	0.053734	35.344	13.8359	15.3761
  55	1	5	0.029251	32.3602	11.5877	14.6737
  56	1	5	0.025572	34.121	11.6859	14.566
  57	1	5	0.023611	33.1161	12.6542	13.4753
  58	1	5	0.021405	33.6294	10.7318	21.3445
  59	1	5	0.009991	32.5025	8.55957	21.2995
  60	1	5	0.026343	33.2292	8.86529	19.7115
  61	1	5	0.026093	31.4875	9.0533	19.9341
  62	1	5	0.043016	30.5825	11.059	21.3541
  63	1	5	0.050907	31.7392	12.2151	22.0517
  64	1	5	0.051325	31.6138	10.5723	22.7115
  65	1	1	-0.439951	16.9545	2.91842	12.7817
  66	1	1	0.043044	18.1251	2.62569	12.0557
  67	1	1	0.126458	16.261	3.99082	10.6664
  68	1	1	0.016683	18.3736	3.05757	10.7637
  69	1	1	0.121946	16.0307	3.60812	11.9727
  70	1	2	0.005505	19.819	2.60537	10.776
  71	1	1	-0.445809	17.4712	3.79525	9.97516
  72	1	2	0.001585	19.5262	2.07888	12.253
  73	1	3	0.031166	20.4921	2.89927	13.1428
  74	1	2	-0.048351	22.0826	2.74038	11.2572
  75	1	1	-0.041771	23.355	3.32094	11.8477
  76	1	2	-0.107179	21.798	2.16974	12.7176
  77	1	3	-0.106774	20.5807	4.26523	12.4046
  78	1	3	-0.025838	20.8985	3.70289	10.9892
  79	1	1	-0.051955	23.1226	2.80148	13.1094
  80	1	1	-0.09124	24.9762	3.94464	13.9168
  81	1	1	-0.099966	25.1725	4.51619	12.6704
  82	1	1	-0.017311	24.3157	4.31256	11.5675
  83	1	1	-0.020587	23.868	3.1459	14.2559
  84	1	2	-0.042503	26.2445	5.47549	13.1695
  85	1	2	0.004295	26.0251	4.80413	14.5951
  86	1	3	0.00226	25.5681	5.98757	15.4762
  87	1	3	-0.145049	24.7463	6.84135	14.4811
  88	1	3	0.011953	26.8347	6.85957	15.6982
  89	1	3	0.014921	27.0476	7.5426	14.2887
  90	1	3	0.025749	25.8826	6.95845	13.4381
  91	1	3	0.154129	23.5427	2.74581	15.6924
  92	1	3	-0.203386	22.5472	3.72892	16.3457
  93	1	3	-0.113237	23.0387	1.2904	15.8086
  94	1	3	0.129534	24.3671	5.0687	10.2431
  95	1	3	-0.091829	25.8107	5.3188	9.75373
  96	1	3	-0.19809	23.5721	6.39076	10.3176
  97	1	4	0.228684	16.7875	2.65306	13.8207
  98	1	5	0.042843	20.0719	1.85865	10.0141
  99	1	4	0.232532	17.6788	4.16547	8.9764
 100	1	5	0.035382	19.5722	0.996033	12.4179
 101	1	5	0.041247	20.2544	2.9242	14.2116
 102	1	5	0.06146	22.2521	2.0058	10.4607
 103	1	5	0.068364	21.7637	1.07915	12.827
 104	1	5	0.055799	21.3799	4.90682	12.7981
 105	1	5	0.04347	19.6391	4.82884	12.4368
 106	1	5	0.076294	21.0224	4.43089	10.1786
 107	1	5	0.058767	27.2374	5.35213	12.7228
 108	1	5	0.056756	26.8799	4.26205	15.0149
 109	1	5	0.029415	25.0459	5.71428	16.4006
 110	1	5	0.049793	24.4229	7.8068	14.8911
 111	1	5	0.063468	23.855	6.32849	14.0965
 112	1	5	-0.012542	27.7192	6.32847	16.0746
 113	1	5	-0.012458	28.0548	7.40118	13.8748
 114	1	5	0.013933	25.6407	7.55561	12.552
 115	1	5	0.014892	24.4744	2.80272	16.2704
 116	1	5	0.04353	22.9088	4.76059	16.2693
 117	1	5	0.048722	22.4124	3.49519	17.4091
 118	1	5	0.053734	21.5672	3.68331	15.8612
 119	1	5	0.029251	22.0556	1.16896	15.3388
 120	1	5	0.025572	22.9458	0.99765	16.8619
 121	1	5	0.023611	23.7398	0.597895	15.326
 122	1	5	0.021405	23.8805	4.44279	9.4836
 123	1	5	0.009991	26.3387	6.02358	10.4072
 124	1	5	0.026343	25.8067	5.73981	8.74053
 125	1	5	0.026093	26.3789	4.38054	9.72764
 126	1	5	0.043016	24.0265	7.08706	11.03
 127	1	5	0.050907	22.5407	6.20951	10.6411
 128	1	5	0.051325	23.5385	6.88084	9.33667
 129	1	1	-0.439951	9.17967	11.5366	11.8649
 130	1	1	0.043044	10.1562	12.1569	12.6794
 131	1	1	0.126458	8.21409	10.7152	13.9649
 132	1	1	0.016683	10.2155	11.9542	14.0618
 133	1	1	0.121946	8.16292	10.8916	12.597
 134	1	2	0.005505	11.733	12.0593	14.1073
 135	1	1	-0.445809	9.29527	11.141	14.7581
 136	1	2	0.001585	11.6682	12.3147	12.5489
 137	1	3	0.031166	12.4258	11.1099	11.9356
 138	1	2	-0.048351	13.9167	11.2074	13.8863
 139	1	1	-0.041771	14.9282	10.1182	13.5576
 140	1	2	-0.107179	13.8795	11.5044	12.3283
 141	1	3	-0.106774	12.0951	9.97006	12.9307
 142	1	3	-0.025838	12.4913	10.7112	14.2308
 143	1	1	-0.051955	14.9395	10.4131	12.1962
 144	1	1	-0.09124	15.7986	8.27371	11.7451
 145	1	1	-0.099966	15.6518	7.93053	13.0777
 146	1	1	-0.017311	15.1572	8.81694	14.0594
 147	1	1	-0.020587	15.3186	9.4811	11.202
 148	1	2	-0.042503	15.7261	6.4277	12.8014
 149	1	2	0.004295	15.9504	6.83413	11.2842
 150	1	3	0.00226	14.761	6.18459	10.5375
 151	1	3	-0.145049	13.6301	6.28987	11.5773
 152	1	3	0.011953	14.9013	4.63964	10.504
 153	1	3	0.014921	14.6443	4.22146	12.0181
 154	1	3	0.025749	14.4094	5.59461	12.7152
 155	1	3	0.154129	15.2609	9.71403	9.69148
 156	1	3	-0.203386	13.8644	9.49087	9.07128
 157	1	3	-0.113237	15.8251	11.097	9.29856
 158	1	3	0.129534	14.8774	8.4601	15.5188
 159	1	3	-0.091829	16.1562	7.96687	16.2295
 160	1	3	-0.19809	13.7207	7.45667	15.7052
 161	1	4	0.228684	9.29491	11.4172	10.7924
 162	1	5	0.042843	12.1353	12.8663	14.7303
 163	1	4	0.232532	9.4915	10.7376	15.7463
 164	1	5	0.035382	12.0106	13.2912	12.1876
 165	1	5	0.041247	12.2129	10.91	10.8839
 166	1	5	0.06146	14.2846	12.0071	14.5399
 167	1	5	0.068364	14.1827	12.5069	12.0047
 168	1	5	0.055799	12.6718	9.06111	12.7623
 169	1	5	0.04347	11.0461	9.70587	12.909
 170	1	5	0.076294	12.3648	10.1619	15.1712
 171	1	5	0.058767	16.5472	5.89765	13.296
 172	1	5	0.056756	16.9245	6.58866	10.8473
 173	1	5	0.029415	14.5286	6.62288	9.55995
 174	1	5	0.049793	12.7264	5.74401	11.2785
 175	1	5	0.063468	13.3471	7.31784	11.8038
 176	1	5	-0.012542	14.2212	4.12734	9.81049
 177	1	5	-0.012458	13.8204	3.50282	12.1176
 178	1	5	0.013933	13.8399	5.49926	13.6427
 179	1	5	0.014892	15.9234	8.96916	9.23114
 180	1	5	0.04353	13.2641	10.4049	9.1021
 181	1	5	0.048722	13.3186	8.69436	9.59053
 182	1	5	0.053734	13.96	9.20657	8.01608
 183	1	5	0.029251	16.8352	11.2316	9.70582
 184	1	5	0.025572	15.1922	11.9073	9.68105
 185	1	5	0.023611	15.8834	11.197	8.2075
 186	1	5	0.021405	14.5748	9.38243	16.031
 187	1	5	0.009991	16.5184	7.02981	15.788
 188	1	5	0.026343	15.9661	7.79199	17.2958
 189	1	5	0.026093	16.9556	8.71406	16.1461
 190	1	5	0.043016	14.0721	6.43055	15.5616
 191	1	5	0.050907	12.9027	7.65412	15.001
 192	1	5	0.051325	13.3183	7.52184	16.7236
 193	1	1	-0.439951	8.48306	-1.1741	13.7072
 194	1	1	0.043044	9.41945	-0.569932	12.8491
 195	1	1	0.126458	7.34679	-1.84461	11.6295
 196	1	1	0.016683	9.25372	-0.489005	11.469
 197	1	1	0.121946	7.5004	-1.88753	13.0019
 198	1	2	0.005505	10.1199	0.758944	11.3429
 199	1	1	-0.445809	8.14672	-1.04259	10.7895
 200	1	2	0.001585	10.3002	0.65709	12.9169
 201	1	3	0.031166	9.63563	1.94681	13.4603
 202	1	2	-0.048351	10.6142	3.04106	11.4713
 203	1	1	-0.041771	10.3195	4.50784	11.7318
 204	1	2	-0.107179	10.7715	2.91663	13.053
 205	1	3	-0.106774	8.51998	2.24965	12.4178
 206	1	3	-0.025838	9.40177	2.12419	11.1448
 207	1	1	-0.051955	10.4527	4.39742	13.1035
 208	1	1	-0.09124	9.66307	6.56045	13.3474
 209	1	1	-0.099966	9.55733	6.68755	11.9768
 210	1	1	-0.017311	9.81868	5.64297	11.0642
 211	1	1	-0.020587	10.0765	5.39873	14.0224
 212	1	2	-0.042503	9.01909	8.1099	12.051
 213	1	2	0.004295	9.12271	7.94408	13.6347
 214	1	3	0.00226	7.65428	8.10075	14.0989
 215	1	3	-0.145049	6.8632	7.49134	12.9197
 216	1	3	0.011953	7.19583	9.58483	13.9614
 217	1	3	0.014921	7.1234	9.79148	12.3895
 218	1	3	0.025749	7.51362	8.38161	11.8366
 219	1	3	0.154129	10.0976	5.28402	15.5422
 220	1	3	-0.203386	8.75217	4.75731	16.0826
 221	1	3	-0.113237	11.2752	4.43235	16.0658
 222	1	3	0.129534	9.60965	5.69474	9.55696
 223	1	3	-0.091829	10.1593	6.99712	8.9344
 224	1	3	-0.19809	8.12778	5.47221	9.18765
 225	1	4	0.228684	8.44632	-1.00131	14.778
 226	1	5	0.042843	11.0223	0.634044	10.733
 227	1	4	0.232532	7.87464	-0.784926	9.77093
 228	1	5	0.035382	11.3131	0.471282	13.2932
 229	1	5	0.041247	9.34204	1.93574	14.5161
 230	1	5	0.06146	11.5051	2.84865	10.8615
 231	1	5	0.068364	11.7622	2.64762	13.4387
 232	1	5	0.055799	8.07993	3.24801	12.5394
 233	1	5	0.04347	7.70797	1.51688	12.4321
 234	1	5	0.076294	8.90384	2.28411	10.1805
 235	1	5	0.058767	9.64647	8.85231	11.5537
 236	1	5	0.056756	9.80918	8.57457	14.2017
 237	1	5	0.029415	7.42854	7.65897	15.0769
 238	1	5	0.049793	5.77897	7.64929	13.0059
 239	1	5	0.063468	7.04814	6.41847	12.7752
 240	1	5	-0.012542	6.24362	9.81912	14.4553
 241	1	5	-0.012458	6.13633	10.149	12.0681
 242	1	5	0.013933	7.15127	8.19759	10.8188
 243	1	5	0.014892	10.2353	6.29494	15.9482
 244	1	5	0.04353	7.92136	5.37704	15.7249
 245	1	5	0.048722	8.73966	4.77256	17.1794
 246	1	5	0.053734	8.57159	3.72866	15.7528
 247	1	5	0.029251	11.3465	4.50366	17.1582
 248	1	5	0.025572	12.2246	4.78029	15.6415
 249	1	5	0.023611	11.1506	3.37459	15.8061
 250	1	5	0.021405	10.1791	4.86829	9.11155
 251	1	5	0.009991	9.58218	7.87092	9.25962
 252	1	5	0.026343	10.1134	6.95101	7.83925
 253	1	5	0.026093	11.2072	7.14974	9.22249
 254	1	5	0.043016	7.4987	6.28171	9.57355
 255	1	5	0.050907	7.76163	4.52856	9.61085
 256	1	5	0.051325	8.00005	5.42882	8.09896
 257	1	1	-0.439951	-2.80953	6.25884	12.3079
 258	1	1	0.043044	-1.59562	5.78235	12.8375
 259	1	1	0.126458	-3.03283	7.40623	14.4632
 260	1	1	0.016683	-1.12006	6.11388	14.0998
 261	1	1	0.121946	-3.56408	6.97425	13.2585
 262	1	2	0.005505	0.303669	5.70817	13.7794
 263	1	1	-0.445809	-1.74581	7.06954	14.9216
 264	1	2	0.001585	-0.221474	5.3937	12.313
 265	1	3	0.031166	0.0621428	3.88477	12.1252
 266	1	2	-0.048351	2.07435	4.22412	13.5214
 267	1	1	-0.041771	2.71973	2.85222	13.4189
 268	1	2	-0.107179	1.61314	3.99206	12.016
 269	1	3	-0.106774	-0.170765	3.31414	13.5538
 270	1	3	-0.025838	0.748847	4.31437	14.313
 271	1	1	-0.051955	2.36794	2.68046	12.0929
 272	1	1	-0.09124	3.85848	0.900993	11.9392
 273	1	1	-0.099966	4.11166	0.991245	13.2998
 274	1	1	-0.017311	3.66618	2.0648	14.0986
 275	1	1	-0.020587	3.02225	1.78634	11.2266
 276	1	2	-0.042503	5.26302	0.00333006	13.2545
 277	1	2	0.004295	5.0111	-0.0580508	11.6894
 278	1	3	0.00226	4.67643	-1.54667	11.4508
 279	1	3	-0.145049	3.88056	-1.91335	12.7248
 280	1	3	0.011953	5.93949	-2.43239	11.6687
 281	1	3	0.014921	6.10724	-2.42478	13.2476
 282	1	3	0.025749	4.97792	-1.4571	13.7113
 283	1	3	0.154129	2.92631	1.89462	9.70847
 284	1	3	-0.203386	4.20775	2.51285	9.10846
 285	1	3	-0.113237	2.59423	0.545877	9.03742
 286	1	3	0.129534	4.22624	2.43992	15.4651
 287	1	3	-0.091829	5.53641	3.24261	15.3192
 288	1	3	-0.19809	4.42556	1.21436	16.3838
 289	1	4	0.228684	-3.06707	6.20891	11.2546
 290	1	5	0.042843	1.05146	6.49928	13.91
 291	1	4	0.232532	-1.24018	7.59266	15.7271
 292	1	5	0.035382	0.143037	6.01399	11.4858
 293	1	5	0.041247	-0.461124	3.38416	11.3008
 294	1	5	0.06146	2.7727	5.04372	13.7298
 295	1	5	0.068364	1.96473	4.68854	11.2453
 296	1	5	0.055799	0.155049	2.27066	13.653
 297	1	5	0.04347	-1.21937	3.37282	13.8728
 298	1	5	0.076294	0.81584	4.19717	15.4019
 299	1	5	0.058767	6.21585	0.387117	13.6257
 300	1	5	0.056756	5.79412	0.320885	11.0259
 301	1	5	0.029415	4.1478	-1.76451	10.5161
 302	1	5	0.049793	3.66138	-2.98829	12.7955
 303	1	5	0.063468	2.93691	-1.36271	12.8319
 304	1	5	-0.012542	5.85707	-3.45191	11.2695
 305	1	5	-0.012458	6.06434	-3.43319	13.6801
 306	1	5	0.013933	4.70876	-1.56828	14.7689
 307	1	5	0.014892	2.09839	2.57573	9.4716
 308	1	5	0.04353	5.07633	1.8649	9.27691
 309	1	5	0.048722	4.41602	3.48769	9.56729
 310	1	5	0.053734	4.09777	2.66292	8.02728
 311	1	5	0.029251	1.72491	0.0771687	9.51561
 312	1	5	0.025572	3.44086	-0.145574	9.1004
 313	1	5	0.023611	2.35983	0.691548	7.97549
 314	1	5	0.021405	3.4965	3.09387	15.9603
 315	1	5	0.009991	5.37554	4.13994	14.7081
 316	1	5	0.026343	6.3171	2.63958	14.8389
 317	1	5	0.026093	5.90524	3.56405	16.3011
 318	1	5	0.043016	4.6879	1.53233	17.4004
 319	1	5	0.050907	5.23073	0.567687	16.0162
 320	1	5	0.051325	3.505	0.619928	16.4405
 321	1	1	-0.439951	-13.3249	10.808	18.3699
 322	1	1	0.043044	-13.3047	9.39736	18.3847
 323	1	1	0.126458	-15.032	10.5527	16.6168
 324	1	1	0.016683	-13.9619	8.62714	17.4295
 325	1	1	0.121946	-14.2904	11.3292	17.4879
 326	1	2	0.005505	-12.95	7.4875	17.5015
 327	1	1	-0.445809	-14.8124	9.16988	16.4451
 328	1	2	0.001585	-12.2466	8.34086	18.6367
 329	1	3	0.031166	-10.8363	8.62789	18.0815
 330	1	2	-0.048351	-10.91	6.38724	17.0538
 331	1	1	-0.041771	-9.47268	6.25228	16.5404
 332	1	2	-0.107179	-10.27	7.19297	18.2682
 333	1	3	-0.106774	-11.0727	8.73176	16.547
 334	1	3	-0.025838	-11.8627	7.41077	16.3811
 335	1	1	-0.051955	-8.92534	6.90428	17.635
 336	1	1	-0.09124	-6.82045	6.85413	16.6452
 337	1	1	-0.099966	-7.37295	6.29293	15.5074
 338	1	1	-0.017311	-8.75093	6.04225	15.3403
 339	1	1	-0.020587	-7.58471	7.33447	17.7259
 340	1	2	-0.042503	-6.12332	6.51992	14.6612
 341	1	2	0.004295	-5.48375	7.12799	15.981
 342	1	3	0.00226	-5.15172	8.57867	15.5768
 343	1	3	-0.145049	-6.3112	8.92738	14.6166
 344	1	3	0.011953	-3.97258	8.59583	14.5683
 345	1	3	0.014921	-4.62549	8.05691	13.2292
 346	1	3	0.025749	-6.08457	7.72473	13.6742
 347	1	3	0.154129	-7.00031	8.21707	18.8296
 348	1	3	-0.203386	-7.171	9.72392	18.5323
 349	1	3	-0.113237	-7.55786	7.87544	20.2293
 350	1	3	0.129534	-9.34559	5.64518	13.9938
 351	1	3	-0.091829	-9.87237	6.87768	13.2278
 352	1	3	-0.19809	-10.4283	4.55127	14.1207
 353	1	4	0.228684	-12.584	11.4217	18.872
 354	1	5	0.042843	-13.3605	6.51511	17.7972
 355	1	4	0.232532	-15.1338	8.62208	15.5649
 356	1	5	0.035382	-12.2563	7.9267	19.6518
 357	1	5	0.041247	-10.3009	9.45221	18.5607
 358	1	5	0.06146	-11.396	5.43573	17.3
 359	1	5	0.068364	-10.4038	6.7715	19.2717
 360	1	5	0.055799	-10.1397	8.75307	15.9694
 361	1	5	0.04347	-11.6724	9.59557	16.2597
 362	1	5	0.076294	-12.2261	7.16936	15.3762
 363	1	5	0.058767	-5.65743	5.61311	14.2602
 364	1	5	0.056756	-4.63348	6.58943	16.4141
 365	1	5	0.029415	-5.01215	9.27391	16.4118
 366	1	5	0.049793	-6.16848	9.8972	14.1201
 367	1	5	0.063468	-7.29791	8.91898	15.0957
 368	1	5	-0.012542	-3.49618	9.57569	14.4315
 369	1	5	-0.012458	-4.53956	8.77386	12.4023
 370	1	5	0.013933	-6.78929	7.66151	12.837
 371	1	5	0.014892	-5.92074	8.02111	18.8662
 372	1	5	0.04353	-6.60134	10.3266	19.2505
 373	1	5	0.048722	-8.21779	10.0302	18.5971
 374	1	5	0.053734	-6.81755	9.97274	17.5273
 375	1	5	0.029251	-7.46664	6.8012	20.4326
 376	1	5	0.025572	-8.61444	8.15491	20.3177
 377	1	5	0.023611	-7.0038	8.41562	21.0072
 378	1	5	0.021405	-8.53694	5.21655	13.3872
 379	1	5	0.009991	-10.6986	7.35152	13.7628
 380	1	5	0.026343	-10.2276	6.59598	12.2289
 381	1	5	0.026093	-9.08476	7.62986	13.1084
 382	1	5	0.043016	-10.7467	4.20621	13.1291
 383	1	5	0.050907	-11.3133	4.92156	14.6504
 384	1	5	0.051325	-10.0366	3.68565	14.6698
 385	1	1	-0.439951	-6.8946	10.3228	7.15028
 386	1	1	0.043044	-6.89578	10.1843	8.55055
 387	1	1	0.126458	-4.753	11.4876	7.53586
 388	1	1	0.016683	-5.96824	10.7839	9.39073
 389	1	1	0.121946	-5.72187	10.9587	6.70726
 390	1	2	0.005505	-6.84091	10.6366	10.6288
 391	1	1	-0.445809	-4.8567	11.5267	8.94144
 392	1	2	0.001585	-7.88352	9.91624	9.66344
 393	1	3	0.031166	-9.13682	10.8187	9.71824
 394	1	2	-0.048351	-8.57818	11.1603	12.1079
 395	1	1	-0.041771	-9.81041	11.9076	12.6197
 396	1	2	-0.107179	-9.57574	10.3983	11.1426
 397	1	3	-0.106774	-8.54637	12.2416	9.92662
 398	1	3	-0.025838	-7.61975	11.8934	11.1252
 399	1	1	-0.051955	-10.6712	11.2229	11.7727
 400	1	1	-0.09124	-12.4622	11.6533	13.2157
 401	1	1	-0.099966	-11.6308	12.3986	14.0495
 402	1	1	-0.017311	-10.2317	12.4475	13.8573
 403	1	1	-0.020587	-12.0126	10.9564	12.0798
 404	1	2	-0.042503	-12.5009	12.1638	15.2825
 405	1	2	0.004295	-13.4035	11.2844	14.3375
 406	1	3	0.00226	-14.7801	11.9779	14.3779
 407	1	3	-0.145049	-14.3902	13.4647	14.5302
 408	1	3	0.011953	-15.4446	11.7415	15.7612
 409	1	3	0.014921	-14.5635	12.6289	16.739
 410	1	3	0.025749	-13.496	13.2482	15.771
 411	1	3	0.154129	-12.8295	9.92155	11.3041
 412	1	3	-0.203386	-13.3356	8.74649	12.1694
 413	1	3	-0.113237	-14.0003	10.5944	10.5576
 414	1	3	0.129534	-9.28642	12.8917	14.9723
 415	1	3	-0.091829	-8.06836	13.6778	14.439
 416	1	3	-0.19809	-8.8292	11.7088	15.8492
 417	1	4	0.228684	-7.71215	10.0248	6.50166
 418	1	5	0.042843	-6.40728	10.0292	11.4306
 419	1	4	0.232532	-4.19519	12.0939	9.58861
 420	1	5	0.035382	-8.08002	8.85271	9.84483
 421	1	5	0.041247	-9.87247	10.6958	8.91351
 422	1	5	0.06146	-8.05531	10.573	12.8691
 423	1	5	0.068364	-9.70081	9.31622	11.2693
 424	1	5	0.055799	-9.3116	12.9853	10.1835
 425	1	5	0.04347	-7.99151	12.6058	9.05214
 426	1	5	0.076294	-7.01782	12.7134	11.5348
 427	1	5	0.058767	-11.9866	11.6938	16.1208
 428	1	5	0.056756	-13.4478	10.2147	14.5431
 429	1	5	0.029415	-15.4362	11.7602	13.5263
 430	1	5	0.049793	-15.2535	14.1137	14.7338
 431	1	5	0.063468	-13.8466	13.8673	13.6654
 432	1	5	-0.012542	-16.5106	12.0	15.8111
 433	1	5	-0.012458	-15.1675	13.3624	17.2892
 434	1	5	0.013933	-13.0268	14.1624	16.1555
 435	1	5	0.014892	-12.177	9.48385	10.5377
 436	1	5	0.04353	-13.6644	7.91596	11.5324
 437	1	5	0.048722	-14.1899	9.04348	12.7882
 438	1	5	0.053734	-12.5408	8.37675	12.826
 439	1	5	0.029251	-13.6301	11.3898	9.89865
 440	1	5	0.025572	-14.7126	11.0408	11.2623
 441	1	5	0.023611	-14.5399	9.86548	9.94013
 442	1	5	0.021405	-9.84106	13.58	15.6236
 443	1	5	0.009991	-7.3798	13.0236	13.8921
 444	1	5	0.026343	-7.51001	14.1309	15.2677
 445	1	5	0.026093	-8.38938	14.4838	13.7671
 446	1	5	0.043016	-9.68636	11.2222	16.3255
 447	1	5	0.050907	-8.15379	12.0503	16.6431
 448	1	5	0.051325	-8.30323	10.962	15.2479
 449	1	1	-0.439951	-3.66172	20.4289	0.592756
 450	1	1	0.043044	-4.89612	20.6041	1.25442
 451	1	1	0.126458	-5.03979	19.9819	-1.39478
 452	1	1	0.016683	-6.11607	20.2874	0.660498
 453	1	1	0.121946	-3.81754	20.1837	-0.784155
 454	1	2	0.005505	-6.77619	19.9092	1.97693
 455	1	1	-0.445809	-6.2501	19.8856	-0.682765
 456	1	2	0.001585	-5.40909	20.3351	2.65713
 457	1	3	0.031166	-4.90169	19.048	3.34193
 458	1	2	-0.048351	-7.27271	18.5249	3.79975
 459	1	1	-0.041771	-7.1426	17.2911	4.68609
 460	1	2	-0.107179	-5.93616	19.0274	4.50099
 461	1	3	-0.106774	-5.40228	17.924	2.38953
 462	1	3	-0.025838	-6.88324	18.3881	2.30525
 463	1	1	-0.051955	-6.003	17.7551	5.32074
 464	1	1	-0.09124	-5.64969	15.6562	6.2693
 465	1	1	-0.099966	-6.73614	15.1635	5.56149
 466	1	1	-0.017311	-7.50756	15.9293	4.65768
 467	1	1	-0.020587	-5.12381	16.9523	6.07079
 468	1	2	-0.042503	-6.42202	13.7088	5.89
 469	1	2	0.004295	-5.2133	14.2784	6.74638
 470	1	3	0.00226	-3.97896	13.6189	6.09905
 471	1	3	-0.145049	-4.36965	13.5973	4.60313
 472	1	3	0.011953	-3.95813	12.0923	6.38682
 473	1	3	0.014921	-5.11175	11.5347	5.44727
 474	1	3	0.025749	-5.69768	12.8358	4.82154
 475	1	3	0.154129	-3.76873	17.4707	6.55133
 476	1	3	-0.203386	-3.46304	17.0758	8.01193
 477	1	3	-0.113237	-2.60947	17.0742	5.60845
 478	1	3	0.129534	-8.6149	15.397	3.75087
 479	1	3	-0.091829	-9.54205	14.4	4.48107
 480	1	3	-0.19809	-8.06986	14.7908	2.43886
 481	1	4	0.228684	-2.70881	20.3608	1.10726
 482	1	5	0.042843	-7.66518	20.4949	2.23853
 483	1	4	0.232532	-7.14422	19.4201	-1.08544
 484	1	5	0.035382	-5.43002	21.2146	3.31133
 485	1	5	0.041247	-3.84101	19.0414	3.61406
 486	1	5	0.06146	-8.17761	19.1197	3.97237
 487	1	5	0.068364	-5.99419	19.9557	5.08198
 488	1	5	0.055799	-5.28577	16.9195	2.81609
 489	1	5	0.04347	-4.90952	17.9364	1.41402
 490	1	5	0.076294	-7.55378	17.7974	1.66981
 491	1	5	0.058767	-7.20349	13.1726	6.43869
 492	1	5	0.056756	-5.26585	14.129	7.83006
 493	1	5	0.029415	-3.02226	14.0956	6.32777
 494	1	5	0.049793	-3.65314	13.04	3.98308
 495	1	5	0.063468	-4.50298	14.595	4.16479
 496	1	5	-0.012542	-2.99515	11.6032	6.18912
 497	1	5	-0.012458	-4.74348	10.7944	4.72464
 498	1	5	0.013933	-6.26772	12.6459	3.90742
 499	1	5	0.014892	-3.81744	18.5676	6.53296
 500	1	5	0.04353	-3.35011	15.9907	8.11778
 501	1	5	0.048722	-4.27265	17.4045	8.67562
 502	1	5	0.053734	-2.53378	17.5494	8.35268
 503	1	5	0.029251	-2.37563	16.0105	5.67517
 504	1	5	0.025572	-1.69861	17.6297	5.86387
 505	1	5	0.023611	-2.85441	17.2891	4.5634
 506	1	5	0.021405	-9.24062	16.253	3.46601
 507	1	5	0.009991	-9.01586	13.4693	4.72497
 508	1	5	0.026343	-10.4057	14.1448	3.85446
 509	1	5	0.026093	-9.91924	14.836	5.41495
 510	1	5	0.043016	-8.88737	14.6121	1.72933
 511	1	5	0.050907	-7.57	13.8353	2.61856
 512	1	5	0.051325	-7.34801	15.4632	1.962
 513	1	1	-0.439951	-4.08641	7.15215	-2.88681
 514	1	1	0.043044	-3.50702	8.38038	-2.50893
 515	1	1	0.126458	-1.89228	6.17689	-2.40181
 516	1	1	0.016683	-2.22511	8.46934	-1.97325
 517	1	1	0.121946	-3.17597	6.07652	-2.9247
 518	1	2	0.005505	-2.55929	9.67484	-1.10994
 519	1	1	-0.445809	-1.40161	7.34494	-1.78854
 520	1	2	0.001585	-4.0127	9.58496	-1.73312
 521	1	3	0.031166	-4.15785	10.9175	-2.51673
 522	1	2	-0.048351	-2.89634	11.9299	-0.625609
 523	1	1	-0.041771	-2.97131	13.4218	-0.921471
 524	1	2	-0.107179	-4.346	11.8355	-1.28197
 525	1	3	-0.106774	-2.70593	11.2372	-2.96798
 526	1	3	-0.025838	-2.02824	11.0563	-1.57975
 527	1	1	-0.051955	-4.2164	13.326	-1.51511
 528	1	1	-0.09124	-4.33758	15.6304	-1.6575
 529	1	1	-0.099966	-3.10095	15.7459	-1.04921
 530	1	1	-0.017311	-2.36194	14.6466	-0.56231
 531	1	1	-0.020587	-5.013	14.4191	-1.89121
 532	1	2	-0.042503	-3.19679	17.2643	-0.911857
 533	1	2	0.004295	-4.61642	17.1126	-1.60607
 534	1	3	0.00226	-4.46459	17.8904	-2.93307
 535	1	3	-0.145049	-2.97461	17.6685	-3.28115
 536	1	3	0.011953	-4.42344	19.4162	-2.66044
 537	1	3	0.014921	-3.01676	19.6201	-1.95099
 538	1	3	0.025749	-2.4343	18.1654	-1.91996
 539	1	3	0.154129	-6.4184	14.2767	-2.46332
 540	1	3	-0.203386	-7.3969	15.3602	-1.95665
 541	1	3	-0.113237	-6.36538	14.2637	-4.0057
 542	1	3	0.129534	-1.14497	14.7881	0.344448
 543	1	3	-0.091829	0.0365212	13.9101	-0.120891
 544	1	3	-0.19809	-1.51299	14.485	1.81438
 545	1	4	0.228684	-5.16063	7.00577	-2.93672
 546	1	5	0.042843	-2.44356	9.50497	-0.0330253
 547	1	4	0.232532	-0.588184	7.32758	-1.07012
 548	1	5	0.035382	-4.85402	9.37349	-1.06262
 549	1	5	0.041247	-4.93827	10.9579	-3.28698
 550	1	5	0.06146	-2.79011	11.6742	0.435199
 551	1	5	0.068364	-5.18594	11.5494	-0.637668
 552	1	5	0.055799	-2.59762	12.2546	-3.36571
 553	1	5	0.04347	-2.33095	10.5323	-3.7213
 554	1	5	0.076294	-0.941937	11.2018	-1.54248
 555	1	5	0.058767	-3.14669	17.6452	0.111478
 556	1	5	0.056756	-5.50066	17.3886	-1.02614
 557	1	5	0.029415	-5.16704	17.5993	-3.72383
 558	1	5	0.049793	-2.63731	18.2865	-4.12545
 559	1	5	0.063468	-2.72315	16.6224	-3.49918
 560	1	5	-0.012542	-4.53719	20.0471	-3.55187
 561	1	5	-0.012458	-2.39269	20.3535	-2.47853
 562	1	5	0.013933	-1.3414	18.1299	-1.83033
 563	1	5	0.014892	-6.81872	13.3074	-2.13901
 564	1	5	0.04353	-7.17484	16.3367	-2.40344
 565	1	5	0.048722	-7.33999	15.4559	-0.865013
 566	1	5	0.053734	-8.42896	15.1002	-2.2217
 567	1	5	0.029251	-5.9677	15.2109	-4.3918
 568	1	5	0.025572	-7.36459	14.1108	-4.43176
 569	1	5	0.023611	-5.71604	13.4539	-4.36238
 570	1	5	0.021405	-0.806046	15.8315	0.300987
 571	1	5	0.009991	0.272088	14.1029	-1.17513
 572	1	5	0.026343	-0.192718	12.8447	-0.00671117
 573	1	5	0.026093	0.934524	14.1248	0.471808
 574	1	5	0.043016	-2.30978	15.1561	2.15962
 575	1	5	0.050907	-0.6453	14.6224	2.47158
 576	1	5	0.051325	-1.86625	13.4526	1.92753
 577	1	1	-0.439951	2.57312	-3.22097	-7.98953
 578	1	1	0.043044	1.35157	-2.69944	-7.56528
 579	1	1	0.126458	1.30283	-4.39621	-9.72429
 580	1	1	0.016683	0.145033	-2.97641	-8.16882
 581	1	1	0.121946	2.55464	-4.08209	-9.11334
 582	1	2	0.005505	-0.660849	-2.76278	-6.88839
 583	1	1	-0.445809	0.0755805	-3.90243	-9.21689
 584	1	2	0.001585	0.734801	-2.49957	-6.1972
 585	1	3	0.031166	0.594154	-1.11335	-5.53229
 586	1	2	-0.048351	-0.802419	-0.364006	-7.41747
 587	1	1	-0.041771	-1.06302	1.09905	-7.03302
 588	1	2	-0.107179	0.622343	-0.161217	-6.75683
 589	1	3	-0.106774	-0.905974	-1.16109	-5.13231
 590	1	3	-0.025838	-1.47212	-1.4658	-6.54573
 591	1	1	-0.051955	0.202163	1.26394	-6.48619
 592	1	1	-0.09124	-0.481158	3.21796	-5.41855
 593	1	1	-0.099966	-1.76175	3.05089	-5.92672
 594	1	1	-0.017311	-2.16296	1.9322	-6.70314
 595	1	1	-0.020587	0.550591	2.27728	-5.57402
 596	1	2	-0.042503	-2.36925	4.04363	-4.93273
 597	1	2	0.004295	-0.903644	4.22226	-4.36173
 598	1	3	0.00226	-1.02001	3.72094	-2.89757
 599	1	3	-0.145049	-2.08093	2.60513	-3.01325
 600	1	3	0.011953	-1.83167	4.71259	-2.02344
 601	1	3	0.014921	-3.29563	4.59031	-2.60241
 602	1	3	0.025749	-3.14034	3.49466	-3.70418
 603	1	3	0.154129	1.8786	2.37887	-4.82154
 604	1	3	-0.203386	1.89753	1.59676	-3.48738
 605	1	3	-0.113237	3.08901	1.99117	-5.70151
 606	1	3	0.129534	-3.6184	1.6189	-7.09002
 607	1	3	-0.091829	-3.72056	0.915903	-8.46682
 608	1	3	-0.19809	-4.51807	2.87975	-7.13401
 609	1	4	0.228684	3.47479	-3.00948	-7.42754
 610	1	5	0.042843	-1.20011	-3.64922	-6.53724
 611	1	4	0.232532	-0.874315	-4.28581	-9.57618
 612	1	5	0.035382	1.03982	-3.2364	-5.45181
 613	1	5	0.041247	1.30653	-0.915108	-4.72971
 614	1	5	0.06146	-0.828417	-0.569916	-8.49389
 615	1	5	0.068364	1.50593	-0.241403	-7.39957
 616	1	5	0.055799	-1.27015	-0.214402	-4.7182
 617	1	5	0.04347	-1.12064	-1.96482	-4.41505
 618	1	5	0.076294	-2.56374	-1.54665	-6.61889
 619	1	5	0.058767	-2.83295	4.9323	-5.37508
 620	1	5	0.056756	-0.453893	5.21704	-4.45283
 621	1	5	0.029415	-0.0759116	3.41906	-2.43193
 622	1	5	0.049793	-2.41247	2.22523	-2.03622
 623	1	5	0.063468	-1.75859	1.75302	-3.62179
 624	1	5	-0.012542	-1.79118	4.51446	-0.94392
 625	1	5	-0.012458	-4.0264	4.34797	-1.8193
 626	1	5	0.013933	-4.07562	2.9709	-3.93477
 627	1	5	0.014892	2.00964	3.43802	-4.5641
 628	1	5	0.04353	0.890317	1.48779	-3.07022
 629	1	5	0.048722	2.5199	2.1195	-2.75073
 630	1	5	0.053734	2.32153	0.595752	-3.60937
 631	1	5	0.029251	3.09466	0.916715	-5.92175
 632	1	5	0.025572	4.03047	2.23379	-5.19353
 633	1	5	0.023611	3.0669	2.53448	-6.65457
 634	1	5	0.021405	-4.03774	0.938436	-6.33786
 635	1	5	0.009991	-3.27603	-0.0838866	-8.44565
 636	1	5	0.026343	-3.21374	1.5032	-9.24337
 637	1	5	0.026093	-4.76856	0.791319	-8.76766
 638	1	5	0.043016	-5.52016	2.63541	-7.50827
 639	1	5	0.050907	-4.08725	3.64499	-7.79235
 640	1	5	0.051325	-4.65166	3.31577	-6.1404
 641	1	1	-0.439951	6.91089	-9.47527	-0.777982
 642	1	1	0.043044	8.16512	-8.88189	-0.957805
 643	1	1	0.126458	6.22617	-7.37158	0.315423
 644	1	1	0.016683	8.41029	-7.57648	-0.612543
 645	1	1	0.121946	5.91328	-8.68818	-0.145443
 646	1	2	0.005505	9.54329	-7.40359	-1.61495
 647	1	1	-0.445809	7.47202	-6.76828	0.0317531
 648	1	2	0.001585	9.28336	-8.92261	-1.99712
 649	1	3	0.031166	9.05746	-8.88501	-3.5408
 650	1	2	-0.048351	7.87277	-6.7317	-3.29009
 651	1	1	-0.041771	7.44522	-6.42768	-4.72294