pySIMM System Object

3020 atoms
3442 bonds
7176 angles
13020 dihedrals
184 impropers

5 atom types
9 bond types
18 angle types
19 dihedral types
2 improper types

-198.190770 198.190770 xlo xhi
-198.190770 198.190770 ylo yhi
-198.190770 198.190770 zlo zhi

Masses

   1	12.01	# ca
   2	12.01	# cy
   3	12.01	# c3
   4	1.008	# ha
   5	1.008	# hc

Pair Coeffs

   1	0.086	3.3996695084235347	# ca
   2	0.086	3.3996695084235347	# cy
   3	0.1094	3.3996695084235347	# c3
   4	0.015	2.59964245953351	# ha
   5	0.0157	2.649532787749369	# hc

Bond Coeffs

   1	300.9	1.5375	# c3,c3
   2	305.9	1.5319	# c3,cy
   3	345.8	1.086	# ca,ha
   4	321.0	1.5156	# c3,ca
   5	285.0	1.5562	# cy,cy
   6	330.6	1.0969	# c3,hc
   7	333.3	1.0949	# cy,hc
   8	321.2	1.5154	# ca,cy
   9	461.1	1.3984	# ca,ca

Angle Coeffs

   1	66.62	120.02	# ca,ca,ca
   2	61.4	116.81	# ca,cy,cy
   3	44.83	114.79	# cy,cy,hc
   4	46.43	110.14	# c3,cy,hc
   5	63.15	112.07	# c3,c3,ca
   6	46.34	109.8	# c3,c3,hc
   7	39.4	107.58	# hc,c3,hc
   8	48.18	119.88	# ca,ca,ha
   9	63.53	120.77	# c3,ca,ca
  10	60.66	118.7	# c3,cy,cy
  11	63.51	120.86	# ca,ca,cy
  12	62.73	112.39	# c3,c3,cy
  13	46.29	110.75	# cy,c3,hc
  14	46.8	110.47	# ca,c3,hc
  15	62.8	113.57	# c3,cy,ca
  16	62.86	111.51	# c3,c3,c3
  17	67.9	96.03	# cy,c3,cy
  18	45.97	114.53	# ca,cy,hc

Dihedral Coeffs

   1	1	0.16	3	0.0	# hc,c3,cy,cy
   2	1	0.16	3	0.0	# cy,c3,cy,hc
   3	1	0.16	3	0.0	# c3,c3,cy,hc
   4	1	0.15	3	0.0	# hc,c3,cy,hc
   5	1	3.625	2	180	# X,ca,ca,X
   6	1	0.15555555555555556	3	0	# X,cy,cy,X
   7	3	0.18	3	0	0.25	2	180	0.2	1	180	# c3,c3,c3,c3
   8	1	0.16	3	0	# hc,c3,c3,c3
   9	1	0.0	2	0.0	# ca,ca,cy,cy
  10	1	0.0	2	0.0	# ca,ca,cy,c3
  11	1	0.15555555555555556	3	0	# X,c3,c3,X
  12	1	0.0	2	0	# X,c3,ca,X
  13	3	0.38	3	180.0	0.0	2	0.0	1.15	1	0.0	# ca,ca,cy,hc
  14	3	0.18	3	0.0	0.25	2	180.0	0.2	1	180.0	# cy,c3,cy,cy
  15	1	0.16	3	0.0	# cy,c3,cy,ca
  16	1	0.16	3	0.0	# c3,c3,cy,ca
  17	1	0.16	3	0.0	# hc,c3,cy,ca
  18	1	0.15	3	0	# hc,c3,c3,hc
  19	3	0.18	3	0.0	0.25	2	180.0	0.2	1	180.0	# c3,c3,cy,cy

Improper Coeffs

   1	1.1	-1	2	# ca,ca,ca,c3
   2	1.1	-1	2	# ca,X,X,ha

Atoms

   1	1	1	-0.439951	35.8279	-31.362	3.56621
   2	1	1	0.043044	35.9942	-31.0264	4.92398
   3	1	1	0.126458	37.4969	-33.106	4.0227
   4	1	1	0.016683	36.9486	-31.6202	5.74357
   5	1	1	0.121946	36.5466	-32.5168	3.20725
   6	1	2	0.005505	37.0157	-30.4357	6.68938
   7	1	1	-0.445809	37.8406	-32.6134	5.29445
   8	1	2	0.001585	35.9265	-29.7588	5.75589
   9	1	3	0.031166	36.6468	-28.5063	5.19349
  10	1	2	-0.048351	37.7028	-28.3393	7.42934
  11	1	1	-0.041771	38.4267	-27.002	7.36608
  12	1	2	-0.107179	36.6024	-27.6643	6.49656
  13	1	3	-0.106774	38.1349	-28.9511	5.11128
  14	1	3	-0.025838	38.2497	-29.5042	6.56079
  15	1	1	-0.051955	37.4674	-26.4192	6.55499
  16	1	1	-0.09124	38.8446	-24.5703	6.2352
  17	1	1	-0.099966	39.7951	-25.1431	7.06415
  18	1	1	-0.017311	39.7039	-26.4456	7.59305
  19	1	1	-0.020587	37.6545	-25.2192	5.84205
  20	1	2	-0.042503	40.8536	-24.1027	6.74424
  21	1	2	0.004295	39.7688	-23.4446	5.79223
  22	1	3	0.00226	40.4469	-23.5284	4.40476
  23	1	3	-0.145049	41.2372	-24.8516	4.47447
  24	1	3	0.011953	41.6165	-22.5115	4.38354
  25	1	3	0.014921	42.6764	-23.1636	5.31458
  26	1	3	0.025749	41.991	-24.4772	5.76734
  27	1	3	0.154129	36.6763	-24.7322	4.77612
  28	1	3	-0.203386	36.446	-23.2059	4.83405
  29	1	3	-0.113237	37.1007	-25.1744	3.3587
  30	1	3	0.129534	40.8701	-27.1349	8.29704
  31	1	3	-0.091829	41.7026	-27.9974	7.32314
  32	1	3	-0.19809	40.4217	-27.9606	9.52347
  33	1	4	0.228684	35.3093	-30.7316	2.8514
  34	1	5	0.042843	36.7184	-30.6553	7.72143
  35	1	4	0.232532	38.7587	-32.8745	5.81049
  36	1	5	0.035382	34.9467	-29.5544	6.20247
  37	1	5	0.041247	36.2075	-28.0585	4.29471
  38	1	5	0.06146	37.3834	-28.6386	8.4349
  39	1	5	0.068364	35.5984	-27.5414	6.92044
  40	1	5	0.055799	38.8192	-28.1146	4.91919
  41	1	5	0.04347	38.3081	-29.7192	4.34662
  42	1	5	0.076294	39.2089	-29.9422	6.85464
  43	1	5	0.058767	41.1946	-23.4944	7.58935
  44	1	5	0.056756	39.445	-22.4307	6.05255
  45	1	5	0.029415	39.7741	-23.4309	3.54651
  46	1	5	0.049793	41.9075	-24.9949	3.6156
  47	1	5	0.063468	40.5992	-25.7391	4.57895
  48	1	5	-0.012542	41.306	-21.5217	4.7425
  49	1	5	-0.012458	42.9305	-22.5181	6.16545
  50	1	5	0.013933	42.6929	-25.2347	6.13498
  51	1	5	0.014892	35.7059	-25.2041	4.97918
  52	1	5	0.04353	36.1572	-22.8974	5.84666
  53	1	5	0.048722	35.6426	-22.9103	4.14797
  54	1	5	0.053734	37.3506	-22.655	4.55119
  55	1	5	0.029251	37.274	-26.2554	3.31937
  56	1	5	0.025572	38.0237	-24.679	3.04442
  57	1	5	0.023611	36.3202	-24.93	2.62738
  58	1	5	0.021405	41.537	-26.3488	8.67483
  59	1	5	0.009991	42.6022	-28.3829	7.81927
  60	1	5	0.026343	42.0216	-27.412	6.45393
  61	1	5	0.026093	41.1288	-28.8521	6.95385
  62	1	5	0.043016	39.8255	-28.8305	9.22398
  63	1	5	0.050907	39.8173	-27.346	10.2024
  64	1	5	0.051325	41.2924	-28.3256	10.0823
  65	1	1	-0.439951	33.5785	-43.1651	2.57755
  66	1	1	0.043044	33.8673	-42.7876	1.25103
  67	1	1	0.126458	31.2694	-42.5283	2.02446
  68	1	1	0.016683	32.9291	-42.2064	0.402309
  69	1	1	0.121946	32.203	-43.0988	2.86927
  70	1	2	0.005505	33.9816	-41.4974	-0.433898
  71	1	1	-0.445809	31.5973	-41.9463	0.784671
  72	1	2	0.001585	35.0491	-42.1604	0.533255
  73	1	3	0.031166	35.73	-40.95	1.22538
  74	1	2	-0.048351	35.51	-39.8191	-0.961318
  75	1	1	-0.041771	36.2825	-38.5274	-0.757656
  76	1	2	-0.107179	36.5814	-40.4837	0.0124903
  77	1	3	-0.106774	34.5977	-39.8865	1.29172
  78	1	3	-0.025838	34.1655	-39.9737	-0.199432
  79	1	1	-0.051955	37.2177	-39.1033	0.086346
  80	1	1	-0.09124	38.028	-36.9859	0.618386
  81	1	1	-0.099966	37.0759	-36.4078	-0.205504
  82	1	1	-0.017311	36.0831	-37.1388	-0.891843
  83	1	1	-0.020587	38.1058	-38.3642	0.897474
  84	1	2	-0.042503	37.3448	-34.9988	0.306229
  85	1	2	0.004295	38.4399	-35.6668	1.2469
  86	1	3	0.00226	37.9323	-35.3287	2.66937
  87	1	3	-0.145049	36.3948	-35.3786	2.49283
  88	1	3	0.011953	38.1927	-33.81	2.87263
  89	1	3	0.014921	37.105	-33.1373	1.9389
  90	1	3	0.025749	36.367	-34.3621	1.3261
  91	1	3	0.154129	39.0545	-38.9399	1.94674
  92	1	3	-0.203386	38.3784	-39.1076	3.32235
  93	1	3	-0.113237	39.7099	-40.2623	1.49138
  94	1	3	0.129534	34.9255	-36.5425	-1.68847
  95	1	3	-0.091829	35.3465	-35.3075	-2.51528
  96	1	3	-0.19809	33.7121	-36.2196	-0.794677
  97	1	4	0.228684	34.3399	-43.3507	3.32841
  98	1	5	0.042843	34.0106	-41.7993	-1.48739
  99	1	4	0.232532	30.9413	-41.2648	0.252631
 100	1	5	0.035382	35.7475	-42.8776	0.0865932
 101	1	5	0.041247	36.2597	-41.1723	2.15686
 102	1	5	0.06146	35.4866	-40.1794	-1.9968
 103	1	5	0.068364	37.2238	-41.2628	-0.414746
 104	1	5	0.055799	34.9625	-38.891	1.5762
 105	1	5	0.04347	33.7948	-40.1647	1.9815
 106	1	5	0.076294	33.3346	-39.3338	-0.51693
 107	1	5	0.058767	37.7151	-34.2839	-0.43695
 108	1	5	0.056756	39.4791	-35.3631	1.07731
 109	1	5	0.029415	38.3303	-35.9558	3.47498
 110	1	5	0.049793	35.8359	-35.0498	3.37833
 111	1	5	0.063468	36.0173	-36.3715	2.2153
 112	1	5	-0.012542	39.2189	-33.4701	2.68022
 113	1	5	-0.012458	37.5172	-32.4178	1.21915
 114	1	5	0.013933	35.3703	-34.1216	0.943239
 115	1	5	0.014892	39.8699	-38.2172	2.08153
 116	1	5	0.04353	37.8927	-38.1777	3.63522
 117	1	5	0.048722	39.1169	-39.3787	4.08685
 118	1	5	0.053734	37.6174	-39.8915	3.29733
 119	1	5	0.029251	38.9718	-41.0699	1.41966
 120	1	5	0.025572	40.4831	-40.5755	2.20399
 121	1	5	0.023611	40.1845	-40.141	0.509489
 122	1	5	0.021405	34.5965	-37.304	-2.40774
 123	1	5	0.009991	35.6033	-34.4609	-1.86735
 124	1	5	0.026343	34.5307	-34.9894	-3.17641
 125	1	5	0.026093	36.2177	-35.5393	-3.14088
 126	1	5	0.043016	33.9237	-35.3897	-0.114822
 127	1	5	0.050907	33.4438	-37.0885	-0.187661
 128	1	5	0.051325	32.8415	-35.9456	-1.40342
 129	1	1	-0.439951	32.4066	-30.9974	7.08077
 130	1	1	0.043044	33.324	-31.9896	6.68654
 131	1	1	0.126458	33.6241	-31.0475	9.21781
 132	1	1	0.016683	34.2658	-32.5484	7.54389
 133	1	1	0.121946	32.6888	-30.4934	8.36369
 134	1	2	0.005505	34.3997	-33.8212	6.72549
 135	1	1	-0.445809	34.3986	-32.1791	8.89727
 136	1	2	0.001585	33.3193	-33.1829	5.7511
 137	1	3	0.031166	32.1113	-34.1525	5.84933
 138	1	2	-0.048351	33.8136	-35.9365	5.96758
 139	1	1	-0.041771	32.9804	-37.2031	5.90283
 140	1	2	-0.107179	32.7277	-35.2988	5.00372
 141	1	3	-0.106774	32.2001	-34.6956	7.30306
 142	1	3	-0.025838	33.7016	-35.0964	7.26824
 143	1	1	-0.051955	32.0278	-36.6471	5.06074
 144	1	1	-0.09124	31.3382	-38.7996	4.43609
 145	1	1	-0.099966	32.2932	-39.3581	5.27714
 146	1	1	-0.017311	33.2507	-38.5825	5.96257
 147	1	1	-0.020587	31.2302	-37.4181	4.19195
 148	1	2	-0.042503	32.3018	-40.6857	4.53518
 149	1	2	0.004295	31.2259	-40.0429	3.57406
 150	1	3	0.00226	29.988	-40.9506	3.76499
 151	1	3	-0.145049	30.0938	-41.3435	5.25595
 152	1	3	0.011953	30.2328	-42.3496	3.12334
 153	1	3	0.014921	31.3078	-43.0003	4.09415
 154	1	3	0.025749	31.5385	-41.8829	5.15685
 155	1	3	0.154129	30.4797	-36.8725	2.98133
 156	1	3	-0.203386	29.7336	-35.5538	3.27959
 157	1	3	-0.113237	31.4189	-36.7154	1.7695
 158	1	3	0.129534	34.561	-39.1199	6.52842
 159	1	3	-0.091829	35.6231	-39.2787	5.42099
 160	1	3	-0.19809	34.3773	-40.4352	7.31692
 161	1	4	0.228684	31.5127	-30.7463	6.51904
 162	1	5	0.042843	35.3987	-33.9977	6.31083
 163	1	4	0.232532	34.9331	-32.7706	9.63346
 164	1	5	0.035382	33.6413	-32.9634	4.7267
 165	1	5	0.041247	31.1384	-33.7615	5.52811
 166	1	5	0.06146	34.8402	-36.0446	5.59748
 167	1	5	0.068364	33.0437	-34.9872	4.00135
 168	1	5	0.055799	31.5333	-35.5491	7.48034
 169	1	5	0.04347	31.9823	-33.9298	8.05596
 170	1	5	0.076294	34.1187	-35.5382	8.18165
 171	1	5	0.058767	33.2696	-40.9723	4.11741
 172	1	5	0.056756	31.4861	-39.8929	2.52286
 173	1	5	0.029415	29.0319	-40.4927	3.48207
 174	1	5	0.049793	29.3686	-42.1169	5.54646
 175	1	5	0.063468	29.9888	-40.4948	5.94437
 176	1	5	-0.012542	29.3352	-42.9735	3.01958
 177	1	5	-0.012458	30.9717	-43.9631	4.5013
 178	1	5	0.013933	31.9475	-42.253	6.10484
 179	1	5	0.014892	29.7148	-37.6097	2.70354
 180	1	5	0.04353	30.4347	-34.7257	3.43283
 181	1	5	0.048722	29.1137	-35.6544	4.17935
 182	1	5	0.053734	29.0767	-35.2855	2.44303
 183	1	5	0.029251	31.9061	-37.67	1.53682
 184	1	5	0.025572	32.2015	-35.9734	1.96926
 185	1	5	0.023611	30.8602	-36.3941	0.88158
 186	1	5	0.021405	34.9461	-38.3779	7.24017
 187	1	5	0.009991	35.331	-40.0451	4.69339
 188	1	5	0.026343	36.5903	-39.5678	5.85053
 189	1	5	0.026093	35.7598	-38.3336	4.88118
 190	1	5	0.043016	34.1064	-41.2636	6.65269
 191	1	5	0.050907	33.5887	-40.3263	8.07207
 192	1	5	0.051325	35.306	-40.7087	7.83301
 193	1	1	-0.439951	25.614	-32.7852	17.797
 194	1	1	0.043044	25.3215	-33.4227	16.5755
 195	1	1	0.126458	23.7265	-31.3162	17.217
 196	1	1	0.016683	24.3707	-32.9505	15.6762
 197	1	1	0.121946	24.6872	-31.7705	18.0997
 198	1	2	0.005505	25.0256	-33.6198	14.481
 199	1	1	-0.445809	23.5837	-31.8039	15.9041
 200	1	2	0.001585	26.1036	-34.1674	15.51
 201	1	3	0.031166	27.4354	-33.5296	15.0357
 202	1	2	-0.048351	26.5573	-33.8631	12.7499
 203	1	1	-0.041771	27.7419	-33.4997	11.8732
 204	1	2	-0.107179	27.6354	-34.4234	13.7811
 205	1	3	-0.106774	26.988	-32.1662	14.436
 206	1	3	-0.025838	25.8545	-32.7179	13.5256
 207	1	1	-0.051955	28.6799	-33.9958	12.7621
 208	1	1	-0.09124	30.3827	-33.1288	11.4381
 209	1	1	-0.099966	29.4439	-32.5974	10.571
 210	1	1	-0.017311	28.0502	-32.6695	10.7778
 211	1	1	-0.020587	30.0679	-33.7653	12.654
 212	1	2	-0.042503	30.4768	-31.8095	9.77949
 213	1	2	0.004295	31.5521	-32.4307	10.7691
 214	1	3	0.00226	32.1636	-31.1854	11.4555
 215	1	3	-0.145049	30.9502	-30.2304	11.5435
 216	1	3	0.011953	33.0424	-30.3787	10.4533
 217	1	3	0.014921	31.967	-29.7475	9.47151
 218	1	3	0.025749	30.6179	-30.2861	10.0347
 219	1	3	0.154129	31.1219	-34.1229	13.6981
 220	1	3	-0.203386	31.266	-33.0174	14.7668
 221	1	3	-0.113237	30.8684	-35.4981	14.3539
 222	1	3	0.129534	26.9856	-31.9464	9.9582
 223	1	3	-0.091829	27.3056	-31.9332	8.4467
 224	1	3	-0.19809	26.7351	-30.516	10.4844
 225	1	4	0.228684	26.5119	-32.9727	18.377
 226	1	5	0.042843	24.4001	-34.3638	13.9738
 227	1	4	0.232532	23.0246	-31.2896	15.129
 228	1	5	0.035382	26.1483	-35.2534	15.6531
 229	1	5	0.041247	28.2456	-33.5093	15.7721
 230	1	5	0.06146	25.8704	-34.5917	12.3026
 231	1	5	0.068364	27.614	-35.5004	13.9861
 232	1	5	0.055799	27.7867	-31.6686	13.8706
 233	1	5	0.04347	26.6183	-31.4672	15.1951
 234	1	5	0.076294	25.2903	-31.988	12.9333
 235	1	5	0.058767	30.5523	-32.086	8.72396
 236	1	5	0.056756	32.2982	-33.1045	10.338
 237	1	5	0.029415	32.6628	-31.3825	12.4113
 238	1	5	0.049793	31.2247	-29.2217	11.8832
 239	1	5	0.063468	30.1406	-30.6028	12.1851
 240	1	5	-0.012542	33.6843	-29.6152	10.9124
 241	1	5	-0.012458	32.0426	-28.6534	9.41931
 242	1	5	0.013933	29.756	-29.682	9.73278
 243	1	5	0.014892	32.0879	-34.1951	13.1813
 244	1	5	0.04353	30.3565	-32.9222	15.3673
 245	1	5	0.048722	31.4593	-32.045	14.2999
 246	1	5	0.053734	32.0992	-33.2394	15.4449
 247	1	5	0.029251	31.7128	-35.7815	14.9944
 248	1	5	0.025572	30.749	-36.2754	13.5887
 249	1	5	0.023611	29.9651	-35.4845	14.9753
 250	1	5	0.021405	26.0451	-32.5006	10.0757
 251	1	5	0.009991	28.1791	-31.3076	8.22736
 252	1	5	0.026343	26.4568	-31.536	7.87626
 253	1	5	0.026093	27.5101	-32.949	8.0853
 254	1	5	0.043016	27.6163	-29.8818	10.3465
 255	1	5	0.050907	26.4987	-30.5277	11.5544
 256	1	5	0.051325	25.8946	-30.0493	9.95605
 257	1	1	-0.439951	27.2288	-20.1368	18.2852
 258	1	1	0.043044	28.2294	-21.0033	17.8027
 259	1	1	0.126458	28.5358	-20.1466	20.3635
 260	1	1	0.016683	29.2614	-21.4926	18.5954
 261	1	1	0.121946	27.5173	-19.6462	19.5733
 262	1	2	0.005505	29.4726	-22.7199	17.7305
 263	1	1	-0.445809	29.4038	-21.1781	19.9602
 264	1	2	0.001585	28.3061	-22.1551	16.8146
 265	1	3	0.031166	27.2019	-23.2418	16.8994
 266	1	2	-0.048351	29.0661	-24.8684	16.953
 267	1	1	-0.041771	28.3527	-26.205	16.8636
 268	1	2	-0.107179	27.907	-24.3077	16.0148
 269	1	3	-0.106774	27.3714	-23.809	18.3365
 270	1	3	-0.025838	28.9056	-24.0612	18.2667
 271	1	1	-0.051955	27.3517	-25.7226	16.039
 272	1	1	-0.09124	26.1716	-27.7107	16.3098
 273	1	1	-0.099966	27.1597	-28.1805	17.1604
 274	1	1	-0.017311	28.2719	-27.4176	17.5753
 275	1	1	-0.020587	26.1433	-26.4	15.7845
 276	1	2	-0.042503	26.3683	-29.414	17.5674
 277	1	2	0.004295	25.2431	-28.8836	16.5814
 278	1	3	0.00226	24.0293	-28.6747	17.5183
 279	1	3	-0.145049	24.7019	-28.2081	18.8301
 280	1	3	0.011953	23.4613	-30.0411	18.0011
 281	1	3	0.014921	24.5777	-30.5565	19.0043
 282	1	3	0.025749	25.6473	-29.4261	18.9412
 283	1	3	0.154129	24.9731	-25.7538	15.0465
 284	1	3	-0.203386	24.2663	-26.7301	14.08
 285	1	3	-0.113237	23.9614	-25.1095	16.0198
 286	1	3	0.129534	29.2712	-27.8075	18.6614
 287	1	3	-0.091829	29.6566	-29.3026	18.6051
 288	1	3	-0.19809	28.7744	-27.4156	20.071
 289	1	4	0.228684	26.2834	-19.9708	17.7804
 290	1	5	0.042843	30.4686	-22.7946	17.2782
 291	1	4	0.232532	30.0121	-21.753	20.651
 292	1	5	0.035382	28.5737	-21.8648	15.7919
 293	1	5	0.041247	26.1946	-22.9303	16.6003
 294	1	5	0.06146	30.0833	-24.8686	16.5431
 295	1	5	0.068364	28.2001	-23.9474	15.0215
 296	1	5	0.055799	26.793	-24.7269	18.5036
 297	1	5	0.04347	27.0928	-23.0852	19.1093
 298	1	5	0.076294	29.3877	-24.4669	19.1634
 299	1	5	0.058767	26.8418	-30.3674	17.315
 300	1	5	0.056756	25.0206	-29.5015	15.7062
 301	1	5	0.029415	23.2545	-28.0038	17.1337
 302	1	5	0.049793	23.9963	-28.1371	19.6701
 303	1	5	0.063468	25.2294	-27.2494	18.7392
 304	1	5	-0.012542	22.472	-29.9872	18.4744
 305	1	5	-0.012458	24.1763	-30.7585	20.0062
 306	1	5	0.013933	26.3073	-29.417	19.8143
 307	1	5	0.014892	25.381	-24.9423	14.4296
 308	1	5	0.04353	23.7417	-27.5232	14.6253
 309	1	5	0.048722	24.9931	-27.1993	13.405
 310	1	5	0.053734	23.528	-26.1987	13.4666
 311	1	5	0.029251	24.4603	-24.4126	16.7016
 312	1	5	0.025572	23.4566	-25.8634	16.6308
 313	1	5	0.023611	23.1944	-24.5516	15.4683
 314	1	5	0.021405	30.1928	-27.2392	18.4793
 315	1	5	0.009991	29.9949	-29.5785	17.5982
 316	1	5	0.026343	28.8085	-29.9446	18.8711
 317	1	5	0.026093	30.4729	-29.5172	19.3062
 318	1	5	0.043016	29.5624	-27.574	20.8176
 319	1	5	0.050907	27.9054	-28.0098	20.3674
 320	1	5	0.051325	28.4808	-26.3609	20.1068
 321	1	1	-0.439951	21.3234	-24.037	29.1827
 322	1	1	0.043044	20.9786	-24.2414	27.8332
 323	1	1	0.126458	19.4687	-22.4199	29.1452
 324	1	1	0.016683	19.9843	-23.5354	27.1677
 325	1	1	0.121946	20.4284	-23.1538	29.8139
 326	1	2	0.005505	20.4975	-23.9169	25.791
 327	1	1	-0.445809	19.238	-22.4962	27.7585
 328	1	2	0.001585	21.6524	-24.6997	26.5552
 329	1	3	0.031166	22.9457	-23.9518	26.1268
 330	1	2	-0.048351	21.8497	-23.7818	23.9077
 331	1	1	-0.041771	22.9432	-23.2341	23.0063
 332	1	2	-0.107179	23.0202	-24.5291	24.6902
 333	1	3	-0.106774	22.4668	-22.4913	25.8902
 334	1	3	-0.025838	21.2501	-22.8302	24.9819
 335	1	1	-0.051955	23.9606	-23.862	23.7031
 336	1	1	-0.09124	25.5368	-22.6907	22.4613
 337	1	1	-0.099966	24.5201	-22.1223	21.7149
 338	1	1	-0.017311	23.1502	-22.26	22.0073
 339	1	1	-0.020587	25.327	-23.5521	23.5585
 340	1	2	-0.042503	25.4527	-21.2042	20.9495
 341	1	2	0.004295	26.6198	-21.8325	21.8251
 342	1	3	0.00226	27.1601	-20.6009	22.6023
 343	1	3	-0.145049	25.8845	-19.7548	22.8195
 344	1	3	0.011953	27.9271	-19.6299	21.6537
 345	1	3	0.014921	26.7704	-19.0307	20.7476
 346	1	3	0.025749	25.491	-19.706	21.3249
 347	1	3	0.154129	26.4065	-24.0858	24.4947
 348	1	3	-0.203386	27.7032	-24.4711	23.7478
 349	1	3	-0.113237	26.7013	-23.0942	25.6405
 350	1	3	0.129534	22.068	-21.4286	21.3247
 351	1	3	-0.091829	21.7131	-20.173	22.1502
 352	1	3	-0.19809	20.8027	-22.2514	20.9952
 353	1	4	0.228684	22.211	-24.4449	29.6554
 354	1	5	0.042843	19.7987	-24.5179	25.1974
 355	1	4	0.232532	18.6197	-21.7964	27.2053
 356	1	5	0.035382	21.6897	-25.7873	26.4225
 357	1	5	0.041247	23.8265	-24.0911	26.7649
 358	1	5	0.06146	21.1113	-24.4115	23.3969
 359	1	5	0.068364	23.0274	-25.6248	24.6472
 360	1	5	0.055799	23.2182	-21.8745	25.3801
 361	1	5	0.04347	22.1779	-21.9838	26.8196
 362	1	5	0.076294	20.644	-21.9898	24.6268
 363	1	5	0.058767	25.4806	-21.3869	19.8716
 364	1	5	0.056756	27.3974	-22.3927	21.2994
 365	1	5	0.029415	27.7137	-20.8356	23.5179
 366	1	5	0.049793	26.0971	-18.76	23.2361
 367	1	5	0.063468	25.1364	-20.2441	23.4571
 368	1	5	-0.012542	28.5075	-18.848	22.161
 369	1	5	-0.012458	26.7591	-17.9328	20.7628
 370	1	5	0.013933	24.5696	-19.1516	21.1111
 371	1	5	0.014892	26.0221	-25.0051	24.9556
 372	1	5	0.04353	28.4003	-24.9824	24.4232
 373	1	5	0.048722	28.2113	-23.5858	23.3477
 374	1	5	0.053734	27.4819	-25.1483	22.913
 375	1	5	0.029251	27.1294	-22.1618	25.2584
 376	1	5	0.025572	27.4117	-23.5273	26.3557
 377	1	5	0.023611	25.7839	-22.8429	26.1855
 378	1	5	0.021405	22.4743	-21.0778	20.3669
 379	1	5	0.009991	21.0085	-19.5345	21.6026
 380	1	5	0.026343	22.6096	-19.5798	22.3646
 381	1	5	0.026093	21.2541	-20.4419	23.1068
 382	1	5	0.043016	20.107	-21.6618	20.3852
 383	1	5	0.050907	20.2755	-22.5556	21.907
 384	1	5	0.051325	21.0656	-23.155	20.4308
 385	1	1	-0.439951	23.1886	-11.7845	34.063
 386	1	1	0.043044	23.5616	-13.0864	33.6837
 387	1	1	0.126458	24.4658	-12.2459	36.1148
 388	1	1	0.016683	24.4504	-13.8614	34.4172
 389	1	1	0.121946	23.5972	-11.4592	35.3707
 390	1	2	0.005505	24.883	-14.68	33.2145
 391	1	1	-0.445809	25.0404	-13.4321	35.6194
 392	1	2	0.001585	23.8593	-13.8032	32.3795
 393	1	3	0.031166	22.7969	-14.8297	31.9038
 394	1	2	-0.048351	24.7027	-16.3941	31.6455
 395	1	1	-0.041771	24.0748	-17.5991	30.9596
 396	1	2	-0.107179	23.6636	-15.5175	30.8164
 397	1	3	-0.106774	22.7721	-15.8842	33.0468
 398	1	3	-0.025838	24.3085	-16.1165	33.1228
 399	1	1	-0.051955	23.1625	-16.8355	30.2498
 400	1	1	-0.09124	22.0107	-18.769	29.632
 401	1	1	-0.099966	22.9482	-19.5322	30.3092
 402	1	1	-0.017311	23.9714	-18.9978	31.1164
 403	1	1	-0.020587	22.0013	-17.3563	29.6426
 404	1	2	-0.042503	22.1368	-20.8095	30.2071
 405	1	2	0.004295	21.0561	-19.9428	29.4344
 406	1	3	0.00226	19.8095	-20.0573	30.3517
 407	1	3	-0.145049	20.4397	-20.0932	31.7637
 408	1	3	0.011953	19.2086	-21.4946	30.3206
 409	1	3	0.014921	20.3027	-22.3487	31.0937
 410	1	3	0.025749	21.3754	-21.2885	31.467
 411	1	3	0.154129	20.8917	-16.464	29.0903
 412	1	3	-0.203386	20.3133	-16.9937	27.7594
 413	1	3	-0.113237	19.7678	-16.2162	30.1204
 414	1	3	0.129534	24.8314	-19.8662	32.0327
 415	1	3	-0.091829	24.3012	-19.9063	33.4829
 416	1	3	-0.19809	26.3228	-19.4645	31.9999
 417	1	4	0.228684	22.7836	-11.0556	33.3687
 418	1	5	0.042843	25.95	-14.6112	32.972
 419	1	4	0.232532	25.9469	-13.8677	36.0271
 420	1	5	0.035382	24.2492	-13.1625	31.5799
 421	1	5	0.041247	21.8345	-14.4135	31.5851
 422	1	5	0.06146	25.7662	-16.2422	31.4252
 423	1	5	0.068364	24.0787	-14.829	30.0707
 424	1	5	0.055799	22.2173	-16.7924	32.7778
 425	1	5	0.04347	22.3517	-15.4909	33.9813
 426	1	5	0.076294	24.6698	-16.8159	33.8822
 427	1	5	0.058767	22.6173	-21.6179	29.6465
 428	1	5	0.056756	20.86	-20.2171	28.3925
 429	1	5	0.029415	19.0517	-19.282	30.2061
 430	1	5	0.049793	19.7067	-20.3107	32.5535
 431	1	5	0.063468	20.9722	-19.1715	32.0322
 432	1	5	-0.012542	18.2125	-21.5885	30.773
 433	1	5	-0.012458	19.8774	-22.8958	31.9455
 434	1	5	0.013933	22.011	-21.5965	32.3046
 435	1	5	0.014892	21.3391	-15.4858	28.8701
 436	1	5	0.04353	19.6183	-16.2655	27.323
 437	1	5	0.048722	19.7683	-17.9334	27.9073
 438	1	5	0.053734	21.1167	-17.1726	27.0337
 439	1	5	0.029251	20.1769	-15.8933	31.0835
 440	1	5	0.025572	19.1785	-17.1192	30.2981
 441	1	5	0.023611	19.0842	-15.4356	29.7642
 442	1	5	0.021405	24.7762	-20.8939	31.6501
 443	1	5	0.009991	24.4808	-18.9631	34.0042
 444	1	5	0.026343	24.8004	-20.7004	34.0521
 445	1	5	0.026093	23.2234	-20.0997	33.5064
 446	1	5	0.043016	26.4794	-18.4751	32.4457
 447	1	5	0.050907	26.6928	-19.4388	30.9671
 448	1	5	0.051325	26.9301	-20.1869	32.5593
 449	1	1	-0.439951	23.3073	-5.82232	45.5979
 450	1	1	0.043044	22.0567	-6.26019	45.1168
 451	1	1	0.126458	22.6668	-3.64978	44.6409
 452	1	1	0.016683	21.2108	-5.4625	44.3527
 453	1	1	0.121946	23.5044	-4.44063	45.4051
 454	1	2	0.005505	20.512	-6.64976	43.7106
 455	1	1	-0.445809	21.5239	-4.13956	43.9786
 456	1	2	0.001585	21.4789	-7.55928	44.5788
 457	1	3	0.031166	22.3172	-8.32562	43.5203
 458	1	2	-0.048351	20.2309	-8.395	42.1872
 459	1	1	-0.041771	20.5961	-9.30026	41.0202
 460	1	2	-0.107179	21.2048	-9.30792	43.0568
 461	1	3	-0.106774	22.4125	-7.32014	42.3379
 462	1	3	-0.025838	20.8951	-6.99037	42.2459
 463	1	1	-0.051955	21.443	-10.0917	41.7743
 464	1	1	-0.09124	22.2569	-11.0854	39.8238
 465	1	1	-0.099966	21.4042	-10.2914	39.0676
 466	1	1	-0.017311	20.5796	-9.2803	39.6115
 467	1	1	-0.020587	22.3961	-10.9732	41.2262
 468	1	2	-0.042503	22.1045	-10.6175	37.7557
 469	1	2	0.004295	23.0786	-11.526	38.6177
 470	1	3	0.00226	24.4622	-10.8621	38.3937
 471	1	3	-0.145049	24.0873	-9.36734	38.2989
 472	1	3	0.011953	24.9715	-11.0777	36.9383
 473	1	3	0.014921	23.9931	-10.1792	36.083
 474	1	3	0.025749	23.0607	-9.5546	37.159
 475	1	3	0.154129	23.4261	-11.7039	42.0862
 476	1	3	-0.203386	23.6817	-13.1515	41.6115
 477	1	3	-0.113237	24.7514	-10.9266	42.2152
 478	1	3	0.129534	19.7379	-8.28462	38.8133
 479	1	3	-0.091829	19.1133	-8.91166	37.5471
 480	1	3	-0.19809	20.5073	-6.9946	38.4633
 481	1	4	0.228684	24.0815	-6.49266	45.957
 482	1	5	0.042843	19.4391	-6.72033	43.9246
 483	1	4	0.232532	21.0198	-3.60422	43.1802
 484	1	5	0.035382	21.0111	-8.20106	45.3345
 485	1	5	0.041247	23.254	-8.76424	43.8807
 486	1	5	0.06146	19.168	-8.40304	42.4569
 487	1	5	0.068364	20.7499	-9.88757	43.8688
 488	1	5	0.055799	22.8082	-7.77518	41.4208
 489	1	5	0.04347	23.0252	-6.4435	42.5752
 490	1	5	0.076294	20.587	-6.25757	41.4928
 491	1	5	0.058767	21.4898	-11.127	37.0054
 492	1	5	0.056756	23.0675	-12.6004	38.4036
 493	1	5	0.029415	25.2216	-11.0989	39.1435
 494	1	5	0.049793	24.9339	-8.74163	38.0102
 495	1	5	0.063468	23.6595	-8.95406	39.2214
 496	1	5	-0.012542	26.0257	-10.8237	36.7717
 497	1	5	-0.012458	24.53	-9.45508	35.4573
 498	1	5	0.013933	22.5818	-8.63382	36.8157
 499	1	5	0.014892	23.0063	-11.7772	43.0981
 500	1	5	0.04353	24.186	-13.1694	40.6381
 501	1	5	0.048722	22.7361	-13.7004	41.5194
 502	1	5	0.053734	24.3156	-13.687	42.3292
 503	1	5	0.029251	25.3758	-11.3563	43.0083
 504	1	5	0.025572	24.5616	-9.87901	42.4626
 505	1	5	0.023611	25.3281	-10.9505	41.2877
 506	1	5	0.021405	18.9	-7.98447	39.4563
 507	1	5	0.009991	19.8796	-9.15781	36.8024
 508	1	5	0.026343	18.4043	-8.21555	37.0816
 509	1	5	0.026093	18.5687	-9.83065	37.7982
 510	1	5	0.043016	19.8252	-6.23244	38.0666
 511	1	5	0.050907	21.2798	-7.17462	37.712
 512	1	5	0.051325	20.9951	-6.58363	39.3501
 513	1	1	-0.439951	27.1765	-8.1583	33.8471
 514	1	1	0.043044	27.5605	-7.78803	35.1515
 515	1	1	0.126458	28.7018	-10.055	34.1239
 516	1	1	0.016683	28.3865	-8.59112	35.943
 517	1	1	0.121946	27.8815	-9.26339	33.339
 518	1	2	0.005505	27.673	-8.22135	37.2273
 519	1	1	-0.445809	28.9	-9.82406	35.4955
 520	1	2	0.001585	26.7372	-7.31032	36.3325
 521	1	3	0.031166	26.9803	-5.87887	36.8831
 522	1	2	-0.048351	27.1204	-6.9806	39.0906
 523	1	1	-0.041771	27.1476	-5.82444	40.0777
 524	1	2	-0.107179	26.1804	-6.075	38.2003
 525	1	3	-0.106774	28.4588	-5.91411	37.3517
 526	1	3	-0.025838	28.363	-7.21731	38.1895
 527	1	1	-0.051955	26.3144	-5.02968	39.2922
 528	1	1	-0.09124	25.5027	-3.94836	41.2307
 529	1	1	-0.099966	26.3456	-4.73241	42.0114
 530	1	1	-0.017311	27.1234	-5.78043	41.4879
 531	1	1	-0.020587	25.3696	-4.13986	39.8402
 532	1	2	-0.042503	25.4537	-4.64473	43.2363
 533	1	2	0.004295	24.5004	-3.7496	42.3591
 534	1	3	0.00226	24.4886	-2.40346	43.125
 535	1	3	-0.145049	25.9241	-2.32923	43.6912
 536	1	3	0.011953	23.7	-2.54643	44.4635
 537	1	3	0.014921	24.6612	-3.45359	45.3441
 538	1	3	0.025749	25.8692	-3.70479	44.3912
 539	1	3	0.154129	24.187	-3.63767	39.0133
 540	1	3	-0.203386	22.9392	-4.53172	39.1757
 541	1	3	-0.113237	23.8477	-2.15887	39.3
 542	1	3	0.129534	27.6975	-6.86331	42.4008
 543	1	3	-0.091829	29.1026	-7.3283	41.9602
 544	1	3	-0.19809	26.7427	-8.065	42.5605
 545	1	4	0.228684	26.2803	-7.77444	33.3707
 546	1	5	0.042843	27.2366	-9.08261	37.7437
 547	1	4	0.232532	29.2141	-10.609	36.1759
 548	1	5	0.035382	25.6754	-7.55993	36.2447
 549	1	5	0.041247	26.6804	-5.04225	36.2397
 550	1	5	0.06146	26.6992	-7.90432	39.5002
 551	1	5	0.068364	25.1496	-6.40496	38.0333
 552	1	5	0.055799	28.7312	-5.04024	37.9577
 553	1	5	0.04347	29.1661	-5.99764	36.5164
 554	1	5	0.076294	29.2817	-7.55873	38.6816
 555	1	5	0.058767	25.0768	-5.60667	43.592
 556	1	5	0.056756	23.4958	-4.12304	42.1531
 557	1	5	0.029415	24.1926	-1.53149	42.5294
 558	1	5	0.049793	26.0631	-1.497	44.3958
 559	1	5	0.063468	26.6984	-2.26199	42.9158
 560	1	5	-0.012542	23.4551	-1.59768	44.9589
 561	1	5	-0.012458	24.918	-2.98025	46.301
 562	1	5	0.013933	26.7934	-3.9897	44.9095
 563	1	5	0.014892	24.4792	-3.68942	37.9561
 564	1	5	0.04353	22.1632	-4.24444	38.4554
 565	1	5	0.048722	22.5112	-4.45004	40.1804
 566	1	5	0.053734	23.1911	-5.58398	39.0002
 567	1	5	0.029251	23.4399	-2.03173	40.309
 568	1	5	0.025572	23.1002	-1.78953	38.5869
 569	1	5	0.023611	24.7428	-1.53087	39.2078
 570	1	5	0.021405	27.818	-6.41996	43.3981
 571	1	5	0.009991	29.0602	-7.89399	41.0228
 572	1	5	0.026343	29.5503	-7.97768	42.7229
 573	1	5	0.026093	29.7684	-6.46805	41.8156
 574	1	5	0.043016	25.7454	-7.73346	42.8724
 575	1	5	0.050907	27.1203	-8.76027	43.3205
 576	1	5	0.051325	26.6385	-8.61823	41.6213
 577	1	1	-0.439951	36.5589	-11.163	26.0841
 578	1	1	0.043044	35.4037	-11.6871	25.4963
 579	1	1	0.126458	36.044	-9.07463	24.8778
 580	1	1	0.016683	34.5784	-10.9441	24.6945
 581	1	1	0.121946	36.9095	-9.83256	25.726
 582	1	2	0.005505	33.38	-11.8659	24.8849
 583	1	1	-0.445809	34.8338	-9.60824	24.376
 584	1	2	0.001585	34.3416	-12.7382	25.8022
 585	1	3	0.031166	33.5765	-12.8406	27.1601
 586	1	2	-0.048351	32.7798	-10.5237	26.8295
 587	1	1	-0.041771	31.9971	-10.2442	28.098
 588	1	2	-0.107179	33.7278	-11.4128	27.7467
 589	1	3	-0.106774	32.1064	-12.8509	26.6545
 590	1	3	-0.025838	32.1725	-11.539	25.822
 591	1	1	-0.051955	32.8151	-11.0199	28.8948
 592	1	1	-0.09124	31.4377	-10.5951	30.7101
 593	1	1	-0.099966	30.6167	-9.81887	29.9125
 594	1	1	-0.017311	30.7967	-9.64464	28.5236
 595	1	1	-0.020587	32.5564	-11.3157	30.2494
 596	1	2	-0.042503	29.5872	-9.60371	31.0107
 597	1	2	0.004295	30.5321	-10.5008	31.9224
 598	1	3	0.00226	29.6341	-11.7149	32.2682
 599	1	3	-0.145049	28.7817	-11.8788	30.9886
 600	1	3	0.011953	28.511	-11.2877	33.2573
 601	1	3	0.014921	27.5701	-10.3848	32.3608
 602	1	3	0.025749	28.2712	-10.4197	30.9708
 603	1	3	0.154129	33.3458	-12.2834	31.1241
 604	1	3	-0.203386	32.8418	-13.7319	30.9479
 605	1	3	-0.113237	34.8704	-12.195	30.8904
 606	1	3	0.129534	29.8453	-8.92301	27.5765
 607	1	3	-0.091829	29.2389	-7.64536	28.1979
 608	1	3	-0.19809	28.7401	-9.87273	27.0666
 609	1	4	0.228684	37.0928	-11.7186	26.8474
 610	1	5	0.042843	33.0428	-12.3798	23.9778
 611	1	4	0.232532	34.1104	-8.99194	23.8519
 612	1	5	0.035382	34.553	-13.7357	25.4017
 613	1	5	0.041247	33.8732	-13.6695	27.813
 614	1	5	0.06146	33.192	-9.61814	26.3772
 615	1	5	0.068364	34.7591	-11.0859	27.8976
 616	1	5	0.055799	31.3725	-12.8063	27.4701
 617	1	5	0.04347	31.8879	-13.7287	26.0316
 618	1	5	0.076294	31.2454	-11.2309	25.3237
 619	1	5	0.058767	29.4457	-8.56147	31.3173
 620	1	5	0.056756	30.9819	-10.023	32.7998
 621	1	5	0.029415	30.1741	-12.6179	32.5777
 622	1	5	0.049793	27.9712	-12.612	31.107
 623	1	5	0.063468	29.3684	-12.1494	30.1009
 624	1	5	-0.012542	27.9674	-12.1153	33.7325
 625	1	5	-0.012458	26.5288	-10.7341	32.3661
 626	1	5	0.013933	27.6	-10.1795	30.1385
 627	1	5	0.014892	33.1703	-12.0061	32.1718
 628	1	5	0.04353	31.7678	-13.797	31.1597
 629	1	5	0.048722	33.3642	-14.4122	31.6319
 630	1	5	0.053734	33.0041	-14.0849	29.9237
 631	1	5	0.029251	35.1443	-12.56	29.8936
 632	1	5	0.025572	35.4094	-12.8008	31.6294
 633	1	5	0.023611	35.2172	-11.1583	30.9856
 634	1	5	0.021405	30.4252	-8.60344	26.7006
 635	1	5	0.009991	28.5597	-7.88518	29.0246
 636	1	5	0.026343	28.6687	-7.08454	27.4468
 637	1	5	0.026093	30.0302	-6.98869	28.5809
 638	1	5	0.043016	29.1788	-10.7593	26.5932
 639	1	5	0.050907	28.1061	-9.37047	26.3255
 640	1	5	0.051325	28.1011	-10.2124	27.889
 641	1	1	-0.439951	48.2756	-13.1589	25.8851
 642	1	1	0.043044	47.6818	-13.0415	27.1431
 643	1	1	0.126458	47.4891	-15.495	25.8964
 644	1	1	0.016683	47.0018	-14.0666	27.7421
 645	1	1	0.121946	48.1923	-14.4266	25.2491
 646	1	2	0.005505	46.2527	-13.1537	28.7045
 647	1	1	-0.445809	46.846	-15.3184	27.1442
 648	1	2	0.001585	47.0371	-11.9626	28.0042
 649	1	3	0.031166	45.9023	-11.0122	27.5046