pySIMM System Object

1634 atoms
1867 bonds
3900 angles
7098 dihedrals
100 impropers

5 atom types
9 bond types
18 angle types
19 dihedral types
2 improper types

-160.724840 160.724840 xlo xhi
-160.724840 160.724840 ylo yhi
-160.724840 160.724840 zlo zhi

Masses

   1	12.01	# ca
   2	12.01	# cy
   3	12.01	# c3
   4	1.008	# ha
   5	1.008	# hc

Pair Coeffs

   1	0.086	3.3996695084235347	# ca
   2	0.086	3.3996695084235347	# cy
   3	0.1094	3.3996695084235347	# c3
   4	0.015	2.59964245953351	# ha
   5	0.0157	2.649532787749369	# hc

Bond Coeffs

   1	300.9	1.5375	# c3,c3
   2	305.9	1.5319	# c3,cy
   3	345.8	1.086	# ca,ha
   4	321.0	1.5156	# c3,ca
   5	285.0	1.5562	# cy,cy
   6	330.6	1.0969	# c3,hc
   7	333.3	1.0949	# cy,hc
   8	321.2	1.5154	# ca,cy
   9	461.1	1.3984	# ca,ca

Angle Coeffs

   1	66.62	120.02	# ca,ca,ca
   2	61.4	116.81	# ca,cy,cy
   3	44.83	114.79	# cy,cy,hc
   4	46.43	110.14	# c3,cy,hc
   5	63.15	112.07	# c3,c3,ca
   6	46.34	109.8	# c3,c3,hc
   7	39.4	107.58	# hc,c3,hc
   8	48.18	119.88	# ca,ca,ha
   9	63.53	120.77	# c3,ca,ca
  10	60.66	118.7	# c3,cy,cy
  11	63.51	120.86	# ca,ca,cy
  12	62.73	112.39	# c3,c3,cy
  13	46.29	110.75	# cy,c3,hc
  14	46.8	110.47	# ca,c3,hc
  15	62.8	113.57	# c3,cy,ca
  16	62.86	111.51	# c3,c3,c3
  17	67.9	96.03	# cy,c3,cy
  18	45.97	114.53	# ca,cy,hc

Dihedral Coeffs

   1	1	0.16	3	0.0	# hc,c3,cy,cy
   2	1	0.16	3	0.0	# cy,c3,cy,hc
   3	1	0.16	3	0.0	# c3,c3,cy,hc
   4	1	0.15	3	0.0	# hc,c3,cy,hc
   5	1	3.625	2	180	# X,ca,ca,X
   6	1	0.15555555555555556	3	0	# X,cy,cy,X
   7	3	0.18	3	0	0.25	2	180	0.2	1	180	# c3,c3,c3,c3
   8	1	0.16	3	0	# hc,c3,c3,c3
   9	1	0.0	2	0.0	# ca,ca,cy,cy
  10	1	0.0	2	0.0	# ca,ca,cy,c3
  11	1	0.15555555555555556	3	0	# X,c3,c3,X
  12	1	0.0	2	0	# X,c3,ca,X
  13	3	0.38	3	180.0	0.0	2	0.0	1.15	1	0.0	# ca,ca,cy,hc
  14	3	0.18	3	0.0	0.25	2	180.0	0.2	1	180.0	# cy,c3,cy,cy
  15	1	0.16	3	0.0	# cy,c3,cy,ca
  16	1	0.16	3	0.0	# c3,c3,cy,ca
  17	1	0.16	3	0.0	# hc,c3,cy,ca
  18	1	0.15	3	0	# hc,c3,c3,hc
  19	3	0.18	3	0.0	0.25	2	180.0	0.2	1	180.0	# c3,c3,cy,cy

Improper Coeffs

   1	1.1	-1	2	# ca,ca,ca,c3
   2	1.1	-1	2	# ca,X,X,ha

Atoms

   1	1	1	-0.439951	16.4547	41.0933	23.3342
   2	1	1	0.043044	17.718	41.6031	22.9719
   3	1	1	0.126458	15.8475	43.4237	23.7766
   4	1	1	0.016683	18.0552	42.9481	23.1195
   5	1	1	0.121946	15.5011	42.0909	23.612
   6	1	2	0.005505	19.5234	42.6529	23.3621
   7	1	1	-0.445809	17.1653	43.8968	23.6567
   8	1	2	0.001585	19.1448	41.1265	23.1939
   9	1	3	0.031166	19.4737	40.51	24.5801
  10	1	2	-0.048351	21.3927	42.0775	24.6272
  11	1	1	-0.041771	22.1589	41.6403	25.8677
  12	1	2	-0.107179	21.0206	40.54	24.4455
  13	1	3	-0.106774	19.1866	41.6735	25.5718
  14	1	3	-0.025838	20.0155	42.7616	24.8305
  15	1	1	-0.051955	21.8364	40.3031	25.7038
  16	1	1	-0.09124	22.6985	39.8253	27.8141
  17	1	1	-0.099966	23.0363	41.1592	27.9711
  18	1	1	-0.017311	22.6834	42.1776	27.0639
  19	1	1	-0.020587	21.977	39.3255	26.7085
  20	1	2	-0.042503	23.4057	41.0023	29.4356
  21	1	2	0.004295	23.0186	39.4741	29.2607
  22	1	3	0.00226	21.8592	39.3057	30.2705
  23	1	3	-0.145049	21.1383	40.6685	30.2146
  24	1	3	0.011953	22.4574	39.3701	31.699
  25	1	3	0.014921	22.83	40.8695	31.8651
  26	1	3	0.025749	22.4088	41.492	30.5104
  27	1	3	0.154129	21.3911	37.9216	26.5801
  28	1	3	-0.203386	22.3412	36.8301	27.1205
  29	1	3	-0.113237	19.9964	37.8137	27.2344
  30	1	3	0.129534	22.8436	43.6612	27.3881
  31	1	3	-0.091829	21.5562	44.2638	27.9931
  32	1	3	-0.19809	23.3256	44.489	26.176
  33	1	4	0.228684	16.287	40.0454	23.5609
  34	1	5	0.042843	20.2075	43.0825	22.6209
  35	1	4	0.232532	17.4974	44.8241	24.1121
  36	1	5	0.035382	19.5892	40.5934	22.3454
  37	1	5	0.041247	19.0112	39.5409	24.7993
  38	1	5	0.06146	22.0114	42.5339	23.8453
  39	1	5	0.068364	21.4055	40.0371	23.5503
  40	1	5	0.055799	19.5572	41.4714	26.5851
  41	1	5	0.04347	18.1201	41.9215	25.6422
  42	1	5	0.076294	20.0143	43.7693	25.258
  43	1	5	0.058767	24.4503	41.2148	29.6889
  44	1	5	0.056756	23.8264	38.7488	29.4083
  45	1	5	0.029415	21.2199	38.4317	30.1103
  46	1	5	0.049793	20.3684	40.7772	30.9912
  47	1	5	0.063468	20.6898	40.8882	29.2367
  48	1	5	-0.012542	23.3308	38.714	31.8078
  49	1	5	-0.012458	23.9001	41.0086	32.0665
  50	1	5	0.013933	22.2633	42.5774	30.5537
  51	1	5	0.014892	21.2562	37.7181	25.5097
  52	1	5	0.04353	23.3322	36.9171	26.6574
  53	1	5	0.048722	21.9489	35.8306	26.8953
  54	1	5	0.053734	22.4612	36.908	28.2074
  55	1	5	0.029251	19.3268	38.5987	26.867
  56	1	5	0.025572	20.0552	37.9112	28.3219
  57	1	5	0.023611	19.5372	36.8435	27.0073
  58	1	5	0.021405	23.6241	43.7465	28.1556
  59	1	5	0.009991	21.734	45.2903	28.3377
  60	1	5	0.026343	21.2109	43.6758	28.8502
  61	1	5	0.026093	20.7431	44.2905	27.2628
  62	1	5	0.043016	22.5599	44.5353	25.3928
  63	1	5	0.050907	24.2336	44.0492	25.7447
  64	1	5	0.051325	23.5592	45.5171	26.4796
  65	1	1	-0.439951	6.63419	47.3375	18.8844
  66	1	1	0.043044	6.09696	46.6521	19.992
  67	1	1	0.126458	5.75675	45.4433	17.5792
  68	1	1	0.016683	5.5802	45.3629	19.9079
  69	1	1	0.121946	6.34549	46.6896	17.67
  70	1	2	0.005505	5.88712	45.0361	21.3604
  71	1	1	-0.445809	5.45545	44.647	18.7008
  72	1	2	0.001585	6.43575	46.5221	21.4633
  73	1	3	0.031166	7.93031	46.3548	21.8231
  74	1	2	-0.048351	7.21129	44.42	23.1796
  75	1	1	-0.041771	8.49012	44.0515	23.9175
  76	1	2	-0.107179	7.71413	45.9267	23.3002
  77	1	3	-0.106774	8.32216	45.0276	21.1129
  78	1	3	-0.025838	7.14623	44.1656	21.6507
  79	1	1	-0.051955	8.91011	45.3648	24.0448
  80	1	1	-0.09124	10.9388	44.6343	24.9055
  81	1	1	-0.099966	10.5474	43.3175	24.7296
  82	1	1	-0.017311	9.32629	42.9361	24.1306
  83	1	1	-0.020587	10.2018	45.7469	24.4609
  84	1	2	-0.042503	11.9294	42.7611	25.0566
  85	1	2	0.004295	12.3664	44.2768	25.2623
  86	1	3	0.00226	13.469	44.4753	24.1993
  87	1	3	-0.145049	12.985	43.5681	23.0429
  88	1	3	0.011953	14.7045	43.7038	24.731
  89	1	3	0.014921	14.2957	42.1905	24.5349
  90	1	3	0.025749	12.8693	42.2956	23.9145
  91	1	3	0.154129	10.7729	47.1628	24.4376
  92	1	3	-0.203386	11.3998	47.5104	23.0692
  93	1	3	-0.113237	9.73907	48.2305	24.8582
  94	1	3	0.129534	8.93879	41.5188	23.7198
  95	1	3	-0.091829	9.37096	40.459	24.7574
  96	1	3	-0.19809	9.47797	41.1711	22.315
  97	1	4	0.228684	7.29189	48.1969	18.9665
  98	1	5	0.042843	5.01202	44.7867	21.9718
  99	1	4	0.232532	5.26752	43.5795	18.6473
 100	1	5	0.035382	5.8882	47.2118	22.1164
 101	1	5	0.041247	8.56472	47.2273	21.6379
 102	1	5	0.06146	6.28977	44.1605	23.7144
 103	1	5	0.068364	7.09294	46.6134	23.8877
 104	1	5	0.055799	9.3062	44.6537	21.4244
 105	1	5	0.04347	8.31645	45.108	20.0207
 106	1	5	0.076294	7.10492	43.1201	21.3225
 107	1	5	0.058767	11.984	42.1175	25.9417
 108	1	5	0.056756	12.6863	44.5594	26.2716
 109	1	5	0.029415	13.68	45.515	23.9237
 110	1	5	0.049793	13.7077	43.4752	22.222
 111	1	5	0.063468	12.028	43.886	22.6087
 112	1	5	-0.012542	15.0172	43.9521	25.7541
 113	1	5	-0.012458	14.3717	41.5884	25.4501
 114	1	5	0.013933	12.5533	41.3931	23.3797
 115	1	5	0.014892	11.5829	47.2026	25.1777
 116	1	5	0.04353	12.128	46.7506	22.7655
 117	1	5	0.048722	11.9174	48.4766	23.1147
 118	1	5	0.053734	10.64	47.5716	22.2852
 119	1	5	0.029251	8.94037	48.3288	24.1136
 120	1	5	0.025572	10.2195	49.2109	24.9667
 121	1	5	0.023611	9.2827	47.9693	25.8213
 122	1	5	0.021405	7.84317	41.4766	23.6636
 123	1	5	0.009991	10.4626	40.3664	24.8047
 124	1	5	0.026343	8.96183	39.4749	24.4967
 125	1	5	0.026093	9.00384	40.7236	25.757
 126	1	5	0.043016	10.5726	41.1545	22.3033
 127	1	5	0.050907	9.14837	41.9098	21.5754
 128	1	5	0.051325	9.1191	40.1856	21.9932
 129	1	1	-0.439951	12.5119	42.9442	9.64229
 130	1	1	0.043044	13.4104	42.8895	10.7313
 131	1	1	0.126458	13.5055	45.1428	9.18776
 132	1	1	0.016683	14.2121	43.9721	11.0971
 133	1	1	0.121946	12.683	44.0893	8.83953
 134	1	2	0.005505	14.1927	43.6129	12.5733
 135	1	1	-0.445809	14.2272	45.1938	10.394
 136	1	2	0.001585	13.3114	42.3658	12.1582
 137	1	3	0.031166	11.9641	42.5952	12.8878
 138	1	2	-0.048351	13.2821	43.5556	14.7279
 139	1	1	-0.041771	12.2121	43.8227	15.7739
 140	1	2	-0.107179	12.4358	42.2692	14.3368
 141	1	3	-0.106774	11.8358	44.1416	12.8925
 142	1	3	-0.025838	13.2417	44.454	13.4682
 143	1	1	-0.051955	11.5008	42.6663	15.4733
 144	1	1	-0.09124	9.63136	43.5363	16.5787
 145	1	1	-0.099966	10.2867	44.7438	16.7484
 146	1	1	-0.017311	11.6069	44.9803	16.3094
 147	1	1	-0.020587	10.1426	42.4751	15.809
 148	1	2	-0.042503	8.99908	45.5176	17.0353
 149	1	2	0.004295	8.26799	44.1171	16.8893
 150	1	3	0.00226	7.29305	44.3232	15.7077
 151	1	3	-0.145049	8.08249	45.292	14.8014
 152	1	3	0.011953	6.12821	45.2642	16.1172
 153	1	3	0.014921	6.8354	46.6804	16.2333
 154	1	3	0.025749	8.32447	46.3489	15.901
 155	1	3	0.154129	9.28298	41.2702	15.4254
 156	1	3	-0.203386	8.7544	41.3171	13.9763
 157	1	3	-0.113237	10.0017	39.9333	15.7089
 158	1	3	0.129534	12.343	46.3161	16.3837
 159	1	3	-0.091829	12.3405	46.8854	17.8195
 160	1	3	-0.19809	11.8212	47.3601	15.3766
 161	1	4	0.228684	11.674	42.2639	9.52889
 162	1	5	0.042843	15.1724	43.4053	13.019
 163	1	4	0.232532	14.6095	46.1183	10.8145
 164	1	5	0.035382	13.7455	41.3723	12.3194
 165	1	5	0.041247	11.1136	42.0402	12.4865
 166	1	5	0.06146	14.2889	43.388	15.1288
 167	1	5	0.068364	12.928	41.296	14.4486
 168	1	5	0.055799	11.0179	44.5046	13.5216
 169	1	5	0.04347	11.6963	44.5509	11.8947
 170	1	5	0.076294	13.5002	45.5113	13.6005
 171	1	5	0.058767	8.95567	46.0057	18.0128
 172	1	5	0.056756	7.79575	43.7061	17.7865
 173	1	5	0.029415	6.95876	43.4029	15.2143
 174	1	5	0.049793	7.48703	45.6735	13.9621
 175	1	5	0.063468	9.00457	44.8632	14.3972
 176	1	5	-0.012542	5.28101	45.2802	15.4187
 177	1	5	-0.012458	6.37138	47.4323	15.5817
 178	1	5	0.013933	8.88086	47.2245	15.5578
 179	1	5	0.014892	8.39859	41.2891	16.0758
 180	1	5	0.04353	9.48484	40.9077	13.2728
 181	1	5	0.048722	8.51385	42.3431	13.6763
 182	1	5	0.053734	7.84394	40.7121	13.8841
 183	1	5	0.029251	10.3314	39.8869	16.7545
 184	1	5	0.025572	10.8831	39.8126	15.067
 185	1	5	0.023611	9.32954	39.0853	15.5274
 186	1	5	0.021405	13.3926	46.1273	16.1238
 187	1	5	0.009991	11.3228	47.1321	18.1475
 188	1	5	0.026343	12.9473	47.7976	17.8767
 189	1	5	0.026093	12.7581	46.1556	18.5247
 190	1	5	0.043016	10.9213	47.8476	15.7598
 191	1	5	0.050907	11.5879	46.901	14.408
 192	1	5	0.051325	12.5716	48.1433	15.2127
 193	1	1	-0.439951	4.25114	52.7353	12.5848
 194	1	1	0.043044	4.32019	51.4015	13.0365
 195	1	1	0.126458	2.20155	52.0246	11.4285
 196	1	1	0.016683	3.43686	50.411	12.6167
 197	1	1	0.121946	3.08566	53.0073	11.8395
 198	1	2	0.005505	4.43681	49.2845	12.8458
 199	1	1	-0.445809	2.38536	50.654	11.7087
 200	1	2	0.001585	5.44128	50.4155	13.3245
 201	1	3	0.031166	6.60433	50.3419	12.2979
 202	1	2	-0.048351	6.24755	47.8918	12.3424
 203	1	1	-0.041771	7.40559	47.3852	11.4981
 204	1	2	-0.107179	7.24934	49.0336	12.8229
 205	1	3	-0.106774	5.90456	49.8768	10.9915
 206	1	3	-0.025838	5.1328	48.672	11.5962
 207	1	1	-0.051955	8.27383	48.3796	11.9107
 208	1	1	-0.09124	9.97626	47.3982	10.6771
 209	1	1	-0.099966	9.11805	46.3825	10.2858
 210	1	1	-0.017311	7.77563	46.2801	10.7094
 211	1	1	-0.020587	9.63981	48.4346	11.5686
 212	1	2	-0.042503	10.2408	45.5203	9.71953
 213	1	2	0.004295	11.2155	46.6993	10.1568
 214	1	3	0.00226	11.8192	47.175	8.81093
 215	1	3	-0.145049	10.6573	46.9391	7.82328
 216	1	3	0.011953	12.82	46.1216	8.25084
 217	1	3	0.014921	11.8766	44.913	7.84049
 218	1	3	0.025749	10.4519	45.4539	8.18811
 219	1	3	0.154129	10.673	49.4202	12.113
 220	1	3	-0.203386	10.9911	50.5107	11.0694
 221	1	3	-0.113237	10.2716	50.0678	13.4565
 222	1	3	0.129534	6.83955	45.111	10.4254
 223	1	3	-0.091829	7.3738	43.7865	11.0113
 224	1	3	-0.19809	6.54185	44.979	8.91696
 225	1	4	0.228684	5.0842	53.4276	12.6517
 226	1	5	0.042843	4.13172	48.5452	13.5957
 227	1	4	0.232532	1.88805	49.866	11.1522
 228	1	5	0.035382	5.76336	50.3813	14.3719
 229	1	5	0.041247	7.25587	51.2207	12.2255
 230	1	5	0.06146	5.86985	47.184	13.0891
 231	1	5	0.068364	7.51967	49.0599	13.8849
 232	1	5	0.055799	6.60973	49.5889	10.201
 233	1	5	0.04347	5.23749	50.6352	10.5867
 234	1	5	0.076294	4.50062	48.0929	10.9128
 235	1	5	0.058767	10.3483	44.5417	10.1919
 236	1	5	0.056756	11.9749	46.5136	10.9196
 237	1	5	0.029415	12.2124	48.1987	8.81367
 238	1	5	0.049793	10.9568	47.0771	6.77487
 239	1	5	0.063468	9.77841	47.5645	8.02522
 240	1	5	-0.012542	13.4371	46.4713	7.4124
 241	1	5	-0.012458	12.0126	44.6243	6.78975
 242	1	5	0.013933	9.64867	44.9604	7.62882
 243	1	5	0.014892	11.5997	48.8605	12.2952
 244	1	5	0.04353	10.1029	51.1183	10.8638
 245	1	5	0.048722	11.323	50.0631	10.1251
 246	1	5	0.053734	11.7863	51.1755	11.4288
 247	1	5	0.029251	11.1141	50.6273	13.8817
 248	1	5	0.025572	9.9722	49.3048	14.1835
 249	1	5	0.023611	9.43661	50.7665	13.3278
 250	1	5	0.021405	5.88277	45.316	10.9231
 251	1	5	0.009991	8.29058	43.4644	10.504
 252	1	5	0.026343	6.62981	42.9875	10.9031
 253	1	5	0.026093	7.59409	43.9012	12.0791
 254	1	5	0.043016	7.44634	44.7142	8.35818
 255	1	5	0.050907	6.15705	45.9248	8.51551
 256	1	5	0.051325	5.78964	44.2012	8.73569
 257	1	1	-0.439951	10.1196	46.8177	3.61423
 258	1	1	0.043044	9.75307	48.0739	4.12354
 259	1	1	0.126458	12.4128	47.7031	3.59485
 260	1	1	0.016683	10.6845	49.0515	4.47532
 261	1	1	0.121946	11.4765	46.7356	3.27008
 262	1	2	0.005505	9.82024	49.5938	5.605
 263	1	1	-0.445809	12.0755	48.8521	4.3381
 264	1	2	0.001585	8.77402	48.4742	5.20106
 265	1	3	0.031166	7.52013	49.2658	4.75493
 266	1	2	-0.048351	8.10239	50.7918	6.60503
 267	1	1	-0.041771	6.89402	51.714	6.69313
 268	1	2	-0.107179	7.07903	49.6661	6.18278
 269	1	3	-0.106774	8.10583	50.5824	4.17553
 270	1	3	-0.025838	9.04001	50.9187	5.37033
 271	1	1	-0.051955	6.00037	50.722	6.30781
 272	1	1	-0.09124	4.27656	51.7692	7.53608
 273	1	1	-0.099966	5.17355	52.7628	7.94038
 274	1	1	-0.017311	6.54955	52.7143	7.62079
 275	1	1	-0.020587	4.68447	50.6427	6.7915
 276	1	2	-0.042503	4.46689	52.9784	9.26935
 277	1	2	0.004295	3.45968	51.8613	8.81047
 278	1	3	0.00226	2.09605	52.5889	8.81128
 279	1	3	-0.145049	2.48576	54.0198	8.38533
 280	1	3	0.011953	1.64799	52.8633	10.2812
 281	1	3	0.014921	2.66172	53.9885	10.7516
 282	1	3	0.025749	3.55149	54.2058	9.48519
 283	1	3	0.154129	3.89338	49.337	6.68497
 284	1	3	-0.203386	4.04422	48.4325	7.92963
 285	1	3	-0.113237	2.40468	49.5741	6.3515
 286	1	3	0.129534	7.63632	53.4952	8.36103
 287	1	3	-0.091829	8.01024	52.8606	9.71878
 288	1	3	-0.19809	7.28282	54.9893	8.52545
 289	1	4	0.228684	9.47648	45.9458	3.67528
 290	1	5	0.042843	10.2922	49.5404	6.59247
 291	1	4	0.232532	12.8082	49.4105	4.91174
 292	1	5	0.035382	8.55503	47.6725	5.91556
 293	1	5	0.041247	6.78651	48.73	4.13957
 294	1	5	0.06146	8.64287	50.6648	7.55058
 295	1	5	0.068364	6.94828	48.812	6.85751
 296	1	5	0.055799	7.33871	51.3495	4.00764
 297	1	5	0.04347	8.65448	50.4267	3.2376
 298	1	5	0.076294	9.63579	51.8367	5.29229
 299	1	5	0.058767	5.09275	52.7855	10.1378
 300	1	5	0.056756	3.42356	50.9317	9.37344
 301	1	5	0.029415	1.3193	52.1265	8.19048
 302	1	5	0.049793	1.65397	54.7329	8.47191
 303	1	5	0.063468	2.89533	54.0763	7.36812
 304	1	5	-0.012542	0.600774	53.1729	10.3951
 305	1	5	-0.012458	2.14554	54.8876	11.1132
 306	1	5	0.013933	4.06028	55.177	9.46324
 307	1	5	0.014892	4.31095	48.775	5.83913
 308	1	5	0.04353	3.48305	48.8253	8.78315
 309	1	5	0.048722	5.09593	48.3397	8.22508
 310	1	5	0.053734	3.66313	47.4256	7.71889
 311	1	5	0.029251	2.30352	50.2229	5.47236
 312	1	5	0.025572	1.87875	50.0452	7.1892
 313	1	5	0.023611	1.90232	48.624	6.13073
 314	1	5	0.021405	8.54127	53.4591	7.74018
 315	1	5	0.009991	8.15602	51.7785	9.61828
 316	1	5	0.026343	7.23593	53.0321	10.4731
 317	1	5	0.026093	8.94278	53.295	10.0998
 318	1	5	0.043016	8.13496	55.5461	8.93476
 319	1	5	0.050907	6.43393	55.1245	9.20484
 320	1	5	0.051325	7.02115	55.4329	7.55659
 321	1	1	-0.439951	20.0552	42.2034	-3.32822
 322	1	1	0.043044	18.9192	42.6621	-4.02852
 323	1	1	0.126458	18.9185	40.0272	-3.3278
 324	1	1	0.016683	17.8228	41.8487	-4.30933
 325	1	1	0.121946	20.0346	40.8106	-3.10684
 326	1	2	0.005505	16.8629	43.0144	-4.38874
 327	1	1	-0.445809	17.7137	40.5182	-3.8576
 328	1	2	0.001585	18.097	43.9487	-4.05345
 329	1	3	0.031166	17.7087	44.5894	-2.68712
 330	1	2	-0.048351	15.3862	44.5858	-3.54902
 331	1	1	-0.041771	14.6069	45.3213	-2.47727
 332	1	2	-0.107179	16.5998	45.5542	-3.19827
 333	1	3	-0.106774	16.886	43.4721	-1.99352
 334	1	3	-0.025838	15.9183	43.1815	-3.17766
 335	1	1	-0.051955	15.6586	46.1707	-2.16759
 336	1	1	-0.09124	14.5074	46.904	-0.268278
 337	1	1	-0.099966	13.4792	46.0283	-0.572716
 338	1	1	-0.017311	13.499	45.1051	-1.63204
 339	1	1	-0.020587	15.728	46.9362	-0.982552
 340	1	2	-0.042503	12.7791	46.2093	0.755895
 341	1	2	0.004295	13.9286	47.2468	1.10515
 342	1	3	0.00226	14.5619	46.637	2.3797
 343	1	3	-0.145049	14.488	45.1206	2.08366
 344	1	3	0.011953	13.5739	46.7132	3.58768
 345	1	3	0.014921	12.4939	45.62	3.21606
 346	1	3	0.025749	12.9632	45.1055	1.83198
 347	1	3	0.154129	16.996	47.6667	-0.547407
 348	1	3	-0.203386	16.7014	49.0587	0.0544663
 349	1	3	-0.113237	17.8516	46.8164	0.417601
 350	1	3	0.129534	12.426	44.0292	-1.80007
 351	1	3	-0.091829	12.8039	42.6923	-1.12186
 352	1	3	-0.19809	12.0277	43.809	-3.27642
 353	1	4	0.228684	20.7889	42.8659	-2.88035
 354	1	5	0.042843	16.384	43.1476	-5.366
 355	1	4	0.232532	16.7722	39.9824	-3.79168
 356	1	5	0.035382	18.3904	44.6748	-4.82026
 357	1	5	0.041247	18.5287	45.0333	-2.11106
 358	1	5	0.06146	14.962	44.6632	-4.55739
 359	1	5	0.068364	16.9328	46.2375	-3.98829
 360	1	5	0.055799	16.3695	43.8153	-1.08779
 361	1	5	0.04347	17.5078	42.6163	-1.72589
 362	1	5	0.076294	15.1857	42.382	-3.04378
 363	1	5	0.058767	11.7571	46.598	0.687905
 364	1	5	0.056756	13.6219	48.2907	1.2349
 365	1	5	0.029415	15.5616	47.0104	2.62453
 366	1	5	0.049793	14.786	44.5032	2.94307
 367	1	5	0.063468	15.08	44.8103	1.2127
 368	1	5	-0.012542	14.0296	46.5259	4.56908
 369	1	5	-0.012458	12.3882	44.8498	3.99184
 370	1	5	0.013933	12.544	44.1268	1.57618
 371	1	5	0.014892	17.604	47.8359	-1.44582
 372	1	5	0.04353	17.6343	49.6066	0.236483
 373	1	5	0.048722	16.167	48.9772	1.00817
 374	1	5	0.053734	16.0879	49.6541	-0.633376
 375	1	5	0.029251	17.3408	46.6552	1.3709
 376	1	5	0.025572	18.8078	47.3122	0.626287
 377	1	5	0.023611	18.0686	45.8322	-0.0110097
 378	1	5	0.021405	11.5261	44.3936	-1.28739
 379	1	5	0.009991	11.9216	42.0467	-1.03
 380	1	5	0.026343	13.21	42.855	-0.118467
 381	1	5	0.026093	13.5538	42.1424	-1.69406
 382	1	5	0.043016	11.1647	43.1352	-3.34729
 383	1	5	0.050907	12.8495	43.3655	-3.85063
 384	1	5	0.051325	11.7534	44.7611	-3.74797
 385	1	1	-0.439951	17.6191	36.7294	8.28894
 386	1	1	0.043044	18.0797	37.9913	7.8651
 387	1	1	0.126458	19.9992	36.2748	8.66774
 388	1	1	0.016683	19.4114	38.3866	7.88083
 389	1	1	0.121946	18.6663	35.9477	8.81442
 390	1	2	0.005505	19.1596	39.5963	7.00161
 391	1	1	-0.445809	20.4695	37.4924	8.1421
 392	1	2	0.001585	17.6566	39.0878	6.90284
 393	1	3	0.031166	17.5181	38.7073	5.39352
 394	1	2	-0.048351	18.8731	40.7539	5.01924
 395	1	1	-0.041771	18.8659	40.9657	3.52019
 396	1	2	-0.107179	17.4099	40.1499	4.83901
 397	1	3	-0.106774	18.957	38.2999	4.96909
 398	1	3	-0.025838	19.6896	39.5409	5.55459
 399	1	1	-0.051955	17.6237	40.3794	3.34735
 400	1	1	-0.09124	17.9778	40.3498	1.04343
 401	1	1	-0.099966	19.1513	41.059	1.22269
 402	1	1	-0.017311	19.7468	41.2995	2.47236
 403	1	1	-0.020587	17.1517	39.9109	2.1024
 404	1	2	-0.042503	19.5446	40.9875	-0.234571
 405	1	2	0.004295	18.2202	40.1351	-0.448454
 406	1	3	0.00226	18.7864	38.7802	-0.956819
 407	1	3	-0.145049	20.1142	38.6544	-0.175211
 408	1	3	0.011953	19.3764	38.9148	-2.3993
 409	1	3	0.014921	20.6766	39.7956	-2.17118
 410	1	3	0.025749	20.6776	40.0193	-0.633832
 411	1	3	0.154129	15.9178	39.0272	1.95843
 412	1	3	-0.203386	15.0395	39.4337	0.753689
 413	1	3	-0.113237	16.2992	37.5331	1.88896
 414	1	3	0.129534	21.1663	41.8409	2.62162
 415	1	3	-0.091829	22.2	40.7109	2.81852
 416	1	3	-0.19809	21.2855	42.9012	3.7386
 417	1	4	0.228684	16.6045	36.3709	8.14832
 418	1	5	0.042843	19.3272	40.5569	7.50312
 419	1	4	0.232532	21.5089	37.6884	7.89921
 420	1	5	0.035382	16.8767	39.7606	7.27827
 421	1	5	0.041247	16.7085	38.0154	5.13064
 422	1	5	0.06146	18.9656	41.6711	5.61341
 423	1	5	0.068364	16.5817	40.7264	5.26827
 424	1	5	0.055799	19.0755	38.213	3.88139
 425	1	5	0.04347	19.2793	37.3555	5.42444
 426	1	5	0.076294	20.778	39.5737	5.44473
 427	1	5	0.058767	19.6026	41.9612	-0.72827
 428	1	5	0.056756	17.4465	40.5409	-1.10348
 429	1	5	0.029415	18.1107	37.925	-0.844354
 430	1	5	0.049793	20.7283	37.8062	-0.509483
 431	1	5	0.063468	19.9768	38.5754	0.911276
 432	1	5	-0.012542	19.6026	37.9618	-2.89546
 433	1	5	-0.012458	21.5795	39.3111	-2.56574
 434	1	5	0.013933	21.6657	40.2695	-0.230359
 435	1	5	0.014892	15.3035	39.1617	2.85844
 436	1	5	0.04353	14.0949	38.8758	0.758264
 437	1	5	0.048722	15.5467	39.2291	-0.196479
 438	1	5	0.053734	14.8011	40.5043	0.793154
 439	1	5	0.029251	16.9005	37.2435	2.759
 440	1	5	0.025572	16.8829	37.3147	0.988402
 441	1	5	0.023611	15.4011	36.9031	1.8743
 442	1	5	0.021405	21.4244	42.3463	1.68161
 443	1	5	0.009991	22.0824	40.2267	3.79213
 444	1	5	0.026343	23.2211	41.1083	2.76199
 445	1	5	0.026093	22.0939	39.9412	2.04566
 446	1	5	0.043016	21.1353	42.4558	4.72912
 447	1	5	0.050907	20.5396	43.694	3.5999
 448	1	5	0.051325	22.2795	43.3655	3.7255
 449	1	1	-0.439951	21.1762	26.4417	0.138079
 450	1	1	0.043044	20.4736	27.238	1.0655
 451	1	1	0.126458	19.4752	24.7306	0.635568
 452	1	1	0.016683	19.2383	26.8578	1.57887
 453	1	1	0.121946	20.6563	25.1354	0.0358131
 454	1	2	0.005505	18.7639	28.286	1.761
 455	1	1	-0.445809	18.6272	25.6167	1.32372
 456	1	2	0.001585	20.1968	28.7244	1.23579
 457	1	3	0.031166	20.8369	29.4284	2.47393
 458	1	2	-0.048351	18.5594	30.32	2.83418
 459	1	1	-0.041771	18.7213	31.2922	3.97582
 460	1	2	-0.107179	20.0301	30.7533	2.39395
 461	1	3	-0.106774	20.1848	28.7011	3.68384
 462	1	3	-0.025838	18.7076	28.82	3.20878
 463	1	1	-0.051955	20.0063	31.6544	3.62606
 464	1	1	-0.09124	20.0449	33.1684	5.3934
 465	1	1	-0.099966	18.7378	32.8279	5.69868
 466	1	1	-0.017311	17.9653	31.8793	5.0012
 467	1	1	-0.020587	20.762	32.6418	4.2935
 468	1	2	-0.042503	18.619	33.8504	6.80525
 469	1	2	0.004295	20.1278	34.2388	6.48109
 470	1	3	0.00226	20.8646	33.8909	7.81114
 471	1	3	-0.145049	20.0836	32.6525	8.30349
 472	1	3	0.011953	20.4865	34.8704	8.97062
 473	1	3	0.014921	18.9594	34.5137	9.22638
 474	1	3	0.025749	18.6969	33.3331	8.25748
 475	1	3	0.154129	22.1281	33.1189	3.81608
 476	1	3	-0.203386	22.0556	34.5636	3.27502
 477	1	3	-0.113237	23.2068	32.9937	4.91166
 478	1	3	0.129534	16.4852	31.5786	5.21318
 479	1	3	-0.091829	15.6076	32.7234	4.66385
 480	1	3	-0.19809	16.1305	31.2706	6.68216
 481	1	4	0.228684	21.932	26.8353	-0.534018
 482	1	5	0.042843	17.8852	28.5481	1.15985
 483	1	4	0.232532	17.5734	25.4207	1.49419
 484	1	5	0.035382	20.2559	29.3134	0.313186
 485	1	5	0.041247	21.9304	29.5177	2.48317
 486	1	5	0.06146	17.727	30.5426	2.15557
 487	1	5	0.068364	20.1421	31.2825	1.44023
 488	1	5	0.055799	20.3685	29.2121	4.63788
 489	1	5	0.04347	20.5197	27.6606	3.78432
 490	1	5	0.076294	17.9388	28.3914	3.86396
 491	1	5	0.058767	17.8465	34.6083	6.64526
 492	1	5	0.056756	20.3268	35.2572	6.13261
 493	1	5	0.029415	21.944	33.7276	7.71766
 494	1	5	0.049793	20.371	32.3404	9.31769
 495	1	5	0.063468	20.1707	31.783	7.63896
 496	1	5	-0.012542	21.096	34.7731	9.87879
 497	1	5	-0.012458	18.7596	34.2911	10.2829
 498	1	5	0.013933	17.8737	32.6864	8.57772
 499	1	5	0.014892	22.4407	32.4748	2.98379
 500	1	5	0.04353	21.7655	35.2674	4.06493
 501	1	5	0.048722	21.316	34.6354	2.46757
 502	1	5	0.053734	23.027	34.8798	2.87536
 503	1	5	0.029251	24.2038	33.1818	4.49427
 504	1	5	0.025572	23.2047	31.9862	5.34638
 505	1	5	0.023611	23.0384	33.7188	5.71521
 506	1	5	0.021405	16.2409	30.6776	4.63541
 507	1	5	0.009991	15.7912	33.6575	5.21
 508	1	5	0.026343	14.5425	32.4764	4.75509
 509	1	5	0.026093	15.8252	32.9009	3.60302
 510	1	5	0.043016	15.1236	30.8406	6.7523
 511	1	5	0.050907	16.1425	32.1835	7.28679
 512	1	5	0.051325	16.839	30.552	7.11319
 513	1	1	-0.439951	23.1801	12.5533	1.29862
 514	1	1	0.043044	23.2913	13.8938	0.882672
 515	1	1	0.126458	24.7201	12.0241	-0.544215
 516	1	1	0.016683	24.2402	14.2877	-0.0591332
 517	1	1	0.121946	23.8655	11.6351	0.480893
 518	1	2	0.005505	24.5284	15.6049	0.646534
 519	1	1	-0.445809	25.0592	13.3754	-0.750361
 520	1	2	0.001585	23.399	15.1854	1.6699
 521	1	3	0.031166	22.2848	16.25	1.44208
 522	1	2	-0.048351	24.1892	17.8216	1.24797
 523	1	1	-0.041771	23.5543	19.1991	1.22012
 524	1	2	-0.107179	22.9823	17.4051	2.20271
 525	1	3	-0.106774	22.4587	16.6642	-0.0453309
 526	1	3	-0.025838	23.993	16.906	0.00177065
 527	1	1	-0.051955	22.4779	18.8285	2.00755
 528	1	1	-0.09124	21.5322	20.9281	1.68493
 529	1	1	-0.099966	22.6527	21.3228	0.976355
 530	1	1	-0.017311	23.6976	20.458	0.603063
 531	1	1	-0.020587	21.3358	19.6349	2.20811
 532	1	2	-0.042503	22.0491	22.6492	0.560861
 533	1	2	0.004295	20.7464	22.1868	1.34531
 534	1	3	0.00226	19.6789	22.1144	0.216273
 535	1	3	-0.145049	20.5105	21.6623	-1.006
 536	1	3	0.011953	19.2952	23.5407	-0.2858
 537	1	3	0.014921	20.6173	24.0296	-1.01118
 538	1	3	0.025749	21.5567	22.7963	-0.89397
 539	1	3	0.154129	20.0438	19.2006	2.89244
 540	1	3	-0.203386	19.1107	18.4558	1.91419
 541	1	3	-0.113237	20.3023	18.364	4.16474
 542	1	3	0.129534	24.8188	20.8692	-0.346057
 543	1	3	-0.091829	24.5528	20.382	-1.7861
 544	1	3	-0.19809	26.2084	20.411	0.149161
 545	1	4	0.228684	22.8084	12.2833	2.28187
 546	1	5	0.042843	25.5563	15.6956	1.01711
 547	1	4	0.232532	26.0019	13.6692	-1.20095
 548	1	5	0.035382	23.6755	15.0508	2.72231
 549	1	5	0.041247	21.275	15.9765	1.76923
 550	1	5	0.06146	25.1976	17.7933	1.67771
 551	1	5	0.068364	23.2338	17.162	3.24197
 552	1	5	0.055799	21.8946	17.5698	-0.303955
 553	1	5	0.04347	22.1739	15.8667	-0.743778
 554	1	5	0.076294	24.4766	17.215	-0.931556
 555	1	5	0.058767	22.5703	23.5354	0.939579
 556	1	5	0.056756	20.4386	22.7946	2.20336
 557	1	5	0.029415	18.8133	21.4786	0.438617
 558	1	5	0.049793	19.9423	21.699	-1.94639
 559	1	5	0.063468	20.9364	20.6559	-0.899562
 560	1	5	-0.012542	18.415	23.5838	-0.940927
 561	1	5	-0.012458	20.425	24.3686	-2.03774
 562	1	5	0.013933	22.3453	22.7688	-1.65554
 563	1	5	0.014892	19.5145	20.1071	3.21429
 564	1	5	0.04353	18.1708	18.1778	2.40734
 565	1	5	0.048722	19.5813	17.5421	1.53557
 566	1	5	0.053734	18.8673	19.0904	1.05367
 567	1	5	0.029251	20.7319	17.3856	3.92004
 568	1	5	0.025572	19.3666	18.194	4.7118
 569	1	5	0.023611	20.9956	18.8863	4.8361
 570	1	5	0.021405	24.8415	21.9664	-0.378116
 571	1	5	0.009991	24.5611	19.2887	-1.84385
 572	1	5	0.026343	25.3191	20.7641	-2.47207
 573	1	5	0.026093	23.5761	20.7315	-2.14145
 574	1	5	0.043016	26.375	20.7342	1.18459
 575	1	5	0.050907	27.0023	20.8435	-0.472201
 576	1	5	0.051325	26.3063	19.3198	0.108786
 577	1	1	-0.439951	22.2903	1.79976	-6.19898
 578	1	1	0.043044	22.9831	2.05151	-5.01083
 579	1	1	0.126458	20.656	0.602387	-4.77505
 580	1	1	0.016683	22.5506	1.61725	-3.7937
 581	1	1	0.121946	21.0748	1.06906	-6.06678
 582	1	2	0.005505	23.7731	2.10637	-3.05161
 583	1	1	-0.445809	21.3957	0.867816	-3.60081
 584	1	2	0.001585	24.3144	2.57807	-4.47249
 585	1	3	0.031166	24.6564	4.08338	-4.24269
 586	1	2	-0.048351	22.6175	4.24916	-2.85361
 587	1	1	-0.041771	22.5472	5.71505	-2.4705
 588	1	2	-0.107179	23.262	4.74996	-4.21679
 589	1	3	-0.106774	25.0538	4.07676	-2.7388
 590	1	3	-0.025838	23.7589	3.40712	-2.19921
 591	1	1	-0.051955	23.1617	6.1565	-3.62907
 592	1	1	-0.09124	23.4391	8.25842	-2.64421
 593	1	1	-0.099966	22.7287	7.8387	-1.5301
 594	1	1	-0.017311	22.3459	6.49578	-1.31669
 595	1	1	-0.020587	23.7719	7.42846	-3.73684
 596	1	2	-0.042503	23.0711	9.08552	-0.727391
 597	1	2	0.004295	23.9223	9.54541	-1.98512
 598	1	3	0.00226	25.3728	9.58953	-1.41889
 599	1	3	-0.145049	25.3632	8.44128	-0.383039
 600	1	3	0.011953	25.5738	10.7764	-0.428783
 601	1	3	0.014921	24.6579	10.3718	0.788112
 602	1	3	0.025749	24.13	8.96859	0.387227
 603	1	3	0.154129	24.6866	7.88813	-4.87117
 604	1	3	-0.203386	26.1662	7.51997	-4.62211
 605	1	3	-0.113237	24.2152	7.3853	-6.25403
 606	1	3	0.129534	21.7606	5.91529	-0.0296163
 607	1	3	-0.091829	20.7591	6.8753	0.649783
 608	1	3	-0.19809	22.8434	5.44415	0.96667
 609	1	4	0.228684	22.6752	2.11399	-7.1641
 610	1	5	0.042843	24.3672	1.32549	-2.56406
 611	1	4	0.232532	21.1034	0.484482	-2.62841
 612	1	5	0.035382	25.1975	2.03668	-4.82898
 613	1	5	0.041247	25.3847	4.50278	-4.94367
 614	1	5	0.06146	21.6391	3.75788	-2.89201
 615	1	5	0.068364	22.6798	4.6037	-5.13368
 616	1	5	0.055799	25.2195	5.08248	-2.33093
 617	1	5	0.04347	25.9485	3.46875	-2.5488
 618	1	5	0.076294	23.6985	3.25497	-1.11677
 619	1	5	0.058767	22.2175	9.71549	-0.453279
 620	1	5	0.056756	23.6155	10.4746	-2.47783
 621	1	5	0.029415	26.167	9.52308	-2.16962
 622	1	5	0.049793	26.2717	8.41308	0.235245
 623	1	5	0.063468	25.2176	7.44771	-0.826621
 624	1	5	-0.012542	26.6151	10.9521	-0.126611
 625	1	5	-0.012458	25.206	10.3961	1.73947
 626	1	5	0.013933	23.8314	8.37265	1.2536
 627	1	5	0.014892	24.6373	8.98437	-4.90772
 628	1	5	0.04353	26.5148	7.91838	-3.6647
 629	1	5	0.048722	26.8061	7.93305	-5.41174
 630	1	5	0.053734	26.315	6.43797	-4.59946
 631	1	5	0.029251	24.2992	6.29557	-6.33565
 632	1	5	0.025572	24.8204	7.82974	-7.054
 633	1	5	0.023611	23.1682	7.66286	-6.42962
 634	1	5	0.021405	21.1875	5.02171	-0.31024
 635	1	5	0.009991	21.2575	7.77874	1.02069
 636	1	5	0.026343	20.2715	6.38537	1.50183
 637	1	5	0.026093	19.9767	7.17945	-0.0569755
 638	1	5	0.043016	23.5639	4.77823	0.483016
 639	1	5	0.050907	22.3863	4.8987	1.80162
 640	1	5	0.051325	23.4021	6.28376	1.38482
 641	1	1	-0.439951	21.9528	-10.0441	-5.97586
 642	1	1	0.043044	22.0746	-9.66172	-7.31648
 643	1	1	0.126458	24.383	-9.58898	-5.82434
 644	1	1	0.016683	23.2561	-9.2755	-7.8796
 645	1	1	0.121946	23.1612	-10.0209	-5.21825
 646	1	2	0.005505	22.6343	-8.88863	-9.20626
 647	1	1	-0.445809	24.4532	-9.17863	-7.17505
 648	1	2	0.001585	21.2502	-9.35763	-8.56835
 649	1	3	0.031166	20.3327	-8.10449	-8.74747
 650	1	2	-0.048351	22.2951	-6.6817	-8.24154
 651	1	1	-0.041771	21.7315	-5.2746	-8.27407
 652	1	2	-0.107179	20.8809	-7.12964	-7.67808
 653	1	3	-0.106774	20.9012	-7.51208	-10.0684
 654	1	3	-0.025838	22.3853	-7.40812	-9.61731
 655	1	1	-0.051955	20.4818	-5.66945	-7.82769
 656	1	1	-0.09124	19.8816	-3.43931	-7.49213
 657	1	1	-0.099966	21.1715	-3.05887	-7.82535
 658	1	1	-0.017311	22.203	-3.9509	-8.16703
 659	1	1	-0.020587	19.4988	-4.7887	-7.33669