pySIMM System Object

710 atoms
817 bonds
1716 angles
3150 dihedrals
44 impropers

5 atom types
9 bond types
18 angle types
19 dihedral types
2 improper types

-120.045510 120.045510 xlo xhi
-120.045510 120.045510 ylo yhi
-120.045510 120.045510 zlo zhi

Masses

   1	12.01	# ca
   2	12.01	# cy
   3	12.01	# c3
   4	1.008	# ha
   5	1.008	# hc

Pair Coeffs

   1	0.086	3.3996695084235347	# ca
   2	0.086	3.3996695084235347	# cy
   3	0.1094	3.3996695084235347	# c3
   4	0.015	2.59964245953351	# ha
   5	0.0157	2.649532787749369	# hc

Bond Coeffs

   1	300.9	1.5375	# c3,c3
   2	305.9	1.5319	# c3,cy
   3	345.8	1.086	# ca,ha
   4	321.0	1.5156	# c3,ca
   5	285.0	1.5562	# cy,cy
   6	330.6	1.0969	# c3,hc
   7	333.3	1.0949	# cy,hc
   8	321.2	1.5154	# ca,cy
   9	461.1	1.3984	# ca,ca

Angle Coeffs

   1	66.62	120.02	# ca,ca,ca
   2	61.4	116.81	# ca,cy,cy
   3	44.83	114.79	# cy,cy,hc
   4	46.43	110.14	# c3,cy,hc
   5	63.15	112.07	# c3,c3,ca
   6	46.34	109.8	# c3,c3,hc
   7	39.4	107.58	# hc,c3,hc
   8	48.18	119.88	# ca,ca,ha
   9	63.53	120.77	# c3,ca,ca
  10	60.66	118.7	# c3,cy,cy
  11	63.51	120.86	# ca,ca,cy
  12	62.73	112.39	# c3,c3,cy
  13	46.29	110.75	# cy,c3,hc
  14	46.8	110.47	# ca,c3,hc
  15	62.8	113.57	# c3,cy,ca
  16	62.86	111.51	# c3,c3,c3
  17	67.9	96.03	# cy,c3,cy
  18	45.97	114.53	# ca,cy,hc

Dihedral Coeffs

   1	1	0.16	3	0.0	# hc,c3,cy,cy
   2	1	0.16	3	0.0	# cy,c3,cy,hc
   3	1	0.16	3	0.0	# c3,c3,cy,hc
   4	1	0.15	3	0.0	# hc,c3,cy,hc
   5	1	3.625	2	180	# X,ca,ca,X
   6	1	0.15555555555555556	3	0	# X,cy,cy,X
   7	3	0.18	3	0	0.25	2	180	0.2	1	180	# c3,c3,c3,c3
   8	1	0.16	3	0	# hc,c3,c3,c3
   9	1	0.0	2	0.0	# ca,ca,cy,cy
  10	1	0.0	2	0.0	# ca,ca,cy,c3
  11	1	0.15555555555555556	3	0	# X,c3,c3,X
  12	1	0.0	2	0	# X,c3,ca,X
  13	3	0.38	3	180.0	0.0	2	0.0	1.15	1	0.0	# ca,ca,cy,hc
  14	3	0.18	3	0.0	0.25	2	180.0	0.2	1	180.0	# cy,c3,cy,cy
  15	1	0.16	3	0.0	# cy,c3,cy,ca
  16	1	0.16	3	0.0	# c3,c3,cy,ca
  17	1	0.16	3	0.0	# hc,c3,cy,ca
  18	1	0.15	3	0	# hc,c3,c3,hc
  19	3	0.18	3	0.0	0.25	2	180.0	0.2	1	180.0	# c3,c3,cy,cy

Improper Coeffs

   1	1.1	-1	2	# ca,ca,ca,c3
   2	1.1	-1	2	# ca,X,X,ha

Atoms

   1	1	1	-0.439951	-8.76329	0.301385	-25.32
   2	1	1	0.043044	-9.70409	0.88682	-26.1887
   3	1	1	0.126458	-8.8289	2.42379	-24.0866
   4	1	1	0.016683	-10.0667	2.2305	-26.0908
   5	1	1	0.121946	-8.43474	1.0974	-24.208
   6	1	2	0.005505	-10.2343	2.39119	-27.5933
   7	1	1	-0.445809	-9.55242	3.08491	-25.0962
   8	1	2	0.001585	-9.84252	0.86487	-27.7009
   9	1	3	0.031166	-8.52229	0.870369	-28.5138
  10	1	2	-0.048351	-9.51541	2.74708	-29.7903
  11	1	1	-0.041771	-8.50508	2.95747	-30.9123
  12	1	2	-0.107179	-9.14452	1.20248	-29.8955
  13	1	3	-0.106774	-7.85008	2.21121	-28.1009
  14	1	3	-0.025838	-9.08696	3.12316	-28.346
  15	1	1	-0.051955	-8.18857	1.61107	-31.0003
  16	1	1	-0.09124	-6.38515	2.11139	-32.3863
  17	1	1	-0.099966	-6.71394	3.45499	-32.319
  18	1	1	-0.017311	-7.72099	3.98295	-31.4867
  19	1	1	-0.020587	-7.04161	1.1066	-31.6446
  20	1	2	-0.042503	-5.44155	3.90806	-33.0144
  21	1	2	0.004295	-5.06057	2.37019	-33.0902
  22	1	3	0.00226	-3.74896	2.30968	-32.2725
  23	1	3	-0.145049	-3.96569	3.3697	-31.1727
  24	1	3	0.011953	-2.637	2.9989	-33.103
  25	1	3	0.014921	-3.01233	4.5047	-33.0244
  26	1	3	0.025749	-4.29938	4.50573	-32.1614
  27	1	3	0.154129	-6.59635	-0.34876	-31.5179
  28	1	3	-0.203386	-6.09187	-0.932251	-32.8562
  29	1	3	-0.113237	-5.54646	-0.544441	-30.4021
  30	1	3	0.129534	-7.89565	5.48265	-31.2569
  31	1	3	-0.091829	-7.13498	5.97299	-30.0053
  32	1	3	-0.19809	-9.38012	5.90708	-31.2053
  33	1	4	0.228684	-8.17903	-0.569307	-25.5992
  34	1	5	0.042843	-11.2424	2.67178	-27.9199
  35	1	4	0.232532	-9.52325	4.16315	-25.2148
  36	1	5	0.035382	-10.6063	0.177866	-28.0837
  37	1	5	0.041247	-7.91266	-0.0376686	-28.447
  38	1	5	0.06146	-10.5454	3.02757	-30.041
  39	1	5	0.068364	-9.94227	0.518634	-30.2092
  40	1	5	0.055799	-6.99359	2.47212	-28.7358
  41	1	5	0.04347	-7.5125	2.21849	-27.0572
  42	1	5	0.076294	-8.97434	4.18778	-28.1183
  43	1	5	0.058767	-5.57908	4.42389	-33.9712
  44	1	5	0.056756	-4.96184	1.94296	-34.0943
  45	1	5	0.029415	-3.46386	1.31581	-31.9135
  46	1	5	0.049793	-3.05857	3.56774	-30.5848
  47	1	5	0.063468	-4.78808	3.12875	-30.4862
  48	1	5	-0.012542	-2.61202	2.63354	-34.1379
  49	1	5	-0.012458	-3.18305	4.93915	-34.0179
  50	1	5	0.013933	-4.51728	5.47658	-31.7019
  51	1	5	0.014892	-7.47775	-0.937329	-31.2312
  52	1	5	0.04353	-6.83232	-0.774215	-33.6505
  53	1	5	0.048722	-5.91724	-2.01158	-32.7659
  54	1	5	0.053734	-5.15037	-0.463318	-33.1657
  55	1	5	0.029251	-5.36675	-1.6122	-30.2251
  56	1	5	0.025572	-5.88144	-0.0974486	-29.4601
  57	1	5	0.023611	-4.59073	-0.0833281	-30.6649
  58	1	5	0.021405	-7.45311	5.99977	-32.1185
  59	1	5	0.009991	-7.19004	7.06574	-29.9223
  60	1	5	0.026343	-6.07754	5.6918	-30.0518
  61	1	5	0.026093	-7.55051	5.54484	-29.0893
  62	1	5	0.043016	-9.87807	5.51311	-30.3116
  63	1	5	0.050907	-9.91713	5.54041	-32.0892
  64	1	5	0.051325	-9.46818	7.00057	-31.1862
  65	1	1	-0.439951	-9.26889	1.41652	-12.3787
  66	1	1	0.043044	-7.99842	1.12798	-12.9168
  67	1	1	0.126458	-9.49466	-1.03039	-12.2534
  68	1	1	0.016683	-7.53429	-0.16005	-13.1518
  69	1	1	0.121946	-9.93555	0.246096	-11.9633
  70	1	2	0.005505	-6.43835	0.298919	-14.088
  71	1	1	-0.445809	-8.3043	-1.31984	-12.9431
  72	1	2	0.001585	-6.97897	1.77482	-13.8432
  73	1	3	0.031166	-7.45825	2.22612	-15.255
  74	1	2	-0.048351	-5.50459	0.963005	-16.0863
  75	1	1	-0.041771	-5.46265	1.28353	-17.5618
  76	1	2	-0.107179	-6.05126	2.44664	-15.8828
  77	1	3	-0.106774	-7.93395	0.901413	-15.915
  78	1	3	-0.025838	-6.6643	0.059165	-15.5994
  79	1	1	-0.051955	-5.93381	2.57431	-17.3994
  80	1	1	-0.09124	-6.02535	2.80557	-19.7126
  81	1	1	-0.099966	-5.59412	1.49935	-19.8661
  82	1	1	-0.017311	-5.35989	0.61515	-18.7946
  83	1	1	-0.020587	-6.32484	3.40495	-18.4731
  84	1	2	-0.042503	-5.79907	1.49959	-21.3712
  85	1	2	0.004295	-6.28124	3.00675	-21.196
  86	1	3	0.00226	-7.7321	2.97234	-21.7309
  87	1	3	-0.145049	-8.21336	1.57032	-21.2898
  88	1	3	0.011953	-7.6054	2.81267	-23.2749
  89	1	3	0.014921	-7.14567	1.31189	-23.4354
  90	1	3	0.025749	-7.05024	0.811004	-21.9693
  91	1	3	0.154129	-6.99975	4.76742	-18.3593
  92	1	3	-0.203386	-8.52371	4.62492	-18.1629
  93	1	3	-0.113237	-6.37219	5.65236	-17.2607
  94	1	3	0.129534	-5.05359	-0.875049	-18.906
  95	1	3	-0.091829	-4.04753	-1.19244	-20.0337
  96	1	3	-0.19809	-6.34469	-1.70834	-19.0578
  97	1	4	0.228684	-9.71352	2.40654	-12.3633
  98	1	5	0.042843	-5.42364	0.0752477	-13.7377
  99	1	4	0.232532	-8.05065	-2.3001	-13.3339
 100	1	5	0.035382	-6.2955	2.47855	-13.354
 101	1	5	0.041247	-8.1545	3.07193	-15.2818
 102	1	5	0.06146	-4.52632	0.725105	-15.651
 103	1	5	0.068364	-5.41413	3.13664	-15.317
 104	1	5	0.055799	-8.11807	1.00728	-16.9922
 105	1	5	0.04347	-8.84138	0.497526	-15.4483
 106	1	5	0.076294	-6.65886	-0.984413	-15.9356
 107	1	5	0.058767	-4.89644	1.3442	-21.9727
 108	1	5	0.056756	-5.6664	3.7739	-21.68
 109	1	5	0.029415	-8.3715	3.80483	-21.4122
 110	1	5	0.049793	-9.20301	1.30239	-21.682
 111	1	5	0.063468	-8.23875	1.44012	-20.1999
 112	1	5	-0.012542	-6.94345	3.5343	-23.772
 113	1	5	-0.012458	-6.2344	1.19041	-24.0362
 114	1	5	0.013933	-7.08573	-0.279521	-21.8739
 115	1	5	0.014892	-6.84873	5.29394	-19.311
 116	1	5	0.04353	-8.96074	4.01038	-18.9595
 117	1	5	0.048722	-9.01228	5.60691	-18.1852
 118	1	5	0.053734	-8.7567	4.14947	-17.2046
 119	1	5	0.029251	-6.55398	5.2385	-16.2618
 120	1	5	0.025572	-6.79718	6.66352	-17.2906
 121	1	5	0.023611	-5.28794	5.73788	-17.4068
 122	1	5	0.021405	-4.58039	-1.18845	-17.9662
 123	1	5	0.009991	-4.47416	-0.983331	-21.0219
 124	1	5	0.026343	-3.76094	-2.25123	-20.0077
 125	1	5	0.026093	-3.1358	-0.593007	-19.9174
 126	1	5	0.043016	-6.85479	-1.48178	-19.9992
 127	1	5	0.050907	-7.04385	-1.49729	-18.2402
 128	1	5	0.051325	-6.11904	-2.7818	-19.0434
 129	1	1	-0.439951	-19.2935	-4.91789	-15.1359
 130	1	1	0.043044	-19.2258	-3.68177	-15.8087
 131	1	1	0.126458	-20.4622	-3.66894	-13.3759
 132	1	1	0.016683	-19.6642	-2.48143	-15.2469
 133	1	1	0.121946	-20.0297	-4.85279	-13.9408
 134	1	2	0.005505	-18.6604	-1.64267	-16.0312
 135	1	1	-0.445809	-20.2095	-2.40459	-13.9455
 136	1	2	0.001585	-18.1499	-3.01078	-16.6401
 137	1	3	0.031166	-16.7036	-3.15094	-16.095
 138	1	2	-0.048351	-16.5535	-0.721187	-16.49
 139	1	1	-0.041771	-15.1004	-0.379515	-16.2024
 140	1	2	-0.107179	-16.0186	-2.11778	-17.0192
 141	1	3	-0.106774	-16.7525	-2.39933	-14.7389
 142	1	3	-0.025838	-17.4285	-1.10367	-15.2583
 143	1	1	-0.051955	-14.6324	-1.62389	-16.6169
 144	1	1	-0.09124	-12.6521	-1.25493	-15.4181
 145	1	1	-0.099966	-13.101	0.00629569	-15.0581
 146	1	1	-0.017311	-14.4009	0.483814	-15.3282
 147	1	1	-0.020587	-13.429	-2.18754	-16.1317
 148	1	2	-0.042503	-12.0681	0.153935	-13.955
 149	1	2	0.004295	-11.5595	-1.28888	-14.3545
 150	1	3	0.00226	-11.7982	-2.10948	-13.0546
 151	1	3	-0.145049	-13.0872	-1.47174	-12.4906
 152	1	3	0.011953	-10.8211	-1.68219	-11.9171
 153	1	3	0.014921	-11.3231	-0.219607	-11.5491
 154	1	3	0.025749	-12.5422	-0.0250745	-12.4924
 155	1	3	0.154129	-12.9844	-3.64226	-16.2899
 156	1	3	-0.203386	-13.5339	-4.5748	-15.1864
 157	1	3	-0.113237	-13.2739	-4.20964	-17.6966
 158	1	3	0.129534	-14.9973	1.73911	-14.6665
 159	1	3	-0.091829	-16.1823	2.34758	-15.4574
 160	1	3	-0.19809	-13.9415	2.85694	-14.4718
 161	1	4	0.228684	-18.7017	-5.78248	-15.4185
 162	1	5	0.042843	-19.1031	-0.921814	-16.7284
 163	1	4	0.232532	-20.2775	-1.47921	-13.3825
 164	1	5	0.035382	-18.2441	-3.14234	-17.7243
 165	1	5	0.041247	-16.3036	-4.16705	-16.0925
 166	1	5	0.06146	-17.0511	-0.0731649	-17.2214
 167	1	5	0.068364	-16.1436	-2.32351	-18.0888
 168	1	5	0.055799	-15.7633	-2.22756	-14.304
 169	1	5	0.04347	-17.361	-2.91146	-13.9972
 170	1	5	0.076294	-17.6219	-0.324339	-14.5119
 171	1	5	0.058767	-11.3617	0.978166	-14.0952
 172	1	5	0.056756	-10.5362	-1.36256	-14.7373
 173	1	5	0.029415	-11.8456	-3.19517	-13.1939
 174	1	5	0.049793	-13.34	-1.83432	-11.4844
 175	1	5	0.063468	-13.9627	-1.60799	-13.133
 176	1	5	-0.012542	-10.8036	-2.34921	-11.045
 177	1	5	-0.012458	-11.5464	-0.116075	-10.479
 178	1	5	0.013933	-13.2578	0.727047	-12.1384
 179	1	5	0.014892	-11.8922	-3.64746	-16.1769
 180	1	5	0.04353	-12.8186	-5.38127	-14.984
 181	1	5	0.048722	-14.4734	-5.04937	-15.4794
 182	1	5	0.053734	-13.7093	-4.0278	-14.2532
 183	1	5	0.029251	-12.8314	-3.56903	-18.4697
 184	1	5	0.025572	-14.3518	-4.27994	-17.8856
 185	1	5	0.023611	-12.8457	-5.21427	-17.8032
 186	1	5	0.021405	-15.3712	1.45907	-13.6732
 187	1	5	0.009991	-17.0567	1.69162	-15.4516
 188	1	5	0.026343	-15.8997	2.54127	-16.5
 189	1	5	0.026093	-16.5027	3.29782	-15.0118
 190	1	5	0.043016	-13.4646	3.11268	-15.4268
 191	1	5	0.050907	-13.1599	2.56079	-13.7663
 192	1	5	0.051325	-14.4026	3.7669	-14.068
 193	1	1	-0.439951	-11.1768	-3.91512	-4.44462
 194	1	1	0.043044	-11.446	-4.14619	-5.80871
 195	1	1	0.126458	-9.65535	-5.83681	-4.71035
 196	1	1	0.016683	-10.867	-5.15454	-6.56042
 197	1	1	0.121946	-10.2901	-4.8861	-3.93308
 198	1	2	0.005505	-11.465	-4.67548	-7.86487
 199	1	1	-0.445809	-9.86961	-6.02559	-6.08789
 200	1	2	0.001585	-12.0968	-3.48306	-7.0141
 201	1	3	0.031166	-13.624	-3.6701	-7.19004
 202	1	2	-0.048351	-13.1212	-4.46818	-9.47867
 203	1	1	-0.041771	-14.5208	-4.62103	-10.0526
 204	1	2	-0.107179	-13.7049	-3.21967	-8.67903
 205	1	3	-0.106774	-13.7759	-5.21686	-7.26661
 206	1	3	-0.025838	-12.7068	-5.46409	-8.37006
 207	1	1	-0.051955	-15.0101	-3.51223	-9.39014
 208	1	1	-0.09124	-17.0113	-3.69244	-10.5506
 209	1	1	-0.099966	-16.5477	-4.84509	-11.1604
 210	1	1	-0.017311	-15.2423	-5.35615	-11.0159
 211	1	1	-0.020587	-16.2525	-2.90907	-9.65606
 212	1	2	-0.042503	-17.7185	-4.93658	-12.1205
 213	1	2	0.004295	-18.2449	-3.60016	-11.4332
 214	1	3	0.00226	-19.6107	-4.0323	-10.8487
 215	1	3	-0.145049	-19.3434	-5.49527	-10.4266
 216	1	3	0.011953	-20.6446	-4.28058	-11.9907
 217	1	3	0.014921	-20.1284	-5.63282	-12.6418
 218	1	3	0.025749	-18.8462	-5.95543	-11.8143
 219	1	3	0.154129	-16.6335	-1.53237	-9.12719
 220	1	3	-0.203386	-16.3942	-0.446097	-10.1982
 221	1	3	-0.113237	-18.0818	-1.4779	-8.59765
 222	1	3	0.129534	-14.7155	-6.53143	-11.833
 223	1	3	-0.091829	-15.0974	-7.86795	-11.1625
 224	1	3	-0.19809	-13.193	-6.47255	-12.0916
 225	1	4	0.228684	-11.5436	-3.06304	-3.88149
 226	1	5	0.042843	-10.7364	-4.42807	-8.64612
 227	1	4	0.232532	-9.29442	-6.7013	-6.71287
 228	1	5	0.035382	-11.7491	-2.46411	-7.22081
 229	1	5	0.041247	-14.2705	-3.14446	-6.4762
 230	1	5	0.06146	-12.3383	-4.27581	-10.2218
 231	1	5	0.068364	-13.2783	-2.22888	-8.87615
 232	1	5	0.055799	-14.7833	-5.53089	-7.56906
 233	1	5	0.04347	-13.5345	-5.71755	-6.32003
 234	1	5	0.076294	-12.5423	-6.50508	-8.67472
 235	1	5	0.058767	-17.4374	-4.92688	-13.1759
 236	1	5	0.056756	-18.3116	-2.68409	-12.0249
 237	1	5	0.029415	-19.9952	-3.39789	-10.0418
 238	1	5	0.049793	-20.2545	-6.0192	-10.1046
 239	1	5	0.063468	-18.5893	-5.59495	-9.63497
 240	1	5	-0.012542	-21.6873	-4.35673	-11.6552
 241	1	5	-0.012458	-20.8948	-6.41911	-12.631
 242	1	5	0.013933	-18.542	-7.00842	-11.8616
 243	1	5	0.014892	-15.9761	-1.30447	-8.27782
 244	1	5	0.04353	-15.3482	-0.455296	-10.5292
 245	1	5	0.048722	-16.6143	0.551364	-9.79808
 246	1	5	0.053734	-17.03	-0.613157	-11.0766
 247	1	5	0.029251	-18.2536	-0.54707	-8.043
 248	1	5	0.025572	-18.2803	-2.31807	-7.92018
 249	1	5	0.023611	-18.8047	-1.51517	-9.42018
 250	1	5	0.021405	-15.2081	-6.50262	-12.8139
 251	1	5	0.009991	-16.1797	-7.92066	-10.9891
 252	1	5	0.026343	-14.5926	-7.97767	-10.1941
 253	1	5	0.026093	-14.8143	-8.71758	-11.7963
 254	1	5	0.043016	-12.6253	-6.67051	-11.1751
 255	1	5	0.050907	-12.8992	-5.48663	-12.4693
 256	1	5	0.051325	-12.8997	-7.22361	-12.8356
 257	1	1	-0.439951	-8.07898	-13.6714	4.11883
 258	1	1	0.043044	-9.35234	-13.1873	3.76461
 259	1	1	0.126458	-8.65627	-12.7394	6.33454
 260	1	1	0.016683	-10.1539	-12.4221	4.59528
 261	1	1	0.121946	-7.80889	-13.4106	5.47563
 262	1	2	0.005505	-11.1105	-12.0295	3.48435
 263	1	1	-0.445809	-9.86349	-12.1272	5.94218
 264	1	2	0.001585	-10.2201	-12.9587	2.54258
 265	1	3	0.031166	-9.68245	-11.9994	1.45731
 266	1	2	-0.048351	-11.8512	-10.8205	1.63169
 267	1	1	-0.041771	-11.7567	-9.83402	0.471245
 268	1	2	-0.107179	-11.029	-11.8179	0.699719
 269	1	3	-0.106774	-9.5075	-10.6611	2.23114
 270	1	3	-0.025838	-10.9288	-10.6131	2.86102
 271	1	1	-0.051955	-11.0826	-10.7253	-0.344493
 272	1	1	-0.09124	-10.7755	-9.07009	-1.93857
 273	1	1	-0.099966	-11.4249	-8.16157	-1.11872
 274	1	1	-0.017311	-11.8829	-8.45659	0.183277
 275	1	1	-0.020587	-10.4863	-10.4009	-1.57536
 276	1	2	-0.042503	-11.0673	-6.96277	-1.98933
 277	1	2	0.004295	-10.3173	-8.00881	-2.92069
 278	1	3	0.00226	-8.84317	-7.53949	-2.84876
 279	1	3	-0.145049	-8.72909	-6.99012	-1.40802
 280	1	3	0.011953	-8.66208	-6.21208	-3.63018
 281	1	3	0.014921	-9.40836	-5.14284	-2.72004
 282	1	3	0.025749	-9.92482	-6.01748	-1.53279
 283	1	3	0.154129	-9.68853	-11.4084	-2.40143
 284	1	3	-0.203386	-10.0085	-11.3129	-3.9101
 285	1	3	-0.113237	-8.16868	-11.3175	-2.14945
 286	1	3	0.129534	-12.4065	-7.39144	1.14239
 287	1	3	-0.091829	-11.2863	-6.85996	2.06278
 288	1	3	-0.19809	-13.6188	-7.87707	1.9689
 289	1	4	0.228684	-7.39723	-14.1732	3.43977
 290	1	5	0.042843	-12.1538	-12.3257	3.64509
 291	1	4	0.232532	-10.4795	-11.5082	6.58676
 292	1	5	0.035382	-10.6905	-13.8666	2.1468
 293	1	5	0.041247	-8.82359	-12.3552	0.876336
 294	1	5	0.06146	-12.8748	-11.1177	1.88968
 295	1	5	0.068364	-11.5196	-12.7539	0.406343
 296	1	5	0.055799	-9.30643	-9.81078	1.56665
 297	1	5	0.04347	-8.71052	-10.7042	2.98495
 298	1	5	0.076294	-11.1553	-9.76468	3.5165
 299	1	5	0.058767	-11.9194	-6.43248	-2.42884
 300	1	5	0.056756	-10.6963	-8.1255	-3.94188
 301	1	5	0.029415	-8.09737	-8.295	-3.1135
 302	1	5	0.049793	-7.77681	-6.47324	-1.22257
 303	1	5	0.063468	-8.86297	-7.75629	-0.633076
 304	1	5	-0.012542	-7.62071	-5.93205	-3.83706
 305	1	5	-0.012458	-8.7528	-4.30989	-2.43364
 306	1	5	0.013933	-10.1384	-5.43973	-0.625723
 307	1	5	0.014892	-10.0001	-12.4114	-2.08139
 308	1	5	0.04353	-9.54135	-12.1398	-4.45909
 309	1	5	0.048722	-9.64017	-10.3729	-4.33773
 310	1	5	0.053734	-11.0919	-11.3653	-4.07783
 311	1	5	0.029251	-7.75581	-10.3764	-2.52275
 312	1	5	0.025572	-7.64591	-12.1379	-2.65736
 313	1	5	0.023611	-7.94342	-11.385	-1.0792
 314	1	5	0.021405	-12.755	-6.54341	0.538578
 315	1	5	0.009991	-10.436	-6.49699	1.47396
 316	1	5	0.026343	-10.9175	-7.64135	2.73504
 317	1	5	0.026093	-11.6516	-6.0273	2.67683
 318	1	5	0.043016	-14.0377	-7.05412	2.56138
 319	1	5	0.050907	-13.3371	-8.67858	2.66138
 320	1	5	0.051325	-14.4095	-8.25547	1.30892
 321	1	1	-0.439951	-1.00622	-2.60845	8.71677
 322	1	1	0.043044	-1.19766	-3.81288	8.02169
 323	1	1	0.126458	1.08118	-2.42883	7.43341
 324	1	1	0.016683	-0.353704	-4.25397	7.00611
 325	1	1	0.121946	0.233367	-2.00665	8.44816
 326	1	2	0.005505	-1.4607	-5.02234	6.29354
 327	1	1	-0.445809	0.76137	-3.50387	6.5781
 328	1	2	0.001585	-2.41567	-4.4942	7.44181
 329	1	3	0.031166	-2.88956	-5.77604	8.16292
 330	1	2	-0.048351	-2.92811	-6.81001	5.91422
 331	1	1	-0.041771	-3.58967	-8.1547	6.2044
 332	1	2	-0.107179	-3.8746	-6.23186	7.05546
 333	1	3	-0.106774	-1.68427	-6.74587	8.00602
 334	1	3	-0.025838	-1.49529	-6.56942	6.47456
 335	1	1	-0.051955	-4.41718	-7.63515	7.19041
 336	1	1	-0.09124	-5.707	-9.561	7.13225
 337	1	1	-0.099966	-4.86334	-10.1146	6.18756
 338	1	1	-0.017311	-3.81724	-9.39903	5.57114
 339	1	1	-0.020587	-5.59001	-8.26349	7.65039
 340	1	2	-0.042503	-5.80566	-11.2749	5.88699
 341	1	2	0.004295	-6.78053	-10.6087	6.94603
 342	1	3	0.00226	-6.90118	-11.6765	8.05033
 343	1	3	-0.145049	-5.49295	-12.3175	8.0503
 344	1	3	0.011953	-7.72818	-12.8828	7.53086
 345	1	3	0.014921	-6.7273	-13.5992	6.51961
 346	1	3	0.025749	-5.48687	-12.6519	6.5401
 347	1	3	0.154129	-6.69058	-7.61435	8.48286
 348	1	3	-0.203386	-6.14522	-6.77302	9.65727
 349	1	3	-0.113237	-7.63907	-6.78145	7.59647
 350	1	3	0.129534	-3.14311	-9.87707	4.29025
 351	1	3	-0.091829	-1.60377	-9.79799	4.36932
 352	1	3	-0.19809	-3.67806	-9.1173	3.05735
 353	1	4	0.228684	-1.80672	-2.09601	9.24054
 354	1	5	0.042843	-1.65643	-4.69659	5.26522
 355	1	4	0.232532	1.20305	-3.61847	5.59326
 356	1	5	0.035382	-3.22821	-3.80832	7.1743
 357	1	5	0.041247	-3.29166	-5.65061	9.17531
 358	1	5	0.06146	-3.06709	-6.43825	4.89247
 359	1	5	0.068364	-4.62451	-5.48002	6.78227
 360	1	5	0.055799	-1.92818	-7.77811	8.28858
 361	1	5	0.04347	-0.804356	-6.431	8.58184
 362	1	5	0.076294	-0.67726	-7.13501	6.01234
 363	1	5	0.058767	-6.14533	-11.3555	4.84846
 364	1	5	0.056756	-7.74726	-10.2291	6.59753
 365	1	5	0.029415	-7.22989	-11.2971	9.02604
 366	1	5	0.049793	-5.43291	-13.2119	8.68669
 367	1	5	0.063468	-4.69263	-11.6293	8.35213
 368	1	5	-0.012542	-8.08636	-13.5656	8.31253
 369	1	5	-0.012458	-6.5235	-14.6412	6.79958
 370	1	5	0.013933	-4.56294	-13.1261	6.18628
 371	1	5	0.014892	-7.28899	-8.42087	8.92664
 372	1	5	0.04353	-5.43378	-7.35604	10.2557
 373	1	5	0.048722	-6.96299	-6.45626	10.3165
 374	1	5	0.053734	-5.63857	-5.87091	9.29695
 375	1	5	0.029251	-7.12536	-5.90342	7.186
 376	1	5	0.025572	-8.50523	-6.43522	8.1741
 377	1	5	0.023611	-8.01021	-7.38338	6.7573
 378	1	5	0.021405	-3.39892	-10.9359	4.15239
 379	1	5	0.009991	-1.25951	-8.75769	4.38459
 380	1	5	0.026343	-1.1481	-10.2908	3.50127
 381	1	5	0.026093	-1.23593	-10.298	5.27419
 382	1	5	0.043016	-3.27114	-9.54244	2.13142
 383	1	5	0.050907	-3.40282	-8.0565	3.09627
 384	1	5	0.051325	-4.77241	-9.18387	3.00925
 385	1	1	-0.439951	8.94376	5.72346	11.1942
 386	1	1	0.043044	8.24204	4.65985	11.7924
 387	1	1	0.126458	7.72593	7.09563	12.8511
 388	1	1	0.016683	7.40684	4.80195	12.887
 389	1	1	0.121946	8.57318	6.95784	11.7658
 390	1	2	0.005505	7.27064	3.31204	13.1084
 391	1	1	-0.445809	7.13112	6.01891	13.5343
 392	1	2	0.001585	8.22932	3.1402	11.8482
 393	1	3	0.031166	7.3361	2.41356	10.8059
 394	1	2	-0.048351	6.37351	1.2116	12.7292
 395	1	1	-0.041771	5.45714	0.198774	12.0757
 396	1	2	-0.107179	7.3304	1.00646	11.4754
 397	1	3	-0.106774	5.9131	2.96263	11.1129
 398	1	3	-0.025838	5.93145	2.69191	12.6454
 399	1	1	-0.051955	6.29934	-0.0117697	10.9951
 400	1	1	-0.09124	4.58538	-1.16725	9.89922
 401	1	1	-0.099966	3.71578	-0.848177	10.9318
 402	1	1	-0.017311	4.07665	-0.0745851	12.0553
 403	1	1	-0.020587	5.89233	-0.643052	9.79793
 404	1	2	-0.042503	2.4727	-1.19211	10.1258
 405	1	2	0.004295	3.46815	-1.60846	8.96311
 406	1	3	0.00226	3.07712	-0.67275	7.79553
 407	1	3	-0.145049	2.71153	0.631652	8.54119
 408	1	3	0.011953	1.67349	-1.04032	7.22833
 409	1	3	0.014921	0.704403	-0.570797	8.384
 410	1	3	0.025749	1.67123	-0.0319999	9.47128
 411	1	3	0.154129	6.72997	-0.761419	8.52487
 412	1	3	-0.203386	6.62064	0.48074	7.61342
 413	1	3	-0.113237	8.21018	-1.09005	8.82159
 414	1	3	0.129534	3.13253	0.429662	13.147
 415	1	3	-0.091829	2.15931	-0.666251	13.632
 416	1	3	-0.19809	2.36731	1.71271	12.7531
 417	1	4	0.228684	9.72412	5.60287	10.4495
 418	1	5	0.042843	7.62411	2.95381	14.0825
 419	1	4	0.232532	6.60112	6.10759	14.4773
 420	1	5	0.035382	9.20871	2.67179	11.9998
 421	1	5	0.041247	7.67662	2.47831	9.76869
 422	1	5	0.06146	6.76335	0.908617	13.7086
 423	1	5	0.068364	8.32819	0.598841	11.6762
 424	1	5	0.055799	5.12312	2.40965	10.5893
 425	1	5	0.04347	5.80223	4.0267	10.8676
 426	1	5	0.076294	5.04315	2.9816	13.2183
 427	1	5	0.058767	1.84304	-1.98337	10.5472
 428	1	5	0.056756	3.48223	-2.66788	8.68382
 429	1	5	0.029415	3.83987	-0.563049	7.0165
 430	1	5	0.049793	2.2718	1.39221	7.88046
 431	1	5	0.063468	3.5512	1.08801	9.08038
 432	1	5	-0.012542	1.42834	-0.569118	6.26725
 433	1	5	-0.012458	-0.0467934	0.149848	8.03414
 434	1	5	0.013933	1.17975	0.654211	10.1644
 435	1	5	0.014892	6.33	-1.6088	7.95254
 436	1	5	0.04353	7.01286	0.257299	6.61351
 437	1	5	0.048722	7.19295	1.32166	8.01177
 438	1	5	0.053734	5.58115	0.806182	7.50481
 439	1	5	0.029251	8.7101	-0.254582	9.32631
 440	1	5	0.025572	8.75494	-1.29514	7.89156
 441	1	5	0.023611	8.29008	-1.97639	9.46345
 442	1	5	0.021405	3.75539	0.694153	14.0117
 443	1	5	0.009991	1.59127	-0.320038	14.5048
 444	1	5	0.026343	2.70928	-1.57008	13.9229
 445	1	5	0.026093	1.44308	-0.937819	12.8471
 446	1	5	0.043016	1.52727	1.4907	12.0913
 447	1	5	0.050907	3.02128	2.42885	12.2432
 448	1	5	0.051325	1.95721	2.20139	13.6456
 449	1	1	-0.439951	5.8729	18.0759	10.2506
 450	1	1	0.043044	5.37258	17.2675	9.20921
 451	1	1	0.126458	7.60653	18.7143	8.62105
 452	1	1	0.016683	6.05537	17.0694	8.01371
 453	1	1	0.121946	6.97436	18.8529	9.84207
 454	1	2	0.005505	5.42438	15.7085	7.76225
 455	1	1	-0.445809	7.26071	17.7212	7.68257
 456	1	2	0.001585	4.61184	15.9575	9.10278
 457	1	3	0.031166	5.05478	14.8087	10.0399
 458	1	2	-0.048351	5.13897	13.4025	8.01286
 459	1	1	-0.041771	5.4072	12.0225	8.59621
 460	1	2	-0.107179	4.27868	13.6648	9.32629
 461	1	3	-0.106774	6.5325	14.5634	9.61941
 462	1	3	-0.025838	6.28113	14.4504	8.08966
 463	1	1	-0.051955	4.63142	12.2408	9.72064
 464	1	1	-0.09124	5.49188	10.3086	10.7072
 465	1	1	-0.099966	6.32053	10.1277	9.6088
 466	1	1	-0.017311	6.39025	11.0178	8.51367
 467	1	1	-0.020587	4.67527	11.4489	10.8851
 468	1	2	-0.042503	7.16245	9.05903	10.2912
 469	1	2	0.004295	6.19509	9.24041	11.5373
 470	1	3	0.00226	7.15246	9.69209	12.6663
 471	1	3	-0.145049	8.16522	10.5617	11.8955
 472	1	3	0.011953	8.107	8.54115	13.1013
 473	1	3	0.014921	9.07785	8.38581	11.8541
 474	1	3	0.025749	8.5444	9.46601	10.8716
 475	1	3	0.154129	3.89527	11.8138	12.1479
 476	1	3	-0.203386	3.24403	10.583	12.8163
 477	1	3	-0.113237	4.73385	12.6173	13.1656
 478	1	3	0.129534	7.3884	10.9511	7.36087
 479	1	3	-0.091829	7.59673	9.5125	6.84034
 480	1	3	-0.19809	8.73443	11.6211	7.70681
 481	1	4	0.228684	5.52465	18.0202	11.2769
 482	1	5	0.042843	4.84329	15.6323	6.8358
 483	1	4	0.232532	7.90904	17.4143	6.868
 484	1	5	0.035382	3.52502	16.0683	9.01093
 485	1	5	0.041247	4.85628	14.9616	11.1058
 486	1	5	0.06146	4.59924	13.3973	7.05826
 487	1	5	0.068364	3.20696	13.8544	9.19182
 488	1	5	0.055799	6.95249	13.6483	10.0563
 489	1	5	0.04347	7.19583	15.3969	9.87275
 490	1	5	0.076294	7.15667	14.2789	7.45248
 491	1	5	0.058767	7.1614	8.07801	9.80377
 492	1	5	0.056756	5.57814	8.37709	11.8103
 493	1	5	0.029415	6.67204	10.1855	13.516
 494	1	5	0.049793	9.0013	10.8666	12.5308
 495	1	5	0.063468	7.72845	11.4606	11.4414
 496	1	5	-0.012542	8.65491	8.7214	14.0358
 497	1	5	-0.012458	10.1353	8.48791	12.131
 498	1	5	0.013933	9.29373	9.76954	10.136
 499	1	5	0.014892	3.07058	12.4693	11.8377
 500	1	5	0.04353	4.00067	9.91052	13.2374
 501	1	5	0.048722	2.64941	10.0179	12.0874
 502	1	5	0.053734	2.57606	10.8928	13.6297
 503	1	5	0.029251	5.49009	11.9942	13.6487
 504	1	5	0.025572	4.08898	13.0302	13.9516
 505	1	5	0.023611	5.25086	13.4513	12.682
 506	1	5	0.021405	6.95794	11.524	6.52893
 507	1	5	0.009991	6.63262	9.04083	6.6115
 508	1	5	0.026343	8.11588	8.89171	7.58042
 509	1	5	0.026093	8.19658	9.51773	5.9217
 510	1	5	0.043016	8.57093	12.5823	8.20491
 511	1	5	0.050907	9.32139	11.8002	6.79746
 512	1	5	0.051325	9.33593	10.9972	8.37196
 513	1	1	-0.439951	14.383	8.67214	11.6031
 514	1	1	0.043044	13.8582	9.84876	12.1679
 515	1	1	0.126458	13.606	7.53655	13.6229
 516	1	1	0.016683	13.1854	9.85915	13.3926
 517	1	1	0.121946	14.3286	7.53805	12.4333
 518	1	2	0.005505	12.1943	10.9145	12.9433
 519	1	1	-0.445809	12.9394	8.67455	14.1099
 520	1	2	0.001585	12.9349	10.8834	11.5513
 521	1	3	0.031166	13.4704	12.3275	11.3791
 522	1	2	-0.048351	11.3613	13.0185	12.4687
 523	1	1	-0.041771	11.3501	14.5311	12.3146
 524	1	2	-0.107179	12.095	12.9749	11.0713
 525	1	3	-0.106774	13.7617	12.7814	12.8344
 526	1	3	-0.025838	12.3904	12.3745	13.4388
 527	1	1	-0.051955	12.0105	14.4874	11.0896
 528	1	1	-0.09124	10.979	16.5034	10.4439
 529	1	1	-0.099966	10.3286	16.5639	11.674
 530	1	1	-0.017311	10.3846	15.5169	12.6145
 531	1	1	-0.020587	11.7797	15.4102	10.0563
 532	1	2	-0.042503	9.17362	17.3926	11.1341
 533	1	2	0.004295	9.8962	17.3008	9.73804
 534	1	3	0.00226	10.1718	18.7795	9.38783
 535	1	3	-0.145049	10.4556	19.4019	10.7733
 536	1	3	0.011953	8.83504	19.5041	9.05186
 537	1	3	0.014921	8.1242	19.6282	10.4672
 538	1	3	0.025749	9.13858	18.9159	11.4174
 539	1	3	0.154129	12.2164	15.1086	8.62289
 540	1	3	-0.203386	11.0393	14.7151	7.70658
 541	1	3	-0.113237	13.0408	16.2628	8.0154
 542	1	3	0.129534	9.33981	15.3875	13.7242
 543	1	3	-0.091829	9.93196	14.8126	15.0302
 544	1	3	-0.19809	8.10026	14.5764	13.2808
 545	1	4	0.228684	14.5298	8.57683	10.5321
 546	1	5	0.042843	11.1561	10.5749	12.9872
 547	1	4	0.232532	12.0848	8.58322	14.7731
 548	1	5	0.035382	12.3796	10.5157	10.6799
 549	1	5	0.041247	14.2666	12.4766	10.6391
 550	1	5	0.06146	10.3648	12.579	12.5378
 551	1	5	0.068364	11.5692	12.5116	10.2271
 552	1	5	0.055799	13.956	13.859	12.9109
 553	1	5	0.04347	14.6026	12.2402	13.2869
 554	1	5	0.076294	12.2479	12.5557	14.5112
 555	1	5	0.058767	8.18953	16.9317	11.2385
 556	1	5	0.056756	9.38172	16.7624	8.94032
 557	1	5	0.029415	10.962	18.9433	8.64533
 558	1	5	0.049793	10.5357	20.4979	10.7406
 559	1	5	0.063468	11.355	19.0012	11.259
 560	1	5	-0.012542	8.95109	20.4794	8.5611
 561	1	5	-0.012458	7.89487	20.6693	10.7302
 562	1	5	0.013933	9.0225	19.1862	12.4744
 563	1	5	0.014892	12.8851	14.2383	8.65753
 564	1	5	0.04353	11.407	14.2129	6.80312
 565	1	5	0.048722	10.4636	15.5915	7.38995
 566	1	5	0.053734	10.3663	14.0269	8.22894
 567	1	5	0.029251	13.3971	15.9987	7.0118
 568	1	5	0.025572	13.9173	16.4787	8.63936
 569	1	5	0.023611	12.4438	17.1784	7.9356
 570	1	5	0.021405	8.98987	16.4003	13.9642
 571	1	5	0.009991	10.8478	15.3477	15.3116
 572	1	5	0.026343	10.1714	13.7485	14.9251
 573	1	5	0.026093	9.21544	14.9134	15.8549
 574	1	5	0.043016	8.36704	13.549	13.0112
 575	1	5	0.050907	7.61868	15.0385	12.4125
 576	1	5	0.051325	7.35895	14.5321	14.0884
 577	1	1	-0.439951	17.9492	-2.93901	17.5424
 578	1	1	0.043044	17.767	-2.12966	16.4185
 579	1	1	0.126458	20.1423	-3.52709	16.6011
 580	1	1	0.016683	18.6799	-2.06801	15.3922
 581	1	1	0.121946	19.1909	-3.60996	17.6657
 582	1	2	0.005505	17.6301	-1.7326	14.3368
 583	1	1	-0.445809	19.8655	-2.80693	15.4151
 584	1	2	0.001585	16.5877	-1.78669	15.5274
 585	1	3	0.031166	15.9228	-0.381086	15.5139
 586	1	2	-0.048351	18.0693	0.613215	14.7905
 587	1	1	-0.041771	17.7211	2.09409	14.7117
 588	1	2	-0.107179	17.0645	0.550332	16.0164
 589	1	3	-0.106774	15.8992	-0.117993	13.982
 590	1	3	-0.025838	17.4217	-0.311347	13.7279
 591	1	1	-0.051955	16.8657	2.03985	15.7981
 592	1	1	-0.09124	15.9747	4.12061	15.2188
 593	1	1	-0.099966	16.7766	4.14434	14.0849
 594	1	1	-0.017311	17.6456	3.09002	13.7162
 595	1	1	-0.020587	15.8727	2.99851	16.0703
 596	1	2	-0.042503	15.9907	5.2802	13.4326
 597	1	2	0.004295	15.103	5.27234	14.747
 598	1	3	0.00226	13.6882	4.93729	14.2261
 599	1	3	-0.145049	13.9872	3.96818	13.0612
 600	1	3	0.011953	13.0998	6.11982	13.4171
 601	1	3	0.014921	13.9499	6.1073	12.095
 602	1	3	0.025749	14.9474	4.93517	12.3314
 603	1	3	0.154129	14.8211	2.77959	17.1573
 604	1	3	-0.203386	14.5632	4.04989	17.9968
 605	1	3	-0.113237	13.5001	2.18266	16.6187
 606	1	3	0.129534	18.4638	3.00325	12.4283
 607	1	3	-0.091829	19.2131	4.32031	12.1307
 608	1	3	-0.19809	17.6448	2.53905	11.2049
 609	1	4	0.228684	17.136	-3.12104	18.2384
 610	1	5	0.042843	17.5009	-2.49756	13.5632
 611	1	4	0.232532	20.4999	-2.89555	14.5389
 612	1	5	0.035382	15.8246	-2.56915	15.4517
 613	1	5	0.041247	14.9646	-0.309131	16.0403
 614	1	5	0.06146	19.1283	0.409086	14.9858
 615	1	5	0.068364	17.4702	0.2951	17.0017
 616	1	5	0.055799	15.5422	0.886336	13.7232
 617	1	5	0.04347	15.2904	-0.856003	13.4423
 618	1	5	0.076294	17.7662	-0.178955	12.6954
 619	1	5	0.058767	16.5583	6.19434	13.2265
 620	1	5	0.056756	15.1386	6.17274	15.3704
 621	1	5	0.029415	12.9905	4.56228	14.977
 622	1	5	0.049793	13.0931	3.72297	12.4703
 623	1	5	0.063468	14.4613	3.0305	13.3752
 624	1	5	-0.012542	12.0226	6.04343	13.2165
 625	1	5	-0.012458	13.3201	5.99729	11.2019
 626	1	5	0.013933	15.3584	4.54253	11.3984
 627	1	5	0.014892	15.2351	2.03272	17.8475
 628	1	5	0.04353	13.8949	3.82877	18.8382
 629	1	5	0.048722	14.1002	4.8399	17.3937
 630	1	5	0.053734	15.5051	4.4386	18.4041
 631	1	5	0.029251	12.7817	2.95972	16.3461
 632	1	5	0.025572	13.0229	1.56232	17.3873
 633	1	5	0.023611	13.673	1.55746	15.7353
 634	1	5	0.021405	19.2358	2.23941	12.5904
 635	1	5	0.009991	19.9171	4.18684	11.2996
 636	1	5	0.026343	19.7855	4.64491	13.009
 637	1	5	0.026093	18.5156	5.1229	11.8614
 638	1	5	0.043016	18.3149	2.2096	10.4009
 639	1	5	0.050907	17.0322	3.35031	10.8045
 640	1	5	0.051325	16.9847	1.70291	11.4626