pySIMM System Object

974 atoms
1117 bonds
2340 angles
4278 dihedrals
60 impropers

5 atom types
9 bond types
18 angle types
19 dihedral types
2 improper types

-134.293585 134.293585 xlo xhi
-134.293585 134.293585 ylo yhi
-134.293585 134.293585 zlo zhi

Masses

   1	12.01	# ca
   2	12.01	# cy
   3	12.01	# c3
   4	1.008	# ha
   5	1.008	# hc

Pair Coeffs

   1	0.086	3.3996695084235347	# ca
   2	0.086	3.3996695084235347	# cy
   3	0.1094	3.3996695084235347	# c3
   4	0.015	2.59964245953351	# ha
   5	0.0157	2.649532787749369	# hc

Bond Coeffs

   1	300.9	1.5375	# c3,c3
   2	305.9	1.5319	# c3,cy
   3	345.8	1.086	# ca,ha
   4	321.0	1.5156	# c3,ca
   5	285.0	1.5562	# cy,cy
   6	330.6	1.0969	# c3,hc
   7	333.3	1.0949	# cy,hc
   8	321.2	1.5154	# ca,cy
   9	461.1	1.3984	# ca,ca

Angle Coeffs

   1	66.62	120.02	# ca,ca,ca
   2	61.4	116.81	# ca,cy,cy
   3	44.83	114.79	# cy,cy,hc
   4	46.43	110.14	# c3,cy,hc
   5	63.15	112.07	# c3,c3,ca
   6	46.34	109.8	# c3,c3,hc
   7	39.4	107.58	# hc,c3,hc
   8	48.18	119.88	# ca,ca,ha
   9	63.53	120.77	# c3,ca,ca
  10	60.66	118.7	# c3,cy,cy
  11	63.51	120.86	# ca,ca,cy
  12	62.73	112.39	# c3,c3,cy
  13	46.29	110.75	# cy,c3,hc
  14	46.8	110.47	# ca,c3,hc
  15	62.8	113.57	# c3,cy,ca
  16	62.86	111.51	# c3,c3,c3
  17	67.9	96.03	# cy,c3,cy
  18	45.97	114.53	# ca,cy,hc

Dihedral Coeffs

   1	1	0.16	3	0.0	# hc,c3,cy,cy
   2	1	0.16	3	0.0	# cy,c3,cy,hc
   3	1	0.16	3	0.0	# c3,c3,cy,hc
   4	1	0.15	3	0.0	# hc,c3,cy,hc
   5	1	3.625	2	180	# X,ca,ca,X
   6	1	0.15555555555555556	3	0	# X,cy,cy,X
   7	3	0.18	3	0	0.25	2	180	0.2	1	180	# c3,c3,c3,c3
   8	1	0.16	3	0	# hc,c3,c3,c3
   9	1	0.0	2	0.0	# ca,ca,cy,cy
  10	1	0.0	2	0.0	# ca,ca,cy,c3
  11	1	0.15555555555555556	3	0	# X,c3,c3,X
  12	1	0.0	2	0	# X,c3,ca,X
  13	3	0.38	3	180.0	0.0	2	0.0	1.15	1	0.0	# ca,ca,cy,hc
  14	3	0.18	3	0.0	0.25	2	180.0	0.2	1	180.0	# cy,c3,cy,cy
  15	1	0.16	3	0.0	# cy,c3,cy,ca
  16	1	0.16	3	0.0	# c3,c3,cy,ca
  17	1	0.16	3	0.0	# hc,c3,cy,ca
  18	1	0.15	3	0	# hc,c3,c3,hc
  19	3	0.18	3	0.0	0.25	2	180.0	0.2	1	180.0	# c3,c3,cy,cy

Improper Coeffs

   1	1.1	-1	2	# ca,ca,ca,c3
   2	1.1	-1	2	# ca,X,X,ha

Atoms

   1	1	1	-0.439951	9.39259	-21.0896	15.9383
   2	1	1	0.043044	9.68318	-22.2388	16.6977
   3	1	1	0.126458	8.86268	-20.0143	18.0814
   4	1	1	0.016683	9.43119	-22.3068	18.0685
   5	1	1	0.121946	9.08329	-19.9572	16.712
   6	1	2	0.005505	9.08358	-23.7856	18.0241
   7	1	1	-0.445809	8.89702	-21.2253	18.7966
   8	1	2	0.001585	9.38178	-23.7102	16.4747
   9	1	3	0.031166	8.01923	-24.0428	15.8121
  10	1	2	-0.048351	7.69604	-25.634	17.6802
  11	1	1	-0.041771	6.42137	-26.3648	17.2775
  12	1	2	-0.107179	8.01713	-25.5632	16.1227
  13	1	3	-0.106774	6.97961	-23.4758	16.8215
  14	1	3	-0.025838	7.57321	-24.1435	18.0953
  15	1	1	-0.051955	6.70919	-26.3063	15.923
  16	1	1	-0.09124	4.55349	-27.0307	15.4201
  17	1	1	-0.099966	4.26868	-27.102	16.7739
  18	1	1	-0.017311	5.14098	-26.6665	17.7911
  19	1	1	-0.020587	5.76503	-26.5274	14.9007
  20	1	2	-0.042503	2.7853	-27.3447	16.5555
  21	1	2	0.004295	3.10728	-27.2636	15.0044
  22	1	3	0.00226	2.25116	-26.059	14.5471
  23	1	3	-0.145049	2.29591	-25.1097	15.7622
  24	1	3	0.011953	0.762179	-26.487	14.5883
  25	1	3	0.014921	0.452379	-26.5616	16.1091
  26	1	3	0.025749	1.80049	-26.1717	16.7656
  27	1	3	0.154129	6.0589	-26.2408	13.4294
  28	1	3	-0.203386	5.50698	-27.338	12.4926
  29	1	3	-0.113237	5.56534	-24.8439	12.9932
  30	1	3	0.129534	4.70889	-26.5391	19.2506
  31	1	3	-0.091829	4.19666	-25.1207	19.5852
  32	1	3	-0.19809	5.81456	-26.975	20.238
  33	1	4	0.228684	9.20652	-21.1295	14.87
  34	1	5	0.042843	9.73206	-24.4325	18.6265
  35	1	4	0.232532	8.36535	-21.3591	19.7332
  36	1	5	0.035382	10.2246	-24.3014	16.098
  37	1	5	0.041247	7.90904	-23.7483	14.7624
  38	1	5	0.06146	8.38441	-26.2191	18.3017
  39	1	5	0.068364	8.90744	-26.0986	15.7718
  40	1	5	0.055799	5.95389	-23.8017	16.6061
  41	1	5	0.04347	6.98307	-22.3799	16.8713
  42	1	5	0.076294	7.08072	-23.9277	19.0485
  43	1	5	0.058767	2.3995	-28.3016	16.9243
  44	1	5	0.056756	2.91821	-28.1717	14.4212
  45	1	5	0.029415	2.54252	-25.6101	13.5925
  46	1	5	0.049793	1.60713	-24.2588	15.6655
  47	1	5	0.063468	3.30138	-24.729	15.9852
  48	1	5	-0.012542	0.597571	-27.4491	14.0862
  49	1	5	-0.012458	0.121345	-27.5629	16.4136
  50	1	5	0.013933	1.69815	-25.8258	17.8003
  51	1	5	0.014892	7.1499	-26.2435	13.3064
  52	1	5	0.04353	5.85295	-28.329	12.8127
  53	1	5	0.048722	5.8498	-27.1762	11.4631
  54	1	5	0.053734	4.41063	-27.3424	12.4861
  55	1	5	0.029251	5.92272	-24.6073	11.9832
  56	1	5	0.025572	5.93061	-24.0657	13.6717
  57	1	5	0.023611	4.47362	-24.7891	12.983
  58	1	5	0.021405	3.86516	-27.2248	19.4033
  59	1	5	0.009991	3.78849	-25.0869	20.6031
  60	1	5	0.026343	3.40442	-24.8143	18.8943
  61	1	5	0.026093	4.99594	-24.3781	19.5191
  62	1	5	0.043016	6.66285	-26.2808	20.2213
  63	1	5	0.050907	6.1844	-27.9768	19.9858
  64	1	5	0.051325	5.42585	-27.0064	21.2635
  65	1	1	-0.439951	12.8282	-8.29332	19.4876
  66	1	1	0.043044	12.2013	-9.29093	18.7097
  67	1	1	0.126458	14.081	-7.74638	17.457
  68	1	1	0.016683	12.4014	-9.37899	17.3341
  69	1	1	0.121946	13.8662	-7.60481	18.8233
  70	1	2	0.005505	10.9894	-9.84204	17.0538
  71	1	1	-0.445809	13.2779	-8.54374	16.628
  72	1	2	0.001585	10.7666	-9.79542	18.6191
  73	1	3	0.031166	10.4995	-11.2865	18.9849
  74	1	2	-0.048351	9.27195	-11.3616	16.8375
  75	1	1	-0.041771	8.60725	-12.7192	16.8354
  76	1	2	-0.107179	9.05483	-11.3706	18.4162
  77	1	3	-0.106774	11.3306	-12.0785	17.9367
  78	1	3	-0.025838	10.8133	-11.3298	16.676
  79	1	1	-0.051955	8.42528	-12.7441	18.2072
  80	1	1	-0.09124	7.67148	-14.9397	18.0461
  81	1	1	-0.099966	7.86232	-14.9086	16.6744
  82	1	1	-0.017311	8.43966	-13.8255	15.9835
  83	1	1	-0.020587	8.03551	-13.8973	18.9224
  84	1	2	-0.042503	7.56329	-16.3858	16.496
  85	1	2	0.004295	7.33896	-16.423	18.0711
  86	1	3	0.00226	8.40623	-17.4394	18.5445
  87	1	3	-0.145049	9.57754	-17.1662	17.5717
  88	1	3	0.011953	7.90255	-18.8363	18.0732
  89	1	3	0.014921	8.13894	-18.7868	16.5134
  90	1	3	0.025749	8.73623	-17.3726	16.2906
  91	1	3	0.154129	8.02316	-14.0457	20.4405
  92	1	3	-0.203386	9.40827	-14.4743	20.9706
  93	1	3	-0.113237	7.52237	-12.7746	21.161
  94	1	3	0.129534	8.86135	-13.8187	14.5165
  95	1	3	-0.091829	7.86052	-14.56	13.6025
  96	1	3	-0.19809	10.291	-14.3748	14.3366
  97	1	4	0.228684	12.406	-7.93817	20.4223
  98	1	5	0.042843	10.4114	-9.1551	16.4239
  99	1	4	0.232532	13.1794	-8.35957	15.5629
 100	1	5	0.035382	10.0146	-9.10369	19.0164
 101	1	5	0.041247	10.637	-11.5601	20.0374
 102	1	5	0.06146	8.73631	-10.5968	16.2619
 103	1	5	0.068364	8.37127	-10.6173	18.8256
 104	1	5	0.055799	11.0893	-13.1494	17.924
 105	1	5	0.04347	12.413	-11.9697	18.0832
 106	1	5	0.076294	11.2225	-11.6363	15.7063
 107	1	5	0.058767	6.69143	-16.621	15.8752
 108	1	5	0.056756	6.3287	-16.6745	18.4131
 109	1	5	0.029415	8.66465	-17.3897	19.6091
 110	1	5	0.049793	10.408	-17.8768	17.6726
 111	1	5	0.063468	9.99198	-16.1534	17.6609
 112	1	5	-0.012542	6.87218	-19.0886	18.3572
 113	1	5	-0.012458	7.24457	-19.0225	15.9212
 114	1	5	0.013933	9.28544	-17.2701	15.3485
 115	1	5	0.014892	7.31877	-14.8495	20.6915
 116	1	5	0.04353	9.73958	-15.4007	20.4868
 117	1	5	0.048722	9.37366	-14.6508	22.0528
 118	1	5	0.053734	10.163	-13.7053	20.7734
 119	1	5	0.029251	8.22952	-11.9447	21.0464
 120	1	5	0.025572	7.39792	-12.9637	22.2346
 121	1	5	0.023611	6.5517	-12.4585	20.7587
 122	1	5	0.021405	8.87865	-12.7734	14.1814
 123	1	5	0.009991	7.85938	-15.6385	13.8006
 124	1	5	0.026343	8.12172	-14.4139	12.5469
 125	1	5	0.026093	6.84232	-14.1804	13.7544
 126	1	5	0.043016	10.3432	-15.4333	14.6101
 127	1	5	0.050907	11.004	-13.8338	14.9686
 128	1	5	0.051325	10.6186	-14.2763	13.2943
 129	1	1	-0.439951	22.9523	-1.05623	16.1646
 130	1	1	0.043044	23.3097	-1.94058	17.201
 131	1	1	0.126458	22.9992	0.668531	17.9205
 132	1	1	0.016683	23.3122	-1.57506	18.5431
 133	1	1	0.121946	22.8858	0.279085	16.5989
 134	1	2	0.005505	23.0141	-2.99229	19.0355
 135	1	1	-0.445809	23.0848	-0.254467	18.9863
 136	1	2	0.001585	23.0605	-3.40039	17.5035
 137	1	3	0.031166	21.6415	-3.92372	17.2014
 138	1	2	-0.048351	21.6741	-4.89343	19.4674
 139	1	1	-0.041771	20.3973	-5.73815	19.4528
 140	1	2	-0.107179	21.7989	-5.28491	17.9287
 141	1	3	-0.106774	20.7376	-3.0942	18.1592
 142	1	3	-0.025838	21.549	-3.34175	19.4548
 143	1	1	-0.051955	20.5389	-6.09995	18.1232
 144	1	1	-0.09124	18.3957	-6.99806	18.1283
 145	1	1	-0.099966	18.2306	-6.64328	19.4585
 146	1	1	-0.017311	19.1879	-5.87747	20.1722
 147	1	1	-0.020587	19.5157	-6.67452	17.3447
 148	1	2	-0.042503	16.7201	-6.90975	19.4261
 149	1	2	0.004295	16.9243	-7.25252	17.8919
 150	1	3	0.00226	16.1317	-6.13119	17.1645
 151	1	3	-0.145049	16.2507	-4.94288	18.1392
 152	1	3	0.011953	14.6052	-6.34486	17.2941
 153	1	3	0.014921	14.3345	-6.14859	18.8361
 154	1	3	0.025749	15.7378	-5.71818	19.3737
 155	1	3	0.154129	19.572	-6.97211	15.8461
 156	1	3	-0.203386	19.2443	-5.74883	14.9667
 157	1	3	-0.113237	20.9089	-7.61616	15.4208
 158	1	3	0.129534	18.9754	-5.2308	21.5394
 159	1	3	-0.091829	18.1692	-6.13036	22.5023
 160	1	3	-0.19809	18.3444	-3.82385	21.4323
 161	1	4	0.228684	22.6349	-1.38186	15.1791
 162	1	5	0.042843	23.7805	-3.43065	19.6851
 163	1	4	0.232532	22.8677	0.00356315	20.0178
 164	1	5	0.035382	23.8698	-4.06909	17.1874
 165	1	5	0.041247	21.361	-3.93748	16.1458
 166	1	5	0.06146	22.4614	-5.26432	20.1343
 167	1	5	0.068364	22.678	-5.86893	17.6313
 168	1	5	0.055799	19.7103	-3.47554	18.2151
 169	1	5	0.04347	20.6952	-2.03317	17.9041
 170	1	5	0.076294	21.1784	-2.86561	20.3703
 171	1	5	0.058767	16.3691	-7.72674	20.0661
 172	1	5	0.056756	16.6679	-8.26686	17.5672
 173	1	5	0.029415	16.4487	-5.92166	16.1375
 174	1	5	0.049793	15.5912	-4.11688	17.8525
 175	1	5	0.063468	17.2721	-4.55836	18.2515
 176	1	5	-0.012542	13.9883	-5.68475	16.6692
 177	1	5	-0.012458	13.5371	-5.41563	19.0178
 178	1	5	0.013933	15.6776	-5.12644	20.2929
 179	1	5	0.014892	18.7913	-7.7161	15.6399
 180	1	5	0.04353	20.1055	-5.08551	14.8575
 181	1	5	0.048722	18.421	-5.17418	15.3984
 182	1	5	0.053734	18.9464	-6.0686	13.9605
 183	1	5	0.029251	21.118	-8.50671	16.0267
 184	1	5	0.025572	21.7441	-6.91558	15.5394
 185	1	5	0.023611	20.8716	-7.9237	14.3682
 186	1	5	0.021405	19.9663	-5.09821	21.9933
 187	1	5	0.009991	17.1313	-6.24641	22.168
 188	1	5	0.026343	18.1521	-5.69898	23.511
 189	1	5	0.026093	18.6219	-7.12771	22.5694
 190	1	5	0.043016	17.3015	-3.87428	21.1071
 191	1	5	0.050907	18.8867	-3.20191	20.712
 192	1	5	0.051325	18.3696	-3.31553	22.4043
 193	1	1	-0.439951	10.8076	0.0620174	20.6625
 194	1	1	0.043044	11.8212	-0.86143	20.3345
 195	1	1	0.126458	9.49019	-1.12467	18.9526
 196	1	1	0.016683	11.7335	-1.71436	19.239
 197	1	1	0.121946	9.61505	-0.183838	19.9572
 198	1	2	0.005505	13.2379	-1.76875	19.028
 199	1	1	-0.445809	10.5825	-1.85138	18.4399
 200	1	2	0.001585	13.3372	-0.864243	20.3305
 201	1	3	0.031166	14.0513	0.419285	19.8527
 202	1	2	-0.048351	15.3308	-1.01003	18.3116
 203	1	1	-0.041771	16.3424	-0.00817607	17.7659
 204	1	2	-0.107179	15.4549	-0.226352	19.6774
 205	1	3	-0.106774	13.5312	0.585613	18.3964
 206	1	3	-0.025838	13.8438	-0.855123	17.9125
 207	1	1	-0.051955	16.505	0.621119	18.9944
 208	1	1	-0.09124	18.6607	1.27112	18.3432
 209	1	1	-0.099966	18.4642	0.750252	17.0678
 210	1	1	-0.017311	17.3388	-0.0485855	16.7695
 211	1	1	-0.020587	17.743	1.15212	19.3992
 212	1	2	-0.042503	19.9603	0.607307	16.8017
 213	1	2	0.004295	20.163	1.14061	18.2715
 214	1	3	0.00226	20.9859	2.42827	18.087
 215	1	3	-0.145049	20.441	2.97589	16.7479
 216	1	3	0.011953	22.4331	2.0603	17.6559
 217	1	3	0.014921	22.2476	1.58367	16.1526
 218	1	3	0.025749	20.6986	1.67853	15.9513
 219	1	3	0.154129	18.1666	1.35946	20.8531
 220	1	3	-0.203386	17.0822	2.07063	21.6923
 221	1	3	-0.113237	18.6135	0.039294	21.5221
 222	1	3	0.129534	17.2446	-0.995319	15.5762
 223	1	3	-0.091829	17.9539	-2.33617	15.841
 224	1	3	-0.19809	17.7601	-0.355418	14.2681
 225	1	4	0.228684	10.9653	0.932711	21.2908
 226	1	5	0.042843	13.6801	-2.77013	19.0863
 227	1	4	0.232532	10.5742	-2.34648	17.4741
 228	1	5	0.035382	13.7831	-1.32084	21.2221
 229	1	5	0.041247	13.9818	1.29582	20.5088
 230	1	5	0.06146	15.6803	-2.04235	18.294
 231	1	5	0.068364	15.8046	-0.778435	20.556
 232	1	5	0.055799	14.0752	1.35585	17.8347
 233	1	5	0.04347	12.4635	0.815451	18.3451
 234	1	5	0.076294	13.5834	-1.09686	16.8745
 235	1	5	0.058767	20.2911	-0.401645	16.5556
 236	1	5	0.056756	20.5829	0.463258	19.0188
 237	1	5	0.029415	20.9346	3.13497	18.9246
 238	1	5	0.049793	21.0184	3.83117	16.3694
 239	1	5	0.063468	19.3814	3.26126	16.7855
 240	1	5	-0.012542	23.1602	2.87855	17.7419
 241	1	5	-0.012458	22.8443	2.17792	15.4479
 242	1	5	0.013933	20.3912	1.72558	14.8992
 243	1	5	0.014892	19.0408	2.02361	20.8509
 244	1	5	0.04353	16.7699	3.00381	21.207
 245	1	5	0.048722	17.4674	2.32018	22.6888
 246	1	5	0.053734	16.1969	1.43792	21.8225
 247	1	5	0.029251	19.0089	0.230325	22.5275
 248	1	5	0.025572	19.4029	-0.448147	20.9372
 249	1	5	0.023611	17.7806	-0.665527	21.618
 250	1	5	0.021405	16.1819	-1.22222	15.4186
 251	1	5	0.009991	19.0409	-2.21282	15.8976
 252	1	5	0.026343	17.7342	-3.04106	15.0311
 253	1	5	0.026093	17.6093	-2.77615	16.7822
 254	1	5	0.043016	18.8428	-0.18688	14.3068
 255	1	5	0.050907	17.2685	0.608759	14.0885
 256	1	5	0.051325	17.5523	-1.00783	13.4108
 257	1	1	-0.439951	5.15704	6.79491	10.6496
 258	1	1	0.043044	5.99222	6.69706	11.7709
 259	1	1	0.126458	5.31055	9.21658	10.9569
 260	1	1	0.016683	6.47218	7.80206	12.4742
 261	1	1	0.121946	4.73192	8.09997	10.359
 262	1	2	0.005505	7.75787	7.09584	12.8768
 263	1	1	-0.445809	6.26428	9.1102	11.9895
 264	1	2	0.001585	7.25545	5.89234	11.9889
 265	1	3	0.031166	7.16939	4.69682	12.9549
 266	1	2	-0.048351	9.13888	5.66134	14.0839
 267	1	1	-0.041771	9.49268	4.54779	15.0617
 268	1	2	-0.107179	8.70618	4.489	13.0936
 269	1	3	-0.106774	6.74571	5.36274	14.2936
 270	1	3	-0.025838	7.83455	6.47077	14.3064
 271	1	1	-0.051955	9.17575	3.53813	14.17
 272	1	1	-0.09124	9.56907	1.95579	15.8098
 273	1	1	-0.099966	9.76267	2.95791	16.7444
 274	1	1	-0.017311	9.69495	4.33701	16.4424
 275	1	1	-0.020587	9.1434	2.16888	14.4896
 276	1	2	-0.042503	9.69546	1.99512	17.9304
 277	1	2	0.004295	9.50805	0.858186	16.8385
 278	1	3	0.00226	8.11629	0.26779	17.1477
 279	1	3	-0.145049	7.34287	1.50268	17.6657
 280	1	3	0.011953	8.17009	-0.561391	18.4561
 281	1	3	0.014921	8.33569	0.547015	19.5808
 282	1	3	0.025749	8.38008	1.87383	18.751
 283	1	3	0.154129	8.71918	1.02894	13.5668
 284	1	3	-0.203386	7.18701	0.922653	13.4148
 285	1	3	-0.113237	9.41345	1.10462	12.1901
 286	1	3	0.129534	9.82937	5.47542	17.448
 287	1	3	-0.091829	10.9412	5.20778	18.4875
 288	1	3	-0.19809	8.48696	5.79508	18.1382
 289	1	4	0.228684	5.08955	5.99773	9.91628
 290	1	5	0.042843	8.67404	7.61498	12.5718
 291	1	4	0.232532	6.96874	9.90985	12.1948
 292	1	5	0.035382	7.79744	5.66629	11.0627
 293	1	5	0.041247	6.56546	3.85244	12.6108
 294	1	5	0.06146	9.99377	6.27639	13.7783
 295	1	5	0.068364	9.24906	4.40854	12.1442
 296	1	5	0.055799	6.82037	4.67791	15.1483
 297	1	5	0.04347	5.7266	5.76974	14.2649
 298	1	5	0.076294	7.82369	7.16816	15.1532
 299	1	5	0.058767	10.5917	1.95486	18.5534
 300	1	5	0.056756	10.3045	0.11536	16.7438
 301	1	5	0.029415	7.63815	-0.256965	16.3118
 302	1	5	0.049793	6.35982	1.24466	18.0842
 303	1	5	0.063468	7.20034	2.28552	16.9092
 304	1	5	-0.012542	7.29784	-1.20519	18.63
 305	1	5	-0.012458	7.53538	0.498269	20.3308
 306	1	5	0.013933	8.11967	2.75974	19.3404
 307	1	5	0.014892	9.05101	0.0913955	14.0318
 308	1	5	0.04353	6.79708	1.70606	12.7598
 309	1	5	0.048722	6.68839	1.00641	14.3882
 310	1	5	0.053734	6.91193	-0.0433164	12.9736
 311	1	5	0.029251	10.5037	1.13566	12.3106
 312	1	5	0.025572	9.10402	1.99887	11.6362
 313	1	5	0.023611	9.1649	0.226049	11.5818
 314	1	5	0.021405	10.1271	6.37457	16.8927
 315	1	5	0.009991	11.8873	4.9623	17.988
 316	1	5	0.026343	10.6768	4.37455	19.1495
 317	1	5	0.026093	11.1096	6.09384	19.112
 318	1	5	0.043016	8.57956	6.68785	18.7693
 319	1	5	0.050907	8.16043	4.96377	18.7716
 320	1	5	0.051325	7.70304	5.98435	17.3952
 321	1	1	-0.439951	0.630333	14.4879	2.63781
 322	1	1	0.043044	-0.413442	14.1819	3.54263
 323	1	1	0.126458	-0.0994257	12.4675	1.45292
 324	1	1	0.016683	-1.1969	13.0338	3.43227
 325	1	1	0.121946	0.657326	13.6188	1.52577
 326	1	2	0.005505	-1.51787	12.9913	4.90729
 327	1	1	-0.445809	-1.00076	12.0512	2.44419
 328	1	2	0.001585	-0.637639	14.3016	5.05099
 329	1	3	0.031166	0.52491	13.8641	5.98956
 330	1	2	-0.048351	-1.14062	12.4502	7.12053
 331	1	1	-0.041771	-0.381894	11.8585	8.2887
 332	1	2	-0.107179	-0.272722	13.7646	7.33143
 333	1	3	-0.106774	0.737698	12.3818	5.59002
 334	1	3	-0.025838	-0.742636	11.9292	5.72024
 335	1	1	-0.051955	0.353693	13.0128	8.51154
 336	1	1	-0.09124	1.80403	11.8044	9.91564
 337	1	1	-0.099966	1.145	10.6311	9.56115
 338	1	1	-0.017311	0.0361985	10.5731	8.68998
 339	1	1	-0.020587	1.52639	13.0454	9.3
 340	1	2	-0.042503	2.36082	9.75988	9.82901
 341	1	2	0.004295	3.08054	11.0741	10.323
 342	1	3	0.00226	4.30703	11.1801	9.3935
 343	1	3	-0.145049	3.72662	10.6982	8.04803
 344	1	3	0.011953	5.31343	10.0206	9.65735
 345	1	3	0.014921	4.58791	8.77542	9.0211
 346	1	3	0.025749	3.21491	9.34518	8.59338
 347	1	3	0.154129	2.42621	14.2622	9.51047
 348	1	3	-0.203386	3.2605	14.6514	8.27194
 349	1	3	-0.113237	1.62017	15.469	10.0364
 350	1	3	0.129534	-0.609745	9.27779	8.1699
 351	1	3	-0.091829	-2.15394	9.39343	8.13505
 352	1	3	-0.19809	-0.245014	8.02147	8.99981
 353	1	4	0.228684	1.39246	15.2358	2.83079
 354	1	5	0.042843	-2.58418	13.0717	5.14999
 355	1	4	0.232532	-1.40217	11.0445	2.50497
 356	1	5	0.035382	-1.15576	15.2111	5.37637
 357	1	5	0.041247	1.41108	14.5037	5.96638
 358	1	5	0.06146	-2.22168	12.54	7.28213
 359	1	5	0.068364	-0.818125	14.6782	7.59519
 360	1	5	0.055799	1.40191	11.8475	6.27075
 361	1	5	0.04347	1.13849	12.2786	4.57778
 362	1	5	0.076294	-0.962405	10.8791	5.49321
 363	1	5	0.058767	2.22544	8.9642	10.5697
 364	1	5	0.056756	3.33864	11.1263	11.3865
 365	1	5	0.029415	4.77688	12.1703	9.35565
 366	1	5	0.049793	4.49233	10.6027	7.26864
 367	1	5	0.063468	2.93623	11.3408	7.65848
 368	1	5	-0.012542	6.30852	10.1761	9.21913
 369	1	5	-0.012458	5.15606	8.30447	8.21325
 370	1	5	0.013933	2.69704	8.71903	7.8592
 371	1	5	0.014892	3.1454	14.0022	10.2981
 372	1	5	0.04353	4.10597	15.2847	8.56853
 373	1	5	0.048722	2.66252	15.224	7.55789
 374	1	5	0.053734	3.66188	13.7654	7.766
 375	1	5	0.029251	0.904537	15.8246	9.28474
 376	1	5	0.025572	2.28756	16.3004	10.295
 377	1	5	0.023611	1.05836	15.1924	10.9377
 378	1	5	0.021405	-0.26533	9.10421	7.14337
 379	1	5	0.009991	-2.61732	8.43322	7.87552
 380	1	5	0.026343	-2.48751	10.121	7.38833
 381	1	5	0.026093	-2.54244	9.70345	9.1138
 382	1	5	0.043016	-0.792267	7.1419	8.63807
 383	1	5	0.050907	-0.496756	8.16449	10.0586
 384	1	5	0.051325	0.819253	7.78115	8.92439
 385	1	1	-0.439951	8.78845	5.42462	6.76705
 386	1	1	0.043044	8.74999	6.82401	6.66503
 387	1	1	0.126458	11.0445	5.64656	5.82158
 388	1	1	0.016683	9.76127	7.60127	6.11063
 389	1	1	0.121946	10.0398	4.89989	6.41146
 390	1	2	0.005505	8.8226	8.78027	5.82398
 391	1	1	-0.445809	10.9237	7.02898	5.5441
 392	1	2	0.001585	7.67523	7.83728	6.37921
 393	1	3	0.031166	6.79324	7.55146	5.1286
 394	1	2	-0.048351	7.12084	9.96925	4.71018
 395	1	1	-0.041771	6.16295	10.3119	3.5712
 396	1	2	-0.107179	6.04568	8.8912	5.14208
 397	1	3	-0.106774	7.75841	7.72476	3.92304
 398	1	3	-0.025838	8.37143	9.08208	4.36723
 399	1	1	-0.051955	5.28879	9.28112	3.88928
 400	1	1	-0.09124	3.60527	10.2122	2.55099
 401	1	1	-0.099966	4.40013	11.3394	2.39575
 402	1	1	-0.017311	5.67739	11.4972	2.9715
 403	1	1	-0.020587	3.94975	9.19978	3.4686
 404	1	2	-0.042503	3.21934	12.2427	2.0705
 405	1	2	0.004295	2.32824	10.9413	2.16066
 406	1	3	0.00226	1.80785	10.7752	0.702399
 407	1	3	-0.145049	2.96822	11.3469	-0.141482
 408	1	3	0.011953	0.739034	11.8549	0.353616
 409	1	3	0.014921	1.5782	13.2044	0.376893
 410	1	3	0.025749	3.03535	12.6972	0.610787
 411	1	3	0.154129	2.97487	8.19937	4.0802
 412	1	3	-0.203386	1.97379	8.86793	5.04548
 413	1	3	-0.113237	2.24487	7.37821	2.998
 414	1	3	0.129534	6.30872	12.877	3.12948
 415	1	3	-0.091829	7.83046	12.8785	2.86542
 416	1	3	-0.19809	5.97315	13.483	4.51059
 417	1	4	0.228684	7.91011	4.81112	6.93949
 418	1	5	0.042843	9.0413	9.68263	6.40669
 419	1	4	0.232532	11.5806	7.55935	4.86199
 420	1	5	0.035382	7.13932	8.191	7.26436
 421	1	5	0.041247	6.17188	6.65023	5.15457
 422	1	5	0.06146	7.3392	10.7868	5.40576
 423	1	5	0.068364	5.48228	9.05541	6.06246
 424	1	5	0.055799	7.23805	7.78684	2.95856
 425	1	5	0.04347	8.50115	6.92353	3.8573
 426	1	5	0.076294	9.12553	9.5218	3.70237
 427	1	5	0.058767	3.03756	13.0458	2.79208
 428	1	5	0.056756	1.52347	10.9106	2.89527
 429	1	5	0.029415	1.50906	9.75473	0.432015
 430	1	5	0.049793	2.70839	11.4631	-1.20347
 431	1	5	0.063468	3.89082	10.7557	-0.0764724
 432	1	5	-0.012542	0.215396	11.6998	-0.599037
 433	1	5	-0.012458	1.44192	13.7831	-0.546123
 434	1	5	0.013933	3.80859	13.382	0.240856
 435	1	5	0.014892	3.56033	7.4872	4.67657
 436	1	5	0.04353	1.49003	8.11321	5.67756
 437	1	5	0.048722	1.18803	9.40654	4.50592
 438	1	5	0.053734	2.48925	9.58265	5.69606
 439	1	5	0.029251	2.9686	6.8913	2.33216
 440	1	5	0.025572	1.59436	8.0173	2.38854
 441	1	5	0.023611	1.62572	6.59719	3.45655
 442	1	5	0.021405	5.86029	13.537	2.37507
 443	1	5	0.009991	8.22816	13.9003	2.9142
 444	1	5	0.026343	8.04911	12.4795	1.86697
 445	1	5	0.026093	8.36809	12.272	3.60348
 446	1	5	0.043016	6.29275	14.531	4.5639
 447	1	5	0.050907	6.46953	12.9338	5.31863
 448	1	5	0.051325	4.89151	13.4492	4.69381
 449	1	1	-0.439951	6.18855	4.79553	-6.00555
 450	1	1	0.043044	6.06796	4.82314	-4.60029
 451	1	1	0.126458	3.77588	4.31341	-5.9182
 452	1	1	0.016683	4.89385	4.56703	-3.9108
 453	1	1	0.121946	4.96531	4.43353	-6.6099
 454	1	2	0.005505	5.46777	4.95004	-2.56787
 455	1	1	-0.445809	3.64111	4.3872	-4.52153
 456	1	2	0.001585	6.80064	5.32175	-3.36082
 457	1	3	0.031166	7.87505	4.40524	-2.72723
 458	1	2	-0.048351	6.64162	4.62575	-0.599109
 459	1	1	-0.041771	7.58632	3.91902	0.360499
 460	1	2	-0.107179	7.94553	5.12665	-1.34497
 461	1	3	-0.106774	7.08122	3.10339	-2.42672
 462	1	3	-0.025838	5.90758	3.76777	-1.6519
 463	1	1	-0.051955	8.72741	4.42642	-0.247622
 464	1	1	-0.09124	9.87196	4.20352	1.79454
 465	1	1	-0.099966	8.76484	3.58674	2.37125
 466	1	1	-0.017311	7.51551	3.54296	1.71482
 467	1	1	-0.020587	9.88678	4.73396	0.492165
 468	1	2	-0.042503	9.18561	3.96574	3.78256
 469	1	2	0.004295	10.4028	4.71537	3.11999
 470	1	3	0.00226	11.6355	4.03159	3.74175
 471	1	3	-0.145049	11.1597	2.56598	3.86938
 472	1	3	0.011953	11.7509	4.41521	5.25059
 473	1	3	0.014921	10.5705	3.57765	5.90206
 474	1	3	0.025749	9.8867	2.90251	4.67461
 475	1	3	0.154129	10.9603	5.72923	0.0583157
 476	1	3	-0.203386	11.3997	5.53405	-1.40944
 477	1	3	-0.113237	10.5308	7.18866	0.325087
 478	1	3	0.129534	6.17859	3.25935	2.39922
 479	1	3	-0.091829	5.65133	4.46654	3.20246
 480	1	3	-0.19809	6.23577	1.99239	3.28202
 481	1	4	0.228684	7.08105	5.08262	-6.55239
 482	1	5	0.042843	4.92813	5.75089	-2.04845
 483	1	4	0.232532	2.69288	4.37155	-3.99373
 484	1	5	0.035382	7.09415	6.37721	-3.4033
 485	1	5	0.041247	8.81573	4.29498	-3.28099
 486	1	5	0.06146	5.99694	5.37345	-0.120952
 487	1	5	0.068364	8.11269	6.20679	-1.41785
 488	1	5	0.055799	7.65099	2.39288	-1.81412
 489	1	5	0.04347	6.7519	2.58457	-3.33633
 490	1	5	0.076294	5.11649	3.10282	-1.28327
 491	1	5	0.058767	8.4535	4.56225	4.32728
 492	1	5	0.056756	10.4487	5.80434	3.19667
 493	1	5	0.029415	12.5674	4.15897	3.17701
 494	1	5	0.049793	11.8653	1.9355	4.42911
 495	1	5	0.063468	10.9508	2.08332	2.9057
 496	1	5	-0.012542	12.7206	4.18421	5.7108
 497	1	5	-0.012458	10.922	2.88605	6.67917
 498	1	5	0.013933	9.27008	2.03333	4.93476
 499	1	5	0.014892	11.8497	5.54269	0.674738
 500	1	5	0.04353	11.7072	4.49556	-1.58566
 501	1	5	0.048722	12.2517	6.18365	-1.64589
 502	1	5	0.053734	10.5886	5.77541	-2.10575
 503	1	5	0.029251	10.2138	7.31855	1.36697
 504	1	5	0.025572	9.69671	7.4842	-0.321184
 505	1	5	0.023611	11.3653	7.87617	0.139276
 506	1	5	0.021405	5.44064	3.05865	1.61146
 507	1	5	0.009991	5.69775	5.38695	2.60708
 508	1	5	0.026343	6.23485	4.61311	4.11647
 509	1	5	0.026093	4.60675	4.30566	3.4974
 510	1	5	0.043016	6.58681	1.13126	2.69945
 511	1	5	0.050907	5.2423	1.74986	3.67948
 512	1	5	0.051325	6.91573	2.12973	4.13109
 513	1	1	-0.439951	-1.53191	-3.93261	-12.8654
 514	1	1	0.043044	-0.207893	-3.90213	-12.3995
 515	1	1	0.126458	-0.437066	-4.08599	-15.0798
 516	1	1	0.016683	0.91812	-3.91704	-13.2035
 517	1	1	0.121946	-1.55287	-4.01315	-14.2681
 518	1	2	0.005505	1.88055	-3.81189	-12.029
 519	1	1	-0.445809	0.892724	-4.04229	-14.6084
 520	1	2	0.001585	0.576106	-3.82261	-11.1114
 521	1	3	0.031166	0.591604	-2.44659	-10.4112
 522	1	2	-0.048351	3.05798	-2.71502	-10.3238
 523	1	1	-0.041771	3.47796	-1.54485	-9.43553
 524	1	2	-0.107179	1.74189	-2.76849	-9.42648
 525	1	3	-0.106774	1.26731	-1.51527	-11.4583
 526	1	3	-0.025838	2.50494	-2.41346	-11.7469
 527	1	1	-0.051955	2.32798	-1.60225	-8.66606
 528	1	1	-0.09124	2.90742	0.381342	-7.61654
 529	1	1	-0.099966	4.08322	0.424918	-8.34524
 530	1	1	-0.017311	4.3972	-0.471078	-9.38709
 531	1	1	-0.020587	1.90016	-0.587157	-7.79216
 532	1	2	-0.042503	4.46482	1.81261	-7.84705
 533	1	2	0.004295	3.10527	1.76238	-7.02644
 534	1	3	0.00226	2.30334	2.94259	-7.6267
 535	1	3	-0.145049	2.75888	2.95611	-9.1034
 536	1	3	0.011953	2.92346	4.28624	-7.16802
 537	1	3	0.014921	4.29183	4.37088	-7.97477
 538	1	3	0.025749	4.27051	3.03287	-8.78558
 539	1	3	0.154129	0.511719	-0.568229	-7.15563
 540	1	3	-0.203386	0.536609	-0.102301	-5.68315
 541	1	3	-0.113237	-0.490694	0.270083	-7.97985
 542	1	3	0.129534	5.58343	-0.257223	-10.3215
 543	1	3	-0.091829	5.15419	0.390755	-11.6551
 544	1	3	-0.19809	6.38824	-1.55372	-10.5569
 545	1	4	0.228684	-2.41334	-3.9308	-12.232
 546	1	5	0.042843	2.58275	-4.6474	-11.926
 547	1	4	0.232532	1.77364	-4.13079	-15.2363
 548	1	5	0.035382	0.431999	-4.67456	-10.4363
 549	1	5	0.041247	-0.35973	-2.11425	-9.9805
 550	1	5	0.06146	3.72249	-3.58606	-10.2788
 551	1	5	0.068364	1.58494	-3.66926	-8.82073
 552	1	5	0.055799	1.53969	-0.536242	-11.0431
 553	1	5	0.04347	0.644039	-1.34954	-12.3466
 554	1	5	0.076294	3.21744	-2.05153	-12.4954
 555	1	5	0.058767	5.39093	1.85877	-7.26347
 556	1	5	0.056756	3.18022	1.78653	-5.93386
 557	1	5	0.029415	1.22028	2.90002	-7.47594
 558	1	5	0.049793	2.39454	3.83487	-9.65417
 559	1	5	0.063468	2.46998	2.0542	-9.65892
 560	1	5	-0.012542	2.29091	5.17047	-7.32167
 561	1	5	-0.012458	4.36636	5.28407	-8.57986
 562	1	5	0.013933	4.91971	3.04191	-9.66973
 563	1	5	0.014892	0.136431	-1.60001	-7.15219
 564	1	5	0.04353	0.803734	0.958093	-5.60441
 565	1	5	0.048722	1.26473	-0.685357	-5.10548
 566	1	5	0.053734	-0.448833	-0.236087	-5.21982
 567	1	5	0.029251	-1.50463	0.172349	-7.57232
 568	1	5	0.025572	-0.514176	-0.0566703	-9.02489
 569	1	5	0.023611	-0.226897	1.33118	-7.97265
 570	1	5	0.021405	6.26566	0.45096	-9.83308
 571	1	5	0.009991	6.0318	0.643756	-12.2631
 572	1	5	0.026343	4.58946	1.31373	-11.4753
 573	1	5	0.026093	4.52197	-0.282468	-12.2409
 574	1	5	0.043016	7.29299	-1.34627	-11.1419
 575	1	5	0.050907	5.79558	-2.29892	-11.1004
 576	1	5	0.051325	6.69805	-1.99147	-9.59946
 577	1	1	-0.439951	-6.1734	2.48255	-23.3315
 578	1	1	0.043044	-5.96519	2.02152	-22.0247
 579	1	1	0.126458	-7.67979	4.18281	-22.412
 580	1	1	0.016683	-6.68825	2.54477	-20.9648
 581	1	1	0.121946	-7.06219	3.57023	-23.5411
 582	1	2	0.005505	-6.93334	1.18115	-20.3381
 583	1	1	-0.445809	-7.56085	3.62393	-21.124
 584	1	2	0.001585	-6.04866	0.596641	-21.4989
 585	1	3	0.031166	-4.89079	-0.13034	-20.7509
 586	1	2	-0.048351	-4.98665	1.55661	-18.9644
 587	1	1	-0.041771	-3.89546	1.06911	-18.0283
 588	1	2	-0.107179	-4.06353	1.04615	-20.1422
 589	1	3	-0.106774	-5.69369	-0.685757	-19.5397
 590	1	3	-0.025838	-6.25292	0.671614	-19.0396
 591	1	1	-0.051955	-3.04917	0.682064	-19.06
 592	1	1	-0.09124	-1.82479	-0.651291	-17.5646
 593	1	1	-0.099966	-2.79242	-0.422502	-16.5978
 594	1	1	-0.017311	-3.9017	0.428024	-16.7753
 595	1	1	-0.020587	-1.97875	-0.233043	-18.9075
 596	1	2	-0.042503	-2.42965	-1.66066	-15.7859
 597	1	2	0.004295	-1.25168	-1.85566	-16.8257
 598	1	3	0.00226	-1.49423	-3.25858	-17.4169
 599	1	3	-0.145049	-3.03421	-3.30559	-17.4899
 600	1	3	0.011953	-1.24875	-4.35819	-16.3423
 601	1	3	0.014921	-2.52534	-4.21094	-15.4034
 602	1	3	0.025749	-3.25667	-2.97342	-15.9976
 603	1	3	0.154129	-1.13306	-0.795832	-20.0613
 604	1	3	-0.203386	-1.22965	0.0366784	-21.3634
 605	1	3	-0.113237	0.362902	-0.899284	-19.6731
 606	1	3	0.129534	-4.99077	0.695974	-15.7394
 607	1	3	-0.091829	-4.3994	1.44284	-14.526
 608	1	3	-0.19809	-5.76174	-0.564118	-15.2982
 609	1	4	0.228684	-5.78864	1.90711	-24.1665
 610	1	5	0.042843	-7.98087	0.87997	-20.3579
 611	1	4	0.232532	-8.21155	3.94699	-20.3176
 612	1	5	0.035382	-6.55504	-0.106995	-22.1663
 613	1	5	0.041247	-4.33617	-0.874689	-21.3346
 614	1	5	0.06146	-5.18683	2.6324	-18.9001
 615	1	5	0.068364	-3.71233	1.78695	-20.8689
 616	1	5	0.055799	-5.06755	-1.18747	-18.7964
 617	1	5	0.04347	-6.492	-1.3757	-19.8458
 618	1	5	0.076294	-6.88695	0.640149	-18.1452
 619	1	5	0.058767	-2.14784	-1.47568	-14.7436
 620	1	5	0.056756	-0.234527	-1.7234	-16.4399
 621	1	5	0.029415	-0.990162	-3.45589	-18.3707
 622	1	5	0.049793	-3.41722	-4.29664	-17.7727
 623	1	5	0.063468	-3.46119	-2.56692	-18.1741
 624	1	5	-0.012542	-1.14785	-5.3757	-16.7424
 625	1	5	-0.012458	-3.12249	-5.1313	-15.3553
 626	1	5	0.013933	-4.31102	-2.9263	-15.7095
 627	1	5	0.014892	-1.48971	-1.80824	-20.2899
 628	1	5	0.04353	-2.2295	-0.0174447	-21.8032
 629	1	5	0.048722	-0.529849	-0.337663	-22.1209
 630	1	5	0.053734	-0.989951	1.09064	-21.1725
 631	1	5	0.029251	0.755376	0.0809081	-19.3736
 632	1	5	0.025572	0.962681	-1.26202	-20.5173
 633	1	5	0.023611	0.52208	-1.59654	-18.8446
 634	1	5	0.021405	-5.72745	1.37206	-16.1909
 635	1	5	0.009991	-5.18637	1.72743	-13.8201
 636	1	5	0.026343	-3.89098	2.35964	-14.851
 637	1	5	0.026093	-3.66998	0.818785	-13.9946
 638	1	5	0.043016	-6.67992	-0.285521	-14.7662
 639	1	5	0.050907	-5.15763	-1.17234	-14.6156
 640	1	5	0.051325	-6.04219	-1.17499	-16.1654
 641	1	1	-0.439951	-14.7702	-3.38956	-23.6233
 642	1	1	0.043044	-14.2662	-3.9513	-24.8008
 643	1	1	0.126458	-12.9449	-4.57301	-22.4551
 644	1	1	0.016683	-13.1373	-4.7252	-24.8212
 645	1	1	0.121946	-14.1036	-3.73575	-22.4166
 646	1	2	0.005505	-12.9033	-4.53889	-26.311
 647	1	1	-0.445809	-12.4097	-5.04655	-23.6745