pySIMM System Object

2954 atoms
3367 bonds
7020 angles
12738 dihedrals
180 impropers

5 atom types
9 bond types
18 angle types
19 dihedral types
2 improper types

-196.711680 196.711680 xlo xhi
-196.711680 196.711680 ylo yhi
-196.711680 196.711680 zlo zhi

Masses

   1	12.01	# ca
   2	12.01	# cy
   3	12.01	# c3
   4	1.008	# ha
   5	1.008	# hc

Pair Coeffs

   1	0.086	3.3996695084235347	# ca
   2	0.086	3.3996695084235347	# cy
   3	0.1094	3.3996695084235347	# c3
   4	0.015	2.59964245953351	# ha
   5	0.0157	2.649532787749369	# hc

Bond Coeffs

   1	300.9	1.5375	# c3,c3
   2	305.9	1.5319	# c3,cy
   3	345.8	1.086	# ca,ha
   4	321.0	1.5156	# c3,ca
   5	285.0	1.5562	# cy,cy
   6	330.6	1.0969	# c3,hc
   7	333.3	1.0949	# cy,hc
   8	321.2	1.5154	# ca,cy
   9	461.1	1.3984	# ca,ca

Angle Coeffs

   1	66.62	120.02	# ca,ca,ca
   2	61.4	116.81	# ca,cy,cy
   3	44.83	114.79	# cy,cy,hc
   4	46.43	110.14	# c3,cy,hc
   5	63.15	112.07	# c3,c3,ca
   6	46.34	109.8	# c3,c3,hc
   7	39.4	107.58	# hc,c3,hc
   8	48.18	119.88	# ca,ca,ha
   9	63.53	120.77	# c3,ca,ca
  10	60.66	118.7	# c3,cy,cy
  11	63.51	120.86	# ca,ca,cy
  12	62.73	112.39	# c3,c3,cy
  13	46.29	110.75	# cy,c3,hc
  14	46.8	110.47	# ca,c3,hc
  15	62.8	113.57	# c3,cy,ca
  16	62.86	111.51	# c3,c3,c3
  17	67.9	96.03	# cy,c3,cy
  18	45.97	114.53	# ca,cy,hc

Dihedral Coeffs

   1	1	0.16	3	0.0	# hc,c3,cy,cy
   2	1	0.16	3	0.0	# cy,c3,cy,hc
   3	1	0.16	3	0.0	# c3,c3,cy,hc
   4	1	0.15	3	0.0	# hc,c3,cy,hc
   5	1	3.625	2	180	# X,ca,ca,X
   6	1	0.15555555555555556	3	0	# X,cy,cy,X
   7	3	0.18	3	0	0.25	2	180	0.2	1	180	# c3,c3,c3,c3
   8	1	0.16	3	0	# hc,c3,c3,c3
   9	1	0.0	2	0.0	# ca,ca,cy,cy
  10	1	0.0	2	0.0	# ca,ca,cy,c3
  11	1	0.15555555555555556	3	0	# X,c3,c3,X
  12	1	0.0	2	0	# X,c3,ca,X
  13	3	0.38	3	180.0	0.0	2	0.0	1.15	1	0.0	# ca,ca,cy,hc
  14	3	0.18	3	0.0	0.25	2	180.0	0.2	1	180.0	# cy,c3,cy,cy
  15	1	0.16	3	0.0	# cy,c3,cy,ca
  16	1	0.16	3	0.0	# c3,c3,cy,ca
  17	1	0.16	3	0.0	# hc,c3,cy,ca
  18	1	0.15	3	0	# hc,c3,c3,hc
  19	3	0.18	3	0.0	0.25	2	180.0	0.2	1	180.0	# c3,c3,cy,cy

Improper Coeffs

   1	1.1	-1	2	# ca,ca,ca,c3
   2	1.1	-1	2	# ca,X,X,ha

Atoms

   1	1	1	-0.439951	8.89933	30.3928	29.9279
   2	1	1	0.043044	7.56544	30.2167	30.3428
   3	1	1	0.126458	8.93887	32.21	31.5839
   4	1	1	0.016683	6.92555	31.0723	31.2333
   5	1	1	0.121946	9.57292	31.3615	30.6933
   6	1	2	0.005505	5.53928	30.728	30.7192
   7	1	1	-0.445809	7.55048	32.1952	31.8108
   8	1	2	0.001585	6.27033	29.7514	29.7048
   9	1	3	0.031166	5.92157	30.3334	28.311
  10	1	2	-0.048351	3.7053	30.8503	29.2913
  11	1	1	-0.041771	2.89842	31.3141	28.087
  12	1	2	-0.107179	4.44239	29.8653	28.2795
  13	1	3	-0.106774	5.80353	31.8613	28.5762
  14	1	3	-0.025838	4.84843	31.77	29.8007
  15	1	1	-0.051955	3.54266	30.4571	27.2108
  16	1	1	-0.09124	2.50997	31.5054	25.4076
  17	1	1	-0.099966	1.84913	32.3492	26.2849
  18	1	1	-0.017311	2.08277	32.3894	27.6737
  19	1	1	-0.020587	3.48424	30.5658	25.8077
  20	1	2	-0.042503	1.3083	33.243	25.1832
  21	1	2	0.004295	2.06404	32.2794	24.175
  22	1	3	0.00226	3.0641	33.2354	23.484
  23	1	3	-0.145049	3.44657	34.2215	24.607
  24	1	3	0.011953	2.25796	34.1778	22.5542
  25	1	3	0.014921	1.52458	35.1214	23.5478
  26	1	3	0.025749	1.98914	34.6078	24.9338
  27	1	3	0.154129	4.39285	29.7652	24.8783
  28	1	3	-0.203386	3.6576	29.2611	23.6167
  29	1	3	-0.113237	5.66536	30.5534	24.498
  30	1	3	0.129534	1.51979	33.4853	28.575
  31	1	3	-0.091829	2.51891	34.6482	28.761
  32	1	3	-0.19809	1.03809	32.9445	29.9397
  33	1	4	0.228684	9.32022	29.928	29.0424
  34	1	5	0.042843	4.87583	30.2682	31.4607
  35	1	4	0.232532	7.00773	33.0159	32.2683
  36	1	5	0.035382	6.06697	28.6798	29.8107
  37	1	5	0.041247	6.56314	30.0171	27.4806
  38	1	5	0.06146	3.11098	30.3873	30.0883
  39	1	5	0.068364	4.30578	28.7897	28.4441
  40	1	5	0.055799	5.36246	32.407	27.7321
  41	1	5	0.04347	6.76702	32.3267	28.8207
  42	1	5	0.076294	4.56006	32.7103	30.2815
  43	1	5	0.058767	0.216971	33.2832	25.0945
  44	1	5	0.056756	1.43568	31.7282	23.4665
  45	1	5	0.029415	3.90695	32.7498	22.9813
  46	1	5	0.049793	4.04274	35.0708	24.2454
  47	1	5	0.063468	3.97455	33.7486	25.4457
  48	1	5	-0.012542	1.55584	33.6237	21.9177
  49	1	5	-0.012458	0.43377	35.0709	23.4352
  50	1	5	0.013933	1.87	35.3436	25.7375
  51	1	5	0.014892	4.72272	28.8734	25.4272
  52	1	5	0.04353	2.74675	28.715	23.8927
  53	1	5	0.048722	4.29874	28.5813	23.0418
  54	1	5	0.053734	3.37497	30.0925	22.9605
  55	1	5	0.029251	6.18592	30.9148	25.3916
  56	1	5	0.025572	5.42751	31.4232	23.8791
  57	1	5	0.023611	6.36061	29.9181	23.9352
  58	1	5	0.021405	0.636733	33.9022	28.0731
  59	1	5	0.009991	2.05075	35.4776	29.3058
  60	1	5	0.026343	2.8611	35.0309	27.7932
  61	1	5	0.026093	3.40215	34.3316	29.3229
  62	1	5	0.043016	1.87841	32.5943	30.5506
  63	1	5	0.050907	0.341984	32.1079	29.7996
  64	1	5	0.051325	0.516243	33.7282	30.5029
  65	1	1	-0.439951	16.2548	30.4565	39.5804
  66	1	1	0.043044	17.0588	30.9102	38.5157
  67	1	1	0.126458	16.9006	28.21	38.8222
  68	1	1	0.016683	17.6698	30.0555	37.6022
  69	1	1	0.121946	16.3092	29.0584	39.7392
  70	1	2	0.005505	17.7331	31.1105	36.5121
  71	1	1	-0.445809	17.5265	28.6536	37.6418
  72	1	2	0.001585	17.027	32.0815	37.5479
  73	1	3	0.031166	15.6639	32.4105	36.8789
  74	1	2	-0.048351	16.9297	32.4036	34.754
  75	1	1	-0.041771	15.913	32.8908	33.7388
  76	1	2	-0.107179	16.2036	33.3753	35.787
  77	1	3	-0.106774	15.3346	31.1223	36.0739
  78	1	3	-0.025838	16.7079	30.9892	35.3552
  79	1	1	-0.051955	15.2753	33.7342	34.6335
  80	1	1	-0.09124	13.5587	34.0512	33.0906
  81	1	1	-0.099966	14.192	33.1976	32.2023
  82	1	1	-0.017311	15.3769	32.4918	32.4986
  83	1	1	-0.020587	14.0074	34.3106	34.4007
  84	1	2	-0.042503	12.9965	33.1268	31.2638
  85	1	2	0.004295	12.2716	34.1077	32.2851
  86	1	3	0.00226	11.0532	33.277	32.7594
  87	1	3	-0.145049	11.6191	31.8361	32.7683
  88	1	3	0.011953	10.0606	33.2339	31.5622
  89	1	3	0.014921	10.7841	32.2621	30.542
  90	1	3	0.025749	12.0879	31.8735	31.2934
  91	1	3	0.154129	13.1931	35.1232	35.4044
  92	1	3	-0.203386	12.3158	34.2291	36.3025
  93	1	3	-0.113237	14.0712	36.0662	36.2561
  94	1	3	0.129534	16.0313	31.4334	31.6135
  95	1	3	-0.091829	15.9786	31.7996	30.1136
  96	1	3	-0.19809	15.449	30.0265	31.8564
  97	1	4	0.228684	15.565	31.0929	40.1255
  98	1	5	0.042843	18.7472	31.3771	36.192
  99	1	4	0.232532	17.7505	28.0023	36.8032
 100	1	5	0.035382	17.5953	32.9613	37.8714
 101	1	5	0.041247	14.8855	32.7927	37.547
 102	1	5	0.06146	17.9725	32.6314	34.5022
 103	1	5	0.068364	16.7938	34.2122	36.1785
 104	1	5	0.055799	14.4964	31.2556	35.3776
 105	1	5	0.04347	15.1078	30.2688	36.7204
 106	1	5	0.076294	16.8403	30.1334	34.6843
 107	1	5	0.058767	13.1607	33.5146	30.2523
 108	1	5	0.056756	11.9946	35.0952	31.8994
 109	1	5	0.029415	10.5962	33.6035	33.7004
 110	1	5	0.049793	10.8646	31.0659	32.9736
 111	1	5	0.063468	12.4396	31.6919	33.4833
 112	1	5	-0.012542	9.78563	34.2067	31.1336
 113	1	5	-0.012458	10.9179	32.6862	29.5381
 114	1	5	0.013933	12.5417	30.9479	30.9257
 115	1	5	0.014892	12.5104	35.764	34.831
 116	1	5	0.04353	11.7012	33.553	35.6993
 117	1	5	0.048722	11.6448	34.8382	36.9207
 118	1	5	0.053734	12.9294	33.6192	36.9704
 119	1	5	0.029251	14.7233	35.5017	36.9331
 120	1	5	0.025572	13.4459	36.7295	36.8667
 121	1	5	0.023611	14.7018	36.6934	35.6135
 122	1	5	0.021405	17.0936	31.3887	31.8872
 123	1	5	0.009991	14.9515	31.7707	29.7305
 124	1	5	0.026343	16.5773	31.0949	29.523
 125	1	5	0.026093	16.3805	32.8069	29.9468
 126	1	5	0.043016	14.4056	29.9628	31.5355
 127	1	5	0.050907	15.4875	29.774	32.9193
 128	1	5	0.051325	16.0198	29.2685	31.306
 129	1	1	-0.439951	6.18621	26.9428	32.1311
 130	1	1	0.043044	6.88746	28.0	32.7425
 131	1	1	0.126458	4.25071	27.8347	33.3604
 132	1	1	0.016683	6.32118	28.8612	33.675
 133	1	1	0.121946	4.80952	26.9881	32.4215
 134	1	2	0.005505	7.66004	29.272	34.2559
 135	1	1	-0.445809	4.98941	28.7595	34.1213
 136	1	2	0.001585	8.30902	28.2852	33.1918
 137	1	3	0.031166	9.01222	27.2106	34.064
 138	1	2	-0.048351	9.54773	29.0793	35.5843
 139	1	1	-0.041771	10.4649	28.4321	36.6041
 140	1	2	-0.107179	10.2017	28.0974	34.5261
 141	1	3	-0.106774	8.11302	27.13	35.3293
 142	1	3	-0.025838	8.05661	28.656	35.6234
 143	1	1	-0.051955	11.0472	27.5767	35.6787
 144	1	1	-0.09124	12.8934	27.3105	37.1072
 145	1	1	-0.099966	12.3068	28.1659	38.0324
 146	1	1	-0.017311	11.1132	28.8688	37.773
 147	1	1	-0.020587	12.354	27.0691	35.8292
 148	1	2	-0.042503	13.6302	28.4998	38.6993
 149	1	2	0.004295	14.2968	27.5312	37.6454
 150	1	3	0.00226	14.9261	26.4262	38.5287
 151	1	3	-0.145049	13.9168	26.3204	39.6941
 152	1	3	0.011953	16.1516	26.9825	39.3174
 153	1	3	0.014921	15.4772	27.9559	40.3754
 154	1	3	0.025749	13.9589	27.8228	40.0529
 155	1	3	0.154129	13.2049	26.5126	34.6922
 156	1	3	-0.203386	12.4232	25.5494	33.7723
 157	1	3	-0.113237	13.8583	27.6482	33.8791
 158	1	3	0.129534	10.6557	30.1132	38.5274
 159	1	3	-0.091829	11.382	31.3739	38.0161
 160	1	3	-0.19809	10.7973	29.9729	40.0589
 161	1	4	0.228684	6.66506	26.1297	31.5953
 162	1	5	0.042843	7.89506	30.3379	34.1521
 163	1	4	0.232532	4.60985	29.2499	35.0118
 164	1	5	0.035382	8.9515	28.7338	32.4258
 165	1	5	0.041247	9.25847	26.2613	33.5729
 166	1	5	0.06146	9.69829	30.1579	35.455
 167	1	5	0.068364	10.7718	28.5339	33.6982
 168	1	5	0.055799	8.5744	26.5549	36.1424
 169	1	5	0.04347	7.12625	26.6985	35.1216
 170	1	5	0.076294	7.47363	28.9724	36.4971
 171	1	5	0.058767	13.9	29.5582	38.6762
 172	1	5	0.056756	15.0033	27.9482	36.9228
 173	1	5	0.029415	15.1235	25.479	38.0114
 174	1	5	0.049793	14.273	25.6766	40.5108
 175	1	5	0.063468	12.9229	25.9705	39.386
 176	1	5	-0.012542	16.7784	26.2186	39.7961
 177	1	5	-0.012458	15.7539	27.7038	41.4076
 178	1	5	0.013933	13.3043	28.1057	40.8862
 179	1	5	0.014892	14.0187	25.9274	35.1404
 180	1	5	0.04353	11.6668	26.0834	33.1863
 181	1	5	0.048722	11.9195	24.7738	34.3628
 182	1	5	0.053734	13.1027	25.0525	33.0688
 183	1	5	0.029251	14.4424	28.3042	34.536
 184	1	5	0.025572	13.103	28.2614	33.373
 185	1	5	0.023611	14.5347	27.2413	33.1172
 186	1	5	0.021405	9.58603	30.252	38.3224
 187	1	5	0.009991	12.4562	31.332	38.2315
 188	1	5	0.026343	10.9743	32.276	38.489
 189	1	5	0.026093	11.2574	31.4731	36.9311
 190	1	5	0.043016	11.8502	29.9584	40.362
 191	1	5	0.050907	10.3243	29.0465	40.4082
 192	1	5	0.051325	10.3134	30.8146	40.5697
 193	1	1	-0.439951	-0.795631	19.1035	39.4575
 194	1	1	0.043044	0.581399	18.9156	39.2298
 195	1	1	0.126458	-1.0882	17.3963	37.7142
 196	1	1	0.016683	1.08763	18.0843	38.234
 197	1	1	0.121946	-1.58678	18.2089	38.7142
 198	1	2	0.005505	2.40198	18.8396	38.1392
 199	1	1	-0.445809	0.268727	17.3628	37.3413
 200	1	2	0.001585	1.81672	19.7959	39.2612
 201	1	3	0.031166	1.71177	21.1762	38.5566
 202	1	2	-0.048351	3.83334	20.5396	37.4578
 203	1	1	-0.041771	4.24779	21.8006	36.7239
 204	1	2	-0.107179	3.22592	21.5133	38.5626
 205	1	3	-0.106774	1.44387	20.8088	37.0702
 206	1	3	-0.025838	2.59501	19.7739	36.9169
 207	1	1	-0.051955	3.71014	22.6517	37.6748
 208	1	1	-0.09124	4.0884	24.4558	36.2522
 209	1	1	-0.099966	4.62722	23.6034	35.3035
 210	1	1	-0.017311	4.64361	22.1984	35.4323
 211	1	1	-0.020587	3.491	24.0292	37.4547
 212	1	2	-0.042503	4.69736	24.6818	34.233
 213	1	2	0.004295	4.07481	25.6555	35.3211
 214	1	3	0.00226	2.72903	26.0833	34.681
 215	1	3	-0.145049	2.3111	24.8103	33.9083
 216	1	3	0.011953	2.96529	27.0343	33.4699
 217	1	3	0.014921	3.60144	26.0683	32.3827
 218	1	3	0.025749	3.63021	24.6926	33.1102
 219	1	3	0.154129	2.69732	24.9675	38.3601
 220	1	3	-0.203386	1.18595	24.9328	38.0421
 221	1	3	-0.113237	2.95434	24.7064	39.8606
 222	1	3	0.129534	5.02189	21.2016	34.3397
 223	1	3	-0.091829	6.22548	21.6745	33.4943
 224	1	3	-0.19809	3.81805	20.844	33.4397
 225	1	4	0.228684	-1.2039	19.9278	40.0334
 226	1	5	0.042843	3.28786	18.2493	38.4014
 227	1	4	0.232532	0.622511	16.9388	36.4071
 228	1	5	0.035382	2.34284	19.8157	40.2227
 229	1	5	0.041247	1.03482	21.8994	39.0231
 230	1	5	0.06146	4.6667	19.8957	37.7636
 231	1	5	0.068364	3.68777	21.4839	39.5566
 232	1	5	0.055799	1.54651	21.6669	36.3933
 233	1	5	0.04347	0.453156	20.3687	36.9161
 234	1	5	0.076294	2.69755	19.2807	35.9438
 235	1	5	0.058767	5.70745	24.9134	33.8816
 236	1	5	0.056756	4.69294	26.4971	35.6483
 237	1	5	0.029415	1.97961	26.4594	35.3866
 238	1	5	0.049793	1.43513	24.9699	33.2637
 239	1	5	0.063468	2.11041	23.9468	34.5562
 240	1	5	-0.012542	2.06672	27.5448	33.099
 241	1	5	-0.012458	3.0413	26.0799	31.4384
 242	1	5	0.013933	3.67496	23.847	32.4169
 243	1	5	0.014892	3.0416	25.99	38.1569
 244	1	5	0.04353	0.746892	23.9615	38.2867
 245	1	5	0.048722	1.00463	25.1184	36.9779
 246	1	5	0.053734	0.651488	25.7001	38.6157
 247	1	5	0.029251	2.47595	25.4799	40.4742
 248	1	5	0.025572	4.03002	24.7208	40.0768
 249	1	5	0.023611	2.55367	23.7347	40.1724
 250	1	5	0.021405	5.33394	20.2736	34.8365
 251	1	5	0.009991	5.96886	22.5498	32.8857
 252	1	5	0.026343	6.55651	20.8788	32.8154
 253	1	5	0.026093	7.07138	21.9409	34.1406
 254	1	5	0.043016	3.501	21.6997	32.8372
 255	1	5	0.050907	2.95844	20.5264	34.0396
 256	1	5	0.051325	4.07556	20.0262	32.7554
 257	1	1	-0.439951	-8.64401	21.4474	29.8931
 258	1	1	0.043044	-7.87132	22.4988	30.4277
 259	1	1	0.126458	-10.4207	22.2939	31.3636
 260	1	1	0.016683	-8.32334	23.3316	31.4492
 261	1	1	0.121946	-9.97696	21.4716	30.346
 262	1	2	0.005505	-6.92389	23.6373	31.9498
 263	1	1	-0.445809	-9.59107	23.1986	32.0507
 264	1	2	0.001585	-6.40679	22.69	30.7885
 265	1	3	0.031166	-5.70832	21.5252	31.5413
 266	1	2	-0.048351	-4.96796	23.2528	33.15
 267	1	1	-0.041771	-4.02971	22.4858	34.0645
 268	1	2	-0.107179	-4.43966	22.3028	31.9868
 269	1	3	-0.106774	-6.52486	21.4098	32.8592
 270	1	3	-0.025838	-6.4783	22.9154	33.2483
 271	1	1	-0.051955	-3.56555	21.6612	33.0537
 272	1	1	-0.09124	-2.5655	20.2789	34.6426
 273	1	1	-0.099966	-3.04443	21.0967	35.6532
 274	1	1	-0.017311	-3.89892	22.1988	35.4374
 275	1	1	-0.020587	-2.89161	20.444	33.2788
 276	1	2	-0.042503	-2.61656	20.1491	36.7622
 277	1	2	0.004295	-2.05961	19.2145	35.6057
 278	1	3	0.00226	-2.8769	17.9112	35.788
 279	1	3	-0.145049	-4.25068	18.4475	36.2523
 280	1	3	0.011953	-2.45202	17.1595	37.0851
 281	1	3	0.014921	-3.022	18.0927	38.2339
 282	1	3	0.025749	-3.68617	19.2563	37.4425
 283	1	3	0.154129	-2.58651	19.4515	32.16
 284	1	3	-0.203386	-1.17548	18.8345	32.2874
 285	1	3	-0.113237	-3.66716	18.3535	32.046
 286	1	3	0.129534	-4.61979	23.0008	36.5186
 287	1	3	-0.091829	-3.71745	23.2938	37.738
 288	1	3	-0.19809	-5.94616	22.3391	36.9556
 289	1	4	0.228684	-8.22697	20.633	29.3096
 290	1	5	0.042843	-6.63667	24.694	31.896
 291	1	4	0.232532	-9.85064	23.6362	33.0093
 292	1	5	0.035382	-5.79505	23.1521	30.005
 293	1	5	0.041247	-5.55372	20.6049	30.9669
 294	1	5	0.06146	-4.74698	24.3231	33.0593
 295	1	5	0.068364	-3.89043	22.7789	31.1659
 296	1	5	0.055799	-6.04867	20.758	33.603
 297	1	5	0.04347	-7.54263	21.0465	32.6925
 298	1	5	0.076294	-6.99744	23.2117	34.1667
 299	1	5	0.058767	-1.88605	20.5664	37.4609
 300	1	5	0.056756	-0.978947	19.0481	35.5764
 301	1	5	0.029415	-2.91035	17.2563	34.9121
 302	1	5	0.049793	-4.93758	17.6486	36.5658
 303	1	5	0.063468	-4.75931	19.0667	35.5017
 304	1	5	-0.012542	-2.82534	16.1299	37.1641
 305	1	5	-0.012458	-3.69526	17.5526	38.9126
 306	1	5	0.013933	-4.43603	19.7918	38.0318
 307	1	5	0.014892	-2.60091	20.0098	31.2147
 308	1	5	0.04353	-1.10757	18.1684	33.1556
 309	1	5	0.048722	-0.419079	19.6218	32.3983
 310	1	5	0.053734	-0.925629	18.2506	31.3938
 311	1	5	0.029251	-4.67132	18.7894	32.0155
 312	1	5	0.025572	-3.63264	17.6649	32.8942
 313	1	5	0.023611	-3.52739	17.7667	31.1305
 314	1	5	0.021405	-4.88135	23.974	36.0828
 315	1	5	0.009991	-2.77702	23.7622	37.4208
 316	1	5	0.026343	-3.47611	22.3754	38.2863
 317	1	5	0.026093	-4.21845	23.979	38.4331
 318	1	5	0.043016	-6.52846	23.0217	37.587
 319	1	5	0.050907	-5.76872	21.4253	37.528
 320	1	5	0.051325	-6.56007	22.0715	36.0891
 321	1	1	-0.439951	-14.2115	13.2988	38.1993
 322	1	1	0.043044	-12.8945	13.2144	37.7054
 323	1	1	0.126458	-14.68	11.5174	36.5702
 324	1	1	0.016683	-12.5195	12.3924	36.6481
 325	1	1	0.121946	-15.0481	12.318	37.6338
 326	1	2	0.005505	-11.278	13.2031	36.3285
 327	1	1	-0.445809	-13.4225	11.5737	35.9418
 328	1	2	0.001585	-11.7109	14.1487	37.5294
 329	1	3	0.031166	-11.9775	15.5159	36.8425
 330	1	2	-0.048351	-10.0527	14.9392	35.3897
 331	1	1	-0.041771	-9.81561	16.2167	34.6005
 332	1	2	-0.107179	-10.4923	15.8906	36.5903
 333	1	3	-0.106774	-12.4845	15.1195	35.427
 334	1	3	-0.025838	-11.339	14.1248	35.0828
 335	1	1	-0.051955	-10.2046	17.0408	35.6423
 336	1	1	-0.09124	-10.1249	18.8822	34.2243
 337	1	1	-0.099966	-9.70217	18.0624	33.1925
 338	1	1	-0.017311	-9.62179	16.6593	33.2749
 339	1	1	-0.020587	-10.4884	18.4135	35.5047
 340	1	2	-0.042503	-9.79994	19.1529	32.1427
 341	1	2	0.004295	-10.2953	20.0957	33.3217
 342	1	3	0.00226	-11.72	20.4972	32.86
 343	1	3	-0.145049	-12.2072	19.2209	32.1358
 344	1	3	0.011953	-11.662	21.4613	31.6364
 345	1	3	0.014921	-11.1571	20.5192	30.4634
 346	1	3	0.025749	-11.0027	19.1394	31.1695
 347	1	3	0.154129	-11.1188	19.2456	36.6173
 348	1	3	-0.203386	-10.5053	20.66	36.7204
 349	1	3	-0.113237	-12.6547	19.3152	36.4775
 350	1	3	0.129534	-9.37531	15.7713	32.0586
 351	1	3	-0.091829	-10.6985	15.2701	31.4398
 352	1	3	-0.19809	-8.42417	14.593	32.3648
 353	1	4	0.228684	-14.5636	14.0868	38.857
 354	1	5	0.042843	-10.3349	12.6556	36.4415
 355	1	4	0.232532	-13.2077	11.122	34.9785
 356	1	5	0.035382	-11.0353	14.1986	38.3913
 357	1	5	0.041247	-12.5837	16.2346	37.4064
 358	1	5	0.06146	-9.15599	14.3269	35.5438
 359	1	5	0.068364	-9.86618	15.8785	37.4905
 360	1	5	0.055799	-12.5295	15.9721	34.7368
 361	1	5	0.04347	-13.4721	14.6425	35.4485
 362	1	5	0.076294	-11.3929	13.6169	34.1142
 363	1	5	0.058767	-8.85162	19.4046	31.6599
 364	1	5	0.056756	-9.6656	20.951	33.5811
 365	1	5	0.029415	-12.383	20.8537	33.6553
 366	1	5	0.049793	-13.1637	19.3649	31.6135
 367	1	5	0.063468	-12.3021	18.3492	32.7966
 368	1	5	-0.012542	-12.6124	21.9544	31.3931
 369	1	5	-0.012458	-11.8417	20.5232	29.6049
 370	1	5	0.013933	-11.0275	18.2909	30.4761
 371	1	5	0.014892	-10.907	18.7406	37.5689
 372	1	5	0.04353	-10.8784	21.1785	37.6124
 373	1	5	0.048722	-10.7592	21.27	35.8456
 374	1	5	0.053734	-9.41195	20.6022	36.7947
 375	1	5	0.029251	-12.9486	19.8578	35.5738
 376	1	5	0.025572	-13.0997	19.8264	37.3403
 377	1	5	0.023611	-13.0886	18.3105	36.4195
 378	1	5	0.021405	-8.87907	16.386	31.2961
 379	1	5	0.009991	-10.5084	14.7245	30.5071
 380	1	5	0.026343	-11.366	16.1084	31.2105
 381	1	5	0.026093	-11.2299	14.5995	32.1216
 382	1	5	0.043016	-8.161	14.0596	31.4428
 383	1	5	0.050907	-8.8874	13.8729	33.0494
 384	1	5	0.051325	-7.49521	14.9556	32.8227
 385	1	1	-0.439951	-24.1728	15.077	29.4286
 386	1	1	0.043044	-23.3446	15.3861	30.5236
 387	1	1	0.126458	-25.9746	16.0482	30.7913
 388	1	1	0.016683	-23.7862	16.104	31.6295
 389	1	1	0.121946	-25.5306	15.3475	29.681
 390	1	2	0.005505	-22.4021	16.6349	31.9598
 391	1	1	-0.445809	-25.1062	16.5739	31.7668
 392	1	2	0.001585	-21.8987	15.8093	30.7029
 393	1	3	0.031166	-20.9379	14.7546	31.3131
 394	1	2	-0.048351	-20.259	16.5604	32.8702
 395	1	1	-0.041771	-19.0706	15.958	33.6064
 396	1	2	-0.107179	-19.7623	15.7222	31.6099
 397	1	3	-0.106774	-21.537	14.488	32.7231
 398	1	3	-0.025838	-21.6701	15.9752	33.1581
 399	1	1	-0.051955	-18.6487	15.2221	32.5124
 400	1	1	-0.09124	-17.1157	14.0911	33.8524
 401	1	1	-0.099966	-17.5048	14.8613	34.936
 402	1	1	-0.017311	-18.5899	15.7598	34.9186
 403	1	1	-0.020587	-17.7293	14.1566	32.5826
 404	1	2	-0.042503	-16.7202	14.0344	35.9382
 405	1	2	0.004295	-16.2831	13.1399	34.7025
 406	1	3	0.00226	-16.872	11.75	35.0637
 407	1	3	-0.145049	-18.1793	12.1229	35.8007
 408	1	3	0.011953	-16.105	11.1024	36.2545
 409	1	3	0.014921	-16.5291	12.0111	37.4859
 410	1	3	0.025749	-17.4961	13.044	36.8386
 411	1	3	0.154129	-17.4706	13.2105	31.4128
 412	1	3	-0.203386	-15.9792	12.832	31.2737
 413	1	3	-0.113237	-18.357	11.9478	31.4814
 414	1	3	0.129534	-19.1518	16.3991	36.186
 415	1	3	-0.091829	-20.352	15.6087	36.7521
 416	1	3	-0.19809	-19.5129	17.8882	35.9897
 417	1	4	0.228684	-23.7911	14.8176	28.4464
 418	1	5	0.042843	-22.3153	17.7275	31.9356
 419	1	4	0.232532	-25.3872	17.376	32.4417
 420	1	5	0.035382	-21.4747	16.3569	29.8531
 421	1	5	0.041247	-20.7191	13.8807	30.6887
 422	1	5	0.06146	-20.2343	17.653	32.7798
 423	1	5	0.068364	-19.4177	16.2919	30.7385
 424	1	5	0.055799	-20.8618	13.9143	33.3713
 425	1	5	0.04347	-22.502	13.9663	32.6842
 426	1	5	0.076294	-22.1038	16.1696	34.1443
 427	1	5	0.058767	-15.9277	14.5778	36.4623
 428	1	5	0.056756	-15.2154	13.1158	34.4626
 429	1	5	0.029415	-17.0003	11.0652	34.2197
 430	1	5	0.049793	-18.6732	11.2551	36.2606
 431	1	5	0.063468	-18.9108	12.6393	35.1654
 432	1	5	-0.012542	-16.3273	10.0407	36.4248
 433	1	5	-0.012458	-16.9637	11.4229	38.3049
 434	1	5	0.013933	-18.1773	13.5096	37.5598
 435	1	5	0.014892	-17.7466	13.7426	30.4929
 436	1	5	0.04353	-15.8089	12.2667	30.349
 437	1	5	0.048722	-15.6447	12.2121	32.1138
 438	1	5	0.053734	-15.3539	13.7331	31.2401
 439	1	5	0.029251	-19.4131	12.2136	31.6
 440	1	5	0.025572	-18.0796	11.3087	32.3242
 441	1	5	0.023611	-18.2583	11.356	30.5629
 442	1	5	0.021405	-18.3622	16.3654	36.9482
 443	1	5	0.009991	-21.2235	15.6769	36.0952
 444	1	5	0.026343	-20.6413	15.9984	37.7361
 445	1	5	0.026093	-20.106	14.5476	36.8684
 446	1	5	0.043016	-20.3627	18.0064	35.307
 447	1	5	0.050907	-18.6597	18.441	35.5768
 448	1	5	0.051325	-19.7837	18.3495	36.9476
 449	1	1	-0.439951	-37.0838	13.4925	28.8482
 450	1	1	0.043044	-36.2911	12.3293	28.9222
 451	1	1	0.126458	-37.0819	13.0763	26.4251
 452	1	1	0.016683	-35.8353	11.6444	27.7997
 453	1	1	0.121946	-37.537	13.7547	27.5404
 454	1	2	0.005505	-34.642	11.0482	28.5284
 455	1	1	-0.445809	-36.119	12.0494	26.4793
 456	1	2	0.001585	-35.16	11.8311	29.8068
 457	1	3	0.031166	-34.0133	12.8295	30.1215
 458	1	2	-0.048351	-32.4866	11.0098	29.421
 459	1	1	-0.041771	-31.1133	11.5639	29.7662
 460	1	2	-0.107179	-33.006	11.7992	30.7043
 461	1	3	-0.106774	-33.4178	13.1485	28.7209
 462	1	3	-0.025838	-33.2519	11.6773	28.2441
 463	1	1	-0.051955	-31.5639	12.2502	30.8798
 464	1	1	-0.09124	-29.5304	13.383	31.0065
 465	1	1	-0.099966	-29.0794	12.6935	29.8912
 466	1	1	-0.017311	-29.8684	11.7899	29.1462
 467	1	1	-0.020587	-30.8351	13.2636	31.5343
 468	1	2	-0.042503	-27.8492	13.5721	29.7209
 469	1	2	0.004295	-28.364	14.3621	30.9984
 470	1	3	0.00226	-28.6043	15.7923	30.4478
 471	1	3	-0.145049	-29.091	15.5133	29.0084
 472	1	3	0.011953	-27.2574	16.4988	30.1158
 473	1	3	0.014921	-26.7461	15.7059	28.8453
 474	1	3	0.025749	-27.8685	14.6553	28.6123
 475	1	3	0.154129	-31.4143	14.0915	32.6797
 476	1	3	-0.203386	-30.3836	14.3635	33.7978
 477	1	3	-0.113237	-32.0509	15.4063	32.1911
 478	1	3	0.129534	-29.4522	11.1022	27.8469
 479	1	3	-0.091829	-27.9638	10.6882	27.8443
 480	1	3	-0.19809	-29.7888	11.942	26.5992
 481	1	4	0.228684	-37.217	14.1818	29.6757
 482	1	5	0.042843	-34.6391	9.95335	28.5841
 483	1	4	0.232532	-35.5639	11.7052	25.6125
 484	1	5	0.035382	-35.4795	11.2267	30.6636
 485	1	5	0.041247	-34.2813	13.6814	30.7557
 486	1	5	0.06146	-32.5592	9.91583	29.445
 487	1	5	0.068364	-33.4027	11.1991	31.5319
 488	1	5	0.055799	-32.4657	13.6923	28.7742
 489	1	5	0.04347	-34.1034	13.7241	28.0907
 490	1	5	0.076294	-32.8552	11.5211	27.2354
 491	1	5	0.058767	-26.8874	13.056	29.8141
 492	1	5	0.056756	-27.7219	14.3361	31.8857
 493	1	5	0.029415	-29.2745	16.4171	31.0458
 494	1	5	0.049793	-29.1777	16.4264	28.4095
 495	1	5	0.063468	-30.0462	14.9743	28.9586
 496	1	5	-0.012542	-27.3322	17.5786	29.9313
 497	1	5	-0.012458	-26.5461	16.3688	27.993
 498	1	5	0.013933	-27.8874	14.2752	27.5865
 499	1	5	0.014892	-32.2201	13.5003	33.1345
 500	1	5	0.04353	-29.5886	15.0353	33.4532
 501	1	5	0.048722	-29.9216	13.4266	34.1336
 502	1	5	0.053734	-30.8678	14.8315	34.6639
 503	1	5	0.029251	-32.5745	15.9133	33.0111
 504	1	5	0.025572	-32.7768	15.2061	31.3993
 505	1	5	0.023611	-31.3006	16.0945	31.7928
 506	1	5	0.021405	-30.0336	10.1741	27.7693
 507	1	5	0.009991	-27.3046	11.564	27.8151
 508	1	5	0.026343	-27.7372	10.0687	26.9675
 509	1	5	0.026093	-27.7224	10.1045	28.7416
 510	1	5	0.043016	-29.5929	11.3724	25.6823
 511	1	5	0.050907	-29.1962	12.8599	26.56
 512	1	5	0.051325	-30.8442	12.2244	26.6022
 513	1	1	-0.439951	-26.3182	19.7815	25.7868
 514	1	1	0.043044	-27.6398	19.706	26.2638
 515	1	1	0.126458	-26.0004	21.4329	27.5789
 516	1	1	0.016683	-28.0822	20.3767	27.4004
 517	1	1	0.121946	-25.5671	20.772	26.4435
 518	1	2	0.005505	-29.1902	19.3777	27.6769
 519	1	1	-0.445809	-27.2439	21.1878	28.1904
 520	1	2	0.001585	-28.6782	18.6091	26.3851
 521	1	3	0.031166	-29.8854	18.6695	25.4123
 522	1	2	-0.048351	-31.2781	18.3929	27.4365
 523	1	1	-0.041771	-32.6766	18.1895	26.8705
 524	1	2	-0.107179	-30.7571	17.6241	26.1549
 525	1	3	-0.106774	-30.569	20.0188	25.766
 526	1	3	-0.025838	-30.6382	19.8017	27.3032
 527	1	1	-0.051955	-32.2133	17.5149	25.7462
 528	1	1	-0.09124	-34.2847	16.4123	25.5336
 529	1	1	-0.099966	-34.7524	17.0942	26.6527
 530	1	1	-0.017311	-33.9393	17.9288	27.4419
 531	1	1	-0.020587	-32.9495	16.5099	25.0921
 532	1	2	-0.042503	-35.7658	16.0201	27.0039
 533	1	2	0.004295	-35.243	15.2478	25.7333
 534	1	3	0.00226	-36.5048	15.1556	24.8401
 535	1	3	-0.145049	-37.2312	16.4832	25.1511
 536	1	3	0.011953	-37.5343	14.1582	25.455
 537	1	3	0.014921	-38.058	14.9367	26.7361
 538	1	3	0.025749	-37.2569	16.2733	26.6811
 539	1	3	0.154129	-32.2689	15.5044	24.1667
 540	1	3	-0.203386	-31.8132	14.2428	24.9277
 541	1	3	-0.113237	-33.1394	15.1312	22.9472
 542	1	3	0.129534	-34.347	18.317	28.8608
 543	1	3	-0.091829	-33.9538	19.7668	29.2186
 544	1	3	-0.19809	-33.803	17.3226	29.9057
 545	1	4	0.228684	-25.8849	19.06	25.1017
 546	1	5	0.042843	-29.1134	18.8791	28.6499
 547	1	4	0.232532	-27.469	21.4644	29.2155
 548	1	5	0.035382	-28.2562	17.6046	26.5027
 549	1	5	0.041247	-29.6778	18.4794	24.3518
 550	1	5	0.06146	-31.1138	17.932	28.4163
 551	1	5	0.068364	-30.2571	16.659	26.2928
 552	1	5	0.055799	-31.5604	20.1252	25.3069
 553	1	5	0.04347	-29.9625	20.8897	25.4855
 554	1	5	0.076294	-31.0825	20.6107	27.8957
 555	1	5	0.058767	-35.6195	15.564	27.986
 556	1	5	0.056756	-34.7614	14.2793	25.8808
 557	1	5	0.029415	-36.3094	14.9871	23.7742
 558	1	5	0.049793	-38.2368	16.5334	24.7101
 559	1	5	0.063468	-36.6699	17.3738	24.8395
 560	1	5	-0.012542	-38.3522	13.866	24.7832
 561	1	5	-0.012458	-39.1499	15.0519	26.7349
 562	1	5	0.013933	-37.7193	17.0928	27.2454
 563	1	5	0.014892	-31.3638	15.9817	23.7686
 564	1	5	0.04353	-31.2117	13.5954	24.2776
 565	1	5	0.048722	-32.6679	13.6603	25.2885
 566	1	5	0.053734	-31.2004	14.5171	25.7946
 567	1	5	0.029251	-34.014	14.5428	23.2464
 568	1	5	0.025572	-32.5625	14.5332	22.2307
 569	1	5	0.023611	-33.4899	16.0334	22.4302
 570	1	5	0.021405	-35.4427	18.2697	28.9144
 571	1	5	0.009991	-32.8673	19.8749	29.3106
 572	1	5	0.026343	-34.4014	20.0619	30.1759
 573	1	5	0.026093	-34.3078	20.4656	28.4502
 574	1	5	0.043016	-34.1045	16.2975	29.6596
 575	1	5	0.050907	-34.1899	17.5587	30.9048
 576	1	5	0.051325	-32.7089	17.3532	29.9491
 577	1	1	-0.439951	-22.1259	31.6309	24.1313
 578	1	1	0.043044	-21.1097	30.6775	24.0473
 579	1	1	0.126458	-22.387	31.3302	21.6967
 580	1	1	0.016683	-20.769	30.0481	22.8829
 581	1	1	0.121946	-22.7374	32.0116	22.9053
 582	1	2	0.005505	-19.9802	28.9451	23.5797
 583	1	1	-0.445809	-21.4144	30.3013	21.6704
 584	1	2	0.001585	-20.3809	29.6778	24.9335
 585	1	3	0.031166	-21.1006	28.5696	25.7633
 586	1	2	-0.048351	-22.0413	27.662	23.6665
 587	1	1	-0.041771	-22.9052	26.5138	24.151
 588	1	2	-0.107179	-22.4517	28.3964	25.0153
 589	1	3	-0.106774	-20.2918	27.3207	25.3128
 590	1	3	-0.025838	-20.5042	27.4889	23.781
 591	1	1	-0.051955	-23.2721	27.1528	25.3212
 592	1	1	-0.09124	-24.3514	25.2202	26.0279
 593	1	1	-0.099966	-23.9476	24.5688	24.8748
 594	1	1	-0.017311	-23.1213	25.1478	23.8891
 595	1	1	-0.020587	-23.9511	26.5225	26.3854
 596	1	2	-0.042503	-24.4326	23.2095	25.3537
 597	1	2	0.004295	-24.908	23.9626	26.6698
 598	1	3	0.00226	-24.0868	23.2746	27.7868
 599	1	3	-0.145049	-22.7506	22.9649	27.0725
 600	1	3	0.011953	-24.5958	21.8205	28.0119
 601	1	3	0.014921	-24.1031	21.0684	26.7058
 602	1	3	0.025749	-23.3941	22.1933	25.8979
 603	1	3	0.154129	-24.2207	27.1267	27.7608
 604	1	3	-0.203386	-23.0309	26.9088	28.7208
 605	1	3	-0.113237	-24.6083	28.6204	27.6917
 606	1	3	0.129534	-22.5121	24.426	22.6906
 607	1	3	-0.091829	-23.4916	23.4258	22.0378
 608	1	3	-0.19809	-21.1792	23.7373	23.0567
 609	1	4	0.228684	-22.4548	32.0114	25.0923
 610	1	5	0.042843	-18.904	28.9463	23.3746
 611	1	4	0.232532	-21.2248	29.7109	20.7797
 612	1	5	0.035382	-19.5289	30.0865	25.4879
 613	1	5	0.041247	-21.1582	28.7519	26.8417
 614	1	5	0.06146	-22.3861	28.088	22.7199
 615	1	5	0.068364	-23.0559	29.305	24.9422
 616	1	5	0.055799	-20.7022	26.3805	25.7042
 617	1	5	0.04347	-19.2327	27.3875	25.5957
 618	1	5	0.076294	-20.0525	26.7255	23.1369
 619	1	5	0.058767	-25.2125	22.751	24.7358
 620	1	5	0.056756	-25.9853	23.9834	26.8688
 621	1	5	0.029415	-23.9899	23.8519	28.7137
 622	1	5	0.049793	-22.0792	22.3388	27.6771
 623	1	5	0.063468	-22.2002	23.8616	26.7586
 624	1	5	-0.012542	-24.2392	21.3383	28.9317
 625	1	5	-0.012458	-23.4807	20.1932	26.9348
 626	1	5	0.013933	-22.6849	21.8086	25.1575
 627	1	5	0.014892	-25.081	26.5981	28.1918
 628	1	5	0.04353	-22.771	25.8462	28.7864
 629	1	5	0.048722	-23.2773	27.2602	29.7305
 630	1	5	0.053734	-22.1417	27.4483	28.3808
 631	1	5	0.029251	-23.7643	29.2381	27.3631
 632	1	5	0.025572	-24.9255	28.9825	28.6777
 633	1	5	0.023611	-25.44	28.7727	26.9923
 634	1	5	0.021405	-22.2828	25.1838	21.9299
 635	1	5	0.009991	-23.6962	22.5756	22.6995
 636	1	5	0.026343	-23.0739	23.031	21.1032
 637	1	5	0.026093	-24.4446	23.9157	21.8015
 638	1	5	0.043016	-20.4824	24.4495	23.5129
 639	1	5	0.050907	-20.7003	23.3187	22.1628
 640	1	5	0.051325	-21.3363	22.9222	23.7698
 641	1	1	-0.439951	-22.0794	43.3105	26.4739
 642	1	1	0.043044	-23.0035	42.4976	27.1316
 643	1	1	0.126458	-20.4612	42.5995	28.1947
 644	1	1	0.016683	-22.6896	41.7548	28.2361
 645	1	1	0.121946	-20.7824	43.3919	27.0454
 646	1	2	0.005505	-23.9133	40.8551	28.1128
 647	1	1	-0.445809	-21.4089	41.7346	28.7929
 648	1	2	0.001585	-24.2699	41.7117	26.8222
 649	1	3	0.031166	-24.3756	40.6465	25.6849
 650	1	2	-0.048351	-22.5553	39.3577	26.7576
 651	1	1	-0.041771	-22.3562	38.1909	25.8052
 652	1	2	-0.107179	-22.8979	40.2178	25.4653
 653	1	3	-0.106774	-24.9657	39.4505	26.4843
 654	1	3	-0.025838	-23.8683	39.3882	27.5846
 655	1	1	-0.051955	-22.6479	38.9413	24.6807