pySIMM System Object

2162 atoms
2467 bonds
5148 angles
9354 dihedrals
132 impropers

5 atom types
9 bond types
18 angle types
19 dihedral types
2 improper types

-176.900576 176.900576 xlo xhi
-176.900576 176.900576 ylo yhi
-176.900576 176.900576 zlo zhi

Masses

   1	12.01	# ca
   2	12.01	# cy
   3	12.01	# c3
   4	1.008	# ha
   5	1.008	# hc

Pair Coeffs

   1	0.086	3.3996695084235347	# ca
   2	0.086	3.3996695084235347	# cy
   3	0.1094	3.3996695084235347	# c3
   4	0.015	2.59964245953351	# ha
   5	0.0157	2.649532787749369	# hc

Bond Coeffs

   1	300.9	1.5375	# c3,c3
   2	305.9	1.5319	# c3,cy
   3	345.8	1.086	# ca,ha
   4	321.0	1.5156	# c3,ca
   5	285.0	1.5562	# cy,cy
   6	330.6	1.0969	# c3,hc
   7	333.3	1.0949	# cy,hc
   8	321.2	1.5154	# ca,cy
   9	461.1	1.3984	# ca,ca

Angle Coeffs

   1	66.62	120.02	# ca,ca,ca
   2	61.4	116.81	# ca,cy,cy
   3	44.83	114.79	# cy,cy,hc
   4	46.43	110.14	# c3,cy,hc
   5	63.15	112.07	# c3,c3,ca
   6	46.34	109.8	# c3,c3,hc
   7	39.4	107.58	# hc,c3,hc
   8	48.18	119.88	# ca,ca,ha
   9	63.53	120.77	# c3,ca,ca
  10	60.66	118.7	# c3,cy,cy
  11	63.51	120.86	# ca,ca,cy
  12	62.73	112.39	# c3,c3,cy
  13	46.29	110.75	# cy,c3,hc
  14	46.8	110.47	# ca,c3,hc
  15	62.8	113.57	# c3,cy,ca
  16	62.86	111.51	# c3,c3,c3
  17	67.9	96.03	# cy,c3,cy
  18	45.97	114.53	# ca,cy,hc

Dihedral Coeffs

   1	1	0.16	3	0.0	# hc,c3,cy,cy
   2	1	0.16	3	0.0	# cy,c3,cy,hc
   3	1	0.16	3	0.0	# c3,c3,cy,hc
   4	1	0.15	3	0.0	# hc,c3,cy,hc
   5	1	3.625	2	180	# X,ca,ca,X
   6	1	0.15555555555555556	3	0	# X,cy,cy,X
   7	3	0.18	3	0	0.25	2	180	0.2	1	180	# c3,c3,c3,c3
   8	1	0.16	3	0	# hc,c3,c3,c3
   9	1	0.0	2	0.0	# ca,ca,cy,cy
  10	1	0.0	2	0.0	# ca,ca,cy,c3
  11	1	0.15555555555555556	3	0	# X,c3,c3,X
  12	1	0.0	2	0	# X,c3,ca,X
  13	3	0.38	3	180.0	0.0	2	0.0	1.15	1	0.0	# ca,ca,cy,hc
  14	3	0.18	3	0.0	0.25	2	180.0	0.2	1	180.0	# cy,c3,cy,cy
  15	1	0.16	3	0.0	# cy,c3,cy,ca
  16	1	0.16	3	0.0	# c3,c3,cy,ca
  17	1	0.16	3	0.0	# hc,c3,cy,ca
  18	1	0.15	3	0	# hc,c3,c3,hc
  19	3	0.18	3	0.0	0.25	2	180.0	0.2	1	180.0	# c3,c3,cy,cy

Improper Coeffs

   1	1.1	-1	2	# ca,ca,ca,c3
   2	1.1	-1	2	# ca,X,X,ha

Atoms

   1	1	1	-0.439951	-13.8881	-9.91528	-50.8624
   2	1	1	0.043044	-12.545	-9.54661	-51.072
   3	1	1	0.126458	-14.1106	-9.67942	-53.2966
   4	1	1	0.016683	-12.0541	-9.14325	-52.3106
   5	1	1	0.121946	-14.5995	-10.0786	-52.0646
   6	1	2	0.005505	-10.9466	-8.30052	-51.7057
   7	1	1	-0.445809	-12.8549	-9.06928	-53.4673
   8	1	2	0.001585	-11.5059	-8.75906	-50.2956
   9	1	3	0.031166	-11.9786	-7.43714	-49.6365
  10	1	2	-0.048351	-10.0101	-6.40302	-50.731
  11	1	1	-0.041771	-9.99041	-4.99886	-50.143
  12	1	2	-0.107179	-10.5703	-6.87034	-49.3156
  13	1	3	-0.106774	-12.4373	-6.57282	-50.8458
  14	1	3	-0.025838	-11.1587	-6.76354	-51.7115
  15	1	1	-0.051955	-10.4803	-5.40952	-48.9142
  16	1	1	-0.09124	-10.7784	-3.18901	-48.2786
  17	1	1	-0.099966	-10.2639	-2.77792	-49.4971
  18	1	1	-0.017311	-9.94769	-3.6498	-50.5575
  19	1	1	-0.020587	-11.0192	-4.53949	-47.946
  20	1	2	-0.042503	-10.6292	-1.32053	-49.2788
  21	1	2	0.004295	-11.222	-1.787	-47.8835
  22	1	3	0.00226	-12.7151	-1.40406	-48.0107
  23	1	3	-0.145049	-13.0175	-1.64266	-49.5046
  24	1	3	0.011953	-12.8181	0.141518	-47.9537
  25	1	3	0.014921	-12.2397	0.591031	-49.3242
  26	1	3	0.025749	-11.8658	-0.748058	-50.0077
  27	1	3	0.154129	-11.7787	-5.03976	-46.7197
  28	1	3	-0.203386	-11.4374	-4.24075	-45.4426
  29	1	3	-0.113237	-13.3042	-5.07434	-46.9583
  30	1	3	0.129534	-9.62574	-3.15261	-51.9647
  31	1	3	-0.091829	-10.8781	-3.12135	-52.8682
  32	1	3	-0.19809	-8.4813	-3.94861	-52.6306
  33	1	4	0.228684	-14.3576	-9.9315	-49.8843
  34	1	5	0.042843	-9.9307	-8.62087	-51.9653
  35	1	4	0.232532	-12.5903	-8.48341	-54.3416
  36	1	5	0.035382	-10.8411	-9.36661	-49.6702
  37	1	5	0.041247	-12.6783	-7.5383	-48.7991
  38	1	5	0.06146	-9.02738	-6.78965	-51.0267
  39	1	5	0.068364	-9.93604	-7.54477	-48.7278
  40	1	5	0.055799	-12.6169	-5.52401	-50.5764
  41	1	5	0.04347	-13.3426	-6.96186	-51.3291
  42	1	5	0.076294	-11.1461	-6.28746	-52.6969
  43	1	5	0.058767	-9.78838	-0.619043	-49.2414
  44	1	5	0.056756	-10.7453	-1.3696	-46.9895
  45	1	5	0.029415	-13.3904	-1.90702	-47.3111
  46	1	5	0.049793	-14.0079	-1.27294	-49.8048
  47	1	5	0.063468	-12.9234	-2.69336	-49.8093
  48	1	5	-0.012542	-12.2526	0.559487	-47.1108
  49	1	5	-0.012458	-11.3696	1.25032	-49.2081
  50	1	5	0.013933	-11.7733	-0.673413	-51.0974
  51	1	5	0.014892	-11.4623	-6.07502	-46.5364
  52	1	5	0.04353	-10.3521	-4.21163	-45.2839
  53	1	5	0.048722	-11.8961	-4.70657	-44.5615
  54	1	5	0.053734	-11.8036	-3.20943	-45.5075
  55	1	5	0.029251	-13.5476	-5.62305	-47.8746
  56	1	5	0.025572	-13.7174	-4.06672	-47.0567
  57	1	5	0.023611	-13.8152	-5.5682	-46.1224
  58	1	5	0.021405	-9.27496	-2.11617	-51.874
  59	1	5	0.009991	-10.6523	-2.63647	-53.8262
  60	1	5	0.026343	-11.6931	-2.56504	-52.3925
  61	1	5	0.026093	-11.2457	-4.12897	-53.08
  62	1	5	0.043016	-8.78223	-4.98145	-52.8416
  63	1	5	0.050907	-7.5987	-3.97322	-51.979
  64	1	5	0.051325	-8.18836	-3.48244	-53.5795
  65	1	1	-0.439951	-16.9168	-18.9454	-58.1859
  66	1	1	0.043044	-18.1675	-18.5002	-57.7137
  67	1	1	0.126458	-16.9039	-20.3596	-56.1749
  68	1	1	0.016683	-18.6994	-18.8855	-56.4861
  69	1	1	0.121946	-16.3764	-19.9764	-57.394
  70	1	2	0.005505	-19.5454	-17.6307	-56.3506
  71	1	1	-0.445809	-18.0384	-19.7578	-55.5972
  72	1	2	0.001585	-18.938	-17.1915	-57.7478
  73	1	3	0.031166	-18.1461	-15.897	-57.4205
  74	1	2	-0.048351	-19.9792	-15.3993	-55.841
  75	1	1	-0.041771	-19.6534	-13.9924	-55.3717
  76	1	2	-0.107179	-19.3698	-14.9547	-57.2442
  77	1	3	-0.106774	-17.6643	-16.1276	-55.9602
  78	1	3	-0.025838	-19.0406	-16.5413	-55.3674
  79	1	1	-0.051955	-19.1308	-13.5993	-56.5931
  80	1	1	-0.09124	-18.3196	-11.6507	-55.6077
  81	1	1	-0.099966	-18.8148	-12.0582	-54.3796
  82	1	1	-0.017311	-19.4489	-13.2997	-54.1617
  83	1	1	-0.020587	-18.3596	-12.4313	-56.7793
  84	1	2	-0.042503	-18.0652	-10.98	-53.6084
  85	1	2	0.004295	-17.5013	-10.5144	-55.0209
  86	1	3	0.00226	-15.9723	-10.7013	-54.8654
  87	1	3	-0.145049	-15.8822	-11.9499	-53.9542
  88	1	3	0.011953	-15.4905	-9.5663	-53.919
  89	1	3	0.014921	-16.0497	-10.022	-52.5103
  90	1	3	0.025749	-16.7753	-11.3578	-52.8377
  91	1	3	0.154129	-17.6578	-12.0126	-58.0696
  92	1	3	-0.203386	-16.2535	-12.6326	-58.2072
  93	1	3	-0.113237	-18.5101	-12.2964	-59.3258
  94	1	3	0.129534	-19.8709	-13.8609	-52.806
  95	1	3	-0.091829	-20.4741	-12.7833	-51.8781
  96	1	3	-0.19809	-18.7215	-14.6104	-52.1037
  97	1	4	0.228684	-16.3662	-18.4537	-58.9816
  98	1	5	0.042843	-20.6266	-17.8081	-56.3127
  99	1	4	0.232532	-18.2929	-19.8505	-54.5462
 100	1	5	0.035382	-19.6379	-17.0931	-58.5857
 101	1	5	0.041247	-17.3876	-15.6061	-58.1538
 102	1	5	0.06146	-21.0459	-15.6529	-55.8191
 103	1	5	0.068364	-20.0549	-14.9393	-58.1001
 104	1	5	0.055799	-17.2512	-15.2215	-55.4982
 105	1	5	0.04347	-16.9155	-16.9212	-55.8812
 106	1	5	0.076294	-19.069	-16.8036	-54.3041
 107	1	5	0.058767	-18.6886	-10.2556	-53.0727
 108	1	5	0.056756	-17.7808	-9.50724	-55.3497
 109	1	5	0.029415	-15.4061	-10.7654	-55.8014
 110	1	5	0.049793	-14.8626	-12.1856	-53.6243
 111	1	5	0.063468	-16.2984	-12.8574	-54.4108
 112	1	5	-0.012542	-15.7814	-8.54745	-54.2069
 113	1	5	-0.012458	-16.6561	-9.26019	-52.0027
 114	1	5	0.013933	-16.9142	-12.0008	-51.9632
 115	1	5	0.014892	-17.5185	-10.9244	-58.0268
 116	1	5	0.04353	-15.6591	-12.4543	-57.3055
 117	1	5	0.048722	-15.7182	-12.1944	-59.0586
 118	1	5	0.053734	-16.3108	-13.7123	-58.3661
 119	1	5	0.029251	-18.6263	-13.3737	-59.4942
 120	1	5	0.025572	-18.039	-11.8647	-60.2178
 121	1	5	0.023611	-19.509	-11.8538	-59.2237
 122	1	5	0.021405	-20.6647	-14.5969	-52.9894
 123	1	5	0.009991	-19.7176	-12.0514	-51.5703
 124	1	5	0.026343	-20.8862	-13.2422	-50.9707
 125	1	5	0.026093	-21.2863	-12.2468	-52.3846
 126	1	5	0.043016	-17.9329	-13.9253	-51.7814
 127	1	5	0.050907	-18.2709	-15.3413	-52.7805
 128	1	5	0.051325	-19.0882	-15.1444	-51.2183
 129	1	1	-0.439951	-9.56371	-12.4192	-49.6429
 130	1	1	0.043044	-10.4107	-12.2202	-50.7521
 131	1	1	0.126458	-7.81071	-11.4788	-51.0868
 132	1	1	0.016683	-9.94986	-11.7833	-51.991
 133	1	1	0.121946	-8.26275	-11.9247	-49.8585
 134	1	2	0.005505	-11.0814	-12.4463	-52.7567
 135	1	1	-0.445809	-8.59877	-11.4829	-52.253
 136	1	2	0.001585	-11.6138	-12.936	-51.344
 137	1	3	0.031166	-11.5465	-14.4835	-51.4364
 138	1	2	-0.048351	-12.2144	-14.1879	-53.7959
 139	1	1	-0.041771	-12.4238	-15.6189	-54.2544
 140	1	2	-0.107179	-12.7608	-14.6725	-52.3866
 141	1	3	-0.106774	-10.3281	-14.7331	-52.3673
 142	1	3	-0.025838	-10.7512	-13.765	-53.5071
 143	1	1	-0.051955	-12.9117	-16.0424	-53.028
 144	1	1	-0.09124	-13.8429	-17.9261	-54.0626
 145	1	1	-0.099966	-13.3372	-17.5113	-55.289
 146	1	1	-0.017311	-12.7024	-16.2658	-55.4711
 147	1	1	-0.020587	-13.7512	-17.1643	-52.8824
 148	1	2	-0.042503	-14.3184	-18.356	-56.0835
 149	1	2	0.004295	-14.9054	-18.8112	-54.6886
 150	1	3	0.00226	-14.6754	-20.3407	-54.6883
 151	1	3	-0.145049	-13.3401	-20.4726	-55.4551
 152	1	3	0.011953	-15.6206	-21.0363	-55.7151
 153	1	3	0.014921	-15.0143	-20.5893	-57.1129
 154	1	3	0.025749	-13.8135	-19.6865	-56.6983
 155	1	3	0.154129	-14.624	-17.4481	-51.6645
 156	1	3	-0.203386	-13.893	-17.1928	-50.3281
 157	1	3	-0.113237	-15.9433	-16.6547	-51.7327
 158	1	3	0.129534	-12.5114	-15.5731	-56.8157
 159	1	3	-0.091829	-13.8032	-14.8571	-57.2583
 160	1	3	-0.19809	-12.0005	-16.5298	-57.9154
 161	1	4	0.228684	-9.83832	-13.0204	-48.7821
 162	1	5	0.042843	-11.7236	-11.7598	-53.3189
 163	1	4	0.232532	-8.18456	-11.4157	-53.2537
 164	1	5	0.035382	-12.5853	-12.5482	-51.0174
 165	1	5	0.041247	-11.563	-15.035	-50.4886
 166	1	5	0.06146	-12.791	-13.4392	-54.3519
 167	1	5	0.068364	-13.6917	-14.2319	-52.0105
 168	1	5	0.055799	-10.2472	-15.777	-52.6965
 169	1	5	0.04347	-9.38067	-14.4494	-51.9025
 170	1	5	0.076294	-10.0778	-13.6893	-54.3697
 171	1	5	0.058767	-14.9603	-17.7918	-56.7636
 172	1	5	0.056756	-15.9332	-18.5356	-54.4376
 173	1	5	0.029415	-14.6772	-20.807	-53.6951
 174	1	5	0.049793	-13.0801	-21.516	-55.6833
 175	1	5	0.063468	-12.4883	-20.0085	-54.9409
 176	1	5	-0.012542	-15.6816	-22.1284	-55.6196
 177	1	5	-0.012458	-14.7513	-21.4469	-57.7461
 178	1	5	0.013933	-13.052	-19.578	-57.4802
 179	1	5	0.014892	-14.8852	-18.5144	-51.6818
 180	1	5	0.04353	-13.7232	-16.1224	-50.1652
 181	1	5	0.048722	-12.9221	-17.7038	-50.3135
 182	1	5	0.053734	-14.4872	-17.5688	-49.4861
 183	1	5	0.029251	-16.4851	-16.8946	-52.6555
 184	1	5	0.025572	-15.7544	-15.5742	-51.7187
 185	1	5	0.023611	-16.5928	-16.9015	-50.8837
 186	1	5	0.021405	-11.7417	-14.8008	-56.687
 187	1	5	0.009991	-14.6105	-15.5731	-57.453
 188	1	5	0.026343	-13.6312	-14.279	-58.1747
 189	1	5	0.026093	-14.1441	-14.1655	-56.4779
 190	1	5	0.043016	-12.7662	-17.2631	-58.193
 191	1	5	0.050907	-11.1107	-17.073	-57.5728
 192	1	5	0.051325	-11.7294	-15.9697	-58.8189
 193	1	1	-0.439951	0.872582	-19.409	-51.8329
 194	1	1	0.043044	-0.382394	-20.0143	-51.6277
 195	1	1	0.126458	1.32947	-20.0756	-49.5106
 196	1	1	0.016683	-0.800822	-20.4994	-50.3913
 197	1	1	0.121946	1.73193	-19.5642	-50.7304
 198	1	2	0.005505	-2.27571	-20.2906	-50.6985
 199	1	1	-0.445809	0.00426501	-20.4653	-49.2348
 200	1	2	0.001585	-1.79464	-19.7492	-52.1096
 201	1	3	0.031166	-2.25911	-18.2706	-52.1256
 202	1	2	-0.048351	-4.25967	-19.0855	-50.9249
 203	1	1	-0.041771	-5.15418	-17.8575	-50.8974
 204	1	2	-0.107179	-3.76816	-18.5537	-52.3442
 205	1	3	-0.106774	-2.19137	-17.8519	-50.6292
 206	1	3	-0.025838	-2.97649	-19.0617	-50.052
 207	1	1	-0.051955	-4.73142	-17.3992	-52.1341
 208	1	1	-0.09124	-5.89596	-15.4208	-51.7929
 209	1	1	-0.099966	-6.31347	-15.8709	-50.554
 210	1	1	-0.017311	-5.88715	-17.0846	-49.9745
 211	1	1	-0.020587	-4.99769	-16.1058	-52.6307
 212	1	2	-0.042503	-6.97216	-14.5486	-50.1881
 213	1	2	0.004295	-6.481	-14.0351	-51.61
 214	1	3	0.00226	-5.53331	-12.8628	-51.2521
 215	1	3	-0.145049	-4.9068	-13.3364	-49.9203
 216	1	3	0.011953	-6.34499	-11.6436	-50.7212
 217	1	3	0.014921	-6.86084	-12.1487	-49.3086
 218	1	3	0.025749	-6.25764	-13.5844	-49.2102
 219	1	3	0.154129	-4.4088	-15.4866	-53.8951
 220	1	3	-0.203386	-3.06408	-14.7832	-53.6123
 221	1	3	-0.113237	-4.26984	-16.5018	-55.0508
 222	1	3	0.129534	-6.13723	-17.5232	-48.5353
 223	1	3	-0.091829	-7.5651	-17.1877	-48.0499
 224	1	3	-0.19809	-5.07365	-16.9422	-47.5778
 225	1	4	0.228684	1.09926	-18.7708	-52.6809
 226	1	5	0.042843	-2.87901	-21.2059	-50.6979
 227	1	4	0.232532	-0.385255	-20.583	-48.2287
 228	1	5	0.035382	-2.09066	-20.3272	-52.9929
 229	1	5	0.041247	-1.76008	-17.6184	-52.8501
 230	1	5	0.06146	-4.79644	-20.0416	-50.9097
 231	1	5	0.068364	-3.99111	-19.1811	-53.2154
 232	1	5	0.055799	-2.67899	-16.8882	-50.4321
 233	1	5	0.04347	-1.16896	-17.8008	-50.2468
 234	1	5	0.076294	-3.113	-19.0934	-48.9646
 235	1	5	0.058767	-8.05052	-14.6121	-50.0203
 236	1	5	0.056756	-7.24247	-13.7699	-52.3474
 237	1	5	0.029415	-4.80922	-12.5977	-52.0311
 238	1	5	0.049793	-4.30433	-12.5583	-49.4306
 239	1	5	0.063468	-4.29102	-14.2402	-50.0203
 240	1	5	-0.012542	-5.77702	-10.7068	-50.6467
 241	1	5	-0.012458	-6.57006	-11.4707	-48.4953
 242	1	5	0.013933	-6.1734	-13.9467	-48.1798
 243	1	5	0.014892	-5.10768	-14.7131	-54.2395
 244	1	5	0.04353	-2.29402	-15.5023	-53.3176
 245	1	5	0.048722	-3.16785	-14.0547	-52.8006
 246	1	5	0.053734	-2.70892	-14.2504	-54.503
 247	1	5	0.029251	-3.97795	-15.993	-55.9779
 248	1	5	0.025572	-5.22282	-17.0146	-55.2323
 249	1	5	0.023611	-3.50793	-17.2585	-54.8295
 250	1	5	0.021405	-6.04019	-18.6162	-48.499
 251	1	5	0.009991	-7.71388	-16.1052	-47.9586
 252	1	5	0.026343	-7.75322	-17.6363	-47.0665
 253	1	5	0.026093	-8.31384	-17.5804	-48.7494
 254	1	5	0.043016	-5.13759	-15.8503	-47.5283
 255	1	5	0.050907	-4.06351	-17.2006	-47.915
 256	1	5	0.051325	-5.20439	-17.3377	-46.563
 257	1	1	-0.439951	1.00976	-8.84403	-44.0558
 258	1	1	0.043044	0.203608	-9.18715	-45.1629
 259	1	1	0.126458	1.99921	-7.17667	-45.5654
 260	1	1	0.016683	0.39751	-8.64676	-46.4327
 261	1	1	0.121946	1.8452	-7.73917	-44.3127
 262	1	2	0.005505	-0.141221	-9.87216	-47.1483
 263	1	1	-0.445809	1.37411	-7.67482	-46.7226
 264	1	2	0.001585	-0.400148	-10.4745	-45.7032
 265	1	3	0.031166	0.486755	-11.7437	-45.6599
 266	1	2	-0.048351	-0.0513552	-12.0161	-48.0614
 267	1	1	-0.041771	0.597626	-13.3585	-48.3542
 268	1	2	-0.107179	-0.370885	-12.6146	-46.62
 269	1	3	-0.106774	1.70909	-11.345	-46.535
 270	1	3	-0.025838	0.910297	-10.8371	-47.7691
 271	1	1	-0.051955	0.293627	-13.8829	-47.113
 272	1	1	-0.09124	0.964436	-15.9845	-47.8349
 273	1	1	-0.099966	1.32243	-15.4515	-49.0647
 274	1	1	-0.017311	1.05927	-14.1181	-49.4443
 275	1	1	-0.020587	0.345904	-15.2517	-46.8017
 276	1	2	-0.042503	1.51398	-16.8133	-49.7115
 277	1	2	0.004295	1.08551	-17.4195	-48.3081
 278	1	3	0.00226	2.33885	-18.2182	-47.8737
 279	1	3	-0.145049	3.4935	-17.3605	-48.4391
 280	1	3	0.011953	2.51335	-19.4856	-48.7601
 281	1	3	0.014921	2.96241	-18.8825	-50.1577
 282	1	3	0.025749	2.96126	-17.3459	-49.8891
 283	1	3	0.154129	-0.328022	-15.8446	-45.5696
 284	1	3	-0.203386	-1.7152	-16.4211	-45.9262
 285	1	3	-0.113237	0.543733	-16.903	-44.8617
 286	1	3	0.129534	1.1257	-13.5743	-50.866
 287	1	3	-0.091829	-0.113329	-14.0057	-51.679
 288	1	3	-0.19809	2.43073	-13.9708	-51.5896
 289	1	4	0.228684	1.08064	-9.44817	-43.1571
 290	1	5	0.042843	-1.02117	-9.69277	-47.7771
 291	1	4	0.232532	1.71297	-7.44598	-47.728
 292	1	5	0.035382	-1.4441	-10.6473	-45.4166
 293	1	5	0.041247	0.702727	-12.1626	-44.6691
 294	1	5	0.06146	-0.892545	-11.7562	-48.7153
 295	1	5	0.068364	-1.41926	-12.724	-46.3177
 296	1	5	0.055799	2.36769	-12.1924	-46.7651
 297	1	5	0.04347	2.31799	-10.5615	-46.0771
 298	1	5	0.076294	1.49655	-10.4559	-48.6145
 299	1	5	0.058767	0.885392	-16.9984	-50.5854
 300	1	5	0.056756	0.159625	-17.9975	-48.247
 301	1	5	0.029415	2.41627	-18.4208	-46.7992
 302	1	5	0.049793	4.4731	-17.8512	-48.349
 303	1	5	0.063468	3.56482	-16.3627	-47.9869
 304	1	5	-0.012542	3.23142	-20.222	-48.3758
 305	1	5	-0.012458	3.9221	-19.2923	-50.4994
 306	1	5	0.013933	3.5839	-16.7768	-50.5898
 307	1	5	0.014892	-0.487891	-15.0318	-44.849
 308	1	5	0.04353	-1.62566	-17.2545	-46.634
 309	1	5	0.048722	-2.34463	-15.6497	-46.3878
 310	1	5	0.053734	-2.2292	-16.7864	-45.0286
 311	1	5	0.029251	1.55521	-16.5172	-44.6825
 312	1	5	0.025572	0.620665	-17.8171	-45.4608
 313	1	5	0.023611	0.107517	-17.1751	-43.8924
 314	1	5	0.021405	1.11303	-12.4779	-50.8094
 315	1	5	0.009991	-1.03493	-13.6786	-51.1809
 316	1	5	0.026343	-0.154415	-15.0966	-51.7874
 317	1	5	0.026093	-0.0949203	-13.5624	-52.6824
 318	1	5	0.043016	2.518	-13.4425	-52.5471
 319	1	5	0.050907	2.45778	-15.0468	-51.7958
 320	1	5	0.051325	3.30542	-13.7141	-50.9787
 321	1	1	-0.439951	13.0994	-7.54697	-46.1188
 322	1	1	0.043044	12.7665	-8.87861	-45.794
 323	1	1	0.126458	13.7887	-7.35946	-43.7691
 324	1	1	0.016683	12.8036	-9.37181	-44.4898
 325	1	1	0.121946	13.6995	-6.85383	-45.0521
 326	1	2	0.005505	11.6632	-10.3582	-44.7258
 327	1	1	-0.445809	13.2355	-8.59973	-43.3905
 328	1	2	0.001585	11.6435	-9.8084	-46.2099
 329	1	3	0.031166	10.2472	-9.16124	-46.3516
 330	1	2	-0.048351	9.40064	-11.009	-44.9348
 331	1	1	-0.041771	7.88966	-10.7737	-45.0029
 332	1	2	-0.107179	9.4333	-10.476	-46.4324
 333	1	3	-0.106774	9.93611	-8.65237	-44.9146
 334	1	3	-0.025838	10.2624	-9.96991	-44.1652
 335	1	1	-0.051955	7.93456	-10.319	-46.3142
 336	1	1	-0.09124	5.80262	-9.41201	-46.0948
 337	1	1	-0.099966	5.71967	-9.91813	-44.81
 338	1	1	-0.017311	6.8054	-10.5099	-44.1312
 339	1	1	-0.020587	6.94957	-9.50538	-46.9052
 340	1	2	-0.042503	4.41499	-9.19545	-44.5026
 341	1	2	0.004295	4.53563	-8.58591	-45.9645
 342	1	3	0.00226	4.65353	-7.06187	-45.6843
 343	1	3	-0.145049	5.41834	-7.01774	-44.3422
 344	1	3	0.011953	3.29541	-6.47854	-45.2026
 345	1	3	0.014921	3.12137	-7.11348	-43.7599
 346	1	3	0.025749	4.43318	-7.94452	-43.5937
 347	1	3	0.154129	7.14964	-8.83357	-48.2628
 348	1	3	-0.203386	5.94083	-9.04402	-49.2009
 349	1	3	-0.113237	7.50937	-7.3359	-48.1511
 350	1	3	0.129534	6.77317	-10.7878	-42.6295
 351	1	3	-0.091829	7.32752	-9.60827	-41.8
 352	1	3	-0.19809	7.48005	-12.109	-42.2538
 353	1	4	0.228684	12.7784	-7.06004	-47.0339
 354	1	5	0.042843	11.9222	-11.4148	-44.5922
 355	1	4	0.232532	13.0142	-8.85691	-42.3595
 356	1	5	0.035382	11.9013	-10.5135	-47.0087
 357	1	5	0.041247	10.1276	-8.4467	-47.1737
 358	1	5	0.06146	9.70588	-12.0497	-44.7743
 359	1	5	0.068364	9.7653	-11.1766	-47.2078
 360	1	5	0.055799	8.89791	-8.32125	-44.7844
 361	1	5	0.04347	10.5893	-7.84249	-44.6008
 362	1	5	0.076294	10.1789	-9.95667	-43.0746
 363	1	5	0.058767	3.56629	-9.85511	-44.3018
 364	1	5	0.056756	3.75479	-8.84219	-46.6845
 365	1	5	0.029415	5.1039	-6.46853	-46.4835
 366	1	5	0.049793	5.4675	-6.00889	-43.9091
 367	1	5	0.063468	6.43934	-7.41581	-44.4067
 368	1	5	-0.012542	3.24342	-5.38179	-45.1852
 369	1	5	-0.012458	2.96322	-6.34727	-42.9895
 370	1	5	0.013933	4.69052	-8.13882	-42.5463
 371	1	5	0.014892	8.0064	-9.32419	-48.7431
 372	1	5	0.04353	6.15669	-8.65569	-50.204
 373	1	5	0.048722	5.04933	-8.52988	-48.8223
 374	1	5	0.053734	5.70674	-10.1121	-49.2933
 375	1	5	0.029251	6.62223	-6.72434	-47.9706
 376	1	5	0.025572	7.9645	-6.98219	-49.0845
 377	1	5	0.023611	8.22006	-7.15514	-47.3364
 378	1	5	0.021405	5.71945	-10.9051	-42.3441
 379	1	5	0.009991	7.12707	-9.75976	-40.732
 380	1	5	0.026343	6.86662	-8.6609	-42.0985
 381	1	5	0.026093	8.40749	-9.50289	-41.9241
 382	1	5	0.043016	7.32617	-12.3414	-41.1926
 383	1	5	0.050907	8.56001	-12.0493	-42.4328
 384	1	5	0.051325	7.07901	-12.9424	-42.8443
 385	1	1	-0.439951	5.38446	0.311094	-39.1558
 386	1	1	0.043044	5.0008	-0.584554	-40.1761
 387	1	1	0.126458	4.88593	2.06473	-40.8039
 388	1	1	0.016683	4.7202	-0.172948	-41.4771
 389	1	1	0.121946	5.2116	1.65947	-39.5232
 390	1	2	0.005505	5.14711	-1.49358	-42.0959
 391	1	1	-0.445809	4.7387	1.17508	-41.8846
 392	1	2	0.001585	5.43321	-1.97431	-40.6111
 393	1	3	0.031166	6.95179	-2.27575	-40.5999
 394	1	2	-0.048351	6.65407	-3.07551	-42.9298
 395	1	1	-0.041771	8.03353	-3.65395	-43.223
 396	1	2	-0.107179	6.8878	-3.58223	-41.435
 397	1	3	-0.106774	7.52666	-1.23925	-41.6066
 398	1	3	-0.025838	6.5473	-1.53548	-42.7766
 399	1	1	-0.051955	8.21514	-4.10647	-41.9306
 400	1	1	-0.09124	10.2659	-4.99508	-42.5125
 401	1	1	-0.099966	10.1202	-4.50126	-43.7966
 402	1	1	-0.017311	8.96636	-3.84134	-44.2663
 403	1	1	-0.020587	9.32197	-4.84303	-41.4796
 404	1	2	-0.042503	11.3559	-5.21353	-44.3247
 405	1	2	0.004295	11.5012	-5.7994	-42.8518
 406	1	3	0.00226	12.872	-5.26457	-42.3827
 407	1	3	-0.145049	12.9423	-3.88586	-43.0776
 408	1	3	0.011953	14.019	-5.99089	-43.1431
 409	1	3	0.014921	13.8955	-5.40833	-44.6144
 410	1	3	0.025749	12.6805	-4.42846	-44.5007
 411	1	3	0.154129	9.43947	-5.40146	-40.0662
 412	1	3	-0.203386	9.90033	-6.87535	-40.0414
 413	1	3	-0.113237	10.3624	-4.51728	-39.202
 414	1	3	0.129534	8.75899	-3.45734	-45.726
 415	1	3	-0.091829	8.94871	-1.9414	-45.9412
 416	1	3	-0.19809	7.39286	-3.93611	-46.2649
 417	1	4	0.228684	5.89186	0.00183321	-38.2476
 418	1	5	0.042843	4.36028	-2.02282	-42.6461
 419	1	4	0.232532	4.7902	1.48633	-42.9231
 420	1	5	0.035382	4.81002	-2.7885	-40.2229
 421	1	5	0.041247	7.43767	-2.33655	-39.618
 422	1	5	0.06146	5.82938	-3.52698	-43.4934
 423	1	5	0.068364	6.20858	-4.34574	-41.0372
 424	1	5	0.055799	8.5768	-1.42752	-41.865
 425	1	5	0.04347	7.44693	-0.211286	-41.2459
 426	1	5	0.076294	6.66795	-0.93467	-43.6855
 427	1	5	0.058767	11.1647	-5.88395	-45.1643
 428	1	5	0.056756	11.3843	-6.87513	-42.7049
 429	1	5	0.029415	13.0112	-5.23556	-41.2953
 430	1	5	0.049793	13.9273	-3.40816	-42.9781
 431	1	5	0.063468	12.1772	-3.17874	-42.7309
 432	1	5	-0.012542	15.0205	-5.83909	-42.7195
 433	1	5	-0.012458	14.8303	-4.94467	-44.956
 434	1	5	0.013933	12.6578	-3.65785	-45.2814
 435	1	5	0.014892	8.44195	-5.37338	-39.6085
 436	1	5	0.04353	9.81327	-7.28944	-39.0292
 437	1	5	0.048722	10.9466	-6.97174	-40.3537
 438	1	5	0.053734	9.28099	-7.48356	-40.7115
 439	1	5	0.029251	9.99614	-3.48305	-39.1814
 440	1	5	0.025572	11.3844	-4.50788	-39.5999
 441	1	5	0.023611	10.3995	-4.88476	-38.1688
 442	1	5	0.021405	9.52982	-3.9653	-46.3204
 443	1	5	0.009991	8.1875	-1.36612	-45.4024
 444	1	5	0.026343	8.87712	-1.68817	-47.0063
 445	1	5	0.026093	9.93531	-1.6219	-45.5823
 446	1	5	0.043016	6.56558	-3.38995	-45.7968
 447	1	5	0.050907	7.25525	-5.00578	-46.0642
 448	1	5	0.051325	7.32867	-3.78277	-47.3493
 449	1	1	-0.439951	13.8759	9.02169	-42.2041
 450	1	1	0.043044	14.3669	7.74392	-41.8688
 451	1	1	0.126458	14.5698	9.64491	-39.9292
 452	1	1	0.016683	14.7908	7.40557	-40.5857
 453	1	1	0.121946	14.0978	9.96726	-41.1871
 454	1	2	0.005505	14.4354	5.93428	-40.7488
 455	1	1	-0.445809	14.8271	8.32305	-39.5157
 456	1	2	0.001585	13.9769	6.32151	-42.2165
 457	1	3	0.031166	12.462	6.00943	-42.2349
 458	1	2	-0.048351	13.0174	4.06953	-40.8028
 459	1	1	-0.041771	11.6833	3.33711	-40.7339
 460	1	2	-0.107179	12.5913	4.46469	-42.2857
 461	1	3	-0.106774	12.0198	6.28203	-40.7675
 462	1	3	-0.025838	13.1241	5.43729	-40.0732
 463	1	1	-0.051955	11.3245	3.67603	-42.0281
 464	1	1	-0.09124	9.14558	2.99192	-41.6116
 465	1	1	-0.099966	9.49799	2.63849	-40.3209
 466	1	1	-0.017311	10.7739	2.86926	-39.7624
 467	1	1	-0.020587	10.0139	3.60528	-42.5356
 468	1	2	-0.042503	8.06662	2.3155	-39.9113
 469	1	2	0.004295	7.66796	2.73834	-41.3906
 470	1	3	0.00226	6.72869	3.95172	-41.1633
 471	1	3	-0.145049	7.32262	4.60601	-39.8947
 472	1	3	0.011953	5.36369	3.48799	-40.5812
 473	1	3	0.014921	5.73851	3.02834	-39.1107
 474	1	3	0.025749	7.27153	3.319	-39.0403
 475	1	3	0.154129	9.63102	4.11465	-43.9237
 476	1	3	-0.203386	8.70035	3.13523	-44.6734
 477	1	3	-0.113237	9.02195	5.53128	-43.8884
 478	1	3	0.129534	11.1539	2.66504	-38.2994
 479	1	3	-0.091829	10.5602	1.36665	-37.7086
 480	1	3	-0.19809	10.7793	3.88705	-37.4372
 481	1	4	0.228684	13.2751	9.2222	-43.0853
 482	1	5	0.042843	15.2796	5.2406	-40.66
 483	1	4	0.232532	14.9068	8.02876	-38.474
 484	1	5	0.035382	14.5408	5.88304	-43.0481
 485	1	5	0.041247	11.8825	6.49049	-43.0302
 486	1	5	0.06146	13.9017	3.43064	-40.6927
 487	1	5	0.068364	13.2124	4.08306	-43.1049
 488	1	5	0.055799	11.0043	5.92503	-40.5517
 489	1	5	0.04347	12.0719	7.33944	-40.494
 490	1	5	0.076294	13.1207	5.41886	-38.9773
 491	1	5	0.058767	7.9004	1.27511	-39.6205
 492	1	5	0.056756	7.24433	1.96851	-42.0397
 493	1	5	0.029415	6.61855	4.62596	-42.0178
 494	1	5	0.049793	6.69068	5.40978	-39.4916
 495	1	5	0.063468	8.3376	5.00022	-40.037
 496	1	5	-0.012542	4.57346	4.25036	-40.5912
 497	1	5	-0.012458	5.13739	3.54514	-38.3509
 498	1	5	0.013933	7.63813	3.43594	-38.015
 499	1	5	0.014892	10.5544	4.18247	-44.5139
 500	1	5	0.04353	7.7109	3.08672	-44.2036
 501	1	5	0.048722	9.12809	2.12465	-44.6807
 502	1	5	0.053734	8.56363	3.45274	-45.7145
 503	1	5	0.029251	8.88217	5.91761	-44.9056
 504	1	5	0.025572	9.67752	6.2241	-43.3528
 505	1	5	0.023611	8.04888	5.5377	-43.3903
 506	1	5	0.021405	12.2459	2.56215	-38.2523
 507	1	5	0.009991	9.46838	1.42628	-37.6265
 508	1	5	0.026343	10.9626	1.18031	-36.7051
 509	1	5	0.026093	10.8114	0.504248	-38.339
 510	1	5	0.043016	11.1622	3.77595	-36.4151
 511	1	5	0.050907	9.69455	4.0186	-37.3819
 512	1	5	0.051325	11.2045	4.80149	-37.8626
 513	1	1	-0.439951	2.98433	8.05534	-34.5105
 514	1	1	0.043044	3.72763	8.4322	-35.6415
 515	1	1	0.126458	1.02186	8.54593	-35.913
 516	1	1	0.016683	3.15574	8.736	-36.8712
 517	1	1	0.121946	1.60314	8.24048	-34.6926
 518	1	2	0.005505	4.41871	8.39575	-37.6504
 519	1	1	-0.445809	1.76577	8.69115	-37.1021
 520	1	2	0.001585	5.06231	8.04702	-36.2408
 521	1	3	0.031166	6.20264	9.08267	-36.08
 522	1	2	-0.048351	6.55864	8.77289	-38.5116
 523	1	1	-0.041771	7.83679	9.56527	-38.7589
 524	1	2	-0.107179	7.17608	8.42922	-37.0904
 525	1	3	-0.106774	5.67396	10.3261	-36.85
 526	1	3	-0.025838	5.27902	9.58675	-38.1603
 527	1	1	-0.051955	8.35952	9.27397	-37.5086
 528	1	1	-0.09124	10.486	9.9174	-38.2227
 529	1	1	-0.099966	9.97408	10.2122	-39.4796
 530	1	1	-0.017311	8.64613	9.92624	-39.8571
 531	1	1	-0.020587	9.72736	9.32403	-37.1957
 532	1	2	-0.042503	11.3388	10.1763	-40.1522
 533	1	2	0.004295	11.9155	9.83121	-38.7198
 534	1	3	0.00226	12.8513	11.0261	-38.418
 535	1	3	-0.145049	12.1231	12.2034	-39.1058
 536	1	3	0.011953	14.1201	10.9615	-39.3152
 537	1	3	0.014921	13.5566	11.3204	-40.7558
 538	1	3	0.025749	12.0309	11.5226	-40.4897
 539	1	3	0.154129	10.3011	8.642	-35.9579
 540	1	3	-0.203386	10.7508	7.20223	-36.2761
 541	1	3	-0.113237	11.4441	9.44718	-35.3032
 542	1	3	0.129534	8.22171	9.824	-41.3177
 543	1	3	-0.091829	6.8195	10.4183	-41.5743
 544	1	3	-0.19809	8.30718	8.36589	-41.8163
 545	1	4	0.228684	3.41062	7.53697	-33.6577
 546	1	5	0.042843	4.30292	7.58934	-38.3841
 547	1	4	0.232532	1.32602	8.62033	-38.0919
 548	1	5	0.035382	5.36838	7.01227	-36.0463
 549	1	5	0.041247	6.58121	9.25038	-35.0639
 550	1	5	0.06146	6.37902	7.95028	-39.2131
 551	1	5	0.068364	7.41801	7.38354	-36.865
 552	1	5	0.055799	6.44603	11.0902	-37.0078
 553	1	5	0.04347	4.81859	10.803	-36.3543
 554	1	5	0.076294	4.84512	10.2005	-38.9593
 555	1	5	0.058767	11.4369	9.44127	-40.9554
 556	1	5	0.056756	12.3924	8.85932	-38.5686
 557	1	5	0.029415	13.0705	11.1911	-37.3563
 558	1	5	0.049793	12.7224	13.1249	-39.1223
 559	1	5	0.063468	11.1455	12.4359	-38.6637
 560	1	5	-0.012542	14.935	11.6311	-39.0097
 561	1	5	-0.012458	14.0672	12.1862	-41.1979
 562	1	5	0.013933	11.5231	12.1218	-41.2558
 563	1	5	0.014892	9.49827	8.5734	-35.2121
 564	1	5	0.04353	11.0979	6.6911	-35.3695
 565	1	5	0.048722	11.5669	7.19612	-37.0087
 566	1	5	0.053734	9.91461	6.62687	-36.6917
 567	1	5	0.029251	12.3442	9.44053	-35.928
 568	1	5	0.025572	11.7101	9.0157	-34.3302
 569	1	5	0.023611	11.1416	10.4893	-35.1402
 570	1	5	0.021405	8.92959	10.4136	-41.915
 571	1	5	0.009991	6.03606	9.81325	-41.1034
 572	1	5	0.026343	6.6097	10.4587	-42.6505
 573	1	5	0.026093	6.75293	11.4393	-41.178
 574	1	5	0.043016	9.31492	7.96357	-41.6539
 575	1	5	0.050907	8.08578	8.30926	-42.8892
 576	1	5	0.051325	7.59616	7.72132	-41.2857
 577	1	1	-0.439951	-7.30571	15.0789	-30.9519
 578	1	1	0.043044	-6.96643	13.8351	-30.4236
 579	1	1	0.126458	-6.11432	16.0315	-29.0083
 580	1	1	0.016683	-6.25361	13.6739	-29.2738
 581	1	1	0.121946	-6.91282	16.2113	-30.1866
 582	1	2	0.005505	-6.14669	12.1612	-29.4191
 583	1	1	-0.445809	-5.7495	14.7454	-28.5364
 584	1	2	0.001585	-6.96828	12.3555	-30.7692
 585	1	3	0.031166	-6.05153	11.7225	-31.8608
 586	1	2	-0.048351	-4.07488	12.5273	-30.6216
 587	1	1	-0.041771	-2.92014	12.0732	-31.4924
 588	1	2	-0.107179	-4.878	12.7383	-31.976
 589	1	3	-0.106774	-5.42581	10.5569	-31.0442
 590	1	3	-0.025838	-4.85851	11.4163	-29.8779
 591	1	1	-0.051955	-3.6067	12.2703	-32.6782
 592	1	1	-0.09124	-1.88635	11.2002	-33.8376
 593	1	1	-0.099966	-1.24199	10.9387	-32.6393
 594	1	1	-0.017311	-1.75728	11.2883	-31.3735
 595	1	1	-0.020587	-3.17478	11.7683	-33.9269
 596	1	2	-0.042503	-0.254588	9.96648	-33.2664
 597	1	2	0.004295	-0.969542	10.2932	-34.6459
 598	1	3	0.00226	-1.50552	8.91654	-35.1061
 599	1	3	-0.145049	-1.89796	8.25719	-33.7633
 600	1	3	0.011953	-0.333393	7.97511	-35.518
 601	1	3	0.014921	0.338505	7.63196	-34.1257
 602	1	3	0.025749	-0.510414	8.44259	-33.1084
 603	1	3	0.154129	-3.97152	11.8034	-35.2295
 604	1	3	-0.203386	-4.92226	10.5941	-35.3683
 605	1	3	-0.113237	-4.73789	13.1309	-35.4211
 606	1	3	0.129534	-1.16682	10.8937	-30.0212
 607	1	3	-0.091829	0.372175	11.0214	-29.9896
 608	1	3	-0.19809	-1.61431	9.48738	-29.5654
 609	1	4	0.228684	-7.8401	15.1658	-31.8923
 610	1	5	0.042843	-6.67579	11.5853	-28.652
 611	1	4	0.232532	-5.11346	14.6054	-27.6681
 612	1	5	0.035382	-7.95571	11.8811	-30.768
 613	1	5	0.041247	-6.5589	11.4508	-32.7913
 614	1	5	0.06146	-3.84469	13.4107	-30.017
 615	1	5	0.068364	-5.18067	13.7586	-32.2341
 616	1	5	0.055799	-4.64923	10.0139	-31.5987
 617	1	5	0.04347	-6.18122	9.83715	-30.7015
 618	1	5	0.076294	-4.31473	10.8815	-29.091
 619	1	5	0.058767	0.800151	10.2484	-33.1761
 620	1	5	0.056756	-0.364967	10.7998	-35.4063
 621	1	5	0.029415	-2.3082	8.95855	-35.8511
 622	1	5	0.049793	-2.18069	7.20066	-33.8736
 623	1	5	0.063468	-2.70563	8.77796	-33.2327
 624	1	5	-0.012542	-0.635686	7.07295	-36.0661
 625	1	5	-0.012458	0.384346	6.55112	-33.937
 626	1	5	0.013933	-0.429698	8.05546	-32.089
 627	1	5	0.014892	-3.25117	11.7363	-36.0554
 628	1	5	0.04353	-4.38912	9.65163	-35.2047
 629	1	5	0.048722	-5.36371	10.5637	-36.3722
 630	1	5	0.053734	-5.73937	10.6425	-34.6442
 631	1	5	0.029251	-5.54186	13.2383	-34.6833