pySIMM System Object

2360 atoms
2692 bonds
5616 angles
10200 dihedrals
144 impropers

5 atom types
9 bond types
18 angle types
19 dihedral types
2 improper types

-182.264436 182.264436 xlo xhi
-182.264436 182.264436 ylo yhi
-182.264436 182.264436 zlo zhi

Masses

   1	12.01	# ca
   2	12.01	# cy
   3	12.01	# c3
   4	1.008	# ha
   5	1.008	# hc

Pair Coeffs

   1	0.086	3.3996695084235347	# ca
   2	0.086	3.3996695084235347	# cy
   3	0.1094	3.3996695084235347	# c3
   4	0.015	2.59964245953351	# ha
   5	0.0157	2.649532787749369	# hc

Bond Coeffs

   1	300.9	1.5375	# c3,c3
   2	305.9	1.5319	# c3,cy
   3	345.8	1.086	# ca,ha
   4	321.0	1.5156	# c3,ca
   5	285.0	1.5562	# cy,cy
   6	330.6	1.0969	# c3,hc
   7	333.3	1.0949	# cy,hc
   8	321.2	1.5154	# ca,cy
   9	461.1	1.3984	# ca,ca

Angle Coeffs

   1	66.62	120.02	# ca,ca,ca
   2	61.4	116.81	# ca,cy,cy
   3	44.83	114.79	# cy,cy,hc
   4	46.43	110.14	# c3,cy,hc
   5	63.15	112.07	# c3,c3,ca
   6	46.34	109.8	# c3,c3,hc
   7	39.4	107.58	# hc,c3,hc
   8	48.18	119.88	# ca,ca,ha
   9	63.53	120.77	# c3,ca,ca
  10	60.66	118.7	# c3,cy,cy
  11	63.51	120.86	# ca,ca,cy
  12	62.73	112.39	# c3,c3,cy
  13	46.29	110.75	# cy,c3,hc
  14	46.8	110.47	# ca,c3,hc
  15	62.8	113.57	# c3,cy,ca
  16	62.86	111.51	# c3,c3,c3
  17	67.9	96.03	# cy,c3,cy
  18	45.97	114.53	# ca,cy,hc

Dihedral Coeffs

   1	1	0.16	3	0.0	# hc,c3,cy,cy
   2	1	0.16	3	0.0	# cy,c3,cy,hc
   3	1	0.16	3	0.0	# c3,c3,cy,hc
   4	1	0.15	3	0.0	# hc,c3,cy,hc
   5	1	3.625	2	180	# X,ca,ca,X
   6	1	0.15555555555555556	3	0	# X,cy,cy,X
   7	3	0.18	3	0	0.25	2	180	0.2	1	180	# c3,c3,c3,c3
   8	1	0.16	3	0	# hc,c3,c3,c3
   9	1	0.0	2	0.0	# ca,ca,cy,cy
  10	1	0.0	2	0.0	# ca,ca,cy,c3
  11	1	0.15555555555555556	3	0	# X,c3,c3,X
  12	1	0.0	2	0	# X,c3,ca,X
  13	3	0.38	3	180.0	0.0	2	0.0	1.15	1	0.0	# ca,ca,cy,hc
  14	3	0.18	3	0.0	0.25	2	180.0	0.2	1	180.0	# cy,c3,cy,cy
  15	1	0.16	3	0.0	# cy,c3,cy,ca
  16	1	0.16	3	0.0	# c3,c3,cy,ca
  17	1	0.16	3	0.0	# hc,c3,cy,ca
  18	1	0.15	3	0	# hc,c3,c3,hc
  19	3	0.18	3	0.0	0.25	2	180.0	0.2	1	180.0	# c3,c3,cy,cy

Improper Coeffs

   1	1.1	-1	2	# ca,ca,ca,c3
   2	1.1	-1	2	# ca,X,X,ha

Atoms

   1	1	1	-0.439951	-23.7264	-19.13	-36.2211
   2	1	1	0.043044	-24.7231	-18.2201	-35.8194
   3	1	1	0.126458	-25.5981	-20.4243	-37.1508
   4	1	1	0.016683	-26.084	-18.4685	-35.9643
   5	1	1	0.121946	-24.2444	-20.1802	-37.0
   6	1	2	0.005505	-26.4741	-17.5344	-34.8335
   7	1	1	-0.445809	-26.5975	-19.6507	-36.533
   8	1	2	0.001585	-24.9221	-17.2498	-34.6704
   9	1	3	0.031166	-24.5965	-17.768	-33.2462
  10	1	2	-0.048351	-26.8318	-16.899	-32.6234
  11	1	1	-0.041771	-26.8481	-17.052	-31.1092
  12	1	2	-0.107179	-25.2735	-16.609	-32.4675
  13	1	3	-0.106774	-25.5896	-18.9497	-33.0555
  14	1	3	-0.025838	-26.8766	-18.1894	-33.4862
  15	1	1	-0.051955	-25.4926	-16.8003	-30.9786
  16	1	1	-0.09124	-25.5806	-17.4258	-28.7382
  17	1	1	-0.099966	-26.9408	-17.6563	-28.8628
  18	1	1	-0.017311	-27.6457	-17.5991	-30.0812
  19	1	1	-0.020587	-24.7423	-17.0801	-29.8199
  20	1	2	-0.042503	-27.0644	-18.2965	-27.4917
  21	1	2	0.004295	-25.5066	-18.0358	-27.3453
  22	1	3	0.00226	-24.9426	-19.4661	-27.1779
  23	1	3	-0.145049	-25.8674	-20.3195	-28.0703
  24	1	3	0.011953	-25.3602	-19.9824	-25.7773
  25	1	3	0.014921	-26.8854	-20.2394	-25.9292
  26	1	3	0.025749	-27.1688	-19.8355	-27.3979
  27	1	3	0.154129	-23.217	-17.0235	-29.7907
  28	1	3	-0.203386	-22.67	-16.4071	-28.4843
  29	1	3	-0.113237	-22.5833	-18.4064	-30.0569
  30	1	3	0.129534	-29.0814	-18.0966	-30.2293
  31	1	3	-0.091829	-29.1357	-19.5654	-30.7039
  32	1	3	-0.19809	-29.9361	-17.1878	-31.1406
  33	1	4	0.228684	-22.7017	-19.0939	-35.8664
  34	1	5	0.042843	-27.1056	-16.69	-35.1325
  35	1	4	0.232532	-27.6205	-19.9869	-36.3999
  36	1	5	0.035382	-24.58	-16.2278	-34.8686
  37	1	5	0.041247	-23.5392	-17.9624	-33.0326
  38	1	5	0.06146	-27.4518	-16.0793	-33.0062
  39	1	5	0.068364	-24.9226	-15.6093	-32.751
  40	1	5	0.055799	-25.6327	-19.3063	-32.0183
  41	1	5	0.04347	-25.3627	-19.8056	-33.7041
  42	1	5	0.076294	-27.8133	-18.7557	-33.4948
  43	1	5	0.058767	-27.7151	-17.7765	-26.78
  44	1	5	0.056756	-25.2013	-17.356	-26.5421
  45	1	5	0.029415	-23.8713	-19.5747	-27.3763
  46	1	5	0.049793	-25.7005	-21.399	-27.9501
  47	1	5	0.063468	-25.8035	-20.067	-29.137
  48	1	5	-0.012542	-25.1423	-19.2505	-24.9887
  49	1	5	-0.012458	-27.476	-19.6465	-25.2187
  50	1	5	0.013933	-28.092	-20.2671	-27.8016
  51	1	5	0.014892	-22.8958	-16.3639	-30.6076
  52	1	5	0.04353	-23.133	-15.4306	-28.2946
  53	1	5	0.048722	-21.5849	-16.2599	-28.5515
  54	1	5	0.053734	-22.8691	-17.0556	-27.6231
  55	1	5	0.029251	-22.9737	-18.8469	-30.9809
  56	1	5	0.025572	-22.7923	-19.106	-29.2427
  57	1	5	0.023611	-21.4942	-18.3203	-30.1572
  58	1	5	0.021405	-29.5438	-18.0671	-29.234
  59	1	5	0.009991	-30.1665	-19.9408	-30.6853
  60	1	5	0.026343	-28.5302	-20.2101	-30.0576
  61	1	5	0.026093	-28.7569	-19.6713	-31.7243
  62	1	5	0.043016	-29.5973	-17.233	-32.1823
  63	1	5	0.050907	-29.8815	-16.1444	-30.8056
  64	1	5	0.051325	-30.9886	-17.4966	-31.1155
  65	1	1	-0.439951	-24.8381	-21.56	-48.0366
  66	1	1	0.043044	-23.9511	-22.5495	-47.5683
  67	1	1	0.126458	-22.8125	-20.2012	-48.346
  68	1	1	0.016683	-22.5867	-22.3323	-47.3991
  69	1	1	0.121946	-24.1675	-20.4178	-48.5143
  70	1	2	0.005505	-22.4485	-23.4108	-46.338
  71	1	1	-0.445809	-21.9592	-21.1012	-47.6788
  72	1	2	0.001585	-24.0037	-23.6562	-46.5292
  73	1	3	0.031166	-24.6111	-23.2993	-45.1456
  74	1	2	-0.048351	-22.5704	-24.3253	-44.2008
  75	1	1	-0.041771	-22.8523	-24.3425	-42.7093
  76	1	2	-0.107179	-24.1338	-24.5691	-44.3876
  77	1	3	-0.106774	-23.6624	-22.1907	-44.6088
  78	1	3	-0.025838	-22.3253	-22.9426	-44.8635
  79	1	1	-0.051955	-24.211	-24.5579	-42.8671
  80	1	1	-0.09124	-24.5277	-24.1619	-40.594
  81	1	1	-0.099966	-23.1719	-23.9229	-40.4417
  82	1	1	-0.017311	-22.2488	-23.9188	-41.5088
  83	1	1	-0.020587	-25.1576	-24.4049	-41.8305
  84	1	2	-0.042503	-23.3257	-23.3755	-39.0302
  85	1	2	0.004295	-24.8817	-23.6552	-39.2065
  86	1	3	0.00226	-25.5074	-22.2464	-39.061
  87	1	3	-0.145049	-24.4319	-21.3392	-39.7071
  88	1	3	0.011953	-25.3939	-21.8732	-37.5553
  89	1	3	0.014921	-23.8449	-21.5942	-37.3787
  90	1	3	0.025749	-23.2798	-21.8438	-38.805
  91	1	3	0.154129	-26.6746	-24.4929	-41.9797
  92	1	3	-0.203386	-27.3018	-23.1426	-42.3793
  93	1	3	-0.113237	-27.1112	-25.6109	-42.9519
  94	1	3	0.129534	-20.7796	-23.5147	-41.4173
  95	1	3	-0.091829	-20.1038	-24.0187	-40.1229
  96	1	3	-0.19809	-20.5848	-21.9945	-41.5846
  97	1	4	0.228684	-25.9151	-21.6122	-47.9136
  98	1	5	0.042843	-21.7785	-24.2354	-46.6081
  99	1	4	0.232532	-20.9777	-20.8281	-47.3047
 100	1	5	0.035382	-24.3086	-24.6351	-46.9173
 101	1	5	0.041247	-25.6842	-23.0827	-45.138
 102	1	5	0.06146	-21.897	-25.1185	-44.5471
 103	1	5	0.068364	-24.4358	-25.5137	-44.8551
 104	1	5	0.055799	-23.831	-21.9606	-43.5487
 105	1	5	0.04347	-23.7377	-21.2577	-45.176
 106	1	5	0.076294	-21.3995	-22.419	-44.6002
 107	1	5	0.058767	-22.8176	-23.941	-38.2411
 108	1	5	0.056756	-25.324	-24.3941	-38.5289
 109	1	5	0.029415	-26.5182	-22.1339	-39.4692
 110	1	5	0.049793	-24.6367	-20.2659	-39.603
 111	1	5	0.063468	-24.271	-21.5416	-40.7741
 112	1	5	-0.012542	-25.7989	-22.6088	-36.8478
 113	1	5	-0.012458	-23.3759	-22.1703	-36.5701
 114	1	5	0.013933	-22.3103	-21.3661	-38.978
 115	1	5	0.014892	-27.0863	-24.755	-40.9962
 116	1	5	0.04353	-26.9833	-22.347	-41.6978
 117	1	5	0.048722	-28.3969	-23.1986	-42.3477
 118	1	5	0.053734	-27.0079	-22.8559	-43.3923
 119	1	5	0.029251	-26.8178	-25.3807	-43.983
 120	1	5	0.025572	-28.2011	-25.7357	-42.9325
 121	1	5	0.023611	-26.6564	-26.5688	-42.6698
 122	1	5	0.021405	-20.2547	-23.9963	-42.2528
 123	1	5	0.009991	-20.5068	-23.5123	-39.2376
 124	1	5	0.026343	-19.0231	-23.8318	-40.1537
 125	1	5	0.026093	-20.2567	-25.0985	-40.0015
 126	1	5	0.043016	-20.9983	-21.4411	-40.737
 127	1	5	0.050907	-21.0868	-21.6421	-42.4898
 128	1	5	0.051325	-19.5196	-21.7448	-41.6654
 129	1	1	-0.439951	-24.3469	-14.3993	-37.1884
 130	1	1	0.043044	-24.8336	-15.5726	-37.7968
 131	1	1	0.126458	-26.7203	-13.9377	-36.7307
 132	1	1	0.016683	-26.1866	-15.8506	-37.9531
 133	1	1	0.121946	-25.3754	-13.6577	-36.577
 134	1	2	0.005505	-25.9585	-16.8173	-39.0984
 135	1	1	-0.445809	-27.2152	-14.9934	-37.518
 136	1	2	0.001585	-24.4107	-16.5034	-38.9185
 137	1	3	0.031166	-24.0046	-15.8542	-40.2683
 138	1	2	-0.048351	-25.5764	-17.4586	-41.2915
 139	1	1	-0.041771	-25.3453	-17.2506	-42.776
 140	1	2	-0.107179	-24.0303	-17.1572	-41.1146
 141	1	3	-0.106774	-25.2966	-15.1126	-40.7126
 142	1	3	-0.025838	-26.277	-16.3055	-40.5283
 143	1	1	-0.051955	-23.9887	-16.9981	-42.6265
 144	1	1	-0.09124	-23.6535	-17.5454	-44.8847
 145	1	1	-0.099966	-25.0144	-17.7842	-45.0369
 146	1	1	-0.017311	-25.9147	-17.769	-43.9526
 147	1	1	-0.020587	-23.0504	-17.2524	-43.6471
 148	1	2	-0.042503	-24.8157	-18.6677	-46.2573
 149	1	2	0.004295	-23.2692	-18.4073	-46.0738
 150	1	3	0.00226	-22.8687	-17.7007	-47.3903
 151	1	3	-0.145049	-24.1307	-16.8702	-47.7156
 152	1	3	0.011953	-22.9172	-18.7021	-48.5845
 153	1	3	0.014921	-24.4739	-18.9516	-48.7734
 154	1	3	0.025749	-25.1058	-18.0673	-47.6562
 155	1	3	0.154129	-21.5487	-17.4094	-43.4288
 156	1	3	-0.203386	-20.9623	-16.3312	-42.4914
 157	1	3	-0.113237	-21.2025	-18.8261	-42.929
 158	1	3	0.129534	-27.2898	-18.4292	-43.9547
 159	1	3	-0.091829	-27.183	-19.946	-43.6967
 160	1	3	-0.19809	-28.0914	-18.139	-45.2427
 161	1	4	0.228684	-23.3233	-14.0508	-37.2803
 162	1	5	0.042843	-26.2828	-17.8458	-38.9017
 163	1	4	0.232532	-28.247	-15.0722	-37.8444
 164	1	5	0.035382	-23.7683	-17.3347	-38.6058
 165	1	5	0.041247	-23.075	-15.2723	-40.2752
 166	1	5	0.06146	-25.9467	-18.4552	-41.0232
 167	1	5	0.068364	-23.3901	-17.9533	-40.7175
 168	1	5	0.055799	-25.2468	-14.7562	-41.7495
 169	1	5	0.04347	-25.5388	-14.2586	-40.0686
 170	1	5	0.076294	-27.3323	-16.1227	-40.7656
 171	1	5	0.058767	-25.1892	-19.6884	-46.1487
 172	1	5	0.056756	-22.6213	-19.254	-45.8319
 173	1	5	0.029415	-21.9414	-17.1168	-47.3368
 174	1	5	0.049793	-24.0896	-16.4021	-48.7093
 175	1	5	0.063468	-24.3485	-16.0902	-46.9742
 176	1	5	-0.012542	-22.439	-18.3451	-49.5062
 177	1	5	-0.012458	-24.8118	-18.7211	-49.7924
 178	1	5	0.013933	-26.1545	-17.8046	-47.8412
 179	1	5	0.014892	-21.0555	-17.2811	-44.4013
 180	1	5	0.04353	-21.3061	-16.4696	-41.4601
 181	1	5	0.048722	-21.2578	-15.3278	-42.823
 182	1	5	0.053734	-19.8663	-16.3783	-42.4883
 183	1	5	0.029251	-21.5813	-19.5824	-43.6271
 184	1	5	0.025572	-21.6467	-19.0189	-41.9452
 185	1	5	0.023611	-20.1162	-18.9558	-42.8454
 186	1	5	0.021405	-27.8654	-18.0008	-43.1237
 187	1	5	0.009991	-26.6629	-20.4558	-44.516
 188	1	5	0.026343	-28.1801	-20.3924	-43.5959
 189	1	5	0.026093	-26.6287	-20.1403	-42.7704
 190	1	5	0.043016	-27.6474	-18.6404	-46.1101
 191	1	5	0.050907	-28.1212	-17.061	-45.4453
 192	1	5	0.051325	-29.1245	-18.4941	-45.1426
 193	1	1	-0.439951	-29.4238	-3.22869	-40.3408
 194	1	1	0.043044	-28.4015	-3.7733	-41.1429
 195	1	1	0.126458	-27.6251	-1.89636	-39.3284
 196	1	1	0.016683	-27.0519	-3.475	-40.9654
 197	1	1	0.121946	-28.9622	-2.19783	-39.5026
 198	1	2	0.005505	-26.5847	-4.80384	-41.5387
 199	1	1	-0.445809	-26.5831	-2.5946	-39.9683
 200	1	2	0.001585	-28.1204	-5.14208	-41.7335
 201	1	3	0.031166	-28.3579	-6.35945	-40.8018
 202	1	2	-0.048351	-26.103	-7.08621	-41.5023
 203	1	1	-0.041771	-25.9804	-8.47131	-40.8914
 204	1	2	-0.107179	-27.6491	-7.42253	-41.6803
 205	1	3	-0.106774	-27.3446	-6.13595	-39.6442
 206	1	3	-0.025838	-26.0939	-5.87627	-40.5295
 207	1	1	-0.051955	-27.3264	-8.76511	-41.0407
 208	1	1	-0.09124	-27.047	-10.6617	-39.7179
 209	1	1	-0.099966	-25.7046	-10.3632	-39.5594
 210	1	1	-0.017311	-25.1053	-9.18066	-40.0441
 211	1	1	-0.020587	-27.9747	-9.82147	-40.3636
 212	1	2	-0.042503	-25.4915	-11.4365	-38.5005
 213	1	2	0.004295	-27.0315	-11.7733	-38.6844
 214	1	3	0.00226	-27.6253	-11.4901	-37.2809
 215	1	3	-0.145049	-26.7613	-10.3052	-36.7897
 216	1	3	0.011953	-27.1658	-12.567	-36.2553
 217	1	3	0.014921	-25.6223	-12.2461	-36.0731
 218	1	3	0.025749	-25.4081	-11.0203	-37.0099
 219	1	3	0.154129	-29.4826	-10.0526	-40.2919
 220	1	3	-0.203386	-30.1378	-9.27366	-39.1288
 221	1	3	-0.113237	-30.1967	-9.75451	-41.6287
 222	1	3	0.129534	-23.7014	-8.68509	-39.7063
 223	1	3	-0.091829	-22.6605	-9.82637	-39.6762
 224	1	3	-0.19809	-23.6709	-7.87266	-38.392
 225	1	4	0.228684	-30.4189	-3.65543	-40.2672
 226	1	5	0.042843	-25.9743	-4.72481	-42.4458
 227	1	4	0.232532	-25.5518	-2.56472	-39.6315
 228	1	5	0.035382	-28.4739	-5.28154	-42.7618
 229	1	5	0.041247	-29.4001	-6.54763	-40.5265
 230	1	5	0.06146	-25.5176	-6.93508	-42.4171
 231	1	5	0.068364	-28.0282	-7.48409	-42.7073
 232	1	5	0.055799	-27.2374	-7.01282	-38.9926
 233	1	5	0.04347	-27.6003	-5.27758	-39.0191
 234	1	5	0.076294	-25.1525	-5.65707	-40.0132
 235	1	5	0.058767	-24.7777	-12.2183	-38.7772
 236	1	5	0.056756	-27.2814	-12.7638	-39.0762
 237	1	5	0.029415	-28.7063	-11.3124	-37.2621
 238	1	5	0.049793	-26.9435	-10.0512	-35.7358
 239	1	5	0.063468	-26.8796	-9.3936	-37.3901
 240	1	5	-0.012542	-27.7086	-12.5601	-35.3009
 241	1	5	-0.012458	-25.3549	-12.0765	-35.0218
 242	1	5	0.013933	-24.5266	-10.4313	-36.7393
 243	1	5	0.014892	-29.6395	-11.1195	-40.0855
 244	1	5	0.04353	-30.1235	-8.19553	-39.3068
 245	1	5	0.048722	-29.6126	-9.45691	-38.1856
 246	1	5	0.053734	-31.1833	-9.5792	-38.9994
 247	1	5	0.029251	-31.2493	-10.0603	-41.5802
 248	1	5	0.025572	-29.7226	-10.3043	-42.4515
 249	1	5	0.023611	-30.1684	-8.685	-41.8681
 250	1	5	0.021405	-23.3937	-8.00186	-40.5088
 251	1	5	0.009991	-22.8399	-10.5104	-38.838
 252	1	5	0.026343	-21.6467	-9.4212	-39.5682
 253	1	5	0.026093	-22.6954	-10.4065	-40.607
 254	1	5	0.043016	-23.8543	-8.50976	-37.5229
 255	1	5	0.050907	-24.4364	-7.08956	-38.393
 256	1	5	0.051325	-22.6938	-7.39259	-38.2566
 257	1	1	-0.439951	-28.3257	-3.0607	-27.9591
 258	1	1	0.043044	-28.665	-4.30392	-28.5338
 259	1	1	0.126458	-30.7427	-2.78998	-27.6168
 260	1	1	0.016683	-29.9839	-4.70611	-28.7404
 261	1	1	0.121946	-29.4368	-2.38276	-27.4205
 262	1	2	0.005505	-29.6346	-5.56837	-29.9414
 263	1	1	-0.445809	-31.0956	-3.9161	-28.3836
 264	1	2	0.001585	-28.1337	-5.12245	-29.7013
 265	1	3	0.031166	-27.7625	-4.34357	-30.9905
 266	1	2	-0.048351	-29.1644	-5.99016	-32.189
 267	1	1	-0.041771	-28.9316	-5.62037	-33.6444
 268	1	2	-0.107179	-27.6515	-5.56089	-31.948
 269	1	3	-0.106774	-29.1101	-3.6963	-31.414
 270	1	3	-0.025838	-29.9787	-4.98337	-31.3377
 271	1	1	-0.051955	-27.6094	-5.25786	-33.4374
 272	1	1	-0.09124	-27.5682	-4.21415	-35.5219
 273	1	1	-0.099966	-28.8983	-4.54711	-35.7139
 274	1	1	-0.017311	-29.6986	-5.1885	-34.7455
 275	1	1	-0.020587	-26.8689	-4.44332	-34.3179
 276	1	2	-0.042503	-29.0269	-3.72945	-36.99
 277	1	2	0.004295	-27.4956	-3.36047	-36.7785
 278	1	3	0.00226	-27.5228	-1.81776	-36.6529
 279	1	3	-0.145049	-28.8606	-1.57193	-35.9187
 280	1	3	0.011953	-27.8592	-1.15413	-38.0213
 281	1	3	0.014921	-29.3914	-1.50956	-38.2182
 282	1	3	0.025749	-29.7219	-2.34339	-36.9441
 283	1	3	0.154129	-25.4896	-3.89052	-33.9654
 284	1	3	-0.203386	-24.4936	-3.99873	-35.1415
 285	1	3	-0.113237	-25.5538	-2.44428	-33.4256
 286	1	3	0.129534	-31.2083	-5.40023	-34.8314
 287	1	3	-0.091829	-31.6526	-5.89947	-36.2243
 288	1	3	-0.19809	-32.0044	-4.14445	-34.4109
 289	1	4	0.228684	-27.346	-2.60505	-28.0608
 290	1	5	0.042843	-29.8614	-6.63491	-29.828
 291	1	4	0.232532	-32.0911	-4.06921	-28.7881
 292	1	5	0.035382	-27.419	-5.90765	-29.4288
 293	1	5	0.041247	-26.8914	-3.68331	-30.9178
 294	1	5	0.06146	-29.4187	-7.04236	-32.0138
 295	1	5	0.068364	-26.9586	-6.34135	-31.612
 296	1	5	0.055799	-29.0797	-3.25052	-32.4166
 297	1	5	0.04347	-29.4407	-2.92926	-30.715
 298	1	5	0.076294	-31.0449	-4.882	-31.5696
 299	1	5	0.058767	-29.2895	-4.31292	-37.8757
 300	1	5	0.056756	-26.784	-3.71973	-37.5266
 301	1	5	0.029415	-26.6452	-1.373	-36.175
 302	1	5	0.049793	-29.1239	-0.506549	-35.8548
 303	1	5	0.063468	-28.8941	-1.9991	-34.9078
 304	1	5	-0.012542	-27.6762	-0.0723558	-38.0652
 305	1	5	-0.012458	-30.0112	-0.613924	-38.3573
 306	1	5	0.013933	-30.7924	-2.36374	-36.7204
 307	1	5	0.014892	-25.0861	-4.51174	-33.1551
 308	1	5	0.04353	-24.777	-3.33507	-35.967
 309	1	5	0.048722	-24.4582	-5.02674	-35.5239
 310	1	5	0.053734	-23.4825	-3.72233	-34.818
 311	1	5	0.029251	-26.302	-2.3495	-32.6319
 312	1	5	0.025572	-25.8166	-1.73205	-34.2112
 313	1	5	0.023611	-24.5825	-2.14362	-33.0133
 314	1	5	0.021405	-31.4683	-6.19269	-34.1174
 315	1	5	0.009991	-31.0827	-6.79057	-36.517
 316	1	5	0.026343	-31.5032	-5.12959	-36.9907
 317	1	5	0.026093	-32.7168	-6.16611	-36.2177
 318	1	5	0.043016	-33.0685	-4.38366	-34.2927
 319	1	5	0.050907	-31.9227	-3.35054	-35.1573
 320	1	5	0.051325	-31.6386	-3.74316	-33.4597
 321	1	1	-0.439951	-34.1286	7.16783	-32.7413
 322	1	1	0.043044	-32.9872	6.61495	-33.3562
 323	1	1	0.126458	-32.5566	8.8003	-31.7916
 324	1	1	0.016683	-31.6939	7.07098	-33.1137
 325	1	1	0.121946	-33.841	8.35221	-32.0365
 326	1	2	0.005505	-31.0547	5.73829	-33.4603
 327	1	1	-0.445809	-31.4007	8.12455	-32.225
 328	1	2	0.001585	-32.5274	5.2175	-33.7348
 329	1	3	0.031166	-32.7272	4.09742	-32.679
 330	1	2	-0.048351	-30.3408	3.55483	-33.0759
 331	1	1	-0.041771	-30.1479	2.27431	-32.2786
 332	1	2	-0.107179	-31.8205	3.03288	-33.3524
 333	1	3	-0.106774	-31.8665	4.5756	-31.476
 334	1	3	-0.025838	-30.5634	4.86619	-32.2744
 335	1	1	-0.051955	-31.4374	1.82558	-32.517
 336	1	1	-0.09124	-31.1606	0.163918	-30.9169
 337	1	1	-0.099966	-29.8635	0.591192	-30.7017
 338	1	1	-0.017311	-29.2897	1.72747	-31.3001
 339	1	1	-0.020587	-32.0657	0.79235	-31.7951
 340	1	2	-0.042503	-29.6303	-0.352304	-29.5369
 341	1	2	0.004295	-31.1267	-0.837973	-29.7752
 342	1	3	0.00226	-31.8175	-0.482519	-28.4335
 343	1	3	-0.145049	-31.0866	0.81298	-28.012
 344	1	3	0.011953	-31.3255	-1.42375	-27.2928
 345	1	3	0.014921	-29.828	-0.954501	-27.0627
 346	1	3	0.025749	-29.6674	0.204963	-28.0941
 347	1	3	0.154129	-33.5383	0.431707	-31.9673
 348	1	3	-0.203386	-33.7732	-1.09502	-31.9979
 349	1	3	-0.113237	-34.4219	1.10661	-30.8994
 350	1	3	0.129534	-27.9143	2.26055	-30.9085
 351	1	3	-0.091829	-28.0055	3.32451	-29.7959
 352	1	3	-0.19809	-27.1142	2.79078	-32.119
 353	1	4	0.228684	-35.09	6.6663	-32.6989
 354	1	5	0.042843	-30.3696	5.76687	-34.3158
 355	1	4	0.232532	-30.4129	8.30715	-31.8139
 356	1	5	0.035382	-32.7657	4.91797	-34.762
 357	1	5	0.041247	-33.7632	3.80861	-32.4675
 358	1	5	0.06146	-29.6803	3.66014	-33.9449
 359	1	5	0.068364	-32.0839	2.80593	-34.3924
 360	1	5	0.055799	-31.7358	3.80255	-30.7075
 361	1	5	0.04347	-32.2771	5.46761	-30.9937
 362	1	5	0.076294	-29.7116	5.2606	-31.7107
 363	1	5	0.058767	-28.8224	-1.07006	-29.6963
 364	1	5	0.056756	-31.2879	-1.87382	-30.0815
 365	1	5	0.029415	-32.9082	-0.398264	-28.4789
 366	1	5	0.049793	-31.3517	1.14251	-26.9973
 367	1	5	0.063468	-31.2466	1.65204	-28.7021
 368	1	5	-0.012542	-31.9206	-1.38083	-26.3711
 369	1	5	-0.012458	-29.6392	-0.671018	-26.0189
 370	1	5	0.013933	-28.857	0.900021	-27.8455
 371	1	5	0.014892	-33.8624	0.819843	-32.9418
 372	1	5	0.04353	-34.8145	-1.32049	-32.2596
 373	1	5	0.048722	-33.5649	-1.55064	-31.0228
 374	1	5	0.053734	-33.1256	-1.56969	-32.7458
 375	1	5	0.029251	-34.2022	0.724712	-29.8979
 376	1	5	0.025572	-35.485	0.93062	-31.1053
 377	1	5	0.023611	-34.253	2.18786	-30.8907
 378	1	5	0.021405	-27.3409	1.41914	-30.4978
 379	1	5	0.009991	-27.0048	3.6107	-29.4487
 380	1	5	0.026343	-28.565	2.94167	-28.9352
 381	1	5	0.026093	-28.5108	4.2271	-30.1511
 382	1	5	0.043016	-26.0861	3.03617	-31.8248
 383	1	5	0.050907	-27.5708	3.6972	-32.5336
 384	1	5	0.051325	-27.0675	2.03411	-32.9125
 385	1	1	-0.439951	-31.9777	3.2208	-20.4639
 386	1	1	0.043044	-32.4369	2.72162	-21.6992
 387	1	1	0.126458	-34.2334	2.66972	-19.6591
 388	1	1	0.016683	-33.7522	2.32036	-21.9203
 389	1	1	0.121946	-32.9283	3.06352	-19.4385
 390	1	2	0.005505	-33.6819	2.57598	-23.4148
 391	1	1	-0.445809	-34.7558	2.37823	-20.9324
 392	1	2	0.001585	-32.1833	3.03634	-23.1626
 393	1	3	0.031166	-32.1814	4.53426	-23.5708
 394	1	2	-0.048351	-33.7483	3.848	-25.3603
 395	1	1	-0.041771	-33.9001	5.1216	-26.1744
 396	1	2	-0.107179	-32.2515	4.3127	-25.1048
 397	1	3	-0.106774	-33.6208	5.00434	-23.2183
 398	1	3	-0.025838	-34.3817	3.85696	-23.9423
 399	1	1	-0.051955	-32.5956	5.52912	-25.9436
 400	1	1	-0.09124	-32.7525	7.06948	-27.6965
 401	1	1	-0.099966	-34.0539	6.64979	-27.9366
 402	1	1	-0.017311	-34.6652	5.57324	-27.2678
 403	1	1	-0.020587	-31.904	6.43808	-26.764
 404	1	2	-0.042503	-34.0856	7.21849	-29.3425
 405	1	2	0.004295	-32.6085	7.71273	-29.066
 406	1	3	0.00226	-32.737	9.25502	-29.1641
 407	1	3	-0.145049	-34.1554	9.51054	-28.6052
 408	1	3	0.011953	-32.9781	9.6968	-30.6394
 409	1	3	0.014921	-34.4552	9.18867	-30.9248
 410	1	3	0.025749	-34.8655	8.53495	-29.571
 411	1	3	0.154129	-30.3839	6.55116	-26.7481
 412	1	3	-0.203386	-29.7505	5.63678	-27.8173
 413	1	3	-0.113237	-29.8926	8.00709	-26.8995
 414	1	3	0.129534	-35.9108	4.88155	-27.8107
 415	1	3	-0.091829	-36.8777	4.42116	-26.6977
 416	1	3	-0.19809	-35.5278	3.70734	-28.7346
 417	1	4	0.228684	-31.0521	3.77442	-20.3436
 418	1	5	0.042843	-33.8308	1.68773	-24.04
 419	1	4	0.232532	-35.8183	2.3265	-21.1474
 420	1	5	0.035382	-31.3937	2.43802	-23.6322
 421	1	5	0.041247	-31.3536	5.14927	-23.1962
 422	1	5	0.06146	-33.9181	2.91978	-25.9188
 423	1	5	0.068364	-31.4373	3.69519	-25.5027
 424	1	5	0.055799	-33.8578	5.997	-23.6222
 425	1	5	0.04347	-33.8076	5.02398	-22.1391
 426	1	5	0.076294	-35.4768	3.87957	-23.885
 427	1	5	0.058767	-34.2535	6.47912	-30.1305
 428	1	5	0.056756	-31.7971	7.31335	-29.6792
 429	1	5	0.029415	-31.9446	9.81988	-28.6582
 430	1	5	0.049793	-34.4838	10.5518	-28.7331
 431	1	5	0.063468	-34.2663	9.2418	-27.5465
 432	1	5	-0.012542	-32.8653	10.7733	-30.8239
 433	1	5	-0.012458	-35.1143	9.99835	-31.2647
 434	1	5	0.013933	-35.9502	8.45994	-29.4244
 435	1	5	0.014892	-30.0309	6.19894	-25.7699
 436	1	5	0.04353	-28.6558	5.65919	-27.7495
 437	1	5	0.048722	-30.038	5.95021	-28.828
 438	1	5	0.053734	-30.079	4.59913	-27.6783
 439	1	5	0.029251	-30.3808	8.65886	-26.164
 440	1	5	0.025572	-30.1041	8.39771	-27.9014
 441	1	5	0.023611	-28.809	8.06668	-26.7383
 442	1	5	0.021405	-36.4584	5.61089	-28.422
 443	1	5	0.009991	-36.4556	3.59172	-26.1187
 444	1	5	0.026343	-37.8256	4.07742	-27.1301
 445	1	5	0.026093	-37.0993	5.24698	-26.0099
 446	1	5	0.043016	-34.985	2.93053	-28.182
 447	1	5	0.050907	-34.8822	4.05927	-29.5486
 448	1	5	0.051325	-36.4207	3.2523	-29.1807
 449	1	1	-0.439951	-38.7448	11.5604	-13.7832
 450	1	1	0.043044	-37.8799	12.0052	-14.8035
 451	1	1	0.126458	-36.9064	12.1605	-12.2648
 452	1	1	0.016683	-36.5658	12.3997	-14.5711
 453	1	1	0.121946	-38.2111	11.7663	-12.4958
 454	1	2	0.005505	-36.1171	12.0836	-15.9888
 455	1	1	-0.445809	-35.9718	12.3958	-13.2925
 456	1	2	0.001585	-37.6151	11.6344	-16.2534
 457	1	3	0.031166	-37.4969	10.1236	-16.5883
 458	1	2	-0.048351	-35.3953	10.7323	-17.7507
 459	1	1	-0.041771	-34.9995	9.43477	-18.4397
 460	1	2	-0.107179	-36.9015	10.2833	-18.015
 461	1	3	-0.106774	-36.2736	9.66163	-15.7468
 462	1	3	-0.025838	-35.2956	10.783	-16.2
 463	1	1	-0.051955	-36.3074	9.04544	-18.6678
 464	1	1	-0.09124	-35.5721	6.91879	-19.2745
 465	1	1	-0.099966	-34.261	7.31011	-19.0498
 466	1	1	-0.017311	-33.8882	8.57381	-18.541
 467	1	1	-0.020587	-36.6945	7.73841	-19.0243
 468	1	2	-0.042503	-33.7163	5.89247	-19.1443
 469	1	2	0.004295	-35.2169	5.44399	-19.4013
 470	1	3	0.00226	-35.5102	4.50956	-18.1992
 471	1	3	-0.145049	-34.6968	5.1742	-17.0662
 472	1	3	0.011953	-34.7215	3.17125	-18.3117
 473	1	3	0.014921	-33.2219	3.6212	-18.0568
 474	1	3	0.025749	-33.3532	5.15587	-17.8296
 475	1	3	0.154129	-38.1564	7.30946	-19.1327
 476	1	3	-0.203386	-38.4116	6.3652	-20.3286
 477	1	3	-0.113237	-38.6882	6.69312	-17.8242
 478	1	3	0.129534	-32.4697	8.99935	-18.1652
 479	1	3	-0.091829	-31.4033	8.42568	-19.1251
 480	1	3	-0.19809	-32.1218	8.66775	-16.7007
 481	1	4	0.228684	-39.6567	11.0023	-13.9697
 482	1	5	0.042843	-35.7501	12.9464	-16.5568
 483	1	4	0.232532	-34.8999	12.4368	-13.1271
 484	1	5	0.035382	-38.1859	12.2158	-16.9868
 485	1	5	0.041247	-38.4183	9.53898	-16.4929
 486	1	5	0.06146	-35.0507	11.6429	-18.2552
 487	1	5	0.068364	-37.4989	10.9124	-18.6855
 488	1	5	0.055799	-35.9257	8.65536	-16.0141
 489	1	5	0.04347	-36.4695	9.6791	-14.6696
 490	1	5	0.076294	-34.2921	10.777	-15.7615
 491	1	5	0.058767	-33.0013	5.72308	-19.9549
 492	1	5	0.056756	-35.442	4.99355	-20.3726
 493	1	5	0.029415	-36.5697	4.35754	-17.9739
 494	1	5	0.049793	-34.6735	4.56978	-16.1545
 495	1	5	0.063468	-35.0435	6.18143	-16.8007
 496	1	5	-0.012542	-35.043	2.38538	-17.6156
 497	1	5	-0.012458	-32.7582	3.06937	-17.2287
 498	1	5	0.013933	-32.5071	5.576	-17.2777
 499	1	5	0.014892	-38.7483	8.21544	-19.318
 500	1	5	0.04353	-37.9322	5.39083	-20.1774
 501	1	5	0.048722	-38.0197	6.80194	-21.2559
 502	1	5	0.053734	-39.4869	6.19435	-20.4629
 503	1	5	0.029251	-39.7725	6.5366	-17.8814
 504	1	5	0.025572	-38.4866	7.35631	-16.9791
 505	1	5	0.023611	-38.2196	5.72866	-17.6121
 506	1	5	0.021405	-32.4208	10.0919	-18.2626
 507	1	5	0.009991	-31.3067	7.3391	-19.0135
 508	1	5	0.026343	-30.4218	8.87178	-18.9219
 509	1	5	0.026093	-31.6637	8.64348	-20.1686
 510	1	5	0.043016	-31.1405	9.07745	-16.431
 511	1	5	0.050907	-32.0975	7.58855	-16.5271
 512	1	5	0.051325	-32.8641	9.09868	-16.0248
 513	1	1	-0.439951	-32.2591	0.653191	-14.5279
 514	1	1	0.043044	-33.3571	1.35649	-13.9967
 515	1	1	0.126458	-33.9068	-0.996439	-15.2833
 516	1	1	0.016683	-34.6765	0.956438	-14.2131
 517	1	1	0.121946	-32.595	-0.598938	-15.073
 518	1	2	0.005505	-35.2019	2.37778	-14.2459
 519	1	1	-0.445809	-35.0088	-0.181386	-14.9717
 520	1	2	0.001585	-33.7061	2.83238	-13.9969
 521	1	3	0.031166	-33.765	3.56525	-12.6293
 522	1	2	-0.048351	-35.9611	4.39326	-13.4061
 523	1	1	-0.041771	-36.351	5.42289	-12.3571
 524	1	2	-0.107179	-34.4667	4.8455	-13.1551
 525	1	3	-0.106774	-34.8979	2.82588	-11.8678
 526	1	3	-0.025838	-35.9633	2.89527	-12.9959
 527	1	1	-0.051955	-35.0341	5.8145	-12.1343
 528	1	1	-0.09124	-35.7711	7.94569	-11.4417
 529	1	1	-0.099966	-37.0876	7.55334	-11.6623
 530	1	1	-0.017311	-37.4357	6.31653	-12.2355
 531	1	1	-0.020587	-34.6731	7.12694	-11.776
 532	1	2	-0.042503	-37.57	8.97031	-11.9165
 533	1	2	0.004295	-36.0819	9.41886	-11.6586
 534	1	3	0.00226	-36.2082	10.3465	-10.4249
 535	1	3	-0.145049	-37.3587	9.68998	-9.62983
 536	1	3	0.011953	-36.9091	11.6824	-10.8201
 537	1	3	0.014921	-38.4081	11.2301	-11.0851
 538	1	3	0.025749	-38.3617	9.6967	-10.8043
 539	1	3	0.154129	-33.2449	7.63394	-11.9629
 540	1	3	-0.203386	-33.0429	8.29391	-13.3425
 541	1	3	-0.113237	-32.7946	8.57797	-10.827
 542	1	3	0.129534	-38.8177	6.09041	-12.845
 543	1	3	-0.091829	-39.3459	4.65846	-12.609
 544	1	3	-0.19809	-38.8563	6.45375	-14.3438
 545	1	4	0.228684	-31.296	1.12159	-14.7035
 546	1	5	0.042843	-35.6829	2.64634	-15.1932
 547	1	4	0.232532	-35.9718	-0.298366	-15.4583
 548	1	5	0.035382	-33.1918	3.40521	-14.7763
 549	1	5	0.041247	-32.8146	3.70255	-12.0985
 550	1	5	0.06146	-36.3924	4.57388	-14.3961
 551	1	5	0.068364	-33.9268	5.32963	-13.9765
 552	1	5	0.055799	-35.2099	3.35248	-10.9566
 553	1	5	0.04347	-34.6278	1.79603	-11.6006
 554	1	5	0.076294	-36.9365	2.43492	-12.7863
 555	1	5	0.058767	-37.996	9.13283	-12.9095
 556	1	5	0.056756	-35.5363	9.88538	-12.4807
 557	1	5	0.029415	-35.2845	10.4858	-9.85037
 558	1	5	0.049793	-37.6934	10.3008	-8.7794
 559	1	5	0.063468	-37.1196	8.68337	-9.26256
 560	1	5	-0.012542	-36.8423	12.4793	-10.0678
 561	1	5	-0.012458	-39.1259	11.7906	-10.4719
 562	1	5	0.013933	-39.3394	9.25716	-10.5708
 563	1	5	0.014892	-32.5781	6.76237	-11.9256
 564	1	5	0.04353	-31.9829	8.52145	-13.5101
 565	1	5	0.048722	-33.6067	9.22898	-13.4284
 566	1	5	0.053734	-33.3766	7.62305	-14.1428
 567	1	5	0.029251	-33.3332	9.53144	-10.8637
 568	1	5	0.025572	-31.7224	8.79547	-10.9089
 569	1	5	0.023611	-32.9728	8.1179	-9.84686
 570	1	5	0.021405	-39.5166	6.76664	-12.3351
 571	1	5	0.009991	-38.7771	3.92219	-13.188
 572	1	5	0.026343	-40.3977	4.58137	-12.9116
 573	1	5	0.026093	-39.2791	4.3904	-11.5471
 574	1	5	0.043016	-38.4941	7.47565	-14.5066
 575	1	5	0.050907	-39.881	6.3927	-14.7309
 576	1	5	0.051325	-38.2312	5.77488	-14.9337
 577	1	1	-0.439951	-31.6191	-12.2122	-13.7223
 578	1	1	0.043044	-30.8462	-11.5542	-14.6796
 579	1	1	0.126458	-29.5832	-12.1881	-12.319
 580	1	1	0.016683	-29.5512	-11.181	-14.469
 581	1	1	0.121946	-30.9537	-12.5605	-12.5167
 582	1	2	0.005505	-29.4698	-10.3327	-15.73
 583	1	1	-0.445809	-28.8621	-11.4448	-13.2853
 584	1	2	0.001585	-30.9784	-10.7754	-15.9802
 585	1	3	0.031166	-31.7488	-9.42697	-16.108
 586	1	2	-0.048351	-30.2594	-8.46076	-14.391
 587	1	1	-0.041771	-30.8089	-7.05609	-14.2156
 588	1	2	-0.107179	-31.7654	-8.89954	-14.6474
 589	1	3	-0.106774	-30.6606	-8.54625	-16.7847
 590	1	3	-0.025838	-29.5395	-8.77465	-15.731
 591	1	1	-0.051955	-32.1214	-7.4357	-14.435
 592	1	1	-0.09124	-32.7509	-5.19555	-14.4878
 593	1	1	-0.099966	-31.4339	-4.81363	-14.2904
 594	1	1	-0.017311	-30.3545	-5.7227	-14.2407
 595	1	1	-0.020587	-33.1711	-6.52572	-14.6843
 596	1	2	-0.042503	-31.7155	-3.34488	-14.5801
 597	1	2	0.004295	-33.2231	-3.78885	-14.8064
 598	1	3	0.00226	-33.4806	-3.4216	-16.2895
 599	1	3	-0.145049	-32.1009	-3.67392	-16.9405
 600	1	3	0.011953	-33.5527	-1.87899	-16.4659
 601	1	3	0.014921	-32.0586	-1.42365	-16.2308
 602	1	3	0.025749	-31.3199	-2.76643	-15.9622
 603	1	3	0.154129	-34.591	-6.88688	-15.1157
 604	1	3	-0.203386	-34.7168	-7.04414	-16.6471
 605	1	3	-0.113237	-35.1343	-8.13526	-14.3861
 606	1	3	0.129534	-28.8722	-5.35714	-14.2258
 607	1	3	-0.091829	-28.572	-4.13325	-13.3324
 608	1	3	-0.19809	-28.3061	-5.15578	-15.649
 609	1	4	0.228684	-32.6703	-12.4272	-13.8878
 610	1	5	0.042843	-28.7648	-10.6928	-16.4873
 611	1	4	0.232532	-27.8488	-11.0966	-13.1121
 612	1	5	0.035382	-31.1216	-11.3906	-16.8753
 613	1	5	0.041247	-32.7147	-9.49115	-16.618
 614	1	5	0.06146	-29.7561	-8.84762	-13.499
 615	1	5	0.068364	-32.233	-9.57277	-13.9222
 616	1	5	0.055799	-30.9575	-7.49318	-16.8771
 617	1	5	0.04347	-30.3808	-8.92148	-17.7782
 618	1	5	0.076294	-28.5887	-8.25813	-15.9047
 619	1	5	0.058767	-31.5231	-2.65859	-13.7481
 620	1	5	0.056756	-33.9701	-3.38108	-14.1164
 621	1	5	0.029415	-34.3177	-3.9488	-16.7604
 622	1	5	0.049793	-32.0491	-3.3232	-17.9811
 623	1	5	0.063468	-31.785	-4.725	-16.9132
 624	1	5	-0.012542	-33.9449	-1.54046	-17.4343
 625	1	5	-0.012458	-31.6646	-0.839861	-17.0735
 626	1	5	0.013933	-30.2441	-2.70302	-16.1514