pySIMM System Object

1238 atoms
1417 bonds
2964 angles
5406 dihedrals
76 impropers

5 atom types
9 bond types
18 angle types
19 dihedral types
2 improper types

-146.028208 146.028208 xlo xhi
-146.028208 146.028208 ylo yhi
-146.028208 146.028208 zlo zhi

Masses

   1	12.01	# ca
   2	12.01	# cy
   3	12.01	# c3
   4	1.008	# ha
   5	1.008	# hc

Pair Coeffs

   1	0.086	3.3996695084235347	# ca
   2	0.086	3.3996695084235347	# cy
   3	0.1094	3.3996695084235347	# c3
   4	0.015	2.59964245953351	# ha
   5	0.0157	2.649532787749369	# hc

Bond Coeffs

   1	300.9	1.5375	# c3,c3
   2	305.9	1.5319	# c3,cy
   3	345.8	1.086	# ca,ha
   4	321.0	1.5156	# c3,ca
   5	285.0	1.5562	# cy,cy
   6	330.6	1.0969	# c3,hc
   7	333.3	1.0949	# cy,hc
   8	321.2	1.5154	# ca,cy
   9	461.1	1.3984	# ca,ca

Angle Coeffs

   1	66.62	120.02	# ca,ca,ca
   2	61.4	116.81	# ca,cy,cy
   3	44.83	114.79	# cy,cy,hc
   4	46.43	110.14	# c3,cy,hc
   5	63.15	112.07	# c3,c3,ca
   6	46.34	109.8	# c3,c3,hc
   7	39.4	107.58	# hc,c3,hc
   8	48.18	119.88	# ca,ca,ha
   9	63.53	120.77	# c3,ca,ca
  10	60.66	118.7	# c3,cy,cy
  11	63.51	120.86	# ca,ca,cy
  12	62.73	112.39	# c3,c3,cy
  13	46.29	110.75	# cy,c3,hc
  14	46.8	110.47	# ca,c3,hc
  15	62.8	113.57	# c3,cy,ca
  16	62.86	111.51	# c3,c3,c3
  17	67.9	96.03	# cy,c3,cy
  18	45.97	114.53	# ca,cy,hc

Dihedral Coeffs

   1	1	0.16	3	0.0	# hc,c3,cy,cy
   2	1	0.16	3	0.0	# cy,c3,cy,hc
   3	1	0.16	3	0.0	# c3,c3,cy,hc
   4	1	0.15	3	0.0	# hc,c3,cy,hc
   5	1	3.625	2	180	# X,ca,ca,X
   6	1	0.15555555555555556	3	0	# X,cy,cy,X
   7	3	0.18	3	0	0.25	2	180	0.2	1	180	# c3,c3,c3,c3
   8	1	0.16	3	0	# hc,c3,c3,c3
   9	1	0.0	2	0.0	# ca,ca,cy,cy
  10	1	0.0	2	0.0	# ca,ca,cy,c3
  11	1	0.15555555555555556	3	0	# X,c3,c3,X
  12	1	0.0	2	0	# X,c3,ca,X
  13	3	0.38	3	180.0	0.0	2	0.0	1.15	1	0.0	# ca,ca,cy,hc
  14	3	0.18	3	0.0	0.25	2	180.0	0.2	1	180.0	# cy,c3,cy,cy
  15	1	0.16	3	0.0	# cy,c3,cy,ca
  16	1	0.16	3	0.0	# c3,c3,cy,ca
  17	1	0.16	3	0.0	# hc,c3,cy,ca
  18	1	0.15	3	0	# hc,c3,c3,hc
  19	3	0.18	3	0.0	0.25	2	180.0	0.2	1	180.0	# c3,c3,cy,cy

Improper Coeffs

   1	1.1	-1	2	# ca,ca,ca,c3
   2	1.1	-1	2	# ca,X,X,ha

Atoms

   1	1	1	-0.439951	-12.1889	-30.8739	2.25965
   2	1	1	0.043044	-12.2423	-31.7656	3.34897
   3	1	1	0.126458	-13.8268	-29.5456	3.51414
   4	1	1	0.016683	-13.1481	-31.6156	4.39761
   5	1	1	0.121946	-12.9342	-29.6984	2.46481
   6	1	2	0.005505	-13.2357	-33.1078	4.66226
   7	1	1	-0.445809	-14.0743	-30.5565	4.45991
   8	1	2	0.001585	-12.2	-33.2786	3.47752
   9	1	3	0.031166	-12.9799	-34.0974	2.41509
  10	1	2	-0.048351	-13.9952	-35.2856	4.33626
  11	1	1	-0.041771	-14.7731	-36.4097	3.66658
  12	1	2	-0.107179	-12.9389	-35.4607	3.15725
  13	1	3	-0.106774	-14.4515	-33.6329	2.61057
  14	1	3	-0.025838	-14.5106	-33.8337	4.15199
  15	1	1	-0.051955	-13.8483	-36.5632	2.64719
  16	1	1	-0.09124	-15.2937	-38.0108	1.53793
  17	1	1	-0.099966	-16.215	-37.8663	2.56211
  18	1	1	-0.017311	-16.0692	-36.9685	3.63831
  19	1	1	-0.020587	-14.0864	-37.2843	1.4608
  20	1	2	-0.042503	-17.3126	-38.6094	1.82078
  21	1	2	0.004295	-16.2604	-38.7759	0.645443
  22	1	3	0.00226	-16.9464	-38.0368	-0.526889
  23	1	3	-0.145049	-17.6918	-36.8798	0.170048
  24	1	3	0.011953	-18.1488	-38.8965	-0.99305
  25	1	3	0.014921	-19.1776	-38.7291	0.159732
  26	1	3	0.025749	-18.4459	-37.7951	1.1566
  27	1	3	0.154129	-13.1379	-37.2456	0.264992
  28	1	3	-0.203386	-12.973	-38.6265	-0.407606
  29	1	3	-0.113237	-13.5534	-36.1752	-0.767609
  30	1	3	0.129534	-17.2037	-36.6494	4.60907
  31	1	3	-0.091829	-18.0108	-35.4113	4.16013
  32	1	3	-0.19809	-16.7169	-36.493	6.06711
  33	1	4	0.228684	-11.7648	-31.1408	1.29723
  34	1	5	0.042843	-12.9062	-33.4175	5.66098
  35	1	4	0.232532	-14.9825	-30.5982	5.05239
  36	1	5	0.035382	-11.2158	-33.6894	3.73129
  37	1	5	0.041247	-12.5794	-34.0724	1.3952
  38	1	5	0.06146	-13.6477	-35.514	5.35099
  39	1	5	0.068364	-11.9317	-35.7933	3.43546
  40	1	5	0.055799	-15.1717	-34.2611	2.07062
  41	1	5	0.04347	-14.6139	-32.5902	2.3093
  42	1	5	0.076294	-15.4455	-33.5662	4.65545
  43	1	5	0.058767	-17.6662	-39.5324	2.29354
  44	1	5	0.056756	-15.9692	-39.8023	0.395906
  45	1	5	0.029415	-16.2838	-37.7392	-1.34627
  46	1	5	0.049793	-18.3647	-36.3354	-0.507084
  47	1	5	0.063468	-17.0239	-36.1599	0.661383
  48	1	5	-0.012542	-17.8676	-39.9467	-1.14532
  49	1	5	-0.012458	-19.4434	-39.691	0.617282
  50	1	5	0.013933	-19.12	-37.2797	1.85043
  51	1	5	0.014892	-12.1468	-36.9586	0.639957
  52	1	5	0.04353	-12.6957	-39.3867	0.333519
  53	1	5	0.048722	-12.1845	-38.5932	-1.16966
  54	1	5	0.053734	-13.9007	-38.9454	-0.89705
  55	1	5	0.029251	-13.6774	-35.1964	-0.291468
  56	1	5	0.025572	-14.5007	-36.4313	-1.25076
  57	1	5	0.023611	-12.7908	-36.0764	-1.5502
  58	1	5	0.021405	-17.8958	-37.5017	4.59876
  59	1	5	0.009991	-18.8833	-35.2609	4.80829
  60	1	5	0.026343	-18.371	-35.5286	3.13232
  61	1	5	0.026093	-17.4033	-34.5024	4.19528
  62	1	5	0.043016	-16.0922	-35.6004	6.18744
  63	1	5	0.050907	-16.1307	-37.368	6.37469
  64	1	5	0.051325	-17.5702	-36.4003	6.75058
  65	1	1	-0.439951	-10.9138	-18.3055	5.08641
  66	1	1	0.043044	-11.2731	-18.9607	3.89521
  67	1	1	0.126458	-8.81765	-17.8382	3.86902
  68	1	1	0.016683	-10.4726	-19.0386	2.76706
  69	1	1	0.121946	-9.59761	-17.8139	5.0097
  70	1	2	0.005505	-11.5816	-19.5996	1.89569
  71	1	1	-0.445809	-9.21772	-18.4094	2.64449
  72	1	2	0.001585	-12.5077	-19.4804	3.1865
  73	1	3	0.031166	-12.9199	-20.9401	3.49544
  74	1	2	-0.048351	-12.9827	-21.2512	1.04553
  75	1	1	-0.041771	-13.5736	-22.6437	0.904573
  76	1	2	-0.107179	-13.9242	-21.1041	2.32165
  77	1	3	-0.106774	-11.6848	-21.7644	3.03321
  78	1	3	-0.025838	-11.5467	-21.1293	1.61927
  79	1	1	-0.051955	-14.4074	-22.509	2.00186
  80	1	1	-0.09124	-14.9697	-24.7608	1.84742
  81	1	1	-0.099966	-14.0981	-24.9086	0.780728
  82	1	1	-0.017311	-13.2673	-23.8762	0.294542
  83	1	1	-0.020587	-15.095	-23.582	2.60788
  84	1	2	-0.042503	-14.2133	-26.4266	0.76897
  85	1	2	0.004295	-15.2241	-26.2512	1.98485
  86	1	3	0.00226	-14.5354	-27.0302	3.12903
  87	1	3	-0.145049	-13.0366	-26.7662	2.84991
  88	1	3	0.011953	-14.6807	-28.5358	2.77008
  89	1	3	0.014921	-13.6671	-28.7132	1.57015
  90	1	3	0.025749	-13.0824	-27.2831	1.39241
  91	1	3	0.154129	-15.8733	-23.52	3.92035
  92	1	3	-0.203386	-14.9653	-23.7772	5.14286
  93	1	3	-0.113237	-16.6587	-22.1999	4.08638
  94	1	3	0.129534	-12.1552	-24.0337	-0.738668
  95	1	3	-0.091829	-12.5485	-24.978	-1.89622
  96	1	3	-0.19809	-10.8266	-24.4779	-0.0885596
  97	1	4	0.228684	-11.585	-18.1348	5.92197
  98	1	5	0.042843	-11.8298	-18.9913	1.01814
  99	1	4	0.232532	-8.66793	-18.3105	1.71389
 100	1	5	0.035382	-13.3476	-18.7764	3.15801
 101	1	5	0.041247	-13.2938	-21.125	4.50771
 102	1	5	0.06146	-13.1858	-20.585	0.198461
 103	1	5	0.068364	-14.7013	-20.3316	2.27832
 104	1	5	0.055799	-11.8849	-22.8433	2.99957
 105	1	5	0.04347	-10.8012	-21.5991	3.6631
 106	1	5	0.076294	-10.7266	-21.4911	0.987946
 107	1	5	0.058767	-14.6271	-26.8651	-0.14593
 108	1	5	0.056756	-16.2569	-26.5727	1.80934
 109	1	5	0.029415	-14.8742	-26.7812	4.14126
 110	1	5	0.049793	-12.3597	-27.3361	3.49951
 111	1	5	0.063468	-12.7568	-25.7074	2.92724
 112	1	5	-0.012542	-15.7004	-28.8766	2.54684
 113	1	5	-0.012458	-14.1147	-29.1592	0.672108
 114	1	5	0.013933	-12.1248	-27.2649	0.861768
 115	1	5	0.014892	-16.6176	-24.3268	3.90025
 116	1	5	0.04353	-14.4182	-24.7198	5.03473
 117	1	5	0.048722	-15.5608	-23.8351	6.06245
 118	1	5	0.053734	-14.2278	-22.9794	5.26745
 119	1	5	0.029251	-15.9833	-21.3467	4.21954
 120	1	5	0.025572	-17.3141	-22.2487	4.9649
 121	1	5	0.023611	-17.2863	-22.0089	3.20684
 122	1	5	0.021405	-11.9779	-23.0465	-1.1852
 123	1	5	0.009991	-12.6521	-26.0136	-1.55068
 124	1	5	0.026343	-11.7848	-24.9616	-2.68382
 125	1	5	0.026093	-13.5013	-24.6669	-2.34284
 126	1	5	0.043016	-10.8983	-25.4946	0.309152
 127	1	5	0.050907	-10.554	-23.8153	0.74034
 128	1	5	0.051325	-10.0106	-24.4579	-0.821586
 129	1	1	-0.439951	-0.173589	-15.7041	10.1814
 130	1	1	0.043044	-0.489493	-17.0419	10.508
 131	1	1	0.126458	-1.41378	-15.1216	12.2184
 132	1	1	0.016683	-1.31635	-17.3747	11.5814
 133	1	1	0.121946	-0.593966	-14.7805	11.1604
 134	1	2	0.005505	-1.83005	-18.6342	10.918
 135	1	1	-0.445809	-1.90845	-16.4188	12.4297
 136	1	2	0.001585	-0.879495	-18.2805	9.70318
 137	1	3	0.031166	-1.85361	-18.0767	8.50902
 138	1	2	-0.048351	-3.20857	-19.8653	9.51853
 139	1	1	-0.041771	-4.32793	-20.0674	8.51688
 140	1	2	-0.107179	-2.26514	-19.5627	8.27822
 141	1	3	-0.106774	-3.106	-17.4732	9.19015
 142	1	3	-0.025838	-3.25211	-18.5386	10.3119
 143	1	1	-0.051955	-3.50121	-19.8377	7.42134
 144	1	1	-0.09124	-5.39263	-19.5394	6.07503
 145	1	1	-0.099966	-6.20642	-19.6531	7.192
 146	1	1	-0.017311	-5.72728	-19.8627	8.50297
 147	1	1	-0.020587	-3.98737	-19.4857	6.1426
 148	1	2	-0.042503	-7.39472	-18.989	6.50846
 149	1	2	0.004295	-6.48013	-18.9129	5.21898
 150	1	3	0.00226	-6.40251	-17.3979	4.92289
 151	1	3	-0.145049	-6.39131	-16.784	6.3409
 152	1	3	0.011953	-7.78279	-16.8747	4.43085
 153	1	3	0.014921	-8.66187	-16.8878	5.75671
 154	1	3	0.025749	-7.68383	-17.4868	6.80959
 155	1	3	0.154129	-3.14142	-19.0844	4.93427
 156	1	3	-0.203386	-2.64611	-17.6225	4.97915
 157	1	3	-0.113237	-1.97079	-20.0624	4.69601
 158	1	3	0.129534	-6.58695	-19.7796	9.77693
 159	1	3	-0.091829	-6.13818	-20.8003	10.8529
 160	1	3	-0.19809	-8.09798	-20.0022	9.51961
 161	1	4	0.228684	0.21014	-15.4052	9.21226
 162	1	5	0.042843	-1.62309	-19.5626	11.4633
 163	1	4	0.232532	-2.76777	-16.6295	13.0581
 164	1	5	0.035382	-0.060531	-18.9783	9.49466
 165	1	5	0.041247	-1.44456	-17.5209	7.66252
 166	1	5	0.06146	-2.96608	-20.7498	10.12
 167	1	5	0.068364	-1.42086	-20.2437	8.12031
 168	1	5	0.055799	-3.97533	-17.4215	8.5271
 169	1	5	0.04347	-2.91285	-16.4723	9.56999
 170	1	5	0.076294	-4.07943	-18.402	11.0184
 171	1	5	0.058767	-8.29642	-19.607	6.43608
 172	1	5	0.056756	-6.79234	-19.5106	4.35535
 173	1	5	0.029415	-5.56466	-17.0923	4.28492
 174	1	5	0.049793	-6.47707	-15.6876	6.33553
 175	1	5	0.063468	-5.51014	-17.0563	6.93037
 176	1	5	-0.012542	-7.76196	-15.8848	3.95616
 177	1	5	-0.012458	-9.07135	-15.899	6.00272
 178	1	5	0.013933	-7.96377	-17.2616	7.84445
 179	1	5	0.014892	-3.79051	-19.1607	4.05201
 180	1	5	0.04353	-1.72037	-17.5328	5.55319
 181	1	5	0.048722	-3.39858	-16.9594	5.42243
 182	1	5	0.053734	-2.43163	-17.2636	3.96498
 183	1	5	0.029251	-2.33915	-21.0936	4.62489
 184	1	5	0.025572	-1.24102	-20.0157	5.5136
 185	1	5	0.023611	-1.4504	-19.8236	3.75999
 186	1	5	0.021405	-6.47158	-18.7753	10.2035
 187	1	5	0.009991	-6.1545	-21.8222	10.4528
 188	1	5	0.026343	-6.80325	-20.7674	11.725
 189	1	5	0.026093	-5.12858	-20.5924	11.2189
 190	1	5	0.043016	-8.27059	-20.9519	8.99732
 191	1	5	0.050907	-8.53046	-19.195	8.92299
 192	1	5	0.051325	-8.65615	-20.0283	10.4638
 193	1	1	-0.439951	-10.9492	-8.55324	8.43362
 194	1	1	0.043044	-10.2263	-9.30301	7.48756
 195	1	1	0.126458	-9.88828	-6.60404	7.37469
 196	1	1	0.016683	-9.32512	-8.74039	6.58833
 197	1	1	0.121946	-10.8074	-7.16645	8.24157
 198	1	2	0.005505	-8.55219	-10.0369	6.40965
 199	1	1	-0.445809	-9.01874	-7.36327	6.56672
 200	1	2	0.001585	-9.56075	-10.6664	7.4613
 201	1	3	0.031166	-8.65455	-11.0356	8.67172
 202	1	2	-0.048351	-7.01577	-11.6875	6.94917
 203	1	1	-0.041771	-5.90152	-12.3285	7.74252
 204	1	2	-0.107179	-7.99946	-12.299	8.04766
 205	1	3	-0.106774	-7.5146	-9.9799	8.61066
 206	1	3	-0.025838	-7.17212	-10.1503	7.10448
 207	1	1	-0.051955	-6.74079	-12.8526	8.70641
 208	1	1	-0.09124	-4.88234	-13.5892	9.88362
 209	1	1	-0.099966	-4.05181	-13.122	8.88492
 210	1	1	-0.017311	-4.49778	-12.3912	7.76513
 211	1	1	-0.020587	-6.288	-13.5104	9.87256
 212	1	2	-0.042503	-2.78681	-13.6093	9.57256
 213	1	2	0.004295	-3.74562	-14.0989	10.7468
 214	1	3	0.00226	-3.27808	-13.2337	11.9488
 215	1	3	-0.145049	-2.84699	-11.9144	11.2706
 216	1	3	0.011953	-1.8777	-13.6974	12.4586
 217	1	3	0.014921	-0.909121	-13.2919	11.2689
 218	1	3	0.025749	-1.87372	-12.5817	10.2685
 219	1	3	0.154129	-7.14838	-14.1804	10.937
 220	1	3	-0.203386	-8.41914	-13.3868	11.2969
 221	1	3	-0.113237	-7.50775	-15.6164	10.5
 222	1	3	0.129534	-3.6277	-11.7219	6.71162
 223	1	3	-0.091829	-2.49406	-12.6394	6.21094
 224	1	3	-0.19809	-3.08517	-10.3694	7.22061
 225	1	4	0.228684	-11.4357	-8.98934	9.3002
 226	1	5	0.042843	-8.57781	-10.4443	5.3921
 227	1	4	0.232532	-8.13441	-6.95167	6.09085
 228	1	5	0.035382	-10.2007	-11.4836	7.1085
 229	1	5	0.041247	-9.16061	-11.1551	9.63588
 230	1	5	0.06146	-7.11365	-12.054	5.92024
 231	1	5	0.068364	-8.71585	-13.0597	7.71568
 232	1	5	0.055799	-6.67254	-10.2206	9.27266
 233	1	5	0.04347	-7.85956	-8.97001	8.85295
 234	1	5	0.076294	-6.36471	-9.5242	6.70492
 235	1	5	0.058767	-2.23025	-14.3676	9.01506
 236	1	5	0.056756	-3.80497	-15.1608	10.9899
 237	1	5	0.029415	-4.02186	-13.1116	12.746
 238	1	5	0.049793	-2.35026	-11.2269	11.969
 239	1	5	0.063468	-3.67426	-11.3755	10.79
 240	1	5	-0.012542	-1.56577	-13.2618	13.4173
 241	1	5	-0.012458	-0.0692344	-12.677	11.6155
 242	1	5	0.013933	-1.36621	-11.8893	9.58733
 243	1	5	0.014892	-6.54997	-14.2576	11.8544
 244	1	5	0.04353	-8.16239	-12.3538	11.5539
 245	1	5	0.048722	-8.92412	-13.8369	12.1605
 246	1	5	0.053734	-9.12806	-13.3764	10.4609
 247	1	5	0.029251	-8.05008	-16.1446	11.2938
 248	1	5	0.025572	-6.60044	-16.189	10.2684
 249	1	5	0.023611	-8.13916	-15.6018	9.60289
 250	1	5	0.021405	-4.26188	-11.5046	5.84206
 251	1	5	0.009991	-1.74938	-12.8196	6.99484
 252	1	5	0.026343	-1.98755	-12.1803	5.35385
 253	1	5	0.026093	-2.89502	-13.6077	5.88558
 254	1	5	0.043016	-2.42133	-10.5098	8.0802
 255	1	5	0.050907	-3.90884	-9.71735	7.5368
 256	1	5	0.051325	-2.52517	-9.85083	6.4326
 257	1	1	-0.439951	-0.44997	-7.08905	16.2088
 258	1	1	0.043044	-1.80466	-7.24683	15.8719
 259	1	1	0.126458	-0.756078	-8.99694	17.6977
 260	1	1	0.016683	-2.61734	-8.22285	16.4469
 261	1	1	0.121946	0.0114266	-7.91855	17.25
 262	1	2	0.005505	-3.4667	-8.37824	15.2048
 263	1	1	-0.445809	-2.08075	-9.21812	17.2808
 264	1	2	0.001585	-2.4914	-7.34664	14.5153
 265	1	3	0.031166	-3.41583	-6.18842	14.0726
 266	1	2	-0.048351	-5.15621	-7.89369	13.7093
 267	1	1	-0.041771	-6.25261	-7.05492	13.0778
 268	1	2	-0.107179	-4.14214	-6.96239	12.9274
 269	1	3	-0.106774	-4.4634	-6.13699	15.2199
 270	1	3	-0.025838	-4.83962	-7.6449	15.1996
 271	1	1	-0.051955	-5.36628	-6.29792	12.3243
 272	1	1	-0.09124	-7.08358	-5.88464	10.7693
 273	1	1	-0.099966	-7.99194	-6.53688	11.5972
 274	1	1	-0.017311	-7.58794	-7.29197	12.7155
 275	1	1	-0.020587	-5.69719	-5.83776	11.0341
 276	1	2	-0.042503	-9.00198	-6.74283	10.4881
 277	1	2	0.004295	-7.96214	-6.0369	9.53318
 278	1	3	0.00226	-8.74763	-4.80623	9.02018
 279	1	3	-0.145049	-9.57924	-4.40752	10.2601
 280	1	3	0.011953	-9.90622	-5.24677	8.06885
 281	1	3	0.014921	-10.9496	-5.90347	9.06883
 282	1	3	0.025749	-10.23	-5.79603	10.4434
 283	1	3	0.154129	-4.6201	-5.57339	9.98387
 284	1	3	-0.203386	-4.33588	-6.83653	9.13889
 285	1	3	-0.113237	-4.94568	-4.36429	9.08083
 286	1	3	0.129534	-8.41242	-8.39856	13.3665
 287	1	3	-0.091829	-8.30906	-9.72073	12.5786
 288	1	3	-0.19809	-9.88725	-7.99429	13.5855
 289	1	4	0.228684	0.243832	-6.61619	15.5205
 290	1	5	0.042843	-3.50342	-9.39966	14.8068
 291	1	4	0.232532	-2.5223	-10.2088	17.3226
 292	1	5	0.035382	-1.8386	-7.70803	13.7113
 293	1	5	0.041247	-2.92658	-5.2438	13.8041
 294	1	5	0.06146	-5.19606	-8.95652	13.4416
 295	1	5	0.068364	-3.46235	-7.42658	12.2026
 296	1	5	0.055799	-5.31222	-5.48011	14.9902
 297	1	5	0.04347	-4.0328	-5.81991	16.1785
 298	1	5	0.076294	-5.58881	-7.98258	15.9267
 299	1	5	0.058767	-9.25985	-7.78601	10.2989
 300	1	5	0.056756	-7.52057	-6.62184	8.72219
 301	1	5	0.029415	-8.12842	-3.99655	8.61538
 302	1	5	0.049793	-10.3123	-3.61681	10.0459
 303	1	5	0.063468	-8.96992	-4.09194	11.117
 304	1	5	-0.012542	-10.3534	-4.434	7.48151
 305	1	5	-0.012458	-11.9361	-5.42352	9.02119
 306	1	5	0.013933	-10.9065	-5.86918	11.3037
 307	1	5	0.014892	-3.69093	-5.32517	10.5137
 308	1	5	0.04353	-5.21804	-7.13462	8.56017
 309	1	5	0.048722	-4.05428	-7.67906	9.78275
 310	1	5	0.053734	-3.51129	-6.65835	8.43755
 311	1	5	0.029251	-5.19533	-3.48412	9.68655
 312	1	5	0.025572	-5.78992	-4.57825	8.4159
 313	1	5	0.023611	-4.08189	-4.10947	8.45399
 314	1	5	0.021405	-7.98927	-8.58568	14.3622
 315	1	5	0.009991	-7.26098	-10.0223	12.4591
 316	1	5	0.026343	-8.75026	-9.62463	11.5805
 317	1	5	0.026093	-8.83488	-10.5256	13.107
 318	1	5	0.043016	-10.4122	-8.754	14.1779
 319	1	5	0.050907	-10.4182	-7.88637	12.633
 320	1	5	0.051325	-9.95041	-7.04079	14.125
 321	1	1	-0.439951	7.58015	-14.7016	20.4805
 322	1	1	0.043044	7.69165	-13.6759	21.4457
 323	1	1	0.126458	9.36878	-13.5018	19.3015
 324	1	1	0.016683	8.49911	-12.5516	21.2632
 325	1	1	0.121946	8.53515	-14.5905	19.4531
 326	1	2	0.005505	7.59054	-11.6447	22.0818
 327	1	1	-0.445809	9.31366	-12.3629	20.1264
 328	1	2	0.001585	6.69228	-12.9288	22.3142
 329	1	3	0.031166	5.34499	-12.5632	21.6481
 330	1	2	-0.048351	5.72396	-10.2309	22.4262
 331	1	1	-0.041771	4.37892	-9.56709	22.0938
 332	1	2	-0.107179	4.86539	-11.5375	22.7153
 333	1	3	-0.106774	5.79438	-11.6709	20.462
 334	1	3	-0.025838	6.6706	-10.6864	21.272
 335	1	1	-0.051955	3.64294	-10.7082	22.3653
 336	1	1	-0.09124	1.7541	-9.77415	21.3287
 337	1	1	-0.099966	2.48818	-8.62026	21.0468
 338	1	1	-0.017311	3.85975	-8.47743	21.3562
 339	1	1	-0.020587	2.3132	-10.9216	21.9415
 340	1	2	-0.042503	1.67358	-8.289	19.7949
 341	1	2	0.004295	0.837441	-9.58113	20.1285
 342	1	3	0.00226	1.10515	-10.5004	18.9163
 343	1	3	-0.145049	2.56125	-10.1433	18.5499
 344	1	3	0.011953	0.415109	-9.96409	17.6436
 345	1	3	0.014921	1.29209	-8.72129	17.2568
 346	1	3	0.025749	2.31952	-8.62975	18.4204
 347	1	3	0.154129	1.59734	-12.2824	22.0192
 348	1	3	-0.203386	2.00994	-13.1015	23.2674
 349	1	3	-0.113237	0.0528755	-12.1473	22.0359
 350	1	3	0.129534	4.61579	-7.20871	20.9596
 351	1	3	-0.091829	6.05206	-7.44679	20.4653
 352	1	3	-0.19809	4.61032	-6.19899	22.1273
 353	1	4	0.228684	6.76479	-15.4172	20.4588
 354	1	5	0.042843	8.05084	-11.1906	22.9667
 355	1	4	0.232532	9.73774	-11.4043	19.8446
 356	1	5	0.035382	6.60465	-13.2992	23.3422
 357	1	5	0.041247	4.67206	-13.3963	21.4108
 358	1	5	0.06146	6.25335	-9.79126	23.2794
 359	1	5	0.068364	4.88075	-11.9155	23.7445
 360	1	5	0.055799	4.97362	-11.174	19.9644
 361	1	5	0.04347	6.35698	-12.216	19.6997
 362	1	5	0.076294	7.19211	-9.91683	20.6959
 363	1	5	0.058767	1.13406	-7.33548	19.8034
 364	1	5	0.056756	-0.225745	-9.4379	20.3516
 365	1	5	0.029415	0.934645	-11.5694	19.0902
 366	1	5	0.049793	2.91907	-10.6057	17.6224
 367	1	5	0.063468	3.2591	-10.3924	19.3367
 368	1	5	-0.012542	0.356523	-10.6947	16.826
 369	1	5	-0.012458	1.75337	-8.84167	16.2757
 370	1	5	0.013933	3.21744	-8.0508	18.1714
 371	1	5	0.014892	1.87016	-12.8695	21.1329
 372	1	5	0.04353	1.40722	-14.014	23.3561
 373	1	5	0.048722	1.87133	-12.5128	24.1832
 374	1	5	0.053734	3.05493	-13.4195	23.2157
 375	1	5	0.029251	-0.271388	-11.4642	22.8314
 376	1	5	0.025572	-0.425183	-13.1195	22.2097
 377	1	5	0.023611	-0.33497	-11.7747	21.0833
 378	1	5	0.021405	4.07567	-6.73746	20.1287
 379	1	5	0.009991	6.70468	-7.76701	21.286
 380	1	5	0.026343	6.4727	-6.52508	20.0442
 381	1	5	0.026093	6.05718	-8.20934	19.6813
 382	1	5	0.043016	5.10477	-5.26274	21.8395
 383	1	5	0.050907	5.13131	-6.60939	23.0017
 384	1	5	0.051325	3.58144	-5.96081	22.4258
 385	1	1	-0.439951	1.87783	-7.15799	11.2843
 386	1	1	0.043044	1.6813	-8.01717	12.3811
 387	1	1	0.126458	0.127555	-8.51811	10.2146
 388	1	1	0.016683	0.828719	-9.11167	12.3631
 389	1	1	0.121946	0.967326	-7.42112	10.2434
 390	1	2	0.005505	1.49946	-9.78858	13.5458
 391	1	1	-0.445809	0.0826372	-9.48811	11.2321
 392	1	2	0.001585	2.48447	-8.53621	13.5542
 393	1	3	0.031166	3.87291	-9.16463	13.2633
 394	1	2	-0.048351	3.09546	-11.0472	14.6828
 395	1	1	-0.041771	4.34938	-11.8953	14.8749
 396	1	2	-0.107179	4.06763	-9.79587	14.6652
 397	1	3	-0.106774	3.54641	-10.3927	12.3697
 398	1	3	-0.025838	2.43734	-11.0007	13.2723
 399	1	1	-0.051955	5.19568	-10.7932	14.8214
 400	1	1	-0.09124	6.87166	-11.9892	15.9415
 401	1	1	-0.099966	6.02458	-13.0848	16.0354
 402	1	1	-0.017311	4.67633	-13.0543	15.6187
 403	1	1	-0.020587	6.45398	-10.7406	15.4445
 404	1	2	-0.042503	6.80525	-13.7097	17.1894
 405	1	2	0.004295	7.77215	-12.4656	17.0657
 406	1	3	0.00226	9.12696	-13.1037	16.6702
 407	1	3	-0.145049	8.69032	-14.3191	15.8211
 408	1	3	0.011953	9.74852	-13.8641	17.8758
 409	1	3	0.014921	8.78336	-15.1148	18.044
 410	1	3	0.025749	7.74434	-14.9056	16.8931
 411	1	3	0.154129	7.15284	-9.41363	15.723
 412	1	3	-0.203386	6.81883	-8.8911	17.1349
 413	1	3	-0.113237	8.67917	-9.4827	15.5019
 414	1	3	0.129534	3.66568	-14.0904	16.1077
 415	1	3	-0.091829	2.58983	-14.4314	15.0512
 416	1	3	-0.19809	3.00997	-13.6627	17.4388
 417	1	4	0.228684	2.70319	-6.45798	11.2023
 418	1	5	0.042843	0.842141	-9.91865	14.4126
 419	1	4	0.232532	-0.372609	-10.458	11.1121
 420	1	5	0.035382	2.46601	-7.87262	14.4247
 421	1	5	0.041247	4.66102	-8.48752	12.9109
 422	1	5	0.06146	2.36429	-11.1358	15.4914
 423	1	5	0.068364	4.0016	-9.07153	15.4851
 424	1	5	0.055799	4.40478	-11.0649	12.2417
 425	1	5	0.04347	3.17792	-10.1081	11.3761
 426	1	5	0.076294	1.96232	-11.9232	12.9166
 427	1	5	0.058767	6.23869	-13.8456	18.115
 428	1	5	0.056756	7.85362	-11.7825	17.9144
 429	1	5	0.029415	9.82918	-12.4297	16.1649
 430	1	5	0.049793	9.52519	-14.9906	15.5749
 431	1	5	0.063468	8.18225	-14.0448	14.8874
 432	1	5	-0.012542	10.7963	-14.163	17.7395
 433	1	5	-0.012458	9.33134	-16.0652	17.998
 434	1	5	0.013933	7.23236	-15.8265	16.5871
 435	1	5	0.014892	6.76685	-8.67561	15.0076
 436	1	5	0.04353	7.25476	-7.89725	17.2952
 437	1	5	0.048722	7.20731	-9.563	17.9087
 438	1	5	0.053734	5.73294	-8.81148	17.2693
 439	1	5	0.029251	8.90833	-9.88152	14.5057
 440	1	5	0.025572	9.16305	-10.1205	16.2499
 441	1	5	0.023611	9.12424	-8.48262	15.5765
 442	1	5	0.021405	4.21779	-15.0187	16.3056
 443	1	5	0.009991	1.9221	-13.5813	14.8684
 444	1	5	0.026343	1.97166	-15.2726	15.3891
 445	1	5	0.026093	3.05536	-14.715	14.0991
 446	1	5	0.043016	2.32387	-12.8236	17.283
 447	1	5	0.050907	3.76894	-13.3566	18.1698
 448	1	5	0.051325	2.43619	-14.4911	17.8721
 449	1	1	-0.439951	4.30421	-11.8761	-0.2
 450	1	1	0.043044	5.3091	-11.8325	0.789327
 451	1	1	0.126458	5.30647	-9.78179	-0.999744
 452	1	1	0.016683	6.19431	-10.7657	0.927416
 453	1	1	0.121946	4.43409	-10.8429	-1.14883
 454	1	2	0.005505	6.41742	-11.0143	2.40611
 455	1	1	-0.445809	6.16458	-9.62454	0.102644
 456	1	2	0.001585	5.41317	-12.2318	2.25379
 457	1	3	0.031166	4.22509	-11.852	3.17867
 458	1	2	-0.048351	5.93992	-10.8792	4.6754
 459	1	1	-0.041771	5.13922	-10.4901	5.90394
 460	1	2	-0.107179	4.93323	-12.106	4.53785
 461	1	3	-0.106774	4.18707	-10.3011	3.09325
 462	1	3	-0.025838	5.69549	-10.0534	3.38643
 463	1	1	-0.051955	4.26495	-11.5576	5.78982
 464	1	1	-0.09124	2.89151	-10.6037	7.412
 465	1	1	-0.099966	3.75272	-9.52293	7.49968
 466	1	1	-0.017311	4.89225	-9.34684	6.6883
 467	1	1	-0.020587	3.03009	-11.6414	6.46445
 468	1	2	-0.042503	2.83079	-8.72814	8.40709
 469	1	2	0.004295	1.85127	-9.97483	8.32825
 470	1	3	0.00226	0.567711	-9.3702	7.7113
 471	1	3	-0.145049	1.13785	-8.32094	6.72962
 472	1	3	0.011953	-0.136801	-8.41259	8.72064
 473	1	3	0.014921	0.837319	-7.15988	8.75575
 474	1	3	0.025749	1.98277	-7.58182	7.79224
 475	1	3	0.154129	1.99079	-12.7158	6.1583
 476	1	3	-0.203386	1.28441	-13.2437	7.42701
 477	1	3	-0.113237	0.960463	-12.232	5.11569
 478	1	3	0.129534	5.7776	-8.1033	6.6496
 479	1	3	-0.091829	6.03524	-7.52234	8.05823
 480	1	3	-0.19809	5.22747	-7.01863	5.69702
 481	1	4	0.228684	3.45062	-12.545	-0.15902
 482	1	5	0.042843	7.45189	-11.2522	2.68044
 483	1	4	0.232532	6.63992	-8.68341	0.359904
 484	1	5	0.035382	5.81844	-13.2348	2.43086
 485	1	5	0.041247	3.28589	-12.3857	2.99654
 486	1	5	0.06146	6.99276	-11.1156	4.87127
 487	1	5	0.068364	5.35665	-13.1118	4.64436
 488	1	5	0.055799	3.52354	-9.84623	3.84015
 489	1	5	0.04347	3.8793	-9.94723	2.10569
 490	1	5	0.076294	6.04119	-9.01353	3.38676
 491	1	5	0.058767	3.2525	-8.4893	9.38762
 492	1	5	0.056756	1.67109	-10.5225	9.25856
 493	1	5	0.029415	-0.112537	-10.0981	7.25845
 494	1	5	0.049793	0.358614	-7.68535	6.28515
 495	1	5	0.063468	1.73591	-8.75492	5.91765
 496	1	5	-0.012542	-1.16357	-8.13132	8.45206
 497	1	5	-0.012458	0.325753	-6.22524	8.49019
 498	1	5	0.013933	2.55354	-6.72899	7.41217
 499	1	5	0.014892	2.51886	-13.5698	5.71409
 500	1	5	0.04353	0.640364	-12.4783	7.87511
 501	1	5	0.048722	2.0208	-13.5562	8.17815
 502	1	5	0.053734	0.657851	-14.1101	7.18245
 503	1	5	0.029251	0.36874	-11.3954	5.49941
 504	1	5	0.025572	0.274501	-13.0442	4.84527
 505	1	5	0.023611	1.45386	-11.8917	4.19984
 506	1	5	0.021405	6.7549	-8.40922	6.2538
 507	1	5	0.009991	5.12606	-7.07715	8.48004
 508	1	5	0.026343	6.80475	-6.74134	8.01942
 509	1	5	0.026093	6.38362	-8.30615	8.74282
 510	1	5	0.043016	4.2876	-6.60062	6.06827
 511	1	5	0.050907	5.03725	-7.42849	4.69943
 512	1	5	0.051325	5.94498	-6.19495	5.59457
 513	1	1	-0.439951	-3.40924	-1.13925	-1.09005
 514	1	1	0.043044	-3.36452	-2.43058	-0.536214
 515	1	1	0.126458	-5.37203	-2.04223	-2.29755
 516	1	1	0.016683	-4.25304	-3.4486	-0.834312
 517	1	1	0.121946	-4.48929	-1.02684	-1.98523
 518	1	2	0.005505	-3.58226	-4.44278	0.0972709
 519	1	1	-0.445809	-5.32451	-3.3381	-1.74389
 520	1	2	0.001585	-2.55671	-3.26918	0.432568
 521	1	3	0.031166	-1.19602	-3.81049	-0.0778248
 522	1	2	-0.048351	-1.98518	-6.00872	0.750177
 523	1	1	-0.041771	-0.758001	-6.89599	0.609833
 524	1	2	-0.107179	-0.95656	-4.82882	1.0727
 525	1	3	-0.106774	-1.58767	-4.71272	-1.27936
 526	1	3	-0.025838	-2.69028	-5.53089	-0.553929
 527	1	1	-0.051955	0.134089	-5.87019	0.883362
 528	1	1	-0.09124	1.90568	-7.30339	0.455126
 529	1	1	-0.099966	1.02093	-8.33657	0.222308
 530	1	1	-0.017311	-0.379332	-8.20039	0.21828
 531	1	1	-0.020587	1.53834	-5.98732	0.780459
 532	1	2	-0.042503	2.09844	-9.27863	-0.282528
 533	1	2	0.004295	3.11079	-8.07653	-0.0433712
 534	1	3	0.00226	3.62652	-7.76831	-1.4752
 535	1	3	-0.145049	2.39358	-8.08522	-2.35324
 536	1	3	0.011953	4.5677	-8.89954	-1.98755
 537	1	3	0.014921	3.57749	-10.1257	-2.18416
 538	1	3	0.025749	2.19263	-9.51857	-1.80661
 539	1	3	0.154129	2.57729	-4.90784	1.06925
 540	1	3	-0.203386	2.27284	-3.55181	0.404468
 541	1	3	-0.113237	2.77228	-4.74199	2.59195
 542	1	3	0.129534	-1.30908	-9.36388	-0.117146
 543	1	3	-0.091829	-2.51523	-8.96824	-0.991817
 544	1	3	-0.19809	-1.78026	-10.0702	1.17172
 545	1	4	0.228684	-2.72327	-0.334851	-0.844747
 546	1	5	0.042843	-4.21815	-4.8096	0.911431
 547	1	4	0.232532	-6.03223	-4.13044	-1.96614
 548	1	5	0.035382	-2.53423	-2.88774	1.46003
 549	1	5	0.041247	-0.424	-3.05841	-0.268067
 550	1	5	0.06146	-2.6735	-6.30831	1.54949
 551	1	5	0.068364	-0.993169	-4.38877	2.07636
 552	1	5	0.055799	-0.755969	-5.33774	-1.62984
 553	1	5	0.04347	-1.97325	-4.14094	-2.13353
 554	1	5	0.076294	-3.21673	-6.27588	-1.15835
 555	1	5	0.058767	2.2387	-10.1832	0.316654
 556	1	5	0.056756	3.90889	-8.21177	0.69078
 557	1	5	0.029415	4.03293	-6.75836	-1.61148
 558	1	5	0.049793	2.61942	-8.06762	-3.42895
 559	1	5	0.063468	1.54034	-7.41854	-2.17171
 560	1	5	-0.012542	5.12358	-8.66035	-2.90378
 561	1	5	-0.012458	3.63413	-10.5434	-3.19801
 562	1	5	0.013933	1.34025	-10.0536	-2.24334
 563	1	5	0.014892	3.5363	-5.24903	0.657863
 564	1	5	0.04353	1.45535	-3.03843	0.922494
 565	1	5	0.048722	2.00067	-3.68698	-0.649822
 566	1	5	0.053734	3.15353	-2.899	0.447121
 567	1	5	0.029251	1.8466	-4.39696	3.07007
 568	1	5	0.025572	3.56356	-4.01362	2.80897
 569	1	5	0.023611	3.056	-5.69744	3.0518
 570	1	5	0.021405	-0.732295	-10.0969	-0.695752
 571	1	5	0.009991	-2.19315	-8.37474	-1.85679
 572	1	5	0.026343	-3.24532	-8.39131	-0.412807
 573	1	5	0.026093	-3.02625	-9.86304	-1.36845
 574	1	5	0.043016	-0.919587	-10.4227	1.75418
 575	1	5	0.050907	-2.40879	-10.9378	0.935034
 576	1	5	0.051325	-2.36094	-9.3853	1.80262
 577	1	1	-0.439951	-3.09233	-0.861926	-13.8319
 578	1	1	0.043044	-3.39845	0.16692	-12.9377
 579	1	1	0.126458	-0.784838	0.0377039	-13.7836
 580	1	1	0.016683	-2.48573	1.08763	-12.5167
 581	1	1	0.121946	-1.73637	-0.91424	-14.27
 582	1	2	0.005505	-3.46606	1.82231	-11.6223
 583	1	1	-0.445809	-1.14146	1.06776	-12.8812
 584	1	2	0.001585	-4.54319	0.758461	-12.1194
 585	1	3	0.031166	-5.08937	0.145476	-10.7893
 586	1	2	-0.048351	-2.80479	0.282556	-9.86878
 587	1	1	-0.041771	-2.92996	-0.318528	-8.48753
 588	1	2	-0.107179	-3.92155	-0.757932	-10.3114
 589	1	3	-0.106774	-4.982	1.37397	-9.84109
 590	1	3	-0.025838	-3.47362	1.67134	-10.0748
 591	1	1	-0.051955	-3.9183	-1.21644	-8.85168
 592	1	1	-0.09124	-4.25143	-1.72229	-6.59366
 593	1	1	-0.099966	-3.29386	-0.784317	-6.24083
 594	1	1	-0.017311	-2.6154	0.0358514	-7.16433
 595	1	1	-0.020587	-4.72485	-1.90223	-7.91153
 596	1	2	-0.042503	-3.67863	-0.792491	-4.77097
 597	1	2	0.004295	-4.74151	-1.90379	-5.16424
 598	1	3	0.00226	-6.09254	-1.26956	-4.76306
 599	1	3	-0.145049	-5.85842	0.221934	-5.09765
 600	1	3	0.011953	-6.21775	-1.1679	-3.21288
 601	1	3	0.014921	-5.18769	-0.00807787	-2.85822
 602	1	3	0.025749	-4.57976	0.357931	-4.23928
 603	1	3	0.154129	-5.97464	-2.72372	-8.22616
 604	1	3	-0.203386	-7.24538	-1.85463	-8.35378
 605	1	3	-0.113237	-5.78627	-3.61955	-9.46516
 606	1	3	0.129534	-1.62118	1.14604	-6.82971
 607	1	3	-0.091829	-0.611754	0.717505	-5.74161
 608	1	3	-0.19809	-2.30474	2.48001	-6.46193
 609	1	4	0.228684	-3.85083	-1.55715	-14.1744
 610	1	5	0.042843	-3.67932	2.85608	-11.9159
 611	1	4	0.232532	-0.423462	1.79194	-12.5097
 612	1	5	0.035382	-5.361	1.18315	-12.7118
 613	1	5	0.041247	-6.07292	-0.327496	-10.8679
 614	1	5	0.06146	-1.80131	0.179809	-10.295
 615	1	5	0.068364	-3.63288	-1.53474	-11.0282
 616	1	5	0.055799	-5.21601	1.13282	-8.79584
 617	1	5	0.04347	-5.62447	2.20473	-10.1626
 618	1	5	0.076294	-3.04408	2.50797	-9.51133
 619	1	5	0.058767	-2.88301	-1.09037	-4.07946
 620	1	5	0.056756	-4.58803	-2.903	-4.74161
 621	1	5	0.029415	-6.97212	-1.71647	-5.24035
 622	1	5	0.049793	-6.6769	0.869515	-4.75259
 623	1	5	0.063468	-5.6917	0.416832	-6.16501
 624	1	5	-0.012542	-7.229	-0.951255	-2.84417
 625	1	5	-0.012458	-5.66107	0.824098	-2.32054
 626	1	5	0.013933	-4.12944	1.35383	-4.25169
 627	1	5	0.014892	-6.1447	-3.40312	-7.38062
 628	1	5	0.04353	-8.12849	-2.48475	-8.51833
 629	1	5	0.048722	-7.17164	-1.1534	-9.18757
 630	1	5	0.053734	-7.41532	-1.26955	-7.44394
 631	1	5	0.029251	-6.66999	-4.2468	-9.63585
 632	1	5	0.025572	-4.9304	-4.28245	-9.30907
 633	1	5	0.023611	-5.60617	-3.02631	-10.3689
 634	1	5	0.021405	-1.03438	1.33716	-7.73788