pySIMM System Object

1766 atoms
2017 bonds
4212 angles
7662 dihedrals
108 impropers

5 atom types
9 bond types
18 angle types
19 dihedral types
2 improper types

-165.070843 165.070843 xlo xhi
-165.070843 165.070843 ylo yhi
-165.070843 165.070843 zlo zhi

Masses

   1	12.01	# ca
   2	12.01	# cy
   3	12.01	# c3
   4	1.008	# ha
   5	1.008	# hc

Pair Coeffs

   1	0.086	3.3996695084235347	# ca
   2	0.086	3.3996695084235347	# cy
   3	0.1094	3.3996695084235347	# c3
   4	0.015	2.59964245953351	# ha
   5	0.0157	2.649532787749369	# hc

Bond Coeffs

   1	300.9	1.5375	# c3,c3
   2	305.9	1.5319	# c3,cy
   3	345.8	1.086	# ca,ha
   4	321.0	1.5156	# c3,ca
   5	285.0	1.5562	# cy,cy
   6	330.6	1.0969	# c3,hc
   7	333.3	1.0949	# cy,hc
   8	321.2	1.5154	# ca,cy
   9	461.1	1.3984	# ca,ca

Angle Coeffs

   1	66.62	120.02	# ca,ca,ca
   2	61.4	116.81	# ca,cy,cy
   3	44.83	114.79	# cy,cy,hc
   4	46.43	110.14	# c3,cy,hc
   5	63.15	112.07	# c3,c3,ca
   6	46.34	109.8	# c3,c3,hc
   7	39.4	107.58	# hc,c3,hc
   8	48.18	119.88	# ca,ca,ha
   9	63.53	120.77	# c3,ca,ca
  10	60.66	118.7	# c3,cy,cy
  11	63.51	120.86	# ca,ca,cy
  12	62.73	112.39	# c3,c3,cy
  13	46.29	110.75	# cy,c3,hc
  14	46.8	110.47	# ca,c3,hc
  15	62.8	113.57	# c3,cy,ca
  16	62.86	111.51	# c3,c3,c3
  17	67.9	96.03	# cy,c3,cy
  18	45.97	114.53	# ca,cy,hc

Dihedral Coeffs

   1	1	0.16	3	0.0	# hc,c3,cy,cy
   2	1	0.16	3	0.0	# cy,c3,cy,hc
   3	1	0.16	3	0.0	# c3,c3,cy,hc
   4	1	0.15	3	0.0	# hc,c3,cy,hc
   5	1	3.625	2	180	# X,ca,ca,X
   6	1	0.15555555555555556	3	0	# X,cy,cy,X
   7	3	0.18	3	0	0.25	2	180	0.2	1	180	# c3,c3,c3,c3
   8	1	0.16	3	0	# hc,c3,c3,c3
   9	1	0.0	2	0.0	# ca,ca,cy,cy
  10	1	0.0	2	0.0	# ca,ca,cy,c3
  11	1	0.15555555555555556	3	0	# X,c3,c3,X
  12	1	0.0	2	0	# X,c3,ca,X
  13	3	0.38	3	180.0	0.0	2	0.0	1.15	1	0.0	# ca,ca,cy,hc
  14	3	0.18	3	0.0	0.25	2	180.0	0.2	1	180.0	# cy,c3,cy,cy
  15	1	0.16	3	0.0	# cy,c3,cy,ca
  16	1	0.16	3	0.0	# c3,c3,cy,ca
  17	1	0.16	3	0.0	# hc,c3,cy,ca
  18	1	0.15	3	0	# hc,c3,c3,hc
  19	3	0.18	3	0.0	0.25	2	180.0	0.2	1	180.0	# c3,c3,cy,cy

Improper Coeffs

   1	1.1	-1	2	# ca,ca,ca,c3
   2	1.1	-1	2	# ca,X,X,ha

Atoms

   1	1	1	-0.439951	-25.4451	32.9837	25.8299
   2	1	1	0.043044	-25.0412	31.8628	26.5813
   3	1	1	0.126458	-27.0739	33.3585	27.628
   4	1	1	0.016683	-25.7183	31.4411	27.7241
   5	1	1	0.121946	-26.4094	33.7714	26.4845
   6	1	2	0.005505	-25.349	29.9824	27.5202
   7	1	1	-0.445809	-26.8527	32.1063	28.2293
   8	1	2	0.001585	-24.5732	30.4623	26.2262
   9	1	3	0.031166	-25.3103	29.7482	25.0624
  10	1	2	-0.048351	-25.5485	27.8404	26.6245
  11	1	1	-0.041771	-26.1195	26.7433	25.7369
  12	1	2	-0.107179	-24.7551	28.3234	25.3307
  13	1	3	-0.106774	-26.7783	29.6556	25.5679
  14	1	3	-0.025838	-26.46	29.0498	26.965
  15	1	1	-0.051955	-25.425	27.1646	24.6152
  16	1	1	-0.09124	-26.6381	25.6818	23.2928
  17	1	1	-0.099966	-27.3223	25.2492	24.4167
  18	1	1	-0.017311	-27.1931	25.8276	25.6948
  19	1	1	-0.020587	-25.7113	26.7462	23.3009
  20	1	2	-0.042503	-28.3206	24.4266	23.6213
  21	1	2	0.004295	-27.54	24.92	22.3317
  22	1	3	0.00226	-28.6317	25.6911	21.5537
  23	1	3	-0.145049	-29.4833	26.3263	22.6723
  24	1	3	0.011953	-29.6409	24.6558	20.9951
  25	1	3	0.014921	-30.4045	24.1793	22.2619
  26	1	3	0.025749	-29.7422	24.9923	23.4027
  27	1	3	0.154129	-25.0867	27.3998	22.0707
  28	1	3	-0.203386	-24.7082	26.3731	20.9803
  29	1	3	-0.113237	-25.9838	28.5153	21.4913
  30	1	3	0.129534	-28.1317	25.493	26.8514
  31	1	3	-0.091829	-29.3152	26.4817	26.9361
  32	1	3	-0.19809	-27.3959	25.3923	28.2062
  33	1	4	0.228684	-25.17	33.1314	24.7907
  34	1	5	0.042843	-24.7495	29.5434	28.3263
  35	1	4	0.232532	-27.5737	31.6333	28.8881
  36	1	5	0.035382	-23.4849	30.3308	26.2202
  37	1	5	0.041247	-25.1516	30.1649	24.0612
  38	1	5	0.06146	-24.9481	27.4781	27.4676
  39	1	5	0.068364	-23.6606	28.2648	25.3665
  40	1	5	0.055799	-27.4009	28.9965	24.9491
  41	1	5	0.04347	-27.2713	30.6341	25.6288
  42	1	5	0.076294	-27.3066	28.8668	27.6348
  43	1	5	0.058767	-28.3113	23.3481	23.8146
  44	1	5	0.056756	-27.0519	24.1431	21.7327
  45	1	5	0.029415	-28.2632	26.3881	20.794
  46	1	5	0.049793	-30.4042	26.7929	22.2958
  47	1	5	0.063468	-28.9356	27.0601	23.2782
  48	1	5	-0.012542	-29.1365	23.8268	20.4819
  49	1	5	-0.012458	-30.3078	23.0971	22.4187
  50	1	5	0.013933	-30.3603	25.0658	24.3049
  51	1	5	0.014892	-24.1513	27.8775	22.3905
  52	1	5	0.04353	-24.0825	25.5758	21.401
  53	1	5	0.048722	-24.1432	26.8566	20.1737
  54	1	5	0.053734	-25.5998	25.9135	20.538
  55	1	5	0.029251	-26.2594	29.2401	22.265
  56	1	5	0.025572	-26.9091	28.1085	21.0737
  57	1	5	0.023611	-25.4614	29.0557	20.6921
  58	1	5	0.021405	-28.5591	24.5016	26.652
  59	1	5	0.009991	-30.0371	26.158	27.6964
  60	1	5	0.026343	-29.8417	26.5475	25.9778
  61	1	5	0.026093	-28.9785	27.4888	27.1977
  62	1	5	0.043016	-27.0186	26.3692	28.5306
  63	1	5	0.050907	-26.5464	24.7015	28.1338
  64	1	5	0.051325	-28.0714	25.0171	28.9851
  65	1	1	-0.439951	-26.2154	43.1359	32.3222
  66	1	1	0.043044	-26.9429	43.5087	31.1729
  67	1	1	0.126458	-24.2356	43.8307	31.0451
  68	1	1	0.016683	-26.3306	43.9193	29.9896
  69	1	1	0.121946	-24.8409	43.4253	32.2197
  70	1	2	0.005505	-27.4723	43.4275	29.117
  71	1	1	-0.445809	-24.9316	43.998	29.8333
  72	1	2	0.001585	-28.1707	42.9621	30.4598
  73	1	3	0.031166	-28.2692	41.4191	30.3171
  74	1	2	-0.048351	-28.7044	41.8498	27.9251
  75	1	1	-0.041771	-29.0318	40.4716	27.3811
  76	1	2	-0.107179	-29.4128	41.3732	29.2679
  77	1	3	-0.106774	-27.0176	41.0575	29.4725
  78	1	3	-0.025838	-27.2343	42.1041	28.3436
  79	1	1	-0.051955	-29.656	40.0522	28.5466
  80	1	1	-0.09124	-29.6697	37.865	27.7347
  81	1	1	-0.099966	-29.0152	38.2798	26.5865
  82	1	1	-0.017311	-28.5484	39.5962	26.3877
  83	1	1	-0.020587	-29.9132	38.6954	28.8468
  84	1	2	-0.042503	-28.7574	36.8598	26.1001
  85	1	2	0.004295	-29.5151	36.3873	27.4162
  86	1	3	0.00226	-28.4402	35.5592	28.1601
  87	1	3	-0.145049	-27.1379	36.3159	27.8043
  88	1	3	0.011953	-28.2846	34.2348	27.3596
  89	1	3	0.014921	-27.529	34.7015	26.052
  90	1	3	0.025749	-27.3533	36.2297	26.2749
  91	1	3	0.154129	-30.378	38.1463	30.1946
  92	1	3	-0.203386	-29.1948	37.8196	31.1336
  93	1	3	-0.113237	-31.4011	39.0681	30.8943
  94	1	3	0.129534	-27.6114	40.0546	25.2721
  95	1	3	-0.091829	-27.9818	39.4483	23.9007
  96	1	3	-0.19809	-26.126	39.7921	25.6102
  97	1	4	0.228684	-26.6374	42.5445	33.1286
  98	1	5	0.042843	-27.9785	44.2076	28.5364
  99	1	4	0.232532	-24.4396	44.0235	28.8663
 100	1	5	0.035382	-29.1156	43.4507	30.7242
 101	1	5	0.041247	-28.4192	40.8679	31.2501
 102	1	5	0.06146	-29.1715	42.6805	27.3826
 103	1	5	0.068364	-30.3199	41.9114	29.567
 104	1	5	0.055799	-27.0255	40.0207	29.1119
 105	1	5	0.04347	-26.0897	41.218	30.0195
 106	1	5	0.076294	-26.4865	42.1414	27.5437
 107	1	5	0.058767	-29.2292	36.5924	25.148
 108	1	5	0.056756	-30.4504	35.8364	27.2665
 109	1	5	0.029415	-28.6169	35.4086	29.2311
 110	1	5	0.049793	-26.2257	35.8136	28.1513
 111	1	5	0.063468	-27.1128	37.3463	28.1826
 112	1	5	-0.012542	-29.214	33.6833	27.1646
 113	1	5	-0.012458	-28.0303	34.41	25.1195
 114	1	5	0.013933	-26.5561	36.6646	25.6649
 115	1	5	0.014892	-30.896	37.1983	29.9987
 116	1	5	0.04353	-28.4535	37.1898	30.6309
 117	1	5	0.048722	-29.5453	37.2843	32.0247
 118	1	5	0.053734	-28.6827	38.7253	31.467
 119	1	5	0.029251	-30.9405	40.0125	31.2072
 120	1	5	0.025572	-31.8107	38.5815	31.7883
 121	1	5	0.023611	-32.2372	39.2986	30.2221
 122	1	5	0.021405	-27.7262	41.1421	25.1748
 123	1	5	0.009991	-27.8133	38.3649	23.8835
 124	1	5	0.026343	-27.3745	39.8961	23.1042
 125	1	5	0.026093	-29.0374	39.6361	23.6673
 126	1	5	0.043016	-25.8909	38.7254	25.582
 127	1	5	0.050907	-25.8755	40.1569	26.612
 128	1	5	0.051325	-25.4707	40.2977	24.8902
 129	1	1	-0.439951	-16.9033	34.7332	30.5675
 130	1	1	0.043044	-18.2345	34.3025	30.7276
 131	1	1	0.126458	-16.6673	34.2087	32.9556
 132	1	1	0.016683	-18.7783	33.9421	31.9592
 133	1	1	0.121946	-16.1319	34.5585	31.7303
 134	1	2	0.005505	-20.1963	34.313	31.5468
 135	1	1	-0.445809	-18.043	33.9854	33.1631
 136	1	2	0.001585	-19.5694	34.7394	30.1555
 137	1	3	0.031166	-19.8209	36.2697	30.0841
 138	1	2	-0.048351	-21.9907	35.754	31.1485
 139	1	1	-0.041771	-22.7159	37.0869	31.1219
 140	1	2	-0.107179	-21.3363	36.2082	29.7698
 141	1	3	-0.106774	-19.8003	36.7143	31.5734
 142	1	3	-0.025838	-20.7789	35.635	32.1133
 143	1	1	-0.051955	-22.1356	37.4932	29.9298
 144	1	1	-0.09124	-22.9497	39.6432	30.284
 145	1	1	-0.099966	-23.5365	39.2354	31.467
 146	1	1	-0.017311	-23.3738	37.9497	32.0211
 147	1	1	-0.020587	-22.1247	38.8332	29.4823
 148	1	2	-0.042503	-23.9813	40.6392	31.8463
 149	1	2	0.004295	-23.2984	41.1054	30.487
 150	1	3	0.00226	-22.2033	42.0896	30.9668
 151	1	3	-0.145049	-21.7687	41.4705	32.3149
 152	1	3	0.011953	-22.8447	43.4095	31.4948
 153	1	3	0.014921	-23.5373	42.9502	32.8455
 154	1	3	0.025749	-23.1918	41.4315	32.9163
 155	1	3	0.154129	-21.3248	39.3856	28.3055
 156	1	3	-0.203386	-19.9147	39.8477	28.736
 157	1	3	-0.113237	-21.2509	38.4025	27.1166
 158	1	3	0.129534	-23.8253	37.5136	33.4117
 159	1	3	-0.091829	-25.2363	38.0358	33.7635
 160	1	3	-0.19809	-22.8	37.9049	34.4987
 161	1	4	0.228684	-16.5544	35.2856	29.7009
 162	1	5	0.042843	-20.9061	33.4777	31.5362
 163	1	4	0.232532	-18.5049	33.9957	34.145
 164	1	5	0.035382	-19.8969	34.183	29.2695
 165	1	5	0.041247	-19.186	36.8258	29.3868
 166	1	5	0.06146	-22.6423	34.8723	31.1256
 167	1	5	0.068364	-21.5898	35.6172	28.8815
 168	1	5	0.055799	-20.1623	37.7399	31.7224
 169	1	5	0.04347	-18.809	36.6371	32.0213
 170	1	5	0.076294	-20.9929	35.6491	33.188
 171	1	5	0.058767	-25.0634	40.7553	31.941
 172	1	5	0.056756	-23.9346	41.5241	29.7044
 173	1	5	0.029415	-21.3871	42.2575	30.2548
 174	1	5	0.049793	-21.084	42.1177	32.8812
 175	1	5	0.063468	-21.3073	40.479	32.2153
 176	1	5	-0.012542	-22.1383	44.2356	31.6505
 177	1	5	-0.012458	-23.1969	43.5399	33.7068
 178	1	5	0.013933	-23.2504	41.0279	33.9323
 179	1	5	0.014892	-21.8523	40.2766	27.9404
 180	1	5	0.04353	-19.2973	39.0048	29.0592
 181	1	5	0.048722	-19.9726	40.5541	29.5715
 182	1	5	0.053734	-19.3994	40.3466	27.906
 183	1	5	0.029251	-22.2562	38.0735	26.8243
 184	1	5	0.025572	-20.6573	37.5154	27.3663
 185	1	5	0.023611	-20.7866	38.8835	26.2467
 186	1	5	0.021405	-23.8869	36.4175	33.4107
 187	1	5	0.009991	-25.2429	39.1264	33.8781
 188	1	5	0.026343	-25.5863	37.597	34.7062
 189	1	5	0.026093	-25.955	37.7681	32.9786
 190	1	5	0.043016	-22.7363	38.9907	34.6142
 191	1	5	0.050907	-21.7989	37.5398	34.2442
 192	1	5	0.051325	-23.0813	37.4775	35.4691
 193	1	1	-0.439951	-12.1076	43.597	38.0222
 194	1	1	0.043044	-12.9946	43.9538	36.9866
 195	1	1	0.126458	-10.34	44.1791	36.4167
 196	1	1	0.016683	-12.5707	44.3032	35.707
 197	1	1	0.121946	-10.7609	43.8386	37.6885
 198	1	2	0.005505	-13.8757	43.8791	35.055
 199	1	1	-0.445809	-11.2143	44.3258	35.3226
 200	1	2	0.001585	-14.357	43.4764	36.5112
 201	1	3	0.031166	-14.575	41.9416	36.4208
 202	1	2	-0.048351	-15.4094	42.3865	34.1365
 203	1	1	-0.041771	-15.9249	41.0302	33.6936
 204	1	2	-0.107179	-15.8926	41.9724	35.597
 205	1	3	-0.106774	-13.518	41.4885	35.3745
 206	1	3	-0.025838	-13.8706	42.5357	34.2798
 207	1	1	-0.051955	-16.3498	40.6664	34.9619
 208	1	1	-0.09124	-16.6401	38.4781	34.2252
 209	1	1	-0.099966	-16.1675	38.8332	32.9756
 210	1	1	-0.017311	-15.7373	40.1287	32.6275
 211	1	1	-0.020587	-16.6882	39.346	35.3327
 212	1	2	-0.042503	-16.0847	37.3975	32.4852
 213	1	2	0.004295	-16.6557	36.9922	33.9134
 214	1	3	0.00226	-15.5402	36.0945	34.4984
 215	1	3	-0.145049	-14.2604	36.7567	33.9387
 216	1	3	0.011953	-15.4718	34.7331	33.7412
 217	1	3	0.014921	-14.8684	35.1452	32.3335
 218	1	3	0.025749	-14.7028	36.6893	32.4598
 219	1	3	0.154129	-17.0777	38.877	36.7325
 220	1	3	-0.203386	-15.854	38.4659	37.574
 221	1	3	-0.113237	-17.9406	39.9125	37.4867
 222	1	3	0.129534	-15.1769	40.5458	31.2704
 223	1	3	-0.091829	-15.9601	39.9195	30.0947
 224	1	3	-0.19809	-13.67	40.2563	31.144
 225	1	4	0.228684	-12.4138	43.0651	38.9173
 226	1	5	0.042843	-14.4235	44.6871	34.556
 227	1	4	0.232532	-10.8828	44.3174	34.2892
 228	1	5	0.035382	-15.2086	44.0296	36.9239
 229	1	5	0.041247	-14.5916	41.4043	37.3744
 230	1	5	0.06146	-15.9083	43.2439	33.669
 231	1	5	0.068364	-16.6923	42.5742	36.0447
 232	1	5	0.055799	-13.6609	40.4523	35.0416
 233	1	5	0.04347	-12.4921	41.588	35.7408
 234	1	5	0.076294	-13.278	42.5126	33.3586
 235	1	5	0.058767	-16.6976	37.1815	31.6076
 236	1	5	0.056756	-17.6461	36.5317	33.9554
 237	1	5	0.029415	-15.5593	35.9834	35.5885
 238	1	5	0.049793	-13.3565	36.166	34.1369
 239	1	5	0.063468	-14.0947	37.7796	34.3021
 240	1	5	-0.012542	-14.8698	33.9607	34.2379
 241	1	5	-0.012458	-13.945	34.5986	32.1001
 242	1	5	0.013933	-13.9787	37.1017	31.7498
 243	1	5	0.014892	-17.6983	37.9788	36.6157
 244	1	5	0.04353	-15.2249	39.3303	37.8031
 245	1	5	0.048722	-15.242	37.7333	37.0378
 246	1	5	0.053734	-16.169	38.0151	38.5232
 247	1	5	0.029251	-18.3165	39.4903	38.427
 248	1	5	0.025572	-18.8054	40.2109	36.8807
 249	1	5	0.023611	-17.3629	40.8124	37.7297
 250	1	5	0.021405	-15.3001	41.6334	31.1841
 251	1	5	0.009991	-15.8028	38.8355	30.0414
 252	1	5	0.026343	-15.6363	40.353	29.1403
 253	1	5	0.026093	-17.0359	40.1065	30.203
 254	1	5	0.043016	-13.4665	39.1816	31.1653
 255	1	5	0.050907	-13.1259	40.7221	31.9699
 256	1	5	0.051325	-13.2726	40.66	30.2046
 257	1	1	-0.439951	-9.99936	31.9681	32.4241
 258	1	1	0.043044	-10.1962	32.9012	33.46
 259	1	1	0.126458	-10.5083	30.3064	34.1732
 260	1	1	0.016683	-10.6105	32.5612	34.7396
 261	1	1	0.121946	-10.1006	30.6454	32.8965
 262	1	2	0.005505	-11.0375	33.9749	35.0879
 263	1	1	-0.445809	-10.8783	31.2432	35.1573
 264	1	2	0.001585	-10.5597	34.3657	33.6197
 265	1	3	0.031166	-9.38637	35.3539	33.8642
 266	1	2	-0.048351	-10.7308	36.1731	35.7694
 267	1	1	-0.041771	-9.95113	37.3876	36.2432
 268	1	2	-0.107179	-10.2515	36.5618	34.3101
 269	1	3	-0.106774	-8.76465	34.854	35.1986
 270	1	3	-0.025838	-10.0875	34.7826	36.0138
 271	1	1	-0.051955	-9.52744	37.726	34.9658
 272	1	1	-0.09124	-9.19211	39.9473	35.662
 273	1	1	-0.099966	-9.62099	39.6087	36.9418
 274	1	1	-0.017311	-10.1368	38.3365	37.2652
 275	1	1	-0.020587	-9.23594	39.0463	34.5775
 276	1	2	-0.042503	-9.99971	41.0372	37.2947
 277	1	2	0.004295	-9.51518	41.4223	35.8428
 278	1	3	0.00226	-8.35262	42.4095	36.1127
 279	1	3	-0.145049	-7.73069	41.8438	37.4085
 280	1	3	0.011953	-8.89906	43.7603	36.669
 281	1	3	0.014921	-9.38285	43.37	38.1298
 282	1	3	0.025749	-9.05049	41.8493	38.2103
 283	1	3	0.154129	-9.18792	39.4535	33.1082
 284	1	3	-0.203386	-10.5662	39.9334	32.6137
 285	1	3	-0.113237	-8.09745	40.5061	32.8125
 286	1	3	0.129534	-11.0059	38.039	38.4835
 287	1	3	-0.091829	-12.4683	38.4685	38.2487
 288	1	3	-0.19809	-10.4472	38.6573	39.7839
 289	1	4	0.228684	-9.88455	32.2328	31.3779
 290	1	5	0.042843	-12.1002	34.0831	35.3354
 291	1	4	0.232532	-11.3965	30.9868	36.0758
 292	1	5	0.035382	-11.3089	34.7317	32.9077
 293	1	5	0.041247	-8.69673	35.5209	33.0273
 294	1	5	0.06146	-11.803	36.2064	35.9948
 295	1	5	0.068364	-11.0088	36.8537	33.5733
 296	1	5	0.055799	-8.0413	35.5629	35.6219
 297	1	5	0.04347	-8.27074	33.8787	35.0995
 298	1	5	0.076294	-10.0103	34.4483	37.056
 299	1	5	0.058767	-11.0524	41.1818	37.546
 300	1	5	0.056756	-10.2488	41.8194	35.1377
 301	1	5	0.029415	-7.6414	42.5283	35.2864
 302	1	5	0.049793	-6.96644	42.5057	37.84
 303	1	5	0.063468	-7.29531	40.8433	37.2871
 304	1	5	-0.012542	-8.17239	44.5834	36.6785
 305	1	5	-0.012458	-8.90891	43.9882	38.9037
 306	1	5	0.013933	-8.95606	41.4723	39.2358
 307	1	5	0.014892	-8.92846	38.5609	32.5239
 308	1	5	0.04353	-10.874	40.853	33.1245
 309	1	5	0.048722	-11.3299	39.169	32.8023
 310	1	5	0.053734	-10.5434	40.1324	31.5351
 311	1	5	0.029251	-7.12887	40.1856	33.2164
 312	1	5	0.025572	-8.35104	41.4775	33.2514
 313	1	5	0.023611	-7.98299	40.6482	31.7306
 314	1	5	0.021405	-11.0102	36.951	38.6305
 315	1	5	0.009991	-12.858	38.0157	37.3292
 316	1	5	0.026343	-12.5566	39.5567	38.1536
 317	1	5	0.026093	-13.1048	38.1475	39.0827
 318	1	5	0.043016	-11.004	38.2917	40.6556
 319	1	5	0.050907	-10.5259	39.75	39.7711
 320	1	5	0.051325	-9.39178	38.3887	39.918
 321	1	1	-0.439951	-4.30069	19.879	34.0716
 322	1	1	0.043044	-3.72745	21.1333	33.7812
 323	1	1	0.126458	-3.77646	19.3956	31.7108
 324	1	1	0.016683	-3.28446	21.5119	32.5224
 325	1	1	0.121946	-4.21767	19.0143	32.9622
 326	1	2	0.005505	-3.20452	22.9821	32.878
 327	1	1	-0.445809	-3.3528	20.6953	31.3779
 328	1	2	0.001585	-3.70633	22.5508	34.327
 329	1	3	0.031166	-5.0637	23.2881	34.4799
 330	1	2	-0.048351	-3.99539	25.1348	33.2189
 331	1	1	-0.041771	-5.02091	26.2528	33.3151
 332	1	2	-0.107179	-4.47716	24.714	34.6794
 333	1	3	-0.106774	-5.61626	23.3287	33.0268
 334	1	3	-0.025838	-4.33856	23.8988	32.3474
 335	1	1	-0.051955	-5.42795	25.8934	34.5873
 336	1	1	-0.09124	-7.10001	27.5059	34.5192
 337	1	1	-0.099966	-6.69573	27.8608	33.244
 338	1	1	-0.017311	-5.69365	27.1969	32.5109
 339	1	1	-0.020587	-6.55131	26.4284	35.2472
 340	1	2	-0.042503	-7.86219	28.8044	33.0196
 341	1	2	0.004295	-8.32838	28.4038	34.4851
 342	1	3	0.00226	-9.71845	27.7638	34.2411
 343	1	3	-0.145049	-9.52735	27.0631	32.8763
 344	1	3	0.011953	-10.7532	28.8495	33.8202
 345	1	3	0.014921	-10.2834	29.2393	32.3529
 346	1	3	0.025749	-9.04021	28.3284	32.1331
 347	1	3	0.154129	-7.079	25.8778	36.5683
 348	1	3	-0.203386	-7.5736	26.9875	37.5228
 349	1	3	-0.113237	-8.17512	24.8155	36.3385
 350	1	3	0.129534	-5.42589	27.472	31.0345
 351	1	3	-0.091829	-6.18714	26.4773	30.1311
 352	1	3	-0.19809	-3.9192	27.4935	30.6944
 353	1	4	0.228684	-4.78357	19.6267	35.0102
 354	1	5	0.042843	-2.19914	23.4136	32.806
 355	1	4	0.232532	-3.15061	21.0339	30.3667
 356	1	5	0.035382	-3.01223	22.7067	35.1611
 357	1	5	0.041247	-5.738	22.913	35.259
 358	1	5	0.06146	-2.95985	25.4818	33.1186
 359	1	5	0.068364	-3.74159	24.789	35.4892
 360	1	5	0.055799	-6.48485	23.9919	32.9222
 361	1	5	0.04347	-5.8921	22.3355	32.6489
 362	1	5	0.076294	-4.37129	24.0442	31.262
 363	1	5	0.058767	-7.5843	29.8511	32.8538
 364	1	5	0.056756	-8.34078	29.2024	35.2351
 365	1	5	0.029415	-10.078	27.1123	35.0452
 366	1	5	0.049793	-10.4662	26.6635	32.4673
 367	1	5	0.063468	-8.78616	26.2533	32.898
 368	1	5	-0.012542	-11.8033	28.5304	33.8524
 369	1	5	-0.012458	-11.0851	29.1233	31.6117
 370	1	5	0.013933	-8.79242	28.1723	31.0765
 371	1	5	0.014892	-6.24526	25.3744	37.0753
 372	1	5	0.04353	-7.81709	26.5699	38.5076
 373	1	5	0.048722	-8.47376	27.4775	37.1338
 374	1	5	0.053734	-6.79813	27.7514	37.6611
 375	1	5	0.029251	-9.06153	25.254	35.8685
 376	1	5	0.025572	-8.48216	24.3623	37.2893
 377	1	5	0.023611	-7.81087	24.0147	35.6845
 378	1	5	0.021405	-5.81472	28.4731	30.8062
 379	1	5	0.009991	-6.04665	26.7267	29.0719
 380	1	5	0.026343	-7.26227	26.5022	30.3441
 381	1	5	0.026093	-5.84073	25.4508	30.2872
 382	1	5	0.043016	-3.76273	27.8122	29.6562
 383	1	5	0.050907	-3.46743	26.502	30.8134
 384	1	5	0.051325	-3.3867	28.196	31.3478
 385	1	1	-0.439951	-12.2958	14.1327	25.8644
 386	1	1	0.043044	-12.8109	14.9157	26.9154
 387	1	1	0.126458	-12.7377	12.2278	27.3523
 388	1	1	0.016683	-13.1777	14.3905	28.1522
 389	1	1	0.121946	-12.3878	12.7529	26.1223
 390	1	2	0.005505	-12.944	15.704	28.8838
 391	1	1	-0.445809	-13.0497	13.0225	28.4733
 392	1	2	0.001585	-12.5088	16.2921	27.4783
 393	1	3	0.031166	-11.0115	16.6536	27.6754
 394	1	2	-0.048351	-11.6841	17.3558	29.9553
 395	1	1	-0.041771	-10.4276	18.0169	30.5057
 396	1	2	-0.107179	-11.229	17.9226	28.5384
 397	1	3	-0.106774	-10.5165	15.6136	28.7193
 398	1	3	-0.025838	-11.6617	15.8147	29.7497
 399	1	1	-0.051955	-10.0237	18.4917	29.2682
 400	1	1	-0.09124	-7.9373	19.0446	30.1541
 401	1	1	-0.099966	-8.36372	18.6261	31.4042
 402	1	1	-0.017311	-9.58296	17.9593	31.6355
 403	1	1	-0.020587	-8.70826	18.9095	28.9784
 404	1	2	-0.042503	-6.97701	18.7006	32.018
 405	1	2	0.004295	-6.48014	19.1635	30.5848
 406	1	3	0.00226	-5.49004	18.0349	30.1905
 407	1	3	-0.145049	-6.13543	16.783	30.8286
 408	1	3	0.011953	-4.19486	18.097	31.0503
 409	1	3	0.014921	-4.6978	17.6513	32.4913
 410	1	3	0.025749	-6.21086	17.3775	32.2549
 411	1	3	0.154129	-8.21534	19.1584	27.554
 412	1	3	-0.203386	-7.2795	20.384	27.4558
 413	1	3	-0.113237	-7.54989	17.9084	26.9353
 414	1	3	0.129534	-9.89338	17.2578	32.9558
 415	1	3	-0.091829	-9.56299	15.7489	32.9137
 416	1	3	-0.19809	-11.3448	17.4959	33.4272
 417	1	4	0.228684	-11.7503	14.5453	25.0218
 418	1	5	0.042843	-13.8383	16.1361	29.3477
 419	1	4	0.232532	-13.0492	12.6435	29.4904
 420	1	5	0.035382	-13.1214	17.1024	27.0661
 421	1	5	0.041247	-10.4195	16.7673	26.7603
 422	1	5	0.06146	-12.6247	17.743	30.3648
 423	1	5	0.068364	-11.8759	18.676	28.0734
 424	1	5	0.055799	-9.52566	15.8512	29.1276
 425	1	5	0.04347	-10.4854	14.5971	28.3208
 426	1	5	0.076294	-11.6432	15.1857	30.644
 427	1	5	0.058767	-6.86926	19.4222	32.8348
 428	1	5	0.056756	-6.0521	20.1692	30.5138
 429	1	5	0.029415	-5.28071	17.9505	29.1203
 430	1	5	0.049793	-5.49223	15.8934	30.7706
 431	1	5	0.063468	-7.11467	16.5282	30.4026
 432	1	5	-0.012542	-3.36743	17.4734	30.6866
 433	1	5	-0.012458	-4.12932	16.7979	32.8838
 434	1	5	0.013933	-6.65269	16.7149	33.0077
 435	1	5	0.014892	-9.09573	19.3862	26.9388
 436	1	5	0.04353	-7.06519	20.6237	26.4069
 437	1	5	0.048722	-6.32406	20.1979	27.9605
 438	1	5	0.053734	-7.74582	21.2641	27.9162
 439	1	5	0.029251	-8.191	17.0266	27.0346
 440	1	5	0.025572	-6.59784	17.6781	27.4197
 441	1	5	0.023611	-7.35286	18.0647	25.8674
 442	1	5	0.021405	-9.23989	17.7006	33.719
 443	1	5	0.009991	-10.2948	15.1915	32.3244
 444	1	5	0.026343	-9.56289	15.3275	33.9265
 445	1	5	0.026093	-8.57585	15.5709	32.4731
 446	1	5	0.043016	-12.0663	17.012	32.7582
 447	1	5	0.050907	-11.5693	18.5696	33.4564
 448	1	5	0.051325	-11.4948	17.0909	34.4358
 449	1	1	-0.439951	-2.83184	6.14164	27.9409
 450	1	1	0.043044	-2.59784	7.52833	27.842
 451	1	1	0.126458	-2.19402	6.08657	25.5684
 452	1	1	0.016683	-2.27423	8.16398	26.6462
 453	1	1	0.121946	-2.49944	5.4529	26.7581
 454	1	2	0.005505	-2.81869	9.50622	27.1002
 455	1	1	-0.445809	-2.16718	7.48547	25.4154
 456	1	2	0.001585	-3.19469	8.78244	28.4605
 457	1	3	0.031166	-4.74404	8.87741	28.5152
 458	1	2	-0.048351	-4.45201	11.1151	27.4958
 459	1	1	-0.041771	-5.858	11.6861	27.5166
 460	1	2	-0.107179	-4.84105	10.3894	28.8596
 461	1	3	-0.106774	-5.16065	8.83405	27.0178
 462	1	3	-0.025838	-4.18784	9.94017	26.5156
 463	1	1	-0.051955	-6.19968	11.0539	28.7006
 464	1	1	-0.09124	-8.43854	11.5748	28.3307
 465	1	1	-0.099966	-8.09768	12.1708	27.1291
 466	1	1	-0.017311	-6.78893	12.2278	26.6093
 467	1	1	-0.020587	-7.52307	10.8903	29.1575
 468	1	2	-0.042503	-9.53952	12.3612	26.6937
 469	1	2	0.004295	-9.93394	11.7079	28.0877
 470	1	3	0.00226	-10.7461	10.4581	27.6743
 471	1	3	-0.145049	-10.018	10.0077	26.3878
 472	1	3	0.011953	-12.1196	10.8666	27.0605
 473	1	3	0.014921	-11.7083	11.4777	25.6563
 474	1	3	0.025749	-10.1547	11.3694	25.6685
 475	1	3	0.154129	-7.88207	10.0566	30.3843
 476	1	3	-0.203386	-8.97642	10.7172	31.2521
 477	1	3	-0.113237	-8.27506	8.61478	30.0052
 478	1	3	0.129534	-6.38885	12.8272	25.263
 479	1	3	-0.091829	-7.11879	14.1571	24.9694
 480	1	3	-0.19809	-6.57028	11.8329	24.1014
 481	1	4	0.228684	-3.33597	5.67599	28.7816
 482	1	5	0.042843	-2.07377	10.3089	27.1531
 483	1	4	0.232532	-2.19516	7.98158	24.4505
 484	1	5	0.035382	-2.68906	9.13481	29.3671
 485	1	5	0.041247	-5.24591	8.17772	29.1928
 486	1	5	0.06146	-3.65097	11.8629	27.5376
 487	1	5	0.068364	-4.28591	10.6848	29.7578
 488	1	5	0.055799	-6.21711	9.08654	26.8589
 489	1	5	0.04347	-4.97228	7.85931	26.557
 490	1	5	0.076294	-4.20373	10.1694	25.4444
 491	1	5	0.058767	-9.82594	13.4007	26.5198
 492	1	5	0.056756	-10.4555	12.3415	28.8102
 493	1	5	0.029415	-10.837	9.68638	28.4452
 494	1	5	0.049793	-10.5428	9.19435	25.8684
 495	1	5	0.063468	-8.97676	9.70057	26.5529
 496	1	5	-0.012542	-12.8398	10.044	26.9582
 497	1	5	-0.012458	-12.2017	10.9662	24.8192
 498	1	5	0.013933	-9.71598	11.4002	24.666
 499	1	5	0.014892	-6.9826	9.98716	31.01
 500	1	5	0.04353	-9.93954	10.7437	30.7291
 501	1	5	0.048722	-8.69623	11.7464	31.5095
 502	1	5	0.053734	-9.11671	10.1599	32.1865
 503	1	5	0.029251	-8.38985	7.99366	30.9022
 504	1	5	0.025572	-7.50443	8.1613	29.3756
 505	1	5	0.023611	-9.21714	8.58597	29.4505
 506	1	5	0.021405	-5.31783	13.0634	25.3134
 507	1	5	0.009991	-8.19153	13.9979	24.8074
 508	1	5	0.026343	-6.71046	14.6304	24.0677
 509	1	5	0.026093	-6.9961	14.8586	25.8041
 510	1	5	0.043016	-6.18057	12.2509	23.1649
 511	1	5	0.050907	-7.62458	11.5834	23.9496
 512	1	5	0.051325	-6.02806	10.9068	24.3094
 513	1	1	-0.439951	-14.4469	6.99768	22.1134
 514	1	1	0.043044	-13.6058	6.84628	23.2316
 515	1	1	0.126458	-15.9324	5.49207	23.3882
 516	1	1	0.016683	-13.9013	6.07226	24.3418
 517	1	1	0.121946	-15.6563	6.30323	22.3059
 518	1	2	0.005505	-12.5308	6.26136	24.9664
 519	1	1	-0.445809	-15.0627	5.28591	24.4773
 520	1	2	0.001585	-12.1832	7.12714	23.6717
 521	1	3	0.031166	-11.0566	6.30919	22.9793
 522	1	2	-0.048351	-10.2651	5.86804	25.2814
 523	1	1	-0.041771	-8.93136	5.16888	25.0782
 524	1	2	-0.107179	-9.92467	6.68614	23.9678
 525	1	3	-0.106774	-11.3795	4.83821	23.3655
 526	1	3	-0.025838	-11.5424	5.06965	24.8947
 527	1	1	-0.051955	-8.64724	5.86561	23.9108
 528	1	1	-0.09124	-6.35914	5.38176	24.1576
 529	1	1	-0.099966	-6.64206	4.71273	25.3425
 530	1	1	-0.017311	-7.9216	4.66742	25.9246
 531	1	1	-0.020587	-7.34035	6.10342	23.4462
 532	1	2	-0.042503	-5.24051	4.89066	25.8947
 533	1	2	0.004295	-4.90799	5.63297	24.5422
 534	1	3	0.00226	-3.80898	4.73396	23.9188
 535	1	3	-0.145049	-4.23275	3.31971	24.3757
 536	1	3	0.011953	-2.47603	4.85705	24.7198
 537	1	3	0.014921	-2.81642	4.12459	26.0872
 538	1	3	0.025749	-4.29209	3.67001	25.8793
 539	1	3	0.154129	-7.04262	7.19335	22.422
 540	1	3	-0.203386	-6.73098	8.53645	23.1098
 541	1	3	-0.113237	-5.91724	6.80212	21.4392
 542	1	3	0.129534	-8.11292	4.31445	27.3966
 543	1	3	-0.091829	-9.38426	3.47616	27.6518
 544	1	3	-0.19809	-8.08784	5.57555	28.2844
 545	1	4	0.228684	-14.1955	7.56334	21.222
 546	1	5	0.042843	-12.5381	6.78441	25.9301
 547	1	4	0.232532	-15.2597	4.61121	25.3042
 548	1	5	0.035382	-11.9494	8.1877	23.8224
 549	1	5	0.041247	-10.8751	6.51515	21.9171
 550	1	5	0.06146	-10.3572	6.41955	26.2239
 551	1	5	0.068364	-9.76286	7.76661	24.0532
 552	1	5	0.055799	-10.562	4.14618	23.1256
 553	1	5	0.04347	-12.2961	4.46524	22.89
 554	1	5	0.076294	-11.7858	4.19094	25.5045
 555	1	5	0.058767	-5.18821	5.45833	26.8277
 556	1	5	0.056756	-4.61805	6.68532	24.5829
 557	1	5	0.029415	-3.68344	4.83878	22.8342
 558	1	5	0.049793	-3.47949	2.55269	24.146
 559	1	5	0.063468	-5.1958	2.99424	23.9612
 560	1	5	-0.012542	-1.5971	4.42448	24.2239
 561	1	5	-0.012458	-2.11083	3.31348	26.3105
 562	1	5	0.013933	-4.59739	2.83976	26.5284
 563	1	5	0.014892	-7.94831	7.34195	21.8193
 564	1	5	0.04353	-6.60971	9.33204	22.3644
 565	1	5	0.048722	-5.80898	8.47596	23.6994
 566	1	5	0.053734	-7.54631	8.8247	23.7849
 567	1	5	0.029251	-4.94814	6.73649	21.9465
 568	1	5	0.025572	-5.82631	7.54927	20.6409
 569	1	5	0.023611	-6.12963	5.83215	20.9723
 570	1	5	0.021405	-7.26186	3.69127	27.7016
 571	1	5	0.009991	-10.2933	4.063	27.4772
 572	1	5	0.026343	-9.4084	3.12134	28.6898
 573	1	5	0.026093	-9.40708	2.59819	26.9941
 574	1	5	0.043016	-7.16834	6.14791	28.1113
 575	1	5	0.050907	-8.12422	5.30551	29.347
 576	1	5	0.051325	-8.94033	6.22991	28.0689
 577	1	1	-0.439951	-17.5471	-4.03215	16.459
 578	1	1	0.043044	-18.0351	-2.73182	16.3344
 579	1	1	0.126458	-16.2234	-3.52948	14.4307
 580	1	1	0.016683	-17.7052	-1.9017	15.3068
 581	1	1	0.121946	-16.6426	-4.45633	15.4428
 582	1	2	0.005505	-18.6816	-0.811681	15.7191
 583	1	1	-0.445809	-16.7704	-2.22691	14.327
 584	1	2	0.001585	-19.0591	-1.77673	16.9283
 585	1	3	0.031166	-18.7949	-0.901739	18.1926
 586	1	2	-0.048351	-16.8809	0.138424	17.0296
 587	1	1	-0.041771	-16.322	1.09149	18.0678
 588	1	2	-0.107179	-17.2425	-0.815097	18.2483
 589	1	3	-0.106774	-19.2023	0.496931	17.6493
 590	1	3	-0.025838	-18.2551	0.511236	16.4157
 591	1	1	-0.051955	-16.6258	0.263777	19.1352
 592	1	1	-0.09124	-16.1017	1.99902	20.6085
 593	1	1	-0.099966	-15.8339	2.83454	19.5354
 594	1	1	-0.017311	-16.0263	2.46339	18.1872
 595	1	1	-0.020587	-16.6277	0.696197	20.4808
 596	1	2	-0.042503	-15.7853	4.08717	20.3981
 597	1	2	0.004295	-16.0851	3.12982	21.6273
 598	1	3	0.00226	-17.4416	3.65514	22.1647
 599	1	3	-0.145049	-18.1548	4.10388	20.8675
 600	1	3	0.011953	-17.2789	5.04735	22.8448
 601	1	3	0.014921	-16.9689	6.00043	21.6093
 602	1	3	0.025749	-17.0122	5.03266	20.3953
 603	1	3	0.154129	-17.1203	-0.11012	21.6808
 604	1	3	-0.203386	-18.6423	0.0269186	21.9048
 605	1	3	-0.113237	-16.7044	-1.59569	21.6047
 606	1	3	0.129534	-15.9482	3.39281	16.9765
 607	1	3	-0.091829	-14.7855	4.40469	17.0769
 608	1	3	-0.19809	-17.2844	4.11603	16.6932
 609	1	4	0.228684	-17.8888	-4.68618	17.2542
 610	1	5	0.042843	-19.4967	-0.630279	15.0099
 611	1	4	0.232532	-16.5003	-1.54414	13.5277
 612	1	5	0.035382	-20.0915	-2.14311	16.9215
 613	1	5	0.041247	-19.3011	-1.23962	19.1014
 614	1	5	0.06146	-16.1341	-0.209575	16.3075
 615	1	5	0.068364	-16.7352	-1.78469	18.3019
 616	1	5	0.055799	-18.9988	1.30889	18.3596
 617	1	5	0.04347	-20.2614	0.538437	17.3613
 618	1	5	0.076294	-18.2804	1.40414	15.7815
 619	1	5	0.058767	-14.8245	4.61311	20.4056
 620	1	5	0.056756	-15.3082	3.05741	22.3964
 621	1	5	0.029415	-18.0045	2.94102	22.776
 622	1	5	0.049793	-19.0922	4.64457	21.0604
 623	1	5	0.063468	-18.368	3.28131	20.1725
 624	1	5	-0.012542	-18.1491	5.38523	23.423
 625	1	5	-0.012458	-17.6677	6.84545	21.5512
 626	1	5	0.013933	-17.2008	5.55157	19.4518
 627	1	5	0.014892	-16.6327	0.304974	22.5727
 628	1	5	0.04353	-18.9526	1.07695	21.883
 629	1	5	0.048722	-18.9262	-0.391101	22.8785
 630	1	5	0.053734	-19.2101	-0.503412	21.1367
 631	1	5	0.029251	-17.2145	-2.11156	20.7824
 632	1	5	0.025572	-16.9559	-2.11611	22.5372
 633	1	5	0.023611	-15.622	-1.68646	21.4483
 634	1	5	0.021405	-15.7397	2.76431	16.1007
 635	1	5	0.009991	-14.9497	5.12344	17.8887
 636	1	5	0.026343	-14.6847	4.97044	16.1422
 637	1	5	0.026093	-13.8364	3.8865	17.2628
 638	1	5	0.043016	-18.1318	3.42512	16.7485
 639	1	5	0.050907	-17.274	4.56288	15.6913
 640	1	5	0.051325	-17.467	4.91914	17.411
 641	1	1	-0.439951	-24.0448	-13.3853	13.3353
 642	1	1	0.043044	-23.224	-13.569	14.4523
 643	1	1	0.126458	-25.6627	-12.3714	14.9035
 644	1	1	0.016683	-23.5634	-13.1402	15.7065
 645	1	1	0.121946	-25.3148	-12.794	13.584
 646	1	2	0.005505	-22.1454	-13.2421	16.2486
 647	1	1	-0.445809	-24.7671	-12.494	15.9913
 648	1	2	0.001585	-21.7488	-13.7514	14.7946