pySIMM System Object

2822 atoms
3217 bonds
6708 angles
12174 dihedrals
172 impropers

5 atom types
9 bond types
18 angle types
19 dihedral types
2 improper types

-193.684865 193.684865 xlo xhi
-193.684865 193.684865 ylo yhi
-193.684865 193.684865 zlo zhi

Masses

   1	12.01	# ca
   2	12.01	# cy
   3	12.01	# c3
   4	1.008	# ha
   5	1.008	# hc

Pair Coeffs

   1	0.086	3.3996695084235347	# ca
   2	0.086	3.3996695084235347	# cy
   3	0.1094	3.3996695084235347	# c3
   4	0.015	2.59964245953351	# ha
   5	0.0157	2.649532787749369	# hc

Bond Coeffs

   1	300.9	1.5375	# c3,c3
   2	305.9	1.5319	# c3,cy
   3	345.8	1.086	# ca,ha
   4	321.0	1.5156	# c3,ca
   5	285.0	1.5562	# cy,cy
   6	330.6	1.0969	# c3,hc
   7	333.3	1.0949	# cy,hc
   8	321.2	1.5154	# ca,cy
   9	461.1	1.3984	# ca,ca

Angle Coeffs

   1	66.62	120.02	# ca,ca,ca
   2	61.4	116.81	# ca,cy,cy
   3	44.83	114.79	# cy,cy,hc
   4	46.43	110.14	# c3,cy,hc
   5	63.15	112.07	# c3,c3,ca
   6	46.34	109.8	# c3,c3,hc
   7	39.4	107.58	# hc,c3,hc
   8	48.18	119.88	# ca,ca,ha
   9	63.53	120.77	# c3,ca,ca
  10	60.66	118.7	# c3,cy,cy
  11	63.51	120.86	# ca,ca,cy
  12	62.73	112.39	# c3,c3,cy
  13	46.29	110.75	# cy,c3,hc
  14	46.8	110.47	# ca,c3,hc
  15	62.8	113.57	# c3,cy,ca
  16	62.86	111.51	# c3,c3,c3
  17	67.9	96.03	# cy,c3,cy
  18	45.97	114.53	# ca,cy,hc

Dihedral Coeffs

   1	1	0.16	3	0.0	# hc,c3,cy,cy
   2	1	0.16	3	0.0	# cy,c3,cy,hc
   3	1	0.16	3	0.0	# c3,c3,cy,hc
   4	1	0.15	3	0.0	# hc,c3,cy,hc
   5	1	3.625	2	180	# X,ca,ca,X
   6	1	0.15555555555555556	3	0	# X,cy,cy,X
   7	3	0.18	3	0	0.25	2	180	0.2	1	180	# c3,c3,c3,c3
   8	1	0.16	3	0	# hc,c3,c3,c3
   9	1	0.0	2	0.0	# ca,ca,cy,cy
  10	1	0.0	2	0.0	# ca,ca,cy,c3
  11	1	0.15555555555555556	3	0	# X,c3,c3,X
  12	1	0.0	2	0	# X,c3,ca,X
  13	3	0.38	3	180.0	0.0	2	0.0	1.15	1	0.0	# ca,ca,cy,hc
  14	3	0.18	3	0.0	0.25	2	180.0	0.2	1	180.0	# cy,c3,cy,cy
  15	1	0.16	3	0.0	# cy,c3,cy,ca
  16	1	0.16	3	0.0	# c3,c3,cy,ca
  17	1	0.16	3	0.0	# hc,c3,cy,ca
  18	1	0.15	3	0	# hc,c3,c3,hc
  19	3	0.18	3	0.0	0.25	2	180.0	0.2	1	180.0	# c3,c3,cy,cy

Improper Coeffs

   1	1.1	-1	2	# ca,ca,ca,c3
   2	1.1	-1	2	# ca,X,X,ha

Atoms

   1	1	1	-0.439951	14.6283	-40.8083	-3.86942
   2	1	1	0.043044	15.3133	-40.439	-5.04343
   3	1	1	0.126458	15.3592	-43.089	-4.41193
   4	1	1	0.016683	15.873	-41.3678	-5.91664
   5	1	1	0.121946	14.7967	-42.1666	-3.54618
   6	1	2	0.005505	15.7403	-40.4574	-7.12318
   7	1	1	-0.445809	15.8114	-42.7585	-5.70174
   8	1	2	0.001585	15.1087	-39.398	-6.12872
   9	1	3	0.031166	13.6621	-39.2103	-6.65405
  10	1	2	-0.048351	14.6445	-39.4507	-8.91548
  11	1	1	-0.041771	13.4729	-39.1213	-9.83013
  12	1	2	-0.107179	14.0233	-38.3796	-7.91433
  13	1	3	-0.106774	13.3077	-40.6065	-7.2417
  14	1	3	-0.025838	14.5867	-40.7767	-8.11114
  15	1	1	-0.051955	12.9379	-38.188	-8.95752
  16	1	1	-0.09124	11.0072	-38.0651	-10.2534
  17	1	1	-0.099966	11.5487	-38.9853	-11.1355
  18	1	1	-0.017311	12.7649	-39.6645	-10.9243
  19	1	1	-0.020587	11.6258	-37.6828	-9.04367
  20	1	2	-0.042503	10.2575	-39.1542	-11.9164
  21	1	2	0.004295	9.63301	-38.1009	-10.9081
  22	1	3	0.00226	8.49871	-38.9112	-10.2381
  23	1	3	-0.145049	9.07734	-40.3394	-10.166
  24	1	3	0.011953	7.37809	-39.1217	-11.2881
  25	1	3	0.014921	7.99479	-40.1574	-12.2689
  26	1	3	0.025749	9.4009	-40.4173	-11.6724
  27	1	3	0.154129	10.9895	-36.8466	-7.93608
  28	1	3	-0.203386	10.1496	-35.6729	-8.48653
  29	1	3	-0.113237	10.1594	-37.7112	-6.96222
  30	1	3	0.129534	13.2093	-40.8468	-11.7822
  31	1	3	-0.091829	12.7767	-42.1983	-11.1719
  32	1	3	-0.19809	14.7256	-40.8325	-12.0778
  33	1	4	0.228684	13.9312	-40.1552	-3.3548
  34	1	5	0.042843	16.6887	-40.1862	-7.60191
  35	1	4	0.232532	15.9533	-43.4915	-6.48916
  36	1	5	0.035382	15.6623	-38.4635	-5.97982
  37	1	5	0.041247	12.9473	-38.7666	-5.95174
  38	1	5	0.06146	15.6315	-39.2217	-9.33529
  39	1	5	0.068364	14.6227	-37.4846	-7.70868
  40	1	5	0.055799	12.3856	-40.5965	-7.83705
  41	1	5	0.04347	13.2089	-41.3814	-6.47093
  42	1	5	0.076294	14.6888	-41.71	-8.67378
  43	1	5	0.058767	10.2959	-38.8572	-12.9703
  44	1	5	0.056756	9.28753	-37.157	-11.3443
  45	1	5	0.029415	8.13005	-38.5076	-9.28955
  46	1	5	0.049793	8.3356	-41.0857	-9.84916
  47	1	5	0.063468	9.96241	-40.4224	-9.52148
  48	1	5	-0.012542	7.10855	-38.1853	-11.7937
  49	1	5	-0.012458	8.04851	-39.7718	-13.2953
  50	1	5	0.013933	9.85106	-41.3595	-12.0057
  51	1	5	0.014892	11.8044	-36.4016	-7.3501
  52	1	5	0.04353	10.7415	-35.0692	-9.1859
  53	1	5	0.048722	9.81884	-35.0185	-7.6705
  54	1	5	0.053734	9.25754	-36.0329	-9.01246
  55	1	5	0.029251	10.749	-38.5525	-6.5819
  56	1	5	0.025572	9.27133	-38.123	-7.44942
  57	1	5	0.023611	9.8271	-37.1151	-6.10318
  58	1	5	0.021405	12.7001	-40.7588	-12.7509
  59	1	5	0.009991	12.9885	-43.0217	-11.8655
  60	1	5	0.026343	11.7029	-42.2071	-10.956
  61	1	5	0.026093	13.3033	-42.4032	-10.2358
  62	1	5	0.043016	15.3124	-41.0119	-11.1693
  63	1	5	0.050907	15.0279	-39.8648	-12.4976
  64	1	5	0.051325	14.9843	-41.6123	-12.805
  65	1	1	-0.439951	21.6857	-47.3834	3.27964
  66	1	1	0.043044	20.4066	-47.5868	3.83476
  67	1	1	0.126458	21.7581	-45.3973	4.72628
  68	1	1	0.016683	19.8005	-46.6839	4.70449
  69	1	1	0.121946	22.3599	-46.2948	3.86455
  70	1	2	0.005505	18.3944	-47.1225	4.33285
  71	1	1	-0.445809	20.4064	-45.4779	5.11219
  72	1	2	0.001585	19.0847	-48.1483	3.34031
  73	1	3	0.031166	18.6061	-47.6897	1.9366
  74	1	2	-0.048351	16.4558	-47.1872	3.04533
  75	1	1	-0.041771	15.5462	-46.8266	1.88503
  76	1	2	-0.107179	17.147	-48.2138	2.04253
  77	1	3	-0.106774	18.4407	-46.1519	2.09558
  78	1	3	-0.025838	17.5883	-46.1848	3.39595
  79	1	1	-0.051955	16.1414	-47.7212	1.01061
  80	1	1	-0.09124	14.9716	-46.7545	-0.757478
  81	1	1	-0.099966	14.4002	-45.8403	0.113043
  82	1	1	-0.017311	14.7112	-45.7639	1.48701
  83	1	1	-0.020587	15.9543	-47.694	-0.388682
  84	1	2	-0.042503	13.8481	-44.9689	-1.00648
  85	1	2	0.004295	14.4988	-46.0246	-2.00252
  86	1	3	0.00226	15.5159	-45.1724	-2.79938
  87	1	3	-0.145049	16.004	-44.1598	-1.73475
  88	1	3	0.011953	14.678	-44.2734	-3.75134
  89	1	3	0.014921	14.0326	-43.2194	-2.76344
  90	1	3	0.025749	14.5846	-43.6568	-1.37754
  91	1	3	0.154129	16.69	-48.559	-1.41007
  92	1	3	-0.203386	18.0271	-47.9347	-1.8567
  93	1	3	-0.113237	16.8972	-50.0088	-0.91972
  94	1	3	0.129534	14.225	-44.688	2.45512
  95	1	3	-0.091829	12.7454	-44.3083	2.22552
  96	1	3	-0.19809	15.1243	-43.4359	2.43758
  97	1	4	0.228684	22.0536	-47.9149	2.40781
  98	1	5	0.042843	17.8122	-47.5459	5.15967
  99	1	4	0.232532	19.8612	-44.6505	5.55472
 100	1	5	0.035382	18.934	-49.215	3.54306
 101	1	5	0.041247	19.2073	-48.0409	1.09233
 102	1	5	0.06146	15.9405	-47.6107	3.91579
 103	1	5	0.068364	17.067	-49.2789	2.29033
 104	1	5	0.055799	17.9169	-45.6886	1.24936
 105	1	5	0.04347	19.396	-45.6346	2.22857
 106	1	5	0.076294	17.2888	-45.2209	3.82213
 107	1	5	0.058767	12.7572	-44.8748	-1.04462
 108	1	5	0.056756	13.806	-46.5796	-2.64493
 109	1	5	0.029415	16.3077	-45.7339	-3.30768
 110	1	5	0.049793	16.662	-43.378	-2.13527
 111	1	5	0.063468	16.526	-44.6284	-0.890248
 112	1	5	-0.012542	13.9497	-44.796	-4.38544
 113	1	5	-0.012458	12.9398	-43.145	-2.84119
 114	1	5	0.013933	14.5487	-42.8614	-0.626996
 115	1	5	0.014892	16.0555	-48.6192	-2.30406
 116	1	5	0.04353	17.8868	-46.897	-2.17524
 117	1	5	0.048722	18.4537	-48.4936	-2.69874
 118	1	5	0.053734	18.7584	-47.9405	-1.04469
 119	1	5	0.029251	17.5978	-50.049	-0.0771253
 120	1	5	0.025572	17.3028	-50.6345	-1.72469
 121	1	5	0.023611	15.9449	-50.4484	-0.597353
 122	1	5	0.021405	14.287	-45.1081	3.4676
 123	1	5	0.009991	12.6083	-43.7956	1.26582
 124	1	5	0.026343	12.3914	-43.6378	3.01856
 125	1	5	0.026093	12.1109	-45.2035	2.23141
 126	1	5	0.043016	15.0225	-42.881	1.50127
 127	1	5	0.050907	16.1753	-43.7173	2.54638
 128	1	5	0.051325	14.8644	-42.759	3.26082
 129	1	1	-0.439951	18.3492	-37.5383	-4.61025
 130	1	1	0.043044	18.2564	-38.9304	-4.41681
 131	1	1	0.126458	19.4576	-38.1367	-6.72293
 132	1	1	0.016683	18.8256	-39.8624	-5.2786
 133	1	1	0.121946	18.8919	-37.2105	-5.86697
 134	1	2	0.005505	18.9047	-40.9431	-4.21588
 135	1	1	-0.445809	19.5529	-39.5106	-6.43273
 136	1	2	0.001585	18.254	-39.8793	-3.23182
 137	1	3	0.031166	19.3411	-39.665	-2.14488
 138	1	2	-0.048351	19.7934	-42.0785	-2.39869
 139	1	1	-0.041771	20.7906	-42.3491	-1.28802
 140	1	2	-0.107179	19.1417	-41.0209	-1.41291
 141	1	3	-0.106774	20.6714	-39.871	-2.92171
 142	1	3	-0.025838	20.2973	-41.2235	-3.59064
 143	1	1	-0.051955	20.2182	-41.4305	-0.419759
 144	1	1	-0.09124	21.2647	-42.5038	1.38436
 145	1	1	-0.099966	21.8463	-43.4167	0.513232
 146	1	1	-0.017311	21.5368	-43.4623	-0.861156
 147	1	1	-0.020587	20.3283	-41.5331	0.981749
 148	1	2	-0.042503	22.09	-44.444	1.60639
 149	1	2	0.004295	21.4152	-43.4108	2.59274
 150	1	3	0.00226	22.543	-43.0959	3.60394
 151	1	3	-0.145049	23.8077	-43.1624	2.71806
 152	1	3	0.011953	22.8195	-44.3274	4.51946
 153	1	3	0.014921	23.5082	-45.358	3.52679
 154	1	3	0.025749	23.5249	-44.5816	2.17573
 155	1	3	0.154129	19.4095	-40.8381	1.98118
 156	1	3	-0.203386	19.1395	-39.3602	1.62365
 157	1	3	-0.113237	18.0906	-41.6167	2.15561
 158	1	3	0.129534	21.7778	-44.6646	-1.76762
 159	1	3	-0.091829	20.6756	-45.728	-1.58565
 160	1	3	-0.19809	23.1821	-45.2808	-1.58406
 161	1	4	0.228684	18.151	-36.8081	-3.83234
 162	1	5	0.042843	18.3184	-41.8434	-4.432
 163	1	4	0.232532	20.2128	-40.1921	-6.95957
 164	1	5	0.035382	17.2603	-40.1128	-2.83342
 165	1	5	0.041247	19.2598	-38.754	-1.5397
 166	1	5	0.06146	19.1969	-42.9484	-2.69882
 167	1	5	0.068364	18.1134	-41.1929	-1.07448
 168	1	5	0.055799	21.5436	-39.9472	-2.25982
 169	1	5	0.04347	20.8639	-39.0756	-3.65026
 170	1	5	0.076294	21.051	-41.6794	-4.24439
 171	1	5	0.058767	21.6024	-45.4087	1.44706
 172	1	5	0.056756	20.4744	-43.6871	3.07696
 173	1	5	0.029415	22.4211	-42.1532	4.1518
 174	1	5	0.049793	24.7394	-43.1052	3.29869
 175	1	5	0.063468	23.8399	-42.3922	1.93634
 176	1	5	-0.012542	23.4431	-44.1179	5.39858
 177	1	5	-0.012458	24.4936	-45.6848	3.8843
 178	1	5	0.013933	24.2741	-44.9499	1.46428
 179	1	5	0.014892	19.9158	-40.838	2.95548
 180	1	5	0.04353	18.5203	-39.2745	0.723598
 181	1	5	0.048722	20.0817	-38.826	1.44791
 182	1	5	0.053734	18.6114	-38.8562	2.4425
 183	1	5	0.029251	18.2954	-42.6517	2.45508
 184	1	5	0.025572	17.5174	-41.64	1.22086
 185	1	5	0.023611	17.4649	-41.1564	2.93041
 186	1	5	0.021405	21.7208	-44.3154	-2.80702
 187	1	5	0.009991	20.6995	-46.1604	-0.578325
 188	1	5	0.026343	20.7997	-46.5429	-2.30964
 189	1	5	0.026093	19.6846	-45.2837	-1.7404
 190	1	5	0.043016	23.2803	-45.7647	-0.605709
 191	1	5	0.050907	23.9571	-44.5084	-1.66635
 192	1	5	0.051325	23.3747	-46.0383	-2.35386
 193	1	1	-0.439951	29.8792	-32.5295	-7.12904
 194	1	1	0.043044	29.4418	-32.843	-5.82735
 195	1	1	0.126458	29.2763	-30.2217	-6.53437
 196	1	1	0.016683	28.8587	-31.9128	-4.97138
 197	1	1	0.121946	29.859	-31.1454	-7.38114
 198	1	2	0.005505	28.1031	-32.9683	-4.18292
 199	1	1	-0.445809	28.6431	-30.5655	-5.32491
 200	1	2	0.001585	28.7625	-34.0267	-5.16384
 201	1	3	0.031166	27.5514	-34.6516	-5.90801
 202	1	2	-0.048351	26.3826	-34.4662	-3.73719
 203	1	1	-0.041771	25.077	-35.2009	-3.97723
 204	1	2	-0.107179	27.034	-35.5247	-4.73395
 205	1	3	-0.106774	26.5188	-33.4908	-5.96202
 206	1	3	-0.025838	26.5818	-33.1052	-4.45679
 207	1	1	-0.051955	25.6381	-36.1204	-4.84721
 208	1	1	-0.09124	23.5127	-36.9204	-5.35309
 209	1	1	-0.099966	22.9517	-35.9914	-4.49404
 210	1	1	-0.017311	23.6922	-34.996	-3.82226
 211	1	1	-0.020587	24.8822	-36.9757	-5.67781
 212	1	2	-0.042503	21.5271	-36.3073	-4.92488
 213	1	2	0.004295	22.1742	-37.3734	-5.90767
 214	1	3	0.00226	21.7398	-36.8715	-7.3071
 215	1	3	-0.145049	21.7432	-35.336	-7.1222
 216	1	3	0.011953	20.2123	-37.0889	-7.52429
 217	1	3	0.014921	19.5612	-36.0255	-6.5424
 218	1	3	0.025749	20.8021	-35.3408	-5.89559
 219	1	3	0.154129	25.4297	-37.8431	-6.80796
 220	1	3	-0.203386	25.5299	-37.0568	-8.13386
 221	1	3	-0.113237	26.7795	-38.5048	-6.45302
 222	1	3	0.129534	23.1108	-33.8249	-3.03525
 223	1	3	-0.091829	21.8757	-34.2255	-2.19795
 224	1	3	-0.19809	22.7945	-32.621	-3.95022
 225	1	4	0.228684	30.0781	-33.2745	-7.89272
 226	1	5	0.042843	28.3798	-33.0323	-3.12401
 227	1	4	0.232532	27.962	-29.9055	-4.79719
 228	1	5	0.035382	29.4476	-34.758	-4.71929
 229	1	5	0.041247	27.7795	-35.1617	-6.84989
 230	1	5	0.06146	26.7284	-34.4825	-2.6966
 231	1	5	0.068364	27.7854	-36.204	-4.31414
 232	1	5	0.055799	25.521	-33.8222	-6.27793
 233	1	5	0.04347	26.8332	-32.6755	-6.62166
 234	1	5	0.076294	25.9526	-32.27	-4.1284
 235	1	5	0.058767	20.8833	-36.6911	-4.1282
 236	1	5	0.056756	21.9398	-38.4267	-5.72786
 237	1	5	0.029415	22.3528	-37.2349	-8.13986
 238	1	5	0.049793	21.3187	-34.8011	-7.98357
 239	1	5	0.063468	22.7369	-34.9189	-6.91174
 240	1	5	-0.012542	19.8702	-36.9623	-8.55993
 241	1	5	-0.012458	18.8771	-35.3431	-7.06388
 242	1	5	0.013933	20.5777	-34.3509	-5.48527
 243	1	5	0.014892	24.7144	-38.6592	-6.97412
 244	1	5	0.04353	26.2704	-36.2542	-8.06781
 245	1	5	0.048722	24.5682	-36.5992	-8.39118
 246	1	5	0.053734	25.8206	-37.7202	-8.95773
 247	1	5	0.029251	27.0729	-39.2224	-7.22931
 248	1	5	0.025572	26.7062	-39.047	-5.50188
 249	1	5	0.023611	27.5794	-37.7604	-6.36443
 250	1	5	0.021405	23.878	-33.4925	-2.32373
 251	1	5	0.009991	21.0224	-34.4794	-2.83809
 252	1	5	0.026343	21.5699	-33.4003	-1.54276
 253	1	5	0.026093	22.1019	-35.0932	-1.56545
 254	1	5	0.043016	21.9838	-32.8525	-4.64742
 255	1	5	0.050907	23.6708	-32.338	-4.54388
 256	1	5	0.051325	22.4918	-31.7503	-3.35543
 257	1	1	-0.439951	22.0155	-26.1531	-14.9311
 258	1	1	0.043044	21.926	-27.5385	-14.6885
 259	1	1	0.126458	23.1482	-26.8264	-17.0068
 260	1	1	0.016683	22.5045	-28.4995	-15.512
 261	1	1	0.121946	22.5666	-25.8716	-16.1956
 262	1	2	0.005505	22.5727	-29.5423	-14.4133
 263	1	1	-0.445809	23.2481	-28.1876	-16.667
 264	1	2	0.001585	21.9142	-28.4467	-13.4712
 265	1	3	0.031166	22.9943	-28.1945	-12.3845
 266	1	2	-0.048351	23.4581	-30.6198	-12.5583
 267	1	1	-0.041771	24.4382	-30.8627	-11.4257
 268	1	2	-0.107179	22.7976	-29.5252	-11.6074
 269	1	3	-0.106774	24.3312	-28.4241	-13.1453
 270	1	3	-0.025838	23.9626	-29.7989	-13.7741
 271	1	1	-0.051955	23.8636	-29.9155	-10.5974
 272	1	1	-0.09124	25.6517	-30.1205	-9.12359
 273	1	1	-0.099966	26.2322	-31.0595	-9.96061
 274	1	1	-0.017311	25.7117	-31.4261	-11.2196
 275	1	1	-0.020587	24.4751	-29.4058	-9.43565
 276	1	2	-0.042503	27.5238	-31.1234	-9.16275
 277	1	2	0.004295	26.8569	-30.0519	-8.1988
 278	1	3	0.00226	27.8186	-28.8427	-8.30557
 279	1	3	-0.145049	28.2785	-28.9168	-9.77996
 280	1	3	0.011953	29.177	-29.1483	-7.60648
 281	1	3	0.014921	29.843	-30.2109	-8.57807
 282	1	3	0.025749	28.7737	-30.3788	-9.6972
 283	1	3	0.154129	23.9108	-28.223	-8.6535
 284	1	3	-0.203386	24.0201	-28.4157	-7.12434
 285	1	3	-0.113237	24.5498	-26.8873	-9.09163
 286	1	3	0.129534	26.4072	-32.3038	-12.2566
 287	1	3	-0.091829	27.1339	-33.5104	-11.6217
 288	1	3	-0.19809	27.3644	-31.4875	-13.1531
 289	1	4	0.228684	21.7932	-25.3934	-14.1888
 290	1	5	0.042843	21.9874	-30.4488	-14.6071
 291	1	4	0.232532	23.9088	-28.8866	-17.1698
 292	1	5	0.035382	20.9165	-28.6673	-13.074
 293	1	5	0.041247	22.8994	-27.2643	-11.8124
 294	1	5	0.06146	22.8431	-31.4888	-12.8219
 295	1	5	0.068364	21.7679	-29.7071	-11.2773
 296	1	5	0.055799	25.1986	-28.4799	-12.4747
 297	1	5	0.04347	24.5294	-27.651	-13.897
 298	1	5	0.076294	24.7131	-30.2713	-14.4183
 299	1	5	0.058767	27.7487	-32.106	-8.7388
 300	1	5	0.056756	26.659	-30.3617	-7.16869
 301	1	5	0.029415	27.3911	-27.8805	-8.00532
 302	1	5	0.049793	29.0839	-28.2057	-10.0124
 303	1	5	0.063468	27.4659	-28.7683	-10.5033
 304	1	5	-0.012542	29.82	-28.2729	-7.44584
 305	1	5	-0.012458	30.8329	-29.8905	-8.92915
 306	1	5	0.013933	29.1904	-30.7759	-10.6283
 307	1	5	0.014892	22.8399	-28.155	-8.88558
 308	1	5	0.04353	25.0646	-28.3936	-6.79219
 309	1	5	0.048722	23.5835	-29.3766	-6.8241
 310	1	5	0.053734	23.4818	-27.6193	-6.59571
 311	1	5	0.029251	24.4636	-26.7481	-10.175
 312	1	5	0.025572	25.6128	-26.8493	-8.83589
 313	1	5	0.023611	24.0529	-26.0409	-8.6013
 314	1	5	0.021405	25.6299	-32.7163	-12.9132
 315	1	5	0.009991	26.4525	-34.0772	-10.9746
 316	1	5	0.026343	27.9923	-33.189	-11.02
 317	1	5	0.026093	27.5047	-34.19	-12.3991
 318	1	5	0.043016	27.7558	-32.1082	-13.9686
 319	1	5	0.050907	28.2151	-31.104	-12.5825
 320	1	5	0.051325	26.8497	-30.6286	-13.5977
 321	1	1	-0.439951	33.1373	-21.0665	-18.3884
 322	1	1	0.043044	32.7854	-21.1731	-17.0283
 323	1	1	0.126458	32.3738	-18.7407	-18.1725
 324	1	1	0.016683	32.1706	-20.1479	-16.3135
 325	1	1	0.121946	32.9939	-19.7547	-18.876
 326	1	2	0.005505	31.5316	-21.098	-15.3154
 327	1	1	-0.445809	31.8274	-18.9059	-16.8861
 328	1	2	0.001585	32.2236	-22.2647	-16.1363
 329	1	3	0.031166	31.0289	-23.0809	-16.6974
 330	1	2	-0.048351	29.9269	-22.5971	-14.5291
 331	1	1	-0.041771	28.6666	-23.4492	-14.5834
 332	1	2	-0.107179	30.619	-23.7619	-15.3658
 333	1	3	-0.106774	29.9172	-22.0119	-16.8951
 334	1	3	-0.025838	30.0139	-21.3717	-15.481
 335	1	1	-0.051955	29.2686	-24.4539	-15.3234
 336	1	1	-0.09124	27.1859	-25.4213	-15.7198
 337	1	1	-0.099966	26.5908	-24.4467	-14.9358
 338	1	1	-0.017311	27.27	-23.3257	-14.4195
 339	1	1	-0.020587	28.5596	-25.4352	-16.0445
 340	1	2	-0.042503	25.1797	-24.8429	-15.3301
 341	1	2	0.004295	25.8566	-25.9512	-16.2418
 342	1	3	0.00226	25.3952	-25.5444	-17.6668
 343	1	3	-0.145049	25.3597	-24.0009	-17.5793
 344	1	3	0.011953	23.873	-25.8062	-17.8649
 345	1	3	0.014921	23.1986	-24.7068	-16.9398
 346	1	3	0.025749	24.4252	-23.954	-16.3478
 347	1	3	0.154129	29.2347	-26.3677	-17.048
 348	1	3	-0.203386	28.699	-27.8144	-16.964
 349	1	3	-0.113237	29.1552	-25.832	-18.4946
 350	1	3	0.129534	26.541	-22.1447	-13.782
 351	1	3	-0.091829	26.2751	-21.0036	-14.7888
 352	1	3	-0.19809	27.2608	-21.6146	-12.522
 353	1	4	0.228684	33.3671	-21.9185	-19.0198
 354	1	5	0.042843	31.8558	-20.9599	-14.2772
 355	1	4	0.232532	31.1229	-18.2105	-16.4409
 356	1	5	0.035382	32.9769	-22.8641	-15.6119
 357	1	5	0.041247	31.2491	-23.7377	-17.5467
 358	1	5	0.06146	30.3145	-22.414	-13.5198
 359	1	5	0.068364	31.4289	-24.314	-14.8742
 360	1	5	0.055799	28.932	-22.4509	-17.0989
 361	1	5	0.04347	30.1479	-21.3047	-17.6986
 362	1	5	0.076294	29.3566	-20.5226	-15.2721
 363	1	5	0.058767	24.5536	-25.1931	-14.5037
 364	1	5	0.056756	25.6444	-26.9954	-15.9927
 365	1	5	0.029415	26.0015	-25.9439	-18.485
 366	1	5	0.049793	24.9166	-23.5321	-18.4695
 367	1	5	0.063468	26.3442	-23.5473	-17.4052
 368	1	5	-0.012542	23.5256	-25.7448	-18.9048
 369	1	5	-0.012458	22.493	-24.0743	-17.4944
 370	1	5	0.013933	24.182	-22.9466	-15.9919
 371	1	5	0.014892	30.3	-26.4126	-16.7862
 372	1	5	0.04353	29.2941	-28.4842	-17.597
 373	1	5	0.048722	27.6561	-27.8734	-17.2971
 374	1	5	0.053734	28.7524	-28.1862	-15.9329
 375	1	5	0.029251	28.1361	-25.8825	-18.886
 376	1	5	0.025572	29.7984	-26.422	-19.1593
 377	1	5	0.023611	29.4803	-24.7875	-18.5491
 378	1	5	0.021405	25.5591	-22.5084	-13.4517
 379	1	5	0.009991	25.5935	-20.2602	-14.3569
 380	1	5	0.026343	25.8197	-21.3853	-15.709
 381	1	5	0.026093	27.1978	-20.4878	-15.0654
 382	1	5	0.043016	26.6461	-20.861	-12.0141
 383	1	5	0.050907	28.2211	-21.1508	-12.7763
 384	1	5	0.051325	27.4497	-22.4309	-11.8134
 385	1	1	-0.439951	23.8918	-16.8618	-27.0518
 386	1	1	0.043044	24.748	-17.7934	-26.4338
 387	1	1	0.126458	24.5882	-17.9484	-29.1454
 388	1	1	0.016683	25.3881	-18.8141	-27.1266
 389	1	1	0.121946	23.9447	-16.9333	-28.4572
 390	1	2	0.005505	25.5305	-19.6933	-25.8989
 391	1	1	-0.445809	25.253	-19.0152	-28.513
 392	1	2	0.001585	24.8024	-18.5277	-25.1052
 393	1	3	0.031166	25.8724	-18.0513	-24.0863
 394	1	2	-0.048351	26.5162	-20.439	-23.9287
 395	1	1	-0.041771	27.5192	-20.4526	-22.7851
 396	1	2	-0.107179	25.7835	-19.2717	-23.1296
 397	1	3	-0.106774	27.2152	-18.2878	-24.8342
 398	1	3	-0.025838	26.9412	-19.7591	-25.258
 399	1	1	-0.051955	26.8809	-19.4379	-22.0922
 400	1	1	-0.09124	28.6679	-19.3184	-20.6027
 401	1	1	-0.099966	29.2985	-20.3422	-21.2892
 402	1	1	-0.017311	28.8217	-20.9074	-22.4876
 403	1	1	-0.020587	27.4551	-18.7271	-21.0192
 404	1	2	-0.042503	30.6059	-20.1877	-20.5347
 405	1	2	0.004295	29.8874	-19.0151	-19.7414
 406	1	3	0.00226	30.7621	-17.7832	-20.0861
 407	1	3	-0.145049	31.1841	-18.0759	-21.5449
 408	1	3	0.011953	32.1605	-17.8761	-19.4044
 409	1	3	0.014921	32.8716	-19.0429	-20.2118
 410	1	3	0.025749	31.7831	-19.4685	-21.2397
 411	1	3	0.154129	26.82	-17.4735	-20.4232
 412	1	3	-0.203386	26.951	-17.4154	-18.8848
 413	1	3	-0.113237	27.3672	-16.1846	-21.0742
 414	1	3	0.129534	29.6504	-21.8735	-23.3303
 415	1	3	-0.091829	30.428	-21.1462	-24.4491
 416	1	3	-0.19809	28.8082	-23.0345	-23.9043
 417	1	4	0.228684	23.1672	-16.2617	-26.5109
 418	1	5	0.042843	25.0309	-20.6663	-25.9739
 419	1	4	0.232532	25.4977	-19.9474	-29.0121
 420	1	5	0.035382	23.8239	-18.7334	-24.6559
 421	1	5	0.041247	25.7138	-17.06	-23.6462
 422	1	5	0.06146	25.9605	-21.3754	-24.0586
 423	1	5	0.068364	24.7724	-19.4805	-22.76
 424	1	5	0.055799	28.0904	-18.1897	-24.1786
 425	1	5	0.04347	27.3503	-17.6146	-25.6906
 426	1	5	0.076294	27.7109	-20.259	-25.8548
 427	1	5	0.058767	30.9098	-21.0683	-19.9613
 428	1	5	0.056756	29.7402	-19.1582	-18.6668
 429	1	5	0.029415	30.2788	-16.813	-19.9337
 430	1	5	0.049793	31.9308	-17.364	-21.9243
 431	1	5	0.063468	30.3431	-18.1026	-22.2501
 432	1	5	-0.012542	32.7433	-16.9457	-19.4219
 433	1	5	-0.012458	33.8238	-18.7218	-20.6543
 434	1	5	0.013933	32.1927	-19.9935	-22.1099
 435	1	5	0.014892	25.7455	-17.511	-20.6457
 436	1	5	0.04353	26.3685	-16.5789	-18.4789
 437	1	5	0.048722	27.9945	-17.2789	-18.5776
 438	1	5	0.053734	26.5765	-18.3412	-18.4301
 439	1	5	0.029251	27.2751	-16.2256	-22.165
 440	1	5	0.025572	28.424	-16.0333	-20.8365
 441	1	5	0.023611	26.8122	-15.3067	-20.7207
 442	1	5	0.021405	30.399	-22.3271	-22.6675
 443	1	5	0.009991	29.7541	-20.7412	-25.2091
 444	1	5	0.026343	31.1224	-21.8344	-24.947
 445	1	5	0.026093	31.0114	-20.3119	-24.0448
 446	1	5	0.043016	28.0911	-22.6764	-24.6523
 447	1	5	0.050907	28.2499	-23.538	-23.105
 448	1	5	0.051325	29.4543	-23.7787	-24.3864
 449	1	1	-0.439951	24.2774	-12.4762	-39.3071
 450	1	1	0.043044	24.8794	-11.6735	-38.3172
 451	1	1	0.126458	22.3378	-10.993	-39.0218
 452	1	1	0.016683	24.2047	-10.6588	-37.644
 453	1	1	0.121946	23.0078	-12.0013	-39.6892
 454	1	2	0.005505	25.1044	-10.7395	-36.4212
 455	1	1	-0.445809	22.8542	-10.3354	-37.8881
 456	1	2	0.001585	25.8713	-11.8966	-37.188
 457	1	3	0.031166	25.6526	-13.1457	-36.2929
 458	1	2	-0.048351	25.8659	-11.5842	-34.383
 459	1	1	-0.041771	25.8774	-12.5162	-33.1817
 460	1	2	-0.107179	26.6328	-12.7488	-35.1545
 461	1	3	-0.106774	24.2561	-12.894	-35.6567
 462	1	3	-0.025838	24.5289	-11.4443	-35.1635
 463	1	1	-0.051955	26.5416	-13.5283	-33.8521
 464	1	1	-0.09124	26.0542	-14.9997	-32.1134
 465	1	1	-0.099966	25.3964	-13.9841	-31.4377
 466	1	1	-0.017311	25.1958	-12.6878	-31.9602
 467	1	1	-0.020587	26.6149	-14.8616	-33.4017
 468	1	2	-0.042503	24.8196	-14.9205	-30.3855
 469	1	2	0.004295	25.5684	-16.0847	-31.1642
 470	1	3	0.00226	24.4019	-16.9997	-31.6224
 471	1	3	-0.145049	23.2674	-15.9861	-31.8942
 472	1	3	0.011953	23.7743	-17.745	-30.4096
 473	1	3	0.014921	23.0345	-16.5858	-29.6229
 474	1	3	0.025749	23.3288	-15.3312	-30.4958
 475	1	3	0.154129	27.2504	-15.9817	-34.2229
 476	1	3	-0.203386	28.083	-16.954	-33.358
 477	1	3	-0.113237	26.2159	-16.7508	-35.0656
 478	1	3	0.129534	24.3747	-11.5786	-31.306
 479	1	3	-0.091829	24.553	-11.5352	-29.7721
 480	1	3	-0.19809	22.8824	-11.651	-31.6834
 481	1	4	0.228684	24.6834	-13.4268	-39.6376
 482	1	5	0.042843	25.6708	-9.82564	-36.207
 483	1	4	0.232532	22.2427	-9.75402	-37.2053
 484	1	5	0.035382	26.9183	-11.7085	-37.4526
 485	1	5	0.041247	25.8133	-14.1152	-36.7767
 486	1	5	0.06146	26.4064	-10.6411	-34.2384
 487	1	5	0.068364	27.6541	-12.5356	-35.4917
 488	1	5	0.055799	24.0259	-13.5896	-34.8393
 489	1	5	0.04347	23.4426	-12.9471	-36.387
 490	1	5	0.076294	23.7064	-10.9261	-34.6591
 491	1	5	0.058767	25.1448	-14.7262	-29.3576
 492	1	5	0.056756	26.3559	-16.6166	-30.619
 493	1	5	0.029415	24.6312	-17.6665	-32.4592
 494	1	5	0.049793	22.3039	-16.4729	-32.0907
 495	1	5	0.063468	23.4814	-15.2922	-32.7177
 496	1	5	-0.012542	23.0989	-18.5709	-30.6694
 497	1	5	-0.012458	21.9696	-16.803	-29.4655
 498	1	5	0.013933	22.6082	-14.5232	-30.3357
 499	1	5	0.014892	27.9493	-15.514	-34.9288
 500	1	5	0.04353	27.4427	-17.5432	-32.691
 501	1	5	0.048722	28.8061	-16.4026	-32.7439
 502	1	5	0.053734	28.6415	-17.6534	-33.9924
 503	1	5	0.029251	26.7115	-17.4696	-35.7299
 504	1	5	0.025572	25.6416	-16.0586	-35.6859
 505	1	5	0.023611	25.5124	-17.3014	-34.4352
 506	1	5	0.021405	24.7525	-10.6222	-31.6909
 507	1	5	0.009991	24.1068	-12.4144	-29.2921
 508	1	5	0.026343	24.0712	-10.6432	-29.3528
 509	1	5	0.026093	25.6172	-11.5004	-29.5069
 510	1	5	0.043016	22.3391	-10.7816	-31.2928
 511	1	5	0.050907	22.4105	-12.553	-31.2841
 512	1	5	0.051325	22.7643	-11.663	-32.7697
 513	1	1	-0.439951	17.9484	-18.7809	-29.9195
 514	1	1	0.043044	18.5719	-18.6371	-31.1721
 515	1	1	0.126458	18.6352	-21.1353	-30.1129
 516	1	1	0.016683	19.2638	-19.6587	-31.8116
 517	1	1	0.121946	17.9309	-20.12	-29.4905
 518	1	2	0.005505	20.08	-18.7048	-32.6654
 519	1	1	-0.445809	19.4332	-20.9427	-31.257
 520	1	2	0.001585	19.2967	-17.5383	-31.9221
 521	1	3	0.031166	18.5076	-16.8352	-33.0566
 522	1	2	-0.048351	20.4965	-17.2817	-34.4579
 523	1	1	-0.041771	20.1862	-16.5159	-35.7375
 524	1	2	-0.107179	19.7244	-16.1241	-33.7012
 525	1	3	-0.106774	18.2011	-17.9884	-34.0522
 526	1	3	-0.025838	19.6488	-18.5465	-34.1513
 527	1	1	-0.051955	19.5099	-15.5043	-35.0674
 528	1	1	-0.09124	19.9229	-14.023	-36.847
 529	1	1	-0.099966	20.594	-15.0365	-37.5236
 530	1	1	-0.017311	20.8588	-16.2981	-36.9577
 531	1	1	-0.020587	19.4431	-14.1783	-35.5308
 532	1	2	-0.042503	21.4335	-14.0691	-38.3389
 533	1	2	0.004295	20.6699	-12.9183	-37.5774
 534	1	3	0.00226	19.9489	-12.1635	-38.7214
 535	1	3	-0.145049	19.609	-13.3016	-39.7098
 536	1	3	0.011953	20.9798	-11.3794	-39.5897
 537	1	3	0.014921	21.7497	-12.538	-40.3554
 538	1	3	0.025749	21.0568	-13.8283	-39.8199
 539	1	3	0.154129	19.088	-13.0265	-34.5947
 540	1	3	-0.203386	20.3456	-12.4145	-33.9455
 541	1	3	-0.113237	18.2334	-11.9393	-35.2815
 542	1	3	0.129534	21.9293	-17.219	-37.5354
 543	1	3	-0.091829	21.5346	-18.7104	-37.4671
 544	1	3	-0.19809	23.3001	-16.9783	-36.8738
 545	1	4	0.228684	17.6396	-17.9462	-29.2985
 546	1	5	0.042843	21.1644	-18.7802	-32.5233
 547	1	4	0.232532	20.1862	-21.6497	-31.5902
 548	1	5	0.035382	19.8639	-16.8514	-31.283
 549	1	5	0.041247	17.6646	-16.2011	-32.7548
 550	1	5	0.06146	21.5643	-17.4124	-34.2516
 551	1	5	0.068364	20.2842	-15.4927	-33.0019
 552	1	5	0.055799	17.8176	-17.6276	-35.0153
 553	1	5	0.04347	17.4884	-18.7204	-33.6507
 554	1	5	0.076294	19.7972	-19.4168	-34.802
 555	1	5	0.058767	22.5116	-14.1671	-38.1891
 556	1	5	0.056756	21.247	-12.2529	-36.9322
 557	1	5	0.029415	19.0855	-11.5627	-38.4112
 558	1	5	0.049793	19.2151	-12.9323	-40.6673
 559	1	5	0.063468	18.9031	-14.0386	-39.3049
 560	1	5	-0.012542	20.54	-10.6466	-40.279
 561	1	5	-0.012458	21.7123	-12.4118	-41.4455
 562	1	5	0.013933	21.1751	-14.701	-40.4743
 563	1	5	0.014892	18.4753	-13.4372	-33.7814
 564	1	5	0.04353	20.0679	-11.67	-33.1891
 565	1	5	0.048722	20.9814	-11.9223	-34.6898
 566	1	5	0.053734	20.9407	-13.1932	-33.4533
 567	1	5	0.029251	18.8127	-11.3923	-36.0336
 568	1	5	0.025572	17.8704	-11.2122	-34.5443
 569	1	5	0.023611	17.3606	-12.3859	-35.7742
 570	1	5	0.021405	22.0387	-16.9735	-38.6001
 571	1	5	0.009991	21.5278	-19.0749	-36.4337
 572	1	5	0.026343	22.2472	-19.3232	-38.0332
 573	1	5	0.026093	20.5373	-18.8678	-37.8969
 574	1	5	0.043016	23.5891	-15.9237	-36.9575
 575	1	5	0.050907	24.0772	-17.5826	-37.3581
 576	1	5	0.051325	23.2771	-17.2404	-35.81
 577	1	1	-0.439951	10.1912	-28.8653	-29.0783
 578	1	1	0.043044	10.4667	-28.1906	-27.8895
 579	1	1	0.126458	8.19075	-27.4256	-29.2362
 580	1	1	0.016683	9.70216	-27.1644	-27.4166
 581	1	1	0.121946	8.99627	-28.4949	-29.75
 582	1	2	0.005505	10.7234	-26.7361	-26.3688
 583	1	1	-0.445809	8.55921	-26.7046	-28.073
 584	1	2	0.001585	11.614	-27.9316	-26.9267
 585	1	3	0.031166	12.9492	-27.2454	-27.3459
 586	1	2	-0.048351	11.6687	-25.2519	-28.0431
 587	1	1	-0.041771	12.7488	-24.3355	-28.589
 588	1	2	-0.107179	12.5455	-26.4467	-28.6177
 589	1	3	-0.106774	13.0429	-26.1423	-26.2544
 590	1	3	-0.025838	11.6536	-25.4914	-26.5113
 591	1	1	-0.051955	13.5049	-25.3725	-29.1055
 592	1	1	-0.09124	15.2	-23.8689	-29.6291
 593	1	1	-0.099966	14.47	-22.8419	-29.0546
 594	1	1	-0.017311	13.2238	-23.0208	-28.4169
 595	1	1	-0.020587	14.8233	-25.2257	-29.5866
 596	1	2	-0.042503	15.623	-21.851	-29.1231
 597	1	2	0.004295	16.4499	-23.0251	-29.8024
 598	1	3	0.00226	17.6292	-23.2419	-28.8251
 599	1	3	-0.145049	16.975	-22.961	-27.4523
 600	1	3	0.011953	18.6129	-22.0374	-28.8893
 601	1	3	0.014921	17.7938	-20.8764	-28.1842
 602	1	3	0.025749	16.4409	-21.5618	-27.8352
 603	1	3	0.154129	15.7579	-26.3593	-30.0018
 604	1	3	-0.203386	16.5348	-26.9358	-28.7979
 605	1	3	-0.113237	15.029	-27.4803	-30.7752
 606	1	3	0.129534	12.4618	-21.9622	-27.6243
 607	1	3	-0.091829	12.518	-20.5688	-28.2886
 608	1	3	-0.19809	12.932	-21.8933	-26.1548
 609	1	4	0.228684	10.8706	-29.6121	-29.4772
 610	1	5	0.042843	10.4022	-26.8655	-25.3294
 611	1	4	0.232532	8.00326	-25.8378	-27.7302
 612	1	5	0.035382	11.7976	-28.7295	-26.1989
 613	1	5	0.041247	13.8096	-27.9156	-27.4397
 614	1	5	0.06146	10.6841	-25.0763	-28.488
 615	1	5	0.068364	12.123	-27.0508	-29.4261
 616	1	5	0.055799	13.8801	-25.4504	-26.4156
 617	1	5	0.04347	13.1242	-26.5637	-25.2434
 618	1	5	0.076294	11.3925	-24.6285	-25.8878
 619	1	5	0.058767	15.4357	-20.9605	-29.7331
 620	1	5	0.056756	16.765	-22.8732	-30.8407
 621	1	5	0.029415	18.1275	-24.2147	-28.9084
 622	1	5	0.049793	17.7048	-22.9291	-26.6309
 623	1	5	0.063468	16.1838	-23.674	-27.1858
 624	1	5	-0.012542	19.5887	-22.2071	-28.4154
 625	1	5	-0.012458	18.3314	-20.4412	-27.3313
 626	1	5	0.013933	15.8934	-21.0459	-27.04
 627	1	5	0.014892	16.5026	-25.937	-30.6892
 628	1	5	0.04353	17.0513	-26.1422	-28.247
 629	1	5	0.048722	17.2872	-27.6603	-29.1334
 630	1	5	0.053734	15.8657	-27.4436	-28.0976
 631	1	5	0.029251	14.331	-28.0242	-30.1278
 632	1	5	0.025572	15.7496	-28.2045	-31.1753
 633	1	5	0.023611	14.4638	-27.0645	-31.6188
 634	1	5	0.021405	11.4051	-22.2601	-27.6081
 635	1	5	0.009991	13.5316	-20.1513	-28.2581
 636	1	5	0.026343	11.8504	-19.8679	-27.772
 637	1	5	0.026093	12.2007	-20.6269	-29.3374