pySIMM System Object

2096 atoms
2392 bonds
4992 angles
9072 dihedrals
128 impropers

5 atom types
9 bond types
18 angle types
19 dihedral types
2 improper types

-175.038326 175.038326 xlo xhi
-175.038326 175.038326 ylo yhi
-175.038326 175.038326 zlo zhi

Masses

   1	12.01	# ca
   2	12.01	# cy
   3	12.01	# c3
   4	1.008	# ha
   5	1.008	# hc

Pair Coeffs

   1	0.086	3.3996695084235347	# ca
   2	0.086	3.3996695084235347	# cy
   3	0.1094	3.3996695084235347	# c3
   4	0.015	2.59964245953351	# ha
   5	0.0157	2.649532787749369	# hc

Bond Coeffs

   1	300.9	1.5375	# c3,c3
   2	305.9	1.5319	# c3,cy
   3	345.8	1.086	# ca,ha
   4	321.0	1.5156	# c3,ca
   5	285.0	1.5562	# cy,cy
   6	330.6	1.0969	# c3,hc
   7	333.3	1.0949	# cy,hc
   8	321.2	1.5154	# ca,cy
   9	461.1	1.3984	# ca,ca

Angle Coeffs

   1	66.62	120.02	# ca,ca,ca
   2	61.4	116.81	# ca,cy,cy
   3	44.83	114.79	# cy,cy,hc
   4	46.43	110.14	# c3,cy,hc
   5	63.15	112.07	# c3,c3,ca
   6	46.34	109.8	# c3,c3,hc
   7	39.4	107.58	# hc,c3,hc
   8	48.18	119.88	# ca,ca,ha
   9	63.53	120.77	# c3,ca,ca
  10	60.66	118.7	# c3,cy,cy
  11	63.51	120.86	# ca,ca,cy
  12	62.73	112.39	# c3,c3,cy
  13	46.29	110.75	# cy,c3,hc
  14	46.8	110.47	# ca,c3,hc
  15	62.8	113.57	# c3,cy,ca
  16	62.86	111.51	# c3,c3,c3
  17	67.9	96.03	# cy,c3,cy
  18	45.97	114.53	# ca,cy,hc

Dihedral Coeffs

   1	1	0.16	3	0.0	# hc,c3,cy,cy
   2	1	0.16	3	0.0	# cy,c3,cy,hc
   3	1	0.16	3	0.0	# c3,c3,cy,hc
   4	1	0.15	3	0.0	# hc,c3,cy,hc
   5	1	3.625	2	180	# X,ca,ca,X
   6	1	0.15555555555555556	3	0	# X,cy,cy,X
   7	3	0.18	3	0	0.25	2	180	0.2	1	180	# c3,c3,c3,c3
   8	1	0.16	3	0	# hc,c3,c3,c3
   9	1	0.0	2	0.0	# ca,ca,cy,cy
  10	1	0.0	2	0.0	# ca,ca,cy,c3
  11	1	0.15555555555555556	3	0	# X,c3,c3,X
  12	1	0.0	2	0	# X,c3,ca,X
  13	3	0.38	3	180.0	0.0	2	0.0	1.15	1	0.0	# ca,ca,cy,hc
  14	3	0.18	3	0.0	0.25	2	180.0	0.2	1	180.0	# cy,c3,cy,cy
  15	1	0.16	3	0.0	# cy,c3,cy,ca
  16	1	0.16	3	0.0	# c3,c3,cy,ca
  17	1	0.16	3	0.0	# hc,c3,cy,ca
  18	1	0.15	3	0	# hc,c3,c3,hc
  19	3	0.18	3	0.0	0.25	2	180.0	0.2	1	180.0	# c3,c3,cy,cy

Improper Coeffs

   1	1.1	-1	2	# ca,ca,ca,c3
   2	1.1	-1	2	# ca,X,X,ha

Atoms

   1	1	1	-0.439951	-40.0593	25.2033	23.3217
   2	1	1	0.043044	-40.6656	25.0903	22.0555
   3	1	1	0.126458	-41.9006	26.7454	23.83
   4	1	1	0.016683	-41.7573	25.8606	21.6661
   5	1	1	0.121946	-40.8187	25.9747	24.2212
   6	1	2	0.005505	-41.4229	25.7644	20.1891
   7	1	1	-0.445809	-42.3529	26.8255	22.5005
   8	1	2	0.001585	-40.1778	24.8882	20.6319
   9	1	3	0.031166	-38.9545	25.727	20.1768
  10	1	2	-0.048351	-40.3386	26.3281	18.2108
  11	1	1	-0.041771	-39.3608	27.0734	17.315
  12	1	2	-0.107179	-39.0897	25.4454	18.6565
  13	1	3	-0.106774	-39.4518	27.1947	20.3084
  14	1	3	-0.025838	-40.786	27.0155	19.529
  15	1	1	-0.051955	-38.2771	26.3058	17.7063
  16	1	1	-0.09124	-36.8388	27.7409	16.572
  17	1	1	-0.099966	-37.925	28.4967	16.1629
  18	1	1	-0.017311	-39.2479	28.2837	16.5978
  19	1	1	-0.020587	-36.9333	26.6475	17.4598
  20	1	2	-0.042503	-37.0676	29.6075	15.5832
  21	1	2	0.004295	-35.8208	28.7455	16.0512
  22	1	3	0.00226	-35.1165	29.6906	17.0521
  23	1	3	-0.145049	-36.2891	30.439	17.7193
  24	1	3	0.011953	-34.4766	30.8483	16.244
  25	1	3	0.014921	-35.7019	31.6908	15.7919
  26	1	3	0.025749	-36.9046	30.9168	16.3879
  27	1	3	0.154129	-35.7622	25.9148	18.1089
  28	1	3	-0.203386	-34.5782	25.7074	17.1387
  29	1	3	-0.113237	-35.2983	26.6115	19.4066
  30	1	3	0.129534	-40.3794	29.2709	16.3227
  31	1	3	-0.091829	-40.5603	30.2744	17.4827
  32	1	3	-0.19809	-41.714	28.5693	15.985
  33	1	4	0.228684	-39.0538	24.8568	23.5371
  34	1	5	0.042843	-42.1871	25.2703	19.5776
  35	1	4	0.232532	-42.9768	27.6335	22.1322
  36	1	5	0.035382	-40.1603	23.8448	20.2961
  37	1	5	0.041247	-37.9953	25.4798	20.6463
  38	1	5	0.06146	-41.1443	25.8121	17.6748
  39	1	5	0.068364	-39.1142	24.3804	18.3957
  40	1	5	0.055799	-38.7755	27.9174	19.8339
  41	1	5	0.04347	-39.6046	27.5007	21.3513
  42	1	5	0.076294	-41.436	27.8924	19.4422
  43	1	5	0.058767	-37.1687	29.7743	14.505
  44	1	5	0.056756	-35.1554	28.384	15.2592
  45	1	5	0.029415	-34.4179	29.2066	17.7427
  46	1	5	0.049793	-35.9578	31.269	18.3588
  47	1	5	0.063468	-36.9529	29.7857	18.3009
  48	1	5	-0.012542	-33.8931	30.4791	15.3906
  49	1	5	-0.012458	-35.7658	31.7713	14.6989
  50	1	5	0.013933	-37.813	31.5227	16.4841
  51	1	5	0.014892	-36.1149	24.9145	18.3927
  52	1	5	0.04353	-34.9174	25.2258	16.213
  53	1	5	0.048722	-33.814	25.0653	17.5939
  54	1	5	0.053734	-34.1046	26.6609	16.8773
  55	1	5	0.029251	-36.1372	26.7555	20.0965
  56	1	5	0.025572	-34.8664	27.5951	19.2001
  57	1	5	0.023611	-34.5383	26.0088	19.9195
  58	1	5	0.021405	-40.0988	29.8553	15.4366
  59	1	5	0.009991	-41.3034	31.0385	17.2221
  60	1	5	0.026343	-39.6181	30.7845	17.711
  61	1	5	0.026093	-40.8959	29.7744	18.3959
  62	1	5	0.043016	-42.1192	28.0397	16.8551
  63	1	5	0.050907	-41.5742	27.8433	15.1741
  64	1	5	0.051325	-42.4629	29.3014	15.6582
  65	1	1	-0.439951	-47.7924	22.9397	30.8922
  66	1	1	0.043044	-46.9596	23.4817	31.8966
  67	1	1	0.126458	-46.4233	20.9146	31.1126
  68	1	1	0.016683	-45.8453	22.8034	32.3951
  69	1	1	0.121946	-47.5202	21.5864	30.6092
  70	1	2	0.005505	-45.0687	24.0838	32.6631
  71	1	1	-0.445809	-45.466	21.5191	31.9492
  72	1	2	0.001585	-46.3338	24.8548	32.1111
  73	1	3	0.031166	-45.8124	25.5769	30.8413
  74	1	2	-0.048351	-43.7015	25.8935	32.0702
  75	1	1	-0.041771	-42.8822	26.7305	31.1025
  76	1	2	-0.107179	-44.9669	26.6845	31.5275
  77	1	3	-0.106774	-44.7274	24.6048	30.3112
  78	1	3	-0.025838	-43.9511	24.4266	31.6434
  79	1	1	-0.051955	-43.9843	27.4435	30.6405
  80	1	1	-0.09124	-42.7487	28.1071	28.7657
  81	1	1	-0.099966	-41.6758	27.3398	29.1874
  82	1	1	-0.017311	-41.7144	26.5216	30.3362
  83	1	1	-0.020587	-44.0121	28.0967	29.3868
  84	1	2	-0.042503	-40.9537	27.4327	27.8454
  85	1	2	0.004295	-42.1823	28.3248	27.3746
  86	1	3	0.00226	-42.7783	27.5225	26.1932
  87	1	3	-0.145049	-42.5292	26.0595	26.6301
  88	1	3	0.011953	-41.7831	27.6885	25.0129
  89	1	3	0.014921	-40.551	26.8054	25.465
  90	1	3	0.025749	-41.0095	26.2476	26.844
  91	1	3	0.154129	-45.237	28.7317	28.7269
  92	1	3	-0.203386	-46.0627	27.738	27.8785
  93	1	3	-0.113237	-46.1348	29.4813	29.7354
  94	1	3	0.129534	-40.6573	25.4915	30.734
  95	1	3	-0.091829	-39.2304	26.0808	30.7003
  96	1	3	-0.19809	-40.7363	24.1833	29.9139
  97	1	4	0.228684	-48.4504	23.5467	30.2785
  98	1	5	0.042843	-44.7961	24.2574	33.7105
  99	1	4	0.232532	-44.469	21.114	32.0888
 100	1	5	0.035382	-46.8651	25.508	32.8128
 101	1	5	0.041247	-46.5822	25.8909	30.1336
 102	1	5	0.06146	-43.4481	26.0211	33.1293
 103	1	5	0.068364	-45.5198	27.2944	32.2514
 104	1	5	0.055799	-44.1236	25.0261	29.4995
 105	1	5	0.04347	-45.1542	23.6735	29.9605
 106	1	5	0.076294	-43.0854	23.7549	31.6314
 107	1	5	0.058767	-39.9765	27.9279	27.8652
 108	1	5	0.056756	-41.9557	29.3648	27.1144
 109	1	5	0.029415	-43.8152	27.7634	25.9326
 110	1	5	0.049793	-42.78	25.3169	25.8616
 111	1	5	0.063468	-43.0637	25.7783	27.5449
 112	1	5	-0.012542	-41.5199	28.7218	24.7508
 113	1	5	-0.012458	-39.5924	27.3408	25.461
 114	1	5	0.013933	-40.4708	25.3435	27.1374
 115	1	5	0.014892	-44.8588	29.4902	28.0288
 116	1	5	0.04353	-45.4196	26.9911	27.3998
 117	1	5	0.048722	-46.609	28.2725	27.0915
 118	1	5	0.053734	-46.8049	27.2095	28.4816
 119	1	5	0.029251	-46.6054	28.7876	30.4424
 120	1	5	0.025572	-46.932	30.0251	29.2132
 121	1	5	0.023611	-45.5475	30.2097	30.3086
 122	1	5	0.021405	-40.8542	25.2155	31.7782
 123	1	5	0.009991	-38.9324	26.3442	29.678
 124	1	5	0.026343	-38.5034	25.3574	31.0901
 125	1	5	0.026093	-39.1721	26.986	31.3178
 126	1	5	0.043016	-40.208	24.2763	28.9622
 127	1	5	0.050907	-41.7745	23.9039	29.7005
 128	1	5	0.051325	-40.267	23.3589	30.4647
 129	1	1	-0.439951	-41.3493	19.3356	20.3439
 130	1	1	0.043044	-41.6733	20.6657	20.6798
 131	1	1	0.126458	-43.1908	19.5311	18.7267
 132	1	1	0.016683	-42.7733	21.3363	20.1526
 133	1	1	0.121946	-42.1115	18.8537	19.2627
 134	1	2	0.005505	-42.9038	22.2663	21.3437
 135	1	1	-0.445809	-43.6561	20.7654	19.216
 136	1	2	0.001585	-41.6412	21.5112	21.9409
 137	1	3	0.031166	-42.1752	20.8619	23.2445
 138	1	2	-0.048351	-43.5302	22.9187	23.4821
 139	1	1	-0.041771	-44.1452	22.7561	24.8579
 140	1	2	-0.107179	-42.2611	22.1649	24.0834
 141	1	3	-0.106774	-43.6629	20.558	22.9115
 142	1	3	-0.025838	-44.0334	21.9664	22.3655
 143	1	1	-0.051955	-43.0438	22.1036	25.3834
 144	1	1	-0.09124	-44.2369	21.6746	27.3234
 145	1	1	-0.099966	-45.3372	22.3241	26.7992
 146	1	1	-0.017311	-45.3953	22.8596	25.4972
 147	1	1	-0.020587	-43.0273	21.461	26.6389
 148	1	2	-0.042503	-46.1979	22.0726	28.0259
 149	1	2	0.004295	-44.9267	21.3165	28.6234
 150	1	3	0.00226	-45.4498	19.8771	28.8404
 151	1	3	-0.145049	-46.4454	19.7048	27.6715
 152	1	3	0.011953	-46.4555	19.8406	30.0334
 153	1	3	0.014921	-47.7196	20.6069	29.4566
 154	1	3	0.025749	-47.2755	20.9652	28.0024
 155	1	3	0.154129	-41.8816	20.6348	27.2118
 156	1	3	-0.203386	-42.0086	19.1512	26.8051
 157	1	3	-0.113237	-40.492	21.1986	26.8408
 158	1	3	0.129534	-46.6287	23.4556	24.8301
 159	1	3	-0.091829	-47.4175	24.3921	25.7718
 160	1	3	-0.19809	-47.5372	22.3475	24.2558
 161	1	4	0.228684	-40.6883	18.7105	20.9357
 162	1	5	0.042843	-42.7893	23.3267	21.103
 163	1	4	0.232532	-44.644	21.1603	19.0015
 164	1	5	0.035382	-40.725	22.0974	22.0745
 165	1	5	0.041247	-41.5799	20.0399	23.658
 166	1	5	0.06146	-43.393	23.9591	23.1649
 167	1	5	0.068364	-41.3246	22.7319	24.1381
 168	1	5	0.055799	-44.2483	20.2733	23.7955
 169	1	5	0.04347	-43.7741	19.7699	22.1601
 170	1	5	0.076294	-45.0634	22.11	22.0175
 171	1	5	0.058767	-46.5518	22.9831	28.5125
 172	1	5	0.056756	-44.4303	21.7183	29.5083
 173	1	5	0.029415	-44.6718	19.106	28.8947
 174	1	5	0.049793	-47.0318	18.778	27.7436
 175	1	5	0.063468	-45.9705	19.741	26.682
 176	1	5	-0.012542	-46.7083	18.8338	30.391
 177	1	5	-0.012458	-48.6333	20.0014	29.5203
 178	1	5	0.013933	-48.1147	21.1502	27.3219
 179	1	5	0.014892	-41.956	20.6771	28.3064
 180	1	5	0.04353	-41.9319	19.0306	25.7189
 181	1	5	0.048722	-42.9777	18.7459	27.1206
 182	1	5	0.053734	-41.2203	18.5493	27.2738
 183	1	5	0.029251	-40.4245	22.2631	27.0989
 184	1	5	0.025572	-40.2898	21.0902	25.7687
 185	1	5	0.023611	-39.7022	20.6674	27.3863
 186	1	5	0.021405	-46.2899	24.0681	23.9843
 187	1	5	0.009991	-47.8819	23.835	26.5942
 188	1	5	0.026343	-48.2155	24.9077	25.2231
 189	1	5	0.026093	-46.7557	25.1539	26.2017
 190	1	5	0.043016	-47.9345	21.7103	25.054
 191	1	5	0.050907	-46.9771	21.708	23.5627
 192	1	5	0.051325	-48.3842	22.7809	23.7098
 193	1	1	-0.439951	-50.5248	10.7574	19.9253
 194	1	1	0.043044	-49.9703	11.0634	21.1838
 195	1	1	0.126458	-49.0748	8.77351	20.0119
 196	1	1	0.016683	-48.9265	10.337	21.7521
 197	1	1	0.121946	-50.0842	9.51689	19.4305
 198	1	2	0.005505	-48.409	11.5221	22.554
 199	1	1	-0.445809	-48.3534	9.20125	21.1437
 200	1	2	0.001585	-49.6069	12.3405	21.915
 201	1	3	0.031166	-48.9092	13.4409	21.0779
 202	1	2	-0.048351	-47.2459	13.5198	22.9012
 203	1	1	-0.041771	-46.3891	14.7146	22.5126
 204	1	2	-0.107179	-48.4616	14.3307	22.2683
 205	1	3	-0.106774	-47.5852	12.7634	20.6211
 206	1	3	-0.025838	-47.1423	12.2467	22.0179
 207	1	1	-0.051955	-47.4501	15.4248	21.973
 208	1	1	-0.09124	-45.9549	16.9514	21.0564
 209	1	1	-0.099966	-44.8909	16.237	21.5783
 210	1	1	-0.017311	-45.0331	15.0124	22.2657
 211	1	1	-0.020587	-47.3006	16.5488	21.1334
 212	1	2	-0.042503	-43.8502	17.0394	20.8071
 213	1	2	0.004295	-45.0776	17.8479	20.2058
 214	1	3	0.00226	-44.9808	17.5575	18.6855
 215	1	3	-0.145049	-44.4271	16.1137	18.6557
 216	1	3	0.011953	-43.7636	18.2952	18.0574
 217	1	3	0.014921	-42.5233	17.5162	18.666
 218	1	3	0.025749	-43.1992	16.4198	19.5447
 219	1	3	0.154129	-48.4216	17.28	20.3971
 220	1	3	-0.203386	-48.7199	16.6668	19.0133
 221	1	3	-0.113237	-49.7117	17.3933	21.2387
 222	1	3	0.129534	-43.8946	14.0882	22.6885
 223	1	3	-0.091829	-42.6773	14.8613	23.2429
 224	1	3	-0.19809	-43.4735	13.1324	21.5525
 225	1	4	0.228684	-51.113	11.4584	19.3417
 226	1	5	0.042843	-48.4252	11.3866	23.6417
 227	1	4	0.232532	-47.3924	8.78627	21.4303
 228	1	5	0.035382	-50.3789	12.7117	22.5992
 229	1	5	0.041247	-49.5242	13.9071	20.3026
 230	1	5	0.06146	-47.29	13.3176	23.978
 231	1	5	0.068364	-49.2709	14.6241	22.9473
 232	1	5	0.055799	-46.8734	13.4715	20.1772
 233	1	5	0.04347	-47.7446	11.9501	19.9079
 234	1	5	0.076294	-46.2051	11.6806	22.0662
 235	1	5	0.058767	-43.1449	17.5953	21.4315
 236	1	5	0.056756	-45.1484	18.9118	20.4475
 237	1	5	0.029415	-45.9092	17.7069	18.1237
 238	1	5	0.049793	-44.1498	15.7821	17.6451
 239	1	5	0.063468	-45.1096	15.3703	19.0883
 240	1	5	-0.012542	-43.7482	18.3115	16.9596
 241	1	5	-0.012458	-41.853	17.132	17.8857
 242	1	5	0.013933	-42.5437	15.5637	19.7319
 243	1	5	0.014892	-48.0756	18.3065	20.218
 244	1	5	0.04353	-49.2028	15.6906	19.1029
 245	1	5	0.048722	-47.7982	16.5327	18.439
 246	1	5	0.053734	-49.3871	17.3197	18.4371
 247	1	5	0.029251	-50.4439	18.0387	20.7376
 248	1	5	0.025572	-49.495	17.8282	22.2226
 249	1	5	0.023611	-50.1769	16.4121	21.3906
 250	1	5	0.021405	-44.2687	13.4616	23.5087
 251	1	5	0.009991	-42.1853	15.4494	22.4588
 252	1	5	0.026343	-41.9357	14.1672	23.6576
 253	1	5	0.026093	-42.9853	15.5453	24.0438
 254	1	5	0.043016	-42.9772	13.6696	20.7399
 255	1	5	0.050907	-44.3454	12.6236	21.129
 256	1	5	0.051325	-42.7801	12.3682	21.9248
 257	1	1	-0.439951	-40.0564	13.0822	12.2692
 258	1	1	0.043044	-40.9812	13.7811	13.0716
 259	1	1	0.126458	-41.0171	14.3872	10.4202
 260	1	1	0.016683	-41.9495	14.6353	12.5508
 261	1	1	0.121946	-40.0712	13.5195	10.9313
 262	1	2	0.005505	-42.8938	14.4445	13.7253
 263	1	1	-0.445809	-42.0846	14.9084	11.175
 264	1	2	0.001585	-41.7821	13.4823	14.3261
 265	1	3	0.031166	-42.4841	12.102	14.4029
 266	1	2	-0.048351	-44.5227	13.3707	14.9991
 267	1	1	-0.041771	-45.4992	12.2568	15.3416
 268	1	2	-0.107179	-43.4015	12.4277	15.612
 269	1	3	-0.106774	-43.4629	12.1319	13.1945
 270	1	3	-0.025838	-44.1162	13.508	13.5077
 271	1	1	-0.051955	-44.52	11.4415	15.8851
 272	1	1	-0.09124	-46.1647	10.1872	16.9705
 273	1	1	-0.099966	-47.1523	10.9818	16.4022
 274	1	1	-0.017311	-46.8653	12.1484	15.6619
 275	1	1	-0.020587	-44.7847	10.4389	16.8338
 276	1	2	-0.042503	-48.2231	10.5171	17.3775
 277	1	2	0.004295	-47.0906	9.62814	18.0346
 278	1	3	0.00226	-47.6194	8.18649	17.8434
 279	1	3	-0.145049	-48.3499	8.2774	16.4844
 280	1	3	0.011953	-48.8445	7.9278	18.7682
 281	1	3	0.014921	-49.9882	8.79948	18.0952
 282	1	3	0.025749	-49.2528	9.46332	16.8899
 283	1	3	0.154129	-43.6918	9.8514	17.721
 284	1	3	-0.203386	-43.5952	10.6121	19.0595
 285	1	3	-0.113237	-43.862	8.33538	17.958
 286	1	3	0.129534	-47.8551	13.2758	15.3921
 287	1	3	-0.091829	-47.9963	14.1941	16.6239
 288	1	3	-0.19809	-49.2328	12.7598	14.9221
 289	1	4	0.228684	-39.4892	12.2231	12.6128
 290	1	5	0.042843	-43.1174	15.3575	14.2897
 291	1	4	0.232532	-42.9687	15.3566	10.7329
 292	1	5	0.035382	-41.3033	13.7983	15.2604
 293	1	5	0.041247	-41.8363	11.2213	14.4948
 294	1	5	0.06146	-44.7274	14.3283	15.4925
 295	1	5	0.068364	-42.8613	12.768	16.5036
 296	1	5	0.055799	-44.1823	11.303	13.2067
 297	1	5	0.04347	-42.9465	12.1187	12.2284
 298	1	5	0.076294	-44.8907	13.8573	12.8136
 299	1	5	0.058767	-48.6832	11.3106	17.9708
 300	1	5	0.056756	-46.7882	9.84378	19.0628
 301	1	5	0.029415	-46.8575	7.39944	17.8918
 302	1	5	0.049793	-48.9204	7.36882	16.2448
 303	1	5	0.063468	-47.685	8.50002	15.6397
 304	1	5	-0.012542	-49.132	6.87274	18.8673
 305	1	5	-0.012458	-50.8669	8.19818	17.8269
 306	1	5	0.013933	-49.9278	9.80699	16.0965
 307	1	5	0.014892	-42.7329	9.98317	17.2026
 308	1	5	0.04353	-44.5188	10.5064	19.6413
 309	1	5	0.048722	-43.426	11.681	18.8799
 310	1	5	0.053734	-42.7625	10.2334	19.665
 311	1	5	0.029251	-44.0022	7.80666	17.0067
 312	1	5	0.025572	-44.7244	8.12777	18.6011
 313	1	5	0.023611	-42.9726	7.9203	18.4484
 314	1	5	0.021405	-47.4516	13.8888	14.5755
 315	1	5	0.009991	-47.0194	14.5966	16.9205
 316	1	5	0.026343	-48.4129	13.6495	17.4799
 317	1	5	0.026093	-48.6584	15.0401	16.4016
 318	1	5	0.043016	-49.867	13.5937	14.5963
 319	1	5	0.050907	-49.7576	12.2343	15.7281
 320	1	5	0.051325	-49.1192	12.0693	14.0769
 321	1	1	-0.439951	-44.4443	7.05232	1.82178
 322	1	1	0.043044	-44.5476	6.49265	3.11113
 323	1	1	0.126458	-42.6094	5.44203	1.52012
 324	1	1	0.016683	-43.6427	5.562	3.61258
 325	1	1	0.121946	-43.4835	6.39422	1.03157
 326	1	2	0.005505	-43.9041	5.93784	5.06049
 327	1	1	-0.445809	-42.5582	5.05294	2.8718
 328	1	2	0.001585	-44.9531	6.9829	4.48851
 329	1	3	0.031166	-44.3986	8.35676	4.94129
 330	1	2	-0.048351	-43.6927	7.1949	7.01253
 331	1	1	-0.041771	-43.2261	8.34628	7.89477
 332	1	2	-0.107179	-44.7726	8.21823	6.44164
 333	1	3	-0.106774	-42.8581	8.1429	4.93621
 334	1	3	-0.025838	-42.8423	6.82872	5.76661
 335	1	1	-0.051955	-44.1754	9.22541	7.40302
 336	1	1	-0.09124	-43.1876	10.9717	8.57335
 337	1	1	-0.099966	-42.2402	10.0951	9.07337
 338	1	1	-0.017311	-42.1254	8.74538	8.68445
 339	1	1	-0.020587	-44.1649	10.6158	7.62115
 340	1	2	-0.042503	-41.4075	11.194	9.7124
 341	1	2	0.004295	-42.4924	12.2002	9.13597
 342	1	3	0.00226	-41.6626	13.0914	8.17773
 343	1	3	-0.145049	-40.6137	12.099	7.6249
 344	1	3	0.011953	-40.7121	14.0296	8.97612
 345	1	3	0.014921	-39.6281	13.0285	9.56144
 346	1	3	0.025749	-40.1025	11.6477	9.01287
 347	1	3	0.154129	-45.0999	11.5767	6.89177
 348	1	3	-0.203386	-45.6283	12.7032	7.8075
 349	1	3	-0.113237	-44.4459	12.1587	5.61957
 350	1	3	0.129534	-40.9322	7.87353	9.0637
 351	1	3	-0.091829	-39.8478	7.88988	7.96403
 352	1	3	-0.19809	-41.3398	6.42686	9.4208
 353	1	4	0.228684	-44.9566	7.95823	1.51438
 354	1	5	0.042843	-44.2999	5.12563	5.68138
 355	1	4	0.232532	-41.7178	4.52763	3.31424
 356	1	5	0.035382	-46.0077	6.81664	4.73771
 357	1	5	0.041247	-44.7837	9.23395	4.40881
 358	1	5	0.06146	-44.0754	6.3275	7.56367
 359	1	5	0.068364	-45.8282	7.98593	6.62655
 360	1	5	0.055799	-42.3128	8.96213	5.42267
 361	1	5	0.04347	-42.4495	8.01013	3.9282
 362	1	5	0.076294	-41.8666	6.3638	5.94588
 363	1	5	0.058767	-41.3161	11.1254	10.8004
 364	1	5	0.056756	-43.083	12.766	9.86231
 365	1	5	0.029415	-42.2422	13.6205	7.41451
 366	1	5	0.049793	-39.8361	12.5905	7.02317
 367	1	5	0.063468	-41.0485	11.2853	7.02958
 368	1	5	-0.012542	-40.2574	14.8361	8.38584
 369	1	5	-0.012458	-38.6062	13.3115	9.2765
 370	1	5	0.013933	-39.3071	10.8938	8.98431
 371	1	5	0.014892	-45.9755	11.0006	6.56503
 372	1	5	0.04353	-46.4019	13.2874	7.29377
 373	1	5	0.048722	-44.8256	13.3906	8.09909
 374	1	5	0.053734	-46.0706	12.2832	8.71965
 375	1	5	0.029251	-43.5985	12.8054	5.86551
 376	1	5	0.025572	-45.1705	12.7524	5.0485
 377	1	5	0.023611	-44.0753	11.3599	4.96766
 378	1	5	0.021405	-40.4794	8.30508	9.96606
 379	1	5	0.009991	-38.9613	7.32779	8.28355
 380	1	5	0.026343	-39.5338	8.91582	7.7402
 381	1	5	0.026093	-40.215	7.44467	7.03405
 382	1	5	0.043016	-40.4803	5.86977	9.81414
 383	1	5	0.050907	-41.7161	5.88887	8.54302
 384	1	5	0.051325	-42.124	6.42533	10.1883
 385	1	1	-0.439951	-32.9855	11.0689	-2.27427
 386	1	1	0.043044	-33.776	11.8414	-1.39917
 387	1	1	0.126458	-33.7601	12.6468	-3.99463
 388	1	1	0.016683	-34.6098	12.8681	-1.83191
 389	1	1	0.121946	-32.9553	11.6051	-3.57537
 390	1	2	0.005505	-35.5439	12.7476	-0.642641
 391	1	1	-0.445809	-34.7228	13.2665	-3.17767
 392	1	2	0.001585	-34.5794	11.5937	-0.135008
 393	1	3	0.031166	-35.4842	10.3366	-0.104166
 394	1	2	-0.048351	-37.2966	11.8662	0.6115
 395	1	1	-0.041771	-38.4232	10.9029	0.961078
 396	1	2	-0.107179	-36.3114	10.7351	1.14919
 397	1	3	-0.106774	-36.4746	10.5786	-1.2786
 398	1	3	-0.025838	-36.8978	12.0208	-0.87978
 399	1	1	-0.051955	-37.5626	9.93164	1.4429
 400	1	1	-0.09124	-39.3346	8.4435	1.64951
 401	1	1	-0.099966	-40.1984	9.41007	1.16361
 402	1	1	-0.017311	-39.789	10.6711	0.686196
 403	1	1	-0.020587	-37.9357	8.60468	1.72765
 404	1	2	-0.042503	-41.3733	8.45257	1.04706
 405	1	2	0.004295	-40.3825	7.3447	1.60537
 406	1	3	0.00226	-40.3278	6.31456	0.449717
 407	1	3	-0.145049	-40.4502	7.21279	-0.802962
 408	1	3	0.011953	-41.6734	5.54465	0.329426
 409	1	3	0.014921	-42.6703	6.64685	-0.227988
 410	1	3	0.025749	-41.757	7.90534	-0.351003
 411	1	3	0.154129	-36.925	7.51236	2.06809
 412	1	3	-0.203386	-37.4297	6.56068	3.17589
 413	1	3	-0.113237	-36.4861	6.72084	0.816636
 414	1	3	0.129534	-40.7281	11.6202	-0.0527667
 415	1	3	-0.091829	-40.6377	11.4337	-1.58336
 416	1	3	-0.19809	-40.5126	13.0986	0.340493
 417	1	4	0.228684	-32.5465	10.1129	-2.00775
 418	1	5	0.042843	-35.6135	13.6475	-0.0203682
 419	1	4	0.232532	-35.5297	13.8831	-3.56072
 420	1	5	0.035382	-34.0306	11.7776	0.796089
 421	1	5	0.041247	-34.9675	9.3706	-0.0769241
 422	1	5	0.06146	-37.3184	12.8102	1.16926
 423	1	5	0.068364	-35.7083	10.9761	2.03273
 424	1	5	0.055799	-37.3148	9.87196	-1.27955
 425	1	5	0.04347	-35.9895	10.5356	-2.2606
 426	1	5	0.076294	-37.6089	12.5323	-1.53753
 427	1	5	0.058767	-42.2381	8.70854	1.66624
 428	1	5	0.056756	-40.6244	6.9059	2.5778
 429	1	5	0.029415	-39.4576	5.65077	0.457673
 430	1	5	0.049793	-40.5717	6.63676	-1.73131
 431	1	5	0.063468	-39.6074	7.90424	-0.93335
 432	1	5	-0.012542	-41.6391	4.65297	-0.310412
 433	1	5	-0.012458	-43.1541	6.33404	-1.1627
 434	1	5	0.013933	-42.1431	8.6553	-1.05105
 435	1	5	0.014892	-36.0274	8.00563	2.46368
 436	1	5	0.04353	-36.6296	5.8817	3.4959
 437	1	5	0.048722	-38.2693	5.9491	2.82542
 438	1	5	0.053734	-37.7613	7.13071	4.053
 439	1	5	0.029251	-36.1082	7.39295	0.0387709
 440	1	5	0.025572	-37.3177	6.15451	0.388216
 441	1	5	0.023611	-35.6875	6.01147	1.06734
 442	1	5	0.021405	-41.7547	11.3634	0.240022
 443	1	5	0.009991	-39.6514	11.7162	-1.96424
 444	1	5	0.026343	-41.3881	12.0499	-2.09404
 445	1	5	0.026093	-40.8143	10.3885	-1.86122
 446	1	5	0.043016	-39.5387	13.4663	-0.00288244
 447	1	5	0.050907	-40.5618	13.2192	1.43003
 448	1	5	0.051325	-41.2882	13.7336	-0.105475
 449	1	1	-0.439951	-37.7055	7.49922	-13.3688
 450	1	1	0.043044	-37.9235	6.661	-12.2565
 451	1	1	0.126458	-35.9079	5.91805	-13.927
 452	1	1	0.016683	-37.0969	5.58815	-11.9352
 453	1	1	0.121946	-36.7151	6.99691	-14.2338
 454	1	2	0.005505	-37.4474	5.63332	-10.455
 455	1	1	-0.445809	-35.9747	5.21931	-12.7052
 456	1	2	0.001585	-38.394	6.85069	-10.8265
 457	1	3	0.031166	-37.7897	8.04535	-10.0467
 458	1	2	-0.048351	-37.3203	6.40595	-8.24787
 459	1	1	-0.041771	-36.8359	7.29568	-7.10916
 460	1	2	-0.107179	-38.2763	7.61847	-8.63621
 461	1	3	-0.106774	-36.2686	7.72071	-10.0081
 462	1	3	-0.025838	-36.3988	6.25877	-9.49302
 463	1	1	-0.051955	-37.6668	8.34765	-7.45403
 464	1	1	-0.09124	-36.4508	9.76997	-6.0671
 465	1	1	-0.099966	-35.6369	8.71256	-5.6915
 466	1	1	-0.017311	-35.7146	7.42241	-6.26297
 467	1	1	-0.020587	-37.4756	9.67664	-7.03228
 468	1	2	-0.042503	-34.6426	9.60822	-4.96206
 469	1	2	0.004295	-35.5666	10.8179	-5.41217
 470	1	3	0.00226	-34.6189	11.6549	-6.31285
 471	1	3	-0.145049	-33.7363	10.5709	-6.97237
 472	1	3	0.011953	-33.5272	12.3689	-5.46703
 473	1	3	0.014921	-32.6038	11.1708	-4.98922
 474	1	3	0.025749	-33.287	9.93032	-5.64053
 475	1	3	0.154129	-38.3078	10.8347	-7.57894
 476	1	3	-0.203386	-38.7656	11.8094	-6.47187
 477	1	3	-0.113237	-37.5995	11.5879	-8.72236
 478	1	3	0.129534	-34.7339	6.27803	-6.01795
 479	1	3	-0.091829	-34.2699	6.19727	-4.54643
 480	1	3	-0.19809	-33.5265	6.32557	-6.97521
 481	1	4	0.228684	-38.1573	8.47953	-13.481
 482	1	5	0.042843	-37.9312	4.72903	-10.0677
 483	1	4	0.232532	-35.185	4.56755	-12.345
 484	1	5	0.035382	-39.4704	6.70846	-10.6753
 485	1	5	0.041247	-38.0803	9.04278	-10.3949
 486	1	5	0.06146	-37.803	5.47354	-7.93143
 487	1	5	0.068364	-39.3567	7.44624	-8.5607
 488	1	5	0.055799	-35.7097	8.3689	-9.32089
 489	1	5	0.04347	-35.7952	7.78285	-10.994
 490	1	5	0.076294	-35.4713	5.69062	-9.36423
 491	1	5	0.058767	-34.5571	9.42526	-3.88653
 492	1	5	0.056756	-36.05	11.3964	-4.61939
 493	1	5	0.029415	-35.1133	12.3301	-7.01594
 494	1	5	0.049793	-32.8983	10.9933	-7.53981
 495	1	5	0.063468	-34.2907	9.88745	-7.62868
 496	1	5	-0.012542	-32.9616	13.1441	-6.00024
 497	1	5	-0.012458	-31.5532	11.3201	-5.27159
 498	1	5	0.013933	-32.6055	9.08109	-5.74642
 499	1	5	0.014892	-39.2202	10.4014	-8.0097
 500	1	5	0.04353	-37.9139	12.3421	-6.03254
 501	1	5	0.048722	-39.2825	11.2669	-5.67021
 502	1	5	0.053734	-39.4593	12.5563	-6.87767
 503	1	5	0.029251	-38.3102	12.2252	-9.26301
 504	1	5	0.025572	-37.1629	10.8833	-9.43627
 505	1	5	0.023611	-36.798	12.2291	-8.34818
 506	1	5	0.021405	-35.2676	5.34204	-6.22899
 507	1	5	0.009991	-33.6444	7.05625	-4.27565
 508	1	5	0.026343	-33.6815	5.28683	-4.37704
 509	1	5	0.026093	-35.1329	6.17288	-3.86905
 510	1	5	0.043016	-32.9329	5.40623	-6.89881
 511	1	5	0.050907	-32.8695	7.17064	-6.75398
 512	1	5	0.051325	-33.8625	6.42741	-8.01017
 513	1	1	-0.439951	-27.9561	12.6209	-6.75032
 514	1	1	0.043044	-28.8696	12.6803	-7.81644
 515	1	1	0.126458	-28.4495	15.0085	-6.4539
 516	1	1	0.016683	-29.6198	13.8154	-8.1148
 517	1	1	0.121946	-27.7025	13.8752	-6.17118
 518	1	2	0.005505	-30.7731	13.0132	-8.69824
 519	1	1	-0.445809	-29.5327	15.0	-7.3552
 520	1	2	0.001585	-29.9184	11.7262	-8.34403
 521	1	3	0.031166	-29.6338	11.0705	-9.71902
 522	1	2	-0.048351	-31.9292	11.7854	-10.3032
 523	1	1	-0.041771	-32.177	11.1026	-11.6436
 524	1	2	-0.107179	-31.062	10.5142	-9.93413
 525	1	3	-0.106774	-29.5719	12.2788	-10.6931
 526	1	3	-0.025838	-30.9003	12.9512	-10.2482
 527	1	1	-0.051955	-31.3992	9.99717	-11.3167
 528	1	1	-0.09124	-32.6011	8.66762	-12.8395
 529	1	1	-0.099966	-33.3939	9.76453	-13.1603
 530	1	1	-0.017311	-33.2913	11.0076	-12.5052
 531	1	1	-0.020587	-31.633	8.70469	-11.8173
 532	1	2	-0.042503	-34.5741	8.90567	-13.5895
 533	1	2	0.004295	-33.6692	7.66392	-13.2359
 534	1	3	0.00226	-33.527	6.93391	-14.594
 535	1	3	-0.145049	-33.5297	8.10297	-15.6044
 536	1	3	0.011953	-34.8747	6.26111	-14.9893
 537	1	3	0.014921	-35.8004	7.50348	-15.3396
 538	1	3	0.025749	-34.8526	8.72063	-15.1002
 539	1	3	0.154129	-31.0335	7.47193	-11.1452
 540	1	3	-0.203386	-31.9785	6.88145	-10.0791
 541	1	3	-0.113237	-30.5979	6.39277	-12.16
 542	1	3	0.129534	-34.4015	12.0511	-12.6
 543	1	3	-0.091829	-33.857	13.4966	-12.6309
 544	1	3	-0.19809	-35.4502	11.8771	-11.4826
 545	1	4	0.228684	-27.6328	11.6883	-6.29922
 546	1	5	0.042843	-31.7301	13.1621	-8.18546
 547	1	4	0.232532	-30.3228	15.7437	-7.32951
 548	1	5	0.035382	-30.3084	11.0295	-7.59252
 549	1	5	0.041247	-28.8078	10.3497	-9.76406
 550	1	5	0.06146	-32.8356	11.9805	-9.72063
 551	1	5	0.068364	-31.4071	9.868	-9.11905
 552	1	5	0.055799	-29.5821	11.9747	-11.7478
 553	1	5	0.04347	-28.6944	12.9164	-10.5247
 554	1	5	0.076294	-31.1749	13.8833	-10.7571
 555	1	5	0.058767	-35.4884	9.06162	-13.0106
 556	1	5	0.056756	-33.9955	7.00204	-12.4312
 557	1	5	0.029415	-32.6601	6.26746	-14.677
 558	1	5	0.049793	-33.5874	7.76489	-16.6488
 559	1	5	0.063468	-32.6656	8.77266	-15.5034
 560	1	5	-0.012542	-34.8079	5.54529	-15.8192
 561	1	5	-0.012458	-36.2186	7.43667	-16.3526
 562	1	5	0.013933	-35.1584	9.63263	-15.628
 563	1	5	0.014892	-30.1226	7.7921	-10.6223
 564	1	5	0.04353	-31.4778	6.08329	-9.51713
 565	1	5	0.048722	-32.8832	6.46127	-10.5319
 566	1	5	0.053734	-32.2841	7.6574	-9.36756
 567	1	5	0.029251	-31.4641	5.92376	-12.6398
 568	1	5	0.025572	-30.0232	5.60317	-11.66
 569	1	5	0.023611	-29.9635	6.82913	-12.942
 570	1	5	0.021405	-34.9208	11.8945	-13.5548
 571	1	5	0.009991	-33.4278	13.7834	-11.6642
 572	1	5	0.026343	-34.6606	14.2063	-12.8637
 573	1	5	0.026093	-33.0803	13.6024	-13.399
 574	1	5	0.043016	-35.87	10.8645	-11.5013
 575	1	5	0.050907	-36.276	12.5878	-11.6114
 576	1	5	0.051325	-35.0089	12.0436	-10.4935
 577	1	1	-0.439951	-19.4963	22.1856	-4.60468
 578	1	1	0.043044	-19.7063	21.1466	-3.69983
 579	1	1	0.126458	-17.6058	20.8379	-5.4455
 580	1	1	0.016683	-18.9438	20.017	-3.65898
 581	1	1	0.121946	-18.3687	22.0513	-5.46064
 582	1	2	0.005505	-19.8571	19.302	-2.66979
 583	1	1	-0.445809	-17.8983	19.7768	-4.552
 584	1	2	0.001585	-20.7519	20.6168	-2.73368
 585	1	3	0.031166	-22.1531	20.0975	-3.17947
 586	1	2	-0.048351	-21.0466	18.3906	-4.57594
 587	1	1	-0.041771	-22.2171	17.6754	-5.22269
 588	1	2	-0.107179	-21.9324	19.7059	-4.67009
 589	1	3	-0.106774	-22.172	18.7224	-2.45458
 590	1	3	-0.025838	-20.8498	18.1651	-3.05594
 591	1	1	-0.051955	-22.9857	18.8219	-5.32914
 592	1	1	-0.09124	-24.8145	17.524	-5.97332
 593	1	1	-0.099966	-24.0664	16.3742	-5.77814
 594	1	1	-0.017311	-22.7346	16.3688	-5.31259
 595	1	1	-0.020587	-24.3657	18.8169	-5.63206
 596	1	2	-0.042503	-25.2747	15.4534	-5.86041
 597	1	2	0.004295	-26.1255	16.7675	-6.12429
 598	1	3	0.00226	-27.1297	16.7882	-4.94864
 599	1	3	-0.145049	-26.2836	16.21	-3.79048
 600	1	3	0.011953	-28.1749	15.6426	-5.09676
 601	1	3	0.014921	-27.3181	14.3504	-4.78604
 602	1	3	0.025749	-25.8922	14.9161	-4.5396
 603	1	3	0.154129	-25.2957	20.0279	-5.59443
 604	1	3	-0.203386	-25.8672	20.2863	-4.18291
 605	1	3	-0.113237	-24.6337	21.303	-6.16169
 606	1	3	0.129534	-21.9166	15.1329	-4.94341
 607	1	3	-0.091829	-22.1068	13.9774	-5.95069
 608	1	3	-0.19809	-22.1822	14.655	-3.49883
 609	1	4	0.228684	-20.1713	23.0334	-4.65148
 610	1	5	0.042843	-19.4132	19.112	-1.68641
 611	1	4	0.232532	-17.3624	18.8335	-4.57849
 612	1	5	0.035382	-20.8219	21.1585	-1.78404
 613	1	5	0.041247	-22.9868	20.7733	-2.96708
 614	1	5	0.06146	-20.1274	18.3465	-5.16893
 615	1	5	0.068364	-21.572	20.5184	-5.30911
 616	1	5	0.055799	-23.0518	18.1165	-2.70837
 617	1	5	0.04347	-22.1207	18.8271	-1.36255
 618	1	5	0.076294	-20.5563	17.1548	-2.74889
 619	1	5	0.058767	-25.2446	14.7124	-6.66667
 620	1	5	0.056756	-26.604	16.8561	-7.10595
 621	1	5	0.029415	-27.5842	17.7647	-4.74575
 622	1	5	0.049793	-26.876	16.0173	-2.88478
 623	1	5	0.063468	-25.4232	16.8335	-3.51477
 624	1	5	-0.012542	-29.0498	15.7281	-4.43862
 625	1	5	-0.012458	-27.7341	13.761	-3.95805
 626	1	5	0.013933	-25.2587	14.2312	-3.96896
 627	1	5	0.014892	-26.1506	19.803	-6.24561
 628	1	5	0.04353	-26.2891	19.3716	-3.75329
 629	1	5	0.048722	-26.6626	21.0408	-4.22152
 630	1	5	0.053734	-25.0956	20.6486	-3.49906
 631	1	5	0.029251	-23.8182	21.6505	-5.5163
 632	1	5	0.025572	-25.3671	22.1149	-6.24395
 633	1	5	0.023611	-24.2243	21.1145	-7.16214
 634	1	5	0.021405	-20.8575	15.4184	-4.9918
 635	1	5	0.009991	-23.1227	13.5671	-5.90091
 636	1	5	0.026343	-21.4034	13.162	-5.74049
 637	1	5	0.026093	-21.926	14.3241	-6.97597
 638	1	5	0.043016	-22.1457	15.4904	-2.79123
 639	1	5	0.050907	-21.4298	13.9171	-3.19384
 640	1	5	0.051325	-23.1642	14.1838	-3.40865
 641	1	1	-0.439951	-14.4493	33.1575	-2.84483
 642	1	1	0.043044	-15.6728	32.7815	-3.39712
 643	1	1	0.126458	-15.6477	33.2053	-0.68239
 644	1	1	0.016683	-16.8148	32.6282	-2.66933