pySIMM System Object

1040 atoms
1192 bonds
2496 angles
4560 dihedrals
64 impropers

5 atom types
9 bond types
18 angle types
19 dihedral types
2 improper types

-137.417805 137.417805 xlo xhi
-137.417805 137.417805 ylo yhi
-137.417805 137.417805 zlo zhi

Masses

   1	12.01	# ca
   2	12.01	# cy
   3	12.01	# c3
   4	1.008	# ha
   5	1.008	# hc

Pair Coeffs

   1	0.086	3.3996695084235347	# ca
   2	0.086	3.3996695084235347	# cy
   3	0.1094	3.3996695084235347	# c3
   4	0.015	2.59964245953351	# ha
   5	0.0157	2.649532787749369	# hc

Bond Coeffs

   1	300.9	1.5375	# c3,c3
   2	305.9	1.5319	# c3,cy
   3	345.8	1.086	# ca,ha
   4	321.0	1.5156	# c3,ca
   5	285.0	1.5562	# cy,cy
   6	330.6	1.0969	# c3,hc
   7	333.3	1.0949	# cy,hc
   8	321.2	1.5154	# ca,cy
   9	461.1	1.3984	# ca,ca

Angle Coeffs

   1	66.62	120.02	# ca,ca,ca
   2	61.4	116.81	# ca,cy,cy
   3	44.83	114.79	# cy,cy,hc
   4	46.43	110.14	# c3,cy,hc
   5	63.15	112.07	# c3,c3,ca
   6	46.34	109.8	# c3,c3,hc
   7	39.4	107.58	# hc,c3,hc
   8	48.18	119.88	# ca,ca,ha
   9	63.53	120.77	# c3,ca,ca
  10	60.66	118.7	# c3,cy,cy
  11	63.51	120.86	# ca,ca,cy
  12	62.73	112.39	# c3,c3,cy
  13	46.29	110.75	# cy,c3,hc
  14	46.8	110.47	# ca,c3,hc
  15	62.8	113.57	# c3,cy,ca
  16	62.86	111.51	# c3,c3,c3
  17	67.9	96.03	# cy,c3,cy
  18	45.97	114.53	# ca,cy,hc

Dihedral Coeffs

   1	1	0.16	3	0.0	# hc,c3,cy,cy
   2	1	0.16	3	0.0	# cy,c3,cy,hc
   3	1	0.16	3	0.0	# c3,c3,cy,hc
   4	1	0.15	3	0.0	# hc,c3,cy,hc
   5	1	3.625	2	180	# X,ca,ca,X
   6	1	0.15555555555555556	3	0	# X,cy,cy,X
   7	3	0.18	3	0	0.25	2	180	0.2	1	180	# c3,c3,c3,c3
   8	1	0.16	3	0	# hc,c3,c3,c3
   9	1	0.0	2	0.0	# ca,ca,cy,cy
  10	1	0.0	2	0.0	# ca,ca,cy,c3
  11	1	0.15555555555555556	3	0	# X,c3,c3,X
  12	1	0.0	2	0	# X,c3,ca,X
  13	3	0.38	3	180.0	0.0	2	0.0	1.15	1	0.0	# ca,ca,cy,hc
  14	3	0.18	3	0.0	0.25	2	180.0	0.2	1	180.0	# cy,c3,cy,cy
  15	1	0.16	3	0.0	# cy,c3,cy,ca
  16	1	0.16	3	0.0	# c3,c3,cy,ca
  17	1	0.16	3	0.0	# hc,c3,cy,ca
  18	1	0.15	3	0	# hc,c3,c3,hc
  19	3	0.18	3	0.0	0.25	2	180.0	0.2	1	180.0	# c3,c3,cy,cy

Improper Coeffs

   1	1.1	-1	2	# ca,ca,ca,c3
   2	1.1	-1	2	# ca,X,X,ha

Atoms

   1	1	1	-0.439951	-16.1085	-15.1022	15.1975
   2	1	1	0.043044	-16.6827	-15.5026	16.4193
   3	1	1	0.126458	-18.084	-13.6489	14.9927
   4	1	1	0.016683	-17.9606	-15.1177	16.8146
   5	1	1	0.121946	-16.8347	-14.0721	14.5742
   6	1	2	0.005505	-18.1735	-16.3549	17.6711
   7	1	1	-0.445809	-18.778	-14.254	16.0576
   8	1	2	0.001585	-16.709	-16.7808	17.235
   9	1	3	0.031166	-16.9159	-18.1072	16.4608
  10	1	2	-0.048351	-18.6969	-18.5839	18.1147
  11	1	1	-0.041771	-19.07	-20.0263	17.7969
  12	1	2	-0.107179	-17.2151	-18.9946	17.6983
  13	1	3	-0.106774	-18.314	-17.9252	15.8041
  14	1	3	-0.025838	-19.0725	-17.4812	17.0872
  15	1	1	-0.051955	-17.7789	-20.3784	17.4444
  16	1	1	-0.09124	-18.5307	-22.4448	16.6863
  17	1	1	-0.099966	-19.822	-22.099	17.0488
  18	1	1	-0.017311	-20.2001	-20.8273	17.5246
  19	1	1	-0.020587	-17.4319	-21.5626	16.7667
  20	1	2	-0.042503	-20.4457	-23.3107	16.3794
  21	1	2	0.004295	-18.968	-23.7107	15.9633
  22	1	3	0.00226	-19.042	-23.7076	14.4188
  23	1	3	-0.145049	-20.0315	-22.5641	14.1136
  24	1	3	0.011953	-19.8895	-24.9287	13.9794
  25	1	3	0.014921	-21.3352	-24.5268	14.3842
  26	1	3	0.025749	-21.1501	-23.1243	15.0164
  27	1	3	0.154129	-16.0379	-21.8067	16.195
  28	1	3	-0.203386	-15.5518	-23.2572	16.4089
  29	1	3	-0.113237	-15.9478	-21.4046	14.7069
  30	1	3	0.129534	-21.6572	-20.4029	17.6849
  31	1	3	-0.091829	-22.1781	-19.6659	16.4318
  32	1	3	-0.19809	-21.8966	-19.5645	18.9604
  33	1	4	0.228684	-15.2777	-15.6175	14.7267
  34	1	5	0.042843	-18.3356	-16.1529	18.7364
  35	1	4	0.232532	-19.8501	-14.1635	16.1993
  36	1	5	0.035382	-15.9496	-16.8316	18.0241
  37	1	5	0.041247	-16.0937	-18.4219	15.8077
  38	1	5	0.06146	-18.8547	-18.2941	19.1605
  39	1	5	0.068364	-16.4474	-18.9551	18.4803
  40	1	5	0.055799	-18.7076	-18.8569	15.3774
  41	1	5	0.04347	-18.3199	-17.1579	15.0193
  42	1	5	0.076294	-20.135	-17.2381	16.9798
  43	1	5	0.058767	-20.9706	-24.0057	17.0442
  44	1	5	0.056756	-18.5853	-24.6518	16.3741
  45	1	5	0.029415	-18.0787	-23.6425	13.9026
  46	1	5	0.049793	-20.3197	-22.5197	13.0541
  47	1	5	0.063468	-19.6694	-21.5753	14.4247
  48	1	5	-0.012542	-19.5647	-25.8529	14.475
  49	1	5	-0.012458	-21.7791	-25.2409	15.09
  50	1	5	0.013933	-22.0702	-22.529	15.0434
  51	1	5	0.014892	-15.3401	-21.1585	16.7413
  52	1	5	0.04353	-15.6248	-23.5364	17.4676
  53	1	5	0.048722	-14.5035	-23.3622	16.1029
  54	1	5	0.053734	-16.1469	-23.9681	15.8237
  55	1	5	0.029251	-16.3135	-20.383	14.5537
  56	1	5	0.025572	-16.5442	-22.0694	14.0757
  57	1	5	0.023611	-14.9091	-21.4487	14.3564
  58	1	5	0.021405	-22.2577	-21.3159	17.791
  59	1	5	0.009991	-23.253	-19.4639	16.5193
  60	1	5	0.026343	-22.0203	-20.267	15.5295
  61	1	5	0.026093	-21.6648	-18.7105	16.2875
  62	1	5	0.043016	-21.401	-18.5888	18.8971
  63	1	5	0.050907	-21.5131	-20.0889	19.8447
  64	1	5	0.051325	-22.969	-19.3877	19.1104
  65	1	1	-0.439951	-16.6331	-1.96451	7.96432
  66	1	1	0.043044	-16.3145	-3.32959	8.12474
  67	1	1	0.126458	-14.3775	-1.81464	6.98949
  68	1	1	0.016683	-15.1414	-3.90208	7.65361
  69	1	1	0.121946	-15.5427	-1.23087	7.45104
  70	1	2	0.005505	-15.6815	-5.31298	7.70683
  71	1	1	-0.445809	-14.1303	-3.19762	6.97829
  72	1	2	0.001585	-17.0309	-4.66768	8.25236
  73	1	3	0.031166	-17.1698	-5.27175	9.67957
  74	1	2	-0.048351	-16.2134	-7.32646	8.70162
  75	1	1	-0.041771	-16.3141	-8.31798	9.83907
  76	1	2	-0.107179	-17.573	-6.71384	9.24911
  77	1	3	-0.106774	-15.6944	-5.4364	10.1418
  78	1	3	-0.025838	-15.1797	-6.18914	8.88163
  79	1	1	-0.051955	-17.5124	-7.80512	10.3128
  80	1	1	-0.09124	-17.8438	-9.77752	11.5313
  81	1	1	-0.099966	-16.6277	-10.2669	11.0768
  82	1	1	-0.017311	-15.845	-9.61527	10.1056
  83	1	1	-0.020587	-18.4125	-8.56448	11.0926
  84	1	2	-0.042503	-16.9274	-11.691	11.5026
  85	1	2	0.004295	-18.328	-11.141	12.0064
  86	1	3	0.00226	-18.2943	-11.4543	13.5225
  87	1	3	-0.145049	-16.8047	-11.2193	13.8693
  88	1	3	0.011953	-18.4239	-13.0038	13.6589
  89	1	3	0.014921	-17.0048	-13.5164	13.1731
  90	1	3	0.025749	-16.2648	-12.2036	12.8045
  91	1	3	0.154129	-19.882	-8.22207	11.315
  92	1	3	-0.203386	-20.0887	-6.74897	11.7293
  93	1	3	-0.113237	-20.7335	-8.57471	10.0768
  94	1	3	0.129534	-14.7307	-10.2654	9.29216
  95	1	3	-0.091829	-15.3068	-11.1139	8.13854
  96	1	3	-0.19809	-13.7634	-11.096	10.1637
  97	1	4	0.228684	-17.624	-1.54934	8.11841
  98	1	5	0.042843	-15.7028	-5.82903	6.73963
  99	1	4	0.232532	-13.3204	-3.66655	6.42846
 100	1	5	0.035382	-17.937	-4.76382	7.64307
 101	1	5	0.041247	-17.8448	-4.75124	10.37
 102	1	5	0.06146	-16.2089	-7.78043	7.70323
 103	1	5	0.068364	-18.4552	-6.74801	8.59989
 104	1	5	0.055799	-15.6011	-6.02875	11.0612
 105	1	5	0.04347	-15.1882	-4.47554	10.3017
 106	1	5	0.076294	-14.1203	-6.47458	8.87066
 107	1	5	0.058767	-16.9296	-12.4413	10.7045
 108	1	5	0.056756	-19.2322	-11.5213	11.518
 109	1	5	0.029415	-19.0043	-10.8839	14.1344
 110	1	5	0.049793	-16.5423	-11.4932	14.8993
 111	1	5	0.063468	-16.4755	-10.1839	13.7126
 112	1	5	-0.012542	-19.2695	-13.4614	13.1287
 113	1	5	-0.012458	-17.0517	-14.2771	12.3825
 114	1	5	0.013933	-15.1721	-12.295	12.7766
 115	1	5	0.014892	-20.2491	-8.83891	12.1458
 116	1	5	0.04353	-19.4567	-6.49704	12.5901
 117	1	5	0.048722	-21.1336	-6.57014	12.0118
 118	1	5	0.053734	-19.8406	-6.06687	10.9081
 119	1	5	0.029251	-20.4446	-7.96678	9.21107
 120	1	5	0.025572	-21.7986	-8.40146	10.2752
 121	1	5	0.023611	-20.6063	-9.63117	9.80896
 122	1	5	0.021405	-14.1352	-9.46261	8.83786
 123	1	5	0.009991	-15.9015	-11.9519	8.52226
 124	1	5	0.026343	-14.5012	-11.523	7.51613
 125	1	5	0.026093	-15.9541	-10.5034	7.49642
 126	1	5	0.043016	-14.2513	-11.9982	10.55
 127	1	5	0.050907	-13.4052	-10.505	11.016
 128	1	5	0.051325	-12.8907	-11.4111	9.57838
 129	1	1	-0.439951	-7.34666	7.40936	8.50106
 130	1	1	0.043044	-8.14188	7.13362	9.63003
 131	1	1	0.126458	-8.83895	9.33938	8.19731
 132	1	1	0.016683	-9.28678	7.8553	9.95403
 133	1	1	0.121946	-7.70561	8.6163	7.87319
 134	1	2	0.005505	-9.91088	6.70487	10.7283
 135	1	1	-0.445809	-9.75888	8.93942	9.18656
 136	1	2	0.001585	-8.60623	5.88379	10.3525
 137	1	3	0.031166	-9.13614	4.71962	9.47373
 138	1	2	-0.048351	-11.0683	4.7038	11.0176
 139	1	1	-0.041771	-11.8403	3.46561	10.5957
 140	1	2	-0.107179	-9.75913	3.88456	10.6234
 141	1	3	-0.106774	-10.3801	5.33025	8.76861
 142	1	3	-0.025838	-11.0571	5.91283	10.0411
 143	1	1	-0.051955	-10.7044	2.75549	10.2458
 144	1	1	-0.09124	-12.043	1.10573	9.30714
 145	1	1	-0.099966	-13.1826	1.79234	9.68843
 146	1	1	-0.017311	-13.1555	3.08154	10.2645
 147	1	1	-0.020587	-10.7258	1.563	9.49277
 148	1	2	-0.042503	-14.1148	0.854469	8.92847
 149	1	2	0.004295	-12.7967	0.101096	8.46084
 150	1	3	0.00226	-12.8091	0.306312	6.91993
 151	1	3	-0.145049	-13.4873	1.68686	6.76042
 152	1	3	0.011953	-13.9122	-0.570945	6.26625
 153	1	3	0.014921	-15.2582	0.10418	6.7717
 154	1	3	0.025749	-14.7387	1.32421	7.59375
 155	1	3	0.154129	-9.51112	0.813339	8.95206
 156	1	3	-0.203386	-9.05229	1.35457	7.58336
 157	1	3	-0.113237	-8.33928	0.7806	9.95737
 158	1	3	0.129534	-14.3619	3.98827	10.4892
 159	1	3	-0.091829	-15.6035	3.21633	10.9876
 160	1	3	-0.19809	-14.6902	4.82074	9.23095
 161	1	4	0.228684	-6.63599	6.70508	8.08062
 162	1	5	0.042843	-10.0792	6.90888	11.7921
 163	1	4	0.232532	-10.7679	9.3324	9.25852
 164	1	5	0.035382	-7.96041	5.56907	11.1806
 165	1	5	0.041247	-8.39517	4.22482	8.83752
 166	1	5	0.06146	-11.187	4.97717	12.0729
 167	1	5	0.068364	-9.06174	3.64234	11.4342
 168	1	5	0.055799	-10.9966	4.57636	8.26177
 169	1	5	0.04347	-10.1166	6.10258	8.03927
 170	1	5	0.076294	-12.0026	6.44951	9.90095
 171	1	5	0.058767	-14.811	0.283761	9.55317
 172	1	5	0.056756	-12.6793	-0.943489	8.76949
 173	1	5	0.029415	-11.8331	0.214957	6.42973
 174	1	5	0.049793	-13.7274	1.92828	5.71515
 175	1	5	0.063468	-12.9021	2.51522	7.18115
 176	1	5	-0.012542	-13.8639	-0.650761	5.17211
 177	1	5	-0.012458	-15.9319	0.357338	5.94242
 178	1	5	0.013933	-15.4793	2.12596	7.68447
 179	1	5	0.014892	-9.81496	-0.229714	8.79304
 180	1	5	0.04353	-8.62932	2.35858	7.67588
 181	1	5	0.048722	-9.89324	1.40492	6.88318
 182	1	5	0.053734	-8.28514	0.703148	7.14679
 183	1	5	0.029251	-8.67625	0.402102	10.9307
 184	1	5	0.025572	-7.91197	1.77945	10.1057
 185	1	5	0.023611	-7.53957	0.12139	9.59719
 186	1	5	0.021405	-14.0964	4.70013	11.2818
 187	1	5	0.009991	-15.9921	2.54035	10.2168
 188	1	5	0.026343	-16.4064	3.91244	11.2605
 189	1	5	0.026093	-15.3571	2.62045	11.8755
 190	1	5	0.043016	-15.0233	4.18436	8.40557
 191	1	5	0.050907	-13.807	5.37093	8.89026
 192	1	5	0.051325	-15.4839	5.54824	9.44113
 193	1	1	-0.439951	-15.8712	4.16871	-0.792792
 194	1	1	0.043044	-15.117	3.4951	0.187159
 195	1	1	0.126458	-14.5447	2.86488	-2.40215
 196	1	1	0.016683	-14.0365	2.66995	-0.116859
 197	1	1	0.121946	-15.581	3.72581	-2.09481
 198	1	2	0.005505	-13.334	2.93599	1.21093
 199	1	1	-0.445809	-13.6334	2.38359	-1.43888
 200	1	2	0.001585	-14.5766	3.86217	1.55223
 201	1	3	0.031166	-13.9671	5.27832	1.68812
 202	1	2	-0.048351	-12.0379	4.1557	2.74124
 203	1	1	-0.041771	-11.2138	5.34963	3.20314
 204	1	2	-0.107179	-13.3057	5.05463	3.07155
 205	1	3	-0.106774	-12.7602	5.24827	0.70513
 206	1	3	-0.025838	-12.1295	3.92393	1.20792
 207	1	1	-0.051955	-12.3235	6.1225	3.5043
 208	1	1	-0.09124	-10.9799	7.57271	4.74073
 209	1	1	-0.099966	-9.85918	6.81643	4.42408
 210	1	1	-0.017311	-9.93319	5.58613	3.7365
 211	1	1	-0.020587	-12.2929	7.21133	4.39534
 212	1	2	-0.042503	-9.03506	7.40099	5.56024
 213	1	2	0.004295	-10.3209	8.24624	5.92606
 214	1	3	0.00226	-9.85242	9.70992	5.75123
 215	1	3	-0.145049	-8.85976	9.59949	4.57135
 216	1	3	0.011953	-8.85278	10.1	6.88012
 217	1	3	0.014921	-7.5561	9.26322	6.50672
 218	1	3	0.025749	-7.99172	8.4974	5.22033
 219	1	3	0.154129	-13.5112	7.82146	5.07995
 220	1	3	-0.203386	-14.6601	8.1244	4.094
 221	1	3	-0.113237	-13.9937	6.93426	6.24702
 222	1	3	0.129534	-8.83667	4.52765	3.71977
 223	1	3	-0.091829	-8.91107	3.64478	4.98187
 224	1	3	-0.19809	-7.42328	5.12709	3.54581
 225	1	4	0.228684	-16.4959	5.03052	-0.581079
 226	1	5	0.042843	-13.1875	2.05339	1.84441
 227	1	4	0.232532	-12.6646	1.96544	-1.69256
 228	1	5	0.035382	-15.2123	3.55656	2.39177
 229	1	5	0.041247	-14.6593	6.12393	1.59542
 230	1	5	0.06146	-11.8872	3.23567	3.3184
 231	1	5	0.068364	-13.997	4.71711	3.85247
 232	1	5	0.055799	-12.0938	6.11346	0.814908
 233	1	5	0.04347	-13.0588	5.1831	-0.34269
 234	1	5	0.076294	-11.2153	3.5907	0.701132
 235	1	5	0.058767	-8.66574	6.66792	6.2819
 236	1	5	0.056756	-10.8163	8.06441	6.88377
 237	1	5	0.029415	-10.6593	10.4379	5.60022
 238	1	5	0.049793	-8.30385	10.5309	4.39263
 239	1	5	0.063468	-9.32802	9.29074	3.62757
 240	1	5	-0.012542	-8.64471	11.175	6.96242
 241	1	5	-0.012458	-6.66942	9.89999	6.38854
 242	1	5	0.013933	-7.15147	8.16208	4.60011
 243	1	5	0.014892	-13.2061	8.78365	5.51199
 244	1	5	0.04353	-14.2966	8.72106	3.24776
 245	1	5	0.048722	-15.456	8.6919	4.59213
 246	1	5	0.053734	-15.1012	7.20117	3.70207
 247	1	5	0.029251	-14.8122	7.41916	6.79331
 248	1	5	0.025572	-13.1744	6.75299	6.95387
 249	1	5	0.023611	-14.3522	5.96273	5.88603
 250	1	5	0.021405	-9.01342	3.87573	2.8542
 251	1	5	0.009991	-8.72289	4.23386	5.88805
 252	1	5	0.026343	-8.16944	2.83759	4.93647
 253	1	5	0.026093	-9.90446	3.18815	5.07408
 254	1	5	0.043016	-7.11846	5.69395	4.43297
 255	1	5	0.050907	-7.39082	5.7989	2.67889
 256	1	5	0.051325	-6.68398	4.33222	3.38749
 257	1	1	-0.439951	-5.56299	12.0528	-3.47918
 258	1	1	0.043044	-6.91621	11.6757	-3.35532
 259	1	1	0.126458	-6.17794	14.0317	-2.19863
 260	1	1	0.016683	-7.84857	12.4405	-2.65457
 261	1	1	0.121946	-5.27239	13.3473	-3.00024
 262	1	2	0.005505	-8.67671	11.2446	-2.25124
 263	1	1	-0.445809	-7.47779	13.5805	-1.92456
 264	1	2	0.001585	-7.59641	10.3593	-2.99293
 265	1	3	0.031166	-8.41356	9.6222	-4.08527
 266	1	2	-0.048351	-10.2811	9.60724	-2.4682
 267	1	1	-0.041771	-11.3104	8.75208	-3.18337
 268	1	2	-0.107179	-9.18875	8.66772	-3.12465
 269	1	3	-0.106774	-9.47845	10.6772	-4.49284
 270	1	3	-0.025838	-9.9824	11.0028	-3.05859
 271	1	1	-0.051955	-10.356	7.89079	-3.70889
 272	1	1	-0.09124	-11.9864	6.20099	-3.8159
 273	1	1	-0.099966	-12.9656	7.09714	-3.39828
 274	1	1	-0.017311	-12.637	8.37652	-2.90305
 275	1	1	-0.020587	-10.614	6.51945	-3.89066
 276	1	2	-0.042503	-13.9272	5.99755	-2.97266
 277	1	2	0.004295	-12.7931	4.98443	-3.39882
 278	1	3	0.00226	-13.4678	4.14344	-4.50391
 279	1	3	-0.145049	-14.3726	5.18316	-5.20289
 280	1	3	0.011953	-14.5588	3.22089	-3.88483
 281	1	3	0.014921	-15.7174	4.24141	-3.51593
 282	1	3	0.025749	-15.1026	5.62023	-3.91511
 283	1	3	0.154129	-9.48426	5.49219	-3.93215
 284	1	3	-0.203386	-9.16593	4.9401	-2.52459
 285	1	3	-0.113237	-9.75509	4.34146	-4.92534
 286	1	3	0.129534	-13.5267	9.21371	-1.98665
 287	1	3	-0.091829	-13.4703	8.72688	-0.521813
 288	1	3	-0.19809	-14.9836	9.29459	-2.49236
 289	1	4	0.228684	-4.78075	11.3325	-3.69643
 290	1	5	0.042843	-8.79187	11.1243	-1.1673
 291	1	4	0.232532	-8.03749	13.9217	-1.05943
 292	1	5	0.035382	-6.97539	9.68621	-2.39021
 293	1	5	0.041247	-7.84209	9.15475	-4.89704
 294	1	5	0.06146	-10.3804	9.60426	-1.3759
 295	1	5	0.068364	-8.53763	8.08788	-2.4602
 296	1	5	0.055799	-10.2628	10.2598	-5.13737
 297	1	5	0.04347	-9.04265	11.5484	-4.99892
 298	1	5	0.076294	-10.7724	11.7587	-2.96678
 299	1	5	0.058767	-14.2401	6.03913	-1.92934
 300	1	5	0.056756	-12.3246	4.37403	-2.62284
 301	1	5	0.029415	-12.7806	3.62055	-5.17934
 302	1	5	0.049793	-15.0471	4.73194	-5.94429
 303	1	5	0.063468	-13.8172	5.99623	-5.68838
 304	1	5	-0.012542	-14.9111	2.41912	-4.54701
 305	1	5	-0.012458	-16.6657	3.99499	-4.0116
 306	1	5	0.013933	-15.8487	6.41057	-4.06369
 307	1	5	0.014892	-8.58187	6.00532	-4.28997
 308	1	5	0.04353	-10.0259	4.40671	-2.10306
 309	1	5	0.048722	-8.90391	5.7542	-1.83802
 310	1	5	0.053734	-8.31818	4.24476	-2.56309
 311	1	5	0.029251	-10.072	4.73415	-5.89976
 312	1	5	0.025572	-10.5345	3.66875	-4.55107
 313	1	5	0.023611	-8.84721	3.74503	-5.07967
 314	1	5	0.021405	-13.1366	10.2401	-1.99473
 315	1	5	0.009991	-12.4331	8.67048	-0.168637
 316	1	5	0.026343	-13.9219	7.73495	-0.414865
 317	1	5	0.026093	-14.0132	9.41668	0.136402
 318	1	5	0.043016	-15.5627	10.0063	-1.89095
 319	1	5	0.050907	-15.481	8.31962	-2.43397
 320	1	5	0.051325	-15.0106	9.63205	-3.53614
 321	1	1	-0.439951	0.237755	21.5133	1.21395
 322	1	1	0.043044	0.1106	22.0156	-0.102504
 323	1	1	0.126458	2.57021	21.0651	0.587329
 324	1	1	0.016683	1.10383	21.8402	-1.06528
 325	1	1	0.121946	1.55083	21.1033	1.5183
 326	1	2	0.005505	0.117189	21.7244	-2.21853
 327	1	1	-0.445809	2.37063	21.2944	-0.786327
 328	1	2	0.001585	-1.00105	22.0256	-1.13821
 329	1	3	0.031166	-1.91165	20.7869	-1.19159
 330	1	2	-0.048351	-1.43718	20.5924	-3.61544
 331	1	1	-0.041771	-2.44704	19.4836	-3.97134
 332	1	2	-0.107179	-2.53787	21.0837	-2.58675
 333	1	3	-0.106774	-0.906083	19.6331	-1.47211
 334	1	3	-0.025838	-0.220259	20.2754	-2.70449
 335	1	1	-0.051955	-3.42505	19.9907	-3.12398
 336	1	1	-0.09124	-4.62498	18.001	-3.24626
 337	1	1	-0.099966	-3.65205	17.4571	-4.07547
 338	1	1	-0.017311	-2.44911	18.1292	-4.39708
 339	1	1	-0.020587	-4.53108	19.2674	-2.63776
 340	1	2	-0.042503	-4.09419	16.0117	-3.80951
 341	1	2	0.004295	-5.16814	16.6495	-2.84213
 342	1	3	0.00226	-4.74503	16.1263	-1.44767
 343	1	3	-0.145049	-3.21147	15.9875	-1.5784
 344	1	3	0.011953	-5.10161	14.6298	-1.31797
 345	1	3	0.014921	-4.06488	13.9168	-2.26999
 346	1	3	0.025749	-3.25309	15.1216	-2.85256
 347	1	3	0.154129	-5.45429	19.7568	-1.50553
 348	1	3	-0.203386	-5.58713	21.3005	-1.45685
 349	1	3	-0.113237	-6.8849	19.1699	-1.60281
 350	1	3	0.129534	-1.30179	17.4141	-5.11096
 351	1	3	-0.091829	-0.206685	16.8961	-4.15296
 352	1	3	-0.19809	-0.691615	18.2794	-6.23515
 353	1	4	0.228684	-0.60839	21.3354	1.86976
 354	1	5	0.042843	0.239036	22.4568	-3.02486
 355	1	4	0.232532	3.05281	20.94	-1.5526
 356	1	5	0.035382	-1.53495	22.9796	-1.22158
 357	1	5	0.041247	-2.60025	20.6491	-0.349071
 358	1	5	0.06146	-1.19618	21.2765	-4.43753
 359	1	5	0.068364	-2.91891	22.1027	-2.72536
 360	1	5	0.055799	-1.39452	18.684	-1.70485
 361	1	5	0.04347	-0.209207	19.4575	-0.649523
 362	1	5	0.076294	0.615096	19.7331	-3.15602
 363	1	5	0.058767	-4.48172	15.4646	-4.67588
 364	1	5	0.056756	-6.22157	16.4771	-3.08871
 365	1	5	0.029415	-5.07508	16.7334	-0.595842
 366	1	5	0.049793	-2.75057	15.4586	-0.737192
 367	1	5	0.063468	-2.69644	16.9425	-1.70707
 368	1	5	-0.012542	-5.06792	14.2342	-0.293892
 369	1	5	-0.012458	-3.45743	13.1745	-1.73462
 370	1	5	0.013933	-2.27141	14.8267	-3.23882
 371	1	5	0.014892	-5.02796	19.4323	-0.547704
 372	1	5	0.04353	-6.33483	21.6082	-0.715175
 373	1	5	0.048722	-5.8953	21.6974	-2.43274
 374	1	5	0.053734	-4.64807	21.7803	-1.16738
 375	1	5	0.029251	-6.89477	18.0901	-1.42963
 376	1	5	0.025572	-7.32247	19.3677	-2.58972
 377	1	5	0.023611	-7.54339	19.6143	-0.845784
 378	1	5	0.021405	-1.7276	16.5275	-5.5991
 379	1	5	0.009991	0.380474	17.7155	-3.74158
 380	1	5	0.026343	0.484856	16.2295	-4.68328
 381	1	5	0.026093	-0.63402	16.341	-3.31234
 382	1	5	0.043016	0.0552983	17.7096	-6.80191
 383	1	5	0.050907	-0.202468	19.173	-5.82929
 384	1	5	0.051325	-1.47188	18.6039	-6.93535
 385	1	1	-0.439951	3.07216	8.7343	-1.31439
 386	1	1	0.043044	1.91328	9.5061	-1.10742
 387	1	1	0.126458	2.13688	7.31895	0.47459
 388	1	1	0.016683	1.00832	9.28496	-0.0783254
 389	1	1	0.121946	3.0734	7.58486	-0.504787
 390	1	2	0.005505	0.427975	10.6938	-0.145875
 391	1	1	-0.445809	1.1014	8.20945	0.830149
 392	1	2	0.001585	1.45425	10.9271	-1.34032
 393	1	3	0.031166	2.38491	12.048	-0.826455
 394	1	2	-0.048351	0.343611	13.0149	0.218092
 395	1	1	-0.041771	0.84901	14.3767	0.700019
 396	1	2	-0.107179	1.36335	13.198	-0.993146
 397	1	3	-0.106774	2.41706	11.8191	0.71112
 398	1	3	-0.025838	0.879387	11.7322	0.927439
 399	1	1	-0.051955	1.74049	14.5082	-0.350831
 400	1	1	-0.09124	2.19765	16.6869	0.263847
 401	1	1	-0.099966	1.2613	16.6007	1.28212
 402	1	1	-0.017311	0.487557	15.45	1.54918
 403	1	1	-0.020587	2.44842	15.6733	-0.677901
 404	1	2	-0.042503	1.242	18.1115	1.52641
 405	1	2	0.004295	2.34472	18.1813	0.389651
 406	1	3	0.00226	3.60418	18.6952	1.13393
 407	1	3	-0.145049	3.40921	18.1374	2.56199
 408	1	3	0.011953	3.45927	20.2033	1.45699
 409	1	3	0.014921	2.29488	20.2368	2.5369
 410	1	3	0.025749	1.98473	18.7102	2.74388
 411	1	3	0.154129	3.32045	15.7859	-1.92889
 412	1	3	-0.203386	3.4085	17.2128	-2.51503
 413	1	3	-0.113237	4.73538	15.2384	-1.64836
 414	1	3	0.129534	-0.6263	15.4209	2.59208
 415	1	3	-0.091829	-0.452973	14.2543	3.58778
 416	1	3	-0.19809	-2.02454	15.3881	1.94562
 417	1	4	0.228684	3.89223	9.02349	-1.96372
 418	1	5	0.042843	-0.638699	10.7412	-0.394157
 419	1	4	0.232532	0.499504	8.11427	1.7282
 420	1	5	0.035382	1.03007	11.1069	-2.33538
 421	1	5	0.041247	3.34989	12.1596	-1.33557
 422	1	5	0.06146	-0.727537	12.9753	-0.0127718
 423	1	5	0.068364	0.95379	13.2953	-2.00613
 424	1	5	0.055799	2.87645	12.6541	1.25585
 425	1	5	0.04347	2.93929	10.8959	0.993774
 426	1	5	0.076294	0.539606	11.5519	1.95415
 427	1	5	0.058767	0.277709	18.5967	1.35121
 428	1	5	0.056756	2.10737	18.7345	-0.520596
 429	1	5	0.029415	4.56108	18.4313	0.666681
 430	1	5	0.049793	4.12825	18.5488	3.28473
 431	1	5	0.063468	3.45484	17.0418	2.6164
 432	1	5	-0.012542	4.37591	20.6921	1.81281
 433	1	5	-0.012458	2.59939	20.7658	3.44952
 434	1	5	0.013933	1.52943	18.4787	3.71499
 435	1	5	0.014892	2.8721	15.1534	-2.70617
 436	1	5	0.04353	3.90909	17.1977	-3.49118
 437	1	5	0.048722	3.98059	17.8779	-1.85719
 438	1	5	0.053734	2.40937	17.6386	-2.65589
 439	1	5	0.029251	4.68861	14.1992	-1.30134
 440	1	5	0.025572	5.23701	15.8324	-0.873861
 441	1	5	0.023611	5.35166	15.2646	-2.55583
 442	1	5	0.021405	-0.565572	16.3479	3.17699
 443	1	5	0.009991	-0.581998	13.2861	3.09117
 444	1	5	0.026343	-1.19463	14.3209	4.39377
 445	1	5	0.026093	0.544884	14.2791	4.04347
 446	1	5	0.043016	-2.16673	16.2697	1.30913
 447	1	5	0.050907	-2.80999	15.3963	2.71143
 448	1	5	0.051325	-2.15449	14.4864	1.33493
 449	1	1	-0.439951	10.1303	9.16454	10.0945
 450	1	1	0.043044	9.74085	10.0665	9.08179
 451	1	1	0.126458	12.3999	9.50871	9.21552
 452	1	1	0.016683	10.6221	10.5559	8.12238
 453	1	1	0.121946	11.5292	9.00323	10.1632
 454	1	2	0.005505	9.53214	10.8102	7.10187
 455	1	1	-0.445809	11.9874	10.2205	8.07537
 456	1	2	0.001585	8.5175	10.2761	8.20142
 457	1	3	0.031166	7.87764	9.02422	7.54256
 458	1	2	-0.048351	8.03217	10.2848	5.41705
 459	1	1	-0.041771	7.2954	9.37815	4.44979
 460	1	2	-0.107179	6.99249	9.78134	6.5132
 461	1	3	-0.106774	9.03082	8.45642	6.66989
 462	1	3	-0.025838	9.39937	9.78267	5.94345
 463	1	1	-0.051955	6.38102	8.95468	5.39696
 464	1	1	-0.09124	5.05681	8.06925	3.70684
 465	1	1	-0.099966	5.9961	8.44564	2.75815
 466	1	1	-0.017311	7.14158	9.2129	3.06098
 467	1	1	-0.020587	5.15364	8.3436	5.08607
 468	1	2	-0.042503	5.07303	8.15143	1.58246
 469	1	2	0.004295	3.99489	7.75328	2.67356
 470	1	3	0.00226	3.70886	6.26782	2.37226
 471	1	3	-0.145049	5.08897	5.75321	1.89992
 472	1	3	0.011953	2.9175	6.13967	1.04017
 473	1	3	0.014921	4.01428	6.48216	-0.0601494
 474	1	3	0.025749	5.27153	6.82316	0.799372
 475	1	3	0.154129	4.07448	8.06568	6.12892
 476	1	3	-0.203386	2.66337	8.51058	5.68521
 477	1	3	-0.113237	4.07774	6.57488	6.52845
 478	1	3	0.129534	8.07143	9.8712	2.04704
 479	1	3	-0.091829	7.32113	10.7981	1.0667
 480	1	3	-0.19809	8.9121	8.81891	1.2934
 481	1	4	0.228684	9.4296	8.56756	10.6691
 482	1	5	0.042843	9.42932	11.8581	6.79601
 483	1	4	0.232532	12.6155	10.3693	7.20281
 484	1	5	0.035382	7.79046	10.9964	8.59447
 485	1	5	0.041247	7.36819	8.3189	8.21096
 486	1	5	0.06146	8.02342	11.3458	5.13927
 487	1	5	0.068364	6.31437	10.516	6.96382
 488	1	5	0.055799	8.69696	7.66887	5.98194
 489	1	5	0.04347	9.85316	8.05613	7.27184
 490	1	5	0.076294	10.2225	9.74098	5.21936
 491	1	5	0.058767	4.84608	9.00272	0.933782
 492	1	5	0.056756	3.09081	8.36615	2.73686
 493	1	5	0.029415	3.2717	5.70204	3.20413
 494	1	5	0.049793	5.04778	4.73051	1.49836
 495	1	5	0.063468	5.86315	5.78728	2.67755
 496	1	5	-0.012542	2.4563	5.15765	0.871192
 497	1	5	-0.012458	4.15173	5.66697	-0.782946
 498	1	5	0.013933	6.21656	6.74786	0.247403
 499	1	5	0.014892	4.31976	8.64205	7.03036
 500	1	5	0.04353	2.28419	7.88259	4.87087
 501	1	5	0.048722	2.6736	9.55383	5.34577
 502	1	5	0.053734	1.95627	8.43173	6.52028
 503	1	5	0.029251	3.79811	5.9392	5.67908
 504	1	5	0.025572	3.3691	6.38813	7.34504
 505	1	5	0.023611	5.07515	6.26844	6.86864
 506	1	5	0.021405	8.77689	10.5052	2.6
 507	1	5	0.009991	8.03243	11.3971	0.48425
 508	1	5	0.026343	6.66428	11.4881	1.61137
 509	1	5	0.026093	6.71107	10.2234	0.360659
 510	1	5	0.043016	9.49564	8.215	2.0
 511	1	5	0.050907	9.61292	9.3027	0.601562
 512	1	5	0.051325	8.2703	8.14271	0.715681
 513	1	1	-0.439951	11.1588	-0.878541	1.68622
 514	1	1	0.043044	11.0532	-0.317723	2.97067
 515	1	1	0.126458	10.3872	-2.9493	2.78075
 516	1	1	0.016683	10.4955	-0.989048	4.0518
 517	1	1	0.121946	10.8811	-2.25633	1.68852
 518	1	2	0.005505	10.111	0.293015	4.77299
 519	1	1	-0.445809	10.0382	-2.32052	3.99228
 520	1	2	0.001585	10.779	1.05409	3.54784
 521	1	3	0.031166	11.9948	1.78345	4.18304
 522	1	2	-0.048351	10.4697	2.17595	6.09235
 523	1	1	-0.041771	11.2575	3.11271	6.99347
 524	1	2	-0.107179	11.1871	2.90473	4.87938
 525	1	3	-0.106774	12.3999	0.860223	5.36661
 526	1	3	-0.025838	10.9815	0.70944	5.98705
 527	1	1	-0.051955	11.9146	3.72011	5.93215
 528	1	1	-0.09124	12.5399	5.50755	7.31068
 529	1	1	-0.099966	11.7954	4.95015	8.34107
 530	1	1	-0.017311	11.0408	3.77055	8.22183
 531	1	1	-0.020587	12.501	4.99769	5.99675
 532	1	2	-0.042503	11.639	6.26835	9.07944
 533	1	2	0.004295	12.5455	6.88669	7.943
 534	1	3	0.00226	13.819	7.32134	8.72221
 535	1	3	-0.145049	13.9097	6.27015	9.85265
 536	1	3	0.011953	13.5258	8.57191	9.60109
 537	1	3	0.014921	12.5438	8.00618	10.7136
 538	1	3	0.025749	12.4672	6.48753	10.3624
 539	1	3	0.154129	12.8398	5.79869	4.74224
 540	1	3	-0.203386	11.6455	6.67183	4.29801
 541	1	3	-0.113237	14.1183	6.65158	4.90235
 542	1	3	0.129534	9.99967	3.37474	9.2629
 543	1	3	-0.091829	10.0474	1.8679	9.59671
 544	1	3	-0.19809	8.58068	3.81881	8.84836
 545	1	4	0.228684	11.3011	-0.294879	0.782394
 546	1	5	0.042843	9.03438	0.417503	4.93848
 547	1	4	0.232532	9.37746	-2.76469	4.7301
 548	1	5	0.035382	10.1482	1.69694	2.92256
 549	1	5	0.041247	12.7956	2.09928	3.50257
 550	1	5	0.06146	9.3803	2.25994	6.17534
 551	1	5	0.068364	10.5727	3.49701	4.19087
 552	1	5	0.055799	13.1158	1.33337	6.05093
 553	1	5	0.04347	12.8253	-0.0956706	5.03437
 554	1	5	0.076294	10.9006	0.08649	6.88633
 555	1	5	0.058767	10.6074	6.62195	9.17207
 556	1	5	0.056756	12.1335	7.67907	7.3148
 557	1	5	0.029415	14.7272	7.41117	8.11345
 558	1	5	0.049793	14.6686	6.5169	10.6088
 559	1	5	0.063468	14.1019	5.25127	9.49194
 560	1	5	-0.012542	14.4117	9.05772	10.031
 561	1	5	-0.012458	12.9001	8.22518	11.7287
 562	1	5	0.013933	12.1828	5.84882	11.2081
 563	1	5	0.014892	13.0378	5.08425	3.93236
 564	1	5	0.04353	11.8678	7.1878	3.35575
 565	1	5	0.048722	11.4075	7.42811	5.05444
 566	1	5	0.053734	10.7513	6.05517	4.14329
 567	1	5	0.029251	13.9714	7.46492	5.62222
 568	1	5	0.025572	14.4029	7.10231	3.94339
 569	1	5	0.023611	14.9564	6.03322	5.24743
 570	1	5	0.021405	10.2413	3.90711	10.1924
 571	1	5	0.009991	11.0636	1.56816	9.8835
 572	1	5	0.026343	9.73799	1.25879	8.73972
 573	1	5	0.026093	9.37874	1.63676	10.4352
 574	1	5	0.043016	8.56421	4.89226	8.62082
 575	1	5	0.050907	7.86517	3.63329	9.65904
 576	1	5	0.051325	8.23773	3.2768	7.95966
 577	1	1	-0.439951	15.3362	-13.1957	-1.0281
 578	1	1	0.043044	14.9533	-11.8837	-1.31963
 579	1	1	0.126458	17.2938	-12.8189	-2.46013
 580	1	1	0.016683	15.6247	-11.1202	-2.24662
 581	1	1	0.121946	16.5783	-13.6491	-1.54725
 582	1	2	0.005505	14.3716	-10.3705	-2.68528
 583	1	1	-0.445809	16.779	-11.574	-2.88974
 584	1	2	0.001585	13.6186	-11.2099	-1.57872
 585	1	3	0.031166	13.0158	-10.1276	-0.631608
 586	1	2	-0.048351	14.951	-8.66726	-1.06717
 587	1	1	-0.041771	14.6359	-7.44576	-0.217506
 588	1	2	-0.107179	14.27	-9.52436	0.0832423
 589	1	3	-0.106774	12.6438	-9.04973	-1.68563
 590	1	3	-0.025838	14.0577	-8.89639	-2.30756
 591	1	1	-0.051955	14.0971	-8.19699	0.817741
 592	1	1	-0.09124	13.2219	-6.24896	1.78779
 593	1	1	-0.099966	13.6834	-5.51504	0.70688
 594	1	1	-0.017311	14.3334	-6.07838	-0.407984
 595	1	1	-0.020587	13.3095	-7.65264	1.85776
 596	1	2	-0.042503	12.7277	-4.36139	0.955939
 597	1	2	0.004295	12.2055	-5.19035	2.2
 598	1	3	0.00226	10.7096	-5.43599	1.86083
 599	1	3	-0.145049	10.7451	-5.59797	0.324219
 600	1	3	0.011953	9.88708	-4.11252	1.94001
 601	1	3	0.014921	10.4258	-3.29917	0.689521
 602	1	3	0.025749	11.4684	-4.25765	0.0573233
 603	1	3	0.154129	12.6234	-8.43821	2.97129
 604	1	3	-0.203386	11.3868	-9.21039	2.48789
 605	1	3	-0.113237	13.6024	-9.37286	3.71421
 606	1	3	0.129534	14.5905	-5.26382	-1.67616
 607	1	3	-0.091829	13.4705	-5.4128	-2.73385
 608	1	3	-0.19809	15.9848	-5.5281	-2.28594
 609	1	4	0.228684	14.649	-13.8577	-0.516096
 610	1	5	0.042843	14.0622	-10.5674	-3.71759
 611	1	4	0.232532	17.2133	-11.0409	-3.72945
 612	1	5	0.035382	12.8294	-11.8746	-1.94705
 613	1	5	0.041247	12.1954	-10.4742	0.00181847
 614	1	5	0.06146	16.0217	-8.81775	-1.24705
 615	1	5	0.068364	14.8913	-10.2549	0.612761
 616	1	5	0.055799	12.2674	-8.12468	-1.23641
 617	1	5	0.04347	11.9056	-9.41289	-2.41326
 618	1	5	0.076294	14.1647	-8.1806	-3.12563
 619	1	5	0.058767	13.2037	-3.39688	1.16479
 620	1	5	0.056756	12.362	-4.74672	3.1896
 621	1	5	0.029415	10.2463	-6.27426	2.39544
 622	1	5	0.049793	9.74277	-5.64116	-0.12533
 623	1	5	0.063468	11.3087	-6.47555	-0.00925007
 624	1	5	-0.012542	8.79659	-4.24027	1.91695
 625	1	5	-0.012458	9.61755	-2.98135	0.017424
 626	1	5	0.013933	11.6651	-4.04048	-0.998185
 627	1	5	0.014892	12.2641	-7.70994	3.71046
 628	1	5	0.04353	10.7095	-9.40063	3.32901
 629	1	5	0.048722	11.6692	-10.1801	2.06748
 630	1	5	0.053734	10.8419	-8.63893	1.72671
 631	1	5	0.029251	14.4449	-8.80124	4.12329
 632	1	5	0.025572	14.0047	-10.1414	3.04264
 633	1	5	0.023611	13.0992	-9.87885	4.54787
 634	1	5	0.021405	14.5854	-4.20819	-1.37371
 635	1	5	0.009991	13.2696	-4.44668	-3.21341
 636	1	5	0.026343	12.5362	-5.76636	-2.28214
 637	1	5	0.026093	13.7472	-6.11168	-3.52888
 638	1	5	0.043016	16.7694	-5.36938	-1.5355
 639	1	5	0.050907	16.1748	-4.8466	-3.12453
 640	1	5	0.051325	16.0714	-6.55583	-2.65757
 641	1	1	-0.439951	11.4807	-16.0698	7.06205
 642	1	1	0.043044	12.4872	-16.8285	7.67674
 643	1	1	0.126458	12.6919	-14.0794	7.88488