pySIMM System Object

1700 atoms
1942 bonds
4056 angles
7380 dihedrals
104 impropers

5 atom types
9 bond types
18 angle types
19 dihedral types
2 improper types

-162.926824 162.926824 xlo xhi
-162.926824 162.926824 ylo yhi
-162.926824 162.926824 zlo zhi

Masses

   1	12.01	# ca
   2	12.01	# cy
   3	12.01	# c3
   4	1.008	# ha
   5	1.008	# hc

Pair Coeffs

   1	0.086	3.3996695084235347	# ca
   2	0.086	3.3996695084235347	# cy
   3	0.1094	3.3996695084235347	# c3
   4	0.015	2.59964245953351	# ha
   5	0.0157	2.649532787749369	# hc

Bond Coeffs

   1	300.9	1.5375	# c3,c3
   2	305.9	1.5319	# c3,cy
   3	345.8	1.086	# ca,ha
   4	321.0	1.5156	# c3,ca
   5	285.0	1.5562	# cy,cy
   6	330.6	1.0969	# c3,hc
   7	333.3	1.0949	# cy,hc
   8	321.2	1.5154	# ca,cy
   9	461.1	1.3984	# ca,ca

Angle Coeffs

   1	66.62	120.02	# ca,ca,ca
   2	61.4	116.81	# ca,cy,cy
   3	44.83	114.79	# cy,cy,hc
   4	46.43	110.14	# c3,cy,hc
   5	63.15	112.07	# c3,c3,ca
   6	46.34	109.8	# c3,c3,hc
   7	39.4	107.58	# hc,c3,hc
   8	48.18	119.88	# ca,ca,ha
   9	63.53	120.77	# c3,ca,ca
  10	60.66	118.7	# c3,cy,cy
  11	63.51	120.86	# ca,ca,cy
  12	62.73	112.39	# c3,c3,cy
  13	46.29	110.75	# cy,c3,hc
  14	46.8	110.47	# ca,c3,hc
  15	62.8	113.57	# c3,cy,ca
  16	62.86	111.51	# c3,c3,c3
  17	67.9	96.03	# cy,c3,cy
  18	45.97	114.53	# ca,cy,hc

Dihedral Coeffs

   1	1	0.16	3	0.0	# hc,c3,cy,cy
   2	1	0.16	3	0.0	# cy,c3,cy,hc
   3	1	0.16	3	0.0	# c3,c3,cy,hc
   4	1	0.15	3	0.0	# hc,c3,cy,hc
   5	1	3.625	2	180	# X,ca,ca,X
   6	1	0.15555555555555556	3	0	# X,cy,cy,X
   7	3	0.18	3	0	0.25	2	180	0.2	1	180	# c3,c3,c3,c3
   8	1	0.16	3	0	# hc,c3,c3,c3
   9	1	0.0	2	0.0	# ca,ca,cy,cy
  10	1	0.0	2	0.0	# ca,ca,cy,c3
  11	1	0.15555555555555556	3	0	# X,c3,c3,X
  12	1	0.0	2	0	# X,c3,ca,X
  13	3	0.38	3	180.0	0.0	2	0.0	1.15	1	0.0	# ca,ca,cy,hc
  14	3	0.18	3	0.0	0.25	2	180.0	0.2	1	180.0	# cy,c3,cy,cy
  15	1	0.16	3	0.0	# cy,c3,cy,ca
  16	1	0.16	3	0.0	# c3,c3,cy,ca
  17	1	0.16	3	0.0	# hc,c3,cy,ca
  18	1	0.15	3	0	# hc,c3,c3,hc
  19	3	0.18	3	0.0	0.25	2	180.0	0.2	1	180.0	# c3,c3,cy,cy

Improper Coeffs

   1	1.1	-1	2	# ca,ca,ca,c3
   2	1.1	-1	2	# ca,X,X,ha

Atoms

   1	1	1	-0.439951	-13.7335	46.3394	7.37062
   2	1	1	0.043044	-12.3436	46.3437	7.14277
   3	1	1	0.126458	-13.562	48.7853	7.29693
   4	1	1	0.016683	-11.5888	47.5157	7.12176
   5	1	1	0.121946	-14.312	47.6199	7.31501
   6	1	2	0.005505	-10.3368	46.8294	7.63932
   7	1	1	-0.445809	-12.1559	48.7886	7.33008
   8	1	2	0.001585	-11.1942	45.5	7.66483
   9	1	3	0.031166	-11.2372	45.1137	9.16761
  10	1	2	-0.048351	-8.90809	45.9525	9.2593
  11	1	1	-0.041771	-8.45809	45.5606	10.6596
  12	1	2	-0.107179	-9.77215	44.6152	9.28003
  13	1	3	-0.106774	-11.1964	46.4872	9.89676
  14	1	3	-0.025838	-9.97591	47.072	9.12935
  15	1	1	-0.051955	-9.21294	44.3991	10.6746
  16	1	1	-0.09124	-8.77343	44.131	12.946
  17	1	1	-0.099966	-7.99872	45.279	12.9252
  18	1	1	-0.017311	-7.88338	46.1364	11.8133
  19	1	1	-0.020587	-9.51957	43.6694	11.8401
  20	1	2	-0.042503	-7.84304	45.3277	14.4348
  21	1	2	0.004295	-8.73195	44.0143	14.4637
  22	1	3	0.00226	-9.96164	44.4619	15.2884
  23	1	3	-0.145049	-10.1409	45.9404	14.8859
  24	1	3	0.011953	-9.51248	44.6315	16.7622
  25	1	3	0.014921	-8.64561	45.9206	16.7274
  26	1	3	0.025749	-8.6926	46.3396	15.2367
  27	1	3	0.154129	-10.5483	42.5412	11.8604
  28	1	3	-0.203386	-10.0952	41.3407	12.7204
  29	1	3	-0.113237	-11.9447	43.0369	12.2956
  30	1	3	0.129534	-7.22667	47.5124	11.8965
  31	1	3	-0.091829	-8.25507	48.6297	12.1793
  32	1	3	-0.19809	-6.37878	47.8441	10.6482
  33	1	4	0.228684	-14.2703	45.4678	7.73044
  34	1	5	0.042843	-9.48053	46.8576	6.9553
  35	1	4	0.232532	-11.5789	49.6456	7.66172
  36	1	5	0.035382	-10.8783	44.6897	6.99747
  37	1	5	0.041247	-12.0262	44.4133	9.46463
  38	1	5	0.06146	-8.10159	46.0102	8.5185
  39	1	5	0.068364	-9.50349	43.8373	8.55541
  40	1	5	0.055799	-11.0164	46.3924	10.9754
  41	1	5	0.04347	-12.1127	47.0738	9.75424
  42	1	5	0.076294	-9.66796	48.0913	9.3826
  43	1	5	0.058767	-6.81864	45.2318	14.8116
  44	1	5	0.056756	-8.25272	43.1124	14.8605
  45	1	5	0.029415	-10.8534	43.8364	15.1797
  46	1	5	0.049793	-10.8885	46.463	15.4988
  47	1	5	0.063468	-10.3908	46.0797	13.8258
  48	1	5	-0.012542	-8.94495	43.7629	17.1207
  49	1	5	-0.012458	-7.61922	45.7365	17.0705
  50	1	5	0.013933	-8.44465	47.3942	15.0704
  51	1	5	0.014892	-10.6497	42.1698	10.8322
  52	1	5	0.04353	-9.09933	40.9987	12.4116
  53	1	5	0.048722	-10.7915	40.5003	12.6081
  54	1	5	0.053734	-10.0541	41.6045	13.7837
  55	1	5	0.029251	-12.2617	43.8976	11.6967
  56	1	5	0.025572	-11.9523	43.3429	13.3452
  57	1	5	0.023611	-12.6926	42.2438	12.1705
  58	1	5	0.021405	-6.53529	47.4945	12.7492
  59	1	5	0.009991	-7.74776	49.5852	12.3625
  60	1	5	0.026343	-8.85997	48.3945	13.0614
  61	1	5	0.026093	-8.93906	48.7684	11.3378
  62	1	5	0.043016	-7.00833	47.979	9.76088
  63	1	5	0.050907	-5.66221	47.0388	10.443
  64	1	5	0.051325	-5.81148	48.7705	10.8022
  65	1	1	-0.439951	-20.1553	53.9118	0.0315088
  66	1	1	0.043044	-21.0604	53.572	1.05642
  67	1	1	0.126458	-20.9665	51.8686	-1.06536
  68	1	1	0.016683	-21.797	52.3895	1.06294
  69	1	1	0.121946	-20.2393	53.0436	-1.07219
  70	1	2	0.005505	-21.9154	52.3596	2.57725
  71	1	1	-0.445809	-21.7029	51.4174	0.0459966
  72	1	2	0.001585	-21.0707	53.7008	2.56881
  73	1	3	0.031166	-19.7603	53.3225	3.31012
  74	1	2	-0.048351	-21.2125	51.9418	4.75696
  75	1	1	-0.041771	-20.2695	51.4663	5.84689
  76	1	2	-0.107179	-20.349	53.2796	4.74472
  77	1	3	-0.106774	-19.5707	51.8182	2.96913
  78	1	3	-0.025838	-21.009	51.354	3.33503
  79	1	1	-0.051955	-19.5118	52.6265	5.8358
  80	1	1	-0.09124	-17.9358	51.5954	7.20652
  81	1	1	-0.099966	-18.6891	50.4326	7.20923
  82	1	1	-0.017311	-19.8536	50.2544	6.43292
  83	1	1	-0.020587	-18.2318	52.7284	6.42355
  84	1	2	-0.042503	-17.6065	49.6156	7.90041
  85	1	2	0.004295	-16.7441	50.9519	7.89364
  86	1	3	0.00226	-15.5058	50.5624	7.05061
  87	1	3	-0.145049	-16.1065	49.584	6.01298
  88	1	3	0.011953	-14.6568	49.6153	7.94434
  89	1	3	0.014921	-15.5121	48.2868	7.96214
  90	1	3	0.025749	-16.7339	48.6442	7.06967
  91	1	3	0.154129	-17.2513	53.8854	6.24374
  92	1	3	-0.203386	-16.3554	53.6974	4.99879
  93	1	3	-0.113237	-17.9505	55.2625	6.21938
  94	1	3	0.129534	-20.5874	48.934	6.21083
  95	1	3	-0.091829	-20.682	48.0837	7.49713
  96	1	3	-0.19809	-19.9723	48.1175	5.05224
  97	1	4	0.228684	-19.3809	54.6645	0.139871
  98	1	5	0.042843	-22.9414	52.4204	2.95874
  99	1	4	0.232532	-22.037	50.3915	0.163467
 100	1	5	0.035382	-21.5634	54.6024	2.95092
 101	1	5	0.041247	-18.9076	53.9865	3.13637
 102	1	5	0.06146	-22.2613	52.0282	5.06547
 103	1	5	0.068364	-20.8589	54.2012	5.0494
 104	1	5	0.055799	-18.7948	51.3355	3.57751
 105	1	5	0.04347	-19.3289	51.6533	1.91607
 106	1	5	0.076294	-21.2433	50.2928	3.19473
 107	1	5	0.058767	-17.8714	49.2154	8.88547
 108	1	5	0.056756	-16.4819	51.3666	8.87342
 109	1	5	0.029415	-14.9375	51.3997	6.63002
 110	1	5	0.049793	-15.3551	49.096	5.37887
 111	1	5	0.063468	-16.8472	50.0499	5.34988
 112	1	5	-0.012542	-14.4088	49.9984	8.94317
 113	1	5	-0.012458	-15.7486	47.9221	8.97058
 114	1	5	0.013933	-17.2499	47.7664	6.66777
 115	1	5	0.014892	-16.585	53.8891	7.11638
 116	1	5	0.04353	-15.8553	52.7233	5.01732
 117	1	5	0.048722	-15.5818	54.4741	4.95734
 118	1	5	0.053734	-16.9362	53.7501	4.07404
 119	1	5	0.029251	-18.5665	55.3832	5.32062
 120	1	5	0.025572	-17.2094	56.0715	6.22968
 121	1	5	0.023611	-18.596	55.3845	7.09832
 122	1	5	0.021405	-21.6176	49.1758	5.91827
 123	1	5	0.009991	-19.6965	47.7168	7.80819
 124	1	5	0.026343	-21.3293	47.2124	7.33705
 125	1	5	0.026093	-21.1054	48.6728	8.32036
 126	1	5	0.043016	-18.9742	47.751	5.30731
 127	1	5	0.050907	-19.8779	48.7262	4.14667
 128	1	5	0.051325	-20.5996	47.2495	4.81454
 129	1	1	-0.439951	-12.6999	46.5737	-5.3365
 130	1	1	0.043044	-12.105	46.882	-4.09213
 131	1	1	0.126458	-11.4628	48.5103	-6.1967
 132	1	1	0.016683	-11.3299	48.0277	-3.89452
 133	1	1	0.121946	-12.2529	47.3945	-6.3902
 134	1	2	0.005505	-11.7663	48.1877	-2.44426
 135	1	1	-0.445809	-11.0511	48.9517	-4.92481
 136	1	2	0.001585	-12.627	46.8796	-2.66108
 137	1	3	0.031166	-14.0901	47.3527	-2.47298
 138	1	2	-0.048351	-13.2335	48.8702	-0.736723
 139	1	1	-0.041771	-14.5157	49.4955	-0.208705
 140	1	2	-0.107179	-14.0811	47.5424	-0.930757
 141	1	3	-0.106774	-14.0486	48.8112	-2.9984
 142	1	3	-0.025838	-12.8273	49.2879	-2.17114
 143	1	1	-0.051955	-15.2522	48.3202	-0.340696
 144	1	1	-0.09124	-17.234	49.5657	-0.280904
 145	1	1	-0.099966	-16.5039	50.7389	-0.24713
 146	1	1	-0.017311	-15.095	50.7822	-0.285663
 147	1	1	-0.020587	-16.6611	48.2941	-0.462314
 148	1	2	-0.042503	-17.7088	51.6142	-0.575062
 149	1	2	0.004295	-18.5467	50.2653	-0.58284
 150	1	3	0.00226	-19.113	50.1927	-2.02253
 151	1	3	-0.145049	-17.9763	50.8285	-2.85272
 152	1	3	0.011953	-20.211	51.2744	-2.24345
 153	1	3	0.014921	-19.3763	52.6231	-2.24933
 154	1	3	0.025749	-17.9144	52.1325	-2.02684
 155	1	3	0.154129	-17.5189	47.0598	-0.743137
 156	1	3	-0.203386	-17.6843	46.7499	-2.24719
 157	1	3	-0.113237	-17.0341	45.8147	0.0313913
 158	1	3	0.129534	-14.2493	52.0493	-0.409974
 159	1	3	-0.091829	-14.64	53.1043	0.648645
 160	1	3	-0.19809	-14.2557	52.6614	-1.82909
 161	1	4	0.228684	-13.5412	45.8956	-5.43738
 162	1	5	0.042843	-10.9627	48.1387	-1.70041
 163	1	4	0.232532	-10.7178	49.967	-4.73534
 164	1	5	0.035382	-12.3582	45.9999	-2.06507
 165	1	5	0.041247	-14.8518	46.6993	-2.90239
 166	1	5	0.06146	-12.4011	48.833	-0.0240353
 167	1	5	0.068364	-13.762	46.6602	-0.363747
 168	1	5	0.055799	-14.9658	49.3734	-2.79716
 169	1	5	0.04347	-13.857	48.8574	-4.06258
 170	1	5	0.076294	-12.5006	50.3239	-2.31648
 171	1	5	0.058767	-17.9556	52.3553	0.189588
 172	1	5	0.056756	-19.3114	50.1425	0.188762
 173	1	5	0.029415	-19.4175	49.1923	-2.35108
 174	1	5	0.049793	-18.2547	50.9991	-3.9025
 175	1	5	0.063468	-17.0436	50.255	-2.83335
 176	1	5	-0.012542	-20.8041	51.1494	-3.1591
 177	1	5	-0.012458	-19.5326	53.2033	-3.16855
 178	1	5	0.013933	-17.1747	52.8532	-2.38266
 179	1	5	0.014892	-18.5248	47.2847	-0.364574
 180	1	5	0.04353	-16.8772	46.113	-2.61894
 181	1	5	0.048722	-17.7004	47.6701	-2.84163
 182	1	5	0.053734	-18.6244	46.2128	-2.42318
 183	1	5	0.029251	-16.9595	46.0324	1.10434
 184	1	5	0.025572	-16.0489	45.4855	-0.320626
 185	1	5	0.023611	-17.736	44.9812	-0.097168
 186	1	5	0.021405	-13.2101	51.7658	-0.198101
 187	1	5	0.009991	-15.6576	53.4784	0.481009
 188	1	5	0.026343	-13.954	53.9599	0.615074
 189	1	5	0.026093	-14.5966	52.6743	1.65734
 190	1	5	0.043016	-15.13	53.2989	-1.98261
 191	1	5	0.050907	-14.2564	51.8844	-2.60261
 192	1	5	0.051325	-13.3687	53.2897	-1.97695
 193	1	1	-0.439951	-18.9895	55.9126	-11.1183
 194	1	1	0.043044	-19.5955	55.1932	-10.0685
 195	1	1	0.126458	-20.3398	54.4793	-12.5904
 196	1	1	0.016683	-20.4284	54.0977	-10.2778
 197	1	1	0.121946	-19.4955	55.5542	-12.3825
 198	1	2	0.005505	-20.1167	53.4771	-8.92393
 199	1	1	-0.445809	-20.7652	53.6172	-11.5601
 200	1	2	0.001585	-19.1736	54.7301	-8.68552
 201	1	3	0.031166	-17.7565	54.1145	-8.55448
 202	1	2	-0.048351	-18.8756	52.2553	-7.36636
 203	1	1	-0.041771	-17.7019	51.4239	-6.87686
 204	1	2	-0.107179	-17.9333	53.5186	-7.13128
 205	1	3	-0.106774	-17.8212	52.861	-9.47291
 206	1	3	-0.025838	-19.1391	52.269	-8.89822
 207	1	1	-0.051955	-16.8826	52.5228	-6.66998
 208	1	1	-0.09124	-15.062	51.1062	-6.41887
 209	1	1	-0.099966	-15.8724	50.0089	-6.63664
 210	1	1	-0.017311	-17.2502	50.0894	-6.92211
 211	1	1	-0.020587	-15.4884	52.444	-6.4687
 212	1	2	-0.042503	-14.7123	49.0229	-6.62704
 213	1	2	0.004295	-13.7841	50.2956	-6.37807
 214	1	3	0.00226	-12.8557	50.3017	-7.61616
 215	1	3	-0.145049	-13.7788	49.7487	-8.72471
 216	1	3	0.011953	-11.8322	49.1292	-7.5372
 217	1	3	0.014921	-12.7401	47.8481	-7.76318
 218	1	3	0.025749	-14.1643	48.4624	-7.96124
 219	1	3	0.154129	-14.5326	53.6209	-6.29353
 220	1	3	-0.203386	-13.9706	54.12	-7.63883
 221	1	3	-0.113237	-15.1601	54.7799	-5.48823
 222	1	3	0.129534	-18.1647	48.9073	-7.22462
 223	1	3	-0.091829	-17.9099	47.7117	-6.2807
 224	1	3	-0.19809	-18.0744	48.4785	-8.70001
 225	1	4	0.228684	-18.1325	56.5641	-10.9818
 226	1	5	0.042843	-20.9798	53.3721	-8.25627
 227	1	4	0.232532	-21.1779	52.6299	-11.7414
 228	1	5	0.035382	-19.4473	55.4109	-7.87107
 229	1	5	0.041247	-16.9189	54.8021	-8.71031
 230	1	5	0.06146	-19.7803	52.1847	-6.75061
 231	1	5	0.068364	-18.2508	54.2417	-6.37055
 232	1	5	0.055799	-16.9586	52.1934	-9.34856
 233	1	5	0.04347	-17.9018	53.116	-10.5336
 234	1	5	0.076294	-19.5031	51.3389	-9.34954
 235	1	5	0.058767	-14.7815	48.2546	-5.85536
 236	1	5	0.056756	-13.2369	50.3807	-5.43755
 237	1	5	0.029415	-12.3948	51.2695	-7.84567
 238	1	5	0.049793	-13.2422	49.54	-9.65792
 239	1	5	0.063468	-14.6341	50.3988	-8.95267
 240	1	5	-0.012542	-11.0097	49.1876	-8.26247
 241	1	5	-0.012458	-12.3854	47.2362	-8.60317
 242	1	5	0.013933	-14.8498	47.8011	-8.50301
 243	1	5	0.014892	-13.677	53.2619	-5.70646
 244	1	5	0.04353	-14.7572	54.5657	-8.25424
 245	1	5	0.048722	-13.5243	53.2935	-8.20273
 246	1	5	0.053734	-13.1948	54.8787	-7.47806
 247	1	5	0.029251	-14.4066	55.5443	-5.261
 248	1	5	0.025572	-15.5677	54.4141	-4.53718
 249	1	5	0.023611	-15.9703	55.2621	-6.04798
 250	1	5	0.021405	-19.1984	49.2323	-7.04742
 251	1	5	0.009991	-16.9306	47.255	-6.46727
 252	1	5	0.026343	-18.6743	46.9376	-6.42232
 253	1	5	0.026093	-17.9462	48.035	-5.23333
 254	1	5	0.043016	-17.0643	48.1418	-8.95645
 255	1	5	0.050907	-18.3279	49.3229	-9.34708
 256	1	5	0.051325	-18.7751	47.6624	-8.91551
 257	1	1	-0.439951	-11.1015	45.783	-12.462
 258	1	1	0.043044	-11.4361	47.1397	-12.6208
 259	1	1	0.126458	-8.78034	46.608	-12.4669
 260	1	1	0.016683	-10.5094	48.1733	-12.5614
 261	1	1	0.121946	-9.71029	45.5846	-12.4747
 262	1	2	0.005505	-11.5477	49.2148	-12.1745
 263	1	1	-0.445809	-9.1261	47.9711	-12.387
 264	1	2	0.001585	-12.606	48.0312	-12.2732
 265	1	3	0.031166	-13.5195	48.4504	-13.4569
 266	1	2	-0.048351	-13.2742	50.7337	-12.5386
 267	1	1	-0.041771	-14.2627	51.5567	-13.3504
 268	1	2	-0.107179	-14.3029	49.5401	-12.6906
 269	1	3	-0.106774	-12.5799	49.2805	-14.3765
 270	1	3	-0.025838	-12.0046	50.2127	-13.2729
 271	1	1	-0.051955	-15.1414	50.4954	-13.5187
 272	1	1	-0.09124	-16.9106	51.9935	-13.8977
 273	1	1	-0.099966	-16.0454	53.0642	-13.6858
 274	1	1	-0.017311	-14.7018	52.8933	-13.2862
 275	1	1	-0.020587	-16.5238	50.6516	-13.7112
 276	1	2	-0.042503	-17.1669	54.0058	-13.2714
 277	1	2	0.004295	-18.1426	52.7901	-13.5103
 278	1	3	0.00226	-19.0774	53.301	-14.6329
 279	1	3	-0.145049	-18.1339	54.191	-15.4715
 280	1	3	0.011953	-20.0343	54.3988	-14.0793
 281	1	3	0.014921	-19.0592	55.628	-13.8385
 282	1	3	0.025749	-17.6738	55.0634	-14.2836
 283	1	3	0.154129	-17.4889	49.4826	-13.5368
 284	1	3	-0.203386	-18.0097	49.3863	-12.0903
 285	1	3	-0.113237	-18.6564	49.5127	-14.5467
 286	1	3	0.129534	-13.8573	53.9749	-12.6175
 287	1	3	-0.091829	-14.1913	54.109	-11.1167
 288	1	3	-0.19809	-13.958	55.3402	-13.3324
 289	1	4	0.228684	-11.821	45.0035	-12.2329
 290	1	5	0.042843	-11.3752	49.6834	-11.1988
 291	1	4	0.232532	-8.42984	48.7532	-12.1012
 292	1	5	0.035382	-13.1505	47.7342	-11.3692
 293	1	5	0.041247	-14.1108	47.6584	-13.9336
 294	1	5	0.06146	-13.0719	51.1229	-11.5341
 295	1	5	0.068364	-14.8013	49.1677	-11.7879
 296	1	5	0.055799	-13.1235	49.83	-15.1558
 297	1	5	0.04347	-11.8098	48.6677	-14.8625
 298	1	5	0.076294	-11.2719	50.9646	-13.5921
 299	1	5	0.058767	-17.077	54.4073	-12.2603
 300	1	5	0.056756	-18.6894	52.3884	-12.6551
 301	1	5	0.029415	-19.5883	52.5193	-15.2076
 302	1	5	0.049793	-18.6637	54.7667	-16.2437
 303	1	5	0.063468	-17.3165	53.6361	-15.9502
 304	1	5	-0.012542	-20.8728	54.6566	-14.7395
 305	1	5	-0.012458	-19.3853	56.5285	-14.3754
 306	1	5	0.013933	-16.9459	55.8393	-14.5499
 307	1	5	0.014892	-16.9285	48.5598	-13.7372
 308	1	5	0.04353	-18.6321	50.2496	-11.8295
 309	1	5	0.048722	-17.1687	49.3482	-11.3883
 310	1	5	0.053734	-18.6095	48.478	-11.9532
 311	1	5	0.029251	-18.2808	49.6352	-15.5705
 312	1	5	0.025572	-19.3488	50.334	-14.3314
 313	1	5	0.023611	-19.226	48.5759	-14.5052
 314	1	5	0.021405	-12.8065	53.6636	-12.6851
 315	1	5	0.009991	-14.1099	53.1382	-10.6129
 316	1	5	0.026343	-15.2092	54.4844	-10.9634
 317	1	5	0.026093	-13.4973	54.8041	-10.6282
 318	1	5	0.043016	-13.2226	56.0449	-12.9245
 319	1	5	0.050907	-14.952	55.7835	-13.2064
 320	1	5	0.051325	-13.763	55.2301	-14.4066
 321	1	1	-0.439951	-0.314014	39.8657	-16.6183
 322	1	1	0.043044	-1.46808	39.7763	-17.4223
 323	1	1	0.126458	-1.04019	37.7027	-15.7091
 324	1	1	0.016683	-2.39954	38.746	-17.3079
 325	1	1	0.121946	-0.104277	38.7102	-15.8425
 326	1	2	0.005505	-3.54081	39.5929	-17.8408
 327	1	1	-0.445809	-2.28979	37.7121	-16.3551
 328	1	2	0.001585	-2.4864	40.7696	-17.9574
 329	1	3	0.031166	-3.01554	41.8392	-16.9627
 330	1	2	-0.048351	-5.27442	41.1436	-17.7106
 331	1	1	-0.041771	-6.19012	42.1534	-17.0372
 332	1	2	-0.107179	-4.21677	42.3293	-17.8129
 333	1	3	-0.106774	-3.70563	40.9954	-15.8556
 334	1	3	-0.025838	-4.56572	40.1066	-16.7985
 335	1	1	-0.051955	-5.2635	43.1818	-17.1145
 336	1	1	-0.09124	-6.55907	44.4658	-15.6613
 337	1	1	-0.099966	-7.50105	43.4521	-15.6193
 338	1	1	-0.017311	-7.32718	42.1825	-16.2016
 339	1	1	-0.020587	-5.32375	44.3563	-16.3362
 340	1	2	-0.042503	-8.29862	44.0947	-14.5023
 341	1	2	0.004295	-7.21975	45.2595	-14.5391
 342	1	3	0.00226	-6.61166	45.2048	-13.1109
 343	1	3	-0.145049	-6.64164	43.6916	-12.7945
 344	1	3	0.011953	-7.63884	45.6987	-12.0474
 345	1	3	0.014921	-8.71295	44.5311	-12.0328
 346	1	3	0.025749	-8.15315	43.5217	-13.072
 347	1	3	0.154129	-4.1685	45.3511	-16.2517
 348	1	3	-0.203386	-4.65064	46.8185	-16.2796
 349	1	3	-0.113237	-3.26092	45.0913	-15.0291
 350	1	3	0.129534	-8.27511	41.016	-15.9277
 351	1	3	-0.091829	-7.79026	40.119	-14.7667
 352	1	3	-0.19809	-8.56508	40.1766	-17.1918
 353	1	4	0.228684	0.264191	40.7763	-16.4995
 354	1	5	0.042843	-3.98685	39.2287	-18.7737
 355	1	4	0.232532	-3.12157	37.0838	-16.0531
 356	1	5	0.035382	-2.27624	41.1516	-18.9632
 357	1	5	0.041247	-2.29297	42.5963	-16.6375
 358	1	5	0.06146	-5.65473	40.734	-18.6541
 359	1	5	0.068364	-3.94639	42.6689	-18.8198
 360	1	5	0.055799	-4.30892	41.6	-15.166
 361	1	5	0.04347	-2.99079	40.4187	-15.2644
 362	1	5	0.076294	-5.18645	39.3372	-16.3308
 363	1	5	0.058767	-9.32798	44.3611	-14.7664
 364	1	5	0.056756	-7.58007	46.2549	-14.8216
 365	1	5	0.029415	-5.63114	45.6782	-13.0029
 366	1	5	0.049793	-6.37149	43.4675	-11.7527
 367	1	5	0.063468	-6.00216	43.0914	-13.455
 368	1	5	-0.012542	-7.2218	45.897	-11.0512
 369	1	5	-0.012458	-8.87629	44.124	-11.0261
 370	1	5	0.013933	-8.53795	42.5048	-12.9362
 371	1	5	0.014892	-3.54608	45.2084	-17.1448
 372	1	5	0.04353	-3.79792	47.5048	-16.3527
 373	1	5	0.048722	-5.21059	47.0719	-15.3717
 374	1	5	0.053734	-5.30193	46.9939	-17.1452
 375	1	5	0.029251	-3.77876	45.31	-14.0918
 376	1	5	0.025572	-2.36481	45.7228	-15.0729
 377	1	5	0.023611	-2.93618	44.0461	-14.9918
 378	1	5	0.021405	-9.23488	41.4459	-15.6121
 379	1	5	0.009991	-8.57693	39.4134	-14.4715
 380	1	5	0.026343	-7.52511	40.7163	-13.888
 381	1	5	0.026093	-6.91019	39.5359	-15.0475
 382	1	5	0.043016	-9.35	39.4363	-16.9925
 383	1	5	0.050907	-7.67116	39.6379	-17.5275
 384	1	5	0.051325	-8.90751	40.8201	-18.012
 385	1	1	-0.439951	-1.77444	38.5466	-3.96578
 386	1	1	0.043044	-1.8017	39.7746	-4.65375
 387	1	1	0.126458	0.593866	39.0631	-3.57143
 388	1	1	0.016683	-0.681896	40.5833	-4.82748
 389	1	1	0.121946	-0.537703	38.3027	-3.33725
 390	1	2	0.005505	-1.25889	41.2733	-6.05226
 391	1	1	-0.445809	0.608573	40.1991	-4.40477
 392	1	2	0.001585	-2.50991	40.3132	-5.88679
 393	1	3	0.031166	-2.46873	39.4378	-7.17626
 394	1	2	-0.048351	-1.76984	41.5347	-8.30722
 395	1	1	-0.041771	-1.77239	41.1818	-9.78422
 396	1	2	-0.107179	-2.98243	40.5122	-8.1671
 397	1	3	-0.106774	-0.958806	39.3654	-7.5266
 398	1	3	-0.025838	-0.66156	40.8886	-7.42662
 399	1	1	-0.051955	-2.7953	40.255	-9.65593
 400	1	1	-0.09124	-2.33113	39.4574	-11.7988
 401	1	1	-0.099966	-1.37299	40.4448	-11.9516
 402	1	1	-0.017311	-0.942335	41.2955	-10.9181
 403	1	1	-0.020587	-3.05362	39.2439	-10.605
 404	1	2	-0.042503	-0.862098	39.8973	-13.268
 405	1	2	0.004295	-1.94706	38.7495	-13.0945
 406	1	3	0.00226	-1.07065	37.4704	-13.0384
 407	1	3	-0.145049	0.192587	37.9656	-12.2989
 408	1	3	0.011953	-0.429006	37.1606	-14.4266
 409	1	3	0.014921	0.649302	38.3139	-14.5844
 410	1	3	0.025749	0.480681	39.1304	-13.2709
 411	1	3	0.154129	-3.9743	38.0611	-10.3194
 412	1	3	-0.203386	-4.89333	37.7234	-11.5141
 413	1	3	-0.113237	-3.18123	36.8195	-9.85807
 414	1	3	0.129534	0.266197	42.2186	-11.0606
 415	1	3	-0.091829	1.55981	41.5901	-10.4999
 416	1	3	-0.19809	0.0169562	43.6151	-10.4488
 417	1	4	0.228684	-2.55571	37.7977	-4.04884
 418	1	5	0.042843	-1.43631	42.3478	-5.92538
 419	1	4	0.232532	1.52102	40.6383	-4.79527
 420	1	5	0.035382	-3.47828	40.7892	-5.69346
 421	1	5	0.041247	-3.01832	38.4893	-7.14479
 422	1	5	0.06146	-1.9779	42.5878	-8.08313
 423	1	5	0.068364	-3.95782	40.9348	-7.89801
 424	1	5	0.055799	-0.764259	38.9559	-8.52623
 425	1	5	0.04347	-0.398954	38.7721	-6.80197
 426	1	5	0.076294	0.371377	41.2044	-7.59904
 427	1	5	0.058767	-0.977727	40.5788	-14.1151
 428	1	5	0.056756	-2.74524	38.6908	-13.8389
 429	1	5	0.029415	-1.54991	36.5956	-12.588
 430	1	5	0.049793	0.99911	37.2227	-12.2935
 431	1	5	0.063468	0.00139313	38.2855	-11.2662
 432	1	5	-0.012542	0.0180047	36.1613	-14.5135
 433	1	5	-0.012458	1.6592	37.9178	-14.7548
 434	1	5	0.013933	1.3605	39.7332	-13.0184
 435	1	5	0.014892	-4.63014	38.3476	-9.48687
 436	1	5	0.04353	-5.62297	36.9532	-11.2346
 437	1	5	0.048722	-4.31649	37.3484	-12.3677
 438	1	5	0.053734	-5.44721	38.6136	-11.8382
 439	1	5	0.029251	-2.46932	37.0856	-9.06928
 440	1	5	0.025572	-2.61448	36.3764	-10.6815
 441	1	5	0.023611	-3.85805	36.0516	-9.46321
 442	1	5	0.021405	0.431573	42.3736	-12.1348
 443	1	5	0.009991	1.53276	41.5201	-9.40935
 444	1	5	0.026343	2.43196	42.1969	-10.7736
 445	1	5	0.026093	1.71159	40.5811	-10.8985
 446	1	5	0.043016	-0.0645188	43.5635	-9.35662
 447	1	5	0.050907	-0.910778	44.049	-10.8431
 448	1	5	0.051325	0.840324	44.2975	-10.6939
 449	1	1	-0.439951	3.49704	32.0295	-13.7954
 450	1	1	0.043044	2.35382	32.6553	-13.257
 451	1	1	0.126458	2.10732	30.003	-13.7919
 452	1	1	0.016683	1.18528	31.97	-12.9407
 453	1	1	0.121946	3.25481	30.6861	-14.149
 454	1	2	0.005505	0.719529	33.0184	-11.955
 455	1	1	-0.445809	1.04091	30.5769	-13.0786
 456	1	2	0.001585	2.05675	33.8039	-12.302
 457	1	3	0.031166	2.81934	33.844	-10.9443
 458	1	2	-0.048351	0.586326	34.1014	-9.92531
 459	1	1	-0.041771	0.897092	34.3526	-8.46596
 460	1	2	-0.107179	1.91717	34.9002	-10.2445
 461	1	3	-0.106774	2.39981	32.5149	-10.2586
 462	1	3	-0.025838	0.864056	32.6729	-10.4512
 463	1	1	-0.051955	2.05499	35.0667	-8.73782
 464	1	1	-0.09124	1.91168	36.0803	-6.61858
 465	1	1	-0.099966	0.755626	35.3496	-6.35599
 466	1	1	-0.017311	0.115535	34.538	-7.31434
 467	1	1	-0.020587	2.53919	36.0772	-7.88404
 468	1	2	-0.042503	0.286942	36.3086	-5.28299
 469	1	2	0.004295	1.59883	37.1367	-5.56565
 470	1	3	0.00226	2.32245	37.0959	-4.19683
 471	1	3	-0.145049	1.9649	35.6865	-3.67349
 472	1	3	0.011953	1.55467	37.9594	-3.14124
 473	1	3	0.014921	0.252924	37.0944	-2.86545
 474	1	3	0.025749	0.437534	35.8712	-3.80754
 475	1	3	0.154129	3.47708	37.1715	-8.38668
 476	1	3	-0.203386	2.69193	38.408	-8.87822
 477	1	3	-0.113237	4.54104	37.5699	-7.34056
 478	1	3	0.129534	-1.30209	33.97	-7.20849
 479	1	3	-0.091829	-2.33886	34.935	-6.59185
 480	1	3	-0.19809	-1.2888	32.6304	-6.44341
 481	1	4	0.228684	4.47974	32.4892	-13.8221
 482	1	5	0.042843	-0.226626	33.5034	-12.2236
 483	1	4	0.232532	0.264523	29.9977	-12.589
 484	1	5	0.035382	1.94469	34.7826	-12.7831
 485	1	5	0.041247	3.89415	34.0604	-10.9861
 486	1	5	0.06146	-0.36808	34.5243	-10.2627
 487	1	5	0.068364	1.84542	35.8418	-10.7941
 488	1	5	0.055799	2.69597	32.4684	-9.20262
 489	1	5	0.04347	2.80751	31.6345	-10.7673
 490	1	5	0.076294	0.227517	31.8682	-10.0624
 491	1	5	0.058767	-0.666902	36.7917	-5.49507
 492	1	5	0.056756	1.51203	38.1544	-5.94926
 493	1	5	0.029415	3.39913	37.3016	-4.23731
 494	1	5	0.049793	2.28567	35.5226	-2.63499
 495	1	5	0.063468	2.36471	34.8736	-4.29369
 496	1	5	-0.012542	2.11566	38.1673	-2.22061
 497	1	5	-0.012458	0.133228	36.8468	-1.80243
 498	1	5	0.013933	-0.156278	34.9942	-3.52106
 499	1	5	0.014892	4.0224	36.7717	-9.25175
 500	1	5	0.04353	2.14732	38.888	-8.0572
 501	1	5	0.048722	1.96284	38.1232	-9.64622
 502	1	5	0.053734	3.37131	39.1502	-9.31504
 503	1	5	0.029251	5.28473	38.2432	-7.78475
 504	1	5	0.025572	5.06801	36.6829	-6.96692
 505	1	5	0.023611	4.08899	38.0875	-6.48677
 506	1	5	0.021405	-1.65384	33.7538	-8.22542
 507	1	5	0.009991	-2.18981	35.0446	-5.5109
 508	1	5	0.026343	-3.35619	34.555	-6.74784
 509	1	5	0.026093	-2.27578	35.9259	-7.05537
 510	1	5	0.043016	-2.29109	32.1847	-6.41693
 511	1	5	0.050907	-0.948247	32.7754	-5.41019
 512	1	5	0.051325	-0.61146	31.9161	-6.92841
 513	1	1	-0.439951	7.57505	26.025	-2.69525
 514	1	1	0.043044	7.68489	26.66	-3.94641
 515	1	1	0.126458	10.0426	26.0386	-2.76327
 516	1	1	0.016683	8.88843	27.0879	-4.48671
 517	1	1	0.121946	8.83976	25.6818	-2.1814
 518	1	2	0.005505	8.2287	28.0631	-5.44446
 519	1	1	-0.445809	10.1477	26.8628	-3.89991
 520	1	2	0.001585	6.84636	27.5376	-4.8543
 521	1	3	0.031166	6.17844	26.8295	-6.06854
 522	1	2	-0.048351	7.1205	28.6983	-7.38074
 523	1	1	-0.041771	6.53669	28.4977	-8.76375
 524	1	2	-0.107179	5.75147	28.1129	-6.82776
 525	1	3	-0.106774	7.38432	26.3157	-6.905
 526	1	3	-0.025838	8.18029	27.6514	-6.93495
 527	1	1	-0.051955	5.35094	27.9558	-8.28855
 528	1	1	-0.09124	4.38307	28.2129	-10.4052
 529	1	1	-0.099966	5.54726	28.8214	-10.8502
 530	1	1	-0.017311	6.65773	29.0924	-10.0342
 531	1	1	-0.020587	4.16735	27.8799	-9.05371
 532	1	2	-0.042503	4.86688	29.4925	-12.0252
 533	1	2	0.004295	3.54489	28.7672	-11.5462
 534	1	3	0.00226	3.22073	27.8245	-12.7387
 535	1	3	-0.145049	4.62513	27.441	-13.2588
 536	1	3	0.011953	2.73416	28.6355	-13.979
 537	1	3	0.014921	4.04365	29.4137	-14.43
 538	1	3	0.025749	5.1165	28.8977	-13.4273
 539	1	3	0.154129	2.76962	27.652	-8.48715
 540	1	3	-0.203386	2.72392	26.5048	-7.45479
 541	1	3	-0.113237	2.18981	28.9547	-7.89501
 542	1	3	0.129534	7.75369	30.0691	-10.448
 543	1	3	-0.091829	9.16351	29.5943	-10.0328
 544	1	3	-0.19809	7.46427	31.4896	-9.91653
 545	1	4	0.228684	6.64369	25.9055	-2.15112
 546	1	5	0.042843	8.49701	29.1137	-5.28261
 547	1	4	0.232532	11.0663	27.345	-4.21912
 548	1	5	0.035382	6.19361	28.2499	-4.33623
 549	1	5	0.041247	5.39306	26.0989	-5.84083
 550	1	5	0.06146	7.3824	29.7339	-7.13414
 551	1	5	0.068364	5.10272	28.7749	-6.24251
 552	1	5	0.055799	7.09313	25.9705	-7.9054
 553	1	5	0.04347	7.9306	25.5025	-6.40979
 554	1	5	0.076294	9.1352	27.645	-7.47484
 555	1	5	0.058767	4.89929	30.5859	-12.0066
 556	1	5	0.056756	2.6906	29.3761	-11.238
 557	1	5	0.029415	2.58012	26.9694	-12.4895
 558	1	5	0.049793	4.59349	26.8896	-14.2094
 559	1	5	0.063468	5.2152	26.8557	-12.5415
 560	1	5	-0.012542	2.30475	28.0324	-14.7899
 561	1	5	-0.012458	4.28229	29.2426	-15.488
 562	1	5	0.013933	6.14736	28.9904	-13.7914
 563	1	5	0.014892	2.11624	27.3541	-9.31774
 564	1	5	0.04353	1.68609	26.2487	-7.20816
 565	1	5	0.048722	3.22838	26.7886	-6.52446
 566	1	5	0.053734	3.21024	25.6053	-7.85295
 567	1	5	0.029251	2.79505	29.3074	-7.05087
 568	1	5	0.025572	1.1639	28.7981	-7.53898
 569	1	5	0.023611	2.16788	29.748	-8.65259
 570	1	5	0.021405	7.7523	30.1275	-11.5445
 571	1	5	0.009991	9.29365	29.6294	-8.94495
 572	1	5	0.026343	9.93297	30.2342	-10.4825
 573	1	5	0.026093	9.3406	28.565	-10.3695
 574	1	5	0.043016	6.48108	31.8368	-10.2587
 575	1	5	0.050907	8.21873	32.2009	-10.2748
 576	1	5	0.051325	7.46813	31.5092	-8.82003
 577	1	1	-0.439951	14.3786	14.8813	-1.15165
 578	1	1	0.043044	13.7083	15.8885	-0.450596
 579	1	1	0.126458	12.5303	13.3909	-0.48555
 580	1	1	0.016683	12.553	15.6529	0.245693
 581	1	1	0.121946	13.7421	13.6117	-1.21815
 582	1	2	0.005505	12.7146	16.8618	1.14625
 583	1	1	-0.445809	11.9441	14.4016	0.307607
 584	1	2	0.001585	14.0618	17.1361	0.354444
 585	1	3	0.031166	13.8846	18.5943	-0.172103
 586	1	2	-0.048351	11.493	18.1053	-0.546048
 587	1	1	-0.041771	10.963	19.3861	-1.16011
 588	1	2	-0.107179	12.8481	18.424	-1.31302
 589	1	3	-0.106774	13.0363	19.2146	0.974824
 590	1	3	-0.025838	11.8891	18.1659	0.9564
 591	1	1	-0.051955	12.1455	19.68	-1.81849
 592	1	1	-0.09124	11.3189	21.8043	-2.31422
 593	1	1	-0.099966	10.1311	21.4979	-1.6713
 594	1	1	-0.017311	9.91814	20.3056	-0.948127
 595	1	1	-0.020587	12.4459	20.9577	-2.34355
 596	1	2	-0.042503	9.60801	22.9228	-1.7515
 597	1	2	0.004295	10.976	23.2782	-2.47565
 598	1	3	0.00226	11.6252	24.3083	-1.50974
 599	1	3	-0.145049	11.1557	23.8049	-0.12516
 600	1	3	0.011953	10.8605	25.6666	-1.54164
 601	1	3	0.014921	9.47609	25.2998	-0.856804
 602	1	3	0.025749	9.65103	23.8033	-0.481021
 603	1	3	0.154129	13.8019	21.4141	-2.87755
 604	1	3	-0.203386	14.706	21.983	-1.76177
 605	1	3	-0.113237	14.5328	20.31	-3.67284
 606	1	3	0.129534	8.73293	20.0105	-0.0306751
 607	1	3	-0.091829	7.39361	20.5194	-0.607993
 608	1	3	-0.19809	8.95404	20.5438	1.40289
 609	1	4	0.228684	15.3722	15.0434	-1.55789
 610	1	5	0.042843	12.8308	16.6327	2.21128
 611	1	4	0.232532	11.1161	14.1956	0.978385
 612	1	5	0.035382	14.9798	17.0553	0.946787
 613	1	5	0.041247	14.8141	19.1118	-0.429381
 614	1	5	0.06146	10.9303	17.2123	-0.840487
 615	1	5	0.068364	13.158	17.7345	-2.10648
 616	1	5	0.055799	12.6919	20.2334	0.753412
 617	1	5	0.04347	13.5751	19.2251	1.93173
 618	1	5	0.076294	11.0724	18.3116	1.67137
 619	1	5	0.058767	8.69128	23.0466	-2.33862
 620	1	5	0.056756	10.9109	23.6306	-3.51102
 621	1	5	0.029415	12.7098	24.4228	-1.61466
 622	1	5	0.049793	11.4005	24.5022	0.688584
 623	1	5	0.063468	11.5462	22.8132	0.13845
 624	1	5	-0.012542	11.3686	26.5023	-1.04248
 625	1	5	-0.012458	9.23789	25.9652	-0.0165093
 626	1	5	0.013933	8.9832	23.4919	0.327186
 627	1	5	0.014892	13.6154	22.2347	-3.58279
 628	1	5	0.04353	14.1846	22.7572	-1.18932
 629	1	5	0.048722	15.612	22.4304	-2.18915
 630	1	5	0.053734	15.0139	21.2045	-1.05887
 631	1	5	0.029251	14.8459	19.4869	-3.01989
 632	1	5	0.025572	15.4296	20.7141	-4.15875
 633	1	5	0.023611	13.8808	19.9002	-4.45457
 634	1	5	0.021405	8.64447	18.919	0.0480722
 635	1	5	0.009991	7.36416	21.6148	-0.646574
 636	1	5	0.026343	6.55344	20.1827	0.012095
 637	1	5	0.026093	7.23934	20.1349	-1.62402
 638	1	5	0.043016	9.91727	20.2146	1.80488
 639	1	5	0.050907	8.16491	20.1843	2.07485
 640	1	5	0.051325	8.94484	21.6358	1.43113