pySIMM System Object

852 atoms
951 bonds
1575 angles
2396 dihedrals
100 impropers

13 atom types
18 bond types
33 angle types
13 dihedral types
2 improper types

-144.592647 144.592647 xlo xhi
-144.592647 144.592647 ylo yhi
-144.592647 144.592647 zlo zhi

Masses

   1	14.01	# n2
   2	12.01	# c2
   3	14.01	# na
   4	12.01	# c1
   5	14.01	# nh
   6	12.01	# c3
   7	1.008	# hc
   8	1.008	# h1
   9	12.01	# ca
  10	1.008	# ha
  11	16.0	# os
  12	1.008	# hn
  13	1.008	# h5

Pair Coeffs

   1	0.17	3.249998523775958	# n2
   2	0.086	3.3996695084235347	# c2
   3	0.17	3.249998523775958	# na
   4	0.21	3.3996695084235347	# c1
   5	0.17	3.249998523775958	# nh
   6	0.1094	3.3996695084235347	# c3
   7	0.0157	2.649532787749369	# hc
   8	0.0157	2.471353044121301	# h1
   9	0.086	3.3996695084235347	# ca
  10	0.015	2.59964245953351	# ha
  11	0.17	3.0000123434657784	# os
  12	0.0157	1.069078461768407	# hn
  13	0.015	2.421462715905442	# h5

Bond Coeffs

   1	300.9	1.5375	# c3,c3
   2	416.2	1.3872	# c2,nh
   3	330.6	1.0969	# c3,hc
   4	397.4	1.4015	# c2,na
   5	345.8	1.086	# ca,ha
   6	625.0	1.307	# c1,c2
   7	330.6	1.0969	# c3,h1
   8	404.6	1.0121	# hn,nh
   9	376.6	1.3696	# ca,os
  10	505.3	1.3676	# n2,na
  11	327.7	1.4629	# c3,na
  12	338.4	1.0912	# c2,h5
  13	569.4	1.3343	# c2,c2
  14	551.6	1.303	# ca,n2
  15	389.2	1.3596	# c2,os
  16	594.1	1.2817	# c2,n2
  17	461.1	1.3984	# ca,ca
  18	482.1	1.3846	# c2,ca

Angle Coeffs

   1	39.4	107.58	# hc,c3,hc
   2	52.26	121.7	# h5,c2,n2
   3	70.06	121.62	# c1,c2,c2
   4	69.58	119.2	# ca,ca,os
   5	78.34	113.82	# n2,c2,n2
   6	70.52	117.58	# c2,n2,na
   7	46.39	109.56	# c3,c3,h1
   8	71.15	126.01	# c2,c2,n2
   9	62.86	111.51	# c3,c3,c3
  10	49.83	108.78	# h1,c3,na
  11	70.0	119.94	# c2,n2,ca
  12	65.52	112.88	# c3,c3,na
  13	69.36	117.0	# c2,c2,ca
  14	71.79	124.27	# n2,c2,nh
  15	46.34	109.8	# c3,c3,hc
  16	65.56	125.0	# c2,na,n2
  17	74.41	119.78	# n2,c2,os
  18	70.62	119.57	# ca,ca,n2
  19	48.18	119.88	# ca,ca,ha
  20	69.14	121.94	# c2,c2,na
  21	71.53	123.62	# n2,c2,na
  22	66.78	120.6	# c2,ca,ca
  23	69.3	121.81	# c2,c2,c2
  24	64.17	118.2	# c2,os,ca
  25	40.07	115.12	# hn,nh,hn
  26	48.59	115.09	# c2,nh,hn
  27	52.71	110.95	# h5,c2,os
  28	65.54	119.24	# c3,na,n2
  29	66.62	120.02	# ca,ca,ca
  30	71.11	118.18	# c2,n2,c2
  31	63.85	117.2	# c2,na,c3
  32	63.96	124.73	# c2,nh,c2
  33	73.36	114.3	# nh,c2,os

Dihedral Coeffs

   1	1	6.65	2	180	# X,c2,c2,X
   2	1	3.625	2	180	# X,ca,ca,X
   3	1	1.7	2	180	# X,n2,na,X
   4	1	0.7	2	180	# X,c2,ca,X
   5	1	0.15555555555555556	3	0	# X,c3,c3,X
   6	1	1.05	2	180	# X,c2,os,X
   7	1	0.0	3	180	# X,ca,n2,X
   8	1	4.15	2	180	# X,c2,n2,X
   9	1	0.9	2	180	# X,ca,os,X
  10	1	0.625	2	180	# X,c2,na,X
  11	1	0.0	2	0	# X,c3,na,X
  12	1	0.16	3	0	# hc,c3,c3,c3
  13	1	0.675	2	180	# X,c2,nh,X

Improper Coeffs

   1	1.1	-1	2	# ca,X,X,ha
   2	1.1	-1	2	# ca,ca,ca,c2

Atoms

   1	1	1	-0.261357	14.3711	-3.76954	-7.20157
   2	1	2	0.070556	13.3724	-4.42105	-6.6886
   3	1	2	0.0266	12.7707	-3.9687	-5.57634
   4	1	2	0.33777	14.8275	-2.66591	-6.66451
   5	1	1	-0.659679	14.2689	-2.21584	-5.57529
   6	1	2	0.428714	13.2611	-2.85182	-5.06863
   7	1	2	0.160826	11.7499	-4.37203	-4.79626
   8	1	3	0.04557	12.4943	-2.59488	-3.93424
   9	1	1	-0.463031	11.5286	-3.56866	-3.80765
  10	1	4	-0.07905	13.0513	-5.4973	-7.36066
  11	1	5	-0.061319	15.8842	-1.96185	-7.19761
  12	1	6	0.28436	12.5189	-1.29407	-3.23664
  13	1	6	-0.21175	13.8159	-1.09396	-2.41897
  14	1	7	0.07562	14.7001	-1.15815	-3.06448
  15	1	7	0.047171	13.9069	-1.8596	-1.63822
  16	1	7	0.053131	13.8244	-0.108294	-1.9376
  17	1	6	-0.120715	11.2881	-1.06392	-2.32894
  18	1	8	0.007856	12.4957	-0.517494	-4.01185
  19	1	7	0.031711	11.2615	-1.79771	-1.51299
  20	1	7	0.04419	10.3596	-1.16004	-2.90499
  21	1	7	-0.003555	11.309	-0.0599503	-1.88669
  22	1	9	-0.011509	11.0417	-5.54457	-5.03841
  23	1	9	-0.199369	9.74273	-5.48449	-5.60138
  24	1	9	-0.201771	8.99707	-6.6587	-5.84531
  25	1	9	0.15189	9.58929	-7.87414	-5.4927
  26	1	9	0.348083	10.8466	-7.93866	-4.9248
  27	1	9	-0.230673	11.5999	-6.79214	-4.67894
  28	1	10	0.174789	9.32567	-4.51677	-5.86735
  29	1	10	0.188672	8.00798	-6.62544	-6.29217
  30	1	10	0.201012	12.5794	-6.87027	-4.22257
  31	1	11	-0.381547	9.10225	-9.13902	-5.59718
  32	1	1	-0.706002	11.1505	-9.17641	-4.67539
  33	1	2	0.698504	10.1331	-9.87064	-5.06155
  34	1	12	0.214303	16.2686	-1.34251	-6.50725
  35	1	1	-0.261357	11.0065	3.59019	-11.3987
  36	1	2	0.070556	12.0596	2.83502	-11.3783
  37	1	2	0.0266	13.1656	3.19462	-12.0516
  38	1	2	0.33777	10.98	4.71664	-12.0621
  39	1	1	-0.659679	12.0484	5.10205	-12.7035
  40	1	2	0.428714	13.101	4.34709	-12.6967
  41	1	2	0.160826	14.3897	2.66532	-12.243
  42	1	3	0.04557	14.3558	4.49479	-13.2881
  43	1	1	-0.463031	15.1448	3.4087	-12.9839
  44	1	4	-0.07905	11.8962	1.75574	-10.6548
  45	1	5	-0.061319	9.84134	5.48161	-12.1305
  46	1	6	0.28436	14.7378	5.59585	-14.1909
  47	1	6	-0.21175	14.8058	6.96204	-13.4733
  48	1	7	0.07562	13.8126	7.27611	-13.1286
  49	1	7	0.047171	15.1931	7.73537	-14.1481
  50	1	7	0.053131	15.47	6.90549	-12.602
  51	1	6	-0.120715	13.8593	5.677	-15.4602
  52	1	8	0.007856	15.7564	5.37028	-14.5323
  53	1	7	0.031711	12.8321	5.9769	-15.218
  54	1	7	0.04419	13.8225	4.70398	-15.9658
  55	1	7	-0.003555	14.2677	6.40986	-16.1676
  56	1	9	-0.011509	14.7342	1.45007	-11.6637
  57	1	9	-0.199369	14.3797	0.233698	-12.3017
  58	1	9	-0.201771	14.59	-1.00697	-11.6618
  59	1	9	0.15189	15.1829	-0.978076	-10.3969
  60	1	9	0.348083	15.5812	0.199978	-9.79502
  61	1	9	-0.230673	15.3571	1.43695	-10.3966
  62	1	10	0.174789	13.8895	0.263822	-13.2725
  63	1	10	0.188672	14.2652	-1.94493	-12.103
  64	1	10	0.201012	15.6086	2.35596	-9.87999
  65	1	11	-0.381547	15.3527	-1.98799	-9.50713
  66	1	1	-0.706002	15.992	-0.0415077	-8.58526
  67	1	2	0.698504	15.8158	-1.30985	-8.40688
  68	1	12	0.214303	10.054	6.45511	-11.9876
  69	1	1	-0.261357	3.03707	4.96688	-19.2208
  70	1	2	0.070556	4.06705	5.01321	-18.4323
  71	1	2	0.0266	5.22238	5.56113	-18.8487
  72	1	2	0.33777	3.07736	5.43413	-20.4417
  73	1	1	-0.659679	4.18782	5.9764	-20.8643
  74	1	2	0.428714	5.21455	6.0416	-20.0802
  75	1	2	0.160826	6.44748	5.77208	-18.3262
  76	1	3	0.04557	6.48749	6.57123	-20.2836
  77	1	1	-0.463031	7.23204	6.40497	-19.1369
  78	1	4	-0.07905	3.80884	4.52717	-17.2452
  79	1	5	-0.061319	1.95444	5.38117	-21.2453
  80	1	6	0.28436	6.74865	7.58586	-21.3206
  81	1	6	-0.21175	8.19609	7.52339	-21.855
  82	1	7	0.07562	8.3387	8.24227	-22.6712
  83	1	7	0.047171	8.42162	6.52126	-22.2394
  84	1	7	0.053131	8.91578	7.75593	-21.0602
  85	1	6	-0.120715	6.40332	9.01556	-20.8468
  86	1	8	0.007856	6.08925	7.3549	-22.1656
  87	1	7	0.031711	7.02204	9.30517	-19.9895
  88	1	7	0.04419	5.35057	9.07745	-20.5445
  89	1	7	-0.003555	6.56822	9.74613	-21.6486
  90	1	9	-0.011509	6.85129	5.31414	-17.0715
  91	1	9	-0.199369	6.79081	3.92743	-16.7671
  92	1	9	-0.201771	7.29488	3.42168	-15.5514
  93	1	9	0.15189	7.87115	4.33841	-14.6719
  94	1	9	0.348083	7.95244	5.68684	-14.9575
  95	1	9	-0.230673	7.46472	6.20599	-16.1585
  96	1	10	0.174789	6.3742	3.23539	-17.4961
  97	1	10	0.188672	7.27821	2.36111	-15.3163
  98	1	10	0.201012	7.59841	7.25519	-16.4004
  99	1	11	-0.381547	8.52551	4.10603	-13.5091
 100	1	1	-0.706002	8.62566	6.28832	-14.0193
 101	1	2	0.698504	8.96912	5.3611	-13.184
 102	1	12	0.214303	1.11336	5.26752	-20.709
 103	1	1	-0.261357	7.0272	10.6056	-24.5744
 104	1	2	0.070556	5.85871	10.0869	-24.7669
 105	1	2	0.0266	4.82332	10.8581	-25.1375
 106	1	2	0.33777	7.25283	11.8855	-24.722
 107	1	1	-0.659679	6.2683	12.6555	-25.1026
 108	1	2	0.428714	5.095	12.1402	-25.3074
 109	1	2	0.160826	3.50869	10.6621	-25.3524
 110	1	3	0.04557	3.8774	12.7267	-25.6552
 111	1	1	-0.463031	2.89155	11.7625	-25.6336
 112	1	4	-0.07905	5.8541	8.79958	-24.5331
 113	1	5	-0.061319	8.46528	12.4515	-24.388
 114	1	6	0.28436	3.63302	14.1659	-25.4499
 115	1	6	-0.21175	3.3972	14.5174	-23.9633
 116	1	7	0.07562	3.26795	15.5992	-23.8364
 117	1	7	0.047171	4.25073	14.2048	-23.3488
 118	1	7	0.053131	2.4985	14.0162	-23.5817
 119	1	6	-0.120715	2.47192	14.697	-26.32
 120	1	8	0.007856	4.53925	14.6945	-25.7722
 121	1	7	0.031711	1.51758	14.2448	-26.0207
 122	1	7	0.04419	2.64362	14.4611	-27.3776
 123	1	7	-0.003555	2.37927	15.7863	-26.2253
 124	1	9	-0.011509	2.94216	9.42003	-25.0885
 125	1	9	-0.199369	3.11503	8.32875	-25.9795
 126	1	9	-0.201771	2.78584	7.01393	-25.5783
 127	1	9	0.15189	2.24344	6.85035	-24.2989
 128	1	9	0.348083	1.98797	7.92308	-23.4682
 129	1	9	-0.230673	2.3464	9.21857	-23.8256
 130	1	10	0.174789	3.60174	8.49416	-26.9384
 131	1	10	0.188672	3.01692	6.15107	-26.1962
 132	1	10	0.201012	2.25454	10.0235	-23.1053
 133	1	11	-0.381547	2.08328	5.71127	-23.5739
 134	1	1	-0.706002	1.67299	7.49551	-22.2857
 135	1	2	0.698504	1.77854	6.21121	-22.3304
 136	1	12	0.214303	8.39205	13.4507	-24.3105
 137	1	1	-0.261357	9.88772	9.18537	-16.2505
 138	1	2	0.070556	10.2835	9.53981	-17.4318
 139	1	2	0.0266	11.473	10.1399	-17.5937
 140	1	2	0.33777	10.6102	9.3907	-15.1793
 141	1	1	-0.659679	11.7719	9.97332	-15.3131
 142	1	2	0.428714	12.1775	10.3267	-16.4911
 143	1	2	0.160826	12.1668	10.6336	-18.637
 144	1	3	0.04557	13.3401	10.9623	-16.9179
 145	1	1	-0.463031	13.3009	11.1436	-18.2825
 146	1	4	-0.07905	9.41787	9.25681	-18.3717
 147	1	5	-0.061319	10.0931	8.99875	-13.9615
 148	1	6	0.28436	14.4643	11.2929	-16.0263
 149	1	6	-0.21175	14.5749	12.8136	-15.784
 150	1	7	0.07562	15.388	13.0388	-15.0835
 151	1	7	0.047171	13.6415	13.2038	-15.3592
 152	1	7	0.053131	14.7715	13.3443	-16.7244
 153	1	6	-0.120715	15.8048	10.7214	-16.5393
 154	1	8	0.007856	14.2685	10.8219	-15.0547
 155	1	7	0.031711	15.7237	9.63991	-16.7058
 156	1	7	0.04419	16.6053	10.8933	-15.8096
 157	1	7	-0.003555	16.0991	11.1916	-17.4865
 158	1	9	-0.011509	11.6539	10.5991	-19.9299
 159	1	9	-0.199369	11.8023	9.43552	-20.7283
 160	1	9	-0.201771	11.2378	9.36576	-22.0215
 161	1	9	0.15189	10.5426	10.4901	-22.4762
 162	1	9	0.348083	10.4185	11.634	-21.7144
 163	1	9	-0.230673	10.9583	11.7214	-20.4327
 164	1	10	0.174789	12.3395	8.57859	-20.3264
 165	1	10	0.188672	11.3134	8.47257	-22.6353
 166	1	10	0.201012	10.8232	12.6204	-19.8424
 167	1	11	-0.381547	9.84489	10.6714	-23.6275
 168	1	1	-0.706002	9.68625	12.5014	-22.3461
 169	1	2	0.698504	9.32586	11.9308	-23.4448
 170	1	12	0.214303	9.27574	8.41176	-14.0367
 171	1	1	-0.261357	13.6532	3.73564	-8.16608
 172	1	2	0.070556	13.3187	4.95556	-8.44518
 173	1	2	0.0266	12.5942	5.67667	-7.5752
 174	1	2	0.33777	13.2827	3.15262	-7.05585
 175	1	1	-0.659679	12.6052	3.84204	-6.17763
 176	1	2	0.428714	12.2809	5.06853	-6.44408
 177	1	2	0.160826	12.0474	6.90786	-7.56743
 178	1	3	0.04557	11.5386	6.00266	-5.72401
 179	1	1	-0.463031	11.3704	7.13667	-6.49
 180	1	4	-0.07905	13.7672	5.35097	-9.60847
 181	1	5	-0.061319	13.6236	1.83744	-6.83558
 182	1	6	0.28436	10.6751	5.60813	-4.59757
 183	1	6	-0.21175	9.2803	5.14083	-5.06798
 184	1	7	0.07562	8.74171	5.96098	-5.55955
 185	1	7	0.047171	8.67922	4.79152	-4.21947
 186	1	7	0.053131	9.37158	4.31328	-5.78289
 187	1	6	-0.120715	10.548	6.72342	-3.53593
 188	1	8	0.007856	11.156	4.75467	-4.10278
 189	1	7	0.031711	11.5397	7.04547	-3.19449
 190	1	7	0.04419	9.9886	6.36624	-2.66258
 191	1	7	-0.003555	10.0253	7.59931	-3.94127
 192	1	9	-0.011509	12.0647	7.70566	-8.70802
 193	1	9	-0.199369	13.2209	8.4271	-9.10875
 194	1	9	-0.201771	13.2622	9.09548	-10.3564
 195	1	9	0.15189	12.1132	9.03945	-11.1535
 196	1	9	0.348083	10.9729	8.39067	-10.7332
 197	1	9	-0.230673	10.9163	7.7046	-9.52545
 198	1	10	0.174789	14.1039	8.41435	-8.4731
 199	1	10	0.188672	14.1581	9.59628	-10.7119
 200	1	10	0.201012	10.0277	7.1482	-9.2489
 201	1	11	-0.381547	11.9144	9.44386	-12.4389
 202	1	1	-0.706002	10.1028	8.3714	-11.6928
 203	1	2	0.698504	10.646	8.97343	-12.6971
 204	1	12	0.214303	14.4937	1.61492	-7.29203
 205	1	1	-0.261357	9.82084	-3.09272	-12.7085
 206	1	2	0.070556	10.0425	-2.81095	-11.4636
 207	1	2	0.0266	10.0085	-3.77796	-10.5306
 208	1	2	0.33777	9.56019	-4.3104	-13.1046
 209	1	1	-0.659679	9.54526	-5.27072	-12.2214
 210	1	2	0.428714	9.76054	-4.99884	-10.9745
 211	1	2	0.160826	10.1512	-3.83268	-9.1926
 212	1	3	0.04557	9.75705	-5.8015	-9.83335
 213	1	1	-0.463031	9.98928	-5.0249	-8.72395
 214	1	4	-0.07905	10.2353	-1.53086	-11.2704
 215	1	5	-0.061319	9.19427	-4.53624	-14.4106
 216	1	6	0.28436	9.43118	-7.23851	-9.80178
 217	1	6	-0.21175	10.594	-8.11962	-10.3076
 218	1	7	0.07562	10.3493	-9.18315	-10.1988
 219	1	7	0.047171	11.5059	-7.92079	-9.73022
 220	1	7	0.053131	10.8062	-7.9211	-11.3658
 221	1	6	-0.120715	8.10933	-7.59164	-10.5221
 222	1	8	0.007856	9.283	-7.49234	-8.7442
 223	1	7	0.031711	7.80491	-8.6186	-10.2858
 224	1	7	0.04419	8.21291	-7.51525	-11.6115
 225	1	7	-0.003555	7.30268	-6.91839	-10.2052
 226	1	9	-0.011509	10.4432	-2.70502	-8.43321
 227	1	9	-0.199369	9.49373	-2.18291	-7.51596
 228	1	9	-0.201771	9.77182	-1.01975	-6.75947
 229	1	9	0.15189	11.016	-0.411787	-6.95808
 230	1	9	0.348083	11.941	-0.935099	-7.83552
 231	1	9	-0.230673	11.7004	-2.0833	-8.57684
 232	1	10	0.174789	8.53066	-2.67913	-7.41129
 233	1	10	0.188672	9.04807	-0.596314	-6.06944
 234	1	10	0.201012	12.455	-2.45808	-9.25997
 235	1	11	-0.381547	11.538	0.730579	-6.42594
 236	1	1	-0.706002	12.9878	-0.180464	-7.86464
 237	1	2	0.698504	12.7522	0.801679	-7.07126
 238	1	12	0.214303	9.06459	-3.66726	-14.8975
 239	1	1	-0.261357	1.4236	-9.57741	-14.1453
 240	1	2	0.070556	2.50036	-9.03871	-14.6232
 241	1	2	0.0266	2.51283	-8.56741	-15.8789
 242	1	2	0.33777	0.318774	-9.68262	-14.8394
 243	1	1	-0.659679	0.312508	-9.23972	-16.0706
 244	1	2	0.428714	1.38525	-8.69607	-16.5573
 245	1	2	0.160826	3.42365	-7.9664	-16.667
 246	1	3	0.04557	1.66588	-8.1489	-17.81
 247	1	1	-0.463031	2.95855	-7.67699	-17.8369
 248	1	4	-0.07905	3.4968	-9.01026	-13.7753
 249	1	5	-0.061319	-0.831255	-10.255	-14.3238
 250	1	6	0.28436	0.657673	-7.93709	-18.8607
 251	1	6	-0.21175	1.21715	-8.23442	-20.2709
 252	1	7	0.07562	1.63231	-9.24889	-20.3139
 253	1	7	0.047171	2.01799	-7.53011	-20.5311
 254	1	7	0.053131	0.429964	-8.15419	-21.0304
 255	1	6	-0.120715	0.065259	-6.5129	-18.8047
 256	1	8	0.007856	-0.161359	-8.64521	-18.682
 257	1	7	0.031711	-0.709442	-6.38186	-19.5703
 258	1	7	0.04419	0.846133	-5.76	-18.9726
 259	1	7	-0.003555	-0.389795	-6.32093	-17.8248
 260	1	9	-0.011509	4.72376	-7.71192	-16.2435
 261	1	9	-0.199369	5.70364	-8.73453	-16.3276
 262	1	9	-0.201771	7.03945	-8.49705	-15.9359
 263	1	9	0.15189	7.35015	-7.21607	-15.4724
 264	1	9	0.348083	6.40501	-6.21243	-15.403
 265	1	9	-0.230673	5.07901	-6.42505	-15.7797
 266	1	10	0.174789	5.41968	-9.71354	-16.7081
 267	1	10	0.188672	7.80405	-9.26613	-15.9987
 268	1	10	0.201012	4.35766	-5.61772	-15.7272
 269	1	11	-0.381547	8.54099	-6.71067	-15.0575
 270	1	1	-0.706002	6.96711	-5.11809	-14.9878
 271	1	2	0.698504	8.19562	-5.42173	-14.7349
 272	1	12	0.214303	-1.59811	-10.3219	-14.9683
 273	1	1	-0.261357	-0.638887	-8.46433	-5.74043
 274	1	2	0.070556	-1.0416	-9.20914	-6.72246
 275	1	2	0.0266	-1.13804	-10.5406	-6.56927
 276	1	2	0.33777	-0.30827	-8.96475	-4.57563
 277	1	1	-0.659679	-0.456258	-10.2455	-4.37942
 278	1	2	0.428714	-0.845159	-10.9963	-5.36138
 279	1	2	0.160826	-1.47195	-11.5899	-7.35002
 280	1	3	0.04557	-1.02354	-12.3743	-5.44112
 281	1	1	-0.463031	-1.43349	-12.7157	-6.71148
 282	1	4	-0.07905	-1.3311	-8.51739	-7.79572
 283	1	5	-0.061319	0.219274	-8.18197	-3.56866
 284	1	6	0.28436	-0.865683	-13.2722	-4.27894
 285	1	6	-0.21175	0.602476	-13.3748	-3.8033
 286	1	7	0.07562	0.995293	-12.3897	-3.52429
 287	1	7	0.047171	1.24159	-13.7845	-4.59548
 288	1	7	0.053131	0.682922	-14.025	-2.92362
 289	1	6	-0.120715	-1.44197	-14.6878	-4.51233
 290	1	8	0.007856	-1.44278	-12.826	-3.45891
 291	1	7	0.031711	-2.49851	-14.6337	-4.80315
 292	1	7	0.04419	-1.37427	-15.29	-3.59802
 293	1	7	-0.003555	-0.893101	-15.2109	-5.30607
 294	1	9	-0.011509	-1.77304	-11.4695	-8.70888
 295	1	9	-0.199369	-3.01831	-11.9357	-9.20844
 296	1	9	-0.201771	-3.33127	-11.8626	-10.5868
 297	1	9	0.15189	-2.36067	-11.32	-11.4361
 298	1	9	0.348083	-1.14108	-10.8886	-10.9604
 299	1	9	-0.230673	-0.807084	-10.9621	-9.61005
 300	1	10	0.174789	-3.73753	-12.3636	-8.5128
 301	1	10	0.188672	-4.27992	-12.2164	-10.98
 302	1	10	0.201012	0.16876	-10.6252	-9.2778
 303	1	11	-0.381547	-2.37842	-11.133	-12.7865
 304	1	1	-0.706002	-0.423418	-10.4516	-11.9478
 305	1	2	0.698504	-1.13492	-10.5912	-13.0154
 306	1	12	0.214303	0.248624	-8.65017	-2.68139
 307	1	1	-0.261357	-0.187868	-4.68189	-9.04955
 308	1	2	0.070556	0.72159	-4.66409	-8.13986
 309	1	2	0.0266	1.90809	-4.07641	-8.36542
 310	1	2	0.33777	-0.0356921	-4.0949	-10.2054
 311	1	1	-0.659679	1.12599	-3.55775	-10.4814
 312	1	2	0.428714	2.06014	-3.5614	-9.57386
 313	1	2	0.160826	3.01993	-3.85119	-7.63326
 314	1	3	0.04557	3.33978	-3.00977	-9.54707
 315	1	1	-0.463031	3.9182	-3.21088	-8.31
 316	1	4	-0.07905	0.252546	-5.22738	-7.05545
 317	1	5	-0.061319	-1.12643	-3.94524	-11.0468
 318	1	6	0.28436	3.99227	-2.41901	-10.7276
 319	1	6	-0.21175	4.99365	-3.39299	-11.3872
 320	1	7	0.07562	4.49508	-4.33033	-11.6639
 321	1	7	0.047171	5.81651	-3.63316	-10.7016
 322	1	7	0.053131	5.42172	-2.95629	-12.2981
 323	1	6	-0.120715	4.67245	-1.07102	-10.4028
 324	1	8	0.007856	3.2083	-2.20886	-11.4661
 325	1	7	0.031711	5.06376	-0.603099	-11.3146
 326	1	7	0.04419	5.50662	-1.21125	-9.70345
 327	1	7	-0.003555	3.95607	-0.376245	-9.94615
 328	1	9	-0.011509	3.00501	-4.28142	-6.31043
 329	1	9	-0.199369	2.49136	-3.41186	-5.31584
 330	1	9	-0.201771	1.95473	-3.93389	-4.12003
 331	1	9	0.15189	1.99238	-5.31859	-3.9409
 332	1	9	0.348083	2.6004	-6.15624	-4.8584
 333	1	9	-0.230673	3.12244	-5.66436	-6.05273
 334	1	10	0.174789	2.35419	-2.35739	-5.54699
 335	1	10	0.188672	1.39126	-3.31299	-3.43601
 336	1	10	0.201012	3.37859	-6.36092	-6.84333
 337	1	11	-0.381547	1.15809	-6.06943	-3.17033
 338	1	1	-0.706002	2.15787	-7.36201	-4.68651
 339	1	2	0.698504	1.26978	-7.30547	-3.75342
 340	1	12	0.214303	-0.944451	-3.89985	-12.0331
 341	1	1	-0.261357	-10.1351	-6.1578	-7.03745
 342	1	2	0.070556	-9.11676	-5.67588	-7.6887
 343	1	2	0.0266	-8.63045	-6.30508	-8.77657
 344	1	2	0.33777	-10.7315	-7.25929	-7.41901
 345	1	1	-0.659679	-10.3314	-7.84236	-8.50922
 346	1	2	0.428714	-9.32733	-7.36163	-9.16275
 347	1	2	0.160826	-7.57619	-6.18988	-9.62279
 348	1	3	0.04557	-8.69881	-7.83815	-10.3028
 349	1	1	-0.463031	-7.57602	-7.09171	-10.5538
 350	1	4	-0.07905	-8.70375	-4.55068	-7.16286
 351	1	5	-0.061319	-11.5964	-7.98419	-6.63488
 352	1	6	0.28436	-9.08885	-9.08748	-10.9754
 353	1	6	-0.21175	-7.95729	-10.1374	-10.9579
 354	1	7	0.07562	-7.63762	-10.3356	-9.92738
 355	1	7	0.047171	-7.08525	-9.7819	-11.5216
 356	1	7	0.053131	-8.29463	-11.0824	-11.4003
 357	1	6	-0.120715	-9.59423	-8.83391	-12.4111
 358	1	8	0.007856	-9.92979	-9.51832	-10.4181
 359	1	7	0.031711	-10.0339	-9.74599	-12.8333
 360	1	7	0.04419	-8.77408	-8.50976	-13.0641
 361	1	7	-0.003555	-10.3656	-8.0531	-12.4176
 362	1	9	-0.011509	-6.45448	-5.35934	-9.47371
 363	1	9	-0.199369	-5.88889	-5.11241	-8.19196
 364	1	9	-0.201771	-4.66732	-4.42895	-8.04063
 365	1	9	0.15189	-3.99647	-4.05696	-9.20303
 366	1	9	0.348083	-4.46854	-4.36457	-10.4604
 367	1	9	-0.230673	-5.70059	-5.00056	-10.6257
 368	1	10	0.174789	-6.3477	-5.52755	-7.30018
 369	1	10	0.188672	-4.20294	-4.29234	-7.06785
 370	1	10	0.201012	-6.00922	-5.30789	-11.6187
 371	1	11	-0.381547	-2.71556	-3.65729	-9.32259
 372	1	1	-0.706002	-3.50032	-4.23525	-11.3269
 373	1	2	0.698504	-2.45519	-3.88634	-10.6502
 374	1	12	0.214303	-11.745	-8.91949	-6.96809
 375	1	1	-0.261357	-18.5178	-4.28702	-1.7176
 376	1	2	0.070556	-17.8854	-5.18262	-2.40692
 377	1	2	0.0266	-18.3755	-5.59269	-3.58715
 378	1	2	0.33777	-19.6284	-3.74501	-2.14771
 379	1	1	-0.659679	-20.1315	-4.13676	-3.28507
 380	1	2	0.428714	-19.5196	-5.04897	-3.96601
 381	1	2	0.160826	-17.971	-6.4321	-4.55353
 382	1	3	0.04557	-19.8068	-5.62865	-5.20104
 383	1	1	-0.463031	-18.7865	-6.48187	-5.55453
 384	1	4	-0.07905	-16.7782	-5.59622	-1.84213
 385	1	5	-0.061319	-20.2154	-2.6951	-1.49367
 386	1	6	0.28436	-20.826	-5.09407	-6.12204
 387	1	6	-0.21175	-21.9271	-6.13443	-6.44269
 388	1	7	0.07562	-21.7613	-7.07066	-5.89431
 389	1	7	0.047171	-21.9566	-6.37702	-7.51243
 390	1	7	0.053131	-22.9123	-5.74691	-6.15618
 391	1	6	-0.120715	-20.2062	-4.51506	-7.41462
 392	1	8	0.007856	-21.3209	-4.25782	-5.61276
 393	1	7	0.031711	-19.7083	-5.30052	-7.99776
 394	1	7	0.04419	-19.461	-3.74665	-7.17382
 395	1	7	-0.003555	-20.9771	-4.05531	-8.04582
 396	1	9	-0.011509	-16.7191	-7.02932	-4.51627
 397	1	9	-0.199369	-16.5536	-8.34301	-4.01199
 398	1	9	-0.201771	-15.2944	-8.97936	-4.06974
 399	1	9	0.15189	-14.2365	-8.25151	-4.6235
 400	1	9	0.348083	-14.3892	-6.96668	-5.09879
 401	1	9	-0.230673	-15.6255	-6.33048	-5.07284
 402	1	10	0.174789	-17.4165	-8.87888	-3.62167
 403	1	10	0.188672	-15.1551	-10.0084	-3.75085
 404	1	10	0.201012	-15.7423	-5.35282	-5.52661
 405	1	11	-0.381547	-13.0013	-8.6781	-4.97985
 406	1	1	-0.706002	-13.3224	-6.61471	-5.75022
 407	1	2	0.698504	-12.4985	-7.60489	-5.67332
 408	1	12	0.214303	-20.9299	-2.26375	-2.05175
 409	1	1	-0.261357	-24.4084	-0.922799	7.17638
 410	1	2	0.070556	-24.0321	-1.11557	5.95455
 411	1	2	0.0266	-23.951	-0.0857387	5.09812
 412	1	2	0.33777	-24.713	0.264072	7.63206
 413	1	1	-0.659679	-24.6386	1.28512	6.8214
 414	1	2	0.428714	-24.2566	1.10226	5.59472
 415	1	2	0.160826	-23.5862	0.0832809	3.81607
 416	1	3	0.04557	-24.0031	2.02782	4.57515
 417	1	1	-0.463031	-23.6078	1.32383	3.45809
 418	1	4	-0.07905	-23.7233	-2.36806	5.73902
 419	1	5	-0.061319	-25.1449	0.442544	8.92854
 420	1	6	0.28436	-23.2814	3.26417	4.93838
 421	1	6	-0.21175	-23.3984	4.36348	3.85797
 422	1	7	0.07562	-22.8709	5.27306	4.17011
 423	1	7	0.047171	-24.4494	4.62221	3.68082
 424	1	7	0.053131	-22.9644	4.02694	2.90757
 425	1	6	-0.120715	-21.7897	2.9886	5.25346
 426	1	8	0.007856	-23.7437	3.66009	5.85159
 427	1	7	0.031711	-21.284	3.90213	5.58907
 428	1	7	0.04419	-21.2643	2.61474	4.36513
 429	1	7	-0.003555	-21.6879	2.23756	6.0471
 430	1	9	-0.011509	-23.1185	-0.933443	2.9858
 431	1	9	-0.199369	-23.8775	-2.1058	2.72293
 432	1	9	-0.201771	-23.4086	-3.09166	1.82647
 433	1	9	0.15189	-22.1852	-2.85092	1.19602
 434	1	9	0.348083	-21.4586	-1.70414	1.42416
 435	1	9	-0.230673	-21.9005	-0.722075	2.30199
 436	1	10	0.174789	-24.8463	-2.23743	3.20047
 437	1	10	0.188672	-23.9903	-3.9781	1.59012
 438	1	10	0.201012	-21.3421	0.201657	2.40752
 439	1	11	-0.381547	-21.6029	-3.51205	0.16413
 440	1	1	-0.706002	-20.4985	-1.62313	0.557791
 441	1	2	0.698504	-20.5513	-2.68969	-0.164799
 442	1	12	0.214303	-25.9149	1.08152	9.00831
 443	1	1	-0.261357	-24.1084	-7.99167	13.3514
 444	1	2	0.070556	-24.3147	-6.74134	13.0709
 445	1	2	0.0266	-23.8466	-5.78536	13.89
 446	1	2	0.33777	-23.4247	-8.36517	14.4009
 447	1	1	-0.659679	-22.9807	-7.45065	15.2204
 448	1	2	0.428714	-23.1908	-6.198	14.9597
 449	1	2	0.160826	-23.8866	-4.443	13.9168
 450	1	3	0.04557	-22.8515	-5.03771	15.6699
 451	1	1	-0.463031	-23.3059	-3.94976	14.9584
 452	1	4	-0.07905	-24.9957	-6.54752	11.972
 453	1	5	-0.061319	-23.2519	-9.70484	14.67
 454	1	6	0.28436	-22.8439	-4.9964	17.1477
 455	1	6	-0.21175	-21.4576	-5.3039	17.7477
 456	1	7	0.07562	-21.4692	-5.1652	18.8357
 457	1	7	0.047171	-20.7011	-4.6281	17.3295
 458	1	7	0.053131	-21.1553	-6.33653	17.5323
 459	1	6	-0.120715	-23.9481	-5.84751	17.8221
 460	1	8	0.007856	-23.0666	-3.95604	17.4192
 461	1	7	0.031711	-24.0145	-5.61257	18.8914
 462	1	7	0.04419	-23.7423	-6.92079	17.7293
 463	1	7	-0.003555	-24.9277	-5.64295	17.3714
 464	1	9	-0.011509	-24.5555	-3.66338	12.98
 465	1	9	-0.199369	-25.9688	-3.54996	13.0445
 466	1	9	-0.201771	-26.6669	-2.65076	12.209
 467	1	9	0.15189	-25.9075	-1.88217	11.3229
 468	1	9	0.348083	-24.5345	-2.00057	11.2425
 469	1	9	-0.230673	-23.8234	-2.87665	12.0615
 470	1	10	0.174789	-26.516	-4.139	13.7778
 471	1	10	0.188672	-27.745	-2.53206	12.2648
 472	1	10	0.201012	-22.7405	-2.91157	12.0142
 473	1	11	-0.381547	-26.3048	-0.905179	10.4638
 474	1	1	-0.706002	-24.0806	-1.15378	10.3704
 475	1	2	0.698504	-25.1093	-0.527606	9.90654
 476	1	12	0.214303	-24.1112	-10.2211	14.7229
 477	1	1	-0.261357	-14.8853	-12.521	17.9201
 478	1	2	0.070556	-16.1201	-12.4688	17.5166
 479	1	2	0.0266	-16.6872	-13.5433	16.9459
 480	1	2	0.33777	-14.1543	-13.6005	17.7878
 481	1	1	-0.659679	-14.6903	-14.6536	17.2324
 482	1	2	0.428714	-15.9096	-14.6036	16.8007
 483	1	2	0.160826	-17.9142	-13.8695	16.5005
 484	1	3	0.04557	-16.7175	-15.5799	16.2121
 485	1	1	-0.463031	-17.9927	-15.0845	16.0723
 486	1	4	-0.07905	-16.7232	-11.3322	17.758
 487	1	5	-0.061319	-12.9836	-13.783	18.4911
 488	1	6	0.28436	-16.4153	-17.0179	16.3025
 489	1	6	-0.21175	-16.7496	-17.7534	14.986
 490	1	7	0.07562	-16.4698	-18.812	15.048
 491	1	7	0.047171	-16.207	-17.3046	14.1448
 492	1	7	0.053131	-17.8239	-17.6938	14.7684
 493	1	6	-0.120715	-17.1393	-17.6876	17.4927
 494	1	8	0.007856	-15.3362	-17.1245	16.4695
 495	1	7	0.031711	-18.2276	-17.6662	17.3514
 496	1	7	0.04419	-16.908	-17.1653	18.4294
 497	1	7	-0.003555	-16.8289	-18.7345	17.601
 498	1	9	-0.011509	-19.0455	-13.0695	16.6319
 499	1	9	-0.199369	-20.0323	-13.4426	17.5819
 500	1	9	-0.201771	-21.278	-12.7823	17.6417
 501	1	9	0.15189	-21.4892	-11.7441	16.7319
 502	1	9	0.348083	-20.5251	-11.356	15.8238
 503	1	9	-0.230673	-19.2942	-12.0076	15.7339
 504	1	10	0.174789	-19.8441	-14.2933	18.234
 505	1	10	0.188672	-22.0623	-13.0939	18.3253
 506	1	10	0.201012	-18.5896	-11.7378	14.9555
 507	1	11	-0.381547	-22.6264	-11.0484	16.4687
 508	1	1	-0.706002	-21.0277	-10.4664	15.0239
 509	1	2	0.698504	-22.2367	-10.2473	15.4235
 510	1	12	0.214303	-12.9139	-14.726	18.829
 511	1	1	-0.261357	-4.07013	-9.36857	18.1565
 512	1	2	0.070556	-5.11985	-10.1265	18.048
 513	1	2	0.0266	-5.75038	-10.2509	16.8677
 514	1	2	0.33777	-3.58147	-8.71776	17.1318
 515	1	1	-0.659679	-4.18099	-8.81998	15.9815
 516	1	2	0.428714	-5.22757	-9.56956	15.8581
 517	1	2	0.160826	-6.84886	-10.8804	16.4066
 518	1	3	0.04557	-6.06761	-9.80099	14.7612
 519	1	1	-0.463031	-7.07942	-10.6417	15.1608
 520	1	4	-0.07905	-5.48692	-10.6592	19.1856
 521	1	5	-0.061319	-2.66963	-7.70203	17.2709
 522	1	6	0.28436	-6.16595	-8.9196	13.5679
 523	1	6	-0.21175	-5.94553	-7.41014	13.8405
 524	1	7	0.07562	-4.91299	-7.20313	14.1413
 525	1	7	0.047171	-6.61915	-7.05174	14.6291
 526	1	7	0.053131	-6.13413	-6.81951	12.9356
 527	1	6	-0.120715	-7.5169	-9.08397	12.8246
 528	1	8	0.007856	-5.37885	-9.24381	12.8756
 529	1	7	0.031711	-7.67966	-10.1291	12.5321
 530	1	7	0.04419	-7.54384	-8.47511	11.9129
 531	1	7	-0.003555	-8.35433	-8.77326	13.4636
 532	1	9	-0.011509	-7.74377	-11.656	17.1454
 533	1	9	-0.199369	-7.31718	-12.8094	17.855
 534	1	9	-0.201771	-8.25229	-13.6657	18.4773
 535	1	9	0.15189	-9.60623	-13.342	18.3462
 536	1	9	0.348083	-10.0381	-12.2347	17.6473
 537	1	9	-0.230673	-9.12951	-11.3729	17.0359
 538	1	10	0.174789	-6.25856	-13.059	17.8891
 539	1	10	0.188672	-7.94492	-14.5649	19.0036
 540	1	10	0.201012	-9.49216	-10.5393	16.444
 541	1	11	-0.381547	-10.6994	-14.034	18.7524
 542	1	1	-0.706002	-11.3403	-12.2245	17.6035
 543	1	2	0.698504	-11.7252	-13.2823	18.2372
 544	1	12	0.214303	-2.89117	-6.93395	16.6625
 545	1	1	-0.261357	6.27597	-4.3206	19.4073
 546	1	2	0.070556	5.17216	-4.99885	19.3186
 547	1	2	0.0266	4.03591	-4.48989	19.8239
 548	1	2	0.33777	6.32513	-3.13925	19.9721
 549	1	1	-0.659679	5.23193	-2.64013	20.476
 550	1	2	0.428714	4.1301	-3.30555	20.4005
 551	1	2	0.160826	2.75208	-4.87002	19.8878
 552	1	3	0.04557	2.84008	-2.99322	20.826
 553	1	1	-0.463031	1.98501	-4.00656	20.4682
 554	1	4	-0.07905	5.27311	-6.15097	18.7081
 555	1	5	-0.061319	7.48132	-2.39341	19.9355
 556	1	6	0.28436	2.46056	-1.69572	21.4166
 557	1	6	-0.21175	3.05752	-1.51207	22.8293
 558	1	7	0.07562	2.72687	-0.565423	23.2733
 559	1	7	0.047171	4.15381	-1.49865	22.7904
 560	1	7	0.053131	2.74785	-2.33127	23.4906
 561	1	6	-0.120715	0.928864	-1.47442	21.4603
 562	1	8	0.007856	2.88115	-0.913129	20.772
 563	1	7	0.031711	0.491095	-1.57993	20.4595
 564	1	7	0.04419	0.689305	-0.469141	21.8275
 565	1	7	-0.003555	0.444739	-2.20307	22.1236
 566	1	9	-0.011509	2.20619	-6.01639	19.3255
 567	1	9	-0.199369	2.20686	-7.24254	20.0376
 568	1	9	-0.201771	1.29479	-8.27032	19.7003
 569	1	9	0.15189	0.428619	-8.03798	18.6241
 570	1	9	0.348083	0.505751	-6.88502	17.868
 571	1	9	-0.230673	1.36518	-5.848	18.2079
 572	1	10	0.174789	2.81425	-7.33586	20.9354
 573	1	10	0.188672	1.17932	-9.15394	20.3214
 574	1	10	0.201012	1.25576	-4.88226	17.7266
 575	1	11	-0.381547	-0.756854	-8.64897	18.3308
 576	1	1	-0.706002	-0.556615	-6.77505	17.1375
 577	1	2	0.698504	-1.30704	-7.78152	17.4152
 578	1	12	0.214303	8.20679	-2.8793	19.4384
 579	1	1	-0.261357	5.67866	6.21706	15.2573
 580	1	2	0.070556	6.0096	5.27195	16.0885
 581	1	2	0.0266	7.28613	4.86014	16.1683
 582	1	2	0.33777	6.55729	6.79863	14.4783
 583	1	1	-0.659679	7.79268	6.38235	14.5123
 584	1	2	0.428714	8.14031	5.46499	15.3568
 585	1	2	0.160826	7.97417	3.92371	16.8489
 586	1	3	0.04557	9.38177	4.86125	15.582
 587	1	1	-0.463031	9.22211	3.87658	16.525
 588	1	4	-0.07905	5.00841	4.77681	16.7692
 589	1	5	-0.061319	6.20775	7.67158	13.4699
 590	1	6	0.28436	10.3863	4.74089	14.5118
 591	1	6	-0.21175	10.0068	3.6479	13.4854
 592	1	7	0.07562	9.9369	2.66621	13.971
 593	1	7	0.047171	10.7588	3.58302	12.6902
 594	1	7	0.053131	9.03841	3.86966	13.0206
 595	1	6	-0.120715	11.7991	4.46993	15.0803
 596	1	8	0.007856	10.4245	5.70149	13.9826
 597	1	7	0.031711	12.5442	4.42974	14.2763
 598	1	7	0.04419	11.8294	3.51441	15.62
 599	1	7	-0.003555	12.0949	5.26312	15.7785
 600	1	9	-0.011509	7.48372	2.96278	17.7341
 601	1	9	-0.199369	6.849	3.3025	18.9593
 602	1	9	-0.201771	6.56613	2.31075	19.931
 603	1	9	0.15189	6.95176	0.99547	19.6428
 604	1	9	0.348083	7.56403	0.662723	18.4545
 605	1	9	-0.230673	7.83172	1.61496	17.4806
 606	1	10	0.174789	6.62464	4.34506	19.1758
 607	1	10	0.188672	6.10851	2.55548	20.8854
 608	1	10	0.201012	8.3693	1.32701	16.5843
 609	1	11	-0.381547	6.885	-0.129637	20.4052
 610	1	1	-0.706002	7.8772	-0.59633	18.4504
 611	1	2	0.698504	7.46776	-1.06413	19.5781
 612	1	12	0.214303	6.85052	7.59191	12.7014
 613	1	1	-0.261357	0.479607	14.4154	15.3234
 614	1	2	0.070556	1.59219	13.9186	14.8766
 615	1	2	0.0266	2.74493	14.5771	15.0628
 616	1	2	0.33777	0.434501	15.5514	15.9729
 617	1	1	-0.659679	1.53119	16.2463	16.0927
 618	1	2	0.428714	2.64725	15.7567	15.6549
 619	1	2	0.160826	4.03968	14.3606	14.7674
 620	1	3	0.04557	3.93493	16.293	15.6592