pySIMM System Object

478 atoms
533 bonds
882 angles
1340 dihedrals
56 impropers

13 atom types
18 bond types
33 angle types
13 dihedral types
2 improper types

-117.866461 117.866461 xlo xhi
-117.866461 117.866461 ylo yhi
-117.866461 117.866461 zlo zhi

Masses

   1	14.01	# n2
   2	12.01	# c2
   3	14.01	# na
   4	12.01	# c1
   5	14.01	# nh
   6	12.01	# c3
   7	1.008	# hc
   8	1.008	# h1
   9	12.01	# ca
  10	1.008	# ha
  11	16.0	# os
  12	1.008	# hn
  13	1.008	# h5

Pair Coeffs

   1	0.17	3.249998523775958	# n2
   2	0.086	3.3996695084235347	# c2
   3	0.17	3.249998523775958	# na
   4	0.21	3.3996695084235347	# c1
   5	0.17	3.249998523775958	# nh
   6	0.1094	3.3996695084235347	# c3
   7	0.0157	2.649532787749369	# hc
   8	0.0157	2.471353044121301	# h1
   9	0.086	3.3996695084235347	# ca
  10	0.015	2.59964245953351	# ha
  11	0.17	3.0000123434657784	# os
  12	0.0157	1.069078461768407	# hn
  13	0.015	2.421462715905442	# h5

Bond Coeffs

   1	300.9	1.5375	# c3,c3
   2	416.2	1.3872	# c2,nh
   3	330.6	1.0969	# c3,hc
   4	397.4	1.4015	# c2,na
   5	345.8	1.086	# ca,ha
   6	625.0	1.307	# c1,c2
   7	330.6	1.0969	# c3,h1
   8	404.6	1.0121	# hn,nh
   9	376.6	1.3696	# ca,os
  10	505.3	1.3676	# n2,na
  11	327.7	1.4629	# c3,na
  12	338.4	1.0912	# c2,h5
  13	569.4	1.3343	# c2,c2
  14	551.6	1.303	# ca,n2
  15	389.2	1.3596	# c2,os
  16	594.1	1.2817	# c2,n2
  17	461.1	1.3984	# ca,ca
  18	482.1	1.3846	# c2,ca

Angle Coeffs

   1	39.4	107.58	# hc,c3,hc
   2	52.26	121.7	# h5,c2,n2
   3	70.06	121.62	# c1,c2,c2
   4	69.58	119.2	# ca,ca,os
   5	78.34	113.82	# n2,c2,n2
   6	70.52	117.58	# c2,n2,na
   7	46.39	109.56	# c3,c3,h1
   8	71.15	126.01	# c2,c2,n2
   9	62.86	111.51	# c3,c3,c3
  10	49.83	108.78	# h1,c3,na
  11	70.0	119.94	# c2,n2,ca
  12	65.52	112.88	# c3,c3,na
  13	69.36	117.0	# c2,c2,ca
  14	71.79	124.27	# n2,c2,nh
  15	46.34	109.8	# c3,c3,hc
  16	65.56	125.0	# c2,na,n2
  17	74.41	119.78	# n2,c2,os
  18	70.62	119.57	# ca,ca,n2
  19	48.18	119.88	# ca,ca,ha
  20	69.14	121.94	# c2,c2,na
  21	71.53	123.62	# n2,c2,na
  22	66.78	120.6	# c2,ca,ca
  23	69.3	121.81	# c2,c2,c2
  24	64.17	118.2	# c2,os,ca
  25	40.07	115.12	# hn,nh,hn
  26	48.59	115.09	# c2,nh,hn
  27	52.71	110.95	# h5,c2,os
  28	65.54	119.24	# c3,na,n2
  29	66.62	120.02	# ca,ca,ca
  30	71.11	118.18	# c2,n2,c2
  31	63.85	117.2	# c2,na,c3
  32	63.96	124.73	# c2,nh,c2
  33	73.36	114.3	# nh,c2,os

Dihedral Coeffs

   1	1	6.65	2	180	# X,c2,c2,X
   2	1	3.625	2	180	# X,ca,ca,X
   3	1	1.7	2	180	# X,n2,na,X
   4	1	0.7	2	180	# X,c2,ca,X
   5	1	0.15555555555555556	3	0	# X,c3,c3,X
   6	1	1.05	2	180	# X,c2,os,X
   7	1	0.0	3	180	# X,ca,n2,X
   8	1	4.15	2	180	# X,c2,n2,X
   9	1	0.9	2	180	# X,ca,os,X
  10	1	0.625	2	180	# X,c2,na,X
  11	1	0.0	2	0	# X,c3,na,X
  12	1	0.16	3	0	# hc,c3,c3,c3
  13	1	0.675	2	180	# X,c2,nh,X

Improper Coeffs

   1	1.1	-1	2	# ca,X,X,ha
   2	1.1	-1	2	# ca,ca,ca,c2

Atoms

   1	1	1	-0.261357	11.1226	16.8818	2.83853
   2	1	2	0.070556	12.0872	17.0124	3.69657
   3	1	2	0.0266	12.6777	15.9248	4.21981
   4	1	2	0.33777	10.6918	15.7046	2.46091
   5	1	1	-0.659679	11.2441	14.6393	2.96493
   6	1	2	0.428714	12.208	14.7556	3.81976
   7	1	2	0.160826	13.6654	15.6962	5.1024
   8	1	3	0.04557	12.9658	13.7914	4.49411
   9	1	1	-0.463031	13.8634	14.4379	5.31421
  10	1	4	-0.07905	12.381	18.2588	3.96813
  11	1	5	-0.061319	9.67634	15.5316	1.55313
  12	1	6	0.28436	12.454	12.446	4.8254
  13	1	6	-0.21175	11.8743	11.6549	3.62932
  14	1	7	0.07562	12.5453	11.7107	2.76364
  15	1	7	0.047171	10.8921	12.0414	3.33115
  16	1	7	0.053131	11.7476	10.5983	3.89465
  17	1	6	-0.120715	11.4549	12.4738	6.0035
  18	1	8	0.007856	13.3275	11.8765	5.16778
  19	1	7	0.031711	10.5551	13.0455	5.74418
  20	1	7	0.04419	11.9138	12.9399	6.88483
  21	1	7	-0.003555	11.1501	11.4571	6.2814
  22	1	9	-0.011509	14.3432	16.7197	5.75421
  23	1	9	-0.199369	15.363	17.4489	5.08942
  24	1	9	-0.201771	16.0828	18.4634	5.75922
  25	1	9	0.15189	15.7493	18.7088	7.09479
  26	1	9	0.348083	14.7629	17.9962	7.74769
  27	1	9	-0.230673	14.043	16.9902	7.10772
  28	1	10	0.174789	15.5982	17.2143	4.05326
  29	1	10	0.188672	16.8718	19.0283	5.27135
  30	1	10	0.201012	13.2883	16.4299	7.64823
  31	1	11	-0.381547	16.2873	19.5953	7.97334
  32	1	1	-0.706002	14.6715	18.4011	8.97773
  33	1	2	0.698504	15.5578	19.3309	9.10628
  34	1	12	0.214303	9.61407	14.583	1.2307
  35	1	1	-0.261357	3.52664	15.8256	-4.77748
  36	1	2	0.070556	4.56341	16.3298	-4.18563
  37	1	2	0.0266	4.55695	17.609	-3.77662
  38	1	2	0.33777	2.44194	16.5226	-4.99369
  39	1	1	-0.659679	2.41023	17.7634	-4.58668
  40	1	2	0.428714	3.44437	18.2841	-4.00712
  41	1	2	0.160826	5.40595	18.4159	-3.11739
  42	1	3	0.04557	3.63978	19.5478	-3.4397
  43	1	1	-0.463031	4.89594	19.5757	-2.87282
  44	1	4	-0.07905	5.5287	15.4588	-4.03643
  45	1	5	-0.061319	1.38135	15.9176	-5.64078
  46	1	6	0.28436	2.50346	20.2584	-2.82185
  47	1	6	-0.21175	2.8443	21.7286	-2.48192
  48	1	7	0.07562	3.64648	21.7799	-1.73391
  49	1	7	0.047171	1.96836	22.2511	-2.07852
  50	1	7	0.053131	3.18076	22.2647	-3.37758
  51	1	6	-0.120715	1.98116	19.5328	-1.55826
  52	1	8	0.007856	1.68925	20.2754	-3.5574
  53	1	7	0.031711	2.76825	19.4581	-0.796679
  54	1	7	0.04419	1.64582	18.5171	-1.8018
  55	1	7	-0.003555	1.13094	20.0699	-1.11969
  56	1	9	-0.011509	6.60595	17.9621	-2.5828
  57	1	9	-0.199369	7.71238	17.6071	-3.39946
  58	1	9	-0.201771	8.88165	17.0518	-2.82884
  59	1	9	0.15189	8.90621	16.9052	-1.4371
  60	1	9	0.348083	7.85367	17.301	-0.641848
  61	1	9	-0.230673	6.68571	17.8239	-1.18148
  62	1	10	0.174789	7.64012	17.725	-4.47916
  63	1	10	0.188672	9.71952	16.724	-3.43785
  64	1	10	0.201012	5.85417	18.082	-0.535202
  65	1	11	-0.381547	9.83172	16.316	-0.63389
  66	1	1	-0.706002	8.08646	16.9656	0.587712
  67	1	2	0.698504	9.26465	16.4433	0.613298
  68	1	12	0.214303	1.60976	14.989	-5.94799
  69	1	1	-0.261357	-5.48967	21.0374	-9.49134
  70	1	2	0.070556	-4.41623	20.3185	-9.41831
  71	1	2	0.0266	-3.23823	20.8513	-9.76926
  72	1	2	0.33777	-5.47546	22.2844	-9.8942
  73	1	1	-0.659679	-4.33263	22.8283	-10.2073
  74	1	2	0.428714	-3.24984	22.1188	-10.1457
  75	1	2	0.160826	-1.97258	20.4169	-9.81867
  76	1	3	0.04557	-1.91341	22.4574	-10.4019
  77	1	1	-0.463031	-1.14764	21.3295	-10.203
  78	1	4	-0.07905	-4.6157	19.0898	-9.01246
  79	1	5	-0.061319	-6.63821	22.9904	-10.1222
  80	1	6	0.28436	-1.37631	23.7402	-9.90891
  81	1	6	-0.21175	-1.48443	23.8686	-8.36984
  82	1	7	0.07562	-0.957453	24.7623	-8.01627
  83	1	7	0.047171	-1.03409	22.9963	-7.87808
  84	1	7	0.053131	-2.53178	23.936	-8.04949
  85	1	6	-0.120715	-1.94903	24.9881	-10.6155
  86	1	8	0.007856	-0.304322	23.7233	-10.1449
  87	1	7	0.031711	-3.00125	25.1517	-10.3544
  88	1	7	0.04419	-1.87463	24.8837	-11.7048
  89	1	7	-0.003555	-1.3875	25.8837	-10.3213
  90	1	9	-0.011509	-1.57365	19.1768	-9.34138
  91	1	9	-0.199369	-1.33296	18.0924	-10.2226
  92	1	9	-0.201771	-0.743094	16.8977	-9.75026
  93	1	9	0.15189	-0.424728	16.8353	-8.38911
  94	1	9	0.348083	-0.685025	17.8808	-7.52693
  95	1	9	-0.230673	-1.24857	19.0699	-7.97286
  96	1	10	0.174789	-1.54561	18.2103	-11.2833
  97	1	10	0.188672	-0.482207	16.0834	-10.42
  98	1	10	0.201012	-1.352	19.9087	-7.29417
  99	1	11	-0.381547	0.320958	15.9165	-7.7195
 100	1	1	-0.706002	-0.133379	17.6476	-6.37816
 101	1	2	0.698504	0.499367	16.5311	-6.50426
 102	1	12	0.214303	-6.43808	23.854	-10.5935
 103	1	1	-0.261357	-13.1736	17.2237	-9.50592
 104	1	2	0.070556	-12.2103	17.712	-10.2184
 105	1	2	0.0266	-11.1669	16.942	-10.5701
 106	1	2	0.33777	-13.1674	15.9806	-9.10065
 107	1	1	-0.659679	-12.2186	15.1823	-9.51179
 108	1	2	0.428714	-11.2481	15.6696	-10.2192
 109	1	2	0.160826	-9.9907	17.1359	-11.1989
 110	1	3	0.04557	-10.0752	15.0915	-10.7003
 111	1	1	-0.463031	-9.3001	16.0479	-11.3157
 112	1	4	-0.07905	-12.4045	18.9725	-10.5133
 113	1	5	-0.061319	-13.978	15.5807	-8.06193
 114	1	6	0.28436	-9.75945	13.6572	-10.5867
 115	1	6	-0.21175	-8.66038	13.3804	-9.53742
 116	1	7	0.07562	-8.95533	13.7733	-8.55632
 117	1	7	0.047171	-7.71508	13.8573	-9.82644
 118	1	7	0.053131	-8.48427	12.3024	-9.43397
 119	1	6	-0.120715	-9.37752	13.0395	-11.9502
 120	1	8	0.007856	-10.668	13.1441	-10.2476
 121	1	7	0.031711	-8.44376	13.4741	-12.3298
 122	1	7	0.04419	-10.1653	13.2261	-12.6906
 123	1	7	-0.003555	-9.24117	11.9542	-11.8644
 124	1	9	-0.011509	-9.5136	18.4064	-11.5157
 125	1	9	-0.199369	-8.99771	18.6888	-12.8068
 126	1	9	-0.201771	-8.38041	19.9298	-13.087
 127	1	9	0.15189	-8.33089	20.87	-12.0523
 128	1	9	0.348083	-8.84398	20.6075	-10.8013
 129	1	9	-0.230673	-9.3916	19.3702	-10.4878
 130	1	10	0.174789	-9.02561	17.9128	-13.5692
 131	1	10	0.188672	-7.91061	20.1336	-14.0447
 132	1	10	0.201012	-9.67714	19.1575	-9.46308
 133	1	11	-0.381547	-7.63325	22.0332	-11.9766
 134	1	1	-0.706002	-8.48721	21.5428	-9.97833
 135	1	2	0.698504	-7.7443	22.359	-10.6449
 136	1	12	0.214303	-14.2405	14.6155	-8.15035
 137	1	1	-0.261357	-8.33536	15.9914	0.0890283
 138	1	2	0.070556	-9.08468	15.9974	-0.967205
 139	1	2	0.0266	-8.53118	16.0446	-2.18842
 140	1	2	0.33777	-7.03043	16.0167	0.0174649
 141	1	1	-0.659679	-6.46672	16.086	-1.15995
 142	1	2	0.428714	-7.20899	16.1112	-2.22407
 143	1	2	0.160826	-8.9859	16.0262	-3.45417
 144	1	3	0.04557	-6.87753	16.178	-3.58103
 145	1	1	-0.463031	-8.03383	16.0953	-4.32493
 146	1	4	-0.07905	-10.3629	15.9811	-0.686824
 147	1	5	-0.061319	-6.30467	15.9381	1.18645
 148	1	6	0.28436	-5.56645	15.7303	-4.0849
 149	1	6	-0.21175	-5.10162	16.5468	-5.31307
 150	1	7	0.07562	-4.10676	16.2245	-5.64408
 151	1	7	0.047171	-5.04792	17.6151	-5.06998
 152	1	7	0.053131	-5.79785	16.4242	-6.15308
 153	1	6	-0.120715	-5.56195	14.2191	-4.41005
 154	1	8	0.007856	-4.82917	15.8982	-3.28987
 155	1	7	0.031711	-4.56642	13.8911	-4.73299
 156	1	7	0.04419	-6.27508	13.9904	-5.2129
 157	1	7	-0.003555	-5.84329	13.6316	-3.52697
 158	1	9	-0.011509	-10.3149	15.8049	-3.8197
 159	1	9	-0.199369	-10.9779	14.613	-3.41943
 160	1	9	-0.201771	-12.2094	14.2303	-3.99508
 161	1	9	0.15189	-12.7556	15.0766	-4.9633
 162	1	9	0.348083	-12.1444	16.26	-5.32317
 163	1	9	-0.230673	-10.9108	16.6365	-4.79401
 164	1	10	0.174789	-10.4869	13.9365	-2.72312
 165	1	10	0.188672	-12.6724	13.2742	-3.76959
 166	1	10	0.201012	-10.3808	17.4862	-5.21134
 167	1	11	-0.381547	-13.7253	14.8038	-5.88008
 168	1	1	-0.706002	-12.6987	16.7085	-6.40428
 169	1	2	0.698504	-13.5942	15.8483	-6.76215
 170	1	12	0.214303	-6.90246	15.7367	1.9683
 171	1	1	-0.261357	1.5383	10.7529	1.46526
 172	1	2	0.070556	0.552458	11.5226	1.78998
 173	1	2	0.0266	0.12283	11.582	3.06081
 174	1	2	0.33777	2.1469	10.0029	2.34217
 175	1	1	-0.659679	1.71289	9.9951	3.5761
 176	1	2	0.428714	0.727501	10.7709	3.9154
 177	1	2	0.160826	-0.81054	12.2917	3.72102
 178	1	3	0.04557	0.105517	11.0168	5.14718
 179	1	1	-0.463031	-0.876057	11.9687	4.97029
 180	1	4	-0.07905	0.0825181	12.169	0.753339
 181	1	5	-0.061319	3.26851	9.31626	1.93745
 182	1	6	0.28436	0.0701708	10.0512	6.26413
 183	1	6	-0.21175	1.46128	9.61638	6.77792
 184	1	7	0.07562	1.97416	8.97679	6.049
 185	1	7	0.047171	1.3667	9.05106	7.71344
 186	1	7	0.053131	2.09312	10.4914	6.97351
 187	1	6	-0.120715	-0.819717	8.82529	5.96259
 188	1	8	0.007856	-0.406438	10.581	7.0994
 189	1	7	0.031711	-1.83151	9.14501	5.68229
 190	1	7	0.04419	-0.904604	8.18137	6.84694
 191	1	7	-0.003555	-0.407778	8.22792	5.13973
 192	1	9	-0.011509	-1.55981	13.2802	3.085
 193	1	9	-0.199369	-0.91816	14.4428	2.57789
 194	1	9	-0.201771	-1.64496	15.4367	1.88654
 195	1	9	0.15189	-3.02092	15.2393	1.74978
 196	1	9	0.348083	-3.65752	14.1363	2.27808
 197	1	9	-0.230673	-2.95978	13.1367	2.95707
 198	1	10	0.174789	0.157334	14.5555	2.70251
 199	1	10	0.188672	-1.16571	16.3191	1.47201
 200	1	10	0.201012	-3.4846	12.2798	3.36432
 201	1	11	-0.381547	-3.95556	16.0197	1.14571
 202	1	1	-0.706002	-4.93196	14.2283	2.04805
 203	1	2	0.698504	-5.10308	15.2853	1.32542
 204	1	12	0.214303	3.4282	9.43562	0.953443
 205	1	1	-0.261357	9.29586	1.99361	2.93348
 206	1	2	0.070556	8.25187	2.76118	2.8843
 207	1	2	0.0266	7.31714	2.6714	3.84004
 208	1	2	0.33777	9.47078	1.10828	3.88445
 209	1	1	-0.659679	8.59816	1.04382	4.85216
 210	1	2	0.428714	7.55249	1.80717	4.81325
 211	1	2	0.160826	6.13054	3.25254	4.08099
 212	1	3	0.04557	6.44177	1.89396	5.65405
 213	1	1	-0.463031	5.56449	2.82956	5.15881
 214	1	4	-0.07905	8.20748	3.56224	1.85001
 215	1	5	-0.061319	10.4922	0.18129	3.84844
 216	1	6	0.28436	6.43356	1.37812	7.03333
 217	1	6	-0.21175	6.01676	-0.106948	7.07894
 218	1	7	0.07562	6.02993	-0.483153	8.10895
 219	1	7	0.047171	6.70569	-0.719644	6.48407
 220	1	7	0.053131	5.00473	-0.239146	6.67527
 221	1	6	-0.120715	5.53999	2.21486	7.98092
 222	1	8	0.007856	7.46072	1.44881	7.41316
 223	1	7	0.031711	5.60803	1.84883	9.012
 224	1	7	0.04419	4.48816	2.16768	7.66888
 225	1	7	-0.003555	5.84807	3.26851	7.9759
 226	1	9	-0.011509	5.51865	4.1839	3.25396
 227	1	9	-0.199369	4.62631	3.73502	2.24702
 228	1	9	-0.201771	3.80565	4.64485	1.54684
 229	1	9	0.15189	3.91776	5.99386	1.89094
 230	1	9	0.348083	4.79811	6.43842	2.85493
 231	1	9	-0.230673	5.617	5.55923	3.55953
 232	1	10	0.174789	4.52228	2.66704	2.06651
 233	1	10	0.188672	3.06983	4.31466	0.819387
 234	1	10	0.201012	6.24085	5.92284	4.36793
 235	1	11	-0.381547	3.15913	7.04722	1.49734
 236	1	1	-0.706002	4.61984	7.7099	3.04522
 237	1	2	0.698504	3.59674	8.04553	2.33211
 238	1	12	0.214303	10.6161	-0.287608	4.72848
 239	1	1	-0.261357	9.37385	-6.96568	-2.62711
 240	1	2	0.070556	9.76667	-6.02301	-1.83266
 241	1	2	0.0266	11.054	-5.94718	-1.46024
 242	1	2	0.33777	10.1939	-7.86435	-3.11444
 243	1	1	-0.659679	11.4325	-7.86165	-2.70047
 244	1	2	0.428714	11.8359	-6.91553	-1.91022
 245	1	2	0.160826	11.8018	-5.11111	-0.713508
 246	1	3	0.04557	13.0971	-6.63672	-1.38725
 247	1	1	-0.463031	13.0295	-5.50146	-0.611162
 248	1	4	-0.07905	8.78621	-5.23892	-1.46201
 249	1	5	-0.061319	9.78251	-8.78484	-4.06419
 250	1	6	0.28436	14.1277	-7.67681	-1.24934
 251	1	6	-0.21175	13.9347	-8.51206	0.0357287
 252	1	7	0.07562	12.9393	-8.97345	0.0490454
 253	1	7	0.047171	14.0301	-7.88102	0.928681
 254	1	7	0.053131	14.6818	-9.31254	0.0967792
 255	1	6	-0.120715	15.5542	-7.08869	-1.31465
 256	1	8	0.007856	14.0229	-8.35764	-2.10363
 257	1	7	0.031711	15.7372	-6.40824	-0.473001
 258	1	7	0.04419	15.6928	-6.52326	-2.24472
 259	1	7	-0.003555	16.3085	-7.88461	-1.28399
 260	1	9	-0.011509	11.3296	-3.9124	-0.178321
 261	1	9	-0.199369	10.7512	-2.9336	-1.03135
 262	1	9	-0.201771	10.3234	-1.68754	-0.530822
 263	1	9	0.15189	10.5307	-1.44629	0.826596
 264	1	9	0.348083	11.127	-2.36761	1.66148
 265	1	9	-0.230673	11.5419	-3.61415	1.18954
 266	1	10	0.174789	10.6362	-3.14568	-2.0926
 267	1	10	0.188672	9.86778	-0.933751	-1.16672
 268	1	10	0.201012	12.0326	-4.31627	1.85419
 269	1	11	-0.381547	10.2557	-0.335647	1.54728
 270	1	1	-0.706002	11.2196	-1.86653	2.85957
 271	1	2	0.698504	10.7236	-0.675468	2.79135
 272	1	12	0.214303	10.0442	-9.73366	-3.86809
 273	1	1	-0.261357	1.38601	-4.52132	-6.59606
 274	1	2	0.070556	2.37144	-5.30217	-6.27282
 275	1	2	0.0266	2.98543	-5.14597	-5.09039
 276	1	2	0.33777	0.977941	-3.56142	-5.80454
 277	1	1	-0.659679	1.59226	-3.36988	-4.67372
 278	1	2	0.428714	2.5595	-4.15271	-4.32509
 279	1	2	0.160826	3.98056	-5.7649	-4.43821
 280	1	3	0.04557	3.34968	-4.21179	-3.16758
 281	1	1	-0.463031	4.23782	-5.25177	-3.28356
 282	1	4	-0.07905	2.66021	-6.22295	-7.15715
 283	1	5	-0.061319	-0.158733	-2.83041	-6.04925
 284	1	6	0.28436	3.32616	-3.30166	-1.99902
 285	1	6	-0.21175	2.19558	-2.24735	-1.95906
 286	1	7	0.07562	1.21214	-2.72718	-2.04191
 287	1	7	0.047171	2.30163	-1.52357	-2.77687
 288	1	7	0.053131	2.21689	-1.69408	-1.01237
 289	1	6	-0.120715	4.69484	-2.61246	-1.79236
 290	1	8	0.007856	3.16771	-3.94896	-1.12699
 291	1	7	0.031711	4.68611	-1.98306	-0.894148
 292	1	7	0.04419	4.94958	-1.98361	-2.65431
 293	1	7	-0.003555	5.49236	-3.35624	-1.66657
 294	1	9	-0.011509	4.73715	-6.82647	-4.91609
 295	1	9	-0.199369	4.32419	-8.16229	-4.68346
 296	1	9	-0.201771	5.25683	-9.22228	-4.74562
 297	1	9	0.15189	6.57709	-8.9024	-5.08339
 298	1	9	0.348083	6.954	-7.6147	-5.41575
 299	1	9	-0.230673	6.06267	-6.5534	-5.30789
 300	1	10	0.174789	3.32055	-8.35127	-4.30834
 301	1	10	0.188672	4.99956	-10.2232	-4.41157
 302	1	10	0.201012	6.4382	-5.53681	-5.34386
 303	1	11	-0.381547	7.70702	-9.60054	-4.77632
 304	1	1	-0.706002	8.24191	-7.51337	-5.33988
 305	1	2	0.698504	8.67859	-8.63556	-4.88156
 306	1	12	0.214303	-0.0358626	-1.89266	-5.70933
 307	1	1	-0.261357	-4.82336	-4.54516	1.32903
 308	1	2	0.070556	-4.59798	-4.60445	0.0498219
 309	1	2	0.0266	-5.62405	-4.60475	-0.818342
 310	1	2	0.33777	-6.03815	-4.47307	1.81445
 311	1	1	-0.659679	-7.04417	-4.46165	0.987744
 312	1	2	0.428714	-6.83267	-4.54021	-0.286154
 313	1	2	0.160826	-5.76699	-4.66685	-2.15592
 314	1	3	0.04557	-7.72297	-4.56938	-1.36306
 315	1	1	-0.463031	-7.00308	-4.67502	-2.53009
 316	1	4	-0.07905	-3.3298	-4.68401	-0.263905
 317	1	5	-0.061319	-6.31056	-4.39765	3.16152
 318	1	6	0.28436	-9.10141	-5.07732	-1.24426
 319	1	6	-0.21175	-10.0213	-4.16042	-0.408093
 320	1	7	0.07562	-9.95975	-3.12503	-0.764979
 321	1	7	0.047171	-9.74285	-4.17564	0.652656
 322	1	7	0.053131	-11.0652	-4.48682	-0.48937
 323	1	6	-0.120715	-9.16332	-6.5395	-0.746912
 324	1	8	0.007856	-9.51112	-5.07704	-2.26262
 325	1	7	0.031711	-8.80865	-6.62441	0.287985
 326	1	7	0.04419	-8.53853	-7.18555	-1.37665
 327	1	7	-0.003555	-10.1914	-6.92036	-0.787836
 328	1	9	-0.011509	-4.7129	-4.72444	-3.06394
 329	1	9	-0.199369	-4.54736	-5.87963	-3.87248
 330	1	9	-0.201771	-3.55124	-5.93564	-4.87214
 331	1	9	0.15189	-2.75809	-4.79905	-5.04306
 332	1	9	0.348083	-2.93183	-3.66086	-4.28316
 333	1	9	-0.230673	-3.8934	-3.59141	-3.27603
 334	1	10	0.174789	-5.21271	-6.72853	-3.72726
 335	1	10	0.188672	-3.40703	-6.81251	-5.49728
 336	1	10	0.201012	-4.00992	-2.68278	-2.69695
 337	1	11	-0.381547	-1.73297	-4.582	-5.90502
 338	1	1	-0.706002	-2.06625	-2.76195	-4.64373
 339	1	2	0.698504	-1.36544	-3.29801	-5.5859
 340	1	12	0.214303	-7.29434	-4.22514	3.27208
 341	1	1	-0.261357	-6.28487	-10.1925	11.1573
 342	1	2	0.070556	-6.10473	-9.52734	10.0546
 343	1	2	0.0266	-5.94189	-10.1787	8.89042
 344	1	2	0.33777	-6.30278	-11.5022	11.182
 345	1	1	-0.659679	-6.18988	-12.1472	10.0563
 346	1	2	0.428714	-6.00483	-11.4982	8.95521
 347	1	2	0.160826	-5.72735	-9.84241	7.60411
 348	1	3	0.04557	-5.84828	-11.9496	7.64468
 349	1	1	-0.463031	-5.65246	-10.868	6.81952
 350	1	4	-0.07905	-6.11729	-8.22799	10.2104
 351	1	5	-0.061319	-6.45376	-12.211	12.3562
 352	1	6	0.28436	-5.43156	-13.322	7.30423
 353	1	6	-0.21175	-6.52341	-14.3751	7.59843
 354	1	7	0.07562	-7.46722	-14.0961	7.1139
 355	1	7	0.047171	-6.70603	-14.4689	8.67618
 356	1	7	0.053131	-6.224	-15.3594	7.21847
 357	1	6	-0.120715	-4.08317	-13.7203	7.94638
 358	1	8	0.007856	-5.27561	-13.3317	6.21769
 359	1	7	0.031711	-3.31327	-12.9725	7.7181
 360	1	7	0.04419	-3.74162	-14.6875	7.55811
 361	1	7	-0.003555	-4.16678	-13.8035	9.03726
 362	1	9	-0.011509	-5.56591	-8.54485	7.11769
 363	1	9	-0.199369	-4.46985	-7.73476	7.52179
 364	1	9	-0.201771	-4.19036	-6.50739	6.8747
 365	1	9	0.15189	-5.03123	-6.13056	5.82173
 366	1	9	0.348083	-6.10625	-6.90397	5.43972
 367	1	9	-0.230673	-6.39837	-8.11534	6.05992
 368	1	10	0.174789	-3.80214	-8.09042	8.304
 369	1	10	0.188672	-3.32937	-5.90069	7.14122
 370	1	10	0.201012	-7.20292	-8.73748	5.68412
 371	1	11	-0.381547	-4.92743	-5.09312	4.94424
 372	1	1	-0.706002	-6.66934	-6.37782	4.39657
 373	1	2	0.698504	-5.93726	-5.37359	4.05376
 374	1	12	0.214303	-7.4159	-12.3075	12.6273
 375	1	1	-0.261357	-3.36892	-20.7054	10.5913
 376	1	2	0.070556	-3.61244	-19.6148	11.2513
 377	1	2	0.0266	-3.64906	-19.6281	12.5946
 378	1	2	0.33777	-3.13806	-21.843	11.1965
 379	1	1	-0.659679	-3.16598	-21.8782	12.5003
 380	1	2	0.428714	-3.43661	-20.8007	13.1656
 381	1	2	0.160826	-3.83065	-18.7111	13.5646
 382	1	3	0.04557	-3.5302	-20.5674	14.5374
 383	1	1	-0.463031	-3.75583	-19.224	14.7499
 384	1	4	-0.07905	-3.8082	-18.5763	10.4787
 385	1	5	-0.061319	-2.7713	-22.9817	10.5155
 386	1	6	0.28436	-2.93136	-21.4858	15.5254
 387	1	6	-0.21175	-3.87722	-21.7644	16.7133
 388	1	7	0.07562	-4.07918	-20.8427	17.2738
 389	1	7	0.047171	-3.43507	-22.497	17.4001
 390	1	7	0.053131	-4.83415	-22.1662	16.3581
 391	1	6	-0.120715	-1.55429	-20.9976	16.0288
 392	1	8	0.007856	-2.76443	-22.4481	15.0253
 393	1	7	0.031711	-0.875825	-20.8183	15.1854
 394	1	7	0.04419	-1.09174	-21.7478	16.6819
 395	1	7	-0.003555	-1.64878	-20.063	16.5965
 396	1	9	-0.011509	-3.93432	-17.3517	13.2777
 397	1	9	-0.199369	-2.76388	-16.6409	12.9042
 398	1	9	-0.201771	-2.81251	-15.2662	12.5923
 399	1	9	0.15189	-4.05504	-14.6368	12.6845
 400	1	9	0.348083	-5.19674	-15.3097	13.0729
 401	1	9	-0.230673	-5.17312	-16.6743	13.3754
 402	1	10	0.174789	-1.81508	-17.1704	12.8467
 403	1	10	0.188672	-1.93037	-14.7127	12.2839
 404	1	10	0.201012	-6.08267	-17.1872	13.6662
 405	1	11	-0.381547	-4.38846	-13.3533	12.4013
 406	1	1	-0.706002	-6.20947	-14.4924	13.0423
 407	1	2	0.698504	-5.7444	-13.365	12.6147
 408	1	12	0.214303	-2.0879	-23.5439	10.9903
 409	1	1	-0.261357	-1.76018	-27.0672	1.80317
 410	1	2	0.070556	-2.1429	-26.6407	2.97203
 411	1	2	0.0266	-2.25105	-27.5002	3.99842
 412	1	2	0.33777	-1.47799	-28.3292	1.58341
 413	1	1	-0.659679	-1.58683	-29.176	2.56666
 414	1	2	0.428714	-1.95405	-28.7598	3.73342
 415	1	2	0.160826	-2.60678	-27.4282	5.29432
 416	1	3	0.04557	-2.12969	-29.4506	4.93042
 417	1	1	-0.463031	-2.56479	-28.571	5.89608
 418	1	4	-0.07905	-2.39521	-25.358	3.03654
 419	1	5	-0.061319	-1.06916	-28.8292	0.367171
 420	1	6	0.28436	-2.32168	-30.9132	4.953
 421	1	6	-0.21175	-3.22193	-31.399	6.11303
 422	1	7	0.07562	-2.76593	-31.1661	7.0838
 423	1	7	0.047171	-3.38452	-32.4821	6.05706
 424	1	7	0.053131	-4.20166	-30.9064	6.07145
 425	1	6	-0.120715	-0.972946	-31.6646	4.96532
 426	1	8	0.007856	-2.83587	-31.1829	4.02143
 427	1	7	0.031711	-1.13096	-32.7491	4.91565
 428	1	7	0.04419	-0.40778	-31.4387	5.87816
 429	1	7	-0.003555	-0.358379	-31.3759	4.10322
 430	1	9	-0.011509	-3.01993	-26.2682	5.94293
 431	1	9	-0.199369	-4.40068	-25.9458	5.99404
 432	1	9	-0.201771	-4.87832	-24.9203	6.84156
 433	1	9	0.15189	-3.93491	-24.233	7.61208
 434	1	9	0.348083	-2.58932	-24.5304	7.55351
 435	1	9	-0.230673	-2.09944	-25.5513	6.73926
 436	1	10	0.174789	-5.1086	-26.5545	5.435
 437	1	10	0.188672	-5.93991	-24.7204	6.9577
 438	1	10	0.201012	-1.05652	-25.84	6.79999
 439	1	11	-0.381547	-4.13173	-23.384	8.6569
 440	1	1	-0.706002	-1.97853	-23.9343	8.5321
 441	1	2	0.698504	-2.86325	-23.2431	9.16834
 442	1	12	0.214303	-1.20535	-29.8218	0.300054
 443	1	1	-0.261357	-2.8532	-25.6685	-7.9711
 444	1	2	0.070556	-2.22405	-26.3349	-7.0545
 445	1	2	0.0266	-1.78239	-27.5783	-7.30599
 446	1	2	0.33777	-3.08	-26.1695	-9.1579
 447	1	1	-0.659679	-2.64902	-27.3704	-9.43331
 448	1	2	0.428714	-2.02456	-28.0422	-8.51962
 449	1	2	0.160826	-1.12071	-28.522	-6.60995
 450	1	3	0.04557	-1.47703	-29.3224	-8.52981
 451	1	1	-0.463031	-0.904846	-29.5919	-7.30539
 452	1	4	-0.07905	-2.08446	-25.6694	-5.93546
 453	1	5	-0.061319	-3.75559	-25.4454	-10.118
 454	1	6	0.28436	-1.42785	-30.1632	-9.7413
 455	1	6	-0.21175	-2.79862	-30.8012	-10.058
 456	1	7	0.07562	-2.75115	-31.3836	-10.9863
 457	1	7	0.047171	-3.56708	-30.0284	-10.1853
 458	1	7	0.053131	-3.11506	-31.4688	-9.24678
 459	1	6	-0.120715	-0.331323	-31.252	-9.68945
 460	1	8	0.007856	-1.17508	-29.4989	-10.578
 461	1	7	0.031711	-0.544303	-31.9868	-8.90241
 462	1	7	0.04419	0.64887	-30.8046	-9.48289
 463	1	7	-0.003555	-0.264784	-31.7846	-10.6467
 464	1	9	-0.011509	-0.74523	-28.3047	-5.28807
 465	1	9	-0.199369	0.551194	-27.8125	-4.98944
 466	1	9	-0.201771	0.946774	-27.5707	-3.65454
 467	1	9	0.15189	0.00713925	-27.8323	-2.65285
 468	1	9	0.348083	-1.24778	-28.3236	-2.93645
 469	1	9	-0.230673	-1.65743	-28.5803	-4.24405
 470	1	10	0.174789	1.25045	-27.6291	-5.80303
 471	1	10	0.188672	1.94093	-27.2121	-3.40423
 472	1	10	0.201012	-2.64235	-28.9893	-4.43815
 473	1	11	-0.381547	0.132206	-27.762	-1.30147
 474	1	1	-0.706002	-1.86225	-28.5911	-1.82423
 475	1	2	0.698504	-1.09046	-28.2109	-0.859955
 476	1	12	0.214303	-3.62137	-25.7833	-11.0587
 477	1	13	0	15.7995	19.9083	10.0002
 478	1	12	0	-3.79885	-24.4437	-9.98075

Velocities

   1	0.00038629	-0.000861722	-0.000310639
   2	0.00028314	-0.000620408	-0.000181198
   3	0.000408905	-0.000459507	-1.59392e-05
   4	0.000408546	-0.000935024	-3.03013e-05
   5	0.000525571	-0.000793839	9.88802e-05
   6	0.000485543	-0.000579128	0.00022439
   7	0.000349981	-0.000126698	0.000271576
   8	0.000522108	-0.00043082	0.00032244
   9	0.000262561	-0.000165183	0.000448713
  10	0.000155334	-0.000507073	-0.000501881
  11	0.00044266	-0.000851584	-3.70622e-05
  12	0.000115242	-0.000382175	0.000176358
  13	0.000770256	-0.000653121	-1.09165e-05
  14	0.00130175	-0.00102627	0.000409717
  15	0.000994709	-0.000528761	-0.0007611
  16	0.000312289	-0.000600501	0.000211883
  17	-0.000607346	-0.000144814	-0.000436466
  18	-0.00022321	-0.000431727	0.000870693
  19	-0.000493153	-0.000414941	-0.00121851
  20	-0.00131445	0.000200358	-0.000313679
  21	-0.000684403	-6.25081e-05	-0.000291275
  22	4.67099e-05	8.98447e-05	0.000272012
  23	2.94301e-06	0.000476733	0.000247121
  24	0.000133294	0.000470265	2.44432e-06
  25	0.000553402	0.000423071	8.94954e-05
  26	0.000421907	0.000292115	0.000278398
  27	0.000451727	0.000421109	0.000389573
  28	-0.00021044	0.000641809	0.000136904
  29	3.48894e-05	0.000740664	-9.09101e-05
  30	0.000467925	0.000581428	0.00050517
  31	0.0004506	0.000486039	9.73993e-06
  32	0.000345169	0.000494397	0.000112511
  33	0.000336971	0.00046543	-3.59566e-06
  34	3.01793e-05	-0.000810859	-0.000165302
  35	-0.000116051	-0.000539033	0.00036552
  36	-0.000169291	-0.000510978	0.000493039
  37	-0.000170727	-0.000513748	0.000443217
  38	-2.76643e-05	-0.000482891	0.000126232
  39	5.10088e-05	-0.000401054	-0.000113255
  40	-3.43614e-05	-0.000409005	9.72189e-05
  41	-0.000290352	-0.000526307	0.000666299
  42	-0.000100885	-0.000373271	4.33976e-05
  43	-0.000311088	-0.000506248	0.000529157
  44	-0.000247308	-0.000557615	0.000771295
  45	-0.000159014	-0.000504937	0.000300346
  46	-0.000356498	-0.000131404	-0.000645193
  47	-0.000908433	0.000139462	-0.001209
  48	-0.00128269	0.000776474	-0.000878499
  49	-0.00126806	3.12102e-05	-0.00183887
  50	-0.0007646	-0.000118641	-0.00129442
  51	-0.000699561	0.00035011	-0.000529575
  52	-0.000107858	-0.00061611	-0.000922193
  53	-0.000956686	0.000752373	-0.000250251
  54	-0.000485361	0.000217257	-0.000251895
  55	-0.00091468	0.000420201	-0.00104516
  56	-0.000209811	-0.000359395	0.000659888
  57	-0.000138945	-1.9158e-05	0.000593592
  58	0.000277949	0.000686074	0.000479315
  59	0.000600272	0.000864921	0.000486409
  60	0.000371782	0.000180643	0.000577046
  61	2.02393e-05	-0.000414177	0.000666029
  62	-0.000340543	-0.000344438	0.000600169
  63	0.00026361	0.000821105	0.000411355
  64	-9.67146e-05	-0.00103462	0.000756294
  65	0.000634697	0.000650838	0.000364328
  66	0.000283705	-0.000541804	0.0003921
  67	0.000287451	-0.000513318	0.000201231
  68	-0.000922751	-0.0010705	0.00144902
  69	0.000907428	9.73601e-05	-0.000353595
  70	0.00103373	0.000318589	0.000186993
  71	0.00109163	0.000508703	0.000405933
  72	0.000760903	-4.50126e-05	-0.000705376
  73	0.000794059	0.000161639	-0.000338412
  74	0.00093357	0.000411977	0.00026061
  75	0.00110519	0.000613064	0.000767721
  76	0.000965331	0.000643699	0.000722034
  77	0.00113702	0.000835965	0.00120812
  78	0.00118006	0.000511505	0.000688018
  79	0.000692859	-0.000274813	-0.00113215
  80	0.000371661	0.00122112	-5.10523e-05
  81	0.000108541	0.0022096	-0.000147422
  82	-0.000425834	0.00273857	-0.000691382
  83	0.000494638	0.00278411	0.000521324
  84	2.56446e-05	0.00190276	-0.000339883
  85	-0.00025826	0.000470892	-0.000895293
  86	0.000399441	0.00161048	5.8506e-05
  87	-0.000336764	0.000146294	-0.000963524
  88	-0.000283517	-0.000245784	-0.000827941
  89	-0.000717784	0.000982575	-0.00154493
  90	0.000802117	0.000338848	0.000311674
  91	-0.000267258	0.000141946	0.000193429
  92	-0.000342596	-8.12628e-05	-0.000138601
  93	0.000406833	-0.000146995	-0.000275957
  94	0.000743608	-0.000186145	-0.00015477
  95	0.00104724	2.23189e-05	0.000172552
  96	-0.00105002	0.000121249	0.000352737
  97	-0.00118279	-0.000228802	-0.000307034
  98	0.00140464	-9.85867e-05	0.000351775
  99	0.000298247	-0.000366232	-0.000312577
 100	0.000603842	-0.000382621	-0.000185793
 101	0.000325595	-0.000497366	-0.000189484
 102	0.00065479	-0.000701819	-0.00193988
 103	-0.000414756	-0.000125944	0.000327834
 104	-0.000496399	-4.45405e-05	0.000371799
 105	-0.00062236	-3.82484e-05	-8.44096e-05
 106	-0.000464918	-0.000262953	-5.25871e-05
 107	-0.000655761	-0.000260476	-0.000454241
 108	-0.00073887	-0.000148438	-0.000493414
 109	-0.000747387	2.76175e-05	-0.00024122
 110	-0.0009492	-0.000140799	-0.000977274
 111	-0.00090364	-2.01529e-05	-0.000748655
 112	-0.000507189	8.46951e-05	0.00090241
 113	-0.000110438	-0.000265807	0.000147811
 114	-0.000478386	2.66018e-05	-0.000223223
 115	-0.000511291	0.000875274	6.4458e-05
 116	-0.000791862	0.00127237	-0.000176651
 117	-0.000611742	0.00101802	7.85948e-06
 118	-0.000220233	0.000988644	0.000650811
 119	-0.000295341	-0.000428055	2.20782e-05
 120	-0.0003371	-0.000102277	-4.70267e-05
 121	-0.000392975	-0.000352163	-0.000130315
 122	-0.000342929	-0.000822487	-2.36462e-05
 123	-0.000103108	-0.000361426	0.000422359
 124	-0.000812463	9.66994e-05	-0.000124184
 125	-0.00097864	0.000111283	-0.000165138
 126	-0.00125525	0.000198507	-0.000301988
 127	-0.00109757	0.000183917	-0.000320395
 128	-0.000490566	3.26775e-05	-9.42248e-05
 129	-0.000569283	3.58176e-05	-7.43575e-05
 130	-0.000814098	2.92935e-05	-7.98308e-05
 131	-0.00129688	0.000181786	-0.00031116
 132	-0.000258806	-9.59911e-05	-1.58462e-05
 133	-0.000667809	-7.49353e-05	-0.000492885
 134	0.00054329	-0.000393377	-3.70254e-05
 135	0.000427596	-0.000507507	-0.00033375
 136	0.000357787	-0.000435573	0.000458789
 137	-0.000585763	-0.000356931	0.00038722
 138	-0.000414704	-0.000675376	0.000295445
 139	-0.000254836	-0.000573611	0.000328367
 140	-0.00055842	0.000144847	0.000551577
 141	-0.000433453	9.08384e-05	0.000607918
 142	-0.000247691	-0.000271732	0.000558705
 143	4.65746e-05	-0.000681204	0.000269365
 144	-3.37809e-05	-0.000416073	0.00060697
 145	0.000149507	-0.000624552	0.000397089
 146	-0.000487036	-0.00125667	7.25015e-05
 147	-0.000495861	0.000271432	0.000466997
 148	0.000179796	-7.98101e-06	0.000816186