pySIMM System Object

1090 atoms
1217 bonds
2016 angles
3068 dihedrals
128 impropers

13 atom types
18 bond types
33 angle types
13 dihedral types
2 improper types

-157.469467 157.469467 xlo xhi
-157.469467 157.469467 ylo yhi
-157.469467 157.469467 zlo zhi

Masses

   1	14.01	# n2
   2	12.01	# c2
   3	14.01	# na
   4	12.01	# c1
   5	14.01	# nh
   6	12.01	# c3
   7	1.008	# hc
   8	1.008	# h1
   9	12.01	# ca
  10	1.008	# ha
  11	16.0	# os
  12	1.008	# hn
  13	1.008	# h5

Pair Coeffs

   1	0.17	3.249998523775958	# n2
   2	0.086	3.3996695084235347	# c2
   3	0.17	3.249998523775958	# na
   4	0.21	3.3996695084235347	# c1
   5	0.17	3.249998523775958	# nh
   6	0.1094	3.3996695084235347	# c3
   7	0.0157	2.649532787749369	# hc
   8	0.0157	2.471353044121301	# h1
   9	0.086	3.3996695084235347	# ca
  10	0.015	2.59964245953351	# ha
  11	0.17	3.0000123434657784	# os
  12	0.0157	1.069078461768407	# hn
  13	0.015	2.421462715905442	# h5

Bond Coeffs

   1	300.9	1.5375	# c3,c3
   2	416.2	1.3872	# c2,nh
   3	330.6	1.0969	# c3,hc
   4	397.4	1.4015	# c2,na
   5	345.8	1.086	# ca,ha
   6	625.0	1.307	# c1,c2
   7	330.6	1.0969	# c3,h1
   8	404.6	1.0121	# hn,nh
   9	376.6	1.3696	# ca,os
  10	505.3	1.3676	# n2,na
  11	327.7	1.4629	# c3,na
  12	338.4	1.0912	# c2,h5
  13	569.4	1.3343	# c2,c2
  14	551.6	1.303	# ca,n2
  15	389.2	1.3596	# c2,os
  16	594.1	1.2817	# c2,n2
  17	461.1	1.3984	# ca,ca
  18	482.1	1.3846	# c2,ca

Angle Coeffs

   1	39.4	107.58	# hc,c3,hc
   2	52.26	121.7	# h5,c2,n2
   3	70.06	121.62	# c1,c2,c2
   4	69.58	119.2	# ca,ca,os
   5	78.34	113.82	# n2,c2,n2
   6	70.52	117.58	# c2,n2,na
   7	46.39	109.56	# c3,c3,h1
   8	71.15	126.01	# c2,c2,n2
   9	62.86	111.51	# c3,c3,c3
  10	49.83	108.78	# h1,c3,na
  11	70.0	119.94	# c2,n2,ca
  12	65.52	112.88	# c3,c3,na
  13	69.36	117.0	# c2,c2,ca
  14	71.79	124.27	# n2,c2,nh
  15	46.34	109.8	# c3,c3,hc
  16	65.56	125.0	# c2,na,n2
  17	74.41	119.78	# n2,c2,os
  18	70.62	119.57	# ca,ca,n2
  19	48.18	119.88	# ca,ca,ha
  20	69.14	121.94	# c2,c2,na
  21	71.53	123.62	# n2,c2,na
  22	66.78	120.6	# c2,ca,ca
  23	69.3	121.81	# c2,c2,c2
  24	64.17	118.2	# c2,os,ca
  25	40.07	115.12	# hn,nh,hn
  26	48.59	115.09	# c2,nh,hn
  27	52.71	110.95	# h5,c2,os
  28	65.54	119.24	# c3,na,n2
  29	66.62	120.02	# ca,ca,ca
  30	71.11	118.18	# c2,n2,c2
  31	63.85	117.2	# c2,na,c3
  32	63.96	124.73	# c2,nh,c2
  33	73.36	114.3	# nh,c2,os

Dihedral Coeffs

   1	1	6.65	2	180	# X,c2,c2,X
   2	1	3.625	2	180	# X,ca,ca,X
   3	1	1.7	2	180	# X,n2,na,X
   4	1	0.7	2	180	# X,c2,ca,X
   5	1	0.15555555555555556	3	0	# X,c3,c3,X
   6	1	1.05	2	180	# X,c2,os,X
   7	1	0.0	3	180	# X,ca,n2,X
   8	1	4.15	2	180	# X,c2,n2,X
   9	1	0.9	2	180	# X,ca,os,X
  10	1	0.625	2	180	# X,c2,na,X
  11	1	0.0	2	0	# X,c3,na,X
  12	1	0.16	3	0	# hc,c3,c3,c3
  13	1	0.675	2	180	# X,c2,nh,X

Improper Coeffs

   1	1.1	-1	2	# ca,X,X,ha
   2	1.1	-1	2	# ca,ca,ca,c2

Atoms

   1	1	1	-0.261357	-12.7026	-25.9355	20.4303
   2	1	2	0.070556	-12.9705	-24.6773	20.2774
   3	1	2	0.0266	-14.1153	-24.1644	20.7561
   4	1	2	0.33777	-13.5253	-26.7483	21.0406
   5	1	1	-0.659679	-14.6622	-26.2851	21.4822
   6	1	2	0.428714	-14.9303	-25.0239	21.3456
   7	1	2	0.160826	-14.6965	-22.9514	20.7825
   8	1	3	0.04557	-16.0381	-24.2765	21.7488
   9	1	1	-0.463031	-15.8621	-22.9731	21.3423
  10	1	4	-0.07905	-12.0344	-24.039	19.623
  11	1	5	-0.061319	-13.184	-28.0588	21.29
  12	1	6	0.28436	-17.3619	-24.8981	21.9386
  13	1	6	-0.21175	-18.1949	-24.8967	20.6366
  14	1	7	0.07562	-17.6538	-25.4073	19.8307
  15	1	7	0.047171	-18.4059	-23.8703	20.3094
  16	1	7	0.053131	-19.1516	-25.4122	20.7849
  17	1	6	-0.120715	-18.1636	-24.2445	23.0862
  18	1	8	0.007856	-17.1997	-25.9459	22.2215
  19	1	7	0.031711	-18.3305	-23.1771	22.8928
  20	1	7	0.04419	-17.6285	-24.339	24.0364
  21	1	7	-0.003555	-19.1404	-24.7296	23.2066
  22	1	9	-0.011509	-14.1243	-21.8028	20.2372
  23	1	9	-0.199369	-12.9083	-21.2787	20.749
  24	1	9	-0.201771	-12.3942	-20.0451	20.2926
  25	1	9	0.15189	-13.1435	-19.351	19.3385
  26	1	9	0.348083	-14.3214	-19.8577	18.8286
  27	1	9	-0.230673	-14.8396	-21.0784	19.2565
  28	1	10	0.174789	-12.3813	-21.8199	21.5303
  29	1	10	0.188672	-11.4786	-19.6262	20.6949
  30	1	10	0.201012	-15.7992	-21.4183	18.8856
  31	1	11	-0.381547	-12.945	-18.1144	18.8084
  32	1	1	-0.706002	-14.8439	-19.0055	18.0014
  33	1	2	0.698504	-14.0699	-17.9722	18.0294
  34	1	12	0.214303	-13.9852	-28.665	21.3237
  35	1	1	-0.261357	-12.351	-28.7773	30.2257
  36	1	2	0.070556	-11.8881	-28.8263	29.0172
  37	1	2	0.0266	-11.209	-29.9038	28.5857
  38	1	2	0.33777	-12.1606	-29.7482	31.0786
  39	1	1	-0.659679	-11.5148	-30.8126	30.6848
  40	1	2	0.428714	-11.0536	-30.8726	29.4741
  41	1	2	0.160826	-10.653	-30.3023	27.4233
  42	1	3	0.04557	-10.3744	-31.8903	28.798
  43	1	1	-0.463031	-10.1664	-31.4979	27.4946
  44	1	4	-0.07905	-12.2113	-27.7556	28.338
  45	1	5	-0.061319	-12.7641	-29.7033	32.3146
  46	1	6	0.28436	-10.4629	-33.3093	29.1928
  47	1	6	-0.21175	-11.9155	-33.8266	29.3051
  48	1	7	0.07562	-12.4292	-33.3677	30.1561
  49	1	7	0.047171	-11.9314	-34.9142	29.4472
  50	1	7	0.053131	-12.4827	-33.593	28.3953
  51	1	6	-0.120715	-9.66161	-33.6277	30.4742
  52	1	8	0.007856	-9.99197	-33.8805	28.3822
  53	1	7	0.031711	-10.0962	-33.1307	31.3504
  54	1	7	0.04419	-8.62234	-33.2918	30.3698
  55	1	7	-0.003555	-9.65029	-34.7082	30.6662
  56	1	9	-0.011509	-10.7224	-29.5551	26.2469
  57	1	9	-0.199369	-10.1351	-28.2655	26.1547
  58	1	9	-0.201771	-10.3162	-27.466	25.0052
  59	1	9	0.15189	-11.0492	-28.0189	23.9532
  60	1	9	0.348083	-11.5671	-29.295	24.0036
  61	1	9	-0.230673	-11.4203	-30.0897	25.1381
  62	1	10	0.174789	-9.58847	-27.8643	27.006
  63	1	10	0.188672	-9.93924	-26.4483	24.9453
  64	1	10	0.201012	-11.8926	-31.0646	25.1836
  65	1	11	-0.381547	-11.5018	-27.4286	22.821
  66	1	1	-0.706002	-12.3257	-29.4923	22.9653
  67	1	2	0.698504	-12.2661	-28.4193	22.2524
  68	1	12	0.214303	-13.7327	-29.9781	32.257
  69	1	1	-0.261357	-11.5879	-29.734	41.5975
  70	1	2	0.070556	-11.4074	-30.0582	40.3526
  71	1	2	0.0266	-11.3708	-31.3507	39.9852
  72	1	2	0.33777	-11.7554	-30.636	42.531
  73	1	1	-0.659679	-11.6813	-31.8963	42.1997
  74	1	2	0.428714	-11.5115	-32.2289	40.9619
  75	1	2	0.160826	-11.2438	-32.0299	38.8289
  76	1	3	0.04557	-11.4636	-33.4813	40.3536
  77	1	1	-0.463031	-11.3254	-33.3097	38.993
  78	1	4	-0.07905	-11.312	-29.0225	39.5582
  79	1	5	-0.061319	-12.0038	-30.2726	43.8408
  80	1	6	0.28436	-12.098	-34.6519	40.9861
  81	1	6	-0.21175	-11.5106	-35.9863	40.4813
  82	1	7	0.07562	-11.9275	-36.8266	41.0489
  83	1	7	0.047171	-10.4208	-36.0	40.604
  84	1	7	0.053131	-11.7386	-36.1361	39.4184
  85	1	6	-0.120715	-13.6363	-34.638	40.8362
  86	1	8	0.007856	-11.8727	-34.5974	42.0583
  87	1	7	0.031711	-13.9273	-34.6141	39.7804
  88	1	7	0.04419	-14.0635	-33.7549	41.3278
  89	1	7	-0.003555	-14.0863	-35.5287	41.29
  90	1	9	-0.011509	-11.1064	-31.4058	37.5911
  91	1	9	-0.199369	-9.91058	-30.7179	37.2543
  92	1	9	-0.201771	-9.75609	-30.0995	35.993
  93	1	9	0.15189	-10.8214	-30.205	35.0945
  94	1	9	0.348083	-11.9782	-30.8877	35.4093
  95	1	9	-0.230673	-12.1522	-31.5074	36.646
  96	1	10	0.174789	-9.10263	-30.666	37.9813
  97	1	10	0.188672	-8.85186	-29.5626	35.7208
  98	1	10	0.201012	-13.0639	-32.0523	36.8683
  99	1	11	-0.381547	-10.949	-29.7088	33.8348
 100	1	1	-0.706002	-12.8057	-30.8222	34.4095
 101	1	2	0.698504	-12.1977	-30.1579	33.482
 102	1	12	0.214303	-11.1822	-29.9526	44.3209
 103	1	1	-0.261357	-14.4176	-37.5601	43.3067
 104	1	2	0.070556	-14.4448	-36.6103	44.1849
 105	1	2	0.0266	-15.5016	-36.4701	45.0025
 106	1	2	0.33777	-15.4052	-38.4073	43.1698
 107	1	1	-0.659679	-16.4241	-38.3216	43.9836
 108	1	2	0.428714	-16.4535	-37.3768	44.8721
 109	1	2	0.160826	-15.8673	-35.5884	45.9535
 110	1	3	0.04557	-17.4234	-37.0117	45.8047
 111	1	1	-0.463031	-17.0079	-35.8862	46.4844
 112	1	4	-0.07905	-13.3626	-35.8741	44.1534
 113	1	5	-0.061319	-15.4507	-39.2982	42.1187
 114	1	6	0.28436	-18.471	-37.9401	46.2626
 115	1	6	-0.21175	-19.8225	-37.2284	46.4914
 116	1	7	0.07562	-20.5987	-37.9487	46.7764
 117	1	7	0.047171	-20.1493	-36.7192	45.5762
 118	1	7	0.053131	-19.7398	-36.4784	47.2884
 119	1	6	-0.120715	-18.0424	-38.7186	47.5257
 120	1	8	0.007856	-18.6308	-38.6769	45.4652
 121	1	7	0.031711	-17.8761	-38.0358	48.3688
 122	1	7	0.04419	-17.1107	-39.2679	47.3419
 123	1	7	-0.003555	-18.8118	-39.4445	47.8177
 124	1	9	-0.011509	-15.0947	-34.4503	46.1557
 125	1	9	-0.199369	-14.1169	-34.3974	47.1809
 126	1	9	-0.201771	-13.1663	-33.3502	47.2159
 127	1	9	0.15189	-13.2539	-32.3667	46.2231
 128	1	9	0.348083	-14.2507	-32.3818	45.2684
 129	1	9	-0.230673	-15.1792	-33.4141	45.2003
 130	1	10	0.174789	-14.0491	-35.2161	47.8943
 131	1	10	0.188672	-12.3493	-33.3437	47.9314
 132	1	10	0.201012	-15.8703	-33.4617	44.3661
 133	1	11	-0.381547	-12.3422	-31.4201	45.8641
 134	1	1	-0.706002	-13.9884	-31.5065	44.3509
 135	1	2	0.698504	-12.8521	-30.9826	44.6649
 136	1	12	0.214303	-16.3917	-39.6108	41.9572
 137	1	1	-0.261357	-13.8169	-34.4324	35.0461
 138	1	2	0.070556	-13.629	-35.496	35.76
 139	1	2	0.0266	-13.2913	-36.6548	35.1736
 140	1	2	0.33777	-13.7084	-34.4385	33.7433
 141	1	1	-0.659679	-13.3591	-35.5477	33.1477
 142	1	2	0.428714	-13.1665	-36.6162	33.857
 143	1	2	0.160826	-13.0125	-37.9039	35.5934
 144	1	3	0.04557	-12.7924	-37.908	33.4886
 145	1	1	-0.463031	-12.6781	-38.6863	34.6204
 146	1	4	-0.07905	-13.7694	-35.2738	37.0413
 147	1	5	-0.061319	-13.8293	-33.2419	33.074
 148	1	6	0.28436	-12.09	-38.1794	32.2224
 149	1	6	-0.21175	-12.4536	-39.5657	31.6465
 150	1	7	0.07562	-11.9669	-39.7263	30.6771
 151	1	7	0.047171	-13.5379	-39.6496	31.5025
 152	1	7	0.053131	-12.1371	-40.3665	32.3272
 153	1	6	-0.120715	-10.5576	-38.0314	32.3594
 154	1	8	0.007856	-12.4255	-37.4324	31.4918
 155	1	7	0.031711	-10.2963	-37.0297	32.723
 156	1	7	0.04419	-10.0644	-38.1788	31.3907
 157	1	7	-0.003555	-10.1511	-38.7676	33.0649
 158	1	9	-0.011509	-13.0594	-38.28	36.9353
 159	1	9	-0.199369	-11.87	-38.6852	37.5951
 160	1	9	-0.201771	-11.8843	-39.0783	38.9525
 161	1	9	0.15189	-13.118	-39.0613	39.6092
 162	1	9	0.348083	-14.2842	-38.7014	38.9659
 163	1	9	-0.230673	-14.2928	-38.3085	37.6285
 164	1	10	0.174789	-10.9323	-38.6854	37.0423
 165	1	10	0.188672	-10.979	-39.3719	39.4761
 166	1	10	0.201012	-15.2238	-38.0216	37.1534
 167	1	11	-0.381547	-13.4168	-39.3407	40.9057
 168	1	1	-0.706002	-15.2788	-38.7699	39.7989
 169	1	2	0.698504	-14.77	-39.1073	40.9352
 170	1	12	0.214303	-13.6982	-32.4441	33.6773
 171	1	1	-0.261357	-14.277	-28.6382	25.8704
 172	1	2	0.070556	-14.8649	-29.5246	26.6113
 173	1	2	0.0266	-16.1774	-29.424	26.8655
 174	1	2	0.33777	-14.9108	-27.6112	25.3674
 175	1	1	-0.659679	-16.2017	-27.5256	25.557
 176	1	2	0.428714	-16.8019	-28.4124	26.2887
 177	1	2	0.160826	-17.0597	-30.1151	27.6118
 178	1	3	0.04557	-18.1329	-28.5415	26.6836
 179	1	1	-0.463031	-18.2486	-29.6111	27.5482
 180	1	4	-0.07905	-14.0784	-30.4808	27.0345
 181	1	5	-0.061319	-14.1956	-26.6821	24.6356
 182	1	6	0.28436	-19.0805	-27.4147	26.6118
 183	1	6	-0.21175	-19.3337	-26.7741	27.9946
 184	1	7	0.07562	-19.8043	-27.4945	28.6762
 185	1	7	0.047171	-19.9918	-25.9011	27.9071
 186	1	7	0.053131	-18.3885	-26.4453	28.4441
 187	1	6	-0.120715	-20.4122	-27.8216	25.945
 188	1	8	0.007856	-18.633	-26.64	25.9764
 189	1	7	0.031711	-20.233	-28.2234	24.9399
 190	1	7	0.04419	-21.0788	-26.9556	25.8488
 191	1	7	-0.003555	-20.9308	-28.5896	26.5331
 192	1	9	-0.011509	-16.6278	-31.1352	28.4586
 193	1	9	-0.199369	-16.7823	-32.5028	28.1121
 194	1	9	-0.201771	-16.279	-33.5272	28.9509
 195	1	9	0.15189	-15.6374	-33.1366	30.1324
 196	1	9	0.348083	-15.505	-31.8089	30.4791
 197	1	9	-0.230673	-15.9855	-30.784	29.6679
 198	1	10	0.174789	-17.2818	-32.7611	27.1803
 199	1	10	0.188672	-16.3734	-34.5787	28.6947
 200	1	10	0.201012	-15.8459	-29.7482	29.9553
 201	1	11	-0.381547	-15.035	-33.8868	31.0978
 202	1	1	-0.706002	-14.8558	-31.7111	31.5985
 203	1	2	0.698504	-14.5757	-32.9191	31.9618
 204	1	12	0.214303	-13.2671	-26.9876	24.4012
 205	1	1	-0.261357	-12.015	-18.2616	27.7665
 206	1	2	0.070556	-12.6026	-19.1333	27.0084
 207	1	2	0.0266	-12.64	-18.9621	25.6769
 208	1	2	0.33777	-11.4402	-17.1926	27.2819
 209	1	1	-0.659679	-11.4704	-16.9997	25.9902
 210	1	2	0.428714	-12.05	-17.8693	25.2189
 211	1	2	0.160826	-13.1211	-19.6608	24.6316
 212	1	3	0.04557	-12.1791	-17.9319	23.8259
 213	1	1	-0.463031	-12.8458	-19.0953	23.5031
 214	1	4	-0.07905	-13.0853	-20.1455	27.6829
 215	1	5	-0.061319	-10.8288	-16.3058	28.1447
 216	1	6	0.28436	-11.1543	-17.3663	22.9256
 217	1	6	-0.21175	-9.73377	-17.9049	23.2127
 218	1	7	0.07562	-9.03114	-17.5684	22.4407
 219	1	7	0.047171	-9.7311	-19.0021	23.2191
 220	1	7	0.053131	-9.36446	-17.5529	24.1842
 221	1	6	-0.120715	-11.1569	-15.8256	22.8586
 222	1	8	0.007856	-11.4157	-17.7081	21.9168
 223	1	7	0.031711	-10.3828	-15.465	22.1703
 224	1	7	0.04419	-10.9777	-15.3742	23.8419
 225	1	7	-0.003555	-12.118	-15.4694	22.4813
 226	1	9	-0.011509	-13.7621	-20.8914	24.7832
 227	1	9	-0.199369	-15.0715	-20.9664	25.3282
 228	1	9	-0.201771	-15.7139	-22.2129	25.5133
 229	1	9	0.15189	-15.0182	-23.36	25.1167
 230	1	9	0.348083	-13.7612	-23.2931	24.5557
 231	1	9	-0.230673	-13.1014	-22.0758	24.381
 232	1	10	0.174789	-15.5778	-20.0503	25.6261
 233	1	10	0.188672	-16.7041	-22.2902	25.9529
 234	1	10	0.201012	-12.1038	-22.0526	23.9599
 235	1	11	-0.381547	-15.3674	-24.6718	25.2142
 236	1	1	-0.706002	-13.3354	-24.4951	24.3027
 237	1	2	0.698504	-14.2661	-25.3044	24.6879
 238	1	12	0.214303	-11.1128	-16.46	29.0961
 239	1	1	-0.261357	-10.9479	-7.50447	25.2147
 240	1	2	0.070556	-10.6526	-8.50964	25.9741
 241	1	2	0.0266	-10.7945	-8.42025	27.306
 242	1	2	0.33777	-11.3947	-6.36885	25.6874
 243	1	1	-0.659679	-11.5566	-6.26125	26.9804
 244	1	2	0.428714	-11.2563	-7.26242	27.7496
 245	1	2	0.160826	-10.6098	-9.24575	28.3576
 246	1	3	0.04557	-11.3533	-7.42531	29.1286
 247	1	1	-0.463031	-10.9485	-8.69428	29.4785
 248	1	4	-0.07905	-10.261	-9.5483	25.281
 249	1	5	-0.061319	-11.7114	-5.29654	24.8677
 250	1	6	0.28436	-11.9618	-6.42612	30.0246
 251	1	6	-0.21175	-10.9115	-5.77883	30.9509
 252	1	7	0.07562	-10.1111	-5.31913	30.3578
 253	1	7	0.047171	-10.4596	-6.52893	31.6123
 254	1	7	0.053131	-11.3663	-4.99759	31.5721
 255	1	6	-0.120715	-13.1395	-6.99842	30.8442
 256	1	8	0.007856	-12.3747	-5.62423	29.3997
 257	1	7	0.031711	-13.5798	-6.22835	31.4895
 258	1	7	0.04419	-12.8122	-7.83309	31.4775
 259	1	7	-0.003555	-13.9258	-7.36358	30.1751
 260	1	9	-0.011509	-10.1875	-10.5665	28.1984
 261	1	9	-0.199369	-8.89739	-10.8755	27.6882
 262	1	9	-0.201771	-8.51736	-12.2124	27.426
 263	1	9	0.15189	-9.45619	-13.2113	27.7045
 264	1	9	0.348083	-10.6872	-12.9216	28.2525
 265	1	9	-0.230673	-11.0756	-11.6133	28.5326
 266	1	10	0.174789	-8.20782	-10.0663	27.4558
 267	1	10	0.188672	-7.54984	-12.4622	26.9998
 268	1	10	0.201012	-12.0518	-11.4135	28.9601
 269	1	11	-0.381547	-9.39126	-14.5561	27.5023
 270	1	1	-0.706002	-11.3587	-14.0223	28.4102
 271	1	2	0.698504	-10.6437	-14.9655	27.8973
 272	1	12	0.214303	-12.1288	-4.50894	25.3305
 273	1	1	-0.261357	-12.9645	-9.14059	17.5661
 274	1	2	0.070556	-12.659	-7.99708	18.0882
 275	1	2	0.0266	-11.7183	-7.21837	17.5273
 276	1	2	0.33777	-12.3723	-9.59637	16.4929
 277	1	1	-0.659679	-11.4796	-8.84185	15.9084
 278	1	2	0.428714	-11.1774	-7.68287	16.4126
 279	1	2	0.160826	-11.139	-6.0406	17.8327
 280	1	3	0.04557	-10.2628	-6.69996	16.0092
 281	1	1	-0.463031	-10.2681	-5.68702	16.9458
 282	1	4	-0.07905	-13.3832	-7.73706	19.1473
 283	1	5	-0.061319	-12.5949	-10.8827	16.0375
 284	1	6	0.28436	-9.02788	-7.02489	15.2669
 285	1	6	-0.21175	-9.2469	-7.80253	13.9489
 286	1	7	0.07562	-10.0802	-7.37562	13.3839
 287	1	7	0.047171	-9.47032	-8.85912	14.1408
 288	1	7	0.053131	-8.34731	-7.75859	13.3227
 289	1	6	-0.120715	-7.98387	-7.74098	16.1536
 290	1	8	0.007856	-8.59303	-6.0581	14.9815
 291	1	7	0.031711	-7.77389	-7.15288	17.0562
 292	1	7	0.04419	-7.03956	-7.87474	15.612
 293	1	7	-0.003555	-8.34344	-8.72935	16.4675
 294	1	9	-0.011509	-11.357	-5.42776	19.0684
 295	1	9	-0.199369	-11.886	-4.11472	19.1746
 296	1	9	-0.201771	-12.1738	-3.53898	20.4365
 297	1	9	0.15189	-11.8755	-4.29975	21.5736
 298	1	9	0.348083	-11.2932	-5.54301	21.4713
 299	1	9	-0.230673	-11.0126	-6.13208	20.2447
 300	1	10	0.174789	-12.0912	-3.54916	18.2702
 301	1	10	0.188672	-12.6191	-2.55221	20.525
 302	1	10	0.201012	-10.5847	-7.12794	20.2169
 303	1	11	-0.381547	-12.0831	-4.04238	22.8986
 304	1	1	-0.706002	-11.1359	-6.04886	22.6509
 305	1	2	0.698504	-11.6127	-5.19388	23.4898
 306	1	12	0.214303	-11.7729	-11.2738	15.6129
 307	1	1	-0.261357	-14.2089	-14.0677	23.623
 308	1	2	0.070556	-14.4472	-14.1149	22.3518
 309	1	2	0.0266	-14.9396	-15.234	21.7971
 310	1	2	0.33777	-14.4319	-15.0837	24.4173
 311	1	1	-0.659679	-14.9211	-16.1774	23.9035
 312	1	2	0.428714	-15.1549	-16.2388	22.6289
 313	1	2	0.160826	-15.3124	-15.6078	20.5586
 314	1	3	0.04557	-15.6911	-17.2585	21.847
 315	1	1	-0.463031	-15.8043	-16.8044	20.5464
 316	1	4	-0.07905	-14.1708	-12.9859	21.7496
 317	1	5	-0.061319	-14.2227	-15.0232	25.7799
 318	1	6	0.28436	-16.5918	-18.2508	22.4649
 319	1	6	-0.21175	-16.4943	-19.635	21.8019
 320	1	7	0.07562	-15.4553	-19.9826	21.8249
 321	1	7	0.047171	-16.8287	-19.5958	20.7577
 322	1	7	0.053131	-17.106	-20.3726	22.3354
 323	1	6	-0.120715	-18.0599	-17.7703	22.5148
 324	1	8	0.007856	-16.2646	-18.3872	23.5034
 325	1	7	0.031711	-18.6899	-18.5006	23.0378
 326	1	7	0.04419	-18.4617	-17.6333	21.5028
 327	1	7	-0.003555	-18.1385	-16.8142	23.0477
 328	1	9	-0.011509	-15.2274	-14.7104	19.4943
 329	1	9	-0.199369	-16.3937	-14.0191	19.0785
 330	1	9	-0.201771	-16.3256	-12.985	18.1189
 331	1	9	0.15189	-15.0693	-12.6909	17.5828
 332	1	9	0.348083	-13.9351	-13.3927	17.9397
 333	1	9	-0.230673	-13.9772	-14.4083	18.8996
 334	1	10	0.174789	-17.3465	-14.2547	19.549
 335	1	10	0.188672	-17.199	-12.4043	17.8361
 336	1	10	0.201012	-13.0613	-14.8913	19.2221
 337	1	11	-0.381547	-14.7015	-11.6734	16.7606
 338	1	1	-0.706002	-12.8987	-12.8564	17.3627
 339	1	2	0.698504	-13.3387	-11.8267	16.7178
 340	1	12	0.214303	-14.6274	-15.8069	26.2597
 341	1	1	-0.261357	-17.7432	-6.71868	28.7405
 342	1	2	0.070556	-17.0354	-7.79672	28.6194
 343	1	2	0.0266	-16.5789	-8.43721	29.7084
 344	1	2	0.33777	-18.0469	-6.21153	29.9079
 345	1	1	-0.659679	-17.6282	-6.82281	30.9833
 346	1	2	0.428714	-16.9244	-7.9054	30.869
 347	1	2	0.160826	-15.8262	-9.53011	29.95
 348	1	3	0.04557	-16.3564	-8.73955	31.8285
 349	1	1	-0.463031	-15.6787	-9.76686	31.2132
 350	1	4	-0.07905	-16.8743	-8.14383	27.368
 351	1	5	-0.061319	-18.7464	-5.03036	30.0482
 352	1	6	0.28436	-16.5333	-8.55267	33.2787
 353	1	6	-0.21175	-15.276	-8.95044	34.0844
 354	1	7	0.07562	-14.3927	-8.42318	33.7035
 355	1	7	0.047171	-15.0863	-10.0289	34.007
 356	1	7	0.053131	-15.3952	-8.69749	35.1449
 357	1	6	-0.120715	-17.7769	-9.29842	33.8085
 358	1	8	0.007856	-16.6953	-7.48106	33.4509
 359	1	7	0.031711	-17.9154	-9.11272	34.881
 360	1	7	0.04419	-17.6767	-10.3807	33.6564
 361	1	7	-0.003555	-18.6824	-8.962	33.2878
 362	1	9	-0.011509	-15.2389	-10.2913	28.9413
 363	1	9	-0.199369	-14.3256	-9.69733	28.0286
 364	1	9	-0.201771	-13.7306	-10.4531	26.9975
 365	1	9	0.15189	-14.0307	-11.8141	26.9552
 366	1	9	0.348083	-14.8783	-12.4126	27.8633
 367	1	9	-0.230673	-15.5067	-11.6777	28.8673
 368	1	10	0.174789	-14.0989	-8.63723	28.1088
 369	1	10	0.188672	-13.0594	-10.0138	26.2658
 370	1	10	0.201012	-16.1778	-12.1666	29.5644
 371	1	11	-0.381547	-13.5981	-12.7593	26.0898
 372	1	1	-0.706002	-15.0029	-13.6734	27.5757
 373	1	2	0.698504	-14.2605	-13.8741	26.5386
 374	1	12	0.214303	-18.7018	-4.66582	30.9829
 375	1	1	-0.261357	-17.8778	-1.54785	21.8282
 376	1	2	0.070556	-18.2595	-1.53237	23.0696
 377	1	2	0.0266	-19.3832	-0.887421	23.4251
 378	1	2	0.33777	-18.5578	-0.94693	20.8826
 379	1	1	-0.659679	-19.6391	-0.294042	21.2093
 380	1	2	0.428714	-20.0318	-0.283997	22.4432
 381	1	2	0.160826	-20.0574	-0.664855	24.5718
 382	1	3	0.04557	-21.1254	0.328716	23.0497
 383	1	1	-0.463031	-21.1138	0.0615922	24.3997
 384	1	4	-0.07905	-17.4429	-2.16481	23.8733
 385	1	5	-0.061319	-18.147	-0.911927	19.5654
 386	1	6	0.28436	-22.2359	0.921286	22.2817
 387	1	6	-0.21175	-21.9598	2.39811	21.9272
 388	1	7	0.07562	-22.7576	2.80001	21.2908
 389	1	7	0.047171	-21.0113	2.49443	21.3839
 390	1	7	0.053131	-21.8991	3.01183	22.8348
 391	1	6	-0.120715	-23.6074	0.782832	22.9821
 392	1	8	0.007856	-22.3059	0.365339	21.3379
 393	1	7	0.031711	-23.6358	1.36832	23.9101
 394	1	7	0.04419	-23.8086	-0.26589	23.2346
 395	1	7	-0.003555	-24.416	1.13547	22.3296
 396	1	9	-0.011509	-19.6632	-1.15277	25.8174
 397	1	9	-0.199369	-19.3437	-0.234435	26.8519
 398	1	9	-0.201771	-19.0113	-0.678969	28.1509
 399	1	9	0.15189	-19.0206	-2.05805	28.374
 400	1	9	0.348083	-19.3388	-2.95861	27.3784
 401	1	9	-0.230673	-19.6745	-2.54199	26.09
 402	1	10	0.174789	-19.3761	0.832779	26.6394
 403	1	10	0.188672	-18.7718	0.0135762	28.9526
 404	1	10	0.201012	-19.9432	-3.2749	25.3374
 405	1	11	-0.381547	-18.7627	-2.75435	29.5131
 406	1	1	-0.706002	-19.2847	-4.16399	27.8574
 407	1	2	0.698504	-18.9247	-4.05063	29.0924
 408	1	12	0.214303	-18.446	-0.0935211	19.0658
 409	1	1	-0.261357	-12.7047	-5.58969	12.7688
 410	1	2	0.070556	-13.2387	-5.02996	13.8104
 411	1	2	0.0266	-12.5839	-4.06276	14.4727
 412	1	2	0.33777	-11.5374	-5.22455	12.3054
 413	1	1	-0.659679	-10.8668	-4.30915	12.9488
 414	1	2	0.428714	-11.3905	-3.75007	13.9933
 415	1	2	0.160826	-12.8248	-3.27249	15.5381
 416	1	3	0.04557	-10.9195	-2.72936	14.8142
 417	1	1	-0.463031	-11.8566	-2.44972	15.7819
 418	1	4	-0.07905	-14.4359	-5.48668	14.0735
 419	1	5	-0.061319	-11.0127	-5.83751	11.1885
 420	1	6	0.28436	-9.51097	-2.29359	14.8138
 421	1	6	-0.21175	-8.98428	-1.9251	16.2203
 422	1	7	0.07562	-7.9172	-1.67502	16.1853
 423	1	7	0.047171	-9.1141	-2.76734	16.9121
 424	1	7	0.053131	-9.52646	-1.06266	16.6288
 425	1	6	-0.120715	-9.28162	-1.12621	13.8302
 426	1	8	0.007856	-8.90831	-3.1411	14.4628
 427	1	7	0.031711	-8.22229	-0.842342	13.8007
 428	1	7	0.04419	-9.86615	-0.246172	14.1272
 429	1	7	-0.003555	-9.58326	-1.40981	12.8139
 430	1	9	-0.011509	-13.9713	-3.30408	16.3364
 431	1	9	-0.199369	-14.3695	-4.49062	17.01
 432	1	9	-0.201771	-15.4096	-4.47851	17.9667
 433	1	9	0.15189	-16.029	-3.25261	18.2258
 434	1	9	0.348083	-15.6603	-2.09861	17.5687
 435	1	9	-0.230673	-14.6325	-2.08706	16.6271
 436	1	10	0.174789	-13.8327	-5.41759	16.8268
 437	1	10	0.188672	-15.6956	-5.37287	18.5135
 438	1	10	0.201012	-14.3214	-1.15224	16.1734
 439	1	11	-0.381547	-16.9848	-2.93123	19.1395
 440	1	1	-0.706002	-16.3599	-1.10124	18.0198
 441	1	2	0.698504	-17.0918	-1.571	18.9735
 442	1	12	0.214303	-10.9589	-6.83886	11.2398
 443	1	1	-0.261357	-4.69511	-2.42401	4.45734
 444	1	2	0.070556	-5.64575	-2.93073	5.18182
 445	1	2	0.0266	-6.11692	-4.16275	4.92358
 446	1	2	0.33777	-4.14349	-3.08624	3.47288
 447	1	1	-0.659679	-4.57774	-4.28915	3.21195
 448	1	2	0.428714	-5.53195	-4.79793	3.92176
 449	1	2	0.160826	-7.06542	-4.97446	5.43389
 450	1	3	0.04557	-6.15436	-6.04182	3.85417
 451	1	1	-0.463031	-7.13006	-6.11314	4.82299
 452	1	4	-0.07905	-6.03226	-2.12755	6.13969
 453	1	5	-0.061319	-3.17337	-2.49423	2.68908
 454	1	6	0.28436	-6.06572	-6.90743	2.66251
 455	1	6	-0.21175	-7.45093	-7.26915	2.07965
 456	1	7	0.07562	-8.0293	-6.36043	1.87237
 457	1	7	0.047171	-8.02465	-7.88477	2.78428
 458	1	7	0.053131	-7.34529	-7.82804	1.14179
 459	1	6	-0.120715	-5.24395	-8.18271	2.9442
 460	1	8	0.007856	-5.53391	-6.34817	1.88236
 461	1	7	0.031711	-5.71063	-8.78145	3.73674
 462	1	7	0.04419	-4.22754	-7.92161	3.26453
 463	1	7	-0.003555	-5.1653	-8.80456	2.04331
 464	1	9	-0.011509	-7.90786	-4.64177	6.49623
 465	1	9	-0.199369	-8.77578	-3.51817	6.42671
 466	1	9	-0.201771	-9.6873	-3.23212	7.46848
 467	1	9	0.15189	-9.7142	-4.11053	8.55552
 468	1	9	0.348083	-8.90088	-5.22177	8.6164
 469	1	9	-0.230673	-7.99274	-5.52007	7.60175
 470	1	10	0.174789	-8.75353	-2.87762	5.54743
 471	1	10	0.188672	-10.368	-2.3867	7.42199
 472	1	10	0.201012	-7.40082	-6.42745	7.64925
 473	1	11	-0.381547	-10.5431	-4.13547	9.63229
 474	1	1	-0.706002	-9.2192	-5.93398	9.65571
 475	1	2	0.698504	-10.1438	-5.28228	10.2773
 476	1	12	0.214303	-3.40197	-1.54908	2.43755
 477	1	1	-0.261357	2.84828	-4.52574	-4.58523
 478	1	2	0.070556	1.97224	-4.61126	-3.63264
 479	1	2	0.0266	0.750489	-5.10881	-3.88058
 480	1	2	0.33777	2.57985	-4.89567	-5.81072
 481	1	1	-0.659679	1.40277	-5.39773	-6.0727
 482	1	2	0.428714	0.52136	-5.48989	-5.12654
 483	1	2	0.160826	-0.373073	-5.31006	-3.1697
 484	1	3	0.04557	-0.805663	-5.92985	-5.15321
 485	1	1	-0.463031	-1.33572	-5.7813	-3.88933
 486	1	4	-0.07905	2.40532	-4.15746	-2.4843
 487	1	5	-0.061319	3.54828	-4.85761	-6.78779
 488	1	6	0.28436	-1.62311	-5.70307	-6.359
 489	1	6	-0.21175	-2.09031	-4.23201	-6.46578
 490	1	7	0.07562	-1.22954	-3.55161	-6.46024
 491	1	7	0.047171	-2.7397	-3.96578	-5.62155
 492	1	7	0.053131	-2.64859	-4.06408	-7.39449
 493	1	6	-0.120715	-2.83402	-6.6596	-6.43851
 494	1	8	0.007856	-0.991387	-5.91294	-7.23126
 495	1	7	0.031711	-3.41508	-6.47774	-7.35119
 496	1	7	0.04419	-3.50083	-6.52254	-5.57727
 497	1	7	-0.003555	-2.50201	-7.70525	-6.45136
 498	1	9	-0.011509	-0.521152	-4.97143	-1.82617
 499	1	9	-0.199369	0.150121	-5.70314	-0.811367
 500	1	9	-0.201771	-0.0944572	-5.44205	0.556035
 501	1	9	0.15189	-1.01748	-4.43754	0.861854
 502	1	9	0.348083	-1.66039	-3.70926	-0.11783
 503	1	9	-0.230673	-1.44695	-3.9625	-1.4718
 504	1	10	0.174789	0.834963	-6.50052	-1.09169
 505	1	10	0.188672	0.382004	-6.01533	1.34614
 506	1	10	0.201012	-2.01448	-3.42365	-2.22192
 507	1	11	-0.381547	-1.52019	-4.06191	2.06683
 508	1	1	-0.706002	-2.51025	-2.89356	0.431918
 509	1	2	0.698504	-2.47597	-3.14701	1.6971
 510	1	12	0.214303	3.78506	-5.78787	-7.09015
 511	1	1	-0.261357	5.6251	-3.12962	-15.4502
 512	1	2	0.070556	5.18496	-2.81463	-14.268
 513	1	2	0.0266	4.01489	-2.16786	-14.1306
 514	1	2	0.33777	4.95773	-2.83514	-16.539
 515	1	1	-0.659679	3.82625	-2.20185	-16.426
 516	1	2	0.428714	3.38458	-1.87667	-15.256
 517	1	2	0.160826	3.263	-1.71061	-13.1084
 518	1	3	0.04557	2.22486	-1.2096	-14.8659
 519	1	1	-0.463031	2.17796	-1.12344	-13.4967
 520	1	4	-0.07905	5.98497	-3.17086	-13.2958
 521	1	5	-0.061319	5.34101	-3.19576	-17.8119
 522	1	6	0.28436	1.18579	-0.713685	-15.7841
 523	1	6	-0.21175	0.493198	-1.84371	-16.5785
 524	1	7	0.07562	-0.348389	-1.4473	-17.1591
 525	1	7	0.047171	0.103417	-2.60971	-15.8964
 526	1	7	0.053131	1.19	-2.32701	-17.2743
 527	1	6	-0.120715	1.70031	0.400401	-16.7224
 528	1	8	0.007856	0.412349	-0.257452	-15.1528
 529	1	7	0.031711	0.879794	0.810253	-17.324
 530	1	7	0.04419	2.4685	0.0211385	-17.4076
 531	1	7	-0.003555	2.13635	1.22281	-16.1412
 532	1	9	-0.011509	3.53884	-1.89325	-11.7538
 533	1	9	-0.199369	3.55315	-0.769269	-10.8848
 534	1	9	-0.201771	3.60652	-0.925008	-9.48099
 535	1	9	0.15189	3.64644	-2.23036	-8.98533
 536	1	9	0.348083	3.65406	-3.32539	-9.8238
 537	1	9	-0.230673	3.58818	-3.19729	-11.2097
 538	1	10	0.174789	3.45712	0.22774	-11.3104
 539	1	10	0.188672	3.56184	-0.0757825	-8.80519
 540	1	10	0.201012	3.51473	-4.0835	-11.8301
 541	1	11	-0.381547	3.56669	-2.67609	-7.70159
 542	1	1	-0.706002	3.60035	-4.40859	-9.11541
 543	1	2	0.698504	3.49749	-4.03554	-7.88554
 544	1	12	0.214303	4.60795	-3.12045	-18.4953
 545	1	1	-0.261357	11.785	-3.26013	-23.9874
 546	1	2	0.070556	11.2667	-3.74585	-22.9
 547	1	2	0.0266	10.9963	-5.05893	-22.8073
 548	1	2	0.33777	12.0598	-4.01457	-25.0209
 549	1	1	-0.659679	11.8569	-5.29861	-24.923
 550	1	2	0.428714	11.3358	-5.79345	-23.8502
 551	1	2	0.160826	10.3943	-5.86224	-21.9125
 552	1	3	0.04557	10.9018	-7.08828	-23.5689
 553	1	1	-0.463031	10.2856	-7.07893	-22.3351
 554	1	4	-0.07905	11.0005	-2.83451	-21.999
 555	1	5	-0.061319	12.3653	-3.43637	-26.238
 556	1	6	0.28436	10.4897	-7.97584	-24.6761
 557	1	6	-0.21175	9.23814	-7.45697	-25.4269
 558	1	7	0.07562	9.4189	-6.45796	-25.8429
 559	1	7	0.047171	8.3743	-7.39378	-24.7531
 560	1	7	0.053131	8.97816	-8.12163	-26.2596
 561	1	6	-0.120715	10.2688	-9.43501	-24.2177
 562	1	8	0.007856	11.3185	-7.99169	-25.3955
 563	1	7	0.031711	10.056	-10.0844	-25.0758
 564	1	7	0.04419	9.42408	-9.50263	-23.52
 565	1	7	-0.003555	11.1623	-9.82302	-23.7127
 566	1	9	-0.011509	9.78483	-5.36662	-20.7649
 567	1	9	-0.199369	10.5334	-5.03472	-19.605
 568	1	9	-0.201771	9.89673	-4.50068	-18.4589
 569	1	9	0.15189	8.50866	-4.32868	-18.5167
 570	1	9	0.348083	7.78237	-4.67101	-19.6374
 571	1	9	-0.230673	8.38525	-5.18988	-20.7777
 572	1	10	0.174789	11.6117	-5.18027	-19.6068
 573	1	10	0.188672	10.4541	-4.21783	-17.5705
 574	1	10	0.201012	7.78701	-5.43295	-21.6492
 575	1	11	-0.381547	7.64867	-3.79012	-17.6066
 576	1	1	-0.706002	6.53896	-4.35427	-19.4634
 577	1	2	0.698504	6.44911	-3.86491	-18.2766
 578	1	12	0.214303	12.5614	-2.45789	-26.1249
 579	1	1	-0.261357	4.6862	-6.85765	-26.4587
 580	1	2	0.070556	5.60678	-6.21711	-27.1068
 581	1	2	0.0266	5.93463	-6.58037	-28.3573
 582	1	2	0.33777	4.05219	-7.88006	-26.9746
 583	1	1	-0.659679	4.37011	-8.2643	-28.1822
 584	1	2	0.428714	5.27439	-7.61535	-28.8513
 585	1	2	0.160826	6.83135	-6.1705	-29.2736
 586	1	3	0.04557	5.80983	-7.81767	-30.1313
 587	1	1	-0.463031	6.80981	-6.89442	-30.342
 588	1	4	-0.07905	6.14276	-5.25395	-26.4009
 589	1	5	-0.061319	3.12825	-8.60498	-26.2457
 590	1	6	0.28436	5.86134	-9.14518	-30.7721
 591	1	6	-0.21175	4.47808	-9.68166	-31.2001
 592	1	7	0.07562	3.97331	-8.96034	-31.8544
 593	1	7	0.047171	3.83472	-9.86938	-30.3323
 594	1	7	0.053131	4.58569	-10.6227	-31.7537
 595	1	6	-0.120715	6.63941	-10.1857	-29.9349
 596	1	8	0.007856	6.433	-9.00973	-31.6997
 597	1	7	0.031711	6.12403	-10.4056	-28.992
 598	1	7	0.04419	7.64355	-9.81135	-29.6978
 599	1	7	-0.003555	6.75351	-11.1251	-30.4903
 600	1	9	-0.011509	7.77121	-5.18061	-29.0016
 601	1	9	-0.199369	7.40708	-3.8109	-28.9218
 602	1	9	-0.201771	8.34197	-2.83801	-28.4987
 603	1	9	0.15189	9.63896	-3.27622	-28.2101
 604	1	9	0.348083	10.0131	-4.59497	-28.3561
 605	1	9	-0.230673	9.09893	-5.57503	-28.7304
 606	1	10	0.174789	6.37779	-3.5195	-29.1208
 607	1	10	0.188672	8.05843	-1.8015	-28.3401
 608	1	10	0.201012	9.39661	-6.6173	-28.7438
 609	1	11	-0.381547	10.6484	-2.62278	-27.5734
 610	1	1	-0.706002	11.1852	-4.77009	-27.8334
 611	1	2	0.698504	11.5466	-3.6353	-27.333
 612	1	12	0.214303	3.19576	-9.59201	-26.4187
 613	1	1	-0.261357	0.497872	-9.7482	-17.2673
 614	1	2	0.070556	0.877521	-9.19178	-18.3783
 615	1	2	0.0266	1.8612	-8.27868	-18.3717
 616	1	2	0.33777	1.0302	-9.43661	-16.1123