pySIMM System Object

1430 atoms
1597 bonds
2646 angles
4028 dihedrals
168 impropers

13 atom types
18 bond types
33 angle types
13 dihedral types
2 improper types

-172.850410 172.850410 xlo xhi
-172.850410 172.850410 ylo yhi
-172.850410 172.850410 zlo zhi

Masses

   1	14.01	# n2
   2	12.01	# c2
   3	14.01	# na
   4	12.01	# c1
   5	14.01	# nh
   6	12.01	# c3
   7	1.008	# hc
   8	1.008	# h1
   9	12.01	# ca
  10	1.008	# ha
  11	16.0	# os
  12	1.008	# hn
  13	1.008	# h5

Pair Coeffs

   1	0.17	3.249998523775958	# n2
   2	0.086	3.3996695084235347	# c2
   3	0.17	3.249998523775958	# na
   4	0.21	3.3996695084235347	# c1
   5	0.17	3.249998523775958	# nh
   6	0.1094	3.3996695084235347	# c3
   7	0.0157	2.649532787749369	# hc
   8	0.0157	2.471353044121301	# h1
   9	0.086	3.3996695084235347	# ca
  10	0.015	2.59964245953351	# ha
  11	0.17	3.0000123434657784	# os
  12	0.0157	1.069078461768407	# hn
  13	0.015	2.421462715905442	# h5

Bond Coeffs

   1	300.9	1.5375	# c3,c3
   2	416.2	1.3872	# c2,nh
   3	330.6	1.0969	# c3,hc
   4	397.4	1.4015	# c2,na
   5	345.8	1.086	# ca,ha
   6	625.0	1.307	# c1,c2
   7	330.6	1.0969	# c3,h1
   8	404.6	1.0121	# hn,nh
   9	376.6	1.3696	# ca,os
  10	505.3	1.3676	# n2,na
  11	327.7	1.4629	# c3,na
  12	338.4	1.0912	# c2,h5
  13	569.4	1.3343	# c2,c2
  14	551.6	1.303	# ca,n2
  15	389.2	1.3596	# c2,os
  16	594.1	1.2817	# c2,n2
  17	461.1	1.3984	# ca,ca
  18	482.1	1.3846	# c2,ca

Angle Coeffs

   1	39.4	107.58	# hc,c3,hc
   2	52.26	121.7	# h5,c2,n2
   3	70.06	121.62	# c1,c2,c2
   4	69.58	119.2	# ca,ca,os
   5	78.34	113.82	# n2,c2,n2
   6	70.52	117.58	# c2,n2,na
   7	46.39	109.56	# c3,c3,h1
   8	71.15	126.01	# c2,c2,n2
   9	62.86	111.51	# c3,c3,c3
  10	49.83	108.78	# h1,c3,na
  11	70.0	119.94	# c2,n2,ca
  12	65.52	112.88	# c3,c3,na
  13	69.36	117.0	# c2,c2,ca
  14	71.79	124.27	# n2,c2,nh
  15	46.34	109.8	# c3,c3,hc
  16	65.56	125.0	# c2,na,n2
  17	74.41	119.78	# n2,c2,os
  18	70.62	119.57	# ca,ca,n2
  19	48.18	119.88	# ca,ca,ha
  20	69.14	121.94	# c2,c2,na
  21	71.53	123.62	# n2,c2,na
  22	66.78	120.6	# c2,ca,ca
  23	69.3	121.81	# c2,c2,c2
  24	64.17	118.2	# c2,os,ca
  25	40.07	115.12	# hn,nh,hn
  26	48.59	115.09	# c2,nh,hn
  27	52.71	110.95	# h5,c2,os
  28	65.54	119.24	# c3,na,n2
  29	66.62	120.02	# ca,ca,ca
  30	71.11	118.18	# c2,n2,c2
  31	63.85	117.2	# c2,na,c3
  32	63.96	124.73	# c2,nh,c2
  33	73.36	114.3	# nh,c2,os

Dihedral Coeffs

   1	1	6.65	2	180	# X,c2,c2,X
   2	1	3.625	2	180	# X,ca,ca,X
   3	1	1.7	2	180	# X,n2,na,X
   4	1	0.7	2	180	# X,c2,ca,X
   5	1	0.15555555555555556	3	0	# X,c3,c3,X
   6	1	1.05	2	180	# X,c2,os,X
   7	1	0.0	3	180	# X,ca,n2,X
   8	1	4.15	2	180	# X,c2,n2,X
   9	1	0.9	2	180	# X,ca,os,X
  10	1	0.625	2	180	# X,c2,na,X
  11	1	0.0	2	0	# X,c3,na,X
  12	1	0.16	3	0	# hc,c3,c3,c3
  13	1	0.675	2	180	# X,c2,nh,X

Improper Coeffs

   1	1.1	-1	2	# ca,X,X,ha
   2	1.1	-1	2	# ca,ca,ca,c2

Atoms

   1	1	1	-0.261357	-9.25876	42.8942	-5.72415
   2	1	2	0.070556	-8.52769	42.0887	-5.01687
   3	1	2	0.0266	-7.20196	42.0124	-5.22238
   4	1	2	0.33777	-8.74604	43.6497	-6.65999
   5	1	1	-0.659679	-7.46851	43.5658	-6.90971
   6	1	2	0.428714	-6.72816	42.7913	-6.18154
   7	1	2	0.160826	-6.17434	41.2976	-4.72149
   8	1	3	0.04557	-5.35817	42.5371	-6.2308
   9	1	1	-0.463031	-5.05205	41.5613	-5.30961
  10	1	4	-0.07905	-9.23499	41.3855	-4.17045
  11	1	5	-0.061319	-9.5352	44.4298	-7.47126
  12	1	6	0.28436	-4.5716	42.8014	-7.44889
  13	1	6	-0.21175	-4.75544	41.6912	-8.50763
  14	1	7	0.07562	-5.81494	41.5773	-8.76823
  15	1	7	0.047171	-4.38947	40.7278	-8.13013
  16	1	7	0.053131	-4.20495	41.9332	-9.42512
  17	1	6	-0.120715	-3.07139	43.0152	-7.14947
  18	1	8	0.007856	-4.94639	43.7371	-7.88344
  19	1	7	0.031711	-2.62376	42.1153	-6.70814
  20	1	7	0.04419	-2.93272	43.8471	-6.45024
  21	1	7	-0.003555	-2.52148	43.2556	-8.06801
  22	1	9	-0.011509	-6.28691	40.3216	-3.72841
  23	1	9	-0.199369	-6.7991	40.636	-2.4434
  24	1	9	-0.201771	-6.7995	39.6849	-1.3991
  25	1	9	0.15189	-6.25664	38.4286	-1.67601
  26	1	9	0.348083	-5.76448	38.1047	-2.92341
  27	1	9	-0.230673	-5.76331	39.029	-3.96907
  28	1	10	0.174789	-7.16514	41.6391	-2.2493
  29	1	10	0.188672	-7.16838	39.923	-0.407874
  30	1	10	0.201012	-5.32385	38.7658	-4.92338
  31	1	11	-0.381547	-6.06239	37.3687	-0.84829
  32	1	1	-0.706002	-5.29321	36.8936	-2.90471
  33	1	2	0.698504	-5.43376	36.482	-1.68679
  34	1	12	0.214303	-9.27141	44.3001	-8.43169
  35	1	1	-0.261357	-7.2808	53.3119	-5.89873
  36	1	2	0.070556	-8.00905	52.272	-6.16792
  37	1	2	0.0266	-8.98986	52.348	-7.08389
  38	1	2	0.33777	-7.47565	54.4623	-6.48964
  39	1	1	-0.659679	-8.39013	54.5467	-7.41523
  40	1	2	0.428714	-9.12271	53.5158	-7.68937
  41	1	2	0.160826	-9.90932	51.503	-7.58934
  42	1	3	0.04557	-10.1661	53.3479	-8.60101
  43	1	1	-0.463031	-10.6182	52.0483	-8.52452
  44	1	4	-0.07905	-7.65663	51.2098	-5.48887
  45	1	5	-0.061319	-6.72538	55.5708	-6.16912
  46	1	6	0.28436	-10.3204	54.1913	-9.8032
  47	1	6	-0.21175	-9.11123	54.0987	-10.7607
  48	1	7	0.07562	-8.21155	54.5209	-10.2978
  49	1	7	0.047171	-9.30755	54.6471	-11.6893
  50	1	7	0.053131	-8.90535	53.0532	-11.0213
  51	1	6	-0.120715	-10.6579	55.6665	-9.48425
  52	1	8	0.007856	-11.1839	53.7878	-10.3476
  53	1	7	0.031711	-9.80848	56.1839	-9.02158
  54	1	7	0.04419	-11.5119	55.7282	-8.79848
  55	1	7	-0.003555	-10.9202	56.2103	-10.3998
  56	1	9	-0.011509	-10.0408	50.1876	-7.14502
  57	1	9	-0.199369	-10.5313	49.9078	-5.84129
  58	1	9	-0.201771	-10.6516	48.5783	-5.37413
  59	1	9	0.15189	-10.2814	47.5554	-6.25166
  60	1	9	0.348083	-9.82607	47.8217	-7.52646
  61	1	9	-0.230673	-9.70346	49.1236	-8.00956
  62	1	10	0.174789	-10.8026	50.7332	-5.18614
  63	1	10	0.188672	-10.9998	48.3492	-4.37089
  64	1	10	0.201012	-9.34088	49.3081	-9.015
  65	1	11	-0.381547	-10.2526	46.2074	-6.06124
  66	1	1	-0.706002	-9.49408	46.7093	-8.11042
  67	1	2	0.698504	-9.73421	45.772	-7.25491
  68	1	12	0.214303	-6.0212	55.7406	-6.87072
  69	1	1	-0.261357	-8.81958	64.2705	-2.39954
  70	1	2	0.070556	-8.83448	63.1325	-3.02825
  71	1	2	0.0266	-9.21767	63.0692	-4.3161
  72	1	2	0.33777	-9.1576	65.3907	-2.98724
  73	1	1	-0.659679	-9.56996	65.3413	-4.22349
  74	1	2	0.428714	-9.57802	64.2176	-4.85934
  75	1	2	0.160826	-9.32724	62.1139	-5.26175
  76	1	3	0.04557	-9.91453	63.9264	-6.17711
  77	1	1	-0.463031	-9.70845	62.5838	-6.4053
  78	1	4	-0.07905	-8.40739	62.1376	-2.29327
  79	1	5	-0.061319	-9.08426	66.6051	-2.32922
  80	1	6	0.28436	-9.9059	64.977	-7.20969
  81	1	6	-0.21175	-10.8465	64.6565	-8.38907
  82	1	7	0.07562	-10.8794	65.4969	-9.09162
  83	1	7	0.047171	-11.8666	64.4729	-8.03078
  84	1	7	0.053131	-10.5087	63.765	-8.93024
  85	1	6	-0.120715	-8.4799	65.3017	-7.7086
  86	1	8	0.007856	-10.298	65.8857	-6.7379
  87	1	7	0.031711	-8.01114	64.4192	-8.15956
  88	1	7	0.04419	-7.84834	65.6354	-6.87562
  89	1	7	-0.003555	-8.49753	66.1016	-8.45913
  90	1	9	-0.011509	-9.04779	60.7652	-5.04456
  91	1	9	-0.199369	-9.81031	60.0168	-4.10929
  92	1	9	-0.201771	-9.5952	58.6332	-3.93327
  93	1	9	0.15189	-8.61435	58.0344	-4.72634
  94	1	9	0.348083	-7.87701	58.7458	-5.65174
  95	1	9	-0.230673	-8.07811	60.1137	-5.84443
  96	1	10	0.174789	-10.5856	60.515	-3.53078
  97	1	10	0.188672	-10.1774	58.0444	-3.23014
  98	1	10	0.201012	-7.52487	60.6513	-6.60725
  99	1	11	-0.381547	-8.24995	56.7306	-4.80011
 100	1	1	-0.706002	-7.07632	57.9369	-6.28519
 101	1	2	0.698504	-7.31165	56.7595	-5.80027
 102	1	12	0.214303	-9.74806	66.6867	-1.58048
 103	1	1	-0.261357	-10.0888	68.2678	-9.99501
 104	1	2	0.070556	-9.85859	68.8796	-8.8781
 105	1	2	0.0266	-8.97848	69.8924	-8.82812
 106	1	2	0.33777	-9.48121	68.5956	-11.1068
 107	1	1	-0.659679	-8.64006	69.5948	-11.0893
 108	1	2	0.428714	-8.41255	70.2209	-9.97585
 109	1	2	0.160826	-8.47198	70.6744	-7.8564
 110	1	3	0.04557	-7.5457	71.2702	-9.6676
 111	1	1	-0.463031	-7.5867	71.5007	-8.30812
 112	1	4	-0.07905	-10.5557	68.3895	-7.88487
 113	1	5	-0.061319	-9.62946	67.859	-12.2642
 114	1	6	0.28436	-6.37691	71.5661	-10.515
 115	1	6	-0.21175	-5.17919	70.6413	-10.2011
 116	1	7	0.07562	-4.34097	70.8474	-10.8777
 117	1	7	0.047171	-5.46115	69.5878	-10.3208
 118	1	7	0.053131	-4.83311	70.7878	-9.16984
 119	1	6	-0.120715	-5.95506	73.0496	-10.4339
 120	1	8	0.007856	-6.67181	71.3775	-11.5551
 121	1	7	0.031711	-5.61314	73.3065	-9.42305
 122	1	7	0.04419	-6.79904	73.704	-10.6849
 123	1	7	-0.003555	-5.13961	73.2627	-11.1366
 124	1	9	-0.011509	-8.78258	70.4107	-6.52678
 125	1	9	-0.199369	-9.94952	70.9436	-5.92068
 126	1	9	-0.201771	-10.3807	70.4804	-4.65531
 127	1	9	0.15189	-9.59327	69.5116	-4.0212
 128	1	9	0.348083	-8.42095	69.0458	-4.58118
 129	1	9	-0.230673	-7.99862	69.4594	-5.84001
 130	1	10	0.174789	-10.5605	71.6536	-6.47421
 131	1	10	0.188672	-11.3221	70.8014	-4.21909
 132	1	10	0.201012	-7.14001	68.9866	-6.3035
 133	1	11	-0.381547	-9.88837	68.7249	-2.94839
 134	1	1	-0.706002	-7.99591	68.0223	-3.91158
 135	1	2	0.698504	-8.87406	67.7976	-2.99298
 136	1	12	0.214303	-8.88404	68.0447	-12.9118
 137	1	1	-0.261357	-7.549	60.0387	-9.6289
 138	1	2	0.070556	-8.39843	60.8061	-10.236
 139	1	2	0.0266	-9.18863	60.3141	-11.2042
 140	1	2	0.33777	-7.41228	58.7753	-9.93587
 141	1	1	-0.659679	-8.18874	58.2676	-10.8552
 142	1	2	0.428714	-9.04483	59.0262	-11.4604
 143	1	2	0.160826	-10.1359	60.8064	-12.0258
 144	1	3	0.04557	-9.97392	58.7436	-12.4584
 145	1	1	-0.463031	-10.6292	59.9037	-12.8098
 146	1	4	-0.07905	-8.37067	62.0356	-9.79052
 147	1	5	-0.061319	-6.47948	58.0185	-9.25976
 148	1	6	0.28436	-9.87012	57.5401	-13.3015
 149	1	6	-0.21175	-9.10428	57.8117	-14.6148
 150	1	7	0.07562	-8.98716	56.8887	-15.1952
 151	1	7	0.047171	-8.10412	58.2095	-14.4024
 152	1	7	0.053131	-9.63937	58.5431	-15.2339
 153	1	6	-0.120715	-11.2492	56.9088	-13.592
 154	1	8	0.007856	-9.29372	56.7941	-12.7408
 155	1	7	0.031711	-11.7812	56.6941	-12.6573
 156	1	7	0.04419	-11.1365	55.966	-14.1411
 157	1	7	-0.003555	-11.8739	57.5824	-14.1924
 158	1	9	-0.011509	-10.4967	62.1512	-12.0157
 159	1	9	-0.199369	-11.7733	62.5323	-11.5301
 160	1	9	-0.201771	-12.1476	63.8922	-11.4562
 161	1	9	0.15189	-11.2154	64.8356	-11.8972
 162	1	9	0.348083	-9.98603	64.4706	-12.4066
 163	1	9	-0.230673	-9.59341	63.1355	-12.4812
 164	1	10	0.174789	-12.4599	61.762	-11.1838
 165	1	10	0.188672	-13.1023	64.2043	-11.0427
 166	1	10	0.201012	-8.60628	62.8786	-12.8478
 167	1	11	-0.381547	-11.2605	66.1916	-11.8315
 168	1	1	-0.706002	-9.28615	65.5355	-12.6607
 169	1	2	0.698504	-10.0128	66.535	-12.2917
 170	1	12	0.214303	-6.36396	58.2725	-8.29013
 171	1	1	-0.261357	-6.57866	49.2573	-8.62418
 172	1	2	0.070556	-6.04227	50.3462	-9.07605
 173	1	2	0.0266	-4.70804	50.4912	-9.07186
 174	1	2	0.33777	-5.86373	48.2776	-8.13592
 175	1	1	-0.659679	-4.56292	48.3911	-8.13533
 176	1	2	0.428714	-4.01653	49.4708	-8.59604
 177	1	2	0.160826	-3.84846	51.4629	-9.43022
 178	1	3	0.04557	-2.68374	49.8612	-8.70146
 179	1	1	-0.463031	-2.61653	51.1413	-9.20711
 180	1	4	-0.07905	-6.92112	51.2163	-9.50503
 181	1	5	-0.061319	-6.49972	47.1702	-7.61973
 182	1	6	0.28436	-1.58032	49.139	-8.04537
 183	1	6	-0.21175	-0.990351	49.9279	-6.8557
 184	1	7	0.07562	-0.556279	50.8772	-7.19519
 185	1	7	0.047171	-0.205556	49.349	-6.35353
 186	1	7	0.053131	-1.77139	50.1529	-6.11877
 187	1	6	-0.120715	-0.473041	48.7514	-9.049
 188	1	8	0.007856	-1.98587	48.203	-7.64107
 189	1	7	0.031711	-0.890386	48.1591	-9.87295
 190	1	7	0.04419	0.302826	48.1505	-8.55898
 191	1	7	-0.003555	0.00255764	49.6436	-9.47625
 192	1	9	-0.011509	-4.31324	52.6906	-9.88628
 193	1	9	-0.199369	-4.61774	52.8914	-11.2578
 194	1	9	-0.201771	-5.17131	54.1129	-11.7056
 195	1	9	0.15189	-5.38513	55.1064	-10.7455
 196	1	9	0.348083	-5.06573	54.9208	-9.41738
 197	1	9	-0.230673	-4.53412	53.7227	-8.94977
 198	1	10	0.174789	-4.44492	52.0833	-11.9658
 199	1	10	0.188672	-5.44236	54.2784	-12.7444
 200	1	10	0.201012	-4.3214	53.5864	-7.89563
 201	1	11	-0.381547	-5.96973	56.3258	-10.87
 202	1	1	-0.706002	-5.4158	55.9659	-8.73295
 203	1	2	0.698504	-5.99689	56.7644	-9.56593
 204	1	12	0.214303	-7.4929	47.2037	-7.78793
 205	1	1	-0.261357	-4.49144	45.7099	1.7196
 206	1	2	0.070556	-4.83243	45.605	0.473655
 207	1	2	0.0266	-5.87095	44.8328	0.111068
 208	1	2	0.33777	-5.12266	45.0718	2.66997
 209	1	1	-0.659679	-6.16661	44.3572	2.34783
 210	1	2	0.428714	-6.50866	44.2382	1.10577
 211	1	2	0.160826	-6.48094	44.4934	-1.04417
 212	1	3	0.04557	-7.53844	43.5196	0.499784
 213	1	1	-0.463031	-7.51006	43.7321	-0.858222
 214	1	4	-0.07905	-4.08188	46.3453	-0.301071
 215	1	5	-0.061319	-4.66182	45.1719	3.96931
 216	1	6	0.28436	-8.65131	42.8831	1.22607
 217	1	6	-0.21175	-9.54853	43.9034	1.96055
 218	1	7	0.07562	-10.4214	43.4054	2.3997
 219	1	7	0.047171	-9.90964	44.6697	1.26332
 220	1	7	0.053131	-8.99885	44.4046	2.76722
 221	1	6	-0.120715	-8.19176	41.7572	2.18078
 222	1	8	0.007856	-9.27911	42.4051	0.462899
 223	1	7	0.031711	-9.05698	41.2257	2.59564
 224	1	7	0.04419	-7.60777	42.1565	3.01917
 225	1	7	-0.003555	-7.57074	41.0261	1.6503
 226	1	9	-0.011509	-6.0438	44.8965	-2.30751
 227	1	9	-0.199369	-4.71659	44.6248	-2.73009
 228	1	9	-0.201771	-4.25528	45.0046	-4.00704
 229	1	9	0.15189	-5.16988	45.639	-4.84944
 230	1	9	0.348083	-6.47246	45.8806	-4.46464
 231	1	9	-0.230673	-6.94744	45.5111	-3.20601
 232	1	10	0.174789	-4.02981	44.1463	-2.04013
 233	1	10	0.188672	-3.2295	44.8325	-4.31887
 234	1	10	0.201012	-7.98016	45.701	-2.93423
 235	1	11	-0.381547	-5.00157	46.1087	-6.11218
 236	1	1	-0.706002	-7.1022	46.4763	-5.4305
 237	1	2	0.698504	-6.23931	46.6445	-6.37532
 238	1	12	0.214303	-3.82686	45.7296	4.03064
 239	1	1	-0.261357	-2.03023	37.0633	8.43529
 240	1	2	0.070556	-2.48995	38.2251	8.09791
 241	1	2	0.0266	-2.67605	39.1766	9.02638
 242	1	2	0.33777	-1.75091	36.7544	9.67562
 243	1	1	-0.659679	-1.87472	37.6771	10.5925
 244	1	2	0.428714	-2.324	38.8461	10.2583
 245	1	2	0.160826	-3.15142	40.4394	9.04281
 246	1	3	0.04557	-2.57282	39.987	11.0159
 247	1	1	-0.463031	-3.0875	40.9815	10.2156
 248	1	4	-0.07905	-2.68248	38.3288	6.80797
 249	1	5	-0.061319	-1.29453	35.4997	10.0251
 250	1	6	0.28436	-2.26748	40.0947	12.4517
 251	1	6	-0.21175	-3.41782	40.7484	13.2492
 252	1	7	0.07562	-4.35808	40.2101	13.0768
 253	1	7	0.047171	-3.56342	41.7924	12.9428
 254	1	7	0.053131	-3.20678	40.7317	14.3254
 255	1	6	-0.120715	-0.939653	40.841	12.7006
 256	1	8	0.007856	-2.1481	39.0762	12.8422
 257	1	7	0.031711	-0.705529	40.8732	13.772
 258	1	7	0.04419	-0.996678	41.8719	12.3287
 259	1	7	-0.003555	-0.11019	40.3393	12.1882
 260	1	9	-0.011509	-3.75397	41.0528	7.94323
 261	1	9	-0.199369	-4.85322	40.4255	7.29534
 262	1	9	-0.201771	-5.51409	41.0383	6.2107
 263	1	9	0.15189	-5.07255	42.3067	5.83555
 264	1	9	0.348083	-4.04399	42.9509	6.48751
 265	1	9	-0.230673	-3.35849	42.3518	7.54491
 266	1	10	0.174789	-5.18659	39.4454	7.63166
 267	1	10	0.188672	-6.33368	40.5547	5.68686
 268	1	10	0.201012	-2.55365	42.881	8.04116
 269	1	11	-0.381547	-5.50523	43.106	4.83166
 270	1	1	-0.706002	-3.83484	44.1041	5.92501
 271	1	2	0.698504	-4.67452	44.1944	4.9462
 272	1	12	0.214303	-0.780573	35.4433	10.885
 273	1	1	-0.261357	-3.00705	31.6604	2.71972
 274	1	2	0.070556	-2.79375	31.5276	3.98977
 275	1	2	0.0266	-3.34584	30.5093	4.67146
 276	1	2	0.33777	-3.75422	30.821	2.0495
 277	1	1	-0.659679	-4.30456	29.8246	2.68815
 278	1	2	0.428714	-4.08735	29.6803	3.95633
 279	1	2	0.160826	-3.34054	30.0821	5.95113
 280	1	3	0.04557	-4.50962	28.707	4.86075
 281	1	1	-0.463031	-4.02317	28.9946	6.11507
 282	1	4	-0.07905	-1.98483	32.4488	4.44776
 283	1	5	-0.061319	-4.02496	30.9903	0.709306
 284	1	6	0.28436	-5.41201	27.5881	4.5336
 285	1	6	-0.21175	-4.81876	26.6113	3.492
 286	1	7	0.07562	-3.84006	26.243	3.82249
 287	1	7	0.047171	-4.69508	27.0992	2.51775
 288	1	7	0.053131	-5.47615	25.744	3.3554
 289	1	6	-0.120715	-6.82323	28.0579	4.11639
 290	1	8	0.007856	-5.53645	27.0154	5.46166
 291	1	7	0.031711	-7.2465	28.7265	4.87652
 292	1	7	0.04419	-7.4988	27.2008	4.00661
 293	1	7	-0.003555	-6.80014	28.5966	3.16096
 294	1	9	-0.011509	-2.70083	30.7909	6.96693
 295	1	9	-0.199369	-1.6497	30.1962	7.71249
 296	1	9	-0.201771	-0.960616	30.923	8.71312
 297	1	9	0.15189	-1.36901	32.2421	8.94198
 298	1	9	0.348083	-2.42013	32.8037	8.24917
 299	1	9	-0.230673	-3.11567	32.1071	7.26839
 300	1	10	0.174789	-1.36165	29.1716	7.48379
 301	1	10	0.188672	-0.126605	30.4968	9.26209
 302	1	10	0.201012	-3.91341	32.5987	6.72283
 303	1	11	-0.381547	-0.833517	33.203	9.74814
 304	1	1	-0.706002	-2.55519	34.0437	8.59195
 305	1	2	0.698504	-1.60408	34.2969	9.42469
 306	1	12	0.214303	-4.65285	30.3166	0.307928
 307	1	1	-0.261357	-2.20089	38.9413	-2.52031
 308	1	2	0.070556	-2.06662	37.6571	-2.58121
 309	1	2	0.0266	-2.16605	37.0204	-3.75914
 310	1	2	0.33777	-2.45394	39.6672	-3.58001
 311	1	1	-0.659679	-2.54108	39.0747	-4.7405
 312	1	2	0.428714	-2.39548	37.7884	-4.80944
 313	1	2	0.160826	-2.12829	35.7375	-4.16462
 314	1	3	0.04557	-2.48339	36.912	-5.88923
 315	1	1	-0.463031	-2.33652	35.6179	-5.43537
 316	1	4	-0.07905	-1.88042	37.1267	-1.39893
 317	1	5	-0.061319	-2.70893	41.0183	-3.48053
 318	1	6	0.28436	-3.17939	37.2876	-7.13339
 319	1	6	-0.21175	-4.53689	36.5667	-7.29633
 320	1	7	0.07562	-5.16536	36.7245	-6.41095
 321	1	7	0.047171	-4.39349	35.4857	-7.42046
 322	1	7	0.053131	-5.07707	36.9452	-8.1726
 323	1	6	-0.120715	-2.28892	37.0674	-8.374
 324	1	8	0.007856	-3.39613	38.3622	-7.08614
 325	1	7	0.031711	-2.80235	37.3959	-9.28607
 326	1	7	0.04419	-2.03085	36.0065	-8.48551
 327	1	7	-0.003555	-1.35633	37.6391	-8.2858
 328	1	9	-0.011509	-2.00253	34.7107	-3.23509
 329	1	9	-0.199369	-0.754985	34.4427	-2.61369
 330	1	9	-0.201771	-0.661624	33.5209	-1.54757
 331	1	9	0.15189	-1.83882	32.8765	-1.15689
 332	1	9	0.348083	-3.04265	33.091	-1.79508
 333	1	9	-0.230673	-3.16043	34.006	-2.839
 334	1	10	0.174789	0.126222	35.0015	-2.92159
 335	1	10	0.188672	0.270004	33.3457	-1.01788
 336	1	10	0.201012	-4.1249	34.2031	-3.29434
 337	1	11	-0.381547	-2.06118	32.0454	-0.108576
 338	1	1	-0.706002	-3.97992	32.4176	-1.19829
 339	1	2	0.698504	-3.41711	31.8391	-0.189701
 340	1	12	0.214303	-3.34911	41.3221	-4.19738
 341	1	1	-0.261357	-0.642329	40.8903	5.51121
 342	1	2	0.070556	-1.20903	41.2745	4.40916
 343	1	2	0.0266	-1.3202	42.5822	4.12327
 344	1	2	0.33777	-0.155292	41.7427	6.37683
 345	1	1	-0.659679	-0.257669	43.0185	6.1264
 346	1	2	0.428714	-0.816124	43.4081	5.02476
 347	1	2	0.160826	-1.82227	43.319	3.11046
 348	1	3	0.04557	-1.03849	44.6825	4.5099
 349	1	1	-0.463031	-1.66182	44.5908	3.28662
 350	1	4	-0.07905	-1.60923	40.2756	3.66507
 351	1	5	-0.061319	0.402823	41.3612	7.57763
 352	1	6	0.28436	-0.462245	45.9048	5.09142
 353	1	6	-0.21175	-1.54004	46.9803	5.34974
 354	1	7	0.07562	-2.31703	46.5887	6.01813
 355	1	7	0.047171	-2.01558	47.2931	4.41145
 356	1	7	0.053131	-1.09985	47.8656	5.82499
 357	1	6	-0.120715	0.680338	46.4717	4.22126
 358	1	8	0.007856	-0.0295784	45.6434	6.06519
 359	1	7	0.031711	1.13044	47.3534	4.69393
 360	1	7	0.04419	0.309702	46.7637	3.23021
 361	1	7	-0.003555	1.46931	45.7215	4.08334
 362	1	9	-0.011509	-2.43003	42.7712	1.98215
 363	1	9	-0.199369	-3.64295	42.0401	2.08843
 364	1	9	-0.201771	-4.2607	41.483	0.949248
 365	1	9	0.15189	-3.63853	41.6982	-0.281056
 366	1	9	0.348083	-2.47428	42.4258	-0.401236
 367	1	9	-0.230673	-1.84542	42.9815	0.711652
 368	1	10	0.174789	-4.09147	41.8781	3.06453
 369	1	10	0.188672	-5.16048	40.8807	1.01945
 370	1	10	0.201012	-0.918928	43.5321	0.597066
 371	1	11	-0.381547	-3.95365	41.2053	-1.50194
 372	1	1	-0.706002	-2.06179	42.3826	-1.63372
 373	1	2	0.698504	-2.91447	41.6539	-2.27608
 374	1	12	0.214303	0.392994	42.0723	8.28612
 375	1	1	-0.261357	1.00462	32.673	6.46424
 376	1	2	0.070556	1.18259	33.7611	7.14517
 377	1	2	0.0266	2.04611	33.7973	8.17666
 378	1	2	0.33777	1.63832	31.5665	6.75443
 379	1	1	-0.659679	2.44713	31.5565	7.77614
 380	1	2	0.428714	2.65144	32.6491	8.43992
 381	1	2	0.160826	2.4651	34.701	9.08952
 382	1	3	0.04557	3.45574	32.8846	9.55249
 383	1	1	-0.463031	3.285	34.1901	9.95101
 384	1	4	-0.07905	0.389161	34.7069	6.71418
 385	1	5	-0.061319	1.41939	30.388	6.07995
 386	1	6	0.28436	3.8104	31.7874	10.4711
 387	1	6	-0.21175	2.65041	31.4293	11.4281
 388	1	7	0.07562	2.91928	30.5749	12.0611
 389	1	7	0.047171	1.74899	31.1625	10.863
 390	1	7	0.053131	2.40623	32.2778	12.0797
 391	1	6	-0.120715	5.10122	32.078	11.2677
 392	1	8	0.007856	4.01251	30.9011	9.85622
 393	1	7	0.031711	4.96546	32.9361	11.9383
 394	1	7	0.04419	5.93077	32.305	10.5866
 395	1	7	-0.003555	5.38855	31.2102	11.875
 396	1	9	-0.011509	2.02717	36.0264	9.1942
 397	1	9	-0.199369	1.72947	36.544	10.4855
 398	1	9	-0.201771	1.28613	37.8713	10.6657
 399	1	9	0.15189	1.13813	38.6545	9.51993
 400	1	9	0.348083	1.45441	38.1796	8.2657
 401	1	9	-0.230673	1.94141	36.8877	8.07231
 402	1	10	0.174789	1.85145	35.9029	11.3569
 403	1	10	0.188672	1.03518	38.2659	11.6453
 404	1	10	0.201012	2.21791	36.5726	7.07271
 405	1	11	-0.381547	0.675644	39.925	9.39181
 406	1	1	-0.706002	1.21668	39.1016	7.38401
 407	1	2	0.698504	0.713849	40.0989	8.03085
 408	1	12	0.214303	1.46925	29.5728	6.66281
 409	1	1	-0.261357	-2.16371	24.1853	1.21425
 410	1	2	0.070556	-1.75896	25.4073	1.36364
 411	1	2	0.0266	-2.36879	26.4147	0.715902
 412	1	2	0.33777	-3.16292	23.8762	0.430495
 413	1	1	-0.659679	-3.7673	24.8361	-0.215493
 414	1	2	0.428714	-3.37276	26.0594	-0.0681782
 415	1	2	0.160826	-2.2244	27.7526	0.628279
 416	1	3	0.04557	-3.83444	27.2415	-0.639985
 417	1	1	-0.463031	-3.05571	28.2886	-0.206481
 418	1	4	-0.07905	-0.707655	25.4733	2.13975
 419	1	5	-0.061319	-3.51797	22.5507	0.286566
 420	1	6	0.28436	-4.68957	27.2588	-1.83865
 421	1	6	-0.21175	-3.88409	26.9994	-3.13061
 422	1	7	0.07562	-4.54716	26.9724	-4.00381
 423	1	7	0.047171	-3.36214	26.0358	-3.0738
 424	1	7	0.053131	-3.13544	27.7861	-3.28885
 425	1	6	-0.120715	-5.50077	28.5695	-1.95905
 426	1	8	0.007856	-5.41429	26.4415	-1.7311
 427	1	7	0.031711	-6.19734	28.519	-2.805
 428	1	7	0.04419	-4.83764	29.4304	-2.11498
 429	1	7	-0.003555	-6.08641	28.7487	-1.04837
 430	1	9	-0.011509	-1.30351	28.4926	1.37086
 431	1	9	-0.199369	-0.500913	29.4697	0.724918
 432	1	9	-0.201771	0.361612	30.3144	1.459
 433	1	9	0.15189	0.397403	30.1405	2.84412
 434	1	9	0.348083	-0.374696	29.1935	3.47821
 435	1	9	-0.230673	-1.25267	28.3732	2.77935
 436	1	10	0.174789	-0.581868	29.5962	-0.35327
 437	1	10	0.188672	0.956645	31.0859	0.980245
 438	1	10	0.201012	-1.88036	27.6791	3.3229
 439	1	11	-0.381547	1.10632	30.8067	3.79163
 440	1	1	-0.706002	-0.144966	29.224	4.75424
 441	1	2	0.698504	0.664636	30.2094	4.94715
 442	1	12	0.214303	-2.91788	21.942	0.81506
 443	1	1	-0.261357	-1.13377	19.5639	-7.32754
 444	1	2	0.070556	-2.07066	19.7422	-6.45128
 445	1	2	0.0266	-3.13974	18.9289	-6.42344
 446	1	2	0.33777	-1.18502	18.5998	-8.2074
 447	1	1	-0.659679	-2.2166	17.7984	-8.20528
 448	1	2	0.428714	-3.15766	17.9689	-7.33166
 449	1	2	0.160826	-4.26575	18.8426	-5.69145
 450	1	3	0.04557	-4.35486	17.2847	-7.12354
 451	1	1	-0.463031	-5.04293	17.8924	-6.09495
 452	1	4	-0.07905	-1.84324	20.7779	-5.68378
 453	1	5	-0.061319	-0.169874	18.4679	-9.1261
 454	1	6	0.28436	-4.99587	16.5157	-8.20463
 455	1	6	-0.21175	-5.69062	17.4237	-9.24317
 456	1	7	0.07562	-4.97463	18.1319	-9.67802
 457	1	7	0.047171	-6.50258	17.9974	-8.77849
 458	1	7	0.053131	-6.1138	16.8255	-10.0595
 459	1	6	-0.120715	-5.98561	15.4617	-7.6639
 460	1	8	0.007856	-4.20187	15.974	-8.73033
 461	1	7	0.031711	-6.84893	15.9402	-7.18449
 462	1	7	0.04419	-5.49294	14.8281	-6.91753
 463	1	7	-0.003555	-6.35404	14.8182	-8.47271
 464	1	9	-0.011509	-4.53358	19.7379	-4.66121
 465	1	9	-0.199369	-5.54455	20.7185	-4.82762
 466	1	9	-0.201771	-5.78319	21.6925	-3.83276
 467	1	9	0.15189	-4.99406	21.6333	-2.68096
 468	1	9	0.348083	-4.03546	20.6581	-2.49716
 469	1	9	-0.230673	-3.78027	19.6903	-3.46569
 470	1	10	0.174789	-6.12456	20.7314	-5.74851
 471	1	10	0.188672	-6.5284	22.473	-3.9566
 472	1	10	0.201012	-2.99554	18.9588	-3.3102
 473	1	11	-0.381547	-4.94416	22.4798	-1.62115
 474	1	1	-0.706002	-3.40735	20.8683	-1.38075
 475	1	2	0.698504	-3.90402	21.9544	-0.893232
 476	1	12	0.214303	0.622784	19.0484	-8.91759
 477	1	1	-0.261357	0.842538	9.63927	-12.4053
 478	1	2	0.070556	1.06612	10.8801	-12.1059
 479	1	2	0.0266	2.26647	11.256	-11.6395
 480	1	2	0.33777	1.75323	8.71199	-12.2606
 481	1	1	-0.659679	2.92673	9.05404	-11.8019
 482	1	2	0.428714	3.16053	10.2924	-11.5054
 483	1	2	0.160826	2.82521	12.4109	-11.2342
 484	1	3	0.04557	4.30108	10.9143	-11.002
 485	1	1	-0.463031	4.03777	12.2542	-10.8155
 486	1	4	-0.07905	0.0241279	11.6514	-12.2777
 487	1	5	-0.061319	1.45706	7.41889	-12.6338
 488	1	6	0.28436	5.31299	10.1606	-10.2433
 489	1	6	-0.21175	5.0819	10.241	-8.7166
 490	1	7	0.07562	4.07277	9.89336	-8.46149
 491	1	7	0.047171	5.18699	11.2726	-8.3575
 492	1	7	0.053131	5.80382	9.61476	-8.17883
 493	1	6	-0.120715	6.74651	10.6015	-10.606
 494	1	8	0.007856	5.22608	9.10463	-10.5286
 495	1	7	0.031711	7.48824	9.99198	-10.0754
 496	1	7	0.04419	6.91057	11.6537	-10.3405
 497	1	7	-0.003555	6.92335	10.489	-11.6833
 498	1	9	-0.011509	2.14646	13.6264	-11.2584
 499	1	9	-0.199369	1.79918	14.2236	-12.4989
 500	1	9	-0.201771	1.14284	15.471	-12.5485
 501	1	9	0.15189	0.861054	16.0893	-11.3287
 502	1	9	0.348083	1.19843	15.5203	-10.1171
 503	1	9	-0.230673	1.8471	14.2879	-10.0445
 504	1	10	0.174789	2.0221	13.6992	-13.4241
 505	1	10	0.188672	0.851824	15.9328	-13.4871
 506	1	10	0.201012	2.10809	13.8572	-9.08254
 507	1	11	-0.381547	0.232533	17.2665	-11.0858
 508	1	1	-0.706002	0.814395	16.3015	-9.15018
 509	1	2	0.698504	0.187911	17.2812	-9.71595
 510	1	12	0.214303	0.67373	7.37198	-13.2626
 511	1	1	-0.261357	1.68169	-0.434165	-15.6497
 512	1	2	0.070556	2.32981	0.463622	-14.9813
 513	1	2	0.0266	3.65653	0.604932	-15.1367
 514	1	2	0.33777	2.27947	-1.23629	-16.4904
 515	1	1	-0.659679	3.57303	-1.14014	-16.6457
 516	1	2	0.428714	4.22734	-0.248034	-15.9701
 517	1	2	0.160826	4.60448	1.43246	-14.6517
 518	1	3	0.04557	5.57973	0.085822	-15.9509
 519	1	1	-0.463031	5.78654	1.14767	-15.097
 520	1	4	-0.07905	1.54505	1.12222	-14.167
 521	1	5	-0.061319	1.5412	-2.11489	-17.2477
 522	1	6	0.28436	6.62156	-0.76144	-16.5571
 523	1	6	-0.21175	6.92375	-2.00703	-15.6962
 524	1	7	0.07562	7.668	-2.64689	-16.1859
 525	1	7	0.047171	6.01498	-2.60287	-15.5437
 526	1	7	0.053131	7.31188	-1.71576	-14.712
 527	1	6	-0.120715	7.92655	0.0132086	-16.8552
 528	1	8	0.007856	6.22962	-1.11297	-17.52
 529	1	7	0.031711	8.6466	-0.627175	-17.3794
 530	1	7	0.04419	8.39479	0.36496	-15.927
 531	1	7	-0.003555	7.7303	0.885722	-17.4896
 532	1	9	-0.011509	4.27938	2.53466	-13.8628
 533	1	9	-0.199369	4.85027	2.71887	-12.577
 534	1	9	-0.201771	4.5273	3.85274	-11.7928
 535	1	9	0.15189	3.62651	4.77624	-12.3377
 536	1	9	0.348083	3.08552	4.60645	-13.5918
 537	1	9	-0.230673	3.4096	3.51539	-14.3872
 538	1	10	0.174789	5.54776	1.97552	-12.1962
 539	1	10	0.188672	4.95498	4.00725	-10.8075
 540	1	10	0.201012	2.9868	3.42665	-15.3787
 541	1	11	-0.381547	3.14048	5.94158	-11.8298
 542	1	1	-0.706002	2.27816	5.58282	-13.8583
 543	1	2	0.698504	2.35314	6.39977	-12.8643
 544	1	12	0.214303	1.074	-1.66537	-18.0194
 545	1	1	-0.261357	-3.91882	-8.79295	-18.3028
 546	1	2	0.070556	-3.22815	-8.04015	-17.5082
 547	1	2	0.0266	-3.73234	-7.66568	-16.3215
 548	1	2	0.33777	-5.12425	-9.20389	-17.9998
 549	1	1	-0.659679	-5.62043	-8.89317	-16.8327
 550	1	2	0.428714	-4.9283	-8.1482	-16.0278
 551	1	2	0.160826	-3.32725	-6.88455	-15.3014
 552	1	3	0.04557	-5.21271	-7.65869	-14.7541
 553	1	1	-0.463031	-4.18853	-6.83735	-14.3383
 554	1	4	-0.07905	-2.05326	-7.73993	-18.0008
 555	1	5	-0.061319	-5.89997	-9.89101	-18.9089
 556	1	6	0.28436	-6.56518	-7.69796	-14.1725
 557	1	6	-0.21175	-7.45591	-6.55133	-14.6985
 558	1	7	0.07562	-8.46889	-6.62346	-14.2845
 559	1	7	0.047171	-7.53289	-6.5923	-15.7923
 560	1	7	0.053131	-7.03756	-5.57522	-14.4213
 561	1	6	-0.120715	-6.54391	-7.70586	-12.6273
 562	1	8	0.007856	-7.02568	-8.64275	-14.4884
 563	1	7	0.031711	-7.55857	-7.8097	-12.2236
 564	1	7	0.04419	-6.113	-6.77534	-12.2357
 565	1	7	-0.003555	-5.94355	-8.54459	-12.2526
 566	1	9	-0.011509	-2.14534	-6.14811	-15.3386
 567	1	9	-0.199369	-1.15448	-6.34264	-14.3418
 568	1	9	-0.201771	0.0369958	-5.5825	-14.34
 569	1	9	0.15189	0.190593	-4.63413	-15.3554
 570	1	9	0.348083	-0.776198	-4.42764	-16.3173
 571	1	9	-0.230673	-1.96403	-5.15289	-16.3278
 572	1	10	0.174789	-1.32502	-7.08348	-13.563
 573	1	10	0.188672	0.804054	-5.71491	-13.5825
 574	1	10	0.201012	-2.71143	-4.95382	-17.0877
 575	1	11	-0.381547	1.21063	-3.76878	-15.5895
 576	1	1	-0.706002	-0.394701	-3.48904	-17.1287
 577	1	2	0.698504	0.754527	-3.09692	-16.6983
 578	1	12	0.214303	-6.86754	-9.87319	-18.6408
 579	1	1	-0.261357	-0.971564	-5.59336	-24.0898
 580	1	2	0.070556	-1.89321	-6.49626	-23.9807
 581	1	2	0.0266	-2.78455	-6.6773	-24.9689
 582	1	2	0.33777	-0.865922	-4.82984	-25.1474
 583	1	1	-0.659679	-1.71852	-4.98992	-26.1232
 584	1	2	0.428714	-2.64308	-5.89411	-26.0246
 585	1	2	0.160826	-3.84129	-7.48798	-25.1698
 586	1	3	0.04557	-3.66408	-6.28334	-26.8944
 587	1	1	-0.463031	-4.41228	-7.28102	-26.3112
 588	1	4	-0.07905	-1.82945	-7.14931	-22.8477
 589	1	5	-0.061319	0.0719037	-3.82241	-25.2342
 590	1	6	0.28436	-4.06955	-5.53367	-28.0968
 591	1	6	-0.21175	-2.98102	-5.51586	-29.193
 592	1	7	0.07562	-2.65693	-6.5371	-29.4285
 593	1	7	0.047171	-2.10257	-4.94237	-28.8725
 594	1	7	0.053131	-3.36705	-5.06138	-30.1137
 595	1	6	-0.120715	-4.56876	-4.10608	-27.7813
 596	1	8	0.007856	-4.92532	-6.07609	-28.5192
 597	1	7	0.031711	-3.75634	-3.47485	-27.4006
 598	1	7	0.04419	-5.36334	-4.13554	-27.0251
 599	1	7	-0.003555	-4.97686	-3.63	-28.6819
 600	1	9	-0.011509	-4.22648	-8.4025	-24.1952
 601	1	9	-0.199369	-3.72373	-9.72821	-24.23
 602	1	9	-0.201771	-3.98149	-10.6294	-23.1731
 603	1	9	0.15189	-4.76925	-10.1658	-22.1154
 604	1	9	0.348083	-5.30299	-8.89303	-22.1013
 605	1	9	-0.230673	-5.04103	-7.97922	-23.1204
 606	1	10	0.174789	-3.08985	-10.0352	-25.0595
 607	1	10	0.188672	-3.5535	-11.6273	-23.1507
 608	1	10	0.201012	-5.40978	-6.96244	-23.048
 609	1	11	-0.381547	-5.0501	-10.7569	-20.924
 610	1	1	-0.706002	-5.894	-8.68408	-20.9645
 611	1	2	0.698504	-5.72917	-9.75945	-20.2701
 612	1	12	0.214303	-0.179307	-3.14446	-25.9319
 613	1	1	-0.261357	5.3704	1.48997	-18.955
 614	1	2	0.070556	4.55761	0.668335	-19.5418
 615	1	2	0.0266	3.23601	0.756453	-19.327
 616	1	2	0.33777	4.94841	2.43866	-18.1595
 617	1	1	-0.659679	3.66491	2.53727	-17.9367
 618	1	2	0.428714	2.84055	1.72673	-18.5188
 619	1	2	0.160826	2.14378	0.0948371	-19.7429
 620	1	3	0.04557	1.44358	1.63489	-18.4595