pySIMM System Object

1056 atoms
1179 bonds
1953 angles
2972 dihedrals
124 impropers

13 atom types
18 bond types
33 angle types
13 dihedral types
2 improper types

-155.757707 155.757707 xlo xhi
-155.757707 155.757707 ylo yhi
-155.757707 155.757707 zlo zhi

Masses

   1	14.01	# n2
   2	12.01	# c2
   3	14.01	# na
   4	12.01	# c1
   5	14.01	# nh
   6	12.01	# c3
   7	1.008	# hc
   8	1.008	# h1
   9	12.01	# ca
  10	1.008	# ha
  11	16.0	# os
  12	1.008	# hn
  13	1.008	# h5

Pair Coeffs

   1	0.17	3.249998523775958	# n2
   2	0.086	3.3996695084235347	# c2
   3	0.17	3.249998523775958	# na
   4	0.21	3.3996695084235347	# c1
   5	0.17	3.249998523775958	# nh
   6	0.1094	3.3996695084235347	# c3
   7	0.0157	2.649532787749369	# hc
   8	0.0157	2.471353044121301	# h1
   9	0.086	3.3996695084235347	# ca
  10	0.015	2.59964245953351	# ha
  11	0.17	3.0000123434657784	# os
  12	0.0157	1.069078461768407	# hn
  13	0.015	2.421462715905442	# h5

Bond Coeffs

   1	300.9	1.5375	# c3,c3
   2	416.2	1.3872	# c2,nh
   3	330.6	1.0969	# c3,hc
   4	397.4	1.4015	# c2,na
   5	345.8	1.086	# ca,ha
   6	625.0	1.307	# c1,c2
   7	330.6	1.0969	# c3,h1
   8	404.6	1.0121	# hn,nh
   9	376.6	1.3696	# ca,os
  10	505.3	1.3676	# n2,na
  11	327.7	1.4629	# c3,na
  12	338.4	1.0912	# c2,h5
  13	569.4	1.3343	# c2,c2
  14	551.6	1.303	# ca,n2
  15	389.2	1.3596	# c2,os
  16	594.1	1.2817	# c2,n2
  17	461.1	1.3984	# ca,ca
  18	482.1	1.3846	# c2,ca

Angle Coeffs

   1	39.4	107.58	# hc,c3,hc
   2	52.26	121.7	# h5,c2,n2
   3	70.06	121.62	# c1,c2,c2
   4	69.58	119.2	# ca,ca,os
   5	78.34	113.82	# n2,c2,n2
   6	70.52	117.58	# c2,n2,na
   7	46.39	109.56	# c3,c3,h1
   8	71.15	126.01	# c2,c2,n2
   9	62.86	111.51	# c3,c3,c3
  10	49.83	108.78	# h1,c3,na
  11	70.0	119.94	# c2,n2,ca
  12	65.52	112.88	# c3,c3,na
  13	69.36	117.0	# c2,c2,ca
  14	71.79	124.27	# n2,c2,nh
  15	46.34	109.8	# c3,c3,hc
  16	65.56	125.0	# c2,na,n2
  17	74.41	119.78	# n2,c2,os
  18	70.62	119.57	# ca,ca,n2
  19	48.18	119.88	# ca,ca,ha
  20	69.14	121.94	# c2,c2,na
  21	71.53	123.62	# n2,c2,na
  22	66.78	120.6	# c2,ca,ca
  23	69.3	121.81	# c2,c2,c2
  24	64.17	118.2	# c2,os,ca
  25	40.07	115.12	# hn,nh,hn
  26	48.59	115.09	# c2,nh,hn
  27	52.71	110.95	# h5,c2,os
  28	65.54	119.24	# c3,na,n2
  29	66.62	120.02	# ca,ca,ca
  30	71.11	118.18	# c2,n2,c2
  31	63.85	117.2	# c2,na,c3
  32	63.96	124.73	# c2,nh,c2
  33	73.36	114.3	# nh,c2,os

Dihedral Coeffs

   1	1	6.65	2	180	# X,c2,c2,X
   2	1	3.625	2	180	# X,ca,ca,X
   3	1	1.7	2	180	# X,n2,na,X
   4	1	0.7	2	180	# X,c2,ca,X
   5	1	0.15555555555555556	3	0	# X,c3,c3,X
   6	1	1.05	2	180	# X,c2,os,X
   7	1	0.0	3	180	# X,ca,n2,X
   8	1	4.15	2	180	# X,c2,n2,X
   9	1	0.9	2	180	# X,ca,os,X
  10	1	0.625	2	180	# X,c2,na,X
  11	1	0.0	2	0	# X,c3,na,X
  12	1	0.16	3	0	# hc,c3,c3,c3
  13	1	0.675	2	180	# X,c2,nh,X

Improper Coeffs

   1	1.1	-1	2	# ca,X,X,ha
   2	1.1	-1	2	# ca,ca,ca,c2

Atoms

   1	1	1	-0.261357	-12.6375	24.4625	-1.16164
   2	1	2	0.070556	-13.0152	23.2553	-0.870705
   3	1	2	0.0266	-13.9528	23.0408	0.0683209
   4	1	2	0.33777	-13.1428	25.5085	-0.55976
   5	1	1	-0.659679	-14.0364	25.3278	0.370227
   6	1	2	0.428714	-14.4187	24.1257	0.663931
   7	1	2	0.160826	-14.5772	21.9703	0.600908
   8	1	3	0.04557	-15.3416	23.6715	1.60073
   9	1	1	-0.463031	-15.4251	22.2981	1.52381
  10	1	4	-0.07905	-12.3724	22.3478	-1.55998
  11	1	5	-0.061319	-12.7805	26.7953	-0.888837
  12	1	6	0.28436	-16.3255	24.5839	2.21936
  13	1	6	-0.21175	-15.7067	25.3823	3.38848
  14	1	7	0.07562	-14.8315	25.9508	3.04978
  15	1	7	0.047171	-15.3867	24.7103	4.19472
  16	1	7	0.053131	-16.4312	26.096	3.79966
  17	1	6	-0.120715	-17.6251	23.8848	2.67829
  18	1	8	0.007856	-16.615	25.3114	1.45022
  19	1	7	0.031711	-17.4148	23.131	3.44759
  20	1	7	0.04419	-18.1139	23.3874	1.83139
  21	1	7	-0.003555	-18.3315	24.6125	3.09657
  22	1	9	-0.011509	-14.3655	20.6548	0.181956
  23	1	9	-0.199369	-14.6224	20.2676	-1.16079
  24	1	9	-0.201771	-14.5014	18.9242	-1.57811
  25	1	9	0.15189	-14.1187	17.9895	-0.61288
  26	1	9	0.348083	-13.8741	18.3506	0.697086
  27	1	9	-0.230673	-13.9971	19.6716	1.13032
  28	1	10	0.174789	-14.9328	21.0163	-1.88538
  29	1	10	0.188672	-14.7101	18.6202	-2.60115
  30	1	10	0.201012	-13.8324	19.9215	2.17232
  31	1	11	-0.381547	-13.9509	16.6456	-0.727624
  32	1	1	-0.706002	-13.5656	17.2939	1.3876
  33	1	2	0.698504	-13.611	16.3044	0.55801
  34	1	12	0.214303	-12.7931	27.3919	-0.0798337
  35	1	1	-0.261357	-20.4736	29.7497	-5.27175
  36	1	2	0.070556	-19.2186	29.5714	-4.99855
  37	1	2	0.0266	-18.3443	30.5907	-5.08535
  38	1	2	0.33777	-20.9363	30.9075	-5.66394
  39	1	1	-0.659679	-20.1197	31.9227	-5.71169
  40	1	2	0.428714	-18.867	31.7547	-5.43386
  41	1	2	0.160826	-17.0209	30.7683	-4.88402
  42	1	3	0.04557	-17.8081	32.6607	-5.41686
  43	1	1	-0.463031	-16.6596	32.0021	-5.03812
  44	1	4	-0.07905	-18.9825	28.3425	-4.61584
  45	1	5	-0.061319	-22.2745	31.0699	-5.94417
  46	1	6	0.28436	-18.0047	34.1191	-5.29987
  47	1	6	-0.21175	-18.8172	34.5291	-4.04835
  48	1	7	0.07562	-19.8472	34.1571	-4.10342
  49	1	7	0.047171	-18.8576	35.6212	-3.95264
  50	1	7	0.053131	-18.3561	34.1253	-3.13851
  51	1	6	-0.120715	-18.6103	34.7448	-6.57713
  52	1	8	0.007856	-17.0046	34.5558	-5.18259
  53	1	7	0.031711	-19.6442	34.4132	-6.73467
  54	1	7	0.04419	-18.0235	34.4624	-7.45992
  55	1	7	-0.003555	-18.6139	35.84	-6.50947
  56	1	9	-0.011509	-16.1497	29.738	-4.52062
  57	1	9	-0.199369	-16.0331	28.564	-5.31294
  58	1	9	-0.201771	-15.2186	27.4852	-4.90592
  59	1	9	0.15189	-14.4864	27.6486	-3.72931
  60	1	9	0.348083	-14.5272	28.814	-2.99372
  61	1	9	-0.230673	-15.3526	29.8767	-3.35932
  62	1	10	0.174789	-16.6201	28.4732	-6.22488
  63	1	10	0.188672	-15.1754	26.5525	-5.46291
  64	1	10	0.201012	-15.4137	30.7609	-2.7345
  65	1	11	-0.381547	-13.729	26.7476	-3.05389
  66	1	1	-0.706002	-13.8307	28.6573	-1.90674
  67	1	2	0.698504	-13.3353	27.4675	-1.9534
  68	1	12	0.214303	-22.8406	31.0276	-5.11135
  69	1	1	-0.261357	-28.6388	33.6112	-11.9733
  70	1	2	0.070556	-27.5375	33.7364	-11.2977
  71	1	2	0.0266	-27.2329	34.9033	-10.7044
  72	1	2	0.33777	-29.4972	34.592	-12.0861
  73	1	1	-0.659679	-29.2059	35.7415	-11.5387
  74	1	2	0.428714	-28.1108	35.8771	-10.8636
  75	1	2	0.160826	-26.2328	35.364	-9.93069
  76	1	3	0.04557	-27.6068	36.9633	-10.1468
  77	1	1	-0.463031	-26.4247	36.583	-9.54767
  78	1	4	-0.07905	-26.8341	32.6333	-11.2552
  79	1	5	-0.061319	-30.6721	34.4246	-12.7934
  80	1	6	0.28436	-28.5239	37.9714	-9.58215
  81	1	6	-0.21175	-27.8078	39.2798	-9.17802
  82	1	7	0.07562	-28.5346	40.0291	-8.84107
  83	1	7	0.047171	-27.2559	39.6974	-10.0287
  84	1	7	0.053131	-27.0957	39.1032	-8.36346
  85	1	6	-0.120715	-29.3498	37.4148	-8.39896
  86	1	8	0.007856	-29.2285	38.2347	-10.3798
  87	1	7	0.031711	-28.6939	37.0584	-7.59579
  88	1	7	0.04419	-29.9754	36.5748	-8.72636
  89	1	7	-0.003555	-30.0117	38.1839	-7.98219
  90	1	9	-0.011509	-25.1707	34.5584	-9.53235
  91	1	9	-0.199369	-24.1518	34.1907	-10.4503
  92	1	9	-0.201771	-23.0942	33.3393	-10.0584
  93	1	9	0.15189	-23.0913	32.894	-8.73321
  94	1	9	0.348083	-24.0624	33.2744	-7.8299
  95	1	9	-0.230673	-25.1164	34.1088	-8.19475
  96	1	10	0.174789	-24.1991	34.5558	-11.4743
  97	1	10	0.188672	-22.3187	33.0259	-10.7518
  98	1	10	0.201012	-25.8763	34.3889	-7.47284
  99	1	11	-0.381547	-22.2412	32.04	-8.10565
 100	1	1	-0.706002	-23.846	32.6954	-6.68685
 101	1	2	0.698504	-22.7779	31.9839	-6.84189
 102	1	12	0.214303	-30.518	34.2447	-13.7688
 103	1	1	-0.261357	-31.8396	40.7068	-8.27684
 104	1	2	0.070556	-32.4585	40.0356	-9.19393
 105	1	2	0.0266	-33.7932	39.8932	-9.14752
 106	1	2	0.33777	-32.474	41.2633	-7.27653
 107	1	1	-0.659679	-33.7762	41.173	-7.22936
 108	1	2	0.428714	-34.4025	40.5092	-8.15071
 109	1	2	0.160826	-34.7128	39.2321	-9.87735
 110	1	3	0.04557	-35.7542	40.2225	-8.32827
 111	1	1	-0.463031	-35.9094	39.3832	-9.41089
 112	1	4	-0.07905	-31.644	39.5577	-10.0998
 113	1	5	-0.061319	-31.8	41.8398	-6.22197
 114	1	6	0.28436	-36.7626	40.4856	-7.28697
 115	1	6	-0.21175	-36.7412	39.4211	-6.16807
 116	1	7	0.07562	-37.4601	39.674	-5.37918
 117	1	7	0.047171	-35.7458	39.3581	-5.7108
 118	1	7	0.053131	-36.9994	38.4317	-6.56622
 119	1	6	-0.120715	-38.1877	40.6375	-7.86441
 120	1	8	0.007856	-36.5028	41.448	-6.82776
 121	1	7	0.031711	-38.537	39.6937	-8.30285
 122	1	7	0.04419	-38.2061	41.4046	-8.64858
 123	1	7	-0.003555	-38.8969	40.9349	-7.08164
 124	1	9	-0.011509	-34.2942	38.3956	-10.9059
 125	1	9	-0.199369	-34.2303	38.8611	-12.2439
 126	1	9	-0.201771	-33.5882	38.0953	-13.2445
 127	1	9	0.15189	-33.0494	36.8612	-12.8632
 128	1	9	0.348083	-33.1594	36.3845	-11.5724
 129	1	9	-0.230673	-33.7677	37.1297	-10.5681
 130	1	10	0.174789	-34.6123	39.8518	-12.4814
 131	1	10	0.188672	-33.4476	38.4734	-14.2529
 132	1	10	0.201012	-33.7396	36.777	-9.54319
 133	1	11	-0.381547	-32.1948	36.0475	-13.542
 134	1	1	-0.706002	-32.4055	35.3412	-11.4278
 135	1	2	0.698504	-31.8055	35.1722	-12.5573
 136	1	12	0.214303	-32.3877	41.892	-5.40878
 137	1	1	-0.261357	-24.8177	36.1536	-5.16674
 138	1	2	0.070556	-25.4125	37.3044	-5.1201
 139	1	2	0.0266	-25.2182	38.1247	-4.07582
 140	1	2	0.33777	-24.0184	35.7419	-4.21648
 141	1	1	-0.659679	-23.8171	36.5228	-3.18861
 142	1	2	0.428714	-24.403	37.6762	-3.13761
 143	1	2	0.160826	-25.6675	39.3404	-3.70783
 144	1	3	0.04557	-24.3802	38.6827	-2.17627
 145	1	1	-0.463031	-25.1972	39.7207	-2.56476
 146	1	4	-0.07905	-26.1833	37.529	-6.15249
 147	1	5	-0.061319	-23.4366	34.4962	-4.332
 148	1	6	0.28436	-23.5809	38.6163	-0.94144
 149	1	6	-0.21175	-24.4685	38.6108	0.322078
 150	1	7	0.07562	-23.8583	38.5008	1.2266
 151	1	7	0.047171	-25.1807	37.7769	0.28778
 152	1	7	0.053131	-25.0393	39.5448	0.401739
 153	1	6	-0.120715	-22.532	39.7474	-0.870234
 154	1	8	0.007856	-23.0288	37.6681	-0.951303
 155	1	7	0.031711	-21.892	39.7354	-1.76141
 156	1	7	0.04419	-21.8894	39.6269	0.0103874
 157	1	7	-0.003555	-23.0151	40.7312	-0.810079
 158	1	9	-0.011509	-26.5728	40.0558	-4.48561
 159	1	9	-0.199369	-26.1262	40.8097	-5.60227
 160	1	9	-0.201771	-27.0413	41.5159	-6.4152
 161	1	9	0.15189	-28.3928	41.4478	-6.06375
 162	1	9	0.348083	-28.828	40.7419	-4.96064
 163	1	9	-0.230673	-27.9451	40.0292	-4.15179
 164	1	10	0.174789	-25.0647	40.8313	-5.84081
 165	1	10	0.188672	-26.7209	42.0808	-7.28599
 166	1	10	0.201012	-28.3134	39.4678	-3.30087
 167	1	11	-0.381547	-29.48	41.9789	-6.6835
 168	1	1	-0.706002	-30.1206	40.8303	-4.86903
 169	1	2	0.698504	-30.5023	41.5211	-5.88845
 170	1	12	0.214303	-23.7831	33.9666	-5.11823
 171	1	1	-0.261357	-17.4637	28.2448	-1.46234
 172	1	2	0.070556	-18.4325	29.0853	-1.27165
 173	1	2	0.0266	-19.5819	28.6726	-0.716658
 174	1	2	0.33777	-17.5624	26.9813	-1.14155
 175	1	1	-0.659679	-18.6571	26.5687	-0.560364
 176	1	2	0.428714	-19.6287	27.4007	-0.362437
 177	1	2	0.160826	-20.7704	29.2372	-0.434302
 178	1	3	0.04557	-20.9093	27.2116	0.152704
 179	1	1	-0.463031	-21.6	28.4037	0.103152
 180	1	4	-0.07905	-18.1644	30.3019	-1.67172
 181	1	5	-0.061319	-16.5647	26.1078	-1.52051
 182	1	6	0.28436	-21.2276	26.0866	1.04847
 183	1	6	-0.21175	-22.7059	25.6507	0.943121
 184	1	7	0.07562	-23.3737	26.4571	1.27289
 185	1	7	0.047171	-22.8986	24.7674	1.56418
 186	1	7	0.053131	-22.9608	25.4007	-0.0941547
 187	1	6	-0.120715	-20.8532	26.3923	2.51543
 188	1	8	0.007856	-20.6197	25.2311	0.727302
 189	1	7	0.031711	-19.792	26.6589	2.59578
 190	1	7	0.04419	-21.0317	25.5172	3.15228
 191	1	7	-0.003555	-21.4458	27.229	2.90722
 192	1	9	-0.011509	-21.0803	30.5351	-0.830057
 193	1	9	-0.199369	-20.582	31.6684	-0.134635
 194	1	9	-0.201771	-20.8825	32.9788	-0.574475
 195	1	9	0.15189	-21.6989	33.1041	-1.70322
 196	1	9	0.348083	-22.2015	32.0053	-2.36543
 197	1	9	-0.230673	-21.9085	30.7066	-1.96022
 198	1	10	0.174789	-19.9498	31.5228	0.738863
 199	1	10	0.188672	-20.503	33.86	-0.0652586
 200	1	10	0.201012	-22.3079	29.8558	-2.50064
 201	1	11	-0.381547	-22.1433	34.2185	-2.34139
 202	1	1	-0.706002	-22.9236	32.393	-3.3719
 203	1	2	0.698504	-22.9255	33.6853	-3.34027
 204	1	12	0.214303	-15.9002	26.5456	-2.13424
 205	1	1	-0.261357	-20.6312	19.6201	-6.14348
 206	1	2	0.070556	-19.735	20.0872	-5.33139
 207	1	2	0.0266	-18.5077	19.5382	-5.28708
 208	1	2	0.33777	-20.3817	18.622	-6.94845
 209	1	1	-0.659679	-19.2091	18.048	-6.89019
 210	1	2	0.428714	-18.3007	18.5105	-6.09205
 211	1	2	0.160826	-17.3825	19.7697	-4.59187
 212	1	3	0.04557	-16.9738	18.1177	-5.86492
 213	1	1	-0.463031	-16.4387	18.9411	-4.89586
 214	1	4	-0.07905	-20.161	21.101	-4.62289
 215	1	5	-0.061319	-21.3495	18.1726	-7.82154
 216	1	6	0.28436	-16.5489	16.7072	-5.96456
 217	1	6	-0.21175	-16.7192	16.071	-7.36427
 218	1	7	0.07562	-16.2644	15.0727	-7.3897
 219	1	7	0.047171	-16.2325	16.6847	-8.13206
 220	1	7	0.053131	-17.7762	15.957	-7.6329
 221	1	6	-0.120715	-17.2034	15.8318	-4.87664
 222	1	8	0.007856	-15.4706	16.7039	-5.75898
 223	1	7	0.031711	-16.7768	14.8239	-4.8946
 224	1	7	0.04419	-18.2848	15.7586	-5.03765
 225	1	7	-0.003555	-17.0339	16.2514	-3.87692
 226	1	9	-0.011509	-17.3223	20.7673	-3.62497
 227	1	9	-0.199369	-17.7531	20.4869	-2.30262
 228	1	9	-0.201771	-17.7513	21.4903	-1.30865
 229	1	9	0.15189	-17.3042	22.7593	-1.6851
 230	1	9	0.348083	-16.8557	23.0311	-2.96169
 231	1	9	-0.230673	-16.8524	22.0574	-3.96063
 232	1	10	0.174789	-18.0905	19.4829	-2.05327
 233	1	10	0.188672	-18.0745	21.2937	-0.289868
 234	1	10	0.201012	-16.5118	22.2992	-4.96114
 235	1	11	-0.381547	-17.2399	23.9051	-0.960623
 236	1	1	-0.706002	-16.5101	24.2802	-3.04317
 237	1	2	0.698504	-16.785	24.8025	-1.89531
 238	1	12	0.214303	-22.3012	18.4035	-7.59723
 239	1	1	-0.261357	-18.9703	12.0062	-13.3769
 240	1	2	0.070556	-19.4409	13.1948	-13.18
 241	1	2	0.0266	-20.4244	13.6737	-13.9595
 242	1	2	0.33777	-19.4145	11.2261	-14.3284
 243	1	1	-0.659679	-20.3769	11.6633	-15.0941
 244	1	2	0.428714	-20.8465	12.8578	-14.9089
 245	1	2	0.160826	-21.1426	14.8129	-14.015
 246	1	3	0.04557	-21.8524	13.5589	-15.5649
 247	1	1	-0.463031	-22.0364	14.7794	-14.9508
 248	1	4	-0.07905	-18.8656	13.783	-12.1615
 249	1	5	-0.061319	-18.9464	9.94028	-14.509
 250	1	6	0.28436	-22.8128	12.8869	-16.456
 251	1	6	-0.21175	-23.339	13.8187	-17.5695
 252	1	7	0.07562	-22.5027	14.2481	-18.135
 253	1	7	0.047171	-23.9214	14.6463	-17.1472
 254	1	7	0.053131	-23.9775	13.2677	-18.2707
 255	1	6	-0.120715	-23.9773	12.2415	-15.6746
 256	1	8	0.007856	-22.2728	12.0749	-16.9595
 257	1	7	0.031711	-24.6738	11.7361	-16.355
 258	1	7	0.04419	-24.5308	13.0019	-15.1137
 259	1	7	-0.003555	-23.6026	11.4972	-14.9609
 260	1	9	-0.011509	-20.9141	15.8175	-13.0794
 261	1	9	-0.199369	-19.7456	16.6193	-13.1645
 262	1	9	-0.201771	-19.3887	17.4923	-12.1139
 263	1	9	0.15189	-20.2449	17.5457	-11.0113
 264	1	9	0.348083	-21.4151	16.8167	-10.9504
 265	1	9	-0.230673	-21.7817	15.9429	-11.9718
 266	1	10	0.174789	-19.0791	16.5019	-14.0164
 267	1	10	0.188672	-18.4624	18.0593	-12.1245
 268	1	10	0.201012	-22.6769	15.3397	-11.8801
 269	1	11	-0.381547	-20.0741	18.172	-9.82007
 270	1	1	-0.706002	-21.9694	16.9841	-9.78713
 271	1	2	0.698504	-21.1551	17.7153	-9.10604
 272	1	12	0.214303	-19.5636	9.35373	-15.0409
 273	1	1	-0.261357	-13.9246	9.55534	-7.30623
 274	1	2	0.070556	-14.4575	8.96751	-8.33209
 275	1	2	0.0266	-13.7393	8.10427	-9.06465
 276	1	2	0.33777	-12.68	9.34909	-6.95046
 277	1	1	-0.659679	-11.9654	8.51035	-7.64413
 278	1	2	0.428714	-12.4976	7.89967	-8.65802
 279	1	2	0.160826	-13.9453	7.35573	-10.1688
 280	1	3	0.04557	-11.9765	6.94668	-9.53254
 281	1	1	-0.463031	-12.9156	6.64655	-10.4915
 282	1	4	-0.07905	-15.7172	9.28096	-8.50553
 283	1	5	-0.061319	-12.1162	9.98933	-5.86298
 284	1	6	0.28436	-10.5347	6.7156	-9.71099
 285	1	6	-0.21175	-9.85705	6.13402	-8.44977
 286	1	7	0.07562	-10.4173	5.26617	-8.07966
 287	1	7	0.047171	-9.80163	6.87894	-7.64657
 288	1	7	0.053131	-8.83529	5.80763	-8.67812
 289	1	6	-0.120715	-9.79039	7.96797	-10.2269
 290	1	8	0.007856	-10.444	5.95093	-10.4931
 291	1	7	0.031711	-10.2584	8.34083	-11.147
 292	1	7	0.04419	-8.74357	7.73134	-10.4523
 293	1	7	-0.003555	-9.80484	8.77673	-9.48564
 294	1	9	-0.011509	-15.0863	7.43499	-10.9665
 295	1	9	-0.199369	-15.7898	6.25681	-11.3326
 296	1	9	-0.201771	-16.8993	6.30552	-12.2076
 297	1	9	0.15189	-17.251	7.55577	-12.724
 298	1	9	0.348083	-16.5464	8.6966	-12.4054
 299	1	9	-0.230673	-15.4595	8.6742	-11.5372
 300	1	10	0.174789	-15.4628	5.2975	-10.9367
 301	1	10	0.188672	-17.4511	5.41111	-12.4832
 302	1	10	0.201012	-14.9219	9.59256	-11.3274
 303	1	11	-0.381547	-18.2434	7.89868	-13.5902
 304	1	1	-0.706002	-17.0539	9.70861	-13.0351
 305	1	2	0.698504	-18.0551	9.25366	-13.7101
 306	1	12	0.214303	-11.4924	10.7256	-6.1396
 307	1	1	-0.261357	-19.4029	13.1427	-6.09436
 308	1	2	0.070556	-18.5018	12.614	-5.32468
 309	1	2	0.0266	-18.5651	12.7819	-3.99212
 310	1	2	0.33777	-20.4006	13.8422	-5.61541
 311	1	1	-0.659679	-20.483	14.0164	-4.32551
 312	1	2	0.428714	-19.5895	13.4897	-3.55206
 313	1	2	0.160826	-17.8279	12.4032	-2.92868
 314	1	3	0.04557	-19.4551	13.5032	-2.16716
 315	1	1	-0.463031	-18.3139	12.8231	-1.80666
 316	1	4	-0.07905	-17.5848	11.9564	-5.98816
 317	1	5	-0.061319	-21.362	14.4371	-6.40105
 318	1	6	0.28436	-20.238	14.4004	-1.30219
 319	1	6	-0.21175	-19.6491	15.8278	-1.27178
 320	1	7	0.07562	-19.615	16.2506	-2.28375
 321	1	7	0.047171	-18.628	15.8197	-0.869508
 322	1	7	0.053131	-20.2625	16.4894	-0.648061
 323	1	6	-0.120715	-20.4088	13.8426	0.128552
 324	1	8	0.007856	-21.2439	14.4705	-1.73567
 325	1	7	0.031711	-21.0401	14.5048	0.733539
 326	1	7	0.04419	-19.4376	13.7418	0.629654
 327	1	7	-0.003555	-20.884	12.8536	0.102766
 328	1	9	-0.011509	-16.6962	11.6083	-3.06683
 329	1	9	-0.199369	-16.785	10.2286	-2.7549
 330	1	9	-0.201771	-15.7068	9.35692	-3.01235
 331	1	9	0.15189	-14.5533	9.91871	-3.56147
 332	1	9	0.348083	-14.4389	11.2694	-3.82304
 333	1	9	-0.230673	-15.4968	12.1455	-3.58861
 334	1	10	0.174789	-17.7225	9.82907	-2.37351
 335	1	10	0.188672	-15.7874	8.28236	-2.87261
 336	1	10	0.201012	-15.4126	13.1847	-3.88064
 337	1	11	-0.381547	-13.4949	9.29128	-4.12522
 338	1	1	-0.706002	-13.374	11.4833	-4.53672
 339	1	2	0.698504	-12.849	10.3245	-4.74985
 340	1	12	0.214303	-22.0414	14.9317	-5.85083
 341	1	1	-0.261357	-27.3453	10.3044	-12.0434
 342	1	2	0.070556	-26.3048	11.0159	-11.749
 343	1	2	0.0266	-26.1722	12.2483	-12.2593
 344	1	2	0.33777	-28.3032	10.7427	-12.8229
 345	1	1	-0.659679	-28.1798	11.9302	-13.3539
 346	1	2	0.428714	-27.1432	12.6525	-13.0607
 347	1	2	0.160826	-25.2707	13.2395	-12.1453
 348	1	3	0.04557	-26.7863	13.9511	-13.4201
 349	1	1	-0.463031	-25.5908	14.2889	-12.8277
 350	1	4	-0.07905	-25.4662	10.4138	-10.9439
 351	1	5	-0.061319	-29.4122	9.97248	-13.1237
 352	1	6	0.28436	-27.5199	14.7592	-14.408
 353	1	6	-0.21175	-26.8583	14.6964	-15.8003
 354	1	7	0.07562	-26.7846	13.6576	-16.1444
 355	1	7	0.047171	-25.8472	15.1213	-15.7646
 356	1	7	0.053131	-27.443	15.2591	-16.5379
 357	1	6	-0.120715	-27.6924	16.2266	-13.9566
 358	1	8	0.007856	-28.5266	14.3334	-14.5036
 359	1	7	0.031711	-28.2745	16.795	-14.6926
 360	1	7	0.04419	-26.7178	16.7179	-13.8383
 361	1	7	-0.003555	-28.2199	16.2775	-12.9957
 362	1	9	-0.011509	-24.1909	13.1616	-11.2745
 363	1	9	-0.199369	-22.971	12.5398	-11.6507
 364	1	9	-0.201771	-21.8686	12.5183	-10.7637
 365	1	9	0.15189	-22.0325	13.1376	-9.51977
 366	1	9	0.348083	-23.2215	13.731	-9.15243
 367	1	9	-0.230673	-24.3183	13.7646	-10.0057
 368	1	10	0.174789	-22.8821	12.0861	-12.635
 369	1	10	0.188672	-20.9225	12.0532	-11.0263
 370	1	10	0.201012	-25.2315	14.2609	-9.69892
 371	1	11	-0.381547	-21.1507	13.298	-8.49664
 372	1	1	-0.706002	-23.1135	14.2365	-7.96322
 373	1	2	0.698504	-21.9108	13.9829	-7.57899
 374	1	12	0.214303	-29.7932	10.1682	-14.0316
 375	1	1	-0.261357	-24.7615	5.41771	-8.6862
 376	1	2	0.070556	-25.779	5.35584	-9.48582
 377	1	2	0.0266	-26.6611	4.34537	-9.39082
 378	1	2	0.33777	-24.5446	4.51468	-7.76456
 379	1	1	-0.659679	-25.3709	3.5086	-7.6701
 380	1	2	0.428714	-26.3881	3.43741	-8.46991
 381	1	2	0.160826	-27.8076	3.99527	-10.0112
 382	1	3	0.04557	-27.4142	2.50241	-8.57344
 383	1	1	-0.463031	-28.2895	2.87906	-9.56828
 384	1	4	-0.07905	-25.7876	6.34264	-10.3462
 385	1	5	-0.061319	-23.5135	4.60306	-6.85151
 386	1	6	0.28436	-27.4002	1.20723	-7.87102
 387	1	6	-0.21175	-27.3359	0.00915726	-8.84362
 388	1	7	0.07562	-27.2574	-0.934981	-8.29104
 389	1	7	0.047171	-26.4616	0.0926135	-9.50111
 390	1	7	0.053131	-28.2346	-0.0333791	-9.47201
 391	1	6	-0.120715	-28.5954	1.06538	-6.90531
 392	1	8	0.007856	-26.4899	1.16886	-7.25968
 393	1	7	0.031711	-29.546	1.08298	-7.45354
 394	1	7	0.04419	-28.6034	1.88915	-6.18066
 395	1	7	-0.003555	-28.5366	0.122772	-6.34652
 396	1	9	-0.011509	-28.3991	4.8217	-10.9643
 397	1	9	-0.199369	-28.5169	4.40638	-12.3157
 398	1	9	-0.201771	-28.9857	5.29671	-13.3102
 399	1	9	0.15189	-29.354	6.58251	-12.8986
 400	1	9	0.348083	-29.3141	6.96181	-11.573
 401	1	9	-0.230673	-28.8413	6.10838	-10.5824
 402	1	10	0.174789	-28.1863	3.40759	-12.5943
 403	1	10	0.188672	-29.0049	5.02323	-14.3613
 404	1	10	0.201012	-28.7311	6.47386	-9.56746
 405	1	11	-0.381547	-29.5944	7.6947	-13.6472
 406	1	1	-0.706002	-29.5066	8.23929	-11.4821
 407	1	2	0.698504	-29.621	8.67908	-12.689
 408	1	12	0.214303	-23.5203	3.85169	-6.18471
 409	1	1	-0.261357	-14.3808	6.69492	-5.47261
 410	1	2	0.070556	-15.53	6.46855	-6.03491
 411	1	2	0.0266	-15.6246	5.56254	-7.02016
 412	1	2	0.33777	-13.2909	6.06947	-5.84304
 413	1	1	-0.659679	-13.3652	5.19066	-6.80134
 414	1	2	0.428714	-14.5069	4.94251	-7.35094
 415	1	2	0.160826	-16.6017	5.08741	-7.80909
 416	1	3	0.04557	-14.8436	4.05289	-8.3688
 417	1	1	-0.463031	-16.1938	4.16494	-8.61668
 418	1	4	-0.07905	-16.5222	7.18262	-5.56815
 419	1	5	-0.061319	-12.0322	6.43124	-5.42881
 420	1	6	0.28436	-14.1085	2.78286	-8.49632
 421	1	6	-0.21175	-14.1593	2.21602	-9.9311
 422	1	7	0.07562	-13.5371	1.31673	-10.0145
 423	1	7	0.047171	-13.7871	2.95687	-10.6497
 424	1	7	0.053131	-15.187	1.95192	-10.2114
 425	1	6	-0.120715	-14.5902	1.72919	-7.47197
 426	1	8	0.007856	-13.0537	2.99197	-8.27676
 427	1	7	0.031711	-13.9908	0.813228	-7.54098
 428	1	7	0.04419	-15.6415	1.4661	-7.64606
 429	1	7	-0.003555	-14.5016	2.11334	-6.44757
 430	1	9	-0.011509	-17.9206	5.52454	-7.77389
 431	1	9	-0.199369	-18.3886	6.39602	-8.78981
 432	1	9	-0.201771	-19.7645	6.67364	-8.93565
 433	1	9	0.15189	-20.6342	6.07503	-8.02126
 434	1	9	0.348083	-20.1812	5.26283	-7.00099
 435	1	9	-0.230673	-18.8299	4.95257	-6.8571
 436	1	10	0.174789	-17.6814	6.80367	-9.50708
 437	1	10	0.188672	-20.1456	7.27522	-9.75598
 438	1	10	0.201012	-18.5135	4.23126	-6.11324
 439	1	11	-0.381547	-21.9902	6.00808	-8.04416
 440	1	1	-0.706002	-21.1948	4.70675	-6.41014
 441	1	2	0.698504	-22.2478	5.12052	-7.02861
 442	1	12	0.214303	-11.3178	6.29664	-6.12136
 443	1	1	-0.261357	-7.23301	4.08093	2.46603
 444	1	2	0.070556	-7.88702	4.73969	1.56013
 445	1	2	0.0266	-7.40773	5.89811	1.06735
 446	1	2	0.33777	-6.08025	4.49488	2.92443
 447	1	1	-0.659679	-5.59093	5.61049	2.45605
 448	1	2	0.428714	-6.23542	6.27298	1.55407
 449	1	2	0.160826	-7.79643	6.82022	0.162575
 450	1	3	0.04557	-5.90223	7.44115	0.872244
 451	1	1	-0.463031	-6.92608	7.76795	0.0113757
 452	1	4	-0.07905	-8.97799	4.11179	1.20408
 453	1	5	-0.061319	-5.4039	3.78563	3.89554
 454	1	6	0.28436	-4.76669	8.30498	1.2648
 455	1	6	-0.21175	-4.81075	9.70647	0.61109
 456	1	7	0.07562	-5.76994	10.199	0.813342
 457	1	7	0.047171	-4.68846	9.63317	-0.477229
 458	1	7	0.053131	-4.01125	10.3463	1.00432
 459	1	6	-0.120715	-3.39067	7.65235	0.990971
 460	1	8	0.007856	-4.84672	8.45508	2.34902
 461	1	7	0.031711	-3.25901	7.44791	-0.0788729
 462	1	7	0.04419	-3.28289	6.70638	1.53553
 463	1	7	-0.003555	-2.57616	8.31272	1.31557
 464	1	9	-0.011509	-8.99009	6.7728	-0.564829
 465	1	9	-0.199369	-10.2563	6.60919	0.0630849
 466	1	9	-0.201771	-11.4465	6.51399	-0.696316
 467	1	9	0.15189	-11.3353	6.65571	-2.08223
 468	1	9	0.348083	-10.123	6.90924	-2.68664
 469	1	9	-0.230673	-8.93376	6.95768	-1.96459
 470	1	10	0.174789	-10.3111	6.52273	1.14602
 471	1	10	0.188672	-12.4124	6.32798	-0.234694
 472	1	10	0.201012	-7.99226	7.12039	-2.47793
 473	1	11	-0.381547	-12.2788	6.53141	-3.05684
 474	1	1	-0.706002	-10.2814	6.96012	-3.97126
 475	1	2	0.698504	-11.5341	6.75047	-4.19154
 476	1	12	0.214303	-5.90141	3.73335	4.76656
 477	1	1	-0.261357	3.22819	3.18284	7.42857
 478	1	2	0.070556	2.21015	3.55281	6.71366
 479	1	2	0.0266	2.08592	4.835	6.33519
 480	1	2	0.33777	4.16059	4.02514	7.80097
 481	1	1	-0.659679	4.03438	5.28198	7.47821
 482	1	2	0.428714	3.0261	5.66051	6.76227
 483	1	2	0.160826	1.22658	5.53623	5.57431
 484	1	3	0.04557	2.70745	6.89795	6.20528
 485	1	1	-0.463031	1.55226	6.78217	5.46495
 486	1	4	-0.07905	1.39098	2.57987	6.40364
 487	1	5	-0.061319	5.28245	3.66191	8.51451
 488	1	6	0.28436	3.37975	8.15544	6.58806
 489	1	6	-0.21175	2.53992	9.41224	6.26121
 490	1	7	0.07562	1.53174	9.32485	6.68523
 491	1	7	0.047171	2.4408	9.54279	5.17568
 492	1	7	0.053131	3.00712	10.3137	6.67532
 493	1	6	-0.120715	4.78647	8.29238	5.96305
 494	1	8	0.007856	3.50569	8.12622	7.67772
 495	1	7	0.031711	5.27247	9.21631	6.30022
 496	1	7	0.04419	4.7271	8.31872	4.86752
 497	1	7	-0.003555	5.43149	7.4539	6.25279
 498	1	9	-0.011509	0.152115	4.95323	4.91203
 499	1	9	-0.199369	0.291875	4.61013	3.54305
 500	1	9	-0.201771	-0.80308	4.1202	2.80115
 501	1	9	0.15189	-2.01642	3.98077	3.47684
 502	1	9	0.348083	-2.16093	4.2982	4.81317
 503	1	9	-0.230673	-1.09576	4.80233	5.56047
 504	1	10	0.174789	1.24656	4.77116	3.04839
 505	1	10	0.188672	-0.731124	3.89914	1.74001
 506	1	10	0.201012	-1.24739	5.10766	6.58938
 507	1	11	-0.381547	-3.23528	3.66229	2.97993
 508	1	1	-0.706002	-3.4115	4.18831	5.15243
 509	1	2	0.698504	-4.041	3.86562	4.07218
 510	1	12	0.214303	5.81543	4.43182	8.8769
 511	1	1	-0.261357	11.3302	-3.52668	9.58267
 512	1	2	0.070556	10.272	-2.78891	9.67573
 513	1	2	0.0266	9.68653	-2.59162	10.8683
 514	1	2	0.33777	11.8807	-4.08739	10.6292
 515	1	1	-0.659679	11.3379	-3.90076	11.8017
 516	1	2	0.428714	10.2683	-3.1763	11.9041
 517	1	2	0.160826	8.61537	-1.91137	11.311
 518	1	3	0.04557	9.49844	-2.80132	13.0118
 519	1	1	-0.463031	8.45875	-2.0051	12.5898
 520	1	4	-0.07905	9.90027	-2.29223	8.52312
 521	1	5	-0.061319	12.9922	-4.89109	10.515
 522	1	6	0.28436	9.47734	-3.51921	14.3019
 523	1	6	-0.21175	10.5037	-2.95436	15.3064
 524	1	7	0.07562	10.3908	-3.43517	16.286
 525	1	7	0.047171	10.3536	-1.87567	15.4417
 526	1	7	0.053131	11.5303	-3.11754	14.9556
 527	1	6	-0.120715	9.59319	-5.05737	14.188
 528	1	8	0.007856	8.48655	-3.32566	14.7334
 529	1	7	0.031711	9.34665	-5.53255	15.1453
 530	1	7	0.04419	10.6102	-5.364	13.915
 531	1	7	-0.003555	8.89982	-5.44468	13.4307
 532	1	9	-0.011509	7.78959	-1.17179	10.4692
 533	1	9	-0.199369	6.96518	-1.80789	9.50355
 534	1	9	-0.201771	6.11369	-1.05399	8.66385
 535	1	9	0.15189	6.11644	0.334454	8.83051
 536	1	9	0.348083	6.90155	0.952261	9.78141
 537	1	9	-0.230673	7.73586	0.228222	10.6283
 538	1	10	0.174789	6.98779	-2.89196	9.41267
 539	1	10	0.188672	5.46976	-1.52379	7.92601
 540	1	10	0.201012	8.30691	0.730623	11.3988
 541	1	11	-0.381547	5.3678	1.2901	8.21658
 542	1	1	-0.706002	6.67613	2.22965	9.77123
 543	1	2	0.698504	5.75927	2.42453	8.88664
 544	1	12	0.214303	13.4163	-5.09489	11.4021
 545	1	1	-0.261357	20.7596	-2.70162	8.87943
 546	1	2	0.070556	19.7147	-3.28293	8.38336
 547	1	2	0.0266	19.4403	-3.18569	7.07143
 548	1	2	0.33777	21.5733	-1.99037	8.14148
 549	1	1	-0.659679	21.331	-1.88264	6.86405
 550	1	2	0.428714	20.3034	-2.48674	6.35545
 551	1	2	0.160826	18.4618	-3.62788	6.25629
 552	1	3	0.04557	19.8222	-2.55393	5.04933
 553	1	1	-0.463031	18.655	-3.2869	5.02389
 554	1	4	-0.07905	19.0454	-3.94859	9.29074
 555	1	5	-0.061319	22.6349	-1.30325	8.68706
 556	1	6	0.28436	20.5432	-2.00074	3.88476
 557	1	6	-0.21175	19.7267	-2.08095	2.57327
 558	1	7	0.07562	18.7442	-1.60922	2.69976
 559	1	7	0.047171	19.5662	-3.12584	2.27773
 560	1	7	0.053131	20.2477	-1.56849	1.75537
 561	1	6	-0.120715	21.9294	-2.6543	3.67552
 562	1	8	0.007856	20.7089	-0.936197	4.09418
 563	1	7	0.031711	22.4214	-2.24825	2.78308
 564	1	7	0.04419	21.8344	-3.74039	3.55248
 565	1	7	-0.003555	22.5914	-2.46458	4.52884
 566	1	9	-0.011509	17.3529	-4.28283	6.78206
 567	1	9	-0.199369	17.1457	-5.66874	6.56138
 568	1	9	-0.201771	16.091	-6.3545	7.20858
 569	1	9	0.15189	15.2676	-5.60707	8.05846
 570	1	9	0.348083	15.4393	-4.25009	8.23411
 571	1	9	-0.230673	16.4615	-3.55382	7.60113
 572	1	10	0.174789	17.8325	-6.21349	5.91601
 573	1	10	0.188672	15.9403	-7.42368	7.08676
 574	1	10	0.201012	16.5966	-2.49635	7.79768
 575	1	11	-0.381547	14.2629	-6.01237	8.88129
 576	1	1	-0.706002	14.6053	-3.81368	9.12515
 577	1	2	0.698504	13.8971	-4.83024	9.47964
 578	1	12	0.214303	22.7603	-0.407829	8.24983
 579	1	1	-0.261357	20.4507	0.820495	16.5782
 580	1	2	0.070556	21.3422	0.205362	15.8818
 581	1	2	0.0266	22.6443	0.405831	16.1282
 582	1	2	0.33777	20.7568	1.67713	17.5148
 583	1	1	-0.659679	22.0205	1.83149	17.8252
 584	1	2	0.428714	22.9352	1.18901	17.1566
 585	1	2	0.160826	23.7855	0.0129641	15.5428
 586	1	3	0.04557	24.3438	1.21976	17.1964
 587	1	1	-0.463031	24.8281	0.45621	16.156
 588	1	4	-0.07905	20.8056	-0.574812	14.9778
 589	1	5	-0.061319	19.791	2.5092	18.0564
 590	1	6	0.28436	25.1697	1.38116	18.4157
 591	1	6	-0.21175	24.4673	1.95448	19.6666
 592	1	7	0.07562	23.627	1.3179	19.9693
 593	1	7	0.047171	24.0917	2.96766	19.4781
 594	1	7	0.053131	25.1664	1.99976	20.5111
 595	1	6	-0.120715	26.4499	2.1951	18.1141
 596	1	8	0.007856	25.5017	0.37047	18.6875
 597	1	7	0.031711	26.2013	3.22744	17.8382
 598	1	7	0.04419	27.0094	1.74725	17.2824
 599	1	7	-0.003555	27.1158	2.22008	18.9858
 600	1	9	-0.011509	23.7865	-0.648135	14.3193
 601	1	9	-0.199369	24.374	-1.92991	14.1843
 602	1	9	-0.201771	24.3805	-2.59206	12.9368
 603	1	9	0.15189	23.7719	-1.94146	11.8578
 604	1	9	0.348083	23.2403	-0.675034	11.9767
 605	1	9	-0.230673	23.2458	0.00654986	13.1878
 606	1	10	0.174789	24.8247	-2.40351	15.0539
 607	1	10	0.188672	24.8455	-3.56216	12.8133
 608	1	10	0.201012	22.8143	0.999233	13.2506
 609	1	11	-0.381547	23.5922	-2.35349	10.5748
 610	1	1	-0.706002	22.7713	-0.283269	10.832
 611	1	2	0.698504	22.9307	-1.27889	10.0298
 612	1	12	0.214303	20.1929	3.28665	18.5498
 613	1	1	-0.261357	15.6846	4.4838	10.1195
 614	1	2	0.070556	15.8051	4.22322	11.3874
 615	1	2	0.0266	14.8212	3.5891	12.053
 616	1	2	0.33777	14.6145	4.14518	9.44582
 617	1	1	-0.659679	13.6923	3.45868	10.0571
 618	1	2	0.428714	13.7902	3.2127	11.3189
 619	1	2	0.160826	14.5865	3.21472	13.3281
 620	1	3	0.04557	12.9133	2.58772	12.2001
 621	1	1	-0.463031	13.457	2.59345	13.4655