pySIMM System Object

648 atoms
723 bonds
1197 angles
1820 dihedrals
76 impropers

13 atom types
18 bond types
33 angle types
13 dihedral types
2 improper types

-131.371138 131.371138 xlo xhi
-131.371138 131.371138 ylo yhi
-131.371138 131.371138 zlo zhi

Masses

   1	14.01	# n2
   2	12.01	# c2
   3	14.01	# na
   4	12.01	# c1
   5	14.01	# nh
   6	12.01	# c3
   7	1.008	# hc
   8	1.008	# h1
   9	12.01	# ca
  10	1.008	# ha
  11	16.0	# os
  12	1.008	# hn
  13	1.008	# h5

Pair Coeffs

   1	0.17	3.249998523775958	# n2
   2	0.086	3.3996695084235347	# c2
   3	0.17	3.249998523775958	# na
   4	0.21	3.3996695084235347	# c1
   5	0.17	3.249998523775958	# nh
   6	0.1094	3.3996695084235347	# c3
   7	0.0157	2.649532787749369	# hc
   8	0.0157	2.471353044121301	# h1
   9	0.086	3.3996695084235347	# ca
  10	0.015	2.59964245953351	# ha
  11	0.17	3.0000123434657784	# os
  12	0.0157	1.069078461768407	# hn
  13	0.015	2.421462715905442	# h5

Bond Coeffs

   1	300.9	1.5375	# c3,c3
   2	416.2	1.3872	# c2,nh
   3	330.6	1.0969	# c3,hc
   4	397.4	1.4015	# c2,na
   5	345.8	1.086	# ca,ha
   6	625.0	1.307	# c1,c2
   7	330.6	1.0969	# c3,h1
   8	404.6	1.0121	# hn,nh
   9	376.6	1.3696	# ca,os
  10	505.3	1.3676	# n2,na
  11	327.7	1.4629	# c3,na
  12	338.4	1.0912	# c2,h5
  13	569.4	1.3343	# c2,c2
  14	551.6	1.303	# ca,n2
  15	389.2	1.3596	# c2,os
  16	594.1	1.2817	# c2,n2
  17	461.1	1.3984	# ca,ca
  18	482.1	1.3846	# c2,ca

Angle Coeffs

   1	39.4	107.58	# hc,c3,hc
   2	52.26	121.7	# h5,c2,n2
   3	70.06	121.62	# c1,c2,c2
   4	69.58	119.2	# ca,ca,os
   5	78.34	113.82	# n2,c2,n2
   6	70.52	117.58	# c2,n2,na
   7	46.39	109.56	# c3,c3,h1
   8	71.15	126.01	# c2,c2,n2
   9	62.86	111.51	# c3,c3,c3
  10	49.83	108.78	# h1,c3,na
  11	70.0	119.94	# c2,n2,ca
  12	65.52	112.88	# c3,c3,na
  13	69.36	117.0	# c2,c2,ca
  14	71.79	124.27	# n2,c2,nh
  15	46.34	109.8	# c3,c3,hc
  16	65.56	125.0	# c2,na,n2
  17	74.41	119.78	# n2,c2,os
  18	70.62	119.57	# ca,ca,n2
  19	48.18	119.88	# ca,ca,ha
  20	69.14	121.94	# c2,c2,na
  21	71.53	123.62	# n2,c2,na
  22	66.78	120.6	# c2,ca,ca
  23	69.3	121.81	# c2,c2,c2
  24	64.17	118.2	# c2,os,ca
  25	40.07	115.12	# hn,nh,hn
  26	48.59	115.09	# c2,nh,hn
  27	52.71	110.95	# h5,c2,os
  28	65.54	119.24	# c3,na,n2
  29	66.62	120.02	# ca,ca,ca
  30	71.11	118.18	# c2,n2,c2
  31	63.85	117.2	# c2,na,c3
  32	63.96	124.73	# c2,nh,c2
  33	73.36	114.3	# nh,c2,os

Dihedral Coeffs

   1	1	6.65	2	180	# X,c2,c2,X
   2	1	3.625	2	180	# X,ca,ca,X
   3	1	1.7	2	180	# X,n2,na,X
   4	1	0.7	2	180	# X,c2,ca,X
   5	1	0.15555555555555556	3	0	# X,c3,c3,X
   6	1	1.05	2	180	# X,c2,os,X
   7	1	0.0	3	180	# X,ca,n2,X
   8	1	4.15	2	180	# X,c2,n2,X
   9	1	0.9	2	180	# X,ca,os,X
  10	1	0.625	2	180	# X,c2,na,X
  11	1	0.0	2	0	# X,c3,na,X
  12	1	0.16	3	0	# hc,c3,c3,c3
  13	1	0.675	2	180	# X,c2,nh,X

Improper Coeffs

   1	1.1	-1	2	# ca,X,X,ha
   2	1.1	-1	2	# ca,ca,ca,c2

Atoms

   1	1	1	-0.261357	10.2469	-6.14665	-11.6272
   2	1	2	0.070556	10.9703	-5.96251	-12.6878
   3	1	2	0.0266	10.8457	-4.83184	-13.4008
   4	1	2	0.33777	9.37974	-5.25653	-11.2127
   5	1	1	-0.659679	9.24076	-4.15269	-11.8915
   6	1	2	0.428714	9.96241	-3.9572	-12.9493
   7	1	2	0.160826	11.4082	-4.33167	-14.5172
   8	1	3	0.04557	10.0048	-2.89885	-13.8576
   9	1	1	-0.463031	10.9461	-3.16392	-14.826
  10	1	4	-0.07905	11.7728	-6.96161	-12.955
  11	1	5	-0.061319	8.55541	-5.46956	-10.1302
  12	1	6	0.28436	9.41475	-1.57089	-13.6096
  13	1	6	-0.21175	9.88962	-0.928896	-12.286
  14	1	7	0.07562	10.984	-0.956833	-12.2156
  15	1	7	0.047171	9.47629	-1.45459	-11.4163
  16	1	7	0.053131	9.57182	0.11931	-12.2298
  17	1	6	-0.120715	7.87284	-1.57654	-13.7031
  18	1	8	0.007856	9.77494	-0.920848	-14.4173
  19	1	7	0.031711	7.42866	-2.19765	-12.9154
  20	1	7	0.04419	7.54805	-1.97144	-14.6739
  21	1	7	-0.003555	7.47341	-0.559415	-13.6017
  22	1	9	-0.011509	12.3654	-5.03244	-15.2465
  23	1	9	-0.199369	13.7343	-4.98022	-14.8744
  24	1	9	-0.201771	14.7193	-5.66006	-15.6266
  25	1	9	0.15189	14.2875	-6.37821	-16.7456
  26	1	9	0.348083	12.9581	-6.43017	-17.115
  27	1	9	-0.230673	11.9705	-5.76502	-16.389
  28	1	10	0.174789	14.0278	-4.39979	-14.0024
  29	1	10	0.188672	15.7723	-5.62642	-15.362
  30	1	10	0.201012	10.9359	-5.80789	-16.7104
  31	1	11	-0.381547	15.01	-7.09645	-17.6458
  32	1	1	-0.706002	12.833	-7.14271	-18.1937
  33	1	2	0.698504	14.0265	-7.52834	-18.5011
  34	1	12	0.214303	7.76406	-4.85195	-10.16
  35	1	1	-0.261357	4.57866	-13.068	-5.86173
  36	1	2	0.070556	5.23702	-12.2571	-6.62375
  37	1	2	0.0266	5.35635	-12.5172	-7.93294
  38	1	2	0.33777	4.02416	-14.1641	-6.31511
  39	1	1	-0.659679	4.08181	-14.4089	-7.59618
  40	1	2	0.428714	4.74361	-13.6055	-8.36862
  41	1	2	0.160826	5.97809	-11.9323	-8.97082
  42	1	3	0.04557	5.00856	-13.6419	-9.74019
  43	1	1	-0.463031	5.80707	-12.5741	-10.0792
  44	1	4	-0.07905	5.74271	-11.2367	-5.97919
  45	1	5	-0.061319	3.43357	-15.0721	-5.45919
  46	1	6	0.28436	4.84869	-14.8395	-10.5839
  47	1	6	-0.21175	3.36735	-15.1723	-10.8585
  48	1	7	0.07562	2.8602	-15.4809	-9.93707
  49	1	7	0.047171	3.2816	-15.9864	-11.5886
  50	1	7	0.053131	2.8452	-14.296	-11.2623
  51	1	6	-0.120715	5.61264	-16.076	-10.0566
  52	1	8	0.007856	5.29734	-14.5902	-11.5544
  53	1	7	0.031711	5.17522	-16.4495	-9.1226
  54	1	7	0.04419	6.66487	-15.8287	-9.86811
  55	1	7	-0.003555	5.58436	-16.8901	-10.792
  56	1	9	-0.011509	6.77071	-10.7986	-8.82542
  57	1	9	-0.199369	8.05532	-10.9042	-8.23
  58	1	9	-0.201771	8.92908	-9.79611	-8.18428
  59	1	9	0.15189	8.46803	-8.59852	-8.7368
  60	1	9	0.348083	7.20644	-8.48019	-9.28596
  61	1	9	-0.230673	6.33796	-9.56722	-9.36412
  62	1	10	0.174789	8.38579	-11.8652	-7.84057
  63	1	10	0.188672	9.93419	-9.87216	-7.77977
  64	1	10	0.201012	5.38378	-9.47063	-9.86855
  65	1	11	-0.381547	9.13817	-7.43764	-8.95782
  66	1	1	-0.706002	7.06902	-7.2986	-9.80775
  67	1	2	0.698504	8.21127	-6.71758	-9.66833
  68	1	12	0.214303	2.50043	-15.3545	-5.7137
  69	1	1	-0.261357	0.863147	-13.1798	2.47961
  70	1	2	0.070556	1.81441	-13.6243	1.72192
  71	1	2	0.0266	2.59376	-14.6356	2.13807
  72	1	2	0.33777	0.605892	-13.7091	3.64749
  73	1	1	-0.659679	1.38082	-14.6587	4.0977
  74	1	2	0.428714	2.34996	-15.0909	3.35493
  75	1	2	0.160826	3.59986	-15.3579	1.61122
  76	1	3	0.04557	3.29277	-16.0974	3.56166
  77	1	1	-0.463031	4.05052	-16.2564	2.42309
  78	1	4	-0.07905	1.88927	-12.9907	0.578788
  79	1	5	-0.061319	-0.556396	-13.3834	4.30886
  80	1	6	0.28436	3.20122	-17.0624	4.67153
  81	1	6	-0.21175	4.54697	-17.7687	4.95943
  82	1	7	0.07562	4.46136	-18.4342	5.82677
  83	1	7	0.047171	5.33284	-17.0327	5.16975
  84	1	7	0.053131	4.8661	-18.3697	4.09801
  85	1	6	-0.120715	2.08412	-18.1052	4.44744
  86	1	8	0.007856	2.94164	-16.4905	5.57153
  87	1	7	0.031711	2.28924	-18.7123	3.55663
  88	1	7	0.04419	1.11397	-17.6116	4.30905
  89	1	7	-0.003555	1.99936	-18.7771	5.31089
  90	1	9	-0.011509	4.01406	-15.2087	0.29208
  91	1	9	-0.199369	5.33465	-14.7798	0.00406824
  92	1	9	-0.201771	5.77919	-14.6467	-1.33
  93	1	9	0.15189	4.86767	-14.9672	-2.33943
  94	1	9	0.348083	3.58667	-15.3946	-2.06579
  95	1	9	-0.230673	3.12737	-15.5366	-0.760526
  96	1	10	0.174789	6.00895	-14.5484	0.826464
  97	1	10	0.188672	6.77907	-14.2996	-1.57383
  98	1	10	0.201012	2.11392	-15.8754	-0.574617
  99	1	11	-0.381547	5.00046	-14.8839	-3.68539
 100	1	1	-0.706002	2.92839	-15.5459	-3.1742
 101	1	2	0.698504	3.74042	-15.2216	-4.12195
 102	1	12	0.214303	-0.708707	-12.3911	4.30458
 103	1	1	-0.261357	-4.5451	-20.3422	0.686647
 104	1	2	0.070556	-4.57713	-19.2001	1.30207
 105	1	2	0.0266	-5.56491	-18.3246	1.05159
 106	1	2	0.33777	-5.46631	-20.6899	-0.176221
 107	1	1	-0.659679	-6.45291	-19.8693	-0.411659
 108	1	2	0.428714	-6.478	-18.7188	0.181449
 109	1	2	0.160826	-5.88721	-17.0866	1.47509
 110	1	3	0.04557	-7.37026	-17.6537	0.0911913
 111	1	1	-0.463031	-6.96413	-16.6327	0.920912
 112	1	4	-0.07905	-3.57693	-19.0236	2.12819
 113	1	5	-0.061319	-5.38279	-21.8532	-0.907785
 114	1	6	0.28436	-8.53009	-17.638	-0.817592
 115	1	6	-0.21175	-8.21465	-16.9484	-2.16296
 116	1	7	0.07562	-9.07745	-17.0044	-2.83827
 117	1	7	0.047171	-7.36456	-17.4344	-2.6579
 118	1	7	0.053131	-7.96506	-15.8906	-2.01087
 119	1	6	-0.120715	-9.77933	-17.0058	-0.165314
 120	1	8	0.007856	-8.78319	-18.6825	-1.03925
 121	1	7	0.031711	-9.62578	-15.9349	0.0205535
 122	1	7	0.04419	-9.99895	-17.4899	0.794362
 123	1	7	-0.003555	-10.6579	-17.1196	-0.812736
 124	1	9	-0.011509	-5.1093	-16.4068	2.40649
 125	1	9	-0.199369	-5.43238	-16.4715	3.78684
 126	1	9	-0.201771	-4.63475	-15.8183	4.75434
 127	1	9	0.15189	-3.52923	-15.0992	4.29057
 128	1	9	0.348083	-3.2255	-15.0209	2.94701
 129	1	9	-0.230673	-3.98951	-15.6626	1.9757
 130	1	10	0.174789	-6.30059	-17.0467	4.10142
 131	1	10	0.188672	-4.8524	-15.8791	5.81661
 132	1	10	0.201012	-3.70928	-15.5989	0.930062
 133	1	11	-0.381547	-2.56515	-14.4336	4.98577
 134	1	1	-0.706002	-2.12938	-14.3491	2.79197
 135	1	2	0.698504	-1.72303	-14.0372	3.97642
 136	1	12	0.214303	-6.28212	-22.0255	-1.32049
 137	1	1	-0.261357	-0.412164	-16.5446	-3.15493
 138	1	2	0.070556	-0.671511	-17.7753	-3.4468
 139	1	2	0.0266	-0.606268	-18.2086	-4.71836
 140	1	2	0.33777	-0.0743697	-15.678	-4.06836
 141	1	1	-0.659679	-0.00403729	-16.0729	-5.31292
 142	1	2	0.428714	-0.268207	-17.3042	-5.62094
 143	1	2	0.160826	-0.846263	-19.3736	-5.34343
 144	1	3	0.04557	-0.328854	-17.956	-6.86169
 145	1	1	-0.463031	-0.707656	-19.2647	-6.62291
 146	1	4	-0.07905	-1.01216	-18.4422	-2.37276
 147	1	5	-0.061319	0.151647	-14.3769	-3.67858
 148	1	6	0.28436	-0.813326	-17.2311	-8.0658
 149	1	6	-0.21175	-0.950392	-18.1459	-9.30955
 150	1	7	0.07562	-1.35769	-17.5895	-10.1626
 151	1	7	0.047171	-1.62979	-18.9845	-9.11203
 152	1	7	0.053131	0.0247988	-18.5563	-9.60002
 153	1	6	-0.120715	0.0301593	-15.9908	-8.4532
 154	1	8	0.007856	-1.82327	-16.8721	-7.8285
 155	1	7	0.031711	-0.0855788	-15.1814	-7.72393
 156	1	7	0.04419	-0.290781	-15.5862	-9.42129
 157	1	7	-0.003555	1.09403	-16.2458	-8.52271
 158	1	9	-0.011509	-1.3465	-20.4345	-4.59823
 159	1	9	-0.199369	-0.493809	-21.206	-3.76644
 160	1	9	-0.201771	-1.03191	-22.0044	-2.7309
 161	1	9	0.15189	-2.42539	-22.0357	-2.60194
 162	1	9	0.348083	-3.25543	-21.3727	-3.48432
 163	1	9	-0.230673	-2.7469	-20.5468	-4.48019
 164	1	10	0.174789	0.584119	-21.0765	-3.84209
 165	1	10	0.188672	-0.395881	-22.4917	-1.99733
 166	1	10	0.201012	-3.41674	-19.9116	-5.04839
 167	1	11	-0.381547	-3.18209	-22.4523	-1.54876
 168	1	1	-0.706002	-4.46846	-21.3788	-3.0293
 169	1	2	0.698504	-4.42407	-21.9709	-1.88672
 170	1	12	0.214303	-0.0803922	-14.1794	-2.72115
 171	1	1	-0.261357	3.95156	-6.28158	-6.3586
 172	1	2	0.070556	3.1315	-7.27843	-6.27145
 173	1	2	0.0266	1.80768	-7.07553	-6.3501
 174	1	2	0.33777	3.53922	-5.05013	-6.50048
 175	1	1	-0.659679	2.25191	-4.82001	-6.55817
 176	1	2	0.428714	1.42184	-5.81552	-6.47417
 177	1	2	0.160826	0.714784	-7.86176	-6.33618
 178	1	3	0.04557	0.026431	-5.88304	-6.52823
 179	1	1	-0.463031	-0.385464	-7.19178	-6.42214
 180	1	4	-0.07905	3.74675	-8.42197	-6.11154
 181	1	5	-0.061319	4.48463	-4.08029	-6.76018
 182	1	6	0.28436	-0.869178	-4.71579	-6.49006
 183	1	6	-0.21175	-1.72644	-4.68824	-5.20368
 184	1	7	0.07562	-2.38796	-5.56376	-5.16011
 185	1	7	0.047171	-2.34956	-3.78648	-5.16553
 186	1	7	0.053131	-1.08736	-4.70236	-4.31235
 187	1	6	-0.120715	-1.77978	-4.65947	-7.73721
 188	1	8	0.007856	-0.246777	-3.81248	-6.49381
 189	1	7	0.031711	-1.18151	-4.70168	-8.6558
 190	1	7	0.04419	-2.36322	-3.73089	-7.75239
 191	1	7	-0.003555	-2.4821	-5.50357	-7.75081
 192	1	9	-0.011509	0.789319	-9.24742	-6.2437
 193	1	9	-0.199369	1.33888	-10.0185	-7.30357
 194	1	9	-0.201771	1.43527	-11.4246	-7.20676
 195	1	9	0.15189	0.945504	-12.014	-6.03875
 196	1	9	0.348083	0.37606	-11.2715	-5.02533
 197	1	9	-0.230673	0.279012	-9.88606	-5.09413
 198	1	10	0.174789	1.70599	-9.51414	-8.19491
 199	1	10	0.188672	1.87134	-12.0312	-7.99545
 200	1	10	0.201012	-0.172203	-9.32786	-4.28155
 201	1	11	-0.381547	0.908449	-13.3204	-5.67478
 202	1	1	-0.706002	-0.00518793	-12.0572	-4.06786
 203	1	2	0.698504	0.273661	-13.2526	-4.45634
 204	1	12	0.214303	5.32192	-4.47235	-7.15249
 205	1	1	-0.261357	8.44219	1.81955	-0.696919
 206	1	2	0.070556	7.80038	1.36518	-1.72714
 207	1	2	0.0266	7.80713	2.04558	-2.88287
 208	1	2	0.33777	9.13597	2.92701	-0.734728
 209	1	1	-0.659679	9.17961	3.59606	-1.85925
 210	1	2	0.428714	8.53047	3.15552	-2.89692
 211	1	2	0.160826	7.22458	1.88573	-4.0879
 212	1	3	0.04557	8.35278	3.66417	-4.19058
 213	1	1	-0.463031	7.52298	2.83539	-4.91071
 214	1	4	-0.07905	7.18353	0.23395	-1.50018
 215	1	5	-0.061319	9.64821	3.4313	0.447323
 216	1	6	0.28436	8.96496	4.88921	-4.73756
 217	1	6	-0.21175	10.4604	4.712	-5.07634
 218	1	7	0.07562	10.8469	5.59967	-5.59261
 219	1	7	0.047171	10.6046	3.84932	-5.73923
 220	1	7	0.053131	11.0548	4.55338	-4.16814
 221	1	6	-0.120715	8.7267	6.15124	-3.87884
 222	1	8	0.007856	8.45612	5.07551	-5.69273
 223	1	7	0.031711	9.07676	7.0464	-4.40809
 224	1	7	0.04419	9.26415	6.09213	-2.92484
 225	1	7	-0.003555	7.65771	6.28101	-3.66722
 226	1	9	-0.011509	6.33187	0.849274	-4.36168
 227	1	9	-0.199369	4.95964	1.00609	-4.03658
 228	1	9	-0.201771	4.01622	-0.00782155	-4.31586
 229	1	9	0.15189	4.48683	-1.16218	-4.94683
 230	1	9	0.348083	5.81438	-1.31166	-5.29431
 231	1	9	-0.230673	6.76594	-0.325836	-5.01827
 232	1	10	0.174789	4.62509	1.93452	-3.58137
 233	1	10	0.188672	2.96226	0.105699	-4.07619
 234	1	10	0.201012	7.7968	-0.459534	-5.32493
 235	1	11	-0.381547	3.79995	-2.24782	-5.39654
 236	1	1	-0.706002	5.96201	-2.42533	-5.94821
 237	1	2	0.698504	4.79558	-2.97883	-5.99454
 238	1	12	0.214303	9.02233	3.21746	1.20358
 239	1	1	-0.261357	16.4531	3.08599	6.90697
 240	1	2	0.070556	15.8272	3.02125	5.77091
 241	1	2	0.0266	16.1821	2.10144	4.86013
 242	1	2	0.33777	17.4397	2.27878	7.20887
 243	1	1	-0.659679	17.8116	1.39418	6.32448
 244	1	2	0.428714	17.1854	1.30545	5.19292
 245	1	2	0.160826	15.7828	1.77203	3.61986
 246	1	3	0.04557	17.381	0.451989	4.09751
 247	1	1	-0.463031	16.4773	0.807076	3.11704
 248	1	4	-0.07905	14.8689	3.90173	5.62879
 249	1	5	-0.061319	18.1159	2.30935	8.41423
 250	1	6	0.28436	18.7223	-0.0976057	3.78021
 251	1	6	-0.21175	18.7939	-0.793088	2.39684
 252	1	7	0.07562	18.2143	-1.72314	2.40461
 253	1	7	0.047171	19.8311	-1.03788	2.13736
 254	1	7	0.053131	18.3974	-0.150631	1.60085
 255	1	6	-0.120715	19.2612	-1.07963	4.84838
 256	1	8	0.007856	19.4098	0.757204	3.7411
 257	1	7	0.031711	18.5562	-1.90421	5.01216
 258	1	7	0.04419	19.4317	-0.577976	5.80705
 259	1	7	-0.003555	20.2215	-1.50807	4.53373
 260	1	9	-0.011509	14.8167	2.4709	2.89789
 261	1	9	-0.199369	15.2356	3.4771	1.98992
 262	1	9	-0.201771	14.3182	4.10465	1.11906
 263	1	9	0.15189	12.9817	3.70444	1.20202
 264	1	9	0.348083	12.5559	2.75121	2.10564
 265	1	9	-0.230673	13.454	2.09559	2.95455
 266	1	10	0.174789	16.2927	3.72829	1.93006
 267	1	10	0.188672	14.6355	4.83913	0.384246
 268	1	10	0.201012	13.1234	1.28631	3.59548
 269	1	11	-0.381547	11.9275	4.04603	0.413167
 270	1	1	-0.706002	11.2827	2.53668	1.93169
 271	1	2	0.698504	10.9375	3.22214	0.887765
 272	1	12	0.214303	18.8183	1.59405	8.47622
 273	1	1	-0.261357	11.4533	4.85288	13.3156
 274	1	2	0.070556	12.6731	4.41834	13.2671
 275	1	2	0.0266	13.6019	4.90181	14.1092
 276	1	2	0.33777	11.0782	5.77848	14.162
 277	1	1	-0.659679	11.9424	6.21646	15.0373
 278	1	2	0.428714	13.1644	5.78354	14.9943
 279	1	2	0.160826	14.9262	4.72593	14.3041
 280	1	3	0.04557	14.2808	6.10203	15.7659
 281	1	1	-0.463031	15.3788	5.4135	15.3018
 282	1	4	-0.07905	12.8312	3.47789	12.3705
 283	1	5	-0.061319	9.7985	6.29385	14.1516
 284	1	6	0.28436	14.238	7.00298	16.934
 285	1	6	-0.21175	15.6425	7.44365	17.4099
 286	1	7	0.07562	16.2069	7.89309	16.5834
 287	1	7	0.047171	16.2148	6.5852	17.7847
 288	1	7	0.053131	15.5687	8.18447	18.2152
 289	1	6	-0.120715	13.4498	6.39396	18.1155
 290	1	8	0.007856	13.708	7.90993	16.616
 291	1	7	0.031711	13.8997	5.44624	18.4373
 292	1	7	0.04419	12.4083	6.19919	17.8319
 293	1	7	-0.003555	13.4397	7.07857	18.9731
 294	1	9	-0.011509	15.7484	3.98438	13.4524
 295	1	9	-0.199369	16.6665	3.0393	13.9839
 296	1	9	-0.201771	17.5564	2.32941	13.1437
 297	1	9	0.15189	17.4983	2.60233	11.7727
 298	1	9	0.348083	16.6294	3.5366	11.2522
 299	1	9	-0.230673	15.7596	4.25919	12.0633
 300	1	10	0.174789	16.6869	2.86883	15.059
 301	1	10	0.188672	18.2578	1.59884	13.5365
 302	1	10	0.201012	15.1037	4.99752	11.6156
 303	1	11	-0.381547	18.1933	2.05381	10.739
 304	1	1	-0.706002	16.7545	3.5772	9.96101
 305	1	2	0.698504	17.6432	2.69422	9.65351
 306	1	12	0.214303	9.64962	6.97228	14.876
 307	1	1	-0.261357	9.80765	3.47007	7.2263
 308	1	2	0.070556	9.1247	4.35238	7.87264
 309	1	2	0.0266	8.45227	5.31272	7.21439
 310	1	2	0.33777	9.87392	3.47024	5.92211
 311	1	1	-0.659679	9.20839	4.36887	5.2543
 312	1	2	0.428714	8.5206	5.26044	5.89529
 313	1	2	0.160826	7.68396	6.35847	7.56938
 314	1	3	0.04557	7.7392	6.32419	5.43911
 315	1	1	-0.463031	7.2198	6.98257	6.53687
 316	1	4	-0.07905	9.1916	4.12925	9.16128
 317	1	5	-0.061319	10.6378	2.54305	5.26526
 318	1	6	0.28436	6.99	6.2504	4.16797
 319	1	6	-0.21175	5.69386	5.41998	4.31929
 320	1	7	0.07562	5.1621	5.69244	5.23901
 321	1	7	0.047171	5.91169	4.34504	4.35525
 322	1	7	0.053131	5.011	5.61226	3.48822
 323	1	6	-0.120715	7.81581	5.78082	2.94126
 324	1	8	0.007856	6.68421	7.28183	3.95236
 325	1	7	0.031711	8.808	6.24925	2.93455
 326	1	7	0.04419	7.31338	6.05501	2.00758
 327	1	7	-0.003555	7.95108	4.69122	2.93621
 328	1	9	-0.011509	7.50061	6.61136	8.92401
 329	1	9	-0.199369	6.33055	6.14954	9.57772
 330	1	9	-0.201771	6.27699	6.07071	10.988
 331	1	9	0.15189	7.41026	6.48424	11.6978
 332	1	9	0.348083	8.52121	7.00466	11.0628
 333	1	9	-0.230673	8.59453	7.0933	9.67649
 334	1	10	0.174789	5.51198	5.75079	8.9817
 335	1	10	0.188672	5.43812	5.61152	11.5027
 336	1	10	0.201012	9.5325	7.36566	9.20514
 337	1	11	-0.381547	7.74323	6.24022	12.9955
 338	1	1	-0.706002	9.50805	7.07013	11.9014
 339	1	2	0.698504	9.07758	6.56473	13.0066
 340	1	12	0.214303	10.5641	2.55292	4.26106
 341	1	1	-0.261357	12.9963	-7.0791	5.6325
 342	1	2	0.070556	12.9389	-5.86186	6.07486
 343	1	2	0.0266	13.4471	-4.85943	5.34168
 344	1	2	0.33777	13.5286	-7.36825	4.47129
 345	1	1	-0.659679	14.1025	-6.42233	3.78377
 346	1	2	0.428714	14.0557	-5.20454	4.21642
 347	1	2	0.160826	13.4611	-3.51842	5.40131
 348	1	3	0.04557	14.4585	-4.01587	3.59856
 349	1	1	-0.463031	14.0762	-2.97641	4.4051
 350	1	4	-0.07905	12.3729	-5.74845	7.24982
 351	1	5	-0.061319	13.2595	-8.55212	3.82488
 352	1	6	0.28436	14.393	-3.88348	2.12732
 353	1	6	-0.21175	15.7999	-3.95277	1.50528
 354	1	7	0.07562	16.4174	-3.12495	1.87239
 355	1	7	0.047171	15.7469	-3.88789	0.411804
 356	1	7	0.053131	16.2911	-4.89645	1.77197
 357	1	6	-0.120715	13.6609	-2.60147	1.64571
 358	1	8	0.007856	13.8172	-4.73383	1.7405
 359	1	7	0.031711	13.5846	-2.57833	0.55235
 360	1	7	0.04419	14.1943	-1.69672	1.96838
 361	1	7	-0.003555	12.6414	-2.55657	2.05163
 362	1	9	-0.011509	12.5936	-2.68488	6.11428
 363	1	9	-0.199369	11.2086	-3.00938	6.19484
 364	1	9	-0.201771	10.2269	-2.00746	6.34248
 365	1	9	0.15189	10.6673	-0.683773	6.37512
 366	1	9	0.348083	12.0105	-0.361424	6.36085
 367	1	9	-0.230673	12.9924	-1.33609	6.27023
 368	1	10	0.174789	10.8669	-4.01445	5.96377
 369	1	10	0.188672	9.16829	-2.23542	6.25919
 370	1	10	0.201012	14.0092	-1.02296	6.05884
 371	1	11	-0.381547	9.96332	0.430614	6.04907
 372	1	1	-0.706002	12.1564	0.877158	6.01125
 373	1	2	0.698504	10.9707	1.33356	5.81798
 374	1	12	0.214303	14.0055	-8.78187	3.19285
 375	1	1	-0.261357	6.91131	-3.32909	2.03905
 376	1	2	0.070556	7.50584	-4.43505	1.7142
 377	1	2	0.0266	6.78539	-5.52009	1.38603
 378	1	2	0.33777	5.60861	-3.21122	2.03292
 379	1	1	-0.659679	4.88926	-4.26296	1.74127
 380	1	2	0.428714	5.4706	-5.37365	1.40403
 381	1	2	0.160826	7.06221	-6.79706	1.06836
 382	1	3	0.04557	4.93933	-6.6354	1.0958
 383	1	1	-0.463031	5.99644	-7.49838	0.88178
 384	1	4	-0.07905	8.81174	-4.35539	1.76404
 385	1	5	-0.061319	5.01693	-2.08185	2.56058
 386	1	6	0.28436	3.70493	-7.08578	1.78368
 387	1	6	-0.21175	3.557	-8.62751	1.86336
 388	1	7	0.07562	2.62261	-8.90893	2.36331
 389	1	7	0.047171	4.38487	-9.07082	2.43135
 390	1	7	0.053131	3.55593	-9.07244	0.859884
 391	1	6	-0.120715	2.42026	-6.47659	1.18009
 392	1	8	0.007856	3.77403	-6.72665	2.8189
 393	1	7	0.031711	2.28127	-6.80378	0.142443
 394	1	7	0.04419	2.45862	-5.38091	1.19359
 395	1	7	-0.003555	1.53947	-6.7837	1.75892
 396	1	9	-0.011509	8.3424	-7.33906	1.15587
 397	1	9	-0.199369	9.04361	-7.79325	0.00755405
 398	1	9	-0.201771	10.3376	-8.35911	0.121839
 399	1	9	0.15189	10.874	-8.48282	1.40953
 400	1	9	0.348083	10.1728	-8.08269	2.52533
 401	1	9	-0.230673	8.91527	-7.49811	2.43645
 402	1	10	0.174789	8.57945	-7.69361	-0.972171
 403	1	10	0.188672	10.9033	-8.67875	-0.748618
 404	1	10	0.201012	8.40911	-7.16684	3.33549
 405	1	11	-0.381547	12.1083	-8.89516	1.8172
 406	1	1	-0.706002	10.9153	-8.21492	3.57668
 407	1	2	0.698504	12.0491	-8.6844	3.17551
 408	1	12	0.214303	5.48071	-1.74309	3.38384
 409	1	1	-0.261357	4.82684	6.84118	-0.439754
 410	1	2	0.070556	4.49841	5.60142	-0.238317
 411	1	2	0.0266	3.81848	4.91247	-1.16721
 412	1	2	0.33777	4.51165	7.4715	-1.54348
 413	1	1	-0.659679	3.89168	6.81013	-2.48241
 414	1	2	0.428714	3.55356	5.57493	-2.27988
 415	1	2	0.160826	3.31874	3.66184	-1.27574
 416	1	3	0.04557	2.88641	4.6574	-3.08411
 417	1	1	-0.463031	2.75022	3.45816	-2.41978
 418	1	4	-0.07905	4.92996	5.12563	0.897889
 419	1	5	-0.061319	4.86493	8.78624	-1.77576
 420	1	6	0.28436	2.37814	4.97513	-4.42785
 421	1	6	-0.21175	0.835034	4.99707	-4.47019
 422	1	7	0.07562	0.477654	5.31933	-5.45581
 423	1	7	0.047171	0.439294	5.6953	-3.72168
 424	1	7	0.053131	0.423497	4.0015	-4.26108
 425	1	6	-0.120715	2.95242	4.02199	-5.49771
 426	1	8	0.007856	2.71876	5.98596	-4.68529
 427	1	7	0.031711	2.67578	2.98145	-5.28564
 428	1	7	0.04419	4.04799	4.08546	-5.51842
 429	1	7	-0.003555	2.57799	4.28118	-6.49585
 430	1	9	-0.011509	3.37241	2.72088	-0.242446
 431	1	9	-0.199369	2.69249	2.96597	0.981078
 432	1	9	-0.201771	2.73436	2.03391	2.0419
 433	1	9	0.15189	3.44328	0.848827	1.8263
 434	1	9	0.348083	4.06212	0.571796	0.626816
 435	1	9	-0.230673	4.04825	1.48953	-0.426799
 436	1	10	0.174789	2.14087	3.89567	1.10816
 437	1	10	0.188672	2.23798	2.21963	2.98988
 438	1	10	0.201012	4.5513	1.24872	-1.35274
 439	1	11	-0.381547	3.66909	-0.192687	2.66899
 440	1	1	-0.706002	4.64959	-0.587325	0.706446
 441	1	2	0.698504	4.38763	-1.05897	1.8812
 442	1	12	0.214303	4.83384	9.01307	-2.75444
 443	1	1	-0.261357	-1.16238	13.6862	-2.58002
 444	1	2	0.070556	-0.188608	13.4091	-1.77923
 445	1	2	0.0266	0.15759	14.2655	-0.804413
 446	1	2	0.33777	-1.84436	14.798	-2.49644
 447	1	1	-0.659679	-1.56781	15.6155	-1.51831
 448	1	2	0.428714	-0.592467	15.3523	-0.701101
 449	1	2	0.160826	1.09627	14.2966	0.158119
 450	1	3	0.04557	-0.096486	16.0553	0.408626
 451	1	1	-0.463031	0.970722	15.3362	0.9119
 452	1	4	-0.07905	0.325512	12.2378	-2.05702
 453	1	5	-0.061319	-2.84027	15.1243	-3.40073
 454	1	6	0.28436	-1.00216	16.7803	1.33762
 455	1	6	-0.21175	-2.01079	17.7488	0.670743
 456	1	7	0.07562	-2.74957	17.2087	0.0688369
 457	1	7	0.047171	-1.49463	18.4713	0.0268002
 458	1	7	0.053131	-2.5743	18.3057	1.42953
 459	1	6	-0.120715	-0.221639	17.5613	2.42351
 460	1	8	0.007856	-1.59071	16.0139	1.85876
 461	1	7	0.031711	-0.908696	18.0494	3.12566
 462	1	7	0.04419	0.408543	18.3341	1.96562
 463	1	7	-0.003555	0.424277	16.8961	3.00998
 464	1	9	-0.011509	2.00221	13.2506	0.328071
 465	1	9	-0.199369	1.90792	12.4496	1.49337
 466	1	9	-0.201771	2.63255	11.2435	1.60702
 467	1	9	0.15189	3.46067	10.892	0.537713
 468	1	9	0.348083	3.62588	11.7099	-0.562204
 469	1	9	-0.230673	2.92112	12.9068	-0.692789
 470	1	10	0.174789	1.20459	12.7328	2.27424
 471	1	10	0.188672	2.49547	10.5708	2.44837
 472	1	10	0.201012	2.98891	13.4753	-1.6137
 473	1	11	-0.381547	4.04296	9.69401	0.267322
 474	1	1	-0.706002	4.26677	11.0593	-1.48707
 475	1	2	0.698504	4.4914	9.87799	-1.01795
 476	1	12	0.214303	-3.47612	15.84	-3.09714
 477	1	1	-0.261357	-9.10343	9.87551	-6.48708
 478	1	2	0.070556	-7.95069	10.4543	-6.58402
 479	1	2	0.0266	-7.38522	10.6434	-7.78629
 480	1	2	0.33777	-9.75577	9.44901	-7.53668
 481	1	1	-0.659679	-9.22228	9.60827	-8.71914
 482	1	2	0.428714	-8.06615	10.1883	-8.82784
 483	1	2	0.160826	-6.23782	11.1839	-8.23444
 484	1	3	0.04557	-7.26188	10.4787	-9.93973
 485	1	1	-0.463031	-6.10632	11.0897	-9.51549
 486	1	4	-0.07905	-7.45455	10.7759	-5.4168
 487	1	5	-0.061319	-10.9945	8.86149	-7.41182
 488	1	6	0.28436	-7.39241	9.86875	-11.2791
 489	1	6	-0.21175	-8.34223	10.6592	-12.21
 490	1	7	0.07562	-8.94421	11.3819	-11.6453
 491	1	7	0.047171	-9.02777	9.99407	-12.7496
 492	1	7	0.053131	-7.76088	11.2165	-12.9557
 493	1	6	-0.120715	-7.71192	8.35627	-11.2761
 494	1	8	0.007856	-6.39544	9.94596	-11.7335
 495	1	7	0.031711	-8.74626	8.16494	-10.967
 496	1	7	0.04419	-7.03969	7.8198	-10.595
 497	1	7	-0.003555	-7.57698	7.936	-12.2811
 498	1	9	-0.011509	-5.2558	11.7324	-7.41337
 499	1	9	-0.199369	-3.95898	11.1588	-7.44257
 500	1	9	-0.201771	-2.9022	11.7065	-6.68967
 501	1	9	0.15189	-3.19138	12.8355	-5.92529
 502	1	9	0.348083	-4.44825	13.4006	-5.87368
 503	1	9	-0.230673	-5.50792	12.8777	-6.61666
 504	1	10	0.174789	-3.77975	10.2824	-8.06212
 505	1	10	0.188672	-1.9062	11.2732	-6.68619
 506	1	10	0.201012	-6.48875	13.3365	-6.56178
 507	1	11	-0.381547	-2.39149	13.5042	-5.06905
 508	1	1	-0.706002	-4.453	14.3628	-4.99592
 509	1	2	0.698504	-3.26198	14.3951	-4.4961
 510	1	12	0.214303	-11.3322	8.40624	-8.24088
 511	1	1	-0.261357	-17.4161	7.49082	-0.265704
 512	1	2	0.070556	-16.4531	7.32687	-1.13219
 513	1	2	0.0266	-16.6649	6.60907	-2.24917
 514	1	2	0.33777	-18.6086	6.96986	-0.443233
 515	1	1	-0.659679	-18.8182	6.26455	-1.51672
 516	1	2	0.428714	-17.8784	6.10224	-2.38926
 517	1	2	0.160826	-15.9477	6.23653	-3.32838
 518	1	3	0.04557	-17.8737	5.43266	-3.61739
 519	1	1	-0.463031	-16.618	5.52017	-4.16741
 520	1	4	-0.07905	-15.3137	7.8903	-0.82019
 521	1	5	-0.061319	-19.6636	7.03254	0.451272
 522	1	6	0.28436	-18.8229	4.36505	-3.98314
 523	1	6	-0.21175	-20.3139	4.75208	-3.84309
 524	1	7	0.07562	-20.952	3.99206	-4.30943
 525	1	7	0.047171	-20.5148	5.71241	-4.33404
 526	1	7	0.053131	-20.6117	4.83365	-2.79092
 527	1	6	-0.120715	-18.5211	3.04322	-3.2455
 528	1	8	0.007856	-18.6576	4.17511	-5.05161
 529	1	7	0.031711	-19.1606	2.23511	-3.62114
 530	1	7	0.04419	-18.6911	3.14771	-2.16677
 531	1	7	-0.003555	-17.4762	2.74485	-3.39994
 532	1	9	-0.011509	-14.6259	6.56564	-3.62567
 533	1	9	-0.199369	-13.6099	5.57778	-3.51444
 534	1	9	-0.201771	-12.3444	5.75654	-4.12123
 535	1	9	0.15189	-12.1361	6.94165	-4.83378
 536	1	9	0.348083	-13.1106	7.91331	-4.93081
 537	1	9	-0.230673	-14.3661	7.75466	-4.34399
 538	1	10	0.174789	-13.8446	4.62588	-3.04187
 539	1	10	0.188672	-11.5904	4.97363	-4.11948
 540	1	10	0.201012	-15.1493	8.47474	-4.54866
 541	1	11	-0.381547	-11.1279	7.26868	-5.68817
 542	1	1	-0.706002	-12.7529	8.79092	-5.8188
 543	1	2	0.698504	-11.5821	8.44426	-6.2362
 544	1	12	0.214303	-20.4494	6.50482	0.114107
 545	1	1	-0.261357	-23.3458	14.4762	2.59026
 546	1	2	0.070556	-22.9991	13.272	2.89282
 547	1	2	0.0266	-23.3439	12.7457	4.07687
 548	1	2	0.33777	-23.9784	15.2548	3.42799
 549	1	1	-0.659679	-24.3823	14.7482	4.56424
 550	1	2	0.428714	-24.0714	13.5216	4.86635
 551	1	2	0.160826	-23.0754	11.59	4.71098
 552	1	3	0.04557	-24.2642	12.7568	6.0239
 553	1	1	-0.463031	-23.6011	11.556	5.8906
 554	1	4	-0.07905	-22.2808	12.7242	1.94488
 555	1	5	-0.061319	-24.0121	16.6175	3.18044
 556	1	6	0.28436	-24.73	13.2794	7.32606
 557	1	6	-0.21175	-26.2662	13.2116	7.45937
 558	1	7	0.07562	-26.5902	13.5918	8.436
 559	1	7	0.047171	-26.6098	12.1733	7.37052
 560	1	7	0.053131	-26.7547	13.8047	6.67631
 561	1	6	-0.120715	-24.2024	14.6845	7.70316
 562	1	8	0.007856	-24.3234	12.5981	8.08506
 563	1	7	0.031711	-24.411	14.9001	8.75846
 564	1	7	0.04419	-24.6805	15.4687	7.10374
 565	1	7	-0.003555	-23.1169	14.7476	7.55603
 566	1	9	-0.011509	-22.1087	10.7373	4.18257
 567	1	9	-0.199369	-20.7637	10.9933	4.54093
 568	1	9	-0.201771	-19.7039	10.339	3.88819
 569	1	9	0.15189	-20.0182	9.40097	2.90899
 570	1	9	0.348083	-21.3253	9.11055	2.58279
 571	1	9	-0.230673	-22.4031	9.76354	3.19604
 572	1	10	0.174789	-20.5462	11.7529	5.29089
 573	1	10	0.188672	-18.6801	10.5777	4.10598
 574	1	10	0.201012	-23.4192	9.56805	2.87496
 575	1	11	-0.381547	-19.1904	8.69953	2.08485
 576	1	1	-0.706002	-21.326	8.25246	1.60574
 577	1	2	0.698504	-20.0905	8.0519	1.27769
 578	1	12	0.214303	-24.5704	16.7998	2.36614
 579	1	1	-0.261357	-17.1402	12.3958	4.97416
 580	1	2	0.070556	-17.6337	13.539	4.61945
 581	1	2	0.0266	-17.2311	14.137	3.48526
 582	1	2	0.33777	-16.2605	11.7519	4.24687
 583	1	1	-0.659679	-15.8541	12.3069	3.14047
 584	1	2	0.428714	-16.3218	13.466	2.79608
 585	1	2	0.160826	-17.5435	15.2603	2.79933
 586	1	3	0.04557	-16.1015	14.227	1.6573
 587	1	1	-0.463031	-16.8886	15.3559	1.68639
 588	1	4	-0.07905	-18.5512	13.9339	5.4641
 589	1	5	-0.061319	-15.8914	10.4435	4.50911
 590	1	6	0.28436	-15.1629	13.822	0.598557
 591	1	6	-0.21175	-13.7259	14.2781	0.927869
 592	1	7	0.07562	-13.3457	13.73	1.79947
 593	1	7	0.047171	-13.704	15.35	1.16228
 594	1	7	0.053131	-13.0479	14.092	0.0865415
 595	1	6	-0.120715	-15.5952	14.2974	-0.805629
 596	1	8	0.007856	-15.1584	12.7245	0.565897
 597	1	7	0.031711	-14.9153	13.9076	-1.57319
 598	1	7	0.04419	-15.5947	15.3927	-0.867222
 599	1	7	-0.003555	-16.6062	13.9394	-1.03923
 600	1	9	-0.011509	-18.5813	16.1219	3.16688
 601	1	9	-0.199369	-18.6327	16.7479	4.44058
 602	1	9	-0.201771	-19.8197	17.3714	4.88821
 603	1	9	0.15189	-20.8865	17.4481	3.98753
 604	1	9	0.348083	-20.7767	17.0117	2.68514
 605	1	9	-0.230673	-19.6558	16.2966	2.26387
 606	1	10	0.174789	-17.7971	16.6341	5.12805
 607	1	10	0.188672	-19.9387	17.7032	5.91546
 608	1	10	0.201012	-19.6623	15.8063	1.29634
 609	1	11	-0.381547	-22.206	17.6584	4.24528
 610	1	1	-0.706002	-21.9528	17.0138	2.13641
 611	1	2	0.698504	-22.8081	17.293	3.06341
 612	1	12	0.214303	-15.6136	9.9611	3.67272
 613	1	1	-0.261357	-22.3172	10.6556	10.3817
 614	1	2	0.070556	-21.6863	9.82484	9.61147
 615	1	2	0.0266	-20.8095	8.95952	10.1413
 616	1	2	0.33777	-22.1122	10.6927	11.6733
 617	1	1	-0.659679	-21.2448	9.87251	12.2011
 618	1	2	0.428714	-20.6123	9.02724	11.4476
 619	1	2	0.160826	-19.9682	8.04232	9.64974
 620	1	3	0.04557	-19.5507	8.14022	11.7295
 621	1	1	-0.463031	-19.2361	7.49448	10.5539
 622	1	4	-0.07905	-21.9984	9.89816	8.34273
 623	1	5	-0.061319	-22.7883	11.5856	12.4819