pySIMM System Object

342 atoms
381 bonds
630 angles
956 dihedrals
40 impropers

13 atom types
18 bond types
33 angle types
13 dihedral types
2 improper types

-85.716770 85.716770 xlo xhi
-85.716770 85.716770 ylo yhi
-85.716770 85.716770 zlo zhi

Masses

   1	14.01	# n2
   2	12.01	# c2
   3	14.01	# na
   4	12.01	# c1
   5	14.01	# nh
   6	12.01	# c3
   7	1.008	# hc
   8	1.008	# h1
   9	12.01	# ca
  10	1.008	# ha
  11	16.0	# os
  12	1.008	# hn
  13	1.008	# h5

Pair Coeffs

   1	0.17	3.249998523775958	# n2
   2	0.086	3.3996695084235347	# c2
   3	0.17	3.249998523775958	# na
   4	0.21	3.3996695084235347	# c1
   5	0.17	3.249998523775958	# nh
   6	0.1094	3.3996695084235347	# c3
   7	0.0157	2.649532787749369	# hc
   8	0.0157	2.471353044121301	# h1
   9	0.086	3.3996695084235347	# ca
  10	0.015	2.59964245953351	# ha
  11	0.17	3.0000123434657784	# os
  12	0.0157	1.069078461768407	# hn
  13	0.015	2.421462715905442	# h5

Bond Coeffs

   1	300.9	1.5375	# c3,c3
   2	416.2	1.3872	# c2,nh
   3	330.6	1.0969	# c3,hc
   4	397.4	1.4015	# c2,na
   5	345.8	1.086	# ca,ha
   6	625.0	1.307	# c1,c2
   7	330.6	1.0969	# c3,h1
   8	404.6	1.0121	# hn,nh
   9	376.6	1.3696	# ca,os
  10	505.3	1.3676	# n2,na
  11	327.7	1.4629	# c3,na
  12	338.4	1.0912	# c2,h5
  13	569.4	1.3343	# c2,c2
  14	551.6	1.303	# ca,n2
  15	389.2	1.3596	# c2,os
  16	594.1	1.2817	# c2,n2
  17	461.1	1.3984	# ca,ca
  18	482.1	1.3846	# c2,ca

Angle Coeffs

   1	39.4	107.58	# hc,c3,hc
   2	52.26	121.7	# h5,c2,n2
   3	70.06	121.62	# c1,c2,c2
   4	69.58	119.2	# ca,ca,os
   5	78.34	113.82	# n2,c2,n2
   6	70.52	117.58	# c2,n2,na
   7	46.39	109.56	# c3,c3,h1
   8	71.15	126.01	# c2,c2,n2
   9	62.86	111.51	# c3,c3,c3
  10	49.83	108.78	# h1,c3,na
  11	70.0	119.94	# c2,n2,ca
  12	65.52	112.88	# c3,c3,na
  13	69.36	117.0	# c2,c2,ca
  14	71.79	124.27	# n2,c2,nh
  15	46.34	109.8	# c3,c3,hc
  16	65.56	125.0	# c2,na,n2
  17	74.41	119.78	# n2,c2,os
  18	70.62	119.57	# ca,ca,n2
  19	48.18	119.88	# ca,ca,ha
  20	69.14	121.94	# c2,c2,na
  21	71.53	123.62	# n2,c2,na
  22	66.78	120.6	# c2,ca,ca
  23	69.3	121.81	# c2,c2,c2
  24	64.17	118.2	# c2,os,ca
  25	40.07	115.12	# hn,nh,hn
  26	48.59	115.09	# c2,nh,hn
  27	52.71	110.95	# h5,c2,os
  28	65.54	119.24	# c3,na,n2
  29	66.62	120.02	# ca,ca,ca
  30	71.11	118.18	# c2,n2,c2
  31	63.85	117.2	# c2,na,c3
  32	63.96	124.73	# c2,nh,c2
  33	73.36	114.3	# nh,c2,os

Dihedral Coeffs

   1	1	6.65	2	180	# X,c2,c2,X
   2	1	3.625	2	180	# X,ca,ca,X
   3	1	1.7	2	180	# X,n2,na,X
   4	1	0.7	2	180	# X,c2,ca,X
   5	1	0.15555555555555556	3	0	# X,c3,c3,X
   6	1	1.05	2	180	# X,c2,os,X
   7	1	0.0	3	180	# X,ca,n2,X
   8	1	4.15	2	180	# X,c2,n2,X
   9	1	0.9	2	180	# X,ca,os,X
  10	1	0.625	2	180	# X,c2,na,X
  11	1	0.0	2	0	# X,c3,na,X
  12	1	0.16	3	0	# hc,c3,c3,c3
  13	1	0.675	2	180	# X,c2,nh,X

Improper Coeffs

   1	1.1	-1	2	# ca,X,X,ha
   2	1.1	-1	2	# ca,ca,ca,c2

Atoms

   1	1	1	-0.261357	13.5886	25.6032	-34.7807
   2	1	2	0.070556	13.8548	26.638	-35.5142
   3	1	2	0.0266	12.8699	27.4593	-35.9172
   4	1	2	0.33777	12.3711	25.3183	-34.3998
   5	1	1	-0.659679	11.4006	26.1015	-34.7836
   6	1	2	0.428714	11.6556	27.1397	-35.5103
   7	1	2	0.160826	12.7902	28.5837	-36.6536
   8	1	3	0.04557	10.8171	28.1255	-36.0237
   9	1	1	-0.463031	11.5794	29.0369	-36.7258
  10	1	4	-0.07905	15.1359	26.7578	-35.7558
  11	1	5	-0.061319	12.1501	24.1896	-33.6371
  12	1	6	0.28436	9.50243	28.4062	-35.411
  13	1	6	-0.21175	8.34164	28.1928	-36.4052
  14	1	7	0.07562	8.4115	28.8974	-37.2433
  15	1	7	0.047171	7.37362	28.3379	-35.9093
  16	1	7	0.053131	8.36479	27.1732	-36.8096
  17	1	6	-0.120715	9.42285	29.81	-34.7697
  18	1	8	0.007856	9.3536	27.6857	-34.5967
  19	1	7	0.031711	8.46424	29.9476	-34.2542
  20	1	7	0.04419	9.5197	30.596	-35.5295
  21	1	7	-0.003555	10.2247	29.9441	-34.0326
  22	1	9	-0.011509	13.9368	29.1337	-37.2187
  23	1	9	-0.199369	14.5324	30.2828	-36.639
  24	1	9	-0.201771	15.7562	30.792	-37.1289
  25	1	9	0.15189	16.3419	30.1223	-38.2078
  26	1	9	0.348083	15.7513	29.0209	-38.7948
  27	1	9	-0.230673	14.5442	28.5034	-38.3297
  28	1	10	0.174789	14.0495	30.7585	-35.7875
  29	1	10	0.188672	16.2418	31.6537	-36.6801
  30	1	10	0.201012	14.1206	27.6171	-38.7881
  31	1	11	-0.381547	17.5257	30.3555	-38.834
  32	1	1	-0.706002	16.5145	28.5682	-39.7427
  33	1	2	0.698504	17.5467	29.3434	-39.7618
  34	1	12	0.214303	12.9406	23.5795	-33.5271
  35	1	1	-0.261357	8.95454	22.2898	-25.7006
  36	1	2	0.070556	8.79981	22.45	-26.9785
  37	1	2	0.0266	7.94481	21.6685	-27.66
  38	1	2	0.33777	8.29663	21.3787	-25.0311
  39	1	1	-0.659679	7.4434	20.6306	-25.6743
  40	1	2	0.428714	7.28821	20.7714	-26.9493
  41	1	2	0.160826	7.56674	21.5467	-28.945
  42	1	3	0.04557	6.48357	20.0904	-27.8635
  43	1	1	-0.463031	6.70449	20.6004	-29.1234
  44	1	4	-0.07905	9.55698	23.3968	-27.4733
  45	1	5	-0.061319	8.55397	21.1976	-23.6866
  46	1	6	0.28436	5.92244	18.7502	-27.6089
  47	1	6	-0.21175	4.6795	18.7977	-26.6946
  48	1	7	0.07562	4.94562	19.1479	-25.689
  49	1	7	0.047171	4.2255	17.8032	-26.6045
  50	1	7	0.053131	3.9252	19.4791	-27.1075
  51	1	6	-0.120715	6.95908	17.7291	-27.0824
  52	1	8	0.007856	5.58245	18.3722	-28.5817
  53	1	7	0.031711	6.5371	16.7167	-27.0834
  54	1	7	0.04419	7.26679	17.9618	-26.0555
  55	1	7	-0.003555	7.85515	17.7225	-27.7158
  56	1	9	-0.011509	8.11009	22.3669	-29.9237
  57	1	9	-0.199369	7.49117	23.6059	-30.2276
  58	1	9	-0.201771	8.06869	24.4927	-31.1614
  59	1	9	0.15189	9.25979	24.0873	-31.7681
  60	1	9	0.348083	9.85449	22.8741	-31.4914
  61	1	9	-0.230673	9.30593	21.985	-30.5711
  62	1	10	0.174789	6.57001	23.8808	-29.7178
  63	1	10	0.188672	7.62503	25.456	-31.3953
  64	1	10	0.201012	9.80253	21.0465	-30.3518
  65	1	11	-0.381547	10.0426	24.746	-32.6554
  66	1	1	-0.706002	10.9604	22.7668	-32.1633
  67	1	2	0.698504	11.0633	23.8485	-32.8594
  68	1	12	0.214303	9.26739	21.8182	-23.346
  69	1	1	-0.261357	8.93184	13.6384	-17.7011
  70	1	2	0.070556	8.98181	14.4097	-18.7424
  71	1	2	0.0266	10.1092	14.4959	-19.4684
  72	1	2	0.33777	9.95866	12.92	-17.3226
  73	1	1	-0.659679	11.0649	12.9995	-18.0042
  74	1	2	0.428714	11.1245	13.7601	-19.0491
  75	1	2	0.160826	10.5159	15.1881	-20.5478
  76	1	3	0.04557	12.1765	14.0278	-19.9289
  77	1	1	-0.463031	11.7535	14.9633	-20.8459
  78	1	4	-0.07905	7.86923	15.0691	-18.9429
  79	1	5	-0.061319	9.96612	12.1526	-16.1806
  80	1	6	0.28436	13.5911	13.9061	-19.5285
  81	1	6	-0.21175	14.0238	12.458	-19.2018
  82	1	7	0.07562	13.551	12.0975	-18.2803
  83	1	7	0.047171	15.1106	12.4015	-19.0652
  84	1	7	0.053131	13.7478	11.7781	-20.0173
  85	1	6	-0.120715	13.9674	14.8712	-18.3813
  86	1	8	0.007856	14.1801	14.2125	-20.4026
  87	1	7	0.031711	13.7088	15.9038	-18.6481
  88	1	7	0.04419	15.0452	14.8342	-18.1811
  89	1	7	-0.003555	13.4386	14.6155	-17.4544
  90	1	9	-0.011509	9.71033	16.1052	-21.2168
  91	1	9	-0.199369	8.56722	15.6779	-21.9429
  92	1	9	-0.201771	7.78763	16.5985	-22.6768
  93	1	9	0.15189	8.19444	17.9346	-22.6585
  94	1	9	0.348083	9.31052	18.3566	-21.9673
  95	1	9	-0.230673	10.098	17.4643	-21.2439
  96	1	10	0.174789	8.29973	14.6232	-21.9485
  97	1	10	0.188672	6.92491	16.2898	-23.2601
  98	1	10	0.201012	10.9987	17.8081	-20.7479
  99	1	11	-0.381547	7.70033	18.9928	-23.3443
 100	1	1	-0.706002	9.52575	19.6148	-22.2113
 101	1	2	0.698504	8.60616	19.9805	-23.0391
 102	1	12	0.214303	10.8743	11.8047	-15.9297
 103	1	1	-0.261357	3.06486	8.10378	-10.8202
 104	1	2	0.070556	4.00341	8.38101	-11.6672
 105	1	2	0.0266	4.92918	7.46014	-11.979
 106	1	2	0.33777	2.96946	6.93271	-10.2495
 107	1	1	-0.659679	3.88325	6.03454	-10.5037
 108	1	2	0.428714	4.83036	6.30285	-11.3464
 109	1	2	0.160826	5.99164	7.40328	-12.8026
 110	1	3	0.04557	5.90428	5.5403	-11.8142
 111	1	1	-0.463031	6.62706	6.28083	-12.7208
 112	1	4	-0.07905	3.92814	9.61094	-12.1083
 113	1	5	-0.061319	1.91846	6.70771	-9.38797
 114	1	6	0.28436	6.4298	4.33976	-11.1384
 115	1	6	-0.21175	5.55716	3.09204	-11.3899
 116	1	7	0.07562	4.553	3.22317	-10.9667
 117	1	7	0.047171	6.01101	2.20254	-10.9357
 118	1	7	0.053131	5.45596	2.90781	-12.4668
 119	1	6	-0.120715	6.69983	4.54067	-9.6294
 120	1	8	0.007856	7.40536	4.13459	-11.5984
 121	1	7	0.031711	7.24101	3.67956	-9.21805
 122	1	7	0.04419	5.76501	4.65163	-9.06635
 123	1	7	-0.003555	7.31259	5.43523	-9.46042
 124	1	9	-0.011509	6.33901	8.44392	-13.6588
 125	1	9	-0.199369	5.45404	8.85604	-14.6918
 126	1	9	-0.201771	5.8153	9.87627	-15.5988
 127	1	9	0.15189	7.08292	10.4424	-15.4454
 128	1	9	0.348083	7.95392	10.0311	-14.4579
 129	1	9	-0.230673	7.61893	9.02892	-13.5518
 130	1	10	0.174789	4.48383	8.37271	-14.789
 131	1	10	0.188672	5.15434	10.1999	-16.3981
 132	1	10	0.201012	8.33609	8.69841	-12.8087
 133	1	11	-0.381547	7.71381	11.3748	-16.2047
 134	1	1	-0.706002	9.08256	10.657	-14.5867
 135	1	2	0.698504	8.93984	11.4538	-15.5897
 136	1	12	0.214303	1.49128	7.542	-9.02633
 137	1	1	-0.261357	-4.03565	2.55173	-4.33227
 138	1	2	0.070556	-2.92363	2.5491	-5.00242
 139	1	2	0.0266	-1.80591	2.03912	-4.45742
 140	1	2	0.33777	-4.10979	2.08746	-3.1106
 141	1	1	-0.659679	-3.04413	1.5528	-2.58132
 142	1	2	0.428714	-1.93279	1.54005	-3.24072
 143	1	2	0.160826	-0.520071	1.90357	-4.83242
 144	1	3	0.04557	-0.66289	1.07179	-2.90275
 145	1	1	-0.463031	0.212029	1.3367	-3.93004
 146	1	4	-0.07905	-3.03303	3.06309	-6.20146
 147	1	5	-0.061319	-5.29122	2.1431	-2.40027
 148	1	6	0.28436	-0.259328	0.690027	-1.53805
 149	1	6	-0.21175	-0.921578	-0.626884	-1.0792
 150	1	7	0.07562	-2.01132	-0.517111	-1.0114
 151	1	7	0.047171	-0.546221	-0.929228	-0.0940548
 152	1	7	0.053131	-0.70135	-1.43348	-1.78958
 153	1	6	-0.120715	-0.465561	1.81418	-0.495893
 154	1	8	0.007856	0.82099	0.499862	-1.57916
 155	1	7	0.031711	0.0423585	2.7332	-0.814046
 156	1	7	0.04419	-0.0513623	1.51877	0.47587
 157	1	7	-0.003555	-1.52864	2.04268	-0.351372
 158	1	9	-0.011509	-0.016117	2.44068	-6.01231
 159	1	9	-0.199369	0.48555	1.60052	-7.04036
 160	1	9	-0.201771	1.09166	2.14763	-8.19565
 161	1	9	0.15189	1.18009	3.54162	-8.27126
 162	1	9	0.348083	0.697401	4.35763	-7.27041
 163	1	9	-0.230673	0.0988542	3.84326	-6.12619
 164	1	10	0.174789	0.426494	0.520592	-6.91947
 165	1	10	0.188672	1.50143	1.5218	-8.98335
 166	1	10	0.201012	-0.236545	4.51211	-5.34194
 167	1	11	-0.381547	1.76301	4.33246	-9.21118
 168	1	1	-0.706002	0.947491	5.59707	-7.55509
 169	1	2	0.698504	1.61729	5.58347	-8.65593
 170	1	12	0.214303	-6.07535	1.73217	-2.87441
 171	1	1	-0.261357	-4.16966	-2.21799	4.90182
 172	1	2	0.070556	-4.58079	-1.14015	4.30851
 173	1	2	0.0266	-5.62595	-0.450117	4.7985
 174	1	2	0.33777	-4.7461	-2.67728	5.98219
 175	1	1	-0.659679	-5.75784	-2.01836	6.47239
 176	1	2	0.428714	-6.17217	-0.939359	5.89589
 177	1	2	0.160826	-6.2987	0.662582	4.44559
 178	1	3	0.04557	-7.20301	-0.0586651	6.21361
 179	1	1	-0.463031	-7.26438	0.937257	5.26382
 180	1	4	-0.07905	-3.87479	-0.84893	3.2449
 181	1	5	-0.061319	-4.29402	-3.84819	6.55547
 182	1	6	0.28436	-8.16845	-0.266341	7.31101
 183	1	6	-0.21175	-7.50348	-0.483436	8.69157
 184	1	7	0.07562	-7.0141	-1.46411	8.74887
 185	1	7	0.047171	-8.25079	-0.436272	9.49289
 186	1	7	0.053131	-6.74798	0.287907	8.88503
 187	1	6	-0.120715	-9.17592	-1.3971	7.00619
 188	1	8	0.007856	-8.74727	0.662709	7.39015
 189	1	7	0.031711	-9.74601	-1.1688	6.09709
 190	1	7	0.04419	-9.88877	-1.51584	7.83164
 191	1	7	-0.003555	-8.66415	-2.35654	6.85783
 192	1	9	-0.011509	-5.935	1.35898	3.29804
 193	1	9	-0.199369	-4.99169	2.41474	3.38107
 194	1	9	-0.201771	-4.50133	3.04147	2.21422
 195	1	9	0.15189	-4.99808	2.58776	0.98894
 196	1	9	0.348083	-5.94535	1.5876	0.903047
 197	1	9	-0.230673	-6.43287	0.945985	2.04067
 198	1	10	0.174789	-4.61377	2.7154	4.35626
 199	1	10	0.188672	-3.74579	3.82099	2.2521
 200	1	10	0.201012	-7.13727	0.127611	1.94556
 201	1	11	-0.381547	-4.63477	2.93501	-0.271559
 202	1	1	-0.706002	-6.18427	1.31792	-0.34589
 203	1	2	0.698504	-5.37869	2.06112	-1.02762
 204	1	12	0.214303	-3.63508	-4.35199	5.9887
 205	1	1	-0.261357	-3.85313	-10.1606	12.6592
 206	1	2	0.070556	-4.52463	-9.31271	11.9432
 207	1	2	0.0266	-5.75296	-9.62656	11.4996
 208	1	2	0.33777	-4.32899	-11.338	12.9729
 209	1	1	-0.659679	-5.52627	-11.6526	12.5593
 210	1	2	0.428714	-6.20614	-10.8192	11.8406
 211	1	2	0.160826	-6.69305	-9.0168	10.7568
 212	1	3	0.04557	-7.48208	-10.9108	11.2767
 213	1	1	-0.463031	-7.74274	-9.749	10.5848
 214	1	4	-0.07905	-3.88553	-8.18971	11.7331
 215	1	5	-0.061319	-3.56553	-12.1935	13.7448
 216	1	6	0.28436	-8.08207	-12.1987	10.884
 217	1	6	-0.21175	-8.47678	-13.084	12.0863
 218	1	7	0.07562	-7.59071	-13.5277	12.5584
 219	1	7	0.047171	-9.13714	-13.8981	11.7631
 220	1	7	0.053131	-9.00965	-12.4945	12.8427
 221	1	6	-0.120715	-7.21477	-12.9831	9.87249
 222	1	8	0.007856	-9.01694	-11.9477	10.3661
 223	1	7	0.031711	-6.96418	-12.3527	9.00986
 224	1	7	0.04419	-7.75288	-13.8642	9.50253
 225	1	7	-0.003555	-6.27721	-13.324	10.3297
 226	1	9	-0.011509	-6.4965	-7.75297	10.2144
 227	1	9	-0.199369	-7.10528	-6.62066	10.8131
 228	1	9	-0.201771	-6.90734	-5.32649	10.2831
 229	1	9	0.15189	-6.09791	-5.22068	9.14863
 230	1	9	0.348083	-5.52068	-6.32111	8.55074
 231	1	9	-0.230673	-5.701	-7.60605	9.05583
 232	1	10	0.174789	-7.7303	-6.75622	11.6937
 233	1	10	0.188672	-7.35762	-4.44444	10.7292
 234	1	10	0.201012	-5.23364	-8.45473	8.56985
 235	1	11	-0.381547	-5.72705	-4.12056	8.44831
 236	1	1	-0.706002	-4.81879	-5.94431	7.52522
 237	1	2	0.698504	-4.96522	-4.66529	7.44077
 238	1	12	0.214303	-2.78799	-11.7595	14.2103
 239	1	1	-0.261357	-6.59575	-17.511	20.1036
 240	1	2	0.070556	-6.06198	-17.3145	18.9397
 241	1	2	0.0266	-5.11307	-18.1471	18.4819
 242	1	2	0.33777	-6.23955	-18.5063	20.8729
 243	1	1	-0.659679	-5.31383	-19.3237	20.4489
 244	1	2	0.428714	-4.78019	-19.1443	19.2834
 245	1	2	0.160826	-4.37117	-18.2301	17.3625
 246	1	3	0.04557	-3.80927	-19.8585	18.5786
 247	1	1	-0.463031	-3.56145	-19.2368	17.3759
 248	1	4	-0.07905	-6.55076	-16.2692	18.3209
 249	1	5	-0.061319	-6.83687	-18.6393	22.1084
 250	1	6	0.28436	-2.98838	-20.9517	19.1288
 251	1	6	-0.21175	-3.80654	-22.0831	19.7931
 252	1	7	0.07562	-4.18349	-21.7747	20.7769
 253	1	7	0.047171	-3.18636	-22.9767	19.9329
 254	1	7	0.053131	-4.66626	-22.3586	19.1698
 255	1	6	-0.120715	-1.87503	-20.4421	20.0694
 256	1	8	0.007856	-2.48557	-21.403	18.2637
 257	1	7	0.031711	-1.35756	-19.5819	19.626
 258	1	7	0.04419	-1.13095	-21.229	20.2448
 259	1	7	-0.003555	-2.28442	-20.1325	21.0394
 260	1	9	-0.011509	-4.48666	-17.2815	16.3537
 261	1	9	-0.199369	-5.41482	-17.4754	15.299
 262	1	9	-0.201771	-5.58865	-16.4945	14.2983
 263	1	9	0.15189	-4.80461	-15.3421	14.3936
 264	1	9	0.348083	-3.89194	-15.1529	15.4102
 265	1	9	-0.230673	-3.70437	-16.1059	16.4093
 266	1	10	0.174789	-6.01108	-18.3852	15.2742
 267	1	10	0.188672	-6.30896	-16.6107	13.4938
 268	1	10	0.201012	-2.99339	-15.9291	17.2083
 269	1	11	-0.381547	-4.80155	-14.2339	13.6134
 270	1	1	-0.706002	-3.33967	-13.9832	15.2875
 271	1	2	0.698504	-3.898	-13.4281	14.2643
 272	1	12	0.214303	-7.35159	-17.8276	22.401
 273	1	1	-0.261357	-9.24358	-23.5263	29.2864
 274	1	2	0.070556	-8.39786	-23.0088	28.4525
 275	1	2	0.0266	-7.23124	-22.5123	28.8932
 276	1	2	0.33777	-9.0139	-23.5707	30.5727
 277	1	1	-0.659679	-7.87887	-23.1034	31.0218
 278	1	2	0.428714	-7.02428	-22.5843	30.1975
 279	1	2	0.160826	-6.16442	-21.9236	28.3228
 280	1	3	0.04557	-5.75884	-22.0208	30.3907
 281	1	1	-0.463031	-5.26123	-21.5887	29.1825
 282	1	4	-0.07905	-8.81611	-23.0367	27.2122
 283	1	5	-0.061319	-9.94485	-24.1711	31.3963
 284	1	6	0.28436	-5.23491	-21.563	31.6891
 285	1	6	-0.21175	-5.06742	-22.7005	32.72
 286	1	7	0.07562	-6.04186	-23.0526	33.0813
 287	1	7	0.047171	-4.48681	-22.3554	33.5842
 288	1	7	0.053131	-4.53844	-23.5514	32.273
 289	1	6	-0.120715	-6.03495	-20.3809	32.2788
 290	1	8	0.007856	-4.22535	-21.1832	31.4843
 291	1	7	0.031711	-6.16469	-19.5911	31.528
 292	1	7	0.04419	-5.50465	-19.9472	33.1356
 293	1	7	-0.003555	-7.02896	-20.7007	32.6158
 294	1	9	-0.011509	-6.10184	-21.6856	26.9548
 295	1	9	-0.199369	-5.73976	-22.727	26.0612
 296	1	9	-0.201771	-5.69787	-22.5045	24.6667
 297	1	9	0.15189	-6.01661	-21.2202	24.2167
 298	1	9	0.348083	-6.35164	-20.2012	25.0835
 299	1	9	-0.230673	-6.40485	-20.3979	26.4612
 300	1	10	0.174789	-5.50234	-23.7117	26.4585
 301	1	10	0.188672	-5.43854	-23.291	23.964
 302	1	10	0.201012	-6.68003	-19.5831	27.1212
 303	1	11	-0.381547	-6.08847	-20.7367	22.9503
 304	1	1	-0.706002	-6.63369	-19.13	24.4074
 305	1	2	0.698504	-6.43861	-19.4246	23.1666
 306	1	12	0.214303	-10.6211	-24.7494	30.9302
 307	1	1	-0.261357	-10.7019	-25.4922	40.4244
 308	1	2	0.070556	-10.8809	-24.9014	39.2844
 309	1	2	0.0266	-12.052	-24.3031	39.0097
 310	1	2	0.33777	-11.6373	-25.5299	41.3398
 311	1	1	-0.659679	-12.7834	-24.9552	41.0967
 312	1	2	0.428714	-12.9709	-24.3659	39.9598
 313	1	2	0.160826	-12.5632	-23.6219	37.968
 314	1	3	0.04557	-14.0672	-23.6727	39.442
 315	1	1	-0.463031	-13.78	-23.2365	38.1696
 316	1	4	-0.07905	-9.84385	-24.9666	38.4875
 317	1	5	-0.061319	-11.4318	-26.1545	42.5532
 318	1	6	0.28436	-15.4216	-23.709	40.0184
 319	1	6	-0.21175	-15.5195	-22.9534	41.362
 320	1	7	0.07562	-14.901	-23.4342	42.1302
 321	1	7	0.047171	-16.5557	-22.9308	41.721
 322	1	7	0.053131	-15.177	-21.9175	41.2459
 323	1	6	-0.120715	-15.991	-25.1404	40.1351
 324	1	8	0.007856	-16.0672	-23.1739	39.3098
 325	1	7	0.031711	-15.8449	-25.6912	39.1972
 326	1	7	0.04419	-17.0671	-25.1099	40.3451
 327	1	7	-0.003555	-15.5027	-25.7012	40.9417
 328	1	9	-0.011509	-11.8291	-23.3612	36.8149
 329	1	9	-0.199369	-10.9494	-22.2488	36.7808
 330	1	9	-0.201771	-10.1976	-21.9509	35.6233
 331	1	9	0.15189	-10.3637	-22.7936	34.5221
 332	1	9	0.348083	-11.2256	-23.8706	34.5435
 333	1	9	-0.230673	-11.9799	-24.1832	35.6748
 334	1	10	0.174789	-10.8538	-21.6188	37.6627
 335	1	10	0.188672	-9.51124	-21.1103	35.5796
 336	1	10	0.201012	-12.6533	-25.0327	35.6675
 337	1	11	-0.381547	-9.74842	-22.7652	33.3132
 338	1	1	-0.706002	-11.1653	-24.4942	33.405
 339	1	2	0.698504	-10.2761	-23.8759	32.7015
 340	1	12	0.214303	-12.2067	-26.1987	43.1975
 341	1	13	0	18.4211	29.2801	-40.4113
 342	1	12	0	-10.5529	-26.6154	42.7515

Velocities

   1	2.05022e-06	-0.000530906	-0.000253361
   2	9.04039e-05	-0.000569481	-0.000278139
   3	0.000358266	-0.000425622	-8.52686e-05
   4	-2.11517e-05	-0.000243121	1.47042e-07
   5	0.000178996	1.23802e-06	0.000101372
   6	0.000253701	-0.000117815	8.96154e-05
   7	0.00041942	-0.000271805	-9.57787e-06
   8	0.000490065	0.000107609	0.000237779
   9	0.000500251	-2.24928e-05	0.000138629
  10	0.000153488	-0.000824803	-0.000521044
  11	-0.000175584	-0.000229021	2.05276e-06
  12	0.000362177	0.000197985	-0.000171982
  13	0.000866112	0.000382819	-0.0007836
  14	0.00165794	0.000329575	-0.000821679
  15	0.000578897	0.000645701	-0.0014673
  16	0.000994525	0.0003607	-0.000753232
  17	0.000278246	0.000204421	-0.000154457
  18	-7.25836e-05	0.000167551	-0.000278978
  19	0.000141608	0.000322796	-0.000429455
  20	0.000585099	0.000221518	-0.00013785
  21	0.000108259	0.000164991	7.39516e-05
  22	0.000249175	-0.000185895	-3.20987e-05
  23	0.000148183	-5.14715e-05	-9.7459e-05
  24	-0.000148503	0.000292264	-0.000246627
  25	-0.000273891	0.000586495	-0.000426876
  26	-0.000103208	0.000536586	-0.000474898
  27	0.000208895	0.000117711	-0.000306877
  28	0.000143966	-0.000163734	6.91548e-05
  29	-0.00022295	0.000384264	-0.000275203
  30	0.000150391	0.0001036	-0.000294146
  31	-0.000357483	0.000945265	-0.000544041
  32	-1.14358e-05	0.000876033	-0.000653633
  33	-0.000286473	0.00113348	-0.000636139
  34	-0.00013916	-7.19228e-05	0.000460101
  35	-0.000778161	0.000161522	0.000482557
  36	-0.000638165	0.000282623	0.000471469
  37	-0.000360366	0.000181369	0.000268763
  38	-0.000640828	-9.86624e-05	0.000253553
  39	-0.000320878	-0.000267057	4.91355e-05
  40	-0.000212191	-9.71668e-05	5.72043e-05
  41	-0.000191469	0.000222671	0.000194445
  42	0.000101925	-0.000194309	-0.000118798
  43	0.000109243	-1.13081e-05	-4.4539e-05
  44	-0.000788015	0.000513008	0.000672298
  45	-0.000843946	-0.000213246	0.000260913
  46	-0.000140764	-8.21512e-05	-9.93589e-05
  47	0.000253447	0.000146907	0.000429776
  48	0.000735953	0.000313517	0.000262715
  49	0.000233221	0.000206412	0.000845054
  50	0.00012529	0.000133319	0.000664571
  51	-0.000174693	-0.000379633	-0.00059768
  52	-0.000645055	0.000114302	-4.81878e-06
  53	-0.000545095	-0.00023894	-0.000232397
  54	0.000549186	-0.00037894	-0.00083459
  55	-0.000575458	-0.000791493	-0.00116995
  56	-0.00017489	0.000298659	0.000249962
  57	-0.000209667	0.000236902	6.22206e-05
  58	-0.000254549	8.19978e-05	-0.000127304
  59	-0.000280301	-1.4245e-05	-0.000108565
  60	-0.000235329	7.49448e-05	0.000127991
  61	-0.000185062	0.000238396	0.000298575
  62	-0.000226925	0.000310848	-2.11354e-05
  63	-0.000303666	2.8878e-05	-0.000329162
  64	-0.000199062	0.000262265	0.000447096
  65	-0.000356122	-0.000197973	-0.000311583
  66	-0.000254886	-3.48371e-05	0.000128054
  67	-0.000309485	-0.000182125	-0.000119471
  68	-0.00119723	4.76963e-05	0.000458893
  69	0.000495776	0.00046041	0.000513539
  70	0.00040836	0.000184254	0.000354722
  71	0.000339916	0.000109531	0.000238089
  72	0.000549989	0.000594313	0.000680377
  73	0.000527167	0.000509638	0.000582206
  74	0.000427911	0.000229854	0.000379264
  75	0.000215904	-0.00010681	9.77134e-05
  76	0.000310628	0.000152352	0.000164549
  77	0.000187873	-6.97779e-05	8.10695e-06
  78	0.00033635	7.55398e-05	0.000264102
  79	0.000455104	0.0009372	0.000930455
  80	0.00038803	0.000192875	-0.000150004
  81	0.000511286	0.000104927	-0.000775394
  82	0.000669227	-0.000246323	-0.000861989
  83	0.000555982	8.4438e-05	-0.00104603
  84	0.00038019	0.000434284	-0.00102595
  85	0.000505002	-0.000141663	8.87611e-05
  86	0.000212902	0.000565052	-0.000156358
  87	0.000513049	-6.28863e-05	0.000412961
  88	0.000532528	-0.000217037	1.17926e-05
  89	0.000576401	-0.000412448	4.99717e-05
  90	0.000154474	-0.000202815	-4.65598e-07
  91	6.02573e-05	-0.000312269	0.000233219
  92	-6.21002e-05	-0.000410999	0.00023004
  93	-4.22025e-05	-0.0004147	-4.10621e-05
  94	5.78359e-05	-0.000319387	-0.000265714
  95	0.00015658	-0.000215985	-0.000235986
  96	2.84408e-05	-0.000314305	0.000484712
  97	-0.000220983	-0.000503269	0.000510773
  98	0.000194773	-0.000132443	-0.000364505
  99	-0.000277778	-0.000452563	5.97092e-05
 100	-0.000114507	-0.000294725	-0.000271348
 101	-0.000314713	-0.00036766	-8.16329e-05
 102	0.000582113	0.00166843	0.00153402
 103	-0.000682298	-0.000276674	-0.000819921
 104	-0.000561942	-0.000307189	-0.000987936
 105	-0.000553694	-0.000161625	-0.000570897
 106	-0.000394696	-9.82444e-05	-0.000543596
 107	-0.00039893	-2.70054e-05	-0.00034359
 108	-0.00031125	-4.90055e-05	-0.000516857
 109	-0.000133624	-0.00014556	-0.000478674
 110	-0.000240768	-1.45426e-05	-6.64355e-05
 111	-9.78024e-05	-3.6557e-05	-5.5384e-05
 112	-0.000804584	-0.000398905	-0.0012078
 113	-0.000140574	-1.02236e-05	-1.15492e-05
 114	-0.000559927	-7.00545e-05	8.16403e-05
 115	-0.00108326	0.000180906	0.000576356
 116	-0.000742506	0.000385794	0.00141782
 117	-0.000989649	2.45118e-05	0.000156568
 118	-0.00201985	0.00033279	0.000656491
 119	-0.000402138	0.000141915	3.9343e-05
 120	-0.000722422	-0.000552307	4.17542e-06
 121	-0.00077684	-6.17519e-06	0.000197255
 122	-0.000338707	0.000651758	6.54377e-05
 123	-4.04387e-05	-7.73572e-05	-0.000161434
 124	6.76351e-05	-0.000154922	-0.000391828
 125	0.00037062	-7.05021e-05	-0.000633406
 126	0.000635739	-0.000109399	-0.000571588
 127	0.000640376	-0.000165155	-0.000336677
 128	0.000393264	-0.000231936	-0.000142954
 129	0.000123215	-0.000167882	-0.000190234
 130	0.000358286	7.54656e-06	-0.000878804
 131	0.000842468	-3.83157e-05	-0.000714878
 132	-8.67796e-05	-0.000133116	2.04238e-05
 133	0.000742856	-1.94709e-05	-8.45504e-05
 134	0.000386713	-1.9128e-05	0.000204267
 135	0.000586086	6.56466e-05	0.000229504
 136	-4.74269e-05	4.15787e-05	-5.59549e-05
 137	0.000304149	0.000267913	0.000332543
 138	-6.86258e-05	0.000390351	0.000757012
 139	0.000469187	3.32503e-05	0.000371841
 140	-0.000208342	-0.000210532	0.000388046
 141	1.53539e-05	-0.000602937	0.000128308
 142	-0.000373247	-0.000464953	0.000560636
 143	-0.00016118	6.78815e-05	0.000648587
 144	-0.000136508	-0.000851215	0.000136657
 145	-8.62309e-05	-0.000497613	0.000421649
 146	0.000344612	0.000827904	0.000770498
 147	-0.000130555	-0.000267033	-2.97538e-05
 148	-0.000115203	-0.000555716	0.000263796
 149	-0.000210203	-0.000313825	0.000782903
 150	-0.000114367	0.000105774	0.00179742
 151	0.000562216	-0.000484135	0.00046432
 152	-0.00118728	-0.000416954	0.000608457
 153	0.000222026	-0.00020005	-8.64362e-05
 154	-0.00013765	-0.000763473	0.000127553
 155	-0.000283938	-0.000177914	-0.000831932
 156	0.000972274	0.000336059	-0.000241066
 157	0.000241804	-0.000487771	0.00049441
 158	0.000146575	0.00023171	0.00055864
 159	-0.000160849	0.000194509	0.000560418
 160	-0.000176696	0.000141978	0.000492029
 161	3.06342e-05	0.000115635	0.000527803
 162	0.000258134	0.000194207	0.000555768
 163	0.000246921	0.000215158	0.000662958
 164	-0.000387938	0.000202181	0.0004881
 165	-0.000411648	0.000133915	0.00040343
 166	0.000348009	0.000264622	0.000666727
 167	-6.42681e-05	2.71342e-05	0.000378386
 168	0.000292716	0.000163006	0.000423559
 169	0.000119041	9.15492e-05	0.000269028
 170	0.000129303	-0.00103804	0.000122074
 171	-0.000336299	-0.000369306	-0.000393806
 172	-0.000203128	-0.000387616	-0.000390116
 173	-5.2006e-05	-0.000145681	-0.00026818
 174	-0.000229637	-0.000213019	-0.000244072
 175	-0.000118444	-5.21864e-05	-0.000165268
 176	-2.33648e-05	-3.67242e-05	-0.000199265
 177	0.000209044	-5.4757e-05	-0.000211838
 178	0.000169622	0.000271946	-0.000202347
 179	0.00029847	0.000231289	-0.000206481
 180	-0.000317488	-0.000538851	-0.000492221
 181	-4.18685e-05	-0.00012664	-0.000278873
 182	-0.000128423	0.00048487	-0.000482015
 183	-0.000407469	0.00107649	-0.000285683
 184	0.000337329	0.00149461	-0.000108702
 185	-0.000690155	0.000615986	-0.000518644
 186	-0.00106303	0.00171896	-0.000181847
 187	8.57012e-05	0.000326475	-0.000522985
 188	-0.000270276	0.000462114	-0.00102249
 189	0.00138374	-0.000634185	-0.00160557
 190	-0.00108627	0.00149563	-0.00138728
 191	0.000144366	7.53612e-05	0.0012973
 192	0.000170106	-3.101e-05	-0.00015202
 193	0.00019986	-6.48412e-05	-0.000156593
 194	1.03739e-05	6.50791e-05	-0.000153809
 195	-0.000246289	0.00021762	-0.000110764
 196	-0.000225765	0.000188422	-4.10231e-05
 197	-1.21201e-05	4.77646e-05	-8.02369e-05
 198	0.000374204	-0.000214697	-0.000179799
 199	6.47237e-05	1.39013e-05	-0.000203892
 200	3.98238e-05	-4.04662e-06	-5.52413e-05
 201	-0.000356874	0.000225482	-0.000130008
 202	-0.000292482	0.000132158	-4.2252e-06
 203	-0.000380595	0.000128463	6.03749e-06
 204	-0.000446917	-0.000282096	-0.000619857
 205	-0.000188253	-3.88766e-05	0.00011354
 206	-0.000139904	9.28768e-05	0.000270103
 207	-0.000158551	-3.2732e-05	-4.11804e-05
 208	-3.91015e-05	-0.000186724	-0.000303346
 209	-2.79309e-05	-0.000189103	-0.000406482
 210	6.30975e-06	-7.213e-05	-0.000232146
 211	4.30011e-05	-2.66362e-05	-0.000144923
 212	3.34829e-05	-0.000122073	-0.000342919
 213	8.84355e-05	-0.00017318	-0.000432563
 214	-0.000298348	0.000170326	0.000693469
 215	-1.96334e-05	-0.000479992	-0.000754327
 216	-0.000116521	-0.000242917	0.000245672
 217	0.000560727	-6.87601e-05	0.00062628
 218	0.00107357	0.00272358	0.00234895
 219	0.00320843	-0.00220261	0.000634055
 220	-0.00203503	-0.000675938	-0.000718974
 221	-0.000494507	-0.000399205	5.98634e-05
 222	-0.000394692	-0.000497802	0.000638375
 223	-0.000964056	-0.000590475	-0.000199435
 224	-0.00063284	-0.000523085	0.000507061
 225	-0.000278722	-0.000252203	-0.000300603
 226	0.000219004	-2.15547e-05	1.37747e-07
 227	0.000296592	-9.16348e-06	4.76914e-05
 228	0.000564057	2.97579e-05	0.000249709
 229	0.000779575	7.06651e-05	0.000401942
 230	0.000768798	6.03745e-05	0.000402797
 231	0.000506165	2.34346e-05	0.000189703
 232	9.83361e-05	-5.96548e-05	-0.00010269
 233	0.000509922	2.064e-05	0.000208463
 234	0.00046652	2.51853e-05	0.000136514
 235	0.000637278	5.77034e-05	0.000294708
 236	0.000626033	2.97461e-05	0.000301046
 237	0.000467616	-4.48374e-06	0.000202852
 238	-0.000142253	-0.000549046	-0.00051469
 239	0.000478016	0.000419489	3.85336e-05
 240	0.000450366	0.000375279	0.000214215
 241	0.000279948	0.000170714	-0.000130093
 242	0.000104511	0.000125411	1.3561e-07
 243	-7.04464e-05	-3.86041e-05	-0.000235549
 244	-4.1079e-05	-5.96442e-05	-4.3053e-05
 245	6.70747e-05	4.48705e-05	-7.59437e-06
 246	-0.000138496	-0.000163662	-0.000260129
 247	-8.45179e-05	-0.000130096	-0.000189351
 248	0.000891772	0.000725218	0.00033923
 249	0.0001158	0.00024977	-5.71458e-05
 250	5.03948e-05	3.89384e-05	-4.64412e-05
 251	0.000135064	-0.00018407	-0.000369719
 252	-0.00252726	0.000593413	-0.00164984
 253	0.00110452	0.00088608	0.00229136
 254	0.00199712	-0.00226563	-0.00203943
 255	-0.000462475	0.000235625	0.000417807
 256	0.000565491	0.000164945	0.000178214
 257	0.00208477	-0.00207245	-0.00109565
 258	-0.0024255	-0.000868587	0.00384074
 259	-0.00149614	0.00372499	-0.00109995
 260	-8.30333e-05	5.5445e-06	-0.000111065
 261	0.000108535	-0.000358574	-0.000191948
 262	-7.55198e-05	-0.000470649	-0.000297866
 263	-0.000426004	-0.000229133	-0.000251928
 264	-0.000703496	0.00011601	-6.41549e-05
 265	-0.000545128	0.000256221	2.02765e-05
 266	0.000459984	-0.000595686	-0.000263009
 267	0.00016204	-0.000860934	-0.000471545
 268	-0.000767153	0.00060686	0.000121542
 269	-0.000260787	-0.000407485	-0.000541141
 270	-0.000764661	9.79649e-05	-0.000156439
 271	-0.000463312	-0.000211695	-0.000461988
 272	0.000972392	0.000715667	0.000206418
 273	-0.000159791	0.000122323	-0.000179924
 274	1.47959e-05	-1.82517e-05	-5.15451e-05
 275	-5.3605e-05	-0.000196447	-0.000228177
 276	-0.000175503	9.62312e-05	-9.40248e-05
 277	-7.88248e-05	-0.000152472	-0.000207628
 278	3.93317e-06	-0.000265661	-3.2508e-05
 279	0.000157238	-0.000221115	2.66114e-06
 280	-3.55449e-05	-0.000371111	7.06919e-05
 281	4.11264e-05	-0.000341739	7.12096e-05
 282	-4.65426e-05	5.14342e-05	-0.000206785
 283	-0.000356828	0.000566769	2.48317e-05
 284	-0.000415755	-0.00029929	0.000281588
 285	-0.000435208	-0.000250272	0.000377226
 286	-0.000475554	-0.00149416	-0.000919081
 287	-0.002062	0.000354123	0.00123086
 288	0.00123098	0.000452183	0.00103902
 289	-0.000802933	-0.000552165	0.000266717
 290	-0.000463519	-6.40273e-05	0.000638056