pySIMM System Object

1566 atoms
1749 bonds
2898 angles
4412 dihedrals
184 impropers

13 atom types
18 bond types
33 angle types
13 dihedral types
2 improper types

-178.298066 178.298066 xlo xhi
-178.298066 178.298066 ylo yhi
-178.298066 178.298066 zlo zhi

Masses

   1	14.01	# n2
   2	12.01	# c2
   3	14.01	# na
   4	12.01	# c1
   5	14.01	# nh
   6	12.01	# c3
   7	1.008	# hc
   8	1.008	# h1
   9	12.01	# ca
  10	1.008	# ha
  11	16.0	# os
  12	1.008	# hn
  13	1.008	# h5

Pair Coeffs

   1	0.17	3.249998523775958	# n2
   2	0.086	3.3996695084235347	# c2
   3	0.17	3.249998523775958	# na
   4	0.21	3.3996695084235347	# c1
   5	0.17	3.249998523775958	# nh
   6	0.1094	3.3996695084235347	# c3
   7	0.0157	2.649532787749369	# hc
   8	0.0157	2.471353044121301	# h1
   9	0.086	3.3996695084235347	# ca
  10	0.015	2.59964245953351	# ha
  11	0.17	3.0000123434657784	# os
  12	0.0157	1.069078461768407	# hn
  13	0.015	2.421462715905442	# h5

Bond Coeffs

   1	300.9	1.5375	# c3,c3
   2	416.2	1.3872	# c2,nh
   3	330.6	1.0969	# c3,hc
   4	397.4	1.4015	# c2,na
   5	345.8	1.086	# ca,ha
   6	625.0	1.307	# c1,c2
   7	330.6	1.0969	# c3,h1
   8	404.6	1.0121	# hn,nh
   9	376.6	1.3696	# ca,os
  10	505.3	1.3676	# n2,na
  11	327.7	1.4629	# c3,na
  12	338.4	1.0912	# c2,h5
  13	569.4	1.3343	# c2,c2
  14	551.6	1.303	# ca,n2
  15	389.2	1.3596	# c2,os
  16	594.1	1.2817	# c2,n2
  17	461.1	1.3984	# ca,ca
  18	482.1	1.3846	# c2,ca

Angle Coeffs

   1	39.4	107.58	# hc,c3,hc
   2	52.26	121.7	# h5,c2,n2
   3	70.06	121.62	# c1,c2,c2
   4	69.58	119.2	# ca,ca,os
   5	78.34	113.82	# n2,c2,n2
   6	70.52	117.58	# c2,n2,na
   7	46.39	109.56	# c3,c3,h1
   8	71.15	126.01	# c2,c2,n2
   9	62.86	111.51	# c3,c3,c3
  10	49.83	108.78	# h1,c3,na
  11	70.0	119.94	# c2,n2,ca
  12	65.52	112.88	# c3,c3,na
  13	69.36	117.0	# c2,c2,ca
  14	71.79	124.27	# n2,c2,nh
  15	46.34	109.8	# c3,c3,hc
  16	65.56	125.0	# c2,na,n2
  17	74.41	119.78	# n2,c2,os
  18	70.62	119.57	# ca,ca,n2
  19	48.18	119.88	# ca,ca,ha
  20	69.14	121.94	# c2,c2,na
  21	71.53	123.62	# n2,c2,na
  22	66.78	120.6	# c2,ca,ca
  23	69.3	121.81	# c2,c2,c2
  24	64.17	118.2	# c2,os,ca
  25	40.07	115.12	# hn,nh,hn
  26	48.59	115.09	# c2,nh,hn
  27	52.71	110.95	# h5,c2,os
  28	65.54	119.24	# c3,na,n2
  29	66.62	120.02	# ca,ca,ca
  30	71.11	118.18	# c2,n2,c2
  31	63.85	117.2	# c2,na,c3
  32	63.96	124.73	# c2,nh,c2
  33	73.36	114.3	# nh,c2,os

Dihedral Coeffs

   1	1	6.65	2	180	# X,c2,c2,X
   2	1	3.625	2	180	# X,ca,ca,X
   3	1	1.7	2	180	# X,n2,na,X
   4	1	0.7	2	180	# X,c2,ca,X
   5	1	0.15555555555555556	3	0	# X,c3,c3,X
   6	1	1.05	2	180	# X,c2,os,X
   7	1	0.0	3	180	# X,ca,n2,X
   8	1	4.15	2	180	# X,c2,n2,X
   9	1	0.9	2	180	# X,ca,os,X
  10	1	0.625	2	180	# X,c2,na,X
  11	1	0.0	2	0	# X,c3,na,X
  12	1	0.16	3	0	# hc,c3,c3,c3
  13	1	0.675	2	180	# X,c2,nh,X

Improper Coeffs

   1	1.1	-1	2	# ca,X,X,ha
   2	1.1	-1	2	# ca,ca,ca,c2

Atoms

   1	1	1	-0.261357	6.46218	45.6662	-4.52293
   2	1	2	0.070556	5.65875	45.1553	-3.64373
   3	1	2	0.0266	6.07812	44.9362	-2.38686
   4	1	2	0.33777	7.69761	45.9782	-4.2301
   5	1	1	-0.659679	8.14397	45.7399	-3.02729
   6	1	2	0.428714	7.33782	45.2508	-2.13829
   7	1	2	0.160826	5.5385	44.4364	-1.25886
   8	1	3	0.04557	7.53823	44.9365	-0.794696
   9	1	1	-0.463031	6.3826	44.3932	-0.278093
  10	1	4	-0.07905	4.47568	44.8892	-4.13525
  11	1	5	-0.061319	8.53648	46.5619	-5.15029
  12	1	6	0.28436	8.88686	44.7496	-0.230745
  13	1	6	-0.21175	9.41469	43.3169	-0.464311
  14	1	7	0.07562	9.41592	43.0765	-1.53453
  15	1	7	0.047171	8.78663	42.5799	0.0525552
  16	1	7	0.053131	10.4418	43.2158	-0.0924472
  17	1	6	-0.120715	8.96219	45.1154	1.26823
  18	1	8	0.007856	9.56028	45.4373	-0.758314
  19	1	7	0.031711	8.30529	44.4711	1.86643
  20	1	7	0.04419	8.66123	46.1569	1.42728
  21	1	7	-0.003555	9.98685	45.0042	1.64473
  22	1	9	-0.011509	4.22308	43.9851	-1.18059
  23	1	9	-0.199369	3.14025	44.8901	-1.31896
  24	1	9	-0.201771	1.80456	44.463	-1.15306
  25	1	9	0.15189	1.59721	43.1185	-0.831147
  26	1	9	0.348083	2.64397	42.2271	-0.711784
  27	1	9	-0.230673	3.96895	42.6285	-0.878635
  28	1	10	0.174789	3.34434	45.9366	-1.53303
  29	1	10	0.188672	0.972404	45.1534	-1.2393
  30	1	10	0.201012	4.77346	41.9173	-0.740943
  31	1	11	-0.381547	0.440392	42.4579	-0.559766
  32	1	1	-0.706002	2.1862	41.0518	-0.401215
  33	1	2	0.698504	0.907208	41.1969	-0.277686
  34	1	12	0.214303	9.4911	46.3097	-4.96506
  35	1	1	-0.261357	8.60815	54.7003	-1.39399
  36	1	2	0.070556	8.56463	53.8567	-2.38026
  37	1	2	0.0266	9.18132	54.1379	-3.54165
  38	1	2	0.33777	9.234	55.8452	-1.49308
  39	1	1	-0.659679	9.872	56.1186	-2.59619
  40	1	2	0.428714	9.83424	55.2859	-3.58452
  41	1	2	0.160826	9.33415	53.5247	-4.73128
  42	1	3	0.04557	10.4009	55.3457	-4.85832
  43	1	1	-0.463031	10.0826	54.1955	-5.54519
  44	1	4	-0.07905	7.90568	52.7619	-2.09482
  45	1	5	-0.061319	9.26213	56.7519	-0.45796
  46	1	6	0.28436	11.5541	56.2039	-5.18995
  47	1	6	-0.21175	12.7973	55.9077	-4.32145
  48	1	7	0.07562	12.6134	56.1614	-3.27124
  49	1	7	0.047171	13.6586	56.4909	-4.6663
  50	1	7	0.053131	13.0619	54.8447	-4.37635
  51	1	6	-0.120715	11.2139	57.7115	-5.17865
  52	1	8	0.007856	11.8291	55.9574	-6.2236
  53	1	7	0.031711	11.0094	58.0695	-4.16204
  54	1	7	0.04419	10.3296	57.912	-5.7961
  55	1	7	-0.003555	12.0471	58.2988	-5.58406
  56	1	9	-0.011509	8.74937	52.2939	-5.01547
  57	1	9	-0.199369	7.34576	52.19	-5.20183
  58	1	9	-0.201771	6.73363	50.939	-5.43802
  59	1	9	0.15189	7.56917	49.8212	-5.50146
  60	1	9	0.348083	8.93722	49.9219	-5.35537
  61	1	9	-0.230673	9.56152	51.1435	-5.11099
  62	1	10	0.174789	6.72987	53.0838	-5.12606
  63	1	10	0.188672	5.65656	50.8314	-5.52649
  64	1	10	0.201012	10.6349	51.1975	-4.96287
  65	1	11	-0.381547	7.24827	48.5036	-5.58325
  66	1	1	-0.706002	9.45548	48.7312	-5.29987
  67	1	2	0.698504	8.4744	47.9038	-5.44573
  68	1	12	0.214303	10.1897	56.7846	-0.0637892
  69	1	1	-0.261357	6.50221	66.1196	0.0302607
  70	1	2	0.070556	6.79436	64.898	-0.308928
  71	1	2	0.0266	7.60415	64.6589	-1.3552
  72	1	2	0.33777	6.98917	67.1539	-0.609961
  73	1	1	-0.659679	7.74638	66.9358	-1.64865
  74	1	2	0.428714	8.04789	65.7284	-1.98919
  75	1	2	0.160826	8.1267	63.5751	-1.96344
  76	1	3	0.04557	8.85423	65.2503	-3.0151
  77	1	1	-0.463031	8.90788	63.8771	-2.94917
  78	1	4	-0.07905	6.25718	63.9947	0.470921
  79	1	5	-0.061319	6.69317	68.4491	-0.222133
  80	1	6	0.28436	9.79326	66.1253	-3.73514
  81	1	6	-0.21175	10.0977	65.6273	-5.16319
  82	1	7	0.07562	10.7297	66.3478	-5.69555
  83	1	7	0.047171	9.16976	65.5012	-5.73395
  84	1	7	0.053131	10.6168	64.6623	-5.13648
  85	1	6	-0.120715	11.0961	66.3725	-2.94244
  86	1	8	0.007856	9.29027	67.0924	-3.84367
  87	1	7	0.031711	11.6263	65.4321	-2.75334
  88	1	7	0.04419	10.8738	66.8393	-1.97461
  89	1	7	-0.003555	11.7708	67.0408	-3.49173
  90	1	9	-0.011509	7.87099	62.2598	-1.58199
  91	1	9	-0.199369	6.56922	61.7127	-1.72712
  92	1	9	-0.201771	6.32303	60.3451	-1.4787
  93	1	9	0.15189	7.4105	59.5611	-1.08534
  94	1	9	0.348083	8.6788	60.0842	-0.928459
  95	1	9	-0.230673	8.94643	61.4289	-1.18791
  96	1	10	0.174789	5.7574	62.3487	-2.07407
  97	1	10	0.188672	5.34112	59.9024	-1.61955
  98	1	10	0.201012	9.96061	61.8102	-1.13554
  99	1	11	-0.381547	7.47454	58.2205	-0.887778
 100	1	1	-0.706002	9.51072	59.1284	-0.628363
 101	1	2	0.698504	8.81053	58.0391	-0.636392
 102	1	12	0.214303	5.70904	68.6192	-0.120979
 103	1	1	-0.261357	12.2006	69.1033	-5.76108
 104	1	2	0.070556	11.4545	69.8681	-5.03017
 105	1	2	0.0266	11.9236	71.0403	-4.57498
 106	1	2	0.33777	13.4268	69.4293	-6.08221
 107	1	1	-0.659679	13.8909	70.5853	-5.68903
 108	1	2	0.428714	13.1465	71.3581	-4.95871
 109	1	2	0.160826	11.4491	72.0173	-3.77775
 110	1	3	0.04557	13.3996	72.5939	-4.36589
 111	1	1	-0.463031	12.2922	72.9879	-3.64378
 112	1	4	-0.07905	10.2592	69.3735	-4.83665
 113	1	5	-0.061319	14.2688	68.545	-6.72563
 114	1	6	0.28436	14.4274	73.5081	-4.89186
 115	1	6	-0.21175	15.0196	74.4207	-3.79543
 116	1	7	0.07562	15.8309	75.038	-4.19952
 117	1	7	0.047171	15.4255	73.82	-2.97202
 118	1	7	0.053131	14.2514	75.0884	-3.38461
 119	1	6	-0.120715	13.9037	74.3481	-6.07774
 120	1	8	0.007856	15.2515	72.8894	-5.26912
 121	1	7	0.031711	13.0809	75.0018	-5.76115
 122	1	7	0.04419	13.5331	73.6963	-6.87889
 123	1	7	-0.003555	14.7013	74.9759	-6.4946
 124	1	9	-0.011509	10.2332	71.8425	-3.12393
 125	1	9	-0.199369	9.03203	72.3864	-3.64595
 126	1	9	-0.201771	7.77802	72.0234	-3.1001
 127	1	9	0.15189	7.77862	71.1391	-2.01428
 128	1	9	0.348083	8.95116	70.6612	-1.46568
 129	1	9	-0.230673	10.193	70.9813	-2.00482
 130	1	10	0.174789	9.07645	73.0304	-4.52179
 131	1	10	0.188672	6.84371	72.3562	-3.54252
 132	1	10	0.201012	11.0858	70.5001	-1.62152
 133	1	11	-0.381547	6.74238	70.4507	-1.45792
 134	1	1	-0.706002	8.68244	69.7201	-0.617101
 135	1	2	0.698504	7.40264	69.5551	-0.650042
 136	1	12	0.214303	15.2312	68.8045	-6.5993
 137	1	1	-0.261357	12.3913	60.8649	-2.4619
 138	1	2	0.070556	12.7133	61.5729	-3.50004
 139	1	2	0.0266	13.5953	61.101	-4.395
 140	1	2	0.33777	12.9049	59.6828	-2.23716
 141	1	1	-0.659679	13.7556	59.201	-3.10332
 142	1	2	0.428714	14.082	59.9001	-4.14144
 143	1	2	0.160826	14.1515	61.5537	-5.53495
 144	1	3	0.04557	14.9523	59.6267	-5.19294
 145	1	1	-0.463031	14.9963	60.714	-6.03914
 146	1	4	-0.07905	12.1144	62.7343	-3.54248
 147	1	5	-0.061319	12.5158	58.9785	-1.11405
 148	1	6	0.28436	15.9913	58.587	-5.0912
 149	1	6	-0.21175	17.321	59.1442	-4.53759
 150	1	7	0.07562	18.0608	58.3431	-4.42103
 151	1	7	0.047171	17.1645	59.6077	-3.55545
 152	1	7	0.053131	17.7369	59.9031	-5.21249
 153	1	6	-0.120715	16.2169	57.8538	-6.43131
 154	1	8	0.007856	15.6355	57.8343	-4.37661
 155	1	7	0.031711	15.2731	57.438	-6.80599
 156	1	7	0.04419	16.9257	57.026	-6.3066
 157	1	7	-0.003555	16.6167	58.5353	-7.19308
 158	1	9	-0.011509	13.8394	62.8061	-6.05771
 159	1	9	-0.199369	12.6865	62.9676	-6.86866
 160	1	9	-0.201771	12.3322	64.2334	-7.38602
 161	1	9	0.15189	13.1668	65.3095	-7.07086
 162	1	9	0.348083	14.3044	65.1559	-6.30489
 163	1	9	-0.230673	14.6693	63.9164	-5.77773
 164	1	10	0.174789	12.0578	62.1042	-7.07784
 165	1	10	0.188672	11.436	64.3811	-7.98184
 166	1	10	0.201012	15.5551	63.824	-5.16005
 167	1	11	-0.381547	13.0243	66.6297	-7.36108
 168	1	1	-0.706002	14.8671	66.3147	-6.12803
 169	1	2	0.698504	14.1031	67.1761	-6.71016
 170	1	12	0.214303	11.6009	59.2381	-0.774752
 171	1	1	-0.261357	10.9623	50.7627	-2.22858
 172	1	2	0.070556	11.7125	51.6326	-1.63004
 173	1	2	0.0266	12.0655	51.45	-0.346806
 174	1	2	0.33777	10.5124	49.6978	-1.61801
 175	1	1	-0.659679	10.8763	49.4817	-0.383901
 176	1	2	0.428714	11.6309	50.3401	0.220306
 177	1	2	0.160826	12.7568	52.1513	0.568986
 178	1	3	0.04557	12.1011	50.3801	1.53089
 179	1	1	-0.463031	12.7813	51.5653	1.72105
 180	1	4	-0.07905	12.0283	52.6469	-2.39527
 181	1	5	-0.061319	9.59706	48.8851	-2.24631
 182	1	6	0.28436	11.3981	49.6434	2.59706
 183	1	6	-0.21175	10.0833	50.3374	3.01879
 184	1	7	0.07562	10.2862	51.3327	3.43361
 185	1	7	0.047171	9.55615	49.7471	3.77814
 186	1	7	0.053131	9.41355	50.4554	2.15741
 187	1	6	-0.120715	12.2944	49.3779	3.82671
 188	1	8	0.007856	11.1299	48.6615	2.18624
 189	1	7	0.031711	13.2164	48.8637	3.52798
 190	1	7	0.04419	11.7739	48.7444	4.55537
 191	1	7	-0.003555	12.5712	50.3154	4.32574
 192	1	9	-0.011509	13.2324	53.4196	0.262013
 193	1	9	-0.199369	14.5178	53.5956	-0.310992
 194	1	9	-0.201771	14.9413	54.8681	-0.756984
 195	1	9	0.15189	14.0515	55.9332	-0.586788
 196	1	9	0.348083	12.8176	55.7697	0.00598597
 197	1	9	-0.230673	12.37	54.5234	0.433037
 198	1	10	0.174789	15.1634	52.7304	-0.448248
 199	1	10	0.188672	15.8978	55.018	-1.24926
 200	1	10	0.201012	11.3709	54.4035	0.835921
 201	1	11	-0.381547	14.1297	57.2087	-1.04412
 202	1	1	-0.706002	12.1469	56.8782	-0.0659323
 203	1	2	0.698504	12.8832	57.7031	-0.734438
 204	1	12	0.214303	9.5348	49.0899	-3.23064
 205	1	1	-0.261357	1.28088	50.5047	2.36666
 206	1	2	0.070556	2.25896	50.0309	1.65877
 207	1	2	0.0266	2.01719	49.3415	0.529604
 208	1	2	0.33777	0.0299076	50.3306	2.02799
 209	1	1	-0.659679	-0.224037	49.7214	0.902604
 210	1	2	0.428714	0.742451	49.2359	0.195912
 211	1	2	0.160826	2.74852	48.7044	-0.409997
 212	1	3	0.04557	0.733434	48.5121	-0.994072
 213	1	1	-0.463031	2.02265	48.2094	-1.3605
 214	1	4	-0.07905	3.42255	50.3379	2.17189
 215	1	5	-0.061319	-0.974669	50.7555	2.87882
 216	1	6	0.28436	-0.461046	48.2885	-1.82682
 217	1	6	-0.21175	-1.08643	49.6012	-2.34906
 218	1	7	0.07562	-1.89634	49.3885	-3.05715
 219	1	7	0.047171	-0.332815	50.2076	-2.86691
 220	1	7	0.053131	-1.50123	50.1979	-1.52693
 221	1	6	-0.120715	-1.52143	47.4035	-1.13306
 222	1	8	0.007856	-0.119364	47.7322	-2.70919
 223	1	7	0.031711	-2.34783	47.1803	-1.81898
 224	1	7	0.04419	-1.93984	47.9007	-0.249242
 225	1	7	-0.003555	-1.08347	46.45	-0.814282
 226	1	9	-0.011509	4.13497	48.5491	-0.358721
 227	1	9	-0.199369	4.75481	47.9879	0.787784
 228	1	9	-0.201771	6.14955	47.8024	0.856868
 229	1	9	0.15189	6.89118	48.1638	-0.267702
 230	1	9	0.348083	6.30074	48.6649	-1.40889
 231	1	9	-0.230673	4.92358	48.869	-1.48964
 232	1	10	0.174789	4.14556	47.7308	1.64713
 233	1	10	0.188672	6.63353	47.4171	1.74928
 234	1	10	0.201012	4.48423	49.2719	-2.39539
 235	1	11	-0.381547	8.23138	48.1261	-0.461409
 236	1	1	-0.706002	7.21903	48.9373	-2.28554
 237	1	2	0.698504	8.34558	48.6512	-1.72525
 238	1	12	0.214303	-0.612473	51.1226	3.74291
 239	1	1	-0.261357	-7.45632	44.2549	5.72484
 240	1	2	0.070556	-6.81722	45.3127	5.34216
 241	1	2	0.0266	-7.3459	46.531	5.53691
 242	1	2	0.33777	-8.63607	44.3148	6.28738
 243	1	1	-0.659679	-9.15033	45.49	6.53836
 244	1	2	0.428714	-8.50848	46.5542	6.16793
 245	1	2	0.160826	-6.99368	47.7994	5.24355
 246	1	3	0.04557	-8.82901	47.9058	6.27304
 247	1	1	-0.463031	-7.83808	48.668	5.69569
 248	1	4	-0.07905	-5.6489	45.0305	4.82442
 249	1	5	-0.061319	-9.32273	43.1734	6.6501
 250	1	6	0.28436	-9.9109	48.4139	7.13186
 251	1	6	-0.21175	-10.7602	49.4886	6.41848
 252	1	7	0.07562	-11.1588	49.0981	5.47394
 253	1	7	0.047171	-10.1568	50.3768	6.1911
 254	1	7	0.053131	-11.6063	49.7979	7.04431
 255	1	6	-0.120715	-9.37914	48.9477	8.47964
 256	1	8	0.007856	-10.5808	47.5741	7.35543
 257	1	7	0.031711	-10.2046	49.286	9.11802
 258	1	7	0.04419	-8.69644	49.7925	8.32284
 259	1	7	-0.003555	-8.83424	48.1649	9.01997
 260	1	9	-0.011509	-5.90538	48.1232	4.43285
 261	1	9	-0.199369	-5.81478	47.568	3.12721
 262	1	9	-0.201771	-4.75418	47.8998	2.26088
 263	1	9	0.15189	-3.82702	48.8304	2.72656
 264	1	9	0.348083	-3.92963	49.421	3.96707
 265	1	9	-0.230673	-4.95816	49.0888	4.85025
 266	1	10	0.174789	-6.5706	46.8609	2.79017
 267	1	10	0.188672	-4.65634	47.4604	1.27231
 268	1	10	0.201012	-5.02106	49.5703	5.81863
 269	1	11	-0.381547	-2.72338	49.3166	2.11604
 270	1	1	-0.706002	-2.93577	50.2441	4.13339
 271	1	2	0.698504	-2.21933	50.1784	3.05893
 272	1	12	0.214303	-10.0365	43.2925	7.34497
 273	1	1	-0.261357	-4.37791	37.7374	2.53122
 274	1	2	0.070556	-5.5328	37.9555	3.07387
 275	1	2	0.0266	-6.62617	37.3052	2.63996
 276	1	2	0.33777	-4.21954	36.8801	1.55569
 277	1	1	-0.659679	-5.26343	36.2306	1.11832
 278	1	2	0.428714	-6.42089	36.4406	1.66036
 279	1	2	0.160826	-7.93858	37.2904	2.95506
 280	1	3	0.04557	-7.67109	35.8753	1.41387
 281	1	1	-0.463031	-8.60992	36.4401	2.24644
 282	1	4	-0.07905	-5.4496	38.815	4.05677
 283	1	5	-0.061319	-3.00422	36.6927	0.933882
 284	1	6	0.28436	-7.95388	34.8901	0.353846
 285	1	6	-0.21175	-7.22343	33.5431	0.563947
 286	1	7	0.07562	-7.47282	33.1203	1.54465
 287	1	7	0.047171	-6.13489	33.6668	0.505688
 288	1	7	0.053131	-7.5237	32.8164	-0.200773
 289	1	6	-0.120715	-7.70274	35.4447	-1.06608
 290	1	8	0.007856	-9.02827	34.6743	0.416772
 291	1	7	0.031711	-8.24468	36.3875	-1.21231
 292	1	7	0.04419	-8.05087	34.7337	-1.82529
 293	1	7	-0.003555	-6.63613	35.6319	-1.24121
 294	1	9	-0.011509	-8.48739	38.139	3.91688
 295	1	9	-0.199369	-9.1655	37.6056	5.04435
 296	1	9	-0.201771	-9.6798	38.4511	6.05718
 297	1	9	0.15189	-9.50545	39.8295	5.88993
 298	1	9	0.348083	-8.89629	40.3501	4.7683
 299	1	9	-0.230673	-8.3901	39.5396	3.75867
 300	1	10	0.174789	-9.26331	36.525	5.1321
 301	1	10	0.188672	-10.1589	38.0571	6.94844
 302	1	10	0.201012	-7.88601	39.9898	2.91078
 303	1	11	-0.381547	-9.78597	40.8616	6.73607
 304	1	1	-0.706002	-8.79985	41.6351	4.8825
 305	1	2	0.698504	-9.26573	41.9336	6.04666
 306	1	12	0.214303	-3.00625	35.9892	0.216228
 307	1	1	-0.261357	3.33608	42.4289	2.89187
 308	1	2	0.070556	2.9187	41.2071	2.85127
 309	1	2	0.0266	3.71248	40.2352	2.3739
 310	1	2	0.33777	4.52097	42.7768	2.45807
 311	1	1	-0.659679	5.31965	41.8483	2.00354
 312	1	2	0.428714	4.91208	40.618	1.97361
 313	1	2	0.160826	3.58532	38.9151	2.1478
 314	1	3	0.04557	5.52466	39.4603	1.49623
 315	1	1	-0.463031	4.64124	38.4064	1.60214
 316	1	4	-0.07905	1.68332	41.1011	3.27099
 317	1	5	-0.061319	4.89306	44.1029	2.38794
 318	1	6	0.28436	6.63962	39.5212	0.531996
 319	1	6	-0.21175	6.29465	38.8745	-0.82946
 320	1	7	0.07562	5.37631	39.312	-1.24101
 321	1	7	0.047171	6.13595	37.7939	-0.721069
 322	1	7	0.053131	7.10358	39.0321	-1.55306
 323	1	6	-0.120715	7.93005	38.9105	1.11633
 324	1	8	0.007856	6.85111	40.5788	0.329551
 325	1	7	0.031711	8.76086	39.0007	0.405583
 326	1	7	0.04419	7.7874	37.8476	1.34888
 327	1	7	-0.003555	8.21754	39.4281	2.04034
 328	1	9	-0.011509	2.3708	38.2775	2.37336
 329	1	9	-0.199369	1.92386	38.0112	3.69377
 330	1	9	-0.201771	0.615712	37.5357	3.93008
 331	1	9	0.15189	-0.19303	37.3139	2.8123
 332	1	9	0.348083	0.257279	37.5109	1.52362
 333	1	9	-0.230673	1.53613	38.0002	1.26839
 334	1	10	0.174789	2.57359	38.2433	4.53514
 335	1	10	0.188672	0.227564	37.3938	4.93418
 336	1	10	0.201012	1.85387	38.2147	0.253355
 337	1	11	-0.381547	-1.50549	36.9839	2.75216
 338	1	1	-0.706002	-0.710905	37.2962	0.684289
 339	1	2	0.698504	-1.74966	37.0193	1.40133
 340	1	12	0.214303	5.52853	44.2633	1.62181
 341	1	1	-0.261357	-2.87559	46.576	6.65299
 342	1	2	0.070556	-1.85296	46.6836	5.86253
 343	1	2	0.0266	-1.15021	47.8273	5.81352
 344	1	2	0.33777	-3.25814	47.5546	7.43358
 345	1	1	-0.659679	-2.59625	48.6782	7.4008
 346	1	2	0.428714	-1.57236	48.7907	6.61521
 347	1	2	0.160826	-0.0701219	48.2774	5.14167
 348	1	3	0.04557	-0.696686	49.8504	6.39266
 349	1	1	-0.463031	0.253589	49.4882	5.46475
 350	1	4	-0.07905	-1.61721	45.5908	5.18282
 351	1	5	-0.061319	-4.36925	47.479	8.24587
 352	1	6	0.28436	-0.694124	51.0838	7.195
 353	1	6	-0.21175	-0.816293	52.3455	6.31255
 354	1	7	0.07562	-1.73753	52.308	5.71812
 355	1	7	0.047171	0.0365032	52.4301	5.627
 356	1	7	0.053131	-0.851644	53.2504	6.93171
 357	1	6	-0.120715	0.547621	51.1723	8.10814
 358	1	8	0.007856	-1.57532	51.0629	7.8483
 359	1	7	0.031711	0.506915	52.0707	8.73634
 360	1	7	0.04419	1.46929	51.2093	7.51318
 361	1	7	-0.003555	0.603029	50.2986	8.7699
 362	1	9	-0.011509	0.63353	47.5055	4.21893
 363	1	9	-0.199369	0.0302372	47.0995	2.99889
 364	1	9	-0.201771	0.735478	46.3101	2.06628
 365	1	9	0.15189	2.04969	45.9674	2.3864
 366	1	9	0.348083	2.65582	46.376	3.55455
 367	1	9	-0.230673	1.97491	47.1499	4.49371
 368	1	10	0.174789	-0.998981	47.3789	2.78584
 369	1	10	0.188672	0.276457	45.9528	1.15037
 370	1	10	0.201012	2.46352	47.4447	5.41533
 371	1	11	-0.381547	2.91873	45.173	1.71845
 372	1	1	-0.706002	3.84327	45.8505	3.63263
 373	1	2	0.698504	3.99581	45.1344	2.56661
 374	1	12	0.214303	-4.75142	48.3676	8.51406
 375	1	1	-0.261357	-6.50084	38.9738	7.36098
 376	1	2	0.070556	-6.65711	40.1578	7.86518
 377	1	2	0.0266	-7.35635	40.3365	9.00058
 378	1	2	0.33777	-7.0229	37.9104	7.91573
 379	1	1	-0.659679	-7.74504	38.0573	8.99092
 380	1	2	0.428714	-7.87666	39.2333	9.51693
 381	1	2	0.160826	-7.72992	41.373	9.78286
 382	1	3	0.04557	-8.58302	39.637	10.6476
 383	1	1	-0.463031	-8.49024	41.0044	10.7631
 384	1	4	-0.07905	-6.10808	41.0674	7.10292
 385	1	5	-0.061319	-6.91953	36.6565	7.3559
 386	1	6	0.28436	-9.72322	38.8502	11.1496
 387	1	6	-0.21175	-11.0226	39.1435	10.3654
 388	1	7	0.07562	-11.8414	38.5046	10.7179
 389	1	7	0.047171	-10.8801	38.9542	9.29424
 390	1	7	0.053131	-11.3251	40.191	10.4896
 391	1	6	-0.120715	-9.9461	39.0442	12.6653
 392	1	8	0.007856	-9.4822	37.7903	10.9989
 393	1	7	0.031711	-10.2213	40.0819	12.8932
 394	1	7	0.04419	-9.03165	38.8038	13.2219
 395	1	7	-0.003555	-10.7472	38.3886	13.0294
 396	1	9	-0.011509	-7.43436	42.7232	9.56041
 397	1	9	-0.199369	-8.47162	43.6824	9.72797
 398	1	9	-0.201771	-8.24354	45.0609	9.53212
 399	1	9	0.15189	-6.95658	45.446	9.15449
 400	1	9	0.348083	-5.93151	44.5344	9.02393
 401	1	9	-0.230673	-6.12558	43.1731	9.2568
 402	1	10	0.174789	-9.46478	43.3462	10.0197
 403	1	10	0.188672	-9.03602	45.7953	9.63623
 404	1	10	0.201012	-5.28087	42.4981	9.18251
 405	1	11	-0.381547	-6.47454	46.6794	8.85226
 406	1	1	-0.706002	-4.84846	45.1551	8.66968
 407	1	2	0.698504	-5.17327	46.3955	8.5222
 408	1	12	0.214303	-7.74498	36.0935	7.44662
 409	1	1	-0.261357	-4.77595	29.9276	1.95586
 410	1	2	0.070556	-4.58194	31.0761	2.52986
 411	1	2	0.0266	-3.84228	32.0224	1.92689
 412	1	2	0.33777	-4.26474	29.6392	0.786149
 413	1	1	-0.659679	-3.55688	30.5507	0.179239
 414	1	2	0.428714	-3.36038	31.6978	0.739345
 415	1	2	0.160826	-3.40836	33.2635	2.22191
 416	1	3	0.04557	-2.61904	32.7967	0.315086
 417	1	1	-0.463031	-2.64074	33.7535	1.30228
 418	1	4	-0.07905	-5.1263	31.1427	3.71759
 419	1	5	-0.061319	-4.40631	28.3681	0.262995
 420	1	6	0.28436	-1.564	32.6705	-0.706104
 421	1	6	-0.21175	-0.28588	32.0057	-0.147689
 422	1	7	0.07562	0.470932	31.8965	-0.933866
 423	1	7	0.047171	-0.508909	31.0063	0.246968
 424	1	7	0.053131	0.14391	32.6071	0.663521
 425	1	6	-0.120715	-1.2249	34.0249	-1.36829
 426	1	8	0.007856	-1.95633	32.0182	-1.49688
 427	1	7	0.031711	-0.516406	33.8869	-2.19436
 428	1	7	0.04419	-0.771904	34.7133	-0.643855
 429	1	7	-0.003555	-2.12907	34.4976	-1.77244
 430	1	9	-0.011509	-3.69825	33.953	3.40034
 431	1	9	-0.199369	-2.63102	34.5171	4.14753
 432	1	9	-0.201771	-2.87168	35.3513	5.26066
 433	1	9	0.15189	-4.2036	35.5898	5.60099
 434	1	9	0.348083	-5.24799	35.0288	4.89929
 435	1	9	-0.230673	-5.03362	34.2195	3.78521
 436	1	10	0.174789	-1.60642	34.3482	3.82119
 437	1	10	0.188672	-2.06417	35.8242	5.81073
 438	1	10	0.201012	-5.87861	33.8444	3.22359
 439	1	11	-0.381547	-4.72305	36.3791	6.57547
 440	1	1	-0.706002	-6.37403	35.4083	5.42273
 441	1	2	0.698504	-6.07175	36.2516	6.35297
 442	1	12	0.214303	-4.83167	27.7358	0.917968
 443	1	1	-0.261357	3.32446	24.6192	0.463926
 444	1	2	0.070556	2.27858	25.0022	-0.198995
 445	1	2	0.0266	1.95157	24.4039	-1.35632
 446	1	2	0.33777	4.08176	23.6344	0.0574176
 447	1	1	-0.659679	3.79387	23.0505	-1.07544
 448	1	2	0.428714	2.75426	23.4298	-1.75015
 449	1	2	0.160826	0.990847	24.5596	-2.28529
 450	1	3	0.04557	2.25056	23.005	-2.98245
 451	1	1	-0.463031	1.14406	23.7656	-3.29164
 452	1	4	-0.07905	1.6657	26.0128	0.363366
 453	1	5	-0.061319	5.21112	23.2972	0.773473
 454	1	6	0.28436	3.14818	22.452	-4.01181
 455	1	6	-0.21175	4.08997	23.5172	-4.61699
 456	1	7	0.07562	4.69231	23.9928	-3.83327
 457	1	7	0.047171	3.51645	24.2982	-5.13218
 458	1	7	0.053131	4.77732	23.0601	-5.33932
 459	1	6	-0.120715	2.38094	21.715	-5.13233
 460	1	8	0.007856	3.782	21.714	-3.51514
 461	1	7	0.031711	1.78337	22.4171	-5.72751
 462	1	7	0.04419	1.69908	20.9695	-4.70562
 463	1	7	-0.003555	3.07536	21.1987	-5.80702
 464	1	9	-0.011509	-0.00911857	25.5223	-2.18175
 465	1	9	-0.199369	-0.0363242	26.6014	-3.10213
 466	1	9	-0.201771	-1.01855	27.6117	-3.01121
 467	1	9	0.15189	-1.96669	27.4869	-1.99297
 468	1	9	0.348083	-1.96781	26.4232	-1.11423
 469	1	9	-0.230673	-1.00296	25.4198	-1.18035
 470	1	10	0.174789	0.722909	26.6542	-3.88018
 471	1	10	0.188672	-1.03698	28.4616	-3.68725
 472	1	10	0.201012	-1.01098	24.6094	-0.460475
 473	1	11	-0.381547	-2.95566	28.3388	-1.62652
 474	1	1	-0.706002	-2.90185	26.5916	-0.227073
 475	1	2	0.698504	-3.45053	27.7279	-0.499221
 476	1	12	0.214303	5.85449	24.0593	0.891426
 477	1	1	-0.261357	7.86335	14.9282	-2.23524
 478	1	2	0.070556	7.80413	15.9387	-1.42873
 479	1	2	0.0266	7.52867	15.7578	-0.128228
 480	1	2	0.33777	7.64353	13.7044	-1.83508
 481	1	1	-0.659679	7.38408	13.4971	-0.570238
 482	1	2	0.428714	7.33157	14.5043	0.246226
 483	1	2	0.160826	7.37246	16.5559	0.946083
 484	1	3	0.04557	7.03707	14.5797	1.60873
 485	1	1	-0.463031	7.08331	15.8937	2.01778
 486	1	4	-0.07905	8.03144	17.0731	-2.03611
 487	1	5	-0.061319	7.7282	12.6864	-2.76124
 488	1	6	0.28436	7.13072	13.4222	2.51307
 489	1	6	-0.21175	5.97172	13.3851	3.53324
 490	1	7	0.07562	5.00682	13.4454	3.01998
 491	1	7	0.047171	6.03596	14.2314	4.22878
 492	1	7	0.053131	5.99264	12.4559	4.11532
 493	1	6	-0.120715	8.48608	13.363	3.25093
 494	1	8	0.007856	7.05151	12.5194	1.8976
 495	1	7	0.031711	8.55775	12.456	3.86359
 496	1	7	0.04419	8.61242	14.2333	3.90741
 497	1	7	-0.003555	9.31792	13.3552	2.53894
 498	1	9	-0.011509	7.4299	17.947	0.874399
 499	1	9	-0.199369	8.63244	18.6319	0.557005
 500	1	9	-0.201771	8.65669	20.0396	0.435147
 501	1	9	0.15189	7.45717	20.7231	0.657932
 502	1	9	0.348083	6.29316	20.0672	1.00184
 503	1	9	-0.230673	6.25105	18.6809	1.1271
 504	1	10	0.174789	9.5359	18.0606	0.364895
 505	1	10	0.188672	9.55641	20.5766	0.150592
 506	1	10	0.201012	5.32976	18.179	1.39165
 507	1	11	-0.381547	7.17815	22.0482	0.538993
 508	1	1	-0.706002	5.31767	20.9232	1.08994
 509	1	2	0.698504	5.82434	22.0659	0.761608
 510	1	12	0.214303	8.34417	12.9057	-3.5256
 511	1	1	-0.261357	8.69579	5.37891	-7.03875
 512	1	2	0.070556	8.27068	5.97146	-5.9684
 513	1	2	0.0266	8.36306	5.36378	-4.7749
 514	1	2	0.33777	9.22475	4.18278	-7.00798
 515	1	1	-0.659679	9.31081	3.56358	-5.86069
 516	1	2	0.428714	8.87617	4.14645	-4.78774
 517	1	2	0.160826	8.05348	5.6827	-3.5039
 518	1	3	0.04557	8.85193	3.72546	-3.45808
 519	1	1	-0.463031	8.30515	4.72115	-2.67551
 520	1	4	-0.07905	7.74601	7.14526	-6.21301
 521	1	5	-0.061319	9.7548	3.61021	-8.14437
 522	1	6	0.28436	8.86005	2.29469	-3.10669
 523	1	6	-0.21175	7.47865	1.63929	-3.32861
 524	1	7	0.07562	7.5166	0.565953	-3.10633
 525	1	7	0.047171	7.15625	1.75717	-4.37085
 526	1	7	0.053131	6.72065	2.0993	-2.68178
 527	1	6	-0.120715	9.35022	2.03914	-1.66337
 528	1	8	0.007856	9.5727	1.79972	-3.77889
 529	1	7	0.031711	9.40875	0.96303	-1.45851
 530	1	7	0.04419	8.66853	2.49029	-0.931197
 531	1	7	-0.003555	10.3484	2.46439	-1.5068
 532	1	9	-0.011509	7.5708	6.9425	-3.15983
 533	1	9	-0.199369	6.2554	7.10021	-2.65322
 534	1	9	-0.201771	5.75839	8.37776	-2.3039
 535	1	9	0.15189	6.62121	9.46767	-2.45579
 536	1	9	0.348083	7.89769	9.31383	-2.94514
 537	1	9	-0.230673	8.40925	8.07067	-3.30045
 538	1	10	0.174789	5.62062	6.2232	-2.54493
 539	1	10	0.188672	4.74563	8.52148	-1.94694
 540	1	10	0.201012	9.42104	7.99254	-3.68227
 541	1	11	-0.381547	6.42489	10.7914	-2.20345
 542	1	1	-0.706002	8.4663	10.4719	-3.03446
 543	1	2	0.698504	7.64794	11.3324	-2.53271
 544	1	12	0.214303	10.7604	3.55109	-8.15574
 545	1	1	-0.261357	9.43589	-0.24854	-15.925
 546	1	2	0.070556	8.98044	0.62608	-15.0843
 547	1	2	0.0266	8.4529	1.77952	-15.5258
 548	1	2	0.33777	9.40666	-0.0508519	-17.2194
 549	1	1	-0.659679	8.86675	1.04537	-17.6764
 550	1	2	0.428714	8.40933	1.92301	-16.8398
 551	1	2	0.160826	7.92289	2.88272	-14.9602
 552	1	3	0.04557	7.8107	3.16242	-17.0457
 553	1	1	-0.463031	7.50884	3.74215	-15.8342
 554	1	4	-0.07905	9.09476	0.238809	-13.8394
 555	1	5	-0.061319	10.0025	-0.923723	-18.1037
 556	1	6	0.28436	7.44533	3.673	-18.3784
 557	1	6	-0.21175	8.51914	4.63118	-18.9357
 558	1	7	0.07562	8.25783	4.96301	-19.9478
 559	1	7	0.047171	9.49413	4.1301	-18.9838
 560	1	7	0.053131	8.62028	5.51708	-18.2959
 561	1	6	-0.120715	6.05121	4.33924	-18.4027
 562	1	8	0.007856	7.39437	2.81199	-19.0569
 563	1	7	0.031711	5.78364	4.64648	-19.4211
 564	1	7	0.04419	6.02939	5.2282	-17.7593
 565	1	7	-0.003555	5.2828	3.64077	-18.0476
 566	1	9	-0.011509	7.84329	3.06293	-13.5806
 567	1	9	-0.199369	6.57152	3.18148	-12.9632
 568	1	9	-0.201771	6.4522	3.3778	-11.5695
 569	1	9	0.15189	7.63703	3.46223	-10.8334
 570	1	9	0.348083	8.87839	3.37182	-11.4277
 571	1	9	-0.230673	9.01941	3.1807	-12.8013
 572	1	10	0.174789	5.67606	3.12075	-13.5788
 573	1	10	0.188672	5.48613	3.4623	-11.0802
 574	1	10	0.201012	10.0088	3.11083	-13.2392
 575	1	11	-0.381547	7.8182	3.62503	-9.49789
 576	1	1	-0.706002	9.80292	3.4587	-10.5192
 577	1	2	0.698504	9.18897	3.63323	-9.39833
 578	1	12	0.214303	10.1078	-0.48407	-19.0004
 579	1	1	-0.261357	15.1169	-1.38264	-11.599
 580	1	2	0.070556	14.8256	-1.86961	-12.7616
 581	1	2	0.0266	15.7986	-2.31749	-13.5715
 582	1	2	0.33777	16.3484	-1.30363	-11.1639
 583	1	1	-0.659679	17.3128	-1.72783	-11.935
 584	1	2	0.428714	17.0301	-2.22452	-13.0996
 585	1	2	0.160826	15.8457	-2.85005	-14.8076
 586	1	3	0.04557	17.8373	-2.74212	-14.1146
 587	1	1	-0.463031	17.0547	-3.1072	-15.1869
 588	1	4	-0.07905	13.5393	-1.84359	-13.0054
 589	1	5	-0.061319	16.6567	-0.720845	-9.95228
 590	1	6	0.28436	19.3048	-2.6168	-14.1585
 591	1	6	-0.21175	20.0081	-3.45282	-13.0667
 592	1	7	0.07562	19.6846	-4.49984	-13.1184
 593	1	7	0.047171	19.7777	-3.07165	-12.0642
 594	1	7	0.053131	21.0965	-3.42686	-13.2004
 595	1	6	-0.120715	19.7933	-1.15067	-14.1424
 596	1	8	0.007856	19.6183	-3.03783	-15.1225
 597	1	7	0.031711	19.569	-0.664782	-13.1849
 598	1	7	0.04419	19.3083	-0.575137	-14.9408
 599	1	7	-0.003555	20.8779	-1.10167	-14.3017
 600	1	9	-0.011509	14.6755	-3.01169	-15.5407
 601	1	9	-0.199369	13.8649	-4.16036	-15.3497
 602	1	9	-0.201771	12.5828	-4.24709	-15.9372
 603	1	9	0.15189	12.1691	-3.17251	-16.7302
 604	1	9	0.348083	12.98	-2.08057	-16.9664
 605	1	9	-0.230673	14.2347	-1.9606	-16.3742
 606	1	10	0.174789	14.2099	-4.95194	-14.6877
 607	1	10	0.188672	11.9158	-5.08162	-15.7413
 608	1	10	0.201012	14.8119	-1.05173	-16.5005
 609	1	11	-0.381547	10.9447	-2.91283	-17.2607
 610	1	1	-0.706002	12.3128	-1.17592	-17.6145
 611	1	2	0.698504	11.1222	-1.64794	-17.7637
 612	1	12	0.214303	17.5865	-0.340939	-9.93558
 613	1	1	-0.261357	12.034	4.13772	-2.95789
 614	1	2	0.070556	12.4166	3.58455	-4.06471
 615	1	2	0.0266	12.4171	4.28761	-5.2077
 616	1	2	0.33777	11.6454	5.38453	-2.89981
 617	1	1	-0.659679	11.6241	6.08228	-4.00455
 618	1	2	0.428714	12.0224	5.54675	-5.11438
 619	1	2	0.160826	12.7294	4.0403	-6.49176
 620	1	3	0.04557	12.1157	6.06467	-6.41079
 621	1	1	-0.463031	12.58	5.07528	-7.25012
 622	1	4	-0.07905	12.7798	2.33711	-3.91008
 623	1	5	-0.061319	11.1624	5.88341	-1.70792
 624	1	6	0.28436	12.3418	7.49823	-6.68515
 625	1	6	-0.21175	13.458	8.1342	-5.82375
 626	1	7	0.07562	13.682	9.14904	-6.17406
 627	1	7	0.047171	14.3798	7.54273	-5.88646
 628	1	7	0.053131	13.1618	8.20179	-4.7691