pySIMM System Object

580 atoms
647 bonds
1071 angles
1628 dihedrals
68 impropers

13 atom types
18 bond types
33 angle types
13 dihedral types
2 improper types

-126.313312 126.313312 xlo xhi
-126.313312 126.313312 ylo yhi
-126.313312 126.313312 zlo zhi

Masses

   1	14.01	# n2
   2	12.01	# c2
   3	14.01	# na
   4	12.01	# c1
   5	14.01	# nh
   6	12.01	# c3
   7	1.008	# hc
   8	1.008	# h1
   9	12.01	# ca
  10	1.008	# ha
  11	16.0	# os
  12	1.008	# hn
  13	1.008	# h5

Pair Coeffs

   1	0.17	3.249998523775958	# n2
   2	0.086	3.3996695084235347	# c2
   3	0.17	3.249998523775958	# na
   4	0.21	3.3996695084235347	# c1
   5	0.17	3.249998523775958	# nh
   6	0.1094	3.3996695084235347	# c3
   7	0.0157	2.649532787749369	# hc
   8	0.0157	2.471353044121301	# h1
   9	0.086	3.3996695084235347	# ca
  10	0.015	2.59964245953351	# ha
  11	0.17	3.0000123434657784	# os
  12	0.0157	1.069078461768407	# hn
  13	0.015	2.421462715905442	# h5

Bond Coeffs

   1	300.9	1.5375	# c3,c3
   2	416.2	1.3872	# c2,nh
   3	330.6	1.0969	# c3,hc
   4	397.4	1.4015	# c2,na
   5	345.8	1.086	# ca,ha
   6	625.0	1.307	# c1,c2
   7	330.6	1.0969	# c3,h1
   8	404.6	1.0121	# hn,nh
   9	376.6	1.3696	# ca,os
  10	505.3	1.3676	# n2,na
  11	327.7	1.4629	# c3,na
  12	338.4	1.0912	# c2,h5
  13	569.4	1.3343	# c2,c2
  14	551.6	1.303	# ca,n2
  15	389.2	1.3596	# c2,os
  16	594.1	1.2817	# c2,n2
  17	461.1	1.3984	# ca,ca
  18	482.1	1.3846	# c2,ca

Angle Coeffs

   1	39.4	107.58	# hc,c3,hc
   2	52.26	121.7	# h5,c2,n2
   3	70.06	121.62	# c1,c2,c2
   4	69.58	119.2	# ca,ca,os
   5	78.34	113.82	# n2,c2,n2
   6	70.52	117.58	# c2,n2,na
   7	46.39	109.56	# c3,c3,h1
   8	71.15	126.01	# c2,c2,n2
   9	62.86	111.51	# c3,c3,c3
  10	49.83	108.78	# h1,c3,na
  11	70.0	119.94	# c2,n2,ca
  12	65.52	112.88	# c3,c3,na
  13	69.36	117.0	# c2,c2,ca
  14	71.79	124.27	# n2,c2,nh
  15	46.34	109.8	# c3,c3,hc
  16	65.56	125.0	# c2,na,n2
  17	74.41	119.78	# n2,c2,os
  18	70.62	119.57	# ca,ca,n2
  19	48.18	119.88	# ca,ca,ha
  20	69.14	121.94	# c2,c2,na
  21	71.53	123.62	# n2,c2,na
  22	66.78	120.6	# c2,ca,ca
  23	69.3	121.81	# c2,c2,c2
  24	64.17	118.2	# c2,os,ca
  25	40.07	115.12	# hn,nh,hn
  26	48.59	115.09	# c2,nh,hn
  27	52.71	110.95	# h5,c2,os
  28	65.54	119.24	# c3,na,n2
  29	66.62	120.02	# ca,ca,ca
  30	71.11	118.18	# c2,n2,c2
  31	63.85	117.2	# c2,na,c3
  32	63.96	124.73	# c2,nh,c2
  33	73.36	114.3	# nh,c2,os

Dihedral Coeffs

   1	1	6.65	2	180	# X,c2,c2,X
   2	1	3.625	2	180	# X,ca,ca,X
   3	1	1.7	2	180	# X,n2,na,X
   4	1	0.7	2	180	# X,c2,ca,X
   5	1	0.15555555555555556	3	0	# X,c3,c3,X
   6	1	1.05	2	180	# X,c2,os,X
   7	1	0.0	3	180	# X,ca,n2,X
   8	1	4.15	2	180	# X,c2,n2,X
   9	1	0.9	2	180	# X,ca,os,X
  10	1	0.625	2	180	# X,c2,na,X
  11	1	0.0	2	0	# X,c3,na,X
  12	1	0.16	3	0	# hc,c3,c3,c3
  13	1	0.675	2	180	# X,c2,nh,X

Improper Coeffs

   1	1.1	-1	2	# ca,X,X,ha
   2	1.1	-1	2	# ca,ca,ca,c2

Atoms

   1	1	1	-0.261357	-19.2684	-1.81563	-12.048
   2	1	2	0.070556	-19.2329	-1.7597	-13.3393
   3	1	2	0.0266	-18.0704	-1.54182	-13.9718
   4	1	2	0.33777	-18.199	-1.65755	-11.309
   5	1	1	-0.659679	-17.0561	-1.4431	-11.9022
   6	1	2	0.428714	-17.0065	-1.40036	-13.1981
   7	1	2	0.160826	-17.6929	-1.39846	-15.2548
   8	1	3	0.04557	-15.9469	-1.18235	-14.0827
   9	1	1	-0.463031	-16.429	-1.15591	-15.3719
  10	1	4	-0.07905	-20.4124	-1.91346	-13.8859
  11	1	5	-0.061319	-18.2775	-1.62765	-9.93101
  12	1	6	0.28436	-14.6605	-0.582785	-13.6886
  13	1	6	-0.21175	-13.8026	-1.52045	-12.8108
  14	1	7	0.07562	-13.6883	-2.49928	-13.2929
  15	1	7	0.047171	-14.2625	-1.67447	-11.8268
  16	1	7	0.053131	-12.802	-1.09778	-12.6585
  17	1	6	-0.120715	-14.8162	0.810401	-13.0385
  18	1	8	0.007856	-14.0994	-0.430908	-14.6198
  19	1	7	0.031711	-15.3001	0.740862	-12.0564
  20	1	7	0.04419	-15.425	1.46502	-13.675
  21	1	7	-0.003555	-13.837	1.28603	-12.9026
  22	1	9	-0.011509	-18.6206	-1.42654	-16.2914
  23	1	9	-0.199369	-19.1384	-2.66012	-16.7655
  24	1	9	-0.201771	-20.1039	-2.69368	-17.7971
  25	1	9	0.15189	-20.5152	-1.46734	-18.329
  26	1	9	0.348083	-20.0058	-0.265437	-17.8785
  27	1	9	-0.230673	-19.0542	-0.20901	-16.8622
  28	1	10	0.174789	-18.7938	-3.59033	-16.3181
  29	1	10	0.188672	-20.5189	-3.6267	-18.1671
  30	1	10	0.201012	-18.6702	0.747736	-16.527
  31	1	11	-0.381547	-21.4154	-1.2067	-19.3142
  32	1	1	-0.706002	-20.5481	0.713351	-18.5375
  33	1	2	0.698504	-21.3673	0.164487	-19.3709
  34	1	12	0.214303	-17.6341	-0.969171	-9.52833
  35	1	1	-0.261357	-24.6588	-0.342396	-3.97567
  36	1	2	0.070556	-24.2187	-0.641529	-5.15439
  37	1	2	0.0266	-24.9662	-0.385942	-6.24008
  38	1	2	0.33777	-25.8211	0.227	-3.79593
  39	1	1	-0.659679	-26.562	0.497019	-4.83507
  40	1	2	0.428714	-26.1364	0.186477	-6.0187
  41	1	2	0.160826	-24.8363	-0.594116	-7.56102
  42	1	3	0.04557	-26.7319	0.317724	-7.27686
  43	1	1	-0.463031	-25.8777	-0.209276	-8.22127
  44	1	4	-0.07905	-23.0413	-1.21264	-5.11837
  45	1	5	-0.061319	-26.2708	0.518991	-2.53083
  46	1	6	0.28436	-28.1966	0.269764	-7.4513
  47	1	6	-0.21175	-28.9125	1.54419	-6.95311
  48	1	7	0.07562	-28.8482	1.63226	-5.86236
  49	1	7	0.047171	-29.9741	1.52215	-7.22878
  50	1	7	0.053131	-28.4628	2.43961	-7.40022
  51	1	6	-0.120715	-28.8386	-1.00071	-6.84457
  52	1	8	0.007856	-28.3725	0.219974	-8.53372
  53	1	7	0.031711	-28.7584	-1.00654	-5.75028
  54	1	7	0.04419	-28.3442	-1.9024	-7.22764
  55	1	7	-0.003555	-29.9023	-1.06226	-7.10614
  56	1	9	-0.011509	-23.7029	-1.21922	-8.06566
  57	1	9	-0.199369	-23.7422	-2.59536	-8.40289
  58	1	9	-0.201771	-22.5815	-3.26365	-8.84978
  59	1	9	0.15189	-21.4039	-2.5147	-8.92349
  60	1	9	0.348083	-21.3599	-1.17462	-8.59885
  61	1	9	-0.230673	-22.5023	-0.489261	-8.19484
  62	1	10	0.174789	-24.6805	-3.13897	-8.31335
  63	1	10	0.188672	-22.5914	-4.31392	-9.12695
  64	1	10	0.201012	-22.4632	0.567415	-7.97711
  65	1	11	-0.381547	-20.1712	-2.88478	-9.34731
  66	1	1	-0.706002	-20.1625	-0.709596	-8.80149
  67	1	2	0.698504	-19.4724	-1.70631	-9.25051
  68	1	12	0.214303	-26.8575	1.33229	-2.47215
  69	1	1	-0.261357	-25.0252	-4.90054	4.7509
  70	1	2	0.070556	-25.6739	-4.38088	3.75538
  71	1	2	0.0266	-26.9566	-4.00839	3.90108
  72	1	2	0.33777	-25.5752	-5.07206	5.92512
  73	1	1	-0.659679	-26.8233	-4.72532	6.08611
  74	1	2	0.428714	-27.4801	-4.21264	5.09666
  75	1	2	0.160826	-27.8944	-3.43918	3.11797
  76	1	3	0.04557	-28.7824	-3.73118	5.00598
  77	1	1	-0.463031	-29.0139	-3.24866	3.73725
  78	1	4	-0.07905	-24.9386	-4.25872	2.67948
  79	1	5	-0.061319	-24.8107	-5.55392	6.96746
  80	1	6	0.28436	-29.7812	-3.8762	6.07845
  81	1	6	-0.21175	-30.9757	-4.75467	5.64505
  82	1	7	0.07562	-31.6762	-4.89615	6.4769
  83	1	7	0.047171	-30.6285	-5.74331	5.31998
  84	1	7	0.053131	-31.5192	-4.29188	4.8114
  85	1	6	-0.120715	-30.2679	-2.50639	6.59739
  86	1	8	0.007856	-29.2981	-4.386	6.92154
  87	1	7	0.031711	-30.7532	-1.93406	5.79646
  88	1	7	0.04419	-29.4228	-1.9172	6.97488
  89	1	7	-0.003555	-30.9873	-2.63086	7.41654
  90	1	9	-0.011509	-27.627	-3.07554	1.80209
  91	1	9	-0.199369	-27.4941	-4.06739	0.795445
  92	1	9	-0.201771	-27.1529	-3.71494	-0.528386
  93	1	9	0.15189	-26.9772	-2.35579	-0.80002
  94	1	9	0.348083	-27.1513	-1.38193	0.161442
  95	1	9	-0.230673	-27.4742	-1.70848	1.47716
  96	1	10	0.174789	-27.6272	-5.11516	1.05675
  97	1	10	0.188672	-27.0117	-4.45984	-1.3063
  98	1	10	0.201012	-27.581	-0.929947	2.22372
  99	1	11	-0.381547	-26.594	-1.74882	-1.94971
 100	1	1	-0.706002	-26.9173	-0.211848	-0.354927
 101	1	2	0.698504	-26.5455	-0.428389	-1.57131
 102	1	12	0.214303	-23.8824	-5.78458	6.65919
 103	1	1	-0.261357	-23.0765	1.68841	10.7547
 104	1	2	0.070556	-23.4633	0.4629	10.9049
 105	1	2	0.0266	-23.1745	-0.20176	12.0347
 106	1	2	0.33777	-22.3907	2.32475	11.6702
 107	1	1	-0.659679	-22.1256	1.71054	12.7921
 108	1	2	0.428714	-22.5039	0.479837	12.9471
 109	1	2	0.160826	-23.406	-1.44312	12.5035
 110	1	3	0.04557	-22.329	-0.414971	13.9993
 111	1	1	-0.463031	-22.9333	-1.6154	13.695
 112	1	4	-0.07905	-24.1319	0.013692	9.8726
 113	1	5	-0.061319	-21.9704	3.62799	11.493
 114	1	6	0.28436	-21.8473	-0.0048524	15.3282
 115	1	6	-0.21175	-20.7753	-0.969163	15.8802
 116	1	7	0.07562	-20.3741	-0.600878	16.8321
 117	1	7	0.047171	-19.9421	-1.06372	15.1727
 118	1	7	0.053131	-21.197	-1.96866	16.0465
 119	1	6	-0.120715	-23.005	0.166544	16.335
 120	1	8	0.007856	-21.3659	0.975083	15.2185
 121	1	7	0.031711	-23.5195	-0.787754	16.506
 122	1	7	0.04419	-23.7402	0.887384	15.9559
 123	1	7	-0.003555	-22.6334	0.535642	17.2991
 124	1	9	-0.011509	-24.0752	-2.3769	11.7194
 125	1	9	-0.199369	-25.4702	-2.57558	11.8813
 126	1	9	-0.201771	-26.1897	-3.41461	11.0011
 127	1	9	0.15189	-25.4657	-4.04623	9.98565
 128	1	9	0.348083	-24.1021	-3.88516	9.84681
 129	1	9	-0.230673	-23.3748	-3.05318	10.6949
 130	1	10	0.174789	-25.9967	-2.03616	12.666
 131	1	10	0.188672	-27.2667	-3.53628	11.0715
 132	1	10	0.201012	-22.3165	-2.89203	10.5236
 133	1	11	-0.381547	-25.9133	-4.78096	8.9351
 134	1	1	-0.706002	-23.7007	-4.4808	8.76496
 135	1	2	0.698504	-24.7598	-4.96508	8.21128
 136	1	12	0.214303	-21.75	4.13463	12.3313
 137	1	1	-0.261357	-25.5837	5.54354	3.81399
 138	1	2	0.070556	-24.6624	5.74943	4.70527
 139	1	2	0.0266	-23.4131	6.06901	4.3267
 140	1	2	0.33777	-25.3426	5.63214	2.53025
 141	1	1	-0.659679	-24.1381	5.95498	2.14854
 142	1	2	0.428714	-23.2134	6.16141	3.02551
 143	1	2	0.160826	-22.2481	6.32761	4.95171
 144	1	3	0.04557	-21.8711	6.49764	2.88564
 145	1	1	-0.463031	-21.2838	6.58416	4.12846
 146	1	4	-0.07905	-25.0909	5.61315	5.93478
 147	1	5	-0.061319	-26.3541	5.36963	1.62447
 148	1	6	0.28436	-21.1733	6.51219	1.58801
 149	1	6	-0.21175	-20.0005	5.50721	1.53498
 150	1	7	0.07562	-19.5282	5.51199	0.545186
 151	1	7	0.047171	-20.3573	4.48939	1.73616
 152	1	7	0.053131	-19.2368	5.75584	2.2829
 153	1	6	-0.120715	-20.6958	7.9324	1.22015
 154	1	8	0.007856	-21.8905	6.20429	0.81664
 155	1	7	0.031711	-20.2222	7.94115	0.230763
 156	1	7	0.04419	-19.9695	8.3021	1.95508
 157	1	7	-0.003555	-21.5435	8.62905	1.19605
 158	1	9	-0.011509	-22.1365	6.25552	6.33512
 159	1	9	-0.199369	-22.1826	7.43265	7.12606
 160	1	9	-0.201771	-22.1144	7.36355	8.53692
 161	1	9	0.15189	-21.9858	6.0934	9.10881
 162	1	9	0.348083	-21.9185	4.95194	8.33739
 163	1	9	-0.230673	-21.9924	4.99288	6.94907
 164	1	10	0.174789	-22.2888	8.39799	6.63479
 165	1	10	0.188672	-22.1754	8.25128	9.15965
 166	1	10	0.201012	-21.962	4.07389	6.37419
 167	1	11	-0.381547	-21.968	5.72069	10.419
 168	1	1	-0.706002	-21.8636	3.91266	9.10705
 169	1	2	0.698504	-21.9254	4.35122	10.3183
 170	1	12	0.214303	-27.2079	5.04127	2.03918
 171	1	1	-0.261357	-21.6928	2.13153	-4.92423
 172	1	2	0.070556	-22.7966	2.63922	-4.47466
 173	1	2	0.0266	-23.6095	3.32931	-5.29118
 174	1	2	0.33777	-21.3133	2.27504	-6.16854
 175	1	1	-0.659679	-22.0964	2.92319	-6.98732
 176	1	2	0.428714	-23.2026	3.43258	-6.54476
 177	1	2	0.160826	-24.7912	3.96918	-5.17498
 178	1	3	0.04557	-24.1968	4.16443	-7.18714
 179	1	1	-0.463031	-25.2015	4.46701	-6.29591
 180	1	4	-0.07905	-22.9845	2.3755	-3.20681
 181	1	5	-0.061319	-20.1378	1.73329	-6.64975
 182	1	6	0.28436	-24.2209	4.37923	-8.64426
 183	1	6	-0.21175	-25.0843	5.59329	-9.05781
 184	1	7	0.07562	-26.1395	5.42273	-8.8087
 185	1	7	0.047171	-25.0102	5.77818	-10.1364
 186	1	7	0.053131	-24.7537	6.49866	-8.53344
 187	1	6	-0.120715	-24.6671	3.11197	-9.40482
 188	1	8	0.007856	-23.1907	4.60217	-8.95104
 189	1	7	0.031711	-24.0141	2.26376	-9.16528
 190	1	7	0.04419	-24.6224	3.2735	-10.4888
 191	1	7	-0.003555	-25.6955	2.83654	-9.13858
 192	1	9	-0.011509	-25.4839	4.07596	-3.97019
 193	1	9	-0.199369	-26.8024	3.56248	-3.86445
 194	1	9	-0.201771	-27.5255	3.63634	-2.65223
 195	1	9	0.15189	-26.8943	4.26375	-1.57427
 196	1	9	0.348083	-25.6347	4.81139	-1.68701
 197	1	9	-0.230673	-24.9032	4.7449	-2.86879
 198	1	10	0.174789	-27.2532	3.09614	-4.73812
 199	1	10	0.188672	-28.531	3.2358	-2.55457
 200	1	10	0.201012	-23.9101	5.17839	-2.9142
 201	1	11	-0.381547	-27.3222	4.44551	-0.29574
 202	1	1	-0.706002	-25.2798	5.31241	-0.548147
 203	1	2	0.698504	-26.2489	5.08736	0.275294
 204	1	12	0.214303	-20.0835	1.70939	-7.65422
 205	1	1	-0.261357	-11.4264	0.0191957	-5.4198
 206	1	2	0.070556	-12.5184	0.691379	-5.23559
 207	1	2	0.0266	-12.4784	2.02812	-5.11599
 208	1	2	0.33777	-10.2558	0.599104	-5.47082
 209	1	1	-0.659679	-10.1933	1.89987	-5.37458
 210	1	2	0.428714	-11.2792	2.58135	-5.18961
 211	1	2	0.160826	-13.3874	3.00337	-4.9298
 212	1	3	0.04557	-11.5102	3.95027	-5.03673
 213	1	1	-0.463031	-12.8566	4.18036	-4.87354
 214	1	4	-0.07905	-13.5827	-0.0690549	-5.18339
 215	1	5	-0.061319	-9.13678	-0.164221	-5.71882
 216	1	6	0.28436	-10.4828	5.00233	-5.12759
 217	1	6	-0.21175	-9.70951	4.9944	-6.46583
 218	1	7	0.07562	-9.06163	5.87613	-6.54067
 219	1	7	0.047171	-10.4053	5.01127	-7.31392
 220	1	7	0.053131	-9.0779	4.10205	-6.55561
 221	1	6	-0.120715	-9.51866	4.99696	-3.92212
 222	1	8	0.007856	-11.0225	5.95761	-5.09046
 223	1	7	0.031711	-8.82782	5.84761	-3.97493
 224	1	7	0.04419	-8.92627	4.07366	-3.89336
 225	1	7	-0.003555	-10.0783	5.07572	-2.98132
 226	1	9	-0.011509	-14.7482	2.74092	-4.81305
 227	1	9	-0.199369	-15.3873	2.91532	-3.55913
 228	1	9	-0.201771	-16.7747	2.70078	-3.41551
 229	1	9	0.15189	-17.4784	2.30888	-4.55634
 230	1	9	0.348083	-16.8664	2.1356	-5.78
 231	1	9	-0.230673	-15.5008	2.35902	-5.94853
 232	1	10	0.174789	-14.7983	3.23987	-2.70309
 233	1	10	0.188672	-17.2886	2.8511	-2.47026
 234	1	10	0.201012	-15.0471	2.25334	-6.92694
 235	1	11	-0.381547	-18.8074	2.10736	-4.71872
 236	1	1	-0.706002	-17.76	1.83849	-6.67666
 237	1	2	0.698504	-18.8954	1.82568	-6.05986
 238	1	12	0.214303	-9.33551	-1.02744	-6.19201
 239	1	1	-0.261357	-2.3301	3.15592	-1.41418
 240	1	2	0.070556	-3.01027	2.12021	-1.80661
 241	1	2	0.0266	-3.10889	1.031	-1.02218
 242	1	2	0.33777	-1.70834	3.17844	-0.262624
 243	1	1	-0.659679	-1.72373	2.0955	0.462136
 244	1	2	0.428714	-2.42046	1.07323	0.10141
 245	1	2	0.160826	-3.75439	-0.149806	-1.06599
 246	1	3	0.04557	-2.65569	-0.135334	0.752223
 247	1	1	-0.463031	-3.52893	-0.876793	-0.0178905
 248	1	4	-0.07905	-3.56759	2.29611	-2.97771
 249	1	5	-0.061319	-1.19167	4.36287	0.239294
 250	1	6	0.28436	-2.51865	-0.217736	2.22496
 251	1	6	-0.21175	-1.04311	-0.335016	2.67186
 252	1	7	0.07562	-0.436461	0.46911	2.23699
 253	1	7	0.047171	-0.613048	-1.29528	2.36211
 254	1	7	0.053131	-0.962231	-0.255034	3.76311
 255	1	6	-0.120715	-3.35103	-1.34728	2.87586
 256	1	8	0.007856	-2.90192	0.727947	2.63103
 257	1	7	0.031711	-3.04186	-2.32937	2.49622
 258	1	7	0.04419	-4.41881	-1.2161	2.66159
 259	1	7	-0.003555	-3.22457	-1.34677	3.96633
 260	1	9	-0.011509	-4.59164	-0.489289	-2.12522
 261	1	9	-0.199369	-4.22213	-1.54675	-2.99452
 262	1	9	-0.201771	-5.02598	-1.89353	-4.10249
 263	1	9	0.15189	-6.19801	-1.15702	-4.29469
 264	1	9	0.348083	-6.57989	-0.146129	-3.43733
 265	1	9	-0.230673	-5.80629	0.207312	-2.33318
 266	1	10	0.174789	-3.29817	-2.08964	-2.80391
 267	1	10	0.188672	-4.74958	-2.69088	-4.78601
 268	1	10	0.201012	-6.12737	1.01155	-1.68058
 269	1	11	-0.381547	-7.12916	-1.25236	-5.27884
 270	1	1	-0.706002	-7.69666	0.372011	-3.84983
 271	1	2	0.698504	-8.0031	-0.249439	-4.94034
 272	1	12	0.214303	-1.23255	5.10495	-0.436251
 273	1	1	-0.261357	-4.1478	2.51849	8.29131
 274	1	2	0.070556	-4.14296	3.25123	7.23329
 275	1	2	0.0266	-5.25099	3.37227	6.48897
 276	1	2	0.33777	-5.21569	1.88799	8.7067
 277	1	1	-0.659679	-6.31005	1.98266	7.99921
 278	1	2	0.428714	-6.31424	2.70881	6.92124
 279	1	2	0.160826	-5.57581	4.02103	5.35719
 280	1	3	0.04557	-7.32234	3.00421	5.99396
 281	1	1	-0.463031	-6.80754	3.82904	5.01846
 282	1	4	-0.07905	-2.98453	3.84073	7.07982
 283	1	5	-0.061319	-5.18074	1.20897	9.91099
 284	1	6	0.28436	-8.51417	2.16525	5.75245
 285	1	6	-0.21175	-9.75117	2.67305	6.52161
 286	1	7	0.07562	-9.9258	3.73442	6.30409
 287	1	7	0.047171	-9.61512	2.56037	7.6043
 288	1	7	0.053131	-10.648	2.11551	6.2238
 289	1	6	-0.120715	-8.30805	0.646815	5.96474
 290	1	8	0.007856	-8.74669	2.28505	4.6862
 291	1	7	0.031711	-7.386	0.306765	5.47662
 292	1	7	0.04419	-9.14475	0.084307	5.53309
 293	1	7	-0.003555	-8.25132	0.392408	7.03024
 294	1	9	-0.011509	-4.64086	4.69862	4.57481
 295	1	9	-0.199369	-4.92511	5.9898	4.05896
 296	1	9	-0.201771	-4.09702	6.57884	3.07397
 297	1	9	0.15189	-2.96069	5.86514	2.67526
 298	1	9	0.348083	-2.63478	4.653	3.24231
 299	1	9	-0.230673	-3.48979	4.01376	4.12904
 300	1	10	0.174789	-5.84563	6.4869	4.35914
 301	1	10	0.188672	-4.36861	7.50859	2.58308
 302	1	10	0.201012	-3.28813	2.98583	4.40855
 303	1	11	-0.381547	-2.20582	6.00854	1.54772
 304	1	1	-0.706002	-1.70656	4.0882	2.54669
 305	1	2	0.698504	-1.50423	4.82442	1.50764
 306	1	12	0.214303	-5.15168	0.213153	9.78461
 307	1	1	-0.261357	3.14257	5.94563	11.0087
 308	1	2	0.070556	2.06793	5.21811	11.0429
 309	1	2	0.0266	1.90619	4.29577	12.0057
 310	1	2	0.33777	4.08922	5.82999	11.9053
 311	1	1	-0.659679	3.95585	4.93637	12.8473
 312	1	2	0.428714	2.9051	4.17571	12.867
 313	1	2	0.160826	0.939883	3.43169	12.374
 314	1	3	0.04557	2.5155	3.15368	13.7421
 315	1	1	-0.463031	1.2523	2.7308	13.4108
 316	1	4	-0.07905	1.23402	5.46712	10.0654
 317	1	5	-0.061319	5.14512	6.71514	11.9485
 318	1	6	0.28436	3.06035	2.97016	15.096
 319	1	6	-0.21175	2.81868	4.18839	16.0142
 320	1	7	0.07562	3.39261	5.05947	15.6757
 321	1	7	0.047171	3.11325	3.95917	17.0456
 322	1	7	0.053131	1.75455	4.45794	16.0188
 323	1	6	-0.120715	4.53932	2.53182	15.1015
 324	1	8	0.007856	2.4942	2.13736	15.5338
 325	1	7	0.031711	4.84676	2.23396	16.1114
 326	1	7	0.04419	5.19669	3.34335	14.7673
 327	1	7	-0.003555	4.688	1.6718	14.4361
 328	1	9	-0.011509	-0.369335	3.39889	11.8937
 329	1	9	-0.199369	-1.1547	4.58297	11.9194
 330	1	9	-0.201771	-2.54238	4.54514	11.6747
 331	1	9	0.15189	-3.1119	3.29295	11.4475
 332	1	9	0.348083	-2.36698	2.13512	11.4069
 333	1	9	-0.230673	-0.987287	2.15355	11.6172
 334	1	10	0.174789	-0.689329	5.53364	12.1689
 335	1	10	0.188672	-3.15621	5.44097	11.6793
 336	1	10	0.201012	-0.423542	1.22749	11.6177
 337	1	11	-0.381547	-4.39842	2.97647	11.1781
 338	1	1	-0.706002	-3.13768	1.13966	11.0747
 339	1	2	0.698504	-4.32181	1.63144	10.9044
 340	1	12	0.214303	5.44925	6.87164	12.8925
 341	1	1	-0.261357	13.0786	6.3398	6.29884
 342	1	2	0.070556	12.1505	6.51113	7.1841
 343	1	2	0.0266	12.3063	7.40494	8.17572
 344	1	2	0.33777	14.1989	7.01338	6.32853
 345	1	1	-0.659679	14.3491	7.93513	7.23756
 346	1	2	0.428714	13.4263	8.10905	8.13189
 347	1	2	0.160826	11.5979	7.79253	9.25734
 348	1	3	0.04557	13.3508	8.98531	9.21372
 349	1	1	-0.463031	12.1906	8.73767	9.91574
 350	1	4	-0.07905	11.1137	5.75052	6.94122
 351	1	5	-0.061319	15.2006	6.74717	5.421
 352	1	6	0.28436	14.5272	9.68554	9.76613
 353	1	6	-0.21175	15.0924	10.7655	8.81383
 354	1	7	0.07562	14.3047	11.468	8.51552
 355	1	7	0.047171	15.512	10.3169	7.90474
 356	1	7	0.053131	15.889	11.3376	9.30528
 357	1	6	-0.120715	15.6439	8.72005	10.2266
 358	1	8	0.007856	14.1781	10.2131	10.6629
 359	1	7	0.031711	16.4445	9.26867	10.7379
 360	1	7	0.04419	16.089	8.18944	9.37549
 361	1	7	-0.003555	15.2462	7.973	10.9248
 362	1	9	-0.011509	10.4195	7.15565	9.66291
 363	1	9	-0.199369	10.4056	5.74886	9.87221
 364	1	9	-0.201771	9.23822	5.07634	10.2907
 365	1	9	0.15189	8.10801	5.85603	10.537
 366	1	9	0.348083	8.12079	7.22748	10.4036
 367	1	9	-0.230673	9.26179	7.91228	9.97184
 368	1	10	0.174789	11.3113	5.17192	9.69487
 369	1	10	0.188672	9.21355	4.00024	10.4361
 370	1	10	0.201012	9.2556	8.99417	9.89725
 371	1	11	-0.381547	6.88848	5.48316	11.0028
 372	1	1	-0.706002	6.97786	7.69895	10.8098
 373	1	2	0.698504	6.2305	6.68384	11.1009
 374	1	12	0.214303	15.0335	7.22333	4.55306
 375	1	1	-0.261357	17.5453	-2.49832	3.27019
 376	1	2	0.070556	17.074	-1.3277	3.55888
 377	1	2	0.0266	15.7628	-1.07464	3.4221
 378	1	2	0.33777	16.7877	-3.45911	2.8112
 379	1	1	-0.659679	15.5205	-3.22057	2.61604
 380	1	2	0.428714	15.0371	-2.05536	2.90984
 381	1	2	0.160826	14.9449	-0.0422034	3.70091
 382	1	3	0.04557	13.7338	-1.56112	2.87271
 383	1	1	-0.463031	13.7135	-0.283235	3.38693
 384	1	4	-0.07905	17.9958	-0.509364	3.99875
 385	1	5	-0.061319	17.2387	-4.7488	2.93169
 386	1	6	0.28436	12.5612	-2.37499	2.48791
 387	1	6	-0.21175	11.259	-1.54688	2.37195
 388	1	7	0.07562	10.4271	-2.17107	2.02424
 389	1	7	0.047171	11.3846	-0.720632	1.66137
 390	1	7	0.053131	10.982	-1.11998	3.34483
 391	1	6	-0.120715	12.3236	-3.57869	3.43027
 392	1	8	0.007856	12.7752	-2.77767	1.48967
 393	1	7	0.031711	13.2029	-4.23173	3.47455
 394	1	7	0.04419	11.4835	-4.18737	3.07381
 395	1	7	-0.003555	12.0967	-3.24236	4.44968
 396	1	9	-0.011509	15.3702	1.11692	4.34809
 397	1	9	-0.199369	15.9054	1.05533	5.66406
 398	1	9	-0.201771	16.2316	2.23029	6.37629
 399	1	9	0.15189	16.0012	3.44902	5.73311
 400	1	9	0.348083	15.4935	3.51843	4.45158
 401	1	9	-0.230673	15.1441	2.37187	3.74103
 402	1	10	0.174789	16.0357	0.0875219	6.1445
 403	1	10	0.188672	16.6062	2.20109	7.39582
 404	1	10	0.201012	14.6659	2.45432	2.77162
 405	1	11	-0.381547	16.0781	4.71196	6.22642
 406	1	1	-0.706002	15.2688	4.75893	4.13938
 407	1	2	0.698504	15.5949	5.45325	5.17532
 408	1	12	0.214303	17.7922	-4.87329	3.76035
 409	1	1	-0.261357	20.8353	-12.149	-2.51352
 410	1	2	0.070556	20.1612	-11.2477	-1.86568
 411	1	2	0.0266	19.6074	-11.5437	-0.678711
 412	1	2	0.33777	21.0093	-13.3565	-2.03734
 413	1	1	-0.659679	20.5043	-13.6538	-0.87239
 414	1	2	0.428714	19.8326	-12.7629	-0.218495
 415	1	2	0.160826	18.8643	-10.8984	0.23511
 416	1	3	0.04557	19.2234	-12.8299	1.03811
 417	1	1	-0.463031	18.6145	-11.6189	1.27767
 418	1	4	-0.07905	20.0982	-10.093	-2.47803
 419	1	5	-0.061319	21.5592	-14.381	-2.77166
 420	1	6	0.28436	19.8534	-13.6298	2.11306
 421	1	6	-0.21175	19.2757	-15.0589	2.18245
 422	1	7	0.07562	19.4092	-15.5741	1.22334
 423	1	7	0.047171	18.2039	-15.0361	2.41626
 424	1	7	0.053131	19.7853	-15.6467	2.95622
 425	1	6	-0.120715	19.7927	-12.9654	3.51206
 426	1	8	0.007856	20.9184	-13.7234	1.86363
 427	1	7	0.031711	20.3394	-13.5618	4.25267
 428	1	7	0.04419	18.7545	-12.8635	3.85355
 429	1	7	-0.003555	20.246	-11.9658	3.49195
 430	1	9	-0.011509	18.4737	-9.56356	0.166843
 431	1	9	-0.199369	17.5867	-9.07023	-0.828828
 432	1	9	-0.201771	17.0656	-7.75428	-0.751661
 433	1	9	0.15189	17.4657	-6.96532	0.334819
 434	1	9	0.348083	18.3539	-7.43847	1.27671
 435	1	9	-0.230673	18.856	-8.72988	1.23618
 436	1	10	0.174789	17.2601	-9.73115	-1.62922
 437	1	10	0.188672	16.3415	-7.38067	-1.4705
 438	1	10	0.201012	19.4638	-9.0997	2.05468
 439	1	11	-0.381547	17.0013	-5.75673	0.7701
 440	1	1	-0.706002	18.4536	-6.59534	2.25082
 441	1	2	0.698504	17.6749	-5.61409	1.96313
 442	1	12	0.214303	21.4273	-15.2912	-2.37001
 443	1	1	-0.261357	29.2173	-14.2249	-8.47288
 444	1	2	0.070556	28.2872	-14.6318	-7.66575
 445	1	2	0.0266	28.5856	-14.9261	-6.39137
 446	1	2	0.33777	30.4577	-14.0681	-8.08682
 447	1	1	-0.659679	30.7614	-14.3508	-6.84924
 448	1	2	0.428714	29.8472	-14.7657	-6.03089
 449	1	2	0.160826	27.8946	-15.3215	-5.31253
 450	1	3	0.04557	29.8987	-15.0489	-4.65661
 451	1	1	-0.463031	28.6332	-15.4271	-4.26119
 452	1	4	-0.07905	27.1012	-14.7008	-8.21537
 453	1	5	-0.061319	31.3958	-13.6214	-8.99956
 454	1	6	0.28436	30.63	-14.1381	-3.75214
 455	1	6	-0.21175	30.0539	-12.7011	-3.78058
 456	1	7	0.07562	28.965	-12.7194	-3.64279
 457	1	7	0.047171	30.2677	-12.2085	-4.73756
 458	1	7	0.053131	30.4826	-12.0935	-2.9752
 459	1	6	-0.120715	32.163	-14.1252	-3.9376
 460	1	8	0.007856	30.4519	-14.5226	-2.73917
 461	1	7	0.031711	32.4496	-13.6634	-4.88975
 462	1	7	0.04419	32.5658	-15.1447	-3.91146
 463	1	7	-0.003555	32.6385	-13.5516	-3.13175
 464	1	9	-0.011509	26.5077	-15.395	-5.28255
 465	1	9	-0.199369	25.8088	-16.5168	-5.79645
 466	1	9	-0.201771	24.4068	-16.6157	-5.65289
 467	1	9	0.15189	23.7527	-15.5646	-5.00163
 468	1	9	0.348083	24.4247	-14.4659	-4.51178
 469	1	9	-0.230673	25.8074	-14.3608	-4.62165
 470	1	10	0.174789	26.3652	-17.3297	-6.25922
 471	1	10	0.188672	23.8563	-17.4935	-5.97878
 472	1	10	0.201012	26.3278	-13.5344	-4.15127
 473	1	11	-0.381547	22.476	-15.5021	-4.55006
 474	1	1	-0.706002	23.6233	-13.7633	-3.76839
 475	1	2	0.698504	22.4748	-14.3534	-3.79707
 476	1	12	0.214303	31.0112	-13.503	-9.92049
 477	1	1	-0.261357	31.6044	-6.03297	-9.40946
 478	1	2	0.070556	32.3987	-7.02227	-9.16177
 479	1	2	0.0266	33.7198	-6.82626	-8.99447
 480	1	2	0.33777	32.0411	-4.80589	-9.47969
 481	1	1	-0.659679	33.3153	-4.57761	-9.31627
 482	1	2	0.428714	34.1191	-5.5696	-9.08975
 483	1	2	0.160826	34.7876	-7.5924	-8.69351
 484	1	3	0.04557	35.4833	-5.57832	-8.80184
 485	1	1	-0.463031	35.8594	-6.88217	-8.54109
 486	1	4	-0.07905	31.7061	-8.12711	-9.05273
 487	1	5	-0.061319	31.1504	-3.78829	-9.71356
 488	1	6	0.28436	36.0375	-4.42356	-8.06567
 489	1	6	-0.21175	37.5694	-4.28976	-8.20133
 490	1	7	0.07562	37.9262	-3.39593	-7.67459
 491	1	7	0.047171	37.8568	-4.1991	-9.25596
 492	1	7	0.053131	38.079	-5.16453	-7.77837
 493	1	6	-0.120715	35.6191	-4.42414	-6.57602
 494	1	8	0.007856	35.6088	-3.51946	-8.51702
 495	1	7	0.031711	34.5277	-4.48794	-6.47752
 496	1	7	0.04419	35.9447	-3.50178	-6.08003
 497	1	7	-0.003555	36.0591	-5.27593	-6.04201
 498	1	9	-0.011509	34.6282	-8.95326	-8.43319
 499	1	9	-0.199369	34.8153	-9.41694	-7.10659
 500	1	9	-0.201771	34.3703	-10.6985	-6.71621
 501	1	9	0.15189	33.7639	-11.4892	-7.69557
 502	1	9	0.348083	33.6654	-11.0831	-9.01121
 503	1	9	-0.230673	34.1108	-9.82627	-9.42005
 504	1	10	0.174789	35.2179	-8.73483	-6.35974
 505	1	10	0.188672	34.4018	-11.0259	-5.68108
 506	1	10	0.201012	33.9043	-9.48584	-10.4286
 507	1	11	-0.381547	32.9939	-12.596	-7.53659
 508	1	1	-0.706002	32.8628	-11.8818	-9.64899
 509	1	2	0.698504	32.4392	-12.7419	-8.78482
 510	1	12	0.214303	30.2492	-4.15624	-9.96059
 511	1	1	-0.261357	28.7316	3.29816	-3.55072
 512	1	2	0.070556	28.7897	2.39972	-4.48291
 513	1	2	0.0266	27.8892	1.40422	-4.52232
 514	1	2	0.33777	27.8002	3.28686	-2.6329
 515	1	1	-0.659679	26.9258	2.31913	-2.63841
 516	1	2	0.428714	26.9731	1.41899	-3.568
 517	1	2	0.160826	27.6805	0.316694	-5.28613
 518	1	3	0.04557	26.1969	0.276147	-3.76415
 519	1	1	-0.463031	26.6949	-0.402009	-4.85767
 520	1	4	-0.07905	29.8153	2.56699	-5.27848
 521	1	5	-0.061319	27.8483	4.20251	-1.60626
 522	1	6	0.28436	25.5705	-0.384143	-2.59803
 523	1	6	-0.21175	25.4716	-1.92379	-2.72191
 524	1	7	0.07562	26.4532	-2.35904	-2.94825
 525	1	7	0.047171	24.7781	-2.20952	-3.52273
 526	1	7	0.053131	25.1173	-2.36685	-1.78326
 527	1	6	-0.120715	24.1864	0.215839	-2.2702
 528	1	8	0.007856	26.2198	-0.187387	-1.73486
 529	1	7	0.031711	23.5004	0.103767	-3.11905
 530	1	7	0.04419	24.2729	1.28489	-2.0381
 531	1	7	-0.003555	23.7413	-0.281497	-1.39902
 532	1	9	-0.011509	28.4994	-0.039543	-6.35717
 533	1	9	-0.199369	28.605	0.785364	-7.50922
 534	1	9	-0.201771	29.3818	0.389301	-8.62096
 535	1	9	0.15189	30.0298	-0.845564	-8.53993
 536	1	9	0.348083	29.9244	-1.65677	-7.43219
 537	1	9	-0.230673	29.1549	-1.29195	-6.32944
 538	1	10	0.174789	28.0614	1.72738	-7.54463
 539	1	10	0.188672	29.4505	0.99319	-9.52121
 540	1	10	0.201012	29.0357	-1.97678	-5.4971
 541	1	11	-0.381547	30.714	-1.52594	-9.49481
 542	1	1	-0.706002	30.4876	-2.79821	-7.68493
 543	1	2	0.698504	30.9962	-2.71621	-8.86997
 544	1	12	0.214303	28.7455	4.64338	-1.50687
 545	1	1	-0.261357	24.455	12.0066	2.2257
 546	1	2	0.070556	24.5598	11.0036	1.40795
 547	1	2	0.0266	24.9615	11.2093	0.144299
 548	1	2	0.33777	24.7357	13.2325	1.86159
 549	1	1	-0.659679	25.1165	13.4546	0.633221
 550	1	2	0.428714	25.2209	12.4628	-0.190784
 551	1	2	0.160826	25.1853	10.4372	-0.933889
 552	1	3	0.04557	25.626	12.4018	-1.5275
 553	1	1	-0.463031	25.5763	11.103	-1.96894
 554	1	4	-0.07905	24.2472	9.84375	1.92807
 555	1	5	-0.061319	24.6567	14.2739	2.76688
 556	1	6	0.28436	25.8551	13.5619	-2.40309
 557	1	6	-0.21175	27.077	14.4069	-1.98258
 558	1	7	0.07562	27.9742	13.7782	-1.92429
 559	1	7	0.047171	26.9197	14.8743	-1.00286
 560	1	7	0.053131	27.2674	15.2009	-2.7152
 561	1	6	-0.120715	24.5954	14.4346	-2.58749
 562	1	8	0.007856	26.0934	13.1512	-3.3931
 563	1	7	0.031711	24.7864	15.241	-3.30619
 564	1	7	0.04419	24.2831	14.8879	-1.63885
 565	1	7	-0.003555	23.7634	13.8305	-2.97098
 566	1	9	-0.011509	25.0691	9.05196	-0.966085
 567	1	9	-0.199369	24.1203	8.45538	-1.83485
 568	1	9	-0.201771	24.1773	7.07768	-2.13898
 569	1	9	0.15189	25.1949	6.33163	-1.53703
 570	1	9	0.348083	26.0879	6.89701	-0.648563
 571	1	9	-0.230673	26.0631	8.25797	-0.353538
 572	1	10	0.174789	23.408	9.09271	-2.35535
 573	1	10	0.188672	23.5297	6.63084	-2.88786
 574	1	10	0.201012	26.8642	8.69764	0.229477
 575	1	11	-0.381547	25.6672	5.1039	-1.88235
 576	1	1	-0.706002	27.0749	6.07859	-0.453274
 577	1	2	0.698504	26.8412	5.03264	-1.1695
 578	1	12	0.214303	24.0748	14.1032	3.57278
 579	1	13	0	-22.0145	0.657267	-20.0984
 580	1	12	0	24.6687	15.2116	2.38592

Velocities

   1	0.000110545	0.000440562	-0.000226618
   2	0.000246712	0.000372727	-0.000216824
   3	0.000225005	0.000230324	-0.000206097
   4	8.88106e-05	0.00026543	-0.000120456
   5	0.000107677	0.000284442	-0.000150042
   6	0.000206302	0.000258994	-5.89402e-05
   7	0.000250489	0.000185983	-0.000256536
   8	0.00018059	0.000534264	-1.984e-05
   9	0.000325434	0.000430625	-2.88172e-05
  10	0.000155396	0.00065247	-0.000280018
  11	-5.29949e-05	0.000586738	-9.88173e-05
  12	0.000235247	0.000297751	0.000226601
  13	1.04229e-05	8.39494e-05	0.000232139
  14	0.000409389	0.000279156	-0.000110727
  15	-0.000287314	-0.000474557	1.55373e-05
  16	-8.593e-05	9.66749e-05	0.000832273
  17	0.000300932	0.000289185	0.000226205
  18	0.000364158	0.000233271	0.000270533
  19	-0.000273963	0.000492978	-2.85101e-05
  20	0.000850649	0.000485166	-0.000126331
  21	0.000351598	3.82794e-05	0.000726985
  22	0.00039581	-7.53019e-05	-0.00029715
  23	0.000272541	-0.000119869	-0.000450202
  24	0.000254404	-0.000218158	-0.000389254
  25	0.000303474	-0.000167945	-0.00047232
  26	0.000430554	-0.000145244	-0.000413649
  27	0.000300159	-0.000169919	-0.000460319
  28	0.000193873	-0.000362621	-0.000515052
  29	0.000112669	-9.82783e-05	-0.000421074
  30	0.000278576	-2.01776e-05	-0.00047272
  31	0.000170164	-0.000368014	-0.000330898
  32	0.000100516	-0.000422915	-0.000663728
  33	-5.80199e-06	-0.000291508	-0.000577088
  34	-0.000305975	0.000913874	-0.000303417
  35	4.35746e-05	3.08368e-05	6.87042e-05
  36	-4.43832e-05	-0.00012997	6.93558e-05
  37	-5.30625e-05	-8.4866e-05	9.00298e-05
  38	0.000110698	0.000197636	6.61006e-05
  39	0.000130616	0.000238567	9.26216e-05
  40	5.59552e-05	0.000103744	6.89056e-05
  41	-0.000114304	-0.000122754	8.37199e-05
  42	0.000109901	0.000235143	6.79072e-05