pySIMM System Object

546 atoms
609 bonds
1008 angles
1532 dihedrals
64 impropers

13 atom types
18 bond types
33 angle types
13 dihedral types
2 improper types

-123.624974 123.624974 xlo xhi
-123.624974 123.624974 ylo yhi
-123.624974 123.624974 zlo zhi

Masses

   1	14.01	# n2
   2	12.01	# c2
   3	14.01	# na
   4	12.01	# c1
   5	14.01	# nh
   6	12.01	# c3
   7	1.008	# hc
   8	1.008	# h1
   9	12.01	# ca
  10	1.008	# ha
  11	16.0	# os
  12	1.008	# hn
  13	1.008	# h5

Pair Coeffs

   1	0.17	3.249998523775958	# n2
   2	0.086	3.3996695084235347	# c2
   3	0.17	3.249998523775958	# na
   4	0.21	3.3996695084235347	# c1
   5	0.17	3.249998523775958	# nh
   6	0.1094	3.3996695084235347	# c3
   7	0.0157	2.649532787749369	# hc
   8	0.0157	2.471353044121301	# h1
   9	0.086	3.3996695084235347	# ca
  10	0.015	2.59964245953351	# ha
  11	0.17	3.0000123434657784	# os
  12	0.0157	1.069078461768407	# hn
  13	0.015	2.421462715905442	# h5

Bond Coeffs

   1	300.9	1.5375	# c3,c3
   2	416.2	1.3872	# c2,nh
   3	330.6	1.0969	# c3,hc
   4	397.4	1.4015	# c2,na
   5	345.8	1.086	# ca,ha
   6	625.0	1.307	# c1,c2
   7	330.6	1.0969	# c3,h1
   8	404.6	1.0121	# hn,nh
   9	376.6	1.3696	# ca,os
  10	505.3	1.3676	# n2,na
  11	327.7	1.4629	# c3,na
  12	338.4	1.0912	# c2,h5
  13	569.4	1.3343	# c2,c2
  14	551.6	1.303	# ca,n2
  15	389.2	1.3596	# c2,os
  16	594.1	1.2817	# c2,n2
  17	461.1	1.3984	# ca,ca
  18	482.1	1.3846	# c2,ca

Angle Coeffs

   1	39.4	107.58	# hc,c3,hc
   2	52.26	121.7	# h5,c2,n2
   3	70.06	121.62	# c1,c2,c2
   4	69.58	119.2	# ca,ca,os
   5	78.34	113.82	# n2,c2,n2
   6	70.52	117.58	# c2,n2,na
   7	46.39	109.56	# c3,c3,h1
   8	71.15	126.01	# c2,c2,n2
   9	62.86	111.51	# c3,c3,c3
  10	49.83	108.78	# h1,c3,na
  11	70.0	119.94	# c2,n2,ca
  12	65.52	112.88	# c3,c3,na
  13	69.36	117.0	# c2,c2,ca
  14	71.79	124.27	# n2,c2,nh
  15	46.34	109.8	# c3,c3,hc
  16	65.56	125.0	# c2,na,n2
  17	74.41	119.78	# n2,c2,os
  18	70.62	119.57	# ca,ca,n2
  19	48.18	119.88	# ca,ca,ha
  20	69.14	121.94	# c2,c2,na
  21	71.53	123.62	# n2,c2,na
  22	66.78	120.6	# c2,ca,ca
  23	69.3	121.81	# c2,c2,c2
  24	64.17	118.2	# c2,os,ca
  25	40.07	115.12	# hn,nh,hn
  26	48.59	115.09	# c2,nh,hn
  27	52.71	110.95	# h5,c2,os
  28	65.54	119.24	# c3,na,n2
  29	66.62	120.02	# ca,ca,ca
  30	71.11	118.18	# c2,n2,c2
  31	63.85	117.2	# c2,na,c3
  32	63.96	124.73	# c2,nh,c2
  33	73.36	114.3	# nh,c2,os

Dihedral Coeffs

   1	1	6.65	2	180	# X,c2,c2,X
   2	1	3.625	2	180	# X,ca,ca,X
   3	1	1.7	2	180	# X,n2,na,X
   4	1	0.7	2	180	# X,c2,ca,X
   5	1	0.15555555555555556	3	0	# X,c3,c3,X
   6	1	1.05	2	180	# X,c2,os,X
   7	1	0.0	3	180	# X,ca,n2,X
   8	1	4.15	2	180	# X,c2,n2,X
   9	1	0.9	2	180	# X,ca,os,X
  10	1	0.625	2	180	# X,c2,na,X
  11	1	0.0	2	0	# X,c3,na,X
  12	1	0.16	3	0	# hc,c3,c3,c3
  13	1	0.675	2	180	# X,c2,nh,X

Improper Coeffs

   1	1.1	-1	2	# ca,X,X,ha
   2	1.1	-1	2	# ca,ca,ca,c2

Atoms

   1	1	1	-0.261357	2.9027	8.44596	16.555
   2	1	2	0.070556	3.94703	8.59303	17.3098
   3	1	2	0.0266	5.17554	8.39068	16.8077
   4	1	2	0.33777	2.99738	8.10419	15.2941
   5	1	1	-0.659679	4.18226	7.91156	14.785
   6	1	2	0.428714	5.23277	8.05525	15.5298
   7	1	2	0.160826	6.4299	8.42883	17.2929
   8	1	3	0.04557	6.59335	7.89671	15.251
   9	1	1	-0.463031	7.31497	8.12511	16.4015
  10	1	4	-0.07905	3.66095	8.93055	18.5419
  11	1	5	-0.061319	1.89146	7.86871	14.5062
  12	1	6	0.28436	7.09969	7.06834	14.1395
  13	1	6	-0.21175	6.97784	7.76863	12.7691
  14	1	7	0.07562	7.47169	8.74781	12.7935
  15	1	7	0.047171	5.92674	7.92028	12.4939
  16	1	7	0.053131	7.45434	7.16812	11.9842
  17	1	6	-0.120715	6.48771	5.64839	14.0945
  18	1	8	0.007856	8.17332	6.9344	14.3247
  19	1	7	0.031711	5.42545	5.677	13.8227
  20	1	7	0.04419	6.57879	5.15753	15.0715
  21	1	7	-0.003555	7.00675	5.02675	13.3543
  22	1	9	-0.011509	6.70463	8.69917	18.6306
  23	1	9	-0.199369	7.13337	9.9924	19.0272
  24	1	9	-0.201771	7.45758	10.2703	20.3748
  25	1	9	0.15189	7.34138	9.21996	21.2904
  26	1	9	0.348083	6.92938	7.95848	20.9093
  27	1	9	-0.230673	6.60661	7.66226	19.5864
  28	1	10	0.174789	7.22555	10.775	18.2769
  29	1	10	0.188672	7.79687	11.2511	20.6958
  30	1	10	0.201012	6.30447	6.65801	19.313
  31	1	11	-0.381547	7.61129	9.19641	22.6226
  32	1	1	-0.706002	6.93491	7.16712	21.9388
  33	1	2	0.698504	7.33253	7.88825	22.9333
  34	1	12	0.214303	2.13217	7.33976	13.686
  35	1	1	-0.261357	-7.01028	5.90888	13.8179
  36	1	2	0.070556	-5.8617	6.05224	14.3964
  37	1	2	0.0266	-5.47371	5.19904	15.359
  38	1	2	0.33777	-7.82857	4.94145	14.1388
  39	1	1	-0.659679	-7.46481	4.08662	15.055
  40	1	2	0.428714	-6.32091	4.22512	15.6482
  41	1	2	0.160826	-4.39036	5.06661	16.1439
  42	1	3	0.04557	-5.69493	3.46443	16.6455
  43	1	1	-0.463031	-4.4712	4.03841	16.9206
  44	1	4	-0.07905	-5.18516	7.06184	13.9099
  45	1	5	-0.061319	-9.04493	4.81488	13.507
  46	1	6	0.28436	-6.45438	2.78862	17.7199
  47	1	6	-0.21175	-7.56875	1.83099	17.2414
  48	1	7	0.07562	-8.41679	2.38065	16.8155
  49	1	7	0.047171	-7.94588	1.23029	18.078
  50	1	7	0.053131	-7.18644	1.14724	16.4807
  51	1	6	-0.120715	-7.01387	3.78317	18.7613
  52	1	8	0.007856	-5.72317	2.16132	18.2461
  53	1	7	0.031711	-7.76777	4.44104	18.311
  54	1	7	0.04419	-6.21001	4.40984	19.1679
  55	1	7	-0.003555	-7.47909	3.24832	19.599
  56	1	9	-0.011509	-3.33656	5.9745	16.0956
  57	1	9	-0.199369	-3.51247	7.31802	16.5224
  58	1	9	-0.201771	-2.46985	8.26389	16.3973
  59	1	9	0.15189	-1.26917	7.81876	15.8371
  60	1	9	0.348083	-1.08809	6.5088	15.4469
  61	1	9	-0.230673	-2.08785	5.55347	15.5969
  62	1	10	0.174789	-4.4745	7.62851	16.926
  63	1	10	0.188672	-2.59337	9.30117	16.6961
  64	1	10	0.201012	-1.91073	4.52388	15.3146
  65	1	11	-0.381547	-0.131709	8.50481	15.5513
  66	1	1	-0.706002	0.0774235	6.37297	14.8934
  67	1	2	0.698504	0.654724	7.52305	14.9997
  68	1	12	0.214303	-9.00148	4.32326	12.6317
  69	1	1	-0.261357	-14.2062	11.4296	10.0394
  70	1	2	0.070556	-13.8073	10.5883	10.9423
  71	1	2	0.0266	-14.6985	9.99895	11.7545
  72	1	2	0.33777	-15.4691	11.7285	9.87446
  73	1	1	-0.659679	-16.3512	11.1825	10.6677
  74	1	2	0.428714	-15.9625	10.3424	11.5732
  75	1	2	0.160826	-14.6423	9.11576	12.7683
  76	1	3	0.04557	-16.6772	9.62297	12.5303
  77	1	1	-0.463031	-15.8022	8.87069	13.2822
  78	1	4	-0.07905	-12.5105	10.412	10.9596
  79	1	5	-0.061319	-15.8339	12.5928	8.86386
  80	1	6	0.28436	-18.0597	9.9667	12.9135
  81	1	6	-0.21175	-18.3104	9.87452	14.4378
  82	1	7	0.07562	-19.3255	10.2055	14.6874
  83	1	7	0.047171	-17.6014	10.5084	14.9849
  84	1	7	0.053131	-18.1892	8.84297	14.7931
  85	1	6	-0.120715	-19.0887	9.11013	12.1467
  86	1	8	0.007856	-18.2282	11.0131	12.6289
  87	1	7	0.031711	-18.9616	8.04538	12.3805
  88	1	7	0.04419	-18.9666	9.24053	11.064
  89	1	7	-0.003555	-20.1137	9.40082	12.4097
  90	1	9	-0.011509	-13.4524	8.56501	13.2358
  91	1	9	-0.199369	-12.9509	8.9733	14.4981
  92	1	9	-0.201771	-11.7921	8.38421	15.0476
  93	1	9	0.15189	-11.1716	7.38276	14.2981
  94	1	9	0.348083	-11.6532	6.97343	13.0708
  95	1	9	-0.230673	-12.7969	7.54273	12.5088
  96	1	10	0.174789	-13.4866	9.73576	15.0599
  97	1	10	0.188672	-11.404	8.67046	16.0209
  98	1	10	0.201012	-13.1737	7.18386	11.5578
  99	1	11	-0.381547	-10.0942	6.62015	14.6089
 100	1	1	-0.706002	-10.9241	5.99323	12.6245
 101	1	2	0.698504	-10.0105	5.79496	13.5147
 102	1	12	0.214303	-15.0351	13.0986	8.52321
 103	1	1	-0.261357	-17.1599	6.23841	3.22167
 104	1	2	0.070556	-17.4676	7.41583	3.65471
 105	1	2	0.0266	-17.8013	8.38923	2.79308
 106	1	2	0.33777	-17.1369	5.94649	1.94743
 107	1	1	-0.659679	-17.488	6.86485	1.08478
 108	1	2	0.428714	-17.7984	8.05084	1.51428
 109	1	2	0.160826	-18.1439	9.68753	2.90251
 110	1	3	0.04557	-18.1586	9.2201	0.844512
 111	1	1	-0.463031	-18.3548	10.2386	1.7521
 112	1	4	-0.07905	-17.3769	7.49601	4.95822
 113	1	5	-0.061319	-16.7495	4.6926	1.52201
 114	1	6	0.28436	-18.2294	9.33077	-0.623885
 115	1	6	-0.21175	-16.8323	9.46255	-1.26878
 116	1	7	0.07562	-16.9101	9.46431	-2.36301
 117	1	7	0.047171	-16.1878	8.62405	-0.977127
 118	1	7	0.053131	-16.345	10.3948	-0.956394
 119	1	6	-0.120715	-19.1444	10.4852	-1.09554
 120	1	8	0.007856	-18.6753	8.39797	-0.99209
 121	1	7	0.031711	-18.7343	11.4584	-0.795326
 122	1	7	0.04419	-20.1455	10.3892	-0.65705
 123	1	7	-0.003555	-19.2498	10.4817	-2.18772
 124	1	9	-0.011509	-18.2067	10.2931	4.15355
 125	1	9	-0.199369	-19.2889	10.0077	5.02678
 126	1	9	-0.201771	-19.2814	10.4627	6.36345
 127	1	9	0.15189	-18.1875	11.2311	6.76993
 128	1	9	0.348083	-17.1613	11.5622	5.90776
 129	1	9	-0.230673	-17.1329	11.0988	4.59321
 130	1	10	0.174789	-20.0984	9.36851	4.68039
 131	1	10	0.188672	-20.0598	10.1885	7.06954
 132	1	10	0.201012	-16.2776	11.3039	3.95922
 133	1	11	-0.381547	-17.8521	11.6603	8.01419
 134	1	1	-0.706002	-16.224	12.1751	6.56579
 135	1	2	0.698504	-16.6097	12.203	7.79619
 136	1	12	0.214303	-16.9284	4.49029	0.554853
 137	1	1	-0.261357	-11.9803	-0.472057	7.89594
 138	1	2	0.070556	-12.2955	0.11743	6.78392
 139	1	2	0.0266	-11.3975	0.881902	6.13858
 140	1	2	0.33777	-10.7942	-0.350311	8.4336
 141	1	1	-0.659679	-9.91047	0.386207	7.81925
 142	1	2	0.428714	-10.2111	0.976136	6.71105
 143	1	2	0.160826	-11.3842	1.6387	5.02468
 144	1	3	0.04557	-9.46636	1.82713	5.89883
 145	1	1	-0.463031	-10.2587	2.25632	4.85643
 146	1	4	-0.07905	-13.5397	-0.0981016	6.44072
 147	1	5	-0.061319	-10.5291	-0.960394	9.6452
 148	1	6	0.28436	-8.23025	2.4815	6.37459
 149	1	6	-0.21175	-8.49882	3.53801	7.4712
 150	1	7	0.07562	-7.56088	3.99856	7.80539
 151	1	7	0.047171	-8.9726	3.07757	8.34722
 152	1	7	0.053131	-9.15945	4.33068	7.09858
 153	1	6	-0.120715	-7.39729	3.10053	5.22835
 154	1	8	0.007856	-7.60999	1.69649	6.82618
 155	1	7	0.031711	-6.46165	3.5263	5.61181
 156	1	7	0.04419	-7.95546	3.90066	4.72537
 157	1	7	-0.003555	-7.13988	2.33968	4.48079
 158	1	9	-0.011509	-12.4967	1.78581	4.19928
 159	1	9	-0.199369	-13.0328	0.684529	3.47808
 160	1	9	-0.201771	-14.1574	0.840953	2.63491
 161	1	9	0.15189	-14.6992	2.12534	2.52374
 162	1	9	0.348083	-14.1669	3.19895	3.20575
 163	1	9	-0.230673	-13.0661	3.06832	4.0474
 164	1	10	0.174789	-12.5738	-0.29652	3.58422
 165	1	10	0.188672	-14.5872	0.00623156	2.08878
 166	1	10	0.201012	-12.6638	3.93511	4.56087
 167	1	11	-0.381547	-15.7541	2.57134	1.78518
 168	1	1	-0.706002	-14.8437	4.26638	2.92448
 169	1	2	0.698504	-15.7826	3.90447	2.11637
 170	1	12	0.214303	-11.3365	-1.34793	10.0996
 171	1	1	-0.261357	-4.11479	4.25076	12.1245
 172	1	2	0.070556	-4.81702	3.1757	12.3015
 173	1	2	0.0266	-4.28827	2.10877	12.926
 174	1	2	0.33777	-2.87467	4.34312	12.5319
 175	1	1	-0.659679	-2.34527	3.32793	13.1561
 176	1	2	0.428714	-3.04128	2.25296	13.3397
 177	1	2	0.160826	-4.69955	0.870392	13.269
 178	1	3	0.04557	-2.72589	1.05622	13.9767
 179	1	1	-0.463031	-3.79671	0.196394	13.9022
 180	1	4	-0.07905	-6.03188	3.30323	11.8327
 181	1	5	-0.061319	-2.12847	5.49252	12.3809
 182	1	6	0.28436	-1.35696	0.683308	14.3689
 183	1	6	-0.21175	-0.827805	-0.523196	13.5616
 184	1	7	0.07562	-1.44244	-1.41396	13.7449
 185	1	7	0.047171	0.207621	-0.756328	13.838
 186	1	7	0.053131	-0.853412	-0.307409	12.4863
 187	1	6	-0.120715	-1.25794	0.416657	15.8856
 188	1	8	0.007856	-0.698203	1.53224	14.1471
 189	1	7	0.031711	-1.57249	1.30257	16.4518
 190	1	7	0.04419	-0.226868	0.177743	16.1734
 191	1	7	-0.003555	-1.90068	-0.422892	16.1804
 192	1	9	-0.011509	-5.9553	0.355903	12.9566
 193	1	9	-0.199369	-6.76746	-0.192355	13.9828
 194	1	9	-0.201771	-8.05931	-0.696254	13.7092
 195	1	9	0.15189	-8.4826	-0.663363	12.3777
 196	1	9	0.348083	-7.66764	-0.196061	11.3697
 197	1	9	-0.230673	-6.39638	0.306942	11.6165
 198	1	10	0.174789	-6.37656	-0.225149	14.9962
 199	1	10	0.188672	-8.70001	-1.09336	14.4913
 200	1	10	0.201012	-5.79133	0.670481	10.7936
 201	1	11	-0.381547	-9.66827	-1.03697	11.8231
 202	1	1	-0.706002	-8.29194	-0.265999	10.2403
 203	1	2	0.698504	-9.46738	-0.731182	10.4978
 204	1	12	0.214303	-1.34584	5.52967	13.014
 205	1	1	-0.261357	0.827456	9.8871	3.98865
 206	1	2	0.070556	0.50125	9.23702	5.06194
 207	1	2	0.0266	1.36121	8.36166	5.60427
 208	1	2	0.33777	1.98908	9.72947	3.40809
 209	1	1	-0.659679	2.83334	8.87065	3.91005
 210	1	2	0.428714	2.5249	8.2272	4.99014
 211	1	2	0.160826	1.34854	7.51732	6.64801
 212	1	3	0.04557	3.22786	7.24963	5.7027
 213	1	1	-0.463031	2.44006	6.84147	6.75693
 214	1	4	-0.07905	-0.692078	9.52797	5.51341
 215	1	5	-0.061319	2.24639	10.3227	2.19621
 216	1	6	0.28436	4.02781	6.25644	4.96411
 217	1	6	-0.21175	3.1291	5.28896	4.15344
 218	1	7	0.07562	3.7173	4.5129	3.65348
 219	1	7	0.047171	2.57423	5.83517	3.38089
 220	1	7	0.053131	2.40193	4.79033	4.80673
 221	1	6	-0.120715	4.96619	5.46521	5.90671
 222	1	8	0.007856	4.66257	6.7976	4.25044
 223	1	7	0.031711	5.47319	4.6533	5.37846
 224	1	7	0.04419	4.40738	5.01289	6.73587
 225	1	7	-0.003555	5.7331	6.12464	6.33169
 226	1	9	-0.011509	0.243365	7.25404	7.45127
 227	1	9	-0.199369	-0.915965	6.66637	6.87958
 228	1	9	-0.201771	-1.96614	6.18837	7.69168
 229	1	9	0.15189	-1.81405	6.32011	9.07377
 230	1	9	0.348083	-0.694832	6.89586	9.63994
 231	1	9	-0.230673	0.361713	7.35783	8.85598
 232	1	10	0.174789	-0.968913	6.52575	5.80179
 233	1	10	0.188672	-2.8324	5.68286	7.27448
 234	1	10	0.201012	1.27384	7.71313	9.32189
 235	1	11	-0.381547	-2.57245	5.79988	10.0704
 236	1	1	-0.706002	-0.733182	6.74024	10.9297
 237	1	2	0.698504	-1.82408	6.09766	11.183
 238	1	12	0.214303	1.6544	9.95836	1.4709
 239	1	1	-0.261357	5.31626	12.4962	-3.83364
 240	1	2	0.070556	4.99484	13.131	-2.76283
 241	1	2	0.0266	4.56763	14.4004	-2.82907
 242	1	2	0.33777	5.24344	13.0283	-5.02548
 243	1	1	-0.659679	4.84098	14.2722	-5.12284
 244	1	2	0.428714	4.52795	14.9293	-4.04178
 245	1	2	0.160826	4.11672	15.295	-1.92849
 246	1	3	0.04557	4.04038	16.222	-3.829
 247	1	1	-0.463031	3.77832	16.4102	-2.48688
 248	1	4	-0.07905	5.15214	12.3643	-1.71265
 249	1	5	-0.061319	5.52564	12.2498	-6.14122
 250	1	6	0.28436	3.7478	17.1821	-4.91144
 251	1	6	-0.21175	3.5028	18.6194	-4.39062
 252	1	7	0.07562	4.30597	18.9288	-3.71007
 253	1	7	0.047171	2.5538	18.6793	-3.84168
 254	1	7	0.053131	3.46492	19.3359	-5.22001
 255	1	6	-0.120715	2.55794	16.7394	-5.79272
 256	1	8	0.007856	4.63955	17.2194	-5.54988
 257	1	7	0.031711	2.35318	17.4841	-6.57207
 258	1	7	0.04419	1.65011	16.6172	-5.18841
 259	1	7	-0.003555	2.76834	15.7854	-6.29087
 260	1	9	-0.011509	3.91344	14.8511	-0.626356
 261	1	9	-0.199369	4.94131	14.9174	0.350234
 262	1	9	-0.201771	4.86656	14.132	1.52554
 263	1	9	0.15189	3.73862	13.3169	1.68623
 264	1	9	0.348083	2.70727	13.3113	0.769547
 265	1	9	-0.230673	2.76503	14.0653	-0.395411
 266	1	10	0.174789	5.84453	15.4858	0.137452
 267	1	10	0.188672	5.6938	14.0732	2.22749
 268	1	10	0.201012	2.01702	13.9188	-1.16632
 269	1	11	-0.381547	3.55732	12.2547	2.51948
 270	1	1	-0.706002	1.93873	12.2906	0.985055
 271	1	2	0.698504	2.42424	11.6699	2.00317
 272	1	12	0.214303	4.81747	12.3325	-6.84812
 273	1	1	-0.261357	7.17023	5.60075	0.728399
 274	1	2	0.070556	6.9583	6.22994	-0.382616
 275	1	2	0.0266	5.71824	6.61516	-0.737573
 276	1	2	0.33777	6.19931	5.30149	1.54993
 277	1	1	-0.659679	4.97712	5.58449	1.19626
 278	1	2	0.428714	4.76016	6.21631	0.0857615
 279	1	2	0.160826	5.14512	7.32656	-1.73673
 280	1	3	0.04557	3.56989	6.65847	-0.481038
 281	1	1	-0.463031	3.85194	7.35053	-1.63713
 282	1	4	-0.07905	8.07543	6.33707	-1.05537
 283	1	5	-0.061319	6.4046	4.76083	2.80131
 284	1	6	0.28436	2.26787	6.05719	-0.127202
 285	1	6	-0.21175	1.51364	5.46141	-1.33885
 286	1	7	0.07562	2.13835	4.72356	-1.85749
 287	1	7	0.047171	1.24065	6.24423	-2.05783
 288	1	7	0.053131	0.593878	4.95818	-1.01514
 289	1	6	-0.120715	1.373	7.05355	0.637571
 290	1	8	0.007856	2.46487	5.22043	0.555029
 291	1	7	0.031711	0.462135	6.56058	0.999607
 292	1	7	0.04419	1.08146	7.89157	-0.00781433
 293	1	7	-0.003555	1.90611	7.45621	1.50643
 294	1	9	-0.011509	5.83714	8.08221	-2.70032
 295	1	9	-0.199369	7.0101	8.8099	-2.35647
 296	1	9	-0.201771	7.64418	9.67804	-3.26557
 297	1	9	0.15189	7.04252	9.86084	-4.50866
 298	1	9	0.348083	5.8474	9.25295	-4.83378
 299	1	9	-0.230673	5.22718	8.35841	-3.9531
 300	1	10	0.174789	7.39327	8.77904	-1.34097
 301	1	10	0.188672	8.49188	10.2894	-2.97036
 302	1	10	0.201012	4.23473	7.98722	-4.18316
 303	1	11	-0.381547	7.22367	10.91	-5.34548
 304	1	1	-0.706002	5.28126	9.93436	-5.79074
 305	1	2	0.698504	6.03229	10.9634	-6.02484
 306	1	12	0.214303	5.54417	4.50669	3.25149
 307	1	1	-0.261357	5.6785	-1.80521	1.42365
 308	1	2	0.070556	6.61895	-1.12878	1.99447
 309	1	2	0.0266	7.58882	-1.75154	2.68688
 310	1	2	0.33777	5.63367	-3.11012	1.47375
 311	1	1	-0.659679	6.5474	-3.74492	2.15888
 312	1	2	0.428714	7.49121	-3.06854	2.73917
 313	1	2	0.160826	8.69434	-1.36651	3.35936
 314	1	3	0.04557	8.59611	-3.46949	3.48479
 315	1	1	-0.463031	9.34429	-2.37113	3.8498
 316	1	4	-0.07905	6.47207	0.150422	1.75631
 317	1	5	-0.061319	4.67429	-3.78095	0.745254
 318	1	6	0.28436	8.93886	-4.87982	3.72707
 319	1	6	-0.21175	9.07741	-5.19102	5.2327
 320	1	7	0.07562	9.20369	-6.26784	5.39661
 321	1	7	0.047171	8.18226	-4.86528	5.77714
 322	1	7	0.053131	9.94455	-4.67162	5.66041
 323	1	6	-0.120715	10.2039	-5.31503	2.9562
 324	1	8	0.007856	8.10822	-5.49002	3.35121
 325	1	7	0.031711	10.0986	-5.09519	1.88634
 326	1	7	0.04419	10.3723	-6.39337	3.06577
 327	1	7	-0.003555	11.0933	-4.78951	3.32698
 328	1	9	-0.011509	9.01316	-0.0147351	3.40313
 329	1	9	-0.199369	9.92669	0.510805	2.4565
 330	1	9	-0.201771	9.96821	1.89558	2.1927
 331	1	9	0.15189	9.09885	2.71198	2.91945
 332	1	9	0.348083	8.27227	2.21382	3.91067
 333	1	9	-0.230673	8.21491	0.850065	4.18213
 334	1	10	0.174789	10.4982	-0.172617	1.83174
 335	1	10	0.188672	10.5349	2.3014	1.3591
 336	1	10	0.201012	7.42772	0.465118	4.82052
 337	1	11	-0.381547	8.61007	3.91597	2.53446
 338	1	1	-0.706002	7.30154	3.05002	4.114
 339	1	2	0.698504	7.45893	4.01039	3.27159
 340	1	12	0.214303	3.76767	-3.64144	1.15448
 341	1	1	-0.261357	3.90689	-0.808297	-8.35212
 342	1	2	0.070556	4.11325	-0.999995	-7.09359
 343	1	2	0.0266	4.22929	0.0464939	-6.26444
 344	1	2	0.33777	3.84071	0.387322	-8.87812
 345	1	1	-0.659679	3.90221	1.42109	-8.08379
 346	1	2	0.428714	4.09662	1.24746	-6.80988
 347	1	2	0.160826	4.46982	0.187998	-4.95183
 348	1	3	0.04557	4.23083	2.15074	-5.73981
 349	1	1	-0.463031	4.4825	1.42761	-4.5916
 350	1	4	-0.07905	4.17862	-2.27135	-6.78809
 351	1	5	-0.061319	3.7667	0.551272	-10.2485
 352	1	6	0.28436	4.67275	3.56433	-5.85255
 353	1	6	-0.21175	3.9612	4.46353	-4.81353
 354	1	7	0.07562	4.07719	4.05634	-3.80121
 355	1	7	0.047171	2.88868	4.54142	-5.03097
 356	1	7	0.053131	4.38838	5.47379	-4.81516
 357	1	6	-0.120715	4.56979	4.22392	-7.24871
 358	1	8	0.007856	5.7381	3.56667	-5.58868
 359	1	7	0.031711	4.87706	5.2762	-7.20399
 360	1	7	0.04419	3.54074	4.18674	-7.62806
 361	1	7	-0.003555	5.23061	3.72656	-7.96925
 362	1	9	-0.011509	4.77695	-0.901848	-4.13969
 363	1	9	-0.199369	6.01644	-1.57498	-4.31069
 364	1	9	-0.201771	6.4086	-2.6141	-3.44061
 365	1	9	0.15189	5.52061	-2.95673	-2.41909
 366	1	9	0.348083	4.30115	-2.32997	-2.26083
 367	1	9	-0.230673	3.90896	-1.27812	-3.09017
 368	1	10	0.174789	6.69093	-1.25848	-5.10393
 369	1	10	0.188672	7.37656	-3.10044	-3.52259
 370	1	10	0.201012	2.98871	-0.740114	-2.8946
 371	1	11	-0.381547	5.71932	-3.77191	-1.35333
 372	1	1	-0.706002	3.75396	-2.72878	-1.15129
 373	1	2	0.698504	4.58549	-3.55448	-0.609626
 374	1	12	0.214303	3.634	1.49177	-10.574
 375	1	1	-0.261357	6.75819	-6.86886	-15.9019
 376	1	2	0.070556	6.22349	-5.99543	-15.1093
 377	1	2	0.0266	4.89285	-5.96168	-14.9135
 378	1	2	0.33777	6.03619	-7.73643	-16.5583
 379	1	1	-0.659679	4.73645	-7.70329	-16.4147
 380	1	2	0.428714	4.1956	-6.84489	-15.6097
 381	1	2	0.160826	4.0307	-5.23188	-14.1751
 382	1	3	0.04557	2.86105	-6.6017	-15.2817
 383	1	1	-0.463031	2.79982	-5.58465	-14.3551
 384	1	4	-0.07905	7.13798	-5.20522	-14.6083
 385	1	5	-0.061319	6.66148	-8.67831	-17.3507
 386	1	6	0.28436	1.77073	-7.55207	-15.5785
 387	1	6	-0.21175	0.366694	-6.94113	-15.3514
 388	1	7	0.07562	-0.417695	-7.62498	-15.698
 389	1	7	0.047171	0.260408	-5.99621	-15.8988
 390	1	7	0.053131	0.197006	-6.73765	-14.2861
 391	1	6	-0.120715	1.91084	-8.86761	-14.7808
 392	1	8	0.007856	1.84079	-7.79914	-16.6458
 393	1	7	0.031711	1.02841	-9.5038	-14.914
 394	1	7	0.04419	2.01816	-8.66424	-13.7085
 395	1	7	-0.003555	2.78869	-9.43485	-15.1148
 396	1	9	-0.011509	4.4261	-4.21946	-13.3001
 397	1	9	-0.199369	5.39172	-4.47321	-12.2901
 398	1	9	-0.201771	5.81493	-3.45511	-11.4138
 399	1	9	0.15189	5.21049	-2.20662	-11.5533
 400	1	9	0.348083	4.20049	-1.96728	-12.4607
 401	1	9	-0.230673	3.78018	-2.95929	-13.3484
 402	1	10	0.174789	5.81515	-5.47019	-12.1881
 403	1	10	0.188672	6.54436	-3.6341	-10.6292
 404	1	10	0.201012	2.9563	-2.77167	-14.0285
 405	1	11	-0.381547	5.32332	-1.12548	-10.7538
 406	1	1	-0.706002	3.65283	-0.814095	-12.1997
 407	1	2	0.698504	4.27776	-0.340776	-11.1724
 408	1	12	0.214303	7.58235	-8.90393	-17.0204
 409	1	1	-0.261357	-1.03203	-12.2139	-16.3266
 410	1	2	0.070556	0.0997409	-12.189	-16.9581
 411	1	2	0.0266	0.704056	-13.335	-17.3112
 412	1	2	0.33777	-1.62064	-13.3368	-16.0044
 413	1	1	-0.659679	-1.07935	-14.4645	-16.3827
 414	1	2	0.428714	0.0627824	-14.4472	-16.9963
 415	1	2	0.160826	1.85279	-13.6643	-17.933
 416	1	3	0.04557	0.886507	-15.4736	-17.4597
 417	1	1	-0.463031	2.01233	-14.9409	-18.0463
 418	1	4	-0.07905	0.529114	-10.9763	-17.1977
 419	1	5	-0.061319	-2.8434	-13.3328	-15.3705
 420	1	6	0.28436	0.48121	-16.888	-17.5174
 421	1	6	-0.21175	1.2439	-17.7405	-16.4815
 422	1	7	0.07562	0.888163	-18.7778	-16.4946
 423	1	7	0.047171	1.09607	-17.3421	-15.4699
 424	1	7	0.053131	2.32061	-17.742	-16.6945
 425	1	6	-0.120715	0.640186	-17.4881	-18.9337
 426	1	8	0.007856	-0.585033	-16.9409	-17.2642
 427	1	7	0.031711	1.69135	-17.4772	-19.2503
 428	1	7	0.04419	0.0595964	-16.9118	-19.6647
 429	1	7	-0.003555	0.287146	-18.5266	-18.9618
 430	1	9	-0.011509	2.76136	-12.6968	-18.3439
 431	1	9	-0.199369	2.52972	-11.949	-19.5273
 432	1	9	-0.201771	3.37934	-10.8795	-19.8828
 433	1	9	0.15189	4.46643	-10.624	-19.044
 434	1	9	0.348083	4.73066	-11.3858	-17.9232
 435	1	9	-0.230673	3.88318	-12.4192	-17.5323
 436	1	10	0.174789	1.65283	-12.1651	-20.1336
 437	1	10	0.188672	3.17952	-10.2428	-20.7398
 438	1	10	0.201012	4.05771	-12.9467	-16.6013
 439	1	11	-0.381547	5.31448	-9.56723	-19.0473
 440	1	1	-0.706002	5.70012	-10.8476	-17.2491
 441	1	2	0.698504	6.00613	-9.764	-17.8793
 442	1	12	0.214303	-3.56629	-13.7588	-15.9211
 443	1	1	-0.261357	0.266067	-16.2853	-8.07253
 444	1	2	0.070556	-0.737257	-15.7652	-8.69595
 445	1	2	0.0266	-1.69845	-15.1107	-8.02376
 446	1	2	0.33777	0.402427	-16.2014	-6.77471
 447	1	1	-0.659679	-0.527713	-15.5949	-6.08795
 448	1	2	0.428714	-1.54326	-15.0767	-6.70943
 449	1	2	0.160826	-2.84289	-14.4712	-8.34046
 450	1	3	0.04557	-2.66808	-14.4141	-6.22322
 451	1	1	-0.463031	-3.47641	-14.0654	-7.28628
 452	1	4	-0.07905	-0.661881	-16.029	-9.97518
 453	1	5	-0.061319	1.52646	-16.6978	-6.1466
 454	1	6	0.28436	-3.11654	-14.6111	-4.82817
 455	1	6	-0.21175	-4.64786	-14.7671	-4.67349
 456	1	7	0.07562	-4.91833	-14.936	-3.62393
 457	1	7	0.047171	-5.00879	-15.6232	-5.25697
 458	1	7	0.053131	-5.17193	-13.8682	-5.02193
 459	1	6	-0.120715	-2.58705	-13.4991	-3.89869
 460	1	8	0.007856	-2.67749	-15.554	-4.47672
 461	1	7	0.031711	-1.49221	-13.4449	-3.94928
 462	1	7	0.04419	-2.86596	-13.6969	-2.85621
 463	1	7	-0.003555	-2.993	-12.5207	-4.18499
 464	1	9	-0.011509	-3.27544	-14.3211	-9.66157
 465	1	9	-0.199369	-4.57659	-14.7557	-10.0264
 466	1	9	-0.201771	-5.01982	-14.6969	-11.3674
 467	1	9	0.15189	-4.12547	-14.1909	-12.3157
 468	1	9	0.348083	-2.87998	-13.7149	-11.9646
 469	1	9	-0.230673	-2.43748	-13.734	-10.6429
 470	1	10	0.174789	-5.2331	-15.1603	-9.25802
 471	1	10	0.188672	-6.00329	-15.0509	-11.6626
 472	1	10	0.201012	-1.44584	-13.3646	-10.4058
 473	1	11	-0.381547	-4.25276	-14.0895	-13.666
 474	1	1	-0.706002	-2.24415	-13.3328	-13.0318
 475	1	2	0.698504	-3.03237	-13.5729	-14.0264
 476	1	12	0.214303	1.7932	-16.1417	-5.35412
 477	1	1	-0.261357	6.16151	-16.5367	-14.2938
 478	1	2	0.070556	5.78533	-16.9237	-13.1106
 479	1	2	0.0266	6.70215	-17.1703	-12.1603
 480	1	2	0.33777	7.42394	-16.3691	-14.6018
 481	1	1	-0.659679	8.32583	-16.6146	-13.6932
 482	1	2	0.428714	7.96352	-17.0041	-12.5169
 483	1	2	0.160826	6.68903	-17.5405	-10.866
 484	1	3	0.04557	8.71709	-17.2994	-11.3839
 485	1	1	-0.463031	7.86941	-17.6143	-10.3471
 486	1	4	-0.07905	4.48813	-17.0106	-12.9588
 487	1	5	-0.061319	7.79779	-15.8552	-15.826
 488	1	6	0.28436	10.1067	-16.8358	-11.2261
 489	1	6	-0.21175	11.1023	-18.011	-11.3122
 490	1	7	0.07562	10.8881	-18.7569	-10.5362
 491	1	7	0.047171	12.1335	-17.6606	-11.1824
 492	1	7	0.053131	11.0298	-18.5031	-12.2903
 493	1	6	-0.120715	10.3227	-16.0276	-9.9263
 494	1	8	0.007856	10.3296	-16.1566	-12.0587
 495	1	7	0.031711	10.2412	-16.6737	-9.04274
 496	1	7	0.04419	9.57086	-15.2331	-9.8378
 497	1	7	-0.003555	11.3142	-15.5581	-9.91973
 498	1	9	-0.011509	5.53947	-17.7719	-10.1179
 499	1	9	-0.199369	4.8121	-18.98	-10.2746
 500	1	9	-0.201771	3.71898	-19.2822	-9.43269
 501	1	9	0.15189	3.4024	-18.3523	-8.43896
 502	1	9	0.348083	4.11156	-17.1816	-8.27159
 503	1	9	-0.230673	5.1824	-16.855	-9.1019
 504	1	10	0.174789	5.11641	-19.6909	-11.0397
 505	1	10	0.188672	3.1489	-20.2011	-9.53354
 506	1	10	0.201012	5.73539	-15.936	-8.94451
 507	1	11	-0.381547	2.41239	-18.3824	-7.51234
 508	1	1	-0.706002	3.59446	-16.496	-7.29511
 509	1	2	0.698504	2.60163	-17.1927	-6.85251
 510	1	12	0.214303	6.99699	-15.6416	-16.3934
 511	1	1	-0.261357	13.8323	-9.79083	-19.1845
 512	1	2	0.070556	13.201	-10.5029	-18.3019
 513	1	2	0.0266	13.8138	-10.8648	-17.1632
 514	1	2	0.33777	15.0692	-9.40297	-19.0058
 515	1	1	-0.659679	15.6871	-9.74408	-17.9081
 516	1	2	0.428714	15.0629	-10.4559	-17.0234
 517	1	2	0.160826	13.4645	-11.5563	-16.061
 518	1	3	0.04557	15.4668	-10.9343	-15.7783
 519	1	1	-0.463031	14.4182	-11.6087	-15.1889
 520	1	4	-0.07905	11.9731	-10.7966	-18.6484
 521	1	5	-0.061319	15.7379	-8.66927	-19.9674
 522	1	6	0.28436	16.6597	-10.4105	-15.0819
 523	1	6	-0.21175	17.0196	-11.2153	-13.8118
 524	1	7	0.07562	17.091	-12.2858	-14.0397
 525	1	7	0.047171	16.2531	-11.0835	-13.0372
 526	1	7	0.053131	17.9821	-10.8873	-13.4008
 527	1	6	-0.120715	16.5441	-8.90723	-14.7346
 528	1	8	0.007856	17.5004	-10.5212	-15.7788
 529	1	7	0.031711	16.3665	-8.30448	-15.6335
 530	1	7	0.04419	17.4707	-8.54518	-14.2721
 531	1	7	-0.003555	15.7182	-8.72732	-14.035
 532	1	9	-0.011509	12.1731	-12.0476	-15.8898
 533	1	9	-0.199369	11.1856	-11.1963	-15.331
 534	1	9	-0.201771	9.85964	-11.6414	-15.1458
 535	1	9	0.15189	9.56732	-12.9494	-15.5367
 536	1	9	0.348083	10.521	-13.7928	-16.0703
 537	1	9	-0.230673	11.8421	-13.3755	-16.2543
 538	1	10	0.174789	11.4628	-10.1872	-15.0334
 539	1	10	0.188672	9.09239	-11.0109	-14.7059
 540	1	10	0.201012	12.5797	-14.0596	-16.6583
 541	1	11	-0.381547	8.39785	-13.6288	-15.443
 542	1	1	-0.706002	9.98492	-14.9554	-16.3019
 543	1	2	0.698504	8.7546	-14.8661	-15.9122
 544	1	12	0.214303	16.62	-8.26204	-19.694
 545	1	13	0	7.4765	7.58004	23.9701
 546	1	12	0	15.2139	-8.27405	-20.7383

Velocities

   1	9.99945e-05	0.000447612	-0.000360747
   2	2.86486e-05	0.000183554	-0.000221182
   3	1.08354e-05	-8.65169e-05	-0.000122451
   4	0.000142352	0.000343717	-0.000320956
   5	0.0001738	0.000265599	-0.000237431
   6	0.000136822	4.55801e-05	-0.000126625
   7	-1.64749e-05	-0.00058256	-1.41307e-05
   8	0.000186828	-0.000193767	0.000110898
   9	0.000132661	-0.000653582	0.000177109
  10	5.57158e-05	6.66368e-05	-0.000170298
  11	0.000182557	-0.000445011	-7.76681e-05
  12	0.000144115	9.21329e-05	3.26732e-06
  13	-0.000512121	0.000438549	0.00027388
  14	-0.000733485	0.000565862	0.000496116
  15	-0.000656145	0.000352902	0.000763871
  16	-0.000669015	0.000833519	-0.000105456
  17	0.00055307	-7.71451e-05	0.000285186
  18	0.000208625	0.000460911	-0.000273211
  19	0.000506946	-0.000441884	0.000443415
  20	0.00081457	0.000128573	0.000392246
  21	0.000698268	-6.14761e-05	0.000356531
  22	3.35212e-05	-0.000521793	-0.00019137
  23	-0.000102326	-0.00038423	-0.000448999
  24	-0.000172094	-7.65654e-05	-0.000589147
  25	-0.000129076	4.61177e-05	-0.00037016
  26	0.000125198	-0.00017236	-0.000215645
  27	0.000261544	-0.000443031	-9.94875e-05
  28	-0.000278897	-0.000633327	-0.000733579
  29	-0.000387778	-3.06304e-05	-0.000798602
  30	0.000458115	-0.000603623	5.62614e-05
  31	-0.000461282	0.000382795	-0.00044764
  32	4.61484e-05	0.000153407	-4.28429e-05
  33	-0.000296595	0.000514538	3.0388e-05
  34	0.000262547	-0.00139475	0.000543109
  35	7.42306e-05	9.55153e-05	0.000143619
  36	3.21249e-05	0.000132519	0.000173896
  37	3.27226e-05	0.000160887	0.000218665
  38	6.77581e-05	7.76357e-05	0.000125129
  39	4.41001e-05	0.000127563	0.000191427
  40	1.89355e-06	0.000163069	0.000210518
  41	-2.04893e-05	0.000173414	0.000246616
  42	-4.31703e-05	0.000218472	0.000279332
  43	-4.8962e-05	0.000214963	0.000292414
  44	3.7403e-05	0.00016634	0.000229532
  45	6.21214e-05	6.9468e-05	0.000156541
  46	-0.000160246	0.000412013	0.000316616
  47	0.00011402	6.66192e-05	0.000354368
  48	-9.27814e-05	-0.000210976	0.000408817
  49	0.000382467	-8.3725e-05	0.000372884
  50	0.000296198	0.000200085	0.000318901
  51	-0.000470483	0.00065517	-7.2877e-05
  52	-0.000179404	0.000674123	0.000649033
  53	-0.000150516	0.000737314	-0.000497031
  54	-0.000532757	0.000574569	0.000172453
  55	-0.000935426	0.0008942	-0.000184948
  56	6.73296e-05	0.000115101	0.000223837
  57	0.00018879	0.000131934	0.000191845
  58	0.000323728	1.10991e-05	0.000225848
  59	0.0003395	-0.000127995	0.000324004
  60	0.000198638	-0.000150339	0.000370141
  61	5.70633e-05	-2.0851e-05	0.000316994
  62	0.000207805	0.000254867	0.000156573
  63	0.000418438	4.33665e-05	0.00021274
  64	-3.44833e-05	-5.22915e-05	0.000356145
  65	0.000383304	-0.000234966	0.000269698
  66	0.000171522	-0.000278955	0.000353691
  67	0.000260623	-0.000314207	0.000253943
  68	-0.000114214	-0.000357638	0.000384878
  69	0.000504243	-0.000109698	0.000412706
  70	0.000282366	-9.80953e-05	0.000454399
  71	0.000142415	-0.000157337	0.000274009
  72	0.000494047	-0.000105644	0.000123111
  73	0.000371833	-7.29678e-05	6.44029e-06
  74	0.000154032	-3.44501e-05	1.90528e-05
  75	-0.000168764	-0.000228591	0.00015756
  76	-3.8408e-05	-4.10163e-05	-0.000139116
  77	-0.000262971	-0.000197101	-5.72003e-05
  78	0.000306813	-0.000155161	0.000770796
  79	0.000572236	-0.000387053	-8.67608e-05
  80	-6.51279e-05	0.000132286	-0.000445032
  81	-0.000304725	0.000443989	-0.000477799