pySIMM System Object

750 atoms
837 bonds
1386 angles
2108 dihedrals
88 impropers

13 atom types
18 bond types
33 angle types
13 dihedral types
2 improper types

-138.297892 138.297892 xlo xhi
-138.297892 138.297892 ylo yhi
-138.297892 138.297892 zlo zhi

Masses

   1	14.01	# n2
   2	12.01	# c2
   3	14.01	# na
   4	12.01	# c1
   5	14.01	# nh
   6	12.01	# c3
   7	1.008	# hc
   8	1.008	# h1
   9	12.01	# ca
  10	1.008	# ha
  11	16.0	# os
  12	1.008	# hn
  13	1.008	# h5

Pair Coeffs

   1	0.17	3.249998523775958	# n2
   2	0.086	3.3996695084235347	# c2
   3	0.17	3.249998523775958	# na
   4	0.21	3.3996695084235347	# c1
   5	0.17	3.249998523775958	# nh
   6	0.1094	3.3996695084235347	# c3
   7	0.0157	2.649532787749369	# hc
   8	0.0157	2.471353044121301	# h1
   9	0.086	3.3996695084235347	# ca
  10	0.015	2.59964245953351	# ha
  11	0.17	3.0000123434657784	# os
  12	0.0157	1.069078461768407	# hn
  13	0.015	2.421462715905442	# h5

Bond Coeffs

   1	300.9	1.5375	# c3,c3
   2	416.2	1.3872	# c2,nh
   3	330.6	1.0969	# c3,hc
   4	397.4	1.4015	# c2,na
   5	345.8	1.086	# ca,ha
   6	625.0	1.307	# c1,c2
   7	330.6	1.0969	# c3,h1
   8	404.6	1.0121	# hn,nh
   9	376.6	1.3696	# ca,os
  10	505.3	1.3676	# n2,na
  11	327.7	1.4629	# c3,na
  12	338.4	1.0912	# c2,h5
  13	569.4	1.3343	# c2,c2
  14	551.6	1.303	# ca,n2
  15	389.2	1.3596	# c2,os
  16	594.1	1.2817	# c2,n2
  17	461.1	1.3984	# ca,ca
  18	482.1	1.3846	# c2,ca

Angle Coeffs

   1	39.4	107.58	# hc,c3,hc
   2	52.26	121.7	# h5,c2,n2
   3	70.06	121.62	# c1,c2,c2
   4	69.58	119.2	# ca,ca,os
   5	78.34	113.82	# n2,c2,n2
   6	70.52	117.58	# c2,n2,na
   7	46.39	109.56	# c3,c3,h1
   8	71.15	126.01	# c2,c2,n2
   9	62.86	111.51	# c3,c3,c3
  10	49.83	108.78	# h1,c3,na
  11	70.0	119.94	# c2,n2,ca
  12	65.52	112.88	# c3,c3,na
  13	69.36	117.0	# c2,c2,ca
  14	71.79	124.27	# n2,c2,nh
  15	46.34	109.8	# c3,c3,hc
  16	65.56	125.0	# c2,na,n2
  17	74.41	119.78	# n2,c2,os
  18	70.62	119.57	# ca,ca,n2
  19	48.18	119.88	# ca,ca,ha
  20	69.14	121.94	# c2,c2,na
  21	71.53	123.62	# n2,c2,na
  22	66.78	120.6	# c2,ca,ca
  23	69.3	121.81	# c2,c2,c2
  24	64.17	118.2	# c2,os,ca
  25	40.07	115.12	# hn,nh,hn
  26	48.59	115.09	# c2,nh,hn
  27	52.71	110.95	# h5,c2,os
  28	65.54	119.24	# c3,na,n2
  29	66.62	120.02	# ca,ca,ca
  30	71.11	118.18	# c2,n2,c2
  31	63.85	117.2	# c2,na,c3
  32	63.96	124.73	# c2,nh,c2
  33	73.36	114.3	# nh,c2,os

Dihedral Coeffs

   1	1	6.65	2	180	# X,c2,c2,X
   2	1	3.625	2	180	# X,ca,ca,X
   3	1	1.7	2	180	# X,n2,na,X
   4	1	0.7	2	180	# X,c2,ca,X
   5	1	0.15555555555555556	3	0	# X,c3,c3,X
   6	1	1.05	2	180	# X,c2,os,X
   7	1	0.0	3	180	# X,ca,n2,X
   8	1	4.15	2	180	# X,c2,n2,X
   9	1	0.9	2	180	# X,ca,os,X
  10	1	0.625	2	180	# X,c2,na,X
  11	1	0.0	2	0	# X,c3,na,X
  12	1	0.16	3	0	# hc,c3,c3,c3
  13	1	0.675	2	180	# X,c2,nh,X

Improper Coeffs

   1	1.1	-1	2	# ca,X,X,ha
   2	1.1	-1	2	# ca,ca,ca,c2

Atoms

   1	1	1	-0.261357	16.2379	7.23994	-5.79469
   2	1	2	0.070556	15.5786	6.63107	-6.72369
   3	1	2	0.0266	15.8512	5.35302	-7.02117
   4	1	2	0.33777	17.1897	6.65925	-5.11231
   5	1	1	-0.659679	17.5034	5.42519	-5.41044
   6	1	2	0.428714	16.8445	4.80442	-6.34306
   7	1	2	0.160826	15.3628	4.44614	-7.88559
   8	1	3	0.04557	16.9776	3.51413	-6.8646
   9	1	1	-0.463031	16.0193	3.33381	-7.84188
  10	1	4	-0.07905	14.7271	7.42069	-7.32485
  11	1	5	-0.061319	17.8334	7.30654	-4.07234
  12	1	6	0.28436	18.3118	2.89067	-6.95239
  13	1	6	-0.21175	19.0339	3.23041	-8.27801
  14	1	7	0.07562	19.1015	4.31696	-8.41324
  15	1	7	0.047171	18.494	2.81284	-9.13749
  16	1	7	0.053131	20.0523	2.82283	-8.28323
  17	1	6	-0.120715	18.2544	1.36219	-6.7446
  18	1	8	0.007856	18.9228	3.29837	-6.13728
  19	1	7	0.031711	17.66	0.881333	-7.53207
  20	1	7	0.04419	17.7966	1.1228	-5.77675
  21	1	7	-0.003555	19.2618	0.927439	-6.76042
  22	1	9	-0.011509	14.2551	4.73087	-8.68033
  23	1	9	-0.199369	12.9807	4.89921	-8.07719
  24	1	9	-0.201771	11.8465	5.24226	-8.84209
  25	1	9	0.15189	12.0304	5.39354	-10.217
  26	1	9	0.348083	13.2604	5.2042	-10.8174
  27	1	9	-0.230673	14.395	4.86703	-10.0789
  28	1	10	0.174789	12.886	4.8056	-6.99908
  29	1	10	0.188672	10.8743	5.40998	-8.38485
  30	1	10	0.201012	15.3535	4.73709	-10.5729
  31	1	11	-0.381547	11.1336	5.74861	-11.1738
  32	1	1	-0.706002	13.1579	5.42375	-12.0931
  33	1	2	0.698504	11.9234	5.74216	-12.2956
  34	1	12	0.214303	18.2756	6.68771	-3.41745
  35	1	1	-0.261357	12.8247	13.4049	0.678742
  36	1	2	0.070556	13.7909	13.0368	-0.107622
  37	1	2	0.0266	15.0522	13.4245	0.142324
  38	1	2	0.33777	13.0289	14.159	1.72968
  39	1	1	-0.659679	14.2476	14.5482	1.99053
  40	1	2	0.428714	15.2172	14.201	1.20121
  41	1	2	0.160826	16.2623	13.19	-0.405929
  42	1	3	0.04557	16.5924	14.443	1.25641
  43	1	1	-0.463031	17.2235	13.7671	0.237576
  44	1	4	-0.07905	13.4043	12.2581	-1.0865
  45	1	5	-0.061319	12.0442	14.3304	2.6812
  46	1	6	0.28436	17.2883	15.0743	2.39258
  47	1	6	-0.21175	17.136	14.2936	3.71653
  48	1	7	0.07562	16.086	14.248	4.02715
  49	1	7	0.047171	17.7088	14.7732	4.51959
  50	1	7	0.053131	17.5093	13.269	3.60502
  51	1	6	-0.120715	16.9076	16.5593	2.57785
  52	1	8	0.007856	18.3572	15.0583	2.1439
  53	1	7	0.031711	15.8571	16.6676	2.87584
  54	1	7	0.04419	17.0584	17.1141	1.64348
  55	1	7	-0.003555	17.5306	17.0253	3.3515
  56	1	9	-0.011509	16.4588	12.3213	-1.47832
  57	1	9	-0.199369	16.1827	12.7319	-2.80757
  58	1	9	-0.201771	16.4004	11.8562	-3.89455
  59	1	9	0.15189	16.8916	10.5808	-3.6012
  60	1	9	0.348083	17.1756	10.1717	-2.31535
  61	1	9	-0.230673	16.9851	11.0311	-1.23272
  62	1	10	0.174789	15.7995	13.7339	-2.9883
  63	1	10	0.188672	16.1883	12.1454	-4.92012
  64	1	10	0.201012	17.2431	10.7193	-0.230976
  65	1	11	-0.381547	17.1615	9.55153	-4.43679
  66	1	1	-0.706002	17.5942	8.9345	-2.32678
  67	1	2	0.698504	17.5392	8.56027	-3.56539
  68	1	12	0.214303	12.3338	14.0257	3.59601
  69	1	1	-0.261357	4.51141	17.2187	6.62055
  70	1	2	0.070556	5.47559	17.2516	5.74707
  71	1	2	0.0266	5.75164	18.376	5.06195
  72	1	2	0.33777	3.7531	18.259	6.85824
  73	1	1	-0.659679	3.96934	19.3435	6.17389
  74	1	2	0.428714	4.9395	19.3891	5.3211
  75	1	2	0.160826	6.64092	18.801	4.12982
  76	1	3	0.04557	5.34841	20.4374	4.51115
  77	1	1	-0.463031	6.45066	20.0383	3.79284
  78	1	4	-0.07905	6.07837	16.0936	5.66663
  79	1	5	-0.061319	2.79648	18.2426	7.85722
  80	1	6	0.28436	4.99911	21.8215	4.87337
  81	1	6	-0.21175	3.66727	22.2794	4.24307
  82	1	7	0.07562	3.37392	23.2592	4.63855
  83	1	7	0.047171	2.86475	21.5677	4.47472
  84	1	7	0.053131	3.75957	22.3584	3.15303
  85	1	6	-0.120715	6.11931	22.8478	4.6007
  86	1	8	0.007856	4.84426	21.8088	5.95414
  87	1	7	0.031711	6.37335	22.8832	3.5338
  88	1	7	0.04419	7.01695	22.574	5.16641
  89	1	7	-0.003555	5.81828	23.8546	4.91594
  90	1	9	-0.011509	7.65195	18.0607	3.48945
  91	1	9	-0.199369	7.8518	18.2832	2.09568
  92	1	9	-0.201771	8.87505	17.6383	1.37012
  93	1	9	0.15189	9.69354	16.7555	2.07133
  94	1	9	0.348083	9.53154	16.5301	3.42232
  95	1	9	-0.230673	8.53628	17.1787	4.16433
  96	1	10	0.174789	7.20219	18.9818	1.57146
  97	1	10	0.188672	9.02384	17.8114	0.307775
  98	1	10	0.201012	8.48001	17.0155	5.23418
  99	1	11	-0.381547	10.7185	15.9859	1.6179
 100	1	1	-0.706002	10.408	15.647	3.80845
 101	1	2	0.698504	11.1041	15.3356	2.76138
 102	1	12	0.214303	2.88413	17.4234	8.42671
 103	1	1	-0.261357	6.46783	24.8895	8.00772
 104	1	2	0.070556	5.38566	24.4193	8.5351
 105	1	2	0.0266	4.98879	24.81	9.75505
 106	1	2	0.33777	7.22388	25.7537	8.63197
 107	1	1	-0.659679	6.83991	26.1883	9.80362
 108	1	2	0.428714	5.75085	25.7191	10.3337
 109	1	2	0.160826	3.97145	24.4846	10.5787
 110	1	3	0.04557	5.14274	25.9563	11.5632
 111	1	1	-0.463031	4.00856	25.1754	11.6736
 112	1	4	-0.07905	4.78117	23.5778	7.74169
 113	1	5	-0.061319	8.45703	26.1233	8.1345
 114	1	6	0.28436	5.43741	27.1682	12.3483
 115	1	6	-0.21175	5.25985	26.9535	13.867
 116	1	7	0.07562	5.57191	27.845	14.4242
 117	1	7	0.047171	5.8676	26.107	14.2101
 118	1	7	0.053131	4.21103	26.7431	14.1129
 119	1	6	-0.120715	4.62104	28.388	11.8675
 120	1	8	0.007856	6.49676	27.4054	12.1874
 121	1	7	0.031711	3.5476	28.2299	12.0329
 122	1	7	0.04419	4.77979	28.5615	10.7958
 123	1	7	-0.003555	4.92286	29.2959	12.4047
 124	1	9	-0.011509	3.12879	23.4387	10.2011
 125	1	9	-0.199369	1.95505	23.6912	9.44488
 126	1	9	-0.201771	1.28589	22.6387	8.77622
 127	1	9	0.15189	1.80688	21.3465	8.91759
 128	1	9	0.348083	2.89953	21.084	9.71877
 129	1	9	-0.230673	3.58953	22.1102	10.3637
 130	1	10	0.174789	1.62968	24.7184	9.29549
 131	1	10	0.188672	0.451265	22.8261	8.10704
 132	1	10	0.201012	4.5233	21.892	10.8695
 133	1	11	-0.381547	1.5304	20.2211	8.20153
 134	1	1	-0.706002	3.29445	19.8611	9.5283
 135	1	2	0.698504	2.52663	19.3664	8.61546
 136	1	12	0.214303	8.99617	26.5917	8.84056
 137	1	1	-0.261357	11.095	17.6067	6.36085
 138	1	2	0.070556	11.0794	18.8926	6.21152
 139	1	2	0.0266	12.2276	19.5654	6.04264
 140	1	2	0.33777	12.2035	16.9143	6.34473
 141	1	1	-0.659679	13.3364	17.5491	6.2066
 142	1	2	0.428714	13.3325	18.8385	6.06391
 143	1	2	0.160826	12.5712	20.8551	5.87637
 144	1	3	0.04557	14.3844	19.7485	5.93615
 145	1	1	-0.463031	13.8512	21.0162	5.82305
 146	1	4	-0.07905	9.87456	19.3998	6.28205
 147	1	5	-0.061319	12.1177	15.5416	6.43113
 148	1	6	0.28436	15.6563	19.4956	6.64212
 149	1	6	-0.21175	15.7773	20.3023	7.95792
 150	1	7	0.07562	16.6833	20.0193	8.50711
 151	1	7	0.047171	14.9131	20.114	8.60718
 152	1	7	0.053131	15.8234	21.3799	7.75518
 153	1	6	-0.120715	16.8798	19.746	5.73652
 154	1	8	0.007856	15.6819	18.4338	6.91844
 155	1	7	0.031711	16.8258	19.1209	4.83646
 156	1	7	0.04419	17.81	19.5012	6.26361
 157	1	7	-0.003555	16.9292	20.7963	5.42166
 158	1	9	-0.011509	11.6306	21.8814	5.84581
 159	1	9	-0.199369	10.7258	22.0074	4.75881
 160	1	9	-0.201771	9.73716	23.0157	4.75088
 161	1	9	0.15189	9.7008	23.887	5.84444
 162	1	9	0.348083	10.6065	23.7981	6.88155
 163	1	9	-0.230673	11.5819	22.803	6.91599
 164	1	10	0.174789	10.7715	21.2947	3.937
 165	1	10	0.188672	9.01187	23.098	3.94649
 166	1	10	0.201012	12.2596	22.7308	7.75853
 167	1	11	-0.381547	8.80743	24.8659	6.14811
 168	1	1	-0.706002	10.31	24.6724	7.79652
 169	1	2	0.698504	9.24763	25.2764	7.38445
 170	1	12	0.214303	11.1961	15.2198	6.18683
 171	1	1	-0.261357	16.0896	9.27245	1.52203
 172	1	2	0.070556	15.8646	9.86813	2.64724
 173	1	2	0.0266	15.6126	9.15289	3.75176
 174	1	2	0.33777	16.0604	7.97298	1.40216
 175	1	1	-0.659679	15.8119	7.25049	2.46384
 176	1	2	0.428714	15.6044	7.83926	3.60332
 177	1	2	0.160826	15.3343	9.44435	5.03374
 178	1	3	0.04557	15.3106	7.32647	4.87089
 179	1	1	-0.463031	15.1381	8.38337	5.74244
 180	1	4	-0.07905	15.923	11.1703	2.55274
 181	1	5	-0.061319	16.3171	7.40475	0.173092
 182	1	6	0.28436	14.5382	6.07699	4.99812
 183	1	6	-0.21175	13.0148	6.32632	4.90619
 184	1	7	0.07562	12.6721	6.95054	5.74137
 185	1	7	0.047171	12.4609	5.37979	4.93427
 186	1	7	0.053131	12.7626	6.83982	3.96994
 187	1	6	-0.120715	14.8814	5.30316	6.29023
 188	1	8	0.007856	14.8154	5.42941	4.15629
 189	1	7	0.031711	15.9547	5.0792	6.33197
 190	1	7	0.04419	14.3355	4.35262	6.3302
 191	1	7	-0.003555	14.6185	5.88539	7.18278
 192	1	9	-0.011509	15.1668	10.7568	5.46631
 193	1	9	-0.199369	16.1296	11.3823	6.30062
 194	1	9	-0.201771	15.9324	12.7	6.77847
 195	1	9	0.15189	14.7563	13.3532	6.39259
 196	1	9	0.348083	13.8251	12.7474	5.5771
 197	1	9	-0.230673	13.9891	11.4486	5.10624
 198	1	10	0.174789	17.0193	10.8272	6.59196
 199	1	10	0.188672	16.647	13.1867	7.43651
 200	1	10	0.201012	13.2196	10.9863	4.49772
 201	1	11	-0.381547	14.2738	14.5783	6.74191
 202	1	1	-0.706002	12.8044	13.5323	5.42359
 203	1	2	0.698504	13.0726	14.6178	6.07077
 204	1	12	0.214303	16.9604	7.98827	-0.336872
 205	1	1	-0.261357	8.4617	7.93459	-3.42688
 206	1	2	0.070556	9.67	7.47514	-3.49367
 207	1	2	0.0266	10.351	7.53282	-4.64895
 208	1	2	0.33777	7.86592	8.46248	-4.46211
 209	1	1	-0.659679	8.50868	8.52718	-5.59616
 210	1	2	0.428714	9.7156	8.06557	-5.67872
 211	1	2	0.160826	11.5884	7.19473	-5.04362
 212	1	3	0.04557	10.6237	8.0392	-6.74311
 213	1	1	-0.463031	11.7931	7.47607	-6.28427
 214	1	4	-0.07905	10.0909	6.98205	-2.35629
 215	1	5	-0.061319	6.6139	9.00587	-4.30635
 216	1	6	0.28436	10.6719	9.12434	-7.74386
 217	1	6	-0.21175	10.9629	10.5077	-7.11485
 218	1	7	0.07562	11.0997	11.2664	-7.89497
 219	1	7	0.047171	11.8816	10.4717	-6.51565
 220	1	7	0.053131	10.1401	10.8297	-6.46419
 221	1	6	-0.120715	9.43267	9.18185	-8.66492
 222	1	8	0.007856	11.5246	8.89375	-8.39589
 223	1	7	0.031711	9.58962	9.90425	-9.47523
 224	1	7	0.04419	8.53457	9.48542	-8.11349
 225	1	7	-0.003555	9.24279	8.20122	-9.11971
 226	1	9	-0.011509	12.5399	6.75757	-4.13023
 227	1	9	-0.199369	12.9144	5.3916	-4.0447
 228	1	9	-0.201771	13.8562	4.95787	-3.08227
 229	1	9	0.15189	14.3843	5.9269	-2.22196
 230	1	9	0.348083	14.021	7.25263	-2.30941
 231	1	9	-0.230673	13.1185	7.70808	-3.26131
 232	1	10	0.174789	12.4553	4.6691	-4.7148
 233	1	10	0.188672	14.1474	3.91543	-2.99096
 234	1	10	0.201012	12.8576	8.75996	-3.30224
 235	1	11	-0.381547	15.26	5.8018	-1.18732
 236	1	1	-0.706002	14.627	7.93173	-1.38932
 237	1	2	0.698504	15.2956	7.08282	-0.686519
 238	1	12	0.214303	6.44298	9.33491	-3.37361
 239	1	1	-0.261357	-1.11865	12.6845	-5.06322
 240	1	2	0.070556	0.00682239	12.3338	-5.60114
 241	1	2	0.0266	0.600613	13.1313	-6.50478
 242	1	2	0.33777	-1.70252	13.8176	-5.35463
 243	1	1	-0.659679	-1.1463	14.604	-6.2374
 244	1	2	0.428714	-0.0241432	14.2613	-6.78745
 245	1	2	0.160826	1.73398	13.0837	-7.22467
 246	1	3	0.04557	0.785025	14.905	-7.73262
 247	1	1	-0.463031	1.90131	14.131	-7.96076
 248	1	4	-0.07905	0.449064	11.1799	-5.167
 249	1	5	-0.061319	-2.90599	14.1497	-4.77242
 250	1	6	0.28436	0.81028	16.3705	-7.90004
 251	1	6	-0.21175	1.19804	17.1194	-6.60422
 252	1	7	0.07562	2.14457	16.7318	-6.2071
 253	1	7	0.047171	0.427488	17.0017	-5.83146
 254	1	7	0.053131	1.32626	18.1911	-6.79916
 255	1	6	-0.120715	-0.48889	16.9414	-8.50938
 256	1	8	0.007856	1.60565	16.5779	-8.62744
 257	1	7	0.031711	-0.3721	18.0087	-8.73455
 258	1	7	0.04419	-1.3352	16.8316	-7.82012
 259	1	7	-0.003555	-0.737481	16.4244	-9.44475
 260	1	9	-0.011509	2.63983	12.0422	-7.07937
 261	1	9	-0.199369	2.5818	10.903	-7.92306
 262	1	9	-0.201771	3.47967	9.82553	-7.74664
 263	1	9	0.15189	4.42288	9.94452	-6.72156
 264	1	9	0.348083	4.48165	11.0548	-5.90704
 265	1	9	-0.230673	3.60522	12.1229	-6.05435
 266	1	10	0.174789	1.82652	10.8571	-8.7052
 267	1	10	0.188672	3.44068	8.93391	-8.36561
 268	1	10	0.201012	3.66028	12.9721	-5.38332
 269	1	11	-0.381547	5.36027	9.06098	-6.29154
 270	1	1	-0.706002	5.37704	10.8745	-4.98831
 271	1	2	0.698504	5.93807	9.74289	-5.24599
 272	1	12	0.214303	-3.70848	13.7397	-5.21465
 273	1	1	-0.261357	-7.03154	19.4461	1.49793
 274	1	2	0.070556	-6.22833	19.1804	0.517501
 275	1	2	0.0266	-6.19287	19.9834	-0.55409
 276	1	2	0.33777	-7.83658	20.48	1.48458
 277	1	1	-0.659679	-7.77681	21.3068	0.476579
 278	1	2	0.428714	-6.97383	21.0485	-0.509782
 279	1	2	0.160826	-5.52717	19.9931	-1.7209
 280	1	3	0.04557	-6.71903	21.7516	-1.68993
 281	1	1	-0.463031	-5.8037	21.0336	-2.43215
 282	1	4	-0.07905	-5.49164	18.1168	0.707851
 283	1	5	-0.061319	-8.83514	20.6311	2.42791
 284	1	6	0.28436	-6.71389	23.2285	-1.66206
 285	1	6	-0.21175	-6.40131	23.8531	-3.04213
 286	1	7	0.07562	-7.08506	23.4617	-3.80574
 287	1	7	0.047171	-5.37476	23.622	-3.3543
 288	1	7	0.053131	-6.51084	24.944	-3.01174
 289	1	6	-0.120715	-5.74515	23.8025	-0.598056
 290	1	8	0.007856	-7.72914	23.5444	-1.38905
 291	1	7	0.031711	-6.04694	23.5084	0.414242
 292	1	7	0.04419	-5.73393	24.8989	-0.632564
 293	1	7	-0.003555	-4.72109	23.4448	-0.765872
 294	1	9	-0.011509	-4.65107	18.9779	-2.09142
 295	1	9	-0.199369	-3.29682	19.0275	-1.67468
 296	1	9	-0.201771	-2.37776	18.0355	-2.08039
 297	1	9	0.15189	-2.85847	17.0143	-2.90169
 298	1	9	0.348083	-4.17405	16.9565	-3.31224
 299	1	9	-0.230673	-5.09962	17.9276	-2.92731
 300	1	10	0.174789	-2.96348	19.8525	-1.0494
 301	1	10	0.188672	-1.33268	18.058	-1.79228
 302	1	10	0.201012	-6.12412	17.8734	-3.27588
 303	1	11	-0.381547	-2.19254	15.9682	-3.44991
 304	1	1	-0.706002	-4.34458	15.9176	-4.07607
 305	1	2	0.698504	-3.18524	15.3557	-4.17364
 306	1	12	0.214303	-9.47836	21.3408	2.12886
 307	1	1	-0.261357	-6.82651	13.6187	-0.818019
 308	1	2	0.070556	-7.55492	14.2107	0.0753237
 309	1	2	0.0266	-8.78377	13.7555	0.369302
 310	1	2	0.33777	-7.25662	12.5721	-1.47115
 311	1	1	-0.659679	-8.44973	12.1101	-1.20779
 312	1	2	0.428714	-9.17742	12.6895	-0.303441
 313	1	2	0.160826	-9.77112	14.1165	1.20978
 314	1	3	0.04557	-10.4585	12.3961	0.172901
 315	1	1	-0.463031	-10.7951	13.3347	1.12636
 316	1	4	-0.07905	-6.95256	15.2397	0.6094
 317	1	5	-0.061319	-6.50715	11.9636	-2.45077
 318	1	6	0.28436	-10.8848	10.9895	0.290432
 319	1	6	-0.21175	-12.4026	10.8189	0.0670105
 320	1	7	0.07562	-12.6937	11.2179	-0.91241
 321	1	7	0.047171	-12.9738	11.3537	0.8367
 322	1	7	0.053131	-12.6856	9.75973	0.101812
 323	1	6	-0.120715	-10.4607	10.364	1.64026
 324	1	8	0.007856	-10.3809	10.4225	-0.502858
 325	1	7	0.031711	-10.7078	9.29545	1.66954
 326	1	7	0.04419	-10.9707	10.8557	2.47847
 327	1	7	-0.003555	-9.37853	10.4653	1.79279
 328	1	9	-0.011509	-9.64577	15.2222	2.04399
 329	1	9	-0.199369	-8.80438	15.1665	3.1849
 330	1	9	-0.201771	-8.51645	16.3325	3.92618
 331	1	9	0.15189	-9.13909	17.5172	3.52288
 332	1	9	0.348083	-10.0233	17.5605	2.46453
 333	1	9	-0.230673	-10.2781	16.4328	1.68693
 334	1	10	0.174789	-8.30754	14.2324	3.43733
 335	1	10	0.188672	-7.78332	16.335	4.72746
 336	1	10	0.201012	-10.8772	16.5165	0.787418
 337	1	11	-0.381547	-8.82499	18.7953	3.85596
 338	1	1	-0.706002	-10.2471	18.7979	2.14395
 339	1	2	0.698504	-9.50315	19.5247	2.90823
 340	1	12	0.214303	-7.11578	11.3888	-3.00531
 341	1	1	-0.261357	1.82515	10.7239	0.864652
 342	1	2	0.070556	0.748736	10.3964	0.216105
 343	1	2	0.0266	0.79896	9.49074	-0.764752
 344	1	2	0.33777	2.9944	10.2031	0.597783
 345	1	1	-0.659679	3.06793	9.30933	-0.346576
 346	1	2	0.428714	1.99252	8.96513	-0.996904
 347	1	2	0.160826	-0.0872159	8.91722	-1.61813
 348	1	3	0.04557	1.78456	8.01397	-1.99636
 349	1	1	-0.463031	0.46398	8.02526	-2.37326
 350	1	4	-0.07905	-0.299753	11.0328	0.667341
 351	1	5	-0.061319	4.16106	10.5859	1.24932
 352	1	6	0.28436	2.81706	7.21196	-2.67733
 353	1	6	-0.21175	3.99687	6.74479	-1.7914
 354	1	7	0.07562	4.59251	5.9881	-2.31675
 355	1	7	0.047171	3.62967	6.29873	-0.858917
 356	1	7	0.053131	4.66445	7.57678	-1.53936
 357	1	6	-0.120715	3.32752	7.92273	-3.94268
 358	1	8	0.007856	2.31241	6.29785	-3.01193
 359	1	7	0.031711	3.77273	8.88827	-3.67894
 360	1	7	0.04419	2.50086	8.11076	-4.6403
 361	1	7	-0.003555	4.07808	7.31298	-4.46055
 362	1	9	-0.011509	-1.46271	9.1676	-1.69391
 363	1	9	-0.199369	-2.33039	8.04239	-1.77522
 364	1	9	-0.201771	-3.71886	8.18751	-1.95757
 365	1	9	0.15189	-4.21529	9.48626	-2.0415
 366	1	9	0.348083	-3.39944	10.5975	-1.96814
 367	1	9	-0.230673	-2.01278	10.4722	-1.82298
 368	1	10	0.174789	-1.90773	7.04243	-1.71053
 369	1	10	0.188672	-4.38367	7.32919	-2.02441
 370	1	10	0.201012	-1.38757	11.3627	-1.82687
 371	1	11	-0.381547	-5.49404	9.89738	-2.21564
 372	1	1	-0.706002	-4.13333	11.6683	-2.09773
 373	1	2	0.698504	-5.35832	11.258	-2.17584
 374	1	12	0.214303	4.98768	10.2976	0.778924
 375	1	1	-0.261357	0.00899159	16.4576	5.57898
 376	1	2	0.070556	1.21025	16.3176	5.13116
 377	1	2	0.0266	1.62109	17.0177	4.06295
 378	1	2	0.33777	-0.875746	17.2149	4.98371
 379	1	1	-0.659679	-0.460868	18.019	4.03906
 380	1	2	0.428714	0.765381	17.9236	3.61642
 381	1	2	0.160826	2.69074	17.0004	3.23994
 382	1	3	0.04557	1.42547	18.5382	2.55373
 383	1	1	-0.463031	2.6207	17.8998	2.31336
 384	1	4	-0.07905	1.88286	15.4469	5.84118
 385	1	5	-0.061319	-2.23586	17.0161	5.17864
 386	1	6	0.28436	0.778631	19.5138	1.66355
 387	1	6	-0.21175	-0.127155	18.833	0.617768
 388	1	7	0.07562	-0.896474	18.2224	1.10735
 389	1	7	0.047171	0.462635	18.1796	-0.0376959
 390	1	7	0.053131	-0.630846	19.5852	-0.000739601
 391	1	6	-0.120715	1.79542	20.4467	0.967301
 392	1	8	0.007856	0.139913	20.1473	2.29254
 393	1	7	0.031711	2.43627	19.8845	0.276156
 394	1	7	0.04419	2.44046	20.9324	1.70841
 395	1	7	-0.003555	1.28118	21.2308	0.39729
 396	1	9	-0.011509	3.55604	15.9052	3.12604
 397	1	9	-0.199369	4.87227	16.0609	2.6131
 398	1	9	-0.201771	5.65324	14.9443	2.22445
 399	1	9	0.15189	5.09053	13.672	2.3877
 400	1	9	0.348083	3.82853	13.5141	2.91545
 401	1	9	-0.230673	3.02313	14.5988	3.21362
 402	1	10	0.174789	5.24309	17.064	2.42238
 403	1	10	0.188672	6.61591	15.0685	1.73684
 404	1	10	0.201012	1.97464	14.4067	3.41174
 405	1	11	-0.381547	5.44877	12.4811	1.82041
 406	1	1	-0.706002	3.41795	12.3062	2.722
 407	1	2	0.698504	4.3256	11.7121	2.03395
 408	1	12	0.214303	-2.79093	17.555	4.53545
 409	1	1	-0.261357	-2.08676	8.19807	2.48864
 410	1	2	0.070556	-2.48799	9.21926	3.17989
 411	1	2	0.0266	-2.41023	9.21742	4.52308
 412	1	2	0.33777	-1.56814	7.14568	3.06246
 413	1	1	-0.659679	-1.43998	7.12782	4.35811
 414	1	2	0.428714	-1.86495	8.13398	5.05365
 415	1	2	0.160826	-2.71997	10.0635	5.53046
 416	1	3	0.04557	-1.857	8.35133	6.42813
 417	1	1	-0.463031	-2.38745	9.59327	6.69159
 418	1	4	-0.07905	-2.94964	10.1603	2.39857
 419	1	5	-0.061319	-1.2334	6.02015	2.35537
 420	1	6	0.28436	-1.02393	7.55336	7.34961
 421	1	6	-0.21175	-1.86886	6.5252	8.12994
 422	1	7	0.07562	-2.60358	7.03245	8.76832
 423	1	7	0.047171	-1.23205	5.89745	8.76513
 424	1	7	0.053131	-2.41101	5.86894	7.43762
 425	1	6	-0.120715	-0.184198	8.41632	8.31979
 426	1	8	0.007856	-0.308625	6.98585	6.74056
 427	1	7	0.031711	-0.829739	8.9929	8.99479
 428	1	7	0.04419	0.443367	9.12254	7.76167
 429	1	7	-0.003555	0.475072	7.78725	8.93089
 430	1	9	-0.011509	-3.19807	11.3667	5.35693
 431	1	9	-0.199369	-4.34433	11.6869	4.57621
 432	1	9	-0.201771	-4.68824	13.0338	4.29853
 433	1	9	0.15189	-3.91581	14.034	4.90207
 434	1	9	0.348083	-2.89011	13.7212	5.76517
 435	1	9	-0.230673	-2.48422	12.4104	5.98486
 436	1	10	0.174789	-4.92216	10.8852	4.12054
 437	1	10	0.188672	-5.4872	13.2904	3.60834
 438	1	10	0.201012	-1.60314	12.2142	6.586
 439	1	11	-0.381547	-3.88797	15.3856	4.69137
 440	1	1	-0.706002	-2.26603	14.8015	6.10146
 441	1	2	0.698504	-2.80067	15.7742	5.44439
 442	1	12	0.214303	-0.627195	5.4598	2.92668
 443	1	1	-0.261357	-6.5942	-1.22997	2.99848
 444	1	2	0.070556	-6.13991	-0.268097	2.25765
 445	1	2	0.0266	-5.23064	-0.523081	1.30714
 446	1	2	0.33777	-6.21332	-2.47359	2.85796
 447	1	1	-0.659679	-5.32348	-2.74159	1.93381
 448	1	2	0.428714	-4.86845	-1.79255	1.1645
 449	1	2	0.160826	-4.51741	0.219215	0.439893
 450	1	3	0.04557	-3.90629	-1.77671	0.130491
 451	1	1	-0.463031	-3.71735	-0.481118	-0.28357
 452	1	4	-0.07905	-6.6457	0.905891	2.53889
 453	1	5	-0.061319	-6.43913	-3.34008	3.91424
 454	1	6	0.28436	-2.81052	-2.74644	-0.0875004
 455	1	6	-0.21175	-2.81068	-3.25654	-1.54551
 456	1	7	0.07562	-3.70985	-3.85131	-1.74992
 457	1	7	0.047171	-1.92937	-3.8791	-1.74302
 458	1	7	0.053131	-2.79143	-2.41417	-2.24804
 459	1	6	-0.120715	-2.69657	-3.9217	0.906539
 460	1	8	0.007856	-1.88224	-2.17346	0.0321176
 461	1	7	0.031711	-3.56706	-4.58651	0.835819
 462	1	7	0.04419	-2.61844	-3.55331	1.9369
 463	1	7	-0.003555	-1.79813	-4.5156	0.697509
 464	1	9	-0.011509	-4.35856	1.60625	0.447139
 465	1	9	-0.199369	-4.30724	2.31816	-0.782838
 466	1	9	-0.201771	-3.76721	3.62333	-0.857479
 467	1	9	0.15189	-3.29211	4.1882	0.329588
 468	1	9	0.348083	-3.3672	3.5158	1.53181
 469	1	9	-0.230673	-3.88245	2.22659	1.62495
 470	1	10	0.174789	-4.5888	1.80395	-1.70099
 471	1	10	0.188672	-3.63885	4.13529	-1.80664
 472	1	10	0.201012	-3.78968	1.68573	2.55998
 473	1	11	-0.381547	-2.53582	5.30561	0.515764
 474	1	1	-0.706002	-2.67574	4.15046	2.42502
 475	1	2	0.698504	-2.21946	5.20907	1.84959
 476	1	12	0.214303	-5.6624	-3.30887	4.55164
 477	1	1	-0.261357	-13.2252	-9.38446	7.1987
 478	1	2	0.070556	-12.1519	-8.81676	6.71798
 479	1	2	0.0266	-11.3575	-9.49173	5.87201
 480	1	2	0.33777	-13.5632	-10.6195	6.90939
 481	1	1	-0.659679	-12.7875	-11.2838	6.10216
 482	1	2	0.428714	-11.7244	-10.7367	5.60407
 483	1	2	0.160826	-10.2066	-9.26006	5.20795
 484	1	3	0.04557	-10.7391	-11.2788	4.76643
 485	1	1	-0.463031	-9.80788	-10.2885	4.53996
 486	1	4	-0.07905	-11.9354	-7.58877	7.11323
 487	1	5	-0.061319	-14.7373	-11.1842	7.39838
 488	1	6	0.28436	-10.2818	-12.6786	4.9629
 489	1	6	-0.21175	-9.06343	-13.039	4.07415
 490	1	7	0.07562	-8.73674	-14.0706	4.25315
 491	1	7	0.047171	-8.20958	-12.384	4.28707
 492	1	7	0.053131	-9.31547	-12.9368	3.011
 493	1	6	-0.120715	-11.3775	-13.7546	4.76565
 494	1	8	0.007856	-9.94404	-12.7538	6.0045
 495	1	7	0.031711	-12.1402	-13.7041	5.54997
 496	1	7	0.04419	-10.9466	-14.762	4.81281
 497	1	7	-0.003555	-11.8714	-13.6399	3.79215
 498	1	9	-0.011509	-9.3202	-8.17763	5.30641
 499	1	9	-0.199369	-8.07185	-8.45084	5.92836
 500	1	9	-0.201771	-6.97799	-7.57078	5.82055
 501	1	9	0.15189	-7.16981	-6.40585	5.08
 502	1	9	0.348083	-8.37682	-6.08767	4.49404
 503	1	9	-0.230673	-9.48095	-6.95928	4.58502
 504	1	10	0.174789	-7.93052	-9.40906	6.42831
 505	1	10	0.188672	-6.0067	-7.80645	6.2458
 506	1	10	0.201012	-10.3937	-6.73467	4.0453
 507	1	11	-0.381547	-6.26383	-5.45358	4.74869
 508	1	1	-0.706002	-8.23326	-4.95408	3.85411
 509	1	2	0.698504	-6.98243	-4.6111	3.94034
 510	1	12	0.214303	-15.4586	-10.5312	7.64818
 511	1	1	-0.261357	-20.3661	-19.1016	7.7674
 512	1	2	0.070556	-19.4002	-18.2272	7.8378
 513	1	2	0.0266	-18.872	-17.9089	9.03107
 514	1	2	0.33777	-20.8583	-19.6888	8.83496
 515	1	1	-0.659679	-20.3525	-19.3942	9.99297
 516	1	2	0.428714	-19.3997	-18.5272	10.0742
 517	1	2	0.160826	-17.8774	-17.1252	9.4945
 518	1	3	0.04557	-18.676	-18.1217	11.1901
 519	1	1	-0.463031	-17.7092	-17.2352	10.772
 520	1	4	-0.07905	-18.9896	-17.7456	6.69257
 521	1	5	-0.061319	-21.8322	-20.665	8.83132
 522	1	6	0.28436	-18.4317	-19.1184	12.2494
 523	1	6	-0.21175	-17.9845	-18.478	13.5799
 524	1	7	0.07562	-17.8826	-19.2394	14.3624
 525	1	7	0.047171	-18.7217	-17.7388	13.9171
 526	1	7	0.053131	-17.0184	-17.9698	13.4646
 527	1	6	-0.120715	-17.4318	-20.2119	11.8019
 528	1	8	0.007856	-19.388	-19.6174	12.4516
 529	1	7	0.031711	-17.3108	-20.9726	12.583
 530	1	7	0.04419	-16.4467	-19.7767	11.59
 531	1	7	-0.003555	-17.7821	-20.7182	10.894
 532	1	9	-0.011509	-16.9818	-16.3423	8.75745
 533	1	9	-0.199369	-15.6134	-16.7224	8.77236
 534	1	9	-0.201771	-14.5965	-15.8432	8.34242
 535	1	9	0.15189	-14.9879	-14.5818	7.88936
 536	1	9	0.348083	-16.3132	-14.2002	7.83751
 537	1	9	-0.230673	-17.3384	-15.0561	8.27289
 538	1	10	0.174789	-15.3372	-17.6781	9.21482
 539	1	10	0.188672	-13.5444	-16.0985	8.42732
 540	1	10	0.201012	-18.3569	-14.6911	8.33505
 541	1	11	-0.381547	-14.2154	-13.4969	7.61213
 542	1	1	-0.706002	-16.368	-12.9259	7.55945
 543	1	2	0.698504	-15.1499	-12.5123	7.39639
 544	1	12	0.214303	-21.8341	-21.1827	9.69353
 545	1	1	-0.261357	-19.2539	-23.469	1.25288
 546	1	2	0.070556	-20.1763	-23.3913	2.15719
 547	1	2	0.0266	-21.4705	-23.2918	1.80704
 548	1	2	0.33777	-19.5405	-23.4524	-0.0209245
 549	1	1	-0.659679	-20.781	-23.2698	-0.384833
 550	1	2	0.428714	-21.7095	-23.2027	0.51176
 551	1	2	0.160826	-22.6487	-23.2393	2.45466
 552	1	3	0.04557	-23.0913	-23.0602	0.394693
 553	1	1	-0.463031	-23.6492	-23.071	1.65492
 554	1	4	-0.07905	-19.6666	-23.4246	3.36295
 555	1	5	-0.061319	-18.5647	-23.7865	-0.93127
 556	1	6	0.28436	-23.6984	-22.4085	-0.782027
 557	1	6	-0.21175	-24.5478	-21.1667	-0.42081
 558	1	7	0.07562	-23.9519	-20.4474	0.154151
 559	1	7	0.047171	-25.4192	-21.4483	0.184047
 560	1	7	0.053131	-24.9079	-20.6639	-1.32675
 561	1	6	-0.120715	-24.5242	-23.4084	-1.6163
 562	1	8	0.007856	-22.8824	-22.0527	-1.42346
 563	1	7	0.031711	-25.3653	-23.8031	-1.03222
 564	1	7	0.04419	-23.8984	-24.2535	-1.93034
 565	1	7	-0.003555	-24.9246	-22.929	-2.51858
 566	1	9	-0.011509	-22.6907	-23.2861	3.83979
 567	1	9	-0.199369	-22.2923	-24.4501	4.5499
 568	1	9	-0.201771	-22.0777	-24.4021	5.94512
 569	1	9	0.15189	-22.3281	-23.1835	6.58418
 570	1	9	0.348083	-22.8015	-22.0801	5.90036
 571	1	9	-0.230673	-22.987	-22.0952	4.52637
 572	1	10	0.174789	-22.0481	-25.3559	3.99818
 573	1	10	0.188672	-21.6613	-25.2436	6.49096
 574	1	10	0.201012	-23.2434	-21.1824	4.00147
 575	1	11	-0.381547	-21.9774	-22.7814	7.83433
 576	1	1	-0.706002	-22.7476	-21.0349	6.66003
 577	1	2	0.698504	-22.211	-21.43	7.75924
 578	1	12	0.214303	-17.6533	-23.7628	-0.511967
 579	1	1	-0.261357	-15.8762	-28.9408	-6.96921
 580	1	2	0.070556	-16.6953	-28.7489	-5.99243
 581	1	2	0.0266	-17.2806	-29.7923	-5.38573
 582	1	2	0.33777	-15.5975	-30.1321	-7.42707
 583	1	1	-0.659679	-16.1396	-31.1697	-6.84504
 584	1	2	0.428714	-16.9551	-30.9857	-5.8519
 585	1	2	0.160826	-18.1732	-29.9379	-4.38917
 586	1	3	0.04557	-17.6972	-31.875	-5.07728
 587	1	1	-0.463031	-18.4658	-31.178	-4.17038
 588	1	4	-0.07905	-16.8503	-27.4723	-5.74596
 589	1	5	-0.061319	-14.7716	-30.3089	-8.5175
 590	1	6	0.28436	-17.7267	-33.3297	-5.30562
 591	1	6	-0.21175	-19.1576	-33.9111	-5.2475
 592	1	7	0.07562	-19.5928	-33.7752	-4.24906
 593	1	7	0.047171	-19.1548	-34.9833	-5.47889
 594	1	7	0.053131	-19.8075	-33.4069	-5.97347
 595	1	6	-0.120715	-16.7959	-34.0777	-4.32784
 596	1	8	0.007856	-17.3496	-33.513	-6.31979
 597	1	7	0.031711	-15.7655	-33.7122	-4.42126
 598	1	7	0.04419	-16.7936	-35.1543	-4.53857
 599	1	7	-0.003555	-17.1178	-33.9316	-3.28875
 600	1	9	-0.011509	-18.7111	-28.803	-3.79712
 601	1	9	-0.199369	-19.9621	-28.3175	-4.25454
 602	1	9	-0.201771	-20.4507	-27.0644	-3.83025
 603	1	9	0.15189	-19.6487	-26.3383	-2.948
 604	1	9	0.348083	-18.444	-26.8169	-2.47526
 605	1	9	-0.230673	-17.9477	-28.0571	-2.86953
 606	1	10	0.174789	-20.5272	-28.9004	-4.97917
 607	1	10	0.188672	-21.3868	-26.6538	-4.1982
 608	1	10	0.201012	-16.973	-28.3886	-2.52995
 609	1	11	-0.381547	-19.8251	-25.0879	-2.46228
 610	1	1	-0.706002	-17.8814	-25.9182	-1.72437
 611	1	2	0.698504	-18.6849	-24.9086	-1.71911
 612	1	12	0.214303	-14.6232	-31.2686	-8.78175
 613	1	1	-0.261357	-9.24658	-25.8393	-13.7783
 614	1	2	0.070556	-10.4628	-26.0681	-13.4067
 615	1	2	0.0266	-11.39	-26.4095	-14.3144
 616	1	2	0.33777	-8.8658	-25.9377	-15.0243
 617	1	1	-0.659679	-9.75821	-26.2459	-15.931
 618	1	2	0.428714	-10.9893	-26.4641	-15.5737
 619	1	2	0.160826	-12.6816	-26.7751	-14.2548
 620	1	3	0.04557	-12.126	-26.8892	-16.2798
 621	1	1	-0.463031	-13.1713	-27.0801	-15.4082
 622	1	4	-0.07905	-10.6272	-25.9521	-12.1137
 623	1	5	-0.061319	-7.53337	-25.8457	-15.3768
 624	1	6	0.28436	-12.2553	-27.0851	-17.736
 625	1	6	-0.21175	-11.0268	-27.7119	-18.4327
 626	1	7	0.07562	-10.1813	-27.0139	-18.4541
 627	1	7	0.047171	-11.2685	-27.9794	-19.4685