pySIMM System Object

886 atoms
989 bonds
1638 angles
2492 dihedrals
104 impropers

13 atom types
18 bond types
33 angle types
13 dihedral types
2 improper types

-146.573614 146.573614 xlo xhi
-146.573614 146.573614 ylo yhi
-146.573614 146.573614 zlo zhi

Masses

   1	14.01	# n2
   2	12.01	# c2
   3	14.01	# na
   4	12.01	# c1
   5	14.01	# nh
   6	12.01	# c3
   7	1.008	# hc
   8	1.008	# h1
   9	12.01	# ca
  10	1.008	# ha
  11	16.0	# os
  12	1.008	# hn
  13	1.008	# h5

Pair Coeffs

   1	0.17	3.249998523775958	# n2
   2	0.086	3.3996695084235347	# c2
   3	0.17	3.249998523775958	# na
   4	0.21	3.3996695084235347	# c1
   5	0.17	3.249998523775958	# nh
   6	0.1094	3.3996695084235347	# c3
   7	0.0157	2.649532787749369	# hc
   8	0.0157	2.471353044121301	# h1
   9	0.086	3.3996695084235347	# ca
  10	0.015	2.59964245953351	# ha
  11	0.17	3.0000123434657784	# os
  12	0.0157	1.069078461768407	# hn
  13	0.015	2.421462715905442	# h5

Bond Coeffs

   1	300.9	1.5375	# c3,c3
   2	416.2	1.3872	# c2,nh
   3	330.6	1.0969	# c3,hc
   4	397.4	1.4015	# c2,na
   5	345.8	1.086	# ca,ha
   6	625.0	1.307	# c1,c2
   7	330.6	1.0969	# c3,h1
   8	404.6	1.0121	# hn,nh
   9	376.6	1.3696	# ca,os
  10	505.3	1.3676	# n2,na
  11	327.7	1.4629	# c3,na
  12	338.4	1.0912	# c2,h5
  13	569.4	1.3343	# c2,c2
  14	551.6	1.303	# ca,n2
  15	389.2	1.3596	# c2,os
  16	594.1	1.2817	# c2,n2
  17	461.1	1.3984	# ca,ca
  18	482.1	1.3846	# c2,ca

Angle Coeffs

   1	39.4	107.58	# hc,c3,hc
   2	52.26	121.7	# h5,c2,n2
   3	70.06	121.62	# c1,c2,c2
   4	69.58	119.2	# ca,ca,os
   5	78.34	113.82	# n2,c2,n2
   6	70.52	117.58	# c2,n2,na
   7	46.39	109.56	# c3,c3,h1
   8	71.15	126.01	# c2,c2,n2
   9	62.86	111.51	# c3,c3,c3
  10	49.83	108.78	# h1,c3,na
  11	70.0	119.94	# c2,n2,ca
  12	65.52	112.88	# c3,c3,na
  13	69.36	117.0	# c2,c2,ca
  14	71.79	124.27	# n2,c2,nh
  15	46.34	109.8	# c3,c3,hc
  16	65.56	125.0	# c2,na,n2
  17	74.41	119.78	# n2,c2,os
  18	70.62	119.57	# ca,ca,n2
  19	48.18	119.88	# ca,ca,ha
  20	69.14	121.94	# c2,c2,na
  21	71.53	123.62	# n2,c2,na
  22	66.78	120.6	# c2,ca,ca
  23	69.3	121.81	# c2,c2,c2
  24	64.17	118.2	# c2,os,ca
  25	40.07	115.12	# hn,nh,hn
  26	48.59	115.09	# c2,nh,hn
  27	52.71	110.95	# h5,c2,os
  28	65.54	119.24	# c3,na,n2
  29	66.62	120.02	# ca,ca,ca
  30	71.11	118.18	# c2,n2,c2
  31	63.85	117.2	# c2,na,c3
  32	63.96	124.73	# c2,nh,c2
  33	73.36	114.3	# nh,c2,os

Dihedral Coeffs

   1	1	6.65	2	180	# X,c2,c2,X
   2	1	3.625	2	180	# X,ca,ca,X
   3	1	1.7	2	180	# X,n2,na,X
   4	1	0.7	2	180	# X,c2,ca,X
   5	1	0.15555555555555556	3	0	# X,c3,c3,X
   6	1	1.05	2	180	# X,c2,os,X
   7	1	0.0	3	180	# X,ca,n2,X
   8	1	4.15	2	180	# X,c2,n2,X
   9	1	0.9	2	180	# X,ca,os,X
  10	1	0.625	2	180	# X,c2,na,X
  11	1	0.0	2	0	# X,c3,na,X
  12	1	0.16	3	0	# hc,c3,c3,c3
  13	1	0.675	2	180	# X,c2,nh,X

Improper Coeffs

   1	1.1	-1	2	# ca,X,X,ha
   2	1.1	-1	2	# ca,ca,ca,c2

Atoms

   1	1	1	-0.261357	-12.4048	-1.05042	5.37237
   2	1	2	0.070556	-11.3745	-1.83521	5.43688
   3	1	2	0.0266	-10.1474	-1.36349	5.16199
   4	1	2	0.33777	-12.2923	0.206725	5.0275
   5	1	1	-0.659679	-11.1163	0.68251	4.72237
   6	1	2	0.428714	-10.0812	-0.0903353	4.81401
   7	1	2	0.160826	-8.89909	-1.86526	5.16087
   8	1	3	0.04557	-8.72723	0.172455	4.61326
   9	1	1	-0.463031	-8.00873	-0.977442	4.85869
  10	1	4	-0.07905	-11.6741	-3.05035	5.82084
  11	1	5	-0.061319	-13.3597	1.06947	5.05771
  12	1	6	0.28436	-8.18497	1.54243	4.71759
  13	1	6	-0.21175	-7.74421	2.08542	3.34263
  14	1	7	0.07562	-8.59054	2.09375	2.64476
  15	1	7	0.047171	-6.95123	1.46023	2.91281
  16	1	7	0.053131	-7.36603	3.11132	3.43209
  17	1	6	-0.120715	-7.03908	1.67183	5.747
  18	1	8	0.007856	-8.99321	2.19322	5.0718
  19	1	7	0.031711	-6.15158	1.11483	5.42057
  20	1	7	0.04419	-7.34887	1.27663	6.72214
  21	1	7	-0.003555	-6.75409	2.72282	5.88271
  22	1	9	-0.011509	-8.63449	-3.19079	5.49053
  23	1	9	-0.199369	-8.04657	-3.49847	6.74358
  24	1	9	-0.201771	-7.7572	-4.83299	7.10454
  25	1	9	0.15189	-8.07403	-5.82856	6.17638
  26	1	9	0.348083	-8.63758	-5.5345	4.95026
  27	1	9	-0.230673	-8.92592	-4.2247	4.57087
  28	1	10	0.174789	-7.82758	-2.69162	7.44027
  29	1	10	0.188672	-7.32098	-5.08415	8.0668
  30	1	10	0.201012	-9.36572	-4.02444	3.60096
  31	1	11	-0.381547	-7.90757	-7.17514	6.25829
  32	1	1	-0.706002	-8.82104	-6.63124	4.27899
  33	1	2	0.698504	-8.39453	-7.58182	5.04088
  34	1	12	0.214303	-13.195	1.81393	4.40443
  35	1	1	-0.261357	-10.9589	4.87633	12.6076
  36	1	2	0.070556	-11.8773	4.38385	11.8339
  37	1	2	0.0266	-13.0518	5.02157	11.691
  38	1	2	0.33777	-11.1364	5.99084	13.2701
  39	1	1	-0.659679	-12.2686	6.62613	13.1461
  40	1	2	0.428714	-13.1929	6.13911	12.3822
  41	1	2	0.160826	-14.1741	4.82276	10.9737
  42	1	3	0.04557	-14.4645	6.60729	12.0513
  43	1	1	-0.463031	-15.0571	5.75051	11.1533
  44	1	4	-0.07905	-11.5246	3.26907	11.2442
  45	1	5	-0.061319	-10.1363	6.52799	14.0467
  46	1	6	0.28436	-15.0759	7.83885	12.5814
  47	1	6	-0.21175	-14.2987	9.1192	12.199
  48	1	7	0.07562	-13.305	9.13508	12.6636
  49	1	7	0.047171	-14.8422	10.014	12.5265
  50	1	7	0.053131	-14.1696	9.1795	11.1112
  51	1	6	-0.120715	-15.3277	7.77275	14.1038
  52	1	8	0.007856	-16.0621	7.91955	12.1059
  53	1	7	0.031711	-14.3841	7.73679	14.6625
  54	1	7	0.04419	-15.9103	6.87812	14.3573
  55	1	7	-0.003555	-15.892	8.65071	14.4428
  56	1	9	-0.011509	-14.2876	3.77268	10.0702
  57	1	9	-0.199369	-14.8387	2.52578	10.4625
  58	1	9	-0.201771	-14.9243	1.4514	9.54718
  59	1	9	0.15189	-14.4572	1.67789	8.24849
  60	1	9	0.348083	-13.945	2.89885	7.85951
  61	1	9	-0.230673	-13.8396	3.96613	8.74626
  62	1	10	0.174789	-15.1856	2.39448	11.4854
  63	1	10	0.188672	-15.3189	0.480757	9.83326
  64	1	10	0.201012	-13.4168	4.91131	8.42538
  65	1	11	-0.381547	-14.3636	0.824978	7.19372
  66	1	1	-0.706002	-13.5357	2.83504	6.62862
  67	1	2	0.698504	-13.7665	1.62201	6.24811
  68	1	12	0.214303	-9.74289	7.3607	13.6366
  69	1	1	-0.261357	-7.69922	6.79612	23.2573
  70	1	2	0.070556	-8.39306	6.83247	22.1597
  71	1	2	0.0266	-9.25506	7.83913	21.9333
  72	1	2	0.33777	-7.79479	7.73121	24.1681
  73	1	1	-0.659679	-8.65483	8.69515	23.9821
  74	1	2	0.428714	-9.34391	8.74509	22.8901
  75	1	2	0.160826	-10.083	8.20741	20.9373
  76	1	3	0.04557	-10.2643	9.68824	22.4361
  77	1	1	-0.463031	-10.6862	9.3253	21.1757
  78	1	4	-0.07905	-8.12049	5.8442	21.3462
  79	1	5	-0.061319	-7.01368	7.70128	25.3077
  80	1	6	0.28436	-10.2424	11.0732	22.9413
  81	1	6	-0.21175	-11.5119	11.8681	22.5629
  82	1	7	0.07562	-11.494	12.8636	23.0223
  83	1	7	0.047171	-12.4121	11.3477	22.9119
  84	1	7	0.053131	-11.5884	11.9915	21.4756
  85	1	6	-0.120715	-8.96937	11.8359	22.5064
  86	1	8	0.007856	-10.229	11.0078	24.0362
  87	1	7	0.031711	-8.85173	11.8131	21.4174
  88	1	7	0.04419	-8.07585	11.3828	22.954
  89	1	7	-0.003555	-9.00771	12.8855	22.8224
  90	1	9	-0.011509	-10.2402	7.48239	19.7596
  91	1	9	-0.199369	-10.835	6.19363	19.7831
  92	1	9	-0.201771	-11.0472	5.46939	18.5906
  93	1	9	0.15189	-10.6594	6.0817	17.3971
  94	1	9	0.348083	-10.0931	7.34022	17.3611
  95	1	9	-0.230673	-9.87789	8.07426	18.5273
  96	1	10	0.174789	-11.1373	5.76078	20.7345
  97	1	10	0.188672	-11.5001	4.4818	18.5874
  98	1	10	0.201012	-9.46017	9.07454	18.4848
  99	1	11	-0.381547	-10.7648	5.62546	16.1256
 100	1	1	-0.706002	-9.8368	7.66898	16.1282
 101	1	2	0.698504	-10.2506	6.67531	15.4081
 102	1	12	0.214303	-7.2117	6.91553	25.9002
 103	1	1	-0.261357	-9.71568	15.0996	24.8481
 104	1	2	0.070556	-8.98991	14.3636	25.6275
 105	1	2	0.0266	-7.92822	14.8878	26.2609
 106	1	2	0.33777	-9.45106	16.3646	24.6405
 107	1	1	-0.659679	-8.44819	16.9087	25.2776
 108	1	2	0.428714	-7.72094	16.1779	26.0651
 109	1	2	0.160826	-6.96051	14.4081	27.0672
 110	1	3	0.04557	-6.58715	16.4693	26.8211
 111	1	1	-0.463031	-6.12486	15.3245	27.4329
 112	1	4	-0.07905	-9.42248	13.131	25.7071
 113	1	5	-0.061319	-10.1307	17.1018	23.6928
 114	1	6	0.28436	-5.9265	17.786	26.826
 115	1	6	-0.21175	-4.40212	17.6872	26.5924
 116	1	7	0.07562	-3.95199	18.6853	26.5302
 117	1	7	0.047171	-4.18951	17.1578	25.6552
 118	1	7	0.053131	-3.91493	17.1412	27.4105
 119	1	6	-0.120715	-6.22953	18.5693	28.1208
 120	1	8	0.007856	-6.33877	18.3669	25.9914
 121	1	7	0.031711	-5.82663	18.0461	28.9975
 122	1	7	0.04419	-7.31226	18.6821	28.2579
 123	1	7	-0.003555	-5.78613	19.5724	28.084
 124	1	9	-0.011509	-6.86735	13.0396	27.2968
 125	1	9	-0.199369	-7.41817	12.4512	28.4636
 126	1	9	-0.201771	-7.50072	11.0449	28.5929
 127	1	9	0.15189	-6.99271	10.2708	27.5429
 128	1	9	0.348083	-6.40303	10.8437	26.4346
 129	1	9	-0.230673	-6.33558	12.2234	26.2742
 130	1	10	0.174789	-7.84336	13.0927	29.2327
 131	1	10	0.188672	-7.99711	10.5756	29.437
 132	1	10	0.201012	-5.96296	12.6402	25.345
 133	1	11	-0.381547	-7.14115	8.93888	27.3002
 134	1	1	-0.706002	-6.1977	9.93694	25.533
 135	1	2	0.698504	-6.67158	8.83662	26.0127
 136	1	12	0.214303	-9.61282	17.9251	23.4407
 137	1	1	-0.261357	-9.78758	11.564	16.9769
 138	1	2	0.070556	-10.4189	12.4514	17.6801
 139	1	2	0.0266	-11.309	13.2696	17.097
 140	1	2	0.33777	-9.97495	11.4322	15.689
 141	1	1	-0.659679	-10.8454	12.2098	15.1018
 142	1	2	0.428714	-11.4796	13.0983	15.7981
 143	1	2	0.160826	-12.1201	14.2634	17.5094
 144	1	3	0.04557	-12.4311	14.0455	15.4319
 145	1	1	-0.463031	-12.8355	14.7481	16.5465
 146	1	4	-0.07905	-10.0948	12.4293	18.9473
 147	1	5	-0.061319	-9.28185	10.4504	15.012
 148	1	6	0.28436	-13.1149	14.0166	14.1273
 149	1	6	-0.21175	-13.5155	15.4266	13.6393
 150	1	7	0.07562	-13.9428	15.3832	12.6305
 151	1	7	0.047171	-12.6392	16.0862	13.6103
 152	1	7	0.053131	-14.2588	15.8762	14.31
 153	1	6	-0.120715	-14.3352	13.0695	14.1296
 154	1	8	0.007856	-12.3985	13.621	13.396
 155	1	7	0.031711	-14.037	12.0548	14.4222
 156	1	7	0.04419	-14.7854	13.0142	13.1308
 157	1	7	-0.003555	-15.1022	13.4173	14.8334
 158	1	9	-0.011509	-12.1526	14.6699	18.8409
 159	1	9	-0.199369	-13.1683	14.1859	19.7046
 160	1	9	-0.201771	-13.1896	14.5386	21.0727
 161	1	9	0.15189	-12.1792	15.39	21.5296
 162	1	9	0.348083	-11.2077	15.8915	20.6875
 163	1	9	-0.230673	-11.1606	15.5477	19.3368
 164	1	10	0.174789	-13.9273	13.5144	19.3076
 165	1	10	0.188672	-13.9396	14.149	21.755
 166	1	10	0.201012	-10.3674	15.9296	18.7047
 167	1	11	-0.381547	-11.9097	15.818	22.7915
 168	1	1	-0.706002	-10.3721	16.6151	21.3713
 169	1	2	0.698504	-10.7589	16.5431	22.5998
 170	1	12	0.214303	-9.07823	9.63596	15.5718
 171	1	1	-0.261357	-10.6333	5.08472	8.46124
 172	1	2	0.070556	-10.1778	6.23156	8.85208
 173	1	2	0.0266	-9.05225	6.73325	8.31942
 174	1	2	0.33777	-10.0184	4.36624	7.55957
 175	1	1	-0.659679	-8.95405	4.85695	6.9815
 176	1	2	0.428714	-8.49186	6.0056	7.3683
 177	1	2	0.160826	-8.31426	7.84567	8.49763
 178	1	3	0.04557	-7.38784	6.74518	6.93942
 179	1	1	-0.463031	-7.32407	7.9133	7.67064
 180	1	4	-0.07905	-10.9621	6.81345	9.7225
 181	1	5	-0.061319	-10.5228	3.13862	7.19671
 182	1	6	0.28436	-6.89688	6.62601	5.55392
 183	1	6	-0.21175	-5.51089	7.28136	5.35446
 184	1	7	0.07562	-5.56733	8.36704	5.50714
 185	1	7	0.047171	-5.13243	7.09687	4.34157
 186	1	7	0.053131	-4.78492	6.87522	6.06944
 187	1	6	-0.120715	-7.90601	7.18876	4.52572
 188	1	8	0.007856	-6.77794	5.55474	5.34697
 189	1	7	0.031711	-8.86961	6.66931	4.59862
 190	1	7	0.04419	-7.5323	7.05918	3.50268
 191	1	7	-0.003555	-8.08253	8.25919	4.69305
 192	1	9	-0.011509	-8.57893	8.75884	9.51736
 193	1	9	-0.199369	-8.80406	10.1298	9.22664
 194	1	9	-0.201771	-9.06076	11.0631	10.2591
 195	1	9	0.15189	-9.07683	10.5779	11.5708
 196	1	9	0.348083	-8.83419	9.25257	11.8568
 197	1	9	-0.230673	-8.5606	8.32093	10.8615
 198	1	10	0.174789	-8.77492	10.4621	8.19072
 199	1	10	0.188672	-9.24125	12.1145	10.0538
 200	1	10	0.201012	-8.36152	7.28707	11.1214
 201	1	11	-0.381547	-9.31057	11.2233	12.7451
 202	1	1	-0.706002	-8.91587	9.05663	13.1358
 203	1	2	0.698504	-9.23141	10.1955	13.6581
 204	1	12	0.214303	-11.4658	3.18861	6.84291
 205	1	1	-0.261357	-12.2511	-3.63019	13.2296
 206	1	2	0.070556	-11.7094	-2.99461	12.2379
 207	1	2	0.0266	-11.2002	-3.67428	11.1979
 208	1	2	0.33777	-12.318	-4.93558	13.2654
 209	1	1	-0.659679	-11.8337	-5.61368	12.2603
 210	1	2	0.428714	-11.3004	-4.9917	11.2558
 211	1	2	0.160826	-10.5596	-3.34762	10.0632
 212	1	3	0.04557	-10.7012	-5.4684	10.0822
 213	1	1	-0.463031	-10.2337	-4.38556	9.36866
 214	1	4	-0.07905	-11.7231	-1.69324	12.3811
 215	1	5	-0.061319	-12.8354	-5.55865	14.3814
 216	1	6	0.28436	-9.97932	-6.75607	10.0423
 217	1	6	-0.21175	-10.8535	-7.9958	10.3458
 218	1	7	0.07562	-10.2931	-8.91679	10.1444
 219	1	7	0.047171	-11.7519	-8.00109	9.71661
 220	1	7	0.053131	-11.1682	-8.02192	11.3961
 221	1	6	-0.120715	-8.71746	-6.73957	10.9325
 222	1	8	0.007856	-9.63203	-6.87386	9.00751
 223	1	7	0.031711	-8.1407	-7.66436	10.8116
 224	1	7	0.04419	-8.99026	-6.63493	11.989
 225	1	7	-0.003555	-8.06362	-5.90001	10.6643
 226	1	9	-0.011509	-10.1978	-2.03555	9.77342
 227	1	9	-0.199369	-8.99697	-1.50791	10.3165
 228	1	9	-0.201771	-8.58078	-0.189141	10.0269
 229	1	9	0.15189	-9.40295	0.568908	9.18926
 230	1	9	0.348083	-10.5742	0.061591	8.66612
 231	1	9	-0.230673	-10.9997	-1.24059	8.92571
 232	1	10	0.174789	-8.38501	-2.13558	10.9611
 233	1	10	0.188672	-7.66106	0.226925	10.4283
 234	1	10	0.201012	-11.9109	-1.6202	8.47602
 235	1	11	-0.381547	-9.23509	1.83375	8.71505
 236	1	1	-0.706002	-11.1246	0.955568	7.9067
 237	1	2	0.698504	-10.3532	1.98729	7.93165
 238	1	12	0.214303	-12.9068	-4.9215	15.1549
 239	1	1	-0.261357	-8.88454	-13.9698	17.0354
 240	1	2	0.070556	-9.65048	-12.9352	16.874
 241	1	2	0.0266	-10.188	-12.3203	17.9398
 242	1	2	0.33777	-8.59721	-14.4525	18.2192
 243	1	1	-0.659679	-9.10546	-13.8689	19.2685
 244	1	2	0.428714	-9.87255	-12.8362	19.1162
 245	1	2	0.160826	-10.9943	-11.2597	18.1476
 246	1	3	0.04557	-10.5306	-12.0431	20.0511
 247	1	1	-0.463031	-11.205	-11.0325	19.4038
 248	1	4	-0.07905	-9.79864	-12.5907	15.6202
 249	1	5	-0.061319	-7.81104	-15.5732	18.4046
 250	1	6	0.28436	-10.2166	-12.0877	21.4891
 251	1	6	-0.21175	-11.4718	-11.9044	22.3697
 252	1	7	0.07562	-12.2291	-12.6572	22.1183
 253	1	7	0.047171	-11.9151	-10.9117	22.2193
 254	1	7	0.053131	-11.2223	-12.0139	23.4322
 255	1	6	-0.120715	-9.11769	-11.0745	21.8754
 256	1	8	0.007856	-9.82379	-13.0889	21.7074
 257	1	7	0.031711	-8.86311	-11.1633	22.9389
 258	1	7	0.04419	-9.44988	-10.046	21.6851
 259	1	7	-0.003555	-8.20449	-11.2532	21.2935
 260	1	9	-0.011509	-11.5376	-10.4828	17.1241
 261	1	9	-0.199369	-12.4814	-11.0349	16.2163
 262	1	9	-0.201771	-13.0898	-10.2387	15.2191
 263	1	9	0.15189	-12.7394	-8.88619	15.1782
 264	1	9	0.348083	-11.8519	-8.33592	16.078
 265	1	9	-0.230673	-11.2306	-9.10405	17.0617
 266	1	10	0.174789	-12.7473	-12.0871	16.2966
 267	1	10	0.188672	-13.8157	-10.645	14.5202
 268	1	10	0.201012	-10.5531	-8.63939	17.7693
 269	1	11	-0.381547	-13.1728	-7.8967	14.352
 270	1	1	-0.706002	-11.7488	-7.06066	15.8564
 271	1	2	0.698504	-12.4613	-6.81221	14.8087
 272	1	12	0.214303	-7.9085	-16.0285	19.2947
 273	1	1	-0.261357	-1.66689	-15.6209	11.9337
 274	1	2	0.070556	-2.38251	-16.3055	12.7727
 275	1	2	0.0266	-3.2385	-17.2357	12.3214
 276	1	2	0.33777	-1.74371	-15.8089	10.6391
 277	1	1	-0.659679	-2.491	-16.7776	10.1854
 278	1	2	0.428714	-3.21625	-17.4556	11.0173
 279	1	2	0.160826	-4.17683	-18.0356	12.8664
 280	1	3	0.04557	-4.14966	-18.4668	10.8062
 281	1	1	-0.463031	-4.76234	-18.7904	11.9947
 282	1	4	-0.07905	-2.16184	-16.0154	14.03
 283	1	5	-0.061319	-1.20181	-14.9141	9.7403
 284	1	6	0.28436	-4.56025	-18.9202	9.4672
 285	1	6	-0.21175	-5.71849	-18.0746	8.89473
 286	1	7	0.07562	-5.41942	-17.0225	8.8074
 287	1	7	0.047171	-6.59893	-18.1272	9.54786
 288	1	7	0.053131	-6.00639	-18.4303	7.89786
 289	1	6	-0.120715	-4.91344	-20.4242	9.44049
 290	1	8	0.007856	-3.69814	-18.7868	8.80143
 291	1	7	0.031711	-4.08185	-21.021	9.83594
 292	1	7	0.04419	-5.11355	-20.7587	8.41543
 293	1	7	-0.003555	-5.80327	-20.6335	10.0482
 294	1	9	-0.011509	-4.62697	-17.9357	14.1835
 295	1	9	-0.199369	-4.7655	-19.1033	14.9796
 296	1	9	-0.201771	-5.40372	-19.0603	16.2409
 297	1	9	0.15189	-5.89366	-17.8225	16.6689
 298	1	9	0.348083	-5.76244	-16.6844	15.9005
 299	1	9	-0.230673	-5.14889	-16.7062	14.6519
 300	1	10	0.174789	-4.42423	-20.0564	14.5798
 301	1	10	0.188672	-5.5619	-19.9569	16.8328
 302	1	10	0.201012	-5.13208	-15.8042	14.0487
 303	1	11	-0.381547	-6.67119	-17.5194	17.746
 304	1	1	-0.706002	-6.42562	-15.7152	16.4493
 305	1	2	0.698504	-6.98701	-16.2066	17.4989
 306	1	12	0.214303	-1.31004	-15.2829	8.81279
 307	1	1	-0.261357	-4.54039	-12.9971	15.4391
 308	1	2	0.070556	-4.28295	-12.4011	14.3269
 309	1	2	0.0266	-4.94558	-11.2884	13.9754
 310	1	2	0.33777	-5.40191	-12.5197	16.2982
 311	1	1	-0.659679	-6.12237	-11.4832	15.9545
 312	1	2	0.428714	-5.89141	-10.9037	14.8137
 313	1	2	0.160826	-4.87436	-10.4205	12.9473
 314	1	3	0.04557	-6.45418	-9.77099	14.2271
 315	1	1	-0.463031	-5.77657	-9.4984	13.0507
 316	1	4	-0.07905	-3.32303	-13.0171	13.6883
 317	1	5	-0.061319	-5.3793	-12.9704	17.6046
 318	1	6	0.28436	-7.90163	-9.53415	14.3877
 319	1	6	-0.21175	-8.72358	-10.079	13.196
 320	1	7	0.07562	-8.51874	-11.1471	13.0496
 321	1	7	0.047171	-8.46753	-9.55529	12.2675
 322	1	7	0.053131	-9.79914	-9.96147	13.3752
 323	1	6	-0.120715	-8.21867	-8.04898	14.65
 324	1	8	0.007856	-8.23568	-10.0844	15.2763
 325	1	7	0.031711	-9.3008	-7.8869	14.7085
 326	1	7	0.04419	-7.81648	-7.41648	13.8506
 327	1	7	-0.003555	-7.77499	-7.7233	15.5991
 328	1	9	-0.011509	-3.84763	-10.6131	12.0244
 329	1	9	-0.199369	-2.54277	-10.1661	12.3616
 330	1	9	-0.201771	-1.40344	-10.7397	11.7559
 331	1	9	0.15189	-1.61902	-11.7215	10.7841
 332	1	9	0.348083	-2.88935	-12.0716	10.3643
 333	1	9	-0.230673	-4.02663	-11.5431	10.9765
 334	1	10	0.174789	-2.41413	-9.49886	13.2121
 335	1	10	0.188672	-0.401838	-10.5398	12.1264
 336	1	10	0.201012	-4.99469	-11.9891	10.7811
 337	1	11	-0.381547	-0.757231	-12.6933	10.3761
 338	1	1	-0.706002	-2.82696	-13.1969	9.72092
 339	1	2	0.698504	-1.59948	-13.5927	9.77161
 340	1	12	0.214303	-6.11352	-12.5956	18.1763
 341	1	1	-0.261357	2.19622	-17.1421	16.6996
 342	1	2	0.070556	1.44647	-16.4822	17.5286
 343	1	2	0.0266	1.87088	-15.3186	18.0491
 344	1	2	0.33777	3.37007	-16.6979	16.3278
 345	1	1	-0.659679	3.80328	-15.5727	16.8237
 346	1	2	0.428714	3.07196	-14.9174	17.6682
 347	1	2	0.160826	1.3483	-14.3642	18.8394
 348	1	3	0.04557	3.26041	-13.654	18.2378
 349	1	1	-0.463031	2.13773	-13.3513	18.9788
 350	1	4	-0.07905	0.289722	-17.0546	17.7466
 351	1	5	-0.061319	4.1233	-17.3085	15.3523
 352	1	6	0.28436	3.90961	-12.6115	17.4164
 353	1	6	-0.21175	4.53902	-11.4908	18.2727
 354	1	7	0.07562	5.26722	-11.9087	18.9782
 355	1	7	0.047171	3.76975	-10.9603	18.8484
 356	1	7	0.053131	5.05705	-10.7608	17.6384
 357	1	6	-0.120715	2.94212	-12.008	16.3678
 358	1	8	0.007856	4.73047	-13.0873	16.8649
 359	1	7	0.031711	3.4617	-11.2892	15.7226
 360	1	7	0.04419	2.10894	-11.4864	16.8567
 361	1	7	-0.003555	2.52047	-12.7925	15.7265
 362	1	9	-0.011509	-0.00775964	-14.3096	19.1508
 363	1	9	-0.199369	-0.63455	-15.138	20.1204
 364	1	9	-0.201771	-2.04459	-15.1181	20.2867
 365	1	9	0.15189	-2.78023	-14.2265	19.4913
 366	1	9	0.348083	-2.15049	-13.3702	18.6161
 367	1	9	-0.230673	-0.781531	-13.4024	18.4016
 368	1	10	0.174789	-0.0289156	-15.8317	20.6997
 369	1	10	0.188672	-2.54814	-15.7928	20.9722
 370	1	10	0.201012	-0.340489	-12.7733	17.6361
 371	1	11	-0.381547	-4.13198	-14.098	19.3026
 372	1	1	-0.706002	-3.02923	-12.7205	17.9331
 373	1	2	0.698504	-4.18519	-13.1755	18.2776
 374	1	12	0.214303	5.00736	-16.8622	15.1903
 375	1	1	-0.261357	3.03887	-24.2225	9.71305
 376	1	2	0.070556	3.65595	-23.5744	10.6521
 377	1	2	0.0266	4.97291	-23.328	10.5534
 378	1	2	0.33777	3.65903	-24.6467	8.64264
 379	1	1	-0.659679	4.94682	-24.4579	8.54726
 380	1	2	0.428714	5.57089	-23.8134	9.47921
 381	1	2	0.160826	5.89605	-22.6795	11.2876
 382	1	3	0.04557	6.91321	-23.4553	9.59891
 383	1	1	-0.463031	7.07245	-22.7175	10.7522
 384	1	4	-0.07905	2.86714	-23.2263	11.6366
 385	1	5	-0.061319	2.94818	-25.2346	7.61783
 386	1	6	0.28436	7.76498	-23.3007	8.40517
 387	1	6	-0.21175	9.24403	-23.6373	8.69566
 388	1	7	0.07562	9.85003	-23.5451	7.78609
 389	1	7	0.047171	9.33909	-24.6659	9.06505
 390	1	7	0.053131	9.65763	-22.961	9.45463
 391	1	6	-0.120715	7.63852	-21.8936	7.77857
 392	1	8	0.007856	7.41809	-24.0222	7.65453
 393	1	7	0.031711	7.97084	-21.1197	8.48247
 394	1	7	0.04419	6.59567	-21.6847	7.5088
 395	1	7	-0.003555	8.24595	-21.8133	6.86829
 396	1	9	-0.011509	5.59408	-21.9731	12.4505
 397	1	9	-0.199369	6.24446	-22.3061	13.6668
 398	1	9	-0.201771	6.04307	-21.5391	14.8368
 399	1	9	0.15189	5.17499	-20.447	14.7442
 400	1	9	0.348083	4.54426	-20.1138	13.5663
 401	1	9	-0.230673	4.74773	-20.8403	12.3945
 402	1	10	0.174789	6.94088	-23.1426	13.6813
 403	1	10	0.188672	6.56712	-21.7552	15.7633
 404	1	10	0.201012	4.28996	-20.512	11.4681
 405	1	11	-0.381547	4.90035	-19.475	15.6541
 406	1	1	-0.706002	3.93267	-18.9793	13.7163
 407	1	2	0.698504	4.08326	-18.6223	14.9486
 408	1	12	0.214303	2.09076	-25.6625	7.91998
 409	1	1	-0.261357	1.87942	-21.8668	-1.51984
 410	1	2	0.070556	1.87275	-22.1748	-0.262844
 411	1	2	0.0266	0.75818	-22.0168	0.469373
 412	1	2	0.33777	0.819857	-21.3946	-2.12416
 413	1	1	-0.659679	-0.285449	-21.2761	-1.44297
 414	1	2	0.428714	-0.303756	-21.5575	-0.17677
 415	1	2	0.160826	0.417192	-22.2163	1.7549
 416	1	3	0.04557	-1.32883	-21.5001	0.782612
 417	1	1	-0.463031	-0.820776	-21.9363	1.98726
 418	1	4	-0.07905	3.01947	-22.663	0.137264
 419	1	5	-0.061319	0.824724	-21.0797	-3.46644
 420	1	6	0.28436	-2.53278	-20.6284	0.716741
 421	1	6	-0.21175	-2.83381	-19.9488	-0.641101
 422	1	7	0.07562	-3.7901	-19.4133	-0.601811
 423	1	7	0.047171	-2.90512	-20.6901	-1.44613
 424	1	7	0.053131	-2.05215	-19.2227	-0.899932
 425	1	6	-0.120715	-2.53948	-19.5498	1.82843
 426	1	8	0.007856	-3.38427	-21.2903	0.918795
 427	1	7	0.031711	-3.44142	-18.9283	1.76874
 428	1	7	0.04419	-1.66351	-18.8948	1.74068
 429	1	7	-0.003555	-2.52463	-20.0087	2.82518
 430	1	9	-0.011509	1.31948	-22.5906	2.74972
 431	1	9	-0.199369	2.44296	-21.7679	3.0326
 432	1	9	-0.201771	3.31598	-22.0639	4.09956
 433	1	9	0.15189	3.0136	-23.184	4.87454
 434	1	9	0.348083	1.91447	-23.9797	4.6269
 435	1	9	-0.230673	1.03873	-23.7048	3.57558
 436	1	10	0.174789	2.62428	-20.881	2.42857
 437	1	10	0.188672	4.17002	-21.4363	4.33769
 438	1	10	0.201012	0.149166	-24.3079	3.43149
 439	1	11	-0.381547	3.61152	-23.6265	6.00567
 440	1	1	-0.706002	1.81084	-24.8751	5.56491
 441	1	2	0.698504	2.8088	-24.6829	6.36185
 442	1	12	0.214303	0.0154503	-21.3971	-3.9686
 443	1	1	-0.261357	7.56532	-16.6967	-8.11089
 444	1	2	0.070556	6.89129	-17.6453	-7.53929
 445	1	2	0.0266	7.53431	-18.669	-6.95728
 446	1	2	0.33777	8.87345	-16.6805	-8.12646
 447	1	1	-0.659679	9.51917	-17.6556	-7.5462
 448	1	2	0.428714	8.85549	-18.6125	-6.97725
 449	1	2	0.160826	7.16675	-19.8117	-6.3512
 450	1	3	0.04557	9.27826	-19.7802	-6.33956
 451	1	1	-0.463031	8.17692	-20.5286	-5.98589
 452	1	4	-0.07905	5.5935	-17.5043	-7.63628
 453	1	5	-0.061319	9.51736	-15.7602	-8.92277
 454	1	6	0.28436	10.6484	-20.3073	-6.48046
 455	1	6	-0.21175	10.9561	-20.7802	-7.91985
 456	1	7	0.07562	11.9928	-21.1296	-7.99899
 457	1	7	0.047171	10.8241	-19.9611	-8.63755
 458	1	7	0.053131	10.2909	-21.6026	-8.21167
 459	1	6	-0.120715	10.9563	-21.4414	-5.47438
 460	1	8	0.007856	11.3308	-19.4794	-6.25029
 461	1	7	0.031711	12.0138	-21.7283	-5.52104
 462	1	7	0.04419	10.3509	-22.3315	-5.6904
 463	1	7	-0.003555	10.7372	-21.1221	-4.44762
 464	1	9	-0.011509	5.83759	-20.1997	-6.21919
 465	1	9	-0.199369	5.26861	-21.0897	-7.16657
 466	1	9	-0.201771	3.9496	-21.572	-7.01352
 467	1	9	0.15189	3.23671	-21.1347	-5.89366
 468	1	9	0.348083	3.78769	-20.2719	-4.96743
 469	1	9	-0.230673	5.08696	-19.7843	-5.09705
 470	1	10	0.174789	5.87444	-21.4316	-8.00335
 471	1	10	0.188672	3.51272	-22.2826	-7.70903
 472	1	10	0.201012	5.50792	-19.1432	-4.33091
 473	1	11	-0.381547	2.0056	-21.5074	-5.4505
 474	1	1	-0.706002	2.96052	-20.113	-3.98125
 475	1	2	0.698504	1.94106	-20.8598	-4.24247
 476	1	12	0.214303	8.90231	-15.4655	-9.65977
 477	1	1	-0.261357	15.9702	-9.57268	-11.5462
 478	1	2	0.070556	15.0375	-10.1611	-10.8564
 479	1	2	0.0266	15.0896	-10.1592	-9.51407
 480	1	2	0.33777	16.9734	-8.95369	-10.9723
 481	1	1	-0.659679	17.0371	-8.9368	-9.67182
 482	1	2	0.428714	16.1239	-9.53457	-8.97847
 483	1	2	0.160826	14.3356	-10.6465	-8.50864
 484	1	3	0.04557	15.976	-9.68937	-7.60236
 485	1	1	-0.463031	14.8219	-10.3904	-7.33923
 486	1	4	-0.07905	14.1113	-10.7378	-11.5798
 487	1	5	-0.061319	17.9813	-8.30962	-11.656
 488	1	6	0.28436	16.8483	-9.02575	-6.61472
 489	1	6	-0.21175	18.286	-9.59356	-6.6289
 490	1	7	0.07562	18.9178	-9.06722	-5.90339
 491	1	7	0.047171	18.747	-9.47726	-7.61714
 492	1	7	0.053131	18.2851	-10.6613	-6.3764
 493	1	6	-0.120715	16.282	-9.07065	-5.1764
 494	1	8	0.007856	16.9074	-7.96868	-6.90444
 495	1	7	0.031711	16.2188	-10.1051	-4.81445
 496	1	7	0.04419	15.2752	-8.63572	-5.1415
 497	1	7	-0.003555	16.9196	-8.50419	-4.48625
 498	1	9	-0.011509	13.1307	-11.3215	-8.68296
 499	1	9	-0.199369	11.9605	-10.6009	-9.03842
 500	1	9	-0.201771	10.7056	-11.2441	-9.11298
 501	1	9	0.15189	10.67	-12.6077	-8.81153
 502	1	9	0.348083	11.7985	-13.3158	-8.46061
 503	1	9	-0.230673	13.0497	-12.7026	-8.38761
 504	1	10	0.174789	12.0307	-9.53385	-9.23982
 505	1	10	0.188672	9.79927	-10.711	-9.38596
 506	1	10	0.201012	13.923	-13.2751	-8.09661
 507	1	11	-0.381547	9.62444	-13.471	-8.83813
 508	1	1	-0.706002	11.4857	-14.5682	-8.30482
 509	1	2	0.698504	10.2066	-14.6596	-8.47194
 510	1	12	0.214303	18.6493	-7.92214	-11.0138
 511	1	1	-0.261357	22.041	-8.19192	-20.4835
 512	1	2	0.070556	21.6451	-8.52627	-19.292
 513	1	2	0.0266	20.881	-9.61752	-19.1149
 514	1	2	0.33777	21.699	-8.87774	-21.5456
 515	1	1	-0.659679	20.9803	-9.95508	-21.3951
 516	1	2	0.428714	20.5866	-10.2948	-20.2117
 517	1	2	0.160826	20.2827	-10.2344	-18.0758
 518	1	3	0.04557	19.7804	-11.3449	-19.7867
 519	1	1	-0.463031	19.6055	-11.2789	-18.4255
 520	1	4	-0.07905	22.0392	-7.69906	-18.3581
 521	1	5	-0.061319	22.0489	-8.45626	-22.8102
 522	1	6	0.28436	19.2456	-12.3744	-20.6907
 523	1	6	-0.21175	17.8468	-12.8722	-20.2624
 524	1	7	0.07562	17.1562	-12.0265	-20.1548
 525	1	7	0.047171	17.8958	-13.3947	-19.2984
 526	1	7	0.053131	17.4315	-13.561	-21.0076
 527	1	6	-0.120715	20.2247	-13.5575	-20.8447
 528	1	8	0.007856	19.1305	-11.9112	-21.679
 529	1	7	0.031711	21.2034	-13.2049	-21.1942
 530	1	7	0.04419	19.8457	-14.2834	-21.5742
 531	1	7	-0.003555	20.37	-14.0741	-19.8872
 532	1	9	-0.011509	20.308	-9.79069	-16.7554
 533	1	9	-0.199369	21.5155	-9.7515	-16.0084
 534	1	9	-0.201771	21.5112	-9.40117	-14.6388
 535	1	9	0.15189	20.273	-9.11292	-14.0555
 536	1	9	0.348083	19.0947	-9.16847	-14.7695
 537	1	9	-0.230673	19.0777	-9.50359	-16.12
 538	1	10	0.174789	22.4528	-10.0177	-16.4927
 539	1	10	0.188672	22.4224	-9.38107	-14.0477
 540	1	10	0.201012	18.1342	-9.57622	-16.6496
 541	1	11	-0.381547	19.9687	-8.80484	-12.7676
 542	1	1	-0.706002	18.0938	-8.91253	-13.9824
 543	1	2	0.698504	18.597	-8.745	-12.8067
 544	1	12	0.214303	22.9517	-8.01852	-22.8504
 545	1	1	-0.261357	14.892	-2.81125	-26.3999
 546	1	2	0.070556	15.9967	-3.46717	-26.1828
 547	1	2	0.0266	16.9796	-2.90498	-25.4622
 548	1	2	0.33777	14.688	-1.60444	-25.9274
 549	1	1	-0.659679	15.63	-1.07708	-25.1962
 550	1	2	0.428714	16.74	-1.69641	-24.9842
 551	1	2	0.160826	18.2137	-3.2522	-25.0625
 552	1	3	0.04557	17.9008	-1.31146	-24.2994
 553	1	1	-0.463031	18.8006	-2.3496	-24.3537
 554	1	4	-0.07905	16.0604	-4.65545	-26.7286
 555	1	5	-0.061319	13.528	-0.895526	-26.2341
 556	1	6	0.28436	17.9736	-0.217954	-23.3002
 557	1	6	-0.21175	17.3977	1.13194	-23.7894
 558	1	7	0.07562	17.6265	1.93707	-23.081
 559	1	7	0.047171	16.3073	1.08199	-23.8715
 560	1	7	0.053131	17.8096	1.40494	-24.7687
 561	1	6	-0.120715	19.4203	0.0135814	-22.7934
 562	1	8	0.007856	17.3777	-0.534774	-22.4349
 563	1	7	0.031711	19.4599	0.83149	-22.0638
 564	1	7	0.04419	20.0873	0.265859	-23.6279
 565	1	7	-0.003555	19.8154	-0.88384	-22.3006
 566	1	9	-0.011509	18.856	-4.46316	-25.288
 567	1	9	-0.199369	19.8183	-4.56358	-26.3253
 568	1	9	-0.201771	20.7736	-5.60522	-26.329
 569	1	9	0.15189	20.713	-6.53498	-25.2853
 570	1	9	0.348083	19.7348	-6.4785	-24.3132
 571	1	9	-0.230673	18.8038	-5.44434	-24.2749
 572	1	10	0.174789	19.8986	-3.75879	-27.0532
 573	1	10	0.188672	21.5885	-5.6287	-27.0467
 574	1	10	0.201012	18.165	-5.32941	-23.4066
 575	1	11	-0.381547	21.6565	-7.43	-24.8797
 576	1	1	-0.706002	20.0413	-7.28829	-23.3491
 577	1	2	0.698504	21.157	-7.85141	-23.6706
 578	1	12	0.214303	12.9071	-1.35566	-26.8762
 579	1	1	-0.261357	11.6631	8.19643	-24.1793
 580	1	2	0.070556	11.8607	7.08094	-24.7945
 581	1	2	0.0266	11.957	7.04916	-26.1324
 582	1	2	0.33777	11.5637	9.33322	-24.8103
 583	1	1	-0.659679	11.5832	9.32908	-26.1179
 584	1	2	0.428714	11.7685	8.20591	-26.7501
 585	1	2	0.160826	12.2402	6.09779	-27.0437
 586	1	3	0.04557	11.9165	7.90689	-28.1097
 587	1	1	-0.463031	12.1972	6.56218	-28.2491
 588	1	4	-0.07905	11.9145	6.07956	-23.9523
 589	1	5	-0.061319	11.4804	10.4438	-24.0013
 590	1	6	0.28436	11.2898	8.69902	-29.185
 591	1	6	-0.21175	11.734	10.1793	-29.2237
 592	1	7	0.07562	12.8277	10.2565	-29.1976
 593	1	7	0.047171	11.3299	10.7417	-28.373
 594	1	7	0.053131	11.3801	10.6629	-30.1423
 595	1	6	-0.120715	9.74996	8.58068	-29.1803
 596	1	8	0.007856	11.6355	8.25292	-30.1266
 597	1	7	0.031711	9.32381	9.01423	-28.2669
 598	1	7	0.04419	9.44693	7.52725	-29.2337
 599	1	7	-0.003555	9.316	9.10064	-30.0437
 600	1	9	-0.011509	12.7368	4.85773	-26.6335
 601	1	9	-0.199369	13.9257	4.85864	-25.855
 602	1	9	-0.201771	14.4754	3.66779	-25.3548
 603	1	9	0.15189	13.8301	2.48729	-25.7037
 604	1	9	0.348083	12.7239	2.44273	-26.5251
 605	1	9	-0.230673	12.1428	3.624	-27.0119
 606	1	10	0.174789	14.4086	5.80324	-25.6124
 607	1	10	0.188672	15.3711	3.65273	-24.741
 608	1	10	0.201012	11.2766	3.58445	-27.6626
 609	1	11	-0.381547	14.2001	1.22893	-25.418
 610	1	1	-0.706002	12.4375	1.19109	-26.7744
 611	1	2	0.698504	13.3188	0.476785	-26.1442
 612	1	12	0.214303	11.4622	10.2113	-23.0242
 613	1	1	-0.261357	6.73936	16.0957	-22.9184
 614	1	2	0.070556	7.91584	16.2016	-23.4387
 615	1	2	0.0266	8.84326	17.0007	-22.8794
 616	1	2	0.33777	6.42687	16.7268	-21.8215
 617	1	1	-0.659679	7.26089	17.6088	-21.3435
 618	1	2	0.428714	8.44237	17.7354	-21.8558
 619	1	2	0.160826	10.1668	17.166	-23.0428
 620	1	3	0.04557	9.59029	18.4075	-21.4056
 621	1	1	-0.463031	10.6587	17.9948	-22.1805
 622	1	4	-0.07905	8.04887	15.396	-24.4626
 623	1	5	-0.061319	5.54689	16.107	-20.9684