pySIMM System Object

1260 atoms
1407 bonds
2331 angles
3548 dihedrals
148 impropers

13 atom types
18 bond types
33 angle types
13 dihedral types
2 improper types

-165.517262 165.517262 xlo xhi
-165.517262 165.517262 ylo yhi
-165.517262 165.517262 zlo zhi

Masses

   1	14.01	# n2
   2	12.01	# c2
   3	14.01	# na
   4	12.01	# c1
   5	14.01	# nh
   6	12.01	# c3
   7	1.008	# hc
   8	1.008	# h1
   9	12.01	# ca
  10	1.008	# ha
  11	16.0	# os
  12	1.008	# hn
  13	1.008	# h5

Pair Coeffs

   1	0.17	3.249998523775958	# n2
   2	0.086	3.3996695084235347	# c2
   3	0.17	3.249998523775958	# na
   4	0.21	3.3996695084235347	# c1
   5	0.17	3.249998523775958	# nh
   6	0.1094	3.3996695084235347	# c3
   7	0.0157	2.649532787749369	# hc
   8	0.0157	2.471353044121301	# h1
   9	0.086	3.3996695084235347	# ca
  10	0.015	2.59964245953351	# ha
  11	0.17	3.0000123434657784	# os
  12	0.0157	1.069078461768407	# hn
  13	0.015	2.421462715905442	# h5

Bond Coeffs

   1	300.9	1.5375	# c3,c3
   2	416.2	1.3872	# c2,nh
   3	330.6	1.0969	# c3,hc
   4	397.4	1.4015	# c2,na
   5	345.8	1.086	# ca,ha
   6	625.0	1.307	# c1,c2
   7	330.6	1.0969	# c3,h1
   8	404.6	1.0121	# hn,nh
   9	376.6	1.3696	# ca,os
  10	505.3	1.3676	# n2,na
  11	327.7	1.4629	# c3,na
  12	338.4	1.0912	# c2,h5
  13	569.4	1.3343	# c2,c2
  14	551.6	1.303	# ca,n2
  15	389.2	1.3596	# c2,os
  16	594.1	1.2817	# c2,n2
  17	461.1	1.3984	# ca,ca
  18	482.1	1.3846	# c2,ca

Angle Coeffs

   1	39.4	107.58	# hc,c3,hc
   2	52.26	121.7	# h5,c2,n2
   3	70.06	121.62	# c1,c2,c2
   4	69.58	119.2	# ca,ca,os
   5	78.34	113.82	# n2,c2,n2
   6	70.52	117.58	# c2,n2,na
   7	46.39	109.56	# c3,c3,h1
   8	71.15	126.01	# c2,c2,n2
   9	62.86	111.51	# c3,c3,c3
  10	49.83	108.78	# h1,c3,na
  11	70.0	119.94	# c2,n2,ca
  12	65.52	112.88	# c3,c3,na
  13	69.36	117.0	# c2,c2,ca
  14	71.79	124.27	# n2,c2,nh
  15	46.34	109.8	# c3,c3,hc
  16	65.56	125.0	# c2,na,n2
  17	74.41	119.78	# n2,c2,os
  18	70.62	119.57	# ca,ca,n2
  19	48.18	119.88	# ca,ca,ha
  20	69.14	121.94	# c2,c2,na
  21	71.53	123.62	# n2,c2,na
  22	66.78	120.6	# c2,ca,ca
  23	69.3	121.81	# c2,c2,c2
  24	64.17	118.2	# c2,os,ca
  25	40.07	115.12	# hn,nh,hn
  26	48.59	115.09	# c2,nh,hn
  27	52.71	110.95	# h5,c2,os
  28	65.54	119.24	# c3,na,n2
  29	66.62	120.02	# ca,ca,ca
  30	71.11	118.18	# c2,n2,c2
  31	63.85	117.2	# c2,na,c3
  32	63.96	124.73	# c2,nh,c2
  33	73.36	114.3	# nh,c2,os

Dihedral Coeffs

   1	1	6.65	2	180	# X,c2,c2,X
   2	1	3.625	2	180	# X,ca,ca,X
   3	1	1.7	2	180	# X,n2,na,X
   4	1	0.7	2	180	# X,c2,ca,X
   5	1	0.15555555555555556	3	0	# X,c3,c3,X
   6	1	1.05	2	180	# X,c2,os,X
   7	1	0.0	3	180	# X,ca,n2,X
   8	1	4.15	2	180	# X,c2,n2,X
   9	1	0.9	2	180	# X,ca,os,X
  10	1	0.625	2	180	# X,c2,na,X
  11	1	0.0	2	0	# X,c3,na,X
  12	1	0.16	3	0	# hc,c3,c3,c3
  13	1	0.675	2	180	# X,c2,nh,X

Improper Coeffs

   1	1.1	-1	2	# ca,X,X,ha
   2	1.1	-1	2	# ca,ca,ca,c2

Atoms

   1	1	1	-0.261357	-9.03351	-7.18906	37.0055
   2	1	2	0.070556	-8.41606	-6.20726	36.4274
   3	1	2	0.0266	-8.70905	-4.935	36.7457
   4	1	2	0.33777	-9.96409	-6.98688	37.8998
   5	1	1	-0.659679	-10.281	-5.76154	38.2168
   6	1	2	0.428714	-9.64911	-4.77519	37.6599
   7	1	2	0.160826	-8.29778	-3.71843	36.3379
   8	1	3	0.04557	-9.77969	-3.39617	37.8128
   9	1	1	-0.463031	-8.93523	-2.75846	36.928
  10	1	4	-0.07905	-7.55071	-6.62221	35.5377
  11	1	5	-0.061319	-10.6237	-8.04065	38.4913
  12	1	6	0.28436	-10.9631	-2.79436	38.4547
  13	1	6	-0.21175	-12.111	-2.56533	37.447
  14	1	7	0.07562	-12.3798	-3.50474	36.9484
  15	1	7	0.047171	-11.8156	-1.84077	36.6774
  16	1	7	0.053131	-13.0049	-2.18316	37.9552
  17	1	6	-0.120715	-10.6397	-1.48791	39.2131
  18	1	8	0.007856	-11.3262	-3.50925	39.2043
  19	1	7	0.031711	-10.2696	-0.7152	38.5276
  20	1	7	0.04419	-9.87451	-1.6624	39.9782
  21	1	7	-0.003555	-11.5338	-1.10019	39.7179
  22	1	9	-0.011509	-7.35254	-3.58653	35.3246
  23	1	9	-0.199369	-5.98847	-3.88986	35.5698
  24	1	9	-0.201771	-5.0366	-3.84311	34.529
  25	1	9	0.15189	-5.48927	-3.4662	33.2618
  26	1	9	0.348083	-6.81058	-3.14818	33.0193
  27	1	9	-0.230673	-7.76851	-3.19104	34.0325
  28	1	10	0.174789	-5.67355	-4.19476	36.5664
  29	1	10	0.188672	-3.98966	-4.07968	34.701
  30	1	10	0.201012	-8.80021	-2.93975	33.8186
  31	1	11	-0.381547	-4.79974	-3.33861	32.0991
  32	1	1	-0.706002	-6.96376	-2.83621	31.7667
  33	1	2	0.698504	-5.78916	-2.93933	31.2379
  34	1	12	0.214303	-11.6036	-7.85944	38.621
  35	1	1	-0.261357	-9.76327	-7.79185	47.5864
  36	1	2	0.070556	-9.59263	-8.27498	46.3949
  37	1	2	0.0266	-9.87611	-9.56314	46.1319
  38	1	2	0.33777	-10.1919	-8.53096	48.5763
  39	1	1	-0.659679	-10.4957	-9.77704	48.3397
  40	1	2	0.428714	-10.3321	-10.2678	47.154
  41	1	2	0.160826	-9.85188	-10.3676	45.0513
  42	1	3	0.04557	-10.5983	-11.5432	46.6515
  43	1	1	-0.463031	-10.303	-11.5525	45.3064
  44	1	4	-0.07905	-9.16163	-7.36906	45.5551
  45	1	5	-0.061319	-10.4251	-7.9805	49.8174
  46	1	6	0.28436	-11.6439	-12.4087	47.2326
  47	1	6	-0.21175	-13.0435	-11.7492	47.2342
  48	1	7	0.07562	-13.0749	-10.884	47.9078
  49	1	7	0.047171	-13.8088	-12.4629	47.5628
  50	1	7	0.053131	-13.3084	-11.4077	46.2256
  51	1	6	-0.120715	-11.2863	-12.9481	48.6366
  52	1	8	0.007856	-11.7112	-13.2849	46.5748
  53	1	7	0.031711	-11.2805	-12.1474	49.3864
  54	1	7	0.04419	-10.2949	-13.4177	48.6293
  55	1	7	-0.003555	-12.0155	-13.7029	48.9571
  56	1	9	-0.011509	-9.48722	-9.94088	43.7745
  57	1	9	-0.199369	-8.18209	-9.45349	43.4954
  58	1	9	-0.201771	-7.8484	-8.96206	42.2128
  59	1	9	0.15189	-8.83652	-9.02861	41.2276
  60	1	9	0.348083	-10.0894	-9.54738	41.4754
  61	1	9	-0.230673	-10.4477	-10.0075	42.7398
  62	1	10	0.174789	-7.44212	-9.41741	44.2926
  63	1	10	0.188672	-6.87763	-8.52045	41.9975
  64	1	10	0.201012	-11.4564	-10.3583	42.9265
  65	1	11	-0.381547	-8.84363	-8.49706	39.9781
  66	1	1	-0.706002	-10.8518	-9.34375	40.4434
  67	1	2	0.698504	-10.1254	-8.75669	39.555
  68	1	12	0.214303	-11.2073	-7.3447	49.7862
  69	1	1	-0.261357	-10.0142	-9.97962	59.1072
  70	1	2	0.070556	-10.1097	-10.112	57.8179
  71	1	2	0.0266	-11.0661	-10.8909	57.2825
  72	1	2	0.33777	-10.8425	-10.5748	59.9279
  73	1	1	-0.659679	-11.7524	-11.364	59.4264
  74	1	2	0.428714	-11.8598	-11.4967	58.1463
  75	1	2	0.160826	-11.4692	-11.229	56.0417
  76	1	3	0.04557	-12.7638	-12.2265	57.3806
  77	1	1	-0.463031	-12.5051	-12.0032	56.0463
  78	1	4	-0.07905	-9.22955	-9.40011	57.1611
  79	1	5	-0.061319	-10.7561	-10.3886	61.2953
  80	1	6	0.28436	-14.0522	-12.6736	57.9379
  81	1	6	-0.21175	-14.6217	-13.905	57.2032
  82	1	7	0.07562	-15.5296	-14.2637	57.702
  83	1	7	0.047171	-13.8912	-14.723	57.1966
  84	1	7	0.053131	-14.8702	-13.6586	56.1639
  85	1	6	-0.120715	-15.096	-11.5357	57.9964
  86	1	8	0.007856	-13.8553	-12.9884	58.9694
  87	1	7	0.031711	-15.3112	-11.1486	56.9934
  88	1	7	0.04419	-14.7258	-10.7056	58.6111
  89	1	7	-0.003555	-16.0374	-11.8872	58.4366
  90	1	9	-0.011509	-10.8494	-10.7646	54.884
  91	1	9	-0.199369	-9.52933	-11.1775	54.564
  92	1	9	-0.201771	-8.90181	-10.7505	53.374
  93	1	9	0.15189	-9.63909	-9.91949	52.5277
  94	1	9	0.348083	-10.9295	-9.52592	52.82
  95	1	9	-0.230673	-11.5699	-9.93981	53.9886
  96	1	10	0.174789	-8.99602	-11.8382	55.2445
  97	1	10	0.188672	-7.89321	-11.0565	53.111
  98	1	10	0.201012	-12.5946	-9.64699	54.1925
  99	1	11	-0.381547	-9.29225	-9.38844	51.3291
 100	1	1	-0.706002	-11.3836	-8.77427	51.8588
 101	1	2	0.698504	-10.4366	-8.718	50.9787
 102	1	12	0.214303	-9.87553	-10.6782	61.6805
 103	1	1	-0.261357	-17.6267	-13.9649	60.0509
 104	1	2	0.070556	-16.9332	-13.5203	61.0492
 105	1	2	0.0266	-17.5398	-12.9015	62.0749
 106	1	2	0.33777	-18.927	-13.8288	59.993
 107	1	1	-0.659679	-19.5442	-13.2651	60.9972
 108	1	2	0.428714	-18.8569	-12.8263	62.0064
 109	1	2	0.160826	-17.1286	-12.2738	63.1926
 110	1	3	0.04557	-19.2438	-12.1437	63.161
 111	1	1	-0.463031	-18.1149	-11.78	63.8655
 112	1	4	-0.07905	-15.6509	-13.7426	60.9105
 113	1	5	-0.061319	-19.6432	-14.1594	58.8618
 114	1	6	0.28436	-20.52	-11.4086	63.2189
 115	1	6	-0.21175	-20.4665	-10.0811	62.4291
 116	1	7	0.07562	-21.4388	-9.57427	62.4545
 117	1	7	0.047171	-20.2076	-10.2637	61.3786
 118	1	7	0.053131	-19.7142	-9.40466	62.8544
 119	1	6	-0.120715	-20.9906	-11.156	64.6687
 120	1	8	0.007856	-21.2795	-12.043	62.7443
 121	1	7	0.031711	-20.295	-10.492	65.198
 122	1	7	0.04419	-21.0502	-12.0998	65.2248
 123	1	7	-0.003555	-21.9843	-10.6907	64.6815
 124	1	9	-0.011509	-15.7708	-12.0575	63.3993
 125	1	9	-0.199369	-14.9802	-12.9731	64.1398
 126	1	9	-0.201771	-13.5696	-12.8637	64.1496
 127	1	9	0.15189	-13.0003	-11.8066	63.4292
 128	1	9	0.348083	-13.7749	-10.8803	62.7608
 129	1	9	-0.230673	-15.1604	-10.9851	62.7142
 130	1	10	0.174789	-15.4627	-13.8101	64.6402
 131	1	10	0.188672	-12.9415	-13.6065	64.6327
 132	1	10	0.201012	-15.7311	-10.3089	62.0877
 133	1	11	-0.381547	-11.7012	-11.604	63.072
 134	1	1	-0.706002	-13.0208	-10.1383	62.0143
 135	1	2	0.698504	-11.8197	-10.5896	62.1516
 136	1	12	0.214303	-20.5542	-13.736	58.877
 137	1	1	-0.261357	-14.8811	-10.4377	52.3258
 138	1	2	0.070556	-15.6285	-11.3716	52.8256
 139	1	2	0.0266	-16.5074	-12.0225	52.0478
 140	1	2	0.33777	-14.9495	-10.0846	51.0679
 141	1	1	-0.659679	-15.7882	-10.7157	50.2894
 142	1	2	0.428714	-16.5412	-11.6484	50.7807
 143	1	2	0.160826	-17.406	-13.0092	52.2286
 144	1	3	0.04557	-17.5202	-12.4487	50.1948
 145	1	1	-0.463031	-18.0296	-13.315	51.138
 146	1	4	-0.07905	-15.423	-11.5732	54.1018
 147	1	5	-0.061319	-14.1107	-9.0845	50.617
 148	1	6	0.28436	-17.6467	-12.6107	48.7359
 149	1	6	-0.21175	-19.1197	-12.5561	48.2744
 150	1	7	0.07562	-19.1884	-12.6151	47.1815
 151	1	7	0.047171	-19.5882	-11.6174	48.5951
 152	1	7	0.053131	-19.6939	-13.3881	48.7018
 153	1	6	-0.120715	-16.9632	-13.9009	48.231
 154	1	8	0.007856	-17.1326	-11.7652	48.2616
 155	1	7	0.031711	-15.9082	-13.9219	48.5313
 156	1	7	0.04419	-17.0055	-13.9604	47.1366
 157	1	7	-0.003555	-17.4528	-14.7938	48.6408
 158	1	9	-0.011509	-17.5901	-13.6116	53.4703
 159	1	9	-0.199369	-16.8269	-14.7542	53.8235
 160	1	9	-0.201771	-16.9692	-15.3611	55.0913
 161	1	9	0.15189	-17.8954	-14.7936	55.9713
 162	1	9	0.348083	-18.6597	-13.6982	55.6246
 163	1	9	-0.230673	-18.53	-13.0782	54.3819
 164	1	10	0.174789	-16.1102	-15.156	53.1099
 165	1	10	0.188672	-16.3732	-16.2192	55.3888
 166	1	10	0.201012	-19.1273	-12.2064	54.1414
 167	1	11	-0.381547	-18.1857	-15.1244	57.2576
 168	1	1	-0.706002	-19.4112	-13.3584	56.6293
 169	1	2	0.698504	-19.1092	-14.1637	57.5906
 170	1	12	0.214303	-13.3352	-8.87449	51.2281
 171	1	1	-0.261357	-10.9687	-6.58472	42.6728
 172	1	2	0.070556	-11.8208	-6.45897	43.6404
 173	1	2	0.0266	-12.0912	-5.24463	44.1433
 174	1	2	0.33777	-10.3333	-5.56169	42.1645
 175	1	1	-0.659679	-10.6027	-4.3672	42.6166
 176	1	2	0.428714	-11.4634	-4.23049	43.5741
 177	1	2	0.160826	-12.855	-4.77008	45.1449
 178	1	3	0.04557	-11.9079	-3.10178	44.256
 179	1	1	-0.463031	-12.755	-3.48685	45.2734
 180	1	4	-0.07905	-12.3311	-7.5968	44.0393
 181	1	5	-0.061319	-9.37419	-5.79057	41.2059
 182	1	6	0.28436	-11.2191	-1.80373	44.1538
 183	1	6	-0.21175	-10.0308	-1.69874	45.134
 184	1	7	0.07562	-10.3771	-1.7758	46.1725
 185	1	7	0.047171	-9.50796	-0.742043	45.0129
 186	1	7	0.053131	-9.30903	-2.50498	44.952
 187	1	6	-0.120715	-12.1827	-0.609222	44.3292
 188	1	8	0.007856	-10.8109	-1.73165	43.1374
 189	1	7	0.031711	-13.0112	-0.674568	43.6128
 190	1	7	0.04419	-11.6603	0.339761	44.1569
 191	1	7	-0.003555	-12.6067	-0.587081	45.3414
 192	1	9	-0.011509	-13.5419	-5.63587	45.991
 193	1	9	-0.199369	-14.8151	-6.153	45.6355
 194	1	9	-0.201771	-15.4754	-7.09057	46.4639
 195	1	9	0.15189	-14.8286	-7.46989	47.6448
 196	1	9	0.348083	-13.6042	-6.94826	48.0035
 197	1	9	-0.230673	-12.9287	-6.03389	47.1987
 198	1	10	0.174789	-15.2759	-5.83791	44.7015
 199	1	10	0.188672	-16.4396	-7.51504	46.1993
 200	1	10	0.201012	-11.9535	-5.65832	47.4873
 201	1	11	-0.381547	-15.1977	-8.37027	48.5956
 202	1	1	-0.706002	-13.2184	-7.47523	49.1249
 203	1	2	0.698504	-14.1279	-8.33066	49.46
 204	1	12	0.214303	-9.19815	-6.76964	41.0607
 205	1	1	-0.261357	-0.718955	-1.46587	39.8753
 206	1	2	0.070556	-1.92054	-1.94366	39.7599
 207	1	2	0.0266	-2.17894	-2.92364	38.8786
 208	1	2	0.33777	0.282057	-1.9141	39.1609
 209	1	1	-0.659679	0.0537773	-2.88943	38.3267
 210	1	2	0.428714	-1.14163	-3.3574	38.184
 211	1	2	0.160826	-3.25206	-3.64864	38.5103
 212	1	3	0.04557	-1.63153	-4.37238	37.3604
 213	1	1	-0.463031	-2.97096	-4.54622	37.6226
 214	1	4	-0.07905	-2.77607	-1.38549	40.5771
 215	1	5	-0.061319	1.53097	-1.33276	39.2895
 216	1	6	0.28436	-0.773551	-5.45143	36.8361
 217	1	6	-0.21175	-0.0107522	-6.21518	37.9436
 218	1	7	0.07562	0.494432	-7.09518	37.5279
 219	1	7	0.047171	-0.703407	-6.55765	38.7226
 220	1	7	0.053131	0.749016	-5.57929	38.4153
 221	1	6	-0.120715	0.189503	-4.97456	35.7259
 222	1	8	0.007856	-1.45035	-6.17763	36.3677
 223	1	7	0.031711	0.740795	-5.82322	35.3026
 224	1	7	0.04419	0.92113	-4.25487	36.1137
 225	1	7	-0.003555	-0.366565	-4.4952	34.9111
 226	1	9	-0.011509	-4.51811	-3.54688	39.0855
 227	1	9	-0.199369	-5.29252	-2.35921	38.9962
 228	1	9	-0.201771	-6.61359	-2.31095	39.5
 229	1	9	0.15189	-7.11952	-3.47446	40.089
 230	1	9	0.348083	-6.37438	-4.62965	40.1723
 231	1	9	-0.230673	-5.07968	-4.70477	39.6694
 232	1	10	0.174789	-4.8663	-1.47627	38.5255
 233	1	10	0.188672	-7.22845	-1.41915	39.4164
 234	1	10	0.201012	-4.53711	-5.64312	39.7061
 235	1	11	-0.381547	-8.35575	-3.73748	40.5914
 236	1	1	-0.706002	-7.09659	-5.57936	40.6797
 237	1	2	0.698504	-8.23963	-5.05578	40.9656
 238	1	12	0.214303	1.48852	-0.449949	39.7711
 239	1	1	-0.261357	5.54733	1.11148	31.1292
 240	1	2	0.070556	5.3752	0.610151	32.3116
 241	1	2	0.0266	6.31805	0.75648	33.2572
 242	1	2	0.33777	6.63291	1.76245	30.7967
 243	1	1	-0.659679	7.55014	1.94635	31.707
 244	1	2	0.428714	7.38333	1.45044	32.892
 245	1	2	0.160826	6.47462	0.391438	34.5466
 246	1	3	0.04557	8.1855	1.52267	34.0283
 247	1	1	-0.463031	7.56453	0.859087	35.0634
 248	1	4	-0.07905	4.20605	0.0370946	32.4398
 249	1	5	-0.061319	6.80932	2.32481	29.5481
 250	1	6	0.28436	9.21303	2.57018	34.1834
 251	1	6	-0.21175	10.6331	2.00785	33.9663
 252	1	7	0.07562	10.707	1.52398	32.9842
 253	1	7	0.047171	10.8802	1.26394	34.7343
 254	1	7	0.053131	11.3807	2.80959	34.0072
 255	1	6	-0.120715	9.12388	3.32077	35.5328
 256	1	8	0.007856	9.04215	3.3188	33.3997
 257	1	7	0.031711	9.84553	4.14632	35.5658
 258	1	7	0.04419	9.3368	2.64612	36.372
 259	1	7	-0.003555	8.12177	3.743	35.6795
 260	1	9	-0.011509	5.5566	-0.386739	35.2548
 261	1	9	-0.199369	5.15761	-1.66614	34.7805
 262	1	9	-0.201771	4.19589	-2.43551	35.4721
 263	1	9	0.15189	3.69934	-1.91026	36.6666
 264	1	9	0.348083	4.1371	-0.707821	37.1757
 265	1	9	-0.230673	5.06015	0.0820061	36.4931
 266	1	10	0.174789	5.56957	-2.04371	33.8464
 267	1	10	0.188672	3.83157	-3.38437	35.0886
 268	1	10	0.201012	5.36204	1.0396	36.9
 269	1	11	-0.381547	2.70407	-2.36888	37.4657
 270	1	1	-0.706002	3.45761	-0.418822	38.2439
 271	1	2	0.698504	2.58533	-1.36007	38.3933
 272	1	12	0.214303	7.38214	3.14935	29.5254
 273	1	1	-0.261357	-0.3446	0.21248	25.6228
 274	1	2	0.070556	0.916884	0.472565	25.5023
 275	1	2	0.0266	1.63852	-0.100713	24.5255
 276	1	2	0.33777	-0.966371	-0.60589	24.8137
 277	1	1	-0.659679	-0.28183	-1.19443	23.8722
 278	1	2	0.428714	0.981061	-0.930419	23.733
 279	1	2	0.160826	2.92426	-0.057154	24.1324
 280	1	3	0.04557	1.92948	-1.40012	22.8174
 281	1	1	-0.463031	3.14744	-0.824707	23.1168
 282	1	4	-0.07905	1.33518	1.32218	26.4055
 283	1	5	-0.061319	-2.31149	-0.882179	24.9453
 284	1	6	0.28436	1.84826	-2.76067	22.2485
 285	1	6	-0.21175	0.643155	-2.97822	21.3065
 286	1	7	0.07562	0.61568	-2.19808	20.5384
 287	1	7	0.047171	-0.306487	-2.95349	21.8538
 288	1	7	0.053131	0.716955	-3.94873	20.8013
 289	1	6	-0.120715	1.9093	-3.86507	23.3296
 290	1	8	0.007856	2.74573	-2.88207	21.6283
 291	1	7	0.031711	2.80555	-3.74577	23.9514
 292	1	7	0.04419	1.95074	-4.85856	22.8666
 293	1	7	-0.003555	1.0306	-3.83132	23.986
 294	1	9	-0.011509	3.86048	0.694294	24.8383
 295	1	9	-0.199369	4.34352	1.92317	24.3195
 296	1	9	-0.201771	5.20285	2.74903	25.0811
 297	1	9	0.15189	5.57519	2.28779	26.3487
 298	1	9	0.348083	5.14293	1.07172	26.8354
 299	1	9	-0.230673	4.2879	0.249034	26.109
 300	1	10	0.174789	4.01823	2.24508	23.3323
 301	1	10	0.188672	5.5376	3.7161	24.7182
 302	1	10	0.201012	3.9271	-0.675611	26.5446
 303	1	11	-0.381547	6.29502	2.90292	27.3286
 304	1	1	-0.706002	5.56636	0.913854	28.0492
 305	1	2	0.698504	6.18926	1.99902	28.3602
 306	1	12	0.214303	-2.56309	-1.8143	24.6681
 307	1	1	-0.261357	-4.90322	0.0767201	33.0932
 308	1	2	0.070556	-5.06341	0.364828	31.8426
 309	1	2	0.0266	-6.29625	0.544857	31.345
 310	1	2	0.33777	-5.91136	-0.0459275	33.9203
 311	1	1	-0.659679	-7.11933	0.147147	33.4637
 312	1	2	0.428714	-7.29123	0.41795	32.2062
 313	1	2	0.160826	-6.8059	0.819927	30.1309
 314	1	3	0.04557	-8.4505	0.620386	31.4563
 315	1	1	-0.463031	-8.09668	0.864847	30.144
 316	1	4	-0.07905	-3.93228	0.423968	31.1863
 317	1	5	-0.061319	-5.72312	-0.357598	35.2532
 318	1	6	0.28436	-9.72316	-0.0108218	31.8572
 319	1	6	-0.21175	-10.2508	-1.02581	30.8162
 320	1	7	0.07562	-9.48253	-1.77652	30.5913
 321	1	7	0.047171	-10.5202	-0.523301	29.8783
 322	1	7	0.053131	-11.1379	-1.54812	31.1936
 323	1	6	-0.120715	-10.802	1.04201	32.1852
 324	1	8	0.007856	-9.53949	-0.577966	32.7784
 325	1	7	0.031711	-11.7267	0.558985	32.5246
 326	1	7	0.04419	-11.0342	1.65073	31.3022
 327	1	7	-0.003555	-10.4578	1.71201	32.9833
 328	1	9	-0.011509	-5.97021	0.96663	29.0278
 329	1	9	-0.199369	-5.42848	2.23794	28.7061
 330	1	9	-0.201771	-4.48377	2.38223	27.6648
 331	1	9	0.15189	-4.11987	1.22632	26.9679
 332	1	9	0.348083	-4.66605	-0.00773392	27.2562
 333	1	9	-0.230673	-5.59723	-0.173338	28.2802
 334	1	10	0.174789	-5.71948	3.10479	29.2962
 335	1	10	0.188672	-4.02366	3.33853	27.4316
 336	1	10	0.201012	-5.98579	-1.15736	28.5103
 337	1	11	-0.381547	-3.16844	1.05416	26.0144
 338	1	1	-0.706002	-4.09358	-0.919358	26.5277
 339	1	2	0.698504	-3.18112	-0.310049	25.8489
 340	1	12	0.214303	-6.43702	0.0255999	35.8464
 341	1	1	-0.261357	2.99369	2.60661	34.788
 342	1	2	0.070556	1.94542	1.99061	35.2316
 343	1	2	0.0266	1.69242	1.93476	36.5498
 344	1	2	0.33777	3.84011	3.20451	35.586
 345	1	1	-0.659679	3.62441	3.16519	36.8731
 346	1	2	0.428714	2.57072	2.5552	37.3213
 347	1	2	0.160826	0.737542	1.39678	37.3381
 348	1	3	0.04557	2.08669	2.38712	38.6163
 349	1	1	-0.463031	0.922665	1.64994	38.5942
 350	1	4	-0.07905	1.21776	1.51073	34.256
 351	1	5	-0.061319	4.9771	3.82196	35.1101
 352	1	6	0.28436	2.80709	2.86222	39.8095
 353	1	6	-0.21175	2.57491	1.97235	41.0527
 354	1	7	0.07562	2.88061	0.940092	40.8462
 355	1	7	0.047171	1.51627	1.9688	41.3429
 356	1	7	0.053131	3.16318	2.33396	41.9049
 357	1	6	-0.120715	2.46731	4.33422	40.125
 358	1	8	0.007856	3.87956	2.81425	39.5811
 359	1	7	0.031711	3.04666	4.69316	40.9845
 360	1	7	0.04419	1.40036	4.44712	40.3553
 361	1	7	-0.003555	2.70173	4.9782	39.2678
 362	1	9	-0.011509	-0.315813	0.621399	36.8509
 363	1	9	-0.199369	-0.0605965	-0.54281	36.0779
 364	1	9	-0.201771	-1.11654	-1.30031	35.5317
 365	1	9	0.15189	-2.41443	-0.892954	35.8362
 366	1	9	0.348083	-2.68049	0.192165	36.6437
 367	1	9	-0.230673	-1.64942	0.980374	37.1582
 368	1	10	0.174789	0.964525	-0.834662	35.8599
 369	1	10	0.188672	-0.938157	-2.1444	34.873
 370	1	10	0.201012	-1.87886	1.86329	37.7433
 371	1	11	-0.381547	-3.5869	-1.34436	35.3364
 372	1	1	-0.706002	-3.96141	0.420098	36.6542
 373	1	2	0.698504	-4.48689	-0.449416	35.8558
 374	1	12	0.214303	5.72392	3.93602	35.7714
 375	1	1	-0.261357	2.57835	4.48467	26.6298
 376	1	2	0.070556	3.39347	4.69131	27.6183
 377	1	2	0.0266	4.21789	5.75478	27.6158
 378	1	2	0.33777	2.52285	5.29155	25.6017
 379	1	1	-0.659679	3.31879	6.32203	25.5669
 380	1	2	0.428714	4.13404	6.53222	26.5482
 381	1	2	0.160826	5.16463	6.27343	28.4269
 382	1	3	0.04557	5.06907	7.5442	26.7443
 383	1	1	-0.463031	5.72173	7.33327	27.936
 384	1	4	-0.07905	3.30423	3.75569	28.5281
 385	1	5	-0.061319	1.64721	5.12179	24.5571
 386	1	6	0.28436	5.55913	8.39394	25.6436
 387	1	6	-0.21175	7.06349	8.18653	25.3577
 388	1	7	0.07562	7.37563	8.76784	24.4816
 389	1	7	0.047171	7.27573	7.12874	25.1586
 390	1	7	0.053131	7.67237	8.50257	26.2144
 391	1	6	-0.120715	5.2488	9.88475	25.8925
 392	1	8	0.007856	5.02252	8.10484	24.7314
 393	1	7	0.031711	5.75782	10.2453	26.7955
 394	1	7	0.04419	4.17003	10.0352	26.025
 395	1	7	-0.003555	5.57469	10.4992	25.0437
 396	1	9	-0.011509	5.54865	5.75511	29.6661
 397	1	9	-0.199369	6.93285	5.61927	29.9622
 398	1	9	-0.201771	7.37632	5.19339	31.2345
 399	1	9	0.15189	6.39623	4.90915	32.1892
 400	1	9	0.348083	5.05294	5.03831	31.9116
 401	1	9	-0.230673	4.59484	5.48457	30.6751
 402	1	10	0.174789	7.66342	5.88141	29.1981
 403	1	10	0.188672	8.43046	5.08667	31.4732
 404	1	10	0.201012	3.52989	5.61664	30.5183
 405	1	11	-0.381547	6.52536	4.4582	33.4664
 406	1	1	-0.706002	4.36228	4.6813	32.9471
 407	1	2	0.698504	5.21314	4.3036	33.8401
 408	1	12	0.214303	1.82378	5.81006	23.8475
 409	1	1	-0.261357	-1.73332	3.52194	17.1825
 410	1	2	0.070556	-1.30605	3.03832	18.3067
 411	1	2	0.0266	-0.843508	1.77827	18.3728
 412	1	2	0.33777	-1.75241	2.81057	16.0857
 413	1	1	-0.659679	-1.29074	1.58939	16.1192
 414	1	2	0.428714	-0.857957	1.10237	17.2376
 415	1	2	0.160826	-0.345041	0.985104	19.3425
 416	1	3	0.04557	-0.337633	-0.146401	17.5608
 417	1	1	-0.463031	-0.0187117	-0.186235	18.9005
 418	1	4	-0.07905	-1.38576	3.89964	19.2895
 419	1	5	-0.061319	-2.2203	3.36783	14.9155
 420	1	6	0.28436	-0.180468	-1.23572	16.5809
 421	1	6	-0.21175	-0.508505	-2.62434	17.1743
 422	1	7	0.07562	-0.478752	-3.39613	16.3958
 423	1	7	0.047171	-1.51252	-2.62614	17.6166
 424	1	7	0.053131	0.210728	-2.89675	17.957
 425	1	6	-0.120715	1.2248	-1.23518	15.942
 426	1	8	0.007856	-0.904584	-1.057	15.7757
 427	1	7	0.031711	1.30854	-2.02352	15.1834
 428	1	7	0.04419	1.99905	-1.40323	16.7013
 429	1	7	-0.003555	1.42762	-0.273944	15.4529
 430	1	9	-0.011509	-0.243897	1.45589	20.648
 431	1	9	-0.199369	-1.35407	1.34683	21.5251
 432	1	9	-0.201771	-1.34175	1.97089	22.7928
 433	1	9	0.15189	-0.1836	2.66479	23.1511
 434	1	9	0.348083	0.912935	2.73555	22.3206
 435	1	9	-0.230673	0.916517	2.15047	21.0558
 436	1	10	0.174789	-2.24422	0.817157	21.1925
 437	1	10	0.188672	-2.19913	1.94851	23.4594
 438	1	10	0.201012	1.76465	2.28375	20.3941
 439	1	11	-0.381547	0.0582127	3.44884	24.234
 440	1	1	-0.706002	1.7829	3.54955	22.8328
 441	1	2	0.698504	1.32423	3.91817	23.9825
 442	1	12	0.214303	-2.18229	4.37112	14.8828
 443	1	1	-0.261357	-10.3626	3.89607	10.8184
 444	1	2	0.070556	-9.22108	3.37534	11.1415
 445	1	2	0.0266	-8.53375	2.65586	10.2425
 446	1	2	0.33777	-10.8884	3.74818	9.62974
 447	1	1	-0.659679	-10.2471	3.02772	8.74612
 448	1	2	0.428714	-9.09579	2.51535	9.05275
 449	1	2	0.160826	-7.36348	1.99509	10.2417
 450	1	3	0.04557	-8.19087	1.74393	8.31673
 451	1	1	-0.463031	-7.11482	1.42212	9.11375
 452	1	4	-0.07905	-8.85264	3.62959	12.3718
 453	1	5	-0.061319	-12.1136	4.33352	9.38117
 454	1	6	0.28436	-8.57003	0.977947	7.11638
 455	1	6	-0.21175	-8.45884	-0.549979	7.34582
 456	1	7	0.07562	-9.12343	-0.865099	8.15945
 457	1	7	0.047171	-7.43335	-0.832348	7.6168
 458	1	7	0.053131	-8.72512	-1.11425	6.44592
 459	1	6	-0.120715	-7.73248	1.39971	5.89023
 460	1	8	0.007856	-9.61958	1.20192	6.88767
 461	1	7	0.031711	-6.66687	1.19575	6.05736
 462	1	7	0.04419	-7.84744	2.4736	5.69669
 463	1	7	-0.003555	-8.05044	0.856555	4.99106
 464	1	9	-0.011509	-6.54633	1.9061	11.3623
 465	1	9	-0.199369	-6.67127	0.794354	12.2346
 466	1	9	-0.201771	-5.81294	0.642316	13.3454
 467	1	9	0.15189	-4.84232	1.62855	13.5383
 468	1	9	0.348083	-4.71525	2.71115	12.6923
 469	1	9	-0.230673	-5.5508	2.88196	11.59
 470	1	10	0.174789	-7.42593	0.0381246	12.0284
 471	1	10	0.188672	-5.88065	-0.21023	14.0151
 472	1	10	0.201012	-5.41453	3.72589	10.9234
 473	1	11	-0.381547	-3.87155	1.71331	14.4821
 474	1	1	-0.706002	-3.72336	3.45304	13.083
 475	1	2	0.698504	-3.20284	2.85187	14.0997
 476	1	12	0.214303	-12.6077	4.57953	10.2203
 477	1	1	-0.261357	-14.5242	2.42344	1.07618
 478	1	2	0.070556	-14.6934	2.97038	2.23601
 479	1	2	0.0266	-15.5876	3.95561	2.4087
 480	1	2	0.33777	-15.2018	2.8035	0.0268582
 481	1	1	-0.659679	-16.0781	3.76533	0.160145
 482	1	2	0.428714	-16.25	4.31504	1.32114
 483	1	2	0.160826	-16.0294	4.69737	3.44499
 484	1	3	0.04557	-17.1202	5.31663	1.7436
 485	1	1	-0.463031	-16.9574	5.52986	3.09467
 486	1	4	-0.07905	-13.9052	2.44078	3.13199
 487	1	5	-0.061319	-15.0241	2.1223	-1.15773
 488	1	6	0.28436	-17.9963	6.0684	0.822688
 489	1	6	-0.21175	-17.1988	7.00045	-0.117564
 490	1	7	0.07562	-16.4741	6.42975	-0.7118
 491	1	7	0.047171	-16.651	7.75804	0.456994
 492	1	7	0.053131	-17.8706	7.51597	-0.814954
 493	1	6	-0.120715	-19.1048	6.87083	1.5409
 494	1	8	0.007856	-18.5017	5.32589	0.19486
 495	1	7	0.031711	-19.7815	7.33459	0.81261
 496	1	7	0.04419	-18.6749	7.66364	2.16581
 497	1	7	-0.003555	-19.7055	6.21846	2.18261
 498	1	9	-0.011509	-15.6096	4.50367	4.76419
 499	1	9	-0.199369	-16.5892	4.20939	5.74742
 500	1	9	-0.201771	-16.242	4.00642	7.10004
 501	1	9	0.15189	-14.8873	4.0944	7.42653
 502	1	9	0.348083	-13.9235	4.39227	6.48669
 503	1	9	-0.230673	-14.2528	4.6351	5.15203
 504	1	10	0.174789	-17.6311	4.15808	5.44484
 505	1	10	0.188672	-16.988	3.80174	7.86262
 506	1	10	0.201012	-13.4734	4.8936	4.44379
 507	1	11	-0.381547	-14.2772	3.95638	8.63183
 508	1	1	-0.706002	-12.7622	4.44493	7.06775
 509	1	2	0.698504	-12.955	4.13666	8.30806
 510	1	12	0.214303	-14.8187	1.14769	-1.02445
 511	1	1	-0.261357	-17.5936	-0.877487	-9.19158
 512	1	2	0.070556	-17.4146	0.0406332	-8.2923
 513	1	2	0.0266	-18.314	1.02709	-8.13801
 514	1	2	0.33777	-18.6423	-0.885051	-9.97433
 515	1	1	-0.659679	-19.5254	0.0648319	-9.84702
 516	1	2	0.428714	-19.3515	0.987215	-8.95644
 517	1	2	0.160826	-18.4479	2.11706	-7.35827
 518	1	3	0.04557	-20.1177	2.11549	-8.66756
 519	1	1	-0.463031	-19.4927	2.81625	-7.66033
 520	1	4	-0.07905	-16.2843	-0.0999415	-7.64861
 521	1	5	-0.061319	-18.8577	-1.89032	-10.8911
 522	1	6	0.28436	-20.8782	2.77425	-9.74578
 523	1	6	-0.21175	-19.9571	3.39181	-10.8241
 524	1	7	0.07562	-20.5496	3.84761	-11.6264
 525	1	7	0.047171	-19.3145	2.62607	-11.2764
 526	1	7	0.053131	-19.3119	4.16532	-10.3887
 527	1	6	-0.120715	-21.8659	3.83783	-9.21518
 528	1	8	0.007856	-21.4735	1.99691	-10.2387
 529	1	7	0.031711	-22.4714	4.2476	-10.033
 530	1	7	0.04419	-21.3298	4.66722	-8.73683
 531	1	7	-0.003555	-22.5481	3.40383	-8.47468
 532	1	9	-0.011509	-17.5706	2.48905	-6.33802
 533	1	9	-0.199369	-17.1191	3.83468	-6.26904
 534	1	9	-0.201771	-16.3741	4.30605	-5.16577
 535	1	9	0.15189	-16.0857	3.38809	-4.15387
 536	1	9	0.348083	-16.4981	2.07354	-4.21967
 537	1	9	-0.230673	-17.2664	1.59822	-5.28089
 538	1	10	0.174789	-17.4002	4.52732	-7.06022
 539	1	10	0.188672	-16.0684	5.3449	-5.07898
 540	1	10	0.201012	-17.6523	0.585445	-5.25152
 541	1	11	-0.381547	-15.5154	3.5938	-2.9392
 542	1	1	-0.706002	-16.1788	1.46612	-3.11903
 543	1	2	0.698504	-15.6727	2.36472	-2.34407
 544	1	12	0.214303	-19.8297	-2.13991	-10.995
 545	1	1	-0.261357	-18.3086	-2.70686	-19.8617
 546	1	2	0.070556	-17.8404	-2.6555	-18.6534
 547	1	2	0.0266	-16.7809	-3.4044	-18.3101
 548	1	2	0.33777	-17.7858	-3.48097	-20.7808
 549	1	1	-0.659679	-16.7402	-4.19975	-20.4775
 550	1	2	0.428714	-16.2687	-4.15507	-19.2714
 551	1	2	0.160826	-16.0531	-3.59309	-17.1931
 552	1	3	0.04557	-15.1931	-4.81677	-18.6824
 553	1	1	-0.463031	-15.073	-4.41732	-17.3703
 554	1	4	-0.07905	-18.4878	-1.82713	-17.8737
 555	1	5	-0.061319	-18.3072	-3.55991	-22.0546
 556	1	6	0.28436	-14.1341	-5.47247	-19.4698
 557	1	6	-0.21175	-13.972	-6.95759	-19.0827
 558	1	7	0.07562	-14.9241	-7.48992	-19.1995
 559	1	7	0.047171	-13.6513	-7.05608	-18.0378
 560	1	7	0.053131	-13.227	-7.44821	-19.7211
 561	1	6	-0.120715	-12.7821	-4.73032	-19.3752
 562	1	8	0.007856	-14.4368	-5.44884	-20.5241
 563	1	7	0.031711	-12.0313	-5.2055	-20.0185
 564	1	7	0.04419	-12.4029	-4.73472	-18.3452
 565	1	7	-0.003555	-12.8906	-3.6863	-19.6955
 566	1	9	-0.011509	-16.3057	-2.93284	-15.9927
 567	1	9	-0.199369	-15.3915	-1.9471	-15.5394
 568	1	9	-0.201771	-15.5638	-1.30874	-14.2918
 569	1	9	0.15189	-16.6661	-1.69473	-13.5259
 570	1	9	0.348083	-17.5603	-2.65351	-13.9559
 571	1	9	-0.230673	-17.4086	-3.29867	-15.1842
 572	1	10	0.174789	-14.53	-1.69995	-16.1566
 573	1	10	0.188672	-14.863	-0.566002	-13.9216
 574	1	10	0.201012	-18.1102	-4.06859	-15.4845
 575	1	11	-0.381547	-17.038	-1.2908	-12.2846
 576	1	1	-0.706002	-18.4603	-2.8455	-13.038
 577	1	2	0.698504	-18.146	-2.06959	-12.0553
 578	1	12	0.214303	-17.8707	-4.2854	-22.5942
 579	1	1	-0.261357	-24.7028	-1.13128	-17.982
 580	1	2	0.070556	-24.3282	-1.46301	-19.1734
 581	1	2	0.0266	-25.212	-1.97616	-20.0449
 582	1	2	0.33777	-25.9353	-1.27653	-17.5703
 583	1	1	-0.659679	-26.8174	-1.76078	-18.4037
 584	1	2	0.428714	-26.4538	-2.0911	-19.6057
 585	1	2	0.160826	-25.153	-2.43338	-21.3098
 586	1	3	0.04557	-27.1686	-2.61533	-20.6878
 587	1	1	-0.463031	-26.3033	-2.84026	-21.7364
 588	1	4	-0.07905	-23.0554	-1.22543	-19.3679
 589	1	5	-0.061319	-26.3094	-0.990661	-16.2716
 590	1	6	0.28436	-28.4672	-3.30108	-20.5565
 591	1	6	-0.21175	-29.6008	-2.38535	-20.0416
 592	1	7	0.07562	-29.6574	-1.46864	-20.6413
 593	1	7	0.047171	-29.4421	-2.10161	-18.9942
 594	1	7	0.053131	-30.5691	-2.8961	-20.1099
 595	1	6	-0.120715	-28.3746	-4.5997	-19.7252
 596	1	8	0.007856	-28.7546	-3.60098	-21.5726
 597	1	7	0.031711	-28.1	-4.3866	-18.6847
 598	1	7	0.04419	-27.6174	-5.27153	-20.1489
 599	1	7	-0.003555	-29.3348	-5.13095	-19.7247
 600	1	9	-0.011509	-23.9321	-2.48195	-21.9741
 601	1	9	-0.199369	-23.5915	-1.4813	-22.9191
 602	1	9	-0.201771	-22.282	-1.39806	-23.4447
 603	1	9	0.15189	-21.3561	-2.353	-23.0118
 604	1	9	0.348083	-21.7022	-3.36391	-22.1379
 605	1	9	-0.230673	-22.9807	-3.45638	-21.5967
 606	1	10	0.174789	-24.3312	-0.729193	-23.1858
 607	1	10	0.188672	-21.9789	-0.590578	-24.1047
 608	1	10	0.201012	-23.1927	-4.1987	-20.8354
 609	1	11	-0.381547	-20.0071	-2.38718	-23.1839
 610	1	1	-0.706002	-20.6361	-4.00202	-21.7671
 611	1	2	0.698504	-19.6457	-3.40943	-22.3418
 612	1	12	0.214303	-27.1883	-1.408	-16.0215
 613	1	1	-0.261357	-23.4944	0.818537	-7.77317
 614	1	2	0.070556	-23.4248	0.357385	-8.98237
 615	1	2	0.0266	-22.7173	-0.753449	-9.2411
 616	1	2	0.33777	-22.8697	0.249676	-6.77527
 617	1	1	-0.659679	-22.1818	-0.836394	-7.00235
 618	1	2	0.428714	-22.119	-1.31483	-8.20477
 619	1	2	0.160826	-22.4443	-1.48126	-10.3391
 620	1	3	0.04557	-21.47	-2.43625	-8.72646