pySIMM System Object

1600 atoms
1787 bonds
2961 angles
4508 dihedrals
188 impropers

13 atom types
18 bond types
33 angle types
13 dihedral types
2 improper types

-179.609128 179.609128 xlo xhi
-179.609128 179.609128 ylo yhi
-179.609128 179.609128 zlo zhi

Masses

   1	14.01	# n2
   2	12.01	# c2
   3	14.01	# na
   4	12.01	# c1
   5	14.01	# nh
   6	12.01	# c3
   7	1.008	# hc
   8	1.008	# h1
   9	12.01	# ca
  10	1.008	# ha
  11	16.0	# os
  12	1.008	# hn
  13	1.008	# h5

Pair Coeffs

   1	0.17	3.249998523775958	# n2
   2	0.086	3.3996695084235347	# c2
   3	0.17	3.249998523775958	# na
   4	0.21	3.3996695084235347	# c1
   5	0.17	3.249998523775958	# nh
   6	0.1094	3.3996695084235347	# c3
   7	0.0157	2.649532787749369	# hc
   8	0.0157	2.471353044121301	# h1
   9	0.086	3.3996695084235347	# ca
  10	0.015	2.59964245953351	# ha
  11	0.17	3.0000123434657784	# os
  12	0.0157	1.069078461768407	# hn
  13	0.015	2.421462715905442	# h5

Bond Coeffs

   1	300.9	1.5375	# c3,c3
   2	416.2	1.3872	# c2,nh
   3	330.6	1.0969	# c3,hc
   4	397.4	1.4015	# c2,na
   5	345.8	1.086	# ca,ha
   6	625.0	1.307	# c1,c2
   7	330.6	1.0969	# c3,h1
   8	404.6	1.0121	# hn,nh
   9	376.6	1.3696	# ca,os
  10	505.3	1.3676	# n2,na
  11	327.7	1.4629	# c3,na
  12	338.4	1.0912	# c2,h5
  13	569.4	1.3343	# c2,c2
  14	551.6	1.303	# ca,n2
  15	389.2	1.3596	# c2,os
  16	594.1	1.2817	# c2,n2
  17	461.1	1.3984	# ca,ca
  18	482.1	1.3846	# c2,ca

Angle Coeffs

   1	39.4	107.58	# hc,c3,hc
   2	52.26	121.7	# h5,c2,n2
   3	70.06	121.62	# c1,c2,c2
   4	69.58	119.2	# ca,ca,os
   5	78.34	113.82	# n2,c2,n2
   6	70.52	117.58	# c2,n2,na
   7	46.39	109.56	# c3,c3,h1
   8	71.15	126.01	# c2,c2,n2
   9	62.86	111.51	# c3,c3,c3
  10	49.83	108.78	# h1,c3,na
  11	70.0	119.94	# c2,n2,ca
  12	65.52	112.88	# c3,c3,na
  13	69.36	117.0	# c2,c2,ca
  14	71.79	124.27	# n2,c2,nh
  15	46.34	109.8	# c3,c3,hc
  16	65.56	125.0	# c2,na,n2
  17	74.41	119.78	# n2,c2,os
  18	70.62	119.57	# ca,ca,n2
  19	48.18	119.88	# ca,ca,ha
  20	69.14	121.94	# c2,c2,na
  21	71.53	123.62	# n2,c2,na
  22	66.78	120.6	# c2,ca,ca
  23	69.3	121.81	# c2,c2,c2
  24	64.17	118.2	# c2,os,ca
  25	40.07	115.12	# hn,nh,hn
  26	48.59	115.09	# c2,nh,hn
  27	52.71	110.95	# h5,c2,os
  28	65.54	119.24	# c3,na,n2
  29	66.62	120.02	# ca,ca,ca
  30	71.11	118.18	# c2,n2,c2
  31	63.85	117.2	# c2,na,c3
  32	63.96	124.73	# c2,nh,c2
  33	73.36	114.3	# nh,c2,os

Dihedral Coeffs

   1	1	6.65	2	180	# X,c2,c2,X
   2	1	3.625	2	180	# X,ca,ca,X
   3	1	1.7	2	180	# X,n2,na,X
   4	1	0.7	2	180	# X,c2,ca,X
   5	1	0.15555555555555556	3	0	# X,c3,c3,X
   6	1	1.05	2	180	# X,c2,os,X
   7	1	0.0	3	180	# X,ca,n2,X
   8	1	4.15	2	180	# X,c2,n2,X
   9	1	0.9	2	180	# X,ca,os,X
  10	1	0.625	2	180	# X,c2,na,X
  11	1	0.0	2	0	# X,c3,na,X
  12	1	0.16	3	0	# hc,c3,c3,c3
  13	1	0.675	2	180	# X,c2,nh,X

Improper Coeffs

   1	1.1	-1	2	# ca,X,X,ha
   2	1.1	-1	2	# ca,ca,ca,c2

Atoms

   1	1	1	-0.261357	-6.12678	-26.3996	-41.7346
   2	1	2	0.070556	-7.0295	-26.3965	-40.8058
   3	1	2	0.0266	-8.05737	-25.5339	-40.8595
   4	1	2	0.33777	-6.17329	-25.5707	-42.7443
   5	1	1	-0.659679	-7.13623	-24.6913	-42.8002
   6	1	2	0.428714	-8.05546	-24.7006	-41.8865
   7	1	2	0.160826	-9.13352	-25.2604	-40.0984
   8	1	3	0.04557	-9.19623	-23.9137	-41.7253
   9	1	1	-0.463031	-9.83802	-24.2791	-40.5623
  10	1	4	-0.07905	-6.78917	-27.2813	-39.872
  11	1	5	-0.061319	-5.24279	-25.6097	-43.7556
  12	1	6	0.28436	-9.33221	-22.5985	-42.3752
  13	1	6	-0.21175	-8.70519	-21.4697	-41.5272
  14	1	7	0.07562	-7.6488	-21.6825	-41.3224
  15	1	7	0.047171	-9.2268	-21.3665	-40.5669
  16	1	7	0.053131	-8.76219	-20.5095	-42.0547
  17	1	6	-0.120715	-10.7988	-22.2617	-42.7235
  18	1	8	0.007856	-8.78227	-22.6412	-43.3241
  19	1	7	0.031711	-11.4181	-22.2108	-41.8188
  20	1	7	0.04419	-11.2218	-23.023	-43.3885
  21	1	7	-0.003555	-10.8648	-21.2952	-43.2388
  22	1	9	-0.011509	-9.43166	-25.9479	-38.924
  23	1	9	-0.199369	-9.74489	-27.3292	-38.9601
  24	1	9	-0.201771	-10.1429	-28.0211	-37.7958
  25	1	9	0.15189	-10.2305	-27.2835	-36.6122
  26	1	9	0.348083	-9.91211	-25.9413	-36.563
  27	1	9	-0.230673	-9.51193	-25.2436	-37.7027
  28	1	10	0.174789	-9.7006	-27.857	-39.9086
  29	1	10	0.188672	-10.4033	-29.0735	-37.8209
  30	1	10	0.201012	-9.31068	-24.1818	-37.65
  31	1	11	-0.381547	-10.6434	-27.6711	-35.3766
  32	1	1	-0.706002	-10.0894	-25.4936	-35.3561
  33	1	2	0.698504	-10.5524	-26.4922	-34.6774
  34	1	12	0.214303	-5.13664	-24.7029	-44.1741
  35	1	1	-0.261357	-10.2705	-29.4792	-50.1193
  36	1	2	0.070556	-9.19126	-29.2803	-49.4263
  37	1	2	0.0266	-7.98403	-29.3692	-50.0108
  38	1	2	0.33777	-10.2285	-29.7821	-51.3911
  39	1	1	-0.659679	-9.07023	-29.8303	-51.9879
  40	1	2	0.428714	-7.98783	-29.6349	-51.3056
  41	1	2	0.160826	-6.70465	-29.2382	-49.6109
  42	1	3	0.04557	-6.64447	-29.6557	-51.6858
  43	1	1	-0.463031	-5.86524	-29.3724	-50.5855
  44	1	4	-0.07905	-9.42989	-28.9767	-48.1752
  45	1	5	-0.061319	-11.3765	-30.0071	-52.1159
  46	1	6	0.28436	-6.20037	-29.4238	-53.0741
  47	1	6	-0.21175	-6.60951	-28.0338	-53.6091
  48	1	7	0.07562	-7.6998	-27.9479	-53.6767
  49	1	7	0.047171	-6.1899	-27.8601	-54.6067
  50	1	7	0.053131	-6.2435	-27.2422	-52.9438
  51	1	6	-0.120715	-6.62883	-30.5415	-54.0526
  52	1	8	0.007856	-5.10314	-29.4401	-53.0491
  53	1	7	0.031711	-7.71329	-30.5391	-54.2172
  54	1	7	0.04419	-6.34344	-31.5265	-53.6632
  55	1	7	-0.003555	-6.14192	-30.4102	-55.0265
  56	1	9	-0.011509	-6.36653	-28.975	-48.286
  57	1	9	-0.199369	-6.50021	-29.9853	-47.2971
  58	1	9	-0.201771	-6.21166	-29.7187	-45.9401
  59	1	9	0.15189	-5.77807	-28.4297	-45.6212
  60	1	9	0.348083	-5.61842	-27.4522	-46.5818
  61	1	9	-0.230673	-5.89783	-27.6929	-47.9261
  62	1	10	0.174789	-6.85894	-30.9708	-47.587
  63	1	10	0.188672	-6.35021	-30.4649	-45.1631
  64	1	10	0.201012	-5.78841	-26.9057	-48.6638
  65	1	11	-0.381547	-5.53384	-27.8734	-44.4063
  66	1	1	-0.706002	-5.32796	-26.3219	-46.0079
  67	1	2	0.698504	-5.2694	-26.5693	-44.7412
  68	1	12	0.214303	-11.547	-29.2385	-52.7457
  69	1	1	-0.261357	-15.3472	-37.4855	-56.898
  70	1	2	0.070556	-14.5534	-36.6598	-56.281
  71	1	2	0.0266	-13.3874	-36.2916	-56.8404
  72	1	2	0.33777	-15.0598	-37.9735	-58.0793
  73	1	1	-0.659679	-13.9159	-37.6541	-58.6174
  74	1	2	0.428714	-13.1245	-36.8299	-58.0167
  75	1	2	0.160826	-12.3631	-35.473	-56.5253
  76	1	3	0.04557	-11.8933	-36.3115	-58.401
  77	1	1	-0.463031	-11.4541	-35.4255	-57.4442
  78	1	4	-0.07905	-15.0272	-36.2373	-55.1367
  79	1	5	-0.061319	-15.9272	-38.8254	-58.7403
  80	1	6	0.28436	-11.4241	-36.3873	-59.7934
  81	1	6	-0.21175	-9.8863	-36.3455	-59.9081
  82	1	7	0.07562	-9.57557	-36.5045	-60.9469
  83	1	7	0.047171	-9.43167	-37.1317	-59.2934
  84	1	7	0.053131	-9.49404	-35.3786	-59.572
  85	1	6	-0.120715	-12.0797	-35.3186	-60.6962
  86	1	8	0.007856	-11.7372	-37.3674	-60.1695
  87	1	7	0.031711	-11.8479	-34.308	-60.3414
  88	1	7	0.04419	-13.1707	-35.4364	-60.7004
  89	1	7	-0.003555	-11.7275	-35.4069	-61.7314
  90	1	9	-0.011509	-12.2792	-34.7367	-55.3456
  91	1	9	-0.199369	-12.1532	-35.3961	-54.0946
  92	1	9	-0.201771	-11.9506	-34.6658	-52.9035
  93	1	9	0.15189	-11.8745	-33.275	-53.012
  94	1	9	0.348083	-11.9956	-32.623	-54.2228
  95	1	9	-0.230673	-12.1848	-33.3265	-55.4127
  96	1	10	0.174789	-12.1835	-36.483	-54.0575
  97	1	10	0.188672	-11.8296	-35.1553	-51.9415
  98	1	10	0.201012	-12.2186	-32.8052	-56.3634
  99	1	11	-0.381547	-11.6186	-32.3497	-52.0527
 100	1	1	-0.706002	-11.8403	-31.3428	-54.0458
 101	1	2	0.698504	-11.5904	-31.1897	-52.7848
 102	1	12	0.214303	-16.1907	-39.6261	-58.1951
 103	1	1	-0.261357	-10.2896	-37.0606	-63.855
 104	1	2	0.070556	-11.3585	-37.7883	-63.8026
 105	1	2	0.0266	-12.1543	-37.9052	-64.8773
 106	1	2	0.33777	-9.94195	-36.4113	-64.9369
 107	1	1	-0.659679	-10.6777	-36.5423	-66.009
 108	1	2	0.428714	-11.7477	-37.2752	-65.9646
 109	1	2	0.160826	-13.3258	-38.5163	-65.1391
 110	1	3	0.04557	-12.7274	-37.5408	-66.9205
 111	1	1	-0.463031	-13.6994	-38.3467	-66.3649
 112	1	4	-0.07905	-11.5211	-38.3638	-62.6391
 113	1	5	-0.061319	-8.89151	-35.5159	-64.9396
 114	1	6	0.28436	-12.4497	-37.4343	-68.363
 115	1	6	-0.21175	-13.7156	-37.1025	-69.1836
 116	1	7	0.07562	-13.4666	-36.9592	-70.2419
 117	1	7	0.047171	-14.1832	-36.181	-68.8153
 118	1	7	0.053131	-14.453	-37.9122	-69.1107
 119	1	6	-0.120715	-11.7583	-38.7007	-68.9144
 120	1	8	0.007856	-11.754	-36.5966	-68.4996
 121	1	7	0.031711	-12.4115	-39.5772	-68.8165
 122	1	7	0.04419	-10.8299	-38.9038	-68.3659
 123	1	7	-0.003555	-11.5043	-38.5774	-69.9748
 124	1	9	-0.011509	-14.0339	-39.113	-64.1004
 125	1	9	-0.199369	-13.8996	-40.4957	-63.8142
 126	1	9	-0.201771	-14.4343	-41.041	-62.6228
 127	1	9	0.15189	-15.1212	-40.1716	-61.7664
 128	1	9	0.348083	-15.3084	-38.8404	-62.0783
 129	1	9	-0.230673	-14.765	-38.277	-63.2281
 130	1	10	0.174789	-13.3115	-41.1225	-64.4813
 131	1	10	0.188672	-14.2612	-42.075	-62.3393
 132	1	10	0.201012	-14.8296	-37.206	-63.3843
 133	1	11	-0.381547	-15.5147	-40.3604	-60.4753
 134	1	1	-0.706002	-15.7845	-38.2151	-61.0487
 135	1	2	0.698504	-15.854	-39.0829	-60.0959
 136	1	12	0.214303	-8.97839	-34.8533	-65.6899
 137	1	1	-0.261357	-10.1776	-30.9683	-57.5921
 138	1	2	0.070556	-9.39573	-31.5935	-58.4155
 139	1	2	0.0266	-8.11782	-31.21	-58.5599
 140	1	2	0.33777	-9.77129	-29.9459	-56.885
 141	1	1	-0.659679	-8.52703	-29.5637	-56.9987
 142	1	2	0.428714	-7.73821	-30.1875	-57.8142
 143	1	2	0.160826	-7.06776	-31.6122	-59.3013
 144	1	3	0.04557	-6.39195	-29.9977	-58.116
 145	1	1	-0.463031	-6.00908	-30.9021	-59.0831
 146	1	4	-0.07905	-9.9884	-32.5781	-59.0394
 147	1	5	-0.061319	-10.6602	-29.3392	-56.0213
 148	1	6	0.28436	-5.68903	-28.7428	-57.7999
 149	1	6	-0.21175	-5.7404	-27.7371	-58.9705
 150	1	7	0.07562	-5.25801	-26.7921	-58.6936
 151	1	7	0.047171	-6.78002	-27.5204	-59.2464
 152	1	7	0.053131	-5.2285	-28.1405	-59.8536
 153	1	6	-0.120715	-4.2324	-28.9859	-57.3478
 154	1	8	0.007856	-6.20917	-28.2793	-56.9527
 155	1	7	0.031711	-4.20159	-29.6834	-56.5016
 156	1	7	0.04419	-3.76285	-28.0472	-57.0295
 157	1	7	-0.003555	-3.63116	-29.4105	-58.162
 158	1	9	-0.011509	-7.16223	-32.6771	-60.1938
 159	1	9	-0.199369	-6.66241	-33.9506	-59.8201
 160	1	9	-0.201771	-6.77703	-35.0608	-60.6857
 161	1	9	0.15189	-7.38843	-34.8449	-61.9239
 162	1	9	0.348083	-7.8513	-33.6028	-62.3077
 163	1	9	-0.230673	-7.75818	-32.4952	-61.4641
 164	1	10	0.174789	-6.20187	-34.0733	-58.8416
 165	1	10	0.188672	-6.43162	-36.0504	-60.4008
 166	1	10	0.201012	-8.15449	-31.5362	-61.7772
 167	1	11	-0.381547	-7.70254	-35.7359	-62.9005
 168	1	1	-0.706002	-8.41595	-33.6926	-63.4755
 169	1	2	0.698504	-8.36414	-34.9395	-63.8027
 170	1	12	0.214303	-11.355	-29.9692	-55.6489
 171	1	1	-0.261357	-8.10786	-25.4547	-48.6074
 172	1	2	0.070556	-8.63066	-25.3527	-49.7878
 173	1	2	0.0266	-9.75756	-24.6451	-49.967
 174	1	2	0.33777	-8.6522	-24.9011	-47.5558
 175	1	1	-0.659679	-9.73408	-24.1885	-47.7115
 176	1	2	0.428714	-10.2575	-24.0695	-48.8884
 177	1	2	0.160826	-10.5724	-24.3838	-51.004
 178	1	3	0.04557	-11.4194	-23.427	-49.3123
 179	1	1	-0.463031	-11.6019	-23.6842	-50.6552
 180	1	4	-0.07905	-7.96469	-26.0127	-50.7013
 181	1	5	-0.061319	-8.1285	-25.1503	-46.3081
 182	1	6	0.28436	-12.5204	-23.1735	-48.3652
 183	1	6	-0.21175	-13.389	-24.4298	-48.1304
 184	1	7	0.07562	-13.8783	-24.7431	-49.0613
 185	1	7	0.047171	-14.1656	-24.233	-47.3812
 186	1	7	0.053131	-12.7735	-25.2636	-47.7695
 187	1	6	-0.120715	-13.3973	-21.9747	-48.7885
 188	1	8	0.007856	-12.0665	-22.9067	-47.4022
 189	1	7	0.031711	-12.7818	-21.0774	-48.9288
 190	1	7	0.04419	-14.1481	-21.7538	-48.0199
 191	1	7	-0.003555	-13.9226	-22.1802	-49.7301
 192	1	9	-0.011509	-10.3539	-24.9732	-52.2434
 193	1	9	-0.199369	-9.42259	-24.4302	-53.167
 194	1	9	-0.201771	-9.1302	-25.0996	-54.3785
 195	1	9	0.15189	-9.80973	-26.2964	-54.628
 196	1	9	0.348083	-10.7364	-26.8054	-53.7437
 197	1	9	-0.230673	-11.0286	-26.1756	-52.5387
 198	1	10	0.174789	-8.90381	-23.5061	-52.92
 199	1	10	0.188672	-8.39033	-24.7254	-55.0802
 200	1	10	0.201012	-11.7295	-26.6165	-51.8391
 201	1	11	-0.381547	-9.65568	-27.1951	-55.6369
 202	1	1	-0.706002	-11.1589	-27.9556	-54.1666
 203	1	2	0.698504	-10.4886	-28.2168	-55.2393
 204	1	12	0.214303	-7.22842	-25.5983	-46.3808
 205	1	1	-0.261357	-14.7668	-30.7931	-42.2799
 206	1	2	0.070556	-13.7702	-29.9969	-42.5128
 207	1	2	0.0266	-12.6258	-30.1117	-41.8167
 208	1	2	0.33777	-14.7132	-31.7241	-41.3634
 209	1	1	-0.659679	-13.5912	-31.8927	-40.7192
 210	1	2	0.428714	-12.5955	-31.0986	-40.9373
 211	1	2	0.160826	-11.4365	-29.4753	-41.773
 212	1	3	0.04557	-11.3296	-31.0357	-40.3593
 213	1	1	-0.463031	-10.6126	-30.014	-40.9329
 214	1	4	-0.07905	-14.0327	-29.1543	-43.4786
 215	1	5	-0.061319	-15.8427	-32.4713	-41.0856
 216	1	6	0.28436	-10.772	-32.0559	-39.4545
 217	1	6	-0.21175	-10.6314	-33.4407	-40.1241
 218	1	7	0.07562	-10.1096	-34.1401	-39.46
 219	1	7	0.047171	-10.055	-33.3611	-41.0544
 220	1	7	0.053131	-11.6138	-33.8663	-40.3641
 221	1	6	-0.120715	-11.5349	-32.1598	-38.114
 222	1	8	0.007856	-9.7556	-31.7225	-39.2081
 223	1	7	0.031711	-11.0245	-32.8503	-37.4314
 224	1	7	0.04419	-12.5577	-32.5271	-38.2636
 225	1	7	-0.003555	-11.5913	-31.1822	-37.6209
 226	1	9	-0.011509	-11.1252	-28.3415	-42.5255
 227	1	9	-0.199369	-11.9458	-27.1847	-42.4647
 228	1	9	-0.201771	-11.6446	-26.0269	-43.2105
 229	1	9	0.15189	-10.4837	-26.0556	-43.9847
 230	1	9	0.348083	-9.65074	-27.1547	-44.015
 231	1	9	-0.230673	-9.93902	-28.3135	-43.2957
 232	1	10	0.174789	-12.8475	-27.2046	-41.8613
 233	1	10	0.188672	-12.2945	-25.157	-43.2038
 234	1	10	0.201012	-9.27085	-29.1662	-43.3445
 235	1	11	-0.381547	-9.97653	-25.111	-44.8166
 236	1	1	-0.706002	-8.66538	-26.927	-44.8277
 237	1	2	0.698504	-8.86853	-25.751	-45.317
 238	1	12	0.214303	-16.6394	-32.167	-41.6192
 239	1	1	-0.261357	-19.1235	-32.5359	-32.0142
 240	1	2	0.070556	-18.7576	-32.8032	-33.2267
 241	1	2	0.0266	-19.2951	-33.8432	-33.884
 242	1	2	0.33777	-20.0019	-33.2624	-31.3721
 243	1	1	-0.659679	-20.5803	-34.2484	-32.0053
 244	1	2	0.428714	-20.2243	-34.5146	-33.2231
 245	1	2	0.160826	-19.1363	-34.4157	-35.0958
 246	1	3	0.04557	-20.6473	-35.5019	-34.1088
 247	1	1	-0.463031	-19.9513	-35.4006	-35.2922
 248	1	4	-0.07905	-17.8925	-31.9363	-33.6873
 249	1	5	-0.061319	-20.3597	-32.985	-30.068
 250	1	6	0.28436	-21.8172	-36.3615	-33.8661
 251	1	6	-0.21175	-21.5057	-37.8503	-34.1327
 252	1	7	0.07562	-20.6463	-38.1754	-33.5333
 253	1	7	0.047171	-21.2642	-38.0162	-35.1905
 254	1	7	0.053131	-22.363	-38.4826	-33.8714
 255	1	6	-0.120715	-23.049	-35.9078	-34.6791
 256	1	8	0.007856	-22.0798	-36.2759	-32.8043
 257	1	7	0.031711	-23.9171	-36.5407	-34.4572
 258	1	7	0.04419	-22.8481	-35.9645	-35.7566
 259	1	7	-0.003555	-23.3155	-34.8726	-34.4351
 260	1	9	-0.011509	-18.1329	-34.0562	-35.9974
 261	1	9	-0.199369	-16.7737	-34.0484	-35.5802
 262	1	9	-0.201771	-15.7326	-33.7274	-36.475
 263	1	9	0.15189	-16.0926	-33.4658	-37.7963
 264	1	9	0.348083	-17.3981	-33.5279	-38.2316
 265	1	9	-0.230673	-18.4459	-33.8199	-37.3576
 266	1	10	0.174789	-16.5276	-34.2806	-34.5456
 267	1	10	0.188672	-14.6935	-33.6867	-36.161
 268	1	10	0.201012	-19.4635	-33.8667	-37.7264
 269	1	11	-0.381547	-15.3116	-33.1244	-38.8471
 270	1	1	-0.706002	-17.4422	-33.2401	-39.4994
 271	1	2	0.698504	-16.2269	-32.9909	-39.8627
 272	1	12	0.214303	-21.2496	-33.3413	-29.7719
 273	1	1	-0.261357	-14.1617	-27.5079	-28.5889
 274	1	2	0.070556	-15.0462	-28.3046	-28.08
 275	1	2	0.0266	-14.8609	-28.8453	-26.864
 276	1	2	0.33777	-13.0658	-27.1867	-27.9509
 277	1	1	-0.659679	-12.862	-27.6945	-26.7656
 278	1	2	0.428714	-13.7457	-28.4883	-26.2482
 279	1	2	0.160826	-15.5432	-29.6879	-26.0591
 280	1	3	0.04557	-13.7983	-29.1325	-25.0124
 281	1	1	-0.463031	-14.9454	-29.888	-24.9288
 282	1	4	-0.07905	-16.0791	-28.4446	-28.871
 283	1	5	-0.061319	-12.0992	-26.3806	-28.515
 284	1	6	0.28436	-12.7356	-29.084	-23.9913
 285	1	6	-0.21175	-12.4955	-27.6648	-23.4253
 286	1	7	0.07562	-13.4247	-27.2555	-23.0114
 287	1	7	0.047171	-12.1298	-26.9812	-24.2017
 288	1	7	0.053131	-11.7525	-27.6904	-22.6189
 289	1	6	-0.120715	-11.4136	-29.7239	-24.4697
 290	1	8	0.007856	-13.0906	-29.6965	-23.1524
 291	1	7	0.031711	-11.5909	-30.7415	-24.8396
 292	1	7	0.04419	-10.6938	-29.7855	-23.6444
 293	1	7	-0.003555	-10.9551	-29.1404	-25.2776
 294	1	9	-0.011509	-16.7421	-30.289	-26.4444
 295	1	9	-0.199369	-17.9198	-30.1018	-25.6738
 296	1	9	-0.201771	-19.1579	-30.6543	-26.0822
 297	1	9	0.15189	-19.1656	-31.404	-27.264
 298	1	9	0.348083	-18.0114	-31.6343	-27.9817
 299	1	9	-0.230673	-16.784	-31.1078	-27.5953
 300	1	10	0.174789	-17.8619	-29.4979	-24.7698
 301	1	10	0.188672	-20.0771	-30.4775	-25.5317
 302	1	10	0.201012	-15.9082	-31.2818	-28.2104
 303	1	11	-0.381547	-20.209	-31.9419	-27.9579
 304	1	1	-0.706002	-18.2942	-32.2852	-29.0638
 305	1	2	0.698504	-19.5761	-32.4193	-29.0832
 306	1	12	0.214303	-11.3227	-26.1743	-27.9112
 307	1	1	-0.261357	-13.2193	-24.3815	-37.0761
 308	1	2	0.070556	-13.0536	-24.022	-35.8449
 309	1	2	0.0266	-12.1955	-23.0403	-35.535
 310	1	2	0.33777	-12.5552	-23.8281	-38.0587
 311	1	1	-0.659679	-11.7241	-22.8587	-37.7866
 312	1	2	0.428714	-11.5618	-22.4861	-36.5535
 313	1	2	0.160826	-11.7594	-22.4657	-34.3961
 314	1	3	0.04557	-10.7186	-21.5325	-35.986
 315	1	1	-0.463031	-10.8551	-21.5689	-34.6139
 316	1	4	-0.07905	-13.766	-24.7567	-35.0274
 317	1	5	-0.061319	-12.6521	-24.3136	-39.3476
 318	1	6	0.28436	-9.51052	-21.0567	-36.6845
 319	1	6	-0.21175	-8.20926	-21.6404	-36.0871
 320	1	7	0.07562	-8.2627	-22.7348	-36.036
 321	1	7	0.047171	-8.04362	-21.2651	-35.0692
 322	1	7	0.053131	-7.34165	-21.3671	-36.6998
 323	1	6	-0.120715	-9.4464	-19.5156	-36.7276
 324	1	8	0.007856	-9.56599	-21.402	-37.7246
 325	1	7	0.031711	-8.56914	-19.1773	-37.2927
 326	1	7	0.04419	-9.38557	-19.0996	-35.7137
 327	1	7	-0.003555	-10.3411	-19.1052	-37.2126
 328	1	9	-0.011509	-12.2038	-22.9233	-33.1603
 329	1	9	-0.199369	-13.5335	-22.6685	-32.7346
 330	1	9	-0.201771	-14.0473	-23.2758	-31.5691
 331	1	9	0.15189	-13.1804	-24.098	-30.8455
 332	1	9	0.348083	-11.866	-24.2952	-31.2134
 333	1	9	-0.230673	-11.346	-23.7272	-32.3756
 334	1	10	0.174789	-14.1844	-22.0539	-33.3532
 335	1	10	0.188672	-15.0826	-23.1544	-31.2655
 336	1	10	0.201012	-10.3297	-23.9411	-32.6889
 337	1	11	-0.381547	-13.4385	-24.8837	-29.7742
 338	1	1	-0.706002	-11.3077	-25.1417	-30.3994
 339	1	2	0.698504	-12.2354	-25.5145	-29.5797
 340	1	12	0.214303	-11.7989	-24.157	-39.8615
 341	1	1	-0.261357	-19.1375	-30.2723	-36.6737
 342	1	2	0.070556	-18.1496	-29.8038	-37.3684
 343	1	2	0.0266	-18.1265	-29.948	-38.7038
 344	1	2	0.33777	-20.1502	-30.8894	-37.2316
 345	1	1	-0.659679	-20.15	-31.0486	-38.526
 346	1	2	0.428714	-19.1677	-30.5806	-39.2245
 347	1	2	0.160826	-17.297	-29.6008	-39.7076
 348	1	3	0.04557	-18.9215	-30.6029	-40.5946
 349	1	1	-0.463031	-17.7357	-29.9617	-40.8704
 350	1	4	-0.07905	-17.2469	-29.2022	-36.6344
 351	1	5	-0.061319	-21.1835	-31.4457	-36.5113
 352	1	6	0.28436	-19.8853	-31.1091	-41.585
 353	1	6	-0.21175	-19.2492	-32.1483	-42.5348
 354	1	7	0.07562	-18.8582	-32.999	-41.9637
 355	1	7	0.047171	-18.4249	-31.7049	-43.1078
 356	1	7	0.053131	-19.9929	-32.5329	-43.2436
 357	1	6	-0.120715	-20.5373	-29.9622	-42.3863
 358	1	8	0.007856	-20.6882	-31.6223	-41.0415
 359	1	7	0.031711	-21.2892	-30.3518	-43.0837
 360	1	7	0.04419	-19.7842	-29.4108	-42.9638
 361	1	7	-0.003555	-21.036	-29.255	-41.7114
 362	1	9	-0.011509	-16.1007	-28.9103	-39.5104
 363	1	9	-0.199369	-15.0202	-29.5158	-38.8166
 364	1	9	-0.201771	-13.8079	-28.8237	-38.612
 365	1	9	0.15189	-13.7142	-27.5342	-39.1364
 366	1	9	0.348083	-14.7467	-26.942	-39.8301
 367	1	9	-0.230673	-15.9561	-27.6058	-40.0386
 368	1	10	0.174789	-15.1306	-30.5202	-38.4152
 369	1	10	0.188672	-12.9881	-29.2529	-38.0462
 370	1	10	0.201012	-16.7623	-27.1158	-40.572
 371	1	11	-0.381547	-12.7121	-26.6316	-39.0236
 372	1	1	-0.706002	-14.4228	-25.7169	-40.1245
 373	1	2	0.698504	-13.2377	-25.5266	-39.6421
 374	1	12	0.214303	-21.6978	-32.1607	-36.9934
 375	1	1	-0.261357	-19.5439	-28.2098	-28.5056
 376	1	2	0.070556	-20.2693	-28.8647	-29.3576
 377	1	2	0.0266	-21.5729	-29.0956	-29.1195
 378	1	2	0.33777	-20.0351	-27.7611	-27.3796
 379	1	1	-0.659679	-21.2844	-28.0085	-27.0998
 380	1	2	0.428714	-22.0214	-28.6344	-27.9619
 381	1	2	0.160826	-22.5978	-29.7248	-29.7365
 382	1	3	0.04557	-23.3633	-29.004	-27.8987
 383	1	1	-0.463031	-23.6807	-29.721	-29.0286
 384	1	4	-0.07905	-19.548	-29.268	-30.371
 385	1	5	-0.061319	-19.2619	-27.1204	-26.4367
 386	1	6	0.28436	-24.051	-29.1673	-26.6062
 387	1	6	-0.21175	-23.7845	-30.5538	-25.9775
 388	1	7	0.07562	-24.2571	-30.63	-24.9907
 389	1	7	0.047171	-22.7077	-30.7228	-25.8537
 390	1	7	0.053131	-24.1848	-31.3537	-26.6134
 391	1	6	-0.120715	-25.5685	-28.9011	-26.7143
 392	1	8	0.007856	-23.6453	-28.4128	-25.9203
 393	1	7	0.031711	-26.0524	-29.6403	-27.3655
 394	1	7	0.04419	-25.7551	-27.9043	-27.1329
 395	1	7	-0.003555	-26.045	-28.9493	-25.727
 396	1	9	-0.011509	-22.5331	-30.3937	-30.9638
 397	1	9	-0.199369	-23.1542	-31.6686	-31.0802
 398	1	9	-0.201771	-23.1358	-32.392	-32.2919
 399	1	9	0.15189	-22.4721	-31.8075	-33.3716
 400	1	9	0.348083	-21.8968	-30.5583	-33.2848
 401	1	9	-0.230673	-21.9428	-29.809	-32.1107
 402	1	10	0.174789	-23.6614	-32.0936	-30.2159
 403	1	10	0.188672	-23.5877	-33.3749	-32.3834
 404	1	10	0.201012	-21.5119	-28.8145	-32.1007
 405	1	11	-0.381547	-22.251	-32.2941	-34.6201
 406	1	1	-0.706002	-21.3467	-30.2583	-34.4205
 407	1	2	0.698504	-21.5107	-31.2857	-35.1838
 408	1	12	0.214303	-19.5104	-27.3245	-25.4864
 409	1	1	-0.261357	-12.6532	-22.9485	-22.2307
 410	1	2	0.070556	-13.2699	-23.3887	-23.2839
 411	1	2	0.0266	-12.5788	-23.716	-24.3875
 412	1	2	0.33777	-11.3544	-22.7926	-22.1956
 413	1	1	-0.659679	-10.6621	-23.11	-23.2557
 414	1	2	0.428714	-11.2675	-23.5587	-24.3081
 415	1	2	0.160826	-12.8744	-24.1611	-25.6247
 416	1	3	0.04557	-10.7739	-23.944	-25.552
 417	1	1	-0.463031	-11.8252	-24.2799	-26.3731
 418	1	4	-0.07905	-14.5693	-23.4245	-23.1339
 419	1	5	-0.061319	-10.7682	-22.2722	-21.0578
 420	1	6	0.28436	-9.4179	-23.593	-26.0078
 421	1	6	-0.21175	-9.31707	-22.1167	-26.4499
 422	1	7	0.07562	-8.29148	-21.8697	-26.7498
 423	1	7	0.047171	-9.59915	-21.4463	-25.6282
 424	1	7	0.053131	-9.98267	-21.9175	-27.2995
 425	1	6	-0.120715	-8.91593	-24.5298	-27.1308
 426	1	8	0.007856	-8.74449	-23.729	-25.1518
 427	1	7	0.031711	-7.86865	-24.3149	-27.3765
 428	1	7	0.04419	-9.51203	-24.4042	-28.0439
 429	1	7	-0.003555	-8.98209	-25.5802	-26.8196
 430	1	9	-0.011509	-14.1671	-24.427	-26.0794
 431	1	9	-0.199369	-14.6352	-23.7732	-27.2484
 432	1	9	-0.201771	-15.8771	-24.108	-27.8313
 433	1	9	0.15189	-16.6285	-25.1025	-27.2041
 434	1	9	0.348083	-16.1973	-25.7269	-26.0544
 435	1	9	-0.230673	-14.9674	-25.4238	-25.4716
 436	1	10	0.174789	-13.9991	-23.0367	-27.7359
 437	1	10	0.188672	-16.2249	-23.6469	-28.7504
 438	1	10	0.201012	-14.6387	-25.9671	-24.5963
 439	1	11	-0.381547	-17.8203	-25.6462	-27.5608
 440	1	1	-0.706002	-17.0857	-26.5958	-25.6758
 441	1	2	0.698504	-17.9985	-26.6003	-26.5898
 442	1	12	0.214303	-11.4499	-22.0185	-20.3644
 443	1	1	-0.261357	-7.51804	-14.4221	-21.9517
 444	1	2	0.070556	-7.33787	-15.6533	-21.5973
 445	1	2	0.0266	-6.4493	-15.9603	-20.6389
 446	1	2	0.33777	-6.86548	-13.4337	-21.4004
 447	1	1	-0.659679	-5.97773	-13.7046	-20.4781
 448	1	2	0.428714	-5.79048	-14.9376	-20.1179
 449	1	2	0.160826	-6.02788	-17.0977	-20.052
 450	1	3	0.04557	-4.93366	-15.5133	-19.1803
 451	1	1	-0.463031	-5.09976	-16.8818	-19.1775
 452	1	4	-0.07905	-8.08169	-16.4826	-22.2849
 453	1	5	-0.061319	-7.12208	-12.162	-21.868
 454	1	6	0.28436	-3.83893	-14.7751	-18.5256
 455	1	6	-0.21175	-2.45403	-15.4157	-18.7639
 456	1	7	0.07562	-2.262	-15.5269	-19.8379
 457	1	7	0.047171	-2.39525	-16.4087	-18.3002
 458	1	7	0.053131	-1.66039	-14.7887	-18.3386
 459	1	6	-0.120715	-4.10051	-14.5886	-17.016
 460	1	8	0.007856	-3.80218	-13.7789	-18.9783
 461	1	7	0.031711	-4.13651	-15.5579	-16.5029
 462	1	7	0.04419	-5.05742	-14.0788	-16.8496
 463	1	7	-0.003555	-3.30916	-13.9848	-16.5544
 464	1	9	-0.011509	-6.56831	-18.3319	-20.409
 465	1	9	-0.199369	-5.82104	-19.2273	-21.2171
 466	1	9	-0.201771	-6.38407	-20.4419	-21.6721
 467	1	9	0.15189	-7.69632	-20.7257	-21.2812
 468	1	9	0.348083	-8.41502	-19.8761	-20.4662
 469	1	9	-0.230673	-7.88159	-18.6723	-20.0077
 470	1	10	0.174789	-4.80823	-18.9577	-21.5101
 471	1	10	0.188672	-5.83786	-21.1235	-22.3178
 472	1	10	0.201012	-8.48452	-18.0088	-19.3984
 473	1	11	-0.381547	-8.50428	-21.7633	-21.6285
 474	1	1	-0.706002	-9.61339	-20.3476	-20.2973
 475	1	2	0.698504	-9.68483	-21.4196	-21.0126
 476	1	12	0.214303	-7.56242	-12.1502	-22.7711
 477	1	1	-0.261357	-1.34667	-5.1049	-19.7744
 478	1	2	0.070556	-2.46318	-5.69066	-20.0685
 479	1	2	0.0266	-3.5464	-5.52473	-19.2924
 480	1	2	0.33777	-1.21471	-4.35472	-18.7136
 481	1	1	-0.659679	-2.26479	-4.14671	-17.9636
 482	1	2	0.428714	-3.38616	-4.72667	-18.2513
 483	1	2	0.160826	-4.81148	-5.98682	-19.2784
 484	1	3	0.04557	-4.61661	-4.72521	-17.5947
 485	1	1	-0.463031	-5.49996	-5.52388	-18.2869
 486	1	4	-0.07905	-2.36846	-6.40893	-21.1566
 487	1	5	-0.061319	0.0175249	-3.8065	-18.4225
 488	1	6	0.28436	-5.01221	-3.63013	-16.6938
 489	1	6	-0.21175	-6.06282	-4.06914	-15.6491
 490	1	7	0.07562	-5.70385	-4.9363	-15.0862
 491	1	7	0.047171	-7.0066	-4.34809	-16.1348
 492	1	7	0.053131	-6.26734	-3.2619	-14.9358
 493	1	6	-0.120715	-5.51958	-2.39429	-17.468
 494	1	8	0.007856	-4.11294	-3.32908	-16.1439
 495	1	7	0.031711	-5.7433	-1.56866	-16.7814
 496	1	7	0.04419	-6.432	-2.63341	-18.0289
 497	1	7	-0.003555	-4.7657	-2.04409	-18.1823
 498	1	9	-0.011509	-5.27363	-6.94114	-20.1805
 499	1	9	-0.199369	-5.41808	-6.65452	-21.5627
 500	1	9	-0.201771	-5.8267	-7.65728	-22.4692
 501	1	9	0.15189	-6.09775	-8.92379	-21.9423
 502	1	9	0.348083	-6.00451	-9.19878	-20.5946
 503	1	9	-0.230673	-5.6045	-8.22168	-19.6865
 504	1	10	0.174789	-5.17956	-5.65933	-21.9298
 505	1	10	0.188672	-5.91326	-7.46838	-23.535
 506	1	10	0.201012	-5.5363	-8.44243	-18.6299
 507	1	11	-0.381547	-6.47153	-10.0621	-22.5772
 508	1	1	-0.706002	-6.31307	-10.4452	-20.3775
 509	1	2	0.698504	-6.52811	-10.9635	-21.5439
 510	1	12	0.214303	0.601618	-3.60907	-19.2179
 511	1	1	-0.261357	6.30657	-0.440419	-13.1738
 512	1	2	0.070556	5.07717	-0.735414	-13.4503
 513	1	2	0.0266	4.08316	0.0738215	-13.0532
 514	1	2	0.33777	6.63075	0.634381	-12.5017
 515	1	1	-0.659679	5.67958	1.43529	-12.101
 516	1	2	0.428714	4.44664	1.14532	-12.3723
 517	1	2	0.160826	2.74299	0.072129	-13.1573
 518	1	3	0.04557	3.25718	1.80294	-12.0582
 519	1	1	-0.463031	2.19576	1.07584	-12.5521
 520	1	4	-0.07905	4.9596	-1.87044	-14.0913
 521	1	5	-0.061319	7.94924	0.941803	-12.2435
 522	1	6	0.28436	3.17101	2.73652	-10.9213
 523	1	6	-0.21175	3.27256	2.00834	-9.56218
 524	1	7	0.07562	3.24174	2.72562	-8.7331
 525	1	7	0.047171	4.21376	1.44917	-9.48857
 526	1	7	0.053131	2.44352	1.3003	-9.43718
 527	1	6	-0.120715	1.89708	3.61227	-10.9623
 528	1	8	0.007856	4.03035	3.4147	-10.9975
 529	1	7	0.031711	1.90839	4.35191	-10.1524
 530	1	7	0.04419	0.994798	2.99748	-10.8508
 531	1	7	-0.003555	1.82237	4.15556	-11.9115
 532	1	9	-0.011509	2.06885	-0.93635	-13.8352
 533	1	9	-0.199369	1.3052	-1.88498	-13.1089
 534	1	9	-0.201771	0.593743	-2.90443	-13.7775
 535	1	9	0.15189	0.662513	-2.924	-15.1702
 536	1	9	0.348083	1.41704	-2.01614	-15.8801
 537	1	9	-0.230673	2.12995	-1.00166	-15.2463
 538	1	10	0.174789	1.26697	-1.81966	-12.0236
 539	1	10	0.188672	0.00609634	-3.6468	-13.2515
 540	1	10	0.201012	2.69528	-0.285148	-15.8326
 541	1	11	-0.381547	0.0165196	-3.72466	-16.0528
 542	1	1	-0.706002	1.27872	-2.24081	-17.149
 543	1	2	0.698504	0.411237	-3.19012	-17.2556
 544	1	12	0.214303	8.26994	1.81346	-12.632
 545	1	1	-0.261357	15.6926	-0.523296	-8.65703
 546	1	2	0.070556	14.633	-0.984842	-9.23918
 547	1	2	0.0266	14.7241	-2.02487	-10.083
 548	1	2	0.33777	16.8805	-1.0342	-8.86228
 549	1	1	-0.659679	16.992	-2.06682	-9.65338
 550	1	2	0.428714	15.9335	-2.53704	-10.2366
 551	1	2	0.160826	13.8641	-2.719	-10.8526
 552	1	3	0.04557	15.7666	-3.58482	-11.1401
 553	1	1	-0.463031	14.4379	-3.68834	-11.4878
 554	1	4	-0.07905	13.5485	-0.335607	-8.89848
 555	1	5	-0.061319	18.0191	-0.443096	-8.35585
 556	1	6	0.28436	16.7908	-4.61785	-11.3684
 557	1	6	-0.21175	16.9379	-4.96556	-12.866
 558	1	7	0.07562	17.7493	-5.68671	-13.0217
 559	1	7	0.047171	17.1659	-4.06464	-13.4492
 560	1	7	0.053131	16.0099	-5.4	-13.2593
 561	1	6	-0.120715	16.5266	-5.89076	-10.5348
 562	1	8	0.007856	17.7545	-4.20841	-11.0401
 563	1	7	0.031711	17.329	-6.62488	-10.679
 564	1	7	0.04419	15.5768	-6.3578	-10.8253
 565	1	7	-0.003555	16.4762	-5.64975	-9.46544
 566	1	9	-0.011509	12.5186	-2.37444	-10.9468
 567	1	9	-0.199369	11.5255	-3.24714	-10.4338
 568	1	9	-0.201771	10.1553	-2.91229	-10.5092
 569	1	9	0.15189	9.82826	-1.69646	-11.1161
 570	1	9	0.348083	10.786	-0.852402	-11.6378
 571	1	9	-0.230673	12.1422	-1.16491	-11.5784
 572	1	10	0.174789	11.8291	-4.18577	-9.9744
 573	1	10	0.188672	9.37972	-3.56348	-10.1162
 574	1	10	0.201012	12.8742	-0.480373	-11.9918
 575	1	11	-0.381547	8.61362	-1.12592	-11.3119
 576	1	1	-0.706002	10.2155	0.205258	-12.1323
 577	1	2	0.698504	8.94742	0.0334929	-11.9711
 578	1	12	0.214303	18.827	-0.756757	-8.86352
 579	1	1	-0.261357	13.4072	6.06999	-10.7339
 580	1	2	0.070556	14.3965	5.65388	-10.0113
 581	1	2	0.0266	15.4577	6.44765	-9.79637
 582	1	2	0.33777	13.3929	7.25834	-11.2823
 583	1	1	-0.659679	14.4231	8.04119	-11.1049
 584	1	2	0.428714	15.4134	7.63866	-10.3694
 585	1	2	0.160826	16.6184	6.33214	-9.1236
 586	1	3	0.04557	16.6089	8.25645	-9.99349
 587	1	1	-0.463031	17.3551	7.38899	-9.22781
 588	1	4	-0.07905	14.2169	4.43579	-9.56593
 589	1	5	-0.061319	12.3452	7.6714	-12.0806
 590	1	6	0.28436	17.1464	9.47923	-10.6154
 591	1	6	-0.21175	16.2616	10.7231	-10.376
 592	1	7	0.07562	16.0541	10.8469	-9.30597
 593	1	7	0.047171	15.3038	10.6391	-10.9039
 594	1	7	0.053131	16.7667	11.6298	-10.7309
 595	1	6	-0.120715	17.4672	9.29972	-12.1156
 596	1	8	0.007856	18.1022	9.67968	-10.1141
 597	1	7	0.031711	16.5542	9.13198	-12.7002
 598	1	7	0.04419	18.1328	8.44023	-12.2649
 599	1	7	-0.003555	17.97	10.1898	-12.5145
 600	1	9	-0.011509	16.9328	5.15341	-8.45592
 601	1	9	-0.199369	16.4283	4.91648	-7.15118
 602	1	9	-0.201771	16.5991	3.66147	-6.5259
 603	1	9	0.15189	17.3077	2.68614	-7.23346
 604	1	9	0.348083	17.8457	2.92891	-8.48105
 605	1	9	-0.230673	17.6628	4.14881	-9.12915
 606	1	10	0.174789	15.851	5.69303	-6.65351