pySIMM System Object

1702 atoms
1901 bonds
3150 angles
4796 dihedrals
200 impropers

13 atom types
18 bond types
33 angle types
13 dihedral types
2 improper types

-183.431741 183.431741 xlo xhi
-183.431741 183.431741 ylo yhi
-183.431741 183.431741 zlo zhi

Masses

   1	14.01	# n2
   2	12.01	# c2
   3	14.01	# na
   4	12.01	# c1
   5	14.01	# nh
   6	12.01	# c3
   7	1.008	# hc
   8	1.008	# h1
   9	12.01	# ca
  10	1.008	# ha
  11	16.0	# os
  12	1.008	# hn
  13	1.008	# h5

Pair Coeffs

   1	0.17	3.249998523775958	# n2
   2	0.086	3.3996695084235347	# c2
   3	0.17	3.249998523775958	# na
   4	0.21	3.3996695084235347	# c1
   5	0.17	3.249998523775958	# nh
   6	0.1094	3.3996695084235347	# c3
   7	0.0157	2.649532787749369	# hc
   8	0.0157	2.471353044121301	# h1
   9	0.086	3.3996695084235347	# ca
  10	0.015	2.59964245953351	# ha
  11	0.17	3.0000123434657784	# os
  12	0.0157	1.069078461768407	# hn
  13	0.015	2.421462715905442	# h5

Bond Coeffs

   1	300.9	1.5375	# c3,c3
   2	416.2	1.3872	# c2,nh
   3	330.6	1.0969	# c3,hc
   4	397.4	1.4015	# c2,na
   5	345.8	1.086	# ca,ha
   6	625.0	1.307	# c1,c2
   7	330.6	1.0969	# c3,h1
   8	404.6	1.0121	# hn,nh
   9	376.6	1.3696	# ca,os
  10	505.3	1.3676	# n2,na
  11	327.7	1.4629	# c3,na
  12	338.4	1.0912	# c2,h5
  13	569.4	1.3343	# c2,c2
  14	551.6	1.303	# ca,n2
  15	389.2	1.3596	# c2,os
  16	594.1	1.2817	# c2,n2
  17	461.1	1.3984	# ca,ca
  18	482.1	1.3846	# c2,ca

Angle Coeffs

   1	39.4	107.58	# hc,c3,hc
   2	52.26	121.7	# h5,c2,n2
   3	70.06	121.62	# c1,c2,c2
   4	69.58	119.2	# ca,ca,os
   5	78.34	113.82	# n2,c2,n2
   6	70.52	117.58	# c2,n2,na
   7	46.39	109.56	# c3,c3,h1
   8	71.15	126.01	# c2,c2,n2
   9	62.86	111.51	# c3,c3,c3
  10	49.83	108.78	# h1,c3,na
  11	70.0	119.94	# c2,n2,ca
  12	65.52	112.88	# c3,c3,na
  13	69.36	117.0	# c2,c2,ca
  14	71.79	124.27	# n2,c2,nh
  15	46.34	109.8	# c3,c3,hc
  16	65.56	125.0	# c2,na,n2
  17	74.41	119.78	# n2,c2,os
  18	70.62	119.57	# ca,ca,n2
  19	48.18	119.88	# ca,ca,ha
  20	69.14	121.94	# c2,c2,na
  21	71.53	123.62	# n2,c2,na
  22	66.78	120.6	# c2,ca,ca
  23	69.3	121.81	# c2,c2,c2
  24	64.17	118.2	# c2,os,ca
  25	40.07	115.12	# hn,nh,hn
  26	48.59	115.09	# c2,nh,hn
  27	52.71	110.95	# h5,c2,os
  28	65.54	119.24	# c3,na,n2
  29	66.62	120.02	# ca,ca,ca
  30	71.11	118.18	# c2,n2,c2
  31	63.85	117.2	# c2,na,c3
  32	63.96	124.73	# c2,nh,c2
  33	73.36	114.3	# nh,c2,os

Dihedral Coeffs

   1	1	6.65	2	180	# X,c2,c2,X
   2	1	3.625	2	180	# X,ca,ca,X
   3	1	1.7	2	180	# X,n2,na,X
   4	1	0.7	2	180	# X,c2,ca,X
   5	1	0.15555555555555556	3	0	# X,c3,c3,X
   6	1	1.05	2	180	# X,c2,os,X
   7	1	0.0	3	180	# X,ca,n2,X
   8	1	4.15	2	180	# X,c2,n2,X
   9	1	0.9	2	180	# X,ca,os,X
  10	1	0.625	2	180	# X,c2,na,X
  11	1	0.0	2	0	# X,c3,na,X
  12	1	0.16	3	0	# hc,c3,c3,c3
  13	1	0.675	2	180	# X,c2,nh,X

Improper Coeffs

   1	1.1	-1	2	# ca,X,X,ha
   2	1.1	-1	2	# ca,ca,ca,c2

Atoms

   1	1	1	-0.261357	46.6252	13.87	-22.1493
   2	1	2	0.070556	45.8269	14.7392	-21.6126
   3	1	2	0.0266	46.0842	15.2367	-20.3914
   4	1	2	0.33777	47.6899	13.4364	-21.5271
   5	1	1	-0.659679	47.9338	13.8597	-20.3167
   6	1	2	0.428714	47.1604	14.7567	-19.792
   7	1	2	0.160826	45.5006	16.1198	-19.5583
   8	1	3	0.04557	47.2212	15.4087	-18.5609
   9	1	1	-0.463031	46.1336	16.2433	-18.4364
  10	1	4	-0.07905	44.8029	15.0188	-22.3774
  11	1	5	-0.061319	48.5528	12.5408	-22.1129
  12	1	6	0.28436	48.0249	14.8931	-17.4381
  13	1	6	-0.21175	47.3418	13.6942	-16.744
  14	1	7	0.07562	47.1509	12.8886	-17.4637
  15	1	7	0.047171	46.3829	13.9944	-16.3024
  16	1	7	0.053131	47.9787	13.2919	-15.9465
  17	1	6	-0.120715	48.3724	15.9871	-16.403
  18	1	8	0.007856	48.9742	14.5345	-17.856
  19	1	7	0.031711	47.4669	16.3699	-15.9145
  20	1	7	0.04419	48.8816	16.8291	-16.8855
  21	1	7	-0.003555	49.0397	15.5915	-15.627
  22	1	9	-0.011509	44.3258	16.8067	-19.8575
  23	1	9	-0.199369	44.2759	17.7077	-20.9503
  24	1	9	-0.201771	43.1274	18.4877	-21.2047
  25	1	9	0.15189	42.0506	18.3467	-20.3255
  26	1	9	0.348083	42.0834	17.4641	-19.2651
  27	1	9	-0.230673	43.2081	16.6821	-19.0017
  28	1	10	0.174789	45.1499	17.8193	-21.5859
  29	1	10	0.188672	43.0899	19.1956	-22.0253
  30	1	10	0.201012	43.2286	16.0319	-18.1367
  31	1	11	-0.381547	40.8644	19.0087	-20.2949
  32	1	1	-0.706002	40.9707	17.5397	-18.5978
  33	1	2	0.698504	40.2784	18.465	-19.1779
  34	1	12	0.214303	48.8309	11.8426	-21.4463
  35	1	1	-0.261357	55.7892	17.817	-21.6759
  36	1	2	0.070556	54.991	16.9678	-22.2484
  37	1	2	0.0266	55.4898	15.9547	-22.9779
  38	1	2	0.33777	57.0896	17.7314	-21.7943
  39	1	1	-0.659679	57.5945	16.7382	-22.4712
  40	1	2	0.428714	56.8079	15.8865	-23.0455
  41	1	2	0.160826	54.98	14.9223	-23.6766
  42	1	3	0.04557	57.0838	14.7572	-23.8182
  43	1	1	-0.463031	55.8964	14.1582	-24.1752
  44	1	4	-0.07905	53.7255	17.2017	-22.0071
  45	1	5	-0.061319	57.9341	18.624	-21.1744
  46	1	6	0.28436	58.3714	14.0394	-23.7616
  47	1	6	-0.21175	58.7402	13.5664	-22.3372
  48	1	7	0.07562	58.9274	14.4184	-21.6736
  49	1	7	0.047171	59.6437	12.9477	-22.3562
  50	1	7	0.053131	57.9283	12.9674	-21.9072
  51	1	6	-0.120715	59.5331	14.8301	-24.404
  52	1	8	0.007856	58.242	13.1335	-24.3678
  53	1	7	0.031711	59.7904	15.7169	-23.8114
  54	1	7	0.04419	59.2624	15.1603	-25.4144
  55	1	7	-0.003555	60.4293	14.2029	-24.4844
  56	1	9	-0.011509	53.6101	14.7007	-23.7873
  57	1	9	-0.199369	52.8042	15.5289	-24.6121
  58	1	9	-0.201771	51.4057	15.338	-24.6899
  59	1	9	0.15189	50.8597	14.2904	-23.9426
  60	1	9	0.348083	51.6445	13.4662	-23.1628
  61	1	9	-0.230673	53.0221	13.6436	-23.0609
  62	1	10	0.174789	53.268	16.3427	-25.1661
  63	1	10	0.188672	50.766	15.9954	-25.2712
  64	1	10	0.201012	53.6151	13.0057	-22.4145
  65	1	11	-0.381547	49.5575	13.9593	-23.73
  66	1	1	-0.706002	50.8861	12.6806	-22.459
  67	1	2	0.698504	49.671	12.9626	-22.7929
  68	1	12	0.214303	58.4133	18.1652	-20.4147
  69	1	1	-0.261357	64.8903	24.8241	-24.0274
  70	1	2	0.070556	63.9497	23.9282	-23.9489
  71	1	2	0.0266	64.1395	22.6994	-24.4598
  72	1	2	0.33777	66.0494	24.5684	-24.5825
  73	1	1	-0.659679	66.2326	23.3926	-25.1151
  74	1	2	0.428714	65.3095	22.4946	-25.0361
  75	1	2	0.160826	63.4356	21.5526	-24.5415
  76	1	3	0.04557	65.2847	21.1779	-25.4809
  77	1	1	-0.463031	64.0897	20.5989	-25.1205
  78	1	4	-0.07905	62.8773	24.3409	-23.3226
  79	1	5	-0.061319	67.0541	25.5188	-24.6337
  80	1	6	0.28436	66.5137	20.4669	-25.8693
  81	1	6	-0.21175	66.2466	19.3122	-26.8573
  82	1	7	0.07562	67.1897	18.8628	-27.1895
  83	1	7	0.047171	65.7127	19.6777	-27.7428
  84	1	7	0.053131	65.6364	18.5321	-26.3877
  85	1	6	-0.120715	67.3233	19.9764	-24.6481
  86	1	8	0.007856	67.1361	21.1952	-26.4011
  87	1	7	0.031711	66.7358	19.2778	-24.0415
  88	1	7	0.04419	67.6101	20.8232	-24.0119
  89	1	7	-0.003555	68.2418	19.4661	-24.9634
  90	1	9	-0.011509	62.1442	21.3831	-24.0474
  91	1	9	-0.199369	61.0496	22.0572	-24.6499
  92	1	9	-0.201771	59.7207	21.7839	-24.2567
  93	1	9	0.15189	59.5337	20.8295	-23.2532
  94	1	9	0.348083	60.5923	20.1801	-22.6502
  95	1	9	-0.230673	61.9108	20.4215	-23.0367
  96	1	10	0.174789	61.2355	22.7646	-25.4554
  97	1	10	0.188672	58.8697	22.2638	-24.7314
  98	1	10	0.201012	62.7261	19.8501	-22.6062
  99	1	11	-0.381547	58.3788	20.3137	-22.7579
 100	1	1	-0.706002	60.1394	19.3094	-21.7959
 101	1	2	0.698504	58.8493	19.3622	-21.8883
 102	1	12	0.214303	66.7551	26.3909	-25.0308
 103	1	1	-0.261357	70.2809	18.7893	-27.1825
 104	1	2	0.070556	70.6064	20.0314	-27.0173
 105	1	2	0.0266	71.833	20.36	-26.5815
 106	1	2	0.33777	71.116	17.8127	-26.934
 107	1	1	-0.659679	72.33	18.1081	-26.5514
 108	1	2	0.428714	72.6629	19.3509	-26.387
 109	1	2	0.160826	72.4586	21.5085	-26.2569
 110	1	3	0.04557	73.8393	19.9422	-25.931
 111	1	1	-0.463031	73.6789	21.3105	-25.8777
 112	1	4	-0.07905	69.6381	20.8546	-27.327
 113	1	5	-0.061319	70.7189	16.4917	-26.9564
 114	1	6	0.28436	75.1277	19.2298	-25.9014
 115	1	6	-0.21175	75.9621	19.582	-24.6505
 116	1	7	0.07562	76.8849	18.9903	-24.6189
 117	1	7	0.047171	75.3921	19.3738	-23.7365
 118	1	7	0.053131	76.2345	20.6452	-24.6483
 119	1	6	-0.120715	75.9463	19.4624	-27.1898
 120	1	8	0.007856	74.9091	18.1559	-25.8451
 121	1	7	0.031711	76.2168	20.5208	-27.296
 122	1	7	0.04419	75.366	19.1678	-28.0731
 123	1	7	-0.003555	76.8701	18.8704	-27.1782
 124	1	9	-0.011509	71.7388	22.6988	-26.2248
 125	1	9	-0.199369	71.6835	23.5588	-27.3515
 126	1	9	-0.201771	70.7789	24.6465	-27.3858
 127	1	9	0.15189	69.9741	24.852	-26.2583
 128	1	9	0.348083	70.0731	24.0525	-25.138
 129	1	9	-0.230673	70.932	22.959	-25.0952
 130	1	10	0.174789	72.291	23.3312	-28.225
 131	1	10	0.188672	70.6565	25.261	-28.2728
 132	1	10	0.201012	70.9051	22.286	-24.2455
 133	1	11	-0.381547	68.8821	25.6534	-26.1081
 134	1	1	-0.706002	69.1005	24.3201	-24.3253
 135	1	2	0.698504	68.3736	25.2131	-24.9087
 136	1	12	0.214303	71.3806	15.9109	-26.4722
 137	1	1	-0.261357	63.0793	16.9733	-22.4127
 138	1	2	0.070556	63.837	16.4802	-23.3417
 139	1	2	0.0266	63.7957	15.169	-23.6246
 140	1	2	0.33777	62.2607	16.2309	-21.7136
 141	1	1	-0.659679	62.1939	14.9539	-21.9818
 142	1	2	0.428714	62.9464	14.4542	-22.909
 143	1	2	0.160826	64.4321	14.3475	-24.4812
 144	1	3	0.04557	63.0789	13.1513	-23.3824
 145	1	1	-0.463031	64.053	13.1172	-24.3572
 146	1	4	-0.07905	64.6011	17.3752	-23.912
 147	1	5	-0.061319	61.4827	16.8265	-20.742
 148	1	6	0.28436	62.5969	11.9863	-22.62
 149	1	6	-0.21175	63.7271	11.3012	-21.8209
 150	1	7	0.07562	63.3321	10.4755	-21.217
 151	1	7	0.047171	64.2082	12.0182	-21.1441
 152	1	7	0.053131	64.494	10.8994	-22.4955
 153	1	6	-0.120715	61.8639	10.9684	-23.5203
 154	1	8	0.007856	61.8639	12.3479	-21.8886
 155	1	7	0.031711	61.0444	11.4547	-24.0641
 156	1	7	0.04419	61.4367	10.1559	-22.9199
 157	1	7	-0.003555	62.548	10.5276	-24.2566
 158	1	9	-0.011509	65.4091	14.8217	-25.3527
 159	1	9	-0.199369	65.0366	15.3804	-26.6026
 160	1	9	-0.201771	66.0077	15.9155	-27.4783
 161	1	9	0.15189	67.3418	15.8621	-27.0638
 162	1	9	0.348083	67.7142	15.2939	-25.8626
 163	1	9	-0.230673	66.7717	14.7676	-24.979
 164	1	10	0.174789	63.9839	15.4172	-26.8763
 165	1	10	0.188672	65.7373	16.3794	-28.4227
 166	1	10	0.201012	67.0855	14.3529	-24.0281
 167	1	11	-0.381547	68.4547	16.371	-27.6561
 168	1	1	-0.706002	68.9984	15.4187	-25.7035
 169	1	2	0.698504	69.4235	16.0779	-26.7275
 170	1	12	0.214303	61.2757	17.7954	-20.9362
 171	1	1	-0.261357	53.5597	14.272	-19.9459
 172	1	2	0.070556	54.7049	14.3464	-19.3477
 173	1	2	0.0266	54.766	14.6488	-18.0406
 174	1	2	0.33777	52.4355	14.4998	-19.3206
 175	1	1	-0.659679	52.4659	14.7488	-18.0394
 176	1	2	0.428714	53.6066	14.8185	-17.432
 177	1	2	0.160826	55.7524	14.8585	-17.1501
 178	1	3	0.04557	53.9256	15.119	-16.1101
 179	1	1	-0.463031	55.2981	15.1728	-15.9812
 180	1	4	-0.07905	55.7112	14.1133	-20.1518
 181	1	5	-0.061319	51.2607	14.5396	-20.0327
 182	1	6	0.28436	52.9658	15.8181	-15.2365
 183	1	6	-0.21175	52.8551	17.3219	-15.5732
 184	1	7	0.07562	53.8181	17.8251	-15.4194
 185	1	7	0.047171	52.1041	17.8098	-14.9397
 186	1	7	0.053131	52.5569	17.4639	-16.6198
 187	1	6	-0.120715	53.2702	15.6163	-13.7354
 188	1	8	0.007856	51.9807	15.3701	-15.4206
 189	1	7	0.031711	53.3308	14.5477	-13.4942
 190	1	7	0.04419	52.4801	16.0589	-13.1165
 191	1	7	-0.003555	54.2234	16.0843	-13.4577
 192	1	9	-0.011509	57.0758	14.8497	-17.573
 193	1	9	-0.199369	57.8598	13.671	-17.4862
 194	1	9	-0.201771	59.1514	13.6181	-18.0588
 195	1	9	0.15189	59.6179	14.7751	-18.6906
 196	1	9	0.348083	58.8715	15.9332	-18.7403
 197	1	9	-0.230673	57.5923	16.0052	-18.1982
 198	1	10	0.174789	57.4403	12.7862	-17.0115
 199	1	10	0.188672	59.7501	12.7118	-18.0495
 200	1	10	0.201012	56.9978	16.9053	-18.3053
 201	1	11	-0.381547	60.7411	14.969	-19.429
 202	1	1	-0.706002	59.4837	16.8187	-19.4639
 203	1	2	0.698504	60.5457	16.2402	-19.9185
 204	1	12	0.214303	51.3066	13.9915	-20.8768
 205	1	1	-0.261357	48.1835	23.5429	-22.3438
 206	1	2	0.070556	48.3643	22.2982	-22.0312
 207	1	2	0.0266	47.5111	21.3537	-22.463
 208	1	2	0.33777	47.1717	23.936	-23.0724
 209	1	1	-0.659679	46.369	23.0291	-23.5582
 210	1	2	0.428714	46.5354	21.7858	-23.2446
 211	1	2	0.160826	47.3738	20.019	-22.322
 212	1	3	0.04557	45.7981	20.6498	-23.5772
 213	1	1	-0.463031	46.3802	19.546	-23.0019
 214	1	4	-0.07905	49.4463	22.1277	-21.3159
 215	1	5	-0.061319	46.9686	25.288	-23.2745
 216	1	6	0.28436	44.8174	20.592	-24.6755
 217	1	6	-0.21175	45.4386	20.9073	-26.0542
 218	1	7	0.07562	44.7066	20.7434	-26.8543
 219	1	7	0.047171	46.3013	20.2569	-26.2448
 220	1	7	0.053131	45.7755	21.9501	-26.108
 221	1	6	-0.120715	43.5623	21.4562	-24.4168
 222	1	8	0.007856	44.4715	19.5511	-24.7202
 223	1	7	0.031711	42.8207	21.3084	-25.2115
 224	1	7	0.04419	43.8118	22.5238	-24.3815
 225	1	7	-0.003555	43.091	21.1828	-23.4654
 226	1	9	-0.011509	48.1736	19.2209	-21.5014
 227	1	9	-0.199369	48.3566	19.5476	-20.1317
 228	1	9	-0.201771	49.0984	18.7195	-19.2653
 229	1	9	0.15189	49.6346	17.5539	-19.8116
 230	1	9	0.348083	49.4483	17.2105	-21.1339
 231	1	9	-0.230673	48.7114	18.0125	-22.004
 232	1	10	0.174789	47.9299	20.466	-19.7426
 233	1	10	0.188672	49.2544	18.9742	-18.2206
 234	1	10	0.201012	48.5567	17.7027	-23.0316
 235	1	11	-0.381547	50.3574	16.5755	-19.2137
 236	1	1	-0.706002	50.0238	16.0716	-21.367
 237	1	2	0.698504	50.5635	15.7042	-20.2548
 238	1	12	0.214303	47.6364	25.8482	-22.7731
 239	1	1	-0.261357	38.4082	28.9961	-20.7694
 240	1	2	0.070556	39.5385	28.6818	-21.3155
 241	1	2	0.0266	40.1748	29.5582	-22.1085
 242	1	2	0.33777	37.8281	30.1507	-20.9753
 243	1	1	-0.659679	38.4505	31.0427	-21.6994
 244	1	2	0.428714	39.5882	30.7369	-22.2406
 245	1	2	0.160826	41.3065	29.5605	-22.8427
 246	1	3	0.04557	40.4391	31.4676	-23.0656
 247	1	1	-0.463031	41.5279	30.6999	-23.4131
 248	1	4	-0.07905	39.9509	27.4923	-20.9591
 249	1	5	-0.061319	36.6036	30.457	-20.4165
 250	1	6	0.28436	40.295	32.9137	-23.2993
 251	1	6	-0.21175	40.4129	33.272	-24.7968
 252	1	7	0.07562	39.6815	32.7044	-25.3854
 253	1	7	0.047171	41.4142	33.0343	-25.1785
 254	1	7	0.053131	40.2265	34.3406	-24.9595
 255	1	6	-0.120715	41.2944	33.7395	-22.4604
 256	1	8	0.007856	39.2862	33.2042	-22.9805
 257	1	7	0.031711	41.1471	34.814	-22.6253
 258	1	7	0.04419	42.3289	33.489	-22.7277
 259	1	7	-0.003555	41.1598	33.5411	-21.3903
 260	1	9	-0.011509	42.0953	28.4281	-23.0517
 261	1	9	-0.199369	41.5108	27.2419	-23.5744
 262	1	9	-0.201771	42.2883	26.0962	-23.8422
 263	1	9	0.15189	43.6607	26.1957	-23.6155
 264	1	9	0.348083	44.2501	27.3557	-23.1628
 265	1	9	-0.230673	43.4968	28.4919	-22.8673
 266	1	10	0.174789	40.4392	27.2092	-23.763
 267	1	10	0.188672	41.8495	25.1749	-24.2145
 268	1	10	0.201012	43.9866	29.3925	-22.5176
 269	1	11	-0.381547	44.6292	25.2639	-23.779
 270	1	1	-0.706002	45.5318	27.1703	-23.0485
 271	1	2	0.698504	45.7575	25.9445	-23.3898
 272	1	12	0.214303	36.3929	31.4337	-20.3255
 273	1	1	-0.261357	34.8821	22.6547	-17.7441
 274	1	2	0.070556	34.4206	23.8285	-18.0384
 275	1	2	0.0266	33.151	23.9801	-18.453
 276	1	2	0.33777	34.144	21.5774	-17.8265
 277	1	1	-0.659679	32.9073	21.6973	-18.2236
 278	1	2	0.428714	32.4372	22.8687	-18.5124
 279	1	2	0.160826	32.3677	25.0096	-18.8382
 280	1	3	0.04557	31.1675	23.2769	-18.9182
 281	1	1	-0.463031	31.1638	24.6362	-19.1317
 282	1	4	-0.07905	35.3143	24.7638	-17.8438
 283	1	5	-0.061319	34.6421	20.3183	-17.5676
 284	1	6	0.28436	30.0826	22.3579	-19.3065
 285	1	6	-0.21175	29.5756	21.4869	-18.1334
 286	1	7	0.07562	29.2673	22.119	-17.292
 287	1	7	0.047171	30.3538	20.7983	-17.7808
 288	1	7	0.053131	28.7088	20.8898	-18.4417
 289	1	6	-0.120715	30.4403	21.4906	-20.5341
 290	1	8	0.007856	29.2397	22.9924	-19.6092
 291	1	7	0.031711	30.7732	22.1225	-21.3671
 292	1	7	0.04419	29.5667	20.9198	-20.8715
 293	1	7	-0.003555	31.2424	20.7789	-20.3026
 294	1	9	-0.011509	32.8399	26.3176	-18.9451
 295	1	9	-0.199369	32.2317	27.3647	-18.2039
 296	1	9	-0.201771	32.7322	28.6881	-18.26
 297	1	9	0.15189	33.8346	28.9204	-19.0903
 298	1	9	0.348083	34.3872	27.9159	-19.8558
 299	1	9	-0.230673	33.9107	26.6108	-19.8186
 300	1	10	0.174789	31.3826	27.1276	-17.5652
 301	1	10	0.188672	32.3111	29.4892	-17.6599
 302	1	10	0.201012	34.4003	25.8437	-20.4082
 303	1	11	-0.381547	34.5954	30.0408	-19.2508
 304	1	1	-0.706002	35.4293	28.3651	-20.4768
 305	1	2	0.698504	35.5886	29.583	-20.0864
 306	1	12	0.214303	33.9533	19.587	-17.6086
 307	1	1	-0.261357	43.3253	19.6947	-16.6207
 308	1	2	0.070556	42.1393	19.5013	-16.1467
 309	1	2	0.0266	41.8301	18.3431	-15.5421
 310	1	2	0.33777	44.2603	18.7813	-16.5557
 311	1	1	-0.659679	43.99	17.6497	-15.9614
 312	1	2	0.428714	42.8055	17.4549	-15.4707
 313	1	2	0.160826	40.7213	17.8092	-14.9967
 314	1	3	0.04557	42.2436	16.3452	-14.841
 315	1	1	-0.463031	40.9132	16.6003	-14.5803
 316	1	4	-0.07905	41.3547	20.5215	-16.3861
 317	1	5	-0.061319	45.4775	18.9625	-17.1794
 318	1	6	0.28436	42.8127	14.9952	-15.0096
 319	1	6	-0.21175	41.94	14.0887	-15.9077
 320	1	7	0.07562	41.7323	14.5791	-16.8668
 321	1	7	0.047171	40.9781	13.8711	-15.4263
 322	1	7	0.053131	42.446	13.1371	-16.1109
 323	1	6	-0.120715	43.0866	14.3164	-13.6512
 324	1	8	0.007856	43.7822	15.0996	-15.5129
 325	1	7	0.031711	43.5541	13.3342	-13.7934
 326	1	7	0.04419	42.1538	14.1769	-13.0901
 327	1	7	-0.003555	43.7639	14.929	-13.0427
 328	1	9	-0.011509	39.5198	18.5076	-15.0336
 329	1	9	-0.199369	39.3228	19.6467	-14.2104
 330	1	9	-0.201771	38.1988	20.4807	-14.3906
 331	1	9	0.15189	37.2845	20.1107	-15.3799
 332	1	9	0.348083	37.4305	18.9639	-16.1321
 333	1	9	-0.230673	38.5466	18.1416	-15.9902
 334	1	10	0.174789	40.088	19.9231	-13.4878
 335	1	10	0.188672	38.0704	21.4014	-13.8295
 336	1	10	0.201012	38.6884	17.2842	-16.6398
 337	1	11	-0.381547	36.208	20.785	-15.8483
 338	1	1	-0.706002	36.4767	18.8955	-17.0127
 339	1	2	0.698504	35.7841	19.9782	-16.8746
 340	1	12	0.214303	45.8511	18.0875	-17.5131
 341	1	1	-0.261357	43.1404	27.6587	-19.2821
 342	1	2	0.070556	43.73	26.5079	-19.3855
 343	1	2	0.0266	45.0337	26.4395	-19.7013
 344	1	2	0.33777	43.778	28.7867	-19.4675
 345	1	1	-0.659679	45.0434	28.7477	-19.7816
 346	1	2	0.428714	45.6386	27.6016	-19.8825
 347	1	2	0.160826	45.9404	25.457	-19.8833
 348	1	3	0.04557	46.9573	27.2748	-20.1879
 349	1	1	-0.463031	47.12	25.9082	-20.1654
 350	1	4	-0.07905	42.9313	25.5007	-19.1418
 351	1	5	-0.061319	43.1595	30.0173	-19.4161
 352	1	6	0.28436	48.033	28.2706	-20.3155
 353	1	6	-0.21175	48.7807	28.1438	-21.6611
 354	1	7	0.07562	48.0834	28.2682	-22.4987
 355	1	7	0.047171	49.2624	27.1619	-21.752
 356	1	7	0.053131	49.5542	28.9165	-21.75
 357	1	6	-0.120715	49.0216	28.2023	-19.1318
 358	1	8	0.007856	47.5738	29.2669	-20.2967
 359	1	7	0.031711	49.7856	28.9851	-19.2158
 360	1	7	0.04419	49.5276	27.2287	-19.1002
 361	1	7	-0.003555	48.4944	28.3446	-18.1799
 362	1	9	-0.011509	45.6404	24.1016	-19.759
 363	1	9	-0.199369	44.7547	23.4667	-20.6694
 364	1	9	-0.201771	44.4539	22.0932	-20.5536
 365	1	9	0.15189	45.0778	21.3882	-19.524
 366	1	9	0.348083	45.9496	21.9884	-18.6423
 367	1	9	-0.230673	46.2583	23.3453	-18.7354
 368	1	10	0.174789	44.2852	24.0473	-21.4598
 369	1	10	0.188672	43.7508	21.5997	-21.2157
 370	1	10	0.201012	46.94	23.8001	-18.026
 371	1	11	-0.381547	44.9312	20.0941	-19.1549
 372	1	1	-0.706002	46.32	21.1234	-17.7441
 373	1	2	0.698504	45.7213	20.0144	-18.0368
 374	1	12	0.214303	43.6377	30.7491	-19.9094
 375	1	1	-0.261357	35.3018	27.7815	-16.1694
 376	1	2	0.070556	36.1759	28.6486	-16.5749
 377	1	2	0.0266	36.0814	29.9416	-16.2157
 378	1	2	0.33777	34.289	28.1203	-15.4143
 379	1	1	-0.659679	34.145	29.3739	-15.087
 380	1	2	0.428714	35.033	30.2383	-15.4628
 381	1	2	0.160826	36.7637	31.0858	-16.4422
 382	1	3	0.04557	35.1061	31.61	-15.2346
 383	1	1	-0.463031	36.1985	32.1161	-15.8997
 384	1	4	-0.07905	37.0533	28.0924	-17.3692
 385	1	5	-0.061319	33.3197	27.2219	-15.0281
 386	1	6	0.28436	33.9084	32.3965	-14.8918
 387	1	6	-0.21175	33.1414	32.867	-16.1482
 388	1	7	0.07562	32.2223	33.3951	-15.8666
 389	1	7	0.047171	32.8642	32.0109	-16.7758
 390	1	7	0.053131	33.7581	33.5466	-16.75
 391	1	6	-0.120715	34.24	33.5924	-13.9731
 392	1	8	0.007856	33.2345	31.7415	-14.3253
 393	1	7	0.031711	34.8941	34.311	-14.4833
 394	1	7	0.04419	34.7529	33.2489	-13.066
 395	1	7	-0.003555	33.3253	34.1161	-13.6678
 396	1	9	-0.011509	37.9135	31.2119	-17.2302
 397	1	9	-0.199369	37.9979	32.2972	-18.146
 398	1	9	-0.201771	39.1343	32.4898	-18.9609
 399	1	9	0.15189	40.1707	31.5629	-18.8376
 400	1	9	0.348083	40.119	30.527	-17.9303
 401	1	9	-0.230673	39.025	30.3456	-17.0857
 402	1	10	0.174789	37.1691	32.9996	-18.2147
 403	1	10	0.188672	39.1985	33.302	-19.6786
 404	1	10	0.201012	39.045	29.5413	-16.3593
 405	1	11	-0.381547	41.3399	31.4726	-19.5231
 406	1	1	-0.706002	41.203	29.8201	-18.023
 407	1	2	0.698504	41.8927	30.3389	-18.9823
 408	1	12	0.214303	32.3931	27.6035	-14.9793
 409	1	1	-0.261357	28.9063	19.7472	-13.1781
 410	1	2	0.070556	29.9559	20.4209	-13.5344
 411	1	2	0.0266	30.8541	19.8808	-14.3738
 412	1	2	0.33777	28.6885	18.5267	-13.5959
 413	1	1	-0.659679	29.538	17.9904	-14.4297
 414	1	2	0.428714	30.5871	18.6549	-14.7915
 415	1	2	0.160826	32.0231	20.2645	-14.9199
 416	1	3	0.04557	31.6428	18.3137	-15.6338
 417	1	1	-0.463031	32.554	19.3436	-15.6573
 418	1	4	-0.07905	30.0214	21.6021	-12.975
 419	1	5	-0.061319	27.555	17.8554	-13.1862
 420	1	6	0.28436	31.9394	16.9226	-16.0135
 421	1	6	-0.21175	32.9732	16.2724	-15.0681
 422	1	7	0.07562	33.1381	15.2216	-15.3351
 423	1	7	0.047171	32.6213	16.3082	-14.0296
 424	1	7	0.053131	33.9366	16.7962	-15.1215
 425	1	6	-0.120715	32.4037	16.8162	-17.4829
 426	1	8	0.007856	31.0082	16.3481	-15.9286
 427	1	7	0.031711	32.5462	15.7672	-17.7706
 428	1	7	0.04419	33.3537	17.3444	-17.6344
 429	1	7	-0.003555	31.657	17.2539	-18.1576
 430	1	9	-0.011509	32.6137	21.505	-14.6881
 431	1	9	-0.199369	33.8955	21.5605	-14.084
 432	1	9	-0.201771	34.5891	22.7828	-13.9489
 433	1	9	0.15189	33.9563	23.9308	-14.4274
 434	1	9	0.348083	32.7007	23.8912	-14.9939
 435	1	9	-0.230673	32.0026	22.6947	-15.1492
 436	1	10	0.174789	34.374	20.6365	-13.765
 437	1	10	0.188672	35.5894	22.8344	-13.5303
 438	1	10	0.201012	31.0371	22.6905	-15.6385
 439	1	11	-0.381547	34.3998	25.2129	-14.4681
 440	1	1	-0.706002	32.3472	25.0904	-15.3453
 441	1	2	0.698504	33.3628	25.8503	-15.1026
 442	1	12	0.214303	26.8368	18.4346	-12.7888
 443	1	1	-0.261357	26.2372	11.0106	-7.04603
 444	1	2	0.070556	26.4184	11.5973	-8.18678
 445	1	2	0.0266	25.7725	11.1632	-9.27969
 446	1	2	0.33777	25.4274	9.9941	-6.90278
 447	1	1	-0.659679	24.7793	9.55554	-7.9514
 448	1	2	0.428714	24.9574	10.1369	-9.09845
 449	1	2	0.160826	25.7354	11.5193	-10.5786
 450	1	3	0.04557	24.4152	9.89402	-10.3605
 451	1	1	-0.463031	24.9289	10.7867	-11.2733
 452	1	4	-0.07905	27.2544	12.6025	-8.12141
 453	1	5	-0.061319	25.3386	9.40007	-5.66046
 454	1	6	0.28436	23.5389	8.75356	-10.6676
 455	1	6	-0.21175	24.0349	7.91826	-11.8677
 456	1	7	0.07562	25.0669	7.58601	-11.7027
 457	1	7	0.047171	24.0071	8.50527	-12.7943
 458	1	7	0.053131	23.409	7.0281	-12.0031
 459	1	6	-0.120715	22.0746	9.19797	-10.8712
 460	1	8	0.007856	23.5689	8.092	-9.79924
 461	1	7	0.031711	21.9843	9.85575	-11.745
 462	1	7	0.04419	21.711	9.7451	-9.99278
 463	1	7	-0.003555	21.4194	8.33195	-11.0241
 464	1	9	-0.011509	26.5077	12.5583	-11.0916
 465	1	9	-0.199369	27.9056	12.387	-11.2739
 466	1	9	-0.201771	28.7029	13.4235	-11.8089
 467	1	9	0.15189	28.0541	14.6109	-12.1585
 468	1	9	0.348083	26.6947	14.7794	-11.9978
 469	1	9	-0.230673	25.8887	13.7714	-11.4693
 470	1	10	0.174789	28.3676	11.4416	-10.9964
 471	1	10	0.188672	29.7744	13.3135	-11.9516
 472	1	10	0.201012	24.8207	13.9235	-11.3623
 473	1	11	-0.381547	28.5617	15.7525	-12.6898
 474	1	1	-0.706002	26.3565	15.9702	-12.3937
 475	1	2	0.698504	27.4346	16.527	-12.8352
 476	1	12	0.214303	26.133	9.59639	-5.07783
 477	1	1	-0.261357	21.0532	0.905742	-4.80853
 478	1	2	0.070556	21.6043	2.03918	-4.50985
 479	1	2	0.0266	20.9485	2.93872	-3.76064
 480	1	2	0.33777	19.8452	0.59467	-4.41869
 481	1	1	-0.659679	19.1921	1.44557	-3.67272
 482	1	2	0.428714	19.7389	2.57885	-3.36494
 483	1	2	0.160826	21.1947	4.17909	-3.29503
 484	1	3	0.04557	19.2532	3.66688	-2.64196
 485	1	1	-0.463031	20.2098	4.65629	-2.60638
 486	1	4	-0.07905	22.8006	2.1643	-5.02023
 487	1	5	-0.061319	19.3202	-0.62476	-4.79126
 488	1	6	0.28436	18.1371	3.54815	-1.69044
 489	1	6	-0.21175	17.2463	4.80985	-1.68372
 490	1	7	0.07562	16.9038	5.03985	-2.69846
 491	1	7	0.047171	17.8022	5.67919	-1.31014
 492	1	7	0.053131	16.3648	4.66432	-1.04812
 493	1	6	-0.120715	18.6246	3.22765	-0.260068
 494	1	8	0.007856	17.5106	2.71035	-2.02079
 495	1	7	0.031711	17.7748	3.06873	0.415059
 496	1	7	0.04419	19.2323	4.04992	0.138536
 497	1	7	-0.003555	19.2393	2.32001	-0.24982
 498	1	9	-0.011509	22.3488	4.90313	-3.59224
 499	1	9	-0.199369	23.6366	4.47738	-3.17205
 500	1	9	-0.201771	24.7908	5.22857	-3.48906
 501	1	9	0.15189	24.6072	6.40526	-4.2215
 502	1	9	0.348083	23.3591	6.83807	-4.61319
 503	1	9	-0.230673	22.2102	6.11859	-4.29613
 504	1	10	0.174789	23.7371	3.55115	-2.61491
 505	1	10	0.188672	25.7851	4.90962	-3.19127
 506	1	10	0.201012	21.2335	6.48647	-4.58006
 507	1	11	-0.381547	25.5214	7.30996	-4.65823
 508	1	1	-0.706002	23.4709	7.9557	-5.27019
 509	1	2	0.698504	24.7375	8.20275	-5.34621
 510	1	12	0.214303	20.0178	-1.32166	-4.99048
 511	1	1	-0.261357	14.3385	-7.5754	-5.91938
 512	1	2	0.070556	14.4608	-6.35817	-5.49381
 513	1	2	0.0266	13.8206	-5.95872	-4.38294
 514	1	2	0.33777	13.5964	-8.45722	-5.3005
 515	1	1	-0.659679	12.9477	-8.08863	-4.22868
 516	1	2	0.428714	13.0602	-6.87023	-3.80252
 517	1	2	0.160826	13.7359	-4.81954	-3.66843
 518	1	3	0.04557	12.491	-6.22927	-2.70309
 519	1	1	-0.463031	12.9287	-4.92282	-2.66215
 520	1	4	-0.07905	15.2127	-5.62818	-6.27741
 521	1	5	-0.061319	13.5497	-9.77206	-5.71192
 522	1	6	0.28436	11.2418	-6.71635	-2.09215
 523	1	6	-0.21175	10.01	-6.40684	-2.97174
 524	1	7	0.07562	9.09695	-6.81418	-2.52076
 525	1	7	0.047171	10.1218	-6.8526	-3.96821
 526	1	7	0.053131	9.88105	-5.32384	-3.09422
 527	1	6	-0.120715	11.0287	-6.17722	-0.659383
 528	1	8	0.007856	11.3254	-7.8079	-2.01407
 529	1	7	0.031711	10.131	-6.61794	-0.208553
 530	1	7	0.04419	10.9087	-5.08635	-0.66396
 531	1	7	-0.003555	11.8822	-6.42346	-0.0167135
 532	1	9	-0.011509	14.4854	-3.68394	-3.96944
 533	1	9	-0.199369	13.8437	-2.44386	-4.22489
 534	1	9	-0.201771	14.5937	-1.27273	-4.48437
 535	1	9	0.15189	15.9872	-1.38788	-4.46986
 536	1	9	0.348083	16.6118	-2.58969	-4.22203
 537	1	9	-0.230673	15.8966	-3.75024	-3.94864
 538	1	10	0.174789	12.7567	-2.39907	-4.2142
 539	1	10	0.188672	14.1196	-0.318476	-4.68871
 540	1	10	0.201012	16.4263	-4.66948	-3.72747
 541	1	11	-0.381547	16.9492	-0.442351	-4.64781
 542	1	1	-0.706002	17.895	-2.43031	-4.26947
 543	1	2	0.698504	18.1021	-1.17127	-4.45398
 544	1	12	0.214303	13.4685	-10.4663	-4.98889
 545	1	1	-0.261357	10.0756	-15.9089	-10.8855
 546	1	2	0.070556	10.7347	-14.8059	-10.7176
 547	1	2	0.0266	11.6986	-14.4541	-11.5841
 548	1	2	0.33777	10.3132	-16.716	-11.8892
 549	1	1	-0.659679	11.2255	-16.3827	-12.76
 550	1	2	0.428714	11.8907	-15.2825	-12.5969
 551	1	2	0.160826	12.558	-13.4252	-11.7131
 552	1	3	0.04557	12.9127	-14.7109	-13.3536
 553	1	1	-0.463031	13.2865	-13.517	-12.7774
 554	1	4	-0.07905	10.3375	-14.1335	-9.6674
 555	1	5	-0.061319	9.69304	-17.9418	-12.0073
 556	1	6	0.28436	13.0967	-15.0371	-14.7782
 557	1	6	-0.21175	14.5852	-15.0275	-15.1897
 558	1	7	0.07562	14.7025	-15.3318	-16.2367
 559	1	7	0.047171	15.1609	-15.723	-14.5663
 560	1	7	0.053131	15.0174	-14.0256	-15.0711
 561	1	6	-0.120715	12.2692	-14.1108	-15.6968
 562	1	8	0.007856	12.7313	-16.0602	-14.9332
 563	1	7	0.031711	12.3753	-14.4072	-16.7476
 564	1	7	0.04419	12.5978	-13.0682	-15.5985
 565	1	7	-0.003555	11.204	-14.1591	-15.4374
 566	1	9	-0.011509	12.634	-12.3749	-10.8005
 567	1	9	-0.199369	12.3587	-11.0519	-11.2336
 568	1	9	-0.201771	12.461	-9.957	-10.3473
 569	1	9	0.15189	12.8523	-10.2344	-9.03536
 570	1	9	0.348083	13.1367	-11.5144	-8.60856
 571	1	9	-0.230673	13.0494	-12.6085	-9.46756
 572	1	10	0.174789	12.0727	-10.8825	-12.2699
 573	1	10	0.188672	12.2541	-8.93822	-10.6621
 574	1	10	0.201012	13.2892	-13.6019	-9.10515
 575	1	11	-0.381547	13.0315	-9.38999	-7.98854
 576	1	1	-0.706002	13.4616	-11.4908	-7.35135
 577	1	2	0.698504	13.4365	-10.2507	-6.99675
 578	1	12	0.214303	10.183	-18.5083	-12.6766
 579	1	1	-0.261357	11.7626	-17.308	-4.29811
 580	1	2	0.070556	11.0261	-17.9791	-5.12229
 581	1	2	0.0266	10.6945	-19.2522	-4.8524
 582	1	2	0.33777	12.2113	-17.8244	-3.18297
 583	1	1	-0.659679	11.9213	-19.0679	-2.90858
 584	1	2	0.428714	11.1729	-19.7465	-3.72344
 585	1	2	0.160826	9.96085	-20.1995	-5.46543
 586	1	3	0.04557	10.6997	-21.0615	-3.67614
 587	1	1	-0.463031	9.91712	-21.2977	-4.7859
 588	1	4	-0.07905	10.6812	-17.2697	-6.16765
 589	1	5	-0.061319	13.0112	-17.0948	-2.32696
 590	1	6	0.28436	10.5399	-21.8111	-2.41684
 591	1	6	-0.21175	9.60201	-21.1059	-1.4106
 592	1	7	0.07562	8.63596	-20.8824	-1.88037
 593	1	7	0.047171	10.0368	-20.1638	-1.05409
 594	1	7	0.053131	9.41542	-21.747	-0.54038
 595	1	6	-0.120715	11.885	-22.1898	-1.75822
 596	1	8	0.007856	10.0524	-22.757	-2.68633
 597	1	7	0.031711	12.4184	-21.3019	-1.39761
 598	1	7	0.04419	12.5314	-22.7107	-2.47537
 599	1	7	-0.003555	11.7224	-22.8576	-0.902868
 600	1	9	-0.011509	9.3519	-19.918	-6.68297
 601	1	9	-0.199369	8.06322	-19.3259	-6.70976
 602	1	9	-0.201771	7.5275	-18.8147	-7.91252
 603	1	9	0.15189	8.30549	-18.948	-9.06636
 604	1	9	0.348083	9.53103	-19.584	-9.05647
 605	1	9	-0.230673	10.0915	-20.0677	-7.87671
 606	1	10	0.174789	7.51872	-19.1929	-5.77718
 607	1	10	0.188672	6.5854	-18.2746	-7.93811
 608	1	10	0.201012	11.1018	-20.4607	-7.87639
 609	1	11	-0.381547	8.14305	-18.3632	-10.2821
 610	1	1	-0.706002	10.1173	-19.4137	-10.2017
 611	1	2	0.698504	9.32519	-18.6789	-10.905
 612	1	12	0.214303	13.7831	-17.6079	-1.94046
 613	1	1	-0.261357	14.3797	-7.62125	-0.47772
 614	1	2	0.070556	14.2505	-8.8135	-0.965893
 615	1	2	0.0266	15.0181	-9.215	-1.99133
 616	1	2	0.33777	15.2511	-6.76686	-0.945842
 617	1	1	-0.659679	16.0095	-7.13562	-1.94375
 618	1	2	0.428714	15.9025	-8.33279	-2.42866
 619	1	2	0.160826	15.1304	-10.3303	-2.73631
 620	1	3	0.04557	16.5768	-8.96822	-3.47605
 621	1	1	-0.463031	16.0654	-10.2396	-3.62401
 622	1	4	-0.07905	13.3359	-9.51018	-0.34142
 623	1	5	-0.061319	15.2423	-5.47455	-0.463612
 624	1	6	0.28436	17.9668	-8.6323	-3.84283
 625	1	6	-0.21175	18.944	-8.68405	-2.64578
 626	1	7	0.07562	19.9783	-8.55375	-2.9866
 627	1	7	0.047171	18.8749	-9.65114	-2.13251
 628	1	7	0.053131	18.7251	-7.89129	-1.91886