pySIMM System Object

716 atoms
799 bonds
1323 angles
2012 dihedrals
84 impropers

13 atom types
18 bond types
33 angle types
13 dihedral types
2 improper types

-136.066890 136.066890 xlo xhi
-136.066890 136.066890 ylo yhi
-136.066890 136.066890 zlo zhi

Masses

   1	14.01	# n2
   2	12.01	# c2
   3	14.01	# na
   4	12.01	# c1
   5	14.01	# nh
   6	12.01	# c3
   7	1.008	# hc
   8	1.008	# h1
   9	12.01	# ca
  10	1.008	# ha
  11	16.0	# os
  12	1.008	# hn
  13	1.008	# h5

Pair Coeffs

   1	0.17	3.249998523775958	# n2
   2	0.086	3.3996695084235347	# c2
   3	0.17	3.249998523775958	# na
   4	0.21	3.3996695084235347	# c1
   5	0.17	3.249998523775958	# nh
   6	0.1094	3.3996695084235347	# c3
   7	0.0157	2.649532787749369	# hc
   8	0.0157	2.471353044121301	# h1
   9	0.086	3.3996695084235347	# ca
  10	0.015	2.59964245953351	# ha
  11	0.17	3.0000123434657784	# os
  12	0.0157	1.069078461768407	# hn
  13	0.015	2.421462715905442	# h5

Bond Coeffs

   1	300.9	1.5375	# c3,c3
   2	416.2	1.3872	# c2,nh
   3	330.6	1.0969	# c3,hc
   4	397.4	1.4015	# c2,na
   5	345.8	1.086	# ca,ha
   6	625.0	1.307	# c1,c2
   7	330.6	1.0969	# c3,h1
   8	404.6	1.0121	# hn,nh
   9	376.6	1.3696	# ca,os
  10	505.3	1.3676	# n2,na
  11	327.7	1.4629	# c3,na
  12	338.4	1.0912	# c2,h5
  13	569.4	1.3343	# c2,c2
  14	551.6	1.303	# ca,n2
  15	389.2	1.3596	# c2,os
  16	594.1	1.2817	# c2,n2
  17	461.1	1.3984	# ca,ca
  18	482.1	1.3846	# c2,ca

Angle Coeffs

   1	39.4	107.58	# hc,c3,hc
   2	52.26	121.7	# h5,c2,n2
   3	70.06	121.62	# c1,c2,c2
   4	69.58	119.2	# ca,ca,os
   5	78.34	113.82	# n2,c2,n2
   6	70.52	117.58	# c2,n2,na
   7	46.39	109.56	# c3,c3,h1
   8	71.15	126.01	# c2,c2,n2
   9	62.86	111.51	# c3,c3,c3
  10	49.83	108.78	# h1,c3,na
  11	70.0	119.94	# c2,n2,ca
  12	65.52	112.88	# c3,c3,na
  13	69.36	117.0	# c2,c2,ca
  14	71.79	124.27	# n2,c2,nh
  15	46.34	109.8	# c3,c3,hc
  16	65.56	125.0	# c2,na,n2
  17	74.41	119.78	# n2,c2,os
  18	70.62	119.57	# ca,ca,n2
  19	48.18	119.88	# ca,ca,ha
  20	69.14	121.94	# c2,c2,na
  21	71.53	123.62	# n2,c2,na
  22	66.78	120.6	# c2,ca,ca
  23	69.3	121.81	# c2,c2,c2
  24	64.17	118.2	# c2,os,ca
  25	40.07	115.12	# hn,nh,hn
  26	48.59	115.09	# c2,nh,hn
  27	52.71	110.95	# h5,c2,os
  28	65.54	119.24	# c3,na,n2
  29	66.62	120.02	# ca,ca,ca
  30	71.11	118.18	# c2,n2,c2
  31	63.85	117.2	# c2,na,c3
  32	63.96	124.73	# c2,nh,c2
  33	73.36	114.3	# nh,c2,os

Dihedral Coeffs

   1	1	6.65	2	180	# X,c2,c2,X
   2	1	3.625	2	180	# X,ca,ca,X
   3	1	1.7	2	180	# X,n2,na,X
   4	1	0.7	2	180	# X,c2,ca,X
   5	1	0.15555555555555556	3	0	# X,c3,c3,X
   6	1	1.05	2	180	# X,c2,os,X
   7	1	0.0	3	180	# X,ca,n2,X
   8	1	4.15	2	180	# X,c2,n2,X
   9	1	0.9	2	180	# X,ca,os,X
  10	1	0.625	2	180	# X,c2,na,X
  11	1	0.0	2	0	# X,c3,na,X
  12	1	0.16	3	0	# hc,c3,c3,c3
  13	1	0.675	2	180	# X,c2,nh,X

Improper Coeffs

   1	1.1	-1	2	# ca,X,X,ha
   2	1.1	-1	2	# ca,ca,ca,c2

Atoms

   1	1	1	-0.261357	-14.3267	-6.60373	-2.32863
   2	1	2	0.070556	-14.8274	-6.66137	-1.13086
   3	1	2	0.0266	-14.3477	-7.53915	-0.229701
   4	1	2	0.33777	-13.3462	-7.38778	-2.71005
   5	1	1	-0.659679	-12.8759	-8.25141	-1.85568
   6	1	2	0.428714	-13.3606	-8.30931	-0.66151
   7	1	2	0.160826	-14.6091	-7.88388	1.04742
   8	1	3	0.04557	-13.0495	-9.14428	0.407857
   9	1	1	-0.463031	-13.8522	-8.84033	1.48059
  10	1	4	-0.07905	-15.8175	-5.82657	-0.942735
  11	1	5	-0.061319	-12.8418	-7.43786	-3.99208
  12	1	6	0.28436	-11.8751	-10.0335	0.427684
  13	1	6	-0.21175	-12.2768	-11.5212	0.516755
  14	1	7	0.07562	-12.9437	-11.7908	-0.311295
  15	1	7	0.047171	-12.7993	-11.7289	1.45928
  16	1	7	0.053131	-11.3909	-12.166	0.464853
  17	1	6	-0.120715	-10.8919	-9.67126	1.55854
  18	1	8	0.007856	-11.3376	-9.8988	-0.519341
  19	1	7	0.031711	-11.3371	-9.85309	2.54482
  20	1	7	0.04419	-10.6282	-8.61234	1.49686
  21	1	7	-0.003555	-9.96804	-10.2576	1.47982
  22	1	9	-0.011509	-15.5846	-7.31919	1.87294
  23	1	9	-0.199369	-15.5968	-5.92926	2.16846
  24	1	9	-0.201771	-16.4915	-5.39113	3.1211
  25	1	9	0.15189	-17.3518	-6.28169	3.76932
  26	1	9	0.348083	-17.3434	-7.63415	3.49536
  27	1	9	-0.230673	-16.4708	-8.18349	2.55941
  28	1	10	0.174789	-14.8825	-5.27151	1.6818
  29	1	10	0.188672	-16.4941	-4.33534	3.37543
  30	1	10	0.201012	-16.4463	-9.25764	2.40745
  31	1	11	-0.381547	-18.2353	-6.05485	4.77686
  32	1	1	-0.706002	-18.1715	-8.24455	4.28792
  33	1	2	0.698504	-18.6888	-7.32576	5.03252
  34	1	12	0.214303	-12.1987	-8.19691	-4.14996
  35	1	1	-0.261357	-8.68037	-1.91608	-10.851
  36	1	2	0.070556	-9.54202	-2.39979	-10.0048
  37	1	2	0.0266	-10.6088	-3.08881	-10.4443
  38	1	2	0.33777	-8.8045	-2.08259	-12.1458
  39	1	1	-0.659679	-9.83964	-2.7394	-12.5908
  40	1	2	0.428714	-10.7079	-3.21621	-11.7581
  41	1	2	0.160826	-11.6374	-3.7613	-9.88764
  42	1	3	0.04557	-11.8519	-3.98944	-11.9633
  43	1	1	-0.463031	-12.4087	-4.32804	-10.7569
  44	1	4	-0.07905	-9.24344	-2.17725	-8.75048
  45	1	5	-0.061319	-7.88464	-1.65422	-13.084
  46	1	6	0.28436	-12.3651	-4.42753	-13.2709
  47	1	6	-0.21175	-11.4333	-5.43629	-13.9752
  48	1	7	0.07562	-10.4837	-4.96079	-14.2414
  49	1	7	0.047171	-11.8973	-5.81793	-14.8932
  50	1	7	0.053131	-11.2213	-6.28998	-13.3191
  51	1	6	-0.120715	-12.7215	-3.24679	-14.1994
  52	1	8	0.007856	-13.304	-4.95888	-13.0676
  53	1	7	0.031711	-11.8221	-2.71032	-14.5258
  54	1	7	0.04419	-13.3752	-2.53523	-13.6795
  55	1	7	-0.003555	-13.2499	-3.60203	-15.0928
  56	1	9	-0.011509	-11.8376	-3.98936	-8.5257
  57	1	9	-0.199369	-12.1484	-2.9457	-7.61328
  58	1	9	-0.201771	-12.491	-3.23145	-6.26782
  59	1	9	0.15189	-12.5255	-4.57755	-5.88142
  60	1	9	0.348083	-12.2349	-5.58926	-6.77015
  61	1	9	-0.230673	-11.8844	-5.33211	-8.09028
  62	1	10	0.174789	-12.1538	-1.91537	-7.96296
  63	1	10	0.188672	-12.7493	-2.44594	-5.56338
  64	1	10	0.201012	-11.703	-6.15128	-8.77642
  65	1	11	-0.381547	-12.8736	-5.15106	-4.69283
  66	1	1	-0.706002	-12.3882	-6.73972	-6.19399
  67	1	2	0.698504	-12.791	-6.49291	-4.99279
  68	1	12	0.214303	-8.0827	-1.96144	-14.0204
  69	1	1	-0.261357	1.05652	1.86082	-13.9578
  70	1	2	0.070556	-0.215625	1.72582	-13.7219
  71	1	2	0.0266	-1.10322	2.53729	-14.3202
  72	1	2	0.33777	1.52365	2.78091	-14.7654
  73	1	1	-0.659679	0.671095	3.56529	-15.3645
  74	1	2	0.428714	-0.595329	3.44261	-15.1377
  75	1	2	0.160826	-2.44288	2.67652	-14.3281
  76	1	3	0.04557	-1.68516	4.14986	-15.6412
  77	1	1	-0.463031	-2.84426	3.61185	-15.1252
  78	1	4	-0.07905	-0.509356	0.751925	-12.8983
  79	1	5	-0.061319	2.88008	2.87416	-15.0252
  80	1	6	0.28436	-1.58346	4.96749	-16.8673
  81	1	6	-0.21175	-0.832617	6.29687	-16.6217
  82	1	7	0.07562	-0.76242	6.87854	-17.5488
  83	1	7	0.047171	0.189513	6.11128	-16.269
  84	1	7	0.053131	-1.35031	6.90418	-15.869
  85	1	6	-0.120715	-2.953	5.2522	-17.5268
  86	1	8	0.007856	-0.997443	4.38534	-17.5895
  87	1	7	0.031711	-3.59987	5.82794	-16.8524
  88	1	7	0.04419	-3.4638	4.31275	-17.7718
  89	1	7	-0.003555	-2.83012	5.82273	-18.456
  90	1	9	-0.011509	-3.32089	1.87433	-13.6009
  91	1	9	-0.199369	-3.49626	2.06189	-12.2043
  92	1	9	-0.201771	-4.49259	1.35269	-11.4906
  93	1	9	0.15189	-5.28484	0.453174	-12.2128
  94	1	9	0.348083	-5.10694	0.260691	-13.5659
  95	1	9	-0.230673	-4.15037	0.966076	-14.2936
  96	1	10	0.174789	-2.88459	2.79757	-11.6858
  97	1	10	0.188672	-4.66761	1.51662	-10.431
  98	1	10	0.201012	-4.09046	0.859782	-15.3695
  99	1	11	-0.381547	-6.36017	-0.287434	-11.8173
 100	1	1	-0.706002	-6.00893	-0.560063	-14.0058
 101	1	2	0.698504	-6.74373	-0.882022	-12.9961
 102	1	12	0.214303	3.33156	1.97797	-14.9858
 103	1	1	-0.261357	-0.0205819	4.84298	-21.7218
 104	1	2	0.070556	1.0392	5.121	-21.0383
 105	1	2	0.0266	2.19373	5.41239	-21.6594
 106	1	2	0.33777	-0.0242059	4.82192	-23.0299
 107	1	1	-0.659679	1.08253	5.11134	-23.6627
 108	1	2	0.428714	2.14737	5.40706	-22.9802
 109	1	2	0.160826	3.4481	5.70673	-21.26
 110	1	3	0.04557	3.44415	5.72542	-23.3745
 111	1	1	-0.463031	4.23863	5.91755	-22.263
 112	1	4	-0.07905	0.802647	5.06389	-19.7518
 113	1	5	-0.061319	-1.13875	4.39901	-23.7281
 114	1	6	0.28436	3.82689	5.9478	-24.7805
 115	1	6	-0.21175	5.22112	5.37317	-25.1147
 116	1	7	0.07562	5.4427	5.48619	-26.1828
 117	1	7	0.047171	5.26618	4.30512	-24.8683
 118	1	7	0.053131	6.00432	5.8888	-24.5444
 119	1	6	-0.120715	3.73983	7.43698	-25.1791
 120	1	8	0.007856	3.10513	5.40472	-25.4038
 121	1	7	0.031711	4.45961	8.03808	-24.6091
 122	1	7	0.04419	2.7344	7.83074	-24.9842
 123	1	7	-0.003555	3.95212	7.56757	-26.248
 124	1	9	-0.011509	3.72846	5.67667	-19.8973
 125	1	9	-0.199369	3.50226	6.82806	-19.1012
 126	1	9	-0.201771	3.43946	6.72937	-17.6933
 127	1	9	0.15189	3.64064	5.466	-17.1275
 128	1	9	0.348083	3.9417	4.35609	-17.8935
 129	1	9	-0.230673	3.98323	4.42796	-19.2849
 130	1	10	0.174789	3.26442	7.77221	-19.5867
 131	1	10	0.188672	3.14967	7.57242	-17.0725
 132	1	10	0.201012	4.07508	3.51887	-19.8685
 133	1	11	-0.381547	3.33996	5.04232	-15.8721
 134	1	1	-0.706002	3.83575	3.284	-17.1665
 135	1	2	0.698504	3.41583	3.67708	-16.0118
 136	1	12	0.214303	-0.8909	3.84731	-24.53
 137	1	1	-0.261357	-3.50054	-0.869304	-17.3527
 138	1	2	0.070556	-3.78614	0.00505037	-18.2682
 139	1	2	0.0266	-5.03865	0.100498	-18.7427
 140	1	2	0.33777	-4.39986	-1.67857	-16.8526
 141	1	1	-0.659679	-5.61964	-1.60617	-17.3115
 142	1	2	0.428714	-5.91708	-0.738819	-18.224
 143	1	2	0.160826	-5.67949	0.882501	-19.6307
 144	1	3	0.04557	-7.13657	-0.429887	-18.8263
 145	1	1	-0.463031	-6.94362	0.622982	-19.6954
 146	1	4	-0.07905	-2.76706	0.753774	-18.6069
 147	1	5	-0.061319	-4.03121	-2.54253	-15.8375
 148	1	6	0.28436	-8.40607	-0.687286	-18.1189
 149	1	6	-0.21175	-9.64476	-0.496433	-19.0244
 150	1	7	0.07562	-10.5624	-0.780614	-18.4956
 151	1	7	0.047171	-9.56398	-1.1159	-19.926
 152	1	7	0.053131	-9.74127	0.551154	-19.3382
 153	1	6	-0.120715	-8.55193	0.16153	-16.8341
 154	1	8	0.007856	-8.39196	-1.74189	-17.8151
 155	1	7	0.031711	-7.72843	-0.0374772	-16.1388
 156	1	7	0.04419	-9.48957	-0.0730182	-16.3158
 157	1	7	-0.003555	-8.54691	1.23375	-17.0679
 158	1	9	-0.011509	-5.04459	1.91504	-20.3144
 159	1	9	-0.199369	-5.28396	3.25269	-19.9107
 160	1	9	-0.201771	-4.63843	4.33223	-20.5492
 161	1	9	0.15189	-3.77657	4.02444	-21.6034
 162	1	9	0.348083	-3.56138	2.72893	-22.0282
 163	1	9	-0.230673	-4.17561	1.64464	-21.3988
 164	1	10	0.174789	-5.9611	3.44278	-19.0798
 165	1	10	0.188672	-4.77826	5.35986	-20.2264
 166	1	10	0.201012	-3.96336	0.632652	-21.724
 167	1	11	-0.381547	-2.96471	4.84564	-22.3131
 168	1	1	-0.706002	-2.65017	2.72455	-22.9568
 169	1	2	0.698504	-2.28892	3.95486	-23.1093
 170	1	12	0.214303	-3.09502	-2.41101	-15.4983
 171	1	1	-0.261357	-9.03116	-7.2118	-8.89845
 172	1	2	0.070556	-8.34706	-6.83454	-9.93109
 173	1	2	0.0266	-7.31168	-7.56764	-10.3665
 174	1	2	0.33777	-8.73604	-8.29617	-8.23104
 175	1	1	-0.659679	-7.73538	-9.03219	-8.6354
 176	1	2	0.428714	-7.04887	-8.66092	-9.66992
 177	1	2	0.160826	-6.42679	-7.482	-11.3772
 178	1	3	0.04557	-5.94509	-9.23704	-10.2993
 179	1	1	-0.463031	-5.5915	-8.46852	-11.3875
 180	1	4	-0.07905	-8.77146	-5.71004	-10.4419
 181	1	5	-0.061319	-9.50169	-8.65247	-7.14391
 182	1	6	0.28436	-5.58283	-10.6548	-10.1093
 183	1	6	-0.21175	-4.19403	-10.9993	-10.6963
 184	1	7	0.07562	-4.19509	-10.8854	-11.7883
 185	1	7	0.047171	-3.91274	-12.0327	-10.4593
 186	1	7	0.053131	-3.42482	-10.333	-10.2868
 187	1	6	-0.120715	-6.64901	-11.6213	-10.6747
 188	1	8	0.007856	-5.52514	-10.8249	-9.02656
 189	1	7	0.031711	-7.62396	-11.4508	-10.2017
 190	1	7	0.04419	-6.36529	-12.6642	-10.4862
 191	1	7	-0.003555	-6.76621	-11.488	-11.7577
 192	1	9	-0.011509	-6.44563	-6.46733	-12.3344
 193	1	9	-0.199369	-7.54389	-6.34381	-13.2271
 194	1	9	-0.201771	-7.53224	-5.3936	-14.2713
 195	1	9	0.15189	-6.39876	-4.58842	-14.39
 196	1	9	0.348083	-5.32497	-4.70211	-13.5336
 197	1	9	-0.230673	-5.31055	-5.63933	-12.4999
 198	1	10	0.174789	-8.39422	-7.01444	-13.1229
 199	1	10	0.188672	-8.34199	-5.31355	-14.989
 200	1	10	0.201012	-4.43092	-5.75085	-11.8753
 201	1	11	-0.381547	-6.08442	-3.68285	-15.3499
 202	1	1	-0.706002	-4.3716	-3.91644	-13.9361
 203	1	2	0.698504	-4.80678	-3.31559	-14.9944
 204	1	12	0.214303	-10.4552	-8.34066	-7.23423
 205	1	1	-0.261357	-7.31889	-3.04979	0.378656
 206	1	2	0.070556	-7.48615	-4.09279	-0.374413
 207	1	2	0.0266	-8.47342	-4.97099	-0.122198
 208	1	2	0.33777	-8.11256	-2.79862	1.38685
 209	1	1	-0.659679	-9.10543	-3.60621	1.61897
 210	1	2	0.428714	-9.27499	-4.65605	0.883836
 211	1	2	0.160826	-8.93207	-6.12105	-0.649597
 212	1	3	0.04557	-10.2857	-5.62623	0.918736
 213	1	1	-0.463031	-9.98874	-6.55662	-0.0476899
 214	1	4	-0.07905	-6.60821	-4.13447	-1.3424
 215	1	5	-0.061319	-7.85601	-1.81811	2.31203
 216	1	6	0.28436	-11.6987	-5.20382	1.03251
 217	1	6	-0.21175	-12.1555	-4.30559	-0.144538
 218	1	7	0.07562	-13.2346	-4.11701	-0.0955412
 219	1	7	0.047171	-11.949	-4.79082	-1.10731
 220	1	7	0.053131	-11.6373	-3.33866	-0.130442
 221	1	6	-0.120715	-12.0903	-4.59066	2.39654
 222	1	8	0.007856	-12.2873	-6.12446	0.945469
 223	1	7	0.031711	-12.7197	-3.70017	2.27691
 224	1	7	0.04419	-11.2129	-4.30184	2.97951
 225	1	7	-0.003555	-12.6539	-5.3186	2.98693
 226	1	9	-0.011509	-8.49405	-6.74775	-1.81916
 227	1	9	-0.199369	-7.13435	-7.03836	-2.11802
 228	1	9	-0.201771	-6.7706	-7.61624	-3.36029
 229	1	9	0.15189	-7.80483	-7.95949	-4.23967
 230	1	9	0.348083	-9.12578	-7.77357	-3.90531
 231	1	9	-0.230673	-9.49751	-7.14662	-2.72814
 232	1	10	0.174789	-6.35673	-6.78777	-1.40016
 233	1	10	0.188672	-5.7329	-7.78166	-3.63673
 234	1	10	0.201012	-10.5432	-6.96077	-2.52393
 235	1	11	-0.381547	-7.76591	-8.43573	-5.51423
 236	1	1	-0.706002	-9.89241	-8.12942	-4.88551
 237	1	2	0.698504	-9.10442	-8.49627	-5.83683
 238	1	12	0.214303	-8.23714	-2.09331	3.20036
 239	1	1	-0.261357	-3.26296	5.27271	2.21408
 240	1	2	0.070556	-4.43213	4.72995	2.37113
 241	1	2	0.0266	-5.54481	5.3983	2.0254
 242	1	2	0.33777	-3.11802	6.47183	1.71349
 243	1	1	-0.659679	-4.19002	7.14611	1.40092
 244	1	2	0.428714	-5.36318	6.62232	1.56128
 245	1	2	0.160826	-6.86837	5.14054	2.01486
 246	1	3	0.04557	-6.6449	7.12199	1.30852
 247	1	1	-0.463031	-7.56742	6.13852	1.58656
 248	1	4	-0.07905	-4.36343	3.53334	2.89746
 249	1	5	-0.061319	-1.84879	6.96837	1.48027
 250	1	6	0.28436	-6.92103	8.20617	0.347836
 251	1	6	-0.21175	-6.61392	7.79848	-1.10973
 252	1	7	0.07562	-7.1422	6.87123	-1.3655
 253	1	7	0.047171	-5.53878	7.63431	-1.25504
 254	1	7	0.053131	-6.94118	8.57844	-1.80795
 255	1	6	-0.120715	-6.25672	9.55343	0.709738
 256	1	8	0.007856	-8.00385	8.37981	0.399238
 257	1	7	0.031711	-6.62572	10.3515	0.0539162
 258	1	7	0.04419	-5.16627	9.5067	0.599388
 259	1	7	-0.003555	-6.48752	9.83371	1.74522
 260	1	9	-0.011509	-7.4072	3.8974	2.33543
 261	1	9	-0.199369	-8.35929	3.78458	3.38146
 262	1	9	-0.201771	-8.92134	2.53423	3.72209
 263	1	9	0.15189	-8.51618	1.42788	2.96999
 264	1	9	0.348083	-7.62576	1.53521	1.92313
 265	1	9	-0.230673	-7.05459	2.75612	1.57608
 266	1	10	0.174789	-8.64638	4.67716	3.93491
 267	1	10	0.188672	-9.62358	2.42367	4.54333
 268	1	10	0.201012	-6.33827	2.80548	0.763781
 269	1	11	-0.381547	-8.81827	0.115402	3.12913
 270	1	1	-0.706002	-7.36245	0.353426	1.45189
 271	1	2	0.698504	-8.07407	-0.475665	2.13848
 272	1	12	0.214303	-1.13188	6.30243	1.71126
 273	1	1	-0.261357	1.35158	13.5367	-4.57544
 274	1	2	0.070556	0.772959	12.4925	-4.07194
 275	1	2	0.0266	-0.423294	12.101	-4.5346
 276	1	2	0.33777	0.802752	14.2535	-5.52441
 277	1	1	-0.659679	-0.352498	13.8797	-6.00423
 278	1	2	0.428714	-0.939208	12.8347	-5.50596
 279	1	2	0.160826	-1.27807	11.0997	-4.2592
 280	1	3	0.04557	-2.16062	12.2354	-5.81901
 281	1	1	-0.463031	-2.3322	11.1341	-5.00607
 282	1	4	-0.07905	1.463	11.9231	-3.11641
 283	1	5	-0.061319	1.42272	15.3752	-6.04008
 284	1	6	0.28436	-2.73052	12.3641	-7.17675
 285	1	6	-0.21175	-3.71697	13.5472	-7.2792
 286	1	7	0.07562	-3.22306	14.4861	-6.99954
 287	1	7	0.047171	-4.57569	13.3984	-6.61247
 288	1	7	0.053131	-4.09144	13.654	-8.30494
 289	1	6	-0.120715	-3.39317	11.0684	-7.70323
 290	1	8	0.007856	-1.89577	12.5812	-7.85577
 291	1	7	0.031711	-2.68992	10.227	-7.65782
 292	1	7	0.04419	-3.70543	11.1879	-8.74775
 293	1	7	-0.003555	-4.27909	10.8077	-7.10977
 294	1	9	-0.011509	-0.999818	10.1249	-3.30497
 295	1	9	-0.199369	-0.0748598	9.08831	-3.59831
 296	1	9	-0.201771	0.178212	8.05199	-2.67317
 297	1	9	0.15189	-0.515406	8.096	-1.46059
 298	1	9	0.348083	-1.41376	9.10196	-1.16787
 299	1	9	-0.230673	-1.68982	10.1272	-2.07183
 300	1	10	0.174789	0.433253	9.08139	-4.56091
 301	1	10	0.188672	0.860589	7.23894	-2.90165
 302	1	10	0.201012	-2.43388	10.8791	-1.834
 303	1	11	-0.381547	-0.541744	7.1943	-0.443884
 304	1	1	-0.706002	-1.98074	8.85429	-0.0274472
 305	1	2	0.698504	-1.49865	7.72805	0.382935
 306	1	12	0.214303	0.874385	15.8912	-6.70358
 307	1	1	-0.261357	4.9882	13.1659	0.485674
 308	1	2	0.070556	5.08318	13.9985	-0.49944
 309	1	2	0.0266	5.93525	15.0346	-0.435374
 310	1	2	0.33777	5.69996	13.29	1.57586
 311	1	1	-0.659679	6.55877	14.2711	1.6539
 312	1	2	0.428714	6.65599	15.1127	0.670783
 313	1	2	0.160826	6.28868	16.0504	-1.2476
 314	1	3	0.04557	7.48913	16.2181	0.493396
 315	1	1	-0.463031	7.24002	16.7673	-0.746801
 316	1	4	-0.07905	4.31162	13.6539	-1.49892
 317	1	5	-0.061319	5.62102	12.3785	2.60844
 318	1	6	0.28436	8.81043	16.2673	1.14467
 319	1	6	-0.21175	9.37056	17.7044	1.23248
 320	1	7	0.07562	8.65506	18.3651	1.73705
 321	1	7	0.047171	9.56241	18.1117	0.231438
 322	1	7	0.053131	10.3107	17.7233	1.79699
 323	1	6	-0.120715	9.83271	15.3305	0.460397
 324	1	8	0.007856	8.67861	15.9131	2.17511
 325	1	7	0.031711	10.8	15.3644	0.976662
 326	1	7	0.04419	9.99106	15.6238	-0.585313
 327	1	7	-0.003555	9.48047	14.2913	0.47342
 328	1	9	-0.011509	5.70336	16.2317	-2.49889
 329	1	9	-0.199369	6.49031	16.0885	-3.67039
 330	1	9	-0.201771	5.89452	16.0939	-4.95122
 331	1	9	0.15189	4.50927	16.2743	-5.01036
 332	1	9	0.348083	3.75057	16.4978	-3.87929
 333	1	9	-0.230673	4.3162	16.4837	-2.60743
 334	1	10	0.174789	7.55827	15.9039	-3.57227
 335	1	10	0.188672	6.46943	15.8969	-5.85205
 336	1	10	0.201012	3.67576	16.5476	-1.73472
 337	1	11	-0.381547	3.66066	16.038	-6.04624
 338	1	1	-0.706002	2.49296	16.398	-4.17817
 339	1	2	0.698504	2.43504	16.0852	-5.4283
 340	1	12	0.214303	6.4209	12.4367	3.2128
 341	1	1	-0.261357	3.78945	6.14849	-3.12277
 342	1	2	0.070556	3.8147	6.61177	-1.91277
 343	1	2	0.0266	3.01959	6.08494	-0.966943
 344	1	2	0.33777	3.01033	5.15642	-3.46631
 345	1	1	-0.659679	2.23749	4.62332	-2.56047
 346	1	2	0.428714	2.23455	5.09441	-1.35042
 347	1	2	0.160826	2.82258	6.30351	0.347496
 348	1	3	0.04557	1.51213	4.73722	-0.205527
 349	1	1	-0.463031	1.93363	5.51271	0.85359
 350	1	4	-0.07905	4.66323	7.59852	-1.77161
 351	1	5	-0.061319	3.04652	4.60274	-4.72791
 352	1	6	0.28436	0.806785	3.45237	-0.0216317
 353	1	6	-0.21175	1.7597	2.30514	0.382284
 354	1	7	0.07562	1.19492	1.38753	0.587112
 355	1	7	0.047171	2.31535	2.56851	1.29132
 356	1	7	0.053131	2.48453	2.09394	-0.413995
 357	1	6	-0.120715	-0.095438	3.03217	-1.20468
 358	1	8	0.007856	0.130244	3.60982	0.828332
 359	1	7	0.031711	0.49861	2.67469	-2.0546
 360	1	7	0.04419	-0.711223	3.87502	-1.54289
 361	1	7	-0.003555	-0.76849	2.21921	-0.904805
 362	1	9	-0.011509	3.62773	7.20351	1.03528
 363	1	9	-0.199369	4.92714	6.79137	1.43001
 364	1	9	-0.201771	5.83062	7.69732	2.02306
 365	1	9	0.15189	5.37932	9.00304	2.22478
 366	1	9	0.348083	4.10749	9.40569	1.86724
 367	1	9	-0.230673	3.20355	8.5328	1.2601
 368	1	10	0.174789	5.24577	5.7716	1.227
 369	1	10	0.188672	6.84737	7.41305	2.27753
 370	1	10	0.201012	2.23407	8.89059	0.930591
 371	1	11	-0.381547	6.06828	10.0903	2.65838
 372	1	1	-0.706002	3.99829	10.6854	2.05182
 373	1	2	0.698504	5.14784	11.0898	2.47992
 374	1	12	0.214303	2.92039	3.60707	-4.74929
 375	1	1	-0.261357	6.20585	9.44437	-12.4953
 376	1	2	0.070556	5.69201	8.51443	-11.7505
 377	1	2	0.0266	4.36702	8.29894	-11.7657
 378	1	2	0.33777	5.46942	10.1929	-13.2789
 379	1	1	-0.659679	4.19399	9.94828	-13.3625
 380	1	2	0.428714	3.66728	9.03759	-12.6107
 381	1	2	0.160826	3.50636	7.52435	-11.083
 382	1	3	0.04557	2.33225	8.68671	-12.407
 383	1	1	-0.463031	2.27545	7.73566	-11.4122
 384	1	4	-0.07905	6.56001	7.90664	-10.982
 385	1	5	-0.061319	5.97163	11.3738	-13.7794
 386	1	6	0.28436	1.2053	9.57336	-12.7822
 387	1	6	-0.21175	1.39372	11.056	-12.368
 388	1	7	0.07562	2.20623	11.5299	-12.9305
 389	1	7	0.047171	1.62304	11.1392	-11.2984
 390	1	7	0.053131	0.485521	11.636	-12.5721
 391	1	6	-0.120715	-0.152374	9.07078	-12.2357
 392	1	8	0.007856	1.13878	9.54446	-13.8771
 393	1	7	0.031711	-0.179494	9.1379	-11.14
 394	1	7	0.04419	-0.322762	8.02418	-12.5176
 395	1	7	-0.003555	-0.981533	9.6682	-12.6346
 396	1	9	-0.011509	3.86106	6.70349	-10.0156
 397	1	9	-0.199369	4.51003	5.45774	-10.2212
 398	1	9	-0.201771	4.72123	4.56577	-9.14356
 399	1	9	0.15189	4.27532	4.96701	-7.87943
 400	1	9	0.348083	3.66691	6.18628	-7.66992
 401	1	9	-0.230673	3.42983	7.06923	-8.72021
 402	1	10	0.174789	4.80387	5.16854	-11.2278
 403	1	10	0.188672	5.17094	3.5875	-9.28572
 404	1	10	0.201012	2.87612	7.98472	-8.54526
 405	1	11	-0.381547	4.212	4.26136	-6.71878
 406	1	1	-0.706002	3.23413	6.24999	-6.44694
 407	1	2	0.698504	3.58007	5.14384	-5.87732
 408	1	12	0.214303	6.92066	11.2533	-14.0876
 409	1	1	-0.261357	7.34691	10.8359	-5.83938
 410	1	2	0.070556	6.93084	11.6818	-6.724
 411	1	2	0.0266	7.57319	12.8485	-6.90457
 412	1	2	0.33777	8.39625	11.0697	-5.09677
 413	1	1	-0.659679	9.03895	12.1963	-5.25131
 414	1	2	0.428714	8.63094	13.0501	-6.13486
 415	1	2	0.160826	7.47019	13.8861	-7.74846
 416	1	3	0.04557	9.23174	14.2296	-6.59627
 417	1	1	-0.463031	8.41997	14.7448	-7.5865
 418	1	4	-0.07905	5.8948	11.2275	-7.38098
 419	1	5	-0.061319	8.82125	10.1568	-4.16179
 420	1	6	0.28436	10.7025	14.1771	-6.80307
 421	1	6	-0.21175	11.4926	14.7658	-5.61698
 422	1	7	0.07562	11.2807	15.8352	-5.49833
 423	1	7	0.047171	12.5716	14.6423	-5.77583
 424	1	7	0.053131	11.2285	14.2521	-4.68441
 425	1	6	-0.120715	11.1882	14.8138	-8.13148
 426	1	8	0.007856	10.9797	13.1165	-6.86862
 427	1	7	0.031711	10.9772	15.8906	-8.15314
 428	1	7	0.04419	10.6897	14.3498	-8.99232
 429	1	7	-0.003555	12.2684	14.6725	-8.2618
 430	1	9	-0.011509	6.65666	13.8483	-8.87605
 431	1	9	-0.199369	5.2386	13.8497	-8.81253
 432	1	9	-0.201771	4.47365	13.554	-9.96606
 433	1	9	0.15189	5.16893	13.3305	-11.1619
 434	1	9	0.348083	6.54113	13.43	-11.243
 435	1	9	-0.230673	7.31079	13.6603	-10.1117
 436	1	10	0.174789	4.74401	13.9704	-7.84942
 437	1	10	0.188672	3.39714	13.418	-9.91856
 438	1	10	0.201012	8.39098	13.5955	-10.1748
 439	1	11	-0.381547	4.73563	12.7555	-12.3139
 440	1	1	-0.706002	6.95449	12.9423	-12.3721
 441	1	2	0.698504	5.91263	12.5007	-12.9871
 442	1	12	0.214303	8.71637	10.4936	-3.22145
 443	1	1	-0.261357	6.50009	0.622619	-3.61662
 444	1	2	0.070556	7.08688	1.77781	-3.7222
 445	1	2	0.0266	7.75313	2.28933	-2.67515
 446	1	2	0.33777	6.52383	-0.070719	-2.50536
 447	1	1	-0.659679	7.16527	0.414239	-1.47891
 448	1	2	0.428714	7.75614	1.55983	-1.57277
 449	1	2	0.160826	8.4312	3.4198	-2.41341
 450	1	3	0.04557	8.45765	2.30032	-0.620028
 451	1	1	-0.463031	8.8599	3.48267	-1.19725
 452	1	4	-0.07905	6.93924	2.35468	-4.88782
 453	1	5	-0.061319	5.88186	-1.28824	-2.41523
 454	1	6	0.28436	8.13902	2.18164	0.816296
 455	1	6	-0.21175	7.47216	3.45528	1.39103
 456	1	7	0.07562	7.16463	3.29796	2.43172
 457	1	7	0.047171	6.58133	3.71844	0.807502
 458	1	7	0.053131	8.16343	4.30785	1.36349
 459	1	6	-0.120715	9.38559	1.80314	1.64128
 460	1	8	0.007856	7.41483	1.36621	0.935901
 461	1	7	0.031711	10.1576	2.5791	1.56113
 462	1	7	0.04419	9.81108	0.858301	1.28094
 463	1	7	-0.003555	9.12992	1.67829	2.70102
 464	1	9	-0.011509	8.5725	4.49666	-3.28161
 465	1	9	-0.199369	9.4268	4.44115	-4.41523
 466	1	9	-0.201771	9.71087	5.60814	-5.16467
 467	1	9	0.15189	9.11968	6.80469	-4.74017
 468	1	9	0.348083	8.28962	6.85578	-3.64033
 469	1	9	-0.230673	7.99585	5.72435	-2.8922
 470	1	10	0.174789	9.91419	3.50313	-4.67316
 471	1	10	0.188672	10.4044	5.60033	-6.00094
 472	1	10	0.201012	7.40457	5.81538	-1.98785
 473	1	11	-0.381547	9.33165	8.08176	-5.16013
 474	1	1	-0.706002	8.02626	8.08948	-3.34444
 475	1	2	0.698504	8.59237	8.80473	-4.25153
 476	1	12	0.214303	5.35581	-1.51278	-3.24041
 477	1	1	-0.261357	-1.39007	-4.73956	1.35605
 478	1	2	0.070556	-0.159458	-4.34012	1.41854
 479	1	2	0.0266	0.262807	-3.60705	2.4609
 480	1	2	0.33777	-2.26017	-4.47396	2.29511
 481	1	1	-0.659679	-1.8688	-3.77761	3.32925
 482	1	2	0.428714	-0.640941	-3.36419	3.39624
 483	1	2	0.160826	1.41941	-3.00863	2.80568
 484	1	3	0.04557	0.0170374	-2.56416	4.33085
 485	1	1	-0.463031	1.32251	-2.37076	3.92669
 486	1	4	-0.07905	0.542208	-4.70016	0.373694
 487	1	5	-0.061319	-3.58558	-4.76873	2.05201
 488	1	6	0.28436	-0.516169	-2.35049	5.692
 489	1	6	-0.21175	-1.52835	-1.18471	5.74361
 490	1	7	0.07562	-1.0487	-0.238836	5.46217
 491	1	7	0.047171	-1.94272	-1.073	6.75343
 492	1	7	0.053131	-2.36294	-1.36417	5.05415
 493	1	6	-0.120715	0.579458	-2.14988	6.76621
 494	1	8	0.007856	-1.05755	-3.26548	5.96406
 495	1	7	0.031711	1.3644	-2.91095	6.67315
 496	1	7	0.04419	0.150375	-2.23282	7.77237
 497	1	7	-0.003555	1.04808	-1.16124	6.67518
 498	1	9	-0.011509	2.52972	-3.05482	1.96389
 499	1	9	-0.199369	3.36056	-4.20603	1.91427
 500	1	9	-0.201771	4.43202	-4.29189	0.993917
 501	1	9	0.15189	4.64185	-3.19562	0.149703
 502	1	9	0.348083	3.85555	-2.0646	0.21624
 503	1	9	-0.230673	2.79338	-1.95874	1.11247
 504	1	10	0.174789	3.15095	-5.0423	2.57841
 505	1	10	0.188672	5.0636	-5.17348	0.927169
 506	1	10	0.201012	2.18104	-1.0648	1.12891
 507	1	11	-0.381547	5.5578	-3.01485	-0.842179
 508	1	1	-0.706002	4.23815	-1.2167	-0.68903
 509	1	2	0.698504	5.27002	-1.73799	-1.26445
 510	1	12	0.214303	-3.74122	-4.92418	1.07141
 511	1	1	-0.261357	-10.6171	-2.72495	5.48907
 512	1	2	0.070556	-9.77824	-3.69601	5.29727
 513	1	2	0.0266	-10.1369	-4.97582	5.49591
 514	1	2	0.33777	-11.8508	-2.9459	5.86025
 515	1	1	-0.659679	-12.2291	-4.17982	6.05909
 516	1	2	0.428714	-11.3821	-5.15009	5.91293
 517	1	2	0.160826	-9.57157	-6.19159	5.3229
 518	1	3	0.04557	-11.5331	-6.53109	6.0471
 519	1	1	-0.463031	-10.3832	-7.15572	5.62155
 520	1	4	-0.07905	-8.6067	-3.24368	4.94301
 521	1	5	-0.061319	-12.7474	-1.91192	6.06738
 522	1	6	0.28436	-12.8355	-7.20825	6.19713
 523	1	6	-0.21175	-13.7215	-7.09257	4.93894
 524	1	7	0.07562	-14.5998	-7.74392	5.02051
 525	1	7	0.047171	-13.163	-7.39679	4.04481
 526	1	7	0.053131	-14.0713	-6.06268	4.79857
 527	1	6	-0.120715	-13.612	-6.77467	7.46209
 528	1	8	0.007856	-12.6095	-8.27508	6.32201
 529	1	7	0.031711	-14.5113	-7.38864	7.59142
 530	1	7	0.04419	-13.9315	-5.72716	7.40191
 531	1	7	-0.003555	-12.9886	-6.88991	8.35738
 532	1	9	-0.011509	-8.40159	-6.40304	4.58158
 533	1	9	-0.199369	-8.53796	-7.13358	3.37195
 534	1	9	-0.201771	-7.47986	-7.25147	2.45036
 535	1	9	0.15189	-6.27973	-6.62704	2.786
 536	1	9	0.348083	-6.10066	-5.96699	3.9844
 537	1	9	-0.230673	-7.13766	-5.85376	4.91853
 538	1	10	0.174789	-9.50678	-7.55947	3.12417
 539	1	10	0.188672	-7.6106	-7.74173	1.4891
 540	1	10	0.201012	-6.98674	-5.27323	5.82132
 541	1	11	-0.381547	-5.20103	-6.38889	2.00108
 542	1	1	-0.706002	-4.97367	-5.31617	3.93938
 543	1	2	0.698504	-4.43595	-5.56564	2.78835
 544	1	12	0.214303	-13.6071	-2.07849	5.57664
 545	1	1	-0.261357	-10.4176	-5.35588	12.5776
 546	1	2	0.070556	-11.5218	-4.69571	12.4552
 547	1	2	0.0266	-12.6175	-5.30313	11.9709
 548	1	2	0.33777	-10.3169	-6.61161	12.2243
 549	1	1	-0.659679	-11.402	-7.25528	11.8893
 550	1	2	0.428714	-12.5204	-6.60808	11.789
 551	1	2	0.160826	-13.8166	-4.90561	11.5017
 552	1	3	0.04557	-13.7539	-7.00843	11.2816
 553	1	1	-0.463031	-14.5508	-5.89834	11.1092
 554	1	4	-0.07905	-11.4221	-3.44658	12.8377
 555	1	5	-0.061319	-9.0937	-7.20039	11.9791
 556	1	6	0.28436	-14.2601	-8.36851	11.5294
 557	1	6	-0.21175	-14.7659	-9.04152	10.236
 558	1	7	0.07562	-15.5901	-8.46523	9.79626
 559	1	7	0.047171	-15.1223	-10.059	10.4376
 560	1	7	0.053131	-13.9587	-9.10359	9.49576
 561	1	6	-0.120715	-15.3372	-8.4091	12.6379
 562	1	8	0.007856	-13.4153	-8.96775	11.8916
 563	1	7	0.031711	-15.3846	-9.4072	13.0905
 564	1	7	0.04419	-16.3285	-8.1647	12.2356
 565	1	7	-0.003555	-15.1078	-7.69013	13.4353
 566	1	9	-0.011509	-14.017	-3.63497	10.9417
 567	1	9	-0.199369	-15.3291	-3.17213	10.6542
 568	1	9	-0.201771	-15.5574	-2.24074	9.61177
 569	1	9	0.15189	-14.4426	-1.7245	8.93689
 570	1	9	0.348083	-13.1585	-2.03633	9.3275
 571	1	9	-0.230673	-12.934	-3.03984	10.2505
 572	1	10	0.174789	-16.1774	-3.68489	11.1034
 573	1	10	0.188672	-16.561	-2.04658	9.24493
 574	1	10	0.201012	-11.9394	-3.46658	10.2469
 575	1	11	-0.381547	-14.3729	-1.31682	7.63478
 576	1	1	-0.706002	-12.3334	-1.78509	8.36639
 577	1	2	0.698504	-13.0349	-1.46356	7.33991
 578	1	12	0.214303	-9.17691	-8.01267	11.3937
 579	1	1	-0.261357	-1.31844	-7.12511	14.7284
 580	1	2	0.070556	-2.13281	-6.58452	13.8731
 581	1	2	0.0266	-2.05555	-5.27207	13.6007
 582	1	2	0.33777	-0.392553	-6.43828	15.3464
 583	1	1	-0.659679	-0.30466	-5.15837	15.1046
 584	1	2	0.428714	-1.11355	-4.61029	14.2464
 585	1	2	0.160826	-2.74084	-4.40715	12.8186
 586	1	3	0.04557	-1.24972	-3.2933	13.822
 587	1	1	-0.463031	-2.30601	-3.19427	12.9393
 588	1	4	-0.07905	-2.98521	-7.4462	13.3791
 589	1	5	-0.061319	0.359349	-7.07647	16.3191
 590	1	6	0.28436	-0.521159	-2.17946	14.4535
 591	1	6	-0.21175	-1.27579	-1.58553	15.6639
 592	1	7	0.07562	-0.663035	-0.825857	16.1649
 593	1	7	0.047171	-1.50807	-2.36779	16.3975
 594	1	7	0.053131	-2.21746	-1.11771	15.35
 595	1	6	-0.120715	-0.142929	-1.07254	13.4465
 596	1	8	0.007856	0.422282	-2.59065	14.8346
 597	1	7	0.031711	0.474193	-0.304115	13.928
 598	1	7	0.04419	-1.0398	-0.589066	13.0387
 599	1	7	-0.003555	0.43074	-1.49232	12.6105
 600	1	9	-0.011509	-3.8431	-4.85048	12.0916
 601	1	9	-0.199369	-3.68437	-5.52433	10.8505
 602	1	9	-0.201771	-4.77362	-6.19522	10.2435
 603	1	9	0.15189	-6.00716	-6.14568	10.905
 604	1	9	0.348083	-6.17585	-5.42569	12.07
 605	1	9	-0.230673	-5.11809	-4.7687	12.6894
 606	1	10	0.174789	-2.69412	-5.59003	10.4038
 607	1	10	0.188672	-4.65089	-6.78594	9.33958
 608	1	10	0.201012	-5.26729	-4.29153	13.6511
 609	1	11	-0.381547	-7.14654	-6.86408	10.6869
 610	1	1	-0.706002	-7.34637	-5.67118	12.5665
 611	1	2	0.698504	-7.91603	-6.50938	11.7709
 612	1	12	0.214303	0.010782	-7.99466	16.532
 613	1	1	-0.261357	10.3076	-8.79317	17.8494
 614	1	2	0.070556	9.07952	-8.39918	17.6687
 615	1	2	0.0266	8.24186	-9.11967	16.9026
 616	1	2	0.33777	10.7849	-9.88513	17.2973
 617	1	1	-0.659679	9.99205	-10.5763	16.5203
 618	1	2	0.428714	8.76499	-10.2008	16.3391