pySIMM System Object

1192 atoms
1331 bonds
2205 angles
3356 dihedrals
140 impropers

13 atom types
18 bond types
33 angle types
13 dihedral types
2 improper types

-162.393547 162.393547 xlo xhi
-162.393547 162.393547 ylo yhi
-162.393547 162.393547 zlo zhi

Masses

   1	14.01	# n2
   2	12.01	# c2
   3	14.01	# na
   4	12.01	# c1
   5	14.01	# nh
   6	12.01	# c3
   7	1.008	# hc
   8	1.008	# h1
   9	12.01	# ca
  10	1.008	# ha
  11	16.0	# os
  12	1.008	# hn
  13	1.008	# h5

Pair Coeffs

   1	0.17	3.249998523775958	# n2
   2	0.086	3.3996695084235347	# c2
   3	0.17	3.249998523775958	# na
   4	0.21	3.3996695084235347	# c1
   5	0.17	3.249998523775958	# nh
   6	0.1094	3.3996695084235347	# c3
   7	0.0157	2.649532787749369	# hc
   8	0.0157	2.471353044121301	# h1
   9	0.086	3.3996695084235347	# ca
  10	0.015	2.59964245953351	# ha
  11	0.17	3.0000123434657784	# os
  12	0.0157	1.069078461768407	# hn
  13	0.015	2.421462715905442	# h5

Bond Coeffs

   1	300.9	1.5375	# c3,c3
   2	416.2	1.3872	# c2,nh
   3	330.6	1.0969	# c3,hc
   4	397.4	1.4015	# c2,na
   5	345.8	1.086	# ca,ha
   6	625.0	1.307	# c1,c2
   7	330.6	1.0969	# c3,h1
   8	404.6	1.0121	# hn,nh
   9	376.6	1.3696	# ca,os
  10	505.3	1.3676	# n2,na
  11	327.7	1.4629	# c3,na
  12	338.4	1.0912	# c2,h5
  13	569.4	1.3343	# c2,c2
  14	551.6	1.303	# ca,n2
  15	389.2	1.3596	# c2,os
  16	594.1	1.2817	# c2,n2
  17	461.1	1.3984	# ca,ca
  18	482.1	1.3846	# c2,ca

Angle Coeffs

   1	39.4	107.58	# hc,c3,hc
   2	52.26	121.7	# h5,c2,n2
   3	70.06	121.62	# c1,c2,c2
   4	69.58	119.2	# ca,ca,os
   5	78.34	113.82	# n2,c2,n2
   6	70.52	117.58	# c2,n2,na
   7	46.39	109.56	# c3,c3,h1
   8	71.15	126.01	# c2,c2,n2
   9	62.86	111.51	# c3,c3,c3
  10	49.83	108.78	# h1,c3,na
  11	70.0	119.94	# c2,n2,ca
  12	65.52	112.88	# c3,c3,na
  13	69.36	117.0	# c2,c2,ca
  14	71.79	124.27	# n2,c2,nh
  15	46.34	109.8	# c3,c3,hc
  16	65.56	125.0	# c2,na,n2
  17	74.41	119.78	# n2,c2,os
  18	70.62	119.57	# ca,ca,n2
  19	48.18	119.88	# ca,ca,ha
  20	69.14	121.94	# c2,c2,na
  21	71.53	123.62	# n2,c2,na
  22	66.78	120.6	# c2,ca,ca
  23	69.3	121.81	# c2,c2,c2
  24	64.17	118.2	# c2,os,ca
  25	40.07	115.12	# hn,nh,hn
  26	48.59	115.09	# c2,nh,hn
  27	52.71	110.95	# h5,c2,os
  28	65.54	119.24	# c3,na,n2
  29	66.62	120.02	# ca,ca,ca
  30	71.11	118.18	# c2,n2,c2
  31	63.85	117.2	# c2,na,c3
  32	63.96	124.73	# c2,nh,c2
  33	73.36	114.3	# nh,c2,os

Dihedral Coeffs

   1	1	6.65	2	180	# X,c2,c2,X
   2	1	3.625	2	180	# X,ca,ca,X
   3	1	1.7	2	180	# X,n2,na,X
   4	1	0.7	2	180	# X,c2,ca,X
   5	1	0.15555555555555556	3	0	# X,c3,c3,X
   6	1	1.05	2	180	# X,c2,os,X
   7	1	0.0	3	180	# X,ca,n2,X
   8	1	4.15	2	180	# X,c2,n2,X
   9	1	0.9	2	180	# X,ca,os,X
  10	1	0.625	2	180	# X,c2,na,X
  11	1	0.0	2	0	# X,c3,na,X
  12	1	0.16	3	0	# hc,c3,c3,c3
  13	1	0.675	2	180	# X,c2,nh,X

Improper Coeffs

   1	1.1	-1	2	# ca,X,X,ha
   2	1.1	-1	2	# ca,ca,ca,c2

Atoms

   1	1	1	-0.261357	9.0068	-14.4374	29.344
   2	1	2	0.070556	9.07416	-13.2834	28.7538
   3	1	2	0.0266	8.74071	-12.1657	29.4181
   4	1	2	0.33777	8.61687	-14.5573	30.5867
   5	1	1	-0.659679	8.29316	-13.4847	31.2548
   6	1	2	0.428714	8.37163	-12.3267	30.6775
   7	1	2	0.160826	8.64355	-10.8585	29.117
   8	1	3	0.04557	8.06651	-11.0477	31.1472
   9	1	1	-0.463031	8.22375	-10.1502	30.1127
  10	1	4	-0.07905	9.45792	-13.3518	27.5044
  11	1	5	-0.061319	8.43579	-15.7902	31.1709
  12	1	6	0.28436	7.15754	-10.8512	32.2964
  13	1	6	-0.21175	6.40697	-9.49811	32.2669
  14	1	7	0.07562	5.84215	-9.38886	31.3327
  15	1	7	0.047171	7.1114	-8.65971	32.3402
  16	1	7	0.053131	5.69814	-9.4259	33.1008
  17	1	6	-0.120715	7.87893	-11.019	33.6516
  18	1	8	0.007856	6.39364	-11.6372	32.2361
  19	1	7	0.031711	8.66656	-10.2646	33.7721
  20	1	7	0.04419	8.33873	-12.0111	33.7296
  21	1	7	-0.003555	7.17283	-10.9136	34.4849
  22	1	9	-0.011509	8.85341	-10.3548	27.8361
  23	1	9	-0.199369	10.1659	-10.1408	27.3494
  24	1	9	-0.201771	10.393	-9.54452	26.0898
  25	1	9	0.15189	9.27005	-9.17937	25.3452
  26	1	9	0.348083	7.98693	-9.38989	25.8079
  27	1	9	-0.230673	7.74245	-9.97699	27.0485
  28	1	10	0.174789	11.011	-10.4281	27.9641
  29	1	10	0.188672	11.3954	-9.35342	25.7174
  30	1	10	0.201012	6.72519	-10.0947	27.4028
  31	1	11	-0.381547	9.19548	-8.54542	24.1468
  32	1	1	-0.706002	7.1316	-8.91741	24.9535
  33	1	2	0.698504	7.83774	-8.39389	24.007
  34	1	12	0.214303	7.58082	-15.8296	31.698
  35	1	1	-0.261357	14.7959	-17.5043	38.2595
  36	1	2	0.070556	14.041	-17.5559	37.2048
  37	1	2	0.0266	13.3369	-18.6664	36.9212
  38	1	2	0.33777	14.9181	-18.5199	39.0753
  39	1	1	-0.659679	14.2105	-19.5897	38.8443
  40	1	2	0.428714	13.4541	-19.6508	37.797
  41	1	2	0.160826	12.4851	-19.0716	35.9566
  42	1	3	0.04557	12.6167	-20.6689	37.3425
  43	1	1	-0.463031	12.0043	-20.2517	36.183
  44	1	4	-0.07905	14.0388	-16.4251	36.5463
  45	1	5	-0.061319	15.6974	-18.425	40.2099
  46	1	6	0.28436	12.0211	-21.6645	38.2547
  47	1	6	-0.21175	11.249	-21.0291	39.4366
  48	1	7	0.07562	11.9267	-20.5033	40.1208
  49	1	7	0.047171	10.7191	-21.7987	40.0114
  50	1	7	0.053131	10.5071	-20.3089	39.0692
  51	1	6	-0.120715	13.0472	-22.7036	38.7599
  52	1	8	0.007856	11.2831	-22.2195	37.6612
  53	1	7	0.031711	13.796	-22.2418	39.4155
  54	1	7	0.04419	13.5723	-23.1678	37.9158
  55	1	7	-0.003555	12.5468	-23.4994	39.3257
  56	1	9	-0.011509	12.1276	-18.3196	34.8343
  57	1	9	-0.199369	13.1074	-17.7715	33.9614
  58	1	9	-0.201771	12.7377	-17.026	32.8192
  59	1	9	0.15189	11.3722	-16.8982	32.5555
  60	1	9	0.348083	10.415	-17.4761	33.3613
  61	1	9	-0.230673	10.7571	-18.1885	34.508
  62	1	10	0.174789	14.1631	-17.9187	34.18
  63	1	10	0.188672	13.476	-16.5732	32.1623
  64	1	10	0.201012	9.98313	-18.6185	35.1343
  65	1	11	-0.381547	10.7362	-16.2177	31.5654
  66	1	1	-0.706002	9.23456	-17.1811	32.9054
  67	1	2	0.698504	9.41699	-16.4846	31.8371
  68	1	12	0.214303	15.3989	-17.6659	40.8022
  69	1	1	-0.261357	21.4042	-23.5245	45.9347
  70	1	2	0.070556	20.4232	-23.1592	45.1639
  71	1	2	0.0266	19.1496	-23.4055	45.5177
  72	1	2	0.33777	21.1998	-24.121	47.0822
  73	1	1	-0.659679	19.9715	-24.392	47.4282
  74	1	2	0.428714	18.9898	-24.03	46.6705
  75	1	2	0.160826	17.9261	-23.1676	45.0017
  76	1	3	0.04557	17.6154	-24.1694	46.8323
  77	1	1	-0.463031	16.9699	-23.5807	45.7685
  78	1	4	-0.07905	20.8247	-22.5331	44.0871
  79	1	5	-0.061319	22.2569	-24.4879	47.8957
  80	1	6	0.28436	17.0149	-24.4982	48.1358
  81	1	6	-0.21175	15.7126	-25.3141	48.0003
  82	1	7	0.07562	15.3473	-25.6192	48.9877
  83	1	7	0.047171	15.8853	-26.2204	47.4074
  84	1	7	0.053131	14.9308	-24.7249	47.5065
  85	1	6	-0.120715	16.7987	-23.2499	49.0198
  86	1	8	0.007856	17.7326	-25.1422	48.6556
  87	1	7	0.031711	16.1051	-22.5465	48.5451
  88	1	7	0.04419	17.7499	-22.7298	49.1885
  89	1	7	-0.003555	16.3874	-23.5273	49.9983
  90	1	9	-0.011509	17.7112	-22.5262	43.7831
  91	1	9	-0.199369	18.1463	-23.1211	42.5692
  92	1	9	-0.201771	17.9006	-22.5013	41.3248
  93	1	9	0.15189	17.1975	-21.2945	41.3412
  94	1	9	0.348083	16.7431	-20.7225	42.5118
  95	1	9	-0.230673	16.978	-21.3165	43.7524
  96	1	10	0.174789	18.6763	-24.071	42.5992
  97	1	10	0.188672	18.2318	-22.9386	40.3871
  98	1	10	0.201012	16.5964	-20.8657	44.6625
  99	1	11	-0.381547	16.8239	-20.5005	40.3067
 100	1	1	-0.706002	16.1098	-19.6182	42.2392
 101	1	2	0.698504	16.1355	-19.502	40.9503
 102	1	12	0.214303	22.9403	-25.055	47.4276
 103	1	1	-0.261357	15.8643	-25.5994	52.0952
 104	1	2	0.070556	17.1371	-25.7799	52.2381
 105	1	2	0.0266	17.7255	-25.5626	53.4252
 106	1	2	0.33777	15.104	-25.194	53.0799
 107	1	1	-0.659679	15.6461	-25.0114	54.2554
 108	1	2	0.428714	16.9202	-25.2062	54.4098
 109	1	2	0.160826	18.992	-25.5856	53.883
 110	1	3	0.04557	17.7555	-25.0556	55.5172
 111	1	1	-0.463031	19.0634	-25.2661	55.1333
 112	1	4	-0.07905	17.7122	-26.1819	51.1338
 113	1	5	-0.061319	13.7813	-24.8552	52.8786
 114	1	6	0.28436	17.3482	-24.2846	56.7041
 115	1	6	-0.21175	17.6644	-22.7799	56.5566
 116	1	7	0.07562	17.3066	-22.2199	57.4291
 117	1	7	0.047171	17.1769	-22.368	55.6641
 118	1	7	0.053131	18.7456	-22.6165	56.4622
 119	1	6	-0.120715	17.9652	-24.8469	58.0037
 120	1	8	0.007856	16.2595	-24.3828	56.8013
 121	1	7	0.031711	19.0585	-24.7494	57.9942
 122	1	7	0.04419	17.7194	-25.9101	58.118
 123	1	7	-0.003555	17.5806	-24.3133	58.8819
 124	1	9	-0.011509	20.0376	-25.7548	52.9816
 125	1	9	-0.199369	20.6008	-27.033	52.7363
 126	1	9	-0.201771	21.4798	-27.2362	51.6464
 127	1	9	0.15189	21.7861	-26.1263	50.8491
 128	1	9	0.348083	21.2887	-24.8695	51.1286
 129	1	9	-0.230673	20.4051	-24.6521	52.1798
 130	1	10	0.174789	20.2868	-27.8786	53.345
 131	1	10	0.188672	21.8453	-28.2245	51.3834
 132	1	10	0.201012	19.9406	-23.6798	52.2991
 133	1	11	-0.381547	22.379	-26.0805	49.6232
 134	1	1	-0.706002	21.5373	-24.0722	50.1387
 135	1	2	0.698504	22.1214	-24.7864	49.2368
 136	1	12	0.214303	13.451	-24.2134	53.5774
 137	1	1	-0.261357	13.5382	-20.6659	45.0474
 138	1	2	0.070556	13.0745	-21.4858	45.9386
 139	1	2	0.0266	11.7517	-21.6812	46.0548
 140	1	2	0.33777	12.7565	-20.0001	44.2367
 141	1	1	-0.659679	11.4661	-20.1806	44.3306
 142	1	2	0.428714	10.9937	-20.9939	45.2198
 143	1	2	0.160826	10.9538	-22.44	46.8293
 144	1	3	0.04557	9.6847	-21.3565	45.5295
 145	1	1	-0.463031	9.70257	-22.3005	46.5341
 146	1	4	-0.07905	14.008	-22.0566	46.6546
 147	1	5	-0.061319	13.3276	-19.1523	43.3073
 148	1	6	0.28436	8.58205	-21.1593	44.5722
 149	1	6	-0.21175	7.20526	-21.0609	45.2668
 150	1	7	0.07562	6.41689	-20.834	44.5392
 151	1	7	0.047171	7.21139	-20.2654	46.0223
 152	1	7	0.053131	6.95106	-22.0043	45.7669
 153	1	6	-0.120715	8.56294	-22.2464	43.4743
 154	1	8	0.007856	8.75521	-20.1964	44.0746
 155	1	7	0.031711	9.521	-22.2741	42.94
 156	1	7	0.04419	7.77382	-22.0432	42.7401
 157	1	7	-0.003555	8.38317	-23.2393	43.9061
 158	1	9	-0.011509	11.4724	-23.3008	47.7925
 159	1	9	-0.199369	11.6996	-24.6623	47.4663
 160	1	9	-0.201771	12.2511	-25.5549	48.4116
 161	1	9	0.15189	12.5504	-25.0407	49.6762
 162	1	9	0.348083	12.3115	-23.7229	50.009
 163	1	9	-0.230673	11.7757	-22.8217	49.0883
 164	1	10	0.174789	11.4558	-25.0164	46.4664
 165	1	10	0.188672	12.4558	-26.594	48.1703
 166	1	10	0.201012	11.6137	-21.7869	49.3672
 167	1	11	-0.381547	13.1343	-25.6489	50.7414
 168	1	1	-0.706002	12.7063	-23.5056	51.2287
 169	1	2	0.698504	13.2186	-24.6154	51.642
 170	1	12	0.214303	14.3325	-19.2141	43.2355
 171	1	1	-0.261357	10.5475	-14.8913	35.4395
 172	1	2	0.070556	10.7727	-15.064	36.7048
 173	1	2	0.0266	11.4269	-14.1267	37.4096
 174	1	2	0.33777	10.9389	-13.8189	34.8016
 175	1	1	-0.659679	11.5807	-12.8968	35.466
 176	1	2	0.428714	11.806	-13.0577	36.7308
 177	1	2	0.160826	11.8463	-13.9892	38.6821
 178	1	3	0.04557	12.4745	-12.2514	37.6502
 179	1	1	-0.463031	12.5099	-12.8952	38.8684
 180	1	4	-0.07905	10.3321	-16.2119	37.1527
 181	1	5	-0.061319	10.7329	-13.7222	33.4421
 182	1	6	0.28436	13.4578	-11.2438	37.2142
 183	1	6	-0.21175	14.8898	-11.8193	37.1405
 184	1	7	0.07562	15.2305	-12.1405	38.1331
 185	1	7	0.047171	15.5935	-11.069	36.7598
 186	1	7	0.053131	14.9221	-12.6877	36.4706
 187	1	6	-0.120715	13.4217	-9.97605	38.0951
 188	1	8	0.007856	13.1822	-10.9296	36.1995
 189	1	7	0.031711	12.4111	-9.54919	38.1136
 190	1	7	0.04419	14.1047	-9.21213	37.7038
 191	1	7	-0.003555	13.7164	-10.2024	39.1278
 192	1	9	-0.011509	11.6533	-14.9707	39.6519
 193	1	9	-0.199369	10.3532	-15.2921	40.1254
 194	1	9	-0.201771	10.1602	-16.3055	41.0916
 195	1	9	0.15189	11.3008	-16.9528	41.5747
 196	1	9	0.348083	12.5677	-16.6148	41.1511
 197	1	9	-0.230673	12.7807	-15.6285	40.1905
 198	1	10	0.174789	9.4925	-14.7612	39.7236
 199	1	10	0.188672	9.17267	-16.5808	41.4504
 200	1	10	0.201012	13.7842	-15.3814	39.8631
 201	1	11	-0.381547	11.413	-17.9622	42.4761
 202	1	1	-0.706002	13.4419	-17.3625	41.7547
 203	1	2	0.698504	12.7735	-18.1576	42.5248
 204	1	12	0.214303	10.6691	-14.6221	33.0002
 205	1	1	-0.261357	17.3982	-9.56668	29.2026
 206	1	2	0.070556	16.1386	-9.75696	29.4457
 207	1	2	0.0266	15.2608	-9.84032	28.4331
 208	1	2	0.33777	17.8641	-9.47276	27.984
 209	1	1	-0.659679	17.019	-9.53372	26.992
 210	1	2	0.428714	15.76	-9.71369	27.2167
 211	1	2	0.160826	13.9383	-10.0478	28.3256
 212	1	3	0.04557	14.671	-9.82331	26.3486
 213	1	1	-0.463031	13.5425	-10.0695	27.097
 214	1	4	-0.07905	15.8599	-9.84691	30.7215
 215	1	5	-0.061319	19.2158	-9.28699	27.7729
 216	1	6	0.28436	14.8054	-10.2799	24.9522
 217	1	6	-0.21175	15.5068	-11.6517	24.8291
 218	1	7	0.07562	15.4656	-12.0146	23.7952
 219	1	7	0.047171	15.0138	-12.3944	25.4689
 220	1	7	0.053131	16.5615	-11.5868	25.1256
 221	1	6	-0.120715	15.4628	-9.23607	24.0246
 222	1	8	0.007856	13.7823	-10.4199	24.5796
 223	1	7	0.031711	15.4539	-9.58234	22.9839
 224	1	7	0.04419	16.5051	-9.05183	24.312
 225	1	7	-0.003555	14.9171	-8.28509	24.0653
 226	1	9	-0.011509	13.1522	-10.3263	29.4373
 227	1	9	-0.199369	12.4716	-9.29117	30.129
 228	1	9	-0.201771	11.6809	-9.57831	31.2652
 229	1	9	0.15189	11.5959	-10.9163	31.6636
 230	1	9	0.348083	12.227	-11.9271	30.9704
 231	1	9	-0.230673	13.0131	-11.6689	29.8521
 232	1	10	0.174789	12.5612	-8.26489	29.7784
 233	1	10	0.188672	11.1601	-8.80081	31.8166
 234	1	10	0.201012	13.5036	-12.4839	29.3317
 235	1	11	-0.381547	10.9622	-11.4715	32.7294
 236	1	1	-0.706002	11.9936	-13.0651	31.5458
 237	1	2	0.698504	11.3113	-12.7961	32.6064
 238	1	12	0.214303	19.6695	-8.73764	28.4812
 239	1	1	-0.261357	19.9627	-5.5142	19.6069
 240	1	2	0.070556	20.2983	-6.32173	20.5609
 241	1	2	0.0266	21.5856	-6.45751	20.9209
 242	1	2	0.33777	20.8419	-4.80514	18.9469
 243	1	1	-0.659679	22.1002	-4.92303	19.2778
 244	1	2	0.428714	22.4453	-5.71691	20.243
 245	1	2	0.160826	22.2727	-7.17457	21.8325
 246	1	3	0.04557	23.6934	-5.99304	20.8039
 247	1	1	-0.463031	23.5409	-6.93024	21.802
 248	1	4	-0.07905	19.2524	-6.91965	21.0705
 249	1	5	-0.061319	20.4893	-3.93825	17.9259
 250	1	6	0.28436	24.9369	-5.82949	20.033
 251	1	6	-0.21175	25.3168	-7.10934	19.2549
 252	1	7	0.07562	24.497	-7.41329	18.5922
 253	1	7	0.047171	25.5239	-7.93917	19.9428
 254	1	7	0.053131	26.2085	-6.94181	18.6386
 255	1	6	-0.120715	26.1082	-5.3595	20.9229
 256	1	8	0.007856	24.7662	-5.04631	19.2873
 257	1	7	0.031711	27.007	-5.18051	20.32
 258	1	7	0.04419	26.3481	-6.11401	21.6831
 259	1	7	-0.003555	25.8536	-4.42499	21.4386
 260	1	9	-0.011509	21.6634	-8.05578	22.7225
 261	1	9	-0.199369	20.9241	-9.17738	22.2615
 262	1	9	-0.201771	20.1789	-9.97256	23.1598
 263	1	9	0.15189	20.2446	-9.63685	24.5145
 264	1	9	0.348083	21.0358	-8.60692	24.9791
 265	1	9	-0.230673	21.7595	-7.79904	24.1072
 266	1	10	0.174789	20.8689	-9.3807	21.1938
 267	1	10	0.188672	19.5326	-10.776	22.8187
 268	1	10	0.201012	22.3071	-6.94898	24.4918
 269	1	11	-0.381547	19.4974	-10.0937	25.5497
 270	1	1	-0.706002	20.8089	-8.41802	26.2427
 271	1	2	0.698504	19.854	-9.22399	26.5539
 272	1	12	0.214303	21.2398	-3.37546	17.5627
 273	1	1	-0.261357	11.834	-3.34599	18.349
 274	1	2	0.070556	12.917	-3.27979	17.6394
 275	1	2	0.0266	12.9222	-3.68876	16.3589
 276	1	2	0.33777	10.7156	-3.82004	17.8625
 277	1	1	-0.659679	10.6838	-4.18232	16.6106
 278	1	2	0.428714	11.7606	-4.11633	15.8903
 279	1	2	0.160826	13.838	-3.78496	15.3739
 280	1	3	0.04557	11.9963	-4.43827	14.5513
 281	1	1	-0.463031	13.3323	-4.24444	14.2762
 282	1	4	-0.07905	13.9165	-2.76581	18.3098
 283	1	5	-0.061319	9.58076	-3.97273	18.6306
 284	1	6	0.28436	11.1481	-5.37125	13.7846
 285	1	6	-0.21175	9.67161	-4.92757	13.657
 286	1	7	0.07562	9.60816	-3.88516	13.3274
 287	1	7	0.047171	9.14103	-5.01438	14.6123
 288	1	7	0.053131	9.14489	-5.5513	12.9251
 289	1	6	-0.120715	11.2351	-6.81941	14.3164
 290	1	8	0.007856	11.5569	-5.38212	12.7661
 291	1	7	0.031711	12.2795	-7.15352	14.3564
 292	1	7	0.04419	10.6854	-7.50644	13.6615
 293	1	7	-0.003555	10.812	-6.89756	15.326
 294	1	9	-0.011509	15.1924	-3.49753	15.556
 295	1	9	-0.199369	15.8413	-2.54572	14.7252
 296	1	9	-0.201771	17.2181	-2.25386	14.8778
 297	1	9	0.15189	17.9154	-2.95641	15.8671
 298	1	9	0.348083	17.2975	-3.90362	16.6546
 299	1	9	-0.230673	15.9466	-4.21158	16.5165
 300	1	10	0.174789	15.2608	-2.0389	13.9564
 301	1	10	0.188672	17.7209	-1.51818	14.2577
 302	1	10	0.201012	15.5011	-4.96929	17.1512
 303	1	11	-0.381547	19.2233	-2.88419	16.2446
 304	1	1	-0.706002	18.1553	-4.39835	17.4909
 305	1	2	0.698504	19.2733	-3.7875	17.2813
 306	1	12	0.214303	8.93981	-4.61702	18.2032
 307	1	1	-0.261357	13.4837	-5.64052	25.9711
 308	1	2	0.070556	12.3848	-5.3743	25.3487
 309	1	2	0.0266	11.2012	-5.67608	25.9023
 310	1	2	0.33777	13.5084	-6.21451	27.1462
 311	1	1	-0.659679	12.3694	-6.50371	27.7186
 312	1	2	0.428714	11.2564	-6.24589	27.0965
 313	1	2	0.160826	9.9112	-5.50991	25.5522
 314	1	3	0.04557	9.9201	-6.41265	27.4695
 315	1	1	-0.463031	9.10179	-5.91185	26.4767
 316	1	4	-0.07905	12.6113	-4.76852	24.2109
 317	1	5	-0.061319	14.7082	-6.43255	27.8013
 318	1	6	0.28436	9.5005	-6.74309	28.8492
 319	1	6	-0.21175	7.96911	-6.90285	28.995
 320	1	7	0.07562	7.58126	-7.61258	28.2584
 321	1	7	0.047171	7.45706	-5.94526	28.8387
 322	1	7	0.053131	7.70883	-7.27539	29.9931
 323	1	6	-0.120715	9.99374	-5.71486	29.8952
 324	1	8	0.007856	9.95519	-7.71135	29.0942
 325	1	7	0.031711	9.66178	-5.99802	30.9017
 326	1	7	0.04419	9.59773	-4.71594	29.6726
 327	1	7	-0.003555	11.0876	-5.6515	29.917
 328	1	9	-0.011509	9.55805	-4.89299	24.3516
 329	1	9	-0.199369	8.96183	-3.60595	24.3786
 330	1	9	-0.201771	8.70078	-2.89632	23.1845
 331	1	9	0.15189	9.03443	-3.5251	21.9814
 332	1	9	0.348083	9.56727	-4.79686	21.9436
 333	1	9	-0.230673	9.84015	-5.51143	23.1094
 334	1	10	0.174789	8.74362	-3.14495	25.3402
 335	1	10	0.188672	8.29259	-1.88972	23.1915
 336	1	10	0.201012	10.3222	-6.48084	23.0485
 337	1	11	-0.381547	8.99606	-3.04413	20.71
 338	1	1	-0.706002	9.83236	-5.11779	20.713
 339	1	2	0.698504	9.57722	-4.06914	20.0051
 340	1	12	0.214303	14.6798	-6.25335	28.7889
 341	1	1	-0.261357	22.0012	-2.55451	22.5903
 342	1	2	0.070556	21.207	-3.22189	23.3678
 343	1	2	0.0266	21.6752	-3.81274	24.4813
 344	1	2	0.33777	23.2772	-2.42315	22.8504
 345	1	1	-0.659679	23.7576	-2.97915	23.9266
 346	1	2	0.428714	22.9672	-3.64121	24.7112
 347	1	2	0.160826	21.1732	-4.5743	25.4771
 348	1	3	0.04557	23.2277	-4.30645	25.9066
 349	1	1	-0.463031	22.0694	-4.90326	26.3496
 350	1	4	-0.07905	19.9711	-3.18734	22.9402
 351	1	5	-0.061319	24.1341	-1.73774	22.0181
 352	1	6	0.28436	24.5839	-4.76714	26.2513
 353	1	6	-0.21175	24.8887	-6.17304	25.6867
 354	1	7	0.07562	24.7461	-6.19318	24.5986
 355	1	7	0.047171	24.2267	-6.92595	26.1337
 356	1	7	0.053131	25.9261	-6.46054	25.8966
 357	1	6	-0.120715	24.8411	-4.7199	27.7726
 358	1	8	0.007856	25.2957	-4.07131	25.7893
 359	1	7	0.031711	25.8742	-5.00839	28.0025
 360	1	7	0.04419	24.1662	-5.40238	28.3049
 361	1	7	-0.003555	24.6784	-3.70612	28.1601
 362	1	9	-0.011509	19.869	-5.07428	25.5259
 363	1	9	-0.199369	19.3323	-5.76707	24.4101
 364	1	9	-0.201771	18.0602	-6.36583	24.4525
 365	1	9	0.15189	17.3622	-6.27521	25.6528
 366	1	9	0.348083	17.8718	-5.63779	26.7641
 367	1	9	-0.230673	19.1271	-5.02329	26.7335
 368	1	10	0.174789	19.9169	-5.84809	23.5005
 369	1	10	0.188672	17.6323	-6.87589	23.5944
 370	1	10	0.201012	19.5193	-4.53344	27.6172
 371	1	11	-0.381547	16.1219	-6.71795	25.9456
 372	1	1	-0.706002	16.99	-5.67583	27.7238
 373	1	2	0.698504	15.9563	-6.27505	27.2298
 374	1	12	0.214303	25.0917	-1.94983	22.2327
 375	1	1	-0.261357	18.5355	1.01364	16.018
 376	1	2	0.070556	19.6173	0.385756	16.356
 377	1	2	0.0266	20.606	0.194246	15.4639
 378	1	2	0.33777	18.3648	1.48809	14.8121
 379	1	1	-0.659679	19.2972	1.30154	13.9222
 380	1	2	0.428714	20.3777	0.670762	14.2512
 381	1	2	0.160826	21.817	-0.39645	15.448
 382	1	3	0.04557	21.4862	0.322494	13.4809
 383	1	1	-0.463031	22.368	-0.371117	14.2784
 384	1	4	-0.07905	19.5548	-0.0371764	17.5926
 385	1	5	-0.061319	17.2264	2.15398	14.4341
 386	1	6	0.28436	21.3258	0.052662	12.0397
 387	1	6	-0.21175	20.6221	-1.29883	11.7728
 388	1	7	0.07562	20.4775	-1.4564	10.697
 389	1	7	0.047171	19.636	-1.32739	12.253
 390	1	7	0.053131	21.2172	-2.13327	12.1653
 391	1	6	-0.120715	22.6646	0.126039	11.2727
 392	1	8	0.007856	20.6829	0.842895	11.6314
 393	1	7	0.031711	23.3514	-0.663745	11.6032
 394	1	7	0.04419	23.1518	1.09446	11.4406
 395	1	7	-0.003555	22.5029	0.00963899	10.1936
 396	1	9	-0.011509	22.4297	-1.00151	16.5459
 397	1	9	-0.199369	23.0276	-2.27937	16.3828
 398	1	9	-0.201771	23.7133	-2.9085	17.4432
 399	1	9	0.15189	23.7695	-2.22591	18.6609
 400	1	9	0.348083	23.2028	-0.980703	18.8274
 401	1	9	-0.230673	22.5536	-0.32691	17.784
 402	1	10	0.174789	22.9699	-2.77202	15.4128
 403	1	10	0.188672	24.1596	-3.89266	17.3348
 404	1	10	0.201012	22.1486	0.66576	17.947
 405	1	11	-0.381547	24.2818	-2.62096	19.8544
 406	1	1	-0.706002	23.3229	-0.609484	20.0644
 407	1	2	0.698504	23.9162	-1.58193	20.6695
 408	1	12	0.214303	17.3899	2.63651	13.5679
 409	1	1	-0.261357	8.38706	1.34227	12.5074
 410	1	2	0.070556	9.53294	0.912894	12.9406
 411	1	2	0.0266	10.0326	-0.249676	12.4896
 412	1	2	0.33777	7.68253	0.676015	11.6285
 413	1	1	-0.659679	8.16912	-0.440621	11.1626
 414	1	2	0.428714	9.30023	-0.886141	11.5959
 415	1	2	0.160826	11.1539	-0.962675	12.6915
 416	1	3	0.04557	10.0203	-2.02917	11.2569
 417	1	1	-0.463031	11.2055	-2.02729	11.9599
 418	1	4	-0.07905	10.0966	1.71391	13.8093
 419	1	5	-0.061319	6.46906	1.17443	11.1956
 420	1	6	0.28436	9.84423	-2.67309	9.94186
 421	1	6	-0.21175	9.71313	-4.20551	10.0625
 422	1	7	0.07562	9.55408	-4.66076	9.0775
 423	1	7	0.047171	8.85758	-4.46621	10.6972
 424	1	7	0.053131	10.6183	-4.64129	10.5036
 425	1	6	-0.120715	10.9615	-2.29336	8.94387
 426	1	8	0.007856	8.90111	-2.31059	9.51384
 427	1	7	0.031711	10.7628	-2.7238	7.95463
 428	1	7	0.04419	11.9373	-2.65954	9.28801
 429	1	7	-0.003555	11.0252	-1.20349	8.83129
 430	1	9	-0.011509	12.1832	-0.482238	13.4891
 431	1	9	-0.199369	12.1896	-0.678619	14.8945
 432	1	9	-0.201771	13.2536	-0.188967	15.6876
 433	1	9	0.15189	14.2765	0.501994	15.0293
 434	1	9	0.348083	14.2578	0.705402	13.665
 435	1	9	-0.230673	13.2355	0.215476	12.8628
 436	1	10	0.174789	11.3696	-1.21913	15.3627
 437	1	10	0.188672	13.2911	-0.343084	16.7628
 438	1	10	0.201012	13.2601	0.368315	11.7897
 439	1	11	-0.381547	15.4239	1.04489	15.5175
 440	1	1	-0.706002	15.319	1.35248	13.2994
 441	1	2	0.698504	16.0047	1.53444	14.3733
 442	1	12	0.214303	6.24949	2.11104	11.4854
 443	1	1	-0.261357	-1.96515	-0.633612	10.9561
 444	1	2	0.070556	-0.780772	-0.746165	10.4398
 445	1	2	0.0266	-0.629957	-0.887354	9.1117
 446	1	2	0.33777	-3.04627	-0.644454	10.2201
 447	1	1	-0.659679	-2.91832	-0.807474	8.93144
 448	1	2	0.428714	-1.74411	-0.916284	8.40543
 449	1	2	0.160826	0.407826	-1.0188	8.26541
 450	1	3	0.04557	-1.34011	-1.09538	7.08466
 451	1	1	-0.463031	0.036143	-1.13094	7.03201
 452	1	4	-0.07905	0.170291	-0.711815	11.3389
 453	1	5	-0.061319	-4.28206	-0.519335	10.8245
 454	1	6	0.28436	-2.23506	-0.825956	5.94527
 455	1	6	-0.21175	-1.85505	-1.6421	4.689
 456	1	7	0.07562	-1.82416	-2.71346	4.92215
 457	1	7	0.047171	-0.866816	-1.34656	4.31388
 458	1	7	0.053131	-2.58721	-1.48772	3.88702
 459	1	6	-0.120715	-2.31603	0.679545	5.6107
 460	1	8	0.007856	-3.24133	-1.14928	6.24113
 461	1	7	0.031711	-1.33435	1.06633	5.30892
 462	1	7	0.04419	-2.6564	1.25105	6.48339
 463	1	7	-0.003555	-3.02392	0.860363	4.79187
 464	1	9	-0.011509	1.71498	-1.02291	8.73301
 465	1	9	-0.199369	2.41282	-2.25146	8.84777
 466	1	9	-0.201771	3.71613	-2.2949	9.38642
 467	1	9	0.15189	4.27752	-1.07987	9.78595
 468	1	9	0.348083	3.61449	0.121846	9.65366
 469	1	9	-0.230673	2.32767	0.188818	9.12602
 470	1	10	0.174789	1.9261	-3.17193	8.53114
 471	1	10	0.188672	4.26255	-3.22624	9.50243
 472	1	10	0.201012	1.81527	1.14122	9.05239
 473	1	11	-0.381547	5.47504	-0.834717	10.3665
 474	1	1	-0.706002	4.35009	1.08194	10.1285
 475	1	2	0.698504	5.44765	0.530652	10.5252
 476	1	12	0.214303	-4.29904	-0.672774	11.8167
 477	1	1	-0.261357	-10.8013	-3.0937	5.37256
 478	1	2	0.070556	-10.2617	-2.28803	6.23429
 479	1	2	0.0266	-10.4663	-0.963186	6.14264
 480	1	2	0.33777	-11.5399	-2.65686	4.38444
 481	1	1	-0.659679	-11.7266	-1.36937	4.26888
 482	1	2	0.428714	-11.2047	-0.560739	5.12732
 483	1	2	0.160826	-10.0946	0.122206	6.84244
 484	1	3	0.04557	-11.2653	0.827718	5.22332
 485	1	1	-0.463031	-10.5224	1.22257	6.31605
 486	1	4	-0.07905	-9.54994	-2.90767	7.1419
 487	1	5	-0.061319	-12.1758	-3.53634	3.5316
 488	1	6	0.28436	-11.4397	1.64132	4.00609
 489	1	6	-0.21175	-10.1752	1.64101	3.1173
 490	1	7	0.07562	-9.9046	0.617005	2.83005
 491	1	7	0.047171	-9.32424	2.08579	3.64863
 492	1	7	0.053131	-10.346	2.21324	2.19728
 493	1	6	-0.120715	-11.8847	3.08936	4.30714
 494	1	8	0.007856	-12.2433	1.17558	3.42235
 495	1	7	0.031711	-12.0437	3.64853	3.37692
 496	1	7	0.04419	-11.1283	3.61861	4.90024
 497	1	7	-0.003555	-12.8264	3.09936	4.86698
 498	1	9	-0.011509	-9.29075	0.000997649	7.96717
 499	1	9	-0.199369	-9.84698	-0.360312	9.22264
 500	1	9	-0.201771	-9.01898	-0.571439	10.3487
 501	1	9	0.15189	-7.64272	-0.39913	10.1681
 502	1	9	0.348083	-7.10875	-0.0210591	8.95422
 503	1	9	-0.230673	-7.90048	0.185798	7.83106
 504	1	10	0.174789	-10.9218	-0.504484	9.3072
 505	1	10	0.188672	-9.41983	-0.877675	11.3107
 506	1	10	0.201012	-7.44521	0.448752	6.88273
 507	1	11	-0.381547	-6.6138	-0.612668	11.0333
 508	1	1	-0.706002	-5.81898	0.00921716	9.03856
 509	1	2	0.698504	-5.52087	-0.369801	10.2354
 510	1	12	0.214303	-12.7557	-4.19442	4.02538
 511	1	1	-0.261357	-17.4858	-2.86466	-3.94234
 512	1	2	0.070556	-16.6881	-2.48086	-2.99473
 513	1	2	0.0266	-16.9138	-1.32532	-2.35001
 514	1	2	0.33777	-18.5222	-2.15487	-4.30758
 515	1	1	-0.659679	-18.7709	-1.03686	-3.67948
 516	1	2	0.428714	-17.9747	-0.641006	-2.73806
 517	1	2	0.160826	-16.3067	-0.63849	-1.36708
 518	1	3	0.04557	-17.9952	0.500245	-1.93533
 519	1	1	-0.463031	-16.8928	0.483075	-1.10855
 520	1	4	-0.07905	-15.698	-3.30861	-2.77564
 521	1	5	-0.061319	-19.4163	-2.6439	-5.23413
 522	1	6	0.28436	-18.6856	1.72832	-2.36682
 523	1	6	-0.21175	-17.8997	2.48263	-3.46306
 524	1	7	0.07562	-18.4486	3.37353	-3.79149
 525	1	7	0.047171	-17.742	1.84133	-4.33927
 526	1	7	0.053131	-16.9179	2.80078	-3.08987
 527	1	6	-0.120715	-19.0075	2.67531	-1.18892
 528	1	8	0.007856	-19.6438	1.42321	-2.80494
 529	1	7	0.031711	-19.576	3.54739	-1.53455
 530	1	7	0.04419	-18.0879	3.0329	-0.708577
 531	1	7	-0.003555	-19.6085	2.16249	-0.42937
 532	1	9	-0.011509	-15.1601	-1.107	-0.737311
 533	1	9	-0.199369	-13.8921	-0.585983	-1.09977
 534	1	9	-0.201771	-12.7213	-0.998016	-0.427154
 535	1	9	0.15189	-12.8709	-1.94273	0.591606
 536	1	9	0.348083	-14.0998	-2.4645	0.941815
 537	1	9	-0.230673	-15.2709	-2.0525	0.307766
 538	1	10	0.174789	-13.8292	0.163511	-1.88614
 539	1	10	0.188672	-11.7448	-0.583112	-0.658862
 540	1	10	0.201012	-16.2321	-2.42727	0.641084
 541	1	11	-0.381547	-11.9488	-2.40783	1.46906
 542	1	1	-0.706002	-13.97	-3.22061	1.99047
 543	1	2	0.698504	-12.7275	-3.14461	2.33069
 544	1	12	0.214303	-20.3699	-2.69523	-4.90997
 545	1	1	-0.261357	-22.5777	-1.65915	-13.7456
 546	1	2	0.070556	-21.676	-1.8784	-12.8389
 547	1	2	0.0266	-20.8158	-2.89856	-12.9808
 548	1	2	0.33777	-22.6946	-2.41172	-14.8129
 549	1	1	-0.659679	-21.8652	-3.4054	-14.973
 550	1	2	0.428714	-20.9551	-3.62355	-14.0778
 551	1	2	0.160826	-19.7953	-3.40768	-12.265
 552	1	3	0.04557	-19.9722	-4.60611	-13.9914
 553	1	1	-0.463031	-19.2363	-4.42103	-12.8424
 554	1	4	-0.07905	-21.7082	-1.0319	-11.8409
 555	1	5	-0.061319	-23.704	-2.23411	-15.7364
 556	1	6	0.28436	-19.5735	-5.43478	-15.1417
 557	1	6	-0.21175	-19.141	-6.85514	-14.7161
 558	1	7	0.07562	-19.9324	-7.33714	-14.129
 559	1	7	0.047171	-18.2347	-6.81992	-14.0987
 560	1	7	0.053131	-18.938	-7.48105	-15.594
 561	1	6	-0.120715	-18.4764	-4.75579	-15.9903
 562	1	8	0.007856	-20.4567	-5.55166	-15.7824
 563	1	7	0.031711	-18.2193	-5.37228	-16.8606
 564	1	7	0.04419	-17.5676	-4.59649	-15.3965
 565	1	7	-0.003555	-18.8188	-3.77991	-16.3569
 566	1	9	-0.011509	-19.4127	-2.90986	-11.0217
 567	1	9	-0.199369	-18.2174	-2.15629	-10.8923
 568	1	9	-0.201771	-17.7462	-1.74767	-9.62314
 569	1	9	0.15189	-18.5053	-2.1173	-8.50835
 570	1	9	0.348083	-19.6773	-2.83514	-8.62998
 571	1	9	-0.230673	-20.1565	-3.2555	-9.86987
 572	1	10	0.174789	-17.638	-1.92495	-11.7838
 573	1	10	0.188672	-16.8159	-1.2002	-9.50369
 574	1	10	0.201012	-21.0519	-3.86375	-9.9277
 575	1	11	-0.381547	-18.247	-1.94565	-7.18313
 576	1	1	-0.706002	-20.1482	-3.09736	-7.44893
 577	1	2	0.698504	-19.3069	-2.60335	-6.60491
 578	1	12	0.214303	-23.9287	-3.10119	-16.1905
 579	1	1	-0.261357	-26.6339	0.627081	-9.111
 580	1	2	0.070556	-26.851	0.640193	-10.3848
 581	1	2	0.0266	-28.0846	0.876447	-10.8616
 582	1	2	0.33777	-27.5847	0.841651	-8.23936
 583	1	1	-0.659679	-28.7946	1.06589	-8.67562
 584	1	2	0.428714	-29.0208	1.08863	-9.95311
 585	1	2	0.160826	-28.6374	0.961129	-12.0869
 586	1	3	0.04557	-30.1878	1.30769	-10.6881
 587	1	1	-0.463031	-29.8984	1.24319	-12.034
 588	1	4	-0.07905	-25.7542	0.415	-11.0641
 589	1	5	-0.061319	-27.3495	0.783182	-6.88207
 590	1	6	0.28436	-31.3882	1.96179	-10.1357
 591	1	6	-0.21175	-31.0998	3.35208	-9.52315
 592	1	7	0.07562	-30.5813	3.9912	-10.2485
 593	1	7	0.047171	-30.4729	3.27189	-8.6264
 594	1	7	0.053131	-32.0345	3.85061	-9.23892
 595	1	6	-0.120715	-32.1523	1.06162	-9.13997
 596	1	8	0.007856	-32.0634	2.12996	-10.9846
 597	1	7	0.031711	-31.5574	0.869952	-8.23846
 598	1	7	0.04419	-32.3937	0.0964501	-9.60249
 599	1	7	-0.003555	-33.0938	1.53404	-8.83264
 600	1	9	-0.011509	-27.8345	0.758919	-13.2035
 601	1	9	-0.199369	-27.1937	1.86511	-13.8164
 602	1	9	-0.201771	-26.1583	1.66919	-14.7561
 603	1	9	0.15189	-25.8222	0.34965	-15.0715
 604	1	9	0.348083	-26.4943	-0.730537	-14.5334
 605	1	9	-0.230673	-27.5005	-0.560366	-13.585
 606	1	10	0.174789	-27.4405	2.8725	-13.4874
 607	1	10	0.188672	-25.5837	2.4984	-15.1585
 608	1	10	0.201012	-27.9224	-1.42318	-13.0822
 609	1	11	-0.381547	-24.7291	-0.116857	-15.729
 610	1	1	-0.706002	-25.8654	-1.82604	-14.8344
 611	1	2	0.698504	-24.8194	-1.46576	-15.4964
 612	1	12	0.214303	-28.1582	0.520915	-6.34711
 613	1	1	-0.261357	-21.4129	0.0332193	-0.0632001
 614	1	2	0.070556	-21.7904	-0.112953	-1.29428
 615	1	2	0.0266	-21.6229	-1.29112	-1.91555
 616	1	2	0.33777	-20.8718	-0.946108	0.613896
 617	1	1	-0.659679	-20.7018	-2.09961	0.0309385
 618	1	2	0.428714	-21.0483	-2.24738	-1.20745
 619	1	2	0.160826	-21.9317	-1.78826	-3.12589
 620	1	3	0.04557	-20.9865	-3.3485	-2.06485
 621	1	1	-0.463031	-21.601	-3.03123	-3.25566
 622	1	4	-0.07905	-22.3401	0.962033	-1.80002
 623	1	5	-0.061319	-20.6081	-0.82728	1.95712
 624	1	6	0.28436	-20.7239	-4.72976	-1.62225