pySIMM System Object

1158 atoms
1293 bonds
2142 angles
3260 dihedrals
136 impropers

13 atom types
18 bond types
33 angle types
13 dihedral types
2 improper types

-160.785584 160.785584 xlo xhi
-160.785584 160.785584 ylo yhi
-160.785584 160.785584 zlo zhi

Masses

   1	14.01	# n2
   2	12.01	# c2
   3	14.01	# na
   4	12.01	# c1
   5	14.01	# nh
   6	12.01	# c3
   7	1.008	# hc
   8	1.008	# h1
   9	12.01	# ca
  10	1.008	# ha
  11	16.0	# os
  12	1.008	# hn
  13	1.008	# h5

Pair Coeffs

   1	0.17	3.249998523775958	# n2
   2	0.086	3.3996695084235347	# c2
   3	0.17	3.249998523775958	# na
   4	0.21	3.3996695084235347	# c1
   5	0.17	3.249998523775958	# nh
   6	0.1094	3.3996695084235347	# c3
   7	0.0157	2.649532787749369	# hc
   8	0.0157	2.471353044121301	# h1
   9	0.086	3.3996695084235347	# ca
  10	0.015	2.59964245953351	# ha
  11	0.17	3.0000123434657784	# os
  12	0.0157	1.069078461768407	# hn
  13	0.015	2.421462715905442	# h5

Bond Coeffs

   1	300.9	1.5375	# c3,c3
   2	416.2	1.3872	# c2,nh
   3	330.6	1.0969	# c3,hc
   4	397.4	1.4015	# c2,na
   5	345.8	1.086	# ca,ha
   6	625.0	1.307	# c1,c2
   7	330.6	1.0969	# c3,h1
   8	404.6	1.0121	# hn,nh
   9	376.6	1.3696	# ca,os
  10	505.3	1.3676	# n2,na
  11	327.7	1.4629	# c3,na
  12	338.4	1.0912	# c2,h5
  13	569.4	1.3343	# c2,c2
  14	551.6	1.303	# ca,n2
  15	389.2	1.3596	# c2,os
  16	594.1	1.2817	# c2,n2
  17	461.1	1.3984	# ca,ca
  18	482.1	1.3846	# c2,ca

Angle Coeffs

   1	39.4	107.58	# hc,c3,hc
   2	52.26	121.7	# h5,c2,n2
   3	70.06	121.62	# c1,c2,c2
   4	69.58	119.2	# ca,ca,os
   5	78.34	113.82	# n2,c2,n2
   6	70.52	117.58	# c2,n2,na
   7	46.39	109.56	# c3,c3,h1
   8	71.15	126.01	# c2,c2,n2
   9	62.86	111.51	# c3,c3,c3
  10	49.83	108.78	# h1,c3,na
  11	70.0	119.94	# c2,n2,ca
  12	65.52	112.88	# c3,c3,na
  13	69.36	117.0	# c2,c2,ca
  14	71.79	124.27	# n2,c2,nh
  15	46.34	109.8	# c3,c3,hc
  16	65.56	125.0	# c2,na,n2
  17	74.41	119.78	# n2,c2,os
  18	70.62	119.57	# ca,ca,n2
  19	48.18	119.88	# ca,ca,ha
  20	69.14	121.94	# c2,c2,na
  21	71.53	123.62	# n2,c2,na
  22	66.78	120.6	# c2,ca,ca
  23	69.3	121.81	# c2,c2,c2
  24	64.17	118.2	# c2,os,ca
  25	40.07	115.12	# hn,nh,hn
  26	48.59	115.09	# c2,nh,hn
  27	52.71	110.95	# h5,c2,os
  28	65.54	119.24	# c3,na,n2
  29	66.62	120.02	# ca,ca,ca
  30	71.11	118.18	# c2,n2,c2
  31	63.85	117.2	# c2,na,c3
  32	63.96	124.73	# c2,nh,c2
  33	73.36	114.3	# nh,c2,os

Dihedral Coeffs

   1	1	6.65	2	180	# X,c2,c2,X
   2	1	3.625	2	180	# X,ca,ca,X
   3	1	1.7	2	180	# X,n2,na,X
   4	1	0.7	2	180	# X,c2,ca,X
   5	1	0.15555555555555556	3	0	# X,c3,c3,X
   6	1	1.05	2	180	# X,c2,os,X
   7	1	0.0	3	180	# X,ca,n2,X
   8	1	4.15	2	180	# X,c2,n2,X
   9	1	0.9	2	180	# X,ca,os,X
  10	1	0.625	2	180	# X,c2,na,X
  11	1	0.0	2	0	# X,c3,na,X
  12	1	0.16	3	0	# hc,c3,c3,c3
  13	1	0.675	2	180	# X,c2,nh,X

Improper Coeffs

   1	1.1	-1	2	# ca,X,X,ha
   2	1.1	-1	2	# ca,ca,ca,c2

Atoms

   1	1	1	-0.261357	-11.1716	-19.2861	-28.4817
   2	1	2	0.070556	-11.2448	-18.0056	-28.2882
   3	1	2	0.0266	-11.115	-17.1565	-29.3198
   4	1	2	0.33777	-10.9636	-19.7997	-29.6675
   5	1	1	-0.659679	-10.832	-18.9951	-30.6852
   6	1	2	0.428714	-10.913	-17.7149	-30.5013
   7	1	2	0.160826	-11.1172	-15.8185	-29.4787
   8	1	3	0.04557	-10.7979	-16.6485	-31.3885
   9	1	1	-0.463031	-10.921	-15.459	-30.7066
  10	1	4	-0.07905	-11.4321	-17.683	-27.0341
  11	1	5	-0.061319	-10.884	-21.161	-29.8726
  12	1	6	0.28436	-10.5184	-16.8142	-32.8259
  13	1	6	-0.21175	-9.49035	-15.7894	-33.3555
  14	1	7	0.07562	-8.5658	-15.8337	-32.7667
  15	1	7	0.047171	-9.88627	-14.7677	-33.2922
  16	1	7	0.053131	-9.23803	-15.9961	-34.4029
  17	1	6	-0.120715	-11.8087	-16.7748	-33.6701
  18	1	8	0.007856	-10.072	-17.8077	-32.9607
  19	1	7	0.031711	-12.3074	-15.8017	-33.5793
  20	1	7	0.04419	-12.5069	-17.548	-33.3322
  21	1	7	-0.003555	-11.5908	-16.9561	-34.7303
  22	1	9	-0.011509	-11.2618	-14.9212	-28.4223
  23	1	9	-0.199369	-12.5065	-14.7707	-27.7568
  24	1	9	-0.201771	-12.6919	-13.7871	-26.7603
  25	1	9	0.15189	-11.5944	-12.9784	-26.4502
  26	1	9	0.348083	-10.3772	-13.1236	-27.0859
  27	1	9	-0.230673	-10.1782	-14.0813	-28.0792
  28	1	10	0.174789	-13.3393	-15.4115	-28.0277
  29	1	10	0.188672	-13.6508	-13.6466	-26.2657
  30	1	10	0.201012	-9.22579	-14.1413	-28.5934
  31	1	11	-0.381547	-11.502	-11.9336	-25.5855
  32	1	1	-0.706002	-9.54739	-12.2229	-26.6572
  33	1	2	0.698504	-10.2156	-11.5063	-25.8153
  34	1	12	0.214303	-10.4073	-21.3938	-30.7266
  35	1	1	-0.261357	-18.5072	-24.1117	-33.5531
  36	1	2	0.070556	-17.5886	-24.0629	-32.638
  37	1	2	0.0266	-17.1277	-25.1921	-32.0707
  38	1	2	0.33777	-19.0299	-25.2443	-33.9471
  39	1	1	-0.659679	-18.581	-26.3522	-33.4261
  40	1	2	0.428714	-17.6658	-26.3132	-32.5159
  41	1	2	0.160826	-16.214	-25.5121	-31.1317
  42	1	3	0.04557	-17.0216	-27.3345	-31.8234
  43	1	1	-0.463031	-16.1163	-26.7889	-30.9422
  44	1	4	-0.07905	-17.2079	-22.8368	-32.3856
  45	1	5	-0.061319	-19.958	-25.2769	-34.9668
  46	1	6	0.28436	-17.4821	-28.7352	-31.8132
  47	1	6	-0.21175	-17.3925	-29.4087	-33.2013
  48	1	7	0.07562	-18.1154	-28.9769	-33.9047
  49	1	7	0.047171	-17.5981	-30.4833	-33.1256
  50	1	7	0.053131	-16.3902	-29.2791	-33.6242
  51	1	6	-0.120715	-18.8958	-28.8995	-31.211
  52	1	8	0.007856	-16.7927	-29.2796	-31.1551
  53	1	7	0.031711	-19.6554	-28.4181	-31.84
  54	1	7	0.04419	-18.9429	-28.4485	-30.2119
  55	1	7	-0.003555	-19.1568	-29.961	-31.1161
  56	1	9	-0.011509	-15.4511	-24.5534	-30.47
  57	1	9	-0.199369	-16.0606	-23.6177	-29.5931
  58	1	9	-0.201771	-15.3054	-22.5871	-28.9932
  59	1	9	0.15189	-13.9357	-22.5619	-29.265
  60	1	9	0.348083	-13.3237	-23.5019	-30.0676
  61	1	9	-0.230673	-14.0562	-24.5094	-30.6918
  62	1	10	0.174789	-17.1342	-23.6657	-29.4223
  63	1	10	0.188672	-15.7667	-21.8224	-28.373
  64	1	10	0.201012	-13.5688	-25.197	-31.3739
  65	1	11	-0.381547	-13.0227	-21.6048	-28.9669
  66	1	1	-0.706002	-12.0872	-23.1552	-30.2704
  67	1	2	0.698504	-11.9009	-22.0564	-29.6222
  68	1	12	0.214303	-19.6264	-24.779	-35.7771
  69	1	1	-0.261357	-25.9383	-30.4469	-39.4702
  70	1	2	0.070556	-25.0084	-30.2322	-38.5881
  71	1	2	0.0266	-23.9547	-31.0621	-38.5005
  72	1	2	0.33777	-25.8834	-31.4589	-40.2993
  73	1	1	-0.659679	-24.9026	-32.31	-40.1793
  74	1	2	0.428714	-23.9649	-32.0961	-39.3189
  75	1	2	0.160826	-22.8192	-31.1143	-37.7818
  76	1	3	0.04557	-22.781	-32.788	-39.0797
  77	1	1	-0.463031	-22.0695	-32.1149	-38.1089
  78	1	4	-0.07905	-25.1988	-29.1512	-37.8745
  79	1	5	-0.061319	-26.8028	-31.6127	-41.3192
  80	1	6	0.28436	-22.1609	-33.5599	-40.1718
  81	1	6	-0.21175	-21.0504	-34.5063	-39.6737
  82	1	7	0.07562	-20.6789	-35.1281	-40.4957
  83	1	7	0.047171	-21.431	-35.1714	-38.8893
  84	1	7	0.053131	-20.209	-33.9369	-39.2621
  85	1	6	-0.120715	-21.6442	-32.6559	-41.3172
  86	1	8	0.007856	-22.9493	-34.1974	-40.5897
  87	1	7	0.031711	-20.9358	-31.9103	-40.9405
  88	1	7	0.04419	-22.4751	-32.1208	-41.7938
  89	1	7	-0.003555	-21.1374	-33.2438	-42.0916
  90	1	9	-0.011509	-22.4904	-30.1242	-36.865
  91	1	9	-0.199369	-22.9316	-30.2211	-35.5208
  92	1	9	-0.201771	-22.6107	-29.2184	-34.5799
  93	1	9	0.15189	-21.8498	-28.1384	-35.035
  94	1	9	0.348083	-21.4095	-28.0444	-36.3397
  95	1	9	-0.230673	-21.7028	-29.0282	-37.2815
  96	1	10	0.174789	-23.519	-31.0839	-35.2134
  97	1	10	0.188672	-22.9303	-29.2759	-33.5432
  98	1	10	0.201012	-21.332	-28.9507	-38.2979
  99	1	11	-0.381547	-21.3849	-27.0626	-34.353
 100	1	1	-0.706002	-20.691	-26.9704	-36.4838
 101	1	2	0.698504	-20.6596	-26.4088	-35.3191
 102	1	12	0.214303	-27.6821	-31.9773	-40.9999
 103	1	1	-0.261357	-20.5063	-36.0051	-43.286
 104	1	2	0.070556	-21.641	-35.6333	-43.7891
 105	1	2	0.0266	-21.7256	-35.2756	-45.0809
 106	1	2	0.33777	-19.4102	-36.0456	-44.0006
 107	1	1	-0.659679	-19.4778	-35.7494	-45.2704
 108	1	2	0.428714	-20.611	-35.3811	-45.7819
 109	1	2	0.160826	-22.6917	-34.7815	-45.8788
 110	1	3	0.04557	-20.9498	-34.9619	-47.0682
 111	1	1	-0.463031	-22.2663	-34.5516	-47.0776
 112	1	4	-0.07905	-22.619	-35.6566	-42.9197
 113	1	5	-0.061319	-18.176	-36.2912	-43.4373
 114	1	6	0.28436	-19.9257	-34.5032	-48.0228
 115	1	6	-0.21175	-19.4837	-33.0479	-47.7512
 116	1	7	0.07562	-18.6862	-32.7488	-48.4422
 117	1	7	0.047171	-19.1027	-32.9429	-46.7276
 118	1	7	0.053131	-20.3258	-32.3552	-47.876
 119	1	6	-0.120715	-20.3733	-34.6709	-49.4917
 120	1	8	0.007856	-19.0453	-35.1439	-47.8852
 121	1	7	0.031711	-21.2275	-34.0203	-49.7191
 122	1	7	0.04419	-20.6734	-35.708	-49.6868
 123	1	7	-0.003555	-19.5568	-34.4184	-50.1799
 124	1	9	-0.011509	-23.916	-34.4039	-45.3367
 125	1	9	-0.199369	-25.0048	-35.3104	-45.2685
 126	1	9	-0.201771	-26.1677	-34.9868	-44.5305
 127	1	9	0.15189	-26.2083	-33.7334	-43.9082
 128	1	9	0.348083	-25.1775	-32.8246	-44.0326
 129	1	9	-0.230673	-24.0102	-33.1361	-44.7226
 130	1	10	0.174789	-24.9104	-36.2916	-45.7288
 131	1	10	0.188672	-26.9736	-35.7012	-44.3901
 132	1	10	0.201012	-23.1743	-32.4458	-44.7084
 133	1	11	-0.381547	-27.0714	-33.2645	-42.9642
 134	1	1	-0.706002	-25.3684	-31.8369	-43.2166
 135	1	2	0.698504	-26.4429	-32.1126	-42.5553
 136	1	12	0.214303	-17.4479	-36.0861	-44.0988
 137	1	1	-0.261357	-18.219	-29.6207	-38.2937
 138	1	2	0.070556	-17.9424	-30.8769	-38.4369
 139	1	2	0.0266	-16.9718	-31.4497	-37.7073
 140	1	2	0.33777	-17.5596	-28.8579	-37.4634
 141	1	1	-0.659679	-16.6271	-29.3929	-36.7196
 142	1	2	0.428714	-16.355	-30.6533	-36.8507
 143	1	2	0.160826	-16.4369	-32.6836	-37.6123
 144	1	3	0.04557	-15.4345	-31.4749	-36.2039
 145	1	1	-0.463031	-15.503	-32.7502	-36.7197
 146	1	4	-0.07905	-18.7084	-31.4528	-39.326
 147	1	5	-0.061319	-17.9066	-27.5308	-37.3604
 148	1	6	0.28436	-14.4161	-30.9772	-35.2642
 149	1	6	-0.21175	-13.0001	-30.9996	-35.8782
 150	1	7	0.07562	-12.2672	-30.5754	-35.1814
 151	1	7	0.047171	-12.9725	-30.4106	-36.8033
 152	1	7	0.053131	-12.6952	-32.0268	-36.1166
 153	1	6	-0.120715	-14.4412	-31.7441	-33.9232
 154	1	8	0.007856	-14.6522	-29.9298	-35.0404
 155	1	7	0.031711	-15.4465	-31.7283	-33.4858
 156	1	7	0.04419	-13.7507	-31.2899	-33.2022
 157	1	7	-0.003555	-14.1498	-32.7931	-34.0625
 158	1	9	-0.011509	-16.863	-33.7309	-38.4265
 159	1	9	-0.199369	-17.5959	-34.8098	-37.8693
 160	1	9	-0.201771	-18.1077	-35.8422	-38.6877
 161	1	9	0.15189	-17.8474	-35.7602	-40.0593
 162	1	9	0.348083	-17.0963	-34.7373	-40.601
 163	1	9	-0.230673	-16.587	-33.7067	-39.8137
 164	1	10	0.174789	-17.7962	-34.8175	-36.7995
 165	1	10	0.188672	-18.7183	-36.6449	-38.2845
 166	1	10	0.201012	-16.0435	-32.8897	-40.2741
 167	1	11	-0.381547	-18.3254	-36.521	-41.0807
 168	1	1	-0.706002	-17.0806	-34.8464	-41.895
 169	1	2	0.698504	-17.8285	-35.8581	-42.1763
 170	1	12	0.214303	-18.8958	-27.3344	-37.3776
 171	1	1	-0.261357	-13.9806	-21.3168	-32.4438
 172	1	2	0.070556	-14.2114	-21.829	-33.6119
 173	1	2	0.0266	-14.6521	-21.0521	-34.6146
 174	1	2	0.33777	-14.1736	-20.0496	-32.189
 175	1	1	-0.659679	-14.5806	-19.2747	-33.1573
 176	1	2	0.428714	-14.7978	-19.7711	-34.3314
 177	1	2	0.160826	-15.0405	-21.2527	-35.887
 178	1	3	0.04557	-15.2646	-19.1838	-35.5051
 179	1	1	-0.463031	-15.4446	-20.1645	-36.4573
 180	1	4	-0.07905	-13.9863	-23.1172	-33.6671
 181	1	5	-0.061319	-14.0304	-19.5869	-30.8984
 182	1	6	0.28436	-15.9473	-17.877	-35.5025
 183	1	6	-0.21175	-17.4834	-18.0167	-35.5908
 184	1	7	0.07562	-17.7777	-18.4794	-36.5415
 185	1	7	0.047171	-17.9702	-17.0364	-35.5186
 186	1	7	0.053131	-17.8598	-18.6453	-34.7741
 187	1	6	-0.120715	-15.4158	-16.9463	-36.6135
 188	1	8	0.007856	-15.7247	-17.3849	-34.5474
 189	1	7	0.031711	-14.3308	-16.8139	-36.5176
 190	1	7	0.04419	-15.8845	-15.9565	-36.5483
 191	1	7	-0.003555	-15.6239	-17.3597	-37.6086
 192	1	9	-0.011509	-15.1539	-22.5412	-36.3962
 193	1	9	-0.199369	-14.0284	-23.2406	-36.9047
 194	1	9	-0.201771	-14.1403	-24.5903	-37.313
 195	1	9	0.15189	-15.4006	-25.1886	-37.2084
 196	1	9	0.348083	-16.5015	-24.4971	-36.75
 197	1	9	-0.230673	-16.4134	-23.1741	-36.3296
 198	1	10	0.174789	-13.0633	-22.7399	-36.9467
 199	1	10	0.188672	-13.2868	-25.1567	-37.6748
 200	1	10	0.201012	-17.2838	-22.6633	-35.9338
 201	1	11	-0.381547	-15.7846	-26.4679	-37.4612
 202	1	1	-0.706002	-17.5362	-25.2791	-36.7352
 203	1	2	0.698504	-17.1083	-26.4457	-37.0873
 204	1	12	0.214303	-14.0619	-20.319	-30.2088
 205	1	1	-0.261357	-20.5134	-13.9756	-28.5214
 206	1	2	0.070556	-19.2699	-14.327	-28.629
 207	1	2	0.0266	-18.3797	-13.9647	-27.6913
 208	1	2	0.33777	-20.9565	-13.2786	-27.5072
 209	1	1	-0.659679	-20.1053	-12.9171	-26.5855
 210	1	2	0.428714	-18.858	-13.2518	-26.6856
 211	1	2	0.160826	-17.0587	-14.1457	-27.5029
 212	1	3	0.04557	-17.749	-12.9728	-25.8838
 213	1	1	-0.463031	-16.6335	-13.5805	-26.4207
 214	1	4	-0.07905	-19.0201	-15.0182	-29.7121
 215	1	5	-0.061319	-22.286	-12.9036	-27.4732
 216	1	6	0.28436	-17.8402	-12.4732	-24.4982
 217	1	6	-0.21175	-18.5988	-13.4385	-23.5599
 218	1	7	0.07562	-18.5504	-13.0853	-22.5227
 219	1	7	0.047171	-18.1551	-14.441	-23.5982
 220	1	7	0.053131	-19.6559	-13.5177	-23.8437
 221	1	6	-0.120715	-18.4179	-11.0444	-24.3939
 222	1	8	0.007856	-16.8094	-12.418	-24.1252
 223	1	7	0.031711	-18.3779	-10.6841	-23.3588
 224	1	7	0.04419	-19.4635	-11.0112	-24.7234
 225	1	7	-0.003555	-17.8399	-10.3468	-25.0106
 226	1	9	-0.011509	-16.2875	-14.8765	-28.4039
 227	1	9	-0.199369	-15.5826	-14.2074	-29.4366
 228	1	9	-0.201771	-14.8079	-14.918	-30.3776
 229	1	9	0.15189	-14.768	-16.3062	-30.2454
 230	1	9	0.348083	-15.4371	-16.9684	-29.2362
 231	1	9	-0.230673	-16.2061	-16.2842	-28.2939
 232	1	10	0.174789	-15.6357	-13.128	-29.5033
 233	1	10	0.188672	-14.2549	-14.4186	-31.1687
 234	1	10	0.201012	-16.7251	-16.8288	-27.5132
 235	1	11	-0.381547	-14.1283	-17.2247	-31.0082
 236	1	1	-0.706002	-15.2333	-18.2458	-29.3486
 237	1	2	0.698504	-14.5162	-18.3982	-30.411
 238	1	12	0.214303	-22.7153	-12.8963	-28.3815
 239	1	1	-0.261357	-22.5426	-5.10831	-23.1211
 240	1	2	0.070556	-23.0362	-6.2323	-23.5258
 241	1	2	0.0266	-24.3328	-6.3289	-23.8616
 242	1	2	0.33777	-23.2639	-4.02348	-23.0077
 243	1	1	-0.659679	-24.5232	-4.07771	-23.3601
 244	1	2	0.428714	-25.0242	-5.2044	-23.7699
 245	1	2	0.160826	-25.1519	-7.31271	-24.2923
 246	1	3	0.04557	-26.3103	-5.55241	-24.1764
 247	1	1	-0.463031	-26.3505	-6.88506	-24.5251
 248	1	4	-0.07905	-22.1211	-7.16712	-23.5563
 249	1	5	-0.061319	-22.7356	-2.84284	-22.5127
 250	1	6	0.28436	-27.3863	-4.5692	-24.3802
 251	1	6	-0.21175	-28.7617	-5.09612	-23.9117
 252	1	7	0.07562	-28.7112	-5.42188	-22.8652
 253	1	7	0.047171	-29.0813	-5.95324	-24.5183
 254	1	7	0.053131	-29.5276	-4.31475	-23.9884
 255	1	6	-0.120715	-27.4524	-4.08805	-25.8453
 256	1	8	0.007856	-27.154	-3.69485	-23.7591
 257	1	7	0.031711	-28.2335	-3.32825	-25.9711
 258	1	7	0.04419	-27.6719	-4.92472	-26.5206
 259	1	7	-0.003555	-26.4961	-3.64405	-26.1481
 260	1	9	-0.011509	-24.6986	-8.6226	-24.4523
 261	1	9	-0.199369	-24.224	-9.3583	-23.333
 262	1	9	-0.201771	-23.5766	-10.6018	-23.5002
 263	1	9	0.15189	-23.4708	-11.0957	-24.8024
 264	1	9	0.348083	-24.0203	-10.4369	-25.8833
 265	1	9	-0.230673	-24.6459	-9.19753	-25.7426
 266	1	10	0.174789	-24.28	-8.91609	-22.3402
 267	1	10	0.188672	-23.1222	-11.1303	-22.6672
 268	1	10	0.201012	-24.9909	-8.66454	-26.6219
 269	1	11	-0.381547	-22.7453	-12.146	-25.267
 270	1	1	-0.706002	-23.6765	-11.0475	-26.9768
 271	1	2	0.698504	-22.8592	-11.981	-26.6264
 272	1	12	0.214303	-23.349	-2.04943	-22.5576
 273	1	1	-0.261357	-14.4623	-4.65152	-21.2392
 274	1	2	0.070556	-15.463	-3.90896	-20.8891
 275	1	2	0.0266	-15.6723	-3.61143	-19.5958
 276	1	2	0.33777	-13.6297	-5.15472	-20.3653
 277	1	1	-0.659679	-13.795	-4.8565	-19.1058
 278	1	2	0.428714	-14.7816	-4.09346	-18.7416
 279	1	2	0.160826	-16.6028	-2.92654	-18.9027
 280	1	3	0.04557	-15.1739	-3.605	-17.487
 281	1	1	-0.463031	-16.3446	-2.89308	-17.6377
 282	1	4	-0.07905	-16.1495	-3.48894	-21.9214
 283	1	5	-0.061319	-12.6381	-6.04434	-20.7314
 284	1	6	0.28436	-14.8081	-4.22211	-16.1933
 285	1	6	-0.21175	-13.337	-4.67795	-16.0509
 286	1	7	0.07562	-12.6521	-3.88165	-16.3578
 287	1	7	0.047171	-13.1312	-5.56747	-16.6576
 288	1	7	0.053131	-13.1139	-4.92992	-15.0079
 289	1	6	-0.120715	-15.7621	-5.37614	-15.8131
 290	1	8	0.007856	-14.9523	-3.43372	-15.4431
 291	1	7	0.031711	-16.8038	-5.03085	-15.8061
 292	1	7	0.04419	-15.5295	-5.75869	-14.8118
 293	1	7	-0.003555	-15.6811	-6.20513	-16.5276
 294	1	9	-0.011509	-17.7919	-2.46017	-19.4691
 295	1	9	-0.199369	-18.2278	-1.12411	-19.2605
 296	1	9	-0.201771	-19.459	-0.663624	-19.7895
 297	1	9	0.15189	-20.2355	-1.58228	-20.507
 298	1	9	0.348083	-19.8319	-2.88736	-20.68
 299	1	9	-0.230673	-18.6326	-3.36333	-20.1623
 300	1	10	0.174789	-17.6016	-0.449327	-18.6785
 301	1	10	0.188672	-19.7909	0.361763	-19.6582
 302	1	10	0.201012	-18.3606	-4.40118	-20.3193
 303	1	11	-0.381547	-21.4144	-1.4168	-21.1741
 304	1	1	-0.706002	-20.6996	-3.51972	-21.4041
 305	1	2	0.698504	-21.6066	-2.66231	-21.7302
 306	1	12	0.214303	-12.4745	-6.74446	-20.03
 307	1	1	-0.261357	-16.2549	-9.71732	-27.3356
 308	1	2	0.070556	-15.172	-9.279	-26.7827
 309	1	2	0.0266	-13.9756	-9.57371	-27.3129
 310	1	2	0.33777	-16.2487	-10.4459	-28.4221
 311	1	1	-0.659679	-15.0957	-10.7386	-28.9609
 312	1	2	0.428714	-13.9997	-10.3259	-28.3999
 313	1	2	0.160826	-12.6988	-9.24675	-27.0429
 314	1	3	0.04557	-12.6657	-10.4594	-28.788
 315	1	1	-0.463031	-11.8798	-9.72665	-27.9206
 316	1	4	-0.07905	-15.4192	-8.53141	-25.7372
 317	1	5	-0.061319	-17.417	-10.8402	-29.0539
 318	1	6	0.28436	-12.3291	-10.6475	-30.2116
 319	1	6	-0.21175	-11.0918	-11.5453	-30.4133
 320	1	7	0.07562	-11.2888	-12.5473	-30.019
 321	1	7	0.047171	-10.2158	-11.1346	-29.8952
 322	1	7	0.053131	-10.8495	-11.6491	-31.4778
 323	1	6	-0.120715	-12.155	-9.301	-30.9494
 324	1	8	0.007856	-13.1705	-11.1671	-30.6873
 325	1	7	0.031711	-11.9749	-9.46285	-32.0191
 326	1	7	0.04419	-11.307	-8.7375	-30.5398
 327	1	7	-0.003555	-13.0571	-8.68417	-30.8476
 328	1	9	-0.011509	-12.3863	-8.34051	-26.0317
 329	1	9	-0.199369	-12.0541	-7.01208	-26.3995
 330	1	9	-0.201771	-11.8877	-6.00518	-25.4256
 331	1	9	0.15189	-12.0408	-6.38025	-24.0895
 332	1	9	0.348083	-12.3107	-7.68214	-23.7148
 333	1	9	-0.230673	-12.4918	-8.69225	-24.6637
 334	1	10	0.174789	-11.9846	-6.75634	-27.4553
 335	1	10	0.188672	-11.7009	-4.96947	-25.6945
 336	1	10	0.201012	-12.7821	-9.69001	-24.3517
 337	1	11	-0.381547	-12.0834	-5.59778	-22.9812
 338	1	1	-0.706002	-12.5054	-7.72725	-22.429
 339	1	2	0.698504	-12.4296	-6.50661	-22.0139
 340	1	12	0.214303	-17.2863	-11.0681	-30.0233
 341	1	1	-0.261357	-22.9042	-3.72669	-28.0094
 342	1	2	0.070556	-22.5693	-4.96705	-28.1469
 343	1	2	0.0266	-23.4719	-5.87121	-28.5586
 344	1	2	0.33777	-24.1153	-3.30052	-28.2568
 345	1	1	-0.659679	-25.0096	-4.15327	-28.6795
 346	1	2	0.428714	-24.676	-5.39731	-28.8301
 347	1	2	0.160826	-23.4747	-7.20309	-28.76
 348	1	3	0.04557	-25.4118	-6.50881	-29.2308
 349	1	1	-0.463031	-24.6226	-7.63647	-29.1715
 350	1	4	-0.07905	-21.3091	-5.16917	-27.8571
 351	1	5	-0.061319	-24.4912	-2.00514	-27.9818
 352	1	6	0.28436	-26.8535	-6.45634	-29.5331
 353	1	6	-0.21175	-27.6164	-7.71756	-29.0677
 354	1	7	0.07562	-27.4512	-7.89412	-27.9973
 355	1	7	0.047171	-27.2774	-8.60592	-29.616
 356	1	7	0.053131	-28.695	-7.60406	-29.2319
 357	1	6	-0.120715	-27.1103	-6.18647	-31.0309
 358	1	8	0.007856	-27.273	-5.6105	-28.9737
 359	1	7	0.031711	-28.1851	-6.10226	-31.2342
 360	1	7	0.04419	-26.7051	-6.99831	-31.6483
 361	1	7	-0.003555	-26.6332	-5.24859	-31.3428
 362	1	9	-0.011509	-22.3775	-7.9827	-28.4032
 363	1	9	-0.199369	-22.0188	-8.05829	-27.0329
 364	1	9	-0.201771	-20.9094	-8.80827	-26.6048
 365	1	9	0.15189	-20.1862	-9.474	-27.59
 366	1	9	0.348083	-20.5189	-9.41949	-28.9283
 367	1	9	-0.230673	-21.6183	-8.67904	-29.3733
 368	1	10	0.174789	-22.5941	-7.49934	-26.3007
 369	1	10	0.188672	-20.5986	-8.84034	-25.5645
 370	1	10	0.201012	-21.8502	-8.61724	-30.43
 371	1	11	-0.381547	-19.0162	-10.1327	-27.4697
 372	1	1	-0.706002	-19.5867	-10.0064	-29.6249
 373	1	2	0.698504	-18.6883	-10.3791	-28.7741
 374	1	12	0.214303	-25.4914	-1.91955	-27.9557
 375	1	1	-0.261357	-17.3654	0.0601142	-22.4223
 376	1	2	0.070556	-18.5404	0.111079	-22.9815
 377	1	2	0.0266	-19.2157	1.27187	-23.0264
 378	1	2	0.33777	-16.8033	1.11863	-21.8904
 379	1	1	-0.659679	-17.428	2.26008	-21.9565
 380	1	2	0.428714	-18.5972	2.31728	-22.5039
 381	1	2	0.160826	-20.4212	1.68736	-23.4661
 382	1	3	0.04557	-19.4816	3.3816	-22.6511
 383	1	1	-0.463031	-20.6295	2.94835	-23.2702
 384	1	4	-0.07905	-18.9608	-1.02386	-23.479
 385	1	5	-0.061319	-15.5614	1.11685	-21.2946
 386	1	6	0.28436	-19.1257	4.77987	-22.3564
 387	1	6	-0.21175	-20.3144	5.57968	-21.7783
 388	1	7	0.07562	-19.9984	6.58713	-21.4824
 389	1	7	0.047171	-20.7236	5.07608	-20.8938
 390	1	7	0.053131	-21.1188	5.67502	-22.519
 391	1	6	-0.120715	-18.5335	5.49877	-23.5878
 392	1	8	0.007856	-18.3478	4.76214	-21.5826
 393	1	7	0.031711	-19.2722	5.56132	-24.3972
 394	1	7	0.04419	-17.6568	4.95831	-23.9662
 395	1	7	-0.003555	-18.2178	6.51781	-23.3304
 396	1	9	-0.011509	-21.4222	0.870824	-23.9899
 397	1	9	-0.199369	-22.6016	0.674285	-23.2233
 398	1	9	-0.201771	-23.7239	0.00377192	-23.7551
 399	1	9	0.15189	-23.6227	-0.452894	-25.0701
 400	1	9	0.348083	-22.4816	-0.269642	-25.8254
 401	1	9	-0.230673	-21.3594	0.389549	-25.3186
 402	1	10	0.174789	-22.6501	1.09284	-22.2193
 403	1	10	0.188672	-24.6465	-0.11596	-23.1935
 404	1	10	0.201012	-20.4951	0.55789	-25.9516
 405	1	11	-0.381547	-24.5535	-1.07708	-25.8372
 406	1	1	-0.706002	-22.6748	-0.758728	-27.0118
 407	1	2	0.698504	-23.8746	-1.23769	-27.0177
 408	1	12	0.214303	-15.3281	2.05401	-21.0187
 409	1	1	-0.261357	-8.23739	-0.209268	-15.7787
 410	1	2	0.070556	-9.39729	-0.391385	-16.3277
 411	1	2	0.0266	-10.4398	-0.81196	-15.5942
 412	1	2	0.33777	-8.01367	-0.440788	-14.511
 413	1	1	-0.659679	-9.01788	-0.832015	-13.7687
 414	1	2	0.428714	-10.1871	-1.00976	-14.3089
 415	1	2	0.160826	-11.7398	-1.0904	-15.831
 416	1	3	0.04557	-11.4145	-1.39271	-13.7647
 417	1	1	-0.463031	-12.3675	-1.45062	-14.7594
 418	1	4	-0.07905	-9.40392	-0.0818661	-17.5991
 419	1	5	-0.061319	-6.76581	-0.111238	-14.0078
 420	1	6	0.28436	-11.5547	-1.98752	-12.4239
 421	1	6	-0.21175	-11.9318	-3.48434	-12.4892
 422	1	7	0.07562	-11.9465	-3.92626	-11.4857
 423	1	7	0.047171	-11.2051	-4.03899	-13.0956
 424	1	7	0.053131	-12.9252	-3.61615	-12.9363
 425	1	6	-0.120715	-12.5716	-1.21466	-11.5555
 426	1	8	0.007856	-10.5819	-1.91932	-11.9212
 427	1	7	0.031711	-12.6457	-1.65673	-10.554
 428	1	7	0.04419	-13.5695	-1.23187	-12.0125
 429	1	7	-0.003555	-12.2664	-0.166964	-11.4408
 430	1	9	-0.011509	-12.3252	-1.03492	-17.1003
 431	1	9	-0.199369	-11.8664	-1.88709	-18.1411
 432	1	9	-0.201771	-12.4477	-1.85399	-19.428
 433	1	9	0.15189	-13.517	-0.978337	-19.6254
 434	1	9	0.348083	-13.9974	-0.174436	-18.6167
 435	1	9	-0.230673	-13.4233	-0.173334	-17.3418
 436	1	10	0.174789	-11.043	-2.57131	-17.9474
 437	1	10	0.188672	-12.0936	-2.48592	-20.2376
 438	1	10	0.201012	-13.8139	0.478765	-16.5685
 439	1	11	-0.381547	-14.2279	-0.714595	-20.7535
 440	1	1	-0.706002	-14.9343	0.587858	-19.0985
 441	1	2	0.698504	-15.1219	0.238784	-20.3307
 442	1	12	0.214303	-6.23602	0.467755	-14.6354
 443	1	1	-0.261357	1.32305	-3.51886	-10.7625
 444	1	2	0.070556	0.0861585	-3.11458	-10.8021
 445	1	2	0.0266	-0.425875	-2.4131	-9.77844
 446	1	2	0.33777	2.11237	-3.27816	-9.74259
 447	1	1	-0.659679	1.63118	-2.5879	-8.74868
 448	1	2	0.428714	0.407063	-2.17077	-8.77992
 449	1	2	0.160826	-1.62523	-1.88752	-9.45609
 450	1	3	0.04557	-0.328588	-1.46616	-7.83122
 451	1	1	-0.463031	-1.62372	-1.33714	-8.2856
 452	1	4	-0.07905	-0.569887	-3.47359	-11.8761
 453	1	5	-0.061319	3.40893	-3.76999	-9.74297
 454	1	6	0.28436	0.0372516	-1.55648	-6.40645
 455	1	6	-0.21175	-0.396157	-2.90244	-5.782
 456	1	7	0.07562	0.0579714	-3.74161	-6.32399
 457	1	7	0.047171	-1.48665	-3.01828	-5.8223
 458	1	7	0.053131	-0.0790818	-2.96674	-4.73427
 459	1	6	-0.120715	-0.502936	-0.368703	-5.58146
 460	1	8	0.007856	1.13232	-1.50761	-6.34802
 461	1	7	0.031711	-1.60021	-0.361737	-5.57345
 462	1	7	0.04419	-0.157396	0.581793	-6.00655
 463	1	7	-0.003555	-0.151383	-0.423935	-4.54346
 464	1	9	-0.011509	-2.79294	-1.99205	-10.2198
 465	1	9	-0.199369	-3.88584	-2.7346	-9.69787
 466	1	9	-0.201771	-5.15243	-2.73094	-10.3268
 467	1	9	0.15189	-5.29193	-1.96426	-11.4872
 468	1	9	0.348083	-4.23607	-1.24452	-12.0088
 469	1	9	-0.230673	-2.97512	-1.22953	-11.3999
 470	1	10	0.174789	-3.75582	-3.27138	-8.75996
 471	1	10	0.188672	-6.00414	-3.25638	-9.90473
 472	1	10	0.201012	-2.1893	-0.597065	-11.7964
 473	1	11	-0.381547	-6.41082	-1.68112	-12.2158
 474	1	1	-0.706002	-4.66435	-0.53425	-13.01
 475	1	2	0.698504	-5.92835	-0.777184	-13.1317
 476	1	12	0.214303	3.63911	-4.30763	-10.5597
 477	1	1	-0.261357	6.96827	-4.91634	-1.07854
 478	1	2	0.070556	6.93193	-4.82765	-2.37762
 479	1	2	0.0266	7.78669	-4.01731	-3.02336
 480	1	2	0.33777	7.80924	-4.21688	-0.354033
 481	1	1	-0.659679	8.66037	-3.44625	-0.973213
 482	1	2	0.428714	8.64229	-3.36084	-2.26053
 483	1	2	0.160826	8.02259	-3.66457	-4.30238
 484	1	3	0.04557	9.4353	-2.61634	-3.1285
 485	1	1	-0.463031	8.9879	-2.81246	-4.41668
 486	1	4	-0.07905	6.02494	-5.57541	-2.95258
 487	1	5	-0.061319	7.83428	-4.31279	1.02794
 488	1	6	0.28436	10.1441	-1.41148	-2.66251
 489	1	6	-0.21175	9.2168	-0.175548	-2.62909
 490	1	7	0.07562	8.35138	-0.362197	-1.98081
 491	1	7	0.047171	8.84632	0.0622126	-3.63457
 492	1	7	0.053131	9.748	0.70166	-2.24025
 493	1	6	-0.120715	11.4157	-1.12003	-3.48773
 494	1	8	0.007856	10.4734	-1.6012	-1.6327
 495	1	7	0.031711	11.9484	-0.249331	-3.08579
 496	1	7	0.04419	11.1655	-0.916276	-4.53658
 497	1	7	-0.003555	12.1002	-1.9769	-3.45798
 498	1	9	-0.011509	7.30219	-4.11495	-5.40984
 499	1	9	-0.199369	7.91572	-5.02597	-6.30833
 500	1	9	-0.201771	7.30654	-5.36511	-7.53752
 501	1	9	0.15189	6.07915	-4.76389	-7.83327
 502	1	9	0.348083	5.46794	-3.88094	-6.96785
 503	1	9	-0.230673	6.05596	-3.52931	-5.74765
 504	1	10	0.174789	8.89933	-5.42394	-6.06806
 505	1	10	0.188672	7.78689	-6.02731	-8.25224
 506	1	10	0.201012	5.58889	-2.78005	-5.11896
 507	1	11	-0.381547	5.33442	-4.83014	-8.97005
 508	1	1	-0.706002	4.39226	-3.40992	-7.53053
 509	1	2	0.698504	4.30551	-3.96059	-8.69972
 510	1	12	0.214303	7.75437	-5.25313	1.38053
 511	1	1	-0.261357	12.281	-2.22508	8.43887
 512	1	2	0.070556	11.991	-2.13391	7.18115
 513	1	2	0.0266	12.8672	-1.59071	6.32205
 514	1	2	0.33777	13.4134	-1.78786	8.9272
 515	1	1	-0.659679	14.2947	-1.28126	8.10725
 516	1	2	0.428714	14.0167	-1.19408	6.84324
 517	1	2	0.160826	12.8672	-1.28207	5.01357
 518	1	3	0.04557	14.7297	-0.613694	5.79111
 519	1	1	-0.463031	13.9461	-0.667441	4.65798
 520	1	4	-0.07905	10.7849	-2.56699	6.91689
 521	1	5	-0.061319	13.6476	-1.78484	10.2873
 522	1	6	0.28436	15.6149	0.533341	6.06338
 523	1	6	-0.21175	14.8138	1.83414	6.31304
 524	1	7	0.07562	15.4838	2.66485	6.56452
 525	1	7	0.047171	14.1093	1.70488	7.1444
 526	1	7	0.053131	14.2384	2.11539	5.42146
 527	1	6	-0.120715	16.6602	0.75102	4.94801
 528	1	8	0.007856	16.1719	0.308411	6.981
 529	1	7	0.031711	17.3317	1.58074	5.20161
 530	1	7	0.04419	16.1732	0.984109	3.99259
 531	1	7	-0.003555	17.2714	-0.148846	4.80872
 532	1	9	-0.011509	11.7543	-1.46554	4.19566
 533	1	9	-0.199369	11.0963	-0.323911	3.66811
 534	1	9	-0.201771	9.96616	-0.450966	2.83136
 535	1	9	0.15189	9.52013	-1.74563	2.55842
 536	1	9	0.348083	10.1506	-2.86071	3.06994
 537	1	9	-0.230673	11.2898	-2.76073	3.86764
 538	1	10	0.174789	11.4782	0.665814	3.91081
 539	1	10	0.188672	9.45962	0.411731	2.40872
 540	1	10	0.201012	11.7822	-3.65876	4.22423
 541	1	11	-0.381547	8.50421	-2.1586	1.75789
 542	1	1	-0.706002	9.55748	-3.92733	2.63195
 543	1	2	0.698504	8.62796	-3.526	1.83544
 544	1	12	0.214303	14.6186	-1.7393	10.5469
 545	1	1	-0.261357	12.7498	3.57642	17.0977
 546	1	2	0.070556	12.2238	2.80203	16.2025
 547	1	2	0.0266	11.1077	2.10809	16.4783
 548	1	2	0.33777	12.2347	3.70564	18.2944
 549	1	1	-0.659679	11.1198	3.08677	18.57
 550	1	2	0.428714	10.5924	2.30674	17.6804
 551	1	2	0.160826	10.3292	1.22432	15.8229
 552	1	3	0.04557	9.44332	1.52175	17.7153
 553	1	1	-0.463031	9.31097	0.842681	16.5244
 554	1	4	-0.07905	12.8884	2.81283	15.075
 555	1	5	-0.061319	12.8765	4.452	19.2596
 556	1	6	0.28436	8.68621	1.27221	18.9554
 557	1	6	-0.21175	8.1032	-0.157431	19.0349
 558	1	7	0.07562	8.89568	-0.903304	18.8956
 559	1	7	0.047171	7.34657	-0.316017	18.2558
 560	1	7	0.053131	7.63498	-0.335194	20.0106
 561	1	6	-0.120715	7.57324	2.32133	19.1636
 562	1	8	0.007856	9.39079	1.37277	19.7909
 563	1	7	0.031711	7.05392	2.15471	20.1155
 564	1	7	0.04419	6.83415	2.27148	18.354
 565	1	7	-0.003555	7.99351	3.33492	19.1814
 566	1	9	-0.011509	10.617	0.768459	14.537
 567	1	9	-0.199369	9.68842	1.00873	13.4921
 568	1	9	-0.201771	9.93538	0.552734	12.179
 569	1	9	0.15189	11.1228	-0.150411	11.9616
 570	1	9	0.348083	12.0231	-0.412024	12.9718
 571	1	9	-0.230673	11.7956	0.0245744	14.2774
 572	1	10	0.174789	8.77108	1.55183	13.7126
 573	1	10	0.188672	9.23945	0.73271	11.3646
 574	1	10	0.201012	12.5194	-0.193429	15.0548
 575	1	11	-0.381547	11.6131	-0.680513	10.8156
 576	1	1	-0.706002	13.0403	-1.06604	12.4893
 577	1	2	0.698504	12.7943	-1.24734	11.2341
 578	1	12	0.214303	12.6423	5.42791	19.2318
 579	1	1	-0.261357	19.5266	1.6977	15.446
 580	1	2	0.070556	19.0931	2.23573	16.5409
 581	1	2	0.0266	19.7409	2.03261	17.7001
 582	1	2	0.33777	20.5968	0.945765	15.4153
 583	1	1	-0.659679	21.2511	0.744282	16.5265
 584	1	2	0.428714	20.824	1.27825	17.6284
 585	1	2	0.160826	19.5648	2.41589	18.9802
 586	1	3	0.04557	21.3087	1.23261	18.9365
 587	1	1	-0.463031	20.4842	1.95822	19.7657
 588	1	4	-0.07905	18.0167	2.95628	16.3503
 589	1	5	-0.061319	21.0353	0.324734	14.2642
 590	1	6	0.28436	22.4458	0.410533	19.3853
 591	1	6	-0.21175	23.7875	0.859248	18.7652
 592	1	7	0.07562	23.9612	1.92483	18.9598
 593	1	7	0.047171	23.7953	0.703311	17.6794
 594	1	7	0.053131	24.6226	0.294333	19.1971
 595	1	6	-0.120715	22.2155	-1.10437	19.1865
 596	1	8	0.007856	22.5326	0.572383	20.4676
 597	1	7	0.031711	22.1723	-1.36558	18.122
 598	1	7	0.04419	21.2726	-1.4145	19.6541
 599	1	7	-0.003555	23.0265	-1.68347	19.6459
 600	1	9	-0.011509	18.4687	3.19056	19.3436
 601	1	9	-0.199369	18.6145	4.58545	19.5552
 602	1	9	-0.201771	17.4852	5.40962	19.7667
 603	1	9	0.15189	16.2326	4.78686	19.7818
 604	1	9	0.348083	16.0965	3.42197	19.6308
 605	1	9	-0.230673	17.1906	2.59373	19.4043
 606	1	10	0.174789	19.6065	5.02889	19.499
 607	1	10	0.188672	17.5714	6.48787	19.8622
 608	1	10	0.201012	17.0393	1.53868	19.2051
 609	1	11	-0.381547	14.9875	5.33934	19.7845