pySIMM System Object

444 atoms
495 bonds
819 angles
1244 dihedrals
52 impropers

13 atom types
18 bond types
33 angle types
13 dihedral types
2 improper types

-114.763260 114.763260 xlo xhi
-114.763260 114.763260 ylo yhi
-114.763260 114.763260 zlo zhi

Masses

   1	14.01	# n2
   2	12.01	# c2
   3	14.01	# na
   4	12.01	# c1
   5	14.01	# nh
   6	12.01	# c3
   7	1.008	# hc
   8	1.008	# h1
   9	12.01	# ca
  10	1.008	# ha
  11	16.0	# os
  12	1.008	# hn
  13	1.008	# h5

Pair Coeffs

   1	0.17	3.249998523775958	# n2
   2	0.086	3.3996695084235347	# c2
   3	0.17	3.249998523775958	# na
   4	0.21	3.3996695084235347	# c1
   5	0.17	3.249998523775958	# nh
   6	0.1094	3.3996695084235347	# c3
   7	0.0157	2.649532787749369	# hc
   8	0.0157	2.471353044121301	# h1
   9	0.086	3.3996695084235347	# ca
  10	0.015	2.59964245953351	# ha
  11	0.17	3.0000123434657784	# os
  12	0.0157	1.069078461768407	# hn
  13	0.015	2.421462715905442	# h5

Bond Coeffs

   1	300.9	1.5375	# c3,c3
   2	416.2	1.3872	# c2,nh
   3	330.6	1.0969	# c3,hc
   4	397.4	1.4015	# c2,na
   5	345.8	1.086	# ca,ha
   6	625.0	1.307	# c1,c2
   7	330.6	1.0969	# c3,h1
   8	404.6	1.0121	# hn,nh
   9	376.6	1.3696	# ca,os
  10	505.3	1.3676	# n2,na
  11	327.7	1.4629	# c3,na
  12	338.4	1.0912	# c2,h5
  13	569.4	1.3343	# c2,c2
  14	551.6	1.303	# ca,n2
  15	389.2	1.3596	# c2,os
  16	594.1	1.2817	# c2,n2
  17	461.1	1.3984	# ca,ca
  18	482.1	1.3846	# c2,ca

Angle Coeffs

   1	39.4	107.58	# hc,c3,hc
   2	52.26	121.7	# h5,c2,n2
   3	70.06	121.62	# c1,c2,c2
   4	69.58	119.2	# ca,ca,os
   5	78.34	113.82	# n2,c2,n2
   6	70.52	117.58	# c2,n2,na
   7	46.39	109.56	# c3,c3,h1
   8	71.15	126.01	# c2,c2,n2
   9	62.86	111.51	# c3,c3,c3
  10	49.83	108.78	# h1,c3,na
  11	70.0	119.94	# c2,n2,ca
  12	65.52	112.88	# c3,c3,na
  13	69.36	117.0	# c2,c2,ca
  14	71.79	124.27	# n2,c2,nh
  15	46.34	109.8	# c3,c3,hc
  16	65.56	125.0	# c2,na,n2
  17	74.41	119.78	# n2,c2,os
  18	70.62	119.57	# ca,ca,n2
  19	48.18	119.88	# ca,ca,ha
  20	69.14	121.94	# c2,c2,na
  21	71.53	123.62	# n2,c2,na
  22	66.78	120.6	# c2,ca,ca
  23	69.3	121.81	# c2,c2,c2
  24	64.17	118.2	# c2,os,ca
  25	40.07	115.12	# hn,nh,hn
  26	48.59	115.09	# c2,nh,hn
  27	52.71	110.95	# h5,c2,os
  28	65.54	119.24	# c3,na,n2
  29	66.62	120.02	# ca,ca,ca
  30	71.11	118.18	# c2,n2,c2
  31	63.85	117.2	# c2,na,c3
  32	63.96	124.73	# c2,nh,c2
  33	73.36	114.3	# nh,c2,os

Dihedral Coeffs

   1	1	6.65	2	180	# X,c2,c2,X
   2	1	3.625	2	180	# X,ca,ca,X
   3	1	1.7	2	180	# X,n2,na,X
   4	1	0.7	2	180	# X,c2,ca,X
   5	1	0.15555555555555556	3	0	# X,c3,c3,X
   6	1	1.05	2	180	# X,c2,os,X
   7	1	0.0	3	180	# X,ca,n2,X
   8	1	4.15	2	180	# X,c2,n2,X
   9	1	0.9	2	180	# X,ca,os,X
  10	1	0.625	2	180	# X,c2,na,X
  11	1	0.0	2	0	# X,c3,na,X
  12	1	0.16	3	0	# hc,c3,c3,c3
  13	1	0.675	2	180	# X,c2,nh,X

Improper Coeffs

   1	1.1	-1	2	# ca,X,X,ha
   2	1.1	-1	2	# ca,ca,ca,c2

Atoms

   1	1	1	-0.261357	-1.41444	14.4092	6.46145
   2	1	2	0.070556	-0.795324	15.1326	7.34528
   3	1	2	0.0266	0.0279673	14.5528	8.23464
   4	1	2	0.33777	-1.26649	13.1081	6.40302
   5	1	1	-0.659679	-0.494411	12.5293	7.27572
   6	1	2	0.428714	0.139049	13.237	8.15356
   7	1	2	0.160826	0.830546	14.9695	9.22941
   8	1	3	0.04557	1.06018	12.8593	9.14092
   9	1	1	-0.463031	1.45126	13.9979	9.81017
  10	1	4	-0.07905	-1.06284	16.4123	7.27325
  11	1	5	-0.061319	-1.83329	12.3214	5.42396
  12	1	6	0.28436	2.0664	11.803	8.88751
  13	1	6	-0.21175	3.2456	12.3143	8.02425
  14	1	7	0.07562	3.731	13.1743	8.50332
  15	1	7	0.047171	2.8986	12.629	7.03184
  16	1	7	0.053131	4.0029	11.532	7.89318
  17	1	6	-0.120715	1.51299	10.4798	8.30844
  18	1	8	0.007856	2.48031	11.5523	9.87253
  19	1	7	0.031711	1.31267	10.5682	7.23292
  20	1	7	0.04419	0.582127	10.1903	8.81142
  21	1	7	-0.003555	2.23922	9.66871	8.4437
  22	1	9	-0.011509	1.12609	16.2989	9.52436
  23	1	9	-0.199369	1.80906	17.0906	8.56077
  24	1	9	-0.201771	2.31441	18.3675	8.88898
  25	1	9	0.15189	2.11687	18.8166	10.1961
  26	1	9	0.348083	1.45173	18.0579	11.1404
  27	1	9	-0.230673	0.952661	16.7892	10.8385
  28	1	10	0.174789	1.98927	16.6838	7.56853
  29	1	10	0.188672	2.87183	18.9663	8.17387
  30	1	10	0.201012	0.49927	16.1842	11.6166
  31	1	11	-0.381547	2.56628	19.9507	10.7966
  32	1	1	-0.706002	1.47434	18.6719	12.2838
  33	1	2	0.698504	2.12599	19.7687	12.084
  34	1	12	0.214303	-1.92565	11.3761	5.75262
  35	1	1	-0.261357	-0.562877	15.3041	-2.44797
  36	1	2	0.070556	-0.0698495	14.3291	-1.75363
  37	1	2	0.0266	1.15752	14.4407	-1.23011
  38	1	2	0.33777	0.084313	16.4278	-2.62861
  39	1	1	-0.659679	1.31004	16.5227	-2.19419
  40	1	2	0.428714	1.82788	15.5329	-1.54042
  41	1	2	0.160826	1.88144	13.7282	-0.349478
  42	1	3	0.04557	3.0352	15.413	-0.864929
  43	1	1	-0.463031	3.03473	14.2624	-0.105518
  44	1	4	-0.07905	-0.835896	13.2731	-1.65997
  45	1	5	-0.061319	-0.510322	17.5453	-3.17649
  46	1	6	0.28436	4.1713	16.3105	-1.12631
  47	1	6	-0.21175	4.95828	15.8907	-2.38659
  48	1	7	0.07562	5.42842	14.9098	-2.24262
  49	1	7	0.047171	5.74292	16.6221	-2.61622
  50	1	7	0.053131	4.29143	15.8264	-3.25605
  51	1	6	-0.120715	5.111	16.4611	0.0888297
  52	1	8	0.007856	3.75089	17.3051	-1.3229
  53	1	7	0.031711	5.62536	15.5169	0.307931
  54	1	7	0.04419	4.54219	16.7553	0.979811
  55	1	7	-0.003555	5.86892	17.2317	-0.10004
  56	1	9	-0.011509	1.20615	12.9259	0.567364
  57	1	9	-0.199369	1.38091	11.523	0.685991
  58	1	9	-0.201771	0.719176	10.8019	1.71308
  59	1	9	0.15189	-0.0945419	11.5278	2.59462
  60	1	9	0.348083	-0.28259	12.8833	2.45757
  61	1	9	-0.230673	0.356592	13.6088	1.46755
  62	1	10	0.174789	2.05021	11.0063	0.000928412
  63	1	10	0.188672	0.845913	9.72895	1.83799
  64	1	10	0.201012	0.220776	14.6834	1.42611
  65	1	11	-0.381547	-0.791418	11.1278	3.69415
  66	1	1	-0.706002	-1.03174	13.3304	3.41348
  67	1	2	0.698504	-1.33331	12.3113	4.14175
  68	1	12	0.214303	0.0885417	18.3443	-3.06913
  69	1	1	-0.261357	2.06129	11.4456	-6.61027
  70	1	2	0.070556	1.39294	12.5388	-6.80567
  71	1	2	0.0266	0.495395	12.6103	-7.80429
  72	1	2	0.33777	1.88428	10.3853	-7.35432
  73	1	1	-0.659679	1.01213	10.4315	-8.32358
  74	1	2	0.428714	0.343886	11.5195	-8.53248
  75	1	2	0.160826	-0.331046	13.5542	-8.28723
  76	1	3	0.04557	-0.628243	11.8434	-9.48362
  77	1	1	-0.463031	-1.0169	13.15	-9.30254
  78	1	4	-0.07905	1.70277	13.4889	-5.95982
  79	1	5	-0.061319	2.63067	9.25502	-7.12522
  80	1	6	0.28436	-0.768565	11.1512	-10.7758
  81	1	6	-0.21175	-1.61529	9.86657	-10.6657
  82	1	7	0.07562	-1.77525	9.42509	-11.6569
  83	1	7	0.047171	-2.59813	10.0924	-10.2331
  84	1	7	0.053131	-1.12134	9.1217	-10.0291
  85	1	6	-0.120715	0.57505	10.8856	-11.4937
  86	1	8	0.007856	-1.32882	11.8374	-11.4243
  87	1	7	0.031711	1.14575	10.0911	-10.9974
  88	1	7	0.04419	1.19073	11.7938	-11.508
  89	1	7	-0.003555	0.402545	10.5776	-12.5322
  90	1	9	-0.011509	-0.394668	14.8161	-7.72062
  91	1	9	-0.199369	0.552361	15.8069	-8.08067
  92	1	9	-0.201771	0.607217	17.0311	-7.38447
  93	1	9	0.15189	-0.336556	17.2345	-6.3764
  94	1	9	0.348083	-1.29622	16.2928	-6.05996
  95	1	9	-0.230673	-1.3316	15.0579	-6.69689
  96	1	10	0.174789	1.29649	15.5835	-8.84181
  97	1	10	0.188672	1.40261	17.7517	-7.55168
  98	1	10	0.201012	-1.99733	14.2803	-6.3378
  99	1	11	-0.381547	-0.258154	18.1097	-5.347
 100	1	1	-0.706002	-1.77204	16.5521	-4.88538
 101	1	2	0.698504	-1.09113	17.5432	-4.41999
 102	1	12	0.214303	3.47083	9.40142	-6.59569
 103	1	1	-0.261357	5.40718	3.34584	-4.2438
 104	1	2	0.070556	5.14469	3.66567	-5.46793
 105	1	2	0.0266	4.73125	2.73393	-6.34275
 106	1	2	0.33777	5.2671	2.12211	-3.80298
 107	1	1	-0.659679	4.95545	1.181	-4.65238
 108	1	2	0.428714	4.69534	1.49541	-5.88345
 109	1	2	0.160826	4.29176	2.73882	-7.61756
 110	1	3	0.04557	4.23092	0.73156	-6.95049
 111	1	1	-0.463031	4.00344	1.55057	-8.038
 112	1	4	-0.07905	5.31819	4.94829	-5.67439
 113	1	5	-0.061319	5.17365	1.86335	-2.45113
 114	1	6	0.28436	4.44215	-0.724651	-7.01202
 115	1	6	-0.21175	5.55753	-1.10712	-8.00938
 116	1	7	0.07562	6.49726	-0.609578	-7.73945
 117	1	7	0.047171	5.29187	-0.804259	-9.03022
 118	1	7	0.053131	5.73209	-2.18976	-8.00471
 119	1	6	-0.120715	3.13678	-1.4899	-7.31562
 120	1	8	0.007856	4.7769	-1.05616	-6.02108
 121	1	7	0.031711	3.32118	-2.57031	-7.36545
 122	1	7	0.04419	2.70672	-1.16844	-8.27261
 123	1	7	-0.003555	2.39389	-1.31131	-6.5278
 124	1	9	-0.011509	4.04819	3.96777	-8.22139
 125	1	9	-0.199369	4.9757	4.54868	-9.12294
 126	1	9	-0.201771	4.88486	5.92	-9.45928
 127	1	9	0.15189	3.83809	6.65374	-8.88798
 128	1	9	0.348083	2.88574	6.06538	-8.08384
 129	1	9	-0.230673	2.96094	4.72458	-7.73159
 130	1	10	0.174789	5.81885	3.95827	-9.47503
 131	1	10	0.188672	5.64562	6.41429	-10.0569
 132	1	10	0.201012	2.28425	4.33199	-6.97917
 133	1	11	-0.381547	3.69477	8.00205	-8.7767
 134	1	1	-0.706002	2.20005	6.98403	-7.48279
 135	1	2	0.698504	2.63883	8.12077	-7.90097
 136	1	12	0.214303	5.07839	0.872203	-2.31924
 137	1	1	-0.261357	-3.59755	4.05223	-1.1604
 138	1	2	0.070556	-2.33343	4.24525	-1.37844
 139	1	2	0.0266	-1.92054	4.69183	-2.57495
 140	1	2	0.33777	-4.50074	4.28366	-2.07855
 141	1	1	-0.659679	-4.11828	4.71781	-3.24536
 142	1	2	0.428714	-2.86251	4.94304	-3.46842
 143	1	2	0.160826	-0.733847	4.96203	-3.14117
 144	1	3	0.04557	-2.20294	5.40501	-4.61506
 145	1	1	-0.463031	-0.85002	5.39957	-4.34881
 146	1	4	-0.07905	-1.566	3.96499	-0.355816
 147	1	5	-0.061319	-5.80244	3.87654	-1.91706
 148	1	6	0.28436	-2.81927	6.43171	-5.49041
 149	1	6	-0.21175	-4.09056	5.94282	-6.22575
 150	1	7	0.07562	-4.90006	5.73057	-5.51817
 151	1	7	0.047171	-3.88644	5.03283	-6.80288
 152	1	7	0.053131	-4.46137	6.71213	-6.91446
 153	1	6	-0.120715	-1.82655	7.01603	-6.52802
 154	1	8	0.007856	-3.12168	7.26166	-4.8387
 155	1	7	0.031711	-2.31599	7.75927	-7.1691
 156	1	7	0.04419	-1.42091	6.22298	-7.16942
 157	1	7	-0.003555	-0.985157	7.51655	-6.03193
 158	1	9	-0.011509	0.493789	4.75834	-2.51897
 159	1	9	-0.199369	1.3679	5.85838	-2.33329
 160	1	9	-0.201771	2.70136	5.66446	-1.91418
 161	1	9	0.15189	3.11033	4.35158	-1.66487
 162	1	9	0.348083	2.2584	3.27662	-1.81354
 163	1	9	-0.230673	0.951522	3.44401	-2.26931
 164	1	10	0.174789	1.02636	6.85485	-2.60723
 165	1	10	0.188672	3.41312	6.48373	-1.87513
 166	1	10	0.201012	0.34836	2.57588	-2.50986
 167	1	11	-0.381547	4.37421	3.86905	-1.55163
 168	1	1	-0.706002	2.95259	2.17922	-1.81449
 169	1	2	0.698504	4.19564	2.51657	-1.72722
 170	1	12	0.214303	-6.1576	3.39583	-2.72325
 171	1	1	-0.261357	-11.7264	10.8718	0.225642
 172	1	2	0.070556	-11.1678	9.70261	0.221584
 173	1	2	0.0266	-10.8521	9.11187	1.38226
 174	1	2	0.33777	-11.9883	11.5178	1.33506
 175	1	1	-0.659679	-11.7446	10.933	2.47742
 176	1	2	0.428714	-11.1812	9.76593	2.48377
 177	1	2	0.160826	-10.2629	7.96251	1.74481
 178	1	3	0.04557	-10.7715	8.94757	3.54204
 179	1	1	-0.463031	-10.1898	7.81334	3.02244
 180	1	4	-0.07905	-10.9452	9.20979	-0.970539
 181	1	5	-0.061319	-12.3999	12.8351	1.33266
 182	1	6	0.28436	-11.5042	8.94058	4.82211
 183	1	6	-0.21175	-10.6642	9.55608	5.95943
 184	1	7	0.07562	-9.72624	9.00121	6.08982
 185	1	7	0.047171	-11.2145	9.53285	6.90805
 186	1	7	0.053131	-10.4173	10.6006	5.73251
 187	1	6	-0.120715	-12.0059	7.53099	5.22462
 188	1	8	0.007856	-12.3968	9.56647	4.69705
 189	1	7	0.031711	-12.5645	7.06833	4.40066
 190	1	7	0.04419	-12.6712	7.58584	6.09416
 191	1	7	-0.003555	-11.1672	6.86941	5.47915
 192	1	9	-0.011509	-9.80139	7.00027	0.857959
 193	1	9	-0.199369	-10.6018	5.85821	0.600771
 194	1	9	-0.201771	-10.0975	4.77155	-0.143964
 195	1	9	0.15189	-8.78235	4.87443	-0.603461
 196	1	9	0.348083	-7.99653	5.98252	-0.355093
 197	1	9	-0.230673	-8.47759	7.07097	0.369449
 198	1	10	0.174789	-11.5986	5.80026	1.03333
 199	1	10	0.188672	-10.678	3.86869	-0.310334
 200	1	10	0.201012	-7.82442	7.90572	0.600504
 201	1	11	-0.381547	-8.01971	3.94685	-1.23381
 202	1	1	-0.706002	-6.79252	5.7662	-0.791143
 203	1	2	0.698504	-6.79868	4.56891	-1.27328
 204	1	12	0.214303	-12.7556	13.0993	2.23447
 205	1	1	-0.261357	-4.91991	11.9047	0.649234
 206	1	2	0.070556	-5.83294	12.8126	0.551908
 207	1	2	0.0266	-5.51147	14.0714	0.214434
 208	1	2	0.33777	-3.65484	12.1681	0.466412
 209	1	1	-0.659679	-3.30906	13.387	0.150846
 210	1	2	0.428714	-4.22418	14.2994	0.01655
 211	1	2	0.160826	-6.1787	15.2336	0.0583069
 212	1	3	0.04557	-4.14118	15.662	-0.279626
 213	1	1	-0.463031	-5.39532	16.2231	-0.20756
 214	1	4	-0.07905	-7.00134	12.3115	0.858504
 215	1	5	-0.061319	-2.70828	11.1756	0.616688
 216	1	6	0.28436	-2.89946	16.4392	-0.159514
 217	1	6	-0.21175	-2.53313	16.7708	1.30228
 218	1	7	0.07562	-3.31507	17.3835	1.76794
 219	1	7	0.047171	-1.5868	17.324	1.34878
 220	1	7	0.053131	-2.41744	15.8522	1.89159
 221	1	6	-0.120715	-2.95604	17.7343	-1.00336
 222	1	8	0.007856	-2.0941	15.817	-0.55299
 223	1	7	0.031711	-3.17633	17.4992	-2.0525
 224	1	7	0.04419	-2.00371	18.2742	-0.958458
 225	1	7	-0.003555	-3.7402	18.4106	-0.639013
 226	1	9	-0.011509	-7.53577	15.3641	0.327668
 227	1	9	-0.199369	-7.93307	16.2098	1.39384
 228	1	9	-0.201771	-9.25869	16.1988	1.87496
 229	1	9	0.15189	-10.1616	15.3481	1.23143
 230	1	9	0.348083	-9.80397	14.6056	0.123767
 231	1	9	-0.230673	-8.49915	14.5931	-0.359281
 232	1	10	0.174789	-7.17752	16.8064	1.90213
 233	1	10	0.188672	-9.54602	16.7512	2.76436
 234	1	10	0.201012	-8.22241	13.8967	-1.1437
 235	1	11	-0.381547	-11.3616	14.8875	1.67828
 236	1	1	-0.706002	-10.7192	13.7207	-0.107031
 237	1	2	0.698504	-11.6075	13.8431	0.820511
 238	1	12	0.214303	-1.77875	11.3911	0.299763
 239	1	1	-0.261357	-2.64822	2.46528	2.8161
 240	1	2	0.070556	-2.78125	3.71823	3.12299
 241	1	2	0.0266	-2.07415	4.23874	4.13727
 242	1	2	0.33777	-1.81867	1.67953	3.45291
 243	1	1	-0.659679	-1.13386	2.16823	4.45285
 244	1	2	0.428714	-1.2699	3.41105	4.77984
 245	1	2	0.160826	-1.94253	5.4518	4.69473
 246	1	3	0.04557	-0.653631	4.17226	5.77784
 247	1	1	-0.463031	-1.10893	5.46883	5.67732
 248	1	4	-0.07905	-3.65899	4.35735	2.39081
 249	1	5	-0.061319	-1.73062	0.348539	3.10227
 250	1	6	0.28436	0.732065	3.88467	6.18948
 251	1	6	-0.21175	1.07895	4.54698	7.54383
 252	1	7	0.07562	0.354693	4.25041	8.31255
 253	1	7	0.047171	1.06104	5.64163	7.46301
 254	1	7	0.053131	2.07696	4.24374	7.88297
 255	1	6	-0.120715	1.75597	4.29265	5.09966
 256	1	8	0.007856	0.817652	2.8006	6.33825
 257	1	7	0.031711	2.71865	4.58314	5.53832
 258	1	7	0.04419	1.39095	5.14269	4.50816
 259	1	7	-0.003555	1.93684	3.45723	4.41197
 260	1	9	-0.011509	-2.50428	6.59983	4.15584
 261	1	9	-0.199369	-3.48834	7.32224	4.87525
 262	1	9	-0.201771	-3.97053	8.55689	4.39119
 263	1	9	0.15189	-3.4249	9.02417	3.19251
 264	1	9	0.348083	-2.46858	8.32633	2.48628
 265	1	9	-0.230673	-1.98101	7.1073	2.94421
 266	1	10	0.174789	-3.85365	6.92779	5.82165
 267	1	10	0.188672	-4.71862	9.13498	4.92587
 268	1	10	0.201012	-1.20404	6.58927	2.39337
 269	1	11	-0.381547	-3.6482	10.1904	2.54758
 270	1	1	-0.706002	-2.09829	9.01301	1.44568
 271	1	2	0.698504	-2.81938	10.0838	1.45463
 272	1	12	0.214303	-2.59561	-0.00358776	2.73318
 273	1	1	-0.261357	2.66416	-6.69824	8.53242
 274	1	2	0.070556	2.03605	-5.75618	7.8998
 275	1	2	0.0266	1.1022	-5.02412	8.53111
 276	1	2	0.33777	2.41426	-6.96881	9.78843
 277	1	1	-0.659679	1.49056	-6.29403	10.4089
 278	1	2	0.428714	0.848529	-5.36289	9.78366
 279	1	2	0.160826	0.328318	-3.96671	8.22803
 280	1	3	0.04557	-0.149255	-4.48658	10.2151
 281	1	1	-0.463031	-0.43356	-3.59895	9.20538
 282	1	4	-0.07905	2.4123	-5.63142	6.65252
 283	1	5	-0.061319	3.1968	-7.81209	10.5366
 284	1	6	0.28436	-0.439773	-4.21654	11.6343
 285	1	6	-0.21175	0.808225	-3.80479	12.4497
 286	1	7	0.07562	0.520666	-3.47406	13.4547
 287	1	7	0.047171	1.3334	-2.97693	11.9569
 288	1	7	0.053131	1.51011	-4.64068	12.5574
 289	1	6	-0.120715	-1.2011	-5.3746	12.3148
 290	1	8	0.007856	-1.11577	-3.35179	11.6468
 291	1	7	0.031711	-2.11227	-5.61696	11.7534
 292	1	7	0.04419	-1.49673	-5.09687	13.3339
 293	1	7	-0.003555	-0.584153	-6.27989	12.3727
 294	1	9	-0.011509	0.42549	-3.23083	7.05031
 295	1	9	-0.199369	1.65291	-2.60842	6.69624
 296	1	9	-0.201771	1.72638	-1.70128	5.6179
 297	1	9	0.15189	0.54369	-1.44445	4.9215
 298	1	9	0.348083	-0.651591	-2.05091	5.25246
 299	1	9	-0.230673	-0.748927	-2.93485	6.32385
 300	1	10	0.174789	2.54039	-2.79049	7.29888
 301	1	10	0.188672	2.6429	-1.17464	5.36835
 302	1	10	0.201012	-1.71605	-3.32012	6.62723
 303	1	11	-0.381547	0.295447	-0.504248	3.97658
 304	1	1	-0.706002	-1.61411	-1.52821	4.55619
 305	1	2	0.698504	-1.0699	-0.591719	3.85654
 306	1	12	0.214303	3.1105	-7.64651	11.5235
 307	1	1	-0.261357	6.94697	-16.3269	9.40688
 308	1	2	0.070556	6.16991	-15.3402	9.70961
 309	1	2	0.0266	5.17901	-15.5141	10.5989
 310	1	2	0.33777	6.79659	-17.5108	9.93948
 311	1	1	-0.659679	5.90243	-17.6801	10.8762
 312	1	2	0.428714	5.11085	-16.6993	11.182
 313	1	2	0.160826	4.16755	-14.7546	11.0479
 314	1	3	0.04557	4.0059	-16.6071	12.0408
 315	1	1	-0.463031	3.43182	-15.3633	11.9169
 316	1	4	-0.07905	6.44968	-14.2502	9.04183
 317	1	5	-0.061319	7.35472	-18.6095	9.33171
 318	1	6	0.28436	3.371	-17.71	12.7914
 319	1	6	-0.21175	3.82553	-17.7351	14.2657
 320	1	7	0.07562	3.25398	-18.4789	14.8344
 321	1	7	0.047171	3.66168	-16.7554	14.7327
 322	1	7	0.053131	4.89179	-17.9802	14.3444
 323	1	6	-0.120715	3.4779	-19.1147	12.1539
 324	1	8	0.007856	2.2989	-17.4739	12.8053
 325	1	7	0.031711	4.50365	-19.4997	12.2
 326	1	7	0.04419	3.16118	-19.0896	11.1036
 327	1	7	-0.003555	2.8324	-19.8265	12.6838
 328	1	9	-0.011509	3.90377	-13.5078	10.4997
 329	1	9	-0.199369	3.32424	-13.4183	9.20588
 330	1	9	-0.201771	3.01725	-12.1665	8.63049
 331	1	9	0.15189	3.31084	-11.0322	9.39073
 332	1	9	0.348083	3.87743	-11.119	10.6468
 333	1	9	-0.230673	4.17807	-12.3409	11.2399
 334	1	10	0.174789	3.10601	-14.3317	8.65537
 335	1	10	0.188672	2.55732	-12.0789	7.64988
 336	1	10	0.201012	4.58922	-12.3816	12.2419
 337	1	11	-0.381547	3.05789	-9.72327	9.12948
 338	1	1	-0.706002	3.97226	-9.93475	11.1629
 339	1	2	0.698504	3.51175	-9.12098	10.2773
 340	1	12	0.214303	7.22295	-19.4265	9.90007
 341	1	1	-0.261357	3.97151	-22.3641	1.82372
 342	1	2	0.070556	4.52762	-21.4208	2.51574
 343	1	2	0.0266	4.19358	-20.1345	2.30859
 344	1	2	0.33777	3.0659	-22.1101	0.917051
 345	1	1	-0.659679	2.70212	-20.871	0.715082
 346	1	2	0.428714	3.27084	-19.9199	1.38795
 347	1	2	0.160826	4.56124	-18.9513	2.83485
 348	1	3	0.04557	3.09557	-18.5347	1.36618
 349	1	1	-0.463031	3.91418	-17.9589	2.31444
 350	1	4	-0.07905	5.38575	-21.8843	3.38817
 351	1	5	-0.061319	2.47585	-23.1178	0.190243
 352	1	6	0.28436	1.9353	-17.8873	0.72018
 353	1	6	-0.21175	2.296	-17.2844	-0.655305
 354	1	7	0.07562	2.74391	-18.0458	-1.30595
 355	1	7	0.047171	3.01311	-16.4608	-0.545482
 356	1	7	0.053131	1.40044	-16.8952	-1.15574
 357	1	6	-0.120715	1.25638	-16.8196	1.6099
 358	1	8	0.007856	1.18567	-18.6687	0.542694
 359	1	7	0.031711	1.01845	-17.2324	2.59815
 360	1	7	0.04419	0.320906	-16.4731	1.15368
 361	1	7	-0.003555	1.9085	-15.9478	1.75102
 362	1	9	-0.011509	5.50007	-18.8992	3.85982
 363	1	9	-0.199369	6.8826	-19.0525	3.57602
 364	1	9	-0.201771	7.83854	-19.1038	4.61606
 365	1	9	0.15189	7.36358	-18.9944	5.92661
 366	1	9	0.348083	6.02183	-18.8325	6.20223
 367	1	9	-0.230673	5.06205	-18.7653	5.1952
 368	1	10	0.174789	7.20446	-19.1575	2.54183
 369	1	10	0.188672	8.89806	-19.2366	4.41772
 370	1	10	0.201012	4.01465	-18.6372	5.4441
 371	1	11	-0.381547	8.042	-19.0201	7.10751
 372	1	1	-0.706002	5.85138	-18.7639	7.48466
 373	1	2	0.698504	7.02398	-18.8685	8.01653
 374	1	12	0.214303	1.5433	-22.8234	-0.0403158
 375	1	1	-0.261357	2.92369	-23.0307	-8.44361
 376	1	2	0.070556	3.58963	-23.5605	-7.47022
 377	1	2	0.0266	4.69603	-22.9586	-7.01422
 378	1	2	0.33777	3.2624	-21.8857	-8.97488
 379	1	1	-0.659679	4.33806	-21.2818	-8.54258
 380	1	2	0.428714	5.04241	-21.8213	-7.59398
 381	1	2	0.160826	5.52961	-23.1756	-5.98916
 382	1	3	0.04557	6.12822	-21.3266	-6.84668
 383	1	1	-0.463031	6.42193	-22.2554	-5.86986
 384	1	4	-0.07905	3.09515	-24.6907	-7.0291
 385	1	5	-0.061319	2.53358	-21.4224	-10.045
 386	1	6	0.28436	6.09911	-19.9202	-6.38862
 387	1	6	-0.21175	4.80434	-19.5659	-5.61236
 388	1	7	0.07562	4.86521	-18.5547	-5.19381
 389	1	7	0.047171	4.65312	-20.262	-4.77759
 390	1	7	0.053131	3.9213	-19.6137	-6.26188
 391	1	6	-0.120715	6.39623	-18.8795	-7.48693
 392	1	8	0.007856	6.91837	-19.8266	-5.66321
 393	1	7	0.031711	6.4753	-17.8774	-7.04657
 394	1	7	0.04419	5.60297	-18.8567	-8.24339
 395	1	7	-0.003555	7.34795	-19.1037	-7.98415
 396	1	9	-0.011509	5.0936	-23.8361	-4.84622
 397	1	9	-0.199369	5.83902	-24.844	-4.1814
 398	1	9	-0.201771	5.4975	-25.235	-2.86039
 399	1	9	0.15189	4.40498	-24.5941	-2.25486
 400	1	9	0.348083	3.64929	-23.6644	-2.93503
 401	1	9	-0.230673	3.97844	-23.2512	-4.21104
 402	1	10	0.174789	6.72929	-25.2509	-4.65708
 403	1	10	0.188672	6.10337	-25.9421	-2.30105
 404	1	10	0.201012	3.44175	-22.4166	-4.6472
 405	1	11	-0.381547	4.0087	-24.5623	-0.947483
 406	1	1	-0.706002	2.81218	-23.0885	-2.13675
 407	1	2	0.698504	3.05427	-23.568	-0.970602
 408	1	12	0.214303	1.99661	-22.1242	-10.5221
 409	1	1	-0.261357	-5.04162	-18.622	-12.2289
 410	1	2	0.070556	-3.81498	-18.2827	-11.9621
 411	1	2	0.0266	-3.15314	-17.4444	-12.7701
 412	1	2	0.33777	-5.66128	-18.1788	-13.287
 413	1	1	-0.659679	-5.03852	-17.3571	-14.0871
 414	1	2	0.428714	-3.81755	-17.0015	-13.8252
 415	1	2	0.160826	-1.90359	-16.9346	-12.8106
 416	1	3	0.04557	-2.91936	-16.179	-14.5144
 417	1	1	-0.463031	-1.71131	-16.1923	-13.8478
 418	1	4	-0.07905	-3.36224	-18.8593	-10.8778
 419	1	5	-0.061319	-6.94533	-18.6085	-13.5749
 420	1	6	0.28436	-2.99901	-15.9098	-15.9664
 421	1	6	-0.21175	-4.39481	-15.484	-16.4787
 422	1	7	0.07562	-5.07351	-16.3439	-16.5418
 423	1	7	0.047171	-4.31916	-15.0444	-17.4808
 424	1	7	0.053131	-4.84461	-14.7385	-15.8116
 425	1	6	-0.120715	-2.43813	-17.0716	-16.8179
 426	1	8	0.007856	-2.34001	-15.0492	-16.1395
 427	1	7	0.031711	-3.0504	-17.975	-16.7044
 428	1	7	0.04419	-1.41183	-17.3128	-16.5134
 429	1	7	-0.003555	-2.41734	-16.8005	-17.8813
 430	1	9	-0.011509	-0.923417	-17.3531	-11.9132
 431	1	9	-0.199369	-0.866047	-16.8722	-10.5784
 432	1	9	-0.201771	0.0402195	-17.4315	-9.64296
 433	1	9	0.15189	0.892791	-18.4473	-10.0991
 434	1	9	0.348083	0.874752	-18.8658	-11.411
 435	1	9	-0.230673	-0.0249698	-18.3535	-12.3387
 436	1	10	0.174789	-1.57011	-16.1063	-10.2584
 437	1	10	0.188672	0.0474597	-17.1265	-8.60047
 438	1	10	0.201012	-0.064754	-18.7642	-13.3407
 439	1	11	-0.381547	1.72716	-19.2807	-9.40933
 440	1	1	-0.706002	1.63148	-19.9086	-11.5435
 441	1	2	0.698504	2.16405	-20.1437	-10.3946
 442	1	12	0.214303	-7.46405	-18.9703	-12.789
 443	1	13	0	2.3645	20.5511	12.8066
 444	1	12	0	-7.45562	-18.0936	-14.28

Velocities

   1	0.000735317	-0.000647228	-0.000108843
   2	0.000935187	-0.000927212	-0.000658485
   3	0.000898133	-0.000496776	-0.00043646
   4	0.000144181	-0.00108196	0.000194827
   5	0.000181998	-0.0006317	0.000731542
   6	0.000260349	-0.00073743	-6.04787e-05
   7	0.00100171	8.97188e-05	-0.000900064
   8	0.000408524	-0.000369293	0.000350881
   9	0.000819489	-0.000613274	-0.00023354
  10	0.00116139	-0.000473774	-0.00125885
  11	0.000380506	-0.000857734	0.000479936
  12	8.02177e-05	-0.000865141	0.000461989
  13	-0.00014176	-0.0013849	-0.000123938
  14	-0.000123963	-0.00106002	-0.000901582
  15	-0.000349533	-0.00226668	-0.000362779
  16	-0.000116529	-0.00149672	0.000356079
  17	-0.000203277	-0.00112112	0.00142873
  18	0.000438083	-0.000365697	0.000515803
  19	-0.00304314	-0.00119713	0.00195418
  20	0.00139901	-0.00222653	0.0038321
  21	0.000898501	-0.000544744	-0.000722141
  22	0.000288308	-0.000433699	7.47837e-05
  23	0.000140931	0.000618341	-0.00125824
  24	-0.001408	0.000831402	-0.000250121
  25	-0.00150154	0.000328694	-0.000808625
  26	-0.000761689	0.000137004	0.000467262
  27	0.00040564	-0.000899874	-0.00138661
  28	0.000100209	0.000961434	-0.000542991
  29	-0.00186536	0.00165177	-0.000391464
  30	0.000962714	-0.00150336	-0.000529688
  31	-0.00225373	0.000532264	-0.000181392
  32	-0.000490392	-0.000486971	-0.000623242
  33	-0.00155326	-4.57683e-06	-5.74015e-05
  34	0.000494632	-0.00109372	0.000252726
  35	0.000408441	0.0021609	0.000517728
  36	-7.84985e-05	0.00203345	0.000950469
  37	-5.33556e-05	0.00151794	0.000773498
  38	0.00106467	0.00154035	-0.000123255
  39	0.00106507	0.00116959	1.93013e-06
  40	0.000513413	0.00114939	0.000498064
  41	-5.13411e-05	0.00125458	0.000634571
  42	0.000488819	0.000657308	0.000362662
  43	0.000131268	0.000640466	0.000391806
  44	-0.000655308	0.00251963	0.00129252
  45	0.0019293	0.00146094	-0.001473
  46	0.000828354	0.000118326	0.000339651
  47	0.000686755	-0.000390937	0.000486566
  48	-0.00041897	-0.000958488	0.000410463
  49	0.00156056	-0.00121573	0.000833326
  50	0.000806961	0.000505134	0.000348723
  51	0.000797282	-0.000306281	0.000482169
  52	0.00138202	0.000350801	0.000314622
  53	-0.000128829	-0.000738471	0.00091203
  54	0.000938455	0.00052227	0.00029692
  55	0.00159156	-0.0011096	0.000375599
  56	0.000134849	0.00075142	0.000425003
  57	0.000393862	0.000892875	0.000118386
  58	0.000631297	0.000434591	-2.16736e-06
  59	0.000529504	6.65707e-05	0.000207972
  60	0.000496515	6.32743e-05	0.000538012
  61	0.000100856	0.000485364	0.000795694
  62	0.000395406	0.00118852	-9.98333e-05
  63	0.000834044	0.000465011	-0.000307859
  64	0.000201581	0.000442519	0.00123941
  65	0.000480075	-0.000329796	5.34269e-05
  66	0.000267477	-0.000331971	0.000785855
  67	0.000289694	-0.000585627	0.000222294
  68	0.00246365	0.0012327	-0.00218461
  69	-0.000914101	0.000134337	-0.000847317
  70	-0.00100938	0.000335696	-0.000564441
  71	-0.000982597	-9.58287e-05	-0.00139622
  72	-0.000392333	0.000374934	-0.00105692
  73	-0.000133239	0.000198996	-0.00132545
  74	-0.000312263	0.000431531	-0.00108563
  75	-0.000655774	0.000184611	-0.00125354
  76	8.72283e-05	9.72224e-05	-0.00163229
  77	-0.000240541	-1.51667e-05	-0.00192309
  78	-0.0017085	3.57499e-06	-0.000656838
  79	-0.000254879	0.000286784	-0.00134527
  80	2.36729e-05	-0.000768634	-0.00102019
  81	0.000824711	-0.0012193	0.00046103
  82	0.000510983	-0.00227088	0.000991205
  83	0.000987745	-0.00145317	0.000895499
  84	0.00166488	-0.000367551	0.000887272
  85	-7.57354e-06	-0.00058468	-0.00124487
  86	-0.000653365	-0.00167357	-0.00144544
  87	0.000711977	0.000211289	-0.000793648
  88	-0.000601823	-0.000214745	-0.00220631
  89	-6.35268e-05	-0.00159048	-0.000970318
  90	-0.000783796	0.000106289	-0.00185953
  91	-0.000788515	7.36445e-05	-0.00272645
  92	-0.000252171	0.000123722	-0.00292593
  93	0.000698161	0.000448116	-0.00230624
  94	0.000476757	0.000666182	-0.00142766
  95	-0.000105112	0.000658941	-0.00146165
  96	-0.00146284	-0.000284833	-0.00321754
  97	-0.000130561	-6.33751e-05	-0.00380522
  98	-7.71961e-05	0.000808193	-0.00088273
  99	0.00181218	0.000222682	-0.0021165
 100	0.00167177	0.000644385	-0.00114664
 101	0.00219918	0.0005713	-0.00156406
 102	-0.000787556	-0.000117332	-0.000470389
 103	-0.000150134	-0.000380285	0.000885562
 104	-0.000545265	-0.000860976	0.000996096
 105	8.48967e-05	0.000246622	0.000983009
 106	0.00036273	-0.000860864	0.000629498
 107	0.00092303	-0.00056217	0.000346594
 108	0.000693874	-0.000835979	0.000499742
 109	-0.0001201	-0.00038485	0.000791086
 110	0.00120984	-0.000283538	5.92675e-05
 111	0.000626358	8.13055e-05	0.000396878
 112	-0.00119961	4.92082e-05	0.00146937
 113	-7.08608e-05	-0.000574966	0.000624512
 114	0.000419568	-0.000436175	-0.000406881
 115	4.37765e-05	-0.000865185	-0.00069993
 116	1.96096e-05	-0.000217255	-0.00187811
 117	-0.000723981	-0.00206262	-0.000874326
 118	0.000508544	-0.000814908	0.00025112
 119	-6.11991e-05	0.000555033	-0.00086869
 120	0.000232875	-0.000904405	-0.000516696
 121	-0.00115559	0.000316198	0.000526721
 122	0.00135705	-6.67714e-05	-0.00176085
 123	-0.000771932	0.00230967	-0.00195461
 124	-6.41621e-05	7.16037e-05	0.000869192
 125	0.00042609	-0.00029802	0.00121749
 126	0.000501406	-0.000375753	0.000759243
 127	0.000175509	-0.000311638	-0.000190604
 128	-0.000206616	4.59914e-05	-0.000378485
 129	-0.000214135	4.26349e-05	0.000228892
 130	0.000672041	-0.000344911	0.00197443
 131	0.000991383	-0.000566612	0.00111824
 132	-0.000588276	0.000329672	5.47686e-05
 133	4.7851e-05	-0.000210566	-0.000697921
 134	-0.000482628	0.00019905	-0.00105132
 135	-0.000265642	0.000211206	-0.00124234
 136	-0.000397406	-0.000589059	0.000771118
 137	0.000143864	-0.00109908	-0.000755937
 138	0.000364902	-0.000900765	-0.000543448
 139	-1.51898e-05	-1.974e-05	-0.000210146
 140	0.00038372	-0.000364756	-0.000897177
 141	0.000142306	-0.000190459	-0.000368612
 142	0.000915832	0.000237473	-0.000207575
 143	0.00061013	0.000879883	0.000250706
 144	0.000452558	0.000946148	0.00014612
 145	0.000533023	0.00167901	0.000610182
 146	1.34414e-06	-0.00130547	-0.000547964
 147	-1.50873e-05	0.000129995	-0.000764252
 148	-1.79629e-05	0.000175201	-0.000372114
 149	0.000699229	-0.00113288	-0.000828895
 150	0.000854324	-0.00280194	-0.00120816
 151	0.00212051	-0.000476592	-0.0014385
 152	-0.000238251	-0.00123569	-0.000407377
 153	-0.000315238	0.000803972	-0.000262038
 154	-0.00107373	8.68614e-05	-0.000705711
 155	-0.000635874	0.00100796	0.000187294
 156	-0.000314175	0.00121663	-0.000750097
 157	-0.000302635	0.000772646	-0.000273823
 158	0.00025874	0.00074613	0.000455249
 159	0.000471145	0.000657898	0.00103509
 160	0.000391131	0.000331562	0.0010348
 161	0.000322112	0.000177437	0.000543326
 162	0.00012154	0.000337187	0.000224208
 163	0.000255595	0.000681695	0.000159329
 164	0.000529617	0.00079808	0.00150186
 165	0.000458901	0.000299448	0.00154009
 166	0.000168865	0.000805466	-0.00016802
 167	0.000224194	-0.00014945	0.000485609
 168	-0.00010621	0.000206365	0.000122079
 169	-4.84345e-05	-0.000139943	0.000326834
 170	-3.26162e-05	1.02092e-05	-0.000729729
 171	0.000961642	-0.000914741	-0.000536419
 172	0.000775697	-0.00079655	0.000227532
 173	0.000145693	-0.000779432	0.000438996
 174	0.00020157	-0.000451973	-0.000823262
 175	-0.00046904	-0.000452245	-0.000524152
 176	-0.000675225	-0.000184485	0.000185016
 177	-0.000163266	-0.000636146	0.000979808
 178	-0.00115809	-0.000241697	0.000518673
 179	-0.00105252	-0.000391011	0.00118826
 180	0.00133181	-0.00120407	0.000352314
 181	-0.000496017	-0.000794956	-0.00154851
 182	-0.000701266	0.000917102	0.000869458
 183	0.00019092	0.000748937	0.000309119
 184	-0.000648819	-0.000526344	0.000871014
 185	0.000160812	0.0025197	0.000352663
 186	0.00179853	0.00018087	-0.000638459
 187	-0.00136944	0.00140691	0.00177006
 188	-0.000318806	0.00151066	0.00102427