pySIMM System Object

1668 atoms
1863 bonds
3087 angles
4700 dihedrals
196 impropers

13 atom types
18 bond types
33 angle types
13 dihedral types
2 improper types

-182.175320 182.175320 xlo xhi
-182.175320 182.175320 ylo yhi
-182.175320 182.175320 zlo zhi

Masses

   1	14.01	# n2
   2	12.01	# c2
   3	14.01	# na
   4	12.01	# c1
   5	14.01	# nh
   6	12.01	# c3
   7	1.008	# hc
   8	1.008	# h1
   9	12.01	# ca
  10	1.008	# ha
  11	16.0	# os
  12	1.008	# hn
  13	1.008	# h5

Pair Coeffs

   1	0.17	3.249998523775958	# n2
   2	0.086	3.3996695084235347	# c2
   3	0.17	3.249998523775958	# na
   4	0.21	3.3996695084235347	# c1
   5	0.17	3.249998523775958	# nh
   6	0.1094	3.3996695084235347	# c3
   7	0.0157	2.649532787749369	# hc
   8	0.0157	2.471353044121301	# h1
   9	0.086	3.3996695084235347	# ca
  10	0.015	2.59964245953351	# ha
  11	0.17	3.0000123434657784	# os
  12	0.0157	1.069078461768407	# hn
  13	0.015	2.421462715905442	# h5

Bond Coeffs

   1	300.9	1.5375	# c3,c3
   2	416.2	1.3872	# c2,nh
   3	330.6	1.0969	# c3,hc
   4	397.4	1.4015	# c2,na
   5	345.8	1.086	# ca,ha
   6	625.0	1.307	# c1,c2
   7	330.6	1.0969	# c3,h1
   8	404.6	1.0121	# hn,nh
   9	376.6	1.3696	# ca,os
  10	505.3	1.3676	# n2,na
  11	327.7	1.4629	# c3,na
  12	338.4	1.0912	# c2,h5
  13	569.4	1.3343	# c2,c2
  14	551.6	1.303	# ca,n2
  15	389.2	1.3596	# c2,os
  16	594.1	1.2817	# c2,n2
  17	461.1	1.3984	# ca,ca
  18	482.1	1.3846	# c2,ca

Angle Coeffs

   1	39.4	107.58	# hc,c3,hc
   2	52.26	121.7	# h5,c2,n2
   3	70.06	121.62	# c1,c2,c2
   4	69.58	119.2	# ca,ca,os
   5	78.34	113.82	# n2,c2,n2
   6	70.52	117.58	# c2,n2,na
   7	46.39	109.56	# c3,c3,h1
   8	71.15	126.01	# c2,c2,n2
   9	62.86	111.51	# c3,c3,c3
  10	49.83	108.78	# h1,c3,na
  11	70.0	119.94	# c2,n2,ca
  12	65.52	112.88	# c3,c3,na
  13	69.36	117.0	# c2,c2,ca
  14	71.79	124.27	# n2,c2,nh
  15	46.34	109.8	# c3,c3,hc
  16	65.56	125.0	# c2,na,n2
  17	74.41	119.78	# n2,c2,os
  18	70.62	119.57	# ca,ca,n2
  19	48.18	119.88	# ca,ca,ha
  20	69.14	121.94	# c2,c2,na
  21	71.53	123.62	# n2,c2,na
  22	66.78	120.6	# c2,ca,ca
  23	69.3	121.81	# c2,c2,c2
  24	64.17	118.2	# c2,os,ca
  25	40.07	115.12	# hn,nh,hn
  26	48.59	115.09	# c2,nh,hn
  27	52.71	110.95	# h5,c2,os
  28	65.54	119.24	# c3,na,n2
  29	66.62	120.02	# ca,ca,ca
  30	71.11	118.18	# c2,n2,c2
  31	63.85	117.2	# c2,na,c3
  32	63.96	124.73	# c2,nh,c2
  33	73.36	114.3	# nh,c2,os

Dihedral Coeffs

   1	1	6.65	2	180	# X,c2,c2,X
   2	1	3.625	2	180	# X,ca,ca,X
   3	1	1.7	2	180	# X,n2,na,X
   4	1	0.7	2	180	# X,c2,ca,X
   5	1	0.15555555555555556	3	0	# X,c3,c3,X
   6	1	1.05	2	180	# X,c2,os,X
   7	1	0.0	3	180	# X,ca,n2,X
   8	1	4.15	2	180	# X,c2,n2,X
   9	1	0.9	2	180	# X,ca,os,X
  10	1	0.625	2	180	# X,c2,na,X
  11	1	0.0	2	0	# X,c3,na,X
  12	1	0.16	3	0	# hc,c3,c3,c3
  13	1	0.675	2	180	# X,c2,nh,X

Improper Coeffs

   1	1.1	-1	2	# ca,X,X,ha
   2	1.1	-1	2	# ca,ca,ca,c2

Atoms

   1	1	1	-0.261357	-31.0886	-12.6046	45.5922
   2	1	2	0.070556	-30.49	-13.551	44.9392
   3	1	2	0.0266	-29.3046	-14.0202	45.3608
   4	1	2	0.33777	-30.5668	-12.07	46.6653
   5	1	1	-0.659679	-29.4	-12.4835	47.0783
   6	1	2	0.428714	-28.809	-13.4465	46.444
   7	1	2	0.160826	-28.4261	-14.9473	44.9379
   8	1	3	0.04557	-27.5893	-14.0821	46.6769
   9	1	1	-0.463031	-27.3686	-15.0075	45.6811
  10	1	4	-0.07905	-31.1522	-13.9389	43.8793
  11	1	5	-0.061319	-31.2155	-11.0827	47.3682
  12	1	6	0.28436	-26.5294	-13.4482	47.4826
  13	1	6	-0.21175	-25.7539	-12.3808	46.6792
  14	1	7	0.07562	-26.438	-11.6175	46.2886
  15	1	7	0.047171	-25.2278	-12.8375	45.8316
  16	1	7	0.053131	-25.0133	-11.8792	47.3143
  17	1	6	-0.120715	-25.5495	-14.4728	48.0971
  18	1	8	0.007856	-27.0205	-12.9367	48.3203
  19	1	7	0.031711	-25.0175	-15.0298	47.3152
  20	1	7	0.04419	-26.0854	-15.1912	48.7273
  21	1	7	-0.003555	-24.8045	-13.9694	48.7261
  22	1	9	-0.011509	-28.6105	-15.6989	43.7805
  23	1	9	-0.199369	-29.6231	-16.6884	43.7066
  24	1	9	-0.201771	-29.7515	-17.5167	42.5693
  25	1	9	0.15189	-28.8349	-17.3261	41.5305
  26	1	9	0.348083	-27.8592	-16.3515	41.5867
  27	1	9	-0.230673	-27.721	-15.5226	42.6983
  28	1	10	0.174789	-30.293	-16.8281	44.5513
  29	1	10	0.188672	-30.5054	-18.2947	42.513
  30	1	10	0.201012	-26.9215	-14.7951	42.7378
  31	1	11	-0.381547	-28.6862	-18.0099	40.3656
  32	1	1	-0.706002	-27.1321	-16.3919	40.5107
  33	1	2	0.698504	-27.5942	-17.3805	39.8176
  34	1	12	0.214303	-30.5569	-10.4165	47.7322
  35	1	1	-0.261357	-32.1673	-15.8118	54.8526
  36	1	2	0.070556	-32.5869	-15.0138	53.9193
  37	1	2	0.0266	-33.3621	-13.9583	54.225
  38	1	2	0.33777	-32.4819	-15.6285	56.1089
  39	1	1	-0.659679	-33.2005	-14.5902	56.4332
  40	1	2	0.428714	-33.6286	-13.7921	55.5091
  41	1	2	0.160826	-33.95	-12.9577	53.541
  42	1	3	0.04557	-34.4111	-12.6381	55.5817
  43	1	1	-0.463031	-34.5657	-12.123	54.3136
  44	1	4	-0.07905	-32.156	-15.3503	52.7297
  45	1	5	-0.061319	-32.0645	-16.4951	57.0923
  46	1	6	0.28436	-34.5401	-11.8287	56.8093
  47	1	6	-0.21175	-33.1867	-11.2824	57.316
  48	1	7	0.07562	-32.5291	-12.0997	57.6329
  49	1	7	0.047171	-33.3327	-10.612	58.1709
  50	1	7	0.053131	-32.6779	-10.7186	56.5245
  51	1	6	-0.120715	-35.3042	-12.5515	57.9423
  52	1	8	0.007856	-35.1474	-10.9562	56.5357
  53	1	7	0.031711	-34.7262	-13.3926	58.3443
  54	1	7	0.04419	-36.2628	-12.9387	57.5757
  55	1	7	-0.003555	-35.5136	-11.8615	58.7689
  56	1	9	-0.011509	-33.8319	-12.8305	52.1593
  57	1	9	-0.199369	-34.4795	-13.742	51.284
  58	1	9	-0.201771	-34.2955	-13.6618	49.885
  59	1	9	0.15189	-33.4778	-12.6356	49.4051
  60	1	9	0.348083	-32.8789	-11.7242	50.2492
  61	1	9	-0.230673	-33.033	-11.7937	51.6315
  62	1	10	0.174789	-35.09	-14.5406	51.7009
  63	1	10	0.188672	-34.7269	-14.3897	49.2036
  64	1	10	0.201012	-32.512	-11.0974	52.2804
  65	1	11	-0.381547	-33.0151	-12.412	48.1469
  66	1	1	-0.706002	-32.0425	-10.9954	49.5737
  67	1	2	0.698504	-32.1381	-11.3753	48.3443
  68	1	12	0.214303	-31.394	-16.0436	57.6949
  69	1	1	-0.261357	-36.8009	-22.4125	63.1699
  70	1	2	0.070556	-36.4526	-21.4947	62.3166
  71	1	2	0.0266	-36.8035	-20.2124	62.5171
  72	1	2	0.33777	-37.482	-22.1312	64.253
  73	1	1	-0.659679	-37.8592	-20.8974	64.4422
  74	1	2	0.428714	-37.513	-19.9782	63.6052
  75	1	2	0.160826	-36.6124	-19.0345	61.8899
  76	1	3	0.04557	-37.7525	-18.609	63.6085
  77	1	1	-0.463031	-37.1383	-18.0349	62.5197
  78	1	4	-0.07905	-35.736	-21.952	61.3216
  79	1	5	-0.061319	-37.8216	-23.1133	65.1668
  80	1	6	0.28436	-38.2367	-17.9064	64.8067
  81	1	6	-0.21175	-39.0338	-16.6298	64.4681
  82	1	7	0.07562	-39.4633	-16.1935	65.3771
  83	1	7	0.047171	-39.8563	-16.8593	63.7799
  84	1	7	0.053131	-38.3893	-15.8807	63.9935
  85	1	6	-0.120715	-37.1043	-17.6051	65.8135
  86	1	8	0.007856	-38.9367	-18.5896	65.2991
  87	1	7	0.031711	-36.3421	-16.9572	65.3663
  88	1	7	0.04419	-36.6167	-18.5349	66.1326
  89	1	7	-0.003555	-37.4954	-17.1054	66.7084
  90	1	9	-0.011509	-35.9116	-18.8908	60.6954
  91	1	9	-0.199369	-36.4209	-19.4483	59.4934
  92	1	9	-0.201771	-35.7808	-19.2181	58.2567
  93	1	9	0.15189	-34.6348	-18.4199	58.2708
  94	1	9	0.348083	-34.1301	-17.8726	59.4338
  95	1	9	-0.230673	-34.7553	-18.0765	60.6638
  96	1	10	0.174789	-37.3354	-20.0371	59.5219
  97	1	10	0.188672	-36.1697	-19.6155	57.3234
  98	1	10	0.201012	-34.3847	-17.5903	61.5599
  99	1	11	-0.381547	-33.8824	-17.982	57.2314
 100	1	1	-0.706002	-33.0996	-17.1279	59.1547
 101	1	2	0.698504	-32.9719	-17.1773	57.8673
 102	1	12	0.214303	-38.2671	-23.9098	64.7488
 103	1	1	-0.261357	-39.9056	-16.3241	68.3801
 104	1	2	0.070556	-39.9831	-17.5862	68.6562
 105	1	2	0.0266	-39.8416	-18.0153	69.9202
 106	1	2	0.33777	-39.6838	-15.4226	69.3024
 107	1	1	-0.659679	-39.5886	-15.8105	70.5468
 108	1	2	0.428714	-39.6718	-17.074	70.8308
 109	1	2	0.160826	-39.8101	-19.2185	70.5246
 110	1	3	0.04557	-39.5498	-17.7605	72.0383
 111	1	1	-0.463031	-39.6623	-19.1155	71.8047
 112	1	4	-0.07905	-40.2247	-18.3212	67.6015
 113	1	5	-0.061319	-39.4381	-14.1025	68.9826
 114	1	6	0.28436	-39.8298	-17.1075	73.3283
 115	1	6	-0.21175	-39.0225	-17.7286	74.4893
 116	1	7	0.07562	-39.1964	-17.1785	75.4219
 117	1	7	0.047171	-37.9478	-17.6986	74.2707
 118	1	7	0.053131	-39.3092	-18.7759	74.6493
 119	1	6	-0.120715	-41.3391	-17.0968	73.6573
 120	1	8	0.007856	-39.5076	-16.062	73.2411
 121	1	7	0.031711	-41.7219	-18.1189	73.7726
 122	1	7	0.04419	-41.906	-16.6085	72.8547
 123	1	7	-0.003555	-41.5325	-16.5497	74.5887
 124	1	9	-0.011509	-39.7974	-20.3739	69.7491
 125	1	9	-0.199369	-40.9891	-21.0905	69.4703
 126	1	9	-0.201771	-41.001	-22.1208	68.5002
 127	1	9	0.15189	-39.7919	-22.4179	67.8592
 128	1	9	0.348083	-38.6193	-21.7639	68.178
 129	1	9	-0.230673	-38.5906	-20.7292	69.1068
 130	1	10	0.174789	-41.9164	-20.7896	69.9533
 131	1	10	0.188672	-41.9205	-22.6177	68.2048
 132	1	10	0.201012	-37.6789	-20.1598	69.2488
 133	1	11	-0.381547	-39.565	-23.1683	66.7445
 134	1	1	-0.706002	-37.7021	-22.0689	67.3157
 135	1	2	0.698504	-38.2624	-22.8428	66.4479
 136	1	12	0.214303	-38.936	-13.6361	69.7173
 137	1	1	-0.261357	-34.0155	-14.6635	62.0497
 138	1	2	0.070556	-35.0194	-14.1347	62.6777
 139	1	2	0.0266	-35.3011	-12.8309	62.5287
 140	1	2	0.33777	-33.238	-13.9644	61.2631
 141	1	1	-0.659679	-33.5032	-12.697	61.0941
 142	1	2	0.428714	-34.5055	-12.1625	61.7136
 143	1	2	0.160826	-36.2257	-11.981	63.0159
 144	1	3	0.04557	-35.0021	-10.8621	61.7056
 145	1	1	-0.463031	-36.0776	-10.7781	62.5635
 146	1	4	-0.07905	-35.6692	-14.9876	63.4261
 147	1	5	-0.061319	-32.1897	-14.5948	60.6222
 148	1	6	0.28436	-34.218	-9.72215	61.1991
 149	1	6	-0.21175	-33.5494	-8.92177	62.3382
 150	1	7	0.07562	-32.9251	-8.1159	61.934
 151	1	7	0.047171	-32.9105	-9.57617	62.9442
 152	1	7	0.053131	-34.3052	-8.47549	62.9972
 153	1	6	-0.120715	-35.0582	-8.79468	60.2948
 154	1	8	0.007856	-33.4113	-10.1253	60.5742
 155	1	7	0.031711	-35.505	-9.36204	59.4689
 156	1	7	0.04419	-34.433	-8.00404	59.8622
 157	1	7	-0.003555	-35.8693	-8.31925	60.861
 158	1	9	-0.011509	-37.2095	-12.3994	63.9088
 159	1	9	-0.199369	-38.4968	-12.7427	63.4225
 160	1	9	-0.201771	-39.5073	-13.2014	64.2964
 161	1	9	0.15189	-39.1867	-13.2897	65.6539
 162	1	9	0.348083	-37.9449	-12.9336	66.1396
 163	1	9	-0.230673	-36.9288	-12.4876	65.2929
 164	1	10	0.174789	-38.6989	-12.6658	62.3559
 165	1	10	0.188672	-40.4879	-13.4984	63.936
 166	1	10	0.201012	-35.9542	-12.236	65.6947
 167	1	11	-0.381547	-39.929	-13.763	66.6892
 168	1	1	-0.706002	-37.9029	-13.1517	67.4211
 169	1	2	0.698504	-39.0425	-13.6702	67.7338
 170	1	12	0.214303	-32.3448	-15.5801	60.4673
 171	1	1	-0.261357	-30.1038	-12.5451	52.6015
 172	1	2	0.070556	-29.7158	-12.5274	53.837
 173	1	2	0.0266	-28.4852	-12.9534	54.1642
 174	1	2	0.33777	-29.3389	-12.9882	51.6389
 175	1	1	-0.659679	-28.121	-13.3577	51.9286
 176	1	2	0.428714	-27.7201	-13.3352	53.1583
 177	1	2	0.160826	-27.8068	-13.1402	55.3104
 178	1	3	0.04557	-26.5227	-13.7502	53.737
 179	1	1	-0.463031	-26.636	-13.6506	55.1086
 180	1	4	-0.07905	-30.6384	-12.0911	54.6563
 181	1	5	-0.061319	-29.86	-13.1362	50.3726
 182	1	6	0.28436	-25.6555	-14.7187	53.0413
 183	1	6	-0.21175	-26.1976	-16.1629	53.135
 184	1	7	0.07562	-26.2287	-16.4985	54.1792
 185	1	7	0.047171	-25.564	-16.8557	52.5677
 186	1	7	0.053131	-27.2141	-16.2228	52.7255
 187	1	6	-0.120715	-24.1886	-14.654	53.5201
 188	1	8	0.007856	-25.651	-14.4421	51.979
 189	1	7	0.031711	-23.7978	-13.6329	53.4283
 190	1	7	0.04419	-23.555	-15.3148	52.9158
 191	1	7	-0.003555	-24.1	-14.9619	54.5698
 192	1	9	-0.011509	-28.443	-12.9702	56.5345
 193	1	9	-0.199369	-28.5546	-11.6919	57.1408
 194	1	9	-0.201771	-29.3334	-11.5112	58.3079
 195	1	9	0.15189	-29.9604	-12.6423	58.8414
 196	1	9	0.348083	-29.8197	-13.8898	58.2728
 197	1	9	-0.230673	-29.0763	-14.0893	57.1143
 198	1	10	0.174789	-28.0741	-10.8357	56.6718
 199	1	10	0.188672	-29.4792	-10.533	58.7569
 200	1	10	0.201012	-29.0278	-15.0681	56.651
 201	1	11	-0.381547	-30.8643	-12.7437	59.8521
 202	1	1	-0.706002	-30.5855	-14.7392	58.8842
 203	1	2	0.698504	-31.2406	-14.0659	59.7707
 204	1	12	0.214303	-30.7439	-12.6657	50.2723
 205	1	1	-0.261357	-30.5362	-22.5044	47.5128
 206	1	2	0.070556	-30.4295	-21.2207	47.6633
 207	1	2	0.0266	-30.975	-20.3769	46.7695
 208	1	2	0.33777	-31.1647	-23.0356	46.4965
 209	1	1	-0.659679	-31.7531	-22.2357	45.65
 210	1	2	0.428714	-31.6438	-20.9546	45.7853
 211	1	2	0.160826	-31.046	-19.0399	46.5929
 212	1	3	0.04557	-32.1306	-19.9076	45.0041
 213	1	1	-0.463031	-31.757	-18.7096	45.5633
 214	1	4	-0.07905	-29.79	-20.9149	48.7628
 215	1	5	-0.061319	-31.1591	-24.4098	46.336
 216	1	6	0.28436	-33.1901	-20.0564	43.9914
 217	1	6	-0.21175	-34.5087	-20.6162	44.571
 218	1	7	0.07562	-35.3024	-20.5966	43.8146
 219	1	7	0.047171	-34.8398	-20.0135	45.426
 220	1	7	0.053131	-34.3862	-21.6529	44.9089
 221	1	6	-0.120715	-32.7318	-20.8672	42.7586
 222	1	8	0.007856	-33.413	-19.0435	43.6317
 223	1	7	0.031711	-33.5101	-20.8682	41.9855
 224	1	7	0.04419	-32.5162	-21.9095	43.0244
 225	1	7	-0.003555	-31.8252	-20.4303	42.3224
 226	1	9	-0.011509	-30.4021	-18.0886	47.3894
 227	1	9	-0.199369	-29.013	-18.1933	47.6647
 228	1	9	-0.201771	-28.3341	-17.2151	48.4189
 229	1	9	0.15189	-29.0803	-16.1203	48.8562
 230	1	9	0.348083	-30.4194	-15.9783	48.5618
 231	1	9	-0.230673	-31.1106	-16.9422	47.8269
 232	1	10	0.174789	-28.4611	-19.0557	47.304
 233	1	10	0.188672	-27.2782	-17.3046	48.6567
 234	1	10	0.201012	-32.1611	-16.8009	47.5984
 235	1	11	-0.381547	-28.6857	-15.0418	49.5751
 236	1	1	-0.706002	-30.8559	-14.8625	49.0652
 237	1	2	0.698504	-29.854	-14.3265	49.6782
 238	1	12	0.214303	-30.5545	-24.8666	46.9982
 239	1	1	-0.261357	-28.075	-27.6871	37.9024
 240	1	2	0.070556	-28.7069	-27.4856	39.0149
 241	1	2	0.0266	-29.3392	-28.4986	39.629
 242	1	2	0.33777	-28.0388	-28.8587	37.3203
 243	1	1	-0.659679	-28.6117	-29.8691	37.9175
 244	1	2	0.428714	-29.2334	-29.6768	39.0376
 245	1	2	0.160826	-30.0915	-28.6459	40.7398
 246	1	3	0.04557	-29.9221	-30.5551	39.8684
 247	1	1	-0.463031	-30.4492	-29.8728	40.9413
 248	1	4	-0.07905	-28.5976	-26.2519	39.4371
 249	1	5	-0.061319	-27.3774	-29.0725	36.1274
 250	1	6	0.28436	-30.0269	-32.0017	39.6178
 251	1	6	-0.21175	-31.4918	-32.4904	39.6352
 252	1	7	0.07562	-32.095	-31.9177	38.9197
 253	1	7	0.047171	-31.9351	-32.3637	40.6312
 254	1	7	0.053131	-31.5539	-33.5509	39.3623
 255	1	6	-0.120715	-29.1648	-32.8213	40.6016
 256	1	8	0.007856	-29.6388	-32.1951	38.6099
 257	1	7	0.031711	-29.2281	-33.893	40.3756
 258	1	7	0.04419	-29.499	-32.6669	41.6355
 259	1	7	-0.003555	-28.1111	-32.5244	40.5345
 260	1	9	-0.011509	-30.5229	-27.5752	41.5241
 261	1	9	-0.199369	-31.2588	-26.513	40.9312
 262	1	9	-0.201771	-31.727	-25.4266	41.6991
 263	1	9	0.15189	-31.4759	-25.4661	43.0702
 264	1	9	0.348083	-30.8195	-26.519	43.6689
 265	1	9	-0.230673	-30.324	-27.5903	42.9249
 266	1	10	0.174789	-31.4478	-26.5239	39.8594
 267	1	10	0.188672	-32.2558	-24.5892	41.2532
 268	1	10	0.201012	-29.8025	-28.4013	43.419
 269	1	11	-0.381547	-31.7651	-24.5494	44.0236
 270	1	1	-0.706002	-30.7032	-26.2838	44.9419
 271	1	2	0.698504	-31.2293	-25.1219	45.1521
 272	1	12	0.214303	-27.1162	-30.0238	35.943
 273	1	1	-0.261357	-24.8241	-21.1112	34.4282
 274	1	2	0.070556	-25.0993	-22.2992	33.992
 275	1	2	0.0266	-25.4808	-22.4888	32.7173
 276	1	2	0.33777	-24.9003	-20.0546	33.6599
 277	1	1	-0.659679	-25.2701	-20.2102	32.4192
 278	1	2	0.428714	-25.5352	-21.3965	31.9735
 279	1	2	0.160826	-25.8317	-23.543	31.9506
 280	1	3	0.04557	-25.9109	-21.8429	30.7077
 281	1	1	-0.463031	-26.0954	-23.2058	30.7289
 282	1	4	-0.07905	-24.923	-23.207	34.917
 283	1	5	-0.061319	-24.6524	-18.7835	34.1295
 284	1	6	0.28436	-26.2	-20.9641	29.5611
 285	1	6	-0.21175	-24.9623	-20.1734	29.0789
 286	1	7	0.07562	-24.1368	-20.8587	28.8515
 287	1	7	0.047171	-24.6206	-19.4617	29.8412
 288	1	7	0.053131	-25.1946	-19.6095	28.1673
 289	1	6	-0.120715	-27.4025	-20.0261	29.8089
 290	1	8	0.007856	-26.4878	-21.6263	28.7344
 291	1	7	0.031711	-28.28	-20.6019	30.1291
 292	1	7	0.04419	-27.6682	-19.4881	28.8908
 293	1	7	-0.003555	-27.1789	-19.2832	30.5846
 294	1	9	-0.011509	-25.9128	-24.8473	32.4392
 295	1	9	-0.199369	-25.1467	-25.8786	31.8355
 296	1	9	-0.201771	-25.1775	-27.2023	32.3341
 297	1	9	0.15189	-26.0095	-27.4533	33.4303
 298	1	9	0.348083	-26.7998	-26.4674	33.9816
 299	1	9	-0.230673	-26.7857	-25.1594	33.5069
 300	1	10	0.174789	-24.5129	-25.6309	30.9858
 301	1	10	0.188672	-24.5626	-27.9907	31.9113
 302	1	10	0.201012	-27.3988	-24.4063	33.9895
 303	1	11	-0.381547	-26.1606	-28.5836	34.1762
 304	1	1	-0.706002	-27.4326	-26.9423	35.007
 305	1	2	0.698504	-27.0244	-28.1562	35.1581
 306	1	12	0.214303	-24.9413	-18.0354	33.5248
 307	1	1	-0.261357	-25.0527	-18.2355	43.0125
 308	1	2	0.070556	-24.5005	-17.9691	41.8747
 309	1	2	0.0266	-24.0266	-16.7383	41.6227
 310	1	2	0.33777	-25.1868	-17.3329	43.9509
 311	1	1	-0.659679	-24.7224	-16.1311	43.7357
 312	1	2	0.428714	-24.1615	-15.8596	42.5995
 313	1	2	0.160826	-23.4484	-16.1263	40.5732
 314	1	3	0.04557	-23.6316	-14.6717	42.0987
 315	1	1	-0.463031	-23.2122	-14.8754	40.8012
 316	1	4	-0.07905	-24.5279	-18.9987	41.0666
 317	1	5	-0.061319	-25.8809	-17.6052	45.1104
 318	1	6	0.28436	-24.004	-13.3605	42.6603
 319	1	6	-0.21175	-24.9221	-12.5457	41.7205
 320	1	7	0.07562	-25.7984	-13.1358	41.4261
 321	1	7	0.047171	-24.3886	-12.2583	40.8056
 322	1	7	0.053131	-25.2741	-11.6319	42.2147
 323	1	6	-0.120715	-22.7617	-12.5367	43.0585
 324	1	8	0.007856	-24.5743	-13.5404	43.5799
 325	1	7	0.031711	-23.0557	-11.5851	43.5184
 326	1	7	0.04419	-22.1408	-12.3188	42.1801
 327	1	7	-0.003555	-22.1489	-13.088	43.7829
 328	1	9	-0.011509	-23.2402	-16.8163	39.3847
 329	1	9	-0.199369	-22.233	-17.813	39.3036
 330	1	9	-0.201771	-22.116	-18.6302	38.1595
 331	1	9	0.15189	-23.0075	-18.3872	37.1121
 332	1	9	0.348083	-23.9484	-17.3793	37.1586
 333	1	9	-0.230673	-24.0991	-16.5782	38.2888
 334	1	10	0.174789	-21.5865	-17.9904	40.1607
 335	1	10	0.188672	-21.3951	-19.4404	38.1017
 336	1	10	0.201012	-24.8821	-15.829	38.3347
 337	1	11	-0.381547	-23.1793	-19.0697	35.9556
 338	1	1	-0.706002	-24.6621	-17.3978	36.0724
 339	1	2	0.698504	-24.2413	-18.41	35.3887
 340	1	12	0.214303	-26.3458	-16.7815	45.4595
 341	1	1	-0.261357	-26.8026	-26.4562	42.6076
 342	1	2	0.070556	-27.0788	-25.3351	43.1986
 343	1	2	0.0266	-27.45	-25.321	44.4895
 344	1	2	0.33777	-26.862	-27.6048	43.2323
 345	1	1	-0.659679	-27.2294	-27.62	44.484
 346	1	2	0.428714	-27.5019	-26.5027	45.0809
 347	1	2	0.160826	-27.7907	-24.38	45.3944
 348	1	3	0.04557	-27.8921	-26.2308	46.39
 349	1	1	-0.463031	-28.0529	-24.8743	46.5614
 350	1	4	-0.07905	-26.9351	-24.2981	42.414
 351	1	5	-0.061319	-26.6186	-28.8103	42.6102
 352	1	6	0.28436	-27.9475	-27.2497	47.4501
 353	1	6	-0.21175	-29.2928	-27.2243	48.209
 354	1	7	0.07562	-30.1264	-27.3799	47.5133
 355	1	7	0.047171	-29.4398	-26.2627	48.7168
 356	1	7	0.053131	-29.3291	-28.0208	48.9624
 357	1	6	-0.120715	-26.7634	-27.1194	48.4319
 358	1	8	0.007856	-27.8678	-28.2348	46.9735
 359	1	7	0.031711	-26.7928	-27.9148	49.1868
 360	1	7	0.04419	-26.7892	-26.1518	48.9493
 361	1	7	-0.003555	-25.8081	-27.1955	47.8971
 362	1	9	-0.011509	-27.83	-23.0161	45.1104
 363	1	9	-0.199369	-28.7614	-22.4905	44.1756
 364	1	9	-0.201771	-28.7994	-21.1098	43.8847
 365	1	9	0.15189	-27.9035	-20.2884	44.5713
 366	1	9	0.348083	-27.0132	-20.7832	45.4994
 367	1	9	-0.230673	-26.9505	-22.1443	45.7936
 368	1	10	0.174789	-29.4419	-23.1612	43.6556
 369	1	10	0.188672	-29.4734	-20.6965	43.1414
 370	1	10	0.201012	-26.2261	-22.5152	46.5094
 371	1	11	-0.381547	-27.6714	-18.9612	44.4331
 372	1	1	-0.706002	-26.2435	-19.8219	45.9171
 373	1	2	0.698504	-26.6162	-18.7573	45.2854
 374	1	12	0.214303	-27.0489	-29.6027	43.0518
 375	1	1	-0.261357	-23.1695	-26.1383	34.9026
 376	1	2	0.070556	-23.5496	-27.0356	35.7575
 377	1	2	0.0266	-23.1135	-28.3047	35.6638
 378	1	2	0.33777	-22.3667	-26.4226	33.9098
 379	1	1	-0.659679	-21.9573	-27.6523	33.77
 380	1	2	0.428714	-22.3077	-28.5453	34.64
 381	1	2	0.160826	-23.299	-29.4691	36.3239
 382	1	3	0.04557	-22.0011	-29.9022	34.7076
 383	1	1	-0.463031	-22.6753	-30.458	35.769
 384	1	4	-0.07905	-24.3983	-26.5347	36.6169
 385	1	5	-0.061319	-22.0155	-25.4969	32.9521
 386	1	6	0.28436	-21.5899	-30.6556	33.5103
 387	1	6	-0.21175	-22.7981	-31.0703	32.6404
 388	1	7	0.07562	-22.4637	-31.5863	31.7321
 389	1	7	0.047171	-23.3778	-30.19	32.3374
 390	1	7	0.053131	-23.4642	-31.7442	33.194
 391	1	6	-0.120715	-20.7265	-31.887	33.8624
 392	1	8	0.007856	-20.9615	-29.9904	32.9045
 393	1	7	0.031711	-21.3027	-32.6185	34.4434
 394	1	7	0.04419	-19.8555	-31.5882	34.459
 395	1	7	-0.003555	-20.362	-32.3816	32.9532
 396	1	9	-0.011509	-24.1312	-29.6728	37.4318
 397	1	9	-0.199369	-24.9563	-30.8324	37.4554
 398	1	9	-0.201771	-25.7942	-31.1231	38.5526
 399	1	9	0.15189	-25.7947	-30.214	39.6111
 400	1	9	0.348083	-24.9866	-29.098	39.6153
 401	1	9	-0.230673	-24.1146	-28.8194	38.563
 402	1	10	0.174789	-24.9286	-31.5219	36.6133
 403	1	10	0.188672	-26.4359	-31.9987	38.5729
 404	1	10	0.201012	-23.4595	-27.9588	38.6343
 405	1	11	-0.381547	-26.5268	-30.2175	40.7548
 406	1	1	-0.706002	-25.1857	-28.4291	40.7093
 407	1	2	0.698504	-26.1173	-29.0516	41.3504
 408	1	12	0.214303	-21.8723	-25.8696	32.0317
 409	1	1	-0.261357	-19.4189	-17.9179	29.1266
 410	1	2	0.070556	-19.9882	-18.6163	30.0606
 411	1	2	0.0266	-21.0236	-18.1082	30.7477
 412	1	2	0.33777	-19.8069	-16.704	28.8289
 413	1	1	-0.659679	-20.8271	-16.201	29.4691
 414	1	2	0.428714	-21.4016	-16.8897	30.4017
 415	1	2	0.160826	-21.811	-18.5218	31.7584
 416	1	3	0.04557	-22.4705	-16.5832	31.2405
 417	1	1	-0.463031	-22.6735	-17.6264	32.1152
 418	1	4	-0.07905	-19.4377	-19.7897	30.2427
 419	1	5	-0.061319	-19.1683	-16.0117	27.8195
 420	1	6	0.28436	-22.9247	-15.1995	31.4568
 421	1	6	-0.21175	-22.0178	-14.4397	32.4498
 422	1	7	0.07562	-22.3488	-13.4001	32.5615
 423	1	7	0.047171	-20.9799	-14.4275	32.0935
 424	1	7	0.053131	-22.0358	-14.916	33.4384
 425	1	6	-0.120715	-24.4011	-15.1334	31.9088
 426	1	8	0.007856	-22.8622	-14.6824	30.4908
 427	1	7	0.031711	-24.7403	-14.0926	31.9785
 428	1	7	0.04419	-24.533	-15.6025	32.8923
 429	1	7	-0.003555	-25.0493	-15.6533	31.1917
 430	1	9	-0.011509	-21.6736	-19.7637	32.3739
 431	1	9	-0.199369	-21.2428	-19.8285	33.7233
 432	1	9	-0.201771	-21.1845	-21.0586	34.4144
 433	1	9	0.15189	-21.5632	-22.2035	33.7113
 434	1	9	0.348083	-21.9759	-22.1517	32.3973
 435	1	9	-0.230673	-22.0474	-20.9479	31.6968
 436	1	10	0.174789	-20.9897	-18.9083	34.2462
 437	1	10	0.188672	-20.892	-21.12	35.4583
 438	1	10	0.201012	-22.4028	-20.9339	30.6745
 439	1	11	-0.381547	-21.6248	-23.4951	34.1245
 440	1	1	-0.706002	-22.2611	-23.3505	31.9865
 441	1	2	0.698504	-22.1141	-24.1266	33.0085
 442	1	12	0.214303	-18.5829	-16.5709	27.2245
 443	1	1	-0.261357	-13.0112	-9.61175	27.4322
 444	1	2	0.070556	-14.2373	-10.0316	27.451
 445	1	2	0.0266	-15.1726	-9.41752	26.7091
 446	1	2	0.33777	-12.6302	-8.60478	26.69
 447	1	1	-0.659679	-13.5239	-7.98714	25.9633
 448	1	2	0.428714	-14.7546	-8.39326	25.9855
 449	1	2	0.160826	-16.4917	-9.58478	26.4966
 450	1	3	0.04557	-15.8942	-7.92264	25.3366
 451	1	1	-0.463031	-16.9694	-8.72185	25.6601
 452	1	4	-0.07905	-14.4205	-11.0586	28.2421
 453	1	5	-0.061319	-11.3183	-8.18624	26.7549
 454	1	6	0.28436	-15.8277	-6.9957	24.1945
 455	1	6	-0.21175	-16.9999	-5.99116	24.1758
 456	1	7	0.07562	-17.0501	-5.44239	25.124
 457	1	7	0.047171	-17.9568	-6.50744	24.0275
 458	1	7	0.053131	-16.8709	-5.26193	23.3664
 459	1	6	-0.120715	-15.7237	-7.7445	22.848
 460	1	8	0.007856	-14.9132	-6.40547	24.3165
 461	1	7	0.031711	-16.6217	-8.34868	22.6668
 462	1	7	0.04419	-14.8553	-8.41467	22.8454
 463	1	7	-0.003555	-15.6103	-7.03911	22.0153
 464	1	9	-0.011509	-17.2006	-10.6099	27.1172
 465	1	9	-0.199369	-17.7862	-10.4	28.3928
 466	1	9	-0.201771	-18.4784	-11.4389	29.0554
 467	1	9	0.15189	-18.5662	-12.6696	28.3981
 468	1	9	0.348083	-18.012	-12.8756	27.1521
 469	1	9	-0.230673	-17.3201	-11.867	26.4813
 470	1	10	0.174789	-17.6914	-9.42581	28.8681
 471	1	10	0.188672	-18.9229	-11.3015	30.0371
 472	1	10	0.201012	-16.8849	-12.0579	25.5072
 473	1	11	-0.381547	-19.1392	-13.8331	28.8034
 474	1	1	-0.706002	-18.2122	-14.107	26.788
 475	1	2	0.698504	-18.8966	-14.6612	27.7322
 476	1	12	0.214303	-10.8927	-8.3448	27.6508
 477	1	1	-0.261357	-8.39226	-0.577598	21.5598
 478	1	2	0.070556	-8.43305	-1.6477	22.2894
 479	1	2	0.0266	-7.81067	-2.76783	21.8896
 480	1	2	0.33777	-7.76922	-0.540116	20.4108
 481	1	1	-0.659679	-7.13548	-1.61063	20.0116
 482	1	2	0.428714	-7.17264	-2.68541	20.7337
 483	1	2	0.160826	-7.66013	-4.02061	22.362
 484	1	3	0.04557	-6.63813	-3.95492	20.5149
 485	1	1	-0.463031	-6.95233	-4.76738	21.5804
 486	1	4	-0.07905	-9.13146	-1.4821	23.382
 487	1	5	-0.061319	-7.79885	0.628027	19.6754
 488	1	6	0.28436	-5.47414	-4.16524	19.6412
 489	1	6	-0.21175	-5.46029	-5.58014	19.0186
 490	1	7	0.07562	-6.39176	-5.76611	18.4709
 491	1	7	0.047171	-5.36413	-6.34923	19.7956
 492	1	7	0.053131	-4.6235	-5.69326	18.319
 493	1	6	-0.120715	-4.14408	-3.88411	20.3744
 494	1	8	0.007856	-5.55214	-3.44615	18.8176
 495	1	7	0.031711	-3.29065	-4.00442	19.6961
 496	1	7	0.04419	-4.01191	-4.57108	21.2201
 497	1	7	-0.003555	-4.1237	-2.85907	20.7636
 498	1	9	-0.011509	-8.23773	-4.49767	23.5379
 499	1	9	-0.199369	-7.92061	-3.94563	24.8071
 500	1	9	-0.201771	-8.48738	-4.46866	25.9906
 501	1	9	0.15189	-9.36115	-5.55153	25.8571
 502	1	9	0.348083	-9.6603	-6.10651	24.6315
 503	1	9	-0.230673	-9.09856	-5.61448	23.4562
 504	1	10	0.174789	-7.23592	-3.10497	24.8679
 505	1	10	0.188672	-8.2649	-4.05233	26.9685
 506	1	10	0.201012	-9.30746	-6.08752	22.505
 507	1	11	-0.381547	-10.0312	-6.24919	26.81
 508	1	1	-0.706002	-10.4872	-7.09845	24.7898
 509	1	2	0.698504	-10.7443	-7.14841	26.0569
 510	1	12	0.214303	-8.01679	1.45237	20.2089
 511	1	1	-0.261357	-7.49713	6.21658	13.0629
 512	1	2	0.070556	-7.14825	5.08277	13.58
 513	1	2	0.0266	-5.93233	4.5698	13.334
 514	1	2	0.33777	-6.69983	6.90291	12.285
 515	1	1	-0.659679	-5.5168	6.41696	12.0182
 516	1	2	0.428714	-5.16302	5.28029	12.5291
 517	1	2	0.160826	-5.25788	3.46289	13.6974
 518	1	3	0.04557	-3.98542	4.54488	12.4041
 519	1	1	-0.463031	-4.09141	3.38536	13.1419
 520	1	4	-0.07905	-8.1107	4.54141	14.2821
 521	1	5	-0.061319	-7.0702	8.1344	11.7845
 522	1	6	0.28436	-3.04943	4.76034	11.2857
 523	1	6	-0.21175	-3.62864	4.27373	9.93855
 524	1	7	0.07562	-2.93039	4.4797	9.11811
 525	1	7	0.047171	-4.57269	4.78509	9.71225
 526	1	7	0.053131	-3.82191	3.19386	9.96472
 527	1	6	-0.120715	-1.66268	4.12253	11.5318
 528	1	8	0.007856	-2.89394	5.84351	11.2037
 529	1	7	0.031711	-0.970078	4.37421	10.7192
 530	1	7	0.04419	-1.73845	3.02923	11.5901
 531	1	7	-0.003555	-1.22438	4.48367	12.4696
 532	1	9	-0.011509	-5.78534	2.5365	14.5918
 533	1	9	-0.199369	-5.99505	1.19587	14.1834
 534	1	9	-0.201771	-6.50766	0.236181	15.0837
 535	1	9	0.15189	-6.79155	0.658054	16.3843
 536	1	9	0.348083	-6.58734	1.95884	16.7856
 537	1	9	-0.230673	-6.06817	2.91967	15.9228
 538	1	10	0.174789	-5.75335	0.908007	13.1623
 539	1	10	0.188672	-6.68041	-0.789105	14.7906
 540	1	10	0.201012	-5.89301	3.92779	16.2782
 541	1	11	-0.381547	-7.24447	-0.0494209	17.4526
 542	1	1	-0.706002	-6.91276	2.08249	18.0332
 543	1	2	0.698504	-7.24374	0.905164	18.4441
 544	1	12	0.214303	-6.40474	8.8758	11.9267
 545	1	1	-0.261357	-12.447	13.7413	7.63481
 546	1	2	0.070556	-12.2438	12.6908	8.36493
 547	1	2	0.0266	-13.1032	12.3737	9.34626
 548	1	2	0.33777	-13.4788	14.5272	7.81612
 549	1	1	-0.659679	-14.3473	14.2214	8.74085
 550	1	2	0.428714	-14.1488	13.1729	9.47698
 551	1	2	0.160826	-13.1923	11.4044	10.2767
 552	1	3	0.04557	-14.8816	12.6444	10.5385
 553	1	1	-0.463031	-14.2602	11.5047	10.9986
 554	1	4	-0.07905	-11.1641	12.034	8.02418
 555	1	5	-0.061319	-13.6129	15.7189	7.13623
 556	1	6	0.28436	-16.3015	12.9693	10.7536
 557	1	6	-0.21175	-16.6469	13.095	12.2538
 558	1	7	0.07562	-17.6927	13.3957	12.3897
 559	1	7	0.047171	-16.0104	13.8492	12.7331
 560	1	7	0.053131	-16.4924	12.1398	12.7719
 561	1	6	-0.120715	-17.2387	11.956	10.0603
 562	1	8	0.007856	-16.49	13.9507	10.3002
 563	1	7	0.031711	-18.2891	12.2452	10.188
 564	1	7	0.04419	-17.1055	10.9505	10.4798
 565	1	7	-0.003555	-17.0288	11.9079	8.98427
 566	1	9	-0.011509	-12.226	10.4135	10.4316
 567	1	9	-0.199369	-12.572	9.05642	10.2063
 568	1	9	-0.201771	-11.6285	8.02307	10.3962
 569	1	9	0.15189	-10.3506	8.39722	10.8189
 570	1	9	0.348083	-10.0073	9.71214	11.0539
 571	1	9	-0.230673	-10.925	10.747	10.8801
 572	1	10	0.174789	-13.586	8.81212	9.89527
 573	1	10	0.188672	-11.8771	6.97778	10.2367
 574	1	10	0.201012	-10.633	11.7702	11.0873
 575	1	11	-0.381547	-9.27246	7.62363	11.0974
 576	1	1	-0.706002	-8.77135	9.77545	11.4517
 577	1	2	0.698504	-8.35383	8.55615	11.5161
 578	1	12	0.214303	-14.3286	16.2749	7.56916
 579	1	1	-0.261357	-5.54936	15.1937	9.25979
 580	1	2	0.070556	-6.43526	15.8123	8.54544
 581	1	2	0.0266	-6.37917	17.1467	8.40088
 582	1	2	0.33777	-4.57859	15.8282	9.86645
 583	1	1	-0.659679	-4.50457	17.1254	9.74233
 584	1	2	0.428714	-5.38125	17.7525	9.02134
 585	1	2	0.160826	-7.12723	18.0785	7.77957
 586	1	3	0.04557	-5.55058	19.1106	8.73817
 587	1	1	-0.463031	-6.68463	19.2768	7.97512
 588	1	4	-0.07905	-7.33604	15.0018	8.04972
 589	1	5	-0.061319	-3.69013	15.1833	10.7008
 590	1	6	0.28436	-4.94111	20.1928	9.53264
 591	1	6	-0.21175	-3.41644	20.3075	9.3156
 592	1	7	0.07562	-3.18898	20.4168	8.24797
 593	1	7	0.047171	-2.89393	19.418	9.68851
 594	1	7	0.053131	-3.01577	21.1842	9.83929
 595	1	6	-0.120715	-5.28955	20.1184	11.0371
 596	1	8	0.007856	-5.37829	21.1282	9.15998
 597	1	7	0.031711	-4.83605	19.239	11.5106
 598	1	7	0.04419	-6.37627	20.0614	11.1777
 599	1	7	-0.003555	-4.92738	21.0105	11.5634
 600	1	9	-0.011509	-8.29487	17.7272	7.11088
 601	1	9	-0.199369	-8.24378	17.1459	5.81724
 602	1	9	-0.201771	-9.40983	16.6244	5.21275
 603	1	9	0.15189	-10.6073	16.7418	5.92532
 604	1	9	0.348083	-10.6713	17.3685	7.15311
 605	1	9	-0.230673	-9.52962	17.857	7.7827
 606	1	10	0.174789	-7.28307	17.0384	5.31787
 607	1	10	0.188672	-9.37892	16.099	4.2626
 608	1	10	0.201012	-9.59168	18.259	8.78751
 609	1	11	-0.381547	-11.8157	16.1688	5.68179
 610	1	1	-0.706002	-11.8528	17.2048	7.66357
 611	1	2	0.698504	-12.514	16.4861	6.82149
 612	1	12	0.214303	-3.33523	15.7918	11.4168
 613	1	1	-0.261357	-2.10112	6.2501	14.4404
 614	1	2	0.070556	-2.52772	7.36585	13.9376
 615	1	2	0.0266	-3.70382	7.88071	14.3293
 616	1	2	0.33777	-2.77701	5.58636	15.3425
 617	1	1	-0.659679	-3.91678	6.07862	15.7474
 618	1	2	0.428714	-4.3489	7.19939	15.263
 619	1	2	0.160826	-4.4456	8.95683	14.0088
 620	1	3	0.04557	-5.52349	7.91592	15.5132