pySIMM System Object

1634 atoms
1825 bonds
3024 angles
4604 dihedrals
192 impropers

13 atom types
18 bond types
33 angle types
13 dihedral types
2 improper types

-180.901325 180.901325 xlo xhi
-180.901325 180.901325 ylo yhi
-180.901325 180.901325 zlo zhi

Masses

   1	14.01	# n2
   2	12.01	# c2
   3	14.01	# na
   4	12.01	# c1
   5	14.01	# nh
   6	12.01	# c3
   7	1.008	# hc
   8	1.008	# h1
   9	12.01	# ca
  10	1.008	# ha
  11	16.0	# os
  12	1.008	# hn
  13	1.008	# h5

Pair Coeffs

   1	0.17	3.249998523775958	# n2
   2	0.086	3.3996695084235347	# c2
   3	0.17	3.249998523775958	# na
   4	0.21	3.3996695084235347	# c1
   5	0.17	3.249998523775958	# nh
   6	0.1094	3.3996695084235347	# c3
   7	0.0157	2.649532787749369	# hc
   8	0.0157	2.471353044121301	# h1
   9	0.086	3.3996695084235347	# ca
  10	0.015	2.59964245953351	# ha
  11	0.17	3.0000123434657784	# os
  12	0.0157	1.069078461768407	# hn
  13	0.015	2.421462715905442	# h5

Bond Coeffs

   1	300.9	1.5375	# c3,c3
   2	416.2	1.3872	# c2,nh
   3	330.6	1.0969	# c3,hc
   4	397.4	1.4015	# c2,na
   5	345.8	1.086	# ca,ha
   6	625.0	1.307	# c1,c2
   7	330.6	1.0969	# c3,h1
   8	404.6	1.0121	# hn,nh
   9	376.6	1.3696	# ca,os
  10	505.3	1.3676	# n2,na
  11	327.7	1.4629	# c3,na
  12	338.4	1.0912	# c2,h5
  13	569.4	1.3343	# c2,c2
  14	551.6	1.303	# ca,n2
  15	389.2	1.3596	# c2,os
  16	594.1	1.2817	# c2,n2
  17	461.1	1.3984	# ca,ca
  18	482.1	1.3846	# c2,ca

Angle Coeffs

   1	39.4	107.58	# hc,c3,hc
   2	52.26	121.7	# h5,c2,n2
   3	70.06	121.62	# c1,c2,c2
   4	69.58	119.2	# ca,ca,os
   5	78.34	113.82	# n2,c2,n2
   6	70.52	117.58	# c2,n2,na
   7	46.39	109.56	# c3,c3,h1
   8	71.15	126.01	# c2,c2,n2
   9	62.86	111.51	# c3,c3,c3
  10	49.83	108.78	# h1,c3,na
  11	70.0	119.94	# c2,n2,ca
  12	65.52	112.88	# c3,c3,na
  13	69.36	117.0	# c2,c2,ca
  14	71.79	124.27	# n2,c2,nh
  15	46.34	109.8	# c3,c3,hc
  16	65.56	125.0	# c2,na,n2
  17	74.41	119.78	# n2,c2,os
  18	70.62	119.57	# ca,ca,n2
  19	48.18	119.88	# ca,ca,ha
  20	69.14	121.94	# c2,c2,na
  21	71.53	123.62	# n2,c2,na
  22	66.78	120.6	# c2,ca,ca
  23	69.3	121.81	# c2,c2,c2
  24	64.17	118.2	# c2,os,ca
  25	40.07	115.12	# hn,nh,hn
  26	48.59	115.09	# c2,nh,hn
  27	52.71	110.95	# h5,c2,os
  28	65.54	119.24	# c3,na,n2
  29	66.62	120.02	# ca,ca,ca
  30	71.11	118.18	# c2,n2,c2
  31	63.85	117.2	# c2,na,c3
  32	63.96	124.73	# c2,nh,c2
  33	73.36	114.3	# nh,c2,os

Dihedral Coeffs

   1	1	6.65	2	180	# X,c2,c2,X
   2	1	3.625	2	180	# X,ca,ca,X
   3	1	1.7	2	180	# X,n2,na,X
   4	1	0.7	2	180	# X,c2,ca,X
   5	1	0.15555555555555556	3	0	# X,c3,c3,X
   6	1	1.05	2	180	# X,c2,os,X
   7	1	0.0	3	180	# X,ca,n2,X
   8	1	4.15	2	180	# X,c2,n2,X
   9	1	0.9	2	180	# X,ca,os,X
  10	1	0.625	2	180	# X,c2,na,X
  11	1	0.0	2	0	# X,c3,na,X
  12	1	0.16	3	0	# hc,c3,c3,c3
  13	1	0.675	2	180	# X,c2,nh,X

Improper Coeffs

   1	1.1	-1	2	# ca,X,X,ha
   2	1.1	-1	2	# ca,ca,ca,c2

Atoms

   1	1	1	-0.261357	-47.7434	-24.554	3.68893
   2	1	2	0.070556	-47.036	-24.1294	4.68869
   3	1	2	0.0266	-47.2723	-22.9201	5.22331
   4	1	2	0.33777	-48.6929	-23.8286	3.15848
   5	1	1	-0.659679	-48.9122	-22.6305	3.62526
   6	1	2	0.428714	-48.2311	-22.2152	4.64604
   7	1	2	0.160826	-46.7528	-22.179	6.22018
   8	1	3	0.04557	-48.2875	-21.0126	5.34903
   9	1	1	-0.463031	-47.3119	-21.0165	6.32034
  10	1	4	-0.07905	-46.1141	-24.9846	5.04979
  11	1	5	-0.061319	-49.4684	-24.2925	2.12279
  12	1	6	0.28436	-48.8521	-19.7937	4.74298
  13	1	6	-0.21175	-47.8491	-19.1017	3.79287
  14	1	7	0.07562	-47.5253	-19.792	3.00428
  15	1	7	0.047171	-46.9599	-18.7651	4.3411
  16	1	7	0.053131	-48.3081	-18.229	3.31197
  17	1	6	-0.120715	-49.3748	-18.7938	5.79774
  18	1	8	0.007856	-49.717	-20.1003	4.14098
  19	1	7	0.031711	-48.5618	-18.4392	6.44437
  20	1	7	0.04419	-50.1376	-19.2635	6.42901
  21	1	7	-0.003555	-49.8321	-17.9218	5.31337
  22	1	9	-0.011509	-45.6879	-22.5866	7.02331
  23	1	9	-0.199369	-45.7917	-23.7331	7.85164
  24	1	9	-0.201771	-44.7559	-24.0876	8.74457
  25	1	9	0.15189	-43.6367	-23.2529	8.79013
  26	1	9	0.348083	-43.5213	-22.1403	7.98213
  27	1	9	-0.230673	-44.53	-21.7806	7.08927
  28	1	10	0.174789	-46.6978	-24.3317	7.8183
  29	1	10	0.188672	-44.8349	-24.9513	9.3966
  30	1	10	0.201012	-44.4369	-20.8784	6.49933
  31	1	11	-0.381547	-42.5391	-23.3157	9.58867
  32	1	1	-0.706002	-42.4048	-21.5276	8.23465
  33	1	2	0.698504	-41.8511	-22.1946	9.19392
  34	1	12	0.214303	-49.7465	-23.5361	1.52356
  35	1	1	-0.261357	-57.3923	-25.5826	6.42161
  36	1	2	0.070556	-56.4082	-25.857	5.62083
  37	1	2	0.0266	-56.6391	-26.4787	4.45168
  38	1	2	0.33777	-58.6266	-25.9097	6.13608
  39	1	1	-0.659679	-58.8766	-26.4797	4.99035
  40	1	2	0.428714	-57.9036	-26.7547	4.18397
  41	1	2	0.160826	-55.8896	-26.9043	3.41773
  42	1	3	0.04557	-57.8977	-27.3646	2.92802
  43	1	1	-0.463031	-56.6007	-27.4156	2.46663
  44	1	4	-0.07905	-55.2472	-25.445	6.06442
  45	1	5	-0.061319	-59.6669	-25.6175	6.98867
  46	1	6	0.28436	-59.068	-27.3419	2.02924
  47	1	6	-0.21175	-59.5144	-25.9086	1.66347
  48	1	7	0.07562	-59.8939	-25.3768	2.54389
  49	1	7	0.047171	-60.3086	-25.931	0.909697
  50	1	7	0.053131	-58.6736	-25.3369	1.25206
  51	1	6	-0.120715	-60.2595	-28.1802	2.54692
  52	1	8	0.007856	-58.7413	-27.8163	1.09486
  53	1	7	0.031711	-60.7166	-27.7253	3.43421
  54	1	7	0.04419	-59.9327	-29.1933	2.81165
  55	1	7	-0.003555	-61.0353	-28.2666	1.77603
  56	1	9	-0.011509	-54.5027	-26.7823	3.3983
  57	1	9	-0.199369	-53.6992	-27.5977	4.2382
  58	1	9	-0.201771	-52.2921	-27.4741	4.24291
  59	1	9	0.15189	-51.7314	-26.5323	3.37693
  60	1	9	0.348083	-52.5055	-25.7503	2.54427
  61	1	9	-0.230673	-53.8956	-25.853	2.52545
  62	1	10	0.174789	-54.1782	-28.3133	4.90332
  63	1	10	0.188672	-51.6632	-28.0611	4.90549
  64	1	10	0.201012	-54.4892	-25.2208	1.87442
  65	1	11	-0.381547	-50.4361	-26.1485	3.23678
  66	1	1	-0.706002	-51.7504	-24.8854	1.93278
  67	1	2	0.698504	-50.5446	-25.1228	2.33214
  68	1	12	0.214303	-60.1708	-24.8104	6.65364
  69	1	1	-0.261357	-66.5122	-30.8946	11.4366
  70	1	2	0.070556	-65.5808	-30.4415	10.6499
  71	1	2	0.0266	-65.7406	-30.4759	9.31514
  72	1	2	0.33777	-67.6362	-31.3815	10.9727
  73	1	1	-0.659679	-67.7898	-31.458	9.68011
  74	1	2	0.428714	-66.8748	-31.0026	8.89085
  75	1	2	0.160826	-65.0343	-30.0903	8.23275
  76	1	3	0.04557	-66.8297	-30.9296	7.503
  77	1	1	-0.463031	-65.6597	-30.3114	7.12192
  78	1	4	-0.07905	-64.5547	-29.9462	11.2936
  79	1	5	-0.061319	-68.6385	-31.8216	11.8189
  80	1	6	0.28436	-68.0534	-31.0359	6.6902
  81	1	6	-0.21175	-67.7815	-31.5747	5.27019
  82	1	7	0.07562	-68.7236	-31.7235	4.72978
  83	1	7	0.047171	-67.261	-32.5389	5.31697
  84	1	7	0.053131	-67.159	-30.8778	4.6973
  85	1	6	-0.120715	-68.8466	-29.7107	6.64289
  86	1	8	0.007856	-68.6927	-31.777	7.18388
  87	1	7	0.031711	-68.2439	-28.9063	6.20652
  88	1	7	0.04419	-69.142	-29.4044	7.6543
  89	1	7	-0.003555	-69.759	-29.8179	6.04344
  90	1	9	-0.011509	-63.7702	-29.5045	8.29227
  91	1	9	-0.199369	-62.6603	-30.2426	8.78165
  92	1	9	-0.201771	-61.3557	-29.7031	8.7543
  93	1	9	0.15189	-61.2055	-28.4206	8.22161
  94	1	9	0.348083	-62.2754	-27.694	7.73893
  95	1	9	-0.230673	-63.5712	-28.2139	7.74595
  96	1	10	0.174789	-62.8142	-31.2512	9.15992
  97	1	10	0.188672	-60.4931	-30.2627	9.105
  98	1	10	0.201012	-64.3933	-27.655	7.31123
  99	1	11	-0.381547	-60.0722	-27.7035	8.01239
 100	1	1	-0.706002	-61.849	-26.5638	7.25221
 101	1	2	0.698504	-60.562	-26.5823	7.39127
 102	1	12	0.214303	-68.3556	-32.5882	12.402
 103	1	1	-0.261357	-71.8242	-31.548	4.67796
 104	1	2	0.070556	-72.1831	-31.8153	5.89251
 105	1	2	0.0266	-73.3906	-31.4381	6.34279
 106	1	2	0.33777	-72.6045	-30.9045	3.84732
 107	1	1	-0.659679	-73.7979	-30.5571	4.25011
 108	1	2	0.428714	-74.1659	-30.8282	5.46412
 109	1	2	0.160826	-74.0374	-31.5052	7.52336
 110	1	3	0.04557	-75.3298	-30.5286	6.16859
 111	1	1	-0.463031	-75.2202	-30.9854	7.46451
 112	1	4	-0.07905	-71.2623	-32.4657	6.55713
 113	1	5	-0.061319	-72.163	-30.4911	2.60725
 114	1	6	0.28436	-76.57	-30.0799	5.51383
 115	1	6	-0.21175	-77.3093	-28.9994	6.33353
 116	1	7	0.07562	-78.1912	-28.6358	5.79252
 117	1	7	0.047171	-76.6501	-28.1436	6.52542
 118	1	7	0.053131	-77.6395	-29.3994	7.3008
 119	1	6	-0.120715	-77.51	-31.261	5.19038
 120	1	8	0.007856	-76.289	-29.6171	4.55934
 121	1	7	0.031711	-77.8422	-31.7597	6.10989
 122	1	7	0.04419	-76.9958	-32.0024	4.56612
 123	1	7	-0.003555	-78.3977	-30.9162	4.64522
 124	1	9	-0.011509	-73.3598	-31.9607	8.64943
 125	1	9	-0.199369	-73.3885	-33.3277	9.0272
 126	1	9	-0.201771	-72.5097	-33.8198	10.0213
 127	1	9	0.15189	-71.645	-32.9013	10.6298
 128	1	9	0.348083	-71.6663	-31.5593	10.3088
 129	1	9	-0.230673	-72.4986	-31.0601	9.31284
 130	1	10	0.174789	-74.0367	-34.0154	8.48817
 131	1	10	0.188672	-72.448	-34.8782	10.2566
 132	1	10	0.201012	-72.406	-30.0254	9.00237
 133	1	11	-0.381547	-70.5527	-33.1289	11.4127
 134	1	1	-0.706002	-70.6483	-30.9667	10.8469
 135	1	2	0.698504	-69.9666	-31.8852	11.4443
 136	1	12	0.214303	-72.7302	-29.7426	2.25009
 137	1	1	-0.261357	-64.5666	-26.7879	4.42348
 138	1	2	0.070556	-65.2683	-27.5858	3.68129
 139	1	2	0.0266	-64.9911	-27.718	2.37425
 140	1	2	0.33777	-63.5835	-26.0755	3.9388
 141	1	1	-0.659679	-63.2797	-26.2069	2.67506
 142	1	2	0.428714	-63.9716	-27.0064	1.92962
 143	1	2	0.160826	-65.5066	-28.4137	1.34306
 144	1	3	0.04557	-63.8683	-27.3169	0.575932
 145	1	1	-0.463031	-64.8761	-28.1938	0.23529
 146	1	4	-0.07905	-66.219	-28.1918	4.34345
 147	1	5	-0.061319	-62.8875	-25.226	4.77224
 148	1	6	0.28436	-63.1603	-26.4356	-0.369564
 149	1	6	-0.21175	-64.1212	-25.4957	-1.13017
 150	1	7	0.07562	-63.5624	-24.8083	-1.7764
 151	1	7	0.047171	-64.711	-24.8964	-0.425342
 152	1	7	0.053131	-64.8159	-26.0702	-1.75617
 153	1	6	-0.120715	-62.2744	-27.2313	-1.35213
 154	1	8	0.007856	-62.4885	-25.7952	0.214088
 155	1	7	0.031711	-61.5688	-27.869	-0.805172
 156	1	7	0.04419	-61.6932	-26.5523	-1.98809
 157	1	7	-0.003555	-62.883	-27.8733	-2.00177
 158	1	9	-0.011509	-66.6204	-29.2334	1.50162
 159	1	9	-0.199369	-66.4585	-30.6402	1.57734
 160	1	9	-0.201771	-67.5671	-31.4891	1.79264
 161	1	9	0.15189	-68.8216	-30.8839	1.91175
 162	1	9	0.348083	-68.9906	-29.5185	1.80612
 163	1	9	-0.230673	-67.9099	-28.6615	1.60379
 164	1	10	0.174789	-65.4599	-31.0646	1.49111
 165	1	10	0.188672	-67.4575	-32.5653	1.89043
 166	1	10	0.201012	-68.065	-27.5898	1.55787
 167	1	11	-0.381547	-70.0267	-31.4385	2.20582
 168	1	1	-0.706002	-70.2389	-29.2177	2.00631
 169	1	2	0.698504	-70.8342	-30.3296	2.27657
 170	1	12	0.214303	-62.7664	-25.5705	5.71329
 171	1	1	-0.261357	-54.8395	-22.8248	3.23766
 172	1	2	0.070556	-56.0859	-22.4795	3.29321
 173	1	2	0.0266	-56.4294	-21.2698	3.76401
 174	1	2	0.33777	-53.8816	-22.0347	3.64512
 175	1	1	-0.659679	-54.1891	-20.8431	4.08003
 176	1	2	0.428714	-55.4318	-20.4843	4.12795
 177	1	2	0.160826	-57.5858	-20.6221	3.99064
 178	1	3	0.04557	-56.0319	-19.3058	4.56863
 179	1	1	-0.463031	-57.4018	-19.447	4.49561
 180	1	4	-0.07905	-56.8942	-23.4154	2.86354
 181	1	5	-0.061319	-52.5872	-22.4963	3.66367
 182	1	6	0.28436	-55.3369	-18.404	5.5038
 183	1	6	-0.21175	-55.3452	-18.9475	6.94993
 184	1	7	0.07562	-56.3729	-19.0384	7.32393
 185	1	7	0.047171	-54.7902	-18.2812	7.62149
 186	1	7	0.053131	-54.8759	-19.9387	6.9936
 187	1	6	-0.120715	-55.8925	-16.9629	5.4604
 188	1	8	0.007856	-54.2894	-18.3489	5.18048
 189	1	7	0.031711	-55.8705	-16.5715	4.43564
 190	1	7	0.04419	-55.2915	-16.296	6.09072
 191	1	7	-0.003555	-56.9296	-16.9267	5.818
 192	1	9	-0.011509	-58.8025	-21.2561	3.77472
 193	1	9	-0.199369	-59.5221	-21.0432	2.57147
 194	1	9	-0.201771	-60.7088	-21.7612	2.3024
 195	1	9	0.15189	-61.1405	-22.6655	3.27658
 196	1	9	0.348083	-60.4605	-22.8502	4.46184
 197	1	9	-0.230673	-59.2816	-22.1663	4.7427
 198	1	10	0.174789	-59.136	-20.3385	1.83749
 199	1	10	0.188672	-61.2578	-21.6434	1.37255
 200	1	10	0.201012	-58.737	-22.3603	5.65978
 201	1	11	-0.381547	-62.1728	-23.5441	3.24457
 202	1	1	-0.706002	-61.0336	-23.7862	5.1551
 203	1	2	0.698504	-61.9955	-24.2372	4.41921
 204	1	12	0.214303	-52.4859	-23.2979	3.06037
 205	1	1	-0.261357	-50.6196	-25.0495	12.7934
 206	1	2	0.070556	-50.5859	-24.6859	11.5496
 207	1	2	0.0266	-49.6642	-25.1939	10.7135
 208	1	2	0.33777	-49.7673	-25.9076	13.2903
 209	1	1	-0.659679	-48.9026	-26.458	12.4827
 210	1	2	0.428714	-48.8533	-26.0941	11.2432
 211	1	2	0.160826	-49.3301	-25.0445	9.41527
 212	1	3	0.04557	-48.0071	-26.4857	10.2061
 213	1	1	-0.463031	-48.3634	-25.8249	9.05523
 214	1	4	-0.07905	-51.5393	-23.8374	11.2625
 215	1	5	-0.061319	-49.7886	-26.176	14.6466
 216	1	6	0.28436	-47.1686	-27.6965	10.2381
 217	1	6	-0.21175	-47.9924	-28.9948	10.3899
 218	1	7	0.07562	-47.3462	-29.8759	10.2971
 219	1	7	0.047171	-48.7625	-29.0546	9.61061
 220	1	7	0.053131	-48.489	-29.0371	11.3675
 221	1	6	-0.120715	-46.0387	-27.6226	11.29
 222	1	8	0.007856	-46.6759	-27.7516	9.2587
 223	1	7	0.031711	-45.3678	-28.4856	11.1976
 224	1	7	0.04419	-46.4419	-27.6162	12.3102
 225	1	7	-0.003555	-45.4397	-26.714	11.1528
 226	1	9	-0.011509	-49.9414	-24.1465	8.5392
 227	1	9	-0.199369	-50.024	-22.7636	8.85005
 228	1	9	-0.201771	-50.6087	-21.8398	7.95862
 229	1	9	0.15189	-51.0813	-22.342	6.74493
 230	1	9	0.348083	-50.9775	-23.6779	6.41874
 231	1	9	-0.230673	-50.4069	-24.606	7.28599
 232	1	10	0.174789	-49.658	-22.4133	9.80943
 233	1	10	0.188672	-50.7058	-20.787	8.20667
 234	1	10	0.201012	-50.3325	-25.6484	6.99593
 235	1	11	-0.381547	-51.6859	-21.6958	5.71453
 236	1	1	-0.706002	-51.4928	-23.8774	5.24687
 237	1	2	0.698504	-51.9215	-22.7316	4.84233
 238	1	12	0.214303	-50.4535	-25.5992	15.1337
 239	1	1	-0.261357	-41.6489	-24.8189	19.5801
 240	1	2	0.070556	-42.7754	-25.2374	19.099
 241	1	2	0.0266	-43.592	-25.9964	19.8467
 242	1	2	0.33777	-41.2452	-25.1259	20.7862
 243	1	1	-0.659679	-42.0422	-25.8216	21.5529
 244	1	2	0.428714	-43.1776	-26.2327	21.0807
 245	1	2	0.160826	-44.779	-26.6139	19.6691
 246	1	3	0.04557	-44.1917	-26.9918	21.6573
 247	1	1	-0.463031	-45.198	-27.2036	20.7416
 248	1	4	-0.07905	-42.9948	-24.7948	17.8874
 249	1	5	-0.061319	-40.0275	-24.7001	21.2784
 250	1	6	0.28436	-44.2355	-27.3349	23.0883
 251	1	6	-0.21175	-44.4244	-28.8508	23.3127
 252	1	7	0.07562	-43.6367	-29.4153	22.7985
 253	1	7	0.047171	-45.3936	-29.1862	22.922
 254	1	7	0.053131	-44.3789	-29.097	24.3807
 255	1	6	-0.120715	-45.3141	-26.5315	23.8469
 256	1	8	0.007856	-43.2662	-27.0662	23.5265
 257	1	7	0.031711	-45.3027	-26.777	24.916
 258	1	7	0.04419	-46.3147	-26.7526	23.4539
 259	1	7	-0.003555	-45.1373	-25.4538	23.747
 260	1	9	-0.011509	-45.427	-26.6986	18.4353
 261	1	9	-0.199369	-44.7412	-27.232	17.3098
 262	1	9	-0.201771	-45.3744	-27.3599	16.0564
 263	1	9	0.15189	-46.7167	-26.9885	15.9845
 264	1	9	0.348083	-47.4133	-26.5274	17.08
 265	1	9	-0.230673	-46.7981	-26.3658	18.3222
 266	1	10	0.174789	-43.6996	-27.5324	17.4087
 267	1	10	0.188672	-44.8499	-27.7306	15.1803
 268	1	10	0.201012	-47.368	-25.9988	19.167
 269	1	11	-0.381547	-47.5523	-26.9864	14.9192
 270	1	1	-0.706002	-48.6333	-26.2485	16.7262
 271	1	2	0.698504	-48.7168	-26.4971	15.4602
 272	1	12	0.214303	-39.9528	-24.6497	22.2778
 273	1	1	-0.261357	-36.9351	-21.2361	14.1258
 274	1	2	0.070556	-36.7092	-21.7581	15.2894
 275	1	2	0.0266	-35.5312	-22.3467	15.5568
 276	1	2	0.33777	-36.0407	-21.2534	13.1704
 277	1	1	-0.659679	-34.8933	-21.8294	13.4003
 278	1	2	0.428714	-34.6563	-22.3432	14.565
 279	1	2	0.160826	-34.9694	-22.9603	16.6193
 280	1	3	0.04557	-33.5267	-22.9747	15.0827
 281	1	1	-0.463031	-33.7565	-23.3479	16.3866
 282	1	4	-0.07905	-37.7233	-21.6012	16.1003
 283	1	5	-0.061319	-36.2882	-20.726	11.9214
 284	1	6	0.28436	-32.2775	-23.2092	14.3369
 285	1	6	-0.21175	-31.5547	-21.9016	13.9413
 286	1	7	0.07562	-31.3603	-21.2902	14.8308
 287	1	7	0.047171	-32.1557	-21.3114	13.2377
 288	1	7	0.053131	-30.5911	-22.1203	13.4652
 289	1	6	-0.120715	-32.468	-24.1339	13.1139
 290	1	8	0.007856	-31.6068	-23.7399	15.0249
 291	1	7	0.031711	-32.963	-25.0672	13.4104
 292	1	7	0.04419	-31.4985	-24.3919	12.6708
 293	1	7	-0.003555	-33.0776	-23.6541	12.3384
 294	1	9	-0.011509	-35.6418	-23.1461	17.8269
 295	1	9	-0.199369	-35.1338	-22.5674	19.0194
 296	1	9	-0.201771	-35.8195	-22.7037	20.25
 297	1	9	0.15189	-37.0048	-23.4468	20.2425
 298	1	9	0.348083	-37.4726	-24.0527	19.0956
 299	1	9	-0.230673	-36.8152	-23.9323	17.8752
 300	1	10	0.174789	-34.2102	-21.9934	18.9698
 301	1	10	0.188672	-35.4676	-22.2289	21.1608
 302	1	10	0.201012	-37.2352	-24.3956	16.9893
 303	1	11	-0.381547	-37.9166	-23.6549	21.2342
 304	1	1	-0.706002	-38.6073	-24.6255	19.3404
 305	1	2	0.698504	-38.8968	-24.3533	20.5673
 306	1	12	0.214303	-35.6304	-20.9809	11.2064
 307	1	1	-0.261357	-44.9492	-19.5407	10.2014
 308	1	2	0.070556	-43.7247	-19.1291	10.2051
 309	1	2	0.0266	-43.2155	-18.5037	9.13136
 310	1	2	0.33777	-45.7332	-19.3858	9.16481
 311	1	1	-0.659679	-45.2658	-18.7723	8.11057
 312	1	2	0.428714	-44.041	-18.3483	8.11158
 313	1	2	0.160826	-42.0148	-18.0033	8.78986
 314	1	3	0.04557	-43.2868	-17.7223	7.11909
 315	1	1	-0.463031	-42.0006	-17.5404	7.58301
 316	1	4	-0.07905	-43.1098	-19.4483	11.3157
 317	1	5	-0.061319	-46.996	-19.937	9.1353
 318	1	6	0.28436	-43.6285	-17.8805	5.69281
 319	1	6	-0.21175	-42.6473	-18.8115	4.94282
 320	1	7	0.07562	-42.5488	-19.7715	5.46476
 321	1	7	0.047171	-41.649	-18.3598	4.88114
 322	1	7	0.053131	-42.9988	-19.0095	3.92301
 323	1	6	-0.120715	-43.7413	-16.5181	4.97782
 324	1	8	0.007856	-44.6176	-18.3517	5.63415
 325	1	7	0.031711	-44.0407	-16.6512	3.93083
 326	1	7	0.04419	-42.7811	-15.987	4.99783
 327	1	7	-0.003555	-44.4929	-15.8861	5.46748
 328	1	9	-0.011509	-40.931	-18.1177	9.6527
 329	1	9	-0.199369	-40.8709	-17.3451	10.8416
 330	1	9	-0.201771	-39.8644	-17.5776	11.8028
 331	1	9	0.15189	-38.9243	-18.5689	11.5114
 332	1	9	0.348083	-38.9374	-19.2777	10.3282
 333	1	9	-0.230673	-39.9355	-19.081	9.37609
 334	1	10	0.174789	-41.6489	-16.6114	11.0431
 335	1	10	0.188672	-39.8372	-17.0442	12.7484
 336	1	10	0.201012	-39.9662	-19.6828	8.47405
 337	1	11	-0.381547	-37.926	-19.0593	12.2831
 338	1	1	-0.706002	-37.9768	-20.1537	10.333
 339	1	2	0.698504	-37.4115	-20.0554	11.4908
 340	1	12	0.214303	-47.2518	-20.2029	8.19724
 341	1	1	-0.261357	-46.0456	-22.806	17.8758
 342	1	2	0.070556	-46.4793	-22.7796	16.6541
 343	1	2	0.0266	-47.7851	-22.9559	16.393
 344	1	2	0.33777	-46.8461	-22.9918	18.8948
 345	1	1	-0.659679	-48.1179	-23.173	18.668
 346	1	2	0.428714	-48.5576	-23.1438	17.4501
 347	1	2	0.160826	-48.5618	-22.9856	15.2904
 348	1	3	0.04557	-49.8421	-23.2916	16.9326
 349	1	1	-0.463031	-49.8136	-23.172	15.5618
 350	1	4	-0.07905	-45.5295	-22.5575	15.7822
 351	1	5	-0.061319	-46.3969	-23.0743	20.1952
 352	1	6	0.28436	-51.0501	-23.3927	17.7665
 353	1	6	-0.21175	-51.9133	-24.6163	17.3867
 354	1	7	0.07562	-51.3303	-25.5402	17.4858
 355	1	7	0.047171	-52.27	-24.5401	16.3516
 356	1	7	0.053131	-52.786	-24.6959	18.0465
 357	1	6	-0.120715	-51.8881	-22.097	17.7201
 358	1	8	0.007856	-50.7305	-23.5361	18.8062
 359	1	7	0.031711	-52.7592	-22.1715	18.3828
 360	1	7	0.04419	-52.246	-21.8987	16.7016
 361	1	7	-0.003555	-51.2883	-21.2373	18.045
 362	1	9	-0.011509	-48.0704	-22.8124	13.9976
 363	1	9	-0.199369	-47.1764	-23.7548	13.423
 364	1	9	-0.201771	-46.6816	-23.5848	12.1127
 365	1	9	0.15189	-47.1229	-22.4655	11.4055
 366	1	9	0.348083	-48.0047	-21.5542	11.9447
 367	1	9	-0.230673	-48.502	-21.7	13.2386
 368	1	10	0.174789	-46.8475	-24.612	14.0053
 369	1	10	0.188672	-45.9677	-24.2739	11.6733
 370	1	10	0.201012	-49.1817	-20.9618	13.6482
 371	1	11	-0.381547	-46.7576	-22.0215	10.1794
 372	1	1	-0.706002	-48.1747	-20.5706	11.1117
 373	1	2	0.698504	-47.4358	-20.8335	10.0841
 374	1	12	0.214303	-47.0091	-23.5626	20.8234
 375	1	1	-0.261357	-38.064	-20.3062	19.2133
 376	1	2	0.070556	-39.0719	-20.7226	19.9157
 377	1	2	0.0266	-39.1257	-20.5011	21.2419
 378	1	2	0.33777	-37.056	-19.6728	19.7559
 379	1	1	-0.659679	-37.0603	-19.4814	21.0452
 380	1	2	0.428714	-38.0781	-19.8668	21.7462
 381	1	2	0.160826	-39.9653	-20.7829	22.2629
 382	1	3	0.04557	-38.3152	-19.7677	23.115
 383	1	1	-0.463031	-39.5065	-20.3889	23.4069
 384	1	4	-0.07905	-39.922	-21.3854	19.1755
 385	1	5	-0.061319	-35.9437	-19.2843	19.0421
 386	1	6	0.28436	-37.2089	-19.6192	24.0761
 387	1	6	-0.21175	-36.5995	-20.982	24.476
 388	1	7	0.07562	-35.7417	-20.8424	25.145
 389	1	7	0.047171	-36.255	-21.5274	23.5888
 390	1	7	0.053131	-37.3412	-21.6043	24.9929
 391	1	6	-0.120715	-37.6303	-18.8207	25.3288
 392	1	8	0.007856	-36.4185	-19.0396	23.5827
 393	1	7	0.031711	-38.4051	-19.3547	25.8935
 394	1	7	0.04419	-38.0317	-17.8406	25.0425
 395	1	7	-0.003555	-36.7729	-18.6553	25.9934
 396	1	9	-0.011509	-41.1742	-21.4829	22.1738
 397	1	9	-0.199369	-41.4676	-22.4678	23.1586
 398	1	9	-0.201771	-42.6826	-23.1861	23.1481
 399	1	9	0.15189	-43.5823	-22.8996	22.1205
 400	1	9	0.348083	-43.326	-21.9287	21.1772
 401	1	9	-0.230673	-42.1527	-21.1764	21.1968
 402	1	10	0.174789	-40.7434	-22.6626	23.9477
 403	1	10	0.188672	-42.9072	-23.9509	23.8854
 404	1	10	0.201012	-42.0169	-20.3902	20.4632
 405	1	11	-0.381547	-44.7874	-23.4609	21.8406
 406	1	1	-0.706002	-44.3193	-21.865	20.3457
 407	1	2	0.698504	-45.1484	-22.7879	20.7005
 408	1	12	0.214303	-35.0857	-19.313	19.5613
 409	1	1	-0.261357	-30.3627	-16.5128	12.7841
 410	1	2	0.070556	-31.5055	-16.9674	13.196
 411	1	2	0.0266	-32.2485	-17.752	12.3993
 412	1	2	0.33777	-29.8975	-16.7742	11.5897
 413	1	1	-0.659679	-30.5952	-17.5502	10.8043
 414	1	2	0.428714	-31.7363	-18.0109	11.2079
 415	1	2	0.160826	-33.4444	-18.3645	12.4883
 416	1	3	0.04557	-32.6731	-18.8275	10.5765
 417	1	1	-0.463031	-33.761	-18.9953	11.4042
 418	1	4	-0.07905	-31.8173	-16.5631	14.401
 419	1	5	-0.061319	-28.6599	-16.2834	11.225
 420	1	6	0.28436	-32.6885	-19.0198	9.11656
 421	1	6	-0.21175	-33.3754	-17.8456	8.38518
 422	1	7	0.07562	-33.337	-17.9882	7.29844
 423	1	7	0.047171	-32.874	-16.8981	8.62001
 424	1	7	0.053131	-34.4277	-17.7606	8.68525
 425	1	6	-0.120715	-33.3344	-20.3642	8.71113
 426	1	8	0.007856	-31.6442	-19.0522	8.78063
 427	1	7	0.031711	-33.2621	-20.5193	7.62752
 428	1	7	0.04419	-34.3956	-20.3913	8.99023
 429	1	7	-0.003555	-32.8285	-21.2023	9.20713
 430	1	9	-0.011509	-34.2585	-18.2899	13.6171
 431	1	9	-0.199369	-35.5155	-17.6397	13.5294
 432	1	9	-0.201771	-36.4112	-17.6277	14.6219
 433	1	9	0.15189	-36.0075	-18.2829	15.787
 434	1	9	0.348083	-34.7835	-18.9076	15.885
 435	1	9	-0.230673	-33.8843	-18.9339	14.8197
 436	1	10	0.174789	-35.8097	-17.174	12.5908
 437	1	10	0.188672	-37.3904	-17.1631	14.557
 438	1	10	0.201012	-32.9415	-19.4547	14.9196
 439	1	11	-0.381547	-36.6652	-18.4532	16.9634
 440	1	1	-0.706002	-34.6538	-19.4206	17.071
 441	1	2	0.698504	-35.7748	-19.2153	17.6794
 442	1	12	0.214303	-28.0993	-15.9636	11.9949
 443	1	1	-0.261357	-26.6247	-8.97373	5.87727
 444	1	2	0.070556	-26.7844	-10.2145	6.21604
 445	1	2	0.0266	-25.8917	-11.1399	5.83261
 446	1	2	0.33777	-25.6062	-8.56836	5.16433
 447	1	1	-0.659679	-24.7192	-9.44983	4.78057
 448	1	2	0.428714	-24.8731	-10.6951	5.11472
 449	1	2	0.160826	-25.75	-12.4691	6.0042
 450	1	3	0.04557	-24.1068	-11.8301	4.85
 451	1	1	-0.463031	-24.6761	-12.9292	5.45244
 452	1	4	-0.07905	-27.8542	-10.4177	6.9423
 453	1	5	-0.061319	-25.5343	-7.23303	4.82153
 454	1	6	0.28436	-22.7504	-11.7705	4.28653
 455	1	6	-0.21175	-22.4464	-12.9512	3.33989
 456	1	7	0.07562	-23.195	-13.0036	2.54014
 457	1	7	0.047171	-22.4559	-13.9043	3.88346
 458	1	7	0.053131	-21.4616	-12.8284	2.87555
 459	1	6	-0.120715	-21.6677	-11.6462	5.38025
 460	1	8	0.007856	-22.7102	-10.8654	3.67826
 461	1	7	0.031711	-21.6583	-12.5355	6.02331
 462	1	7	0.04419	-21.8549	-10.7688	6.01169
 463	1	7	-0.003555	-20.672	-11.5345	4.93293
 464	1	9	-0.011509	-26.668	-13.2383	6.7162
 465	1	9	-0.199369	-27.9333	-13.5496	6.15151
 466	1	9	-0.201771	-28.8708	-14.3402	6.85414
 467	1	9	0.15189	-28.4932	-14.8101	8.11549
 468	1	9	0.348083	-27.258	-14.5291	8.66115
 469	1	9	-0.230673	-26.3191	-13.7467	7.98825
 470	1	10	0.174789	-28.1832	-13.1709	5.16245
 471	1	10	0.188672	-29.8464	-14.5818	6.44166
 472	1	10	0.201012	-25.3525	-13.5449	8.43582
 473	1	11	-0.381547	-29.1862	-15.5712	9.00361
 474	1	1	-0.706002	-27.1717	-15.0753	9.83722
 475	1	2	0.698504	-28.2812	-15.707	10.03
 476	1	12	0.214303	-26.4124	-6.76336	4.9552
 477	1	1	-0.261357	-20.396	-5.01562	-2.94958
 478	1	2	0.070556	-21.0986	-4.91455	-1.86567
 479	1	2	0.0266	-20.6442	-4.20305	-0.821955
 480	1	2	0.33777	-19.2214	-4.45602	-3.07376
 481	1	1	-0.659679	-18.7637	-3.74426	-2.07874
 482	1	2	0.428714	-19.4621	-3.6349	-0.993306
 483	1	2	0.160826	-21.0789	-3.909	0.420354
 484	1	3	0.04557	-19.1884	-2.98913	0.210311
 485	1	1	-0.463031	-20.2436	-3.17027	1.07605
 486	1	4	-0.07905	-22.225	-5.57307	-1.93849
 487	1	5	-0.061319	-18.5221	-4.61643	-4.25218
 488	1	6	0.28436	-18.1848	-1.9175	0.319366
 489	1	6	-0.21175	-17.4191	-1.97441	1.65896
 490	1	7	0.07562	-16.9694	-2.96359	1.79818
 491	1	7	0.047171	-18.0933	-1.7869	2.50416
 492	1	7	0.053131	-16.6171	-1.22697	1.68416
 493	1	6	-0.120715	-18.8057	-0.518178	0.113479
 494	1	8	0.007856	-17.4484	-2.07123	-0.479587
 495	1	7	0.031711	-18.0281	0.255444	0.103243
 496	1	7	0.04419	-19.5139	-0.284129	0.918351
 497	1	7	-0.003555	-19.3497	-0.465515	-0.836932
 498	1	9	-0.011509	-22.2669	-4.39707	0.96776
 499	1	9	-0.199369	-23.5331	-4.11006	0.391073
 500	1	9	-0.201771	-24.7236	-4.62437	0.950283
 501	1	9	0.15189	-24.6033	-5.40394	2.10345
 502	1	9	0.348083	-23.3842	-5.65672	2.69461
 503	1	9	-0.230673	-22.1984	-5.16011	2.15555
 504	1	10	0.174789	-23.5862	-3.51037	-0.512503
 505	1	10	0.188672	-25.696	-4.44119	0.5031
 506	1	10	0.201012	-21.2473	-5.35931	2.63492
 507	1	11	-0.381547	-25.5628	-6.03845	2.82534
 508	1	1	-0.706002	-23.5581	-6.41164	3.74108
 509	1	2	0.698504	-24.8201	-6.69271	3.77607
 510	1	12	0.214303	-19.1093	-4.78837	-5.05107
 511	1	1	-0.261357	-12.4822	-4.20738	-10.4905
 512	1	2	0.070556	-12.8546	-3.95839	-9.27458
 513	1	2	0.0266	-12.4634	-2.82907	-8.66258
 514	1	2	0.33777	-11.7182	-3.38695	-11.1646
 515	1	1	-0.659679	-11.3098	-2.29088	-10.5843
 516	1	2	0.428714	-11.6741	-2.03865	-9.3673
 517	1	2	0.160826	-12.664	-2.26048	-7.45847
 518	1	3	0.04557	-11.3906	-0.95896	-8.53198
 519	1	1	-0.463031	-12.0207	-1.14599	-7.32035
 520	1	4	-0.07905	-13.585	-4.91614	-8.76343
 521	1	5	-0.061319	-11.4114	-3.6175	-12.4884
 522	1	6	0.28436	-10.1989	-0.117308	-8.74039
 523	1	6	-0.21175	-8.90009	-0.836967	-8.31342
 524	1	7	0.07562	-8.02264	-0.212395	-8.52078
 525	1	7	0.047171	-8.77985	-1.7801	-8.86127
 526	1	7	0.053131	-8.91557	-1.06453	-7.23992
 527	1	6	-0.120715	-10.3071	1.25635	-8.04029
 528	1	8	0.007856	-10.1276	0.0785254	-9.81792
 529	1	7	0.031711	-9.44118	1.88463	-8.28315
 530	1	7	0.04419	-10.3494	1.13941	-6.94992
 531	1	7	-0.003555	-11.2096	1.78989	-8.36163
 532	1	9	-0.011509	-13.5029	-2.81909	-6.49771
 533	1	9	-0.199369	-12.9827	-3.21397	-5.23839
 534	1	9	-0.201771	-13.8264	-3.74266	-4.23505
 535	1	9	0.15189	-15.1883	-3.84613	-4.5307
 536	1	9	0.348083	-15.6958	-3.4696	-5.75407
 537	1	9	-0.230673	-14.8873	-2.94053	-6.75562
 538	1	10	0.174789	-11.9177	-3.10156	-5.04597
 539	1	10	0.188672	-13.4464	-4.05869	-3.27088
 540	1	10	0.201012	-15.326	-2.6335	-7.69827
 541	1	11	-0.381547	-16.2217	-4.27315	-3.7569
 542	1	1	-0.706002	-16.9744	-3.67311	-5.77241
 543	1	2	0.698504	-17.2994	-4.08026	-4.59217
 544	1	12	0.214303	-11.3185	-2.79958	-13.0661
 545	1	1	-0.261357	-5.87043	-7.27455	-18.3779
 546	1	2	0.070556	-6.67756	-7.33668	-17.3656
 547	1	2	0.0266	-7.46945	-8.40774	-17.1973
 548	1	2	0.33777	-5.7923	-8.23363	-19.2668
 549	1	1	-0.659679	-6.52964	-9.29808	-19.1086
 550	1	2	0.428714	-7.34023	-9.36625	-18.0998
 551	1	2	0.160826	-8.40107	-8.79409	-16.3043
 552	1	3	0.04557	-8.24204	-10.3576	-17.7158
 553	1	1	-0.463031	-8.87243	-9.97193	-16.5541
 554	1	4	-0.07905	-6.60173	-6.28841	-16.5858
 555	1	5	-0.061319	-5.02343	-8.11504	-20.4051
 556	1	6	0.28436	-8.12078	-11.7512	-18.1767
 557	1	6	-0.21175	-9.49936	-12.4164	-18.3837
 558	1	7	0.07562	-9.38708	-13.4308	-18.7851
 559	1	7	0.047171	-10.1046	-11.8353	-19.0905
 560	1	7	0.053131	-10.0494	-12.4797	-17.4359
 561	1	6	-0.120715	-7.24184	-12.6003	-17.2319
 562	1	8	0.007856	-7.62558	-11.7342	-19.1558
 563	1	7	0.031711	-7.1275	-13.6209	-17.6174
 564	1	7	0.04419	-7.68812	-12.6589	-16.2309
 565	1	7	-0.003555	-6.24094	-12.1609	-17.1347
 566	1	9	-0.011509	-8.81187	-8.01369	-15.2247
 567	1	9	-0.199369	-8.66086	-8.5164	-13.9062
 568	1	9	-0.201771	-9.14189	-7.79816	-12.7895
 569	1	9	0.15189	-9.77487	-6.57892	-13.0411
 570	1	9	0.348083	-9.93035	-6.08191	-14.3182
 571	1	9	-0.230673	-9.47202	-6.77883	-15.4357
 572	1	10	0.174789	-8.18729	-9.4853	-13.7602
 573	1	10	0.188672	-9.04951	-8.17756	-11.776
 574	1	10	0.201012	-9.63671	-6.37681	-16.4292
 575	1	11	-0.381547	-10.3621	-5.71497	-12.175
 576	1	1	-0.706002	-10.5669	-4.95061	-14.2679
 577	1	2	0.698504	-10.8535	-4.75431	-13.0253
 578	1	12	0.214303	-5.28493	-8.82206	-21.0686
 579	1	1	-0.261357	-8.71789	-1.11166	-19.3887
 580	1	2	0.070556	-7.73634	-1.68607	-20.0055
 581	1	2	0.0266	-7.24344	-1.15569	-21.1369
 582	1	2	0.33777	-9.26814	-0.0087167	-19.8279
 583	1	1	-0.659679	-8.81407	0.519772	-20.9319
 584	1	2	0.428714	-7.82085	-0.040657	-21.5508
 585	1	2	0.160826	-6.25795	-1.47521	-21.9959
 586	1	3	0.04557	-7.1316	0.319115	-22.7137
 587	1	1	-0.463031	-6.13624	-0.606121	-22.944
 588	1	4	-0.07905	-7.3232	-2.76353	-19.3867
 589	1	5	-0.061319	-10.3347	0.57277	-19.1733
 590	1	6	0.28436	-7.00762	1.7212	-23.1532
 591	1	6	-0.21175	-6.38413	2.63874	-22.076
 592	1	7	0.07562	-5.43185	2.22267	-21.7237
 593	1	7	0.047171	-7.05106	2.74885	-21.2117
 594	1	7	0.053131	-6.18736	3.63742	-22.4844
 595	1	6	-0.120715	-8.32907	2.31025	-23.6942
 596	1	8	0.007856	-6.3063	1.71335	-23.9977
 597	1	7	0.031711	-9.07883	2.40835	-22.8998
 598	1	7	0.04419	-8.7437	1.66672	-24.48
 599	1	7	-0.003555	-8.16087	3.305	-24.1258
 600	1	9	-0.011509	-5.4899	-2.6172	-21.7955
 601	1	9	-0.199369	-4.21313	-2.5145	-21.1872
 602	1	9	-0.201771	-3.50318	-3.67125	-20.795
 603	1	9	0.15189	-4.09924	-4.90771	-21.0606
 604	1	9	0.348083	-5.30922	-5.01317	-21.7165
 605	1	9	-0.230673	-6.03805	-3.88629	-22.088
 606	1	10	0.174789	-3.81063	-1.5297	-20.9589
 607	1	10	0.188672	-2.56485	-3.61298	-20.2511
 608	1	10	0.201012	-7.03187	-3.99719	-22.5065
 609	1	11	-0.381547	-3.75412	-6.14279	-20.6104
 610	1	1	-0.706002	-5.71278	-6.24588	-21.6872
 611	1	2	0.698504	-4.82442	-6.89948	-21.0192
 612	1	12	0.214303	-11.0651	0.908702	-19.7751
 613	1	1	-0.261357	-13.4613	1.08563	-9.94005
 614	1	2	0.070556	-13.0753	0.768397	-11.1346