

################################################################################
##################################    Init    ##################################
################################################################################
units           real
atom_style      full
pair_style      lj/cut/coul/long 12.0  12.0
kspace_style    pppm 1e-4
bond_style      harmonic
angle_style     harmonic
dihedral_style  fourier
improper_style  cvff
special_bonds   amber
pair_modify     mix arithmetic
read_data       temp.lmps
  orthogonal box = (-85.7168 -85.7168 -85.7168) to (85.7168 85.7168 85.7168)
  1 by 1 by 1 MPI processor grid
  reading atoms ...
  68 atoms
  reading velocities ...
  68 velocities
  scanning bonds ...
  3 = max bonds/atom
  scanning angles ...
  6 = max angles/atom
  scanning dihedrals ...
  18 = max dihedrals/atom
  scanning impropers ...
  2 = max impropers/atom
  reading bonds ...
  75 bonds
  reading angles ...
  122 angles
  reading dihedrals ...
  184 dihedrals
  reading impropers ...
  8 impropers
  4 = max # of 1-2 neighbors
  8 = max # of 1-3 neighbors
  17 = max # of 1-4 neighbors
  18 = max # of special neighbors
  special bonds CPU = 0.000213146 secs
  read_data CPU = 0.0176029 secs
################################################################################

timestep        1
fix             pysimm_md all nve/limit 0.1
run             2000
PPPM initialization ...
  using 12-bit tables for long-range coulomb (../kspace.cpp:332)
  G vector (1/distance) = 0.0818918
  grid = 12 12 12
  stencil order = 5
  estimated absolute RMS force accuracy = 0.0309633
  estimated relative force accuracy = 9.32451e-05
  using double precision KISS FFT
  3d grid and FFT values/proc = 4913 1728
Neighbor list info ...
  update every 1 steps, delay 10 steps, check yes
  max neighbors/atom: 2000, page size: 100000
  master list distance cutoff = 14
  ghost atom cutoff = 14
  binsize = 7, bins = 25 25 25
  1 neighbor lists, perpetual/occasional/extra = 1 0 0
  (1) pair lj/cut/coul/long, perpetual
      attributes: half, newton on
      pair build: half/bin/newton
      stencil: half/bin/3d/newton
      bin: standard
Per MPI rank memory allocation (min/avg/max) = 16.02 | 16.02 | 16.02 Mbytes
Step Temp E_pair E_mol TotEng Press 
       0    2.9823858   -82.645775    291.97798    209.92783   -3.2291715 
    2000    352.71216   -69.490106    187.35965     188.3112    0.1432914 
Loop time of 1.03343 on 1 procs for 2000 steps with 68 atoms

Performance: 167.210 ns/day, 0.144 hours/ns, 1935.299 timesteps/s
99.9% CPU use with 1 MPI tasks x no OpenMP threads

MPI task timing breakdown:
Section |  min time  |  avg time  |  max time  |%varavg| %total
---------------------------------------------------------------
Pair    | 0.093181   | 0.093181   | 0.093181   |   0.0 |  9.02
Bond    | 0.057011   | 0.057011   | 0.057011   |   0.0 |  5.52
Kspace  | 0.87148    | 0.87148    | 0.87148    |   0.0 | 84.33
Neigh   | 0.0048478  | 0.0048478  | 0.0048478  |   0.0 |  0.47
Comm    | 0.00076413 | 0.00076413 | 0.00076413 |   0.0 |  0.07
Output  | 3.6001e-05 | 3.6001e-05 | 3.6001e-05 |   0.0 |  0.00
Modify  | 0.0028799  | 0.0028799  | 0.0028799  |   0.0 |  0.28
Other   |            | 0.003233   |            |       |  0.31

Nlocal:    68 ave 68 max 68 min
Histogram: 1 0 0 0 0 0 0 0 0 0
Nghost:    0 ave 0 max 0 min
Histogram: 1 0 0 0 0 0 0 0 0 0
Neighs:    1919 ave 1919 max 1919 min
Histogram: 1 0 0 0 0 0 0 0 0 0

Total # of neighbors = 1919
Ave neighs/atom = 28.2206
Ave special neighs/atom = 10.3824
Neighbor list builds = 52
Dangerous builds = 0
unfix pysimm_md
min_style cg
minimize 0.001 0.001 10000 100000
WARNING: Using 'neigh_modify every 1 delay 0 check yes' setting during minimization (../min.cpp:190)
PPPM initialization ...
  using 12-bit tables for long-range coulomb (../kspace.cpp:332)
  G vector (1/distance) = 0.0818918
  grid = 12 12 12
  stencil order = 5
  estimated absolute RMS force accuracy = 0.0309633
  estimated relative force accuracy = 9.32451e-05
  using double precision KISS FFT
  3d grid and FFT values/proc = 4913 1728
Per MPI rank memory allocation (min/avg/max) = 17.14 | 17.14 | 17.14 Mbytes
Step Temp E_pair E_mol TotEng Press 
    2000    352.71216   -69.490106    187.35965     188.3112    0.1432914 
    2014    352.71216   -73.132461    137.14129    134.45048   0.44487627 
Loop time of 0.0450108 on 1 procs for 14 steps with 68 atoms

100.0% CPU use with 1 MPI tasks x no OpenMP threads

Minimization stats:
  Stopping criterion = linesearch alpha is zero
  Energy initial, next-to-last, final = 
         117.869543141      64.0088288832      64.0088288832
  Force two-norm initial, final = 320.551 32.4934
  Force max component initial, final = 76.3796 7.05321
  Final line search alpha, max atom move = 9.9393e-12 7.0104e-11
  Iterations, force evaluations = 14 84

MPI task timing breakdown:
Section |  min time  |  avg time  |  max time  |%varavg| %total
---------------------------------------------------------------
Pair    | 0.0068128  | 0.0068128  | 0.0068128  |   0.0 | 15.14
Bond    | 0.0026984  | 0.0026984  | 0.0026984  |   0.0 |  6.00
Kspace  | 0.0352     | 0.0352     | 0.0352     |   0.0 | 78.20
Neigh   | 0          | 0          | 0          |   0.0 |  0.00
Comm    | 3.9577e-05 | 3.9577e-05 | 3.9577e-05 |   0.0 |  0.09
Output  | 0          | 0          | 0          |   0.0 |  0.00
Modify  | 0          | 0          | 0          |   0.0 |  0.00
Other   |            | 0.0002596  |            |       |  0.58

Nlocal:    68 ave 68 max 68 min
Histogram: 1 0 0 0 0 0 0 0 0 0
Nghost:    0 ave 0 max 0 min
Histogram: 1 0 0 0 0 0 0 0 0 0
Neighs:    1913 ave 1913 max 1913 min
Histogram: 1 0 0 0 0 0 0 0 0 0

Total # of neighbors = 1913
Ave neighs/atom = 28.1324
Ave special neighs/atom = 10.3824
Neighbor list builds = 0
Dangerous builds = 0
write_dump all custom pysimm.dump.tmp id q x y z vx vy vz
quit


################################################################################
##################################    Init    ##################################
################################################################################
units           real
atom_style      full
pair_style      lj/cut/coul/long 12.0  12.0
kspace_style    pppm 1e-4
bond_style      harmonic
angle_style     harmonic
dihedral_style  fourier
improper_style  cvff
special_bonds   amber
pair_modify     mix arithmetic
read_data       temp.lmps
  orthogonal box = (-85.7168 -85.7168 -85.7168) to (85.7168 85.7168 85.7168)
  1 by 1 by 1 MPI processor grid
  reading atoms ...
  102 atoms
  reading velocities ...
  102 velocities
  scanning bonds ...
  3 = max bonds/atom
  scanning angles ...
  6 = max angles/atom
  scanning dihedrals ...
  18 = max dihedrals/atom
  scanning impropers ...
  2 = max impropers/atom
  reading bonds ...
  113 bonds
  reading angles ...
  185 angles
  reading dihedrals ...
  280 dihedrals
  reading impropers ...
  12 impropers
  4 = max # of 1-2 neighbors
  8 = max # of 1-3 neighbors
  17 = max # of 1-4 neighbors
  18 = max # of special neighbors
  special bonds CPU = 0.00029707 secs
  read_data CPU = 0.0461068 secs
################################################################################

timestep        1
fix             pysimm_md all nve/limit 0.1
run             2000
PPPM initialization ...
  using 12-bit tables for long-range coulomb (../kspace.cpp:332)
  G vector (1/distance) = 0.0968677
  grid = 15 15 15
  stencil order = 5
  estimated absolute RMS force accuracy = 0.0257893
  estimated relative force accuracy = 7.76636e-05
  using double precision KISS FFT
  3d grid and FFT values/proc = 8000 3375
Neighbor list info ...
  update every 1 steps, delay 10 steps, check yes
  max neighbors/atom: 2000, page size: 100000
  master list distance cutoff = 14
  ghost atom cutoff = 14
  binsize = 7, bins = 25 25 25
  1 neighbor lists, perpetual/occasional/extra = 1 0 0
  (1) pair lj/cut/coul/long, perpetual
      attributes: half, newton on
      pair build: half/bin/newton
      stencil: half/bin/3d/newton
      bin: standard
Per MPI rank memory allocation (min/avg/max) = 16.28 | 16.28 | 16.28 Mbytes
Step Temp E_pair E_mol TotEng Press 
       0    234.96688    -128.7476    373.14664    315.13859   -2.7348523 
    2000    345.48834   -130.12004     308.5916    282.48491   -1.7744677 
Loop time of 1.80785 on 1 procs for 2000 steps with 102 atoms

Performance: 95.583 ns/day, 0.251 hours/ns, 1106.287 timesteps/s
99.9% CPU use with 1 MPI tasks x no OpenMP threads

MPI task timing breakdown:
Section |  min time  |  avg time  |  max time  |%varavg| %total
---------------------------------------------------------------
Pair    | 0.15384    | 0.15384    | 0.15384    |   0.0 |  8.51
Bond    | 0.085259   | 0.085259   | 0.085259   |   0.0 |  4.72
Kspace  | 1.5523     | 1.5523     | 1.5523     |   0.0 | 85.86
Neigh   | 0.007839   | 0.007839   | 0.007839   |   0.0 |  0.43
Comm    | 0.00076485 | 0.00076485 | 0.00076485 |   0.0 |  0.04
Output  | 2.5988e-05 | 2.5988e-05 | 2.5988e-05 |   0.0 |  0.00
Modify  | 0.0039148  | 0.0039148  | 0.0039148  |   0.0 |  0.22
Other   |            | 0.003908   |            |       |  0.22

Nlocal:    102 ave 102 max 102 min
Histogram: 1 0 0 0 0 0 0 0 0 0
Nghost:    0 ave 0 max 0 min
Histogram: 1 0 0 0 0 0 0 0 0 0
Neighs:    3235 ave 3235 max 3235 min
Histogram: 1 0 0 0 0 0 0 0 0 0

Total # of neighbors = 3235
Ave neighs/atom = 31.7157
Ave special neighs/atom = 10.5098
Neighbor list builds = 56
Dangerous builds = 0
unfix pysimm_md
min_style cg
minimize 0.001 0.001 10000 100000
WARNING: Using 'neigh_modify every 1 delay 0 check yes' setting during minimization (../min.cpp:190)
PPPM initialization ...
  using 12-bit tables for long-range coulomb (../kspace.cpp:332)
  G vector (1/distance) = 0.0968677
  grid = 15 15 15
  stencil order = 5
  estimated absolute RMS force accuracy = 0.0257893
  estimated relative force accuracy = 7.76636e-05
  using double precision KISS FFT
  3d grid and FFT values/proc = 8000 3375
Per MPI rank memory allocation (min/avg/max) = 17.41 | 17.41 | 17.41 Mbytes
Step Temp E_pair E_mol TotEng Press 
    2000    345.48834   -130.12004     308.5916    282.48491   -1.7744677 
    2041    345.48834   -130.32077     194.0123    167.70487    1.0658359 
Loop time of 0.130337 on 1 procs for 41 steps with 102 atoms

100.5% CPU use with 1 MPI tasks x no OpenMP threads

Minimization stats:
  Stopping criterion = linesearch alpha is zero
  Energy initial, next-to-last, final = 
          178.47155854      63.6915269754      63.6915269754
  Force two-norm initial, final = 480.392 14.5026
  Force max component initial, final = 115.954 2.50944
  Final line search alpha, max atom move = 5.79259e-11 1.45361e-10
  Iterations, force evaluations = 41 135

MPI task timing breakdown:
Section |  min time  |  avg time  |  max time  |%varavg| %total
---------------------------------------------------------------
Pair    | 0.016752   | 0.016752   | 0.016752   |   0.0 | 12.85
Bond    | 0.0064306  | 0.0064306  | 0.0064306  |   0.0 |  4.93
Kspace  | 0.1066     | 0.1066     | 0.1066     |   0.0 | 81.79
Neigh   | 0          | 0          | 0          |   0.0 |  0.00
Comm    | 4.0293e-05 | 4.0293e-05 | 4.0293e-05 |   0.0 |  0.03
Output  | 0          | 0          | 0          |   0.0 |  0.00
Modify  | 0          | 0          | 0          |   0.0 |  0.00
Other   |            | 0.0005126  |            |       |  0.39

Nlocal:    102 ave 102 max 102 min
Histogram: 1 0 0 0 0 0 0 0 0 0
Nghost:    0 ave 0 max 0 min
Histogram: 1 0 0 0 0 0 0 0 0 0
Neighs:    3227 ave 3227 max 3227 min
Histogram: 1 0 0 0 0 0 0 0 0 0

Total # of neighbors = 3227
Ave neighs/atom = 31.6373
Ave special neighs/atom = 10.5098
Neighbor list builds = 0
Dangerous builds = 0
write_dump all custom pysimm.dump.tmp id q x y z vx vy vz
quit


################################################################################
##################################    Init    ##################################
################################################################################
units           real
atom_style      full
pair_style      lj/cut/coul/long 12.0  12.0
kspace_style    pppm 1e-4
bond_style      harmonic
angle_style     harmonic
dihedral_style  fourier
improper_style  cvff
special_bonds   amber
pair_modify     mix arithmetic
read_data       temp.lmps
  orthogonal box = (-85.7168 -85.7168 -85.7168) to (85.7168 85.7168 85.7168)
  1 by 1 by 1 MPI processor grid
  reading atoms ...
  136 atoms
  reading velocities ...
  136 velocities
  scanning bonds ...
  3 = max bonds/atom
  scanning angles ...
  6 = max angles/atom
  scanning dihedrals ...
  18 = max dihedrals/atom
  scanning impropers ...
  2 = max impropers/atom
  reading bonds ...
  151 bonds
  reading angles ...
  248 angles
  reading dihedrals ...
  376 dihedrals
  reading impropers ...
  16 impropers
  4 = max # of 1-2 neighbors
  8 = max # of 1-3 neighbors
  17 = max # of 1-4 neighbors
  18 = max # of special neighbors
  special bonds CPU = 0.000241995 secs
  read_data CPU = 0.00430202 secs
################################################################################

timestep        1
fix             pysimm_md all nve/limit 0.1
run             2000
PPPM initialization ...
  using 12-bit tables for long-range coulomb (../kspace.cpp:332)
  G vector (1/distance) = 0.0968681
  grid = 15 15 15
  stencil order = 5
  estimated absolute RMS force accuracy = 0.0297792
  estimated relative force accuracy = 8.96792e-05
  using double precision KISS FFT
  3d grid and FFT values/proc = 8000 3375
Neighbor list info ...
  update every 1 steps, delay 10 steps, check yes
  max neighbors/atom: 2000, page size: 100000
  master list distance cutoff = 14
  ghost atom cutoff = 14
  binsize = 7, bins = 25 25 25
  1 neighbor lists, perpetual/occasional/extra = 1 0 0
  (1) pair lj/cut/coul/long, perpetual
      attributes: half, newton on
      pair build: half/bin/newton
      stencil: half/bin/3d/newton
      bin: standard
Per MPI rank memory allocation (min/avg/max) = 16.29 | 16.29 | 16.29 Mbytes
Step Temp E_pair E_mol TotEng Press 
       0    259.21663   -185.65255    431.32478    349.98342   -1.7602922 
    2000    305.34286   -180.54299    375.96654    318.29637   -3.9247996 
Loop time of 1.94605 on 1 procs for 2000 steps with 136 atoms

Performance: 88.795 ns/day, 0.270 hours/ns, 1027.720 timesteps/s
100.0% CPU use with 1 MPI tasks x no OpenMP threads

MPI task timing breakdown:
Section |  min time  |  avg time  |  max time  |%varavg| %total
---------------------------------------------------------------
Pair    | 0.21835    | 0.21835    | 0.21835    |   0.0 | 11.22
Bond    | 0.1137     | 0.1137     | 0.1137     |   0.0 |  5.84
Kspace  | 1.5944     | 1.5944     | 1.5944     |   0.0 | 81.93
Neigh   | 0.0093057  | 0.0093057  | 0.0093057  |   0.0 |  0.48
Comm    | 0.00094366 | 0.00094366 | 0.00094366 |   0.0 |  0.05
Output  | 2.6941e-05 | 2.6941e-05 | 2.6941e-05 |   0.0 |  0.00
Modify  | 0.0049558  | 0.0049558  | 0.0049558  |   0.0 |  0.25
Other   |            | 0.004331   |            |       |  0.22

Nlocal:    136 ave 136 max 136 min
Histogram: 1 0 0 0 0 0 0 0 0 0
Nghost:    0 ave 0 max 0 min
Histogram: 1 0 0 0 0 0 0 0 0 0
Neighs:    4661 ave 4661 max 4661 min
Histogram: 1 0 0 0 0 0 0 0 0 0

Total # of neighbors = 4661
Ave neighs/atom = 34.2721
Ave special neighs/atom = 10.5735
Neighbor list builds = 49
Dangerous builds = 0
unfix pysimm_md
min_style cg
minimize 0.001 0.001 10000 100000
WARNING: Using 'neigh_modify every 1 delay 0 check yes' setting during minimization (../min.cpp:190)
PPPM initialization ...
  using 12-bit tables for long-range coulomb (../kspace.cpp:332)
  G vector (1/distance) = 0.0968681
  grid = 15 15 15
  stencil order = 5
  estimated absolute RMS force accuracy = 0.0297792
  estimated relative force accuracy = 8.96792e-05
  using double precision KISS FFT
  3d grid and FFT values/proc = 8000 3375
Per MPI rank memory allocation (min/avg/max) = 17.41 | 17.41 | 17.41 Mbytes
Step Temp E_pair E_mol TotEng Press 
    2000    305.34286   -180.54299    375.96654    318.29637   -3.9247996 
    2029    305.34286   -180.18156    261.08743    203.77869    1.8623779 
Loop time of 0.0616989 on 1 procs for 29 steps with 136 atoms

100.5% CPU use with 1 MPI tasks x no OpenMP threads

Minimization stats:
  Stopping criterion = energy tolerance
  Energy initial, next-to-last, final = 
         195.423547426      80.9122204882       80.905868943
  Force two-norm initial, final = 464.664 23.7762
  Force max component initial, final = 141.305 6.0734
  Final line search alpha, max atom move = 0.00663134 0.0402748
  Iterations, force evaluations = 29 58

MPI task timing breakdown:
Section |  min time  |  avg time  |  max time  |%varavg| %total
---------------------------------------------------------------
Pair    | 0.010532   | 0.010532   | 0.010532   |   0.0 | 17.07
Bond    | 0.0036924  | 0.0036924  | 0.0036924  |   0.0 |  5.98
Kspace  | 0.047157   | 0.047157   | 0.047157   |   0.0 | 76.43
Neigh   | 0          | 0          | 0          |   0.0 |  0.00
Comm    | 1.5736e-05 | 1.5736e-05 | 1.5736e-05 |   0.0 |  0.03
Output  | 0          | 0          | 0          |   0.0 |  0.00
Modify  | 0          | 0          | 0          |   0.0 |  0.00
Other   |            | 0.0003023  |            |       |  0.49

Nlocal:    136 ave 136 max 136 min
Histogram: 1 0 0 0 0 0 0 0 0 0
Nghost:    0 ave 0 max 0 min
Histogram: 1 0 0 0 0 0 0 0 0 0
Neighs:    4662 ave 4662 max 4662 min
Histogram: 1 0 0 0 0 0 0 0 0 0

Total # of neighbors = 4662
Ave neighs/atom = 34.2794
Ave special neighs/atom = 10.5735
Neighbor list builds = 0
Dangerous builds = 0
write_dump all custom pysimm.dump.tmp id q x y z vx vy vz
quit


################################################################################
##################################    Init    ##################################
################################################################################
units           real
atom_style      full
pair_style      lj/cut/coul/long 12.0  12.0
kspace_style    pppm 1e-4
bond_style      harmonic
angle_style     harmonic
dihedral_style  fourier
improper_style  cvff
special_bonds   amber
pair_modify     mix arithmetic
read_data       temp.lmps
  orthogonal box = (-85.7168 -85.7168 -85.7168) to (85.7168 85.7168 85.7168)
  1 by 1 by 1 MPI processor grid
  reading atoms ...
  170 atoms
  reading velocities ...
  170 velocities
  scanning bonds ...
  3 = max bonds/atom
  scanning angles ...
  6 = max angles/atom
  scanning dihedrals ...
  18 = max dihedrals/atom
  scanning impropers ...
  2 = max impropers/atom
  reading bonds ...
  189 bonds
  reading angles ...
  311 angles
  reading dihedrals ...
  472 dihedrals
  reading impropers ...
  20 impropers
  4 = max # of 1-2 neighbors
  8 = max # of 1-3 neighbors
  17 = max # of 1-4 neighbors
  18 = max # of special neighbors
  special bonds CPU = 0.000324965 secs
  read_data CPU = 0.00506902 secs
################################################################################

timestep        1
fix             pysimm_md all nve/limit 0.1
run             2000
PPPM initialization ...
  using 12-bit tables for long-range coulomb (../kspace.cpp:332)
  G vector (1/distance) = 0.0968677
  grid = 15 15 15
  stencil order = 5
  estimated absolute RMS force accuracy = 0.0332938
  estimated relative force accuracy = 0.000100263
  using double precision KISS FFT
  3d grid and FFT values/proc = 8000 3375
Neighbor list info ...
  update every 1 steps, delay 10 steps, check yes
  max neighbors/atom: 2000, page size: 100000
  master list distance cutoff = 14
  ghost atom cutoff = 14
  binsize = 7, bins = 25 25 25
  1 neighbor lists, perpetual/occasional/extra = 1 0 0
  (1) pair lj/cut/coul/long, perpetual
      attributes: half, newton on
      pair build: half/bin/newton
      stencil: half/bin/3d/newton
      bin: standard
Per MPI rank memory allocation (min/avg/max) = 16.29 | 16.29 | 16.29 Mbytes
Step Temp E_pair E_mol TotEng Press 
       0     244.5042   -233.91569     486.5782    375.83319  -0.98949618 
    2000    260.75574   -231.02509     444.9257    345.25811    1.5812817 
Loop time of 2.06234 on 1 procs for 2000 steps with 170 atoms

Performance: 83.788 ns/day, 0.286 hours/ns, 969.773 timesteps/s
100.1% CPU use with 1 MPI tasks x no OpenMP threads

MPI task timing breakdown:
Section |  min time  |  avg time  |  max time  |%varavg| %total
---------------------------------------------------------------
Pair    | 0.28064    | 0.28064    | 0.28064    |   0.0 | 13.61
Bond    | 0.14178    | 0.14178    | 0.14178    |   0.0 |  6.87
Kspace  | 1.6173     | 1.6173     | 1.6173     |   0.0 | 78.42
Neigh   | 0.011341   | 0.011341   | 0.011341   |   0.0 |  0.55
Comm    | 0.00085163 | 0.00085163 | 0.00085163 |   0.0 |  0.04
Output  | 2.0981e-05 | 2.0981e-05 | 2.0981e-05 |   0.0 |  0.00
Modify  | 0.0061579  | 0.0061579  | 0.0061579  |   0.0 |  0.30
Other   |            | 0.004296   |            |       |  0.21

Nlocal:    170 ave 170 max 170 min
Histogram: 1 0 0 0 0 0 0 0 0 0
Nghost:    0 ave 0 max 0 min
Histogram: 1 0 0 0 0 0 0 0 0 0
Neighs:    5912 ave 5912 max 5912 min
Histogram: 1 0 0 0 0 0 0 0 0 0

Total # of neighbors = 5912
Ave neighs/atom = 34.7765
Ave special neighs/atom = 10.6118
Neighbor list builds = 48
Dangerous builds = 0
unfix pysimm_md
min_style cg
minimize 0.001 0.001 10000 100000
WARNING: Using 'neigh_modify every 1 delay 0 check yes' setting during minimization (../min.cpp:190)
PPPM initialization ...
  using 12-bit tables for long-range coulomb (../kspace.cpp:332)
  G vector (1/distance) = 0.0968677
  grid = 15 15 15
  stencil order = 5
  estimated absolute RMS force accuracy = 0.0332938
  estimated relative force accuracy = 0.000100263
  using double precision KISS FFT
  3d grid and FFT values/proc = 8000 3375
Per MPI rank memory allocation (min/avg/max) = 17.41 | 17.41 | 17.41 Mbytes
Step Temp E_pair E_mol TotEng Press 
    2000    260.75574   -231.02509     444.9257    345.25811    1.5812817 
    2034    260.75574   -240.46125    327.45718    218.35343    1.7497633 
Loop time of 0.0753682 on 1 procs for 34 steps with 170 atoms

99.5% CPU use with 1 MPI tasks x no OpenMP threads

Minimization stats:
  Stopping criterion = energy tolerance
  Energy initial, next-to-last, final = 
         213.900602776      87.0246004085      86.9959221967
  Force two-norm initial, final = 508.512 14.8305
  Force max component initial, final = 116.935 2.7371
  Final line search alpha, max atom move = 0.00602373 0.0164875
  Iterations, force evaluations = 34 68

MPI task timing breakdown:
Section |  min time  |  avg time  |  max time  |%varavg| %total
---------------------------------------------------------------
Pair    | 0.015656   | 0.015656   | 0.015656   |   0.0 | 20.77
Bond    | 0.0053728  | 0.0053728  | 0.0053728  |   0.0 |  7.13
Kspace  | 0.05392    | 0.05392    | 0.05392    |   0.0 | 71.54
Neigh   | 0          | 0          | 0          |   0.0 |  0.00
Comm    | 2.9325e-05 | 2.9325e-05 | 2.9325e-05 |   0.0 |  0.04
Output  | 0          | 0          | 0          |   0.0 |  0.00
Modify  | 0          | 0          | 0          |   0.0 |  0.00
Other   |            | 0.0003903  |            |       |  0.52

Nlocal:    170 ave 170 max 170 min
Histogram: 1 0 0 0 0 0 0 0 0 0
Nghost:    0 ave 0 max 0 min
Histogram: 1 0 0 0 0 0 0 0 0 0
Neighs:    5901 ave 5901 max 5901 min
Histogram: 1 0 0 0 0 0 0 0 0 0

Total # of neighbors = 5901
Ave neighs/atom = 34.7118
Ave special neighs/atom = 10.6118
Neighbor list builds = 0
Dangerous builds = 0
write_dump all custom pysimm.dump.tmp id q x y z vx vy vz
quit


################################################################################
##################################    Init    ##################################
################################################################################
units           real
atom_style      full
pair_style      lj/cut/coul/long 12.0  12.0
kspace_style    pppm 1e-4
bond_style      harmonic
angle_style     harmonic
dihedral_style  fourier
improper_style  cvff
special_bonds   amber
pair_modify     mix arithmetic
read_data       temp.lmps
  orthogonal box = (-85.7168 -85.7168 -85.7168) to (85.7168 85.7168 85.7168)
  1 by 1 by 1 MPI processor grid
  reading atoms ...
  204 atoms
  reading velocities ...
  204 velocities
  scanning bonds ...
  3 = max bonds/atom
  scanning angles ...
  6 = max angles/atom
  scanning dihedrals ...
  18 = max dihedrals/atom
  scanning impropers ...
  2 = max impropers/atom
  reading bonds ...
  227 bonds
  reading angles ...
  374 angles
  reading dihedrals ...
  568 dihedrals
  reading impropers ...
  24 impropers
  4 = max # of 1-2 neighbors
  8 = max # of 1-3 neighbors
  17 = max # of 1-4 neighbors
  18 = max # of special neighbors
  special bonds CPU = 0.000344992 secs
  read_data CPU = 0.00501895 secs
################################################################################

timestep        1
fix             pysimm_md all nve/limit 0.1
run             2000
PPPM initialization ...
  using 12-bit tables for long-range coulomb (../kspace.cpp:332)
  G vector (1/distance) = 0.0968692
  grid = 15 15 15
  stencil order = 5
  estimated absolute RMS force accuracy = 0.0364732
  estimated relative force accuracy = 0.000109838
  using double precision KISS FFT
  3d grid and FFT values/proc = 8000 3375
Neighbor list info ...
  update every 1 steps, delay 10 steps, check yes
  max neighbors/atom: 2000, page size: 100000
  master list distance cutoff = 14
  ghost atom cutoff = 14
  binsize = 7, bins = 25 25 25
  1 neighbor lists, perpetual/occasional/extra = 1 0 0
  (1) pair lj/cut/coul/long, perpetual
      attributes: half, newton on
      pair build: half/bin/newton
      stencil: half/bin/3d/newton
      bin: standard
Per MPI rank memory allocation (min/avg/max) = 16.29 | 16.29 | 16.29 Mbytes
Step Temp E_pair E_mol TotEng Press 
       0     217.5746   -294.86263    556.74143    393.53415   -1.1379465 
    2000    235.86381   -287.15264    507.31402    362.88362    2.3510542 
Loop time of 2.28378 on 1 procs for 2000 steps with 204 atoms

Performance: 75.664 ns/day, 0.317 hours/ns, 875.741 timesteps/s
100.0% CPU use with 1 MPI tasks x no OpenMP threads

MPI task timing breakdown:
Section |  min time  |  avg time  |  max time  |%varavg| %total
---------------------------------------------------------------
Pair    | 0.33914    | 0.33914    | 0.33914    |   0.0 | 14.85
Bond    | 0.17029    | 0.17029    | 0.17029    |   0.0 |  7.46
Kspace  | 1.7481     | 1.7481     | 1.7481     |   0.0 | 76.54
Neigh   | 0.013671   | 0.013671   | 0.013671   |   0.0 |  0.60
Comm    | 0.00084591 | 0.00084591 | 0.00084591 |   0.0 |  0.04
Output  | 2.9087e-05 | 2.9087e-05 | 2.9087e-05 |   0.0 |  0.00
Modify  | 0.0072181  | 0.0072181  | 0.0072181  |   0.0 |  0.32
Other   |            | 0.004501   |            |       |  0.20

Nlocal:    204 ave 204 max 204 min
Histogram: 1 0 0 0 0 0 0 0 0 0
Nghost:    0 ave 0 max 0 min
Histogram: 1 0 0 0 0 0 0 0 0 0
Neighs:    7327 ave 7327 max 7327 min
Histogram: 1 0 0 0 0 0 0 0 0 0

Total # of neighbors = 7327
Ave neighs/atom = 35.9167
Ave special neighs/atom = 10.6373
Neighbor list builds = 48
Dangerous builds = 0
unfix pysimm_md
min_style cg
minimize 0.001 0.001 10000 100000
WARNING: Using 'neigh_modify every 1 delay 0 check yes' setting during minimization (../min.cpp:190)
PPPM initialization ...
  using 12-bit tables for long-range coulomb (../kspace.cpp:332)
  G vector (1/distance) = 0.0968692
  grid = 15 15 15
  stencil order = 5
  estimated absolute RMS force accuracy = 0.0364732
  estimated relative force accuracy = 0.000109838
  using double precision KISS FFT
  3d grid and FFT values/proc = 8000 3375
Per MPI rank memory allocation (min/avg/max) = 17.42 | 17.42 | 17.42 Mbytes
Step Temp E_pair E_mol TotEng Press 
    2000    235.86381   -287.15264    507.31402    362.88362    2.3510542 
    2016    235.86381    -292.6682    392.07658    242.13063    1.4047994 
Loop time of 0.107412 on 1 procs for 16 steps with 204 atoms

100.5% CPU use with 1 MPI tasks x no OpenMP threads

Minimization stats:
  Stopping criterion = linesearch alpha is zero
  Energy initial, next-to-last, final = 
         220.161377625      99.4083854807      99.4083854807
  Force two-norm initial, final = 500.641 35.7333
  Force max component initial, final = 100.539 6.48304
  Final line search alpha, max atom move = 7.94551e-12 5.15111e-11
  Iterations, force evaluations = 16 90

MPI task timing breakdown:
Section |  min time  |  avg time  |  max time  |%varavg| %total
---------------------------------------------------------------
Pair    | 0.025024   | 0.025024   | 0.025024   |   0.0 | 23.30
Bond    | 0.008657   | 0.008657   | 0.008657   |   0.0 |  8.06
Kspace  | 0.073262   | 0.073262   | 0.073262   |   0.0 | 68.21
Neigh   | 0          | 0          | 0          |   0.0 |  0.00
Comm    | 2.8372e-05 | 2.8372e-05 | 2.8372e-05 |   0.0 |  0.03
Output  | 0          | 0          | 0          |   0.0 |  0.00
Modify  | 0          | 0          | 0          |   0.0 |  0.00
Other   |            | 0.0004401  |            |       |  0.41

Nlocal:    204 ave 204 max 204 min
Histogram: 1 0 0 0 0 0 0 0 0 0
Nghost:    0 ave 0 max 0 min
Histogram: 1 0 0 0 0 0 0 0 0 0
Neighs:    7329 ave 7329 max 7329 min
Histogram: 1 0 0 0 0 0 0 0 0 0

Total # of neighbors = 7329
Ave neighs/atom = 35.9265
Ave special neighs/atom = 10.6373
Neighbor list builds = 0
Dangerous builds = 0
write_dump all custom pysimm.dump.tmp id q x y z vx vy vz
quit


################################################################################
##################################    Init    ##################################
################################################################################
units           real
atom_style      full
pair_style      lj/cut/coul/long 12.0  12.0
kspace_style    pppm 1e-4
bond_style      harmonic
angle_style     harmonic
dihedral_style  fourier
improper_style  cvff
special_bonds   amber
pair_modify     mix arithmetic
read_data       temp.lmps
  orthogonal box = (-85.7168 -85.7168 -85.7168) to (85.7168 85.7168 85.7168)
  1 by 1 by 1 MPI processor grid
  reading atoms ...
  238 atoms
  reading velocities ...
  238 velocities
  scanning bonds ...
  3 = max bonds/atom
  scanning angles ...
  6 = max angles/atom
  scanning dihedrals ...
  18 = max dihedrals/atom
  scanning impropers ...
  2 = max impropers/atom
  reading bonds ...
  265 bonds
  reading angles ...
  437 angles
  reading dihedrals ...
  664 dihedrals
  reading impropers ...
  28 impropers
  4 = max # of 1-2 neighbors
  8 = max # of 1-3 neighbors
  17 = max # of 1-4 neighbors
  18 = max # of special neighbors
  special bonds CPU = 0.000368118 secs
  read_data CPU = 0.0070529 secs
################################################################################

timestep        1
fix             pysimm_md all nve/limit 0.1
run             2000
PPPM initialization ...
  using 12-bit tables for long-range coulomb (../kspace.cpp:332)
  G vector (1/distance) = 0.101462
  grid = 16 16 16
  stencil order = 5
  estimated absolute RMS force accuracy = 0.0345541
  estimated relative force accuracy = 0.000104059
  using double precision KISS FFT
  3d grid and FFT values/proc = 9261 4096
Neighbor list info ...
  update every 1 steps, delay 10 steps, check yes
  max neighbors/atom: 2000, page size: 100000
  master list distance cutoff = 14
  ghost atom cutoff = 14
  binsize = 7, bins = 25 25 25
  1 neighbor lists, perpetual/occasional/extra = 1 0 0
  (1) pair lj/cut/coul/long, perpetual
      attributes: half, newton on
      pair build: half/bin/newton
      stencil: half/bin/3d/newton
      bin: standard
Per MPI rank memory allocation (min/avg/max) = 16.41 | 16.41 | 16.41 Mbytes
Step Temp E_pair E_mol TotEng Press 
       0    202.44837   -347.64963    624.51726    419.88768   -1.6184863 
    2000    224.54266   -337.80205    566.42554    387.25211    2.6956466 
Loop time of 2.6201 on 1 procs for 2000 steps with 238 atoms

Performance: 65.952 ns/day, 0.364 hours/ns, 763.330 timesteps/s
100.0% CPU use with 1 MPI tasks x no OpenMP threads

MPI task timing breakdown:
Section |  min time  |  avg time  |  max time  |%varavg| %total
---------------------------------------------------------------
Pair    | 0.408      | 0.408      | 0.408      |   0.0 | 15.57
Bond    | 0.19789    | 0.19789    | 0.19789    |   0.0 |  7.55
Kspace  | 1.9858     | 1.9858     | 1.9858     |   0.0 | 75.79
Neigh   | 0.014358   | 0.014358   | 0.014358   |   0.0 |  0.55
Comm    | 0.00086308 | 0.00086308 | 0.00086308 |   0.0 |  0.03
Output  | 3.2187e-05 | 3.2187e-05 | 3.2187e-05 |   0.0 |  0.00
Modify  | 0.0083368  | 0.0083368  | 0.0083368  |   0.0 |  0.32
Other   |            | 0.004859   |            |       |  0.19

Nlocal:    238 ave 238 max 238 min
Histogram: 1 0 0 0 0 0 0 0 0 0
Nghost:    0 ave 0 max 0 min
Histogram: 1 0 0 0 0 0 0 0 0 0
Neighs:    8779 ave 8779 max 8779 min
Histogram: 1 0 0 0 0 0 0 0 0 0

Total # of neighbors = 8779
Ave neighs/atom = 36.8866
Ave special neighs/atom = 10.6555
Neighbor list builds = 42
Dangerous builds = 0
unfix pysimm_md
min_style cg
minimize 0.001 0.001 10000 100000
WARNING: Using 'neigh_modify every 1 delay 0 check yes' setting during minimization (../min.cpp:190)
PPPM initialization ...
  using 12-bit tables for long-range coulomb (../kspace.cpp:332)
  G vector (1/distance) = 0.101462
  grid = 16 16 16
  stencil order = 5
  estimated absolute RMS force accuracy = 0.0345541
  estimated relative force accuracy = 0.000104059
  using double precision KISS FFT
  3d grid and FFT values/proc = 9261 4096
Per MPI rank memory allocation (min/avg/max) = 17.53 | 17.53 | 17.53 Mbytes
Step Temp E_pair E_mol TotEng Press 
    2000    224.54266   -337.80205    566.42554    387.25211    2.6956466 
    2035    224.54266   -351.90802    452.72628    259.44686     1.224988 
Loop time of 0.181165 on 1 procs for 35 steps with 238 atoms

101.0% CPU use with 1 MPI tasks x no OpenMP threads

Minimization stats:
  Stopping criterion = linesearch alpha is zero
  Energy initial, next-to-last, final = 
         228.623498298      100.818256637      100.818256637
  Force two-norm initial, final = 483.764 18.2715
  Force max component initial, final = 112.209 2.82113
  Final line search alpha, max atom move = 2.8556e-11 8.05603e-11
  Iterations, force evaluations = 35 125

MPI task timing breakdown:
Section |  min time  |  avg time  |  max time  |%varavg| %total
---------------------------------------------------------------
Pair    | 0.041078   | 0.041078   | 0.041078   |   0.0 | 22.67
Bond    | 0.013643   | 0.013643   | 0.013643   |   0.0 |  7.53
Kspace  | 0.12566    | 0.12566    | 0.12566    |   0.0 | 69.36
Neigh   | 0          | 0          | 0          |   0.0 |  0.00
Comm    | 2.9802e-05 | 2.9802e-05 | 2.9802e-05 |   0.0 |  0.02
Output  | 0          | 0          | 0          |   0.0 |  0.00
Modify  | 0          | 0          | 0          |   0.0 |  0.00
Other   |            | 0.0007501  |            |       |  0.41

Nlocal:    238 ave 238 max 238 min
Histogram: 1 0 0 0 0 0 0 0 0 0
Nghost:    0 ave 0 max 0 min
Histogram: 1 0 0 0 0 0 0 0 0 0
Neighs:    8794 ave 8794 max 8794 min
Histogram: 1 0 0 0 0 0 0 0 0 0

Total # of neighbors = 8794
Ave neighs/atom = 36.9496
Ave special neighs/atom = 10.6555
Neighbor list builds = 0
Dangerous builds = 0
write_dump all custom pysimm.dump.tmp id q x y z vx vy vz
quit


################################################################################
##################################    Init    ##################################
################################################################################
units           real
atom_style      full
pair_style      lj/cut/coul/long 12.0  12.0
kspace_style    pppm 1e-4
bond_style      harmonic
angle_style     harmonic
dihedral_style  fourier
improper_style  cvff
special_bonds   amber
pair_modify     mix arithmetic
read_data       temp.lmps
  orthogonal box = (-85.7168 -85.7168 -85.7168) to (85.7168 85.7168 85.7168)
  1 by 1 by 1 MPI processor grid
  reading atoms ...
  272 atoms
  reading velocities ...
  272 velocities
  scanning bonds ...
  3 = max bonds/atom
  scanning angles ...
  6 = max angles/atom
  scanning dihedrals ...
  18 = max dihedrals/atom
  scanning impropers ...
  2 = max impropers/atom
  reading bonds ...
  303 bonds
  reading angles ...
  500 angles
  reading dihedrals ...
  760 dihedrals
  reading impropers ...
  32 impropers
  4 = max # of 1-2 neighbors
  8 = max # of 1-3 neighbors
  17 = max # of 1-4 neighbors
  18 = max # of special neighbors
  special bonds CPU = 0.000338078 secs
  read_data CPU = 0.00660396 secs
################################################################################

timestep        1
fix             pysimm_md all nve/limit 0.1
run             2000
PPPM initialization ...
  using 12-bit tables for long-range coulomb (../kspace.cpp:332)
  G vector (1/distance) = 0.10146
  grid = 16 16 16
  stencil order = 5
  estimated absolute RMS force accuracy = 0.0369379
  estimated relative force accuracy = 0.000111238
  using double precision KISS FFT
  3d grid and FFT values/proc = 9261 4096
Neighbor list info ...
  update every 1 steps, delay 10 steps, check yes
  max neighbors/atom: 2000, page size: 100000
  master list distance cutoff = 14
  ghost atom cutoff = 14
  binsize = 7, bins = 25 25 25
  1 neighbor lists, perpetual/occasional/extra = 1 0 0
  (1) pair lj/cut/coul/long, perpetual
      attributes: half, newton on
      pair build: half/bin/newton
      stencil: half/bin/3d/newton
      bin: standard
Per MPI rank memory allocation (min/avg/max) = 16.41 | 16.41 | 16.41 Mbytes
Step Temp E_pair E_mol TotEng Press 
       0    196.73991   -406.69037    711.27062    463.50666   -1.5149731 
    2000     193.3198   -395.90371    663.93511    424.19504    4.0594736 
Loop time of 2.75492 on 1 procs for 2000 steps with 272 atoms

Performance: 62.724 ns/day, 0.383 hours/ns, 725.973 timesteps/s
100.0% CPU use with 1 MPI tasks x no OpenMP threads

MPI task timing breakdown:
Section |  min time  |  avg time  |  max time  |%varavg| %total
---------------------------------------------------------------
Pair    | 0.47677    | 0.47677    | 0.47677    |   0.0 | 17.31
Bond    | 0.22816    | 0.22816    | 0.22816    |   0.0 |  8.28
Kspace  | 2.0153     | 2.0153     | 2.0153     |   0.0 | 73.15
Neigh   | 0.017845   | 0.017845   | 0.017845   |   0.0 |  0.65
Comm    | 0.0015264  | 0.0015264  | 0.0015264  |   0.0 |  0.06
Output  | 2.9802e-05 | 2.9802e-05 | 2.9802e-05 |   0.0 |  0.00
Modify  | 0.009671   | 0.009671   | 0.009671   |   0.0 |  0.35
Other   |            | 0.005629   |            |       |  0.20

Nlocal:    272 ave 272 max 272 min
Histogram: 1 0 0 0 0 0 0 0 0 0
Nghost:    17 ave 17 max 17 min
Histogram: 1 0 0 0 0 0 0 0 0 0
Neighs:    10082 ave 10082 max 10082 min
Histogram: 1 0 0 0 0 0 0 0 0 0

Total # of neighbors = 10082
Ave neighs/atom = 37.0662
Ave special neighs/atom = 10.6691
Neighbor list builds = 46
Dangerous builds = 0
unfix pysimm_md
min_style cg
minimize 0.001 0.001 10000 100000
WARNING: Using 'neigh_modify every 1 delay 0 check yes' setting during minimization (../min.cpp:190)
PPPM initialization ...
  using 12-bit tables for long-range coulomb (../kspace.cpp:332)
  G vector (1/distance) = 0.10146
  grid = 16 16 16
  stencil order = 5
  estimated absolute RMS force accuracy = 0.0369379
  estimated relative force accuracy = 0.000111238
  using double precision KISS FFT
  3d grid and FFT values/proc = 9261 4096
Per MPI rank memory allocation (min/avg/max) = 17.54 | 17.54 | 17.54 Mbytes
Step Temp E_pair E_mol TotEng Press 
    2000     193.3198   -395.90371    663.93511    424.19504    4.0594736 
    2020     193.3198   -403.37985    522.69155    275.47534    2.6012606 
Loop time of 0.0614939 on 1 procs for 20 steps with 272 atoms

100.8% CPU use with 1 MPI tasks x no OpenMP threads

Minimization stats:
  Stopping criterion = energy tolerance
  Energy initial, next-to-last, final = 
         268.031400422      119.377695536       119.31169787
  Force two-norm initial, final = 555.184 31.6937
  Force max component initial, final = 105.287 7.22207
  Final line search alpha, max atom move = 0.00702245 0.0507166
  Iterations, force evaluations = 20 40

MPI task timing breakdown:
Section |  min time  |  avg time  |  max time  |%varavg| %total
---------------------------------------------------------------
Pair    | 0.01528    | 0.01528    | 0.01528    |   0.0 | 24.85
Bond    | 0.0050907  | 0.0050907  | 0.0050907  |   0.0 |  8.28
Kspace  | 0.040757   | 0.040757   | 0.040757   |   0.0 | 66.28
Neigh   | 0          | 0          | 0          |   0.0 |  0.00
Comm    | 2.5272e-05 | 2.5272e-05 | 2.5272e-05 |   0.0 |  0.04
Output  | 0          | 0          | 0          |   0.0 |  0.00
Modify  | 0          | 0          | 0          |   0.0 |  0.00
Other   |            | 0.0003417  |            |       |  0.56

Nlocal:    272 ave 272 max 272 min
Histogram: 1 0 0 0 0 0 0 0 0 0
Nghost:    17 ave 17 max 17 min
Histogram: 1 0 0 0 0 0 0 0 0 0
Neighs:    10075 ave 10075 max 10075 min
Histogram: 1 0 0 0 0 0 0 0 0 0

Total # of neighbors = 10075
Ave neighs/atom = 37.0404
Ave special neighs/atom = 10.6691
Neighbor list builds = 0
Dangerous builds = 0
write_dump all custom pysimm.dump.tmp id q x y z vx vy vz
quit


################################################################################
##################################    Init    ##################################
################################################################################
units           real
atom_style      full
pair_style      lj/cut/coul/long 12.0  12.0
kspace_style    pppm 1e-4
bond_style      harmonic
angle_style     harmonic
dihedral_style  fourier
improper_style  cvff
special_bonds   amber
pair_modify     mix arithmetic
read_data       temp.lmps
  orthogonal box = (-85.7168 -85.7168 -85.7168) to (85.7168 85.7168 85.7168)
  1 by 1 by 1 MPI processor grid
  reading atoms ...
  306 atoms
  reading velocities ...
  306 velocities
  scanning bonds ...
  3 = max bonds/atom
  scanning angles ...
  6 = max angles/atom
  scanning dihedrals ...
  18 = max dihedrals/atom
  scanning impropers ...
  2 = max impropers/atom
  reading bonds ...
  341 bonds
  reading angles ...
  563 angles
  reading dihedrals ...
  856 dihedrals
  reading impropers ...
  36 impropers
  4 = max # of 1-2 neighbors
  8 = max # of 1-3 neighbors
  17 = max # of 1-4 neighbors
  18 = max # of special neighbors
  special bonds CPU = 0.000355959 secs
  read_data CPU = 0.00590396 secs
################################################################################

timestep        1
fix             pysimm_md all nve/limit 0.1
run             2000
PPPM initialization ...
  using 12-bit tables for long-range coulomb (../kspace.cpp:332)
  G vector (1/distance) = 0.110103
  grid = 18 18 18
  stencil order = 5
  estimated absolute RMS force accuracy = 0.0301133
  estimated relative force accuracy = 9.06853e-05
  using double precision KISS FFT
  3d grid and FFT values/proc = 12167 5832
Neighbor list info ...
  update every 1 steps, delay 10 steps, check yes
  max neighbors/atom: 2000, page size: 100000
  master list distance cutoff = 14
  ghost atom cutoff = 14
  binsize = 7, bins = 25 25 25
  1 neighbor lists, perpetual/occasional/extra = 1 0 0
  (1) pair lj/cut/coul/long, perpetual
      attributes: half, newton on
      pair build: half/bin/newton
      stencil: half/bin/3d/newton
      bin: standard
Per MPI rank memory allocation (min/avg/max) = 16.68 | 16.68 | 16.68 Mbytes
Step Temp E_pair E_mol TotEng Press 
       0    172.09694   -457.99439    763.23531    461.70235  -0.12940646 
    2000    182.39274   -440.38922    707.71187    433.14448    1.3782362 
Loop time of 3.83317 on 1 procs for 2000 steps with 306 atoms

Performance: 45.080 ns/day, 0.532 hours/ns, 521.761 timesteps/s
100.0% CPU use with 1 MPI tasks x no OpenMP threads

MPI task timing breakdown:
Section |  min time  |  avg time  |  max time  |%varavg| %total
---------------------------------------------------------------
Pair    | 0.55493    | 0.55493    | 0.55493    |   0.0 | 14.48
Bond    | 0.25789    | 0.25789    | 0.25789    |   0.0 |  6.73
Kspace  | 2.9822     | 2.9822     | 2.9822     |   0.0 | 77.80
Neigh   | 0.019517   | 0.019517   | 0.019517   |   0.0 |  0.51
Comm    | 0.0018601  | 0.0018601  | 0.0018601  |   0.0 |  0.05
Output  | 2.9087e-05 | 2.9087e-05 | 2.9087e-05 |   0.0 |  0.00
Modify  | 0.011079   | 0.011079   | 0.011079   |   0.0 |  0.29
Other   |            | 0.005622   |            |       |  0.15

Nlocal:    306 ave 306 max 306 min
Histogram: 1 0 0 0 0 0 0 0 0 0
Nghost:    42 ave 42 max 42 min
Histogram: 1 0 0 0 0 0 0 0 0 0
Neighs:    11445 ave 11445 max 11445 min
Histogram: 1 0 0 0 0 0 0 0 0 0

Total # of neighbors = 11445
Ave neighs/atom = 37.402
Ave special neighs/atom = 10.6797
Neighbor list builds = 44
Dangerous builds = 0
unfix pysimm_md
min_style cg
minimize 0.001 0.001 10000 100000
WARNING: Using 'neigh_modify every 1 delay 0 check yes' setting during minimization (../min.cpp:190)
PPPM initialization ...
  using 12-bit tables for long-range coulomb (../kspace.cpp:332)
  G vector (1/distance) = 0.110103
  grid = 18 18 18
  stencil order = 5
  estimated absolute RMS force accuracy = 0.0301133
  estimated relative force accuracy = 9.06853e-05
  using double precision KISS FFT
  3d grid and FFT values/proc = 12167 5832
Per MPI rank memory allocation (min/avg/max) = 17.8 | 17.8 | 17.8 Mbytes
Step Temp E_pair E_mol TotEng Press 
    2000    182.39274   -440.38922    707.71187    433.14448    1.3782362 
    2037    182.39274   -461.14597     584.5346    289.21045     1.816439 
Loop time of 0.152798 on 1 procs for 37 steps with 306 atoms

100.1% CPU use with 1 MPI tasks x no OpenMP threads

Minimization stats:
  Stopping criterion = energy tolerance
  Energy initial, next-to-last, final = 
         267.322657025      123.508498467      123.388626124
  Force two-norm initial, final = 516.398 21.7541
  Force max component initial, final = 98.1885 3.48981
  Final line search alpha, max atom move = 0.00942468 0.0328904
  Iterations, force evaluations = 37 74

MPI task timing breakdown:
Section |  min time  |  avg time  |  max time  |%varavg| %total
---------------------------------------------------------------
Pair    | 0.033109   | 0.033109   | 0.033109   |   0.0 | 21.67
Bond    | 0.010603   | 0.010603   | 0.010603   |   0.0 |  6.94
Kspace  | 0.10838    | 0.10838    | 0.10838    |   0.0 | 70.93
Neigh   | 0          | 0          | 0          |   0.0 |  0.00
Comm    | 5.2452e-05 | 5.2452e-05 | 5.2452e-05 |   0.0 |  0.03
Output  | 0          | 0          | 0          |   0.0 |  0.00
Modify  | 0          | 0          | 0          |   0.0 |  0.00
Other   |            | 0.0006533  |            |       |  0.43

Nlocal:    306 ave 306 max 306 min
Histogram: 1 0 0 0 0 0 0 0 0 0
Nghost:    42 ave 42 max 42 min
Histogram: 1 0 0 0 0 0 0 0 0 0
Neighs:    11434 ave 11434 max 11434 min
Histogram: 1 0 0 0 0 0 0 0 0 0

Total # of neighbors = 11434
Ave neighs/atom = 37.366
Ave special neighs/atom = 10.6797
Neighbor list builds = 0
Dangerous builds = 0
write_dump all custom pysimm.dump.tmp id q x y z vx vy vz
quit


################################################################################
##################################    Init    ##################################
################################################################################
units           real
atom_style      full
pair_style      lj/cut/coul/long 12.0  12.0
kspace_style    pppm 1e-4
bond_style      harmonic
angle_style     harmonic
dihedral_style  fourier
improper_style  cvff
special_bonds   amber
pair_modify     mix arithmetic
read_data       temp.lmps
  orthogonal box = (-85.7168 -85.7168 -85.7168) to (85.7168 85.7168 85.7168)
  1 by 1 by 1 MPI processor grid
  reading atoms ...
  340 atoms
  reading velocities ...
  340 velocities
  scanning bonds ...
  3 = max bonds/atom
  scanning angles ...
  6 = max angles/atom
  scanning dihedrals ...
  18 = max dihedrals/atom
  scanning impropers ...
  2 = max impropers/atom
  reading bonds ...
  379 bonds
  reading angles ...
  626 angles
  reading dihedrals ...
  952 dihedrals
  reading impropers ...
  40 impropers
  4 = max # of 1-2 neighbors
  8 = max # of 1-3 neighbors
  17 = max # of 1-4 neighbors
  18 = max # of special neighbors
  special bonds CPU = 0.000370026 secs
  read_data CPU = 0.00784802 secs
################################################################################

timestep        1
fix             pysimm_md all nve/limit 0.1
run             2000
PPPM initialization ...
  using 12-bit tables for long-range coulomb (../kspace.cpp:332)
  G vector (1/distance) = 0.110101
  grid = 18 18 18
  stencil order = 5
  estimated absolute RMS force accuracy = 0.0317409
  estimated relative force accuracy = 9.55868e-05
  using double precision KISS FFT
  3d grid and FFT values/proc = 12167 5832
Neighbor list info ...
  update every 1 steps, delay 10 steps, check yes
  max neighbors/atom: 2000, page size: 100000
  master list distance cutoff = 14
  ghost atom cutoff = 14
  binsize = 7, bins = 25 25 25
  1 neighbor lists, perpetual/occasional/extra = 1 0 0
  (1) pair lj/cut/coul/long, perpetual
      attributes: half, newton on
      pair build: half/bin/newton
      stencil: half/bin/3d/newton
      bin: standard
Per MPI rank memory allocation (min/avg/max) = 16.68 | 16.68 | 16.68 Mbytes
Step Temp E_pair E_mol TotEng Press 
       0     164.3944   -518.02836    825.23188    473.32317   -1.2359269 
    2000    158.45978   -504.56302    784.54983    440.10958   -2.6267598 
Loop time of 3.77727 on 1 procs for 2000 steps with 340 atoms

Performance: 45.747 ns/day, 0.525 hours/ns, 529.482 timesteps/s
100.0% CPU use with 1 MPI tasks x no OpenMP threads

MPI task timing breakdown:
Section |  min time  |  avg time  |  max time  |%varavg| %total
---------------------------------------------------------------
Pair    | 0.6251     | 0.6251     | 0.6251     |   0.0 | 16.55
Bond    | 0.28696    | 0.28696    | 0.28696    |   0.0 |  7.60
Kspace  | 2.8201     | 2.8201     | 2.8201     |   0.0 | 74.66
Neigh   | 0.024487   | 0.024487   | 0.024487   |   0.0 |  0.65
Comm    | 0.0023372  | 0.0023372  | 0.0023372  |   0.0 |  0.06
Output  | 2.3842e-05 | 2.3842e-05 | 2.3842e-05 |   0.0 |  0.00
Modify  | 0.012272   | 0.012272   | 0.012272   |   0.0 |  0.32
Other   |            | 0.005981   |            |       |  0.16

Nlocal:    340 ave 340 max 340 min
Histogram: 1 0 0 0 0 0 0 0 0 0
Nghost:    75 ave 75 max 75 min
Histogram: 1 0 0 0 0 0 0 0 0 0
Neighs:    12958 ave 12958 max 12958 min
Histogram: 1 0 0 0 0 0 0 0 0 0

Total # of neighbors = 12958
Ave neighs/atom = 38.1118
Ave special neighs/atom = 10.6882
Neighbor list builds = 49
Dangerous builds = 0
unfix pysimm_md
min_style cg
minimize 0.001 0.001 10000 100000
WARNING: Using 'neigh_modify every 1 delay 0 check yes' setting during minimization (../min.cpp:190)
PPPM initialization ...
  using 12-bit tables for long-range coulomb (../kspace.cpp:332)
  G vector (1/distance) = 0.110101
  grid = 18 18 18
  stencil order = 5
  estimated absolute RMS force accuracy = 0.0317409
  estimated relative force accuracy = 9.55868e-05
  using double precision KISS FFT
  3d grid and FFT values/proc = 12167 5832
Per MPI rank memory allocation (min/avg/max) = 17.8 | 17.8 | 17.8 Mbytes
Step Temp E_pair E_mol TotEng Press 
    2000    158.45978   -504.56302    784.54983    440.10958   -2.6267598 
    2025    158.45978   -513.62765    647.90559     294.4007    2.1586824 
Loop time of 0.23413 on 1 procs for 25 steps with 340 atoms

99.9% CPU use with 1 MPI tasks x no OpenMP threads

Minimization stats:
  Stopping criterion = linesearch alpha is zero
  Energy initial, next-to-last, final = 
         279.986819589       134.27793851       134.27793851
  Force two-norm initial, final = 529.629 37.7175
  Force max component initial, final = 105.546 8.67727
  Final line search alpha, max atom move = 4.64388e-12 4.02962e-11
  Iterations, force evaluations = 25 109

MPI task timing breakdown:
Section |  min time  |  avg time  |  max time  |%varavg| %total
---------------------------------------------------------------
Pair    | 0.054057   | 0.054057   | 0.054057   |   0.0 | 23.09
Bond    | 0.017265   | 0.017265   | 0.017265   |   0.0 |  7.37
Kspace  | 0.16187    | 0.16187    | 0.16187    |   0.0 | 69.14
Neigh   | 0          | 0          | 0          |   0.0 |  0.00
Comm    | 0.00011277 | 0.00011277 | 0.00011277 |   0.0 |  0.05
Output  | 0          | 0          | 0          |   0.0 |  0.00
Modify  | 0          | 0          | 0          |   0.0 |  0.00
Other   |            | 0.0008228  |            |       |  0.35

Nlocal:    340 ave 340 max 340 min
Histogram: 1 0 0 0 0 0 0 0 0 0
Nghost:    75 ave 75 max 75 min
Histogram: 1 0 0 0 0 0 0 0 0 0
Neighs:    12944 ave 12944 max 12944 min
Histogram: 1 0 0 0 0 0 0 0 0 0

Total # of neighbors = 12944
Ave neighs/atom = 38.0706
Ave special neighs/atom = 10.6882
Neighbor list builds = 0
Dangerous builds = 0
write_dump all custom pysimm.dump.tmp id q x y z vx vy vz
quit


################################################################################
##################################    Init    ##################################
################################################################################
units           real
atom_style      full
pair_style      lj/cut/coul/long 12.0  12.0
kspace_style    pppm 1e-4
bond_style      harmonic
angle_style     harmonic
dihedral_style  fourier
improper_style  cvff
special_bonds   amber
pair_modify     mix arithmetic
read_data       temp.lmps
  orthogonal box = (-107.996 -107.996 -107.996) to (107.996 107.996 107.996)
  1 by 1 by 1 MPI processor grid
  reading atoms ...
  374 atoms
  reading velocities ...
  374 velocities
  scanning bonds ...
  3 = max bonds/atom
  scanning angles ...
  6 = max angles/atom
  scanning dihedrals ...
  18 = max dihedrals/atom
  scanning impropers ...
  2 = max impropers/atom
  reading bonds ...
  417 bonds
  reading angles ...
  689 angles
  reading dihedrals ...
  1048 dihedrals
  reading impropers ...
  44 impropers
  4 = max # of 1-2 neighbors
  8 = max # of 1-3 neighbors
  17 = max # of 1-4 neighbors
  18 = max # of special neighbors
  special bonds CPU = 0.000454903 secs
  read_data CPU = 0.00718188 secs
################################################################################

timestep        1
fix             pysimm_md all nve/limit 0.1
run             2000
PPPM initialization ...
WARNING: System is not charge neutral, net charge = 1.1e-05 (../kspace.cpp:313)
  using 12-bit tables for long-range coulomb (../kspace.cpp:332)
  G vector (1/distance) = 0.100891
  grid = 20 20 20
  stencil order = 5
  estimated absolute RMS force accuracy = 0.0311384
  estimated relative force accuracy = 9.37722e-05
  using double precision KISS FFT
  3d grid and FFT values/proc = 15625 8000
Neighbor list info ...
  update every 1 steps, delay 10 steps, check yes
  max neighbors/atom: 2000, page size: 100000
  master list distance cutoff = 14
  ghost atom cutoff = 14
  binsize = 7, bins = 31 31 31
  1 neighbor lists, perpetual/occasional/extra = 1 0 0
  (1) pair lj/cut/coul/long, perpetual
      attributes: half, newton on
      pair build: half/bin/newton
      stencil: half/bin/3d/newton
      bin: standard
Per MPI rank memory allocation (min/avg/max) = 17.07 | 17.07 | 17.07 Mbytes
Step Temp E_pair E_mol TotEng Press 
       0    144.28359   -535.60997    151171.97    150796.78   -730.87873 
    2000    2055.2046    -533.6025    1931.7269    3683.1876    5.2471463 
Loop time of 4.69228 on 1 procs for 2000 steps with 374 atoms

Performance: 36.826 ns/day, 0.652 hours/ns, 426.232 timesteps/s
99.8% CPU use with 1 MPI tasks x no OpenMP threads

MPI task timing breakdown:
Section |  min time  |  avg time  |  max time  |%varavg| %total
---------------------------------------------------------------
Pair    | 0.74529    | 0.74529    | 0.74529    |   0.0 | 15.88
Bond    | 0.31257    | 0.31257    | 0.31257    |   0.0 |  6.66
Kspace  | 3.522      | 3.522      | 3.522      |   0.0 | 75.06
Neigh   | 0.092744   | 0.092744   | 0.092744   |   0.0 |  1.98
Comm    | 0.0020673  | 0.0020673  | 0.0020673  |   0.0 |  0.04
Output  | 2.7895e-05 | 2.7895e-05 | 2.7895e-05 |   0.0 |  0.00
Modify  | 0.013724   | 0.013724   | 0.013724   |   0.0 |  0.29
Other   |            | 0.003844   |            |       |  0.08

Nlocal:    374 ave 374 max 374 min
Histogram: 1 0 0 0 0 0 0 0 0 0
Nghost:    0 ave 0 max 0 min
Histogram: 1 0 0 0 0 0 0 0 0 0
Neighs:    20260 ave 20260 max 20260 min
Histogram: 1 0 0 0 0 0 0 0 0 0

Total # of neighbors = 20260
Ave neighs/atom = 54.1711
Ave special neighs/atom = 10.6952
Neighbor list builds = 164
Dangerous builds = 0
unfix pysimm_md
min_style cg
minimize 0.001 0.001 10000 100000
WARNING: Using 'neigh_modify every 1 delay 0 check yes' setting during minimization (../min.cpp:190)
PPPM initialization ...
  using 12-bit tables for long-range coulomb (../kspace.cpp:332)
  G vector (1/distance) = 0.100891
  grid = 20 20 20
  stencil order = 5
  estimated absolute RMS force accuracy = 0.0311384
  estimated relative force accuracy = 9.37722e-05
  using double precision KISS FFT
  3d grid and FFT values/proc = 15625 8000
Per MPI rank memory allocation (min/avg/max) = 18.2 | 18.2 | 18.2 Mbytes
Step Temp E_pair E_mol TotEng Press 
    2000    2055.2046    -533.6025    1931.7269    3683.1876    5.2471463 
    2058    2055.2046   -576.14651    857.43301    2566.3497    10.974092 
Loop time of 0.311657 on 1 procs for 58 steps with 374 atoms

100.1% CPU use with 1 MPI tasks x no OpenMP threads

Minimization stats:
  Stopping criterion = energy tolerance
  Energy initial, next-to-last, final = 
         1398.12443664      281.329294494      281.286503378
  Force two-norm initial, final = 1251.74 44.9923
  Force max component initial, final = 209.271 6.56513
  Final line search alpha, max atom move = 0.00166845 0.0109536
  Iterations, force evaluations = 58 118

MPI task timing breakdown:
Section |  min time  |  avg time  |  max time  |%varavg| %total
---------------------------------------------------------------
Pair    | 0.084331   | 0.084331   | 0.084331   |   0.0 | 27.06
Bond    | 0.020181   | 0.020181   | 0.020181   |   0.0 |  6.48
Kspace  | 0.20446    | 0.20446    | 0.20446    |   0.0 | 65.60
Neigh   | 0.00139    | 0.00139    | 0.00139    |   0.0 |  0.45
Comm    | 8.0585e-05 | 8.0585e-05 | 8.0585e-05 |   0.0 |  0.03
Output  | 0          | 0          | 0          |   0.0 |  0.00
Modify  | 0          | 0          | 0          |   0.0 |  0.00
Other   |            | 0.001219   |            |       |  0.39

Nlocal:    374 ave 374 max 374 min
Histogram: 1 0 0 0 0 0 0 0 0 0
Nghost:    0 ave 0 max 0 min
Histogram: 1 0 0 0 0 0 0 0 0 0
Neighs:    20205 ave 20205 max 20205 min
Histogram: 1 0 0 0 0 0 0 0 0 0

Total # of neighbors = 20205
Ave neighs/atom = 54.0241
Ave special neighs/atom = 10.6952
Neighbor list builds = 2
Dangerous builds = 0
write_dump all custom pysimm.dump.tmp id q x y z vx vy vz
quit


################################################################################
##################################    Init    ##################################
################################################################################
units           real
atom_style      full
pair_style      lj/cut/coul/long 12.0  12.0
kspace_style    pppm 1e-4
bond_style      harmonic
angle_style     harmonic
dihedral_style  fourier
improper_style  cvff
special_bonds   amber
pair_modify     mix arithmetic
read_data       temp.lmps
  orthogonal box = (-111.482 -111.482 -111.482) to (111.482 111.482 111.482)
  1 by 1 by 1 MPI processor grid
  reading atoms ...
  408 atoms
  reading velocities ...
  408 velocities
  scanning bonds ...
  3 = max bonds/atom
  scanning angles ...
  6 = max angles/atom
  scanning dihedrals ...
  18 = max dihedrals/atom
  scanning impropers ...
  2 = max impropers/atom
  reading bonds ...
  455 bonds
  reading angles ...
  752 angles
  reading dihedrals ...
  1144 dihedrals
  reading impropers ...
  48 impropers
  4 = max # of 1-2 neighbors
  8 = max # of 1-3 neighbors
  17 = max # of 1-4 neighbors
  18 = max # of special neighbors
  special bonds CPU = 0.00047493 secs
  read_data CPU = 0.00816011 secs
################################################################################

timestep        1
fix             pysimm_md all nve/limit 0.1
run             2000
PPPM initialization ...
WARNING: System is not charge neutral, net charge = 1.2e-05 (../kspace.cpp:313)
  using 12-bit tables for long-range coulomb (../kspace.cpp:332)
  G vector (1/distance) = 0.098624
  grid = 20 20 20
  stencil order = 5
  estimated absolute RMS force accuracy = 0.0330968
  estimated relative force accuracy = 9.967e-05
  using double precision KISS FFT
  3d grid and FFT values/proc = 15625 8000
Neighbor list info ...
  update every 1 steps, delay 10 steps, check yes
  max neighbors/atom: 2000, page size: 100000
  master list distance cutoff = 14
  ghost atom cutoff = 14
  binsize = 7, bins = 32 32 32
  1 neighbor lists, perpetual/occasional/extra = 1 0 0
  (1) pair lj/cut/coul/long, perpetual
      attributes: half, newton on
      pair build: half/bin/newton
      stencil: half/bin/3d/newton
      bin: standard
Per MPI rank memory allocation (min/avg/max) = 17.09 | 17.09 | 17.09 Mbytes
Step Temp E_pair E_mol TotEng Press 
       0    1883.7627   -598.79608    169927.92    171614.49   -734.74579 
    2000     1777.347   -556.95951    2119.5585     3718.858   0.72862323 
Loop time of 5.31428 on 1 procs for 2000 steps with 408 atoms

Performance: 32.516 ns/day, 0.738 hours/ns, 376.345 timesteps/s
100.0% CPU use with 1 MPI tasks x no OpenMP threads

MPI task timing breakdown:
Section |  min time  |  avg time  |  max time  |%varavg| %total
---------------------------------------------------------------
Pair    | 1.2718     | 1.2718     | 1.2718     |   0.0 | 23.93
Bond    | 0.34024    | 0.34024    | 0.34024    |   0.0 |  6.40
Kspace  | 3.5373     | 3.5373     | 3.5373     |   0.0 | 66.56
Neigh   | 0.14524    | 0.14524    | 0.14524    |   0.0 |  2.73
Comm    | 0.0020065  | 0.0020065  | 0.0020065  |   0.0 |  0.04
Output  | 3.2187e-05 | 3.2187e-05 | 3.2187e-05 |   0.0 |  0.00
Modify  | 0.013963   | 0.013963   | 0.013963   |   0.0 |  0.26
Other   |            | 0.00369    |            |       |  0.07

Nlocal:    408 ave 408 max 408 min
Histogram: 1 0 0 0 0 0 0 0 0 0
Nghost:    0 ave 0 max 0 min
Histogram: 1 0 0 0 0 0 0 0 0 0
Neighs:    26839 ave 26839 max 26839 min
Histogram: 1 0 0 0 0 0 0 0 0 0

Total # of neighbors = 26839
Ave neighs/atom = 65.7819
Ave special neighs/atom = 10.701
Neighbor list builds = 167
Dangerous builds = 0
unfix pysimm_md
min_style cg
minimize 0.001 0.001 10000 100000
WARNING: Using 'neigh_modify every 1 delay 0 check yes' setting during minimization (../min.cpp:190)
PPPM initialization ...
  using 12-bit tables for long-range coulomb (../kspace.cpp:332)
  G vector (1/distance) = 0.098624
  grid = 20 20 20
  stencil order = 5
  estimated absolute RMS force accuracy = 0.0330968
  estimated relative force accuracy = 9.967e-05
  using double precision KISS FFT
  3d grid and FFT values/proc = 15625 8000
Per MPI rank memory allocation (min/avg/max) = 18.22 | 18.22 | 18.22 Mbytes
Step Temp E_pair E_mol TotEng Press 
    2000     1777.347   -556.95951    2119.5585     3718.858   0.72862323 
    2084     1777.347   -632.39817    843.84581    2367.7067    8.3796567 
Loop time of 0.491783 on 1 procs for 84 steps with 408 atoms

100.0% CPU use with 1 MPI tasks x no OpenMP threads

Minimization stats:
  Stopping criterion = energy tolerance
  Energy initial, next-to-last, final = 
         1562.59898718      211.658489556      211.447641124
  Force two-norm initial, final = 1341.87 52.3117
  Force max component initial, final = 184.743 6.49649
  Final line search alpha, max atom move = 0.00198691 0.012908
  Iterations, force evaluations = 84 168

MPI task timing breakdown:
Section |  min time  |  avg time  |  max time  |%varavg| %total
---------------------------------------------------------------
Pair    | 0.15392    | 0.15392    | 0.15392    |   0.0 | 31.30
Bond    | 0.031153   | 0.031153   | 0.031153   |   0.0 |  6.33
Kspace  | 0.30116    | 0.30116    | 0.30116    |   0.0 | 61.24
Neigh   | 0.0035462  | 0.0035462  | 0.0035462  |   0.0 |  0.72
Comm    | 0.00011444 | 0.00011444 | 0.00011444 |   0.0 |  0.02
Output  | 0          | 0          | 0          |   0.0 |  0.00
Modify  | 0          | 0          | 0          |   0.0 |  0.00
Other   |            | 0.001886   |            |       |  0.38

Nlocal:    408 ave 408 max 408 min
Histogram: 1 0 0 0 0 0 0 0 0 0
Nghost:    0 ave 0 max 0 min
Histogram: 1 0 0 0 0 0 0 0 0 0
Neighs:    26941 ave 26941 max 26941 min
Histogram: 1 0 0 0 0 0 0 0 0 0

Total # of neighbors = 26941
Ave neighs/atom = 66.0319
Ave special neighs/atom = 10.701
Neighbor list builds = 4
Dangerous builds = 0
write_dump all custom pysimm.dump.tmp id q x y z vx vy vz
quit


################################################################################
##################################    Init    ##################################
################################################################################
units           real
atom_style      full
pair_style      lj/cut/coul/long 12.0  12.0
kspace_style    pppm 1e-4
bond_style      harmonic
angle_style     harmonic
dihedral_style  fourier
improper_style  cvff
special_bonds   amber
pair_modify     mix arithmetic
read_data       temp.lmps
  orthogonal box = (-114.763 -114.763 -114.763) to (114.763 114.763 114.763)
  1 by 1 by 1 MPI processor grid
  reading atoms ...
  442 atoms
  reading velocities ...
  442 velocities
  scanning bonds ...
  3 = max bonds/atom
  scanning angles ...
  6 = max angles/atom
  scanning dihedrals ...
  18 = max dihedrals/atom
  scanning impropers ...
  2 = max impropers/atom
  reading bonds ...
  493 bonds
  reading angles ...
  815 angles
  reading dihedrals ...
  1240 dihedrals
  reading impropers ...
  52 impropers
  4 = max # of 1-2 neighbors
  8 = max # of 1-3 neighbors
  17 = max # of 1-4 neighbors
  18 = max # of special neighbors
  special bonds CPU = 0.000487089 secs
  read_data CPU = 0.00708199 secs
################################################################################

timestep        1
fix             pysimm_md all nve/limit 0.1
run             2000
PPPM initialization ...
WARNING: System is not charge neutral, net charge = 1.3e-05 (../kspace.cpp:313)
  using 12-bit tables for long-range coulomb (../kspace.cpp:332)
  G vector (1/distance) = 0.0965768
  grid = 20 20 20
  stencil order = 5
  estimated absolute RMS force accuracy = 0.0349352
  estimated relative force accuracy = 0.000105206
  using double precision KISS FFT
  3d grid and FFT values/proc = 15625 8000
Neighbor list info ...
  update every 1 steps, delay 10 steps, check yes
  max neighbors/atom: 2000, page size: 100000
  master list distance cutoff = 14
  ghost atom cutoff = 14
  binsize = 7, bins = 33 33 33
  1 neighbor lists, perpetual/occasional/extra = 1 0 0
  (1) pair lj/cut/coul/long, perpetual
      attributes: half, newton on
      pair build: half/bin/newton
      stencil: half/bin/3d/newton
      bin: standard
Per MPI rank memory allocation (min/avg/max) = 17.11 | 17.11 | 17.11 Mbytes
Step Temp E_pair E_mol TotEng Press 
       0    1640.5446    -653.3123    129562.72    131065.96   -516.68263 
    2000    1654.1899   -685.64855    2359.9367    3848.7823   -2.8458476 
Loop time of 5.65754 on 1 procs for 2000 steps with 442 atoms

Performance: 30.543 ns/day, 0.786 hours/ns, 353.511 timesteps/s
100.0% CPU use with 1 MPI tasks x no OpenMP threads

MPI task timing breakdown:
Section |  min time  |  avg time  |  max time  |%varavg| %total
---------------------------------------------------------------
Pair    | 1.6594     | 1.6594     | 1.6594     |   0.0 | 29.33
Bond    | 0.36955    | 0.36955    | 0.36955    |   0.0 |  6.53
Kspace  | 3.4121     | 3.4121     | 3.4121     |   0.0 | 60.31
Neigh   | 0.19423    | 0.19423    | 0.19423    |   0.0 |  3.43
Comm    | 0.0023687  | 0.0023687  | 0.0023687  |   0.0 |  0.04
Output  | 2.408e-05  | 2.408e-05  | 2.408e-05  |   0.0 |  0.00
Modify  | 0.01524    | 0.01524    | 0.01524    |   0.0 |  0.27
Other   |            | 0.004609   |            |       |  0.08

Nlocal:    442 ave 442 max 442 min
Histogram: 1 0 0 0 0 0 0 0 0 0
Nghost:    0 ave 0 max 0 min
Histogram: 1 0 0 0 0 0 0 0 0 0
Neighs:    32766 ave 32766 max 32766 min
Histogram: 1 0 0 0 0 0 0 0 0 0

Total # of neighbors = 32766
Ave neighs/atom = 74.1312
Ave special neighs/atom = 10.7059
Neighbor list builds = 169
Dangerous builds = 0
unfix pysimm_md
min_style cg
minimize 0.001 0.001 10000 100000
WARNING: Using 'neigh_modify every 1 delay 0 check yes' setting during minimization (../min.cpp:190)
PPPM initialization ...
  using 12-bit tables for long-range coulomb (../kspace.cpp:332)
  G vector (1/distance) = 0.0965768
  grid = 20 20 20
  stencil order = 5
  estimated absolute RMS force accuracy = 0.0349352
  estimated relative force accuracy = 0.000105206
  using double precision KISS FFT
  3d grid and FFT values/proc = 15625 8000
Per MPI rank memory allocation (min/avg/max) = 18.24 | 18.24 | 18.24 Mbytes
Step Temp E_pair E_mol TotEng Press 
    2000    1654.1899   -685.64855    2359.9367    3848.7823   -2.8458476 
    2046    1654.1899   -718.06565    959.66924    2416.0978    8.8605395 
Loop time of 0.48441 on 1 procs for 46 steps with 442 atoms

100.1% CPU use with 1 MPI tasks x no OpenMP threads

Minimization stats:
  Stopping criterion = linesearch alpha is zero
  Energy initial, next-to-last, final = 
         1674.28813927        241.6035984        241.6035984
  Force two-norm initial, final = 1450.96 61.0158
  Force max component initial, final = 162.639 9.0371
  Final line search alpha, max atom move = 2.95018e-12 2.6661e-11
  Iterations, force evaluations = 46 151

MPI task timing breakdown:
Section |  min time  |  avg time  |  max time  |%varavg| %total
---------------------------------------------------------------
Pair    | 0.17096    | 0.17096    | 0.17096    |   0.0 | 35.29
Bond    | 0.030892   | 0.030892   | 0.030892   |   0.0 |  6.38
Kspace  | 0.28       | 0.28       | 0.28       |   0.0 | 57.80
Neigh   | 0.00098801 | 0.00098801 | 0.00098801 |   0.0 |  0.20
Comm    | 8.2493e-05 | 8.2493e-05 | 8.2493e-05 |   0.0 |  0.02
Output  | 0          | 0          | 0          |   0.0 |  0.00
Modify  | 0          | 0          | 0          |   0.0 |  0.00
Other   |            | 0.001486   |            |       |  0.31

Nlocal:    442 ave 442 max 442 min
Histogram: 1 0 0 0 0 0 0 0 0 0
Nghost:    0 ave 0 max 0 min
Histogram: 1 0 0 0 0 0 0 0 0 0
Neighs:    32511 ave 32511 max 32511 min
Histogram: 1 0 0 0 0 0 0 0 0 0

Total # of neighbors = 32511
Ave neighs/atom = 73.5543
Ave special neighs/atom = 10.7059
Neighbor list builds = 1
Dangerous builds = 0
write_dump all custom pysimm.dump.tmp id q x y z vx vy vz
quit


################################################################################
##################################    Init    ##################################
################################################################################
units           real
atom_style      full
pair_style      lj/cut/coul/long 12.0  12.0
kspace_style    pppm 1e-4
bond_style      harmonic
angle_style     harmonic
dihedral_style  fourier
improper_style  cvff
special_bonds   amber
pair_modify     mix arithmetic
read_data       temp.lmps
  orthogonal box = (-117.866 -117.866 -117.866) to (117.866 117.866 117.866)
  1 by 1 by 1 MPI processor grid
  reading atoms ...
  476 atoms
  reading velocities ...
  476 velocities
  scanning bonds ...
  3 = max bonds/atom
  scanning angles ...
  6 = max angles/atom
  scanning dihedrals ...
  18 = max dihedrals/atom
  scanning impropers ...
  2 = max impropers/atom
  reading bonds ...
  531 bonds
  reading angles ...
  878 angles
  reading dihedrals ...
  1336 dihedrals
  reading impropers ...
  56 impropers
  4 = max # of 1-2 neighbors
  8 = max # of 1-3 neighbors
  17 = max # of 1-4 neighbors
  18 = max # of special neighbors
  special bonds CPU = 0.000557184 secs
  read_data CPU = 0.00737786 secs
################################################################################

timestep        1
fix             pysimm_md all nve/limit 0.1
run             2000
PPPM initialization ...
WARNING: System is not charge neutral, net charge = 1.4e-05 (../kspace.cpp:313)
  using 12-bit tables for long-range coulomb (../kspace.cpp:332)
  G vector (1/distance) = 0.107809
  grid = 24 24 24
  stencil order = 5
  estimated absolute RMS force accuracy = 0.025027
  estimated relative force accuracy = 7.53681e-05
  using double precision KISS FFT
  3d grid and FFT values/proc = 24389 13824
Neighbor list info ...
  update every 1 steps, delay 10 steps, check yes
  max neighbors/atom: 2000, page size: 100000
  master list distance cutoff = 14
  ghost atom cutoff = 14
  binsize = 7, bins = 34 34 34
  1 neighbor lists, perpetual/occasional/extra = 1 0 0
  (1) pair lj/cut/coul/long, perpetual
      attributes: half, newton on
      pair build: half/bin/newton
      stencil: half/bin/3d/newton
      bin: standard
Per MPI rank memory allocation (min/avg/max) = 17.97 | 17.97 | 17.97 Mbytes
Step Temp E_pair E_mol TotEng Press 
       0    1535.9955   -735.17818    137920.13    139359.74   -505.95745 
    2000    1392.8333   -696.70276    2260.4265    3535.8151  -0.94037171 
Loop time of 8.30559 on 1 procs for 2000 steps with 476 atoms

Performance: 20.805 ns/day, 1.154 hours/ns, 240.802 timesteps/s
100.0% CPU use with 1 MPI tasks x no OpenMP threads

MPI task timing breakdown:
Section |  min time  |  avg time  |  max time  |%varavg| %total
---------------------------------------------------------------
Pair    | 1.3469     | 1.3469     | 1.3469     |   0.0 | 16.22
Bond    | 0.40457    | 0.40457    | 0.40457    |   0.0 |  4.87
Kspace  | 6.3635     | 6.3635     | 6.3635     |   0.0 | 76.62
Neigh   | 0.16341    | 0.16341    | 0.16341    |   0.0 |  1.97
Comm    | 0.0057242  | 0.0057242  | 0.0057242  |   0.0 |  0.07
Output  | 2.4796e-05 | 2.4796e-05 | 2.4796e-05 |   0.0 |  0.00
Modify  | 0.016891   | 0.016891   | 0.016891   |   0.0 |  0.20
Other   |            | 0.004588   |            |       |  0.06

Nlocal:    476 ave 476 max 476 min
Histogram: 1 0 0 0 0 0 0 0 0 0
Nghost:    374 ave 374 max 374 min
Histogram: 1 0 0 0 0 0 0 0 0 0
Neighs:    24969 ave 24969 max 24969 min
Histogram: 1 0 0 0 0 0 0 0 0 0

Total # of neighbors = 24969
Ave neighs/atom = 52.4559
Ave special neighs/atom = 10.7101
Neighbor list builds = 166
Dangerous builds = 0
unfix pysimm_md
min_style cg
minimize 0.001 0.001 10000 100000
WARNING: Using 'neigh_modify every 1 delay 0 check yes' setting during minimization (../min.cpp:190)
PPPM initialization ...
  using 12-bit tables for long-range coulomb (../kspace.cpp:332)
  G vector (1/distance) = 0.107809
  grid = 24 24 24
  stencil order = 5
  estimated absolute RMS force accuracy = 0.025027
  estimated relative force accuracy = 7.53681e-05
  using double precision KISS FFT
  3d grid and FFT values/proc = 24389 13824
Per MPI rank memory allocation (min/avg/max) = 19.11 | 19.11 | 19.11 Mbytes
Step Temp E_pair E_mol TotEng Press 
    2000    1392.8333   -696.70276    2260.4265    3535.8151  -0.94037171 
    2061    1392.8333   -744.74293    997.51187    2224.8603    6.9880976 
Loop time of 0.785912 on 1 procs for 61 steps with 476 atoms

100.0% CPU use with 1 MPI tasks x no OpenMP threads

Minimization stats:
  Stopping criterion = linesearch alpha is zero
  Energy initial, next-to-last, final = 
          1563.7236896      252.768932594      252.768932594
  Force two-norm initial, final = 1429.53 43.1718
  Force max component initial, final = 148.077 6.6369
  Final line search alpha, max atom move = 3.71529e-12 2.4658e-11
  Iterations, force evaluations = 61 181

MPI task timing breakdown:
Section |  min time  |  avg time  |  max time  |%varavg| %total
---------------------------------------------------------------
Pair    | 0.16405    | 0.16405    | 0.16405    |   0.0 | 20.87
Bond    | 0.040252   | 0.040252   | 0.040252   |   0.0 |  5.12
Kspace  | 0.57812    | 0.57812    | 0.57812    |   0.0 | 73.56
Neigh   | 0.00093389 | 0.00093389 | 0.00093389 |   0.0 |  0.12
Comm    | 0.00049734 | 0.00049734 | 0.00049734 |   0.0 |  0.06
Output  | 0          | 0          | 0          |   0.0 |  0.00
Modify  | 0          | 0          | 0          |   0.0 |  0.00
Other   |            | 0.002065   |            |       |  0.26

Nlocal:    476 ave 476 max 476 min
Histogram: 1 0 0 0 0 0 0 0 0 0
Nghost:    373 ave 373 max 373 min
Histogram: 1 0 0 0 0 0 0 0 0 0
Neighs:    24983 ave 24983 max 24983 min
Histogram: 1 0 0 0 0 0 0 0 0 0

Total # of neighbors = 24983
Ave neighs/atom = 52.4853
Ave special neighs/atom = 10.7101
Neighbor list builds = 1
Dangerous builds = 0
write_dump all custom pysimm.dump.tmp id q x y z vx vy vz
quit


################################################################################
##################################    Init    ##################################
################################################################################
units           real
atom_style      full
pair_style      lj/cut/coul/long 12.0  12.0
kspace_style    pppm 1e-4
bond_style      harmonic
angle_style     harmonic
dihedral_style  fourier
improper_style  cvff
special_bonds   amber
pair_modify     mix arithmetic
read_data       temp.lmps
  orthogonal box = (-120.814 -120.814 -120.814) to (120.814 120.814 120.814)
  1 by 1 by 1 MPI processor grid
  reading atoms ...
  510 atoms
  reading velocities ...
  510 velocities
  scanning bonds ...
  3 = max bonds/atom
  scanning angles ...
  6 = max angles/atom
  scanning dihedrals ...
  18 = max dihedrals/atom
  scanning impropers ...
  2 = max impropers/atom
  reading bonds ...
  569 bonds
  reading angles ...
  941 angles
  reading dihedrals ...
  1432 dihedrals
  reading impropers ...
  60 impropers
  4 = max # of 1-2 neighbors
  8 = max # of 1-3 neighbors
  17 = max # of 1-4 neighbors
  18 = max # of special neighbors
  special bonds CPU = 0.000476122 secs
  read_data CPU = 0.00759888 secs
################################################################################

timestep        1
fix             pysimm_md all nve/limit 0.1
run             2000
PPPM initialization ...
WARNING: System is not charge neutral, net charge = 1.5e-05 (../kspace.cpp:313)
  using 12-bit tables for long-range coulomb (../kspace.cpp:332)
  G vector (1/distance) = 0.105987
  grid = 24 24 24
  stencil order = 5
  estimated absolute RMS force accuracy = 0.0264029
  estimated relative force accuracy = 7.95115e-05
  using double precision KISS FFT
  3d grid and FFT values/proc = 24389 13824
Neighbor list info ...
  update every 1 steps, delay 10 steps, check yes
  max neighbors/atom: 2000, page size: 100000
  master list distance cutoff = 14
  ghost atom cutoff = 14
  binsize = 7, bins = 35 35 35
  1 neighbor lists, perpetual/occasional/extra = 1 0 0
  (1) pair lj/cut/coul/long, perpetual
      attributes: half, newton on
      pair build: half/bin/newton
      stencil: half/bin/3d/newton
      bin: standard
Per MPI rank memory allocation (min/avg/max) = 17.99 | 17.99 | 17.99 Mbytes
Step Temp E_pair E_mol TotEng Press 
       0    1299.9916   -765.80937    144241.51    145448.09   -491.83792 
    2000    1251.5349    -732.4678    2277.7885    3444.1898  -0.75458511 
Loop time of 8.54037 on 1 procs for 2000 steps with 510 atoms

[...]
  using double precision KISS FFT
  3d grid and FFT values/proc = 50653 32768
Per MPI rank memory allocation (min/avg/max) = 22.69 | 22.69 | 22.69 Mbytes
Step Temp E_pair E_mol TotEng Press 
    2000     398.4171   -2745.6057    4273.3207    3424.3214  -0.33403539 
    2028     398.4171    -2780.591     3249.932    2365.9474    2.0465876 
Loop time of 0.798906 on 1 procs for 28 steps with 1598 atoms

100.1% CPU use with 1 MPI tasks x no OpenMP threads

Minimization stats:
  Stopping criterion = energy tolerance
  Energy initial, next-to-last, final = 
         1527.71506663       469.59458138      469.341035649
  Force two-norm initial, final = 1315.51 87.1035
  Force max component initial, final = 181.716 9.68253
  Final line search alpha, max atom move = 0.00175002 0.0169446
  Iterations, force evaluations = 28 56

MPI task timing breakdown:
Section |  min time  |  avg time  |  max time  |%varavg| %total
---------------------------------------------------------------
Pair    | 0.22527    | 0.22527    | 0.22527    |   0.0 | 28.20
Bond    | 0.041863   | 0.041863   | 0.041863   |   0.0 |  5.24
Kspace  | 0.52586    | 0.52586    | 0.52586    |   0.0 | 65.82
Neigh   | 0.0033691  | 0.0033691  | 0.0033691  |   0.0 |  0.42
Comm    | 8.9645e-05 | 8.9645e-05 | 8.9645e-05 |   0.0 |  0.01
Output  | 0          | 0          | 0          |   0.0 |  0.00
Modify  | 0          | 0          | 0          |   0.0 |  0.00
Other   |            | 0.002461   |            |       |  0.31

Nlocal:    1598 ave 1598 max 1598 min
Histogram: 1 0 0 0 0 0 0 0 0 0
Nghost:    0 ave 0 max 0 min
Histogram: 1 0 0 0 0 0 0 0 0 0
Neighs:    109741 ave 109741 max 109741 min
Histogram: 1 0 0 0 0 0 0 0 0 0

Total # of neighbors = 109741
Ave neighs/atom = 68.674
Ave special neighs/atom = 10.7484
Neighbor list builds = 1
Dangerous builds = 0
write_dump all custom pysimm.dump.tmp id q x y z vx vy vz
quit


################################################################################
##################################    Init    ##################################
################################################################################
units           real
atom_style      full
pair_style      lj/cut/coul/long 12.0  12.0
kspace_style    pppm 1e-4
bond_style      harmonic
angle_style     harmonic
dihedral_style  fourier
improper_style  cvff
special_bonds   amber
pair_modify     mix arithmetic
read_data       temp.lmps
  orthogonal box = (-180.901 -180.901 -180.901) to (180.901 180.901 180.901)
  1 by 1 by 1 MPI processor grid
  reading atoms ...
  1632 atoms
  reading velocities ...
  1632 velocities
  scanning bonds ...
  3 = max bonds/atom
  scanning angles ...
  6 = max angles/atom
  scanning dihedrals ...
  18 = max dihedrals/atom
  scanning impropers ...
  2 = max impropers/atom
  reading bonds ...
  1823 bonds
  reading angles ...
  3020 angles
  reading dihedrals ...
  4600 dihedrals
  reading impropers ...
  192 impropers
  4 = max # of 1-2 neighbors
  8 = max # of 1-3 neighbors
  17 = max # of 1-4 neighbors
  18 = max # of special neighbors
  special bonds CPU = 0.00127912 secs
  read_data CPU = 0.0184052 secs
################################################################################

timestep        1
fix             pysimm_md all nve/limit 0.1
run             2000
PPPM initialization ...
WARNING: System is not charge neutral, net charge = 4.8e-05 (../kspace.cpp:313)
  using 12-bit tables for long-range coulomb (../kspace.cpp:332)
  G vector (1/distance) = 0.0976274
  grid = 32 32 32
  stencil order = 5
  estimated absolute RMS force accuracy = 0.0329378
  estimated relative force accuracy = 9.91913e-05
  using double precision KISS FFT
  3d grid and FFT values/proc = 50653 32768
Neighbor list info ...
  update every 1 steps, delay 10 steps, check yes
  max neighbors/atom: 2000, page size: 100000
  master list distance cutoff = 14
  ghost atom cutoff = 14
  binsize = 7, bins = 52 52 52
  1 neighbor lists, perpetual/occasional/extra = 1 0 0
  (1) pair lj/cut/coul/long, perpetual
      attributes: half, newton on
      pair build: half/bin/newton
      stencil: half/bin/3d/newton
      bin: standard
Per MPI rank memory allocation (min/avg/max) = 21.57 | 21.57 | 21.57 Mbytes
Step Temp E_pair E_mol TotEng Press 
       0    390.17285   -2802.4745    171897.09    170991.52   -171.85157 
    2000    398.34435   -2787.0481    4232.7481    3382.3313   0.16562787 
Loop time of 24.4921 on 1 procs for 2000 steps with 1632 atoms

Performance: 7.055 ns/day, 3.402 hours/ns, 81.659 timesteps/s
100.0% CPU use with 1 MPI tasks x no OpenMP threads

MPI task timing breakdown:
Section |  min time  |  avg time  |  max time  |%varavg| %total
---------------------------------------------------------------
Pair    | 5.0777     | 5.0777     | 5.0777     |   0.0 | 20.73
Bond    | 1.3603     | 1.3603     | 1.3603     |   0.0 |  5.55
Kspace  | 17.425     | 17.425     | 17.425     |   0.0 | 71.15
Neigh   | 0.55322    | 0.55322    | 0.55322    |   0.0 |  2.26
Comm    | 0.006474   | 0.006474   | 0.006474   |   0.0 |  0.03
Output  | 3.0994e-05 | 3.0994e-05 | 3.0994e-05 |   0.0 |  0.00
Modify  | 0.057096   | 0.057096   | 0.057096   |   0.0 |  0.23
Other   |            | 0.01227    |            |       |  0.05

Nlocal:    1632 ave 1632 max 1632 min
Histogram: 1 0 0 0 0 0 0 0 0 0
Nghost:    0 ave 0 max 0 min
Histogram: 1 0 0 0 0 0 0 0 0 0
Neighs:    110712 ave 110712 max 110712 min
Histogram: 1 0 0 0 0 0 0 0 0 0

Total # of neighbors = 110712
Ave neighs/atom = 67.8382
Ave special neighs/atom = 10.7488
Neighbor list builds = 160
Dangerous builds = 0
unfix pysimm_md
min_style cg
minimize 0.001 0.001 10000 100000
WARNING: Using 'neigh_modify every 1 delay 0 check yes' setting during minimization (../min.cpp:190)
PPPM initialization ...
  using 12-bit tables for long-range coulomb (../kspace.cpp:332)
  G vector (1/distance) = 0.0976274
  grid = 32 32 32
  stencil order = 5
  estimated absolute RMS force accuracy = 0.0329378
  estimated relative force accuracy = 9.91913e-05
  using double precision KISS FFT
  3d grid and FFT values/proc = 50653 32768
Per MPI rank memory allocation (min/avg/max) = 22.69 | 22.69 | 22.69 Mbytes
Step Temp E_pair E_mol TotEng Press 
    2000    398.34435   -2787.0481    4232.7481    3382.3313   0.16562787 
    2036    398.34435   -2842.5051    3271.8954    2366.0215    1.6744977 
Loop time of 1.83277 on 1 procs for 36 steps with 1632 atoms

100.1% CPU use with 1 MPI tasks x no OpenMP threads

Minimization stats:
  Stopping criterion = linesearch alpha is zero
  Energy initial, next-to-last, final = 
         1445.70005805      429.390341491      429.390341491
  Force two-norm initial, final = 1245.34 69.3538
  Force max component initial, final = 199.728 9.06649
  Final line search alpha, max atom move = 1.37973e-12 1.25093e-11
  Iterations, force evaluations = 36 133

MPI task timing breakdown:
Section |  min time  |  avg time  |  max time  |%varavg| %total
---------------------------------------------------------------
Pair    | 0.51867    | 0.51867    | 0.51867    |   0.0 | 28.30
Bond    | 0.099833   | 0.099833   | 0.099833   |   0.0 |  5.45
Kspace  | 1.206      | 1.206      | 1.206      |   0.0 | 65.80
Neigh   | 0.0034671  | 0.0034671  | 0.0034671  |   0.0 |  0.19
Comm    | 0.00012398 | 0.00012398 | 0.00012398 |   0.0 |  0.01
Output  | 0          | 0          | 0          |   0.0 |  0.00
Modify  | 0          | 0          | 0          |   0.0 |  0.00
Other   |            | 0.00472    |            |       |  0.26

Nlocal:    1632 ave 1632 max 1632 min
Histogram: 1 0 0 0 0 0 0 0 0 0
Nghost:    0 ave 0 max 0 min
Histogram: 1 0 0 0 0 0 0 0 0 0
Neighs:    110809 ave 110809 max 110809 min
Histogram: 1 0 0 0 0 0 0 0 0 0

Total # of neighbors = 110809
Ave neighs/atom = 67.8977
Ave special neighs/atom = 10.7488
Neighbor list builds = 1
Dangerous builds = 0
write_dump all custom pysimm.dump.tmp id q x y z vx vy vz
quit


################################################################################
##################################    Init    ##################################
################################################################################
units           real
atom_style      full
pair_style      lj/cut/coul/long 12.0  12.0
kspace_style    pppm 1e-4
bond_style      harmonic
angle_style     harmonic
dihedral_style  fourier
improper_style  cvff
special_bonds   amber
pair_modify     mix arithmetic
read_data       temp.lmps
  orthogonal box = (-182.175 -182.175 -182.175) to (182.175 182.175 182.175)
  1 by 1 by 1 MPI processor grid
  reading atoms ...
  1666 atoms
  reading velocities ...
  1666 velocities
  scanning bonds ...
  3 = max bonds/atom
  scanning angles ...
  6 = max angles/atom
  scanning dihedrals ...
  18 = max dihedrals/atom
  scanning impropers ...
  2 = max impropers/atom
  reading bonds ...
  1861 bonds
  reading angles ...
  3083 angles
  reading dihedrals ...
  4696 dihedrals
  reading impropers ...
  196 impropers
  4 = max # of 1-2 neighbors
  8 = max # of 1-3 neighbors
  17 = max # of 1-4 neighbors
  18 = max # of special neighbors
  special bonds CPU = 0.00138211 secs
  read_data CPU = 0.0170872 secs
################################################################################

timestep        1
fix             pysimm_md all nve/limit 0.1
run             2000
PPPM initialization ...
WARNING: System is not charge neutral, net charge = 4.9e-05 (../kspace.cpp:313)
  using 12-bit tables for long-range coulomb (../kspace.cpp:332)
  G vector (1/distance) = 0.0971326
  grid = 32 32 32
  stencil order = 5
  estimated absolute RMS force accuracy = 0.0333908
  estimated relative force accuracy = 0.000100555
  using double precision KISS FFT
  3d grid and FFT values/proc = 50653 32768
Neighbor list info ...
  update every 1 steps, delay 10 steps, check yes
  max neighbors/atom: 2000, page size: 100000
  master list distance cutoff = 14
  ghost atom cutoff = 14
  binsize = 7, bins = 53 53 53
  1 neighbor lists, perpetual/occasional/extra = 1 0 0
  (1) pair lj/cut/coul/long, perpetual
      attributes: half, newton on
      pair build: half/bin/newton
      stencil: half/bin/3d/newton
      bin: standard
Per MPI rank memory allocation (min/avg/max) = 21.61 | 21.61 | 21.61 Mbytes
Step Temp E_pair E_mol TotEng Press 
       0    390.27004   -2864.4318    144747.95    143820.45   -141.97473 
    2000    428.64973   -2835.9237    4506.9001     3798.386  -0.43956707 
Loop time of 24.9718 on 1 procs for 2000 steps with 1666 atoms

Performance: 6.920 ns/day, 3.468 hours/ns, 80.091 timesteps/s
99.8% CPU use with 1 MPI tasks x no OpenMP threads

MPI task timing breakdown:
Section |  min time  |  avg time  |  max time  |%varavg| %total
---------------------------------------------------------------
Pair    | 5.1195     | 5.1195     | 5.1195     |   0.0 | 20.50
Bond    | 1.3913     | 1.3913     | 1.3913     |   0.0 |  5.57
Kspace  | 17.785     | 17.785     | 17.785     |   0.0 | 71.22
Neigh   | 0.60194    | 0.60194    | 0.60194    |   0.0 |  2.41
Comm    | 0.0065076  | 0.0065076  | 0.0065076  |   0.0 |  0.03
Output  | 3.1948e-05 | 3.1948e-05 | 3.1948e-05 |   0.0 |  0.00
Modify  | 0.056451   | 0.056451   | 0.056451   |   0.0 |  0.23
Other   |            | 0.0112     |            |       |  0.04

Nlocal:    1666 ave 1666 max 1666 min
Histogram: 1 0 0 0 0 0 0 0 0 0
Nghost:    0 ave 0 max 0 min
Histogram: 1 0 0 0 0 0 0 0 0 0
Neighs:    113431 ave 113431 max 113431 min
Histogram: 1 0 0 0 0 0 0 0 0 0

Total # of neighbors = 113431
Ave neighs/atom = 68.0858
Ave special neighs/atom = 10.7491
Neighbor list builds = 167
Dangerous builds = 0
unfix pysimm_md
min_style cg
minimize 0.001 0.001 10000 100000
WARNING: Using 'neigh_modify every 1 delay 0 check yes' setting during minimization (../min.cpp:190)
PPPM initialization ...
  using 12-bit tables for long-range coulomb (../kspace.cpp:332)
  G vector (1/distance) = 0.0971326
  grid = 32 32 32
  stencil order = 5
  estimated absolute RMS force accuracy = 0.0333908
  estimated relative force accuracy = 0.000100555
  using double precision KISS FFT
  3d grid and FFT values/proc = 50653 32768
Per MPI rank memory allocation (min/avg/max) = 22.73 | 22.73 | 22.73 Mbytes
Step Temp E_pair E_mol TotEng Press 
    2000    428.64973   -2835.9237    4506.9001     3798.386  -0.43956707 
    2040    428.64973    -2900.335    3362.7212    2589.7957    1.7032396 
Loop time of 1.93681 on 1 procs for 40 steps with 1666 atoms

99.9% CPU use with 1 MPI tasks x no OpenMP threads

Minimization stats:
  Stopping criterion = linesearch alpha is zero
  Energy initial, next-to-last, final = 
         1670.97646938      462.386205697      462.386205697
  Force two-norm initial, final = 1311.34 69.4456
  Force max component initial, final = 179.33 12.413
  Final line search alpha, max atom move = 2.42563e-12 3.01093e-11
  Iterations, force evaluations = 40 139

MPI task timing breakdown:
Section |  min time  |  avg time  |  max time  |%varavg| %total
---------------------------------------------------------------
Pair    | 0.54862    | 0.54862    | 0.54862    |   0.0 | 28.33
Bond    | 0.10633    | 0.10633    | 0.10633    |   0.0 |  5.49
Kspace  | 1.2696     | 1.2696     | 1.2696     |   0.0 | 65.55
Neigh   | 0.007122   | 0.007122   | 0.007122   |   0.0 |  0.37
Comm    | 0.00019121 | 0.00019121 | 0.00019121 |   0.0 |  0.01
Output  | 0          | 0          | 0          |   0.0 |  0.00
Modify  | 0          | 0          | 0          |   0.0 |  0.00
Other   |            | 0.004984   |            |       |  0.26

Nlocal:    1666 ave 1666 max 1666 min
Histogram: 1 0 0 0 0 0 0 0 0 0
Nghost:    0 ave 0 max 0 min
Histogram: 1 0 0 0 0 0 0 0 0 0
Neighs:    113507 ave 113507 max 113507 min
Histogram: 1 0 0 0 0 0 0 0 0 0

Total # of neighbors = 113507
Ave neighs/atom = 68.1315
Ave special neighs/atom = 10.7491
Neighbor list builds = 2
Dangerous builds = 0
write_dump all custom pysimm.dump.tmp id q x y z vx vy vz
quit


################################################################################
##################################    Init    ##################################
################################################################################
units           real
atom_style      full
pair_style      lj/cut/coul/long 12.0  12.0
kspace_style    pppm 1e-4
bond_style      harmonic
angle_style     harmonic
dihedral_style  fourier
improper_style  cvff
special_bonds   amber
pair_modify     mix arithmetic
read_data       temp.lmps
  orthogonal box = (-183.432 -183.432 -183.432) to (183.432 183.432 183.432)
  1 by 1 by 1 MPI processor grid
  reading atoms ...
  1700 atoms
  reading velocities ...
  1700 velocities
  scanning bonds ...
  3 = max bonds/atom
  scanning angles ...
  6 = max angles/atom
  scanning dihedrals ...
  18 = max dihedrals/atom
  scanning impropers ...
  2 = max impropers/atom
  reading bonds ...
  1899 bonds
  reading angles ...
  3146 angles
  reading dihedrals ...
  4792 dihedrals
  reading impropers ...
  200 impropers
  4 = max # of 1-2 neighbors
  8 = max # of 1-3 neighbors
  17 = max # of 1-4 neighbors
  18 = max # of special neighbors
  special bonds CPU = 0.00129008 secs
  read_data CPU = 0.0176671 secs
################################################################################

timestep        1
fix             pysimm_md all nve/limit 0.1
run             2000
PPPM initialization ...
WARNING: System is not charge neutral, net charge = 5e-05 (../kspace.cpp:313)
  using 12-bit tables for long-range coulomb (../kspace.cpp:332)
  G vector (1/distance) = 0.0966493
  grid = 32 32 32
  stencil order = 5
  estimated absolute RMS force accuracy = 0.0338371
  estimated relative force accuracy = 0.0001019
  using double precision KISS FFT
  3d grid and FFT values/proc = 50653 32768
Neighbor list info ...
  update every 1 steps, delay 10 steps, check yes
  max neighbors/atom: 2000, page size: 100000
  master list distance cutoff = 14
  ghost atom cutoff = 14
  binsize = 7, bins = 53 53 53
  1 neighbor lists, perpetual/occasional/extra = 1 0 0
  (1) pair lj/cut/coul/long, perpetual
      attributes: half, newton on
      pair build: half/bin/newton
      stencil: half/bin/3d/newton
      bin: standard
Per MPI rank memory allocation (min/avg/max) = 21.61 | 21.61 | 21.61 Mbytes
Step Temp E_pair E_mol TotEng Press 
       0    420.13041   -2922.3333    147779.45    146984.82   -141.83652 
    2000    401.18175   -2864.0034    4477.6245    3645.3645    1.8032475 
Loop time of 26.2389 on 1 procs for 2000 steps with 1700 atoms

Performance: 6.586 ns/day, 3.644 hours/ns, 76.223 timesteps/s
100.0% CPU use with 1 MPI tasks x no OpenMP threads

MPI task timing breakdown:
Section |  min time  |  avg time  |  max time  |%varavg| %total
---------------------------------------------------------------
Pair    | 5.5856     | 5.5856     | 5.5856     |   0.0 | 21.29
Bond    | 1.416      | 1.416      | 1.416      |   0.0 |  5.40
Kspace  | 18.504     | 18.504     | 18.504     |   0.0 | 70.52
Neigh   | 0.65638    | 0.65638    | 0.65638    |   0.0 |  2.50
Comm    | 0.0073979  | 0.0073979  | 0.0073979  |   0.0 |  0.03
Output  | 3.6955e-05 | 3.6955e-05 | 3.6955e-05 |   0.0 |  0.00
Modify  | 0.05825    | 0.05825    | 0.05825    |   0.0 |  0.22
Other   |            | 0.01146    |            |       |  0.04

Nlocal:    1700 ave 1700 max 1700 min
Histogram: 1 0 0 0 0 0 0 0 0 0
Nghost:    0 ave 0 max 0 min
Histogram: 1 0 0 0 0 0 0 0 0 0
Neighs:    130567 ave 130567 max 130567 min
Histogram: 1 0 0 0 0 0 0 0 0 0

Total # of neighbors = 130567
Ave neighs/atom = 76.8041
Ave special neighs/atom = 10.7494
Neighbor list builds = 166
Dangerous builds = 0
unfix pysimm_md
min_style cg
minimize 0.001 0.001 10000 100000
WARNING: Using 'neigh_modify every 1 delay 0 check yes' setting during minimization (../min.cpp:190)
PPPM initialization ...
  using 12-bit tables for long-range coulomb (../kspace.cpp:332)
  G vector (1/distance) = 0.0966493
  grid = 32 32 32
  stencil order = 5
  estimated absolute RMS force accuracy = 0.0338371
  estimated relative force accuracy = 0.0001019
  using double precision KISS FFT
  3d grid and FFT values/proc = 50653 32768
Per MPI rank memory allocation (min/avg/max) = 22.74 | 22.74 | 22.74 Mbytes
Step Temp E_pair E_mol TotEng Press 
    2000    401.18175   -2864.0034    4477.6245    3645.3645    1.8032475 
    2039    401.18175   -2980.8806    3430.9569    2481.8197     1.676592 
Loop time of 1.97099 on 1 procs for 39 steps with 1700 atoms

100.1% CPU use with 1 MPI tasks x no OpenMP threads

Minimization stats:
  Stopping criterion = linesearch alpha is zero
  Energy initial, next-to-last, final = 
         1613.62115905      450.076329965      450.076329965
  Force two-norm initial, final = 1327.79 78.7145
  Force max component initial, final = 167.512 7.40943
  Final line search alpha, max atom move = 1.47755e-12 1.09478e-11
  Iterations, force evaluations = 39 139

MPI task timing breakdown:
Section |  min time  |  avg time  |  max time  |%varavg| %total
---------------------------------------------------------------
Pair    | 0.62287    | 0.62287    | 0.62287    |   0.0 | 31.60
Bond    | 0.10822    | 0.10822    | 0.10822    |   0.0 |  5.49
Kspace  | 1.2306     | 1.2306     | 1.2306     |   0.0 | 62.44
Neigh   | 0.0040631  | 0.0040631  | 0.0040631  |   0.0 |  0.21
Comm    | 0.00013232 | 0.00013232 | 0.00013232 |   0.0 |  0.01
Output  | 0          | 0          | 0          |   0.0 |  0.00
Modify  | 0          | 0          | 0          |   0.0 |  0.00
Other   |            | 0.005111   |            |       |  0.26

Nlocal:    1700 ave 1700 max 1700 min
Histogram: 1 0 0 0 0 0 0 0 0 0
Nghost:    0 ave 0 max 0 min
Histogram: 1 0 0 0 0 0 0 0 0 0
Neighs:    130398 ave 130398 max 130398 min
Histogram: 1 0 0 0 0 0 0 0 0 0

Total # of neighbors = 130398
Ave neighs/atom = 76.7047
Ave special neighs/atom = 10.7494
Neighbor list builds = 1
Dangerous builds = 0
write_dump all custom pysimm.dump.tmp id q x y z vx vy vz
quit
