pySIMM System Object

1068 atoms
1067 bonds
2067 angles
2927 dihedrals
0 impropers

10 atom types
12 bond types
28 angle types
12 dihedral types
1 improper types

-119.832211 119.832211 xlo xhi
-119.832211 119.832211 ylo yhi
-119.832211 119.832211 zlo zhi

Masses

   1	14.01	# n3
   2	12.01	# c3
   3	1.008	# h1
   4	1.008	# hn
   5	1.008	# hc
   6	16.0	# o
   7	12.01	# c
   8	1.008	# h4
   9	16.0	# oh
  10	1.008	# ho

Pair Coeffs

   1	0.17	3.249998523775958	# n3
   2	0.1094	3.3996695084235347	# c3
   3	0.0157	2.471353044121301	# h1
   4	0.0157	1.069078461768407	# hn
   5	0.0157	2.649532787749369	# hc
   6	0.21	2.959921901149463	# o
   7	0.086	3.3996695084235347	# c
   8	0.015	2.5105525877194763	# h4
   9	0.2104	3.0664733878390478	# oh
  10	0.0047	0.5379246460131368	# ho

Bond Coeffs

   1	300.9	1.5375	# c3,c3
   2	392.4	1.019	# hn,n3
   3	330.6	1.0969	# c3,h1
   4	637.7	1.2183	# c,o
   5	325.9	1.4647	# c3,n3
   6	310.7	1.1121	# c,h4
   7	330.6	1.0969	# c3,hc
   8	313.0	1.5241	# c,c3
   9	325.9	1.465	# n3,c
  10	316.7	1.4233	# c3,oh
  11	371.4	0.973	# ho,oh
  12	400.1	1.3513	# c,oh

Angle Coeffs

   1	46.39	109.56	# c3,c3,h1
   2	66.02	111.04	# c3,c3,n3
   3	45.64	114.64	# c3,c,h4
   4	41.4	106.4	# hn,n3,hn
   5	39.24	108.46	# h1,c3,h1
   6	67.4	123.2	# c3,c,o
   7	47.42	109.29	# c3,n3,hn
   8	46.34	109.8	# c3,c3,hc
   9	63.27	111.04	# c,c3,c3
  10	39.4	107.58	# hc,c3,hc
  11	46.93	108.77	# c,c3,hc
  12	49.53	109.88	# h1,c3,n3
  13	62.86	111.51	# c3,c3,c3
  14	54.22	120.7	# h4,c,o
  15	63.8	112.35	# c3,n3,c
  16	47.4	109.29	# hn,n3,c
  17	66.0	111.04	# n3,c,c3
  18	70.9	110.7	# n3,c,o
  19	67.47	110.19	# c3,c3,oh
  20	50.93	110.26	# h1,c3,oh
  21	47.38	107.26	# c3,oh,ho
  22	63.82	112.35	# c3,n3,c3
  23	49.55	109.8	# hc,c3,n3
  24	67.9	109.98	# c3,oh,c
  25	68.4	112.73	# c3,c,oh
  26	75.92	122.1	# o,c,oh
  27	62.7	112.48	# c3,oh,c3
  28	51.11	109.5	# hc,c3,oh

Dihedral Coeffs

   1	1	0.16	3	0	# hc,c3,c3,c3
   2	1	0.3	3	0	# X,c3,n3,X
   3	1	0.15555555555555556	3	0	# X,c3,c3,X
   4	3	0.18	3	0	0.25	2	180	0.2	1	180	# c3,c3,c3,c3
   5	1	0.0	2	180	# X,c,c3,X
   6	1	0.15	3	0	# hc,c3,c3,hc
   7	3	0.8	1	0	0.0	2	0	0.08	3	180	# hc,c3,c,o
   8	2	0.16	3	0	0.25	1	0	# ho,oh,c3,c3
   9	1	0.16666666666666666	3	0	# X,c3,oh,X
  10	2	0.0	3	0	0.25	1	0	# hc,c3,c3,oh
  11	2	0.3	3	0	0.48	2	180	# c3,c3,n3,c3
  12	1	2.3	2	180	# X,c,oh,X

Improper Coeffs

   1	10.5	-1	2	# c,X,X,o

Atoms

   1	1	1	-0.353484	8.22294	-6.94394	-2.64094
   2	1	2	0.376337	8.72412	-5.60616	-2.87501
   3	1	2	-0.897489	7.55328	-4.66574	-3.09158
   4	1	3	0.034041	9.4146	-5.61871	-3.73258
   5	1	3	0.012328	9.28583	-5.25194	-1.9969
   6	1	4	0.229239	7.41692	-6.9252	-2.0261
   7	1	2	0.531206	7.95691	-3.18969	-2.9231
   8	1	5	0.202592	6.787	-4.86567	-2.34278
   9	1	5	0.099501	7.13063	-4.83323	-4.08406
  10	1	2	0.171725	6.94756	-2.16084	-3.5357
  11	1	5	-0.10542	8.9225	-3.03872	-3.40856
  12	1	5	-0.137294	8.125	-2.99658	-1.86639
  13	1	2	-0.155467	6.51859	-2.3585	-5.03329
  14	1	5	-0.053736	7.35428	-1.15681	-3.4235
  15	1	5	0.001015	6.03273	-2.17791	-2.91111
  16	1	2	0.033419	7.70975	-2.48511	-6.04009
  17	1	5	0.005395	5.9349	-1.47082	-5.32464
  18	1	5	0.019028	5.84215	-3.2151	-5.12526
  19	1	2	0.058829	7.34309	-3.05733	-7.44209
  20	1	5	-0.00779	8.46623	-3.1472	-5.61885
  21	1	5	-0.029026	8.19687	-1.49921	-6.10824
  22	1	2	-0.029357	8.44609	-2.93107	-8.5279
  23	1	5	-0.003083	6.40116	-2.62204	-7.80497
  24	1	5	-0.010137	7.14572	-4.12386	-7.33634
  25	1	2	-0.000585	8.8037	-1.46525	-8.7962
  26	1	5	0.006084	8.11914	-3.40877	-9.47426
  27	1	5	0.012201	9.36477	-3.46429	-8.24234
  28	1	2	-0.03118	7.68658	-0.403472	-8.74636
  29	1	5	0.011412	9.31437	-1.42134	-9.76505
  30	1	5	0.011566	9.5432	-1.1877	-8.04193
  31	1	2	-0.057912	8.17706	0.880793	-9.43132
  32	1	5	0.001922	7.41924	-0.170513	-7.69844
  33	1	5	0.021794	6.77685	-0.781471	-9.23351
  34	1	6	-0.501673	6.04769	1.99396	-8.96425
  35	1	7	0.462	7.24293	2.06957	-9.18422
  36	1	5	0.029593	8.29638	0.710738	-10.5073
  37	1	5	0.042406	9.17256	1.15274	-9.05071
  38	1	1	-0.353484	10.8552	-8.9037	-11.8001
  39	1	2	0.376337	11.4328	-10.0852	-11.1578
  40	1	2	-0.897489	10.2622	-10.8936	-10.5791
  41	1	3	0.034041	12.1084	-9.79057	-10.3519
  42	1	3	0.012328	11.9846	-10.6931	-11.8857
  43	1	4	0.229239	10.1762	-9.2279	-12.4803
  44	1	2	0.531206	10.5762	-12.1999	-9.81294
  45	1	5	0.202592	9.56417	-11.1352	-11.3885
  46	1	5	0.099501	9.73334	-10.2534	-9.87893
  47	1	2	0.171725	9.27056	-12.9365	-9.33418
  48	1	5	-0.10542	11.2058	-11.9287	-8.95581
  49	1	5	-0.137294	11.1532	-12.8589	-10.47
  50	1	2	-0.155467	9.41997	-13.5626	-7.90522
  51	1	5	-0.053736	9.04769	-13.7327	-10.0646
  52	1	5	0.001015	8.41367	-12.2543	-9.38482
  53	1	2	0.033419	9.73886	-12.5913	-6.70523
  54	1	5	0.005395	10.2068	-14.3183	-7.94507
  55	1	5	0.019028	8.50448	-14.1287	-7.69757
  56	1	2	0.058829	8.65761	-11.511	-6.46783
  57	1	5	-0.00779	10.6952	-12.072	-6.87336
  58	1	5	-0.029026	9.8788	-13.151	-5.77625
  59	1	2	-0.029357	9.02058	-10.4057	-5.44508
  60	1	5	-0.003083	7.74518	-12.0108	-6.13042
  61	1	5	-0.010137	8.40137	-11.0374	-7.41486
  62	1	2	-0.000585	9.02954	-10.9349	-3.98381
  63	1	5	0.006084	8.22972	-9.64537	-5.51603
  64	1	5	0.012201	9.94727	-9.88925	-5.68878
  65	1	2	-0.03118	8.64209	-9.91007	-2.92257
  66	1	5	0.011412	10.0081	-11.3873	-3.74832
  67	1	5	0.011566	8.3022	-11.754	-3.88333
  68	1	2	-0.057912	9.74109	-8.87367	-2.72465
  69	1	5	0.001922	8.49393	-10.4321	-1.97602
  70	1	5	0.021794	7.68489	-9.45412	-3.16723
  71	1	6	-0.501673	9.10861	-7.63412	-0.729884
  72	1	7	0.462	9.27309	-7.66035	-1.94321
  73	1	5	0.029593	10.1805	-8.55797	-3.67086
  74	1	5	0.042406	10.5422	-9.34522	-2.1321
  75	1	9	-0.26285	12.2273	-8.07957	-16.1277
  76	1	2	0.431937	11.604	-8.62811	-14.9415
  77	1	2	0.196566	12.5127	-8.43683	-13.697
  78	1	3	-0.176879	11.4523	-9.70871	-15.0826
  79	1	3	-0.045056	10.6026	-8.21528	-14.7756
  80	1	2	0.080387	11.7769	-7.94292	-12.4417
  81	1	5	0.032783	13.2698	-7.68209	-13.9395
  82	1	5	-0.126889	13.0654	-9.35947	-13.4646
  83	1	5	-0.081548	11.1863	-7.06184	-12.7177
  84	1	5	-0.048451	12.5084	-7.60666	-11.6968
  85	1	1	-0.353484	12.4378	1.51996	-16.5935
  86	1	2	0.376337	13.2075	1.7882	-15.378
  87	1	2	-0.897489	14.6503	2.09659	-15.7872
  88	1	3	0.034041	13.1575	0.945866	-14.6782
  89	1	3	0.012328	12.7837	2.65489	-14.8589
  90	1	4	0.229239	12.1456	2.4082	-16.9879
  91	1	2	0.531206	15.6747	1.90291	-14.6444
  92	1	5	0.202592	14.7177	3.10725	-16.1819
  93	1	5	0.099501	14.9259	1.43567	-16.6086
  94	1	2	0.171725	16.305	0.476813	-14.5787
  95	1	5	-0.10542	15.2339	2.18548	-13.6828
  96	1	5	-0.137294	16.4839	2.62152	-14.8496
  97	1	2	-0.155467	15.36	-0.742276	-14.3526
  98	1	5	-0.053736	17.0575	0.445869	-13.7879
  99	1	5	0.001015	16.8673	0.337178	-15.5091
 100	1	2	0.033419	16.0863	-2.09337	-14.5795
 101	1	5	0.005395	14.5254	-0.674388	-15.0588
 102	1	5	0.019028	14.9167	-0.701043	-13.3542
 103	1	2	0.058829	15.2135	-3.18865	-15.1954
 104	1	5	-0.00779	16.5191	-2.46558	-13.6433
 105	1	5	-0.029026	16.9405	-1.92163	-15.2429
 106	1	2	-0.029357	16.0163	-4.40078	-15.7456
 107	1	5	-0.003083	14.6695	-2.71121	-16.0192
 108	1	5	-0.010137	14.4723	-3.50498	-14.4584
 109	1	2	-0.000585	15.0354	-5.51575	-16.1826
 110	1	5	0.006084	16.7036	-4.80471	-14.9856
 111	1	5	0.012201	16.6153	-4.09134	-16.6112
 112	1	2	-0.03118	13.8772	-5.08005	-17.1477
 113	1	5	0.011412	14.576	-5.94293	-15.2817
 114	1	5	0.011566	15.6172	-6.30949	-16.6712
 115	1	2	-0.057912	12.9416	-6.27333	-17.5346
 116	1	5	0.001922	14.3452	-4.69491	-18.0662
 117	1	5	0.021794	13.282	-4.2584	-16.7367
 118	1	6	-0.501673	11.411	-5.97573	-15.701
 119	1	7	0.462	12.0058	-6.76178	-16.4232
 120	1	5	0.029593	13.5661	-7.12058	-17.8424
 121	1	5	0.042406	12.3302	-6.00908	-18.4061
 122	1	1	-0.353484	8.25123	-7.60923	-9.80982
 123	1	2	0.376337	7.41554	-6.99063	-10.8268
 124	1	2	-0.897489	7.20866	-7.93339	-12.0131
 125	1	3	0.034041	7.90017	-6.07604	-11.2135
 126	1	3	0.012328	6.45906	-6.70294	-10.4064
 127	1	4	0.229239	9.10338	-7.94625	-10.2507
 128	1	2	0.531206	6.87126	-7.19035	-13.3234
 129	1	5	0.202592	6.35669	-8.59245	-11.785
 130	1	5	0.099501	8.07111	-8.58952	-12.1626
 131	1	2	0.171725	8.03733	-6.54727	-14.1211
 132	1	5	-0.10542	6.06677	-6.46372	-13.1495
 133	1	5	-0.137294	6.43184	-7.94971	-13.9883
 134	1	2	-0.155467	7.44184	-5.61172	-15.2162
 135	1	5	-0.053736	8.63906	-7.35422	-14.5549
 136	1	5	0.001015	8.69835	-5.98677	-13.4512
 137	1	2	0.033419	8.47813	-4.99053	-16.1563
 138	1	5	0.005395	6.92291	-4.79526	-14.6973
 139	1	5	0.019028	6.68393	-6.1391	-15.8155
 140	1	2	0.058829	7.89911	-3.94007	-17.11
 141	1	5	-0.00779	8.93917	-5.80009	-16.7398
 142	1	5	-0.029026	9.25643	-4.54114	-15.5381
 143	1	2	-0.029357	8.88388	-3.52219	-18.2321
 144	1	5	-0.003083	7.57126	-3.0565	-16.5427
 145	1	5	-0.010137	7.0034	-4.34661	-17.5972
 146	1	2	-0.000585	10.2335	-2.91903	-17.7791
 147	1	5	0.006084	8.37358	-2.7984	-18.8761
 148	1	5	0.012201	9.0923	-4.39724	-18.8664
 149	1	2	-0.03118	10.112	-1.46844	-17.2352
 150	1	5	0.011412	10.9053	-2.90944	-18.6427
 151	1	5	0.011566	10.7298	-3.54895	-17.0351
 152	1	2	-0.057912	11.4637	-0.714359	-17.0887
 153	1	5	0.001922	9.6255	-1.5235	-16.2553
 154	1	5	0.021794	9.45514	-0.869516	-17.8775
 155	1	6	-0.501673	10.2932	1.41633	-16.4773
 156	1	7	0.462	11.2669	0.674088	-16.4131
 157	1	5	0.029593	11.9088	-0.558476	-18.0804
 158	1	5	0.042406	12.1711	-1.30692	-16.4937
 159	1	1	-0.353484	14.855	-13.1068	-1.42084
 160	1	2	0.376337	14.267	-11.9329	-2.02296
 161	1	2	-0.897489	14.6844	-11.9003	-3.49896
 162	1	3	0.034041	14.706	-11.0698	-1.51378
 163	1	3	0.012328	13.1727	-11.8942	-1.90452
 164	1	4	0.229239	14.423	-13.9166	-1.85926
 165	1	2	0.531206	14.6954	-10.4118	-3.92189
 166	1	5	0.202592	14.0109	-12.5159	-4.12486
 167	1	5	0.099501	15.7009	-12.3151	-3.58635
 168	1	2	0.171725	14.6318	-10.114	-5.45531
 169	1	5	-0.10542	15.5813	-9.94552	-3.49577
 170	1	5	-0.137294	13.8336	-9.92123	-3.44445
 171	1	2	-0.155467	14.5322	-8.61097	-5.82151
 172	1	5	-0.053736	13.7365	-10.6238	-5.85275
 173	1	5	0.001015	15.5058	-10.5606	-5.9537
 174	1	2	0.033419	14.5665	-8.4061	-7.36213
 175	1	5	0.005395	15.3858	-8.07602	-5.38371
 176	1	5	0.019028	13.638	-8.16321	-5.39306
 177	1	2	0.058829	13.3001	-8.89137	-8.15996
 178	1	5	-0.00779	15.4488	-8.90864	-7.77688
 179	1	5	-0.029026	14.7274	-7.34453	-7.57345
 180	1	2	-0.029357	11.9195	-8.52753	-7.58324
 181	1	5	-0.003083	13.3568	-9.97303	-8.31703
 182	1	5	-0.010137	13.3522	-8.46105	-9.1723
 183	1	2	-0.000585	11.6848	-7.01881	-7.75112
 184	1	5	0.006084	11.8472	-8.7934	-6.52269
 185	1	5	0.012201	11.1274	-9.07986	-8.09287
 186	1	2	-0.03118	10.4608	-6.55591	-6.96067
 187	1	5	0.011412	11.5814	-6.77215	-8.81798
 188	1	5	0.011566	12.5564	-6.46291	-7.37725
 189	1	2	-0.057912	9.13205	-7.15929	-7.5261
 190	1	5	0.001922	10.3981	-5.45447	-6.9666
 191	1	5	0.021794	10.5828	-6.86979	-5.91696
 192	1	6	-0.501673	9.3823	-5.78335	-9.50435
 193	1	7	0.462	8.70119	-6.57686	-8.87562
 194	1	5	0.029593	8.34159	-6.97482	-6.80535
 195	1	5	0.042406	9.17312	-8.25948	-7.60331
 196	1	1	-0.353484	5.87252	-9.38166	1.78365
 197	1	2	0.376337	7.24424	-9.02206	1.94608
 198	1	2	-0.897489	8.10605	-10.122	1.34492
 199	1	3	0.034041	7.47767	-8.86122	3.00215
 200	1	3	0.012328	7.44901	-8.08444	1.41548
 201	1	4	0.229239	5.76185	-9.50242	0.781558
 202	1	2	0.531206	8.46963	-11.1491	2.42789
 203	1	5	0.202592	9.0125	-9.63957	0.952183
 204	1	5	0.099501	7.65595	-10.6234	0.475236
 205	1	2	0.171725	9.28285	-12.396	2.00687
 206	1	5	-0.10542	7.58577	-11.4484	2.94594
 207	1	5	-0.137294	9.0531	-10.6366	3.18175
 208	1	2	-0.155467	10.2842	-11.9984	0.882299
 209	1	5	-0.053736	8.63867	-13.187	1.61763
 210	1	5	0.001015	9.80247	-12.8538	2.8529
 211	1	2	0.033419	11.4281	-11.0149	1.32409
 212	1	5	0.005395	9.76999	-11.5965	-0.00675711
 213	1	5	0.019028	10.7502	-12.9228	0.527209
 214	1	2	0.058829	12.4574	-11.7626	2.19704
 215	1	5	-0.00779	11.053	-10.1589	1.89912
 216	1	5	-0.029026	11.929	-10.5921	0.460043
 217	1	2	-0.029357	13.8208	-11.0219	2.22826
 218	1	5	-0.003083	12.6208	-12.7789	1.81145
 219	1	5	-0.010137	12.0763	-11.8692	3.23112
 220	1	2	-0.000585	14.8733	-11.8885	3.02433
 221	1	5	0.006084	13.6814	-10.0584	2.73707
 222	1	5	0.012201	14.1894	-10.8165	1.21348
 223	1	2	-0.03118	15.3894	-13.2342	2.40045
 224	1	5	0.011412	14.5609	-12.0729	4.0619
 225	1	5	0.011566	15.7696	-11.2618	3.12864
 226	1	2	-0.057912	15.7195	-13.1983	0.889088
 227	1	5	0.001922	14.6563	-14.0334	2.5768
 228	1	5	0.021794	16.3042	-13.5265	2.93478
 229	1	6	-0.501673	13.6538	-14.0645	-0.118807
 230	1	7	0.462	14.4663	-13.1729	-0.0331816
 231	1	5	0.029593	16.2893	-14.1112	0.663316
 232	1	5	0.042406	16.3708	-12.3404	0.676725
 233	1	1	-0.353484	0.389452	-17.2078	1.89418
 234	1	2	0.376337	-0.156047	-16.0009	2.48333
 235	1	2	-0.897489	1.10764	-15.1769	2.69996
 236	1	3	0.034041	-0.627112	-16.2113	3.45706
 237	1	3	0.012328	-0.840735	-15.4643	1.80725
 238	1	4	0.229239	1.08982	-16.9394	1.20017
 239	1	2	0.531206	0.796336	-13.8345	3.32976
 240	1	5	0.202592	1.68108	-15.0231	1.77655
 241	1	5	0.099501	1.77358	-15.7314	3.383
 242	1	2	0.171725	-0.166772	-13.7938	4.50836
 243	1	5	-0.10542	0.401188	-13.2216	2.52714
 244	1	5	-0.137294	1.75087	-13.438	3.6514
 245	1	2	-0.155467	0.0426198	-12.4366	5.27887
 246	1	5	-0.053736	-0.0175384	-14.6726	5.15471
 247	1	5	0.001015	-1.17927	-13.8449	4.07823
 248	1	2	0.033419	-0.641798	-11.215	4.56649
 249	1	5	0.005395	1.12533	-12.2459	5.38974
 250	1	5	0.019028	-0.33549	-12.5447	6.29251
 251	1	2	0.058829	-0.0403535	-9.86009	5.07458
 252	1	5	-0.00779	-1.71621	-11.2061	4.8354
 253	1	5	-0.029026	-0.593922	-11.298	3.45155
 254	1	2	-0.029357	1.42093	-9.5885	4.5942
 255	1	5	-0.003083	-0.710678	-9.05849	4.78176
 256	1	5	-0.010137	-0.0734458	-9.78419	6.17201
 257	1	2	-0.000585	1.9951	-8.13961	4.83668
 258	1	5	0.006084	1.46045	-9.82894	3.51108
 259	1	5	0.012201	2.08683	-10.3093	5.07509
 260	1	2	-0.03118	2.98516	-7.667	3.7061
 261	1	5	0.011412	2.57168	-8.12066	5.77181
 262	1	5	0.011566	1.19378	-7.39265	4.95174
 263	1	2	-0.057912	4.25598	-8.55343	3.43044
 264	1	5	0.001922	3.34215	-6.63884	3.90652
 265	1	5	0.021794	2.38608	-7.60639	2.78575
 266	1	6	-0.501673	4.22917	-8.32794	1.07779
 267	1	7	0.462	4.94602	-8.31606	2.04872
 268	1	5	0.029593	5.02459	-8.37834	4.19954
 269	1	5	0.042406	3.96125	-9.61071	3.48545
 270	1	9	-0.26285	0.539459	-21.3599	-0.28724
 271	1	2	0.431937	-0.202632	-20.1653	-0.146126
 272	1	2	0.196566	0.28599	-19.4512	1.08019
 273	1	3	-0.176879	-1.26626	-20.4288	-0.0282927
 274	1	3	-0.045056	-0.0930936	-19.5214	-1.03627
 275	1	2	0.080387	-0.548735	-18.1845	1.36578
 276	1	5	0.032783	1.35711	-19.1997	0.923933
 277	1	5	-0.126889	0.26022	-20.1423	1.93721
 278	1	5	-0.081548	-1.33396	-18.3754	2.11082
 279	1	5	-0.048451	-1.01391	-17.7705	0.458617
 280	1	9	-0.26285	2.5579	-22.7499	-2.47167
 281	1	2	0.431937	2.05507	-23.5244	-1.3684
 282	1	2	0.196566	0.517202	-23.5652	-1.29964
 283	1	3	-0.176879	2.42913	-23.1297	-0.411724
 284	1	3	-0.045056	2.43496	-24.5523	-1.44007
 285	1	2	0.080387	-0.0894114	-22.1665	-1.27291
 286	1	5	0.032783	0.220615	-24.1263	-0.40334
 287	1	5	-0.126889	0.112099	-24.1153	-2.16387
 288	1	5	-0.081548	-1.16372	-22.265	-1.07106
 289	1	5	-0.048451	0.027021	-21.6808	-2.24994
 290	1	9	-0.26285	2.44373	-18.4317	-3.21138
 291	1	2	0.431937	2.87152	-19.4996	-2.35358
 292	1	2	0.196566	3.7231	-20.6041	-3.03736
 293	1	3	-0.176879	1.95392	-19.96	-1.9653
 294	1	3	-0.045056	3.42855	-19.1132	-1.49221
 295	1	2	0.080387	3.69393	-21.8996	-2.18618
 296	1	5	0.032783	4.74928	-20.2373	-3.11017
 297	1	5	-0.126889	3.37468	-20.8262	-4.05448
 298	1	5	-0.081548	3.69565	-21.5791	-1.13823
 299	1	5	-0.048451	4.62205	-22.4678	-2.32812
 300	1	1	-0.353484	-2.68123	-5.19238	-2.03165
 301	1	2	0.376337	-3.14085	-4.65976	-3.30097
 302	1	2	-0.897489	-3.83005	-5.80284	-4.04111
 303	1	3	0.034041	-2.30374	-4.25383	-3.89036
 304	1	3	0.012328	-3.85994	-3.85079	-3.12284
 305	1	4	0.229239	-3.48824	-5.66697	-1.63107
 306	1	2	0.531206	-2.86949	-6.76301	-4.7916
 307	1	5	0.202592	-4.48908	-5.35632	-4.7933
 308	1	5	0.099501	-4.47359	-6.38023	-3.36547
 309	1	2	0.171725	-2.61059	-8.09176	-4.00849
 310	1	5	-0.10542	-1.93466	-6.24128	-5.03715
 311	1	5	-0.137294	-3.34874	-7.00052	-5.74613
 312	1	2	-0.155467	-1.61209	-9.1476	-4.60838
 313	1	5	-0.053736	-3.58326	-8.57801	-3.85486
 314	1	5	0.001015	-2.2715	-7.83392	-3.00266
 315	1	2	0.033419	-1.67098	-10.5023	-3.84638
 316	1	5	0.005395	-0.595483	-8.74708	-4.53494
 317	1	5	0.019028	-1.80667	-9.30274	-5.67696
 318	1	2	0.058829	-0.775757	-11.646	-4.43329
 319	1	5	-0.00779	-2.70547	-10.8684	-3.84779
 320	1	5	-0.029026	-1.40014	-10.3331	-2.79479
 321	1	2	-0.029357	-0.654627	-12.8372	-3.42983
 322	1	5	-0.003083	0.217252	-11.2517	-4.66475
 323	1	5	-0.010137	-1.19514	-12.0085	-5.37992
 324	1	2	-0.000585	0.381907	-13.9384	-3.83506
 325	1	5	0.006084	-1.64795	-13.2887	-3.28037
 326	1	5	0.012201	-0.365702	-12.4359	-2.44629
 327	1	2	-0.03118	0.335447	-15.2749	-3.01228
 328	1	5	0.011412	1.39118	-13.502	-3.77829
 329	1	5	0.011566	0.228283	-14.2049	-4.88898
 330	1	2	-0.057912	1.53207	-16.2126	-3.40006
 331	1	5	0.001922	-0.595143	-15.8062	-3.24626
 332	1	5	0.021794	0.30723	-15.067	-1.93158
 333	1	6	-0.501673	1.48338	-17.5152	-1.38095
 334	1	7	0.462	1.61697	-17.5217	-2.59836
 335	1	5	0.029593	2.48275	-15.6869	-3.24484
 336	1	5	0.042406	1.47098	-16.4627	-4.46724
 337	1	9	-0.26285	-0.97088	-7.07261	0.925361
 338	1	2	0.431937	-0.800231	-5.93555	0.0713188
 339	1	2	0.196566	-1.92087	-4.86995	0.257699
 340	1	3	-0.176879	-0.724446	-6.28553	-0.96432
 341	1	3	-0.045056	0.142886	-5.41546	0.300549
 342	1	2	0.080387	-2.23112	-4.17321	-1.07469
 343	1	5	0.032783	-1.57265	-4.12952	0.987727
 344	1	5	-0.126889	-2.84941	-5.30336	0.659669
 345	1	5	-0.081548	-1.32118	-3.6783	-1.4345
 346	1	5	-0.048451	-3.01218	-3.40973	-0.928254
 347	1	1	-0.353484	3.1498	-3.36658	2.57219
 348	1	2	0.376337	3.6103	-3.08978	1.20842
 349	1	2	-0.897489	3.733	-4.40035	0.425294
 350	1	3	0.034041	4.57303	-2.56536	1.21551
 351	1	3	0.012328	2.87384	-2.43753	0.717791
 352	1	4	0.229239	3.76247	-4.05551	2.99709
 353	1	2	0.531206	3.6816	-4.18379	-1.09992
 354	1	5	0.202592	2.91244	-5.06433	0.725173
 355	1	5	0.099501	4.67858	-4.89249	0.687471
 356	1	2	0.171725	3.69186	-5.49866	-1.94834
 357	1	5	-0.10542	4.53064	-3.54582	-1.40295
 358	1	5	-0.137294	2.76527	-3.61281	-1.33076
 359	1	2	-0.155467	2.66391	-6.5895	-1.52826
 360	1	5	-0.053736	4.70069	-5.93323	-1.93602
 361	1	5	0.001015	3.50231	-5.22025	-2.99782
 362	1	2	0.033419	2.64935	-7.83954	-2.44528
 363	1	5	0.005395	1.6552	-6.15649	-1.48837
 364	1	5	0.019028	2.91676	-6.92626	-0.516949
 365	1	2	0.058829	2.1355	-9.15521	-1.78227
 366	1	5	-0.00779	3.66338	-8.02147	-2.81858
 367	1	5	-0.029026	2.05046	-7.61461	-3.33734
 368	1	2	-0.029357	0.809011	-9.00376	-1.00277
 369	1	5	-0.003083	2.90825	-9.54505	-1.11233
 370	1	5	-0.010137	2.0106	-9.91361	-2.56535
 371	1	2	-0.000585	0.603588	-10.1779	-0.0256364
 372	1	5	0.006084	-0.0275944	-8.90303	-1.70111
 373	1	5	0.012201	0.855611	-8.10617	-0.390551
 374	1	2	-0.03118	-0.831402	-10.4328	0.457419
 375	1	5	0.011412	1.23752	-10.0062	0.840183
 376	1	5	0.011566	0.97011	-11.0995	-0.511185
 377	1	2	-0.057912	-1.53356	-9.35448	1.3138
 378	1	5	0.001922	-0.774141	-11.3423	1.04749
 379	1	5	0.021794	-1.47311	-10.701	-0.385746
 380	1	6	-0.501673	-2.60256	-8.01427	-0.414479
 381	1	7	0.462	-1.81489	-8.06526	0.527039
 382	1	5	0.029593	-0.952937	-9.117	2.21738
 383	1	5	0.042406	-2.48038	-9.78857	1.64088
 384	1	9	-0.26285	1.70418	0.0941211	4.64494
 385	1	2	0.431937	2.02567	-1.03836	5.45082
 386	1	2	0.196566	2.22931	-2.34465	4.63492
 387	1	3	-0.176879	1.23661	-1.20889	6.18957
 388	1	3	-0.045056	2.94192	-0.820282	6.00849
 389	1	2	0.080387	3.13559	-2.16275	3.39043
 390	1	5	0.032783	1.24453	-2.70715	4.30577
 391	1	5	-0.126889	2.64637	-3.14131	5.26329
 392	1	5	-0.081548	4.16604	-1.91473	3.67236
 393	1	5	-0.048451	2.75737	-1.31906	2.80374
 394	1	9	-0.26285	0.596641	0.999014	1.05349
 395	1	2	0.431937	1.11337	1.6828	2.22461
 396	1	2	0.196566	0.18849	1.49642	3.46324
 397	1	3	-0.176879	1.13591	2.76486	1.99945
 398	1	3	-0.045056	2.13507	1.38908	2.49189
 399	1	2	0.080387	0.356777	0.151442	4.19623
 400	1	5	0.032783	-0.861982	1.61203	3.14795
 401	1	5	-0.126889	0.363873	2.30394	4.19752
 402	1	5	-0.081548	0.148255	-0.686407	3.52625
 403	1	5	-0.048451	-0.342667	0.104842	5.04063
 404	1	1	-0.353484	11.4249	4.35128	-1.68293
 405	1	2	0.376337	11.2965	2.9406	-1.96623
 406	1	2	-0.897489	9.82754	2.59067	-1.7999
 407	1	3	0.034041	11.92	2.39665	-1.24591
 408	1	3	0.012328	11.632	2.72207	-2.98545
 409	1	4	0.229239	10.7107	4.82988	-2.22186
 410	1	2	0.531206	9.0057	2.90791	-3.04876
 411	1	5	0.202592	9.36905	3.07017	-0.924565
 412	1	5	0.099501	9.76032	1.52026	-1.60184
 413	1	2	0.171725	7.59847	2.28014	-2.94786
 414	1	5	-0.10542	9.54372	2.48766	-3.9031
 415	1	5	-0.137294	8.95084	3.98921	-3.21839
 416	1	2	-0.155467	6.79991	2.25316	-4.26142
 417	1	5	-0.053736	7.01931	2.79736	-2.17365
 418	1	5	0.001015	7.70636	1.24555	-2.59573
 419	1	2	0.033419	5.46595	1.46767	-4.07373
 420	1	5	0.005395	7.40699	1.75266	-5.03332
 421	1	5	0.019028	6.61565	3.28259	-4.59432
 422	1	2	0.058829	4.32601	2.20931	-3.30132
 423	1	5	-0.00779	5.68799	0.554552	-3.52081
 424	1	5	-0.029026	5.11717	1.14713	-5.07018
 425	1	2	-0.029357	3.10661	1.31076	-3.01894
 426	1	5	-0.003083	3.98155	3.07803	-3.88298
 427	1	5	-0.010137	4.70234	2.6015	-2.35559
 428	1	2	-0.000585	2.01511	2.08029	-2.25073
 429	1	5	0.006084	3.43582	0.41593	-2.48053
 430	1	5	0.012201	2.69016	0.966912	-3.97314
 431	1	2	-0.03118	0.749137	1.2359	-2.08627
 432	1	5	0.011412	1.76948	2.99833	-2.79633
 433	1	5	0.011566	2.42086	2.40366	-1.27987
 434	1	2	-0.057912	0.966655	0.00443991	-1.17883
 435	1	5	0.001922	0.373991	0.907686	-3.06935
 436	1	5	0.021794	-0.0373857	1.86251	-1.64427
 437	1	6	-0.501673	2.6728	0.222436	0.476348
 438	1	7	0.462	1.50874	0.428109	0.202446
 439	1	5	0.029593	1.65968	-0.709214	-1.64772
 440	1	5	0.042406	0.0122206	-0.515156	-1.04755
 441	1	1	-0.353484	13.6599	-5.7253	1.04203
 442	1	2	0.376337	14.4634	-4.97909	2.01736
 443	1	2	-0.897489	14.6085	-3.5407	1.50314
 444	1	3	0.034041	15.4389	-5.45668	2.1558
 445	1	3	0.012328	13.9722	-4.95432	2.99773
 446	1	4	0.229239	12.8783	-5.13475	0.766405
 447	1	2	0.531206	15.5452	-2.70697	2.3897
 448	1	5	0.202592	13.624	-3.06467	1.54066
 449	1	5	0.099501	14.9742	-3.52193	0.472415
 450	1	2	0.171725	15.452	-1.18989	2.12706
 451	1	5	-0.10542	16.5798	-3.07351	2.29978
 452	1	5	-0.137294	15.2187	-2.87057	3.42564
 453	1	2	-0.155467	16.1269	-0.718094	0.820731
 454	1	5	-0.053736	15.9563	-0.697329	2.97172
 455	1	5	0.001015	14.4017	-0.854519	2.14514
 456	1	2	0.033419	16.1123	0.830892	0.738517
 457	1	5	0.005395	15.6044	-1.13624	-0.045892
 458	1	5	0.019028	17.1643	-1.07425	0.793
 459	1	2	0.058829	16.7338	1.39567	-0.56369
 460	1	5	-0.00779	16.6399	1.2674	1.59618
 461	1	5	-0.029026	15.0666	1.14004	0.798692
 462	1	2	-0.029357	16.5402	2.94828	-0.700583
 463	1	5	-0.003083	16.304	0.879252	-1.44293
 464	1	5	-0.010137	17.8114	1.17404	-0.544848
 465	1	2	-0.000585	15.0605	3.39162	-0.810626
 466	1	5	0.006084	17.1019	3.29997	-1.58134
 467	1	5	0.012201	16.9727	3.43405	0.189849
 468	1	2	-0.03118	14.9549	4.92171	-0.97456
 469	1	5	0.011412	14.4861	3.08382	0.0627036
 470	1	5	0.011566	14.6119	2.88722	-1.67743
 471	1	2	-0.057912	13.5117	5.46177	-0.971899
 472	1	5	0.001922	15.446	5.23579	-1.90262
 473	1	5	0.021794	15.4958	5.40138	-0.150289
 474	1	6	-0.501673	12.5087	5.44272	-3.19982
 475	1	7	0.462	12.6931	4.87995	-2.13027
 476	1	5	0.029593	13.522	6.55014	-1.09011
 477	1	5	0.042406	13.0223	5.25551	-0.00820905
 478	1	9	-0.26285	14.1126	-7.44269	-1.59794
 479	1	2	0.431937	13.2741	-8.31877	-0.806568
 480	1	2	0.196566	12.3452	-7.63575	0.230707
 481	1	3	-0.176879	13.9472	-8.99333	-0.258522
 482	1	3	-0.045056	12.6775	-9.00593	-1.42658
 483	1	2	0.080387	13.1319	-7.03418	1.43226
 484	1	5	0.032783	11.6599	-8.39545	0.614026
 485	1	5	-0.126889	11.7074	-6.86175	-0.225536
 486	1	5	-0.081548	13.9346	-7.69468	1.78552
 487	1	5	-0.048451	12.4414	-6.86651	2.27078
 488	1	1	-0.353484	9.72707	5.08315	-7.86212
 489	1	2	0.376337	10.8475	4.35542	-7.22401
 490	1	2	-0.897489	10.6632	2.83792	-7.38553
 491	1	3	0.034041	10.8615	4.61826	-6.15613
 492	1	3	0.012328	11.8126	4.65847	-7.6505
 493	1	4	0.229239	8.88168	4.8608	-7.34294
 494	1	2	0.531206	11.5512	2.10124	-6.38726
 495	1	5	0.202592	10.9413	2.5197	-8.39441
 496	1	5	0.099501	9.61805	2.5803	-7.18352
 497	1	2	0.171725	11.5385	0.560088	-6.51445
 498	1	5	-0.10542	11.2257	2.37873	-5.38178
 499	1	5	-0.137294	12.5702	2.48829	-6.49472
 500	1	2	-0.155467	12.1849	-0.159503	-5.31516
 501	1	5	-0.053736	12.0552	0.258214	-7.43698
 502	1	5	0.001015	10.4981	0.232119	-6.61317
 503	1	2	0.033419	11.7786	-1.6373	-5.18571
 504	1	5	0.005395	11.8435	0.334337	-4.38831
 505	1	5	0.019028	13.2734	-0.0303742	-5.35336
 506	1	2	0.058829	12.4532	-2.29347	-3.98457
 507	1	5	-0.00779	11.9997	-2.19935	-6.09788
 508	1	5	-0.029026	10.6914	-1.68381	-5.02734
 509	1	2	-0.029357	13.9561	-2.58099	-4.20656
 510	1	5	-0.003083	11.9193	-3.2326	-3.79367
 511	1	5	-0.010137	12.3178	-1.65551	-3.09943
 512	1	2	-0.000585	14.5865	-3.138	-2.924
 513	1	5	0.006084	14.4815	-1.65372	-4.47223
 514	1	5	0.012201	14.1134	-3.26704	-5.04422
 515	1	2	-0.03118	13.9637	-4.44134	-2.37683
 516	1	5	0.011412	14.518	-2.36473	-2.15344
 517	1	5	0.011566	15.6553	-3.30866	-3.10655
 518	1	2	-0.057912	14.0996	-5.67189	-3.32119
 519	1	5	0.001922	12.9145	-4.2837	-2.11058
 520	1	5	0.021794	14.4648	-4.69428	-1.43617
 521	1	6	-0.501673	12.4005	-7.3271	-3.05276
 522	1	7	0.462	13.4952	-6.94267	-2.69958
 523	1	5	0.029593	15.1544	-5.86241	-3.57203
 524	1	5	0.042406	13.5665	-5.4838	-4.25646
 525	1	9	-0.26285	10.2344	3.52897	-11.8038
 526	1	2	0.431937	10.3182	4.96816	-11.6663
 527	1	2	0.196566	10.5501	5.41034	-10.1993
 528	1	3	-0.176879	9.37174	5.39788	-12.0032
 529	1	3	-0.045056	11.1177	5.36432	-12.2912
 530	1	2	0.080387	9.46865	4.80432	-9.28607
 531	1	5	0.032783	10.5487	6.5017	-10.1158
 532	1	5	-0.126889	11.5398	5.06044	-9.87662
 533	1	5	-0.081548	9.34668	3.72869	-9.45357
 534	1	5	-0.048451	8.49815	5.23988	-9.54941
 535	1	9	-0.26285	10.0412	-0.696731	-12.7067
 536	1	2	0.431937	10.327	0.706001	-12.8142
 537	1	2	0.196566	11.2608	1.26231	-11.7106
 538	1	3	-0.176879	9.35763	1.212	-12.7442
 539	1	3	-0.045056	10.7482	0.937408	-13.8004
 540	1	2	0.080387	11.4598	2.79221	-11.9174
 541	1	5	0.032783	12.2402	0.764939	-11.7761
 542	1	5	-0.126889	10.8525	1.03853	-10.7135
 543	1	5	-0.081548	11.9046	2.99004	-12.9046
 544	1	5	-0.048451	12.1693	3.1594	-11.1693
 545	1	1	-0.353484	17.0239	3.80186	-11.6225
 546	1	2	0.376337	17.902	2.64923	-11.8542
 547	1	2	-0.897489	17.7429	1.5994	-10.7311
 548	1	3	0.034041	18.9579	2.9514	-11.915
 549	1	3	0.012328	17.6336	2.17999	-12.8006
 550	1	4	0.229239	17.3366	4.31013	-10.8026
 551	1	2	0.531206	16.2694	1.13973	-10.6158
 552	1	5	0.202592	18.0565	2.02385	-9.77014
 553	1	5	0.099501	18.3976	0.747775	-10.9479
 554	1	2	0.171725	16.0431	-0.286998	-10.02
 555	1	5	-0.10542	15.8565	1.14035	-11.6291
 556	1	5	-0.137294	15.7038	1.88172	-10.0444
 557	1	2	-0.155467	14.5667	-0.785221	-10.0882
 558	1	5	-0.053736	16.3959	-0.336535	-8.98565
 559	1	5	0.001015	16.662	-0.986386	-10.5993
 560	1	2	0.033419	14.4591	-2.26587	-9.61927
 561	1	5	0.005395	14.1851	-0.711779	-11.1124
 562	1	5	0.019028	13.9303	-0.15579	-9.45032
 563	1	2	0.058829	13.1983	-3.05145	-10.0775
 564	1	5	-0.00779	14.5127	-2.24639	-8.51822
 565	1	5	-0.029026	15.3461	-2.81935	-9.93678
 566	1	2	-0.029357	13.3081	-3.52544	-11.548
 567	1	5	-0.003083	12.2886	-2.44406	-9.92672
 568	1	5	-0.010137	13.0909	-3.9475	-9.45508
 569	1	2	-0.000585	12.1568	-4.44986	-11.9993
 570	1	5	0.006084	14.2571	-4.05984	-11.7018
 571	1	5	0.012201	13.3545	-2.65187	-12.2001
 572	1	2	-0.03118	10.7298	-3.84691	-12.0325
 573	1	5	0.011412	12.1464	-5.32899	-11.3395
 574	1	5	0.011566	12.3923	-4.82671	-13.0055
 575	1	2	-0.057912	10.4501	-2.96753	-13.2747
 576	1	5	0.001922	10.4808	-3.33213	-11.0977
 577	1	5	0.021794	10.0519	-4.70165	-12.1027
 578	1	6	-0.501673	12.0412	-1.18436	-13.6996
 579	1	7	0.462	10.975	-1.53318	-13.2008
 580	1	5	0.029593	9.37274	-2.93983	-13.4766
 581	1	5	0.042406	10.8905	-3.44811	-14.165
 582	1	1	-0.353484	5.83404	8.44194	-12.486
 583	1	2	0.376337	6.75243	9.36713	-13.1616
 584	1	2	-0.897489	8.0671	8.56532	-13.3629
 585	1	3	0.034041	6.93502	10.2668	-12.558
 586	1	3	0.012328	6.33112	9.66009	-14.1324
 587	1	4	0.229239	6.31664	8.08192	-11.6636
 588	1	2	0.531206	9.21748	9.2365	-14.1617
 589	1	5	0.202592	7.8158	7.64542	-13.8884
 590	1	5	0.099501	8.46361	8.28816	-12.3759
 591	1	2	0.171725	10.5115	8.36464	-14.2603
 592	1	5	-0.10542	9.47924	10.1722	-13.6581
 593	1	5	-0.137294	8.8552	9.50593	-15.1583
 594	1	2	-0.155467	10.4004	7.12022	-15.1786
 595	1	5	-0.053736	10.8046	8.03488	-13.2605
 596	1	5	0.001015	11.3285	9.00295	-14.6254
 597	1	2	0.033419	11.6661	6.22599	-15.181
 598	1	5	0.005395	10.2019	7.43645	-16.2061
 599	1	5	0.019028	9.54021	6.51844	-14.867
 600	1	2	0.058829	12.8894	6.94203	-15.8426
 601	1	5	-0.00779	11.4431	5.29807	-15.7217
 602	1	5	-0.029026	11.9198	5.9392	-14.1603
 603	1	2	-0.029357	14.1421	6.07171	-16.0469
 604	1	5	-0.003083	13.166	7.80917	-15.2332
 605	1	5	-0.010137	12.5987	7.34286	-16.8184
 606	1	2	-0.000585	14.7202	5.48543	-14.7419
 607	1	5	0.006084	14.9253	6.65863	-16.5493
 608	1	5	0.012201	13.8902	5.26153	-16.7362
 609	1	2	-0.03118	15.0995	6.50239	-13.6418
 610	1	5	0.011412	15.6196	4.91075	-15.019
 611	1	5	0.011566	14.0017	4.76118	-14.3418
 612	1	2	-0.057912	15.766	5.80311	-12.4216
 613	1	5	0.001922	14.2025	7.03278	-13.3062
 614	1	5	0.021794	15.7837	7.25839	-14.054
 615	1	6	-0.501673	17.9312	5.03016	-13.2983
 616	1	7	0.462	16.8769	4.7709	-12.7347
 617	1	5	0.029593	14.9841	5.29041	-11.8465
 618	1	5	0.042406	16.1808	6.56579	-11.7505
 619	1	9	-0.26285	4.93698	6.41687	-10.6091
 620	1	2	0.431937	3.99819	7.41706	-10.2266
 621	1	2	0.196566	3.48647	8.23605	-11.439
 622	1	3	-0.176879	4.4926	8.11063	-9.53125
 623	1	3	-0.045056	3.15174	6.97738	-9.68243
 624	1	2	0.080387	4.58881	9.11356	-12.0832
 625	1	5	0.032783	2.69324	8.90258	-11.0839
 626	1	5	-0.126889	3.04604	7.5955	-12.2136
 627	1	5	-0.081548	4.85755	9.91079	-11.3779
 628	1	5	-0.048451	4.14672	9.60493	-12.961
 629	1	1	-0.353484	4.2832	-6.51474	-9.02648