pySIMM System Object

305 atoms
304 bonds
579 angles
814 dihedrals
0 impropers

10 atom types
11 bond types
23 angle types
12 dihedral types
1 improper types

-58.964601 58.964601 xlo xhi
-58.964601 58.964601 ylo yhi
-58.964601 58.964601 zlo zhi

Masses

   1	16.0	# oh
   2	12.01	# c3
   3	1.008	# h1
   4	1.008	# hc
   5	1.008	# ho
   6	14.01	# n3
   7	1.008	# hn
   8	16.0	# o
   9	12.01	# c
  10	1.008	# h4

Pair Coeffs

   1	0.2104	3.0664733878390478	# oh
   2	0.1094	3.3996695084235347	# c3
   3	0.0157	2.471353044121301	# h1
   4	0.0157	2.649532787749369	# hc
   5	0.0047	0.5379246460131368	# ho
   6	0.17	3.249998523775958	# n3
   7	0.0157	1.069078461768407	# hn
   8	0.21	2.959921901149463	# o
   9	0.086	3.3996695084235347	# c
  10	0.015	2.5105525877194763	# h4

Bond Coeffs

   1	316.7	1.4233	# c3,oh
   2	330.6	1.0969	# c3,h1
   3	371.4	0.973	# ho,oh
   4	300.9	1.5375	# c3,c3
   5	330.6	1.0969	# c3,hc
   6	392.4	1.019	# hn,n3
   7	637.7	1.2183	# c,o
   8	325.9	1.4647	# c3,n3
   9	310.7	1.1121	# c,h4
  10	313.0	1.5241	# c,c3
  11	400.1	1.3513	# c,oh

Angle Coeffs

   1	39.24	108.46	# h1,c3,h1
   2	62.86	111.51	# c3,c3,c3
   3	67.47	110.19	# c3,c3,oh
   4	46.34	109.8	# c3,c3,hc
   5	39.4	107.58	# hc,c3,hc
   6	50.93	110.26	# h1,c3,oh
   7	47.38	107.26	# c3,oh,ho
   8	46.39	109.56	# c3,c3,h1
   9	66.02	111.04	# c3,c3,n3
  10	45.64	114.64	# c3,c,h4
  11	41.4	106.4	# hn,n3,hn
  12	67.4	123.2	# c3,c,o
  13	47.42	109.29	# c3,n3,hn
  14	63.27	111.04	# c,c3,c3
  15	46.93	108.77	# c,c3,hc
  16	49.53	109.88	# h1,c3,n3
  17	54.22	120.7	# h4,c,o
  18	68.4	112.73	# c3,c,oh
  19	75.92	122.1	# o,c,oh
  20	63.82	112.35	# c3,n3,c3
  21	49.55	109.8	# hc,c3,n3
  22	62.7	112.48	# c3,oh,c3
  23	51.11	109.5	# hc,c3,oh

Dihedral Coeffs

   1	1	0.15555555555555556	3	0	# X,c3,c3,X
   2	2	0.16	3	0	0.25	1	0	# ho,oh,c3,c3
   3	1	0.16	3	0	# hc,c3,c3,c3
   4	1	0.15	3	0	# hc,c3,c3,hc
   5	1	0.16666666666666666	3	0	# X,c3,oh,X
   6	2	0.0	3	0	0.25	1	0	# hc,c3,c3,oh
   7	1	0.3	3	0	# X,c3,n3,X
   8	3	0.18	3	0	0.25	2	180	0.2	1	180	# c3,c3,c3,c3
   9	1	0.0	2	180	# X,c,c3,X
  10	3	0.8	1	0	0.0	2	0	0.08	3	180	# hc,c3,c,o
  11	1	2.3	2	180	# X,c,oh,X
  12	2	0.3	3	0	0.48	2	180	# c3,c3,n3,c3

Improper Coeffs

   1	10.5	-1	2	# c,X,X,o

Atoms

   1	1	1	-0.26285	12.7779	11.4857	7.04335
   2	1	2	0.431937	13.9077	12.3206	7.23773
   3	1	2	0.196566	13.6464	13.8457	7.05746
   4	1	3	-0.176879	14.6119	12.0425	6.43114
   5	1	3	-0.045056	14.4001	12.0766	8.16623
   6	1	2	0.080387	14.9564	14.6339	7.19113
   7	1	4	0.032783	12.8964	14.1774	7.77721
   8	1	4	-0.126889	13.3086	14.0084	6.02579
   9	1	4	-0.081548	15.1245	14.9371	8.22847
  10	1	4	-0.048451	14.9089	15.486	6.52159
  11	1	6	-0.353484	9.73062	2.305	15.8073
  12	1	2	0.376337	9.11194	3.61598	15.6264
  13	1	2	-0.897489	8.79529	3.77126	14.1218
  14	1	3	0.034041	9.81665	4.42101	15.9901
  15	1	3	0.012328	8.09723	3.61866	16.1167
  16	1	7	0.229239	9.48277	1.77391	14.9513
  17	1	2	0.531206	8.24217	5.19249	13.7478
  18	1	4	0.202592	8.10173	3.02201	13.7834
  19	1	4	0.099501	9.70983	3.64097	13.5628
  20	1	2	0.171725	8.23906	5.47779	12.2302
  21	1	4	-0.10542	8.81899	5.92824	14.2875
  22	1	4	-0.137294	7.22129	5.23398	14.1667
  23	1	2	-0.155467	7.88242	6.97324	11.9062
  24	1	4	-0.053736	7.49777	4.78873	11.7743
  25	1	4	0.001015	9.25846	5.20809	11.8302
  26	1	2	0.033419	7.63398	7.19592	10.3894
  27	1	4	0.005395	8.76433	7.56636	12.2143
  28	1	4	0.019028	7.00338	7.28622	12.4872
  29	1	2	0.058829	7.22398	8.61231	9.8823
  30	1	4	-0.00779	6.86735	6.51499	10.0437
  31	1	4	-0.029026	8.49025	6.8129	9.82802
  32	1	2	-0.029357	7.2932	8.64644	8.35026
  33	1	4	-0.003083	7.87983	9.37274	10.2863
  34	1	4	-0.010137	6.22302	8.82375	10.2899
  35	1	2	-0.000585	8.74372	8.61545	7.76528
  36	1	4	0.006084	6.78366	9.57068	8.04886
  37	1	4	0.012201	6.72463	7.81805	7.927
  38	1	2	-0.03118	9.6943	9.71544	8.3205
  39	1	4	0.011412	8.63018	8.81104	6.70902
  40	1	4	0.011566	9.20909	7.60646	7.8937
  41	1	2	-0.057912	11.0583	9.8569	7.54765
  42	1	4	0.001922	10.0128	9.49817	9.35175
  43	1	4	0.021794	9.13584	10.6802	8.3522
  44	1	8	-0.501673	11.8399	11.669	9.09209
  45	1	9	0.462	11.8241	11.1656	7.95577
  46	1	4	0.029593	10.8733	9.89391	6.46847
  47	1	4	0.042406	11.6931	8.96444	7.73336
  48	1	1	-0.26285	12.2471	-1.05931	17.3595
  49	1	2	0.431937	11.7118	0.225726	17.0689
  50	1	2	0.196566	10.2077	0.129334	16.9252
  51	1	3	-0.176879	12.1025	0.620499	16.1195
  52	1	3	-0.045056	11.9809	0.905744	17.8625
  53	1	2	0.080387	9.50005	1.50555	17.0086
  54	1	4	0.032783	9.80765	-0.461632	17.7501
  55	1	4	-0.126889	9.93267	-0.332199	15.9497
  56	1	4	-0.081548	9.85321	2.08441	17.8741
  57	1	4	-0.048451	8.45159	1.35254	17.2004
  58	1	1	-0.26285	11.9563	-4.76614	14.9373
  59	1	2	0.431937	11.8374	-3.58272	15.6882
  60	1	2	0.196566	13.1568	-3.07334	16.3382
  61	1	3	-0.176879	11.053	-3.73306	16.4569
  62	1	3	-0.045056	11.422	-2.84934	14.9956
  63	1	2	0.080387	13.0293	-1.54678	16.2758
  64	1	4	0.032783	13.9733	-3.42789	15.6921
  65	1	4	-0.126889	13.3001	-3.47765	17.347
  66	1	4	-0.081548	12.6208	-1.25215	15.2764
  67	1	4	-0.048451	14.0418	-1.18544	16.4059
  68	1	6	-0.353484	5.87756	-9.5056	5.33567
  69	1	2	0.376337	6.19275	-10.9737	5.24103
  70	1	2	-0.897489	7.65549	-11.3204	5.73264
  71	1	3	0.034041	6.02127	-11.2821	4.2076
  72	1	3	0.012328	5.54428	-11.5252	5.8985
  73	1	7	0.229239	6.56506	-9.18872	6.0092
  74	1	2	0.531206	7.79533	-11.1197	7.26721
  75	1	4	0.202592	8.41928	-10.7961	5.16146
  76	1	4	0.099501	7.85555	-12.3863	5.58497
  77	1	2	0.171725	9.02963	-11.813	7.93751
  78	1	4	-0.10542	6.83593	-11.4578	7.66494
  79	1	4	-0.137294	7.93747	-10.015	7.39226
  80	1	2	-0.155467	9.19013	-11.3483	9.42041
  81	1	4	-0.053736	9.91328	-11.6143	7.35748
  82	1	4	0.001015	8.99611	-12.9111	7.8869
  83	1	2	0.033419	10.5427	-11.9435	10.0159
  84	1	4	0.005395	8.38537	-11.6947	9.9834
  85	1	4	0.019028	9.2175	-10.2419	9.3966
  86	1	2	0.058829	11.062	-11.2029	11.2752
  87	1	4	-0.00779	11.3303	-11.8818	9.22959
  88	1	4	-0.029026	10.4393	-13.0149	10.2224
  89	1	2	-0.029357	11.4024	-9.69308	11.0604
  90	1	4	-0.003083	11.9616	-11.7492	11.5533
  91	1	4	-0.010137	10.3551	-11.2833	12.157
  92	1	2	-0.000585	11.8117	-9.09648	12.4552
  93	1	4	0.006084	10.4977	-9.16708	10.7152
  94	1	4	0.012201	12.2147	-9.50206	10.3529
  95	1	2	-0.03118	12.0558	-7.56122	12.437
  96	1	4	0.011412	12.695	-9.57337	12.7654
  97	1	4	0.011566	10.9826	-9.29983	13.2055
  98	1	2	-0.057912	11.9566	-6.85168	13.8314
  99	1	4	0.001922	11.3027	-7.12522	11.7708
 100	1	4	0.021794	13.0465	-7.32674	12.0279
 101	1	8	-0.501673	12.1746	-4.79768	12.7529
 102	1	9	0.462	11.8913	-5.384	13.7642
 103	1	4	0.029593	12.8181	-7.03448	14.4576
 104	1	4	0.042406	11.0846	-7.22685	14.3628
 105	1	1	-0.26285	1.00006	-9.50318	4.2883
 106	1	2	0.431937	2.0056	-9.45523	5.31141
 107	1	2	0.196566	3.40512	-9.41958	4.83156
 108	1	3	-0.176879	1.90789	-10.373	5.86819
 109	1	3	-0.045056	1.84931	-8.67524	6.08827
 110	1	2	0.080387	4.49601	-9.23193	5.91177
 111	1	4	0.032783	3.58117	-8.58668	4.12586
 112	1	4	-0.126889	3.58645	-10.3517	4.27179
 113	1	4	-0.081548	4.31017	-9.81049	6.82728
 114	1	4	-0.048451	4.4673	-8.17108	6.15003
 115	1	1	-0.26285	-2.56313	-7.39727	3.67446
 116	1	2	0.431937	-1.31864	-6.66531	3.60032
 117	1	2	0.196566	-0.207752	-7.35465	4.46992
 118	1	3	-0.176879	-1.49747	-5.61799	3.92222
 119	1	3	-0.045056	-0.943505	-6.56854	2.5735
 120	1	2	0.080387	0.63648	-8.34039	3.6303
 121	1	4	0.032783	-0.728897	-7.78026	5.32786
 122	1	4	-0.126889	0.466558	-6.6033	4.88608
 123	1	4	-0.081548	1.52642	-7.83925	3.3144
 124	1	4	-0.048451	0.165786	-8.75977	2.66434
 125	1	1	-0.26285	-6.4588	-6.83413	1.95937
 126	1	2	0.431937	-6.17421	-6.09964	3.11368
 127	1	2	0.196566	-4.89359	-6.55779	3.77676
 128	1	3	-0.176879	-6.99133	-6.23771	3.77523
 129	1	3	-0.045056	-6.08925	-5.00866	2.89861
 130	1	2	0.080387	-3.7154	-6.98895	2.86825
 131	1	4	0.032783	-5.09212	-7.39812	4.40841
 132	1	4	-0.126889	-4.52626	-5.77831	4.45258
 133	1	4	-0.081548	-3.49547	-6.16471	2.20923
 134	1	4	-0.048451	-4.09258	-7.79465	2.26659
 135	1	6	-0.353484	-6.38112	-2.60054	-8.44153
 136	1	2	0.376337	-6.82584	-3.89737	-7.93888
 137	1	2	-0.897489	-5.57809	-4.78582	-7.96509
 138	1	3	0.034041	-7.4888	-4.43554	-8.62901
 139	1	3	0.012328	-7.2242	-3.82092	-6.90505
 140	1	7	0.229239	-5.45824	-2.45592	-8.04021
 141	1	2	0.531206	-5.91826	-6.13518	-7.35011
 142	1	4	0.202592	-4.72955	-4.36493	-7.38275
 143	1	4	0.099501	-5.23147	-4.85112	-8.99536
 144	1	2	0.171725	-4.71414	-7.09937	-7.26291
 145	1	4	-0.10542	-6.7247	-6.58303	-7.95115
 146	1	4	-0.137294	-6.30993	-6.06242	-6.38784
 147	1	2	-0.155467	-5.06188	-8.43114	-6.59232
 148	1	4	-0.053736	-3.84906	-6.55104	-6.74919
 149	1	4	0.001015	-4.36693	-7.40138	-8.31867
 150	1	2	0.033419	-5.74864	-8.24579	-5.19812
 151	1	4	0.005395	-4.15824	-9.02597	-6.37244
 152	1	4	0.019028	-5.79759	-8.97749	-7.21266
 153	1	2	0.058829	-5.96538	-9.59538	-4.55718
 154	1	4	-0.00779	-6.77678	-7.79215	-5.04899
 155	1	4	-0.029026	-5.13714	-7.65526	-4.47976
 156	1	2	-0.029357	-6.17106	-9.68681	-3.02004
 157	1	4	-0.003083	-5.03169	-10.1766	-4.68513
 158	1	4	-0.010137	-6.69205	-10.186	-5.11765
 159	1	2	-0.000585	-5.08129	-9.15357	-2.06869
 160	1	4	0.006084	-6.28966	-10.7174	-2.84037
 161	1	4	0.012201	-7.13184	-9.30779	-2.72199
 162	1	2	-0.03118	-5.47696	-9.00147	-0.572214
 163	1	4	0.011412	-4.74181	-8.22693	-2.50688
 164	1	4	0.011566	-4.22212	-9.96033	-1.97259
 165	1	2	-0.057912	-6.54914	-7.92358	-0.233482
 166	1	4	0.001922	-4.53589	-8.81446	-0.106441
 167	1	4	0.021794	-5.79381	-9.98349	-0.218001
 168	1	8	-0.501673	-6.94118	-8.9521	1.93278
 169	1	9	0.462	-6.85658	-7.94254	1.3251
 170	1	4	0.029593	-7.48554	-8.21118	-0.740633
 171	1	4	0.042406	-6.23778	-6.92461	-0.459005
 172	1	1	-0.26285	-8.34787	1.35658	-9.75632
 173	1	2	0.431937	-7.53455	1.06503	-8.57557
 174	1	2	0.196566	-6.73199	-0.225548	-8.81528
 175	1	3	-0.176879	-8.16413	0.961854	-7.73231
 176	1	3	-0.045056	-6.8343	1.8999	-8.40163
 177	1	2	0.080387	-7.28281	-1.50327	-8.12821
 178	1	4	0.032783	-5.80345	0.0305719	-8.369
 179	1	4	-0.126889	-6.59594	-0.452341	-9.8966
 180	1	4	-0.081548	-8.3136	-1.66902	-8.51649
 181	1	4	-0.048451	-7.38773	-1.46405	-7.03361
 182	1	1	-0.26285	-8.04054	4.12523	-13.1102
 183	1	2	0.431937	-8.418	2.77766	-12.6859
 184	1	2	0.196566	-9.48571	2.80288	-11.532
 185	1	3	-0.176879	-7.46634	2.28767	-12.3447
 186	1	3	-0.045056	-8.82383	2.31805	-13.5206
 187	1	2	0.080387	-8.87068	2.69088	-10.0436
 188	1	4	0.032783	-10.1853	1.96576	-11.6856
 189	1	4	-0.126889	-10.1378	3.67377	-11.6347
 190	1	4	-0.081548	-9.5011	3.09973	-9.26211
 191	1	4	-0.048451	-7.93624	3.364	-9.99267
 192	1	1	-0.26285	-8.81926	7.53385	-16.8356
 193	1	2	0.431937	-9.29816	6.37997	-16.0395
 194	1	2	0.196566	-8.50434	6.01267	-14.7308
 195	1	3	-0.176879	-9.45167	5.5287	-16.7236
 196	1	3	-0.045056	-10.217	6.72203	-15.6616
 197	1	2	0.080387	-8.52117	4.51193	-14.3974
 198	1	4	0.032783	-8.94198	6.5699	-13.8896
 199	1	4	-0.126889	-7.46413	6.26813	-14.7891
 200	1	4	-0.081548	-7.96858	3.90851	-15.0588
 201	1	4	-0.048451	-9.54643	4.16859	-14.4042
 202	1	1	-0.26285	-8.18873	10.5938	-17.4458
 203	1	2	0.431937	-9.68965	10.5787	-17.6917
 204	1	2	0.196566	-10.4552	9.17363	-17.697
 205	1	3	-0.176879	-9.80283	10.9844	-18.747
 206	1	3	-0.045056	-10.1102	11.3723	-17.0292
 207	1	2	0.080387	-9.56899	7.98423	-17.9892
 208	1	4	0.032783	-11.2653	9.15499	-18.4248
 209	1	4	-0.126889	-11.0403	9.11382	-16.782
 210	1	4	-0.081548	-8.93852	8.25488	-18.9098
 211	1	4	-0.048451	-10.0095	7.14402	-18.4612
 212	1	6	-0.353484	2.31104	13.3785	-21.3537
 213	1	2	0.376337	2.94227	12.19	-21.8821
 214	1	2	-0.897489	2.3146	11.7124	-23.1432
 215	1	3	0.034041	2.94672	11.336	-21.187
 216	1	3	0.012328	4.03097	12.3575	-22.0931
 217	1	7	0.229239	1.39983	13.0772	-21.0488
 218	1	2	0.531206	1.08538	10.8417	-22.9539
 219	1	4	0.202592	3.0095	11.0891	-23.6639
 220	1	4	0.099501	2.06927	12.5933	-23.7713
 221	1	2	0.171725	-0.235638	11.5156	-22.8054
 222	1	4	-0.10542	1.13749	10.1201	-22.1166
 223	1	4	-0.137294	0.920016	10.2011	-23.8566
 224	1	2	-0.155467	-1.38413	10.4766	-22.6729
 225	1	4	-0.053736	-0.379591	12.1835	-23.6225
 226	1	4	0.001015	-0.239418	12.0291	-21.8274
 227	1	2	0.033419	-2.75777	11.2278	-22.6281
 228	1	4	0.005395	-1.29415	9.78429	-21.7993
 229	1	4	0.019028	-1.38659	9.86366	-23.5442
 230	1	2	0.058829	-3.22662	11.7697	-21.2894
 231	1	4	-0.00779	-3.47028	10.6037	-23.0806
 232	1	4	-0.029026	-2.79666	11.9719	-23.4955
 233	1	2	-0.029357	-3.86081	10.7861	-20.2617
 234	1	4	-0.003083	-3.97066	12.5532	-21.5009
 235	1	4	-0.010137	-2.39522	12.3832	-20.8518
 236	1	2	-0.000585	-4.93993	11.3915	-19.3161
 237	1	4	0.006084	-3.09998	10.4641	-19.6089
 238	1	4	0.012201	-4.296	9.8919	-20.8429
 239	1	2	-0.03118	-5.17129	10.813	-17.9293
 240	1	4	0.011412	-5.92279	11.4711	-19.8951
 241	1	4	0.011566	-4.60225	12.455	-19.1957
 242	1	2	-0.057912	-6.11543	11.7188	-17.0538
 243	1	4	0.001922	-4.21419	10.735	-17.4464
 244	1	4	0.021794	-5.61899	9.82718	-17.9853
 245	1	8	-0.501673	-8.1729	12.6644	-17.8988
 246	1	9	0.462	-7.46807	11.7246	-17.7095
 247	1	4	0.029593	-5.82416	12.7401	-17.1315
 248	1	4	0.042406	-6.24223	11.3198	-16.0025
 249	1	1	-0.26285	3.50054	15.4045	-17.6372
 250	1	2	0.431937	2.9253	16.088	-18.731
 251	1	2	0.196566	2.27348	15.1702	-19.793
 252	1	3	-0.176879	3.84973	16.5478	-19.2545
 253	1	3	-0.045056	2.14042	16.8945	-18.5005
 254	1	2	0.080387	3.14664	14.016	-20.3077
 255	1	4	0.032783	2.09294	15.7324	-20.7319
 256	1	4	-0.126889	1.26141	14.8923	-19.5195
 257	1	4	-0.081548	3.26301	13.3579	-19.5317
 258	1	4	-0.048451	4.08636	14.3585	-20.6408
 259	1	6	-0.353484	10.9488	20.6009	-15.9584
 260	1	2	0.376337	10.9016	20.3513	-14.4849
 261	1	2	-0.897489	10.3376	18.9597	-14.1767
 262	1	3	0.034041	10.2374	21.1336	-14.1313
 263	1	3	0.012328	11.9273	20.4692	-14.0191
 264	1	7	0.229239	9.98181	20.5807	-16.2905
 265	1	2	0.531206	10.3921	18.8111	-12.5823
 266	1	4	0.202592	11.0796	18.2555	-14.6205
 267	1	4	0.099501	9.3543	18.747	-14.6619
 268	1	2	0.171725	9.64589	19.8265	-11.6265
 269	1	4	-0.10542	11.4441	18.8591	-12.3143
 270	1	4	-0.137294	10.1109	17.7398	-12.2917
 271	1	2	-0.155467	8.11356	19.8512	-12.0101
 272	1	4	-0.053736	10.0002	20.818	-11.8747
 273	1	4	0.001015	9.80533	19.6703	-10.5672
 274	1	2	0.033419	7.4036	18.4956	-11.7412
 275	1	4	0.005395	8.04247	20.0203	-13.0735
 276	1	4	0.019028	7.49492	20.6589	-11.4641
 277	1	2	0.058829	5.95778	18.4537	-12.3654
 278	1	4	-0.00779	7.38779	18.4549	-10.6593
 279	1	4	-0.029026	7.92317	17.6312	-12.1195
 280	1	2	-0.029357	5.68912	17.2975	-13.3783
 281	1	4	-0.003083	5.78918	19.3719	-12.805
 282	1	4	-0.010137	5.12794	18.3805	-11.5592
 283	1	2	-0.000585	6.61407	17.3071	-14.5898
 284	1	4	0.006084	4.7114	17.4201	-13.7008
 285	1	4	0.012201	5.74639	16.2815	-12.9484
 286	1	2	-0.03118	6.42275	16.1058	-15.6001
 287	1	4	0.011412	7.68635	17.3536	-14.2645
 288	1	4	0.011566	6.51871	18.1985	-15.2471
 289	1	2	-0.057912	4.95793	15.3601	-15.7354
 290	1	4	0.001922	7.18253	15.3094	-15.1645
 291	1	4	0.021794	6.72313	16.3708	-16.6288
 292	1	8	-0.501673	3.86831	17.2921	-16.5515
 293	1	9	0.462	4.02805	16.0612	-16.6655
 294	1	4	0.029593	4.49549	15.116	-14.8017
 295	1	4	0.042406	5.23428	14.4201	-16.2144
 296	1	1	-0.26285	13.7181	23.4826	-17.4482
 297	1	2	0.431937	12.3683	23.5477	-17.8179
 298	1	2	0.196566	11.6719	22.1704	-17.6233
 299	1	3	-0.176879	12.3045	23.731	-18.9495
 300	1	3	-0.045056	11.8155	24.2652	-17.2073
 301	1	2	0.080387	11.4105	21.9584	-16.1424
 302	1	4	0.032783	12.2657	21.429	-18.1312
 303	1	4	-0.126889	10.6967	22.1314	-18.1808
 304	1	4	-0.081548	12.3381	22.1503	-15.6326
 305	1	4	-0.048451	10.6887	22.6587	-15.7695

Velocities

   1	-0.00302285	-0.00106248	-0.00395074
   2	0.0017509	0.000430637	-0.0038434
   3	0.00208464	0.0021668	-0.00936358
   4	-0.0129065	-0.00905437	-0.0182704
   5	0.00416939	0.00227079	0.000269966
   6	0.00191021	-0.00389004	-0.0108395
   7	0.014288	0.0087854	0.0117601
   8	-0.00303076	0.0114588	-0.00461932
   9	0.00712921	-2.80678e-05	-0.00910293
  10	0.00146797	0.00532495	0.0028167
  11	0.000579088	-0.00195955	0.0100405
  12	0.0106575	0.00201526	0.00514599
  13	0.00503424	-0.00893993	0.00443811
  14	0.0236748	-0.00494495	0.0101677
  15	0.0106286	0.00947859	0.00393442
  16	-0.00660024	-0.00025163	-0.000265143
  17	0.00160243	-0.00938251	-0.000294557
  18	0.0171162	-0.0175451	0.00345939
  19	0.00278114	-0.000638524	0.00538658
  20	0.000693358	-0.00548994	0.00154947
  21	0.00349324	-0.00337297	-0.00284884
  22	0.00335474	-0.0183573	-0.0179129
  23	0.0111113	-0.00223404	0.00376596
  24	0.00422732	0.0066516	0.011306
  25	0.00111959	0.00173604	0.00496623
  26	0.00742695	0.00116254	0.0015381
  27	-0.000559995	-0.00374454	0.00895152
  28	0.0163725	-0.00672424	0.00540416
  29	0.00500145	-0.00376973	-0.00231539
  30	0.00675943	0.00417026	0.0152013
  31	0.00089771	0.00931952	-0.0108799
  32	0.00973821	-0.00695932	0.000114758
  33	0.016246	0.00759062	-0.00561747
  34	-0.0034424	0.00182071	-0.00314728
  35	0.00404311	-0.00634502	-0.00693269
  36	0.0204106	-0.00271168	-0.0219381
  37	0.00573641	-0.0184283	-0.00497453
  38	0.00446247	-0.0101952	0.00442534
  39	-0.00556938	-0.00650062	-0.00666725
  40	0.00786187	-0.010209	-0.0144818
  41	0.00264483	-0.000535419	0.00329069
  42	0.00870879	-0.0203361	-0.0021969
  43	-0.0108727	-0.0137004	0.00686306
  44	0.00143413	-0.00721738	-0.00421352
  45	-0.0156963	0.00516957	-0.00717356
  46	0.00397839	-0.00613894	0.00530968
  47	0.0146015	-0.000633103	0.0140902
  48	0.00449151	-0.000491204	0.00388934
  49	0.00655306	-0.00116221	-0.00265531
  50	0.00280716	-0.00725662	0.00941405
  51	-0.00364437	-0.010073	-0.00887501
  52	0.00336015	-0.00544932	0.00517115
  53	-0.00711508	-0.0110705	0.00160057
  54	0.0230661	-0.0139082	0.0196281
  55	0.00454084	-0.0402324	0.010618
  56	-0.0320419	-0.00593918	0.00165302
  57	-0.00247714	-0.0197526	0.00302493
  58	-0.000217239	0.00108446	-0.00450882
  59	0.00760657	-0.00732209	-0.00228024
  60	0.00431762	-0.0057008	-0.00554842
  61	-0.000783827	-0.01947	0.0127362
  62	0.00480887	0.0046888	0.00892806
  63	0.00653739	-0.00454033	-0.00409524
  64	0.0160553	-0.0104507	0.0122047
  65	0.0134099	-0.00589889	0.00575179
  66	0.0037561	-0.0165486	-0.00454972
  67	0.0119647	-0.00560969	-0.0025163
  68	0.00199608	0.00372598	-0.00379541
  69	0.00202728	-0.00151625	-0.000871092
  70	-0.00285892	-0.00497034	-0.00358557
  71	-0.0090734	-0.0175577	-0.00427466
  72	0.0165809	-0.00157661	0.00979923
  73	0.0113194	0.0157119	-0.0172428
  74	-0.00711105	0.00131411	0.00222626
  75	-0.0189777	-0.000149901	-0.00167508
  76	-0.0232763	-0.00244068	-0.00593007
  77	0.0020962	0.00847222	0.00128053
  78	0.00352122	-0.0242155	-0.0036764
  79	-0.0101692	-0.013807	0.0146254
  80	-0.0031077	0.00390045	0.00363341
  81	0.00665409	0.00131661	0.00252357
  82	-0.01812	0.0154918	0.00547759
  83	-0.006382	0.00114101	0.00419352
  84	-0.00928066	0.011931	0.0112946
  85	0.0192024	0.00737136	0.00545518
  86	-0.00130207	0.00853852	-0.00185116
  87	-0.00896622	-0.0101772	-0.0192006
  88	-0.00782801	0.00591413	0.0190328
  89	0.00486114	0.00521497	-0.00770525
  90	0.00498165	-0.00711111	-0.0144923
  91	-0.00427644	-0.00515533	0.00412492
  92	0.00562605	-0.0028922	-0.00128331
  93	-0.000291385	0.00418067	-0.0208176
  94	-0.00748673	0.0054427	-0.00675739
  95	0.00434461	0.00613297	0.00532488
  96	0.00419076	0.0234493	-0.0234079
  97	0.0104536	-0.0186006	0.00361274
  98	-0.00930574	-0.000479492	0.00431668
  99	0.0021019	-0.00184062	0.0147665
 100	0.0139813	0.00946929	0.0152656
 101	-0.000250631	-0.000928245	-0.00227032
 102	0.00120057	-0.000704019	-0.00537712
 103	-0.0206141	0.00246745	0.00976713
 104	-0.0226471	0.0054396	-0.00164631
 105	0.00701796	0.00393067	0.00487657
 106	-0.00382016	-0.000475249	0.00453645
 107	-0.00617035	0.00509868	0.00191644
 108	0.00901591	-0.0155088	-0.00544564
 109	0.00444757	-0.0322942	0.0198003
 110	0.00475927	0.00592889	-0.00830591
 111	-0.0275887	0.0157896	0.0104477
 112	0.0100681	0.0103465	-0.00405485
 113	0.0133253	0.0322428	0.00267622
 114	-6.43169e-05	0.00248983	-0.0256838
 115	-0.00851946	-0.00124231	0.00332747
 116	-0.00261805	-0.000602459	0.002464
 117	0.00682137	0.00642255	-0.00335773
 118	-0.0065347	-0.00722004	-0.0109085
 119	-0.00652615	0.0166817	-0.00524741
 120	0.00206787	0.00117684	-0.00647215
 121	0.00496798	-0.0083417	-0.0100794
 122	0.0164531	0.0108281	-0.000457878
 123	0.0103496	0.00352128	-0.00295587
 124	0.0201421	0.00730383	0.00255971
 125	-0.00409278	0.011171	0.00162219
 126	0.00254752	0.0150278	-0.0147045
 127	0.00146491	0.00125197	0.00203324
 128	0.0224438	0.0106496	-0.0257093
 129	-0.0142289	0.00586149	0.00521105
 130	0.00269379	-0.00435892	-0.0013833
 131	0.0208844	-0.00299071	0.0137944
 132	0.00953202	-0.00547196	-0.00478538
 133	0.00673725	-0.0132728	-0.000737025
 134	-0.00648099	-0.000432941	0.0286276
 135	-0.00742164	0.00154406	0.00190914
 136	0.00152459	-0.00771396	-0.00687657
 137	0.000110959	-0.00292756	-0.000284845
 138	0.0157861	-0.00865693	0.0216461
 139	0.00869943	0.00387468	-0.016655
 140	-0.0165155	0.02603	-0.0101073
 141	0.00657934	-0.00367508	-0.00381307
 142	0.00630656	-0.00131738	0.0155369
 143	0.021565	-0.016258	0.0144834
 144	0.00037655	0.0112116	0.013211
 145	0.0428642	-0.00329003	-0.00158191
 146	0.0223509	0.0164418	-0.00570158
 147	-0.0055169	-0.0071502	-0.00409935
 148	-0.0131777	-0.00174125	-0.00170771
 149	-0.0149296	0.0197036	0.0104042
 150	3.59445e-05	0.00163511	-0.0056586
 151	-0.000402058	-0.0198207	0.00349288
 152	-0.0141826	0.0323668	0.00516709
 153	-0.004416	0.00185475	0.00306344
 154	0.000894921	0.00135248	-0.0046245
 155	-0.000297517	-0.00736211	0.0017445
 156	0.00115935	0.000542456	-0.00682719
 157	-0.0313494	-0.0240622	0.0122094
 158	-0.00916097	-0.0236946	0.0150948
 159	0.00671259	0.0014226	0.00160555
 160	-0.00785349	-0.0042505	-6.46391e-05
 161	0.0191728	0.00180408	-0.00187625
 162	0.00202566	-0.000833914	-0.00908795
 163	-0.0030085	-0.00165735	-0.00696693
 164	-0.0192139	0.00955842	-0.00756877
 165	-0.00767223	0.00222851	-0.000282405
 166	0.0160072	0.0258521	0.00832572
 167	-0.00232536	-0.0101081	0.00898528
 168	-0.00163713	0.00673321	0.00414367
 169	0.0030386	0.00902348	0.00123266
 170	-0.00841416	0.00722691	0.0113816
 171	-8.60907e-05	-0.00514018	-0.0107362
 172	-0.00162774	-0.00410009	-0.00230563
 173	0.00204065	0.0032904	0.000726783
 174	0.00488668	0.00114038	-0.00483323
 175	0.0214871	0.00484095	0.00961823
 176	-0.00274818	0.0241225	-0.00442244
 177	-0.00229943	0.00281098	-0.00476805
 178	-0.0156183	-0.0199373	0.00490886
 179	0.0407744	-0.00162384	-0.0400034
 180	0.0145643	0.0159219	0.0161371
 181	-0.00780625	-0.0278369	0.0128071
 182	0.00138754	0.00185285	-0.000419228
 183	0.000923239	-0.00282731	0.00412683
 184	-0.00355489	-0.00313228	0.00732198
 185	0.00309543	-0.00209985	-0.0258488
 186	0.0141917	0.0104485	0.00323184
 187	-0.00223846	-0.0020655	0.00629419
 188	-0.011232	0.00874257	0.00810025
 189	-0.0393269	0.00541084	-0.00464847
 190	-0.00368055	0.0131406	-0.015618
 191	-0.0273991	-0.0163872	-0.0445489
 192	0.00525248	-0.000897322	-0.00313998
 193	0.0107381	-0.00140454	-0.0100993
 194	0.00409126	0.000207878	-0.00421241
 195	-0.00449461	0.0131759	0.00814742
 196	0.0170784	-0.00322325	-0.0350767
 197	0.00781312	0.00233896	-0.000356913
 198	-0.000195719	-0.00198723	-0.0114108
 199	0.0189553	0.00578287	0.0100317
 200	-0.0137231	0.000737962	0.0191425
 201	0.00445617	-0.00886177	0.00101086
 202	0.00801488	0.0035934	-0.00254185
 203	0.00654986	0.0126702	0.0122441
 204	0.00582046	0.00201443	-0.00433904
 205	0.000181417	0.047424	-0.0139182
 206	0.0249063	0.012616	-0.00645373
 207	-0.00046152	0.00483135	-0.00363414
 208	0.0201337	0.00744357	-0.002912
 209	-0.00357618	-0.00441981	0.0132399
 210	-0.0171488	0.00929794	0.00912336
 211	0.0142317	-0.012039	-0.0222313
 212	-0.000913704	-0.00197951	0.00282184
 213	-0.00193381	0.0129615	0.00505875
 214	0.00254009	-0.000649035	-0.00335129
 215	0.00184823	0.00540359	0.00276106
 216	-0.00832942	-0.00506129	-0.014886
 217	-0.00382785	-0.0114249	0.00496488
 218	-0.00910487	0.00449927	-0.00764678
 219	-0.0171436	-0.0243135	0.00899052
 220	0.00117408	0.0188385	-0.00343998
 221	-0.00129174	0.00481533	0.00435351
 222	0.00172104	0.0293572	0.0126385
 223	-0.0143316	0.0171779	0.00463547
 224	-0.00172112	-0.00382339	-0.000925869
 225	-0.0124622	0.00981063	0.00674008
 226	-0.0148038	-0.00644375	-0.00787656
 227	0.00916989	0.00874213	-0.00411354
 228	-0.012032	-0.00946086	0.000461452
 229	-0.00825219	0.0231596	0.0021841
 230	0.00862629	0.00672784	0.00983416
 231	0.0214368	0.00875928	0.0245272
 232	0.00964105	-0.0149998	0.00503123
 233	-0.00718859	-0.00560489	0.00205683
 234	0.0358312	0.0302831	0.0107633
 235	-0.00515468	-0.0235783	-0.0100064
 236	-0.00846495	0.00173665	0.00264679
 237	-0.0063106	-0.0245346	-0.00452473
 238	-0.0127175	-5.44615e-05	-0.0244225
 239	0.0100714	0.00333607	0.0023642
 240	-0.0174568	0.0253853	0.0110417
 241	-0.0392271	-0.00956396	0.00879004
 242	0.00174569	0.00412223	-0.00216292
 243	-0.00640003	-0.00770969	-0.0112884
 244	0.0127472	0.0173205	0.0388702
 245	0.00400034	0.00203812	0.000221921
 246	-0.00374896	0.00438688	0.00756389
 247	-0.000163216	-0.0324168	-0.00637488
 248	0.026489	-0.0221791	0.0233208
 249	-0.00135818	0.00670851	-0.000765605
 250	0.00298919	-0.00204999	0.00773423
 251	-0.00185115	-0.00299448	0.00255739
 252	0.0225606	-0.0327948	0.0284162
 253	-0.0203396	-0.0135207	0.0126098
 254	-0.00668707	0.00125024	-0.00506243
 255	0.0162608	0.00147772	-0.0185073
 256	0.00210023	-0.0239427	1.86556e-05
 257	-0.0195593	-0.011669	0.00312413
 258	0.00234865	0.00516137	0.0114293
 259	-0.00141792	0.00223179	-0.00407514
 260	0.00236086	0.00458538	-0.00854796
 261	0.00281031	-0.00152475	-0.00187106
 262	0.000884591	0.00970859	-0.00199217
 263	0.00926911	0.00693193	0.00053036
 264	-0.0212422	-0.0210926	-0.0137484
 265	-0.00966422	-0.00416727	-0.0101395
 266	-0.0139977	-0.0242201	-0.0299529
 267	-0.0145359	-0.00082048	-0.00992615
 268	-0.00612983	-0.000521567	0.000112021
 269	-0.010308	-0.0144287	-0.00402763
 270	3.58953e-05	0.00443991	0.00654488
 271	-0.00463472	0.0067579	-0.00391047
 272	-0.00379327	0.0178213	0.0158623
 273	-0.00915128	-0.00297726	-0.0172011
 274	-0.00694142	0.0161749	-0.00541363
 275	-0.0260697	0.00422022	-0.0161218
 276	-0.0101291	0.0097942	-0.0100017
 277	-0.00260781	0.00551844	-0.00820357
 278	-0.00466572	0.00024301	-0.0137025
 279	0.00511688	0.0314396	-0.00640827
 280	0.0061503	0.00383774	-0.0102606
 281	-0.0022053	-0.0306206	-0.0166087
 282	0.0149627	0.00754288	0.00956028
 283	-0.00799726	0.00805022	0.00853157
 284	-0.0166958	-0.00380304	-0.0104198
 285	-0.00254186	0.0161332	-0.0126685
 286	-0.0114213	0.00624208	-0.00654674
 287	0.0130211	0.00866888	-0.00451482
 288	-0.0218049	0.0107938	0.00489199
 289	0.00280607	0.000915192	-0.000422421
 290	0.00437052	0.0198632	-0.00338647
 291	-0.0397735	-0.0187598	0.0130634
 292	0.00627529	0.000394485	-0.00807468
 293	-0.00202511	0.00460228	-0.00132764
 294	-0.0208901	-0.012539	-0.0255102
 295	-0.0116759	-0.0237379	-0.010916
 296	0.000404769	-0.011033	-0.000239542
 297	-0.00994872	0.00921001	0.00370007
 298	0.00113141	0.00348654	0.00205494
 299	-0.0163452	0.0187479	-0.00568396
 300	0.0259828	0.00346979	0.000741234
 301	0.00300154	0.00463606	-4.44461e-05
 302	-0.00859839	0.0107255	0.0144678
 303	-0.00220946	0.0282356	-0.00304095
 304	-0.0183751	-0.00944726	-0.0145462
 305	0.00156848	0.002615	-0.00832497

Bonds

   1	1	1	2
   2	4	2	3
   3	2	2	4
   4	2	2	5
   5	4	3	6
   6	5	3	7
   7	5	3	8
   8	5	6	9
   9	5	6	10
  10	8	11	12
  11	6	11	16
  12	4	12	13
  13	2	12	14
  14	2	12	15
  15	4	13	17
  16	5	13	18
  17	5	13	19
  18	4	17	20
  19	5	17	21
  20	5	17	22
  21	4	20	23
  22	5	20	24
  23	5	20	25
  24	4	23	26
  25	5	23	27
  26	5	23	28
  27	4	26	29
  28	5	26	30
  29	5	26	31
  30	4	29	32
  31	5	29	33
  32	5	29	34
  33	4	32	35
  34	5	32	36
  35	5	32	37
  36	4	35	38
  37	5	35	39
  38	5	35	40
  39	4	38	41
  40	5	38	42
  41	5	38	43
  42	10	41	45
  43	5	41	46
  44	5	41	47
  45	7	44	45
  46	11	1	45
  47	1	48	49
  48	4	49	50
  49	2	49	51
  50	2	49	52
  51	4	50	53
  52	5	50	54
  53	5	50	55
  54	5	53	56
  55	5	53	57
  56	8	11	53
  57	1	58	59
  58	4	59	60
  59	2	59	61
  60	2	59	62
  61	4	60	63
  62	5	60	64
  63	5	60	65
  64	5	63	66
  65	5	63	67
  66	1	48	63
  67	8	68	69
  68	6	68	73
  69	4	69	70
  70	2	69	71
  71	2	69	72
  72	4	70	74
  73	5	70	75
  74	5	70	76
  75	4	74	77
  76	5	74	78
  77	5	74	79
  78	4	77	80
  79	5	77	81
  80	5	77	82
  81	4	80	83
  82	5	80	84
  83	5	80	85
  84	4	83	86
  85	5	83	87
  86	5	83	88
  87	4	86	89
  88	5	86	90
  89	5	86	91
  90	4	89	92
  91	5	89	93
  92	5	89	94
  93	4	92	95
  94	5	92	96
  95	5	92	97
  96	4	95	98
  97	5	95	99
  98	5	95	100
  99	10	98	102
 100	5	98	103
 101	5	98	104
 102	7	101	102
 103	11	58	102
 104	1	105	106
 105	4	106	107
 106	2	106	108
 107	2	106	109
 108	4	107	110
 109	5	107	111
 110	5	107	112
 111	5	110	113
 112	5	110	114
 113	8	68	110
 114	1	115	116
 115	4	116	117
 116	2	116	118
 117	2	116	119
 118	4	117	120
 119	5	117	121
 120	5	117	122
 121	5	120	123
 122	5	120	124
 123	1	105	120
 124	1	125	126
 125	4	126	127
 126	2	126	128
 127	2	126	129
 128	4	127	130
 129	5	127	131
 130	5	127	132
 131	5	130	133
 132	5	130	134
 133	1	115	130
 134	8	135	136
 135	6	135	140
 136	4	136	137
 137	2	136	138
 138	2	136	139
 139	4	137	141
 140	5	137	142
 141	5	137	143
 142	4	141	144
 143	5	141	145
 144	5	141	146
 145	4	144	147
 146	5	144	148
 147	5	144	149
 148	4	147	150
 149	5	147	151
 150	5	147	152
 151	4	150	153
 152	5	150	154
 153	5	150	155
 154	4	153	156
 155	5	153	157
 156	5	153	158
 157	4	156	159
 158	5	156	160
 159	5	156	161
 160	4	159	162
 161	5	159	163
 162	5	159	164
 163	4	162	165
 164	5	162	166
 165	5	162	167
 166	10	165	169
 167	5	165	170
 168	5	165	171
 169	7	168	169
 170	11	125	169
 171	1	172	173
 172	4	173	174
 173	2	173	175
 174	2	173	176
 175	4	174	177
 176	5	174	178
 177	5	174	179
 178	5	177	180
 179	5	177	181
 180	8	135	177
 181	1	182	183
 182	4	183	184
 183	2	183	185
 184	2	183	186
 185	4	184	187
 186	5	184	188
 187	5	184	189
 188	5	187	190
 189	5	187	191
 190	1	172	187
 191	1	192	193
 192	4	193	194
 193	2	193	195
 194	2	193	196
 195	4	194	197
 196	5	194	198
 197	5	194	199