pySIMM System Object

1034 atoms
1033 bonds
1998 angles
2826 dihedrals
0 impropers

10 atom types
12 bond types
28 angle types
12 dihedral types
1 improper types

-121.704891 121.704891 xlo xhi
-121.704891 121.704891 ylo yhi
-121.704891 121.704891 zlo zhi

Masses

   1	14.01	# n3
   2	12.01	# c3
   3	1.008	# h1
   4	1.008	# hn
   5	1.008	# hc
   6	16.0	# o
   7	12.01	# c
   8	1.008	# h4
   9	16.0	# oh
  10	1.008	# ho

Pair Coeffs

   1	0.17	3.249998523775958	# n3
   2	0.1094	3.3996695084235347	# c3
   3	0.0157	2.471353044121301	# h1
   4	0.0157	1.069078461768407	# hn
   5	0.0157	2.649532787749369	# hc
   6	0.21	2.959921901149463	# o
   7	0.086	3.3996695084235347	# c
   8	0.015	2.5105525877194763	# h4
   9	0.2104	3.0664733878390478	# oh
  10	0.0047	0.5379246460131368	# ho

Bond Coeffs

   1	300.9	1.5375	# c3,c3
   2	392.4	1.019	# hn,n3
   3	330.6	1.0969	# c3,h1
   4	637.7	1.2183	# c,o
   5	325.9	1.4647	# c3,n3
   6	310.7	1.1121	# c,h4
   7	330.6	1.0969	# c3,hc
   8	313.0	1.5241	# c,c3
   9	325.9	1.465	# n3,c
  10	316.7	1.4233	# c3,oh
  11	371.4	0.973	# ho,oh
  12	400.1	1.3513	# c,oh

Angle Coeffs

   1	46.39	109.56	# c3,c3,h1
   2	66.02	111.04	# c3,c3,n3
   3	45.64	114.64	# c3,c,h4
   4	41.4	106.4	# hn,n3,hn
   5	39.24	108.46	# h1,c3,h1
   6	67.4	123.2	# c3,c,o
   7	47.42	109.29	# c3,n3,hn
   8	46.34	109.8	# c3,c3,hc
   9	63.27	111.04	# c,c3,c3
  10	39.4	107.58	# hc,c3,hc
  11	46.93	108.77	# c,c3,hc
  12	49.53	109.88	# h1,c3,n3
  13	62.86	111.51	# c3,c3,c3
  14	54.22	120.7	# h4,c,o
  15	63.8	112.35	# c3,n3,c
  16	47.4	109.29	# hn,n3,c
  17	66.0	111.04	# n3,c,c3
  18	70.9	110.7	# n3,c,o
  19	67.47	110.19	# c3,c3,oh
  20	50.93	110.26	# h1,c3,oh
  21	47.38	107.26	# c3,oh,ho
  22	63.82	112.35	# c3,n3,c3
  23	49.55	109.8	# hc,c3,n3
  24	67.9	109.98	# c3,oh,c
  25	68.4	112.73	# c3,c,oh
  26	75.92	122.1	# o,c,oh
  27	62.7	112.48	# c3,oh,c3
  28	51.11	109.5	# hc,c3,oh

Dihedral Coeffs

   1	1	0.16	3	0	# hc,c3,c3,c3
   2	1	0.3	3	0	# X,c3,n3,X
   3	1	0.15555555555555556	3	0	# X,c3,c3,X
   4	3	0.18	3	0	0.25	2	180	0.2	1	180	# c3,c3,c3,c3
   5	1	0.0	2	180	# X,c,c3,X
   6	1	0.15	3	0	# hc,c3,c3,hc
   7	3	0.8	1	0	0.0	2	0	0.08	3	180	# hc,c3,c,o
   8	2	0.16	3	0	0.25	1	0	# ho,oh,c3,c3
   9	1	0.16666666666666666	3	0	# X,c3,oh,X
  10	2	0.0	3	0	0.25	1	0	# hc,c3,c3,oh
  11	2	0.3	3	0	0.48	2	180	# c3,c3,n3,c3
  12	1	2.3	2	180	# X,c,oh,X

Improper Coeffs

   1	10.5	-1	2	# c,X,X,o

Atoms

   1	1	1	-0.353484	-48.2374	39.3492	6.22063
   2	1	2	0.376337	-47.0469	39.728	6.95887
   3	1	2	-0.897489	-45.8449	39.5901	6.0232
   4	1	3	0.034041	-46.9095	39.067	7.81918
   5	1	3	0.012328	-47.1385	40.7652	7.30842
   6	1	4	0.229239	-48.18	38.361	5.99916
   7	1	2	0.531206	-44.6297	40.3518	6.58044
   8	1	5	0.202592	-46.0984	40.0211	5.04693
   9	1	5	0.099501	-45.6011	38.5318	5.87298
  10	1	2	0.171725	-43.413	40.3004	5.6251
  11	1	5	-0.10542	-44.3567	39.9408	7.55692
  12	1	5	-0.137294	-44.9336	41.3931	6.73639
  13	1	2	-0.155467	-42.282	41.2306	6.09965
  14	1	5	-0.053736	-43.7296	40.6127	4.61993
  15	1	5	0.001015	-43.0424	39.2702	5.54425
  16	1	2	0.033419	-41.1768	41.3969	5.04129
  17	1	5	0.005395	-41.855	40.8485	7.03542
  18	1	5	0.019028	-42.7125	42.2157	6.32263
  19	1	2	0.058829	-40.1971	42.5061	5.47499
  20	1	5	-0.00779	-41.6304	41.6728	4.08091
  21	1	5	-0.029026	-40.6487	40.4477	4.89016
  22	1	2	-0.029357	-39.1858	42.8944	4.37689
  23	1	5	-0.003083	-39.6678	42.2056	6.38976
  24	1	5	-0.010137	-40.7725	43.4055	5.73044
  25	1	2	-0.000585	-38.014	41.8985	4.27853
  26	1	5	0.006084	-38.7848	43.8871	4.62002
  27	1	5	0.012201	-39.6914	42.9898	3.40642
  28	1	2	-0.03118	-36.9078	42.3977	3.31588
  29	1	5	0.011412	-38.3769	40.9171	3.94924
  30	1	5	0.011566	-37.5965	41.7576	5.2817
  31	1	2	-0.057912	-35.5906	41.5961	3.43751
  32	1	5	0.001922	-36.6971	43.4579	3.50939
  33	1	5	0.021794	-37.2774	42.3403	2.28391
  34	1	6	-0.501673	-35.1348	42.6145	5.60344
  35	1	7	0.462	-34.9246	41.7072	4.81627
  36	1	5	0.029593	-34.8669	41.9482	2.692
  37	1	5	0.042406	-35.7708	40.5351	3.22712
  38	1	1	-0.353484	-61.721	45.3709	8.34811
  39	1	2	0.376337	-60.3064	45.0268	8.31057
  40	1	2	-0.897489	-60.1514	43.7343	7.4948
  41	1	3	0.034041	-59.9362	44.8662	9.33248
  42	1	3	0.012328	-59.7284	45.84	7.85202
  43	1	4	0.229239	-62.2089	44.5512	8.69665
  44	1	2	0.531206	-58.6857	43.2479	7.38154
  45	1	5	0.202592	-60.5372	43.8951	6.48052
  46	1	5	0.099501	-60.7539	42.9368	7.94697
  47	1	2	0.171725	-57.9943	42.9286	8.7408
  48	1	5	-0.10542	-58.1153	44.017	6.84795
  49	1	5	-0.137294	-58.6867	42.3538	6.74857
  50	1	2	-0.155467	-56.6285	42.2007	8.62325
  51	1	5	-0.053736	-58.6607	42.3048	9.35236
  52	1	5	0.001015	-57.8471	43.8624	9.29814
  53	1	2	0.033419	-55.5739	42.9744	7.79376
  54	1	5	0.005395	-56.788	41.2086	8.18182
  55	1	5	0.019028	-56.2405	42.0345	9.63588
  56	1	2	0.058829	-54.1218	42.4499	7.94477
  57	1	5	-0.00779	-55.5851	44.0294	8.09808
  58	1	5	-0.029026	-55.8577	42.9511	6.73355
  59	1	2	-0.029357	-53.9196	40.9423	7.63611
  60	1	5	-0.003083	-53.7807	42.6516	8.96721
  61	1	5	-0.010137	-53.4799	43.0476	7.28766
  62	1	2	-0.000585	-52.4328	40.5191	7.74005
  63	1	5	0.006084	-54.3083	40.7025	6.63779
  64	1	5	0.012201	-54.4986	40.3494	8.35552
  65	1	2	-0.03118	-51.5853	40.9388	6.51109
  66	1	5	0.011412	-52.3806	39.429	7.85377
  67	1	5	0.011566	-52.0024	40.945	8.65631
  68	1	2	-0.057912	-50.0635	40.9289	6.78879
  69	1	5	0.001922	-51.8563	41.9551	6.20333
  70	1	5	0.021794	-51.8165	40.2848	5.66025
  71	1	6	-0.501673	-50.0649	38.4871	6.9805
  72	1	7	0.462	-49.4524	39.5351	6.99643
  73	1	5	0.029593	-49.8438	41.5319	7.67838
  74	1	5	0.042406	-49.5521	41.4222	5.95223
  75	1	1	-0.353484	-71.8152	57.3335	12.3293
  76	1	2	0.376337	-70.6099	56.6216	11.9074
  77	1	2	-0.897489	-70.9339	55.2208	11.3648
  78	1	3	0.034041	-69.9066	56.545	12.7444
  79	1	3	0.012328	-70.1179	57.1938	11.1079
  80	1	4	0.229239	-72.4732	57.3054	11.5545
  81	1	2	0.531206	-69.6679	54.658	10.6731
  82	1	5	0.202592	-71.7449	55.2692	10.6285
  83	1	5	0.099501	-71.2523	54.5662	12.1816
  84	1	2	0.171725	-69.7191	53.168	10.2283
  85	1	5	-0.10542	-68.8346	54.7915	11.3754
  86	1	5	-0.137294	-69.4512	55.2941	9.80693
  87	1	2	-0.155467	-68.3351	52.6956	9.71069
  88	1	5	-0.053736	-70.4816	53.0201	9.45124
  89	1	5	0.001015	-70.015	52.5548	11.0833
  90	1	2	0.033419	-68.1607	51.1583	9.60796
  91	1	5	0.005395	-67.5635	53.0754	10.3898
  92	1	5	0.019028	-68.144	53.1548	8.73286
  93	1	2	0.058829	-66.7248	50.8134	9.12595
  94	1	5	-0.00779	-68.9003	50.7376	8.91407
  95	1	5	-0.029026	-68.3434	50.7051	10.5895
  96	1	2	-0.029357	-66.3054	49.3275	9.27224
  97	1	5	-0.003083	-66.0092	51.4204	9.69682
  98	1	5	-0.010137	-66.6221	51.1189	8.07611
  99	1	2	-0.000585	-64.8576	49.108	8.74896
 100	1	5	0.006084	-67.0025	48.6806	8.72453
 101	1	5	0.012201	-66.3608	49.0424	10.3316
 102	1	2	-0.03118	-64.2387	47.7376	9.12545
 103	1	5	0.011412	-64.2135	49.8944	9.16344
 104	1	5	0.011566	-64.8418	49.2297	7.65801
 105	1	2	-0.057912	-62.7461	47.6313	8.70289
 106	1	5	0.001922	-64.814	46.927	8.66008
 107	1	5	0.021794	-64.3199	47.6051	10.212
 108	1	6	-0.501673	-62.3305	45.8899	10.3483
 109	1	7	0.462	-62.0077	46.4277	9.30723
 110	1	5	0.029593	-62.2034	48.5296	9.02216
 111	1	5	0.042406	-62.6717	47.5954	7.6091
 112	1	9	-0.26285	-73.9858	58.2976	14.5878
 113	1	2	0.431937	-73.3013	59.5298	14.365
 114	1	2	0.196566	-72.7415	59.6357	12.923
 115	1	3	-0.176879	-72.4646	59.604	15.0758
 116	1	3	-0.045056	-73.9517	60.3904	14.5736
 117	1	2	0.080387	-71.5063	58.7413	12.6485
 118	1	5	0.032783	-72.4374	60.6788	12.7709
 119	1	5	-0.126889	-73.5149	59.4348	12.1663
 120	1	5	-0.081548	-70.8128	58.7862	13.4951
 121	1	5	-0.048451	-70.977	59.176	11.7935
 122	1	1	-0.353484	-69.1974	52.8061	13.6447
 123	1	2	0.376337	-69.9532	52.0459	14.6403
 124	1	2	-0.897489	-71.3566	51.7668	14.0775
 125	1	3	0.034041	-70.0351	52.6305	15.5628
 126	1	3	0.012328	-69.4568	51.0995	14.8784
 127	1	4	0.229239	-69.7039	53.6696	13.4596
 128	1	2	0.531206	-71.3334	50.6076	13.0479
 129	1	5	0.202592	-71.7706	52.6691	13.6208
 130	1	5	0.099501	-72.0208	51.4873	14.8996
 131	1	2	0.171725	-72.6774	50.3398	12.3121
 132	1	5	-0.10542	-71.0519	49.6993	13.5973
 133	1	5	-0.137294	-70.5386	50.7743	12.3152
 134	1	2	-0.155467	-72.9897	51.2928	11.128
 135	1	5	-0.053736	-73.4929	50.358	13.0485
 136	1	5	0.001015	-72.6607	49.3147	11.9158
 137	1	2	0.033419	-74.5132	51.4106	10.8576
 138	1	5	0.005395	-72.4997	50.9018	10.2293
 139	1	5	0.019028	-72.5435	52.276	11.295
 140	1	2	0.058829	-75.2828	52.2786	11.8815
 141	1	5	-0.00779	-74.9559	50.4057	10.8339
 142	1	5	-0.029026	-74.6629	51.8364	9.8575
 143	1	2	-0.029357	-74.7714	53.7315	11.9405
 144	1	5	-0.003083	-75.2236	51.8281	12.881
 145	1	5	-0.010137	-76.3473	52.2847	11.6065
 146	1	2	-0.000585	-75.6121	54.5777	12.9044
 147	1	5	0.006084	-74.7957	54.1768	10.9374
 148	1	5	0.012201	-73.7313	53.7551	12.2862
 149	1	2	-0.03118	-75.0175	55.9855	13.0275
 150	1	5	0.011412	-75.6314	54.1008	13.8923
 151	1	5	0.011566	-76.6472	54.6366	12.548
 152	1	2	-0.057912	-75.7871	56.8326	14.0556
 153	1	5	0.001922	-75.0361	56.4824	12.0465
 154	1	5	0.021794	-73.9679	55.9051	13.3342
 155	1	6	-0.501673	-75.8616	59.2068	13.6464
 156	1	7	0.462	-75.2421	58.2498	14.0797
 157	1	5	0.029593	-75.6959	56.3955	15.0576
 158	1	5	0.042406	-76.856	56.8667	13.8007
 159	1	9	-0.26285	-66.1029	49.6611	13.5116
 160	1	2	0.431937	-66.9796	50.7652	13.2171
 161	1	2	0.196566	-66.8873	51.9009	14.273
 162	1	3	-0.176879	-68.007	50.3734	13.2107
 163	1	3	-0.045056	-66.7922	51.1697	12.2144
 164	1	2	0.080387	-67.7938	53.1256	13.9652
 165	1	5	0.032783	-65.8495	52.252	14.3395
 166	1	5	-0.126889	-67.1432	51.5042	15.2675
 167	1	5	-0.081548	-67.3734	53.6724	13.1148
 168	1	5	-0.048451	-67.7708	53.8147	14.8175
 169	1	1	-0.353484	-52.3363	41.5597	12.0425
 170	1	2	0.376337	-53.7633	41.826	11.9248
 171	1	2	-0.897489	-53.9368	43.3282	12.1766
 172	1	3	0.034041	-54.3084	41.2656	12.6966
 173	1	3	0.012328	-54.1478	41.5321	10.9407
 174	1	4	0.229239	-52.0306	42.0774	12.8626
 175	1	2	0.531206	-55.4209	43.6963	12.3886
 176	1	5	0.202592	-53.5321	43.9031	11.3354
 177	1	5	0.099501	-53.3713	43.6144	13.0722
 178	1	2	0.171725	-55.6256	44.9917	13.2231
 179	1	5	-0.10542	-55.9	42.8624	12.9154
 180	1	5	-0.137294	-55.9092	43.7791	11.411
 181	1	2	-0.155467	-57.0837	45.1882	13.7129
 182	1	5	-0.053736	-55.2826	45.8762	12.6686
 183	1	5	0.001015	-54.9897	44.9237	14.1153
 184	1	2	0.033419	-57.9767	46.029	12.7674
 185	1	5	0.005395	-57.0442	45.6993	14.6832
 186	1	5	0.019028	-57.5514	44.2135	13.9022
 187	1	2	0.058829	-59.4029	46.1897	13.3544
 188	1	5	-0.00779	-58.0318	45.5602	11.7759
 189	1	5	-0.029026	-57.5192	47.0179	12.6333
 190	1	2	-0.029357	-60.2239	47.3346	12.7094
 191	1	5	-0.003083	-59.3302	46.3886	14.4322
 192	1	5	-0.010137	-59.9412	45.2384	13.2464
 193	1	2	-0.000585	-61.6817	47.3563	13.2421
 194	1	5	0.006084	-60.2259	47.2214	11.6184
 195	1	5	0.012201	-59.7367	48.2921	12.9329
 196	1	2	-0.03118	-62.5029	48.6028	12.8115
 197	1	5	0.011412	-61.6572	47.3188	14.3385
 198	1	5	0.011566	-62.1989	46.4463	12.9151
 199	1	2	-0.057912	-63.9467	48.5725	13.3911
 200	1	5	0.001922	-62.5457	48.657	11.7163
 201	1	5	0.021794	-61.9908	49.5102	13.1587
 202	1	6	-0.501673	-64.3859	50.8316	12.591
 203	1	7	0.462	-64.823	49.7944	13.058
 204	1	5	0.029593	-63.9013	48.4857	14.4844
 205	1	5	0.042406	-64.4628	47.676	13.0245
 206	1	9	-0.26285	-49.0864	38.8999	11.2155
 207	1	2	0.431937	-49.4487	40.1797	11.7284
 208	1	2	0.196566	-50.5613	39.9803	12.7841
 209	1	3	-0.176879	-49.7848	40.8498	10.9261
 210	1	3	-0.045056	-48.5855	40.6401	12.2273
 211	1	2	0.080387	-52.001	40.142	12.2412
 212	1	5	0.032783	-50.4603	38.9833	13.2328
 213	1	5	-0.126889	-50.4169	40.6928	13.6105
 214	1	5	-0.081548	-52.1454	39.5752	11.3135
 215	1	5	-0.048451	-52.6835	39.7168	12.9883
 216	1	1	-0.353484	-35.8665	39.6676	8.92086
 217	1	2	0.376337	-37.1021	39.9848	8.22667
 218	1	2	-0.897489	-37.8851	38.6739	8.08964
 219	1	3	0.034041	-36.8902	40.3795	7.22269
 220	1	3	0.012328	-37.6718	40.7404	8.78371
 221	1	4	0.229239	-35.5417	38.7846	8.53709
 222	1	2	0.531206	-39.2548	38.8854	7.41431
 223	1	5	0.202592	-38.0428	38.2236	9.07714
 224	1	5	0.099501	-37.2968	37.9658	7.49247
 225	1	2	0.171725	-39.9268	37.5929	6.85443
 226	1	5	-0.10542	-39.1076	39.5822	6.5816
 227	1	5	-0.137294	-39.9173	39.3879	8.12703
 228	1	2	-0.155467	-40.209	36.4311	7.84933
 229	1	5	-0.053736	-39.2907	37.1957	6.05097
 230	1	5	0.001015	-40.869	37.8747	6.36781
 231	1	2	0.033419	-41.1435	36.7676	9.03929
 232	1	5	0.005395	-39.256	36.0571	8.24452
 233	1	5	0.019028	-40.6499	35.5973	7.28686
 234	1	2	0.058829	-42.5659	37.2459	8.64048
 235	1	5	-0.00779	-40.6712	37.5204	9.68307
 236	1	5	-0.029026	-41.2359	35.8584	9.64701
 237	1	2	-0.029357	-43.5559	37.1967	9.83485
 238	1	5	-0.003083	-42.9494	36.6067	7.83391
 239	1	5	-0.010137	-42.5115	38.2687	8.24498
 240	1	2	-0.000585	-45.0039	37.6203	9.47188
 241	1	5	0.006084	-43.1858	37.83	10.6518
 242	1	5	0.012201	-43.5761	36.1682	10.2185
 243	1	2	-0.03118	-46.0342	37.1419	10.5296
 244	1	5	0.011412	-45.2739	37.189	8.49912
 245	1	5	0.011566	-45.0478	38.7103	9.36649
 246	1	2	-0.057912	-47.5113	37.4382	10.1735
 247	1	5	0.001922	-45.7961	37.5741	11.51
 248	1	5	0.021794	-45.9317	36.0549	10.6384
 249	1	6	-0.501673	-47.3951	39.8525	10.0306
 250	1	7	0.462	-47.9331	38.8689	10.5071
 251	1	5	0.029593	-48.1469	36.7462	10.743
 252	1	5	0.042406	-47.7161	37.2405	9.11416
 253	1	1	-0.353484	-26.1405	51.2009	6.18313
 254	1	2	0.376337	-26.5529	49.9169	5.66012
 255	1	2	-0.897489	-27.0877	49.1667	6.87617
 256	1	3	0.034041	-27.31	50.0416	4.87469
 257	1	3	0.012328	-25.6943	49.3715	5.24567
 258	1	4	0.229239	-25.7033	51.0109	7.08243
 259	1	2	0.531206	-27.6303	47.7621	6.53529
 260	1	5	0.202592	-27.8819	49.7474	7.362
 261	1	5	0.099501	-26.2808	49.0429	7.61093
 262	1	2	0.171725	-28.9396	47.7417	5.69213
 263	1	5	-0.10542	-27.808	47.2572	7.49096
 264	1	5	-0.137294	-26.8395	47.2036	6.02087
 265	1	2	-0.155467	-29.6446	46.3584	5.6244
 266	1	5	-0.053736	-28.7059	48.0578	4.66654
 267	1	5	0.001015	-29.6464	48.4818	6.08766
 268	1	2	0.033419	-30.3229	45.8864	6.93631
 269	1	5	0.005395	-28.9264	45.5969	5.29381
 270	1	5	0.019028	-30.4136	46.415	4.84421
 271	1	2	0.058829	-31.2627	44.6651	6.72502
 272	1	5	-0.00779	-30.9074	46.709	7.37013
 273	1	5	-0.029026	-29.5453	45.6278	7.66677
 274	1	2	-0.029357	-31.655	44.0313	8.08765
 275	1	5	-0.003083	-32.1636	44.9957	6.19043
 276	1	5	-0.010137	-30.7734	43.9117	6.09304
 277	1	2	-0.000585	-32.9107	43.1213	8.05383
 278	1	5	0.006084	-31.8477	44.8354	8.80914
 279	1	5	0.012201	-30.7953	43.4679	8.473
 280	1	2	-0.03118	-33.1634	42.389	9.40302
 281	1	5	0.011412	-32.8019	42.3846	7.24801
 282	1	5	0.011566	-33.7824	43.7411	7.80922
 283	1	2	-0.057912	-34.5781	41.7536	9.53301
 284	1	5	0.001922	-33.0346	43.102	10.2281
 285	1	5	0.021794	-32.3967	41.6156	9.54648
 286	1	6	-0.501673	-33.95	39.9788	7.99676
 287	1	7	0.462	-34.8238	40.6076	8.55348
 288	1	5	0.029593	-35.3434	42.5212	9.36453
 289	1	5	0.042406	-34.7253	41.3745	10.552
 290	1	9	-0.26285	-22.9699	54.8505	5.80617
 291	1	2	0.431937	-23.3383	53.6062	5.19852
 292	1	2	0.196566	-24.6383	53.1519	5.89151
 293	1	3	-0.176879	-22.5522	52.8568	5.3519
 294	1	3	-0.045056	-23.5266	53.7176	4.12259
 295	1	2	0.080387	-25.1547	51.8297	5.30713
 296	1	5	0.032783	-25.4068	53.9252	5.77132
 297	1	5	-0.126889	-24.4657	53.0375	6.97321
 298	1	5	-0.081548	-25.5922	52.0025	4.31747
 299	1	5	-0.048451	-24.3092	51.143	5.1763
 300	1	1	-0.353484	-17.9441	56.6786	-1.19218
 301	1	2	0.376337	-18.9408	57.3462	-2.00251
 302	1	2	-0.897489	-20.1765	57.605	-1.12675
 303	1	3	0.034041	-19.2008	56.7636	-2.89657
 304	1	3	0.012328	-18.5335	58.3095	-2.33244
 305	1	4	0.229239	-18.3234	55.782	-0.895646
 306	1	2	0.531206	-19.8451	58.6086	0.0203917
 307	1	5	0.202592	-20.5942	56.6731	-0.720849
 308	1	5	0.099501	-20.9256	58.0645	-1.78224
 309	1	2	0.171725	-21.096	59.2536	0.688887
 310	1	5	-0.10542	-19.2224	59.4116	-0.392454
 311	1	5	-0.137294	-19.2441	58.0911	0.774074
 312	1	2	-0.155467	-20.8493	60.2572	1.84928
 313	1	5	-0.053736	-21.7673	58.4646	1.05338
 314	1	5	0.001015	-21.6689	59.7818	-0.0833308
 315	1	2	0.033419	-20.4511	59.5518	3.16035
 316	1	5	0.005395	-21.792	60.7986	2.01088
 317	1	5	0.019028	-20.0941	61.0047	1.5719
 318	1	2	0.058829	-20.4495	60.5447	4.34476
 319	1	5	-0.00779	-19.4611	59.0874	3.06034
 320	1	5	-0.029026	-21.1881	58.7631	3.35038
 321	1	2	-0.029357	-20.6897	59.9697	5.77121
 322	1	5	-0.003083	-21.2311	61.2956	4.17542
 323	1	5	-0.010137	-19.5052	61.1031	4.34047
 324	1	2	-0.000585	-19.792	58.779	6.22474
 325	1	5	0.006084	-21.7472	59.7086	5.88295
 326	1	5	0.012201	-20.529	60.8021	6.46876
 327	1	2	-0.03118	-20.1351	57.3779	5.6207
 328	1	5	0.011412	-19.8515	58.6981	7.31848
 329	1	5	0.011566	-18.7448	59.0212	5.99796
 330	1	2	-0.057912	-21.5846	56.8611	5.89435
 331	1	5	0.001922	-19.4355	56.6504	6.05071
 332	1	5	0.021794	-19.9282	57.3638	4.54738
 333	1	6	-0.501673	-21.4443	55.1868	4.16124
 334	1	7	0.462	-21.9818	55.5511	5.18504
 335	1	5	0.029593	-22.313	57.6125	5.57395
 336	1	5	0.042406	-21.7176	56.7291	6.97497
 337	1	9	-0.26285	-13.5988	55.7784	-2.26427
 338	1	2	0.431937	-14.4137	55.152	-1.26921
 339	1	2	0.196566	-15.5592	56.0811	-0.777517
 340	1	3	-0.176879	-13.7795	54.9257	-0.400544
 341	1	3	-0.045056	-14.8444	54.2081	-1.62339
 342	1	2	0.080387	-16.629	56.4675	-1.8329
 343	1	5	0.032783	-15.127	56.9973	-0.355292
 344	1	5	-0.126889	-16.0632	55.5782	0.0631198
 345	1	5	-0.081548	-16.7418	55.6703	-2.58009
 346	1	5	-0.048451	-16.288	57.3699	-2.36174
 347	1	1	-0.353484	-1.52181	49.5758	-5.90702
 348	1	2	0.376337	-2.81919	48.9522	-5.80179
 349	1	2	-0.897489	-3.78298	49.9764	-5.25286
 350	1	3	0.034041	-2.75631	48.098	-5.11514
 351	1	3	0.012328	-3.1508	48.5866	-6.78321
 352	1	4	0.229239	-1.63638	50.3744	-6.52238
 353	1	2	0.531206	-5.17279	49.3417	-5.15972
 354	1	5	0.202592	-3.81067	50.8416	-5.9216
 355	1	5	0.099501	-3.45042	50.3173	-4.26565
 356	1	2	0.171725	-6.31553	50.3417	-4.83365
 357	1	5	-0.10542	-5.13511	48.5309	-4.41989
 358	1	5	-0.137294	-5.39162	48.8656	-6.12379
 359	1	2	-0.155467	-6.49809	51.3972	-5.96101
 360	1	5	-0.053736	-6.10648	50.8577	-3.88667
 361	1	5	0.001015	-7.24396	49.7674	-4.71373
 362	1	2	0.033419	-7.82548	52.207	-6.01146
 363	1	5	0.005395	-6.3911	50.8752	-6.92035
 364	1	5	0.019028	-5.66497	52.1092	-5.88836
 365	1	2	0.058829	-8.13481	52.8754	-4.66384
 366	1	5	-0.00779	-8.65665	51.5413	-6.28109
 367	1	5	-0.029026	-7.73756	52.9682	-6.7997
 368	1	2	-0.029357	-9.31816	53.8739	-4.69352
 369	1	5	-0.003083	-7.23015	53.3987	-4.33036
 370	1	5	-0.010137	-8.34641	52.1028	-3.91356
 371	1	2	-0.000585	-9.56184	54.4613	-3.26519
 372	1	5	0.006084	-10.2294	53.3635	-5.02729
 373	1	5	0.012201	-9.11429	54.6694	-5.42186
 374	1	2	-0.03118	-10.396	55.7772	-3.2108
 375	1	5	0.011412	-8.59153	54.679	-2.79645
 376	1	5	0.011566	-10.0422	53.6967	-2.63935
 377	1	2	-0.057912	-11.7892	55.7263	-3.8876
 378	1	5	0.001922	-9.80993	56.5613	-3.71086
 379	1	5	0.021794	-10.5317	56.0775	-2.1607
 380	1	6	-0.501673	-12.9459	53.7376	-3.08735
 381	1	7	0.462	-12.8311	54.9548	-3.04951
 382	1	5	0.029593	-11.7092	55.2952	-4.89376
 383	1	5	0.042406	-12.1686	56.7477	-4.01496
 384	1	1	-0.353484	9.47627	40.5401	-1.77838
 385	1	2	0.376337	8.57571	40.9245	-2.87916
 386	1	2	-0.897489	8.41982	42.4585	-2.93865
 387	1	3	0.034041	7.59579	40.4396	-2.76384
 388	1	3	0.012328	9.01336	40.5775	-3.82441
 389	1	4	0.229239	9.01318	40.7948	-0.908109
 390	1	2	0.531206	7.98352	42.9892	-4.33709
 391	1	5	0.202592	9.38982	42.9151	-2.70634
 392	1	5	0.099501	7.71544	42.8003	-2.1746
 393	1	2	0.171725	7.68577	44.5206	-4.37384
 394	1	5	-0.10542	7.10393	42.431	-4.68095
 395	1	5	-0.137294	8.80194	42.7586	-5.03114
 396	1	2	-0.155467	7.48336	45.0817	-5.80962
 397	1	5	-0.053736	8.54266	45.0482	-3.93471
 398	1	5	0.001015	6.82606	44.7628	-3.73813
 399	1	2	0.033419	6.06035	45.1091	-6.39215
 400	1	5	0.005395	8.10214	44.4959	-6.50177
 401	1	5	0.019028	7.88034	46.1049	-5.84616
 402	1	2	0.058829	5.00212	45.8735	-5.59106
 403	1	5	-0.00779	5.70896	44.0858	-6.57058
 404	1	5	-0.029026	6.15184	45.5744	-7.38201
 405	1	2	-0.029357	3.80322	46.1413	-6.51142
 406	1	5	-0.003083	5.4259	46.8279	-5.25117
 407	1	5	-0.010137	4.69316	45.2989	-4.70721
 408	1	2	-0.000585	2.86542	47.0855	-5.77423
 409	1	5	0.006084	3.28957	45.2022	-6.75569
 410	1	5	0.012201	4.13154	46.6144	-7.44729
 411	1	2	-0.03118	1.51346	47.2752	-6.49276
 412	1	5	0.011412	3.36399	48.0569	-5.64947
 413	1	5	0.011566	2.68161	46.6884	-4.76785
 414	1	2	-0.057912	0.720201	48.4702	-5.88447
 415	1	5	0.001922	0.923212	46.3538	-6.40226
 416	1	5	0.021794	1.68648	47.4568	-7.56287
 417	1	6	-0.501673	-0.632051	49.0498	-7.74896
 418	1	7	0.462	-0.603686	48.6993	-6.59318
 419	1	5	0.029593	1.3159	49.3909	-5.94099
 420	1	5	0.042406	0.503696	48.2696	-4.82852
 421	1	9	-0.26285	9.99224	36.5108	1.04935
 422	1	2	0.431937	10.2762	37.0281	-0.261904
 423	1	2	0.196566	10.2152	38.5801	-0.381419
 424	1	3	-0.176879	9.51153	36.5998	-0.923588
 425	1	3	-0.045056	11.2438	36.6575	-0.623673
 426	1	2	0.080387	9.79138	39.0911	-1.79074
 427	1	5	0.032783	11.1923	39.0078	-0.126542
 428	1	5	-0.126889	9.49159	38.9729	0.350069
 429	1	5	-0.081548	8.89512	38.5398	-2.10207
 430	1	5	-0.048451	10.5695	38.8799	-2.53631
 431	1	1	-0.353484	14.6384	24.6694	10.1021
 432	1	2	0.376337	13.605	25.6845	9.94458
 433	1	2	-0.897489	14.1344	26.7914	9.02698
 434	1	3	0.034041	13.3302	26.0975	10.9258
 435	1	3	0.012328	12.7158	25.2334	9.48608
 436	1	4	0.229239	14.2058	23.8364	10.4766
 437	1	2	0.531206	13.1517	27.971	8.97292
 438	1	5	0.202592	14.2793	26.3851	8.01736
 439	1	5	0.099501	15.1027	27.1634	9.3874
 440	1	2	0.171725	13.6115	29.0781	7.98764
 441	1	5	-0.10542	13.0298	28.3788	9.98196
 442	1	5	-0.137294	12.1784	27.573	8.6644
 443	1	2	-0.155467	12.469	30.0647	7.69212
 444	1	5	-0.053736	13.9277	28.6215	7.03884
 445	1	5	0.001015	14.4819	29.6115	8.39635
 446	1	2	0.033419	12.9297	31.1637	6.72245
 447	1	5	0.005395	12.1223	30.5175	8.63097
 448	1	5	0.019028	11.6217	29.5169	7.25911
 449	1	2	0.058829	11.7919	32.112	6.31629
 450	1	5	-0.00779	13.3507	30.7039	5.81706
 451	1	5	-0.029026	13.7342	31.7392	7.19761
 452	1	2	-0.029357	12.2957	33.1942	5.3466
 453	1	5	-0.003083	11.3731	32.5886	7.21146
 454	1	5	-0.010137	10.9837	31.5398	5.84116
 455	1	2	-0.000585	11.1438	34.1378	4.93062
 456	1	5	0.006084	12.7248	32.7174	4.45579
 457	1	5	0.012201	13.1028	33.7713	5.81982
 458	1	2	-0.03118	11.6388	35.1956	3.91338
 459	1	5	0.011412	10.7221	34.6392	5.81291
 460	1	5	0.011566	10.3355	33.5456	4.47965
 461	1	2	-0.057912	10.5252	36.1074	3.35756
 462	1	5	0.001922	12.1152	34.6695	3.07551
 463	1	5	0.021794	12.4165	35.8179	4.37297
 464	1	6	-0.501673	11.7648	37.5802	1.96329
 465	1	7	0.462	10.9304	36.7018	2.015
 466	1	5	0.029593	10.3055	36.9169	4.06606
 467	1	5	0.042406	9.60471	35.5277	3.22349
 468	1	1	-0.353484	21.8841	14.6012	16.7176
 469	1	2	0.376337	21.2967	15.6921	15.9766
 470	1	2	-0.897489	21.1388	16.9169	16.8725
 471	1	3	0.034041	20.3182	15.3818	15.5883
 472	1	3	0.012328	21.9491	15.9441	15.1303
 473	1	4	0.229239	21.1972	14.2949	17.3981
 474	1	2	0.531206	20.4326	18.0135	16.0438
 475	1	5	0.202592	22.1329	17.2597	17.1903
 476	1	5	0.099501	20.5602	16.677	17.7715
 477	1	2	0.171725	20.4479	19.4288	16.684
 478	1	5	-0.10542	19.395	17.7085	15.8483
 479	1	5	-0.137294	20.9438	18.054	15.0764
 480	1	2	-0.155467	20.3401	20.576	15.6436
 481	1	5	-0.053736	21.3908	19.5632	17.231
 482	1	5	0.001015	19.64	19.5086	17.4215
 483	1	2	0.033419	19.027	20.6114	14.8265
 484	1	5	0.005395	21.1888	20.4932	14.9506
 485	1	5	0.019028	20.4654	21.5266	16.1738
 486	1	2	0.058829	19.0097	21.7729	13.7984
 487	1	5	-0.00779	18.1823	20.7229	15.5161
 488	1	5	-0.029026	18.892	19.6571	14.303
 489	1	2	-0.029357	17.6949	21.8313	12.986
 490	1	5	-0.003083	19.8426	21.6118	13.1063
 491	1	5	-0.010137	19.1904	22.7322	14.3038
 492	1	2	-0.000585	17.7904	22.5234	11.5957
 493	1	5	0.006084	16.9071	22.306	13.5844
 494	1	5	0.012201	17.3588	20.8024	12.802
 495	1	2	-0.03118	17.9747	24.0717	11.6029
 496	1	5	0.011412	16.8327	22.3134	11.1068
 497	1	5	0.011566	18.5517	22.0452	10.9642
 498	1	2	-0.057912	17.0838	24.8141	10.5668
 499	1	5	0.001922	19.0245	24.2994	11.3907
 500	1	5	0.021794	17.7865	24.4857	12.6011
 501	1	6	-0.501673	15.2674	24.7204	12.2001
 502	1	7	0.462	15.6492	25.04	11.0882
 503	1	5	0.029593	17.0759	24.2906	9.60007
 504	1	5	0.042406	17.4998	25.8084	10.3719
 505	1	1	-0.353484	25.712	10.6865	2.83652
 506	1	2	0.376337	25.042	11.3543	3.92794
 507	1	2	-0.897489	25.6171	10.8282	5.24643
 508	1	3	0.034041	23.958	11.1392	3.88419
 509	1	3	0.012328	25.1784	12.439	3.85302
 510	1	4	0.229239	25.9563	9.75744	3.17224
 511	1	2	0.531206	24.7706	11.3633	6.42246
 512	1	5	0.202592	26.6707	11.1124	5.35611
 513	1	5	0.099501	25.562	9.73628	5.25877
 514	1	2	0.171725	25.0432	10.6337	7.75969
 515	1	5	-0.10542	23.7126	11.2342	6.16769
 516	1	5	-0.137294	24.9407	12.4415	6.51289
 517	1	2	-0.155467	24.1063	11.0517	8.92756
 518	1	5	-0.053736	26.0847	10.7942	8.0605
 519	1	5	0.001015	24.9396	9.559	7.5967
 520	1	2	0.033419	24.1769	10.0721	10.1431
 521	1	5	0.005395	23.066	11.0609	8.57839
 522	1	5	0.019028	24.3434	12.0716	9.23795
 523	1	2	0.058829	23.5291	10.567	11.4589
 524	1	5	-0.00779	25.2253	9.80248	10.3236
 525	1	5	-0.029026	23.6567	9.15085	9.86299
 526	1	2	-0.029357	24.3726	11.5802	12.2731
 527	1	5	-0.003083	23.3493	9.68937	12.093
 528	1	5	-0.010137	22.5457	11.0014	11.2329
 529	1	2	-0.000585	23.6569	11.8457	13.6208
 530	1	5	0.006084	24.4727	12.5074	11.6939
 531	1	5	0.012201	25.3867	11.1951	12.4532
 532	1	2	-0.03118	24.2483	12.9414	14.5205
 533	1	5	0.011412	23.6962	10.9083	14.1908
 534	1	5	0.011566	22.5945	12.0637	13.4471
 535	1	2	-0.057912	23.5393	12.9437	15.9056
 536	1	5	0.001922	24.1517	13.9252	14.0346
 537	1	5	0.021794	25.322	12.7571	14.6622
 538	1	6	-0.501673	21.1306	12.7605	15.8514
 539	1	7	0.462	22.1113	13.4744	15.8279
 540	1	5	0.029593	24.1198	13.5573	16.6066
 541	1	5	0.042406	23.5058	11.9228	16.3104
 542	1	9	-0.26285	27.5881	9.81858	-1.0092
 543	1	2	0.431937	27.0159	10.7515	-0.099488
 544	1	2	0.196566	27.6603	10.5808	1.29259
 545	1	3	-0.176879	25.9545	10.4816	-0.00760928
 546	1	3	-0.045056	27.0589	11.7977	-0.434943
 547	1	2	0.080387	26.9176	11.396	2.36516
 548	1	5	0.032783	28.7052	10.92	1.24373
 549	1	5	-0.126889	27.6789	9.52336	1.60154
 550	1	5	-0.081548	26.6353	12.3798	1.96516
 551	1	5	-0.048451	27.5996	11.5772	3.20264
 552	1	1	-0.353484	29.9405	5.36087	-13.778
 553	1	2	0.376337	31.1815	6.0847	-13.5884
 554	1	2	-0.897489	31.9141	5.44374	-12.4058
 555	1	3	0.034041	30.9921	7.14589	-13.3789
 556	1	3	0.012328	31.7786	6.00954	-14.5025
 557	1	4	0.229239	29.4851	5.27456	-12.8738
 558	1	2	0.531206	31.1122	5.71525	-11.0908
 559	1	5	0.202592	32.9043	5.91916	-12.3407
 560	1	5	0.099501	32.0781	4.36865	-12.5731
 561	1	2	0.171725	31.7171	5.21011	-9.74899
 562	1	5	-0.10542	30.1228	5.26078	-11.2118
 563	1	5	-0.137294	30.9352	6.79331	-11.0279
 564	1	2	-0.155467	30.7638	5.27252	-8.5016
 565	1	5	-0.053736	32.6763	5.70823	-9.52888
 566	1	5	0.001015	31.9553	4.14798	-9.91479
 567	1	2	0.033419	30.4905	6.67454	-7.88419
 568	1	5	0.005395	31.2225	4.64179	-7.72857
 569	1	5	0.019028	29.8055	4.7924	-8.73113
 570	1	2	0.058829	29.8692	6.47622	-6.47893
 571	1	5	-0.00779	29.825	7.26369	-8.5356
 572	1	5	-0.029026	31.4257	7.24611	-7.78713
 573	1	2	-0.029357	29.5476	7.7481	-5.67016
 574	1	5	-0.003083	30.5753	5.89058	-5.87838
 575	1	5	-0.010137	28.9636	5.86848	-6.58426
 576	1	2	-0.000585	28.7481	7.28841	-4.42279
 577	1	5	0.006084	28.9405	8.45566	-6.25291
 578	1	5	0.012201	30.476	8.25402	-5.36819
 579	1	2	-0.03118	28.1238	8.41179	-3.57331
 580	1	5	0.011412	29.3855	6.6537	-3.80027
 581	1	5	0.011566	27.9155	6.65949	-4.76746
 582	1	2	-0.057912	29.1301	9.17974	-2.68806
 583	1	5	0.001922	27.384	7.94315	-2.91259
 584	1	5	0.021794	27.5725	9.11004	-4.21653
 585	1	6	-0.501673	29.02	11.3827	-1.74755
 586	1	7	0.462	28.4467	10.3242	-1.93258
 587	1	5	0.029593	29.9631	9.57317	-3.28257
 588	1	5	0.042406	29.5612	8.50373	-1.94239
 589	1	9	-0.26285	27.8473	2.55408	-15.7339
 590	1	2	0.431937	28.6618	3.72702	-15.8208
 591	1	2	0.196566	27.9507	4.93493	-15.1497
 592	1	3	-0.176879	28.8822	4.00662	-16.8573
 593	1	3	-0.045056	29.611	3.51403	-15.3092
 594	1	2	0.080387	29.0255	5.9488	-14.753
 595	1	5	0.032783	27.44	4.60893	-14.2314
 596	1	5	-0.126889	27.221	5.40402	-15.8289
 597	1	5	-0.081548	28.5556	6.84637	-14.3236
 598	1	5	-0.048451	29.57	6.25756	-15.6563
 599	1	1	-0.353484	34.3347	-9.3898	-17.0353
 600	1	2	0.376337	32.9147	-9.19463	-17.2513
 601	1	2	-0.897489	32.2649	-9.09887	-15.8536
 602	1	3	0.034041	32.4568	-10.0344	-17.8062
 603	1	3	0.012328	32.8159	-8.23152	-17.7829
 604	1	4	0.229239	34.7168	-8.5293	-16.6558
 605	1	2	0.531206	30.8061	-8.68645	-16.0521
 606	1	5	0.202592	32.8033	-8.33293	-15.2882
 607	1	5	0.099501	32.339	-10.04	-15.2725
 608	1	2	0.171725	29.9982	-8.17084	-14.8558
 609	1	5	-0.10542	30.262	-9.48385	-16.5657
 610	1	5	-0.137294	30.839	-7.86293	-16.777
 611	1	2	-0.155467	28.6936	-7.42394	-15.3458
 612	1	5	-0.053736	30.647	-7.53027	-14.2583
 613	1	5	0.001015	29.8091	-9.04438	-14.2214
 614	1	2	0.033419	28.9409	-6.02497	-15.9789
 615	1	5	0.005395	28.0585	-7.30999	-14.4527
 616	1	5	0.019028	28.0831	-8.04803	-16.019
 617	1	2	0.058829	27.9356	-4.99708	-15.4755
 618	1	5	-0.00779	28.9082	-6.09881	-17.0764
 619	1	5	-0.029026	29.951	-5.66949	-15.7087
 620	1	2	-0.029357	28.4308	-3.60675	-15.7832
 621	1	5	-0.003083	27.7948	-5.09324	-14.3957
 622	1	5	-0.010137	26.958	-5.12798	-15.974
 623	1	2	-0.000585	27.3924	-2.51769	-15.4188
 624	1	5	0.006084	28.6626	-3.50298	-16.8509
 625	1	5	0.012201	29.3611	-3.42681	-15.2217
 626	1	2	-0.03118	28.1468	-1.16387	-15.4195
 627	1	5	0.011412	26.9605	-2.6837	-14.4283
 628	1	5	0.011566	26.5708	-2.50635	-16.1403
 629	1	2	-0.057912	27.4507	0.122522	-15.9605
 630	1	5	0.001922	29.0329	-1.28866	-16.0455
 631	1	5	0.021794	28.5095	-0.948808	-14.4174
 632	1	6	-0.501673	29.625	1.30823	-16.4407
 633	1	7	0.462	28.4422	1.38326	-16.1014
 634	1	5	0.029593	26.5781	0.388137	-15.3575
 635	1	5	0.042406	27.0652	-0.122954	-16.961
 636	1	9	-0.26285	38.7302	-10.6491	-18.7949
 637	1	2	0.431937	37.2766	-10.8384	-18.8832
 638	1	2	0.196566	36.5599	-10.0634	-17.7572
 639	1	3	-0.176879	37.0437	-11.9099	-18.8239
 640	1	3	-0.045056	36.9112	-10.4931	-19.8664
 641	1	2	0.080387	35.0771	-9.8431	-18.1789
 642	1	5	0.032783	37.0092	-9.07709	-17.6016