pySIMM System Object

1152 atoms
1151 bonds
2228 angles
3161 dihedrals
0 impropers

10 atom types
12 bond types
28 angle types
12 dihedral types
1 improper types

-81.566638 81.566638 xlo xhi
-81.566638 81.566638 ylo yhi
-81.566638 81.566638 zlo zhi

Masses

   1	16.0	# oh
   2	12.01	# c3
   3	1.008	# h1
   4	1.008	# hc
   5	1.008	# ho
   6	14.01	# n3
   7	1.008	# hn
   8	16.0	# o
   9	12.01	# c
  10	1.008	# h4

Pair Coeffs

   1	0.2104	3.0664733878390478	# oh
   2	0.1094	3.3996695084235347	# c3
   3	0.0157	2.471353044121301	# h1
   4	0.0157	2.649532787749369	# hc
   5	0.0047	0.5379246460131368	# ho
   6	0.17	3.249998523775958	# n3
   7	0.0157	1.069078461768407	# hn
   8	0.21	2.959921901149463	# o
   9	0.086	3.3996695084235347	# c
  10	0.015	2.5105525877194763	# h4

Bond Coeffs

   1	316.7	1.4233	# c3,oh
   2	330.6	1.0969	# c3,h1
   3	371.4	0.973	# ho,oh
   4	300.9	1.5375	# c3,c3
   5	330.6	1.0969	# c3,hc
   6	392.4	1.019	# hn,n3
   7	637.7	1.2183	# c,o
   8	325.9	1.4647	# c3,n3
   9	310.7	1.1121	# c,h4
  10	313.0	1.5241	# c,c3
  11	400.1	1.3513	# c,oh
  12	325.9	1.465	# n3,c

Angle Coeffs

   1	39.24	108.46	# h1,c3,h1
   2	62.86	111.51	# c3,c3,c3
   3	67.47	110.19	# c3,c3,oh
   4	46.34	109.8	# c3,c3,hc
   5	39.4	107.58	# hc,c3,hc
   6	50.93	110.26	# h1,c3,oh
   7	47.38	107.26	# c3,oh,ho
   8	46.39	109.56	# c3,c3,h1
   9	62.7	112.48	# c3,oh,c3
  10	51.11	109.5	# hc,c3,oh
  11	66.02	111.04	# c3,c3,n3
  12	45.64	114.64	# c3,c,h4
  13	41.4	106.4	# hn,n3,hn
  14	67.4	123.2	# c3,c,o
  15	47.42	109.29	# c3,n3,hn
  16	63.27	111.04	# c,c3,c3
  17	46.93	108.77	# c,c3,hc
  18	49.53	109.88	# h1,c3,n3
  19	54.22	120.7	# h4,c,o
  20	67.9	109.98	# c3,oh,c
  21	68.4	112.73	# c3,c,oh
  22	75.92	122.1	# o,c,oh
  23	63.82	112.35	# c3,n3,c3
  24	49.55	109.8	# hc,c3,n3
  25	63.8	112.35	# c3,n3,c
  26	47.4	109.29	# hn,n3,c
  27	66.0	111.04	# n3,c,c3
  28	70.9	110.7	# n3,c,o

Dihedral Coeffs

   1	1	0.15555555555555556	3	0	# X,c3,c3,X
   2	2	0.16	3	0	0.25	1	0	# ho,oh,c3,c3
   3	1	0.16	3	0	# hc,c3,c3,c3
   4	1	0.15	3	0	# hc,c3,c3,hc
   5	1	0.16666666666666666	3	0	# X,c3,oh,X
   6	2	0.0	3	0	0.25	1	0	# hc,c3,c3,oh
   7	1	0.3	3	0	# X,c3,n3,X
   8	3	0.18	3	0	0.25	2	180	0.2	1	180	# c3,c3,c3,c3
   9	1	0.0	2	180	# X,c,c3,X
  10	3	0.8	1	0	0.0	2	0	0.08	3	180	# hc,c3,c,o
  11	1	2.3	2	180	# X,c,oh,X
  12	2	0.3	3	0	0.48	2	180	# c3,c3,n3,c3

Improper Coeffs

   1	10.5	-1	2	# c,X,X,o

Atoms

   1	1	1	-0.26285	-65.0443	13.352	-0.995653
   2	1	2	0.431937	-65.5999	14.6328	-0.761068
   3	1	2	0.196566	-65.3584	15.5046	-1.99337
   4	1	3	-0.176879	-65.1183	15.0976	0.10638
   5	1	3	-0.045056	-66.6838	14.5761	-0.578885
   6	1	2	0.080387	-66.1492	16.8116	-1.88723
   7	1	4	0.032783	-65.7316	14.9635	-2.87026
   8	1	4	-0.126889	-64.2885	15.7027	-2.16331
   9	1	4	-0.081548	-65.6277	17.4612	-1.17809
  10	1	4	-0.048451	-67.1831	16.7005	-1.54039
  11	1	1	-0.26285	-62.6365	10.5274	1.56923
  12	1	2	0.431937	-63.5219	11.5619	1.04879
  13	1	2	0.196566	-64.6127	11.1472	0.0121197
  14	1	3	-0.176879	-62.9057	12.3281	0.56511
  15	1	3	-0.045056	-64.0023	12.082	1.88219
  16	1	2	0.080387	-65.5911	12.3085	-0.185719
  17	1	4	0.032783	-65.178	10.2763	0.359671
  18	1	4	-0.126889	-64.1549	10.8686	-0.949828
  19	1	4	-0.081548	-65.8655	12.7261	0.792629
  20	1	4	-0.048451	-66.5156	11.9744	-0.660623
  21	1	6	-0.353484	-57.183	2.23888	11.6108
  22	1	2	0.376337	-58.3197	2.36036	10.6459
  23	1	2	-0.897489	-57.9091	1.88421	9.22609
  24	1	3	0.034041	-58.6756	3.39804	10.6266
  25	1	3	0.012328	-59.148	1.72169	10.9788
  26	1	7	0.229239	-56.4911	2.955	11.4058
  27	1	2	0.531206	-57.1733	2.94866	8.34491
  28	1	4	0.202592	-58.8117	1.54364	8.70789
  29	1	4	0.099501	-57.2952	0.980005	9.34373
  30	1	2	0.171725	-58.0949	4.1271	7.8202
  31	1	4	-0.10542	-56.7659	2.41168	7.47217
  32	1	4	-0.137294	-56.3189	3.32078	8.92703
  33	1	2	-0.155467	-57.4561	5.29244	6.98292
  34	1	4	-0.053736	-58.6004	4.62544	8.66161
  35	1	4	0.001015	-58.9072	3.68142	7.23785
  36	1	2	0.033419	-58.5091	6.34232	6.40723
  37	1	4	0.005395	-56.9006	4.84165	6.14775
  38	1	4	0.019028	-56.6969	5.80995	7.58624
  39	1	2	0.058829	-59.7607	5.80617	5.64805
  40	1	4	-0.00779	-57.9629	7.02108	5.74064
  41	1	4	-0.029026	-58.8637	6.98202	7.22951
  42	1	2	-0.029357	-60.8073	6.91486	5.34378
  43	1	4	-0.003083	-60.2636	5.04173	6.25367
  44	1	4	-0.010137	-59.4307	5.31869	4.72045
  45	1	2	-0.000585	-61.9552	6.57865	4.36871
  46	1	4	0.006084	-60.2598	7.77237	4.94221
  47	1	4	0.012201	-61.2617	7.22241	6.29302
  48	1	2	-0.03118	-62.8649	7.79804	4.04601
  49	1	4	0.011412	-62.551	5.7671	4.78847
  50	1	4	0.011566	-61.5199	6.2117	3.43953
  51	1	2	-0.057912	-62.4185	8.44632	2.74085
  52	1	4	0.001922	-62.9124	8.52176	4.87194
  53	1	4	0.021794	-63.9045	7.46158	3.9036
  54	1	8	-0.501673	-64.3898	9.86193	2.79023
  55	1	9	0.462	-63.202	9.74378	2.52683
  56	1	4	0.029593	-62.5919	7.74931	1.90654
  57	1	4	0.042406	-61.3452	8.68449	2.76024
  58	1	1	-0.26285	-55.3801	4.01303	14.2723
  59	1	2	0.431937	-55.23	2.57141	14.3087
  60	1	2	0.196566	-56.6038	1.86369	14.2038
  61	1	3	-0.176879	-54.7923	2.30087	15.2716
  62	1	3	-0.045056	-54.5648	2.18565	13.5191
  63	1	2	0.080387	-57.5777	2.273	13.0545
  64	1	4	0.032783	-57.1358	2.08128	15.1392
  65	1	4	-0.126889	-56.5122	0.765414	14.2002
  66	1	4	-0.081548	-57.8967	3.30311	13.2467
  67	1	4	-0.048451	-58.476	1.63781	13.1565
  68	1	6	-0.353484	-55.2494	7.27116	4.30202
  69	1	2	0.376337	-53.8156	7.33838	4.61055
  70	1	2	-0.897489	-53.6457	7.53588	6.1491
  71	1	3	0.034041	-53.3015	8.1311	4.05796
  72	1	3	0.012328	-53.3701	6.37443	4.33333
  73	1	7	0.229239	-55.6947	8.09196	4.69442
  74	1	2	0.531206	-53.6792	9.02708	6.62922
  75	1	4	0.202592	-52.6625	7.12488	6.42476
  76	1	4	0.099501	-54.4002	6.96057	6.70409
  77	1	2	0.171725	-52.9502	9.30556	7.99738
  78	1	4	-0.10542	-54.7346	9.31091	6.6659
  79	1	4	-0.137294	-53.2611	9.67188	5.84662
  80	1	2	-0.155467	-52.995	10.7606	8.57814
  81	1	4	-0.053736	-51.9118	8.96203	7.94745
  82	1	4	0.001015	-53.4349	8.64587	8.70765
  83	1	2	0.033419	-52.3826	10.9451	10.0215
  84	1	4	0.005395	-54.0133	11.1815	8.54869
  85	1	4	0.019028	-52.4212	11.4023	7.8924
  86	1	2	0.058829	-53.228	10.2907	11.1701
  87	1	4	-0.00779	-52.2289	12.0098	10.2596
  88	1	4	-0.029026	-51.3799	10.5126	10.0522
  89	1	2	-0.029357	-52.8494	8.86107	11.5756
  90	1	4	-0.003083	-54.2765	10.2846	10.8547
  91	1	4	-0.010137	-53.1708	10.9103	12.0683
  92	1	2	-0.000585	-53.7998	8.35656	12.6717
  93	1	4	0.006084	-51.8264	8.85606	11.9904
  94	1	4	0.012201	-52.8512	8.18902	10.7155
  95	1	2	-0.03118	-53.701	6.84235	12.8257
  96	1	4	0.011412	-54.8375	8.67555	12.4877
  97	1	4	0.011566	-53.4474	8.81159	13.6059
  98	1	2	-0.057912	-54.4742	6.2506	14.0202
  99	1	4	0.001922	-52.638	6.60017	12.969
 100	1	4	0.021794	-54.0125	6.36246	11.8834
 101	1	8	-0.501673	-53.0954	4.37182	14.2971
 102	1	9	0.462	-54.2287	4.74716	14.1118
 103	1	4	0.029593	-55.5463	6.44116	13.9207
 104	1	4	0.042406	-54.1247	6.70622	14.9552
 105	1	6	-0.353484	-50.9847	-2.84508	6.53902
 106	1	2	0.376337	-51.2435	-3.32255	5.16421
 107	1	2	-0.897489	-50.8328	-2.29783	4.09499
 108	1	3	0.034041	-52.3102	-3.55389	5.07684
 109	1	3	0.012328	-50.7127	-4.26285	4.97679
 110	1	7	0.229239	-49.9876	-2.83811	6.75215
 111	1	2	0.531206	-51.725	-1.04106	4.13812
 112	1	4	0.202592	-50.9442	-2.77703	3.11014
 113	1	4	0.099501	-49.7969	-1.98908	4.25284
 114	1	2	0.171725	-51.3889	-0.00918038	3.07682
 115	1	4	-0.10542	-51.6112	-0.566117	5.11947
 116	1	4	-0.137294	-52.7778	-1.35874	4.05398
 117	1	2	-0.155467	-52.2769	1.24114	3.28281
 118	1	4	-0.053736	-51.534	-0.477472	2.09984
 119	1	4	0.001015	-50.3395	0.294935	3.13436
 120	1	2	0.033419	-52.4581	1.96871	1.90148
 121	1	4	0.005395	-51.866	1.9233	4.05105
 122	1	4	0.019028	-53.2607	0.946116	3.67141
 123	1	2	0.058829	-53.7585	2.74053	1.82101
 124	1	4	-0.00779	-52.4885	1.20903	1.10778
 125	1	4	-0.029026	-51.6176	2.65325	1.74453
 126	1	2	-0.029357	-53.9421	3.70716	0.603021
 127	1	4	-0.003083	-53.6545	3.32476	2.74876
 128	1	4	-0.010137	-54.631	2.07851	1.90602
 129	1	2	-0.000585	-54.3589	5.09695	1.13904
 130	1	4	0.006084	-54.7075	3.29894	-0.0622508
 131	1	4	0.012201	-52.9904	3.77649	0.0623772
 132	1	2	-0.03118	-55.5989	4.93973	2.1169
 133	1	4	0.011412	-54.5724	5.72191	0.259823
 134	1	4	0.011566	-53.5183	5.55881	1.66264
 135	1	2	-0.057912	-56.4136	6.22994	2.38506
 136	1	4	0.001922	-55.2737	4.57036	3.09825
 137	1	4	0.021794	-56.281	4.19197	1.69045
 138	1	8	-0.501673	-55.5435	8.46942	2.53816
 139	1	9	0.462	-55.4844	7.3178	2.88142
 140	1	4	0.029593	-57.1193	5.99104	3.19247
 141	1	4	0.042406	-57.001	6.5311	1.50017
 142	1	6	-0.353484	-48.5629	1.48922	18.319
 143	1	2	0.376337	-49.5943	2.13473	17.4801
 144	1	2	-0.897489	-50.7332	1.18341	17.092
 145	1	3	0.034041	-49.1281	2.53557	16.573
 146	1	3	0.012328	-50.0764	2.95757	18.0309
 147	1	7	0.229239	-48.1419	0.76153	17.738
 148	1	2	0.531206	-51.2144	1.19288	15.6243
 149	1	4	0.202592	-51.5873	1.34268	17.7649
 150	1	4	0.099501	-50.4018	0.151721	17.2692
 151	1	2	0.171725	-52.4774	0.301079	15.3027
 152	1	4	-0.10542	-50.3673	0.793939	15.0661
 153	1	4	-0.137294	-51.3165	2.20906	15.235
 154	1	2	-0.155467	-52.1472	-0.723309	14.1929
 155	1	4	-0.053736	-53.3526	0.910121	15.0622
 156	1	4	0.001015	-52.7527	-0.252767	16.2177
 157	1	2	0.033419	-53.3862	-1.48913	13.6276
 158	1	4	0.005395	-51.4576	-1.47747	14.603
 159	1	4	0.019028	-51.6457	-0.205408	13.3664
 160	1	2	0.058829	-53.4139	-1.67741	12.0949
 161	1	4	-0.00779	-54.2874	-0.915099	13.8272
 162	1	4	-0.029026	-53.5177	-2.48664	14.0794
 163	1	2	-0.029357	-52.2625	-2.595	11.6128
 164	1	4	-0.003083	-53.3358	-0.729503	11.5505
 165	1	4	-0.010137	-54.3922	-2.09416	11.8415
 166	1	2	-0.000585	-52.7931	-3.76528	10.7511
 167	1	4	0.006084	-51.728	-3.03871	12.4532
 168	1	4	0.012201	-51.4792	-2.01794	11.0923
 169	1	2	-0.03118	-53.5918	-3.5117	9.37903
 170	1	4	0.011412	-53.423	-4.39385	11.382
 171	1	4	0.011566	-51.9458	-4.40784	10.4998
 172	1	2	-0.057912	-52.7535	-2.81269	8.23424
 173	1	4	0.001922	-54.4948	-2.92437	9.60462
 174	1	4	0.021794	-53.9868	-4.45432	8.98364
 175	1	8	-0.501673	-50.7267	-4.26973	8.18078
 176	1	9	0.462	-51.6283	-3.71893	7.55275
 177	1	4	0.029593	-52.3142	-1.8619	8.60355
 178	1	4	0.042406	-53.4509	-2.55208	7.43214
 179	1	1	-0.26285	-44.7074	1.4671	17.8187
 180	1	2	0.431937	-45.4587	1.02485	18.9437
 181	1	2	0.196566	-46.3181	2.21086	19.4599
 182	1	3	-0.176879	-44.7322	0.787114	19.7232
 183	1	3	-0.045056	-46.0554	0.100466	18.7815
 184	1	2	0.080387	-47.5416	2.5448	18.5743
 185	1	4	0.032783	-45.7565	3.15025	19.5361
 186	1	4	-0.126889	-46.6291	1.99903	20.4907
 187	1	4	-0.081548	-47.2097	2.98671	17.6221
 188	1	4	-0.048451	-48.0451	3.3103	19.1669
 189	1	6	-0.353484	-45.7748	1.48328	3.90792
 190	1	2	0.376337	-46.6838	0.590016	4.62297
 191	1	2	-0.897489	-46.5856	0.980109	6.12274
 192	1	3	0.034041	-46.407	-0.462507	4.49081
 193	1	3	0.012328	-47.7129	0.733544	4.26904
 194	1	7	0.229239	-44.8836	1.48352	4.40064
 195	1	2	0.531206	-47.5456	0.123127	6.98823
 196	1	4	0.202592	-46.8023	2.05204	6.26077
 197	1	4	0.099501	-45.5438	0.835653	6.44938
 198	1	2	0.171725	-47.8541	0.552247	8.46556
 199	1	4	-0.10542	-47.2113	-0.926101	6.95642
 200	1	4	-0.137294	-48.4948	0.109524	6.43614
 201	1	2	-0.155467	-46.7554	1.22443	9.33717
 202	1	4	-0.053736	-48.2876	-0.318999	8.97676
 203	1	4	0.001015	-48.6613	1.29321	8.39503
 204	1	2	0.033419	-47.1552	1.0786	10.8346
 205	1	4	0.005395	-46.723	2.29749	9.11531
 206	1	4	0.019028	-45.7679	0.787916	9.1512
 207	1	2	0.058829	-46.2528	1.80748	11.8211
 208	1	4	-0.00779	-47.1304	0.0276055	11.1312
 209	1	4	-0.029026	-48.1843	1.43292	10.9846
 210	1	2	-0.029357	-46.8075	1.78014	13.2611
 211	1	4	-0.003083	-46.1702	2.84543	11.4921
 212	1	4	-0.010137	-45.238	1.38908	11.7621
 213	1	2	-0.000585	-46.2525	2.95907	14.1213
 214	1	4	0.006084	-46.5436	0.80984	13.6936
 215	1	4	0.012201	-47.9055	1.80244	13.2567
 216	1	2	-0.03118	-44.7865	2.81105	14.6948
 217	1	4	0.011412	-46.9447	3.10984	14.9621
 218	1	4	0.011566	-46.3446	3.91136	13.5626
 219	1	2	-0.057912	-44.4483	1.44866	15.4005
 220	1	4	0.001922	-44.5337	3.66621	15.3585
 221	1	4	0.021794	-44.1029	2.84316	13.8302
 222	1	8	-0.501673	-46.2734	0.472776	16.5576
 223	1	9	0.462	-45.2429	1.09876	16.6446
 224	1	4	0.029593	-43.3909	1.4017	15.674
 225	1	4	0.042406	-44.5858	0.636951	14.6743
 226	1	1	-0.26285	-44.2535	2.35297	-0.845588
 227	1	2	0.431937	-44.918	1.56782	0.141024
 228	1	2	0.196566	-44.8467	2.09796	1.58063
 229	1	3	-0.176879	-44.5347	0.545303	0.0804979
 230	1	3	-0.045056	-45.9929	1.51047	-0.107836
 231	1	2	0.080387	-45.5493	1.0935	2.50559
 232	1	4	0.032783	-45.3971	3.04917	1.64296
 233	1	4	-0.126889	-43.8212	2.28539	1.9189
 234	1	4	-0.081548	-44.9799	0.158657	2.51166
 235	1	4	-0.048451	-46.5313	0.842781	2.08069
 236	1	6	-0.353484	-34.241	9.14977	-10.8171
 237	1	2	0.376337	-35.2929	8.12738	-10.6195
 238	1	2	-0.897489	-35.8766	8.3156	-9.18749
 239	1	3	0.034041	-34.8579	7.12951	-10.7207
 240	1	3	0.012328	-36.0666	8.23443	-11.3846
 241	1	7	0.229239	-34.5512	10.0486	-10.4512
 242	1	2	0.531206	-36.9663	7.2485	-8.95788
 243	1	4	0.202592	-36.3129	9.31878	-9.11254
 244	1	4	0.099501	-35.0994	8.18819	-8.43526
 245	1	2	0.171725	-37.865	7.46776	-7.6916
 246	1	4	-0.10542	-36.4905	6.25741	-8.86347
 247	1	4	-0.137294	-37.5964	7.21752	-9.86457
 248	1	2	-0.155467	-39.0196	6.41127	-7.60807
 249	1	4	-0.053736	-38.276	8.46813	-7.73826
 250	1	4	0.001015	-37.2196	7.42634	-6.80817
 251	1	2	0.033419	-39.3367	5.85782	-6.20273
 252	1	4	0.005395	-38.7568	5.57422	-8.28333
 253	1	4	0.019028	-39.9277	6.84639	-8.06666
 254	1	2	0.058829	-40.5708	4.90743	-6.25997
 255	1	4	-0.00779	-39.5908	6.67248	-5.52224
 256	1	4	-0.029026	-38.5019	5.32167	-5.75115
 257	1	2	-0.029357	-41.0396	4.44807	-4.84835
 258	1	4	-0.003083	-40.2866	4.02464	-6.83209
 259	1	4	-0.010137	-41.4173	5.38885	-6.78182
 260	1	2	-0.000585	-42.5219	3.94366	-4.66996
 261	1	4	0.006084	-40.8609	5.27911	-4.16111
 262	1	4	0.012201	-40.3473	3.63341	-4.57466
 263	1	2	-0.03118	-42.7247	2.97892	-3.43419
 264	1	4	0.011412	-42.8522	3.46561	-5.59708
 265	1	4	0.011566	-43.1413	4.83333	-4.49897
 266	1	2	-0.057912	-44.2547	2.83682	-3.20103
 267	1	4	0.001922	-42.239	3.40527	-2.53912
 268	1	4	0.021794	-42.2397	2.00548	-3.62177
 269	1	8	-0.501673	-45.2479	0.891513	-2.36217
 270	1	9	0.462	-44.5787	1.87235	-2.09356
 271	1	4	0.029593	-44.7354	2.53247	-4.14021
 272	1	4	0.042406	-44.676	3.82243	-2.96658
 273	1	1	-0.26285	-30.2066	10.2868	-13.3933
 274	1	2	0.431937	-31.6078	10.5	-13.1479
 275	1	2	0.196566	-32.0586	9.51488	-12.0797
 276	1	3	-0.176879	-32.1519	10.2927	-14.076
 277	1	3	-0.045056	-31.796	11.5249	-12.8308
 278	1	2	0.080387	-33.6005	9.29185	-12.1506
 279	1	4	0.032783	-31.8277	9.94754	-11.0893
 280	1	4	-0.126889	-31.5209	8.53901	-12.1663
 281	1	4	-0.081548	-33.8386	8.41827	-12.7859
 282	1	4	-0.048451	-34.0864	10.1608	-12.633
 283	1	1	-0.26285	-25.8537	11.9752	-14.8685
 284	1	2	0.431937	-27.2511	11.9479	-15.2451
 285	1	2	0.196566	-27.992	10.9915	-14.3133
 286	1	3	-0.176879	-27.332	11.6366	-16.2879
 287	1	3	-0.045056	-27.6816	12.9454	-15.1354
 288	1	2	0.080387	-29.537	11.1868	-14.2721
 289	1	4	0.032783	-27.5811	11.0736	-13.282
 290	1	4	-0.126889	-27.7871	9.98271	-14.679
 291	1	4	-0.081548	-29.9474	11.0305	-15.2789
 292	1	4	-0.048451	-29.7872	12.2238	-13.9646
 293	1	1	-0.26285	-21.3961	12.4473	-16.298
 294	1	2	0.431937	-22.6318	13.1618	-16.2887
 295	1	2	0.196566	-23.6149	12.4549	-15.3185
 296	1	3	-0.176879	-23.0891	13.2181	-17.2826
 297	1	3	-0.045056	-22.5345	14.1974	-15.9009
 298	1	2	0.080387	-25.0477	12.7537	-15.7256
 299	1	4	0.032783	-23.4386	12.8148	-14.2783
 300	1	4	-0.126889	-23.5042	11.3678	-15.3605
 301	1	4	-0.081548	-25.2149	12.4505	-16.7928
 302	1	4	-0.048451	-25.324	13.8224	-15.6285
 303	1	6	-0.353484	-5.57737	9.22538	-14.6477
 304	1	2	0.376337	-7.00133	8.94519	-14.9166
 305	1	2	-0.897489	-7.94524	9.99577	-14.348
 306	1	3	0.034041	-7.25911	7.91585	-14.584
 307	1	3	0.012328	-7.14767	8.99085	-15.9951
 308	1	7	0.229239	-5.33775	8.97597	-13.6926
 309	1	2	0.531206	-9.36407	9.69618	-14.9144
 310	1	4	0.202592	-7.59252	10.9888	-14.6499
 311	1	4	0.099501	-7.98296	9.9902	-13.2414
 312	1	2	0.171725	-10.4804	10.6554	-14.4095
 313	1	4	-0.10542	-9.66499	8.67632	-14.6958
 314	1	4	-0.137294	-9.29949	9.79352	-16.0058
 315	1	2	-0.155467	-11.7935	10.3292	-15.2032
 316	1	4	-0.053736	-10.1805	11.7072	-14.5914
 317	1	4	0.001015	-10.6216	10.5719	-13.325
 318	1	2	0.033419	-12.8265	11.4913	-15.1982
 319	1	4	0.005395	-12.2417	9.41253	-14.7902
 320	1	4	0.019028	-11.5467	10.0699	-16.2412
 321	1	2	0.058829	-14.1724	11.1074	-15.9002
 322	1	4	-0.00779	-12.4418	12.3549	-15.7561
 323	1	4	-0.029026	-13.0671	11.8088	-14.1674
 324	1	2	-0.029357	-15.1671	12.3041	-15.8477
 325	1	4	-0.003083	-14.5687	10.2221	-15.3867
 326	1	4	-0.010137	-13.9982	10.7981	-16.9321
 327	1	2	-0.000585	-16.6008	11.797	-16.133
 328	1	4	0.006084	-14.8356	13.0543	-16.5866
 329	1	4	0.012201	-15.1227	12.7866	-14.8525
 330	1	2	-0.03118	-17.656	12.9134	-16.239
 331	1	4	0.011412	-16.8968	11.0698	-15.3568
 332	1	4	0.011566	-16.5705	11.2344	-17.0887
 333	1	2	-0.057912	-19.0546	12.3333	-16.5257
 334	1	4	0.001922	-17.3453	13.6091	-17.0394
 335	1	4	0.021794	-17.6381	13.4651	-15.2919
 336	1	8	-0.501673	-20.2126	14.2318	-15.563
 337	1	9	0.462	-20.2769	13.2079	-16.243
 338	1	4	0.029593	-19.1335	11.4092	-15.9653
 339	1	4	0.042406	-19.0877	12.0517	-17.5724
 340	1	6	-0.353484	6.70386	8.35966	-6.82286
 341	1	2	0.376337	6.11173	8.67647	-8.13354
 342	1	2	-0.897489	4.56361	8.64499	-7.95806
 343	1	3	0.034041	6.41867	7.90656	-8.87313
 344	1	3	0.012328	6.4302	9.67853	-8.47642
 345	1	7	0.229239	6.23027	7.53358	-6.48057
 346	1	2	0.531206	3.71278	8.95732	-9.21422
 347	1	4	0.202592	4.27042	9.3701	-7.19183
 348	1	4	0.099501	4.29613	7.6526	-7.58587
 349	1	2	0.171725	2.31678	8.23957	-9.20522
 350	1	4	-0.10542	4.27434	8.7558	-10.1537
 351	1	4	-0.137294	3.60133	10.0544	-9.22513
 352	1	2	-0.155467	1.30846	8.79874	-10.2117
 353	1	4	-0.053736	1.88694	8.28811	-8.19399
 354	1	4	0.001015	2.45425	7.17619	-9.40038
 355	1	2	0.033419	-0.105825	8.13059	-10.3095
 356	1	4	0.005395	1.8089	8.73373	-11.1897
 357	1	4	0.019028	1.20307	9.87325	-10.0329
 358	1	2	0.058829	-0.641491	7.85164	-11.7372
 359	1	4	-0.00779	-0.826105	8.77012	-9.77562
 360	1	4	-0.029026	-0.0845896	7.15868	-9.78285
 361	1	2	-0.029357	-1.22711	9.06518	-12.4687
 362	1	4	-0.003083	-1.41302	7.07322	-11.6266
 363	1	4	-0.010137	0.141247	7.40944	-12.3603
 364	1	2	-0.000585	-1.9995	8.65391	-13.7513
 365	1	4	0.006084	-0.435438	9.80535	-12.7001
 366	1	4	0.012201	-1.93971	9.56981	-11.8165
 367	1	2	-0.03118	-2.70338	9.84582	-14.438
 368	1	4	0.011412	-2.724	7.87383	-13.503
 369	1	4	0.011566	-1.28245	8.18657	-14.4374
 370	1	2	-0.057912	-3.41118	9.40676	-15.76
 371	1	4	0.001922	-1.96942	10.608	-14.6989
 372	1	4	0.021794	-3.41738	10.3321	-13.7305
 373	1	8	-0.501673	-4.52757	7.35714	-15.1126
 374	1	9	0.462	-4.61915	8.51661	-15.5011
 375	1	4	0.029593	-2.73229	8.89011	-16.4605
 376	1	4	0.042406	-3.74881	10.3038	-16.3046
 377	1	6	-0.353484	21.7244	13.969	-5.19796
 378	1	2	0.376337	20.4071	14.1226	-5.76648
 379	1	2	-0.897489	19.8075	12.75	-5.89449
 380	1	3	0.034041	20.462	14.5901	-6.76446
 381	1	3	0.012328	19.7551	14.7237	-5.12031
 382	1	7	0.229239	21.677	13.3437	-4.38669
 383	1	2	0.531206	18.4408	12.9088	-6.546
 384	1	4	0.202592	19.7328	12.2843	-4.91611
 385	1	4	0.099501	20.4065	12.1652	-6.54288
 386	1	2	0.171725	17.5929	11.6007	-6.46738
 387	1	4	-0.10542	18.5849	13.2269	-7.58698
 388	1	4	-0.137294	17.9397	13.718	-6.01281
 389	1	2	-0.155467	16.1326	12.0286	-6.67433
 390	1	4	-0.053736	17.6948	11.1401	-5.46829
 391	1	4	0.001015	17.914	10.8541	-7.23431
 392	1	2	0.033419	15.1306	10.9987	-6.14134
 393	1	4	0.005395	15.9815	12.2416	-7.74137
 394	1	4	0.019028	15.9211	12.9515	-6.1285
 395	1	2	0.058829	13.7609	11.0626	-6.83543
 396	1	4	-0.00779	14.988	11.135	-5.0572
 397	1	4	-0.029026	15.5229	9.9862	-6.25966
 398	1	2	-0.029357	12.758	10.0233	-6.30253
 399	1	4	-0.003083	13.8925	10.9039	-7.92232
 400	1	4	-0.010137	13.2919	12.0475	-6.73605
 401	1	2	-0.000585	11.404	10.1841	-7.06435
 402	1	4	0.006084	12.6082	10.1712	-5.22889
 403	1	4	0.012201	13.1533	9.0035	-6.44333
 404	1	2	-0.03118	10.3649	9.10561	-6.6561
 405	1	4	0.011412	11.5569	10.0865	-8.15884
 406	1	4	0.011566	11.0002	11.1968	-6.87634
 407	1	2	-0.057912	9.11457	9.00151	-7.57039
 408	1	4	0.001922	10.0635	9.30889	-5.62441
 409	1	4	0.021794	10.8952	8.16924	-6.66639
 410	1	8	-0.501673	8.14093	6.79597	-7.01903
 411	1	9	0.462	8.11039	7.99937	-6.94865
 412	1	4	0.029593	9.37504	8.65511	-8.59132
 413	1	4	0.042406	8.63537	9.97387	-7.66806
 414	1	1	-0.26285	25.8053	16.6129	-4.30244
 415	1	2	0.431937	24.3861	16.6002	-4.32528
 416	1	2	0.196566	23.8067	15.1871	-4.6442
 417	1	3	-0.176879	24.0849	17.2351	-5.15788
 418	1	3	-0.045056	23.9297	17.0121	-3.39824
 419	1	2	0.080387	22.2654	15.2749	-4.78863
 420	1	4	0.032783	24.0111	14.5099	-3.79874
 421	1	4	-0.126889	24.2502	14.8104	-5.564
 422	1	4	-0.081548	22.0774	15.9928	-5.59253
 423	1	4	-0.048451	21.854	15.6364	-3.87187
 424	1	6	-0.353484	31.0749	11.9759	-15.1476
 425	1	2	0.376337	31.7891	12.0831	-13.8706
 426	1	2	-0.897489	30.709	12.213	-12.8101
 427	1	3	0.034041	32.4306	12.977	-13.8779
 428	1	3	0.012328	32.3988	11.1961	-13.6656
 429	1	7	0.229239	30.3263	12.6542	-15.0631
 430	1	2	0.531206	31.2468	12.3611	-11.3553
 431	1	4	0.202592	30.0524	11.3365	-12.8586
 432	1	4	0.099501	30.1212	13.114	-13.0009
 433	1	2	0.171725	30.1776	12.7475	-10.3093
 434	1	4	-0.10542	32.0096	13.1533	-11.3679
 435	1	4	-0.137294	31.7364	11.4461	-11.0091
 436	1	2	-0.155467	30.7937	13.0456	-8.91897
 437	1	4	-0.053736	29.412	11.9589	-10.2331
 438	1	4	0.001015	29.6686	13.6624	-10.6372
 439	1	2	0.033419	29.6826	13.5472	-7.93207
 440	1	4	0.005395	31.6053	13.7831	-9.04227
 441	1	4	0.019028	31.2418	12.1124	-8.56126
 442	1	2	0.058829	30.2343	14.1614	-6.61086
 443	1	4	-0.00779	28.9883	12.7253	-7.71142
 444	1	4	-0.029026	29.0692	14.297	-8.45444
 445	1	2	-0.029357	29.1957	15.0578	-5.87679
 446	1	4	-0.003083	31.102	14.7819	-6.83975
 447	1	4	-0.010137	30.5984	13.3502	-5.98058
 448	1	2	-0.000585	29.8232	16.009	-4.82924
 449	1	4	0.006084	28.4325	14.3864	-5.44732
 450	1	4	0.012201	28.6606	15.6957	-6.59078
 451	1	2	-0.03118	28.7538	16.8639	-4.08333
 452	1	4	0.011412	30.5273	16.6921	-5.33172
 453	1	4	0.011566	30.3454	15.3789	-4.09532
 454	1	2	-0.057912	27.8413	15.9406	-3.23746
 455	1	4	0.001922	28.1886	17.4474	-4.82163
 456	1	4	0.021794	29.2402	17.5673	-3.39349
 457	1	8	-0.501673	25.7505	15.987	-2.09612
 458	1	9	0.462	26.373	16.3269	-3.09708
 459	1	4	0.029593	28.2591	15.9082	-2.22001
 460	1	4	0.042406	27.8461	14.8944	-3.57005
 461	1	1	-0.26285	30.0567	10.0089	-18.4778
 462	1	2	0.431937	31.2397	10.7104	-18.1411
 463	1	2	0.196566	31.062	12.1577	-17.6648
 464	1	3	-0.176879	32.0149	10.6027	-18.9147
 465	1	3	-0.045056	31.634	10.158	-17.2774
 466	1	2	0.080387	31.8731	12.3281	-16.3505
 467	1	4	0.032783	30.0071	12.3594	-17.4675
 468	1	4	-0.126889	31.4508	12.8928	-18.3999
 469	1	4	-0.081548	32.2396	13.3381	-16.2641
 470	1	4	-0.048451	32.7837	11.7228	-16.381
 471	1	6	-0.353484	34.2715	-1.06713	-24.828
 472	1	2	0.376337	33.7421	0.106441	-24.1858
 473	1	2	-0.897489	32.9159	0.88024	-25.2435
 474	1	3	0.034041	34.5631	0.738367	-23.849
 475	1	3	0.012328	33.1279	-0.189514	-23.3328
 476	1	7	0.229239	34.8217	-0.722447	-25.6148
 477	1	2	0.531206	32.433	2.26095	-24.7204
 478	1	4	0.202592	32.0446	0.291169	-25.5523
 479	1	4	0.099501	33.5051	1.06126	-26.1445
 480	1	2	0.171725	31.5525	2.20549	-23.4137
 481	1	4	-0.10542	31.8849	2.69031	-25.5535
 482	1	4	-0.137294	33.3202	2.87221	-24.5503
 483	1	2	-0.155467	30.8849	3.53722	-22.9909
 484	1	4	-0.053736	32.1527	1.81172	-22.5751
 485	1	4	0.001015	30.734	1.50133	-23.6182
 486	1	2	0.033419	31.9194	4.52027	-22.4047
 487	1	4	0.005395	30.115	3.35636	-22.235
 488	1	4	0.019028	30.3795	3.99479	-23.8565
 489	1	2	0.058829	31.4947	5.98943	-22.2778
 490	1	4	-0.00779	32.821	4.51116	-23.0093
 491	1	4	-0.029026	32.1839	4.14487	-21.4217
 492	1	2	-0.029357	30.2567	6.1478	-21.3788
 493	1	4	-0.003083	31.2167	6.35283	-23.2785
 494	1	4	-0.010137	32.3395	6.59279	-21.9245
 495	1	2	-0.000585	29.9357	7.63472	-21.1916
 496	1	4	0.006084	30.4328	5.66755	-20.4109
 497	1	4	0.012201	29.4048	5.68152	-21.874
 498	1	2	-0.03118	28.7785	7.93934	-20.2269
 499	1	4	0.011412	29.6764	8.05108	-22.1625
 500	1	4	0.011566	30.8484	8.1598	-20.8837
 501	1	2	-0.057912	28.4478	9.44717	-20.2023
 502	1	4	0.001922	29.0101	7.54873	-19.2292
 503	1	4	0.021794	27.8745	7.41813	-20.5372
 504	1	8	-0.501673	29.7854	11.3732	-20.2468
 505	1	9	0.462	29.5305	10.3473	-19.6637
 506	1	4	0.029593	27.5305	9.6683	-19.6382
 507	1	4	0.042406	28.2216	9.76651	-21.2269
 508	1	1	-0.26285	37.0635	-4.86119	-24.7077
 509	1	2	0.431937	36.4682	-3.93696	-23.828
 510	1	2	0.196566	35.9117	-2.87074	-24.7793
 511	1	3	-0.176879	37.2139	-3.50153	-23.1313
 512	1	3	-0.045056	35.6714	-4.3805	-23.2025
 513	1	2	0.080387	35.1674	-1.82634	-23.9791
 514	1	4	0.032783	35.1733	-3.33554	-25.4489
 515	1	4	-0.126889	36.7047	-2.39318	-25.3915
 516	1	4	-0.081548	35.8948	-1.16155	-23.5514
 517	1	4	-0.048451	34.6354	-2.30795	-23.1416
 518	1	1	-0.26285	41.1646	-6.52225	-23.9775
 519	1	2	0.431937	39.852	-5.928	-23.7973
 520	1	2	0.196566	38.7144	-6.73328	-24.5317
 521	1	3	-0.176879	39.8952	-4.90577	-24.1729
 522	1	3	-0.045056	39.5568	-5.862	-22.7453
 523	1	2	0.080387	37.2929	-6.19404	-24.2398
 524	1	4	0.032783	38.7368	-7.77093	-24.186
 525	1	4	-0.126889	38.8919	-6.76755	-25.621
 526	1	4	-0.081548	37.1936	-6.20178	-23.1468
 527	1	4	-0.048451	36.518	-6.84734	-24.6335
 528	1	6	-0.353484	42.4369	-2.31007	-15.5116
 529	1	2	0.376337	42.7954	-3.60906	-14.9585
 530	1	2	-0.897489	42.935	-4.42665	-16.2376
 531	1	3	0.034041	41.988	-4.04524	-14.3293
 532	1	3	0.012328	43.7508	-3.55835	-14.44
 533	1	7	0.229239	43.326	-1.86182	-15.7356
 534	1	2	0.531206	43.025	-5.89463	-15.9905
 535	1	4	0.202592	43.7407	-4.07802	-16.8691
 536	1	4	0.099501	41.9934	-4.31081	-16.8003
 537	1	2	0.171725	42.7927	-6.66016	-17.3158
 538	1	4	-0.10542	42.2309	-6.19151	-15.2832
 539	1	4	-0.137294	43.9625	-6.15083	-15.5339
 540	1	2	-0.155467	43.392	-8.09058	-17.2508
 541	1	4	-0.053736	43.2856	-6.12667	-18.1336
 542	1	4	0.001015	41.7182	-6.68309	-17.5386
 543	1	2	0.033419	42.9351	-8.9689	-18.4502
 544	1	4	0.005395	43.1095	-8.61674	-16.3284
 545	1	4	0.019028	44.4833	-8.0032	-17.2387
 546	1	2	0.058829	44.056	-9.80579	-19.1444
 547	1	4	-0.00779	42.4486	-8.31229	-19.1912
 548	1	4	-0.029026	42.1328	-9.64916	-18.1049
 549	1	2	-0.029357	43.5899	-10.7199	-20.298
 550	1	4	-0.003083	44.5354	-10.4535	-18.3893
 551	1	4	-0.010137	44.8519	-9.1353	-19.5083
 552	1	2	-0.000585	42.7566	-9.97098	-21.3763
 553	1	4	0.006084	42.9801	-11.5026	-19.8513
 554	1	4	0.012201	44.4409	-11.2029	-20.7685
 555	1	2	-0.03118	43.5098	-8.75558	-21.9651
 556	1	4	0.011412	41.7813	-9.70751	-20.9545
 557	1	4	0.011566	42.5704	-10.63	-22.2277
 558	1	2	-0.057912	42.9071	-8.04011	-23.1995
 559	1	4	0.001922	44.4937	-9.09122	-22.3073
 560	1	4	0.021794	43.7151	-8.03425	-21.1622
 561	1	8	-0.501673	40.6541	-7.94765	-22.3
 562	1	9	0.462	41.4335	-7.57512	-23.1498
 563	1	4	0.029593	42.9499	-8.7372	-24.0633
 564	1	4	0.042406	43.5447	-7.14834	-23.4423
 565	1	6	-0.353484	38.9306	2.31905	-22.1248
 566	1	2	0.376337	39.2542	3.59924	-22.6669
 567	1	2	-0.897489	40.4773	4.14542	-21.9867
 568	1	3	0.034041	38.4194	4.3135	-22.5555
 569	1	3	0.012328	39.4282	3.46203	-23.7401
 570	1	7	0.229239	39.338	2.18539	-21.1931
 571	1	2	0.531206	40.1417	5.3446	-21.0558
 572	1	4	0.202592	41.185	4.5036	-22.7677
 573	1	4	0.099501	41.0062	3.37031	-21.4228
 574	1	2	0.171725	41.3351	6.05484	-20.2726
 575	1	4	-0.10542	39.383	5.01037	-20.3278
 576	1	4	-0.137294	39.6126	6.09102	-21.6502
 577	1	2	-0.155467	42.0354	5.20468	-19.1351
 578	1	4	-0.053736	40.909	6.9231	-19.7723
 579	1	4	0.001015	42.0721	6.43572	-20.9615
 580	1	2	0.033419	41.0956	4.69427	-17.9696
 581	1	4	0.005395	42.9083	5.74362	-18.7617
 582	1	4	0.019028	42.4235	4.2918	-19.6082
 583	1	2	0.058829	41.7381	3.46905	-17.287
 584	1	4	-0.00779	40.1361	4.37177	-18.4046
 585	1	4	-0.029026	40.8516	5.50392	-17.2526
 586	1	2	-0.029357	40.8071	2.74091	-16.2929
 587	1	4	-0.003083	42.6835	3.70265	-16.8106
 588	1	4	-0.010137	42.0307	2.78064	-18.0813
 589	1	2	-0.000585	41.3585	1.44911	-15.6637
 590	1	4	0.006084	39.8302	2.49108	-16.7477
 591	1	4	0.012201	40.5037	3.44201	-15.5023
 592	1	2	-0.03118	40.3792	0.70076	-14.7426
 593	1	4	0.011412	42.2696	1.69335	-15.114
 594	1	4	0.011566	41.6292	0.779751	-16.5035
 595	1	2	-0.057912	40.5385	-0.843981	-14.8758
 596	1	4	0.001922	39.3669	0.9194	-15.0985
 597	1	4	0.021794	40.4488	1.09001	-13.6985
 598	1	8	-0.501673	42.8012	-0.842236	-14.0029
 599	1	9	0.462	41.8812	-1.48119	-14.464
 600	1	4	0.029593	40.3027	-1.06552	-15.9318
 601	1	4	0.042406	39.7426	-1.29226	-14.29
 602	1	1	-0.26285	38.1065	-1.09573	-20.0515
 603	1	2	0.431937	37.647	0.189529	-20.3232
 604	1	2	0.196566	37.3824	0.458075	-21.8223
 605	1	3	-0.176879	38.4243	0.912822	-19.9539
 606	1	3	-0.045056	36.7524	0.473424	-19.7991
 607	1	2	0.080387	37.5183	1.94949	-22.1808
 608	1	4	0.032783	36.3326	0.193809	-22.0067
 609	1	4	-0.126889	38.0357	-0.106142	-22.5118
 610	1	4	-0.081548	36.9674	2.5673	-21.447
 611	1	4	-0.048451	37.1621	2.12685	-23.219
 612	1	6	-0.353484	39.7872	-15.1251	-18.731
 613	1	2	0.376337	38.3748	-14.8425	-18.749
 614	1	2	-0.897489	38.1255	-13.3491	-18.7461
 615	1	3	0.034041	37.9084	-15.2676	-17.8525
 616	1	3	0.012328	37.8999	-15.2618	-19.65
 617	1	7	0.229239	40.2331	-14.6218	-19.4818
 618	1	2	0.531206	38.4913	-12.5532	-19.9934
 619	1	4	0.202592	38.6664	-12.9411	-17.89
 620	1	4	0.099501	37.0626	-13.1866	-18.5367
 621	1	2	0.171725	38.1634	-11.0215	-19.8853
 622	1	4	-0.10542	37.9333	-12.9831	-20.8106
 623	1	4	-0.137294	39.5655	-12.6577	-20.1819
 624	1	2	-0.155467	38.2302	-10.2767	-18.4875
 625	1	4	-0.053736	37.1321	-10.8901	-20.2202
 626	1	4	0.001015	38.8193	-10.4655	-20.5792
 627	1	2	0.033419	37.8264	-8.76528	-18.4234
 628	1	4	0.005395	39.2456	-10.4099	-18.0775
 629	1	4	0.019028	37.5423	-10.8105	-17.802
 630	1	2	0.058829	38.7289	-7.79462	-19.174
 631	1	4	-0.00779	37.8259	-8.41319	-17.3907
 632	1	4	-0.029026	36.8281	-8.60288	-18.8069
 633	1	2	-0.029357	38.2533	-6.31188	-18.9777
 634	1	4	-0.003083	38.7112	-8.06699	-20.2476