pySIMM System Object

510 atoms
509 bonds
973 angles
1380 dihedrals
0 impropers

10 atom types
12 bond types
26 angle types
12 dihedral types
1 improper types

-99.439948 99.439948 xlo xhi
-99.439948 99.439948 ylo yhi
-99.439948 99.439948 zlo zhi

Masses

   1	14.01	# n3
   2	12.01	# c3
   3	1.008	# h1
   4	1.008	# hn
   5	1.008	# hc
   6	16.0	# o
   7	12.01	# c
   8	1.008	# h4
   9	16.0	# oh
  10	1.008	# ho

Pair Coeffs

   1	0.17	3.249998523775958	# n3
   2	0.1094	3.3996695084235347	# c3
   3	0.0157	2.471353044121301	# h1
   4	0.0157	1.069078461768407	# hn
   5	0.0157	2.649532787749369	# hc
   6	0.21	2.959921901149463	# o
   7	0.086	3.3996695084235347	# c
   8	0.015	2.5105525877194763	# h4
   9	0.2104	3.0664733878390478	# oh
  10	0.0047	0.5379246460131368	# ho

Bond Coeffs

   1	300.9	1.5375	# c3,c3
   2	392.4	1.019	# hn,n3
   3	330.6	1.0969	# c3,h1
   4	637.7	1.2183	# c,o
   5	325.9	1.4647	# c3,n3
   6	310.7	1.1121	# c,h4
   7	330.6	1.0969	# c3,hc
   8	313.0	1.5241	# c,c3
   9	325.9	1.465	# n3,c
  10	316.7	1.4233	# c3,oh
  11	371.4	0.973	# ho,oh
  12	400.1	1.3513	# c,oh

Angle Coeffs

   1	46.39	109.56	# c3,c3,h1
   2	66.02	111.04	# c3,c3,n3
   3	45.64	114.64	# c3,c,h4
   4	41.4	106.4	# hn,n3,hn
   5	39.24	108.46	# h1,c3,h1
   6	67.4	123.2	# c3,c,o
   7	47.42	109.29	# c3,n3,hn
   8	46.34	109.8	# c3,c3,hc
   9	63.27	111.04	# c,c3,c3
  10	39.4	107.58	# hc,c3,hc
  11	46.93	108.77	# c,c3,hc
  12	49.53	109.88	# h1,c3,n3
  13	62.86	111.51	# c3,c3,c3
  14	54.22	120.7	# h4,c,o
  15	63.8	112.35	# c3,n3,c
  16	47.4	109.29	# hn,n3,c
  17	66.0	111.04	# n3,c,c3
  18	67.47	110.19	# c3,c3,oh
  19	50.93	110.26	# h1,c3,oh
  20	47.38	107.26	# c3,oh,ho
  21	63.82	112.35	# c3,n3,c3
  22	49.55	109.8	# hc,c3,n3
  23	62.7	112.48	# c3,oh,c3
  24	51.11	109.5	# hc,c3,oh
  25	68.4	112.73	# c3,c,oh
  26	75.92	122.1	# o,c,oh

Dihedral Coeffs

   1	1	0.16	3	0	# hc,c3,c3,c3
   2	1	0.3	3	0	# X,c3,n3,X
   3	1	0.15555555555555556	3	0	# X,c3,c3,X
   4	3	0.18	3	0	0.25	2	180	0.2	1	180	# c3,c3,c3,c3
   5	1	0.0	2	180	# X,c,c3,X
   6	1	0.15	3	0	# hc,c3,c3,hc
   7	3	0.8	1	0	0.0	2	0	0.08	3	180	# hc,c3,c,o
   8	2	0.16	3	0	0.25	1	0	# ho,oh,c3,c3
   9	1	0.16666666666666666	3	0	# X,c3,oh,X
  10	2	0.0	3	0	0.25	1	0	# hc,c3,c3,oh
  11	2	0.3	3	0	0.48	2	180	# c3,c3,n3,c3
  12	1	2.3	2	180	# X,c,oh,X

Improper Coeffs

   1	10.5	-1	2	# c,X,X,o

Atoms

   1	1	1	-0.353484	28.5675	-26.3975	17.4265
   2	1	2	0.376337	29.4331	-25.4004	16.8049
   3	1	2	-0.897489	29.2518	-25.3123	15.2769
   4	1	3	0.034041	30.4786	-25.6585	17.022
   5	1	3	0.012328	29.2381	-24.42	17.2604
   6	1	4	0.229239	27.6223	-26.0308	17.436
   7	1	2	0.531206	27.8286	-24.9102	14.8293
   8	1	5	0.202592	29.554	-26.2431	14.7745
   9	1	5	0.099501	29.9436	-24.54	14.928
  10	1	2	0.171725	27.7608	-24.5014	13.3331
  11	1	5	-0.10542	27.4987	-24.0738	15.465
  12	1	5	-0.137294	27.1495	-25.7605	15.018
  13	1	2	-0.155467	26.3229	-24.2751	12.8041
  14	1	5	-0.053736	28.2731	-25.2687	12.7441
  15	1	5	0.001015	28.3221	-23.5695	13.2178
  16	1	2	0.033419	26.3436	-23.6613	11.377
  17	1	5	0.005395	25.7855	-23.6061	13.4906
  18	1	5	0.019028	25.7839	-25.2326	12.793
  19	1	2	0.058829	27.1765	-24.4773	10.3471
  20	1	5	-0.00779	26.7718	-22.6567	11.4522
  21	1	5	-0.029026	25.3138	-23.5312	11.0208
  22	1	2	-0.029357	27.1199	-24.0126	8.87809
  23	1	5	-0.003083	26.846	-25.5278	10.3965
  24	1	5	-0.010137	28.232	-24.4745	10.6517
  25	1	2	-0.000585	27.572	-22.5471	8.63442
  26	1	5	0.006084	26.1021	-24.1546	8.49892
  27	1	5	0.012201	27.7596	-24.6966	8.31075
  28	1	2	-0.03118	27.3589	-22.124	7.16618
  29	1	5	0.011412	28.6247	-22.4123	8.91355
  30	1	5	0.011566	26.9887	-21.8654	9.2756
  31	1	2	-0.057912	28.2486	-22.9033	6.16771
  32	1	5	0.001922	27.5793	-21.0479	7.07972
  33	1	5	0.021794	26.2961	-22.2616	6.91091
  34	1	6	-0.501673	27.3329	-22.9674	3.92533
  35	1	7	0.462	28.0593	-22.413	4.73339
  36	1	5	0.029593	28.0212	-23.9772	6.18353
  37	1	5	0.042406	29.3069	-22.7765	6.44564
  38	1	1	-0.353484	24.082	-26.6168	6.87633
  39	1	2	0.376337	25.2316	-27.2052	7.56221
  40	1	2	-0.897489	24.9564	-28.7218	7.6909
  41	1	3	0.034041	25.377	-26.7592	8.55633
  42	1	3	0.012328	26.1397	-27.0341	6.96994
  43	1	4	0.229239	23.2597	-27.1076	7.2203
  44	1	2	0.531206	26.2055	-29.5219	8.17564
  45	1	5	0.202592	24.6629	-29.1424	6.71898
  46	1	5	0.099501	24.1137	-28.8942	8.37527
  47	1	2	0.171725	26.7811	-29.0851	9.54037
  48	1	5	-0.10542	26.9886	-29.4131	7.4208
  49	1	5	-0.137294	25.9434	-30.5896	8.21969
  50	1	2	-0.155467	25.8103	-29.218	10.7384
  51	1	5	-0.053736	27.1169	-28.038	9.48302
  52	1	5	0.001015	27.6816	-29.6762	9.72262
  53	1	2	0.033419	26.5164	-28.7946	12.0542
  54	1	5	0.005395	25.4344	-30.2425	10.8197
  55	1	5	0.019028	24.9319	-28.578	10.5876
  56	1	2	0.058829	27.7585	-29.6272	12.5075
  57	1	5	-0.00779	25.7616	-28.8236	12.8484
  58	1	5	-0.029026	26.816	-27.7399	11.9695
  59	1	2	-0.029357	28.1583	-29.2285	13.9628
  60	1	5	-0.003083	28.6054	-29.4531	11.8326
  61	1	5	-0.010137	27.5289	-30.6966	12.4682
  62	1	2	-0.000585	29.42	-29.9374	14.553
  63	1	5	0.006084	27.3012	-29.4398	14.6137
  64	1	5	0.012201	28.323	-28.1417	14.0137
  65	1	2	-0.03118	29.5097	-29.9351	16.1049
  66	1	5	0.011412	30.3203	-29.4743	14.1306
  67	1	5	0.011566	29.4187	-30.9815	14.2155
  68	1	2	-0.057912	29.7829	-28.5445	16.7241
  69	1	5	0.001922	30.3437	-30.5956	16.3725
  70	1	5	0.021794	28.6055	-30.3909	16.5422
  71	1	6	-0.501673	27.9656	-27.5598	17.9031
  72	1	7	0.462	28.4939	-27.7332	16.821
  73	1	5	0.029593	30.5382	-28.0103	16.129
  74	1	5	0.042406	30.2034	-28.6654	17.7308
  75	1	9	-0.26285	22.719	-22.5691	9.39061
  76	1	2	0.431937	23.0897	-23.0785	8.11297
  77	1	2	0.196566	23.3653	-24.5879	8.25181
  78	1	3	-0.176879	24.0083	-22.5876	7.7648
  79	1	3	-0.045056	22.3018	-22.895	7.36949
  80	1	2	0.080387	23.8271	-25.157	6.90038
  81	1	5	0.032783	22.4495	-25.0973	8.58368
  82	1	5	-0.126889	24.1149	-24.7771	9.02935
  83	1	5	-0.081548	24.7124	-24.6117	6.54902
  84	1	5	-0.048451	23.0395	-24.9653	6.16337
  85	1	9	-0.26285	24.2832	-18.94	11.2219
  86	1	2	0.431937	22.9346	-19.344	11.4706
  87	1	2	0.196566	22.6641	-20.8343	11.1292
  88	1	3	-0.176879	22.2365	-18.6929	10.9362
  89	1	3	-0.045056	22.7501	-19.2206	12.5461
  90	1	2	0.080387	23.0476	-21.206	9.67676
  91	1	5	0.032783	21.5953	-21.0358	11.2775
  92	1	5	-0.126889	23.2102	-21.4861	11.8265
  93	1	5	-0.081548	24.1159	-21.0425	9.4866
  94	1	5	-0.048451	22.4679	-20.578	8.97804
  95	1	9	-0.26285	26.6552	-15.6612	12.8764
  96	1	2	0.431937	26.4793	-15.8133	11.4541
  97	1	2	0.196566	26.0877	-17.2584	11.1166
  98	1	3	-0.176879	27.4413	-15.6049	10.9483
  99	1	3	-0.045056	25.7227	-15.1056	11.0222
 100	1	2	0.080387	24.6038	-17.5454	11.4555
 101	1	5	0.032783	26.7168	-17.9901	11.6354
 102	1	5	-0.126889	26.2051	-17.3631	10.0254
 103	1	5	-0.081548	23.9638	-16.8612	10.8795
 104	1	5	-0.048451	24.4491	-17.3284	12.5149
 105	1	9	-0.26285	26.0523	-13.1883	14.7396
 106	1	2	0.431937	27.1892	-12.5901	14.1423
 107	1	2	0.196566	27.7814	-13.4392	12.9874
 108	1	3	-0.176879	28.0036	-12.4575	14.8787
 109	1	3	-0.045056	26.9661	-11.5629	13.7513
 110	1	2	0.080387	27.8417	-14.9678	13.2892
 111	1	5	0.032783	28.8166	-13.0949	12.7318
 112	1	5	-0.126889	27.2108	-13.2853	12.0615
 113	1	5	-0.081548	27.9892	-15.1182	14.3522
 114	1	5	-0.048451	28.74	-15.4138	12.8029
 115	1	1	-0.353484	12.4083	-11.6515	18.4544
 116	1	2	0.376337	13.8303	-11.6942	18.808
 117	1	2	-0.897489	14.6087	-12.8692	18.1901
 118	1	3	0.034041	13.9396	-11.6608	19.9123
 119	1	3	0.012328	14.2858	-10.7775	18.4022
 120	1	4	0.229239	12.0962	-10.7884	18.8969
 121	1	2	0.531206	16.0923	-12.8816	18.5775
 122	1	5	0.202592	14.5685	-12.746	17.1076
 123	1	5	0.099501	14.1345	-13.8347	18.366
 124	1	2	0.171725	16.8765	-13.9541	17.7987
 125	1	5	-0.10542	16.1308	-13.1212	19.6411
 126	1	5	-0.137294	16.5637	-11.8792	18.5064
 127	1	2	-0.155467	18.2446	-14.3397	18.3999
 128	1	5	-0.053736	16.9499	-13.6828	16.7383
 129	1	5	0.001015	16.2728	-14.867	17.7982
 130	1	2	0.033419	19.4301	-13.3717	18.2128
 131	1	5	0.005395	18.5003	-15.3048	17.9339
 132	1	5	0.019028	18.1032	-14.5776	19.4592
 133	1	2	0.058829	19.5438	-12.641	16.8527
 134	1	5	-0.00779	20.3387	-13.9381	18.4195
 135	1	5	-0.029026	19.3818	-12.6014	18.9961
 136	1	2	-0.029357	20.7879	-11.7102	16.787
 137	1	5	-0.003083	18.6785	-11.999	16.6565
 138	1	5	-0.010137	19.5582	-13.3864	16.0412
 139	1	2	-0.000585	22.1486	-12.4417	16.7539
 140	1	5	0.006084	20.7929	-10.9322	17.5621
 141	1	5	0.012201	20.6955	-11.1787	15.8268
 142	1	2	-0.03118	22.3203	-13.4547	15.6003
 143	1	5	0.011412	22.3119	-12.9788	17.705
 144	1	5	0.011566	22.9198	-11.6602	16.7232
 145	1	2	-0.057912	23.8353	-13.7961	15.3963
 146	1	5	0.001922	21.8665	-13.0758	14.6721
 147	1	5	0.021794	21.7477	-14.3677	15.8718
 148	1	6	-0.501673	24.4528	-11.8951	14.0191
 149	1	7	0.462	24.7823	-12.7966	14.7197
 150	1	5	0.029593	23.9226	-14.7287	14.8469
 151	1	5	0.042406	24.249	-14.0777	16.3618
 152	1	1	-0.353484	0.682224	-15.9566	11.7498
 153	1	2	0.376337	2.04581	-15.4053	11.6655
 154	1	2	-0.897489	2.33337	-14.5342	12.9094
 155	1	3	0.034041	2.14996	-14.774	10.757
 156	1	3	0.012328	2.76906	-16.226	11.6308
 157	1	4	0.229239	0.68503	-16.6343	12.5029
 158	1	2	0.531206	3.8274	-14.166	13.1368
 159	1	5	0.202592	2.01556	-15.0978	13.78
 160	1	5	0.099501	1.71333	-13.6229	12.8848
 161	1	2	0.171725	4.71036	-15.3674	13.601
 162	1	5	-0.10542	3.84859	-13.3991	13.923
 163	1	5	-0.137294	4.20785	-13.7396	12.2098
 164	1	2	-0.155467	6.22328	-15.2978	13.271
 165	1	5	-0.053736	4.33737	-16.3059	13.1929
 166	1	5	0.001015	4.58634	-15.4667	14.6904
 167	1	2	0.033419	7.0953	-14.6239	14.3627
 168	1	5	0.005395	6.41685	-14.831	12.291
 169	1	5	0.019028	6.52763	-16.3452	13.1638
 170	1	2	0.058829	8.60056	-15.0436	14.2244
 171	1	5	-0.00779	6.70721	-14.8212	15.3641
 172	1	5	-0.029026	7.00383	-13.5403	14.2475
 173	1	2	-0.029357	9.61199	-14.4611	15.2545
 174	1	5	-0.003083	8.94346	-14.702	13.2396
 175	1	5	-0.010137	8.7123	-16.1307	14.169
 176	1	2	-0.000585	9.73104	-15.2318	16.5873
 177	1	5	0.006084	9.3539	-13.4181	15.4331
 178	1	5	0.012201	10.6011	-14.4466	14.7816
 179	1	2	-0.03118	10.8231	-14.6881	17.5447
 180	1	5	0.011412	9.95503	-16.2769	16.3561
 181	1	5	0.011566	8.74984	-15.2443	17.0947
 182	1	2	-0.057912	10.507	-13.2273	17.9629
 183	1	5	0.001922	10.9091	-15.349	18.4325
 184	1	5	0.021794	11.7886	-14.7017	17.0171
 185	1	6	-0.501673	11.174	-11.8852	19.8161
 186	1	7	0.462	11.5223	-12.7086	18.988
 187	1	5	0.029593	10.5695	-12.5573	17.0973
 188	1	5	0.042406	9.48313	-13.1575	18.3623
 189	1	1	-0.353484	-10.0583	-18.9421	4.90195
 190	1	2	0.376337	-9.08257	-19.8516	5.43171
 191	1	2	-0.897489	-8.73882	-19.279	6.79792
 192	1	3	0.034041	-8.20264	-19.8743	4.76987
 193	1	3	0.012328	-9.5327	-20.85	5.52604
 194	1	4	0.229239	-10.7664	-18.854	5.62886
 195	1	2	0.531206	-7.47252	-20.0187	7.36712
 196	1	5	0.202592	-9.58922	-19.4719	7.45209
 197	1	5	0.099501	-8.58487	-18.1817	6.78258
 198	1	2	0.171725	-6.05041	-19.6704	6.79093
 199	1	5	-0.10542	-7.62191	-21.1051	7.35208
 200	1	5	-0.137294	-7.43567	-19.7567	8.43115
 201	1	2	-0.155467	-4.85177	-20.2385	7.64218
 202	1	5	-0.053736	-5.96215	-18.5714	6.73959
 203	1	5	0.001015	-5.95364	-20.0426	5.77242
 204	1	2	0.033419	-3.42921	-20.0807	6.99764
 205	1	5	0.005395	-4.97839	-21.3208	7.76308
 206	1	5	0.019028	-4.86991	-19.8015	8.65776
 207	1	2	0.058829	-2.95313	-18.6267	6.75007
 208	1	5	-0.00779	-3.42086	-20.5923	6.02317
 209	1	5	-0.029026	-2.69603	-20.5806	7.62821
 210	1	2	-0.029357	-2.76954	-17.8582	8.06282
 211	1	5	-0.003083	-3.62779	-18.082	6.07209
 212	1	5	-0.010137	-1.9906	-18.6776	6.23033
 213	1	2	-0.000585	-1.69439	-16.748	7.90021
 214	1	5	0.006084	-2.43648	-18.5595	8.84461
 215	1	5	0.012201	-3.73718	-17.4116	8.35632
 216	1	2	-0.03118	-1.72707	-15.7662	9.08226
 217	1	5	0.011412	-1.83843	-16.1864	6.95902
 218	1	5	0.011566	-0.703663	-17.1994	7.84334
 219	1	2	-0.057912	-1.33203	-16.4345	10.4211
 220	1	5	0.001922	-2.72534	-15.3354	9.16576
 221	1	5	0.021794	-1.05095	-14.9301	8.86796
 222	1	6	-0.501673	0.654572	-17.6186	11.0494
 223	1	7	0.462	0.167545	-16.6219	10.5469
 224	1	5	0.029593	-1.83502	-17.3967	10.5585
 225	1	5	0.042406	-1.68398	-15.8137	11.2542
 226	1	9	-0.26285	-13.6954	-18.7396	3.35988
 227	1	2	0.431937	-12.7044	-17.7986	3.6841
 228	1	2	0.196566	-11.4166	-18.2441	2.97574
 229	1	3	-0.176879	-12.5836	-17.7103	4.77163
 230	1	3	-0.045056	-13.0118	-16.8221	3.27939
 231	1	2	0.080387	-10.6854	-19.3974	3.65867
 232	1	5	0.032783	-10.7117	-17.4115	2.97596
 233	1	5	-0.126889	-11.6055	-18.4836	1.92003
 234	1	5	-0.081548	-9.87683	-19.7556	3.01949
 235	1	5	-0.048451	-11.3419	-20.2694	3.78805
 236	1	1	-0.353484	-22.3674	-13.0939	1.51419
 237	1	2	0.376337	-22.3283	-14.4335	0.967929
 238	1	2	-0.897489	-21.5373	-14.3262	-0.356655
 239	1	3	0.034041	-23.3704	-14.7472	0.728242
 240	1	3	0.012328	-21.888	-15.1622	1.67973
 241	1	4	0.229239	-22.7675	-12.4907	0.790514
 242	1	2	0.531206	-21.2526	-15.7349	-0.798537
 243	1	5	0.202592	-20.5799	-13.844	-0.125642
 244	1	5	0.099501	-22.0584	-13.7618	-1.14356
 245	1	2	0.171725	-20.2601	-15.8831	-1.9391
 246	1	5	-0.10542	-22.1872	-16.1872	-1.10703
 247	1	5	-0.137294	-20.8709	-16.2899	0.068168
 248	1	2	-0.155467	-19.5625	-17.2756	-1.98794
 249	1	5	-0.053736	-19.4843	-15.0882	-1.87083
 250	1	5	0.001015	-20.7986	-15.7774	-2.89987
 251	1	2	0.033419	-18.467	-17.4527	-0.902727
 252	1	5	0.005395	-19.1024	-17.3662	-2.96924
 253	1	5	0.019028	-20.2611	-18.1063	-1.87675
 254	1	2	0.058829	-17.5249	-18.6801	-1.10771
 255	1	5	-0.00779	-18.9845	-17.6115	0.0432173
 256	1	5	-0.029026	-17.824	-16.5778	-0.807226
 257	1	2	-0.029357	-16.692	-19.001	0.155383
 258	1	5	-0.003083	-16.9073	-18.4961	-1.99974
 259	1	5	-0.010137	-18.1801	-19.5323	-1.29353
 260	1	2	-0.000585	-15.898	-20.3137	-0.0131386
 261	1	5	0.006084	-17.3267	-19.1027	1.03503
 262	1	5	0.012201	-15.9902	-18.1818	0.309375
 263	1	2	-0.03118	-14.5675	-20.4933	0.79503
 264	1	5	0.011412	-15.637	-20.464	-1.06787
 265	1	5	0.011566	-16.5362	-21.166	0.231748
 266	1	2	-0.057912	-14.8138	-20.5947	2.33554
 267	1	5	0.001922	-13.8246	-19.705	0.540801
 268	1	5	0.021794	-14.1461	-21.4677	0.476602
 269	1	6	-0.501673	-15.9332	-18.7325	3.4611
 270	1	7	0.462	-14.8896	-19.2981	3.17697
 271	1	5	0.029593	-14.0328	-21.2321	2.79019
 272	1	5	0.042406	-15.7943	-21.1123	2.40502
 273	1	9	-0.26285	-22.9637	-10.2829	1.20286
 274	1	2	0.431937	-23.4873	-10.3603	2.50952
 275	1	2	0.196566	-22.8096	-11.5121	3.33667
 276	1	3	-0.176879	-24.5695	-10.5607	2.47634
 277	1	3	-0.045056	-23.3108	-9.39461	3.00646
 278	1	2	0.080387	-23.0926	-12.9065	2.78014
 279	1	5	0.032783	-23.1877	-11.3921	4.36125
 280	1	5	-0.126889	-21.742	-11.3928	3.44544
 281	1	5	-0.081548	-24.1681	-13.0271	2.55469
 282	1	5	-0.048451	-22.8377	-13.6631	3.51368
 283	1	9	-0.26285	-26.1645	-10.9542	-1.97195
 284	1	2	0.431937	-24.9259	-10.8766	-1.25831
 285	1	2	0.196566	-25.0094	-9.74848	-0.196295
 286	1	3	-0.176879	-24.1556	-10.6009	-1.98695
 287	1	3	-0.045056	-24.6798	-11.8422	-0.765717
 288	1	2	0.080387	-23.6324	-9.30689	0.338609
 289	1	5	0.032783	-25.607	-10.1046	0.666293
 290	1	5	-0.126889	-25.5028	-8.88376	-0.679403
 291	1	5	-0.081548	-23.7288	-8.34496	0.845595
 292	1	5	-0.048451	-22.9832	-9.14801	-0.515471
 293	1	1	-0.353484	-35.4106	-1.48817	-3.84709
 294	1	2	0.376337	-35.22	-2.57738	-4.77874
 295	1	2	-0.897489	-34.5903	-3.70594	-3.87299
 296	1	3	0.034041	-34.4851	-2.32884	-5.57864
 297	1	3	0.012328	-36.1379	-2.90296	-5.24114
 298	1	4	0.229239	-36.1042	-1.75717	-3.10867
 299	1	2	0.531206	-33.076	-3.78637	-3.90021
 300	1	5	0.202592	-34.9114	-4.67362	-4.25961
 301	1	5	0.099501	-34.9022	-3.63808	-2.81067
 302	1	2	0.171725	-32.3863	-5.08919	-3.3851
 303	1	5	-0.10542	-32.6507	-2.87894	-3.42234
 304	1	5	-0.137294	-32.8172	-3.71853	-4.95539
 305	1	2	-0.155467	-32.4128	-5.15725	-1.86091
 306	1	5	-0.053736	-31.3197	-5.07169	-3.67529
 307	1	5	0.001015	-32.9106	-5.9766	-3.8294
 308	1	2	0.033419	-31.9194	-6.52023	-1.23152
 309	1	5	0.005395	-33.4239	-5.01401	-1.55428
 310	1	5	0.019028	-31.7922	-4.30466	-1.54188
 311	1	2	0.058829	-30.5223	-6.97561	-1.67389
 312	1	5	-0.00779	-32.6314	-7.30365	-1.45084
 313	1	5	-0.029026	-31.8858	-6.43339	-0.139556
 314	1	2	-0.029357	-30.0578	-8.19145	-0.813975
 315	1	5	-0.003083	-29.8604	-6.13401	-1.42443
 316	1	5	-0.010137	-30.3766	-7.13566	-2.75227
 317	1	2	-0.000585	-28.683	-8.72808	-1.21389
 318	1	5	0.006084	-30.7308	-9.04923	-0.872197
 319	1	5	0.012201	-30.0755	-7.88454	0.23677
 320	1	2	-0.03118	-28.681	-9.601	-2.50538
 321	1	5	0.011412	-28.3443	-9.37908	-0.392535
 322	1	5	0.011566	-27.9917	-7.88888	-1.33044
 323	1	2	-0.057912	-28.5824	-11.1019	-2.21161
 324	1	5	0.001922	-27.8775	-9.30247	-3.1689
 325	1	5	0.021794	-29.6462	-9.43944	-3.05196
 326	1	6	-0.501673	-27.3784	-11.8741	-0.317366
 327	1	7	0.462	-27.3032	-11.4378	-1.44896
 328	1	5	0.029593	-28.6059	-11.7273	-3.1358
 329	1	5	0.042406	-29.4353	-11.4611	-1.59101
 330	1	9	-0.26285	-37.6792	1.91968	-1.87835
 331	1	2	0.431937	-37.4163	0.765852	-2.64951
 332	1	2	0.196566	-36.0278	0.854404	-3.35334
 333	1	3	-0.176879	-38.2186	0.57395	-3.41885
 334	1	3	-0.045056	-37.5204	-0.14545	-2.06794
 335	1	2	0.080387	-35.7055	-0.187441	-4.45412
 336	1	5	0.032783	-35.2439	0.7543	-2.61831
 337	1	5	-0.126889	-35.902	1.84343	-3.84307
 338	1	5	-0.081548	-34.8227	0.0105373	-5.05077
 339	1	5	-0.048451	-36.5572	-0.240071	-5.15969
 340	1	1	-0.353484	-29.6354	12.7835	-5.15367
 341	1	2	0.376337	-30.3334	11.6823	-5.76212
 342	1	2	-0.897489	-31.431	11.3048	-4.77161
 343	1	3	0.034041	-29.6911	10.7992	-5.86856
 344	1	3	0.012328	-30.7109	11.8522	-6.76425
 345	1	4	0.229239	-29.4532	12.4764	-4.19948
 346	1	2	0.531206	-32.2086	10.0327	-5.27971
 347	1	5	0.202592	-32.2125	12.0475	-4.66865
 348	1	5	0.099501	-31.1697	11.3063	-3.65729
 349	1	2	0.171725	-33.508	9.65598	-4.5275
 350	1	5	-0.10542	-31.5601	9.20826	-5.31744
 351	1	5	-0.137294	-32.4275	10.2561	-6.37014
 352	1	2	-0.155467	-33.3308	9.1098	-3.01522
 353	1	5	-0.053736	-34.0548	8.84086	-5.12447
 354	1	5	0.001015	-34.1704	10.5449	-4.66836
 355	1	2	0.033419	-34.698	9.14487	-2.30935
 356	1	5	0.005395	-32.6395	9.77529	-2.45577
 357	1	5	0.019028	-32.82	8.17204	-3.073
 358	1	2	0.058829	-35.388	7.72574	-2.42292
 359	1	5	-0.00779	-35.4404	9.85589	-2.70536
 360	1	5	-0.029026	-34.532	9.50181	-1.28793
 361	1	2	-0.029357	-36.6102	7.54328	-1.53579
 362	1	5	-0.003083	-34.6774	6.91784	-2.06669
 363	1	5	-0.010137	-35.6128	7.42794	-3.44427
 364	1	2	-0.000585	-37.5732	6.31793	-1.85586
 365	1	5	0.006084	-37.1839	8.46808	-1.7286
 366	1	5	0.012201	-36.4429	7.64753	-0.476441
 367	1	2	-0.03118	-36.9634	4.94625	-1.6849
 368	1	5	0.011412	-38.0868	6.44561	-2.82571
 369	1	5	0.011566	-38.4231	6.41398	-1.12021
 370	1	2	-0.057912	-37.7859	4.01058	-0.783597
 371	1	5	0.001922	-35.9546	5.04759	-1.30426
 372	1	5	0.021794	-36.9138	4.42578	-2.66871
 373	1	6	-0.501673	-36.6597	2.15321	0.104639
 374	1	7	0.462	-37.3741	2.57428	-0.753593
 375	1	5	0.029593	-38.8259	4.08943	-1.04141
 376	1	5	0.042406	-37.8189	4.32628	0.249438
 377	1	9	-0.26285	-26.0503	16.0083	-4.57237
 378	1	2	0.431937	-26.6905	15.1424	-5.52726
 379	1	2	0.196566	-27.6866	14.1663	-4.90492
 380	1	3	-0.176879	-25.8671	14.608	-6.10637
 381	1	3	-0.045056	-27.2209	15.7969	-6.28672
 382	1	2	0.080387	-28.4803	13.2422	-5.89455
 383	1	5	0.032783	-28.4657	14.7629	-4.48327
 384	1	5	-0.126889	-27.2937	13.6742	-4.00726
 385	1	5	-0.081548	-27.8719	12.3277	-6.0759
 386	1	5	-0.048451	-28.8223	13.8615	-6.73397
 387	1	9	-0.26285	-23.3916	18.6386	-2.33948
 388	1	2	0.431937	-24.6888	18.3978	-2.9654
 389	1	2	0.196566	-24.6995	18.1819	-4.53683
 390	1	3	-0.176879	-25.3509	19.2662	-2.72949
 391	1	3	-0.045056	-25.2462	17.5438	-2.58016
 392	1	2	0.080387	-24.7841	16.634	-4.80522
 393	1	5	0.032783	-23.7944	18.6041	-5.06173
 394	1	5	-0.126889	-25.6079	18.6195	-4.97747
 395	1	5	-0.081548	-24.0594	15.9621	-4.28121
 396	1	5	-0.048451	-24.6693	16.4982	-5.88794
 397	1	9	-0.26285	-20.3424	22.1583	-0.996902
 398	1	2	0.431937	-21.1113	21.6626	-2.04294
 399	1	2	0.196566	-21.604	20.2632	-1.7949
 400	1	3	-0.176879	-20.4465	21.5855	-2.94439
 401	1	3	-0.045056	-21.8709	22.413	-2.40786
 402	1	2	0.080387	-22.6567	19.8366	-2.78232
 403	1	5	0.032783	-22.2259	20.3155	-0.837154
 404	1	5	-0.126889	-20.9268	19.482	-1.60239
 405	1	5	-0.081548	-22.3008	19.5822	-3.7449
 406	1	5	-0.048451	-23.4721	20.5583	-2.78989
 407	1	9	-0.26285	-20.2382	26.2373	-2.0168
 408	1	2	0.431937	-19.8743	25.3954	-1.02482
 409	1	2	0.196566	-21.1514	24.5663	-0.784224
 410	1	3	-0.176879	-19.7456	25.8707	-0.0541798
 411	1	3	-0.045056	-19.2325	24.6802	-1.31643
 412	1	2	0.080387	-20.8509	23.1341	-0.167521
 413	1	5	0.032783	-21.694	24.3985	-1.77211
 414	1	5	-0.126889	-21.8085	25.2505	-0.231424
 415	1	5	-0.081548	-21.8524	22.7674	0.112192
 416	1	5	-0.048451	-20.3282	23.2119	0.792371
 417	1	9	-0.26285	-21.4412	26.7371	-4.52367
 418	1	2	0.431937	-20.4504	27.7893	-4.77744
 419	1	2	0.196566	-19.8001	28.249	-3.35734
 420	1	3	-0.176879	-20.5507	28.6319	-5.5368
 421	1	3	-0.045056	-19.5834	27.2555	-5.25722
 422	1	2	0.080387	-19.1972	27.1703	-2.42808
 423	1	5	0.032783	-20.659	28.8811	-2.87958
 424	1	5	-0.126889	-18.9921	28.9151	-3.66918
 425	1	5	-0.081548	-18.8168	27.5746	-1.57722
 426	1	5	-0.048451	-18.3245	26.7305	-2.92151
 427	1	1	-0.353484	-30.9351	37.5319	-5.41867
 428	1	2	0.376337	-30.1029	36.9005	-6.48604
 429	1	2	-0.897489	-30.1312	35.4309	-6.26619
 430	1	3	0.034041	-29.0308	37.2546	-6.65201
 431	1	3	0.012328	-30.6578	37.0878	-7.38987
 432	1	4	0.229239	-30.4288	37.6193	-4.58817
 433	1	2	0.531206	-29.0055	35.242	-5.38744
 434	1	5	0.202592	-30.0159	34.9494	-7.16118
 435	1	5	0.099501	-31.0216	35.0887	-5.82377
 436	1	2	0.171725	-28.4205	33.8228	-5.30465
 437	1	5	-0.10542	-29.3344	35.5732	-4.4692
 438	1	5	-0.137294	-28.1423	35.8666	-5.76896
 439	1	2	-0.155467	-27.3168	33.7146	-4.22151
 440	1	5	-0.053736	-27.9642	33.582	-6.26884
 441	1	5	0.001015	-29.2711	33.104	-5.15648
 442	1	2	0.033419	-26.6624	32.3085	-4.32109
 443	1	5	0.005395	-27.7013	33.9294	-3.25048
 444	1	5	0.019028	-26.6312	34.5721	-4.47293
 445	1	2	0.058829	-25.7567	31.8471	-5.53301
 446	1	5	-0.00779	-27.4456	31.5973	-4.09408
 447	1	5	-0.029026	-26.0819	32.2298	-3.37212
 448	1	2	-0.029357	-25.4356	30.2702	-5.68234
 449	1	5	-0.003083	-24.8329	32.2796	-5.44467
 450	1	5	-0.010137	-26.1289	32.2752	-6.4711
 451	1	2	-0.000585	-25.0857	29.4471	-4.4289
 452	1	5	0.006084	-24.5565	30.124	-6.23135
 453	1	5	0.012201	-26.2326	29.6175	-6.19861
 454	1	2	-0.03118	-24.6431	28.1322	-4.77566
 455	1	5	0.011412	-25.8673	29.3032	-3.6372
 456	1	5	0.011566	-24.3315	30.0946	-3.89385
 457	1	2	-0.057912	-23.6249	27.6218	-3.6301
 458	1	5	0.001922	-24.0504	28.2204	-5.65624
 459	1	5	0.021794	-25.4292	27.4753	-5.12461
 460	1	6	-0.501673	-22.9003	25.321	-3.91548
 461	1	7	0.462	-22.6427	26.4859	-4.04253
 462	1	5	0.029593	-24.1582	27.0775	-2.8202
 463	1	5	0.042406	-23.1704	28.4947	-3.16377
 464	1	9	-0.26285	-33.4901	40.875	-5.26562
 465	1	2	0.431937	-32.4439	40.9129	-4.35957
 466	1	2	0.196566	-31.7658	39.6496	-4.21158
 467	1	3	-0.176879	-32.6727	41.4623	-3.3307
 468	1	3	-0.045056	-31.708	41.6159	-4.88377
 469	1	2	0.080387	-31.0592	39.0344	-5.51367
 470	1	5	0.032783	-32.4711	38.9665	-3.73559
 471	1	5	-0.126889	-31.0245	39.6478	-3.5383
 472	1	5	-0.081548	-29.9843	39.4355	-5.33978
 473	1	5	-0.048451	-31.6057	39.332	-6.45314
 474	1	1	-0.353484	-32.2901	33.2567	-2.51275
 475	1	2	0.376337	-32.652	34.5423	-3.08377
 476	1	2	-0.897489	-33.645	35.1864	-1.95186
 477	1	3	0.034041	-33.4241	34.1237	-3.85068
 478	1	3	0.012328	-31.9958	35.3589	-3.32619
 479	1	4	0.229239	-33.0088	33.0123	-1.84065
 480	1	2	0.531206	-34.2485	36.5408	-2.30329
 481	1	5	0.202592	-33.0051	35.515	-1.13686
 482	1	5	0.099501	-34.4586	34.6065	-1.56151
 483	1	2	0.171725	-35.316	36.9956	-1.28626
 484	1	5	-0.10542	-34.6967	36.4036	-3.27781
 485	1	5	-0.137294	-33.3449	37.1447	-2.51389
 486	1	2	-0.155467	-36.2292	37.8961	-2.09034
 487	1	5	-0.053736	-34.8301	37.3283	-0.453937
 488	1	5	0.001015	-35.954	36.2218	-0.907987
 489	1	2	0.033419	-37.1569	38.9167	-1.29319
 490	1	5	0.005395	-36.8096	37.1305	-2.6185
 491	1	5	0.019028	-35.4917	38.5064	-2.55391
 492	1	2	0.058829	-38.2511	39.5779	-2.06625
 493	1	5	-0.00779	-36.452	39.6986	-0.903209
 494	1	5	-0.029026	-37.5048	38.4546	-0.270879
 495	1	2	-0.029357	-37.7	40.6384	-3.03418
 496	1	5	-0.003083	-39.1479	39.6845	-1.46074
 497	1	5	-0.010137	-38.919	39.0376	-2.79666
 498	1	2	-0.000585	-36.8738	40.1885	-4.16978
 499	1	5	0.006084	-37.2064	41.3361	-2.45164
 500	1	5	0.012201	-38.4503	41.272	-3.46076
 501	1	2	-0.03118	-36.5021	41.3324	-5.12296
 502	1	5	0.011412	-36.9775	39.2563	-4.69691
 503	1	5	0.011566	-35.9253	40.1579	-3.60309
 504	1	2	-0.057912	-35.6629	40.7993	-6.23537
 505	1	5	0.001922	-35.9221	42.1368	-4.67519
 506	1	5	0.021794	-37.3798	41.8751	-5.69344
 507	1	6	-0.501673	-34.348	38.7858	-5.65491
 508	1	7	0.462	-34.4813	39.9877	-5.66974
 509	1	5	0.029593	-35.3609	41.739	-6.78983
 510	1	5	0.042406	-36.2102	40.1729	-6.81822

Velocities

   1	-0.0029885	-0.00093175	0.0070687
   2	-0.00288221	-0.0011966	0.0070191
   3	-0.000669548	0.00259523	0.00635665
   4	-0.00393881	-0.00515598	0.00377673
   5	0.00184975	0.000350807	0.0101963
   6	-0.000464463	0.0021732	0.00795837
   7	-0.000402221	0.000188328	0.00448401
   8	0.00143797	0.00391494	0.00500759
   9	-0.0013061	0.00571729	0.00542844
  10	-0.000543956	-0.00109269	0.00423581
  11	-0.00527582	-0.0002841	0.00479239
  12	-0.000959339	0.00163766	0.00428262
  13	0.000253372	0.000465158	0.00358639
  14	-0.00367182	-0.00647151	0.00298961
  15	-0.00105824	-0.00377691	0.00726313
  16	-0.00276148	0.00074801	0.00608394
  17	0.00278049	0.00397813	0.00843105
  18	-0.00244381	0.00163806	0.00213502
  19	-0.00593344	-0.0016559	0.00598928
  20	0.0025405	3.0011e-05	0.00435468
  21	-0.00586933	0.00115122	0.00752944
  22	-0.00255194	-0.0024826	0.0046056
  23	-0.0117349	-0.00160673	0.00688692
  24	-0.00575409	-0.00501258	0.00815083
  25	-0.000360579	-0.00462063	0.00425715
  26	-0.00310187	-0.00278092	0.00175134
  27	0.00442926	-0.00209877	0.00989209
  28	0.00278303	-0.00312814	0.00271047
  29	-0.00122349	-0.00187707	0.00669384
  30	-0.00759766	-0.0064637	0.00090109
  31	0.00124978	-0.00411494	0.00248806
  32	0.00265648	-0.00489115	0.00479172
  33	0.00310994	0.00470688	0.00188316
  34	-0.00464876	-0.00195785	0.00344981
  35	-0.00236755	-0.0037607	0.00212617
  36	0.00074549	-0.00438817	0.00812824
  37	0.00188192	-0.00201308	0.00302554
  38	0.000694448	-0.00264371	0.0037243
  39	0.000616654	-0.00394524	0.00452939
  40	-0.00518629	-0.00209243	0.00476062
  41	0.00341863	-0.0032445	0.00347102
  42	0.00023098	-0.00721888	0.00126806
  43	0.00094106	-0.00123341	0.00235718
  44	-0.00750916	-0.00714902	0.00480582
  45	-0.00925244	-0.000809842	0.00597299
  46	-0.00559204	-0.00399802	0.00651994
  47	-0.00249545	-0.00458646	0.00349815
  48	-0.00867489	-0.0163743	0.00330997
  49	-0.0147232	-0.00476077	0.0131292
  50	-0.00285919	-0.00273524	0.00414287
  51	0.000468605	-0.0050202	0.00193184
  52	-0.00708669	-0.00838457	0.000282462
  53	-0.00198777	-0.00158764	0.00401572
  54	-0.0041134	0.00179287	0.0033169
  55	-0.0028847	-0.000442909	0.00593832
  56	-0.00246907	-0.00205764	0.00471948
  57	-0.000708906	-0.0044384	0.00446615
  58	-2.0204e-05	-0.00317136	0.00458325
  59	-0.00169328	-0.000560162	0.00514707
  60	-0.00274072	-0.00219898	0.00605004
  61	-0.00172257	-0.0048702	0.000714069
  62	-0.0043901	-0.0057876	0.00467839
  63	-0.00372858	0.00548684	0.00557022
  64	-0.00160443	-0.000882644	0.00139097
  65	0.00174862	0.00109698	0.00457006
  66	-0.00267877	-0.014845	0.000623987
  67	-0.0105738	-0.00654484	0.00850495
  68	0.000149911	0.00225127	0.00303408
  69	0.00711955	0.00708803	0.00362524
  70	0.00481382	0.000305245	0.0123245
  71	0.00129134	0.00109422	0.00470112
  72	-0.00032102	0.00120356	0.00434561
  73	-0.000787319	0.00463812	0.00406342
  74	0.000980396	0.0013524	0.00399889
  75	-0.00612737	0.00120736	0.00335018
  76	-0.00278191	-0.00260163	0.00427331
  77	-0.00198428	-0.00142652	0.00364396
  78	-0.00394002	-0.00410148	0.00277398
  79	-0.0027851	-0.00474559	0.00623828
  80	0.000490798	-0.00125709	0.00714884
  81	-0.000275699	-0.0032846	0.00619813
  82	-0.00271697	-0.000793529	0.00478361
  83	4.65947e-05	0.00226206	0.00818233
  84	0.00100451	0.000574865	0.00690633
  85	-0.0040121	-0.000250502	-0.00114079
  86	-0.000559166	-0.00144755	0.00533099
  87	-0.00362469	-0.00143729	0.00470125
  88	-0.00426862	-0.00103582	0.00820386
  89	0.00532522	0.00173586	0.00812386
  90	-0.00409196	0.00383282	0.00413858
  91	-0.00163122	-0.00331703	0.0128366
  92	-0.00778086	-0.0036283	0.00537856
  93	-0.000213329	-0.00122687	0.00326392
  94	0.00199425	0.00184375	-0.00085184
  95	-0.000334324	0.00186497	-0.00278686
  96	0.00233307	-0.00173962	-0.000513291
  97	-0.00315793	0.00184239	0.00222651
  98	-0.000245013	0.00189818	-0.000761349
  99	-0.00796455	0.00144163	0.002493
 100	-0.00725761	0.00277637	0.000260575
 101	-0.00632117	-0.010538	-0.0149433
 102	0.00284802	-0.00287767	0.00175496
 103	-0.0101456	-0.00404533	-0.0114671
 104	-0.00872214	-0.00579867	0.00425489
 105	-0.00544121	0.00173145	-0.000776145
 106	-0.00511438	0.00411822	-0.00532735
 107	-0.0057721	0.00175336	-0.0029812
 108	-0.000196746	-0.00432845	-0.0137697
 109	-0.0184659	-0.0115122	-0.0191081
 110	-0.00150434	0.00150665	-0.00866084
 111	-0.0162713	-0.00739884	0.00425498
 112	-0.0100966	-0.0108643	-0.0109192
 113	-0.00468114	-0.0157797	-0.00532907
 114	-0.0225018	-0.00260889	-0.0116753
 115	-0.00262931	0.00433436	0.00505406
 116	-0.00153679	0.00129181	0.00365116
 117	-0.00498338	0.00370225	-0.00567146
 118	0.014359	0.00665161	0.00146562
 119	-0.00468251	0.00225826	-0.00507717
 120	0.00164669	0.0139628	-0.00205627
 121	-0.00440791	0.00384661	-0.00248157
 122	-0.00585733	0.00985921	0.00281969
 123	0.0084628	0.00277232	-0.00430729
 124	-0.00471584	0.00445228	0.00471322
 125	-0.00903623	0.0116423	-0.000795223
 126	-0.00275122	0.00400213	-0.012019
 127	-0.00164076	0.00247741	-0.000421805
 128	-0.00619082	-0.0053304	0.00433683
 129	0.000875401	0.00306516	0.00642497
 130	-0.00206004	0.0012108	-0.00196555
 131	-0.00799753	0.00928093	-0.0110163
 132	0.00435435	0.0039452	0.00516109
 133	-0.00631179	0.00558514	-3.08058e-05
 134	0.0019834	-0.00139446	-0.0229106