pySIMM System Object

289 atoms
288 bonds
540 angles
793 dihedrals
0 impropers

10 atom types
12 bond types
21 angle types
12 dihedral types
1 improper types

-74.271776 74.271776 xlo xhi
-74.271776 74.271776 ylo yhi
-74.271776 74.271776 zlo zhi

Masses

   1	14.01	# n3
   2	12.01	# c3
   3	1.008	# h1
   4	1.008	# hn
   5	1.008	# hc
   6	16.0	# o
   7	12.01	# c
   8	1.008	# h4
   9	16.0	# oh
  10	1.008	# ho

Pair Coeffs

   1	0.17	3.249998523775958	# n3
   2	0.1094	3.3996695084235347	# c3
   3	0.0157	2.471353044121301	# h1
   4	0.0157	1.069078461768407	# hn
   5	0.0157	2.649532787749369	# hc
   6	0.21	2.959921901149463	# o
   7	0.086	3.3996695084235347	# c
   8	0.015	2.5105525877194763	# h4
   9	0.2104	3.0664733878390478	# oh
  10	0.0047	0.5379246460131368	# ho

Bond Coeffs

   1	300.9	1.5375	# c3,c3
   2	392.4	1.019	# hn,n3
   3	330.6	1.0969	# c3,h1
   4	637.7	1.2183	# c,o
   5	325.9	1.4647	# c3,n3
   6	310.7	1.1121	# c,h4
   7	330.6	1.0969	# c3,hc
   8	313.0	1.5241	# c,c3
   9	325.9	1.465	# n3,c
  10	316.7	1.4233	# c3,oh
  11	371.4	0.973	# ho,oh
  12	400.1	1.3513	# c,oh

Angle Coeffs

   1	46.39	109.56	# c3,c3,h1
   2	66.02	111.04	# c3,c3,n3
   3	45.64	114.64	# c3,c,h4
   4	41.4	106.4	# hn,n3,hn
   5	39.24	108.46	# h1,c3,h1
   6	67.4	123.2	# c3,c,o
   7	47.42	109.29	# c3,n3,hn
   8	46.34	109.8	# c3,c3,hc
   9	63.27	111.04	# c,c3,c3
  10	39.4	107.58	# hc,c3,hc
  11	46.93	108.77	# c,c3,hc
  12	49.53	109.88	# h1,c3,n3
  13	62.86	111.51	# c3,c3,c3
  14	54.22	120.7	# h4,c,o
  15	67.47	110.19	# c3,c3,oh
  16	50.93	110.26	# h1,c3,oh
  17	47.38	107.26	# c3,oh,ho
  18	63.82	112.35	# c3,n3,c3
  19	49.55	109.8	# hc,c3,n3
  20	68.4	112.73	# c3,c,oh
  21	75.92	122.1	# o,c,oh

Dihedral Coeffs

   1	1	0.16	3	0	# hc,c3,c3,c3
   2	1	0.3	3	0	# X,c3,n3,X
   3	1	0.15555555555555556	3	0	# X,c3,c3,X
   4	3	0.18	3	0	0.25	2	180	0.2	1	180	# c3,c3,c3,c3
   5	1	0.0	2	180	# X,c,c3,X
   6	1	0.15	3	0	# hc,c3,c3,hc
   7	3	0.8	1	0	0.0	2	0	0.08	3	180	# hc,c3,c,o
   8	2	0.16	3	0	0.25	1	0	# ho,oh,c3,c3
   9	1	0.16666666666666666	3	0	# X,c3,oh,X
  10	2	0.0	3	0	0.25	1	0	# hc,c3,c3,oh
  11	2	0.3	3	0	0.48	2	180	# c3,c3,n3,c3
  12	1	2.3	2	180	# X,c,oh,X

Improper Coeffs

   1	10.5	-1	2	# c,X,X,o

Atoms

   1	1	1	-0.353484	17.0527	-9.15479	0.36181
   2	1	2	0.376337	16.1756	-8.84674	-0.773727
   3	1	2	-0.897489	16.1049	-7.3096	-0.936705
   4	1	3	0.034041	15.2281	-9.29773	-0.604677
   5	1	3	0.012328	16.6205	-9.36437	-1.5749
   6	1	4	0.229239	17.7929	-8.45044	0.488973
   7	1	2	0.531206	15.5233	-6.77281	-2.25897
   8	1	5	0.202592	17.1281	-6.93861	-0.867398
   9	1	5	0.099501	15.6165	-6.82911	-0.109517
  10	1	2	0.171725	15.6563	-5.18435	-2.35534
  11	1	5	-0.10542	14.4504	-7.08339	-2.34492
  12	1	5	-0.137294	16.0988	-7.26436	-3.03446
  13	1	2	-0.155467	14.9882	-4.38295	-3.48038
  14	1	5	-0.053736	16.7621	-4.94746	-2.51475
  15	1	5	0.001015	15.385	-4.77935	-1.38277
  16	1	2	0.033419	13.4317	-4.20565	-3.56678
  17	1	5	0.005395	15.3732	-4.60714	-4.47234
  18	1	5	0.019028	15.3062	-3.36981	-3.25096
  19	1	2	0.058829	13.0242	-3.15918	-4.64488
  20	1	5	-0.00779	13.0469	-3.80945	-2.60117
  21	1	5	-0.029026	12.9429	-5.15945	-3.81854
  22	1	2	-0.029357	11.5582	-2.65085	-4.29824
  23	1	5	-0.003083	13.023	-3.64325	-5.62122
  24	1	5	-0.010137	13.6623	-2.29449	-4.6762
  25	1	2	-0.000585	10.6449	-2.03707	-5.33702
  26	1	5	0.006084	11.7135	-1.98893	-3.48926
  27	1	5	0.012201	10.9701	-3.46825	-3.89036
  28	1	2	-0.03118	10.267	-3.05499	-6.43759
  29	1	5	0.011412	11.1573	-1.11819	-5.70715
  30	1	5	0.011566	9.75071	-1.69107	-4.79484
  31	1	2	-0.057912	10.0267	-2.3133	-7.78351
  32	1	5	0.001922	9.34589	-3.63177	-6.16467
  33	1	5	0.021794	11.0514	-3.8471	-6.4791
  34	1	6	-0.501673	8.28815	-0.904906	-6.96283
  35	1	7	0.462	9.13762	-1.0467	-7.81873
  36	1	5	0.029593	9.62849	-3.01343	-8.48303
  37	1	5	0.042406	10.9988	-2.0488	-8.24417
  38	1	1	-0.353484	11.9958	-8.0598	3.95615
  39	1	2	0.376337	11.7872	-8.92043	2.75797
  40	1	2	-0.897489	11.2133	-10.315	3.20899
  41	1	3	0.034041	12.7824	-8.99032	2.21507
  42	1	3	0.012328	11.0877	-8.37398	2.21173
  43	1	4	0.229239	11.2681	-8.25964	4.64523
  44	1	2	0.531206	11.4955	-11.5705	2.35179
  45	1	5	0.202592	10.1187	-10.35	3.39195
  46	1	5	0.099501	11.6053	-10.4757	4.2045
  47	1	2	0.171725	12.8817	-11.8466	1.68017
  48	1	5	-0.10542	10.801	-11.3814	1.48007
  49	1	5	-0.137294	11.0604	-12.3753	3.00586
  50	1	2	-0.155467	14.0536	-12.2113	2.62885
  51	1	5	-0.053736	13.0627	-10.9649	1.04135
  52	1	5	0.001015	12.6005	-12.7076	0.991442
  53	1	2	0.033419	15.3984	-12.481	1.89267
  54	1	5	0.005395	13.7652	-13.0656	3.29132
  55	1	5	0.019028	14.211	-11.3481	3.36091
  56	1	2	0.058829	16.4742	-13.3531	2.59774
  57	1	5	-0.00779	15.8984	-11.5786	1.50014
  58	1	5	-0.029026	15.1183	-12.8106	0.913641
  59	1	2	-0.029357	17.6103	-13.8798	1.62489
  60	1	5	-0.003083	15.9665	-14.2072	3.09848
  61	1	5	-0.010137	16.9326	-12.9045	3.45137
  62	1	2	-0.000585	18.8954	-13.0391	1.5369
  63	1	5	0.006084	17.1345	-13.9966	0.660914
  64	1	5	0.012201	17.895	-14.9191	1.81892
  65	1	2	-0.03118	18.5532	-11.6995	0.782438
  66	1	5	0.011412	19.5667	-13.6633	0.954945
  67	1	5	0.011566	19.4088	-12.9355	2.53923
  68	1	2	-0.057912	18.318	-10.5465	1.85101
  69	1	5	0.001922	17.6653	-11.797	0.200124
  70	1	5	0.021794	19.2924	-11.5118	0.00421312
  71	1	6	-0.501673	19.1663	-8.3065	1.25433
  72	1	7	0.462	18.333	-9.20595	1.07005
  73	1	5	0.029593	19.1305	-10.5304	2.62501
  74	1	5	0.042406	17.3698	-10.5874	2.4265
  75	1	9	-0.26285	14.1863	-4.26573	4.06859
  76	1	2	0.431937	14.1458	-5.03762	5.25282
  77	1	2	0.196566	13.6876	-6.49884	5.07884
  78	1	3	-0.176879	13.3177	-4.49764	5.62848
  79	1	3	-0.045056	15.0686	-5.0351	5.80943
  80	1	2	0.080387	12.5841	-6.74332	4.04059
  81	1	5	0.032783	13.2971	-7.00197	6.00601
  82	1	5	-0.126889	14.5544	-7.29727	4.81684
  83	1	5	-0.081548	13.0362	-6.33469	3.10877
  84	1	5	-0.048451	11.6852	-6.07812	4.12304
  85	1	1	-0.353484	10.2462	7.97538	-1.29025
  86	1	2	0.376337	10.2126	7.14953	-0.0835773
  87	1	2	-0.897489	11.1203	5.88991	-0.289584
  88	1	3	0.034041	9.16328	6.94723	0.0326182
  89	1	3	0.012328	10.5347	7.76653	0.756252
  90	1	4	0.229239	9.36113	7.87215	-1.77807
  91	1	2	0.531206	11.3375	5.10305	1.06408
  92	1	5	0.202592	12.0366	6.20782	-0.851484
  93	1	5	0.099501	10.6128	5.27834	-0.96508
  94	1	2	0.171725	12.4865	4.10521	1.13825
  95	1	5	-0.10542	10.432	4.59146	1.36751
  96	1	5	-0.137294	11.5048	5.90005	1.77921
  97	1	2	-0.155467	12.494	2.95903	0.0345946
  98	1	5	-0.053736	12.5548	3.63392	2.13925
  99	1	5	0.001015	13.3713	4.70368	1.03787
 100	1	2	0.033419	12.7838	1.51829	0.662279
 101	1	5	0.005395	13.0442	3.3103	-0.78202
 102	1	5	0.019028	11.4598	2.81893	-0.378447
 103	1	2	0.058829	12.2622	0.390906	-0.287832
 104	1	5	-0.00779	12.1303	1.48448	1.61769
 105	1	5	-0.029026	13.8329	1.41397	0.965296
 106	1	2	-0.029357	13.4624	-0.614798	-0.712148
 107	1	5	-0.003083	11.9981	0.764189	-1.26875
 108	1	5	-0.010137	11.3955	-0.131986	0.119684
 109	1	2	-0.000585	14.2227	-1.32072	0.412132
 110	1	5	0.006084	14.1112	-0.197547	-1.35686
 111	1	5	0.012201	12.9286	-1.38693	-1.39377
 112	1	2	-0.03118	13.3607	-1.71409	1.57145
 113	1	5	0.011412	14.972	-0.675031	0.783563
 114	1	5	0.011566	14.7032	-2.10693	-0.0769492
 115	1	2	-0.057912	14.2151	-2.64939	2.36409
 116	1	5	0.001922	12.4106	-2.1673	1.25509
 117	1	5	0.021794	12.9557	-0.878595	2.21115
 118	1	6	-0.501673	12.2472	-3.18136	3.59232
 119	1	7	0.462	13.3733	-3.55686	3.24284
 120	1	5	0.029593	14.9101	-2.08042	2.91356
 121	1	5	0.042406	14.7476	-3.33272	1.65888
 122	1	1	-0.353484	0.800958	9.06628	1.88094
 123	1	2	0.376337	2.17895	9.47016	1.70705
 124	1	2	-0.897489	2.22516	10.56	0.587745
 125	1	3	0.034041	2.85517	8.63369	1.60206
 126	1	3	0.012328	2.45109	9.92127	2.63562
 127	1	4	0.229239	0.253758	9.82985	1.5111
 128	1	2	0.531206	2.47029	10.042	-0.850867
 129	1	5	0.202592	3.05336	11.2371	0.849153
 130	1	5	0.099501	1.3433	11.195	0.558064
 131	1	2	0.171725	3.7307	9.1197	-1.08968
 132	1	5	-0.10542	2.49356	10.948	-1.42445
 133	1	5	-0.137294	1.59269	9.44215	-1.1367
 134	1	2	-0.155467	4.23714	8.965	-2.58298
 135	1	5	-0.053736	3.35682	8.12699	-0.809344
 136	1	5	0.001015	4.57328	9.36054	-0.509087
 137	1	2	0.033419	4.91667	10.2678	-3.13246
 138	1	5	0.005395	3.42476	8.76475	-3.30876
 139	1	5	0.019028	4.87375	8.07065	-2.66676
 140	1	2	0.058829	5.85811	9.98681	-4.33399
 141	1	5	-0.00779	5.54018	10.7673	-2.36516
 142	1	5	-0.029026	4.19975	11.0845	-3.37257
 143	1	2	-0.029357	7.08385	8.99139	-3.98017
 144	1	5	-0.003083	6.26905	10.9374	-4.64015
 145	1	5	-0.010137	5.34971	9.54981	-5.15845
 146	1	2	-0.000585	7.07366	7.57993	-4.67888
 147	1	5	0.006084	7.15934	8.78184	-2.9032
 148	1	5	0.012201	8.00672	9.51339	-4.2597
 149	1	2	-0.03118	7.8002	6.51375	-3.86083
 150	1	5	0.011412	7.54623	7.73189	-5.65312
 151	1	5	0.011566	6.02278	7.26326	-4.83753
 152	1	2	-0.057912	9.37316	6.75567	-3.69459
 153	1	5	0.001922	7.72217	5.53045	-4.39756
 154	1	5	0.021794	7.34333	6.38003	-2.8813
 155	1	6	-0.501673	9.79228	8.91936	-2.93025
 156	1	7	0.462	9.91287	7.74936	-2.70433
 157	1	5	0.029593	9.7555	6.99143	-4.66711
 158	1	5	0.042406	9.84036	5.80166	-3.46132
 159	1	1	-0.353484	-13.0395	4.86688	3.58177
 160	1	2	0.376337	-11.6679	4.20816	3.52788
 161	1	2	-0.897489	-10.6916	5.17389	2.8127
 162	1	3	0.034041	-11.7903	3.34369	2.88793
 163	1	3	0.012328	-11.2939	3.91624	4.53638
 164	1	4	0.229239	-13.4113	4.91541	2.64405
 165	1	2	0.531206	-9.21508	4.70122	2.87798
 166	1	5	0.202592	-10.7482	6.12294	3.33352
 167	1	5	0.099501	-11.0785	5.32063	1.79142
 168	1	2	0.171725	-8.34391	5.58474	1.91439
 169	1	5	-0.10542	-9.22449	3.64441	2.52191
 170	1	5	-0.137294	-8.89105	4.70717	3.88705
 171	1	2	-0.155467	-6.97207	4.96359	1.40582
 172	1	5	-0.053736	-8.21001	6.56011	2.41537
 173	1	5	0.001015	-8.97459	5.75336	1.03245
 174	1	2	0.033419	-5.79075	4.8033	2.40422
 175	1	5	0.005395	-6.64422	5.54875	0.514332
 176	1	5	0.019028	-7.26474	3.96793	1.03568
 177	1	2	0.058829	-4.34898	4.68992	1.82606
 178	1	5	-0.00779	-6.02675	3.95074	3.13513
 179	1	5	-0.029026	-5.80968	5.68769	3.04585
 180	1	2	-0.029357	-3.9588	5.84106	0.805339
 181	1	5	-0.003083	-4.29196	3.74784	1.24947
 182	1	5	-0.010137	-3.65088	4.62206	2.72412
 183	1	2	-0.000585	-2.4362	6.04203	0.776735
 184	1	5	0.006084	-4.5481	6.73537	1.07414
 185	1	5	0.012201	-4.36644	5.55278	-0.149135
 186	1	2	-0.03118	-1.98829	7.0926	-0.243245
 187	1	5	0.011412	-1.87955	5.10823	0.623611
 188	1	5	0.011566	-2.12163	6.415	1.80404
 189	1	2	-0.057912	-0.525493	7.56871	-0.0913769
 190	1	5	0.001922	-2.59329	7.94813	-0.261677
 191	1	5	0.021794	-2.01211	6.60659	-1.17127
 192	1	6	-0.501673	-0.383246	8.40388	2.15011
 193	1	7	0.462	-0.31234	8.64791	0.927021
 194	1	5	0.029593	-0.209961	7.92999	-1.07822
 195	1	5	0.042406	0.131998	6.70923	0.129654
 196	1	1	-0.353484	-26.7992	5.64693	8.3504
 197	1	2	0.376337	-26.2034	6.78706	8.96367
 198	1	2	-0.897489	-24.7792	6.9757	8.34772
 199	1	3	0.034041	-26.1509	6.59045	10.0166
 200	1	3	0.012328	-26.8566	7.62257	8.81092
 201	1	4	0.229239	-26.0931	4.79345	8.42272
 202	1	2	0.531206	-23.7179	6.10057	9.10019
 203	1	5	0.202592	-24.4549	8.00094	8.22205
 204	1	5	0.099501	-24.665	6.58738	7.28919
 205	1	2	0.171725	-22.2439	6.51023	8.75816
 206	1	5	-0.10542	-23.8849	5.09376	8.82128
 207	1	5	-0.137294	-23.8446	6.12412	10.1976
 208	1	2	-0.155467	-21.2122	5.46379	9.26977
 209	1	5	-0.053736	-22.0675	7.52057	9.17345
 210	1	5	0.001015	-22.1212	6.72569	7.69957
 211	1	2	0.033419	-19.7865	5.63599	8.76468
 212	1	5	0.005395	-21.583	4.45802	9.04928
 213	1	5	0.019028	-21.0608	5.58815	10.35
 214	1	2	0.058829	-19.6912	5.32684	7.2783
 215	1	5	-0.00779	-19.1934	4.919	9.34009
 216	1	5	-0.029026	-19.3731	6.63625	9.03977
 217	1	2	-0.029357	-18.244	5.14929	6.74642
 218	1	5	-0.003083	-20.304	6.0252	6.68181
 219	1	5	-0.010137	-20.1645	4.37791	7.14775
 220	1	2	-0.000585	-18.1159	4.51218	5.32487
 221	1	5	0.006084	-17.6563	4.53605	7.44412
 222	1	5	0.012201	-17.7175	6.09044	6.81985
 223	1	2	-0.03118	-16.7966	4.83803	4.52864
 224	1	5	0.011412	-18.9649	4.83733	4.69084
 225	1	5	0.011566	-18.3234	3.46988	5.43478
 226	1	2	-0.057912	-15.531	4.14448	5.0212
 227	1	5	0.001922	-16.6853	5.90129	4.63226
 228	1	5	0.021794	-16.9139	4.66162	3.45824
 229	1	6	-0.501673	-14.1081	5.66191	3.89996
 230	1	7	0.462	-14.3176	4.48017	4.17066
 231	1	5	0.029593	-15.7059	3.01814	4.98929
 232	1	5	0.042406	-15.2817	4.50114	6.03495
 233	1	9	-0.26285	-31.178	3.14258	8.45138
 234	1	2	0.431937	-30.2276	3.97985	9.00806
 235	1	2	0.196566	-28.992	4.21553	8.10541
 236	1	3	-0.176879	-29.9622	3.64913	10.0663
 237	1	3	-0.045056	-30.6604	4.93229	9.01489
 238	1	2	0.080387	-28.111	5.19261	8.87385
 239	1	5	0.032783	-29.4386	4.7236	7.23617
 240	1	5	-0.126889	-28.557	3.27127	7.8381
 241	1	5	-0.081548	-27.8635	4.7141	9.84907
 242	1	5	-0.048451	-28.6795	6.09133	9.16231
 243	1	1	-0.353484	-41.7445	1.22291	11.7211
 244	1	2	0.376337	-41.4416	-0.0549566	12.3787
 245	1	2	-0.897489	-41.0412	0.0782067	13.8251
 246	1	3	0.034041	-40.5949	-0.493273	11.8465
 247	1	3	0.012328	-42.3042	-0.732265	12.2226
 248	1	4	0.229239	-40.8748	1.70761	11.5958
 249	1	2	0.531206	-39.681	0.775192	14.0619
 250	1	5	0.202592	-41.0901	-0.893507	14.3603
 251	1	5	0.099501	-41.8026	0.663727	14.3882
 252	1	2	0.171725	-39.66	2.31099	13.9186
 253	1	5	-0.10542	-38.9625	0.374293	13.3969
 254	1	5	-0.137294	-39.3244	0.548353	15.0569
 255	1	2	-0.155467	-38.3473	3.0463	14.1993
 256	1	5	-0.053736	-40.357	2.60586	14.6938
 257	1	5	0.001015	-40.0939	2.71711	12.9749
 258	1	2	0.033419	-37.2987	2.9658	12.9926
 259	1	5	0.005395	-37.9348	2.65819	15.1154
 260	1	5	0.019028	-38.6173	4.09054	14.4126
 261	1	2	0.058829	-36.0458	3.78046	13.3659
 262	1	5	-0.00779	-37.7072	3.43658	12.1302
 263	1	5	-0.029026	-37.0514	1.9686	12.7108
 264	1	2	-0.029357	-34.9783	3.85521	12.1983
 265	1	5	-0.003083	-35.5693	3.40767	14.2877
 266	1	5	-0.010137	-36.3061	4.80111	13.696
 267	1	2	-0.000585	-34.825	2.50811	11.4271
 268	1	5	0.006084	-34.0146	4.1279	12.5973
 269	1	5	0.012201	-35.2833	4.67315	11.4944
 270	1	2	-0.03118	-33.4504	2.47502	10.737
 271	1	5	0.011412	-35.7109	2.25843	10.7679
 272	1	5	0.011566	-34.7597	1.7081	12.1654
 273	1	2	-0.057912	-33.3316	3.28189	9.42016
 274	1	5	0.001922	-33.366	1.42424	10.5227
 275	1	5	0.021794	-32.5977	2.67575	11.4813
 276	1	6	-0.501673	-32.711	1.72657	7.58063
 277	1	7	0.462	-32.434	2.58357	8.37621
 278	1	5	0.029593	-33.011	4.30538	9.64907
 279	1	5	0.042406	-34.3079	3.40522	8.88947
 280	1	9	-0.26285	-46.3174	0.261403	9.94272
 281	1	2	0.431937	-44.9151	0.47172	9.57317
 282	1	2	0.196566	-44.1037	0.896729	10.8013
 283	1	3	-0.176879	-44.7842	1.26236	8.75992
 284	1	3	-0.045056	-44.5922	-0.468061	9.0909
 285	1	2	0.080387	-42.56	1.19139	10.5071
 286	1	5	0.032783	-44.2002	0.111532	11.5531
 287	1	5	-0.126889	-44.5769	1.75153	11.2674
 288	1	5	-0.081548	-42.4619	2.19047	10.0568
 289	1	5	-0.048451	-42.1665	0.462932	9.78811

Velocities

   1	-0.00572583	0.00448829	0.003239
   2	-0.00772954	0.00602324	0.0120866
   3	-0.00290689	-0.00475213	-0.00314022
   4	-0.00677988	0.0168175	0.0298389
   5	-1.21449e-05	0.00393592	0.0263389
   6	-0.00720846	0.0192913	-0.0091488
   7	0.000180603	-0.00148643	-0.00233156
   8	-0.00646807	-0.00127919	0.0024503
   9	-0.00828561	-0.006271	-0.00330521
  10	4.8549e-05	0.00479851	0.0049101
  11	-0.0024112	0.00812285	0.0122268
  12	0.0018177	0.0114255	0.0125866
  13	-0.0048403	0.00569584	-4.1504e-05
  14	-0.000210208	-0.0213714	-0.00312834
  15	-0.0130704	-0.00891435	0.0106068
  16	-0.00118612	0.0009845	0.00281833
  17	-0.000530186	-0.00246416	0.00842447
  18	-0.0173135	0.0094703	0.0167415
  19	0.00476013	-0.00649839	0.00512223
  20	0.00838043	-0.0265467	0.0155805
  21	0.0198282	-0.0106249	0.0253553
  22	-0.000699394	0.00634528	-0.00514408
  23	0.00817755	0.000668193	-0.00159133
  24	-0.00311148	-0.00454276	-0.00393111
  25	0.0072163	0.00345062	-0.00116925
  26	0.0103996	0.00608639	0.000366199
  27	-0.0050443	0.0191989	0.00821011
  28	0.00546585	-0.000684144	-0.0022822
  29	-0.023391	-0.0132225	-0.000484125
  30	-0.00227241	0.000316612	-0.0148723
  31	0.00642819	0.00334686	-0.00216072
  32	-0.01079	-0.00544497	-0.0109219
  33	0.0145347	0.0122111	0.00982303
  34	0.0030021	0.0093965	0.000753284
  35	0.00706938	0.00398939	0.00648291
  36	0.0158465	0.0176351	0.0110414
  37	0.0284587	0.00475367	-0.00864976
  38	-0.0119809	0.00213482	0.00482224
  39	0.0018092	-0.000185869	0.00280469
  40	0.00468663	-0.00271959	0.00394505
  41	0.00446006	-0.0333523	0.0348583
  42	0.00486978	0.029587	-2.55005e-05
  43	-0.0301946	-0.00843074	0.0334745
  44	-0.000973791	-0.0035603	0.00753775
  45	-0.0147531	-0.0106244	-0.000809072
  46	-0.00352432	0.0181368	0.0295493
  47	-0.00512454	-0.00141607	0.00138828
  48	0.0135136	-0.016344	0.0150935
  49	-0.0376712	-0.000514162	-0.00783856
  50	-0.0014293	0.00598316	0.00610859
  51	0.00674731	-0.00613689	-0.0150454
  52	-0.00788996	0.000345776	0.0287167
  53	-0.0134671	0.00355098	0.0103579
  54	-0.00328612	-0.0149762	0.0200717
  55	-0.00945066	0.00790845	0.00489413
  56	-0.00801519	0.00601542	0.0104578
  57	-0.00613597	0.013127	0.0345934
  58	0.0108437	-0.00411159	0.00310869
  59	-0.00341796	-0.00142468	0.00136985
  60	0.00125653	0.0268348	0.0268087
  61	0.00395367	0.000719777	0.00289176
  62	-0.00924275	-0.00237777	0.0092967
  63	-0.00813545	0.00259768	-0.010726
  64	-0.0406187	-0.0162604	-0.000959386
  65	-0.0157203	-0.00502193	0.00659472
  66	-0.0216654	-0.0024024	-0.013624
  67	0.00896365	0.0198902	-0.00511042
  68	0.00101234	-0.00387539	-0.000639958
  69	0.00645107	0.016227	-0.00350587
  70	0.00919022	0.000957783	-0.00840676
  71	-0.00354696	0.00267435	-0.00442366
  72	-0.000979472	0.00448771	0.000215458
  73	-0.000900733	0.0066808	0.000817447
  74	-0.0118352	0.0222092	-0.00312866
  75	0.00492943	-0.00326295	0.00714908
  76	-0.00370547	-0.00249457	0.0130044
  77	-0.00870156	0.00181063	-6.35243e-05
  78	0.0372464	0.058429	0.0206584
  79	-0.0224304	-0.0244388	-0.00966728
  80	0.00795766	-0.000646065	0.00306011
  81	0.0498632	-0.0197332	0.00196808
  82	0.0113685	0.00406494	0.0277939
  83	-0.00799132	-0.0182699	0.0011867
  84	-0.0283143	-0.00697101	0.0115216
  85	0.00731592	2.31095e-05	0.00602797
  86	0.00554371	-0.000676156	0.009775
  87	-0.000138293	-0.00989368	-0.000700441
  88	-0.0195409	-0.0123444	-0.014973
  89	-0.00555445	0.000362566	0.0111076
  90	-0.0338438	0.00721376	0.000425052
  91	-0.000859471	-0.00549431	0.00175027
  92	-0.0440937	-0.0515729	-0.0257145
  93	0.0057661	-0.0354092	-0.00013767
  94	-0.00303659	-0.00135065	0.00606957
  95	-0.0036583	-0.0173562	0.0159411
  96	-0.0043171	0.0189169	0.00805902
  97	0.00890773	0.00813	-0.0101815
  98	-0.0360085	-0.00418087	0.00151009
  99	-0.0202872	0.0100693	-0.0223837
 100	-0.00244088	-0.000234575	-0.0085407
 101	0.0371346	-0.0178432	0.0178203
 102	-0.0172047	0.00186824	0.0116689
 103	0.00573825	0.00176329	0.0029014
 104	-0.0155975	-0.0142457	-0.00972669
 105	-0.0125912	-0.0159412	0.0269687
 106	0.00193675	0.0075314	0.00109532
 107	-0.0213692	-0.0246268	0.0100097
 108	-0.0154118	0.0054375	-0.0372032
 109	-0.00182447	-0.00809572	-0.00765623
 110	-0.000161642	0.0207148	0.0141634
 111	-0.00148647	0.0192378	-0.00683964
 112	0.00102129	0.00735877	0.0041933
 113	-0.01916	0.0239655	-0.0316353
 114	-0.0369936	0.00506095	-0.00142576
 115	-0.00147243	0.0101478	-0.00551285
 116	-0.0113894	0.0242904	0.024549
 117	0.0165629	0.0221639	0.0193146
 118	-0.00882726	-0.00530395	-0.00338638
 119	-0.00613535	0.00774503	0.00832594
 120	-0.00395129	0.0246675	-0.014014
 121	-0.0174769	-0.0191442	0.0132756
 122	-0.00347962	-0.0103856	-0.00259701
 123	-0.00985404	-0.000341563	0.00315462
 124	0.00866299	-0.0097639	0.00314434
 125	0.0187508	0.0134042	-0.0054948
 126	0.00213408	-0.00809839	0.00813402
 127	-0.00596393	-0.0118977	0.00256826
 128	2.384e-05	-0.00900784	-0.00592811
 129	0.00829114	0.0241371	-0.00966813
 130	-0.0230705	-0.0118237	-0.00324362
 131	0.000414318	-0.0106615	0.00679164
 132	0.00326035	-0.00559062	-0.0216694
 133	-0.0133157	-0.0251216	0.00608917
 134	-0.00857251	-0.00380561	-0.000387106
 135	0.00814406	-0.00276971	-0.00237028
 136	0.010579	-0.0023585	-0.0117564
 137	-0.00394732	0.000615068	0.00346414
 138	0.00106955	-0.0127185	-0.00211264
 139	0.00927719	0.00229365	-0.00703955
 140	-0.00262801	-0.0111071	0.00358834
 141	-0.00169374	-0.0157783	-0.00476018
 142	0.0105927	0.00508406	0.00771942
 143	0.00606264	0.00306536	0.000674782
 144	0.0140329	-0.0137983	-0.00968209
 145	-0.0188769	0.0044311	0.0118334
 146	-0.00518401	-0.00976256	0.0122185
 147	0.0273275	-0.00549241	-0.0143694
 148	-0.00720911	-0.0195878	0.000888509
 149	0.00479941	-0.00600005	0.00480302
 150	-0.0138329	-0.024237	-0.00538408
 151	0.00181383	0.00530742	0.000938134
 152	0.00382641	0.00550938	-0.00990147
 153	0.00785743	-0.013001	-0.00291411
 154	0.0175002	0.0107081	0.0119297
 155	-0.00235736	0.0110346	-0.00106431
 156	-0.00226872	-0.00340191	-0.00582157
 157	0.0116291	-0.0114776	0.0145013
 158	0.000739936	-0.0173108	-0.0250376
 159	0.00164434	-0.00329462	-0.00569274
 160	0.000827096	-0.00128199	0.00444966
 161	0.00805552	0.00174098	-0.00108371
 162	-0.00289157	0.0180247	-0.0117125
 163	-0.0169374	-0.0207616	0.0110684
 164	-0.00551861	0.0058411	-0.0027382
 165	0.00189568	-0.00490115	-0.00598433
 166	0.00270943	-0.0120843	-0.0200372
 167	-0.0254234	-0.0196554	0.00943533
 168	-0.000713504	0.000461652	0.0044535
 169	-0.0075763	-0.00252815	-0.020828
 170	0.0146891	-0.00523965	-0.00637484
 171	-0.00374157	-0.00162678	0.00226942
 172	0.00841842	-0.0018957	0.00982591
 173	0.00394449	-0.000729926	-0.00930189
 174	-0.00179267	0.00141305	-0.00378135
 175	-0.00173726	-0.0039289	0.013136
 176	-0.0153494	0.015493	-0.00267065
 177	-0.00321235	-0.00099049	-0.00384165
 178	-0.0106406	-0.00798581	0.0152021
 179	-0.00205789	-0.0253304	0.016047
 180	-0.00400693	-0.00794989	-0.00712647
 181	0.0132485	0.000405735	-0.0094488
 182	0.00536541	0.0131334	0.00115735
 183	-0.00290214	-0.00684939	-0.00108736
 184	-0.00179924	-0.0176974	0.00778512
 185	-0.00827891	-0.000579307	-0.00197721
 186	0.0031231	-0.00687847	-0.00240585
 187	-0.011763	0.00459336	0.00727079
 188	0.0160571	-0.0119928	0.0032671
 189	0.00529435	-0.000321169	-0.0103922
 190	-0.00507514	-0.0240185	0.03798
 191	0.00502207	-0.0210264	0.00757984
 192	0.00343414	-0.00554502	-0.00614445
 193	0.00279811	-0.000114512	-0.00400661
 194	-0.00703625	0.0116145	-0.00162849
 195	-0.0129804	-0.0111298	-0.0153
 196	0.00221038	-0.00377872	-0.00126757
 197	0.00508065	0.00962461	0.00143594
 198	-0.0009776	0.00498241	-0.00352244
 199	0.00405318	0.0247439	-0.00146705
 200	-0.00328851	0.0118737	-0.00276355
 201	-0.00440975	0.00370984	0.0166098
 202	-0.00790169	0.00541512	-0.00406519
 203	-0.00849532	-0.00837864	-0.00639299
 204	-0.00353803	0.00302118	0.00559763
 205	0.000408999	-0.0036582	0.000440817
 206	0.00179763	-0.0188751	-0.00855253
 207	-0.0123711	0.00466306	-0.00696899
 208	-0.00102663	0.00625447	0.000668253
 209	0.00293807	-0.0129062	-0.000557455
 210	0.00115913	-0.00584514	0.00455637
 211	0.00030421	-0.00315048	-0.00445966
 212	0.00850282	0.0342794	0.0121054
 213	-0.00158375	0.00897589	-0.00188886
 214	0.00349021	-0.00151257	0.002822
 215	-0.0024935	0.0243099	0.00249047
 216	-0.0130146	0.00859853	0.00148164
 217	0.000684528	0.00519446	-0.00436511
 218	0.00498532	-0.0217291	0.00398515
 219	0.0212879	0.021661	-0.00630513
 220	0.00140912	-0.00208433	-0.0101101
 221	-0.0166738	0.016231	-0.00123664
 222	0.00356774	-0.00583638	-0.0142585
 223	0.00505878	0.00242435	0.00402863
 224	0.0174761	0.0200019	-0.00531162
 225	-0.00565087	-0.000301313	-0.0579706
 226	0.00654429	1.80935e-05	0.00219316
 227	0.00567906	-0.0174216	0.00731942
 228	-0.00796979	-0.0307216	0.0266411
 229	-0.00499563	-0.00382245	0.00543567
 230	0.00374633	0.0010384	-0.00657422
 231	0.00422238	-0.0335302	-0.00267467
 232	0.0179438	-0.0149315	0.0040364
 233	-9.98587e-05	0.0019773	0.00557008
 234	0.000346519	0.00736294	0.00298413
 235	-0.00551447	0.00680963	0.0013908
 236	0.00953167	0.00506861	-0.0176857
 237	-0.0167811	0.00323739	0.0151913
 238	-0.00173436	-0.00370884	0.00218087
 239	0.00789476	-0.00288957	0.0220752
 240	-0.0143279	0.0204461	0.0162079
 241	-0.0217702	-0.0160731	-0.00386645
 242	-0.00286248	0.0124679	0.0133204
 243	0.00876353	0.00903355	0.0024759
 244	0.00291682	0.00263516	-0.0085838
 245	0.000287131	0.00203616	-0.00221726
 246	-0.00627301	-0.0240457	-0.00867423
 247	-0.0146554	0.00461017	-0.00661866
 248	0.000989303	0.00713299	0.00151944
 249	0.00436482	-0.00325053	-0.00648333
 250	-0.00853034	-0.00922937	-0.00864131
 251	-0.0199492	-0.0372907	0.00438299
 252	0.00084994	0.00019084	-0.00173668
 253	-0.000586246	0.000397151	-0.0040251
 254	0.0102987	-0.0170876	-0.00639984
 255	-0.00182921	0.00277922	0.00269586
 256	-0.0175155	0.02299	-0.00429089
 257	-0.0103436	-0.0158477	-0.00944848
 258	-0.0024228	-0.00426596	-0.00336532
 259	-0.0169152	0.0180226	-0.0156549
 260	-0.00577572	-0.00373462	0.00867368
 261	-0.00626122	-8.33425e-06	-0.00126163
 262	0.00192734	-0.00412002	-0.00237272
 263	-0.000291971	0.00124297	-0.0173593
 264	-0.00321594	0.00659326	-0.00377743
 265	0.0109845	0.0280572	-0.0149485
 266	0.0107005	-0.00318863	-0.0120515
 267	0.000626516	0.00526923	0.00494918
 268	-0.016664	0.0113458	0.00834221
 269	0.00191713	0.0152965	0.0157657
 270	0.00276448	0.00775985	0.000505679
 271	-0.00982566	0.0109471	-0.0141534
 272	-0.000618863	-0.00108803	0.00480506
 273	-0.0113701	0.00522887	0.00309747
 274	0.00212443	-0.00895273	-0.00894871
 275	-0.00489991	0.0212607	0.0115851
 276	-0.00333611	0.00211185	-0.00201249
 277	-0.00382057	0.00588865	-0.00649534
 278	0.0157674	0.00305281	0.0048047
 279	-0.0038457	-0.00833647	-0.008267
 280	-5.84264e-05	0.00339673	-0.00110453
 281	-0.00186068	0.0045693	-0.000281204
 282	0.00297367	0.00286923	-0.000878994
 283	-0.0125009	-0.00323433	0.00111557
 284	-0.00751972	-0.0061426	-0.00190917
 285	-0.00397851	-0.00104904	-0.0032471
 286	0.0129783	-0.0106042	0.0177967
 287	0.00270807	0.0121197	0.0135734
 288	0.00599203	0.00320017	0.00897557
 289	0.0267483	0.00118365	-0.00266192

Bonds

   1	5	1	2
   2	2	1	6
   3	1	2	3
   4	3	2	4
   5	3	2	5
   6	1	3	7
   7	7	3	8
   8	7	3	9
   9	1	7	10
  10	7	7	11
  11	7	7	12
  12	1	10	13
  13	7	10	14
  14	7	10	15
  15	1	13	16
  16	7	13	17
  17	7	13	18
  18	1	16	19
  19	7	16	20
  20	7	16	21
  21	1	19	22
  22	7	19	23
  23	7	19	24
  24	1	22	25
  25	7	22	26
  26	7	22	27
  27	1	25	28
  28	7	25	29
  29	7	25	30
  30	1	28	31
  31	7	28	32
  32	7	28	33
  33	8	31	35
  34	7	31	36
  35	7	31	37
  36	4	34	35
  37	5	38	39
  38	2	38	43
  39	1	39	40
  40	3	39	41
  41	3	39	42
  42	1	40	44
  43	7	40	45
  44	7	40	46
  45	1	44	47
  46	7	44	48
  47	7	44	49
  48	1	47	50
  49	7	47	51
  50	7	47	52
  51	1	50	53
  52	7	50	54
  53	7	50	55
  54	1	53	56
  55	7	53	57
  56	7	53	58
  57	1	56	59
  58	7	56	60
  59	7	56	61
  60	1	59	62
  61	7	59	63
  62	7	59	64
  63	1	62	65
  64	7	62	66
  65	7	62	67
  66	1	65	68
  67	7	65	69
  68	7	65	70
  69	8	68	72
  70	7	68	73
  71	7	68	74
  72	4	71	72
  73	9	1	72
  74	10	75	76
  75	1	76	77
  76	3	76	78
  77	3	76	79
  78	1	77	80
  79	7	77	81
  80	7	77	82
  81	7	80	83
  82	7	80	84
  83	5	38	80
  84	5	85	86
  85	2	85	90
  86	1	86	87
  87	3	86	88
  88	3	86	89
  89	1	87	91
  90	7	87	92
  91	7	87	93
  92	1	91	94
  93	7	91	95
  94	7	91	96
  95	1	94	97
  96	7	94	98
  97	7	94	99
  98	1	97	100
  99	7	97	101
 100	7	97	102
 101	1	100	103
 102	7	100	104
 103	7	100	105
 104	1	103	106
 105	7	103	107
 106	7	103	108
 107	1	106	109
 108	7	106	110
 109	7	106	111
 110	1	109	112
 111	7	109	113
 112	7	109	114
 113	1	112	115
 114	7	112	116
 115	7	112	117
 116	8	115	119
 117	7	115	120
 118	7	115	121
 119	4	118	119
 120	12	75	119
 121	5	122	123
 122	2	122	127
 123	1	123	124
 124	3	123	125
 125	3	123	126
 126	1	124	128
 127	7	124	129
 128	7	124	130
 129	1	128	131
 130	7	128	132
 131	7	128	133
 132	1	131	134
 133	7	131	135
 134	7	131	136
 135	1	134	137
 136	7	134	138
 137	7	134	139
 138	1	137	140
 139	7	137	141
 140	7	137	142
 141	1	140	143
 142	7	140	144
 143	7	140	145
 144	1	143	146
 145	7	143	147
 146	7	143	148
 147	1	146	149
 148	7	146	150
 149	7	146	151
 150	1	149	152
 151	7	149	153
 152	7	149	154
 153	8	152	156
 154	7	152	157
 155	7	152	158
 156	4	155	156
 157	9	85	156
 158	5	159	160
 159	2	159	164
 160	1	160	161
 161	3	160	162
 162	3	160	163
 163	1	161	165
 164	7	161	166
 165	7	161	167
 166	1	165	168
 167	7	165	169
 168	7	165	170
 169	1	168	171
 170	7	168	172
 171	7	168	173
 172	1	171	174
 173	7	171	175
 174	7	171	176
 175	1	174	177
 176	7	174	178
 177	7	174	179
 178	1	177	180
 179	7	177	181
 180	7	177	182
 181	1	180	183
 182	7	180	184
 183	7	180	185
 184	1	183	186
 185	7	183	187
 186	7	183	188
 187	1	186	189
 188	7	186	190
 189	7	186	191
 190	8	189	193
 191	7	189	194
 192	7	189	195
 193	4	192	193
 194	9	122	193
 195	5	196	197
 196	2	196	201
 197	1	197	198
 198	3	197	199
 199	3	197	200
 200	1	198	202
 201	7	198	203
 202	7	198	204
 203	1	202	205
 204	7	202	206
 205	7	202	207
 206	1	205	208
 207	7	205	209
 208	7	205	210
 209	1	208	211
 210	7	208	212
 211	7	208	213
 212	1	211	214
 213	7	211	215
 214	7	211	216
 215	1	214	217
 216	7	214	218
 217	7	214	219
 218	1	217	220
 219	7	217	221
 220	7	217	222
 221	1	220	223
 222	7	220	224
 223	7	220	225
 224	1	223	226
 225	7	223	227
 226	7	223	228
 227	8	226	230
 228	7	226	231
 229	7	226	232
 230	4	229	230
 231	9	159	230
 232	10	233	234
 233	1	234	235
 234	3	234	236
 235	3	234	237
 236	1	235	238
 237	7	235	239
 238	7	235	240
 239	7	238	241
 240	7	238	242
 241	5	196	238
 242	5	243	244
 243	2	243	248
 244	1	244	245
 245	3	244	246
 246	3	244	247
 247	1	245	249
 248	7	245	250
 249	7	245	251
 250	1	249	252
 251	7	249	253
 252	7	249	254
 253	1	252	255
 254	7	252	256
 255	7	252	257
 256	1	255	258
 257	7	255	259
 258	7	255	260
 259	1	258	261
 260	7	258	262
 261	7	258	263
 262	1	261	264
 263	7	261	265
 264	7	261	266
 265	1	264	267
 266	7	264	268
 267	7	264	269
 268	1	267	270
 269	7	267	271
 270	7	267	272
 271	1	270	273
 272	7	270	274
 273	7	270	275
 274	8	273	277
 275	7	273	278
 276	7	273	279
 277	4	276	277
 278	12	233	277
 279	10	280	281
 280	1	281	282
 281	3	281	283
 282	3	281	284
 283	1	282	285
 284	7	282	286
 285	7	282	287
 286	7	285	288
 287	7	285	289
 288	5	243	285

Angles
