pySIMM System Object

137 atoms
136 bonds
257 angles
338 dihedrals
0 impropers

10 atom types
11 bond types
23 angle types
12 dihedral types
1 improper types

-51.000287 51.000287 xlo xhi
-51.000287 51.000287 ylo yhi
-51.000287 51.000287 zlo zhi

Masses

   1	16.0	# oh
   2	12.01	# c3
   3	1.008	# h1
   4	1.008	# hc
   5	1.008	# ho
   6	14.01	# n3
   7	1.008	# hn
   8	16.0	# o
   9	12.01	# c
  10	1.008	# h4

Pair Coeffs

   1	0.2104	3.0664733878390478	# oh
   2	0.1094	3.3996695084235347	# c3
   3	0.0157	2.471353044121301	# h1
   4	0.0157	2.649532787749369	# hc
   5	0.0047	0.5379246460131368	# ho
   6	0.17	3.249998523775958	# n3
   7	0.0157	1.069078461768407	# hn
   8	0.21	2.959921901149463	# o
   9	0.086	3.3996695084235347	# c
  10	0.015	2.5105525877194763	# h4

Bond Coeffs

   1	316.7	1.4233	# c3,oh
   2	330.6	1.0969	# c3,h1
   3	371.4	0.973	# ho,oh
   4	300.9	1.5375	# c3,c3
   5	330.6	1.0969	# c3,hc
   6	392.4	1.019	# hn,n3
   7	637.7	1.2183	# c,o
   8	325.9	1.4647	# c3,n3
   9	310.7	1.1121	# c,h4
  10	313.0	1.5241	# c,c3
  11	400.1	1.3513	# c,oh

Angle Coeffs

   1	39.24	108.46	# h1,c3,h1
   2	62.86	111.51	# c3,c3,c3
   3	67.47	110.19	# c3,c3,oh
   4	46.34	109.8	# c3,c3,hc
   5	39.4	107.58	# hc,c3,hc
   6	50.93	110.26	# h1,c3,oh
   7	47.38	107.26	# c3,oh,ho
   8	46.39	109.56	# c3,c3,h1
   9	62.7	112.48	# c3,oh,c3
  10	51.11	109.5	# hc,c3,oh
  11	66.02	111.04	# c3,c3,n3
  12	45.64	114.64	# c3,c,h4
  13	41.4	106.4	# hn,n3,hn
  14	67.4	123.2	# c3,c,o
  15	47.42	109.29	# c3,n3,hn
  16	63.27	111.04	# c,c3,c3
  17	46.93	108.77	# c,c3,hc
  18	49.53	109.88	# h1,c3,n3
  19	54.22	120.7	# h4,c,o
  20	68.4	112.73	# c3,c,oh
  21	75.92	122.1	# o,c,oh
  22	63.82	112.35	# c3,n3,c3
  23	49.55	109.8	# hc,c3,n3

Dihedral Coeffs

   1	1	0.15555555555555556	3	0	# X,c3,c3,X
   2	2	0.16	3	0	0.25	1	0	# ho,oh,c3,c3
   3	1	0.16	3	0	# hc,c3,c3,c3
   4	1	0.15	3	0	# hc,c3,c3,hc
   5	1	0.16666666666666666	3	0	# X,c3,oh,X
   6	2	0.0	3	0	0.25	1	0	# hc,c3,c3,oh
   7	1	0.3	3	0	# X,c3,n3,X
   8	3	0.18	3	0	0.25	2	180	0.2	1	180	# c3,c3,c3,c3
   9	1	0.0	2	180	# X,c,c3,X
  10	3	0.8	1	0	0.0	2	0	0.08	3	180	# hc,c3,c,o
  11	1	2.3	2	180	# X,c,oh,X
  12	2	0.3	3	0	0.48	2	180	# c3,c3,n3,c3

Improper Coeffs

   1	10.5	-1	2	# c,X,X,o

Atoms

   1	1	1	-0.26285	12.374	13.3455	0.0064267
   2	1	2	0.431937	13.1782	12.8595	1.04884
   3	1	2	0.196566	14.5837	12.6618	0.618308
   4	1	3	-0.176879	12.7626	11.8765	1.23753
   5	1	3	-0.045056	13.0456	13.4307	1.95559
   6	1	2	0.080387	15.3502	11.7536	1.60247
   7	1	4	0.032783	15.1239	13.657	0.403162
   8	1	4	-0.126889	14.5851	12.1167	-0.343457
   9	1	4	-0.081548	14.9258	10.7577	1.64878
  10	1	4	-0.048451	15.0557	12.2387	2.57186
  11	1	1	-0.26285	9.9665	14.1649	1.83064
  12	1	2	0.431937	10.1335	15.4352	1.18407
  13	1	2	0.196566	10.8463	15.331	-0.181512
  14	1	3	-0.176879	10.856	15.983	1.89454
  15	1	3	-0.045056	9.12379	15.9509	1.14726
  16	1	2	0.080387	12.2771	14.76	-0.240053
  17	1	4	0.032783	10.9449	16.342	-0.671671
  18	1	4	-0.126889	10.2541	14.8275	-0.96541
  19	1	4	-0.081548	12.8987	15.3086	0.467075
  20	1	4	-0.048451	12.6667	14.9073	-1.22291
  21	1	1	-0.26285	9.70664	10.3763	4.41538
  22	1	2	0.431937	10.3288	11.4002	3.63698
  23	1	2	0.196566	9.69474	12.746	3.86171
  24	1	3	-0.176879	10.3432	11.2228	2.58135
  25	1	3	-0.045056	11.3957	11.4282	3.82198
  26	1	2	0.080387	10.3994	13.982	3.21784
  27	1	4	0.032783	9.62743	12.9101	4.92743
  28	1	4	-0.126889	8.62677	12.686	3.50993
  29	1	4	-0.081548	11.4862	13.9164	3.25626
  30	1	4	-0.048451	10.2602	14.8764	3.74828
  31	1	1	-0.26285	7.69447	7.20151	6.12027
  32	1	2	0.431937	8.87952	8.00883	6.05231
  33	1	2	0.196566	9.51266	7.89322	4.7109
  34	1	3	-0.176879	9.60495	7.78184	6.85734
  35	1	3	-0.045056	8.6421	9.08146	6.23062
  36	1	2	0.080387	10.367	9.08423	4.4059
  37	1	4	0.032783	8.71106	7.71791	3.95219
  38	1	4	-0.126889	10.1661	7.04648	4.6499
  39	1	4	-0.081548	10.7955	8.85356	3.4057
  40	1	4	-0.048451	11.1475	9.07491	5.17426
  41	1	1	-0.26285	5.07624	4.79903	6.70854
  42	1	2	0.431937	5.76285	5.34253	7.78976
  43	1	2	0.196566	7.33391	5.25999	7.51851
  44	1	3	-0.176879	5.43921	4.8159	8.71122
  45	1	3	-0.045056	5.48561	6.35475	7.94488
  46	1	2	0.080387	7.90417	5.79086	6.18626
  47	1	4	0.032783	7.64155	4.26413	7.54082
  48	1	4	-0.126889	7.84248	5.68319	8.39661
  49	1	4	-0.081548	7.40501	5.26203	5.3064
  50	1	4	-0.048451	8.97821	5.59662	6.16498
  51	1	1	-0.26285	0.867306	4.51181	6.15164
  52	1	2	0.431937	1.49041	3.29609	6.01148
  53	1	2	0.196566	3.05014	3.54089	5.68237
  54	1	3	-0.176879	0.988639	2.71407	5.18437
  55	1	3	-0.045056	1.41932	2.72135	6.93584
  56	1	2	0.080387	3.64725	4.61443	6.70256
  57	1	4	0.032783	3.13482	3.86585	4.60401
  58	1	4	-0.126889	3.56106	2.6525	5.9097
  59	1	4	-0.081548	3.41659	4.32023	7.70007
  60	1	4	-0.048451	3.24314	5.61373	6.45509
  61	1	1	-0.26285	-2.05398	7.46969	7.42053
  62	1	2	0.431937	-1.27992	6.28353	7.21407
  63	1	2	0.196566	-0.813615	6.29895	5.74107
  64	1	3	-0.176879	-1.8991	5.41824	7.34774
  65	1	3	-0.045056	-0.415828	6.19195	7.87648
  66	1	2	0.080387	-0.139337	4.94793	5.24758
  67	1	4	0.032783	-0.0950895	7.11066	5.61874
  68	1	4	-0.126889	-1.65683	6.46781	5.1143
  69	1	4	-0.081548	0.104611	4.98323	4.22923
  70	1	4	-0.048451	-0.869054	4.17673	5.30041
  71	1	1	-0.26285	-2.76618	11.0546	6.70233
  72	1	2	0.431937	-2.92616	10.4369	7.95578
  73	1	2	0.196566	-1.69994	9.72534	8.46074
  74	1	3	-0.176879	-3.84326	9.86097	7.79569
  75	1	3	-0.045056	-3.16228	11.1506	8.73386
  76	1	2	0.080387	-1.21275	8.66063	7.49698
  77	1	4	0.032783	-1.97554	9.30349	9.43827
  78	1	4	-0.126889	-0.877854	10.3825	8.77743
  79	1	4	-0.081548	-0.255689	8.35677	7.91656
  80	1	4	-0.048451	-1.01919	9.01823	6.47136
  81	1	6	-0.353484	-7.42282	6.57156	8.84569
  82	1	2	0.376337	-8.18705	7.70253	9.26074
  83	1	2	-0.897489	-9.06722	8.09003	8.07895
  84	1	3	0.034041	-7.55126	8.54515	9.57273
  85	1	3	0.012328	-8.80489	7.52981	10.1062
  86	1	7	0.229239	-8.06962	6.02918	8.19208
  87	1	2	0.531206	-9.70513	9.52777	8.261
  88	1	4	0.202592	-9.86476	7.28032	8.03881
  89	1	4	0.099501	-8.57711	8.04187	7.09407
  90	1	2	0.171725	-10.297	10.24	6.96822
  91	1	4	-0.10542	-8.98622	10.2432	8.80045
  92	1	4	-0.137294	-10.5087	9.28925	9.01211
  93	1	2	-0.155467	-9.29636	10.5272	5.76436
  94	1	4	-0.053736	-10.8037	11.1484	7.2235
  95	1	4	0.001015	-10.9834	9.53549	6.52954
  96	1	2	0.033419	-8.21758	11.6534	6.02897
  97	1	4	0.005395	-9.9819	10.7752	4.92771
  98	1	4	0.019028	-8.81877	9.60305	5.50211
  99	1	2	0.058829	-7.43	12.1597	4.81125
 100	1	4	-0.00779	-7.51748	11.2345	6.76712
 101	1	4	-0.029026	-8.65823	12.514	6.5397
 102	1	2	-0.029357	-6.03952	12.7038	5.37214
 103	1	4	-0.003083	-7.96636	12.8856	4.20904
 104	1	4	-0.010137	-7.2357	11.351	4.11918
 105	1	2	-0.000585	-5.22454	13.2657	4.206
 106	1	4	0.006084	-5.48198	12.0053	5.93459
 107	1	4	0.012201	-6.19203	13.5003	6.15597
 108	1	2	-0.03118	-3.85368	13.7198	4.78202
 109	1	4	0.011412	-5.74277	14.0798	3.76234
 110	1	4	0.011566	-5.06749	12.5355	3.41488
 111	1	2	-0.057912	-2.74457	12.6623	4.94826
 112	1	4	0.001922	-4.03853	14.3378	5.65825
 113	1	4	0.021794	-3.44884	14.2453	3.93828
 114	1	8	-0.501673	-2.57077	13.2075	7.30972
 115	1	9	0.462	-2.65423	12.3705	6.46409
 116	1	4	0.029593	-1.72963	13.107	4.61188
 117	1	4	0.042406	-2.92197	11.7567	4.32582
 118	1	1	-0.26285	-6.44473	2.52449	10.5253
 119	1	2	0.431937	-6.92456	3.68591	11.2151
 120	1	2	0.196566	-7.66503	4.61831	10.2956
 121	1	3	-0.176879	-6.03937	4.26549	11.6326
 122	1	3	-0.045056	-7.60227	3.4996	12.0246
 123	1	2	0.080387	-6.70262	5.70732	9.7663
 124	1	4	0.032783	-8.4178	5.10223	10.9416
 125	1	4	-0.126889	-8.1632	4.11827	9.38275
 126	1	4	-0.081548	-5.98653	5.1867	9.14093
 127	1	4	-0.048451	-6.28238	6.24028	10.57
 128	1	1	-0.26285	-5.88518	-0.784384	13.3258
 129	1	2	0.431937	-4.95973	0.267934	13.3838
 130	1	2	0.196566	-5.35566	1.51774	12.5496
 131	1	3	-0.176879	-4.04704	-0.0872787	12.9227
 132	1	3	-0.045056	-4.7199	0.615117	14.3643
 133	1	2	0.080387	-6.19341	1.31933	11.3143
 134	1	4	0.032783	-4.45906	2.0877	12.3266
 135	1	4	-0.126889	-5.83484	2.17888	13.2377
 136	1	4	-0.081548	-7.18675	0.931621	11.6437
 137	1	4	-0.048451	-5.71047	0.503929	10.7352

Velocities

   1	0.00344491	-0.00292955	-0.00380117
   2	-0.00433965	0.00595767	-0.00351464
   3	0.00985026	0.000644624	0.00695105
   4	-0.00756102	-0.00389144	-0.0168487
   5	-0.0045106	0.0083163	0.00325129
   6	0.00558813	0.00442809	-0.00471195
   7	-0.0204763	-0.017067	-0.000311948
   8	0.00854819	0.00764689	0.00881881
   9	0.0139542	-0.00126543	0.00205407
  10	0.00193046	-0.00104262	0.0177984
  11	0.00339788	-0.00161568	0.00648198
  12	0.00258523	-0.00598847	0.005937
  13	-0.00304117	-0.00199172	-0.0101196
  14	-0.0127495	-0.0226968	0.00310577
  15	0.0112118	-0.0104774	-0.00108616
  16	0.00458225	0.00372484	0.000281103
  17	0.0104908	-0.0165174	0.00440106
  18	-0.0146318	0.0144629	0.000727376
  19	-0.0047424	-0.00904017	-0.00673623
  20	-0.00119533	-0.0140249	0.000135561
  21	0.00943199	0.00299607	0.00575358
  22	-0.00176492	0.00196812	0.00145032
  23	0.00341286	-0.00332099	0.00174689
  24	-0.0151735	0.0024672	-0.00370265
  25	0.00118644	-0.00373573	-0.0177696
  26	-0.00338841	-0.00795182	-0.0017907
  27	0.00880383	-3.96325e-05	0.00292404
  28	-0.00415664	-0.0280425	-0.00897111
  29	0.0025803	-0.0134296	0.002019
  30	0.0270026	-0.0101717	-0.0275163
  31	0.00233319	0.00144904	0.00544433
  32	0.00192529	0.00304942	-0.00870946
  33	0.00502236	-0.0125771	-0.000681868
  34	-0.0171956	-0.0193576	0.000747689
  35	-0.0343824	-0.0157542	-0.00220776
  36	-0.00775546	-0.00833274	-0.00089541
  37	0.0139198	-0.00111548	0.0137891
  38	-0.0224387	0.00666023	0.00180632
  39	0.00416437	-0.00393657	0.0183053
  40	0.0115776	-0.0162729	-0.0128496
  41	0.00247779	-0.00167236	0.00115567
  42	0.007437	-0.00681726	0.00107628
  43	0.00925926	-0.00797772	-0.00532424
  44	0.00338755	-0.00725905	0.00966028
  45	0.0210584	0.00784275	0.00143262
  46	0.00399005	0.00155608	-3.22133e-05
  47	-0.00012485	0.0126242	0.0155037
  48	0.0101171	0.0169391	0.011245
  49	-0.0038943	0.00156578	-0.0191706
  50	0.0142173	-0.00102151	-0.00378439
  51	0.00356989	0.00360886	0.000104428
  52	-0.00303019	-0.000839361	-0.00262714
  53	-0.00560426	0.00155851	0.00573831
  54	-0.00509152	-0.0133498	0.00474982
  55	0.00638028	0.0104834	-0.00772716
  56	-0.00729549	-0.00225163	-0.00298674
  57	-0.0274528	-0.00950455	0.0175778
  58	-0.00627845	0.00166731	-0.00183353
  59	0.0149241	0.00601484	-0.00461853
  60	-0.0257672	0.00490277	0.0186044
  61	-0.00344792	0.00645705	0.00250784
  62	0.00698801	0.00394681	0.00313131
  63	0.000502937	0.00293437	0.0099525
  64	0.0126304	0.00301832	-0.0198266
  65	-0.00118011	0.0186367	0.00830124
  66	-0.000430684	0.00240796	-0.00600242
  67	0.0148728	-0.0256162	0.00108929
  68	-0.0203156	-0.0193969	0.00102051
  69	-0.00822191	0.00814312	-0.00385642
  70	-0.00412816	0.00846317	-0.0159033
  71	0.00091439	0.00609553	0.00685191
  72	0.00424306	0.00719276	0.0018649
  73	-0.000176625	0.00371088	0.0125284
  74	0.00668256	-0.0167043	0.0198065
  75	0.0163157	-0.00915934	0.0142896
  76	0.00138923	-0.00539747	0.00154714
  77	-0.00663532	-0.00480721	0.0201271
  78	0.0193944	0.00365297	0.00144152
  79	0.00930751	0.00668467	0.0147018
  80	0.00641782	-0.0131965	-0.01145
  81	-0.00332624	0.00230139	-0.00237102
  82	-0.00295439	0.0122677	-0.00148235
  83	0.000437719	0.00463849	0.00219035
  84	-0.00194193	0.0189508	-0.000819388
  85	-0.0199331	-0.0002799	0.00586771
  86	-0.00383613	0.00857131	0.0230865
  87	0.00307263	0.00729064	-0.00330672
  88	-0.0166283	-0.0135991	-0.00671025
  89	-0.0105322	0.017057	0.000392372
  90	0.00536571	0.0134987	-0.00136818
  91	0.00778901	-0.0112934	-0.0162306
  92	-0.000621046	0.00108211	-0.0223723
  93	0.00390559	0.00170471	0.00532748
  94	-0.021324	0.00977323	0.01423
  95	0.0106797	0.0133886	-0.0132239
  96	-0.00184676	0.000643713	0.000698574
  97	-0.00802654	-0.00610862	0.00125875
  98	0.00709918	-0.000151254	0.0196619
  99	0.00841094	-0.00169558	0.00669494
 100	-0.010505	-0.0139112	0.00495709
 101	0.00325882	-0.0132183	-0.000862144
 102	0.000145365	-0.00306416	0.00801292
 103	-0.000270383	0.00475826	0.00249141
 104	3.29458e-05	0.0160523	0.013936
 105	0.00669223	0.00299256	0.00338341
 106	-0.0239184	-0.0200935	-0.0202777
 107	-0.0173591	0.0142496	-0.0117365
 108	0.00318421	0.00751812	-0.000349256
 109	0.0214826	0.000484383	-0.0127848
 110	-0.0233044	0.0119644	0.0300109
 111	-0.00258632	0.0059445	0.00220666
 112	0.014179	-0.0061952	0.0148134
 113	0.0186125	0.0354307	0.0215342
 114	0.00352825	-0.00122411	0.00756861
 115	0.0064406	-0.00661412	0.00405799
 116	0.00408471	-0.000992532	0.000477536
 117	-0.0178144	0.0171259	-0.0152898
 118	-0.00299957	0.0106997	0.000433283
 119	-0.00138417	0.00830666	0.00219905
 120	-0.00826185	0.00863372	0.000257298
 121	-0.0122777	0.00369352	-0.00189997
 122	-0.00994386	0.00491448	-0.00196844
 123	-0.00978204	0.0101401	0.00560821
 124	-0.0193021	-0.00765424	0.00738189
 125	-0.00454822	0.00808174	0.0125364
 126	-0.00188919	0.0135107	0.012829
 127	-0.0276754	-0.00658578	-0.0134213
 128	-0.0105294	0.0127953	0.000946045
 129	-0.00922906	0.00877472	0.00118578
 130	-0.00670266	0.00354909	-0.00166998
 131	0.00798339	0.0104781	-0.0215952
 132	-0.00551367	-0.0143416	-0.00393959
 133	-0.00449591	0.00849732	-0.00353168
 134	-0.0157031	-0.0141229	0.00740571
 135	-0.0135912	0.0055837	0.00474712
 136	-0.0361027	-0.00243463	0.00460054
 137	0.0133813	-0.00871624	0.0123017

Bonds

   1	1	1	2
   2	4	2	3
   3	2	2	4
   4	2	2	5
   5	4	3	6
   6	5	3	7
   7	5	3	8
   8	5	6	9
   9	5	6	10
  10	1	11	12
  11	4	12	13
  12	2	12	14
  13	2	12	15
  14	4	13	16
  15	5	13	17
  16	5	13	18
  17	5	16	19
  18	5	16	20
  19	1	1	16
  20	1	21	22
  21	4	22	23
  22	2	22	24
  23	2	22	25
  24	4	23	26
  25	5	23	27
  26	5	23	28
  27	5	26	29
  28	5	26	30
  29	1	11	26
  30	1	31	32
  31	4	32	33
  32	2	32	34
  33	2	32	35
  34	4	33	36
  35	5	33	37
  36	5	33	38
  37	5	36	39
  38	5	36	40
  39	1	21	36
  40	1	41	42
  41	4	42	43
  42	2	42	44
  43	2	42	45
  44	4	43	46
  45	5	43	47
  46	5	43	48
  47	5	46	49
  48	5	46	50
  49	1	31	46
  50	1	51	52
  51	4	52	53
  52	2	52	54
  53	2	52	55
  54	4	53	56
  55	5	53	57
  56	5	53	58
  57	5	56	59
  58	5	56	60
  59	1	41	56
  60	1	61	62
  61	4	62	63
  62	2	62	64
  63	2	62	65
  64	4	63	66
  65	5	63	67
  66	5	63	68
  67	5	66	69
  68	5	66	70
  69	1	51	66
  70	1	71	72
  71	4	72	73
  72	2	72	74
  73	2	72	75
  74	4	73	76
  75	5	73	77
  76	5	73	78
  77	5	76	79
  78	5	76	80
  79	1	61	76
  80	8	81	82
  81	6	81	86
  82	4	82	83
  83	2	82	84
  84	2	82	85
  85	4	83	87
  86	5	83	88
  87	5	83	89
  88	4	87	90
  89	5	87	91
  90	5	87	92
  91	4	90	93
  92	5	90	94
  93	5	90	95
  94	4	93	96
  95	5	93	97
  96	5	93	98
  97	4	96	99
  98	5	96	100
  99	5	96	101
 100	4	99	102
 101	5	99	103
 102	5	99	104
 103	4	102	105
 104	5	102	106
 105	5	102	107
 106	4	105	108
 107	5	105	109
 108	5	105	110
 109	4	108	111
 110	5	108	112
 111	5	108	113
 112	10	111	115
 113	5	111	116
 114	5	111	117
 115	7	114	115
 116	11	71	115
 117	1	118	119
 118	4	119	120
 119	2	119	121
 120	2	119	122
 121	4	120	123
 122	5	120	124
 123	5	120	125
 124	5	123	126
 125	5	123	127
 126	8	81	123
 127	1	128	129
 128	4	129	130
 129	2	129	131
 130	2	129	132
 131	4	130	133
 132	5	130	134
 133	5	130	135
 134	5	133	136
 135	5	133	137
 136	1	118	133

Angles

   1	3	1	2	3
   2	6	1	2	4
   3	6	1	2	5
   4	8	3	2	4
   5	8	3	2	5
   6	1	4	2	5
   7	2	2	3	6
   8	4	2	3	7
   9	4	2	3	8
  10	4	6	3	7
  11	4	6	3	8
  12	5	7	3	8
  13	4	3	6	9
  14	4	3	6	10
  15	5	9	6	10
  16	3	11	12	13
  17	6	11	12	14
  18	6	11	12	15
  19	8	13	12	14
  20	8	13	12	15
  21	1	14	12	15
  22	2	12	13	16
  23	4	12	13	17
  24	4	12	13	18
  25	4	16	13	17
  26	4	16	13	18
  27	5	17	13	18
  28	4	13	16	19
  29	4	13	16	20
  30	5	19	16	20
  31	9	2	1	16
  32	3	1	16	13
  33	10	1	16	19
  34	10	1	16	20
  35	3	21	22	23
  36	6	21	22	24
  37	6	21	22	25
  38	8	23	22	24
  39	8	23	22	25
  40	1	24	22	25
  41	2	22	23	26
  42	4	22	23	27
  43	4	22	23	28
  44	4	26	23	27
  45	4	26	23	28
  46	5	27	23	28
  47	4	23	26	29
  48	4	23	26	30
  49	5	29	26	30
  50	9	12	11	26
  51	3	11	26	23
  52	10	11	26	29
  53	10	11	26	30
  54	3	31	32	33
  55	6	31	32	34
  56	6	31	32	35
  57	8	33	32	34
  58	8	33	32	35
  59	1	34	32	35
  60	2	32	33	36
  61	4	32	33	37
  62	4	32	33	38
  63	4	36	33	37
  64	4	36	33	38
  65	5	37	33	38
  66	4	33	36	39
  67	4	33	36	40
  68	5	39	36	40
  69	9	22	21	36
  70	3	21	36	33
  71	10	21	36	39
  72	10	21	36	40
  73	3	41	42	43
  74	6	41	42	44
  75	6	41	42	45
  76	8	43	42	44
  77	8	43	42	45
  78	1	44	42	45
  79	2	42	43	46
  80	4	42	43	47
  81	4	42	43	48
  82	4	46	43	47
  83	4	46	43	48
  84	5	47	43	48
  85	4	43	46	49
  86	4	43	46	50
  87	5	49	46	50
  88	9	32	31	46
  89	3	31	46	43
  90	10	31	46	49
  91	10	31	46	50
  92	3	51	52	53
  93	6	51	52	54
  94	6	51	52	55
  95	8	53	52	54
  96	8	53	52	55
  97	1	54	52	55
  98	2	52	53	56
  99	4	52	53	57
 100	4	52	53	58
 101	4	56	53	57
 102	4	56	53	58
 103	5	57	53	58
 104	4	53	56	59
 105	4	53	56	60
 106	5	59	56	60
 107	9	42	41	56
 108	3	41	56	53
 109	10	41	56	59
 110	10	41	56	60
 111	3	61	62	63
 112	6	61	62	64
 113	6	61	62	65
 114	8	63	62	64
 115	8	63	62	65
 116	1	64	62	65
 117	2	62	63	66
 118	4	62	63	67
 119	4	62	63	68
 120	4	66	63	67
 121	4	66	63	68
 122	5	67	63	68
 123	4	63	66	69
 124	4	63	66	70
 125	5	69	66	70
 126	9	52	51	66
 127	3	51	66	63
 128	10	51	66	69
 129	10	51	66	70
 130	3	71	72	73
 131	6	71	72	74
 132	6	71	72	75
 133	8	73	72	74
 134	8	73	72	75
 135	1	74	72	75
 136	2	72	73	76
 137	4	72	73	77
 138	4	72	73	78
 139	4	76	73	77
 140	4	76	73	78
 141	5	77	73	78
 142	4	73	76	79
 143	4	73	76	80
 144	5	79	76	80
 145	9	62	61	76
 146	3	61	76	73
 147	10	61	76	79
 148	10	61	76	80
 149	15	82	81	86
 150	11	81	82	83
 151	18	81	82	84
 152	18	81	82	85
 153	8	83	82	84
 154	8	83	82	85
 155	1	84	82	85
 156	2	82	83	87
 157	4	82	83	88
 158	4	82	83	89
 159	4	87	83	88
 160	4	87	83	89
 161	5	88	83	89
 162	2	83	87	90
 163	4	83	87	91
 164	4	83	87	92
 165	4	90	87	91
 166	4	90	87	92
 167	5	91	87	92
 168	2	87	90	93
 169	4	87	90	94
 170	4	87	90	95
 171	4	93	90	94
 172	4	93	90	95
 173	5	94	90	95
 174	2	90	93	96
 175	4	90	93	97
 176	4	90	93	98
 177	4	96	93	97
 178	4	96	93	98
 179	5	97	93	98
 180	2	93	96	99
 181	4	93	96	100
 182	4	93	96	101
 183	4	99	96	100
 184	4	99	96	101
 185	5	100	96	101
 186	2	96	99	102
 187	4	96	99	103
 188	4	96	99	104
 189	4	102	99	103
 190	4	102	99	104
 191	5	103	99	104
 192	2	99	102	105
 193	4	99	102	106
 194	4	99	102	107
 195	4	105	102	106
 196	4	105	102	107
 197	5	106	102	107
 198	2	102	105	108
 199	4	102	105	109
 200	4	102	105	110
 201	4	108	105	109
 202	4	108	105	110
 203	5	109	105	110
 204	2	105	108	111
 205	4	105	108	112
 206	4	105	108	113
 207	4	111	108	112
 208	4	111	108	113
 209	5	112	108	113
 210	16	108	111	115
 211	4	108	111	116
 212	4	108	111	117
 213	17	115	111	116
 214	17	115	111	117
 215	5	116	111	117
 216	14	111	115	114
 217	20	71	115	111
 218	21	71	115	114
 219	3	118	119	120
 220	6	118	119	121
 221	6	118	119	122
 222	8	120	119	121
 223	8	120	119	122
 224	1	121	119	122
 225	2	119	120	123
 226	4	119	120	124
 227	4	119	120	125
 228	4	123	120	124
 229	4	123	120	125
 230	5	124	120	125
 231	4	120	123	126
 232	4	120	123	127
 233	5	126	123	127
 234	22	82	81	123
 235	15	86	81	123
 236	11	81	123	120
 237	23	81	123	126
 238	23	81	123	127
 239	3	128	129	130
 240	6	128	129	131
 241	6	128	129	132
 242	8	130	129	131
 243	8	130	129	132
 244	1	131	129	132
 245	2	129	130	133
 246	4	129	130	134
 247	4	129	130	135
 248	4	133	130	134
 249	4	133	130	135
 250	5	134	130	135
 251	4	130	133	136
 252	4	130	133	137
 253	5	136	133	137
 254	9	119	118	133
 255	3	118	133	130
 256	10	118	133	136
 257	10	118	133	137

Dihedrals

   1	1	1	2	3	6
   2	6	1	2	3	7
   3	6	1	2	3	8
   4	1	4	2	3	6
   5	1	4	2	3	7
   6	1	4	2	3	8
   7	1	5	2	3	6
   8	1	5	2	3	7
   9	1	5	2	3	8
  10	3	2	3	6	9
  11	3	2	3	6	10
  12	4	7	3	6	9
  13	4	7	3	6	10
  14	4	8	3	6	9
  15	4	8	3	6	10
  16	1	11	12	13	16
  17	6	11	12	13	17
  18	6	11	12	13	18
  19	1	14	12	13	16
  20	1	14	12	13	17
  21	1	14	12	13	18
  22	1	15	12	13	16
  23	1	15	12	13	17
  24	1	15	12	13	18
  25	3	12	13	16	19
  26	3	12	13	16	20
  27	4	17	13	16	19
  28	4	17	13	16	20
  29	4	18	13	16	19
  30	4	18	13	16	20
  31	5	3	2	1	16
  32	5	4	2	1	16
  33	5	5	2	1	16
  34	1	1	16	13	12
  35	6	1	16	13	17
  36	6	1	16	13	18
  37	5	2	1	16	13
  38	5	2	1	16	19
  39	5	2	1	16	20
  40	1	21	22	23	26
  41	6	21	22	23	27
  42	6	21	22	23	28
  43	1	24	22	23	26
  44	1	24	22	23	27
  45	1	24	22	23	28
  46	1	25	22	23	26
  47	1	25	22	23	27
  48	1	25	22	23	28
  49	3	22	23	26	29
  50	3	22	23	26	30
  51	4	27	23	26	29
  52	4	27	23	26	30
  53	4	28	23	26	29
  54	4	28	23	26	30
  55	5	13	12	11	26
  56	5	14	12	11	26
  57	5	15	12	11	26
  58	1	11	26	23	22
  59	6	11	26	23	27
  60	6	11	26	23	28
  61	5	12	11	26	23
  62	5	12	11	26	29
  63	5	12	11	26	30
  64	1	31	32	33	36
  65	6	31	32	33	37
  66	6	31	32	33	38
  67	1	34	32	33	36
  68	1	34	32	33	37
  69	1	34	32	33	38
  70	1	35	32	33	36
  71	1	35	32	33	37
  72	1	35	32	33	38
  73	3	32	33	36	39
  74	3	32	33	36	40
  75	4	37	33	36	39
  76	4	37	33	36	40
  77	4	38	33	36	39
  78	4	38	33	36	40
  79	5	23	22	21	36
  80	5	24	22	21	36
  81	5	25	22	21	36
  82	1	21	36	33	32
  83	6	21	36	33	37
  84	6	21	36	33	38
  85	5	22	21	36	33
  86	5	22	21	36	39
  87	5	22	21	36	40
  88	1	41	42	43	46
  89	6	41	42	43	47
  90	6	41	42	43	48
  91	1	44	42	43	46
  92	1	44	42	43	47
  93	1	44	42	43	48
  94	1	45	42	43	46
  95	1	45	42	43	47
  96	1	45	42	43	48
  97	3	42	43	46	49
  98	3	42	43	46	50
  99	4	47	43	46	49
 100	4	47	43	46	50
 101	4	48	43	46	49
 102	4	48	43	46	50
 103	5	33	32	31	46
 104	5	34	32	31	46
 105	5	35	32	31	46
 106	1	31	46	43	42
 107	6	31	46	43	47
 108	6	31	46	43	48
 109	5	32	31	46	43
 110	5	32	31	46	49
 111	5	32	31	46	50
 112	1	51	52	53	56
 113	6	51	52	53	57
 114	6	51	52	53	58
 115	1	54	52	53	56
 116	1	54	52	53	57
 117	1	54	52	53	58
 118	1	55	52	53	56
 119	1	55	52	53	57
 120	1	55	52	53	58
 121	3	52	53	56	59
 122	3	52	53	56	60
 123	4	57	53	56	59
 124	4	57	53	56	60
 125	4	58	53	56	59
 126	4	58	53	56	60
 127	5	43	42	41	56
 128	5	44	42	41	56
 129	5	45	42	41	56
 130	1	41	56	53	52
 131	6	41	56	53	57
 132	6	41	56	53	58
 133	5	42	41	56	53
 134	5	42	41	56	59
 135	5	42	41	56	60
 136	1	61	62	63	66
 137	6	61	62	63	67
 138	6	61	62	63	68
 139	1	64	62	63	66
 140	1	64	62	63	67
 141	1	64	62	63	68
 142	1	65	62	63	66
 143	1	65	62	63	67
 144	1	65	62	63	68
 145	3	62	63	66	69
 146	3	62	63	66	70
 147	4	67	63	66	69
 148	4	67	63	66	70
 149	4	68	63	66	69
 150	4	68	63	66	70
 151	5	53	52	51	66
 152	5	54	52	51	66
 153	5	55	52	51	66
 154	1	51	66	63	62
 155	6	51	66	63	67
 156	6	51	66	63	68
 157	5	52	51	66	63
 158	5	52	51	66	69
 159	5	52	51	66	70
 160	1	71	72	73	76
 161	6	71	72	73	77
 162	6	71	72	73	78
 163	1	74	72	73	76
 164	1	74	72	73	77
 165	1	74	72	73	78
 166	1	75	72	73	76
 167	1	75	72	73	77
 168	1	75	72	73	78
 169	3	72	73	76	79
 170	3	72	73	76	80
 171	4	77	73	76	79
 172	4	77	73	76	80
 173	4	78	73	76	79
 174	4	78	73	76	80
 175	5	63	62	61	76
 176	5	64	62	61	76
 177	5	65	62	61	76
 178	1	61	76	73	72
 179	6	61	76	73	77
 180	6	61	76	73	78
 181	5	62	61	76	73
 182	5	62	61	76	79
 183	5	62	61	76	80
 184	7	86	81	82	83
 185	7	86	81	82	84
 186	7	86	81	82	85
 187	1	81	82	83	87
 188	1	81	82	83	88
 189	1	81	82	83	89
 190	1	84	82	83	87
 191	1	84	82	83	88
 192	1	84	82	83	89
 193	1	85	82	83	87
 194	1	85	82	83	88
 195	1	85	82	83	89
 196	8	82	83	87	90
 197	3	82	83	87	91
 198	3	82	83	87	92
 199	3	88	83	87	90
 200	4	88	83	87	91
 201	4	88	83	87	92
 202	3	89	83	87	90
 203	4	89	83	87	91
 204	4	89	83	87	92
 205	8	83	87	90	93
 206	3	83	87	90	94
 207	3	83	87	90	95
 208	3	91	87	90	93
 209	4	91	87	90	94
 210	4	91	87	90	95
 211	3	92	87	90	93
 212	4	92	87	90	94
 213	4	92	87	90	95
 214	8	87	90	93	96
 215	3	87	90	93	97
 216	3	87	90	93	98
 217	3	94	90	93	96
 218	4	94	90	93	97
 219	4	94	90	93	98
 220	3	95	90	93	96
 221	4	95	90	93	97
 222	4	95	90	93	98
 223	8	90	93	96	99
 224	3	90	93	96	100
 225	3	90	93	96	101
 226	3	97	93	96	99
 227	4	97	93	96	100
 228	4	97	93	96	101
 229	3	98	93	96	99
 230	4	98	93	96	100
 231	4	98	93	96	101
 232	8	93	96	99	102
 233	3	93	96	99	103
 234	3	93	96	99	104
 235	3	100	96	99	102
 236	4	100	96	99	103
 237	4	100	96	99	104
 238	3	101	96	99	102
 239	4	101	96	99	103
 240	4	101	96	99	104
 241	8	96	99	102	105
 242	3	96	99	102	106
 243	3	96	99	102	107
 244	3	103	99	102	105
 245	4	103	99	102	106
 246	4	103	99	102	107
 247	3	104	99	102	105
 248	4	104	99	102	106
 249	4	104	99	102	107
 250	8	99	102	105	108
 251	3	99	102	105	109
 252	3	99	102	105	110
 253	3	106	102	105	108
 254	4	106	102	105	109
 255	4	106	102	105	110
 256	3	107	102	105	108
 257	4	107	102	105	109
 258	4	107	102	105	110
 259	8	102	105	108	111
 260	3	102	105	108	112
 261	3	102	105	108	113
 262	3	109	105	108	111
 263	4	109	105	108	112
 264	4	109	105	108	113
 265	3	110	105	108	111
 266	4	110	105	108	112
 267	4	110	105	108	113
 268	1	105	108	111	115
 269	3	105	108	111	116
 270	3	105	108	111	117
 271	1	112	108	111	115
 272	4	112	108	111	116
 273	4	112	108	111	117
 274	1	113	108	111	115
 275	4	113	108	111	116
 276	4	113	108	111	117
 277	9	108	111	115	114
 278	10	116	111	115	114
 279	10	117	111	115	114
 280	5	73	72	71	115
 281	5	74	72	71	115
 282	5	75	72	71	115
 283	9	71	115	111	108
 284	9	71	115	111	116
 285	9	71	115	111	117
 286	11	72	71	115	111
 287	11	72	71	115	114
 288	1	118	119	120	123
 289	6	118	119	120	124
 290	6	118	119	120	125
 291	1	121	119	120	123
 292	1	121	119	120	124
 293	1	121	119	120	125
 294	1	122	119	120	123
 295	1	122	119	120	124
 296	1	122	119	120	125
 297	3	119	120	123	126
 298	3	119	120	123	127
 299	4	124	120	123	126
 300	4	124	120	123	127
 301	4	125	120	123	126
 302	4	125	120	123	127
 303	12	83	82	81	123
 304	7	84	82	81	123
 305	7	85	82	81	123
 306	1	81	123	120	119
 307	1	81	123	120	124
 308	1	81	123	120	125
 309	12	82	81	123	120
 310	7	82	81	123	126
 311	7	82	81	123	127
 312	7	86	81	123	120
 313	7	86	81	123	126
 314	7	86	81	123	127
 315	1	128	129	130	133
 316	6	128	129	130	134
 317	6	128	129	130	135
 318	1	131	129	130	133
 319	1	131	129	130	134
 320	1	131	129	130	135
 321	1	132	129	130	133
 322	1	132	129	130	134
 323	1	132	129	130	135
 324	3	129	130	133	136
 325	3	129	130	133	137
 326	4	134	130	133	136
 327	4	134	130	133	137
 328	4	135	130	133	136
 329	4	135	130	133	137
 330	5	120	119	118	133
 331	5	121	119	118	133
 332	5	122	119	118	133
 333	1	118	133	130	129
 334	6	118	133	130	134
 335	6	118	133	130	135
 336	5	119	118	133	130
 337	5	119	118	133	136
 338	5	119	118	133	137

