pySIMM System Object

1027 atoms
1026 bonds
1982 angles
2800 dihedrals
0 impropers

10 atom types
12 bond types
28 angle types
12 dihedral types
1 improper types

-82.166414 82.166414 xlo xhi
-82.166414 82.166414 ylo yhi
-82.166414 82.166414 zlo zhi

Masses

   1	16.0	# oh
   2	12.01	# c3
   3	1.008	# h1
   4	1.008	# hc
   5	1.008	# ho
   6	14.01	# n3
   7	1.008	# hn
   8	16.0	# o
   9	12.01	# c
  10	1.008	# h4

Pair Coeffs

   1	0.2104	3.0664733878390478	# oh
   2	0.1094	3.3996695084235347	# c3
   3	0.0157	2.471353044121301	# h1
   4	0.0157	2.649532787749369	# hc
   5	0.0047	0.5379246460131368	# ho
   6	0.17	3.249998523775958	# n3
   7	0.0157	1.069078461768407	# hn
   8	0.21	2.959921901149463	# o
   9	0.086	3.3996695084235347	# c
  10	0.015	2.5105525877194763	# h4

Bond Coeffs

   1	316.7	1.4233	# c3,oh
   2	330.6	1.0969	# c3,h1
   3	371.4	0.973	# ho,oh
   4	300.9	1.5375	# c3,c3
   5	330.6	1.0969	# c3,hc
   6	392.4	1.019	# hn,n3
   7	637.7	1.2183	# c,o
   8	325.9	1.4647	# c3,n3
   9	310.7	1.1121	# c,h4
  10	313.0	1.5241	# c,c3
  11	400.1	1.3513	# c,oh
  12	325.9	1.465	# n3,c

Angle Coeffs

   1	39.24	108.46	# h1,c3,h1
   2	62.86	111.51	# c3,c3,c3
   3	67.47	110.19	# c3,c3,oh
   4	46.34	109.8	# c3,c3,hc
   5	39.4	107.58	# hc,c3,hc
   6	50.93	110.26	# h1,c3,oh
   7	47.38	107.26	# c3,oh,ho
   8	46.39	109.56	# c3,c3,h1
   9	66.02	111.04	# c3,c3,n3
  10	45.64	114.64	# c3,c,h4
  11	41.4	106.4	# hn,n3,hn
  12	67.4	123.2	# c3,c,o
  13	47.42	109.29	# c3,n3,hn
  14	63.27	111.04	# c,c3,c3
  15	46.93	108.77	# c,c3,hc
  16	49.53	109.88	# h1,c3,n3
  17	54.22	120.7	# h4,c,o
  18	67.9	109.98	# c3,oh,c
  19	68.4	112.73	# c3,c,oh
  20	75.92	122.1	# o,c,oh
  21	63.82	112.35	# c3,n3,c3
  22	49.55	109.8	# hc,c3,n3
  23	62.7	112.48	# c3,oh,c3
  24	51.11	109.5	# hc,c3,oh
  25	63.8	112.35	# c3,n3,c
  26	47.4	109.29	# hn,n3,c
  27	66.0	111.04	# n3,c,c3
  28	70.9	110.7	# n3,c,o

Dihedral Coeffs

   1	1	0.15555555555555556	3	0	# X,c3,c3,X
   2	2	0.16	3	0	0.25	1	0	# ho,oh,c3,c3
   3	1	0.16	3	0	# hc,c3,c3,c3
   4	1	0.15	3	0	# hc,c3,c3,hc
   5	1	0.16666666666666666	3	0	# X,c3,oh,X
   6	2	0.0	3	0	0.25	1	0	# hc,c3,c3,oh
   7	1	0.3	3	0	# X,c3,n3,X
   8	3	0.18	3	0	0.25	2	180	0.2	1	180	# c3,c3,c3,c3
   9	1	0.0	2	180	# X,c,c3,X
  10	3	0.8	1	0	0.0	2	0	0.08	3	180	# hc,c3,c,o
  11	1	2.3	2	180	# X,c,oh,X
  12	2	0.3	3	0	0.48	2	180	# c3,c3,n3,c3

Improper Coeffs

   1	10.5	-1	2	# c,X,X,o

Atoms

   1	1	1	-0.26285	-58.6159	-17.0542	-31.2416
   2	1	2	0.431937	-58.0248	-16.2934	-32.3022
   3	1	2	0.196566	-57.4824	-17.1971	-33.4369
   4	1	3	-0.176879	-57.1893	-15.7049	-31.8962
   5	1	3	-0.045056	-58.7406	-15.5717	-32.7119
   6	1	2	0.080387	-56.1603	-17.8821	-33.0455
   7	1	4	0.032783	-57.3082	-16.5792	-34.3237
   8	1	4	-0.126889	-58.2155	-17.963	-33.7327
   9	1	4	-0.081548	-55.7799	-18.4703	-33.8885
  10	1	4	-0.048451	-56.3198	-18.5692	-32.2046
  11	1	6	-0.353484	-63.3605	-20.2232	-19.1077
  12	1	2	0.376337	-64.6385	-19.8067	-19.6685
  13	1	2	-0.897489	-64.3499	-19.2876	-21.078
  14	1	3	0.034041	-65.0874	-19.0119	-19.0564
  15	1	3	0.012328	-65.3314	-20.6572	-19.7106
  16	1	7	0.229239	-62.7274	-19.4286	-19.1528
  17	1	2	0.531206	-65.664	-18.94	-21.8083
  18	1	4	0.202592	-63.825	-20.0641	-21.6449
  19	1	4	0.099501	-63.7027	-18.4041	-21.0311
  20	1	2	0.171725	-65.4689	-18.2051	-23.1623
  21	1	4	-0.10542	-66.2691	-18.3086	-21.1466
  22	1	4	-0.137294	-66.229	-19.8679	-21.9586
  23	1	2	-0.155467	-64.6751	-19.0356	-24.1979
  24	1	4	-0.053736	-64.9551	-17.2485	-22.9927
  25	1	4	0.001015	-66.4563	-17.962	-23.5749
  26	1	2	0.033419	-64.5447	-18.3144	-25.5553
  27	1	4	0.005395	-65.1664	-20.0072	-24.3442
  28	1	4	0.019028	-63.6688	-19.2373	-23.8081
  29	1	2	0.058829	-63.6421	-19.0959	-26.539
  30	1	4	-0.00779	-64.1216	-17.3155	-25.3881
  31	1	4	-0.029026	-65.5392	-18.1743	-25.9978
  32	1	2	-0.029357	-63.3365	-18.2905	-27.8237
  33	1	4	-0.003083	-64.1126	-20.0527	-26.8016
  34	1	4	-0.010137	-62.6955	-19.3332	-26.0344
  35	1	2	-0.000585	-62.1923	-18.9267	-28.6516
  36	1	4	0.006084	-63.0395	-17.2742	-27.5401
  37	1	4	0.012201	-64.2416	-18.2007	-28.4367
  38	1	2	-0.03118	-61.6881	-17.9958	-29.7832
  39	1	4	0.011412	-62.5285	-19.881	-29.0775
  40	1	4	0.011566	-61.353	-19.1534	-27.9811
  41	1	2	-0.057912	-60.3766	-18.499	-30.4332
  42	1	4	0.001922	-61.5083	-16.9933	-29.3755
  43	1	4	0.021794	-62.4698	-17.8927	-30.5472
  44	1	8	-0.501673	-60.4943	-17.2906	-32.5245
  45	1	9	0.462	-59.8573	-17.5471	-31.5151
  46	1	4	0.029593	-60.5285	-19.4871	-30.8856
  47	1	4	0.042406	-59.6071	-18.616	-29.6595
  48	1	1	-0.26285	-60.6041	-22.4165	-15.7018
  49	1	2	0.431937	-61.9593	-22.0754	-16.0309
  50	1	2	0.196566	-62.0032	-21.2612	-17.3474
  51	1	3	-0.176879	-62.3662	-21.4568	-15.2202
  52	1	3	-0.045056	-62.5963	-22.9656	-16.1069
  53	1	2	0.080387	-63.4082	-20.753	-17.7375
  54	1	4	0.032783	-61.6315	-21.8901	-18.1655
  55	1	4	-0.126889	-61.3186	-20.4011	-17.2795
  56	1	4	-0.081548	-63.7488	-19.9752	-17.0432
  57	1	4	-0.048451	-64.1275	-21.5801	-17.6916
  58	1	6	-0.353484	-46.1695	-19.6939	-21.4935
  59	1	2	0.376337	-47.0273	-20.6173	-20.7776
  60	1	2	-0.897489	-48.4723	-20.2725	-21.1504
  61	1	3	0.034041	-46.8818	-20.5081	-19.6942
  62	1	3	0.012328	-46.7924	-21.652	-21.0625
  63	1	7	0.229239	-46.5153	-18.7531	-21.3195
  64	1	2	0.531206	-49.4128	-21.2052	-20.3589
  65	1	4	0.202592	-48.6258	-20.4247	-22.2267
  66	1	4	0.099501	-48.6953	-19.2233	-20.916
  67	1	2	0.171725	-50.9381	-20.9662	-20.5279
  68	1	4	-0.10542	-49.1588	-21.1057	-19.2955
  69	1	4	-0.137294	-49.1698	-22.2363	-20.6438
  70	1	2	-0.155467	-51.7838	-21.9682	-19.7007
  71	1	4	-0.053736	-51.2177	-21.043	-21.5892
  72	1	4	0.001015	-51.1723	-19.9412	-20.2068
  73	1	2	0.033419	-53.2938	-21.6588	-19.7895
  74	1	4	0.005395	-51.4627	-21.9153	-18.6513
  75	1	4	0.019028	-51.5986	-22.9962	-20.0401
  76	1	2	0.058829	-54.0627	-22.3922	-18.6759
  77	1	4	-0.00779	-53.6757	-21.9513	-20.7768
  78	1	4	-0.029026	-53.46	-20.5787	-19.6842
  79	1	2	-0.029357	-55.5868	-22.1763	-18.7535
  80	1	4	-0.003083	-53.6984	-22.048	-17.6995
  81	1	4	-0.010137	-53.8479	-23.4664	-18.7375
  82	1	2	-0.000585	-56.2983	-22.9639	-17.6312
  83	1	4	0.006084	-55.9615	-22.5019	-19.7316
  84	1	4	0.012201	-55.8121	-21.107	-18.6547
  85	1	2	-0.03118	-57.8323	-22.7759	-17.656
  86	1	4	0.011412	-55.9089	-22.632	-16.6615
  87	1	4	0.011566	-56.0624	-24.0315	-17.7207
  88	1	2	-0.057912	-58.5083	-23.3875	-16.4027
  89	1	4	0.001922	-58.2377	-23.2465	-18.5593
  90	1	4	0.021794	-58.0766	-21.708	-17.7132
  91	1	8	-0.501673	-60.668	-24.1533	-17.1812
  92	1	9	0.462	-60.0378	-23.3791	-16.4784
  93	1	4	0.029593	-58.1812	-22.8518	-15.5033
  94	1	4	0.042406	-58.1898	-24.4303	-16.2869
  95	1	1	-0.26285	-41.6662	-18.4822	-22.7514
  96	1	2	0.431937	-42.4386	-18.9463	-21.6458
  97	1	2	0.196566	-43.9123	-18.9219	-22.0642
  98	1	3	-0.176879	-42.2798	-18.3166	-20.7616
  99	1	3	-0.045056	-42.159	-19.9774	-21.3923
 100	1	2	0.080387	-44.7604	-19.7751	-21.1109
 101	1	4	0.032783	-44.0085	-19.331	-23.076
 102	1	4	-0.126889	-44.291	-17.8884	-22.0912
 103	1	4	-0.081548	-44.6403	-19.4319	-20.0772
 104	1	4	-0.048451	-44.4223	-20.8184	-21.1554
 105	1	1	-0.26285	-37.2381	-17.247	-21.0087
 106	1	2	0.431937	-38.0317	-18.3235	-21.5377
 107	1	2	0.196566	-39.4743	-17.8388	-21.8241
 108	1	3	-0.176879	-38.077	-19.1487	-20.8143
 109	1	3	-0.045056	-37.5908	-18.6962	-22.4692
 110	1	2	0.080387	-40.2798	-18.8262	-22.7061
 111	1	4	0.032783	-39.4318	-16.8723	-22.3397
 112	1	4	-0.126889	-39.9991	-17.6676	-20.8708
 113	1	4	-0.081548	-40.159	-19.8541	-22.3471
 114	1	4	-0.048451	-39.8832	-18.8049	-23.726
 115	1	6	-0.353484	-23.9259	-12.2779	-12.9576
 116	1	2	0.376337	-25.2825	-11.9757	-13.4157
 117	1	2	-0.897489	-25.9234	-13.3033	-13.8436
 118	1	3	0.034041	-25.2486	-11.2901	-14.2727
 119	1	3	0.012328	-25.8666	-11.5054	-12.6119
 120	1	7	0.229239	-23.4824	-12.8162	-13.6976
 121	1	2	0.531206	-27.3455	-13.1033	-14.4202
 122	1	4	0.202592	-25.9832	-13.9833	-12.9821
 123	1	4	0.099501	-25.2947	-13.7854	-14.605
 124	1	2	0.171725	-27.9279	-14.3697	-15.1131
 125	1	4	-0.10542	-27.3027	-12.2804	-15.1457
 126	1	4	-0.137294	-28.0041	-12.7757	-13.6072
 127	1	2	-0.155467	-29.2678	-14.0985	-15.8356
 128	1	4	-0.053736	-28.0683	-15.1666	-14.3663
 129	1	4	0.001015	-27.2027	-14.7454	-15.8502
 130	1	2	0.033419	-29.8587	-15.377	-16.4713
 131	1	4	0.005395	-29.1092	-13.346	-16.6171
 132	1	4	0.019028	-29.9892	-13.68	-15.1227
 133	1	2	0.058829	-31.1698	-15.0646	-17.2132
 134	1	4	-0.00779	-30.0466	-16.1242	-15.6876
 135	1	4	-0.029026	-29.1323	-15.8113	-17.1725
 136	1	2	-0.029357	-31.7943	-16.298	-17.896
 137	1	4	-0.003083	-30.9856	-14.2895	-17.9664
 138	1	4	-0.010137	-31.886	-14.6482	-16.4966
 139	1	2	-0.000585	-33.1597	-15.9083	-18.5036
 140	1	4	0.006084	-31.9325	-17.1043	-17.1639
 141	1	4	0.012201	-31.1208	-16.6689	-18.6782
 142	1	2	-0.03118	-33.7903	-16.9749	-19.4253
 143	1	4	0.011412	-33.0518	-14.9824	-19.079
 144	1	4	0.011566	-33.8519	-15.6857	-17.6822
 145	1	2	-0.057912	-35.1872	-16.5202	-19.9299
 146	1	4	0.001922	-33.8842	-17.9196	-18.8782
 147	1	4	0.021794	-33.1307	-17.1571	-20.2852
 148	1	8	-0.501673	-35.4219	-18.6246	-21.0915
 149	1	9	0.462	-35.9487	-17.5892	-20.7213
 150	1	4	0.029593	-35.0842	-15.628	-20.5583
 151	1	4	0.042406	-35.8091	-16.2364	-19.0711
 152	1	1	-0.26285	-19.4376	-10.4262	-11.6573
 153	1	2	0.431937	-20.745	-10.1812	-12.2145
 154	1	2	0.196566	-21.623	-11.4576	-12.3451
 155	1	3	-0.176879	-20.6412	-9.74699	-13.2194
 156	1	3	-0.045056	-21.2844	-9.46101	-11.5855
 157	1	2	0.080387	-23.0994	-11.0957	-12.6654
 158	1	4	0.032783	-21.5868	-12.0287	-11.4077
 159	1	4	-0.126889	-21.2234	-12.1106	-13.1361
 160	1	4	-0.081548	-23.1238	-10.4275	-13.5371
 161	1	4	-0.048451	-23.534	-10.5446	-11.8228
 162	1	6	-0.353484	-15.7704	0.671464	-4.99172
 163	1	2	0.376337	-16.1112	-0.206644	-6.10015
 164	1	2	-0.897489	-14.8218	-0.456021	-6.88863
 165	1	3	0.034041	-16.8614	0.265592	-6.74887
 166	1	3	0.012328	-16.5181	-1.15957	-5.72536
 167	1	7	0.229239	-15.1508	0.159113	-4.37904
 168	1	2	0.531206	-15.0823	-1.46068	-8.02145
 169	1	4	0.202592	-14.0514	-0.864986	-6.23284
 170	1	4	0.099501	-14.451	0.490253	-7.30806
 171	1	2	0.171725	-13.874	-1.71788	-8.96752
 172	1	4	-0.10542	-15.928	-1.08757	-8.61167
 173	1	4	-0.137294	-15.4119	-2.38757	-7.53486
 174	1	2	-0.155467	-14.209	-2.64597	-10.1665
 175	1	4	-0.053736	-13.0351	-2.14401	-8.39572
 176	1	4	0.001015	-13.5218	-0.754993	-9.35951
 177	1	2	0.033419	-14.5656	-4.06432	-9.67503
 178	1	4	0.005395	-13.3493	-2.69775	-10.8418
 179	1	4	0.019028	-15.0437	-2.21815	-10.739
 180	1	2	0.058829	-15.0253	-5.04365	-10.7637
 181	1	4	-0.00779	-15.368	-4.00972	-8.93836
 182	1	4	-0.029026	-13.6944	-4.48398	-9.16551
 183	1	2	-0.029357	-15.3791	-6.38911	-10.1059
 184	1	4	-0.003083	-14.2303	-5.1864	-11.5134
 185	1	4	-0.010137	-15.9041	-4.6402	-11.281
 186	1	2	-0.000585	-15.9204	-7.37414	-11.1473
 187	1	4	0.006084	-16.1412	-6.22334	-9.32738
 188	1	4	0.012201	-14.4945	-6.81058	-9.61417
 189	1	2	-0.03118	-16.4352	-8.63369	-10.4277
 190	1	4	0.011412	-15.1323	-7.63636	-11.8615
 191	1	4	0.011566	-16.734	-6.90368	-11.7102
 192	1	2	-0.057912	-17.1606	-9.6327	-11.3524
 193	1	4	0.001922	-17.1075	-8.35021	-9.60758
 194	1	4	0.021794	-15.5777	-9.14117	-9.96451
 195	1	8	-0.501673	-19.0438	-8.18328	-11.8635
 196	1	9	0.462	-18.6449	-9.30939	-11.6164
 197	1	4	0.029593	-17.1129	-10.6273	-10.8875
 198	1	4	0.042406	-16.6384	-9.7156	-12.3142
 199	1	6	-0.353484	-9.0847	7.80064	6.08307
 200	1	2	0.376337	-9.00849	6.79334	5.03026
 201	1	2	-0.897489	-10.4	6.57851	4.43798
 202	1	3	0.034041	-8.62989	5.84534	5.44193
 203	1	3	0.012328	-8.31914	7.12642	4.24126
 204	1	7	0.229239	-9.47459	8.64931	5.68043
 205	1	2	0.531206	-10.3465	5.6364	3.2178
 206	1	4	0.202592	-10.8389	7.53273	4.11617
 207	1	4	0.099501	-11.0506	6.15434	5.21282
 208	1	2	0.171725	-11.7428	5.04118	2.88368
 209	1	4	-0.10542	-9.63378	4.82456	3.41214
 210	1	4	-0.137294	-9.95524	6.21545	2.37517
 211	1	2	-0.155467	-11.816	4.37153	1.49146
 212	1	4	-0.053736	-12.4916	5.84184	2.92952
 213	1	4	0.001015	-12.011	4.3084	3.65461
 214	1	2	0.033419	-13.2353	3.80891	1.2258
 215	1	4	0.005395	-11.0694	3.56825	1.4192
 216	1	4	0.019028	-11.5663	5.11611	0.722919
 217	1	2	0.058829	-13.4513	3.27702	-0.215695
 218	1	4	-0.00779	-13.9585	4.61424	1.42045
 219	1	4	-0.029026	-13.4647	3.00965	1.94513
 220	1	2	-0.029357	-14.9598	3.27278	-0.578699
 221	1	4	-0.003083	-13.0252	2.26732	-0.309203
 222	1	4	-0.010137	-12.9143	3.92146	-0.923556
 223	1	2	-0.000585	-15.2688	2.76799	-2.01284
 224	1	4	0.006084	-15.345	4.29523	-0.472906
 225	1	4	0.012201	-15.506	2.65549	0.143858
 226	1	2	-0.03118	-16.7421	2.98623	-2.44113
 227	1	4	0.011412	-15.0272	1.69613	-2.06889
 228	1	4	0.011566	-14.6164	3.28455	-2.72668
 229	1	2	-0.057912	-17.0074	2.55465	-3.90943
 230	1	4	0.001922	-16.9814	4.05405	-2.34626
 231	1	4	0.021794	-17.4182	2.45405	-1.76166
 232	1	8	-0.501673	-17.1217	0.179322	-3.36313
 233	1	9	0.462	-16.9195	1.05036	-4.18548
 234	1	4	0.029593	-16.3319	3.0963	-4.5849
 235	1	4	0.042406	-18.0218	2.86139	-4.19093
 236	1	1	-0.26285	-8.22146	9.84053	10.0637
 237	1	2	0.431937	-8.41168	8.80855	9.08297
 238	1	2	0.196566	-7.7649	9.19636	7.71443
 239	1	3	-0.176879	-9.4893	8.64674	8.93614
 240	1	3	-0.045056	-8.0036	7.85502	9.44002
 241	1	2	0.080387	-7.76079	8.07096	6.65628
 242	1	4	0.032783	-6.71726	9.47016	7.88864
 243	1	4	-0.126889	-8.24752	10.0916	7.2904
 244	1	4	-0.081548	-7.36418	7.15208	7.10711
 245	1	4	-0.048451	-7.06442	8.34854	5.85138
 246	1	6	-0.353484	-12.5817	13.6628	22.4738
 247	1	2	0.376337	-11.8381	13.6093	21.2232
 248	1	2	-0.897489	-12.1034	14.8282	20.336
 249	1	3	0.034041	-12.1451	12.7064	20.6776
 250	1	3	0.012328	-10.7614	13.528	21.4351
 251	1	7	0.229239	-13.565	13.6991	22.2206
 252	1	2	0.531206	-11.6104	14.5812	18.8825
 253	1	4	0.202592	-11.6262	15.7177	20.7636
 254	1	4	0.099501	-13.18	15.031	20.3091
 255	1	2	0.171725	-10.1285	14.1263	18.7326
 256	1	4	-0.10542	-11.7752	15.4992	18.3157
 257	1	4	-0.137294	-12.2649	13.8244	18.4405
 258	1	2	-0.155467	-9.73479	13.9938	17.2398
 259	1	4	-0.053736	-9.95408	13.1639	19.2357
 260	1	4	0.001015	-9.47737	14.8631	19.2192
 261	1	2	0.033419	-8.20624	13.848	17.088
 262	1	4	0.005395	-10.0672	14.8769	16.6823
 263	1	4	0.019028	-10.2445	13.1195	16.8119
 264	1	2	0.058829	-7.63648	13.8509	15.6456
 265	1	4	-0.00779	-7.88105	12.9342	17.5945
 266	1	4	-0.029026	-7.73254	14.6799	17.6238
 267	1	2	-0.029357	-8.1905	12.747	14.7067
 268	1	4	-0.003083	-6.54948	13.718	15.7321
 269	1	4	-0.010137	-7.79023	14.8368	15.1926
 270	1	2	-0.000585	-7.45648	12.6847	13.3446
 271	1	4	0.006084	-9.2631	12.8978	14.5258
 272	1	4	0.012201	-8.08132	11.7832	15.2181
 273	1	2	-0.03118	-7.37308	11.2426	12.778
 274	1	4	0.011412	-6.43694	13.0783	13.45
 275	1	4	0.011566	-7.97645	13.3378	12.6292
 276	1	2	-0.057912	-6.78802	11.2375	11.3496
 277	1	4	0.001922	-8.37678	10.8031	12.7607
 278	1	4	0.021794	-6.75598	10.6118	13.4338
 279	1	8	-0.501673	-6.06798	9.11424	10.4174
 280	1	9	0.462	-6.98046	9.90094	10.6311
 281	1	4	0.029593	-5.72326	11.4984	11.3686
 282	1	4	0.042406	-7.28601	12.0109	10.7494
 283	1	1	-0.26285	-12.0646	13.5203	26.0704
 284	1	2	0.431937	-13.344	13.3772	25.4501
 285	1	2	0.196566	-13.3097	12.2279	24.4196
 286	1	3	-0.176879	-13.6203	14.3154	24.9527
 287	1	3	-0.045056	-14.123	13.1372	26.1786
 288	1	2	0.080387	-12.3035	12.4553	23.2756
 289	1	4	0.032783	-14.3109	12.0967	24.0003
 290	1	4	-0.126889	-13.0684	11.2837	24.9283
 291	1	4	-0.081548	-12.3443	11.5676	22.626
 292	1	4	-0.048451	-11.2786	12.4957	23.6724
 293	1	6	-0.353484	-13.7537	20.4992	38.0318
 294	1	2	0.376337	-13.692	19.3644	37.1326
 295	1	2	-0.897489	-14.5369	19.7337	35.9062
 296	1	3	0.034041	-14.0856	18.463	37.6223
 297	1	3	0.012328	-12.6497	19.1869	36.8302
 298	1	7	0.229239	-13.5101	21.3269	37.4956
 299	1	2	0.531206	-14.2454	18.7412	34.7649
 300	1	4	0.202592	-14.3057	20.7476	35.5599
 301	1	4	0.099501	-15.6019	19.7107	36.1704
 302	1	2	0.171725	-15.0765	18.9423	33.4604
 303	1	4	-0.10542	-14.4033	17.7277	35.1447
 304	1	4	-0.137294	-13.1756	18.838	34.5479
 305	1	2	-0.155467	-14.7636	17.907	32.339
 306	1	4	-0.053736	-14.881	19.9504	33.0709
 307	1	4	0.001015	-16.1458	18.9107	33.6993
 308	1	2	0.033419	-13.25	17.8468	32.0012
 309	1	4	0.005395	-15.3376	18.1766	31.4416
 310	1	4	0.019028	-15.1143	16.9103	32.6404
 311	1	2	0.058829	-12.8836	17.0235	30.7454
 312	1	4	-0.00779	-12.705	17.4248	32.8554
 313	1	4	-0.029026	-12.8844	18.8758	31.8743
 314	1	2	-0.029357	-11.4849	17.4339	30.2168
 315	1	4	-0.003083	-13.6311	17.1845	29.9631
 316	1	4	-0.010137	-12.9098	15.9548	30.9871
 317	1	2	-0.000585	-11.0634	16.7548	28.8941
 318	1	4	0.006084	-10.7204	17.2624	30.9866
 319	1	4	0.012201	-11.5031	18.5136	30.0288
 320	1	2	-0.03118	-10.6349	15.2781	29.0751
 321	1	4	0.011412	-10.2237	17.301	28.4539
 322	1	4	0.011566	-11.8915	16.8355	28.1806
 323	1	2	-0.057912	-10.6452	14.4803	27.7477
 324	1	4	0.001922	-11.2903	14.7786	29.7968
 325	1	4	0.021794	-9.62876	15.2512	29.509
 326	1	8	-0.501673	-13.0345	14.2697	27.9863
 327	1	9	0.462	-12.0637	14.196	27.2499
 328	1	4	0.029593	-10.1368	13.5198	27.8943
 329	1	4	0.042406	-10.0938	15.0219	26.9694
 330	1	1	-0.26285	-11.0716	21.0887	41.3967
 331	1	2	0.431937	-12.3655	21.713	41.4218
 332	1	2	0.196566	-13.1035	21.6995	40.0609
 333	1	3	-0.176879	-12.2912	22.7421	41.7975
 334	1	3	-0.045056	-12.9831	21.1676	42.1479
 335	1	2	0.080387	-12.8869	20.4226	39.212
 336	1	4	0.032783	-12.7904	22.5791	39.4805
 337	1	4	-0.126889	-14.1791	21.8313	40.2428
 338	1	4	-0.081548	-13.1134	19.5216	39.7966
 339	1	4	-0.048451	-11.8423	20.3567	38.8868
 340	1	6	-0.353484	-6.80407	24.6202	32.1077
 341	1	2	0.376337	-6.3535	23.2414	32.0899
 342	1	2	-0.897489	-5.02346	23.0945	32.8517
 343	1	3	0.034041	-6.21936	22.9223	31.0466
 344	1	3	0.012328	-7.10594	22.5881	32.5524
 345	1	7	0.229239	-6.93282	24.889	33.0783
 346	1	2	0.531206	-4.32734	21.7354	32.592
 347	1	4	0.202592	-5.19424	23.1953	33.9301
 348	1	4	0.099501	-4.33093	23.8906	32.561
 349	1	2	0.171725	-5.24882	20.4728	32.6727
 350	1	4	-0.10542	-3.47166	21.6363	33.2726
 351	1	4	-0.137294	-3.91302	21.7823	31.5757
 352	1	2	-0.155467	-5.92291	20.1658	34.0437
 353	1	4	-0.053736	-4.65837	19.5927	32.3812
 354	1	4	0.001015	-6.03622	20.5545	31.9149
 355	1	2	0.033419	-4.9163	20.1427	35.2315
 356	1	4	0.005395	-6.41766	19.1895	33.9716
 357	1	4	0.019028	-6.70892	20.9042	34.2395
 358	1	2	0.058829	-5.50765	19.6812	36.5941
 359	1	4	-0.00779	-4.47541	21.1397	35.3606
 360	1	4	-0.029026	-4.09581	19.4657	34.9666
 361	1	2	-0.029357	-6.50289	20.6899	37.226
 362	1	4	-0.003083	-4.67999	19.5079	37.2953
 363	1	4	-0.010137	-6.00379	18.7065	36.4597
 364	1	2	-0.000585	-7.19427	20.1924	38.5194
 365	1	4	0.006084	-7.28126	20.9365	36.493
 366	1	4	0.012201	-5.98275	21.631	37.4454
 367	1	2	-0.03118	-8.29593	21.1868	38.9461
 368	1	4	0.011412	-6.45862	20.0723	39.3256
 369	1	4	0.011566	-7.64323	19.2097	38.3396
 370	1	2	-0.057912	-9.038	20.7327	40.2178
 371	1	4	0.001922	-9.01417	21.3137	38.1263
 372	1	4	0.021794	-7.84764	22.1711	39.129
 373	1	8	-0.501673	-10.29	22.7967	40.11
 374	1	9	0.462	-10.1074	21.732	40.6814
 375	1	4	0.029593	-8.32714	20.5847	41.0365
 376	1	4	0.042406	-9.5178	19.7626	40.0298
 377	1	6	-0.353484	-14.8899	20.3475	20.2165
 378	1	2	0.376337	-13.6462	20.7294	20.8653
 379	1	2	-0.897489	-14.0574	21.7628	21.9056
 380	1	3	0.034041	-12.9397	21.1744	20.1498
 381	1	3	0.012328	-13.1804	19.8609	21.3412
 382	1	7	0.229239	-15.2742	21.1759	19.7694
 383	1	2	0.531206	-12.9563	21.8395	22.9723
 384	1	4	0.202592	-14.9936	21.4627	22.3886
 385	1	4	0.099501	-14.2243	22.7393	21.4316
 386	1	2	0.171725	-13.1042	23.0352	23.9316
 387	1	4	-0.10542	-11.9899	21.9051	22.4571
 388	1	4	-0.137294	-12.9636	20.9019	23.5365
 389	1	2	-0.155467	-11.8452	23.2853	24.7856
 390	1	4	-0.053736	-13.9715	22.8745	24.5886
 391	1	4	0.001015	-13.3035	23.9403	23.3456
 392	1	2	0.033419	-12.0913	24.4986	25.6965
 393	1	4	0.005395	-10.9758	23.4578	24.1368
 394	1	4	0.019028	-11.6305	22.4036	25.4032
 395	1	2	0.058829	-10.8204	24.7991	26.5012
 396	1	4	-0.00779	-12.924	24.2769	26.3763
 397	1	4	-0.029026	-12.3852	25.3707	25.1006
 398	1	2	-0.029357	-11.0195	25.9417	27.514
 399	1	4	-0.003083	-10.0037	25.0581	25.8148
 400	1	4	-0.010137	-10.5254	23.8833	27.0296
 401	1	2	-0.000585	-9.74572	26.2411	28.3307
 402	1	4	0.006084	-11.8475	25.6948	28.1905
 403	1	4	0.012201	-11.3094	26.8495	26.967
 404	1	2	-0.03118	-9.41908	25.1476	29.366
 405	1	4	0.011412	-9.88658	27.1999	28.8543
 406	1	4	0.011566	-8.89604	26.3758	27.655
 407	1	2	-0.057912	-8.14312	25.499	30.1699
 408	1	4	0.001922	-9.26628	24.18	28.872
 409	1	4	0.021794	-10.2765	25.0371	30.042
 410	1	8	-0.501673	-8.87762	25.0441	32.3926
 411	1	9	0.462	-8.12334	24.7395	31.4938
 412	1	4	0.029593	-8.13711	26.5719	30.4115
 413	1	4	0.042406	-7.2409	25.277	29.5833
 414	1	1	-0.26285	-15.7185	18.2151	22.0543
 415	1	2	0.431937	-15.4357	17.3105	20.9717
 416	1	2	0.196566	-14.4632	17.8583	19.8749
 417	1	3	-0.176879	-16.3899	17.0621	20.4855
 418	1	3	-0.045056	-15.0415	16.3607	21.3586
 419	1	2	0.080387	-14.8066	19.2423	19.2489
 420	1	4	0.032783	-14.4414	17.1199	19.0619
 421	1	4	-0.126889	-13.4367	17.8794	20.2569
 422	1	4	-0.081548	-15.7752	19.1599	18.7408
 423	1	4	-0.048451	-14.0702	19.499	18.4752
 424	1	6	-0.353484	-14.4392	25.9488	34.6272
 425	1	2	0.376337	-15.341	25.6748	33.5141
 426	1	2	-0.897489	-15.0948	24.2611	32.9658
 427	1	3	0.034041	-15.1703	26.4111	32.7182
 428	1	3	0.012328	-16.383	25.7687	33.846
 429	1	7	0.229239	-14.7072	25.3555	35.4031
 430	1	2	0.531206	-16.0239	24.0703	31.7523
 431	1	4	0.202592	-15.3099	23.5066	33.7302
 432	1	4	0.099501	-14.0452	24.1555	32.6628
 433	1	2	0.171725	-16.0611	22.6759	31.0907
 434	1	4	-0.10542	-15.7652	24.8208	31.0004
 435	1	4	-0.137294	-17.0425	24.2977	32.0872
 436	1	2	-0.155467	-14.7153	22.2197	30.496
 437	1	4	-0.053736	-16.8102	22.721	30.284
 438	1	4	0.001015	-16.425	21.9313	31.8121
 439	1	2	0.033419	-14.9549	21.0885	29.4819
 440	1	4	0.005395	-14.0375	21.888	31.2957
 441	1	4	0.019028	-14.228	23.063	29.9846
 442	1	2	0.058829	-13.6625	20.7075	28.7496
 443	1	4	-0.00779	-15.702	21.4015	28.7436
 444	1	4	-0.029026	-15.3585	20.2112	30.0028
 445	1	2	-0.029357	-13.8572	19.439	27.9004
 446	1	4	-0.003083	-12.8841	20.5192	29.4978
 447	1	4	-0.010137	-13.3105	21.5435	28.1286
 448	1	2	-0.000585	-14.6423	19.7429	26.6108
 449	1	4	0.006084	-14.3803	18.6647	28.4709
 450	1	4	0.012201	-12.8667	19.0423	27.6486
 451	1	2	-0.03118	-14.4158	18.6782	25.5387
 452	1	4	0.011412	-14.308	20.7044	26.2011
 453	1	4	0.011566	-15.7156	19.8404	26.8318
 454	1	2	-0.057912	-15.3234	18.9197	24.319
 455	1	4	0.001922	-14.5966	17.6707	25.9382
 456	1	4	0.021794	-13.3579	18.7299	25.2474
 457	1	8	-0.501673	-13.719	17.6559	23.0149
 458	1	9	0.462	-14.8197	18.1887	23.0728
 459	1	4	0.029593	-15.396	19.9917	24.0914
 460	1	4	0.042406	-16.3375	18.5741	24.5477
 461	1	6	-0.353484	-8.99934	21.6603	30.1998
 462	1	2	0.376337	-9.40573	20.7376	31.2568
 463	1	2	-0.897489	-10.2716	21.5366	32.2251
 464	1	3	0.034041	-9.96404	19.8828	30.8666
 465	1	3	0.012328	-8.51367	20.3688	31.7784
 466	1	7	0.229239	-9.83842	22.0234	29.7525
 467	1	2	0.531206	-10.5519	20.7155	33.5042
 468	1	4	0.202592	-11.2186	21.837	31.7629
 469	1	4	0.099501	-9.73579	22.452	32.5048
 470	1	2	0.171725	-11.3296	21.4643	34.6306
 471	1	4	-0.10542	-9.59392	20.3629	33.9069
 472	1	4	-0.137294	-11.1122	19.8237	33.1999
 473	1	2	-0.155467	-10.5925	22.7258	35.1733
 474	1	4	-0.053736	-11.4953	20.7638	35.4594
 475	1	4	0.001015	-12.3239	21.7495	34.2594
 476	1	2	0.033419	-11.2933	23.4069	36.3845
 477	1	4	0.005395	-10.4889	23.455	34.3604
 478	1	4	0.019028	-9.57641	22.4346	35.4685
 479	1	2	0.058829	-10.455	24.5269	37.0608
 480	1	4	-0.00779	-11.5043	22.6453	37.1443
 481	1	4	-0.029026	-12.2624	23.8134	36.0681
 482	1	2	-0.029357	-10.0335	25.6745	36.1051
 483	1	4	-0.003083	-9.54658	24.0828	37.4932
 484	1	4	-0.010137	-11.0277	24.937	37.9006
 485	1	2	-0.000585	-11.1631	26.3632	35.2883
 486	1	4	0.006084	-9.31155	25.2641	35.3892
 487	1	4	0.012201	-9.48044	26.4336	36.6717
 488	1	2	-0.03118	-12.0956	27.2783	36.1212
 489	1	4	0.011412	-11.7472	25.6117	34.745
 490	1	4	0.011566	-10.6853	26.9776	34.5127
 491	1	2	-0.057912	-13.1356	28.0403	35.2548
 492	1	4	0.001922	-11.4744	28.019	36.6399
 493	1	4	0.021794	-12.6145	26.7069	36.9055
 494	1	8	-0.501673	-15.4021	27.4944	35.8783
 495	1	9	0.462	-14.4953	27.3393	35.0864
 496	1	4	0.029593	-12.7275	28.275	34.2631
 497	1	4	0.042406	-13.3463	29.0032	35.741
 498	1	1	-0.26285	-10.4257	19.6399	26.4777
 499	1	2	0.431937	-9.87335	20.6089	27.3956
 500	1	2	0.196566	-8.73369	20.0337	28.29
 501	1	3	-0.176879	-10.6728	20.9801	28.0534
 502	1	3	-0.045056	-9.49892	21.4783	26.8383
 503	1	2	0.080387	-8.07284	21.1071	29.1996
 504	1	4	0.032783	-7.95118	19.5953	27.662
 505	1	4	-0.126889	-9.11782	19.213	28.9137
 506	1	4	-0.081548	-7.69835	21.9311	28.5824
 507	1	4	-0.048451	-7.19801	20.6884	29.7098
 508	1	1	-0.26285	-9.94824	18.9799	21.5966
 509	1	2	0.431937	-9.31631	19.1163	22.87
 510	1	2	0.196566	-10.3123	19.463	24.0028
 511	1	3	-0.176879	-8.52974	19.8843	22.8315
 512	1	3	-0.045056	-8.82994	18.1614	23.1131
 513	1	2	0.080387	-9.59891	19.2822	25.3608
 514	1	4	0.032783	-11.1891	18.8078	23.9461
 515	1	4	-0.126889	-10.6595	20.499	23.9036
 516	1	4	-0.081548	-8.66936	19.8715	25.3658
 517	1	4	-0.048451	-9.29817	18.2315	25.4747
 518	1	1	-0.26285	-11.6186	18.1003	17.7063
 519	1	2	0.431937	-10.8062	18.8673	18.6196
 520	1	2	0.196566	-9.66832	18.0617	19.3195
 521	1	3	-0.176879	-11.4823	19.2706	19.3883
 522	1	3	-0.045056	-10.3734	19.7292	18.1048
 523	1	2	0.080387	-9.02502	18.8014	20.5172
 524	1	4	0.032783	-8.85642	17.8488	18.6173
 525	1	4	-0.126889	-10.0464	17.0871	19.6613
 526	1	4	-0.081548	-8.63705	19.7785	20.2056
 527	1	4	-0.048451	-8.17049	18.2059	20.8626
 528	1	6	-0.353484	-14.2583	12.2998	5.33342
 529	1	2	0.376337	-15.4008	12.2673	6.24357
 530	1	2	-0.897489	-14.8038	12.2552	7.64833
 531	1	3	0.034041	-15.9956	11.3604	6.08098
 532	1	3	0.012328	-16.0358	13.152	6.0965
 533	1	7	0.229239	-13.6202	11.5627	5.62577
 534	1	2	0.531206	-15.8821	12.2969	8.74812
 535	1	4	0.202592	-14.1312	13.1158	7.73593
 536	1	4	0.099501	-14.1803	11.3663	7.80007
 537	1	2	0.171725	-15.3441	12.7694	10.1223
 538	1	4	-0.10542	-16.3276	11.2978	8.83989
 539	1	4	-0.137294	-16.6922	12.9602	8.41975
 540	1	2	-0.155467	-15.0452	14.2905	10.1151
 541	1	4	-0.053736	-14.4413	12.2021	10.3906
 542	1	4	0.001015	-16.0936	12.5708	10.893
 543	1	2	0.033419	-14.4437	14.7687	11.4432
 544	1	4	0.005395	-15.975	14.8452	9.91395
 545	1	4	0.019028	-14.3403	14.5328	9.31425
 546	1	2	0.058829	-13.8448	16.1906	11.3171
 547	1	4	-0.00779	-13.6722	14.0608	11.7758
 548	1	4	-0.029026	-15.2383	14.7661	12.1996
 549	1	2	-0.029357	-13.2824	16.749	12.6452
 550	1	4	-0.003083	-14.6155	16.8786	10.955
 551	1	4	-0.010137	-13.0492	16.1861	10.5625
 552	1	2	-0.000585	-12.0745	15.9509	13.1914
 553	1	4	0.006084	-14.0702	16.7749	13.409
 554	1	4	0.012201	-12.9724	17.7885	12.4754
 555	1	2	-0.03118	-11.1941	16.7136	14.2169
 556	1	4	0.011412	-11.4418	15.6738	12.3523
 557	1	4	0.011566	-12.4088	15.0138	13.6362
 558	1	2	-0.057912	-11.9174	17.0947	15.5412
 559	1	4	0.001922	-10.8049	17.6283	13.7391
 560	1	4	0.021794	-10.3286	16.0797	14.4575
 561	1	8	-0.501673	-9.78584	17.8455	16.3753
 562	1	9	0.462	-10.9688	17.652	16.5999
 563	1	4	0.029593	-12.4163	16.2051	15.9607
 564	1	4	0.042406	-12.6918	17.8443	15.3481
 565	1	1	-0.26285	-14.7798	11.1707	1.16674
 566	1	2	0.431937	-13.7855	12.1773	1.4523
 567	1	2	0.196566	-13.3863	12.2925	2.96017
 568	1	3	-0.176879	-14.201	13.1491	1.1371
 569	1	3	-0.045056	-12.8899	12.0345	0.840992
 570	1	2	0.080387	-14.6015	12.1195	3.91476
 571	1	4	0.032783	-12.9484	13.2818	3.12156
 572	1	4	-0.126889	-12.6074	11.562	3.22305
 573	1	4	-0.081548	-15.3842	12.8269	3.63636
 574	1	4	-0.048451	-15.021	11.1108	3.79709
 575	1	6	-0.353484	-15.7663	8.30694	11.9345
 576	1	2	0.376337	-14.5635	8.17381	11.1208
 577	1	2	-0.897489	-14.2239	6.68248	11.0725
 578	1	3	0.034041	-13.7386	8.73473	11.5791
 579	1	3	0.012328	-14.7434	8.58167	10.1194
 580	1	7	0.229239	-15.6102	7.79642	12.8005
 581	1	2	0.531206	-13.0805	6.41327	10.0686
 582	1	4	0.202592	-15.1002	6.08587	10.8001
 583	1	4	0.099501	-13.9008	6.35157	12.0672
 584	1	2	0.171725	-13.4279	6.52856	8.55101
 585	1	4	-0.10542	-12.7019	5.40234	10.2622
 586	1	4	-0.137294	-12.2594	7.09774	10.3056
 587	1	2	-0.155467	-14.6178	5.65188	8.08713
 588	1	4	-0.053736	-12.5321	6.24172	7.98139
 589	1	4	0.001015	-13.6295	7.57663	8.29495
 590	1	2	0.033419	-14.7508	5.59449	6.5524
 591	1	4	0.005395	-15.5581	6.01944	8.51229
 592	1	4	0.019028	-14.4732	4.6279	8.46023
 593	1	2	0.058829	-15.0824	6.91256	5.82227
 594	1	4	-0.00779	-15.5278	4.85685	6.31195
 595	1	4	-0.029026	-13.8146	5.19189	6.14279
 596	1	2	-0.029357	-15.3416	6.59725	4.32774
 597	1	4	-0.003083	-14.2455	7.61561	5.92324
 598	1	4	-0.010137	-15.9704	7.38989	6.26012
 599	1	2	-0.000585	-15.3859	7.87732	3.47427
 600	1	4	0.006084	-16.2848	6.04903	4.2258
 601	1	4	0.012201	-14.5512	5.93368	3.95524
 602	1	2	-0.03118	-15.2808	7.59012	1.95986
 603	1	4	0.011412	-14.5569	8.53938	3.76482
 604	1	4	0.011566	-16.3142	8.42449	3.68237
 605	1	2	-0.057912	-15.4907	8.87263	1.12739
 606	1	4	0.001922	-16.0451	6.84767	1.6812
 607	1	4	0.021794	-14.3025	7.1429	1.73164
 608	1	8	-0.501673	-13.1832	9.58523	1.29083
 609	1	9	0.462	-14.3613	9.88948	1.31578
 610	1	4	0.029593	-16.4495	9.32748	1.40273
 611	1	4	0.042406	-15.5609	8.62787	0.0622114
 612	1	1	-0.26285	-16.9228	11.7565	14.2088
 613	1	2	0.431937	-17.904	11.2096	13.3116
 614	1	2	0.196566	-17.5001	9.75323	12.9611
 615	1	3	-0.176879	-17.9568	11.805	12.3881
 616	1	3	-0.045056	-18.902	11.2129	13.7738
 617	1	2	0.080387	-16.1341	9.69398	12.2408
 618	1	4	0.032783	-18.2757	9.31744	12.3148
 619	1	4	-0.126889	-17.4633	9.14009	13.8735
 620	1	4	-0.081548	-15.3503	10.131	12.8689
 621	1	4	-0.048451	-16.1829	10.2776	11.3151
 622	1	1	-0.26285	-13.9669	12.2371	14.7483
 623	1	2	0.431937	-14.4216	13.5674	15.0371
 624	1	2	0.196566	-15.9024	13.6299	15.4924
 625	1	3	-0.176879	-14.3001	14.1933	14.1503
 626	1	3	-0.045056	-13.8072	14.0175	15.8293
 627	1	2	0.080387	-16.9688	13.1626	14.4589
 628	1	4	0.032783	-16.1194	14.6737	15.7544
 629	1	4	-0.126889	-16.0263	13.0503	16.4215
 630	1	4	-0.081548	-16.8515	13.7172	13.52
 631	1	4	-0.048451	-17.9633	13.411	14.8502
 632	1	1	-0.26285	-11.4628	11.7964	11.8994