pySIMM System Object

604 atoms
603 bonds
1165 angles
1645 dihedrals
0 impropers

10 atom types
12 bond types
28 angle types
12 dihedral types
1 improper types

-104.683078 104.683078 xlo xhi
-104.683078 104.683078 ylo yhi
-104.683078 104.683078 zlo zhi

Masses

   1	14.01	# n3
   2	12.01	# c3
   3	1.008	# h1
   4	1.008	# hn
   5	1.008	# hc
   6	16.0	# o
   7	12.01	# c
   8	1.008	# h4
   9	16.0	# oh
  10	1.008	# ho

Pair Coeffs

   1	0.17	3.249998523775958	# n3
   2	0.1094	3.3996695084235347	# c3
   3	0.0157	2.471353044121301	# h1
   4	0.0157	1.069078461768407	# hn
   5	0.0157	2.649532787749369	# hc
   6	0.21	2.959921901149463	# o
   7	0.086	3.3996695084235347	# c
   8	0.015	2.5105525877194763	# h4
   9	0.2104	3.0664733878390478	# oh
  10	0.0047	0.5379246460131368	# ho

Bond Coeffs

   1	300.9	1.5375	# c3,c3
   2	392.4	1.019	# hn,n3
   3	330.6	1.0969	# c3,h1
   4	637.7	1.2183	# c,o
   5	325.9	1.4647	# c3,n3
   6	310.7	1.1121	# c,h4
   7	330.6	1.0969	# c3,hc
   8	313.0	1.5241	# c,c3
   9	316.7	1.4233	# c3,oh
  10	371.4	0.973	# ho,oh
  11	400.1	1.3513	# c,oh
  12	325.9	1.465	# n3,c

Angle Coeffs

   1	46.39	109.56	# c3,c3,h1
   2	66.02	111.04	# c3,c3,n3
   3	45.64	114.64	# c3,c,h4
   4	41.4	106.4	# hn,n3,hn
   5	39.24	108.46	# h1,c3,h1
   6	67.4	123.2	# c3,c,o
   7	47.42	109.29	# c3,n3,hn
   8	46.34	109.8	# c3,c3,hc
   9	63.27	111.04	# c,c3,c3
  10	39.4	107.58	# hc,c3,hc
  11	46.93	108.77	# c,c3,hc
  12	49.53	109.88	# h1,c3,n3
  13	62.86	111.51	# c3,c3,c3
  14	54.22	120.7	# h4,c,o
  15	67.47	110.19	# c3,c3,oh
  16	50.93	110.26	# h1,c3,oh
  17	47.38	107.26	# c3,oh,ho
  18	63.82	112.35	# c3,n3,c3
  19	49.55	109.8	# hc,c3,n3
  20	62.7	112.48	# c3,oh,c3
  21	51.11	109.5	# hc,c3,oh
  22	67.9	109.98	# c3,oh,c
  23	68.4	112.73	# c3,c,oh
  24	75.92	122.1	# o,c,oh
  25	63.8	112.35	# c3,n3,c
  26	47.4	109.29	# hn,n3,c
  27	66.0	111.04	# n3,c,c3
  28	70.9	110.7	# n3,c,o

Dihedral Coeffs

   1	1	0.16	3	0	# hc,c3,c3,c3
   2	1	0.3	3	0	# X,c3,n3,X
   3	1	0.15555555555555556	3	0	# X,c3,c3,X
   4	3	0.18	3	0	0.25	2	180	0.2	1	180	# c3,c3,c3,c3
   5	1	0.0	2	180	# X,c,c3,X
   6	1	0.15	3	0	# hc,c3,c3,hc
   7	3	0.8	1	0	0.0	2	0	0.08	3	180	# hc,c3,c,o
   8	2	0.16	3	0	0.25	1	0	# ho,oh,c3,c3
   9	1	0.16666666666666666	3	0	# X,c3,oh,X
  10	2	0.0	3	0	0.25	1	0	# hc,c3,c3,oh
  11	2	0.3	3	0	0.48	2	180	# c3,c3,n3,c3
  12	1	2.3	2	180	# X,c,oh,X

Improper Coeffs

   1	10.5	-1	2	# c,X,X,o

Atoms

   1	1	1	-0.353484	8.93632	-23.1296	-17.5768
   2	1	2	0.376337	7.96069	-24.1919	-17.6612
   3	1	2	-0.897489	7.73578	-24.3586	-19.1519
   4	1	3	0.034041	7.01859	-23.863	-17.2004
   5	1	3	0.012328	8.31367	-25.1188	-17.1849
   6	1	4	0.229239	8.65815	-22.4334	-18.2634
   7	1	2	0.531206	6.71937	-25.4864	-19.3781
   8	1	5	0.202592	8.67894	-24.6068	-19.6589
   9	1	5	0.099501	7.33396	-23.4255	-19.5636
  10	1	2	0.171725	6.28042	-25.6643	-20.8571
  11	1	5	-0.10542	5.82625	-25.2547	-18.7812
  12	1	5	-0.137294	7.15016	-26.422	-19.0037
  13	1	2	-0.155467	5.62594	-27.0332	-21.2351
  14	1	5	-0.053736	7.15992	-25.5076	-21.4902
  15	1	5	0.001015	5.57006	-24.8558	-21.0729
  16	1	2	0.033419	4.99916	-26.9259	-22.6354
  17	1	5	0.005395	4.8753	-27.3284	-20.4862
  18	1	5	0.019028	6.37906	-27.8368	-21.2311
  19	1	2	0.058829	4.12472	-28.1626	-22.9283
  20	1	5	-0.00779	5.80051	-26.842	-23.378
  21	1	5	-0.029026	4.38862	-26.0247	-22.7511
  22	1	2	-0.029357	3.48219	-27.9386	-24.3223
  23	1	5	-0.003083	3.33082	-28.2452	-22.1784
  24	1	5	-0.010137	4.72342	-29.0852	-22.8768
  25	1	2	-0.000585	2.94372	-29.275	-24.8838
  26	1	5	0.006084	4.23837	-27.5502	-25.0174
  27	1	5	0.012201	2.6869	-27.1808	-24.2532
  28	1	2	-0.03118	1.62143	-29.6962	-24.1769
  29	1	5	0.011412	3.70678	-30.0511	-24.751
  30	1	5	0.011566	2.77622	-29.195	-25.9644
  31	1	2	-0.057912	0.325288	-28.9462	-24.6176
  32	1	5	0.001922	1.73297	-29.5592	-23.0852
  33	1	5	0.021794	1.4803	-30.7706	-24.3178
  34	1	6	-0.501673	-0.646483	-30.5086	-26.2691
  35	1	7	0.462	-0.348289	-29.368	-25.9515
  36	1	5	0.029593	0.540104	-27.8786	-24.7051
  37	1	5	0.042406	-0.423744	-29.0674	-23.8236
  38	1	9	-0.26285	11.8023	-20.6478	-14.4238
  39	1	2	0.431937	10.4662	-21.0315	-14.7634
  40	1	2	0.196566	10.3258	-21.717	-16.1343
  41	1	3	-0.176879	9.81153	-20.15	-14.7444
  42	1	3	-0.045056	10.0816	-21.6989	-13.9843
  43	1	2	0.080387	8.98888	-22.4734	-16.282
  44	1	5	0.032783	11.1464	-22.4367	-16.2425
  45	1	5	-0.126889	10.4236	-20.9783	-16.9408
  46	1	5	-0.081548	8.12286	-21.8107	-16.1662
  47	1	5	-0.048451	8.92161	-23.2412	-15.4986
  48	1	9	-0.26285	12.1432	-16.2226	-13.3177
  49	1	2	0.431937	12.1442	-17.6539	-13.4288
  50	1	2	0.196566	11.7467	-18.142	-14.851
  51	1	3	-0.176879	11.4521	-18.08	-12.6883
  52	1	3	-0.045056	13.1387	-18.0418	-13.1892
  53	1	2	0.080387	12.3593	-19.5403	-15.1645
  54	1	5	0.032783	12.135	-17.4572	-15.6157
  55	1	5	-0.126889	10.6557	-18.1531	-14.992
  56	1	5	-0.081548	13.429	-19.5074	-14.9295
  57	1	5	-0.048451	12.3034	-19.7422	-16.2357
  58	1	1	-0.353484	6.81685	-7.5345	-0.87172
  59	1	2	0.376337	6.652	-7.92761	-2.27044
  60	1	2	-0.897489	7.87434	-8.72754	-2.75446
  61	1	3	0.034041	6.47504	-7.04785	-2.89168
  62	1	3	0.012328	5.78951	-8.58971	-2.34832
  63	1	4	0.229239	7.54717	-6.82894	-0.824439
  64	1	2	0.531206	7.60241	-9.25313	-4.18416
  65	1	5	0.202592	8.03894	-9.59441	-2.09444
  66	1	5	0.099501	8.78676	-8.09677	-2.73559
  67	1	2	0.171725	8.79755	-9.98939	-4.83262
  68	1	5	-0.10542	7.32153	-8.41518	-4.81584
  69	1	5	-0.137294	6.74479	-9.92674	-4.15646
  70	1	2	-0.155467	8.47233	-10.4481	-6.2659
  71	1	5	-0.053736	9.08841	-10.8565	-4.22655
  72	1	5	0.001015	9.66082	-9.31732	-4.84727
  73	1	2	0.033419	9.71015	-11.1464	-6.8655
  74	1	5	0.005395	8.20281	-9.58753	-6.88862
  75	1	5	0.019028	7.62783	-11.1446	-6.25478
  76	1	2	0.058829	9.58856	-11.4896	-8.38159
  77	1	5	-0.00779	9.89704	-12.0621	-6.28537
  78	1	5	-0.029026	10.5841	-10.4959	-6.71251
  79	1	2	-0.029357	10.427	-12.7566	-8.72417
  80	1	5	-0.003083	9.85898	-10.6255	-9.00799
  81	1	5	-0.010137	8.532	-11.7141	-8.59178
  82	1	2	-0.000585	10.9618	-12.8788	-10.1776
  83	1	5	0.006084	9.83681	-13.6532	-8.49005
  84	1	5	0.012201	11.3009	-12.7897	-8.06388
  85	1	2	-0.03118	11.9317	-14.0658	-10.3217
  86	1	5	0.011412	11.4761	-11.9532	-10.4958
  87	1	5	0.011566	10.0936	-13.017	-10.8464
  88	1	2	-0.057912	12.2417	-14.3333	-11.8126
  89	1	5	0.001922	11.4968	-14.9712	-9.87734
  90	1	5	0.021794	12.8549	-13.8475	-9.76386
  91	1	6	-0.501673	13.4831	-16.3814	-11.4561
  92	1	7	0.462	12.6659	-15.7686	-12.1262
  93	1	5	0.029593	13.019	-13.6484	-12.1704
  94	1	5	0.042406	11.3345	-14.138	-12.4061
  95	1	9	-0.26285	3.22758	-7.21512	1.39368
  96	1	2	0.431937	4.34459	-6.54978	1.95194
  97	1	2	0.196566	5.63934	-7.02738	1.2972
  98	1	3	-0.176879	4.39884	-6.72737	3.03642
  99	1	3	-0.045056	4.25363	-5.46811	1.78624
 100	1	2	0.080387	5.5698	-7.04261	-0.253748
 101	1	5	0.032783	5.91663	-8.01738	1.68215
 102	1	5	-0.126889	6.45868	-6.36697	1.61422
 103	1	5	-0.081548	5.31933	-6.04835	-0.63567
 104	1	5	-0.048451	4.74779	-7.714	-0.570825
 105	1	1	-0.353484	-11.7482	-3.51787	-1.52403
 106	1	2	0.376337	-10.8302	-2.61279	-0.888473
 107	1	2	-0.897489	-9.7822	-3.39281	-0.0706402
 108	1	3	0.034041	-11.3879	-1.90895	-0.248066
 109	1	3	0.012328	-10.2994	-1.99011	-1.62252
 110	1	4	0.229239	-11.2344	-4.34805	-1.82665
 111	1	2	0.531206	-8.76314	-4.00421	-1.04721
 112	1	5	0.202592	-10.2553	-4.1546	0.573373
 113	1	5	0.099501	-9.27234	-2.68163	0.592226
 114	1	2	0.171725	-7.42761	-4.24882	-0.327801
 115	1	5	-0.10542	-8.58757	-3.2906	-1.85973
 116	1	5	-0.137294	-9.21924	-4.90576	-1.48341
 117	1	2	-0.155467	-6.36667	-5.00382	-1.11481
 118	1	5	-0.053736	-7.59787	-4.77284	0.631786
 119	1	5	0.001015	-7.02618	-3.25799	-0.0736762
 120	1	2	0.033419	-5.11116	-5.14983	-0.239087
 121	1	5	0.005395	-6.08194	-4.41382	-1.99349
 122	1	5	0.019028	-6.75943	-5.98301	-1.42319
 123	1	2	0.058829	-3.81624	-5.57018	-0.9936
 124	1	5	-0.00779	-5.32549	-5.92295	0.507198
 125	1	5	-0.029026	-4.95724	-4.23449	0.346817
 126	1	2	-0.029357	-2.77367	-6.02261	0.0650011
 127	1	5	-0.003083	-3.43128	-4.7044	-1.53903
 128	1	5	-0.010137	-3.9923	-6.38069	-1.70703
 129	1	2	-0.000585	-1.30958	-6.12189	-0.389478
 130	1	5	0.006084	-3.09958	-6.99381	0.466671
 131	1	5	0.012201	-2.80301	-5.32147	0.903589
 132	1	2	-0.03118	-0.375452	-6.39532	0.826941
 133	1	5	0.011412	-1.00548	-5.19181	-0.891992
 134	1	5	0.011566	-1.25404	-6.92329	-1.12914
 135	1	2	-0.057912	1.1479	-6.53542	0.485388
 136	1	5	0.001922	-0.731955	-7.30569	1.33948
 137	1	5	0.021794	-0.465068	-5.58412	1.57077
 138	1	6	-0.501673	1.84369	-6.05812	2.77601
 139	1	7	0.462	2.08284	-6.55588	1.6853
 140	1	5	0.029593	1.48673	-5.72625	-0.191048
 141	1	5	0.042406	1.28181	-7.49584	-0.0619323
 142	1	9	-0.26285	-15.4241	-2.99033	-2.63887
 143	1	2	0.431937	-14.5707	-4.12938	-2.6606
 144	1	2	0.196566	-13.2645	-3.88758	-3.43783
 145	1	3	-0.176879	-15.0898	-5.03243	-3.03358
 146	1	3	-0.045056	-14.2894	-4.34721	-1.61418
 147	1	2	0.080387	-12.3932	-2.89773	-2.69299
 148	1	5	0.032783	-13.48	-3.53105	-4.44624
 149	1	5	-0.126889	-12.7166	-4.83234	-3.51936
 150	1	5	-0.081548	-12.9326	-2.00314	-2.38288
 151	1	5	-0.048451	-11.6125	-2.54408	-3.37356
 152	1	9	-0.26285	-19.7592	-2.73131	-3.41217
 153	1	2	0.431937	-19.1414	-3.5681	-2.4547
 154	1	2	0.196566	-17.7672	-2.98018	-2.1702
 155	1	3	-0.176879	-19.1098	-4.606	-2.79135
 156	1	3	-0.045056	-19.6947	-3.51438	-1.51684
 157	1	2	0.080387	-16.6854	-3.12715	-3.29998
 158	1	5	0.032783	-17.3742	-3.50982	-1.30133
 159	1	5	-0.126889	-17.8534	-1.93112	-1.86886
 160	1	5	-0.081548	-16.8201	-2.36434	-4.0798
 161	1	5	-0.048451	-16.7809	-4.07587	-3.84379
 162	1	9	-0.26285	-23.5771	-0.414048	-4.93138
 163	1	2	0.431937	-23.1398	-1.4255	-4.00319
 164	1	2	0.196566	-21.8263	-2.07738	-4.47206
 165	1	3	-0.176879	-23.9151	-2.20233	-3.94992
 166	1	3	-0.045056	-23.023	-1.08955	-2.96434
 167	1	2	0.080387	-21.1596	-2.95397	-3.40914
 168	1	5	0.032783	-21.107	-1.30712	-4.80122
 169	1	5	-0.126889	-22.0094	-2.68452	-5.36999
 170	1	5	-0.081548	-21.3647	-4.00225	-3.64303
 171	1	5	-0.048451	-21.5611	-2.76781	-2.40724
 172	1	1	-0.353484	-37.3774	7.3769	-4.94788
 173	1	2	0.376337	-36.4022	6.80825	-5.86054
 174	1	2	-0.897489	-35.7102	5.63867	-5.16287
 175	1	3	0.034041	-35.6649	7.5671	-6.14042
 176	1	3	0.012328	-36.892	6.45514	-6.77756
 177	1	4	0.229239	-36.9472	7.44198	-4.02783
 178	1	2	0.531206	-34.6092	5.19297	-6.1743
 179	1	5	0.202592	-36.4251	4.83037	-4.96193
 180	1	5	0.099501	-35.2743	5.97642	-4.20928
 181	1	2	0.171725	-33.4767	4.24484	-5.69732
 182	1	5	-0.10542	-34.1372	6.11329	-6.54467
 183	1	5	-0.137294	-35.1148	4.76434	-7.05749
 184	1	2	-0.155467	-32.1009	4.43261	-6.40064
 185	1	5	-0.053736	-33.8	3.19146	-5.77629
 186	1	5	0.001015	-33.345	4.42009	-4.62026
 187	1	2	0.033419	-31.0459	3.68445	-5.54033
 188	1	5	0.005395	-31.8271	5.49345	-6.46935
 189	1	5	0.019028	-32.124	4.02978	-7.42398
 190	1	2	0.058829	-29.6466	3.59188	-6.15735
 191	1	5	-0.00779	-31.3845	2.6486	-5.34334
 192	1	5	-0.029026	-30.9673	4.1791	-4.54958
 193	1	2	-0.029357	-28.6011	3.07404	-5.11814
 194	1	5	-0.003083	-29.3571	4.57345	-6.55816
 195	1	5	-0.010137	-29.6564	2.91298	-7.0229
 196	1	2	-0.000585	-27.1858	2.67892	-5.64881
 197	1	5	0.006084	-29.0112	2.17347	-4.65299
 198	1	5	0.012201	-28.5019	3.82566	-4.33827
 199	1	2	-0.03118	-26.1962	2.10459	-4.60124
 200	1	5	0.011412	-26.7437	3.53066	-6.17587
 201	1	5	0.011566	-27.3258	1.91204	-6.4142
 202	1	2	-0.057912	-24.9103	1.53759	-5.24894
 203	1	5	0.001922	-26.7228	1.29043	-4.08417
 204	1	5	0.021794	-25.9456	2.84251	-3.82697
 205	1	6	-0.501673	-23.677	1.06303	-3.2513
 206	1	7	0.462	-24.1286	0.641486	-4.29835
 207	1	5	0.029593	-24.2322	2.34762	-5.56318
 208	1	5	0.042406	-25.1555	0.936506	-6.13396
 209	1	9	-0.26285	-40.6751	10.9748	-4.57003
 210	1	2	0.431937	-39.3277	10.666	-4.97976
 211	1	2	0.196566	-38.9032	9.28024	-4.46977
 212	1	3	-0.176879	-38.615	11.4188	-4.65227
 213	1	3	-0.045056	-39.2985	10.6099	-6.0702
 214	1	2	0.080387	-37.7699	8.7367	-5.37024
 215	1	5	0.032783	-39.7665	8.5977	-4.52823
 216	1	5	-0.126889	-38.5465	9.32356	-3.41834
 217	1	5	-0.081548	-36.8783	9.37366	-5.28006
 218	1	5	-0.048451	-38.0714	8.73314	-6.42192
 219	1	9	-0.26285	-43.8158	14.439	-3.78345
 220	1	2	0.431937	-42.5381	14.0625	-4.3207
 221	1	2	0.196566	-42.5764	12.5755	-4.70166
 222	1	3	-0.176879	-41.7875	14.2194	-3.53495
 223	1	3	-0.045056	-42.251	14.6936	-5.17544
 224	1	2	0.080387	-41.2392	12.0831	-5.28376
 225	1	5	0.032783	-43.3553	12.4258	-5.46386
 226	1	5	-0.126889	-42.8712	11.9574	-3.83937
 227	1	5	-0.081548	-40.5165	12.9163	-5.35502
 228	1	5	-0.048451	-41.4238	11.7317	-6.31251
 229	1	1	-0.353484	-51.3321	13.0905	2.61322
 230	1	2	0.376337	-52.1429	14.2684	2.79857
 231	1	2	-0.897489	-52.3934	14.8302	1.40698
 232	1	3	0.034041	-51.582	15.0214	3.36569
 233	1	3	0.012328	-53.0651	14.0499	3.34244
 234	1	4	0.229239	-51.9547	12.4093	2.19739
 235	1	2	0.531206	-52.9912	16.2555	1.38894
 236	1	5	0.202592	-53.0908	14.1697	0.871474
 237	1	5	0.099501	-51.4428	14.8129	0.862593
 238	1	2	0.171725	-53.3528	16.6696	-0.0606148
 239	1	5	-0.10542	-52.2531	16.9486	1.84218
 240	1	5	-0.137294	-53.9005	16.248	2.00092
 241	1	2	-0.155467	-52.2238	17.3311	-0.907855
 242	1	5	-0.053736	-54.1876	17.3968	-0.02645
 243	1	5	0.001015	-53.7691	15.8018	-0.590937
 244	1	2	0.033419	-51.282	16.3177	-1.59934
 245	1	5	0.005395	-51.6326	18.0017	-0.267594
 246	1	5	0.019028	-52.7109	17.9668	-1.66522
 247	1	2	0.058829	-50.4227	16.8989	-2.76012
 248	1	5	-0.00779	-51.8499	15.4584	-1.95687
 249	1	5	-0.029026	-50.6021	15.9202	-0.849651
 250	1	2	-0.029357	-49.2923	15.9066	-3.22766
 251	1	5	-0.003083	-49.9686	17.8405	-2.44682
 252	1	5	-0.010137	-51.0676	17.1495	-3.61378
 253	1	2	-0.000585	-48.3189	16.5358	-4.25949
 254	1	5	0.006084	-49.7349	15.0109	-3.63944
 255	1	5	0.012201	-48.698	15.5838	-2.36758
 256	1	2	-0.03118	-47.2973	15.567	-4.92832
 257	1	5	0.011412	-47.7683	17.355	-3.77979
 258	1	5	0.011566	-48.901	17.027	-5.04312
 259	1	2	-0.057912	-46.1774	14.9973	-3.98527
 260	1	5	0.001922	-46.8082	16.1419	-5.72043
 261	1	5	0.021794	-47.8357	14.7351	-5.41527
 262	1	6	-0.501673	-44.63	14.8047	-5.85154
 263	1	7	0.462	-44.813	14.7012	-4.66255
 264	1	5	0.029593	-46.5429	14.0608	-3.53847
 265	1	5	0.042406	-45.9821	15.6977	-3.16505
 266	1	1	-0.353484	-36.6742	12.1318	2.06277
 267	1	2	0.376337	-37.6716	13.1741	1.78483
 268	1	2	-0.897489	-39.0967	12.6192	1.93736
 269	1	3	0.034041	-37.5279	13.5452	0.754733
 270	1	3	0.012328	-37.5088	13.9941	2.5014
 271	1	4	0.229239	-36.9877	11.2412	1.6784
 272	1	2	0.531206	-39.9871	13.5955	2.7056
 273	1	5	0.202592	-39.0916	11.6675	2.48367
 274	1	5	0.099501	-39.5187	12.3763	0.945848
 275	1	2	0.171725	-41.4778	13.1294	2.74365
 276	1	5	-0.10542	-39.9019	14.5468	2.18816
 277	1	5	-0.137294	-39.5788	13.7101	3.72637
 278	1	2	-0.155467	-42.3687	13.8202	3.81811
 279	1	5	-0.053736	-41.5343	12.0468	2.9432
 280	1	5	0.001015	-41.9258	13.2894	1.75677
 281	1	2	0.033419	-43.8628	13.3475	3.7621
 282	1	5	0.005395	-42.3351	14.9212	3.65494
 283	1	5	0.019028	-41.9457	13.6203	4.79745
 284	1	2	0.058829	-44.6741	14.0152	4.91848
 285	1	5	-0.00779	-43.8996	12.2588	3.85685
 286	1	5	-0.029026	-44.2961	13.5973	2.78409
 287	1	2	-0.029357	-46.1796	14.3424	4.706
 288	1	5	-0.003083	-44.1744	14.9602	5.18312
 289	1	5	-0.010137	-44.6021	13.3777	5.81567
 290	1	2	-0.000585	-47.0666	13.0932	4.42173
 291	1	5	0.006084	-46.2729	15.0664	3.89232
 292	1	5	0.012201	-46.5696	14.8212	5.61273
 293	1	2	-0.03118	-48.6069	13.42	4.36313
 294	1	5	0.011412	-46.825	12.3175	5.1559
 295	1	5	0.011566	-46.7693	12.6956	3.44873
 296	1	2	-0.057912	-49.4848	12.2021	3.98148
 297	1	5	0.001922	-48.7591	14.23	3.6429
 298	1	5	0.021794	-48.9247	13.8172	5.33568
 299	1	6	-0.501673	-51.9065	11.9374	4.37421
 300	1	7	0.462	-50.9695	12.5932	3.92633
 301	1	5	0.029593	-49.3726	11.4057	4.72196
 302	1	5	0.042406	-49.1687	11.7989	3.02325
 303	1	9	-0.26285	-32.3249	10.2276	2.73941
 304	1	2	0.431937	-32.9607	11.3926	2.13576
 305	1	2	0.196566	-34.4162	11.411	2.59623
 306	1	3	-0.176879	-32.9137	11.3217	1.04053
 307	1	3	-0.045056	-32.4802	12.3334	2.43914
 308	1	2	0.080387	-35.2721	12.325	1.70881
 309	1	5	0.032783	-34.4545	11.7583	3.63855
 310	1	5	-0.126889	-34.8382	10.3867	2.59479
 311	1	5	-0.081548	-35.1346	12.0694	0.644158
 312	1	5	-0.048451	-34.9416	13.3634	1.83161
 313	1	1	-0.353484	-25.6812	4.14685	15.9539
 314	1	2	0.376337	-25.6954	4.67809	14.5964
 315	1	2	-0.897489	-26.8713	5.73051	14.5486
 316	1	3	0.034041	-25.9275	3.8598	13.9158
 317	1	3	0.012328	-24.7354	5.12976	14.2856
 318	1	4	0.229239	-26.5743	3.69091	16.0863
 319	1	2	0.531206	-27.5619	5.83599	13.1493
 320	1	5	0.202592	-26.5252	6.72068	14.864
 321	1	5	0.099501	-27.6747	5.43664	15.2364
 322	1	2	0.171725	-26.6137	6.04668	11.9347
 323	1	5	-0.10542	-28.3472	6.59152	13.21
 324	1	5	-0.137294	-28.0881	4.88606	13.0051
 325	1	2	-0.155467	-27.362	6.00988	10.5375
 326	1	5	-0.053736	-25.8525	5.25437	11.9148
 327	1	5	0.001015	-26.0525	6.99465	12.0473
 328	1	2	0.033419	-28.05	7.32822	10.0784
 329	1	5	0.005395	-28.0999	5.19582	10.5878
 330	1	5	0.019028	-26.6474	5.72204	9.77306
 331	1	2	0.058829	-28.8442	7.17915	8.74884
 332	1	5	-0.00779	-27.257	8.07367	9.94558
 333	1	5	-0.029026	-28.6959	7.70144	10.8813
 334	1	2	-0.029357	-29.6968	8.40833	8.26521
 335	1	5	-0.003083	-29.5404	6.34137	8.83998
 336	1	5	-0.010137	-28.1525	6.92425	7.94748
 337	1	2	-0.000585	-30.2556	8.142	6.83985
 338	1	5	0.006084	-29.1196	9.34134	8.28367
 339	1	5	0.012201	-30.5562	8.51464	8.93186
 340	1	2	-0.03118	-30.8622	9.3961	6.23508
 341	1	5	0.011412	-30.9734	7.30792	6.89385
 342	1	5	0.011566	-29.4364	7.80458	6.1951
 343	1	2	-0.057912	-31.5122	9.11256	4.85523
 344	1	5	0.001922	-30.0204	10.0923	6.13459
 345	1	5	0.021794	-31.5854	9.84271	6.91962
 346	1	6	-0.501673	-31.5872	11.4995	4.46977
 347	1	7	0.462	-31.8289	10.3862	4.03344
 348	1	5	0.029593	-32.4508	8.55502	4.9449
 349	1	5	0.042406	-30.8454	8.49167	4.25916
 350	1	1	-0.353484	-14.7329	-4.46438	21.0194
 351	1	2	0.376337	-15.7038	-4.02188	20.0669
 352	1	2	-0.897489	-16.7743	-3.30688	20.8725
 353	1	3	0.034041	-16.0894	-4.85476	19.4504
 354	1	3	0.012328	-15.3107	-3.2503	19.3746
 355	1	4	0.229239	-15.0852	-5.19173	21.6291
 356	1	2	0.531206	-17.8565	-2.62453	19.9863
 357	1	5	0.202592	-16.2587	-2.56535	21.5007
 358	1	5	0.099501	-17.2567	-4.03356	21.5474
 359	1	2	0.171725	-18.6517	-1.56674	20.7996
 360	1	5	-0.10542	-18.4953	-3.44628	19.6354
 361	1	5	-0.137294	-17.3828	-2.18415	19.1043
 362	1	2	-0.155467	-19.5395	-0.659362	19.9962
 363	1	5	-0.053736	-17.9827	-0.94529	21.425
 364	1	5	0.001015	-19.3088	-2.10383	21.5231
 365	1	2	0.033419	-20.7485	-0.0886299	20.8345
 366	1	5	0.005395	-19.8793	-1.19836	19.0951
 367	1	5	0.019028	-18.9227	0.198707	19.6391
 368	1	2	0.058829	-21.4174	0.992189	19.9955
 369	1	5	-0.00779	-20.3858	0.275028	21.8039
 370	1	5	-0.029026	-21.4871	-0.838377	21.1177
 371	1	2	-0.029357	-22.6407	1.55157	20.717
 372	1	5	-0.003083	-21.7484	0.529478	19.0695
 373	1	5	-0.010137	-20.7236	1.78565	19.7411
 374	1	2	-0.000585	-23.3154	2.77401	20.0287
 375	1	5	0.006084	-22.3761	1.817	21.7373
 376	1	5	0.012201	-23.4088	0.792927	20.8675
 377	1	2	-0.03118	-23.3178	2.76954	18.4834
 378	1	5	0.011412	-22.7852	3.69015	20.3537
 379	1	5	0.011566	-24.369	2.83687	20.3764
 380	1	2	-0.057912	-24.3644	3.6491	17.7707
 381	1	5	0.001922	-23.4725	1.71459	18.1937
 382	1	5	0.021794	-22.3267	3.06973	18.1369
 383	1	6	-0.501673	-24.8849	2.0532	15.9082
 384	1	7	0.462	-24.6352	3.19965	16.2989
 385	1	5	0.029593	-23.9849	4.69675	17.739
 386	1	5	0.042406	-25.3004	3.61435	18.3415
 387	1	9	-0.26285	-10.5818	-4.68629	20.1847
 388	1	2	0.431937	-11.1146	-5.69731	21.046
 389	1	2	0.196566	-12.5045	-5.26754	21.442
 390	1	3	-0.176879	-10.5422	-5.75109	21.9557
 391	1	3	-0.045056	-11.0837	-6.69489	20.5526
 392	1	2	0.080387	-13.4907	-4.85432	20.3563
 393	1	5	0.032783	-12.3214	-4.4493	22.1469
 394	1	5	-0.126889	-13.0042	-6.05035	22.0369
 395	1	5	-0.081548	-13.6742	-5.63668	19.6246
 396	1	5	-0.048451	-13.1456	-3.96051	19.8113
 397	1	1	-0.353484	-1.81157	-3.16446	9.69548
 398	1	2	0.376337	-3.12648	-2.65737	9.26062
 399	1	2	-0.897489	-4.11796	-2.77826	10.4822
 400	1	3	0.034041	-3.4766	-3.16771	8.37338
 401	1	3	0.012328	-3.03821	-1.59575	8.99428
 402	1	4	0.229239	-1.72798	-2.78526	10.6451
 403	1	2	0.531206	-5.61077	-2.4103	10.2204
 404	1	5	0.202592	-3.75089	-2.2482	11.3817
 405	1	5	0.099501	-4.12548	-3.8283	10.7129
 406	1	2	0.171725	-6.3562	-1.97204	11.5256
 407	1	5	-0.10542	-6.04685	-3.28338	9.72336
 408	1	5	-0.137294	-5.6737	-1.60773	9.46934
 409	1	2	-0.155467	-7.91663	-1.83654	11.3207
 410	1	5	-0.053736	-5.93224	-1.00923	11.8711
 411	1	5	0.001015	-6.16818	-2.67723	12.3553
 412	1	2	0.033419	-8.87591	-2.19162	12.537
 413	1	5	0.005395	-8.21977	-2.49277	10.4676
 414	1	5	0.019028	-8.12031	-0.829824	10.9725
 415	1	2	0.058829	-8.26622	-1.84482	13.9813
 416	1	5	-0.00779	-8.97739	-3.29245	12.5722
 417	1	5	-0.029026	-9.87409	-1.75566	12.4146
 418	1	2	-0.029357	-9.06138	-2.57488	15.1066
 419	1	5	-0.003083	-8.2125	-0.782244	14.1629
 420	1	5	-0.010137	-7.26452	-2.22001	14.0506
 421	1	2	-0.000585	-8.4969	-2.66399	16.6041
 422	1	5	0.006084	-9.15614	-3.62806	14.8136
 423	1	5	0.012201	-10.0871	-2.17827	15.1288
 424	1	2	-0.03118	-9.48367	-3.54593	17.4482
 425	1	5	0.011412	-8.44971	-1.66255	17.0426
 426	1	5	0.011566	-7.50105	-3.13073	16.519
 427	1	2	-0.057912	-8.81133	-3.7826	18.8295
 428	1	5	0.001922	-9.72445	-4.51302	16.9912
 429	1	5	0.021794	-10.4026	-3.01707	17.5578
 430	1	6	-0.501673	-8.59457	-5.73466	20.2546
 431	1	7	0.462	-9.34424	-4.92516	19.7344
 432	1	5	0.029593	-8.87138	-2.88258	19.4131
 433	1	5	0.042406	-7.7342	-3.8739	18.7465
 434	1	9	-0.26285	1.235	0.496804	8.25077
 435	1	2	0.431937	1.13166	-0.947227	8.4704
 436	1	2	0.196566	-0.212201	-1.28431	9.1653
 437	1	3	-0.176879	1.89581	-1.25921	9.17117
 438	1	3	-0.045056	1.26235	-1.52266	7.538
 439	1	2	0.080387	-0.623932	-2.71229	8.95514
 440	1	5	0.032783	-1.02332	-0.595475	8.81234
 441	1	5	-0.126889	-0.102898	-1.05966	10.2263
 442	1	5	-0.081548	0.277256	-3.29678	9.23978
 443	1	5	-0.048451	-0.711427	-2.85395	7.8704
 444	1	9	-0.26285	4.02207	3.93962	9.24149
 445	1	2	0.431937	3.37765	2.94025	8.46625
 446	1	2	0.196566	3.22405	1.58946	9.20402
 447	1	3	-0.176879	3.887	2.75167	7.50455
 448	1	3	-0.045056	2.41959	3.41583	8.2112
 449	1	2	0.080387	1.72745	1.29638	9.35732
 450	1	5	0.032783	3.54084	1.67708	10.2836
 451	1	5	-0.126889	3.81702	0.722983	8.88448
 452	1	5	-0.081548	1.56438	0.825876	10.362
 453	1	5	-0.048451	1.0705	2.21737	9.40935
 454	1	1	-0.353484	17.4198	8.0423	15.2719
 455	1	2	0.376337	16.4593	6.99594	15.7636
 456	1	2	-0.897489	16.071	6.00856	14.6166
 457	1	3	0.034041	15.592	7.49044	16.2785
 458	1	3	0.012328	16.9977	6.53365	16.5524
 459	1	4	0.229239	17.5662	8.74987	16.0407
 460	1	2	0.531206	14.9616	6.60156	13.7269
 461	1	5	0.202592	15.7743	5.11097	15.0335
 462	1	5	0.099501	17.0025	5.72454	14.029
 463	1	2	0.171725	13.8949	5.62506	13.0893
 464	1	5	-0.10542	15.3636	7.27317	12.8985
 465	1	5	-0.137294	14.513	7.42203	14.3953
 466	1	2	-0.155467	12.6049	6.05947	12.3355
 467	1	5	-0.053736	13.4423	4.93311	13.8242
 468	1	5	0.001015	14.3965	4.87292	12.3903
 469	1	2	0.033419	11.8443	4.77735	11.7759
 470	1	5	0.005395	12.7071	6.8021	11.5549
 471	1	5	0.019028	11.9932	6.61398	13.0302
 472	1	2	0.058829	10.4322	5.14621	11.3476
 473	1	5	-0.00779	11.8499	3.97677	12.5573
 474	1	5	-0.029026	12.4017	4.45717	10.8827
 475	1	2	-0.029357	9.84136	3.94889	10.5692
 476	1	5	-0.003083	10.5297	6.05617	10.7725
 477	1	5	-0.010137	9.7894	5.22485	12.2212
 478	1	2	-0.000585	8.30526	3.7425	10.6979
 479	1	5	0.006084	10.3327	3.10574	10.818
 480	1	5	0.012201	10.0447	3.98932	9.51933
 481	1	2	-0.03118	7.32315	4.88627	10.2944
 482	1	5	0.011412	8.15601	3.49883	11.7651
 483	1	5	0.011566	8.03929	2.90276	10.0584
 484	1	2	-0.057912	5.87553	4.51082	10.6737
 485	1	5	0.001922	7.40562	5.13521	9.22384
 486	1	5	0.021794	7.50839	5.82405	10.8513
 487	1	6	-0.501673	5.76924	2.51208	9.32979
 488	1	7	0.462	5.25885	3.56872	9.65367
 489	1	5	0.029593	5.21251	5.40326	10.7562
 490	1	5	0.042406	5.6361	4.12563	11.6455
 491	1	1	-0.353484	18.5254	-1.64245	9.63672
 492	1	2	0.376337	18.4138	-0.492346	8.67926
 493	1	2	-0.897489	19.6838	0.384167	8.77506
 494	1	3	0.034041	17.4402	-0.0161928	8.91803
 495	1	3	0.012328	18.3033	-0.948754	7.73074
 496	1	4	0.229239	18.4728	-1.38974	10.6148
 497	1	2	0.531206	19.6108	1.42985	7.60366
 498	1	5	0.202592	20.5601	-0.19	8.76781
 499	1	5	0.099501	19.6486	1.02633	9.66269
 500	1	2	0.171725	20.9919	2.13327	7.43219
 501	1	5	-0.10542	18.9002	2.20354	8.06991
 502	1	5	-0.137294	19.1382	1.10571	6.72522
 503	1	2	-0.155467	21.4458	3.13303	8.5618
 504	1	5	-0.053736	20.9348	2.57826	6.41408
 505	1	5	0.001015	21.7107	1.2924	7.36012
 506	1	2	0.033419	20.6837	4.51627	8.41025
 507	1	5	0.005395	22.5199	3.25024	8.56171
 508	1	5	0.019028	21.2987	2.62893	9.53135
 509	1	2	0.058829	20.9337	5.61698	9.45813
 510	1	5	-0.00779	19.618	4.17951	8.366
 511	1	5	-0.029026	20.8765	4.92653	7.3949
 512	1	2	-0.029357	20.3705	5.22987	10.8863
 513	1	5	-0.003083	20.3392	6.40145	9.09285
 514	1	5	-0.010137	21.9686	6.12651	9.44559
 515	1	2	-0.000585	20.249	6.53613	11.6867
 516	1	5	0.006084	21.1836	4.56204	11.3263
 517	1	5	0.012201	19.452	4.59697	10.834
 518	1	2	-0.03118	19.5333	6.38096	12.9314
 519	1	5	0.011412	19.6255	7.18321	10.9952
 520	1	5	0.011566	21.1943	6.98864	11.7703
 521	1	2	-0.057912	19.576	7.60131	13.9054
 522	1	5	0.001922	19.8126	5.56988	13.4786
 523	1	5	0.021794	18.4625	6.13044	12.6708
 524	1	6	-0.501673	19.2616	7.67916	16.3554
 525	1	7	0.462	18.8048	7.46118	15.2735
 526	1	5	0.029593	19.3186	8.53667	13.4311
 527	1	5	0.042406	20.5598	7.87987	14.2459
 528	1	9	-0.26285	16.2941	-2.12284	11.8841
 529	1	2	0.431937	16.3871	-3.53737	11.5953
 530	1	2	0.196566	17.5466	-3.63081	10.5959
 531	1	3	-0.176879	15.4182	-3.81041	11.1175
 532	1	3	-0.045056	16.5489	-4.11781	12.5119
 533	1	2	0.080387	17.6218	-2.69834	9.38745
 534	1	5	0.032783	17.8319	-4.70625	10.4157
 535	1	5	-0.126889	18.4722	-3.30845	11.2634
 536	1	5	-0.081548	16.6396	-2.31046	9.13344
 537	1	5	-0.048451	17.8364	-3.26885	8.44126
 538	1	9	-0.26285	16.8597	1.43185	13.3806
 539	1	2	0.431937	16.1656	0.242725	13.7054
 540	1	2	0.196566	15.0165	-0.157667	12.8376
 541	1	3	-0.176879	15.6803	0.411821	14.7346
 542	1	3	-0.045056	16.9662	-0.61032	13.864
 543	1	2	0.080387	15.1034	-1.64885	12.5959
 544	1	5	0.032783	15.1829	0.418522	11.9272
 545	1	5	-0.126889	14.0778	0.174449	13.5121
 546	1	5	-0.081548	14.2203	-1.89746	12.0819
 547	1	5	-0.048451	14.8683	-2.26997	13.5023
 548	1	9	-0.26285	20.6589	1.81741	15.4091
 549	1	2	0.431937	19.4006	1.46076	14.7515
 550	1	2	0.196566	19.2381	1.85109	13.3026
 551	1	3	-0.176879	18.5961	1.79316	15.2698
 552	1	3	-0.045056	19.3822	0.317124	14.7636
 553	1	2	0.080387	18.0102	1.27218	12.5672
 554	1	5	0.032783	20.0978	1.51263	12.6975
 555	1	5	-0.126889	19.0912	2.98476	13.276
 556	1	5	-0.081548	18.1662	0.142055	12.4217
 557	1	5	-0.048451	17.8754	1.84908	11.6647
 558	1	1	-0.353484	28.2235	5.81908	22.2688
 559	1	2	0.376337	27.8002	6.88939	21.4306
 560	1	2	-0.897489	27.53	6.33663	19.9901
 561	1	3	0.034041	28.6412	7.57282	21.24
 562	1	3	0.012328	26.9791	7.49217	21.8755
 563	1	4	0.229239	28.9217	5.26282	21.8342
 564	1	2	0.531206	27.2027	7.54064	19.1076
 565	1	5	0.202592	26.7403	5.61781	20.0261
 566	1	5	0.099501	28.4105	5.84818	19.5237
 567	1	2	0.171725	26.9739	7.45719	17.5649
 568	1	5	-0.10542	27.6549	8.49534	19.3505
 569	1	5	-0.137294	26.1246	7.76152	19.3802
 570	1	2	-0.155467	26.0452	6.39693	17.1908
 571	1	5	-0.053736	28.0293	7.29184	17.1252
 572	1	5	0.001015	26.666	8.40835	17.2831
 573	1	2	0.033419	24.5791	6.48302	17.6891
 574	1	5	0.005395	26.3929	5.3883	17.4659
 575	1	5	0.019028	26.357	6.26128	16.16
 576	1	2	0.058829	23.6242	5.58129	16.9829
 577	1	5	-0.00779	24.1978	7.50339	17.7331
 578	1	5	-0.029026	24.5887	5.98833	18.6785
 579	1	2	-0.029357	23.937	4.06798	17.0461
 580	1	5	-0.003083	23.619	5.8392	15.9238
 581	1	5	-0.010137	22.618	5.79081	17.2303
 582	1	2	-0.000585	24.0398	3.30715	15.6775
 583	1	5	0.006084	23.1417	3.50135	17.5667
 584	1	5	0.012201	24.8726	3.79075	17.5353
 585	1	2	-0.03118	24.0377	1.77055	15.9785
 586	1	5	0.011412	24.987	3.42541	15.1945
 587	1	5	0.011566	23.3576	3.70982	14.9112
 588	1	2	-0.057912	22.75	1.00743	16.3959
 589	1	5	0.001922	24.7781	1.55232	16.746
 590	1	5	0.021794	24.4676	1.29015	15.0661
 591	1	6	-0.501673	21.9812	0.323287	14.2297
 592	1	7	0.462	21.8093	1.02069	15.194
 593	1	5	0.029593	22.226	1.34335	17.2963
 594	1	5	0.042406	22.9027	-0.102541	16.5881
 595	1	9	-0.26285	30.0549	7.31198	26.3855
 596	1	2	0.431937	30.4292	7.61117	25.047
 597	1	2	0.196566	30.149	6.71636	23.762
 598	1	3	-0.176879	31.4954	7.92527	25.1555
 599	1	3	-0.045056	29.9242	8.60598	25.0003
 600	1	2	0.080387	28.6711	6.21153	23.6278
 601	1	5	0.032783	30.8262	5.96921	23.7685
 602	1	5	-0.126889	30.4312	7.36594	22.9608
 603	1	5	-0.081548	28.0755	6.98907	23.9779
 604	1	5	-0.048451	28.4763	5.27074	24.2554

Velocities

   1	-0.0128831	-0.00300836	-0.00718181
   2	-0.00824454	-0.0101385	-0.00374345
   3	-0.00580218	-0.0092553	-0.00234958
   4	-0.010167	-0.0127944	-0.00590305
   5	-0.007528	-0.00739763	-0.00242016
   6	-0.0130137	-0.00803436	-0.00979081
   7	-0.0125284	-0.00254804	-0.00437989
   8	-0.00778583	-0.0155606	0.0021969
   9	7.61802e-05	-0.00859893	-0.00278209
  10	-0.00752627	-0.00300807	-0.00510526
  11	-0.0152038	-0.00374632	-0.00575188
  12	-0.0201901	-0.00416573	-0.00283901
  13	-0.0134828	9.89211e-05	0.00244774
  14	-0.0062334	-0.0106294	-0.00708364
  15	-0.00231834	-0.00125502	-0.0100536
  16	-0.00806237	-0.00508216	-0.000667986
  17	-0.0179113	0.00958636	-9.66926e-05
  18	-0.0213429	-0.00634975	0.00847896
  19	-0.0104347	-0.00368137	-0.00394218
  20	-0.00543206	-0.00676973	0.00132374
  21	-0.0046763	-0.0024352	0.00257601
  22	-0.00639207	-0.00549439	-0.00388077
  23	-0.0100579	0.000657245	-0.00175616
  24	-0.00993444	-0.00535784	0.00251185
  25	-0.00958012	-0.00450217	-0.000498789
  26	-0.00220863	-0.0124072	-0.00459731
  27	-0.00489655	0.000693288	-0.00594981
  28	-0.00888484	-0.00442324	-0.00231087
  29	-0.00755916	-0.00596571	-0.00589736
  30	-0.0100137	0.0021889	-0.00130433
  31	-0.00900124	-0.00846005	0.00254185
  32	-0.00384897	0.00142316	-0.00213325
  33	-0.0110118	-0.00382809	0.00596197