pySIMM System Object

601 atoms
600 bonds
1154 angles
1638 dihedrals
0 impropers

10 atom types
12 bond types
27 angle types
12 dihedral types
1 improper types

-100.802308 100.802308 xlo xhi
-100.802308 100.802308 ylo yhi
-100.802308 100.802308 zlo zhi

Masses

   1	14.01	# n3
   2	12.01	# c3
   3	1.008	# h1
   4	1.008	# hn
   5	1.008	# hc
   6	16.0	# o
   7	12.01	# c
   8	1.008	# h4
   9	16.0	# oh
  10	1.008	# ho

Pair Coeffs

   1	0.17	3.249998523775958	# n3
   2	0.1094	3.3996695084235347	# c3
   3	0.0157	2.471353044121301	# h1
   4	0.0157	1.069078461768407	# hn
   5	0.0157	2.649532787749369	# hc
   6	0.21	2.959921901149463	# o
   7	0.086	3.3996695084235347	# c
   8	0.015	2.5105525877194763	# h4
   9	0.2104	3.0664733878390478	# oh
  10	0.0047	0.5379246460131368	# ho

Bond Coeffs

   1	300.9	1.5375	# c3,c3
   2	392.4	1.019	# hn,n3
   3	330.6	1.0969	# c3,h1
   4	637.7	1.2183	# c,o
   5	325.9	1.4647	# c3,n3
   6	310.7	1.1121	# c,h4
   7	330.6	1.0969	# c3,hc
   8	313.0	1.5241	# c,c3
   9	316.7	1.4233	# c3,oh
  10	371.4	0.973	# ho,oh
  11	400.1	1.3513	# c,oh
  12	325.9	1.465	# n3,c

Angle Coeffs

   1	46.39	109.56	# c3,c3,h1
   2	66.02	111.04	# c3,c3,n3
   3	45.64	114.64	# c3,c,h4
   4	41.4	106.4	# hn,n3,hn
   5	39.24	108.46	# h1,c3,h1
   6	67.4	123.2	# c3,c,o
   7	47.42	109.29	# c3,n3,hn
   8	46.34	109.8	# c3,c3,hc
   9	63.27	111.04	# c,c3,c3
  10	39.4	107.58	# hc,c3,hc
  11	46.93	108.77	# c,c3,hc
  12	49.53	109.88	# h1,c3,n3
  13	62.86	111.51	# c3,c3,c3
  14	54.22	120.7	# h4,c,o
  15	67.47	110.19	# c3,c3,oh
  16	50.93	110.26	# h1,c3,oh
  17	47.38	107.26	# c3,oh,ho
  18	63.82	112.35	# c3,n3,c3
  19	49.55	109.8	# hc,c3,n3
  20	68.4	112.73	# c3,c,oh
  21	75.92	122.1	# o,c,oh
  22	62.7	112.48	# c3,oh,c3
  23	51.11	109.5	# hc,c3,oh
  24	63.8	112.35	# c3,n3,c
  25	47.4	109.29	# hn,n3,c
  26	66.0	111.04	# n3,c,c3
  27	70.9	110.7	# n3,c,o

Dihedral Coeffs

   1	1	0.16	3	0	# hc,c3,c3,c3
   2	1	0.3	3	0	# X,c3,n3,X
   3	1	0.15555555555555556	3	0	# X,c3,c3,X
   4	3	0.18	3	0	0.25	2	180	0.2	1	180	# c3,c3,c3,c3
   5	1	0.0	2	180	# X,c,c3,X
   6	1	0.15	3	0	# hc,c3,c3,hc
   7	3	0.8	1	0	0.0	2	0	0.08	3	180	# hc,c3,c,o
   8	2	0.16	3	0	0.25	1	0	# ho,oh,c3,c3
   9	1	0.16666666666666666	3	0	# X,c3,oh,X
  10	2	0.0	3	0	0.25	1	0	# hc,c3,c3,oh
  11	2	0.3	3	0	0.48	2	180	# c3,c3,n3,c3
  12	1	2.3	2	180	# X,c,oh,X

Improper Coeffs

   1	10.5	-1	2	# c,X,X,o

Atoms

   1	1	1	-0.353484	1.07102	-6.612	31.6909
   2	1	2	0.376337	2.10771	-7.61827	31.5396
   3	1	2	-0.897489	2.20575	-8.14591	30.0871
   4	1	3	0.034041	1.91499	-8.43291	32.1909
   5	1	3	0.012328	3.04763	-7.15413	31.823
   6	1	4	0.229239	1.14577	-5.94177	30.9067
   7	1	2	0.531206	0.844665	-8.57541	29.4681
   8	1	5	0.202592	2.89772	-8.9848	30.0595
   9	1	5	0.099501	2.61392	-7.33978	29.5044
  10	1	2	0.171725	0.0364038	-9.78103	29.9971
  11	1	5	-0.10542	1.01046	-8.7418	28.4142
  12	1	5	-0.137294	0.152749	-7.72294	29.5387
  13	1	2	-0.155467	-0.992009	-10.2194	28.9366
  14	1	5	-0.053736	-0.47524	-9.55967	30.9303
  15	1	5	0.001015	0.690355	-10.6187	30.2363
  16	1	2	0.033419	-0.395415	-10.8408	27.6328
  17	1	5	0.005395	-1.5947	-9.3458	28.6425
  18	1	5	0.019028	-1.64533	-10.9907	29.3533
  19	1	2	0.058829	0.711352	-11.9299	27.7086
  20	1	5	-0.00779	-0.0621797	-10.0269	27.0209
  21	1	5	-0.029026	-1.21562	-11.2855	27.0936
  22	1	2	-0.029357	1.29448	-12.3351	26.3175
  23	1	5	-0.003083	0.320685	-12.785	28.2057
  24	1	5	-0.010137	1.50694	-11.5792	28.3684
  25	1	2	-0.000585	0.247068	-12.822	25.3239
  26	1	5	0.006084	1.99706	-13.1575	26.5139
  27	1	5	0.012201	1.92354	-11.5467	25.9155
  28	1	2	-0.03118	0.816855	-13.5021	24.0767
  29	1	5	0.011412	-0.351925	-11.9401	25.0379
  30	1	5	0.011566	-0.486236	-13.4886	25.8288
  31	1	2	-0.057912	-0.199785	-14.4473	23.3902
  32	1	5	0.001922	1.67694	-14.1136	24.3769
  33	1	5	0.021794	1.14524	-12.7543	23.3704
  34	1	6	-0.501673	0.54449	-16.071	21.8626
  35	1	7	0.462	0.379198	-14.8892	22.0479
  36	1	5	0.029593	-1.17564	-13.9678	23.2421
  37	1	5	0.042406	-0.32152	-15.3713	23.9807
  38	1	9	-0.26285	1.38316	-3.63963	34.8012
  39	1	2	0.431937	0.109091	-4.20091	34.6069
  40	1	2	0.196566	0.0284011	-4.80473	33.1799
  41	1	3	-0.176879	-0.597933	-3.35935	34.6747
  42	1	3	-0.045056	-0.1046	-4.90765	35.4043
  43	1	2	0.080387	1.1149	-5.88287	32.9757
  44	1	5	0.032783	0.102618	-4.02089	32.4002
  45	1	5	-0.126889	-0.960527	-5.25444	32.9964
  46	1	5	-0.081548	0.996457	-6.61389	33.789
  47	1	5	-0.048451	2.04987	-5.35103	33.0802
  48	1	1	-0.353484	5.6208	-8.34835	24.5004
  49	1	2	0.376337	6.153	-8.59713	25.8339
  50	1	2	-0.897489	6.63904	-7.18293	26.1437
  51	1	3	0.034041	6.99832	-9.30717	25.7208
  52	1	3	0.012328	5.40682	-8.98085	26.536
  53	1	4	0.229239	6.37487	-7.86728	24.0202
  54	1	2	0.531206	7.38521	-6.93044	27.4419
  55	1	5	0.202592	5.77991	-6.50468	26.0587
  56	1	5	0.099501	7.33912	-6.88139	25.3672
  57	1	2	0.171725	6.58356	-6.91569	28.7526
  58	1	5	-0.10542	7.77425	-5.90104	27.3126
  59	1	5	-0.137294	8.23588	-7.6316	27.5254
  60	1	2	-0.155467	7.36642	-6.09331	29.8297
  61	1	5	-0.053736	6.42317	-7.94849	29.0773
  62	1	5	0.001015	5.62089	-6.44013	28.5361
  63	1	2	0.033419	6.46838	-5.63293	30.9807
  64	1	5	0.005395	7.735	-5.15798	29.3761
  65	1	5	0.019028	8.27147	-6.63581	30.1454
  66	1	2	0.058829	7.21378	-4.90455	32.1305
  67	1	5	-0.00779	6.04121	-6.55407	31.3817
  68	1	5	-0.029026	5.63654	-5.03548	30.6267
  69	1	2	-0.029357	6.5921	-4.94861	33.5646
  70	1	5	-0.003083	7.39714	-3.87138	31.8104
  71	1	5	-0.010137	8.2079	-5.37315	32.1909
  72	1	2	-0.000585	5.57567	-3.84739	33.7756
  73	1	5	0.006084	7.41639	-4.79247	34.2799
  74	1	5	0.012201	6.20201	-5.96591	33.7644
  75	1	2	-0.03118	4.87933	-3.95559	35.1465
  76	1	5	0.011412	4.80727	-3.89415	32.9727
  77	1	5	0.011566	6.0098	-2.81998	33.7343
  78	1	2	-0.057912	3.62336	-3.09232	35.2997
  79	1	5	0.001922	5.63533	-3.71886	35.8959
  80	1	5	0.021794	4.6478	-5.02828	35.2379
  81	1	6	-0.501673	2.34898	-4.81895	36.4413
  82	1	7	0.462	2.37247	-3.90252	35.6796
  83	1	5	0.029593	3.39682	-2.61049	34.3261
  84	1	5	0.042406	3.74038	-2.32438	36.0644
  85	1	9	-0.26285	4.08932	-9.81914	20.0455
  86	1	2	0.431937	4.9193	-10.1338	21.1869
  87	1	2	0.196566	4.80743	-9.00633	22.2681
  88	1	3	-0.176879	5.97815	-10.2219	20.8995
  89	1	3	-0.045056	4.60573	-11.1122	21.5989
  90	1	2	0.080387	5.20514	-9.48628	23.6901
  91	1	5	0.032783	3.7991	-8.57284	22.3012
  92	1	5	-0.126889	5.4533	-8.14926	22.0032
  93	1	5	-0.081548	6.03181	-10.2074	23.5844
  94	1	5	-0.048451	4.36476	-10.0055	24.1873
  95	1	9	-0.26285	6.14671	-9.66282	15.6645
  96	1	2	0.431937	5.57025	-10.5926	16.6076
  97	1	2	0.196566	5.1468	-9.83689	17.8961
  98	1	3	-0.176879	6.31197	-11.3838	16.8494
  99	1	3	-0.045056	4.6516	-11.0059	16.1308
 100	1	2	0.080387	4.19861	-10.58	18.815
 101	1	5	0.032783	4.70528	-8.86535	17.662
 102	1	5	-0.126889	6.06107	-9.61088	18.4692
 103	1	5	-0.081548	4.53938	-11.6034	19.0178
 104	1	5	-0.048451	3.20486	-10.6502	18.3392
 105	1	9	-0.26285	6.16482	-9.05392	12.4829
 106	1	2	0.431937	6.22844	-10.4654	12.7082
 107	1	2	0.196566	7.33385	-10.8156	13.7355
 108	1	3	-0.176879	6.45964	-10.9652	11.7669
 109	1	3	-0.045056	5.29776	-10.8664	13.0918
 110	1	2	0.080387	7.3962	-9.87767	14.9727
 111	1	5	0.032783	8.31486	-10.7986	13.2652
 112	1	5	-0.126889	7.17644	-11.8509	14.0983
 113	1	5	-0.081548	7.76718	-8.93756	14.5693
 114	1	5	-0.048451	8.16231	-10.2326	15.6649
 115	1	9	-0.26285	4.07898	-6.87978	14.934
 116	1	2	0.431937	5.13948	-6.61687	14.0672
 117	1	2	0.196566	4.87001	-7.06692	12.6072
 118	1	3	-0.176879	6.07052	-7.01985	14.4403
 119	1	3	-0.045056	5.30209	-5.51791	14.0149
 120	1	2	0.080387	4.84476	-8.56868	12.4034
 121	1	5	0.032783	5.69835	-6.63997	12.0699
 122	1	5	-0.126889	3.94354	-6.621	12.2403
 123	1	5	-0.081548	4.47684	-8.80213	11.4015
 124	1	5	-0.048451	4.15019	-9.01756	13.1414
 125	1	1	-0.353484	-7.99148	0.866092	18.2302
 126	1	2	0.376337	-7.82001	-0.476661	18.8109
 127	1	2	-0.897489	-6.33193	-0.850395	19.0163
 128	1	3	0.034041	-8.17225	-1.24223	18.1151
 129	1	3	0.012328	-8.3847	-0.549628	19.7504
 130	1	4	0.229239	-7.12724	1.13091	17.7639
 131	1	2	0.531206	-6.2842	-2.32486	19.4769
 132	1	5	0.202592	-5.88118	-0.205062	19.7992
 133	1	5	0.099501	-5.76841	-0.725966	18.0693
 134	1	2	0.171725	-4.85542	-2.89727	19.7119
 135	1	5	-0.10542	-6.84848	-2.93996	18.7461
 136	1	5	-0.137294	-6.85372	-2.39759	20.4006
 137	1	2	-0.155467	-4.22295	-3.64536	18.4813
 138	1	5	-0.053736	-4.94016	-3.58631	20.5635
 139	1	5	0.001015	-4.14789	-2.09602	19.9743
 140	1	2	0.033419	-2.8893	-4.36315	18.8784
 141	1	5	0.005395	-4.01485	-2.95719	17.6708
 142	1	5	0.019028	-4.95375	-4.35584	18.0765
 143	1	2	0.058829	-2.07115	-5.05234	17.754
 144	1	5	-0.00779	-3.10286	-5.08659	19.6753
 145	1	5	-0.029026	-2.23906	-3.59696	19.3295
 146	1	2	-0.029357	-0.580132	-5.15448	18.1107
 147	1	5	-0.003083	-2.1215	-4.49914	16.8189
 148	1	5	-0.010137	-2.46598	-6.03256	17.5209
 149	1	2	-0.000585	0.166888	-5.99627	17.0706
 150	1	5	0.006084	-0.403249	-5.59817	19.128
 151	1	5	0.012201	-0.134815	-4.15105	18.0881
 152	1	2	-0.03118	1.65507	-6.00538	17.3937
 153	1	5	0.011412	-0.00610459	-5.60385	16.0676
 154	1	5	0.011566	-0.231016	-7.03161	17.1276
 155	1	2	-0.057912	2.52351	-7.05981	16.6618
 156	1	5	0.001922	1.82587	-6.1377	18.4574
 157	1	5	0.021794	2.0018	-4.98595	17.2349
 158	1	6	-0.501673	4.66121	-5.92297	16.8526
 159	1	7	0.462	3.81634	-6.46472	16.1616
 160	1	5	0.029593	1.96731	-7.51672	15.8526
 161	1	5	0.042406	2.7931	-7.87916	17.3651
 162	1	1	-0.353484	-15.0848	5.96581	7.1702
 163	1	2	0.376337	-14.4735	5.64319	8.47677
 164	1	2	-0.897489	-15.2274	6.44079	9.5705
 165	1	3	0.034041	-13.3975	5.91346	8.56387
 166	1	3	0.012328	-14.5289	4.56452	8.67171
 167	1	4	0.229239	-15.082	6.95425	7.00522
 168	1	2	0.531206	-14.7121	6.17793	11.0011
 169	1	5	0.202592	-16.2848	6.15529	9.52758
 170	1	5	0.099501	-15.1402	7.52241	9.32775
 171	1	2	0.171725	-15.1615	4.82277	11.7014
 172	1	5	-0.10542	-15.0166	7.00828	11.6613
 173	1	5	-0.137294	-13.592	6.13758	10.8824
 174	1	2	-0.155467	-14.5086	4.68619	13.1168
 175	1	5	-0.053736	-14.8463	3.95659	11.107
 176	1	5	0.001015	-16.2711	4.80397	11.7563
 177	1	2	0.033419	-13.0084	4.56196	13.0819
 178	1	5	0.005395	-14.846	3.7362	13.6217
 179	1	5	0.019028	-14.8581	5.52437	13.7213
 180	1	2	0.058829	-12.3985	4.2254	14.4447
 181	1	5	-0.00779	-12.544	5.49428	12.7252
 182	1	5	-0.029026	-12.7484	3.79904	12.3133
 183	1	2	-0.029357	-10.8828	3.96443	14.3615
 184	1	5	-0.003083	-12.9188	3.32373	14.807
 185	1	5	-0.010137	-12.5734	5.05946	15.1134
 186	1	2	-0.000585	-10.3998	3.58136	15.7622
 187	1	5	0.006084	-10.3395	4.8033	13.9658
 188	1	5	0.012201	-10.7161	3.11226	13.72
 189	1	2	-0.03118	-11.142	2.40512	16.429
 190	1	5	0.011412	-10.488	4.46635	16.3728
 191	1	5	0.011566	-9.3198	3.34773	15.7429
 192	1	2	-0.057912	-10.4656	1.68557	17.6142
 193	1	5	0.001922	-11.4824	1.72704	15.6263
 194	1	5	0.021794	-12.045	2.86005	16.9101
 195	1	6	-0.501673	-8.73899	0.782878	16.0805
 196	1	7	0.462	-9.09653	0.944597	17.2304
 197	1	5	0.029593	-11.1459	0.955064	18.0582
 198	1	5	0.042406	-10.2689	2.38467	18.4298
 199	1	9	-0.26285	-14.4844	4.98604	2.41254
 200	1	2	0.431937	-14.1036	4.58174	3.69913
 201	1	2	0.196566	-14.9335	5.37207	4.70285
 202	1	3	-0.176879	-12.9992	4.80998	3.76334
 203	1	3	-0.045056	-14.2804	3.51992	3.86608
 204	1	2	0.080387	-14.2849	5.35381	6.13742
 205	1	5	0.032783	-15.9382	4.87258	4.75884
 206	1	5	-0.126889	-15.1222	6.43681	4.47779
 207	1	5	-0.081548	-13.2633	5.83365	6.13541
 208	1	5	-0.048451	-14.1404	4.28517	6.40816
 209	1	9	-0.26285	-15.3473	1.63966	0.770645
 210	1	2	0.431937	-15.8839	2.98365	0.576967
 211	1	2	0.196566	-14.8383	4.05004	0.172302
 212	1	3	-0.176879	-16.3631	3.32183	1.4915
 213	1	3	-0.045056	-16.716	2.92177	-0.144973
 214	1	2	0.080387	-13.8943	4.31212	1.35494
 215	1	5	0.032783	-15.3499	4.98322	-0.112072
 216	1	5	-0.126889	-14.2378	3.78964	-0.727484
 217	1	5	-0.081548	-13.0305	4.95881	1.07459
 218	1	5	-0.048451	-13.5652	3.37462	1.74943
 219	1	1	-0.353484	-13.6836	-13.1571	1.42687
 220	1	2	0.376337	-14.07	-11.8249	1.86344
 221	1	2	-0.897489	-14.9382	-11.1256	0.79084
 222	1	3	0.034041	-13.2118	-11.2461	2.13571
 223	1	3	0.012328	-14.7137	-11.9863	2.71075
 224	1	4	0.229239	-13.7452	-13.2053	0.401919
 225	1	2	0.531206	-14.0827	-10.7297	-0.447892
 226	1	5	0.202592	-15.4424	-10.2708	1.33803
 227	1	5	0.099501	-15.8072	-11.7223	0.455775
 228	1	2	0.171725	-14.5245	-9.4444	-1.21713
 229	1	5	-0.10542	-14.0939	-11.5564	-1.10115
 230	1	5	-0.137294	-13.0338	-10.6735	-0.22352
 231	1	2	-0.155467	-14.3916	-8.1027	-0.385761
 232	1	5	-0.053736	-15.5639	-9.48052	-1.54822
 233	1	5	0.001015	-13.9317	-9.32967	-2.14343
 234	1	2	0.033419	-14.9018	-6.86631	-1.15869
 235	1	5	0.005395	-13.3624	-7.99562	-0.0276923
 236	1	5	0.019028	-14.9775	-8.20776	0.52551
 237	1	2	0.058829	-14.3522	-5.59831	-0.536566
 238	1	5	-0.00779	-16.0309	-6.89997	-1.16433
 239	1	5	-0.029026	-14.5466	-6.91495	-2.18106
 240	1	2	-0.029357	-15.0683	-4.33751	-1.10121
 241	1	5	-0.003083	-13.2675	-5.59321	-0.619177
 242	1	5	-0.010137	-14.5392	-5.65978	0.554029
 243	1	2	-0.000585	-14.8502	-3.12106	-0.0823346
 244	1	5	0.006084	-16.1676	-4.4596	-1.27452
 245	1	5	0.012201	-14.6486	-4.09061	-2.09567
 246	1	2	-0.03118	-15.1783	-1.75627	-0.741831
 247	1	5	0.011412	-13.7898	-3.06642	0.296761
 248	1	5	0.011566	-15.47	-3.23219	0.820917
 249	1	2	-0.057912	-14.7334	-0.546263	0.210076
 250	1	5	0.001922	-16.2419	-1.7391	-0.853276
 251	1	5	0.021794	-14.6545	-1.7273	-1.69955
 252	1	6	-0.501673	-15.5072	1.25136	-1.38549
 253	1	7	0.462	-15.2707	0.79717	-0.260668
 254	1	5	0.029593	-13.6165	-0.4664	0.280388
 255	1	5	0.042406	-15.1568	-0.719554	1.2168
 256	1	1	-0.353484	-9.13367	-10.0197	-2.22232
 257	1	2	0.376337	-8.82248	-8.92927	-1.25886
 258	1	2	-0.897489	-7.73726	-9.50053	-0.391505
 259	1	3	0.034041	-9.73207	-8.67865	-0.698602
 260	1	3	0.012328	-8.42949	-8.03766	-1.7415
 261	1	4	0.229239	-9.71233	-10.7215	-1.73171
 262	1	2	0.531206	-7.84913	-9.01851	1.06631
 263	1	5	0.202592	-6.72957	-9.27384	-0.807649
 264	1	5	0.099501	-7.82378	-10.5805	-0.345606
 265	1	2	0.171725	-7.0229	-9.87807	2.06767
 266	1	5	-0.10542	-8.92145	-9.09403	1.34788
 267	1	5	-0.137294	-7.39627	-7.99816	1.15667
 268	1	2	-0.155467	-7.82036	-11.0815	2.56342
 269	1	5	-0.053736	-6.82031	-9.38738	2.9714
 270	1	5	0.001015	-6.08784	-10.2648	1.65014
 271	1	2	0.033419	-7.35683	-11.6827	3.92172
 272	1	5	0.005395	-7.62336	-11.8418	1.78449
 273	1	5	0.019028	-8.87468	-10.8892	2.63906
 274	1	2	0.058829	-7.41	-13.222	4.11327
 275	1	5	-0.00779	-7.94661	-11.184	4.73184
 276	1	5	-0.029026	-6.30139	-11.3933	4.15687
 277	1	2	-0.029357	-8.78865	-13.7734	4.59902
 278	1	5	-0.003083	-6.67237	-13.5058	4.85103
 279	1	5	-0.010137	-7.09646	-13.7061	3.17199
 280	1	2	-0.000585	-9.70079	-13.9417	3.38387
 281	1	5	0.006084	-9.29899	-13.1953	5.39624
 282	1	5	0.012201	-8.65876	-14.7664	5.01073
 283	1	2	-0.03118	-11.1204	-14.4233	3.80367
 284	1	5	0.011412	-9.23669	-14.6776	2.69124
 285	1	5	0.011566	-9.75044	-12.9688	2.8385
 286	1	2	-0.057912	-12.1989	-14.6856	2.68071
 287	1	5	0.001922	-11.5446	-13.6856	4.53094
 288	1	5	0.021794	-11.0331	-15.3955	4.33183
 289	1	6	-0.501673	-11.6822	-13.5568	0.661817
 290	1	7	0.462	-12.2886	-13.5227	1.71382
 291	1	5	0.029593	-13.1659	-14.7223	3.14158
 292	1	5	0.042406	-12.0028	-15.66	2.19062
 293	1	9	-0.26285	-7.00495	-8.42792	-5.59702
 294	1	2	0.431937	-7.59711	-9.3989	-4.78567
 295	1	2	0.196566	-8.8319	-8.66125	-4.2473
 296	1	3	-0.176879	-6.87985	-9.66001	-3.99281
 297	1	3	-0.045056	-7.848	-10.2893	-5.34632
 298	1	2	0.080387	-9.76464	-9.60148	-3.5188
 299	1	5	0.032783	-9.38908	-8.25594	-5.08796
 300	1	5	-0.126889	-8.52887	-7.78844	-3.64493
 301	1	5	-0.081548	-10.0196	-10.4471	-4.11315
 302	1	5	-0.048451	-10.7194	-9.0797	-3.24264
 303	1	9	-0.26285	-9.12194	-8.0074	-9.64793
 304	1	2	0.431937	-8.07927	-7.72912	-8.65565
 305	1	2	0.196566	-7.69257	-8.98901	-7.89662
 306	1	3	-0.176879	-8.38359	-6.93088	-7.93449
 307	1	3	-0.045056	-7.2572	-7.30586	-9.19152
 308	1	2	0.080387	-6.55364	-8.90093	-6.85284
 309	1	5	0.032783	-7.28869	-9.77631	-8.5688
 310	1	5	-0.126889	-8.53618	-9.50303	-7.44334
 311	1	5	-0.081548	-5.75288	-8.19952	-7.23078
 312	1	5	-0.048451	-5.9868	-9.83967	-6.67241
 313	1	9	-0.26285	-12.1824	-5.14529	-7.59639
 314	1	2	0.431937	-11.475	-6.37965	-7.30738
 315	1	2	0.196566	-11.4671	-7.36987	-8.51702
 316	1	3	-0.176879	-11.9601	-6.95345	-6.55976
 317	1	3	-0.045056	-10.4825	-6.27416	-6.93385
 318	1	2	0.080387	-10.2854	-7.12451	-9.54038
 319	1	5	0.032783	-12.4058	-7.23557	-9.07829
 320	1	5	-0.126889	-11.4086	-8.44602	-8.21726
 321	1	5	-0.081548	-9.88289	-6.07668	-9.35667
 322	1	5	-0.048451	-10.7336	-7.11481	-10.6036
 323	1	1	-0.353484	-8.8376	2.27907	-2.12238
 324	1	2	0.376337	-9.46291	1.6252	-0.924661
 325	1	2	-0.897489	-11.062	1.94111	-0.872064
 326	1	3	0.034041	-8.94578	2.04205	-0.0458965
 327	1	3	0.012328	-9.20897	0.524571	-0.896991
 328	1	4	0.229239	-9.35958	2.18681	-2.94092
 329	1	2	0.531206	-11.7799	1.3286	-2.16261
 330	1	5	0.202592	-11.259	2.98261	-0.906747
 331	1	5	0.099501	-11.4479	1.53602	0.0748094
 332	1	2	0.171725	-12.0945	2.31228	-3.30576
 333	1	5	-0.10542	-12.6378	0.853759	-1.83964
 334	1	5	-0.137294	-11.0484	0.575033	-2.52125
 335	1	2	-0.155467	-12.0874	1.56547	-4.75209
 336	1	5	-0.053736	-11.2992	3.12857	-3.34386
 337	1	5	0.001015	-13.051	2.74822	-3.10558
 338	1	2	0.033419	-12.5536	2.51937	-5.95006
 339	1	5	0.005395	-12.826	0.765353	-4.6259
 340	1	5	0.019028	-11.1491	1.07491	-5.0482
 341	1	2	0.058829	-12.6792	1.77155	-7.31967
 342	1	5	-0.00779	-11.8887	3.34703	-6.06461
 343	1	5	-0.029026	-13.557	2.877	-5.6267
 344	1	2	-0.029357	-13.1439	0.26383	-7.25034
 345	1	5	-0.003083	-11.749	1.9355	-7.92578
 346	1	5	-0.010137	-13.5176	2.38097	-7.79133
 347	1	2	-0.000585	-13.6803	-0.356764	-8.54872
 348	1	5	0.006084	-13.9671	0.192295	-6.47304
 349	1	5	0.012201	-12.3365	-0.357453	-6.80055
 350	1	2	-0.03118	-14.034	-1.90651	-8.43475
 351	1	5	0.011412	-12.8574	-0.343724	-9.29243
 352	1	5	0.011566	-14.4525	0.214961	-8.98426
 353	1	2	-0.057912	-12.8086	-2.85395	-8.16713
 354	1	5	0.001922	-14.4342	-2.27765	-9.37134
 355	1	5	0.021794	-14.7709	-2.03882	-7.60546
 356	1	6	-0.501673	-14.2015	-4.88288	-8.44282
 357	1	7	0.462	-13.1598	-4.36513	-8.02106
 358	1	5	0.029593	-12.3606	-2.52624	-7.22058
 359	1	5	0.042406	-12.1079	-2.73317	-8.96384
 360	1	9	-0.26285	-8.24865	5.04487	-3.82343
 361	1	2	0.431937	-7.04571	4.62734	-3.10774
 362	1	2	0.196566	-6.63232	3.11602	-3.26525
 363	1	3	-0.176879	-7.11935	4.99122	-2.02828
 364	1	3	-0.045056	-6.24655	5.24775	-3.5826
 365	1	2	0.080387	-7.36348	2.13515	-2.26741
 366	1	5	0.032783	-5.60719	3.14132	-2.93218
 367	1	5	-0.126889	-6.5062	2.64332	-4.23824
 368	1	5	-0.081548	-6.98062	2.48819	-1.29873
 369	1	5	-0.048451	-7.13083	1.10141	-2.48383
 370	1	1	-0.353484	-3.82262	6.89165	3.25866
 371	1	2	0.376337	-3.8169	6.08127	2.05161
 372	1	2	-0.897489	-2.83293	6.7507	1.14685
 373	1	3	0.034041	-4.76844	5.8603	1.63434
 374	1	3	0.012328	-3.36761	5.14404	2.30847
 375	1	4	0.229239	-2.9976	7.47498	3.13474
 376	1	2	0.531206	-2.40938	5.75307	0.0776855
 377	1	5	0.202592	-1.91971	7.08228	1.62035
 378	1	5	0.099501	-3.3698	7.56262	0.779902
 379	1	2	0.171725	-1.71565	6.49994	-1.03805
 380	1	5	-0.10542	-3.3156	5.23196	-0.18364
 381	1	5	-0.137294	-1.77408	5.02295	0.647168
 382	1	2	-0.155467	-2.38171	6.62572	-2.4074
 383	1	5	-0.053736	-0.922967	5.81026	-1.32697
 384	1	5	0.001015	-1.16461	7.43749	-0.81454
 385	1	2	0.033419	-3.38609	7.7687	-2.37915
 386	1	5	0.005395	-2.80466	5.66952	-2.71749
 387	1	5	0.019028	-1.57707	6.92228	-3.08797
 388	1	2	0.058829	-3.82024	8.38927	-3.74627
 389	1	5	-0.00779	-2.87	8.51919	-1.84192
 390	1	5	-0.029026	-4.23172	7.41982	-1.76459
 391	1	2	-0.029357	-5.2585	9.02305	-3.78023
 392	1	5	-0.003083	-3.83045	7.5199	-4.4944
 393	1	5	-0.010137	-3.09652	9.15434	-4.08929
 394	1	2	-0.000585	-6.35741	7.89182	-3.63961
 395	1	5	0.006084	-5.30224	9.46093	-4.71783
 396	1	5	0.012201	-5.44748	9.80209	-2.98675
 397	1	2	-0.03118	-7.84903	8.38627	-3.68931
 398	1	5	0.011412	-6.20953	7.40433	-2.71088
 399	1	5	0.011566	-6.23856	7.18741	-4.48376
 400	1	2	-0.057912	-8.90163	7.31559	-3.09434
 401	1	5	0.001922	-8.12433	8.78791	-4.67097
 402	1	5	0.021794	-7.89738	9.22138	-2.98818
 403	1	6	-0.501673	-9.87688	6.13946	-5.02612
 404	1	7	0.462	-9.19138	6.05493	-3.99962
 405	1	5	0.029593	-9.90353	7.69593	-2.83981
 406	1	5	0.042406	-8.60051	6.80788	-2.16543
 407	1	9	-0.26285	-6.05325	10.5413	3.86516
 408	1	2	0.431937	-6.12231	9.63233	4.99257
 409	1	2	0.196566	-4.89271	8.64409	4.91568
 410	1	3	-0.176879	-7.03355	9.14226	4.74944
 411	1	3	-0.045056	-6.20961	10.182	5.98541
 412	1	2	0.080387	-4.99367	7.78974	3.5988
 413	1	5	0.032783	-4.91645	8.01438	5.788
 414	1	5	-0.126889	-3.92469	9.08671	4.86977
 415	1	5	-0.081548	-5.25694	8.43241	2.68582
 416	1	5	-0.048451	-5.81721	7.1541	3.8069
 417	1	1	-0.353484	-3.49596	18.1844	-7.04172
 418	1	2	0.376337	-4.80216	18.7615	-6.4562
 419	1	2	-0.897489	-4.80558	18.4124	-4.94307
 420	1	3	0.034041	-5.73117	18.3649	-6.8525
 421	1	3	0.012328	-4.89288	19.8418	-6.73554
 422	1	4	0.229239	-3.64386	17.2035	-6.86633
 423	1	2	0.531206	-4.784	16.8882	-4.59454
 424	1	5	0.202592	-5.73232	18.7447	-4.49266
 425	1	5	0.099501	-4.08761	19.0022	-4.46014
 426	1	2	0.171725	-5.39135	16.6081	-3.16081
 427	1	5	-0.10542	-3.77192	16.5183	-4.64882
 428	1	5	-0.137294	-5.45479	16.367	-5.36269
 429	1	2	-0.155467	-5.50479	15.0993	-2.82272
 430	1	5	-0.053736	-6.43037	17.0126	-3.21199
 431	1	5	0.001015	-4.84148	17.2838	-2.46681
 432	1	2	0.033419	-6.63946	14.8284	-1.7419
 433	1	5	0.005395	-4.58932	14.7625	-2.38385
 434	1	5	0.019028	-5.73794	14.6032	-3.75656
 435	1	2	0.058829	-6.57679	15.825	-0.54884
 436	1	5	-0.00779	-6.48426	13.8647	-1.22643
 437	1	5	-0.029026	-7.68168	14.8144	-2.05387
 438	1	2	-0.029357	-5.38773	15.81	0.441405
 439	1	5	-0.003083	-7.42938	15.6847	0.0684286
 440	1	5	-0.010137	-6.60285	16.8288	-0.940584
 441	1	2	-0.000585	-4.89569	14.4839	1.03433
 442	1	5	0.006084	-5.61356	16.5267	1.30648
 443	1	5	0.012201	-4.45826	16.3019	-0.0397366
 444	1	2	-0.03118	-5.7419	13.996	2.25259
 445	1	5	0.011412	-3.87088	14.6323	1.43681
 446	1	5	0.011566	-4.88106	13.701	0.272332
 447	1	2	-0.057912	-5.42052	12.456	2.56941
 448	1	5	0.001922	-6.75647	13.9308	1.97433
 449	1	5	0.021794	-5.6645	14.6482	3.09224
 450	1	6	-0.501673	-6.71929	12.5175	4.68745
 451	1	7	0.462	-6.14464	11.8988	3.77725
 452	1	5	0.029593	-4.40313	12.2496	2.76982
 453	1	5	0.042406	-5.76606	11.7946	1.6701
 454	1	1	-0.353484	-2.83342	28.2406	-13.766
 455	1	2	0.376337	-3.32549	27.5815	-14.96
 456	1	2	-0.897489	-3.67141	26.1615	-14.5433
 457	1	3	0.034041	-2.59171	27.5481	-15.7802
 458	1	3	0.012328	-4.16711	28.1367	-15.3496
 459	1	4	0.229239	-3.53417	27.9893	-13.0218
 460	1	2	0.531206	-2.60182	25.1167	-14.337
 461	1	5	0.202592	-4.2667	25.6387	-15.406
 462	1	5	0.099501	-4.38938	26.2154	-13.7684
 463	1	2	0.171725	-1.44991	25.4143	-13.4057
 464	1	5	-0.10542	-2.14909	24.78	-15.3288
 465	1	5	-0.137294	-3.13245	24.2194	-14.0864
 466	1	2	-0.155467	-0.475847	24.2036	-13.2762
 467	1	5	-0.053736	-1.89368	25.6475	-12.3929
 468	1	5	0.001015	-0.97753	26.3778	-13.7351
 469	1	2	0.033419	-1.02544	23.037	-12.4208
 470	1	5	0.005395	0.337156	24.7035	-12.7021
 471	1	5	0.019028	-0.0893436	23.7017	-14.1483
 472	1	2	0.058829	-0.0370207	22.116	-11.6954
 473	1	5	-0.00779	-1.74452	22.493	-13.0375
 474	1	5	-0.029026	-1.46783	23.5481	-11.5351
 475	1	2	-0.029357	-0.847826	21.1573	-10.8142
 476	1	5	-0.003083	0.527014	22.8124	-11.0634
 477	1	5	-0.010137	0.722908	21.5123	-12.3078
 478	1	2	-0.000585	-1.55918	19.9371	-11.5306
 479	1	5	0.006084	-1.46933	21.7972	-10.2187
 480	1	5	0.012201	-0.185922	20.7985	-10.0168
 481	1	2	-0.03118	-2.24728	18.8673	-10.6163
 482	1	5	0.011412	-0.824353	19.5613	-12.3351
 483	1	5	0.011566	-2.42373	20.269	-12.231
 484	1	2	-0.057912	-2.59119	19.2484	-9.19251
 485	1	5	0.001922	-3.10839	18.4591	-11.0222
 486	1	5	0.021794	-1.52359	18.0447	-10.591
 487	1	6	-0.501673	-4.62535	17.8599	-8.93261
 488	1	7	0.462	-3.50122	18.1998	-8.49132
 489	1	5	0.029593	-3.09992	20.2073	-9.15155
 490	1	5	0.042406	-1.67169	19.3339	-8.68128
 491	1	1	-0.353484	8.3281	30.8431	-10.8354
 492	1	2	0.376337	7.15722	30.2602	-10.14
 493	1	2	-0.897489	6.26378	31.2979	-9.44596
 494	1	3	0.034041	7.5355	29.6021	-9.37138
 495	1	3	0.012328	6.56606	29.649	-10.7801
 496	1	4	0.229239	8.22445	31.8185	-10.7505
 497	1	2	0.531206	5.7413	32.3153	-10.4371
 498	1	5	0.202592	6.94207	31.8235	-8.73221
 499	1	5	0.099501	5.50643	30.8553	-8.794
 500	1	2	0.171725	4.52393	31.8605	-11.2609
 501	1	5	-0.10542	6.54703	32.7656	-11.1016
 502	1	5	-0.137294	5.34986	33.1126	-9.79614
 503	1	2	-0.155467	4.34961	32.6366	-12.6081
 504	1	5	-0.053736	3.63621	31.6431	-10.6088
 505	1	5	0.001015	4.62926	30.7842	-11.558
 506	1	2	0.033419	2.92167	32.4667	-13.1979
 507	1	5	0.005395	5.17326	32.2289	-13.3961
 508	1	5	0.019028	4.5361	33.6673	-12.4661
 509	1	2	0.058829	1.80332	33.0584	-12.2867
 510	1	5	-0.00779	2.73347	31.3811	-13.3823
 511	1	5	-0.029026	2.87433	33.0056	-14.1413
 512	1	2	-0.029357	0.436771	32.5362	-12.4613
 513	1	5	-0.003083	1.83302	34.1431	-12.5553
 514	1	5	-0.010137	1.91209	33.1113	-11.1752
 515	1	2	-0.000585	-0.0765936	32.5254	-13.8999
 516	1	5	0.006084	-0.310352	33.1007	-11.8123
 517	1	5	0.012201	0.364236	31.4861	-11.9497
 518	1	2	-0.03118	-1.39265	31.8321	-13.7812
 519	1	5	0.011412	0.531046	31.9847	-14.6217
 520	1	5	0.011566	-0.380754	33.5112	-14.2216
 521	1	2	-0.057912	-1.30897	30.2939	-13.8899
 522	1	5	0.001922	-1.98133	32.3033	-14.5827
 523	1	5	0.021794	-1.91166	31.8898	-12.7887
 524	1	6	-0.501673	-3.56923	30.3034	-13.0643
 525	1	7	0.462	-2.76278	29.7021	-13.7925
 526	1	5	0.029593	-0.645048	29.9438	-13.1039
 527	1	5	0.042406	-0.967395	29.9105	-14.8784
 528	1	1	-0.353484	16.6804	24.6491	-7.73084
 529	1	2	0.376337	16.6192	25.37	-9.09222
 530	1	2	-0.897489	17.9572	25.5067	-9.98139
 531	1	3	0.034041	16.19	26.4158	-9.04827
 532	1	3	0.012328	15.7599	24.8945	-9.65495
 533	1	4	0.229239	15.7799	24.9719	-7.24576
 534	1	2	0.531206	17.6143	25.8069	-11.4556
 535	1	5	0.202592	18.567	24.494	-9.99593
 536	1	5	0.099501	18.5609	26.283	-9.5882
 537	1	2	0.171725	16.8643	27.1496	-11.7786
 538	1	5	-0.10542	17.0943	24.969	-11.9477
 539	1	5	-0.137294	18.5703	26.0623	-11.9423
 540	1	2	-0.155467	15.7534	27.0428	-12.8745
 541	1	5	-0.053736	17.5943	27.9991	-11.994
 542	1	5	0.001015	16.2335	27.4538	-10.8643
 543	1	2	0.033419	14.7736	28.2198	-12.6493
 544	1	5	0.005395	15.1236	26.1668	-12.6831
 545	1	5	0.019028	16.1103	26.9264	-13.9
 546	1	2	0.058829	13.8926	28.2509	-13.9003
 547	1	5	-0.00779	15.2008	29.264	-12.4785
 548	1	5	-0.029026	14.261	28.0651	-11.7075
 549	1	2	-0.029357	12.5094	28.9104	-13.7584
 550	1	5	-0.003083	13.6829	27.2523	-14.2011
 551	1	5	-0.010137	14.5045	28.5286	-14.7299
 552	1	2	-0.000585	11.5638	28.1118	-12.8579
 553	1	5	0.006084	12.026	28.8048	-14.7516
 554	1	5	0.012201	12.6637	29.95	-13.4162
 555	1	2	-0.03118	10.0831	28.7304	-12.8172
 556	1	5	0.011412	11.9766	28.1909	-11.7581
 557	1	5	0.011566	11.5108	27.0552	-12.9915
 558	1	2	-0.057912	10.041	30.266	-12.4647
 559	1	5	0.001922	9.42968	28.1431	-12.0971
 560	1	5	0.021794	9.79526	28.6019	-13.8857
 561	1	6	-0.501673	7.9162	31.2561	-13.0298
 562	1	7	0.462	8.56293	30.5887	-12.2758
 563	1	5	0.029593	10.4397	30.8807	-13.2607
 564	1	5	0.042406	10.6144	30.4883	-11.5338
 565	1	1	-0.353484	8.09512	22.6659	-3.90701
 566	1	2	0.376337	8.5138	21.5045	-4.77832
 567	1	2	-0.897489	9.41227	20.6485	-3.86481
 568	1	3	0.034041	9.127	21.8742	-5.69615
 569	1	3	0.012328	7.60555	20.9659	-5.07601
 570	1	4	0.229239	8.01155	22.2677	-2.95724
 571	1	2	0.531206	10.1043	19.5174	-4.66094
 572	1	5	0.202592	8.819	20.0894	-3.10929
 573	1	5	0.099501	10.1658	21.2258	-3.26825
 574	1	2	0.171725	11.354	19.9865	-5.62071
 575	1	5	-0.10542	9.44145	18.8982	-5.31232
 576	1	5	-0.137294	10.4169	18.7917	-3.90829
 577	1	2	-0.155467	12.2623	21.1955	-5.09047
 578	1	5	-0.053736	10.9184	20.205	-6.59674
 579	1	5	0.001015	11.9519	19.0375	-5.67803
 580	1	2	0.033419	13.0491	20.8025	-3.86739
 581	1	5	0.005395	11.6442	22.0518	-4.88926
 582	1	5	0.019028	12.8536	21.5823	-5.93762
 583	1	2	0.058829	13.7061	22.054	-3.11654
 584	1	5	-0.00779	13.8332	20.0237	-4.20001
 585	1	5	-0.029026	12.3746	20.2185	-3.16693
 586	1	2	-0.029357	15.1823	22.2438	-3.44156
 587	1	5	-0.003083	13.4827	22.0683	-1.98001
 588	1	5	-0.010137	13.1493	22.9221	-3.49784
 589	1	2	-0.000585	15.4634	22.5055	-4.87011
 590	1	5	0.006084	15.5959	21.3148	-3.10277
 591	1	5	0.012201	15.6719	23.1085	-2.89379
 592	1	2	-0.03118	16.8917	22.9114	-5.2274
 593	1	5	0.011412	14.88	23.3156	-5.28407
 594	1	5	0.011566	15.1023	21.6383	-5.53443
 595	1	2	-0.057912	17.3737	22.4716	-6.67662
 596	1	5	0.001922	17.5876	22.2952	-4.5875
 597	1	5	0.021794	17.2189	23.908	-4.95143
 598	1	6	-0.501673	15.6459	22.7273	-8.02257
 599	1	7	0.462	16.7105	23.2033	-7.83633
 600	1	5	0.029593	17.4389	21.401	-6.77273
 601	1	5	0.042406	18.3756	22.8954	-6.83512

Velocities

   1	0.00269004	0.000719595	-0.000932276
   2	-0.000802681	-0.00247707	0.00836538
   3	0.00142195	0.000672966	0.00193895
   4	-0.00219356	-0.00125321	0.0111251
   5	0.00326387	0.0159451	-0.00394286
   6	0.0080441	-0.00390504	0.00268205
   7	0.00254485	0.00972706	0.00218629
   8	-0.00208471	-0.00110937	0.00870149
   9	0.0165415	0.00206404	0.0045167
  10	0.00449386	0.00903958	-0.00374964
  11	-0.000762352	0.0175534	0.00622972
  12	-0.0013259	-0.00206425	0.0209444
  13	-0.000331018	0.00806468	-0.00308577
  14	0.0116115	0.000454284	-0.00976201
  15	0.00194689	0.0120217	-0.00188628
  16	0.00734685	0.00831024	0.00174509
  17	0.0100094	0.0169185	0.000854359
  18	-0.00260146	0.0175515	0.0167664
  19	0.00171101	-0.00174593	-0.00449561
  20	0.0205921	0.0122306	0.0067921
  21	0.00768626	0.0207605	-0.00173015
  22	0.00370668	0.00482704	-0.00209912
  23	-0.0183701	0.00373306	-0.012154
  24	-0.0221899	-0.00662127	0.00119918
  25	0.00121533	-0.00708444	0.00449188
  26	0.00976658	0.0113927	-0.00865782
  27	0.00451894	0.00358123	0.00212165
  28	0.0116891	0.0108366	-0.000857687
  29	-0.00248956	-0.0122737	0.0187371
  30	-0.00443632	-0.00408448	0.0050051
  31	0.0104225	0.00663896	0.0022272
  32	0.0148508	0.00612342	-0.0217919
  33	0.00814236	0.010192	-0.00183209
  34	0.000632144	0.00649885	0.00430221