pySIMM System Object

524 atoms
523 bonds
978 angles
1428 dihedrals
0 impropers

10 atom types
12 bond types
23 angle types
12 dihedral types
1 improper types

-93.576574 93.576574 xlo xhi
-93.576574 93.576574 ylo yhi
-93.576574 93.576574 zlo zhi

Masses

   1	14.01	# n3
   2	12.01	# c3
   3	1.008	# h1
   4	1.008	# hn
   5	1.008	# hc
   6	16.0	# o
   7	12.01	# c
   8	1.008	# h4
   9	16.0	# oh
  10	1.008	# ho

Pair Coeffs

   1	0.17	3.249998523775958	# n3
   2	0.1094	3.3996695084235347	# c3
   3	0.0157	2.471353044121301	# h1
   4	0.0157	1.069078461768407	# hn
   5	0.0157	2.649532787749369	# hc
   6	0.21	2.959921901149463	# o
   7	0.086	3.3996695084235347	# c
   8	0.015	2.5105525877194763	# h4
   9	0.2104	3.0664733878390478	# oh
  10	0.0047	0.5379246460131368	# ho

Bond Coeffs

   1	300.9	1.5375	# c3,c3
   2	392.4	1.019	# hn,n3
   3	330.6	1.0969	# c3,h1
   4	637.7	1.2183	# c,o
   5	325.9	1.4647	# c3,n3
   6	310.7	1.1121	# c,h4
   7	330.6	1.0969	# c3,hc
   8	313.0	1.5241	# c,c3
   9	316.7	1.4233	# c3,oh
  10	371.4	0.973	# ho,oh
  11	400.1	1.3513	# c,oh
  12	325.9	1.465	# n3,c

Angle Coeffs

   1	46.39	109.56	# c3,c3,h1
   2	66.02	111.04	# c3,c3,n3
   3	45.64	114.64	# c3,c,h4
   4	41.4	106.4	# hn,n3,hn
   5	39.24	108.46	# h1,c3,h1
   6	67.4	123.2	# c3,c,o
   7	47.42	109.29	# c3,n3,hn
   8	46.34	109.8	# c3,c3,hc
   9	63.27	111.04	# c,c3,c3
  10	39.4	107.58	# hc,c3,hc
  11	46.93	108.77	# c,c3,hc
  12	49.53	109.88	# h1,c3,n3
  13	62.86	111.51	# c3,c3,c3
  14	54.22	120.7	# h4,c,o
  15	67.47	110.19	# c3,c3,oh
  16	50.93	110.26	# h1,c3,oh
  17	47.38	107.26	# c3,oh,ho
  18	63.82	112.35	# c3,n3,c3
  19	49.55	109.8	# hc,c3,n3
  20	62.7	112.48	# c3,oh,c3
  21	51.11	109.5	# hc,c3,oh
  22	68.4	112.73	# c3,c,oh
  23	75.92	122.1	# o,c,oh

Dihedral Coeffs

   1	1	0.16	3	0	# hc,c3,c3,c3
   2	1	0.3	3	0	# X,c3,n3,X
   3	1	0.15555555555555556	3	0	# X,c3,c3,X
   4	3	0.18	3	0	0.25	2	180	0.2	1	180	# c3,c3,c3,c3
   5	1	0.0	2	180	# X,c,c3,X
   6	1	0.15	3	0	# hc,c3,c3,hc
   7	3	0.8	1	0	0.0	2	0	0.08	3	180	# hc,c3,c,o
   8	2	0.16	3	0	0.25	1	0	# ho,oh,c3,c3
   9	1	0.16666666666666666	3	0	# X,c3,oh,X
  10	2	0.0	3	0	0.25	1	0	# hc,c3,c3,oh
  11	2	0.3	3	0	0.48	2	180	# c3,c3,n3,c3
  12	1	2.3	2	180	# X,c,oh,X

Improper Coeffs

   1	10.5	-1	2	# c,X,X,o

Atoms

   1	1	1	-0.353484	2.94946	-43.4304	-22.6049
   2	1	2	0.376337	4.34164	-43.4953	-23.1072
   3	1	2	-0.897489	5.18363	-42.408	-22.4251
   4	1	3	0.034041	4.31455	-43.2701	-24.1597
   5	1	3	0.012328	4.75826	-44.5016	-23.0162
   6	1	4	0.229239	2.8878	-43.7378	-21.6349
   7	1	2	0.531206	5.78973	-42.8983	-21.08
   8	1	5	0.202592	4.53156	-41.5211	-22.2353
   9	1	5	0.099501	5.94938	-42.0756	-23.0839
  10	1	2	0.171725	6.85722	-41.9823	-20.4122
  11	1	5	-0.10542	6.25915	-43.8758	-21.2648
  12	1	5	-0.137294	4.96206	-43.1018	-20.3735
  13	1	2	-0.155467	8.07473	-41.5104	-21.2703
  14	1	5	-0.053736	7.1773	-42.4774	-19.5221
  15	1	5	0.001015	6.41997	-41.0796	-19.9676
  16	1	2	0.033419	8.90852	-40.4842	-20.4677
  17	1	5	0.005395	7.71442	-41.0713	-22.2278
  18	1	5	0.019028	8.66572	-42.3744	-21.5562
  19	1	2	0.058829	9.61098	-40.9243	-19.1717
  20	1	5	-0.00779	8.21456	-39.608	-20.3096
  21	1	5	-0.029026	9.66053	-40.1045	-21.2016
  22	1	2	-0.029357	10.7139	-39.9788	-18.647
  23	1	5	-0.003083	10.0361	-41.9218	-19.3388
  24	1	5	-0.010137	8.7893	-41.0316	-18.4299
  25	1	2	-0.000585	10.5493	-38.4551	-18.7694
  26	1	5	0.006084	11.6163	-40.3085	-19.167
  27	1	5	0.012201	10.8839	-40.1176	-17.5882
  28	1	2	-0.03118	10.7014	-37.8303	-20.1546
  29	1	5	0.011412	11.325	-37.9524	-18.1992
  30	1	5	0.011566	9.59203	-38.1211	-18.3558
  31	1	2	-0.057912	11.907	-38.2971	-21.006
  32	1	5	0.001922	10.79	-36.7471	-19.9922
  33	1	5	0.021794	9.75159	-37.9622	-20.7449
  34	1	6	-0.501673	12.8931	-36.7199	-22.5047
  35	1	7	0.462	12.0134	-37.5493	-22.3389
  36	1	5	0.029593	11.7904	-39.3855	-21.2628
  37	1	5	0.042406	12.8526	-38.1057	-20.4109
  38	1	9	-0.26285	-1.68652	-44.9289	-23.1248
  39	1	2	0.431937	-0.407053	-44.8897	-23.6683
  40	1	2	0.196566	0.516558	-44.0627	-22.8517
  41	1	3	-0.176879	-0.435338	-44.4574	-24.6679
  42	1	3	-0.045056	0.0706121	-45.8856	-23.7838
  43	1	2	0.080387	1.95944	-44.2368	-23.3949
  44	1	5	0.032783	0.50385	-44.2769	-21.7588
  45	1	5	-0.126889	0.166788	-43.0283	-22.9687
  46	1	5	-0.081548	2.03281	-44.0725	-24.4874
  47	1	5	-0.048451	2.24426	-45.2962	-23.349
  48	1	9	-0.26285	-5.3474	-47.2358	-22.3955
  49	1	2	0.431937	-4.45525	-46.1095	-22.3929
  50	1	2	0.196566	-3.05679	-46.7042	-22.1604
  51	1	3	-0.176879	-4.69073	-45.4121	-21.5796
  52	1	3	-0.045056	-4.47699	-45.6023	-23.3377
  53	1	2	0.080387	-1.91455	-45.6777	-21.964
  54	1	5	0.032783	-2.74025	-47.2794	-23.0791
  55	1	5	-0.126889	-2.99676	-47.4719	-21.3283
  56	1	5	-0.081548	-1.00244	-46.2036	-21.6383
  57	1	5	-0.048451	-2.26173	-44.9962	-21.1969
  58	1	9	-0.26285	-8.1733	-45.3158	-20.7613
  59	1	2	0.431937	-7.89947	-46.6318	-20.3418
  60	1	2	0.196566	-7.75609	-47.5031	-21.6482
  61	1	3	-0.176879	-8.68366	-47.0057	-19.6911
  62	1	3	-0.045056	-7.0865	-46.6224	-19.71
  63	1	2	0.080387	-6.71755	-46.9142	-22.6905
  64	1	5	0.032783	-7.37768	-48.4957	-21.3561
  65	1	5	-0.126889	-8.73468	-47.7041	-22.1022
  66	1	5	-0.081548	-6.88596	-45.8549	-22.8718
  67	1	5	-0.048451	-6.94799	-47.2975	-23.7169
  68	1	1	-0.353484	1.07775	-33.8826	-20.075
  69	1	2	0.376337	1.11966	-35.2861	-19.9069
  70	1	2	-0.897489	0.0915776	-36.05	-20.72
  71	1	3	0.034041	1.06312	-35.5049	-18.8203
  72	1	3	0.012328	2.16728	-35.6034	-20.2135
  73	1	4	0.229239	0.16844	-33.5115	-20.2447
  74	1	2	0.531206	0.365984	-37.5357	-20.5762
  75	1	5	0.202592	0.0757386	-35.792	-21.7948
  76	1	5	0.099501	-0.934236	-35.8575	-20.3759
  77	1	2	0.171725	-0.471429	-38.5029	-21.4475
  78	1	5	-0.10542	0.378806	-37.8151	-19.5189
  79	1	5	-0.137294	1.42492	-37.6238	-20.8996
  80	1	2	-0.155467	-1.43495	-39.3554	-20.5325
  81	1	5	-0.053736	0.143168	-39.118	-22.0669
  82	1	5	0.001015	-0.993636	-37.9501	-22.1891
  83	1	2	0.033419	-2.34581	-40.2796	-21.4174
  84	1	5	0.005395	-2.05958	-38.6858	-19.9002
  85	1	5	0.019028	-0.92931	-39.9803	-19.7851
  86	1	2	0.058829	-3.0383	-41.4027	-20.603
  87	1	5	-0.00779	-1.70451	-40.7066	-22.1996
  88	1	5	-0.029026	-3.07519	-39.5798	-21.8731
  89	1	2	-0.029357	-4.01061	-40.9433	-19.5211
  90	1	5	-0.003083	-2.33941	-42.1052	-20.1372
  91	1	5	-0.010137	-3.55391	-41.9911	-21.3936
  92	1	2	-0.000585	-4.81476	-42.1411	-18.8627
  93	1	5	0.006084	-4.74593	-40.2661	-19.9678
  94	1	5	0.012201	-3.40112	-40.4165	-18.7793
  95	1	2	-0.03118	-6.03283	-42.5922	-19.7867
  96	1	5	0.011412	-5.12275	-41.9069	-17.8499
  97	1	5	0.011566	-4.14455	-42.9652	-18.8313
  98	1	2	-0.057912	-7.05633	-43.6881	-19.3593
  99	1	5	0.001922	-5.5942	-42.8379	-20.7086
 100	1	5	0.021794	-6.67231	-41.7498	-19.9217
 101	1	6	-0.501673	-8.76396	-43.1528	-21.0624
 102	1	7	0.462	-7.9823	-43.9904	-20.5782
 103	1	5	0.029593	-7.68505	-43.3494	-18.5015
 104	1	5	0.042406	-6.5262	-44.6123	-19.0631
 105	1	1	-0.353484	8.051	-23.1843	-19.454
 106	1	2	0.376337	8.81546	-23.6475	-20.5888
 107	1	2	-0.897489	7.85408	-24.1611	-21.7391
 108	1	3	0.034041	9.61427	-24.2903	-20.2713
 109	1	3	0.012328	9.27214	-22.7104	-20.9563
 110	1	4	0.229239	7.69005	-24.012	-18.971
 111	1	2	0.531206	6.83298	-25.2467	-21.2549
 112	1	5	0.202592	8.48659	-24.5653	-22.586
 113	1	5	0.099501	7.3418	-23.2982	-22.1403
 114	1	2	0.171725	5.88777	-25.6446	-22.4027
 115	1	5	-0.10542	6.27494	-24.9166	-20.3575
 116	1	5	-0.137294	7.3993	-26.1142	-20.8693
 117	1	2	-0.155467	4.73214	-26.561	-21.8717
 118	1	5	-0.053736	6.39612	-26.091	-23.2588
 119	1	5	0.001015	5.39225	-24.7401	-22.775
 120	1	2	0.033419	4.1666	-27.564	-22.8765
 121	1	5	0.005395	4.02575	-25.8539	-21.4688
 122	1	5	0.019028	5.07837	-27.1567	-21.0229
 123	1	2	0.058829	2.89096	-28.2035	-22.2655
 124	1	5	-0.00779	4.91469	-28.3568	-23.0666
 125	1	5	-0.029026	3.95449	-27.0428	-23.8263
 126	1	2	-0.029357	2.40703	-29.1956	-23.3329
 127	1	5	-0.003083	2.11255	-27.425	-22.1038
 128	1	5	-0.010137	3.08756	-28.6842	-21.3143
 129	1	2	-0.000585	1.13957	-30.0427	-22.9585
 130	1	5	0.006084	3.19297	-29.8863	-23.6134
 131	1	5	0.012201	2.17843	-28.6123	-24.2285
 132	1	2	-0.03118	1.30843	-30.9029	-21.6609
 133	1	5	0.011412	0.900489	-30.6509	-23.8142
 134	1	5	0.011566	0.334205	-29.3172	-22.7926
 135	1	2	-0.057912	0.0524228	-31.7309	-21.3321
 136	1	5	0.001922	1.48666	-30.2927	-20.7735
 137	1	5	0.021794	2.17489	-31.5748	-21.7799
 138	1	6	-0.501673	1.1308	-32.6645	-19.3809
 139	1	7	0.462	0.208504	-32.6705	-20.1253
 140	1	5	0.029593	-0.159835	-32.3746	-22.1925
 141	1	5	0.042406	-0.779681	-31.0377	-21.1302
 142	1	1	-0.353484	9.92946	-7.43392	-22.099
 143	1	2	0.376337	10.0512	-8.60833	-21.2835
 144	1	2	-0.897489	9.28572	-9.72437	-21.9436
 145	1	3	0.034041	9.65925	-8.37307	-20.2848
 146	1	3	0.012328	11.1306	-8.81311	-21.2102
 147	1	4	0.229239	10.171	-7.67867	-23.0627
 148	1	2	0.531206	9.11374	-10.8233	-20.931
 149	1	5	0.202592	9.84682	-10.1349	-22.7662
 150	1	5	0.099501	8.30093	-9.39082	-22.3257
 151	1	2	0.171725	8.62559	-12.141	-21.5778
 152	1	5	-0.10542	8.43927	-10.4703	-20.1279
 153	1	5	-0.137294	10.0708	-11.0218	-20.4138
 154	1	2	-0.155467	8.5514	-13.303	-20.5238
 155	1	5	-0.053736	9.29978	-12.3928	-22.412
 156	1	5	0.001015	7.61589	-12.011	-22.0543
 157	1	2	0.033419	8.1019	-14.6956	-21.0517
 158	1	5	0.005395	7.90596	-12.977	-19.7092
 159	1	5	0.019028	9.5415	-13.443	-20.1165
 160	1	2	0.058829	8.08394	-15.7196	-19.9573
 161	1	5	-0.00779	8.81565	-15.0399	-21.8091
 162	1	5	-0.029026	7.14067	-14.6533	-21.5725
 163	1	2	-0.029357	7.52529	-17.1813	-20.2558
 164	1	5	-0.003083	7.44962	-15.3506	-19.1313
 165	1	5	-0.010137	9.11206	-15.8074	-19.5878
 166	1	2	-0.000585	7.81791	-18.2232	-19.1303
 167	1	5	0.006084	7.89515	-17.6239	-21.1685
 168	1	5	0.012201	6.42973	-17.1039	-20.3815
 169	1	2	-0.03118	7.40065	-19.6744	-19.4766
 170	1	5	0.011412	7.30002	-17.8682	-18.1954
 171	1	5	0.011566	8.91359	-18.1666	-19.0076
 172	1	2	-0.057912	7.66168	-20.5779	-18.2765
 173	1	5	0.001922	8.007	-19.9985	-20.3513
 174	1	5	0.021794	6.33888	-19.7997	-19.8253
 175	1	6	-0.501673	8.46216	-22.844	-18.0419
 176	1	7	0.462	8.1493	-21.9235	-18.7378
 177	1	5	0.029593	6.74829	-20.7381	-17.68
 178	1	5	0.042406	8.38848	-20.1027	-17.5168
 179	1	9	-0.26285	10.7672	-3.36992	-20.9129
 180	1	2	0.431937	11.1819	-4.45114	-20.044
 181	1	2	0.196566	10.3936	-5.74567	-20.2832
 182	1	3	-0.176879	11.1338	-4.13137	-18.9838
 183	1	3	-0.045056	12.2399	-4.66708	-20.2478
 184	1	2	0.080387	10.5776	-6.19438	-21.7459
 185	1	5	0.032783	9.31979	-5.50653	-20.1045
 186	1	5	-0.126889	10.6865	-6.55567	-19.5662
 187	1	5	-0.081548	11.6593	-6.27366	-22.0038
 188	1	5	-0.048451	10.1045	-5.45531	-22.356
 189	1	9	-0.26285	8.45174	-0.678934	-18.0902
 190	1	2	0.431937	9.31639	-0.168885	-19.0874
 191	1	2	0.196566	10.3709	-1.188	-19.6137
 192	1	3	-0.176879	9.81482	0.735127	-18.7052
 193	1	3	-0.045056	8.74493	0.159694	-19.8971
 194	1	2	0.080387	9.77729	-2.40168	-20.3653
 195	1	5	0.032783	10.9312	-1.53	-18.7203
 196	1	5	-0.126889	11.05	-0.596233	-20.2604
 197	1	5	-0.081548	9.17467	-2.12486	-21.2042
 198	1	5	-0.048451	9.10812	-2.88295	-19.6387
 199	1	9	-0.26285	7.65548	-0.690686	-13.7537
 200	1	2	0.431937	8.14807	-0.527772	-15.0691
 201	1	2	0.196566	7.03478	-0.336787	-16.1352
 202	1	3	-0.176879	8.85002	-1.3604	-15.3437
 203	1	3	-0.045056	8.78383	0.354626	-15.0449
 204	1	2	0.080387	7.60515	0.232319	-17.4584
 205	1	5	0.032783	6.37634	0.464488	-15.7837
 206	1	5	-0.126889	6.42062	-1.23172	-16.2859
 207	1	5	-0.081548	8.17529	1.1368	-17.2125
 208	1	5	-0.048451	6.81895	0.552142	-18.1415
 209	1	1	-0.353484	0.074138	5.66786	-8.1042
 210	1	2	0.376337	-0.88064	5.02414	-9.03719
 211	1	2	-0.897489	-0.675085	5.56656	-10.5069
 212	1	3	0.034041	-1.93967	5.15742	-8.7549
 213	1	3	0.012328	-0.719785	3.95085	-9.03697
 214	1	4	0.229239	0.989001	5.26062	-8.18412
 215	1	2	0.531206	0.661899	5.11205	-11.1663
 216	1	5	0.202592	-0.641985	6.65152	-10.4116
 217	1	5	0.099501	-1.54651	5.32495	-11.1463
 218	1	2	0.171725	0.603955	3.60139	-11.6624
 219	1	5	-0.10542	1.36484	5.22316	-10.3561
 220	1	5	-0.137294	0.947816	5.80566	-11.9851
 221	1	2	-0.155467	1.94986	2.99631	-12.0458
 222	1	5	-0.053736	-0.129198	3.52421	-12.4804
 223	1	5	0.001015	0.242655	3.09232	-10.7943
 224	1	2	0.033419	1.85959	1.54044	-12.5475
 225	1	5	0.005395	2.66664	3.11097	-11.2129
 226	1	5	0.019028	2.33626	3.60549	-12.8948
 227	1	2	0.058829	3.20199	0.927921	-13.0651
 228	1	5	-0.00779	1.09718	1.44744	-13.3205
 229	1	5	-0.029026	1.52448	0.882311	-11.7641
 230	1	2	-0.029357	3.19529	-0.633942	-13.0937
 231	1	5	-0.003083	4.09249	1.27672	-12.5387
 232	1	5	-0.010137	3.3541	1.34675	-14.0723
 233	1	2	-0.000585	4.49311	-1.33073	-13.5741
 234	1	5	0.006084	2.32725	-0.893985	-13.7554
 235	1	5	0.012201	2.89497	-0.992223	-12.1123
 236	1	2	-0.03118	5.41188	-1.92019	-12.4222
 237	1	5	0.011412	4.99194	-0.64385	-14.2094
 238	1	5	0.011566	4.21766	-2.13885	-14.2168
 239	1	2	-0.057912	6.23966	-0.753857	-11.7904
 240	1	5	0.001922	6.07464	-2.68493	-12.8679
 241	1	5	0.021794	4.75452	-2.46527	-11.7557
 242	1	6	-0.501673	6.70589	1.21066	-13.2151
 243	1	7	0.462	7.01883	0.0751543	-12.8553
 244	1	5	0.029593	6.95911	-1.15834	-11.0367
 245	1	5	0.042406	5.62379	-0.0705116	-11.2178
 246	1	9	-0.26285	0.372686	6.49115	-3.14734
 247	1	2	0.431937	-0.0863474	5.65457	-4.16364
 248	1	2	0.196566	0.311702	6.30844	-5.48709
 249	1	3	-0.176879	-1.15891	5.43848	-4.07461
 250	1	3	-0.045056	0.468091	4.67474	-4.17562
 251	1	2	0.080387	-0.376185	5.50091	-6.68552
 252	1	5	0.032783	1.41769	6.29005	-5.57825
 253	1	5	-0.126889	-0.00809801	7.37083	-5.497
 254	1	5	-0.081548	-1.41681	5.85973	-6.60792
 255	1	5	-0.048451	-0.324981	4.47337	-6.38827
 256	1	1	-0.353484	-1.70344	18.1005	4.54928
 257	1	2	0.376337	-1.89183	18.2556	3.12495
 258	1	2	-0.897489	-1.59544	16.8819	2.49275
 259	1	3	0.034041	-1.21417	19.0107	2.63822
 260	1	3	0.012328	-2.90806	18.565	2.89505
 261	1	4	0.229239	-2.09618	17.2266	4.86127
 262	1	2	0.531206	-0.139231	16.3523	2.6784
 263	1	5	0.202592	-1.78782	17.0835	1.46396
 264	1	5	0.099501	-2.26702	16.1295	2.84857
 265	1	2	0.171725	0.376517	15.4155	1.54747
 266	1	5	-0.10542	-0.116172	15.7653	3.62228
 267	1	5	-0.137294	0.499664	17.2573	2.7535
 268	1	2	-0.155467	-0.546078	14.1669	1.24967
 269	1	5	-0.053736	1.40799	15.0841	1.82728
 270	1	5	0.001015	0.49697	15.997	0.620713
 271	1	2	0.033419	0.317281	13.072	0.56797
 272	1	5	0.005395	-1.41021	14.4461	0.613649
 273	1	5	0.019028	-0.888839	13.7724	2.17782
 274	1	2	0.058829	-0.457161	11.6978	0.299048
 275	1	5	-0.00779	1.2148	12.8115	1.18304
 276	1	5	-0.029026	0.767454	13.4399	-0.379861
 277	1	2	-0.029357	0.426177	10.5121	0.0145508
 278	1	5	-0.003083	-1.28438	11.832	-0.477725
 279	1	5	-0.010137	-0.949858	11.4198	1.25179
 280	1	2	-0.000585	-0.327641	9.19143	-0.199183
 281	1	5	0.006084	1.12372	10.4348	0.865999
 282	1	5	0.012201	1.0891	10.7232	-0.863018
 283	1	2	-0.03118	0.420337	7.91759	-0.639729
 284	1	5	0.011412	-1.1403	9.35858	-0.9012
 285	1	5	0.011566	-0.763354	8.92426	0.741431
 286	1	2	-0.057912	1.26338	8.25463	-1.91694
 287	1	5	0.001922	-0.302099	7.15769	-0.796296
 288	1	5	0.021794	1.0523	7.59816	0.212591
 289	1	6	-0.501673	2.54489	6.80549	-3.50874
 290	1	7	0.462	1.53045	7.01424	-2.87055
 291	1	5	0.029593	2.1842	8.72685	-1.61193
 292	1	5	0.042406	0.661329	8.94449	-2.48614
 293	1	1	-0.353484	-11.8189	22.833	13.9838
 294	1	2	0.376337	-11.9952	21.3484	13.7867
 295	1	2	-0.897489	-11.0519	20.8994	12.6384
 296	1	3	0.034041	-13.0074	21.1336	13.4125
 297	1	3	0.012328	-11.786	20.8118	14.7081
 298	1	4	0.229239	-11.9105	23.4017	13.1687
 299	1	2	0.531206	-9.61301	20.6625	13.1759
 300	1	5	0.202592	-10.9775	21.681	11.8526
 301	1	5	0.099501	-11.4612	19.9756	12.1661
 302	1	2	0.171725	-8.55459	20.1175	12.1853
 303	1	5	-0.10542	-9.62963	19.9445	13.996
 304	1	5	-0.137294	-9.22273	21.6243	13.5801
 305	1	2	-0.155467	-8.86052	18.7646	11.4277
 306	1	5	-0.053736	-7.60196	19.9189	12.7892
 307	1	5	0.001015	-8.33975	20.8755	11.439
 308	1	2	0.033419	-7.82917	18.0775	10.523
 309	1	5	0.005395	-9.82569	18.9564	10.8568
 310	1	5	0.019028	-9.07515	17.9578	12.1651
 311	1	2	0.058829	-6.96078	19.0004	9.65668
 312	1	5	-0.00779	-8.42042	17.449	9.87221
 313	1	5	-0.029026	-7.1298	17.3608	10.9995
 314	1	2	-0.029357	-6.2494	18.2139	8.56102
 315	1	5	-0.003083	-6.22986	19.5342	10.3519
 316	1	5	-0.010137	-7.61709	19.8105	9.21217
 317	1	2	-0.000585	-5.20911	19.1412	7.9119
 318	1	5	0.006084	-6.9385	17.777	7.80458
 319	1	5	0.012201	-5.76606	17.4024	9.06667
 320	1	2	-0.03118	-4.39686	18.6887	6.65429
 321	1	5	0.011412	-4.61305	19.462	8.71736
 322	1	5	0.011566	-5.74896	19.9731	7.48775
 323	1	2	-0.057912	-2.90869	18.4023	7.02027
 324	1	5	0.001922	-4.39952	19.5141	5.88349
 325	1	5	0.021794	-4.98991	17.8895	6.13208
 326	1	6	-0.501673	-0.948309	18.0429	5.62195
 327	1	7	0.462	-2.08351	17.6634	5.90234
 328	1	5	0.029593	-2.92238	17.7637	7.91742
 329	1	5	0.042406	-2.33687	19.2948	7.30467
 330	1	1	-0.353484	-6.20514	18.0268	18.0221
 331	1	2	0.376337	-4.93434	18.6295	17.9699
 332	1	2	-0.897489	-4.59727	18.9191	16.5045
 333	1	3	0.034041	-4.1702	17.9707	18.4852
 334	1	3	0.012328	-4.90553	19.6223	18.5014
 335	1	4	0.229239	-6.51722	18.1631	18.9338
 336	1	2	0.531206	-5.29923	20.1894	16.0653
 337	1	5	0.202592	-4.8329	18.0835	15.8241
 338	1	5	0.099501	-3.48092	19.0452	16.3729
 339	1	2	0.171725	-5.08286	20.3782	14.5676
 340	1	5	-0.10542	-5.1494	21.066	16.6646
 341	1	5	-0.137294	-6.35971	19.9695	16.1435
 342	1	2	-0.155467	-5.82248	21.6012	14.0051
 343	1	5	-0.053736	-5.31959	19.4643	13.9962
 344	1	5	0.001015	-4.00528	20.5326	14.3822
 345	1	2	0.033419	-5.48919	22.9442	14.7201
 346	1	5	0.005395	-6.90324	21.4228	14.0843
 347	1	5	0.019028	-5.50729	21.6609	12.9153
 348	1	2	0.058829	-6.1032	24.1586	14.1029
 349	1	5	-0.00779	-4.39394	23.1183	14.7882
 350	1	5	-0.029026	-5.84296	22.8895	15.7508
 351	1	2	-0.029357	-7.61726	24.2714	14.2117
 352	1	5	-0.003083	-5.8382	24.2308	13.0576
 353	1	5	-0.010137	-5.56045	25.033	14.552
 354	1	2	-0.000585	-8.31807	25.6635	13.8285
 355	1	5	0.006084	-7.92718	23.9985	15.2408
 356	1	5	0.012201	-8.01961	23.4506	13.6251
 357	1	2	-0.03118	-9.68909	25.4264	13.0957
 358	1	5	0.011412	-7.60739	26.2328	13.2518
 359	1	5	0.011566	-8.53889	26.3413	14.6956
 360	1	2	-0.057912	-10.8347	25.1614	14.1344
 361	1	5	0.001922	-9.58486	24.5285	12.4278
 362	1	5	0.021794	-9.91112	26.3098	12.5062
 363	1	6	-0.501673	-12.7851	23.7455	14.3914
 364	1	7	0.462	-11.9264	24.2214	13.6488
 365	1	5	0.029593	-11.2078	26.128	14.3275
 366	1	5	0.042406	-10.4357	24.6966	15.0677
 367	1	1	-0.353484	-7.49503	21.984	31.3345
 368	1	2	0.376337	-6.36662	21.0538	31.3799
 369	1	2	-0.897489	-5.52132	21.2128	30.1778
 370	1	3	0.034041	-6.70383	20.0523	31.4273
 371	1	3	0.012328	-5.859	21.0922	32.3447
 372	1	4	0.229239	-7.14899	22.9278	31.5596
 373	1	2	0.531206	-6.27962	21.2412	28.848
 374	1	5	0.202592	-4.8591	20.2837	30.219
 375	1	5	0.099501	-4.86576	22.0742	30.2605
 376	1	2	0.171725	-5.27193	21.0796	27.6993
 377	1	5	-0.10542	-6.72069	22.2321	28.7442
 378	1	5	-0.137294	-7.0883	20.5825	28.868
 379	1	2	-0.155467	-5.77897	20.8893	26.2618
 380	1	5	-0.053736	-4.67446	20.1606	27.9124
 381	1	5	0.001015	-4.53184	21.9006	27.6776
 382	1	2	0.033419	-6.06543	19.4319	25.7805
 383	1	5	0.005395	-5.06434	21.3083	25.6131
 384	1	5	0.019028	-6.67883	21.5612	26.0074
 385	1	2	0.058829	-6.59511	19.4397	24.3716
 386	1	5	-0.00779	-6.73706	18.8743	26.4285
 387	1	5	-0.029026	-5.15345	18.9027	25.8567
 388	1	2	-0.029357	-5.41756	19.5224	23.3029
 389	1	5	-0.003083	-7.28464	20.3113	24.2309
 390	1	5	-0.010137	-7.34963	18.6159	24.2592
 391	1	2	-0.000585	-6.01848	19.8639	21.8738
 392	1	5	0.006084	-4.73527	18.6664	23.2824
 393	1	5	0.012201	-4.75105	20.3928	23.4576
 394	1	2	-0.03118	-7.21637	18.9477	21.4898
 395	1	5	0.011412	-5.29427	19.7493	21.1308
 396	1	5	0.011566	-6.43389	20.8403	21.851
 397	1	2	-0.057912	-7.61858	19.1506	19.9767
 398	1	5	0.001922	-8.08283	19.0392	22.1332
 399	1	5	0.021794	-6.88172	17.8658	21.5179
 400	1	6	-0.501673	-7.86019	17.4644	18.3216
 401	1	7	0.462	-7.11265	17.9641	19.129
 402	1	5	0.029593	-7.1306	20.0239	19.6465
 403	1	5	0.042406	-8.75916	19.2754	19.908
 404	1	1	-0.353484	-9.50062	34.9002	31.7269
 405	1	2	0.376337	-8.53723	35.1627	32.7809
 406	1	2	-0.897489	-7.12564	35.3612	32.0314
 407	1	3	0.034041	-8.57638	34.3297	33.5018
 408	1	3	0.012328	-8.81887	36.1167	33.2635
 409	1	4	0.229239	-9.50691	35.6677	31.0832
 410	1	2	0.531206	-6.72593	34.1825	31.1622
 411	1	5	0.202592	-6.38458	35.5295	32.8656
 412	1	5	0.099501	-7.10864	36.3162	31.5146
 413	1	2	0.171725	-6.90304	32.7677	31.7553
 414	1	5	-0.10542	-5.66975	34.226	30.7534
 415	1	5	-0.137294	-7.34263	34.2363	30.2757
 416	1	2	-0.155467	-6.55711	31.672	30.7204
 417	1	5	-0.053736	-7.91427	32.5076	32.0377
 418	1	5	0.001015	-6.4672	32.7006	32.7639
 419	1	2	0.033419	-7.19186	30.3544	31.092
 420	1	5	0.005395	-5.49008	31.566	30.7667
 421	1	5	0.019028	-6.81176	31.8989	29.7188
 422	1	2	0.058829	-6.61844	29.1883	30.2716
 423	1	5	-0.00779	-8.27918	30.3876	30.9825
 424	1	5	-0.029026	-6.90444	30.2057	32.1872
 425	1	2	-0.029357	-6.67998	27.8864	31.1046
 426	1	5	-0.003083	-5.53921	29.3451	29.9924
 427	1	5	-0.010137	-7.09884	29.1305	29.2679
 428	1	2	-0.000585	-5.9816	26.7571	30.363
 429	1	5	0.006084	-7.75209	27.6972	31.3198
 430	1	5	0.012201	-6.25937	27.93	32.0861
 431	1	2	-0.03118	-6.18395	25.4159	31.2054
 432	1	5	0.011412	-4.97832	27.0721	30.2228
 433	1	5	0.011566	-6.34927	26.5737	29.3592
 434	1	2	-0.057912	-7.52011	24.7926	30.9105
 435	1	5	0.001922	-6.19083	25.5978	32.3269
 436	1	5	0.021794	-5.41891	24.7044	31.1051
 437	1	6	-0.501673	-8.59938	23.101	32.3297
 438	1	7	0.462	-7.74798	23.4033	31.4928
 439	1	5	0.029593	-7.66579	24.6079	29.8377
 440	1	5	0.042406	-8.29006	25.4581	31.0936
 441	1	1	-0.353484	-14.2143	25.8832	26.8395
 442	1	2	0.376337	-12.8464	26.1677	26.9661
 443	1	2	-0.897489	-12.416	26.4338	28.3986
 444	1	3	0.034041	-12.7294	27.1309	26.37
 445	1	3	0.012328	-12.2856	25.4416	26.392
 446	1	4	0.229239	-14.6393	26.0226	27.7849
 447	1	2	0.531206	-10.9296	26.7777	28.4347
 448	1	5	0.202592	-12.5879	25.623	29.0804
 449	1	5	0.099501	-13.0348	27.3445	28.68
 450	1	2	0.171725	-10.7451	28.2491	27.9419
 451	1	5	-0.10542	-10.4121	25.9543	27.8174
 452	1	5	-0.137294	-10.6103	26.5084	29.4595
 453	1	2	-0.155467	-10.6719	29.1927	29.1488
 454	1	5	-0.053736	-11.6057	28.5768	27.359
 455	1	5	0.001015	-9.88907	28.1234	27.2995
 456	1	2	0.033419	-9.90818	30.536	28.8033
 457	1	5	0.005395	-10.276	28.7166	30.0193
 458	1	5	0.019028	-11.6834	29.3943	29.4994
 459	1	2	0.058829	-10.4761	31.3049	27.5451
 460	1	5	-0.00779	-8.87931	30.3524	28.678
 461	1	5	-0.029026	-10.0497	31.1961	29.6875
 462	1	2	-0.029357	-9.6325	32.5252	27.1805
 463	1	5	-0.003083	-11.4801	31.6467	27.7957
 464	1	5	-0.010137	-10.5144	30.6491	26.6705
 465	1	2	-0.000585	-9.57854	33.6718	28.257
 466	1	5	0.006084	-10.154	32.8874	26.3184
 467	1	5	0.012201	-8.72391	32.3431	26.6862
 468	1	2	-0.03118	-10.9578	34.412	28.6404
 469	1	5	0.011412	-8.8818	34.47	27.8731
 470	1	5	0.011566	-9.25378	33.2892	29.2031
 471	1	2	-0.057912	-10.701	35.8063	29.2723
 472	1	5	0.001922	-11.5611	33.851	29.2712
 473	1	5	0.021794	-11.5887	34.6774	27.7158
 474	1	6	-0.501673	-11.0575	35.4177	31.4839
 475	1	7	0.462	-10.1499	35.7643	30.7207
 476	1	5	0.029593	-11.632	36.3709	29.3138
 477	1	5	0.042406	-10.0905	36.3938	28.5504
 478	1	1	-0.353484	-13.2791	22.7646	40.5087
 479	1	2	0.376337	-13.5343	24.2185	40.249
 480	1	2	-0.897489	-12.649	24.6441	38.9726
 481	1	3	0.034041	-13.131	24.7714	41.0947
 482	1	3	0.012328	-14.6074	24.358	40.1248
 483	1	4	0.229239	-13.535	22.1735	39.7685
 484	1	2	0.531206	-13.5631	24.3209	37.7293
 485	1	5	0.202592	-11.7242	24.0739	38.9187
 486	1	5	0.099501	-12.3582	25.7473	39.0524
 487	1	2	0.171725	-13.3198	25.0596	36.4219
 488	1	5	-0.10542	-14.6465	24.2887	37.9655
 489	1	5	-0.137294	-13.3683	23.2544	37.5299
 490	1	2	-0.155467	-14.3532	24.7644	35.3248
 491	1	5	-0.053736	-12.2722	24.7386	36.1362
 492	1	5	0.001015	-13.1992	26.1568	36.6307
 493	1	2	0.033419	-13.9359	25.3951	33.9761
 494	1	5	0.005395	-15.2921	25.2219	35.7409
 495	1	5	0.019028	-14.5234	23.7362	35.0842
 496	1	2	0.058829	-14.9726	25.5971	32.8835
 497	1	5	-0.00779	-13.1145	24.8242	33.666
 498	1	5	-0.029026	-13.5534	26.409	34.212
 499	1	2	-0.029357	-15.4163	24.2153	32.2976
 500	1	5	-0.003083	-14.5348	26.034	31.9333
 501	1	5	-0.010137	-15.8477	26.2281	33.0811
 502	1	2	-0.000585	-16.3744	24.1708	31.0598
 503	1	5	0.006084	-15.7817	23.5869	33.0952
 504	1	5	0.012201	-14.5427	23.6857	32.0088
 505	1	2	-0.03118	-15.8243	24.941	29.8294
 506	1	5	0.011412	-17.3319	24.4824	31.4162
 507	1	5	0.011566	-16.4833	23.0584	30.7992
 508	1	2	-0.057912	-15.0049	24.0066	28.9257
 509	1	5	0.001922	-15.2573	25.891	29.9323
 510	1	5	0.021794	-16.6923	25.3878	29.3225
 511	1	6	-0.501673	-15.7934	25.0455	27.01
 512	1	7	0.462	-14.7627	24.7583	27.7184
 513	1	5	0.029593	-15.7096	23.1634	28.7604
 514	1	5	0.042406	-14.2315	23.4479	29.2714
 515	1	9	-0.26285	-11.6544	20.2826	41.045
 516	1	2	0.431937	-12.0763	20.408	42.3623
 517	1	2	0.196566	-13.4995	20.8607	42.4039
 518	1	3	-0.176879	-11.5084	21.1953	42.9498
 519	1	3	-0.045056	-12.0586	19.4275	42.8084
 520	1	2	0.080387	-13.8529	22.3084	41.8503
 521	1	5	0.032783	-13.7077	20.7812	43.4963
 522	1	5	-0.126889	-14.0353	20.1133	41.8754
 523	1	5	-0.081548	-13.5211	22.9753	42.6962
 524	1	5	-0.048451	-14.9606	22.4274	41.7968

Velocities

   1	-0.00824132	-0.00136466	0.00179167
   2	-0.00256505	-0.00321209	0.00589529
   3	-0.000640693	-0.000921817	0.00470142
   4	0.00976669	-0.0007039	0.0090585
   5	0.00691206	-0.00897585	0.0294238
   6	-0.01202	0.00122612	0.0119087
   7	-0.00245771	-0.00302314	0.00384138
   8	-0.00017576	0.00648228	0.00338219
   9	0.0121112	-0.00288665	0.00257223
  10	-0.000958429	-0.00826485	0.000355422
  11	-0.00427853	-0.013779	0.0184152
  12	0.00921302	-0.00881148	0.00782361
  13	-0.00238297	-0.00951497	0.00457327
  14	0.0060201	-0.0117125	-0.00145507
  15	-0.00541536	-0.00211798	0.0147042
  16	-0.007109	-0.0016287	0.000450223
  17	-0.00156295	0.00296185	-0.0130117
  18	-0.00127191	-0.00786549	0.0149526
  19	-0.00340718	-0.00205113	-6.53908e-06
  20	0.0116415	0.00691805	-0.0168648
  21	-0.0115369	-0.0138439	-0.00877481
  22	-0.00413531	0.00148285	0.00805282
  23	0.00691032	0.0098814	0.0150291
  24	-0.0033794	-0.00400299	-0.0027231
  25	-0.00471942	0.000553512	0.00673144
  26	0.00579946	-0.000250469	0.011803
  27	0.00119492	-0.00917373	0.0144497
  28	-0.00318924	0.00257631	0.00217507
  29	-0.000306593	0.00676106	-0.00706872
  30	0.00179158	-0.0143807	-0.0065694
  31	-0.00734632	-0.00362367	0.00728556
  32	0.00424512	0.0140434	0.0287957
  33	-0.00835272	0.0123181	0.0108181
  34	0.000224487	-0.001493	0.00890286
  35	0.00501057	-0.00984815	0.00574183
  36	-0.0174376	0.00042611	-0.0053796
  37	0.00224696	-0.0253139	0.00483664
  38	0.00132781	-0.00571668	0.00571857
  39	-0.00123435	0.00418375	0.00419464
  40	0.00238959	0.000574667	0.00449813
  41	-0.00282399	-0.00272596	0.0110975
  42	-0.00666596	0.00428026	0.00534518
  43	0.00455461	-0.000244329	0.00406177
  44	-0.0171359	-0.00903953	0.0108629
  45	0.00297919	-0.000975606	-0.00729401
  46	0.00253852	-0.00644194	0.0122207
  47	0.00673528	-0.0141914	0.0145754
  48	0.00364075	-0.0112831	-0.00159449
  49	-0.000916074	0.000780962	-0.00671384
  50	0.00360086	-0.00457332	0.0114511
  51	-0.00112665	0.00538646	-0.0108723
  52	-0.0109795	-0.0182407	-0.0166633
  53	0.000137127	-0.00546523	0.0053739
  54	-0.0210498	-0.0262408	0.00160731
  55	-0.00140478	-0.0389271	-0.00932439
  56	0.00719469	0.0111288	0.00263973
  57	-0.000601655	0.00765977	0.0103305
  58	0.000467168	0.00529244	0.000345471
  59	0.00871733	-0.00856771	0.000426727
  60	-0.000559425	-0.000885252	0.0030733
  61	-0.00541101	-0.00184989	-0.0174726
  62	0.023791	-0.00675855	0.000828437
  63	0.00257548	-0.0026481	0.00508658
  64	-0.000271486	-0.0177997	-0.000242863
  65	-0.00161304	0.0130207	-0.00609867
  66	-0.000320366	-0.00435375	0.00138273
  67	0.0137506	-0.0276324	0.0204287
  68	-0.000888371	0.000404223	0.00480843
  69	-0.00296253	-0.000675014	-0.00272919
  70	0.00167143	-0.0028213	-0.000904482
  71	0.0146571	0.0148342	-0.00302106
  72	0.0039016	-0.00392702	0.00608549
  73	-0.0106465	-0.00485597	0.00292256
  74	0.00814628	0.00474342	-0.00385396
  75	-0.00150115	0.0109891	0.00904057
  76	0.00666617	-0.0137097	0.0164315
  77	0.00240959	-0.00593227	0.00109326
  78	0.0367741	-0.00534788	0.0144363
  79	-0.0136146	0.00842332	-0.011195
  80	0.00186535	0.0035585	0.00443172
  81	0.0052304	-0.0199168	0.015432
  82	0.0174405	-0.0226911	-0.00135441
  83	0.00522733	0.00212212	0.00734708
  84	0.014613	0.00543579	0.000441152
  85	-0.00327551	0.00947068	0.00556408
  86	0.000259753	-0.00542086	0.00172625
  87	-0.00698208	0.0281523	-0.00841736
  88	0.00906916	-0.00523016	-0.00553039
  89	0.00511525	-0.00118753	0.0045268
  90	0.00998227	0.00692496	-0.00449364
  91	0.0141279	-0.0214861	0.00558335
  92	0.00196917	-0.0102303	0.00653253
  93	0.0186966	-0.0126722	-0.000581548
  94	-0.01536	0.0186152	0.0215127
  95	-0.00345311	0.00499407	0.00242742
  96	0.0193294	-0.0234334	0.003435
  97	-0.0102257	0.00708439	-0.00849562
  98	-0.0014147	0.00206059	-0.0024817
  99	-0.0105814	-0.00654636	0.017629
 100	-0.00907948	0.00605343	-0.00493818
 101	0.00137853	-0.00178726	-0.00241911
 102	-0.000156145	-0.0031932	-0.00381301
 103	0.016154	0.0270436	0.0128206
 104	0.016168	-0.0161495	0.0054974
 105	-0.00365091	0.00446655	0.00100623
 106	0.00183764	0.0074971	-0.00277402
 107	0.000827496	-0.00766046	0.00539499
 108	0.00256711	0.0134689	-0.0145527
 109	-0.0117028	-0.00561819	-0.00322094
 110	0.00106218	0.00584105	0.0097043
 111	-0.00547854	0.00938038	-0.0038216
 112	-0.00636238	-0.00600941	-0.00440426
 113	-0.0206682	-0.00999772	0.00295984
 114	0.00401848	-0.00119014	-0.00785664
 115	0.00344154	0.00623339	-0.00447597
 116	-0.00151413	0.0138321	-0.0132248
 117	-0.00114777	-0.000982288	-0.00904235
 118	0.00421057	-0.00355013	0.00770245
 119	-0.000703951	-0.00207004	0.000302199
 120	0.00117669	-0.00853647	-0.00480027
 121	-0.00596893	-0.000371859	0.00431566
 122	-0.00466027	0.0173388	-0.017686
 123	-0.000782051	-0.00850063	-0.00322531
 124	0.00368455	-0.00947093	-0.00315684
 125	-0.00156213	-0.0209703	0.00310094