pySIMM System Object

514 atoms
513 bonds
956 angles
1400 dihedrals
0 impropers

10 atom types
12 bond types
23 angle types
12 dihedral types
1 improper types

-61.191757 61.191757 xlo xhi
-61.191757 61.191757 ylo yhi
-61.191757 61.191757 zlo zhi

Masses

   1	16.0	# oh
   2	12.01	# c3
   3	1.008	# h1
   4	1.008	# hc
   5	1.008	# ho
   6	14.01	# n3
   7	1.008	# hn
   8	16.0	# o
   9	12.01	# c
  10	1.008	# h4

Pair Coeffs

   1	0.2104	3.0664733878390478	# oh
   2	0.1094	3.3996695084235347	# c3
   3	0.0157	2.471353044121301	# h1
   4	0.0157	2.649532787749369	# hc
   5	0.0047	0.5379246460131368	# ho
   6	0.17	3.249998523775958	# n3
   7	0.0157	1.069078461768407	# hn
   8	0.21	2.959921901149463	# o
   9	0.086	3.3996695084235347	# c
  10	0.015	2.5105525877194763	# h4

Bond Coeffs

   1	316.7	1.4233	# c3,oh
   2	330.6	1.0969	# c3,h1
   3	371.4	0.973	# ho,oh
   4	300.9	1.5375	# c3,c3
   5	330.6	1.0969	# c3,hc
   6	392.4	1.019	# hn,n3
   7	637.7	1.2183	# c,o
   8	325.9	1.4647	# c3,n3
   9	310.7	1.1121	# c,h4
  10	313.0	1.5241	# c,c3
  11	400.1	1.3513	# c,oh
  12	325.9	1.465	# n3,c

Angle Coeffs

   1	39.24	108.46	# h1,c3,h1
   2	62.86	111.51	# c3,c3,c3
   3	67.47	110.19	# c3,c3,oh
   4	46.34	109.8	# c3,c3,hc
   5	39.4	107.58	# hc,c3,hc
   6	50.93	110.26	# h1,c3,oh
   7	47.38	107.26	# c3,oh,ho
   8	46.39	109.56	# c3,c3,h1
   9	62.7	112.48	# c3,oh,c3
  10	51.11	109.5	# hc,c3,oh
  11	66.02	111.04	# c3,c3,n3
  12	45.64	114.64	# c3,c,h4
  13	41.4	106.4	# hn,n3,hn
  14	67.4	123.2	# c3,c,o
  15	47.42	109.29	# c3,n3,hn
  16	63.27	111.04	# c,c3,c3
  17	46.93	108.77	# c,c3,hc
  18	49.53	109.88	# h1,c3,n3
  19	54.22	120.7	# h4,c,o
  20	68.4	112.73	# c3,c,oh
  21	75.92	122.1	# o,c,oh
  22	63.82	112.35	# c3,n3,c3
  23	49.55	109.8	# hc,c3,n3

Dihedral Coeffs

   1	1	0.15555555555555556	3	0	# X,c3,c3,X
   2	2	0.16	3	0	0.25	1	0	# ho,oh,c3,c3
   3	1	0.16	3	0	# hc,c3,c3,c3
   4	1	0.15	3	0	# hc,c3,c3,hc
   5	1	0.16666666666666666	3	0	# X,c3,oh,X
   6	2	0.0	3	0	0.25	1	0	# hc,c3,c3,oh
   7	1	0.3	3	0	# X,c3,n3,X
   8	3	0.18	3	0	0.25	2	180	0.2	1	180	# c3,c3,c3,c3
   9	1	0.0	2	180	# X,c,c3,X
  10	3	0.8	1	0	0.0	2	0	0.08	3	180	# hc,c3,c,o
  11	1	2.3	2	180	# X,c,oh,X
  12	2	0.3	3	0	0.48	2	180	# c3,c3,n3,c3

Improper Coeffs

   1	10.5	-1	2	# c,X,X,o

Atoms

   1	1	1	-0.26285	5.41653	-0.667655	5.23561
   2	1	2	0.431937	4.25139	-1.44172	5.55386
   3	1	2	0.196566	4.49248	-2.90716	5.28016
   4	1	3	-0.176879	3.35432	-1.11626	5.02367
   5	1	3	-0.045056	3.99193	-1.3472	6.62241
   6	1	2	0.080387	4.62963	-3.15299	3.75151
   7	1	4	0.032783	3.62132	-3.4728	5.66085
   8	1	4	-0.126889	5.40637	-3.23097	5.8004
   9	1	4	-0.081548	3.80464	-2.67013	3.22385
  10	1	4	-0.048451	4.6692	-4.23083	3.53166
  11	1	1	-0.26285	7.20767	3.95289	5.22584
  12	1	2	0.431937	6.16096	3.13452	5.82111
  13	1	2	0.196566	6.49438	1.60445	5.52639
  14	1	3	-0.176879	5.22474	3.35819	5.31136
  15	1	3	-0.045056	6.08148	3.27405	6.89877
  16	1	2	0.080387	5.28043	0.669439	5.74301
  17	1	4	0.032783	7.30408	1.2639	6.15625
  18	1	4	-0.126889	6.81991	1.54196	4.45759
  19	1	4	-0.081548	4.40523	1.12694	5.27379
  20	1	4	-0.048451	5.03418	0.654288	6.80948
  21	1	6	-0.353484	10.8448	1.08821	-7.58447
  22	1	2	0.376337	11.1789	1.3165	-6.14514
  23	1	2	-0.897489	10.6195	0.210255	-5.23793
  24	1	3	0.034041	10.6971	2.25552	-5.81551
  25	1	3	0.012328	12.2281	1.46499	-6.02461
  26	1	7	0.229239	9.81864	1.3439	-7.55959
  27	1	2	0.531206	11.0479	0.244924	-3.7447
  28	1	4	0.202592	10.9536	-0.747529	-5.6644
  29	1	4	0.099501	9.52058	0.207363	-5.29421
  30	1	2	0.171725	10.2834	1.34195	-2.90007
  31	1	4	-0.10542	12.1339	0.369667	-3.7178
  32	1	4	-0.137294	10.869	-0.721721	-3.29081
  33	1	2	-0.155467	10.9768	1.76992	-1.57913
  34	1	4	-0.053736	9.25358	1.01115	-2.66995
  35	1	4	0.001015	10.1622	2.22418	-3.54837
  36	1	2	0.033419	10.2254	2.99172	-1.00434
  37	1	4	0.005395	11.9826	2.10697	-1.86571
  38	1	4	0.019028	11.1457	0.928767	-0.870946
  39	1	2	0.058829	10.5722	3.42906	0.444706
  40	1	4	-0.00779	9.12423	2.76154	-1.01162
  41	1	4	-0.029026	10.3711	3.84705	-1.7038
  42	1	2	-0.029357	9.90447	4.84904	0.717662
  43	1	4	-0.003083	11.669	3.45978	0.582687
  44	1	4	-0.010137	10.1661	2.7098	1.18017
  45	1	2	-0.000585	10.0038	5.4571	2.11189
  46	1	4	0.006084	8.83282	4.7768	0.512499
  47	1	4	0.012201	10.2635	5.55087	0.0337749
  48	1	2	-0.03118	8.75234	5.10556	2.91131
  49	1	4	0.011412	10.0586	6.5373	1.99742
  50	1	4	0.011566	10.9051	5.11628	2.62337
  51	1	2	-0.057912	8.70252	5.67372	4.34883
  52	1	4	0.001922	8.65158	3.99519	2.94049
  53	1	4	0.021794	7.90621	5.55156	2.3778
  54	1	8	-0.501673	6.67196	6.12508	5.65861
  55	1	9	0.462	7.38647	5.29904	5.10094
  56	1	4	0.029593	8.835	6.7591	4.31203
  57	1	4	0.042406	9.55212	5.27993	4.92028
  58	1	6	-0.353484	4.40618	4.56051	1.75807
  59	1	2	0.376337	5.23465	3.39169	1.90689
  60	1	2	-0.897489	4.92896	2.44708	0.719658
  61	1	3	0.034041	5.04734	2.92224	2.84923
  62	1	3	0.012328	6.28085	3.69268	1.90992
  63	1	7	0.229239	3.45166	4.31574	1.9504
  64	1	2	0.531206	5.39612	2.95558	-0.654721
  65	1	4	0.202592	3.90393	2.02231	0.763543
  66	1	4	0.099501	5.56977	1.61713	0.894653
  67	1	2	0.171725	4.61512	4.0932	-1.35739
  68	1	4	-0.10542	5.27642	2.11118	-1.3885
  69	1	4	-0.137294	6.44765	3.16799	-0.492615
  70	1	2	-0.155467	5.22802	4.49091	-2.72392
  71	1	4	-0.053736	4.57833	4.98564	-0.718369
  72	1	4	0.001015	3.58051	3.75586	-1.48769
  73	1	2	0.033419	6.72937	4.25744	-3.0596
  74	1	4	0.005395	4.91306	5.53392	-2.95279
  75	1	4	0.019028	4.66991	3.89435	-3.43274
  76	1	2	0.058829	7.08486	4.46277	-4.52746
  77	1	4	-0.00779	7.08398	3.2698	-2.68696
  78	1	4	-0.029026	7.33187	4.99465	-2.52599
  79	1	2	-0.029357	6.55864	3.39084	-5.49355
  80	1	4	-0.003083	8.1801	4.58265	-4.70035
  81	1	4	-0.010137	6.63636	5.41868	-4.84313
  82	1	2	-0.000585	7.16776	3.40634	-6.89317
  83	1	4	0.006084	5.46703	3.40212	-5.56078
  84	1	4	0.012201	6.82689	2.41511	-5.01448
  85	1	2	-0.03118	7.15003	1.98746	-7.50596
  86	1	4	0.011412	8.18632	3.7843	-6.75229
  87	1	4	0.011566	6.65005	4.11315	-7.54782
  88	1	2	-0.057912	8.19313	1.71408	-8.58176
  89	1	4	0.001922	6.17069	1.85681	-8.03022
  90	1	4	0.021794	7.25748	1.21365	-6.74951
  91	1	8	-0.501673	10.3901	0.887675	-8.84048
  92	1	9	0.462	9.49951	1.188	-8.06408
  93	1	4	0.029593	8.36544	2.60152	-9.16816
  94	1	4	0.042406	7.83639	0.96772	-9.26596
  95	1	1	-0.26285	4.36322	8.49193	2.50166
  96	1	2	0.431937	3.88365	7.83457	3.67845
  97	1	2	0.196566	3.68589	6.34723	3.3261
  98	1	3	-0.176879	2.89343	8.25012	3.9757
  99	1	3	-0.045056	4.6173	7.939	4.51724
 100	1	2	0.080387	4.85478	5.65538	2.62137
 101	1	4	0.032783	2.81037	6.28395	2.68795
 102	1	4	-0.126889	3.38583	5.81076	4.25868
 103	1	4	-0.081548	5.5478	5.32216	3.37957
 104	1	4	-0.048451	5.46998	6.29322	2.0122
 105	1	6	-0.353484	0.302576	19.4348	-2.39202
 106	1	2	0.376337	1.50505	19.4103	-3.21624
 107	1	2	-0.897489	1.63174	18.061	-3.93915
 108	1	3	0.034041	2.39698	19.562	-2.56194
 109	1	3	0.012328	1.55838	20.213	-3.94853
 110	1	7	0.229239	-0.553545	19.3721	-2.93934
 111	1	2	0.531206	2.99692	17.9074	-4.57897
 112	1	4	0.202592	0.89181	17.883	-4.68061
 113	1	4	0.099501	1.44951	17.2671	-3.23942
 114	1	2	0.171725	4.21423	17.5798	-3.714
 115	1	4	-0.10542	3.19564	18.8121	-5.11109
 116	1	4	-0.137294	2.94975	17.2013	-5.41848
 117	1	2	-0.155467	4.24774	16.0738	-3.3323
 118	1	4	-0.053736	4.23248	18.2282	-2.79873
 119	1	4	0.001015	5.13352	17.8801	-4.21605
 120	1	2	0.033419	5.65798	15.5678	-2.75123
 121	1	4	0.005395	4.01366	15.4617	-4.22014
 122	1	4	0.019028	3.42322	15.8117	-2.65049
 123	1	2	0.058829	5.88163	14.1287	-2.33522
 124	1	4	-0.00779	5.95696	16.1647	-1.88354
 125	1	4	-0.029026	6.44222	15.7898	-3.51409
 126	1	2	-0.029357	5.17933	13.6123	-1.02184
 127	1	4	-0.003083	6.99692	13.9257	-2.20004
 128	1	4	-0.010137	5.56573	13.5649	-3.20743
 129	1	2	-0.000585	5.24457	12.102	-0.800216
 130	1	4	0.006084	4.0966	13.7946	-1.06913
 131	1	4	0.012201	5.46045	14.1073	-0.076621
 132	1	2	-0.03118	4.83234	11.7475	0.621011
 133	1	4	0.011412	6.33605	11.8109	-0.817875
 134	1	4	0.011566	4.75504	11.536	-1.58727
 135	1	2	-0.057912	4.79124	10.1623	0.853481
 136	1	4	0.001922	3.82552	12.2388	0.799363
 137	1	4	0.021794	5.54331	12.225	1.32754
 138	1	8	-0.501673	3.51282	10.5422	2.92533
 139	1	9	0.462	4.23735	9.83985	2.25146
 140	1	4	0.029593	5.79487	9.69831	0.75232
 141	1	4	0.042406	4.19929	9.64688	0.0444999
 142	1	6	-0.353484	-4.5544	18.5648	-7.97481
 143	1	2	0.376337	-5.75824	19.1957	-8.60208
 144	1	2	-0.897489	-7.07189	18.5992	-7.96383
 145	1	3	0.034041	-5.75622	19.0464	-9.5932
 146	1	3	0.012328	-5.6801	20.2489	-8.49723
 147	1	7	0.229239	-4.84694	17.7821	-7.52059
 148	1	2	0.531206	-7.2004	18.6251	-6.40174
 149	1	4	0.202592	-7.12286	17.5548	-8.3279
 150	1	4	0.099501	-7.95996	19.15	-8.36287
 151	1	2	0.171725	-8.28192	17.583	-5.9416
 152	1	4	-0.10542	-7.52193	19.6463	-6.05801
 153	1	4	-0.137294	-6.24102	18.559	-5.93801
 154	1	2	-0.155467	-8.17735	17.4416	-4.40101
 155	1	4	-0.053736	-8.06545	16.6492	-6.4581
 156	1	4	0.001015	-9.307	17.9314	-6.20302
 157	1	2	0.033419	-6.87759	16.7762	-3.87039
 158	1	4	0.005395	-8.98094	16.7831	-4.03344
 159	1	4	0.019028	-8.29463	18.4142	-3.93344
 160	1	2	0.058829	-6.71054	16.7657	-2.35217
 161	1	4	-0.00779	-5.96056	17.2997	-4.19715
 162	1	4	-0.029026	-6.74558	15.7442	-4.34373
 163	1	2	-0.029357	-5.70575	17.7388	-1.69519
 164	1	4	-0.003083	-6.36311	15.7908	-2.11313
 165	1	4	-0.010137	-7.72125	16.7654	-1.90491
 166	1	2	-0.000585	-4.24981	17.1393	-1.68032
 167	1	4	0.006084	-5.98203	18.142	-0.71096
 168	1	4	0.012201	-5.74489	18.6298	-2.29081
 169	1	2	-0.03118	-3.1933	18.224	-1.32801
 170	1	4	0.011412	-4.02329	16.7434	-2.68205
 171	1	4	0.011566	-4.10593	16.2362	-1.04537
 172	1	2	-0.057912	-1.74378	17.6963	-1.65121
 173	1	4	0.001922	-3.19421	18.4519	-0.259062
 174	1	4	0.021794	-3.43423	19.0799	-1.97667
 175	1	8	-0.501673	-0.755771	19.8953	-1.38256
 176	1	9	0.462	-0.576325	18.6833	-1.51982
 177	1	4	0.029593	-1.70569	17.3055	-2.68889
 178	1	4	0.042406	-1.46831	16.8247	-1.09713
 179	1	6	-0.353484	3.48044	6.22724	-5.3212
 180	1	2	0.376337	3.51436	7.68193	-5.26007
 181	1	2	-0.897489	2.51686	8.23065	-4.22027
 182	1	3	0.034041	3.3311	8.14691	-6.26798
 183	1	3	0.012328	4.54576	7.93237	-4.94576
 184	1	7	0.229239	4.0465	5.98881	-6.16242
 185	1	2	0.531206	2.30234	9.7442	-4.32675
 186	1	4	0.202592	2.83748	7.94364	-3.2093
 187	1	4	0.099501	1.56415	7.72798	-4.46869
 188	1	2	0.171725	1.23992	10.2785	-3.31833
 189	1	4	-0.10542	1.91618	9.86175	-5.33094
 190	1	4	-0.137294	3.27654	10.2576	-4.27308
 191	1	2	-0.155467	1.21431	11.8452	-3.1098
 192	1	4	-0.053736	1.39131	9.77349	-2.31845
 193	1	4	0.001015	0.234565	9.97764	-3.66016
 194	1	2	0.033419	0.89751	12.7246	-4.3314
 195	1	4	0.005395	2.19118	12.1257	-2.71571
 196	1	4	0.019028	0.517709	12.0744	-2.35816
 197	1	2	0.058829	-0.558042	12.8208	-4.67262
 198	1	4	-0.00779	1.50909	12.4448	-5.18166
 199	1	4	-0.029026	1.28044	13.7363	-4.19056
 200	1	2	-0.029357	-0.846257	13.8329	-5.85331
 201	1	4	-0.003083	-1.09367	13.1707	-3.73661
 202	1	4	-0.010137	-1.00023	11.8641	-4.99192
 203	1	2	-0.000585	-2.17717	14.5414	-5.65328
 204	1	4	0.006084	-0.858642	13.228	-6.7687
 205	1	4	0.012201	-0.0601032	14.6225	-5.9172
 206	1	2	-0.03118	-2.76416	15.3021	-6.84824
 207	1	4	0.011412	-1.91888	15.2622	-4.82778
 208	1	4	0.011566	-2.93111	13.8531	-5.12947
 209	1	2	-0.057912	-3.98353	16.1363	-6.42208
 210	1	4	0.001922	-2.94609	14.5835	-7.68343
 211	1	4	0.021794	-1.92991	15.9286	-7.16289
 212	1	8	-0.501673	-3.80828	17.2488	-8.61498
 213	1	9	0.462	-4.33995	17.1805	-7.52939
 214	1	4	0.029593	-3.77055	16.67	-5.4822
 215	1	4	0.042406	-4.91363	15.5525	-6.22064
 216	1	6	-0.353484	6.68942	-7.68767	-4.21392
 217	1	2	0.376337	7.41319	-6.47228	-4.54636
 218	1	2	-0.897489	6.39928	-5.39825	-4.23495
 219	1	3	0.034041	7.69945	-6.42731	-5.61913
 220	1	3	0.012328	8.31315	-6.34966	-3.88028
 221	1	7	0.229239	5.83308	-7.6358	-4.70563
 222	1	2	0.531206	6.42675	-4.15617	-5.14312
 223	1	4	0.202592	6.42504	-5.04556	-3.12196
 224	1	4	0.099501	5.36935	-5.81561	-4.28109
 225	1	2	0.171725	5.1628	-3.29516	-4.99659
 226	1	4	-0.10542	6.60776	-4.52086	-6.18168
 227	1	4	-0.137294	7.29037	-3.55107	-4.96395
 228	1	2	-0.155467	5.29857	-2.01324	-5.77501
 229	1	4	-0.053736	5.06805	-3.12563	-3.91717
 230	1	4	0.001015	4.26632	-3.87856	-5.30249
 231	1	2	0.033419	3.94832	-1.22297	-6.06026
 232	1	4	0.005395	5.82384	-2.26568	-6.75271
 233	1	4	0.019028	6.03598	-1.38245	-5.2566
 234	1	2	0.058829	4.23131	0.280478	-6.2064
 235	1	4	-0.00779	3.26042	-1.46544	-5.29192
 236	1	4	-0.029026	3.51016	-1.56461	-7.00314
 237	1	2	-0.029357	2.93852	1.18857	-6.18725
 238	1	4	-0.003083	4.80871	0.399065	-7.12064
 239	1	4	-0.010137	4.88419	0.644685	-5.36633
 240	1	2	-0.000585	2.85152	2.16438	-7.41343
 241	1	4	0.006084	2.88026	1.69266	-5.23554
 242	1	4	0.012201	2.05418	0.533221	-6.26171
 243	1	2	-0.03118	1.81164	3.31506	-7.26436
 244	1	4	0.011412	2.61776	1.50209	-8.28292
 245	1	4	0.011566	3.80813	2.59733	-7.62597
 246	1	2	-0.057912	2.01898	4.42798	-6.13077
 247	1	4	0.001922	0.776227	2.88713	-7.31611
 248	1	4	0.021794	1.92294	3.81999	-8.25968
 249	1	8	-0.501673	3.41807	5.79051	-7.5736
 250	1	9	0.462	2.94942	5.59412	-6.50094
 251	1	4	0.029593	2.1792	3.94312	-5.14817
 252	1	4	0.042406	1.05754	4.91995	-6.04603
 253	1	1	-0.26285	5.13002	-9.25866	-2.10733
 254	1	2	0.431937	6.26278	-10.0262	-2.33807
 255	1	2	0.196566	6.70247	-10.1393	-3.77062
 256	1	3	-0.176879	6.0889	-11.0815	-2.01409
 257	1	3	-0.045056	7.07788	-9.57455	-1.74591
 258	1	2	0.080387	7.47861	-8.93551	-4.34905
 259	1	4	0.032783	5.84753	-10.3304	-4.40279
 260	1	4	-0.126889	7.28117	-11.0693	-3.85947
 261	1	4	-0.081548	7.71376	-9.18696	-5.40803
 262	1	4	-0.048451	8.39365	-8.80803	-3.78806
 263	1	1	-0.26285	3.85082	-5.22435	-0.489791
 264	1	2	0.431937	4.60203	-6.30272	-0.0613406
 265	1	2	0.196566	4.0238	-7.59703	-0.678567
 266	1	3	-0.176879	4.56963	-6.31606	1.06421
 267	1	3	-0.045056	5.65432	-6.20327	-0.438304
 268	1	2	0.080387	4.93322	-8.89461	-0.677993
 269	1	4	0.032783	3.96519	-7.40396	-1.79572
 270	1	4	-0.126889	3.00301	-7.80761	-0.317811
 271	1	4	-0.081548	4.49686	-9.71628	-0.194103
 272	1	4	-0.048451	5.9477	-8.64558	-0.253988
 273	1	6	-0.353484	13.876	-0.286229	0.984026
 274	1	2	0.376337	13.6507	-0.811097	2.35945
 275	1	2	-0.897489	12.3504	-0.261362	2.8703
 276	1	3	0.034041	14.4563	-0.589775	3.08657
 277	1	3	0.012328	13.5579	-1.94294	2.42857
 278	1	7	0.229239	13.1123	-0.670172	0.377073
 279	1	2	0.531206	11.1985	-1.05359	2.19141
 280	1	4	0.202592	12.1095	0.817514	2.61909
 281	1	4	0.099501	12.3287	-0.393801	3.9647
 282	1	2	0.171725	9.78497	-0.65212	2.74966
 283	1	4	-0.10542	11.4345	-2.11106	2.31171
 284	1	4	-0.137294	11.1997	-0.797699	1.11207
 285	1	2	-0.155467	8.6163	-1.20721	1.87881
 286	1	4	-0.053736	9.76879	0.481366	2.73708
 287	1	4	0.001015	9.75097	-1.0051	3.73824
 288	1	2	0.033419	8.24398	-0.343354	0.594285
 289	1	4	0.005395	7.67512	-1.33144	2.45594
 290	1	4	0.019028	8.93495	-2.21817	1.53039
 291	1	2	0.058829	7.47207	-1.18361	-0.488625
 292	1	4	-0.00779	9.2363	0.0251301	0.236141
 293	1	4	-0.029026	7.72803	0.608269	0.822474
 294	1	2	-0.029357	6.0098	-1.45883	-0.0389911
 295	1	4	-0.003083	8.00624	-2.12673	-0.697147
 296	1	4	-0.010137	7.49862	-0.63231	-1.4433
 297	1	2	-0.000585	4.99326	-2.12946	-1.07413
 298	1	4	0.006084	5.54727	-0.499637	0.298608
 299	1	4	0.012201	6.00686	-2.10128	0.817984
 300	1	2	-0.03118	3.56454	-2.19234	-0.444088
 301	1	4	0.011412	5.43101	-3.08272	-1.30445
 302	1	4	0.011566	4.98671	-1.60743	-1.98932
 303	1	2	-0.057912	2.62326	-3.25135	-1.05486
 304	1	4	0.001922	3.10767	-1.20335	-0.502063
 305	1	4	0.021794	3.65885	-2.45315	0.586145
 306	1	8	-0.501673	3.26735	-4.89382	-2.66077
 307	1	9	0.462	3.29092	-4.50181	-1.51594
 308	1	4	0.029593	2.15834	-2.74308	-1.92179
 309	1	4	0.042406	1.8516	-3.54952	-0.334257
 310	1	1	-0.26285	14.5115	-2.118	-2.2595
 311	1	2	0.431937	14.4374	-0.690519	-2.10092
 312	1	2	0.196566	15.4217	-0.353583	-1.03455
 313	1	3	-0.176879	13.4404	-0.347069	-1.87974
 314	1	3	-0.045056	14.7031	-0.164294	-2.97224
 315	1	2	0.080387	15.1245	-0.773154	0.401479
 316	1	4	0.032783	15.5521	0.765093	-1.09978
 317	1	4	-0.126889	16.3543	-0.840087	-1.28526
 318	1	4	-0.081548	16.0084	-0.402745	0.954599
 319	1	4	-0.048451	15.0291	-1.86486	0.363522
 320	1	1	-0.26285	11.0806	-3.63068	-0.401438
 321	1	2	0.431937	11.7236	-2.82986	-1.32248
 322	1	2	0.196566	12.5489	-3.61092	-2.25567
 323	1	3	-0.176879	12.351	-2.09137	-0.788917
 324	1	3	-0.045056	10.9244	-2.28156	-1.88252
 325	1	2	0.080387	13.5755	-2.75512	-3.14252
 326	1	4	0.032783	11.9487	-4.22311	-2.86375
 327	1	4	-0.126889	13.0898	-4.38895	-1.69726
 328	1	4	-0.081548	13.121	-1.97875	-3.71464
 329	1	4	-0.048451	14.0055	-3.50033	-3.8326
 330	1	6	-0.353484	21.0256	-8.78851	0.456626
 331	1	2	0.376337	20.1204	-8.4972	1.61197
 332	1	2	-0.897489	20.7695	-7.45036	2.58679
 333	1	3	0.034041	20.1506	-9.50709	2.05831
 334	1	3	0.012328	19.1277	-8.24296	1.29743
 335	1	7	0.229239	20.4134	-9.18356	-0.258725
 336	1	2	0.531206	20.1015	-7.60924	4.03013
 337	1	4	0.202592	20.5579	-6.42216	2.24431
 338	1	4	0.099501	21.8909	-7.635	2.70353
 339	1	2	0.171725	18.9464	-6.59618	4.26911
 340	1	4	-0.10542	20.8328	-7.47895	4.7371
 341	1	4	-0.137294	19.7764	-8.73983	4.11095
 342	1	2	-0.155467	17.6273	-6.94828	3.61258
 343	1	4	-0.053736	19.3076	-5.56499	4.03603
 344	1	4	0.001015	18.7945	-6.65957	5.3449
 345	1	2	0.033419	16.5415	-5.84378	3.71071
 346	1	4	0.005395	17.3203	-7.90172	3.97341
 347	1	4	0.019028	17.7969	-7.15372	2.53296
 348	1	2	0.058829	15.2581	-6.1063	2.86603
 349	1	4	-0.00779	16.9259	-4.89117	3.21102
 350	1	4	-0.029026	16.2382	-5.6612	4.73931
 351	1	2	-0.029357	14.1242	-6.64488	3.73712
 352	1	4	-0.003083	15.4737	-6.86669	2.1405
 353	1	4	-0.010137	14.9588	-5.18114	2.29628
 354	1	2	-0.000585	12.8921	-6.80771	2.85595
 355	1	4	0.006084	13.9293	-5.97843	4.6121
 356	1	4	0.012201	14.4245	-7.5965	4.09186
 357	1	2	-0.03118	12.2676	-5.49692	2.27853
 358	1	4	0.011412	12.0989	-7.36736	3.36409
 359	1	4	0.011566	13.2076	-7.36925	1.97241
 360	1	2	-0.057912	11.6653	-5.67065	0.878008
 361	1	4	0.001922	12.9747	-4.62698	2.13243
 362	1	4	0.021794	11.5061	-5.04765	3.05502
 363	1	8	-0.501673	9.48067	-4.69444	0.591509
 364	1	9	0.462	10.6915	-4.57377	0.440768
 365	1	4	0.029593	11.0952	-6.59649	0.899258
 366	1	4	0.042406	12.3396	-5.87728	0.0529347
 367	1	6	-0.353484	15.2111	1.86893	-6.36204
 368	1	2	0.376337	15.0115	0.651583	-5.58564
 369	1	2	-0.897489	15.755	-0.547407	-6.22461
 370	1	3	0.034041	13.9666	0.527057	-5.47004
 371	1	3	0.012328	15.4594	0.866767	-4.5924
 372	1	7	0.229239	16.1374	1.80938	-6.77212
 373	1	2	0.531206	16.1216	-1.54803	-5.13242
 374	1	4	0.202592	16.6982	-0.247687	-6.75727
 375	1	4	0.099501	15.1657	-1.11406	-6.9818
 376	1	2	0.171725	16.6476	-2.96725	-5.36354
 377	1	4	-0.10542	15.2488	-1.59369	-4.51578
 378	1	4	-0.137294	16.7835	-0.950644	-4.5054
 379	1	2	-0.155467	17.9578	-2.81211	-5.98065
 380	1	4	-0.053736	15.9905	-3.46635	-6.08689
 381	1	4	0.001015	16.6727	-3.53349	-4.43679
 382	1	2	0.033419	18.6391	-4.21524	-6.01814
 383	1	4	0.005395	18.6742	-2.14798	-5.46192
 384	1	4	0.019028	17.9133	-2.46599	-7.0823
 385	1	2	0.058829	19.3376	-4.83094	-4.71727
 386	1	4	-0.00779	19.5218	-3.99722	-6.65525
 387	1	4	-0.029026	18.0026	-4.87775	-6.60631
 388	1	2	-0.029357	19.8051	-3.90311	-3.54518
 389	1	4	-0.003083	20.1458	-5.46089	-5.1817
 390	1	4	-0.010137	18.6447	-5.5452	-4.2424
 391	1	2	-0.000585	20.8194	-4.50718	-2.50827
 392	1	4	0.006084	18.9183	-3.59109	-3.0222
 393	1	4	0.012201	20.2374	-2.92747	-3.81679
 394	1	2	-0.03118	20.3589	-5.84333	-1.84865
 395	1	4	0.011412	21.0923	-3.79601	-1.73216
 396	1	4	0.011566	21.7776	-4.68522	-2.98135
 397	1	2	-0.057912	21.5056	-6.41155	-1.02454
 398	1	4	0.001922	20.0565	-6.52634	-2.68147
 399	1	4	0.021794	19.5047	-5.66966	-1.20208
 400	1	8	-0.501673	21.9865	-8.8658	-0.485839
 401	1	9	0.462	21.2	-7.8982	-0.640916
 402	1	4	0.029593	21.6358	-5.7278	-0.0979663
 403	1	4	0.042406	22.384	-6.34834	-1.68933
 404	1	6	-0.353484	10.6765	5.47556	-15.4269
 405	1	2	0.376337	10.3298	4.14009	-15.7956
 406	1	2	-0.897489	11.5249	3.15178	-15.6238
 407	1	3	0.034041	10.1002	4.27764	-16.8249
 408	1	3	0.012328	9.46211	3.81284	-15.1688
 409	1	7	0.229239	11.2262	5.54724	-14.5453
 410	1	2	0.531206	12.7068	3.53034	-16.4235
 411	1	4	0.202592	11.2035	2.16155	-15.9691
 412	1	4	0.099501	11.9052	3.04131	-14.5655
 413	1	2	0.171725	13.9109	2.55187	-16.5396
 414	1	4	-0.10542	13.1755	4.47318	-16.0447
 415	1	4	-0.137294	12.3757	3.83657	-17.3479
 416	1	2	-0.155467	15.0639	2.74499	-15.6084
 417	1	4	-0.053736	14.2418	2.46927	-17.6302
 418	1	4	0.001015	13.3681	1.58645	-16.3643
 419	1	2	0.033419	14.932	2.48192	-14.0806
 420	1	4	0.005395	15.4429	3.7977	-15.7719
 421	1	4	0.019028	15.9399	2.14218	-16.0257
 422	1	2	0.058829	14.1689	1.11927	-13.6894
 423	1	4	-0.00779	14.4291	3.24582	-13.598
 424	1	4	-0.029026	15.9944	2.55065	-13.6766
 425	1	2	-0.029357	14.4896	0.681917	-12.2702
 426	1	4	-0.003083	14.5555	0.290761	-14.354
 427	1	4	-0.010137	13.128	1.39644	-13.9381
 428	1	2	-0.000585	13.6975	1.49207	-11.1769
 429	1	4	0.006084	15.5152	0.849392	-12.1085
 430	1	4	0.012201	14.3441	-0.385472	-12.2791
 431	1	2	-0.03118	14.1516	1.24974	-9.77987
 432	1	4	0.011412	12.6604	1.31906	-11.1499
 433	1	4	0.011566	13.8999	2.56216	-11.3995
 434	1	2	-0.057912	13.9656	2.49643	-8.90318
 435	1	4	0.001922	15.1765	0.992013	-9.78123
 436	1	4	0.021794	13.644	0.49332	-9.23259
 437	1	8	-0.501673	15.0342	3.05448	-6.84967
 438	1	9	0.462	14.3235	2.30181	-7.45104
 439	1	4	0.029593	12.9395	2.87209	-8.97856
 440	1	4	0.042406	14.5461	3.32812	-9.33334
 441	1	6	-0.353484	9.10753	15.046	-8.04494
 442	1	2	0.376337	9.85625	13.9977	-8.70102
 443	1	2	-0.897489	11.3156	14.4021	-8.71033
 444	1	3	0.034041	9.58637	13.9294	-9.78001
 445	1	3	0.012328	9.58902	13.046	-8.24432
 446	1	7	0.229239	9.4873	15.9902	-8.29744
 447	1	2	0.531206	12.1495	13.1007	-9.05526
 448	1	4	0.202592	11.6768	14.6291	-7.65912
 449	1	4	0.099501	11.5667	15.1391	-9.46398
 450	1	2	0.171725	12.0725	12.1422	-7.86518
 451	1	4	-0.10542	13.13	13.3149	-9.27118
 452	1	4	-0.137294	11.6786	12.7648	-9.94094
 453	1	2	-0.155467	12.9112	10.8641	-7.98604
 454	1	4	-0.053736	11.059	11.9907	-7.59172
 455	1	4	0.001015	12.6009	12.6466	-7.06959
 456	1	2	0.033419	12.6608	9.8249	-9.04843
 457	1	4	0.005395	12.6911	10.3466	-7.03565
 458	1	4	0.019028	13.9066	11.318	-8.05722
 459	1	2	0.058829	11.285	9.06543	-9.06655
 460	1	4	-0.00779	13.4576	9.15549	-9.00336
 461	1	4	-0.029026	12.8038	10.2627	-10.0726
 462	1	2	-0.029357	11.2904	8.1841	-10.3113
 463	1	4	-0.003083	10.5252	9.87113	-9.19226
 464	1	4	-0.010137	11.0861	8.39399	-8.16117
 465	1	2	-0.000585	10.2358	7.05123	-10.437
 466	1	4	0.006084	12.2895	7.72129	-10.4553
 467	1	4	0.012201	11.091	8.83866	-11.1899
 468	1	2	-0.03118	9.97686	6.73312	-11.9386
 469	1	4	0.011412	9.31923	7.42172	-9.99834
 470	1	4	0.011566	10.5448	6.03324	-9.93198
 471	1	2	-0.057912	11.2083	6.17868	-12.634
 472	1	4	0.001922	9.58299	7.60249	-12.5015
 473	1	4	0.021794	9.20541	5.99522	-12.0773
 474	1	8	-0.501673	10.5692	6.88409	-14.9041
 475	1	9	0.462	10.9616	6.01934	-14.0951
 476	1	4	0.029593	11.5694	5.24471	-12.1872
 477	1	4	0.042406	12.0844	6.81294	-12.456
 478	1	6	-0.353484	14.5625	11.1916	1.17285
 479	1	2	0.376337	13.1815	11.3075	0.687489
 480	1	2	-0.897489	12.7052	10.067	-0.123235
 481	1	3	0.034041	13.2222	12.2084	0.0312799
 482	1	3	0.012328	12.4534	11.4272	1.46883
 483	1	7	0.229239	14.5644	10.4317	1.84664
 484	1	2	0.531206	11.3867	10.077	-0.988779
 485	1	4	0.202592	12.6837	9.29123	0.58653
 486	1	4	0.099501	13.5348	9.72539	-0.819265
 487	1	2	0.171725	11.3874	10.9669	-2.19482
 488	1	4	-0.10542	10.5618	10.2826	-0.247126
 489	1	4	-0.137294	11.2173	9.01827	-1.33152
 490	1	2	-0.155467	10.0773	10.9368	-2.95063
 491	1	4	-0.053736	12.2516	10.7008	-2.82693
 492	1	4	0.001015	11.5813	11.9672	-1.72652
 493	1	2	0.033419	9.99904	11.9085	-4.19128
 494	1	4	0.005395	9.23522	11.3146	-2.35275
 495	1	4	0.019028	9.81296	9.93304	-3.20517
 496	1	2	0.058829	9.97817	13.3972	-3.81718
 497	1	4	-0.00779	9.11563	11.4876	-4.69653
 498	1	4	-0.029026	10.711	11.6397	-4.96285
 499	1	2	-0.029357	9.89352	14.4025	-5.00182
 500	1	4	-0.003083	10.8305	13.6107	-3.23763
 501	1	4	-0.010137	9.14366	13.5649	-3.15121
 502	1	2	-0.000585	10.0189	15.9552	-4.69968
 503	1	4	0.006084	8.98308	14.1295	-5.50198
 504	1	4	0.012201	10.6272	14.127	-5.75669
 505	1	2	-0.03118	10.4341	16.9877	-5.76805
 506	1	4	0.011412	10.8392	16.0543	-3.93901
 507	1	4	0.011566	9.10462	16.3416	-4.18027
 508	1	2	-0.057912	9.32234	17.5052	-6.69394
 509	1	4	0.001922	11.2145	16.6247	-6.43075
 510	1	4	0.021794	10.9582	17.8023	-5.26533
 511	1	8	-0.501673	7.75597	15.8203	-7.703
 512	1	9	0.462	8.84762	16.3787	-7.66138
 513	1	4	0.029593	9.72988	18.3102	-7.30399
 514	1	4	0.042406	8.51581	17.9488	-6.10997

Velocities

   1	0.00110543	0.00113883	0.00346868
   2	0.00299618	0.00297146	-0.00106405
   3	0.00298511	0.00267185	-0.00438241
   4	0.00463618	-0.00827669	-0.00562977
   5	-0.00689161	-0.00245208	0.000455201
   6	0.000901998	-0.00365472	-0.00184919
   7	-0.0087083	-0.000763171	-0.0137938
   8	0.0107073	0.00353184	-0.00792412
   9	0.00857724	0.0078566	0.00520783
  10	-0.00471774	0.000174774	-0.00199987
  11	0.003507	-0.00051607	-0.0076864
  12	0.00203482	-0.000987313	-0.00529677
  13	0.00628723	0.00200612	-0.00627317
  14	-0.00817355	-0.000447835	-0.0170837
  15	-0.00717168	0.00872853	0.00430273
  16	0.00450247	0.00287597	-0.000612709
  17	0.00487904	0.00932773	0.00545985
  18	0.00553474	-0.00933903	-0.00735862
  19	-0.000720472	-0.00103549	-0.0096588
  20	-0.00382476	0.00930534	-0.00442116
  21	-0.00130108	-0.00712795	0.000247385
  22	-0.0137746	-0.00231649	-0.00592293
  23	-0.00370142	-0.00157198	0.00131495
  24	-0.00936353	0.014752	-0.00821959
  25	0.00285457	0.00721364	-0.00195367
  26	0.00345513	0.0222304	-0.0169646
  27	-0.00293583	-0.00212043	0.000774894
  28	0.00221372	0.00666904	-0.00048358
  29	-0.00570061	0.00854534	0.00985505
  30	-0.00177352	6.47744e-05	-0.00324604
  31	0.003237	-0.0107138	0.00684629
  32	-0.00323831	0.00552088	-0.00343597
  33	0.00377846	0.00513804	-0.000924639
  34	0.00242159	0.00108883	0.00384597
  35	0.00359601	-0.0119914	-0.00379133
  36	0.00468805	0.000310325	-0.00511854
  37	0.00248916	0.0146408	0.00689778
  38	-0.00465088	-0.000371551	0.00149526
  39	0.00362538	-0.00157161	-0.000687325
  40	0.0111306	0.00450014	0.00328744
  41	0.00920895	0.0135116	0.00775209
  42	-0.00259738	0.000229811	0.000496331
  43	0.0122511	0.012266	-0.000630221
  44	0.00154248	-0.00921116	-0.00944893
  45	0.00782937	0.00863756	0.00253616
  46	0.00185603	-0.00659763	-0.00100845
  47	-0.00539262	-0.00180443	0.017427
  48	0.00267111	0.00249823	0.00417082
  49	-0.00198913	0.0217466	-0.00250566
  50	-0.00559092	0.00904292	-0.0121907
  51	0.00318642	0.00544609	0.000847446
  52	-0.00117395	0.00683412	0.00848339
  53	0.00308833	-0.00184847	0.00347544
  54	0.00448539	0.00423605	-0.00673498
  55	0.00301911	0.000480043	-0.00314202
  56	-0.0162619	0.014711	-0.0114956
  57	-0.00420651	0.0210309	0.00456822
  58	-0.00253728	0.00744986	-0.00430532
  59	0.00222547	0.00308622	0.00476165
  60	0.00335473	-0.00567188	0.00300453
  61	0.00483085	0.00907637	-0.00159495
  62	0.001128	0.00458943	0.0286414
  63	0.015824	0.00181449	0.0213162
  64	0.00658921	-0.00202173	0.000578008
  65	0.000105274	-0.0128601	-0.00864671
  66	0.00315255	0.00588568	0.00140938
  67	-0.000518608	-0.00625756	-0.000394673
  68	0.00983034	0.00190985	0.00168848
  69	0.0135815	0.0103276	0.00230134
  70	-0.00549445	-0.002651	0.00196536
  71	-0.0111213	-0.00723796	-0.00482565
  72	0.0133336	-0.00860225	0.00597271
  73	0.00205352	-0.000689659	0.000128613
  74	-0.0122927	-0.010525	0.0146458
  75	0.0010594	0.00707486	-0.0149498
  76	0.0060477	0.00159717	0.00639955
  77	0.0066854	0.00426812	0.0145587
  78	-0.00774217	0.00868665	0.0161594
  79	0.00321451	0.00313167	0.000726998
  80	0.007365	0.00497408	0.0166373
  81	8.96331e-05	0.0057119	0.00829142
  82	-0.00560892	0.00102865	0.00113399
  83	0.00508597	-0.000198286	0.00177489
  84	0.02822	0.0196793	0.010903
  85	-0.00763727	-0.00124311	0.000338434
  86	0.00146057	-0.0015913	0.00672046
  87	-0.0203745	-0.00130028	0.00490873
  88	-0.00220689	0.00105448	0.00224279
  89	-0.00617635	0.011854	-0.00200965
  90	-0.0104221	-0.00219895	0.00355507
  91	0.00221582	0.00435932	-0.00188378
  92	-0.000217922	-0.00103863	-0.00149703
  93	0.00754761	-0.000326842	0.00840608
  94	-0.0134441	0.0133029	0.000142604
  95	0.000416372	0.0127356	0.0118862
  96	0.00949817	0.000299666	0.00794741
  97	0.00238925	0.00981999	-0.000198408
  98	0.00724599	0.00912335	0.0140847
  99	-0.00652698	-0.00106596	0.0152141
 100	0.00236868	0.00251412	-0.000599626
 101	0.00160065	0.0107855	0.00377282
 102	0.0120497	0.0314466	0.0256328
 103	0.0175551	0.00364137	-0.00760941
 104	7.01714e-05	0.0150372	-0.0148636
 105	-0.00530546	-0.00441805	-0.00381831
 106	0.000105366	-0.00155474	-0.00595214
 107	0.00568067	9.4837e-05	0.00047561
 108	0.0214584	-0.0210847	0.00878736
 109	0.0151021	0.00287553	-0.01681
 110	-0.0135024	0.022729	-0.00824223
 111	0.0057154	0.00500644	0.00687013
 112	0.0115945	0.00691135	-0.0114964
 113	0.00147779	0.0120582	-0.000217622
 114	0.0021734	0.00576406	0.00700357
 115	0.00460671	0.0106221	0.0145664
 116	-0.0103428	0.00268	-0.015731
 117	-0.00191729	-0.00273882	-0.00304758
 118	-0.00146632	0.0113259	0.0169502
 119	0.00489887	0.0156285	0.0192715
 120	0.00232576	0.00219742	0.000337252
 121	0.0114108	0.000438102	0.00168793
 122	0.0182848	-0.00219489	0.00296018
 123	-0.00056319	0.00413563	-0.0075519
 124	0.00664382	0.0046853	-0.0129859
 125	-0.00730802	-0.0165104	0.0138846
 126	-0.000174956	0.00211069	-0.000923771
 127	-0.000750271	-0.00541328	-0.0192309
 128	0.0124014	0.0161721	0.0088698
 129	0.00100922	0.00217946	-0.0027871
 130	0.0104689	0.00844468	-0.0249647
 131	0.0175485	-0.0282578	-0.000357841
 132	0.00151262	0.000692767	0.00227711
 133	-0.00664188	-0.00318974	0.0118169
 134	-0.0115345	-0.0161651	-0.00645327
 135	0.00136678	0.00375072	-0.00608104
 136	0.00103826	-0.0080301	0.00443954
 137	0.00166248	0.0121546	-0.00657127
 138	-0.00282784	0.00260282	0.007398
 139	-0.0095582	-0.00356663	-0.00223486
 140	-0.000802224	0.0172143	-0.00826692