pySIMM System Object

776 atoms
775 bonds
1501 angles
2126 dihedrals
0 impropers

10 atom types
12 bond types
28 angle types
12 dihedral types
1 improper types

-70.454336 70.454336 xlo xhi
-70.454336 70.454336 ylo yhi
-70.454336 70.454336 zlo zhi

Masses

   1	16.0	# oh
   2	12.01	# c3
   3	1.008	# h1
   4	1.008	# hc
   5	1.008	# ho
   6	14.01	# n3
   7	1.008	# hn
   8	16.0	# o
   9	12.01	# c
  10	1.008	# h4

Pair Coeffs

   1	0.2104	3.0664733878390478	# oh
   2	0.1094	3.3996695084235347	# c3
   3	0.0157	2.471353044121301	# h1
   4	0.0157	2.649532787749369	# hc
   5	0.0047	0.5379246460131368	# ho
   6	0.17	3.249998523775958	# n3
   7	0.0157	1.069078461768407	# hn
   8	0.21	2.959921901149463	# o
   9	0.086	3.3996695084235347	# c
  10	0.015	2.5105525877194763	# h4

Bond Coeffs

   1	316.7	1.4233	# c3,oh
   2	330.6	1.0969	# c3,h1
   3	371.4	0.973	# ho,oh
   4	300.9	1.5375	# c3,c3
   5	330.6	1.0969	# c3,hc
   6	392.4	1.019	# hn,n3
   7	637.7	1.2183	# c,o
   8	325.9	1.4647	# c3,n3
   9	310.7	1.1121	# c,h4
  10	313.0	1.5241	# c,c3
  11	400.1	1.3513	# c,oh
  12	325.9	1.465	# n3,c

Angle Coeffs

   1	39.24	108.46	# h1,c3,h1
   2	62.86	111.51	# c3,c3,c3
   3	67.47	110.19	# c3,c3,oh
   4	46.34	109.8	# c3,c3,hc
   5	39.4	107.58	# hc,c3,hc
   6	50.93	110.26	# h1,c3,oh
   7	47.38	107.26	# c3,oh,ho
   8	46.39	109.56	# c3,c3,h1
   9	62.7	112.48	# c3,oh,c3
  10	51.11	109.5	# hc,c3,oh
  11	66.02	111.04	# c3,c3,n3
  12	45.64	114.64	# c3,c,h4
  13	41.4	106.4	# hn,n3,hn
  14	67.4	123.2	# c3,c,o
  15	47.42	109.29	# c3,n3,hn
  16	63.27	111.04	# c,c3,c3
  17	46.93	108.77	# c,c3,hc
  18	49.53	109.88	# h1,c3,n3
  19	54.22	120.7	# h4,c,o
  20	67.9	109.98	# c3,oh,c
  21	68.4	112.73	# c3,c,oh
  22	75.92	122.1	# o,c,oh
  23	63.82	112.35	# c3,n3,c3
  24	49.55	109.8	# hc,c3,n3
  25	63.8	112.35	# c3,n3,c
  26	47.4	109.29	# hn,n3,c
  27	66.0	111.04	# n3,c,c3
  28	70.9	110.7	# n3,c,o

Dihedral Coeffs

   1	1	0.15555555555555556	3	0	# X,c3,c3,X
   2	2	0.16	3	0	0.25	1	0	# ho,oh,c3,c3
   3	1	0.16	3	0	# hc,c3,c3,c3
   4	1	0.15	3	0	# hc,c3,c3,hc
   5	1	0.16666666666666666	3	0	# X,c3,oh,X
   6	2	0.0	3	0	0.25	1	0	# hc,c3,c3,oh
   7	1	0.3	3	0	# X,c3,n3,X
   8	3	0.18	3	0	0.25	2	180	0.2	1	180	# c3,c3,c3,c3
   9	1	0.0	2	180	# X,c,c3,X
  10	3	0.8	1	0	0.0	2	0	0.08	3	180	# hc,c3,c,o
  11	1	2.3	2	180	# X,c,oh,X
  12	2	0.3	3	0	0.48	2	180	# c3,c3,n3,c3

Improper Coeffs

   1	10.5	-1	2	# c,X,X,o

Atoms

   1	1	1	-0.26285	6.6403	-17.9827	7.53054
   2	1	2	0.431937	7.85226	-18.185	8.30639
   3	1	2	0.196566	8.20964	-17.0831	9.36972
   4	1	3	-0.176879	8.68982	-18.2868	7.59109
   5	1	3	-0.045056	7.80075	-19.1396	8.84119
   6	1	2	0.080387	9.42571	-17.4867	10.2313
   7	1	4	0.032783	7.35526	-16.8452	10.0204
   8	1	4	-0.126889	8.50013	-16.1188	8.91031
   9	1	4	-0.081548	9.6565	-16.6903	10.9619
  10	1	4	-0.048451	10.3301	-17.6238	9.62515
  11	1	1	-0.26285	2.89988	-16.5896	6.43904
  12	1	2	0.431937	4.19417	-16.3336	7.06478
  13	1	2	0.196566	5.38637	-16.3293	6.06888
  14	1	3	-0.176879	4.33277	-17.1273	7.82501
  15	1	3	-0.045056	4.19379	-15.4095	7.62797
  16	1	2	0.080387	6.67469	-16.7542	6.76872
  17	1	4	0.032783	5.47091	-15.3227	5.64662
  18	1	4	-0.126889	5.22257	-16.9782	5.19229
  19	1	4	-0.081548	6.94149	-15.9469	7.4686
  20	1	4	-0.048451	7.49048	-16.8184	6.02991
  21	1	6	-0.353484	-10.3778	-14.0634	-1.37254
  22	1	2	0.376337	-9.6333	-15.1232	-0.750726
  23	1	2	-0.897489	-8.56809	-14.3718	0.0637674
  24	1	3	0.034041	-9.17269	-15.8119	-1.47039
  25	1	3	0.012328	-10.3061	-15.6781	-0.0553157
  26	1	7	0.229239	-9.72952	-13.5031	-1.91472
  27	1	2	0.531206	-7.71158	-15.4215	0.808707
  28	1	4	0.202592	-9.03916	-13.6613	0.763926
  29	1	4	0.099501	-7.90722	-13.8068	-0.60283
  30	1	2	0.171725	-6.75927	-14.7688	1.83514
  31	1	4	-0.10542	-7.13341	-16.0121	0.071689
  32	1	4	-0.137294	-8.39391	-16.1108	1.33387
  33	1	2	-0.155467	-5.75821	-15.7283	2.55113
  34	1	4	-0.053736	-7.34633	-14.2436	2.59379
  35	1	4	0.001015	-6.17994	-14.0079	1.30602
  36	1	2	0.033419	-4.6522	-14.8905	3.22101
  37	1	4	0.005395	-5.31726	-16.4219	1.82826
  38	1	4	0.019028	-6.27209	-16.3177	3.29848
  39	1	2	0.058829	-3.33088	-15.6936	3.13894
  40	1	4	-0.00779	-4.92859	-14.6485	4.26699
  41	1	4	-0.029026	-4.52133	-13.9292	2.69705
  42	1	2	-0.029357	-2.21758	-14.9922	3.89377
  43	1	4	-0.003083	-3.04668	-15.8105	2.09395
  44	1	4	-0.010137	-3.45745	-16.7001	3.54974
  45	1	2	-0.000585	-0.925332	-15.7518	3.6787
  46	1	4	0.006084	-2.48629	-14.9838	4.95808
  47	1	4	0.012201	-2.11674	-13.9513	3.58374
  48	1	2	-0.03118	0.0640596	-15.32	4.73939
  49	1	4	0.011412	-0.516118	-15.5821	2.67291
  50	1	4	0.011566	-1.11433	-16.8378	3.76736
  51	1	2	-0.057912	1.27113	-16.2614	4.61964
  52	1	4	0.001922	-0.392442	-15.3353	5.75396
  53	1	4	0.021794	0.365215	-14.2911	4.52632
  54	1	8	-0.501673	3.04864	-14.7509	5.08617
  55	1	9	0.462	2.45185	-15.7435	5.45971
  56	1	4	0.029593	1.61856	-16.3237	3.5764
  57	1	4	0.042406	0.979086	-17.2799	4.91395
  58	1	1	-0.26285	-13.1534	-12.4254	-5.00001
  59	1	2	0.431937	-12.7097	-13.5984	-4.31984
  60	1	2	0.196566	-12.2491	-13.2782	-2.87437
  61	1	3	-0.176879	-11.8597	-14.0011	-4.88398
  62	1	3	-0.045056	-13.4738	-14.3879	-4.30489
  63	1	2	0.080387	-11.5103	-14.4762	-2.21164
  64	1	4	0.032783	-13.1239	-13.0187	-2.24776
  65	1	4	-0.126889	-11.5873	-12.3997	-2.88148
  66	1	4	-0.081548	-11.0958	-15.1378	-2.99595
  67	1	4	-0.048451	-12.211	-15.0847	-1.61487
  68	1	6	-0.353484	-16.5238	-1.10112	-15.1661
  69	1	2	0.376337	-16.1575	-1.37869	-13.7478
  70	1	2	-0.897489	-16.3863	-2.88734	-13.48
  71	1	3	0.034041	-16.7263	-0.731066	-13.0715
  72	1	3	0.012328	-15.0975	-1.15826	-13.5954
  73	1	7	0.229239	-16.326	-1.94604	-15.6976
  74	1	2	0.531206	-15.6462	-3.36443	-12.2319
  75	1	4	0.202592	-16.0025	-3.49958	-14.2992
  76	1	4	0.099501	-17.4549	-3.1028	-13.3971
  77	1	2	0.171725	-15.9461	-4.85615	-11.8784
  78	1	4	-0.10542	-15.9041	-2.71185	-11.3954
  79	1	4	-0.137294	-14.5774	-3.23441	-12.4298
  80	1	2	-0.155467	-15.3179	-5.29324	-10.5154
  81	1	4	-0.053736	-15.5649	-5.51854	-12.6633
  82	1	4	0.001015	-17.0303	-4.99884	-11.8338
  83	1	2	0.033419	-15.4926	-6.79376	-10.1524
  84	1	4	0.005395	-15.7945	-4.67431	-9.74163
  85	1	4	0.019028	-14.255	-5.03333	-10.5208
  86	1	2	0.058829	-15.2081	-7.09091	-8.66978
  87	1	4	-0.00779	-14.8529	-7.4168	-10.7917
  88	1	4	-0.029026	-16.5382	-7.06875	-10.3448
  89	1	2	-0.029357	-15.3719	-8.59582	-8.30395
  90	1	4	-0.003083	-15.9043	-6.50422	-8.05722
  91	1	4	-0.010137	-14.2032	-6.74291	-8.42543
  92	1	2	-0.000585	-15.2242	-8.87487	-6.79322
  93	1	4	0.006084	-14.6162	-9.18153	-8.82993
  94	1	4	0.012201	-16.3471	-8.95629	-8.64261
  95	1	2	-0.03118	-15.1735	-10.3906	-6.44459
  96	1	4	0.011412	-16.022	-8.38016	-6.22572
  97	1	4	0.011566	-14.2785	-8.43094	-6.44802
  98	1	2	-0.057912	-14.7359	-10.6156	-5.01034
  99	1	4	0.001922	-14.4629	-10.921	-7.09692
 100	1	4	0.021794	-16.1425	-10.857	-6.6177
 101	1	8	-0.501673	-15.2853	-12.919	-4.48052
 102	1	9	0.462	-14.4332	-12.0884	-4.71706
 103	1	4	0.029593	-15.5354	-10.2561	-4.34062
 104	1	4	0.042406	-13.8549	-10.0083	-4.77368
 105	1	1	-0.26285	-17.1481	2.34671	-17.736
 106	1	2	0.431937	-17.2585	0.906454	-17.7959
 107	1	2	0.196566	-15.9239	0.244674	-17.3145
 108	1	3	-0.176879	-17.4525	0.61062	-18.8329
 109	1	3	-0.045056	-18.0925	0.53118	-17.196
 110	1	2	0.080387	-15.8083	0.0580319	-15.767
 111	1	4	0.032783	-15.1061	0.906358	-17.6298
 112	1	4	-0.126889	-15.7472	-0.693207	-17.8447
 113	1	4	-0.081548	-16.116	0.976084	-15.2599
 114	1	4	-0.048451	-14.7362	-0.0519133	-15.5511
 115	1	6	-0.353484	-26.7015	13.1262	-21.5674
 116	1	2	0.376337	-26.875	12.0271	-22.5013
 117	1	2	-0.897489	-25.5123	11.3879	-22.662
 118	1	3	0.034041	-27.2382	12.3938	-23.4724
 119	1	3	0.012328	-27.5963	11.2842	-22.1267
 120	1	7	0.229239	-26.2337	12.7693	-20.7378
 121	1	2	0.531206	-25.1721	10.5386	-21.4467
 122	1	4	0.202592	-24.7413	12.156	-22.829
 123	1	4	0.099501	-25.5415	10.7202	-23.5386
 124	1	2	0.171725	-23.693	10.0851	-21.4185
 125	1	4	-0.10542	-25.8464	9.67632	-21.4301
 126	1	4	-0.137294	-25.3513	11.1056	-20.5248
 127	1	2	-0.155467	-23.5025	8.82345	-20.5236
 128	1	4	-0.053736	-23.0769	10.8913	-20.9983
 129	1	4	0.001015	-23.3235	9.86364	-22.4326
 130	1	2	0.033419	-21.9952	8.58976	-20.3061
 131	1	4	0.005395	-23.9621	7.95119	-21.0051
 132	1	4	0.019028	-23.9888	8.97787	-19.5493
 133	1	2	0.058829	-21.7561	7.38121	-19.4037
 134	1	4	-0.00779	-21.5182	9.47673	-19.8902
 135	1	4	-0.029026	-21.5102	8.40212	-21.2658
 136	1	2	-0.029357	-20.2567	6.97852	-19.4405
 137	1	4	-0.003083	-22.3848	6.55028	-19.7632
 138	1	4	-0.010137	-22.0769	7.61587	-18.3744
 139	1	2	-0.000585	-19.9693	5.81035	-18.4737
 140	1	4	0.006084	-19.6363	7.84077	-19.1675
 141	1	4	0.012201	-19.9796	6.67814	-20.4523
 142	1	2	-0.03118	-18.4769	5.45804	-18.3895
 143	1	4	0.011412	-20.5412	4.93168	-18.7999
 144	1	4	0.011566	-20.3248	6.08672	-17.4675
 145	1	2	-0.057912	-18.0643	4.5186	-17.2184
 146	1	4	0.001922	-17.914	6.39981	-18.2785
 147	1	4	0.021794	-18.1643	5.01361	-19.3475
 148	1	8	-0.501673	-19.4383	2.54768	-17.4372
 149	1	9	0.462	-18.3141	3.03678	-17.5606
 150	1	4	0.029593	-18.5802	4.76598	-16.2778
 151	1	4	0.042406	-16.9872	4.62981	-17.0135
 152	1	1	-0.26285	-28.3947	17.3342	-19.2979
 153	1	2	0.431937	-28.7399	16.1395	-20.0257
 154	1	2	0.196566	-27.5284	15.2042	-20.362
 155	1	3	-0.176879	-29.2324	16.443	-20.966
 156	1	3	-0.045056	-29.4882	15.5532	-19.4745
 157	1	2	0.080387	-27.8889	13.8963	-21.1448
 158	1	4	0.032783	-27.0248	14.9011	-19.4307
 159	1	4	-0.126889	-26.8043	15.7756	-20.964
 160	1	4	-0.081548	-28.4666	14.1456	-22.0438
 161	1	4	-0.048451	-28.5267	13.272	-20.5101
 162	1	6	-0.353484	-17.3942	26.8823	-19.2559
 163	1	2	0.376337	-18.5013	25.9506	-18.9579
 164	1	2	-0.897489	-19.8081	26.2997	-19.7209
 165	1	3	0.034041	-18.7643	26.0133	-17.8976
 166	1	3	0.012328	-18.2148	24.9119	-19.164
 167	1	7	0.229239	-17.2357	26.8551	-20.2533
 168	1	2	0.531206	-20.9447	25.3645	-19.2656
 169	1	4	0.202592	-19.6919	26.2629	-20.8064
 170	1	4	0.099501	-20.0935	27.3268	-19.4483
 171	1	2	0.171725	-22.3622	25.7354	-19.7814
 172	1	4	-0.10542	-20.9516	25.355	-18.1755
 173	1	4	-0.137294	-20.7171	24.3373	-19.5695
 174	1	2	-0.155467	-23.498	25.0911	-18.9667
 175	1	4	-0.053736	-22.4967	25.4565	-20.8306
 176	1	4	0.001015	-22.489	26.8294	-19.7324
 177	1	2	0.033419	-23.4324	23.5401	-18.8258
 178	1	4	0.005395	-24.4439	25.364	-19.4513
 179	1	4	0.019028	-23.5253	25.5639	-17.985
 180	1	2	0.058829	-24.8173	22.9383	-18.4221
 181	1	4	-0.00779	-22.6698	23.2219	-18.097
 182	1	4	-0.029026	-23.1599	23.1273	-19.8088
 183	1	2	-0.029357	-24.7819	21.388	-18.5499
 184	1	4	-0.003083	-25.6098	23.3094	-19.076
 185	1	4	-0.010137	-25.0777	23.2438	-17.4002
 186	1	2	-0.000585	-26.1092	20.7315	-18.1783
 187	1	4	0.006084	-23.9797	20.9521	-17.9332
 188	1	4	0.012201	-24.5399	21.1266	-19.6004
 189	1	2	-0.03118	-26.1383	19.2139	-18.5143
 190	1	4	0.011412	-26.2541	20.8798	-17.1048
 191	1	4	0.011566	-26.9649	21.2368	-18.6595
 192	1	2	-0.057912	-27.1438	18.4875	-17.5673
 193	1	4	0.001922	-25.155	18.7643	-18.3288
 194	1	4	0.021794	-26.3792	19.0667	-19.5591
 195	1	8	-0.501673	-27.7397	16.1313	-17.4691
 196	1	9	0.462	-27.7395	17.1724	-18.1086
 197	1	4	0.029593	-27.9974	19.1545	-17.3593
 198	1	4	0.042406	-26.6675	18.3007	-16.5992
 199	1	6	-0.353484	-7.18487	21.0187	-23.4748
 200	1	2	0.376337	-6.62269	21.4535	-22.2091
 201	1	2	-0.897489	-7.67446	22.3102	-21.4642
 202	1	3	0.034041	-5.71616	22.041	-22.348
 203	1	3	0.012328	-6.39182	20.5571	-21.6195
 204	1	7	0.229239	-7.37844	21.8456	-24.0263
 205	1	2	0.531206	-7.24895	22.6073	-19.9966
 206	1	4	0.202592	-8.61806	21.7654	-21.4423
 207	1	4	0.099501	-7.84355	23.2558	-21.9804
 208	1	2	0.171725	-8.19321	23.5087	-19.1591
 209	1	4	-0.10542	-6.23666	23.0226	-19.9966
 210	1	4	-0.137294	-7.1505	21.6335	-19.5091
 211	1	2	-0.155467	-8.136	25.0018	-19.5742
 212	1	4	-0.053736	-7.85417	23.4358	-18.1216
 213	1	4	0.001015	-9.20935	23.1061	-19.2132
 214	1	2	0.033419	-9.09094	25.9024	-18.7681
 215	1	4	0.005395	-8.32847	25.0994	-20.6552
 216	1	4	0.019028	-7.09968	25.3505	-19.4037
 217	1	2	0.058829	-10.5806	25.6915	-19.0951
 218	1	4	-0.00779	-8.82247	26.9565	-18.9292
 219	1	4	-0.029026	-8.9196	25.6796	-17.7075
 220	1	2	-0.029357	-11.4593	26.5941	-18.1994
 221	1	4	-0.003083	-10.8923	24.6395	-18.9698
 222	1	4	-0.010137	-10.7286	25.9662	-20.153
 223	1	2	-0.000585	-12.8491	26.7648	-18.8003
 224	1	4	0.006084	-11.0104	27.6055	-18.1086
 225	1	4	0.012201	-11.4901	26.145	-17.1946
 226	1	2	-0.03118	-13.826	27.3309	-17.7593
 227	1	4	0.011412	-13.2357	25.8108	-19.1779
 228	1	4	0.011566	-12.7815	27.4463	-19.6637
 229	1	2	-0.057912	-15.1627	27.7212	-18.4344
 230	1	4	0.001922	-13.3806	28.2169	-17.2647
 231	1	4	0.021794	-13.9893	26.5808	-16.9851
 232	1	8	-0.501673	-15.7088	25.5749	-19.359
 233	1	9	0.462	-16.0772	26.5316	-18.724
 234	1	4	0.029593	-15.016	28.3236	-19.3404
 235	1	4	0.042406	-15.7253	28.3594	-17.7208
 236	1	6	-0.353484	2.0019	10.4547	-23.0577
 237	1	2	0.376337	1.25291	11.1764	-24.0862
 238	1	2	-0.897489	0.224362	12.1032	-23.4398
 239	1	3	0.034041	0.709991	10.4654	-24.7166
 240	1	3	0.012328	1.92893	11.7675	-24.7188
 241	1	7	0.229239	2.58967	11.1169	-22.5697
 242	1	2	0.531206	-0.590728	12.8277	-24.5378
 243	1	4	0.202592	0.728951	12.8572	-22.8258
 244	1	4	0.099501	-0.436929	11.5253	-22.777
 245	1	2	0.171725	-1.83969	13.5659	-23.99
 246	1	4	-0.10542	-0.91844	12.0524	-25.2454
 247	1	4	-0.137294	0.0951369	13.4892	-25.0718
 248	1	2	-0.155467	-2.54177	14.4261	-25.0607
 249	1	4	-0.053736	-1.55824	14.1751	-23.1293
 250	1	4	0.001015	-2.54927	12.8045	-23.6339
 251	1	2	0.033419	-4.03632	14.6478	-24.7543
 252	1	4	0.005395	-2.43887	13.939	-26.0432
 253	1	4	0.019028	-2.03632	15.411	-25.1168
 254	1	2	0.058829	-4.73429	15.516	-25.8234
 255	1	4	-0.00779	-4.09142	15.1358	-23.763
 256	1	4	-0.029026	-4.53541	13.6707	-24.684
 257	1	2	-0.029357	-6.24353	15.7645	-25.5042
 258	1	4	-0.003083	-4.63421	15.0672	-26.8204
 259	1	4	-0.010137	-4.21922	16.4758	-25.861
 260	1	2	-0.000585	-6.95479	16.861	-26.3694
 261	1	4	0.006084	-6.39323	15.949	-24.4322
 262	1	4	0.012201	-6.77426	14.8101	-25.6783
 263	1	2	-0.03118	-6.59765	18.3197	-26.042
 264	1	4	0.011412	-8.03835	16.771	-26.3013
 265	1	4	0.011566	-6.6936	16.7061	-27.4275
 266	1	2	-0.057912	-7.08277	18.8522	-24.6591
 267	1	4	0.001922	-6.98671	18.9738	-26.8295
 268	1	4	0.021794	-5.50132	18.4229	-26.1067
 269	1	8	-0.501673	-5.75066	20.7792	-25.1157
 270	1	9	0.462	-6.34276	20.1319	-24.2816
 271	1	4	0.029593	-6.88224	18.135	-23.8653
 272	1	4	0.042406	-8.1575	19.0711	-24.6713
 273	1	6	-0.353484	10.0016	1.39969	-15.3723
 274	1	2	0.376337	8.60228	1.7687	-15.1804
 275	1	2	-0.897489	8.14588	2.85873	-16.1674
 276	1	3	0.034041	8.40807	2.07295	-14.146
 277	1	3	0.012328	7.9812	0.896971	-15.3898
 278	1	7	0.229239	10.1822	1.34517	-16.3695
 279	1	2	0.531206	6.66683	3.22575	-15.8757
 280	1	4	0.202592	8.26282	2.51685	-17.2091
 281	1	4	0.099501	8.76746	3.74021	-15.9968
 282	1	2	0.171725	6.24838	4.53517	-16.5923
 283	1	4	-0.10542	6.55172	3.33986	-14.7918
 284	1	4	-0.137294	6.02757	2.39245	-16.1696
 285	1	2	-0.155467	4.86688	4.99914	-16.0718
 286	1	4	-0.053736	6.26492	4.36998	-17.6811
 287	1	4	0.001015	6.99116	5.3251	-16.3631
 288	1	2	0.033419	4.38984	6.26228	-16.8143
 289	1	4	0.005395	4.89792	5.22147	-14.9927
 290	1	4	0.019028	4.11701	4.2016	-16.2023
 291	1	2	0.058829	4.05671	5.9683	-18.2904
 292	1	4	-0.00779	5.15847	7.02401	-16.7313
 293	1	4	-0.029026	3.49276	6.6186	-16.3022
 294	1	2	-0.029357	3.63743	7.22896	-19.0553
 295	1	4	-0.003083	3.25801	5.23185	-18.3742
 296	1	4	-0.010137	4.93576	5.56594	-18.804
 297	1	2	-0.000585	3.26411	6.93795	-20.5241
 298	1	4	0.006084	4.50182	7.92104	-19.0383
 299	1	4	0.012201	2.79965	7.74382	-18.5617
 300	1	2	-0.03118	3.31588	8.23568	-21.3827
 301	1	4	0.011412	2.24284	6.53227	-20.5587
 302	1	4	0.011566	3.92076	6.18916	-20.9709
 303	1	2	-0.057912	2.69699	8.12494	-22.7865
 304	1	4	0.001922	4.36774	8.55643	-21.4727
 305	1	4	0.021794	2.81785	9.02392	-20.8146
 306	1	8	-0.501673	3.85087	9.82252	-24.1535
 307	1	9	0.462	2.84068	9.40111	-23.6085
 308	1	4	0.029593	1.63087	7.87476	-22.6809
 309	1	4	0.042406	3.16398	7.2996	-23.3587
 310	1	6	-0.353484	16.01	1.1236	-2.84466
 311	1	2	0.376337	14.5767	1.32801	-2.72533
 312	1	2	-0.897489	14.078	1.76986	-4.08847
 313	1	3	0.034041	14.3289	2.11182	-1.99684
 314	1	3	0.012328	14.0828	0.40615	-2.41395
 315	1	7	0.229239	16.4194	2.02317	-3.05095
 316	1	2	0.531206	14.6522	3.11235	-4.60822
 317	1	4	0.202592	12.9843	1.87793	-4.00326
 318	1	4	0.099501	14.2525	0.93536	-4.79819
 319	1	2	0.171725	14.1582	3.42548	-6.04102
 320	1	4	-0.10542	15.7587	3.0509	-4.62125
 321	1	4	-0.137294	14.4053	3.91356	-3.9011
 322	1	2	-0.155467	14.3906	2.24198	-7.01116
 323	1	4	-0.053736	14.6937	4.32989	-6.39769
 324	1	4	0.001015	13.0864	3.67681	-6.03108
 325	1	2	0.033419	14.2241	2.65101	-8.49179
 326	1	4	0.005395	13.6748	1.42703	-6.82044
 327	1	4	0.019028	15.3871	1.84371	-6.81903
 328	1	2	0.058829	14.6772	1.49746	-9.42885
 329	1	4	-0.00779	14.8466	3.52416	-8.68936
 330	1	4	-0.029026	13.1811	2.90265	-8.68634
 331	1	2	-0.029357	14.4232	1.71088	-10.9567
 332	1	4	-0.003083	14.1748	0.572865	-9.12102
 333	1	4	-0.010137	15.7545	1.33286	-9.23884
 334	1	2	-0.000585	12.9432	1.84568	-11.4015
 335	1	4	0.006084	14.8404	0.85392	-11.4885
 336	1	4	0.012201	14.9804	2.59728	-11.3015
 337	1	2	-0.03118	12.7702	2.09295	-12.9249
 338	1	4	0.011412	12.4427	2.65085	-10.8522
 339	1	4	0.011566	12.4337	0.906884	-11.1299
 340	1	2	-0.057912	11.2869	2.144	-13.3114
 341	1	4	0.001922	13.2433	1.27631	-13.4787
 342	1	4	0.021794	13.2469	3.03799	-13.2044
 343	1	8	-0.501673	11.9706	2.14372	-15.6665
 344	1	9	0.462	11.0725	2.2391	-14.8428
 345	1	4	0.029593	10.7685	2.98401	-12.8258
 346	1	4	0.042406	10.7989	1.22249	-12.9709
 347	1	6	-0.353484	22.7384	-8.21102	6.71756
 348	1	2	0.376337	21.7395	-7.19625	7.12003
 349	1	2	-0.897489	21.0916	-6.51406	5.8834
 350	1	3	0.034041	22.1732	-6.42369	7.77122
 351	1	3	0.012328	20.9322	-7.67696	7.6868
 352	1	7	0.229239	23.3859	-7.72463	6.09247
 353	1	2	0.531206	22.097	-5.58719	5.17187
 354	1	4	0.202592	20.2273	-5.93766	6.23474
 355	1	4	0.099501	20.7079	-7.28431	5.21456
 356	1	2	0.171725	21.4528	-4.41432	4.34447
 357	1	4	-0.10542	22.7872	-6.17046	4.55363
 358	1	4	-0.137294	22.7232	-5.15023	5.9478
 359	1	2	-0.155467	20.8628	-4.73792	2.94815
 360	1	4	-0.053736	22.2434	-3.68928	4.13794
 361	1	4	0.001015	20.7348	-3.85459	4.9616
 362	1	2	0.033419	20.8652	-3.52159	1.96253
 363	1	4	0.005395	19.8512	-5.12587	3.06862
 364	1	4	0.019028	21.4781	-5.51433	2.47739
 365	1	2	0.058829	20.1589	-3.88162	0.625708
 366	1	4	-0.00779	21.9014	-3.20093	1.77586
 367	1	4	-0.029026	20.3603	-2.65288	2.40974
 368	1	2	-0.029357	20.4685	-2.8521	-0.520881
 369	1	4	-0.003083	19.0699	-3.94464	0.801878
 370	1	4	-0.010137	20.53	-4.8608	0.264855
 371	1	2	-0.000585	19.3082	-2.39395	-1.45741
 372	1	4	0.006084	21.2661	-3.28246	-1.12684
 373	1	4	0.012201	20.9028	-1.94514	-0.066929
 374	1	2	-0.03118	18.4122	-1.23886	-0.919486
 375	1	4	0.011412	18.6683	-3.24117	-1.75874
 376	1	4	0.011566	19.7647	-2.01878	-2.38441
 377	1	2	-0.057912	17.6239	-0.557295	-2.08515
 378	1	4	0.001922	19.0395	-0.488708	-0.429202
 379	1	4	0.021794	17.7462	-1.64308	-0.166818
 380	1	8	-0.501673	17.1749	1.54693	-1.05151
 381	1	9	0.462	16.7049	0.600984	-1.65575
 382	1	4	0.029593	16.995	-1.28467	-2.58463
 383	1	4	0.042406	18.324	-0.159344	-2.85109
 384	1	1	-0.26285	22.1698	-11.3558	6.93038
 385	1	2	0.431937	23.3917	-11.3284	7.69627
 386	1	2	0.196566	24.2308	-10.0195	7.59016
 387	1	3	-0.176879	24.0128	-12.185	7.39901
 388	1	3	-0.045056	23.1878	-11.4924	8.75496
 389	1	2	0.080387	23.481	-8.70286	7.86491
 390	1	4	0.032783	24.7552	-9.91507	6.63645
 391	1	4	-0.126889	25.0542	-10.1117	8.30969
 392	1	4	-0.081548	24.1975	-7.93079	8.17025
 393	1	4	-0.048451	22.8231	-8.90074	8.71326
 394	1	6	-0.353484	11.3949	-13.3901	7.88713
 395	1	2	0.376337	11.8699	-14.7877	7.72656
 396	1	2	-0.897489	11.8307	-15.2342	6.24287
 397	1	3	0.034041	11.3055	-15.5047	8.35394
 398	1	3	0.012328	12.9083	-14.8072	8.11052
 399	1	7	0.229239	11.9792	-12.7974	7.31096
 400	1	2	0.531206	13.2363	-15.4347	5.63735
 401	1	4	0.202592	11.2943	-14.4779	5.64885
 402	1	4	0.099501	11.2481	-16.1498	6.11358
 403	1	2	0.171725	13.9068	-14.1681	5.02676
 404	1	4	-0.10542	13.8757	-15.8981	6.38832
 405	1	4	-0.137294	13.1229	-16.1743	4.84935
 406	1	2	-0.155467	15.265	-14.4365	4.3511
 407	1	4	-0.053736	13.9512	-13.3583	5.7683
 408	1	4	0.001015	13.2631	-13.7746	4.22389
 409	1	2	0.033419	16.1415	-13.177	4.28338
 410	1	4	0.005395	15.0625	-14.8342	3.34546
 411	1	4	0.019028	15.7859	-15.245	4.90317
 412	1	2	0.058829	17.5382	-13.5377	3.75404
 413	1	4	-0.00779	16.2193	-12.6366	5.22681
 414	1	4	-0.029026	15.6767	-12.5102	3.5777
 415	1	2	-0.029357	18.5182	-13.8419	4.92723
 416	1	4	-0.003083	17.9068	-12.732	3.08277
 417	1	4	-0.010137	17.4433	-14.4232	3.12254
 418	1	2	-0.000585	19.2643	-12.5902	5.43212
 419	1	4	0.006084	19.2759	-14.5627	4.57664
 420	1	4	0.012201	18.0004	-14.3194	5.76131
 421	1	2	-0.03118	20.1391	-11.8476	4.35825
 422	1	4	0.011412	19.9302	-12.9003	6.25843
 423	1	4	0.011566	18.5321	-11.855	5.80295
 424	1	2	-0.057912	21.1341	-10.7582	4.86528
 425	1	4	0.001922	19.4575	-11.3398	3.65175
 426	1	4	0.021794	20.6703	-12.6062	3.78199
 427	1	8	-0.501673	23.461	-11.3264	5.03912
 428	1	9	0.462	22.3655	-11.3167	5.57859
 429	1	4	0.029593	20.6072	-10.0794	5.54698
 430	1	4	0.042406	21.4702	-10.1333	4.02986
 431	1	1	-0.26285	14.84	-12.1307	8.54567
 432	1	2	0.431937	13.6119	-11.6594	9.10842
 433	1	2	0.196566	12.8171	-12.7101	9.92988
 434	1	3	-0.176879	13.0028	-11.3712	8.21237
 435	1	3	-0.045056	13.733	-10.7271	9.6556
 436	1	2	0.080387	11.3806	-12.8449	9.28527
 437	1	4	0.032783	12.7455	-12.3203	10.9634
 438	1	4	-0.126889	13.3319	-13.665	9.98479
 439	1	4	-0.081548	10.9097	-11.8313	9.24629
 440	1	4	-0.048451	10.74	-13.4626	9.92919
 441	1	6	-0.353484	11.8995	-1.63657	11.9452
 442	1	2	0.376337	12.0248	-3.05009	12.2245
 443	1	2	-0.897489	11.9822	-3.75841	10.8488
 444	1	3	0.034041	11.1981	-3.4309	12.8594
 445	1	3	0.012328	12.9861	-3.2828	12.7338
 446	1	7	0.229239	11.2657	-1.57572	11.1515
 447	1	2	0.531206	13.2919	-4.50525	10.4994
 448	1	4	0.202592	11.8073	-3.05077	10.0164
 449	1	4	0.099501	11.1439	-4.44467	10.8443
 450	1	2	0.171725	13.3585	-5.11144	9.07459
 451	1	4	-0.10542	13.4484	-5.29545	11.2699
 452	1	4	-0.137294	14.1249	-3.80751	10.58
 453	1	2	-0.155467	14.7078	-5.83986	8.72089
 454	1	4	-0.053736	13.1604	-4.32883	8.33002
 455	1	4	0.001015	12.5323	-5.84579	8.95229
 456	1	2	0.033419	14.8135	-7.29088	9.24964
 457	1	4	0.005395	15.5542	-5.27353	9.09583
 458	1	4	0.019028	14.8299	-5.89911	7.63649
 459	1	2	0.058829	16.1829	-7.99773	8.91061
 460	1	4	-0.00779	13.9788	-7.90872	8.8547
 461	1	4	-0.029026	14.6623	-7.25503	10.3407
 462	1	2	-0.029357	16.5898	-9.11231	9.89372
 463	1	4	-0.003083	17.0043	-7.25979	8.88104
 464	1	4	-0.010137	16.1023	-8.41265	7.88259
 465	1	2	-0.000585	17.989	-9.7887	9.58032
 466	1	4	0.006084	15.7064	-9.73718	10.0078
 467	1	4	0.012201	16.6982	-8.67236	10.8822
 468	1	2	-0.03118	17.9413	-10.8213	8.41784
 469	1	4	0.011412	18.4028	-10.238	10.5098
 470	1	4	0.011566	18.6954	-8.97196	9.28315
 471	1	2	-0.057912	17.2687	-12.2133	8.68296
 472	1	4	0.001922	18.9269	-10.9569	7.98683
 473	1	4	0.021794	17.3907	-10.3687	7.59329
 474	1	8	-0.501673	15.7707	-11.9518	10.5581
 475	1	9	0.462	15.9171	-12.0402	9.34817
 476	1	4	0.029593	17.8922	-12.9227	9.26435
 477	1	4	0.042406	17.0931	-12.7259	7.7201
 478	1	6	-0.353484	3.29882	-0.456565	22.5745
 479	1	2	0.376337	3.24597	-1.51904	21.5578
 480	1	2	-0.897489	4.65798	-1.61803	20.9719
 481	1	3	0.034041	2.57677	-1.20315	20.7491
 482	1	3	0.012328	2.89648	-2.49516	21.9638
 483	1	7	0.229239	3.67018	0.396855	22.1604
 484	1	2	0.531206	4.76787	-2.49034	19.6698
 485	1	4	0.202592	5.36718	-2.05183	21.7017
 486	1	4	0.099501	5.03885	-0.573392	20.799
 487	1	2	0.171725	6.15553	-2.41166	18.9956
 488	1	4	-0.10542	3.98125	-2.12105	19.0074
 489	1	4	-0.137294	4.48196	-3.54544	19.8863
 490	1	2	-0.155467	6.61587	-0.963564	18.7249
 491	1	4	-0.053736	6.06477	-2.93193	18.0299
 492	1	4	0.001015	6.91779	-2.91652	19.5821
 493	1	2	0.033419	7.84061	-0.874351	17.7842
 494	1	4	0.005395	6.92353	-0.51761	19.6546
 495	1	4	0.019028	5.7911	-0.387963	18.303
 496	1	2	0.058829	8.149	0.601107	17.4693
 497	1	4	-0.00779	7.61186	-1.43617	16.8637
 498	1	4	-0.029026	8.74127	-1.30642	18.2555
 499	1	2	-0.029357	9.53357	0.85708	16.8219
 500	1	4	-0.003083	8.10211	1.20692	18.3907
 501	1	4	-0.010137	7.39211	0.936063	16.7652
 502	1	2	-0.000585	9.87483	-0.0407043	15.6132
 503	1	4	0.006084	10.3478	0.840515	17.5857
 504	1	4	0.012201	9.48264	1.88707	16.4345
 505	1	2	-0.03118	11.2213	0.449018	14.9982
 506	1	4	0.011412	9.01726	-0.0227321	14.8851
 507	1	4	0.011566	9.94246	-1.07951	15.9784
 508	1	2	-0.057912	12.0335	-0.520493	14.1384
 509	1	4	0.001922	11.9032	0.746275	15.8269
 510	1	4	0.021794	11.0183	1.37489	14.4097
 511	1	8	-0.501673	10.5686	-0.0929011	12.3756
 512	1	9	0.462	11.1928	-0.957591	12.9706
 513	1	4	0.029593	12.2938	-1.45151	14.74
 514	1	4	0.042406	12.9181	-0.0248898	13.7179
 515	1	6	-0.353484	-9.61068	2.83068	23.9528
 516	1	2	0.376337	-8.23967	2.491	23.9889
 517	1	2	-0.897489	-7.95504	1.75698	25.2956
 518	1	3	0.034041	-7.64325	3.4167	23.9393
 519	1	3	0.012328	-8.03844	1.84665	23.1211
 520	1	7	0.229239	-10.0276	1.91544	23.9243
 521	1	2	0.531206	-6.54931	1.17211	25.0917
 522	1	4	0.202592	-8.65132	0.977172	25.5405
 523	1	4	0.099501	-8.01412	2.46341	26.1421
 524	1	2	0.171725	-5.70809	0.756754	26.3264
 525	1	4	-0.10542	-5.92953	1.88469	24.5469
 526	1	4	-0.137294	-6.65939	0.327746	24.4204
 527	1	2	-0.155467	-4.2939	0.264772	25.7974
 528	1	4	-0.053736	-6.22816	-0.0578811	26.8383
 529	1	4	0.001015	-5.55578	1.60653	27.0155
 530	1	2	0.033419	-3.69147	-0.953505	26.4985
 531	1	4	0.005395	-3.6361	1.14106	25.9574
 532	1	4	0.019028	-4.30391	0.0885804	24.7216
 533	1	2	0.058829	-2.18616	-1.14021	26.2825
 534	1	4	-0.00779	-4.13904	-1.81032	26.0152
 535	1	4	-0.029026	-3.95415	-0.940583	27.5465
 536	1	2	-0.029357	-1.18709	-0.247596	26.9987
 537	1	4	-0.003083	-2.0703	-0.810737	25.2363
 538	1	4	-0.010137	-1.90732	-2.19976	26.3677
 539	1	2	-0.000585	0.257101	-0.52677	26.5656
 540	1	4	0.006084	-1.27327	-0.413723	28.0805
 541	1	4	0.012201	-1.42858	0.784146	26.759
 542	1	2	-0.03118	0.584351	0.177651	25.2118
 543	1	4	0.011412	0.485789	-1.59981	26.5637
 544	1	4	0.011566	0.937126	-0.196249	27.3603
 545	1	2	-0.057912	2.00519	-0.299056	24.6545
 546	1	4	0.001922	0.532634	1.26311	25.2807
 547	1	4	0.021794	-0.168262	-0.21337	24.4941
 548	1	8	-0.501673	1.40986	0.775001	22.5328
 549	1	9	0.462	1.97705	-0.134342	23.1259
 550	1	4	0.029593	2.14067	-1.35199	24.9596
 551	1	4	0.042406	2.85529	0.267708	25.0862
 552	1	6	-0.353484	-17.2388	13.0645	27.0595
 553	1	2	0.376337	-17.7759	11.8863	26.5179
 554	1	2	-0.897489	-16.9057	11.7886	25.2743
 555	1	3	0.034041	-18.7647	12.0213	26.2408
 556	1	3	0.012328	-17.5349	10.9734	27.1148
 557	1	7	0.229239	-17.124	13.7715	26.3443
 558	1	2	0.531206	-17.3184	10.5517	24.5329
 559	1	4	0.202592	-15.8464	11.72	25.6219
 560	1	4	0.099501	-16.9874	12.6916	24.6396
 561	1	2	0.171725	-16.1322	10.2747	23.5598
 562	1	4	-0.10542	-18.2671	10.7817	23.9731
 563	1	4	-0.137294	-17.5279	9.69001	25.1571
 564	1	2	-0.155467	-16.2527	8.79087	23.0599
 565	1	4	-0.053736	-15.1969	10.5069	24.0712
 566	1	4	0.001015	-16.1814	10.998	22.7303
 567	1	2	0.033419	-15.0489	8.24097	22.2841
 568	1	4	0.005395	-17.0795	8.8449	22.3497
 569	1	4	0.019028	-16.4774	8.07612	23.886
 570	1	2	0.058829	-13.8249	7.82608	23.1106
 571	1	4	-0.00779	-14.6676	8.98362	21.5903
 572	1	4	-0.029026	-15.4473	7.3605	21.7038
 573	1	2	-0.029357	-12.6881	6.98383	22.5465
 574	1	4	-0.003083	-14.2323	7.17709	23.9165
 575	1	4	-0.010137	-13.4674	8.67856	23.6689
 576	1	2	-0.000585	-13.1637	5.62567	21.9992
 577	1	4	0.006084	-12.0918	6.85975	23.4491
 578	1	4	0.012201	-12.0526	7.48518	21.8031
 579	1	2	-0.03118	-11.9679	4.7246	21.7552
 580	1	4	0.011412	-13.6936	5.73851	21.0494
 581	1	4	0.011566	-13.8024	5.11875	22.7678
 582	1	2	-0.057912	-11.0137	4.49611	22.9527
 583	1	4	0.001922	-11.4062	5.11574	20.926
 584	1	4	0.021794	-12.3624	3.74128	21.4481
 585	1	8	-0.501673	-10.0295	2.6631	21.8168
 586	1	9	0.462	-9.95376	3.48259	22.7009
 587	1	4	0.029593	-11.5757	4.22386	23.8755
 588	1	4	0.042406	-10.4117	5.41187	23.0952
 589	1	6	-0.353484	-21.932	14.6817	37.4687
 590	1	2	0.376337	-22.1463	15.877	36.6778
 591	1	2	-0.897489	-20.8822	16.6297	36.3788
 592	1	3	0.034041	-22.9057	16.5144	37.2037
 593	1	3	0.012328	-22.5414	15.4989	35.7021
 594	1	7	0.229239	-21.3543	14.1161	36.9053
 595	1	2	0.531206	-20.7938	17.0505	34.897
 596	1	4	0.202592	-20.0206	15.9722	36.4806
 597	1	4	0.099501	-20.7703	17.4573	37.0502
 598	1	2	0.171725	-21.054	15.9415	33.7449
 599	1	4	-0.10542	-19.828	17.4877	34.7188
 600	1	4	-0.137294	-21.5689	17.7694	34.7591
 601	1	2	-0.155467	-20.8809	16.4011	32.2679
 602	1	4	-0.053736	-21.9843	15.4128	33.7798
 603	1	4	0.001015	-20.3297	15.1614	33.93
 604	1	2	0.033419	-22.3767	16.7941	31.7464
 605	1	4	0.005395	-20.4664	15.6047	31.6132
 606	1	4	0.019028	-20.2872	17.3092	32.1632
 607	1	2	0.058829	-22.6635	17.1392	30.2586
 608	1	4	-0.00779	-22.8271	17.5704	32.339
 609	1	4	-0.029026	-22.9739	15.8752	31.9613
 610	1	2	-0.029357	-22.2495	16.151	29.1389
 611	1	4	-0.003083	-22.1485	18.0717	30.1303
 612	1	4	-0.010137	-23.7251	17.3565	30.2873
 613	1	2	-0.000585	-20.7703	16.1438	28.7671
 614	1	4	0.006084	-22.9133	16.3198	28.2869
 615	1	4	0.012201	-22.6327	15.169	29.4453
 616	1	2	-0.03118	-20.1328	14.7294	28.6998
 617	1	4	0.011412	-20.0639	16.7699	29.4666
 618	1	4	0.011566	-20.7095	16.5679	27.7722
 619	1	2	-0.057912	-18.8808	14.6614	27.7861
 620	1	4	0.001922	-20.9619	14.0914	28.335
 621	1	4	0.021794	-19.8416	14.36	29.7016
 622	1	8	-0.501673	-17.0189	13.9503	29.0202
 623	1	9	0.462	-17.8946	13.6071	28.225
 624	1	4	0.029593	-18.2952	15.5197	27.8069
 625	1	4	0.042406	-19.1637	14.4955	26.769
 626	1	6	-0.353484	-23.3566	12.3369	27.9974
 627	1	2	0.376337	-24.5387	12.0129	28.6949
 628	1	2	-0.897489	-25.0808	13.336	29.148
 629	1	3	0.034041	-24.2491	11.4529	29.5697
 630	1	3	0.012328	-25.2209	11.3819	28.1839
 631	1	7	0.229239	-22.6952	12.7294	28.5925
 632	1	2	0.531206	-26.5476	13.1735	29.6448