pySIMM System Object

849 atoms
848 bonds
1638 angles
2293 dihedrals
0 impropers

10 atom types
12 bond types
28 angle types
12 dihedral types
1 improper types

-77.767223 77.767223 xlo xhi
-77.767223 77.767223 ylo yhi
-77.767223 77.767223 zlo zhi

Masses

   1	16.0	# oh
   2	12.01	# c3
   3	1.008	# h1
   4	1.008	# hc
   5	1.008	# ho
   6	14.01	# n3
   7	1.008	# hn
   8	16.0	# o
   9	12.01	# c
  10	1.008	# h4

Pair Coeffs

   1	0.2104	3.0664733878390478	# oh
   2	0.1094	3.3996695084235347	# c3
   3	0.0157	2.471353044121301	# h1
   4	0.0157	2.649532787749369	# hc
   5	0.0047	0.5379246460131368	# ho
   6	0.17	3.249998523775958	# n3
   7	0.0157	1.069078461768407	# hn
   8	0.21	2.959921901149463	# o
   9	0.086	3.3996695084235347	# c
  10	0.015	2.5105525877194763	# h4

Bond Coeffs

   1	316.7	1.4233	# c3,oh
   2	330.6	1.0969	# c3,h1
   3	371.4	0.973	# ho,oh
   4	300.9	1.5375	# c3,c3
   5	330.6	1.0969	# c3,hc
   6	392.4	1.019	# hn,n3
   7	637.7	1.2183	# c,o
   8	325.9	1.4647	# c3,n3
   9	310.7	1.1121	# c,h4
  10	313.0	1.5241	# c,c3
  11	400.1	1.3513	# c,oh
  12	325.9	1.465	# n3,c

Angle Coeffs

   1	39.24	108.46	# h1,c3,h1
   2	62.86	111.51	# c3,c3,c3
   3	67.47	110.19	# c3,c3,oh
   4	46.34	109.8	# c3,c3,hc
   5	39.4	107.58	# hc,c3,hc
   6	50.93	110.26	# h1,c3,oh
   7	47.38	107.26	# c3,oh,ho
   8	46.39	109.56	# c3,c3,h1
   9	66.02	111.04	# c3,c3,n3
  10	45.64	114.64	# c3,c,h4
  11	41.4	106.4	# hn,n3,hn
  12	67.4	123.2	# c3,c,o
  13	47.42	109.29	# c3,n3,hn
  14	63.27	111.04	# c,c3,c3
  15	46.93	108.77	# c,c3,hc
  16	49.53	109.88	# h1,c3,n3
  17	54.22	120.7	# h4,c,o
  18	67.9	109.98	# c3,oh,c
  19	68.4	112.73	# c3,c,oh
  20	75.92	122.1	# o,c,oh
  21	63.8	112.35	# c3,n3,c
  22	47.4	109.29	# hn,n3,c
  23	66.0	111.04	# n3,c,c3
  24	70.9	110.7	# n3,c,o
  25	63.82	112.35	# c3,n3,c3
  26	49.55	109.8	# hc,c3,n3
  27	62.7	112.48	# c3,oh,c3
  28	51.11	109.5	# hc,c3,oh

Dihedral Coeffs

   1	1	0.15555555555555556	3	0	# X,c3,c3,X
   2	2	0.16	3	0	0.25	1	0	# ho,oh,c3,c3
   3	1	0.16	3	0	# hc,c3,c3,c3
   4	1	0.15	3	0	# hc,c3,c3,hc
   5	1	0.16666666666666666	3	0	# X,c3,oh,X
   6	2	0.0	3	0	0.25	1	0	# hc,c3,c3,oh
   7	1	0.3	3	0	# X,c3,n3,X
   8	3	0.18	3	0	0.25	2	180	0.2	1	180	# c3,c3,c3,c3
   9	1	0.0	2	180	# X,c,c3,X
  10	3	0.8	1	0	0.0	2	0	0.08	3	180	# hc,c3,c,o
  11	1	2.3	2	180	# X,c,oh,X
  12	2	0.3	3	0	0.48	2	180	# c3,c3,n3,c3

Improper Coeffs

   1	10.5	-1	2	# c,X,X,o

Atoms

   1	1	1	-0.26285	11.1665	-27.8497	-4.34907
   2	1	2	0.431937	11.817	-26.6368	-3.93643
   3	1	2	0.196566	13.3282	-26.5208	-4.00157
   4	1	3	-0.176879	11.5212	-26.464	-2.876
   5	1	3	-0.045056	11.4217	-25.7568	-4.49815
   6	1	2	0.080387	14.0154	-27.762	-3.39244
   7	1	4	0.032783	13.6581	-25.6355	-3.44331
   8	1	4	-0.126889	13.6677	-26.3509	-5.04218
   9	1	4	-0.081548	13.416	-28.1427	-2.54462
  10	1	4	-0.048451	14.0159	-28.5709	-4.12747
  11	1	6	-0.353484	7.64904	-38.931	-4.79509
  12	1	2	0.376337	8.39927	-38.7388	-3.59042
  13	1	2	-0.897489	9.68608	-37.9988	-3.85974
  14	1	3	0.034041	8.63856	-39.7003	-3.05841
  15	1	3	0.012328	7.79108	-38.1266	-2.90467
  16	1	7	0.229239	8.20231	-39.4436	-5.41774
  17	1	2	0.531206	9.51374	-36.5355	-4.35164
  18	1	4	0.202592	10.3078	-38.5076	-4.60482
  19	1	4	0.099501	10.2019	-37.9863	-2.91729
  20	1	2	0.171725	10.8434	-35.7672	-4.40259
  21	1	4	-0.10542	8.80924	-36.0234	-3.7049
  22	1	4	-0.137294	9.02719	-36.6313	-5.31858
  23	1	2	-0.155467	10.7216	-34.3658	-5.07564
  24	1	4	-0.053736	11.5969	-36.3749	-4.91377
  25	1	4	0.001015	11.1827	-35.6673	-3.37285
  26	1	2	0.033419	10.2918	-34.4141	-6.57355
  27	1	4	0.005395	11.6673	-33.8217	-4.97417
  28	1	4	0.019028	9.99825	-33.7536	-4.50375
  29	1	2	0.058829	10.2558	-33.0471	-7.2948
  30	1	4	-0.00779	9.31172	-34.8947	-6.69258
  31	1	4	-0.029026	10.9619	-35.0914	-7.09517
  32	1	2	-0.029357	9.09483	-32.0852	-6.94422
  33	1	4	-0.003083	10.323	-33.2061	-8.38234
  34	1	4	-0.010137	11.1739	-32.5372	-7.01662
  35	1	2	-0.000585	9.13088	-30.8178	-7.8088
  36	1	4	0.006084	9.09273	-31.8428	-5.87096
  37	1	4	0.012201	8.13609	-32.5993	-7.20592
  38	1	2	-0.03118	10.2396	-29.8223	-7.36869
  39	1	4	0.011412	8.16303	-30.3599	-7.72023
  40	1	4	0.011566	9.33611	-31.1067	-8.85719
  41	1	2	-0.057912	10.111	-29.2874	-5.91743
  42	1	4	0.001922	10.1841	-28.9483	-8.02331
  43	1	4	0.021794	11.2321	-30.2099	-7.49845
  44	1	8	-0.501673	11.8575	-27.5831	-6.45991
  45	1	9	0.462	11.2116	-28.1949	-5.62538
  46	1	4	0.029593	10.2312	-30.1062	-5.21047
  47	1	4	0.042406	9.12574	-28.8642	-5.69706
  48	1	6	-0.353484	-0.727976	-37.6638	2.55036
  49	1	2	0.376337	-0.79855	-39.0478	2.10285
  50	1	2	-0.897489	-2.23533	-39.421	1.54901
  51	1	3	0.034041	-0.599293	-39.6636	2.96949
  52	1	3	0.012328	-0.0556072	-39.1975	1.32477
  53	1	7	0.229239	-0.912653	-37.1177	1.72955
  54	1	2	0.531206	-2.34908	-40.8588	0.960493
  55	1	4	0.202592	-2.57097	-38.7178	0.763514
  56	1	4	0.099501	-2.94198	-39.325	2.36671
  57	1	2	0.171725	-1.98784	-41.0586	-0.561874
  58	1	4	-0.10542	-3.33297	-41.3001	1.13148
  59	1	4	-0.137294	-1.67587	-41.4567	1.53742
  60	1	2	-0.155467	-0.679274	-40.4064	-0.959663
  61	1	4	-0.053736	-2.76654	-40.5803	-1.19266
  62	1	4	0.001015	-1.90732	-42.1066	-0.845473
  63	1	2	0.033419	-0.387293	-40.6914	-2.47336
  64	1	4	0.005395	0.173148	-40.8141	-0.386738
  65	1	4	0.019028	-0.768576	-39.3293	-0.849647
  66	1	2	0.058829	0.964522	-40.0204	-2.85148
  67	1	4	-0.00779	-1.1487	-40.2672	-3.13427
  68	1	4	-0.029026	-0.375491	-41.7792	-2.67551
  69	1	2	-0.029357	1.26132	-40.119	-4.36648
  70	1	4	-0.003083	1.75528	-40.4771	-2.25568
  71	1	4	-0.010137	0.90618	-38.9583	-2.57829
  72	1	2	-0.000585	2.57214	-39.4264	-4.91852
  73	1	4	0.006084	0.404544	-39.7907	-4.96267
  74	1	4	0.012201	1.33876	-41.1911	-4.5991
  75	1	2	-0.03118	3.94201	-39.99	-4.36425
  76	1	4	0.011412	2.53417	-38.3116	-4.74488
  77	1	4	0.011566	2.59555	-39.5864	-6.00934
  78	1	2	-0.057912	5.18478	-39.2027	-4.87935
  79	1	4	0.001922	4.00865	-41.0411	-4.61137
  80	1	4	0.021794	3.86295	-39.8345	-3.2612
  81	1	8	-0.501673	6.84521	-40.9213	-4.46864
  82	1	9	0.462	6.51481	-39.7562	-4.39338
  83	1	4	0.029593	5.08613	-38.1596	-4.5788
  84	1	4	0.042406	5.19299	-39.221	-5.96769
  85	1	1	-0.26285	2.16039	-35.4813	4.7426
  86	1	2	0.431937	2.20587	-36.8756	5.02226
  87	1	2	0.196566	0.907639	-37.5951	4.50923
  88	1	3	-0.176879	2.29439	-36.9824	6.09959
  89	1	3	-0.045056	3.03727	-37.394	4.53789
  90	1	2	0.080387	0.536621	-37.1818	3.07151
  91	1	4	0.032783	0.107591	-37.3356	5.16365
  92	1	4	-0.126889	0.998384	-38.697	4.57939
  93	1	4	-0.081548	1.36111	-37.3759	2.37959
  94	1	4	-0.048451	0.446094	-36.0929	3.05402
  95	1	1	-0.26285	4.5184	-35.2306	2.80709
  96	1	2	0.431937	4.9795	-34.168	3.61798
  97	1	2	0.196566	3.77616	-33.596	4.42771
  98	1	3	-0.176879	5.32479	-33.3958	2.96257
  99	1	3	-0.045056	5.85676	-34.3796	4.22915
 100	1	2	0.080387	3.18367	-34.6819	5.38494
 101	1	4	0.032783	3.05806	-33.1944	3.73183
 102	1	4	-0.126889	4.13158	-32.6968	4.98936
 103	1	4	-0.081548	2.67178	-34.2084	6.22773
 104	1	4	-0.048451	3.96436	-35.3226	5.80997
 105	1	1	-0.26285	5.63796	-37.7407	-0.0577007
 106	1	2	0.431937	5.97619	-36.4801	0.479835
 107	1	2	0.196566	6.35014	-36.5511	1.97383
 108	1	3	-0.176879	5.16396	-35.7468	0.312531
 109	1	3	-0.045056	6.81139	-36.0767	-0.0893299
 110	1	2	0.080387	5.11201	-36.5115	2.89224
 111	1	4	0.032783	6.96507	-35.6784	2.28644
 112	1	4	-0.126889	7.05519	-37.3734	2.17356
 113	1	4	-0.081548	5.36336	-36.7116	3.94101
 114	1	4	-0.048451	4.39803	-37.253	2.57033
 115	1	6	-0.353484	11.0859	-41.1641	-7.67032
 116	1	2	0.376337	11.436	-41.413	-6.28878
 117	1	2	-0.897489	11.1463	-42.9046	-6.06422
 118	1	3	0.034041	10.7962	-40.7561	-5.67536
 119	1	3	0.012328	12.5199	-41.273	-6.10521
 120	1	7	0.229239	10.1621	-41.5586	-7.78735
 121	1	2	0.531206	11.1319	-43.341	-4.59491
 122	1	4	0.202592	12.0228	-43.3934	-6.4875
 123	1	4	0.099501	10.2316	-43.2911	-6.59954
 124	1	2	0.171725	9.81684	-42.928	-3.83902
 125	1	4	-0.10542	12.0198	-42.9082	-4.11801
 126	1	4	-0.137294	11.2493	-44.4363	-4.54856
 127	1	2	-0.155467	9.96484	-43.157	-2.31602
 128	1	4	-0.053736	8.98817	-43.5441	-4.22746
 129	1	4	0.001015	9.59545	-41.864	-4.05986
 130	1	2	0.033419	8.62415	-42.9953	-1.56643
 131	1	4	0.005395	10.7844	-42.5475	-1.92446
 132	1	4	0.019028	10.2858	-44.1845	-2.22419
 133	1	2	0.058829	8.69464	-43.3434	-0.081819
 134	1	4	-0.00779	7.89502	-43.6551	-2.07528
 135	1	4	-0.029026	8.29912	-41.976	-1.58522
 136	1	2	-0.029357	7.26835	-43.4819	0.561349
 137	1	4	-0.003083	9.37516	-42.6869	0.463073
 138	1	4	-0.010137	9.15473	-44.3543	-0.0418159
 139	1	2	-0.000585	6.25569	-42.3546	0.163424
 140	1	4	0.006084	7.33679	-43.4728	1.65094
 141	1	4	0.012201	6.88655	-44.4665	0.283882
 142	1	2	-0.03118	6.7429	-40.9153	0.473235
 143	1	4	0.011412	5.30241	-42.5283	0.637357
 144	1	4	0.011566	6.1145	-42.467	-0.892157
 145	1	2	-0.057912	6.22868	-39.9829	-0.584281
 146	1	4	0.001922	7.83387	-40.8328	0.549994
 147	1	4	0.021794	6.3229	-40.6065	1.41656
 148	1	8	-0.501673	7.83672	-38.2624	-0.217676
 149	1	9	0.462	6.6662	-38.5585	-0.332136
 150	1	4	0.029593	5.12517	-40.095	-0.77732
 151	1	4	0.042406	6.78909	-40.2818	-1.50693
 152	1	1	-0.26285	12.7415	-37.8775	-9.85922
 153	1	2	0.431937	11.4136	-38.3218	-10.2071
 154	1	2	0.196566	11.1282	-39.7284	-9.61838
 155	1	3	-0.176879	11.3657	-38.4342	-11.2934
 156	1	3	-0.045056	10.6209	-37.6089	-9.88752
 157	1	2	0.080387	11.128	-39.7747	-8.05452
 158	1	4	0.032783	11.8198	-40.4463	-10.1032
 159	1	4	-0.126889	10.1367	-40.1095	-9.98455
 160	1	4	-0.081548	10.2636	-39.2568	-7.66645
 161	1	4	-0.048451	12.0699	-39.353	-7.67807
 162	1	6	-0.353484	11.1688	-26.1857	-14.2948
 163	1	2	0.376337	10.2483	-26.1283	-13.1702
 164	1	2	-0.897489	9.85735	-27.5756	-12.8407
 165	1	3	0.034041	9.37028	-25.5623	-13.4113
 166	1	3	0.012328	10.7035	-25.6369	-12.3146
 167	1	7	0.229239	10.611	-26.5125	-15.0893
 168	1	2	0.531206	11.1227	-28.2037	-12.1998
 169	1	4	0.202592	9.53134	-28.078	-13.7515
 170	1	4	0.099501	9.0764	-27.6158	-12.1098
 171	1	2	0.171725	11.5115	-29.5616	-12.733
 172	1	4	-0.10542	10.8899	-28.3052	-11.1432
 173	1	4	-0.137294	11.9902	-27.5257	-12.2764
 174	1	2	-0.155467	12.6745	-30.1814	-11.9461
 175	1	4	-0.053736	11.8064	-29.4795	-13.8021
 176	1	4	0.001015	10.651	-30.2339	-12.7235
 177	1	2	0.033419	12.2368	-30.7146	-10.5842
 178	1	4	0.005395	13.4888	-29.4287	-11.8511
 179	1	4	0.019028	13.0078	-31.0083	-12.5518
 180	1	2	0.058829	13.328	-31.0889	-9.60643
 181	1	4	-0.00779	11.5736	-31.594	-10.7129
 182	1	4	-0.029026	11.6143	-29.9869	-10.0719
 183	1	2	-0.029357	14.3161	-32.1504	-10.1323
 184	1	4	-0.003083	12.9028	-31.4359	-8.65094
 185	1	4	-0.010137	13.842	-30.1994	-9.37714
 186	1	2	-0.000585	13.8384	-33.5579	-9.78224
 187	1	4	0.006084	15.2783	-31.9703	-9.68364
 188	1	4	0.012201	14.4659	-32.0442	-11.2438
 189	1	2	-0.03118	14.6113	-34.6847	-10.4658
 190	1	4	0.011412	12.7977	-33.5697	-10.072
 191	1	4	0.011566	13.9509	-33.613	-8.68072
 192	1	2	-0.057912	14.3729	-36.0698	-9.81037
 193	1	4	0.001922	15.6828	-34.4336	-10.4558
 194	1	4	0.021794	14.33	-34.7116	-11.521
 195	1	8	-0.501673	11.9799	-35.8124	-10.381
 196	1	9	0.462	12.9247	-36.5624	-10.0775
 197	1	4	0.029593	14.5572	-36.0453	-8.70561
 198	1	4	0.042406	15.0962	-36.784	-10.2296
 199	1	1	-0.26285	14.9305	-23.9634	-15.3689
 200	1	2	0.431937	13.76	-24.0231	-16.1884
 201	1	2	0.196566	12.7603	-25.1436	-15.8219
 202	1	3	-0.176879	14.0772	-24.2029	-17.2163
 203	1	3	-0.045056	13.2328	-23.0777	-16.2035
 204	1	2	0.080387	11.7849	-24.9093	-14.6282
 205	1	4	0.032783	13.2964	-26.1044	-15.6897
 206	1	4	-0.126889	12.1138	-25.2866	-16.6641
 207	1	4	-0.081548	11.0486	-24.1623	-14.9241
 208	1	4	-0.048451	12.3376	-24.5569	-13.7577
 209	1	1	-0.26285	17.1781	-20.2841	-14.4277
 210	1	2	0.431937	17.6928	-21.6046	-14.1017
 211	1	2	0.196566	16.5682	-22.6999	-14.0977
 212	1	3	-0.176879	18.0829	-21.5663	-13.0861
 213	1	3	-0.045056	18.4697	-21.9255	-14.7995
 214	1	2	0.080387	15.7513	-22.7816	-15.4125
 215	1	4	0.032783	15.8711	-22.578	-13.2687
 216	1	4	-0.126889	17.1009	-23.6436	-13.9396
 217	1	4	-0.081548	16.4282	-22.8397	-16.2668
 218	1	4	-0.048451	15.126	-21.8987	-15.5293
 219	1	6	-0.353484	13.2379	-24.9973	-9.27579
 220	1	2	0.376337	12.4463	-24.0558	-10.0699
 221	1	2	-0.897489	11.7457	-23.0702	-9.11795
 222	1	3	0.034041	11.6657	-24.5697	-10.6528
 223	1	3	0.012328	13.1084	-23.4932	-10.7383
 224	1	7	0.229239	13.8558	-24.469	-8.67163
 225	1	2	0.531206	11.0042	-21.9381	-9.85928
 226	1	4	0.202592	12.4505	-22.6544	-8.39762
 227	1	4	0.099501	11.0143	-23.6073	-8.49663
 228	1	2	0.171725	11.8563	-21.0465	-10.858
 229	1	4	-0.10542	10.5925	-21.2903	-9.07727
 230	1	4	-0.137294	10.1885	-22.3954	-10.3996
 231	1	2	-0.155467	11.7487	-21.4628	-12.3688
 232	1	4	-0.053736	12.9178	-21.0549	-10.5933
 233	1	4	0.001015	11.5504	-20.0046	-10.7688
 234	1	2	0.033419	11.9546	-20.3055	-13.3731
 235	1	4	0.005395	10.7299	-21.7966	-12.5128
 236	1	4	0.019028	12.4081	-22.3116	-12.5651
 237	1	2	0.058829	13.3069	-19.553	-13.2362
 238	1	4	-0.00779	11.1259	-19.5932	-13.218
 239	1	4	-0.029026	11.845	-20.7076	-14.3834
 240	1	2	-0.029357	13.3224	-18.3897	-14.2316
 241	1	4	-0.003083	14.1391	-20.22	-13.4835
 242	1	4	-0.010137	13.4756	-19.1696	-12.2082
 243	1	2	-0.000585	14.7252	-17.9776	-14.7657
 244	1	4	0.006084	12.7507	-17.5299	-13.8458
 245	1	4	0.012201	12.7769	-18.7522	-15.1061
 246	1	2	-0.03118	15.8088	-17.4968	-13.7693
 247	1	4	0.011412	14.5994	-17.2172	-15.5372
 248	1	4	0.011566	15.1082	-18.8506	-15.3062
 249	1	2	-0.057912	17.2535	-17.7688	-14.3273
 250	1	4	0.001922	15.7229	-18.0002	-12.8072
 251	1	4	0.021794	15.646	-16.4338	-13.5549
 252	1	8	-0.501673	19.0468	-19.2323	-13.6367
 253	1	9	0.462	17.8597	-19.1637	-13.9639
 254	1	4	0.029593	17.9096	-16.9581	-13.9412
 255	1	4	0.042406	17.2217	-17.6274	-15.4237
 256	1	1	-0.26285	15.1345	-27.93	-7.14215
 257	1	2	0.431937	15.2806	-26.9837	-8.17356
 258	1	2	0.196566	14.3195	-27.2228	-9.35007
 259	1	3	-0.176879	16.3021	-26.9253	-8.51631
 260	1	3	-0.045056	15.1089	-25.9483	-7.75176
 261	1	2	0.080387	14.0024	-25.9044	-10.1122
 262	1	4	0.032783	13.3614	-27.6037	-8.98005
 263	1	4	-0.126889	14.7584	-27.9606	-10.0373
 264	1	4	-0.081548	13.4319	-26.1666	-11.0036
 265	1	4	-0.048451	14.9287	-25.4022	-10.3831
 266	1	1	-0.26285	18.4081	-29.1651	-5.74111
 267	1	2	0.431937	17.1409	-29.3571	-5.10144
 268	1	2	0.196566	16.1597	-29.9607	-6.15199
 269	1	3	-0.176879	16.7644	-28.4309	-4.62738
 270	1	3	-0.045056	17.2479	-30.1151	-4.33646
 271	1	2	0.080387	15.897	-29.1143	-7.4067
 272	1	4	0.032783	15.1946	-30.2397	-5.68858
 273	1	4	-0.126889	16.5693	-30.9124	-6.52442
 274	1	4	-0.081548	15.4294	-29.744	-8.14783
 275	1	4	-0.048451	16.8471	-28.8498	-7.87316
 276	1	1	-0.26285	22.3067	-28.6727	-7.49131
 277	1	2	0.431937	21.1984	-28.8199	-6.6153
 278	1	2	0.196566	20.1974	-27.6598	-6.78585
 279	1	3	-0.176879	21.5398	-28.8897	-5.5714
 280	1	3	-0.045056	20.6568	-29.7223	-6.89125
 281	1	2	0.080387	18.962	-27.8647	-5.82926
 282	1	4	0.032783	19.88	-27.5534	-7.84035
 283	1	4	-0.126889	20.724	-26.721	-6.56998
 284	1	4	-0.081548	18.2126	-27.1566	-6.21504
 285	1	4	-0.048451	19.1989	-27.5622	-4.8002
 286	1	1	-0.26285	20.2931	-31.5832	-9.7467
 287	1	2	0.431937	21.2757	-31.6865	-8.72024
 288	1	2	0.196566	22.3907	-30.6193	-9.038
 289	1	3	-0.176879	21.7178	-32.6994	-8.71584
 290	1	3	-0.045056	20.8378	-31.5063	-7.72283
 291	1	2	0.080387	22.0652	-29.0803	-8.84092
 292	1	4	0.032783	22.6242	-30.7877	-10.1047
 293	1	4	-0.126889	23.3219	-30.8683	-8.48011
 294	1	4	-0.081548	21.0593	-28.8035	-9.20464
 295	1	4	-0.048451	22.7805	-28.5266	-9.45835
 296	1	1	-0.26285	18.3506	-32.5937	-13.2921
 297	1	2	0.431937	19.0921	-32.7216	-12.0735
 298	1	2	0.196566	18.306	-32.0499	-10.8983
 299	1	3	-0.176879	20.0826	-32.2901	-12.2516
 300	1	3	-0.045056	19.2264	-33.7668	-11.7612
 301	1	2	0.080387	19.0189	-32.148	-9.56065
 302	1	4	0.032783	17.3577	-32.5708	-10.7942
 303	1	4	-0.126889	18.0715	-31.0037	-11.1522
 304	1	4	-0.081548	19.1481	-33.1887	-9.22929
 305	1	4	-0.048451	18.4952	-31.5922	-8.78494
 306	1	1	-0.26285	14.1137	-33.6367	-13.8453
 307	1	2	0.431937	15.167	-34.2808	-14.6221
 308	1	2	0.196566	16.3996	-33.3428	-14.6447
 309	1	3	-0.176879	14.7988	-34.438	-15.6361
 310	1	3	-0.045056	15.3941	-35.2433	-14.1982
 311	1	2	0.080387	17.0201	-33.1533	-13.25
 312	1	4	0.032783	16.1033	-32.3963	-15.096
 313	1	4	-0.126889	17.144	-33.7609	-15.3371
 314	1	4	-0.081548	17.0034	-34.115	-12.721
 315	1	4	-0.048451	16.3816	-32.4106	-12.729
 316	1	1	-0.26285	9.87211	-33.9894	-14.983
 317	1	2	0.431937	10.3138	-34.0681	-13.6226
 318	1	2	0.196566	11.6759	-33.3585	-13.4718
 319	1	3	-0.176879	10.4168	-35.1248	-13.2801
 320	1	3	-0.045056	9.59115	-33.6006	-12.9548
 321	1	2	0.080387	12.7994	-34.083	-14.2019
 322	1	4	0.032783	11.9364	-33.3533	-12.3983
 323	1	4	-0.126889	11.5591	-32.2967	-13.7638
 324	1	4	-0.081548	12.6777	-33.9342	-15.2682
 325	1	4	-0.048451	12.6963	-35.1634	-14.0262
 326	1	1	-0.26285	7.59122	-35.5638	-15.812
 327	1	2	0.431937	6.99315	-34.257	-15.9125
 328	1	2	0.196566	8.03229	-33.2024	-16.3806
 329	1	3	-0.176879	6.44743	-33.9051	-15.002
 330	1	3	-0.045056	6.28137	-34.2918	-16.7312
 331	1	2	0.080387	9.06325	-32.8356	-15.2815
 332	1	4	0.032783	7.48016	-32.2773	-16.6346
 333	1	4	-0.126889	8.61228	-33.5609	-17.2395
 334	1	4	-0.081548	8.55411	-32.4282	-14.4231
 335	1	4	-0.048451	9.69388	-32.0274	-15.6956
 336	1	6	-0.353484	4.79611	-27.8776	-8.96811
 337	1	2	0.376337	5.39194	-29.0983	-9.45607
 338	1	2	-0.897489	4.37276	-30.2603	-9.25348
 339	1	3	0.034041	6.35527	-29.34	-8.89624
 340	1	3	0.012328	5.6772	-29.0489	-10.5022
 341	1	7	0.229239	3.94384	-27.6984	-9.49872
 342	1	2	0.531206	4.97763	-31.6375	-9.6018
 343	1	4	0.202592	3.4996	-29.9928	-9.87215
 344	1	4	0.099501	3.94248	-30.3706	-8.22476
 345	1	2	0.171725	3.95102	-32.7523	-9.68276
 346	1	4	-0.10542	5.74824	-31.8195	-8.82816
 347	1	4	-0.137294	5.49737	-31.5674	-10.5775
 348	1	2	-0.155467	4.57971	-34.1468	-9.50012
 349	1	4	-0.053736	3.26758	-32.6093	-10.5663
 350	1	4	0.001015	3.36755	-32.5954	-8.77989
 351	1	2	0.033419	5.58128	-34.6043	-10.5669
 352	1	4	0.005395	3.73458	-34.8278	-9.41556
 353	1	4	0.019028	5.03933	-34.219	-8.48646
 354	1	2	0.058829	6.40519	-35.8226	-10.1029
 355	1	4	-0.00779	6.29017	-33.824	-10.8186
 356	1	4	-0.029026	5.04928	-34.8867	-11.4844
 357	1	2	-0.029357	7.52303	-36.3001	-11.0279
 358	1	4	-0.003083	5.71549	-36.6443	-9.83033
 359	1	4	-0.010137	6.85965	-35.4814	-9.18238
 360	1	2	-0.000585	6.99322	-36.7591	-12.4308
 361	1	4	0.006084	8.05878	-37.1519	-10.5392
 362	1	4	0.012201	8.1971	-35.448	-11.2018
 363	1	2	-0.03118	8.07691	-37.2681	-13.4442
 364	1	4	0.011412	6.39652	-35.9918	-12.9164
 365	1	4	0.011566	6.27222	-37.5512	-12.197
 366	1	2	-0.057912	7.52036	-37.6756	-14.8459
 367	1	4	0.001922	8.65176	-38.1164	-13.0348
 368	1	4	0.021794	8.8562	-36.5364	-13.5803
 369	1	8	-0.501673	5.59651	-36.3468	-15.2
 370	1	9	0.462	6.74944	-36.5761	-15.5307
 371	1	4	0.029593	6.83971	-38.5195	-14.6945
 372	1	4	0.042406	8.29617	-38.0013	-15.5472
 373	1	6	-0.353484	5.94346	-20.8615	-10.4765
 374	1	2	0.376337	4.92291	-19.8054	-10.562
 375	1	2	-0.897489	5.15419	-18.7692	-9.4043
 376	1	3	0.034041	3.91185	-20.2719	-10.5281
 377	1	3	0.012328	5.0061	-19.3316	-11.5517
 378	1	7	0.229239	6.10303	-20.9956	-9.50836
 379	1	2	0.531206	4.52566	-19.2005	-8.02008
 380	1	4	0.202592	4.64051	-17.8262	-9.58563
 381	1	4	0.099501	6.1975	-18.3994	-9.28373
 382	1	2	0.171725	4.90619	-20.624	-7.40964
 383	1	4	-0.10542	3.45965	-19.1267	-8.16125
 384	1	4	-0.137294	4.75335	-18.4778	-7.23762
 385	1	2	-0.155467	6.4056	-20.8776	-7.04847
 386	1	4	-0.053736	4.53499	-21.4771	-8.04697
 387	1	4	0.001015	4.30086	-20.7589	-6.48985
 388	1	2	0.033419	6.67799	-22.2677	-6.42622
 389	1	4	0.005395	6.81464	-20.0531	-6.42347
 390	1	4	0.019028	7.01177	-20.7503	-7.9618
 391	1	2	0.058829	8.18403	-22.5825	-6.74867
 392	1	4	-0.00779	6.02547	-22.9834	-6.90604
 393	1	4	-0.029026	6.52427	-22.2857	-5.31179
 394	1	2	-0.029357	8.6024	-23.9804	-6.22233
 395	1	4	-0.003083	8.85607	-21.7753	-6.38174
 396	1	4	-0.010137	8.35619	-22.6247	-7.82473
 397	1	2	-0.000585	8.48739	-25.1321	-7.21823
 398	1	4	0.006084	7.99761	-24.267	-5.30327
 399	1	4	0.012201	9.66696	-23.9312	-5.89543
 400	1	2	-0.03118	7.07646	-25.3483	-7.81346
 401	1	4	0.011412	8.78899	-26.0363	-6.66601
 402	1	4	0.011566	9.17795	-24.9977	-8.07302
 403	1	2	-0.057912	6.86342	-26.6606	-8.58622
 404	1	4	0.001922	6.88536	-24.4872	-8.45194
 405	1	4	0.021794	6.34819	-25.2299	-7.01472
 406	1	8	-0.501673	5.38955	-26.322	-10.3892
 407	1	9	0.462	5.52803	-26.6516	-9.23587
 408	1	4	0.029593	7.00409	-27.4844	-7.86241
 409	1	4	0.042406	7.66069	-26.8258	-9.34796
 410	1	6	-0.353484	11.3087	-30.2476	-19.6816
 411	1	2	0.376337	10.4915	-29.0924	-19.3916
 412	1	2	-0.897489	10.1799	-28.993	-17.8695
 413	1	3	0.034041	9.60237	-29.0878	-19.9965
 414	1	3	0.012328	11.0713	-28.2066	-19.7177
 415	1	7	0.229239	11.5141	-30.2243	-20.6821
 416	1	2	0.531206	9.16855	-27.8777	-17.5129
 417	1	4	0.202592	11.065	-28.8179	-17.3218
 418	1	4	0.099501	9.81157	-29.938	-17.5572
 419	1	2	0.171725	9.75594	-26.5378	-17.9562
 420	1	4	-0.10542	9.0206	-27.8401	-16.4299
 421	1	4	-0.137294	8.18299	-28.0656	-17.9034
 422	1	2	-0.155467	9.13707	-25.2752	-17.2112
 423	1	4	-0.053736	9.5333	-26.4204	-19.0752
 424	1	4	0.001015	10.829	-26.4806	-17.9243
 425	1	2	0.033419	7.60824	-25.342	-17.2735
 426	1	4	0.005395	9.51679	-24.3974	-17.7208
 427	1	4	0.019028	9.41166	-25.3338	-16.144
 428	1	2	0.058829	6.85718	-24.11	-16.6164
 429	1	4	-0.00779	7.24173	-26.2201	-16.7725
 430	1	4	-0.029026	7.19937	-25.3919	-18.3197
 431	1	2	-0.029357	7.34493	-23.6387	-15.2074
 432	1	4	-0.003083	5.79074	-24.2574	-16.6394
 433	1	4	-0.010137	6.94238	-23.1943	-17.2068
 434	1	2	-0.000585	6.56031	-22.4766	-14.5638
 435	1	4	0.006084	8.39256	-23.3521	-15.3523
 436	1	4	0.012201	7.41632	-24.5682	-14.493
 437	1	2	-0.03118	6.97115	-22.2834	-13.0122
 438	1	4	0.011412	5.49584	-22.6854	-14.6654
 439	1	4	0.011566	6.66149	-21.5487	-15.1287
 440	1	2	-0.057912	7.18008	-20.7761	-12.6476
 441	1	4	0.001922	7.94834	-22.7939	-12.8385
 442	1	4	0.021794	6.20842	-22.7482	-12.3148
 443	1	8	-0.501673	7.97373	-20.9644	-10.368
 444	1	9	0.462	7.17022	-20.4675	-11.1279
 445	1	4	0.029593	6.4429	-20.1548	-13.1217
 446	1	4	0.042406	8.19531	-20.5081	-13.1177
 447	1	6	-0.353484	19.0093	-23.5523	-8.15773
 448	1	2	0.376337	19.4256	-24.3632	-9.31398
 449	1	2	-0.897489	18.2849	-24.4764	-10.3519
 450	1	3	0.034041	19.7026	-25.3759	-8.95701
 451	1	3	0.012328	20.3592	-23.9085	-9.78164
 452	1	7	0.229239	18.0709	-23.8748	-7.91214
 453	1	2	0.531206	18.631	-25.4249	-11.5648
 454	1	4	0.202592	18.1481	-23.4757	-10.7718
 455	1	4	0.099501	17.3925	-24.8341	-9.8662
 456	1	2	0.171725	17.2857	-25.9143	-12.2534
 457	1	4	-0.10542	19.2353	-26.2121	-11.1498
 458	1	4	-0.137294	19.246	-24.8605	-12.2341
 459	1	2	-0.155467	17.2438	-26.8167	-13.5159
 460	1	4	-0.053736	16.5956	-25.0444	-12.4679
 461	1	4	0.001015	16.8264	-26.4789	-11.4848
 462	1	2	0.033419	16.0061	-27.7541	-13.6425
 463	1	4	0.005395	18.135	-27.4289	-13.5624
 464	1	4	0.019028	17.2753	-26.1064	-14.3852
 465	1	2	0.058829	15.867	-28.5169	-14.9679
 466	1	4	-0.00779	15.0757	-27.2493	-13.4425
 467	1	4	-0.029026	16.1504	-28.4716	-12.8511
 468	1	2	-0.029357	14.5254	-29.3816	-14.9998
 469	1	4	-0.003083	16.7238	-29.1819	-15.094
 470	1	4	-0.010137	15.8414	-27.8375	-15.8112
 471	1	2	-0.000585	14.2147	-29.7616	-16.4684
 472	1	4	0.006084	13.6656	-28.8535	-14.6253
 473	1	4	0.012201	14.6457	-30.2534	-14.3901
 474	1	2	-0.03118	12.994	-30.6854	-16.5285
 475	1	4	0.011412	14.9415	-30.3505	-16.9496
 476	1	4	0.011566	13.9913	-28.884	-17.0611
 477	1	2	-0.057912	12.6785	-31.2578	-17.9029
 478	1	4	0.001922	12.139	-30.2106	-16.1134
 479	1	4	0.021794	13.2281	-31.4944	-15.7986
 480	1	8	-0.501673	13.494	-29.999	-19.802
 481	1	9	0.462	12.6318	-30.1769	-19.004
 482	1	4	0.029593	11.6868	-31.6274	-17.7966
 483	1	4	0.042406	13.4072	-32.0704	-18.1021
 484	1	6	-0.353484	23.1633	-12.5619	-2.20707
 485	1	2	0.376337	24.3199	-13.4518	-1.99083
 486	1	2	-0.897489	24.7396	-13.9296	-3.34699
 487	1	3	0.034041	23.9708	-14.2016	-1.30257
 488	1	3	0.012328	25.0977	-12.9135	-1.50134
 489	1	7	0.229239	22.3612	-13.0935	-2.57758
 490	1	2	0.531206	25.3969	-15.3214	-3.2518
 491	1	4	0.202592	25.4966	-13.2136	-3.7112
 492	1	4	0.099501	23.9619	-13.8554	-4.08492
 493	1	2	0.171725	24.4256	-16.4723	-3.50985
 494	1	4	-0.10542	25.9207	-15.4228	-2.30463
 495	1	4	-0.137294	26.187	-15.3865	-4.013
 496	1	2	-0.155467	24.2751	-17.4297	-2.30918
 497	1	4	-0.053736	24.7198	-17.038	-4.40105
 498	1	4	0.001015	23.412	-16.1315	-3.74152
 499	1	2	0.033419	23.1121	-18.4462	-2.53168
 500	1	4	0.005395	24.0517	-16.9134	-1.36168
 501	1	4	0.019028	25.2361	-17.9914	-2.15205
 502	1	2	0.058829	23.1486	-19.3066	-3.81316
 503	1	4	-0.00779	22.1378	-17.9584	-2.43981
 504	1	4	-0.029026	23.2191	-19.1378	-1.65329
 505	1	2	-0.029357	21.9775	-20.3406	-3.84939
 506	1	4	-0.003083	24.16	-19.7798	-3.8981
 507	1	4	-0.010137	23.1189	-18.6484	-4.72332
 508	1	2	-0.000585	22.0453	-21.1302	-5.16809
 509	1	4	0.006084	20.9658	-19.862	-3.79977
 510	1	4	0.012201	22.091	-21.0261	-2.99787
 511	1	2	-0.03118	21.1343	-22.3593	-5.26875
 512	1	4	0.011412	23.0979	-21.465	-5.24371
 513	1	4	0.011566	21.8267	-20.418	-5.93226
 514	1	2	-0.057912	20.8521	-22.5891	-6.76167
 515	1	4	0.001922	20.2447	-22.1778	-4.65978
 516	1	4	0.021794	21.7014	-23.2323	-4.83026
 517	1	8	-0.501673	19.3215	-24.4318	-6.20313
 518	1	9	0.462	19.8907	-23.7507	-7.03275
 519	1	4	0.029593	21.8104	-22.7651	-7.28569
 520	1	4	0.042406	20.4548	-21.7077	-7.23509
 521	1	1	-0.26285	19.9136	-12.4172	-1.3261
 522	1	2	0.431937	20.3295	-11.2573	-0.612526
 523	1	2	0.196566	21.7238	-10.7833	-1.1101
 524	1	3	-0.176879	20.3718	-11.4688	0.50266
 525	1	3	-0.045056	19.6489	-10.4062	-0.809273
 526	1	2	0.080387	22.836	-11.8771	-0.987471
 527	1	4	0.032783	21.9792	-9.89526	-0.453945
 528	1	4	-0.126889	21.7042	-10.4391	-2.13607
 529	1	4	-0.081548	22.517	-12.6393	-0.251924
 530	1	4	-0.048451	23.7253	-11.3891	-0.544832
 531	1	1	-0.26285	17.6038	-9.65872	-2.89508
 532	1	2	0.431937	17.1998	-10.6453	-1.92225
 533	1	2	0.196566	17.7699	-12.0671	-2.42686
 534	1	3	-0.176879	16.1098	-10.6744	-1.73598
 535	1	3	-0.045056	17.6289	-10.3536	-0.936283
 536	1	2	0.080387	19.3051	-12.1788	-2.60821
 537	1	4	0.032783	17.3056	-12.3375	-3.377
 538	1	4	-0.126889	17.4824	-12.8707	-1.71124
 539	1	4	-0.081548	19.6995	-11.3103	-3.13846
 540	1	4	-0.048451	19.5842	-13.0283	-3.26088
 541	1	6	-0.353484	24.6701	-6.25999	0.752043
 542	1	2	0.376337	25.5883	-6.94819	-0.136044
 543	1	2	-0.897489	24.8245	-7.93624	-1.05801
 544	1	3	0.034041	26.2574	-7.5255	0.465458
 545	1	3	0.012328	26.2156	-6.23625	-0.685939
 546	1	7	0.229239	25.1906	-5.97578	1.58265
 547	1	2	0.531206	25.6823	-8.144	-2.31458
 548	1	4	0.202592	23.8409	-7.53136	-1.29176
 549	1	4	0.099501	24.6742	-8.91018	-0.573421
 550	1	2	0.171725	25.2557	-9.28122	-3.28754
 551	1	4	-0.10542	26.6945	-8.34437	-1.95315
 552	1	4	-0.137294	25.628	-7.15946	-2.84194
 553	1	2	-0.155467	23.8786	-9.0978	-4.03525
 554	1	4	-0.053736	25.2138	-10.2445	-2.77466
 555	1	4	0.001015	26.0498	-9.41771	-4.06295
 556	1	2	0.033419	23.7381	-10.052	-5.23584
 557	1	4	0.005395	23.586	-8.07199	-4.2589
 558	1	4	0.019028	23.1085	-9.36363	-3.31386
 559	1	2	0.058829	22.6202	-9.56484	-6.19049
 560	1	4	-0.00779	23.5979	-11.053	-4.90428
 561	1	4	-0.029026	24.6792	-10.0653	-5.79555
 562	1	2	-0.029357	21.2319	-9.64835	-5.51757
 563	1	4	-0.003083	22.6505	-10.2544	-7.0797
 564	1	4	-0.010137	22.7612	-8.5281	-6.57843
 565	1	2	-0.000585	20.138	-9.60017	-6.59234
 566	1	4	0.006084	21.1458	-8.92051	-4.73697
 567	1	4	0.012201	21.1737	-10.6173	-5.01556
 568	1	2	-0.03118	18.772	-10.065	-6.10533
 569	1	4	0.011412	20.3676	-10.2708	-7.40906
 570	1	4	0.011566	20.1333	-8.6104	-7.03085
 571	1	2	-0.057912	18.0297	-9.0227	-5.17512
 572	1	4	0.001922	18.8501	-11.0299	-5.56877
 573	1	4	0.021794	18.1852	-10.3062	-6.95687
 574	1	8	-0.501673	16.1948	-10.4667	-4.56497
 575	1	9	0.462	17.1029	-9.72311	-4.19483
 576	1	4	0.029593	17.4147	-8.28225	-5.73863
 577	1	4	0.042406	18.7943	-8.46677	-4.65947
 578	1	6	-0.353484	27.9567	1.81718	-7.41431
 579	1	2	0.376337	28.439	1.043	-6.25891
 580	1	2	-0.897489	27.5375	-0.179989	-6.02422
 581	1	3	0.034041	29.5091	0.752872	-6.39824
 582	1	3	0.012328	28.3936	1.66018	-5.34941
 583	1	7	0.229239	28.5803	2.59682	-7.5502
 584	1	2	0.531206	27.8672	-0.923296	-4.65949
 585	1	4	0.202592	27.6567	-0.900954	-6.89719
 586	1	4	0.099501	26.4987	0.197439	-6.0529
 587	1	2	0.171725	27.3522	-2.39564	-4.44133
 588	1	4	-0.10542	27.5008	-0.297228	-3.84448
 589	1	4	-0.137294	28.9561	-0.916616	-4.59361
 590	1	2	-0.155467	25.905	-2.64703	-4.92743
 591	1	4	-0.053736	27.4532	-2.64491	-3.41052
 592	1	4	0.001015	27.9624	-3.06086	-5.01974
 593	1	2	0.033419	25.4156	-4.08588	-4.80582
 594	1	4	0.005395	25.8066	-2.30223	-5.95575
 595	1	4	0.019028	25.26	-1.99784	-4.32077
 596	1	2	0.058829	23.881	-4.24824	-5.04239
 597	1	4	-0.00779	25.7377	-4.46294	-3.81873
 598	1	4	-0.029026	25.9382	-4.70365	-5.58317
 599	1	2	-0.029357	22.9444	-3.69897	-3.92802
 600	1	4	-0.003083	23.6878	-5.31444	-5.13741
 601	1	4	-0.010137	23.6017	-3.77746	-6.00735
 602	1	2	-0.000585	22.9632	-4.54048	-2.62698
 603	1	4	0.006084	21.9276	-3.66247	-4.36142
 604	1	4	0.012201	23.2893	-2.6847	-3.71758
 605	1	2	-0.03118	22.3897	-3.91533	-1.33671
 606	1	4	0.011412	24.0169	-4.76318	-2.39175
 607	1	4	0.011566	22.5042	-5.50575	-2.83003
 608	1	2	-0.057912	22.6349	-4.87173	-0.142476
 609	1	4	0.001922	21.316	-3.59443	-1.49106
 610	1	4	0.021794	23.0184	-3.02252	-1.1339
 611	1	8	-0.501673	24.7656	-4.13217	0.780224
 612	1	9	0.462	24.1601	-5.00145	0.206144
 613	1	4	0.029593	22.2355	-5.88224	-0.366728
 614	1	4	0.042406	22.0675	-4.46609	0.742091
 615	1	6	-0.353484	16.8988	-3.60362	-12.7685
 616	1	2	0.376337	17.7789	-4.32417	-11.8489
 617	1	2	-0.897489	19.1775	-4.35648	-12.4617
 618	1	3	0.034041	17.4273	-5.32555	-11.5323
 619	1	3	0.012328	17.8542	-3.77643	-10.9058
 620	1	7	0.229239	17.381	-2.7298	-12.8387
 621	1	2	0.531206	20.2676	-4.46109	-11.3547
 622	1	4	0.202592	19.3313	-3.39564	-12.942
 623	1	4	0.099501	19.2721	-5.18517	-13.2059
 624	1	2	0.171725	21.7346	-4.3081	-11.8844
 625	1	4	-0.10542	20.1213	-5.41086	-10.8129
 626	1	4	-0.137294	20.1587	-3.63979	-10.623
 627	1	2	-0.155467	22.8791	-4.40791	-10.8886