

################################################################################
##################################    Init    ##################################
################################################################################
units           real
atom_style      full
pair_style      lj/cut/coul/long 12.0  12.0
kspace_style    pppm 1e-4
bond_style      harmonic
angle_style     harmonic
dihedral_style  fourier
improper_style  cvff
special_bonds   amber
pair_modify     mix arithmetic
read_data       temp.lmps
  orthogonal box = (-74.2718 -74.2718 -74.2718) to (74.2718 74.2718 74.2718)
  2 by 2 by 4 MPI processor grid
  reading atoms ...
  289 atoms
  reading velocities ...
  289 velocities
  scanning bonds ...
  3 = max bonds/atom
  scanning angles ...
  6 = max angles/atom
  scanning dihedrals ...
  12 = max dihedrals/atom
  reading bonds ...
  288 bonds
  reading angles ...
  540 angles
  reading dihedrals ...
  793 dihedrals
  4 = max # of 1-2 neighbors
  6 = max # of 1-3 neighbors
  12 = max # of 1-4 neighbors
  16 = max # of special neighbors
  special bonds CPU = 0.000805855 secs
  read_data CPU = 0.013623 secs
################################################################################

min_style cg
minimize 1e-05 1e-05 10000 100000
WARNING: Using 'neigh_modify every 1 delay 0 check yes' setting during minimization (../min.cpp:190)
PPPM initialization ...
  using 12-bit tables for long-range coulomb (../kspace.cpp:332)
  G vector (1/distance) = 0.107204
  grid = 15 15 15
  stencil order = 5
  estimated absolute RMS force accuracy = 0.0256884
  estimated relative force accuracy = 7.73599e-05
  using double precision KISS FFT
  3d grid and FFT values/proc = 1521 256
Neighbor list info ...
  update every 1 steps, delay 0 steps, check yes
  max neighbors/atom: 2000, page size: 100000
  master list distance cutoff = 14
  ghost atom cutoff = 14
  binsize = 7, bins = 22 22 22
  1 neighbor lists, perpetual/occasional/extra = 1 0 0
  (1) pair lj/cut/coul/long, perpetual
      attributes: half, newton on
      pair build: half/bin/newton
      stencil: half/bin/3d/newton
      bin: standard
Per MPI rank memory allocation (min/avg/max) = 14.04 | 14.24 | 14.64 Mbytes
Step Temp E_pair E_mol TotEng Press 
       0    889.41921   -299.15817    105.26388    569.64835    9.6488118 
       3    889.41921   -299.14511    105.02263    569.42016    9.6711313 
Loop time of 0.0542446 on 16 procs for 3 steps with 289 atoms

95.6% CPU use with 16 MPI tasks x no OpenMP threads

Minimization stats:
  Stopping criterion = linesearch alpha is zero
  Energy initial, next-to-last, final = 
        -193.894291151     -194.122482949     -194.122482949
  Force two-norm initial, final = 75.6111 24.6024
  Force max component initial, final = 41.0835 11.4351
  Final line search alpha, max atom move = 1.59562e-11 1.82461e-10
  Iterations, force evaluations = 3 75

MPI task timing breakdown:
Section |  min time  |  avg time  |  max time  |%varavg| %total
---------------------------------------------------------------
Pair    | 1.502e-05  | 0.0043936  | 0.018368   |  10.5 |  8.10
Bond    | 3.0518e-05 | 0.0012036  | 0.0051734  |   5.3 |  2.22
Kspace  | 0.028096   | 0.046389   | 0.052382   |   4.2 | 85.52
Neigh   | 0          | 0          | 0          |   0.0 |  0.00
Comm    | 4.6015e-05 | 0.00081716 | 0.001888   |   0.0 |  1.51
Output  | 0          | 0          | 0          |   0.0 |  0.00
Modify  | 0          | 0          | 0          |   0.0 |  0.00
Other   |            | 0.001441   |            |       |  2.66

Nlocal:    18.0625 ave 75 max 0 min
Histogram: 10 1 0 0 1 1 0 0 2 1
Nghost:    94.9375 ave 257 max 0 min
Histogram: 8 0 0 0 0 1 4 1 0 2
Neighs:    763.562 ave 3015 max 0 min
Histogram: 10 1 0 1 0 0 1 0 0 3

Total # of neighbors = 12217
Ave neighs/atom = 42.2734
Ave special neighs/atom = 11.4533
Neighbor list builds = 0
Dangerous builds = 0
timestep        1
fix             pysimm_md all nvt temp 300 300 100
run             5000
PPPM initialization ...
  using 12-bit tables for long-range coulomb (../kspace.cpp:332)
  G vector (1/distance) = 0.107204
  grid = 15 15 15
  stencil order = 5
  estimated absolute RMS force accuracy = 0.0256884
  estimated relative force accuracy = 7.73599e-05
  using double precision KISS FFT
  3d grid and FFT values/proc = 1521 256
Per MPI rank memory allocation (min/avg/max) = 12.91 | 13.11 | 13.52 Mbytes
Step Temp E_pair E_mol TotEng Press 
       3    889.41921   -299.14511    105.02263    569.42016    9.6711313 
    5003     320.7788   -291.84123    316.61781    300.15661   -2.4144318 
Loop time of 2.3215 on 16 procs for 5000 steps with 289 atoms

Performance: 186.087 ns/day, 0.129 hours/ns, 2153.781 timesteps/s
95.8% CPU use with 16 MPI tasks x no OpenMP threads

MPI task timing breakdown:
Section |  min time  |  avg time  |  max time  |%varavg| %total
---------------------------------------------------------------
Pair    | 0.00049925 | 0.12048    | 0.64656    |  57.0 |  5.19
Bond    | 0.00097489 | 0.044825   | 0.20975    |  32.2 |  1.93
Kspace  | 1.2892     | 1.8424     | 1.988      |  15.6 | 79.36
Neigh   | 0.029423   | 0.031318   | 0.033317   |   0.7 |  1.35
Comm    | 0.0050483  | 0.10486    | 0.27832    |  33.9 |  4.52
Output  | 2.1219e-05 | 2.189e-05  | 3.0041e-05 |   0.0 |  0.00
Modify  | 0.025574   | 0.16383    | 0.2911     |  30.3 |  7.06
Other   |            | 0.01378    |            |       |  0.59

Nlocal:    18.0625 ave 121 max 0 min
Histogram: 11 1 0 2 1 0 0 0 0 1
Nghost:    88.9375 ave 234 max 0 min
Histogram: 8 0 0 0 0 2 2 1 0 3
Neighs:    820.625 ave 4261 max 0 min
Histogram: 11 1 0 0 1 0 1 0 1 1

Total # of neighbors = 13130
Ave neighs/atom = 45.4325
Ave special neighs/atom = 11.4533
Neighbor list builds = 145
Dangerous builds = 2
unfix pysimm_md
write_dump all custom pysimm.dump.tmp id q x y z vx vy vz
quit


################################################################################
##################################    Init    ##################################
################################################################################
units           real
atom_style      full
pair_style      lj/cut/coul/long 12.0  12.0
kspace_style    pppm 1e-4
bond_style      harmonic
angle_style     harmonic
dihedral_style  fourier
improper_style  cvff
special_bonds   amber
pair_modify     mix arithmetic
read_data       temp.lmps
  orthogonal box = (-51.0003 -51.0003 -51.0003) to (51.0003 51.0003 51.0003)
  2 by 2 by 4 MPI processor grid
  reading atoms ...
  137 atoms
  reading velocities ...
  137 velocities
  scanning bonds ...
  3 = max bonds/atom
  scanning angles ...
  6 = max angles/atom
  scanning dihedrals ...
  12 = max dihedrals/atom
  reading bonds ...
  136 bonds
  reading angles ...
  257 angles
  reading dihedrals ...
  338 dihedrals
  4 = max # of 1-2 neighbors
  6 = max # of 1-3 neighbors
  12 = max # of 1-4 neighbors
  16 = max # of special neighbors
  special bonds CPU = 0.000752926 secs
  read_data CPU = 0.0107491 secs
################################################################################

min_style cg
minimize 1e-05 1e-05 10000 100000
WARNING: Using 'neigh_modify every 1 delay 0 check yes' setting during minimization (../min.cpp:190)
PPPM initialization ...
  using 12-bit tables for long-range coulomb (../kspace.cpp:332)
  G vector (1/distance) = 0.0974587
  grid = 9 9 9
  stencil order = 5
  estimated absolute RMS force accuracy = 0.03223
  estimated relative force accuracy = 9.70598e-05
  using double precision KISS FFT
  3d grid and FFT values/proc = 800 81
Neighbor list info ...
  update every 1 steps, delay 0 steps, check yes
  max neighbors/atom: 2000, page size: 100000
  master list distance cutoff = 14
  ghost atom cutoff = 14
  binsize = 7, bins = 15 15 15
  1 neighbor lists, perpetual/occasional/extra = 1 0 0
  (1) pair lj/cut/coul/long, perpetual
      attributes: half, newton on
      pair build: half/bin/newton
      stencil: half/bin/3d/newton
      bin: standard
Per MPI rank memory allocation (min/avg/max) = 13.97 | 14.13 | 14.57 Mbytes
Step Temp E_pair E_mol TotEng Press 
       0    943.44854   -2.6586559    31.142645    410.94875    16.687926 
       6    943.44854    -3.202443    31.039375    410.30169    16.813062 
Loop time of 0.0262801 on 16 procs for 6 steps with 137 atoms

98.0% CPU use with 16 MPI tasks x no OpenMP threads

Minimization stats:
  Stopping criterion = linesearch alpha is zero
  Energy initial, next-to-last, final = 
         28.4839889572      27.8369320426      27.8369320426
  Force two-norm initial, final = 10.8445 8.87738
  Force max component initial, final = 2.36384 1.93613
  Final line search alpha, max atom move = 1.0333e-10 2.00061e-10
  Iterations, force evaluations = 6 66

MPI task timing breakdown:
Section |  min time  |  avg time  |  max time  |%varavg| %total
---------------------------------------------------------------
Pair    | 9.0599e-06 | 0.0015108  | 0.0093215  |   6.6 |  5.75
Bond    | 2.861e-05  | 0.00042914 | 0.0020366  |   0.0 |  1.63
Kspace  | 0.013452   | 0.022731   | 0.024923   |   2.2 | 86.50
Neigh   | 0          | 0          | 0          |   0.0 |  0.00
Comm    | 3.3855e-05 | 0.00056724 | 0.001281   |   0.0 |  2.16
Output  | 0          | 0          | 0          |   0.0 |  0.00
Modify  | 0          | 0          | 0          |   0.0 |  0.00
Other   |            | 0.001042   |            |       |  3.96

Nlocal:    8.5625 ave 48 max 0 min
Histogram: 10 3 0 0 0 1 0 1 0 1
Nghost:    55.9375 ave 130 max 0 min
Histogram: 8 0 0 0 0 0 2 1 0 5
Neighs:    318 ave 1912 max 0 min
Histogram: 12 1 0 0 1 0 0 0 1 1

Total # of neighbors = 5088
Ave neighs/atom = 37.1387
Ave special neighs/atom = 10.6861
Neighbor list builds = 0
Dangerous builds = 0
timestep        1
fix             pysimm_md all nvt temp 300 300 100
run             5000
PPPM initialization ...
  using 12-bit tables for long-range coulomb (../kspace.cpp:332)
  G vector (1/distance) = 0.0974587
  grid = 9 9 9
  stencil order = 5
  estimated absolute RMS force accuracy = 0.03223
  estimated relative force accuracy = 9.70598e-05
  using double precision KISS FFT
  3d grid and FFT values/proc = 800 81
Per MPI rank memory allocation (min/avg/max) = 12.85 | 13 | 13.44 Mbytes
Step Temp E_pair E_mol TotEng Press 
       6    943.44854    -3.202443    31.039375    410.30169    16.813062 
    5006     301.0328   0.78730646    140.50012    263.32316     9.811238 
Loop time of 1.47286 on 16 procs for 5000 steps with 137 atoms

Performance: 293.307 ns/day, 0.082 hours/ns, 3394.760 timesteps/s
95.8% CPU use with 16 MPI tasks x no OpenMP threads

MPI task timing breakdown:
Section |  min time  |  avg time  |  max time  |%varavg| %total
---------------------------------------------------------------
Pair    | 0.00064731 | 0.063284   | 0.38976    |  40.1 |  4.30
Bond    | 0.0010571  | 0.025407   | 0.15183    |  26.3 |  1.73
Kspace  | 0.78136    | 1.1256     | 1.205      |  10.4 | 76.42
Neigh   | 0.011742   | 0.012853   | 0.014559   |   0.9 |  0.87
Comm    | 0.0040338  | 0.086797   | 0.20578    |  28.0 |  5.89
Output  | 2.0027e-05 | 2.0638e-05 | 2.6941e-05 |   0.0 |  0.00
Modify  | 0.036276   | 0.14259    | 0.23562    |  23.7 |  9.68
Other   |            | 0.01633    |            |       |  1.11

Nlocal:    8.5625 ave 72 max 0 min
Histogram: 14 0 0 0 0 0 0 1 0 1
Nghost:    56.9375 ave 130 max 0 min
Histogram: 8 0 0 0 1 0 1 0 2 4
Neighs:    370.25 ave 3101 max 0 min
Histogram: 14 0 0 0 0 0 0 1 0 1

Total # of neighbors = 5924
Ave neighs/atom = 43.2409
Ave special neighs/atom = 10.6861
Neighbor list builds = 100
Dangerous builds = 0
unfix pysimm_md
write_dump all custom pysimm.dump.tmp id q x y z vx vy vz
quit


################################################################################
##################################    Init    ##################################
################################################################################
units           real
atom_style      full
pair_style      lj/cut/coul/long 12.0  12.0
kspace_style    pppm 1e-4
bond_style      harmonic
angle_style     harmonic
dihedral_style  fourier
improper_style  cvff
special_bonds   amber
pair_modify     mix arithmetic
read_data       temp.lmps
  orthogonal box = (-52.5011 -52.5011 -52.5011) to (52.5011 52.5011 52.5011)
  2 by 2 by 4 MPI processor grid
  reading atoms ...
  201 atoms
  reading velocities ...
  201 velocities
  scanning bonds ...
  3 = max bonds/atom
  scanning angles ...
  6 = max angles/atom
  scanning dihedrals ...
  12 = max dihedrals/atom
  reading bonds ...
  200 bonds
  reading angles ...
  380 angles
  reading dihedrals ...
  528 dihedrals
  4 = max # of 1-2 neighbors
  6 = max # of 1-3 neighbors
  12 = max # of 1-4 neighbors
  16 = max # of special neighbors
  special bonds CPU = 0.00123 secs
  read_data CPU = 0.0121009 secs
################################################################################

min_style cg
minimize 1e-05 1e-05 10000 100000
WARNING: Using 'neigh_modify every 1 delay 0 check yes' setting during minimization (../min.cpp:190)
PPPM initialization ...
  using 12-bit tables for long-range coulomb (../kspace.cpp:332)
  G vector (1/distance) = 0.10292
  grid = 10 10 10
  stencil order = 5
  estimated absolute RMS force accuracy = 0.0360335
  estimated relative force accuracy = 0.000108514
  using double precision KISS FFT
  3d grid and FFT values/proc = 800 90
Neighbor list info ...
  update every 1 steps, delay 0 steps, check yes
  max neighbors/atom: 2000, page size: 100000
  master list distance cutoff = 14
  ghost atom cutoff = 14
  binsize = 7, bins = 16 16 16
  1 neighbor lists, perpetual/occasional/extra = 1 0 0
  (1) pair lj/cut/coul/long, perpetual
      attributes: half, newton on
      pair build: half/bin/newton
      stencil: half/bin/3d/newton
      bin: standard
Per MPI rank memory allocation (min/avg/max) = 13.99 | 14.15 | 14.58 Mbytes
Step Temp E_pair E_mol TotEng Press 
       0    663.81965   -87.260499    78.327049     386.8106    13.055371 
      44    663.81965   -91.176814    68.487709    373.05495    13.189053 
Loop time of 0.105819 on 16 procs for 44 steps with 201 atoms

93.2% CPU use with 16 MPI tasks x no OpenMP threads

Minimization stats:
  Stopping criterion = linesearch alpha is zero
  Energy initial, next-to-last, final = 
        -8.93345026025     -22.6891058033     -22.6891058033
  Force two-norm initial, final = 25.6775 17.5448
  Force max component initial, final = 5.82929 4.11987
  Final line search alpha, max atom move = 2.2589e-11 9.30638e-11
  Iterations, force evaluations = 44 143

MPI task timing breakdown:
Section |  min time  |  avg time  |  max time  |%varavg| %total
---------------------------------------------------------------
Pair    | 2.0504e-05 | 0.0075329  | 0.053027   |  16.0 |  7.12
Bond    | 6.0797e-05 | 0.0016991  | 0.009351   |   6.9 |  1.61
Kspace  | 0.038401   | 0.091908   | 0.10206    |   5.6 | 86.85
Neigh   | 0          | 0          | 0          |   0.0 |  0.00
Comm    | 8.3208e-05 | 0.00177    | 0.0034819  |   3.0 |  1.67
Output  | 0          | 0          | 0          |   0.0 |  0.00
Modify  | 0          | 0          | 0          |   0.0 |  0.00
Other   |            | 0.002909   |            |       |  2.75

Nlocal:    12.5625 ave 72 max 0 min
Histogram: 11 0 2 0 1 0 0 1 0 1
Nghost:    87.6875 ave 201 max 0 min
Histogram: 8 0 0 0 0 0 1 1 2 4
Neighs:    647.75 ave 4793 max 0 min
Histogram: 11 1 1 2 0 0 0 0 0 1

Total # of neighbors = 10364
Ave neighs/atom = 51.5622
Ave special neighs/atom = 11.0547
Neighbor list builds = 0
Dangerous builds = 0
timestep        1
fix             pysimm_md all nvt temp 300 300 100
run             5000
PPPM initialization ...
  using 12-bit tables for long-range coulomb (../kspace.cpp:332)
  G vector (1/distance) = 0.10292
  grid = 10 10 10
  stencil order = 5
  estimated absolute RMS force accuracy = 0.0360335
  estimated relative force accuracy = 0.000108514
  using double precision KISS FFT
  3d grid and FFT values/proc = 800 90
Per MPI rank memory allocation (min/avg/max) = 12.86 | 13.03 | 13.45 Mbytes
Step Temp E_pair E_mol TotEng Press 
      44    663.81965   -91.176814    68.487709    373.05495    13.189053 
    5044    320.46827   -77.506656    180.91243    294.45678    12.620991 
Loop time of 1.77567 on 16 procs for 5000 steps with 201 atoms

Performance: 243.288 ns/day, 0.099 hours/ns, 2815.832 timesteps/s
95.0% CPU use with 16 MPI tasks x no OpenMP threads

MPI task timing breakdown:
Section |  min time  |  avg time  |  max time  |%varavg| %total
---------------------------------------------------------------
Pair    | 0.00049186 | 0.091688   | 0.46493    |  48.8 |  5.16
Bond    | 0.00097156 | 0.034403   | 0.15741    |  27.8 |  1.94
Kspace  | 0.98724    | 1.3631     | 1.4729     |  13.1 | 76.76
Neigh   | 0.023576   | 0.024746   | 0.026924   |   0.8 |  1.39
Comm    | 0.0088611  | 0.094315   | 0.21102    |  25.3 |  5.31
Output  | 2.3127e-05 | 2.3678e-05 | 3.0994e-05 |   0.0 |  0.00
Modify  | 0.031578   | 0.15233    | 0.25128    |  24.7 |  8.58
Other   |            | 0.01507    |            |       |  0.85

Nlocal:    12.5625 ave 77 max 0 min
Histogram: 12 0 0 0 1 1 1 0 0 1
Nghost:    72.9375 ave 159 max 0 min
Histogram: 4 2 0 0 0 3 1 5 0 1
Neighs:    476.875 ave 3370 max 0 min
Histogram: 12 0 2 0 0 0 0 1 0 1

Total # of neighbors = 7630
Ave neighs/atom = 37.9602
Ave special neighs/atom = 11.0547
Neighbor list builds = 125
Dangerous builds = 0
unfix pysimm_md
write_dump all custom pysimm.dump.tmp id q x y z vx vy vz
quit


################################################################################
##################################    Init    ##################################
################################################################################
units           real
atom_style      full
pair_style      lj/cut/coul/long 12.0  12.0
kspace_style    pppm 1e-4
bond_style      harmonic
angle_style     harmonic
dihedral_style  fourier
improper_style  cvff
special_bonds   amber
pair_modify     mix arithmetic
read_data       temp.lmps
  orthogonal box = (-81.0597 -81.0597 -81.0597) to (81.0597 81.0597 81.0597)
  2 by 2 by 4 MPI processor grid
  reading atoms ...
  346 atoms
  reading velocities ...
  346 velocities
  scanning bonds ...
  3 = max bonds/atom
  scanning angles ...
  6 = max angles/atom
  scanning dihedrals ...
  12 = max dihedrals/atom
  reading bonds ...
  345 bonds
  reading angles ...
  649 angles
  reading dihedrals ...
  948 dihedrals
  4 = max # of 1-2 neighbors
  6 = max # of 1-3 neighbors
  12 = max # of 1-4 neighbors
  16 = max # of special neighbors
  special bonds CPU = 0.000782013 secs
  read_data CPU = 0.0141542 secs
################################################################################

min_style cg
minimize 1e-05 1e-05 10000 100000
WARNING: Using 'neigh_modify every 1 delay 0 check yes' setting during minimization (../min.cpp:190)
PPPM initialization ...
  using 12-bit tables for long-range coulomb (../kspace.cpp:332)
  G vector (1/distance) = 0.100836
  grid = 15 15 15
  stencil order = 5
  estimated absolute RMS force accuracy = 0.0294029
  estimated relative force accuracy = 8.8546e-05
  using double precision KISS FFT
  3d grid and FFT values/proc = 1521 256
Neighbor list info ...
  update every 1 steps, delay 0 steps, check yes
  max neighbors/atom: 2000, page size: 100000
  master list distance cutoff = 14
  ghost atom cutoff = 14
  binsize = 7, bins = 24 24 24
  1 neighbor lists, perpetual/occasional/extra = 1 0 0
  (1) pair lj/cut/coul/long, perpetual
      attributes: half, newton on
      pair build: half/bin/newton
      stencil: half/bin/3d/newton
      bin: standard
Per MPI rank memory allocation (min/avg/max) = 14.04 | 14.25 | 14.65 Mbytes
Step Temp E_pair E_mol TotEng Press 
       0    1011.2166   -323.67052    168.16193    884.40584    10.625163 
      55    1011.2166   -341.26534    133.52572    832.17482    10.240234 
Loop time of 0.201834 on 16 procs for 55 steps with 346 atoms

95.4% CPU use with 16 MPI tasks x no OpenMP threads

Minimization stats:
  Stopping criterion = linesearch alpha is zero
  Energy initial, next-to-last, final = 
        -155.508593211     -207.739618102     -207.739618102
  Force two-norm initial, final = 58.9905 33.373
  Force max component initial, final = 27.1566 7.81271
  Final line search alpha, max atom move = 1.07945e-11 8.43345e-11
  Iterations, force evaluations = 55 177

MPI task timing breakdown:
Section |  min time  |  avg time  |  max time  |%varavg| %total
---------------------------------------------------------------
Pair    | 2.7895e-05 | 0.01998    | 0.10609    |  23.8 |  9.90
Bond    | 8.8692e-05 | 0.0033995  | 0.016005   |   8.8 |  1.68
Kspace  | 0.072217   | 0.17209    | 0.19649    |   9.5 | 85.27
Neigh   | 0          | 0          | 0          |   0.0 |  0.00
Comm    | 0.00010681 | 0.0022323  | 0.0050931  |   4.5 |  1.11
Output  | 0          | 0          | 0          |   0.0 |  0.00
Modify  | 0          | 0          | 0          |   0.0 |  0.00
Other   |            | 0.004127   |            |       |  2.04

Nlocal:    21.625 ave 104 max 0 min
Histogram: 10 0 2 1 1 0 0 0 0 2
Nghost:    136.75 ave 335 max 0 min
Histogram: 8 0 0 0 0 0 2 2 2 2
Neighs:    1560.69 ave 7438 max 0 min
Histogram: 9 2 2 0 0 0 1 0 0 2

Total # of neighbors = 24971
Ave neighs/atom = 72.1705
Ave special neighs/atom = 11.4277
Neighbor list builds = 0
Dangerous builds = 0
timestep        1
fix             pysimm_md all nvt temp 300 300 100
run             5000
PPPM initialization ...
  using 12-bit tables for long-range coulomb (../kspace.cpp:332)
  G vector (1/distance) = 0.100836
  grid = 15 15 15
  stencil order = 5
  estimated absolute RMS force accuracy = 0.0294029
  estimated relative force accuracy = 8.8546e-05
  using double precision KISS FFT
  3d grid and FFT values/proc = 1521 256
Per MPI rank memory allocation (min/avg/max) = 12.91 | 13.13 | 13.53 Mbytes
Step Temp E_pair E_mol TotEng Press 
      55    1011.2166   -341.26534    133.52572    832.17482    10.240234 
    5055    310.65682   -326.97739    302.51687    295.01257  -0.97527238 
Loop time of 2.78519 on 16 procs for 5000 steps with 346 atoms

Performance: 155.106 ns/day, 0.155 hours/ns, 1795.208 timesteps/s
95.1% CPU use with 16 MPI tasks x no OpenMP threads

MPI task timing breakdown:
Section |  min time  |  avg time  |  max time  |%varavg| %total
---------------------------------------------------------------
Pair    | 0.00048733 | 0.18163    | 1.0996     |  69.1 |  6.52
Bond    | 0.00094175 | 0.050489   | 0.25741    |  32.7 |  1.81
Kspace  | 1.2426     | 2.1858     | 2.3919     |  20.8 | 78.48
Neigh   | 0.043635   | 0.045628   | 0.046856   |   0.5 |  1.64
Comm    | 0.0058625  | 0.12087    | 0.30831    |  36.0 |  4.34
Output  | 2.0027e-05 | 2.0698e-05 | 2.7895e-05 |   0.0 |  0.00
Modify  | 0.030479   | 0.1848     | 0.33473    |  33.6 |  6.64
Other   |            | 0.01597    |            |       |  0.57

Nlocal:    21.625 ave 128 max 0 min
Histogram: 11 1 0 0 1 2 0 0 0 1
Nghost:    70.8125 ave 228 max 0 min
Histogram: 8 1 0 2 0 0 1 2 1 1
Neighs:    1085.38 ave 5742 max 0 min
Histogram: 11 1 0 1 0 0 0 1 1 1

Total # of neighbors = 17366
Ave neighs/atom = 50.1908
Ave special neighs/atom = 11.4277
Neighbor list builds = 137
Dangerous builds = 0
unfix pysimm_md
write_dump all custom pysimm.dump.tmp id q x y z vx vy vz
quit


################################################################################
##################################    Init    ##################################
################################################################################
units           real
atom_style      full
pair_style      lj/cut/coul/long 12.0  12.0
kspace_style    pppm 1e-4
bond_style      harmonic
angle_style     harmonic
dihedral_style  fourier
improper_style  cvff
special_bonds   amber
pair_modify     mix arithmetic
read_data       temp.lmps
  orthogonal box = (-55.2694 -55.2694 -55.2694) to (55.2694 55.2694 55.2694)
  2 by 2 by 4 MPI processor grid
  reading atoms ...
  275 atoms
  reading velocities ...
  275 velocities
  scanning bonds ...
  3 = max bonds/atom
  scanning angles ...
  6 = max angles/atom
  scanning dihedrals ...
  12 = max dihedrals/atom
  reading bonds ...
  274 bonds
  reading angles ...
  518 angles
  reading dihedrals ...
  734 dihedrals
  4 = max # of 1-2 neighbors
  6 = max # of 1-3 neighbors
  12 = max # of 1-4 neighbors
  16 = max # of special neighbors
  special bonds CPU = 0.00130701 secs
  read_data CPU = 0.0133362 secs
################################################################################

min_style cg
minimize 1e-05 1e-05 10000 100000
WARNING: Using 'neigh_modify every 1 delay 0 check yes' setting during minimization (../min.cpp:190)
PPPM initialization ...
  using 12-bit tables for long-range coulomb (../kspace.cpp:332)
  G vector (1/distance) = 0.112604
  grid = 12 12 12
  stencil order = 5
  estimated absolute RMS force accuracy = 0.0302982
  estimated relative force accuracy = 9.12422e-05
  using double precision KISS FFT
  3d grid and FFT values/proc = 968 108
Neighbor list info ...
  update every 1 steps, delay 0 steps, check yes
  max neighbors/atom: 2000, page size: 100000
  master list distance cutoff = 14
  ghost atom cutoff = 14
  binsize = 7, bins = 16 16 16
  1 neighbor lists, perpetual/occasional/extra = 1 0 0
  (1) pair lj/cut/coul/long, perpetual
      attributes: half, newton on
      pair build: half/bin/newton
      stencil: half/bin/3d/newton
      bin: standard
Per MPI rank memory allocation (min/avg/max) = 14 | 14.22 | 14.59 Mbytes
Step Temp E_pair E_mol TotEng Press 
       0    858.32424   -212.72083    91.574799    579.88339    22.091472 
      17    858.32424   -213.81959    89.602578     576.8124    21.989518 
Loop time of 0.0610918 on 16 procs for 17 steps with 275 atoms

96.8% CPU use with 16 MPI tasks x no OpenMP threads

Minimization stats:
  Stopping criterion = linesearch alpha is zero
  Energy initial, next-to-last, final = 
        -121.146027308     -124.217014246     -124.217014246
  Force two-norm initial, final = 19.8962 15.0599
  Force max component initial, final = 4.73343 3.2458
  Final line search alpha, max atom move = 3.89075e-11 1.26286e-10
  Iterations, force evaluations = 17 89

MPI task timing breakdown:
Section |  min time  |  avg time  |  max time  |%varavg| %total
---------------------------------------------------------------
Pair    | 1.7643e-05 | 0.0095354  | 0.032841   |  11.6 | 15.61
Bond    | 3.2187e-05 | 0.0014494  | 0.0043268  |   4.2 |  2.37
Kspace  | 0.021266   | 0.047282   | 0.058782   |   6.1 | 77.39
Neigh   | 0          | 0          | 0          |   0.0 |  0.00
Comm    | 4.3392e-05 | 0.001088   | 0.0024292  |   3.2 |  1.78
Output  | 0          | 0          | 0          |   0.0 |  0.00
Modify  | 0          | 0          | 0          |   0.0 |  0.00
Other   |            | 0.001737   |            |       |  2.84

Nlocal:    17.1875 ave 48 max 0 min
Histogram: 8 0 1 1 0 0 1 1 2 2
Nghost:    111.562 ave 258 max 0 min
Histogram: 8 0 0 0 0 0 0 3 2 3
Neighs:    1254.94 ave 4582 max 0 min
Histogram: 8 0 2 2 0 1 1 0 0 2

Total # of neighbors = 20079
Ave neighs/atom = 73.0145
Ave special neighs/atom = 11.1855
Neighbor list builds = 0
Dangerous builds = 0
timestep        1
fix             pysimm_md all nvt temp 300 300 100
run             5000
PPPM initialization ...
  using 12-bit tables for long-range coulomb (../kspace.cpp:332)
  G vector (1/distance) = 0.112604
  grid = 12 12 12
  stencil order = 5
  estimated absolute RMS force accuracy = 0.0302982
  estimated relative force accuracy = 9.12422e-05
  using double precision KISS FFT
  3d grid and FFT values/proc = 968 108
Per MPI rank memory allocation (min/avg/max) = 12.87 | 13.09 | 13.47 Mbytes
Step Temp E_pair E_mol TotEng Press 
      17    858.32424   -213.81959    89.602578     576.8124    21.989518 
    5017     313.5681   -199.20123    284.87403    341.77703    2.6325975 
Loop time of 3.08784 on 16 procs for 5000 steps with 275 atoms

Performance: 139.904 ns/day, 0.172 hours/ns, 1619.257 timesteps/s
94.4% CPU use with 16 MPI tasks x no OpenMP threads

MPI task timing breakdown:
Section |  min time  |  avg time  |  max time  |%varavg| %total
---------------------------------------------------------------
Pair    | 0.00048566 | 0.17856    | 1.5802     |  90.0 |  5.78
Bond    | 0.00090551 | 0.042553   | 0.30157    |  36.1 |  1.38
Kspace  | 1.0274     | 2.4535     | 2.6584     |  24.9 | 79.46
Neigh   | 0.050884   | 0.052299   | 0.053603   |   0.4 |  1.69
Comm    | 0.0056586  | 0.13249    | 0.31511    |  34.8 |  4.29
Output  | 1.9789e-05 | 2.1413e-05 | 2.9087e-05 |   0.0 |  0.00
Modify  | 0.028301   | 0.21032    | 0.3537     |  31.7 |  6.81
Other   |            | 0.01813    |            |       |  0.59

Nlocal:    17.1875 ave 150 max 0 min
Histogram: 12 2 0 1 0 0 0 0 0 1
Nghost:    79.6875 ave 216 max 0 min
Histogram: 6 0 2 0 3 2 0 0 1 2
Neighs:    1177.69 ave 12258 max 0 min
Histogram: 14 0 0 1 0 0 0 0 0 1

Total # of neighbors = 18843
Ave neighs/atom = 68.52
Ave special neighs/atom = 11.1855
Neighbor list builds = 130
Dangerous builds = 0
unfix pysimm_md
write_dump all custom pysimm.dump.tmp id q x y z vx vy vz
quit


################################################################################
##################################    Init    ##################################
################################################################################
units           real
atom_style      full
pair_style      lj/cut/coul/long 12.0  12.0
kspace_style    pppm 1e-4
bond_style      harmonic
angle_style     harmonic
dihedral_style  fourier
improper_style  cvff
special_bonds   amber
pair_modify     mix arithmetic
read_data       temp.lmps
  orthogonal box = (-85.02 -85.02 -85.02) to (85.02 85.02 85.02)
  2 by 2 by 4 MPI processor grid
  reading atoms ...
  393 atoms
  reading velocities ...
  393 velocities
  scanning bonds ...
  3 = max bonds/atom
  scanning angles ...
  6 = max angles/atom
  scanning dihedrals ...
  12 = max dihedrals/atom
  reading bonds ...
  392 bonds
  reading angles ...
  733 angles
  reading dihedrals ...
  1069 dihedrals
  4 = max # of 1-2 neighbors
  6 = max # of 1-3 neighbors
  12 = max # of 1-4 neighbors
  16 = max # of special neighbors
  special bonds CPU = 0.000771999 secs
  read_data CPU = 0.0145421 secs
################################################################################

min_style cg
minimize 1e-05 1e-05 10000 100000
WARNING: Using 'neigh_modify every 1 delay 0 check yes' setting during minimization (../min.cpp:190)
PPPM initialization ...
  using 12-bit tables for long-range coulomb (../kspace.cpp:332)
  G vector (1/distance) = 0.0974425
  grid = 15 15 15
  stencil order = 5
  estimated absolute RMS force accuracy = 0.0320464
  estimated relative force accuracy = 9.65068e-05
  using double precision KISS FFT
  3d grid and FFT values/proc = 1521 256
Neighbor list info ...
  update every 1 steps, delay 0 steps, check yes
  max neighbors/atom: 2000, page size: 100000
  master list distance cutoff = 14
  ghost atom cutoff = 14
  binsize = 7, bins = 25 25 25
  1 neighbor lists, perpetual/occasional/extra = 1 0 0
  (1) pair lj/cut/coul/long, perpetual
      attributes: half, newton on
      pair build: half/bin/newton
      stencil: half/bin/3d/newton
      bin: standard
Per MPI rank memory allocation (min/avg/max) = 14.04 | 14.26 | 14.65 Mbytes
Step Temp E_pair E_mol TotEng Press 
       0    859.53502   -405.56718     140.9823    739.76249     9.274033 
       6    859.53502   -406.19463    138.77538    736.92811    9.3040241 
Loop time of 0.0651216 on 16 procs for 6 steps with 393 atoms

95.6% CPU use with 16 MPI tasks x no OpenMP threads

Minimization stats:
  Stopping criterion = linesearch alpha is zero
  Energy initial, next-to-last, final = 
        -264.584875121     -267.419253963     -267.419253963
  Force two-norm initial, final = 40.931 31.1417
  Force max component initial, final = 6.73608 9.23732
  Final line search alpha, max atom move = 7.65133e-12 7.06778e-11
  Iterations, force evaluations = 6 71

MPI task timing breakdown:
Section |  min time  |  avg time  |  max time  |%varavg| %total
---------------------------------------------------------------
Pair    | 9.0599e-06 | 0.0097691  | 0.030621   |  12.7 | 15.00
Bond    | 3.5763e-05 | 0.0016387  | 0.0056953  |   5.1 |  2.52
Kspace  | 0.02679    | 0.051302   | 0.063194   |   6.6 | 78.78
Neigh   | 0          | 0          | 0          |   0.0 |  0.00
Comm    | 3.6001e-05 | 0.00099991 | 0.0021913  |   0.0 |  1.54
Output  | 0          | 0          | 0          |   0.0 |  0.00
Modify  | 0          | 0          | 0          |   0.0 |  0.00
Other   |            | 0.001412   |            |       |  2.17

Nlocal:    24.5625 ave 79 max 0 min
Histogram: 9 0 1 1 0 0 1 1 0 3
Nghost:    149.188 ave 361 max 0 min
Histogram: 8 0 0 0 0 0 1 3 2 2
Neighs:    1765.56 ave 5694 max 0 min
Histogram: 9 1 1 0 0 0 1 0 1 3

Total # of neighbors = 28249
Ave neighs/atom = 71.8804
Ave special neighs/atom = 11.4198
Neighbor list builds = 0
Dangerous builds = 0
timestep        1
fix             pysimm_md all nvt temp 300 300 100
run             5000
PPPM initialization ...
  using 12-bit tables for long-range coulomb (../kspace.cpp:332)
  G vector (1/distance) = 0.0974425
  grid = 15 15 15
  stencil order = 5
  estimated absolute RMS force accuracy = 0.0320464
  estimated relative force accuracy = 9.65068e-05
  using double precision KISS FFT
  3d grid and FFT values/proc = 1521 256
Per MPI rank memory allocation (min/avg/max) = 12.91 | 13.14 | 13.53 Mbytes
Step Temp E_pair E_mol TotEng Press 
       6    859.53502   -406.19463    138.77538    736.92811    9.3040241 
    5006    296.44723   -383.48057     337.2366    300.14796    1.7466222 
Loop time of 2.77414 on 16 procs for 5000 steps with 393 atoms

Performance: 155.724 ns/day, 0.154 hours/ns, 1802.360 timesteps/s
94.9% CPU use with 16 MPI tasks x no OpenMP threads

MPI task timing breakdown:
Section |  min time  |  avg time  |  max time  |%varavg| %total
---------------------------------------------------------------
Pair    | 0.00047135 | 0.19911    | 1.0538     |  69.3 |  7.18
Bond    | 0.00088739 | 0.056481   | 0.2327     |  33.0 |  2.04
Kspace  | 1.2637     | 2.149      | 2.3765     |  22.2 | 77.47
Neigh   | 0.046885   | 0.049405   | 0.052059   |   0.8 |  1.78
Comm    | 0.005661   | 0.11989    | 0.31224    |  35.6 |  4.32
Output  | 2.3127e-05 | 2.3872e-05 | 3.314e-05  |   0.0 |  0.00
Modify  | 0.029477   | 0.18576    | 0.33068    |  33.1 |  6.70
Other   |            | 0.01446    |            |       |  0.52

Nlocal:    24.5625 ave 162 max 0 min
Histogram: 11 2 0 0 0 2 0 0 0 1
Nghost:    90.9375 ave 306 max 0 min
Histogram: 8 0 0 2 1 2 0 2 0 1
Neighs:    1139.38 ave 8293 max 0 min
Histogram: 12 1 0 0 2 0 0 0 0 1

Total # of neighbors = 18230
Ave neighs/atom = 46.3868
Ave special neighs/atom = 11.4198
Neighbor list builds = 144
Dangerous builds = 0
unfix pysimm_md
write_dump all custom pysimm.dump.tmp id q x y z vx vy vz
quit


################################################################################
##################################    Init    ##################################
################################################################################
units           real
atom_style      full
pair_style      lj/cut/coul/long 12.0  12.0
kspace_style    pppm 1e-4
bond_style      harmonic
angle_style     harmonic
dihedral_style  fourier
improper_style  cvff
special_bonds   amber
pair_modify     mix arithmetic
read_data       temp.lmps
  orthogonal box = (-86.8688 -86.8688 -86.8688) to (86.8688 86.8688 86.8688)
  2 by 2 by 4 MPI processor grid
  reading atoms ...
  403 atoms
  reading velocities ...
  403 velocities
  scanning bonds ...
  3 = max bonds/atom
  scanning angles ...
  6 = max angles/atom
  scanning dihedrals ...
  12 = max dihedrals/atom
  reading bonds ...
  402 bonds
  reading angles ...
  752 angles
  reading dihedrals ...
  1093 dihedrals
  4 = max # of 1-2 neighbors
  6 = max # of 1-3 neighbors
  12 = max # of 1-4 neighbors
  16 = max # of special neighbors
  special bonds CPU = 0.000840902 secs
  read_data CPU = 0.014698 secs
################################################################################

min_style cg
minimize 1e-05 1e-05 10000 100000
WARNING: Using 'neigh_modify every 1 delay 0 check yes' setting during minimization (../min.cpp:190)
PPPM initialization ...
  using 12-bit tables for long-range coulomb (../kspace.cpp:332)
  G vector (1/distance) = 0.0959315
  grid = 15 15 15
  stencil order = 5
  estimated absolute RMS force accuracy = 0.0325228
  estimated relative force accuracy = 9.79415e-05
  using double precision KISS FFT
  3d grid and FFT values/proc = 1521 256
Neighbor list info ...
  update every 1 steps, delay 0 steps, check yes
  max neighbors/atom: 2000, page size: 100000
  master list distance cutoff = 14
  ghost atom cutoff = 14
  binsize = 7, bins = 25 25 25
  1 neighbor lists, perpetual/occasional/extra = 1 0 0
  (1) pair lj/cut/coul/long, perpetual
      attributes: half, newton on
      pair build: half/bin/newton
      stencil: half/bin/3d/newton
      bin: standard
Per MPI rank memory allocation (min/avg/max) = 14.04 | 14.29 | 14.65 Mbytes
Step Temp E_pair E_mol TotEng Press 
       0    403.34266    -405.2756    127.67272    205.71683    3.8639169 
       1    403.34266    -405.2756    127.67272    205.71683    3.8639169 
Loop time of 0.0519834 on 16 procs for 1 steps with 403 atoms

93.4% CPU use with 16 MPI tasks x no OpenMP threads

Minimization stats:
  Stopping criterion = linesearch alpha is zero
  Energy initial, next-to-last, final = 
         -277.60288014      -277.60288014      -277.60288014
  Force two-norm initial, final = 36.4884 36.4884
  Force max component initial, final = 6.10206 6.10206
  Final line search alpha, max atom move = 7.63122e-12 4.65661e-11
  Iterations, force evaluations = 1 62

MPI task timing breakdown:
Section |  min time  |  avg time  |  max time  |%varavg| %total
---------------------------------------------------------------
Pair    | 5.2452e-06 | 0.0067284  | 0.021208   |   9.7 | 12.94
Bond    | 1.8358e-05 | 0.001504   | 0.0045812  |   4.5 |  2.89
Kspace  | 0.024251   | 0.041731   | 0.050309   |   4.9 | 80.28
Neigh   | 0          | 0          | 0          |   0.0 |  0.00
Comm    | 2.9325e-05 | 0.00077306 | 0.0017006  |   0.0 |  1.49
Output  | 0          | 0          | 0          |   0.0 |  0.00
Modify  | 0          | 0          | 0          |   0.0 |  0.00
Other   |            | 0.001247   |            |       |  2.40

Nlocal:    25.1875 ave 76 max 0 min
Histogram: 8 1 1 0 0 0 3 0 0 3
Nghost:    97.1875 ave 239 max 0 min
Histogram: 8 0 0 0 0 0 1 3 2 2
Neighs:    1286.12 ave 4529 max 0 min
Histogram: 8 1 0 2 1 0 1 1 1 1

Total # of neighbors = 20578
Ave neighs/atom = 51.062
Ave special neighs/atom = 11.3995
Neighbor list builds = 0
Dangerous builds = 0
timestep        1
fix             pysimm_md all nvt temp 300 300 100
run             5000
PPPM initialization ...
  using 12-bit tables for long-range coulomb (../kspace.cpp:332)
  G vector (1/distance) = 0.0959315
  grid = 15 15 15
  stencil order = 5
  estimated absolute RMS force accuracy = 0.0325228
  estimated relative force accuracy = 9.79415e-05
  using double precision KISS FFT
  3d grid and FFT values/proc = 1521 256
Per MPI rank memory allocation (min/avg/max) = 12.91 | 13.16 | 13.52 Mbytes
Step Temp E_pair E_mol TotEng Press 
       1    403.34266    -405.2756    127.67272    205.71683    3.8639169 
    5001    295.05905   -385.90299    327.20769    294.86972    1.1387383 
Loop time of 2.55494 on 16 procs for 5000 steps with 403 atoms

Performance: 169.084 ns/day, 0.142 hours/ns, 1956.991 timesteps/s
93.5% CPU use with 16 MPI tasks x no OpenMP threads

MPI task timing breakdown:
Section |  min time  |  avg time  |  max time  |%varavg| %total
---------------------------------------------------------------
Pair    | 0.00053644 | 0.17863    | 0.74238    |  55.0 |  6.99
Bond    | 0.00081611 | 0.064939   | 0.22102    |  31.9 |  2.54
Kspace  | 1.3772     | 1.958      | 2.1633     |  17.7 | 76.64
Neigh   | 0.036483   | 0.038164   | 0.039781   |   0.6 |  1.49
Comm    | 0.006366   | 0.10379    | 0.29188    |  32.2 |  4.06
Output  | 2.0981e-05 | 2.1785e-05 | 2.9087e-05 |   0.0 |  0.00
Modify  | 0.032087   | 0.19657    | 0.34495    |  32.4 |  7.69
Other   |            | 0.01479    |            |       |  0.58

Nlocal:    25.1875 ave 179 max 0 min
Histogram: 12 1 0 1 0 0 0 1 0 1
Nghost:    59.375 ave 206 max 0 min
Histogram: 8 0 1 1 2 1 1 1 0 1
Neighs:    1002.12 ave 7160 max 0 min
Histogram: 12 2 0 0 0 0 0 0 1 1

Total # of neighbors = 16034
Ave neighs/atom = 39.7866
Ave special neighs/atom = 11.3995
Neighbor list builds = 149
Dangerous builds = 0
unfix pysimm_md
write_dump all custom pysimm.dump.tmp id q x y z vx vy vz
quit


################################################################################
##################################    Init    ##################################
################################################################################
units           real
atom_style      full
pair_style      lj/cut/coul/long 12.0  12.0
kspace_style    pppm 1e-4
bond_style      harmonic
angle_style     harmonic
dihedral_style  fourier
improper_style  cvff
special_bonds   amber
pair_modify     mix arithmetic
read_data       temp.lmps
  orthogonal box = (-58.9646 -58.9646 -58.9646) to (58.9646 58.9646 58.9646)
  2 by 2 by 4 MPI processor grid
  reading atoms ...
  305 atoms
  reading velocities ...
  305 velocities
  scanning bonds ...
  3 = max bonds/atom
  scanning angles ...
  6 = max angles/atom
  scanning dihedrals ...
  12 = max dihedrals/atom
  reading bonds ...
  304 bonds
  reading angles ...
  579 angles
  reading dihedrals ...
  814 dihedrals
  4 = max # of 1-2 neighbors
  6 = max # of 1-3 neighbors
  12 = max # of 1-4 neighbors
  16 = max # of special neighbors
  special bonds CPU = 0.0007689 secs
  read_data CPU = 0.012922 secs
################################################################################

min_style cg
minimize 1e-05 1e-05 10000 100000
WARNING: Using 'neigh_modify every 1 delay 0 check yes' setting during minimization (../min.cpp:190)
PPPM initialization ...
  using 12-bit tables for long-range coulomb (../kspace.cpp:332)
  G vector (1/distance) = 0.107771
  grid = 12 12 12
  stencil order = 5
  estimated absolute RMS force accuracy = 0.0328964
  estimated relative force accuracy = 9.90664e-05
  using double precision KISS FFT
  3d grid and FFT values/proc = 968 108
Neighbor list info ...
  update every 1 steps, delay 0 steps, check yes
  max neighbors/atom: 2000, page size: 100000
  master list distance cutoff = 14
  ghost atom cutoff = 14
  binsize = 7, bins = 17 17 17
  1 neighbor lists, perpetual/occasional/extra = 1 0 0
  (1) pair lj/cut/coul/long, perpetual
      attributes: half, newton on
      pair build: half/bin/newton
      stencil: half/bin/3d/newton
      bin: standard
Per MPI rank memory allocation (min/avg/max) = 14 | 14.21 | 14.6 Mbytes
Step Temp E_pair E_mol TotEng Press 
       0    896.65314   -175.60758    111.96209    748.87133    19.822404 
       3    896.65314   -175.56032    111.65373    748.61022     19.93247 
Loop time of 0.0505245 on 16 procs for 3 steps with 305 atoms

95.7% CPU use with 16 MPI tasks x no OpenMP threads

Minimization stats:
  Stopping criterion = linesearch alpha is zero
  Energy initial, next-to-last, final = 
        -63.6454867591     -63.9065971932     -63.9065971932
  Force two-norm initial, final = 26.6283 16.1186
  Force max component initial, final = 7.75109 2.29727
  Final line search alpha, max atom move = 2.80155e-11 6.4359e-11
  Iterations, force evaluations = 3 64

MPI task timing breakdown:
Section |  min time  |  avg time  |  max time  |%varavg| %total
---------------------------------------------------------------
Pair    | 9.0599e-06 | 0.007216   | 0.024478   |  10.9 | 14.28
Bond    | 2.9802e-05 | 0.0011006  | 0.0052052  |   4.6 |  2.18
Kspace  | 0.018371   | 0.040018   | 0.048832   |   5.4 | 79.21
Neigh   | 0          | 0          | 0          |   0.0 |  0.00
Comm    | 3.767e-05  | 0.00094439 | 0.0018473  |   0.0 |  1.87
Output  | 0          | 0          | 0          |   0.0 |  0.00
Modify  | 0          | 0          | 0          |   0.0 |  0.00
Other   |            | 0.001245   |            |       |  2.46

Nlocal:    19.0625 ave 81 max 0 min
Histogram: 9 0 0 2 2 1 1 0 0 1
Nghost:    130.188 ave 291 max 0 min
Histogram: 8 0 0 0 0 0 0 1 3 4
Neighs:    1600 ave 5187 max 0 min
Histogram: 9 0 1 0 0 1 0 3 1 1

Total # of neighbors = 25600
Ave neighs/atom = 83.9344
Ave special neighs/atom = 11.1607
Neighbor list builds = 0
Dangerous builds = 0
timestep        1
fix             pysimm_md all nvt temp 300 300 100
run             5000
PPPM initialization ...
  using 12-bit tables for long-range coulomb (../kspace.cpp:332)
  G vector (1/distance) = 0.107771
  grid = 12 12 12
  stencil order = 5
  estimated absolute RMS force accuracy = 0.0328964
  estimated relative force accuracy = 9.90664e-05
  using double precision KISS FFT
  3d grid and FFT values/proc = 968 108
Per MPI rank memory allocation (min/avg/max) = 12.87 | 13.08 | 13.47 Mbytes
Step Temp E_pair E_mol TotEng Press 
       3    896.65314   -175.56032    111.65373    748.61022     19.93247 
    5003    318.38303   -148.13531    305.89829    446.27094    1.0036814 
Loop time of 1.81544 on 16 procs for 5000 steps with 305 atoms

Performance: 237.959 ns/day, 0.101 hours/ns, 2754.160 timesteps/s
95.8% CPU use with 16 MPI tasks x no OpenMP threads

MPI task timing breakdown:
Section |  min time  |  avg time  |  max time  |%varavg| %total
---------------------------------------------------------------
Pair    | 0.00047588 | 0.15572    | 0.62661    |  49.1 |  8.58
Bond    | 0.00089431 | 0.047901   | 0.1616     |  26.6 |  2.64
Kspace  | 0.86047    | 1.3397     | 1.5077     |  17.4 | 73.79
Neigh   | 0.030028   | 0.031327   | 0.033215   |   0.6 |  1.73
Comm    | 0.030942   | 0.094317   | 0.23216    |  21.8 |  5.20
Output  | 2.3127e-05 | 2.4274e-05 | 3.1948e-05 |   0.0 |  0.00
Modify  | 0.031991   | 0.13161    | 0.23145    |  26.5 |  7.25
Other   |            | 0.01488    |            |       |  0.82

Nlocal:    19.0625 ave 68 max 0 min
Histogram: 10 0 1 0 0 1 0 1 1 2
Nghost:    112.562 ave 215 max 20 min
Histogram: 4 2 0 2 0 1 0 3 0 4
Neighs:    708.438 ave 2813 max 0 min
Histogram: 10 1 0 0 0 1 1 1 1 1

Total # of neighbors = 11335
Ave neighs/atom = 37.1639
Ave special neighs/atom = 11.1607
Neighbor list builds = 136
Dangerous builds = 0
unfix pysimm_md
write_dump all custom pysimm.dump.tmp id q x y z vx vy vz
quit


################################################################################
##################################    Init    ##################################
################################################################################
units           real
atom_style      full
pair_style      lj/cut/coul/long 12.0  12.0
kspace_style    pppm 1e-4
bond_style      harmonic
angle_style     harmonic
dihedral_style  fourier
improper_style  cvff
special_bonds   amber
pair_modify     mix arithmetic
read_data       temp.lmps
  orthogonal box = (-90.3472 -90.3472 -90.3472) to (90.3472 90.3472 90.3472)
  2 by 2 by 4 MPI processor grid
  reading atoms ...
  477 atoms
  reading velocities ...
  477 velocities
  scanning bonds ...
  3 = max bonds/atom
  scanning angles ...
  6 = max angles/atom
  scanning dihedrals ...
  12 = max dihedrals/atom
  reading bonds ...
  476 bonds
  reading angles ...
  896 angles
  reading dihedrals ...
  1309 dihedrals
  4 = max # of 1-2 neighbors
  6 = max # of 1-3 neighbors
  12 = max # of 1-4 neighbors
  16 = max # of special neighbors
  special bonds CPU = 0.00085187 secs
  read_data CPU = 0.015604 secs
################################################################################

min_style cg
minimize 1e-05 1e-05 10000 100000
WARNING: Using 'neigh_modify every 1 delay 0 check yes' setting during minimization (../min.cpp:190)
PPPM initialization ...
  using 12-bit tables for long-range coulomb (../kspace.cpp:332)
  G vector (1/distance) = 0.0977082
  grid = 16 16 16
  stencil order = 5
  estimated absolute RMS force accuracy = 0.0320579
  estimated relative force accuracy = 9.65415e-05
  using double precision KISS FFT
  3d grid and FFT values/proc = 1521 256
Neighbor list info ...
  update every 1 steps, delay 0 steps, check yes
  max neighbors/atom: 2000, page size: 100000
  master list distance cutoff = 14
  ghost atom cutoff = 14
  binsize = 7, bins = 26 26 26
  1 neighbor lists, perpetual/occasional/extra = 1 0 0
  (1) pair lj/cut/coul/long, perpetual
      attributes: half, newton on
      pair build: half/bin/newton
      stencil: half/bin/3d/newton
      bin: standard
Per MPI rank memory allocation (min/avg/max) = 14.05 | 14.27 | 14.66 Mbytes
Step Temp E_pair E_mol TotEng Press 
       0    332.35438   -495.24752    138.22357    114.54225    3.3775501 
       4    332.35438   -495.23594    137.11489    113.44515    3.4240694 
Loop time of 0.091372 on 16 procs for 4 steps with 477 atoms

95.2% CPU use with 16 MPI tasks x no OpenMP threads

Minimization stats:
  Stopping criterion = linesearch alpha is zero
  Energy initial, next-to-last, final = 
        -357.023950265     -358.121049538     -358.121049538
  Force two-norm initial, final = 31.6789 26.8147
  Force max component initial, final = 6.7669 5.22919
  Final line search alpha, max atom move = 1.11642e-11 5.83795e-11
  Iterations, force evaluations = 4 66

MPI task timing breakdown:
Section |  min time  |  avg time  |  max time  |%varavg| %total
---------------------------------------------------------------
Pair    | 1.0014e-05 | 0.010514   | 0.050785   |  16.0 | 11.51
Bond    | 3.2425e-05 | 0.0016574  | 0.0088003  |   5.8 |  1.81
Kspace  | 0.030997   | 0.076894   | 0.089508   |   6.8 | 84.16
Neigh   | 0          | 0          | 0          |   0.0 |  0.00
Comm    | 4.077e-05  | 0.00088866 | 0.0021715  |   0.0 |  0.97
Output  | 0          | 0          | 0          |   0.0 |  0.00
Modify  | 0          | 0          | 0          |   0.0 |  0.00
Other   |            | 0.001417   |            |       |  1.55

Nlocal:    29.8125 ave 139 max 0 min
Histogram: 9 1 1 1 1 1 1 0 0 1
Nghost:    140.938 ave 333 max 0 min
Histogram: 8 0 0 0 0 1 0 3 0 4
Neighs:    2070.94 ave 9430 max 0 min
Histogram: 9 2 1 0 1 1 0 0 0 2

Total # of neighbors = 33135
Ave neighs/atom = 69.4654
Ave special neighs/atom = 11.4298
Neighbor list builds = 0
Dangerous builds = 0
timestep        1
fix             pysimm_md all nvt temp 300 300 100
run             5000
PPPM initialization ...
  using 12-bit tables for long-range coulomb (../kspace.cpp:332)
  G vector (1/distance) = 0.0977082
  grid = 16 16 16
  stencil order = 5
  estimated absolute RMS force accuracy = 0.0320579
  estimated relative force accuracy = 9.65415e-05
  using double precision KISS FFT
  3d grid and FFT values/proc = 1521 256
Per MPI rank memory allocation (min/avg/max) = 12.92 | 13.14 | 13.53 Mbytes
Step Temp E_pair E_mol TotEng Press 
       4    332.35438   -495.23594    137.11489    113.44515    3.4240694 
    5004    282.70894    -460.5585    433.13757    373.70505   0.62494615 
Loop time of 3.64779 on 16 procs for 5000 steps with 477 atoms

Performance: 118.428 ns/day, 0.203 hours/ns, 1370.691 timesteps/s
95.1% CPU use with 16 MPI tasks x no OpenMP threads

MPI task timing breakdown:
Section |  min time  |  avg time  |  max time  |%varavg| %total
---------------------------------------------------------------
Pair    | 0.00048423 | 0.26926    | 1.6423     |  78.4 |  7.38
Bond    | 0.00087595 | 0.067039   | 0.36977    |  36.4 |  1.84
Kspace  | 1.4176     | 2.8243     | 3.1221     |  25.3 | 77.43
Neigh   | 0.068709   | 0.072195   | 0.076607   |   1.0 |  1.98
Comm    | 0.005754   | 0.14797    | 0.38152    |  39.9 |  4.06
Output  | 2.1935e-05 | 2.3097e-05 | 3.0994e-05 |   0.0 |  0.00
Modify  | 0.029425   | 0.25117    | 0.43536    |  36.4 |  6.89
Other   |            | 0.01583    |            |       |  0.43

Nlocal:    29.8125 ave 167 max 0 min
Histogram: 11 0 2 1 0 0 0 0 1 1
Nghost:    104.875 ave 342 max 0 min
Histogram: 8 0 0 1 0 4 2 0 0 1
Neighs:    1713.81 ave 10969 max 0 min
Histogram: 11 1 2 0 0 0 0 1 0 1

Total # of neighbors = 27421
Ave neighs/atom = 57.4864
Ave special neighs/atom = 11.4298
Neighbor list builds = 173
Dangerous builds = 0
unfix pysimm_md
write_dump all custom pysimm.dump.tmp id q x y z vx vy vz
quit


################################################################################
##################################    Init    ##################################
################################################################################
units           real
atom_style      full
pair_style      lj/cut/coul/long 12.0  12.0
kspace_style    pppm 1e-4
bond_style      harmonic
angle_style     harmonic
dihedral_style  fourier
improper_style  cvff
special_bonds   amber
pair_modify     mix arithmetic
read_data       temp.lmps
  orthogonal box = (-61.1918 -61.1918 -61.1918) to (61.1918 61.1918 61.1918)
  2 by 2 by 4 MPI processor grid
  reading atoms ...
  514 atoms
  reading velocities ...
  514 velocities
  scanning bonds ...
  3 = max bonds/atom
  scanning angles ...
  6 = max angles/atom
  scanning dihedrals ...
  12 = max dihedrals/atom
  reading bonds ...
  513 bonds
  reading angles ...
  956 angles
  reading dihedrals ...
  1400 dihedrals
  4 = max # of 1-2 neighbors
  6 = max # of 1-3 neighbors
  12 = max # of 1-4 neighbors
  16 = max # of special neighbors
  special bonds CPU = 0.000884056 secs
  read_data CPU = 0.0162921 secs
################################################################################

min_style cg
minimize 1e-05 1e-05 10000 100000
WARNING: Using 'neigh_modify every 1 delay 0 check yes' setting during minimization (../min.cpp:190)
PPPM initialization ...
  using 12-bit tables for long-range coulomb (../kspace.cpp:332)
  G vector (1/distance) = 0.121882
  grid = 15 15 15
  stencil order = 5
  estimated absolute RMS force accuracy = 0.0279043
  estimated relative force accuracy = 8.40331e-05
  using double precision KISS FFT
  3d grid and FFT values/proc = 1521 256
Neighbor list info ...
  update every 1 steps, delay 0 steps, check yes
  max neighbors/atom: 2000, page size: 100000
  master list distance cutoff = 14
  ghost atom cutoff = 14
  binsize = 7, bins = 18 18 18
  1 neighbor lists, perpetual/occasional/extra = 1 0 0
  (1) pair lj/cut/coul/long, perpetual
      attributes: half, newton on
      pair build: half/bin/newton
      stencil: half/bin/3d/newton
      bin: standard
Per MPI rank memory allocation (min/avg/max) = 14.03 | 14.24 | 14.67 Mbytes
Step Temp E_pair E_mol TotEng Press 
       0    748.15342    -589.9628    171.86658    725.94674    26.450651 
       2    748.15342    -590.0239    171.33392    725.35298    26.886568 
Loop time of 0.103056 on 16 procs for 2 steps with 514 atoms

93.6% CPU use with 16 MPI tasks x no OpenMP threads

Minimization stats:
  Stopping criterion = linesearch alpha is zero
  Energy initial, next-to-last, final = 
        -418.096222106     -418.689977576     -418.689977576
  Force two-norm initial, final = 46.7603 26.5361
  Force max component initial, final = 16.9474 9.75654
  Final line search alpha, max atom move = 1.68633e-11 1.64527e-10
  Iterations, force evaluations = 2 62

MPI task timing breakdown:
Section |  min time  |  avg time  |  max time  |%varavg| %total
---------------------------------------------------------------
Pair    | 1.1921e-05 | 0.013388   | 0.062832   |  15.8 | 12.99
Bond    | 2.7418e-05 | 0.0017179  | 0.0085351  |   5.7 |  1.67
Kspace  | 0.02891    | 0.085618   | 0.10115    |   7.1 | 83.08
Neigh   | 0          | 0          | 0          |   0.0 |  0.00
Comm    | 3.5524e-05 | 0.00098068 | 0.00226    |   0.0 |  0.95
Output  | 0          | 0          | 0          |   0.0 |  0.00
Modify  | 0          | 0          | 0          |   0.0 |  0.00
Other   |            | 0.001352   |            |       |  1.31

Nlocal:    32.125 ave 137 max 0 min
Histogram: 8 1 2 1 0 2 1 0 0 1
Nghost:    198.25 ave 458 max 0 min
Histogram: 8 0 0 0 0 0 1 0 5 2
Neighs:    3162.38 ave 12489 max 0 min
Histogram: 10 0 1 0 1 0 2 0 0 2

Total # of neighbors = 50598
Ave neighs/atom = 98.4397
Ave special neighs/atom = 11.428
Neighbor list builds = 0
Dangerous builds = 0
timestep        1
fix             pysimm_md all nvt temp 300 300 100
run             5000
PPPM initialization ...
  using 12-bit tables for long-range coulomb (../kspace.cpp:332)
  G vector (1/distance) = 0.121882
  grid = 15 15 15
  stencil order = 5
  estimated absolute RMS force accuracy = 0.0279043
  estimated relative force accuracy = 8.40331e-05
  using double precision KISS FFT
  3d grid and FFT values/proc = 1521 256
Per MPI rank memory allocation (min/avg/max) = 12.91 | 13.11 | 13.54 Mbytes
Step Temp E_pair E_mol TotEng Press 
       2    748.15342    -590.0239    171.33392    725.35298    26.886568 
    5002    298.91057   -596.00084    493.44543    354.52535    2.4697258 
Loop time of 4.34428 on 16 procs for 5000 steps with 514 atoms

Performance: 99.441 ns/day, 0.241 hours/ns, 1150.939 timesteps/s
94.6% CPU use with 16 MPI tasks x no OpenMP threads

MPI task timing breakdown:
Section |  min time  |  avg time  |  max time  |%varavg| %total
---------------------------------------------------------------
Pair    | 0.00052762 | 0.44446    | 2.3899     |  94.5 | 10.23
Bond    | 0.0010111  | 0.07207    | 0.3225     |  33.3 |  1.66
Kspace  | 1.3558     | 3.3517     | 3.8315     |  35.8 | 77.15
Neigh   | 0.10058    | 0.10401    | 0.10632    |   0.6 |  2.39
Comm    | 0.0079885  | 0.13381    | 0.31916    |  35.5 |  3.08
Output  | 2.3127e-05 | 2.4095e-05 | 3.1948e-05 |   0.0 |  0.00
Modify  | 0.032039   | 0.22092    | 0.38977    |  35.1 |  5.09
Other   |            | 0.01731    |            |       |  0.40

Nlocal:    32.125 ave 223 max 0 min
Histogram: 11 0 2 1 1 0 0 0 0 1
Nghost:    175.75 ave 432 max 0 min
Histogram: 8 0 0 0 0 0 1 4 1 2
Neighs:    4031.38 ave 34548 max 0 min
Histogram: 11 3 0 0 1 0 0 0 0 1

Total # of neighbors = 64502
Ave neighs/atom = 125.49
Ave special neighs/atom = 11.428
Neighbor list builds = 159
Dangerous builds = 0
unfix pysimm_md
write_dump all custom pysimm.dump.tmp id q x y z vx vy vz
quit


################################################################################
##################################    Init    ##################################
################################################################################
units           real
atom_style      full
pair_style      lj/cut/coul/long 12.0  12.0
kspace_style    pppm 1e-4
bond_style      harmonic
angle_style     harmonic
dihedral_style  fourier
improper_style  cvff
special_bonds   amber
pair_modify     mix arithmetic
read_data       temp.lmps
  orthogonal box = (-93.5766 -93.5766 -93.5766) to (93.5766 93.5766 93.5766)
  2 by 2 by 4 MPI processor grid
  reading atoms ...
  524 atoms
  reading velocities ...
  524 velocities
  scanning bonds ...
  3 = max bonds/atom
  scanning angles ...
  6 = max angles/atom
  scanning dihedrals ...
  12 = max dihedrals/atom
  reading bonds ...
  523 bonds
  reading angles ...
  978 angles
  reading dihedrals ...
  1428 dihedrals
  4 = max # of 1-2 neighbors
  6 = max # of 1-3 neighbors
  12 = max # of 1-4 neighbors
  16 = max # of special neighbors
  special bonds CPU = 0.00089407 secs
  read_data CPU = 0.016845 secs
################################################################################

min_style cg
minimize 1e-05 1e-05 10000 100000
WARNING: Using 'neigh_modify every 1 delay 0 check yes' setting during minimization (../min.cpp:190)
PPPM initialization ...
  using 12-bit tables for long-range coulomb (../kspace.cpp:332)
  G vector (1/distance) = 0.0952443
  grid = 16 16 16
  stencil order = 5
  estimated absolute RMS force accuracy = 0.0340619
  estimated relative force accuracy = 0.000102576
  using double precision KISS FFT
  3d grid and FFT values/proc = 1521 256
Neighbor list info ...
  update every 1 steps, delay 0 steps, check yes
  max neighbors/atom: 2000, page size: 100000
  master list distance cutoff = 14
  ghost atom cutoff = 14
  binsize = 7, bins = 27 27 27
  1 neighbor lists, perpetual/occasional/extra = 1 0 0
  (1) pair lj/cut/coul/long, perpetual
      attributes: half, newton on
      pair build: half/bin/newton
      stencil: half/bin/3d/newton
      bin: standard
Per MPI rank memory allocation (min/avg/max) = 14.05 | 14.21 | 14.66 Mbytes
Step Temp E_pair E_mol TotEng Press 
       0    530.84921   -548.91992    181.03158    459.68628    4.7864178 
      13    530.84921   -549.31738    179.15783    457.41507     5.047258 
Loop time of 0.245293 on 16 procs for 13 steps with 524 atoms

93.5% CPU use with 16 MPI tasks x no OpenMP threads

Minimization stats:
  Stopping criterion = linesearch alpha is zero
  Energy initial, next-to-last, final = 
        -367.888333412     -370.159545659     -370.159545659
  Force two-norm initial, final = 89.2604 38.1947
  Force max component initial, final = 41.9032 11.5728
  Final line search alpha, max atom move = 8.04749e-12 9.31323e-11
  Iterations, force evaluations = 13 113

MPI task timing breakdown:
Section |  min time  |  avg time  |  max time  |%varavg| %total
---------------------------------------------------------------
Pair    | 2.5749e-05 | 0.019411   | 0.15924    |  30.5 |  7.91
Bond    | 5.126e-05  | 0.0033343  | 0.01943    |  10.4 |  1.36
Kspace  | 0.061505   | 0.21811    | 0.24175    |  10.4 | 88.92
Neigh   | 0          | 0          | 0          |   0.0 |  0.00
Comm    | 6.938e-05  | 0.0016468  | 0.0038784  |   3.4 |  0.67
Output  | 0          | 0          | 0          |   0.0 |  0.00
Modify  | 0          | 0          | 0          |   0.0 |  0.00
Other   |            | 0.002793   |            |       |  1.14

Nlocal:    32.75 ave 193 max 0 min
Histogram: 12 1 0 0 0 0 1 1 0 1
Nghost:    117 ave 291 max 0 min
Histogram: 6 2 0 0 0 1 2 2 0 3
Neighs:    2120.44 ave 17253 max 0 min
Histogram: 13 0 1 0 0 1 0 0 0 1

Total # of neighbors = 33927
Ave neighs/atom = 64.7462
Ave special neighs/atom = 11.4351
Neighbor list builds = 0
Dangerous builds = 0
timestep        1
fix             pysimm_md all nvt temp 300 300 100
run             5000
PPPM initialization ...
  using 12-bit tables for long-range coulomb (../kspace.cpp:332)
  G vector (1/distance) = 0.0952443
  grid = 16 16 16
  stencil order = 5
  estimated absolute RMS force accuracy = 0.0340619
  estimated relative force accuracy = 0.000102576
  using double precision KISS FFT
  3d grid and FFT values/proc = 1521 256
Per MPI rank memory allocation (min/avg/max) = 12.92 | 13.08 | 13.53 Mbytes
Step Temp E_pair E_mol TotEng Press 
      13    530.84921   -549.31738    179.15783    457.41507     5.047258 
    5013    295.91987   -525.60954    479.76386    415.48264    1.2288197 
Loop time of 4.44044 on 16 procs for 5000 steps with 524 atoms

Performance: 97.288 ns/day, 0.247 hours/ns, 1126.014 timesteps/s
94.7% CPU use with 16 MPI tasks x no OpenMP threads

MPI task timing breakdown:
Section |  min time  |  avg time  |  max time  |%varavg| %total
---------------------------------------------------------------
Pair    | 0.00046682 | 0.23842    | 2.1671     | 109.7 |  5.37
Bond    | 0.00095654 | 0.06815    | 0.47941    |  49.6 |  1.53
Kspace  | 1.5773     | 3.5279     | 3.7929     |  29.1 | 79.45
Neigh   | 0.089941   | 0.091759   | 0.094423   |   0.4 |  2.07
Comm    | 0.0059967  | 0.17931    | 0.5198     |  44.4 |  4.04
Output  | 2.1935e-05 | 2.256e-05  | 3.0041e-05 |   0.0 |  0.00
Modify  | 0.028357   | 0.31605    | 0.53376    |  40.1 |  7.12
Other   |            | 0.01879    |            |       |  0.42

Nlocal:    32.75 ave 248 max 0 min
Histogram: 12 1 1 0 0 0 1 0 0 1
Nghost:    73.75 ave 280 max 0 min
Histogram: 7 1 3 0 2 1 0 0 1 1
Neighs:    1673.19 ave 14534 max 0 min
Histogram: 13 1 0 0 0 1 0 0 0 1

Total # of neighbors = 26771
Ave neighs/atom = 51.0897
Ave special neighs/atom = 11.4351
Neighbor list builds = 164
Dangerous builds = 0
unfix pysimm_md
write_dump all custom pysimm.dump.tmp id q x y z vx vy vz
quit


################################################################################
##################################    Init    ##################################
################################################################################
units           real
atom_style      full
pair_style      lj/cut/coul/long 12.0  12.0
kspace_style    pppm 1e-4
bond_style      harmonic
angle_style     harmonic
dihedral_style  fourier
improper_style  cvff
special_bonds   amber
pair_modify     mix arithmetic
read_data       temp.lmps
  orthogonal box = (-95.1109 -95.1109 -95.1109) to (95.1109 95.1109 95.1109)
  2 by 2 by 4 MPI processor grid
  reading atoms ...
  453 atoms
  reading velocities ...
  453 velocities
  scanning bonds ...
  3 = max bonds/atom
  scanning angles ...
  6 = max angles/atom
  scanning dihedrals ...
  12 = max dihedrals/atom
  reading bonds ...
  452 bonds
  reading angles ...
  847 angles
  reading dihedrals ...
  1213 dihedrals
  4 = max # of 1-2 neighbors
  6 = max # of 1-3 neighbors
  12 = max # of 1-4 neighbors
  16 = max # of special neighbors
  special bonds CPU = 0.000895977 secs
  read_data CPU = 0.0158479 secs
################################################################################

min_style cg
minimize 1e-05 1e-05 10000 100000
WARNING: Using 'neigh_modify every 1 delay 0 check yes' setting during minimization (../min.cpp:190)
PPPM initialization ...
  using 12-bit tables for long-range coulomb (../kspace.cpp:332)
  G vector (1/distance) = 0.0897054
  grid = 15 15 15
  stencil order = 5
  estimated absolute RMS force accuracy = 0.0343697
  estimated relative force accuracy = 0.000103503
  using double precision KISS FFT
  3d grid and FFT values/proc = 1521 256
Neighbor list info ...
  update every 1 steps, delay 0 steps, check yes
  max neighbors/atom: 2000, page size: 100000
  master list distance cutoff = 14
  ghost atom cutoff = 14
  binsize = 7, bins = 28 28 28
  1 neighbor lists, perpetual/occasional/extra = 1 0 0
  (1) pair lj/cut/coul/long, perpetual
      attributes: half, newton on
      pair build: half/bin/newton
      stencil: half/bin/3d/newton
      bin: standard
Per MPI rank memory allocation (min/avg/max) = 14.04 | 14.21 | 14.66 Mbytes
Step Temp E_pair E_mol TotEng Press 
       0     358.3541   -389.11661    156.07616     249.7794    2.6005752 
       3     358.3541   -389.31442    154.17324    247.67867    2.7145207 
Loop time of 0.0880504 on 16 procs for 3 steps with 453 atoms

94.2% CPU use with 16 MPI tasks x no OpenMP threads

Minimization stats:
  Stopping criterion = linesearch alpha is zero
  Energy initial, next-to-last, final = 
        -233.040446244     -235.141179951     -235.141179951
  Force two-norm initial, final = 58.8718 36.5839
  Force max component initial, final = 19.2062 12.401
  Final line search alpha, max atom move = 5.64939e-12 7.00582e-11
  Iterations, force evaluations = 3 66

MPI task timing breakdown:
Section |  min time  |  avg time  |  max time  |%varavg| %total
---------------------------------------------------------------
Pair    | 5.9605e-06 | 0.0096055  | 0.046722   |  14.4 | 10.91
Bond    | 2.4557e-05 | 0.0017151  | 0.0079832  |   6.0 |  1.95
Kspace  | 0.030309   | 0.074272   | 0.08604    |   6.2 | 84.35
Neigh   | 0          | 0          | 0          |   0.0 |  0.00
Comm    | 3.0518e-05 | 0.00095625 | 0.0021925  |   0.0 |  1.09
Output  | 0          | 0          | 0          |   0.0 |  0.00
Modify  | 0          | 0          | 0          |   0.0 |  0.00
Other   |            | 0.001501   |            |       |  1.70

Nlocal:    28.3125 ave 131 max 0 min
Histogram: 8 3 2 0 0 0 0 2 0 1
Nghost:    143.688 ave 371 max 0 min
Histogram: 8 0 0 0 0 1 1 3 2 1
Neighs:    1783.44 ave 7783 max 0 min
Histogram: 9 1 0 3 1 0 0 0 0 2

Total # of neighbors = 28535
Ave neighs/atom = 62.9912
Ave special neighs/atom = 11.3113
Neighbor list builds = 0
Dangerous builds = 0
timestep        1
fix             pysimm_md all nvt temp 300 300 100
run             5000
PPPM initialization ...
  using 12-bit tables for long-range coulomb (../kspace.cpp:332)
  G vector (1/distance) = 0.0897054
  grid = 15 15 15
  stencil order = 5
  estimated absolute RMS force accuracy = 0.0343697
  estimated relative force accuracy = 0.000103503
  using double precision KISS FFT
  3d grid and FFT values/proc = 1521 256
Per MPI rank memory allocation (min/avg/max) = 12.92 | 13.09 | 13.54 Mbytes
Step Temp E_pair E_mol TotEng Press 
       3     358.3541   -389.31442    154.17324    247.67867    2.7145207 
    5003    304.87717   -371.67273    397.74351    436.83977  -0.32803885 
Loop time of 2.65159 on 16 procs for 5000 steps with 453 atoms

Performance: 162.921 ns/day, 0.147 hours/ns, 1885.662 timesteps/s
95.5% CPU use with 16 MPI tasks x no OpenMP threads

MPI task timing breakdown:
Section |  min time  |  avg time  |  max time  |%varavg| %total
---------------------------------------------------------------
Pair    | 0.00049591 | 0.2071     | 1.0149     |  64.9 |  7.81
Bond    | 0.00093651 | 0.062598   | 0.24197    |  31.1 |  2.36
Kspace  | 1.1969     | 2.0367     | 2.2702     |  22.0 | 76.81
Neigh   | 0.046129   | 0.04798    | 0.049346   |   0.5 |  1.81
Comm    | 0.0065374  | 0.10355    | 0.28505    |  32.3 |  3.91
Output  | 2.3127e-05 | 2.3678e-05 | 3.0041e-05 |   0.0 |  0.00
Modify  | 0.033994   | 0.17812    | 0.3176     |  31.9 |  6.72
Other   |            | 0.01557    |            |       |  0.59

Nlocal:    28.3125 ave 120 max 0 min
Histogram: 11 0 1 0 0 0 1 0 0 3
Nghost:    76.3125 ave 239 max 0 min
Histogram: 8 0 0 1 1 1 2 2 0 1
Neighs:    1395.62 ave 7364 max 0 min
Histogram: 11 1 0 0 1 1 0 0 0 2

Total # of neighbors = 22330
Ave neighs/atom = 49.2936
Ave special neighs/atom = 11.3113
Neighbor list builds = 148
Dangerous builds = 0
unfix pysimm_md
write_dump all custom pysimm.dump.tmp id q x y z vx vy vz
quit


################################################################################
##################################    Init    ##################################
################################################################################
units           real
atom_style      full
pair_style      lj/cut/coul/long 12.0  12.0
kspace_style    pppm 1e-4
bond_style      harmonic
angle_style     harmonic
dihedral_style  fourier
improper_style  cvff
special_bonds   amber
pair_modify     mix arithmetic
read_data       temp.lmps
  orthogonal box = (-96.5972 -96.5972 -96.5972) to (96.5972 96.5972 96.5972)
  2 by 2 by 4 MPI processor grid
  reading atoms ...
  490 atoms
  reading velocities ...
  490 velocities
  scanning bonds ...
  3 = max bonds/atom
  scanning angles ...
  6 = max angles/atom
  scanning dihedrals ...
  12 = max dihedrals/atom
  reading bonds ...
  489 bonds
  reading angles ...
  923 angles
  reading dihedrals ...
  1327 dihedrals
  4 = max # of 1-2 neighbors
  6 = max # of 1-3 neighbors
  12 = max # of 1-4 neighbors
  16 = max # of special neighbors
  special bonds CPU = 0.000988007 secs
  read_data CPU = 0.0162389 secs
################################################################################

min_style cg
minimize 1e-05 1e-05 10000 100000
WARNING: Using 'neigh_modify every 1 delay 0 check yes' setting during minimization (../min.cpp:190)
PPPM initialization ...
  using 12-bit tables for long-range coulomb (../kspace.cpp:332)
  G vector (1/distance) = 0.0930446
  grid = 16 16 16
  stencil order = 5
  estimated absolute RMS force accuracy = 0.0322268
  estimated relative force accuracy = 9.70499e-05
  using double precision KISS FFT
  3d grid and FFT values/proc = 1521 256
Neighbor list info ...
  update every 1 steps, delay 0 steps, check yes
  max neighbors/atom: 2000, page size: 100000
  master list distance cutoff = 14
  ghost atom cutoff = 14
  binsize = 7, bins = 28 28 28
  1 neighbor lists, perpetual/occasional/extra = 1 0 0
  (1) pair lj/cut/coul/long, perpetual
      attributes: half, newton on
      pair build: half/bin/newton
      stencil: half/bin/3d/newton
      bin: standard
Per MPI rank memory allocation (min/avg/max) = 14.05 | 14.18 | 14.66 Mbytes
Step Temp E_pair E_mol TotEng Press 
       0    944.71329    -374.6417    182.83655    1185.2242    8.7912433 
       6    944.71329   -375.27661    181.28085    1183.0336    8.8473081 
Loop time of 0.124516 on 16 procs for 6 steps with 490 atoms

95.0% CPU use with 16 MPI tasks x no OpenMP threads

Minimization stats:
  Stopping criterion = linesearch alpha is zero
  Energy initial, next-to-last, final = 
        -191.805149715     -193.995750635     -193.995750635
  Force two-norm initial, final = 84.9989 22.2958
  Force max component initial, final = 42.0766 6.77676
  Final line search alpha, max atom move = 1.37429e-11 9.31323e-11
  Iterations, force evaluations = 6 77

MPI task timing breakdown:
Section |  min time  |  avg time  |  max time  |%varavg| %total
---------------------------------------------------------------
Pair    | 1.2398e-05 | 0.011831   | 0.06883    |  19.4 |  9.50
Bond    | 3.2425e-05 | 0.0022043  | 0.012394   |   8.5 |  1.77
Kspace  | 0.040155   | 0.10777    | 0.12228    |   7.7 | 86.55
Neigh   | 0          | 0          | 0          |   0.0 |  0.00
Comm    | 2.718e-05  | 0.0010431  | 0.0022349  |   3.1 |  0.84
Output  | 0          | 0          | 0          |   0.0 |  0.00
Modify  | 0          | 0          | 0          |   0.0 |  0.00
Other   |            | 0.001672   |            |       |  1.34

Nlocal:    30.625 ave 175 max 0 min
Histogram: 10 2 2 0 0 0 0 0 0 2
Nghost:    142.625 ave 379 max 0 min
Histogram: 8 0 0 0 1 1 0 3 2 1
Neighs:    1920.06 ave 11483 max 0 min
Histogram: 11 2 0 1 0 0 0 0 1 1

Total # of neighbors = 30721
Ave neighs/atom = 62.6959
Ave special neighs/atom = 11.3306
Neighbor list builds = 0
Dangerous builds = 0
timestep        1
fix             pysimm_md all nvt temp 300 300 100
run             5000
PPPM initialization ...
  using 12-bit tables for long-range coulomb (../kspace.cpp:332)
  G vector (1/distance) = 0.0930446
  grid = 16 16 16
  stencil order = 5
  estimated absolute RMS force accuracy = 0.0322268
  estimated relative force accuracy = 9.70499e-05
  using double precision KISS FFT
  3d grid and FFT values/proc = 1521 256
Per MPI rank memory allocation (min/avg/max) = 12.93 | 13.06 | 13.53 Mbytes
Step Temp E_pair E_mol TotEng Press 
       6    944.71329   -375.27661    181.28085    1183.0336    8.8473081 
    5006    304.31591    -376.4956    396.93953    464.01971   -1.5364284 
Loop time of 3.45325 on 16 procs for 5000 steps with 490 atoms

Performance: 125.100 ns/day, 0.192 hours/ns, 1447.911 timesteps/s
95.3% CPU use with 16 MPI tasks x no OpenMP threads

MPI task timing breakdown:
Section |  min time  |  avg time  |  max time  |%varavg| %total
---------------------------------------------------------------
Pair    | 0.00044084 | 0.23297    | 1.4215     |  79.1 |  6.75
Bond    | 0.0009203  | 0.06733    | 0.37175    |  38.6 |  1.95
Kspace  | 1.4492     | 2.6622     | 2.9261     |  24.3 | 77.09
Neigh   | 0.062779   | 0.064642   | 0.066903   |   0.6 |  1.87
Comm    | 0.0067823  | 0.1565     | 0.41792    |  38.8 |  4.53
Output  | 2.3127e-05 | 2.4512e-05 | 3.1948e-05 |   0.0 |  0.00
Modify  | 0.034011   | 0.2515     | 0.43934    |  37.4 |  7.28
Other   |            | 0.01806    |            |       |  0.52

Nlocal:    30.625 ave 199 max 0 min
Histogram: 12 1 1 0 0 0 0 0 1 1
Nghost:    151.375 ave 363 max 0 min
Histogram: 4 0 4 0 1 3 1 0 1 2
Neighs:    1537 ave 11924 max 0 min
Histogram: 12 2 0 0 0 0 1 0 0 1

Total # of neighbors = 24592
Ave neighs/atom = 50.1878
Ave special neighs/atom = 11.3306
Neighbor list builds = 150
Dangerous builds = 0
unfix pysimm_md
write_dump all custom pysimm.dump.tmp id q x y z vx vy vz
quit


################################################################################
##################################    Init    ##################################
################################################################################
units           real
atom_style      full
pair_style      lj/cut/coul/long 12.0  12.0
kspace_style    pppm 1e-4
bond_style      harmonic
angle_style     harmonic
dihedral_style  fourier
improper_style  cvff
special_bonds   amber
pair_modify     mix arithmetic
read_data       temp.lmps
  orthogonal box = (-98.0392 -98.0392 -98.0392) to (98.0392 98.0392 98.0392)
  2 by 2 by 4 MPI processor grid
  reading atoms ...
  527 atoms
  reading velocities ...
  527 velocities
  scanning bonds ...
  3 = max bonds/atom
  scanning angles ...
  6 = max angles/atom
  scanning dihedrals ...
  12 = max dihedrals/atom
  reading bonds ...
  526 bonds
  reading angles ...
  989 angles
  reading dihedrals ...
  1427 dihedrals
  4 = max # of 1-2 neighbors
  6 = max # of 1-3 neighbors
  12 = max # of 1-4 neighbors
  16 = max # of special neighbors
  special bonds CPU = 0.00077796 secs
  read_data CPU = 0.01687 secs
################################################################################

min_style cg
minimize 1e-05 1e-05 10000 100000
WARNING: Using 'neigh_modify every 1 delay 0 check yes' setting during minimization (../min.cpp:190)
PPPM initialization ...
  using 12-bit tables for long-range coulomb (../kspace.cpp:332)
  G vector (1/distance) = 0.0920281
  grid = 16 16 16
  stencil order = 5
  estimated absolute RMS force accuracy = 0.0337994
  estimated relative force accuracy = 0.000101786
  using double precision KISS FFT
  3d grid and FFT values/proc = 1521 256
Neighbor list info ...
  update every 1 steps, delay 0 steps, check yes
  max neighbors/atom: 2000, page size: 100000
  master list distance cutoff = 14
  ghost atom cutoff = 14
  binsize = 7, bins = 29 29 29
  1 neighbor lists, perpetual/occasional/extra = 1 0 0
  (1) pair lj/cut/coul/long, perpetual
      attributes: half, newton on
      pair build: half/bin/newton
      stencil: half/bin/3d/newton
      bin: standard
Per MPI rank memory allocation (min/avg/max) = 14.05 | 14.22 | 14.65 Mbytes
Step Temp E_pair E_mol TotEng Press 
       0    484.77222   -464.28311    161.55854    457.35274    4.2415631 
       4    484.77222   -464.74883    160.39701    455.72548    4.1985092 
Loop time of 0.113514 on 16 procs for 4 steps with 527 atoms

93.4% CPU use with 16 MPI tasks x no OpenMP threads

Minimization stats:
  Stopping criterion = linesearch alpha is zero
  Energy initial, next-to-last, final = 
        -302.724568291     -304.351826278     -304.351826278
  Force two-norm initial, final = 47.2976 32.879
  Force max component initial, final = 19.9075 5.39973
  Final line search alpha, max atom move = 1.05615e-11 5.70293e-11
  Iterations, force evaluations = 4 71

MPI task timing breakdown:
Section |  min time  |  avg time  |  max time  |%varavg| %total
---------------------------------------------------------------
Pair    | 1.5259e-05 | 0.010863   | 0.064445   |  19.6 |  9.57
Bond    | 3.2902e-05 | 0.0021246  | 0.010199   |   7.9 |  1.87
Kspace  | 0.036134   | 0.098204   | 0.1117     |   7.7 | 86.51
Neigh   | 0          | 0          | 0          |   0.0 |  0.00
Comm    | 4.3631e-05 | 0.0010195  | 0.0018239  |   2.0 |  0.90
Output  | 0          | 0          | 0          |   0.0 |  0.00
Modify  | 0          | 0          | 0          |   0.0 |  0.00
Other   |            | 0.001304   |            |       |  1.15

Nlocal:    32.9375 ave 156 max 0 min
Histogram: 11 1 0 1 0 0 0 0 1 2
Nghost:    119.062 ave 279 max 0 min
Histogram: 4 1 3 0 1 0 2 2 1 2
Neighs:    1888.19 ave 11159 max 0 min
Histogram: 11 2 0 0 0 0 1 1 0 1

Total # of neighbors = 30211
[...]
Other   |            | 0.001877   |            |       |  0.85

Nlocal:    71.5625 ave 261 max 0 min
Histogram: 10 0 1 1 0 0 0 0 2 2
Nghost:    89.625 ave 363 max 0 min
Histogram: 7 1 2 1 2 2 0 0 0 1
Neighs:    3742.19 ave 16890 max 0 min
Histogram: 10 1 0 1 1 0 0 2 0 1

Total # of neighbors = 59875
Ave neighs/atom = 52.2926
Ave special neighs/atom = 11.4166
Neighbor list builds = 0
Dangerous builds = 0
timestep        1
fix             pysimm_md all nvt temp 300 300 100
run             5000
PPPM initialization ...
  using 12-bit tables for long-range coulomb (../kspace.cpp:332)
  G vector (1/distance) = 0.103843
  grid = 24 24 24
  stencil order = 5
  estimated absolute RMS force accuracy = 0.025304
  estimated relative force accuracy = 7.62022e-05
  using double precision KISS FFT
  3d grid and FFT values/proc = 3179 1152
Per MPI rank memory allocation (min/avg/max) = 13.07 | 13.26 | 13.71 Mbytes
Step Temp E_pair E_mol TotEng Press 
      10    392.00326   -1063.4818    318.17789    591.44555    3.3830741 
    5010    296.32468   -979.81271    921.72511    952.39338   0.21784639 
Loop time of 5.34665 on 16 procs for 5000 steps with 1145 atoms

Performance: 80.798 ns/day, 0.297 hours/ns, 935.165 timesteps/s
96.0% CPU use with 16 MPI tasks x no OpenMP threads

MPI task timing breakdown:
Section |  min time  |  avg time  |  max time  |%varavg| %total
---------------------------------------------------------------
Pair    | 0.00051594 | 0.45336    | 1.9694     |  93.7 |  8.48
Bond    | 0.00095749 | 0.14537    | 0.49492    |  49.7 |  2.72
Kspace  | 2.6262     | 4.1953     | 4.685      |  32.0 | 78.47
Neigh   | 0.11738    | 0.11931    | 0.12197    |   0.4 |  2.23
Comm    | 0.007282   | 0.11127    | 0.41965    |  41.8 |  2.08
Output  | 2.0981e-05 | 2.2084e-05 | 2.9087e-05 |   0.0 |  0.00
Modify  | 0.034224   | 0.30668    | 0.52434    |  42.0 |  5.74
Other   |            | 0.01535    |            |       |  0.29

Nlocal:    71.5625 ave 234 max 0 min
Histogram: 8 0 2 0 2 0 0 0 2 2
Nghost:    148.188 ave 458 max 0 min
Histogram: 8 0 0 1 0 1 5 0 0 1
Neighs:    3193.38 ave 14196 max 0 min
Histogram: 8 2 0 2 0 3 0 0 0 1

Total # of neighbors = 51094
Ave neighs/atom = 44.6236
Ave special neighs/atom = 11.4166
Neighbor list builds = 203
Dangerous builds = 0
unfix pysimm_md
write_dump all custom pysimm.dump.tmp id q x y z vx vy vz
quit


################################################################################
##################################    Init    ##################################
################################################################################
units           real
atom_style      full
pair_style      lj/cut/coul/long 12.0  12.0
kspace_style    pppm 1e-4
bond_style      harmonic
angle_style     harmonic
dihedral_style  fourier
improper_style  cvff
special_bonds   amber
pair_modify     mix arithmetic
read_data       temp.lmps
  orthogonal box = (-83.3404 -83.3404 -83.3404) to (83.3404 83.3404 83.3404)
  2 by 2 by 4 MPI processor grid
  reading atoms ...
  1263 atoms
  reading velocities ...
  1263 velocities
  scanning bonds ...
  3 = max bonds/atom
  scanning angles ...
  6 = max angles/atom
  scanning dihedrals ...
  12 = max dihedrals/atom
  reading bonds ...
  1262 bonds
  reading angles ...
  2444 angles
  reading dihedrals ...
  3457 dihedrals
  4 = max # of 1-2 neighbors
  6 = max # of 1-3 neighbors
  12 = max # of 1-4 neighbors
  16 = max # of special neighbors
  special bonds CPU = 0.00104713 secs
  read_data CPU = 0.0280521 secs
################################################################################

min_style cg
minimize 1e-05 1e-05 10000 100000
WARNING: Using 'neigh_modify every 1 delay 0 check yes' setting during minimization (../min.cpp:190)
PPPM initialization ...
  using 12-bit tables for long-range coulomb (../kspace.cpp:332)
  G vector (1/distance) = 0.112208
  grid = 18 18 18
  stencil order = 5
  estimated absolute RMS force accuracy = 0.0379353
  estimated relative force accuracy = 0.000114241
  using double precision KISS FFT
  3d grid and FFT values/proc = 1960 648
Neighbor list info ...
  update every 1 steps, delay 0 steps, check yes
  max neighbors/atom: 2000, page size: 100000
  master list distance cutoff = 14
  ghost atom cutoff = 14
  binsize = 7, bins = 24 24 24
  1 neighbor lists, perpetual/occasional/extra = 1 0 0
  (1) pair lj/cut/coul/long, perpetual
      attributes: half, newton on
      pair build: half/bin/newton
      stencil: half/bin/3d/newton
      bin: standard
Per MPI rank memory allocation (min/avg/max) = 14.09 | 14.27 | 14.74 Mbytes
Step Temp E_pair E_mol TotEng Press 
       0    301.22752   -1496.7233     388.6351    25.064138    8.9700017 
      17    301.22752   -1501.3301    376.15032    7.9725718    9.4969473 
Loop time of 0.684008 on 16 procs for 17 steps with 1263 atoms

93.9% CPU use with 16 MPI tasks x no OpenMP threads

Minimization stats:
  Stopping criterion = linesearch alpha is zero
  Energy initial, next-to-last, final = 
        -1108.08822707     -1125.17979279     -1125.17979279
  Force two-norm initial, final = 49.1575 38.174
  Force max component initial, final = 7.49283 11.5706
  Final line search alpha, max atom move = 5.08728e-12 5.88628e-11
  Iterations, force evaluations = 17 93

MPI task timing breakdown:
Section |  min time  |  avg time  |  max time  |%varavg| %total
---------------------------------------------------------------
Pair    | 9.0599e-06 | 0.072763   | 0.56422    |  55.9 | 10.64
Bond    | 4.5061e-05 | 0.0059741  | 0.030015   |  12.8 |  0.87
Kspace  | 0.084361   | 0.60048    | 0.68009    |  20.7 | 87.79
Neigh   | 0          | 0          | 0          |   0.0 |  0.00
Comm    | 4.4107e-05 | 0.0016919  | 0.0037234  |   3.5 |  0.25
Output  | 0          | 0          | 0          |   0.0 |  0.00
Modify  | 0          | 0          | 0          |   0.0 |  0.00
Other   |            | 0.0031     |            |       |  0.45

Nlocal:    78.9375 ave 405 max 0 min
Histogram: 11 0 1 1 0 0 0 2 0 1
Nghost:    255.188 ave 617 max 0 min
Histogram: 8 0 0 0 0 0 2 2 1 3
Neighs:    11410.9 ave 87774 max 0 min
Histogram: 12 1 0 1 0 1 0 0 0 1

Total # of neighbors = 182574
Ave neighs/atom = 144.556
Ave special neighs/atom = 11.4568
Neighbor list builds = 0
Dangerous builds = 0
timestep        1
fix             pysimm_md all nvt temp 300 300 100
run             5000
PPPM initialization ...
  using 12-bit tables for long-range coulomb (../kspace.cpp:332)
  G vector (1/distance) = 0.112208
  grid = 18 18 18
  stencil order = 5
  estimated absolute RMS force accuracy = 0.0379353
  estimated relative force accuracy = 0.000114241
  using double precision KISS FFT
  3d grid and FFT values/proc = 1960 648
Per MPI rank memory allocation (min/avg/max) = 12.96 | 13.15 | 13.61 Mbytes
Step Temp E_pair E_mol TotEng Press 
      17    301.22752   -1501.3301    376.15032    7.9725718    9.4969473 
    5017    302.35697   -1384.3549    1181.1055    934.15165    2.9223425 
Loop time of 14.5733 on 16 procs for 5000 steps with 1263 atoms

Performance: 29.643 ns/day, 0.810 hours/ns, 343.093 timesteps/s
93.7% CPU use with 16 MPI tasks x no OpenMP threads

MPI task timing breakdown:
Section |  min time  |  avg time  |  max time  |%varavg| %total
---------------------------------------------------------------
Pair    | 0.00047112 | 1.1494     | 10.149     | 234.9 |  7.89
Bond    | 0.0007658  | 0.14783    | 0.9636     |  70.6 |  1.01
Kspace  | 2.7436     | 11.807     | 13.017     |  73.9 | 81.01
Neigh   | 0.51092    | 0.5153     | 0.52284    |   0.5 |  3.54
Comm    | 0.0090878  | 0.30527    | 0.95196    |  60.5 |  2.09
Output  | 2.408e-05  | 2.6315e-05 | 3.4094e-05 |   0.0 |  0.00
Modify  | 0.06461    | 0.62241    | 1.0078     |  52.2 |  4.27
Other   |            | 0.02655    |            |       |  0.18

Nlocal:    78.9375 ave 541 max 0 min
Histogram: 13 0 0 1 0 0 0 0 0 2
Nghost:    163.312 ave 590 max 0 min
Histogram: 8 0 1 2 1 2 1 0 0 1
Neighs:    10791.7 ave 90975 max 0 min
Histogram: 13 0 0 1 0 1 0 0 0 1

Total # of neighbors = 172667
Ave neighs/atom = 136.712
Ave special neighs/atom = 11.4568
Neighbor list builds = 230
Dangerous builds = 0
unfix pysimm_md
write_dump all custom pysimm.dump.tmp id q x y z vx vy vz
quit


################################################################################
##################################    Init    ##################################
################################################################################
units           real
atom_style      full
pair_style      lj/cut/coul/long 12.0  12.0
kspace_style    pppm 1e-4
bond_style      harmonic
angle_style     harmonic
dihedral_style  fourier
improper_style  cvff
special_bonds   amber
pair_modify     mix arithmetic
read_data       temp.lmps
  orthogonal box = (-126.151 -126.151 -126.151) to (126.151 126.151 126.151)
  2 by 2 by 4 MPI processor grid
  reading atoms ...
  1192 atoms
  reading velocities ...
  1192 velocities
  scanning bonds ...
  3 = max bonds/atom
  scanning angles ...
  6 = max angles/atom
  scanning dihedrals ...
  12 = max dihedrals/atom
  reading bonds ...
  1191 bonds
  reading angles ...
  2306 angles
  reading dihedrals ...
  3261 dihedrals
  4 = max # of 1-2 neighbors
  6 = max # of 1-3 neighbors
  12 = max # of 1-4 neighbors
  16 = max # of special neighbors
  special bonds CPU = 0.00138521 secs
  read_data CPU = 0.024883 secs
################################################################################

min_style cg
minimize 1e-05 1e-05 10000 100000
WARNING: Using 'neigh_modify every 1 delay 0 check yes' setting during minimization (../min.cpp:190)
PPPM initialization ...
  using 12-bit tables for long-range coulomb (../kspace.cpp:332)
  G vector (1/distance) = 0.102835
  grid = 24 24 24
  stencil order = 5
  estimated absolute RMS force accuracy = 0.0260485
  estimated relative force accuracy = 7.84442e-05
  using double precision KISS FFT
  3d grid and FFT values/proc = 3179 1152
Neighbor list info ...
  update every 1 steps, delay 0 steps, check yes
  max neighbors/atom: 2000, page size: 100000
  master list distance cutoff = 14
  ghost atom cutoff = 14
  binsize = 7, bins = 37 37 37
  1 neighbor lists, perpetual/occasional/extra = 1 0 0
  (1) pair lj/cut/coul/long, perpetual
      attributes: half, newton on
      pair build: half/bin/newton
      stencil: half/bin/3d/newton
      bin: standard
Per MPI rank memory allocation (min/avg/max) = 14.19 | 14.47 | 14.88 Mbytes
Step Temp E_pair E_mol TotEng Press 
       0    115.02331   -1348.6703    374.67944   -565.64145   0.62880048 
       4    115.02331   -1351.9097    372.39832   -571.16201   0.75806678 
Loop time of 0.355723 on 16 procs for 4 steps with 1192 atoms

93.5% CPU use with 16 MPI tasks x no OpenMP threads

Minimization stats:
  Stopping criterion = linesearch alpha is zero
  Energy initial, next-to-last, final = 
        -973.990859246     -979.511423403     -979.511423403
  Force two-norm initial, final = 49.6325 36.6446
  Force max component initial, final = 9.07114 5.5234
  Final line search alpha, max atom move = 5.29155e-12 2.92274e-11
  Iterations, force evaluations = 4 69

MPI task timing breakdown:
Section |  min time  |  avg time  |  max time  |%varavg| %total
---------------------------------------------------------------
Pair    | 1.0252e-05 | 0.071341   | 0.2718     |  33.7 | 20.06
Bond    | 1.955e-05  | 0.00464    | 0.013122   |   7.6 |  1.30
Kspace  | 0.065967   | 0.27574    | 0.35261    |  18.2 | 77.52
Neigh   | 0          | 0          | 0          |   0.0 |  0.00
Comm    | 2.3603e-05 | 0.0018435  | 0.0041428  |   4.2 |  0.52
Output  | 0          | 0          | 0          |   0.0 |  0.00
Modify  | 0          | 0          | 0          |   0.0 |  0.00
Other   |            | 0.002154   |            |       |  0.61

Nlocal:    74.5 ave 210 max 0 min
Histogram: 8 0 1 0 1 2 0 0 0 4
Nghost:    442.062 ave 1012 max 0 min
Histogram: 8 0 0 0 0 0 0 0 6 2
Neighs:    14771.7 ave 57040 max 0 min
Histogram: 8 2 0 1 1 1 1 0 1 1

Total # of neighbors = 236347
Ave neighs/atom = 198.278
Ave special neighs/atom = 11.4262
Neighbor list builds = 0
Dangerous builds = 0
timestep        1
fix             pysimm_md all nvt temp 300 300 100
run             5000
PPPM initialization ...
  using 12-bit tables for long-range coulomb (../kspace.cpp:332)
  G vector (1/distance) = 0.102835
  grid = 24 24 24
  stencil order = 5
  estimated absolute RMS force accuracy = 0.0260485
  estimated relative force accuracy = 7.84442e-05
  using double precision KISS FFT
  3d grid and FFT values/proc = 3179 1152
Per MPI rank memory allocation (min/avg/max) = 13.07 | 13.34 | 13.76 Mbytes
Step Temp E_pair E_mol TotEng Press 
       4    115.02331   -1351.9097    372.39832   -571.16201   0.75806678 
    5004    309.09802    -1256.649    889.74297    730.43666  0.077023957 
Loop time of 13.1785 on 16 procs for 5000 steps with 1192 atoms

Performance: 32.781 ns/day, 0.732 hours/ns, 379.405 timesteps/s
93.5% CPU use with 16 MPI tasks x no OpenMP threads

MPI task timing breakdown:
Section |  min time  |  avg time  |  max time  |%varavg| %total
---------------------------------------------------------------
Pair    | 0.00046134 | 1.577      | 7.8938     | 185.7 | 11.97
Bond    | 0.0008769  | 0.14707    | 0.69627    |  55.1 |  1.12
Kspace  | 3.7982     | 10.198     | 11.833     |  74.5 | 77.38
Neigh   | 0.49691    | 0.50533    | 0.51867    |   1.1 |  3.83
Comm    | 0.010086   | 0.29443    | 0.77398    |  56.4 |  2.23
Output  | 2.5988e-05 | 2.7329e-05 | 3.5048e-05 |   0.0 |  0.00
Modify  | 0.047988   | 0.43792    | 0.80314    |  54.7 |  3.32
Other   |            | 0.01891    |            |       |  0.14

Nlocal:    74.5 ave 466 max 0 min
Histogram: 12 1 1 0 0 0 0 0 0 2
Nghost:    164.625 ave 575 max 0 min
Histogram: 8 0 1 1 1 2 1 0 1 1
Neighs:    12389.2 ave 95882 max 0 min
Histogram: 14 0 0 0 0 0 0 0 0 2

Total # of neighbors = 198228
Ave neighs/atom = 166.299
Ave special neighs/atom = 11.4262
Neighbor list builds = 252
Dangerous builds = 11
unfix pysimm_md
write_dump all custom pysimm.dump.tmp id q x y z vx vy vz
quit


################################################################################
##################################    Init    ##################################
################################################################################
units           real
atom_style      full
pair_style      lj/cut/coul/long 12.0  12.0
kspace_style    pppm 1e-4
bond_style      harmonic
angle_style     harmonic
dihedral_style  fourier
improper_style  cvff
special_bonds   amber
pair_modify     mix arithmetic
read_data       temp.lmps
  orthogonal box = (-127.003 -127.003 -127.003) to (127.003 127.003 127.003)
  2 by 2 by 4 MPI processor grid
  reading atoms ...
  1148 atoms
  reading velocities ...
  1148 velocities
  scanning bonds ...
  3 = max bonds/atom
  scanning angles ...
  6 = max angles/atom
  scanning dihedrals ...
  12 = max dihedrals/atom
  reading bonds ...
  1147 bonds
  reading angles ...
  2219 angles
  reading dihedrals ...
  3139 dihedrals
  4 = max # of 1-2 neighbors
  6 = max # of 1-3 neighbors
  12 = max # of 1-4 neighbors
  16 = max # of special neighbors
  special bonds CPU = 0.00089407 secs
  read_data CPU = 0.023874 secs
################################################################################

min_style cg
minimize 1e-05 1e-05 10000 100000
WARNING: Using 'neigh_modify every 1 delay 0 check yes' setting during minimization (../min.cpp:190)
PPPM initialization ...
  using 12-bit tables for long-range coulomb (../kspace.cpp:332)
  G vector (1/distance) = 0.0896053
  grid = 20 20 20
  stencil order = 5
  estimated absolute RMS force accuracy = 0.0360637
  estimated relative force accuracy = 0.000108605
  using double precision KISS FFT
  3d grid and FFT values/proc = 2250 800
Neighbor list info ...
  update every 1 steps, delay 0 steps, check yes
  max neighbors/atom: 2000, page size: 100000
  master list distance cutoff = 14
  ghost atom cutoff = 14
  binsize = 7, bins = 37 37 37
  1 neighbor lists, perpetual/occasional/extra = 1 0 0
  (1) pair lj/cut/coul/long, perpetual
      attributes: half, newton on
      pair build: half/bin/newton
      stencil: half/bin/3d/newton
      bin: standard
Per MPI rank memory allocation (min/avg/max) = 14.12 | 14.38 | 14.76 Mbytes
Step Temp E_pair E_mol TotEng Press 
       0    283.51875   -1063.8359    361.41088    266.92244    2.2000263 
       2    283.51875   -1064.0412     360.5711    265.87737    2.2023133 
Loop time of 0.182292 on 16 procs for 2 steps with 1148 atoms

93.5% CPU use with 16 MPI tasks x no OpenMP threads

Minimization stats:
  Stopping criterion = linesearch alpha is zero
  Energy initial, next-to-last, final = 
        -702.425065979     -703.470139796     -703.470139796
  Force two-norm initial, final = 57.4679 39.5421
  Force max component initial, final = 11.7199 11.1266
  Final line search alpha, max atom move = 4.18677e-12 4.65844e-11
  Iterations, force evaluations = 2 66

MPI task timing breakdown:
Section |  min time  |  avg time  |  max time  |%varavg| %total
---------------------------------------------------------------
Pair    | 9.0599e-06 | 0.035974   | 0.11736    |  23.2 | 19.73
Bond    | 2.0504e-05 | 0.0043826  | 0.014722   |   7.6 |  2.40
Kspace  | 0.052954   | 0.13858    | 0.17962    |  13.2 | 76.02
Neigh   | 0          | 0          | 0          |   0.0 |  0.00
Comm    | 2.4557e-05 | 0.0014389  | 0.0034432  |   3.8 |  0.79
Output  | 0          | 0          | 0          |   0.0 |  0.00
Modify  | 0          | 0          | 0          |   0.0 |  0.00
Other   |            | 0.001916   |            |       |  1.05

Nlocal:    71.75 ave 249 max 0 min
Histogram: 8 1 0 1 1 1 2 1 0 1
Nghost:    277.062 ave 727 max 0 min
Histogram: 8 0 0 0 0 1 2 3 0 2
Neighs:    7007.88 ave 22482 max 0 min
Histogram: 8 0 2 1 1 0 0 0 2 2

Total # of neighbors = 112126
Ave neighs/atom = 97.6707
Ave special neighs/atom = 11.3955
Neighbor list builds = 0
Dangerous builds = 0
timestep        1
fix             pysimm_md all nvt temp 300 300 100
run             5000
PPPM initialization ...
  using 12-bit tables for long-range coulomb (../kspace.cpp:332)
  G vector (1/distance) = 0.0896053
  grid = 20 20 20
  stencil order = 5
  estimated absolute RMS force accuracy = 0.0360637
  estimated relative force accuracy = 0.000108605
  using double precision KISS FFT
  3d grid and FFT values/proc = 2250 800
Per MPI rank memory allocation (min/avg/max) = 13 | 13.26 | 13.63 Mbytes
Step Temp E_pair E_mol TotEng Press 
       2    283.51875   -1064.0412     360.5711    265.87737    2.2023133 
    5002    284.16498   -1024.8078    1075.4474    1022.1966    -2.826212 
Loop time of 6.91076 on 16 procs for 5000 steps with 1148 atoms

Performance: 62.511 ns/day, 0.384 hours/ns, 723.509 timesteps/s
92.7% CPU use with 16 MPI tasks x no OpenMP threads

MPI task timing breakdown:
Section |  min time  |  avg time  |  max time  |%varavg| %total
---------------------------------------------------------------
Pair    | 0.00048971 | 0.87254    | 2.7929     | 107.1 | 12.63
Bond    | 0.00099421 | 0.14797    | 0.49039    |  42.2 |  2.14
Kspace  | 3.1908     | 5.1635     | 6.0792     |  45.6 | 74.72
Neigh   | 0.22172    | 0.22652    | 0.23251    |   0.8 |  3.28
Comm    | 0.011044   | 0.17687    | 0.50283    |  42.4 |  2.56
Output  | 2.3842e-05 | 2.5317e-05 | 3.4094e-05 |   0.0 |  0.00
Modify  | 0.030398   | 0.30724    | 0.57441    |  47.7 |  4.45
Other   |            | 0.01612    |            |       |  0.23

Nlocal:    71.75 ave 361 max 0 min
Histogram: 10 0 3 0 0 1 0 0 1 1
Nghost:    295.938 ave 688 max 0 min
Histogram: 8 0 0 0 0 0 0 2 4 2
Neighs:    7623.88 ave 47996 max 0 min
Histogram: 11 1 1 1 0 0 0 1 0 1

Total # of neighbors = 121982
Ave neighs/atom = 106.256
Ave special neighs/atom = 11.3955
Neighbor list builds = 226
Dangerous builds = 0
unfix pysimm_md
write_dump all custom pysimm.dump.tmp id q x y z vx vy vz
quit
