

################################################################################
##################################    Init    ##################################
################################################################################
units           real
atom_style      full
pair_style      lj/cut/coul/long 12.0  12.0
kspace_style    pppm 1e-4
bond_style      harmonic
angle_style     harmonic
dihedral_style  fourier
improper_style  cvff
special_bonds   amber
pair_modify     mix arithmetic
read_data       temp.lmps
  orthogonal box = (-97.2175 -97.2175 -97.2175) to (97.2175 97.2175 97.2175)
  1 by 1 by 1 MPI processor grid
  reading atoms ...
  542 atoms
  reading velocities ...
  542 velocities
  scanning bonds ...
  3 = max bonds/atom
  scanning angles ...
  6 = max angles/atom
  scanning dihedrals ...
  24 = max dihedrals/atom
  scanning impropers ...
  1 = max impropers/atom
  reading bonds ...
  581 bonds
  reading angles ...
  980 angles
  reading dihedrals ...
  1458 dihedrals
  reading impropers ...
  180 impropers
  4 = max # of 1-2 neighbors
  10 = max # of 1-3 neighbors
  19 = max # of 1-4 neighbors
  22 = max # of special neighbors
  special bonds CPU = 0.000550985 secs
  read_data CPU = 0.00818896 secs
################################################################################

min_style cg
minimize 1e-06 1e-06 1000000 10000000
WARNING: Using 'neigh_modify every 1 delay 0 check yes' setting during minimization (../min.cpp:190)
PPPM initialization ...
WARNING: System is not charge neutral, net charge = -4e-05 (../kspace.cpp:313)
  using 12-bit tables for long-range coulomb (../kspace.cpp:332)
  G vector (1/distance) = 0.100879
  grid = 18 18 18
  stencil order = 5
  estimated absolute RMS force accuracy = 0.0341096
  estimated relative force accuracy = 0.00010272
  using double precision KISS FFT
  3d grid and FFT values/proc = 12167 5832
Neighbor list info ...
  update every 1 steps, delay 0 steps, check yes
  max neighbors/atom: 2000, page size: 100000
  master list distance cutoff = 14
  ghost atom cutoff = 14
  binsize = 7, bins = 28 28 28
  1 neighbor lists, perpetual/occasional/extra = 1 0 0
  (1) pair lj/cut/coul/long, perpetual
      attributes: half, newton on
      pair build: half/bin/newton
      stencil: half/bin/3d/newton
      bin: standard
Per MPI rank memory allocation (min/avg/max) = 19.67 | 19.67 | 19.67 Mbytes
Step Temp E_pair E_mol TotEng Press 
       0     184.2422    658.58378    569.47346    1525.1696   -2.0363237 
       3     184.2422    658.58378    565.98003    1521.6761    -2.036348 
Loop time of 0.189386 on 1 procs for 3 steps with 542 atoms

99.8% CPU use with 1 MPI tasks x no OpenMP threads

Minimization stats:
  Stopping criterion = energy tolerance
  Energy initial, next-to-last, final = 
         1228.05724056      1224.56442976      1224.56380784
  Force two-norm initial, final = 7.77164e+14 3836.2
  Force max component initial, final = 5.59776e+14 2128.98
  Final line search alpha, max atom move = 2.06446e-11 4.3952e-08
  Iterations, force evaluations = 3 66

MPI task timing breakdown:
Section |  min time  |  avg time  |  max time  |%varavg| %total
---------------------------------------------------------------
Pair    | 0.060742   | 0.060742   | 0.060742   |   0.0 | 32.07
Bond    | 0.01756    | 0.01756    | 0.01756    |   0.0 |  9.27
Kspace  | 0.11047    | 0.11047    | 0.11047    |   0.0 | 58.33
Neigh   | 0          | 0          | 0          |   0.0 |  0.00
Comm    | 2.9325e-05 | 2.9325e-05 | 2.9325e-05 |   0.0 |  0.02
Output  | 0          | 0          | 0          |   0.0 |  0.00
Modify  | 0          | 0          | 0          |   0.0 |  0.00
Other   |            | 0.000582   |            |       |  0.31

Nlocal:    542 ave 542 max 542 min
Histogram: 1 0 0 0 0 0 0 0 0 0
Nghost:    0 ave 0 max 0 min
Histogram: 1 0 0 0 0 0 0 0 0 0
Neighs:    22945 ave 22945 max 22945 min
Histogram: 1 0 0 0 0 0 0 0 0 0

Total # of neighbors = 22945
Ave neighs/atom = 42.3339
Ave special neighs/atom = 10.6974
Neighbor list builds = 0
Dangerous builds = 0
write_dump all custom pysimm.dump.tmp id q x y z vx vy vz
quit


################################################################################
##################################    Init    ##################################
################################################################################
units           real
atom_style      full
pair_style      lj/cut/coul/long 12.0  12.0
kspace_style    pppm 1e-4
bond_style      harmonic
angle_style     harmonic
dihedral_style  fourier
improper_style  cvff
special_bonds   amber
pair_modify     mix arithmetic
read_data       temp.lmps
  orthogonal box = (-122.486 -122.486 -122.486) to (122.486 122.486 122.486)
  1 by 1 by 1 MPI processor grid
  reading atoms ...
  596 atoms
  reading velocities ...
  596 velocities
  scanning bonds ...
  3 = max bonds/atom
  scanning angles ...
  6 = max angles/atom
  scanning dihedrals ...
  24 = max dihedrals/atom
  scanning impropers ...
  1 = max impropers/atom
  reading bonds ...
  639 bonds
  reading angles ...
  1078 angles
  reading dihedrals ...
  1604 dihedrals
  reading impropers ...
  198 impropers
  4 = max # of 1-2 neighbors
  10 = max # of 1-3 neighbors
  19 = max # of 1-4 neighbors
  22 = max # of special neighbors
  special bonds CPU = 0.000565052 secs
  read_data CPU = 0.00878406 secs
################################################################################

min_style cg
minimize 1e-06 1e-06 1000000 10000000
WARNING: Using 'neigh_modify every 1 delay 0 check yes' setting during minimization (../min.cpp:190)
PPPM initialization ...
WARNING: System is not charge neutral, net charge = -4.4e-05 (../kspace.cpp:313)
  using 12-bit tables for long-range coulomb (../kspace.cpp:332)
  G vector (1/distance) = 0.0920634
  grid = 20 20 20
  stencil order = 5
  estimated absolute RMS force accuracy = 0.0323171
  estimated relative force accuracy = 9.73221e-05
  using double precision KISS FFT
  3d grid and FFT values/proc = 15625 8000
Neighbor list info ...
  update every 1 steps, delay 0 steps, check yes
  max neighbors/atom: 2000, page size: 100000
  master list distance cutoff = 14
  ghost atom cutoff = 14
  binsize = 7, bins = 35 35 35
  1 neighbor lists, perpetual/occasional/extra = 1 0 0
  (1) pair lj/cut/coul/long, perpetual
      attributes: half, newton on
      pair build: half/bin/newton
      stencil: half/bin/3d/newton
      bin: standard
Per MPI rank memory allocation (min/avg/max) = 20.1 | 20.1 | 20.1 Mbytes
Step Temp E_pair E_mol TotEng Press 
       0    1067.6044    730.86969    638.24667    3262.6003    2.9620595 
       3    1067.6044    730.86969    637.68703    3262.0407      2.96202 
Loop time of 0.479707 on 1 procs for 3 steps with 596 atoms

99.8% CPU use with 1 MPI tasks x no OpenMP threads

Minimization stats:
  Stopping criterion = energy tolerance
  Energy initial, next-to-last, final = 
         1369.11636425      1368.55713917      1368.55672418
  Force two-norm initial, final = 4.94875e+14 2.03143e+06
  Force max component initial, final = 3.95026e+14 1.46038e+06
  Final line search alpha, max atom move = 1.75495e-16 2.56289e-10
  Iterations, force evaluations = 3 150

MPI task timing breakdown:
Section |  min time  |  avg time  |  max time  |%varavg| %total
---------------------------------------------------------------
Pair    | 0.14343    | 0.14343    | 0.14343    |   0.0 | 29.90
Bond    | 0.041923   | 0.041923   | 0.041923   |   0.0 |  8.74
Kspace  | 0.29295    | 0.29295    | 0.29295    |   0.0 | 61.07
Neigh   | 0          | 0          | 0          |   0.0 |  0.00
Comm    | 8.44e-05   | 8.44e-05   | 8.44e-05   |   0.0 |  0.02
Output  | 0          | 0          | 0          |   0.0 |  0.00
Modify  | 0          | 0          | 0          |   0.0 |  0.00
Other   |            | 0.001325   |            |       |  0.28

Nlocal:    596 ave 596 max 596 min
Histogram: 1 0 0 0 0 0 0 0 0 0
Nghost:    0 ave 0 max 0 min
Histogram: 1 0 0 0 0 0 0 0 0 0
Neighs:    26026 ave 26026 max 26026 min
Histogram: 1 0 0 0 0 0 0 0 0 0

Total # of neighbors = 26026
Ave neighs/atom = 43.6678
Ave special neighs/atom = 10.7013
Neighbor list builds = 0
Dangerous builds = 0
write_dump all custom pysimm.dump.tmp id q x y z vx vy vz
quit


################################################################################
##################################    Init    ##################################
################################################################################
units           real
atom_style      full
pair_style      lj/cut/coul/long 12.0  12.0
kspace_style    pppm 1e-4
bond_style      harmonic
angle_style     harmonic
dihedral_style  fourier
improper_style  cvff
special_bonds   amber
pair_modify     mix arithmetic
read_data       temp.lmps
  orthogonal box = (-97.2175 -97.2175 -97.2175) to (97.2175 97.2175 97.2175)
  1 by 1 by 1 MPI processor grid
  reading atoms ...
  542 atoms
  reading velocities ...
  542 velocities
  scanning bonds ...
  3 = max bonds/atom
  scanning angles ...
  6 = max angles/atom
  scanning dihedrals ...
  24 = max dihedrals/atom
  scanning impropers ...
  1 = max impropers/atom
  reading bonds ...
  581 bonds
  reading angles ...
  980 angles
  reading dihedrals ...
  1458 dihedrals
  reading impropers ...
  180 impropers
  4 = max # of 1-2 neighbors
  10 = max # of 1-3 neighbors
  19 = max # of 1-4 neighbors
  22 = max # of special neighbors
  special bonds CPU = 0.000509977 secs
  read_data CPU = 0.00796294 secs
################################################################################

min_style cg
minimize 1e-06 1e-06 1000000 10000000
WARNING: Using 'neigh_modify every 1 delay 0 check yes' setting during minimization (../min.cpp:190)
PPPM initialization ...
WARNING: System is not charge neutral, net charge = -4e-05 (../kspace.cpp:313)
  using 12-bit tables for long-range coulomb (../kspace.cpp:332)
  G vector (1/distance) = 0.100879
  grid = 18 18 18
  stencil order = 5
  estimated absolute RMS force accuracy = 0.0341096
  estimated relative force accuracy = 0.00010272
  using double precision KISS FFT
  3d grid and FFT values/proc = 12167 5832
Neighbor list info ...
  update every 1 steps, delay 0 steps, check yes
  max neighbors/atom: 2000, page size: 100000
  master list distance cutoff = 14
  ghost atom cutoff = 14
  binsize = 7, bins = 28 28 28
  1 neighbor lists, perpetual/occasional/extra = 1 0 0
  (1) pair lj/cut/coul/long, perpetual
      attributes: half, newton on
      pair build: half/bin/newton
      stencil: half/bin/3d/newton
      bin: standard
Per MPI rank memory allocation (min/avg/max) = 19.67 | 19.67 | 19.67 Mbytes
Step Temp E_pair E_mol TotEng Press 
       0    103.75014    654.83505     536.7585    1358.9029   -1.7615747 
       2    103.75014    654.83505    536.23323    1358.3776    -1.761523 
Loop time of 0.760245 on 1 procs for 2 steps with 542 atoms

99.2% CPU use with 1 MPI tasks x no OpenMP threads

Minimization stats:
  Stopping criterion = energy tolerance
  Energy initial, next-to-last, final = 
         1191.59354536      1191.06827999      1191.06827999
  Force two-norm initial, final = 8.70626e+14 3.20224e+13
  Force max component initial, final = 4.8849e+14 2.0925e+13
  Final line search alpha, max atom move = 1.77913e-28 3.72283e-15
  Iterations, force evaluations = 2 165

MPI task timing breakdown:
Section |  min time  |  avg time  |  max time  |%varavg| %total
---------------------------------------------------------------
Pair    | 0.23286    | 0.23286    | 0.23286    |   0.0 | 30.63
Bond    | 0.069854   | 0.069854   | 0.069854   |   0.0 |  9.19
Kspace  | 0.45516    | 0.45516    | 0.45516    |   0.0 | 59.87
Neigh   | 0          | 0          | 0          |   0.0 |  0.00
Comm    | 0.00013947 | 0.00013947 | 0.00013947 |   0.0 |  0.02
Output  | 0          | 0          | 0          |   0.0 |  0.00
Modify  | 0          | 0          | 0          |   0.0 |  0.00
Other   |            | 0.00223    |            |       |  0.29

Nlocal:    542 ave 542 max 542 min
Histogram: 1 0 0 0 0 0 0 0 0 0
Nghost:    0 ave 0 max 0 min
Histogram: 1 0 0 0 0 0 0 0 0 0
Neighs:    22117 ave 22117 max 22117 min
Histogram: 1 0 0 0 0 0 0 0 0 0

Total # of neighbors = 22117
Ave neighs/atom = 40.8063
Ave special neighs/atom = 10.6974
Neighbor list builds = 0
Dangerous builds = 0
write_dump all custom pysimm.dump.tmp id q x y z vx vy vz
quit


################################################################################
##################################    Init    ##################################
################################################################################
units           real
atom_style      full
pair_style      lj/cut/coul/long 12.0  12.0
kspace_style    pppm 1e-4
bond_style      harmonic
angle_style     harmonic
dihedral_style  fourier
improper_style  cvff
special_bonds   amber
pair_modify     mix arithmetic
read_data       temp.lmps
  orthogonal box = (-122.486 -122.486 -122.486) to (122.486 122.486 122.486)
  1 by 1 by 1 MPI processor grid
  reading atoms ...
  596 atoms
  reading velocities ...
  596 velocities
  scanning bonds ...
  3 = max bonds/atom
  scanning angles ...
  6 = max angles/atom
  scanning dihedrals ...
  24 = max dihedrals/atom
  scanning impropers ...
  1 = max impropers/atom
  reading bonds ...
  639 bonds
  reading angles ...
  1078 angles
  reading dihedrals ...
  1604 dihedrals
  reading impropers ...
  198 impropers
  4 = max # of 1-2 neighbors
  10 = max # of 1-3 neighbors
  19 = max # of 1-4 neighbors
  22 = max # of special neighbors
  special bonds CPU = 0.00151205 secs
  read_data CPU = 0.014647 secs
################################################################################

min_style cg
minimize 1e-06 1e-06 1000000 10000000
WARNING: Using 'neigh_modify every 1 delay 0 check yes' setting during minimization (../min.cpp:190)
PPPM initialization ...
WARNING: System is not charge neutral, net charge = -4.4e-05 (../kspace.cpp:313)
  using 12-bit tables for long-range coulomb (../kspace.cpp:332)
  G vector (1/distance) = 0.0920634
  grid = 20 20 20
  stencil order = 5
  estimated absolute RMS force accuracy = 0.0323171
  estimated relative force accuracy = 9.73221e-05
  using double precision KISS FFT
  3d grid and FFT values/proc = 15625 8000
Neighbor list info ...
  update every 1 steps, delay 0 steps, check yes
  max neighbors/atom: 2000, page size: 100000
  master list distance cutoff = 14
  ghost atom cutoff = 14
  binsize = 7, bins = 35 35 35
  1 neighbor lists, perpetual/occasional/extra = 1 0 0
  (1) pair lj/cut/coul/long, perpetual
      attributes: half, newton on
      pair build: half/bin/newton
      stencil: half/bin/3d/newton
      bin: standard
Per MPI rank memory allocation (min/avg/max) = 20.1 | 20.1 | 20.1 Mbytes
Step Temp E_pair E_mol TotEng Press 
       0    1497.0181    724.19162    696.67978    4075.9558    4.1397272 
       1    1497.0181    724.19162    696.67978    4075.9558    4.1397272 
Loop time of 0.521019 on 1 procs for 1 steps with 596 atoms

100.2% CPU use with 1 MPI tasks x no OpenMP threads

Minimization stats:
  Stopping criterion = quadratic factors are zero
  Energy initial, next-to-last, final = 
         1420.87139976      1420.87139976      1420.87139976
  Force two-norm initial, final = 6.68182e+14 6.68182e+14
  Force max component initial, final = 4.42773e+14 4.42773e+14
  Final line search alpha, max atom move = 1.60476e-30 7.10543e-16
  Iterations, force evaluations = 1 77

MPI task timing breakdown:
Section |  min time  |  avg time  |  max time  |%varavg| %total
---------------------------------------------------------------
Pair    | 0.14565    | 0.14565    | 0.14565    |   0.0 | 27.95
Bond    | 0.047679   | 0.047679   | 0.047679   |   0.0 |  9.15
Kspace  | 0.32617    | 0.32617    | 0.32617    |   0.0 | 62.60
Neigh   | 0          | 0          | 0          |   0.0 |  0.00
Comm    | 8.1539e-05 | 8.1539e-05 | 8.1539e-05 |   0.0 |  0.02
Output  | 0          | 0          | 0          |   0.0 |  0.00
Modify  | 0          | 0          | 0          |   0.0 |  0.00
Other   |            | 0.001437   |            |       |  0.28

Nlocal:    596 ave 596 max 596 min
Histogram: 1 0 0 0 0 0 0 0 0 0
Nghost:    0 ave 0 max 0 min
Histogram: 1 0 0 0 0 0 0 0 0 0
Neighs:    22574 ave 22574 max 22574 min
Histogram: 1 0 0 0 0 0 0 0 0 0

Total # of neighbors = 22574
Ave neighs/atom = 37.8758
Ave special neighs/atom = 10.7013
Neighbor list builds = 0
Dangerous builds = 0
write_dump all custom pysimm.dump.tmp id q x y z vx vy vz
quit


################################################################################
##################################    Init    ##################################
################################################################################
units           real
atom_style      full
pair_style      lj/cut/coul/long 12.0  12.0
kspace_style    pppm 1e-4
bond_style      harmonic
angle_style     harmonic
dihedral_style  fourier
improper_style  cvff
special_bonds   amber
pair_modify     mix arithmetic
read_data       temp.lmps
  orthogonal box = (-126.44 -126.44 -126.44) to (126.44 126.44 126.44)
  1 by 1 by 1 MPI processor grid
  reading atoms ...
  650 atoms
  reading velocities ...
  650 velocities
  scanning bonds ...
  3 = max bonds/atom
  scanning angles ...
  6 = max angles/atom
  scanning dihedrals ...
  24 = max dihedrals/atom
  scanning impropers ...
  1 = max impropers/atom
  reading bonds ...
  697 bonds
  reading angles ...
  1176 angles
  reading dihedrals ...
  1750 dihedrals
  reading impropers ...
  216 impropers
  4 = max # of 1-2 neighbors
  10 = max # of 1-3 neighbors
  19 = max # of 1-4 neighbors
  22 = max # of special neighbors
  special bonds CPU = 0.000688791 secs
  read_data CPU = 0.00990796 secs
################################################################################

min_style cg
minimize 1e-06 1e-06 1000000 10000000
WARNING: Using 'neigh_modify every 1 delay 0 check yes' setting during minimization (../min.cpp:190)
PPPM initialization ...
WARNING: System is not charge neutral, net charge = -4.8e-05 (../kspace.cpp:313)
  using 12-bit tables for long-range coulomb (../kspace.cpp:332)
  G vector (1/distance) = 0.0899048
  grid = 20 20 20
  stencil order = 5
  estimated absolute RMS force accuracy = 0.0340605
  estimated relative force accuracy = 0.000102572
  using double precision KISS FFT
  3d grid and FFT values/proc = 15625 8000
Neighbor list info ...
  update every 1 steps, delay 0 steps, check yes
  max neighbors/atom: 2000, page size: 100000
  master list distance cutoff = 14
  ghost atom cutoff = 14
  binsize = 7, bins = 37 37 37
  1 neighbor lists, perpetual/occasional/extra = 1 0 0
  (1) pair lj/cut/coul/long, perpetual
      attributes: half, newton on
      pair build: half/bin/newton
      stencil: half/bin/3d/newton
      bin: standard
Per MPI rank memory allocation (min/avg/max) = 20.15 | 20.15 | 20.15 Mbytes
Step Temp E_pair E_mol TotEng Press 
       0    1633.0305    788.68612    708.24249    4656.1007    6.4910671 
       1    1633.0305    788.68612    708.24249    4656.1007    6.4910671 
Loop time of 0.326296 on 1 procs for 1 steps with 650 atoms

99.9% CPU use with 1 MPI tasks x no OpenMP threads

Minimization stats:
  Stopping criterion = quadratic factors are zero
  Energy initial, next-to-last, final = 
         1496.92860374      1496.92860374      1496.92860374
  Force two-norm initial, final = 8.42043e+14 8.42043e+14
  Force max component initial, final = 6.39191e+14 6.39191e+14
  Final line search alpha, max atom move = 2.22326e-30 1.42109e-15
  Iterations, force evaluations = 1 83

MPI task timing breakdown:
Section |  min time  |  avg time  |  max time  |%varavg| %total
---------------------------------------------------------------
Pair    | 0.10892    | 0.10892    | 0.10892    |   0.0 | 33.38
Bond    | 0.0292     | 0.0292     | 0.0292     |   0.0 |  8.95
Kspace  | 0.1872     | 0.1872     | 0.1872     |   0.0 | 57.37
Neigh   | 0          | 0          | 0          |   0.0 |  0.00
Comm    | 6.3181e-05 | 6.3181e-05 | 6.3181e-05 |   0.0 |  0.02
Output  | 0          | 0          | 0          |   0.0 |  0.00
Modify  | 0          | 0          | 0          |   0.0 |  0.00
Other   |            | 0.0009108  |            |       |  0.28

Nlocal:    650 ave 650 max 650 min
Histogram: 1 0 0 0 0 0 0 0 0 0
Nghost:    0 ave 0 max 0 min
Histogram: 1 0 0 0 0 0 0 0 0 0
Neighs:    30263 ave 30263 max 30263 min
Histogram: 1 0 0 0 0 0 0 0 0 0

Total # of neighbors = 30263
Ave neighs/atom = 46.5585
Ave special neighs/atom = 10.7046
Neighbor list builds = 0
Dangerous builds = 0
write_dump all custom pysimm.dump.tmp id q x y z vx vy vz
quit


################################################################################
##################################    Init    ##################################
################################################################################
units           real
atom_style      full
pair_style      lj/cut/coul/long 12.0  12.0
kspace_style    pppm 1e-4
bond_style      harmonic
angle_style     harmonic
dihedral_style  fourier
improper_style  cvff
special_bonds   amber
pair_modify     mix arithmetic
read_data       temp.lmps
  orthogonal box = (-130.161 -130.161 -130.161) to (130.161 130.161 130.161)
  1 by 1 by 1 MPI processor grid
  reading atoms ...
  704 atoms
  reading velocities ...
  704 velocities
  scanning bonds ...
  3 = max bonds/atom
  scanning angles ...
  6 = max angles/atom
  scanning dihedrals ...
  24 = max dihedrals/atom
  scanning impropers ...
  1 = max impropers/atom
  reading bonds ...
  755 bonds
  reading angles ...
  1274 angles
  reading dihedrals ...
  1896 dihedrals
  reading impropers ...
  234 impropers
  4 = max # of 1-2 neighbors
  10 = max # of 1-3 neighbors
  19 = max # of 1-4 neighbors
  22 = max # of special neighbors
  special bonds CPU = 0.000550985 secs
  read_data CPU = 0.00903797 secs
################################################################################

min_style cg
minimize 1e-06 1e-06 1000000 10000000
WARNING: Using 'neigh_modify every 1 delay 0 check yes' setting during minimization (../min.cpp:190)
PPPM initialization ...
WARNING: System is not charge neutral, net charge = -5.2e-05 (../kspace.cpp:313)
  using 12-bit tables for long-range coulomb (../kspace.cpp:332)
  G vector (1/distance) = 0.0879601
  grid = 20 20 20
  stencil order = 5
  estimated absolute RMS force accuracy = 0.0356795
  estimated relative force accuracy = 0.000107448
  using double precision KISS FFT
  3d grid and FFT values/proc = 15625 8000
Neighbor list info ...
  update every 1 steps, delay 0 steps, check yes
  max neighbors/atom: 2000, page size: 100000
  master list distance cutoff = 14
  ghost atom cutoff = 14
  binsize = 7, bins = 38 38 38
  1 neighbor lists, perpetual/occasional/extra = 1 0 0
  (1) pair lj/cut/coul/long, perpetual
      attributes: half, newton on
      pair build: half/bin/newton
      stencil: half/bin/3d/newton
      bin: standard
Per MPI rank memory allocation (min/avg/max) = 20.18 | 20.18 | 20.18 Mbytes
Step Temp E_pair E_mol TotEng Press 
       0     1620.987    859.60313    774.34715    5030.7439     5.860432 
      53     1620.987    836.60179    446.87443    4680.2698    6.5097583 
Loop time of 1.07753 on 1 procs for 53 steps with 704 atoms

99.9% CPU use with 1 MPI tasks x no OpenMP threads

Minimization stats:
  Stopping criterion = linesearch alpha is zero
  Energy initial, next-to-last, final = 
          1633.9502856       1283.4762187       1283.4762187
  Force two-norm initial, final = 2.39753e+15 70.3096
  Force max component initial, final = 1.71382e+15 17.5035
  Final line search alpha, max atom move = 1.46294e-12 2.56066e-11
  Iterations, force evaluations = 53 320

MPI task timing breakdown:
Section |  min time  |  avg time  |  max time  |%varavg| %total
---------------------------------------------------------------
Pair    | 0.37954    | 0.37954    | 0.37954    |   0.0 | 35.22
Bond    | 0.097842   | 0.097842   | 0.097842   |   0.0 |  9.08
Kspace  | 0.59423    | 0.59423    | 0.59423    |   0.0 | 55.15
Neigh   | 0.0021839  | 0.0021839  | 0.0021839  |   0.0 |  0.20
Comm    | 0.00016356 | 0.00016356 | 0.00016356 |   0.0 |  0.02
Output  | 0          | 0          | 0          |   0.0 |  0.00
Modify  | 0          | 0          | 0          |   0.0 |  0.00
Other   |            | 0.003575   |            |       |  0.33

Nlocal:    704 ave 704 max 704 min
Histogram: 1 0 0 0 0 0 0 0 0 0
Nghost:    0 ave 0 max 0 min
Histogram: 1 0 0 0 0 0 0 0 0 0
Neighs:    35799 ave 35799 max 35799 min
Histogram: 1 0 0 0 0 0 0 0 0 0

Total # of neighbors = 35799
Ave neighs/atom = 50.8509
Ave special neighs/atom = 10.7074
Neighbor list builds = 2
Dangerous builds = 0
write_dump all custom pysimm.dump.tmp id q x y z vx vy vz
quit


################################################################################
##################################    Init    ##################################
################################################################################
units           real
atom_style      full
pair_style      lj/cut/coul/long 12.0  12.0
kspace_style    pppm 1e-4
bond_style      harmonic
angle_style     harmonic
dihedral_style  fourier
improper_style  cvff
special_bonds   amber
pair_modify     mix arithmetic
read_data       temp.lmps
  orthogonal box = (-133.681 -133.681 -133.681) to (133.681 133.681 133.681)
  1 by 1 by 1 MPI processor grid
  reading atoms ...
  758 atoms
  reading velocities ...
  758 velocities
  scanning bonds ...
  3 = max bonds/atom
  scanning angles ...
  6 = max angles/atom
  scanning dihedrals ...
  24 = max dihedrals/atom
  scanning impropers ...
  1 = max impropers/atom
  reading bonds ...
  813 bonds
  reading angles ...
  1372 angles
  reading dihedrals ...
  2042 dihedrals
  reading impropers ...
  252 impropers
  4 = max # of 1-2 neighbors
  10 = max # of 1-3 neighbors
  19 = max # of 1-4 neighbors
  22 = max # of special neighbors
  special bonds CPU = 0.000764132 secs
  read_data CPU = 0.00968409 secs
################################################################################

min_style cg
minimize 1e-06 1e-06 1000000 10000000
WARNING: Using 'neigh_modify every 1 delay 0 check yes' setting during minimization (../min.cpp:190)
PPPM initialization ...
WARNING: System is not charge neutral, net charge = -5.6e-05 (../kspace.cpp:313)
  using 12-bit tables for long-range coulomb (../kspace.cpp:332)
  G vector (1/distance) = 0.0986777
  grid = 24 24 24
  stencil order = 5
  estimated absolute RMS force accuracy = 0.0266758
  estimated relative force accuracy = 8.03333e-05
  using double precision KISS FFT
  3d grid and FFT values/proc = 24389 13824
Neighbor list info ...
  update every 1 steps, delay 0 steps, check yes
  max neighbors/atom: 2000, page size: 100000
  master list distance cutoff = 14
  ghost atom cutoff = 14
  binsize = 7, bins = 39 39 39
  1 neighbor lists, perpetual/occasional/extra = 1 0 0
  (1) pair lj/cut/coul/long, perpetual
      attributes: half, newton on
      pair build: half/bin/newton
      stencil: half/bin/3d/newton
      bin: standard
Per MPI rank memory allocation (min/avg/max) = 21.03 | 21.03 | 21.03 Mbytes
Step Temp E_pair E_mol TotEng Press 
       0    1460.3201    908.36212    749.55504    4953.0903    5.2921335 
       6    1460.3201    908.36212    748.11256    4951.6478    5.2921568 
Loop time of 1.17233 on 1 procs for 6 steps with 758 atoms

99.1% CPU use with 1 MPI tasks x no OpenMP threads

Minimization stats:
  Stopping criterion = energy tolerance
  Energy initial, next-to-last, final = 
         1657.91715777       1656.4746956      1656.47467672
  Force two-norm initial, final = 1.00736e+15 14761.9
  Force max component initial, final = 7.54697e+14 10403
  Final line search alpha, max atom move = 1.21e-13 1.25876e-09
  Iterations, force evaluations = 6 237

MPI task timing breakdown:
Section |  min time  |  avg time  |  max time  |%varavg| %total
---------------------------------------------------------------
Pair    | 0.29387    | 0.29387    | 0.29387    |   0.0 | 25.07
Bond    | 0.079412   | 0.079412   | 0.079412   |   0.0 |  6.77
Kspace  | 0.79646    | 0.79646    | 0.79646    |   0.0 | 67.94
Neigh   | 0          | 0          | 0          |   0.0 |  0.00
Comm    | 0.00014329 | 0.00014329 | 0.00014329 |   0.0 |  0.01
Output  | 0          | 0          | 0          |   0.0 |  0.00
Modify  | 0          | 0          | 0          |   0.0 |  0.00
Other   |            | 0.002441   |            |       |  0.21

Nlocal:    758 ave 758 max 758 min
Histogram: 1 0 0 0 0 0 0 0 0 0
Nghost:    0 ave 0 max 0 min
Histogram: 1 0 0 0 0 0 0 0 0 0
Neighs:    36692 ave 36692 max 36692 min
Histogram: 1 0 0 0 0 0 0 0 0 0

Total # of neighbors = 36692
Ave neighs/atom = 48.4063
Ave special neighs/atom = 10.7098
Neighbor list builds = 0
Dangerous builds = 0
write_dump all custom pysimm.dump.tmp id q x y z vx vy vz
quit


################################################################################
##################################    Init    ##################################
################################################################################
units           real
atom_style      full
pair_style      lj/cut/coul/long 12.0  12.0
kspace_style    pppm 1e-4
bond_style      harmonic
angle_style     harmonic
dihedral_style  fourier
improper_style  cvff
special_bonds   amber
pair_modify     mix arithmetic
read_data       temp.lmps
  orthogonal box = (-137.024 -137.024 -137.024) to (137.024 137.024 137.024)
  1 by 1 by 1 MPI processor grid
  reading atoms ...
  812 atoms
  reading velocities ...
  812 velocities
  scanning bonds ...
  3 = max bonds/atom
  scanning angles ...
  6 = max angles/atom
  scanning dihedrals ...
  24 = max dihedrals/atom
  scanning impropers ...
  1 = max impropers/atom
  reading bonds ...
  871 bonds
  reading angles ...
  1470 angles
  reading dihedrals ...
  2188 dihedrals
  reading impropers ...
  270 impropers
  4 = max # of 1-2 neighbors
  10 = max # of 1-3 neighbors
  19 = max # of 1-4 neighbors
  22 = max # of special neighbors
  special bonds CPU = 0.000762939 secs
  read_data CPU = 0.0106411 secs
################################################################################

min_style cg
minimize 1e-06 1e-06 1000000 10000000
WARNING: Using 'neigh_modify every 1 delay 0 check yes' setting during minimization (../min.cpp:190)
PPPM initialization ...
WARNING: System is not charge neutral, net charge = -6e-05 (../kspace.cpp:313)
  using 12-bit tables for long-range coulomb (../kspace.cpp:332)
  G vector (1/distance) = 0.0969322
  grid = 24 24 24
  stencil order = 5
  estimated absolute RMS force accuracy = 0.027951
  estimated relative force accuracy = 8.41736e-05
  using double precision KISS FFT
  3d grid and FFT values/proc = 24389 13824
Neighbor list info ...
  update every 1 steps, delay 0 steps, check yes
  max neighbors/atom: 2000, page size: 100000
  master list distance cutoff = 14
  ghost atom cutoff = 14
  binsize = 7, bins = 40 40 40
  1 neighbor lists, perpetual/occasional/extra = 1 0 0
  (1) pair lj/cut/coul/long, perpetual
      attributes: half, newton on
      pair build: half/bin/newton
      stencil: half/bin/3d/newton
      bin: standard
Per MPI rank memory allocation (min/avg/max) = 21.06 | 21.06 | 21.06 Mbytes
Step Temp E_pair E_mol TotEng Press 
       0    1445.8544    987.75054    898.53538    5381.5477    4.5760949 
       3    1445.8544    987.75054    895.60218    5378.6145    4.5759995 
Loop time of 0.601767 on 1 procs for 3 steps with 812 atoms

100.0% CPU use with 1 MPI tasks x no OpenMP threads

Minimization stats:
  Stopping criterion = energy tolerance
  Energy initial, next-to-last, final = 
         1886.28591514      1883.35287091      1883.35271264
  Force two-norm initial, final = 1.5407e+15 1552.31
  Force max component initial, final = 1.03149e+15 1005.82
  Final line search alpha, max atom move = 1.29514e-10 1.30267e-07
  Iterations, force evaluations = 3 60

MPI task timing breakdown:
Section |  min time  |  avg time  |  max time  |%varavg| %total
---------------------------------------------------------------
Pair    | 0.18441    | 0.18441    | 0.18441    |   0.0 | 30.64
Bond    | 0.040714   | 0.040714   | 0.040714   |   0.0 |  6.77
Kspace  | 0.37531    | 0.37531    | 0.37531    |   0.0 | 62.37
Neigh   | 0          | 0          | 0          |   0.0 |  0.00
Comm    | 7.2718e-05 | 7.2718e-05 | 7.2718e-05 |   0.0 |  0.01
Output  | 0          | 0          | 0          |   0.0 |  0.00
Modify  | 0          | 0          | 0          |   0.0 |  0.00
Other   |            | 0.001259   |            |       |  0.21

Nlocal:    812 ave 812 max 812 min
Histogram: 1 0 0 0 0 0 0 0 0 0
Nghost:    0 ave 0 max 0 min
Histogram: 1 0 0 0 0 0 0 0 0 0
Neighs:    47588 ave 47588 max 47588 min
Histogram: 1 0 0 0 0 0 0 0 0 0

Total # of neighbors = 47588
Ave neighs/atom = 58.6059
Ave special neighs/atom = 10.7118
Neighbor list builds = 0
Dangerous builds = 0
write_dump all custom pysimm.dump.tmp id q x y z vx vy vz
quit


################################################################################
##################################    Init    ##################################
################################################################################
units           real
atom_style      full
pair_style      lj/cut/coul/long 12.0  12.0
kspace_style    pppm 1e-4
bond_style      harmonic
angle_style     harmonic
dihedral_style  fourier
improper_style  cvff
special_bonds   amber
pair_modify     mix arithmetic
read_data       temp.lmps
  orthogonal box = (-140.212 -140.212 -140.212) to (140.212 140.212 140.212)
  1 by 1 by 1 MPI processor grid
  reading atoms ...
  866 atoms
  reading velocities ...
  866 velocities
  scanning bonds ...
  3 = max bonds/atom
  scanning angles ...
  6 = max angles/atom
  scanning dihedrals ...
  24 = max dihedrals/atom
  scanning impropers ...
  1 = max impropers/atom
  reading bonds ...
  929 bonds
  reading angles ...
  1568 angles
  reading dihedrals ...
  2334 dihedrals
  reading impropers ...
  288 impropers
  4 = max # of 1-2 neighbors
  10 = max # of 1-3 neighbors
  19 = max # of 1-4 neighbors
  22 = max # of special neighbors
  special bonds CPU = 0.00081706 secs
  read_data CPU = 0.0109799 secs
################################################################################

min_style cg
minimize 1e-06 1e-06 1000000 10000000
WARNING: Using 'neigh_modify every 1 delay 0 check yes' setting during minimization (../min.cpp:190)
PPPM initialization ...
WARNING: System is not charge neutral, net charge = -6.4e-05 (../kspace.cpp:313)
  using 12-bit tables for long-range coulomb (../kspace.cpp:332)
  G vector (1/distance) = 0.0953216
  grid = 24 24 24
  stencil order = 5
  estimated absolute RMS force accuracy = 0.0291624
  estimated relative force accuracy = 8.78216e-05
  using double precision KISS FFT
  3d grid and FFT values/proc = 24389 13824
Neighbor list info ...
  update every 1 steps, delay 0 steps, check yes
  max neighbors/atom: 2000, page size: 100000
  master list distance cutoff = 14
  ghost atom cutoff = 14
  binsize = 7, bins = 41 41 41
  1 neighbor lists, perpetual/occasional/extra = 1 0 0
  (1) pair lj/cut/coul/long, perpetual
      attributes: half, newton on
      pair build: half/bin/newton
      stencil: half/bin/3d/newton
      bin: standard
Per MPI rank memory allocation (min/avg/max) = 21.09 | 21.09 | 21.09 Mbytes
Step Temp E_pair E_mol TotEng Press 
       0    1162.9095    1045.9656    792.32445    4836.7367    4.7047647 
       3    1162.9095    1045.9656     789.1451    4833.5574    4.7047566 
Loop time of 0.876142 on 1 procs for 3 steps with 866 atoms

99.9% CPU use with 1 MPI tasks x no OpenMP threads

Minimization stats:
  Stopping criterion = energy tolerance
  Energy initial, next-to-last, final = 
         1838.29006956      1835.11110909      1835.11071553
  Force two-norm initial, final = 6.70739e+14 2.72808e+06
  Force max component initial, final = 4.41059e+14 2.03771e+06
  Final line search alpha, max atom move = 3.1374e-15 6.39312e-09
  Iterations, force evaluations = 3 103

MPI task timing breakdown:
Section |  min time  |  avg time  |  max time  |%varavg| %total
---------------------------------------------------------------
Pair    | 0.27529    | 0.27529    | 0.27529    |   0.0 | 31.42
Bond    | 0.062029   | 0.062029   | 0.062029   |   0.0 |  7.08
Kspace  | 0.53696    | 0.53696    | 0.53696    |   0.0 | 61.29
Neigh   | 0          | 0          | 0          |   0.0 |  0.00
Comm    | 6.6757e-05 | 6.6757e-05 | 6.6757e-05 |   0.0 |  0.01
Output  | 0          | 0          | 0          |   0.0 |  0.00
Modify  | 0          | 0          | 0          |   0.0 |  0.00
Other   |            | 0.001793   |            |       |  0.20

Nlocal:    866 ave 866 max 866 min
Histogram: 1 0 0 0 0 0 0 0 0 0
Nghost:    0 ave 0 max 0 min
Histogram: 1 0 0 0 0 0 0 0 0 0
Neighs:    51085 ave 51085 max 51085 min
Histogram: 1 0 0 0 0 0 0 0 0 0

Total # of neighbors = 51085
Ave neighs/atom = 58.9896
Ave special neighs/atom = 10.7136
Neighbor list builds = 0
Dangerous builds = 0
write_dump all custom pysimm.dump.tmp id q x y z vx vy vz
quit


################################################################################
##################################    Init    ##################################
################################################################################
units           real
atom_style      full
pair_style      lj/cut/coul/long 12.0  12.0
kspace_style    pppm 1e-4
bond_style      harmonic
angle_style     harmonic
dihedral_style  fourier
improper_style  cvff
special_bonds   amber
pair_modify     mix arithmetic
read_data       temp.lmps
  orthogonal box = (-143.261 -143.261 -143.261) to (143.261 143.261 143.261)
  1 by 1 by 1 MPI processor grid
  reading atoms ...
  920 atoms
  reading velocities ...
  920 velocities
  scanning bonds ...
  3 = max bonds/atom
  scanning angles ...
  6 = max angles/atom
  scanning dihedrals ...
  24 = max dihedrals/atom
  scanning impropers ...
  1 = max impropers/atom
  reading bonds ...
  987 bonds
  reading angles ...
  1666 angles
  reading dihedrals ...
  2480 dihedrals
  reading impropers ...
  306 impropers
  4 = max # of 1-2 neighbors
  10 = max # of 1-3 neighbors
  19 = max # of 1-4 neighbors
  22 = max # of special neighbors
  special bonds CPU = 0.000725985 secs
  read_data CPU = 0.0109441 secs
################################################################################

min_style cg
minimize 1e-06 1e-06 1000000 10000000
WARNING: Using 'neigh_modify every 1 delay 0 check yes' setting during minimization (../min.cpp:190)
PPPM initialization ...
WARNING: System is not charge neutral, net charge = -6.8e-05 (../kspace.cpp:313)
  using 12-bit tables for long-range coulomb (../kspace.cpp:332)
  G vector (1/distance) = 0.093828
  grid = 24 24 24
  stencil order = 5
  estimated absolute RMS force accuracy = 0.0303154
  estimated relative force accuracy = 9.12938e-05
  using double precision KISS FFT
  3d grid and FFT values/proc = 24389 13824
Neighbor list info ...
  update every 1 steps, delay 0 steps, check yes
  max neighbors/atom: 2000, page size: 100000
  master list distance cutoff = 14
  ghost atom cutoff = 14
  binsize = 7, bins = 41 41 41
  1 neighbor lists, perpetual/occasional/extra = 1 0 0
  (1) pair lj/cut/coul/long, perpetual
      attributes: half, newton on
      pair build: half/bin/newton
      stencil: half/bin/3d/newton
      bin: standard
Per MPI rank memory allocation (min/avg/max) = 21.1 | 21.1 | 21.1 Mbytes
Step Temp E_pair E_mol TotEng Press 
       0    956.79975    1126.9937    874.14165    4622.1585    3.2396973 
       3    956.79975    1126.9937    870.59468    4618.6115    3.2397011 
Loop time of 0.541883 on 1 procs for 3 steps with 920 atoms

100.0% CPU use with 1 MPI tasks x no OpenMP threads

Minimization stats:
  Stopping criterion = energy tolerance
  Energy initial, next-to-last, final = 
         2001.13531206      1997.58835542      1997.58834104
  Force two-norm initial, final = 3.41393e+14 40789.1
  Force max component initial, final = 2.64004e+14 31862.1
  Final line search alpha, max atom move = 7.85371e-15 2.50236e-10
  Iterations, force evaluations = 3 103

MPI task timing breakdown:
Section |  min time  |  avg time  |  max time  |%varavg| %total
---------------------------------------------------------------
Pair    | 0.14915    | 0.14915    | 0.14915    |   0.0 | 27.52
Bond    | 0.042352   | 0.042352   | 0.042352   |   0.0 |  7.82
Kspace  | 0.34906    | 0.34906    | 0.34906    |   0.0 | 64.42
Neigh   | 0          | 0          | 0          |   0.0 |  0.00
Comm    | 4.5538e-05 | 4.5538e-05 | 4.5538e-05 |   0.0 |  0.01
Output  | 0          | 0          | 0          |   0.0 |  0.00
Modify  | 0          | 0          | 0          |   0.0 |  0.00
Other   |            | 0.001271   |            |       |  0.23

Nlocal:    920 ave 920 max 920 min
Histogram: 1 0 0 0 0 0 0 0 0 0
Nghost:    0 ave 0 max 0 min
Histogram: 1 0 0 0 0 0 0 0 0 0
Neighs:    40712 ave 40712 max 40712 min
Histogram: 1 0 0 0 0 0 0 0 0 0

Total # of neighbors = 40712
Ave neighs/atom = 44.2522
Ave special neighs/atom = 10.7152
Neighbor list builds = 0
Dangerous builds = 0
write_dump all custom pysimm.dump.tmp id q x y z vx vy vz
quit


################################################################################
##################################    Init    ##################################
################################################################################
units           real
atom_style      full
pair_style      lj/cut/coul/long 12.0  12.0
kspace_style    pppm 1e-4
bond_style      harmonic
angle_style     harmonic
dihedral_style  fourier
improper_style  cvff
special_bonds   amber
pair_modify     mix arithmetic
read_data       temp.lmps
  orthogonal box = (-146.185 -146.185 -146.185) to (146.185 146.185 146.185)
  1 by 1 by 1 MPI processor grid
  reading atoms ...
  974 atoms
  reading velocities ...
  974 velocities
  scanning bonds ...
  3 = max bonds/atom
  scanning angles ...
  6 = max angles/atom
  scanning dihedrals ...
  24 = max dihedrals/atom
  scanning impropers ...
  1 = max impropers/atom
  reading bonds ...
  1045 bonds
  reading angles ...
  1764 angles
  reading dihedrals ...
  2626 dihedrals
  reading impropers ...
  324 impropers
  4 = max # of 1-2 neighbors
  10 = max # of 1-3 neighbors
  19 = max # of 1-4 neighbors
  22 = max # of special neighbors
  special bonds CPU = 0.000854015 secs
  read_data CPU = 0.0111752 secs
################################################################################

min_style cg
minimize 1e-06 1e-06 1000000 10000000
WARNING: Using 'neigh_modify every 1 delay 0 check yes' setting during minimization (../min.cpp:190)
PPPM initialization ...
WARNING: System is not charge neutral, net charge = -7.2e-05 (../kspace.cpp:313)
  using 12-bit tables for long-range coulomb (../kspace.cpp:332)
  G vector (1/distance) = 0.0924366
  grid = 24 24 24
  stencil order = 5
  estimated absolute RMS force accuracy = 0.0314149
  estimated relative force accuracy = 9.4605e-05
  using double precision KISS FFT
  3d grid and FFT values/proc = 24389 13824
Neighbor list info ...
  update every 1 steps, delay 0 steps, check yes
  max neighbors/atom: 2000, page size: 100000
  master list distance cutoff = 14
  ghost atom cutoff = 14
  binsize = 7, bins = 42 42 42
  1 neighbor lists, perpetual/occasional/extra = 1 0 0
  (1) pair lj/cut/coul/long, perpetual
      attributes: half, newton on
      pair build: half/bin/newton
      stencil: half/bin/3d/newton
      bin: standard
Per MPI rank memory allocation (min/avg/max) = 21.13 | 21.13 | 21.13 Mbytes
Step Temp E_pair E_mol TotEng Press 
       0    915.03925    1174.2269     882.3762    4710.5173    2.8225293 
       4    915.03925    1174.2269    879.59519    4707.7362    2.8225293 
Loop time of 1.08313 on 1 procs for 4 steps with 974 atoms

97.3% CPU use with 1 MPI tasks x no OpenMP threads

Minimization stats:
  Stopping criterion = energy tolerance
  Energy initial, next-to-last, final = 
         2056.60312647      2053.82215064      2053.82210879
  Force two-norm initial, final = 7.49794e+14 140564
  Force max component initial, final = 5.3655e+14 93050.8
  Final line search alpha, max atom move = 4.04026e-14 3.75949e-09
  Iterations, force evaluations = 4 132

MPI task timing breakdown:
Section |  min time  |  avg time  |  max time  |%varavg| %total
---------------------------------------------------------------
Pair    | 0.31872    | 0.31872    | 0.31872    |   0.0 | 29.43
Bond    | 0.082969   | 0.082969   | 0.082969   |   0.0 |  7.66
Kspace  | 0.67888    | 0.67888    | 0.67888    |   0.0 | 62.68
Neigh   | 0          | 0          | 0          |   0.0 |  0.00
Comm    | 0.00010562 | 0.00010562 | 0.00010562 |   0.0 |  0.01
Output  | 0          | 0          | 0          |   0.0 |  0.00
Modify  | 0          | 0          | 0          |   0.0 |  0.00
Other   |            | 0.002453   |            |       |  0.23

Nlocal:    974 ave 974 max 974 min
Histogram: 1 0 0 0 0 0 0 0 0 0
Nghost:    0 ave 0 max 0 min
Histogram: 1 0 0 0 0 0 0 0 0 0
Neighs:    48681 ave 48681 max 48681 min
Histogram: 1 0 0 0 0 0 0 0 0 0

Total # of neighbors = 48681
Ave neighs/atom = 49.9805
Ave special neighs/atom = 10.7166
Neighbor list builds = 0
Dangerous builds = 0
write_dump all custom pysimm.dump.tmp id q x y z vx vy vz
quit


################################################################################
##################################    Init    ##################################
################################################################################
units           real
atom_style      full
pair_style      lj/cut/coul/long 12.0  12.0
kspace_style    pppm 1e-4
bond_style      harmonic
angle_style     harmonic
dihedral_style  fourier
improper_style  cvff
special_bonds   amber
pair_modify     mix arithmetic
read_data       temp.lmps
  orthogonal box = (-148.997 -148.997 -148.997) to (148.997 148.997 148.997)
  1 by 1 by 1 MPI processor grid
  reading atoms ...
  1028 atoms
  reading velocities ...
  1028 velocities
  scanning bonds ...
  3 = max bonds/atom
  scanning angles ...
  6 = max angles/atom
  scanning dihedrals ...
  24 = max dihedrals/atom
  scanning impropers ...
  1 = max impropers/atom
  reading bonds ...
  1103 bonds
  reading angles ...
  1862 angles
  reading dihedrals ...
  2772 dihedrals
  reading impropers ...
  342 impropers
  4 = max # of 1-2 neighbors
  10 = max # of 1-3 neighbors
  19 = max # of 1-4 neighbors
  22 = max # of special neighbors
  special bonds CPU = 0.000867844 secs
  read_data CPU = 0.0118442 secs
################################################################################

min_style cg
minimize 1e-06 1e-06 1000000 10000000
WARNING: Using 'neigh_modify every 1 delay 0 check yes' setting during minimization (../min.cpp:190)
PPPM initialization ...
WARNING: System is not charge neutral, net charge = -7.6e-05 (../kspace.cpp:313)
  using 12-bit tables for long-range coulomb (../kspace.cpp:332)
  G vector (1/distance) = 0.0911354
  grid = 24 24 24
  stencil order = 5
  estimated absolute RMS force accuracy = 0.0324652
  estimated relative force accuracy = 9.7768e-05
  using double precision KISS FFT
  3d grid and FFT values/proc = 24389 13824
Neighbor list info ...
  update every 1 steps, delay 0 steps, check yes
  max neighbors/atom: 2000, page size: 100000
  master list distance cutoff = 14
  ghost atom cutoff = 14
  binsize = 7, bins = 43 43 43
  1 neighbor lists, perpetual/occasional/extra = 1 0 0
  (1) pair lj/cut/coul/long, perpetual
      attributes: half, newton on
      pair build: half/bin/newton
      stencil: half/bin/3d/newton
      bin: standard
Per MPI rank memory allocation (min/avg/max) = 21.16 | 21.16 | 21.16 Mbytes
Step Temp E_pair E_mol TotEng Press 
       0    890.18391    1244.1565    919.32177    4888.5911    2.9240987 
       1    890.18391    1244.1565    919.32177    4888.5911    2.9240987 
Loop time of 0.80511 on 1 procs for 1 steps with 1028 atoms

97.9% CPU use with 1 MPI tasks x no OpenMP threads

Minimization stats:
  Stopping criterion = quadratic factors are zero
  Energy initial, next-to-last, final = 
         2163.47828024      2163.47828024      2163.47828024
  Force two-norm initial, final = 8.56678e+15 8.56678e+15
  Force max component initial, final = 5.03739e+15 5.03739e+15
  Final line search alpha, max atom move = 2.82107e-31 1.42109e-15
  Iterations, force evaluations = 1 81

MPI task timing breakdown:
Section |  min time  |  avg time  |  max time  |%varavg| %total
---------------------------------------------------------------
Pair    | 0.25751    | 0.25751    | 0.25751    |   0.0 | 31.98
Bond    | 0.064708   | 0.064708   | 0.064708   |   0.0 |  8.04
Kspace  | 0.48111    | 0.48111    | 0.48111    |   0.0 | 59.76
Neigh   | 0          | 0          | 0          |   0.0 |  0.00
Comm    | 5.7936e-05 | 5.7936e-05 | 5.7936e-05 |   0.0 |  0.01
Output  | 0          | 0          | 0          |   0.0 |  0.00
Modify  | 0          | 0          | 0          |   0.0 |  0.00
Other   |            | 0.001723   |            |       |  0.21

Nlocal:    1028 ave 1028 max 1028 min
Histogram: 1 0 0 0 0 0 0 0 0 0
Nghost:    0 ave 0 max 0 min
Histogram: 1 0 0 0 0 0 0 0 0 0
Neighs:    50650 ave 50650 max 50650 min
Histogram: 1 0 0 0 0 0 0 0 0 0

Total # of neighbors = 50650
Ave neighs/atom = 49.2704
Ave special neighs/atom = 10.7179
Neighbor list builds = 0
Dangerous builds = 0
write_dump all custom pysimm.dump.tmp id q x y z vx vy vz
quit


################################################################################
##################################    Init    ##################################
################################################################################
units           real
atom_style      full
pair_style      lj/cut/coul/long 12.0  12.0
kspace_style    pppm 1e-4
bond_style      harmonic
angle_style     harmonic
dihedral_style  fourier
improper_style  cvff
special_bonds   amber
pair_modify     mix arithmetic
read_data       temp.lmps
  orthogonal box = (-151.707 -151.707 -151.707) to (151.707 151.707 151.707)
  1 by 1 by 1 MPI processor grid
  reading atoms ...
  1082 atoms
  reading velocities ...
  1082 velocities
  scanning bonds ...
  3 = max bonds/atom
  scanning angles ...
  6 = max angles/atom
  scanning dihedrals ...
  24 = max dihedrals/atom
  scanning impropers ...
  1 = max impropers/atom
  reading bonds ...
  1161 bonds
  reading angles ...
  1960 angles
  reading dihedrals ...
  2918 dihedrals
  reading impropers ...
  360 impropers
  4 = max # of 1-2 neighbors
  10 = max # of 1-3 neighbors
  19 = max # of 1-4 neighbors
  22 = max # of special neighbors
  special bonds CPU = 0.000945807 secs
  read_data CPU = 0.0126519 secs
################################################################################

min_style cg
minimize 1e-06 1e-06 1000000 10000000
WARNING: Using 'neigh_modify every 1 delay 0 check yes' setting during minimization (../min.cpp:190)
PPPM initialization ...
WARNING: System is not charge neutral, net charge = -8e-05 (../kspace.cpp:313)
  using 12-bit tables for long-range coulomb (../kspace.cpp:332)
  G vector (1/distance) = 0.0899144
  grid = 24 24 24
  stencil order = 5
  estimated absolute RMS force accuracy = 0.0334701
  estimated relative force accuracy = 0.000100794
  using double precision KISS FFT
  3d grid and FFT values/proc = 24389 13824
Neighbor list info ...
  update every 1 steps, delay 0 steps, check yes
  max neighbors/atom: 2000, page size: 100000
  master list distance cutoff = 14
  ghost atom cutoff = 14
  binsize = 7, bins = 44 44 44
  1 neighbor lists, perpetual/occasional/extra = 1 0 0
  (1) pair lj/cut/coul/long, perpetual
      attributes: half, newton on
      pair build: half/bin/newton
      stencil: half/bin/3d/newton
      bin: standard
Per MPI rank memory allocation (min/avg/max) = 21.19 | 21.19 | 21.19 Mbytes
Step Temp E_pair E_mol TotEng Press 
       0    817.31844    1308.0353    986.11488    4927.7591    1.9296927 
       1    817.31844    1308.0353    986.11488    4927.7591    1.9296927 
Loop time of 0.446327 on 1 procs for 1 steps with 1082 atoms

99.2% CPU use with 1 MPI tasks x no OpenMP threads

Minimization stats:
  Stopping criterion = quadratic factors are zero
  Energy initial, next-to-last, final = 
         2294.15016998      2294.15016998      2294.15016998
  Force two-norm initial, final = 1.77021e+15 1.77021e+15
  Force max component initial, final = 9.75118e+14 9.75118e+14
  Final line search alpha, max atom move = 2.9147e-30 2.84217e-15
  Iterations, force evaluations = 1 73

MPI task timing breakdown:
Section |  min time  |  avg time  |  max time  |%varavg| %total
---------------------------------------------------------------
Pair    | 0.15169    | 0.15169    | 0.15169    |   0.0 | 33.99
Bond    | 0.035646   | 0.035646   | 0.035646   |   0.0 |  7.99
Kspace  | 0.25796    | 0.25796    | 0.25796    |   0.0 | 57.80
Neigh   | 0          | 0          | 0          |   0.0 |  0.00
Comm    | 2.1696e-05 | 2.1696e-05 | 2.1696e-05 |   0.0 |  0.00
Output  | 0          | 0          | 0          |   0.0 |  0.00
Modify  | 0          | 0          | 0          |   0.0 |  0.00
Other   |            | 0.001014   |            |       |  0.23

Nlocal:    1082 ave 1082 max 1082 min
Histogram: 1 0 0 0 0 0 0 0 0 0
Nghost:    0 ave 0 max 0 min
Histogram: 1 0 0 0 0 0 0 0 0 0
Neighs:    60458 ave 60458 max 60458 min
Histogram: 1 0 0 0 0 0 0 0 0 0

Total # of neighbors = 60458
Ave neighs/atom = 55.8762
Ave special neighs/atom = 10.719
Neighbor list builds = 0
Dangerous builds = 0
write_dump all custom pysimm.dump.tmp id q x y z vx vy vz
quit


################################################################################
##################################    Init    ##################################
################################################################################
units           real
atom_style      full
pair_style      lj/cut/coul/long 12.0  12.0
kspace_style    pppm 1e-4
bond_style      harmonic
angle_style     harmonic
dihedral_style  fourier
improper_style  cvff
special_bonds   amber
pair_modify     mix arithmetic
read_data       temp.lmps
  orthogonal box = (-154.323 -154.323 -154.323) to (154.323 154.323 154.323)
  1 by 1 by 1 MPI processor grid
  reading atoms ...
  1136 atoms
  reading velocities ...
  1136 velocities
  scanning bonds ...
  3 = max bonds/atom
  scanning angles ...
  6 = max angles/atom
  scanning dihedrals ...
  24 = max dihedrals/atom
  scanning impropers ...
  1 = max impropers/atom
  reading bonds ...
  1219 bonds
  reading angles ...
  2058 angles
  reading dihedrals ...
  3064 dihedrals
  reading impropers ...
  378 impropers
  4 = max # of 1-2 neighbors
  10 = max # of 1-3 neighbors
  19 = max # of 1-4 neighbors
  22 = max # of special neighbors
  special bonds CPU = 0.000972033 secs
  read_data CPU = 0.0133431 secs
################################################################################

min_style cg
minimize 1e-06 1e-06 1000000 10000000
WARNING: Using 'neigh_modify every 1 delay 0 check yes' setting during minimization (../min.cpp:190)
PPPM initialization ...
WARNING: System is not charge neutral, net charge = -8.4e-05 (../kspace.cpp:313)
  using 12-bit tables for long-range coulomb (../kspace.cpp:332)
  G vector (1/distance) = 0.0887648
  grid = 24 24 24
  stencil order = 5
  estimated absolute RMS force accuracy = 0.0344331
  estimated relative force accuracy = 0.000103694
  using double precision KISS FFT
  3d grid and FFT values/proc = 24389 13824
Neighbor list info ...
  update every 1 steps, delay 0 steps, check yes
  max neighbors/atom: 2000, page size: 100000
  master list distance cutoff = 14
  ghost atom cutoff = 14
  binsize = 7, bins = 45 45 45
  1 neighbor lists, perpetual/occasional/extra = 1 0 0
  (1) pair lj/cut/coul/long, perpetual
      attributes: half, newton on
      pair build: half/bin/newton
      stencil: half/bin/3d/newton
      bin: standard
Per MPI rank memory allocation (min/avg/max) = 21.23 | 21.23 | 21.23 Mbytes
Step Temp E_pair E_mol TotEng Press 
       0    932.14826    1369.3417    1059.4449    5582.4487    3.2064446 
      10    932.14826    1366.2371    807.91515    5327.8143    4.1334855 
Loop time of 1.20338 on 1 procs for 10 steps with 1136 atoms

99.6% CPU use with 1 MPI tasks x no OpenMP threads

Minimization stats:
  Stopping criterion = linesearch alpha is zero
  Energy initial, next-to-last, final = 
         2428.78665969      2174.15223276      2174.15223276
  Force two-norm initial, final = 2.29611e+15 105.192
  Force max component initial, final = 1.65899e+15 27.9898
  Final line search alpha, max atom move = 8.31842e-13 2.32831e-11
  Iterations, force evaluations = 10 133

MPI task timing breakdown:
Section |  min time  |  avg time  |  max time  |%varavg| %total
---------------------------------------------------------------
Pair    | 0.43629    | 0.43629    | 0.43629    |   0.0 | 36.26
Bond    | 0.097327   | 0.097327   | 0.097327   |   0.0 |  8.09
Kspace  | 0.66642    | 0.66642    | 0.66642    |   0.0 | 55.38
Neigh   | 0          | 0          | 0          |   0.0 |  0.00
Comm    | 0.00011277 | 0.00011277 | 0.00011277 |   0.0 |  0.01
Output  | 0          | 0          | 0          |   0.0 |  0.00
Modify  | 0          | 0          | 0          |   0.0 |  0.00
Other   |            | 0.003233   |            |       |  0.27

Nlocal:    1136 ave 1136 max 1136 min
Histogram: 1 0 0 0 0 0 0 0 0 0
Nghost:    0 ave 0 max 0 min
Histogram: 1 0 0 0 0 0 0 0 0 0
Neighs:    65928 ave 65928 max 65928 min
Histogram: 1 0 0 0 0 0 0 0 0 0

Total # of neighbors = 65928
Ave neighs/atom = 58.0352
Ave special neighs/atom = 10.7201
Neighbor list builds = 0
Dangerous builds = 0
write_dump all custom pysimm.dump.tmp id q x y z vx vy vz
quit


################################################################################
##################################    Init    ##################################
################################################################################
units           real
atom_style      full
pair_style      lj/cut/coul/long 12.0  12.0
kspace_style    pppm 1e-4
bond_style      harmonic
angle_style     harmonic
dihedral_style  fourier
improper_style  cvff
special_bonds   amber
pair_modify     mix arithmetic
read_data       temp.lmps
  orthogonal box = (-156.853 -156.853 -156.853) to (156.853 156.853 156.853)
  1 by 1 by 1 MPI processor grid
  reading atoms ...
  1190 atoms
  reading velocities ...
  1190 velocities
  scanning bonds ...
  3 = max bonds/atom
  scanning angles ...
  6 = max angles/atom
  scanning dihedrals ...
  24 = max dihedrals/atom
  scanning impropers ...
  1 = max impropers/atom
  reading bonds ...
  1277 bonds
  reading angles ...
  2156 angles
  reading dihedrals ...
  3210 dihedrals
  reading impropers ...
  396 impropers
  4 = max # of 1-2 neighbors
  10 = max # of 1-3 neighbors
  19 = max # of 1-4 neighbors
  22 = max # of special neighbors
  special bonds CPU = 0.000977039 secs
  read_data CPU = 0.0133848 secs
################################################################################

min_style cg
minimize 1e-06 1e-06 1000000 10000000
WARNING: Using 'neigh_modify every 1 delay 0 check yes' setting during minimization (../min.cpp:190)
PPPM initialization ...
WARNING: System is not charge neutral, net charge = -8.8e-05 (../kspace.cpp:313)
  using 12-bit tables for long-range coulomb (../kspace.cpp:332)
  G vector (1/distance) = 0.0876795
  grid = 24 24 24
  stencil order = 5
  estimated absolute RMS force accuracy = 0.0353569
  estimated relative force accuracy = 0.000106476
  using double precision KISS FFT
  3d grid and FFT values/proc = 24389 13824
Neighbor list info ...
  update every 1 steps, delay 0 steps, check yes
  max neighbors/atom: 2000, page size: 100000
  master list distance cutoff = 14
  ghost atom cutoff = 14
  binsize = 7, bins = 45 45 45
  1 neighbor lists, perpetual/occasional/extra = 1 0 0
  (1) pair lj/cut/coul/long, perpetual
      attributes: half, newton on
      pair build: half/bin/newton
      stencil: half/bin/3d/newton
      bin: standard
Per MPI rank memory allocation (min/avg/max) = 21.23 | 21.23 | 21.23 Mbytes
Step Temp E_pair E_mol TotEng Press 
       0    1034.8085    1432.5885    1004.2398    6104.3791    3.6548152 
       3    1034.8085    1432.5885     1000.657    6100.7962    3.6548143 
Loop time of 0.923436 on 1 procs for 3 steps with 1190 atoms

99.9% CPU use with 1 MPI tasks x no OpenMP threads

Minimization stats:
  Stopping criterion = energy tolerance
  Energy initial, next-to-last, final = 
         2436.82832396      2433.24594529      2433.24545893
  Force two-norm initial, final = 5.17456e+14 480468
  Force max component initial, final = 3.72807e+14 337909
  Final line search alpha, max atom move = 8.22932e-16 2.78076e-10
  Iterations, force evaluations = 3 95

MPI task timing breakdown:
Section |  min time  |  avg time  |  max time  |%varavg| %total
---------------------------------------------------------------
Pair    | 0.2981     | 0.2981     | 0.2981     |   0.0 | 32.28
Bond    | 0.078779   | 0.078779   | 0.078779   |   0.0 |  8.53
Kspace  | 0.5442     | 0.5442     | 0.5442     |   0.0 | 58.93
Neigh   | 0          | 0          | 0          |   0.0 |  0.00
Comm    | 8.3923e-05 | 8.3923e-05 | 8.3923e-05 |   0.0 |  0.01
Output  | 0          | 0          | 0          |   0.0 |  0.00
Modify  | 0          | 0          | 0          |   0.0 |  0.00
Other   |            | 0.002273   |            |       |  0.25

Nlocal:    1190 ave 1190 max 1190 min
Histogram: 1 0 0 0 0 0 0 0 0 0
Nghost:    0 ave 0 max 0 min
Histogram: 1 0 0 0 0 0 0 0 0 0
Neighs:    58161 ave 58161 max 58161 min
Histogram: 1 0 0 0 0 0 0 0 0 0

Total # of neighbors = 58161
Ave neighs/atom = 48.8748
Ave special neighs/atom = 10.721
Neighbor list builds = 0
Dangerous builds = 0
write_dump all custom pysimm.dump.tmp id q x y z vx vy vz
quit


################################################################################
##################################    Init    ##################################
################################################################################
units           real
atom_style      full
pair_style      lj/cut/coul/long 12.0  12.0
kspace_style    pppm 1e-4
bond_style      harmonic
angle_style     harmonic
dihedral_style  fourier
improper_style  cvff
special_bonds   amber
pair_modify     mix arithmetic
read_data       temp.lmps
  orthogonal box = (-159.305 -159.305 -159.305) to (159.305 159.305 159.305)
  1 by 1 by 1 MPI processor grid
  reading atoms ...
  1244 atoms
  reading velocities ...
  1244 velocities
  scanning bonds ...
  3 = max bonds/atom
  scanning angles ...
  6 = max angles/atom
  scanning dihedrals ...
  24 = max dihedrals/atom
  scanning impropers ...
  1 = max impropers/atom
  reading bonds ...
  1335 bonds
  reading angles ...
  2254 angles
  reading dihedrals ...
  3356 dihedrals
  reading impropers ...
  414 impropers
  4 = max # of 1-2 neighbors
  10 = max # of 1-3 neighbors
  19 = max # of 1-4 neighbors
  22 = max # of special neighbors
  special bonds CPU = 0.000982046 secs
  read_data CPU = 0.0134509 secs
################################################################################

min_style cg
minimize 1e-06 1e-06 1000000 10000000
WARNING: Using 'neigh_modify every 1 delay 0 check yes' setting during minimization (../min.cpp:190)
PPPM initialization ...
WARNING: System is not charge neutral, net charge = -9.2e-05 (../kspace.cpp:313)
  using 12-bit tables for long-range coulomb (../kspace.cpp:332)
  G vector (1/distance) = 0.0893724
  grid = 25 25 25
  stencil order = 5
  estimated absolute RMS force accuracy = 0.0338299
  estimated relative force accuracy = 0.000101878
  using double precision KISS FFT
  3d grid and FFT values/proc = 27000 15625
Neighbor list info ...
  update every 1 steps, delay 0 steps, check yes
  max neighbors/atom: 2000, page size: 100000
  master list distance cutoff = 14
  ghost atom cutoff = 14
  binsize = 7, bins = 46 46 46
  1 neighbor lists, perpetual/occasional/extra = 1 0 0
  (1) pair lj/cut/coul/long, perpetual
      attributes: half, newton on
      pair build: half/bin/newton
      stencil: half/bin/3d/newton
      bin: standard
Per MPI rank memory allocation (min/avg/max) = 21.52 | 21.52 | 21.52 Mbytes
Step Temp E_pair E_mol TotEng Press 
       0    746.75831    1503.6293    1061.8891    5332.3676    2.1217193 
       2    746.75831    1503.6293    1061.0628    5331.5414    2.1216973 
Loop time of 1.03941 on 1 procs for 2 steps with 1244 atoms

100.0% CPU use with 1 MPI tasks x no OpenMP threads

Minimization stats:
  Stopping criterion = quadratic factors are zero
  Energy initial, next-to-last, final = 
         2565.51842915      2564.69213583      2564.69213583
  Force two-norm initial, final = 6.64634e+14 8.19885e+13
  Force max component initial, final = 5.2184e+14 5.49961e+13
  Final line search alpha, max atom move = 4.01474e-29 2.20795e-15
  Iterations, force evaluations = 2 147

MPI task timing breakdown:
Section |  min time  |  avg time  |  max time  |%varavg| %total
---------------------------------------------------------------
Pair    | 0.3619     | 0.3619     | 0.3619     |   0.0 | 34.82
Bond    | 0.085128   | 0.085128   | 0.085128   |   0.0 |  8.19
Kspace  | 0.58992    | 0.58992    | 0.58992    |   0.0 | 56.76
Neigh   | 0          | 0          | 0          |   0.0 |  0.00
Comm    | 6.5565e-05 | 6.5565e-05 | 6.5565e-05 |   0.0 |  0.01
Output  | 0          | 0          | 0          |   0.0 |  0.00
Modify  | 0          | 0          | 0          |   0.0 |  0.00
Other   |            | 0.002395   |            |       |  0.23

Nlocal:    1244 ave 1244 max 1244 min
Histogram: 1 0 0 0 0 0 0 0 0 0
Nghost:    0 ave 0 max 0 min
Histogram: 1 0 0 0 0 0 0 0 0 0
Neighs:    69565 ave 69565 max 69565 min
Histogram: 1 0 0 0 0 0 0 0 0 0

Total # of neighbors = 69565
Ave neighs/atom = 55.9204
Ave special neighs/atom = 10.7219
Neighbor list builds = 0
Dangerous builds = 0
write_dump all custom pysimm.dump.tmp id q x y z vx vy vz
quit


################################################################################
##################################    Init    ##################################
################################################################################
units           real
atom_style      full
pair_style      lj/cut/coul/long 12.0  12.0
kspace_style    pppm 1e-4
bond_style      harmonic
angle_style     harmonic
dihedral_style  fourier
improper_style  cvff
special_bonds   amber
pair_modify     mix arithmetic
read_data       temp.lmps
  orthogonal box = (-161.683 -161.683 -161.683) to (161.683 161.683 161.683)
  1 by 1 by 1 MPI processor grid
  reading atoms ...
  1298 atoms
  reading velocities ...
  1298 velocities
  scanning bonds ...
  3 = max bonds/atom
  scanning angles ...
  6 = max angles/atom
  scanning dihedrals ...
  24 = max dihedrals/atom
  scanning impropers ...
  1 = max impropers/atom
  reading bonds ...
  1393 bonds
  reading angles ...
  2352 angles
  reading dihedrals ...
  3502 dihedrals
  reading impropers ...
  432 impropers
  4 = max # of 1-2 neighbors
  10 = max # of 1-3 neighbors
  19 = max # of 1-4 neighbors
  22 = max # of special neighbors
  special bonds CPU = 0.00101805 secs
  read_data CPU = 0.013418 secs
################################################################################

min_style cg
minimize 1e-06 1e-06 1000000 10000000
WARNING: Using 'neigh_modify every 1 delay 0 check yes' setting during minimization (../min.cpp:190)
PPPM initialization ...
WARNING: System is not charge neutral, net charge = -9.6e-05 (../kspace.cpp:313)
  using 12-bit tables for long-range coulomb (../kspace.cpp:332)
  G vector (1/distance) = 0.0883792
  grid = 25 25 25
  stencil order = 5
  estimated absolute RMS force accuracy = 0.0346691
  estimated relative force accuracy = 0.000104405
  using double precision KISS FFT
  3d grid and FFT values/proc = 27000 15625
Neighbor list info ...
  update every 1 steps, delay 0 steps, check yes
  max neighbors/atom: 2000, page size: 100000
  master list distance cutoff = 14
  ghost atom cutoff = 14
  binsize = 7, bins = 47 47 47
  1 neighbor lists, perpetual/occasional/extra = 1 0 0
  (1) pair lj/cut/coul/long, perpetual
      attributes: half, newton on
      pair build: half/bin/newton
      stencil: half/bin/3d/newton
      bin: standard
Per MPI rank memory allocation (min/avg/max) = 21.56 | 21.56 | 21.56 Mbytes
Step Temp E_pair E_mol TotEng Press 
       0    765.26199     1556.659    1071.1414    5586.3879    2.6069506 
      20    765.26199    1554.1495    808.99476    5321.7318    3.1985715 
Loop time of 1.49553 on 1 procs for 20 steps with 1298 atoms

100.1% CPU use with 1 MPI tasks x no OpenMP threads

Minimization stats:
  Stopping criterion = linesearch alpha is zero
  Energy initial, next-to-last, final = 
         2627.80038608      2363.14423797      2363.14423797
  Force two-norm initial, final = 1.91917e+15 42.0194
  Force max component initial, final = 1.09589e+15 15.9388
  Final line search alpha, max atom move = 5.82938e-12 9.2913e-11
  Iterations, force evaluations = 20 220

MPI task timing breakdown:
Section |  min time  |  avg time  |  max time  |%varavg| %total
---------------------------------------------------------------
Pair    | 0.54183    | 0.54183    | 0.54183    |   0.0 | 36.23
Bond    | 0.12237    | 0.12237    | 0.12237    |   0.0 |  8.18
Kspace  | 0.82507    | 0.82507    | 0.82507    |   0.0 | 55.17
Neigh   | 0.002311   | 0.002311   | 0.002311   |   0.0 |  0.15
Comm    | 0.0001421  | 0.0001421  | 0.0001421  |   0.0 |  0.01
Output  | 0          | 0          | 0          |   0.0 |  0.00
Modify  | 0          | 0          | 0          |   0.0 |  0.00
Other   |            | 0.003804   |            |       |  0.25

Nlocal:    1298 ave 1298 max 1298 min
Histogram: 1 0 0 0 0 0 0 0 0 0
Nghost:    0 ave 0 max 0 min
Histogram: 1 0 0 0 0 0 0 0 0 0
Neighs:    78045 ave 78045 max 78045 min
Histogram: 1 0 0 0 0 0 0 0 0 0

Total # of neighbors = 78045
Ave neighs/atom = 60.1271
Ave special neighs/atom = 10.7227
Neighbor list builds = 1
Dangerous builds = 0
write_dump all custom pysimm.dump.tmp id q x y z vx vy vz
quit


################################################################################
##################################    Init    ##################################
################################################################################
units           real
atom_style      full
pair_style      lj/cut/coul/long 12.0  12.0
kspace_style    pppm 1e-4
bond_style      harmonic
angle_style     harmonic
dihedral_style  fourier
improper_style  cvff
special_bonds   amber
pair_modify     mix arithmetic
read_data       temp.lmps
  orthogonal box = (-163.993 -163.993 -163.993) to (163.993 163.993 163.993)
  1 by 1 by 1 MPI processor grid
  reading atoms ...
  1352 atoms
  reading velocities ...
  1352 velocities
  scanning bonds ...
  3 = max bonds/atom
  scanning angles ...
  6 = max angles/atom
  scanning dihedrals ...
  24 = max dihedrals/atom
  scanning impropers ...
  1 = max impropers/atom
  reading bonds ...
  1451 bonds
  reading angles ...
  2450 angles
  reading dihedrals ...
  3648 dihedrals
  reading impropers ...
  450 impropers
  4 = max # of 1-2 neighbors
  10 = max # of 1-3 neighbors
  19 = max # of 1-4 neighbors
  22 = max # of special neighbors
  special bonds CPU = 0.00112414 secs
  read_data CPU = 0.0142429 secs
################################################################################

min_style cg
minimize 1e-06 1e-06 1000000 10000000
WARNING: Using 'neigh_modify every 1 delay 0 check yes' setting during minimization (../min.cpp:190)
PPPM initialization ...
WARNING: System is not charge neutral, net charge = -0.0001 (../kspace.cpp:313)
  using 12-bit tables for long-range coulomb (../kspace.cpp:332)
  G vector (1/distance) = 0.0874344
  grid = 25 25 25
  stencil order = 5
  estimated absolute RMS force accuracy = 0.0354785
  estimated relative force accuracy = 0.000106842
  using double precision KISS FFT
  3d grid and FFT values/proc = 27000 15625
Neighbor list info ...
  update every 1 steps, delay 0 steps, check yes
  max neighbors/atom: 2000, page size: 100000
  master list distance cutoff = 14
  ghost atom cutoff = 14
  binsize = 7, bins = 47 47 47
  1 neighbor lists, perpetual/occasional/extra = 1 0 0
  (1) pair lj/cut/coul/long, perpetual
      attributes: half, newton on
      pair build: half/bin/newton
      stencil: half/bin/3d/newton
      bin: standard
Per MPI rank memory allocation (min/avg/max) = 21.56 | 21.56 | 21.56 Mbytes
Step Temp E_pair E_mol TotEng Press 
       0    740.40694    1625.1952    1099.9925    5706.8616    2.4817239 
       2    740.40694    1625.1952    1096.5171    5703.3861    2.4817284 
Loop time of 0.242853 on 1 procs for 2 steps with 1352 atoms

100.0% CPU use with 1 MPI tasks x no OpenMP threads

Minimization stats:
  Stopping criterion = energy tolerance
  Energy initial, next-to-last, final = 
          2725.1877648      2721.71356236      2721.71230068
  Force two-norm initial, final = 6.68028e+14 9885.16
  Force max component initial, final = 4.63285e+14 5743.95
  Final line search alpha, max atom move = 4.8837e-10 2.80517e-06
  Iterations, force evaluations = 2 33

MPI task timing breakdown:
Section |  min time  |  avg time  |  max time  |%varavg| %total
---------------------------------------------------------------
Pair    | 0.085343   | 0.085343   | 0.085343   |   0.0 | 35.14
Bond    | 0.020884   | 0.020884   | 0.020884   |   0.0 |  8.60
Kspace  | 0.13595    | 0.13595    | 0.13595    |   0.0 | 55.98
Neigh   | 0          | 0          | 0          |   0.0 |  0.00
Comm    | 1.6928e-05 | 1.6928e-05 | 1.6928e-05 |   0.0 |  0.01
Output  | 0          | 0          | 0          |   0.0 |  0.00
Modify  | 0          | 0          | 0          |   0.0 |  0.00
Other   |            | 0.0006557  |            |       |  0.27

Nlocal:    1352 ave 1352 max 1352 min
Histogram: 1 0 0 0 0 0 0 0 0 0
Nghost:    0 ave 0 max 0 min
Histogram: 1 0 0 0 0 0 0 0 0 0
Neighs:    74115 ave 74115 max 74115 min
Histogram: 1 0 0 0 0 0 0 0 0 0

Total # of neighbors = 74115
Ave neighs/atom = 54.8188
Ave special neighs/atom = 10.7234
Neighbor list builds = 0
Dangerous builds = 0
write_dump all custom pysimm.dump.tmp id q x y z vx vy vz
quit


################################################################################
##################################    Init    ##################################
################################################################################
units           real
atom_style      full
pair_style      lj/cut/coul/long 12.0  12.0
kspace_style    pppm 1e-4
bond_style      harmonic
angle_style     harmonic
dihedral_style  fourier
improper_style  cvff
special_bonds   amber
pair_modify     mix arithmetic
read_data       temp.lmps
  orthogonal box = (-166.24 -166.24 -166.24) to (166.24 166.24 166.24)
  1 by 1 by 1 MPI processor grid
  reading atoms ...
  1406 atoms
  reading velocities ...
  1406 velocities
  scanning bonds ...
  3 = max bonds/atom
  scanning angles ...
  6 = max angles/atom
  scanning dihedrals ...
  24 = max dihedrals/atom
  scanning impropers ...
  1 = max impropers/atom
  reading bonds ...
  1509 bonds
  reading angles ...
  2548 angles
  reading dihedrals ...
  3794 dihedrals
  reading impropers ...
  468 impropers
  4 = max # of 1-2 neighbors
  10 = max # of 1-3 neighbors
  19 = max # of 1-4 neighbors
  22 = max # of special neighbors
  special bonds CPU = 0.00106311 secs
  read_data CPU = 0.0140431 secs
################################################################################

min_style cg
minimize 1e-06 1e-06 1000000 10000000
WARNING: Using 'neigh_modify every 1 delay 0 check yes' setting during minimization (../min.cpp:190)
PPPM initialization ...
WARNING: System is not charge neutral, net charge = -0.000104 (../kspace.cpp:313)
  using 12-bit tables for long-range coulomb (../kspace.cpp:332)
  G vector (1/distance) = 0.0916999
  grid = 27 27 27
  stencil order = 5
  estimated absolute RMS force accuracy = 0.0317586
  estimated relative force accuracy = 9.564e-05
  using double precision KISS FFT
  3d grid and FFT values/proc = 32768 19683
Neighbor list info ...
  update every 1 steps, delay 0 steps, check yes
  max neighbors/atom: 2000, page size: 100000
  master list distance cutoff = 14
  ghost atom cutoff = 14
  binsize = 7, bins = 48 48 48
  1 neighbor lists, perpetual/occasional/extra = 1 0 0
  (1) pair lj/cut/coul/long, perpetual
      attributes: half, newton on
      pair build: half/bin/newton
      stencil: half/bin/3d/newton
      bin: standard
Per MPI rank memory allocation (min/avg/max) = 22.17 | 22.17 | 22.17 Mbytes
Step Temp E_pair E_mol TotEng Press 
       0    753.94533    1692.2937    1171.7413    6021.5868    2.5932025 
       1    753.94533    1692.2937    1171.7413    6021.5868    2.5932025 
Loop time of 0.613058 on 1 procs for 1 steps with 1406 atoms

99.6% CPU use with 1 MPI tasks x no OpenMP threads

Minimization stats:
  Stopping criterion = quadratic factors are zero
  Energy initial, next-to-last, final = 
         2864.03498172      2864.03498172      2864.03498172
  Force two-norm initial, final = 1.05423e+16 1.05423e+16
  Force max component initial, final = 6.13613e+15 6.13613e+15
  Final line search alpha, max atom move = 1.15797e-31 7.10543e-16
  Iterations, force evaluations = 1 70

MPI task timing breakdown:
Section |  min time  |  avg time  |  max time  |%varavg| %total
---------------------------------------------------------------
Pair    | 0.19695    | 0.19695    | 0.19695    |   0.0 | 32.13
Bond    | 0.043716   | 0.043716   | 0.043716   |   0.0 |  7.13
Kspace  | 0.37116    | 0.37116    | 0.37116    |   0.0 | 60.54
Neigh   | 0          | 0          | 0          |   0.0 |  0.00
Comm    | 2.6703e-05 | 2.6703e-05 | 2.6703e-05 |   0.0 |  0.00
Output  | 0          | 0          | 0          |   0.0 |  0.00
Modify  | 0          | 0          | 0          |   0.0 |  0.00
Other   |            | 0.0012     |            |       |  0.20

Nlocal:    1406 ave 1406 max 1406 min
Histogram: 1 0 0 0 0 0 0 0 0 0
Nghost:    0 ave 0 max 0 min
Histogram: 1 0 0 0 0 0 0 0 0 0
Neighs:    84993 ave 84993 max 84993 min
Histogram: 1 0 0 0 0 0 0 0 0 0

Total # of neighbors = 84993
Ave neighs/atom = 60.4502
Ave special neighs/atom = 10.724
Neighbor list builds = 0
Dangerous builds = 0
write_dump all custom pysimm.dump.tmp id q x y z vx vy vz
quit


################################################################################
##################################    Init    ##################################
################################################################################
units           real
atom_style      full
pair_style      lj/cut/coul/long 12.0  12.0
kspace_style    pppm 1e-4
bond_style      harmonic
angle_style     harmonic
dihedral_style  fourier
improper_style  cvff
special_bonds   amber
pair_modify     mix arithmetic
read_data       temp.lmps
  orthogonal box = (-168.427 -168.427 -168.427) to (168.427 168.427 168.427)
  1 by 1 by 1 MPI processor grid
  reading atoms ...
  1460 atoms
  reading velocities ...
  1460 velocities
  scanning bonds ...
  3 = max bonds/atom
  scanning angles ...
  6 = max angles/atom
  scanning dihedrals ...
  24 = max dihedrals/atom
  scanning impropers ...
  1 = max impropers/atom
  reading bonds ...
  1567 bonds
  reading angles ...
  2646 angles
  reading dihedrals ...
  3940 dihedrals
  reading impropers ...
  486 impropers
  4 = max # of 1-2 neighbors
  10 = max # of 1-3 neighbors
[...]
  scanning dihedrals ...
  24 = max dihedrals/atom
  scanning impropers ...
  1 = max impropers/atom
  reading bonds ...
  2669 bonds
  reading angles ...
  4508 angles
  reading dihedrals ...
  6714 dihedrals
  reading impropers ...
  828 impropers
  4 = max # of 1-2 neighbors
  10 = max # of 1-3 neighbors
  19 = max # of 1-4 neighbors
  22 = max # of special neighbors
  special bonds CPU = 0.00190711 secs
  read_data CPU = 0.0249002 secs
################################################################################

min_style cg
minimize 1e-06 1e-06 1000000 10000000
WARNING: Using 'neigh_modify every 1 delay 0 check yes' setting during minimization (../min.cpp:190)
PPPM initialization ...
WARNING: System is not charge neutral, net charge = -0.000184 (../kspace.cpp:313)
  using 12-bit tables for long-range coulomb (../kspace.cpp:332)
  G vector (1/distance) = 0.0899331
  grid = 32 32 32
  stencil order = 5
  estimated absolute RMS force accuracy = 0.0329848
  estimated relative force accuracy = 9.93327e-05
  using double precision KISS FFT
  3d grid and FFT values/proc = 50653 32768
Neighbor list info ...
  update every 1 steps, delay 0 steps, check yes
  max neighbors/atom: 2000, page size: 100000
  master list distance cutoff = 14
  ghost atom cutoff = 14
  binsize = 7, bins = 58 58 58
  1 neighbor lists, perpetual/occasional/extra = 1 0 0
  (1) pair lj/cut/coul/long, perpetual
      attributes: half, newton on
      pair build: half/bin/newton
      stencil: half/bin/3d/newton
      bin: standard
Per MPI rank memory allocation (min/avg/max) = 24.85 | 24.85 | 24.85 Mbytes
Step Temp E_pair E_mol TotEng Press 
       0    407.82738    2798.8538    1755.5977    7575.3566    1.2108944 
       2    407.82738    2798.8538    1752.0019    7571.7608    1.2108943 
Loop time of 1.108 on 1 procs for 2 steps with 2486 atoms

100.0% CPU use with 1 MPI tasks x no OpenMP threads

Minimization stats:
  Stopping criterion = energy tolerance
  Energy initial, next-to-last, final = 
         4554.45155723      4550.85804188      4550.85575818
  Force two-norm initial, final = 5.91175e+13 2.4759e+06
  Force max component initial, final = 4.76354e+13 2.00051e+06
  Final line search alpha, max atom move = 1.81242e-15 3.62577e-09
  Iterations, force evaluations = 2 62

MPI task timing breakdown:
Section |  min time  |  avg time  |  max time  |%varavg| %total
---------------------------------------------------------------
Pair    | 0.40713    | 0.40713    | 0.40713    |   0.0 | 36.74
Bond    | 0.074148   | 0.074148   | 0.074148   |   0.0 |  6.69
Kspace  | 0.62428    | 0.62428    | 0.62428    |   0.0 | 56.34
Neigh   | 0          | 0          | 0          |   0.0 |  0.00
Comm    | 4.22e-05   | 4.22e-05   | 4.22e-05   |   0.0 |  0.00
Output  | 0          | 0          | 0          |   0.0 |  0.00
Modify  | 0          | 0          | 0          |   0.0 |  0.00
Other   |            | 0.002395   |            |       |  0.22

Nlocal:    2486 ave 2486 max 2486 min
Histogram: 1 0 0 0 0 0 0 0 0 0
Nghost:    0 ave 0 max 0 min
Histogram: 1 0 0 0 0 0 0 0 0 0
Neighs:    186245 ave 186245 max 186245 min
Histogram: 1 0 0 0 0 0 0 0 0 0

Total # of neighbors = 186245
Ave neighs/atom = 74.9175
Ave special neighs/atom = 10.7313
Neighbor list builds = 0
Dangerous builds = 0
write_dump all custom pysimm.dump.tmp id q x y z vx vy vz
quit


################################################################################
##################################    Init    ##################################
################################################################################
units           real
atom_style      full
pair_style      lj/cut/coul/long 12.0  12.0
kspace_style    pppm 1e-4
bond_style      harmonic
angle_style     harmonic
dihedral_style  fourier
improper_style  cvff
special_bonds   amber
pair_modify     mix arithmetic
read_data       temp.lmps
  orthogonal box = (-203.707 -203.707 -203.707) to (203.707 203.707 203.707)
  1 by 1 by 1 MPI processor grid
  reading atoms ...
  2540 atoms
  reading velocities ...
  2540 velocities
  scanning bonds ...
  3 = max bonds/atom
  scanning angles ...
  6 = max angles/atom
  scanning dihedrals ...
  24 = max dihedrals/atom
  scanning impropers ...
  1 = max impropers/atom
  reading bonds ...
  2727 bonds
  reading angles ...
  4606 angles
  reading dihedrals ...
  6860 dihedrals
  reading impropers ...
  846 impropers
  4 = max # of 1-2 neighbors
  10 = max # of 1-3 neighbors
  19 = max # of 1-4 neighbors
  22 = max # of special neighbors
  special bonds CPU = 0.00194812 secs
  read_data CPU = 0.0250211 secs
################################################################################

min_style cg
minimize 1e-06 1e-06 1000000 10000000
WARNING: Using 'neigh_modify every 1 delay 0 check yes' setting during minimization (../min.cpp:190)
PPPM initialization ...
WARNING: System is not charge neutral, net charge = -0.000188 (../kspace.cpp:313)
  using 12-bit tables for long-range coulomb (../kspace.cpp:332)
  G vector (1/distance) = 0.0894393
  grid = 32 32 32
  stencil order = 5
  estimated absolute RMS force accuracy = 0.0334003
  estimated relative force accuracy = 0.000100584
  using double precision KISS FFT
  3d grid and FFT values/proc = 50653 32768
Neighbor list info ...
  update every 1 steps, delay 0 steps, check yes
  max neighbors/atom: 2000, page size: 100000
  master list distance cutoff = 14
  ghost atom cutoff = 14
  binsize = 7, bins = 59 59 59
  1 neighbor lists, perpetual/occasional/extra = 1 0 0
  (1) pair lj/cut/coul/long, perpetual
      attributes: half, newton on
      pair build: half/bin/newton
      stencil: half/bin/3d/newton
      bin: standard
Per MPI rank memory allocation (min/avg/max) = 24.9 | 24.9 | 24.9 Mbytes
Step Temp E_pair E_mol TotEng Press 
       0    550.44669    2861.3848       1706.6    8733.9177    2.1312677 
      49    550.44669    2826.9153    1353.5171    8346.3653     2.467291 
Loop time of 3.81207 on 1 procs for 49 steps with 2540 atoms

100.1% CPU use with 1 MPI tasks x no OpenMP threads

Minimization stats:
  Stopping criterion = linesearch alpha is zero
  Energy initial, next-to-last, final = 
         4567.98485079      4180.43241389      4180.43241389
  Force two-norm initial, final = 2.40825e+15 47.2602
  Force max component initial, final = 1.54421e+15 9.27718
  Final line search alpha, max atom move = 4.70183e-12 4.36197e-11
  Iterations, force evaluations = 49 220

MPI task timing breakdown:
Section |  min time  |  avg time  |  max time  |%varavg| %total
---------------------------------------------------------------
Pair    | 1.3748     | 1.3748     | 1.3748     |   0.0 | 36.06
Bond    | 0.26377    | 0.26377    | 0.26377    |   0.0 |  6.92
Kspace  | 2.1523     | 2.1523     | 2.1523     |   0.0 | 56.46
Neigh   | 0.010895   | 0.010895   | 0.010895   |   0.0 |  0.29
Comm    | 0.00021386 | 0.00021386 | 0.00021386 |   0.0 |  0.01
Output  | 0          | 0          | 0          |   0.0 |  0.00
Modify  | 0          | 0          | 0          |   0.0 |  0.00
Other   |            | 0.01008    |            |       |  0.26

Nlocal:    2540 ave 2540 max 2540 min
Histogram: 1 0 0 0 0 0 0 0 0 0
Nghost:    0 ave 0 max 0 min
Histogram: 1 0 0 0 0 0 0 0 0 0
Neighs:    177073 ave 177073 max 177073 min
Histogram: 1 0 0 0 0 0 0 0 0 0

Total # of neighbors = 177073
Ave neighs/atom = 69.7138
Ave special neighs/atom = 10.7315
Neighbor list builds = 2
Dangerous builds = 0
write_dump all custom pysimm.dump.tmp id q x y z vx vy vz
quit


################################################################################
##################################    Init    ##################################
################################################################################
units           real
atom_style      full
pair_style      lj/cut/coul/long 12.0  12.0
kspace_style    pppm 1e-4
bond_style      harmonic
angle_style     harmonic
dihedral_style  fourier
improper_style  cvff
special_bonds   amber
pair_modify     mix arithmetic
read_data       temp.lmps
  orthogonal box = (-205.173 -205.173 -205.173) to (205.173 205.173 205.173)
  1 by 1 by 1 MPI processor grid
  reading atoms ...
  2594 atoms
  reading velocities ...
  2594 velocities
  scanning bonds ...
  3 = max bonds/atom
  scanning angles ...
  6 = max angles/atom
  scanning dihedrals ...
  24 = max dihedrals/atom
  scanning impropers ...
  1 = max impropers/atom
  reading bonds ...
  2785 bonds
  reading angles ...
  4704 angles
  reading dihedrals ...
  7006 dihedrals
  reading impropers ...
  864 impropers
  4 = max # of 1-2 neighbors
  10 = max # of 1-3 neighbors
  19 = max # of 1-4 neighbors
  22 = max # of special neighbors
  special bonds CPU = 0.00201511 secs
  read_data CPU = 0.0256259 secs
################################################################################

min_style cg
minimize 1e-06 1e-06 1000000 10000000
WARNING: Using 'neigh_modify every 1 delay 0 check yes' setting during minimization (../min.cpp:190)
PPPM initialization ...
WARNING: System is not charge neutral, net charge = -0.000192 (../kspace.cpp:313)
  using 12-bit tables for long-range coulomb (../kspace.cpp:332)
  G vector (1/distance) = 0.0889578
  grid = 32 32 32
  stencil order = 5
  estimated absolute RMS force accuracy = 0.0338086
  estimated relative force accuracy = 0.000101814
  using double precision KISS FFT
  3d grid and FFT values/proc = 50653 32768
Neighbor list info ...
  update every 1 steps, delay 0 steps, check yes
  max neighbors/atom: 2000, page size: 100000
  master list distance cutoff = 14
  ghost atom cutoff = 14
  binsize = 7, bins = 59 59 59
  1 neighbor lists, perpetual/occasional/extra = 1 0 0
  (1) pair lj/cut/coul/long, perpetual
      attributes: half, newton on
      pair build: half/bin/newton
      stencil: half/bin/3d/newton
      bin: standard
Per MPI rank memory allocation (min/avg/max) = 24.91 | 24.91 | 24.91 Mbytes
Step Temp E_pair E_mol TotEng Press 
       0    541.68172    2914.3921    1766.6951    8867.8755    2.0076195 
       2    541.68172    2914.3921    1766.6864    8867.8668    2.0076208 
Loop time of 2.97847 on 1 procs for 2 steps with 2594 atoms

99.8% CPU use with 1 MPI tasks x no OpenMP threads

Minimization stats:
  Stopping criterion = quadratic factors are zero
  Energy initial, next-to-last, final = 
         4681.08721549      4681.07851127      4681.07851127
  Force two-norm initial, final = 2.85874e+14 4.71111e+14
  Force max component initial, final = 1.62867e+14 2.84551e+14
  Final line search alpha, max atom move = 2.49707e-30 7.10543e-16
  Iterations, force evaluations = 2 166

MPI task timing breakdown:
Section |  min time  |  avg time  |  max time  |%varavg| %total
---------------------------------------------------------------
Pair    | 1.1127     | 1.1127     | 1.1127     |   0.0 | 37.36
Bond    | 0.20581    | 0.20581    | 0.20581    |   0.0 |  6.91
Kspace  | 1.6539     | 1.6539     | 1.6539     |   0.0 | 55.53
Neigh   | 0          | 0          | 0          |   0.0 |  0.00
Comm    | 0.00011396 | 0.00011396 | 0.00011396 |   0.0 |  0.00
Output  | 0          | 0          | 0          |   0.0 |  0.00
Modify  | 0          | 0          | 0          |   0.0 |  0.00
Other   |            | 0.005867   |            |       |  0.20

Nlocal:    2594 ave 2594 max 2594 min
Histogram: 1 0 0 0 0 0 0 0 0 0
Nghost:    0 ave 0 max 0 min
Histogram: 1 0 0 0 0 0 0 0 0 0
Neighs:    191437 ave 191437 max 191437 min
Histogram: 1 0 0 0 0 0 0 0 0 0

Total # of neighbors = 191437
Ave neighs/atom = 73.7999
Ave special neighs/atom = 10.7317
Neighbor list builds = 0
Dangerous builds = 0
write_dump all custom pysimm.dump.tmp id q x y z vx vy vz
quit


################################################################################
##################################    Init    ##################################
################################################################################
units           real
atom_style      full
pair_style      lj/cut/coul/long 12.0  12.0
kspace_style    pppm 1e-4
bond_style      harmonic
angle_style     harmonic
dihedral_style  fourier
improper_style  cvff
special_bonds   amber
pair_modify     mix arithmetic
read_data       temp.lmps
  orthogonal box = (-206.618 -206.618 -206.618) to (206.618 206.618 206.618)
  1 by 1 by 1 MPI processor grid
  reading atoms ...
  2648 atoms
  reading velocities ...
  2648 velocities
  scanning bonds ...
  3 = max bonds/atom
  scanning angles ...
  6 = max angles/atom
  scanning dihedrals ...
  24 = max dihedrals/atom
  scanning impropers ...
  1 = max impropers/atom
  reading bonds ...
  2843 bonds
  reading angles ...
  4802 angles
  reading dihedrals ...
  7152 dihedrals
  reading impropers ...
  882 impropers
  4 = max # of 1-2 neighbors
  10 = max # of 1-3 neighbors
  19 = max # of 1-4 neighbors
  22 = max # of special neighbors
  special bonds CPU = 0.00203013 secs
  read_data CPU = 0.025291 secs
################################################################################

min_style cg
minimize 1e-06 1e-06 1000000 10000000
WARNING: Using 'neigh_modify every 1 delay 0 check yes' setting during minimization (../min.cpp:190)
PPPM initialization ...
WARNING: System is not charge neutral, net charge = -0.000196 (../kspace.cpp:313)
  using 12-bit tables for long-range coulomb (../kspace.cpp:332)
  G vector (1/distance) = 0.0884878
  grid = 32 32 32
  stencil order = 5
  estimated absolute RMS force accuracy = 0.0342097
  estimated relative force accuracy = 0.000103022
  using double precision KISS FFT
  3d grid and FFT values/proc = 50653 32768
Neighbor list info ...
  update every 1 steps, delay 0 steps, check yes
  max neighbors/atom: 2000, page size: 100000
  master list distance cutoff = 14
  ghost atom cutoff = 14
  binsize = 7, bins = 60 60 60
  1 neighbor lists, perpetual/occasional/extra = 1 0 0
  (1) pair lj/cut/coul/long, perpetual
      attributes: half, newton on
      pair build: half/bin/newton
      stencil: half/bin/3d/newton
      bin: standard
Per MPI rank memory allocation (min/avg/max) = 25.34 | 25.34 | 25.34 Mbytes
Step Temp E_pair E_mol TotEng Press 
       0    551.94638    2951.9013    1889.7851     9196.656    1.9201346 
       2    551.94638    2951.9013    1886.1883    9193.0592    1.9201348 
Loop time of 1.16962 on 1 procs for 2 steps with 2648 atoms

100.0% CPU use with 1 MPI tasks x no OpenMP threads

Minimization stats:
  Stopping criterion = energy tolerance
  Energy initial, next-to-last, final = 
         4841.68637696      4838.09055411      4838.08954586
  Force two-norm initial, final = 2.34999e+13 893301
  Force max component initial, final = 1.819e+13 720035
  Final line search alpha, max atom move = 1.26449e-15 9.10477e-10
  Iterations, force evaluations = 2 64

MPI task timing breakdown:
Section |  min time  |  avg time  |  max time  |%varavg| %total
---------------------------------------------------------------
Pair    | 0.4443     | 0.4443     | 0.4443     |   0.0 | 37.99
Bond    | 0.08151    | 0.08151    | 0.08151    |   0.0 |  6.97
Kspace  | 0.64126    | 0.64126    | 0.64126    |   0.0 | 54.83
Neigh   | 0          | 0          | 0          |   0.0 |  0.00
Comm    | 3.767e-05  | 3.767e-05  | 3.767e-05  |   0.0 |  0.00
Output  | 0          | 0          | 0          |   0.0 |  0.00
Modify  | 0          | 0          | 0          |   0.0 |  0.00
Other   |            | 0.002512   |            |       |  0.21

Nlocal:    2648 ave 2648 max 2648 min
Histogram: 1 0 0 0 0 0 0 0 0 0
Nghost:    0 ave 0 max 0 min
Histogram: 1 0 0 0 0 0 0 0 0 0
Neighs:    197589 ave 197589 max 197589 min
Histogram: 1 0 0 0 0 0 0 0 0 0

Total # of neighbors = 197589
Ave neighs/atom = 74.6182
Ave special neighs/atom = 10.7319
Neighbor list builds = 0
Dangerous builds = 0
write_dump all custom pysimm.dump.tmp id q x y z vx vy vz
quit


################################################################################
##################################    Init    ##################################
################################################################################
units           real
atom_style      full
pair_style      lj/cut/coul/long 12.0  12.0
kspace_style    pppm 1e-4
bond_style      harmonic
angle_style     harmonic
dihedral_style  fourier
improper_style  cvff
special_bonds   amber
pair_modify     mix arithmetic
read_data       temp.lmps
  orthogonal box = (-208.043 -208.043 -208.043) to (208.043 208.043 208.043)
  1 by 1 by 1 MPI processor grid
  reading atoms ...
  2702 atoms
  reading velocities ...
  2702 velocities
  scanning bonds ...
  3 = max bonds/atom
  scanning angles ...
  6 = max angles/atom
  scanning dihedrals ...
  24 = max dihedrals/atom
  scanning impropers ...
  1 = max impropers/atom
  reading bonds ...
  2901 bonds
  reading angles ...
  4900 angles
  reading dihedrals ...
  7298 dihedrals
  reading impropers ...
  900 impropers
  4 = max # of 1-2 neighbors
  10 = max # of 1-3 neighbors
  19 = max # of 1-4 neighbors
  22 = max # of special neighbors
  special bonds CPU = 0.00278091 secs
  read_data CPU = 0.042515 secs
################################################################################

min_style cg
minimize 1e-06 1e-06 1000000 10000000
WARNING: Using 'neigh_modify every 1 delay 0 check yes' setting during minimization (../min.cpp:190)
PPPM initialization ...
WARNING: System is not charge neutral, net charge = -0.0002 (../kspace.cpp:313)
  using 12-bit tables for long-range coulomb (../kspace.cpp:332)
  G vector (1/distance) = 0.088029
  grid = 32 32 32
  stencil order = 5
  estimated absolute RMS force accuracy = 0.034604
  estimated relative force accuracy = 0.000104209
  using double precision KISS FFT
  3d grid and FFT values/proc = 50653 32768
Neighbor list info ...
  update every 1 steps, delay 0 steps, check yes
  max neighbors/atom: 2000, page size: 100000
  master list distance cutoff = 14
  ghost atom cutoff = 14
  binsize = 7, bins = 60 60 60
  1 neighbor lists, perpetual/occasional/extra = 1 0 0
  (1) pair lj/cut/coul/long, perpetual
      attributes: half, newton on
      pair build: half/bin/newton
      stencil: half/bin/3d/newton
      bin: standard
Per MPI rank memory allocation (min/avg/max) = 25.35 | 25.35 | 25.35 Mbytes
Step Temp E_pair E_mol TotEng Press 
       0    451.46317    2990.2279    1896.4879    8521.5216    1.4328632 
      23    451.46317    2984.6027    1586.2557    8205.6643    1.9935093 
Loop time of 4.53439 on 1 procs for 23 steps with 2702 atoms

100.0% CPU use with 1 MPI tasks x no OpenMP threads

Minimization stats:
  Stopping criterion = linesearch alpha is zero
  Energy initial, next-to-last, final = 
          4886.7158241      4570.85845904      4570.85845904
  Force two-norm initial, final = 2.04606e+15 81.8884
  Force max component initial, final = 1.22385e+15 25.4407
  Final line search alpha, max atom move = 1.15554e-12 2.93978e-11
  Iterations, force evaluations = 23 214

MPI task timing breakdown:
Section |  min time  |  avg time  |  max time  |%varavg| %total
---------------------------------------------------------------
Pair    | 1.7974     | 1.7974     | 1.7974     |   0.0 | 39.64
Bond    | 0.29367    | 0.29367    | 0.29367    |   0.0 |  6.48
Kspace  | 2.4265     | 2.4265     | 2.4265     |   0.0 | 53.51
Neigh   | 0.0061669  | 0.0061669  | 0.0061669  |   0.0 |  0.14
Comm    | 0.00022221 | 0.00022221 | 0.00022221 |   0.0 |  0.00
Output  | 0          | 0          | 0          |   0.0 |  0.00
Modify  | 0          | 0          | 0          |   0.0 |  0.00
Other   |            | 0.01052    |            |       |  0.23

Nlocal:    2702 ave 2702 max 2702 min
Histogram: 1 0 0 0 0 0 0 0 0 0
Nghost:    0 ave 0 max 0 min
Histogram: 1 0 0 0 0 0 0 0 0 0
Neighs:    204351 ave 204351 max 204351 min
Histogram: 1 0 0 0 0 0 0 0 0 0

Total # of neighbors = 204351
Ave neighs/atom = 75.6295
Ave special neighs/atom = 10.7321
Neighbor list builds = 1
Dangerous builds = 0
write_dump all custom pysimm.dump.tmp id q x y z vx vy vz
quit
