pySIMM System Object

2700 atoms
2899 bonds
4897 angles
7292 dihedrals
900 impropers

9 atom types
10 bond types
17 angle types
7 dihedral types
2 improper types

-208.042910 208.042910 xlo xhi
-208.042910 208.042910 ylo yhi
-208.042910 208.042910 zlo zhi

Masses

   1	1.008	# ha
   2	12.01	# ca
   3	32.06	# sy
   4	16.0	# oh
   5	16.0	# o
   6	16.0	# os
   7	12.01	# c3
   8	1.008	# ho
   9	1.008	# hc

Pair Coeffs

   1	0.015	2.59964245953351	# ha
   2	0.086	3.3996695084235347	# ca
   3	0.25	3.563594872561357	# sy
   4	0.2104	3.0664733878390478	# oh
   5	0.21	2.959921901149463	# o
   6	0.17	3.0000123434657784	# os
   7	0.1094	3.3996695084235347	# c3
   8	0.0	0.0	# ho
   9	0.0157	2.649532787749369	# hc

Bond Coeffs

   1	371.4	0.973	# ho,oh
   2	243.4	1.7909	# ca,sy
   3	461.1	1.3984	# ca,ca
   4	300.9	1.5375	# c3,c3
   5	330.6	1.0969	# c3,hc
   6	493.0	1.466	# o,sy
   7	345.8	1.086	# ca,ha
   8	321.0	1.5156	# c3,ca
   9	376.6	1.3696	# ca,os
  10	384.0	1.3637	# ca,oh

Angle Coeffs

   1	61.48	119.42	# ca,ca,sy
   2	72.54	121.41	# o,sy,o
   3	69.58	119.2	# ca,ca,os
   4	60.3	104.44	# ca,sy,ca
   5	46.34	109.8	# c3,c3,hc
   6	49.0	108.58	# ca,oh,ho
   7	65.77	108.35	# ca,sy,o
   8	63.48	119.89	# ca,os,ca
   9	69.52	119.9	# ca,ca,oh
  10	63.56	112.24	# ca,c3,ca
  11	62.86	111.51	# c3,c3,c3
  12	39.4	107.58	# hc,c3,hc
  13	66.62	120.02	# ca,ca,ca
  14	48.18	119.88	# ca,ca,ha
  15	63.15	112.07	# c3,c3,ca
  16	63.53	120.77	# c3,ca,ca
  17	63.5	119.89	# ca,oh,ca

Dihedral Coeffs

   1	1	0.9	2	180	# X,ca,oh,X
   2	1	1.3	2	180	# X,ca,sy,X
   3	1	0.16	3	0	# hc,c3,c3,c3
   4	1	3.625	2	180	# X,ca,ca,X
   5	1	0.0	2	0	# X,c3,ca,X
   6	1	0.15555555555555556	3	0	# X,c3,c3,X
   7	1	0.9	2	180	# X,ca,os,X

Improper Coeffs

   1	1.1	-1	2	# ca,X,X,ha
   2	1.1	-1	2	# ca,ca,ca,c3

Atoms

   1	1	1	0.144011	112.169	1.81855	-163.975
   2	1	2	-0.407424	111.091	1.95512	-163.987
   3	1	2	0.096878	110.547	3.25285	-164.006
   4	1	1	0.131719	111.21	4.1149	-164.009
   5	1	2	0.007579	109.151	3.4393	-164.015
   6	1	3	0.947259	108.502	5.12973	-163.966
   7	1	2	-0.433296	108.294	2.31283	-164.015
   8	1	1	0.195208	107.214	2.4591	-164.03
   9	1	2	0.002203	108.843	1.01592	-164.003
  10	1	1	0.245959	108.194	0.143154	-164.004
  11	1	2	0.108341	110.238	0.838292	-163.985
  12	1	4	-0.012027	110.764	-0.420547	-163.964
  13	1	5	-0.530873	109.58	6.03714	-164.379
  14	1	5	-0.5745	107.175	5.13142	-164.595
  15	1	1	0.177717	110.295	5.98678	-161.813
  16	1	2	-0.13906	109.327	5.76311	-161.368
  17	1	2	-0.172291	109.146	5.88691	-159.978
  18	1	1	0.137587	109.968	6.20142	-159.343
  19	1	2	0.27179	107.897	5.6125	-159.403
  20	1	6	-0.297458	107.744	5.7348	-158.043
  21	1	1	0.184682	106.173	4.7525	-162.234
  22	1	2	-0.177057	107.002	5.07031	-161.603
  23	1	2	-0.065252	108.255	5.35091	-162.186
  24	1	1	0.164016	106.636	8.02928	-158.786
  25	1	1	0.144303	104.625	9.04299	-157.789
  26	1	2	-0.207027	106.135	7.53183	-157.961
  27	1	2	-0.150602	104.991	8.10656	-157.381
  28	1	2	0.201726	106.637	6.31437	-157.476
  29	1	2	0.015223	104.331	7.47369	-156.301
  30	1	7	0.123165	103.049	8.04865	-155.661
  31	1	2	-0.193552	106.001	5.67895	-156.403
  32	1	2	-0.163782	104.852	6.24821	-155.827
  33	1	1	0.167708	106.395	4.73755	-156.031
  34	1	1	0.146296	104.361	5.72992	-155.007
  35	1	2	-0.183938	106.825	5.20146	-160.214
  36	1	1	0.154545	105.861	4.97978	-159.765
  37	1	7	-0.193999	101.848	7.26925	-156.261
  38	1	7	-0.196778	102.816	9.54796	-155.999
  39	1	9	0.051577	100.892	7.64992	-155.88
  40	1	9	0.039353	101.912	6.19785	-156.033
  41	1	9	0.072794	101.832	7.36817	-157.354
  42	1	9	0.05895	102.589	9.69345	-157.062
  43	1	9	0.044008	103.693	10.159	-155.753
  44	1	9	0.064391	101.966	9.9436	-155.428
  45	1	1	0.130931	101.387	6.68037	-153.81
  46	1	2	-0.035623	102.222	7.19733	-153.346
  47	1	2	-0.458756	102.363	7.11598	-151.95
  48	1	1	0.207809	101.645	6.54824	-151.366
  49	1	2	0.31527	103.411	7.77564	-151.296
  50	1	2	-0.466224	104.342	8.49571	-152.06
  51	1	1	0.20556	105.167	9.00425	-151.57
  52	1	2	-0.031899	104.214	8.57008	-153.458
  53	1	1	0.127567	104.951	9.12819	-154.031
  54	1	2	0.005289	103.147	7.93104	-154.124
  55	1	1	0.144011	102.618	10.1741	-150.024
  56	1	2	-0.407424	103.382	9.98821	-149.273
  57	1	2	0.096878	103.813	11.0385	-148.442
  58	1	1	0.131719	103.38	12.03	-148.557
  59	1	2	0.007579	104.801	10.812	-147.467
  60	1	3	0.947259	105.298	12.1983	-146.412
  61	1	2	-0.433296	105.36	9.51897	-147.324
  62	1	1	0.195208	106.136	9.34729	-146.579
  63	1	2	0.002203	104.926	8.47076	-148.158
  64	1	1	0.245959	105.358	7.47663	-148.063
  65	1	2	0.108341	103.944	8.70446	-149.137
  66	1	4	-0.012027	103.531	7.67019	-149.935
  67	1	5	-0.530873	106.651	11.9135	-145.919
  68	1	5	-0.5745	104.952	13.4473	-147.102
  69	1	1	0.177717	102.795	13.5524	-145.683
  70	1	2	-0.13906	103.011	12.8148	-144.912
  71	1	2	-0.172291	102.142	12.6693	-143.814
  72	1	1	0.137587	101.252	13.2857	-143.735
  73	1	2	0.27179	102.426	11.7359	-142.805
  74	1	6	-0.297458	101.563	11.6231	-141.738
  75	1	1	0.184682	105.348	10.4641	-144.064
  76	1	2	-0.177057	104.449	11.075	-143.998
  77	1	2	-0.065252	104.172	12.0204	-145.005
  78	1	1	0.164016	103.601	12.6362	-140.371
  79	1	1	0.144303	104.392	11.8459	-138.175
  80	1	2	-0.207027	103.079	11.825	-139.87
  81	1	2	-0.150602	103.524	11.368	-138.616
  82	1	2	0.201726	101.972	11.2254	-140.489
  83	1	2	0.015223	102.86	10.3067	-137.957
  84	1	7	0.123165	103.324	9.74341	-136.595
  85	1	2	-0.193552	101.29	10.1892	-139.84
  86	1	2	-0.163782	101.735	9.72938	-138.587
  87	1	1	0.167708	100.43	9.73289	-140.32
  88	1	1	0.146296	101.203	8.91355	-138.103
  89	1	2	-0.183938	103.574	10.928	-142.907
  90	1	1	0.154545	103.79	10.1914	-142.139
  91	1	7	-0.193999	104.415	10.6117	-135.912
  92	1	7	-0.196778	103.961	8.3541	-136.872
  93	1	9	0.051577	104.668	10.2085	-134.923
  94	1	9	0.039353	104.071	11.6437	-135.77
  95	1	9	0.072794	105.34	10.6339	-136.503
  96	1	9	0.05895	104.749	8.43546	-137.63
  97	1	9	0.044008	103.215	7.6414	-137.245
  98	1	9	0.064391	104.419	7.93117	-135.969
  99	1	1	0.130931	101.471	11.6897	-136.108
 100	1	2	-0.035623	101.273	10.8002	-135.514
 101	1	2	-0.458756	100.166	10.7843	-134.649
 102	1	1	0.207809	99.5198	11.6536	-134.584
 103	1	2	0.31527	99.8902	9.66002	-133.861
 104	1	2	-0.466224	100.729	8.53787	-133.965
 105	1	1	0.20556	100.522	7.65447	-133.367
 106	1	2	-0.031899	101.837	8.54654	-134.831
 107	1	1	0.127567	102.465	7.66273	-134.875
 108	1	2	0.005289	102.122	9.67873	-135.628
 109	1	1	0.144011	100.694	9.45537	-131.196
 110	1	2	-0.407424	99.7354	9.01679	-130.933
 111	1	2	0.096878	99.5722	8.4077	-129.674
 112	1	1	0.131719	100.411	8.37193	-128.982
 113	1	2	0.007579	98.3347	7.84368	-129.311
 114	1	3	0.947259	98.1773	7.06409	-127.681
 115	1	2	-0.433296	97.2523	7.89292	-130.221
 116	1	1	0.195208	96.2988	7.4438	-129.949
 117	1	2	0.002203	97.4208	8.50321	-131.479
 118	1	1	0.245959	96.5934	8.54557	-132.183
 119	1	2	0.108341	98.6613	9.05653	-131.843
 120	1	4	-0.012027	98.7735	9.66977	-133.064
 121	1	5	-0.530873	97.2941	5.90293	-127.844
 122	1	5	-0.5745	99.5202	6.95634	-127.097
 123	1	1	0.177717	95.3138	7.60162	-127.438
 124	1	2	-0.13906	95.8344	8.31736	-126.805
 125	1	2	-0.172291	95.1015	9.25018	-126.049
 126	1	1	0.137587	94.0171	9.26778	-126.101
 127	1	2	0.27179	95.7635	10.1524	-125.204
 128	1	6	-0.297458	95.0104	11.0449	-124.475
 129	1	1	0.184682	98.9938	9.18678	-125.818
 130	1	2	-0.177057	97.907	9.21016	-125.891
 131	1	2	-0.065252	97.2414	8.2894	-126.727
 132	1	1	0.164016	96.0789	9.60548	-122.486
 133	1	1	0.144303	96.7191	10.494	-120.265
 134	1	2	-0.207027	95.9086	10.6534	-122.256
 135	1	2	-0.150602	96.26	11.1605	-120.992
 136	1	2	0.201726	95.3459	11.5017	-123.223
 137	1	2	0.015223	96.0327	12.5155	-120.662
 138	1	7	0.123165	96.4846	13.0502	-119.285
 139	1	2	-0.193552	95.1052	12.8444	-122.909
 140	1	2	-0.163782	95.4508	13.3519	-121.644
 141	1	1	0.167708	94.6633	13.4932	-123.659
 142	1	1	0.146296	95.2738	14.4039	-121.448
 143	1	2	-0.183938	97.1695	10.1421	-125.137
 144	1	1	0.154545	97.6856	10.8503	-124.495
 145	1	7	-0.193999	95.8033	14.3927	-118.902
 146	1	7	-0.196778	98.0069	13.3345	-119.394
 147	1	9	0.051577	96.1222	15.2132	-119.557
 148	1	9	0.039353	96.0666	14.6787	-117.875
 149	1	9	0.072794	94.7101	14.3145	-118.954
 150	1	9	0.05895	98.2146	14.0086	-120.235
 151	1	9	0.044008	98.5734	12.4104	-119.566
 152	1	9	0.064391	98.3936	13.8164	-118.487
 153	1	1	0.130931	94.0598	11.8822	-118.788
 154	1	2	-0.035623	94.8054	11.5641	-118.063
 155	1	2	-0.458756	94.4288	10.6961	-117.021
 156	1	1	0.207809	93.4016	10.3509	-116.947
 157	1	2	0.31527	95.3647	10.287	-116.062
 158	1	2	-0.466224	96.6885	10.7374	-116.171
 159	1	1	0.20556	97.4261	10.4146	-115.44
 160	1	2	-0.031899	97.0712	11.6033	-117.209
 161	1	1	0.127567	98.1035	11.9369	-117.243
 162	1	2	0.005289	96.1303	12.0405	-118.169
 163	1	1	0.144011	95.5407	7.74227	-113.129
 164	1	2	-0.407424	95.5946	8.77746	-112.803
 165	1	2	0.096878	95.9837	9.07609	-111.483
 166	1	1	0.131719	96.2333	8.26826	-110.798
 167	1	2	0.007579	96.074	10.4127	-111.05
 168	1	3	0.947259	96.6393	10.7432	-109.358
 169	1	2	-0.433296	95.7689	11.4577	-111.954
 170	1	1	0.195208	95.866	12.4935	-111.632
 171	1	2	0.002203	95.3908	11.1564	-113.276
 172	1	1	0.245959	95.1767	11.9613	-113.977
 173	1	2	0.108341	95.3116	9.81544	-113.708
 174	1	4	-0.012027	94.9745	9.50735	-115.004
 175	1	5	-0.530873	97.4255	9.5839	-108.916
 176	1	5	-0.5745	97.1749	12.1098	-109.337
 177	1	1	0.177717	94.6197	12.808	-108.901
 178	1	2	-0.13906	94.3241	11.9322	-108.326
 179	1	2	-0.172291	93.1721	11.9753	-107.518
 180	1	1	0.137587	92.5637	12.8733	-107.478
 181	1	2	0.27179	92.8154	10.8658	-106.737
 182	1	6	-0.297458	91.6946	10.9336	-105.943
 183	1	1	0.184682	95.3563	8.74664	-107.619
 184	1	2	-0.177057	94.7405	9.64496	-107.602
 185	1	2	-0.065252	95.1158	10.7667	-108.372
 186	1	1	0.164016	93.8084	11.225	-104.295
 187	1	1	0.144303	93.7535	11.003	-101.86
 188	1	2	-0.207027	92.8682	10.9857	-103.807
 189	1	2	-0.150602	92.8267	10.8624	-102.406
 190	1	2	0.201726	91.7023	10.8075	-104.571
 191	1	2	0.015223	91.6179	10.5596	-101.732
 192	1	7	0.123165	91.5388	10.3563	-100.195
 193	1	2	-0.193552	90.4937	10.533	-103.916
 194	1	2	-0.163782	90.451	10.4068	-102.515
 195	1	1	0.167708	89.589	10.4137	-104.505
 196	1	1	0.146296	89.5016	10.1884	-102.033
 197	1	2	-0.183938	93.5939	9.69704	-106.786
 198	1	1	0.154545	93.3086	8.83842	-106.185
 199	1	7	-0.193999	92.9292	10.4656	-99.511
 200	1	7	-0.196778	91.0303	8.90592	-99.9548
 201	1	9	0.051577	92.8596	10.2754	-98.4324
 202	1	9	0.039353	93.3506	11.4716	-99.6352
 203	1	9	0.072794	93.6361	9.7354	-99.9249
 204	1	9	0.05895	91.591	8.19348	-100.574
 205	1	9	0.044008	89.9677	8.80738	-100.209
 206	1	9	0.064391	91.1519	8.59081	-98.9116
 207	1	1	0.130931	90.5647	12.8198	-101.138
 208	1	2	-0.035623	90.2271	12.5894	-100.131
 209	1	2	-0.458756	89.4161	13.5248	-99.4595
 210	1	1	0.207809	89.1326	14.4476	-99.9573
 211	1	2	0.31527	88.984	13.2939	-98.1474
 212	1	2	-0.466224	89.3896	12.117	-97.5004
 213	1	1	0.20556	89.1129	11.9469	-96.4635
 214	1	2	-0.031899	90.1882	11.1726	-98.1703
 215	1	1	0.127567	90.5033	10.2836	-97.6319
 216	1	2	0.005289	90.6103	11.3832	-99.5025
 217	1	1	0.144011	87.1268	15.9257	-95.8374
 218	1	2	-0.407424	86.6067	14.9734	-95.9028
 219	1	2	0.096878	85.4314	14.7688	-95.1554
 220	1	1	0.131719	85.0461	15.5667	-94.5246
 221	1	2	0.007579	84.7383	13.5477	-95.2379
 222	1	3	0.947259	83.1889	13.3703	-94.311
 223	1	2	-0.433296	85.2253	12.529	-96.0907
 224	1	1	0.195208	84.6698	11.5957	-96.1826
 225	1	2	0.002203	86.3862	12.7465	-96.8577
 226	1	1	0.245959	86.7278	11.9755	-97.5453
 227	1	2	0.108341	87.0922	13.9656	-96.7568
 228	1	4	-0.012027	88.2095	14.2334	-97.5133
 229	1	5	-0.530873	82.5171	14.674	-94.3725
 230	1	5	-0.5745	82.5346	12.1287	-94.7439
 231	1	1	0.177717	83.743	10.9865	-92.7022
 232	1	2	-0.13906	83.88	11.8543	-92.0584
 233	1	2	-0.172291	84.1839	11.6786	-90.6952
 234	1	1	0.137587	84.2938	10.6805	-90.2816
 235	1	2	0.27179	84.3056	12.7919	-89.8492
 236	1	6	-0.297458	84.5487	12.5932	-88.509
 237	1	1	0.184682	83.7044	15.2716	-92.1307
 238	1	2	-0.177057	83.8612	14.2681	-91.7387
 239	1	2	-0.065252	83.7047	13.1504	-92.5855
 240	1	1	0.164016	85.6145	13.1279	-86.1867
 241	1	1	0.144303	84.5504	14.3965	-84.3347
 242	1	2	-0.207027	84.6026	13.506	-86.2976
 243	1	2	-0.150602	83.9923	14.2221	-85.2512
 244	1	2	0.201726	83.9173	13.2862	-87.4993
 245	1	2	0.015223	82.6787	14.7248	-85.3819
 246	1	7	0.123165	82.0684	15.5682	-84.238
 247	1	2	-0.193552	82.6016	13.7601	-87.6369
 248	1	2	-0.163782	81.9923	14.481	-86.5942
 249	1	1	0.167708	82.0516	13.5758	-88.5553
 250	1	1	0.146296	80.9853	14.8534	-86.7503
 251	1	2	-0.183938	84.1685	14.088	-90.3777
 252	1	1	0.154545	84.2727	14.9487	-89.7234
 253	1	7	-0.193999	80.5302	15.7461	-84.3653
 254	1	7	-0.196778	82.691	16.9863	-84.3453
 255	1	9	0.051577	80.0203	14.7774	-84.4399
 256	1	9	0.039353	80.2609	16.345	-85.2443
 257	1	9	0.072794	80.1286	16.2643	-83.4849
 258	1	9	0.05895	83.775	16.9586	-84.1754
 259	1	9	0.044008	82.2431	17.6804	-83.6228
 260	1	9	0.064391	82.5262	17.4048	-85.3468
 261	1	1	0.130931	83.1949	16.6133	-81.854
 262	1	2	-0.035623	82.8876	15.5753	-81.7701
 263	1	2	-0.458756	83.0535	14.9304	-80.5309
 264	1	1	0.207809	83.5014	15.4717	-79.7009
 265	1	2	0.31527	82.6564	13.5946	-80.357
 266	1	2	-0.466224	82.1179	12.9043	-81.4502
 267	1	1	0.20556	81.8191	11.8668	-81.3312
 268	1	2	-0.031899	81.9524	13.5422	-82.6932
 269	1	1	0.127567	81.5202	12.9885	-83.524
 270	1	2	0.005289	82.327	14.8906	-82.8726
 271	1	1	0.144011	83.9415	12.3622	-76.8691
 272	1	2	-0.407424	83.1809	13.1349	-76.7906
 273	1	2	0.096878	82.9304	13.7433	-75.5456
 274	1	1	0.131719	83.5072	13.4402	-74.6746
 275	1	2	0.007579	81.9651	14.7612	-75.4295
 276	1	3	0.947259	81.7709	15.595	-73.8273
 277	1	2	-0.433296	81.2312	15.1543	-76.5742
 278	1	1	0.195208	80.4983	15.9561	-76.4925
 279	1	2	0.002203	81.4866	14.5457	-77.8191
 280	1	1	0.245959	80.932	14.8607	-78.7011
 281	1	2	0.108341	82.4789	13.5486	-77.937
 282	1	4	-0.012027	82.7721	12.9604	-79.1445
 283	1	5	-0.530873	82.9962	15.3382	-73.0601
 284	1	5	-0.5745	81.2816	16.9553	-74.0867
 285	1	1	0.177717	78.9051	16.1293	-73.5538
 286	1	2	-0.13906	79.1203	15.2162	-73.0013
 287	1	2	-0.172291	78.0996	14.5781	-72.2723
 288	1	1	0.137587	77.092	14.9825	-72.2727
 289	1	2	0.27179	78.3856	13.4247	-71.522
 290	1	6	-0.297458	77.4091	12.8001	-70.7833
 291	1	1	0.184682	81.7267	13.147	-72.2021
 292	1	2	-0.177057	80.71	13.5342	-72.2443
 293	1	2	-0.065252	80.4337	14.7022	-72.9861
 294	1	1	0.164016	78.0167	14.9969	-69.3579
 295	1	1	0.144303	76.5481	16.0809	-67.715
 296	1	2	-0.207027	77.0266	14.5886	-69.1778
 297	1	2	-0.150602	76.1816	15.2016	-68.2341
 298	1	2	0.201726	76.6015	13.443	-69.8721
 299	1	2	0.015223	74.8975	14.6746	-67.9584
 300	1	7	0.123165	73.9366	15.2947	-66.9149
 301	1	2	-0.193552	75.3385	12.9037	-69.5988
 302	1	2	-0.163782	74.4954	13.5119	-68.6519
 303	1	1	0.167708	75.0203	12.0073	-70.1221
 304	1	1	0.146296	73.525	13.0678	-68.4456
 305	1	2	-0.183938	79.6843	12.8947	-71.5237
 306	1	1	0.154545	79.8944	12.004	-70.9391
 307	1	7	-0.193999	72.6624	15.7633	-67.6723
 308	1	7	-0.196778	74.5199	16.5497	-66.2134
 309	1	9	0.051577	71.9966	16.3466	-67.0242
 310	1	9	0.039353	72.0919	14.9141	-68.0681
 311	1	9	0.072794	72.9341	16.4047	-68.5209
 312	1	9	0.05895	74.7484	17.3442	-66.9348
 313	1	9	0.044008	75.4367	16.3078	-65.6605
 314	1	9	0.064391	73.8014	16.9556	-65.4902
 315	1	1	0.130931	75.7085	13.6177	-65.6787
 316	1	2	-0.035623	74.7004	13.4852	-65.2928
 317	1	2	-0.458756	74.4797	12.5469	-64.2725
 318	1	1	0.207809	75.3105	11.9664	-63.8822
 319	1	2	0.31527	73.1999	12.3543	-63.7399
 320	1	2	-0.466224	72.1426	13.1491	-64.2148
 321	1	1	0.20556	71.1525	13.0336	-63.7844
 322	1	2	-0.031899	72.3547	14.0839	-65.246
 323	1	1	0.127567	71.5129	14.6768	-65.5906
 324	1	2	0.005289	73.6395	14.2575	-65.8107
 325	1	1	0.144011	71.2428	10.6001	-64.5312
 326	1	2	-0.407424	71.1197	10.2182	-63.5212
 327	1	2	0.096878	70.0907	9.29421	-63.2565
 328	1	1	0.131719	69.4244	8.98616	-64.06
 329	1	2	0.007579	69.934	8.75004	-61.9683
 330	1	3	0.947259	68.5982	7.55536	-61.691
 331	1	2	-0.433296	70.8248	9.13494	-60.9379
 332	1	1	0.195208	70.7287	8.70704	-59.9423
 333	1	2	0.002203	71.8502	10.0614	-61.2062
 334	1	1	0.245959	72.5494	10.347	-60.4216
 335	1	2	0.108341	71.9975	10.6147	-62.491
 336	1	4	-0.012027	73.0507	11.4684	-62.7048
 337	1	5	-0.530873	69.2294	6.27932	-61.3344
 338	1	5	-0.5745	67.6581	7.66507	-62.8138
 339	1	1	0.177717	66.3728	9.39473	-61.2873
 340	1	2	-0.13906	66.7216	9.0841	-60.3033
 341	1	2	-0.172291	66.0909	9.5721	-59.1465
 342	1	1	0.137587	65.2681	10.2764	-59.2398
 343	1	2	0.27179	66.5241	9.15145	-57.8745
 344	1	6	-0.297458	65.9161	9.5982	-56.725
 345	1	1	0.184682	69.0473	7.04732	-58.8339
 346	1	2	-0.177057	68.2301	7.76285	-58.9195
 347	1	2	-0.065252	67.7935	8.17749	-60.1947
 348	1	1	0.164016	63.8619	8.1116	-57.5145
 349	1	1	0.144303	61.5006	8.82916	-57.5485
 350	1	2	-0.207027	63.5927	9.09997	-57.1522
 351	1	2	-0.150602	62.2497	9.51813	-57.1716
 352	1	2	0.201726	64.5953	9.96822	-56.6938
 353	1	2	0.015223	61.8912	10.8116	-56.7255
 354	1	7	0.123165	60.4405	11.3411	-56.7605
 355	1	2	-0.193552	64.2524	11.2399	-56.2276
 356	1	2	-0.163782	62.9121	11.6559	-56.2364
 357	1	1	0.167708	65.0273	11.92	-55.8958
 358	1	1	0.146296	62.6729	12.657	-55.8835
 359	1	2	-0.183938	67.5973	8.25462	-57.7641
 360	1	1	0.154545	67.9204	7.9276	-56.781
 361	1	7	-0.193999	59.9249	11.3535	-55.2973
 362	1	7	-0.196778	59.4765	10.4397	-57.5783
 363	1	9	0.051577	60.0289	10.3621	-54.8473
 364	1	9	0.039353	58.8652	11.6323	-55.2431
 365	1	9	0.072794	60.502	12.0515	-54.6767
 366	1	9	0.05895	59.3567	9.45218	-57.1157
 367	1	9	0.044008	59.8375	10.2978	-58.6048
 368	1	9	0.064391	58.4807	10.8969	-57.6398
 369	1	1	0.130931	61.5918	12.0745	-59.1295
 370	1	2	-0.035623	61.1102	12.9212	-58.6438
 371	1	2	-0.458756	61.2207	14.1947	-59.2229
 372	1	1	0.207809	61.7912	14.3213	-60.1383
 373	1	2	0.31527	60.6592	15.3114	-58.5915
 374	1	2	-0.466224	59.9631	15.14	-57.3875
 375	1	1	0.20556	59.5487	16.0088	-56.8825
 376	1	2	-0.031899	59.8443	13.8679	-56.8056
 377	1	1	0.127567	59.3187	13.7805	-55.8597
 378	1	2	0.005289	60.4408	12.7387	-57.4139
 379	1	1	0.144011	61.5203	19.0317	-59.7315
 380	1	2	-0.407424	62.2162	18.591	-59.0225
 381	1	2	0.096878	63.3126	19.343	-58.5583
 382	1	1	0.131719	63.454	20.3617	-58.9118
 383	1	2	0.007579	64.2213	18.7832	-57.6407
 384	1	3	0.947259	65.5803	19.796	-57.0075
 385	1	2	-0.433296	64.0267	17.4611	-57.1878
 386	1	1	0.195208	64.7345	17.0157	-56.4959
 387	1	2	0.002203	62.9314	16.7113	-57.6499
 388	1	1	0.245959	62.8	15.6894	-57.2929
 389	1	2	0.108341	62.0189	17.2735	-58.5718
 390	1	4	-0.012027	60.9401	16.5666	-59.0482
 391	1	5	-0.530873	65.6882	20.9905	-57.8534
 392	1	5	-0.5745	66.737	18.9262	-56.7444
 393	1	1	0.177717	65.835	18.6599	-54.3226
 394	1	2	-0.13906	65.1725	19.5204	-54.2555
 395	1	2	-0.172291	64.582	19.8572	-53.0248
 396	1	1	0.137587	64.7835	19.2589	-52.1416
 397	1	2	0.27179	63.727	20.9664	-52.933
 398	1	6	-0.297458	63.145	21.2652	-51.7237
 399	1	1	0.184682	63.8144	21.9893	-56.1998
 400	1	2	-0.177057	64.0359	21.3975	-55.313
 401	1	2	-0.065252	64.9	20.2882	-55.4057
 402	1	1	0.164016	64.886	23.2727	-51.8584
 403	1	1	0.144303	64.5203	25.546	-51.0149
 404	1	2	-0.207027	63.9283	23.5292	-51.4153
 405	1	2	-0.150602	63.7106	24.8296	-50.9294
 406	1	2	0.201726	62.9291	22.5523	-51.2959
 407	1	2	0.015223	62.4904	25.1777	-50.3048
 408	1	7	0.123165	62.2612	26.5612	-49.6502
 409	1	2	-0.193552	61.712	22.8783	-50.6872
 410	1	2	-0.163782	61.4957	24.1785	-50.195
 411	1	1	0.167708	60.9487	22.1132	-50.5768
 412	1	1	0.146296	60.5614	24.3937	-49.6856
 413	1	2	-0.183938	63.4515	21.734	-54.0794
 414	1	1	0.154545	62.7743	22.5807	-54.0121
 415	1	7	-0.193999	60.8893	27.1337	-50.1143
 416	1	7	-0.196778	63.3028	27.6307	-50.0916
 417	1	9	0.051577	60.7199	28.1369	-49.7026
 418	1	9	0.039353	60.0428	26.5078	-49.8121
 419	1	9	0.072794	60.8593	27.2159	-51.2085
 420	1	9	0.05895	64.324	27.3743	-49.7878
 421	1	9	0.044008	63.0753	28.6035	-49.637
 422	1	9	0.064391	63.2969	27.7613	-51.1811
 423	1	1	0.130931	64.435	25.7018	-48.2352
 424	1	2	-0.035623	63.5902	25.9075	-47.5818
 425	1	2	-0.458756	63.7295	25.6726	-46.2053
 426	1	1	0.207809	64.6738	25.2995	-45.817
 427	1	2	0.31527	62.6548	25.8708	-45.3327
 428	1	2	-0.466224	61.4298	26.317	-45.8582
 429	1	1	0.20556	60.5786	26.4565	-45.2007
 430	1	2	-0.031899	61.2905	26.5764	-47.2348
 431	1	1	0.127567	60.3287	26.9219	-47.5999
 432	1	2	0.005289	62.3707	26.3678	-48.1221
 433	1	1	0.144011	61.914	28.0849	-43.835
 434	1	2	-0.407424	61.7891	27.475	-42.9433
 435	1	2	0.096878	61.2083	28.0448	-41.7947
 436	1	1	0.131719	60.8821	29.0826	-41.8172
 437	1	2	0.007579	61.0691	27.2842	-40.6185
 438	1	3	0.947259	60.4108	28.0743	-39.1268
 439	1	2	-0.433296	61.5153	25.9432	-40.5998
 440	1	1	0.195208	61.423	25.355	-39.6882
 441	1	2	0.002203	62.0881	25.3763	-41.7524
 442	1	1	0.245959	62.4408	24.3479	-41.7365
 443	1	2	0.108341	62.2182	26.1324	-42.931
 444	1	4	-0.012027	62.8226	25.5411	-44.0115
 445	1	5	-0.530873	60.161	29.4856	-39.44
 446	1	5	-0.5745	59.3634	27.2244	-38.546
 447	1	1	0.177717	60.6561	27.3217	-36.3067
 448	1	2	-0.13906	61.6509	27.5826	-36.6646
 449	1	2	-0.172291	62.7574	27.4984	-35.801
 450	1	1	0.137587	62.6305	27.1784	-34.7706
 451	1	2	0.27179	64.0378	27.8283	-36.272
 452	1	6	-0.297458	65.1147	27.7847	-35.4271
 453	1	1	0.184682	63.2553	28.6882	-39.4835
 454	1	2	-0.177057	63.1127	28.3545	-38.457
 455	1	2	-0.065252	61.8248	28.0064	-37.998
 456	1	1	0.164016	63.9352	30.2011	-35.2938
 457	1	1	0.144303	64.4631	31.9511	-33.6462
 458	1	2	-0.207027	64.7079	30.0167	-34.5555
 459	1	2	-0.150602	65.0173	31.0156	-33.62
 460	1	2	0.201726	65.3969	28.7921	-34.5365
 461	1	2	0.015223	66.0452	30.8285	-32.6701
 462	1	7	0.123165	66.3617	31.9616	-31.6685
 463	1	2	-0.193552	66.4038	28.5833	-33.5867
 464	1	2	-0.163782	66.7261	29.5894	-32.6593
 465	1	1	0.167708	66.9311	27.6336	-33.5668
 466	1	1	0.146296	67.5063	29.3848	-31.9334
 467	1	2	-0.183938	64.2174	28.2577	-37.5942
 468	1	1	0.154545	65.213	28.5212	-37.9399
 469	1	7	-0.193999	67.7463	31.7991	-30.988
 470	1	7	-0.196778	65.2767	31.8777	-30.5606
 471	1	9	0.051577	67.783	30.9107	-30.345
 472	1	9	0.039353	67.9702	32.6666	-30.3538
 473	1	9	0.072794	68.5463	31.7204	-31.7354
 474	1	9	0.05895	65.504	32.5399	-29.716
 475	1	9	0.044008	65.2119	30.8573	-30.1599
 476	1	9	0.064391	64.2875	32.1445	-30.9542
 477	1	1	0.130931	65.462	34.4779	-30.7838
 478	1	2	-0.035623	65.8632	34.5	-31.7921
 479	1	2	-0.458756	65.8682	35.7233	-32.4839
 480	1	1	0.207809	65.4741	36.6093	-31.9959
 481	1	2	0.31527	66.388	35.8133	-33.787
 482	1	2	-0.466224	66.9224	34.6608	-34.3766
 483	1	1	0.20556	67.34	34.7199	-35.3774
 484	1	2	-0.031899	66.9366	33.4384	-33.6829
 485	1	1	0.127567	67.3727	32.5642	-34.1619
 486	1	2	0.005289	66.3743	33.3284	-32.3919
 487	1	1	0.144011	68.1881	38.4072	-33.2216
 488	1	2	-0.407424	67.1979	38.8543	-33.2538
 489	1	2	0.096878	66.9615	40.0819	-32.6102
 490	1	1	0.131719	67.7712	40.5829	-32.0841
 491	1	2	0.007579	65.6759	40.6512	-32.6205
 492	1	3	0.947259	65.4216	42.1736	-31.6756
 493	1	2	-0.433296	64.624	39.997	-33.3054
 494	1	1	0.195208	63.6288	40.4407	-33.3148
 495	1	2	0.002203	64.8679	38.777	-33.9646
 496	1	1	0.245959	64.0618	38.2594	-34.4818
 497	1	2	0.108341	66.1504	38.2002	-33.9253
 498	1	4	-0.012027	66.3724	36.9826	-34.505
 499	1	5	-0.530873	66.61	43.0177	-31.8474
 500	1	5	-0.5745	64.0622	42.6577	-31.9435
 501	1	1	0.177717	63.4608	40.7188	-30.0781
 502	1	2	-0.13906	64.3555	40.8355	-29.4675
 503	1	2	-0.172291	64.4076	40.2807	-28.1754
 504	1	1	0.137587	63.5565	39.7315	-27.7834
 505	1	2	0.27179	65.5676	40.4256	-27.3926
 506	1	6	-0.297458	65.6554	39.8734	-26.1372
 507	1	1	0.184682	67.487	42.2189	-29.583
 508	1	2	-0.177057	66.6268	41.6755	-29.1937
 509	1	2	-0.065252	65.4662	41.5334	-29.9828
 510	1	1	0.164016	65.2051	38.0994	-24.2812
 511	1	1	0.144303	63.48	38.2244	-22.5171
 512	1	2	-0.207027	64.54	38.9568	-24.2338
 513	1	2	-0.150602	63.5536	39.0361	-23.2339
 514	1	2	0.201726	64.6759	39.9815	-25.1792
 515	1	2	0.015223	62.6855	40.1502	-23.1638
 516	1	7	0.123165	61.5721	40.2759	-22.0995
 517	1	2	-0.193552	63.8469	41.1117	-25.0994
 518	1	2	-0.163782	62.8655	41.1949	-24.0977
 519	1	1	0.167708	63.9687	41.9278	-25.8056
 520	1	1	0.146296	62.2343	42.0788	-24.0507
 521	1	2	-0.183938	66.6751	41.117	-27.9043
 522	1	1	0.154545	67.5673	41.2185	-27.2932
 523	1	7	-0.193999	62.1034	41.2247	-20.9923
 524	1	7	-0.196778	61.2256	38.9248	-21.4166
 525	1	9	0.051577	62.2831	42.2335	-21.3847
 526	1	9	0.039353	63.0554	40.8541	-20.5904
 527	1	9	0.072794	61.4013	41.2976	-20.1523
 528	1	9	0.05895	60.3628	39.0415	-20.7478
 529	1	9	0.044008	62.0592	38.5504	-20.8087
 530	1	9	0.064391	60.9679	38.1575	-22.1577
 531	1	1	0.130931	60.3813	39.2971	-24.3493
 532	1	2	-0.035623	59.8295	40.1459	-23.9515
 533	1	2	-0.458756	58.6841	40.5982	-24.627
 534	1	1	0.207809	58.3565	40.0928	-25.5316
 535	1	2	0.31527	57.9519	41.6892	-24.1369
 536	1	2	-0.466224	58.3798	42.3218	-22.9631
 537	1	1	0.20556	57.8126	43.1629	-22.5741
 538	1	2	-0.031899	59.5314	41.8794	-22.2863
 539	1	1	0.127567	59.8303	42.3985	-21.381
 540	1	2	0.005289	60.2818	40.7875	-22.7788
 541	1	1	0.144011	54.9296	41.4268	-26.4595
 542	1	2	-0.407424	55.7773	41.9128	-26.9351
 543	1	2	0.096878	55.7978	42.0756	-28.3334
 544	1	1	0.131719	54.9633	41.7115	-28.9284
 545	1	2	0.007579	56.8966	42.6922	-28.9621
 546	1	3	0.947259	56.9326	42.789	-30.772
 547	1	2	-0.433296	57.9746	43.1656	-28.177
 548	1	1	0.195208	58.8205	43.6523	-28.6605
 549	1	2	0.002203	57.9534	42.9958	-26.7803
 550	1	1	0.245959	58.7855	43.3481	-26.1739
 551	1	2	0.108341	56.8613	42.3574	-26.1587
 552	1	4	-0.012027	56.8494	42.1549	-24.8036
 553	1	5	-0.530873	55.7127	42.1494	-31.2807
 554	1	5	-0.5745	57.3199	44.1532	-31.1494
 555	1	1	0.177717	59.7482	43.3526	-31.3738
 556	1	2	-0.13906	59.6177	42.2708	-31.3664
 557	1	2	-0.172291	60.7247	41.4319	-31.5786
 558	1	1	0.137587	61.7055	41.8616	-31.7534
 559	1	2	0.27179	60.5656	40.0392	-31.5734
 560	1	6	-0.297458	61.6669	39.2387	-31.7593
 561	1	1	0.184682	57.1973	39.8838	-30.9719
 562	1	2	-0.177057	58.1827	40.3146	-31.1433
 563	1	2	-0.065252	58.3422	41.7154	-31.1412
 564	1	1	0.164016	60.3656	39.0411	-34.088
 565	1	1	0.144303	60.4197	37.1047	-35.5937
 566	1	2	-0.207027	60.9635	38.1737	-33.8201
 567	1	2	-0.150602	61.0059	37.063	-34.6809
 568	1	2	0.201726	61.6847	38.1647	-32.6157
 569	1	2	0.015223	61.7829	35.9251	-34.3596
 570	1	7	0.123165	61.8349	34.6611	-35.2536
 571	1	2	-0.193552	62.4779	37.0572	-32.2955
 572	1	2	-0.163782	62.5313	35.9511	-33.1613
 573	1	1	0.167708	63.0453	37.0609	-31.3697
 574	1	1	0.146296	63.1403	35.093	-32.887
 575	1	2	-0.183938	59.2943	39.4791	-31.3556
 576	1	1	0.154545	59.1758	38.3998	-31.3441
 577	1	7	-0.193999	63.3001	34.5234	-35.7555
 578	1	7	-0.196778	60.9255	34.769	-36.5071
 579	1	9	0.051577	63.9765	34.2408	-34.9391
 580	1	9	0.039353	63.6571	35.4739	-36.1726
 581	1	9	0.072794	63.3964	33.77	-36.5458
 582	1	9	0.05895	60.9849	33.8592	-37.118
 583	1	9	0.044008	61.2194	35.6109	-37.1464
 584	1	9	0.064391	59.8737	34.8977	-36.2201
 585	1	1	0.130931	62.2669	31.9893	-35.868
 586	1	2	-0.035623	61.7178	32.1117	-34.9391
 587	1	2	-0.458756	61.3264	30.9638	-34.2282
 588	1	1	0.207809	61.5725	29.979	-34.6155
 589	1	2	0.31527	60.59	31.0762	-33.0391
 590	1	2	-0.466224	60.2112	32.3483	-32.5966
 591	1	1	0.20556	59.6085	32.4428	-31.6974
 592	1	2	-0.031899	60.5897	33.4988	-33.3098
 593	1	1	0.127567	60.2538	34.4666	-32.9465
 594	1	2	0.005289	61.3893	33.4031	-34.4718
 595	1	1	0.144011	59.4196	27.5051	-31.9526
 596	1	2	-0.407424	60.4978	27.6322	-31.9048
 597	1	2	0.096878	61.325	26.5178	-31.6736
 598	1	1	0.131719	60.8822	25.5329	-31.5463
 599	1	2	0.007579	62.7224	26.6673	-31.6276
 600	1	3	0.947259	63.735	25.177	-31.4518
 601	1	2	-0.433296	63.2912	27.9525	-31.7793
 602	1	1	0.195208	64.3725	28.0738	-31.7288
 603	1	2	0.002203	62.461	29.0681	-31.9895
 604	1	1	0.245959	62.9026	30.0564	-32.0959
 605	1	2	0.108341	61.062	28.9076	-32.0797
 606	1	4	-0.012027	60.2281	29.9722	-32.3126
 607	1	5	-0.530873	65.1344	25.5812	-31.263
 608	1	5	-0.5745	63.0307	24.2731	-30.534
 609	1	1	0.177717	65.2734	25.5386	-33.9075
 610	1	2	-0.13906	64.4486	24.865	-34.1339
 611	1	2	-0.172291	64.2567	24.403	-35.4479
 612	1	1	0.137587	64.9287	24.7149	-36.2421
 613	1	2	0.27179	63.1745	23.5626	-35.7473
 614	1	6	-0.297458	62.9851	23.1533	-37.0449
 615	1	1	0.184682	61.8231	23.2778	-32.6144
 616	1	2	-0.177057	62.4978	23.6002	-33.4069
 617	1	2	-0.065252	63.5603	24.4787	-33.1115
 618	1	1	0.164016	60.9229	24.8216	-36.6614
 619	1	1	0.144303	58.7517	24.6978	-37.8052
 620	1	2	-0.207027	60.7429	24.0225	-37.3732
 621	1	2	-0.150602	59.5021	23.9449	-38.0311
 622	1	2	0.201726	61.7522	23.0854	-37.6484
 623	1	2	0.015223	59.2497	22.9263	-38.9782
 624	1	7	0.123165	57.9151	22.8025	-39.7465
 625	1	2	-0.193552	61.5185	22.0755	-38.5885
 626	1	2	-0.163782	60.2766	21.992	-39.2412
 627	1	1	0.167708	62.3021	21.3537	-38.7989
 628	1	1	0.146296	60.1115	21.1959	-39.9621
 629	1	2	-0.183938	62.3084	23.1425	-34.7225
 630	1	1	0.154545	61.4891	22.4675	-34.9531
 631	1	7	-0.193999	56.9457	23.9945	-39.5094
 632	1	7	-0.196778	57.1799	21.5371	-39.2247
 633	1	9	0.051577	56.0491	23.8929	-40.1344
 634	1	9	0.039353	57.4104	24.9576	-39.7546
 635	1	9	0.072794	56.6149	24.0401	-38.4641
 636	1	9	0.05895	56.2212	21.3926	-39.7395
 637	1	9	0.044008	56.9682	21.6275	-38.1515
 638	1	9	0.064391	57.7836	20.6315	-39.3596
 639	1	1	0.130931	59.1305	24.7207	-41.2484
 640	1	2	-0.035623	58.9069	23.8388	-41.8448
 641	1	2	-0.458756	59.2984	23.8031	-43.193
 642	1	1	0.207809	59.8035	24.6574	-43.6336
 643	1	2	0.31527	59.0294	22.6763	-43.9792
 644	1	2	-0.466224	58.3713	21.582	-43.4066
 645	1	1	0.20556	58.1709	20.7031	-44.0133
 646	1	2	-0.031899	57.9726	21.6125	-42.0587
 647	1	1	0.127567	57.4674	20.7421	-41.6512
 648	1	2	0.005289	58.2451	22.7423	-41.2529
 649	1	1	0.144011	60.4782	23.0633	-47.6347
 650	1	2	-0.407424	61.2187	22.8001	-46.8868
 651	1	2	0.096878	62.579	22.7453	-47.2369
 652	1	1	0.131719	62.8891	22.9641	-48.2533
 653	1	2	0.007579	63.5495	22.4191	-46.2765
 654	1	3	0.947259	65.275	22.3174	-46.8106
 655	1	2	-0.433296	63.1538	22.1403	-44.9473
 656	1	1	0.195208	63.9094	21.8803	-44.2075