pySIMM System Object

1298 atoms
1393 bonds
2352 angles
3502 dihedrals
432 impropers

9 atom types
10 bond types
17 angle types
7 dihedral types
2 improper types

-161.682682 161.682682 xlo xhi
-161.682682 161.682682 ylo yhi
-161.682682 161.682682 zlo zhi

Masses

   1	1.008	# ha
   2	12.01	# ca
   3	32.06	# sy
   4	16.0	# oh
   5	16.0	# o
   6	16.0	# os
   7	12.01	# c3
   8	1.008	# ho
   9	1.008	# hc

Pair Coeffs

   1	0.015	2.59964245953351	# ha
   2	0.086	3.3996695084235347	# ca
   3	0.25	3.563594872561357	# sy
   4	0.2104	3.0664733878390478	# oh
   5	0.21	2.959921901149463	# o
   6	0.17	3.0000123434657784	# os
   7	0.1094	3.3996695084235347	# c3
   8	0.0	0.0	# ho
   9	0.0157	2.649532787749369	# hc

Bond Coeffs

   1	371.4	0.973	# ho,oh
   2	243.4	1.7909	# ca,sy
   3	461.1	1.3984	# ca,ca
   4	300.9	1.5375	# c3,c3
   5	330.6	1.0969	# c3,hc
   6	493.0	1.466	# o,sy
   7	345.8	1.086	# ca,ha
   8	321.0	1.5156	# c3,ca
   9	376.6	1.3696	# ca,os
  10	384.0	1.3637	# ca,oh

Angle Coeffs

   1	61.48	119.42	# ca,ca,sy
   2	72.54	121.41	# o,sy,o
   3	69.58	119.2	# ca,ca,os
   4	60.3	104.44	# ca,sy,ca
   5	46.34	109.8	# c3,c3,hc
   6	49.0	108.58	# ca,oh,ho
   7	65.77	108.35	# ca,sy,o
   8	63.48	119.89	# ca,os,ca
   9	69.52	119.9	# ca,ca,oh
  10	63.56	112.24	# ca,c3,ca
  11	62.86	111.51	# c3,c3,c3
  12	39.4	107.58	# hc,c3,hc
  13	66.62	120.02	# ca,ca,ca
  14	48.18	119.88	# ca,ca,ha
  15	63.15	112.07	# c3,c3,ca
  16	63.53	120.77	# c3,ca,ca
  17	63.5	119.89	# ca,oh,ca

Dihedral Coeffs

   1	1	0.9	2	180	# X,ca,oh,X
   2	1	1.3	2	180	# X,ca,sy,X
   3	1	0.16	3	0	# hc,c3,c3,c3
   4	1	3.625	2	180	# X,ca,ca,X
   5	1	0.0	2	0	# X,c3,ca,X
   6	1	0.15555555555555556	3	0	# X,c3,c3,X
   7	1	0.9	2	180	# X,ca,os,X

Improper Coeffs

   1	1.1	-1	2	# ca,X,X,ha
   2	1.1	-1	2	# ca,ca,ca,c3

Atoms

   1	1	1	0.144011	-23.7897	84.4463	-49.5471
   2	1	2	-0.407424	-23.0164	83.6885	-49.4595
   3	1	2	0.096878	-23.3757	82.3346	-49.3147
   4	1	1	0.131719	-24.426	82.0551	-49.2908
   5	1	2	0.007579	-22.3848	81.343	-49.2051
   6	1	3	0.947259	-22.9288	79.6223	-49.0273
   7	1	2	-0.433296	-21.0175	81.7107	-49.2391
   8	1	1	0.195208	-20.2484	80.9426	-49.1701
   9	1	2	0.002203	-20.662	83.0668	-49.3903
  10	1	1	0.245959	-19.6172	83.3635	-49.4313
  11	1	2	0.108341	-21.66	84.05	-49.4965
  12	1	4	-0.012027	-21.3054	85.3607	-49.6324
  13	1	5	-0.530873	-24.249	79.5023	-49.6581
  14	1	5	-0.5745	-21.797	78.7593	-49.3879
  15	1	1	0.177717	-25.3268	79.7339	-47.3196
  16	1	2	-0.13906	-24.4613	79.5897	-46.6748
  17	1	2	-0.172291	-24.6321	79.5021	-45.2807
  18	1	1	0.137587	-25.6223	79.5839	-44.8423
  19	1	2	0.27179	-23.5238	79.2969	-44.445
  20	1	6	-0.297458	-23.7167	79.2206	-43.0853
  21	1	1	0.184682	-21.0688	79.1736	-46.831
  22	1	2	-0.177057	-22.0626	79.2716	-46.3962
  23	1	2	-0.065252	-23.1726	79.479	-47.2382
  24	1	1	0.164016	-23.0219	76.7083	-43.6589
  25	1	1	0.144303	-21.767	75.1928	-42.1597
  26	1	2	-0.207027	-22.7059	77.059	-42.6806
  27	1	2	-0.150602	-21.9934	76.2023	-41.8256
  28	1	2	0.201726	-23.0191	78.3633	-42.268
  29	1	2	0.015223	-21.586	76.6265	-40.5417
  30	1	7	0.123165	-20.8286	75.6276	-39.6377
  31	1	2	-0.193552	-22.6352	78.7962	-40.9924
  32	1	2	-0.163782	-21.9197	77.9399	-40.1351
  33	1	1	0.167708	-22.8939	79.8017	-40.6742
  34	1	1	0.146296	-21.6387	78.3118	-39.1552
  35	1	2	-0.183938	-22.2374	79.1882	-45.0039
  36	1	1	0.154545	-21.3781	79.0388	-44.357
  37	1	7	-0.193999	-20.5552	76.1716	-38.2098
  38	1	7	-0.196778	-19.4405	75.3699	-40.2867
  39	1	9	0.051577	-20.049	75.414	-37.5979
  40	1	9	0.039353	-21.4871	76.4396	-37.6963
  41	1	9	0.072794	-19.909	77.0585	-38.2376
  42	1	9	0.05895	-18.9072	76.3165	-40.4432
  43	1	9	0.044008	-19.5364	74.8818	-41.2647
  44	1	9	0.064391	-18.8083	74.7388	-39.6494
  45	1	1	0.130931	-20.1341	72.8999	-39.9919
  46	1	2	-0.035623	-21.177	73.0523	-39.7309
  47	1	2	-0.458756	-22.0194	71.9283	-39.6517
  48	1	1	0.207809	-21.6246	70.9381	-39.8607
  49	1	2	0.31527	-23.3783	72.077	-39.3448
  50	1	2	-0.466224	-23.8843	73.354	-39.0783
  51	1	1	0.20556	-24.9363	73.4746	-38.8343
  52	1	2	-0.031899	-23.0481	74.4804	-39.1539
  53	1	1	0.127567	-23.467	75.4667	-38.9655
  54	1	2	0.005289	-21.6859	74.351	-39.5003
  55	1	1	0.144011	-25.8936	69.0122	-39.1562
  56	1	2	-0.407424	-25.2807	69.1356	-38.2671
  57	1	2	0.096878	-25.4737	68.2854	-37.1641
  58	1	1	0.131719	-26.2403	67.5146	-37.2086
  59	1	2	0.007579	-24.6951	68.4394	-36.0022
  60	1	3	0.947259	-25.0191	67.3423	-34.5955
  61	1	2	-0.433296	-23.7231	69.4662	-35.9455
  62	1	1	0.195208	-23.1406	69.6033	-35.035
  63	1	2	0.002203	-23.5456	70.3295	-37.0447
  64	1	1	0.245959	-22.814	71.1334	-36.9857
  65	1	2	0.108341	-24.3243	70.1642	-38.2115
  66	1	4	-0.012027	-24.2037	70.9889	-39.3009
  67	1	5	-0.530873	-24.6428	68.021	-33.349
  68	1	5	-0.5745	-26.3673	66.799	-34.7977
  69	1	1	0.177717	-23.1245	66.0413	-32.7916
  70	1	2	-0.13906	-23.0888	65.5068	-33.7399
  71	1	2	-0.172291	-22.3047	64.3447	-33.8609
  72	1	1	0.137587	-21.7389	63.9738	-33.0117
  73	1	2	0.27179	-22.297	63.6251	-35.0654
  74	1	6	-0.297458	-21.6658	62.4101	-35.1351
  75	1	1	0.184682	-24.5051	65.5214	-36.8565
  76	1	2	-0.177057	-23.8664	65.2186	-36.0302
  77	1	2	-0.065252	-23.886	65.9427	-34.8191
  78	1	1	0.164016	-19.489	63.9282	-34.7345
  79	1	1	0.144303	-17.2231	63.4031	-35.575
  80	1	2	-0.207027	-19.3342	63.0526	-35.3569
  81	1	2	-0.150602	-18.0448	62.7411	-35.8299
  82	1	2	0.201726	-20.4138	62.209	-35.6585
  83	1	2	0.015223	-17.8104	61.5848	-36.6115
  84	1	7	0.123165	-16.3801	61.2329	-37.0925
  85	1	2	-0.193552	-20.2061	61.0805	-36.4586
  86	1	2	-0.163782	-18.9249	60.7821	-36.9516
  87	1	1	0.167708	-21.0461	60.432	-36.6881
  88	1	1	0.146296	-18.8118	59.906	-37.5839
  89	1	2	-0.183938	-23.0685	64.0659	-36.1512
  90	1	1	0.154545	-23.0848	63.4786	-37.0644
  91	1	7	-0.193999	-15.3523	61.3856	-35.9351
  92	1	7	-0.196778	-15.9816	62.2605	-38.1861
  93	1	9	0.051577	-14.3714	60.9953	-36.2363
  94	1	9	0.039353	-15.6707	60.8365	-35.0405
  95	1	9	0.072794	-15.2083	62.433	-35.6458
  96	1	9	0.05895	-16.0063	63.2848	-37.7938
  97	1	9	0.044008	-16.6749	62.221	-39.0359
  98	1	9	0.064391	-14.964	62.0766	-38.5542
  99	1	1	0.130931	-16.8404	58.9457	-35.6569
 100	1	2	-0.035623	-16.5723	58.7162	-36.6853
 101	1	2	-0.458756	-16.5479	57.3742	-37.1026
 102	1	1	0.207809	-16.7804	56.5814	-36.3984
 103	1	2	0.31527	-16.2255	57.0483	-38.4255
 104	1	2	-0.466224	-15.9383	58.0773	-39.3311
 105	1	1	0.20556	-15.6885	57.8288	-40.3583
 106	1	2	-0.031899	-15.9696	59.4226	-38.9221
 107	1	1	0.127567	-15.7469	60.1864	-39.6603
 108	1	2	0.005289	-16.293	59.7668	-37.5884
 109	1	1	0.144011	-13.7629	56.3595	-37.8948
 110	1	2	-0.407424	-13.8956	55.3408	-38.2513
 111	1	2	0.096878	-12.8032	54.4551	-38.214
 112	1	1	0.131719	-11.8456	54.8023	-37.8315
 113	1	2	0.007579	-12.9424	53.1308	-38.6704
 114	1	3	0.947259	-11.5106	52.0222	-38.5768
 115	1	2	-0.433296	-14.1898	52.6961	-39.1757
 116	1	1	0.195208	-14.2943	51.6751	-39.5413
 117	1	2	0.002203	-15.277	53.5892	-39.2225
 118	1	1	0.245959	-16.2352	53.2638	-39.6209
 119	1	2	0.108341	-15.1383	54.9115	-38.7616
 120	1	4	-0.012027	-16.2272	55.7436	-38.8373
 121	1	5	-0.530873	-11.5686	51.0571	-39.6815
 122	1	5	-0.5745	-10.3347	52.868	-38.34
 123	1	1	0.177717	-11.8486	52.903	-35.8205
 124	1	2	-0.13906	-11.932	51.8187	-35.8273
 125	1	2	-0.172291	-12.1486	51.1285	-34.6231
 126	1	1	0.137587	-12.2424	51.694	-33.7015
 127	1	2	0.27179	-12.2254	49.7205	-34.6128
 128	1	6	-0.297458	-12.4103	49.0065	-33.4465
 129	1	1	0.184682	-11.7926	49.1518	-37.9645
 130	1	2	-0.177057	-11.8993	49.7049	-37.0318
 131	1	2	-0.065252	-11.8079	51.1124	-37.0387
 132	1	1	0.164016	-14.7389	49.59	-32.3904
 133	1	1	0.144303	-15.1036	50.9307	-30.359
 134	1	2	-0.207027	-13.8892	49.9258	-31.8033
 135	1	2	-0.150602	-14.0836	50.7004	-30.6467
 136	1	2	0.201726	-12.5942	49.6236	-32.2363
 137	1	2	0.015223	-12.9826	51.2038	-29.9106
 138	1	7	0.123165	-13.1691	52.1786	-28.7149
 139	1	2	-0.193552	-11.4913	50.0471	-31.4847
 140	1	2	-0.163782	-11.6843	50.823	-30.3274
 141	1	1	0.167708	-10.4887	49.8059	-31.8261
 142	1	1	0.146296	-10.8102	51.1546	-29.7752
 143	1	2	-0.183938	-12.1029	49.0156	-35.8208
 144	1	1	0.154545	-12.159	47.9312	-35.8102
 145	1	7	-0.193999	-14.565	52.8648	-28.7642
 146	1	7	-0.196778	-12.1213	53.3242	-28.8379
 147	1	9	0.051577	-14.7579	53.2983	-29.7541
 148	1	9	0.039353	-14.6456	53.6779	-28.0325
 149	1	9	0.072794	-15.365	52.1506	-28.5322
 150	1	9	0.05895	-12.093	53.7183	-29.8621
 151	1	9	0.044008	-11.1138	52.9788	-28.5763
 152	1	9	0.064391	-12.3515	54.1655	-28.1733
 153	1	1	0.130931	-13.2059	53.3372	-26.2267
 154	1	2	-0.035623	-13.0708	52.261	-26.1648
 155	1	2	-0.458756	-12.9765	51.6663	-24.8965
 156	1	1	0.207809	-13.0645	52.2943	-24.0143
 157	1	2	0.31527	-12.8158	50.2769	-24.7665
 158	1	2	-0.466224	-12.7739	49.4963	-25.931
 159	1	1	0.20556	-12.6746	48.4182	-25.8446
 160	1	2	-0.031899	-12.8809	50.086	-27.206
 161	1	1	0.127567	-12.8637	49.4424	-28.082
 162	1	2	0.005289	-13.021	51.4852	-27.3428
 163	1	1	0.144011	-14.1411	49.5013	-21.3248
 164	1	2	-0.407424	-13.2693	50.1466	-21.255
 165	1	2	0.096878	-13.0094	50.8439	-20.06
 166	1	1	0.131719	-13.6855	50.733	-19.2149
 167	1	2	0.007579	-11.897	51.7009	-19.9614
 168	1	3	0.947259	-11.6458	52.6174	-18.4137
 169	1	2	-0.433296	-11.0333	51.8497	-21.0741
 170	1	1	0.195208	-10.1848	52.5297	-21.0081
 171	1	2	0.002203	-11.3008	51.155	-22.2706
 172	1	1	0.245959	-10.654	51.2837	-23.1367
 173	1	2	0.108341	-12.4289	50.3149	-22.369
 174	1	4	-0.012027	-12.7299	49.663	-23.5391
 175	1	5	-0.530873	-10.8934	53.8378	-18.731
 176	1	5	-0.5745	-12.9369	52.6452	-17.7152
 177	1	1	0.177717	-8.74021	52.5937	-18.0227
 178	1	2	-0.13906	-9.15607	51.7653	-17.4514
 179	1	2	-0.172291	-8.30509	50.9325	-16.7026
 180	1	1	0.137587	-7.23261	51.1035	-16.7025
 181	1	2	0.27179	-8.83755	49.8687	-15.9547
 182	1	6	-0.297458	-8.0054	49.0119	-15.2731
 183	1	1	0.184682	-12.1555	50.3178	-16.6629
 184	1	2	-0.177057	-11.0791	50.4811	-16.6861
 185	1	2	-0.065252	-10.5478	51.5387	-17.4544
 186	1	1	0.164016	-7.96231	48.3175	-17.8584
 187	1	1	0.144303	-6.18859	47.0457	-18.9649
 188	1	2	-0.207027	-7.11559	47.9726	-17.2731
 189	1	2	-0.150602	-6.1034	47.2309	-17.8994
 190	1	2	0.201726	-7.02952	48.2725	-15.9043
 191	1	2	0.015223	-4.98852	46.7523	-17.1753
 192	1	7	0.123165	-3.86783	45.987	-17.9167
 193	1	2	-0.193552	-5.93019	47.8064	-15.1684
 194	1	2	-0.163782	-4.91168	47.0617	-15.7974
 195	1	1	0.167708	-5.86513	48.0392	-14.1096
 196	1	1	0.146296	-4.05841	46.7391	-15.2065
 197	1	2	-0.183938	-10.2232	49.6488	-15.9401
 198	1	1	0.154545	-10.6252	48.827	-15.3551
 199	1	7	-0.193999	-3.10064	47.0273	-18.779
 200	1	7	-0.196778	-4.47373	44.9456	-18.9017
 201	1	9	0.051577	-2.3204	46.5485	-19.3845
 202	1	9	0.039353	-2.63424	47.7943	-18.1473
 203	1	9	0.072794	-3.77658	47.5448	-19.4712
 204	1	9	0.05895	-4.96247	45.4193	-19.761
 205	1	9	0.044008	-5.21815	44.3123	-18.403
 206	1	9	0.064391	-3.68927	44.2897	-19.301
 207	1	1	0.130931	-1.07014	46.2078	-17.4875
 208	1	2	-0.035623	-1.53648	45.4113	-16.9164
 209	1	2	-0.458756	-0.70239	44.5685	-16.1618
 210	1	1	0.207809	0.371047	44.7357	-16.1679
 211	1	2	0.31527	-1.23149	43.4838	-15.4448
 212	1	2	-0.466224	-2.62229	43.3089	-15.4258
 213	1	1	0.20556	-3.04886	42.4895	-14.8556
 214	1	2	-0.031899	-3.46346	44.1495	-16.1792
 215	1	1	0.127567	-4.53526	43.9655	-16.1802
 216	1	2	0.005289	-2.93342	45.1965	-16.9651
 217	1	1	0.144011	0.324649	42.1296	-17.2971
 218	1	2	-0.407424	1.10815	42.0074	-16.5532
 219	1	2	0.096878	2.41561	41.6892	-16.9694
 220	1	1	0.131719	2.63453	41.5869	-18.0299
 221	1	2	0.007579	3.4501	41.5488	-16.0266
 222	1	3	0.947259	5.15039	41.3312	-16.6349
 223	1	2	-0.433296	3.15711	41.7091	-14.6495
 224	1	1	0.195208	3.96189	41.6339	-13.9184
 225	1	2	0.002203	1.85091	42.0434	-14.2385
 226	1	1	0.245959	1.6331	42.2081	-13.1855
 227	1	2	0.108341	0.827153	42.2194	-15.1876
 228	1	4	-0.012027	-0.423268	42.605	-14.7621
 229	1	5	-0.530873	5.27684	42.1352	-17.8567
 230	1	5	-0.5745	6.04302	41.5211	-15.4848
 231	1	1	0.177717	5.39067	38.8517	-15.1071
 232	1	2	-0.13906	5.44778	38.5882	-16.162
 233	1	2	-0.172291	5.69186	37.2557	-16.5441
 234	1	1	0.137587	5.79762	36.4817	-15.7901
 235	1	2	0.27179	5.82915	36.9167	-17.8997
 236	1	6	-0.297458	6.04997	35.5973	-18.2269
 237	1	1	0.184682	5.35496	40.0187	-19.2684
 238	1	2	-0.177057	5.42867	39.2454	-18.5047
 239	1	2	-0.065252	5.31676	39.5936	-17.1402
 240	1	1	0.164016	5.73906	33.2881	-19.3463
 241	1	1	0.144303	7.21778	32.2405	-21.0314
 242	1	2	-0.207027	6.59675	33.8342	-19.7269
 243	1	2	-0.150602	7.43767	33.2477	-20.6883
 244	1	2	0.201726	6.86697	35.1138	-19.2272
 245	1	2	0.015223	8.57681	33.9265	-21.1754
 246	1	7	0.123165	9.51309	33.2037	-22.1819
 247	1	2	-0.193552	7.99996	35.8043	-19.6919
 248	1	2	-0.163782	8.84201	35.2197	-20.6604
 249	1	1	0.167708	8.24525	36.7803	-19.2838
 250	1	1	0.146296	9.71521	35.7783	-20.9821
 251	1	2	-0.183938	5.67758	37.911	-18.8821
 252	1	1	0.154545	5.76167	37.6469	-19.9322
 253	1	7	-0.193999	10.6188	34.1361	-22.7464
 254	1	7	-0.196778	8.64989	32.7544	-23.397
 255	1	9	0.051577	11.3079	34.4579	-21.9557
 256	1	9	0.039353	10.1853	35.0272	-23.2187
 257	1	9	0.072794	11.2192	33.6197	-23.5065
 258	1	9	0.05895	7.98228	31.9252	-23.1331
 259	1	9	0.044008	9.26593	32.421	-24.2409
 260	1	9	0.064391	8.02988	33.5845	-23.7593
 261	1	1	0.130931	10.7906	31.0476	-23.3899
 262	1	2	-0.035623	10.8081	30.979	-22.3061
 263	1	2	-0.458756	11.4364	29.8692	-21.7105
 264	1	1	0.207809	11.871	29.102	-22.345
 265	1	2	0.31527	11.4891	29.7419	-20.3118
 266	1	2	-0.466224	10.9337	30.7587	-19.5254
 267	1	1	0.20556	10.9811	30.6805	-18.4434
 268	1	2	-0.031899	10.3095	31.8718	-20.115
 269	1	1	0.127567	9.89981	32.6389	-19.463
 270	1	2	0.005289	10.2106	31.99	-21.5199
 271	1	1	0.144011	10.6691	26.5345	-20.3267
 272	1	2	-0.407424	11.7185	26.4881	-20.606
 273	1	2	0.096878	12.2222	25.3476	-21.2593
 274	1	1	0.131719	11.5567	24.5185	-21.4897
 275	1	2	0.007579	13.5797	25.2778	-21.623
 276	1	3	0.947259	14.1638	23.7945	-22.4873
 277	1	2	-0.433296	14.4365	26.3683	-21.3361
 278	1	1	0.195208	15.4822	26.3235	-21.6394
 279	1	2	0.002203	13.9272	27.5112	-20.6899
 280	1	1	0.245959	14.5754	28.3579	-20.4742
 281	1	2	0.108341	12.5696	27.5721	-20.3265
 282	1	4	-0.012027	12.0845	28.6769	-19.6814
 283	1	5	-0.530873	13.0441	23.2947	-23.2949
 284	1	5	-0.5745	15.4779	24.1009	-23.0664
 285	1	1	0.177717	16.4457	23.2517	-20.7388
 286	1	2	-0.13906	15.6611	22.5423	-20.4799
 287	1	2	-0.172291	15.8946	21.5595	-19.4999
 288	1	1	0.137587	16.8518	21.5095	-18.9895
 289	1	2	0.27179	14.9041	20.6117	-19.2006
 290	1	6	-0.297458	15.172	19.6316	-18.2736
 291	1	1	0.184682	12.4701	21.6709	-21.3613
 292	1	2	-0.177057	13.4209	21.6542	-20.8309
 293	1	2	-0.065252	14.4261	22.5884	-21.1583
 294	1	1	0.164016	15.0955	18.2504	-20.5705
 295	1	1	0.144303	14.42	15.8947	-20.8005
 296	1	2	-0.207027	14.8049	17.6886	-19.6874
 297	1	2	-0.150602	14.4273	16.3383	-19.8103
 298	1	2	0.201726	14.8096	18.3126	-18.4283
 299	1	2	0.015223	14.0631	15.58	-18.6731
 300	1	7	0.123165	13.6153	14.1024	-18.769
 301	1	2	-0.193552	14.453	17.5741	-17.2943
 302	1	2	-0.163782	14.0738	16.226	-17.4155
 303	1	1	0.167708	14.4643	18.0553	-16.321
 304	1	1	0.146296	13.7862	15.6841	-16.5187
 305	1	2	-0.183938	13.659	20.6734	-19.8511
 306	1	1	0.154545	12.8891	19.9467	-19.6085
 307	1	7	-0.193999	14.109	13.4033	-20.0693
 308	1	7	-0.196778	12.0642	14.0932	-18.8367
 309	1	9	0.051577	13.9026	12.326	-20.0323
 310	1	9	0.039353	15.1876	13.5335	-20.2191
 311	1	9	0.072794	13.6017	13.7984	-20.9586
 312	1	9	0.05895	11.7109	14.6178	-19.7339
 313	1	9	0.044008	11.6223	14.6052	-17.9728
 314	1	9	0.064391	11.6732	13.0682	-18.8737
 315	1	1	0.130931	12.2815	13.014	-16.5139
 316	1	2	-0.035623	13.3576	12.8736	-16.4873
 317	1	2	-0.458756	13.9222	12.2836	-15.3402
 318	1	1	0.207809	13.2723	12.0101	-14.5141
 319	1	2	0.31527	15.3133	12.1097	-15.2322
 320	1	2	-0.466224	16.124	12.5324	-16.2932
 321	1	1	0.20556	17.2017	12.4233	-16.2152
 322	1	2	-0.031899	15.5676	13.1402	-17.4322
 323	1	1	0.127567	16.2308	13.5032	-18.2133
 324	1	2	0.005289	14.174	13.3248	-17.551
 325	1	1	0.144011	16.2014	12.0898	-11.543
 326	1	2	-0.407424	15.5526	11.2475	-11.7694
 327	1	2	0.096878	14.9511	10.5277	-10.7195
 328	1	1	0.131719	15.1342	10.8287	-9.68997
 329	1	2	0.007579	14.1023	9.43826	-10.9954
 330	1	3	0.947259	13.295	8.59391	-9.60136
 331	1	2	-0.433296	13.8589	9.0742	-12.3434
 332	1	1	0.195208	13.1839	8.25075	-12.5652
 333	1	2	0.002203	14.466	9.79619	-13.3911
 334	1	1	0.245959	14.2848	9.51871	-14.4278
 335	1	2	0.108341	15.302	10.8942	-13.1069
 336	1	4	-0.012027	15.919	11.603	-14.1066
 337	1	5	-0.530873	11.8852	8.44179	-9.97976
 338	1	5	-0.5745	13.6962	9.26666	-8.35912
 339	1	1	0.177717	12.6961	6.20595	-11.1837
 340	1	2	-0.13906	13.4801	5.93856	-10.4781
 341	1	2	-0.172291	13.9743	4.62131	-10.4427
 342	1	1	0.137587	13.5959	3.87343	-11.1327
 343	1	2	0.27179	14.9538	4.26124	-9.50459
 344	1	6	-0.297458	15.4503	2.98027	-9.4921
 345	1	1	0.184682	15.3391	7.28204	-7.93821
 346	1	2	-0.177057	14.9663	6.5432	-8.64707
 347	1	2	-0.065252	13.9794	6.911	-9.58696
 348	1	1	0.164016	16.7955	0.810855	-9.02464
 349	1	1	0.144303	16.1814	-1.00929	-7.46298
 350	1	2	-0.207027	15.8666	0.868747	-8.4654
 351	1	2	-0.150602	15.505	-0.166999	-7.58443
 352	1	2	0.201726	15.0471	1.99441	-8.61857
 353	1	2	0.015223	14.2903	-0.11911	-6.86338
 354	1	7	0.123165	13.9175	-1.24192	-5.8602
 355	1	2	-0.193552	13.8492	2.07439	-7.88874
 356	1	2	-0.163782	13.4778	1.0296	-7.02068
 357	1	1	0.167708	13.2058	2.94343	-7.98933
 358	1	1	0.146296	12.5571	1.13563	-6.45661
 359	1	2	-0.183938	15.4511	5.22105	-8.60865
 360	1	1	0.154545	16.2109	4.93372	-7.88774
 361	1	7	-0.193999	12.3799	-1.42629	-5.73769
 362	1	7	-0.196778	14.4412	-0.776181	-4.47493
 363	1	9	0.051577	11.8977	-0.568064	-5.2545
 364	1	9	0.039353	12.1442	-2.30902	-5.12888
 365	1	9	0.072794	11.9206	-1.56961	-6.72377
 366	1	9	0.05895	14.0787	0.233091	-4.24113
 367	1	9	0.044008	15.5383	-0.743338	-4.46111
 368	1	9	0.064391	14.1	-1.43545	-3.66721
 369	1	1	0.130931	13.834	-2.42833	-8.33888
 370	1	2	-0.035623	14.3329	-3.06689	-7.61317
 371	1	2	-0.458756	14.8267	-4.32036	-8.022
 372	1	1	0.207809	14.7107	-4.63364	-9.05499
 373	1	2	0.31527	15.4709	-5.17267	-7.11402
 374	1	2	-0.466224	15.5943	-4.75523	-5.77781
 375	1	1	0.20556	16.0735	-5.40104	-5.04717
 376	1	2	-0.031899	15.112	-3.49931	-5.36634
 377	1	1	0.127567	15.2288	-3.22613	-4.32258
 378	1	2	0.005289	14.4871	-2.62148	-6.28234
 379	1	1	0.144011	18.5273	-6.04263	-7.19123
 380	1	2	-0.407424	18.1125	-6.91211	-6.68792
 381	1	2	0.096878	18.9395	-7.7139	-5.87769
 382	1	1	0.131719	19.9887	-7.45346	-5.75512
 383	1	2	0.007579	18.4075	-8.82435	-5.195
 384	1	3	0.947259	19.4884	-9.73644	-4.05485
 385	1	2	-0.433296	17.034	-9.13976	-5.34371
 386	1	1	0.195208	16.6107	-9.97474	-4.78726
 387	1	2	0.002203	16.2095	-8.33171	-6.15184
 388	1	1	0.245959	15.1471	-8.54691	-6.24391
 389	1	2	0.108341	16.7435	-7.20987	-6.81191
 390	1	4	-0.012027	15.924	-6.39632	-7.55021
 391	1	5	-0.530873	18.6164	-10.2691	-3.00118
 392	1	5	-0.5745	20.655	-8.89808	-3.75019
 393	1	1	0.177717	18.1254	-12.1237	-5.05132
 394	1	2	-0.13906	19.176	-12.2129	-5.31979
 395	1	2	-0.172291	19.6438	-13.3797	-5.9513
 396	1	1	0.137587	18.958	-14.1883	-6.18519
 397	1	2	0.27179	21.0067	-13.5277	-6.25196
 398	1	6	-0.297458	21.4303	-14.7201	-6.79388
 399	1	1	0.184682	22.1494	-10.5518	-4.99919
 400	1	2	-0.177057	21.4431	-11.328	-5.29229
 401	1	2	-0.065252	20.0733	-11.1792	-4.98627
 402	1	1	0.164016	22.172	-13.1326	-8.80874
 403	1	1	0.144303	24.0994	-13.5291	-10.3034
 404	1	2	-0.207027	22.8173	-13.9898	-8.64151
 405	1	2	-0.150602	23.9154	-14.2227	-9.48895
 406	1	2	0.201726	22.5336	-14.8826	-7.59755
 407	1	2	0.015223	24.7522	-15.3494	-9.312
 408	1	7	0.123165	25.9174	-15.6109	-10.296
 409	1	2	-0.193552	23.3456	-16.0084	-7.41269
 410	1	2	-0.163782	24.4478	-16.2401	-8.25558
 411	1	1	0.167708	23.1087	-16.7074	-6.61619
 412	1	1	0.146296	25.0465	-17.1298	-8.08292
 413	1	2	-0.183938	21.908	-12.5001	-5.91838
 414	1	1	0.154545	22.9694	-12.6273	-6.11011
 415	1	7	-0.193999	26.7623	-14.3151	-10.4806
 416	1	7	-0.196778	25.3109	-15.9286	-11.6925
 417	1	9	0.051577	27.6911	-14.5291	-11.0257
 418	1	9	0.039353	27.024	-13.8655	-9.515
 419	1	9	0.072794	26.2241	-13.5498	-11.0522
 420	1	9	0.05895	24.5654	-16.7308	-11.6347
 421	1	9	0.044008	26.0923	-16.2288	-12.4027
 422	1	9	0.064391	24.7964	-15.0565	-12.1148
 423	1	1	0.130931	25.7444	-18.3661	-10.8218
 424	1	2	-0.035623	26.5873	-18.1125	-10.1872
 425	1	2	-0.458756	27.4147	-19.1559	-9.73429
 426	1	1	0.207809	27.2114	-20.1799	-10.0326
 427	1	2	0.31527	28.5133	-18.8863	-8.90983
 428	1	2	-0.466224	28.7551	-17.5674	-8.5082
 429	1	1	0.20556	29.5952	-17.3517	-7.85536
 430	1	2	-0.031899	27.9227	-16.5225	-8.94551
 431	1	1	0.127567	28.136	-15.5167	-8.5975
 432	1	2	0.005289	26.8343	-16.7692	-9.81471
 433	1	1	0.144011	29.9608	-19.8054	-11.0657
 434	1	2	-0.407424	30.7704	-20.0777	-10.3931
 435	1	2	0.096878	32.0462	-20.3499	-10.9206
 436	1	1	0.131719	32.214	-20.2881	-11.9943
 437	1	2	0.007579	33.1036	-20.7054	-10.0646
 438	1	3	0.947259	34.7162	-21.0847	-10.7923
 439	1	2	-0.433296	32.8812	-20.7887	-8.66998
 440	1	1	0.195208	33.7094	-21.05	-8.01056
 441	1	2	0.002203	31.6047	-20.5117	-8.14668
 442	1	1	0.245959	31.4287	-20.564	-7.0747
 443	1	2	0.108341	30.5487	-20.1515	-9.00337
 444	1	4	-0.012027	29.3141	-19.9017	-8.46517
 445	1	5	-0.530873	34.8096	-20.4883	-12.1299
 446	1	5	-0.5745	35.7579	-20.8243	-9.79274
 447	1	1	0.177717	36.5007	-22.7878	-12.2604
 448	1	2	-0.13906	35.7476	-23.4394	-11.8188
 449	1	2	-0.172291	35.8124	-24.8271	-12.0178
 450	1	1	0.137587	36.6269	-25.2331	-12.609
 451	1	2	0.27179	34.8379	-25.6737	-11.4501
 452	1	6	-0.297458	34.8644	-27.0417	-11.6192
 453	1	1	0.184682	32.9617	-23.3223	-9.83035
 454	1	2	-0.177057	33.7545	-23.729	-10.4529
 455	1	2	-0.065252	34.7218	-22.8802	-11.0363
 456	1	1	0.164016	34.9357	-26.948	-14.2522
 457	1	1	0.144303	36.7712	-27.7947	-15.6661
 458	1	2	-0.207027	35.7635	-27.4867	-13.8002
 459	1	2	-0.150602	36.8182	-27.9648	-14.5953
 460	1	2	0.201726	35.8008	-27.6532	-12.409
 461	1	2	0.015223	37.9195	-28.627	-14.0047
 462	1	7	0.123165	39.1144	-29.159	-14.8241
 463	1	2	-0.193552	36.863	-28.3393	-11.8117
 464	1	2	-0.163782	37.9143	-28.8254	-12.6052
 465	1	1	0.167708	36.8825	-28.465	-10.7337
 466	1	1	0.146296	38.7368	-29.353	-12.1273
 467	1	2	-0.183938	33.8145	-25.1185	-10.6677
 468	1	1	0.154545	33.0741	-25.7764	-10.2228
 469	1	7	-0.193999	40.358	-28.3214	-14.415
 470	1	7	-0.196778	38.9386	-28.9915	-16.3568
 471	1	9	0.051577	40.1466	-27.2483	-14.5103
 472	1	9	0.039353	41.2245	-28.5383	-15.0521
 473	1	9	0.072794	40.6437	-28.5105	-13.3726
 474	1	9	0.05895	39.8053	-29.3991	-16.8927
 475	1	9	0.044008	38.8473	-27.9341	-16.637
 476	1	9	0.064391	38.0494	-29.5251	-16.7157
 477	1	1	0.130931	41.4546	-30.6939	-14.5016
 478	1	2	-0.035623	40.5434	-31.2743	-14.3946
 479	1	2	-0.458756	40.646	-32.6476	-14.1123
 480	1	1	0.207809	41.6221	-33.1104	-14.0027
 481	1	2	0.31527	39.4944	-33.4305	-13.9674
 482	1	2	-0.466224	38.2356	-32.8435	-14.14
 483	1	1	0.20556	37.3391	-33.449	-14.0366
 484	1	2	-0.031899	38.1264	-31.4745	-14.426
 485	1	1	0.127567	37.1367	-31.0391	-14.5482
 486	1	2	0.005289	39.2777	-30.6641	-14.5372
 487	1	1	0.144011	39.4324	-37.3159	-13.2051
 488	1	2	-0.407424	39.2428	-37.0637	-14.2449
 489	1	2	0.096878	38.9661	-38.0832	-15.1717
 490	1	1	0.131719	38.9422	-39.1182	-14.8401
 491	1	2	0.007579	38.7478	-37.7746	-16.5261
 492	1	3	0.947259	38.5395	-39.1483	-17.6864
 493	1	2	-0.433296	38.7717	-36.425	-16.9483
 494	1	1	0.195208	38.5935	-36.1869	-17.9969
 495	1	2	0.002203	39.034	-35.4035	-16.0154
 496	1	1	0.245959	39.0593	-34.3673	-16.3484
 497	1	2	0.108341	39.2839	-35.7228	-14.661
 498	1	4	-0.012027	39.6028	-34.7693	-13.7278
 499	1	5	-0.530873	37.8915	-40.2358	-16.9436
 500	1	5	-0.5745	38.0197	-38.6294	-18.9583
 501	1	1	0.177717	40.4501	-38.6559	-19.8549
 502	1	2	-0.13906	40.9654	-39.2278	-19.0843
 503	1	2	-0.172291	42.3255	-39.5537	-19.2366
 504	1	1	0.137587	42.8685	-39.2407	-20.1227
 505	1	2	0.27179	42.9911	-40.2759	-18.2336
 506	1	6	-0.297458	44.3271	-40.5516	-18.3563
 507	1	1	0.184682	40.3953	-40.7194	-16.0555
 508	1	2	-0.177057	40.9342	-40.3849	-16.9396
 509	1	2	-0.065252	40.2656	-39.6368	-17.9308
 510	1	1	0.164016	45.3998	-40.8778	-15.9686
 511	1	1	0.144303	47.0258	-39.3384	-14.8942
 512	1	2	-0.207027	45.7316	-39.9862	-16.4912
 513	1	2	-0.150602	46.6498	-39.108	-15.8881
 514	1	2	0.201726	45.2427	-39.7153	-17.7757
 515	1	2	0.015223	47.0891	-37.9439	-16.5583
 516	1	7	0.123165	48.1288	-37.0212	-15.8851
 517	1	2	-0.193552	45.6841	-38.5794	-18.4648
 518	1	2	-0.163782	46.6036	-37.702	-17.8649
 519	1	1	0.167708	45.3153	-38.3863	-19.4671
 520	1	1	0.146296	46.9378	-36.8418	-18.4351
 521	1	2	-0.183938	42.2963	-40.6968	-17.09
 522	1	1	0.154545	42.8191	-41.2602	-16.3239
 523	1	7	-0.193999	48.1704	-35.6007	-16.5144
 524	1	7	-0.196778	49.521	-37.6622	-16.1271
 525	1	9	0.051577	47.1726	-35.1448	-16.539
 526	1	9	0.039353	48.5622	-35.6211	-17.5391
 527	1	9	0.072794	48.8247	-34.9394	-15.9321
 528	1	9	0.05895	50.3302	-37.0263	-15.7463
 529	1	9	0.044008	49.6983	-37.8094	-17.2003
 530	1	9	0.064391	49.5934	-38.646	-15.6458
 531	1	1	0.130931	45.7685	-36.1828	-14.7807
 532	1	2	-0.035623	46.5174	-36.3704	-14.0136
 533	1	2	-0.458756	46.2027	-36.1255	-12.664
 534	1	1	0.207809	45.2194	-35.749	-12.3945
 535	1	2	0.31527	47.1535	-36.3575	-11.6594
 536	1	2	-0.466224	48.4188	-36.8328	-12.0162
 537	1	1	0.20556	49.1626	-36.9987	-11.2417
 538	1	2	-0.031899	48.7427	-37.0718	-13.362
 539	1	1	0.127567	49.7431	-37.4242	-13.5913
 540	1	2	0.005289	47.7972	-36.8365	-14.3863
 541	1	1	0.144011	45.9684	-35.2595	-8.02802
 542	1	2	-0.407424	46.2997	-34.4443	-8.6657
 543	1	2	0.096878	46.1433	-33.1138	-8.23499
 544	1	1	0.131719	45.6753	-32.9059	-7.27496
 545	1	2	0.007579	46.5222	-32.0488	-9.07103
 546	1	3	0.947259	45.9859	-30.385	-8.60733
 547	1	2	-0.433296	47.1102	-32.3191	-10.3283
 548	1	1	0.195208	47.3957	-31.4918	-10.9778
 549	1	2	0.002203	47.2743	-33.6502	-10.7523
 550	1	1	0.245959	47.7078	-33.8504	-11.7305
 551	1	2	0.108341	46.8368	-34.718	-9.93637
 552	1	4	-0.012027	46.9008	-36.0239	-10.3572
 553	1	5	-0.530873	46.0572	-30.238	-7.14867
 554	1	5	-0.5745	46.5924	-29.4317	-9.54481
 555	1	1	0.177717	44.7157	-30.7294	-11.1749
 556	1	2	-0.13906	43.935	-30.8123	-10.4207
 557	1	2	-0.172291	42.638	-31.2026	-10.7898
 558	1	1	0.137587	42.4023	-31.4165	-11.8275
 559	1	2	0.27179	41.6444	-31.363	-9.81492
 560	1	6	-0.297458	40.4225	-31.84	-10.2253
 561	1	1	0.184682	43.4951	-30.5929	-7.03274
 562	1	2	-0.177057	43.2482	-30.7392	-8.08416
 563	1	2	-0.065252	44.2502	-30.5953	-9.06563
 564	1	1	0.164016	39.6077	-29.5633	-9.07846
 565	1	1	0.144303	37.405	-29.204	-8.03674
 566	1	2	-0.207027	38.8922	-30.3796	-9.03901
 567	1	2	-0.150602	37.6302	-30.1819	-8.44963
 568	1	2	0.201726	39.2226	-31.625	-9.59577
 569	1	2	0.015223	36.6759	-31.2265	-8.415
 570	1	7	0.123165	35.2628	-31.0586	-7.81521
 571	1	2	-0.193552	38.2861	-32.6642	-9.57518
 572	1	2	-0.163782	37.0272	-32.4701	-8.9831
 573	1	1	0.167708	38.5401	-33.6184	-10.0272
 574	1	1	0.146296	36.3134	-33.2901	-8.97687
 575	1	2	-0.183938	41.9469	-31.1241	-8.45984
 576	1	1	0.154545	41.1883	-31.2782	-7.6982
 577	1	7	-0.193999	34.2467	-31.1166	-8.98976
 578	1	7	-0.196778	35.0457	-29.6796	-7.13173
 579	1	9	0.051577	34.2873	-32.078	-9.51641
 580	1	9	0.039353	34.4645	-30.3328	-9.72753
 581	1	9	0.072794	33.2189	-30.9615	-8.63807
 582	1	9	0.05895	34.0496	-29.6289	-6.67357
 583	1	9	0.044008	35.117	-28.8577	-7.85606
 584	1	9	0.064391	35.7811	-29.4982	-6.33848
 585	1	1	0.130931	36.7494	-31.5284	-5.5785
 586	1	2	-0.035623	35.9158	-32.2234	-5.6472
 587	1	2	-0.458756	35.7317	-33.1773	-4.63127
 588	1	1	0.207809	36.4196	-33.211	-3.79155
 589	1	2	0.31527	34.6748	-34.0939	-4.68884
 590	1	2	-0.466224	33.8176	-34.0632	-5.80306
 591	1	1	0.20556	33.0271	-34.8028	-5.89883
 592	1	2	-0.031899	33.9875	-33.0997	-6.81632
 593	1	1	0.127567	33.2981	-33.1066	-7.65531
 594	1	2	0.005289	35.0359	-32.1535	-6.74734
 595	1	1	0.144011	34.2965	-37.3516	-2.5375
 596	1	2	-0.407424	33.3657	-36.794	-2.60295
 597	1	2	0.096878	32.1715	-37.3768	-2.1379
 598	1	1	0.131719	32.1915	-38.386	-1.73183
 599	1	2	0.007579	30.9503	-36.6839	-2.24329
 600	1	3	0.947259	29.4182	-37.5694	-1.82646
 601	1	2	-0.433296	30.9407	-35.3798	-2.79621
 602	1	1	0.195208	29.9954	-34.8534	-2.91396
 603	1	2	0.002203	32.1398	-34.7987	-3.25681
 604	1	1	0.245959	32.1265	-33.8024	-3.69394
 605	1	2	0.108341	33.3526	-35.5177	-3.19289
 606	1	4	-0.012027	34.5369	-35.0082	-3.67145
 607	1	5	-0.530873	28.4256	-37.1437	-2.82039
 608	1	5	-0.5745	29.7542	-38.9852	-1.62779
 609	1	1	0.177717	27.9851	-35.1132	-1.09776
 610	1	2	-0.13906	28.0971	-35.707	-0.192854
 611	1	2	-0.172291	27.4587	-35.302	0.995946
 612	1	1	0.137587	26.8736	-34.3877	1.01993
 613	1	2	0.27179	27.5136	-36.1137	2.14011
 614	1	6	-0.297458	26.7912	-35.7618	3.25971
 615	1	1	0.184682	29.4346	-38.6613	0.897096
 616	1	2	-0.177057	28.911	-37.7065	0.928972
 617	1	2	-0.065252	28.8146	-36.9207	-0.23907
 618	1	1	0.164016	27.0676	-36.2547	5.82551
 619	1	1	0.144303	25.9702	-38.0695	7.07996
 620	1	2	-0.207027	26.3388	-36.8901	5.33113
 621	1	2	-0.150602	25.7078	-37.9328	6.03631
 622	1	2	0.201726	26.0746	-36.6973	3.97024
 623	1	2	0.015223	24.7944	-38.8051	5.39265
 624	1	7	0.123165	24.2067	-40.0651	6.09378
 625	1	2	-0.193552	25.1155	-37.4989	3.33452
 626	1	2	-0.163782	24.4726	-38.5318	4.04226
 627	1	1	0.167708	24.8929	-37.3361	2.28382
 628	1	1	0.146296	23.7494	-39.149	3.51732
 629	1	2	-0.183938	28.2642	-37.3029	2.11183
 630	1	1	0.154545	28.3085	-37.9319	2.99619
 631	1	7	-0.193999	24.9949	-40.4263	7.38225
 632	1	7	-0.196778	24.3981	-41.2696	5.12339
 633	1	9	0.051577	24.6622	-41.3872	7.79456
 634	1	9	0.039353	24.8445	-39.6723	8.16497
 635	1	9	0.072794	26.0706	-40.5086	7.17754
 636	1	9	0.05895	24.2811	-42.2344	5.63101
 637	1	9	0.044008	25.4058	-41.2585	4.68646
 638	1	9	0.064391	23.6744	-41.2433	4.29972
 639	1	1	0.130931	22.7855	-37.72	6.56984
 640	1	2	-0.035623	22.1727	-38.6075	6.70526
 641	1	2	-0.458756	20.8273	-38.4517	7.08749
 642	1	1	0.207809	20.4197	-37.4538	7.21719
 643	1	2	0.31527	19.9933	-39.5604	7.28578
 644	1	2	-0.466224	20.5323	-40.8447	7.10362
 645	1	1	0.20556	19.8982	-41.7194	7.22164