pySIMM System Object

2702 atoms
2901 bonds
4900 angles
7298 dihedrals
900 impropers

9 atom types
10 bond types
17 angle types
7 dihedral types
2 improper types

-208.042910 208.042910 xlo xhi
-208.042910 208.042910 ylo yhi
-208.042910 208.042910 zlo zhi

Masses

   1	1.008	# ha
   2	12.01	# ca
   3	32.06	# sy
   4	16.0	# oh
   5	16.0	# o
   6	16.0	# os
   7	12.01	# c3
   8	1.008	# ho
   9	1.008	# hc

Pair Coeffs

   1	0.015	2.59964245953351	# ha
   2	0.086	3.3996695084235347	# ca
   3	0.25	3.563594872561357	# sy
   4	0.2104	3.0664733878390478	# oh
   5	0.21	2.959921901149463	# o
   6	0.17	3.0000123434657784	# os
   7	0.1094	3.3996695084235347	# c3
   8	0.0	0.0	# ho
   9	0.0157	2.649532787749369	# hc

Bond Coeffs

   1	371.4	0.973	# ho,oh
   2	243.4	1.7909	# ca,sy
   3	461.1	1.3984	# ca,ca
   4	300.9	1.5375	# c3,c3
   5	330.6	1.0969	# c3,hc
   6	493.0	1.466	# o,sy
   7	345.8	1.086	# ca,ha
   8	321.0	1.5156	# c3,ca
   9	376.6	1.3696	# ca,os
  10	384.0	1.3637	# ca,oh

Angle Coeffs

   1	61.48	119.42	# ca,ca,sy
   2	72.54	121.41	# o,sy,o
   3	69.58	119.2	# ca,ca,os
   4	60.3	104.44	# ca,sy,ca
   5	46.34	109.8	# c3,c3,hc
   6	49.0	108.58	# ca,oh,ho
   7	65.77	108.35	# ca,sy,o
   8	63.48	119.89	# ca,os,ca
   9	69.52	119.9	# ca,ca,oh
  10	63.56	112.24	# ca,c3,ca
  11	62.86	111.51	# c3,c3,c3
  12	39.4	107.58	# hc,c3,hc
  13	66.62	120.02	# ca,ca,ca
  14	48.18	119.88	# ca,ca,ha
  15	63.15	112.07	# c3,c3,ca
  16	63.53	120.77	# c3,ca,ca
  17	63.5	119.89	# ca,oh,ca

Dihedral Coeffs

   1	1	0.9	2	180	# X,ca,oh,X
   2	1	1.3	2	180	# X,ca,sy,X
   3	1	0.16	3	0	# hc,c3,c3,c3
   4	1	3.625	2	180	# X,ca,ca,X
   5	1	0.0	2	0	# X,c3,ca,X
   6	1	0.15555555555555556	3	0	# X,c3,c3,X
   7	1	0.9	2	180	# X,ca,os,X

Improper Coeffs

   1	1.1	-1	2	# ca,X,X,ha
   2	1.1	-1	2	# ca,ca,ca,c3

Atoms

   1	1	1	0.144011	62.383	36.9615	-77.3743
   2	1	2	-0.407424	61.3014	37.0622	-77.3867
   3	1	2	0.096878	60.7152	38.3412	-77.4084
   4	1	1	0.131719	61.3505	39.2239	-77.4138
   5	1	2	0.007579	59.3146	38.4822	-77.4197
   6	1	3	0.947259	58.6128	40.1531	-77.3843
   7	1	2	-0.433296	58.4961	37.3271	-77.4242
   8	1	1	0.195208	57.4125	37.4367	-77.447
   9	1	2	0.002203	59.087	36.048	-77.4117
  10	1	1	0.245959	58.4687	35.1542	-77.4182
  11	1	2	0.108341	60.4872	35.9169	-77.3882
  12	1	4	-0.012027	61.0599	34.6782	-77.3736
  13	1	5	-0.530873	59.6628	41.0845	-77.8146
  14	1	5	-0.5745	57.2852	40.1099	-78.0108
  15	1	1	0.177717	60.4027	41.047	-75.2436
  16	1	2	-0.13906	59.4346	40.8316	-74.7951
  17	1	2	-0.172291	59.2542	40.9795	-73.4077
  18	1	1	0.137587	60.0776	41.3018	-72.7776
  19	1	2	0.27179	58.0038	40.7188	-72.8274
  20	1	6	-0.297458	57.855	40.855	-71.4681
  21	1	1	0.184682	56.2762	39.8243	-75.6461
  22	1	2	-0.177057	57.108	40.1461	-75.0205
  23	1	2	-0.065252	58.3637	40.4052	-75.6072
  24	1	1	0.164016	56.7292	43.1369	-72.2165
  25	1	1	0.144303	54.7157	44.143	-71.2172
  26	1	2	-0.207027	56.2345	42.64	-71.3871
  27	1	2	-0.150602	55.0883	43.2104	-70.8066
  28	1	2	0.201726	56.7442	41.4275	-70.9002
  29	1	2	0.015223	54.4353	42.5785	-69.7231
  30	1	7	0.123165	53.1515	43.1504	-69.0822
  31	1	2	-0.193552	56.114	40.7916	-69.8237
  32	1	2	-0.163782	54.963	41.3569	-69.2467
  33	1	1	0.167708	56.5134	39.8535	-69.45
  34	1	1	0.146296	54.4768	40.8389	-68.4236
  35	1	2	-0.183938	56.9297	40.3036	-73.6343
  36	1	1	0.154545	55.9639	40.097	-73.1825
  37	1	7	-0.193999	51.9527	42.3677	-69.6815
  38	1	7	-0.196778	52.9157	44.6494	-69.4202
  39	1	9	0.051577	50.9956	42.7452	-69.2992
  40	1	9	0.039353	52.0208	41.2964	-69.4537
  41	1	9	0.072794	51.9348	42.4675	-70.7745
  42	1	9	0.05895	52.6902	44.7948	-70.4842
  43	1	9	0.044008	53.7916	45.2618	-69.1722
  44	1	9	0.064391	52.0641	45.0432	-68.8503
  45	1	1	0.130931	51.4881	41.788	-67.2279
  46	1	2	-0.035623	52.3249	42.3022	-66.7659
  47	1	2	-0.458756	52.469	42.2198	-65.3694
  48	1	1	0.207809	51.7512	41.6535	-64.7841
  49	1	2	0.31527	53.5204	42.8771	-64.7177
  50	1	2	-0.466224	54.4509	43.5954	-65.4841
  51	1	1	0.20556	55.2783	44.1016	-64.9951
  52	1	2	-0.031899	54.3197	43.6708	-66.8809
  53	1	1	0.127567	55.0568	44.2277	-67.4549
  54	1	2	0.005289	53.2507	43.0333	-67.545
  55	1	1	0.144011	52.7304	45.2776	-63.4517
  56	1	2	-0.407424	53.4919	45.0915	-62.6983
  57	1	2	0.096878	53.9218	46.1426	-61.868
  58	1	1	0.131719	53.4909	47.1347	-61.9858
  59	1	2	0.007579	54.9061	45.9161	-60.8889
  60	1	3	0.947259	55.4039	47.3022	-59.8343
  61	1	2	-0.433296	55.463	44.6226	-60.7418
  62	1	1	0.195208	56.2361	44.4514	-59.994
  63	1	2	0.002203	55.0302	43.5741	-61.5759
  64	1	1	0.245959	55.4579	42.5792	-61.4758
  65	1	2	0.108341	54.0511	43.8071	-62.5583
  66	1	4	-0.012027	53.6411	42.7721	-63.3564
  67	1	5	-0.530873	56.757	47.0163	-59.3411
  68	1	5	-0.5745	55.0583	48.5518	-60.5235
  69	1	1	0.177717	52.9031	48.6576	-59.0988
  70	1	2	-0.13906	53.1198	47.9185	-58.3289
  71	1	2	-0.172291	52.2517	47.771	-57.2311
  72	1	1	0.137587	51.3611	48.3868	-57.1497
  73	1	2	0.27179	52.538	46.8373	-56.2233
  74	1	6	-0.297458	51.6756	46.7227	-55.1562
  75	1	1	0.184682	55.4575	45.5663	-57.4869
  76	1	2	-0.177057	54.559	46.1777	-57.4192
  77	1	2	-0.065252	54.2804	47.1239	-58.4253
  78	1	1	0.164016	53.7137	47.7328	-53.7869
  79	1	1	0.144303	54.501	46.9436	-51.5909
  80	1	2	-0.207027	53.1912	46.922	-53.2871
  81	1	2	-0.150602	53.6325	46.4663	-52.0324
  82	1	2	0.201726	52.0837	46.3235	-53.9069
  83	1	2	0.015223	52.9656	45.4075	-51.3726
  84	1	7	0.123165	53.4286	44.8464	-50.0086
  85	1	2	-0.193552	51.4003	45.2886	-53.2583
  86	1	2	-0.163782	51.841	44.8307	-52.0041
  87	1	1	0.167708	50.54	44.8335	-53.7397
  88	1	1	0.146296	51.307	44.0168	-51.5193
  89	1	2	-0.183938	53.6872	46.0307	-56.3265
  90	1	1	0.154545	53.9053	45.2952	-55.5578
  91	1	7	-0.193999	54.5192	45.7149	-49.3255
  92	1	7	-0.196778	54.0658	43.4571	-50.2844
  93	1	9	0.051577	54.7681	45.3135	-48.3347
  94	1	9	0.039353	54.1764	46.7481	-49.1861
  95	1	9	0.072794	55.4457	45.7338	-49.9133
  96	1	9	0.05895	54.8537	43.5392	-51.0445
  97	1	9	0.044008	53.321	42.7427	-50.6574
  98	1	9	0.064391	54.526	43.036	-49.3818
  99	1	1	0.130931	51.5783	46.7965	-49.5272
 100	1	2	-0.035623	51.3781	45.9079	-48.9327
 101	1	2	-0.458756	50.2688	45.8942	-48.0703
 102	1	1	0.207809	49.6227	46.7642	-48.008
 103	1	2	0.31527	49.9897	44.7714	-47.2812
 104	1	2	-0.466224	50.8269	43.6483	-47.3816
 105	1	1	0.20556	50.6168	42.7662	-46.7833
 106	1	2	-0.031899	51.9372	43.6543	-48.2455
 107	1	1	0.127567	52.565	42.7696	-48.2855
 108	1	2	0.005289	52.2249	44.7849	-49.0433
 109	1	1	0.144011	50.7965	44.5707	-44.6134
 110	1	2	-0.407424	49.8386	44.1279	-44.3513
 111	1	2	0.096878	49.6775	43.515	-43.0941
 112	1	1	0.131719	50.5159	43.4809	-42.4016
 113	1	2	0.007579	48.4416	42.946	-42.7325
 114	1	3	0.947259	48.2847	42.1644	-41.1036
 115	1	2	-0.433296	47.3599	42.9919	-43.6442
 116	1	1	0.195208	46.4082	42.5377	-43.3739
 117	1	2	0.002203	47.5264	43.6058	-44.9
 118	1	1	0.245959	46.6994	43.6455	-45.6051
 119	1	2	0.108341	48.7645	44.1664	-45.262
 120	1	4	-0.012027	48.8749	44.7843	-46.4817
 121	1	5	-0.530873	47.4013	41.0034	-41.2677
 122	1	5	-0.5745	49.6281	42.0555	-40.521
 123	1	1	0.177717	45.4201	42.6923	-40.8487
 124	1	2	-0.13906	45.9413	43.4111	-40.2193
 125	1	2	-0.172291	45.2089	44.3442	-39.4639
 126	1	1	0.137587	44.1244	44.3599	-39.5132
 127	1	2	0.27179	45.8722	45.2503	-38.6234
 128	1	6	-0.297458	45.1204	46.1433	-37.8944
 129	1	1	0.184682	49.1024	44.2912	-39.2482
 130	1	2	-0.177057	48.0153	44.3118	-39.3163
 131	1	2	-0.065252	47.3489	43.3879	-40.1476
 132	1	1	0.164016	46.1919	44.7069	-35.904
 133	1	1	0.144303	46.8248	45.5962	-33.6816
 134	1	2	-0.207027	46.0194	45.7544	-35.6739
 135	1	2	-0.150602	46.3674	46.2622	-34.4095
 136	1	2	0.201726	45.4568	46.6012	-36.6424
 137	1	2	0.015223	46.1397	47.6174	-34.0815
 138	1	7	0.123165	46.5927	48.1549	-32.7054
 139	1	2	-0.193552	45.2145	47.9437	-36.3289
 140	1	2	-0.163782	45.5587	48.4525	-35.0642
 141	1	1	0.167708	44.7727	48.5918	-37.0798
 142	1	1	0.146296	45.381	49.5048	-34.8699
 143	1	2	-0.183938	47.2784	45.2438	-38.5618
 144	1	1	0.154545	47.7952	45.9565	-37.9257
 145	1	7	-0.193999	45.911	49.498	-32.3248
 146	1	7	-0.196778	48.1151	48.4367	-32.8175
 147	1	9	0.051577	46.2289	50.3173	-32.9815
 148	1	9	0.039353	46.1736	49.7865	-31.2986
 149	1	9	0.072794	44.8178	49.4187	-32.3773
 150	1	9	0.05895	48.3223	49.1099	-33.6595
 151	1	9	0.044008	48.6783	47.5108	-32.9909
 152	1	9	0.064391	48.5049	48.9176	-31.9113
 153	1	1	0.130931	44.1711	46.9807	-32.2112
 154	1	2	-0.035623	44.9161	46.6675	-31.4828
 155	1	2	-0.458756	44.54	45.8013	-30.4395
 156	1	1	0.207809	43.5139	45.4525	-30.3672
 157	1	2	0.31527	45.4746	45.3983	-29.4773
 158	1	2	-0.466224	46.7968	45.8546	-29.5827
 159	1	1	0.20556	47.5338	45.5381	-28.8485
 160	1	2	-0.031899	47.1795	46.718	-30.6231
 161	1	1	0.127567	48.2108	47.0556	-30.6558
 162	1	2	0.005289	46.2397	47.1477	-31.5871
 163	1	1	0.144011	45.6354	42.8476	-26.5475
 164	1	2	-0.407424	45.6909	43.882	-26.2187
 165	1	2	0.096878	46.0767	44.1771	-24.8964
 166	1	1	0.131719	46.3213	43.367	-24.2127
 167	1	2	0.007579	46.1714	45.5127	-24.4621
 168	1	3	0.947259	46.7421	45.8403	-22.7705
 169	1	2	-0.433296	45.87	46.5603	-25.3647
 170	1	1	0.195208	45.9687	47.5953	-25.0394
 171	1	2	0.002203	45.495	46.2626	-26.6883
 172	1	1	0.245959	45.2857	47.0699	-27.388
 173	1	2	0.108341	45.4149	44.9227	-27.1234
 174	1	4	-0.012027	45.0833	44.617	-28.4208
 175	1	5	-0.530873	47.5286	44.6814	-22.3301
 176	1	5	-0.5745	47.2785	47.2073	-22.7511
 177	1	1	0.177717	44.7286	47.9066	-22.3221
 178	1	2	-0.13906	44.4302	47.0339	-21.7435
 179	1	2	-0.172291	43.2772	47.0824	-20.9384
 180	1	1	0.137587	42.6718	47.9828	-20.9002
 181	1	2	0.27179	42.9156	45.9752	-20.1563
 182	1	6	-0.297458	41.7957	46.049	-19.3619
 183	1	1	0.184682	45.4587	43.8507	-21.0184
 184	1	2	-0.177057	44.8431	44.7493	-21.0083
 185	1	2	-0.065252	45.2205	45.8673	-21.7827
 186	1	1	0.164016	43.9113	46.3383	-17.7173
 187	1	1	0.144303	43.8618	46.1092	-15.2831
 188	1	2	-0.207027	42.9723	46.0962	-17.2284
 189	1	2	-0.150602	42.9341	45.9684	-15.8275
 190	1	2	0.201726	41.8053	45.9179	-17.9899
 191	1	2	0.015223	41.7274	45.6616	-15.1523
 192	1	7	0.123165	41.651	45.4571	-13.6147
 193	1	2	-0.193552	40.599	45.6381	-17.3344
 194	1	2	-0.163782	40.5597	45.5077	-15.9335
 195	1	1	0.167708	39.6936	45.5174	-17.9217
 196	1	1	0.146296	39.6116	45.2856	-15.4506
 197	1	2	-0.183938	43.6923	44.8049	-20.1986
 198	1	1	0.154545	43.4034	43.9494	-19.5951
 199	1	7	-0.193999	43.0426	45.5639	-12.9329
 200	1	7	-0.196778	41.1427	44.0066	-13.3746
 201	1	9	0.051577	42.974	45.3716	-11.8549
 202	1	9	0.039353	43.465	46.5695	-13.0562
 203	1	9	0.072794	43.7481	44.8336	-13.3493
 204	1	9	0.05895	41.7082	43.2934	-13.9885
 205	1	9	0.044008	40.0819	43.906	-13.6352
 206	1	9	0.064391	41.2585	43.6942	-12.3302
 207	1	1	0.130931	40.6754	47.9181	-14.5591
 208	1	2	-0.035623	40.3379	47.6887	-13.5515
 209	1	2	-0.458756	39.5235	48.6225	-12.8834
 210	1	1	0.207809	39.2369	49.5432	-13.3838
 211	1	2	0.31527	39.0901	48.3924	-11.5713
 212	1	2	-0.466224	39.4979	47.2172	-10.922
 213	1	1	0.20556	39.2185	47.0478	-9.88561
 214	1	2	-0.031899	40.3004	46.2747	-11.5891
 215	1	1	0.127567	40.6164	45.3868	-11.0495
 216	1	2	0.005289	40.7232	46.484	-12.9217
 217	1	1	0.144011	37.2411	51.0205	-9.25718
 218	1	2	-0.407424	36.7182	50.07	-9.32281
 219	1	2	0.096878	35.5441	49.8671	-8.57294
 220	1	1	0.131719	35.163	50.6648	-7.93959
 221	1	2	0.007579	34.8466	48.649	-8.65786
 222	1	3	0.947259	33.2959	48.4764	-7.73237
 223	1	2	-0.433296	35.3286	47.6309	-9.51443
 224	1	1	0.195208	34.7688	46.7007	-9.60855
 225	1	2	0.002203	36.4891	47.8463	-10.2829
 226	1	1	0.245959	36.8269	47.076	-10.9734
 227	1	2	0.108341	37.1983	49.0632	-10.1806
 228	1	4	-0.012027	38.313	49.3312	-10.9406
 229	1	5	-0.530873	32.6261	49.7812	-7.79571
 230	1	5	-0.5745	32.6401	47.2358	-8.16571
 231	1	1	0.177717	33.8425	46.0943	-6.1224
 232	1	2	-0.13906	33.9815	46.9618	-5.47864
 233	1	2	-0.172291	34.2875	46.7861	-4.11606
 234	1	1	0.137587	34.398	45.7879	-3.703
 235	1	2	0.27179	34.4125	47.8989	-3.27039
 236	1	6	-0.297458	34.6588	47.6992	-1.93082
 237	1	1	0.184682	33.8082	50.3794	-5.55091
 238	1	2	-0.177057	33.965	49.3755	-5.15922
 239	1	2	-0.065252	33.8083	48.2578	-6.00584
 240	1	1	0.164016	35.7261	48.238	0.390137
 241	1	1	0.144303	34.6623	49.5077	2.2418
 242	1	2	-0.207027	34.7128	48.6124	0.280632
 243	1	2	-0.150602	34.1027	49.3288	1.32695
 244	1	2	0.201726	34.026	48.3891	-0.919675
 245	1	2	0.015223	32.787	49.8263	1.19805
 246	1	7	0.123165	32.1776	50.6698	2.34218
 247	1	2	-0.193552	32.7086	48.8586	-1.05593
 248	1	2	-0.163782	32.0987	49.5784	-0.0126376
 249	1	1	0.167708	32.1582	48.6717	-1.97357
 250	1	1	0.146296	31.09	49.9468	-0.167446
 251	1	2	-0.183938	34.2744	49.195	-3.79873
 252	1	1	0.154545	34.3814	50.0558	-3.14487
 253	1	7	-0.193999	30.6395	50.849	2.21356
 254	1	7	-0.196778	32.8025	52.087	2.23529
 255	1	9	0.051577	30.1291	49.8805	2.13932
 256	1	9	0.039353	30.3718	51.4471	1.33333
 257	1	9	0.072794	30.2376	51.3683	3.09322
 258	1	9	0.05895	33.8865	52.0576	2.40387
 259	1	9	0.044008	32.3565	52.7818	2.95837
 260	1	9	0.064391	32.6374	52.5061	1.23412
 261	1	1	0.130931	33.3038	51.7126	4.72767
 262	1	2	-0.035623	32.9929	50.6757	4.81181
 263	1	2	-0.458756	33.1525	50.0314	6.05203
 264	1	1	0.207809	33.5983	50.5719	6.88346
 265	1	2	0.31527	32.7515	48.6967	6.22515
 266	1	2	-0.466224	32.216	48.0065	5.13063
 267	1	1	0.20556	31.9141	46.9699	5.24946
 268	1	2	-0.031899	32.0575	48.6437	3.8866
 269	1	1	0.127567	31.6284	48.0899	3.0543
 270	1	2	0.005289	32.434	49.9918	3.70785
 271	1	1	0.144011	34.045	47.4692	9.70498
 272	1	2	-0.407424	33.2843	48.2411	9.78747
 273	1	2	0.096878	33.0401	48.8511	11.0329
 274	1	1	0.131719	33.6224	48.5501	11.901
 275	1	2	0.007579	32.0734	49.8675	11.1528
 276	1	3	0.947259	31.8797	50.7008	12.7552
 277	1	2	-0.433296	31.3346	50.2598	10.011
 278	1	1	0.195208	30.602	51.0616	10.096
 279	1	2	0.002203	31.5843	49.6503	8.76562
 280	1	1	0.245959	31.0259	49.9649	7.88575
 281	1	2	0.108341	32.5755	48.6529	8.64489
 282	1	4	-0.012027	32.863	48.0625	7.4375
 283	1	5	-0.530873	33.1058	50.445	13.5212
 284	1	5	-0.5745	31.3879	52.0604	12.4971
 285	1	1	0.177717	29.0123	51.2339	13.027
 286	1	2	-0.13906	29.2287	50.321	13.58
 287	1	2	-0.172291	28.2074	49.6814	14.307
 288	1	1	0.137587	27.1994	50.0854	14.3059
 289	1	2	0.27179	28.4926	48.527	15.0559
 290	1	6	-0.297458	27.5145	47.9032	15.7936
 291	1	1	0.184682	31.8349	48.2502	14.3763
 292	1	2	-0.177057	30.8183	48.6381	14.3355
 293	1	2	-0.065252	30.5423	49.8073	13.5958
 294	1	1	0.164016	28.1151	50.1104	17.2041
 295	1	1	0.144303	26.6499	51.1936	18.8503
 296	1	2	-0.207027	27.1278	49.6978	17.3909
 297	1	2	-0.150602	26.2844	50.3106	18.3363
 298	1	2	0.201726	26.7059	48.5468	16.7037
 299	1	2	0.015223	25.0037	49.7792	18.6199
 300	1	7	0.123165	24.045	50.3987	19.6662
 301	1	2	-0.193552	25.4464	48.003	16.9852
 302	1	2	-0.163782	24.6037	48.6124	17.932
 303	1	1	0.167708	25.1302	47.1017	16.4688
 304	1	1	0.146296	23.6356	48.1655	18.1441
 305	1	2	-0.183938	29.7918	47.9972	15.0544
 306	1	1	0.154545	30.0017	47.1053	15.6375
 307	1	7	-0.193999	22.7679	50.8639	18.912
 308	1	7	-0.196778	24.6278	51.6565	20.3637
 309	1	9	0.051577	22.1029	51.4483	19.5602
 310	1	9	0.039353	22.198	50.0124	18.5202
 311	1	9	0.072794	23.0375	51.5031	18.0611
 312	1	9	0.05895	24.8495	52.4505	19.6395
 313	1	9	0.044008	25.5488	51.4184	20.9112
 314	1	9	0.064391	23.9125	52.0619	21.0903
 315	1	1	0.130931	25.8217	48.7216	20.8988
 316	1	2	-0.035623	24.8144	48.5892	21.2866
 317	1	2	-0.458756	24.5947	47.6482	22.305
 318	1	1	0.207809	25.4263	47.0674	22.6934
 319	1	2	0.31527	23.3156	47.4523	22.838
 320	1	2	-0.466224	22.2569	48.247	22.3656
 321	1	1	0.20556	21.2666	48.1297	22.7953
 322	1	2	-0.031899	22.4681	49.1848	21.3368
 323	1	1	0.127567	21.6253	49.7766	20.9937
 324	1	2	0.005289	23.752	49.3612	20.7716
 325	1	1	0.144011	21.3547	45.7005	22.0475
 326	1	2	-0.407424	21.2321	45.3178	23.057
 327	1	2	0.096878	20.2008	44.3967	23.3226
 328	1	1	0.131719	19.532	44.0917	22.5203
 329	1	2	0.007579	20.0455	43.8515	24.6107
 330	1	3	0.947259	18.7099	42.6576	24.8914
 331	1	2	-0.433296	20.9415	44.2305	25.6386
 332	1	1	0.195208	20.8474	43.7987	26.633
 333	1	2	0.002203	21.9694	45.1536	25.3693
 334	1	1	0.245959	22.6727	45.4338	26.1523
 335	1	2	0.108341	22.1143	45.7098	24.0853
 336	1	4	-0.012027	23.1684	46.5622	23.8708
 337	1	5	-0.530873	19.3439	41.385	25.2551
 338	1	5	-0.5745	17.7711	42.7601	23.7669
 339	1	1	0.177717	16.4799	44.4977	25.2897
 340	1	2	-0.13906	16.8284	44.1883	26.274
 341	1	2	-0.172291	16.1969	44.6789	27.4296
 342	1	1	0.137587	15.375	45.3841	27.3351
 343	1	2	0.27179	16.6298	44.2619	28.7027
 344	1	6	-0.297458	16.0233	44.7131	29.8514
 345	1	1	0.184682	19.1515	42.1531	27.7492
 346	1	2	-0.177057	18.3349	42.8691	27.6615
 347	1	2	-0.065252	17.9013	43.2828	26.3851
 348	1	1	0.164016	13.9703	43.2227	29.0674
 349	1	1	0.144303	11.6066	43.9353	29.0381
 350	1	2	-0.207027	13.6997	44.2105	29.4295
 351	1	2	-0.150602	12.3555	44.6257	29.4131
 352	1	2	0.201726	14.702	45.0812	29.8844
 353	1	2	0.015223	11.9953	45.9182	29.8607
 354	1	7	0.123165	10.5445	46.4473	29.8261
 355	1	2	-0.193552	14.3571	46.3517	30.3521
 356	1	2	-0.163782	13.016	46.7645	30.347
 357	1	1	0.167708	15.1313	47.0343	30.6808
 358	1	1	0.146296	12.7755	47.7653	30.7
 359	1	2	-0.183938	17.7017	43.3639	28.8154
 360	1	1	0.154545	18.0246	43.0388	29.7993
 361	1	7	-0.193999	10.028	46.4645	31.289
 362	1	7	-0.196778	9.5795	45.5456	29.0102
 363	1	9	0.051577	10.1273	45.4738	31.7418
 364	1	9	0.039353	8.96944	46.7476	31.3428
 365	1	9	0.072794	10.6069	47.1621	31.9084
 366	1	9	0.05895	9.46133	44.5578	29.473
 367	1	9	0.044008	9.93919	45.4044	27.983
 368	1	9	0.064391	8.58333	46.0025	28.9511
 369	1	1	0.130931	11.7037	47.1747	27.4603
 370	1	2	-0.035623	11.2203	48.0224	27.9417
 371	1	2	-0.458756	11.3341	49.2956	27.3598
 372	1	1	0.207809	11.9082	49.4183	26.4464
 373	1	2	0.31527	10.7701	50.4126	27.9861
 374	1	2	-0.466224	10.0678	50.2452	29.1864
 375	1	1	0.20556	9.6485	51.1136	29.6863
 376	1	2	-0.031899	9.94679	48.9734	29.772
 377	1	1	0.127567	9.41697	48.889	30.7158
 378	1	2	0.005289	10.5463	47.8444	29.1695
 379	1	1	0.144011	11.6348	54.1352	26.8463
 380	1	2	-0.407424	12.33	53.6936	27.5553
 381	1	2	0.096878	13.4264	54.4444	28.0216
 382	1	1	0.131719	13.5675	55.4637	27.6701
 383	1	2	0.007579	14.3353	53.8834	28.9384
 384	1	3	0.947259	15.6941	54.8962	29.5733
 385	1	2	-0.433296	14.1398	52.5604	29.3886
 386	1	1	0.195208	14.8472	52.1135	30.0802
 387	1	2	0.002203	13.0444	51.8117	28.9249
 388	1	1	0.245959	12.9137	50.7888	29.2798
 389	1	2	0.108341	12.1318	52.3747	28.0038
 390	1	4	-0.012027	11.0529	51.668	27.5277
 391	1	5	-0.530873	15.8018	56.0907	28.7275
 392	1	5	-0.5745	16.8513	54.0271	29.8354
 393	1	1	0.177717	15.9425	53.759	32.2621
 394	1	2	-0.13906	15.282	54.6212	32.3266
 395	1	2	-0.172291	14.6904	54.9607	33.5561
 396	1	1	0.137587	14.889	54.3644	34.4412
 397	1	2	0.27179	13.8376	56.0713	33.6447
 398	1	6	-0.297458	13.2567	56.3719	34.8534
 399	1	1	0.184682	13.9382	57.0956	30.3791
 400	1	2	-0.177057	14.1539	56.5022	31.2662
 401	1	2	-0.065252	15.0135	55.389	31.1752
 402	1	1	0.164016	15.0003	58.3791	34.7237
 403	1	1	0.144303	14.6335	60.6506	35.5729
 404	1	2	-0.207027	14.0417	58.6352	35.1655
 405	1	2	-0.150602	13.8229	59.9344	35.6541
 406	1	2	0.201726	13.0416	57.6588	35.2806
 407	1	2	0.015223	12.6004	60.2813	36.2758
 408	1	7	0.123165	12.3681	61.6635	36.9317
 409	1	2	-0.193552	11.8226	57.9838	35.8854
 410	1	2	-0.163782	11.6053	59.2822	36.3803
 411	1	1	0.167708	11.0587	57.2187	35.99
 412	1	1	0.146296	10.6695	59.4958	36.8871
 413	1	2	-0.183938	13.5668	56.8401	32.4981
 414	1	1	0.154545	12.8927	57.6894	32.5639
 415	1	7	-0.193999	10.9941	62.2334	36.47
 416	1	7	-0.196778	13.4065	62.7351	36.4877
 417	1	9	0.051577	10.8231	63.2356	36.8837
 418	1	9	0.039353	10.1495	61.6053	36.773
 419	1	9	0.072794	10.962	62.3171	35.3759
 420	1	9	0.05895	14.4283	62.4829	36.7929
 421	1	9	0.044008	13.175	63.709	36.9382
 422	1	9	0.064391	13.4012	62.8617	35.3974
 423	1	1	0.130931	14.5461	60.8143	38.3472
 424	1	2	-0.035623	13.7004	61.0159	39.0005
 425	1	2	-0.458756	13.8409	60.7823	40.3771
 426	1	1	0.207809	14.7873	60.4148	40.7657
 427	1	2	0.31527	12.7653	60.975	41.2501
 428	1	2	-0.466224	11.5384	61.416	40.7245
 429	1	1	0.20556	10.6867	61.552	41.3824
 430	1	2	-0.031899	11.3976	61.6732	39.3476
 431	1	1	0.127567	10.4334	62.0124	38.983
 432	1	2	0.005289	12.4787	61.4701	38.4598
 433	1	1	0.144011	12.0294	63.188	42.7505
 434	1	2	-0.407424	11.901	62.5768	43.6407
 435	1	2	0.096878	11.3192	63.1455	44.7889
 436	1	1	0.131719	10.9949	64.1841	44.7676
 437	1	2	0.007579	11.1765	62.3838	45.9639
 438	1	3	0.947259	10.5173	63.1758	47.4544
 439	1	2	-0.433296	11.6216	61.0421	45.9817
 440	1	1	0.195208	11.5261	60.4526	46.892
 441	1	2	0.002203	12.1956	60.4762	44.8293
 442	1	1	0.245959	12.5477	59.4475	44.8444
 443	1	2	0.108341	12.3283	61.2336	43.6518
 444	1	4	-0.012027	12.9345	60.6447	42.5711
 445	1	5	-0.530873	10.2715	64.5875	47.1402
 446	1	5	-0.5745	9.46794	62.3283	48.035
 447	1	1	0.177717	10.7558	62.4269	50.2751
 448	1	2	-0.13906	11.7519	62.6862	49.9191
 449	1	2	-0.172291	12.8566	62.6017	50.7851
 450	1	1	0.137587	12.7266	62.2826	51.8155
 451	1	2	0.27179	14.1386	62.9294	50.3163
 452	1	6	-0.297458	15.2144	62.8847	51.1629
 453	1	1	0.184682	13.3633	63.7854	47.1016
 454	1	2	-0.177057	13.2183	63.4535	48.1284
 455	1	2	-0.065252	11.9293	63.1073	48.5854
 456	1	1	0.164016	14.0375	65.3025	51.2924
 457	1	1	0.144303	14.569	67.0559	52.935
 458	1	2	-0.207027	14.812	65.1194	52.029
 459	1	2	-0.150602	15.1234	66.1203	52.9617
 460	1	2	0.201726	15.5004	63.8945	52.0497
 461	1	2	0.015223	16.1523	65.9347	53.9108
 462	1	7	0.123165	16.4683	67.0686	54.9116
 463	1	2	-0.193552	16.5092	63.6875	52.9981
 464	1	2	-0.163782	16.8331	64.6954	53.9233
 465	1	1	0.167708	17.036	62.7375	53.0197
 466	1	1	0.146296	17.6136	64.4919	54.6496
 467	1	2	-0.183938	14.3211	63.3571	48.9938
 468	1	1	0.154545	15.3176	63.619	48.6499
 469	1	7	-0.193999	17.8523	66.9068	55.5935
 470	1	7	-0.196778	15.3834	66.9845	56.0196
 471	1	9	0.051577	17.8873	66.0202	56.239
 472	1	9	0.039353	18.0765	67.7761	56.2252
 473	1	9	0.072794	18.6523	66.8252	54.8465
 474	1	9	0.05895	15.6119	67.6454	56.8648
 475	1	9	0.044008	15.318	65.9636	56.4187
 476	1	9	0.064391	14.3945	67.2528	55.6269
 477	1	1	0.130931	15.5699	69.5846	55.7967
 478	1	2	-0.035623	15.9699	69.6066	54.788
 479	1	2	-0.458756	15.9746	70.83	54.0961
 480	1	1	0.207809	15.5825	71.7163	54.585
 481	1	2	0.31527	16.4914	70.9191	52.7916
 482	1	2	-0.466224	17.0248	69.7666	52.2014
 483	1	1	0.20556	17.4416	69.8261	51.2002
 484	1	2	-0.031899	17.0413	68.5447	52.896
 485	1	1	0.127567	17.4778	67.6709	52.4168
 486	1	2	0.005289	16.4805	68.4351	54.1878
 487	1	1	0.144011	18.293	73.5115	53.3513
 488	1	2	-0.407424	17.3029	73.9593	53.3212
 489	1	2	0.096878	17.0681	75.1865	53.9658
 490	1	1	0.131719	17.8791	75.6864	54.4911
 491	1	2	0.007579	15.7827	75.7564	53.9583
 492	1	3	0.947259	15.5313	77.2772	54.906
 493	1	2	-0.433296	14.7294	75.1031	53.2749
 494	1	1	0.195208	13.7343	75.5472	53.2681
 495	1	2	0.002203	14.9717	73.8836	52.6144
 496	1	1	0.245959	14.1644	73.3665	52.0986
 497	1	2	0.108341	16.2539	73.306	52.6513
 498	1	4	-0.012027	16.4742	72.0879	52.0724
 499	1	5	-0.530873	16.7208	78.1191	54.7319
 500	1	5	-0.5745	14.1718	77.764	54.6422
 501	1	1	0.177717	13.5717	75.8186	56.5039
 502	1	2	-0.13906	14.4666	75.936	57.114
 503	1	2	-0.172291	14.5184	75.3833	58.407
 504	1	1	0.137587	13.6669	74.8362	58.8005
 505	1	2	0.27179	15.6785	75.5285	59.1892
 506	1	6	-0.297458	15.7655	74.9785	60.4455
 507	1	1	0.184682	17.5997	77.316	56.9952
 508	1	2	-0.177057	16.7389	76.7741	57.3859
 509	1	2	-0.065252	15.5776	76.633	56.5976
 510	1	1	0.164016	15.3087	73.203	62.2971
 511	1	1	0.144303	13.5805	73.3271	64.0576
 512	1	2	-0.207027	14.6453	74.0615	62.345
 513	1	2	-0.150602	13.6573	74.1405	63.3432
 514	1	2	0.201726	14.7851	75.088	61.4024
 515	1	2	0.015223	12.7916	75.2562	63.4148
 516	1	7	0.123165	11.6775	75.3817	64.4789
 517	1	2	-0.193552	13.9576	76.2194	61.4826
 518	1	2	-0.163782	12.9738	76.302	62.4823
 519	1	1	0.167708	14.0831	77.0366	60.7783
 520	1	1	0.146296	12.3435	77.1865	62.5291
 521	1	2	-0.183938	16.7867	76.2177	58.6762
 522	1	1	0.154545	17.6789	76.3197	59.2873
 523	1	7	-0.193999	12.2076	76.3307	65.5864
 524	1	7	-0.196778	11.3315	74.0304	65.1613
 525	1	9	0.051577	12.3852	77.3401	65.1941
 526	1	9	0.039353	13.1603	75.9609	65.9874
 527	1	9	0.072794	11.5059	76.4021	66.4269
 528	1	9	0.05895	10.4681	74.1462	65.8293
 529	1	9	0.044008	12.1652	73.6575	65.7698
 530	1	9	0.064391	11.0753	73.2631	64.4199
 531	1	1	0.130931	10.4883	74.4058	62.2274
 532	1	2	-0.035623	9.93532	75.2531	62.627
 533	1	2	-0.458756	8.78937	75.7057	61.9526
 534	1	1	0.207809	8.46221	75.2016	61.0469
 535	1	2	0.31527	8.05608	76.7952	62.4447
 536	1	2	-0.466224	8.48256	77.4253	63.6204
 537	1	1	0.20556	7.9147	78.265	64.0113
 538	1	2	-0.031899	9.6339	76.9818	64.2968
 539	1	1	0.127567	9.93116	77.4986	65.2042
 540	1	2	0.005289	10.3867	75.8929	63.801
 541	1	1	0.144011	5.03305	76.5333	60.1249
 542	1	2	-0.407424	5.88066	77.018	59.6478
 543	1	2	0.096878	5.9009	77.1781	58.249
 544	1	1	0.131719	5.06589	76.8137	57.6546
 545	1	2	0.007579	7.0003	77.7923	57.6193
 546	1	3	0.947259	7.03828	77.8858	55.8094
 547	1	2	-0.433296	8.07835	78.2672	58.4035
 548	1	1	0.195208	8.92396	78.7531	57.9186
 549	1	2	0.002203	8.05784	78.0996	59.8003
 550	1	1	0.245959	8.89128	78.4514	60.4055
 551	1	2	0.108341	6.96546	77.4629	60.4232
 552	1	4	-0.012027	6.95402	77.262	61.7785
 553	1	5	-0.530873	5.82055	77.2436	55.299
 554	1	5	-0.5745	7.42316	79.2509	55.433
 555	1	1	0.177717	9.85394	78.4543	55.2138
 556	1	2	-0.13906	9.72516	77.3725	55.2185
 557	1	2	-0.172291	10.8333	76.5357	55.0036
 558	1	1	0.137587	11.8136	76.9673	54.8299
 559	1	2	0.27179	10.6761	75.1427	55.0048
 560	1	6	-0.297458	11.7779	74.3437	54.8162
 561	1	1	0.184682	7.30847	74.9807	55.6071
 562	1	2	-0.177057	8.29313	75.4136	55.4369
 563	1	2	-0.065252	8.4503	76.8146	55.4419
 564	1	1	0.164016	10.4714	74.142	52.4918
 565	1	1	0.144303	10.5248	72.2043	50.9876
 566	1	2	-0.207027	11.0707	73.2757	52.7592
 567	1	2	-0.150602	11.1125	72.1643	51.8994
 568	1	2	0.201726	11.7943	73.2683	53.9621
 569	1	2	0.015223	11.8909	71.0275	52.2207
 570	1	7	0.123165	11.944	69.764	51.3267
 571	1	2	-0.193552	12.5888	72.1617	54.2824
 572	1	2	-0.163782	12.6405	71.0545	53.4182
 573	1	1	0.167708	13.1583	72.1666	55.2069
 574	1	1	0.146296	13.2494	70.1965	53.6927
 575	1	2	-0.183938	9.40577	74.5801	55.2224
 576	1	1	0.154545	9.28894	73.5006	55.2316
 577	1	7	-0.193999	13.4099	69.6279	50.8267
 578	1	7	-0.196778	11.0367	69.8723	50.072
 579	1	9	0.051577	14.0859	69.3451	51.6431
 580	1	9	0.039353	13.7666	70.5792	50.4111
 581	1	9	0.072794	13.5083	68.8755	50.0355
 582	1	9	0.05895	11.1005	68.9643	49.4586
 583	1	9	0.044008	11.3297	70.717	49.4355
 584	1	9	0.064391	9.98408	69.9971	50.3574
 585	1	1	0.130931	12.3733	67.094	50.7097
 586	1	2	-0.035623	11.8252	67.2154	51.6394
 587	1	2	-0.458756	11.4323	66.0674	52.3492
 588	1	1	0.207809	11.6753	65.0829	51.9592
 589	1	2	0.31527	10.6982	66.1792	53.5398
 590	1	2	-0.466224	10.3233	67.4512	53.9857
 591	1	1	0.20556	9.72352	67.5452	54.8866
 592	1	2	-0.031899	10.7012	68.6019	53.2726
 593	1	1	0.127567	10.3673	69.5696	53.6382
 594	1	2	0.005289	11.4981	68.5064	52.1085
 595	1	1	0.144011	9.52569	62.607	54.6257
 596	1	2	-0.407424	10.6041	62.7345	54.6738
 597	1	2	0.096878	11.4309	61.6201	54.9059
 598	1	1	0.131719	10.9879	60.6351	55.0333
 599	1	2	0.007579	12.8284	61.7691	54.9527
 600	1	3	0.947259	13.8385	60.277	55.1278
 601	1	2	-0.433296	13.3981	63.0539	54.8014
 602	1	1	0.195208	14.4793	63.1748	54.8537
 603	1	2	0.002203	12.5682	64.1696	54.5892
 604	1	1	0.245959	13.0099	65.1579	54.4827
 605	1	2	0.108341	11.1691	64.0096	54.4985
 606	1	4	-0.012027	10.3353	65.0744	54.2649
 607	1	5	-0.530873	15.2384	60.6784	55.3188
 608	1	5	-0.5745	13.1305	59.374	56.0437
 609	1	1	0.177717	15.3776	60.6413	52.6721
 610	1	2	-0.13906	14.5532	59.9674	52.4454
 611	1	2	-0.172291	14.3623	59.5051	51.1312
 612	1	1	0.137587	15.034	59.8176	50.3371
 613	1	2	0.27179	13.282	58.6626	50.8316
 614	1	6	-0.297458	13.0946	58.2529	49.5339
 615	1	1	0.184682	11.929	58.377	53.9633
 616	1	2	-0.177057	12.6035	58.7005	53.1713
 617	1	2	-0.065252	13.6653	59.5795	53.4676
 618	1	1	0.164016	11.0345	59.9229	49.9196
 619	1	1	0.144303	8.86092	59.7996	48.7807
 620	1	2	-0.207027	10.8535	59.1254	49.2065
 621	1	2	-0.150602	9.61185	59.0485	48.5504
 622	1	2	0.201726	11.8624	58.1885	48.9286
 623	1	2	0.015223	9.35946	58.0326	47.6005
 624	1	7	0.123165	8.02389	57.9087	46.8348
 625	1	2	-0.193552	11.6284	57.1812	47.9861
 626	1	2	-0.163782	10.3866	57.0997	47.3334
 627	1	1	0.167708	12.412	56.46	47.7739
 628	1	1	0.146296	10.2212	56.3054	46.6104
 629	1	2	-0.183938	12.4149	58.2427	51.8556
 630	1	1	0.154545	11.5958	57.5676	51.6246
 631	1	7	-0.193999	7.05531	59.1005	47.0746
 632	1	7	-0.196778	7.29031	56.6437	47.3593
 633	1	9	0.051577	6.15701	58.9998	46.4519
 634	1	9	0.039353	7.5202	60.0635	46.8292
 635	1	9	0.072794	6.72721	59.145	48.1208
 636	1	9	0.05895	6.32941	56.4995	46.8485
 637	1	9	0.044008	7.08362	56.7349	48.4335
 638	1	9	0.064391	7.89353	55.7379	47.2221
 639	1	1	0.130931	9.24024	59.824	45.3304
 640	1	2	-0.035623	9.01348	58.9426	44.7343
 641	1	2	-0.458756	9.40261	58.9053	43.3854
 642	1	1	0.207809	9.9102	59.7581	42.9443
 643	1	2	0.31527	9.12983	57.7789	42.6002
 644	1	2	-0.466224	8.46965	56.6865	43.1742
 645	1	1	0.20556	8.26669	55.8074	42.5689
 646	1	2	-0.031899	8.0736	56.7186	44.5229
 647	1	1	0.127567	7.56715	55.8497	44.9317
 648	1	2	0.005289	8.35046	57.8477	45.3277
 649	1	1	0.144011	10.5797	58.1627	38.9454
 650	1	2	-0.407424	11.3201	57.9006	39.6939
 651	1	2	0.096878	12.6806	57.8466	39.3442
 652	1	1	0.131719	12.9905	58.0654	38.3279
 653	1	2	0.007579	13.6512	57.5202	40.3046
 654	1	3	0.947259	15.3768	57.42	39.7689
 655	1	2	-0.433296	13.2548	57.2408	41.6337
 656	1	1	0.195208	14.0096	56.9795	42.3738
 657	1	2	0.002203	11.8919	57.3	41.9821
 658	1	1	0.245959	11.5854	57.0745	43.0011
 659	1	2	0.108341	10.9206	57.64	41.0137
 660	1	4	-0.012027	9.58373	57.705	41.3146
 661	1	5	-0.530873	15.5197	58.198	38.5317
 662	1	5	-0.5745	16.2328	57.6451	40.9411
 663	1	1	0.177717	14.6038	55.9511	37.3667
 664	1	2	-0.13906	14.9947	55.2309	38.0847
 665	1	2	-0.172291	15.0073	53.8615	37.7709
 666	1	1	0.137587	14.6186	53.5211	36.8159