pySIMM System Object

2162 atoms
2321 bonds
3920 angles
5838 dihedrals
720 impropers

9 atom types
10 bond types
17 angle types
7 dihedral types
2 improper types

-192.800917 192.800917 xlo xhi
-192.800917 192.800917 ylo yhi
-192.800917 192.800917 zlo zhi

Masses

   1	1.008	# ha
   2	12.01	# ca
   3	32.06	# sy
   4	16.0	# oh
   5	16.0	# o
   6	16.0	# os
   7	12.01	# c3
   8	1.008	# ho
   9	1.008	# hc

Pair Coeffs

   1	0.015	2.59964245953351	# ha
   2	0.086	3.3996695084235347	# ca
   3	0.25	3.563594872561357	# sy
   4	0.2104	3.0664733878390478	# oh
   5	0.21	2.959921901149463	# o
   6	0.17	3.0000123434657784	# os
   7	0.1094	3.3996695084235347	# c3
   8	0.0	0.0	# ho
   9	0.0157	2.649532787749369	# hc

Bond Coeffs

   1	371.4	0.973	# ho,oh
   2	243.4	1.7909	# ca,sy
   3	461.1	1.3984	# ca,ca
   4	300.9	1.5375	# c3,c3
   5	330.6	1.0969	# c3,hc
   6	493.0	1.466	# o,sy
   7	345.8	1.086	# ca,ha
   8	321.0	1.5156	# c3,ca
   9	376.6	1.3696	# ca,os
  10	384.0	1.3637	# ca,oh

Angle Coeffs

   1	61.48	119.42	# ca,ca,sy
   2	72.54	121.41	# o,sy,o
   3	69.58	119.2	# ca,ca,os
   4	60.3	104.44	# ca,sy,ca
   5	46.34	109.8	# c3,c3,hc
   6	49.0	108.58	# ca,oh,ho
   7	65.77	108.35	# ca,sy,o
   8	63.48	119.89	# ca,os,ca
   9	69.52	119.9	# ca,ca,oh
  10	63.56	112.24	# ca,c3,ca
  11	62.86	111.51	# c3,c3,c3
  12	39.4	107.58	# hc,c3,hc
  13	66.62	120.02	# ca,ca,ca
  14	48.18	119.88	# ca,ca,ha
  15	63.15	112.07	# c3,c3,ca
  16	63.53	120.77	# c3,ca,ca
  17	63.5	119.89	# ca,oh,ca

Dihedral Coeffs

   1	1	0.9	2	180	# X,ca,oh,X
   2	1	1.3	2	180	# X,ca,sy,X
   3	1	0.16	3	0	# hc,c3,c3,c3
   4	1	3.625	2	180	# X,ca,ca,X
   5	1	0.0	2	0	# X,c3,ca,X
   6	1	0.15555555555555556	3	0	# X,c3,c3,X
   7	1	0.9	2	180	# X,ca,os,X

Improper Coeffs

   1	1.1	-1	2	# ca,X,X,ha
   2	1.1	-1	2	# ca,ca,ca,c3

Atoms

   1	1	1	0.144011	-0.344244	-64.5166	69.9461
   2	1	2	-0.407424	-1.0474	-63.7028	70.0895
   3	1	2	0.096878	-0.850911	-62.4817	69.4162
   4	1	1	0.131719	0.00382015	-62.371	68.7529
   5	1	2	0.007579	-1.73497	-61.4066	69.6104
   6	1	3	0.947259	-1.38656	-59.8358	68.7725
   7	1	2	-0.433296	-2.86034	-61.5744	70.4551
   8	1	1	0.195208	-3.55823	-60.75	70.586
   9	1	2	0.002203	-3.05996	-62.8026	71.1173
  10	1	1	0.245959	-3.91348	-62.9334	71.7795
  11	1	2	0.108341	-2.14382	-63.8564	70.9541
  12	1	4	-0.012027	-2.29592	-65.0211	71.6535
  13	1	5	-0.530873	-0.197968	-60.0379	67.9327
  14	1	5	-0.5745	-2.65822	-59.3473	68.2284
  15	1	1	0.177717	1.16046	-59.3161	70.1443
  16	1	2	-0.13906	0.411674	-58.6572	70.5801
  17	1	2	-0.172291	0.779546	-57.7421	71.5849
  18	1	1	0.137587	1.80591	-57.6945	71.9375
  19	1	2	0.27179	-0.172831	-56.8573	72.1138
  20	1	6	-0.297458	0.204038	-55.9396	73.0653
  21	1	1	0.184682	-2.89388	-57.8237	70.2761
  22	1	2	-0.177057	-1.87273	-57.8156	70.6545
  23	1	2	-0.065252	-0.919056	-58.7012	70.1117
  24	1	1	0.164016	0.377637	-54.4475	70.8751
  25	1	1	0.144303	-0.25454	-52.0625	70.708
  26	1	2	-0.207027	-0.0132312	-53.9308	71.7471
  27	1	2	-0.150602	-0.37884	-52.578	71.6568
  28	1	2	0.201726	-0.140145	-54.613	72.9658
  29	1	2	0.015223	-0.889006	-51.8829	72.7755
  30	1	7	0.123165	-1.24546	-50.3876	72.6164
  31	1	2	-0.193552	-0.622493	-53.9347	74.0927
  32	1	2	-0.163782	-1.00206	-52.5821	74.0004
  33	1	1	0.167708	-0.707107	-54.4665	75.0355
  34	1	1	0.146296	-1.37619	-52.0909	74.8925
  35	1	2	-0.183938	-1.49991	-56.8983	71.6526
  36	1	1	0.154545	-2.23134	-56.2063	72.0592
  37	1	7	-0.193999	-1.76678	-49.7293	73.9236
  38	1	7	-0.196778	-2.40908	-50.2737	71.5907
  39	1	9	0.051577	-1.98799	-48.6668	73.7592
  40	1	9	0.039353	-1.03029	-49.7878	74.7341
  41	1	9	0.072794	-2.69158	-50.2103	74.2677
  42	1	9	0.05895	-3.28101	-50.8463	71.9325
  43	1	9	0.044008	-2.1296	-50.6679	70.6061
  44	1	9	0.064391	-2.72755	-49.2314	71.4615
  45	1	1	0.130931	-0.700367	-48.8662	70.2819
  46	1	2	-0.035623	0.15152	-48.9649	70.9476
  47	1	2	-0.458756	1.3868	-48.4326	70.5366
  48	1	1	0.207809	1.47149	-47.9454	69.5697
  49	1	2	0.31527	2.52474	-48.5632	71.3425
  50	1	2	-0.466224	2.41473	-49.2037	72.5827
  51	1	1	0.20556	3.29649	-49.3254	73.2063
  52	1	2	-0.031899	1.18747	-49.7516	72.9919
  53	1	1	0.127567	1.13703	-50.294	73.9332
  54	1	2	0.005289	0.0399603	-49.6559	72.1755
  55	1	1	0.144011	6.30884	-48.5321	71.1947
  56	1	2	-0.407424	5.93763	-47.6116	71.6372
  57	1	2	0.096878	6.83532	-46.7157	72.2439
  58	1	1	0.131719	7.8987	-46.9452	72.2676
  59	1	2	0.007579	6.37185	-45.4978	72.7703
  60	1	3	0.947259	7.6127	-44.3058	73.3294
  61	1	2	-0.433296	4.9883	-45.1967	72.7349
  62	1	1	0.195208	4.63196	-44.2517	73.1446
  63	1	2	0.002203	4.0887	-46.108	72.1477
  64	1	1	0.245959	3.02696	-45.875	72.0942
  65	1	2	0.108341	4.56772	-47.3042	71.5774
  66	1	4	-0.012027	3.73577	-48.1341	70.8781
  67	1	5	-0.530873	6.9075	-43.2024	73.9925
  68	1	5	-0.5745	8.72156	-45.0335	73.9589
  69	1	1	0.177717	10.2022	-44.5124	71.9354
  70	1	2	-0.13906	9.51362	-43.9726	71.2866
  71	1	2	-0.172291	9.93305	-43.5493	70.0111
  72	1	1	0.137587	10.9428	-43.7565	69.6697
  73	1	2	0.27179	9.0509	-42.8545	69.1686
  74	1	6	-0.297458	9.48802	-42.4585	67.9227
  75	1	1	0.184682	6.29943	-42.8043	71.2107
  76	1	2	-0.177057	7.31626	-43.0075	70.878
  77	1	2	-0.065252	8.20254	-43.6987	71.7275
  78	1	1	0.164016	9.09658	-40.0783	69.0416
  79	1	1	0.144303	8.16872	-38.1013	67.923
  80	1	2	-0.207027	8.8483	-40.1282	67.9852
  81	1	2	-0.150602	8.32094	-39.0	67.3348
  82	1	2	0.201726	9.03258	-41.3289	67.2833
  83	1	2	0.015223	7.98083	-39.0452	65.9619
  84	1	7	0.123165	7.31115	-37.8575	65.2288
  85	1	2	-0.193552	8.7397	-41.3795	65.9141
  86	1	2	-0.163782	8.21815	-40.2477	65.2591
  87	1	1	0.167708	8.8974	-42.3061	65.3702
  88	1	1	0.146296	7.97637	-40.3101	64.2008
  89	1	2	-0.183938	7.73588	-42.597	69.6006
  90	1	1	0.154545	7.04061	-42.0826	68.9438
  91	1	7	-0.193999	7.17808	-36.5932	66.1197
  92	1	7	-0.196778	5.86563	-38.3078	64.8759
  93	1	9	0.051577	6.7233	-35.7677	65.557
  94	1	9	0.039353	8.16043	-36.2487	66.4677
  95	1	9	0.072794	6.54416	-36.7826	66.9952
  96	1	9	0.05895	5.36388	-38.7186	65.7618
  97	1	9	0.044008	5.86589	-39.0865	64.1031
  98	1	9	0.064391	5.25272	-37.4711	64.5186
  99	1	1	0.130931	10.0466	-37.7013	64.964
 100	1	2	-0.035623	9.53712	-37.3841	64.0569
 101	1	2	-0.458756	10.297	-36.8981	62.9763
 102	1	1	0.207809	11.379	-36.8559	63.0535
 103	1	2	0.31527	9.6715	-36.431	61.8119
 104	1	2	-0.466224	8.27266	-36.5026	61.7236
 105	1	1	0.20556	7.77311	-36.1533	60.8244
 106	1	2	-0.031899	7.50795	-36.9884	62.7986
 107	1	1	0.127567	6.42718	-36.9876	62.7013
 108	1	2	0.005289	8.12824	-37.4344	63.9877
 109	1	1	0.144011	9.13122	-33.7187	61.5379
 110	1	2	-0.407424	9.40493	-33.7622	60.4865
 111	1	2	0.096878	9.06455	-32.6917	59.6368
 112	1	1	0.131719	8.52109	-31.8396	60.0394
 113	1	2	0.007579	9.40921	-32.7255	58.272
 114	1	3	0.947259	8.9024	-31.3408	57.2092
 115	1	2	-0.433296	10.1031	-33.8492	57.7606
 116	1	1	0.195208	10.35	-33.8921	56.7014
 117	1	2	0.002203	10.4409	-34.9178	58.615
 118	1	1	0.245959	10.9675	-35.7859	58.2255
 119	1	2	0.108341	10.0844	-34.8863	59.9758
 120	1	4	-0.012027	10.437	-35.9433	60.7808
 121	1	5	-0.530873	8.50704	-31.9204	55.9195
 122	1	5	-0.5745	8.00579	-30.4757	57.9862
 123	1	1	0.177717	11.0308	-31.6673	55.2299
 124	1	2	-0.13906	11.2924	-30.812	55.8503
 125	1	2	-0.172291	12.4723	-30.0912	55.5912
 126	1	1	0.137587	13.135	-30.3936	54.7862
 127	1	2	0.27179	12.7987	-28.9681	56.3658
 128	1	6	-0.297458	13.9761	-28.3035	56.1178
 129	1	1	0.184682	10.1057	-28.976	58.4829
 130	1	2	-0.177057	10.7714	-29.2934	57.6809
 131	1	2	-0.065252	10.4375	-30.4217	56.9011
 132	1	1	0.164016	11.9872	-26.7199	55.1849
 133	1	1	0.144303	12.2761	-24.4247	54.3626
 134	1	2	-0.207027	12.9786	-26.2769	55.1854
 135	1	2	-0.150602	13.1527	-24.9652	54.704
 136	1	2	0.201726	14.0812	-27.0081	55.6597
 137	1	2	0.015223	14.4322	-24.361	54.6718
 138	1	7	0.123165	14.6439	-22.9053	54.1888
 139	1	2	-0.193552	15.3513	-26.4166	55.6443
 140	1	2	-0.163782	15.5259	-25.1054	55.1661
 141	1	1	0.167708	16.2025	-26.9831	56.0095
 142	1	1	0.146296	16.5209	-24.6673	55.1816
 143	1	2	-0.183938	11.9517	-28.5714	57.4145
 144	1	1	0.154545	12.2167	-27.708	58.0178
 145	1	7	-0.193999	14.5435	-22.0012	55.4463
 146	1	7	-0.196778	13.5388	-22.4377	53.2019
 147	1	9	0.051577	13.595	-22.1722	55.9718
 148	1	9	0.039353	14.5838	-20.9363	55.184
 149	1	9	0.072794	15.3543	-22.2182	56.1534
 150	1	9	0.05895	12.5649	-22.3345	53.696
 151	1	9	0.044008	13.4279	-23.1407	52.3666
 152	1	9	0.064391	13.7909	-21.4563	52.7793
 153	1	1	0.130931	15.5882	-24.4203	52.1156
 154	1	2	-0.035623	16.2917	-23.6326	52.3761
 155	1	2	-0.458756	17.4844	-23.4999	51.6404
 156	1	1	0.207809	17.6921	-24.1845	50.8239
 157	1	2	0.31527	18.4021	-22.4815	51.9344
 158	1	2	-0.466224	18.1219	-21.6176	53.0066
 159	1	1	0.20556	18.8249	-20.83	53.2632
 160	1	2	-0.031899	16.9311	-21.744	53.7449
 161	1	1	0.127567	16.7501	-21.0365	54.5479
 162	1	2	0.005289	15.9918	-22.7561	53.4407
 163	1	1	0.144011	18.646	-19.9504	50.5737
 164	1	2	-0.407424	19.7198	-20.0123	50.7338
 165	1	2	0.096878	20.5058	-18.8463	50.6547
 166	1	1	0.131719	20.0275	-17.8914	50.4486
 167	1	2	0.007579	21.8942	-18.9027	50.8846
 168	1	3	0.947259	22.8298	-17.344	50.9486
 169	1	2	-0.433296	22.4962	-20.1511	51.1771
 170	1	1	0.195208	23.5632	-20.194	51.3919
 171	1	2	0.002203	21.7048	-21.3143	51.2613
 172	1	1	0.245959	22.1583	-22.2691	51.5175
 173	1	2	0.108341	20.3133	-21.2461	51.0636
 174	1	4	-0.012027	19.5586	-22.3864	51.1945
 175	1	5	-0.530873	21.8598	-16.2542	51.1145
 176	1	5	-0.5745	23.9323	-17.5547	51.8953
 177	1	1	0.177717	25.3243	-18.3556	49.8001
 178	1	2	-0.13906	24.8565	-17.7205	49.0496
 179	1	2	-0.172291	25.5264	-17.4498	47.8412
 180	1	1	0.137587	26.4992	-17.8892	47.6429
 181	1	2	0.27179	24.9638	-16.5715	46.9022
 182	1	6	-0.297458	25.6542	-16.2842	45.7464
 183	1	1	0.184682	22.0775	-15.7834	48.5677
 184	1	2	-0.177057	23.0291	-16.2697	48.3576
 185	1	2	-0.065252	23.605	-17.1285	49.3188
 186	1	1	0.164016	26.3576	-14.2119	47.2803
 187	1	1	0.144303	26.8069	-11.9266	46.4846
 188	1	2	-0.207027	26.2741	-13.9872	46.2207
 189	1	2	-0.150602	26.5285	-12.6824	45.7571
 190	1	2	0.201726	25.9139	-15.0008	45.32
 191	1	2	0.015223	26.4057	-12.3503	44.3858
 192	1	7	0.123165	26.5821	-10.8811	43.8989
 193	1	2	-0.193552	25.8544	-14.709	43.9518
 194	1	2	-0.163782	26.093	-13.4011	43.4885
 195	1	1	0.167708	25.6033	-15.5012	43.2528
 196	1	1	0.146296	26.0192	-13.2179	42.4218
 197	1	2	-0.183938	23.7072	-15.9942	47.1541
 198	1	1	0.154545	23.2732	-15.318	46.4235
 199	1	7	-0.193999	25.98	-9.92168	44.9701
 200	1	7	-0.196778	25.7695	-10.6242	42.5984
 201	1	9	0.051577	25.8184	-8.90988	44.5799
 202	1	9	0.039353	26.6386	-9.82822	45.8423
 203	1	9	0.072794	25.0039	-10.2879	45.3147
 204	1	9	0.05895	24.7274	-10.9497	42.713
 205	1	9	0.044008	26.2073	-11.1498	41.7411
 206	1	9	0.064391	25.7578	-9.55814	42.3386
 207	1	1	0.130931	28.8142	-12.5514	43.5342
 208	1	2	-0.035623	29.0552	-11.4967	43.4289
 209	1	2	-0.458756	30.3773	-11.1325	43.1028
 210	1	1	0.207809	31.1328	-11.9026	42.9738
 211	1	2	0.31527	30.7349	-9.78661	42.9405
 212	1	2	-0.466224	29.7515	-8.80284	43.1061
 213	1	1	0.20556	30.0184	-7.75527	42.9964
 214	1	2	-0.031899	28.4304	-9.15959	43.4312
 215	1	1	0.127567	27.6924	-8.37033	43.5383
 216	1	2	0.005289	28.0567	-10.5123	43.6052
 217	1	1	0.144011	34.3864	-8.38508	42.2056
 218	1	2	-0.407424	33.7067	-8.2923	41.3626
 219	1	2	0.096878	34.1634	-7.71409	40.1605
 220	1	1	0.131719	35.1944	-7.37649	40.0797
 221	1	2	0.007579	33.3094	-7.61435	39.0472
 222	1	3	0.947259	34.003	-7.03865	37.4654
 223	1	2	-0.433296	31.9808	-8.09533	39.1528
 224	1	1	0.195208	31.3301	-8.06346	38.279
 225	1	2	0.002203	31.5325	-8.69073	40.3494
 226	1	1	0.245959	30.5269	-9.10418	40.4018
 227	1	2	0.108341	32.3958	-8.79711	41.4613
 228	1	4	-0.012027	32.024	-9.44363	42.619
 229	1	5	-0.530873	35.3332	-7.64362	37.3257
 230	1	5	-0.5745	32.9612	-7.23102	36.4493
 231	1	1	0.177717	32.1588	-4.78474	37.7937
 232	1	2	-0.13906	33.1645	-4.3737	37.7254
 233	1	2	-0.172291	33.3587	-2.97834	37.7229
 234	1	1	0.137587	32.5094	-2.3082	37.8139
 235	1	2	0.27179	34.6459	-2.43649	37.5722
 236	1	6	-0.297458	34.7944	-1.06505	37.5778
 237	1	1	0.184682	36.4175	-5.35778	37.3392
 238	1	2	-0.177057	35.5612	-4.69668	37.468
 239	1	2	-0.065252	34.2657	-5.24401	37.6011
 240	1	1	0.164016	36.2208	0.886096	38.5753
 241	1	1	0.144303	37.9749	2.18422	37.3872
 242	1	2	-0.207027	36.4522	0.663978	37.538
 243	1	2	-0.150602	37.4427	1.39752	36.8581
 244	1	2	0.201726	35.7648	-0.370391	36.8898
 245	1	2	0.015223	37.7579	1.12324	35.5082
 246	1	7	0.123165	38.9122	1.90396	34.8235
 247	1	2	-0.193552	36.0452	-0.642177	35.5419
 248	1	2	-0.163782	37.0316	0.0949117	34.8581
 249	1	1	0.167708	35.4957	-1.42451	35.0261
 250	1	1	0.146296	37.225	-0.15717	33.8206
 251	1	2	-0.183938	35.7498	-3.30076	37.4566
 252	1	1	0.154545	36.7492	-2.88924	37.3497
 253	1	7	-0.193999	39.1478	1.45622	33.3551
 254	1	7	-0.196778	40.2078	1.56168	35.6136
 255	1	9	0.051577	38.2606	1.64857	32.7384
 256	1	9	0.039353	39.3927	0.388073	33.2952
 257	1	9	0.072794	39.9832	2.00649	32.9035
 258	1	9	0.05895	40.2102	2.03943	36.6013
 259	1	9	0.044008	41.1145	1.8804	35.0859
 260	1	9	0.064391	40.291	0.477809	35.766
 261	1	1	0.130931	40.7511	3.93521	34.4157
 262	1	2	-0.035623	39.7442	4.31771	34.5522
 263	1	2	-0.458756	39.5376	5.70382	34.4572
 264	1	1	0.207809	40.3832	6.36177	34.2723
 265	1	2	0.31527	38.2537	6.24802	34.6001
 266	1	2	-0.466224	37.1763	5.38197	34.8335
 267	1	1	0.20556	36.1761	5.79164	34.9388
 268	1	2	-0.031899	37.3756	3.98922	34.9176
 269	1	1	0.127567	36.5131	3.34512	35.0701
 270	1	2	0.005289	38.6691	3.43276	34.7931
 271	1	1	0.144011	39.5363	9.74795	34.8875
 272	1	2	-0.407424	39.4364	9.4559	33.8455
 273	1	2	0.096878	40.1213	10.1758	32.8464
 274	1	1	0.131719	40.7504	11.0197	33.1217
 275	1	2	0.007579	40.016	9.7955	31.4955
 276	1	3	0.947259	40.9773	10.7134	30.2595
 277	1	2	-0.433296	39.2114	8.68426	31.1454
 278	1	1	0.195208	39.1487	8.37353	30.1028
 279	1	2	0.002203	38.5448	7.95456	32.1482
 280	1	1	0.245959	37.9525	7.07939	31.8879
 281	1	2	0.108341	38.6596	8.33509	33.4997
 282	1	4	-0.012027	38.0448	7.59886	34.4802
 283	1	5	-0.530873	42.2244	11.1583	30.894
 284	1	5	-0.5745	40.9667	9.91959	29.0244
 285	1	1	0.177717	38.4648	11.1165	28.836
 286	1	2	-0.13906	38.7905	12.0902	29.1984
 287	1	2	-0.172291	38.0325	13.2398	28.9115
 288	1	1	0.137587	37.1129	13.1629	28.3391
 289	1	2	0.27179	38.472	14.4998	29.3442
 290	1	6	-0.297458	37.723	15.6102	29.0416
 291	1	1	0.184682	41.3465	13.5558	30.9433
 292	1	2	-0.177057	40.4159	13.464	30.3848
 293	1	2	-0.065252	39.9855	12.1961	29.9377
 294	1	1	0.164016	39.8946	15.7514	27.4485
 295	1	1	0.144303	40.6843	17.7842	26.3062
 296	1	2	-0.207027	39.3537	16.6834	27.5848
 297	1	2	-0.150602	39.7915	17.8443	26.922
 298	1	2	0.201726	38.2128	16.7263	28.4037
 299	1	2	0.015223	39.0954	19.0684	27.0509
 300	1	7	0.123165	39.5925	20.3301	26.3035
 301	1	2	-0.193552	37.5188	17.9326	28.5509
 302	1	2	-0.163782	37.9564	19.0942	27.8914
 303	1	1	0.167708	36.6336	17.96	29.1798
 304	1	1	0.146296	37.393	20.0103	28.0464
 305	1	2	-0.183938	39.6581	14.6123	30.0892
 306	1	1	0.154545	39.9862	15.59	30.4304
 307	1	7	-0.193999	39.8541	20.0044	24.8073
 308	1	7	-0.196778	40.9681	20.7448	26.8892
 309	1	9	0.051577	40.1331	20.9129	24.2609
 310	1	9	0.039353	38.9787	19.5603	24.3198
 311	1	9	0.072794	40.6789	19.2943	24.6933
 312	1	9	0.05895	41.7024	19.9417	26.7602
 313	1	9	0.044008	40.9041	20.9533	27.9618
 314	1	9	0.064391	41.3622	21.6368	26.3859
 315	1	1	0.130931	39.6437	22.7553	27.7751
 316	1	2	-0.035623	38.7389	22.6195	27.1932
 317	1	2	-0.458756	37.736	23.5987	27.2914
 318	1	1	0.207809	37.8746	24.4608	27.9317
 319	1	2	0.31527	36.5333	23.474	26.5923
 320	1	2	-0.466224	36.3423	22.3433	25.7824
 321	1	1	0.20556	35.4089	22.2132	25.2455
 322	1	2	-0.031899	37.3349	21.3558	25.6827
 323	1	1	0.127567	37.1336	20.472	25.0838
 324	1	2	0.005289	38.5556	21.4765	26.3815
 325	1	1	0.144011	33.3182	23.4204	25.7939
 326	1	2	-0.407424	33.7233	24.2424	25.2096
 327	1	2	0.096878	33.1059	24.6181	24.004
 328	1	1	0.131719	32.2258	24.0784	23.6608
 329	1	2	0.007579	33.6482	25.6578	23.2255
 330	1	3	0.947259	32.935	25.9804	21.5942
 331	1	2	-0.433296	34.785	26.3617	23.6871
 332	1	1	0.195208	35.1959	27.1768	23.092
 333	1	2	0.002203	35.4053	25.9776	24.8907
 334	1	1	0.245959	36.3028	26.4855	25.2412
 335	1	2	0.108341	34.8927	24.8992	25.6319
 336	1	4	-0.012027	35.5782	24.4487	26.7226
 337	1	5	-0.530873	32.6788	27.4171	21.4373
 338	1	5	-0.5745	31.8756	24.9906	21.37
 339	1	1	0.177717	34.9235	23.8042	21.5511
 340	1	2	-0.13906	35.1127	24.4498	20.6959
 341	1	2	-0.172291	36.1939	24.1737	19.8389
 342	1	1	0.137587	36.8488	23.3294	20.0384
 343	1	2	0.27179	36.4502	25.0129	18.7397
 344	1	6	-0.297458	37.5453	24.823	17.9357
 345	1	1	0.184682	33.9172	27.2725	19.1719
 346	1	2	-0.177057	34.5524	26.4063	19.3549
 347	1	2	-0.065252	34.2942	25.5764	20.4644
 348	1	1	0.164016	35.9953	22.6771	17.4374
 349	1	1	0.144303	36.7751	20.57	16.426
 350	1	2	-0.207027	37.0471	22.5587	17.1962
 351	1	2	-0.150602	37.4964	21.3578	16.6164
 352	1	2	0.201726	37.951	23.6072	17.4388
 353	1	2	0.015223	38.8537	21.1854	16.2607
 354	1	7	0.123165	39.3532	19.8966	15.5668
 355	1	2	-0.193552	39.2928	23.4573	17.0757
 356	1	2	-0.163782	39.7387	22.2644	16.4866
 357	1	1	0.167708	39.988	24.2745	17.2324
 358	1	1	0.146296	40.7813	22.1967	16.1903
 359	1	2	-0.183938	35.629	26.123	18.4971
 360	1	1	0.154545	35.8385	26.7678	17.6495
 361	1	7	-0.193999	39.0669	20.0478	14.0488
 362	1	7	-0.196778	38.5763	18.6329	16.0375
 363	1	9	0.051577	37.9903	20.1438	13.8596
 364	1	9	0.039353	39.4308	19.1797	13.4845
 365	1	9	0.072794	39.5416	20.9506	13.6448
 366	1	9	0.05895	37.5466	18.6218	15.6603
 367	1	9	0.044008	38.5286	18.5707	17.1314
 368	1	9	0.064391	39.0643	17.7219	15.6676
 369	1	1	0.130931	40.4952	19.2572	17.9751
 370	1	2	-0.035623	41.2477	19.3806	17.2004
 371	1	2	-0.458756	42.6057	19.2945	17.5508
 372	1	1	0.207809	42.884	19.0956	18.5814
 373	1	2	0.31527	43.6026	19.5337	16.5964
 374	1	2	-0.466224	43.23	19.8171	15.2773
 375	1	1	0.20556	43.9975	20.0196	14.5361
 376	1	2	-0.031899	41.8721	19.8879	14.9162
 377	1	1	0.127567	41.6265	20.1481	13.8912
 378	1	2	0.005289	40.8551	19.6847	15.8787
 379	1	1	0.144011	47.3003	19.5464	18.0565
 380	1	2	-0.407424	46.6969	20.3995	18.3552
 381	1	2	0.096878	47.2166	21.3397	19.2651
 382	1	1	0.131719	48.2184	21.2028	19.6657
 383	1	2	0.007579	46.4435	22.4451	19.6659
 384	1	3	0.947259	47.1365	23.6159	20.8618
 385	1	2	-0.433296	45.1416	22.6092	19.1403
 386	1	1	0.195208	44.5262	23.4481	19.4542
 387	1	2	0.002203	44.6209	21.6639	18.2374
 388	1	1	0.245959	43.6075	21.7919	17.8554
 389	1	2	0.108341	45.3941	20.5481	17.8451
 390	1	4	-0.012027	44.9183	19.6029	16.9663
 391	1	5	-0.530873	48.2756	22.9687	21.5221
 392	1	5	-0.5745	46.003	24.1541	21.6302
 393	1	1	0.177717	45.8591	25.9497	19.6677
 394	1	2	-0.13906	46.8942	25.954	19.3472
 395	1	2	-0.172291	47.3517	26.961	18.4808
 396	1	1	0.137587	46.6688	27.7251	18.1209
 397	1	2	0.27179	48.6907	26.9832	18.0655
 398	1	6	-0.297458	49.0716	27.9596	17.1729
 399	1	1	0.184682	49.8041	24.2008	19.7313
 400	1	2	-0.177057	49.1174	24.9715	19.3839
 401	1	2	-0.065252	47.7679	24.9456	19.7971
 402	1	1	0.164016	50.7432	28.8981	19.0198
 403	1	1	0.144303	53.0089	29.7734	18.5879
 404	1	2	-0.207027	51.1446	28.8811	18.0106
 405	1	2	-0.150602	52.4341	29.3851	17.7533
 406	1	2	0.201726	50.3607	28.3808	16.9608
 407	1	2	0.015223	52.9572	29.4018	16.4379
 408	1	7	0.123165	54.3547	29.9617	16.0854
 409	1	2	-0.193552	50.8667	28.3815	15.6563
 410	1	2	-0.163782	52.157	28.8781	15.4
 411	1	1	0.167708	50.2489	28.0052	14.8459
 412	1	1	0.146296	52.5352	28.8776	14.3811
 413	1	2	-0.183938	49.5761	25.9863	18.5194
 414	1	1	0.154545	50.6107	25.9887	18.1878
 415	1	7	-0.193999	55.2339	28.7732	15.6035
 416	1	7	-0.196778	55.1052	30.5599	17.3099
 417	1	9	0.051577	56.2468	29.1077	15.3439
 418	1	9	0.039353	54.8047	28.273	14.727
 419	1	9	0.072794	55.3258	28.0164	16.3932
 420	1	9	0.05895	54.5345	31.3627	17.7917
 421	1	9	0.044008	56.0698	30.9839	17.0016
 422	1	9	0.064391	55.3099	29.7926	18.0673
 423	1	1	0.130931	53.1044	32.3905	16.3557
 424	1	2	-0.035623	53.5223	32.2669	15.3592
 425	1	2	-0.458756	53.3723	33.308	14.4258
 426	1	1	0.207809	52.8521	34.2174	14.7153
 427	1	2	0.31527	53.8758	33.1864	13.1252
 428	1	2	-0.466224	54.5196	31.991	12.7638
 429	1	1	0.20556	54.9045	31.87	11.756
 430	1	2	-0.031899	54.6887	30.9525	13.6987
 431	1	1	0.127567	55.2061	30.0546	13.3768
 432	1	2	0.005289	54.1972	31.0747	15.0195
 433	1	1	0.144011	56.3657	34.1357	12.2985
 434	1	2	-0.407424	55.9337	34.4778	11.3608
 435	1	2	0.096878	56.7826	34.8263	10.2933
 436	1	1	0.131719	57.8604	34.7392	10.4159
 437	1	2	0.007579	56.2444	35.2745	9.07175
 438	1	3	0.947259	57.3795	35.6784	7.71116
 439	1	2	-0.433296	54.8408	35.3855	8.93427
 440	1	1	0.195208	54.4177	35.7287	7.99246
 441	1	2	0.002203	53.9954	35.0314	10.0035
 442	1	1	0.245959	52.9159	35.1071	9.89377
 443	1	2	0.108341	54.5344	34.5559	11.2131
 444	1	4	-0.012027	53.6793	34.2136	12.233
 445	1	5	-0.530873	58.737	35.3197	8.13489
 446	1	5	-0.5745	56.8382	35.163	6.44741
 447	1	1	0.177717	57.7614	37.4333	5.42821
 448	1	2	-0.13906	57.5832	38.0708	6.29343
 449	1	2	-0.172291	57.5854	39.4696	6.14942
 450	1	1	0.137587	57.7533	39.9199	5.17544
 451	1	2	0.27179	57.3531	40.2882	7.26678
 452	1	6	-0.297458	57.3071	41.6544	7.14538
 453	1	1	0.184682	56.9558	37.8766	9.65727
 454	1	2	-0.177057	57.1272	38.3128	8.67523
 455	1	2	-0.065252	57.3523	37.4843	7.55554
 456	1	1	0.164016	59.9129	41.0108	6.88699
 457	1	1	0.144303	61.6565	42.5054	5.97172
 458	1	2	-0.207027	59.6373	41.9953	6.52307
 459	1	2	-0.150602	60.6262	42.8488	6.0025
 460	1	2	0.201726	58.3026	42.4276	6.59567
 461	1	2	0.015223	60.3113	44.1554	5.56421
 462	1	7	0.123165	61.4446	45.0742	5.04166
 463	1	2	-0.193552	57.9727	43.715	6.15691
 464	1	2	-0.163782	58.9621	44.5724	5.64578
 465	1	1	0.167708	56.9418	44.0517	6.22082
 466	1	1	0.146296	58.6556	45.5628	5.32473
 467	1	2	-0.183938	57.1167	39.7112	8.52322
 468	1	1	0.154545	56.9305	40.3559	9.37725
 469	1	7	-0.193999	60.9236	46.4651	4.58688
 470	1	7	-0.196778	62.0542	44.3868	3.78634
 471	1	9	0.051577	60.1638	46.3697	3.80031
 472	1	9	0.039353	61.7332	47.0828	4.17898
 473	1	9	0.072794	60.4873	47.0161	5.43
 474	1	9	0.05895	62.773	45.0339	3.27014
 475	1	9	0.044008	61.2674	44.1413	3.06136
 476	1	9	0.064391	62.5741	43.4571	4.04735
 477	1	1	0.130931	63.9197	46.256	4.74042
 478	1	2	-0.035623	63.7543	45.9201	5.76001
 479	1	2	-0.458756	64.7711	46.1156	6.70885
 480	1	1	0.207809	65.6905	46.6107	6.40773
 481	1	2	0.31527	64.6	45.6994	8.03977
 482	1	2	-0.466224	63.371	45.1448	8.41568
 483	1	1	0.20556	63.2111	44.8592	9.45146
 484	1	2	-0.031899	62.3411	44.9691	7.47556
 485	1	1	0.127567	61.3955	44.5615	7.82223
 486	1	2	0.005289	62.5334	45.308	6.11583
 487	1	1	0.144011	67.2403	47.5102	10.1576
 488	1	2	-0.407424	67.6989	46.8803	9.39971
 489	1	2	0.096878	69.071	47.0093	9.11775
 490	1	1	0.131719	69.6693	47.7328	9.66601
 491	1	2	0.007579	69.671	46.2126	8.12649
 492	1	3	0.947259	71.4376	46.4407	7.80098
 493	1	2	-0.433296	68.8944	45.2506	7.43902
 494	1	1	0.195208	69.3632	44.6127	6.69071
 495	1	2	0.002203	67.528	45.1058	7.74145
 496	1	1	0.245959	66.9333	44.3565	7.22361
 497	1	2	0.108341	66.9205	45.941	8.70216
 498	1	4	-0.012027	65.582	45.851	8.98624
 499	1	5	-0.530873	72.1025	46.476	9.10853
 500	1	5	-0.5745	71.837	45.5043	6.74204
 501	1	1	0.177717	71.1536	47.5046	5.09047
 502	1	2	-0.13906	71.3637	48.3452	5.75028
 503	1	2	-0.172291	71.4863	49.6434	5.2208
 504	1	1	0.137587	71.3617	49.8119	4.15521
 505	1	2	0.27179	71.7815	50.7265	6.06785
 506	1	6	-0.297458	71.929	51.9986	5.56781
 507	1	1	0.184682	71.9754	49.0532	9.04436
 508	1	2	-0.177057	71.8179	49.2171	7.97903
 509	1	2	-0.065252	71.5358	48.124	7.13194
 510	1	1	0.164016	71.3147	53.8056	3.78419
 511	1	1	0.144303	72.5956	54.3475	1.74495
 512	1	2	-0.207027	72.2395	53.2779	3.56992
 513	1	2	-0.150602	72.9774	53.5801	2.41064
 514	1	2	0.201726	72.6819	52.2855	4.45363
 515	1	2	0.015223	74.1797	52.8932	2.11992
 516	1	7	0.123165	75.0005	53.138	0.831245
 517	1	2	-0.193552	73.8905	51.619	4.19717
 518	1	2	-0.163782	74.6314	51.923	3.04199
 519	1	1	0.167708	74.2532	50.867	4.89202
 520	1	1	0.146296	75.558	51.3873	2.85083
 521	1	2	-0.183938	71.9318	50.5141	7.44598
 522	1	1	0.154545	72.1619	51.357	8.09138
 523	1	7	-0.193999	76.328	53.8244	1.25511
 524	1	7	-0.196778	74.2959	54.0869	-0.174033
 525	1	9	0.051577	76.9642	53.1421	1.83259
 526	1	9	0.039353	76.1241	54.7011	1.88352
 527	1	9	0.072794	76.9004	54.1757	0.387826
 528	1	9	0.05895	74.8939	54.1969	-1.08796
 529	1	9	0.044008	74.1561	55.0899	0.249
 530	1	9	0.064391	73.3151	53.693	-0.469775
 531	1	1	0.130931	73.2313	51.0534	0.540951
 532	1	2	-0.035623	74.1852	50.8398	0.0637972
 533	1	2	-0.458756	74.3613	49.6043	-0.580585
 534	1	1	0.207809	73.5457	48.8859	-0.596138
 535	1	2	0.31527	75.5703	49.3007	-1.22444
 536	1	2	-0.466224	76.5964	50.2538	-1.22349
 537	1	1	0.20556	77.5285	50.0333	-1.73606
 538	1	2	-0.031899	76.43	51.4892	-0.570895
 539	1	1	0.127567	77.2459	52.2048	-0.600183
 540	1	2	0.005289	75.2255	51.794	0.102489
 541	1	1	0.144011	74.6217	46.1534	-3.21386
 542	1	2	-0.407424	74.7192	45.957	-2.14938
 543	1	2	0.096878	74.2347	44.7492	-1.61216
 544	1	1	0.131719	73.7674	44.0185	-2.26865
 545	1	2	0.007579	74.3505	44.4861	-0.233928
 546	1	3	0.947259	73.6755	42.9364	0.421801
 547	1	2	-0.433296	74.9745	45.4374	0.607715
 548	1	1	0.195208	75.0894	45.2237	1.66917
 549	1	2	0.002203	75.4546	46.645	0.0681011
 550	1	1	0.245959	75.9323	47.3797	0.713664
 551	1	2	0.108341	75.3159	46.9128	-1.30916
 552	1	4	-0.012027	75.7609	48.0936	-1.84494
 553	1	5	-0.530873	73.2315	42.1101	-0.708334
 554	1	5	-0.5745	74.6248	42.4455	1.42783
 555	1	1	0.177717	73.3252	44.0514	3.10621
 556	1	2	-0.13906	72.3445	44.0167	2.63403
 557	1	2	-0.172291	71.2119	44.4593	3.33986
 558	1	1	0.137587	71.3124	44.8376	4.35233
 559	1	2	0.27179	69.9415	44.3776	2.75062
 560	1	6	-0.297458	68.8287	44.757	3.45798
 561	1	1	0.184682	70.8209	43.0246	-0.267024
 562	1	2	-0.177057	70.9321	43.4342	0.736048
 563	1	2	-0.065252	72.2112	43.5042	1.32703
 564	1	1	0.164016	69.6312	42.4285	4.52658
 565	1	1	0.144303	68.1999	40.8382	5.71441
 566	1	2	-0.207027	68.5748	42.6543	4.64538
 567	1	2	-0.150602	67.7478	41.7472	5.3302
 568	1	2	0.201726	68.0442	43.8467	4.12562
 569	1	2	0.015223	66.3695	42.011	5.50547
 570	1	7	0.123165	65.4137	41.0398	6.24022
 571	1	2	-0.193552	66.6835	44.1269	4.30151
 572	1	2	-0.163782	65.8534	43.2146	4.97713
 573	1	1	0.167708	66.2764	45.0505	3.90151
 574	1	1	0.146296	64.7973	43.4409	5.0898
 575	1	2	-0.183938	69.8003	43.868	1.45064
 576	1	1	0.154545	68.8109	43.7999	1.00883
 577	1	7	-0.193999	64.8612	41.7987	7.48028
 578	1	7	-0.196778	66.1302	39.7689	6.76808
 579	1	9	0.051577	64.1673	42.5948	7.18563
 580	1	9	0.039353	65.6796	42.2595	8.04817
 581	1	9	0.072794	64.3326	41.1307	8.17059
 582	1	9	0.05895	65.4271	39.1116	7.29538
 583	1	9	0.044008	66.9327	40.0243	7.47223
 584	1	9	0.064391	66.5614	39.1877	5.94267
 585	1	1	0.130931	62.8711	40.0923	6.8875
 586	1	2	-0.035623	63.0452	40.1157	5.81599
 587	1	2	-0.458756	62.0233	39.6733	4.95754
 588	1	1	0.207809	61.0822	39.3188	5.36947
 589	1	2	0.31527	62.2182	39.6466	3.56967
 590	1	2	-0.466224	63.4484	40.0641	3.04897
 591	1	1	0.20556	63.6131	40.0296	1.9753
 592	1	2	-0.031899	64.4747	40.5076	3.9018
 593	1	1	0.127567	65.4271	40.7985	3.46434
 594	1	2	0.005289	64.2805	40.568	5.30064
 595	1	1	0.144011	59.0251	38.1813	1.73236
 596	1	2	-0.407424	58.9001	39.1945	2.10584
 597	1	2	0.096878	57.6468	39.8293	2.00271
 598	1	1	0.131719	56.8091	39.3042	1.54949
 599	1	2	0.007579	57.4718	41.1406	2.48111
 600	1	3	0.947259	55.8347	41.903	2.33979
 601	1	2	-0.433296	58.57	41.8261	3.0474
 602	1	1	0.195208	58.4438	42.8486	3.40188
 603	1	2	0.002203	59.8256	41.199	3.12538
 604	1	1	0.245959	60.6711	41.7427	3.53662
 605	1	2	0.108341	59.9947	39.8753	2.66897
 606	1	4	-0.012027	61.2145	39.2465	2.72765
 607	1	5	-0.530873	55.9091	43.2534	2.9128
 608	1	5	-0.5745	55.3595	41.6464	0.97495
 609	1	1	0.177717	55.4018	41.948	5.22884
 610	1	2	-0.13906	54.8224	41.1201	4.82421
 611	1	2	-0.172291	54.0745	40.2962	5.68439
 612	1	1	0.137587	54.0784	40.4725	6.75572
 613	1	2	0.27179	53.3318	39.2266	5.16349
 614	1	6	-0.297458	52.6408	38.406	6.02128
 615	1	1	0.184682	54.038	39.6362	1.83926
 616	1	2	-0.177057	54.0603	39.8144	2.914
 617	1	2	-0.065252	54.83	40.8734	3.43716
 618	1	1	0.164016	54.698	36.8795	5.26104
 619	1	1	0.144303	54.6474	34.4495	4.98081
 620	1	2	-0.207027	53.7729	36.3442	5.45702
 621	1	2	-0.150602	53.7371	34.9491	5.30092
 622	1	2	0.201726	52.6283	37.0404	5.87697
 623	1	2	0.015223	52.555	34.2233	5.56969
 624	1	7	0.123165	52.4637	32.6897	5.42224
 625	1	2	-0.193552	51.4544	36.3342	6.16334
 626	1	2	-0.163782	51.4171	34.9374	6.00833
 627	1	1	0.167708	50.5729	36.8778	6.49013
 628	1	1	0.146296	50.4958	34.4041	6.22797
 629	1	2	-0.183938	53.3102	38.9972	3.77615
 630	1	1	0.154545	52.7156	38.1823	3.37276
 631	1	7	-0.193999	53.8191	32.0187	5.06818
 632	1	7	-0.196778	51.5024	32.3863	4.23956
 633	1	9	0.051577	53.711	30.9274	5.02281
 634	1	9	0.039353	54.59	32.2417	5.81671
 635	1	9	0.072794	54.1874	32.3544	4.09027
 636	1	9	0.05895	51.4407	31.309	4.03863
 637	1	9	0.044008	51.857	32.8719	3.32111
 638	1	9	0.064391	50.4891	32.7582	4.43495
 639	1	1	0.130931	53.6016	33.0454	7.86708
 640	1	2	-0.035623	52.7091	32.4269	7.93861
 641	1	2	-0.458756	52.2974	31.9468	9.19373
 642	1	1	0.207809	52.8807	32.1738	10.0818
 643	1	2	0.31527	51.1642	31.1284	9.30037
 644	1	2	-0.466224	50.4463	30.7974	8.1456
 645	1	1	0.20556	49.575	30.1532	8.225
 646	1	2	-0.031899	50.8506	31.2777	6.8882
 647	1	1	0.127567	50.2712	30.9921	6.01553
 648	1	2	0.005289	51.987	32.1085	6.76847
 649	1	1	0.144011	50.9334	29.7797	12.9511
 650	1	2	-0.407424	50.6732	30.83	12.8786
 651	1	2	0.096878	50.4549	31.5835	14.0441
 652	1	1	0.131719	50.554	31.1139	15.0188
 653	1	2	0.007579	50.0916	32.9379	13.9578
 654	1	3	0.947259	49.7078	33.8053	15.5006
 655	1	2	-0.433296	49.9734	33.5514	12.6871
 656	1	1	0.195208	49.6858	34.6003	12.6234
 657	1	2	0.002203	50.2105	32.7961	11.5214
 658	1	1	0.245959	50.0995	33.2566	10.5421
 659	1	2	0.108341	50.5616	31.4323	11.6173
 660	1	4	-0.012027	50.7516	30.6473	10.5105
 661	1	5	-0.530873	50.5393	33.2093	16.5535
 662	1	5	-0.5745	49.6853	35.2504	15.2376
 663	1	1	0.177717	48.6109	31.2792	16.5065