pySIMM System Object

2270 atoms
2437 bonds
4116 angles
6130 dihedrals
756 impropers

9 atom types
10 bond types
17 angle types
7 dihedral types
2 improper types

-196.041874 196.041874 xlo xhi
-196.041874 196.041874 ylo yhi
-196.041874 196.041874 zlo zhi

Masses

   1	1.008	# ha
   2	12.01	# ca
   3	32.06	# sy
   4	16.0	# oh
   5	16.0	# o
   6	16.0	# os
   7	12.01	# c3
   8	1.008	# ho
   9	1.008	# hc

Pair Coeffs

   1	0.015	2.59964245953351	# ha
   2	0.086	3.3996695084235347	# ca
   3	0.25	3.563594872561357	# sy
   4	0.2104	3.0664733878390478	# oh
   5	0.21	2.959921901149463	# o
   6	0.17	3.0000123434657784	# os
   7	0.1094	3.3996695084235347	# c3
   8	0.0	0.0	# ho
   9	0.0157	2.649532787749369	# hc

Bond Coeffs

   1	371.4	0.973	# ho,oh
   2	243.4	1.7909	# ca,sy
   3	461.1	1.3984	# ca,ca
   4	300.9	1.5375	# c3,c3
   5	330.6	1.0969	# c3,hc
   6	493.0	1.466	# o,sy
   7	345.8	1.086	# ca,ha
   8	321.0	1.5156	# c3,ca
   9	376.6	1.3696	# ca,os
  10	384.0	1.3637	# ca,oh

Angle Coeffs

   1	61.48	119.42	# ca,ca,sy
   2	72.54	121.41	# o,sy,o
   3	69.58	119.2	# ca,ca,os
   4	60.3	104.44	# ca,sy,ca
   5	46.34	109.8	# c3,c3,hc
   6	49.0	108.58	# ca,oh,ho
   7	65.77	108.35	# ca,sy,o
   8	63.48	119.89	# ca,os,ca
   9	69.52	119.9	# ca,ca,oh
  10	63.56	112.24	# ca,c3,ca
  11	62.86	111.51	# c3,c3,c3
  12	39.4	107.58	# hc,c3,hc
  13	66.62	120.02	# ca,ca,ca
  14	48.18	119.88	# ca,ca,ha
  15	63.15	112.07	# c3,c3,ca
  16	63.53	120.77	# c3,ca,ca
  17	63.5	119.89	# ca,oh,ca

Dihedral Coeffs

   1	1	0.9	2	180	# X,ca,oh,X
   2	1	1.3	2	180	# X,ca,sy,X
   3	1	0.16	3	0	# hc,c3,c3,c3
   4	1	3.625	2	180	# X,ca,ca,X
   5	1	0.0	2	0	# X,c3,ca,X
   6	1	0.15555555555555556	3	0	# X,c3,c3,X
   7	1	0.9	2	180	# X,ca,os,X

Improper Coeffs

   1	1.1	-1	2	# ca,X,X,ha
   2	1.1	-1	2	# ca,ca,ca,c3

Atoms

   1	1	1	0.144011	103.255	-19.3868	21.8528
   2	1	2	-0.407424	102.243	-19.7759	21.7592
   3	1	2	0.096878	101.825	-20.3476	20.5449
   4	1	1	0.131719	102.521	-20.3994	19.7116
   5	1	2	0.007579	100.525	-20.8792	20.415
   6	1	3	0.947259	100.065	-21.6615	18.8412
   7	1	2	-0.433296	99.6484	-20.8434	21.524
   8	1	1	0.195208	98.6561	-21.2853	21.4374
   9	1	2	0.002203	100.08	-20.2892	22.7475
  10	1	1	0.245959	99.4224	-20.2816	23.6114
  11	1	2	0.108341	101.379	-19.7587	22.8643
  12	1	4	-0.012027	101.822	-19.2735	24.0614
  13	1	5	-0.530873	101.265	-21.6605	17.9981
  14	1	5	-0.5745	99.3331	-22.9055	19.1166
  15	1	1	0.177717	100.062	-18.7447	18.4347
  16	1	2	-0.13906	99.1477	-19.1432	18.0009
  17	1	2	-0.172291	98.2377	-18.2765	17.3665
  18	1	1	0.137587	98.4399	-17.2112	17.3167
  19	1	2	0.27179	97.0633	-18.7787	16.7834
  20	1	6	-0.297458	96.2041	-17.8974	16.1603
  21	1	1	0.184682	97.5212	-22.1047	17.4719
  22	1	2	-0.177057	97.7125	-21.0319	17.4575
  23	1	2	-0.065252	98.8825	-20.5264	18.0617
  24	1	1	0.164016	94.6934	-17.1978	14.1421
  25	1	1	0.144303	92.2353	-17.4575	13.9892
  26	1	2	-0.207027	94.1396	-17.6204	14.9755
  27	1	2	-0.150602	92.7427	-17.7755	14.8953
  28	1	2	0.201726	94.834	-18.0332	16.1197
  29	1	2	0.015223	92.0095	-18.3617	15.9537
  30	1	7	0.123165	90.489	-18.6424	15.7925
  31	1	2	-0.193552	94.1147	-18.545	17.2102
  32	1	2	-0.163782	92.7209	-18.7117	17.1274
  33	1	1	0.167708	94.6409	-18.829	18.1167
  34	1	1	0.146296	92.211	-19.1336	17.9865
  35	1	2	-0.183938	96.8116	-20.1631	16.8141
  36	1	1	0.154545	95.9265	-20.5639	16.3289
  37	1	7	-0.193999	89.9782	-19.6678	16.8417
  38	1	7	-0.196778	90.2725	-19.3123	14.4017
  39	1	9	0.051577	88.9356	-19.9488	16.6467
  40	1	9	0.039353	90.0093	-19.2494	17.8555
  41	1	9	0.072794	90.5794	-20.5863	16.8225
  42	1	9	0.05895	91.0174	-20.1011	14.2328
  43	1	9	0.044008	90.3572	-18.5861	13.5842
  44	1	9	0.064391	89.2867	-19.7852	14.3173
  45	1	1	0.130931	87.9081	-18.1655	14.8831
  46	1	2	-0.035623	88.3132	-17.3208	15.4314
  47	1	2	-0.458756	87.4943	-16.195	15.6263
  48	1	1	0.207809	86.4912	-16.1784	15.2101
  49	1	2	0.31527	87.9528	-15.0917	16.3551
  50	1	2	-0.466224	89.2543	-15.1273	16.8837
  51	1	1	0.20556	89.6365	-14.2711	17.4335
  52	1	2	-0.031899	90.0831	-16.2503	16.685
  53	1	1	0.127567	91.0815	-16.248	17.1154
  54	1	2	0.005289	89.6277	-17.3668	15.9481
  55	1	1	0.144011	86.9358	-11.3916	16.4518
  56	1	2	-0.407424	86.9706	-11.8141	17.4525
  57	1	2	0.096878	86.9473	-10.9612	18.5723
  58	1	1	0.131719	86.9073	-9.88329	18.4293
  59	1	2	0.007579	87.005	-11.493	19.8735
  60	1	3	0.947259	87.0888	-10.3356	21.2709
  61	1	2	-0.433296	87.0767	-12.8975	20.0484
  62	1	1	0.195208	87.1495	-13.3108	21.0536
  63	1	2	0.002203	87.1166	-13.7472	18.924
  64	1	1	0.245959	87.1936	-14.8252	19.0535
  65	1	2	0.108341	87.0803	-13.2054	17.6228
  66	1	4	-0.012027	87.1244	-14.0072	16.5101
  67	1	5	-0.530873	87.6875	-11.0707	22.3915
  68	1	5	-0.5745	87.6483	-9.06782	20.7847
  69	1	1	0.177717	85.4288	-7.91299	21.221
  70	1	2	-0.13906	84.8241	-8.71948	21.6338
  71	1	2	-0.172291	83.5207	-8.45226	22.0926
  72	1	1	0.137587	83.1108	-7.44902	22.0235
  73	1	2	0.27179	82.7509	-9.47167	22.6734
  74	1	6	-0.297458	81.488	-9.17016	23.1357
  75	1	1	0.184682	85.0006	-12.0439	22.4162
  76	1	2	-0.177057	84.5818	-11.0451	22.3084
  77	1	2	-0.065252	85.3659	-10.0173	21.746
  78	1	1	0.164016	82.703	-9.74595	25.4459
  79	1	1	0.144303	81.6581	-10.8466	27.3775
  80	1	2	-0.207027	81.6517	-10.0168	25.4034
  81	1	2	-0.150602	81.0434	-10.6423	26.507
  82	1	2	0.201726	80.9092	-9.7498	24.2422
  83	1	2	0.015223	79.6745	-11.0031	26.4759
  84	1	7	0.123165	78.9756	-11.7542	27.6372
  85	1	2	-0.193552	79.544	-10.0609	24.2128
  86	1	2	-0.163782	78.932	-10.68	25.3184
  87	1	1	0.167708	78.9671	-9.8328	23.3216
  88	1	1	0.146296	77.874	-10.9239	25.2702
  89	1	2	-0.183938	83.2763	-10.7746	22.7606
  90	1	1	0.154545	82.6771	-11.5692	23.1951
  91	1	7	-0.193999	79.9383	-12.0843	28.8097
  92	1	7	-0.196778	78.487	-13.1179	27.0707
  93	1	9	0.051577	79.4126	-12.6305	29.6037
  94	1	9	0.039353	80.3444	-11.1695	29.2601
  95	1	9	0.072794	80.7755	-12.7109	28.4764
  96	1	9	0.05895	79.2989	-13.6219	26.5301
  97	1	9	0.044008	77.6513	-12.9884	26.3721
  98	1	9	0.064391	78.1606	-13.7988	27.8664
  99	1	1	0.130931	78.8855	-9.02744	28.015
 100	1	2	-0.035623	77.9807	-9.51365	28.3727
 101	1	2	-0.458756	76.9957	-8.73914	29.0115
 102	1	1	0.207809	77.147	-7.67073	29.1339
 103	1	2	0.31527	75.8378	-9.33129	29.5318
 104	1	2	-0.466224	75.6709	-10.7195	29.3928
 105	1	1	0.20556	74.8051	-11.2097	29.83
 106	1	2	-0.031899	76.6524	-11.4996	28.753
 107	1	1	0.127567	76.5059	-12.5742	28.7047
 108	1	2	0.005289	77.8259	-10.9089	28.2307
 109	1	1	0.144011	73.6886	-8.27611	32.5043
 110	1	2	-0.407424	73.0607	-8.62266	31.6876
 111	1	2	0.096878	71.6973	-8.88489	31.9179
 112	1	1	0.131719	71.2827	-8.74926	32.9146
 113	1	2	0.007579	70.8717	-9.33231	30.8703
 114	1	3	0.947259	69.133	-9.69501	31.2421
 115	1	2	-0.433296	71.4255	-9.52521	29.581
 116	1	1	0.195208	70.7922	-9.89175	28.774
 117	1	2	0.002203	72.7938	-9.27182	29.357
 118	1	1	0.245959	73.2254	-9.42216	28.3694
 119	1	2	0.108341	73.616	-8.8278	30.4123
 120	1	4	-0.012027	74.9435	-8.5436	30.2151
 121	1	5	-0.530873	68.6202	-10.5814	30.1896
 122	1	5	-0.5745	69.0649	-10.0453	32.6664
 123	1	1	0.177717	67.7269	-8.4377	28.9974
 124	1	2	-0.13906	67.6645	-7.75746	29.8453
 125	1	2	-0.172291	66.9218	-6.56661	29.7371
 126	1	1	0.137587	66.4147	-6.31757	28.8098
 127	1	2	0.27179	66.7894	-5.71585	30.845
 128	1	6	-0.297458	65.9845	-4.60435	30.7563
 129	1	1	0.184682	68.6231	-7.49605	33.1209
 130	1	2	-0.177057	68.1716	-7.22638	32.1673
 131	1	2	-0.065252	68.2855	-8.0996	31.0648
 132	1	1	0.164016	64.6011	-6.49882	32.0693
 133	1	1	0.144303	62.6772	-6.10235	33.5315
 134	1	2	-0.207027	64.2406	-5.48336	32.2041
 135	1	2	-0.150602	63.1281	-5.25265	33.0299
 136	1	2	0.201726	64.8844	-4.41064	31.5644
 137	1	2	0.015223	62.6174	-3.94921	33.2225
 138	1	7	0.123165	61.4276	-3.70224	34.1805
 139	1	2	-0.193552	64.3932	-3.11076	31.7483
 140	1	2	-0.163782	63.2791	-2.87823	32.578
 141	1	1	0.167708	64.8903	-2.28178	31.2536
 142	1	1	0.146296	62.9397	-1.85569	32.7227
 143	1	2	-0.183938	67.4292	-6.03645	32.0541
 144	1	1	0.154545	67.3156	-5.37642	32.9093
 145	1	7	-0.193999	62.0081	-3.68679	35.6203
 146	1	7	-0.196778	60.3894	-4.85841	34.121
 147	1	9	0.051577	62.546	-4.61892	35.8356
 148	1	9	0.039353	61.216	-3.58615	36.3735
 149	1	9	0.072794	62.7209	-2.86198	35.7477
 150	1	9	0.05895	60.7751	-5.78449	34.5636
 151	1	9	0.044008	60.0929	-5.07494	33.087
 152	1	9	0.064391	59.483	-4.59123	34.6798
 153	1	1	0.130931	60.2685	-3.03651	31.7898
 154	1	2	-0.035623	60.1134	-2.25619	32.5316
 155	1	2	-0.458756	59.3609	-1.11718	32.189
 156	1	1	0.207809	58.9399	-1.02736	31.1923
 157	1	2	0.31527	59.1231	-0.105862	33.1299
 158	1	2	-0.466224	59.6857	-0.235151	34.4111
 159	1	1	0.20556	59.5219	0.537574	35.157
 160	1	2	-0.031899	60.4383	-1.36913	34.7588
 161	1	1	0.127567	60.8291	-1.42983	35.7695
 162	1	2	0.005289	60.6609	-2.40555	33.8245
 163	1	1	0.144011	56.5063	0.183857	34.4864
 164	1	2	-0.407424	56.7782	1.23346	34.5669
 165	1	2	0.096878	56.2067	2.0283	35.5771
 166	1	1	0.131719	55.4935	1.5858	36.2691
 167	1	2	0.007579	56.5833	3.37714	35.7182
 168	1	3	0.947259	55.8921	4.33059	37.0976
 169	1	2	-0.433296	57.5194	3.93838	34.8159
 170	1	1	0.195208	57.8249	4.97676	34.9372
 171	1	2	0.002203	58.0911	3.13808	33.8075
 172	1	1	0.245959	58.8386	3.55155	33.1344
 173	1	2	0.108341	57.7374	1.78139	33.6951
 174	1	4	-0.012027	58.37	0.987824	32.7739
 175	1	5	-0.530873	55.3003	3.38126	38.0487
 176	1	5	-0.5745	56.9007	5.31999	37.497
 177	1	1	0.177717	55.7837	6.93796	35.7843
 178	1	2	-0.13906	54.7798	6.51705	35.758
 179	1	2	-0.172291	53.7258	7.24524	35.1784
 180	1	1	0.137587	53.9068	8.22418	34.7451
 181	1	2	0.27179	52.4254	6.71984	35.179
 182	1	6	-0.297458	51.4052	7.45119	34.6245
 183	1	1	0.184682	53.0339	3.74934	36.7667
 184	1	2	-0.177057	53.2301	4.72042	36.3143
 185	1	2	-0.065252	54.5368	5.25074	36.3276
 186	1	1	0.164016	51.1296	8.13436	37.1887
 187	1	1	0.144303	48.9757	8.59073	38.3243
 188	1	2	-0.207027	50.1983	8.04204	36.6372
 189	1	2	-0.150602	48.9726	8.29916	37.2771
 190	1	2	0.201726	50.2214	7.6836	35.2806
 191	1	2	0.015223	47.7487	8.19113	36.5799
 192	1	7	0.123165	46.4256	8.48185	37.3295
 193	1	2	-0.193552	49.0201	7.58835	34.5694
 194	1	2	-0.163782	47.7927	7.8308	35.2114
 195	1	1	0.167708	49.0471	7.32008	33.5175
 196	1	1	0.146296	46.8854	7.73789	34.6243
 197	1	2	-0.183938	52.1774	5.45569	35.7404
 198	1	1	0.154545	51.1687	5.05326	35.7327
 199	1	7	-0.193999	46.314	7.45957	38.4961
 200	1	7	-0.196778	45.1688	8.27245	36.4426
 201	1	9	0.051577	45.3246	7.48824	38.9695
 202	1	9	0.039353	47.0654	7.6477	39.2729
 203	1	9	0.072794	46.4658	6.43712	38.1268
 204	1	9	0.05895	45.1098	7.2414	36.0704
 205	1	9	0.044008	45.1697	8.95364	35.5821
 206	1	9	0.064391	44.2525	8.47114	37.0129
 207	1	1	0.130931	47.2721	10.7231	35.9793
 208	1	2	-0.035623	46.8666	10.9741	36.9571
 209	1	2	-0.458756	46.7988	12.3252	37.344
 210	1	1	0.207809	47.1562	13.1004	36.6715
 211	1	2	0.31527	46.2685	12.6836	38.5896
 212	1	2	-0.466224	45.7952	11.6786	39.4425
 213	1	1	0.20556	45.3756	11.9514	40.4069
 214	1	2	-0.031899	45.8585	10.326	39.0615
 215	1	1	0.127567	45.4678	9.579	39.7454
 216	1	2	0.005289	46.4014	9.95005	37.8114
 217	1	1	0.144011	45.9313	16.5696	39.4052
 218	1	2	-0.407424	45.0316	16.1162	38.9975
 219	1	2	0.096878	43.9072	16.9199	38.7254
 220	1	1	0.131719	43.9499	17.9902	38.9156
 221	1	2	0.007579	42.7416	16.3532	38.1782
 222	1	3	0.947259	41.3682	17.4536	37.7298
 223	1	2	-0.433296	42.7079	14.9645	37.9059
 224	1	1	0.195208	41.8212	14.5296	37.4458
 225	1	2	0.002203	43.839	14.1657	38.1639
 226	1	1	0.245959	43.8132	13.1053	37.9194
 227	1	2	0.108341	45.01	14.7394	38.7075
 228	1	4	-0.012027	46.1471	14.0015	38.9397
 229	1	5	-0.530873	41.9327	18.7723	37.4165
 230	1	5	-0.5745	40.5287	16.7192	36.7749
 231	1	1	0.177717	39.564	15.6367	39.1427
 232	1	2	-0.13906	39.5528	16.5847	39.6778
 233	1	2	-0.172291	38.6858	16.7667	40.7723
 234	1	1	0.137587	38.0367	15.9597	41.0987
 235	1	2	0.27179	38.6161	18.0102	41.4196
 236	1	6	-0.297458	37.7107	18.1941	42.4399
 237	1	1	0.184682	40.9314	19.7154	39.563
 238	1	2	-0.177057	40.3231	18.882	39.9123
 239	1	2	-0.065252	40.3713	17.6441	39.2356
 240	1	1	0.164016	36.5708	19.1586	44.5845
 241	1	1	0.144303	34.8462	20.9471	44.6636
 242	1	2	-0.207027	36.2109	19.6069	43.6633
 243	1	2	-0.150602	35.2295	20.6164	43.7012
 244	1	2	0.201726	36.7467	19.1807	42.44
 245	1	2	0.015223	34.7512	21.211	42.5125
 246	1	7	0.123165	33.7313	22.3734	42.5911
 247	1	2	-0.193552	36.2725	19.7547	41.2481
 248	1	2	-0.163782	35.2924	20.763	41.2844
 249	1	1	0.167708	36.6649	19.4248	40.2906
 250	1	1	0.146296	34.9736	21.1965	40.3424
 251	1	2	-0.183938	39.4493	19.0617	41.0012
 252	1	1	0.154545	39.3927	20.0218	41.5059
 253	1	7	-0.193999	33.0347	22.6572	41.2322
 254	1	7	-0.196778	34.5426	23.6452	42.9588
 255	1	9	0.051577	32.562	21.7512	40.8321
 256	1	9	0.039353	33.7401	23.0393	40.4838
 257	1	9	0.072794	32.2494	23.4148	41.3522
 258	1	9	0.05895	34.9597	23.5701	43.9711
 259	1	9	0.044008	33.927	24.5519	42.902
 260	1	9	0.064391	35.3826	23.7803	42.2651
 261	1	1	0.130931	32.5891	24.0032	44.6022
 262	1	2	-0.035623	32.1298	23.0223	44.5298
 263	1	2	-0.458756	31.0401	22.7363	45.3716
 264	1	1	0.207809	30.6986	23.4858	46.0814
 265	1	2	0.31527	30.3907	21.494	45.3092
 266	1	2	-0.466224	30.8574	20.5344	44.4012
 267	1	1	0.20556	30.3646	19.568	44.346
 268	1	2	-0.031899	31.9453	20.8158	43.5529
 269	1	1	0.127567	32.2753	20.0627	42.8404
 270	1	2	0.005289	32.6002	22.0653	43.6011
 271	1	1	0.144011	28.0691	21.5681	48.4015
 272	1	2	-0.407424	27.7087	22.2052	47.5983
 273	1	2	0.096878	26.6947	23.1493	47.8542
 274	1	1	0.131719	26.2871	23.2446	48.8575
 275	1	2	0.007579	26.2262	23.9905	46.828
 276	1	3	0.947259	25.0064	25.272	47.243
 277	1	2	-0.433296	26.7844	23.8781	45.5316
 278	1	1	0.195208	26.4429	24.5465	44.7412
 279	1	2	0.002203	27.812	22.9471	45.2829
 280	1	1	0.245959	28.2588	22.8801	44.2924
 281	1	2	0.108341	28.286	22.1152	46.3186
 282	1	4	-0.012027	29.3037	21.2181	46.101
 283	1	5	-0.530873	25.4881	25.8949	48.4816
 284	1	5	-0.5745	24.7334	26.0559	46.0314
 285	1	1	0.177717	22.6373	24.4884	45.7053
 286	1	2	-0.13906	22.4795	24.1668	46.734
 287	1	2	-0.172291	21.2635	23.5602	47.1041
 288	1	1	0.137587	20.4902	23.3911	46.3605
 289	1	2	0.27179	21.0442	23.1774	48.4393
 290	1	6	-0.297458	19.8723	22.5744	48.8324
 291	1	1	0.184682	24.016	24.1963	49.7925
 292	1	2	-0.177057	23.2614	23.9961	49.0333
 293	1	2	-0.065252	23.4857	24.3898	47.6971
 294	1	1	0.164016	18.9705	25.0731	48.5148
 295	1	1	0.144303	16.6996	25.6892	47.7802
 296	1	2	-0.207027	18.2508	24.294	48.2823
 297	1	2	-0.150602	16.9479	24.6372	47.8742
 298	1	2	0.201726	18.6213	22.9449	48.3981
 299	1	2	0.015223	15.9874	23.6386	47.5843
 300	1	7	0.123165	14.5536	23.9942	47.1183
 301	1	2	-0.193552	17.6864	21.9456	48.1037
 302	1	2	-0.163782	16.3893	22.2867	47.6817
 303	1	1	0.167708	17.9761	20.9032	48.1985
 304	1	1	0.146296	15.6925	21.4879	47.4385
 305	1	2	-0.183938	22.0485	23.3832	49.3966
 306	1	1	0.154545	21.8706	23.0834	50.425
 307	1	7	-0.193999	14.6035	24.1364	45.5743
 308	1	7	-0.196778	14.071	25.3556	47.693
 309	1	9	0.051577	13.648	24.492	45.1683
 310	1	9	0.039353	14.85	23.1783	45.0988
 311	1	9	0.072794	15.3737	24.8594	45.276
 312	1	9	0.05895	14.618	26.201	47.258
 313	1	9	0.044008	14.1931	25.3917	48.7831
 314	1	9	0.064391	13.0077	25.5133	47.4717
 315	1	1	0.130931	14.2626	22.9702	49.632
 316	1	2	-0.035623	13.5286	22.5471	48.9518
 317	1	2	-0.458756	12.6024	21.6085	49.4367
 318	1	1	0.207809	12.6183	21.3154	50.4838
 319	1	2	0.31527	11.6452	21.0378	48.5901
 320	1	2	-0.466224	11.6458	21.4052	47.2332
 321	1	1	0.20556	10.9237	20.9594	46.5557
 322	1	2	-0.031899	12.5771	22.3381	46.7383
 323	1	1	0.127567	12.5413	22.5892	45.6828
 324	1	2	0.005289	13.5332	22.9315	47.5949
 325	1	1	0.144011	10.1598	18.4509	47.1507
 326	1	2	-0.407424	9.3094	18.9742	47.5796
 327	1	2	0.096878	8.00973	18.7057	47.1104
 328	1	1	0.131719	7.8671	17.9801	46.3123
 329	1	2	0.007579	6.89849	19.3615	47.675
 330	1	3	0.947259	5.24679	19.0044	47.0159
 331	1	2	-0.433296	7.09603	20.2877	48.7258
 332	1	1	0.195208	6.23829	20.7848	49.1781
 333	1	2	0.002203	8.39781	20.5488	49.1978
 334	1	1	0.245959	8.55859	21.2455	50.0191
 335	1	2	0.108341	9.50484	19.9021	48.619
 336	1	4	-0.012027	10.759	20.1321	49.117
 337	1	5	-0.530873	4.31466	18.7498	48.1212
 338	1	5	-0.5745	5.40862	18.0398	45.9221
 339	1	1	0.177717	6.63415	20.9049	45.2671
 340	1	2	-0.13906	5.63521	21.2942	45.4513
 341	1	2	-0.172291	5.24708	22.5205	44.8828
 342	1	1	0.137587	5.95453	23.0721	44.2712
 343	1	2	0.27179	3.953	23.0265	45.1123
 344	1	6	-0.297458	3.54051	24.2436	44.6226
 345	1	1	0.184682	2.73741	20.5125	47.093
 346	1	2	-0.177057	3.43833	21.0742	46.4765
 347	1	2	-0.065252	4.73818	20.5726	46.2642
 348	1	1	0.164016	2.97718	24.0785	42.0703
 349	1	1	0.144303	4.17668	25.2377	40.2452
 350	1	2	-0.207027	3.80261	24.7462	42.2991
 351	1	2	-0.150602	4.48444	25.4171	41.2694
 352	1	2	0.201726	4.19976	24.9185	43.6295
 353	1	2	0.015223	5.55428	26.295	41.5603
 354	1	7	0.123165	6.34563	27.021	40.4509
 355	1	2	-0.193552	5.27023	25.7681	43.9374
 356	1	2	-0.163782	5.94367	26.4497	42.91
 357	1	1	0.167708	5.58978	25.8861	44.9664
 358	1	1	0.146296	6.78157	27.0962	43.1649
 359	1	2	-0.183938	3.04865	22.2922	45.8928
 360	1	1	0.154545	2.04948	22.6813	46.0573
 361	1	7	-0.193999	5.55303	27.1363	39.1178
 362	1	7	-0.196778	7.59906	26.1561	40.152
 363	1	9	0.051577	5.40659	26.1582	38.6436
 364	1	9	0.039353	6.09739	27.7642	38.4007
 365	1	9	0.072794	4.5665	27.5909	39.2741
 366	1	9	0.05895	7.30688	25.1468	39.8346
 367	1	9	0.044008	8.22876	26.0469	41.0446
 368	1	9	0.064391	8.20527	26.5944	39.3491
 369	1	1	0.130931	8.86297	28.2749	40.8468
 370	1	2	-0.035623	8.01634	28.9236	41.0489
 371	1	2	-0.458756	8.27367	30.2369	41.48
 372	1	1	0.207809	9.29816	30.5702	41.6151
 373	1	2	0.31527	7.22031	31.1114	41.7733
 374	1	2	-0.466224	5.90167	30.6576	41.6504
 375	1	1	0.20556	5.07483	31.3171	41.9
 376	1	2	-0.031899	5.63733	29.3458	41.2211
 377	1	1	0.127567	4.60498	29.012	41.1452
 378	1	2	0.005289	6.68872	28.4575	40.9078
 379	1	1	0.144011	8.21721	34.6252	43.3832
 380	1	2	-0.407424	8.07801	33.8154	44.0945
 381	1	2	0.096878	8.30558	34.0392	45.4664
 382	1	1	0.131719	8.62098	35.0227	45.8063
 383	1	2	0.007579	8.13325	32.9965	46.396
 384	1	3	0.947259	8.41327	33.324	48.1551
 385	1	2	-0.433296	7.73842	31.7202	45.9395
 386	1	1	0.195208	7.6318	30.9008	46.6398
 387	1	2	0.002203	7.51384	31.4973	44.5703
 388	1	1	0.245959	7.21592	30.5062	44.2308
 389	1	2	0.108341	7.68355	32.5434	43.6388
 390	1	4	-0.012027	7.4778	32.3497	42.2943
 391	1	5	-0.530873	9.335	34.4611	48.2491
 392	1	5	-0.5745	8.68452	32.0443	48.8302
 393	1	1	0.177717	6.22092	32.0186	49.6129
 394	1	2	-0.13906	5.91115	33.0349	49.3883
 395	1	2	-0.172291	4.64398	33.4834	49.8013
 396	1	1	0.137587	3.96923	32.816	50.3291
 397	1	2	0.27179	4.25904	34.8099	49.5602
 398	1	6	-0.297458	3.04641	35.2593	50.0176
 399	1	1	0.184682	7.07553	35.9248	47.969
 400	1	2	-0.177057	6.39491	35.238	48.4694
 401	1	2	-0.065252	6.78947	33.9059	48.7102
 402	1	1	0.164016	4.47243	35.639	52.2188
 403	1	1	0.144303	4.35576	37.6032	53.6872
 404	1	2	-0.207027	3.79037	36.4487	51.9758
 405	1	2	-0.150602	3.71833	37.5774	52.8097
 406	1	2	0.201726	2.97599	36.3562	50.8381
 407	1	2	0.015223	2.82994	38.6391	52.519
 408	1	7	0.123165	2.68357	39.8772	53.4361
 409	1	2	-0.193552	2.08169	37.3899	50.5395
 410	1	2	-0.163782	2.01441	38.5229	51.3703
 411	1	1	0.167708	1.44718	37.3116	49.6613
 412	1	1	0.146296	1.30752	39.3092	51.1265
 413	1	2	-0.183938	5.13302	35.6874	48.8968
 414	1	1	0.154545	4.83028	36.7165	48.7243
 415	1	7	-0.193999	2.84393	41.1639	52.5738
 416	1	7	-0.196778	3.80051	39.9734	54.5142
 417	1	9	0.051577	2.82277	42.0665	53.1984
 418	1	9	0.039353	2.05429	41.2652	51.8207
 419	1	9	0.072794	3.80464	41.1534	52.0427
 420	1	9	0.05895	3.77415	39.129	55.2131
 421	1	9	0.044008	3.68347	40.8856	55.1135
 422	1	9	0.064391	4.79574	40.0041	54.052
 423	1	1	0.130931	1.77189	37.8443	55.0254
 424	1	2	-0.035623	1.04066	38.6461	54.9461
 425	1	2	-0.458756	-0.183973	38.5182	55.6238
 426	1	1	0.207809	-0.37857	37.6263	56.2137
 427	1	2	0.31527	-1.16477	39.5133	55.5299
 428	1	2	-0.466224	-0.901326	40.6421	54.7339
 429	1	1	0.20556	-1.65167	41.4187	54.6325
 430	1	2	-0.031899	0.328962	40.7843	54.0668
 431	1	1	0.127567	0.491831	41.6794	53.4754
 432	1	2	0.005289	1.32229	39.7838	54.1598
 433	1	1	0.144011	-1.61002	41.6807	57.2309
 434	1	2	-0.407424	-2.68421	41.5279	57.1553
 435	1	2	0.096878	-3.55815	42.545	57.5795
 436	1	1	0.131719	-3.146	43.4749	57.9659
 437	1	2	0.007579	-4.95252	42.3674	57.4973
 438	1	3	0.947259	-6.03249	43.7216	58.0448
 439	1	2	-0.433296	-5.4685	41.1469	56.9993
 440	1	1	0.195208	-6.54727	41.0028	56.9343
 441	1	2	0.002203	-4.58764	40.1347	56.5677
 442	1	1	0.245959	-4.9788	39.1994	56.1737
 443	1	2	0.108341	-3.19446	40.3284	56.6208
 444	1	4	-0.012027	-2.36483	39.3277	56.1756
 445	1	5	-0.530873	-5.1776	44.8385	58.4606
 446	1	5	-0.5745	-7.09717	43.9366	57.0574
 447	1	1	0.177717	-8.65764	44.2523	59.1822
 448	1	2	-0.13906	-8.1523	43.5601	59.8548
 449	1	2	-0.172291	-8.7939	43.117	61.0258
 450	1	1	0.137587	-9.80143	43.4504	61.2602
 451	1	2	0.27179	-8.13516	42.2249	61.8885
 452	1	6	-0.297458	-8.74879	41.7574	63.0234
 453	1	1	0.184682	-5.18871	41.872	60.1932
 454	1	2	-0.177057	-6.19537	42.2201	60.4164
 455	1	2	-0.065252	-6.85101	43.1134	59.5432
 456	1	1	0.164016	-7.96109	44.2752	63.584
 457	1	1	0.144303	-8.79346	45.6324	65.4806
 458	1	2	-0.207027	-8.70519	43.859	64.2559
 459	1	2	-0.150602	-9.17541	44.625	65.3381
 460	1	2	0.201726	-9.18883	42.5552	64.0535
 461	1	2	0.015223	-10.1263	44.1059	66.2452
 462	1	7	0.123165	-10.6449	45.0037	67.3969
 463	1	2	-0.193552	-10.1204	42.0217	64.9517
 464	1	2	-0.163782	-10.5898	42.786	66.0338
 465	1	1	0.167708	-10.4842	41.0089	64.8035
 466	1	1	0.146296	-11.3227	42.3319	66.6931
 467	1	2	-0.183938	-6.84483	41.771	61.5798
 468	1	1	0.154545	-6.35129	41.0744	62.2512
 469	1	7	-0.193999	-11.6294	44.2609	68.3399
 470	1	7	-0.196778	-11.4363	46.1643	66.7297
 471	1	9	0.051577	-12.5146	43.904	67.7976
 472	1	9	0.039353	-11.9862	44.9216	69.1402
 473	1	9	0.072794	-11.1419	43.4018	68.8187
 474	1	9	0.05895	-11.9986	46.7562	67.4612
 475	1	9	0.044008	-12.1687	45.7686	66.0141
 476	1	9	0.064391	-10.7676	46.8457	66.1889
 477	1	1	0.130931	-10.6949	47.1111	69.1906
 478	1	2	-0.035623	-9.71407	46.6488	69.1338
 479	1	2	-0.458756	-8.68512	47.1524	69.9474
 480	1	1	0.207809	-8.89477	47.9834	70.6154
 481	1	2	0.31527	-7.40702	46.5695	69.932
 482	1	2	-0.466224	-7.19121	45.4529	69.1141
 483	1	1	0.20556	-6.2182	44.9702	69.1239
 484	1	2	-0.031899	-8.22154	44.9355	68.308
 485	1	1	0.127567	-8.01992	44.0478	67.7137
 486	1	2	0.005289	-9.49411	45.5497	68.2752
 487	1	1	0.144011	-6.13725	47.4676	73.3087
 488	1	2	-0.407424	-6.23839	48.3663	72.7058
 489	1	2	0.096878	-6.25317	49.6286	73.3277
 490	1	1	0.131719	-6.16174	49.7017	74.4091
 491	1	2	0.007579	-6.40703	50.7963	72.5596
 492	1	3	0.947259	-6.50563	52.3819	73.4287
 493	1	2	-0.433296	-6.51352	50.6981	71.1531
 494	1	1	0.195208	-6.61406	51.6057	70.5592
 495	1	2	0.002203	-6.48311	49.4357	70.5312
 496	1	1	0.245959	-6.5643	49.3565	69.4488
 497	1	2	0.108341	-6.36783	48.2667	71.3093
 498	1	4	-0.012027	-6.38226	47.0281	70.7234
 499	1	5	-0.530873	-5.41944	52.4212	74.4147
 500	1	5	-0.5745	-6.69716	53.4398	72.4291
 501	1	1	0.177717	-9.30559	52.3994	72.5994
 502	1	2	-0.13906	-9.28619	52.2362	73.6767
 503	1	2	-0.172291	-10.4875	52.0533	74.3872
 504	1	1	0.137587	-11.4389	52.069	73.8638
 505	1	2	0.27179	-10.4582	51.8332	75.7762
 506	1	6	-0.297458	-11.6114	51.6151	76.49
 507	1	1	0.184682	-7.07767	51.9508	76.2797
 508	1	2	-0.177057	-8.0281	51.9751	75.7477
 509	1	2	-0.065252	-8.05095	52.1972	74.355
 510	1	1	0.164016	-14.0209	50.6651	76.7448
 511	1	1	0.144303	-16.1287	51.9359	76.5601
 512	1	2	-0.207027	-13.9946	51.7283	76.5245
 513	1	2	-0.150602	-15.19	52.4611	76.4169
 514	1	2	0.201726	-12.7571	52.3604	76.3526
 515	1	2	0.015223	-15.1645	53.8477	76.1399
 516	1	7	0.123165	-16.4495	54.6975	76.0077
 517	1	2	-0.193552	-12.7124	53.7406	76.1005
 518	1	2	-0.163782	-13.9064	54.4757	75.9985
 519	1	1	0.167708	-11.755	54.2435	75.9991
 520	1	1	0.146296	-13.8541	55.5447	75.8075
 521	1	2	-0.183938	-9.23047	51.7885	76.4518
 522	1	1	0.154545	-9.21938	51.6118	77.5235
 523	1	7	-0.193999	-16.5927	55.5148	77.32
 524	1	7	-0.196778	-17.7363	53.8418	75.8607
 525	1	9	0.051577	-15.7694	56.2311	77.4353
 526	1	9	0.039353	-16.5754	54.8486	78.1924
 527	1	9	0.072794	-17.5404	56.0668	77.3523
 528	1	9	0.05895	-18.609	54.484	75.6847
 529	1	9	0.044008	-17.9397	53.2576	76.7672
 530	1	9	0.064391	-17.6595	53.1496	75.0127
 531	1	1	0.130931	-15.678	53.94	73.4987
 532	1	2	-0.035623	-15.9228	54.9995	73.5327
 533	1	2	-0.458756	-15.7931	55.7723	72.3666
 534	1	1	0.207809	-15.4503	55.31	71.4447
 535	1	2	0.31527	-16.1102	57.1371	72.379
 536	1	2	-0.466224	-16.5503	57.7241	73.5713
 537	1	1	0.20556	-16.7982	58.7815	73.5852
 538	1	2	-0.031899	-16.675	56.958	74.7446
 539	1	1	0.127567	-17.0246	57.4492	75.6475
 540	1	2	0.005289	-16.3488	55.5826	74.7456
 541	1	1	0.144011	-15.5321	57.9947	68.6562
 542	1	2	-0.407424	-14.6288	58.055	69.2575
 543	1	2	0.096878	-13.3725	58.1438	68.628
 544	1	1	0.131719	-13.314	58.1495	67.5418
 545	1	2	0.007579	-12.1952	58.21	69.3966
 546	1	3	0.947259	-10.5939	58.2142	68.5481
 547	1	2	-0.433296	-12.2822	58.2085	70.8089
 548	1	1	0.195208	-11.3723	58.2759	71.4037
 549	1	2	0.002203	-13.5387	58.1155	71.4348
 550	1	1	0.245959	-13.6066	58.107	72.5211
 551	1	2	0.108341	-14.7135	58.0243	70.6604
 552	1	4	-0.012027	-15.9407	57.9027	71.2578
 553	1	5	-0.530873	-10.8314	58.4292	67.1148
 554	1	5	-0.5745	-9.67694	59.0482	69.3345
 555	1	1	0.177717	-9.19409	56.8589	70.7288
 556	1	2	-0.13906	-9.44197	56.1082	69.9802
 557	1	2	-0.172291	-9.11884	54.7592	70.207
 558	1	1	0.137587	-8.62028	54.4651	71.1253
 559	1	2	0.27179	-9.42483	53.7898	69.2415
 560	1	6	-0.297458	-9.12166	52.4729	69.4895
 561	1	1	0.184682	-10.8792	55.8093	66.8881
 562	1	2	-0.177057	-10.3872	55.5166	67.8146
 563	1	2	-0.065252	-10.0875	56.4922	68.7877
 564	1	1	0.164016	-7.08968	53.1184	67.9076
 565	1	1	0.144303	-6.08266	51.6656	66.1988
 566	1	2	-0.207027	-7.4776	52.1134	67.7601
 567	1	2	-0.150602	-6.90396	51.2731	66.7904
 568	1	2	0.201726	-8.55192	51.6624	68.541
 569	1	2	0.015223	-7.3954	49.9622	66.587
 570	1	7	0.123165	-6.83808	49.0143	65.4972
 571	1	2	-0.193552	-9.03572	50.3609	68.3697
 572	1	2	-0.163782	-8.46471	49.5202	67.3987
 573	1	1	0.167708	-9.86075	50.0148	68.985
 574	1	1	0.146296	-8.86973	48.5217	67.2602
 575	1	2	-0.183938	-10.0553	54.169	68.0426
 576	1	1	0.154545	-10.2935	53.4161	67.2975
 577	1	7	-0.193999	-6.28369	47.7583	66.2272
 578	1	7	-0.196778	-5.66054	49.6345	64.6991
 579	1	9	0.051577	-7.09196	47.154	66.6554
 580	1	9	0.039353	-5.61569	48.0517	67.0475
 581	1	9	0.072794	-5.70375	47.1133	65.5566
 582	1	9	0.05895	-5.27503	48.9282	63.9527
 583	1	9	0.044008	-4.82553	49.9018	65.3595
 584	1	9	0.064391	-5.98115	50.5345	64.1587
 585	1	1	0.130931	-6.93148	46.8748	63.7199
 586	1	2	-0.035623	-7.81752	47.5	63.6582
 587	1	2	-0.458756	-8.82756	47.1558	62.7414
 588	1	1	0.207809	-8.71268	46.2786	62.1101
 589	1	2	0.31527	-9.97481	47.9531	62.6128
 590	1	2	-0.466224	-10.0879	49.1105	63.3894
 591	1	1	0.20556	-10.9624	49.7456	63.2768
 592	1	2	-0.031899	-9.07866	49.4639	64.3003
 593	1	1	0.127567	-9.19364	50.385	64.8664
 594	1	2	0.005289	-7.94186	48.6424	64.48
 595	1	1	0.144011	-12.5243	46.6722	59.8533
 596	1	2	-0.407424	-12.4477	46.0241	60.7226
 597	1	2	0.096878	-13.1472	44.8028	60.7481
 598	1	1	0.131719	-13.7574	44.5102	59.8965
 599	1	2	0.007579	-13.0494	43.9507	61.8626
 600	1	3	0.947259	-13.8846	42.3463	61.7928
 601	1	2	-0.433296	-12.264	44.3403	62.9709
 602	1	1	0.195208	-12.1972	43.6892	63.8415
 603	1	2	0.002203	-11.583	45.5701	62.9498
 604	1	1	0.245959	-10.9954	45.8703	63.812
 605	1	2	0.108341	-11.6533	46.4085	61.817
 606	1	4	-0.012027	-10.988	47.6085	61.7588
 607	1	5	-0.530873	-13.848	41.7499	63.1344
 608	1	5	-0.5745	-15.1254	42.5204	61.0268
 609	1	1	0.177717	-11.399	40.9228	62.3722
 610	1	2	-0.13906	-11.5701	40.8596	61.2993
 611	1	2	-0.172291	-10.6248	40.2276	60.4714
 612	1	1	0.137587	-9.72053	39.8023	60.8963
 613	1	2	0.27179	-10.8276	40.1731	59.0847
 614	1	6	-0.297458	-9.86412	39.6019	58.2865
 615	1	1	0.184682	-13.8526	41.7717	58.9164
 616	1	2	-0.177057	-12.9494	41.3455	59.352
 617	1	2	-0.065252	-12.73	41.4327	60.7413
 618	1	1	0.164016	-9.58594	42.1801	57.6692
 619	1	1	0.144303	-9.09403	43.0761	55.4446
 620	1	2	-0.207027	-9.44009	41.4926	56.8418
 621	1	2	-0.150602	-9.16048	41.9982	55.562
 622	1	2	0.201726	-9.53768	40.1088	57.052
 623	1	2	0.015223	-8.96115	41.1268	54.4676
 624	1	7	0.123165	-8.66424	41.6361	53.0391
 625	1	2	-0.193552	-9.30701	39.2302	55.9871
 626	1	2	-0.163782	-9.01805	39.7349	54.7063
 627	1	1	0.167708	-9.37607	38.1598	56.157
 628	1	1	0.146296	-8.84916	39.0389	53.8892
 629	1	2	-0.183938	-12.0023	40.7131	58.5286
 630	1	1	0.154545	-12.1714	40.6517	57.4574
 631	1	7	-0.193999	-8.6442	43.1847	52.9242
 632	1	7	-0.196778	-9.81218	41.1482	52.1104
 633	1	9	0.051577	-8.42345	43.4942	51.8945
 634	1	9	0.039353	-7.87454	43.6287	53.5685
 635	1	9	0.072794	-9.61397	43.6178	53.2005
 636	1	9	0.05895	-9.70919	41.5546	51.0962
 637	1	9	0.044008	-10.7853	41.4774	52.4974
 638	1	9	0.064391	-9.84108	40.0544	52.0366
 639	1	1	0.130931	-6.33049	41.8914	54.415
 640	1	2	-0.035623	-6.17971	41.3521	53.4814
 641	1	2	-0.458756	-4.89302	40.9002	53.1461
 642	1	1	0.207809	-4.05947	41.0929	53.8154
 643	1	2	0.31527	-4.6727	40.2318	51.9359
 644	1	2	-0.466224	-5.74827	39.9995	51.0714
 645	1	1	0.20556	-5.57736	39.4787	50.1335
 646	1	2	-0.031899	-7.03891	40.4474	51.4015
 647	1	1	0.127567	-7.84579	40.264	50.6985
 648	1	2	0.005289	-7.27371	41.1236	52.6198
 649	1	1	0.144011	-0.952053	39.0085	51.4229
 650	1	2	-0.407424	-1.55097	38.3543	52.0468
 651	1	2	0.096878	-0.961311	37.2431	52.6725
 652	1	1	0.131719	0.0958369	37.0406	52.5335
 653	1	2	0.007579	-1.72705	36.3951	53.4891
 654	1	3	0.947259	-0.905759	34.9545	54.2147
 655	1	2	-0.433296	-3.10002	36.6709	53.6919
 656	1	1	0.195208	-3.69167	36.0104	54.3248
 657	1	2	0.002203	-3.6849	37.7935	53.0751
 658	1	1	0.245959	-4.74236	38.0007	53.2248
 659	1	2	0.108341	-2.90815	38.642	52.2544
 660	1	4	-0.012027	-3.4362	39.7431	51.6315
 661	1	5	-0.530873	0.488344	35.3344	54.4766
 662	1	5	-0.5745	-1.77495	34.3923	55.257