pySIMM System Object

2540 atoms
2727 bonds
4606 angles
6860 dihedrals
846 impropers

9 atom types
10 bond types
17 angle types
7 dihedral types
2 improper types

-203.707415 203.707415 xlo xhi
-203.707415 203.707415 ylo yhi
-203.707415 203.707415 zlo zhi

Masses

   1	1.008	# ha
   2	12.01	# ca
   3	32.06	# sy
   4	16.0	# oh
   5	16.0	# o
   6	16.0	# os
   7	12.01	# c3
   8	1.008	# ho
   9	1.008	# hc

Pair Coeffs

   1	0.015	2.59964245953351	# ha
   2	0.086	3.3996695084235347	# ca
   3	0.25	3.563594872561357	# sy
   4	0.2104	3.0664733878390478	# oh
   5	0.21	2.959921901149463	# o
   6	0.17	3.0000123434657784	# os
   7	0.1094	3.3996695084235347	# c3
   8	0.0	0.0	# ho
   9	0.0157	2.649532787749369	# hc

Bond Coeffs

   1	371.4	0.973	# ho,oh
   2	243.4	1.7909	# ca,sy
   3	461.1	1.3984	# ca,ca
   4	300.9	1.5375	# c3,c3
   5	330.6	1.0969	# c3,hc
   6	493.0	1.466	# o,sy
   7	345.8	1.086	# ca,ha
   8	321.0	1.5156	# c3,ca
   9	376.6	1.3696	# ca,os
  10	384.0	1.3637	# ca,oh

Angle Coeffs

   1	61.48	119.42	# ca,ca,sy
   2	72.54	121.41	# o,sy,o
   3	69.58	119.2	# ca,ca,os
   4	60.3	104.44	# ca,sy,ca
   5	46.34	109.8	# c3,c3,hc
   6	49.0	108.58	# ca,oh,ho
   7	65.77	108.35	# ca,sy,o
   8	63.48	119.89	# ca,os,ca
   9	69.52	119.9	# ca,ca,oh
  10	63.56	112.24	# ca,c3,ca
  11	62.86	111.51	# c3,c3,c3
  12	39.4	107.58	# hc,c3,hc
  13	66.62	120.02	# ca,ca,ca
  14	48.18	119.88	# ca,ca,ha
  15	63.15	112.07	# c3,c3,ca
  16	63.53	120.77	# c3,ca,ca
  17	63.5	119.89	# ca,oh,ca

Dihedral Coeffs

   1	1	0.9	2	180	# X,ca,oh,X
   2	1	1.3	2	180	# X,ca,sy,X
   3	1	0.16	3	0	# hc,c3,c3,c3
   4	1	3.625	2	180	# X,ca,ca,X
   5	1	0.0	2	0	# X,c3,ca,X
   6	1	0.15555555555555556	3	0	# X,c3,c3,X
   7	1	0.9	2	180	# X,ca,os,X

Improper Coeffs

   1	1.1	-1	2	# ca,X,X,ha
   2	1.1	-1	2	# ca,ca,ca,c3

Atoms

   1	1	1	0.144011	49.4876	-93.5497	23.7468
   2	1	2	-0.407424	48.8839	-93.8515	24.5987
   3	1	2	0.096878	48.1036	-95.0221	24.5297
   4	1	1	0.131719	48.1087	-95.623	23.623
   5	1	2	0.007579	47.3132	-95.4156	25.6262
   6	1	3	0.947259	46.2997	-96.9113	25.4715
   7	1	2	-0.433296	47.3193	-94.635	26.8071
   8	1	1	0.195208	46.7221	-94.951	27.662
   9	1	2	0.002203	48.1087	-93.4712	26.8762
  10	1	1	0.245959	48.1252	-92.8702	27.7818
  11	1	2	0.108341	48.8831	-93.0759	25.7712
  12	1	4	-0.012027	49.635	-91.9389	25.8404
  13	1	5	-0.530873	46.9979	-97.8441	24.5785
  14	1	5	-0.5745	45.8555	-97.2875	26.8199
  15	1	1	0.177717	45.4452	-97.1229	22.6647
  16	1	2	-0.13906	44.6925	-96.5469	23.2007
  17	1	2	-0.172291	43.5622	-96.0623	22.5173
  18	1	1	0.137587	43.4408	-96.2527	21.4551
  19	1	2	0.27179	42.5763	-95.3368	23.2039
  20	1	6	-0.297458	41.4916	-94.8639	22.501
  21	1	1	0.184682	43.967	-95.3852	26.3357
  22	1	2	-0.177057	43.856	-95.569	25.2678
  23	1	2	-0.065252	44.8448	-96.3012	24.5808
  24	1	1	0.164016	40.0584	-96.5976	23.9045
  25	1	1	0.144303	37.893	-96.1271	24.989
  26	1	2	-0.207027	39.6078	-95.6139	23.8076
  27	1	2	-0.150602	38.3702	-95.3393	24.4155
  28	1	2	0.201726	40.2713	-94.6164	23.0791
  29	1	2	0.015223	37.7689	-94.0644	24.2959
  30	1	7	0.123165	36.4299	-93.7305	24.9936
  31	1	2	-0.193552	39.6973	-93.3455	22.9593
  32	1	2	-0.163782	38.4641	-93.0663	23.575
  33	1	1	0.167708	40.2212	-92.5756	22.4011
  34	1	1	0.146296	38.0511	-92.0644	23.4903
  35	1	2	-0.183938	42.7288	-95.0841	24.5803
  36	1	1	0.154545	41.9761	-94.5123	25.1148
  37	1	7	-0.193999	36.7853	-93.2243	26.4173
  38	1	7	-0.196778	35.5216	-94.9796	25.1647
  39	1	9	0.051577	35.8855	-93.046	27.0198
  40	1	9	0.039353	37.3668	-92.2944	26.3725
  41	1	9	0.072794	37.3941	-93.9654	26.9511
  42	1	9	0.05895	35.9316	-95.6902	25.8926
  43	1	9	0.044008	35.3857	-95.506	24.2115
  44	1	9	0.064391	34.5279	-94.6859	25.5272
  45	1	1	0.130931	35.2811	-91.2562	25.7611
  46	1	2	-0.035623	35.1078	-91.509	24.7199
  47	1	2	-0.458756	34.3543	-90.6181	23.9358
  48	1	1	0.207809	33.9664	-89.7069	24.3807
  49	1	2	0.31527	34.0846	-90.8905	22.5882
  50	1	2	-0.466224	34.5961	-92.0727	22.026
  51	1	1	0.20556	34.4045	-92.3085	20.9829
  52	1	2	-0.031899	35.3465	-92.9711	22.8071
  53	1	1	0.127567	35.7243	-93.8845	22.3524
  54	1	2	0.005289	35.6187	-92.7044	24.1665
  55	1	1	0.144011	31.4994	-91.6009	20.8736
  56	1	2	-0.407424	32.01	-90.9813	20.1407
  57	1	2	0.096878	31.665	-91.0753	18.7786
  58	1	1	0.131719	30.8945	-91.7769	18.4661
  59	1	2	0.007579	32.3179	-90.2752	17.8208
  60	1	3	0.947259	31.8607	-90.4587	16.074
  61	1	2	-0.433296	33.3284	-89.3753	18.2373
  62	1	1	0.195208	33.8495	-88.7714	17.4957
  63	1	2	0.002203	33.6735	-89.2879	19.5997
  64	1	1	0.245959	34.4527	-88.6037	19.9272
  65	1	2	0.108341	33.0215	-90.0935	20.5503
  66	1	4	-0.012027	33.3518	-89.9744	21.8735
  67	1	5	-0.530873	33.0473	-90.1405	15.2699
  68	1	5	-0.5745	31.1366	-91.7291	15.94
  69	1	1	0.177717	28.9498	-90.3282	16.3629
  70	1	2	-0.13906	29.2877	-89.354	16.0134
  71	1	2	-0.172291	28.3505	-88.3369	15.7542
  72	1	1	0.137587	27.2911	-88.513	15.9143
  73	1	2	0.27179	28.7745	-87.0941	15.26
  74	1	6	-0.297458	27.8374	-86.1214	14.9996
  75	1	1	0.184682	32.1438	-87.6912	15.1254
  76	1	2	-0.177057	31.0858	-87.8688	15.3133
  77	1	2	-0.065252	30.6616	-89.126	15.7933
  78	1	1	0.164016	28.6269	-86.9416	12.5672
  79	1	1	0.144303	28.4715	-85.628	10.4994
  80	1	2	-0.207027	28.2109	-85.9389	12.6036
  81	1	2	-0.150602	28.1098	-85.1837	11.4208
  82	1	2	0.201726	27.7703	-85.4045	13.8258
  83	1	2	0.015223	27.5539	-83.8825	11.4336
  84	1	7	0.123165	27.4526	-83.0032	10.1642
  85	1	2	-0.193552	27.2113	-84.1202	13.8517
  86	1	2	-0.163782	27.1111	-83.3633	12.67
  87	1	1	0.167708	26.8604	-83.7133	14.7952
  88	1	1	0.146296	26.6845	-82.3641	12.7144
  89	1	2	-0.183938	30.1441	-86.8559	15.0507
  90	1	1	0.154545	30.469	-85.8895	14.6763
  91	1	7	-0.193999	27.7051	-83.796	8.85328
  92	1	7	-0.196778	28.5747	-81.9347	10.2686
  93	1	9	0.051577	27.5446	-83.1546	7.97689
  94	1	9	0.039353	27.0207	-84.6497	8.76676
  95	1	9	0.072794	28.735	-84.1705	8.79885
  96	1	9	0.05895	29.5474	-82.4132	10.4419
  97	1	9	0.044008	28.3921	-81.246	11.1033
  98	1	9	0.064391	28.6616	-81.3461	9.34664
  99	1	1	0.130931	25.0417	-84.2642	10.4702
 100	1	2	-0.035623	24.908	-83.2129	10.2249
 101	1	2	-0.458756	23.6062	-82.698	10.0843
 102	1	1	0.207809	22.7505	-83.3505	10.2274
 103	1	2	0.31527	23.3974	-81.3544	9.74395
 104	1	2	-0.466224	24.5168	-80.5229	9.57294
 105	1	1	0.20556	24.3785	-79.4762	9.31685
 106	1	2	-0.031899	25.8208	-81.0314	9.71343
 107	1	1	0.127567	26.6549	-80.3563	9.55096
 108	1	2	0.005289	26.0386	-82.3878	10.0463
 109	1	1	0.144011	22.6844	-80.3836	7.07301
 110	1	2	-0.407424	22.1002	-79.615	7.57325
 111	1	2	0.096878	21.7198	-78.4564	6.86868
 112	1	1	0.131719	22.0219	-78.3358	5.83051
 113	1	2	0.007579	20.9718	-77.4475	7.50575
 114	1	3	0.947259	20.5711	-75.9403	6.57433
 115	1	2	-0.433296	20.5982	-77.6114	8.86204
 116	1	1	0.195208	20.0434	-76.822	9.36624
 117	1	2	0.002203	20.9805	-78.7727	9.56205
 118	1	1	0.245959	20.7082	-78.899	10.6073
 119	1	2	0.108341	21.743	-79.7692	8.92623
 120	1	4	-0.012027	22.1095	-80.8869	9.63255
 121	1	5	-0.530873	20.6314	-74.8266	7.529
 122	1	5	-0.5745	21.3537	-75.95	5.3318
 123	1	1	0.177717	18.0996	-75.4296	8.05157
 124	1	2	-0.13906	17.8194	-75.7896	7.06342
 125	1	2	-0.172291	16.4614	-75.8889	6.7107
 126	1	1	0.137587	15.6888	-75.6253	7.4265
 127	1	2	0.27179	16.0914	-76.3093	5.42421
 128	1	6	-0.297458	14.751	-76.4015	5.12446
 129	1	1	0.184682	19.2172	-76.813	4.11322
 130	1	2	-0.177057	18.4476	-76.5665	4.84388
 131	1	2	-0.065252	18.8214	-76.1291	6.13223
 132	1	1	0.164016	15.2866	-74.373	3.46712
 133	1	1	0.144303	14.2597	-74.0431	1.23077
 134	1	2	-0.207027	14.5633	-75.0913	3.09166
 135	1	2	-0.150602	13.9748	-74.9072	1.82593
 136	1	2	0.201726	14.2115	-76.2006	3.87607
 137	1	2	0.015223	13.0282	-75.8265	1.31893
 138	1	7	0.123165	12.4498	-75.615	-0.103704
 139	1	2	-0.193552	13.2538	-77.1043	3.40238
 140	1	2	-0.163782	12.6715	-76.9271	2.13479
 141	1	1	0.167708	12.9735	-77.9513	4.02148
 142	1	1	0.146296	11.9477	-77.6633	1.80193
 143	1	2	-0.183938	17.0868	-76.6596	4.49316
 144	1	1	0.154545	16.8039	-77.0001	3.50143
 145	1	7	-0.193999	11.4561	-76.7316	-0.52318
 146	1	7	-0.196778	13.6491	-75.6897	-1.09146
 147	1	9	0.051577	11.9332	-77.7199	-0.509832
 148	1	9	0.039353	11.0828	-76.5612	-1.54124
 149	1	9	0.072794	10.584	-76.7536	0.142697
 150	1	9	0.05895	14.2663	-76.5728	-0.880593
 151	1	9	0.044008	14.2925	-74.8049	-1.00919
 152	1	9	0.064391	13.3205	-75.7723	-2.1345
 153	1	1	0.130931	11.0706	-74.2181	1.86807
 154	1	2	-0.035623	11.0145	-73.7255	0.900123
 155	1	2	-0.458756	10.2533	-72.5466	0.778604
 156	1	1	0.207809	9.74966	-72.1375	1.64946
 157	1	2	0.31527	10.126	-71.8982	-0.457411
 158	1	2	-0.466224	10.7813	-72.4417	-1.57312
 159	1	1	0.20556	10.7024	-71.9486	-2.53888
 160	1	2	-0.031899	11.5464	-73.6152	-1.45724
 161	1	1	0.127567	12.0171	-74.0139	-2.35043
 162	1	2	0.005289	11.6835	-74.276	-0.215996
 163	1	1	0.144011	9.28537	-68.4507	-1.82835
 164	1	2	-0.407424	8.64198	-69.2162	-2.25407
 165	1	2	0.096878	7.90831	-68.9437	-3.42569
 166	1	1	0.131719	7.99578	-67.9715	-3.90526
 167	1	2	0.007579	7.08806	-69.9325	-3.99938
 168	1	3	0.947259	6.26836	-69.5701	-5.5788
 169	1	2	-0.433296	7.00058	-71.2051	-3.38457
 170	1	1	0.195208	6.38718	-71.981	-3.84251
 171	1	2	0.002203	7.75129	-71.4816	-2.22566
 172	1	1	0.245959	7.71319	-72.4704	-1.77219
 173	1	2	0.108341	8.58368	-70.4921	-1.6645
 174	1	4	-0.012027	9.3553	-70.766	-0.562375
 175	1	5	-0.530873	7.27661	-68.9349	-6.43586
 176	1	5	-0.5745	5.5464	-70.7801	-5.99235
 177	1	1	0.177717	3.55288	-69.7019	-4.5021
 178	1	2	-0.13906	3.76925	-68.6545	-4.70797
 179	1	2	-0.172291	2.7765	-67.6763	-4.508
 180	1	1	0.137587	1.79731	-67.9572	-4.13215
 181	1	2	0.27179	3.03243	-66.3339	-4.82838
 182	1	6	-0.297458	2.0405	-65.3959	-4.6598
 183	1	1	0.184682	6.25677	-66.6464	-5.93189
 184	1	2	-0.177057	5.2935	-66.9348	-5.51302
 185	1	2	-0.065252	5.03373	-68.2898	-5.21354
 186	1	1	0.164016	2.08089	-65.906	-7.29811
 187	1	1	0.144303	1.20854	-64.4316	-9.05047
 188	1	2	-0.207027	1.64038	-64.9532	-7.01914
 189	1	2	-0.150602	1.12998	-64.1044	-8.01901
 190	1	2	0.201726	1.57324	-64.5786	-5.66672
 191	1	2	0.015223	0.534512	-62.863	-7.68912
 192	1	7	0.123165	-0.00909765	-61.8794	-8.75819
 193	1	2	-0.193552	0.979213	-63.3562	-5.32482
 194	1	2	-0.163782	0.474199	-62.5033	-6.3243
 195	1	1	0.167708	0.916535	-63.0715	-4.27884
 196	1	1	0.146296	0.0259279	-61.5554	-6.0366
 197	1	2	-0.183938	4.2952	-65.9616	-5.31884
 198	1	1	0.154545	4.48804	-64.9211	-5.56354
 199	1	7	-0.193999	-0.00697688	-62.4821	-10.1887
 200	1	7	-0.196778	0.960181	-60.6649	-8.77125
 201	1	9	0.051577	-0.430758	-61.7739	-10.9124
 202	1	9	0.039353	-0.612551	-63.3966	-10.232
 203	1	9	0.072794	1.01023	-62.7203	-10.5244
 204	1	9	0.05895	2.00172	-61.0052	-8.84014
 205	1	9	0.044008	0.864129	-60.0701	-7.85423
 206	1	9	0.064391	0.783166	-60.0036	-9.62782
 207	1	1	0.130931	-2.01393	-63.3127	-7.4764
 208	1	2	-0.035623	-2.3563	-62.3339	-7.80449
 209	1	2	-0.458756	-3.69824	-61.9736	-7.58356
 210	1	1	0.207809	-4.36658	-62.6685	-7.08321
 211	1	2	0.31527	-4.19634	-60.741	-8.0249
 212	1	2	-0.466224	-3.33192	-59.8716	-8.70909
 213	1	1	0.20556	-3.71404	-58.9395	-9.11601
 214	1	2	-0.031899	-1.98508	-60.2214	-8.92186
 215	1	1	0.127567	-1.3557	-59.5365	-9.48137
 216	1	2	0.005289	-1.46748	-61.4536	-8.45935
 217	1	1	0.144011	-8.0427	-59.8142	-8.09197
 218	1	2	-0.407424	-7.43562	-59.0351	-7.6386
 219	1	2	0.096878	-8.04464	-57.8425	-7.20336
 220	1	1	0.131719	-9.11786	-57.7103	-7.31763
 221	1	2	0.007579	-7.27611	-56.8298	-6.60372
 222	1	3	0.947259	-8.12398	-55.346	-5.99023
 223	1	2	-0.433296	-5.88499	-57.0271	-6.42792
 224	1	1	0.195208	-5.29465	-56.2559	-5.9331
 225	1	2	0.002203	-5.28299	-58.2333	-6.83835
 226	1	1	0.245959	-4.2228	-58.3957	-6.65513
 227	1	2	0.108341	-6.05442	-59.2391	-7.45992
 228	1	4	-0.012027	-5.5256	-60.4516	-7.83747
 229	1	5	-0.530873	-9.12951	-55.8077	-5.02612
 230	1	5	-0.5745	-7.09284	-54.3673	-5.62321
 231	1	1	0.177717	-7.31946	-53.7223	-8.28322
 232	1	2	-0.13906	-8.38621	-53.9178	-8.38369
 233	1	2	-0.172291	-9.10643	-53.3709	-9.4627
 234	1	1	0.137587	-8.60011	-52.7654	-10.2084
 235	1	2	0.27179	-10.49	-53.5823	-9.57269
 236	1	6	-0.297458	-11.1666	-53.0346	-10.6397
 237	1	1	0.184682	-10.9594	-55.5034	-6.77723
 238	1	2	-0.177057	-10.4349	-54.9221	-7.53492
 239	1	2	-0.065252	-9.04627	-54.698	-7.41356
 240	1	1	0.164016	-12.9994	-53.3036	-12.4819
 241	1	1	0.144303	-15.2961	-52.3743	-12.4198
 242	1	2	-0.207027	-13.3214	-52.7114	-11.6307
 243	1	2	-0.150602	-14.6211	-52.1729	-11.5917
 244	1	2	0.201726	-12.4338	-52.5011	-10.5677
 245	1	2	0.015223	-15.0509	-51.3877	-10.4976
 246	1	7	0.123165	-16.4993	-50.8431	-10.4446
 247	1	2	-0.193552	-12.8452	-51.73	-9.46917
 248	1	2	-0.163782	-14.1426	-51.1857	-9.43133
 249	1	1	0.167708	-12.1579	-51.5518	-8.64706
 250	1	1	0.146296	-14.4338	-50.613	-8.55697
 251	1	2	-0.183938	-11.1515	-54.3691	-8.61283
 252	1	1	0.154545	-12.2201	-54.5425	-8.70253
 253	1	7	-0.193999	-16.6072	-49.536	-9.60944
 254	1	7	-0.196778	-17.3547	-51.914	-9.71676
 255	1	9	0.051577	-15.8762	-48.788	-9.94115
 256	1	9	0.039353	-16.4461	-49.7162	-8.53956
 257	1	9	0.072794	-17.607	-49.0945	-9.71341
 258	1	9	0.05895	-17.359	-52.8604	-10.2725
 259	1	9	0.044008	-18.3918	-51.5799	-9.5847
 260	1	9	0.064391	-16.9476	-52.1237	-8.71912
 261	1	1	0.130931	-18.779	-51.807	-11.8422
 262	1	2	-0.035623	-18.2018	-51.079	-12.4038
 263	1	2	-0.458756	-18.6533	-50.7221	-13.6883
 264	1	1	0.207809	-19.5435	-51.1982	-14.0912
 265	1	2	0.31527	-17.9516	-49.7826	-14.462
 266	1	2	-0.466224	-16.7774	-49.2261	-13.9387
 267	1	1	0.20556	-16.2141	-48.5136	-14.5344
 268	1	2	-0.031899	-16.3183	-49.582	-12.6575
 269	1	1	0.127567	-15.4021	-49.136	-12.2766
 270	1	2	0.005289	-17.0253	-50.5094	-11.863
 271	1	1	0.144011	-19.1772	-50.0942	-18.1196
 272	1	2	-0.407424	-19.9702	-49.7495	-17.4611
 273	1	2	0.096878	-21.2994	-49.7214	-17.9241
 274	1	1	0.131719	-21.5214	-50.0543	-18.9356
 275	1	2	0.007579	-22.3404	-49.291	-17.0798
 276	1	3	0.947259	-24.0473	-49.3588	-17.6996
 277	1	2	-0.433296	-22.0359	-48.8757	-15.7606
 278	1	1	0.195208	-22.8422	-48.5615	-15.0989
 279	1	2	0.002203	-20.7042	-48.909	-15.2992
 280	1	1	0.245959	-20.4706	-48.5982	-14.2825
 281	1	2	0.108341	-19.6692	-49.364	-16.1429
 282	1	4	-0.012027	-18.3627	-49.4175	-15.7213
 283	1	5	-0.530873	-24.0421	-50.2292	-18.882
 284	1	5	-0.5745	-24.9328	-49.6032	-16.5538
 285	1	1	0.177717	-25.5019	-47.1099	-16.5105
 286	1	2	-0.13906	-25.1568	-46.7931	-17.4935
 287	1	2	-0.172291	-25.4993	-45.5177	-17.9797
 288	1	1	0.137587	-26.0927	-44.8415	-17.3716
 289	1	2	0.27179	-25.0895	-45.1195	-19.2635
 290	1	6	-0.297458	-25.4338	-43.8859	-19.764
 291	1	1	0.184682	-23.4161	-47.9531	-20.2024
 292	1	2	-0.177057	-23.9783	-47.2671	-19.571
 293	1	2	-0.065252	-24.3987	-47.6781	-18.2884
 294	1	1	0.164016	-27.6941	-45.3346	-19.8864
 295	1	1	0.144303	-29.969	-44.4201	-20.0017
 296	1	2	-0.207027	-27.8358	-44.2578	-19.878
 297	1	2	-0.150602	-29.1366	-43.7263	-19.9519
 298	1	2	0.201726	-26.7227	-43.4027	-19.8081
 299	1	2	0.015223	-29.3504	-42.3276	-19.9688
 300	1	7	0.123165	-30.7598	-41.6927	-20.0467
 301	1	2	-0.193552	-26.9204	-42.0162	-19.828
 302	1	2	-0.163782	-28.2203	-41.4834	-19.9015
 303	1	1	0.167708	-26.0586	-41.3568	-19.7881
 304	1	1	0.146296	-28.3509	-40.404	-19.9161
 305	1	2	-0.183938	-24.3163	-45.9871	-20.0498
 306	1	1	0.154545	-24.0055	-45.6698	-21.0409
 307	1	7	-0.193999	-31.0544	-41.067	-18.6562
 308	1	7	-0.196778	-31.8807	-42.7268	-20.3226
 309	1	9	0.051577	-32.0922	-40.7197	-18.577
 310	1	9	0.039353	-30.3902	-40.2176	-18.4523
 311	1	9	0.072794	-30.8978	-41.8078	-17.8613
 312	1	9	0.05895	-31.9711	-43.4533	-19.5054
 313	1	9	0.044008	-31.6861	-43.272	-21.2544
 314	1	9	0.064391	-32.8532	-42.2286	-20.4287
 315	1	1	0.130931	-29.7769	-41.9672	-22.5909
 316	1	2	-0.035623	-30.251	-40.9982	-22.4497
 317	1	2	-0.458756	-30.2888	-40.0908	-23.5224
 318	1	1	0.207809	-29.8457	-40.3609	-24.477
 319	1	2	0.31527	-30.8832	-38.8318	-23.3754
 320	1	2	-0.466224	-31.4929	-38.5119	-22.1517
 321	1	1	0.20556	-31.9845	-37.5507	-22.0359
 322	1	2	-0.031899	-31.4551	-39.4126	-21.0723
 323	1	1	0.127567	-31.9309	-39.1226	-20.141
 324	1	2	0.005289	-30.8135	-40.6654	-21.1988
 325	1	1	0.144011	-29.4845	-36.6449	-22.5868
 326	1	2	-0.407424	-29.9286	-36.0307	-23.3659
 327	1	2	0.096878	-29.6971	-34.6432	-23.3629
 328	1	1	0.131719	-29.09	-34.2027	-22.575
 329	1	2	0.007579	-30.2349	-33.8297	-24.3771
 330	1	3	0.947259	-29.9298	-32.0446	-24.3141
 331	1	2	-0.433296	-31.0096	-34.4189	-25.4042
 332	1	1	0.195208	-31.4232	-33.8005	-26.1992
 333	1	2	0.002203	-31.2322	-35.8092	-25.4072
 334	1	1	0.245959	-31.813	-36.2678	-26.2051
 335	1	2	0.108341	-30.7033	-36.6199	-24.3861
 336	1	4	-0.012027	-30.9146	-37.9754	-24.4463
 337	1	5	-0.530873	-29.2757	-31.6508	-25.5674
 338	1	5	-0.5745	-29.3419	-31.7456	-23.0022
 339	1	1	0.177717	-31.967	-31.7553	-22.2543
 340	1	2	-0.13906	-32.3933	-31.3868	-23.1858
 341	1	2	-0.172291	-33.7182	-30.9198	-23.218
 342	1	1	0.137587	-34.317	-30.9434	-22.3118
 343	1	2	0.27179	-34.2656	-30.4282	-24.4188
 344	1	6	-0.297458	-35.5629	-29.9759	-24.4904
 345	1	1	0.184682	-31.5621	-30.8879	-26.4682
 346	1	2	-0.177057	-32.1648	-30.8955	-25.5604
 347	1	2	-0.065252	-31.613	-31.3821	-24.3578
 348	1	1	0.164016	-34.8334	-27.9557	-22.9404
 349	1	1	0.144303	-36.0245	-27.2074	-20.8974
 350	1	2	-0.207027	-35.7512	-28.4494	-22.6353
 351	1	2	-0.150602	-36.4302	-28.0315	-21.4767
 352	1	2	0.201726	-36.2434	-29.5251	-23.3883
 353	1	2	0.015223	-37.6177	-28.6725	-21.0571
 354	1	7	0.123165	-38.3318	-28.2102	-19.765
 355	1	2	-0.193552	-37.4156	-30.1723	-22.9896
 356	1	2	-0.163782	-38.098	-29.7506	-21.8381
 357	1	1	0.167708	-37.7859	-31.022	-23.5527
 358	1	1	0.146296	-38.9958	-30.2948	-21.5612
 359	1	2	-0.183938	-33.4866	-30.4169	-25.5856
 360	1	1	0.154545	-33.9136	-30.039	-26.5092
 361	1	7	-0.193999	-38.7218	-26.7094	-19.886
 362	1	7	-0.196778	-37.3313	-28.2984	-18.5761
 363	1	9	0.051577	-37.8368	-26.0624	-19.9121
 364	1	9	0.039353	-39.336	-26.3958	-19.0322
 365	1	9	0.072794	-39.2868	-26.5117	-20.8038
 366	1	9	0.05895	-36.5244	-27.5615	-18.6671
 367	1	9	0.044008	-36.8543	-29.2854	-18.5293
 368	1	9	0.064391	-37.8384	-28.1093	-17.621
 369	1	1	0.130931	-38.6603	-30.4537	-18.0953
 370	1	2	-0.035623	-39.5687	-30.1788	-18.6215
 371	1	2	-0.458756	-40.7008	-30.9937	-18.4519
 372	1	1	0.207809	-40.6503	-31.8641	-17.8045
 373	1	2	0.31527	-41.8812	-30.7232	-19.151
 374	1	2	-0.466224	-41.9233	-29.6325	-20.0269
 375	1	1	0.20556	-42.8221	-29.4415	-20.6069
 376	1	2	-0.031899	-40.7969	-28.8104	-20.1977
 377	1	1	0.127567	-40.8497	-28.0082	-20.9287
 378	1	2	0.005289	-39.5978	-29.0621	-19.4906
 379	1	1	0.144011	-45.0121	-33.177	-19.1821
 380	1	2	-0.407424	-44.2884	-33.351	-19.9737
 381	1	2	0.096878	-44.527	-34.352	-20.9331
 382	1	1	0.131719	-45.437	-34.9448	-20.8779
 383	1	2	0.007579	-43.6006	-34.5809	-21.9663
 384	1	3	0.947259	-43.9882	-35.8224	-23.2228
 385	1	2	-0.433296	-42.4221	-33.8051	-22.0296
 386	1	1	0.195208	-41.6994	-33.9756	-22.8223
 387	1	2	0.002203	-42.1826	-32.8067	-21.0685
 388	1	1	0.245959	-41.2703	-32.2132	-21.1305
 389	1	2	0.108341	-43.1202	-32.5705	-20.038
 390	1	4	-0.012027	-42.9279	-31.598	-19.0875
 391	1	5	-0.530873	-44.8904	-36.8038	-22.6083
 392	1	5	-0.5745	-42.7335	-36.2138	-23.8829
 393	1	1	0.177717	-43.2848	-34.3205	-25.65
 394	1	2	-0.13906	-44.3472	-34.1845	-25.4719
 395	1	2	-0.172291	-45.0957	-33.354	-26.3249
 396	1	1	0.137587	-44.6115	-32.8462	-27.1536
 397	1	2	0.27179	-46.4698	-33.1719	-26.1063
 398	1	6	-0.297458	-47.173	-32.3362	-26.9449
 399	1	1	0.184682	-46.8366	-35.1452	-23.3305
 400	1	2	-0.177057	-46.3475	-34.6481	-24.1668
 401	1	2	-0.065252	-44.9668	-34.8323	-24.3841
 402	1	1	0.164016	-48.3727	-34.5988	-27.6557
 403	1	1	0.144303	-50.7631	-34.8633	-28.1478
 404	1	2	-0.207027	-49.0322	-33.7383	-27.5871
 405	1	2	-0.150602	-50.4024	-33.8794	-27.8674
 406	1	2	0.201726	-48.5102	-32.4896	-27.2224
 407	1	2	0.015223	-51.2814	-32.7716	-27.797
 408	1	7	0.123165	-52.7998	-32.9019	-28.092
 409	1	2	-0.193552	-49.3557	-31.3752	-27.1758
 410	1	2	-0.163782	-50.7272	-31.5151	-27.4583
 411	1	1	0.167708	-48.9439	-30.4053	-26.9114
 412	1	1	0.146296	-51.358	-30.633	-27.4174
 413	1	2	-0.183938	-47.0932	-33.8173	-25.0218
 414	1	1	0.154545	-48.1524	-33.6647	-24.8364
 415	1	7	-0.193999	-53.588	-32.1391	-26.9855
 416	1	7	-0.196778	-53.2921	-34.3734	-28.0084
 417	1	9	0.051577	-54.661	-32.3667	-27.0227
 418	1	9	0.039353	-53.4825	-31.0519	-27.0799
 419	1	9	0.072794	-53.2303	-32.4281	-25.9886
 420	1	9	0.05895	-52.865	-34.9891	-28.8096
 421	1	9	0.044008	-54.3829	-34.4282	-28.1192
 422	1	9	0.064391	-53.0299	-34.8261	-27.0434
 423	1	1	0.130931	-51.3982	-33.371	-30.4171
 424	1	2	-0.035623	-52.2878	-32.7716	-30.5949
 425	1	2	-0.458756	-52.5981	-32.3975	-31.9141
 426	1	1	0.207809	-51.9384	-32.6974	-32.7241
 427	1	2	0.31527	-53.7549	-31.662	-32.1995
 428	1	2	-0.466224	-54.5785	-31.2649	-31.1331
 429	1	1	0.20556	-55.473	-30.6811	-31.3315
 430	1	2	-0.031899	-54.272	-31.6327	-29.8105
 431	1	1	0.127567	-54.9552	-31.3313	-29.023
 432	1	2	0.005289	-53.1189	-32.3961	-29.5173
 433	1	1	0.144011	-56.2201	-32.7285	-32.8227
 434	1	2	-0.407424	-56.3515	-32.0237	-33.6402
 435	1	2	0.096878	-57.6113	-31.9154	-34.2594
 436	1	1	0.131719	-58.4381	-32.5263	-33.9025
 437	1	2	0.007579	-57.8043	-31.0263	-35.3334
 438	1	3	0.947259	-59.452	-30.928	-36.0967
 439	1	2	-0.433296	-56.7126	-30.2505	-35.7904
 440	1	1	0.195208	-56.8473	-29.5707	-36.6278
 441	1	2	0.002203	-55.4572	-30.3531	-35.16
 442	1	1	0.245959	-54.6207	-29.7505	-35.5079
 443	1	2	0.108341	-55.2715	-31.2274	-34.073
 444	1	4	-0.012027	-54.023	-31.3136	-33.5019
 445	1	5	-0.530873	-60.2347	-32.0712	-35.615
 446	1	5	-0.5745	-59.9817	-29.5672	-35.9449
 447	1	1	0.177717	-60.7552	-29.7752	-38.4339
 448	1	2	-0.13906	-59.9914	-30.4623	-38.7969
 449	1	2	-0.172291	-59.8135	-30.65	-40.179
 450	1	1	0.137587	-60.4267	-30.1012	-40.8875
 451	1	2	0.27179	-58.8258	-31.5336	-40.6456
 452	1	6	-0.297458	-58.6139	-31.7097	-41.9908
 453	1	1	0.184682	-57.5804	-32.6073	-37.6466
 454	1	2	-0.177057	-58.2017	-32.0543	-38.349
 455	1	2	-0.065252	-59.1871	-31.1634	-37.8745
 456	1	1	0.164016	-60.826	-33.1491	-41.505
 457	1	1	0.144303	-62.5646	-33.7028	-43.1839
 458	1	2	-0.207027	-60.7228	-32.7925	-42.525
 459	1	2	-0.150602	-61.7024	-33.1119	-43.4826
 460	1	2	0.201726	-59.6045	-32.0249	-42.8902
 461	1	2	0.015223	-61.5796	-32.6852	-44.8238
 462	1	7	0.123165	-62.7016	-33.0281	-45.835
 463	1	2	-0.193552	-59.4645	-31.6003	-44.2164
 464	1	2	-0.163782	-60.4428	-31.9194	-45.1744
 465	1	1	0.167708	-58.5951	-31.0137	-44.4999
 466	1	1	0.146296	-60.3011	-31.5521	-46.1858
 467	1	2	-0.183938	-58.0161	-32.2257	-39.7329
 468	1	1	0.154545	-57.2515	-32.9009	-40.106
 469	1	7	-0.193999	-62.3152	-32.6962	-47.3006
 470	1	7	-0.196778	-63.9154	-32.1331	-45.4604
 471	1	9	0.051577	-62.1507	-31.6204	-47.4426
 472	1	9	0.039353	-63.1129	-32.9957	-47.9926
 473	1	9	0.072794	-61.4043	-33.2318	-47.5979
 474	1	9	0.05895	-64.6919	-32.1478	-46.2345
 475	1	9	0.044008	-63.6024	-31.0868	-45.3476
 476	1	9	0.064391	-64.3696	-32.4552	-44.5149
 477	1	1	0.130931	-65.107	-34.2813	-46.4942
 478	1	2	-0.035623	-64.3463	-34.986	-46.1733
 479	1	2	-0.458756	-64.6621	-36.3563	-46.1685
 480	1	1	0.207809	-65.6511	-36.6733	-46.4869
 481	1	2	0.31527	-63.6998	-37.3128	-45.7999
 482	1	2	-0.466224	-62.4154	-36.8718	-45.4563
 483	1	1	0.20556	-61.6551	-37.6038	-45.1997
 484	1	2	-0.031899	-62.0912	-35.5035	-45.4703
 485	1	1	0.127567	-61.0742	-35.2028	-45.2293
 486	1	2	0.005289	-63.0622	-34.532	-45.7986
 487	1	1	0.144011	-64.6015	-39.9916	-47.9796
 488	1	2	-0.407424	-65.4077	-39.8886	-47.258
 489	1	2	0.096878	-66.6739	-40.4346	-47.5381
 490	1	1	0.131719	-66.841	-40.9614	-48.475
 491	1	2	0.007579	-67.7276	-40.2924	-46.6175
 492	1	3	0.947259	-69.349	-40.9636	-47.0652
 493	1	2	-0.433296	-67.5007	-39.6199	-45.3939
 494	1	1	0.195208	-68.3129	-39.5287	-44.6736
 495	1	2	0.002203	-66.2296	-39.0854	-45.1098
 496	1	1	0.245959	-66.049	-38.5686	-44.1692
 497	1	2	0.108341	-65.1881	-39.2045	-46.0497
 498	1	4	-0.012027	-63.9572	-38.6619	-45.7978
 499	1	5	-0.530873	-69.1207	-42.2303	-47.7703
 500	1	5	-0.5745	-70.2338	-40.858	-45.8977
 501	1	1	0.177717	-70.669	-38.3685	-46.8329
 502	1	2	-0.13906	-70.5343	-38.5718	-47.8948
 503	1	2	-0.172291	-70.9798	-37.6444	-48.8544
 504	1	1	0.137587	-71.4564	-36.7203	-48.5408
 505	1	2	0.27179	-70.8134	-37.9136	-50.2246
 506	1	6	-0.297458	-71.2487	-37.0278	-51.1798
 507	1	1	0.184682	-69.2795	-40.9618	-50.0043
 508	1	2	-0.177057	-69.7436	-40.0311	-49.6799
 509	1	2	-0.065252	-69.9192	-39.7722	-48.3041
 510	1	1	0.164016	-71.8419	-34.7213	-52.2299
 511	1	1	0.144303	-74.0748	-33.6746	-52.317
 512	1	2	-0.207027	-72.6974	-35.235	-51.801
 513	1	2	-0.150602	-73.9744	-34.6471	-51.8462
 514	1	2	0.201726	-72.5126	-36.4866	-51.2007
 515	1	2	0.015223	-75.0942	-35.3093	-51.2908
 516	1	7	0.123165	-76.5144	-34.6975	-51.2796
 517	1	2	-0.193552	-73.6197	-37.1697	-50.6705
 518	1	2	-0.163782	-74.8964	-36.584	-50.7157
 519	1	1	0.167708	-73.4937	-38.1543	-50.2297
 520	1	1	0.146296	-75.7408	-37.122	-50.2919
 521	1	2	-0.183938	-70.1859	-39.0985	-50.6348
 522	1	1	0.154545	-70.0615	-39.2945	-51.6959
 523	1	7	-0.193999	-77.3755	-35.5222	-52.275
 524	1	7	-0.196778	-76.5505	-33.2222	-51.7592
 525	1	9	0.051577	-77.5249	-36.5493	-51.9192
 526	1	9	0.039353	-76.8827	-35.5787	-53.2544
 527	1	9	0.072794	-78.3605	-35.0668	-52.4349
 528	1	9	0.05895	-77.5681	-32.8166	-51.6879
 529	1	9	0.044008	-76.234	-33.131	-52.8061
 530	1	9	0.064391	-75.9008	-32.5885	-51.1423
 531	1	1	0.130931	-75.1845	-34.1051	-48.9548
 532	1	2	-0.035623	-76.2201	-34.3779	-48.7636
 533	1	2	-0.458756	-76.6892	-34.3913	-47.4396
 534	1	1	0.207809	-76.0174	-34.1315	-46.6256
 535	1	2	0.31527	-78.0233	-34.7197	-47.1594
 536	1	2	-0.466224	-78.8817	-35.0387	-48.2184
 537	1	1	0.20556	-79.918	-35.2869	-48.0081
 538	1	2	-0.031899	-78.4162	-35.0353	-49.546
 539	1	1	0.127567	-79.1155	-35.2782	-50.3402
 540	1	2	0.005289	-77.0701	-34.7186	-49.8383
 541	1	1	0.144011	-78.046	-33.8478	-43.4322
 542	1	2	-0.407424	-77.6221	-34.8287	-43.6308
 543	1	2	0.096878	-76.8831	-35.4895	-42.6309
 544	1	1	0.131719	-76.7405	-35.0121	-41.6639
 545	1	2	0.007579	-76.321	-36.7558	-42.8823
 546	1	3	0.947259	-75.3016	-37.537	-41.6043
 547	1	2	-0.433296	-76.5177	-37.3701	-44.1416
 548	1	1	0.195208	-76.0963	-38.3559	-44.3319
 549	1	2	0.002203	-77.2524	-36.7051	-45.1398
 550	1	1	0.245959	-77.3983	-37.1705	-46.1128
 551	1	2	0.108341	-77.7946	-35.4283	-44.8905
 552	1	4	-0.012027	-78.4809	-34.7599	-45.8695
 553	1	5	-0.530873	-75.3005	-36.6647	-40.4228
 554	1	5	-0.5745	-75.6789	-38.9538	-41.5376
 555	1	1	0.177717	-73.8232	-39.4202	-43.2977
 556	1	2	-0.13906	-73.2079	-38.5297	-43.1762
 557	1	2	-0.172291	-71.9548	-38.4522	-43.8094
 558	1	1	0.137587	-71.5963	-39.2794	-44.4153
 559	1	2	0.27179	-71.1515	-37.3156	-43.6383
 560	1	6	-0.297458	-69.9161	-37.2594	-44.2354
 561	1	1	0.184682	-73.2019	-35.4995	-41.5832
 562	1	2	-0.177057	-72.8552	-36.3218	-42.2076
 563	1	2	-0.065252	-73.6649	-37.4634	-42.3746
 564	1	1	0.164016	-69.3798	-38.1168	-41.7717
 565	1	1	0.144303	-67.3608	-37.5971	-40.4809
 566	1	2	-0.207027	-68.6064	-37.4963	-42.2176
 567	1	2	-0.150602	-67.4433	-37.1989	-41.4873
 568	1	2	0.201726	-68.7784	-36.9899	-43.5152
 569	1	2	0.015223	-66.4229	-36.3934	-42.045
 570	1	7	0.123165	-65.1436	-36.0002	-41.2643
 571	1	2	-0.193552	-67.7687	-36.2111	-44.0921
 572	1	2	-0.163782	-66.6031	-35.9149	-43.363
 573	1	1	0.167708	-67.9027	-35.8299	-45.1002
 574	1	1	0.146296	-65.8427	-35.284	-43.8152
 575	1	2	-0.183938	-71.6011	-36.2503	-42.839
 576	1	1	0.154545	-70.9727	-35.3746	-42.7082
 577	1	7	-0.193999	-63.9296	-36.5454	-42.0681
 578	1	7	-0.196778	-65.0797	-36.6439	-39.8529
 579	1	9	0.051577	-63.7919	-35.9941	-43.0055
 580	1	9	0.039353	-64.0751	-37.6039	-42.3197
 581	1	9	0.072794	-62.9933	-36.4752	-41.5022
 582	1	9	0.05895	-64.1474	-36.3804	-39.3376
 583	1	9	0.044008	-65.1221	-37.7392	-39.9099
 584	1	9	0.064391	-65.9075	-36.2935	-39.2229
 585	1	1	0.130931	-62.9577	-34.4919	-40.4785
 586	1	2	-0.035623	-63.8277	-33.8733	-40.6794
 587	1	2	-0.458756	-63.7208	-32.4807	-40.5185
 588	1	1	0.207809	-62.7801	-32.0425	-40.1953
 589	1	2	0.31527	-64.8281	-31.6499	-40.7453
 590	1	2	-0.466224	-66.05	-32.2304	-41.102
 591	1	1	0.20556	-66.9184	-31.5947	-41.2516
 592	1	2	-0.031899	-66.166	-33.6228	-41.2518
 593	1	1	0.127567	-67.1406	-34.0339	-41.5021
 594	1	2	0.005289	-65.0444	-34.4675	-41.0814
 595	1	1	0.144011	-64.0696	-27.8284	-40.006
 596	1	2	-0.407424	-63.5277	-28.2298	-40.8586
 597	1	2	0.096878	-62.5781	-27.4305	-41.523
 598	1	1	0.131719	-62.3865	-26.4167	-41.1785
 599	1	2	0.007579	-61.8659	-27.9401	-42.6234
 600	1	3	0.947259	-60.593	-26.9005	-43.3795
 601	1	2	-0.433296	-62.1258	-29.2532	-43.0745
 602	1	1	0.195208	-61.5856	-29.6458	-43.9349
 603	1	2	0.002203	-63.0907	-30.0403	-42.4222
 604	1	1	0.245959	-63.298	-31.042	-42.7864
 605	1	2	0.108341	-63.7831	-29.5406	-41.2988
 606	1	4	-0.012027	-64.7272	-30.2879	-40.6373
 607	1	5	-0.530873	-60.104	-27.5775	-44.5876
 608	1	5	-0.5745	-61.0897	-25.5189	-43.3818
 609	1	1	0.177717	-58.5264	-28.8919	-42.8294
 610	1	2	-0.13906	-58.4406	-28.1116	-42.0749
 611	1	2	-0.172291	-57.4826	-28.2231	-41.0516
 612	1	1	0.137587	-56.8251	-29.0863	-41.0068
 613	1	2	0.27179	-57.3853	-27.2285	-40.0674
 614	1	6	-0.297458	-56.4566	-27.3688	-39.0654
 615	1	1	0.184682	-59.8361	-25.1144	-41.1815
 616	1	2	-0.177057	-59.1848	-25.9871	-41.1423
 617	1	2	-0.065252	-59.3016	-26.9971	-42.1182
 618	1	1	0.164016	-58.7201	-27.7251	-37.6871
 619	1	1	0.144303	-59.091	-27.0605	-35.3579
 620	1	2	-0.207027	-57.9242	-27.2188	-37.1475
 621	1	2	-0.150602	-58.1278	-26.8407	-35.8098
 622	1	2	0.201726	-56.6908	-26.9749	-37.7715
 623	1	2	0.015223	-57.1012	-26.2076	-35.0735
 624	1	7	0.123165	-57.2837	-25.7749	-33.6022
 625	1	2	-0.193552	-55.6658	-26.3438	-37.0586
 626	1	2	-0.163782	-55.874	-25.9491	-35.726
 627	1	1	0.167708	-54.7165	-26.1517	-37.5494
 628	1	1	0.146296	-55.0714	-25.4441	-35.1945
 629	1	2	-0.183938	-58.2253	-26.1018	-40.123
 630	1	1	0.154545	-58.1337	-25.3205	-39.3739
 631	1	7	-0.193999	-58.462	-26.4997	-32.8948
 632	1	7	-0.196778	-57.6204	-24.2601	-33.6072
 633	1	9	0.051577	-58.4803	-26.2542	-31.8251
 634	1	9	0.039353	-58.3757	-27.5901	-32.9846
 635	1	9	0.072794	-59.4313	-26.2011	-33.3134