pySIMM System Object

1892 atoms
2031 bonds
3430 angles
5108 dihedrals
630 impropers

9 atom types
10 bond types
17 angle types
7 dihedral types
2 improper types

-184.182006 184.182006 xlo xhi
-184.182006 184.182006 ylo yhi
-184.182006 184.182006 zlo zhi

Masses

   1	1.008	# ha
   2	12.01	# ca
   3	32.06	# sy
   4	16.0	# oh
   5	16.0	# o
   6	16.0	# os
   7	12.01	# c3
   8	1.008	# ho
   9	1.008	# hc

Pair Coeffs

   1	0.015	2.59964245953351	# ha
   2	0.086	3.3996695084235347	# ca
   3	0.25	3.563594872561357	# sy
   4	0.2104	3.0664733878390478	# oh
   5	0.21	2.959921901149463	# o
   6	0.17	3.0000123434657784	# os
   7	0.1094	3.3996695084235347	# c3
   8	0.0	0.0	# ho
   9	0.0157	2.649532787749369	# hc

Bond Coeffs

   1	371.4	0.973	# ho,oh
   2	243.4	1.7909	# ca,sy
   3	461.1	1.3984	# ca,ca
   4	300.9	1.5375	# c3,c3
   5	330.6	1.0969	# c3,hc
   6	493.0	1.466	# o,sy
   7	345.8	1.086	# ca,ha
   8	321.0	1.5156	# c3,ca
   9	376.6	1.3696	# ca,os
  10	384.0	1.3637	# ca,oh

Angle Coeffs

   1	61.48	119.42	# ca,ca,sy
   2	72.54	121.41	# o,sy,o
   3	69.58	119.2	# ca,ca,os
   4	60.3	104.44	# ca,sy,ca
   5	46.34	109.8	# c3,c3,hc
   6	49.0	108.58	# ca,oh,ho
   7	65.77	108.35	# ca,sy,o
   8	63.48	119.89	# ca,os,ca
   9	69.52	119.9	# ca,ca,oh
  10	63.56	112.24	# ca,c3,ca
  11	62.86	111.51	# c3,c3,c3
  12	39.4	107.58	# hc,c3,hc
  13	66.62	120.02	# ca,ca,ca
  14	48.18	119.88	# ca,ca,ha
  15	63.15	112.07	# c3,c3,ca
  16	63.53	120.77	# c3,ca,ca
  17	63.5	119.89	# ca,oh,ca

Dihedral Coeffs

   1	1	0.9	2	180	# X,ca,oh,X
   2	1	1.3	2	180	# X,ca,sy,X
   3	1	0.16	3	0	# hc,c3,c3,c3
   4	1	3.625	2	180	# X,ca,ca,X
   5	1	0.0	2	0	# X,c3,ca,X
   6	1	0.15555555555555556	3	0	# X,c3,c3,X
   7	1	0.9	2	180	# X,ca,os,X

Improper Coeffs

   1	1.1	-1	2	# ca,X,X,ha
   2	1.1	-1	2	# ca,ca,ca,c3

Atoms

   1	1	1	0.144011	-59.8024	-34.5404	44.2754
   2	1	2	-0.407424	-59.7612	-33.8626	45.126
   3	1	2	0.096878	-58.6002	-33.8058	45.9312
   4	1	1	0.131719	-57.7505	-34.4427	45.6981
   5	1	2	0.007579	-58.5306	-32.927	47.0333
   6	1	3	0.947259	-57.0074	-32.8145	48.036
   7	1	2	-0.433296	-59.6665	-32.1492	47.3546
   8	1	1	0.195208	-59.6257	-31.4875	48.2173
   9	1	2	0.002203	-60.827	-32.2135	46.5599
  10	1	1	0.245959	-61.7065	-31.6335	46.8307
  11	1	2	0.108341	-60.8586	-33.0298	45.4171
  12	1	4	-0.012027	-61.9484	-32.9988	44.5938
  13	1	5	-0.530873	-55.8799	-33.3904	47.2933
  14	1	5	-0.5745	-56.9566	-31.4558	48.5902
  15	1	1	0.177717	-56.1783	-35.5641	48.6772
  16	1	2	-0.13906	-56.8243	-35.2142	49.4809
  17	1	2	-0.172291	-57.1235	-36.0654	50.5609
  18	1	1	0.137587	-56.7209	-37.074	50.5876
  19	1	2	0.27179	-57.9465	-35.6141	51.6087
  20	1	6	-0.297458	-58.2545	-36.4272	52.6732
  21	1	1	0.184682	-58.5704	-32.4466	50.4777
  22	1	2	-0.177057	-58.175	-33.4608	50.4957
  23	1	2	-0.065252	-57.356	-33.9087	49.4386
  24	1	1	0.164016	-55.719	-35.798	53.2196
  25	1	1	0.144303	-54.0795	-37.2932	54.3177
  26	1	2	-0.207027	-56.0192	-36.7969	53.5231
  27	1	2	-0.150602	-55.0937	-37.648	54.1503
  28	1	2	0.201726	-57.3321	-37.2355	53.2916
  29	1	2	0.015223	-55.461	-38.9497	54.5574
  30	1	7	0.123165	-54.4008	-39.8485	55.231
  31	1	2	-0.193552	-57.7209	-38.5123	53.7147
  32	1	2	-0.163782	-56.7952	-39.3664	54.3408
  33	1	1	0.167708	-58.7432	-38.8376	53.5473
  34	1	1	0.146296	-57.1318	-40.35	54.6508
  35	1	2	-0.183938	-58.4763	-34.3165	51.5708
  36	1	1	0.154545	-59.1114	-33.978	52.3841
  37	1	7	-0.193999	-54.8512	-41.328	55.3746
  38	1	7	-0.196778	-54.1831	-39.3058	56.6693
  39	1	9	0.051577	-54.0355	-41.9422	55.7773
  40	1	9	0.039353	-55.1397	-41.7559	54.4063
  41	1	9	0.072794	-55.7025	-41.425	56.0603
  42	1	9	0.05895	-55.1327	-39.2821	57.2197
  43	1	9	0.044008	-53.7872	-38.2824	56.6556
  44	1	9	0.064391	-53.4897	-39.938	57.2381
  45	1	1	0.130931	-51.713	-39.2871	55.9445
  46	1	2	-0.035623	-51.8417	-39.5325	54.8947
  47	1	2	-0.458756	-50.7074	-39.5298	54.0631
  48	1	1	0.207809	-49.7325	-39.2849	54.4756
  49	1	2	0.31527	-50.821	-39.8308	52.7003
  50	1	2	-0.466224	-52.0773	-40.1559	52.1738
  51	1	1	0.20556	-52.1717	-40.3923	51.1172
  52	1	2	-0.031899	-53.2157	-40.1553	52.9981
  53	1	1	0.127567	-54.1861	-40.3926	52.567
  54	1	2	0.005289	-53.1179	-39.8411	54.3709
  55	1	1	0.144011	-47.7812	-39.9424	50.1427
  56	1	2	-0.407424	-48.0519	-40.9098	50.5573
  57	1	2	0.096878	-47.3702	-42.0655	50.1345
  58	1	1	0.131719	-46.5753	-41.9864	49.3959
  59	1	2	0.007579	-47.7026	-43.3217	50.6709
  60	1	3	0.947259	-46.7373	-44.7574	50.1368
  61	1	2	-0.433296	-48.7388	-43.4213	51.6296
  62	1	1	0.195208	-49.0027	-44.3967	52.0372
  63	1	2	0.002203	-49.429	-42.2648	52.0406
  64	1	1	0.245959	-50.2277	-42.3475	52.7757
  65	1	2	0.108341	-49.0833	-41.0024	51.5089
  66	1	4	-0.012027	-49.7096	-39.8467	51.9044
  67	1	5	-0.530873	-47.4572	-45.9632	50.5636
  68	1	5	-0.5745	-46.3151	-44.5322	48.7483
  69	1	1	0.177717	-43.9866	-43.9026	49.5734
  70	1	2	-0.13906	-44.0527	-44.1324	50.6359
  71	1	2	-0.172291	-42.9244	-43.9726	51.4595
  72	1	1	0.137587	-41.9894	-43.6267	51.0291
  73	1	2	0.27179	-43.0053	-44.2608	52.8353
  74	1	6	-0.297458	-41.9268	-44.1013	53.6759
  75	1	1	0.184682	-46.2653	-45.2992	52.9698
  76	1	2	-0.177057	-45.3343	-44.9207	52.5505
  77	1	2	-0.065252	-45.2657	-44.6005	51.1797
  78	1	1	0.164016	-39.3986	-44.6058	54.0573
  79	1	1	0.144303	-37.5199	-43.0554	53.6737
  80	1	2	-0.207027	-39.5927	-43.5953	53.7098
  81	1	2	-0.150602	-38.5289	-42.7034	53.4866
  82	1	2	0.201726	-40.9129	-43.196	53.4716
  83	1	2	0.015223	-38.7719	-41.3904	53.0182
  84	1	7	0.123165	-37.6403	-40.3834	52.7115
  85	1	2	-0.193552	-41.1742	-41.8848	53.043
  86	1	2	-0.163782	-40.1113	-40.9953	52.8083
  87	1	1	0.167708	-42.1987	-41.5624	52.8826
  88	1	1	0.146296	-40.3289	-39.9915	52.4521
  89	1	2	-0.183938	-44.2054	-44.7505	53.3724
  90	1	1	0.154545	-44.2537	-44.9924	54.43
  91	1	7	-0.193999	-36.2201	-40.9847	52.9008
  92	1	7	-0.196778	-37.7541	-39.2142	53.7283
  93	1	9	0.051577	-35.4499	-40.2504	52.6324
  94	1	9	0.039353	-36.0662	-41.8661	52.2655
  95	1	9	0.072794	-36.0458	-41.2789	53.9439
  96	1	9	0.05895	-37.7153	-39.5943	54.7575
  97	1	9	0.044008	-38.6985	-38.668	53.6152
  98	1	9	0.064391	-36.9292	-38.4998	53.6116
  99	1	1	0.130931	-37.8081	-41.972	50.5049
 100	1	2	-0.035623	-37.8216	-40.9197	50.2303
 101	1	2	-0.458756	-37.8944	-40.5644	48.8723
 102	1	1	0.207809	-37.9399	-41.3398	48.1141
 103	1	2	0.31527	-37.8964	-39.2188	48.4821
 104	1	2	-0.466224	-37.8771	-38.2287	49.4778
 105	1	1	0.20556	-37.9116	-37.1817	49.1901
 106	1	2	-0.031899	-37.7985	-38.5775	50.8401
 107	1	1	0.127567	-37.7648	-37.7804	51.5764
 108	1	2	0.005289	-37.7602	-39.9339	51.2376
 109	1	1	0.144011	-35.6836	-37.7073	47.9261
 110	1	2	-0.407424	-36.0676	-37.415	46.952
 111	1	2	0.096878	-35.3605	-36.4603	46.1922
 112	1	1	0.131719	-34.454	-36.0136	46.5967
 113	1	2	0.007579	-35.8243	-36.0725	44.9203
 114	1	3	0.947259	-34.914	-34.7926	44.0041
 115	1	2	-0.433296	-37.0108	-36.6503	44.4109
 116	1	1	0.195208	-37.3865	-36.3337	43.438
 117	1	2	0.002203	-37.7223	-37.5912	45.1807
 118	1	1	0.245959	-38.6429	-38.0249	44.7966
 119	1	2	0.108341	-37.2649	-37.9729	46.4562
 120	1	4	-0.012027	-37.992	-38.9163	47.1456
 121	1	5	-0.530873	-35.8826	-33.9693	43.2721
 122	1	5	-0.5745	-33.9555	-34.1498	44.9102
 123	1	1	0.177717	-34.5669	-37.6435	43.1581
 124	1	2	-0.13906	-33.9445	-37.0105	42.5304
 125	1	2	-0.172291	-33.148	-37.5981	41.5287
 126	1	1	0.137587	-33.1555	-38.6745	41.3875
 127	1	2	0.27179	-32.328	-36.8082	40.7059
 128	1	6	-0.297458	-31.554	-37.4466	39.7593
 129	1	1	0.184682	-33.1014	-33.7393	42.02
 130	1	2	-0.177057	-33.1123	-34.8198	41.8801
 131	1	2	-0.065252	-33.9262	-35.6124	42.7166
 132	1	1	0.164016	-32.1071	-36.2911	37.4546
 133	1	1	0.144303	-30.4771	-35.2381	35.9359
 134	1	2	-0.207027	-31.0554	-36.2645	37.7245
 135	1	2	-0.150602	-30.1143	-35.6732	36.8612
 136	1	2	0.201726	-30.6425	-36.8287	38.9381
 137	1	2	0.015223	-28.7377	-35.6426	37.1937
 138	1	7	0.123165	-27.6762	-34.9461	36.3031
 139	1	2	-0.193552	-29.2847	-36.8119	39.2835
 140	1	2	-0.163782	-28.3424	-36.2167	38.4234
 141	1	1	0.167708	-28.9684	-37.263	40.2192
 142	1	1	0.146296	-27.2943	-36.2038	38.7122
 143	1	2	-0.183938	-32.3163	-35.4115	40.8801
 144	1	1	0.154545	-31.6919	-34.7857	40.2495
 145	1	7	-0.193999	-27.2429	-33.6658	37.0707
 146	1	7	-0.196778	-28.2432	-34.4946	34.9301
 147	1	9	0.051577	-28.1224	-33.1063	37.4147
 148	1	9	0.039353	-26.6556	-32.9834	36.445
 149	1	9	0.072794	-26.6434	-33.9195	37.9541
 150	1	9	0.05895	-29.038	-33.7474	35.0471
 151	1	9	0.044008	-28.6445	-35.3497	34.3709
 152	1	9	0.064391	-27.4587	-34.039	34.3121
 153	1	1	0.130931	-27.5406	-37.7373	36.1928
 154	1	2	-0.035623	-26.5862	-37.2662	35.969
 155	1	2	-0.458756	-25.4857	-38.0799	35.6355
 156	1	1	0.207809	-25.5997	-39.1602	35.6179
 157	1	2	0.31527	-24.2475	-37.5156	35.2984
 158	1	2	-0.466224	-24.1293	-36.1163	35.2858
 159	1	1	0.20556	-23.1995	-35.6509	34.9701
 160	1	2	-0.031899	-25.2192	-35.3007	35.6314
 161	1	1	0.127567	-25.0924	-34.224	35.5797
 162	1	2	0.005289	-26.4642	-35.859	35.9975
 163	1	1	0.144011	-21.3131	-38.8964	33.2054
 164	1	2	-0.407424	-20.9662	-38.3502	34.0787
 165	1	2	0.096878	-19.6052	-38.0067	34.1935
 166	1	1	0.131719	-18.9057	-38.2984	33.4129
 167	1	2	0.007579	-19.143	-37.2952	35.3158
 168	1	3	0.947259	-17.3757	-36.9027	35.421
 169	1	2	-0.433296	-20.0515	-36.9507	36.3451
 170	1	1	0.195208	-19.6884	-36.4331	37.2323
 171	1	2	0.002203	-21.4078	-37.3123	36.2353
 172	1	1	0.245959	-22.1049	-37.0648	37.0337
 173	1	2	0.108341	-21.8745	-37.9922	35.091
 174	1	4	-0.012027	-23.198	-38.3344	34.9554
 175	1	5	-0.530873	-17.0826	-36.5494	36.8158
 176	1	5	-0.5745	-16.6502	-37.9619	34.7086
 177	1	1	0.177717	-16.5102	-36.4354	32.6593
 178	1	2	-0.13906	-16.7223	-35.4654	33.1062
 179	1	2	-0.172291	-16.4725	-34.2898	32.3756
 180	1	1	0.137587	-16.0773	-34.3446	31.3655
 181	1	2	0.27179	-16.6829	-33.0345	32.9687
 182	1	6	-0.297458	-16.3285	-31.8874	32.3006
 183	1	1	0.184682	-17.7654	-34.0616	36.0484
 184	1	2	-0.177057	-17.4285	-34.1261	35.0145
 185	1	2	-0.065252	-17.1889	-35.3903	34.4353
 186	1	1	0.164016	-14.1094	-33.04	33.3129
 187	1	1	0.144303	-11.8156	-32.442	32.755
 188	1	2	-0.207027	-13.9363	-32.2415	32.5975
 189	1	2	-0.150602	-12.6152	-31.8829	32.2809
 190	1	2	0.201726	-15.0189	-31.5695	32.0049
 191	1	2	0.015223	-12.3332	-30.8199	31.3896
 192	1	7	0.123165	-10.8705	-30.3877	31.0776
 193	1	2	-0.193552	-14.7603	-30.5341	31.0975
 194	1	2	-0.163782	-13.4365	-30.1634	30.7916
 195	1	1	0.167708	-15.5951	-30.0148	30.6362
 196	1	1	0.146296	-13.2797	-29.3606	30.0785
 197	1	2	-0.183938	-17.1785	-32.9519	34.2789
 198	1	1	0.154545	-17.3237	-31.9755	34.732
 199	1	7	-0.193999	-9.94498	-30.7415	32.2815
 200	1	7	-0.196778	-10.7897	-28.8431	30.9227
 201	1	9	0.051577	-8.96832	-30.2482	32.2161
 202	1	9	0.039353	-9.7549	-31.8208	32.3355
 203	1	9	0.072794	-10.3974	-30.421	33.2291
 204	1	9	0.05895	-11.2675	-28.3387	31.7727
 205	1	9	0.044008	-11.2754	-28.5026	30.0006
 206	1	9	0.064391	-9.74895	-28.4994	30.8742
 207	1	1	0.130931	-12.225	-31.8088	29.0505
 208	1	2	-0.035623	-11.1602	-31.7066	28.8623
 209	1	2	-0.458756	-10.6355	-32.2565	27.6775
 210	1	1	0.207809	-11.2932	-32.7688	26.9808
 211	1	2	0.31527	-9.2699	-32.1577	27.3844
 212	1	2	-0.466224	-8.42932	-31.4874	28.2822
 213	1	1	0.20556	-7.3662	-31.4147	28.0693
 214	1	2	-0.031899	-8.94889	-30.9289	29.4635
 215	1	1	0.127567	-8.27068	-30.4088	30.1334
 216	1	2	0.005289	-10.3226	-31.0344	29.7821
 217	1	1	0.144011	-7.70847	-33.7188	24.0719
 218	1	2	-0.407424	-7.76945	-32.6337	24.061
 219	1	2	0.096878	-7.34322	-31.9242	22.922
 220	1	1	0.131719	-6.96042	-32.4667	22.0602
 221	1	2	0.007579	-7.43796	-30.5215	22.8806
 222	1	3	0.947259	-6.9626	-29.6676	21.3501
 223	1	2	-0.433296	-7.95751	-29.8274	24.0
 224	1	1	0.195208	-8.06272	-28.7439	23.9572
 225	1	2	0.002203	-8.3969	-30.5413	25.1328
 226	1	1	0.245959	-8.83052	-30.0021	25.9729
 227	1	2	0.108341	-8.30705	-31.9506	25.1672
 228	1	4	-0.012027	-8.77297	-32.6936	26.2262
 229	1	5	-0.530873	-7.09066	-30.6115	20.2327
 230	1	5	-0.5745	-7.64429	-28.3674	21.3574
 231	1	1	0.177717	-5.53341	-27.8571	23.1315
 232	1	2	-0.13906	-4.78828	-28.357	22.5154
 233	1	2	-0.172291	-3.42581	-28.0352	22.6543
 234	1	1	0.137587	-3.10621	-27.2975	23.3839
 235	1	2	0.27179	-2.47143	-28.6468	21.8278
 236	1	6	-0.297458	-1.14783	-28.3076	21.9541
 237	1	1	0.184682	-4.54374	-30.6486	19.9824
 238	1	2	-0.177057	-4.23272	-29.929	20.7389
 239	1	2	-0.065252	-5.1985	-29.3087	21.5604
 240	1	1	0.164016	1.38691	-28.7363	21.5079
 241	1	1	0.144303	2.75316	-27.7175	19.712
 242	1	2	-0.207027	0.933013	-28.0377	20.8115
 243	1	2	-0.150602	1.70247	-27.45	19.7923
 244	1	2	0.201726	-0.427238	-27.7316	20.9351
 245	1	2	0.015223	1.132	-26.5202	18.8925
 246	1	7	0.123165	2.00106	-25.8869	17.7808
 247	1	2	-0.193552	-1.01732	-26.8276	20.0367
 248	1	2	-0.163782	-0.246046	-26.2306	19.0227
 249	1	1	0.167708	-2.07068	-26.5801	20.1306
 250	1	1	0.146296	-0.735085	-25.5418	18.3416
 251	1	2	-0.183938	-2.87245	-29.5946	20.8725
 252	1	1	0.154545	-2.12613	-30.0592	20.2345
 253	1	7	-0.193999	1.45994	-24.5077	17.3095
 254	1	7	-0.196778	1.94263	-26.8331	16.5519
 255	1	9	0.051577	1.2953	-23.8297	18.156
 256	1	9	0.039353	0.512846	-24.6045	16.7645
 257	1	9	0.072794	2.1749	-24.0262	16.6298
 258	1	9	0.05895	2.32575	-27.831	16.8006
 259	1	9	0.044008	2.5249	-26.4344	15.711
 260	1	9	0.064391	0.908398	-26.9582	16.2066
 261	1	1	0.130931	4.47869	-26.9239	16.8654
 262	1	2	-0.035623	4.57266	-26.2725	17.7287
 263	1	2	-0.458756	5.85312	-26.0764	18.2742
 264	1	1	0.207809	6.69302	-26.5992	17.8278
 265	1	2	0.31527	6.03902	-25.2519	19.3987
 266	1	2	-0.466224	4.91796	-24.6379	19.9715
 267	1	1	0.20556	5.04342	-24.0142	20.8518
 268	1	2	-0.031899	3.633	-24.8433	19.4398
 269	1	1	0.127567	2.77635	-24.38	19.9241
 270	1	2	0.005289	3.43784	-25.6604	18.3062
 271	1	1	0.144011	8.68574	-26.7986	21.3204
 272	1	2	-0.407424	9.0944	-26.5412	20.3469
 273	1	2	0.096878	10.2746	-27.1585	19.8974
 274	1	1	0.131719	10.7757	-27.8877	20.5298
 275	1	2	0.007579	10.8079	-26.8382	18.636
 276	1	3	0.947259	12.3577	-27.6326	18.1414
 277	1	2	-0.433296	10.1564	-25.8803	17.8218
 278	1	1	0.195208	10.5722	-25.6336	16.8452
 279	1	2	0.002203	8.97247	-25.2661	18.2744
 280	1	1	0.245959	8.45637	-24.537	17.6526
 281	1	2	0.108341	8.43368	-25.6081	19.5306
 282	1	4	-0.012027	7.26884	-25.0423	19.9742
 283	1	5	-0.530873	12.4471	-28.9138	18.8523
 284	1	5	-0.5745	12.5006	-27.5178	16.6846
 285	1	1	0.177717	13.8565	-25.3469	17.1087
 286	1	2	-0.13906	14.1115	-25.4594	18.1614
 287	1	2	-0.172291	14.9794	-24.5421	18.7777
 288	1	1	0.137587	15.3905	-23.7136	18.209
 289	1	2	0.27179	15.3039	-24.6873	20.1373
 290	1	6	-0.297458	16.1229	-23.7923	20.7753
 291	1	1	0.184682	13.4484	-27.466	20.8572
 292	1	2	-0.177057	13.8784	-26.6534	20.2742
 293	1	2	-0.065252	13.555	-26.5165	18.9084
 294	1	1	0.164016	17.6841	-24.8918	18.8538
 295	1	1	0.144303	19.8486	-24.0008	18.1184
 296	1	2	-0.207027	18.0425	-23.9588	19.2782
 297	1	2	-0.150602	19.2872	-23.4499	18.8664
 298	1	2	0.201726	17.2984	-23.2935	20.2701
 299	1	2	0.015223	19.8072	-22.2699	19.4429
 300	1	7	0.123165	21.1832	-21.6896	19.0695
 301	1	2	-0.193552	17.8062	-22.1257	20.8476
 302	1	2	-0.163782	19.0471	-21.6168	20.4376
 303	1	1	0.167708	17.2392	-21.6268	21.6282
 304	1	1	0.146296	19.4266	-20.7149	20.9116
 305	1	2	-0.183938	14.7465	-25.7332	20.8857
 306	1	1	0.154545	14.9889	-25.8193	21.9411
 307	1	7	-0.193999	21.803	-22.309	17.7855
 308	1	7	-0.196778	22.1569	-22.0397	20.2258
 309	1	9	0.051577	22.7372	-21.7959	17.5226
 310	1	9	0.039353	21.126	-22.2269	16.9285
 311	1	9	0.072794	22.0417	-23.371	17.9244
 312	1	9	0.05895	22.2443	-23.1276	20.3442
 313	1	9	0.044008	21.7991	-21.6418	21.183
 314	1	9	0.064391	23.1615	-21.6429	20.0379
 315	1	1	0.130931	22.1428	-19.4974	20.5757
 316	1	2	-0.035623	21.5563	-19.2044	19.7121
 317	1	2	-0.458756	21.3395	-17.8347	19.4899
 318	1	1	0.207809	21.7704	-17.1076	20.1748
 319	1	2	0.31527	20.5773	-17.4015	18.3992
 320	1	2	-0.466224	19.9994	-18.3521	17.5486
 321	1	1	0.20556	19.3914	-18.0186	16.7125
 322	1	2	-0.031899	20.1971	-19.7249	17.7779
 323	1	1	0.127567	19.7147	-20.4474	17.1247
 324	1	2	0.005289	21.0069	-20.1728	18.8439
 325	1	1	0.144011	19.7641	-14.6574	16.0104
 326	1	2	-0.407424	20.8365	-14.7668	16.1492
 327	1	2	0.096878	21.7247	-14.2101	15.2098
 328	1	1	0.131719	21.3337	-13.6769	14.3453
 329	1	2	0.007579	23.1141	-14.3646	15.3707
 330	1	3	0.947259	24.2153	-13.7572	14.0691
 331	1	2	-0.433296	23.6156	-15.0523	16.4978
 332	1	1	0.195208	24.6919	-15.1493	16.6337
 333	1	2	0.002203	22.7272	-15.6135	17.4325
 334	1	1	0.245959	23.1176	-16.1633	18.288
 335	1	2	0.108341	21.3346	-15.4805	17.2538
 336	1	4	-0.012027	20.4567	-16.0697	18.1229
 337	1	5	-0.530873	25.4823	-13.2947	14.6489
 338	1	5	-0.5745	23.4468	-12.8844	13.1749
 339	1	1	0.177717	22.9791	-16.4677	13.782
 340	1	2	-0.13906	23.8622	-16.4114	13.1499
 341	1	2	-0.172291	24.2446	-17.5422	12.4033
 342	1	1	0.137587	23.6648	-18.4592	12.468
 343	1	2	0.27179	25.3857	-17.4931	11.5821
 344	1	6	-0.297458	25.8079	-18.5829	10.8605
 345	1	1	0.184682	26.3803	-14.2829	12.2373
 346	1	2	-0.177057	25.7855	-15.195	12.2813
 347	1	2	-0.065252	24.638	-15.2309	13.0975
 348	1	1	0.164016	23.4715	-18.0794	9.64519
 349	1	1	0.144303	22.06	-19.7585	8.51977
 350	1	2	-0.207027	23.7752	-19.1217	9.64486
 351	1	2	-0.150602	22.9755	-20.085	9.00153
 352	1	2	0.201726	24.9773	-19.501	10.2632
 353	1	2	0.015223	23.3606	-21.4455	8.96261
 354	1	7	0.123165	22.5249	-22.5048	8.20513
 355	1	2	-0.193552	25.3882	-20.8358	10.2027
 356	1	2	-0.163782	24.5924	-21.7976	9.55877
 357	1	1	0.167708	26.3306	-21.1269	10.6532
 358	1	1	0.146296	24.947	-22.8235	9.53775
 359	1	2	-0.183938	26.1569	-16.3235	11.5302
 360	1	1	0.154545	27.0358	-16.2948	10.8952
 361	1	7	-0.193999	22.9946	-22.4804	6.72492
 362	1	7	-0.196778	21.0074	-22.1541	8.18471
 363	1	9	0.051577	22.7535	-21.5201	6.25174
 364	1	9	0.039353	22.5105	-23.2739	6.14113
 365	1	9	0.072794	24.0822	-22.6034	6.64905
 366	1	9	0.05895	20.7912	-21.3078	7.52172
 367	1	9	0.044008	20.6403	-21.8877	9.18353
 368	1	9	0.064391	20.4188	-23.0064	7.82108
 369	1	1	0.130931	21.3316	-23.5067	10.4941
 370	1	2	-0.035623	22.0073	-24.2264	10.0423
 371	1	2	-0.458756	22.213	-25.4555	10.6927
 372	1	1	0.207809	21.7047	-25.6641	11.6296
 373	1	2	0.31527	23.1269	-26.3819	10.1802
 374	1	2	-0.466224	23.8172	-26.0825	8.99992
 375	1	1	0.20556	24.5546	-26.7836	8.61904
 376	1	2	-0.031899	23.5997	-24.8641	8.33439
 377	1	1	0.127567	24.179	-24.6608	7.43942
 378	1	2	0.005289	22.7001	-23.903	8.85351
 379	1	1	0.144011	24.7026	-29.5506	11.9715
 380	1	2	-0.407424	25.1443	-28.5956	12.2454
 381	1	2	0.096878	26.2956	-28.5643	13.0554
 382	1	1	0.131719	26.7358	-29.4982	13.3995
 383	1	2	0.007579	26.8908	-27.334	13.3954
 384	1	3	0.947259	28.4483	-27.3219	14.3181
 385	1	2	-0.433296	26.3181	-26.1296	12.931
 386	1	1	0.195208	26.7849	-25.1772	13.1761
 387	1	2	0.002203	25.1745	-26.1627	12.1145
 388	1	1	0.245959	24.7587	-25.2244	11.7438
 389	1	2	0.108341	24.5859	-27.3988	11.7599
 390	1	4	-0.012027	23.4921	-27.4634	10.9303
 391	1	5	-0.530873	28.7765	-28.7157	14.6384
 392	1	5	-0.5745	28.3881	-26.2831	15.3559
 393	1	1	0.177717	30.4388	-25.1519	14.2603
 394	1	2	-0.13906	30.45	-25.6422	13.2886
 395	1	2	-0.172291	31.3154	-25.1793	12.2795
 396	1	1	0.137587	31.9709	-24.3337	12.4664
 397	1	2	0.27179	31.3476	-25.8197	11.0309
 398	1	6	-0.297458	32.2393	-25.3984	10.0715
 399	1	1	0.184682	28.9744	-28.2211	11.5863
 400	1	2	-0.177057	29.6281	-27.3742	11.7866
 401	1	2	-0.065252	29.604	-26.7447	13.0478
 402	1	1	0.164016	33.3718	-27.6466	10.9422
 403	1	1	0.144303	34.6234	-29.2525	9.56191
 404	1	2	-0.207027	33.5141	-27.445	9.88415
 405	1	2	-0.150602	34.2347	-28.3547	9.09205
 406	1	2	0.201726	32.9671	-26.2857	9.31214
 407	1	2	0.015223	34.4376	-28.1207	7.71296
 408	1	7	0.123165	35.2095	-29.1419	6.84298
 409	1	2	-0.193552	33.1479	-26.0418	7.94476
 410	1	2	-0.163782	33.8572	-26.9612	7.14796
 411	1	1	0.167708	32.7121	-25.1505	7.5016
 412	1	1	0.146296	33.9472	-26.7649	6.083
 413	1	2	-0.183938	30.4921	-26.9076	10.7817
 414	1	1	0.154545	30.5075	-27.3927	9.80974
 415	1	7	-0.193999	34.241	-30.3147	6.53202
 416	1	7	-0.196778	36.4058	-29.76	7.6271
 417	1	9	0.051577	34.7172	-31.0606	5.8825
 418	1	9	0.039353	33.3253	-29.9577	6.04477
 419	1	9	0.072794	33.9329	-30.8246	7.45393
 420	1	9	0.05895	37.0085	-28.9868	8.11999
 421	1	9	0.044008	37.0635	-30.3234	6.95263
 422	1	9	0.064391	36.0735	-30.4568	8.40589
 423	1	1	0.130931	37.331	-27.4012	6.60753
 424	1	2	-0.035623	36.8689	-27.5985	5.64466
 425	1	2	-0.458756	37.381	-26.954	4.50512
 426	1	1	0.207809	38.2252	-26.2775	4.60469
 427	1	2	0.31527	36.8187	-27.1786	3.24347
 428	1	2	-0.466224	35.7124	-28.0339	3.13969
 429	1	1	0.20556	35.2573	-28.199	2.16745
 430	1	2	-0.031899	35.1926	-28.6793	4.27823
 431	1	1	0.127567	34.3347	-29.3316	4.14996
 432	1	2	0.005289	35.7667	-28.4765	5.5561
 433	1	1	0.144011	38.1657	-29.0758	1.93168
 434	1	2	-0.407424	38.3768	-28.4303	1.0825
 435	1	2	0.096878	39.0589	-28.9582	-0.0332491
 436	1	1	0.131719	39.3495	-30.0065	-0.035955
 437	1	2	0.007579	39.3493	-28.1453	-1.1473
 438	1	3	0.947259	40.1666	-28.8776	-2.59793
 439	1	2	-0.433296	38.9353	-26.7933	-1.13887
 440	1	1	0.195208	39.1242	-26.1709	-2.01005
 441	1	2	0.002203	38.2467	-26.2731	-0.0265782
 442	1	1	0.245959	37.912	-25.2402	-0.0270606
 443	1	2	0.108341	37.9631	-27.0818	1.0888
 444	1	4	-0.012027	37.3062	-26.5079	2.15205
 445	1	5	-0.530873	40.0817	-30.3354	-2.45146
 446	1	5	-0.5745	39.668	-28.1828	-3.79251
 447	1	1	0.177717	41.8497	-26.8865	-3.9527
 448	1	2	-0.13906	42.4824	-27.4278	-3.25194
 449	1	2	-0.172291	43.8567	-27.1307	-3.17446
 450	1	1	0.137587	44.2768	-26.3399	-3.7877
 451	1	2	0.27179	44.6855	-27.8534	-2.29809
 452	1	6	-0.297458	46.0228	-27.5628	-2.14559
 453	1	1	0.184682	42.3358	-29.9379	-0.931515
 454	1	2	-0.177057	42.7543	-29.146	-1.55063
 455	1	2	-0.065252	41.9219	-28.438	-2.44083
 456	1	1	0.164016	45.7819	-27.9859	-4.83377
 457	1	1	0.144303	47.6	-27.7183	-6.46453
 458	1	2	-0.207027	46.7567	-27.6546	-4.49183
 459	1	2	-0.150602	47.8058	-27.5036	-5.42231
 460	1	2	0.201726	46.9815	-27.4082	-3.12565
 461	1	2	0.015223	49.1064	-27.1197	-5.0103
 462	1	7	0.123165	50.2996	-26.9972	-5.99958
 463	1	2	-0.193552	48.2672	-27.0491	-2.70476
 464	1	2	-0.163782	49.3173	-26.9179	-3.62868
 465	1	1	0.167708	48.4537	-26.8955	-1.64597
 466	1	1	0.146296	50.3056	-26.6706	-3.25417
 467	1	2	-0.183938	44.1266	-28.8443	-1.47582
 468	1	1	0.154545	44.7672	-29.3806	-0.781976
 469	1	7	-0.193999	51.1018	-25.7048	-5.66227
 470	1	7	-0.196778	49.8372	-26.8226	-7.4694
 471	1	9	0.051577	50.4242	-24.8467	-5.55548
 472	1	9	0.039353	51.8184	-25.449	-6.4527
 473	1	9	0.072794	51.6688	-25.8038	-4.72945
 474	1	9	0.05895	50.6963	-26.661	-8.13277
 475	1	9	0.044008	49.1786	-25.9536	-7.57366
 476	1	9	0.064391	49.3121	-27.7097	-7.83957
 477	1	1	0.130931	53.0831	-27.2919	-6.32226
 478	1	2	-0.035623	52.5735	-28.2364	-6.156
 479	1	2	-0.458756	53.3357	-29.4215	-6.15293
 480	1	1	0.207809	54.414	-29.3699	-6.27877
 481	1	2	0.31527	52.7197	-30.6658	-5.94066
 482	1	2	-0.466224	51.3364	-30.7079	-5.73869
 483	1	1	0.20556	50.8527	-31.6651	-5.56727
 484	1	2	-0.031899	50.5715	-29.5305	-5.74199
 485	1	1	0.127567	49.4986	-29.6099	-5.5939
 486	1	2	0.005289	51.1753	-28.2704	-5.94337
 487	1	1	0.144011	55.4492	-33.2647	-5.04015
 488	1	2	-0.407424	55.5256	-32.9502	-6.07763
 489	1	2	0.096878	56.6301	-33.3519	-6.84891
 490	1	1	0.131719	57.4039	-33.9728	-6.4026
 491	1	2	0.007579	56.7385	-32.9581	-8.19382
 492	1	3	0.947259	58.2088	-33.4909	-9.10756
 493	1	2	-0.433296	55.7192	-32.1646	-8.77436
 494	1	1	0.195208	55.7889	-31.8778	-9.82332
 495	1	2	0.002203	54.6027	-31.7826	-8.00391
 496	1	1	0.245959	53.7968	-31.211	-8.45795
 497	1	2	0.108341	54.5143	-32.1584	-6.64754
 498	1	4	-0.012027	53.4294	-31.8366	-5.87405
 499	1	5	-0.530873	58.5478	-34.8442	-8.65133
 500	1	5	-0.5745	58.0201	-33.1594	-10.5249
 501	1	1	0.177717	58.9468	-30.747	-9.76566
 502	1	2	-0.13906	59.5947	-31.0725	-8.95282
 503	1	2	-0.172291	60.5553	-30.1944	-8.42097
 504	1	1	0.137587	60.6478	-29.1876	-8.81758
 505	1	2	0.27179	61.3985	-30.6178	-7.37671
 506	1	6	-0.297458	62.3551	-29.782	-6.85179
 507	1	1	0.184682	60.2299	-33.809	-6.99444
 508	1	2	-0.177057	60.3124	-32.7965	-7.38732
 509	1	2	-0.065252	59.4701	-32.3783	-8.43893
 510	1	1	0.164016	62.8456	-27.2709	-6.29896
 511	1	1	0.144303	64.0902	-25.6837	-7.72409
 512	1	2	-0.207027	63.2743	-27.6064	-7.23886
 513	1	2	-0.150602	63.9816	-26.7097	-8.05995
 514	1	2	0.201726	63.0987	-28.9368	-7.63666
 515	1	2	0.015223	64.5284	-27.136	-9.29365
 516	1	7	0.123165	65.2773	-26.1806	-10.2519
 517	1	2	-0.193552	63.6727	-29.3874	-8.83474
 518	1	2	-0.163782	64.3881	-28.4956	-9.65076
 519	1	1	0.167708	63.5563	-30.4256	-9.13265
 520	1	1	0.146296	64.8195	-28.8593	-10.5803
 521	1	2	-0.183938	61.2697	-31.9135	-6.8564
 522	1	1	0.154545	61.9256	-32.2302	-6.05083
 523	1	7	-0.193999	66.7917	-26.4767	-10.0858
 524	1	7	-0.196778	65.0538	-24.6834	-9.91104
 525	1	9	0.051577	67.0427	-27.4778	-10.4588
 526	1	9	0.039353	67.0776	-26.4361	-9.02669
 527	1	9	0.072794	67.4112	-25.7432	-10.6159
 528	1	9	0.05895	65.5298	-24.0408	-10.6627
 529	1	9	0.044008	65.485	-24.4203	-8.93697
 530	1	9	0.064391	63.9842	-24.4376	-9.89673
 531	1	1	0.130931	62.6994	-26.5758	-11.1152
 532	1	2	-0.035623	63.4024	-26.5741	-11.9451
 533	1	2	-0.458756	62.918	-26.7685	-13.2492
 534	1	1	0.207809	61.8522	-26.913	-13.405
 535	1	2	0.31527	63.7926	-26.7519	-14.3481
 536	1	2	-0.466224	65.1568	-26.5312	-14.1203
 537	1	1	0.20556	65.8385	-26.4959	-14.965
 538	1	2	-0.031899	65.6495	-26.3483	-12.8152
 539	1	1	0.127567	66.7123	-26.1707	-12.6845
 540	1	2	0.005289	64.78	-26.3855	-11.7017
 541	1	1	0.144011	61.0878	-25.8984	-16.5271
 542	1	2	-0.407424	61.0614	-26.9723	-16.3628
 543	1	2	0.096878	59.8709	-27.6885	-16.5845
 544	1	1	0.131719	58.9813	-27.1636	-16.9251
 545	1	2	0.007579	59.8212	-29.0751	-16.35
 546	1	3	0.947259	58.2397	-29.9275	-16.5775
 547	1	2	-0.433296	60.9816	-29.7528	-15.9058
 548	1	1	0.195208	60.944	-30.8288	-15.7362
 549	1	2	0.002203	62.1718	-29.034	-15.687
 550	1	1	0.245959	63.066	-29.5437	-15.3343
 551	1	2	0.108341	62.2082	-27.6438	-15.906
 552	1	4	-0.012027	63.3447	-26.9343	-15.6316
 553	1	5	-0.530873	57.4454	-29.1416	-17.5304
 554	1	5	-0.5745	58.5119	-31.358	-16.7639
 555	1	1	0.177717	58.3057	-31.5539	-14.1401
 556	1	2	-0.13906	57.6933	-30.6758	-13.9367
 557	1	2	-0.172291	57.0905	-30.519	-12.6762
 558	1	1	0.137587	57.2276	-31.274	-11.9106
 559	1	2	0.27179	56.2742	-29.4084	-12.4185
 560	1	6	-0.297458	55.6197	-29.3046	-11.2159
 561	1	1	0.184682	56.4861	-27.8574	-15.4598
 562	1	2	-0.177057	56.6681	-28.5936	-14.6786
 563	1	2	-0.065252	57.4792	-29.7164	-14.947
 564	1	1	0.164016	53.9777	-30.4562	-13.0079
 565	1	1	0.144303	51.5706	-30.7232	-12.7647
 566	1	2	-0.207027	53.4966	-30.0779	-12.1099
 567	1	2	-0.150602	52.1092	-30.2359	-11.959
 568	1	2	0.201726	54.255	-29.451	-11.1075
 569	1	2	0.015223	51.4435	-29.7958	-10.7905
 570	1	7	0.123165	49.9203	-30.0156	-10.5729
 571	1	2	-0.193552	53.6108	-28.9875	-9.95319
 572	1	2	-0.163782	52.2231	-29.163	-9.79289
 573	1	1	0.167708	54.1963	-28.5018	-9.17767
 574	1	1	0.146296	51.7521	-28.7996	-8.8842
 575	1	2	-0.183938	56.0678	-28.4421	-13.4157
 576	1	1	0.154545	55.4218	-27.5936	-13.2108
 577	1	7	-0.193999	49.7329	-30.7089	-9.19457
 578	1	7	-0.196778	49.3178	-30.9803	-11.6341
 579	1	9	0.051577	49.9602	-30.0247	-8.37145
 580	1	9	0.039353	50.3957	-31.579	-9.10252
 581	1	9	0.072794	48.7057	-31.0617	-9.04676
 582	1	9	0.05895	48.2761	-31.2371	-11.4087
 583	1	9	0.044008	49.8771	-31.9239	-11.6756
 584	1	9	0.064391	49.327	-30.5229	-12.6318
 585	1	1	0.130931	47.2255	-29.6723	-10.1318
 586	1	2	-0.035623	47.7201	-28.7283	-10.3417
 587	1	2	-0.458756	46.9524	-27.5514	-10.3432
 588	1	1	0.207809	45.8849	-27.6	-10.1492
 589	1	2	0.31527	47.5568	-26.3133	-10.5953
 590	1	2	-0.466224	48.9276	-26.2701	-10.8816
 591	1	1	0.20556	49.3999	-25.3107	-11.0749
 592	1	2	-0.031899	49.6958	-27.4487	-10.9076
 593	1	1	0.127567	50.7529	-27.3709	-11.1457
 594	1	2	0.005289	49.1084	-28.6992	-10.6072
 595	1	1	0.144011	47.2071	-22.5587	-10.2317
 596	1	2	-0.407424	47.0573	-23.0882	-9.29473
 597	1	2	0.096878	47.1655	-22.3944	-8.07431
 598	1	1	0.131719	47.3983	-21.3314	-8.0776
 599	1	2	0.007579	47.0215	-23.0768	-6.85148
 600	1	3	0.947259	47.3028	-22.1588	-5.31601
 601	1	2	-0.433296	46.7245	-24.4595	-6.85368
 602	1	1	0.195208	46.6252	-24.9936	-5.91083
 603	1	2	0.002203	46.6212	-25.1481	-8.07598
 604	1	1	0.245959	46.4316	-26.2171	-8.07831
 605	1	2	0.108341	46.8162	-24.4724	-9.29795
 606	1	4	-0.012027	46.8336	-25.1567	-10.4856
 607	1	5	-0.530873	48.5591	-22.6602	-4.74683
 608	1	5	-0.5745	47.1168	-20.7362	-5.62712
 609	1	1	0.177717	47.1745	-24.1502	-3.15121
 610	1	2	-0.13906	46.1917	-23.6889	-3.24178
 611	1	2	-0.172291	45.156	-24.063	-2.36633
 612	1	1	0.137587	45.33	-24.8171	-1.60394
 613	1	2	0.27179	43.8925	-23.459	-2.46295
 614	1	6	-0.297458	42.9063	-23.8471	-1.58327
 615	1	1	0.184682	44.5306	-21.3104	-5.05581
 616	1	2	-0.177057	44.7004	-22.0915	-4.31585
 617	1	2	-0.065252	45.968	-22.6959	-4.21764
 618	1	1	0.164016	40.8428	-24.6866	-2.96626
 619	1	1	0.144303	38.6399	-23.5917	-3.08703
 620	1	2	-0.207027	40.6511	-23.789	-2.38648
 621	1	2	-0.150602	39.4036	-23.1459	-2.45822
 622	1	2	0.201726	41.6657	-23.2669	-1.57826
 623	1	2	0.015223	39.1543	-21.9519	-1.73769
 624	1	7	0.123165	37.7655	-21.2561	-1.766
 625	1	2	-0.193552	41.4356	-22.1043	-0.834018
 626	1	2	-0.163782	40.1915	-21.4536	-0.911301
 627	1	1	0.167708	42.2302	-21.7051	-0.209594
 628	1	1	0.146296	40.0395	-20.5642	-0.307998
 629	1	2	-0.183938	43.6662	-22.4745	-3.44622
 630	1	1	0.154545	42.6977	-21.9911	-3.53125
 631	1	7	-0.193999	36.992	-21.6082	-3.06874
 632	1	7	-0.196778	37.9472	-19.7111	-1.7726
 633	1	9	0.051577	36.0942	-20.9901	-3.18948
 634	1	9	0.039353	36.6583	-22.6533	-3.06486
 635	1	9	0.072794	37.6209	-21.445	-3.95367
 636	1	9	0.05895	37.0027	-19.1929	-1.97975
 637	1	9	0.044008	38.6664	-19.4051	-2.54336
 638	1	9	0.064391	38.3026	-19.34	-0.804119
 639	1	1	0.130931	38.3975	-22.9758	0.372344
 640	1	2	-0.035623	37.3999	-22.5533	0.43802
 641	1	2	-0.458756	36.6164	-22.8998	1.54677
 642	1	1	0.207809	37.0217	-23.5781	2.29396
 643	1	2	0.31527	35.3355	-22.3511	1.72514
 644	1	2	-0.466224	34.8318	-21.4851	0.74691
 645	1	1	0.20556	33.8399	-21.0591	0.870343