pySIMM System Object

596 atoms
639 bonds
1078 angles
1604 dihedrals
198 impropers

9 atom types
10 bond types
17 angle types
7 dihedral types
2 improper types

-122.486313 122.486313 xlo xhi
-122.486313 122.486313 ylo yhi
-122.486313 122.486313 zlo zhi

Masses

   1	1.008	# ha
   2	12.01	# ca
   3	32.06	# sy
   4	16.0	# oh
   5	16.0	# o
   6	16.0	# os
   7	12.01	# c3
   8	1.008	# ho
   9	1.008	# hc

Pair Coeffs

   1	0.015	2.59964245953351	# ha
   2	0.086	3.3996695084235347	# ca
   3	0.25	3.563594872561357	# sy
   4	0.2104	3.0664733878390478	# oh
   5	0.21	2.959921901149463	# o
   6	0.17	3.0000123434657784	# os
   7	0.1094	3.3996695084235347	# c3
   8	0.0	0.0	# ho
   9	0.0157	2.649532787749369	# hc

Bond Coeffs

   1	371.4	0.973	# ho,oh
   2	243.4	1.7909	# ca,sy
   3	461.1	1.3984	# ca,ca
   4	300.9	1.5375	# c3,c3
   5	330.6	1.0969	# c3,hc
   6	493.0	1.466	# o,sy
   7	345.8	1.086	# ca,ha
   8	321.0	1.5156	# c3,ca
   9	376.6	1.3696	# ca,os
  10	384.0	1.3637	# ca,oh

Angle Coeffs

   1	61.48	119.42	# ca,ca,sy
   2	72.54	121.41	# o,sy,o
   3	69.58	119.2	# ca,ca,os
   4	60.3	104.44	# ca,sy,ca
   5	46.34	109.8	# c3,c3,hc
   6	49.0	108.58	# ca,oh,ho
   7	65.77	108.35	# ca,sy,o
   8	63.48	119.89	# ca,os,ca
   9	69.52	119.9	# ca,ca,oh
  10	63.56	112.24	# ca,c3,ca
  11	62.86	111.51	# c3,c3,c3
  12	39.4	107.58	# hc,c3,hc
  13	66.62	120.02	# ca,ca,ca
  14	48.18	119.88	# ca,ca,ha
  15	63.15	112.07	# c3,c3,ca
  16	63.53	120.77	# c3,ca,ca
  17	63.5	119.89	# ca,oh,ca

Dihedral Coeffs

   1	1	0.9	2	180	# X,ca,oh,X
   2	1	1.3	2	180	# X,ca,sy,X
   3	1	0.16	3	0	# hc,c3,c3,c3
   4	1	3.625	2	180	# X,ca,ca,X
   5	1	0.0	2	0	# X,c3,ca,X
   6	1	0.15555555555555556	3	0	# X,c3,c3,X
   7	1	0.9	2	180	# X,ca,os,X

Improper Coeffs

   1	1.1	-1	2	# ca,X,X,ha
   2	1.1	-1	2	# ca,ca,ca,c3

Atoms

   1	1	1	0.144011	-21.9687	77.1053	-17.5388
   2	1	2	-0.407424	-21.2789	76.2671	-17.5819
   3	1	2	0.096878	-21.4225	75.2912	-18.5902
   4	1	1	0.131719	-22.2194	75.3847	-19.3244
   5	1	2	0.007579	-20.5483	74.1895	-18.6334
   6	1	3	0.947259	-20.8151	72.8992	-19.8763
   7	1	2	-0.433296	-19.506	74.087	-17.6844
   8	1	1	0.195208	-18.8182	73.2448	-17.7372
   9	1	2	0.002203	-19.3629	75.0626	-16.6843
  10	1	1	0.245959	-18.5695	74.9834	-15.9473
  11	1	2	0.108341	-20.2599	76.1423	-16.6206
  12	1	4	-0.012027	-20.153	77.0534	-15.6088
  13	1	5	-0.530873	-21.4743	73.5134	-21.037
  14	1	5	-0.5745	-19.5619	72.1415	-19.9765
  15	1	1	0.177717	-20.5442	70.937	-17.7399
  16	1	2	-0.13906	-21.5925	70.9508	-18.0325
  17	1	2	-0.172291	-22.5141	70.1048	-17.3893
  18	1	1	0.137587	-22.1787	69.4414	-16.5968
  19	1	2	0.27179	-23.8647	70.1032	-17.7854
  20	1	6	-0.297458	-24.787	69.2775	-17.1864
  21	1	1	0.184682	-23.6936	72.4241	-20.2969
  22	1	2	-0.177057	-23.366	71.7894	-19.4745
  23	1	2	-0.065252	-22.0155	71.8066	-19.0693
  24	1	1	0.164016	-24.468	66.8103	-16.353
  25	1	1	0.144303	-24.3076	66.0885	-13.9781
  26	1	2	-0.207027	-24.5278	67.5433	-15.5541
  27	1	2	-0.150602	-24.4364	67.143	-14.2096
  28	1	2	0.201726	-24.6974	68.8957	-15.8721
  29	1	2	0.015223	-24.5241	68.0862	-13.1617
  30	1	7	0.123165	-24.4701	67.5859	-11.7015
  31	1	2	-0.193552	-24.7849	69.848	-14.8472
  32	1	2	-0.163782	-24.7045	69.448	-13.5009
  33	1	1	0.167708	-24.9313	70.8937	-15.1008
  34	1	1	0.146296	-24.7956	70.2092	-12.733
  35	1	2	-0.183938	-24.2842	70.9358	-18.8347
  36	1	1	0.154545	-25.3245	70.9123	-19.1485
  37	1	7	-0.193999	-25.8125	66.8556	-11.4216
  38	1	7	-0.196778	-24.3746	68.7355	-10.6601
  39	1	9	0.051577	-25.884	66.5292	-10.3762
  40	1	9	0.039353	-25.9354	65.9765	-12.0667
  41	1	9	0.072794	-26.662	67.5235	-11.6157
  42	1	9	0.05895	-25.2765	69.3609	-10.6665
  43	1	9	0.044008	-23.5085	69.3814	-10.8501
  44	1	9	0.064391	-24.2665	68.3285	-9.64628
  45	1	1	0.130931	-21.8568	68.2049	-12.2136
  46	1	2	-0.035623	-21.9505	67.1926	-11.8269
  47	1	2	-0.458756	-20.7899	66.4203	-11.6287
  48	1	1	0.207809	-19.8189	66.8554	-11.8477
  49	1	2	0.31527	-20.88	65.1147	-11.1158
  50	1	2	-0.466224	-22.1479	64.597	-10.8195
  51	1	1	0.20556	-22.2292	63.5919	-10.4163
  52	1	2	-0.031899	-23.3096	65.3662	-11.0082
  53	1	1	0.127567	-24.2663	64.9259	-10.7449
  54	1	2	0.005289	-23.2289	66.6834	-11.5121
  55	1	1	0.144011	-17.8928	65.0074	-9.1586
  56	1	2	-0.407424	-17.5701	64.9697	-10.1958
  57	1	2	0.096878	-16.2325	65.26	-10.5248
  58	1	1	0.131719	-15.5312	65.5333	-9.73939
  59	1	2	0.007579	-15.7989	65.2049	-11.8625
  60	1	3	0.947259	-14.0669	65.6222	-12.2212
  61	1	2	-0.433296	-16.7255	64.8665	-12.88
  62	1	1	0.195208	-16.3974	64.8424	-13.9187
  63	1	2	0.002203	-18.0675	64.5887	-12.5479
  64	1	1	0.245959	-18.7857	64.3293	-13.3231
  65	1	2	0.108341	-18.4912	64.6437	-11.2064
  66	1	4	-0.012027	-19.7804	64.3298	-10.866
  67	1	5	-0.530873	-13.9597	65.9098	-13.6572
  68	1	5	-0.5745	-13.6419	66.5792	-11.1919
  69	1	1	0.177717	-13.2557	63.4024	-13.9538
  70	1	2	-0.13906	-12.9014	63.1766	-12.9495
  71	1	2	-0.172291	-12.1914	61.9851	-12.708
  72	1	1	0.137587	-12.0239	61.2864	-13.5212
  73	1	2	0.27179	-11.7123	61.6923	-11.4174
  74	1	6	-0.297458	-11.0627	60.509	-11.1259
  75	1	1	0.184682	-12.8353	64.4976	-9.79584
  76	1	2	-0.177057	-12.6683	63.7914	-10.6084
  77	1	2	-0.065252	-13.1554	64.0829	-11.9
  78	1	1	0.164016	-11.2077	57.8984	-11.1392
  79	1	1	0.144303	-9.92675	56.3553	-12.6131
  80	1	2	-0.207027	-10.5603	58.2987	-11.9137
  81	1	2	-0.150602	-9.83869	57.4289	-12.7575
  82	1	2	0.201726	-10.4168	59.6896	-12.0277
  83	1	2	0.015223	-8.94936	57.9357	-13.7301
  84	1	7	0.123165	-7.96832	56.9863	-14.464
  85	1	2	-0.193552	-9.54301	60.2093	-12.9935
  86	1	2	-0.163782	-8.82393	59.3435	-13.8374
  87	1	1	0.167708	-9.38654	61.2825	-13.0563
  88	1	1	0.146296	-8.12079	59.7883	-14.5331
  89	1	2	-0.183938	-11.9552	62.5997	-10.372
  90	1	1	0.154545	-11.5866	62.372	-9.3759
  91	1	7	-0.193999	-6.79861	56.7736	-13.4653
  92	1	7	-0.196778	-7.361	57.6389	-15.7381
  93	1	9	0.051577	-5.95579	56.2474	-13.9304
  94	1	9	0.039353	-7.13013	56.2015	-12.5888
  95	1	9	0.072794	-6.41964	57.737	-13.1006
  96	1	9	0.05895	-6.66345	58.4489	-15.4926
  97	1	9	0.044008	-8.14555	58.0454	-16.3893
  98	1	9	0.064391	-6.79775	56.8985	-16.3212
  99	1	1	0.130931	-10.1752	56.5981	-16.0686
 100	1	2	-0.035623	-9.68494	55.6562	-15.8322
 101	1	2	-0.458756	-10.0936	54.4784	-16.4922
 102	1	1	0.207809	-10.9007	54.5179	-17.2187
 103	1	2	0.31527	-9.42632	53.2635	-16.278
 104	1	2	-0.466224	-8.37066	53.2293	-15.3581
 105	1	1	0.20556	-7.81594	52.3067	-15.2122
 106	1	2	-0.031899	-7.95974	54.3999	-14.6957
 107	1	1	0.127567	-7.09592	54.3288	-14.0434
 108	1	2	0.005289	-8.5891	55.6452	-14.9419
 109	1	1	0.144011	-10.7519	50.3202	-18.576
 110	1	2	-0.407424	-10.8512	50.1097	-17.5139
 111	1	2	0.096878	-11.6093	49.0009	-17.0917
 112	1	1	0.131719	-12.113	48.3795	-17.8301
 113	1	2	0.007579	-11.7791	48.7372	-15.7193
 114	1	3	0.947259	-13.0006	47.4973	-15.2084
 115	1	2	-0.433296	-11.1689	49.5875	-14.7692
 116	1	1	0.195208	-11.3413	49.4106	-13.7079
 117	1	2	0.002203	-10.4582	50.7259	-15.1931
 118	1	1	0.245959	-10.0682	51.4164	-14.4497
 119	1	2	0.108341	-10.3137	51.0043	-16.5692
 120	1	4	-0.012027	-9.73544	52.1609	-17.0348
 121	1	5	-0.530873	-13.2322	47.5714	-13.7613
 122	1	5	-0.5745	-14.1281	47.6682	-16.1314
 123	1	1	0.177717	-13.883	44.9661	-14.2354
 124	1	2	-0.13906	-13.1421	44.7539	-15.0051
 125	1	2	-0.172291	-13.033	43.454	-15.5296
 126	1	1	0.137587	-13.6906	42.6658	-15.1759
 127	1	2	0.27179	-12.1963	43.227	-16.6308
 128	1	6	-0.297458	-12.3893	42.1474	-17.4465
 129	1	1	0.184682	-10.9279	46.364	-17.0708
 130	1	2	-0.177057	-11.4882	45.5588	-16.605
 131	1	2	-0.065252	-12.4245	45.8218	-15.5838
 132	1	1	0.164016	-10.7345	40.776	-15.8521
 133	1	1	0.144303	-10.4033	38.347	-16.0623
 134	1	2	-0.207027	-11.454	40.1804	-16.4054
 135	1	2	-0.150602	-11.2674	38.7899	-16.543
 136	1	2	0.201726	-12.4634	40.8175	-17.1359
 137	1	2	0.015223	-12.064	38.0272	-17.4354
 138	1	7	0.123165	-11.5247	36.6903	-18.0375
 139	1	2	-0.193552	-13.3795	40.0531	-17.8619
 140	1	2	-0.163782	-13.2026	38.6666	-17.9882
 141	1	1	0.167708	-14.1508	40.5583	-18.4369
 142	1	1	0.146296	-13.8844	38.1425	-18.6477
 143	1	2	-0.183938	-11.3851	44.2585	-17.1272
 144	1	1	0.154545	-10.7673	44.0679	-17.9999
 145	1	7	-0.193999	-10.0262	36.9017	-18.4137
 146	1	7	-0.196778	-12.1846	36.4199	-19.428
 147	1	9	0.051577	-9.61313	36.009	-18.8993
 148	1	9	0.039353	-9.3897	37.1163	-17.5495
 149	1	9	0.072794	-9.91653	37.7442	-19.1101
 150	1	9	0.05895	-12.0581	37.2803	-20.099
 151	1	9	0.044008	-13.2605	36.2248	-19.3485
 152	1	9	0.064391	-11.7291	35.5532	-19.9232
 153	1	1	0.130931	-13.1225	34.359	-18.2917
 154	1	2	-0.035623	-12.4413	34.325	-17.4493
 155	1	2	-0.458756	-12.3788	33.1219	-16.7215
 156	1	1	0.207809	-13.0213	32.2901	-16.9947
 157	1	2	0.31527	-11.5172	32.9887	-15.6285
 158	1	2	-0.466224	-10.7435	34.097	-15.2503
 159	1	1	0.20556	-10.1031	34.026	-14.3758
 160	1	2	-0.031899	-10.7928	35.3013	-15.9836
 161	1	1	0.127567	-10.1544	36.1234	-15.6764
 162	1	2	0.005289	-11.6288	35.4385	-17.1158
 163	1	1	0.144011	-12.9442	29.7406	-14.2573
 164	1	2	-0.407424	-12.0146	29.5171	-14.7744
 165	1	2	0.096878	-11.5685	28.1816	-14.8474
 166	1	1	0.131719	-12.1618	27.4035	-14.372
 167	1	2	0.007579	-10.3039	27.8692	-15.3874
 168	1	3	0.947259	-9.5616	26.2599	-14.9099
 169	1	2	-0.433296	-9.52848	28.9239	-15.9394
 170	1	1	0.195208	-8.51957	28.7117	-16.2912
 171	1	2	0.002203	-9.97995	30.265	-15.8624
 172	1	1	0.245959	-9.33238	31.0784	-16.184
 173	1	2	0.108341	-11.2071	30.5712	-15.2373
 174	1	4	-0.012027	-11.5362	31.8547	-14.8552
 175	1	5	-0.530873	-8.14707	26.5011	-14.601
 176	1	5	-0.5745	-10.4243	25.6995	-13.8637
 177	1	1	0.177717	-7.95142	23.9259	-15.1747
 178	1	2	-0.13906	-8.62957	23.9033	-16.0267
 179	1	2	-0.172291	-8.59362	22.8082	-16.9123
 180	1	1	0.137587	-7.8722	22.0119	-16.7595
 181	1	2	0.27179	-9.48674	22.748	-17.9935
 182	1	6	-0.297458	-9.46821	21.7075	-18.91
 183	1	1	0.184682	-11.1586	25.7115	-17.4482
 184	1	2	-0.177057	-10.4319	24.9159	-17.2979
 185	1	2	-0.065252	-9.5405	24.969	-16.2052
 186	1	1	0.164016	-8.02565	20.5327	-20.7259
 187	1	1	0.144303	-7.17971	18.2307	-20.6985
 188	1	2	-0.207027	-8.21075	19.9054	-19.8587
 189	1	2	-0.150602	-7.7453	18.5757	-19.8399
 190	1	2	0.201726	-8.92833	20.4345	-18.7778
 191	1	2	0.015223	-8.01319	17.7063	-18.7524
 192	1	7	0.123165	-7.48858	16.2329	-18.7495
 193	1	2	-0.193552	-9.17405	19.602	-17.6692
 194	1	2	-0.163782	-8.71552	18.2593	-17.6541
 195	1	1	0.167708	-9.74756	19.99	-16.833
 196	1	1	0.146296	-8.9197	17.6402	-16.7846
 197	1	2	-0.183938	-10.3897	23.8152	-18.1875
 198	1	1	0.154545	-11.0683	23.7767	-19.0345
 199	1	7	-0.193999	-6.06208	16.2424	-18.1339
 200	1	7	-0.196778	-7.30836	15.6989	-20.2026
 201	1	9	0.051577	-5.60006	15.2471	-18.1866
 202	1	9	0.039353	-6.07642	16.565	-17.0858
 203	1	9	0.072794	-5.40665	16.9339	-18.6794
 204	1	9	0.05895	-6.45509	16.1627	-20.7123
 205	1	9	0.044008	-8.203	15.8833	-20.8107
 206	1	9	0.064391	-7.12629	14.6161	-20.1993
 207	1	1	0.130931	-7.07564	14.5737	-16.4578
 208	1	2	-0.035623	-8.03249	14.407	-16.9434
 209	1	2	-0.458756	-8.85692	13.3709	-16.4467
 210	1	1	0.207809	-8.54186	12.7983	-15.5793
 211	1	2	0.31527	-10.09	13.0736	-17.0494
 212	1	2	-0.466224	-10.505	13.8772	-18.1223
 213	1	1	0.20556	-11.4746	13.6952	-18.5742
 214	1	2	-0.031899	-9.69343	14.9209	-18.6142
 215	1	1	0.127567	-10.0422	15.5062	-19.461
 216	1	2	0.005289	-8.43068	15.2034	-18.0484
 217	1	1	0.144011	-9.13926	10.3671	-17.3321
 218	1	2	-0.407424	-10.1056	9.96717	-17.0373
 219	1	2	0.096878	-10.3288	8.56787	-17.084
 220	1	1	0.131719	-9.53917	7.90454	-17.4301
 221	1	2	0.007579	-11.564	8.01518	-16.6844
 222	1	3	0.947259	-11.8262	6.2066	-16.7799
 223	1	2	-0.433296	-12.5962	8.89228	-16.2745
 224	1	1	0.195208	-13.5707	8.48418	-16.0055
 225	1	2	0.002203	-12.3743	10.2836	-16.2401
 226	1	1	0.245959	-13.174	10.9498	-15.9246
 227	1	2	0.108341	-11.1311	10.8366	-16.6066
 228	1	4	-0.012027	-10.9862	12.2043	-16.4635
 229	1	5	-0.530873	-13.2034	5.94161	-16.3442
 230	1	5	-0.5745	-11.3374	5.76778	-18.0925
 231	1	1	0.177717	-11.8515	6.1367	-13.8308
 232	1	2	-0.13906	-10.9669	5.59655	-14.1649
 233	1	2	-0.172291	-10.0615	5.06924	-13.2203
 234	1	1	0.137587	-10.2253	5.2292	-12.159
 235	1	2	0.27179	-8.91541	4.37218	-13.6418
 236	1	6	-0.297458	-7.94021	4.0495	-12.7242
 237	1	1	0.184682	-9.40717	4.55776	-17.0245
 238	1	2	-0.177057	-9.59055	4.70917	-15.9615
 239	1	2	-0.065252	-10.7153	5.45472	-15.5459
 240	1	1	0.164016	-6.86861	1.93637	-13.9714
 241	1	1	0.144303	-6.29853	-0.210941	-12.9074
 242	1	2	-0.207027	-7.11178	1.77537	-12.9267
 243	1	2	-0.150602	-6.78267	0.551463	-12.3065
 244	1	2	0.201726	-7.71874	2.80171	-12.1881
 245	1	2	0.015223	-7.05925	0.315892	-10.936
 246	1	7	0.123165	-6.72881	-1.05477	-10.268
 247	1	2	-0.193552	-7.96214	2.60437	-10.8242
 248	1	2	-0.163782	-7.6483	1.37857	-10.2075
 249	1	1	0.167708	-8.38645	3.41643	-10.2422
 250	1	1	0.146296	-7.86424	1.27757	-9.15047
 251	1	2	-0.183938	-8.69093	4.18205	-15.0146
 252	1	1	0.154545	-7.7973	3.66408	-15.3448
 253	1	7	-0.193999	-7.10721	-2.20805	-11.2488
 254	1	7	-0.196778	-7.62938	-1.31865	-9.02525
 255	1	9	0.051577	-6.48838	-2.21604	-12.1524
 256	1	9	0.039353	-8.15405	-2.11812	-11.5683
 257	1	9	0.072794	-6.99552	-3.18998	-10.771
 258	1	9	0.05895	-7.42869	-0.622369	-8.20397
 259	1	9	0.044008	-7.46179	-2.32751	-8.62698
 260	1	9	0.064391	-8.69281	-1.23698	-9.28795
 261	1	1	0.130931	-5.42658	0.588641	-8.47981
 262	1	2	-0.035623	-4.75415	-0.165174	-8.88039
 263	1	2	-0.458756	-3.3981	-0.151075	-8.48773
 264	1	1	0.207809	-3.04054	0.625191	-7.81817
 265	1	2	0.31527	-2.48533	-1.08458	-9.00423
 266	1	2	-0.466224	-2.9646	-2.04184	-9.91111
 267	1	1	0.20556	-2.26774	-2.74435	-10.3561
 268	1	2	-0.031899	-4.31924	-2.06435	-10.3031
 269	1	1	0.127567	-4.62805	-2.81751	-11.0205
 270	1	2	0.005289	-5.24056	-1.10592	-9.81642
 271	1	1	0.144011	-1.527	-1.48119	-6.24899
 272	1	2	-0.407424	-0.528091	-1.68139	-6.62748
 273	1	2	0.096878	0.497371	-2.07042	-5.7311
 274	1	1	0.131719	0.276452	-2.15461	-4.66924
 275	1	2	0.007579	1.82123	-2.27592	-6.17857
 276	1	3	0.947259	3.16258	-2.50261	-4.94657
 277	1	2	-0.433296	2.10441	-2.07752	-7.55215
 278	1	1	0.195208	3.13314	-2.16161	-7.9031
 279	1	2	0.002203	1.08696	-1.66017	-8.43633
 280	1	1	0.245959	1.32864	-1.43847	-9.47377
 281	1	2	0.108341	-0.233443	-1.45792	-7.98751
 282	1	4	-0.012027	-1.12766	-0.890706	-8.87178
 283	1	5	-0.530873	4.45596	-2.18221	-5.56312
 284	1	5	-0.5745	2.72854	-1.76504	-3.75569
 285	1	1	0.177717	5.32372	-3.9742	-3.6689
 286	1	2	-0.13906	4.48134	-4.66255	-3.73234
 287	1	2	-0.172291	4.5776	-5.9471	-3.14632
 288	1	1	0.137587	5.48763	-6.24641	-2.63677
 289	1	2	0.27179	3.46841	-6.81119	-3.18423
 290	1	6	-0.297458	3.38829	-8.03701	-2.55466
 291	1	1	0.184682	1.25157	-4.79464	-4.85345
 292	1	2	-0.177057	2.18895	-5.107	-4.40141
 293	1	2	-0.065252	3.28782	-4.22853	-4.36089
 294	1	1	0.164016	5.462	-7.8077	-0.817458
 295	1	1	0.144303	6.48071	-9.73547	0.314369
 296	1	2	-0.207027	5.26213	-8.80735	-1.18958
 297	1	2	-0.150602	5.82789	-9.92321	-0.532167
 298	1	2	0.201726	4.31679	-8.99789	-2.21135
 299	1	2	0.015223	5.4341	-11.2465	-0.861335
 300	1	7	0.123165	5.64828	-12.4463	0.099541
 301	1	2	-0.193552	4.01969	-10.3054	-2.62187
 302	1	2	-0.163782	4.58094	-11.4177	-1.96933
 303	1	1	0.167708	3.24657	-10.4548	-3.36852
 304	1	1	0.146296	4.24089	-12.4143	-2.2381
 305	1	2	-0.183938	2.2877	-6.38103	-3.8124
 306	1	1	0.154545	1.4286	-7.0445	-3.80925
 307	1	7	-0.193999	4.26444	-12.7332	0.751243
 308	1	7	-0.196778	6.59112	-12.1062	1.29062
 309	1	9	0.051577	4.33156	-13.5144	1.51914
 310	1	9	0.039353	3.52113	-13.0467	0.00769602
 311	1	9	0.072794	3.87542	-11.8299	1.2393
 312	1	9	0.05895	6.16154	-11.337	1.94404
 313	1	9	0.044008	7.57086	-11.7518	0.947551
 314	1	9	0.064391	6.76482	-12.9983	1.9078
 315	1	1	0.130931	4.66429	-15.1142	-0.0920945
 316	1	2	-0.035623	5.67732	-14.9903	-0.463373
 317	1	2	-0.458756	6.44458	-16.1524	-0.689228
 318	1	1	0.207809	6.0196	-17.128	-0.469229
 319	1	2	0.31527	7.8007	-16.0436	-1.03154
 320	1	2	-0.466224	8.33772	-14.7751	-1.27718
 321	1	1	0.20556	9.39119	-14.6857	-1.52552
 322	1	2	-0.031899	7.57315	-13.6149	-1.07282
 323	1	1	0.127567	8.04946	-12.6426	-1.17134
 324	1	2	0.005289	6.25868	-13.7011	-0.574489
 325	1	1	0.144011	10.0019	-19.0751	0.0680516
 326	1	2	-0.407424	9.4183	-19.3283	-0.813228
 327	1	2	0.096878	9.54034	-20.6061	-1.38151
 328	1	1	0.131719	10.2123	-21.3335	-0.932497
 329	1	2	0.007579	8.82795	-20.9353	-2.5461
 330	1	3	0.947259	9.09578	-22.5906	-3.23899
 331	1	2	-0.433296	7.9611	-19.9761	-3.12872
 332	1	1	0.195208	7.42187	-20.2293	-4.04141
 333	1	2	0.002203	7.85462	-18.6851	-2.56591
 334	1	1	0.245959	7.23861	-17.9264	-3.04449
 335	1	2	0.108341	8.59513	-18.359	-1.41146
 336	1	4	-0.012027	8.67536	-17.0895	-0.906984
 337	1	5	-0.530873	10.5448	-22.8268	-3.22317
 338	1	5	-0.5745	8.28371	-22.7184	-4.45516
 339	1	1	0.177717	6.38319	-23.5403	-2.74774
 340	1	2	-0.13906	7.00337	-23.8927	-1.92445
 341	1	2	-0.172291	6.42148	-24.5738	-0.83842
 342	1	1	0.137587	5.35065	-24.7487	-0.812567
 343	1	2	0.27179	7.21632	-24.9898	0.241576
 344	1	6	-0.297458	6.62483	-25.551	1.35086
 345	1	1	0.184682	10.2698	-23.936	-0.898395
 346	1	2	-0.177057	9.19387	-24.1075	-0.881567
 347	1	2	-0.065252	8.38744	-23.6317	-1.93693
 348	1	1	0.164016	7.76741	-26.851	3.341
 349	1	1	0.144303	8.53352	-25.8445	5.45946
 350	1	2	-0.207027	7.54538	-25.8101	3.55743
 351	1	2	-0.150602	7.98022	-25.2245	4.76168
 352	1	2	0.201726	6.88521	-25.0342	2.59702
 353	1	2	0.015223	7.75738	-23.8507	5.02861
 354	1	7	0.123165	8.426	-23.1226	6.22865
 355	1	2	-0.193552	6.56708	-23.7006	2.8859
 356	1	2	-0.163782	6.98022	-23.1213	4.09847
 357	1	1	0.167708	6.03306	-23.1069	2.15015
 358	1	1	0.146296	6.74062	-22.0785	4.28045
 359	1	2	-0.183938	8.60633	-24.778	0.206503
 360	1	1	0.154545	9.22165	-25.116	1.03515
 361	1	7	-0.193999	8.98693	-21.7624	5.70653
 362	1	7	-0.196778	9.66702	-23.9021	6.74664
 363	1	9	0.051577	9.50085	-21.8981	4.74538
 364	1	9	0.039353	9.71829	-21.322	6.39517
 365	1	9	0.072794	8.19001	-21.0232	5.56136
 366	1	9	0.05895	10.3534	-24.1452	5.92464
 367	1	9	0.044008	9.37697	-24.8347	7.24579
 368	1	9	0.064391	10.2271	-23.3105	7.48214
 369	1	1	0.130931	8.39761	-21.1082	8.16063
 370	1	2	-0.035623	7.63191	-21.8587	8.32968
 371	1	2	-0.458756	6.83388	-21.7462	9.48135
 372	1	1	0.207809	6.98432	-20.9099	10.1567
 373	1	2	0.31527	5.8627	-22.7086	9.78927
 374	1	2	-0.466224	5.6676	-23.7681	8.88514
 375	1	1	0.20556	4.902	-24.5118	9.08564
 376	1	2	-0.031899	6.46371	-23.8853	7.72476
 377	1	1	0.127567	6.30986	-24.7343	7.06351
 378	1	2	0.005289	7.46587	-22.9339	7.42861
 379	1	1	0.144011	5.72918	-25.1112	11.4483
 380	1	2	-0.407424	4.77587	-24.7672	11.8416
 381	1	2	0.096878	3.95036	-25.664	12.5529
 382	1	1	0.131719	4.26356	-26.6993	12.6686
 383	1	2	0.007579	2.70711	-25.2465	13.0715
 384	1	3	0.947259	1.58096	-26.5088	13.7527
 385	1	2	-0.433296	2.30286	-23.9027	12.8805
 386	1	1	0.195208	1.32354	-23.5808	13.2295
 387	1	2	0.002203	3.12859	-23.0122	12.1646
 388	1	1	0.245959	2.80935	-21.9859	11.9985
 389	1	2	0.108341	4.35195	-23.4425	11.6168
 390	1	4	-0.012027	5.11614	-22.5242	10.9335
 391	1	5	-0.530873	2.1917	-27.8268	13.5396
 392	1	5	-0.5745	0.265138	-26.1784	13.1916
 393	1	1	0.177717	0.100573	-24.5393	15.3313
 394	1	2	-0.13906	0.528678	-25.2563	16.0288
 395	1	2	-0.172291	0.130386	-25.2388	17.3781
 396	1	1	0.137587	-0.586405	-24.4994	17.7226
 397	1	2	0.27179	0.566304	-26.2309	18.2709
 398	1	6	-0.297458	-0.0577251	-26.2801	19.4989
 399	1	1	0.184682	2.44642	-28.0816	16.0905
 400	1	2	-0.177057	1.84611	-27.2518	16.4608
 401	1	2	-0.065252	1.37708	-26.2748	15.5511
 402	1	1	0.164016	-1.64062	-26.9819	21.381
 403	1	1	0.144303	-1.06521	-27.4576	23.7146
 404	1	2	-0.207027	-0.596827	-27.008	21.6796
 405	1	2	-0.150602	-0.256372	-27.2732	23.0161
 406	1	2	0.201726	0.38832	-26.7164	20.7284
 407	1	2	0.015223	1.09218	-27.2489	23.4409
 408	1	7	0.123165	1.49245	-27.4202	24.9318
 409	1	2	-0.193552	1.73896	-26.7372	21.1161
 410	1	2	-0.163782	2.08404	-27.0141	22.4584
 411	1	1	0.167708	2.51279	-26.493	20.3958
 412	1	1	0.146296	3.13139	-27.0041	22.7485
 413	1	2	-0.183938	1.43927	-27.2337	17.8135
 414	1	1	0.154545	1.7256	-28.0421	18.4793
 415	1	7	-0.193999	0.263474	-27.5557	25.8761
 416	1	7	-0.196778	2.22469	-26.1276	25.3932
 417	1	9	0.051577	-0.391243	-26.6768	25.8101
 418	1	9	0.039353	0.582317	-27.6511	26.9222
 419	1	9	0.072794	-0.33073	-28.4472	25.6399
 420	1	9	0.05895	1.61155	-25.2413	25.1848
 421	1	9	0.044008	3.18548	-25.9964	24.8815
 422	1	9	0.064391	2.41629	-26.1403	26.4744
 423	1	1	0.130931	0.930267	-29.9262	24.0265
 424	1	2	-0.035623	1.85472	-29.9145	24.5988
 425	1	2	-0.458756	2.53147	-31.1229	24.8371
 426	1	1	0.207809	2.13132	-32.0504	24.4402
 427	1	2	0.31527	3.70537	-31.1513	25.6009
 428	1	2	-0.466224	4.22006	-29.9371	26.0881
 429	1	1	0.20556	5.13994	-29.9312	26.6662
 430	1	2	-0.031899	3.54139	-28.725	25.8622
 431	1	1	0.127567	3.95514	-27.8172	26.2906
 432	1	2	0.005289	2.339	-28.697	25.1184
 433	1	1	0.144011	4.14995	-31.7858	28.4235
 434	1	2	-0.407424	5.07338	-32.2697	28.1137
 435	1	2	0.096878	6.08498	-32.5196	29.0619
 436	1	1	0.131719	5.94063	-32.2142	30.0967
 437	1	2	0.007579	7.29438	-33.1309	28.6765
 438	1	3	0.947259	8.59597	-33.2758	29.9397
 439	1	2	-0.433296	7.47149	-33.5199	27.3247
 440	1	1	0.195208	8.39253	-33.9924	27.0024
 441	1	2	0.002203	6.45739	-33.2666	26.3816
 442	1	1	0.245959	6.59332	-33.5481	25.3401
 443	1	2	0.108341	5.27119	-32.6179	26.7642
 444	1	4	-0.012027	4.32199	-32.362	25.8082
 445	1	5	-0.530873	9.48385	-32.1367	29.685
 446	1	5	-0.5745	7.93943	-33.4274	31.2442
 447	1	1	0.177717	10.5304	-33.9173	27.8208
 448	1	2	-0.13906	10.4526	-34.7906	28.4657
 449	1	2	-0.172291	11.2098	-35.9443	28.1818
 450	1	1	0.137587	11.7931	-35.9796	27.2714
 451	1	2	0.27179	11.18	-37.0476	29.0565
 452	1	6	-0.297458	11.8455	-38.2348	28.8157
 453	1	1	0.184682	8.85162	-35.8674	31.2863
 454	1	2	-0.177057	9.51359	-35.8834	30.4205
 455	1	2	-0.065252	9.57892	-34.7607	29.572
 456	1	1	0.164016	13.7333	-36.5906	27.6213
 457	1	1	0.144303	15.958	-37.2925	26.9478
 458	1	2	-0.207027	14.04	-37.599	27.854
 459	1	2	-0.150602	15.3339	-38.0082	27.4729
 460	1	2	0.201726	13.1707	-38.4935	28.506
 461	1	2	0.015223	15.8077	-39.3111	27.7588
 462	1	7	0.123165	17.2173	-39.8123	27.3425
 463	1	2	-0.193552	13.6466	-39.7743	28.823
 464	1	2	-0.163782	14.9507	-40.172	28.4767
 465	1	1	0.167708	12.9886	-40.4664	29.3392
 466	1	1	0.146296	15.2873	-41.1728	28.736
 467	1	2	-0.183938	10.3136	-37.0127	30.1627
 468	1	1	0.154545	10.2556	-37.8787	30.8153
 469	1	7	-0.193999	18.0497	-39.9569	28.6467
 470	1	7	-0.196778	17.9674	-38.7993	26.4338
 471	1	9	0.051577	17.6746	-40.778	29.2697
 472	1	9	0.039353	17.9978	-39.0344	29.2394
 473	1	9	0.072794	19.1107	-40.1436	28.4437
 474	1	9	0.05895	18.9531	-39.1843	26.142
 475	1	9	0.044008	18.1344	-37.8426	26.944
 476	1	9	0.064391	17.4058	-38.6122	25.5095
 477	1	1	0.130931	19.2575	-41.6333	26.8544
 478	1	2	-0.035623	18.3242	-41.9285	26.385
 479	1	2	-0.458756	18.3262	-43.0594	25.5509
 480	1	1	0.207809	19.2511	-43.6044	25.4026
 481	1	2	0.31527	17.1678	-43.4394	24.8558
 482	1	2	-0.466224	15.9943	-42.6988	25.0457
 483	1	1	0.20556	15.0966	-42.9743	24.5012
 484	1	2	-0.031899	15.9925	-41.5547	25.8661
 485	1	1	0.127567	15.082	-40.9654	25.9283
 486	1	2	0.005289	17.1601	-41.1447	26.5513
 487	1	1	0.144011	16.6181	-42.9431	21.822
 488	1	2	-0.407424	17.6145	-43.378	21.8025
 489	1	2	0.096878	18.5289	-42.9837	20.8085
 490	1	1	0.131719	18.2222	-42.2488	20.0668
 491	1	2	0.007579	19.8588	-43.4504	20.8296
 492	1	3	0.947259	21.0316	-42.6463	19.6922
 493	1	2	-0.433296	20.2566	-44.3577	21.8444
 494	1	1	0.195208	21.2989	-44.6573	21.9265
 495	1	2	0.002203	19.3288	-44.77	22.8223
 496	1	1	0.245959	19.6398	-45.4223	23.6345
 497	1	2	0.108341	18.0223	-44.2485	22.8274
 498	1	4	-0.012027	17.2135	-44.4378	23.9162
 499	1	5	-0.530873	20.2782	-41.9391	18.6501
 500	1	5	-0.5745	21.946	-41.8647	20.5301
 501	1	1	0.177717	22.9283	-42.2574	17.6118
 502	1	2	-0.13906	22.956	-43.323	17.8354
 503	1	2	-0.172291	23.8305	-44.1646	17.1272
 504	1	1	0.137587	24.4829	-43.7571	16.3609
 505	1	2	0.27179	23.8832	-45.5315	17.4328
 506	1	6	-0.297458	24.7771	-46.3557	16.7969
 507	1	1	0.184682	21.5455	-45.6391	19.9258
 508	1	2	-0.177057	22.1786	-45.2137	19.1542
 509	1	2	-0.065252	22.1164	-43.8365	18.8455
 510	1	1	0.164016	27.1013	-46.1913	15.6289
 511	1	1	0.144303	27.5719	-46.6522	13.253
 512	1	2	-0.207027	26.2808	-46.3713	14.9414
 513	1	2	-0.150602	26.5393	-46.6404	13.5852
 514	1	2	0.201726	24.9711	-46.4024	15.4361
 515	1	2	0.015223	25.4851	-46.9726	12.7036
 516	1	7	0.123165	25.7297	-47.5505	11.2873
 517	1	2	-0.193552	23.9042	-46.6292	14.5534
 518	1	2	-0.163782	24.1611	-46.904	13.1965
 519	1	1	0.167708	22.8878	-46.664	14.9334
 520	1	1	0.146296	23.3293	-47.1499	12.5404
 521	1	2	-0.183938	23.0733	-46.0504	18.4568
 522	1	1	0.154545	23.145	-47.1057	18.7036
 523	1	7	-0.193999	27.2234	-47.8638	10.995
 524	1	7	-0.196778	25.2883	-46.496	10.2364
 525	1	9	0.051577	27.8452	-46.9613	11.046
 526	1	9	0.039353	27.3404	-48.2826	9.98696
 527	1	9	0.072794	27.6244	-48.5998	11.7035
 528	1	9	0.05895	25.4007	-46.8723	9.21198
 529	1	9	0.044008	25.9117	-45.5956	10.3117
 530	1	9	0.064391	24.2448	-46.1927	10.3825
 531	1	1	0.130931	25.7186	-49.5833	13.1073
 532	1	2	-0.035623	25.0961	-49.8234	12.2478
 533	1	2	-0.458756	24.4286	-51.0588	12.2138
 534	1	1	0.207809	24.546	-51.7599	13.0353
 535	1	2	0.31527	23.6254	-51.403	11.1208
 536	1	2	-0.466224	23.5017	-50.496	10.0565
 537	1	1	0.20556	22.9132	-50.7673	9.18382
 538	1	2	-0.031899	24.1665	-49.2563	10.0855
 539	1	1	0.127567	24.0553	-48.5931	9.23415
 540	1	2	0.005289	24.9695	-48.8946	11.1905
 541	1	1	0.144011	22.6081	-54.5561	9.37155
 542	1	2	-0.407424	21.7302	-53.951	9.58174
 543	1	2	0.096878	20.5038	-54.2599	8.9677
 544	1	1	0.131719	20.4371	-55.1043	8.28431
 545	1	2	0.007579	19.3547	-53.5004	9.25001
 546	1	3	0.947259	17.8048	-54.0498	8.49157
 547	1	2	-0.433296	19.4448	-52.3899	10.126
 548	1	1	0.195208	18.5623	-51.7894	10.3403
 549	1	2	0.002203	20.6791	-52.0797	10.7329
 550	1	1	0.245959	20.7581	-51.2404	11.4209
 551	1	2	0.108341	21.818	-52.8686	10.4717
 552	1	4	-0.012027	23.0086	-52.6254	11.1028
 553	1	5	-0.530873	17.8286	-55.5157	8.56597
 554	1	5	-0.5745	17.6837	-53.3767	7.19425
 555	1	1	0.177717	16.8313	-54.9488	11.0898
 556	1	2	-0.13906	16.2189	-54.1007	10.7876
 557	1	2	-0.172291	15.129	-53.704	11.5798
 558	1	1	0.137587	14.8951	-54.2413	12.4946
 559	1	2	0.27179	14.2868	-52.6622	11.1528
 560	1	6	-0.297458	13.1173	-52.4065	11.828
 561	1	1	0.184682	15.8556	-51.8691	8.21776
 562	1	2	-0.177057	15.6658	-52.3641	9.1699
 563	1	2	-0.065252	16.4821	-53.443	9.57029
 564	1	1	0.164016	11.5299	-52.4977	13.9235
 565	1	1	0.144303	9.99432	-54.3422	14.5104
 566	1	2	-0.207027	11.4642	-53.3719	13.2828
 567	1	2	-0.150602	10.6059	-54.4376	13.618
 568	1	2	0.201726	12.2413	-53.4288	12.1192
 569	1	2	0.015223	10.5344	-55.5999	12.8112
 570	1	7	0.123165	9.57627	-56.7788	13.1264
 571	1	2	-0.193552	12.123	-54.5399	11.269
 572	1	2	-0.163782	11.2872	-55.6111	11.6148
 573	1	1	0.167708	12.6816	-54.5784	10.3382
 574	1	1	0.146296	11.2121	-56.4427	10.9218
 575	1	2	-0.183938	14.5683	-51.9765	9.96152
 576	1	1	0.154545	13.9006	-51.187	9.6288
 577	1	7	-0.193999	10.2801	-58.1579	12.9479
 578	1	7	-0.196778	8.43823	-56.6937	12.0716
 579	1	9	0.051577	9.54295	-58.9711	12.9567
 580	1	9	0.039353	10.9916	-58.3561	13.7588
 581	1	9	0.072794	10.8322	-58.2414	12.0065
 582	1	9	0.05895	7.7586	-57.5521	12.1361
 583	1	9	0.044008	8.83724	-56.6781	11.0498
 584	1	9	0.064391	7.85442	-55.7738	12.2072
 585	1	1	0.130931	6.91414	-56.8852	14.105
 586	1	2	-0.035623	7.65994	-56.8078	14.8882
 587	1	2	-0.458756	7.21565	-56.775	16.2216
 588	1	1	0.207809	6.15366	-56.8225	16.4424
 589	1	2	0.31527	8.13026	-56.682	17.2766
 590	1	2	-0.466224	9.49947	-56.6404	16.9903
 591	1	1	0.20556	10.2116	-56.5756	17.8074
 592	1	2	-0.031899	9.95084	-56.6868	15.6593
 593	1	1	0.127567	11.0189	-56.6554	15.4587
 594	1	2	0.005289	9.03939	-56.7447	14.5802
 595	1	8	0	-19.5065	76.7258	-14.9581
 596	1	1	0	7.7815	-56.6498	18.3042

Velocities

   1	-0.00332284	-0.00282788	-0.00689472
   2	-0.000726763	-0.00155506	-4.88975e-05
   3	0.000463429	-0.00508053	-0.000435931
   4	0.00210035	-0.00946714	-0.0011353
   5	0.00159749	-0.000233866	0.000148788
   6	0.000995422	0.000166944	-0.000463166
   7	-0.000815838	-0.000135494	0.0028493
   8	-0.000369097	-0.00124861	0.000965945
   9	-0.00125387	-0.00102557	0.0016929
  10	-0.00179029	-0.00213222	0.000438662
  11	-0.00210311	0.000664969	0.00188339
  12	0.00236157	0.00301481	0.0012945
  13	-0.00187754	0.0037171	0.00042613
  14	-0.000431323	0.000327022	-0.00515942
  15	-0.000356614	0.00159352	0.000903929
  16	9.88667e-05	0.00129987	0.000439738
  17	0.000433097	0.000752572	0.000394007
  18	0.000528581	-0.00049524	-0.000350962
  19	0.00019863	0.000316301	-0.00010154
  20	0.000244501	-0.00064896	-0.000234417
  21	-0.000352925	0.00109023	0.00120462
  22	1.10027e-05	0.00106091	0.000716804
  23	-6.91948e-05	0.000873848	0.000171279
  24	-0.000205547	5.87842e-05	-0.00021528
  25	-0.000226865	-1.70402e-05	-0.000282159
  26	9.40093e-05	-2.33417e-05	-0.000143911
  27	-7.57358e-06	-3.29236e-05	-0.000217207
  28	0.00046028	-8.03145e-05	-6.7896e-05
  29	0.000258316	-0.000103232	-0.000167649
  30	0.000322786	-0.00015703	-0.000111783
  31	0.000511943	3.97442e-05	-0.000125565
  32	0.000418796	-8.11033e-05	-0.000157677
  33	0.000579684	0.000100375	-1.58481e-06
  34	0.000560531	-0.000163235	-0.000109924
  35	0.000147967	0.000800852	0.000191258
  36	5.60574e-05	-0.000688627	-0.000779397
  37	0.00031739	-0.000104773	3.76598e-05
  38	0.000427223	-0.000140258	-0.000109991
  39	0.000337115	-2.14185e-05	7.11859e-05
  40	0.000267726	-0.000156392	0.000122716
  41	0.000335746	-0.000100958	2.27214e-05
  42	0.000493009	-5.61718e-05	-0.000140231
  43	0.000487932	-0.00022584	-0.000142474
  44	0.000387239	-7.12827e-05	-7.11141e-05
  45	0.000306535	-0.000311854	-0.000188817
  46	0.000284603	-0.000276617	-0.000104913
  47	0.000276106	-0.000264992	-2.14743e-05
  48	0.000281375	-0.000292088	-4.49493e-05
  49	0.000275128	-0.000215067	9.99809e-05
  50	0.00027527	-0.000170864	0.000191374
  51	0.000283694	-0.000122599	0.000319689
  52	0.000273453	-0.000170041	0.000138809
  53	0.000273697	-0.000122277	0.000237781