pySIMM System Object

2324 atoms
2495 bonds
4214 angles
6276 dihedrals
774 impropers

9 atom types
10 bond types
17 angle types
7 dihedral types
2 improper types

-197.622925 197.622925 xlo xhi
-197.622925 197.622925 ylo yhi
-197.622925 197.622925 zlo zhi

Masses

   1	1.008	# ha
   2	12.01	# ca
   3	32.06	# sy
   4	16.0	# oh
   5	16.0	# o
   6	16.0	# os
   7	12.01	# c3
   8	1.008	# ho
   9	1.008	# hc

Pair Coeffs

   1	0.015	2.59964245953351	# ha
   2	0.086	3.3996695084235347	# ca
   3	0.25	3.563594872561357	# sy
   4	0.2104	3.0664733878390478	# oh
   5	0.21	2.959921901149463	# o
   6	0.17	3.0000123434657784	# os
   7	0.1094	3.3996695084235347	# c3
   8	0.0	0.0	# ho
   9	0.0157	2.649532787749369	# hc

Bond Coeffs

   1	371.4	0.973	# ho,oh
   2	243.4	1.7909	# ca,sy
   3	461.1	1.3984	# ca,ca
   4	300.9	1.5375	# c3,c3
   5	330.6	1.0969	# c3,hc
   6	493.0	1.466	# o,sy
   7	345.8	1.086	# ca,ha
   8	321.0	1.5156	# c3,ca
   9	376.6	1.3696	# ca,os
  10	384.0	1.3637	# ca,oh

Angle Coeffs

   1	61.48	119.42	# ca,ca,sy
   2	72.54	121.41	# o,sy,o
   3	69.58	119.2	# ca,ca,os
   4	60.3	104.44	# ca,sy,ca
   5	46.34	109.8	# c3,c3,hc
   6	49.0	108.58	# ca,oh,ho
   7	65.77	108.35	# ca,sy,o
   8	63.48	119.89	# ca,os,ca
   9	69.52	119.9	# ca,ca,oh
  10	63.56	112.24	# ca,c3,ca
  11	62.86	111.51	# c3,c3,c3
  12	39.4	107.58	# hc,c3,hc
  13	66.62	120.02	# ca,ca,ca
  14	48.18	119.88	# ca,ca,ha
  15	63.15	112.07	# c3,c3,ca
  16	63.53	120.77	# c3,ca,ca
  17	63.5	119.89	# ca,oh,ca

Dihedral Coeffs

   1	1	0.9	2	180	# X,ca,oh,X
   2	1	1.3	2	180	# X,ca,sy,X
   3	1	0.16	3	0	# hc,c3,c3,c3
   4	1	3.625	2	180	# X,ca,ca,X
   5	1	0.0	2	0	# X,c3,ca,X
   6	1	0.15555555555555556	3	0	# X,c3,c3,X
   7	1	0.9	2	180	# X,ca,os,X

Improper Coeffs

   1	1.1	-1	2	# ca,X,X,ha
   2	1.1	-1	2	# ca,ca,ca,c3

Atoms

   1	1	1	0.144011	-6.24793	21.163	106.415
   2	1	2	-0.407424	-6.86086	20.2995	106.173
   3	1	2	0.096878	-6.46388	19.0189	106.603
   4	1	1	0.131719	-5.54977	18.8974	107.179
   5	1	2	0.007579	-7.24343	17.8925	106.298
   6	1	3	0.947259	-6.64371	16.269	106.837
   7	1	2	-0.433296	-8.44926	18.0499	105.571
   8	1	1	0.195208	-9.06679	17.1783	105.365
   9	1	2	0.002203	-8.85527	19.3338	105.16
  10	1	1	0.245959	-9.78779	19.4672	104.614
  11	1	2	0.108341	-8.06257	20.4544	105.458
  12	1	4	-0.012027	-8.47843	21.6972	105.081
  13	1	5	-0.530873	-5.85903	16.4216	108.068
  14	1	5	-0.5745	-7.76348	15.3249	106.761
  15	1	1	0.177717	-4.10833	14.8223	106.907
  16	1	2	-0.13906	-4.31144	15.0715	105.866
  17	1	2	-0.172291	-3.41669	14.6686	104.858
  18	1	1	0.137587	-2.52088	14.1112	105.112
  19	1	2	0.27179	-3.68098	14.9744	103.513
  20	1	6	-0.297458	-2.77797	14.5684	102.557
  21	1	1	0.184682	-6.63808	16.6479	103.912
  22	1	2	-0.177057	-5.73719	16.1018	104.182
  23	1	2	-0.065252	-5.4811	15.7823	105.533
  24	1	1	0.164016	-5.1023	13.4734	101.716
  25	1	1	0.144303	-5.56007	12.6887	99.4428
  26	1	2	-0.207027	-4.33185	13.573	100.958
  27	1	2	-0.150602	-4.58526	13.1171	99.6516
  28	1	2	0.201726	-3.08444	14.1314	101.286
  29	1	2	0.015223	-3.58613	13.1812	98.6514
  30	1	7	0.123165	-3.79088	12.6092	97.226
  31	1	2	-0.193552	-2.0831	14.1883	100.309
  32	1	2	-0.163782	-2.32717	13.7132	99.0092
  33	1	1	0.167708	-1.10864	14.5886	100.573
  34	1	1	0.146296	-1.52075	13.7388	98.282
  35	1	2	-0.183938	-4.82868	15.7153	103.181
  36	1	1	0.154545	-5.01859	15.9816	102.145
  37	1	7	-0.193999	-3.40213	13.716	96.2029
  38	1	7	-0.196778	-5.26994	12.2387	96.9335
  39	1	9	0.051577	-3.72267	13.4659	95.1843
  40	1	9	0.039353	-2.31829	13.8811	96.1762
  41	1	9	0.072794	-3.8816	14.6679	96.4659
  42	1	9	0.05895	-5.93283	13.1012	97.0798
  43	1	9	0.044008	-5.61106	11.4212	97.5812
  44	1	9	0.064391	-5.3919	11.8975	95.8975
  45	1	1	0.130931	-2.83425	11.4511	94.873
  46	1	2	-0.035623	-2.55603	10.8853	95.757
  47	1	2	-0.458756	-1.8276	9.69252	95.5949
  48	1	1	0.207809	-1.55858	9.35443	94.5977
  49	1	2	0.31527	-1.48651	8.90885	96.7074
  50	1	2	-0.466224	-1.88314	9.32875	97.9814
  51	1	1	0.20556	-1.63882	8.71881	98.8467
  52	1	2	-0.031899	-2.61049	10.5187	98.1499
  53	1	1	0.127567	-2.9213	10.797	99.1538
  54	1	2	0.005289	-2.94765	11.3275	97.0406
  55	1	1	0.144011	0.0632011	5.45388	95.6305
  56	1	2	-0.407424	0.717171	6.29681	95.4234
  57	1	2	0.096878	1.93167	6.08689	94.7457
  58	1	1	0.131719	2.20717	5.08077	94.4368
  59	1	2	0.007579	2.8013	7.16401	94.4952
  60	1	3	0.947259	4.39052	6.81818	93.6945
  61	1	2	-0.433296	2.44536	8.46373	94.9303
  62	1	1	0.195208	3.13489	9.29145	94.7745
  63	1	2	0.002203	1.2307	8.66868	95.6139
  64	1	1	0.245959	0.973589	9.66203	95.9774
  65	1	2	0.108341	0.360435	7.58466	95.8584
  66	1	4	-0.012027	-0.804179	7.73038	96.5688
  67	1	5	-0.530873	5.3763	7.70962	94.3175
  68	1	5	-0.5745	4.57806	5.36254	93.6422
  69	1	1	0.177717	3.99547	5.43216	91.1407
  70	1	2	-0.13906	4.0398	6.5004	90.9335
  71	1	2	-0.172291	4.02333	6.9568	89.603
  72	1	1	0.137587	3.96566	6.2509	88.78
  73	1	2	0.27179	4.1538	8.32598	89.329
  74	1	6	-0.297458	4.3139	8.74325	88.031
  75	1	1	0.184682	4.42666	9.50394	92.5284
  76	1	2	-0.177057	4.28083	8.79592	91.7145
  77	1	2	-0.065252	4.18838	7.41681	91.9954
  78	1	1	0.164016	6.71591	8.48808	89.2401
  79	1	1	0.144303	8.84303	9.27087	88.3538
  80	1	2	-0.207027	6.72979	8.96477	88.2644
  81	1	2	-0.150602	7.95551	9.41414	87.7467
  82	1	2	0.201726	5.53885	9.14098	87.5363
  83	1	2	0.015223	8.02551	10.0415	86.4813
  84	1	7	0.123165	9.34802	10.6033	85.9033
  85	1	2	-0.193552	5.59836	9.73024	86.2665
  86	1	2	-0.163782	6.82885	10.1679	85.7406
  87	1	1	0.167708	4.68288	9.85342	85.6958
  88	1	1	0.146296	6.84913	10.6229	84.754
  89	1	2	-0.183938	4.25854	9.24845	90.3829
  90	1	1	0.154545	4.38118	10.3039	90.1578
  91	1	7	-0.193999	10.5302	10.5215	86.9076
  92	1	7	-0.196778	9.12912	12.1176	85.6208
  93	1	9	0.051577	11.4393	10.9596	86.4759
  94	1	9	0.039353	10.766	9.48122	87.1656
  95	1	9	0.072794	10.3056	11.0671	87.8333
  96	1	9	0.05895	8.70312	12.6151	86.5018
  97	1	9	0.044008	8.4414	12.2794	84.782
  98	1	9	0.064391	10.0719	12.6273	85.3856
  99	1	1	0.130931	9.29842	7.88393	85.5302
 100	1	2	-0.035623	9.69684	8.39893	84.659
 101	1	2	-0.458756	10.16	7.64289	83.5665
 102	1	1	0.207809	10.107	6.55907	83.6011
 103	1	2	0.31527	10.7112	8.26897	82.4399
 104	1	2	-0.466224	10.7746	9.67296	82.4162
 105	1	1	0.20556	11.203	10.1853	81.5594
 106	1	2	-0.031899	10.3194	10.4334	83.5077
 107	1	1	0.127567	10.4206	11.5129	83.4591
 108	1	2	0.005289	9.76974	9.80804	84.6489
 109	1	1	0.144011	13.6026	8.48733	81.0589
 110	1	2	-0.407424	12.9758	8.49403	80.1708
 111	1	2	0.096878	13.4671	9.03737	78.9682
 112	1	1	0.131719	14.4723	9.45225	78.9349
 113	1	2	0.007579	12.658	9.06469	77.8163
 114	1	3	0.947259	13.3235	9.82279	76.3085
 115	1	2	-0.433296	11.3458	8.53589	77.8729
 116	1	1	0.195208	10.7117	8.57462	76.9881
 117	1	2	0.002203	10.8553	8.00147	79.0799
 118	1	1	0.245959	9.84125	7.61263	79.1384
 119	1	2	0.108341	11.6642	7.98788	80.2301
 120	1	4	-0.012027	11.1626	7.48804	81.4025
 121	1	5	-0.530873	12.1882	10.2479	75.4799
 122	1	5	-0.5745	14.3891	10.7457	76.7193
 123	1	1	0.177717	12.3699	7.93196	74.2831
 124	1	2	-0.13906	13.4076	7.68429	74.5007
 125	1	2	-0.172291	14.0385	6.63107	73.8131
 126	1	1	0.137587	13.4945	6.05574	73.0702
 127	1	2	0.27179	15.3864	6.33323	74.0642
 128	1	6	-0.297458	15.9951	5.31774	73.3665
 129	1	1	0.184682	16.0382	8.71825	76.4317
 130	1	2	-0.177057	15.4744	8.1271	75.7114
 131	1	2	-0.065252	14.1229	8.43812	75.4539
 132	1	1	0.164016	16.7467	7.50402	72.0279
 133	1	1	0.144303	18.86	7.77866	70.8066
 134	1	2	-0.207027	17.4612	6.68612	72.0065
 135	1	2	-0.150602	18.6702	6.83283	71.3031
 136	1	2	0.201726	17.1732	5.48669	72.6771
 137	1	2	0.015223	19.6131	5.77923	71.2517
 138	1	7	0.123165	20.9733	5.91031	70.5258
 139	1	2	-0.193552	18.0921	4.43096	72.6272
 140	1	2	-0.163782	19.3045	4.57841	71.9289
 141	1	1	0.167708	17.863	3.50229	73.141
 142	1	1	0.146296	20.0114	3.75247	71.9134
 143	1	2	-0.183938	16.1023	7.07589	75.0185
 144	1	1	0.154545	17.1449	6.83916	75.2097
 145	1	7	-0.193999	22.0522	6.07603	71.6307
 146	1	7	-0.196778	21.0602	7.1645	69.6151
 147	1	9	0.051577	21.7827	6.89331	72.3122
 148	1	9	0.039353	23.0354	6.31812	71.208
 149	1	9	0.072794	22.1489	5.16281	72.2312
 150	1	9	0.05895	21.0056	8.09263	70.1979
 151	1	9	0.044008	20.2526	7.17214	68.872
 152	1	9	0.064391	22.0119	7.17904	69.068
 153	1	1	0.130931	19.1985	4.66789	68.842
 154	1	2	-0.035623	20.178	4.19611	68.8042
 155	1	2	-0.458756	20.3858	3.11077	67.9337
 156	1	1	0.207809	19.5687	2.75246	67.315
 157	1	2	0.31527	21.6425	2.49792	67.8355
 158	1	2	-0.466224	22.6896	2.97866	68.6406
 159	1	1	0.20556	23.677	2.53001	68.5773
 160	1	2	-0.031899	22.4863	4.06022	69.5161
 161	1	1	0.127567	23.3301	4.41299	70.1006
 162	1	2	0.005289	21.2226	4.68433	69.6177
 163	1	1	0.144011	23.466	2.43966	65.1607
 164	1	2	-0.407424	23.8196	1.5402	65.6582
 165	1	2	0.096878	25.087	1.0147	65.3436
 166	1	1	0.131719	25.7108	1.51266	64.6047
 167	1	2	0.007579	25.5585	-0.142066	65.9913
 168	1	3	0.947259	27.2176	-0.744248	65.5731
 169	1	2	-0.433296	24.7477	-0.777333	66.9632
 170	1	1	0.195208	25.1224	-1.66085	67.4798
 171	1	2	0.002203	23.4838	-0.243819	67.2818
 172	1	1	0.245959	22.8638	-0.713303	68.0421
 173	1	2	0.108341	23.022	0.916976	66.6348
 174	1	4	-0.012027	21.8031	1.44546	66.9667
 175	1	5	-0.530873	28.0582	0.437377	65.3437
 176	1	5	-0.5745	27.5749	-1.79095	66.539
 177	1	1	0.177717	26.3795	-3.4372	64.8054
 178	1	2	-0.13906	26.5642	-2.88024	63.8881
 179	1	2	-0.172291	26.4024	-3.50573	62.6381
 180	1	1	0.137587	26.0819	-4.54158	62.5818
 181	1	2	0.27179	26.6699	-2.80327	61.4528
 182	1	6	-0.297458	26.4975	-3.45121	60.2496
 183	1	1	0.184682	27.5931	0.201783	62.8148
 184	1	2	-0.177057	27.2465	-0.829655	62.7681
 185	1	2	-0.065252	26.9851	-1.53747	63.9597
 186	1	1	0.164016	29.0753	-3.62132	59.6917
 187	1	1	0.144303	30.1576	-2.7977	57.6153
 188	1	2	-0.207027	28.4754	-3.16687	58.9085
 189	1	2	-0.150602	29.0809	-2.70082	57.728
 190	1	2	0.201726	27.0917	-3.03718	59.0843
 191	1	2	0.015223	28.3159	-2.09351	56.7068
 192	1	7	0.123165	29.0381	-1.52067	55.467
 193	1	2	-0.193552	26.3131	-2.45435	58.0772
 194	1	2	-0.163782	26.9185	-1.97812	56.8999
 195	1	1	0.167708	25.2416	-2.35747	58.2237
 196	1	1	0.146296	26.2868	-1.50783	56.1535
 197	1	2	-0.183938	27.0875	-1.45997	61.5204
 198	1	1	0.154545	27.2931	-0.906435	60.6091
 199	1	7	-0.193999	29.7471	-0.211305	55.9109
 200	1	7	-0.196778	28.0625	-1.09949	54.3288
 201	1	9	0.051577	30.309	0.238412	55.0821
 202	1	9	0.039353	30.4386	-0.386233	56.7444
 203	1	9	0.072794	29.0134	0.528252	56.2567
 204	1	9	0.05895	27.4412	-0.245029	54.6259
 205	1	9	0.044008	27.3878	-1.91449	54.0411
 206	1	9	0.064391	28.6219	-0.799148	53.4334
 207	1	1	0.130931	28.4421	-3.87819	54.1816
 208	1	2	-0.035623	29.5156	-3.72577	54.2584
 209	1	2	-0.458756	30.3806	-4.6864	53.7049
 210	1	1	0.207809	29.9693	-5.55886	53.2035
 211	1	2	0.31527	31.7708	-4.5416	53.8114
 212	1	2	-0.466224	32.2862	-3.42378	54.4778
 213	1	1	0.20556	33.362	-3.311	54.5762
 214	1	2	-0.031899	31.4266	-2.44765	55.0139
 215	1	1	0.127567	31.8718	-1.59575	55.5178
 216	1	2	0.005289	30.0217	-2.57537	54.9021
 217	1	1	0.144011	32.9627	-7.9126	52.3593
 218	1	2	-0.407424	32.7396	-7.17954	51.5885
 219	1	2	0.096878	32.6134	-7.58958	50.2472
 220	1	1	0.131719	32.7322	-8.64061	49.9933
 221	1	2	0.007579	32.3039	-6.65454	49.241
 222	1	3	0.947259	32.0444	-7.25376	47.5463
 223	1	2	-0.433296	32.1271	-5.2934	49.5884
 224	1	1	0.195208	31.8592	-4.57281	48.8167
 225	1	2	0.002203	32.2387	-4.88919	50.9329
 226	1	1	0.245959	32.0776	-3.84751	51.2047
 227	1	2	0.108341	32.5347	-5.8332	51.9379
 228	1	4	-0.012027	32.6212	-5.46072	53.2553
 229	1	5	-0.530873	31.7816	-8.69646	47.6187
 230	1	5	-0.5745	31.1135	-6.32019	46.8997
 231	1	1	0.177717	33.2827	-4.95349	46.2398
 232	1	2	-0.13906	33.9739	-5.78936	46.1455
 233	1	2	-0.172291	35.1716	-5.63387	45.4236
 234	1	1	0.137587	35.4203	-4.67841	44.9719
 235	1	2	0.27179	36.039	-6.72262	45.2507
 236	1	6	-0.297458	37.1884	-6.5524	44.5134
 237	1	1	0.184682	34.2718	-9.09657	46.974
 238	1	2	-0.177057	34.5298	-8.12355	46.5581
 239	1	2	-0.065252	33.6431	-7.03626	46.714
 240	1	1	0.164016	39.587	-6.68996	43.5113
 241	1	1	0.144303	40.2953	-8.01651	41.5375
 242	1	2	-0.207027	38.857	-7.27843	42.9637
 243	1	2	-0.150602	39.2504	-8.02632	41.8378
 244	1	2	0.201726	37.5261	-7.29704	43.4032
 245	1	2	0.015223	38.3138	-8.79988	41.1172
 246	1	7	0.123165	38.7851	-9.70072	39.9517
 247	1	2	-0.193552	36.5794	-8.05068	42.6883
 248	1	2	-0.163782	36.9715	-8.80057	41.5644
 249	1	1	0.167708	35.5404	-8.06416	43.0038
 250	1	1	0.146296	36.2182	-9.39595	41.0594
 251	1	2	-0.183938	35.7261	-7.96401	45.8318
 252	1	1	0.154545	36.4046	-8.80205	45.7013
 253	1	7	-0.193999	37.6377	-10.0483	38.9612
 254	1	7	-0.196778	39.2425	-11.0397	40.5898
 255	1	9	0.051577	37.1259	-9.14465	38.6075
 256	1	9	0.039353	36.8884	-10.7081	39.4157
 257	1	9	0.072794	38.0348	-10.572	38.0818
 258	1	9	0.05895	40.0873	-10.8837	41.273
 259	1	9	0.044008	39.5392	-11.7707	39.8267
 260	1	9	0.064391	38.4291	-11.4874	41.1753
 261	1	1	0.130931	41.4282	-10.5524	39.3664
 262	1	2	-0.035623	41.1621	-9.60923	38.8994
 263	1	2	-0.458756	42.1048	-9.00276	38.0509
 264	1	1	0.207809	43.0709	-9.47732	37.8963
 265	1	2	0.31527	41.8116	-7.79724	37.3952
 266	1	2	-0.466224	40.575	-7.18385	37.634
 267	1	1	0.20556	40.3412	-6.24494	37.1403
 268	1	2	-0.031899	39.6287	-7.78294	38.487
 269	1	1	0.127567	38.6681	-7.29696	38.6428
 270	1	2	0.005289	39.8962	-9.01757	39.1172
 271	1	1	0.144011	45.1359	-6.69612	35.6772
 272	1	2	-0.407424	44.6927	-7.57667	35.2198
 273	1	2	0.096878	45.4416	-8.34177	34.3044
 274	1	1	0.131719	46.4624	-8.05142	34.0663
 275	1	2	0.007579	44.8886	-9.49543	33.7185
 276	1	3	0.947259	45.9319	-10.4973	32.6224
 277	1	2	-0.433296	43.5655	-9.87523	34.0468
 278	1	1	0.195208	43.1429	-10.7804	33.6112
 279	1	2	0.002203	42.8228	-9.11423	34.9699
 280	1	1	0.245959	41.8133	-9.42107	35.2377
 281	1	2	0.108341	43.3898	-7.97157	35.5741
 282	1	4	-0.012027	42.6965	-7.23725	36.5073
 283	1	5	-0.530873	47.3093	-10.3736	33.115
 284	1	5	-0.5745	45.2772	-11.7993	32.4395
 285	1	1	0.177717	44.1847	-10.766	30.2923
 286	1	2	-0.13906	44.9193	-9.99554	30.0618
 287	1	2	-0.172291	44.9343	-9.39472	28.7896
 288	1	1	0.137587	44.2105	-9.68688	28.0345
 289	1	2	0.27179	45.9087	-8.43336	28.4781
 290	1	6	-0.297458	45.9716	-7.8976	27.2163
 291	1	1	0.184682	47.6142	-8.39576	31.4417
 292	1	2	-0.177057	46.8486	-8.65699	30.7125
 293	1	2	-0.065252	45.8819	-9.63581	31.0274
 294	1	1	0.164016	47.4321	-10.163	27.2369
 295	1	1	0.144303	48.2068	-11.3731	25.2543
 296	1	2	-0.207027	47.1786	-9.78147	26.252
 297	1	2	-0.150602	47.6233	-10.4707	25.109
 298	1	2	0.201726	46.4161	-8.60704	26.1225
 299	1	2	0.015223	47.3154	-10.001	23.8104
 300	1	7	0.123165	47.7703	-10.73	22.5204
 301	1	2	-0.193552	46.1154	-8.12393	24.8429
 302	1	2	-0.163782	46.5551	-8.81494	23.6996
 303	1	1	0.167708	45.5358	-7.21098	24.7432
 304	1	1	0.146296	46.3118	-8.41821	22.7169
 305	1	2	-0.183938	46.8559	-8.05455	29.4409
 306	1	1	0.154545	47.6123	-7.31923	29.1827
 307	1	7	-0.193999	46.4778	-11.1653	21.7726
 308	1	7	-0.196778	48.5806	-12.021	22.8069
 309	1	9	0.051577	46.6878	-11.8614	20.952
 310	1	9	0.039353	45.9492	-10.3012	21.3512
 311	1	9	0.072794	45.7893	-11.6751	22.4595
 312	1	9	0.05895	48.0039	-12.7328	23.4115
 313	1	9	0.044008	49.5126	-11.7853	23.3333
 314	1	9	0.064391	48.8508	-12.5297	21.873
 315	1	1	0.130931	49.3034	-8.50523	23.254
 316	1	2	-0.035623	49.3577	-8.72008	22.1897
 317	1	2	-0.458756	50.1258	-7.87245	21.372
 318	1	1	0.207809	50.6374	-7.01768	21.8061
 319	1	2	0.31527	50.2306	-8.10483	19.9958
 320	1	2	-0.466224	49.6076	-9.24	19.4535
 321	1	1	0.20556	49.7096	-9.45172	18.3957
 322	1	2	-0.031899	48.8242	-10.0825	20.2625
 323	1	1	0.127567	48.3442	-10.9439	19.8078
 324	1	2	0.005289	48.6549	-9.81633	21.6396
 325	1	1	0.144011	48.3557	-6.89133	18.5696
 326	1	2	-0.407424	49.0753	-6.49888	17.8554
 327	1	2	0.096878	48.6081	-5.85963	16.6922
 328	1	1	0.131719	47.5374	-5.77842	16.5187
 329	1	2	0.007579	49.5153	-5.33898	15.7509
 330	1	3	0.947259	48.8684	-4.62257	14.2178
 331	1	2	-0.433296	50.9028	-5.43738	15.9965
 332	1	1	0.195208	51.6117	-5.03285	15.2744
 333	1	2	0.002203	51.3662	-6.0606	17.1705
 334	1	1	0.245959	52.4343	-6.13818	17.3532
 335	1	2	0.108341	50.4614	-6.61506	18.095
 336	1	4	-0.012027	50.9566	-7.24288	19.2135
 337	1	5	-0.530873	49.7582	-3.54834	13.7597
 338	1	5	-0.5745	47.4274	-4.42068	14.4123
 339	1	1	0.177717	47.623	-7.25127	14.1336
 340	1	2	-0.13906	48.3203	-7.19802	13.3004
 341	1	2	-0.172291	48.4854	-8.30817	12.4557
 342	1	1	0.137587	47.9253	-9.21711	12.6565
 343	1	2	0.27179	49.3664	-8.23971	11.3586
 344	1	6	-0.297458	49.562	-9.31228	10.5169
 345	1	1	0.184682	50.5146	-5.04165	11.805
 346	1	2	-0.177057	49.9433	-5.95273	11.9819
 347	1	2	-0.065252	49.055	-6.01784	13.0755
 348	1	1	0.164016	47.0654	-9.17296	9.66129
 349	1	1	0.144303	45.4275	-11.0324	9.68684
 350	1	2	-0.207027	47.3691	-10.159	10.0004
 351	1	2	-0.150602	46.4453	-11.2192	10.016
 352	1	2	0.201726	48.6795	-10.3604	10.4568
 353	1	2	0.015223	46.8182	-12.5027	10.4751
 354	1	7	0.123165	45.7755	-13.6449	10.5284
 355	1	2	-0.193552	49.0694	-11.6226	10.9151
 356	1	2	-0.163782	48.1466	-12.681	10.9301
 357	1	1	0.167708	50.0787	-11.7821	11.2835
 358	1	1	0.146296	48.4858	-13.6374	11.3178
 359	1	2	-0.183938	50.0881	-7.05903	11.1228
 360	1	1	0.154545	50.7676	-7.01146	10.2781
 361	1	7	-0.193999	45.0176	-13.7689	9.17469
 362	1	7	-0.196778	44.7091	-13.2667	11.5943
 363	1	9	0.051577	44.3788	-12.8995	8.97907
 364	1	9	0.039353	44.3689	-14.6545	9.17479
 365	1	9	0.072794	45.7096	-13.8598	8.33049
 366	1	9	0.05895	44.1642	-12.358	11.3098
 367	1	9	0.044008	45.1759	-13.0686	12.5679
 368	1	9	0.064391	43.9688	-14.0678	11.7166
 369	1	1	0.130931	45.7388	-15.2194	12.8854
 370	1	2	-0.035623	46.3444	-15.6443	12.0911
 371	1	2	-0.458756	47.0495	-16.8308	12.3597
 372	1	1	0.207809	46.973	-17.297	13.3376
 373	1	2	0.31527	47.8843	-17.3983	11.3893
 374	1	2	-0.466224	48.0084	-16.7728	10.1444
 375	1	1	0.20556	48.6872	-17.1832	9.40176
 376	1	2	-0.031899	47.3022	-15.5907	9.86673
 377	1	1	0.127567	47.4598	-15.1027	8.90855
 378	1	2	0.005289	46.4561	-15.0027	10.8346
 379	1	1	0.144011	50.167	-20.5267	12.3195
 380	1	2	-0.407424	50.5917	-19.5621	12.5831
 381	1	2	0.096878	51.8498	-19.4997	13.2117
 382	1	1	0.131719	52.3879	-20.4181	13.4322
 383	1	2	0.007579	52.4101	-18.2579	13.561
 384	1	3	0.947259	54.0366	-18.2258	14.3601
 385	1	2	-0.433296	51.6946	-17.0744	13.2781
 386	1	1	0.195208	52.1077	-16.1128	13.5606
 387	1	2	0.002203	50.4406	-17.1342	12.6434
 388	1	1	0.245959	49.9073	-16.2094	12.4221
 389	1	2	0.108341	49.8794	-18.3829	12.297
 390	1	4	-0.012027	48.652	-18.4886	11.6888
 391	1	5	-0.530873	54.1431	-19.452	15.1583
 392	1	5	-0.5745	54.2472	-16.8958	14.9538
 393	1	1	0.177717	55.5275	-16.286	12.7239
 394	1	2	-0.13906	55.7493	-17.2783	12.3455
 395	1	2	-0.172291	56.6153	-17.4225	11.247
 396	1	1	0.137587	57.0453	-16.5459	10.7717
 397	1	2	0.27179	56.9356	-18.6994	10.7639
 398	1	6	-0.297458	57.7866	-18.8074	9.68806
 399	1	1	0.184682	55.0735	-20.5783	12.9393
 400	1	2	-0.177057	55.4962	-19.694	12.4654
 401	1	2	-0.065252	55.177	-18.4116	12.9587
 402	1	1	0.164016	59.4276	-19.8417	11.5091
 403	1	1	0.144303	60.9505	-21.7398	11.1548
 404	1	2	-0.207027	59.4625	-20.3283	10.5383
 405	1	2	-0.150602	60.331	-21.4144	10.3256
 406	1	2	0.201726	58.6416	-19.8654	9.49973
 407	1	2	0.015223	60.396	-22.0599	9.06701
 408	1	7	0.123165	61.3376	-23.2608	8.7901
 409	1	2	-0.193552	58.7103	-20.4732	8.2417
 410	1	2	-0.163782	59.5717	-21.5644	8.03147
 411	1	1	0.167708	58.0831	-20.103	7.43547
 412	1	1	0.146296	59.5963	-22.0257	7.0505
 413	1	2	-0.183938	56.3693	-19.8358	11.3709
 414	1	1	0.154545	56.605	-20.8258	10.9908
 415	1	7	-0.193999	60.4937	-24.4078	8.15936
 416	1	7	-0.196778	61.9473	-23.8578	10.0881
 417	1	9	0.051577	61.0635	-25.3442	8.10258
 418	1	9	0.039353	60.1602	-24.164	7.14368
 419	1	9	0.072794	59.6006	-24.607	8.7658
 420	1	9	0.05895	62.6064	-23.1404	10.5923
 421	1	9	0.044008	62.5564	-24.7424	9.86061
 422	1	9	0.064391	61.1628	-24.1645	10.792
 423	1	1	0.130931	62.9011	-21.0118	9.04543
 424	1	2	-0.035623	63.2156	-21.6273	8.20557
 425	1	2	-0.458756	64.3253	-21.2195	7.44338
 426	1	1	0.207809	64.8392	-20.2956	7.69756
 427	1	2	0.31527	64.7847	-21.9957	6.37149
 428	1	2	-0.466224	64.0891	-23.1718	6.04804
 429	1	1	0.20556	64.4264	-23.783	5.21569
 430	1	2	-0.031899	62.9739	-23.5814	6.80032
 431	1	1	0.127567	62.485	-24.5109	6.52666
 432	1	2	0.005289	62.5158	-22.8136	7.89514
 433	1	1	0.144011	66.6851	-23.8969	6.75845
 434	1	2	-0.407424	67.2227	-23.5962	5.8624
 435	1	2	0.096878	68.2534	-24.4184	5.3726
 436	1	1	0.131719	68.4864	-25.3482	5.88764
 437	1	2	0.007579	68.9763	-24.0507	4.22284
 438	1	3	0.947259	70.2694	-25.1856	3.63537
 439	1	2	-0.433296	68.6622	-22.8343	3.56895
 440	1	1	0.195208	69.2174	-22.5364	2.68184
 441	1	2	0.002203	67.6196	-22.0197	4.0571
 442	1	1	0.245959	67.3702	-21.0893	3.55109
 443	1	2	0.108341	66.8838	-22.4018	5.19551
 444	1	4	-0.012027	65.8782	-21.579	5.64958
 445	1	5	-0.530873	70.6478	-26.0288	4.77422
 446	1	5	-0.5745	69.8236	-25.8159	2.38701
 447	1	1	0.177717	72.181	-25.3165	1.43436
 448	1	2	-0.13906	72.4773	-24.4835	2.07094
 449	1	2	-0.172291	73.6285	-23.7369	1.76126
 450	1	1	0.137587	74.2146	-23.974	0.877474
 451	1	2	0.27179	74.015	-22.6707	2.59048
 452	1	6	-0.297458	75.1186	-21.9096	2.29535
 453	1	1	0.184682	71.5255	-22.8549	4.93023
 454	1	2	-0.177057	72.1036	-23.0972	4.03984
 455	1	2	-0.065252	71.7098	-24.1689	3.2124
 456	1	1	0.164016	76.0671	-24.2647	3.21406
 457	1	1	0.144303	78.3977	-25.0501	2.95417
 458	1	2	-0.207027	76.784	-23.6475	2.68138
 459	1	2	-0.150602	78.1109	-24.0902	2.53405
 460	1	2	0.201726	76.3949	-22.4034	2.15625
 461	1	2	0.015223	79.0792	-23.3015	1.87212
 462	1	7	0.123165	80.5259	-23.8399	1.72662
 463	1	2	-0.193552	77.3439	-21.6061	1.50558
 464	1	2	-0.163782	78.6707	-22.0478	1.35936
 465	1	1	0.167708	77.0436	-20.6416	1.10493
 466	1	1	0.146296	79.3659	-21.3968	0.838945
 467	1	2	-0.183938	73.2476	-22.3442	3.71833
 468	1	1	0.154545	73.5543	-21.5131	4.34676
 469	1	7	-0.193999	81.4678	-22.8394	1.00397
 470	1	7	-0.196778	80.4455	-25.1139	0.837822
 471	1	9	0.051577	81.1047	-22.604	-0.00486941
 472	1	9	0.039353	82.4785	-23.2524	0.895183
 473	1	9	0.072794	81.557	-21.904	1.57132
 474	1	9	0.05895	81.4372	-25.4817	0.550509
 475	1	9	0.044008	79.9071	-24.8995	-0.0940834
 476	1	9	0.064391	79.9233	-25.9307	1.35216
 477	1	1	0.130931	82.8086	-25.3099	2.26137
 478	1	2	-0.035623	82.3312	-24.9557	3.17037
 479	1	2	-0.458756	82.9092	-25.2868	4.40783
 480	1	1	0.207809	83.8228	-25.8745	4.42576
 481	1	2	0.31527	82.3374	-24.8336	5.60956
 482	1	2	-0.466224	81.2111	-24.005	5.54394
 483	1	1	0.20556	80.7855	-23.6156	6.46435
 484	1	2	-0.031899	80.6377	-23.6588	4.30812
 485	1	1	0.127567	79.7794	-22.992	4.30575
 486	1	2	0.005289	81.1612	-24.1685	3.09827
 487	1	1	0.144011	85.1466	-24.7896	8.08225
 488	1	2	-0.407424	84.9711	-25.8058	7.73933
 489	1	2	0.096878	85.9496	-26.7935	7.9476
 490	1	1	0.131719	86.879	-26.5354	8.45056
 491	1	2	0.007579	85.7441	-28.1043	7.48273
 492	1	3	0.947259	87.1028	-29.2852	7.65993
 493	1	2	-0.433296	84.531	-28.4369	6.83459
 494	1	1	0.195208	84.3686	-29.4562	6.486
 495	1	2	0.002203	83.5459	-27.45	6.64228
 496	1	1	0.245959	82.6114	-27.6988	6.14295
 497	1	2	0.108341	83.7791	-26.1266	7.06837
 498	1	4	-0.012027	82.8622	-25.1354	6.84165
 499	1	5	-0.530873	87.842	-28.9435	8.88129
 500	1	5	-0.5745	86.5832	-30.6328	7.39826
 501	1	1	0.177717	86.9741	-29.9317	4.81023
 502	1	2	-0.13906	87.8163	-29.2577	4.95542
 503	1	2	-0.172291	88.5767	-28.8323	3.85096
 504	1	1	0.137587	88.3327	-29.179	2.85108
 505	1	2	0.27179	89.6487	-27.9433	4.0374
 506	1	6	-0.297458	90.3899	-27.5046	2.96931
 507	1	1	0.184682	89.4635	-27.5565	7.42974
 508	1	2	-0.177057	89.2128	-27.912	6.43118
 509	1	2	-0.065252	88.1325	-28.8006	6.25125
 510	1	1	0.164016	91.1458	-26.9144	0.552378
 511	1	1	0.144303	92.4767	-28.3368	-0.964116
 512	1	2	-0.207027	91.4746	-27.896	0.880669
 513	1	2	-0.150602	92.2347	-28.7131	0.0244388
 514	1	2	0.201726	91.1281	-28.3385	2.16362
 515	1	2	0.015223	92.6657	-29.9929	0.444326
 516	1	7	0.123165	93.4591	-30.9571	-0.467173
 517	1	2	-0.193552	91.5684	-29.5978	2.60336
 518	1	2	-0.163782	92.3301	-30.4139	1.75007
 519	1	1	0.167708	91.327	-29.944	3.60397
 520	1	1	0.146296	92.6533	-31.3902	2.10253
 521	1	2	-0.183938	89.964	-27.4817	5.32317
 522	1	1	0.154545	90.794	-26.7933	5.4527
 523	1	7	-0.193999	94.9009	-31.0521	0.10234
 524	1	7	-0.196778	93.5825	-30.4594	-1.93203
 525	1	9	0.051577	94.9102	-31.5192	1.09513
 526	1	9	0.039353	95.341	-30.0515	0.203474
 527	1	9	0.072794	95.5591	-31.6316	-0.556903
 528	1	9	0.05895	94.1077	-31.2002	-2.54876
 529	1	9	0.044008	94.149	-29.5213	-1.99191
 530	1	9	0.064391	92.5952	-30.298	-2.38273
 531	1	1	0.130931	90.7819	-31.3958	-0.787977
 532	1	2	-0.035623	91.3248	-32.3311	-0.66893
 533	1	2	-0.458756	90.6104	-33.5395	-0.659966
 534	1	1	0.207809	89.5296	-33.5292	-0.772893
 535	1	2	0.31527	91.2792	-34.7617	-0.508533
 536	1	2	-0.466224	92.6734	-34.7629	-0.374304
 537	1	1	0.20556	93.1981	-35.7078	-0.264666
 538	1	2	-0.031899	93.395	-33.5545	-0.373677
 539	1	1	0.127567	94.4745	-33.5953	-0.264457
 540	1	2	0.005289	92.7263	-32.3158	-0.502494
 541	1	1	0.144011	88.2644	-37.0437	-1.06186
 542	1	2	-0.407424	88.3334	-36.6808	-0.0397891
 543	1	2	0.096878	87.2265	-36.7986	0.822785
 544	1	1	0.131719	86.3088	-37.2556	0.459275
 545	1	2	0.007579	87.3004	-36.3232	2.14625
 546	1	3	0.947259	85.8336	-36.442	3.2065
 547	1	2	-0.433296	88.5027	-35.7387	2.61063
 548	1	1	0.195208	88.5684	-35.3874	3.6393
 549	1	2	0.002203	89.6049	-35.6171	1.74433
 550	1	1	0.245959	90.5283	-35.1605	2.0958
 551	1	2	0.108341	89.5193	-36.0787	0.415097
 552	1	4	-0.012027	90.5784	-35.9358	-0.44294
 553	1	5	-0.530873	84.776	-37.1201	2.44636
 554	1	5	-0.5745	86.2785	-36.9111	4.52391
 555	1	1	0.177717	86.504	-34.4399	5.23394
 556	1	2	-0.13906	85.8709	-33.9584	4.4897
 557	1	2	-0.172291	85.5479	-32.5978	4.62266
 558	1	1	0.137587	85.9274	-32.0314	5.46564
 559	1	2	0.27179	84.7214	-31.9736	3.67803
 560	1	6	-0.297458	84.4296	-30.6382	3.80953
 561	1	1	0.184682	84.1328	-34.6494	1.62396
 562	1	2	-0.177057	84.5311	-34.0742	2.45852
 563	1	2	-0.065252	85.3713	-34.7018	3.40171
 564	1	1	0.164016	82.4842	-31.8619	5.17268
 565	1	1	0.144303	80.2179	-30.9919	5.5192
 566	1	2	-0.207027	82.2097	-30.9024	4.74154
 567	1	2	-0.150602	80.9143	-30.3928	4.9409
 568	1	2	0.201726	83.151	-30.1738	3.9981
 569	1	2	0.015223	80.5342	-29.1405	4.4022
 570	1	7	0.123165	79.1166	-28.5398	4.58445
 571	1	2	-0.193552	82.7972	-28.926	3.47141
 572	1	2	-0.163782	81.5007	-28.4177	3.66691
 573	1	1	0.167708	83.532	-28.3608	2.90575
 574	1	1	0.146296	81.2374	-27.4587	3.23035
 575	1	2	-0.183938	84.2076	-32.7114	2.59845
 576	1	1	0.154545	83.5651	-32.2221	1.87263
 577	1	7	-0.193999	79.2864	-27.1841	5.3268
 578	1	7	-0.196778	78.1995	-29.4279	5.46801
 579	1	9	0.051577	79.7638	-26.4354	4.68453
 580	1	9	0.039353	79.9115	-27.3066	6.22067
 581	1	9	0.072794	78.3272	-26.7707	5.65972
 582	1	9	0.05895	77.2165	-28.9629	5.61535
 583	1	9	0.044008	78.6356	-29.5885	6.46243
 584	1	9	0.064391	78.0283	-30.4053	4.99866
 585	1	1	0.130931	76.8236	-27.0856	4.04537
 586	1	2	-0.035623	77.2333	-27.5452	3.15028
 587	1	2	-0.458756	76.5714	-27.3475	1.92597
 588	1	1	0.207809	75.667	-26.7458	1.88999
 589	1	2	0.31527	77.0506	-27.9476	0.752238
 590	1	2	-0.466224	78.1854	-28.7636	0.822708
 591	1	1	0.20556	78.547	-29.2506	-0.0787939
 592	1	2	-0.031899	78.8467	-28.9714	2.04557
 593	1	1	0.127567	79.7069	-29.6357	2.05998
 594	1	2	0.005289	78.4011	-28.3368	3.22807
 595	1	1	0.144011	74.7045	-27.2569	-2.36955
 596	1	2	-0.407424	75.2183	-26.374	-1.99813
 597	1	2	0.096878	74.9379	-25.1138	-2.56013
 598	1	1	0.131719	74.2077	-25.0283	-3.3616
 599	1	2	0.007579	75.5952	-23.9634	-2.08884
 600	1	3	0.947259	75.154	-22.3616	-2.80637
 601	1	2	-0.433296	76.5567	-24.0828	-1.0611
 602	1	1	0.195208	77.0853	-23.1977	-0.711719
 603	1	2	0.002203	76.8453	-25.3441	-0.513114
 604	1	1	0.245959	77.598	-25.4292	0.264185
 605	1	2	0.108341	76.1668	-26.4946	-0.966791
 606	1	4	-0.012027	76.434	-27.7404	-0.453656
 607	1	5	-0.530873	76.1205	-21.3615	-2.33425
 608	1	5	-0.5745	74.8661	-22.5849	-4.22853
 609	1	1	0.177717	74.4711	-21.0813	-0.268215
 610	1	2	-0.13906	73.5412	-21.3996	-0.736928
 611	1	2	-0.172291	72.3132	-21.1758	-0.0893949
 612	1	1	0.137587	72.2852	-20.6877	0.880235
 613	1	2	0.27179	71.1152	-21.5924	-0.687441
 614	1	6	-0.297458	69.9292	-21.3504	-0.0390342
 615	1	1	0.184682	72.3799	-22.9043	-3.58485
 616	1	2	-0.177057	72.3641	-22.4362	-2.60121
 617	1	2	-0.065252	73.5713	-22.036	-1.99363
 618	1	1	0.164016	69.971	-23.9767	0.388334
 619	1	1	0.144303	68.015	-25.4588	0.379073
 620	1	2	-0.207027	68.9948	-23.5674	0.145923
 621	1	2	-0.150602	67.8696	-24.409	0.139879
 622	1	2	0.201726	68.8531	-22.1969	-0.113832
 623	1	2	0.015223	66.5839	-23.8928	-0.138903
 624	1	7	0.123165	65.3083	-24.7648	-0.0966414
 625	1	2	-0.193552	67.5916	-21.6727	-0.413812
 626	1	2	-0.163782	66.4695	-22.5174	-0.446872
 627	1	1	0.167708	67.4903	-20.6114	-0.619378
 628	1	1	0.146296	65.4964	-22.0932	-0.681765
 629	1	2	-0.183938	71.1394	-22.2138	-1.94876
 630	1	1	0.154545	70.2092	-22.5117	-2.42381
 631	1	7	-0.193999	65.5111	-26.112	0.647161
 632	1	7	-0.196778	64.9318	-25.0992	-1.5648
 633	1	9	0.051577	64.5581	-26.6483	0.742817
 634	1	9	0.039353	65.9053	-25.9525	1.65911
 635	1	9	0.072794	66.2038	-26.771	0.108587
 636	1	9	0.05895	64.0869	-25.7976	-1.61713
 637	1	9	0.044008	65.7774	-25.5713	-2.08141
 638	1	9	0.064391	64.6688	-24.192	-2.12325
 639	1	1	0.130931	65.5231	-23.4702	2.29552
 640	1	2	-0.035623	64.5235	-23.3621	1.87812
 641	1	2	-0.458756	63.5766	-22.5736	2.55158
 642	1	1	0.207809	63.8485	-22.0937	3.48702
 643	1	2	0.31527	62.2793	-22.4201	2.03738
 644	1	2	-0.466224	61.9393	-23.0787	0.848997
 645	1	1	0.20556	60.9318	-22.9822	0.455192
 646	1	2	-0.031899	62.8877	-23.8559	0.160445
 647	1	1	0.127567	62.5867	-24.3424	-0.762122
 648	1	2	0.005289	64.2043	-23.9895	0.6548
 649	1	1	0.144011	60.8482	-21.7293	5.23396
 650	1	2	-0.407424	61.3365	-20.8186	4.90505
 651	1	2	0.096878	61.6866	-19.8254	5.83664
 652	1	1	0.131719	61.4496	-19.9601	6.88785
 653	1	2	0.007579	62.3589	-18.6638	5.42039
 654	1	3	0.947259	62.7729	-17.4255	6.67821
 655	1	2	-0.433296	62.6828	-18.497	4.0515
 656	1	1	0.195208	63.2122	-17.6005	3.73084