pySIMM System Object

758 atoms
813 bonds
1372 angles
2042 dihedrals
252 impropers

9 atom types
10 bond types
17 angle types
7 dihedral types
2 improper types

-133.680690 133.680690 xlo xhi
-133.680690 133.680690 ylo yhi
-133.680690 133.680690 zlo zhi

Masses

   1	1.008	# ha
   2	12.01	# ca
   3	32.06	# sy
   4	16.0	# oh
   5	16.0	# o
   6	16.0	# os
   7	12.01	# c3
   8	1.008	# ho
   9	1.008	# hc

Pair Coeffs

   1	0.015	2.59964245953351	# ha
   2	0.086	3.3996695084235347	# ca
   3	0.25	3.563594872561357	# sy
   4	0.2104	3.0664733878390478	# oh
   5	0.21	2.959921901149463	# o
   6	0.17	3.0000123434657784	# os
   7	0.1094	3.3996695084235347	# c3
   8	0.0	0.0	# ho
   9	0.0157	2.649532787749369	# hc

Bond Coeffs

   1	371.4	0.973	# ho,oh
   2	243.4	1.7909	# ca,sy
   3	461.1	1.3984	# ca,ca
   4	300.9	1.5375	# c3,c3
   5	330.6	1.0969	# c3,hc
   6	493.0	1.466	# o,sy
   7	345.8	1.086	# ca,ha
   8	321.0	1.5156	# c3,ca
   9	376.6	1.3696	# ca,os
  10	384.0	1.3637	# ca,oh

Angle Coeffs

   1	61.48	119.42	# ca,ca,sy
   2	72.54	121.41	# o,sy,o
   3	69.58	119.2	# ca,ca,os
   4	60.3	104.44	# ca,sy,ca
   5	46.34	109.8	# c3,c3,hc
   6	49.0	108.58	# ca,oh,ho
   7	65.77	108.35	# ca,sy,o
   8	63.48	119.89	# ca,os,ca
   9	69.52	119.9	# ca,ca,oh
  10	63.56	112.24	# ca,c3,ca
  11	62.86	111.51	# c3,c3,c3
  12	39.4	107.58	# hc,c3,hc
  13	66.62	120.02	# ca,ca,ca
  14	48.18	119.88	# ca,ca,ha
  15	63.15	112.07	# c3,c3,ca
  16	63.53	120.77	# c3,ca,ca
  17	63.5	119.89	# ca,oh,ca

Dihedral Coeffs

   1	1	0.9	2	180	# X,ca,oh,X
   2	1	1.3	2	180	# X,ca,sy,X
   3	1	0.16	3	0	# hc,c3,c3,c3
   4	1	3.625	2	180	# X,ca,ca,X
   5	1	0.0	2	0	# X,c3,ca,X
   6	1	0.15555555555555556	3	0	# X,c3,c3,X
   7	1	0.9	2	180	# X,ca,os,X

Improper Coeffs

   1	1.1	-1	2	# ca,X,X,ha
   2	1.1	-1	2	# ca,ca,ca,c3

Atoms

   1	1	1	0.144011	-35.1712	-96.9531	11.5686
   2	1	2	-0.407424	-35.3715	-95.8896	11.475
   3	1	2	0.096878	-34.9055	-95.0014	12.4646
   4	1	1	0.131719	-34.3445	-95.3862	13.3143
   5	1	2	0.007579	-35.171	-93.624	12.3677
   6	1	3	0.947259	-34.6032	-92.542	13.7048
   7	1	2	-0.433296	-35.8934	-93.126	11.2566
   8	1	1	0.195208	-36.0928	-92.0599	11.177
   9	1	2	0.002203	-36.3622	-94.0185	10.2721
  10	1	1	0.245959	-36.9278	-93.6472	9.4206
  11	1	2	0.108341	-36.1091	-95.3963	10.3838
  12	1	4	-0.012027	-36.5886	-96.2524	9.43388
  13	1	5	-0.530873	-35.7953	-92.0331	14.3916
  14	1	5	-0.5745	-33.5579	-93.2739	14.4303
  15	1	1	0.177717	-35.3841	-89.7225	13.4113
  16	1	2	-0.13906	-34.4421	-89.8633	12.8823
  17	1	2	-0.172291	-33.8149	-88.7668	12.2625
  18	1	1	0.137587	-34.2623	-87.7785	12.3092
  19	1	2	0.27179	-32.5799	-88.9359	11.619
  20	1	6	-0.297458	-31.9242	-87.8426	11.1087
  21	1	1	0.184682	-32.1158	-92.2789	12.1964
  22	1	2	-0.177057	-32.5984	-91.3024	12.1986
  23	1	2	-0.065252	-33.8342	-91.1366	12.8564
  24	1	1	0.164016	-31.1584	-88.1189	13.6564
  25	1	1	0.144303	-29.0097	-87.4191	14.585
  26	1	2	-0.207027	-30.4465	-87.6089	13.0137
  27	1	2	-0.150602	-29.2142	-87.1953	13.5436
  28	1	2	0.201726	-30.7459	-87.391	11.6588
  29	1	2	0.015223	-28.2558	-86.5441	12.7335
  30	1	7	0.123165	-26.8395	-86.2132	13.2553
  31	1	2	-0.193552	-29.8187	-86.7204	10.8492
  32	1	2	-0.163782	-28.5817	-86.306	11.3796
  33	1	1	0.167708	-30.0522	-86.5512	9.80233
  34	1	1	0.146296	-27.8593	-85.8235	10.7258
  35	1	2	-0.183938	-31.9751	-90.2033	11.5799
  36	1	1	0.154545	-31.0105	-90.3207	11.0949
  37	1	7	-0.193999	-25.9269	-87.3801	12.7916
  38	1	7	-0.196778	-26.7629	-86.1716	14.8072
  39	1	9	0.051577	-24.9207	-87.304	13.2225
  40	1	9	0.039353	-25.8384	-87.4037	11.6978
  41	1	9	0.072794	-26.3463	-88.3446	13.1063
  42	1	9	0.05895	-26.9151	-87.1635	15.2505
  43	1	9	0.044008	-27.5135	-85.4889	15.2254
  44	1	9	0.064391	-25.7762	-85.8198	15.1353
  45	1	1	0.130931	-24.4357	-85.4754	11.9545
  46	1	2	-0.035623	-25.0969	-84.637	12.1488
  47	1	2	-0.458756	-24.6478	-83.3467	11.8152
  48	1	1	0.207809	-23.6648	-83.213	11.3746
  49	1	2	0.31527	-25.4345	-82.2221	12.094
  50	1	2	-0.466224	-26.7034	-82.4052	12.6638
  51	1	1	0.20556	-27.3197	-81.5386	12.8846
  52	1	2	-0.031899	-27.1619	-83.6944	12.9921
  53	1	1	0.127567	-28.1349	-83.8111	13.4642
  54	1	2	0.005289	-26.3593	-84.8309	12.7561
  55	1	1	0.144011	-24.6658	-81.4006	14.4734
  56	1	2	-0.407424	-24.5888	-80.3637	14.1555
  57	1	2	0.096878	-24.379	-79.3662	15.1248
  58	1	1	0.131719	-24.3127	-79.6489	16.1732
  59	1	2	0.007579	-24.2834	-78.0125	14.7503
  60	1	3	0.947259	-24.1108	-76.7676	16.0622
  61	1	2	-0.433296	-24.3926	-77.6629	13.3823
  62	1	1	0.195208	-24.3408	-76.6157	13.0891
  63	1	2	0.002203	-24.6078	-78.6668	12.4152
  64	1	1	0.245959	-24.708	-78.4026	11.3651
  65	1	2	0.108341	-24.7223	-80.0177	12.7956
  66	1	4	-0.012027	-24.9502	-80.9669	11.8266
  67	1	5	-0.530873	-25.1991	-75.7968	15.896
  68	1	5	-0.5745	-23.9227	-77.4972	17.3219
  69	1	1	0.177717	-21.2969	-77.5657	16.2209
  70	1	2	-0.13906	-21.3233	-76.526	15.8994
  71	1	2	-0.172291	-20.1224	-75.8135	15.7164
  72	1	1	0.137587	-19.1671	-76.3033	15.8792
  73	1	2	0.27179	-20.1447	-74.4544	15.3622
  74	1	6	-0.297458	-18.9414	-73.788	15.245
  75	1	1	0.184682	-23.54	-74.0127	15.2179
  76	1	2	-0.177057	-22.5859	-74.5252	15.3358
  77	1	2	-0.065252	-22.5638	-75.8851	15.7098
  78	1	1	0.164016	-18.3836	-72.0974	17.1857
  79	1	1	0.144303	-18.2696	-69.6212	16.9673
  80	1	2	-0.207027	-18.5378	-71.6276	16.2187
  81	1	2	-0.150602	-18.4709	-70.2275	16.0873
  82	1	2	0.201726	-18.8302	-72.4259	15.1051
  83	1	2	0.015223	-18.6961	-69.602	14.8406
  84	1	7	0.123165	-18.7421	-68.0571	14.7658
  85	1	2	-0.193552	-19.024	-71.8267	13.8537
  86	1	2	-0.163782	-18.966	-70.4272	13.722
  87	1	1	0.167708	-19.2425	-72.4516	12.9929
  88	1	1	0.146296	-19.1564	-69.9993	12.7436
  89	1	2	-0.183938	-21.3839	-73.8131	15.1671
  90	1	1	0.154545	-21.4221	-72.7595	14.9097
  91	1	7	-0.193999	-20.0765	-67.6208	15.4311
  92	1	7	-0.196778	-18.7855	-67.5194	13.3084
  93	1	9	0.051577	-20.2357	-66.5382	15.346
  94	1	9	0.039353	-20.1008	-67.8914	16.4944
  95	1	9	0.072794	-20.9285	-68.1165	14.9482
  96	1	9	0.05895	-19.7102	-67.8136	12.7961
  97	1	9	0.044008	-17.9351	-67.8859	12.7198
  98	1	9	0.064391	-18.744	-66.4224	13.3012
  99	1	1	0.130931	-16.1067	-68.569	14.228
 100	1	2	-0.035623	-16.21	-67.8019	14.9922
 101	1	2	-0.458756	-15.0568	-67.1798	15.5078
 102	1	1	0.207809	-14.0765	-67.4771	15.1471
 103	1	2	0.31527	-15.1556	-66.1749	16.4804
 104	1	2	-0.466224	-16.4313	-65.8162	16.9469
 105	1	1	0.20556	-16.5335	-65.0631	17.724
 106	1	2	-0.031899	-17.5868	-66.4306	16.4325
 107	1	1	0.127567	-18.5496	-66.1088	16.8166
 108	1	2	0.005289	-17.4967	-67.4286	15.435
 109	1	1	0.144011	-13.2325	-65.1308	19.4302
 110	1	2	-0.407424	-13.5696	-64.2456	18.8974
 111	1	2	0.096878	-13.6084	-63.003	19.5573
 112	1	1	0.131719	-13.3025	-62.9321	20.5995
 113	1	2	0.007579	-14.0655	-61.8511	18.8919
 114	1	3	0.947259	-14.1678	-60.3369	19.892
 115	1	2	-0.433296	-14.4637	-61.9446	17.5328
 116	1	1	0.195208	-14.8047	-61.064	16.9947
 117	1	2	0.002203	-14.4306	-63.1944	16.8791
 118	1	1	0.245959	-14.7533	-63.283	15.8436
 119	1	2	0.108341	-14.0007	-64.3482	17.5646
 120	1	4	-0.012027	-14.012	-65.5759	16.9526
 121	1	5	-0.530873	-15.3419	-60.5431	20.7461
 122	1	5	-0.5745	-12.8529	-60.1284	20.5097
 123	1	1	0.177717	-12.6367	-57.9755	19.0803
 124	1	2	-0.13906	-13.6011	-57.9287	18.5756
 125	1	2	-0.172291	-13.8974	-56.8513	17.7193
 126	1	1	0.137587	-13.1613	-56.0726	17.5434
 127	1	2	0.27179	-15.1384	-56.795	17.0646
 128	1	6	-0.297458	-15.4001	-55.811	16.1439
 129	1	1	0.184682	-16.557	-59.6376	18.3432
 130	1	2	-0.177057	-15.8096	-58.8671	18.1567
 131	1	2	-0.065252	-14.5498	-58.9511	18.7852
 132	1	1	0.164016	-16.3863	-54.6812	18.3667
 133	1	1	0.144303	-16.6119	-52.2482	18.7424
 134	1	2	-0.207027	-16.0189	-53.9843	17.6191
 135	1	2	-0.150602	-16.1467	-52.5972	17.8252
 136	1	2	0.201726	-15.4537	-54.4677	16.4293
 137	1	2	0.015223	-15.7052	-51.6656	16.8554
 138	1	7	0.123165	-15.8949	-50.1462	17.0925
 139	1	2	-0.193552	-15.0088	-53.5605	15.4603
 140	1	2	-0.163782	-15.1207	-52.1747	15.6717
 141	1	1	0.167708	-14.5856	-53.9397	14.5352
 142	1	1	0.146296	-14.7629	-51.5091	14.8919
 143	1	2	-0.183938	-16.0917	-57.8018	17.2815
 144	1	1	0.154545	-17.0463	-57.7491	16.7667
 145	1	7	-0.193999	-15.2432	-49.7575	18.4523
 146	1	7	-0.196778	-17.4137	-49.8441	17.2436
 147	1	9	0.051577	-15.7728	-50.2041	19.3024
 148	1	9	0.039353	-15.2565	-48.6696	18.5988
 149	1	9	0.072794	-14.205	-50.1061	18.5117
 150	1	9	0.05895	-17.8185	-50.2555	18.1766
 151	1	9	0.044008	-17.9957	-50.2863	16.4261
 152	1	9	0.064391	-17.5986	-48.7621	17.2537
 153	1	1	0.130931	-17.0278	-49.4887	14.6236
 154	1	2	-0.035623	-16.0324	-49.0712	14.7419
 155	1	2	-0.458756	-15.482	-48.3386	13.6723
 156	1	1	0.207809	-16.0587	-48.1974	12.7625
 157	1	2	0.31527	-14.1896	-47.7988	13.7621
 158	1	2	-0.466224	-13.4482	-48.0338	14.9267
 159	1	1	0.20556	-12.4369	-47.6458	14.9994
 160	1	2	-0.031899	-13.9903	-48.7671	15.9969
 161	1	1	0.127567	-13.3665	-48.9298	16.8695
 162	1	2	0.005289	-15.3013	-49.2944	15.9336
 163	1	1	0.144011	-15.7421	-45.5774	13.1858
 164	1	2	-0.407424	-15.2871	-45.4721	12.2041
 165	1	2	0.096878	-15.8175	-44.5373	11.2935
 166	1	1	0.131719	-16.6878	-43.9491	11.5776
 167	1	2	0.007579	-15.2331	-44.3616	10.0237
 168	1	3	0.947259	-15.9738	-43.1541	8.88663
 169	1	2	-0.433296	-14.1133	-45.1474	9.66154
 170	1	1	0.195208	-13.6696	-45.0306	8.67426
 171	1	2	0.002203	-13.5898	-46.084	10.5751
 172	1	1	0.245959	-12.7257	-46.6864	10.3047
 173	1	2	0.108341	-14.1732	-46.2561	11.845
 174	1	4	-0.012027	-13.5862	-47.1423	12.7166
 175	1	5	-0.530873	-16.3685	-43.8798	7.6736
 176	1	5	-0.5745	-16.9469	-42.3782	9.6649
 177	1	1	0.177717	-14.5938	-41.0122	10.3226
 178	1	2	-0.13906	-14.162	-41.0619	9.3242
 179	1	2	-0.172291	-13.1972	-40.1164	8.92581
 180	1	1	0.137587	-12.8748	-39.3393	9.61238
 181	1	2	0.27179	-12.6864	-40.1362	7.61794
 182	1	6	-0.297458	-11.8526	-39.1298	7.19442
 183	1	1	0.184682	-14.474	-42.7778	6.37999
 184	1	2	-0.177057	-14.0931	-42.0582	7.10379
 185	1	2	-0.065252	-14.6215	-42.0353	8.41329
 186	1	1	0.164016	-10.3615	-37.1812	6.37965
 187	1	1	0.144303	-7.8849	-37.1575	6.25029
 188	1	2	-0.207027	-9.79708	-38.0728	6.63601
 189	1	2	-0.150602	-8.39321	-38.0675	6.55994
 190	1	2	0.201726	-10.4832	-39.2116	7.0772
 191	1	2	0.015223	-7.6425	-39.2063	6.9218
 192	1	7	0.123165	-6.09971	-39.1066	6.97088
 193	1	2	-0.193552	-9.7548	-40.3636	7.41932
 194	1	2	-0.163782	-8.34765	-40.3598	7.34321
 195	1	1	0.167708	-10.2724	-41.2507	7.77064
 196	1	1	0.146296	-7.81597	-41.2543	7.64897
 197	1	2	-0.183938	-13.1313	-41.1083	6.709
 198	1	1	0.154545	-12.7637	-41.0883	5.68723
 199	1	7	-0.193999	-5.39968	-40.4934	7.03969
 200	1	7	-0.196778	-5.75224	-38.378	8.29747
 201	1	9	0.051577	-4.30948	-40.376	6.98476
 202	1	9	0.039353	-5.7064	-41.1436	6.21124
 203	1	9	0.072794	-5.62017	-41.0135	7.98003
 204	1	9	0.05895	-6.15653	-38.9268	9.15795
 205	1	9	0.044008	-6.18607	-37.3701	8.32379
 206	1	9	0.064391	-4.66734	-38.2937	8.4391
 207	1	1	0.130931	-4.59369	-36.7069	6.74611
 208	1	2	-0.035623	-4.79681	-37.1823	5.79177
 209	1	2	-0.458756	-4.27283	-36.5842	4.63026
 210	1	1	0.207809	-3.69064	-35.6713	4.71975
 211	1	2	0.31527	-4.48806	-37.1583	3.36616
 212	1	2	-0.466224	-5.24733	-38.3339	3.28579
 213	1	1	0.20556	-5.42106	-38.7896	2.31576
 214	1	2	-0.031899	-5.78201	-38.9307	4.44256
 215	1	1	0.127567	-6.3667	-39.8427	4.34933
 216	1	2	0.005289	-5.55385	-38.3753	5.71894
 217	1	1	0.144011	-5.21278	-34.3093	2.20834
 218	1	2	-0.407424	-4.13231	-34.2416	2.10971
 219	1	2	0.096878	-3.51761	-32.9817	1.98006
 220	1	1	0.131719	-4.13195	-32.0838	1.9882
 221	1	2	0.007579	-2.1185	-32.8794	1.84966
 222	1	3	0.947259	-1.37565	-31.2274	1.70831
 223	1	2	-0.433296	-1.33198	-34.057	1.85724
 224	1	1	0.195208	-0.248389	-33.98	1.77647
 225	1	2	0.002203	-1.95211	-35.3163	1.98675
 226	1	1	0.245959	-1.35484	-36.2254	1.99495
 227	1	2	0.108341	-3.35045	-35.4101	2.1171
 228	1	4	-0.012027	-3.94784	-36.6396	2.21352
 229	1	5	-0.530873	-2.47721	-30.2696	1.56062
 230	1	5	-0.5745	-0.380394	-31.0722	2.77591
 231	1	1	0.177717	1.37415	-30.5093	1.02774
 232	1	2	-0.13906	0.885744	-30.8303	0.108563
 233	1	2	-0.172291	1.59524	-30.8111	-1.10562
 234	1	1	0.137587	2.63211	-30.4892	-1.12082
 235	1	2	0.27179	0.96525	-31.2143	-2.29647
 236	1	6	-0.297458	1.63939	-31.2285	-3.49491
 237	1	1	0.184682	-2.13264	-31.9606	-1.04318
 238	1	2	-0.177057	-1.08952	-31.6501	-1.0554
 239	1	2	-0.065252	-0.460322	-31.2495	0.141752
 240	1	1	0.164016	4.1529	-31.8497	-3.90546
 241	1	1	0.144303	5.95952	-30.2847	-4.49749
 242	1	2	-0.207027	3.93778	-30.7906	-4.01138
 243	1	2	-0.150602	4.96072	-29.8873	-4.35187
 244	1	2	0.201726	2.63112	-30.3328	-3.80783
 245	1	2	0.015223	4.68988	-28.5061	-4.51056
 246	1	7	0.123165	5.7797	-27.4772	-4.91348
 247	1	2	-0.193552	2.34347	-28.9683	-3.94502
 248	1	2	-0.163782	3.36348	-28.0647	-4.29496
 249	1	1	0.167708	1.32696	-28.6175	-3.79269
 250	1	1	0.146296	3.12064	-27.0103	-4.39685
 251	1	2	-0.183938	-0.371392	-31.6419	-2.26647
 252	1	1	0.154545	-0.847916	-31.9546	-3.19087
 253	1	7	-0.193999	5.30686	-26.7909	-6.22695
 254	1	7	-0.196778	7.14473	-28.1493	-5.22612
 255	1	9	0.051577	4.46161	-26.1159	-6.04568
 256	1	9	0.039353	4.98603	-27.5418	-6.96075
 257	1	9	0.072794	6.10457	-26.2033	-6.69624
 258	1	9	0.05895	7.55302	-28.6433	-4.33512
 259	1	9	0.044008	7.88663	-27.4097	-5.5528
 260	1	9	0.064391	7.04926	-28.8926	-6.02802
 261	1	1	0.130931	7.12872	-25.0632	-5.07993
 262	1	2	-0.035623	6.7564	-25.2524	-4.07738
 263	1	2	-0.458756	7.04352	-24.3195	-3.0646
 264	1	1	0.207809	7.62627	-23.4359	-3.3075
 265	1	2	0.31527	6.61365	-24.5434	-1.74606
 266	1	2	-0.466224	5.89277	-25.7103	-1.463
 267	1	1	0.20556	5.56602	-25.8984	-0.444595
 268	1	2	-0.031899	5.61586	-26.6528	-2.4684
 269	1	1	0.127567	5.08759	-27.5618	-2.1939
 270	1	2	0.005289	6.02941	-26.4322	-3.80102
 271	1	1	0.144011	9.41312	-23.7627	-0.0140095
 272	1	2	-0.407424	9.07456	-22.7915	-0.365578
 273	1	2	0.096878	9.96177	-21.6988	-0.371496
 274	1	1	0.131719	10.9856	-21.8273	-0.0251509
 275	1	2	0.007579	9.52918	-20.4326	-0.805156
 276	1	3	0.947259	10.7282	-19.0748	-0.715466
 277	1	2	-0.433296	8.1954	-20.2658	-1.25824
 278	1	1	0.195208	7.84725	-19.2928	-1.59893
 279	1	2	0.002203	7.31043	-21.362	-1.24479
 280	1	1	0.245959	6.27903	-21.2419	-1.56894
 281	1	2	0.108341	7.74797	-22.6218	-0.796411
 282	1	4	-0.012027	6.87119	-23.6693	-0.72079
 283	1	5	-0.530873	11.2737	-19.112	0.646267
 284	1	5	-0.5745	11.6191	-19.2225	-1.87158
 285	1	1	0.177717	10.2008	-17.3646	-3.03344
 286	1	2	-0.13906	9.65532	-16.9459	-2.1879
 287	1	2	-0.172291	8.8562	-15.7989	-2.35701
 288	1	1	0.137587	8.77494	-15.3261	-3.33124
 289	1	2	0.27179	8.15394	-15.2622	-1.26469
 290	1	6	-0.297458	7.34883	-14.1596	-1.42785
 291	1	1	0.184682	9.12846	-17.4853	1.15107
 292	1	2	-0.177057	9.05092	-17.0146	0.171362
 293	1	2	-0.065252	9.75057	-17.5622	-0.923387
 294	1	1	0.164016	5.81035	-12.0629	-1.61819
 295	1	1	0.144303	6.51877	-9.68762	-1.5193
 296	1	2	-0.207027	6.85537	-11.8168	-1.45614
 297	1	2	-0.150602	7.26399	-10.4686	-1.39381
 298	1	2	0.201726	7.78916	-12.857	-1.32949
 299	1	2	0.015223	8.62337	-10.1372	-1.20006
 300	1	7	0.123165	9.13224	-8.67744	-1.2311
 301	1	2	-0.193552	9.14166	-12.5403	-1.12558
 302	1	2	-0.163782	9.55013	-11.1976	-1.06728
 303	1	1	0.167708	9.88373	-13.3272	-1.03015
 304	1	1	0.146296	10.6078	-10.989	-0.943242
 305	1	2	-0.183938	8.25255	-15.8687	-0.00295765
 306	1	1	0.154545	7.70435	-15.4468	0.83407
 307	1	7	-0.193999	9.92816	-8.49904	-2.55527
 308	1	7	-0.196778	10.1586	-8.43655	-0.0827783
 309	1	9	0.051577	10.2811	-7.4659	-2.67041
 310	1	9	0.039353	9.31364	-8.75914	-3.42631
 311	1	9	0.072794	10.8085	-9.15272	-2.5853
 312	1	9	0.05895	11.1075	-8.95733	-0.255611
 313	1	9	0.044008	9.7719	-8.7845	0.882812
 314	1	9	0.064391	10.3949	-7.36816	0.00887361
 315	1	1	0.130931	7.79076	-7.81462	1.05014
 316	1	2	-0.035623	7.50017	-7.2518	0.167571
 317	1	2	-0.458756	6.69324	-6.11024	0.332304
 318	1	1	0.207809	6.39452	-5.79931	1.32896
 319	1	2	0.31527	6.3521	-5.31427	-0.769581
 320	1	2	-0.466224	6.73867	-5.72874	-2.04929
 321	1	1	0.20556	6.47442	-5.11867	-2.90753
 322	1	2	-0.031899	7.55584	-6.86052	-2.2179
 323	1	1	0.127567	7.8851	-7.10127	-3.22318
 324	1	2	0.005289	8.00994	-7.60677	-1.10336
 325	1	1	0.144011	8.43482	-3.80404	-0.929552
 326	1	2	-0.407424	7.92048	-2.94452	-0.507426
 327	1	2	0.096878	8.6842	-1.83548	-0.101147
 328	1	1	0.131719	9.76741	-1.86738	-0.197879
 329	1	2	0.007579	8.06493	-0.721521	0.492164
 330	1	3	0.947259	9.1312	0.54036	1.25151
 331	1	2	-0.433296	6.65692	-0.71623	0.6499
 332	1	1	0.195208	6.18086	0.119921	1.16173
 333	1	2	0.002203	5.89633	-1.83703	0.253975
 334	1	1	0.245959	4.82296	-1.85727	0.428116
 335	1	2	0.108341	6.52338	-2.96801	-0.304081
 336	1	4	-0.012027	5.76915	-4.08591	-0.592038
 337	1	5	-0.530873	10.4321	-0.071091	1.55186
 338	1	5	-0.5745	8.34754	1.16846	2.32051
 339	1	1	0.177717	11.428	2.22465	0.9081
 340	1	2	-0.13906	10.6958	2.55383	0.171962
 341	1	2	-0.172291	10.9769	3.66382	-0.64059
 342	1	1	0.137587	11.9279	4.17995	-0.550892
 343	1	2	0.27179	10.029	4.12544	-1.5626
 344	1	6	-0.297458	10.379	5.19181	-2.3627
 345	1	1	0.184682	7.55485	1.8193	-0.967686
 346	1	2	-0.177057	8.51411	2.32635	-0.88069
 347	1	2	-0.065252	9.46331	1.87827	0.0652581
 348	1	1	0.164016	8.25099	6.1129	-0.954761
 349	1	1	0.144303	6.97473	8.1376	-1.49289
 350	1	2	-0.207027	8.56205	6.73083	-1.79169
 351	1	2	-0.150602	7.84248	7.9025	-2.10037
 352	1	2	0.201726	9.66181	6.3498	-2.57855
 353	1	2	0.015223	8.21086	8.72324	-3.19611
 354	1	7	0.123165	7.32846	9.89146	-3.70952
 355	1	2	-0.193552	10.0787	7.19192	-3.61884
 356	1	2	-0.163782	9.36444	8.36468	-3.92556
 357	1	1	0.167708	10.9464	6.91072	-4.20807
 358	1	1	0.146296	9.68233	8.9756	-4.76667
 359	1	2	-0.183938	8.80387	3.44203	-1.69949
 360	1	1	0.154545	8.08451	3.78123	-2.43899
 361	1	7	-0.193999	6.08717	10.1447	-2.81199
 362	1	7	-0.196778	6.79305	9.44085	-5.09911
 363	1	9	0.051577	5.45482	9.25115	-2.73596
 364	1	9	0.039353	5.46322	10.9487	-3.22345
 365	1	9	0.072794	6.3887	10.4495	-1.80161
 366	1	9	0.05895	6.42696	8.4069	-5.0546
 367	1	9	0.044008	7.58069	9.48291	-5.86206
 368	1	9	0.064391	5.95526	10.0596	-5.44187
 369	1	1	0.130931	6.83331	12.0576	-5.38614
 370	1	2	-0.035623	7.65134	12.2439	-4.69781
 371	1	2	-0.458756	8.21779	13.5288	-4.67561
 372	1	1	0.207809	7.83808	14.2979	-5.34217
 373	1	2	0.31527	9.22469	13.8507	-3.76009
 374	1	2	-0.466224	9.68884	12.856	-2.8843
 375	1	1	0.20556	10.4437	13.1022	-2.14217
 376	1	2	-0.031899	9.11971	11.5653	-2.89828
 377	1	1	0.127567	9.45326	10.832	-2.16783
 378	1	2	0.005289	8.08308	11.2398	-3.8015
 379	1	1	0.144011	10.215	17.2533	-2.236
 380	1	2	-0.407424	11.082	16.7501	-2.65565
 381	1	2	0.096878	12.3667	17.2806	-2.44403
 382	1	1	0.131719	12.4906	18.187	-1.85546
 383	1	2	0.007579	13.4899	16.6647	-3.02117
 384	1	3	0.947259	15.0931	17.477	-2.80535
 385	1	2	-0.433296	13.3288	15.4772	-3.77608
 386	1	1	0.195208	14.2039	14.9946	-4.21111
 387	1	2	0.002203	12.0424	14.9341	-3.96584
 388	1	1	0.245959	11.9102	14.0317	-4.55974
 389	1	2	0.108341	10.916	15.58	-3.41739
 390	1	4	-0.012027	9.6423	15.1534	-3.68216
 391	1	5	-0.530873	16.092	16.6953	-3.54417
 392	1	5	-0.5745	15.2417	17.7956	-1.3802
 393	1	1	0.177717	14.8437	20.2459	-1.85816
 394	1	2	-0.13906	14.7612	20.2595	-2.94414
 395	1	2	-0.172291	14.6123	21.4844	-3.61999
 396	1	1	0.137587	14.5845	22.416	-3.0636
 397	1	2	0.27179	14.5429	21.5142	-5.02142
 398	1	6	-0.297458	14.5307	22.7235	-5.66981
 399	1	1	0.184682	14.8831	18.1634	-5.64546
 400	1	2	-0.177057	14.7848	19.0887	-5.07924
 401	1	2	-0.065252	14.8542	19.0541	-3.67101
 402	1	1	0.164016	13.4129	22.2283	-8.01739
 403	1	1	0.144303	11.5221	23.4906	-9.00355
 404	1	2	-0.207027	12.9222	23.0046	-7.43996
 405	1	2	-0.150602	11.852	23.7303	-7.99609
 406	1	2	0.201726	13.3955	23.319	-6.15865
 407	1	2	0.015223	11.2411	24.7883	-7.28557
 408	1	7	0.123165	10.1431	25.6358	-7.96831
 409	1	2	-0.193552	12.7985	24.3609	-5.43751
 410	1	2	-0.163782	11.7315	25.0905	-5.99327
 411	1	1	0.167708	13.195	24.629	-4.4632
 412	1	1	0.146296	11.3214	25.9161	-5.42124
 413	1	2	-0.183938	14.6325	20.3173	-5.75093
 414	1	1	0.154545	14.6223	20.3507	-6.83539
 415	1	7	-0.193999	10.852	26.6581	-8.89935
 416	1	7	-0.196778	9.323	26.4906	-6.95615
 417	1	9	0.051577	11.4637	26.1606	-9.66144
 418	1	9	0.039353	11.5288	27.3036	-8.32458
 419	1	9	0.072794	10.1231	27.3057	-9.40443
 420	1	9	0.05895	8.97584	25.8941	-6.10399
 421	1	9	0.044008	8.43977	26.9254	-7.44212
 422	1	9	0.064391	9.91545	27.3236	-6.55666
 423	1	1	0.130931	8.25935	23.9312	-6.91943
 424	1	2	-0.035623	8.24309	23.923	-8.00589
 425	1	2	-0.458756	7.29007	23.1288	-8.66705
 426	1	1	0.207809	6.57792	22.5485	-8.08884
 427	1	2	0.31527	7.23804	23.0838	-10.0671
 428	1	2	-0.466224	8.21021	23.7876	-10.7948
 429	1	1	0.20556	8.23318	23.7077	-11.8777
 430	1	2	-0.031899	9.13941	24.616	-10.1418
 431	1	1	0.127567	9.84209	25.173	-10.7525
 432	1	2	0.005289	9.15763	24.7163	-8.73076
 433	1	1	0.144011	6.16743	24.6301	-12.1101
 434	1	2	-0.407424	5.57972	23.7982	-12.4847
 435	1	2	0.096878	4.83839	23.9757	-13.6692
 436	1	1	0.131719	4.89443	24.9202	-14.2061
 437	1	2	0.007579	4.01233	22.946	-14.1529
 438	1	3	0.947259	3.07959	23.2068	-15.688
 439	1	2	-0.433296	3.95796	21.7171	-13.456
 440	1	1	0.195208	3.32652	20.9143	-13.838
 441	1	2	0.002203	4.74175	21.5247	-12.3033
 442	1	1	0.245959	4.71573	20.5703	-11.7821
 443	1	2	0.108341	5.56341	22.556	-11.811
 444	1	4	-0.012027	6.28388	22.2963	-10.665
 445	1	5	-0.530873	4.04401	23.3459	-16.7843
 446	1	5	-0.5745	2.03701	22.1781	-15.7712
 447	1	1	0.177717	2.1732	25.0242	-17.7293
 448	1	2	-0.13906	1.93791	25.4918	-16.774
 449	1	2	-0.172291	1.30712	26.7475	-16.7434
 450	1	1	0.137587	1.04311	27.2538	-17.6667
 451	1	2	0.27179	0.992105	27.3436	-15.5159
 452	1	6	-0.297458	0.319619	28.5449	-15.5071
 453	1	1	0.184682	2.13115	24.8948	-13.405
 454	1	2	-0.177057	1.92422	25.4126	-14.3399
 455	1	2	-0.065252	2.25807	24.8203	-15.5766
 456	1	1	0.164016	-1.74705	26.9472	-15.1821
 457	1	1	0.144303	-3.33282	27.0402	-13.3024
 458	1	2	-0.207027	-1.70154	27.7743	-14.4791
 459	1	2	-0.150602	-2.59313	27.8283	-13.3981
 460	1	2	0.201726	-0.69621	28.7419	-14.6095
 461	1	2	0.015223	-2.48134	28.8468	-12.4257
 462	1	7	0.123165	-3.31788	28.8208	-11.1294
 463	1	2	-0.193552	-0.648808	29.8265	-13.7264
 464	1	2	-0.163782	-1.54643	29.885	-12.6457
 465	1	1	0.167708	0.121687	30.5823	-13.8464
 466	1	1	0.146296	-1.47091	30.7109	-11.943
 467	1	2	-0.183938	1.30624	26.6768	-14.3141
 468	1	1	0.154545	1.04885	27.1342	-13.3627
 469	1	7	-0.193999	-3.77495	27.3791	-10.7602
 470	1	7	-0.196778	-4.60147	29.6554	-11.375
 471	1	9	0.051577	-2.93733	26.6706	-10.7978
 472	1	9	0.039353	-4.55448	27.0093	-11.438
 473	1	9	0.072794	-4.18732	27.3512	-9.74376
 474	1	9	0.05895	-5.19729	29.2172	-12.1866
 475	1	9	0.044008	-4.35688	30.6842	-11.6675
 476	1	9	0.064391	-5.23701	29.6848	-10.481
 477	1	1	0.130931	-3.70933	31.0113	-9.3647
 478	1	2	-0.035623	-2.80157	30.4507	-9.16152
 479	1	2	-0.458756	-1.98898	30.8547	-8.08437
 480	1	1	0.207809	-2.29977	31.6958	-7.46953
 481	1	2	0.31527	-0.811252	30.1566	-7.76619
 482	1	2	-0.466224	-0.455037	29.0528	-8.55207
 483	1	1	0.20556	0.446597	28.4972	-8.31179
 484	1	2	-0.031899	-1.25928	28.6471	-9.6317
 485	1	1	0.127567	-0.956869	27.7872	-10.2255
 486	1	2	0.005289	-2.45333	29.3304	-9.95006
 487	1	1	0.144011	-0.044775	31.1314	-4.1423
 488	1	2	-0.407424	0.102913	31.9755	-4.81087
 489	1	2	0.096878	0.203867	33.2786	-4.28352
 490	1	1	0.131719	0.105294	33.435	-3.21311
 491	1	2	0.007579	0.374937	34.386	-5.13489
 492	1	3	0.947259	0.27643	36.0588	-4.41853
 493	1	2	-0.433296	0.438803	34.1731	-6.5351
 494	1	1	0.195208	0.525964	35.0295	-7.20357
 495	1	2	0.002203	0.312753	32.8717	-7.06262
 496	1	1	0.245959	0.328625	32.7126	-8.13949
 497	1	2	0.108341	0.127967	31.7709	-6.2024
 498	1	4	-0.012027	-0.0205054	30.4975	-6.69472
 499	1	5	-0.530873	0.278865	37.0266	-5.52281
 500	1	5	-0.5745	-0.836028	35.982	-3.46361
 501	1	1	0.177717	0.978755	35.2923	-1.66604
 502	1	2	-0.13906	1.78862	35.907	-2.0534
 503	1	2	-0.172291	2.83425	36.302	-1.19735
 504	1	1	0.137587	2.8553	35.9575	-0.168616
 505	1	2	0.27179	3.83551	37.1815	-1.64228
 506	1	6	-0.297458	4.82571	37.5313	-0.746978
 507	1	1	0.184682	2.73899	37.617	-4.85633
 508	1	2	-0.177057	2.77501	37.2228	-3.84151
 509	1	2	-0.065252	1.74701	36.3677	-3.38598
 510	1	1	0.164016	4.39938	40.1023	-1.52478
 511	1	1	0.144303	6.03768	41.9441	-1.27222
 512	1	2	-0.207027	5.40811	39.8824	-1.18807
 513	1	2	-0.150602	6.35425	40.9291	-1.05254
 514	1	2	0.201726	5.73732	38.5677	-0.811298
 515	1	2	0.015223	7.66615	40.6794	-0.576889
 516	1	7	0.123165	8.71062	41.7947	-0.249074
 517	1	2	-0.193552	7.01015	38.3212	-0.294101
 518	1	2	-0.163782	7.96414	39.3459	-0.203649
 519	1	1	0.167708	7.24087	37.3284	0.0761348
 520	1	1	0.146296	8.91818	39.0969	0.246424
 521	1	2	-0.183938	3.81261	37.6254	-2.97561
 522	1	1	0.154545	4.59114	38.29	-3.33764
 523	1	7	-0.193999	10.1415	41.3223	-0.645002
 524	1	7	-0.196778	8.66226	41.9676	1.29754
 525	1	9	0.051577	10.4908	40.4695	-0.0536146
 526	1	9	0.039353	10.8756	42.1235	-0.488896
 527	1	9	0.072794	10.1804	41.0456	-1.70665
 528	1	9	0.05895	8.48461	41.0159	1.81286
 529	1	9	0.044008	7.84966	42.6472	1.58568
 530	1	9	0.064391	9.60375	42.3672	1.69387
 531	1	1	0.130931	7.68787	42.4498	-2.77875
 532	1	2	-0.035623	8.09224	43.3112	-2.26809
 533	1	2	-0.458756	8.1777	44.5365	-2.96104
 534	1	1	0.207809	7.82756	44.6054	-3.98673
 535	1	2	0.31527	8.73796	45.6704	-2.35692
 536	1	2	-0.466224	9.19331	45.5635	-1.03595
 537	1	1	0.20556	9.63692	46.4213	-0.543451
 538	1	2	-0.031899	9.11354	44.3403	-0.346314
 539	1	1	0.127567	9.53456	44.2996	0.652672
 540	1	2	0.005289	8.56559	43.1796	-0.946873
 541	1	1	0.144011	6.4718	47.7665	-3.39317
 542	1	2	-0.407424	7.14293	48.4329	-2.85759
 543	1	2	0.096878	6.66257	49.6576	-2.35598
 544	1	1	0.131719	5.61679	49.9211	-2.49799
 545	1	2	0.007579	7.51217	50.5162	-1.63235
 546	1	3	0.947259	6.78309	51.9896	-0.849712
 547	1	2	-0.433296	8.86659	50.1461	-1.43543
 548	1	1	0.195208	9.51441	50.7879	-0.838291
 549	1	2	0.002203	9.34314	48.9173	-1.93942
 550	1	1	0.245959	10.3744	48.618	-1.76759
 551	1	2	0.108341	8.4739	48.0471	-2.62734
 552	1	4	-0.012027	8.90441	46.8272	-3.07945
 553	1	5	-0.530873	5.32222	51.845	-0.81305
 554	1	5	-0.5745	7.5349	52.2293	0.386697
 555	1	1	0.177717	5.31649	54.4419	-1.29732
 556	1	2	-0.13906	6.21596	54.503	-1.90902
 557	1	2	-0.172291	6.46699	55.6563	-2.67606
 558	1	1	0.137587	5.7676	56.4866	-2.65179
 559	1	2	0.27179	7.62748	55.7392	-3.46637
 560	1	6	-0.297458	7.9158	56.8526	-4.22983
 561	1	1	0.184682	9.05947	52.7407	-2.62308
 562	1	2	-0.177057	8.32129	53.5388	-2.65229
 563	1	2	-0.065252	7.13233	53.4305	-1.90112
 564	1	1	0.164016	8.43203	59.1875	-5.24538
 565	1	1	0.144303	6.95696	60.5331	-6.72441
 566	1	2	-0.207027	7.45695	58.8045	-5.53092
 567	1	2	-0.150602	6.62068	59.5595	-6.37685
 568	1	2	0.201726	7.04467	57.5563	-5.04006
 569	1	2	0.015223	5.35243	59.075	-6.76356
 570	1	7	0.123165	4.41715	59.9516	-7.63278
 571	1	2	-0.193552	5.78838	57.0573	-5.4261
 572	1	2	-0.163782	4.94789	57.8147	-6.26245
 573	1	1	0.167708	5.45511	56.0839	-5.0822
 574	1	1	0.146296	3.97309	57.406	-6.50523
 575	1	2	-0.183938	8.56059	54.6894	-3.43064
 576	1	1	0.154545	9.47632	54.7796	-4.0072
 577	1	7	-0.193999	3.66556	60.9048	-6.66401
 578	1	7	-0.196778	3.32533	59.1186	-8.36397
 579	1	9	0.051577	4.35408	61.6089	-6.18095
 580	1	9	0.039353	3.16832	60.3304	-5.87094
 581	1	9	0.072794	2.88305	61.4762	-7.17908
 582	1	9	0.05895	2.72763	59.7638	-9.02174
 583	1	9	0.044008	2.62576	58.6422	-7.66733
 584	1	9	0.064391	3.77404	58.3383	-8.99187
 585	1	1	0.130931	4.24416	62.6374	-8.51
 586	1	2	-0.035623	4.89037	62.0214	-9.1279
 587	1	2	-0.458756	5.31862	62.5405	-10.3644
 588	1	1	0.207809	4.97852	63.5232	-10.6786
 589	1	2	0.31527	6.04454	61.7498	-11.2654
 590	1	2	-0.466224	6.42731	60.4595	-10.8713
 591	1	1	0.20556	6.93826	59.8129	-11.5787
 592	1	2	-0.031899	6.00631	59.9353	-9.6325
 593	1	1	0.127567	6.22485	58.8966	-9.39387
 594	1	2	0.005289	5.17707	60.6844	-8.76842
 595	1	1	0.144011	5.64871	63.0434	-14.9404
 596	1	2	-0.407424	6.68176	63.1379	-14.6163
 597	1	2	0.096878	7.62927	63.6915	-15.4926
 598	1	1	0.131719	7.31989	64.0107	-16.486
 599	1	2	0.007579	8.97557	63.795	-15.1075
 600	1	3	0.947259	10.1522	64.39	-16.3623
 601	1	2	-0.433296	9.36819	63.3257	-13.8246
 602	1	1	0.195208	10.4219	63.3487	-13.5474
 603	1	2	0.002203	8.40921	62.7669	-12.9454
 604	1	1	0.245959	8.71164	62.3773	-11.9752
 605	1	2	0.108341	7.05935	62.6742	-13.3444
 606	1	4	-0.012027	6.0637	62.1079	-12.5886
 607	1	5	-0.530873	11.3748	63.5942	-16.2092
 608	1	5	-0.5745	9.49309	64.465	-17.6716
 609	1	1	0.177717	10.114	65.9918	-13.8489
 610	1	2	-0.13906	10.6196	66.5617	-14.6235
 611	1	2	-0.172291	11.3268	67.7256	-14.2733
 612	1	1	0.137587	11.3855	68.0382	-13.2353
 613	1	2	0.27179	12.0913	68.4023	-15.2365
 614	1	6	-0.297458	13.1085	69.2195	-14.8123
 615	1	1	0.184682	11.4178	66.442	-17.949
 616	1	2	-0.177057	11.3543	66.8283	-16.9318
 617	1	2	-0.065252	10.6816	66.075	-15.9452
 618	1	1	0.164016	14.8341	70.4003	-13.2182
 619	1	1	0.144303	16.8548	69.3944	-12.2443
 620	1	2	-0.207027	15.0952	69.374	-13.4585
 621	1	2	-0.150602	16.2501	68.7835	-12.9043
 622	1	2	0.201726	14.2638	68.642	-14.3153
 623	1	2	0.015223	16.6118	67.4425	-13.1997
 624	1	7	0.123165	17.8959	66.7649	-12.6397
 625	1	2	-0.193552	14.612	67.3118	-14.6179
 626	1	2	-0.163782	15.7594	66.7245	-14.0655
 627	1	1	0.167708	13.9956	66.7124	-15.2802
 628	1	1	0.146296	15.9744	65.6959	-14.3287
 629	1	2	-0.183938	12.0582	67.9936	-16.5782
 630	1	1	0.154545	12.6858	68.4993	-17.3071
 631	1	7	-0.193999	18.8952	67.8284	-12.087
 632	1	7	-0.196778	18.7022	66.0977	-13.7972
 633	1	9	0.051577	19.1528	68.5608	-12.8642
 634	1	9	0.039353	19.83	67.3576	-11.7563
 635	1	9	0.072794	18.4906	68.392	-11.24
 636	1	9	0.05895	19.0803	66.8488	-14.5024
 637	1	9	0.044008	18.1173	65.382	-14.3825
 638	1	9	0.064391	19.5664	65.5512	-13.397
 639	1	1	0.130931	18.0696	66.868	-9.81486
 640	1	2	-0.035623	17.7276	65.9082	-10.185
 641	1	2	-0.458756	17.4917	64.8886	-9.24202
 642	1	1	0.207809	17.6549	65.0892	-8.18776
 643	1	2	0.31527	17.0681	63.6123	-9.63888
 644	1	2	-0.466224	16.8563	63.3837	-11.0069
 645	1	1	0.20556	16.5165	62.4096	-11.3455
 646	1	2	-0.031899	17.083	64.4032	-11.9538
 647	1	1	0.127567	16.9107	64.1729	-12.9993