pySIMM System Object

1676 atoms
1799 bonds
3038 angles
4524 dihedrals
558 impropers

9 atom types
10 bond types
17 angle types
7 dihedral types
2 improper types

-176.655832 176.655832 xlo xhi
-176.655832 176.655832 ylo yhi
-176.655832 176.655832 zlo zhi

Masses

   1	1.008	# ha
   2	12.01	# ca
   3	32.06	# sy
   4	16.0	# oh
   5	16.0	# o
   6	16.0	# os
   7	12.01	# c3
   8	1.008	# ho
   9	1.008	# hc

Pair Coeffs

   1	0.015	2.59964245953351	# ha
   2	0.086	3.3996695084235347	# ca
   3	0.25	3.563594872561357	# sy
   4	0.2104	3.0664733878390478	# oh
   5	0.21	2.959921901149463	# o
   6	0.17	3.0000123434657784	# os
   7	0.1094	3.3996695084235347	# c3
   8	0.0	0.0	# ho
   9	0.0157	2.649532787749369	# hc

Bond Coeffs

   1	371.4	0.973	# ho,oh
   2	243.4	1.7909	# ca,sy
   3	461.1	1.3984	# ca,ca
   4	300.9	1.5375	# c3,c3
   5	330.6	1.0969	# c3,hc
   6	493.0	1.466	# o,sy
   7	345.8	1.086	# ca,ha
   8	321.0	1.5156	# c3,ca
   9	376.6	1.3696	# ca,os
  10	384.0	1.3637	# ca,oh

Angle Coeffs

   1	61.48	119.42	# ca,ca,sy
   2	72.54	121.41	# o,sy,o
   3	69.58	119.2	# ca,ca,os
   4	60.3	104.44	# ca,sy,ca
   5	46.34	109.8	# c3,c3,hc
   6	49.0	108.58	# ca,oh,ho
   7	65.77	108.35	# ca,sy,o
   8	63.48	119.89	# ca,os,ca
   9	69.52	119.9	# ca,ca,oh
  10	63.56	112.24	# ca,c3,ca
  11	62.86	111.51	# c3,c3,c3
  12	39.4	107.58	# hc,c3,hc
  13	66.62	120.02	# ca,ca,ca
  14	48.18	119.88	# ca,ca,ha
  15	63.15	112.07	# c3,c3,ca
  16	63.53	120.77	# c3,ca,ca
  17	63.5	119.89	# ca,oh,ca

Dihedral Coeffs

   1	1	0.9	2	180	# X,ca,oh,X
   2	1	1.3	2	180	# X,ca,sy,X
   3	1	0.16	3	0	# hc,c3,c3,c3
   4	1	3.625	2	180	# X,ca,ca,X
   5	1	0.0	2	0	# X,c3,ca,X
   6	1	0.15555555555555556	3	0	# X,c3,c3,X
   7	1	0.9	2	180	# X,ca,os,X

Improper Coeffs

   1	1.1	-1	2	# ca,X,X,ha
   2	1.1	-1	2	# ca,ca,ca,c3

Atoms

   1	1	1	0.144011	-40.762	-36.5706	-84.0961
   2	1	2	-0.407424	-39.6875	-36.7034	-84.0229
   3	1	2	0.096878	-38.9101	-35.7716	-83.3157
   4	1	1	0.131719	-39.3891	-34.9178	-82.8432
   5	1	2	0.007579	-37.515	-35.9257	-83.2245
   6	1	3	0.947259	-36.5721	-34.6359	-82.3729
   7	1	2	-0.433296	-36.8937	-37.0378	-83.8381
   8	1	1	0.195208	-35.8141	-37.1614	-83.7611
   9	1	2	0.002203	-37.6773	-37.9782	-84.5368
  10	1	1	0.245959	-37.2002	-38.8345	-85.0085
  11	1	2	0.108341	-39.0712	-37.8071	-84.6378
  12	1	4	-0.012027	-39.8294	-38.7048	-85.336
  13	1	5	-0.530873	-37.4372	-34.0845	-81.3229
  14	1	5	-0.5745	-35.2203	-35.1505	-82.1106
  15	1	1	0.177717	-38.3147	-32.4065	-83.1191
  16	1	2	-0.13906	-37.4797	-32.4221	-83.8168
  17	1	2	-0.172291	-37.4264	-31.4868	-84.8647
  18	1	1	0.137587	-38.2255	-30.7601	-84.9854
  19	1	2	0.27179	-36.3441	-31.4963	-85.7638
  20	1	6	-0.297458	-36.2829	-30.6102	-86.8129
  21	1	1	0.184682	-34.5774	-34.1201	-84.4529
  22	1	2	-0.177057	-35.3728	-33.385	-84.5703
  23	1	2	-0.065252	-36.4562	-33.3799	-83.6695
  24	1	1	0.164016	-35.8108	-28.919	-84.8089
  25	1	1	0.144303	-36.5856	-26.567	-84.7074
  26	1	2	-0.207027	-36.4039	-28.5098	-85.6216
  27	1	2	-0.150602	-36.8441	-27.176	-85.5702
  28	1	2	0.201726	-36.7166	-29.3102	-86.7306
  29	1	2	0.015223	-37.602	-26.6187	-86.6236
  30	1	7	0.123165	-38.0286	-25.1366	-86.5356
  31	1	2	-0.193552	-37.4576	-28.7709	-87.7887
  32	1	2	-0.163782	-37.9009	-27.4371	-87.7381
  33	1	1	0.167708	-37.684	-29.393	-88.6495
  34	1	1	0.146296	-38.4668	-27.0525	-88.58
  35	1	2	-0.183938	-35.3218	-32.4465	-85.6172
  36	1	1	0.154545	-34.4922	-32.4489	-86.3194
  37	1	7	-0.193999	-39.0646	-24.7312	-87.6192
  38	1	7	-0.196778	-36.7556	-24.2842	-86.7885
  39	1	9	0.051577	-39.394	-23.695	-87.4686
  40	1	9	0.039353	-39.9564	-25.3695	-87.5784
  41	1	9	0.072794	-38.6398	-24.795	-88.6289
  42	1	9	0.05895	-36.2843	-24.5703	-87.738
  43	1	9	0.044008	-36.0117	-24.4317	-85.9953
  44	1	9	0.064391	-36.9898	-23.2141	-86.8495
  45	1	1	0.130931	-37.5569	-23.0722	-84.6517
  46	1	2	-0.035623	-38.3392	-23.7629	-84.3515
  47	1	2	-0.458756	-39.0115	-23.5279	-83.1384
  48	1	1	0.207809	-38.7349	-22.6766	-82.522
  49	1	2	0.31527	-40.0417	-24.3804	-82.7148
  50	1	2	-0.466224	-40.3862	-25.4789	-83.5094
  51	1	1	0.20556	-41.1859	-26.1405	-83.1886
  52	1	2	-0.031899	-39.7173	-25.7211	-84.7214
  53	1	1	0.127567	-40.0097	-26.5745	-85.3294
  54	1	2	0.005289	-38.6876	-24.8645	-85.1659
  55	1	1	0.144011	-41.8779	-23.403	-79.3225
  56	1	2	-0.407424	-42.1013	-22.7448	-80.158
  57	1	2	0.096878	-42.9295	-21.6234	-79.9602
  58	1	1	0.131719	-43.3354	-21.4205	-78.9714
  59	1	2	0.007579	-43.2239	-20.7603	-81.0315
  60	1	3	0.947259	-44.2065	-19.2714	-80.7131
  61	1	2	-0.433296	-42.6972	-21.0376	-82.3148
  62	1	1	0.195208	-42.9342	-20.3773	-83.1473
  63	1	2	0.002203	-41.8744	-22.1625	-82.5104
  64	1	1	0.245959	-41.4786	-22.3699	-83.5028
  65	1	2	0.108341	-41.5592	-23.0138	-81.4278
  66	1	4	-0.012027	-40.7515	-24.116	-81.575
  67	1	5	-0.530873	-45.0344	-19.0231	-81.8997
  68	1	5	-0.5745	-44.764	-19.3613	-79.3574
  69	1	1	0.177717	-42.6307	-18.0669	-78.5601
  70	1	2	-0.13906	-42.2783	-17.6475	-79.5012
  71	1	2	-0.172291	-41.1943	-16.7515	-79.5118
  72	1	1	0.137587	-40.7043	-16.4835	-78.5804
  73	1	2	0.27179	-40.7263	-16.2258	-80.7303
  74	1	6	-0.297458	-39.6334	-15.3957	-80.7797
  75	1	1	0.184682	-42.9214	-17.7566	-82.8612
  76	1	2	-0.177057	-42.4398	-17.4746	-81.9262
  77	1	2	-0.065252	-42.8993	-18.0201	-80.7101
  78	1	1	0.164016	-41.2087	-13.4349	-79.9693
  79	1	1	0.144303	-40.6713	-11.7917	-78.209
  80	1	2	-0.207027	-40.2596	-13.495	-79.4446
  81	1	2	-0.150602	-39.9446	-12.5638	-78.4395
  82	1	2	0.201726	-39.3409	-14.4957	-79.7893
  83	1	2	0.015223	-38.7064	-12.6283	-77.7585
  84	1	7	0.123165	-38.2971	-11.6133	-76.6701
  85	1	2	-0.193552	-38.1075	-14.5692	-79.1326
  86	1	2	-0.163782	-37.7949	-13.6452	-78.121
  87	1	1	0.167708	-37.3991	-15.3436	-79.4111
  88	1	1	0.146296	-36.8323	-13.7141	-77.62
  89	1	2	-0.183938	-41.3507	-16.5858	-81.9332
  90	1	1	0.154545	-40.9794	-16.1767	-82.868
  91	1	7	-0.193999	-39.4687	-10.7073	-76.1996
  92	1	7	-0.196778	-37.2364	-10.6702	-77.3001
  93	1	9	0.051577	-39.1488	-10.0653	-75.3686
  94	1	9	0.039353	-40.3226	-11.3001	-75.8486
  95	1	9	0.072794	-39.8179	-10.0495	-77.0055
  96	1	9	0.05895	-37.6402	-10.1789	-78.1949
  97	1	9	0.044008	-36.34	-11.2229	-77.6088
  98	1	9	0.064391	-36.9327	-9.88257	-76.599
  99	1	1	0.130931	-39.6163	-13.5126	-75.2258
 100	1	2	-0.035623	-38.6245	-13.3298	-74.8189
 101	1	2	-0.458756	-38.204	-14.0435	-73.6834
 102	1	1	0.207809	-38.8709	-14.7644	-73.2208
 103	1	2	0.31527	-36.934	-13.8286	-73.1335
 104	1	2	-0.466224	-36.0738	-12.9104	-73.7589
 105	1	1	0.20556	-35.0764	-12.7481	-73.36
 106	1	2	-0.031899	-36.4923	-12.1852	-74.8883
 107	1	1	0.127567	-35.8004	-11.4738	-75.3283
 108	1	2	0.005289	-37.7805	-12.3816	-75.4344
 109	1	1	0.144011	-36.3161	-12.0589	-71.0692
 110	1	2	-0.407424	-35.6333	-12.7906	-70.6445
 111	1	2	0.096878	-34.6978	-12.3848	-69.6756
 112	1	1	0.131719	-34.6554	-11.3427	-69.3662
 113	1	2	0.007579	-33.8114	-13.3182	-69.1106
 114	1	3	0.947259	-32.6175	-12.723	-67.8873
 115	1	2	-0.433296	-33.8685	-14.6732	-69.5159
 116	1	1	0.195208	-33.1738	-15.3944	-69.0863
 117	1	2	0.002203	-34.7955	-15.0714	-70.4976
 118	1	1	0.245959	-34.8329	-16.1069	-70.8282
 119	1	2	0.108341	-35.6687	-14.132	-71.0755
 120	1	4	-0.012027	-36.5561	-14.5559	-72.032
 121	1	5	-0.530873	-31.6571	-13.8053	-67.6379
 122	1	5	-0.5745	-32.2007	-11.3749	-68.2928
 123	1	1	0.177717	-33.6249	-14.6592	-65.9564
 124	1	2	-0.13906	-33.962	-13.675	-65.6355
 125	1	2	-0.172291	-34.697	-13.5356	-64.4459
 126	1	1	0.137587	-34.9369	-14.4087	-63.8461
 127	1	2	0.27179	-35.0843	-12.2593	-64.0022
 128	1	6	-0.297458	-35.7145	-12.0992	-62.7921
 129	1	1	0.184682	-33.7896	-10.3788	-66.5491
 130	1	2	-0.177057	-34.0562	-11.2628	-65.9707
 131	1	2	-0.065252	-33.6277	-12.5378	-66.3969
 132	1	1	0.164016	-33.1863	-12.8785	-62.2733
 133	1	1	0.144303	-32.3911	-13.81	-60.1625
 134	1	2	-0.207027	-33.8918	-13.0095	-61.4584
 135	1	2	-0.150602	-33.44	-13.5447	-60.2411
 136	1	2	0.201726	-35.2365	-12.6303	-61.6141
 137	1	2	0.015223	-34.3138	-13.6875	-59.1377
 138	1	7	0.123165	-33.8057	-14.1648	-57.7528
 139	1	2	-0.193552	-36.1108	-12.7531	-60.528
 140	1	2	-0.163782	-35.6538	-13.2653	-59.3004
 141	1	1	0.167708	-37.1424	-12.4329	-60.6388
 142	1	1	0.146296	-36.3492	-13.3112	-58.4682
 143	1	2	-0.183938	-34.7841	-11.1274	-64.7744
 144	1	1	0.154545	-35.0876	-10.1459	-64.4222
 145	1	7	-0.193999	-32.4972	-14.9958	-57.8641
 146	1	7	-0.196778	-34.8666	-15.1146	-57.1217
 147	1	9	0.051577	-32.6089	-15.8168	-58.5843
 148	1	9	0.039353	-32.2229	-15.4352	-56.8965
 149	1	9	0.072794	-31.6507	-14.3708	-58.1742
 150	1	9	0.05895	-35.208	-15.8552	-57.8567
 151	1	9	0.044008	-35.7423	-14.5629	-56.7599
 152	1	9	0.064391	-34.4621	-15.6736	-56.2692
 153	1	1	0.130931	-33.5926	-14.0571	-54.9796
 154	1	2	-0.035623	-33.4307	-13.0885	-55.4434
 155	1	2	-0.458756	-33.1046	-11.9917	-54.6245
 156	1	1	0.207809	-33.019	-12.136	-53.5507
 157	1	2	0.31527	-32.8409	-10.7315	-55.1874
 158	1	2	-0.466224	-32.9149	-10.5842	-56.5759
 159	1	1	0.20556	-32.6956	-9.61931	-57.0234
 160	1	2	-0.031899	-33.2431	-11.6741	-57.3979
 161	1	1	0.127567	-33.2635	-11.5137	-58.4718
 162	1	2	0.005289	-33.5143	-12.9476	-56.846
 163	1	1	0.144011	-30.6869	-9.42148	-52.5153
 164	1	2	-0.407424	-31.7189	-9.40214	-52.1749
 165	1	2	0.096878	-32.0053	-9.28619	-50.803
 166	1	1	0.131719	-31.1929	-9.21722	-50.0829
 167	1	2	0.007579	-33.3386	-9.26097	-50.3568
 168	1	3	0.947259	-33.6305	-9.10203	-48.578
 169	1	2	-0.433296	-34.3956	-9.36035	-51.2936
 170	1	1	0.195208	-35.428	-9.35281	-50.9443
 171	1	2	0.002203	-34.1051	-9.49863	-52.6641
 172	1	1	0.245959	-34.909	-9.59464	-53.3915
 173	1	2	0.108341	-32.7672	-9.52055	-53.1028
 174	1	4	-0.012027	-32.4722	-9.64976	-54.431
 175	1	5	-0.530873	-35.079	-9.17877	-48.354
 176	1	5	-0.5745	-32.6791	-9.98595	-47.8928
 177	1	1	0.177717	-31.3089	-7.99472	-47.1758
 178	1	2	-0.13906	-31.9053	-7.15922	-47.5398
 179	1	2	-0.172291	-31.4932	-5.84169	-47.2781
 180	1	1	0.137587	-30.5809	-5.67656	-46.7137
 181	1	2	0.27179	-32.2644	-4.75217	-47.7315
 182	1	6	-0.297458	-31.9003	-3.44452	-47.4898
 183	1	1	0.184682	-34.8069	-6.49784	-49.2255
 184	1	2	-0.177057	-33.8751	-6.31367	-48.6924
 185	1	2	-0.065252	-33.099	-7.40259	-48.2471
 186	1	1	0.164016	-31.7374	-2.59097	-45.0116
 187	1	1	0.144303	-29.6463	-2.11908	-43.7789
 188	1	2	-0.207027	-30.7779	-2.69439	-45.5099
 189	1	2	-0.150602	-29.5825	-2.44033	-44.8154
 190	1	2	0.201726	-30.7377	-3.10622	-46.8464
 191	1	2	0.015223	-28.3249	-2.6235	-45.4392
 192	1	7	0.123165	-27.0065	-2.39474	-44.6618
 193	1	2	-0.193552	-29.5061	-3.22789	-47.503
 194	1	2	-0.163782	-28.3093	-2.98655	-46.806
 195	1	1	0.167708	-29.4849	-3.53076	-48.5456
 196	1	1	0.146296	-27.3697	-3.09165	-47.3384
 197	1	2	-0.183938	-33.4539	-4.99502	-48.4366
 198	1	1	0.154545	-34.0516	-4.15304	-48.7729
 199	1	7	-0.193999	-26.4952	-0.975799	-45.0253
 200	1	7	-0.196778	-25.9031	-3.40199	-45.0936
 201	1	9	0.051577	-25.5331	-0.761044	-44.5427
 202	1	9	0.039353	-27.2178	-0.206181	-44.725
 203	1	9	0.072794	-26.349	-0.878804	-46.1086
 204	1	9	0.05895	-25.5436	-3.209	-46.1113
 205	1	9	0.044008	-26.2686	-4.43585	-45.0579
 206	1	9	0.064391	-25.0339	-3.33089	-44.427
 207	1	1	0.130931	-27.9036	-4.63634	-43.3779
 208	1	2	-0.035623	-27.7096	-3.83115	-42.6726
 209	1	2	-0.458756	-27.9899	-4.03046	-41.3099
 210	1	1	0.207809	-28.3957	-4.982	-40.9751
 211	1	2	0.31527	-27.7966	-2.99388	-40.3863
 212	1	2	-0.466224	-27.2977	-1.76569	-40.835
 213	1	1	0.20556	-27.1502	-0.958102	-40.1236
 214	1	2	-0.031899	-27.0114	-1.56098	-42.1963
 215	1	1	0.127567	-26.642	-0.5871	-42.5019
 216	1	2	0.005289	-27.228	-2.58918	-43.1424
 217	1	1	0.144011	-29.703	-4.35261	-37.3597
 218	1	2	-0.407424	-28.7084	-4.7847	-37.4313
 219	1	2	0.096878	-28.3605	-5.88015	-36.6224
 220	1	1	0.131719	-29.0931	-6.29377	-35.9344
 221	1	2	0.007579	-27.0658	-6.42616	-36.6801
 222	1	3	0.947259	-26.656	-7.75469	-35.518
 223	1	2	-0.433296	-26.1249	-5.89838	-37.5967
 224	1	1	0.195208	-25.1258	-6.33108	-37.6496
 225	1	2	0.002203	-26.4839	-4.81677	-38.4248
 226	1	1	0.245959	-25.7623	-4.40029	-39.1253
 227	1	2	0.108341	-27.7715	-4.24964	-38.3306
 228	1	4	-0.012027	-28.1186	-3.14943	-39.0666
 229	1	5	-0.530873	-27.8407	-8.61736	-35.4404
 230	1	5	-0.5745	-25.3165	-8.26847	-35.8322
 231	1	1	0.177717	-24.4113	-6.74686	-33.9246
 232	1	2	-0.13906	-25.3302	-6.47259	-33.4079
 233	1	2	-0.172291	-25.2722	-5.74919	-32.2024
 234	1	1	0.137587	-24.3145	-5.46019	-31.7802
 235	1	2	0.27179	-26.4548	-5.3881	-31.54
 236	1	6	-0.297458	-26.3815	-4.67809	-30.3676
 237	1	1	0.184682	-28.7254	-6.8389	-33.6449
 238	1	2	-0.177057	-27.7609	-6.51607	-33.2579
 239	1	2	-0.065252	-26.5762	-6.85544	-33.9451
 240	1	1	0.164016	-26.58	-2.58576	-31.9911
 241	1	1	0.144303	-27.9328	-0.552717	-31.5548
 242	1	2	-0.207027	-27.1623	-2.50833	-31.0777
 243	1	2	-0.150602	-27.927	-1.35682	-30.8228
 244	1	2	0.201726	-27.1375	-3.55515	-30.1447
 245	1	2	0.015223	-28.677	-1.23148	-29.6324
 246	1	7	0.123165	-29.5122	0.0457624	-29.4024
 247	1	2	-0.193552	-27.8782	-3.44962	-28.9615
 248	1	2	-0.163782	-28.6508	-2.30217	-28.7087
 249	1	1	0.167708	-27.8539	-4.26533	-28.2452
 250	1	1	0.146296	-29.2233	-2.26075	-27.7879
 251	1	2	-0.183938	-27.6992	-5.77505	-32.0646
 252	1	1	0.154545	-28.6106	-5.51269	-31.5353
 253	1	7	-0.193999	-30.016	0.192488	-27.9392
 254	1	7	-0.196778	-30.7761	-0.0613559	-30.2974
 255	1	9	0.051577	-29.1871	0.14632	-27.2216
 256	1	9	0.039353	-30.7381	-0.591627	-27.6788
 257	1	9	0.072794	-30.52	1.15759	-27.7999
 258	1	9	0.05895	-30.5099	-0.0971946	-31.3613
 259	1	9	0.044008	-31.4554	0.786085	-30.1376
 260	1	9	0.064391	-31.3353	-0.977346	-30.0672
 261	1	1	0.130931	-30.0054	2.23012	-31.1396
 262	1	2	-0.035623	-29.0668	2.30563	-30.5995
 263	1	2	-0.458756	-28.2926	3.46387	-30.775
 264	1	1	0.207809	-28.6442	4.25646	-31.4309
 265	1	2	0.31527	-27.0911	3.63446	-30.0755
 266	1	2	-0.466224	-26.6504	2.62038	-29.2166
 267	1	1	0.20556	-25.7267	2.75208	-28.6597
 268	1	2	-0.031899	-27.4172	1.45429	-29.0415
 269	1	1	0.127567	-27.069	0.684622	-28.3555
 270	1	2	0.005289	-28.6505	1.29002	-29.7096
 271	1	1	0.144011	-25.7471	7.32886	-30.6091
 272	1	2	-0.407424	-26.5754	7.23533	-29.9117
 273	1	2	0.096878	-27.1647	8.39202	-29.3647
 274	1	1	0.131719	-26.7792	9.3716	-29.6379
 275	1	2	0.007579	-28.2324	8.28581	-28.4528
 276	1	3	0.947259	-28.862	9.78332	-27.6487
 277	1	2	-0.433296	-28.7179	7.00778	-28.0963
 278	1	1	0.195208	-29.5387	6.92414	-27.385
 279	1	2	0.002203	-28.1297	5.85475	-28.6449
 280	1	1	0.245959	-28.5056	4.87544	-28.3529
 281	1	2	0.108341	-27.0542	5.96145	-29.5564
 282	1	4	-0.012027	-26.4578	4.84603	-30.097
 283	1	5	-0.530873	-28.3328	10.9388	-28.3836
 284	1	5	-0.5745	-30.2909	9.61436	-27.3554
 285	1	1	0.177717	-29.7033	9.17631	-24.8889
 286	1	2	-0.13906	-28.6218	9.30418	-24.8917
 287	1	2	-0.172291	-27.8803	9.08205	-23.7152
 288	1	1	0.137587	-28.3826	8.79441	-22.7967
 289	1	2	0.27179	-26.4828	9.21953	-23.7235
 290	1	6	-0.297458	-25.7676	8.95165	-22.5774
 291	1	1	0.184682	-26.0518	10.1181	-26.9991
 292	1	2	-0.177057	-26.5655	9.83722	-26.0817
 293	1	2	-0.065252	-27.9628	9.66773	-26.0841
 294	1	1	0.164016	-26.1148	11.0203	-21.0424
 295	1	1	0.144303	-24.4336	12.762	-20.5529
 296	1	2	-0.207027	-25.0962	10.9103	-21.3974
 297	1	2	-0.150602	-24.1332	11.8977	-21.1335
 298	1	2	0.201726	-24.7688	9.79826	-22.176
 299	1	2	0.015223	-22.8284	11.7919	-21.6674
 300	1	7	0.123165	-21.7988	12.9417	-21.579
 301	1	2	-0.193552	-23.4526	9.62112	-22.6228
 302	1	2	-0.163782	-22.4907	10.6169	-22.3762
 303	1	1	0.167708	-23.2005	8.74476	-23.2122
 304	1	1	0.146296	-21.4874	10.4981	-22.7778
 305	1	2	-0.183938	-25.8303	9.61137	-24.9075
 306	1	1	0.154545	-24.7523	9.72152	-24.9265
 307	1	7	-0.193999	-22.319	14.166	-20.7776
 308	1	7	-0.196778	-21.5608	13.4284	-23.0368
 309	1	9	0.051577	-21.5599	14.9578	-20.7377
 310	1	9	0.039353	-22.5576	13.8907	-19.742
 311	1	9	0.072794	-23.2167	14.5948	-21.2416
 312	1	9	0.05895	-22.5179	13.5819	-23.5529
 313	1	9	0.044008	-20.9873	12.6933	-23.6154
 314	1	9	0.064391	-21.0215	14.3827	-23.0713
 315	1	1	0.130931	-19.1738	13.8094	-21.9955
 316	1	2	-0.035623	-19.2494	13.0534	-21.2199
 317	1	2	-0.458756	-18.0867	12.6955	-20.5168
 318	1	1	0.207809	-17.1378	13.1651	-20.7629
 319	1	2	0.31527	-18.1493	11.7684	-19.4684
 320	1	2	-0.466224	-19.3769	11.1758	-19.1485
 321	1	1	0.20556	-19.4296	10.4622	-18.3309
 322	1	2	-0.031899	-20.5424	11.5249	-19.8529
 323	1	1	0.127567	-21.4894	11.076	-19.5625
 324	1	2	0.005289	-20.4976	12.4756	-20.8958
 325	1	1	0.144011	-15.7225	10.7497	-16.5628
 326	1	2	-0.407424	-16.0786	11.7748	-16.5072
 327	1	2	0.096878	-15.828	12.5409	-15.3517
 328	1	1	0.131719	-15.2793	12.107	-14.5185
 329	1	2	0.007579	-16.2982	13.8629	-15.2617
 330	1	3	0.947259	-16.0215	14.7803	-13.7264
 331	1	2	-0.433296	-17.0004	14.4273	-16.3481
 332	1	1	0.195208	-17.3368	15.4607	-16.2898
 333	1	2	0.002203	-17.2497	13.6638	-17.5006
 334	1	1	0.245959	-17.7996	14.1162	-18.3236
 335	1	2	0.108341	-16.7991	12.327	-17.5822
 336	1	4	-0.012027	-17.0551	11.5436	-18.6814
 337	1	5	-0.530873	-16.5759	16.1297	-13.8985
 338	1	5	-0.5745	-14.6382	14.5505	-13.2955
 339	1	1	0.177717	-18.9141	14.4177	-13.6237
 340	1	2	-0.13906	-18.4898	13.8933	-12.7694
 341	1	2	-0.172291	-19.3316	13.2138	-11.8707
 342	1	1	0.137587	-20.407	13.2121	-12.0249
 343	1	2	0.27179	-18.7839	12.541	-10.7631
 344	1	6	-0.297458	-19.5859	11.8796	-9.86421
 345	1	1	0.184682	-15.4749	13.2452	-11.2782
 346	1	2	-0.177057	-16.551	13.229	-11.4502
 347	1	2	-0.065252	-17.0955	13.9029	-12.5631
 348	1	1	0.164016	-19.717	10.2986	-12.0097
 349	1	1	0.144303	-21.6281	8.89026	-12.6337
 350	1	2	-0.207027	-20.6077	10.3021	-11.3891
 351	1	2	-0.150602	-21.7046	9.49582	-11.737
 352	1	2	0.201726	-20.6533	11.0971	-10.2334
 353	1	2	0.015223	-22.8679	9.46644	-10.9325
 354	1	7	0.123165	-24.0767	8.55613	-11.2508
 355	1	2	-0.193552	-21.7926	11.0702	-9.4196
 356	1	2	-0.163782	-22.8925	10.2653	-9.76804
 357	1	1	0.167708	-21.8156	11.6738	-8.51735
 358	1	1	0.146296	-23.7696	10.2553	-9.12579
 359	1	2	-0.183938	-17.3974	12.5562	-10.5509
 360	1	1	0.154545	-16.9854	12.0451	-9.68536
 361	1	7	-0.193999	-24.0588	7.40409	-10.2103
 362	1	7	-0.196778	-23.9898	7.90234	-12.6567
 363	1	9	0.051577	-23.0731	6.92152	-10.1888
 364	1	9	0.039353	-24.7943	6.62643	-10.4506
 365	1	9	0.072794	-24.2679	7.7776	-9.20009
 366	1	9	0.05895	-23.136	7.2179	-12.7339
 367	1	9	0.044008	-23.898	8.66512	-13.4414
 368	1	9	0.064391	-24.8966	7.3219	-12.87
 369	1	1	0.130931	-24.5256	11.0509	-12.279
 370	1	2	-0.035623	-25.4342	10.6233	-11.863
 371	1	2	-0.458756	-26.645	11.3193	-12.0074
 372	1	1	0.207809	-26.6402	12.266	-12.5383
 373	1	2	0.31527	-27.8473	10.7729	-11.5319
 374	1	2	-0.466224	-27.8087	9.543	-10.8612
 375	1	1	0.20556	-28.7321	9.11278	-10.4864
 376	1	2	-0.031899	-26.5996	8.83805	-10.7204
 377	1	1	0.127567	-26.623	7.86527	-10.2403
 378	1	2	0.005289	-25.3926	9.36258	-11.2353
 379	1	1	0.144011	-29.9234	11.1458	-14.204
 380	1	2	-0.407424	-29.7194	12.1666	-13.8917
 381	1	2	0.096878	-29.9105	13.2296	-14.7937
 382	1	1	0.131719	-30.2703	13.027	-15.8
 383	1	2	0.007579	-29.6424	14.5537	-14.4007
 384	1	3	0.947259	-29.9435	15.8717	-15.6085
 385	1	2	-0.433296	-29.167	14.8112	-13.09
 386	1	1	0.195208	-28.9495	15.8264	-12.7686
 387	1	2	0.002203	-28.972	13.7438	-12.1937
 388	1	1	0.245959	-28.5963	13.9268	-11.1894
 389	1	2	0.108341	-29.2479	12.4242	-12.5926
 390	1	4	-0.012027	-29.0583	11.3909	-11.7161
 391	1	5	-0.530873	-31.1384	15.4906	-16.3692
 392	1	5	-0.5745	-28.6749	16.1063	-16.3104
 393	1	1	0.177717	-28.2322	17.989	-14.555
 394	1	2	-0.13906	-29.2412	18.1752	-14.1905
 395	1	2	-0.172291	-29.4882	19.2433	-13.3104
 396	1	1	0.137587	-28.677	19.889	-12.9882
 397	1	2	0.27179	-30.7862	19.4803	-12.8338
 398	1	6	-0.297458	-30.9824	20.503	-11.9362
 399	1	1	0.184682	-32.4145	16.9098	-14.4095
 400	1	2	-0.177057	-31.5993	17.5677	-14.1101
 401	1	2	-0.065252	-30.2936	17.3239	-14.5831
 402	1	1	0.164016	-32.1196	21.6319	-14.0581
 403	1	1	0.144303	-34.1222	23.0644	-14.0208
 404	1	2	-0.207027	-32.6096	21.8462	-13.1129
 405	1	2	-0.150602	-33.7495	22.669	-13.0817
 406	1	2	0.201726	-32.0982	21.3029	-11.925
 407	1	2	0.015223	-34.3927	22.9671	-11.8576
 408	1	7	0.123165	-35.6688	23.8331	-11.772
 409	1	2	-0.193552	-32.7151	21.5993	-10.7036
 410	1	2	-0.163782	-33.8567	22.4192	-10.6709
 411	1	1	0.167708	-32.3097	21.1831	-9.78624
 412	1	1	0.146296	-34.3316	22.6293	-9.71538
 413	1	2	-0.183938	-31.8439	18.6445	-13.2373
 414	1	1	0.154545	-32.8459	18.8185	-12.8556
 415	1	7	-0.193999	-36.8542	22.8713	-11.4876
 416	1	7	-0.196778	-36.006	24.5665	-13.1002
 417	1	9	0.051577	-37.8125	23.4064	-11.4781
 418	1	9	0.039353	-36.7339	22.3601	-10.5241
 419	1	9	0.072794	-36.9163	22.097	-12.2631
 420	1	9	0.05895	-35.1715	25.1928	-13.4392
 421	1	9	0.044008	-36.8773	25.2212	-12.9687
 422	1	9	0.064391	-36.249	23.8573	-13.9015
 423	1	1	0.130931	-33.6732	25.6851	-11.5928
 424	1	2	-0.035623	-34.3759	25.785	-10.7684
 425	1	2	-0.458756	-34.174	26.7925	-9.80865
 426	1	1	0.207809	-33.3289	27.4675	-9.90404
 427	1	2	0.31527	-35.0589	26.9416	-8.73296
 428	1	2	-0.466224	-36.153	26.0686	-8.629
 429	1	1	0.20556	-36.8567	26.1803	-7.8086
 430	1	2	-0.031899	-36.3683	25.0686	-9.59374
 431	1	1	0.127567	-37.2373	24.4274	-9.4837
 432	1	2	0.005289	-35.4793	24.9101	-10.681
 433	1	1	0.144011	-36.9766	29.0694	-6.73169
 434	1	2	-0.407424	-36.3495	28.5135	-6.0396
 435	1	2	0.096878	-36.6863	28.4593	-4.67344
 436	1	1	0.131719	-37.5756	28.9729	-4.3141
 437	1	2	0.007579	-35.8683	27.7592	-3.76736
 438	1	3	0.947259	-36.3051	27.7934	-2.00714
 439	1	2	-0.433296	-34.7172	27.0842	-4.24228
 440	1	1	0.195208	-34.0966	26.5224	-3.54475
 441	1	2	0.002203	-34.3901	27.1316	-5.6111
 442	1	1	0.245959	-33.5055	26.6205	-5.98446
 443	1	2	0.108341	-35.1988	27.8543	-6.50726
 444	1	4	-0.012027	-34.8448	27.9464	-7.82595
 445	1	5	-0.530873	-37.7552	27.9769	-1.87233
 446	1	5	-0.5745	-35.5937	26.6848	-1.35973
 447	1	1	0.177717	-33.5282	28.6751	-2.03249
 448	1	2	-0.13906	-34.116	29.4721	-1.58144
 449	1	2	-0.172291	-33.4877	30.6564	-1.15875
 450	1	1	0.137587	-32.4182	30.7881	-1.29144
 451	1	2	0.27179	-34.2372	31.6821	-0.56395
 452	1	6	-0.297458	-33.589	32.8381	-0.201931
 453	1	1	0.184682	-37.3396	30.2408	-0.725784
 454	1	2	-0.177057	-36.2627	30.3551	-0.844683
 455	1	2	-0.065252	-35.5079	29.3161	-1.43047
 456	1	1	0.164016	-34.6573	31.9346	2.11979
 457	1	1	0.144303	-34.7362	33.2069	4.22562
 458	1	2	-0.207027	-34.2871	32.9546	2.13987
 459	1	2	-0.150602	-34.3276	33.6871	3.34275
 460	1	2	0.201726	-33.7336	33.5281	0.980912
 461	1	2	0.015223	-33.8091	35.0024	3.41293
 462	1	7	0.123165	-33.7448	35.796	4.73889
 463	1	2	-0.193552	-33.2077	34.8232	1.04377
 464	1	2	-0.163782	-33.2379	35.5511	2.24427
 465	1	1	0.167708	-32.7284	35.2449	0.164265
 466	1	1	0.146296	-32.7804	36.5373	2.26521
 467	1	2	-0.183938	-35.6278	31.5371	-0.416912
 468	1	1	0.154545	-36.2095	32.346	0.0154005
 469	1	7	-0.193999	-32.3737	35.4633	5.38483
 470	1	7	-0.196778	-34.838	35.3614	5.75329
 471	1	9	0.051577	-32.2818	34.3865	5.55582
 472	1	9	0.039353	-32.2471	35.9594	6.35503
 473	1	9	0.072794	-31.5451	35.7575	4.72674
 474	1	9	0.05895	-34.8332	36.0228	6.62934
 475	1	9	0.044008	-34.6729	34.3411	6.11877
 476	1	9	0.064391	-35.8381	35.4061	5.30506
 477	1	1	0.130931	-32.0713	37.9902	5.38855
 478	1	2	-0.035623	-32.9856	38.2771	4.87886
 479	1	2	-0.458756	-33.1878	39.6397	4.60531
 480	1	1	0.207809	-32.4327	40.3632	4.89927
 481	1	2	0.31527	-34.3295	40.0821	3.9267
 482	1	2	-0.466224	-35.28	39.1302	3.51674
 483	1	1	0.20556	-36.144	39.4364	2.93412
 484	1	2	-0.031899	-35.0878	37.7626	3.79808
 485	1	1	0.127567	-35.8247	37.0393	3.45621
 486	1	2	0.005289	-33.9355	37.3107	4.47876
 487	1	1	0.144011	-34.4693	43.5172	2.09841
 488	1	2	-0.407424	-35.427	43.2879	2.55859
 489	1	2	0.096878	-36.5338	44.1203	2.31318
 490	1	1	0.131719	-36.4243	44.9874	1.66517
 491	1	2	0.007579	-37.7756	43.8433	2.91103
 492	1	3	0.947259	-39.1475	44.9936	2.61014
 493	1	2	-0.433296	-37.9014	42.7207	3.76667
 494	1	1	0.195208	-38.866	42.5057	4.22526
 495	1	2	0.002203	-36.7885	41.8897	4.01144
 496	1	1	0.245959	-36.8804	41.0398	4.68466
 497	1	2	0.108341	-35.5499	42.1631	3.39367
 498	1	4	-0.012027	-34.4197	41.4205	3.63119
 499	1	5	-0.530873	-38.904	45.7029	1.34749
 500	1	5	-0.5745	-40.3926	44.2676	2.88676
 501	1	1	0.177717	-39.4763	44.7355	5.48242
 502	1	2	-0.13906	-39.113	45.7434	5.29101
 503	1	2	-0.172291	-38.8037	46.597	6.3635
 504	1	1	0.137587	-38.909	46.2537	7.388
 505	1	2	0.27179	-38.3109	47.8861	6.11237
 506	1	6	-0.297458	-37.8488	48.6492	7.15333
 507	1	1	0.184682	-38.3023	47.8229	2.69204
 508	1	2	-0.177057	-38.4518	47.4831	3.71643
 509	1	2	-0.065252	-38.9109	46.1718	3.96415
 510	1	1	0.164016	-35.7705	47.4688	5.90397
 511	1	1	0.144303	-33.5284	47.1546	6.85883
 512	1	2	-0.207027	-35.5688	47.8376	6.9045
 513	1	2	-0.150602	-34.2877	47.6621	7.44898
 514	1	2	0.201726	-36.575	48.4789	7.64982
 515	1	2	0.015223	-33.9839	48.1013	8.75512
 516	1	7	0.123165	-32.5705	47.8245	9.31952
 517	1	2	-0.193552	-36.2783	48.9522	8.93471
 518	1	2	-0.163782	-34.9971	48.7644	9.48732
 519	1	1	0.167708	-37.0532	49.4555	9.50537
 520	1	1	0.146296	-34.8109	49.1375	10.4893
 521	1	2	-0.183938	-38.1582	48.3402	4.79306
 522	1	1	0.154545	-37.7665	49.3375	4.61502
 523	1	7	-0.193999	-32.4278	48.2103	10.8156
 524	1	7	-0.196778	-31.5865	48.7187	8.51505
 525	1	9	0.051577	-33.1484	47.6606	11.4345
 526	1	9	0.039353	-32.5831	49.2858	10.9698
 527	1	9	0.072794	-31.4234	47.9688	11.1866
 528	1	9	0.05895	-30.5848	48.7365	8.96073
 529	1	9	0.044008	-31.9443	49.7563	8.48875
 530	1	9	0.064391	-31.4923	48.3737	7.47769
 531	1	1	0.130931	-34.2819	45.6284	9.32919
 532	1	2	-0.035623	-33.2386	45.3379	9.2297
 533	1	2	-0.458756	-32.9281	43.9712	9.12288
 534	1	1	0.207809	-33.7266	43.2342	9.11344
 535	1	2	0.31527	-31.5943	43.5493	9.02979
 536	1	2	-0.466224	-30.5768	44.5109	9.02261
 537	1	1	0.20556	-29.5401	44.1904	8.95946
 538	1	2	-0.031899	-30.8827	45.8813	9.10584
 539	1	1	0.127567	-30.0656	46.5965	9.11154
 540	1	2	0.005289	-32.2222	46.3209	9.19951
 541	1	1	0.144011	-30.8699	39.6457	8.77485
 542	1	2	-0.407424	-31.3586	39.9428	9.69919
 543	1	2	0.096878	-31.6485	38.9729	10.6773
 544	1	1	0.131719	-31.3646	37.9378	10.5056
 545	1	2	0.007579	-32.26	39.3399	11.8904
 546	1	3	0.947259	-32.4819	38.0725	13.1718
 547	1	2	-0.433296	-32.5605	40.7014	12.1289
 548	1	1	0.195208	-32.9859	40.9967	13.088
 549	1	2	0.002203	-32.2371	41.6748	11.1643
 550	1	1	0.245959	-32.4224	42.7239	11.3856
 551	1	2	0.108341	-31.6447	41.299	9.93726
 552	1	4	-0.012027	-31.2756	42.2181	8.98278
 553	1	5	-0.530873	-31.351	37.1532	13.0015
 554	1	5	-0.5745	-32.7594	38.7335	14.4538
 555	1	1	0.177717	-35.0701	37.6549	14.4842
 556	1	2	-0.13906	-35.0573	37.0443	13.5821
 557	1	2	-0.172291	-36.1188	36.1562	13.3238
 558	1	1	0.137587	-36.9565	36.0908	14.0117
 559	1	2	0.27179	-36.0823	35.3128	12.2028
 560	1	6	-0.297458	-37.1103	34.41	12.0199
 561	1	1	0.184682	-33.0627	36.2804	10.9119
 562	1	2	-0.177057	-33.9283	36.277	11.5694
 563	1	2	-0.065252	-33.945	37.0972	12.716
 564	1	1	0.164016	-35.2616	32.4969	12.1718
 565	1	1	0.144303	-34.9535	30.6798	10.511
 566	1	2	-0.207027	-35.9687	32.3835	11.3545
 567	1	2	-0.150602	-35.8039	31.3513	10.4146
 568	1	2	0.201726	-37.0137	33.3079	11.2042
 569	1	2	0.015223	-36.668	31.2375	9.30123
 570	1	7	0.123165	-36.3048	30.2492	8.16657
 571	1	2	-0.193552	-37.9399	33.1443	10.1678
 572	1	2	-0.163782	-37.772	32.1178	9.22161
 573	1	1	0.167708	-38.7605	33.849	10.0745
 574	1	1	0.146296	-38.4842	32.0505	8.40582
 575	1	2	-0.183938	-34.9981	35.4023	11.3067
 576	1	1	0.154545	-34.9643	34.7678	10.4267
 577	1	7	-0.193999	-37.1616	30.4467	6.88808
 578	1	7	-0.196778	-36.5668	28.8095	8.68503
 579	1	9	0.051577	-37.082	31.4759	6.51508
 580	1	9	0.039353	-38.2199	30.2236	7.07383
 581	1	9	0.072794	-36.8215	29.779	6.08593
 582	1	9	0.05895	-36.4673	28.0642	7.88604
 583	1	9	0.044008	-37.5875	28.7224	9.07927
 584	1	9	0.064391	-35.8736	28.5425	9.49244
 585	1	1	0.130931	-34.3546	28.4092	7.29043
 586	1	2	-0.035623	-33.9854	29.429	7.34628
 587	1	2	-0.458756	-32.6419	29.6791	7.01234
 588	1	1	0.207809	-31.9954	28.8586	6.71339
 589	1	2	0.31527	-32.122	30.9776	7.07705
 590	1	2	-0.466224	-32.9656	32.0372	7.42958
 591	1	1	0.20556	-32.5677	33.0468	7.4787
 592	1	2	-0.031899	-34.3099	31.7962	7.75029
 593	1	1	0.127567	-34.9402	32.6381	8.0271
 594	1	2	0.005289	-34.8342	30.4834	7.75178
 595	1	1	0.144011	-28.6122	32.6245	6.62486
 596	1	2	-0.407424	-29.2397	32.6901	5.73986
 597	1	2	0.096878	-28.8183	33.4565	4.63873
 598	1	1	0.131719	-27.8604	33.9711	4.67318
 599	1	2	0.007579	-29.6083	33.5233	3.47728
 600	1	3	0.947259	-28.9134	34.348	2.02755
 601	1	2	-0.433296	-30.8352	32.8246	3.42298
 602	1	1	0.195208	-31.4389	32.8705	2.51769
 603	1	2	0.002203	-31.259	32.0643	4.52757
 604	1	1	0.245959	-32.201	31.5213	4.48043
 605	1	2	0.108341	-30.4569	31.9899	5.68636
 606	1	4	-0.012027	-30.8163	31.2126	6.75478
 607	1	5	-0.530873	-29.9817	34.5801	1.0486
 608	1	5	-0.5745	-28.0086	35.4052	2.49666
 609	1	1	0.177717	-29.539	32.0094	0.39914
 610	1	2	-0.13906	-28.4991	31.9248	0.710872
 611	1	2	-0.172291	-27.7686	30.7571	0.42664
 612	1	1	0.137587	-28.231	29.9353	-0.111375
 613	1	2	0.27179	-26.4495	30.6263	0.885454
 614	1	6	-0.297458	-25.7833	29.4432	0.685958
 615	1	1	0.184682	-26.1	33.6582	2.43475
 616	1	2	-0.177057	-26.563	32.8536	1.8649
 617	1	2	-0.065252	-27.9029	32.9692	1.44599
 618	1	1	0.164016	-26.6303	28.5048	3.00615
 619	1	1	0.144303	-25.1954	27.6262	4.81828
 620	1	2	-0.207027	-25.5529	28.4693	2.87511
 621	1	2	-0.150602	-24.7286	27.9745	3.90243
 622	1	2	0.201726	-24.9891	28.9191	1.67209
 623	1	2	0.015223	-23.3248	27.932	3.73953
 624	1	7	0.123165	-22.3706	27.3541	4.80894
 625	1	2	-0.193552	-23.6019	28.8968	1.49949
 626	1	2	-0.163782	-22.7765	28.419	2.53014
 627	1	1	0.167708	-23.1737	29.2629	0.570994
 628	1	1	0.146296	-21.7001	28.4138	2.38024
 629	1	2	-0.183938	-25.8392	31.6838	1.58378
 630	1	1	0.154545	-24.815	31.5852	1.93044
 631	1	7	-0.193999	-23.0971	26.543	5.91747
 632	1	7	-0.196778	-21.674	28.549	5.51293
 633	1	9	0.051577	-22.3689	26.0789	6.59517
 634	1	9	0.039353	-23.7146	25.7408	5.495
 635	1	9	0.072794	-23.7456	27.1858	6.52626
 636	1	9	0.05895	-20.9897	28.2064	6.29972
 637	1	9	0.044008	-22.4174	29.2058	5.98362
 638	1	9	0.064391	-21.1059	29.1593	4.79985
 639	1	1	0.130931	-23.0077	25.1858	3.30554