pySIMM System Object

1352 atoms
1451 bonds
2450 angles
3648 dihedrals
450 impropers

9 atom types
10 bond types
17 angle types
7 dihedral types
2 improper types

-163.992747 163.992747 xlo xhi
-163.992747 163.992747 ylo yhi
-163.992747 163.992747 zlo zhi

Masses

   1	1.008	# ha
   2	12.01	# ca
   3	32.06	# sy
   4	16.0	# oh
   5	16.0	# o
   6	16.0	# os
   7	12.01	# c3
   8	1.008	# ho
   9	1.008	# hc

Pair Coeffs

   1	0.015	2.59964245953351	# ha
   2	0.086	3.3996695084235347	# ca
   3	0.25	3.563594872561357	# sy
   4	0.2104	3.0664733878390478	# oh
   5	0.21	2.959921901149463	# o
   6	0.17	3.0000123434657784	# os
   7	0.1094	3.3996695084235347	# c3
   8	0.0	0.0	# ho
   9	0.0157	2.649532787749369	# hc

Bond Coeffs

   1	371.4	0.973	# ho,oh
   2	243.4	1.7909	# ca,sy
   3	461.1	1.3984	# ca,ca
   4	300.9	1.5375	# c3,c3
   5	330.6	1.0969	# c3,hc
   6	493.0	1.466	# o,sy
   7	345.8	1.086	# ca,ha
   8	321.0	1.5156	# c3,ca
   9	376.6	1.3696	# ca,os
  10	384.0	1.3637	# ca,oh

Angle Coeffs

   1	61.48	119.42	# ca,ca,sy
   2	72.54	121.41	# o,sy,o
   3	69.58	119.2	# ca,ca,os
   4	60.3	104.44	# ca,sy,ca
   5	46.34	109.8	# c3,c3,hc
   6	49.0	108.58	# ca,oh,ho
   7	65.77	108.35	# ca,sy,o
   8	63.48	119.89	# ca,os,ca
   9	69.52	119.9	# ca,ca,oh
  10	63.56	112.24	# ca,c3,ca
  11	62.86	111.51	# c3,c3,c3
  12	39.4	107.58	# hc,c3,hc
  13	66.62	120.02	# ca,ca,ca
  14	48.18	119.88	# ca,ca,ha
  15	63.15	112.07	# c3,c3,ca
  16	63.53	120.77	# c3,ca,ca
  17	63.5	119.89	# ca,oh,ca

Dihedral Coeffs

   1	1	0.9	2	180	# X,ca,oh,X
   2	1	1.3	2	180	# X,ca,sy,X
   3	1	0.16	3	0	# hc,c3,c3,c3
   4	1	3.625	2	180	# X,ca,ca,X
   5	1	0.0	2	0	# X,c3,ca,X
   6	1	0.15555555555555556	3	0	# X,c3,c3,X
   7	1	0.9	2	180	# X,ca,os,X

Improper Coeffs

   1	1.1	-1	2	# ca,X,X,ha
   2	1.1	-1	2	# ca,ca,ca,c3

Atoms

   1	1	1	0.144011	9.92517	79.2626	-28.6475
   2	1	2	-0.407424	9.3919	78.4973	-29.202
   3	1	2	0.096878	8.46827	77.6661	-28.5395
   4	1	1	0.131719	8.29116	77.7988	-27.4741
   5	1	2	0.007579	7.7516	76.689	-29.2503
   6	1	3	0.947259	6.54074	75.6869	-28.3521
   7	1	2	-0.433296	7.97739	76.5268	-30.639
   8	1	1	0.195208	7.40131	75.7859	-31.1912
   9	1	2	0.002203	8.90364	77.3583	-31.2975
  10	1	1	0.245959	9.06077	77.2599	-32.3695
  11	1	2	0.108341	9.5973	78.3514	-30.5853
  12	1	4	-0.012027	10.434	79.2073	-31.2435
  13	1	5	-0.530873	6.0484	76.493	-27.2269
  14	1	5	-0.5745	5.6478	75.0619	-29.335
  15	1	1	0.177717	7.95301	75.4468	-25.7963
  16	1	2	-0.13906	8.17503	74.5582	-26.3844
  17	1	2	-0.172291	9.03489	73.5724	-25.8712
  18	1	1	0.137587	9.48706	73.6933	-24.8915
  19	1	2	0.27179	9.30511	72.4171	-26.6188
  20	1	6	-0.297458	10.1532	71.4698	-26.1022
  21	1	1	0.184682	7.40419	73.0977	-29.3841
  22	1	2	-0.177057	7.86367	73.2291	-28.405
  23	1	2	-0.065252	7.5934	74.3925	-27.6579
  24	1	1	0.164016	7.74927	70.3923	-25.6646
  25	1	1	0.144303	7.26192	67.9698	-25.597
  26	1	2	-0.207027	8.54788	69.6775	-25.8424
  27	1	2	-0.150602	8.27565	68.2995	-25.8083
  28	1	2	0.201726	9.85355	70.1301	-26.0866
  29	1	2	0.015223	9.2972	67.3483	-26.0257
  30	1	7	0.123165	8.95028	65.8416	-25.9518
  31	1	2	-0.193552	10.8828	69.2024	-26.2827
  32	1	2	-0.163782	10.6102	67.8233	-26.259
  33	1	1	0.167708	11.8935	69.5605	-26.4544
  34	1	1	0.146296	11.4369	67.1384	-26.4141
  35	1	2	-0.183938	8.71954	72.2429	-27.8851
  36	1	1	0.154545	8.93398	71.3471	-28.4597
  37	1	7	-0.193999	10.1484	64.9273	-26.322
  38	1	7	-0.196778	7.83749	65.5627	-27.0031
  39	1	9	0.051577	9.8542	63.8701	-26.3031
  40	1	9	0.039353	10.9737	65.0458	-25.6083
  41	1	9	0.072794	10.5222	65.1494	-27.3299
  42	1	9	0.05895	8.10984	65.9945	-27.975
  43	1	9	0.044008	6.87727	65.9985	-26.701
  44	1	9	0.064391	7.68139	64.4888	-27.1616
  45	1	1	0.130931	7.21528	63.8167	-25.0998
  46	1	2	-0.035623	7.6328	64.3864	-24.2753
  47	1	2	-0.458756	7.29721	64.0133	-22.9619
  48	1	1	0.207809	6.62453	63.177	-22.7901
  49	1	2	0.31527	7.82614	64.7073	-21.8654
  50	1	2	-0.466224	8.71012	65.7679	-22.0923
  51	1	1	0.20556	9.13941	66.2974	-21.2463
  52	1	2	-0.031899	9.05747	66.1401	-23.4026
  53	1	1	0.127567	9.7653	66.9534	-23.5433
  54	1	2	0.005289	8.51454	65.4633	-24.5186
  55	1	1	0.144011	6.41422	62.9687	-18.6328
  56	1	2	-0.407424	7.28804	62.48	-19.0553
  57	1	2	0.096878	7.69927	61.2302	-18.5556
  58	1	1	0.131719	7.13621	60.7596	-17.7524
  59	1	2	0.007579	8.82307	60.5825	-19.101
  60	1	3	0.947259	9.24529	58.9237	-18.5128
  61	1	2	-0.433296	9.54883	61.2013	-20.1454
  62	1	1	0.195208	10.4219	60.7026	-20.5634
  63	1	2	0.002203	9.13419	62.4503	-20.6435
  64	1	1	0.245959	9.6919	62.9222	-21.4507
  65	1	2	0.108341	7.99413	63.0882	-20.1081
  66	1	4	-0.012027	7.55936	64.2982	-20.5878
  67	1	5	-0.530873	10.7074	58.788	-18.5198
  68	1	5	-0.5745	8.42631	58.6378	-17.3283
  69	1	1	0.177717	6.5794	57.8962	-19.1348
  70	1	2	-0.13906	7.24334	57.5981	-19.9446
  71	1	2	-0.172291	6.73809	56.8772	-21.0421
  72	1	1	0.137587	5.68639	56.6113	-21.0884
  73	1	2	0.27179	7.59735	56.4799	-22.0775
  74	1	6	-0.297458	7.10166	55.7391	-23.1231
  75	1	1	0.184682	10.5264	57.8007	-20.8958
  76	1	2	-0.177057	9.46904	57.5423	-20.9354
  77	1	2	-0.065252	8.61153	57.9326	-19.8871
  78	1	1	0.164016	8.12351	53.8131	-21.6197
  79	1	1	0.144303	9.41077	51.8819	-22.4348
  80	1	2	-0.207027	8.27709	53.6811	-22.6868
  81	1	2	-0.150602	9.00588	52.5779	-23.1613
  82	1	2	0.201726	7.76297	54.628	-23.5848
  83	1	2	0.015223	9.22726	52.3972	-24.5459
  84	1	7	0.123165	10.0952	51.241	-25.0891
  85	1	2	-0.193552	7.96381	54.4607	-24.9601
  86	1	2	-0.163782	8.69746	53.3589	-25.4368
  87	1	1	0.167708	7.57107	55.2018	-25.6498
  88	1	1	0.146296	8.86824	53.2644	-26.5063
  89	1	2	-0.183938	8.96143	56.817	-22.0265
  90	1	1	0.154545	9.62215	56.5113	-22.8326
  91	1	7	-0.193999	10.186	50.0389	-24.1038
  92	1	7	-0.196778	11.5388	51.7912	-25.2413
  93	1	9	0.051577	10.6837	49.1854	-24.5823
  94	1	9	0.039353	9.19286	49.7061	-23.7775
  95	1	9	0.072794	10.7667	50.2902	-23.2078
  96	1	9	0.05895	11.9272	52.1361	-24.2742
  97	1	9	0.044008	11.5688	52.6487	-25.9255
  98	1	9	0.064391	12.2229	51.0197	-25.6175
  99	1	1	0.130931	7.66534	50.0504	-25.4778
 100	1	2	-0.035623	8.22891	50.1058	-26.406
 101	1	2	-0.458756	7.67834	49.5577	-27.5776
 102	1	1	0.207809	6.70765	49.0737	-27.5429
 103	1	2	0.31527	8.37998	49.6178	-28.79
 104	1	2	-0.466224	9.62608	50.2567	-28.8241
 105	1	1	0.20556	10.1699	50.3128	-29.7623
 106	1	2	-0.031899	10.1899	50.791	-27.6513
 107	1	1	0.127567	11.167	51.2587	-27.7191
 108	1	2	0.005289	9.50479	50.709	-26.4163
 109	1	1	0.144011	9.82339	47.298	-29.5578
 110	1	2	-0.407424	8.85786	46.8628	-29.8033
 111	1	2	0.096878	8.72279	45.4653	-29.8797
 112	1	1	0.131719	9.58894	44.8325	-29.7012
 113	1	2	0.007579	7.47291	44.8835	-30.1624
 114	1	3	0.947259	7.34232	43.0734	-30.1199
 115	1	2	-0.433296	6.36126	45.7187	-30.4301
 116	1	1	0.195208	5.39879	45.2691	-30.6728
 117	1	2	0.002203	6.50662	47.1197	-30.3785
 118	1	1	0.245959	5.65673	47.7681	-30.5787
 119	1	2	0.108341	7.74549	47.6927	-30.0361
 120	1	4	-0.012027	7.85977	49.0528	-29.9236
 121	1	5	-0.530873	6.11821	42.6552	-30.8145
 122	1	5	-0.5745	8.66963	42.5566	-30.4742
 123	1	1	0.177717	9.14698	43.3724	-27.8495
 124	1	2	-0.13906	8.19755	43.0092	-27.4645
 125	1	2	-0.172291	8.04	42.8088	-26.0841
 126	1	1	0.137587	8.86655	43.03	-25.4154
 127	1	2	0.27179	6.8196	42.3309	-25.5688
 128	1	6	-0.297458	6.63444	42.1758	-24.2111
 129	1	1	0.184682	5.10328	41.9998	-28.5156
 130	1	2	-0.177057	5.92207	42.232	-27.8354
 131	1	2	-0.065252	7.13378	42.7429	-28.3481
 132	1	1	0.164016	6.48651	44.8041	-24.0594
 133	1	1	0.144303	7.97153	46.2484	-22.6919
 134	1	2	-0.207027	7.20238	44.356	-23.3763
 135	1	2	-0.150602	8.05082	45.1676	-22.6052
 136	1	2	0.201726	7.32057	42.9602	-23.3176
 137	1	2	0.015223	9.03544	44.599	-21.7679
 138	1	7	0.123165	10.0504	45.5351	-21.0693
 139	1	2	-0.193552	8.24417	42.3757	-22.4429
 140	1	2	-0.163782	9.09685	43.1872	-21.6721
 141	1	1	0.167708	8.33367	41.2936	-22.409
 142	1	1	0.146296	9.82956	42.6987	-21.0383
 143	1	2	-0.183938	5.77134	42.0217	-26.45
 144	1	1	0.154545	4.83906	41.6333	-26.0509
 145	1	7	-0.193999	10.9048	46.1773	-22.1983
 146	1	7	-0.196778	11.028	44.7784	-20.1311
 147	1	9	0.051577	11.2855	45.4034	-22.8779
 148	1	9	0.039353	11.7757	46.7135	-21.8027
 149	1	9	0.072794	10.3121	46.8808	-22.7966
 150	1	9	0.05895	11.6345	44.0506	-20.6847
 151	1	9	0.044008	10.4839	44.2493	-19.3381
 152	1	9	0.064391	11.7191	45.4783	-19.6443
 153	1	1	0.130931	10.7953	48.1799	-20.4861
 154	1	2	-0.035623	9.87779	47.8791	-19.9902
 155	1	2	-0.458756	9.27151	48.7823	-19.0975
 156	1	1	0.207809	9.71694	49.7578	-18.9241
 157	1	2	0.31527	8.11691	48.4175	-18.3941
 158	1	2	-0.466224	7.56318	47.1469	-18.6081
 159	1	1	0.20556	6.67114	46.8514	-18.0612
 160	1	2	-0.031899	8.16334	46.2405	-19.4962
 161	1	1	0.127567	7.72905	45.2497	-19.6109
 162	1	2	0.005289	9.3344	46.5901	-20.2001
 163	1	1	0.144011	5.2576	49.4244	-16.2191
 164	1	2	-0.407424	6.01271	48.8656	-15.6727
 165	1	2	0.096878	5.67639	48.2276	-14.4633
 166	1	1	0.131719	4.6626	48.2987	-14.0739
 167	1	2	0.007579	6.63294	47.4663	-13.7672
 168	1	3	0.947259	6.07202	46.6008	-12.2763
 169	1	2	-0.433296	7.95379	47.368	-14.2732
 170	1	1	0.195208	8.70721	46.7885	-13.7443
 171	1	2	0.002203	8.28208	48.0009	-15.4866
 172	1	1	0.245959	9.28204	47.9012	-15.9042
 173	1	2	0.108341	7.3103	48.7358	-16.1947
 174	1	4	-0.012027	7.60201	49.2456	-17.4322
 175	1	5	-0.530873	5.97673	47.5955	-11.2028
 176	1	5	-0.5745	4.88259	45.8504	-12.6938
 177	1	1	0.177717	8.05374	46.5097	-10.1208
 178	1	2	-0.13906	8.22967	45.6515	-10.7681
 179	1	2	-0.172291	9.28813	44.7681	-10.4933
 180	1	1	0.137587	9.93567	44.9361	-9.63794
 181	1	2	0.27179	9.52535	43.6691	-11.3312
 182	1	6	-0.297458	10.5887	42.8441	-11.0534
 183	1	1	0.184682	6.95202	44.1196	-13.5496
 184	1	2	-0.177057	7.6112	44.3026	-12.7013
 185	1	2	-0.065252	7.39419	45.4284	-11.8807
 186	1	1	0.164016	11.2868	44.0209	-13.3632
 187	1	1	0.144303	12.7896	43.0605	-15.0544
 188	1	2	-0.207027	11.7361	43.0487	-13.1866
 189	1	2	-0.150602	12.6026	42.4965	-14.1466
 190	1	2	0.201726	11.4475	42.3455	-12.0044
 191	1	2	0.015223	13.2055	41.2351	-13.9345
 192	1	7	0.123165	14.1169	40.5515	-14.9794
 193	1	2	-0.193552	12.0676	41.1139	-11.7658
 194	1	2	-0.163782	12.9411	40.565	-12.7195
 195	1	1	0.167708	11.8567	40.5823	-10.8428
 196	1	1	0.146296	13.3981	39.5974	-12.5252
 197	1	2	-0.183938	8.67591	43.4251	-12.4262
 198	1	1	0.154545	8.84556	42.5573	-13.0573
 199	1	7	-0.193999	15.5554	40.5506	-14.3928
 200	1	7	-0.196778	14.1747	41.3069	-16.3337
 201	1	9	0.051577	16.3008	40.2432	-15.1367
 202	1	9	0.039353	15.635	39.8764	-13.5307
 203	1	9	0.072794	15.8332	41.5572	-14.054
 204	1	9	0.05895	14.6006	42.3114	-16.2168
 205	1	9	0.044008	13.1755	41.3998	-16.7778
 206	1	9	0.064391	14.8044	40.7655	-17.0517
 207	1	1	0.130931	15.5322	38.2005	-15.5862
 208	1	2	-0.035623	14.4568	38.0531	-15.5617
 209	1	2	-0.458756	13.9487	36.7693	-15.8283
 210	1	1	0.207809	14.6441	35.9641	-16.0482
 211	1	2	0.31527	12.5633	36.5256	-15.8238
 212	1	2	-0.466224	11.6969	37.5925	-15.5547
 213	1	1	0.20556	10.6247	37.4216	-15.5518
 214	1	2	-0.031899	12.1987	38.8806	-15.3001
 215	1	1	0.127567	11.4965	39.6892	-15.1115
 216	1	2	0.005289	13.5892	39.1288	-15.2746
 217	1	1	0.144011	12.81	34.8833	-18.5534
 218	1	2	-0.407424	13.1447	34.1287	-17.8463
 219	1	2	0.096878	13.9862	33.0868	-18.2769
 220	1	1	0.131719	14.2979	33.0452	-19.3182
 221	1	2	0.007579	14.4573	32.1276	-17.3601
 222	1	3	0.947259	15.6397	30.8809	-17.9412
 223	1	2	-0.433296	14.0609	32.2054	-16.003
 224	1	1	0.195208	14.4479	31.4793	-15.2889
 225	1	2	0.002203	13.2213	33.2518	-15.575
 226	1	1	0.245959	12.9409	33.3399	-14.5278
 227	1	2	0.108341	12.7761	34.2203	-16.4928
 228	1	4	-0.012027	12.0298	35.281	-16.058
 229	1	5	-0.530873	16.1891	31.3646	-19.2142
 230	1	5	-0.5745	16.4963	30.5189	-16.8048
 231	1	1	0.177717	14.9283	28.4983	-16.3872
 232	1	2	-0.13906	14.4684	28.3992	-17.3694
 233	1	2	-0.172291	13.7656	27.2258	-17.7024
 234	1	1	0.137587	13.6692	26.4207	-16.9803
 235	1	2	0.27179	13.2244	27.0682	-18.9877
 236	1	6	-0.297458	12.6029	25.8855	-19.3183
 237	1	1	0.184682	14.1844	30.0603	-20.3485
 238	1	2	-0.177057	14.0506	29.2806	-19.6003
 239	1	2	-0.065252	14.624	29.4284	-18.3211
 240	1	1	0.164016	10.6565	25.7149	-21.0755
 241	1	1	0.144303	10.8966	24.9813	-23.4311
 242	1	2	-0.207027	11.6144	25.3544	-21.4381
 243	1	2	-0.150602	11.76	24.9338	-22.7722
 244	1	2	0.201726	12.7197	25.3571	-20.5796
 245	1	2	0.015223	13.0092	24.4888	-23.2647
 246	1	7	0.123165	13.1693	24.1355	-24.7618
 247	1	2	-0.193552	13.9645	24.9117	-21.0451
 248	1	2	-0.163782	14.1094	24.4803	-22.3758
 249	1	1	0.167708	14.8218	24.9295	-20.3784
 250	1	1	0.146296	15.0943	24.1742	-22.713
 251	1	2	-0.183938	13.3522	28.1059	-19.9298
 252	1	1	0.154545	12.932	27.989	-20.9243
 253	1	7	-0.193999	14.3464	23.1559	-25.0285
 254	1	7	-0.196778	13.5145	25.46	-25.4939
 255	1	9	0.051577	14.2743	22.26	-24.3997
 256	1	9	0.039353	15.3202	23.6248	-24.8404
 257	1	9	0.072794	14.3446	22.8302	-26.0769
 258	1	9	0.05895	12.7122	26.1994	-25.3737
 259	1	9	0.044008	13.6831	25.2968	-26.566
 260	1	9	0.064391	14.4289	25.9048	-25.0802
 261	1	1	0.130931	11.4216	24.918	-26.8588
 262	1	2	-0.035623	11.1159	24.0066	-26.3544
 263	1	2	-0.458756	9.92409	23.3863	-26.769
 264	1	1	0.207809	9.33582	23.8234	-27.5711
 265	1	2	0.31527	9.47435	22.216	-26.1469
 266	1	2	-0.466224	10.2387	21.6536	-25.116
 267	1	1	0.20556	9.89215	20.749	-24.6233
 268	1	2	-0.031899	11.4252	22.2755	-24.6881
 269	1	1	0.127567	11.9865	21.8419	-23.8632
 270	1	2	0.005289	11.8812	23.4657	-25.295
 271	1	1	0.144011	6.14217	20.1621	-26.6072
 272	1	2	-0.407424	6.99891	19.7184	-27.1074
 273	1	2	0.096878	6.86932	18.465	-27.7335
 274	1	1	0.131719	5.9119	17.9491	-27.7104
 275	1	2	0.007579	7.96598	17.8863	-28.3984
 276	1	3	0.947259	7.74782	16.273	-29.1959
 277	1	2	-0.433296	9.20313	18.5733	-28.4317
 278	1	1	0.195208	10.0448	18.1372	-28.9676
 279	1	2	0.002203	9.33012	19.8267	-27.8025
 280	1	1	0.245959	10.278	20.3603	-27.8441
 281	1	2	0.108341	8.22724	20.4017	-27.1358
 282	1	4	-0.012027	8.30123	21.6379	-26.547
 283	1	5	-0.530873	6.31216	15.9666	-29.2309
 284	1	5	-0.5745	8.58679	16.2643	-30.4007
 285	1	1	0.177717	10.5214	15.4512	-28.8152
 286	1	2	-0.13906	9.92507	14.9416	-28.0602
 287	1	2	-0.172291	10.5417	14.0705	-27.1451
 288	1	1	0.137587	11.6146	13.907	-27.1791
 289	1	2	0.27179	9.77117	13.391	-26.1906
 290	1	6	-0.297458	10.4006	12.5442	-25.3111
 291	1	1	0.184682	6.68252	14.6232	-27.008
 292	1	2	-0.177057	7.76087	14.474	-27.0435
 293	1	2	-0.065252	8.53166	15.1473	-28.0139
 294	1	1	0.164016	9.10634	10.806	-26.8812
 295	1	1	0.144303	8.23445	8.60924	-26.1615
 296	1	2	-0.207027	9.23591	10.4868	-25.8512
 297	1	2	-0.150602	8.74952	9.23367	-25.4379
 298	1	2	0.201726	9.89759	11.3218	-24.9371
 299	1	2	0.015223	8.92168	8.78621	-24.1083
 300	1	7	0.123165	8.36998	7.40667	-23.6769
 301	1	2	-0.193552	10.0771	10.8958	-23.6171
 302	1	2	-0.163782	9.58668	9.64654	-23.2006
 303	1	1	0.167708	10.5951	11.5428	-22.9156
 304	1	1	0.146296	9.73688	9.36511	-22.1625
 305	1	2	-0.183938	8.38157	13.5998	-26.1326
 306	1	1	0.154545	7.7899	13.0821	-25.3832
 307	1	7	-0.193999	8.85874	6.29828	-24.6552
 308	1	7	-0.196778	6.81985	7.4347	-23.7973
 309	1	9	0.051577	8.60752	5.30112	-24.2712
 310	1	9	0.039353	9.94303	6.34301	-24.8113
 311	1	9	0.072794	8.39378	6.39172	-25.6439
 312	1	9	0.05895	6.49973	7.53099	-24.8422
 313	1	9	0.044008	6.39211	8.28867	-23.2577
 314	1	9	0.064391	6.37674	6.51189	-23.4007
 315	1	1	0.130931	6.99095	7.69015	-21.2351
 316	1	2	-0.035623	7.99528	7.29668	-21.1151
 317	1	2	-0.458756	8.46223	7.06529	-19.8105
 318	1	1	0.207809	7.81652	7.27492	-18.9611
 319	1	2	0.31527	9.76526	6.59835	-19.5905
 320	1	2	-0.466224	10.5976	6.36201	-20.6887
 321	1	1	0.20556	11.6124	6.01025	-20.5249
 322	1	2	-0.031899	10.1383	6.59487	-21.9964
 323	1	1	0.127567	10.8268	6.44091	-22.8219
 324	1	2	0.005289	8.82397	7.0584	-22.2365
 325	1	1	0.144011	10.5828	6.43227	-15.7316
 326	1	2	-0.407424	9.8563	5.69384	-16.0603
 327	1	2	0.096878	9.22626	4.86446	-15.1149
 328	1	1	0.131719	9.47417	4.96093	-14.0599
 329	1	2	0.007579	8.29716	3.895	-15.5323
 330	1	3	0.947259	7.62774	2.75775	-14.2998
 331	1	2	-0.433296	7.98856	3.76106	-16.9055
 332	1	1	0.195208	7.27023	3.00811	-17.2266
 333	1	2	0.002203	8.62311	4.58894	-17.8479
 334	1	1	0.245959	8.39896	4.46862	-18.9063
 335	1	2	0.108341	9.55904	5.55925	-17.4276
 336	1	4	-0.012027	10.2225	6.35664	-18.3246
 337	1	5	-0.530873	6.33672	2.26199	-14.7928
 338	1	5	-0.5745	7.80022	3.35544	-12.9698
 339	1	1	0.177717	7.8138	0.534421	-16.1784
 340	1	2	-0.13906	8.6661	0.464561	-15.5047
 341	1	2	-0.172291	9.59826	-0.576937	-15.6535
 342	1	1	0.137587	9.46829	-1.32751	-16.4274
 343	1	2	0.27179	10.6821	-0.675971	-14.7689
 344	1	6	-0.297458	11.5024	-1.77209	-14.8228
 345	1	1	0.184682	10.0389	2.03927	-12.7895
 346	1	2	-0.177057	9.92125	1.31468	-13.5945
 347	1	2	-0.065252	8.81809	1.40726	-14.4675
 348	1	1	0.164016	13.2689	-3.66181	-14.4565
 349	1	1	0.144303	13.0936	-5.54469	-12.8447
 350	1	2	-0.207027	12.3861	-3.76286	-13.8323
 351	1	2	-0.150602	12.2793	-4.82771	-12.9189
 352	1	2	0.201726	11.3599	-2.81541	-13.9351
 353	1	2	0.015223	11.1335	-4.97826	-12.1048
 354	1	7	0.123165	11.0598	-6.14599	-11.0929
 355	1	2	-0.193552	10.2164	-2.94908	-13.1262
 356	1	2	-0.163782	10.1064	-4.01505	-12.2193
 357	1	1	0.167708	9.40694	-2.22795	-13.189
 358	1	1	0.146296	9.21425	-4.06981	-11.6049
 359	1	2	-0.183938	10.8495	0.269731	-13.7451
 360	1	1	0.154545	11.6818	0.167494	-13.0549
 361	1	7	-0.193999	9.62621	-6.38895	-10.5494
 362	1	7	-0.196778	11.9487	-5.73385	-9.88879
 363	1	9	0.051577	9.26615	-5.53996	-9.95489
 364	1	9	0.039353	9.60352	-7.27221	-9.89833
 365	1	9	0.072794	8.91861	-6.56507	-11.3698
 366	1	9	0.05895	11.6653	-4.73708	-9.52608
 367	1	9	0.044008	13.0076	-5.69309	-10.1742
 368	1	9	0.064391	11.8418	-6.42675	-9.04549
 369	1	1	0.130931	10.4889	-7.05148	-13.6227
 370	1	2	-0.035623	11.112	-7.75692	-13.0772
 371	1	2	-0.458756	11.5257	-8.93894	-13.7144
 372	1	1	0.207809	11.2295	-9.13066	-14.7413
 373	1	2	0.31527	12.317	-9.87604	-13.04
 374	1	2	-0.466224	12.6884	-9.61996	-11.7106
 375	1	1	0.20556	13.3083	-10.335	-11.1764
 376	1	2	-0.031899	12.2916	-8.42955	-11.0728
 377	1	1	0.127567	12.6018	-8.26414	-10.0458
 378	1	2	0.005289	11.513	-7.46713	-11.7552
 379	1	1	0.144011	14.802	-12.5875	-13.9967
 380	1	2	-0.407424	13.9969	-13.0036	-13.3967
 381	1	2	0.096878	14.1225	-14.2972	-12.8579
 382	1	1	0.131719	15.032	-14.8658	-13.039
 383	1	2	0.007579	13.0873	-14.849	-12.0796
 384	1	3	0.947259	13.3273	-16.5035	-11.3692
 385	1	2	-0.433296	11.9196	-14.0849	-11.8342
 386	1	1	0.195208	11.1252	-14.4987	-11.216
 387	1	2	0.002203	11.8013	-12.784	-12.3661
 388	1	1	0.245959	10.9052	-12.1916	-12.18
 389	1	2	0.108341	12.843	-12.2413	-13.1454
 390	1	4	-0.012027	12.7375	-10.9965	-13.7081
 391	1	5	-0.530873	12.7248	-16.5018	-10.0301
 392	1	5	-0.5745	14.7291	-16.8796	-11.5932
 393	1	1	0.177717	10.6481	-17.6258	-10.9995
 394	1	2	-0.13906	11.0339	-18.0084	-11.9425
 395	1	2	-0.172291	10.2757	-18.9284	-12.6889
 396	1	1	0.137587	9.29985	-19.2459	-12.3356
 397	1	2	0.27179	10.7806	-19.4625	-13.8841
 398	1	6	-0.297458	10.0012	-20.3703	-14.5696
 399	1	1	0.184682	13.8025	-17.8429	-13.943
 400	1	2	-0.177057	12.8093	-18.1309	-13.6011
 401	1	2	-0.065252	12.3093	-17.608	-12.3902
 402	1	1	0.164016	9.0386	-20.5269	-16.9907
 403	1	1	0.144303	9.88971	-21.9515	-18.8135
 404	1	2	-0.207027	9.87132	-21.1993	-16.8077
 405	1	2	-0.150602	10.3633	-22.0178	-17.8397
 406	1	2	0.201726	10.4712	-21.2183	-15.5433
 407	1	2	0.015223	11.4615	-22.8818	-17.6171
 408	1	7	0.123165	12.1022	-23.7268	-18.7425
 409	1	2	-0.193552	11.5347	-22.0985	-15.2921
 410	1	2	-0.163782	12.0259	-22.9212	-16.3226
 411	1	1	0.167708	11.9856	-22.1296	-14.3043
 412	1	1	0.146296	12.8655	-23.5823	-16.1205
 413	1	2	-0.183938	12.044	-19.0464	-14.3496
 414	1	1	0.154545	12.4383	-19.4391	-15.2822
 415	1	7	-0.193999	13.4834	-23.0853	-19.0514
 416	1	7	-0.196778	11.2958	-23.6971	-20.0693
 417	1	9	0.051577	13.9597	-23.5478	-19.9252
 418	1	9	0.039353	14.1676	-23.1761	-18.1983
 419	1	9	0.072794	13.3699	-22.0158	-19.271
 420	1	9	0.05895	10.274	-24.0699	-19.9242
 421	1	9	0.044008	11.7731	-24.3346	-20.8251
 422	1	9	0.064391	11.2401	-22.6836	-20.4861
 423	1	1	0.130931	10.149	-25.283	-17.6214
 424	1	2	-0.035623	11.0671	-25.8471	-17.7697
 425	1	2	-0.458756	11.0982	-27.2139	-17.4375
 426	1	1	0.207809	10.2118	-27.6935	-17.0338
 427	1	2	0.31527	12.2539	-27.9759	-17.6551
 428	1	2	-0.466224	13.3945	-27.3429	-18.1745
 429	1	1	0.20556	14.3004	-27.9157	-18.3486
 430	1	2	-0.031899	13.3707	-25.9769	-18.5039
 431	1	1	0.127567	14.2674	-25.5363	-18.9279
 432	1	2	0.005289	12.2016	-25.2066	-18.3123
 433	1	1	0.144011	11.6071	-30.0676	-19.8011
 434	1	2	-0.407424	12.4903	-30.5524	-19.393
 435	1	2	0.096878	13.2031	-31.4829	-20.1723
 436	1	1	0.131719	12.8656	-31.7111	-21.1808
 437	1	2	0.007579	14.3565	-32.1055	-19.6588
 438	1	3	0.947259	15.2528	-33.2764	-20.7154
 439	1	2	-0.433296	14.7962	-31.7892	-18.3507
 440	1	1	0.195208	15.7035	-32.2521	-17.9637
 441	1	2	0.002203	14.0805	-30.8572	-17.5742
 442	1	1	0.245959	14.4206	-30.5969	-16.5745
 443	1	2	0.108341	12.932	-30.2345	-18.0959
 444	1	4	-0.012027	12.2543	-29.3117	-17.3449
 445	1	5	-0.530873	14.9182	-32.9555	-22.1087
 446	1	5	-0.5745	16.6376	-33.3497	-20.2329
 447	1	1	0.177717	15.8605	-35.3664	-18.7527
 448	1	2	-0.13906	14.9872	-35.6915	-19.3167
 449	1	2	-0.172291	14.4	-36.9433	-19.0494
 450	1	1	0.137587	14.8094	-37.5881	-18.2775
 451	1	2	0.27179	13.2978	-37.3808	-19.8004
 452	1	6	-0.297458	12.7604	-38.6254	-19.5573
 453	1	1	0.184682	12.9566	-34.6803	-21.8796
 454	1	2	-0.177057	13.3516	-35.3027	-21.078
 455	1	2	-0.065252	14.4677	-34.8662	-20.3354
 456	1	1	0.164016	14.1412	-39.1347	-21.7622
 457	1	1	0.144303	13.3636	-40.505	-23.6593
 458	1	2	-0.207027	13.1739	-39.627	-21.7102
 459	1	2	-0.150602	12.7267	-40.4118	-22.7847
 460	1	2	0.201726	12.3636	-39.4559	-20.5784
 461	1	2	0.015223	11.4658	-41.0488	-22.75
 462	1	7	0.123165	10.9835	-41.8426	-23.9853
 463	1	2	-0.193552	11.1263	-40.1103	-20.5075
 464	1	2	-0.163782	10.678	-40.9004	-21.5835
 465	1	1	0.167708	10.5048	-39.983	-19.6256
 466	1	1	0.146296	9.70532	-41.3764	-21.5008
 467	1	2	-0.183938	12.768	-36.5531	-20.8073
 468	1	1	0.154545	11.9139	-36.8906	-21.387
 469	1	7	-0.193999	12.0348	-42.9356	-24.3385
 470	1	7	-0.196778	10.9399	-40.8806	-25.2093
 471	1	9	0.051577	12.9791	-42.4983	-24.6848
 472	1	9	0.039353	11.6684	-43.5884	-25.1415
 473	1	9	0.072794	12.2754	-43.5548	-23.4657
 474	1	9	0.05895	10.4584	-41.3617	-26.0704
 475	1	9	0.044008	11.9455	-40.5762	-25.5246
 476	1	9	0.064391	10.3936	-39.958	-24.9781
 477	1	1	0.130931	10.2972	-44.4349	-23.1267
 478	1	2	-0.035623	9.43141	-43.8223	-23.3578
 479	1	2	-0.458756	8.15717	-44.4029	-23.2327
 480	1	1	0.207809	8.065	-45.4392	-22.918
 481	1	2	0.31527	7.00339	-43.6527	-23.491
 482	1	2	-0.466224	7.13352	-42.306	-23.8442
 483	1	1	0.20556	6.24164	-41.7123	-24.0275
 484	1	2	-0.031899	8.40534	-41.7223	-23.9805
 485	1	1	0.127567	8.46482	-40.6729	-24.2531
 486	1	2	0.005289	9.58288	-42.4785	-23.7732
 487	1	1	0.144011	3.7406	-45.7939	-22.8852
 488	1	2	-0.407424	4.26039	-46.0335	-23.8089
 489	1	2	0.096878	3.80776	-47.1006	-24.606
 490	1	1	0.131719	2.94226	-47.6822	-24.294
 491	1	2	0.007579	4.45986	-47.4191	-25.8101
 492	1	3	0.947259	3.7831	-48.8026	-26.7664
 493	1	2	-0.433296	5.57559	-46.6502	-26.2254
 494	1	1	0.195208	6.07253	-46.8732	-27.1678
 495	1	2	0.002203	6.02341	-45.5796	-25.4249
 496	1	1	0.245959	6.87061	-44.9787	-25.751
 497	1	2	0.108341	5.37125	-45.2726	-24.2095
 498	1	4	-0.012027	5.76374	-44.2239	-23.4149
 499	1	5	-0.530873	3.49357	-49.8553	-25.7862
 500	1	5	-0.5745	2.7059	-48.2598	-27.6012
 501	1	1	0.177717	4.16741	-48.6352	-29.6657
 502	1	2	-0.13906	5.03596	-49.1428	-29.2476
 503	1	2	-0.172291	6.0633	-49.5927	-30.0964
 504	1	1	0.137587	6.00148	-49.4301	-31.1683
 505	1	2	0.27179	7.17836	-50.2539	-29.5616
 506	1	6	-0.297458	8.18238	-50.6649	-30.4036
 507	1	1	0.184682	6.27496	-50.2516	-26.2563
 508	1	2	-0.177057	6.22653	-50.0506	-27.3256
 509	1	2	-0.065252	5.11585	-49.3651	-27.8575
 510	1	1	0.164016	9.93098	-52.5816	-29.9903
 511	1	1	0.144303	12.2762	-52.2587	-29.2436
 512	1	2	-0.207027	10.3293	-51.5796	-29.8598
 513	1	2	-0.150602	11.6582	-51.3876	-29.4438
 514	1	2	0.201726	9.49878	-50.4745	-30.0751
 515	1	2	0.015223	12.1841	-50.0885	-29.2586
 516	1	7	0.123165	13.6275	-49.9304	-28.7246
 517	1	2	-0.193552	10.0013	-49.1777	-29.903
 518	1	2	-0.163782	11.335	-48.9831	-29.5041
 519	1	1	0.167708	9.35008	-48.3257	-30.0733
 520	1	1	0.146296	11.6859	-47.9648	-29.3732
 521	1	2	-0.183938	7.25798	-50.4875	-28.1765
 522	1	1	0.154545	8.11121	-51.0219	-27.7692
 523	1	7	-0.193999	14.1014	-48.4531	-28.6683
 524	1	7	-0.196778	14.584	-50.6641	-29.7078
 525	1	9	0.051577	13.4884	-47.8629	-27.9755
 526	1	9	0.039353	14.0596	-47.983	-29.6594
 527	1	9	0.072794	15.1388	-48.3907	-28.3146
 528	1	9	0.05895	15.6366	-50.4342	-29.5016
 529	1	9	0.044008	14.383	-50.3552	-30.7419
 530	1	9	0.064391	14.4633	-51.7529	-29.6554
 531	1	1	0.130931	11.715	-49.7882	-26.7406
 532	1	2	-0.035623	12.6109	-50.305	-26.4048
 533	1	2	-0.458756	12.6646	-50.7768	-25.0824
 534	1	1	0.207809	11.8157	-50.6338	-24.4192
 535	1	2	0.31527	13.8057	-51.4379	-24.6104
 536	1	2	-0.466224	14.9002	-51.6052	-25.4664
 537	1	1	0.20556	15.7949	-52.0988	-25.0968
 538	1	2	-0.031899	14.8534	-51.1362	-26.7913
 539	1	1	0.127567	15.7267	-51.2728	-27.4217
 540	1	2	0.005289	13.6999	-50.4886	-27.2868
 541	1	1	0.144011	13.4329	-52.497	-20.8104
 542	1	2	-0.407424	13.6663	-51.4463	-20.9621
 543	1	2	0.096878	13.7185	-50.5765	-19.8567
 544	1	1	0.131719	13.5225	-50.9641	-18.8592
 545	1	2	0.007579	14.0301	-49.2156	-20.0367
 546	1	3	0.947259	14.0617	-48.1218	-18.5924
 547	1	2	-0.433296	14.2916	-48.7259	-21.3378
 548	1	1	0.195208	14.5464	-47.6764	-21.4764
 549	1	2	0.002203	14.2432	-49.5993	-22.4403
 550	1	1	0.245959	14.4613	-49.2196	-23.4368
 551	1	2	0.108341	13.9243	-50.9631	-22.2569
 552	1	4	-0.012027	13.8851	-51.8456	-23.3078
 553	1	5	-0.530873	13.5986	-48.9043	-17.4404
 554	1	5	-0.5745	15.3436	-47.4069	-18.5848
 555	1	1	0.177717	14.1746	-45.2835	-19.3485
 556	1	2	-0.13906	13.1302	-45.5926	-19.3695
 557	1	2	-0.172291	12.1325	-44.6766	-19.7501
 558	1	1	0.137587	12.3935	-43.659	-20.0281
 559	1	2	0.27179	10.7881	-45.0769	-19.7708
 560	1	6	-0.297458	9.81783	-44.1961	-20.167
 561	1	1	0.184682	11.1561	-48.3227	-18.7545
 562	1	2	-0.177057	11.4273	-47.3052	-19.0327
 563	1	2	-0.065252	12.7814	-46.9131	-19.0153
 564	1	1	0.164016	10.4825	-43.5309	-17.6353
 565	1	1	0.144303	9.12137	-42.1112	-16.1437
 566	1	2	-0.207027	9.53604	-43.1358	-17.9926
 567	1	2	-0.150602	8.76064	-42.3218	-17.1474
 568	1	2	0.201726	9.08901	-43.4277	-19.2921
 569	1	2	0.015223	7.52312	-41.7893	-17.5757
 570	1	7	0.123165	6.70697	-40.8919	-16.6103
 571	1	2	-0.193552	7.86875	-42.9043	-19.7329
 572	1	2	-0.163782	7.08818	-42.0987	-18.8863
 573	1	1	0.167708	7.53036	-43.1289	-20.7393
 574	1	1	0.146296	6.14736	-41.7202	-19.2716
 575	1	2	-0.183938	10.4334	-46.3866	-19.414
 576	1	1	0.154545	9.38899	-46.683	-19.4395
 577	1	7	-0.193999	5.3998	-40.3546	-17.2527
 578	1	7	-0.196778	7.59244	-39.6559	-16.2825
 579	1	9	0.051577	4.72364	-41.1779	-17.5163
 580	1	9	0.039353	5.6095	-39.7693	-18.1573
 581	1	9	0.072794	4.85922	-39.6999	-16.5579
 582	1	9	0.05895	7.02317	-38.8571	-15.7925
 583	1	9	0.044008	8.0176	-39.2306	-17.2009
 584	1	9	0.064391	8.42583	-39.9256	-15.6218
 585	1	1	0.130931	5.9049	-39.8584	-14.1605
 586	1	2	-0.035623	5.91963	-40.9443	-14.1618
 587	1	2	-0.458756	5.54742	-41.6251	-12.9889
 588	1	1	0.207809	5.2774	-41.0635	-12.0984
 589	1	2	0.31527	5.55724	-43.0262	-12.9467
 590	1	2	-0.466224	5.9073	-43.7385	-14.1
 591	1	1	0.20556	5.90845	-44.8246	-14.0764
 592	1	2	-0.031899	6.26509	-43.0633	-15.2808
 593	1	1	0.127567	6.51799	-43.6514	-16.1597
 594	1	2	0.005289	6.30712	-41.6509	-15.3231
 595	1	1	0.144011	4.9995	-44.0679	-9.21866
 596	1	2	-0.407424	4.08307	-43.7518	-9.70997
 597	1	2	0.096878	2.89731	-43.6242	-8.96349
 598	1	1	0.131719	2.90209	-43.8456	-7.89858
 599	1	2	0.007579	1.70081	-43.2334	-9.59066
 600	1	3	0.947259	0.198855	-43.144	-8.58052
 601	1	2	-0.433296	1.69636	-42.9635	-10.9802
 602	1	1	0.195208	0.763508	-42.6863	-11.4703
 603	1	2	0.002203	2.88224	-43.1041	-11.7274
 604	1	1	0.245959	2.87195	-42.9306	-12.802
 605	1	2	0.108341	4.07929	-43.4979	-11.0927
 606	1	4	-0.012027	5.23596	-43.7016	-11.8006
 607	1	5	-0.530873	-0.944192	-42.9144	-9.47284
 608	1	5	-0.5745	0.254231	-44.2715	-7.64166
 609	1	1	0.177717	-0.452847	-40.3282	-9.05802
 610	1	2	-0.13906	0.0253282	-40.3935	-8.082
 611	1	2	-0.172291	0.189852	-39.2363	-7.29783
 612	1	1	0.137587	-0.150736	-38.2735	-7.66625
 613	1	2	0.27179	0.783724	-39.315	-6.02806
 614	1	6	-0.297458	0.904185	-38.1555	-5.28894
 615	1	1	0.184682	1.37481	-42.6903	-5.93548
 616	1	2	-0.177057	1.06078	-41.7238	-6.32764
 617	1	2	-0.065252	0.453013	-41.6449	-7.59621
 618	1	1	0.164016	3.21721	-37.0356	-4.80246
 619	1	1	0.144303	4.4583	-37.146	-2.67286
 620	1	2	-0.207027	2.76713	-37.5118	-3.93651
 621	1	2	-0.150602	3.46421	-37.5778	-2.71809
 622	1	2	0.201726	1.50815	-38.109	-4.05809
 623	1	2	0.015223	2.9125	-38.2466	-1.6002
 624	1	7	0.123165	3.74173	-38.4787	-0.315458
 625	1	2	-0.193552	0.92092	-38.7331	-2.94826
 626	1	2	-0.163782	1.62666	-38.82	-1.73523
 627	1	1	0.167708	-0.0556788	-39.1978	-3.05074
 628	1	1	0.146296	1.18084	-39.3688	-0.90925
 629	1	2	-0.183938	1.23538	-40.5641	-5.5535
 630	1	1	0.154545	1.70942	-40.6487	-4.58128
 631	1	7	-0.193999	4.76881	-37.3443	-0.0531599
 632	1	7	-0.196778	4.54336	-39.7853	-0.563844
 633	1	9	0.051577	5.24539	-37.4776	0.926919
 634	1	9	0.039353	4.28213	-36.3608	-0.0559797
 635	1	9	0.072794	5.57275	-37.3349	-0.798792
 636	1	9	0.05895	5.26811	-39.9801	0.235965
 637	1	9	0.044008	5.10986	-39.7196	-1.502
 638	1	9	0.064391	3.87063	-40.6488	-0.647206
 639	1	1	0.130931	1.69496	-36.7972	0.393754
 640	1	2	-0.035623	1.84985	-37.5688	1.14502
 641	1	2	-0.458756	1.04371	-37.582	2.29796
 642	1	1	0.207809	0.25656	-36.8433	2.41442
 643	1	2	0.31527	1.24574	-38.5498	3.2933
 644	1	2	-0.466224	2.23244	-39.5239	3.10566
 645	1	1	0.20556	2.386	-40.2806	3.87024
 646	1	2	-0.031899	3.02523	-39.5295	1.94562
 647	1	1	0.127567	3.7852	-40.2984	1.84889
 648	1	2	0.005289	2.8467	-38.5486	0.94357