pySIMM System Object

866 atoms
929 bonds
1568 angles
2334 dihedrals
288 impropers

9 atom types
10 bond types
17 angle types
7 dihedral types
2 improper types

-140.211826 140.211826 xlo xhi
-140.211826 140.211826 ylo yhi
-140.211826 140.211826 zlo zhi

Masses

   1	1.008	# ha
   2	12.01	# ca
   3	32.06	# sy
   4	16.0	# oh
   5	16.0	# o
   6	16.0	# os
   7	12.01	# c3
   8	1.008	# ho
   9	1.008	# hc

Pair Coeffs

   1	0.015	2.59964245953351	# ha
   2	0.086	3.3996695084235347	# ca
   3	0.25	3.563594872561357	# sy
   4	0.2104	3.0664733878390478	# oh
   5	0.21	2.959921901149463	# o
   6	0.17	3.0000123434657784	# os
   7	0.1094	3.3996695084235347	# c3
   8	0.0	0.0	# ho
   9	0.0157	2.649532787749369	# hc

Bond Coeffs

   1	371.4	0.973	# ho,oh
   2	243.4	1.7909	# ca,sy
   3	461.1	1.3984	# ca,ca
   4	300.9	1.5375	# c3,c3
   5	330.6	1.0969	# c3,hc
   6	493.0	1.466	# o,sy
   7	345.8	1.086	# ca,ha
   8	321.0	1.5156	# c3,ca
   9	376.6	1.3696	# ca,os
  10	384.0	1.3637	# ca,oh

Angle Coeffs

   1	61.48	119.42	# ca,ca,sy
   2	72.54	121.41	# o,sy,o
   3	69.58	119.2	# ca,ca,os
   4	60.3	104.44	# ca,sy,ca
   5	46.34	109.8	# c3,c3,hc
   6	49.0	108.58	# ca,oh,ho
   7	65.77	108.35	# ca,sy,o
   8	63.48	119.89	# ca,os,ca
   9	69.52	119.9	# ca,ca,oh
  10	63.56	112.24	# ca,c3,ca
  11	62.86	111.51	# c3,c3,c3
  12	39.4	107.58	# hc,c3,hc
  13	66.62	120.02	# ca,ca,ca
  14	48.18	119.88	# ca,ca,ha
  15	63.15	112.07	# c3,c3,ca
  16	63.53	120.77	# c3,ca,ca
  17	63.5	119.89	# ca,oh,ca

Dihedral Coeffs

   1	1	0.9	2	180	# X,ca,oh,X
   2	1	1.3	2	180	# X,ca,sy,X
   3	1	0.16	3	0	# hc,c3,c3,c3
   4	1	3.625	2	180	# X,ca,ca,X
   5	1	0.0	2	0	# X,c3,ca,X
   6	1	0.15555555555555556	3	0	# X,c3,c3,X
   7	1	0.9	2	180	# X,ca,os,X

Improper Coeffs

   1	1.1	-1	2	# ca,X,X,ha
   2	1.1	-1	2	# ca,ca,ca,c3

Atoms

   1	1	1	0.144011	58.6731	-5.74359	-42.0233
   2	1	2	-0.407424	58.991	-5.64168	-40.9891
   3	1	2	0.096878	59.5302	-4.42348	-40.541
   4	1	1	0.131719	59.6311	-3.59606	-41.2373
   5	1	2	0.007579	59.9336	-4.27054	-39.1994
   6	1	3	0.947259	60.6102	-2.64842	-38.7032
   7	1	2	-0.433296	59.7718	-5.35652	-38.2971
   8	1	1	0.195208	60.0643	-5.24368	-37.2552
   9	1	2	0.002203	59.252	-6.58569	-38.7574
  10	1	1	0.245959	59.1392	-7.43885	-38.0888
  11	1	2	0.108341	58.8799	-6.72738	-40.104
  12	1	4	-0.012027	58.4222	-7.92409	-40.5634
  13	1	5	-0.530873	61.7044	-2.8587	-37.747
  14	1	5	-0.5745	60.7939	-1.85426	-39.9244
  15	1	1	0.177717	60.0371	-2.44874	-35.8328
  16	1	2	-0.13906	59.2193	-1.96891	-36.3677
  17	1	2	-0.172291	58.1349	-1.42897	-35.6525
  18	1	1	0.137587	58.1056	-1.50661	-34.5697
  19	1	2	0.27179	57.0762	-0.807768	-36.3387
  20	1	6	-0.297458	55.9813	-0.315053	-35.6681
  21	1	1	0.184682	58.2196	-1.1825	-39.5443
  22	1	2	-0.177057	58.1926	-1.25897	-38.4582
  23	1	2	-0.065252	59.2466	-1.8994	-37.7756
  24	1	1	0.164016	57.6506	1.63892	-34.9713
  25	1	1	0.144303	57.6744	2.78629	-32.7719
  26	1	2	-0.207027	56.9647	1.32564	-34.1894
  27	1	2	-0.150602	56.9741	1.97179	-32.9403
  28	1	2	0.201726	56.0476	0.294269	-34.4387
  29	1	2	0.015223	56.0738	1.5985	-31.9172
  30	1	7	0.123165	56.0978	2.37807	-30.5798
  31	1	2	-0.193552	55.1473	-0.0894118	-33.4372
  32	1	2	-0.163782	55.1624	0.548699	-32.1831
  33	1	1	0.167708	54.4341	-0.882063	-33.6427
  34	1	1	0.146296	54.4466	0.224656	-31.4347
  35	1	2	-0.183938	57.1061	-0.726996	-37.7394
  36	1	1	0.154545	56.281	-0.251948	-38.262
  37	1	7	-0.193999	57.4733	2.10746	-29.9086
  38	1	7	-0.196778	55.0169	1.90346	-29.5718
  39	1	9	0.051577	57.5151	2.51358	-28.8901
  40	1	9	0.039353	58.2972	2.54712	-30.4842
  41	1	9	0.072794	57.6588	1.02781	-29.8361
  42	1	9	0.05895	55.1574	0.848663	-29.3021
  43	1	9	0.044008	54.0061	2.02645	-29.9806
  44	1	9	0.064391	55.0688	2.48982	-28.6453
  45	1	1	0.130931	54.2462	3.47656	-32.2752
  46	1	2	-0.035623	54.8372	4.24533	-31.7824
  47	1	2	-0.458756	54.5997	5.59559	-32.0943
  48	1	1	0.207809	53.8421	5.85335	-32.8283
  49	1	2	0.31527	55.3453	6.61351	-31.4865
  50	1	2	-0.466224	56.3244	6.26158	-30.5431
  51	1	1	0.20556	56.923	7.03653	-30.0713
  52	1	2	-0.031899	56.5724	4.9107	-30.2326
  53	1	1	0.127567	57.3474	4.68038	-29.508
  54	1	2	0.005289	55.8434	3.87693	-30.8635
  55	1	1	0.144011	56.7972	9.88107	-32.3831
  56	1	2	-0.407424	56.2576	9.98673	-31.4455
  57	1	2	0.096878	56.4841	11.1111	-30.6289
  58	1	1	0.131719	57.2016	11.8682	-30.9384
  59	1	2	0.007579	55.7846	11.2625	-29.4171
  60	1	3	0.947259	56.0943	12.7492	-28.4237
  61	1	2	-0.433296	54.856	10.2698	-29.0191
  62	1	1	0.195208	54.3195	10.3828	-28.0778
  63	1	2	0.002203	54.6468	9.13638	-29.8296
  64	1	1	0.245959	53.9405	8.3659	-29.5275
  65	1	2	0.108341	55.3466	8.9944	-31.0432
  66	1	4	-0.012027	55.1213	7.91577	-31.8569
  67	1	5	-0.530873	55.6251	12.4785	-27.0592
  68	1	5	-0.5745	57.4566	13.2114	-28.7185
  69	1	1	0.177717	56.4552	14.8847	-30.4037
  70	1	2	-0.13906	55.4006	14.8567	-30.133
  71	1	2	-0.172291	54.4916	15.7297	-30.7566
  72	1	1	0.137587	54.8354	16.426	-31.5157
  73	1	2	0.27179	53.1298	15.6998	-30.418
  74	1	6	-0.297458	52.2753	16.5245	-31.113
  75	1	1	0.184682	53.2342	13.2289	-28.0465
  76	1	2	-0.177057	53.5838	13.9276	-28.8051
  77	1	2	-0.065252	54.947	13.9395	-29.1642
  78	1	1	0.164016	51.4407	17.7795	-28.9341
  79	1	1	0.144303	49.1025	18.3608	-28.4209
  80	1	2	-0.207027	50.6464	17.4701	-29.6074
  81	1	2	-0.150602	49.308	17.8041	-29.3291
  82	1	2	0.201726	50.9678	16.7719	-30.7783
  83	1	2	0.015223	48.2646	17.4531	-30.2216
  84	1	7	0.123165	46.7909	17.8835	-29.9802
  85	1	2	-0.193552	49.9486	16.3806	-31.6535
  86	1	2	-0.163782	48.6091	16.7022	-31.3703
  87	1	1	0.167708	50.2052	15.8435	-32.5618
  88	1	1	0.146296	47.8425	16.3846	-32.0702
  89	1	2	-0.183938	52.6767	14.8016	-29.4331
  90	1	1	0.154545	51.6245	14.7669	-29.1684
  91	1	7	-0.193999	46.1845	18.366	-31.3326
  92	1	7	-0.196778	46.7028	19.0989	-29.0146
  93	1	9	0.051577	45.2501	18.9228	-31.1935
  94	1	9	0.039353	45.9609	17.5249	-31.9996
  95	1	9	0.072794	46.8812	19.038	-31.8507
  96	1	9	0.05895	47.3545	19.9181	-29.3445
  97	1	9	0.044008	46.9844	18.8163	-27.9925
  98	1	9	0.064391	45.6796	19.4918	-28.96
  99	1	1	0.130931	44.041	17.7271	-29.7684
 100	1	2	-0.035623	44.5335	16.8709	-29.3175
 101	1	2	-0.458756	43.7464	15.9205	-28.6472
 102	1	1	0.207809	42.6696	16.0551	-28.601
 103	1	2	0.31527	44.3405	14.83	-27.9942
 104	1	2	-0.466224	45.7323	14.6766	-28.0687
 105	1	1	0.20556	46.2028	13.8353	-27.5697
 106	1	2	-0.031899	46.5274	15.6285	-28.7367
 107	1	1	0.127567	47.6065	15.5011	-28.7322
 108	1	2	0.005289	45.9397	16.7508	-29.3638
 109	1	1	0.144011	43.6454	15.8957	-25.4812
 110	1	2	-0.407424	42.6842	15.3978	-25.5832
 111	1	2	0.096878	41.5828	15.8551	-24.8373
 112	1	1	0.131719	41.7066	16.7065	-24.1718
 113	1	2	0.007579	40.3203	15.2493	-24.9843
 114	1	3	0.947259	38.9044	15.9823	-24.1142
 115	1	2	-0.433296	40.173	14.1592	-25.8767
 116	1	1	0.195208	39.1904	13.7112	-26.0178
 117	1	2	0.002203	41.2803	13.7041	-26.6219
 118	1	1	0.245959	41.1664	12.8891	-27.3329
 119	1	2	0.108341	42.5321	14.334	-26.4927
 120	1	4	-0.012027	43.5836	13.9337	-27.2797
 121	1	5	-0.530873	39.3824	17.201	-23.4501
 122	1	5	-0.5745	37.7797	16.0079	-25.058
 123	1	1	0.177717	36.7418	14.0302	-23.8917
 124	1	2	-0.13906	37.3087	13.9969	-22.9627
 125	1	2	-0.172291	36.8519	13.205	-21.8958
 126	1	1	0.137587	35.9424	12.6213	-21.9992
 127	1	2	0.27179	37.5382	13.2076	-20.6714
 128	1	6	-0.297458	37.0155	12.5316	-19.5965
 129	1	1	0.184682	40.0212	15.4306	-21.4458
 130	1	2	-0.177057	39.1569	14.7829	-21.5845
 131	1	2	-0.065252	38.453	14.806	-22.8081
 132	1	1	0.164016	36.3133	14.9417	-18.777
 133	1	1	0.144303	34.0606	15.6267	-18.0727
 134	1	2	-0.207027	35.5169	14.2045	-18.7351
 135	1	2	-0.150602	34.2269	14.5859	-18.3292
 136	1	2	0.201726	35.7757	12.8812	-19.1187
 137	1	2	0.015223	33.1676	13.6492	-18.2991
 138	1	7	0.123165	31.7148	14.0713	-17.9743
 139	1	2	-0.193552	34.7429	11.9349	-19.0814
 140	1	2	-0.163782	33.4468	12.3185	-18.6859
 141	1	1	0.167708	34.9445	10.9153	-19.395
 142	1	1	0.146296	32.6478	11.5818	-18.705
 143	1	2	-0.183938	38.7028	13.9771	-20.5217
 144	1	1	0.154545	39.2161	13.9859	-19.5646
 145	1	7	-0.193999	31.0252	14.3155	-19.3439
 146	1	7	-0.196778	31.6381	15.4006	-17.1751
 147	1	9	0.051577	31.6308	14.9882	-19.9655
 148	1	9	0.039353	30.0394	14.7831	-19.2292
 149	1	9	0.072794	30.9049	13.376	-19.8982
 150	1	9	0.05895	31.9609	16.259	-17.777
 151	1	9	0.044008	32.26	15.3556	-16.2719
 152	1	9	0.064391	30.6066	15.6004	-16.8572
 153	1	1	0.130931	32.6708	12.7297	-15.7767
 154	1	2	-0.035623	31.6445	12.4447	-15.9996
 155	1	2	-0.458756	30.9795	11.5407	-15.1498
 156	1	1	0.207809	31.4946	11.1541	-14.2742
 157	1	2	0.31527	29.6436	11.1783	-15.3936
 158	1	2	-0.466224	28.984	11.7428	-16.4919
 159	1	1	0.20556	27.9426	11.4926	-16.6729
 160	1	2	-0.031899	29.641	12.6511	-17.3407
 161	1	1	0.127567	29.0779	13.0887	-18.159
 162	1	2	0.005289	30.9894	13.0096	-17.1149
 163	1	1	0.144011	28.0743	9.32909	-12.3072
 164	1	2	-0.407424	28.9163	8.78973	-12.7336
 165	1	2	0.096878	29.4467	7.67482	-12.0563
 166	1	1	0.131719	29.0117	7.36158	-11.1093
 167	1	2	0.007579	30.5444	6.97438	-12.5906
 168	1	3	0.947259	31.2131	5.56543	-11.6643
 169	1	2	-0.433296	31.1005	7.38817	-13.8242
 170	1	1	0.195208	31.9561	6.85288	-14.2334
 171	1	2	0.002203	30.5679	8.50341	-14.4981
 172	1	1	0.245959	30.9996	8.82147	-15.445
 173	1	2	0.108341	29.4878	9.22232	-13.9443
 174	1	4	-0.012027	28.9537	10.3218	-14.5707
 175	1	5	-0.530873	32.6161	5.39519	-12.061
 176	1	5	-0.5745	30.7977	5.7177	-10.264
 177	1	1	0.177717	28.7774	4.21002	-10.7999
 178	1	2	-0.13906	29.116	3.72405	-11.7136
 179	1	2	-0.172291	28.3849	2.65041	-12.2471
 180	1	1	0.137587	27.483	2.31813	-11.7419
 181	1	2	0.27179	28.8152	2.01129	-13.4271
 182	1	6	-0.297458	28.0838	0.988828	-13.9936
 183	1	1	0.184682	31.6628	3.82808	-13.9941
 184	1	2	-0.177057	30.7401	3.50556	-13.5136
 185	1	2	-0.065252	30.2915	4.16538	-12.3502
 186	1	1	0.164016	26.8751	-0.985082	-12.7431
 187	1	1	0.144303	24.4917	-0.985516	-12.0358
 188	1	2	-0.207027	26.2148	-0.179451	-13.05
 189	1	2	-0.150602	24.8673	-0.170338	-12.6493
 190	1	2	0.201726	26.7314	0.894751	-13.7834
 191	1	2	0.015223	24.02	0.913253	-12.9708
 192	1	7	0.123165	22.6114	0.968943	-12.3377
 193	1	2	-0.193552	25.8894	1.94716	-14.1693
 194	1	2	-0.163782	24.5429	1.95911	-13.7678
 195	1	1	0.167708	26.3012	2.78128	-14.7301
 196	1	1	0.146296	23.9369	2.816	-14.043
 197	1	2	-0.183938	30.0023	2.43098	-14.0473
 198	1	1	0.154545	30.3407	1.92312	-14.9455
 199	1	7	-0.193999	21.7628	2.16863	-12.8384
 200	1	7	-0.196778	22.84	1.19028	-10.8158
 201	1	9	0.051577	20.7681	2.16099	-12.3745
 202	1	9	0.039353	21.6216	2.13078	-13.926
 203	1	9	0.072794	22.2328	3.12669	-12.5809
 204	1	9	0.05895	23.526	2.0314	-10.6492
 205	1	9	0.044008	23.2854	0.304122	-10.346
 206	1	9	0.064391	21.9083	1.42685	-10.2884
 207	1	1	0.130931	20.8016	-0.432787	-10.7117
 208	1	2	-0.035623	20.9184	-0.876328	-11.6953
 209	1	2	-0.458756	20.1414	-2.00334	-12.0151
 210	1	1	0.207809	19.4561	-2.41596	-11.2791
 211	1	2	0.31527	20.2362	-2.60048	-13.2788
 212	1	2	-0.466224	21.1259	-2.0651	-14.2187
 213	1	1	0.20556	21.2039	-2.5232	-15.2008
 214	1	2	-0.031899	21.9035	-0.933851	-13.9068
 215	1	1	0.127567	22.5704	-0.524366	-14.6627
 216	1	2	0.005289	21.812	-0.319349	-12.6383
 217	1	1	0.144011	17.7693	-5.66199	-13.8888
 218	1	2	-0.407424	17.2902	-4.68746	-13.9321
 219	1	2	0.096878	15.898	-4.60367	-14.1281
 220	1	1	0.131719	15.314	-5.51611	-14.2276
 221	1	2	0.007579	15.2601	-3.35038	-14.1881
 222	1	3	0.947259	13.4611	-3.29331	-14.4291
 223	1	2	-0.433296	16.03	-2.17309	-14.0342
 224	1	1	0.195208	15.5346	-1.20347	-14.0513
 225	1	2	0.002203	17.4223	-2.26008	-13.8368
 226	1	1	0.245959	18.0054	-1.34827	-13.7221
 227	1	2	0.108341	18.0608	-3.51975	-13.7858
 228	1	4	-0.012027	19.4205	-3.64684	-13.6174
 229	1	5	-0.530873	12.9388	-4.65331	-14.2463
 230	1	5	-0.5745	12.9553	-2.1488	-13.6606
 231	1	1	0.177717	13.239	-0.724958	-15.8078
 232	1	2	-0.13906	13.1617	-1.50543	-16.5628
 233	1	2	-0.172291	12.9294	-1.16125	-17.907
 234	1	1	0.137587	12.856	-0.116161	-18.1915
 235	1	2	0.27179	12.7713	-2.16821	-18.8771
 236	1	6	-0.297458	12.5132	-1.87454	-20.1979
 237	1	1	0.184682	13.1953	-4.91312	-16.8732
 238	1	2	-0.177057	13.1376	-3.86435	-17.1613
 239	1	2	-0.065252	13.2586	-2.8587	-16.1797
 240	1	1	0.164016	13.1264	-0.583712	-22.3644
 241	1	1	0.144303	12.0103	1.41214	-23.2597
 242	1	2	-0.207027	12.2738	-0.16293	-21.8401
 243	1	2	-0.150602	11.6259	0.978595	-22.343
 244	1	2	0.201726	11.8412	-0.761779	-20.6527
 245	1	2	0.015223	10.5202	1.55081	-21.6683
 246	1	7	0.123165	9.83121	2.85281	-22.1677
 247	1	2	-0.193552	10.7142	-0.243013	-19.9939
 248	1	2	-0.163782	10.062	0.900021	-20.4975
 249	1	1	0.167708	10.3476	-0.725644	-19.0922
 250	1	1	0.146296	9.19568	1.28156	-19.965
 251	1	2	-0.183938	12.9002	-3.51543	-18.5043
 252	1	1	0.154545	12.79	-4.28711	-19.2606
 253	1	7	-0.193999	10.7082	3.60029	-23.212
 254	1	7	-0.196778	9.68101	3.82045	-20.9573
 255	1	9	0.051577	10.7722	3.03532	-24.1508
 256	1	9	0.039353	11.7246	3.76652	-22.8325
 257	1	9	0.072794	10.2883	4.58242	-23.4615
 258	1	9	0.05895	8.91678	3.47166	-20.253
 259	1	9	0.044008	9.39464	4.83204	-21.2689
 260	1	9	0.064391	10.6306	3.90919	-20.4139
 261	1	1	0.130931	8.65106	0.432043	-22.9982
 262	1	2	-0.035623	8.02574	1.29907	-23.1966
 263	1	2	-0.458756	6.79769	1.1103	-23.8623
 264	1	1	0.207809	6.50675	0.110325	-24.1737
 265	1	2	0.31527	5.97675	2.20605	-24.1797
 266	1	2	-0.466224	6.40089	3.49029	-23.8237
 267	1	1	0.20556	5.78751	4.34678	-24.0886
 268	1	2	-0.031899	7.62206	3.68441	-23.158
 269	1	1	0.127567	7.93126	4.69968	-22.9277
 270	1	2	0.005289	8.45585	2.59349	-22.8257
 271	1	1	0.144011	3.42373	1.08151	-26.8657
 272	1	2	-0.407424	3.2458	0.58915	-25.9134
 273	1	2	0.096878	2.3406	-0.485548	-25.8413
 274	1	1	0.131719	1.83016	-0.81756	-26.7428
 275	1	2	0.007579	2.10715	-1.13871	-24.6168
 276	1	3	0.947259	0.959094	-2.54571	-24.5935
 277	1	2	-0.433296	2.78597	-0.697577	-23.4536
 278	1	1	0.195208	2.61922	-1.20395	-22.506
 279	1	2	0.002203	3.69031	0.379903	-23.5299
 280	1	1	0.245959	4.21029	0.722896	-22.6372
 281	1	2	0.108341	3.93428	1.01453	-24.7646
 282	1	4	-0.012027	4.8013	2.07066	-24.8739
 283	1	5	-0.530873	0.363533	-2.68404	-25.9287
 284	1	5	-0.5745	1.67139	-3.65144	-23.9433
 285	1	1	0.177717	-1.7462	-1.48029	-24.9794
 286	1	2	-0.13906	-1.56169	-1.53743	-23.9077
 287	1	2	-0.172291	-2.55632	-1.13145	-23.0
 288	1	1	0.137587	-3.50794	-0.753651	-23.362
 289	1	2	0.27179	-2.32851	-1.21584	-21.6179
 290	1	6	-0.297458	-3.30778	-0.779757	-20.7588
 291	1	1	0.184682	0.82957	-2.53166	-21.6712
 292	1	2	-0.177057	-0.10939	-2.12429	-22.0422
 293	1	2	-0.065252	-0.330129	-2.03036	-23.4314
 294	1	1	0.164016	-4.36393	0.500433	-18.7717
 295	1	1	0.144303	-5.15491	-0.462509	-16.6521
 296	1	2	-0.207027	-4.21847	-0.55709	-18.5722
 297	1	2	-0.150602	-4.66469	-1.11836	-17.3633
 298	1	2	0.201726	-3.62801	-1.36066	-19.5535
 299	1	2	0.015223	-4.53066	-2.50514	-17.1138
 300	1	7	0.123165	-5.19677	-3.20015	-15.9024
 301	1	2	-0.193552	-3.45201	-2.73293	-19.3072
 302	1	2	-0.163782	-3.87878	-3.29242	-18.089
 303	1	1	0.167708	-3.02227	-3.37348	-20.0717
 304	1	1	0.146296	-3.75426	-4.36002	-17.9288
 305	1	2	-0.183938	-1.09919	-1.70097	-21.1389
 306	1	1	0.154545	-0.918261	-1.75177	-20.0694
 307	1	7	-0.193999	-6.22818	-4.21646	-16.4752
 308	1	7	-0.196778	-6.03908	-2.22272	-15.0335
 309	1	9	0.051577	-6.82357	-4.67926	-15.6781
 310	1	9	0.039353	-5.74444	-5.02028	-17.0432
 311	1	9	0.072794	-6.92417	-3.71316	-17.159
 312	1	9	0.05895	-6.82852	-1.7418	-15.6257
 313	1	9	0.044008	-5.42123	-1.43452	-14.5863
 314	1	9	0.064391	-6.52661	-2.75984	-14.2099
 315	1	1	0.130931	-3.12417	-1.99292	-14.5611
 316	1	2	-0.035623	-3.18626	-3.05286	-14.3246
 317	1	2	-0.458756	-2.32665	-3.59333	-13.3473
 318	1	1	0.207809	-1.59668	-2.95241	-12.8593
 319	1	2	0.31527	-2.39765	-4.95462	-13.0069
 320	1	2	-0.466224	-3.30623	-5.77099	-13.6899
 321	1	1	0.20556	-3.34936	-6.8305	-13.4554
 322	1	2	-0.031899	-4.17472	-5.23542	-14.6566
 323	1	1	0.127567	-4.88111	-5.90717	-15.1332
 324	1	2	0.005289	-4.1499	-3.85741	-14.9716
 325	1	1	0.144011	0.798241	-5.71829	-11.0264
 326	1	2	-0.407424	0.124851	-5.08918	-10.4502
 327	1	2	0.096878	0.598945	-4.42707	-9.30302
 328	1	1	0.131719	1.64327	-4.54062	-9.02157
 329	1	2	0.007579	-0.244191	-3.57377	-8.56389
 330	1	3	0.947259	0.527649	-2.53734	-7.27801
 331	1	2	-0.433296	-1.59083	-3.40948	-8.9791
 332	1	1	0.195208	-2.23898	-2.71955	-8.44248
 333	1	2	0.002203	-2.06021	-4.07062	-10.1359
 334	1	1	0.245959	-3.08439	-3.92387	-10.4746
 335	1	2	0.108341	-1.19373	-4.89082	-10.8892
 336	1	4	-0.012027	-1.5986	-5.51696	-12.0423
 337	1	5	-0.530873	0.0236952	-1.18176	-7.52641
 338	1	5	-0.5745	1.96831	-2.82346	-7.27504
 339	1	1	0.177717	1.7057	-3.97575	-5.01461
 340	1	2	-0.13906	0.728673	-3.61294	-4.69869
 341	1	2	-0.172291	0.361676	-3.69746	-3.34195
 342	1	1	0.137587	1.03879	-4.14344	-2.61887
 343	1	2	0.27179	-0.851872	-3.14183	-2.90287
 344	1	6	-0.297458	-1.16274	-3.10484	-1.56148
 345	1	1	0.184682	-1.98809	-1.90921	-5.88456
 346	1	2	-0.177057	-1.3543	-2.45597	-5.18902
 347	1	2	-0.065252	-0.115605	-2.96972	-5.6301
 348	1	1	0.164016	-1.02656	-3.85274	0.945418
 349	1	1	0.144303	0.490985	-2.94671	2.67132
 350	1	2	-0.207027	-0.351168	-3.03912	0.697467
 351	1	2	-0.150602	0.514283	-2.51207	1.67688
 352	1	2	0.201726	-0.331128	-2.54285	-0.613759
 353	1	2	0.015223	1.41389	-1.46508	1.36395
 354	1	7	0.123165	2.45779	-0.928386	2.37579
 355	1	2	-0.193552	0.535577	-1.48274	-0.929601
 356	1	2	-0.163782	1.40482	-0.960219	0.0445928
 357	1	1	0.167708	0.546908	-1.07065	-1.93417
 358	1	1	0.146296	2.08779	-0.162038	-0.236257
 359	1	2	-0.183938	-1.72314	-2.55322	-3.83241
 360	1	1	0.154545	-2.65166	-2.11263	-3.48189
 361	1	7	-0.193999	3.78125	-1.67542	2.05652
 362	1	7	-0.196778	2.09827	-1.24684	3.85212
 363	1	9	0.051577	3.62072	-2.76157	2.06355
 364	1	9	0.039353	4.56406	-1.46098	2.79437
 365	1	9	0.072794	4.15541	-1.40589	1.06036
 366	1	9	0.05895	2.13917	-2.32438	4.0561
 367	1	9	0.044008	1.09383	-0.884105	4.10353
 368	1	9	0.064391	2.80964	-0.763728	4.53403
 369	1	1	0.130931	0.457543	0.940823	2.13366
 370	1	2	-0.035623	1.43918	1.40977	2.15259
 371	1	2	-0.458756	1.53483	2.80761	2.02967
 372	1	1	0.207809	0.63545	3.40464	1.90491
 373	1	2	0.31527	2.78215	3.4424	2.04027
 374	1	2	-0.466224	3.93961	2.66513	2.18641
 375	1	1	0.20556	4.91351	3.14764	2.1714
 376	1	2	-0.031899	3.85156	1.26484	2.29898
 377	1	1	0.127567	4.77231	0.698541	2.39577
 378	1	2	0.005289	2.59743	0.610326	2.26726
 379	1	1	0.144011	3.58977	7.22108	1.27173
 380	1	2	-0.407424	3.73158	6.9637	2.31789
 381	1	2	0.096878	4.23965	7.92679	3.20705
 382	1	1	0.131719	4.48668	8.9188	2.83515
 383	1	2	0.007579	4.41282	7.61868	4.56876
 384	1	3	0.947259	5.07562	8.90836	5.66245
 385	1	2	-0.433296	4.06253	6.3289	5.03946
 386	1	1	0.195208	4.1724	6.09706	6.09801
 387	1	2	0.002203	3.55371	5.36454	4.14325
 388	1	1	0.245959	3.27042	4.37887	4.50764
 389	1	2	0.108341	3.39129	5.68001	2.77644
 390	1	4	-0.012027	2.85292	4.79877	1.87188
 391	1	5	-0.530873	4.24577	8.97695	6.87122
 392	1	5	-0.5745	5.32311	10.0925	4.83151
 393	1	1	0.177717	6.24603	8.30513	8.28328
 394	1	2	-0.13906	6.98659	8.05629	7.52456
 395	1	2	-0.172291	8.2386	7.54465	7.90802
 396	1	1	0.137587	8.4673	7.3909	8.95719
 397	1	2	0.27179	9.19626	7.22494	6.93301
 398	1	6	-0.297458	10.3963	6.67308	7.30063
 399	1	1	0.184682	7.45329	8.13904	4.13435
 400	1	2	-0.177057	7.66758	7.96196	5.18671
 401	1	2	-0.065252	6.69114	8.25768	6.16059
 402	1	1	0.164016	11.5119	5.06174	5.55659
 403	1	1	0.144303	11.5495	2.60078	5.67885
 404	1	2	-0.207027	11.0898	4.55614	6.41928
 405	1	2	-0.150602	11.1069	3.15199	6.50047
 406	1	2	0.201726	10.4916	5.31322	7.43334
 407	1	2	0.015223	10.5244	2.4823	7.60284
 408	1	7	0.123165	10.3827	0.945318	7.66507
 409	1	2	-0.193552	9.93327	4.66981	8.54473
 410	1	2	-0.163782	9.94472	3.2681	8.62475
 411	1	1	0.167708	9.46574	5.25589	9.32847
 412	1	1	0.146296	9.46142	2.79436	9.47337
 413	1	2	-0.183938	8.91516	7.43968	5.57478
 414	1	1	0.154545	9.6666	7.19719	4.82986
 415	1	7	-0.193999	10.9181	0.398825	9.02414
 416	1	7	-0.196778	11.2416	0.193108	6.60105
 417	1	9	0.051577	10.719	-0.677816	9.11275
 418	1	9	0.039353	10.4701	0.889265	9.89419
 419	1	9	0.072794	12.0028	0.542981	9.10594
 420	1	9	0.05895	11.0195	0.492932	5.5723
 421	1	9	0.044008	11.0674	-0.889303	6.66108
 422	1	9	0.064391	12.3133	0.364929	6.76557
 423	1	1	0.130931	8.93178	0.944067	5.30561
 424	1	2	-0.035623	8.31987	0.673817	6.16032
 425	1	2	-0.458756	6.96603	0.358577	5.94694
 426	1	1	0.207809	6.56314	0.354983	4.93934
 427	1	2	0.31527	6.13813	0.022053	7.02479
 428	1	2	-0.466224	6.66252	0.0753388	8.3247
 429	1	1	0.20556	6.02201	-0.143203	9.17378
 430	1	2	-0.031899	8.01744	0.369259	8.54058
 431	1	1	0.127567	8.37878	0.383433	9.56318
 432	1	2	0.005289	8.88342	0.632565	7.45578
 433	1	1	0.144011	5.8432	-2.74546	7.38171
 434	1	2	-0.407424	4.85735	-2.54409	7.79449
 435	1	2	0.096878	4.22556	-3.52149	8.58286
 436	1	1	0.131719	4.72186	-4.47254	8.76767
 437	1	2	0.007579	2.95543	-3.27794	9.1338
 438	1	3	0.947259	2.20925	-4.60589	10.1137
 439	1	2	-0.433296	2.31455	-2.03585	8.8979
 440	1	1	0.195208	1.33351	-1.83812	9.32659
 441	1	2	0.002203	2.95087	-1.06168	8.10269
 442	1	1	0.245959	2.47291	-0.102506	7.91795
 443	1	2	0.108341	4.22056	-1.31153	7.55213
 444	1	4	-0.012027	4.83547	-0.341006	6.80399
 445	1	5	-0.530873	1.24319	-5.30116	9.256
 446	1	5	-0.5745	3.32259	-5.33342	10.734
 447	1	1	0.177717	3.06008	-3.03054	12.4155
 448	1	2	-0.13906	1.97231	-3.07102	12.431
 449	1	2	-0.172291	1.25815	-2.45302	13.4717
 450	1	1	0.137587	1.78326	-1.92449	14.2616
 451	1	2	0.27179	-0.141164	-2.53302	13.5119
 452	1	6	-0.297458	-0.79812	-1.91748	14.5485
 453	1	1	0.184682	-0.662959	-4.35081	10.657
 454	1	2	-0.177057	-0.126257	-3.81588	11.4403
 455	1	2	-0.065252	1.28202	-3.76138	11.4158
 456	1	1	0.164016	-2.7205	-0.287537	15.1886
 457	1	1	0.144303	-4.92793	-0.925875	16.1268
 458	1	2	-0.207027	-2.96664	-1.33408	15.3413
 459	1	2	-0.150602	-4.21641	-1.704	15.8631
 460	1	2	0.201726	-2.01965	-2.31395	15.0288
 461	1	2	0.015223	-4.54065	-3.06194	16.0774
 462	1	7	0.123165	-5.89364	-3.41113	16.7354
 463	1	2	-0.193552	-2.31858	-3.66859	15.2426
 464	1	2	-0.163782	-3.57289	-4.04184	15.7525
 465	1	1	0.167708	-1.57449	-4.42926	15.0236
 466	1	1	0.146296	-3.76438	-5.09804	15.9103
 467	1	2	-0.183938	-0.835719	-3.20308	12.4871
 468	1	1	0.154545	-1.92059	-3.25531	12.5064
 469	1	7	-0.193999	-6.14334	-4.93977	16.8269
 470	1	7	-0.196778	-7.02226	-2.82011	15.8412
 471	1	9	0.051577	-6.12552	-5.40157	15.8309
 472	1	9	0.039353	-7.12107	-5.15263	17.2769
 473	1	9	0.072794	-5.38626	-5.43017	17.4516
 474	1	9	0.05895	-8.00035	-3.25469	16.0835
 475	1	9	0.044008	-6.82499	-3.02425	14.7809
 476	1	9	0.064391	-7.10189	-1.73187	15.9568
 477	1	1	0.130931	-3.84252	-3.39957	18.574
 478	1	2	-0.035623	-4.73304	-2.90734	18.9584
 479	1	2	-0.458756	-4.68776	-2.32128	20.2344
 480	1	1	0.207809	-3.7733	-2.36476	20.8178
 481	1	2	0.31527	-5.8031	-1.64294	20.7428
 482	1	2	-0.466224	-6.98704	-1.6158	19.9942
 483	1	1	0.20556	-7.86144	-1.11161	20.392
 484	1	2	-0.031899	-7.04198	-2.21196	18.7222
 485	1	1	0.127567	-7.97286	-2.16438	18.1656
 486	1	2	0.005289	-5.90161	-2.83371	18.1672
 487	1	1	0.144011	-3.37913	-0.0662056	21.1417
 488	1	2	-0.407424	-4.04979	0.671197	21.5708
 489	1	2	0.096878	-3.62947	2.00864	21.6644
 490	1	1	0.131719	-2.6354	2.29002	21.3227
 491	1	2	0.007579	-4.48116	2.97825	22.2182
 492	1	3	0.947259	-3.82832	4.64772	22.439
 493	1	2	-0.433296	-5.76564	2.60606	22.6827
 494	1	1	0.195208	-6.42315	3.36388	23.1087
 495	1	2	0.002203	-6.17945	1.26388	22.5919
 496	1	1	0.245959	-7.16253	0.967426	22.949
 497	1	2	0.108341	-5.32567	0.295142	22.0333
 498	1	4	-0.012027	-5.7471	-1.00473	21.95
 499	1	5	-0.530873	-2.79735	4.92018	21.4301
 500	1	5	-0.5745	-4.97027	5.54209	22.666
 501	1	1	0.177717	-1.03826	5.0291	23.3258
 502	1	2	-0.13906	-1.62523	4.69596	24.1808
 503	1	2	-0.172291	-1.02164	4.5742	25.4457
 504	1	1	0.137587	0.0256692	4.8261	25.5834
 505	1	2	0.27179	-1.79015	4.18674	26.5539
 506	1	6	-0.297458	-1.26149	4.28443	27.814
 507	1	1	0.184682	-4.82372	3.81866	25.0317
 508	1	2	-0.177057	-3.75891	4.01185	25.1434
 509	1	2	-0.065252	-3.00445	4.442	24.0338
 510	1	1	0.164016	-0.418695	4.54133	30.2689
 511	1	1	0.144303	-0.974423	6.38918	31.8326
 512	1	2	-0.207027	-1.07336	5.34671	29.9494
 513	1	2	-0.150602	-1.38834	6.39988	30.8278
 514	1	2	0.201726	-1.59996	5.32664	28.6522
 515	1	2	0.015223	-2.24641	7.4511	30.4302
 516	1	7	0.123165	-2.61278	8.56336	31.4415
 517	1	2	-0.193552	-2.45098	6.37176	28.2425
 518	1	2	-0.163782	-2.77882	7.4134	29.1229
 519	1	1	0.167708	-2.8691	6.39113	27.2409
 520	1	1	0.146296	-3.45332	8.18448	28.7656
 521	1	2	-0.183938	-3.14904	3.87316	26.3991
 522	1	1	0.154545	-3.73591	3.59078	27.2678
 523	1	7	-0.193999	-3.52727	9.66168	30.8343
 524	1	7	-0.196778	-1.28829	9.25563	31.872
 525	1	9	0.051577	-4.50115	9.24615	30.5446
 526	1	9	0.039353	-3.06775	10.1234	29.9507
 527	1	9	0.072794	-3.71934	10.4607	31.5614
 528	1	9	0.05895	-1.46991	10.1894	32.4178
 529	1	9	0.044008	-0.680831	9.5087	30.9934
 530	1	9	0.064391	-0.687802	8.60251	32.5171
 531	1	1	0.130931	-4.20342	6.284	31.5281
 532	1	2	-0.035623	-4.1328	6.77822	32.4938
 533	1	2	-0.458756	-4.80738	6.21163	33.5879
 534	1	1	0.207809	-5.36426	5.28917	33.4557
 535	1	2	0.31527	-4.74349	6.81336	34.8519
 536	1	2	-0.466224	-4.01485	8.00127	35.003
 537	1	1	0.20556	-3.96374	8.47801	35.9773
 538	1	2	-0.031899	-3.34357	8.57686	33.9106
 539	1	1	0.127567	-2.8032	9.50713	34.0598
 540	1	2	0.005289	-3.3653	7.95568	32.6435
 541	1	1	0.144011	-5.58797	3.63929	35.6069
 542	1	2	-0.407424	-6.52244	4.16277	35.7939
 543	1	2	0.096878	-7.70764	3.42971	36.0132
 544	1	1	0.131719	-7.67183	2.34248	36.013
 545	1	2	0.007579	-8.91009	4.08916	36.3403
 546	1	3	0.947259	-10.2844	3.09965	37.0168
 547	1	2	-0.433296	-8.91959	5.50486	36.4108
 548	1	1	0.195208	-9.82158	6.01858	36.7426
 549	1	2	0.002203	-7.72999	6.23258	36.2102
 550	1	1	0.245959	-7.71496	7.3112	36.3521
 551	1	2	0.108341	-6.52738	5.56387	35.9236
 552	1	4	-0.012027	-5.35175	6.26648	35.9487
 553	1	5	-0.530873	-9.68427	1.9527	37.7106
 554	1	5	-0.5745	-11.1448	4.02657	37.7607
 555	1	1	0.177717	-11.2714	4.01453	34.2936
 556	1	2	-0.13906	-11.6875	3.03202	34.5078
 557	1	2	-0.172291	-12.5873	2.42625	33.5913
 558	1	1	0.137587	-12.8471	2.93694	32.6694
 559	1	2	0.27179	-13.1763	1.17603	33.8841
 560	1	6	-0.297458	-14.0928	0.524697	33.0706
 561	1	1	0.184682	-11.7485	0.648796	36.9522
 562	1	2	-0.177057	-11.9596	1.14079	36.0027
 563	1	2	-0.065252	-11.3496	2.37891	35.7164
 564	1	1	0.164016	-16.0208	2.10434	32.2004
 565	1	1	0.144303	-16.6042	2.53108	29.8449
 566	1	2	-0.207027	-15.4643	1.61115	31.4087
 567	1	2	-0.150602	-15.8046	1.82871	30.0568
 568	1	2	0.201726	-14.3941	0.771985	31.7474
 569	1	2	0.015223	-15.0965	1.19163	29.0044
 570	1	7	0.123165	-15.2476	1.62059	27.5088
 571	1	2	-0.193552	-13.7514	0.0538877	30.728
 572	1	2	-0.163782	-14.103	0.254709	29.3763
 573	1	1	0.167708	-12.9708	-0.653743	30.9897
 574	1	1	0.146296	-13.5574	-0.28636	28.6085
 575	1	2	-0.183938	-12.863	0.55302	35.1009
 576	1	1	0.154545	-13.3395	-0.390191	35.3502
 577	1	7	-0.193999	-13.8078	1.83092	26.9491
 578	1	7	-0.196778	-15.9526	3.00337	27.3996
 579	1	9	0.051577	-13.3671	0.87974	26.6251
 580	1	9	0.039353	-13.1499	2.26616	27.713
 581	1	9	0.072794	-13.7889	2.51226	26.09
 582	1	9	0.05895	-15.9258	3.39025	26.3731
 583	1	9	0.044008	-15.4662	3.74926	28.0418
 584	1	9	0.064391	-17.0103	2.93301	27.6828
 585	1	1	0.130931	-16.8958	-0.585619	28.1561
 586	1	2	-0.035623	-16.8461	-0.39891	27.0858
 587	1	2	-0.458756	-17.6307	-1.1838	26.2069
 588	1	1	0.207809	-18.2596	-1.96931	26.6148
 589	1	2	0.31527	-17.6369	-0.953715	24.8166
 590	1	2	-0.466224	-16.7705	0.0306233	24.318
 591	1	1	0.20556	-16.7124	0.203142	23.2477
 592	1	2	-0.031899	-15.9949	0.820768	25.1869
 593	1	1	0.127567	-15.379	1.60398	24.7554
 594	1	2	0.005289	-16.0278	0.638936	26.5898
 595	1	1	0.144011	-19.1079	0.698477	22.9527
 596	1	2	-0.407424	-19.1822	-0.139095	22.2637
 597	1	2	0.096878	-19.5699	0.100179	20.9263
 598	1	1	0.131719	-19.7477	1.1233	20.6026
 599	1	2	0.007579	-19.6778	-0.95393	19.9944
 600	1	3	0.947259	-19.9225	-0.51891	18.2267
 601	1	2	-0.433296	-19.3775	-2.26883	20.4343
 602	1	1	0.195208	-19.3858	-3.0878	19.7153
 603	1	2	0.002203	-18.9752	-2.50108	21.7717
 604	1	1	0.245959	-18.7185	-3.50732	22.0956
 605	1	2	0.108341	-18.851	-1.4408	22.6942
 606	1	4	-0.012027	-18.4442	-1.72042	23.9909
 607	1	5	-0.530873	-19.8449	0.941237	18.1048
 608	1	5	-0.5745	-18.9861	-1.3351	17.4464
 609	1	1	0.177717	-22.3841	-1.93002	19.3137
 610	1	2	-0.13906	-22.5645	-1.64005	18.2821
 611	1	2	-0.172291	-23.7945	-1.96525	17.6657
 612	1	1	0.137587	-24.5514	-2.51918	18.2113
 613	1	2	0.27179	-24.0511	-1.61469	16.3281
 614	1	6	-0.297458	-25.2021	-2.07219	15.7196
 615	1	1	0.184682	-21.0442	-0.138582	15.6201
 616	1	2	-0.177057	-21.8235	-0.634048	16.1995
 617	1	2	-0.065252	-21.5642	-0.965453	17.55
 618	1	1	0.164016	-25.5014	0.320007	14.5333
 619	1	1	0.144303	-27.6666	1.42133	14.0632
 620	1	2	-0.207027	-26.4221	-0.140615	14.8739
 621	1	2	-0.150602	-27.6603	0.476782	14.5997
 622	1	2	0.201726	-26.3781	-1.36787	15.5524
 623	1	2	0.015223	-28.8858	-0.108207	14.9963
 624	1	7	0.123165	-30.2218	0.631206	14.6891
 625	1	2	-0.193552	-27.5838	-1.96164	15.956
 626	1	2	-0.163782	-28.8226	-1.34128	15.6907
 627	1	1	0.167708	-27.552	-2.91844	16.4684
 628	1	1	0.146296	-29.7268	-1.8403	16.0252
 629	1	2	-0.183938	-23.0513	-0.96241	15.5883
 630	1	1	0.154545	-23.2143	-0.742087	14.5369
 631	1	7	-0.193999	-30.1112	2.03683	15.3485
 632	1	7	-0.196778	-31.4596	-0.0537712	15.3294
 633	1	9	0.051577	-31.0769	2.55589	15.3809
 634	1	9	0.039353	-29.4072	2.68027	14.806
 635	1	9	0.072794	-29.7542	1.95058	16.3826
 636	1	9	0.05895	-31.331	-0.178284	16.4124
 637	1	9	0.044008	-31.6483	-1.0384	14.8837
 638	1	9	0.064391	-32.3626	0.551591	15.1751
 639	1	1	0.130931	-29.6933	-1.23994	12.7141
 640	1	2	-0.035623	-30.1104	-0.324951	12.3007
 641	1	2	-0.458756	-30.2505	-0.204201	10.9034
 642	1	1	0.207809	-29.9394	-1.01692	10.2542
 643	1	2	0.31527	-30.7585	0.972852	10.3343
 644	1	2	-0.466224	-31.2022	1.99508	11.182
 645	1	1	0.20556	-31.6271	2.8965	10.7494
 646	1	2	-0.031899	-31.0835	1.87123	12.5787
 647	1	1	0.127567	-31.4481	2.68472	13.1978