

################################################################################
##################################    Init    ##################################
################################################################################
units           real
atom_style      full
pair_style      lj/cut/coul/long 12.0  12.0
kspace_style    pppm 1e-4
bond_style      harmonic
angle_style     harmonic
dihedral_style  fourier
improper_style  cvff
special_bonds   amber
pair_modify     mix arithmetic
read_data       temp.lmps
  orthogonal box = (-97.2175 -97.2175 -97.2175) to (97.2175 97.2175 97.2175)
  1 by 1 by 1 MPI processor grid
  reading atoms ...
  108 atoms
  reading velocities ...
  108 velocities
  scanning bonds ...
  3 = max bonds/atom
  scanning angles ...
  6 = max angles/atom
  scanning dihedrals ...
  24 = max dihedrals/atom
  scanning impropers ...
  1 = max impropers/atom
  reading bonds ...
  115 bonds
  reading angles ...
  192 angles
  reading dihedrals ...
  284 dihedrals
  reading impropers ...
  36 impropers
  4 = max # of 1-2 neighbors
  10 = max # of 1-3 neighbors
  19 = max # of 1-4 neighbors
  22 = max # of special neighbors
  special bonds CPU = 0.000290155 secs
  read_data CPU = 0.00469398 secs
################################################################################

timestep        1
fix             pysimm_md all nve/limit 0.1
run             2000
PPPM initialization ...
  using 12-bit tables for long-range coulomb (../kspace.cpp:332)
  G vector (1/distance) = 0.0638154
  grid = 10 10 10
  stencil order = 5
  estimated absolute RMS force accuracy = 0.0368018
  estimated relative force accuracy = 0.000110828
  using double precision KISS FFT
  3d grid and FFT values/proc = 3375 1000
Neighbor list info ...
  update every 1 steps, delay 10 steps, check yes
  max neighbors/atom: 2000, page size: 100000
  master list distance cutoff = 14
  ghost atom cutoff = 14
  binsize = 7, bins = 28 28 28
  1 neighbor lists, perpetual/occasional/extra = 1 0 0
  (1) pair lj/cut/coul/long, perpetual
      attributes: half, newton on
      pair build: half/bin/newton
      stencil: half/bin/3d/newton
      bin: standard
Per MPI rank memory allocation (min/avg/max) = 17.75 | 17.75 | 17.75 Mbytes
Step Temp E_pair E_mol TotEng Press 
       0    16.649641    134.40465    151.10957    290.82457   -1.3225855 
    2000    175.28063    136.21069    100.94626    293.06212  0.053828803 
Loop time of 0.893958 on 1 procs for 2000 steps with 108 atoms

Performance: 193.298 ns/day, 0.124 hours/ns, 2237.241 timesteps/s
99.2% CPU use with 1 MPI tasks x no OpenMP threads

MPI task timing breakdown:
Section |  min time  |  avg time  |  max time  |%varavg| %total
---------------------------------------------------------------
Pair    | 0.16434    | 0.16434    | 0.16434    |   0.0 | 18.38
Bond    | 0.095762   | 0.095762   | 0.095762   |   0.0 | 10.71
Kspace  | 0.62034    | 0.62034    | 0.62034    |   0.0 | 69.39
Neigh   | 0.0034268  | 0.0034268  | 0.0034268  |   0.0 |  0.38
Comm    | 0.0010386  | 0.0010386  | 0.0010386  |   0.0 |  0.12
Output  | 3.7909e-05 | 3.7909e-05 | 3.7909e-05 |   0.0 |  0.00
Modify  | 0.0043762  | 0.0043762  | 0.0043762  |   0.0 |  0.49
Other   |            | 0.004638   |            |       |  0.52

Nlocal:    108 ave 108 max 108 min
Histogram: 1 0 0 0 0 0 0 0 0 0
Nghost:    1 ave 1 max 1 min
Histogram: 1 0 0 0 0 0 0 0 0 0
Neighs:    3339 ave 3339 max 3339 min
Histogram: 1 0 0 0 0 0 0 0 0 0

Total # of neighbors = 3339
Ave neighs/atom = 30.9167
Ave special neighs/atom = 10.5185
Neighbor list builds = 23
Dangerous builds = 0
unfix pysimm_md
min_style cg
minimize 0.001 0.001 10000 100000
WARNING: Using 'neigh_modify every 1 delay 0 check yes' setting during minimization (../min.cpp:190)
PPPM initialization ...
  using 12-bit tables for long-range coulomb (../kspace.cpp:332)
  G vector (1/distance) = 0.0638154
  grid = 10 10 10
  stencil order = 5
  estimated absolute RMS force accuracy = 0.0368018
  estimated relative force accuracy = 0.000110828
  using double precision KISS FFT
  3d grid and FFT values/proc = 3375 1000
Per MPI rank memory allocation (min/avg/max) = 18.87 | 18.87 | 18.87 Mbytes
Step Temp E_pair E_mol TotEng Press 
    2000    175.28063    136.21069    100.94626    293.06212  0.053828803 
    2016    175.28063    133.16508    53.468007    242.53826  0.092251162 
Loop time of 0.0163751 on 1 procs for 16 steps with 108 atoms

103.8% CPU use with 1 MPI tasks x no OpenMP threads

Minimization stats:
  Stopping criterion = energy tolerance
  Energy initial, next-to-last, final = 
         237.156946238      186.735727988      186.633084047
  Force two-norm initial, final = 240.202 16.6826
  Force max component initial, final = 94.5827 4.14981
  Final line search alpha, max atom move = 0.011723 0.0486483
  Iterations, force evaluations = 16 32

MPI task timing breakdown:
Section |  min time  |  avg time  |  max time  |%varavg| %total
---------------------------------------------------------------
Pair    | 0.0043921  | 0.0043921  | 0.0043921  |   0.0 | 26.82
Bond    | 0.0018415  | 0.0018415  | 0.0018415  |   0.0 | 11.25
Kspace  | 0.0099785  | 0.0099785  | 0.0099785  |   0.0 | 60.94
Neigh   | 0          | 0          | 0          |   0.0 |  0.00
Comm    | 9.5367e-06 | 9.5367e-06 | 9.5367e-06 |   0.0 |  0.06
Output  | 0          | 0          | 0          |   0.0 |  0.00
Modify  | 0          | 0          | 0          |   0.0 |  0.00
Other   |            | 0.0001533  |            |       |  0.94

Nlocal:    108 ave 108 max 108 min
Histogram: 1 0 0 0 0 0 0 0 0 0
Nghost:    1 ave 1 max 1 min
Histogram: 1 0 0 0 0 0 0 0 0 0
Neighs:    3337 ave 3337 max 3337 min
Histogram: 1 0 0 0 0 0 0 0 0 0

Total # of neighbors = 3337
Ave neighs/atom = 30.8981
Ave special neighs/atom = 10.5185
Neighbor list builds = 0
Dangerous builds = 0
write_dump all custom pysimm.dump.tmp id q x y z vx vy vz
quit


################################################################################
##################################    Init    ##################################
################################################################################
units           real
atom_style      full
pair_style      lj/cut/coul/long 12.0  12.0
kspace_style    pppm 1e-4
bond_style      harmonic
angle_style     harmonic
dihedral_style  fourier
improper_style  cvff
special_bonds   amber
pair_modify     mix arithmetic
read_data       temp.lmps
  orthogonal box = (-97.2175 -97.2175 -97.2175) to (97.2175 97.2175 97.2175)
  1 by 1 by 1 MPI processor grid
  reading atoms ...
  162 atoms
  reading velocities ...
  162 velocities
  scanning bonds ...
  3 = max bonds/atom
  scanning angles ...
  6 = max angles/atom
  scanning dihedrals ...
  24 = max dihedrals/atom
  scanning impropers ...
  1 = max impropers/atom
  reading bonds ...
  173 bonds
  reading angles ...
  289 angles
  reading dihedrals ...
  430 dihedrals
  reading impropers ...
  54 impropers
  4 = max # of 1-2 neighbors
  10 = max # of 1-3 neighbors
  19 = max # of 1-4 neighbors
  22 = max # of special neighbors
  special bonds CPU = 0.000319958 secs
  read_data CPU = 0.00502586 secs
################################################################################

timestep        1
fix             pysimm_md all nve/limit 0.1
run             2000
PPPM initialization ...
WARNING: System is not charge neutral, net charge = -1.2e-05 (../kspace.cpp:313)
  using 12-bit tables for long-range coulomb (../kspace.cpp:332)
  G vector (1/distance) = 0.0741226
  grid = 12 12 12
  stencil order = 5
  estimated absolute RMS force accuracy = 0.0367276
  estimated relative force accuracy = 0.000110604
  using double precision KISS FFT
  3d grid and FFT values/proc = 4913 1728
Neighbor list info ...
  update every 1 steps, delay 10 steps, check yes
  max neighbors/atom: 2000, page size: 100000
  master list distance cutoff = 14
  ghost atom cutoff = 14
  binsize = 7, bins = 28 28 28
  1 neighbor lists, perpetual/occasional/extra = 1 0 0
  (1) pair lj/cut/coul/long, perpetual
      attributes: half, newton on
      pair build: half/bin/newton
      stencil: half/bin/3d/newton
      bin: standard
Per MPI rank memory allocation (min/avg/max) = 17.88 | 17.88 | 17.88 Mbytes
Step Temp E_pair E_mol TotEng Press 
       0    122.02354    198.81558    183.72687    441.10283   -1.8414145 
    2000    171.70578      199.759    154.83674    436.99913 -0.051547677 
Loop time of 1.33048 on 1 procs for 2000 steps with 162 atoms

Performance: 129.878 ns/day, 0.185 hours/ns, 1503.216 timesteps/s
100.0% CPU use with 1 MPI tasks x no OpenMP threads

MPI task timing breakdown:
Section |  min time  |  avg time  |  max time  |%varavg| %total
---------------------------------------------------------------
Pair    | 0.25116    | 0.25116    | 0.25116    |   0.0 | 18.88
Bond    | 0.14077    | 0.14077    | 0.14077    |   0.0 | 10.58
Kspace  | 0.92149    | 0.92149    | 0.92149    |   0.0 | 69.26
Neigh   | 0.0048323  | 0.0048323  | 0.0048323  |   0.0 |  0.36
Comm    | 0.0015764  | 0.0015764  | 0.0015764  |   0.0 |  0.12
Output  | 2.5988e-05 | 2.5988e-05 | 2.5988e-05 |   0.0 |  0.00
Modify  | 0.0058808  | 0.0058808  | 0.0058808  |   0.0 |  0.44
Other   |            | 0.004749   |            |       |  0.36

Nlocal:    162 ave 162 max 162 min
Histogram: 1 0 0 0 0 0 0 0 0 0
Nghost:    51 ave 51 max 51 min
Histogram: 1 0 0 0 0 0 0 0 0 0
Neighs:    5584 ave 5584 max 5584 min
Histogram: 1 0 0 0 0 0 0 0 0 0

Total # of neighbors = 5584
Ave neighs/atom = 34.4691
Ave special neighs/atom = 10.5926
Neighbor list builds = 21
Dangerous builds = 0
unfix pysimm_md
min_style cg
minimize 0.001 0.001 10000 100000
WARNING: Using 'neigh_modify every 1 delay 0 check yes' setting during minimization (../min.cpp:190)
PPPM initialization ...
  using 12-bit tables for long-range coulomb (../kspace.cpp:332)
  G vector (1/distance) = 0.0741226
  grid = 12 12 12
  stencil order = 5
  estimated absolute RMS force accuracy = 0.0367276
  estimated relative force accuracy = 0.000110604
  using double precision KISS FFT
  3d grid and FFT values/proc = 4913 1728
Per MPI rank memory allocation (min/avg/max) = 19 | 19 | 19 Mbytes
Step Temp E_pair E_mol TotEng Press 
    2000    171.70578      199.759    154.83674    436.99913 -0.051547677 
    2017    171.70578    200.05095     80.81937    363.27371   0.89318779 
Loop time of 0.02617 on 1 procs for 17 steps with 162 atoms

99.3% CPU use with 1 MPI tasks x no OpenMP threads

Minimization stats:
  Stopping criterion = energy tolerance
  Energy initial, next-to-last, final = 
         354.595738793      281.008890691       280.87031521
  Force two-norm initial, final = 332.029 22.3461
  Force max component initial, final = 71.0838 3.55705
  Final line search alpha, max atom move = 0.0107662 0.0382958
  Iterations, force evaluations = 17 34

MPI task timing breakdown:
Section |  min time  |  avg time  |  max time  |%varavg| %total
---------------------------------------------------------------
Pair    | 0.0072951  | 0.0072951  | 0.0072951  |   0.0 | 27.88
Bond    | 0.0026784  | 0.0026784  | 0.0026784  |   0.0 | 10.23
Kspace  | 0.015974   | 0.015974   | 0.015974   |   0.0 | 61.04
Neigh   | 0          | 0          | 0          |   0.0 |  0.00
Comm    | 3.3855e-05 | 3.3855e-05 | 3.3855e-05 |   0.0 |  0.13
Output  | 0          | 0          | 0          |   0.0 |  0.00
Modify  | 0          | 0          | 0          |   0.0 |  0.00
Other   |            | 0.0001886  |            |       |  0.72

Nlocal:    162 ave 162 max 162 min
Histogram: 1 0 0 0 0 0 0 0 0 0
Nghost:    49 ave 49 max 49 min
Histogram: 1 0 0 0 0 0 0 0 0 0
Neighs:    5601 ave 5601 max 5601 min
Histogram: 1 0 0 0 0 0 0 0 0 0

Total # of neighbors = 5601
Ave neighs/atom = 34.5741
Ave special neighs/atom = 10.5926
Neighbor list builds = 0
Dangerous builds = 0
write_dump all custom pysimm.dump.tmp id q x y z vx vy vz
quit


################################################################################
##################################    Init    ##################################
################################################################################
units           real
atom_style      full
pair_style      lj/cut/coul/long 12.0  12.0
kspace_style    pppm 1e-4
bond_style      harmonic
angle_style     harmonic
dihedral_style  fourier
improper_style  cvff
special_bonds   amber
pair_modify     mix arithmetic
read_data       temp.lmps
  orthogonal box = (-97.2175 -97.2175 -97.2175) to (97.2175 97.2175 97.2175)
  1 by 1 by 1 MPI processor grid
  reading atoms ...
  216 atoms
  reading velocities ...
  216 velocities
  scanning bonds ...
  3 = max bonds/atom
  scanning angles ...
  6 = max angles/atom
  scanning dihedrals ...
  24 = max dihedrals/atom
  scanning impropers ...
  1 = max impropers/atom
  reading bonds ...
  231 bonds
  reading angles ...
  386 angles
  reading dihedrals ...
  576 dihedrals
  reading impropers ...
  72 impropers
  4 = max # of 1-2 neighbors
  10 = max # of 1-3 neighbors
  19 = max # of 1-4 neighbors
  22 = max # of special neighbors
  special bonds CPU = 0.000405788 secs
  read_data CPU = 0.00603104 secs
################################################################################

timestep        1
fix             pysimm_md all nve/limit 0.1
run             2000
PPPM initialization ...
WARNING: System is not charge neutral, net charge = -1.6e-05 (../kspace.cpp:313)
  using 12-bit tables for long-range coulomb (../kspace.cpp:332)
  G vector (1/distance) = 0.0882362
  grid = 15 15 15
  stencil order = 5
  estimated absolute RMS force accuracy = 0.03049
  estimated relative force accuracy = 9.18197e-05
  using double precision KISS FFT
  3d grid and FFT values/proc = 8000 3375
Neighbor list info ...
  update every 1 steps, delay 10 steps, check yes
  max neighbors/atom: 2000, page size: 100000
  master list distance cutoff = 14
  ghost atom cutoff = 14
  binsize = 7, bins = 28 28 28
  1 neighbor lists, perpetual/occasional/extra = 1 0 0
  (1) pair lj/cut/coul/long, perpetual
      attributes: half, newton on
      pair build: half/bin/newton
      stencil: half/bin/3d/newton
      bin: standard
Per MPI rank memory allocation (min/avg/max) = 18.14 | 18.14 | 18.14 Mbytes
Step Temp E_pair E_mol TotEng Press 
       0    132.72276    265.45092    213.15299     563.6625  -0.92225881 
    2000     333.8086    273.15692    260.84761    747.93383    2.1124542 
Loop time of 2.13171 on 1 procs for 2000 steps with 216 atoms

Performance: 81.062 ns/day, 0.296 hours/ns, 938.213 timesteps/s
99.6% CPU use with 1 MPI tasks x no OpenMP threads

MPI task timing breakdown:
Section |  min time  |  avg time  |  max time  |%varavg| %total
---------------------------------------------------------------
Pair    | 0.35097    | 0.35097    | 0.35097    |   0.0 | 16.46
Bond    | 0.18009    | 0.18009    | 0.18009    |   0.0 |  8.45
Kspace  | 1.5748     | 1.5748     | 1.5748     |   0.0 | 73.87
Neigh   | 0.010856   | 0.010856   | 0.010856   |   0.0 |  0.51
Comm    | 0.0022864  | 0.0022864  | 0.0022864  |   0.0 |  0.11
Output  | 2.3842e-05 | 2.3842e-05 | 2.3842e-05 |   0.0 |  0.00
Modify  | 0.0074229  | 0.0074229  | 0.0074229  |   0.0 |  0.35
Other   |            | 0.005284   |            |       |  0.25

Nlocal:    216 ave 216 max 216 min
Histogram: 1 0 0 0 0 0 0 0 0 0
Nghost:    103 ave 103 max 103 min
Histogram: 1 0 0 0 0 0 0 0 0 0
Neighs:    7721 ave 7721 max 7721 min
Histogram: 1 0 0 0 0 0 0 0 0 0

Total # of neighbors = 7721
Ave neighs/atom = 35.7454
Ave special neighs/atom = 10.6296
Neighbor list builds = 36
Dangerous builds = 0
unfix pysimm_md
min_style cg
minimize 0.001 0.001 10000 100000
WARNING: Using 'neigh_modify every 1 delay 0 check yes' setting during minimization (../min.cpp:190)
PPPM initialization ...
  using 12-bit tables for long-range coulomb (../kspace.cpp:332)
  G vector (1/distance) = 0.0882362
  grid = 15 15 15
  stencil order = 5
  estimated absolute RMS force accuracy = 0.03049
  estimated relative force accuracy = 9.18197e-05
  using double precision KISS FFT
  3d grid and FFT values/proc = 8000 3375
Per MPI rank memory allocation (min/avg/max) = 19.27 | 19.27 | 19.27 Mbytes
Step Temp E_pair E_mol TotEng Press 
    2000     333.8086    273.15692    260.84761    747.93383    2.1124542 
    2016     333.8086    263.22176    115.23775    592.38881    1.0879478 
Loop time of 0.0432138 on 1 procs for 16 steps with 216 atoms

97.2% CPU use with 1 MPI tasks x no OpenMP threads

Minimization stats:
  Stopping criterion = energy tolerance
  Energy initial, next-to-last, final = 
         534.004529368      378.794294578      378.459505018
  Force two-norm initial, final = 523.755 32.3594
  Force max component initial, final = 130.933 5.5116
  Final line search alpha, max atom move = 0.0069951 0.0385542
  Iterations, force evaluations = 16 32

MPI task timing breakdown:
Section |  min time  |  avg time  |  max time  |%varavg| %total
---------------------------------------------------------------
Pair    | 0.010087   | 0.010087   | 0.010087   |   0.0 | 23.34
Bond    | 0.0034552  | 0.0034552  | 0.0034552  |   0.0 |  8.00
Kspace  | 0.029395   | 0.029395   | 0.029395   |   0.0 | 68.02
Neigh   | 0          | 0          | 0          |   0.0 |  0.00
Comm    | 3.6001e-05 | 3.6001e-05 | 3.6001e-05 |   0.0 |  0.08
Output  | 0          | 0          | 0          |   0.0 |  0.00
Modify  | 0          | 0          | 0          |   0.0 |  0.00
Other   |            | 0.0002413  |            |       |  0.56

Nlocal:    216 ave 216 max 216 min
Histogram: 1 0 0 0 0 0 0 0 0 0
Nghost:    103 ave 103 max 103 min
Histogram: 1 0 0 0 0 0 0 0 0 0
Neighs:    7760 ave 7760 max 7760 min
Histogram: 1 0 0 0 0 0 0 0 0 0

Total # of neighbors = 7760
Ave neighs/atom = 35.9259
Ave special neighs/atom = 10.6296
Neighbor list builds = 0
Dangerous builds = 0
write_dump all custom pysimm.dump.tmp id q x y z vx vy vz
quit


################################################################################
##################################    Init    ##################################
################################################################################
units           real
atom_style      full
pair_style      lj/cut/coul/long 12.0  12.0
kspace_style    pppm 1e-4
bond_style      harmonic
angle_style     harmonic
dihedral_style  fourier
improper_style  cvff
special_bonds   amber
pair_modify     mix arithmetic
read_data       temp.lmps
  orthogonal box = (-97.2175 -97.2175 -97.2175) to (97.2175 97.2175 97.2175)
  1 by 1 by 1 MPI processor grid
  reading atoms ...
  270 atoms
  reading velocities ...
  270 velocities
  scanning bonds ...
  3 = max bonds/atom
  scanning angles ...
  6 = max angles/atom
  scanning dihedrals ...
  24 = max dihedrals/atom
  scanning impropers ...
  1 = max impropers/atom
  reading bonds ...
  289 bonds
  reading angles ...
  483 angles
  reading dihedrals ...
  722 dihedrals
  reading impropers ...
  90 impropers
  4 = max # of 1-2 neighbors
  10 = max # of 1-3 neighbors
  19 = max # of 1-4 neighbors
  22 = max # of special neighbors
  special bonds CPU = 0.000381947 secs
  read_data CPU = 0.00590897 secs
################################################################################

timestep        1
fix             pysimm_md all nve/limit 0.1
run             2000
PPPM initialization ...
WARNING: System is not charge neutral, net charge = -2e-05 (../kspace.cpp:313)
  using 12-bit tables for long-range coulomb (../kspace.cpp:332)
  G vector (1/distance) = 0.0882364
  grid = 15 15 15
  stencil order = 5
  estimated absolute RMS force accuracy = 0.0340892
  estimated relative force accuracy = 0.000102658
  using double precision KISS FFT
  3d grid and FFT values/proc = 8000 3375
Neighbor list info ...
  update every 1 steps, delay 10 steps, check yes
  max neighbors/atom: 2000, page size: 100000
  master list distance cutoff = 14
  ghost atom cutoff = 14
  binsize = 7, bins = 28 28 28
  1 neighbor lists, perpetual/occasional/extra = 1 0 0
  (1) pair lj/cut/coul/long, perpetual
      attributes: half, newton on
      pair build: half/bin/newton
      stencil: half/bin/3d/newton
      bin: standard
Per MPI rank memory allocation (min/avg/max) = 18.15 | 18.15 | 18.15 Mbytes
Step Temp E_pair E_mol TotEng Press 
       0    270.11003    415.70344    302.76557    935.05346    2.5371778 
    2000    291.93225    343.26508    311.51225    888.85968    1.4058347 
Loop time of 2.4787 on 1 procs for 2000 steps with 270 atoms

Performance: 69.714 ns/day, 0.344 hours/ns, 806.874 timesteps/s
99.1% CPU use with 1 MPI tasks x no OpenMP threads

MPI task timing breakdown:
Section |  min time  |  avg time  |  max time  |%varavg| %total
---------------------------------------------------------------
Pair    | 0.45675    | 0.45675    | 0.45675    |   0.0 | 18.43
Bond    | 0.22691    | 0.22691    | 0.22691    |   0.0 |  9.15
Kspace  | 1.7603     | 1.7603     | 1.7603     |   0.0 | 71.02
Neigh   | 0.016448   | 0.016448   | 0.016448   |   0.0 |  0.66
Comm    | 0.0025177  | 0.0025177  | 0.0025177  |   0.0 |  0.10
Output  | 2.0981e-05 | 2.0981e-05 | 2.0981e-05 |   0.0 |  0.00
Modify  | 0.0098279  | 0.0098279  | 0.0098279  |   0.0 |  0.40
Other   |            | 0.005924   |            |       |  0.24

Nlocal:    270 ave 270 max 270 min
Histogram: 1 0 0 0 0 0 0 0 0 0
Nghost:    108 ave 108 max 108 min
Histogram: 1 0 0 0 0 0 0 0 0 0
Neighs:    10009 ave 10009 max 10009 min
Histogram: 1 0 0 0 0 0 0 0 0 0

Total # of neighbors = 10009
Ave neighs/atom = 37.0704
Ave special neighs/atom = 10.6519
Neighbor list builds = 43
Dangerous builds = 0
unfix pysimm_md
min_style cg
minimize 0.001 0.001 10000 100000
WARNING: Using 'neigh_modify every 1 delay 0 check yes' setting during minimization (../min.cpp:190)
PPPM initialization ...
  using 12-bit tables for long-range coulomb (../kspace.cpp:332)
  G vector (1/distance) = 0.0882364
  grid = 15 15 15
  stencil order = 5
  estimated absolute RMS force accuracy = 0.0340892
  estimated relative force accuracy = 0.000102658
  using double precision KISS FFT
  3d grid and FFT values/proc = 8000 3375
Per MPI rank memory allocation (min/avg/max) = 19.27 | 19.27 | 19.27 Mbytes
Step Temp E_pair E_mol TotEng Press 
    2000    291.93225    343.26508    311.51225    888.85968    1.4058347 
    2014    291.93225    331.42812    138.20866    703.71912     2.292075 
Loop time of 0.038698 on 1 procs for 14 steps with 270 atoms

100.8% CPU use with 1 MPI tasks x no OpenMP threads

Minimization stats:
  Stopping criterion = energy tolerance
  Energy initial, next-to-last, final = 
         654.777337134      470.053860244       469.63677863
  Force two-norm initial, final = 518.902 70.3115
  Force max component initial, final = 87.3121 18.169
  Final line search alpha, max atom move = 0.00274381 0.0498523
  Iterations, force evaluations = 14 28

MPI task timing breakdown:
Section |  min time  |  avg time  |  max time  |%varavg| %total
---------------------------------------------------------------
Pair    | 0.010279   | 0.010279   | 0.010279   |   0.0 | 26.56
Bond    | 0.0035491  | 0.0035491  | 0.0035491  |   0.0 |  9.17
Kspace  | 0.024622   | 0.024622   | 0.024622   |   0.0 | 63.63
Neigh   | 0          | 0          | 0          |   0.0 |  0.00
Comm    | 3.1948e-05 | 3.1948e-05 | 3.1948e-05 |   0.0 |  0.08
Output  | 0          | 0          | 0          |   0.0 |  0.00
Modify  | 0          | 0          | 0          |   0.0 |  0.00
Other   |            | 0.0002158  |            |       |  0.56

Nlocal:    270 ave 270 max 270 min
Histogram: 1 0 0 0 0 0 0 0 0 0
Nghost:    108 ave 108 max 108 min
Histogram: 1 0 0 0 0 0 0 0 0 0
Neighs:    9998 ave 9998 max 9998 min
Histogram: 1 0 0 0 0 0 0 0 0 0

Total # of neighbors = 9998
Ave neighs/atom = 37.0296
Ave special neighs/atom = 10.6519
Neighbor list builds = 0
Dangerous builds = 0
write_dump all custom pysimm.dump.tmp id q x y z vx vy vz
quit


################################################################################
##################################    Init    ##################################
################################################################################
units           real
atom_style      full
pair_style      lj/cut/coul/long 12.0  12.0
kspace_style    pppm 1e-4
bond_style      harmonic
angle_style     harmonic
dihedral_style  fourier
improper_style  cvff
special_bonds   amber
pair_modify     mix arithmetic
read_data       temp.lmps
  orthogonal box = (-97.2175 -97.2175 -97.2175) to (97.2175 97.2175 97.2175)
  1 by 1 by 1 MPI processor grid
  reading atoms ...
  108 atoms
  reading velocities ...
  108 velocities
  scanning bonds ...
  3 = max bonds/atom
  scanning angles ...
  6 = max angles/atom
  scanning dihedrals ...
  24 = max dihedrals/atom
  scanning impropers ...
  1 = max impropers/atom
  reading bonds ...
  115 bonds
  reading angles ...
  193 angles
  reading dihedrals ...
  284 dihedrals
  reading impropers ...
  36 impropers
  4 = max # of 1-2 neighbors
  10 = max # of 1-3 neighbors
  19 = max # of 1-4 neighbors
  22 = max # of special neighbors
  special bonds CPU = 0.000231028 secs
  read_data CPU = 0.00471497 secs
################################################################################

timestep        1
fix             pysimm_md all nve/limit 0.1
run             2000
PPPM initialization ...
  using 12-bit tables for long-range coulomb (../kspace.cpp:332)
  G vector (1/distance) = 0.0638154
  grid = 10 10 10
  stencil order = 5
  estimated absolute RMS force accuracy = 0.0368018
  estimated relative force accuracy = 0.000110828
  using double precision KISS FFT
  3d grid and FFT values/proc = 3375 1000
Neighbor list info ...
  update every 1 steps, delay 10 steps, check yes
  max neighbors/atom: 2000, page size: 100000
  master list distance cutoff = 14
  ghost atom cutoff = 14
  binsize = 7, bins = 28 28 28
  1 neighbor lists, perpetual/occasional/extra = 1 0 0
  (1) pair lj/cut/coul/long, perpetual
      attributes: half, newton on
      pair build: half/bin/newton
      stencil: half/bin/3d/newton
      bin: standard
Per MPI rank memory allocation (min/avg/max) = 17.75 | 17.75 | 17.75 Mbytes
Step Temp E_pair E_mol TotEng Press 
       0    16.649641    134.38993    151.12275    290.82303   -1.3224826 
    2000    179.23449     134.7436    102.05548    293.96533  -0.89145077 
Loop time of 0.867795 on 1 procs for 2000 steps with 108 atoms

Performance: 199.125 ns/day, 0.121 hours/ns, 2304.691 timesteps/s
99.4% CPU use with 1 MPI tasks x no OpenMP threads

MPI task timing breakdown:
Section |  min time  |  avg time  |  max time  |%varavg| %total
---------------------------------------------------------------
Pair    | 0.16534    | 0.16534    | 0.16534    |   0.0 | 19.05
Bond    | 0.094448   | 0.094448   | 0.094448   |   0.0 | 10.88
Kspace  | 0.59523    | 0.59523    | 0.59523    |   0.0 | 68.59
Neigh   | 0.0035994  | 0.0035994  | 0.0035994  |   0.0 |  0.41
Comm    | 0.00077367 | 0.00077367 | 0.00077367 |   0.0 |  0.09
Output  | 2.0981e-05 | 2.0981e-05 | 2.0981e-05 |   0.0 |  0.00
Modify  | 0.0043573  | 0.0043573  | 0.0043573  |   0.0 |  0.50
Other   |            | 0.004025   |            |       |  0.46

Nlocal:    108 ave 108 max 108 min
Histogram: 1 0 0 0 0 0 0 0 0 0
Nghost:    0 ave 0 max 0 min
Histogram: 1 0 0 0 0 0 0 0 0 0
Neighs:    3450 ave 3450 max 3450 min
Histogram: 1 0 0 0 0 0 0 0 0 0

Total # of neighbors = 3450
Ave neighs/atom = 31.9444
Ave special neighs/atom = 10.5185
Neighbor list builds = 26
Dangerous builds = 0
unfix pysimm_md
min_style cg
minimize 0.001 0.001 10000 100000
WARNING: Using 'neigh_modify every 1 delay 0 check yes' setting during minimization (../min.cpp:190)
PPPM initialization ...
  using 12-bit tables for long-range coulomb (../kspace.cpp:332)
  G vector (1/distance) = 0.0638154
  grid = 10 10 10
  stencil order = 5
  estimated absolute RMS force accuracy = 0.0368018
  estimated relative force accuracy = 0.000110828
  using double precision KISS FFT
  3d grid and FFT values/proc = 3375 1000
Per MPI rank memory allocation (min/avg/max) = 18.87 | 18.87 | 18.87 Mbytes
Step Temp E_pair E_mol TotEng Press 
    2000    179.23449     134.7436    102.05548    293.96533  -0.89145077 
    2014    179.23449    135.63044    56.293136    249.08982    0.5165101 
Loop time of 0.044152 on 1 procs for 14 steps with 108 atoms

101.9% CPU use with 1 MPI tasks x no OpenMP threads

Minimization stats:
  Stopping criterion = linesearch alpha is zero
  Energy initial, next-to-last, final = 
         236.799081803      191.923577337      191.923577337
  Force two-norm initial, final = 247.806 17.457
  Force max component initial, final = 72.3119 3.58699
  Final line search alpha, max atom move = 2.82136e-11 1.01202e-10
  Iterations, force evaluations = 14 85

MPI task timing breakdown:
Section |  min time  |  avg time  |  max time  |%varavg| %total
---------------------------------------------------------------
Pair    | 0.011852   | 0.011852   | 0.011852   |   0.0 | 26.84
Bond    | 0.0045781  | 0.0045781  | 0.0045781  |   0.0 | 10.37
Kspace  | 0.027393   | 0.027393   | 0.027393   |   0.0 | 62.04
Neigh   | 0          | 0          | 0          |   0.0 |  0.00
Comm    | 3.8385e-05 | 3.8385e-05 | 3.8385e-05 |   0.0 |  0.09
Output  | 0          | 0          | 0          |   0.0 |  0.00
Modify  | 0          | 0          | 0          |   0.0 |  0.00
Other   |            | 0.0002902  |            |       |  0.66

Nlocal:    108 ave 108 max 108 min
Histogram: 1 0 0 0 0 0 0 0 0 0
Nghost:    0 ave 0 max 0 min
Histogram: 1 0 0 0 0 0 0 0 0 0
Neighs:    3455 ave 3455 max 3455 min
Histogram: 1 0 0 0 0 0 0 0 0 0

Total # of neighbors = 3455
Ave neighs/atom = 31.9907
Ave special neighs/atom = 10.5185
Neighbor list builds = 0
Dangerous builds = 0
write_dump all custom pysimm.dump.tmp id q x y z vx vy vz
quit


################################################################################
##################################    Init    ##################################
################################################################################
units           real
atom_style      full
pair_style      lj/cut/coul/long 12.0  12.0
kspace_style    pppm 1e-4
bond_style      harmonic
angle_style     harmonic
dihedral_style  fourier
improper_style  cvff
special_bonds   amber
pair_modify     mix arithmetic
read_data       temp.lmps
  orthogonal box = (-97.2175 -97.2175 -97.2175) to (97.2175 97.2175 97.2175)
  1 by 1 by 1 MPI processor grid
  reading atoms ...
  162 atoms
  reading velocities ...
  162 velocities
  scanning bonds ...
  3 = max bonds/atom
  scanning angles ...
  6 = max angles/atom
  scanning dihedrals ...
  24 = max dihedrals/atom
  scanning impropers ...
  1 = max impropers/atom
  reading bonds ...
  173 bonds
  reading angles ...
  291 angles
  reading dihedrals ...
  430 dihedrals
  reading impropers ...
  54 impropers
  4 = max # of 1-2 neighbors
  10 = max # of 1-3 neighbors
  19 = max # of 1-4 neighbors
  22 = max # of special neighbors
  special bonds CPU = 0.000319004 secs
  read_data CPU = 0.005126 secs
################################################################################

timestep        1
fix             pysimm_md all nve/limit 0.1
run             2000
PPPM initialization ...
WARNING: System is not charge neutral, net charge = -1.2e-05 (../kspace.cpp:313)
  using 12-bit tables for long-range coulomb (../kspace.cpp:332)
  G vector (1/distance) = 0.0741226
  grid = 12 12 12
  stencil order = 5
  estimated absolute RMS force accuracy = 0.0367276
  estimated relative force accuracy = 0.000110604
  using double precision KISS FFT
  3d grid and FFT values/proc = 4913 1728
Neighbor list info ...
  update every 1 steps, delay 10 steps, check yes
  max neighbors/atom: 2000, page size: 100000
  master list distance cutoff = 14
  ghost atom cutoff = 14
  binsize = 7, bins = 28 28 28
  1 neighbor lists, perpetual/occasional/extra = 1 0 0
  (1) pair lj/cut/coul/long, perpetual
      attributes: half, newton on
      pair build: half/bin/newton
      stencil: half/bin/3d/newton
      bin: standard
Per MPI rank memory allocation (min/avg/max) = 17.88 | 17.88 | 17.88 Mbytes
Step Temp E_pair E_mol TotEng Press 
       0    124.65116    200.38697    198.97477    459.18313   -1.1565483 
    2000    203.84252    203.74008    155.69677      457.263    1.1939628 
Loop time of 1.39851 on 1 procs for 2000 steps with 162 atoms

Performance: 123.560 ns/day, 0.194 hours/ns, 1430.091 timesteps/s
100.0% CPU use with 1 MPI tasks x no OpenMP threads

MPI task timing breakdown:
Section |  min time  |  avg time  |  max time  |%varavg| %total
---------------------------------------------------------------
Pair    | 0.27303    | 0.27303    | 0.27303    |   0.0 | 19.52
Bond    | 0.14391    | 0.14391    | 0.14391    |   0.0 | 10.29
Kspace  | 0.96448    | 0.96448    | 0.96448    |   0.0 | 68.97
Neigh   | 0.0050328  | 0.0050328  | 0.0050328  |   0.0 |  0.36
Comm    | 0.00080132 | 0.00080132 | 0.00080132 |   0.0 |  0.06
Output  | 3.7909e-05 | 3.7909e-05 | 3.7909e-05 |   0.0 |  0.00
Modify  | 0.0061452  | 0.0061452  | 0.0061452  |   0.0 |  0.44
Other   |            | 0.005065   |            |       |  0.36

Nlocal:    162 ave 162 max 162 min
Histogram: 1 0 0 0 0 0 0 0 0 0
Nghost:    0 ave 0 max 0 min
Histogram: 1 0 0 0 0 0 0 0 0 0
Neighs:    5477 ave 5477 max 5477 min
Histogram: 1 0 0 0 0 0 0 0 0 0

Total # of neighbors = 5477
Ave neighs/atom = 33.8086
Ave special neighs/atom = 10.5926
Neighbor list builds = 23
Dangerous builds = 0
unfix pysimm_md
min_style cg
minimize 0.001 0.001 10000 100000
WARNING: Using 'neigh_modify every 1 delay 0 check yes' setting during minimization (../min.cpp:190)
PPPM initialization ...
  using 12-bit tables for long-range coulomb (../kspace.cpp:332)
  G vector (1/distance) = 0.0741226
  grid = 12 12 12
  stencil order = 5
  estimated absolute RMS force accuracy = 0.0367276
  estimated relative force accuracy = 0.000110604
  using double precision KISS FFT
  3d grid and FFT values/proc = 4913 1728
Per MPI rank memory allocation (min/avg/max) = 19 | 19 | 19 Mbytes
Step Temp E_pair E_mol TotEng Press 
    2000    203.84252    203.74008    155.69677      457.263    1.1939628 
    2019    203.84252    199.11902     85.72558    382.67075   0.31597609 
Loop time of 0.0305841 on 1 procs for 19 steps with 162 atoms

98.1% CPU use with 1 MPI tasks x no OpenMP threads

Minimization stats:
  Stopping criterion = energy tolerance
  Energy initial, next-to-last, final = 
         359.436852736      285.044531818      284.844600853
  Force two-norm initial, final = 303.706 24.7013
  Force max component initial, final = 64.0844 4.23984
  Final line search alpha, max atom move = 0.00626227 0.026551
  Iterations, force evaluations = 19 38

MPI task timing breakdown:
Section |  min time  |  avg time  |  max time  |%varavg| %total
---------------------------------------------------------------
Pair    | 0.0084763  | 0.0084763  | 0.0084763  |   0.0 | 27.71
Bond    | 0.0030622  | 0.0030622  | 0.0030622  |   0.0 | 10.01
Kspace  | 0.018811   | 0.018811   | 0.018811   |   0.0 | 61.51
Neigh   | 0          | 0          | 0          |   0.0 |  0.00
Comm    | 1.2398e-05 | 1.2398e-05 | 1.2398e-05 |   0.0 |  0.04
Output  | 0          | 0          | 0          |   0.0 |  0.00
Modify  | 0          | 0          | 0          |   0.0 |  0.00
Other   |            | 0.0002217  |            |       |  0.72

Nlocal:    162 ave 162 max 162 min
Histogram: 1 0 0 0 0 0 0 0 0 0
Nghost:    0 ave 0 max 0 min
Histogram: 1 0 0 0 0 0 0 0 0 0
Neighs:    5495 ave 5495 max 5495 min
Histogram: 1 0 0 0 0 0 0 0 0 0

Total # of neighbors = 5495
Ave neighs/atom = 33.9198
Ave special neighs/atom = 10.5926
Neighbor list builds = 0
Dangerous builds = 0
write_dump all custom pysimm.dump.tmp id q x y z vx vy vz
quit


################################################################################
##################################    Init    ##################################
################################################################################
units           real
atom_style      full
pair_style      lj/cut/coul/long 12.0  12.0
kspace_style    pppm 1e-4
bond_style      harmonic
angle_style     harmonic
dihedral_style  fourier
improper_style  cvff
special_bonds   amber
pair_modify     mix arithmetic
read_data       temp.lmps
  orthogonal box = (-97.2175 -97.2175 -97.2175) to (97.2175 97.2175 97.2175)
  1 by 1 by 1 MPI processor grid
  reading atoms ...
  216 atoms
  reading velocities ...
  216 velocities
  scanning bonds ...
  3 = max bonds/atom
  scanning angles ...
  6 = max angles/atom
  scanning dihedrals ...
  24 = max dihedrals/atom
  scanning impropers ...
  1 = max impropers/atom
  reading bonds ...
  231 bonds
  reading angles ...
  389 angles
  reading dihedrals ...
  576 dihedrals
  reading impropers ...
  72 impropers
  4 = max # of 1-2 neighbors
  10 = max # of 1-3 neighbors
  19 = max # of 1-4 neighbors
  22 = max # of special neighbors
  special bonds CPU = 0.000365019 secs
  read_data CPU = 0.00540709 secs
################################################################################

timestep        1
fix             pysimm_md all nve/limit 0.1
run             2000
PPPM initialization ...
WARNING: System is not charge neutral, net charge = -1.6e-05 (../kspace.cpp:313)
  using 12-bit tables for long-range coulomb (../kspace.cpp:332)
  G vector (1/distance) = 0.0882362
  grid = 15 15 15
  stencil order = 5
  estimated absolute RMS force accuracy = 0.03049
  estimated relative force accuracy = 9.18197e-05
  using double precision KISS FFT
  3d grid and FFT values/proc = 8000 3375
Neighbor list info ...
  update every 1 steps, delay 10 steps, check yes
  max neighbors/atom: 2000, page size: 100000
  master list distance cutoff = 14
  ghost atom cutoff = 14
  binsize = 7, bins = 28 28 28
  1 neighbor lists, perpetual/occasional/extra = 1 0 0
  (1) pair lj/cut/coul/long, perpetual
      attributes: half, newton on
      pair build: half/bin/newton
      stencil: half/bin/3d/newton
      bin: standard
Per MPI rank memory allocation (min/avg/max) = 18.14 | 18.14 | 18.14 Mbytes
Step Temp E_pair E_mol TotEng Press 
       0    156.78793    263.38615    211.99673    575.86421   -1.6572915 
    2000    173.29764    260.26533    204.19143    575.51874    -2.000432 
Loop time of 2.326 on 1 procs for 2000 steps with 216 atoms

Performance: 74.291 ns/day, 0.323 hours/ns, 859.846 timesteps/s
99.9% CPU use with 1 MPI tasks x no OpenMP threads

MPI task timing breakdown:
Section |  min time  |  avg time  |  max time  |%varavg| %total
---------------------------------------------------------------
Pair    | 0.37691    | 0.37691    | 0.37691    |   0.0 | 16.20
Bond    | 0.18997    | 0.18997    | 0.18997    |   0.0 |  8.17
Kspace  | 1.736      | 1.736      | 1.736      |   0.0 | 74.64
Neigh   | 0.0085616  | 0.0085616  | 0.0085616  |   0.0 |  0.37
Comm    | 0.0010068  | 0.0010068  | 0.0010068  |   0.0 |  0.04
Output  | 2.5034e-05 | 2.5034e-05 | 2.5034e-05 |   0.0 |  0.00
Modify  | 0.0076818  | 0.0076818  | 0.0076818  |   0.0 |  0.33
Other   |            | 0.005801   |            |       |  0.25

Nlocal:    216 ave 216 max 216 min
Histogram: 1 0 0 0 0 0 0 0 0 0
Nghost:    0 ave 0 max 0 min
Histogram: 1 0 0 0 0 0 0 0 0 0
Neighs:    7871 ave 7871 max 7871 min
Histogram: 1 0 0 0 0 0 0 0 0 0

Total # of neighbors = 7871
Ave neighs/atom = 36.4398
Ave special neighs/atom = 10.6296
Neighbor list builds = 28
Dangerous builds = 0
unfix pysimm_md
min_style cg
minimize 0.001 0.001 10000 100000
WARNING: Using 'neigh_modify every 1 delay 0 check yes' setting during minimization (../min.cpp:190)
PPPM initialization ...
  using 12-bit tables for long-range coulomb (../kspace.cpp:332)
  G vector (1/distance) = 0.0882362
  grid = 15 15 15
  stencil order = 5
  estimated absolute RMS force accuracy = 0.03049
  estimated relative force accuracy = 9.18197e-05
  using double precision KISS FFT
  3d grid and FFT values/proc = 8000 3375
Per MPI rank memory allocation (min/avg/max) = 19.27 | 19.27 | 19.27 Mbytes
Step Temp E_pair E_mol TotEng Press 
    2000    173.29764    260.26533    204.19143    575.51874    -2.000432 
    2015    173.29764    263.61865     114.2884    488.96903   0.54271492 
Loop time of 0.039259 on 1 procs for 15 steps with 216 atoms

101.9% CPU use with 1 MPI tasks x no OpenMP threads

Minimization stats:
  Stopping criterion = energy tolerance
  Energy initial, next-to-last, final = 
         464.456763125      378.138480683      377.907048239
  Force two-norm initial, final = 379.238 27.3969
  Force max component initial, final = 91.3876 4.00648
  Final line search alpha, max atom move = 0.00714544 0.0286281
  Iterations, force evaluations = 15 30

MPI task timing breakdown:
Section |  min time  |  avg time  |  max time  |%varavg| %total
---------------------------------------------------------------
Pair    | 0.0096407  | 0.0096407  | 0.0096407  |   0.0 | 24.56
Bond    | 0.0032797  | 0.0032797  | 0.0032797  |   0.0 |  8.35
Kspace  | 0.026105   | 0.026105   | 0.026105   |   0.0 | 66.50
Neigh   | 0          | 0          | 0          |   0.0 |  0.00
Comm    | 2.1696e-05 | 2.1696e-05 | 2.1696e-05 |   0.0 |  0.06
Output  | 0          | 0          | 0          |   0.0 |  0.00
Modify  | 0          | 0          | 0          |   0.0 |  0.00
Other   |            | 0.0002115  |            |       |  0.54

Nlocal:    216 ave 216 max 216 min
Histogram: 1 0 0 0 0 0 0 0 0 0
Nghost:    0 ave 0 max 0 min
Histogram: 1 0 0 0 0 0 0 0 0 0
Neighs:    7862 ave 7862 max 7862 min
Histogram: 1 0 0 0 0 0 0 0 0 0

Total # of neighbors = 7862
Ave neighs/atom = 36.3981
Ave special neighs/atom = 10.6296
Neighbor list builds = 0
Dangerous builds = 0
write_dump all custom pysimm.dump.tmp id q x y z vx vy vz
quit


################################################################################
##################################    Init    ##################################
################################################################################
units           real
atom_style      full
pair_style      lj/cut/coul/long 12.0  12.0
kspace_style    pppm 1e-4
bond_style      harmonic
angle_style     harmonic
dihedral_style  fourier
improper_style  cvff
special_bonds   amber
pair_modify     mix arithmetic
read_data       temp.lmps
  orthogonal box = (-97.2175 -97.2175 -97.2175) to (97.2175 97.2175 97.2175)
  1 by 1 by 1 MPI processor grid
  reading atoms ...
  270 atoms
  reading velocities ...
  270 velocities
  scanning bonds ...
  3 = max bonds/atom
  scanning angles ...
  6 = max angles/atom
  scanning dihedrals ...
  24 = max dihedrals/atom
  scanning impropers ...
  1 = max impropers/atom
  reading bonds ...
  289 bonds
  reading angles ...
  487 angles
  reading dihedrals ...
  722 dihedrals
  reading impropers ...
  90 impropers
  4 = max # of 1-2 neighbors
  10 = max # of 1-3 neighbors
  19 = max # of 1-4 neighbors
  22 = max # of special neighbors
  special bonds CPU = 0.000407934 secs
  read_data CPU = 0.00602603 secs
################################################################################

timestep        1
fix             pysimm_md all nve/limit 0.1
run             2000
PPPM initialization ...
WARNING: System is not charge neutral, net charge = -2e-05 (../kspace.cpp:313)
  using 12-bit tables for long-range coulomb (../kspace.cpp:332)
  G vector (1/distance) = 0.0882364
  grid = 15 15 15
  stencil order = 5
  estimated absolute RMS force accuracy = 0.0340892
  estimated relative force accuracy = 0.000102658
  using double precision KISS FFT
  3d grid and FFT values/proc = 8000 3375
Neighbor list info ...
  update every 1 steps, delay 10 steps, check yes
  max neighbors/atom: 2000, page size: 100000
  master list distance cutoff = 14
  ghost atom cutoff = 14
  binsize = 7, bins = 28 28 28
  1 neighbor lists, perpetual/occasional/extra = 1 0 0
  (1) pair lj/cut/coul/long, perpetual
      attributes: half, newton on
      pair build: half/bin/newton
      stencil: half/bin/3d/newton
      bin: standard
Per MPI rank memory allocation (min/avg/max) = 18.15 | 18.15 | 18.15 Mbytes
Step Temp E_pair E_mol TotEng Press 
       0    141.82063    819.47667    342.43331    1275.6271    17.161705 
    2000    276.79506    327.56202    322.74238    872.24917   -1.3460751 
Loop time of 2.6434 on 1 procs for 2000 steps with 270 atoms

Performance: 65.370 ns/day, 0.367 hours/ns, 756.602 timesteps/s
99.4% CPU use with 1 MPI tasks x no OpenMP threads

MPI task timing breakdown:
Section |  min time  |  avg time  |  max time  |%varavg| %total
---------------------------------------------------------------
Pair    | 0.50312    | 0.50312    | 0.50312    |   0.0 | 19.03
Bond    | 0.23993    | 0.23993    | 0.23993    |   0.0 |  9.08
Kspace  | 1.8581     | 1.8581     | 1.8581     |   0.0 | 70.29
Neigh   | 0.025669   | 0.025669   | 0.025669   |   0.0 |  0.97
Comm    | 0.0012634  | 0.0012634  | 0.0012634  |   0.0 |  0.05
Output  | 2.5988e-05 | 2.5988e-05 | 2.5988e-05 |   0.0 |  0.00
Modify  | 0.0098498  | 0.0098498  | 0.0098498  |   0.0 |  0.37
Other   |            | 0.005392   |            |       |  0.20

Nlocal:    270 ave 270 max 270 min
Histogram: 1 0 0 0 0 0 0 0 0 0
Nghost:    1 ave 1 max 1 min
Histogram: 1 0 0 0 0 0 0 0 0 0
Neighs:    10531 ave 10531 max 10531 min
Histogram: 1 0 0 0 0 0 0 0 0 0

Total # of neighbors = 10531
Ave neighs/atom = 39.0037
Ave special neighs/atom = 10.6519
Neighbor list builds = 68
Dangerous builds = 0
unfix pysimm_md
min_style cg
minimize 0.001 0.001 10000 100000
WARNING: Using 'neigh_modify every 1 delay 0 check yes' setting during minimization (../min.cpp:190)
PPPM initialization ...
  using 12-bit tables for long-range coulomb (../kspace.cpp:332)
  G vector (1/distance) = 0.0882364
  grid = 15 15 15
  stencil order = 5
  estimated absolute RMS force accuracy = 0.0340892
  estimated relative force accuracy = 0.000102658
  using double precision KISS FFT
  3d grid and FFT values/proc = 8000 3375
Per MPI rank memory allocation (min/avg/max) = 19.27 | 19.27 | 19.27 Mbytes
Step Temp E_pair E_mol TotEng Press 
    2000    276.79506    327.56202    322.74238    872.24917   -1.3460751 
    2027    276.79506    324.35161    144.96529    691.26168    1.2090477 
Loop time of 0.081079 on 1 procs for 27 steps with 270 atoms

99.9% CPU use with 1 MPI tasks x no OpenMP threads

Minimization stats:
  Stopping criterion = energy tolerance
  Energy initial, next-to-last, final = 
         650.304395576      469.474993183      469.316909506
  Force two-norm initial, final = 498.572 25.7602
  Force max component initial, final = 137.43 5.06005
  Final line search alpha, max atom move = 0.00529871 0.0268117
  Iterations, force evaluations = 27 54

MPI task timing breakdown:
Section |  min time  |  avg time  |  max time  |%varavg| %total
---------------------------------------------------------------
Pair    | 0.023228   | 0.023228   | 0.023228   |   0.0 | 28.65
Bond    | 0.0073383  | 0.0073383  | 0.0073383  |   0.0 |  9.05
Kspace  | 0.050025   | 0.050025   | 0.050025   |   0.0 | 61.70
Neigh   | 0          | 0          | 0          |   0.0 |  0.00
Comm    | 2.5272e-05 | 2.5272e-05 | 2.5272e-05 |   0.0 |  0.03
Output  | 0          | 0          | 0          |   0.0 |  0.00
Modify  | 0          | 0          | 0          |   0.0 |  0.00
Other   |            | 0.0004623  |            |       |  0.57

Nlocal:    270 ave 270 max 270 min
Histogram: 1 0 0 0 0 0 0 0 0 0
Nghost:    1 ave 1 max 1 min
Histogram: 1 0 0 0 0 0 0 0 0 0
Neighs:    10509 ave 10509 max 10509 min
Histogram: 1 0 0 0 0 0 0 0 0 0

Total # of neighbors = 10509
Ave neighs/atom = 38.9222
Ave special neighs/atom = 10.6519
Neighbor list builds = 0
Dangerous builds = 0
write_dump all custom pysimm.dump.tmp id q x y z vx vy vz
quit


################################################################################
##################################    Init    ##################################
################################################################################
units           real
atom_style      full
pair_style      lj/cut/coul/long 12.0  12.0
kspace_style    pppm 1e-4
bond_style      harmonic
angle_style     harmonic
dihedral_style  fourier
improper_style  cvff
special_bonds   amber
pair_modify     mix arithmetic
read_data       temp.lmps
  orthogonal box = (-97.2175 -97.2175 -97.2175) to (97.2175 97.2175 97.2175)
  1 by 1 by 1 MPI processor grid
  reading atoms ...
  324 atoms
  reading velocities ...
  324 velocities
  scanning bonds ...
  3 = max bonds/atom
  scanning angles ...
  6 = max angles/atom
  scanning dihedrals ...
  24 = max dihedrals/atom
  scanning impropers ...
  1 = max impropers/atom
  reading bonds ...
  347 bonds
  reading angles ...
  585 angles
  reading dihedrals ...
  868 dihedrals
  reading impropers ...
  108 impropers
  4 = max # of 1-2 neighbors
  10 = max # of 1-3 neighbors
  19 = max # of 1-4 neighbors
  22 = max # of special neighbors
  special bonds CPU = 0.000446081 secs
  read_data CPU = 0.00637197 secs
################################################################################

timestep        1
fix             pysimm_md all nve/limit 0.1
run             2000
PPPM initialization ...
WARNING: System is not charge neutral, net charge = -2.4e-05 (../kspace.cpp:313)
  using 12-bit tables for long-range coulomb (../kspace.cpp:332)
  G vector (1/distance) = 0.0926047
  grid = 16 16 16
  stencil order = 5
  estimated absolute RMS force accuracy = 0.0333272
  estimated relative force accuracy = 0.000100364
  using double precision KISS FFT
  3d grid and FFT values/proc = 9261 4096
Neighbor list info ...
  update every 1 steps, delay 10 steps, check yes
  max neighbors/atom: 2000, page size: 100000
  master list distance cutoff = 14
  ghost atom cutoff = 14
  binsize = 7, bins = 28 28 28
  1 neighbor lists, perpetual/occasional/extra = 1 0 0
  (1) pair lj/cut/coul/long, perpetual
      attributes: half, newton on
      pair build: half/bin/newton
      stencil: half/bin/3d/newton
      bin: standard
Per MPI rank memory allocation (min/avg/max) = 18.26 | 18.26 | 18.26 Mbytes
Step Temp E_pair E_mol TotEng Press 
       0     233.2775    3275.9803     386.0494    3886.6297    107.36254 
    2000    301.46697    408.09127    412.38606    1110.7302    3.6531089 
Loop time of 3.09184 on 1 procs for 2000 steps with 324 atoms

Performance: 55.889 ns/day, 0.429 hours/ns, 646.864 timesteps/s
100.1% CPU use with 1 MPI tasks x no OpenMP threads

MPI task timing breakdown:
Section |  min time  |  avg time  |  max time  |%varavg| %total
---------------------------------------------------------------
Pair    | 0.61849    | 0.61849    | 0.61849    |   0.0 | 20.00
Bond    | 0.28999    | 0.28999    | 0.28999    |   0.0 |  9.38
Kspace  | 2.1315     | 2.1315     | 2.1315     |   0.0 | 68.94
Neigh   | 0.032435   | 0.032435   | 0.032435   |   0.0 |  1.05
Comm    | 0.0023184  | 0.0023184  | 0.0023184  |   0.0 |  0.07
Output  | 4.1008e-05 | 4.1008e-05 | 4.1008e-05 |   0.0 |  0.00
Modify  | 0.011484   | 0.011484   | 0.011484   |   0.0 |  0.37
Other   |            | 0.005592   |            |       |  0.18

Nlocal:    324 ave 324 max 324 min
Histogram: 1 0 0 0 0 0 0 0 0 0
Nghost:    50 ave 50 max 50 min
Histogram: 1 0 0 0 0 0 0 0 0 0
Neighs:    12560 ave 12560 max 12560 min
Histogram: 1 0 0 0 0 0 0 0 0 0

Total # of neighbors = 12560
Ave neighs/atom = 38.7654
Ave special neighs/atom = 10.6667
Neighbor list builds = 69
Dangerous builds = 0
unfix pysimm_md
min_style cg
minimize 0.001 0.001 10000 100000
WARNING: Using 'neigh_modify every 1 delay 0 check yes' setting during minimization (../min.cpp:190)
PPPM initialization ...
  using 12-bit tables for long-range coulomb (../kspace.cpp:332)
  G vector (1/distance) = 0.0926047
  grid = 16 16 16
  stencil order = 5
  estimated absolute RMS force accuracy = 0.0333272
  estimated relative force accuracy = 0.000100364
  using double precision KISS FFT
  3d grid and FFT values/proc = 9261 4096
Per MPI rank memory allocation (min/avg/max) = 19.39 | 19.39 | 19.39 Mbytes
Step Temp E_pair E_mol TotEng Press 
    2000    301.46697    408.09127    412.38606    1110.7302    3.6531089 
    2029    301.46697    398.61412    180.30076    869.16777    1.8909605 
Loop time of 0.101644 on 1 procs for 29 steps with 324 atoms

99.4% CPU use with 1 MPI tasks x no OpenMP threads

Minimization stats:
  Stopping criterion = energy tolerance
  Energy initial, next-to-last, final = 
         820.477334476      579.278471197      578.914873741
  Force two-norm initial, final = 566.855 32.1757
  Force max component initial, final = 99.1357 5.43484
  Final line search alpha, max atom move = 0.00525441 0.0285569
  Iterations, force evaluations = 29 58

MPI task timing breakdown:
Section |  min time  |  avg time  |  max time  |%varavg| %total
---------------------------------------------------------------
Pair    | 0.028956   | 0.028956   | 0.028956   |   0.0 | 28.49
Bond    | 0.0090985  | 0.0090985  | 0.0090985  |   0.0 |  8.95
Kspace  | 0.063015   | 0.063015   | 0.063015   |   0.0 | 62.00
Neigh   | 0          | 0          | 0          |   0.0 |  0.00
Comm    | 7.2241e-05 | 7.2241e-05 | 7.2241e-05 |   0.0 |  0.07
Output  | 0          | 0          | 0          |   0.0 |  0.00
Modify  | 0          | 0          | 0          |   0.0 |  0.00
Other   |            | 0.0005023  |            |       |  0.49

Nlocal:    324 ave 324 max 324 min
Histogram: 1 0 0 0 0 0 0 0 0 0
Nghost:    50 ave 50 max 50 min
Histogram: 1 0 0 0 0 0 0 0 0 0
Neighs:    12558 ave 12558 max 12558 min
Histogram: 1 0 0 0 0 0 0 0 0 0

Total # of neighbors = 12558
Ave neighs/atom = 38.7593
Ave special neighs/atom = 10.6667
Neighbor list builds = 0
Dangerous builds = 0
write_dump all custom pysimm.dump.tmp id q x y z vx vy vz
quit


################################################################################
##################################    Init    ##################################
################################################################################
units           real
atom_style      full
pair_style      lj/cut/coul/long 12.0  12.0
kspace_style    pppm 1e-4
bond_style      harmonic
angle_style     harmonic
dihedral_style  fourier
improper_style  cvff
special_bonds   amber
pair_modify     mix arithmetic
read_data       temp.lmps
  orthogonal box = (-97.2175 -97.2175 -97.2175) to (97.2175 97.2175 97.2175)
  1 by 1 by 1 MPI processor grid
  reading atoms ...
  378 atoms
  reading velocities ...
  378 velocities
  scanning bonds ...
  3 = max bonds/atom
  scanning angles ...
  6 = max angles/atom
  scanning dihedrals ...
  24 = max dihedrals/atom
  scanning impropers ...
  1 = max impropers/atom
  reading bonds ...
  405 bonds
  reading angles ...
  683 angles
  reading dihedrals ...
  1014 dihedrals
  reading impropers ...
  126 impropers
  4 = max # of 1-2 neighbors
  10 = max # of 1-3 neighbors
  19 = max # of 1-4 neighbors
  22 = max # of special neighbors
  special bonds CPU = 0.000494003 secs
  read_data CPU = 0.00697494 secs
################################################################################

timestep        1
fix             pysimm_md all nve/limit 0.1
run             2000
PPPM initialization ...
WARNING: System is not charge neutral, net charge = -2.8e-05 (../kspace.cpp:313)
  using 12-bit tables for long-range coulomb (../kspace.cpp:332)
  G vector (1/distance) = 0.0926046
  grid = 16 16 16
  stencil order = 5
  estimated absolute RMS force accuracy = 0.0359974
  estimated relative force accuracy = 0.000108405
  using double precision KISS FFT
  3d grid and FFT values/proc = 9261 4096
Neighbor list info ...
  update every 1 steps, delay 10 steps, check yes
  max neighbors/atom: 2000, page size: 100000
  master list distance cutoff = 14
  ghost atom cutoff = 14
  binsize = 7, bins = 28 28 28
  1 neighbor lists, perpetual/occasional/extra = 1 0 0
  (1) pair lj/cut/coul/long, perpetual
      attributes: half, newton on
      pair build: half/bin/newton
      stencil: half/bin/3d/newton
      bin: standard
Per MPI rank memory allocation (min/avg/max) = 18.27 | 18.27 | 18.27 Mbytes
Step Temp E_pair E_mol TotEng Press 
       0    260.64878    464.46473    331.89682    1089.2696  0.085749624 
    2000    196.92702    485.50886     381.2972    1088.1058    1.9813858 
Loop time of 3.12664 on 1 procs for 2000 steps with 378 atoms

Performance: 55.267 ns/day, 0.434 hours/ns, 639.664 timesteps/s
100.0% CPU use with 1 MPI tasks x no OpenMP threads

MPI task timing breakdown:
Section |  min time  |  avg time  |  max time  |%varavg| %total
---------------------------------------------------------------
Pair    | 0.70219    | 0.70219    | 0.70219    |   0.0 | 22.46
Bond    | 0.33       | 0.33       | 0.33       |   0.0 | 10.55
Kspace  | 2.0501     | 2.0501     | 2.0501     |   0.0 | 65.57
Neigh   | 0.021917   | 0.021917   | 0.021917   |   0.0 |  0.70
Comm    | 0.0031343  | 0.0031343  | 0.0031343  |   0.0 |  0.10
Output  | 2.5034e-05 | 2.5034e-05 | 2.5034e-05 |   0.0 |  0.00
Modify  | 0.012801   | 0.012801   | 0.012801   |   0.0 |  0.41
Other   |            | 0.006448   |            |       |  0.21

Nlocal:    378 ave 378 max 378 min
Histogram: 1 0 0 0 0 0 0 0 0 0
Nghost:    156 ave 156 max 156 min
Histogram: 1 0 0 0 0 0 0 0 0 0
Neighs:    14830 ave 14830 max 14830 min
Histogram: 1 0 0 0 0 0 0 0 0 0

Total # of neighbors = 14830
Ave neighs/atom = 39.2328
Ave special neighs/atom = 10.6772
Neighbor list builds = 40
Dangerous builds = 0
unfix pysimm_md
min_style cg
minimize 0.001 0.001 10000 100000
WARNING: Using 'neigh_modify every 1 delay 0 check yes' setting during minimization (../min.cpp:190)
PPPM initialization ...
  using 12-bit tables for long-range coulomb (../kspace.cpp:332)
  G vector (1/distance) = 0.0926046
  grid = 16 16 16
  stencil order = 5
  estimated absolute RMS force accuracy = 0.0359974
  estimated relative force accuracy = 0.000108405
  using double precision KISS FFT
  3d grid and FFT values/proc = 9261 4096
Per MPI rank memory allocation (min/avg/max) = 19.4 | 19.4 | 19.4 Mbytes
Step Temp E_pair E_mol TotEng Press 
    2000    196.92702    485.50886     381.2972    1088.1058    1.9813858 
    2030    196.92702    459.23109    196.12588    876.65673    1.4848359 
Loop time of 0.111918 on 1 procs for 30 steps with 378 atoms

100.1% CPU use with 1 MPI tasks x no OpenMP threads

Minimization stats:
  Stopping criterion = energy tolerance
  Energy initial, next-to-last, final = 
         866.806059467      656.002982716      655.356963075
  Force two-norm initial, final = 517.007 27.3367
  Force max component initial, final = 97.0516 3.74245
  Final line search alpha, max atom move = 0.00349165 0.0130673
  Iterations, force evaluations = 30 60

MPI task timing breakdown:
Section |  min time  |  avg time  |  max time  |%varavg| %total
---------------------------------------------------------------
Pair    | 0.034221   | 0.034221   | 0.034221   |   0.0 | 30.58
Bond    | 0.010987   | 0.010987   | 0.010987   |   0.0 |  9.82
Kspace  | 0.06599    | 0.06599    | 0.06599    |   0.0 | 58.96
Neigh   | 0          | 0          | 0          |   0.0 |  0.00
Comm    | 8.5592e-05 | 8.5592e-05 | 8.5592e-05 |   0.0 |  0.08
Output  | 0          | 0          | 0          |   0.0 |  0.00
Modify  | 0          | 0          | 0          |   0.0 |  0.00
Other   |            | 0.0006351  |            |       |  0.57

Nlocal:    378 ave 378 max 378 min
Histogram: 1 0 0 0 0 0 0 0 0 0
Nghost:    156 ave 156 max 156 min
Histogram: 1 0 0 0 0 0 0 0 0 0
Neighs:    14844 ave 14844 max 14844 min
Histogram: 1 0 0 0 0 0 0 0 0 0

Total # of neighbors = 14844
Ave neighs/atom = 39.2698
Ave special neighs/atom = 10.6772
Neighbor list builds = 0
Dangerous builds = 0
write_dump all custom pysimm.dump.tmp id q x y z vx vy vz
quit


################################################################################
##################################    Init    ##################################
################################################################################
units           real
atom_style      full
pair_style      lj/cut/coul/long 12.0  12.0
kspace_style    pppm 1e-4
bond_style      harmonic
angle_style     harmonic
dihedral_style  fourier
improper_style  cvff
special_bonds   amber
pair_modify     mix arithmetic
read_data       temp.lmps
  orthogonal box = (-97.2175 -97.2175 -97.2175) to (97.2175 97.2175 97.2175)
  1 by 1 by 1 MPI processor grid
  reading atoms ...
  432 atoms
  reading velocities ...
  432 velocities
  scanning bonds ...
  3 = max bonds/atom
  scanning angles ...
  6 = max angles/atom
  scanning dihedrals ...
  24 = max dihedrals/atom
  scanning impropers ...
  1 = max impropers/atom
  reading bonds ...
  463 bonds
  reading angles ...
  781 angles
  reading dihedrals ...
  1160 dihedrals
  reading impropers ...
  144 impropers
  4 = max # of 1-2 neighbors
  10 = max # of 1-3 neighbors
  19 = max # of 1-4 neighbors
  22 = max # of special neighbors
  special bonds CPU = 0.000514984 secs
  read_data CPU = 0.00737405 secs
################################################################################

timestep        1
fix             pysimm_md all nve/limit 0.1
run             2000
PPPM initialization ...
WARNING: System is not charge neutral, net charge = -3.2e-05 (../kspace.cpp:313)
  using 12-bit tables for long-range coulomb (../kspace.cpp:332)
  G vector (1/distance) = 0.100876
  grid = 18 18 18
  stencil order = 5
  estimated absolute RMS force accuracy = 0.030562
  estimated relative force accuracy = 9.20366e-05
  using double precision KISS FFT
  3d grid and FFT values/proc = 12167 5832
Neighbor list info ...
  update every 1 steps, delay 10 steps, check yes
  max neighbors/atom: 2000, page size: 100000
  master list distance cutoff = 14
  ghost atom cutoff = 14
  binsize = 7, bins = 28 28 28
  1 neighbor lists, perpetual/occasional/extra = 1 0 0
  (1) pair lj/cut/coul/long, perpetual
      attributes: half, newton on
      pair build: half/bin/newton
      stencil: half/bin/3d/newton
      bin: standard
Per MPI rank memory allocation (min/avg/max) = 18.54 | 18.54 | 18.54 Mbytes
Step Temp E_pair E_mol TotEng Press 
       0    174.32075    527.67939    363.12305    1114.7574  -0.22288877 
    2000    159.24973    541.97781    366.32934    1112.8999   0.14348408 
Loop time of 4.47642 on 1 procs for 2000 steps with 432 atoms

Performance: 38.602 ns/day, 0.622 hours/ns, 446.785 timesteps/s
99.9% CPU use with 1 MPI tasks x no OpenMP threads

MPI task timing breakdown:
Section |  min time  |  avg time  |  max time  |%varavg| %total
---------------------------------------------------------------
Pair    | 0.84197    | 0.84197    | 0.84197    |   0.0 | 18.81
Bond    | 0.37745    | 0.37745    | 0.37745    |   0.0 |  8.43
Kspace  | 3.2056     | 3.2056     | 3.2056     |   0.0 | 71.61
Neigh   | 0.025383   | 0.025383   | 0.025383   |   0.0 |  0.57
Comm    | 0.0039425  | 0.0039425  | 0.0039425  |   0.0 |  0.09
Output  | 2.6941e-05 | 2.6941e-05 | 2.6941e-05 |   0.0 |  0.00
Modify  | 0.014766   | 0.014766   | 0.014766   |   0.0 |  0.33
Other   |            | 0.007304   |            |       |  0.16

Nlocal:    432 ave 432 max 432 min
Histogram: 1 0 0 0 0 0 0 0 0 0
Nghost:    208 ave 208 max 208 min
Histogram: 1 0 0 0 0 0 0 0 0 0
Neighs:    17126 ave 17126 max 17126 min
Histogram: 1 0 0 0 0 0 0 0 0 0

Total # of neighbors = 17126
Ave neighs/atom = 39.6435
Ave special neighs/atom = 10.6852
Neighbor list builds = 38
Dangerous builds = 0
unfix pysimm_md
min_style cg
minimize 0.001 0.001 10000 100000
WARNING: Using 'neigh_modify every 1 delay 0 check yes' setting during minimization (../min.cpp:190)
PPPM initialization ...
  using 12-bit tables for long-range coulomb (../kspace.cpp:332)
  G vector (1/distance) = 0.100876
  grid = 18 18 18
  stencil order = 5
  estimated absolute RMS force accuracy = 0.030562
  estimated relative force accuracy = 9.20366e-05
  using double precision KISS FFT
  3d grid and FFT values/proc = 12167 5832
Per MPI rank memory allocation (min/avg/max) = 19.66 | 19.66 | 19.66 Mbytes
Step Temp E_pair E_mol TotEng Press 
    2000    159.24973    541.97781    366.32934    1112.8999   0.14348408 
    2017    159.24973    526.58895    238.75927    969.94099   0.83759956 
Loop time of 0.083663 on 1 procs for 17 steps with 432 atoms

100.4% CPU use with 1 MPI tasks x no OpenMP threads

Minimization stats:
  Stopping criterion = energy tolerance
  Energy initial, next-to-last, final = 
         908.307142164      765.901864902      765.348218858
  Force two-norm initial, final = 455.755 33.9709
  Force max component initial, final = 86.1271 5.16216
  Final line search alpha, max atom move = 0.0106866 0.0551659
  Iterations, force evaluations = 17 34

MPI task timing breakdown:
Section |  min time  |  avg time  |  max time  |%varavg| %total
---------------------------------------------------------------
Pair    | 0.022971   | 0.022971   | 0.022971   |   0.0 | 27.46
Bond    | 0.0071931  | 0.0071931  | 0.0071931  |   0.0 |  8.60
Kspace  | 0.053033   | 0.053033   | 0.053033   |   0.0 | 63.39
Neigh   | 0          | 0          | 0          |   0.0 |  0.00
Comm    | 5.7936e-05 | 5.7936e-05 | 5.7936e-05 |   0.0 |  0.07
Output  | 0          | 0          | 0          |   0.0 |  0.00
Modify  | 0          | 0          | 0          |   0.0 |  0.00
Other   |            | 0.0004084  |            |       |  0.49

Nlocal:    432 ave 432 max 432 min
Histogram: 1 0 0 0 0 0 0 0 0 0
Nghost:    211 ave 211 max 211 min
Histogram: 1 0 0 0 0 0 0 0 0 0
Neighs:    17101 ave 17101 max 17101 min
Histogram: 1 0 0 0 0 0 0 0 0 0

Total # of neighbors = 17101
Ave neighs/atom = 39.5856
Ave special neighs/atom = 10.6852
Neighbor list builds = 0
Dangerous builds = 0
write_dump all custom pysimm.dump.tmp id q x y z vx vy vz
quit


################################################################################
##################################    Init    ##################################
################################################################################
units           real
atom_style      full
pair_style      lj/cut/coul/long 12.0  12.0
kspace_style    pppm 1e-4
bond_style      harmonic
angle_style     harmonic
dihedral_style  fourier
improper_style  cvff
special_bonds   amber
pair_modify     mix arithmetic
read_data       temp.lmps
  orthogonal box = (-97.2175 -97.2175 -97.2175) to (97.2175 97.2175 97.2175)
  1 by 1 by 1 MPI processor grid
  reading atoms ...
  486 atoms
  reading velocities ...
  486 velocities
  scanning bonds ...
  3 = max bonds/atom
  scanning angles ...
  6 = max angles/atom
  scanning dihedrals ...
  24 = max dihedrals/atom
  scanning impropers ...
  1 = max impropers/atom
  reading bonds ...
  521 bonds
  reading angles ...
  879 angles
  reading dihedrals ...
  1306 dihedrals
  reading impropers ...
  162 impropers
  4 = max # of 1-2 neighbors
  10 = max # of 1-3 neighbors
  19 = max # of 1-4 neighbors
  22 = max # of special neighbors
  special bonds CPU = 0.000548124 secs
  read_data CPU = 0.00771499 secs
################################################################################

timestep        1
fix             pysimm_md all nve/limit 0.1
run             2000
PPPM initialization ...
WARNING: System is not charge neutral, net charge = -3.6e-05 (../kspace.cpp:313)
  using 12-bit tables for long-range coulomb (../kspace.cpp:332)
  G vector (1/distance) = 0.100876
  grid = 18 18 18
  stencil order = 5
  estimated absolute RMS force accuracy = 0.0324159
  estimated relative force accuracy = 9.76195e-05
  using double precision KISS FFT
  3d grid and FFT values/proc = 12167 5832
Neighbor list info ...
  update every 1 steps, delay 10 steps, check yes
  max neighbors/atom: 2000, page size: 100000
  master list distance cutoff = 14
  ghost atom cutoff = 14
  binsize = 7, bins = 28 28 28
  1 neighbor lists, perpetual/occasional/extra = 1 0 0
  (1) pair lj/cut/coul/long, perpetual
      attributes: half, newton on
      pair build: half/bin/newton
      stencil: half/bin/3d/newton
      bin: standard
Per MPI rank memory allocation (min/avg/max) = 18.54 | 18.54 | 18.54 Mbytes
Step Temp E_pair E_mol TotEng Press 
       0    143.35546    593.87884    418.31345    1219.4403   -1.0732675 
    2000    146.48371    598.90179    411.94897    1222.6212   -2.0673443 
Loop time of 4.6011 on 1 procs for 2000 steps with 486 atoms

Performance: 37.556 ns/day, 0.639 hours/ns, 434.679 timesteps/s
99.6% CPU use with 1 MPI tasks x no OpenMP threads

MPI task timing breakdown:
Section |  min time  |  avg time  |  max time  |%varavg| %total
---------------------------------------------------------------
Pair    | 0.93923    | 0.93923    | 0.93923    |   0.0 | 20.41
Bond    | 0.42235    | 0.42235    | 0.42235    |   0.0 |  9.18
Kspace  | 3.1808     | 3.1808     | 3.1808     |   0.0 | 69.13
Neigh   | 0.030468   | 0.030468   | 0.030468   |   0.0 |  0.66
Comm    | 0.0042353  | 0.0042353  | 0.0042353  |   0.0 |  0.09
Output  | 2.5988e-05 | 2.5988e-05 | 2.5988e-05 |   0.0 |  0.00
Modify  | 0.016343   | 0.016343   | 0.016343   |   0.0 |  0.36
Other   |            | 0.007638   |            |       |  0.17

Nlocal:    486 ave 486 max 486 min
Histogram: 1 0 0 0 0 0 0 0 0 0
Nghost:    228 ave 228 max 228 min
Histogram: 1 0 0 0 0 0 0 0 0 0
Neighs:    20237 ave 20237 max 20237 min
Histogram: 1 0 0 0 0 0 0 0 0 0

Total # of neighbors = 20237
Ave neighs/atom = 41.6399
Ave special neighs/atom = 10.6914
Neighbor list builds = 40
Dangerous builds = 0
unfix pysimm_md
min_style cg
minimize 0.001 0.001 10000 100000
WARNING: Using 'neigh_modify every 1 delay 0 check yes' setting during minimization (../min.cpp:190)
PPPM initialization ...
  using 12-bit tables for long-range coulomb (../kspace.cpp:332)
  G vector (1/distance) = 0.100876
  grid = 18 18 18
  stencil order = 5
  estimated absolute RMS force accuracy = 0.0324159
  estimated relative force accuracy = 9.76195e-05
  using double precision KISS FFT
  3d grid and FFT values/proc = 12167 5832
Per MPI rank memory allocation (min/avg/max) = 19.67 | 19.67 | 19.67 Mbytes
Step Temp E_pair E_mol TotEng Press 
    2000    146.48371    598.90179    411.94897    1222.6212   -2.0673443 
    2018    146.48371    589.77271    273.19698    1074.7401   0.50497987 
Loop time of 0.10203 on 1 procs for 18 steps with 486 atoms

100.0% CPU use with 1 MPI tasks x no OpenMP threads

Minimization stats:
  Stopping criterion = energy tolerance
  Energy initial, next-to-last, final = 
         1010.85076436      863.556158813      862.969682848
  Force two-norm initial, final = 432.684 39.9058
  Force max component initial, final = 75.4533 6.61716
  Final line search alpha, max atom move = 0.00756744 0.050075
  Iterations, force evaluations = 18 36

MPI task timing breakdown:
Section |  min time  |  avg time  |  max time  |%varavg| %total
---------------------------------------------------------------
Pair    | 0.030027   | 0.030027   | 0.030027   |   0.0 | 29.43
Bond    | 0.0088084  | 0.0088084  | 0.0088084  |   0.0 |  8.63
Kspace  | 0.062615   | 0.062615   | 0.062615   |   0.0 | 61.37
Neigh   | 0          | 0          | 0          |   0.0 |  0.00
Comm    | 7.4148e-05 | 7.4148e-05 | 7.4148e-05 |   0.0 |  0.07
Output  | 0          | 0          | 0          |   0.0 |  0.00
Modify  | 0          | 0          | 0          |   0.0 |  0.00
Other   |            | 0.0005059  |            |       |  0.50

Nlocal:    486 ave 486 max 486 min
Histogram: 1 0 0 0 0 0 0 0 0 0
Nghost:    230 ave 230 max 230 min
Histogram: 1 0 0 0 0 0 0 0 0 0
Neighs:    20256 ave 20256 max 20256 min
Histogram: 1 0 0 0 0 0 0 0 0 0

Total # of neighbors = 20256
Ave neighs/atom = 41.679
Ave special neighs/atom = 10.6914
Neighbor list builds = 0
Dangerous builds = 0
write_dump all custom pysimm.dump.tmp id q x y z vx vy vz
quit


################################################################################
##################################    Init    ##################################
################################################################################
units           real
atom_style      full
pair_style      lj/cut/coul/long 12.0  12.0
kspace_style    pppm 1e-4
bond_style      harmonic
angle_style     harmonic
dihedral_style  fourier
improper_style  cvff
special_bonds   amber
pair_modify     mix arithmetic
read_data       temp.lmps
  orthogonal box = (-97.2175 -97.2175 -97.2175) to (97.2175 97.2175 97.2175)
  1 by 1 by 1 MPI processor grid
  reading atoms ...
  540 atoms
  reading velocities ...
  540 velocities
  scanning bonds ...
  3 = max bonds/atom
  scanning angles ...
  6 = max angles/atom
  scanning dihedrals ...
  24 = max dihedrals/atom
  scanning impropers ...
  1 = max impropers/atom
  reading bonds ...
  579 bonds
  reading angles ...
  977 angles
  reading dihedrals ...
  1452 dihedrals
  reading impropers ...
  180 impropers
  4 = max # of 1-2 neighbors
  10 = max # of 1-3 neighbors
  19 = max # of 1-4 neighbors
  22 = max # of special neighbors
  special bonds CPU = 0.000562191 secs
  read_data CPU = 0.00804687 secs
################################################################################

timestep        1
fix             pysimm_md all nve/limit 0.1
run             2000
PPPM initialization ...
WARNING: System is not charge neutral, net charge = -4e-05 (../kspace.cpp:313)
  using 12-bit tables for long-range coulomb (../kspace.cpp:332)
  G vector (1/distance) = 0.100879
  grid = 18 18 18
  stencil order = 5
  estimated absolute RMS force accuracy = 0.0341725
  estimated relative force accuracy = 0.00010291
  using double precision KISS FFT
  3d grid and FFT values/proc = 12167 5832
Neighbor list info ...
  update every 1 steps, delay 10 steps, check yes
  max neighbors/atom: 2000, page size: 100000
  master list distance cutoff = 14
  ghost atom cutoff = 14
  binsize = 7, bins = 28 28 28
  1 neighbor lists, perpetual/occasional/extra = 1 0 0
  (1) pair lj/cut/coul/long, perpetual
      attributes: half, newton on
      pair build: half/bin/newton
      stencil: half/bin/3d/newton
      bin: standard
Per MPI rank memory allocation (min/avg/max) = 18.55 | 18.55 | 18.55 Mbytes
Step Temp E_pair E_mol TotEng Press 
       0    133.46073    1051.8208    526.26503    1792.5114    13.703602 
    2000    184.92586    668.35756    545.43493    1510.9048   -2.3042811 
Loop time of 4.98652 on 1 procs for 2000 steps with 540 atoms

Performance: 34.653 ns/day, 0.693 hours/ns, 401.081 timesteps/s
100.0% CPU use with 1 MPI tasks x no OpenMP threads

MPI task timing breakdown:
Section |  min time  |  avg time  |  max time  |%varavg| %total
---------------------------------------------------------------
Pair    | 1.1181     | 1.1181     | 1.1181     |   0.0 | 22.42
Bond    | 0.47635    | 0.47635    | 0.47635    |   0.0 |  9.55
Kspace  | 3.2976     | 3.2976     | 3.2976     |   0.0 | 66.13
Neigh   | 0.063642   | 0.063642   | 0.063642   |   0.0 |  1.28
Comm    | 0.004739   | 0.004739   | 0.004739   |   0.0 |  0.10
Output  | 2.6941e-05 | 2.6941e-05 | 2.6941e-05 |   0.0 |  0.00
Modify  | 0.018759   | 0.018759   | 0.018759   |   0.0 |  0.38
Other   |            | 0.007274   |            |       |  0.15

Nlocal:    540 ave 540 max 540 min
Histogram: 1 0 0 0 0 0 0 0 0 0
Nghost:    233 ave 233 max 233 min
Histogram: 1 0 0 0 0 0 0 0 0 0
Neighs:    22855 ave 22855 max 22855 min
Histogram: 1 0 0 0 0 0 0 0 0 0

Total # of neighbors = 22855
Ave neighs/atom = 42.3241
Ave special neighs/atom = 10.6963
Neighbor list builds = 73
Dangerous builds = 0
unfix pysimm_md
min_style cg
minimize 0.001 0.001 10000 100000
WARNING: Using 'neigh_modify every 1 delay 0 check yes' setting during minimization (../min.cpp:190)
PPPM initialization ...
  using 12-bit tables for long-range coulomb (../kspace.cpp:332)
  G vector (1/distance) = 0.100879
  grid = 18 18 18
  stencil order = 5
  estimated absolute RMS force accuracy = 0.0341725
  estimated relative force accuracy = 0.00010291
  using double precision KISS FFT
  3d grid and FFT values/proc = 12167 5832
Per MPI rank memory allocation (min/avg/max) = 19.68 | 19.68 | 19.68 Mbytes
Step Temp E_pair E_mol TotEng Press 
    2000    184.92586    668.35756    545.43493    1510.9048   -2.3042811 
    2018    184.92586    658.65822    306.42831    1262.1989    1.3934016 
Loop time of 0.101664 on 1 procs for 18 steps with 540 atoms

100.3% CPU use with 1 MPI tasks x no OpenMP threads

Minimization stats:
  Stopping criterion = energy tolerance
  Energy initial, next-to-last, final = 
         1213.79249099      965.786563598      965.086535734
  Force two-norm initial, final = 558.138 43.847
  Force max component initial, final = 81.8013 6.99252
  Final line search alpha, max atom move = 0.00397521 0.0277967
  Iterations, force evaluations = 18 36

MPI task timing breakdown:
Section |  min time  |  avg time  |  max time  |%varavg| %total
---------------------------------------------------------------
Pair    | 0.032572   | 0.032572   | 0.032572   |   0.0 | 32.04
Bond    | 0.0094578  | 0.0094578  | 0.0094578  |   0.0 |  9.30
Kspace  | 0.059069   | 0.059069   | 0.059069   |   0.0 | 58.10
Neigh   | 0          | 0          | 0          |   0.0 |  0.00
Comm    | 6.6042e-05 | 6.6042e-05 | 6.6042e-05 |   0.0 |  0.06
Output  | 0          | 0          | 0          |   0.0 |  0.00
Modify  | 0          | 0          | 0          |   0.0 |  0.00
Other   |            | 0.000499   |            |       |  0.49

Nlocal:    540 ave 540 max 540 min
Histogram: 1 0 0 0 0 0 0 0 0 0
Nghost:    232 ave 232 max 232 min
Histogram: 1 0 0 0 0 0 0 0 0 0
Neighs:    22861 ave 22861 max 22861 min
Histogram: 1 0 0 0 0 0 0 0 0 0

Total # of neighbors = 22861
Ave neighs/atom = 42.3352
Ave special neighs/atom = 10.6963
Neighbor list builds = 0
Dangerous builds = 0
write_dump all custom pysimm.dump.tmp id q x y z vx vy vz
quit


################################################################################
##################################    Init    ##################################
################################################################################
units           real
atom_style      full
pair_style      lj/cut/coul/long 12.0  12.0
kspace_style    pppm 1e-4
bond_style      harmonic
angle_style     harmonic
dihedral_style  fourier
improper_style  cvff
special_bonds   amber
pair_modify     mix arithmetic
read_data       temp.lmps
  orthogonal box = (-122.486 -122.486 -122.486) to (122.486 122.486 122.486)
  1 by 1 by 1 MPI processor grid
  reading atoms ...
  594 atoms
  reading velocities ...
  594 velocities
  scanning bonds ...
  3 = max bonds/atom
  scanning angles ...
  6 = max angles/atom
  scanning dihedrals ...
  24 = max dihedrals/atom
  scanning impropers ...
  1 = max impropers/atom
  reading bonds ...
  637 bonds
  reading angles ...
  1075 angles
  reading dihedrals ...
  1598 dihedrals
  reading impropers ...
  198 impropers
  4 = max # of 1-2 neighbors
  10 = max # of 1-3 neighbors
  19 = max # of 1-4 neighbors
  22 = max # of special neighbors
  special bonds CPU = 0.000611067 secs
  read_data CPU = 0.00882983 secs
################################################################################

timestep        1
fix             pysimm_md all nve/limit 0.1
run             2000
PPPM initialization ...
WARNING: System is not charge neutral, net charge = -4.4e-05 (../kspace.cpp:313)
  using 12-bit tables for long-range coulomb (../kspace.cpp:332)
  G vector (1/distance) = 0.0920633
  grid = 20 20 20
  stencil order = 5
  estimated absolute RMS force accuracy = 0.0323715
  estimated relative force accuracy = 9.74857e-05
  using double precision KISS FFT
  3d grid and FFT values/proc = 15625 8000
Neighbor list info ...
  update every 1 steps, delay 10 steps, check yes
  max neighbors/atom: 2000, page size: 100000
  master list distance cutoff = 14
  ghost atom cutoff = 14
  binsize = 7, bins = 35 35 35
[...]
  using double precision KISS FFT
  3d grid and FFT values/proc = 50653 32768
Per MPI rank memory allocation (min/avg/max) = 24.9 | 24.9 | 24.9 Mbytes
Step Temp E_pair E_mol TotEng Press 
    2000    550.88062    2935.1698    2824.9518    9926.0544    1.6923783 
    2029    550.88062    2861.4798    1446.0199    8473.4326    2.5030144 
Loop time of 1.0069 on 1 procs for 29 steps with 2538 atoms

100.1% CPU use with 1 MPI tasks x no OpenMP threads

Minimization stats:
  Stopping criterion = energy tolerance
  Energy initial, next-to-last, final = 
         5760.12158504      4311.40639164      4307.49977273
  Force two-norm initial, final = 1317.08 95.2771
  Force max component initial, final = 159.17 8.68748
  Final line search alpha, max atom move = 0.0028356 0.0246342
  Iterations, force evaluations = 29 58

MPI task timing breakdown:
Section |  min time  |  avg time  |  max time  |%varavg| %total
---------------------------------------------------------------
Pair    | 0.36841    | 0.36841    | 0.36841    |   0.0 | 36.59
Bond    | 0.070189   | 0.070189   | 0.070189   |   0.0 |  6.97
Kspace  | 0.55889    | 0.55889    | 0.55889    |   0.0 | 55.51
Neigh   | 0.0056932  | 0.0056932  | 0.0056932  |   0.0 |  0.57
Comm    | 7.0572e-05 | 7.0572e-05 | 7.0572e-05 |   0.0 |  0.01
Output  | 0          | 0          | 0          |   0.0 |  0.00
Modify  | 0          | 0          | 0          |   0.0 |  0.00
Other   |            | 0.00365    |            |       |  0.36

Nlocal:    2538 ave 2538 max 2538 min
Histogram: 1 0 0 0 0 0 0 0 0 0
Nghost:    0 ave 0 max 0 min
Histogram: 1 0 0 0 0 0 0 0 0 0
Neighs:    176819 ave 176819 max 176819 min
Histogram: 1 0 0 0 0 0 0 0 0 0

Total # of neighbors = 176819
Ave neighs/atom = 69.6686
Ave special neighs/atom = 10.7313
Neighbor list builds = 1
Dangerous builds = 0
write_dump all custom pysimm.dump.tmp id q x y z vx vy vz
quit


################################################################################
##################################    Init    ##################################
################################################################################
units           real
atom_style      full
pair_style      lj/cut/coul/long 12.0  12.0
kspace_style    pppm 1e-4
bond_style      harmonic
angle_style     harmonic
dihedral_style  fourier
improper_style  cvff
special_bonds   amber
pair_modify     mix arithmetic
read_data       temp.lmps
  orthogonal box = (-205.173 -205.173 -205.173) to (205.173 205.173 205.173)
  1 by 1 by 1 MPI processor grid
  reading atoms ...
  2592 atoms
  reading velocities ...
  2592 velocities
  scanning bonds ...
  3 = max bonds/atom
  scanning angles ...
  6 = max angles/atom
  scanning dihedrals ...
  24 = max dihedrals/atom
  scanning impropers ...
  1 = max impropers/atom
  reading bonds ...
  2783 bonds
  reading angles ...
  4701 angles
  reading dihedrals ...
  7000 dihedrals
  reading impropers ...
  864 impropers
  4 = max # of 1-2 neighbors
  10 = max # of 1-3 neighbors
  19 = max # of 1-4 neighbors
  22 = max # of special neighbors
  special bonds CPU = 0.00197887 secs
  read_data CPU = 0.0254679 secs
################################################################################

timestep        1
fix             pysimm_md all nve/limit 0.1
run             2000
PPPM initialization ...
WARNING: System is not charge neutral, net charge = -0.000192 (../kspace.cpp:313)
  using 12-bit tables for long-range coulomb (../kspace.cpp:332)
  G vector (1/distance) = 0.0889577
  grid = 32 32 32
  stencil order = 5
  estimated absolute RMS force accuracy = 0.0338216
  estimated relative force accuracy = 0.000101853
  using double precision KISS FFT
  3d grid and FFT values/proc = 50653 32768
Neighbor list info ...
  update every 1 steps, delay 10 steps, check yes
  max neighbors/atom: 2000, page size: 100000
  master list distance cutoff = 14
  ghost atom cutoff = 14
  binsize = 7, bins = 59 59 59
  1 neighbor lists, perpetual/occasional/extra = 1 0 0
  (1) pair lj/cut/coul/long, perpetual
      attributes: half, newton on
      pair build: half/bin/newton
      stencil: half/bin/3d/newton
      bin: standard
Per MPI rank memory allocation (min/avg/max) = 23.78 | 23.78 | 23.78 Mbytes
Step Temp E_pair E_mol TotEng Press 
       0     539.7433     2927.611    513264.29    520360.49   -348.74185 
    2000    542.09977     3042.742    3156.8648    10386.395   0.94297654 
Loop time of 31.0717 on 1 procs for 2000 steps with 2592 atoms

Performance: 5.561 ns/day, 4.316 hours/ns, 64.367 timesteps/s
100.0% CPU use with 1 MPI tasks x no OpenMP threads

MPI task timing breakdown:
Section |  min time  |  avg time  |  max time  |%varavg| %total
---------------------------------------------------------------
Pair    | 8.2781     | 8.2781     | 8.2781     |   0.0 | 26.64
Bond    | 2.2458     | 2.2458     | 2.2458     |   0.0 |  7.23
Kspace  | 19.429     | 19.429     | 19.429     |   0.0 | 62.53
Neigh   | 1.0098     | 1.0098     | 1.0098     |   0.0 |  3.25
Comm    | 0.0091708  | 0.0091708  | 0.0091708  |   0.0 |  0.03
Output  | 3.0994e-05 | 3.0994e-05 | 3.0994e-05 |   0.0 |  0.00
Modify  | 0.085329   | 0.085329   | 0.085329   |   0.0 |  0.27
Other   |            | 0.01428    |            |       |  0.05

Nlocal:    2592 ave 2592 max 2592 min
Histogram: 1 0 0 0 0 0 0 0 0 0
Nghost:    0 ave 0 max 0 min
Histogram: 1 0 0 0 0 0 0 0 0 0
Neighs:    191368 ave 191368 max 191368 min
Histogram: 1 0 0 0 0 0 0 0 0 0

Total # of neighbors = 191368
Ave neighs/atom = 73.8302
Ave special neighs/atom = 10.7315
Neighbor list builds = 176
Dangerous builds = 0
unfix pysimm_md
min_style cg
minimize 0.001 0.001 10000 100000
WARNING: Using 'neigh_modify every 1 delay 0 check yes' setting during minimization (../min.cpp:190)
PPPM initialization ...
  using 12-bit tables for long-range coulomb (../kspace.cpp:332)
  G vector (1/distance) = 0.0889577
  grid = 32 32 32
  stencil order = 5
  estimated absolute RMS force accuracy = 0.0338216
  estimated relative force accuracy = 0.000101853
  using double precision KISS FFT
  3d grid and FFT values/proc = 50653 32768
Per MPI rank memory allocation (min/avg/max) = 24.91 | 24.91 | 24.91 Mbytes
Step Temp E_pair E_mol TotEng Press 
    2000    542.09977     3042.742    3156.8648    10386.395   0.94297654 
    2033    542.09977    2914.8134     1507.057    8608.6581    2.3724155 
Loop time of 1.20584 on 1 procs for 33 steps with 2592 atoms

100.1% CPU use with 1 MPI tasks x no OpenMP threads

Minimization stats:
  Stopping criterion = energy tolerance
  Energy initial, next-to-last, final = 
         6199.60680699       4425.6966036      4421.87036116
  Force two-norm initial, final = 1407.52 94.5642
  Force max component initial, final = 166.615 8.86484
  Final line search alpha, max atom move = 0.00172071 0.0152538
  Iterations, force evaluations = 33 66

MPI task timing breakdown:
Section |  min time  |  avg time  |  max time  |%varavg| %total
---------------------------------------------------------------
Pair    | 0.44785    | 0.44785    | 0.44785    |   0.0 | 37.14
Bond    | 0.082294   | 0.082294   | 0.082294   |   0.0 |  6.82
Kspace  | 0.66547    | 0.66547    | 0.66547    |   0.0 | 55.19
Neigh   | 0.005986   | 0.005986   | 0.005986   |   0.0 |  0.50
Comm    | 7.534e-05  | 7.534e-05  | 7.534e-05  |   0.0 |  0.01
Output  | 0          | 0          | 0          |   0.0 |  0.00
Modify  | 0          | 0          | 0          |   0.0 |  0.00
Other   |            | 0.004165   |            |       |  0.35

Nlocal:    2592 ave 2592 max 2592 min
Histogram: 1 0 0 0 0 0 0 0 0 0
Nghost:    0 ave 0 max 0 min
Histogram: 1 0 0 0 0 0 0 0 0 0
Neighs:    191331 ave 191331 max 191331 min
Histogram: 1 0 0 0 0 0 0 0 0 0

Total # of neighbors = 191331
Ave neighs/atom = 73.816
Ave special neighs/atom = 10.7315
Neighbor list builds = 1
Dangerous builds = 0
write_dump all custom pysimm.dump.tmp id q x y z vx vy vz
quit


################################################################################
##################################    Init    ##################################
################################################################################
units           real
atom_style      full
pair_style      lj/cut/coul/long 12.0  12.0
kspace_style    pppm 1e-4
bond_style      harmonic
angle_style     harmonic
dihedral_style  fourier
improper_style  cvff
special_bonds   amber
pair_modify     mix arithmetic
read_data       temp.lmps
  orthogonal box = (-206.618 -206.618 -206.618) to (206.618 206.618 206.618)
  1 by 1 by 1 MPI processor grid
  reading atoms ...
  2646 atoms
  reading velocities ...
  2646 velocities
  scanning bonds ...
  3 = max bonds/atom
  scanning angles ...
  6 = max angles/atom
  scanning dihedrals ...
  24 = max dihedrals/atom
  scanning impropers ...
  1 = max impropers/atom
  reading bonds ...
  2841 bonds
  reading angles ...
  4799 angles
  reading dihedrals ...
  7146 dihedrals
  reading impropers ...
  882 impropers
  4 = max # of 1-2 neighbors
  10 = max # of 1-3 neighbors
  19 = max # of 1-4 neighbors
  22 = max # of special neighbors
  special bonds CPU = 0.00198913 secs
  read_data CPU = 0.0258439 secs
################################################################################

timestep        1
fix             pysimm_md all nve/limit 0.1
run             2000
PPPM initialization ...
WARNING: System is not charge neutral, net charge = -0.000196 (../kspace.cpp:313)
  using 12-bit tables for long-range coulomb (../kspace.cpp:332)
  G vector (1/distance) = 0.0884878
  grid = 32 32 32
  stencil order = 5
  estimated absolute RMS force accuracy = 0.0342226
  estimated relative force accuracy = 0.00010306
  using double precision KISS FFT
  3d grid and FFT values/proc = 50653 32768
Neighbor list info ...
  update every 1 steps, delay 10 steps, check yes
  max neighbors/atom: 2000, page size: 100000
  master list distance cutoff = 14
  ghost atom cutoff = 14
  binsize = 7, bins = 60 60 60
  1 neighbor lists, perpetual/occasional/extra = 1 0 0
  (1) pair lj/cut/coul/long, perpetual
      attributes: half, newton on
      pair build: half/bin/newton
      stencil: half/bin/3d/newton
      bin: standard
Per MPI rank memory allocation (min/avg/max) = 23.83 | 23.83 | 23.83 Mbytes
Step Temp E_pair E_mol TotEng Press 
       0    531.36917    2982.2231    576437.85    583609.51   -383.20032 
    2000    552.36368    3039.8694    3250.3553    10645.194  -0.47305268 
Loop time of 32.3572 on 1 procs for 2000 steps with 2646 atoms

Performance: 5.340 ns/day, 4.494 hours/ns, 61.810 timesteps/s
100.0% CPU use with 1 MPI tasks x no OpenMP threads

MPI task timing breakdown:
Section |  min time  |  avg time  |  max time  |%varavg| %total
---------------------------------------------------------------
Pair    | 8.8532     | 8.8532     | 8.8532     |   0.0 | 27.36
Bond    | 2.2903     | 2.2903     | 2.2903     |   0.0 |  7.08
Kspace  | 20.048     | 20.048     | 20.048     |   0.0 | 61.96
Neigh   | 1.0557     | 1.0557     | 1.0557     |   0.0 |  3.26
Comm    | 0.0093739  | 0.0093739  | 0.0093739  |   0.0 |  0.03
Output  | 3.2902e-05 | 3.2902e-05 | 3.2902e-05 |   0.0 |  0.00
Modify  | 0.086323   | 0.086323   | 0.086323   |   0.0 |  0.27
Other   |            | 0.01431    |            |       |  0.04

Nlocal:    2646 ave 2646 max 2646 min
Histogram: 1 0 0 0 0 0 0 0 0 0
Nghost:    0 ave 0 max 0 min
Histogram: 1 0 0 0 0 0 0 0 0 0
Neighs:    197369 ave 197369 max 197369 min
Histogram: 1 0 0 0 0 0 0 0 0 0

Total # of neighbors = 197369
Ave neighs/atom = 74.5915
Ave special neighs/atom = 10.7317
Neighbor list builds = 175
Dangerous builds = 0
unfix pysimm_md
min_style cg
minimize 0.001 0.001 10000 100000
WARNING: Using 'neigh_modify every 1 delay 0 check yes' setting during minimization (../min.cpp:190)
PPPM initialization ...
  using 12-bit tables for long-range coulomb (../kspace.cpp:332)
  G vector (1/distance) = 0.0884878
  grid = 32 32 32
  stencil order = 5
  estimated absolute RMS force accuracy = 0.0342226
  estimated relative force accuracy = 0.00010306
  using double precision KISS FFT
  3d grid and FFT values/proc = 50653 32768
Per MPI rank memory allocation (min/avg/max) = 25.34 | 25.34 | 25.34 Mbytes
Step Temp E_pair E_mol TotEng Press 
    2000    552.36368    3039.8694    3250.3553    10645.194  -0.47305268 
    2024    552.36368    2955.0819     1626.609    8936.6601    2.2819555 
Loop time of 0.939451 on 1 procs for 24 steps with 2646 atoms

100.0% CPU use with 1 MPI tasks x no OpenMP threads

Minimization stats:
  Stopping criterion = energy tolerance
  Energy initial, next-to-last, final = 
           6290.224744      4584.29180751      4581.69086732
  Force two-norm initial, final = 1402.15 117.974
  Force max component initial, final = 150.453 13.1966
  Final line search alpha, max atom move = 0.00156558 0.0206604
  Iterations, force evaluations = 24 48

MPI task timing breakdown:
Section |  min time  |  avg time  |  max time  |%varavg| %total
---------------------------------------------------------------
Pair    | 0.36152    | 0.36152    | 0.36152    |   0.0 | 38.48
Bond    | 0.063583   | 0.063583   | 0.063583   |   0.0 |  6.77
Kspace  | 0.50413    | 0.50413    | 0.50413    |   0.0 | 53.66
Neigh   | 0.0067511  | 0.0067511  | 0.0067511  |   0.0 |  0.72
Comm    | 8.893e-05  | 8.893e-05  | 8.893e-05  |   0.0 |  0.01
Output  | 0          | 0          | 0          |   0.0 |  0.00
Modify  | 0          | 0          | 0          |   0.0 |  0.00
Other   |            | 0.003387   |            |       |  0.36

Nlocal:    2646 ave 2646 max 2646 min
Histogram: 1 0 0 0 0 0 0 0 0 0
Nghost:    0 ave 0 max 0 min
Histogram: 1 0 0 0 0 0 0 0 0 0
Neighs:    197445 ave 197445 max 197445 min
Histogram: 1 0 0 0 0 0 0 0 0 0

Total # of neighbors = 197445
Ave neighs/atom = 74.6202
Ave special neighs/atom = 10.7317
Neighbor list builds = 1
Dangerous builds = 0
write_dump all custom pysimm.dump.tmp id q x y z vx vy vz
quit


################################################################################
##################################    Init    ##################################
################################################################################
units           real
atom_style      full
pair_style      lj/cut/coul/long 12.0  12.0
kspace_style    pppm 1e-4
bond_style      harmonic
angle_style     harmonic
dihedral_style  fourier
improper_style  cvff
special_bonds   amber
pair_modify     mix arithmetic
read_data       temp.lmps
  orthogonal box = (-208.043 -208.043 -208.043) to (208.043 208.043 208.043)
  1 by 1 by 1 MPI processor grid
  reading atoms ...
  2700 atoms
  reading velocities ...
  2700 velocities
  scanning bonds ...
  3 = max bonds/atom
  scanning angles ...
  6 = max angles/atom
  scanning dihedrals ...
  24 = max dihedrals/atom
  scanning impropers ...
  1 = max impropers/atom
  reading bonds ...
  2899 bonds
  reading angles ...
  4897 angles
  reading dihedrals ...
  7292 dihedrals
  reading impropers ...
  900 impropers
  4 = max # of 1-2 neighbors
  10 = max # of 1-3 neighbors
  19 = max # of 1-4 neighbors
  22 = max # of special neighbors
  special bonds CPU = 0.00203085 secs
  read_data CPU = 0.0260022 secs
################################################################################

timestep        1
fix             pysimm_md all nve/limit 0.1
run             2000
PPPM initialization ...
WARNING: System is not charge neutral, net charge = -0.0002 (../kspace.cpp:313)
  using 12-bit tables for long-range coulomb (../kspace.cpp:332)
  G vector (1/distance) = 0.088029
  grid = 32 32 32
  stencil order = 5
  estimated absolute RMS force accuracy = 0.0346168
  estimated relative force accuracy = 0.000104247
  using double precision KISS FFT
  3d grid and FFT values/proc = 50653 32768
Neighbor list info ...
  update every 1 steps, delay 10 steps, check yes
  max neighbors/atom: 2000, page size: 100000
  master list distance cutoff = 14
  ghost atom cutoff = 14
  binsize = 7, bins = 60 60 60
  1 neighbor lists, perpetual/occasional/extra = 1 0 0
  (1) pair lj/cut/coul/long, perpetual
      attributes: half, newton on
      pair build: half/bin/newton
      stencil: half/bin/3d/newton
      bin: standard
Per MPI rank memory allocation (min/avg/max) = 24.22 | 24.22 | 24.22 Mbytes
Step Temp E_pair E_mol TotEng Press 
       0     541.6424    3019.4992    369710.25    377087.38   -241.56723 
    2000    451.79774     3088.366    3271.1004    9994.2725   0.14927347 
Loop time of 32.3482 on 1 procs for 2000 steps with 2700 atoms

Performance: 5.342 ns/day, 4.493 hours/ns, 61.827 timesteps/s
100.0% CPU use with 1 MPI tasks x no OpenMP threads

MPI task timing breakdown:
Section |  min time  |  avg time  |  max time  |%varavg| %total
---------------------------------------------------------------
Pair    | 8.9779     | 8.9779     | 8.9779     |   0.0 | 27.75
Bond    | 2.3423     | 2.3423     | 2.3423     |   0.0 |  7.24
Kspace  | 19.862     | 19.862     | 19.862     |   0.0 | 61.40
Neigh   | 1.051      | 1.051      | 1.051      |   0.0 |  3.25
Comm    | 0.0092406  | 0.0092406  | 0.0092406  |   0.0 |  0.03
Output  | 3.2902e-05 | 3.2902e-05 | 3.2902e-05 |   0.0 |  0.00
Modify  | 0.089997   | 0.089997   | 0.089997   |   0.0 |  0.28
Other   |            | 0.01587    |            |       |  0.05

Nlocal:    2700 ave 2700 max 2700 min
Histogram: 1 0 0 0 0 0 0 0 0 0
Nghost:    0 ave 0 max 0 min
Histogram: 1 0 0 0 0 0 0 0 0 0
Neighs:    204186 ave 204186 max 204186 min
Histogram: 1 0 0 0 0 0 0 0 0 0

Total # of neighbors = 204186
Ave neighs/atom = 75.6244
Ave special neighs/atom = 10.7319
Neighbor list builds = 169
Dangerous builds = 0
unfix pysimm_md
min_style cg
minimize 0.001 0.001 10000 100000
WARNING: Using 'neigh_modify every 1 delay 0 check yes' setting during minimization (../min.cpp:190)
PPPM initialization ...
  using 12-bit tables for long-range coulomb (../kspace.cpp:332)
  G vector (1/distance) = 0.088029
  grid = 32 32 32
  stencil order = 5
  estimated absolute RMS force accuracy = 0.0346168
  estimated relative force accuracy = 0.000104247
  using double precision KISS FFT
  3d grid and FFT values/proc = 50653 32768
Per MPI rank memory allocation (min/avg/max) = 25.35 | 25.35 | 25.35 Mbytes
Step Temp E_pair E_mol TotEng Press 
    2000    451.79774     3088.366    3271.1004    9994.2725   0.14927347 
    2020    451.79774    2990.0217    1635.1748    8260.0026    1.7850599 
Loop time of 0.747458 on 1 procs for 20 steps with 2700 atoms

99.8% CPU use with 1 MPI tasks x no OpenMP threads

Minimization stats:
  Stopping criterion = energy tolerance
  Energy initial, next-to-last, final = 
         6359.46645169      4629.50125369      4625.19648319
  Force two-norm initial, final = 1499.6 131.071
  Force max component initial, final = 156.715 18.7385
  Final line search alpha, max atom move = 0.00211341 0.0396021
  Iterations, force evaluations = 20 40

MPI task timing breakdown:
Section |  min time  |  avg time  |  max time  |%varavg| %total
---------------------------------------------------------------
Pair    | 0.29179    | 0.29179    | 0.29179    |   0.0 | 39.04
Bond    | 0.051772   | 0.051772   | 0.051772   |   0.0 |  6.93
Kspace  | 0.40123    | 0.40123    | 0.40123    |   0.0 | 53.68
Neigh   | 0          | 0          | 0          |   0.0 |  0.00
Comm    | 3.7909e-05 | 3.7909e-05 | 3.7909e-05 |   0.0 |  0.01
Output  | 0          | 0          | 0          |   0.0 |  0.00
Modify  | 0          | 0          | 0          |   0.0 |  0.00
Other   |            | 0.00263    |            |       |  0.35

Nlocal:    2700 ave 2700 max 2700 min
Histogram: 1 0 0 0 0 0 0 0 0 0
Nghost:    0 ave 0 max 0 min
Histogram: 1 0 0 0 0 0 0 0 0 0
Neighs:    204128 ave 204128 max 204128 min
Histogram: 1 0 0 0 0 0 0 0 0 0

Total # of neighbors = 204128
Ave neighs/atom = 75.603
Ave special neighs/atom = 10.7319
Neighbor list builds = 0
Dangerous builds = 0
write_dump all custom pysimm.dump.tmp id q x y z vx vy vz
quit
