

################################################################################
##################################    Init    ##################################
################################################################################
units           real
atom_style      full
pair_style      lj/cut/coul/long 12.0  12.0
kspace_style    pppm 1e-4
bond_style      harmonic
angle_style     harmonic
dihedral_style  fourier
improper_style  cvff
special_bonds   amber
pair_modify     mix arithmetic
read_data       temp.lmps
  orthogonal box = (-56.3316 -56.3316 -56.3316) to (56.3316 56.3316 56.3316)
  1 by 1 by 1 MPI processor grid
  reading atoms ...
  122 atoms
  reading velocities ...
  122 velocities
  scanning bonds ...
  4 = max bonds/atom
  scanning angles ...
  6 = max angles/atom
  scanning dihedrals ...
  16 = max dihedrals/atom
  scanning impropers ...
  1 = max impropers/atom
  reading bonds ...
  121 bonds
  reading angles ...
  220 angles
  reading dihedrals ...
  281 dihedrals
  reading impropers ...
  10 impropers
  4 = max # of 1-2 neighbors
  7 = max # of 1-3 neighbors
  15 = max # of 1-4 neighbors
  19 = max # of special neighbors
  special bonds CPU = 0.00028801 secs
  read_data CPU = 0.00398397 secs
################################################################################

min_style cg
minimize 1e-06 1e-06 1000000 10000000
WARNING: Using 'neigh_modify every 1 delay 0 check yes' setting during minimization (../min.cpp:190)
PPPM initialization ...
  using 12-bit tables for long-range coulomb (../kspace.cpp:332)
  G vector (1/distance) = 0.128343
  grid = 15 15 15
  stencil order = 5
  estimated absolute RMS force accuracy = 0.0310107
  estimated relative force accuracy = 9.33878e-05
  using double precision KISS FFT
  3d grid and FFT values/proc = 8000 3375
Neighbor list info ...
  update every 1 steps, delay 0 steps, check yes
  max neighbors/atom: 2000, page size: 100000
  master list distance cutoff = 14
  ghost atom cutoff = 14
  binsize = 7, bins = 17 17 17
  1 neighbor lists, perpetual/occasional/extra = 1 0 0
  (1) pair lj/cut/coul/long, perpetual
      attributes: half, newton on
      pair build: half/bin/newton
      stencil: half/bin/3d/newton
      bin: standard
Per MPI rank memory allocation (min/avg/max) = 16.6 | 16.6 | 16.6 Mbytes
Step Temp E_pair E_mol TotEng Press 
       0    737.92153   -573.53843    242.72376   -64.662591    1.8655391 
      13    737.92153   -611.77141    105.88715   -239.73219    9.7950797 
Loop time of 0.079551 on 1 procs for 13 steps with 122 atoms

100.5% CPU use with 1 MPI tasks x no OpenMP threads

Minimization stats:
  Stopping criterion = linesearch alpha is zero
  Energy initial, next-to-last, final = 
        -330.814663584     -505.884262007     -505.884262007
  Force two-norm initial, final = 778.787 29.4177
  Force max component initial, final = 371.23 9.21454
  Final line search alpha, max atom move = 8.68112e-12 7.99926e-11
  Iterations, force evaluations = 13 81

MPI task timing breakdown:
Section |  min time  |  avg time  |  max time  |%varavg| %total
---------------------------------------------------------------
Pair    | 0.019238   | 0.019238   | 0.019238   |   0.0 | 24.18
Bond    | 0.0037677  | 0.0037677  | 0.0037677  |   0.0 |  4.74
Kspace  | 0.056249   | 0.056249   | 0.056249   |   0.0 | 70.71
Neigh   | 0          | 0          | 0          |   0.0 |  0.00
Comm    | 3.1233e-05 | 3.1233e-05 | 3.1233e-05 |   0.0 |  0.04
Output  | 0          | 0          | 0          |   0.0 |  0.00
Modify  | 0          | 0          | 0          |   0.0 |  0.00
Other   |            | 0.0002658  |            |       |  0.33

Nlocal:    122 ave 122 max 122 min
Histogram: 1 0 0 0 0 0 0 0 0 0
Nghost:    0 ave 0 max 0 min
Histogram: 1 0 0 0 0 0 0 0 0 0
Neighs:    6890 ave 6890 max 6890 min
Histogram: 1 0 0 0 0 0 0 0 0 0

Total # of neighbors = 6890
Ave neighs/atom = 56.4754
Ave special neighs/atom = 10.1967
Neighbor list builds = 0
Dangerous builds = 0
write_dump all custom pysimm.dump.tmp id q x y z vx vy vz
quit


################################################################################
##################################    Init    ##################################
################################################################################
units           real
atom_style      full
pair_style      lj/cut/coul/long 12.0  12.0
kspace_style    pppm 1e-4
bond_style      harmonic
angle_style     harmonic
dihedral_style  fourier
improper_style  cvff
special_bonds   amber
pair_modify     mix arithmetic
read_data       temp.lmps
  orthogonal box = (-70.9734 -70.9734 -70.9734) to (70.9734 70.9734 70.9734)
  1 by 1 by 1 MPI processor grid
  reading atoms ...
  134 atoms
  reading velocities ...
  134 velocities
  scanning bonds ...
  4 = max bonds/atom
  scanning angles ...
  6 = max angles/atom
  scanning dihedrals ...
  16 = max dihedrals/atom
  scanning impropers ...
  1 = max impropers/atom
  reading bonds ...
  133 bonds
  reading angles ...
  242 angles
  reading dihedrals ...
  310 dihedrals
  reading impropers ...
  11 impropers
  4 = max # of 1-2 neighbors
  7 = max # of 1-3 neighbors
  15 = max # of 1-4 neighbors
  19 = max # of special neighbors
  special bonds CPU = 0.000235081 secs
  read_data CPU = 0.00425005 secs
################################################################################

min_style cg
minimize 1e-06 1e-06 1000000 10000000
WARNING: Using 'neigh_modify every 1 delay 0 check yes' setting during minimization (../min.cpp:190)
PPPM initialization ...
  using 12-bit tables for long-range coulomb (../kspace.cpp:332)
  G vector (1/distance) = 0.115449
  grid = 16 16 16
  stencil order = 5
  estimated absolute RMS force accuracy = 0.0361908
  estimated relative force accuracy = 0.000108988
  using double precision KISS FFT
  3d grid and FFT values/proc = 9261 4096
Neighbor list info ...
  update every 1 steps, delay 0 steps, check yes
  max neighbors/atom: 2000, page size: 100000
  master list distance cutoff = 14
  ghost atom cutoff = 14
  binsize = 7, bins = 21 21 21
  1 neighbor lists, perpetual/occasional/extra = 1 0 0
  (1) pair lj/cut/coul/long, perpetual
      attributes: half, newton on
      pair build: half/bin/newton
      stencil: half/bin/3d/newton
      bin: standard
Per MPI rank memory allocation (min/avg/max) = 16.73 | 16.73 | 16.73 Mbytes
Step Temp E_pair E_mol TotEng Press 
       0    944.06168   -667.19093    259.97793    -32.94189  -0.71075772 
      23    944.06168   -678.56465    121.23249   -183.06105    5.7210321 
Loop time of 0.211365 on 1 procs for 23 steps with 134 atoms

99.8% CPU use with 1 MPI tasks x no OpenMP threads

Minimization stats:
  Stopping criterion = linesearch alpha is zero
  Energy initial, next-to-last, final = 
        -407.213007681     -557.332164448     -557.332164448
  Force two-norm initial, final = 621.318 19.4191
  Force max component initial, final = 291.962 4.62322
  Final line search alpha, max atom move = 1.62326e-11 7.5047e-11
  Iterations, force evaluations = 23 155

MPI task timing breakdown:
Section |  min time  |  avg time  |  max time  |%varavg| %total
---------------------------------------------------------------
Pair    | 0.05276    | 0.05276    | 0.05276    |   0.0 | 24.96
Bond    | 0.0089986  | 0.0089986  | 0.0089986  |   0.0 |  4.26
Kspace  | 0.14898    | 0.14898    | 0.14898    |   0.0 | 70.49
Neigh   | 0          | 0          | 0          |   0.0 |  0.00
Comm    | 7.0095e-05 | 7.0095e-05 | 7.0095e-05 |   0.0 |  0.03
Output  | 0          | 0          | 0          |   0.0 |  0.00
Modify  | 0          | 0          | 0          |   0.0 |  0.00
Other   |            | 0.0005534  |            |       |  0.26

Nlocal:    134 ave 134 max 134 min
Histogram: 1 0 0 0 0 0 0 0 0 0
Nghost:    0 ave 0 max 0 min
Histogram: 1 0 0 0 0 0 0 0 0 0
Neighs:    8365 ave 8365 max 8365 min
Histogram: 1 0 0 0 0 0 0 0 0 0

Total # of neighbors = 8365
Ave neighs/atom = 62.4254
Ave special neighs/atom = 10.2239
Neighbor list builds = 0
Dangerous builds = 0
write_dump all custom pysimm.dump.tmp id q x y z vx vy vz
quit


################################################################################
##################################    Init    ##################################
################################################################################
units           real
atom_style      full
pair_style      lj/cut/coul/long 12.0  12.0
kspace_style    pppm 1e-4
bond_style      harmonic
angle_style     harmonic
dihedral_style  fourier
improper_style  cvff
special_bonds   amber
pair_modify     mix arithmetic
read_data       temp.lmps
  orthogonal box = (-73.2644 -73.2644 -73.2644) to (73.2644 73.2644 73.2644)
  1 by 1 by 1 MPI processor grid
  reading atoms ...
  146 atoms
  reading velocities ...
  146 velocities
  scanning bonds ...
  4 = max bonds/atom
  scanning angles ...
  6 = max angles/atom
  scanning dihedrals ...
  16 = max dihedrals/atom
  scanning impropers ...
  1 = max impropers/atom
  reading bonds ...
  145 bonds
  reading angles ...
  264 angles
  reading dihedrals ...
  339 dihedrals
  reading impropers ...
  12 impropers
  4 = max # of 1-2 neighbors
  7 = max # of 1-3 neighbors
  15 = max # of 1-4 neighbors
  19 = max # of special neighbors
  special bonds CPU = 0.000280857 secs
  read_data CPU = 0.00412679 secs
################################################################################

min_style cg
minimize 1e-06 1e-06 1000000 10000000
WARNING: Using 'neigh_modify every 1 delay 0 check yes' setting during minimization (../min.cpp:190)
PPPM initialization ...
  using 12-bit tables for long-range coulomb (../kspace.cpp:332)
  G vector (1/distance) = 0.113042
  grid = 16 16 16
  stencil order = 5
  estimated absolute RMS force accuracy = 0.0390359
  estimated relative force accuracy = 0.000117556
  using double precision KISS FFT
  3d grid and FFT values/proc = 9261 4096
Neighbor list info ...
  update every 1 steps, delay 0 steps, check yes
  max neighbors/atom: 2000, page size: 100000
  master list distance cutoff = 14
  ghost atom cutoff = 14
  binsize = 7, bins = 21 21 21
  1 neighbor lists, perpetual/occasional/extra = 1 0 0
  (1) pair lj/cut/coul/long, perpetual
      attributes: half, newton on
      pair build: half/bin/newton
      stencil: half/bin/3d/newton
      bin: standard
Per MPI rank memory allocation (min/avg/max) = 16.73 | 16.73 | 16.73 Mbytes
Step Temp E_pair E_mol TotEng Press 
       0    867.95363   -727.65296    292.13434   -60.373913  -0.99540665 
      37    867.95363   -735.61753      129.516   -230.95682    5.5612922 
Loop time of 0.1662 on 1 procs for 37 steps with 146 atoms

99.9% CPU use with 1 MPI tasks x no OpenMP threads

Minimization stats:
  Stopping criterion = linesearch alpha is zero
  Energy initial, next-to-last, final = 
        -435.518623214     -606.101534531     -606.101534531
  Force two-norm initial, final = 594.035 31.8917
  Force max component initial, final = 290.024 8.32374
  Final line search alpha, max atom move = 8.3956e-12 6.98828e-11
  Iterations, force evaluations = 37 127

MPI task timing breakdown:
Section |  min time  |  avg time  |  max time  |%varavg| %total
---------------------------------------------------------------
Pair    | 0.04549    | 0.04549    | 0.04549    |   0.0 | 27.37
Bond    | 0.007374   | 0.007374   | 0.007374   |   0.0 |  4.44
Kspace  | 0.11255    | 0.11255    | 0.11255    |   0.0 | 67.72
Neigh   | 0.00022697 | 0.00022697 | 0.00022697 |   0.0 |  0.14
Comm    | 4.9591e-05 | 4.9591e-05 | 4.9591e-05 |   0.0 |  0.03
Output  | 0          | 0          | 0          |   0.0 |  0.00
Modify  | 0          | 0          | 0          |   0.0 |  0.00
Other   |            | 0.0005069  |            |       |  0.30

Nlocal:    146 ave 146 max 146 min
Histogram: 1 0 0 0 0 0 0 0 0 0
Nghost:    0 ave 0 max 0 min
Histogram: 1 0 0 0 0 0 0 0 0 0
Neighs:    9797 ave 9797 max 9797 min
Histogram: 1 0 0 0 0 0 0 0 0 0

Total # of neighbors = 9797
Ave neighs/atom = 67.1027
Ave special neighs/atom = 10.2466
Neighbor list builds = 1
Dangerous builds = 0
write_dump all custom pysimm.dump.tmp id q x y z vx vy vz
quit


################################################################################
##################################    Init    ##################################
################################################################################
units           real
atom_style      full
pair_style      lj/cut/coul/long 12.0  12.0
kspace_style    pppm 1e-4
bond_style      harmonic
angle_style     harmonic
dihedral_style  fourier
improper_style  cvff
special_bonds   amber
pair_modify     mix arithmetic
read_data       temp.lmps
  orthogonal box = (-75.4205 -75.4205 -75.4205) to (75.4205 75.4205 75.4205)
  1 by 1 by 1 MPI processor grid
  reading atoms ...
  158 atoms
  reading velocities ...
  158 velocities
  scanning bonds ...
  4 = max bonds/atom
  scanning angles ...
  6 = max angles/atom
  scanning dihedrals ...
  16 = max dihedrals/atom
  scanning impropers ...
  1 = max impropers/atom
  reading bonds ...
  157 bonds
  reading angles ...
  286 angles
  reading dihedrals ...
  368 dihedrals
  reading impropers ...
  13 impropers
  4 = max # of 1-2 neighbors
  7 = max # of 1-3 neighbors
  15 = max # of 1-4 neighbors
  19 = max # of special neighbors
  special bonds CPU = 0.000226021 secs
  read_data CPU = 0.00434995 secs
################################################################################

min_style cg
minimize 1e-06 1e-06 1000000 10000000
WARNING: Using 'neigh_modify every 1 delay 0 check yes' setting during minimization (../min.cpp:190)
PPPM initialization ...
  using 12-bit tables for long-range coulomb (../kspace.cpp:332)
  G vector (1/distance) = 0.119815
  grid = 18 18 18
  stencil order = 5
  estimated absolute RMS force accuracy = 0.0310137
  estimated relative force accuracy = 9.33969e-05
  using double precision KISS FFT
  3d grid and FFT values/proc = 12167 5832
Neighbor list info ...
  update every 1 steps, delay 0 steps, check yes
  max neighbors/atom: 2000, page size: 100000
  master list distance cutoff = 14
  ghost atom cutoff = 14
  binsize = 7, bins = 22 22 22
  1 neighbor lists, perpetual/occasional/extra = 1 0 0
  (1) pair lj/cut/coul/long, perpetual
      attributes: half, newton on
      pair build: half/bin/newton
      stencil: half/bin/3d/newton
      bin: standard
Per MPI rank memory allocation (min/avg/max) = 17 | 17 | 17 Mbytes
Step Temp E_pair E_mol TotEng Press 
       0     992.0513   -795.39476    323.31661   -7.8108616  -0.39206501 
      18     992.0513   -796.85186    182.90841   -149.67616    6.0896094 
Loop time of 0.154145 on 1 procs for 18 steps with 158 atoms

99.9% CPU use with 1 MPI tasks x no OpenMP threads

Minimization stats:
  Stopping criterion = linesearch alpha is zero
  Energy initial, next-to-last, final = 
        -472.078149052     -613.943446776     -613.943446776
  Force two-norm initial, final = 579.935 30.5415
  Force max component initial, final = 243.817 6.22207
  Final line search alpha, max atom move = 1.07265e-11 6.67412e-11
  Iterations, force evaluations = 18 91

MPI task timing breakdown:
Section |  min time  |  avg time  |  max time  |%varavg| %total
---------------------------------------------------------------
Pair    | 0.034731   | 0.034731   | 0.034731   |   0.0 | 22.53
Bond    | 0.0057185  | 0.0057185  | 0.0057185  |   0.0 |  3.71
Kspace  | 0.11329    | 0.11329    | 0.11329    |   0.0 | 73.49
Neigh   | 0          | 0          | 0          |   0.0 |  0.00
Comm    | 3.3855e-05 | 3.3855e-05 | 3.3855e-05 |   0.0 |  0.02
Output  | 0          | 0          | 0          |   0.0 |  0.00
Modify  | 0          | 0          | 0          |   0.0 |  0.00
Other   |            | 0.0003731  |            |       |  0.24

Nlocal:    158 ave 158 max 158 min
Histogram: 1 0 0 0 0 0 0 0 0 0
Nghost:    0 ave 0 max 0 min
Histogram: 1 0 0 0 0 0 0 0 0 0
Neighs:    10721 ave 10721 max 10721 min
Histogram: 1 0 0 0 0 0 0 0 0 0

Total # of neighbors = 10721
Ave neighs/atom = 67.8544
Ave special neighs/atom = 10.2658
Neighbor list builds = 0
Dangerous builds = 0
write_dump all custom pysimm.dump.tmp id q x y z vx vy vz
quit


################################################################################
##################################    Init    ##################################
################################################################################
units           real
atom_style      full
pair_style      lj/cut/coul/long 12.0  12.0
kspace_style    pppm 1e-4
bond_style      harmonic
angle_style     harmonic
dihedral_style  fourier
improper_style  cvff
special_bonds   amber
pair_modify     mix arithmetic
read_data       temp.lmps
  orthogonal box = (-77.4598 -77.4598 -77.4598) to (77.4598 77.4598 77.4598)
  1 by 1 by 1 MPI processor grid
  reading atoms ...
  170 atoms
  reading velocities ...
  170 velocities
  scanning bonds ...
  4 = max bonds/atom
  scanning angles ...
  6 = max angles/atom
  scanning dihedrals ...
  16 = max dihedrals/atom
  scanning impropers ...
  1 = max impropers/atom
  reading bonds ...
  169 bonds
  reading angles ...
  308 angles
  reading dihedrals ...
  397 dihedrals
  reading impropers ...
  14 impropers
  4 = max # of 1-2 neighbors
  7 = max # of 1-3 neighbors
  15 = max # of 1-4 neighbors
  19 = max # of special neighbors
  special bonds CPU = 0.00031805 secs
  read_data CPU = 0.0044589 secs
################################################################################

min_style cg
minimize 1e-06 1e-06 1000000 10000000
WARNING: Using 'neigh_modify every 1 delay 0 check yes' setting during minimization (../min.cpp:190)
PPPM initialization ...
  using 12-bit tables for long-range coulomb (../kspace.cpp:332)
  G vector (1/distance) = 0.117765
  grid = 18 18 18
  stencil order = 5
  estimated absolute RMS force accuracy = 0.0331835
  estimated relative force accuracy = 9.9931e-05
  using double precision KISS FFT
  3d grid and FFT values/proc = 12167 5832
Neighbor list info ...
  update every 1 steps, delay 0 steps, check yes
  max neighbors/atom: 2000, page size: 100000
  master list distance cutoff = 14
  ghost atom cutoff = 14
  binsize = 7, bins = 23 23 23
  1 neighbor lists, perpetual/occasional/extra = 1 0 0
  (1) pair lj/cut/coul/long, perpetual
      attributes: half, newton on
      pair build: half/bin/newton
      stencil: half/bin/3d/newton
      bin: standard
Per MPI rank memory allocation (min/avg/max) = 17.01 | 17.01 | 17.01 Mbytes
Step Temp E_pair E_mol TotEng Press 
       0    644.66683   -858.92154    294.55219   -239.61399   -2.2368817 
      23    644.66683   -858.24736    156.17322   -377.31878    3.8044826 
Loop time of 0.179692 on 1 procs for 23 steps with 170 atoms

100.2% CPU use with 1 MPI tasks x no OpenMP threads

Minimization stats:
  Stopping criterion = linesearch alpha is zero
  Energy initial, next-to-last, final = 
        -564.369354788     -702.074139388     -702.074139388
  Force two-norm initial, final = 579.003 21.5544
  Force max component initial, final = 250.336 3.83289
  Final line search alpha, max atom move = 2.19372e-11 8.4083e-11
  Iterations, force evaluations = 23 99

MPI task timing breakdown:
Section |  min time  |  avg time  |  max time  |%varavg| %total
---------------------------------------------------------------
Pair    | 0.038771   | 0.038771   | 0.038771   |   0.0 | 21.58
Bond    | 0.00705    | 0.00705    | 0.00705    |   0.0 |  3.92
Kspace  | 0.13336    | 0.13336    | 0.13336    |   0.0 | 74.22
Neigh   | 0          | 0          | 0          |   0.0 |  0.00
Comm    | 6.5088e-05 | 6.5088e-05 | 6.5088e-05 |   0.0 |  0.04
Output  | 0          | 0          | 0          |   0.0 |  0.00
Modify  | 0          | 0          | 0          |   0.0 |  0.00
Other   |            | 0.0004425  |            |       |  0.25

Nlocal:    170 ave 170 max 170 min
Histogram: 1 0 0 0 0 0 0 0 0 0
Nghost:    0 ave 0 max 0 min
Histogram: 1 0 0 0 0 0 0 0 0 0
Neighs:    10750 ave 10750 max 10750 min
Histogram: 1 0 0 0 0 0 0 0 0 0

Total # of neighbors = 10750
Ave neighs/atom = 63.2353
Ave special neighs/atom = 10.2824
Neighbor list builds = 0
Dangerous builds = 0
write_dump all custom pysimm.dump.tmp id q x y z vx vy vz
quit


################################################################################
##################################    Init    ##################################
################################################################################
units           real
atom_style      full
pair_style      lj/cut/coul/long 12.0  12.0
kspace_style    pppm 1e-4
bond_style      harmonic
angle_style     harmonic
dihedral_style  fourier
improper_style  cvff
special_bonds   amber
pair_modify     mix arithmetic
read_data       temp.lmps
  orthogonal box = (-79.3971 -79.3971 -79.3971) to (79.3971 79.3971 79.3971)
  1 by 1 by 1 MPI processor grid
  reading atoms ...
  182 atoms
  reading velocities ...
  182 velocities
  scanning bonds ...
  4 = max bonds/atom
  scanning angles ...
  6 = max angles/atom
  scanning dihedrals ...
  16 = max dihedrals/atom
  scanning impropers ...
  1 = max impropers/atom
  reading bonds ...
  181 bonds
  reading angles ...
  330 angles
  reading dihedrals ...
  426 dihedrals
  reading impropers ...
  15 impropers
  4 = max # of 1-2 neighbors
  7 = max # of 1-3 neighbors
  15 = max # of 1-4 neighbors
  19 = max # of special neighbors
  special bonds CPU = 0.000759125 secs
  read_data CPU = 0.01143 secs
################################################################################

min_style cg
minimize 1e-06 1e-06 1000000 10000000
WARNING: Using 'neigh_modify every 1 delay 0 check yes' setting during minimization (../min.cpp:190)
PPPM initialization ...
  using 12-bit tables for long-range coulomb (../kspace.cpp:332)
  G vector (1/distance) = 0.115878
  grid = 18 18 18
  stencil order = 5
  estimated absolute RMS force accuracy = 0.0352821
  estimated relative force accuracy = 0.000106251
  using double precision KISS FFT
  3d grid and FFT values/proc = 12167 5832
Neighbor list info ...
  update every 1 steps, delay 0 steps, check yes
  max neighbors/atom: 2000, page size: 100000
  master list distance cutoff = 14
  ghost atom cutoff = 14
  binsize = 7, bins = 23 23 23
  1 neighbor lists, perpetual/occasional/extra = 1 0 0
  (1) pair lj/cut/coul/long, perpetual
      attributes: half, newton on
      pair build: half/bin/newton
      stencil: half/bin/3d/newton
      bin: standard
Per MPI rank memory allocation (min/avg/max) = 17.01 | 17.01 | 17.01 Mbytes
Step Temp E_pair E_mol TotEng Press 
       0    556.31194    -914.9477    289.38006   -325.42254  -0.99343807 
      13    556.31194    -917.3834    153.53302   -463.70528    3.6686838 
Loop time of 0.422988 on 1 procs for 13 steps with 182 atoms

100.0% CPU use with 1 MPI tasks x no OpenMP threads

Minimization stats:
  Stopping criterion = linesearch alpha is zero
  Energy initial, next-to-last, final = 
        -625.567640937     -763.850376279     -763.850376279
  Force two-norm initial, final = 584.574 27.7012
  Force max component initial, final = 250.353 7.86513
  Final line search alpha, max atom move = 1.20476e-11 9.47562e-11
  Iterations, force evaluations = 13 81

MPI task timing breakdown:
Section |  min time  |  avg time  |  max time  |%varavg| %total
---------------------------------------------------------------
Pair    | 0.10728    | 0.10728    | 0.10728    |   0.0 | 25.36
Bond    | 0.016175   | 0.016175   | 0.016175   |   0.0 |  3.82
Kspace  | 0.29853    | 0.29853    | 0.29853    |   0.0 | 70.58
Neigh   | 0          | 0          | 0          |   0.0 |  0.00
Comm    | 7.844e-05  | 7.844e-05  | 7.844e-05  |   0.0 |  0.02
Output  | 0          | 0          | 0          |   0.0 |  0.00
Modify  | 0          | 0          | 0          |   0.0 |  0.00
Other   |            | 0.0009248  |            |       |  0.22

Nlocal:    182 ave 182 max 182 min
Histogram: 1 0 0 0 0 0 0 0 0 0
Nghost:    0 ave 0 max 0 min
Histogram: 1 0 0 0 0 0 0 0 0 0
Neighs:    13440 ave 13440 max 13440 min
Histogram: 1 0 0 0 0 0 0 0 0 0

Total # of neighbors = 13440
Ave neighs/atom = 73.8462
Ave special neighs/atom = 10.2967
Neighbor list builds = 0
Dangerous builds = 0
write_dump all custom pysimm.dump.tmp id q x y z vx vy vz
quit


################################################################################
##################################    Init    ##################################
################################################################################
units           real
atom_style      full
pair_style      lj/cut/coul/long 12.0  12.0
kspace_style    pppm 1e-4
bond_style      harmonic
angle_style     harmonic
dihedral_style  fourier
improper_style  cvff
special_bonds   amber
pair_modify     mix arithmetic
read_data       temp.lmps
  orthogonal box = (-81.2442 -81.2442 -81.2442) to (81.2442 81.2442 81.2442)
  1 by 1 by 1 MPI processor grid
  reading atoms ...
  194 atoms
  reading velocities ...
  194 velocities
  scanning bonds ...
  4 = max bonds/atom
  scanning angles ...
  6 = max angles/atom
  scanning dihedrals ...
  16 = max dihedrals/atom
  scanning impropers ...
  1 = max impropers/atom
  reading bonds ...
  193 bonds
  reading angles ...
  352 angles
  reading dihedrals ...
  455 dihedrals
  reading impropers ...
  16 impropers
  4 = max # of 1-2 neighbors
  7 = max # of 1-3 neighbors
  15 = max # of 1-4 neighbors
  19 = max # of special neighbors
  special bonds CPU = 0.000303984 secs
  read_data CPU = 0.00499988 secs
################################################################################

min_style cg
minimize 1e-06 1e-06 1000000 10000000
WARNING: Using 'neigh_modify every 1 delay 0 check yes' setting during minimization (../min.cpp:190)
PPPM initialization ...
  using 12-bit tables for long-range coulomb (../kspace.cpp:332)
  G vector (1/distance) = 0.114131
  grid = 18 18 18
  stencil order = 5
  estimated absolute RMS force accuracy = 0.0373134
  estimated relative force accuracy = 0.000112368
  using double precision KISS FFT
  3d grid and FFT values/proc = 12167 5832
Neighbor list info ...
  update every 1 steps, delay 0 steps, check yes
  max neighbors/atom: 2000, page size: 100000
  master list distance cutoff = 14
  ghost atom cutoff = 14
  binsize = 7, bins = 24 24 24
  1 neighbor lists, perpetual/occasional/extra = 1 0 0
  (1) pair lj/cut/coul/long, perpetual
      attributes: half, newton on
      pair build: half/bin/newton
      stencil: half/bin/3d/newton
      bin: standard
Per MPI rank memory allocation (min/avg/max) = 17.03 | 17.03 | 17.03 Mbytes
Step Temp E_pair E_mol TotEng Press 
       0    525.98932   -991.24006    308.37655   -380.26378   -2.6183598 
      31    525.98932    -992.2291    160.54608   -529.08329     3.720731 
Loop time of 0.240067 on 1 procs for 31 steps with 194 atoms

100.0% CPU use with 1 MPI tasks x no OpenMP threads

Minimization stats:
  Stopping criterion = linesearch alpha is zero
  Energy initial, next-to-last, final = 
        -682.863511579     -831.683024513     -831.683024513
  Force two-norm initial, final = 589.161 22.0267
  Force max component initial, final = 273.675 5.57122
  Final line search alpha, max atom move = 1.27856e-11 7.12312e-11
  Iterations, force evaluations = 31 117

MPI task timing breakdown:
Section |  min time  |  avg time  |  max time  |%varavg| %total
---------------------------------------------------------------
Pair    | 0.065672   | 0.065672   | 0.065672   |   0.0 | 27.36
Bond    | 0.0096593  | 0.0096593  | 0.0096593  |   0.0 |  4.02
Kspace  | 0.16359    | 0.16359    | 0.16359    |   0.0 | 68.14
Neigh   | 0.00042415 | 0.00042415 | 0.00042415 |   0.0 |  0.18
Comm    | 5.4359e-05 | 5.4359e-05 | 5.4359e-05 |   0.0 |  0.02
Output  | 0          | 0          | 0          |   0.0 |  0.00
Modify  | 0          | 0          | 0          |   0.0 |  0.00
Other   |            | 0.0006652  |            |       |  0.28

Nlocal:    194 ave 194 max 194 min
Histogram: 1 0 0 0 0 0 0 0 0 0
Nghost:    0 ave 0 max 0 min
Histogram: 1 0 0 0 0 0 0 0 0 0
Neighs:    14511 ave 14511 max 14511 min
Histogram: 1 0 0 0 0 0 0 0 0 0

Total # of neighbors = 14511
Ave neighs/atom = 74.799
Ave special neighs/atom = 10.3093
Neighbor list builds = 1
Dangerous builds = 0
write_dump all custom pysimm.dump.tmp id q x y z vx vy vz
quit


################################################################################
##################################    Init    ##################################
################################################################################
units           real
atom_style      full
pair_style      lj/cut/coul/long 12.0  12.0
kspace_style    pppm 1e-4
bond_style      harmonic
angle_style     harmonic
dihedral_style  fourier
improper_style  cvff
special_bonds   amber
pair_modify     mix arithmetic
read_data       temp.lmps
  orthogonal box = (-83.0109 -83.0109 -83.0109) to (83.0109 83.0109 83.0109)
  1 by 1 by 1 MPI processor grid
  reading atoms ...
  206 atoms
  reading velocities ...
  206 velocities
  scanning bonds ...
  4 = max bonds/atom
  scanning angles ...
  6 = max angles/atom
  scanning dihedrals ...
  16 = max dihedrals/atom
  scanning impropers ...
  1 = max impropers/atom
  reading bonds ...
  205 bonds
  reading angles ...
  374 angles
  reading dihedrals ...
  484 dihedrals
  reading impropers ...
  17 impropers
  4 = max # of 1-2 neighbors
  7 = max # of 1-3 neighbors
  15 = max # of 1-4 neighbors
  19 = max # of special neighbors
  special bonds CPU = 0.000314951 secs
  read_data CPU = 0.00476789 secs
################################################################################

min_style cg
minimize 1e-06 1e-06 1000000 10000000
WARNING: Using 'neigh_modify every 1 delay 0 check yes' setting during minimization (../min.cpp:190)
PPPM initialization ...
  using 12-bit tables for long-range coulomb (../kspace.cpp:332)
  G vector (1/distance) = 0.112506
  grid = 18 18 18
  stencil order = 5
  estimated absolute RMS force accuracy = 0.0392806
  estimated relative force accuracy = 0.000118292
  using double precision KISS FFT
  3d grid and FFT values/proc = 12167 5832
Neighbor list info ...
  update every 1 steps, delay 0 steps, check yes
  max neighbors/atom: 2000, page size: 100000
  master list distance cutoff = 14
  ghost atom cutoff = 14
  binsize = 7, bins = 24 24 24
  1 neighbor lists, perpetual/occasional/extra = 1 0 0
  (1) pair lj/cut/coul/long, perpetual
      attributes: half, newton on
      pair build: half/bin/newton
      stencil: half/bin/3d/newton
      bin: standard
Per MPI rank memory allocation (min/avg/max) = 17.03 | 17.03 | 17.03 Mbytes
Step Temp E_pair E_mol TotEng Press 
       0    432.03083   -1067.0702    307.55958   -495.51123   -2.0233697 
      13    432.03083   -1067.3487    170.56254   -632.78679    2.4876549 
Loop time of 0.17371 on 1 procs for 13 steps with 206 atoms

100.2% CPU use with 1 MPI tasks x no OpenMP threads

Minimization stats:
  Stopping criterion = linesearch alpha is zero
  Energy initial, next-to-last, final = 
        -759.510607602     -896.786165681     -896.786165681
  Force two-norm initial, final = 584.219 28.6221
  Force max component initial, final = 234.196 9.43443
  Final line search alpha, max atom move = 7.7456e-12 7.30754e-11
  Iterations, force evaluations = 13 84

MPI task timing breakdown:
Section |  min time  |  avg time  |  max time  |%varavg| %total
---------------------------------------------------------------
Pair    | 0.051214   | 0.051214   | 0.051214   |   0.0 | 29.48
Bond    | 0.0073268  | 0.0073268  | 0.0073268  |   0.0 |  4.22
Kspace  | 0.11473    | 0.11473    | 0.11473    |   0.0 | 66.04
Neigh   | 0          | 0          | 0          |   0.0 |  0.00
Comm    | 3.6955e-05 | 3.6955e-05 | 3.6955e-05 |   0.0 |  0.02
Output  | 0          | 0          | 0          |   0.0 |  0.00
Modify  | 0          | 0          | 0          |   0.0 |  0.00
Other   |            | 0.000406   |            |       |  0.23

Nlocal:    206 ave 206 max 206 min
Histogram: 1 0 0 0 0 0 0 0 0 0
Nghost:    0 ave 0 max 0 min
Histogram: 1 0 0 0 0 0 0 0 0 0
Neighs:    16831 ave 16831 max 16831 min
Histogram: 1 0 0 0 0 0 0 0 0 0

Total # of neighbors = 16831
Ave neighs/atom = 81.7039
Ave special neighs/atom = 10.3204
Neighbor list builds = 0
Dangerous builds = 0
write_dump all custom pysimm.dump.tmp id q x y z vx vy vz
quit


################################################################################
##################################    Init    ##################################
################################################################################
units           real
atom_style      full
pair_style      lj/cut/coul/long 12.0  12.0
kspace_style    pppm 1e-4
bond_style      harmonic
angle_style     harmonic
dihedral_style  fourier
improper_style  cvff
special_bonds   amber
pair_modify     mix arithmetic
read_data       temp.lmps
  orthogonal box = (-84.7055 -84.7055 -84.7055) to (84.7055 84.7055 84.7055)
  1 by 1 by 1 MPI processor grid
  reading atoms ...
  218 atoms
  reading velocities ...
  218 velocities
  scanning bonds ...
  4 = max bonds/atom
  scanning angles ...
  6 = max angles/atom
  scanning dihedrals ...
  16 = max dihedrals/atom
  scanning impropers ...
  1 = max impropers/atom
  reading bonds ...
  217 bonds
  reading angles ...
  396 angles
  reading dihedrals ...
  513 dihedrals
  reading impropers ...
  18 impropers
  4 = max # of 1-2 neighbors
  7 = max # of 1-3 neighbors
  15 = max # of 1-4 neighbors
  19 = max # of special neighbors
  special bonds CPU = 0.000325918 secs
  read_data CPU = 0.00471401 secs
################################################################################

min_style cg
minimize 1e-06 1e-06 1000000 10000000
WARNING: Using 'neigh_modify every 1 delay 0 check yes' setting during minimization (../min.cpp:190)
PPPM initialization ...
  using 12-bit tables for long-range coulomb (../kspace.cpp:332)
  G vector (1/distance) = 0.118988
  grid = 20 20 20
  stencil order = 5
  estimated absolute RMS force accuracy = 0.0316008
  estimated relative force accuracy = 9.51648e-05
  using double precision KISS FFT
  3d grid and FFT values/proc = 15625 8000
Neighbor list info ...
  update every 1 steps, delay 0 steps, check yes
  max neighbors/atom: 2000, page size: 100000
  master list distance cutoff = 14
  ghost atom cutoff = 14
  binsize = 7, bins = 25 25 25
  1 neighbor lists, perpetual/occasional/extra = 1 0 0
  (1) pair lj/cut/coul/long, perpetual
      attributes: half, newton on
      pair build: half/bin/newton
      stencil: half/bin/3d/newton
      bin: standard
Per MPI rank memory allocation (min/avg/max) = 17.36 | 17.36 | 17.36 Mbytes
Step Temp E_pair E_mol TotEng Press 
       0    411.00632   -1136.5934     331.2224   -539.51744   -2.8184266 
      21    411.00632   -1138.2906    180.90087   -691.53613    2.1105811 
Loop time of 0.218765 on 1 procs for 21 steps with 218 atoms

99.6% CPU use with 1 MPI tasks x no OpenMP threads

Minimization stats:
  Stopping criterion = linesearch alpha is zero
  Energy initial, next-to-last, final = 
        -805.371032445     -957.389728943     -957.389728943
  Force two-norm initial, final = 579.845 45.4686
  Force max component initial, final = 281.638 13.0142
  Final line search alpha, max atom move = 5.02841e-12 6.54406e-11
  Iterations, force evaluations = 21 97

MPI task timing breakdown:
Section |  min time  |  avg time  |  max time  |%varavg| %total
---------------------------------------------------------------
Pair    | 0.063063   | 0.063063   | 0.063063   |   0.0 | 28.83
Bond    | 0.0085676  | 0.0085676  | 0.0085676  |   0.0 |  3.92
Kspace  | 0.14661    | 0.14661    | 0.14661    |   0.0 | 67.02
Neigh   | 0          | 0          | 0          |   0.0 |  0.00
Comm    | 4.5061e-05 | 4.5061e-05 | 4.5061e-05 |   0.0 |  0.02
Output  | 0          | 0          | 0          |   0.0 |  0.00
Modify  | 0          | 0          | 0          |   0.0 |  0.00
Other   |            | 0.0004833  |            |       |  0.22

Nlocal:    218 ave 218 max 218 min
Histogram: 1 0 0 0 0 0 0 0 0 0
Nghost:    0 ave 0 max 0 min
Histogram: 1 0 0 0 0 0 0 0 0 0
Neighs:    18868 ave 18868 max 18868 min
Histogram: 1 0 0 0 0 0 0 0 0 0

Total # of neighbors = 18868
Ave neighs/atom = 86.5505
Ave special neighs/atom = 10.3303
Neighbor list builds = 0
Dangerous builds = 0
write_dump all custom pysimm.dump.tmp id q x y z vx vy vz
quit


################################################################################
##################################    Init    ##################################
################################################################################
units           real
atom_style      full
pair_style      lj/cut/coul/long 12.0  12.0
kspace_style    pppm 1e-4
bond_style      harmonic
angle_style     harmonic
dihedral_style  fourier
improper_style  cvff
special_bonds   amber
pair_modify     mix arithmetic
read_data       temp.lmps
  orthogonal box = (-86.3349 -86.3349 -86.3349) to (86.3349 86.3349 86.3349)
  1 by 1 by 1 MPI processor grid
  reading atoms ...
  230 atoms
  reading velocities ...
  230 velocities
  scanning bonds ...
  4 = max bonds/atom
  scanning angles ...
  6 = max angles/atom
  scanning dihedrals ...
  16 = max dihedrals/atom
  scanning impropers ...
  1 = max impropers/atom
  reading bonds ...
  229 bonds
  reading angles ...
  418 angles
  reading dihedrals ...
  542 dihedrals
  reading impropers ...
  19 impropers
  4 = max # of 1-2 neighbors
  7 = max # of 1-3 neighbors
  15 = max # of 1-4 neighbors
  19 = max # of special neighbors
  special bonds CPU = 0.000335932 secs
  read_data CPU = 0.00479603 secs
################################################################################

min_style cg
minimize 1e-06 1e-06 1000000 10000000
WARNING: Using 'neigh_modify every 1 delay 0 check yes' setting during minimization (../min.cpp:190)
PPPM initialization ...
  using 12-bit tables for long-range coulomb (../kspace.cpp:332)
  G vector (1/distance) = 0.117526
  grid = 20 20 20
  stencil order = 5
  estimated absolute RMS force accuracy = 0.0331705
  estimated relative force accuracy = 9.9892e-05
  using double precision KISS FFT
  3d grid and FFT values/proc = 15625 8000
Neighbor list info ...
  update every 1 steps, delay 0 steps, check yes
  max neighbors/atom: 2000, page size: 100000
  master list distance cutoff = 14
  ghost atom cutoff = 14
  binsize = 7, bins = 25 25 25
  1 neighbor lists, perpetual/occasional/extra = 1 0 0
  (1) pair lj/cut/coul/long, perpetual
      attributes: half, newton on
      pair build: half/bin/newton
      stencil: half/bin/3d/newton
      bin: standard
Per MPI rank memory allocation (min/avg/max) = 17.36 | 17.36 | 17.36 Mbytes
Step Temp E_pair E_mol TotEng Press 
       0    371.14285   -1195.0145    340.95311   -600.71722   -1.4490426 
      10    371.14285   -1195.7291    204.85935   -737.52558    1.9575575 
Loop time of 0.177158 on 1 procs for 10 steps with 230 atoms

99.9% CPU use with 1 MPI tasks x no OpenMP threads

Minimization stats:
  Stopping criterion = linesearch alpha is zero
  Energy initial, next-to-last, final = 
        -854.061371191     -990.869730799     -990.869730799
  Force two-norm initial, final = 588.735 26.0756
  Force max component initial, final = 269.356 6.68829
  Final line search alpha, max atom move = 9.99731e-12 6.68649e-11
  Iterations, force evaluations = 10 77

MPI task timing breakdown:
Section |  min time  |  avg time  |  max time  |%varavg| %total
---------------------------------------------------------------
Pair    | 0.048709   | 0.048709   | 0.048709   |   0.0 | 27.49
Bond    | 0.0069053  | 0.0069053  | 0.0069053  |   0.0 |  3.90
Kspace  | 0.12114    | 0.12114    | 0.12114    |   0.0 | 68.38
Neigh   | 0          | 0          | 0          |   0.0 |  0.00
Comm    | 3.3617e-05 | 3.3617e-05 | 3.3617e-05 |   0.0 |  0.02
Output  | 0          | 0          | 0          |   0.0 |  0.00
Modify  | 0          | 0          | 0          |   0.0 |  0.00
Other   |            | 0.0003681  |            |       |  0.21

Nlocal:    230 ave 230 max 230 min
Histogram: 1 0 0 0 0 0 0 0 0 0
Nghost:    0 ave 0 max 0 min
Histogram: 1 0 0 0 0 0 0 0 0 0
Neighs:    18446 ave 18446 max 18446 min
Histogram: 1 0 0 0 0 0 0 0 0 0

Total # of neighbors = 18446
Ave neighs/atom = 80.2
Ave special neighs/atom = 10.3391
Neighbor list builds = 0
Dangerous builds = 0
write_dump all custom pysimm.dump.tmp id q x y z vx vy vz
quit


################################################################################
##################################    Init    ##################################
################################################################################
units           real
atom_style      full
pair_style      lj/cut/coul/long 12.0  12.0
kspace_style    pppm 1e-4
bond_style      harmonic
angle_style     harmonic
dihedral_style  fourier
improper_style  cvff
special_bonds   amber
pair_modify     mix arithmetic
read_data       temp.lmps
  orthogonal box = (-87.9049 -87.9049 -87.9049) to (87.9049 87.9049 87.9049)
  1 by 1 by 1 MPI processor grid
  reading atoms ...
  242 atoms
  reading velocities ...
  242 velocities
  scanning bonds ...
  4 = max bonds/atom
  scanning angles ...
  6 = max angles/atom
  scanning dihedrals ...
  16 = max dihedrals/atom
  scanning impropers ...
  1 = max impropers/atom
  reading bonds ...
  241 bonds
  reading angles ...
  440 angles
  reading dihedrals ...
  571 dihedrals
  reading impropers ...
  20 impropers
  4 = max # of 1-2 neighbors
  7 = max # of 1-3 neighbors
  15 = max # of 1-4 neighbors
  19 = max # of special neighbors
  special bonds CPU = 0.000309944 secs
  read_data CPU = 0.005054 secs
################################################################################

min_style cg
minimize 1e-06 1e-06 1000000 10000000
WARNING: Using 'neigh_modify every 1 delay 0 check yes' setting during minimization (../min.cpp:190)
PPPM initialization ...
  using 12-bit tables for long-range coulomb (../kspace.cpp:332)
  G vector (1/distance) = 0.11615
  grid = 20 20 20
  stencil order = 5
  estimated absolute RMS force accuracy = 0.0347028
  estimated relative force accuracy = 0.000104507
  using double precision KISS FFT
  3d grid and FFT values/proc = 15625 8000
Neighbor list info ...
  update every 1 steps, delay 0 steps, check yes
  max neighbors/atom: 2000, page size: 100000
  master list distance cutoff = 14
  ghost atom cutoff = 14
  binsize = 7, bins = 26 26 26
  1 neighbor lists, perpetual/occasional/extra = 1 0 0
  (1) pair lj/cut/coul/long, perpetual
      attributes: half, newton on
      pair build: half/bin/newton
      stencil: half/bin/3d/newton
      bin: standard
Per MPI rank memory allocation (min/avg/max) = 17.37 | 17.37 | 17.37 Mbytes
Step Temp E_pair E_mol TotEng Press 
       0    383.74785   -1253.2797    340.88295   -636.72179   -1.4896304 
      12    383.74785   -1253.1972    203.77219   -773.75002    2.2066208 
Loop time of 0.189225 on 1 procs for 12 steps with 242 atoms

99.9% CPU use with 1 MPI tasks x no OpenMP threads

Minimization stats:
  Stopping criterion = linesearch alpha is zero
  Energy initial, next-to-last, final = 
        -912.396737365      -1049.4249705      -1049.4249705
  Force two-norm initial, final = 585.098 22.2009
  Force max component initial, final = 253.903 6.24626
  Final line search alpha, max atom move = 2.25546e-11 1.40882e-10
  Iterations, force evaluations = 12 79

MPI task timing breakdown:
Section |  min time  |  avg time  |  max time  |%varavg| %total
---------------------------------------------------------------
Pair    | 0.054292   | 0.054292   | 0.054292   |   0.0 | 28.69
Bond    | 0.0077481  | 0.0077481  | 0.0077481  |   0.0 |  4.09
Kspace  | 0.12676    | 0.12676    | 0.12676    |   0.0 | 66.99
Neigh   | 0          | 0          | 0          |   0.0 |  0.00
Comm    | 3.8385e-05 | 3.8385e-05 | 3.8385e-05 |   0.0 |  0.02
Output  | 0          | 0          | 0          |   0.0 |  0.00
Modify  | 0          | 0          | 0          |   0.0 |  0.00
Other   |            | 0.0003903  |            |       |  0.21

Nlocal:    242 ave 242 max 242 min
Histogram: 1 0 0 0 0 0 0 0 0 0
Nghost:    0 ave 0 max 0 min
Histogram: 1 0 0 0 0 0 0 0 0 0
Neighs:    19299 ave 19299 max 19299 min
Histogram: 1 0 0 0 0 0 0 0 0 0

Total # of neighbors = 19299
Ave neighs/atom = 79.7479
Ave special neighs/atom = 10.3471
Neighbor list builds = 0
Dangerous builds = 0
write_dump all custom pysimm.dump.tmp id q x y z vx vy vz
quit


################################################################################
##################################    Init    ##################################
################################################################################
units           real
atom_style      full
pair_style      lj/cut/coul/long 12.0  12.0
kspace_style    pppm 1e-4
bond_style      harmonic
angle_style     harmonic
dihedral_style  fourier
improper_style  cvff
special_bonds   amber
pair_modify     mix arithmetic
read_data       temp.lmps
  orthogonal box = (-89.4208 -89.4208 -89.4208) to (89.4208 89.4208 89.4208)
  1 by 1 by 1 MPI processor grid
  reading atoms ...
  254 atoms
  reading velocities ...
  254 velocities
  scanning bonds ...
  4 = max bonds/atom
  scanning angles ...
  6 = max angles/atom
  scanning dihedrals ...
  16 = max dihedrals/atom
  scanning impropers ...
  1 = max impropers/atom
  reading bonds ...
  253 bonds
  reading angles ...
  462 angles
  reading dihedrals ...
  600 dihedrals
  reading impropers ...
  21 impropers
  4 = max # of 1-2 neighbors
  7 = max # of 1-3 neighbors
  15 = max # of 1-4 neighbors
  19 = max # of special neighbors
  special bonds CPU = 0.000344038 secs
  read_data CPU = 0.00520706 secs
################################################################################

min_style cg
minimize 1e-06 1e-06 1000000 10000000
WARNING: Using 'neigh_modify every 1 delay 0 check yes' setting during minimization (../min.cpp:190)
PPPM initialization ...
  using 12-bit tables for long-range coulomb (../kspace.cpp:332)
  G vector (1/distance) = 0.114849
  grid = 20 20 20
  stencil order = 5
  estimated absolute RMS force accuracy = 0.0361992
  estimated relative force accuracy = 0.000109013
  using double precision KISS FFT
  3d grid and FFT values/proc = 15625 8000
Neighbor list info ...
  update every 1 steps, delay 0 steps, check yes
  max neighbors/atom: 2000, page size: 100000
  master list distance cutoff = 14
  ghost atom cutoff = 14
  binsize = 7, bins = 26 26 26
  1 neighbor lists, perpetual/occasional/extra = 1 0 0
  (1) pair lj/cut/coul/long, perpetual
      attributes: half, newton on
      pair build: half/bin/newton
      stencil: half/bin/3d/newton
      bin: standard
Per MPI rank memory allocation (min/avg/max) = 17.37 | 17.37 | 17.37 Mbytes
Step Temp E_pair E_mol TotEng Press 
       0    347.70664   -1321.5393    345.98526   -713.33282   -1.5414398 
      17    347.70664   -1323.2446    206.83792   -854.18549    2.2150451 
Loop time of 0.24722 on 1 procs for 17 steps with 254 atoms

100.3% CPU use with 1 MPI tasks x no OpenMP threads

Minimization stats:
  Stopping criterion = energy tolerance
  Energy initial, next-to-last, final = 
        -975.554022123      -1116.4058352     -1116.40669637
  Force two-norm initial, final = 586.24 38.8007
  Force max component initial, final = 204.301 10.6938
  Final line search alpha, max atom move = 5.70226e-07 6.0979e-06
  Iterations, force evaluations = 17 104

MPI task timing breakdown:
Section |  min time  |  avg time  |  max time  |%varavg| %total
---------------------------------------------------------------
Pair    | 0.069974   | 0.069974   | 0.069974   |   0.0 | 28.30
Bond    | 0.010497   | 0.010497   | 0.010497   |   0.0 |  4.25
Kspace  | 0.16613    | 0.16613    | 0.16613    |   0.0 | 67.20
Neigh   | 0          | 0          | 0          |   0.0 |  0.00
Comm    | 4.6015e-05 | 4.6015e-05 | 4.6015e-05 |   0.0 |  0.02
Output  | 0          | 0          | 0          |   0.0 |  0.00
Modify  | 0          | 0          | 0          |   0.0 |  0.00
Other   |            | 0.000577   |            |       |  0.23

Nlocal:    254 ave 254 max 254 min
Histogram: 1 0 0 0 0 0 0 0 0 0
Nghost:    0 ave 0 max 0 min
Histogram: 1 0 0 0 0 0 0 0 0 0
Neighs:    19590 ave 19590 max 19590 min
Histogram: 1 0 0 0 0 0 0 0 0 0

Total # of neighbors = 19590
Ave neighs/atom = 77.126
Ave special neighs/atom = 10.3543
Neighbor list builds = 0
Dangerous builds = 0
write_dump all custom pysimm.dump.tmp id q x y z vx vy vz
quit


################################################################################
##################################    Init    ##################################
################################################################################
units           real
atom_style      full
pair_style      lj/cut/coul/long 12.0  12.0
kspace_style    pppm 1e-4
bond_style      harmonic
angle_style     harmonic
dihedral_style  fourier
improper_style  cvff
special_bonds   amber
pair_modify     mix arithmetic
read_data       temp.lmps
  orthogonal box = (-90.887 -90.887 -90.887) to (90.887 90.887 90.887)
  1 by 1 by 1 MPI processor grid
  reading atoms ...
  266 atoms
  reading velocities ...
  266 velocities
  scanning bonds ...
  4 = max bonds/atom
  scanning angles ...
  6 = max angles/atom
  scanning dihedrals ...
  16 = max dihedrals/atom
  scanning impropers ...
  1 = max impropers/atom
  reading bonds ...
  265 bonds
  reading angles ...
  484 angles
  reading dihedrals ...
  629 dihedrals
  reading impropers ...
  22 impropers
  4 = max # of 1-2 neighbors
  7 = max # of 1-3 neighbors
  15 = max # of 1-4 neighbors
  19 = max # of special neighbors
  special bonds CPU = 0.000330925 secs
  read_data CPU = 0.00515318 secs
################################################################################

min_style cg
minimize 1e-06 1e-06 1000000 10000000
WARNING: Using 'neigh_modify every 1 delay 0 check yes' setting during minimization (../min.cpp:190)
PPPM initialization ...
  using 12-bit tables for long-range coulomb (../kspace.cpp:332)
  G vector (1/distance) = 0.113616
  grid = 20 20 20
  stencil order = 5
  estimated absolute RMS force accuracy = 0.0376608
  estimated relative force accuracy = 0.000113414
  using double precision KISS FFT
  3d grid and FFT values/proc = 15625 8000
Neighbor list info ...
  update every 1 steps, delay 0 steps, check yes
  max neighbors/atom: 2000, page size: 100000
  master list distance cutoff = 14
  ghost atom cutoff = 14
  binsize = 7, bins = 26 26 26
  1 neighbor lists, perpetual/occasional/extra = 1 0 0
  (1) pair lj/cut/coul/long, perpetual
      attributes: half, newton on
      pair build: half/bin/newton
      stencil: half/bin/3d/newton
      bin: standard
Per MPI rank memory allocation (min/avg/max) = 17.37 | 17.37 | 17.37 Mbytes
Step Temp E_pair E_mol TotEng Press 
       0    392.76675   -1373.4866    376.65689   -686.57749   -1.5175256 
      25    392.76675   -1381.1448     222.1756   -848.71698     1.918236 
Loop time of 0.263859 on 1 procs for 25 steps with 266 atoms

100.0% CPU use with 1 MPI tasks x no OpenMP threads

Minimization stats:
  Stopping criterion = linesearch alpha is zero
  Energy initial, next-to-last, final = 
        -996.829706831     -1158.96919036     -1158.96919036
  Force two-norm initial, final = 591.953 32.7269
  Force max component initial, final = 254.654 6.98715
  Final line search alpha, max atom move = 9.32251e-12 6.51377e-11
  Iterations, force evaluations = 25 105

MPI task timing breakdown:
Section |  min time  |  avg time  |  max time  |%varavg| %total
---------------------------------------------------------------
Pair    | 0.081178   | 0.081178   | 0.081178   |   0.0 | 30.77
Bond    | 0.011232   | 0.011232   | 0.011232   |   0.0 |  4.26
Kspace  | 0.17079    | 0.17079    | 0.17079    |   0.0 | 64.73
Neigh   | 0          | 0          | 0          |   0.0 |  0.00
Comm    | 4.0293e-05 | 4.0293e-05 | 4.0293e-05 |   0.0 |  0.02
Output  | 0          | 0          | 0          |   0.0 |  0.00
Modify  | 0          | 0          | 0          |   0.0 |  0.00
Other   |            | 0.0006201  |            |       |  0.24

Nlocal:    266 ave 266 max 266 min
Histogram: 1 0 0 0 0 0 0 0 0 0
Nghost:    0 ave 0 max 0 min
Histogram: 1 0 0 0 0 0 0 0 0 0
Neighs:    22248 ave 22248 max 22248 min
Histogram: 1 0 0 0 0 0 0 0 0 0

Total # of neighbors = 22248
Ave neighs/atom = 83.6391
Ave special neighs/atom = 10.3609
Neighbor list builds = 0
Dangerous builds = 0
write_dump all custom pysimm.dump.tmp id q x y z vx vy vz
quit


################################################################################
##################################    Init    ##################################
################################################################################
units           real
atom_style      full
pair_style      lj/cut/coul/long 12.0  12.0
kspace_style    pppm 1e-4
bond_style      harmonic
angle_style     harmonic
dihedral_style  fourier
improper_style  cvff
special_bonds   amber
pair_modify     mix arithmetic
read_data       temp.lmps
  orthogonal box = (-92.3073 -92.3073 -92.3073) to (92.3073 92.3073 92.3073)
  1 by 1 by 1 MPI processor grid
  reading atoms ...
  278 atoms
  reading velocities ...
  278 velocities
  scanning bonds ...
  4 = max bonds/atom
  scanning angles ...
  6 = max angles/atom
  scanning dihedrals ...
  16 = max dihedrals/atom
  scanning impropers ...
  1 = max impropers/atom
  reading bonds ...
  277 bonds
  reading angles ...
  506 angles
  reading dihedrals ...
  658 dihedrals
  reading impropers ...
  23 impropers
  4 = max # of 1-2 neighbors
  7 = max # of 1-3 neighbors
  15 = max # of 1-4 neighbors
  19 = max # of special neighbors
  special bonds CPU = 0.000312805 secs
  read_data CPU = 0.00513601 secs
################################################################################

min_style cg
minimize 1e-06 1e-06 1000000 10000000
WARNING: Using 'neigh_modify every 1 delay 0 check yes' setting during minimization (../min.cpp:190)
PPPM initialization ...
  using 12-bit tables for long-range coulomb (../kspace.cpp:332)
  G vector (1/distance) = 0.112446
  grid = 20 20 20
  stencil order = 5
  estimated absolute RMS force accuracy = 0.039089
  estimated relative force accuracy = 0.000117715
  using double precision KISS FFT
  3d grid and FFT values/proc = 15625 8000
Neighbor list info ...
  update every 1 steps, delay 0 steps, check yes
  max neighbors/atom: 2000, page size: 100000
  master list distance cutoff = 14
  ghost atom cutoff = 14
  binsize = 7, bins = 27 27 27
  1 neighbor lists, perpetual/occasional/extra = 1 0 0
  (1) pair lj/cut/coul/long, perpetual
      attributes: half, newton on
      pair build: half/bin/newton
      stencil: half/bin/3d/newton
      bin: standard
Per MPI rank memory allocation (min/avg/max) = 17.38 | 17.38 | 17.38 Mbytes
Step Temp E_pair E_mol TotEng Press 
       0    469.59924   -1433.2038       402.72   -642.74304  -0.55796731 
      46    469.59924   -1445.0362    228.80128   -828.49421    2.6027905 
Loop time of 0.355879 on 1 procs for 46 steps with 278 atoms

100.0% CPU use with 1 MPI tasks x no OpenMP threads

Minimization stats:
  Stopping criterion = linesearch alpha is zero
  Energy initial, next-to-last, final = 
        -1030.48379782     -1216.23496352     -1216.23496352
  Force two-norm initial, final = 587.493 27.9009
  Force max component initial, final = 269.985 5.99335
  Final line search alpha, max atom move = 1.27409e-11 7.63604e-11
  Iterations, force evaluations = 46 145

MPI task timing breakdown:
Section |  min time  |  avg time  |  max time  |%varavg| %total
---------------------------------------------------------------
Pair    | 0.104      | 0.104      | 0.104      |   0.0 | 29.22
Bond    | 0.015971   | 0.015971   | 0.015971   |   0.0 |  4.49
Kspace  | 0.23433    | 0.23433    | 0.23433    |   0.0 | 65.84
Neigh   | 0.00053215 | 0.00053215 | 0.00053215 |   0.0 |  0.15
Comm    | 7.2718e-05 | 7.2718e-05 | 7.2718e-05 |   0.0 |  0.02
Output  | 0          | 0          | 0          |   0.0 |  0.00
Modify  | 0          | 0          | 0          |   0.0 |  0.00
Other   |            | 0.0009804  |            |       |  0.28

Nlocal:    278 ave 278 max 278 min
Histogram: 1 0 0 0 0 0 0 0 0 0
Nghost:    0 ave 0 max 0 min
Histogram: 1 0 0 0 0 0 0 0 0 0
Neighs:    21415 ave 21415 max 21415 min
Histogram: 1 0 0 0 0 0 0 0 0 0

Total # of neighbors = 21415
Ave neighs/atom = 77.0324
Ave special neighs/atom = 10.3669
Neighbor list builds = 1
Dangerous builds = 0
write_dump all custom pysimm.dump.tmp id q x y z vx vy vz
quit


################################################################################
##################################    Init    ##################################
################################################################################
units           real
atom_style      full
pair_style      lj/cut/coul/long 12.0  12.0
kspace_style    pppm 1e-4
bond_style      harmonic
angle_style     harmonic
dihedral_style  fourier
improper_style  cvff
special_bonds   amber
pair_modify     mix arithmetic
read_data       temp.lmps
  orthogonal box = (-93.6853 -93.6853 -93.6853) to (93.6853 93.6853 93.6853)
  1 by 1 by 1 MPI processor grid
  reading atoms ...
  290 atoms
  reading velocities ...
  290 velocities
  scanning bonds ...
  4 = max bonds/atom
  scanning angles ...
  6 = max angles/atom
  scanning dihedrals ...
  16 = max dihedrals/atom
  scanning impropers ...
  1 = max impropers/atom
  reading bonds ...
  289 bonds
  reading angles ...
  528 angles
  reading dihedrals ...
  687 dihedrals
  reading impropers ...
  24 impropers
  4 = max # of 1-2 neighbors
  7 = max # of 1-3 neighbors
  15 = max # of 1-4 neighbors
  19 = max # of special neighbors
  special bonds CPU = 0.000363827 secs
  read_data CPU = 0.00526619 secs
################################################################################

min_style cg
minimize 1e-06 1e-06 1000000 10000000
WARNING: Using 'neigh_modify every 1 delay 0 check yes' setting during minimization (../min.cpp:190)
PPPM initialization ...
  using 12-bit tables for long-range coulomb (../kspace.cpp:332)
  G vector (1/distance) = 0.111333
  grid = 20 20 20
  stencil order = 5
  estimated absolute RMS force accuracy = 0.040485
  estimated relative force accuracy = 0.000121919
  using double precision KISS FFT
  3d grid and FFT values/proc = 15625 8000
Neighbor list info ...
  update every 1 steps, delay 0 steps, check yes
  max neighbors/atom: 2000, page size: 100000
  master list distance cutoff = 14
  ghost atom cutoff = 14
  binsize = 7, bins = 27 27 27
  1 neighbor lists, perpetual/occasional/extra = 1 0 0
  (1) pair lj/cut/coul/long, perpetual
      attributes: half, newton on
      pair build: half/bin/newton
      stencil: half/bin/3d/newton
      bin: standard
Per MPI rank memory allocation (min/avg/max) = 17.38 | 17.38 | 17.38 Mbytes
Step Temp E_pair E_mol TotEng Press 
       0    419.06016   -1507.6493    400.66112   -745.98711  -0.85865935 
       8    419.06016   -1507.0091    262.18437   -883.82361    2.1293454 
Loop time of 0.187501 on 1 procs for 8 steps with 290 atoms

99.7% CPU use with 1 MPI tasks x no OpenMP threads

Minimization stats:
  Stopping criterion = linesearch alpha is zero
  Energy initial, next-to-last, final = 
        -1106.98820275     -1244.82470219     -1244.82470219
  Force two-norm initial, final = 594.383 43.5355
  Force max component initial, final = 270.24 11.486
  Final line search alpha, max atom move = 3.46644e-12 3.98154e-11
  Iterations, force evaluations = 8 73

MPI task timing breakdown:
Section |  min time  |  avg time  |  max time  |%varavg| %total
---------------------------------------------------------------
Pair    | 0.061711   | 0.061711   | 0.061711   |   0.0 | 32.91
Bond    | 0.008296   | 0.008296   | 0.008296   |   0.0 |  4.42
Kspace  | 0.11708    | 0.11708    | 0.11708    |   0.0 | 62.44
Neigh   | 0          | 0          | 0          |   0.0 |  0.00
Comm    | 3.6001e-05 | 3.6001e-05 | 3.6001e-05 |   0.0 |  0.02
Output  | 0          | 0          | 0          |   0.0 |  0.00
Modify  | 0          | 0          | 0          |   0.0 |  0.00
Other   |            | 0.0003788  |            |       |  0.20

Nlocal:    290 ave 290 max 290 min
Histogram: 1 0 0 0 0 0 0 0 0 0
Nghost:    0 ave 0 max 0 min
Histogram: 1 0 0 0 0 0 0 0 0 0
Neighs:    25776 ave 25776 max 25776 min
Histogram: 1 0 0 0 0 0 0 0 0 0

Total # of neighbors = 25776
Ave neighs/atom = 88.8828
Ave special neighs/atom = 10.3724
Neighbor list builds = 0
Dangerous builds = 0
write_dump all custom pysimm.dump.tmp id q x y z vx vy vz
quit


################################################################################
##################################    Init    ##################################
################################################################################
units           real
atom_style      full
pair_style      lj/cut/coul/long 12.0  12.0
kspace_style    pppm 1e-4
bond_style      harmonic
angle_style     harmonic
dihedral_style  fourier
improper_style  cvff
special_bonds   amber
pair_modify     mix arithmetic
read_data       temp.lmps
  orthogonal box = (-95.0238 -95.0238 -95.0238) to (95.0238 95.0238 95.0238)
  1 by 1 by 1 MPI processor grid
  reading atoms ...
  302 atoms
  reading velocities ...
  302 velocities
  scanning bonds ...
  4 = max bonds/atom
  scanning angles ...
  6 = max angles/atom
  scanning dihedrals ...
  16 = max dihedrals/atom
  scanning impropers ...
  1 = max impropers/atom
  reading bonds ...
  301 bonds
  reading angles ...
  550 angles
  reading dihedrals ...
  716 dihedrals
  reading impropers ...
  25 impropers
  4 = max # of 1-2 neighbors
  7 = max # of 1-3 neighbors
  15 = max # of 1-4 neighbors
  19 = max # of special neighbors
  special bonds CPU = 0.000949144 secs
  read_data CPU = 0.013932 secs
################################################################################

min_style cg
minimize 1e-06 1e-06 1000000 10000000
WARNING: Using 'neigh_modify every 1 delay 0 check yes' setting during minimization (../min.cpp:190)
PPPM initialization ...
  using 12-bit tables for long-range coulomb (../kspace.cpp:332)
  G vector (1/distance) = 0.124204
  grid = 24 24 24
  stencil order = 5
  estimated absolute RMS force accuracy = 0.0261443
  estimated relative force accuracy = 7.87329e-05
  using double precision KISS FFT
  3d grid and FFT values/proc = 24389 13824
Neighbor list info ...
  update every 1 steps, delay 0 steps, check yes
  max neighbors/atom: 2000, page size: 100000
  master list distance cutoff = 14
  ghost atom cutoff = 14
  binsize = 7, bins = 28 28 28
  1 neighbor lists, perpetual/occasional/extra = 1 0 0
  (1) pair lj/cut/coul/long, perpetual
      attributes: half, newton on
      pair build: half/bin/newton
      stencil: half/bin/3d/newton
      bin: standard
Per MPI rank memory allocation (min/avg/max) = 18.23 | 18.23 | 18.23 Mbytes
Step Temp E_pair E_mol TotEng Press 
       0    390.23628   -1574.2383    397.32603   -826.78303  -0.78919191 
      25    390.23628   -1578.9596     247.9012   -980.92915    2.0440282 
Loop time of 1.07358 on 1 procs for 25 steps with 302 atoms

99.9% CPU use with 1 MPI tasks x no OpenMP threads

Minimization stats:
  Stopping criterion = linesearch alpha is zero
  Energy initial, next-to-last, final = 
        -1176.91231631       -1331.058432       -1331.058432
  Force two-norm initial, final = 581.249 30.3776
  Force max component initial, final = 268.279 6.78242
  Final line search alpha, max atom move = 9.57852e-12 6.49655e-11
  Iterations, force evaluations = 25 149

MPI task timing breakdown:
Section |  min time  |  avg time  |  max time  |%varavg| %total
---------------------------------------------------------------
Pair    | 0.26177    | 0.26177    | 0.26177    |   0.0 | 24.38
Bond    | 0.031797   | 0.031797   | 0.031797   |   0.0 |  2.96
Kspace  | 0.77832    | 0.77832    | 0.77832    |   0.0 | 72.50
Neigh   | 0          | 0          | 0          |   0.0 |  0.00
Comm    | 0.0001061  | 0.0001061  | 0.0001061  |   0.0 |  0.01
Output  | 0          | 0          | 0          |   0.0 |  0.00
Modify  | 0          | 0          | 0          |   0.0 |  0.00
Other   |            | 0.001576   |            |       |  0.15

Nlocal:    302 ave 302 max 302 min
Histogram: 1 0 0 0 0 0 0 0 0 0
Nghost:    0 ave 0 max 0 min
Histogram: 1 0 0 0 0 0 0 0 0 0
Neighs:    28708 ave 28708 max 28708 min
Histogram: 1 0 0 0 0 0 0 0 0 0

Total # of neighbors = 28708
Ave neighs/atom = 95.0596
Ave special neighs/atom = 10.3775
Neighbor list builds = 0
Dangerous builds = 0
write_dump all custom pysimm.dump.tmp id q x y z vx vy vz
quit


################################################################################
##################################    Init    ##################################
################################################################################
units           real
atom_style      full
pair_style      lj/cut/coul/long 12.0  12.0
kspace_style    pppm 1e-4
bond_style      harmonic
angle_style     harmonic
dihedral_style  fourier
improper_style  cvff
special_bonds   amber
pair_modify     mix arithmetic
read_data       temp.lmps
  orthogonal box = (-96.3257 -96.3257 -96.3257) to (96.3257 96.3257 96.3257)
  1 by 1 by 1 MPI processor grid
  reading atoms ...
  314 atoms
  reading velocities ...
  314 velocities
  scanning bonds ...
  4 = max bonds/atom
  scanning angles ...
  6 = max angles/atom
  scanning dihedrals ...
  16 = max dihedrals/atom
  scanning impropers ...
  1 = max impropers/atom
  reading bonds ...
  313 bonds
  reading angles ...
  572 angles
  reading dihedrals ...
  745 dihedrals
  reading impropers ...
  26 impropers
  4 = max # of 1-2 neighbors
  7 = max # of 1-3 neighbors
  15 = max # of 1-4 neighbors
  19 = max # of special neighbors
  special bonds CPU = 0.000370026 secs
  read_data CPU = 0.00548506 secs
################################################################################

min_style cg
minimize 1e-06 1e-06 1000000 10000000
WARNING: Using 'neigh_modify every 1 delay 0 check yes' setting during minimization (../min.cpp:190)
PPPM initialization ...
  using 12-bit tables for long-range coulomb (../kspace.cpp:332)
  G vector (1/distance) = 0.123145
  grid = 24 24 24
  stencil order = 5
  estimated absolute RMS force accuracy = 0.0271311
  estimated relative force accuracy = 8.17046e-05
  using double precision KISS FFT
  3d grid and FFT values/proc = 24389 13824
Neighbor list info ...
  update every 1 steps, delay 0 steps, check yes
  max neighbors/atom: 2000, page size: 100000
  master list distance cutoff = 14
  ghost atom cutoff = 14
  binsize = 7, bins = 28 28 28
  1 neighbor lists, perpetual/occasional/extra = 1 0 0
  (1) pair lj/cut/coul/long, perpetual
      attributes: half, newton on
      pair build: half/bin/newton
      stencil: half/bin/3d/newton
      bin: standard
Per MPI rank memory allocation (min/avg/max) = 18.23 | 18.23 | 18.23 Mbytes
Step Temp E_pair E_mol TotEng Press 
       0    378.77837   -1658.3567    414.25767    -890.7013   -1.1122879 
      26    378.77837   -1663.8678    262.30914   -1048.1608    1.7256916 
Loop time of 0.970365 on 1 procs for 26 steps with 314 atoms

99.9% CPU use with 1 MPI tasks x no OpenMP threads

Minimization stats:
  Stopping criterion = linesearch alpha is zero
  Energy initial, next-to-last, final = 
        -1244.09907238     -1401.55862147     -1401.55862147
  Force two-norm initial, final = 586.332 32.1929
  Force max component initial, final = 228.669 6.64295
  Final line search alpha, max atom move = 9.19584e-12 6.10875e-11
  Iterations, force evaluations = 26 153

MPI task timing breakdown:
Section |  min time  |  avg time  |  max time  |%varavg| %total
---------------------------------------------------------------
Pair    | 0.2862     | 0.2862     | 0.2862     |   0.0 | 29.49
Bond    | 0.027601   | 0.027601   | 0.027601   |   0.0 |  2.84
Kspace  | 0.655      | 0.655      | 0.655      |   0.0 | 67.50
Neigh   | 0          | 0          | 0          |   0.0 |  0.00
Comm    | 7.6532e-05 | 7.6532e-05 | 7.6532e-05 |   0.0 |  0.01
Output  | 0          | 0          | 0          |   0.0 |  0.00
Modify  | 0          | 0          | 0          |   0.0 |  0.00
Other   |            | 0.001489   |            |       |  0.15

Nlocal:    314 ave 314 max 314 min
Histogram: 1 0 0 0 0 0 0 0 0 0
Nghost:    0 ave 0 max 0 min
Histogram: 1 0 0 0 0 0 0 0 0 0
Neighs:    35601 ave 35601 max 35601 min
Histogram: 1 0 0 0 0 0 0 0 0 0

Total # of neighbors = 35601
Ave neighs/atom = 113.379
Ave special neighs/atom = 10.3822
Neighbor list builds = 0
Dangerous builds = 0
write_dump all custom pysimm.dump.tmp id q x y z vx vy vz
quit


################################################################################
##################################    Init    ##################################
################################################################################
units           real
atom_style      full
pair_style      lj/cut/coul/long 12.0  12.0
kspace_style    pppm 1e-4
bond_style      harmonic
angle_style     harmonic
dihedral_style  fourier
improper_style  cvff
special_bonds   amber
pair_modify     mix arithmetic
read_data       temp.lmps
  orthogonal box = (-97.5933 -97.5933 -97.5933) to (97.5933 97.5933 97.5933)
  1 by 1 by 1 MPI processor grid
  reading atoms ...
  326 atoms
  reading velocities ...
  326 velocities
  scanning bonds ...
  4 = max bonds/atom
  scanning angles ...
  6 = max angles/atom
  scanning dihedrals ...
  16 = max dihedrals/atom
  scanning impropers ...
  1 = max impropers/atom
  reading bonds ...
  325 bonds
  reading angles ...
  594 angles
  reading dihedrals ...
  774 dihedrals
  reading impropers ...
  27 impropers
  4 = max # of 1-2 neighbors
  7 = max # of 1-3 neighbors
  15 = max # of 1-4 neighbors
  19 = max # of special neighbors
  special bonds CPU = 0.000998974 secs
  read_data CPU = 0.0145969 secs
################################################################################

min_style cg
minimize 1e-06 1e-06 1000000 10000000
WARNING: Using 'neigh_modify every 1 delay 0 check yes' setting during minimization (../min.cpp:190)
PPPM initialization ...
  using 12-bit tables for long-range coulomb (../kspace.cpp:332)
  G vector (1/distance) = 0.12213
  grid = 24 24 24
  stencil order = 5
  estimated absolute RMS force accuracy = 0.0281039
  estimated relative force accuracy = 8.4634e-05
  using double precision KISS FFT
  3d grid and FFT values/proc = 24389 13824
Neighbor list info ...
  update every 1 steps, delay 0 steps, check yes
  max neighbors/atom: 2000, page size: 100000
  master list distance cutoff = 14
  ghost atom cutoff = 14
  binsize = 7, bins = 28 28 28
  1 neighbor lists, perpetual/occasional/extra = 1 0 0
  (1) pair lj/cut/coul/long, perpetual
      attributes: half, newton on
      pair build: half/bin/newton
      stencil: half/bin/3d/newton
      bin: standard
Per MPI rank memory allocation (min/avg/max) = 18.23 | 18.23 | 18.23 Mbytes
Step Temp E_pair E_mol TotEng Press 
       0     338.8655   -1706.9886     422.3836   -956.32453  -0.92566823 
      32     338.8655   -1723.9764    265.41481   -1130.2812    1.4955066 
Loop time of 0.93224 on 1 procs for 32 steps with 326 atoms

100.1% CPU use with 1 MPI tasks x no OpenMP threads

Minimization stats:
  Stopping criterion = linesearch alpha is zero
  Energy initial, next-to-last, final = 
        -1284.60497822     -1458.56162914     -1458.56162914
  Force two-norm initial, final = 595.3 31.2899
  Force max component initial, final = 227.314 6.62037
  Final line search alpha, max atom move = 9.19362e-12 6.08652e-11
  Iterations, force evaluations = 32 120

MPI task timing breakdown:
Section |  min time  |  avg time  |  max time  |%varavg| %total
---------------------------------------------------------------
Pair    | 0.26967    | 0.26967    | 0.26967    |   0.0 | 28.93
Bond    | 0.027541   | 0.027541   | 0.027541   |   0.0 |  2.95
Kspace  | 0.63334    | 0.63334    | 0.63334    |   0.0 | 67.94
Neigh   | 0          | 0          | 0          |   0.0 |  0.00
Comm    | 6.6042e-05 | 6.6042e-05 | 6.6042e-05 |   0.0 |  0.01
Output  | 0          | 0          | 0          |   0.0 |  0.00
Modify  | 0          | 0          | 0          |   0.0 |  0.00
Other   |            | 0.001619   |            |       |  0.17

Nlocal:    326 ave 326 max 326 min
Histogram: 1 0 0 0 0 0 0 0 0 0
Nghost:    0 ave 0 max 0 min
Histogram: 1 0 0 0 0 0 0 0 0 0
Neighs:    36536 ave 36536 max 36536 min
Histogram: 1 0 0 0 0 0 0 0 0 0

Total # of neighbors = 36536
Ave neighs/atom = 112.074
Ave special neighs/atom = 10.3865
Neighbor list builds = 0
Dangerous builds = 0
write_dump all custom pysimm.dump.tmp id q x y z vx vy vz
quit


################################################################################
##################################    Init    ##################################
################################################################################
units           real
atom_style      full
pair_style      lj/cut/coul/long 12.0  12.0
kspace_style    pppm 1e-4
bond_style      harmonic
angle_style     harmonic
dihedral_style  fourier
improper_style  cvff
special_bonds   amber
pair_modify     mix arithmetic
read_data       temp.lmps
  orthogonal box = (-98.8287 -98.8287 -98.8287) to (98.8287 98.8287 98.8287)
  1 by 1 by 1 MPI processor grid
  reading atoms ...
  338 atoms
  reading velocities ...
  338 velocities
  scanning bonds ...
  4 = max bonds/atom
  scanning angles ...
  6 = max angles/atom
  scanning dihedrals ...
  16 = max dihedrals/atom
  scanning impropers ...
  1 = max impropers/atom
  reading bonds ...
  337 bonds
  reading angles ...
  616 angles
  reading dihedrals ...
  803 dihedrals
  reading impropers ...
  28 impropers
  4 = max # of 1-2 neighbors
  7 = max # of 1-3 neighbors
  15 = max # of 1-4 neighbors
  19 = max # of special neighbors
  special bonds CPU = 0.000397921 secs
  read_data CPU = 0.0057559 secs
################################################################################

min_style cg
minimize 1e-06 1e-06 1000000 10000000
WARNING: Using 'neigh_modify every 1 delay 0 check yes' setting during minimization (../min.cpp:190)
PPPM initialization ...
  using 12-bit tables for long-range coulomb (../kspace.cpp:332)
  G vector (1/distance) = 0.121156
  grid = 24 24 24
  stencil order = 5
  estimated absolute RMS force accuracy = 0.0290628
  estimated relative force accuracy = 8.75217e-05
  using double precision KISS FFT
  3d grid and FFT values/proc = 24389 13824
Neighbor list info ...
  update every 1 steps, delay 0 steps, check yes
  max neighbors/atom: 2000, page size: 100000
  master list distance cutoff = 14
  ghost atom cutoff = 14
  binsize = 7, bins = 29 29 29
  1 neighbor lists, perpetual/occasional/extra = 1 0 0
  (1) pair lj/cut/coul/long, perpetual
      attributes: half, newton on
      pair build: half/bin/newton
      stencil: half/bin/3d/newton
      bin: standard
Per MPI rank memory allocation (min/avg/max) = 18.24 | 18.24 | 18.24 Mbytes
Step Temp E_pair E_mol TotEng Press 
       0    359.80556   -1746.0903     425.9521    -958.7016  -0.61505604 
      22    359.80556   -1756.3205    273.84083   -1121.0432    1.3164608 
Loop time of 0.755906 on 1 procs for 22 steps with 338 atoms

100.1% CPU use with 1 MPI tasks x no OpenMP threads

Minimization stats:
  Stopping criterion = linesearch alpha is zero
  Energy initial, next-to-last, final = 
        -1320.13815669      -1482.4797046      -1482.4797046
  Force two-norm initial, final = 590.9 44.3124
  Force max component initial, final = 290.339 10.8557
  Final line search alpha, max atom move = 5.25943e-12 5.70946e-11
  Iterations, force evaluations = 22 99

MPI task timing breakdown:
Section |  min time  |  avg time  |  max time  |%varavg| %total
---------------------------------------------------------------
Pair    | 0.20831    | 0.20831    | 0.20831    |   0.0 | 27.56
Bond    | 0.023598   | 0.023598   | 0.023598   |   0.0 |  3.12
Kspace  | 0.52288    | 0.52288    | 0.52288    |   0.0 | 69.17
Neigh   | 0          | 0          | 0          |   0.0 |  0.00
Comm    | 8.1539e-05 | 8.1539e-05 | 8.1539e-05 |   0.0 |  0.01
Output  | 0          | 0          | 0          |   0.0 |  0.00
Modify  | 0          | 0          | 0          |   0.0 |  0.00
Other   |            | 0.001035   |            |       |  0.14

Nlocal:    338 ave 338 max 338 min
Histogram: 1 0 0 0 0 0 0 0 0 0
Nghost:    0 ave 0 max 0 min
Histogram: 1 0 0 0 0 0 0 0 0 0
Neighs:    34896 ave 34896 max 34896 min
Histogram: 1 0 0 0 0 0 0 0 0 0

Total # of neighbors = 34896
Ave neighs/atom = 103.243
Ave special neighs/atom = 10.3905
Neighbor list builds = 0
Dangerous builds = 0
write_dump all custom pysimm.dump.tmp id q x y z vx vy vz
quit


################################################################################
##################################    Init    ##################################
################################################################################
units           real
atom_style      full
pair_style      lj/cut/coul/long 12.0  12.0
kspace_style    pppm 1e-4
bond_style      harmonic
angle_style     harmonic
dihedral_style  fourier
improper_style  cvff
special_bonds   amber
pair_modify     mix arithmetic
read_data       temp.lmps
  orthogonal box = (-100.034 -100.034 -100.034) to (100.034 100.034 100.034)
  1 by 1 by 1 MPI processor grid
  reading atoms ...
  350 atoms
  reading velocities ...
  350 velocities
  scanning bonds ...
  4 = max bonds/atom
  scanning angles ...
  6 = max angles/atom
  scanning dihedrals ...
  16 = max dihedrals/atom
  scanning impropers ...
  1 = max impropers/atom
  reading bonds ...
  349 bonds
  reading angles ...
  638 angles
  reading dihedrals ...
  832 dihedrals
  reading impropers ...
  29 impropers
  4 = max # of 1-2 neighbors
  7 = max # of 1-3 neighbors
  15 = max # of 1-4 neighbors
  19 = max # of special neighbors
  special bonds CPU = 0.000344038 secs
  read_data CPU = 0.00546098 secs
################################################################################

min_style cg
minimize 1e-06 1e-06 1000000 10000000
WARNING: Using 'neigh_modify every 1 delay 0 check yes' setting during minimization (../min.cpp:190)
PPPM initialization ...
  using 12-bit tables for long-range coulomb (../kspace.cpp:332)
  G vector (1/distance) = 0.12022
  grid = 24 24 24
  stencil order = 5
  estimated absolute RMS force accuracy = 0.0300082
  estimated relative force accuracy = 9.03687e-05
  using double precision KISS FFT
  3d grid and FFT values/proc = 24389 13824
Neighbor list info ...
  update every 1 steps, delay 0 steps, check yes
  max neighbors/atom: 2000, page size: 100000
  master list distance cutoff = 14
  ghost atom cutoff = 14
  binsize = 7, bins = 29 29 29
  1 neighbor lists, perpetual/occasional/extra = 1 0 0
  (1) pair lj/cut/coul/long, perpetual
      attributes: half, newton on
      pair build: half/bin/newton
      stencil: half/bin/3d/newton
      bin: standard
Per MPI rank memory allocation (min/avg/max) = 18.25 | 18.25 | 18.25 Mbytes
Step Temp E_pair E_mol TotEng Press 
       0     318.7854   -1831.4889    453.57044   -1046.2851   -1.2893733 
      31     318.7854   -1834.2681    284.47191   -1218.1629    2.3155212 
Loop time of 0.466204 on 1 procs for 31 steps with 350 atoms

99.9% CPU use with 1 MPI tasks x no OpenMP threads

Minimization stats:
  Stopping criterion = linesearch alpha is zero
  Energy initial, next-to-last, final = 
        -1377.91846324     -1549.79618849     -1549.79618849
  Force two-norm initial, final = 590.482 40.8234
  Force max component initial, final = 280.655 9.49678
[...]
kspace_style    pppm 1e-4
bond_style      harmonic
angle_style     harmonic
dihedral_style  fourier
improper_style  cvff
special_bonds   amber
pair_modify     mix arithmetic
read_data       temp.lmps
  orthogonal box = (-117.174 -117.174 -117.174) to (117.174 117.174 117.174)
  1 by 1 by 1 MPI processor grid
  reading atoms ...
  554 atoms
  reading velocities ...
  554 velocities
  scanning bonds ...
  4 = max bonds/atom
  scanning angles ...
  6 = max angles/atom
  scanning dihedrals ...
  16 = max dihedrals/atom
  scanning impropers ...
  1 = max impropers/atom
  reading bonds ...
  553 bonds
  reading angles ...
  1012 angles
  reading dihedrals ...
  1325 dihedrals
  reading impropers ...
  46 impropers
  4 = max # of 1-2 neighbors
  7 = max # of 1-3 neighbors
  15 = max # of 1-4 neighbors
  19 = max # of special neighbors
  special bonds CPU = 0.000533104 secs
  read_data CPU = 0.00708699 secs
################################################################################

min_style cg
minimize 1e-06 1e-06 1000000 10000000
WARNING: Using 'neigh_modify every 1 delay 0 check yes' setting during minimization (../min.cpp:190)
PPPM initialization ...
  using 12-bit tables for long-range coulomb (../kspace.cpp:332)
  G vector (1/distance) = 0.111289
  grid = 25 25 25
  stencil order = 5
  estimated absolute RMS force accuracy = 0.0401927
  estimated relative force accuracy = 0.000121039
  using double precision KISS FFT
  3d grid and FFT values/proc = 27000 15625
Neighbor list info ...
  update every 1 steps, delay 0 steps, check yes
  max neighbors/atom: 2000, page size: 100000
  master list distance cutoff = 14
  ghost atom cutoff = 14
  binsize = 7, bins = 34 34 34
  1 neighbor lists, perpetual/occasional/extra = 1 0 0
  (1) pair lj/cut/coul/long, perpetual
      attributes: half, newton on
      pair build: half/bin/newton
      stencil: half/bin/3d/newton
      bin: standard
Per MPI rank memory allocation (min/avg/max) = 18.6 | 18.6 | 18.6 Mbytes
Step Temp E_pair E_mol TotEng Press 
       0    202.49501   -2907.7695    611.36492   -1962.6142  -0.80984417 
       9    202.49501   -2909.2768    472.08124   -2103.4052   0.74634217 
Loop time of 0.577822 on 1 procs for 9 steps with 554 atoms

99.8% CPU use with 1 MPI tasks x no OpenMP threads

Minimization stats:
  Stopping criterion = linesearch alpha is zero
  Energy initial, next-to-last, final = 
        -2296.40453487     -2437.19557654     -2437.19557654
  Force two-norm initial, final = 588.477 37.3203
  Force max component initial, final = 250.651 9.80383
  Final line search alpha, max atom move = 6.67578e-12 6.54482e-11
  Iterations, force evaluations = 9 75

MPI task timing breakdown:
Section |  min time  |  avg time  |  max time  |%varavg| %total
---------------------------------------------------------------
Pair    | 0.19676    | 0.19676    | 0.19676    |   0.0 | 34.05
Bond    | 0.023246   | 0.023246   | 0.023246   |   0.0 |  4.02
Kspace  | 0.35684    | 0.35684    | 0.35684    |   0.0 | 61.76
Neigh   | 0          | 0          | 0          |   0.0 |  0.00
Comm    | 5.4359e-05 | 5.4359e-05 | 5.4359e-05 |   0.0 |  0.01
Output  | 0          | 0          | 0          |   0.0 |  0.00
Modify  | 0          | 0          | 0          |   0.0 |  0.00
Other   |            | 0.0009201  |            |       |  0.16

Nlocal:    554 ave 554 max 554 min
Histogram: 1 0 0 0 0 0 0 0 0 0
Nghost:    0 ave 0 max 0 min
Histogram: 1 0 0 0 0 0 0 0 0 0
Neighs:    57029 ave 57029 max 57029 min
Histogram: 1 0 0 0 0 0 0 0 0 0

Total # of neighbors = 57029
Ave neighs/atom = 102.94
Ave special neighs/atom = 10.4332
Neighbor list builds = 0
Dangerous builds = 0
write_dump all custom pysimm.dump.tmp id q x y z vx vy vz
quit


################################################################################
##################################    Init    ##################################
################################################################################
units           real
atom_style      full
pair_style      lj/cut/coul/long 12.0  12.0
kspace_style    pppm 1e-4
bond_style      harmonic
angle_style     harmonic
dihedral_style  fourier
improper_style  cvff
special_bonds   amber
pair_modify     mix arithmetic
read_data       temp.lmps
  orthogonal box = (-118.036 -118.036 -118.036) to (118.036 118.036 118.036)
  1 by 1 by 1 MPI processor grid
  reading atoms ...
  566 atoms
  reading velocities ...
  566 velocities
  scanning bonds ...
  4 = max bonds/atom
  scanning angles ...
  6 = max angles/atom
  scanning dihedrals ...
  16 = max dihedrals/atom
  scanning impropers ...
  1 = max impropers/atom
  reading bonds ...
  565 bonds
  reading angles ...
  1034 angles
  reading dihedrals ...
  1354 dihedrals
  reading impropers ...
  47 impropers
  4 = max # of 1-2 neighbors
  7 = max # of 1-3 neighbors
  15 = max # of 1-4 neighbors
  19 = max # of special neighbors
  special bonds CPU = 0.000568151 secs
  read_data CPU = 0.00746608 secs
################################################################################

min_style cg
minimize 1e-06 1e-06 1000000 10000000
WARNING: Using 'neigh_modify every 1 delay 0 check yes' setting during minimization (../min.cpp:190)
PPPM initialization ...
  using 12-bit tables for long-range coulomb (../kspace.cpp:332)
  G vector (1/distance) = 0.116559
  grid = 27 27 27
  stencil order = 5
  estimated absolute RMS force accuracy = 0.033804
  estimated relative force accuracy = 0.0001018
  using double precision KISS FFT
  3d grid and FFT values/proc = 32768 19683
Neighbor list info ...
  update every 1 steps, delay 0 steps, check yes
  max neighbors/atom: 2000, page size: 100000
  master list distance cutoff = 14
  ghost atom cutoff = 14
  binsize = 7, bins = 34 34 34
  1 neighbor lists, perpetual/occasional/extra = 1 0 0
  (1) pair lj/cut/coul/long, perpetual
      attributes: half, newton on
      pair build: half/bin/newton
      stencil: half/bin/3d/newton
      bin: standard
Per MPI rank memory allocation (min/avg/max) = 19.16 | 19.16 | 19.16 Mbytes
Step Temp E_pair E_mol TotEng Press 
       0    305.05982   -2971.4117     658.8908   -1798.7521  0.084542448 
      51    305.05982   -2991.4373    475.19412   -2002.4743    1.3461693 
Loop time of 1.36781 on 1 procs for 51 steps with 566 atoms

100.0% CPU use with 1 MPI tasks x no OpenMP threads

Minimization stats:
  Stopping criterion = linesearch alpha is zero
  Energy initial, next-to-last, final = 
        -2312.52093836     -2516.24317132     -2516.24317132
  Force two-norm initial, final = 587.025 29.3908
  Force max component initial, final = 226.667 4.70707
  Final line search alpha, max atom move = 1.29771e-11 6.10841e-11
  Iterations, force evaluations = 51 156

MPI task timing breakdown:
Section |  min time  |  avg time  |  max time  |%varavg| %total
---------------------------------------------------------------
Pair    | 0.40462    | 0.40462    | 0.40462    |   0.0 | 29.58
Bond    | 0.044302   | 0.044302   | 0.044302   |   0.0 |  3.24
Kspace  | 0.9131     | 0.9131     | 0.9131     |   0.0 | 66.76
Neigh   | 0.0032389  | 0.0032389  | 0.0032389  |   0.0 |  0.24
Comm    | 0.00012183 | 0.00012183 | 0.00012183 |   0.0 |  0.01
Output  | 0          | 0          | 0          |   0.0 |  0.00
Modify  | 0          | 0          | 0          |   0.0 |  0.00
Other   |            | 0.002425   |            |       |  0.18

Nlocal:    566 ave 566 max 566 min
Histogram: 1 0 0 0 0 0 0 0 0 0
Nghost:    0 ave 0 max 0 min
Histogram: 1 0 0 0 0 0 0 0 0 0
Neighs:    61867 ave 61867 max 61867 min
Histogram: 1 0 0 0 0 0 0 0 0 0

Total # of neighbors = 61867
Ave neighs/atom = 109.306
Ave special neighs/atom = 10.4346
Neighbor list builds = 2
Dangerous builds = 0
write_dump all custom pysimm.dump.tmp id q x y z vx vy vz
quit


################################################################################
##################################    Init    ##################################
################################################################################
units           real
atom_style      full
pair_style      lj/cut/coul/long 12.0  12.0
kspace_style    pppm 1e-4
bond_style      harmonic
angle_style     harmonic
dihedral_style  fourier
improper_style  cvff
special_bonds   amber
pair_modify     mix arithmetic
read_data       temp.lmps
  orthogonal box = (-118.885 -118.885 -118.885) to (118.885 118.885 118.885)
  1 by 1 by 1 MPI processor grid
  reading atoms ...
  578 atoms
  reading velocities ...
  578 velocities
  scanning bonds ...
  4 = max bonds/atom
  scanning angles ...
  6 = max angles/atom
  scanning dihedrals ...
  16 = max dihedrals/atom
  scanning impropers ...
  1 = max impropers/atom
  reading bonds ...
  577 bonds
  reading angles ...
  1056 angles
  reading dihedrals ...
  1383 dihedrals
  reading impropers ...
  48 impropers
  4 = max # of 1-2 neighbors
  7 = max # of 1-3 neighbors
  15 = max # of 1-4 neighbors
  19 = max # of special neighbors
  special bonds CPU = 0.000726938 secs
  read_data CPU = 0.00770307 secs
################################################################################

min_style cg
minimize 1e-06 1e-06 1000000 10000000
WARNING: Using 'neigh_modify every 1 delay 0 check yes' setting during minimization (../min.cpp:190)
PPPM initialization ...
  using 12-bit tables for long-range coulomb (../kspace.cpp:332)
  G vector (1/distance) = 0.116012
  grid = 27 27 27
  stencil order = 5
  estimated absolute RMS force accuracy = 0.0344222
  estimated relative force accuracy = 0.000103661
  using double precision KISS FFT
  3d grid and FFT values/proc = 32768 19683
Neighbor list info ...
  update every 1 steps, delay 0 steps, check yes
  max neighbors/atom: 2000, page size: 100000
  master list distance cutoff = 14
  ghost atom cutoff = 14
  binsize = 7, bins = 34 34 34
  1 neighbor lists, perpetual/occasional/extra = 1 0 0
  (1) pair lj/cut/coul/long, perpetual
      attributes: half, newton on
      pair build: half/bin/newton
      stencil: half/bin/3d/newton
      bin: standard
Per MPI rank memory allocation (min/avg/max) = 19.16 | 19.16 | 19.16 Mbytes
Step Temp E_pair E_mol TotEng Press 
       0     244.7583   -3053.9865    658.41864   -1974.6014  0.070033688 
      22     244.7583   -3054.9287     494.7983   -2139.1639    1.0947754 
Loop time of 1.01193 on 1 procs for 22 steps with 578 atoms

100.1% CPU use with 1 MPI tasks x no OpenMP threads

Minimization stats:
  Stopping criterion = linesearch alpha is zero
  Energy initial, next-to-last, final = 
         -2395.5678929      -2560.1304466      -2560.1304466
  Force two-norm initial, final = 587.629 53.5768
  Force max component initial, final = 284.94 8.70674
  Final line search alpha, max atom move = 4.23872e-12 3.69054e-11
  Iterations, force evaluations = 22 99

MPI task timing breakdown:
Section |  min time  |  avg time  |  max time  |%varavg| %total
---------------------------------------------------------------
Pair    | 0.31392    | 0.31392    | 0.31392    |   0.0 | 31.02
Bond    | 0.03237    | 0.03237    | 0.03237    |   0.0 |  3.20
Kspace  | 0.65984    | 0.65984    | 0.65984    |   0.0 | 65.21
Neigh   | 0.0042541  | 0.0042541  | 0.0042541  |   0.0 |  0.42
Comm    | 9.346e-05  | 9.346e-05  | 9.346e-05  |   0.0 |  0.01
Output  | 0          | 0          | 0          |   0.0 |  0.00
Modify  | 0          | 0          | 0          |   0.0 |  0.00
Other   |            | 0.001457   |            |       |  0.14

Nlocal:    578 ave 578 max 578 min
Histogram: 1 0 0 0 0 0 0 0 0 0
Nghost:    0 ave 0 max 0 min
Histogram: 1 0 0 0 0 0 0 0 0 0
Neighs:    65559 ave 65559 max 65559 min
Histogram: 1 0 0 0 0 0 0 0 0 0

Total # of neighbors = 65559
Ave neighs/atom = 113.424
Ave special neighs/atom = 10.436
Neighbor list builds = 1
Dangerous builds = 0
write_dump all custom pysimm.dump.tmp id q x y z vx vy vz
quit


################################################################################
##################################    Init    ##################################
################################################################################
units           real
atom_style      full
pair_style      lj/cut/coul/long 12.0  12.0
kspace_style    pppm 1e-4
bond_style      harmonic
angle_style     harmonic
dihedral_style  fourier
improper_style  cvff
special_bonds   amber
pair_modify     mix arithmetic
read_data       temp.lmps
  orthogonal box = (-119.723 -119.723 -119.723) to (119.723 119.723 119.723)
  1 by 1 by 1 MPI processor grid
  reading atoms ...
  590 atoms
  reading velocities ...
  590 velocities
  scanning bonds ...
  4 = max bonds/atom
  scanning angles ...
  6 = max angles/atom
  scanning dihedrals ...
  16 = max dihedrals/atom
  scanning impropers ...
  1 = max impropers/atom
  reading bonds ...
  589 bonds
  reading angles ...
  1078 angles
  reading dihedrals ...
  1412 dihedrals
  reading impropers ...
  49 impropers
  4 = max # of 1-2 neighbors
  7 = max # of 1-3 neighbors
  15 = max # of 1-4 neighbors
  19 = max # of special neighbors
  special bonds CPU = 0.000620127 secs
  read_data CPU = 0.00721598 secs
################################################################################

min_style cg
minimize 1e-06 1e-06 1000000 10000000
WARNING: Using 'neigh_modify every 1 delay 0 check yes' setting during minimization (../min.cpp:190)
PPPM initialization ...
  using 12-bit tables for long-range coulomb (../kspace.cpp:332)
  G vector (1/distance) = 0.115478
  grid = 27 27 27
  stencil order = 5
  estimated absolute RMS force accuracy = 0.0350344
  estimated relative force accuracy = 0.000105505
  using double precision KISS FFT
  3d grid and FFT values/proc = 32768 19683
Neighbor list info ...
  update every 1 steps, delay 0 steps, check yes
  max neighbors/atom: 2000, page size: 100000
  master list distance cutoff = 14
  ghost atom cutoff = 14
  binsize = 7, bins = 35 35 35
  1 neighbor lists, perpetual/occasional/extra = 1 0 0
  (1) pair lj/cut/coul/long, perpetual
      attributes: half, newton on
      pair build: half/bin/newton
      stencil: half/bin/3d/newton
      bin: standard
Per MPI rank memory allocation (min/avg/max) = 19.18 | 19.18 | 19.18 Mbytes
Step Temp E_pair E_mol TotEng Press 
       0    249.81238   -3095.0208    670.85449   -1985.5714  -0.25542375 
      24    249.81238   -3109.7967    512.22765   -2158.9742    1.0178244 
Loop time of 0.7819 on 1 procs for 24 steps with 590 atoms

99.9% CPU use with 1 MPI tasks x no OpenMP threads

Minimization stats:
  Stopping criterion = linesearch alpha is zero
  Energy initial, next-to-last, final = 
        -2424.16628367     -2597.56906087     -2597.56906087
  Force two-norm initial, final = 585.952 48.631
  Force max component initial, final = 274.737 8.61266
  Final line search alpha, max atom move = 2.73019e-12 2.35142e-11
  Iterations, force evaluations = 24 105

MPI task timing breakdown:
Section |  min time  |  avg time  |  max time  |%varavg| %total
---------------------------------------------------------------
Pair    | 0.23522    | 0.23522    | 0.23522    |   0.0 | 30.08
Bond    | 0.02578    | 0.02578    | 0.02578    |   0.0 |  3.30
Kspace  | 0.51961    | 0.51961    | 0.51961    |   0.0 | 66.46
Neigh   | 0          | 0          | 0          |   0.0 |  0.00
Comm    | 5.3406e-05 | 5.3406e-05 | 5.3406e-05 |   0.0 |  0.01
Output  | 0          | 0          | 0          |   0.0 |  0.00
Modify  | 0          | 0          | 0          |   0.0 |  0.00
Other   |            | 0.001234   |            |       |  0.16

Nlocal:    590 ave 590 max 590 min
Histogram: 1 0 0 0 0 0 0 0 0 0
Nghost:    0 ave 0 max 0 min
Histogram: 1 0 0 0 0 0 0 0 0 0
Neighs:    64114 ave 64114 max 64114 min
Histogram: 1 0 0 0 0 0 0 0 0 0

Total # of neighbors = 64114
Ave neighs/atom = 108.668
Ave special neighs/atom = 10.4373
Neighbor list builds = 0
Dangerous builds = 0
write_dump all custom pysimm.dump.tmp id q x y z vx vy vz
quit


################################################################################
##################################    Init    ##################################
################################################################################
units           real
atom_style      full
pair_style      lj/cut/coul/long 12.0  12.0
kspace_style    pppm 1e-4
bond_style      harmonic
angle_style     harmonic
dihedral_style  fourier
improper_style  cvff
special_bonds   amber
pair_modify     mix arithmetic
read_data       temp.lmps
  orthogonal box = (-120.548 -120.548 -120.548) to (120.548 120.548 120.548)
  1 by 1 by 1 MPI processor grid
  reading atoms ...
  602 atoms
  reading velocities ...
  602 velocities
  scanning bonds ...
  4 = max bonds/atom
  scanning angles ...
  6 = max angles/atom
  scanning dihedrals ...
  16 = max dihedrals/atom
  scanning impropers ...
  1 = max impropers/atom
  reading bonds ...
  601 bonds
  reading angles ...
  1100 angles
  reading dihedrals ...
  1441 dihedrals
  reading impropers ...
  50 impropers
  4 = max # of 1-2 neighbors
  7 = max # of 1-3 neighbors
  15 = max # of 1-4 neighbors
  19 = max # of special neighbors
  special bonds CPU = 0.000505209 secs
  read_data CPU = 0.00733995 secs
################################################################################

min_style cg
minimize 1e-06 1e-06 1000000 10000000
WARNING: Using 'neigh_modify every 1 delay 0 check yes' setting during minimization (../min.cpp:190)
PPPM initialization ...
  using 12-bit tables for long-range coulomb (../kspace.cpp:332)
  G vector (1/distance) = 0.114956
  grid = 27 27 27
  stencil order = 5
  estimated absolute RMS force accuracy = 0.0356408
  estimated relative force accuracy = 0.000107331
  using double precision KISS FFT
  3d grid and FFT values/proc = 32768 19683
Neighbor list info ...
  update every 1 steps, delay 0 steps, check yes
  max neighbors/atom: 2000, page size: 100000
  master list distance cutoff = 14
  ghost atom cutoff = 14
  binsize = 7, bins = 35 35 35
  1 neighbor lists, perpetual/occasional/extra = 1 0 0
  (1) pair lj/cut/coul/long, perpetual
      attributes: half, newton on
      pair build: half/bin/newton
      stencil: half/bin/3d/newton
      bin: standard
Per MPI rank memory allocation (min/avg/max) = 19.18 | 19.18 | 19.18 Mbytes
Step Temp E_pair E_mol TotEng Press 
       0    208.84568   -3172.0637    689.23862    -2108.685  -0.73085955 
      39    208.84568   -3195.5238    500.57903   -2320.8047   0.87859261 
Loop time of 1.24276 on 1 procs for 39 steps with 602 atoms

100.0% CPU use with 1 MPI tasks x no OpenMP threads

Minimization stats:
  Stopping criterion = linesearch alpha is zero
  Energy initial, next-to-last, final = 
        -2482.82511648     -2694.94476593     -2694.94476593
  Force two-norm initial, final = 602.827 28.7241
  Force max component initial, final = 282.596 4.24083
  Final line search alpha, max atom move = 9.92838e-12 4.21045e-11
  Iterations, force evaluations = 39 133

MPI task timing breakdown:
Section |  min time  |  avg time  |  max time  |%varavg| %total
---------------------------------------------------------------
Pair    | 0.39739    | 0.39739    | 0.39739    |   0.0 | 31.98
Bond    | 0.040732   | 0.040732   | 0.040732   |   0.0 |  3.28
Kspace  | 0.79776    | 0.79776    | 0.79776    |   0.0 | 64.19
Neigh   | 0.0045862  | 0.0045862  | 0.0045862  |   0.0 |  0.37
Comm    | 0.00011086 | 0.00011086 | 0.00011086 |   0.0 |  0.01
Output  | 0          | 0          | 0          |   0.0 |  0.00
Modify  | 0          | 0          | 0          |   0.0 |  0.00
Other   |            | 0.00219    |            |       |  0.18

Nlocal:    602 ave 602 max 602 min
Histogram: 1 0 0 0 0 0 0 0 0 0
Nghost:    0 ave 0 max 0 min
Histogram: 1 0 0 0 0 0 0 0 0 0
Neighs:    68995 ave 68995 max 68995 min
Histogram: 1 0 0 0 0 0 0 0 0 0

Total # of neighbors = 68995
Ave neighs/atom = 114.61
Ave special neighs/atom = 10.4385
Neighbor list builds = 1
Dangerous builds = 0
write_dump all custom pysimm.dump.tmp id q x y z vx vy vz
quit
