pySIMM System Object

362 atoms
361 bonds
660 angles
861 dihedrals
30 impropers

6 atom types
7 bond types
12 angle types
10 dihedral types
1 improper types

-101.211077 101.211077 xlo xhi
-101.211077 101.211077 ylo yhi
-101.211077 101.211077 zlo zhi

Masses

   1	12.01	# c3
   2	1.008	# hc
   3	16.0	# os
   4	1.008	# h1
   5	12.01	# c
   6	16.0	# o

Pair Coeffs

   1	0.1094	3.3996695084235347	# c3
   2	0.0157	2.649532787749369	# hc
   3	0.17	3.0000123434657784	# os
   4	0.0157	2.471353044121301	# h1
   5	0.086	3.3996695084235347	# c
   6	0.21	2.959921901149463	# o

Bond Coeffs

   1	330.6	1.0969	# c3,hc
   2	637.7	1.2183	# c,o
   3	330.6	1.0969	# c3,h1
   4	308.6	1.4316	# c3,os
   5	313.0	1.5241	# c,c3
   6	390.8	1.3584	# c,os
   7	300.9	1.5375	# c3,c3

Angle Coeffs

   1	67.4	123.2	# c3,c,o
   2	46.93	108.77	# c,c3,hc
   3	75.32	123.25	# o,c,os
   4	68.0	107.97	# c3,c3,os
   5	46.34	109.8	# c3,c3,hc
   6	46.39	109.56	# c3,c3,h1
   7	63.28	115.98	# c,os,c3
   8	50.8	109.78	# h1,c3,os
   9	68.89	110.72	# c3,c,os
  10	39.4	107.58	# hc,c3,hc
  11	39.24	108.46	# h1,c3,h1
  12	62.86	111.51	# c3,c3,c3

Dihedral Coeffs

   1	2	0.383	3	0	0.8	1	180	# c3,c3,os,c
   2	2	0.0	3	0	0.25	1	0	# hc,c3,c3,os
   3	1	0.3833333333333333	3	0	# X,c3,os,X
   4	1	0.0	2	180	# X,c,c3,X
   5	3	0.8	1	0	0.0	2	0	0.08	3	180	# hc,c3,c,o
   6	3	2.7	2	180	0.0	1	0	1.15	3	0	# c3,c,os,c3
   7	1	0.15555555555555556	3	0	# X,c3,c3,X
   8	2	2.7	2	180	1.4	1	180	# o,c,os,c3
   9	1	0.16	3	0	# hc,c3,c3,c3
  10	3	0.18	3	0	0.25	2	180	0.2	1	180	# c3,c3,c3,c3

Improper Coeffs

   1	10.5	-1	2	# c,X,X,o

Atoms

   1	1	1	-0.003445	-10.181	-2.43579	4.93267
   2	1	1	0.299845	-10.1911	-3.985	4.87692
   3	1	2	0.023286	-9.62149	-2.03567	4.07844
   4	1	2	-0.011958	-11.2072	-2.06025	4.82852
   5	1	3	-0.518063	-9.83886	-4.44707	3.56326
   6	1	4	0.011666	-11.1755	-4.36402	5.18006
   7	1	5	0.843192	-10.7846	-4.38472	2.59248
   8	1	1	-0.399874	-10.2621	-4.96387	1.30089
   9	1	2	0.119224	-10.1834	-6.05009	1.41161
  10	1	2	0.109051	-9.27567	-4.5438	1.08228
  11	1	2	0.118031	-10.9576	-4.72562	0.490338
  12	1	6	-0.590955	-11.8806	-3.8723	2.70773
  13	1	1	-0.003445	-10.4294	-2.23787	7.49636
  14	1	1	0.299845	-9.56777	-1.8933	6.24954
  15	1	2	0.023286	-11.2261	-1.48672	7.56969
  16	1	2	-0.011958	-10.9358	-3.20111	7.3556
  17	1	3	-0.518063	-8.24355	-2.44212	6.4042
  18	1	4	0.011666	-9.49998	-0.798665	6.19317
  19	1	5	0.843192	-7.23239	-1.96094	5.63854
  20	1	1	-0.399874	-5.96167	-2.72669	5.9007
  21	1	2	0.119224	-5.11852	-2.18806	5.45717
  22	1	2	0.109051	-6.05197	-3.71804	5.44771
  23	1	2	0.118031	-5.81742	-2.82415	6.98166
  24	1	6	-0.590955	-7.30884	-1.02583	4.86885
  25	1	1	-0.003445	-9.0804	-3.68841	9.14734
  26	1	1	0.299845	-9.62493	-2.27201	8.82549
  27	1	2	0.023286	-9.91982	-4.37601	9.26855
  28	1	2	-0.011958	-8.50951	-4.08017	8.29676
  29	1	3	-0.518063	-10.42	-1.77758	9.92969
  30	1	4	0.011666	-8.77278	-1.58797	8.7239
  31	1	5	0.843192	-11.5754	-2.37873	10.3263
  32	1	1	-0.399874	-12.1498	-1.68923	11.5369
  33	1	2	0.119224	-12.2468	-0.618637	11.3346
  34	1	2	0.109051	-11.4731	-1.83881	12.3853
  35	1	2	0.118031	-13.1304	-2.11577	11.7691
  36	1	6	-0.590955	-12.1179	-3.3122	9.76869
  37	1	1	-0.003445	-7.8416	-5.16487	10.8324
  38	1	1	0.299845	-8.17896	-3.71337	10.4009
  39	1	2	0.023286	-7.41276	-5.68665	9.97039
  40	1	2	-0.011958	-7.04506	-5.16135	11.5868
  41	1	3	-0.518063	-6.96081	-3.03305	10.0365
  42	1	4	0.011666	-8.67672	-3.18153	11.2195
  43	1	5	0.843192	-6.12508	-2.60698	11.0185
  44	1	1	-0.399874	-4.90359	-1.95153	10.423
  45	1	2	0.119224	-4.21201	-1.68091	11.2274
  46	1	2	0.109051	-5.20691	-1.05226	9.87829
  47	1	2	0.118031	-4.41768	-2.64926	9.73531
  48	1	6	-0.590955	-6.29976	-2.74563	12.2122
  49	1	1	-0.003445	-9.19651	-7.36518	10.758
  50	1	1	0.299845	-9.06432	-5.95569	11.3875
  51	1	2	0.023286	-9.80665	-8.00652	11.4036
  52	1	2	-0.011958	-8.20492	-7.83511	10.7149
  53	1	3	-0.518063	-8.89241	-6.12604	12.8061
  54	1	4	0.011666	-9.99951	-5.41282	11.2021
  55	1	5	0.843192	-9.2031	-5.08459	13.6219
  56	1	1	-0.399874	-8.87216	-5.40755	15.0576
  57	1	2	0.119224	-9.60641	-6.12024	15.4437
  58	1	2	0.109051	-8.89311	-4.48806	15.6513
  59	1	2	0.118031	-7.87342	-5.8525	15.1058
  60	1	6	-0.590955	-9.74447	-4.05443	13.2684
  61	1	1	-0.003445	-9.72215	-8.62768	8.53484
  62	1	1	0.299845	-9.80055	-7.29575	9.329
  63	1	2	0.023286	-8.70231	-9.01699	8.64566
  64	1	2	-0.011958	-10.3871	-9.39732	8.94317
  65	1	3	-0.518063	-11.1407	-6.75629	9.36053
  66	1	4	0.011666	-9.19237	-6.57616	8.77262
  67	1	5	0.843192	-12.1778	-7.4166	9.94658
  68	1	1	-0.399874	-13.4486	-6.6111	9.84965
  69	1	2	0.119224	-13.2795	-5.62109	10.2836
  70	1	2	0.109051	-14.2487	-7.1218	10.3946
  71	1	2	0.118031	-13.7248	-6.49905	8.79846
  72	1	6	-0.590955	-12.1072	-8.47378	10.5392
  73	1	1	-0.003445	-9.58484	-9.63752	6.16062
  74	1	1	0.299845	-9.99417	-8.41193	7.02615
  75	1	2	0.023286	-8.94575	-10.3119	6.7446
  76	1	2	-0.011958	-10.482	-10.2244	5.92847
  77	1	3	-0.518063	-11.4012	-8.16757	6.83512
  78	1	4	0.011666	-9.41673	-7.53276	6.72877
  79	1	5	0.843192	-11.7946	-7.50145	5.71943
  80	1	1	-0.399874	-13.297	-7.41995	5.62406
  81	1	2	0.119224	-13.7333	-8.37217	5.94168
  82	1	2	0.109051	-13.5809	-7.21754	4.58588
  83	1	2	0.118031	-13.6574	-6.61592	6.27081
  84	1	6	-0.590955	-11.0402	-6.95401	4.94059
  85	1	1	-0.003445	-7.42575	-8.65152	5.14698
  86	1	1	0.299845	-8.82457	-9.25561	4.85529
  87	1	2	0.023286	-7.15052	-8.88284	6.18251
  88	1	2	-0.011958	-6.67349	-9.16767	4.54286
  89	1	3	-0.518063	-8.60135	-10.441	4.06861
  90	1	4	0.011666	-9.40569	-8.54903	4.25556
  91	1	5	0.843192	-9.64396	-10.9714	3.37416
  92	1	1	-0.399874	-9.20926	-12.2025	2.61724
  93	1	2	0.119224	-8.56968	-11.8973	1.78385
  94	1	2	0.109051	-10.092	-12.7248	2.23427
  95	1	2	0.118031	-8.64893	-12.8632	3.28556
  96	1	6	-0.590955	-10.7887	-10.5651	3.40085
  97	1	1	-0.003445	-7.34508	-6.67934	3.41716
  98	1	1	0.299845	-7.32983	-7.11553	4.9038
  99	1	2	0.023286	-7.18702	-5.59424	3.36984
 100	1	2	-0.011958	-8.36074	-6.84502	3.04022
 101	1	3	-0.518063	-6.12392	-6.60866	5.51169
 102	1	4	0.011666	-8.18613	-6.61815	5.37344
 103	1	5	0.843192	-6.0818	-6.48035	6.86376
 104	1	1	-0.399874	-4.73251	-5.98653	7.32148
 105	1	2	0.119224	-4.44902	-5.10079	6.74678
 106	1	2	0.109051	-3.98821	-6.77236	7.15917
 107	1	2	0.118031	-4.77927	-5.73651	8.38646
 108	1	6	-0.590955	-7.00345	-6.72219	7.61923
 109	1	1	-0.003445	-4.83094	-7.11182	2.7622
 110	1	1	0.299845	-6.33335	-7.38054	2.46497
 111	1	2	0.023286	-4.31509	-6.96561	1.80923
 112	1	2	-0.011958	-4.71258	-6.17325	3.31854
 113	1	3	-0.518063	-6.55449	-6.88581	1.13204
 114	1	4	0.011666	-6.51755	-8.46135	2.46846
 115	1	5	0.843192	-7.59198	-7.38408	0.41225
 116	1	1	-0.399874	-7.62975	-6.76846	-0.962806
 117	1	2	0.119224	-8.4333	-7.22592	-1.54773
 118	1	2	0.109051	-6.66858	-6.93391	-1.45947
 119	1	2	0.118031	-7.79847	-5.69074	-0.874065
 120	1	6	-0.590955	-8.35945	-8.24608	0.794007
 121	1	1	-0.003445	-2.63738	-8.03861	3.83439
 122	1	1	0.299845	-4.14173	-8.27312	3.51911
 123	1	2	0.023286	-2.38596	-8.66223	4.7019
 124	1	2	-0.011958	-2.48853	-7.00278	4.16696
 125	1	3	-0.518063	-4.31508	-9.46315	2.72791
 126	1	4	0.011666	-4.65599	-8.38654	4.47875
 127	1	5	0.843192	-4.22472	-10.6754	3.33458
 128	1	1	-0.399874	-4.49083	-11.7874	2.35216
 129	1	2	0.119224	-5.54315	-11.7549	2.05348
 130	1	2	0.109051	-4.26777	-12.752	2.81937
 131	1	2	0.118031	-3.8618	-11.6511	1.46632
 132	1	6	-0.590955	-3.99709	-10.8445	4.51547
 133	1	1	-0.003445	-1.57563	-7.32473	1.56205
 134	1	1	0.299845	-1.63381	-8.38041	2.69896
 135	1	2	0.023286	-2.16616	-6.44479	1.83992
 136	1	2	-0.011958	-0.54739	-6.9572	1.44276
 137	1	3	-0.518063	-0.33972	-8.4506	3.3248
 138	1	4	0.011666	-1.88865	-9.36681	2.2911
 139	1	5	0.843192	0.610426	-9.25037	2.77206
 140	1	1	-0.399874	1.89244	-9.17653	3.5623
 141	1	2	0.119224	1.70449	-9.52837	4.58097
 142	1	2	0.109051	2.24252	-8.14051	3.59377
 143	1	2	0.118031	2.6481	-9.80927	3.08588
 144	1	6	-0.590955	0.442604	-10.013	1.84164
 145	1	1	-0.003445	-2.50079	-6.81053	-0.812289
 146	1	1	0.299845	-2.07281	-7.89336	0.211459
 147	1	2	0.023286	-2.88079	-7.31367	-1.71001
 148	1	2	-0.011958	-3.3479	-6.2456	-0.402145
 149	1	3	-0.518063	-0.987931	-8.64962	-0.346511
 150	1	4	0.011666	-2.93579	-8.54346	0.408312
 151	1	5	0.843192	-1.24895	-9.63067	-1.24473
 152	1	1	-0.399874	0.0310098	-10.2308	-1.76957
 153	1	2	0.119224	-0.190668	-10.8818	-2.62075
 154	1	2	0.109051	0.507623	-10.8082	-0.970539
 155	1	2	0.118031	0.706701	-9.42843	-2.08131
 156	1	6	-0.590955	-2.35574	-9.92121	-1.65382
 157	1	1	-0.003445	-1.67711	-5.05294	-2.53073
 158	1	1	0.299845	-1.36585	-5.83619	-1.22388
 159	1	2	0.023286	-0.91628	-4.2784	-2.6716
 160	1	2	-0.011958	-1.56123	-5.74135	-3.37758
 161	1	3	-0.518063	-1.15168	-4.90669	-0.142359
 162	1	4	0.011666	-0.452474	-6.42089	-1.3938
 163	1	5	0.843192	0.0299532	-4.2405	-0.0773378
 164	1	1	-0.399874	0.042856	-3.27954	1.08539
 165	1	2	0.119224	-0.378267	-3.76778	1.96904
 166	1	2	0.109051	-0.560066	-2.4032	0.829545
 167	1	2	0.118031	1.07428	-2.9742	1.28896
 168	1	6	-0.590955	0.973018	-4.40387	-0.82461
 169	1	1	-0.003445	-3.41151	-3.69722	-3.93002
 170	1	1	0.299845	-3.10078	-4.43646	-2.60089
 171	1	2	0.023286	-4.34872	-3.13623	-3.82278
 172	1	2	-0.011958	-3.61417	-4.46531	-4.68597
 173	1	3	-0.518063	-3.30085	-3.54905	-1.48347
 174	1	4	0.011666	-3.81132	-5.26943	-2.53034
 175	1	5	0.843192	-4.56406	-3.38509	-1.00591
 176	1	1	-0.399874	-4.5717	-2.48592	0.204509
 177	1	2	0.119224	-5.56672	-2.5046	0.66164
 178	1	2	0.109051	-4.32459	-1.46482	-0.101496
 179	1	2	0.118031	-3.82812	-2.84264	0.923212
 180	1	6	-0.590955	-5.55421	-3.94725	-1.42997
 181	1	1	-0.003445	-1.96057	-1.58489	-3.49374
 182	1	1	0.299845	-2.3058	-2.74136	-4.46529
 183	1	2	0.023286	-2.89755	-1.1949	-3.07881
 184	1	2	-0.011958	-1.38877	-1.98368	-2.64637
 185	1	3	-0.518063	-2.77404	-2.16555	-5.69941
 186	1	4	0.011666	-1.38949	-3.31393	-4.65465
 187	1	5	0.843192	-2.73676	-2.92988	-6.8224
 188	1	1	-0.399874	-3.33053	-2.19593	-7.9977
 189	1	2	0.119224	-4.42112	-2.24481	-7.93165
 190	1	2	0.109051	-2.99445	-2.66653	-8.92746
 191	1	2	0.118031	-3.0177	-1.14879	-7.97069
 192	1	6	-0.590955	-2.23874	-4.03415	-6.90109
 193	1	1	-0.003445	0.187148	-0.835868	-4.78148
 194	1	1	0.299845	-1.15788	-0.413373	-4.12936
 195	1	2	0.023286	0.0731056	-1.78975	-5.30748
 196	1	2	-0.011958	0.930641	-1.01987	-3.9947
 197	1	3	-0.518063	-0.82352	0.50534	-3.06854
 198	1	4	0.011666	-1.77721	0.0824145	-4.88863
 199	1	5	0.843192	-1.7815	1.3294	-2.57464
 200	1	1	-0.399874	-1.22056	2.20654	-1.48384
 201	1	2	0.119224	-0.300879	2.68147	-1.83883
 202	1	2	0.109051	-0.994835	1.59309	-0.606475
 203	1	2	0.118031	-1.95617	2.97382	-1.22226
 204	1	6	-0.590955	-2.92526	1.39994	-2.97528
 205	1	1	-0.003445	0.87276	1.65683	-5.32196
 206	1	1	0.299845	0.762177	0.18706	-5.8003
 207	1	2	0.023286	1.5764	1.71712	-4.48248
 208	1	2	-0.011958	-0.0947011	2.01024	-4.94798
 209	1	3	-0.518063	-0.0442857	0.188183	-6.99479
 210	1	4	0.011666	1.783	-0.135707	-6.04203
 211	1	5	0.843192	0.299063	-0.655254	-8.00303
 212	1	1	-0.399874	-0.512532	-0.380427	-9.24564
 213	1	2	0.119224	-0.913562	-1.32347	-9.62702
 214	1	2	0.109051	0.140526	0.0709674	-9.99891
 215	1	2	0.118031	-1.33095	0.310674	-9.02059
 216	1	6	-0.590955	1.16896	-1.4997	-7.9476
 217	1	1	-0.003445	1.56371	4.06387	-5.98432
 218	1	1	0.299845	1.29726	2.61617	-6.46625
 219	1	2	0.023286	0.621983	4.49974	-5.62621
 220	1	2	-0.011958	2.24616	4.05662	-5.12501
 221	1	3	-0.518063	2.40792	2.09372	-7.23419
 222	1	4	0.011666	0.446568	2.67585	-7.15681
 223	1	5	0.843192	3.63732	1.89064	-6.69407
 224	1	1	-0.399874	4.59648	1.39624	-7.74607
 225	1	2	0.119224	4.65422	2.1359	-8.55159
 226	1	2	0.109051	4.22808	0.449304	-8.154
 227	1	2	0.118031	5.58623	1.25095	-7.30282
 228	1	6	-0.590955	3.93816	2.08174	-5.53319
 229	1	1	-0.003445	2.38519	6.40065	-6.61369
 230	1	1	0.299845	2.147	4.95526	-7.10405
 231	1	2	0.023286	2.75068	6.34753	-5.58509
 232	1	2	-0.011958	1.42715	6.93535	-6.56988
 233	1	3	-0.518063	1.19185	4.97463	-8.18201
 234	1	4	0.011666	3.09948	4.50909	-7.41291
 235	1	5	0.843192	1.64413	4.90718	-9.46008
 236	1	1	-0.399874	0.489007	4.92841	-10.4299
 237	1	2	0.119224	-0.0893423	5.84524	-10.2819
 238	1	2	0.109051	-0.153562	4.06206	-10.2453
 239	1	2	0.118031	0.873799	4.89367	-11.454
 240	1	6	-0.590955	2.80742	4.82181	-9.79771
 241	1	1	-0.003445	3.60218	8.6502	-6.97634
 242	1	1	0.299845	3.38733	7.19442	-7.49046
 243	1	2	0.023286	3.8943	9.28072	-7.82534
 244	1	2	-0.011958	2.64388	9.05416	-6.62541
 245	1	3	-0.518063	4.61867	6.44239	-7.52219
 246	1	4	0.011666	2.96727	7.24949	-8.50294
 247	1	5	0.843192	5.57709	6.75781	-8.43279
 248	1	1	-0.399874	6.73629	5.79668	-8.34112
 249	1	2	0.119224	7.61488	6.24139	-8.81886
 250	1	2	0.109051	6.47325	4.86258	-8.84573
 251	1	2	0.118031	6.96443	5.59319	-7.29002
 252	1	6	-0.590955	5.5501	7.72681	-9.16658
 253	1	1	-0.003445	4.75036	10.2441	-5.28355
 254	1	1	0.299845	4.67473	8.80746	-5.8699
 255	1	2	0.023286	4.72056	10.1935	-4.18818
 256	1	2	-0.011958	3.87235	10.8332	-5.57992
 257	1	3	-0.518063	4.38544	7.89864	-4.7913
 258	1	4	0.011666	5.6402	8.54514	-6.32234
 259	1	5	0.843192	5.42438	7.46772	-4.03337
 260	1	1	-0.399874	4.96334	6.51377	-2.96038
 261	1	2	0.119224	4.11501	6.95051	-2.42542
 262	1	2	0.109051	5.78575	6.33191	-2.25956
 263	1	2	0.118031	4.65648	5.57222	-3.42555
 264	1	6	-0.590955	6.57975	7.79347	-4.20676
 265	1	1	-0.003445	6.33787	12.2433	-4.8673
 266	1	1	0.299845	6.04184	10.9699	-5.71764
 267	1	2	0.023286	6.98909	12.9321	-5.41869
 268	1	2	-0.011958	5.39658	12.7821	-4.69579
 269	1	3	-0.518063	5.90089	11.3237	-7.1051
 270	1	4	0.011666	6.86274	10.2523	-5.62626
 271	1	5	0.843192	7.03234	11.5667	-7.81919
 272	1	1	-0.399874	6.70692	11.9215	-9.24846
 273	1	2	0.119224	5.99629	12.7531	-9.26435
 274	1	2	0.109051	6.25826	11.0511	-9.73894
 275	1	2	0.118031	7.62546	12.2075	-9.77028
 276	1	6	-0.590955	8.16311	11.5427	-7.36995
 277	1	1	-0.003445	8.45257	11.3787	-3.64222
 278	1	1	0.299845	7.00655	11.9164	-3.50448
 279	1	2	0.023286	8.42279	10.5809	-4.37403
 280	1	2	-0.011958	9.09996	12.152	-4.07596
 281	1	3	-0.518063	7.09322	13.1091	-2.70741
 282	1	4	0.011666	6.39428	11.1572	-3.00302
 283	1	5	0.843192	6.05066	13.432	-1.90363
 284	1	1	-0.399874	6.37702	14.6615	-1.094
 285	1	2	0.119224	5.61946	14.7979	-0.316426
 286	1	2	0.109051	6.39869	15.5324	-1.7554
 287	1	2	0.118031	7.36133	14.5341	-0.631451
 288	1	6	-0.590955	5.0178	12.8014	-1.79365
 289	1	1	-0.003445	10.1508	9.73993	-2.46437
 290	1	1	0.299845	9.08182	10.8697	-2.30831
 291	1	2	0.023286	11.068	10.166	-2.88858
 292	1	2	-0.011958	10.4323	9.37098	-1.47075
 293	1	3	-0.518063	8.02432	10.3796	-1.46762
 294	1	4	0.011666	9.55026	11.7384	-1.82741
 295	1	5	0.843192	8.19483	10.3834	-0.120798
 296	1	1	-0.399874	6.9476	9.88906	0.567626
 297	1	2	0.119224	6.52394	9.06116	-0.0101646
 298	1	2	0.109051	6.22087	10.7051	0.625025
 299	1	2	0.118031	7.20648	9.53956	1.57104
 300	1	6	-0.590955	9.11377	10.9221	0.465413
 301	1	1	-0.003445	10.0779	8.68912	-4.83603
 302	1	1	0.299845	9.65278	8.55873	-3.3474
 303	1	2	0.023286	10.3378	9.73292	-5.05232
 304	1	2	-0.011958	9.1841	8.48418	-5.4366
 305	1	3	-0.518063	10.0352	7.27231	-2.83132
 306	1	4	0.011666	8.56378	8.60686	-3.33321
 307	1	5	0.843192	9.32272	6.75601	-1.79172
 308	1	1	-0.399874	9.773	5.34519	-1.49766
 309	1	2	0.119224	9.64357	5.15298	-0.42845
 310	1	2	0.109051	10.8272	5.23018	-1.76561
 311	1	2	0.118031	9.16536	4.65	-2.08335
 312	1	6	-0.590955	8.34224	7.25771	-1.27451
 313	1	1	-0.003445	12.5555	7.96312	-4.54443
 314	1	1	0.299845	11.2447	7.80805	-5.35387
 315	1	2	0.023286	12.7949	9.03026	-4.46308
 316	1	2	-0.011958	12.4167	7.59532	-3.52211
 317	1	3	-0.518063	11.5517	8.28804	-6.6764
 318	1	4	0.011666	10.9456	6.75157	-5.37695
 319	1	5	0.843192	10.7081	8.02673	-7.70863
 320	1	1	-0.399874	11.1258	8.80148	-8.93459
 321	1	2	0.119224	11.8007	8.18534	-9.5346
 322	1	2	0.109051	11.6409	9.71967	-8.63275
 323	1	2	0.118031	10.2349	9.06196	-9.5139
 324	1	6	-0.590955	9.69675	7.35589	-7.6475
 325	1	1	-0.003445	15.1248	7.67004	-4.64509
 326	1	1	0.299845	13.7519	7.21823	-5.19177
 327	1	2	0.023286	15.8896	7.12504	-5.21178
 328	1	2	-0.011958	15.2761	8.73161	-4.88039
 329	1	3	-0.518063	13.6171	5.80431	-4.93391
 330	1	4	0.011666	13.7818	7.42545	-6.26805
 331	1	5	0.843192	13.1732	4.98712	-5.92558
 332	1	1	-0.399874	13.0605	3.56275	-5.43757
 333	1	2	0.119224	13.9084	3.3259	-4.7876
 334	1	2	0.109051	13.0537	2.88341	-6.29631
 335	1	2	0.118031	12.1293	3.45441	-4.8739
 336	1	6	-0.590955	12.9425	5.32472	-7.06854
 337	1	1	-0.003445	15.2895	8.72355	-2.26105
 338	1	1	0.299845	15.3058	7.42739	-3.12081
 339	1	2	0.023286	16.2887	9.17021	-2.20216
 340	1	2	-0.011958	14.6418	9.47856	-2.72607
 341	1	3	-0.518063	16.5004	6.64805	-2.8709
 342	1	4	0.011666	14.4651	6.80649	-2.7955
 343	1	5	0.843192	17.728	7.06942	-3.28299
 344	1	1	-0.399874	18.7593	5.9893	-3.07351
 345	1	2	0.119224	18.945	5.86525	-2.00336
 346	1	2	0.109051	19.6868	6.26753	-3.58499
 347	1	2	0.118031	18.3825	5.049	-3.48872
 348	1	6	-0.590955	17.9746	8.13701	-3.80713
 349	1	1	-0.003445	14.8838	9.64466	0.106788
 350	1	1	0.299845	14.7663	8.42972	-0.8403
 351	1	2	0.023286	15.9312	9.95198	0.216751
 352	1	2	-0.011958	14.5007	9.39848	1.10534
 353	1	3	-0.518063	13.3692	8.10714	-0.978358
 354	1	4	0.011666	15.3475	7.59929	-0.422855
 355	1	5	0.843192	12.7473	7.24756	-0.127314
 356	1	1	-0.399874	13.4696	5.91967	0.00599496
 357	1	2	0.119224	13.8943	5.62308	-0.957988
 358	1	2	0.109051	12.7504	5.15628	0.320863
 359	1	2	0.118031	14.2605	5.99658	0.75648
 360	1	6	-0.590955	11.5742	7.34946	0.152373
 361	1	4	0	-9.45654	-4.39396	5.58063
 362	1	2	0	14.3156	10.5019	-0.276966

Velocities

   1	0.000617339	-0.000190062	-0.000480551
   2	0.000285869	-0.000188053	-0.000165087
   3	0.00111725	-0.000647287	-0.000156585
   4	0.000765573	0.000101976	-0.000978843
   5	-0.00103586	-0.000527277	-0.000142206
   6	0.000560618	0.00016627	0.00110119
   7	-0.00124645	-0.000659654	-2.01531e-05
   8	-0.000391817	-0.000162986	0.000122573
   9	0.000208276	-0.000129118	8.98034e-05
  10	-0.000308463	0.000296558	0.000851193
  11	0.00013701	-0.000374264	-0.000356409
  12	-0.00097515	-0.000185107	-0.000296708
  13	8.87539e-05	0.000156067	-0.000192499
  14	0.000236953	3.6292e-05	-0.000273458
  15	0.000398291	0.00041867	-0.000283074
  16	-2.65407e-05	0.00021419	-0.000424554
  17	0.000329907	0.000197327	0.000113656
  18	0.000279075	0.000162414	-0.000445622
  19	0.000411548	-0.000130829	0.000110184
  20	0.000316124	4.78413e-05	-8.44271e-05
  21	0.000255822	8.9841e-05	3.73748e-05
  22	0.000507041	-8.17481e-05	9.12834e-06
  23	0.000119156	0.000107743	1.96133e-05
  24	0.000394505	0.000172327	-7.11593e-05
  25	-0.000124644	-0.000227541	-5.34034e-05
  26	5.68482e-05	-0.000142674	-0.000130987
  27	-0.000175456	-0.000132718	0.000253398
  28	-0.000301353	-0.000502169	-1.30148e-05
  29	-6.69895e-06	-0.000158249	-8.45299e-05
  30	0.000265197	-0.00037323	-3.12808e-05
  31	0.000263176	0.000455642	0.000185902
  32	0.000237206	-2.31982e-06	0.000130291
  33	0.000231663	0.000121519	0.000315054
  34	0.000396542	6.14232e-05	0.000143765
  35	0.000309375	8.57015e-05	0.000364494
  36	-0.000239957	7.72676e-05	-0.000100712
  37	-3.09811e-05	-0.000330917	8.85522e-05
  38	9.59376e-05	-0.000231164	-0.000149252
  39	-4.90761e-05	-0.000359457	8.88617e-05
  40	4.8492e-05	-0.000271981	9.58657e-05
  41	0.000261873	-0.000434922	-0.000212254
  42	0.000348182	-0.000132165	-5.7484e-05
  43	0.000160886	-0.000146064	-0.000449162
  44	-5.707e-06	1.53306e-06	-0.000122834
  45	-0.000219845	0.000364479	-0.000150408
  46	-6.51709e-05	-0.000173803	-0.000396302
  47	0.000346789	5.31745e-05	6.82152e-05
  48	-4.58782e-05	0.000110041	-7.587e-05
  49	-0.000193243	-0.000170884	0.000260943
  50	-9.18546e-05	-0.000124526	7.60561e-05
  51	-0.000312664	8.2668e-05	0.000344774
  52	-0.000246412	-0.000318597	0.000540823
  53	-0.000214192	6.65547e-05	0.000102032
  54	-8.69384e-06	-4.67187e-06	-6.18799e-05
  55	-0.000234973	0.000174039	-1.52865e-05
  56	-0.000428117	6.55738e-06	2.51487e-05
  57	0.000187867	-0.000971124	-0.000577592
  58	-0.00169238	-0.000226035	0.000398408
  59	3.72935e-05	0.00109455	0.000197133
  60	-0.000120597	0.000166299	-7.14397e-05
  61	4.2902e-05	-0.000338002	0.000179145
  62	3.39212e-05	-0.000352611	0.000145392
  63	-1.12956e-05	-0.000455114	0.000289236
  64	-0.000135638	-0.000236549	0.000124114
  65	0.0001242	-0.000154719	-0.000172553
  66	0.000190103	-0.000411695	0.000189211
  67	-1.00053e-06	-2.17695e-06	0.000382415
  68	2.6023e-06	0.000265507	-0.000508536
  69	-0.000381763	8.13539e-05	-0.000107298
  70	-0.000415783	1.66224e-05	-0.00124265
  71	0.000811259	0.000476201	-0.000637454
  72	-8.81368e-05	0.00077857	0.00082385
  73	0.00053809	-0.000134799	-0.000150152
  74	0.000258543	-0.000330885	6.23089e-05
  75	0.000839837	1.06205e-05	-0.00029806
  76	0.000729812	-0.000378798	-0.000149377
  77	0.000184585	-0.00058641	8.32758e-05
  78	0.000134034	-0.000213157	0.000146721
  79	0.000384242	-0.000354201	-0.000306615
  80	8.40765e-05	0.000252205	0.000586068
  81	-0.000288615	0.000232477	-0.000336138
  82	-5.74085e-05	0.0016079	0.000811231
  83	0.000897259	-0.000164397	0.00149263
  84	-6.20705e-05	-0.00052694	0.000209034
  85	0.000412365	-6.08803e-05	-0.000533939
  86	0.000266633	0.000189145	-0.00026285
  87	0.000698689	-0.000180694	-0.000675283
  88	0.000153976	-7.35975e-05	-0.00085482
  89	-3.67909e-05	0.000386874	-0.000535995
  90	0.000230219	0.000324584	4.07251e-05
  91	-8.04366e-05	0.000713548	-0.000665859
  92	-6.27383e-05	0.000535251	-0.000370489
  93	0.000304674	0.000249472	-0.000178991
  94	-1.16944e-05	0.000588965	-0.000586375
  95	-0.000421727	0.000583919	-6.35928e-05
  96	-1.04994e-05	0.000729106	-0.000526604
  97	0.000330828	-3.95093e-05	-0.000501923
  98	0.000458898	-6.89381e-06	-0.000505379
  99	0.000114986	-1.47468e-05	-0.000588882
 100	0.000353347	-0.000235639	-0.000419371
 101	0.000401108	-3.24805e-05	-0.000239557
 102	0.000425142	-8.77149e-05	-0.000435511
 103	0.000645001	-0.000265988	-0.000633712
 104	0.000132647	-0.000631834	0.000159333
 105	0.000726104	-0.000728258	9.62761e-05
 106	0.000120869	-0.000852787	0.000570557
 107	-0.000139285	-0.000433555	3.82342e-05
 108	-7.18392e-05	-0.000611145	-0.000274796
 109	0.000287773	0.000107449	-0.000654367
 110	0.000325369	9.18108e-05	-0.000620388
 111	0.000393938	-0.000435965	-0.000691417
 112	0.000366275	0.000350615	-0.00108267
 113	0.000106712	0.000116143	-0.000576438
 114	0.000437778	8.44973e-05	-0.000676923
 115	0.000126107	-0.000151928	-0.000403027
 116	-0.000658739	0.000156047	-0.000226835
 117	-0.00120327	0.000494745	0.000246033
 118	-0.00105228	2.90759e-05	-0.000922484
 119	-0.000343497	0.000178891	0.000175119
 120	0.000476136	-0.000454923	-0.000283907
 121	-0.000198417	0.000272955	0.000401831
 122	-5.94933e-05	0.000293308	-8.85529e-05
 123	-0.000489343	0.000302239	0.000509795
 124	-0.000249304	0.000296444	0.000368337
 125	0.000203875	0.000128281	8.32371e-05
 126	-0.000369244	0.000481443	-0.000252237
 127	-0.000134412	0.000236497	0.000173855
 128	0.000575799	0.000122239	0.00018893
 129	0.000806437	0.000109536	-0.000653683
 130	0.000206378	0.000157785	0.000424599
 131	0.00125234	3.02979e-05	0.000619918
 132	-0.000749313	0.000336815	0.000446832
 133	0.000357194	0.000136189	0.000599319
 134	-3.65984e-05	0.000158452	0.000623351
 135	0.000639998	0.000323337	0.000616698
 136	0.000493074	-0.000213782	0.000602321
 137	-0.000137233	-4.57704e-05	0.000759466
 138	-0.000117705	0.000184874	0.000609641
 139	-0.000322735	-0.000263844	0.000902149
 140	5.79682e-06	0.000352026	0.000189008
 141	0.000594663	0.000964617	0.000520351
 142	-0.000190312	0.000462654	-0.000619197
 143	-0.000122524	0.000239323	0.000177968
 144	-0.000548696	-0.000561825	0.00106438
 145	-0.000228703	2.76129e-05	0.000624902
 146	0.000146514	0.000150082	0.000631102
 147	-0.000759839	-3.47694e-05	0.00090303
 148	5.00065e-05	0.000247596	0.000917941
 149	3.49886e-05	2.79562e-05	0.00052514
 150	0.00022149	0.000121588	0.000859961
 151	-0.000233811	0.000419345	0.000271744
 152	-0.000473836	-0.000414389	0.000593847
 153	-0.000864181	-0.00135062	0.00140387
 154	-0.00046376	0.000313008	0.00113976
 155	-0.000354586	-0.000974114	-0.000437913
 156	-0.00027574	0.000945223	1.69702e-05
 157	-0.000388718	-0.0006945	-0.000236599
 158	-0.000290726	-0.00021707	8.96257e-06
 159	-0.000163671	-0.00106496	-0.000942759
 160	-0.000979753	-0.00120045	7.37293e-05
 161	-0.000280503	-6.97984e-05	-0.000200429
 162	-0.000293202	-0.000240538	0.000116826
 163	-0.000688345	0.000580095	-0.000650505
 164	-0.000611022	-0.00024447	-2.48492e-05
 165	0.000564554	-0.00134594	-5.8561e-05
 166	-0.0017122	-0.000671325	0.00112439
 167	-0.000757806	0.000583773	-0.000615594
 168	-0.000953724	0.00141947	-0.00124134
 169	0.000319075	-0.000604067	-0.000451992
 170	-0.000116622	-0.00020166	-0.000167953
 171	-9.05323e-05	-0.0011952	-0.00118925
 172	0.00132896	-0.000943513	-0.00040524
 173	0.00025762	0.000277812	-0.000456871
 174	-0.000384363	4.28174e-05	8.40213e-05
 175	0.000431718	-2.72828e-05	0.000238281
 176	0.000730394	0.000610875	-0.000177749
 177	0.000670954	0.00124198	-0.000292557
 178	0.00117034	0.00038472	-0.000584504
 179	0.000466971	0.000653653	9.91155e-05
 180	0.000497285	-0.000743905	0.00121314
 181	-0.000425915	7.20769e-05	-2.4963e-05
 182	0.000128204	-9.82018e-05	-6.44126e-05
 183	-0.00064944	3.77286e-05	-0.000438295
 184	-0.000608487	0.00024204	0.000178806
 185	7.48042e-05	-6.06794e-05	2.18742e-05
 186	0.00033399	0.000229163	-5.25702e-05
 187	-0.000335248	0.000143954	-0.000106766
 188	-0.00101415	0.000407374	0.000427913
 189	-0.000973957	-4.48224e-05	0.000940801
 190	-0.00125904	0.000984074	7.83281e-05
 191	-0.00141908	0.000520531	0.000782229
 192	-0.000612786	3.41684e-05	-0.000497112
 193	-0.000283561	0.000118358	0.000378962
 194	-0.000432151	0.000124127	7.06185e-05
 195	0.000194979	-0.00024926	0.000989889
 196	-0.000271632	0.000930544	0.000540272
 197	-0.000515513	0.00015456	7.57304e-05
 198	-0.000327314	9.70502e-05	-5.80703e-05
 199	-0.000215909	0.000644358	-0.000255758
 200	-5.56439e-05	0.000113613	7.22681e-05
 201	-0.000285823	0.000520265	-5.18786e-07
 202	0.000506703	-0.000438171	-0.000448128
 203	-6.78718e-05	-0.00020154	0.000960746
 204	-7.661e-05	0.00135754	-0.000724436
 205	-0.000639072	-0.000193825	-0.000676823
 206	-0.000542452	-0.000350942	-0.00022741
 207	-0.000871333	-3.21711e-05	-0.000543691
 208	-0.000754322	-0.000145609	-0.000995297
 209	-0.000626833	-0.000844492	-0.000174896
 210	-0.000524415	-0.000390182	-0.000150138
 211	-0.000511494	-0.0010591	4.31304e-05
 212	6.26568e-06	-0.000859006	-0.000232299
 213	0.000967279	-0.000890714	-0.0012349
 214	0.00014584	0.000246215	0.000548044
 215	-0.000641829	-0.00166152	-0.000177063
 216	-0.000375207	-0.000938574	0.000239513
 217	0.00069422	-0.000665502	-0.000345548
 218	-0.000285227	-0.000394022	-0.000747253
 219	0.00126476	-0.000434091	0.000764807
 220	0.0014653	-0.00138993	-0.000974842
 221	-0.000341228	-0.000879412	-0.000501256
 222	-0.000295099	1.26293e-05	-0.000726392
 223	-0.000361981	-4.02725e-05	-0.000316575
 224	0.00041927	-9.48838e-05	0.000573387
 225	0.000969997	-0.000232525	0.000481654
 226	0.00099729	-0.000288002	0.000461812
 227	5.86881e-05	0.000245066	0.00150145
 228	-0.000430388	0.00156648	-0.000383534
 229	-0.000536557	-0.000194583	0.0002935
 230	0.00034748	-0.00024583	-0.000182352
 231	-0.000757211	-2.65571e-05	0.000388967
 232	-0.000857205	-0.000765529	2.52791e-05
 233	0.000478625	-0.000511996	-0.000297688
 234	0.000561847	0.000136458	-0.00019804
 235	0.00065211	0.000510828	-0.000294985
 236	0.000703574	0.000225238	-0.000374693
 237	0.000656053	0.000230688	-0.0005449
 238	0.000757348	0.000224915	-0.00020766
 239	0.000731293	5.34099e-05	-0.000371832
 240	0.000745404	0.00149652	-0.00024395
 241	-0.00119687	0.00061065	0.000690308
 242	-0.000836004	0.000511804	0.000585494
 243	-0.00167677	0.000704321	0.000593524
 244	-0.00117274	0.0002928	0.00113812
 245	-0.000677946	0.000803634	0.000496772
 246	-0.00084756	0.000459501	0.000618747
 247	-0.000947131	0.00120479	0.00019852
 248	-0.000759134	0.00127543	-0.000127839
 249	-0.00157858	0.000547276	-0.00240452
 250	-0.00170619	0.000490215	0.001856
 251	0.00104752	0.00304429	-0.000213249
 252	-0.00133011	0.00110264	0.000455383
 253	5.39233e-05	0.000674003	0.000506336
 254	-0.000694227	0.000757966	0.00020599
 255	3.77764e-05	0.000566948	0.000516589
 256	0.000456956	0.0012617	0.000485666
 257	-0.000258416	0.000636687	0.000154401
 258	-0.00095571	0.000678574	-0.000303363
 259	0.000120791	0.000551654	-0.000452767
 260	0.000516202	0.000658662	-0.000267748
 261	0.000739793	0.00078098	-1.13059e-05
 262	0.00081705	0.00071367	-0.000613658
 263	0.000282141	0.000681411	-0.000146321
 264	9.33731e-05	0.000530337	-0.00092336
 265	0.00107674	0.000352554	-0.000253433
 266	0.000496584	-0.000116679	0.000585097
 267	0.0020613	-0.000727327	-0.000490895
 268	0.00153432	0.001368	-0.00121569
 269	0.000724955	-0.000902629	0.000467998
 270	0.000147405	-0.000504887	0.00102116
 271	0.000358957	-0.00133832	0.000160866
 272	-0.000190838	-0.00110311	0.000531903
 273	-0.000227513	-0.00107831	0.0012707
 274	-0.000677549	-0.00100464	0.000672295
 275	-0.000579514	-0.00102351	-7.29545e-06
 276	0.000750865	-0.00108063	-1.64295e-05
 277	0.000153636	0.000139906	0.000422811
 278	0.000342101	0.000736096	0.000196181
 279	-0.00022634	-7.79193e-05	0.000651121
 280	0.000550912	-0.000348434	0.000245868
 281	0.000213551	0.000866993	0.000191106
 282	3.11192e-05	0.00101831	0.000145575
 283	-0.000642066	0.000955463	-0.000601759
 284	-0.00115657	0.000708589	0.000239239
 285	-0.00207551	0.000447381	-0.000502642
 286	-0.000437942	0.00100129	0.000677728
 287	-0.00176404	0.000481791	0.00134223
 288	-0.000733712	0.00142081	-0.00182159
 289	0.00018081	-0.000151032	8.01108e-05
 290	7.52855e-05	-0.000219976	0.000283583
 291	0.000138326	-3.56776e-05	0.000205886
 292	0.000161385	-0.000130494	7.71584e-05
 293	-0.000120402	-0.000401923	-3.72996e-05
 294	-0.000166269	-0.000250898	0.000517081
 295	0.000410026	-0.00124095	4.37103e-05
 296	0.000381725	-0.00141448	6.69462e-05
 297	0.0018197	-0.0030226	0.00134238
 298	-0.000623025	-0.00222626	-0.00193827