pySIMM System Object

518 atoms
517 bonds
946 angles
1238 dihedrals
43 impropers

6 atom types
7 bond types
12 angle types
10 dihedral types
1 improper types

-114.510455 114.510455 xlo xhi
-114.510455 114.510455 ylo yhi
-114.510455 114.510455 zlo zhi

Masses

   1	12.01	# c3
   2	1.008	# hc
   3	16.0	# os
   4	1.008	# h1
   5	12.01	# c
   6	16.0	# o

Pair Coeffs

   1	0.1094	3.3996695084235347	# c3
   2	0.0157	2.649532787749369	# hc
   3	0.17	3.0000123434657784	# os
   4	0.0157	2.471353044121301	# h1
   5	0.086	3.3996695084235347	# c
   6	0.21	2.959921901149463	# o

Bond Coeffs

   1	330.6	1.0969	# c3,hc
   2	637.7	1.2183	# c,o
   3	330.6	1.0969	# c3,h1
   4	308.6	1.4316	# c3,os
   5	313.0	1.5241	# c,c3
   6	390.8	1.3584	# c,os
   7	300.9	1.5375	# c3,c3

Angle Coeffs

   1	67.4	123.2	# c3,c,o
   2	46.93	108.77	# c,c3,hc
   3	75.32	123.25	# o,c,os
   4	68.0	107.97	# c3,c3,os
   5	46.34	109.8	# c3,c3,hc
   6	46.39	109.56	# c3,c3,h1
   7	63.28	115.98	# c,os,c3
   8	50.8	109.78	# h1,c3,os
   9	68.89	110.72	# c3,c,os
  10	39.4	107.58	# hc,c3,hc
  11	39.24	108.46	# h1,c3,h1
  12	62.86	111.51	# c3,c3,c3

Dihedral Coeffs

   1	2	0.383	3	0	0.8	1	180	# c3,c3,os,c
   2	2	0.0	3	0	0.25	1	0	# hc,c3,c3,os
   3	1	0.3833333333333333	3	0	# X,c3,os,X
   4	1	0.0	2	180	# X,c,c3,X
   5	3	0.8	1	0	0.0	2	0	0.08	3	180	# hc,c3,c,o
   6	3	2.7	2	180	0.0	1	0	1.15	3	0	# c3,c,os,c3
   7	1	0.15555555555555556	3	0	# X,c3,c3,X
   8	2	2.7	2	180	1.4	1	180	# o,c,os,c3
   9	1	0.16	3	0	# hc,c3,c3,c3
  10	3	0.18	3	0	0.25	2	180	0.2	1	180	# c3,c3,c3,c3

Improper Coeffs

   1	10.5	-1	2	# c,X,X,o

Atoms

   1	1	1	-0.003445	-5.01689	-0.644457	15.572
   2	1	1	0.299845	-4.57922	0.793346	15.9603
   3	1	2	0.023286	-5.04197	-0.750575	14.4811
   4	1	2	-0.011958	-4.24463	-1.34446	15.9147
   5	1	3	-0.518063	-4.90718	1.74045	14.9325
   6	1	4	0.011666	-3.49753	0.806443	16.1473
   7	1	5	0.843192	-4.08524	1.83172	13.8585
   8	1	1	-0.399874	-4.48451	2.99486	12.991
   9	1	2	0.119224	-4.40617	3.91484	13.5788
  10	1	2	0.109051	-5.51479	2.85705	12.6621
  11	1	2	0.118031	-3.81743	3.05222	12.1296
  12	1	6	-0.590955	-3.14852	1.09443	13.6178
  13	1	1	-0.003445	-6.33438	-1.17816	17.7296
  14	1	1	0.299845	-6.37337	-1.09498	16.182
  15	1	2	0.023286	-5.68052	-2.01911	17.993
  16	1	2	-0.011958	-5.85985	-0.291564	18.162
  17	1	3	-0.518063	-7.43462	-0.215371	15.7717
  18	1	4	0.011666	-6.59446	-2.10853	15.8214
  19	1	5	0.843192	-7.89786	-0.31327	14.4989
  20	1	1	-0.399874	-9.04498	0.635899	14.2764
  21	1	2	0.119224	-9.31655	0.633615	13.2161
  22	1	2	0.109051	-8.73653	1.63613	14.5861
  23	1	2	0.118031	-9.8957	0.311505	14.8826
  24	1	6	-0.590955	-7.51165	-1.10226	13.6605
  25	1	1	-0.003445	-8.38556	-0.0420843	18.8267
  26	1	1	0.299845	-7.72347	-1.38049	18.3941
  27	1	2	0.023286	-7.66163	0.539955	19.3989
  28	1	2	-0.011958	-8.60427	0.570963	17.9432
  29	1	3	-0.518063	-7.58011	-2.28666	19.5153
  30	1	4	0.011666	-8.3868	-1.87047	17.67
  31	1	5	0.843192	-6.82605	-1.97732	20.6091
  32	1	1	-0.399874	-6.76592	-3.14159	21.564
  33	1	2	0.119224	-6.30075	-3.99645	21.066
  34	1	2	0.109051	-7.78324	-3.40664	21.8691
  35	1	2	0.118031	-6.1837	-2.85579	22.4453
  36	1	6	-0.590955	-6.16905	-0.963768	20.7475
  37	1	1	-0.003445	-10.0617	1.02475	20.4709
  38	1	1	0.299845	-9.68971	-0.233994	19.6402
  39	1	2	0.023286	-10.1599	1.87291	19.7854
  40	1	2	-0.011958	-11.0609	0.904002	20.9079
  41	1	3	-0.518063	-10.7354	-0.49812	18.6826
  42	1	4	0.011666	-9.58046	-1.09089	20.3118
  43	1	5	0.843192	-11.8909	-1.06552	19.1191
  44	1	1	-0.399874	-12.8555	-1.25713	17.9745
  45	1	2	0.119224	-13.6435	-1.95186	18.2825
  46	1	2	0.109051	-12.3229	-1.66619	17.1104
  47	1	2	0.118031	-13.2956	-0.291525	17.7108
  48	1	6	-0.590955	-12.1354	-1.3913	20.263
  49	1	1	-0.003445	-8.67639	2.8501	21.6925
  50	1	1	0.299845	-9.04848	1.34803	21.6156
  51	1	2	0.023286	-8.14292	3.05122	22.6287
  52	1	2	-0.011958	-9.60109	3.44075	21.735
  53	1	3	-0.518063	-9.65546	1.00518	22.8763
  54	1	4	0.011666	-8.11847	0.780381	21.4937
  55	1	5	0.843192	-9.66363	-0.295574	23.2676
  56	1	1	-0.399874	-10.3844	-0.46073	24.582
  57	1	2	0.119224	-10.0041	0.273604	25.2983
  58	1	2	0.109051	-10.2189	-1.4731	24.9642
  59	1	2	0.118031	-11.4542	-0.294741	24.424
  60	1	6	-0.590955	-9.09328	-1.20354	22.696
  61	1	1	-0.003445	-7.67863	4.85396	20.3514
  62	1	1	0.299845	-7.83112	3.31573	20.4762
  63	1	2	0.023286	-8.68574	5.28683	20.3885
  64	1	2	-0.011958	-7.12928	5.28621	21.1967
  65	1	3	-0.518063	-6.55544	2.64351	20.3992
  66	1	4	0.011666	-8.37876	3.00618	19.5834
  67	1	5	0.843192	-5.58214	2.81792	21.3329
  68	1	1	-0.399874	-4.3257	2.08749	20.9282
  69	1	2	0.119224	-4.49853	1.01056	21.0086
  70	1	2	0.109051	-3.50347	2.38051	21.5882
  71	1	2	0.118031	-4.07932	2.33514	19.8921
  72	1	6	-0.590955	-5.66922	3.49614	22.3357
  73	1	1	-0.003445	-7.4572	6.60173	18.4504
  74	1	1	0.299845	-7.0128	5.22155	19.0024
  75	1	2	0.023286	-8.49013	6.81224	18.753
  76	1	2	-0.011958	-6.85137	7.38006	18.9329
  77	1	3	-0.518063	-5.58708	5.26181	19.1972
  78	1	4	0.011666	-7.28871	4.4361	18.2989
  79	1	5	0.843192	-4.76776	4.90785	18.1755
  80	1	1	-0.399874	-3.32785	5.19031	18.5216
  81	1	2	0.119224	-3.1878	6.27619	18.5567
  82	1	2	0.109051	-2.67213	4.76041	17.7582
  83	1	2	0.118031	-3.09451	4.76769	19.5032
  84	1	6	-0.590955	-5.12516	4.34288	17.1582
  85	1	1	-0.003445	-8.57876	6.11859	16.1527
  86	1	1	0.299845	-7.36348	6.72765	16.8998
  87	1	2	0.023286	-9.46297	6.17983	16.7978
  88	1	2	-0.011958	-8.82004	6.73862	15.2814
  89	1	3	-0.518063	-7.31357	8.1236	16.5613
  90	1	4	0.011666	-6.45457	6.25179	16.5218
  91	1	5	0.843192	-6.10921	8.75079	16.6292
  92	1	1	-0.399874	-6.24078	10.2076	16.2616
  93	1	2	0.119224	-6.57759	10.282	15.2229
  94	1	2	0.109051	-5.27146	10.7034	16.375
  95	1	2	0.118031	-6.97908	10.6786	16.9171
  96	1	6	-0.590955	-5.0683	8.23457	16.9909
  97	1	1	-0.003445	-7.52657	4.52225	14.3793
  98	1	1	0.299845	-8.34572	4.65232	15.6869
  99	1	2	0.023286	-7.23638	3.47294	14.2511
 100	1	2	-0.011958	-6.58476	5.06635	14.5203
 101	1	3	-0.518063	-9.61499	3.99288	15.5262
 102	1	4	0.011666	-7.77513	4.1082	16.442
 103	1	5	0.843192	-10.2844	3.59099	16.6384
 104	1	1	-0.399874	-11.5707	2.89257	16.2732
 105	1	2	0.119224	-11.4219	2.29158	15.3714
 106	1	2	0.109051	-12.3446	3.64215	16.0814
 107	1	2	0.118031	-11.8772	2.24384	17.1
 108	1	6	-0.590955	-9.89355	3.73257	17.7812
 109	1	1	-0.003445	-9.14533	3.94246	12.4314
 110	1	1	0.299845	-8.23736	5.01507	13.0866
 111	1	2	0.023286	-8.51981	3.23442	11.8894
 112	1	2	-0.011958	-9.65043	3.34354	13.193
 113	1	3	-0.518063	-7.21282	5.32194	12.1202
 114	1	4	0.011666	-8.84145	5.90567	13.297
 115	1	5	0.843192	-6.56126	6.51006	12.2197
 116	1	1	-0.399874	-5.5032	6.63362	11.1539
 117	1	2	0.119224	-4.9483	7.56601	11.294
 118	1	2	0.109051	-5.98487	6.64108	10.1728
 119	1	2	0.118031	-4.81878	5.78267	11.2161
 120	1	6	-0.590955	-6.78322	7.36117	13.0589
 121	1	1	-0.003445	-10.9431	3.45185	10.6358
 122	1	1	0.299845	-10.25	4.5305	11.5181
 123	1	2	0.023286	-11.9792	3.77765	10.4774
 124	1	2	-0.011958	-11.0174	2.51481	11.2038
 125	1	3	-0.518063	-9.71247	5.588	10.7068
 126	1	4	0.011666	-11.0032	4.95356	12.1965
 127	1	5	0.843192	-10.5587	6.4982	10.1602
 128	1	1	-0.399874	-9.80984	7.47263	9.28633
 129	1	2	0.119224	-9.32251	8.22152	9.91743
 130	1	2	0.109051	-10.511	7.96159	8.60232
 131	1	2	0.118031	-9.04729	6.93894	8.70925
 132	1	6	-0.590955	-11.7639	6.49971	10.3063
 133	1	1	-0.003445	-8.9229	2.48434	9.24138
 134	1	1	0.299845	-10.3242	3.16282	9.23514
 135	1	2	0.023286	-8.79775	1.9177	10.1705
 136	1	2	-0.011958	-8.8585	1.73026	8.44561
 137	1	3	-0.518063	-11.2397	2.25606	8.59633
 138	1	4	0.011666	-10.2865	4.10099	8.66591
 139	1	5	0.843192	-11.2501	2.1976	7.23891
 140	1	1	-0.399874	-12.163	1.09803	6.7562
 141	1	2	0.119224	-13.1984	1.35491	6.9971
 142	1	2	0.109051	-11.8951	0.162145	7.25658
 143	1	2	0.118031	-12.0486	0.981869	5.67373
 144	1	6	-0.590955	-10.6167	2.92207	6.49742
 145	1	1	-0.003445	-6.45279	3.05052	9.72499
 146	1	1	0.299845	-7.76765	3.49803	9.04587
 147	1	2	0.023286	-5.7808	3.91214	9.77151
 148	1	2	-0.011958	-6.68114	2.81078	10.767
 149	1	3	-0.518063	-7.57398	3.68253	7.63157
 150	1	4	0.011666	-8.05599	4.44728	9.50105
 151	1	5	0.843192	-6.94363	4.80114	7.18792
 152	1	1	-0.399874	-6.86418	4.83376	5.68392
 153	1	2	0.119224	-7.87204	4.74172	5.26717
 154	1	2	0.109051	-6.24987	3.99825	5.33381
 155	1	2	0.118031	-6.41202	5.77795	5.36445
 156	1	6	-0.590955	-6.50661	5.67951	7.90455
 157	1	1	-0.003445	-4.53204	2.24511	8.20186
 158	1	1	0.299845	-5.74998	1.83236	9.07232
 159	1	2	0.023286	-4.18982	1.38312	7.61682
 160	1	2	-0.011958	-4.87406	2.97817	7.46219
 161	1	3	-0.518063	-5.33692	0.966732	10.1478
 162	1	4	0.011666	-6.47478	1.30106	8.44174
 163	1	5	0.843192	-4.93296	-0.298809	9.85826
 164	1	1	-0.399874	-4.52248	-1.02876	11.1114
 165	1	2	0.119224	-4.16113	-2.02752	10.8492
 166	1	2	0.109051	-5.38286	-1.10859	11.7834
 167	1	2	0.118031	-3.72635	-0.468598	11.6076
 168	1	6	-0.590955	-4.94236	-0.806236	8.75458
 169	1	1	-0.003445	-2.44909	3.74056	8.09632
 170	1	1	0.299845	-3.33826	2.84307	8.99724
 171	1	2	0.023286	-1.65904	4.21582	8.68994
 172	1	2	-0.011958	-3.07306	4.56807	7.73512
 173	1	3	-0.518063	-2.57402	1.75352	9.55152
 174	1	4	0.011666	-3.72042	3.46849	9.81095
 175	1	5	0.843192	-1.6738	2.00253	10.5402
 176	1	1	-0.399874	-0.907937	0.755339	10.9092
 177	1	2	0.119224	0.136081	1.02164	11.0987
 178	1	2	0.109051	-0.958212	0.0231238	10.0967
 179	1	2	0.118031	-1.3445	0.324144	11.8148
 180	1	6	-0.590955	-1.43296	3.10093	10.9988
 181	1	1	-0.003445	-0.608537	2.11236	7.26829
 182	1	1	0.299845	-1.81925	3.00389	6.88602
 183	1	2	0.023286	-0.0205322	2.62317	8.04031
 184	1	2	-0.011958	-0.960964	1.17029	7.70402
 185	1	3	-0.518063	-1.3839	3.98223	5.92042
 186	1	4	0.011666	-2.57019	2.35887	6.41708
 187	1	5	0.843192	-2.29548	4.50203	5.05871
 188	1	1	-0.399874	-1.63809	5.44586	4.08334
 189	1	2	0.119224	-1.17319	6.26888	4.63423
 190	1	2	0.109051	-2.38839	5.84012	3.39059
 191	1	2	0.118031	-0.866767	4.90613	3.52432
 192	1	6	-0.590955	-3.46877	4.18749	5.00835
 193	1	1	-0.003445	-0.420056	0.966919	4.94798
 194	1	1	0.299845	0.300108	1.78515	6.06205
 195	1	2	0.023286	-1.50176	1.12966	4.98749
 196	1	2	-0.011958	-0.294228	-0.101887	5.16564
 197	1	3	-0.518063	1.42308	0.998379	6.51058
 198	1	4	0.011666	0.652831	2.74221	5.67137
 199	1	5	0.843192	2.43146	1.60556	7.18923
 200	1	1	-0.399874	3.47622	0.604709	7.61556
 201	1	2	0.119224	3.88921	0.115304	6.72828
 202	1	2	0.109051	3.01417	-0.147821	8.26182
 203	1	2	0.118031	4.27352	1.12123	8.15973
 204	1	6	-0.590955	2.51068	2.79615	7.41407
 205	1	1	-0.003445	1.46521	1.87466	3.37737
 206	1	1	0.299845	0.0663695	1.23044	3.49199
 207	1	2	0.023286	2.19312	1.25789	3.91793
 208	1	2	-0.011958	1.46809	2.86186	3.85098
 209	1	3	-0.518063	-0.865	2.09049	2.80347
 210	1	4	0.011666	0.110435	0.261348	2.97839
 211	1	5	0.843192	-1.98996	1.52826	2.284
 212	1	1	-0.399874	-2.78215	2.53411	1.48646
 213	1	2	0.119224	-3.71694	2.07319	1.15158
 214	1	2	0.109051	-2.19388	2.84935	0.618621
 215	1	2	0.118031	-3.00472	3.40312	2.11155
 216	1	6	-0.590955	-2.29616	0.356567	2.38024
 217	1	1	-0.003445	3.39834	2.63802	1.96647
 218	1	1	0.299845	1.94433	2.11183	1.93241
 219	1	2	0.023286	3.40018	3.58131	2.52752
 220	1	2	-0.011958	4.04075	1.96069	2.54258
 221	1	3	-0.518063	1.76269	0.936908	1.10275
 222	1	4	0.011666	1.31985	2.90588	1.50217
 223	1	5	0.843192	2.35968	-0.255617	1.36599
 224	1	1	-0.399874	1.84165	-1.32313	0.433656
 225	1	2	0.119224	0.853942	-1.64584	0.779049
 226	1	2	0.109051	2.53032	-2.17486	0.431862
 227	1	2	0.118031	1.7524	-0.919315	-0.579152
 228	1	6	-0.590955	3.18126	-0.456684	2.23718
 229	1	1	-0.003445	5.09648	1.85371	0.234659
 230	1	1	0.299845	3.98681	2.87402	0.562948
 231	1	2	0.023286	4.70023	0.83813	0.340376
 232	1	2	-0.011958	5.92344	1.95809	0.949377
 233	1	3	-0.518063	4.58251	4.18247	0.498951
 234	1	4	0.011666	3.18663	2.79521	-0.184513
 235	1	5	0.843192	3.77341	5.26315	0.36017
 236	1	1	-0.399874	4.59089	6.52984	0.320499
 237	1	2	0.119224	5.26744	6.48726	-0.539031
 238	1	2	0.109051	5.17913	6.60872	1.23993
 239	1	2	0.118031	3.92549	7.39309	0.225948
 240	1	6	-0.590955	2.55769	5.23481	0.383463
 241	1	1	-0.003445	6.84857	1.20429	-1.57812
 242	1	1	0.299845	5.61244	2.05371	-1.20003
 243	1	2	0.023286	7.07472	1.41593	-2.63001
 244	1	2	-0.011958	7.71185	1.58051	-1.01315
 245	1	3	-0.518063	4.49688	1.78153	-2.07322
 246	1	4	0.011666	5.94053	3.09553	-1.29179
 247	1	5	0.843192	3.97896	2.80109	-2.8185
 248	1	1	-0.399874	2.60105	2.44362	-3.32709
 249	1	2	0.119224	1.97069	3.33751	-3.28376
 250	1	2	0.109051	2.15357	1.66469	-2.70304
 251	1	2	0.118031	2.67241	2.09545	-4.36063
 252	1	6	-0.590955	4.4018	3.94094	-2.8349
 253	1	1	-0.003445	7.9279	-1.00578	-2.12281
 254	1	1	0.299845	6.75018	-0.33048	-1.37177
 255	1	2	0.023286	8.85801	-0.614043	-1.69059
 256	1	2	-0.011958	7.91964	-0.678403	-3.17127
 257	1	3	-0.518063	6.90585	-0.614388	0.0351942
 258	1	4	0.011666	5.78921	-0.680954	-1.75866
 259	1	5	0.843192	6.24919	-1.6768	0.574762
 260	1	1	-0.399874	6.72846	-1.95785	1.97908
 261	1	2	0.119224	6.16161	-1.34612	2.687
 262	1	2	0.109051	7.79492	-1.72003	2.06058
 263	1	2	0.118031	6.58134	-3.01927	2.20294
 264	1	6	-0.590955	5.4348	-2.36087	-0.0152353
 265	1	1	-0.003445	9.30949	-3.00856	-2.77918
 266	1	1	0.299845	7.98423	-2.5549	-2.10206
 267	1	2	0.023286	9.16865	-2.97457	-3.86759
 268	1	2	-0.011958	10.0936	-2.26576	-2.58077
 269	1	3	-0.518063	6.8559	-3.01664	-2.87875
 270	1	4	0.011666	7.94236	-2.91337	-1.0662
 271	1	5	0.843192	6.41348	-4.29813	-2.75506
 272	1	1	-0.399874	5.29448	-4.58418	-3.72513
 273	1	2	0.119224	5.1433	-5.66604	-3.78747
 274	1	2	0.109051	5.55772	-4.19911	-4.7144
 275	1	2	0.118031	4.37839	-4.10527	-3.3727
 276	1	6	-0.590955	6.89763	-5.15027	-2.04058
 277	1	1	-0.003445	9.99674	-5.32803	-3.56802
 278	1	1	0.299845	9.84259	-4.40474	-2.34388
 279	1	2	0.023286	9.04328	-5.34772	-4.10511
 280	1	2	-0.011958	10.7396	-4.89406	-4.25194
 281	1	3	-0.518063	11.1533	-4.25711	-1.76206
 282	1	4	0.011666	9.18104	-4.87671	-1.61117
 283	1	5	0.843192	11.2422	-3.7772	-0.494434
 284	1	1	-0.399874	12.6845	-3.65554	-0.0692652
 285	1	2	0.119224	13.1461	-4.6478	-0.0688942
 286	1	2	0.109051	12.7342	-3.22355	0.935515
 287	1	2	0.118031	13.2142	-3.01064	-0.776403
 288	1	6	-0.590955	10.3032	-3.40916	0.184075
 289	1	1	-0.003445	10.9481	-7.57572	-4.4131
 290	1	1	0.299845	10.4136	-6.77024	-3.19871
 291	1	2	0.023286	11.9499	-7.19277	-4.63908
 292	1	2	-0.011958	11.0923	-8.62774	-4.13465
 293	1	3	-0.518063	9.27396	-7.44994	-2.64479
 294	1	4	0.011666	11.217	-6.70974	-2.45313
 295	1	5	0.843192	9.50158	-8.49353	-1.80324
 296	1	1	-0.399874	8.2214	-9.19891	-1.42719
 297	1	2	0.119224	7.37907	-8.77198	-1.97942
 298	1	2	0.109051	8.04765	-9.07879	-0.353752
 299	1	2	0.118031	8.32304	-10.2611	-1.66974
 300	1	6	-0.590955	10.595	-8.86081	-1.42085
 301	1	1	-0.003445	10.8417	-7.98422	-6.94839
 302	1	1	0.299845	10.0753	-7.49726	-5.69583
 303	1	2	0.023286	10.1343	-8.32973	-7.71343
 304	1	2	-0.011958	11.4644	-8.8489	-6.68561
 305	1	3	-0.518063	8.8996	-8.31395	-5.53399
 306	1	4	0.011666	9.80236	-6.45413	-5.88308
 307	1	5	0.843192	7.67703	-7.71705	-5.49392
 308	1	1	-0.399874	6.5829	-8.74389	-5.3367
 309	1	2	0.119224	6.60866	-9.14402	-4.31966
 310	1	2	0.109051	6.74257	-9.55855	-6.04985
 311	1	2	0.118031	5.61286	-8.27317	-5.52583
 312	1	6	-0.590955	7.45568	-6.53742	-5.69656
 313	1	1	-0.003445	10.873	-5.9125	-8.45823
 314	1	1	0.299845	11.7003	-6.82869	-7.52764
 315	1	2	0.023286	10.6551	-6.45403	-9.38784
 316	1	2	-0.011958	9.90326	-5.69266	-7.99896
 317	1	3	-0.518063	12.8039	-7.34303	-8.29381
 318	1	4	0.011666	12.0887	-6.22756	-6.69588
 319	1	5	0.843192	13.8757	-7.83686	-7.62024
 320	1	1	-0.399874	14.9652	-8.25645	-8.57465
 321	1	2	0.119224	15.3722	-7.36652	-9.06416
 322	1	2	0.109051	14.5502	-8.92839	-9.33214
 323	1	2	0.118031	15.7578	-8.76792	-8.01918
 324	1	6	-0.590955	13.9899	-7.85715	-6.41084
 325	1	1	-0.003445	10.7806	-3.70244	-9.76417
 326	1	1	0.299845	11.6077	-4.59326	-8.79185
 327	1	2	0.023286	11.4842	-3.21492	-10.4506
 328	1	2	-0.011958	10.1609	-4.34993	-10.396
 329	1	3	-0.518063	11.9142	-3.94258	-7.5377
 330	1	4	0.011666	12.546	-4.86164	-9.29505
 331	1	5	0.843192	12.7933	-2.90785	-7.50622
 332	1	1	-0.399874	13.0745	-2.48401	-6.08516
 333	1	2	0.119224	12.1546	-2.52748	-5.49387
 334	1	2	0.109051	13.4747	-1.465	-6.07811
 335	1	2	0.118031	13.8119	-3.16888	-5.65459
 336	1	6	-0.590955	13.2472	-2.348	-8.48163
 337	1	1	-0.003445	8.84497	-3.05839	-8.08912
 338	1	1	0.299845	9.9084	-2.59107	-9.12172
 339	1	2	0.023286	8.11008	-3.72366	-8.55423
 340	1	2	-0.011958	9.31847	-3.63967	-7.28938
 341	1	3	-0.518063	9.31385	-1.78883	-10.1705
 342	1	4	0.011666	10.5956	-1.92441	-8.58991
 343	1	5	0.843192	8.37015	-2.26652	-11.0258
 344	1	1	-0.399874	7.99858	-1.22339	-12.0491
 345	1	2	0.119224	8.91234	-0.789251	-12.467
 346	1	2	0.109051	7.41251	-0.435246	-11.5668
 347	1	2	0.118031	7.41462	-1.69179	-12.8474
 348	1	6	-0.590955	7.84094	-3.3579	-10.9744
 349	1	1	-0.003445	6.91565	-2.23462	-6.59346
 350	1	1	0.299845	8.14748	-1.8439	-7.44535
 351	1	2	0.023286	7.22311	-2.36573	-5.54831
 352	1	2	-0.011958	6.51367	-3.20135	-6.92409
 353	1	3	-0.518063	9.14261	-1.22988	-6.59999
 354	1	4	0.011666	7.82653	-1.17352	-8.24991
 355	1	5	0.843192	9.4814	0.0694866	-6.80501
 356	1	1	-0.399874	10.7138	0.431934	-6.01057
 357	1	2	0.119224	10.6439	1.47652	-5.69312
 358	1	2	0.109051	11.5952	0.301296	-6.64746
 359	1	2	0.118031	10.8009	-0.214714	-5.13206
 360	1	6	-0.590955	8.92898	0.82859	-7.5744
 361	1	1	-0.003445	5.03736	-1.19165	-8.04036
 362	1	1	0.299845	5.79566	-1.17201	-6.68724
 363	1	2	0.023286	4.40811	-2.09014	-8.08578
 364	1	2	-0.011958	5.74885	-1.27497	-8.87086
 365	1	3	-0.518063	4.82946	-1.46892	-5.66377
 366	1	4	0.011666	6.25777	-0.18738	-6.5467
 367	1	5	0.843192	4.77844	-0.675983	-4.56506
 368	1	1	-0.399874	3.75367	-1.18322	-3.57766
 369	1	2	0.119224	2.98763	-1.76491	-4.09857
 370	1	2	0.109051	3.28446	-0.341053	-3.06696
 371	1	2	0.118031	4.24975	-1.81882	-2.83981
 372	1	6	-0.590955	5.4459	0.325272	-4.39951
 373	1	1	-0.003445	3.47149	0.0196851	-9.65299
 374	1	1	0.299845	4.15577	0.0646413	-8.26054
 375	1	2	0.023286	4.24199	-0.116209	-10.423
 376	1	2	-0.011958	2.8421	-0.875282	-9.68252
 377	1	3	-0.518063	5.03453	1.20435	-8.17544
 378	1	4	0.011666	3.38565	0.0832475	-7.47858
 379	1	5	0.843192	4.72546	2.22382	-7.32719
 380	1	1	-0.399874	5.86638	3.20415	-7.23024
 381	1	2	0.119224	5.65207	3.93388	-6.44239
 382	1	2	0.109051	5.99503	3.71421	-8.18893
 383	1	2	0.118031	6.78485	2.66033	-6.98461
 384	1	6	-0.590955	3.68102	2.34082	-6.7173
 385	1	1	-0.003445	1.83988	1.13526	-11.358
 386	1	1	0.299845	2.63373	1.27256	-10.024
 387	1	2	0.023286	1.36158	2.09093	-11.593
 388	1	2	-0.011958	2.54988	0.96998	-12.1795
 389	1	3	-0.518063	1.72002	1.57277	-8.95206
 390	1	4	0.011666	3.34382	2.10261	-10.1348
 391	1	5	0.843192	1.25521	2.85045	-8.85747
 392	1	1	-0.399874	0.361568	3.04793	-7.65962
 393	1	2	0.119224	-0.670213	3.18478	-7.99772
 394	1	2	0.109051	0.695795	3.94206	-7.12337
 395	1	2	0.118031	0.428153	2.18391	-6.99179
 396	1	6	-0.590955	1.48016	3.7291	-9.66668
 397	1	1	-0.003445	-0.422699	0.270982	-12.3
 398	1	1	0.299845	0.77965	0.000631131	-11.3565
 399	1	2	0.023286	-0.0310431	0.476818	-13.2979
 400	1	2	-0.011958	-0.994303	-0.661195	-12.3909
 401	1	3	-0.518063	1.46305	-1.16383	-11.8641
 402	1	4	0.011666	0.410991	-0.158407	-10.3347
 403	1	5	0.843192	1.20362	-2.38852	-11.3398
 404	1	1	-0.399874	2.08128	-3.42342	-11.9984
 405	1	2	0.119224	1.78439	-4.42029	-11.6614
 406	1	2	0.109051	3.12635	-3.23649	-11.7337
 407	1	2	0.118031	1.96735	-3.35018	-13.0826
 408	1	6	-0.590955	0.506269	-2.61099	-10.3722
 409	1	1	-0.003445	-2.45669	1.9047	-12.8213
 410	1	1	0.299845	-1.38905	1.38778	-11.7948
 411	1	2	0.023286	-3.16206	1.10426	-13.0626
 412	1	2	-0.011958	-3.09035	2.63662	-12.3077
 413	1	3	-0.518063	-2.07761	0.727643	-10.7147
 414	1	4	0.011666	-0.816199	2.24339	-11.4173
 415	1	5	0.843192	-2.83569	1.403	-9.81838
 416	1	1	-0.399874	-3.41617	0.441644	-8.81014
 417	1	2	0.119224	-4.05495	-0.281623	-9.32706
 418	1	2	0.109051	-4.00079	0.989808	-8.06519
 419	1	2	0.118031	-2.59766	-0.0956098	-8.32087
 420	1	6	-0.590955	-2.97971	2.60711	-9.77979
 421	1	1	-0.003445	-2.62193	2.12663	-15.4356
 422	1	1	0.299845	-1.96614	2.63723	-14.1143
 423	1	2	0.023286	-3.7051	2.01958	-15.296
 424	1	2	-0.011958	-2.50632	2.90753	-16.1982
 425	1	3	-0.518063	-0.54072	2.55216	-14.2781
 426	1	4	0.011666	-2.24858	3.69139	-13.9886
 427	1	5	0.843192	0.0694677	3.44365	-15.1065
 428	1	1	-0.399874	1.42357	2.92974	-15.5216
 429	1	2	0.119224	1.95905	3.71984	-16.0568
 430	1	2	0.109051	1.27892	2.07492	-16.1907
 431	1	2	0.118031	1.99011	2.61607	-14.6413
 432	1	6	-0.590955	-0.437193	4.45479	-15.5456
 433	1	1	-0.003445	-2.50628	-0.450627	-15.2401
 434	1	1	0.299845	-2.02892	0.800071	-15.999
 435	1	2	0.023286	-2.22543	-0.378253	-14.1946
 436	1	2	-0.011958	-3.60297	-0.472367	-15.2636
 437	1	3	-0.518063	-2.46044	0.649107	-17.366
 438	1	4	0.011666	-0.933278	0.817295	-15.9502
 439	1	5	0.843192	-1.69146	1.1698	-18.3575
 440	1	1	-0.399874	-2.28632	0.895556	-19.7191
 441	1	2	0.119224	-3.13167	0.204707	-19.6325
 442	1	2	0.109051	-1.52185	0.457578	-20.3686
 443	1	2	0.118031	-2.63478	1.83948	-20.149
 444	1	6	-0.590955	-0.576774	1.62367	-18.1967
 445	1	1	-0.003445	-0.935891	-2.46305	-14.7886
 446	1	1	0.299845	-1.89845	-1.76513	-15.7877
 447	1	2	0.023286	-1.46091	-2.67896	-13.8497
 448	1	2	-0.011958	-0.123994	-1.77551	-14.5163
 449	1	3	-0.518063	-2.96509	-2.65005	-16.1776
 450	1	4	0.011666	-1.31331	-1.53525	-16.6868
 451	1	5	0.843192	-3.87518	-3.12959	-15.2889
 452	1	1	-0.399874	-4.86752	-4.01655	-15.989
 453	1	2	0.119224	-5.38108	-3.43263	-16.7581
 454	1	2	0.109051	-5.59031	-4.40501	-15.265
 455	1	2	0.118031	-4.32688	-4.84117	-16.4643
 456	1	6	-0.590955	-3.92867	-2.86039	-14.105
 457	1	1	-0.003445	0.961496	-3.49147	-16.1907
 458	1	1	0.299845	-0.334802	-3.76754	-15.3649
 459	1	2	0.023286	0.980795	-2.44489	-16.5205
 460	1	2	-0.011958	1.82012	-3.59687	-15.5154
 461	1	3	-0.518063	-0.0975754	-4.60424	-14.2106
 462	1	4	0.011666	-1.09389	-4.25177	-15.9833
 463	1	5	0.843192	-0.124308	-5.95659	-14.3415
 464	1	1	-0.399874	-0.308525	-6.6323	-13.0032
 465	1	2	0.119224	-1.23164	-6.26066	-12.5453
 466	1	2	0.109051	0.535215	-6.41162	-12.3454
 467	1	2	0.118031	-0.392404	-7.71415	-13.1526
 468	1	6	-0.590955	-0.112763	-6.56004	-15.3928
 469	1	1	-0.003445	2.63763	-4.72687	-17.7604
 470	1	1	0.299845	1.14525	-4.39489	-17.4475
 471	1	2	0.023286	3.20422	-4.7238	-16.8233
 472	1	2	-0.011958	2.65068	-5.77923	-18.0665
 473	1	3	-0.518063	0.620178	-3.77315	-18.6327
 474	1	4	0.011666	0.634764	-5.34857	-17.2879
 475	1	5	0.843192	-0.683417	-3.81143	-18.9796
 476	1	1	-0.399874	-0.817385	-3.38677	-20.4189
 477	1	2	0.119224	-1.8703	-3.2292	-20.6669
 478	1	2	0.109051	-0.402477	-4.1827	-21.0471
 479	1	2	0.118031	-0.246071	-2.46881	-20.5848
 480	1	6	-0.590955	-1.59594	-4.22347	-18.3
 481	1	1	-0.003445	3.98358	-4.70757	-20.0182
 482	1	1	0.299845	3.36331	-3.85547	-18.8627
 483	1	2	0.023286	5.05744	-4.83273	-19.847
 484	1	2	-0.011958	3.58505	-5.72814	-19.9793
 485	1	3	-0.518063	4.39452	-3.02006	-18.269
 486	1	4	0.011666	2.65228	-3.17612	-19.3287
 487	1	5	0.843192	5.47423	-3.55079	-17.6241
 488	1	1	-0.399874	6.49676	-2.48969	-17.2942
 489	1	2	0.119224	6.25851	-1.5591	-17.819
 490	1	2	0.109051	7.48264	-2.84208	-17.6158
 491	1	2	0.118031	6.50373	-2.31375	-16.215
 492	1	6	-0.590955	5.66808	-4.73185	-17.4207
 493	1	1	-0.003445	4.21069	-2.78923	-21.9299
 494	1	1	0.299845	3.83624	-4.23895	-21.4963
 495	1	2	0.023286	5.05946	-2.45405	-21.3217
 496	1	2	-0.011958	4.6125	-2.87359	-22.9484
 497	1	3	-0.518063	2.57897	-4.65917	-22.0643
 498	1	4	0.011666	4.63669	-4.81698	-21.9714
 499	1	5	0.843192	2.58637	-5.6319	-23.0214
 500	1	1	-0.399874	1.24708	-5.74971	-23.7063
 501	1	2	0.119224	1.41969	-5.9838	-24.7624
 502	1	2	0.109051	0.698317	-4.80636	-23.6315
 503	1	2	0.118031	0.67024	-6.55347	-23.2415
 504	1	6	-0.590955	3.56039	-6.25228	-23.3961
 505	1	1	-0.003445	1.86432	-1.86478	-22.8035
 506	1	1	0.299845	3.16471	-1.63671	-21.9881
 507	1	2	0.023286	2.09806	-2.10801	-23.8474
 508	1	2	-0.011958	1.24477	-0.958715	-22.8073
 509	1	3	-0.518063	2.84435	-1.21403	-20.6561
 510	1	4	0.011666	3.69624	-0.820597	-22.4939
 511	1	5	0.843192	2.56315	0.0993604	-20.4499
 512	1	1	-0.399874	2.29598	0.353406	-18.9904
 513	1	2	0.119224	1.36647	-0.147325	-18.7089
 514	1	2	0.109051	2.19965	1.4316	-18.8207
 515	1	2	0.118031	3.12207	-0.048177	-18.3968
 516	1	6	-0.590955	2.6006	0.972682	-21.2938
 517	1	4	0	-5.0637	1.11327	16.887
 518	1	2	0	1.24521	-2.66545	-22.3917

Velocities

   1	0.000751841	0.000267399	0.000337798
   2	-0.000223265	0.000861365	-0.000168439
   3	0.0016972	-0.000585577	0.000471685
   4	0.000712622	0.00107363	0.00159463
   5	-0.000897619	0.000364288	-0.000644362
   6	-0.000326267	0.00144722	-3.65309e-05
   7	-0.000919424	0.000607497	-0.000428093
   8	-0.000918385	0.00038206	-0.000639761
   9	-0.00118752	0.000215149	-0.000585551
  10	-0.000897354	2.80395e-05	-5.9703e-05
  11	-0.00115463	0.000107273	-0.000340351
  12	-0.000382743	0.00127375	-0.000457879
  13	9.27435e-05	-0.000897244	5.26009e-05
  14	0.000311957	0.000523529	3.15274e-05
  15	-0.000825995	-0.00173693	-0.000913744
  16	0.00120037	-0.00170749	0.000956219
  17	0.00032186	0.000543612	0.000354846
  18	0.000528315	0.000868484	-0.000704841
  19	0.000972393	0.00132502	0.000104876
  20	0.000193135	0.000465301	0.000553358
  21	-0.000176869	0.000468989	0.000527446
  22	-0.000659235	0.000719175	0.000710261
  23	0.000582358	-0.000342725	0.000783713
  24	0.00140335	0.00192659	-9.12491e-05
  25	0.000212194	-0.000339837	-1.07431e-05
  26	8.86569e-05	-0.00044405	-3.17912e-05
  27	0.000403014	-0.000561078	5.27382e-05
  28	0.000381551	-0.000331088	8.18529e-06
  29	-0.000289389	-0.000389616	0.000106208
  30	-8.48965e-05	-0.000409954	0.000139698
  31	-9.20405e-05	-0.000576075	0.000170443
  32	-0.000477691	-0.000531946	0.000219023
  33	-0.000579944	-0.000718503	0.000413229
  34	-0.000625291	-0.000206745	2.35562e-05
  35	-0.000582341	-0.000530321	0.000299423
  36	-2.85278e-05	-0.000576045	0.000126393
  37	8.90484e-05	-0.000160402	-0.000183828
  38	0.000109896	-0.000159042	4.3212e-05
  39	-8.76473e-07	-0.000157203	-0.000168918
  40	0.000145701	-0.000250398	-7.80316e-05
  41	0.000202463	-0.00022514	-6.77244e-05
  42	9.27573e-05	-5.11889e-05	0.000188879
  43	8.67781e-05	-0.000111018	-0.000166946
  44	0.000143641	7.98076e-05	-0.000272489
  45	-0.000455309	0.000724638	-0.000158637
  46	3.52902e-05	-0.000683898	-3.20114e-05
  47	0.000787814	0.000277299	-0.000825731
  48	4.64543e-06	-0.000230574	-0.000227134
  49	-0.000174613	0.000165951	-0.000168009
  50	1.52571e-05	0.000102288	-0.000144127
  51	-0.000270488	0.000311453	-0.000108652
  52	-0.000254195	6.74974e-05	-0.000318541
  53	1.59702e-05	0.000229063	-9.19432e-05
  54	0.000118449	0.000228234	-1.64308e-05
  55	0.000358856	0.000316941	0.000169824
  56	0.000100917	0.000386818	2.67999e-05
  57	0.000273969	0.000139948	0.000195146
  58	-0.000400106	0.000277791	-0.000119722
  59	0.000212822	0.00088243	-0.000178437
  60	0.00054477	0.000306234	0.000326044
  61	-6.51408e-05	4.94524e-05	-0.000134874
  62	-0.000107428	6.59292e-05	-0.000128344
  63	-4.51571e-05	7.97042e-05	-6.39284e-05
  64	1.95588e-05	5.16087e-05	-0.000194571
  65	-0.00016376	-7.7503e-06	-1.68816e-05
  66	-7.32646e-05	2.11683e-05	-0.000108776
  67	-0.000203398	-2.63599e-06	4.21791e-05
  68	-0.0002924	-0.000246535	0.00018635
  69	-0.000380269	-0.000203604	0.000586066
  70	-0.000217556	-6.92763e-05	2.3897e-05
  71	-0.00036444	-0.000626498	8.87753e-05
  72	-0.000183147	9.30653e-05	-5.57365e-05
  73	-0.00020159	-4.54923e-05	-0.000164092
  74	-0.000180285	-3.60849e-05	-0.000181983
  75	-0.000257532	-0.000150376	-0.000266
  76	-0.000317459	-2.71873e-05	-6.49792e-05
  77	-0.000149665	-0.000187678	-0.000357199
  78	-0.000295806	-4.48441e-05	-0.000116359
  79	-0.000250433	-0.000370331	-0.000324486
  80	-0.000178765	-0.000930152	-0.000336181
  81	0.000278903	-0.000981057	-0.000568919
  82	-0.000270003	-0.00140552	-0.000133457
  83	-0.000455661	-0.000774827	-0.000179781
  84	-0.000427033	-0.000328786	-0.0003911
  85	-4.2989e-05	1.0129e-05	-0.00020301
  86	-8.37915e-05	-1.95105e-05	-0.000147717
  87	-0.000128394	0.000122529	-0.000343778
  88	0.000114428	-3.43613e-05	-0.00026999
  89	-1.0784e-05	-3.99237e-05	-0.000188402
  90	-6.81397e-05	-3.08904e-05	-9.23033e-05
  91	-3.99968e-05	-3.29331e-05	0.000137552
  92	0.000132233	-0.000154691	-0.000409496
  93	0.000191035	-0.000525684	-0.000461077
  94	0.000179234	-0.000220876	-0.000561663
  95	0.000146967	0.000161034	-0.000631975
  96	-0.000181924	5.18433e-05	0.000664458
  97	-0.000133604	-0.000142614	-5.22361e-05
  98	-8.75783e-05	-4.02398e-05	-5.056e-05
  99	-0.000416137	-0.000220859	-0.00014082
 100	2.34352e-05	-0.000419753	-1.8829e-05
 101	-0.00010913	-6.26262e-05	0.000141795
 102	-1.76114e-05	1.40021e-05	-7.17764e-05
 103	7.29649e-05	3.48347e-05	0.000300717
 104	-2.94796e-06	1.81539e-05	0.000605558
 105	1.31475e-06	-0.00058395	0.00102532
 106	0.000150191	2.78953e-05	5.33495e-05
 107	-0.000206826	0.000601966	0.00100329
 108	0.00021942	0.000195368	0.000212505
 109	-2.88656e-06	0.000108818	-1.79884e-05
 110	-8.49373e-05	0.000137501	3.02037e-05
 111	8.12572e-05	6.83524e-05	0.000142795
 112	-2.27441e-05	0.000165933	1.73978e-05
 113	-2.93126e-05	0.000572298	0.000167173
 114	-0.000210205	-9.28585e-07	0.000178484
 115	-9.67151e-05	0.000610975	0.000766945
 116	0.000407667	0.000992904	0.00125441
 117	0.00060403	0.000797041	0.00216979
 118	0.000964072	0.00165802	0.000957962
 119	0.000199142	0.000830443	0.00116611
 120	-0.000226953	0.000195805	0.00113122
 121	0.000153117	-0.000336763	7.15509e-06
 122	-3.70539e-05	-0.000108246	-0.000103085
 123	8.47783e-05	-0.000600913	-6.57821e-05
 124	0.000345896	-0.000294452	0.000104183
 125	-6.95713e-05	-4.01653e-05	-1.7213e-05
 126	-0.000147792	-0.00015387	-0.000199704
 127	-9.65209e-05	-0.000450324	-0.000651672
 128	0.000177872	0.000113446	0.000235607
 129	0.000647069	-0.000792874	0.000948331
 130	0.000300571	0.00118383	0.000862643
 131	-0.000167713	0.000362398	-0.000425307
 132	-0.000214865	-0.00109282	-0.00163983
 133	0.00037712	-8.52077e-05	0.000451214