pySIMM System Object

230 atoms
229 bonds
418 angles
542 dihedrals
19 impropers

6 atom types
7 bond types
12 angle types
10 dihedral types
1 improper types

-86.334865 86.334865 xlo xhi
-86.334865 86.334865 ylo yhi
-86.334865 86.334865 zlo zhi

Masses

   1	12.01	# c3
   2	1.008	# hc
   3	16.0	# os
   4	1.008	# h1
   5	12.01	# c
   6	16.0	# o

Pair Coeffs

   1	0.1094	3.3996695084235347	# c3
   2	0.0157	2.649532787749369	# hc
   3	0.17	3.0000123434657784	# os
   4	0.0157	2.471353044121301	# h1
   5	0.086	3.3996695084235347	# c
   6	0.21	2.959921901149463	# o

Bond Coeffs

   1	330.6	1.0969	# c3,hc
   2	637.7	1.2183	# c,o
   3	330.6	1.0969	# c3,h1
   4	308.6	1.4316	# c3,os
   5	313.0	1.5241	# c,c3
   6	390.8	1.3584	# c,os
   7	300.9	1.5375	# c3,c3

Angle Coeffs

   1	67.4	123.2	# c3,c,o
   2	46.93	108.77	# c,c3,hc
   3	75.32	123.25	# o,c,os
   4	68.0	107.97	# c3,c3,os
   5	46.34	109.8	# c3,c3,hc
   6	46.39	109.56	# c3,c3,h1
   7	63.28	115.98	# c,os,c3
   8	50.8	109.78	# h1,c3,os
   9	68.89	110.72	# c3,c,os
  10	39.4	107.58	# hc,c3,hc
  11	39.24	108.46	# h1,c3,h1
  12	62.86	111.51	# c3,c3,c3

Dihedral Coeffs

   1	2	0.383	3	0	0.8	1	180	# c3,c3,os,c
   2	2	0.0	3	0	0.25	1	0	# hc,c3,c3,os
   3	1	0.3833333333333333	3	0	# X,c3,os,X
   4	1	0.0	2	180	# X,c,c3,X
   5	3	0.8	1	0	0.0	2	0	0.08	3	180	# hc,c3,c,o
   6	3	2.7	2	180	0.0	1	0	1.15	3	0	# c3,c,os,c3
   7	1	0.15555555555555556	3	0	# X,c3,c3,X
   8	2	2.7	2	180	1.4	1	180	# o,c,os,c3
   9	1	0.16	3	0	# hc,c3,c3,c3
  10	3	0.18	3	0	0.25	2	180	0.2	1	180	# c3,c3,c3,c3

Improper Coeffs

   1	10.5	-1	2	# c,X,X,o

Atoms

   1	1	1	-0.003445	-1.32005	4.05282	-11.0669
   2	1	1	0.299845	-2.31521	4.77272	-12.0016
   3	1	2	0.023286	-1.41113	2.96991	-11.2199
   4	1	2	-0.011958	-0.293254	4.31781	-11.3492
   5	1	3	-0.518063	-2.15149	4.23878	-13.324
   6	1	4	0.011666	-2.12875	5.85459	-12.001
   7	1	5	0.843192	-3.0767	4.5977	-14.2505
   8	1	1	-0.399874	-2.83035	3.91764	-15.5766
   9	1	2	0.119224	-3.77687	3.50932	-15.9441
  10	1	2	0.109051	-2.10575	3.10526	-15.4585
  11	1	2	0.118031	-2.44292	4.65133	-16.2891
  12	1	6	-0.590955	-4.02348	5.3301	-14.0444
  13	1	1	-0.003445	-1.34983	5.84164	-9.17561
  14	1	1	0.299845	-1.55627	4.35299	-9.56497
  15	1	2	0.023286	-2.06674	6.46548	-9.72104
  16	1	2	-0.011958	-1.5958	5.97621	-8.11597
  17	1	3	-0.518063	-2.90939	3.96194	-9.26395
  18	1	4	0.011666	-0.859152	3.73334	-8.98512
  19	1	5	0.843192	-3.28613	3.7861	-7.97033
  20	1	1	-0.399874	-4.75043	3.43547	-7.88689
  21	1	2	0.119224	-5.07272	3.46998	-6.84171
  22	1	2	0.109051	-4.90479	2.43072	-8.29165
  23	1	2	0.118031	-5.32824	4.15455	-8.47605
  24	1	6	-0.590955	-2.56516	3.90997	-7.00069
  25	1	1	-0.003445	0.6953	7.06196	-8.18308
  26	1	1	0.299845	0.10966	6.31962	-9.41052
  27	1	2	0.023286	0.0805952	7.93023	-7.92277
  28	1	2	-0.011958	0.6297	6.38483	-7.32147
  29	1	3	-0.518063	0.196279	7.11331	-10.619
  30	1	4	0.011666	0.734904	5.42939	-9.55503
  31	1	5	0.843192	-0.410639	8.32865	-10.7364
  32	1	1	-0.399874	-0.165063	8.93361	-12.0952
  33	1	2	0.119224	-1.01133	8.69759	-12.7471
  34	1	2	0.109051	0.754634	8.52714	-12.5283
  35	1	2	0.118031	-0.0713634	10.0194	-11.9909
  36	1	6	-0.590955	-1.05669	8.88376	-9.87247
  37	1	1	-0.003445	2.64362	8.46181	-7.24085
  38	1	1	0.299845	2.16871	7.49746	-8.36927
  39	1	2	0.023286	3.72624	8.62337	-7.30466
  40	1	2	-0.011958	2.18901	9.44152	-7.43832
  41	1	3	-0.518063	2.9693	6.29871	-8.39602
  42	1	4	0.011666	2.26421	8.02128	-9.32917
  43	1	5	0.843192	4.25968	6.35944	-8.81684
  44	1	1	-0.399874	4.94129	5.02384	-8.64857
  45	1	2	0.119224	4.58183	4.33599	-9.41897
  46	1	2	0.109051	4.70797	4.61501	-7.6599
  47	1	2	0.118031	6.02416	5.15495	-8.74237
  48	1	6	-0.590955	4.80984	7.34954	-9.25293
  49	1	1	-0.003445	2.91925	6.71851	-5.33556
  50	1	1	0.299845	2.27087	8.05207	-5.79062
  51	1	2	0.023286	4.00715	6.77933	-5.44708
  52	1	2	-0.011958	2.59591	5.93347	-6.02378
  53	1	3	-0.518063	2.7089	9.13575	-4.94871
  54	1	4	0.011666	1.18023	7.95203	-5.74089
  55	1	5	0.843192	1.9146	9.53343	-3.91906
  56	1	1	-0.399874	2.51235	10.7112	-3.18779
  57	1	2	0.119224	3.54702	10.8705	-3.50806
  58	1	2	0.109051	2.48454	10.5172	-2.1116
  59	1	2	0.118031	1.92146	11.6031	-3.41708
  60	1	6	-0.590955	0.832152	9.05754	-3.64058
  61	1	1	-0.003445	2.64596	4.71381	-3.74428
  62	1	1	0.299845	2.507	6.25617	-3.91235
  63	1	2	0.023286	2.21326	4.22839	-4.62662
  64	1	2	-0.011958	3.69808	4.40981	-3.75364
  65	1	3	-0.518063	3.23677	6.99892	-2.9016
  66	1	4	0.011666	1.44113	6.48935	-3.8007
  67	1	5	0.843192	4.59255	6.96111	-2.78568
  68	1	1	-0.399874	5.06252	7.89578	-1.69828
  69	1	2	0.119224	4.41378	8.77573	-1.66291
  70	1	2	0.109051	6.08971	8.20865	-1.91234
  71	1	2	0.118031	5.02472	7.37804	-0.736014
  72	1	6	-0.590955	5.34602	6.25007	-3.41723
  73	1	1	-0.003445	2.58299	4.60501	-1.16919
  74	1	1	0.299845	1.95105	4.11475	-2.4919
  75	1	2	0.023286	3.65412	4.76867	-1.33663
  76	1	2	-0.011958	2.1586	5.57729	-0.884518
  77	1	3	-0.518063	0.554767	4.48042	-2.4785
  78	1	4	0.011666	2.06041	3.0246	-2.543
  79	1	5	0.843192	-0.297188	3.8852	-3.35562
  80	1	1	-0.399874	-1.68614	4.46952	-3.25568
  81	1	2	0.119224	-2.05852	4.66328	-4.26758
  82	1	2	0.109051	-1.66434	5.40806	-2.69144
  83	1	2	0.118031	-2.34324	3.75452	-2.75367
  84	1	6	-0.590955	0.0095617	3.01799	-4.14646
  85	1	1	-0.003445	3.11893	4.20086	1.27375
  86	1	1	0.299845	2.46303	3.6126	0.00989884
  87	1	2	0.023286	4.09345	4.64418	1.02938
  88	1	2	-0.011958	2.49046	5.02393	1.6386
  89	1	3	-0.518063	1.08263	3.37613	0.356877
  90	1	4	0.011666	2.98163	2.67924	-0.246978
  91	1	5	0.843192	0.433252	2.31329	-0.183658
  92	1	1	-0.399874	-0.997697	2.24967	0.290492
  93	1	2	0.119224	-1.60549	1.75377	-0.472613
  94	1	2	0.109051	-1.37795	3.26169	0.463149
  95	1	2	0.118031	-1.03872	1.68082	1.22417
  96	1	6	-0.590955	0.9425	1.47003	-0.891362
  97	1	1	-0.003445	3.15687	3.67182	3.79152
  98	1	1	0.299845	3.29786	3.1075	2.35171
  99	1	2	0.023286	2.57329	4.60058	3.77384
 100	1	2	-0.011958	4.14916	3.95355	4.16741
 101	1	3	-0.518063	4.62774	2.58623	2.17174
 102	1	4	0.011666	2.55537	2.32266	2.17224
 103	1	5	0.843192	4.92293	1.34529	2.63571
 104	1	1	-0.399874	6.38223	1.01632	2.42907
 105	1	2	0.119224	6.46495	0.167029	1.74474
 106	1	2	0.109051	6.82925	0.760434	3.39473
 107	1	2	0.118031	6.90904	1.87776	2.00491
 108	1	6	-0.590955	4.11159	0.562824	3.08753
 109	1	1	-0.003445	0.987044	2.40325	4.41572
 110	1	1	0.299845	2.459	2.71331	4.79123
 111	1	2	0.023286	0.435488	3.35009	4.34718
 112	1	2	-0.011958	0.916136	1.92837	3.43013
 113	1	3	-0.518063	2.41869	3.38899	6.06129
 114	1	4	0.011666	3.00981	1.77097	4.88124
 115	1	5	0.843192	3.50521	3.3385	6.87181
 116	1	1	-0.399874	3.27155	4.15506	8.11815
 117	1	2	0.119224	2.39282	3.76624	8.6425
 118	1	2	0.109051	3.0911	5.19769	7.83851
 119	1	2	0.118031	4.14971	4.09098	8.76784
 120	1	6	-0.590955	4.52193	2.7131	6.64629
 121	1	1	-0.003445	0.646135	-0.0118756	5.30015
 122	1	1	0.299845	0.30946	1.49345	5.46529
 123	1	2	0.023286	1.45132	-0.141481	4.564
 124	1	2	-0.011958	-0.218343	-0.535839	4.872
 125	1	3	-0.518063	-1.11334	1.64971	5.30654
 126	1	4	0.011666	0.621324	1.84239	6.45668
 127	1	5	0.843192	-1.89112	1.64087	6.41906
 128	1	1	-0.399874	-3.35073	1.73052	6.05588
 129	1	2	0.119224	-3.48949	2.48174	5.27281
 130	1	2	0.109051	-3.92839	2.00544	6.94422
 131	1	2	0.118031	-3.68544	0.754616	5.69195
 132	1	6	-0.590955	-1.47735	1.6169	7.56081
 133	1	1	-0.003445	0.511195	-2.11257	6.79677
 134	1	1	0.299845	1.06917	-0.669368	6.63764
 135	1	2	0.023286	0.665794	-2.64686	5.85331
 136	1	2	-0.011958	1.07987	-2.6542	7.56429
 137	1	3	-0.518063	2.50789	-0.706433	6.61746
 138	1	4	0.011666	0.725364	-0.0465055	7.47298
 139	1	5	0.843192	3.19533	-0.714453	7.7886
 140	1	1	-0.399874	4.68267	-0.75412	7.53573
 141	1	2	0.119224	5.21322	-0.438016	8.43915
 142	1	2	0.109051	4.93079	-0.0761893	6.71165
 143	1	2	0.118031	4.97517	-1.77261	7.2667
 144	1	6	-0.590955	2.70174	-0.651215	8.89593
 145	1	1	-0.003445	-1.63224	-3.52245	7.39294
 146	1	1	0.299845	-0.993398	-2.11572	7.18637
 147	1	2	0.023286	-1.07821	-4.05139	8.1784
 148	1	2	-0.011958	-2.646	-3.39327	7.79108
 149	1	3	-0.518063	-1.05289	-1.44801	8.45835
 150	1	4	0.011666	-1.56273	-1.55351	6.43513
 151	1	5	0.843192	-2.22183	-0.921054	8.90206
 152	1	1	-0.399874	-2.06378	-0.397497	10.3087
 153	1	2	0.119224	-1.60587	-1.17254	10.9314
 154	1	2	0.109051	-3.04144	-0.122112	10.7148
 155	1	2	0.118031	-1.40672	0.477947	10.2884
 156	1	6	-0.590955	-3.26901	-0.926048	8.28164
 157	1	1	-0.003445	-2.52945	-3.86379	4.95444
 158	1	1	0.299845	-1.76619	-4.45443	6.15995
 159	1	2	0.023286	-3.42405	-3.34492	5.3241
 160	1	2	-0.011958	-1.91909	-3.10097	4.45374
 161	1	3	-0.518063	-0.463623	-4.85554	5.70544
 162	1	4	0.011666	-2.34016	-5.33028	6.49071
 163	1	5	0.843192	0.129268	-5.92191	6.30177
 164	1	1	-0.399874	1.54983	-6.08467	5.82738
 165	1	2	0.119224	1.86392	-7.12236	5.97702
 166	1	2	0.109051	2.19386	-5.41668	6.40785
 167	1	2	0.118031	1.62118	-5.82363	4.76668
 168	1	6	-0.590955	-0.426612	-6.6973	7.05147
 169	1	1	-0.003445	-2.29363	-4.87339	2.56559
 170	1	1	0.299845	-2.94362	-5.00314	3.97561
 171	1	2	0.023286	-1.34187	-4.34357	2.67392
 172	1	2	-0.011958	-2.9319	-4.2372	1.93802
 173	1	3	-0.518063	-4.38386	-4.94409	3.88704
 174	1	4	0.011666	-2.64634	-5.95673	4.42752
 175	1	5	0.843192	-5.09419	-6.07917	3.67049
 176	1	1	-0.399874	-6.5801	-5.82425	3.75651
 177	1	2	0.119224	-6.81039	-5.35077	4.7165
 178	1	2	0.109051	-7.12279	-6.77285	3.68111
 179	1	2	0.118031	-6.88552	-5.15721	2.94528
 180	1	6	-0.590955	-4.6069	-7.18142	3.52075
 181	1	1	-0.003445	-0.974232	-7.15214	2.48641
 182	1	1	0.299845	-2.03012	-6.22074	1.82441
 183	1	2	0.023286	0.00235009	-6.65692	2.54751
 184	1	2	-0.011958	-1.25923	-7.33855	3.52557
 185	1	3	-0.518063	-1.67959	-5.98326	0.440485
 186	1	4	0.011666	-2.97389	-6.7738	1.8021
 187	1	5	0.843192	-0.544776	-5.32211	0.079653
 188	1	1	-0.399874	-0.397165	-5.29005	-1.42097
 189	1	2	0.119224	-1.33097	-4.94213	-1.87254
 190	1	2	0.109051	-0.173939	-6.29859	-1.78189
 191	1	2	0.118031	0.418516	-4.61053	-1.68844
 192	1	6	-0.590955	0.255315	-4.81178	0.836905
 193	1	1	-0.003445	-0.87472	-9.73621	2.67118
 194	1	1	0.299845	-0.843208	-8.50337	1.72872
 195	1	2	0.023286	-0.280294	-9.5342	3.57174
 196	1	2	-0.011958	-0.374273	-10.5784	2.17778
 197	1	3	-0.518063	0.406614	-8.50839	1.00622
 198	1	4	0.011666	-1.66949	-8.5881	1.01071
 199	1	5	0.843192	0.55559	-9.40373	-0.0100258
 200	1	1	-0.399874	1.94653	-9.35436	-0.593861
 201	1	2	0.119224	1.96564	-9.93008	-1.52513
 202	1	2	0.109051	2.65161	-9.78996	0.120768
 203	1	2	0.118031	2.22481	-8.31579	-0.79314
 204	1	6	-0.590955	-0.317267	-10.1322	-0.436436
 205	1	1	-0.003445	-2.72599	-9.74643	4.49326
 206	1	1	0.299845	-2.32278	-10.1611	3.05125
 207	1	2	0.023286	-2.7571	-8.65385	4.5303
 208	1	2	-0.011958	-1.93737	-10.0252	5.20374
 209	1	3	-0.518063	-2.48814	-11.5735	2.80393
 210	1	4	0.011666	-3.01216	-9.64867	2.36844
 211	1	5	0.843192	-1.76624	-12.5138	3.46956
 212	1	1	-0.399874	-2.01154	-13.8777	2.87087
 213	1	2	0.119224	-1.30229	-14.0282	2.05114
 214	1	2	0.109051	-3.03167	-13.9354	2.47765
 215	1	2	0.118031	-1.86407	-14.644	3.63686
 216	1	6	-0.590955	-0.930196	-12.3017	4.3249
 217	1	1	-0.003445	-5.20746	-10.4571	3.95761
 218	1	1	0.299845	-4.09298	-10.2597	5.01823
 219	1	2	0.023286	-5.28753	-9.59118	3.29359
 220	1	2	-0.011958	-5.02325	-11.3423	3.33722
 221	1	3	-0.518063	-3.85216	-11.5073	5.6921
 222	1	4	0.011666	-4.43656	-9.51456	5.74804
 223	1	5	0.843192	-4.70521	-11.8906	6.67488
 224	1	1	-0.399874	-4.25011	-13.1799	7.31403
 225	1	2	0.119224	-4.80355	-14.0127	6.87244
 226	1	2	0.109051	-4.44191	-13.132	8.39058
 227	1	2	0.118031	-3.17756	-13.3208	7.14186
 228	1	6	-0.590955	-5.66936	-11.2592	7.05988
 229	1	4	0	-3.34107	4.59147	-11.6559
 230	1	2	0	-6.18225	-10.5885	4.443

Velocities

   1	-0.000481966	-0.000229424	0.000180093
   2	-0.000659378	-0.00069449	0.000438558
   3	-0.000510414	-0.000275468	0.000447723
   4	-0.000737202	1.67275e-05	-0.000174496
   5	-0.00139444	-0.00147726	0.00063568
   6	-0.000260517	-0.000336152	-0.000359017
   7	-0.000284068	0.00043133	0.000162007
   8	0.000546001	0.000528727	0.000231235
   9	0.000876745	0.00107293	-0.00144407
  10	-7.74349e-05	6.46646e-05	0.000853958
  11	0.00222045	0.000549217	0.00111033
  12	0.0014662	0.00257253	-0.00127888
  13	-3.4079e-05	0.000183272	-0.00038405
  14	-3.11509e-05	-3.59658e-05	0.00017979
  15	0.000218667	-4.89299e-05	-0.000558497
  16	-4.21692e-06	0.000256204	-0.000272299
  17	-0.000384623	0.000118421	0.000682485
  18	-0.000152837	0.000144961	0.000110644
  19	-0.000222415	3.30701e-05	0.000721981
  20	-7.64668e-05	-0.000410512	0.000698009
  21	-0.000186605	-0.0014515	0.000707186
  22	2.70861e-05	-0.000124618	-0.000188652
  23	-0.000491089	-0.000134766	0.00130811
  24	-0.000241353	-0.00024447	0.000773677
  25	-0.000640419	0.00057245	-0.000380623
  26	0.000183694	6.09899e-05	-0.000272851
  27	-0.000393521	0.000906827	-0.00129004
  28	-0.00129927	0.00121722	6.0663e-05
  29	0.000607468	-0.000373084	-0.000537632
  30	0.000273176	-6.51891e-05	0.000278844
  31	0.000470909	-0.000343273	-0.0011673
  32	0.000592858	-0.000375619	-0.00104445
  33	0.00132575	-0.00178475	-0.00159051
  34	0.00148919	0.00109813	-0.00049785
  35	-0.00123823	-7.86059e-05	-0.00126526
  36	-0.000408072	-0.00062466	-0.00163399
  37	-0.000311637	9.20251e-05	0.000204185
  38	-0.000400911	0.00017764	0.000169532
  39	-0.000149266	-0.0006586	0.000612787
  40	0.000463091	0.000383568	-7.40906e-06
  41	-0.000628396	6.57264e-05	0.000598715
  42	5.86224e-05	-7.57023e-05	0.00020906
  43	-0.000915364	0.000255858	-1.4207e-05
  44	-0.000579423	0.000500358	-0.000617955
  45	-0.00150636	0.000494439	-0.000160609
  46	0.000855167	0.000484841	-0.000295019
  47	-0.00076132	0.000825388	-0.00213824
  48	-0.00166854	0.000179272	-0.00118208
  49	-0.000933914	-5.51885e-05	-0.000231899
  50	-0.000815755	0.000107299	8.51645e-05
  51	-0.00100462	-0.000478291	-0.000989942
  52	-0.00178596	6.22104e-05	5.33229e-05
  53	-0.000521462	-3.25944e-05	1.74022e-05
  54	-0.000809983	0.000490076	-0.000160248
  55	-0.000431447	0.000173801	-8.01557e-05
  56	0.000339158	-0.00051474	0.000320463
  57	0.000729386	-0.00165574	0.000928775
  58	-0.000486573	-0.000674127	0.000278984
  59	0.00150362	0.000211552	9.31252e-05
  60	-0.000522239	0.000350186	6.06331e-05
  61	0.00114771	-9.3107e-05	5.33089e-05
  62	6.23244e-05	-0.000211758	-9.89494e-05
  63	0.00211445	-0.000576673	-0.000160251
  64	0.00135598	0.000513611	0.000628459
  65	-3.77573e-05	-3.0109e-05	-0.000263857
  66	-3.96636e-05	-0.000760202	0.000264177
  67	7.36007e-05	0.000252059	-0.000578368
  68	-0.000382544	-0.000471592	0.000261673
  69	0.000353007	7.44726e-05	-0.000413467
  70	0.000186303	-0.00145614	0.00156116
  71	-0.00210987	-0.000718536	6.52437e-05
  72	0.000178383	0.00106009	-0.00108359
  73	0.00029722	-0.000201916	0.000277987
  74	0.000768235	-0.000183938	-0.00018506
  75	0.000270504	0.000346396	0.000581528
  76	-0.000190753	-0.000409093	0.000215913
  77	0.0008313	-0.000163842	-0.00066193
  78	0.000747855	-0.000169716	-0.000322863
  79	0.00128757	0.000647848	-0.00204426
  80	0.000719287	-0.000760381	-0.000402393
  81	-0.00146095	-0.00215785	9.88925e-05
  82	0.000501737	-0.000348999	-0.0012144
  83	0.00280341	-0.00136368	0.00140594
  84	0.00144018	0.00134343	-0.00219466
  85	0.000293318	-0.000192239	0.00069508
  86	0.000433851	-0.000199143	0.000443687
  87	0.000417711	-0.000372031	0.000815649
  88	0.000407555	-6.27352e-05	0.000594492
  89	0.000415537	-0.000238047	0.000278813
  90	0.000449339	-0.000224629	0.000567889
  91	0.000206503	0.000294744	-0.00072168
  92	0.000203166	0.000337914	-0.000587984
  93	0.000516266	-0.00153273	0.000368682
  94	-0.000367042	0.000430592	-0.0025205
  95	0.000640799	0.00210227	0.000487387
  96	1.06111e-05	0.000693851	-0.00108345
  97	0.000179816	-7.0258e-05	0.00110758
  98	7.23719e-05	4.22641e-05	0.00104535
  99	0.00060573	0.000194448	0.00138599
 100	0.000246235	-0.000610583	0.00131475
 101	-3.8748e-05	-0.000246232	0.00140007
 102	2.18084e-05	0.000101883	0.00109102
 103	-0.000549775	-0.000512523	0.00105217
 104	-0.000776655	-0.000944781	0.000343165
 105	-0.00152999	-0.000871255	0.000146279
 106	-0.000191988	-0.00118486	2.39107e-05
 107	-0.000840382	-0.00102302	8.35274e-05
 108	-0.00097964	-0.000815917	-0.000328399
 109	-0.000166008	0.000190794	0.000408706
 110	-0.000100727	-0.000376896	0.00065027
 111	0.000261764	0.000418212	-6.55827e-06
 112	-5.06564e-05	2.29948e-05	0.000502155
 113	0.000174679	-0.00131497	0.00114328
 114	-0.000371536	-0.000574794	0.000121974
 115	0.000944706	-0.000494155	0.000110744
 116	0.000887428	-0.00135016	0.000686251
 117	0.000828689	-0.0016674	0.000387308
 118	0.000918777	-0.00121514	0.0011969
 119	0.000798361	-0.00173321	0.000711371
 120	0.0018772	0.00165465	-0.00146672
 121	-0.00145825	0.000275369	-0.000104724
 122	-0.000737117	0.000461136	0.000336812
 123	-0.00191592	0.000189283	-0.00058413
 124	-0.00189606	0.000739004	0.00029741
 125	-0.000676678	0.00135821	0.000340415
 126	-0.000632421	0.000123826	0.000434692
 127	-0.000745596	0.000530646	0.000311274
 128	-0.000811976	0.000393627	0.000486413
 129	-0.00128299	0.00096766	0.00113777
 130	-0.000882634	-0.000687669	0.00077599
 131	-0.00032149	0.000532888	-0.000293551
 132	-0.000754139	-0.00119924	0.00027609
 133	-0.000296279	-0.00045227	-0.000417663
 134	-0.000737745	-0.000306549	-0.000537888
 135	-0.000442166	-0.000576431	-0.00035601
 136	6.40529e-06	-0.000204284	-0.000488087
 137	-0.00073526	-0.00046906	-0.000983922
 138	-0.000432731	-0.000584855	-0.000223082
 139	-0.00109974	-0.000595694	-0.000404366
 140	-0.000857857	0.000193318	-0.000157216
 141	-0.00160324	-0.000734558	0.000761683
 142	-0.000796057	0.00149122	0.000984581
 143	-0.000245193	0.000721681	-0.00125771
 144	-0.00115475	0.000731748	-0.00118905
 145	0.00154372	-0.00169654	0.000360724
 146	-7.26634e-05	-0.00109641	6.69518e-05
 147	0.00321097	-0.00173478	-0.00080606
 148	0.00193225	-0.00292624	0.00179061
 149	-0.000472339	-0.000697909	-0.000176507
 150	-0.000639708	-0.00185646	-5.23208e-05
 151	-0.000897614	-0.000834112	-0.000896368
 152	-0.00138306	0.00128766	-0.00158771
 153	-0.00166087	0.00226257	-0.000219772
 154	-0.00155059	0.00194191	-0.00240754
 155	-0.00138811	0.00127798	-0.00260455
 156	-0.00065051	-0.00184438	-0.0011285
 157	0.000951077	0.000727113	0.000499586
 158	0.000859295	-0.000737424	-0.000240803
 159	0.000807093	0.000218743	0.000825391
 160	0.00105867	0.00103129	0.00113686
 161	0.000469002	-0.00120321	-0.0011843
 162	0.000686439	-0.000847242	-0.000838666
 163	0.00124354	-0.000303441	-0.000339264
 164	0.000648978	-0.00113642	-0.00183616
 165	0.000808469	-0.000903114	-0.000717299
 166	0.00117292	-0.000298457	-0.00344585
 167	-0.000507148	-0.00258403	-0.00228059
 168	0.00256808	0.00178083	0.00287882
 169	0.00241131	0.00207512	0.000508168
 170	0.00159592	0.00141186	-0.0001687
 171	0.00366314	-0.000105997	0.00189456
 172	0.00417007	0.00402308	0.000877688
 173	0.00183833	0.000726924	-0.00138331
 174	0.00152298	0.00137833	-0.000451632
 175	0.00239803	0.000448971	-0.000464447
 176	0.0026619	0.000584476	-0.00165276
 177	0.00251583	0.000645002	-0.00169491
 178	0.00232264	0.000881452	-0.00214353
 179	0.00391275	0.000920914	-0.00190949
 180	0.00241051	-6.02758e-05	0.00116407
 181	-0.00187935	0.000214576	0.000350581
 182	-5.41205e-05	0.00193607	0.00018789
 183	-0.00162107	-0.00057052	0.0023381
 184	-0.00347222	-0.000528947	-0.000305437
 185	0.000129114	0.00161382	0.00036711
 186	-0.00115845	0.00373463	-0.000372183
 187	0.000481949	0.000673329	0.000361894
 188	-0.000907962	7.70874e-05	0.000347294
 189	-0.00134828	0.000527369	0.00156049
 190	-0.00241071	-0.00040884	0.000802566
 191	-0.000768012	-0.000761647	-0.000971295
 192	0.00119937	0.000121512	-1.79567e-06
 193	-0.00115527	0.000402545	-0.000266337
 194	-0.00171874	0.000645324	-0.000135018
 195	-0.00104018	0.000578321	-0.000347376
 196	-0.000897209	0.000536031	-0.000300311
 197	-0.0013627	0.00134536	0.000495861
 198	-0.00172802	0.000462163	-5.33971e-05
 199	-0.00101607	0.00179264	-0.000184301
 200	-5.14378e-05	0.00272779	0.00050135
 201	0.000544437	0.00235675	0.000895847
 202	-0.000315981	0.00342817	0.00100467
 203	-0.000749246	0.0027371	0.000242832
 204	-0.000114979	0.00253435	-0.00105392
 205	4.78617e-05	-0.00061343	0.000714383
 206	-0.00060202	-0.000489311	0.000408639
 207	0.000371008	-0.00101731	0.00152024
 208	-7.36024e-05	-0.00159856	0.000365948
 209	-0.000371585	-0.000492065	0.00113919
 210	-0.00140208	-0.000798411	0.000764869
 211	0.000486229	-0.000255601	0.00119273
 212	-0.00106327	-0.000370461	0.0026807
 213	-0.00293819	-0.000845259	0.00114023
 214	-0.00189284	-0.000725424	0.00510774
 215	0.000749223	-0.000191417	0.00278902
 216	0.00207511	0.000434178	-0.000625869
 217	0.000160516	-0.000929007	-0.000211688
 218	4.52311e-06	-0.00055627	0.000228382
 219	0.000498199	-0.00104327	-0.000325959
 220	0.000411378	-0.00126421	-0.000100183
 221	0.000180113	-0.000211979	0.000282098
 222	-0.000475716	-0.000555667	1.60854e-06
 223	-0.000163892	-0.000461374	5.62121e-05
 224	-0.00019646	-0.000810647	-0.000643131
 225	0.000944848	-0.000793515	-0.00219482
 226	-0.00148964	-0.00205972	-0.000676816
 227	-5.96307e-05	-0.000142283	0.000560614
 228	-0.000260518	-0.00105512	-0.000136823
 229	-0.000896335	-0.000300432	0.000849868
 230	0.000206422	-0.000874563	-0.000489374

Bonds

   1	7	1	2
   2	1	1	3
   3	1	1	4
   4	4	2	5
   5	3	2	6
   6	6	5	7
   7	5	7	8
   8	2	7	12
   9	1	8	9
  10	1	8	10
  11	1	8	11
  12	7	13	14
  13	1	13	15
  14	1	13	16
  15	4	14	17
  16	3	14	18
  17	6	17	19
  18	5	19	20
  19	2	19	24
  20	1	20	21
  21	1	20	22
  22	1	20	23
  23	7	1	14
  24	7	25	26
  25	1	25	27
  26	1	25	28
  27	4	26	29
  28	3	26	30
  29	6	29	31
  30	5	31	32
  31	2	31	36
  32	1	32	33
  33	1	32	34
  34	1	32	35
  35	7	13	26
  36	7	37	38
  37	1	37	39
  38	1	37	40
  39	4	38	41
  40	3	38	42
  41	6	41	43
  42	5	43	44
  43	2	43	48
  44	1	44	45
  45	1	44	46
  46	1	44	47
  47	7	25	38
  48	7	49	50
  49	1	49	51
  50	1	49	52
  51	4	50	53
  52	3	50	54
  53	6	53	55
  54	5	55	56
  55	2	55	60
  56	1	56	57
  57	1	56	58
  58	1	56	59
  59	7	37	50
  60	7	61	62
  61	1	61	63
  62	1	61	64
  63	4	62	65
  64	3	62	66
  65	6	65	67
  66	5	67	68
  67	2	67	72
  68	1	68	69
  69	1	68	70
  70	1	68	71
  71	7	49	62
  72	7	73	74
  73	1	73	75
  74	1	73	76
  75	4	74	77
  76	3	74	78
  77	6	77	79
  78	5	79	80
  79	2	79	84
  80	1	80	81
  81	1	80	82
  82	1	80	83
  83	7	61	74
  84	7	85	86
  85	1	85	87
  86	1	85	88
  87	4	86	89
  88	3	86	90
  89	6	89	91
  90	5	91	92
  91	2	91	96
  92	1	92	93
  93	1	92	94
  94	1	92	95
  95	7	73	86
  96	7	97	98
  97	1	97	99
  98	1	97	100
  99	4	98	101
 100	3	98	102
 101	6	101	103
 102	5	103	104
 103	2	103	108
 104	1	104	105
 105	1	104	106
 106	1	104	107
 107	7	85	98
 108	7	109	110
 109	1	109	111
 110	1	109	112
 111	4	110	113
 112	3	110	114
 113	6	113	115
 114	5	115	116
 115	2	115	120
 116	1	116	117
 117	1	116	118
 118	1	116	119
 119	7	97	110
 120	7	121	122
 121	1	121	123
 122	1	121	124
 123	4	122	125
 124	3	122	126
 125	6	125	127
 126	5	127	128
 127	2	127	132
 128	1	128	129
 129	1	128	130
 130	1	128	131
 131	7	109	122
 132	7	133	134
 133	1	133	135
 134	1	133	136
 135	4	134	137
 136	3	134	138
 137	6	137	139
 138	5	139	140
 139	2	139	144
 140	1	140	141
 141	1	140	142
 142	1	140	143
 143	7	121	134
 144	7	145	146
 145	1	145	147
 146	1	145	148
 147	4	146	149
 148	3	146	150
 149	6	149	151
 150	5	151	152
 151	2	151	156
 152	1	152	153
 153	1	152	154
 154	1	152	155
 155	7	133	146
 156	7	157	158
 157	1	157	159
 158	1	157	160
 159	4	158	161
 160	3	158	162
 161	6	161	163
 162	5	163	164
 163	2	163	168
 164	1	164	165
 165	1	164	166
 166	1	164	167
 167	7	145	158
 168	7	169	170
 169	1	169	171
 170	1	169	172
 171	4	170	173
 172	3	170	174
 173	6	173	175
 174	5	175	176
 175	2	175	180
 176	1	176	177
 177	1	176	178
 178	1	176	179
 179	7	157	170
 180	7	181	182
 181	1	181	183
 182	1	181	184
 183	4	182	185
 184	3	182	186
 185	6	185	187
 186	5	187	188
 187	2	187	192
 188	1	188	189
 189	1	188	190
 190	1	188	191
 191	7	169	182
 192	7	193	194
 193	1	193	195
 194	1	193	196
 195	4	194	197
 196	3	194	198
 197	6	197	199
 198	5	199	200
 199	2	199	204
 200	1	200	201
 201	1	200	202
 202	1	200	203
 203	7	181	194
 204	7	205	206
 205	1	205	207
 206	1	205	208
 207	4	206	209
 208	3	206	210
 209	6	209	211
 210	5	211	212
 211	2	211	216
 212	1	212	213
 213	1	212	214
 214	1	212	215
 215	7	193	206
 216	7	217	218
 217	1	217	219
 218	1	217	220
 219	4	218	221
 220	3	218	222
 221	6	221	223
 222	5	223	224
 223	2	223	228
 224	1	224	225
 225	1	224	226
 226	1	224	227
 227	7	205	218
 228	3	2	229
 229	1	217	230

Angles

   1	5	2	1	3
   2	5	2	1	4
   3	10	3	1	4
   4	4	1	2	5
   5	6	1	2	6
   6	8	5	2	6
   7	7	2	5	7
   8	9	5	7	8
   9	3	5	7	12
  10	1	8	7	12
  11	2	7	8	9
  12	2	7	8	10
  13	2	7	8	11
  14	10	9	8	10
  15	10	9	8	11
  16	10	10	8	11
  17	5	14	13	15
  18	5	14	13	16
  19	10	15	13	16
  20	4	13	14	17
  21	6	13	14	18
  22	8	17	14	18
  23	7	14	17	19
  24	9	17	19	20
  25	3	17	19	24
  26	1	20	19	24
  27	2	19	20	21
  28	2	19	20	22
  29	2	19	20	23
  30	10	21	20	22
  31	10	21	20	23
  32	10	22	20	23
  33	12	2	1	14
  34	5	3	1	14
  35	5	4	1	14
  36	12	1	14	13
  37	4	1	14	17
  38	6	1	14	18
  39	5	26	25	27
  40	5	26	25	28
  41	10	27	25	28
  42	4	25	26	29
  43	6	25	26	30
  44	8	29	26	30
  45	7	26	29	31
  46	9	29	31	32
  47	3	29	31	36
  48	1	32	31	36
  49	2	31	32	33
  50	2	31	32	34
  51	2	31	32	35
  52	10	33	32	34
  53	10	33	32	35
  54	10	34	32	35
  55	12	14	13	26
  56	5	15	13	26
  57	5	16	13	26
  58	12	13	26	25
  59	4	13	26	29
  60	6	13	26	30
  61	5	38	37	39
  62	5	38	37	40
  63	10	39	37	40
  64	4	37	38	41
  65	6	37	38	42
  66	8	41	38	42
  67	7	38	41	43
  68	9	41	43	44
  69	3	41	43	48
  70	1	44	43	48
  71	2	43	44	45
  72	2	43	44	46
  73	2	43	44	47
  74	10	45	44	46
  75	10	45	44	47
  76	10	46	44	47
  77	12	26	25	38
  78	5	27	25	38
  79	5	28	25	38
  80	12	25	38	37
  81	4	25	38	41
  82	6	25	38	42
  83	5	50	49	51
  84	5	50	49	52
  85	10	51	49	52
  86	4	49	50	53
  87	6	49	50	54
  88	8	53	50	54
  89	7	50	53	55
  90	9	53	55	56
  91	3	53	55	60
  92	1	56	55	60
  93	2	55	56	57
  94	2	55	56	58
  95	2	55	56	59
  96	10	57	56	58
  97	10	57	56	59
  98	10	58	56	59
  99	12	38	37	50
 100	5	39	37	50
 101	5	40	37	50
 102	12	37	50	49
 103	4	37	50	53
 104	6	37	50	54
 105	5	62	61	63
 106	5	62	61	64
 107	10	63	61	64
 108	4	61	62	65
 109	6	61	62	66
 110	8	65	62	66
 111	7	62	65	67
 112	9	65	67	68
 113	3	65	67	72
 114	1	68	67	72
 115	2	67	68	69
 116	2	67	68	70
 117	2	67	68	71
 118	10	69	68	70
 119	10	69	68	71
 120	10	70	68	71
 121	12	50	49	62
 122	5	51	49	62
 123	5	52	49	62
 124	12	49	62	61
 125	4	49	62	65
 126	6	49	62	66
 127	5	74	73	75
 128	5	74	73	76
 129	10	75	73	76
 130	4	73	74	77
 131	6	73	74	78
 132	8	77	74	78
 133	7	74	77	79
 134	9	77	79	80
 135	3	77	79	84
 136	1	80	79	84
 137	2	79	80	81
 138	2	79	80	82
 139	2	79	80	83
 140	10	81	80	82
 141	10	81	80	83
 142	10	82	80	83
 143	12	62	61	74
 144	5	63	61	74
 145	5	64	61	74
 146	12	61	74	73
 147	4	61	74	77
 148	6	61	74	78
 149	5	86	85	87
 150	5	86	85	88
 151	10	87	85	88
 152	4	85	86	89
 153	6	85	86	90
 154	8	89	86	90
 155	7	86	89	91
 156	9	89	91	92
 157	3	89	91	96
 158	1	92	91	96
 159	2	91	92	93
 160	2	91	92	94
 161	2	91	92	95
 162	10	93	92	94
 163	10	93	92	95
 164	10	94	92	95
 165	12	74	73	86
 166	5	75	73	86
 167	5	76	73	86
 168	12	73	86	85
 169	4	73	86	89
 170	6	73	86	90
 171	5	98	97	99
 172	5	98	97	100
 173	10	99	97	100
 174	4	97	98	101
 175	6	97	98	102
 176	8	101	98	102
 177	7	98	101	103
 178	9	101	103	104
 179	3	101	103	108
 180	1	104	103	108
 181	2	103	104	105
 182	2	103	104	106
 183	2	103	104	107
 184	10	105	104	106
 185	10	105	104	107
 186	10	106	104	107
 187	12	86	85	98
 188	5	87	85	98
 189	5	88	85	98
 190	12	85	98	97
 191	4	85	98	101
 192	6	85	98	102
 193	5	110	109	111
 194	5	110	109	112
 195	10	111	109	112
 196	4	109	110	113
 197	6	109	110	114
 198	8	113	110	114
 199	7	110	113	115
 200	9	113	115	116
 201	3	113	115	120
 202	1	116	115	120
 203	2	115	116	117
 204	2	115	116	118
 205	2	115	116	119
 206	10	117	116	118
 207	10	117	116	119
 208	10	118	116	119
 209	12	98	97	110
 210	5	99	97	110
 211	5	100	97	110
 212	12	97	110	109
 213	4	97	110	113
 214	6	97	110	114
 215	5	122	121	123
 216	5	122	121	124
 217	10	123	121	124
 218	4	121	122	125
 219	6	121	122	126
 220	8	125	122	126
 221	7	122	125	127
 222	9	125	127	128
 223	3	125	127	132
 224	1	128	127	132
 225	2	127	128	129
 226	2	127	128	130
 227	2	127	128	131
 228	10	129	128	130
 229	10	129	128	131
 230	10	130	128	131
 231	12	110	109	122
 232	5	111	109	122
 233	5	112	109	122
 234	12	109	122	121
 235	4	109	122	125
 236	6	109	122	126
 237	5	134	133	135
 238	5	134	133	136
 239	10	135	133	136
 240	4	133	134	137
 241	6	133	134	138
 242	8	137	134	138
 243	7	134	137	139
 244	9	137	139	140
 245	3	137	139	144
 246	1	140	139	144
 247	2	139	140	141
 248	2	139	140	142
 249	2	139	140	143
 250	10	141	140	142
 251	10	141	140	143
 252	10	142	140	143
 253	12	122	121	134
 254	5	123	121	134
 255	5	124	121	134
 256	12	121	134	133
 257	4	121	134	137
 258	6	121	134	138
 259	5	146	145	147
 260	5	146	145	148
 261	10	147	145	148
 262	4	145	146	149
 263	6	145	146	150
 264	8	149	146	150
 265	7	146	149	151
 266	9	149	151	152
 267	3	149	151	156
 268	1	152	151	156
 269	2	151	152	153
 270	2	151	152	154
 271	2	151	152	155
 272	10	153	152	154
 273	10	153	152	155
 274	10	154	152	155
 275	12	134	133	146
 276	5	135	133	146
 277	5	136	133	146
 278	12	133	146	145
 279	4	133	146	149
 280	6	133	146	150
 281	5	158	157	159
 282	5	158	157	160
 283	10	159	157	160
 284	4	157	158	161
 285	6	157	158	162
 286	8	161	158	162
 287	7	158	161	163
 288	9	161	163	164
 289	3	161	163	168
 290	1	164	163	168
 291	2	163	164	165
 292	2	163	164	166
 293	2	163	164	167
 294	10	165	164	166
 295	10	165	164	167
 296	10	166	164	167
 297	12	146	145	158
 298	5	147	145	158
 299	5	148	145	158
 300	12	145	158	157
 301	4	145	158	161
 302	6	145	158	162
 303	5	170	169	171
 304	5	170	169	172
 305	10	171	169	172
 306	4	169	170	173
 307	6	169	170	174
 308	8	173	170	174
 309	7	170	173	175
 310	9	173	175	176
 311	3	173	175	180
 312	1	176	175	180
 313	2	175	176	177
 314	2	175	176	178
 315	2	175	176	179
 316	10	177	176	178
 317	10	177	176	179
 318	10	178	176	179
 319	12	158	157	170
 320	5	159	157	170