pySIMM System Object

590 atoms
589 bonds
1078 angles
1412 dihedrals
49 impropers

6 atom types
7 bond types
12 angle types
10 dihedral types
1 improper types

-119.722504 119.722504 xlo xhi
-119.722504 119.722504 ylo yhi
-119.722504 119.722504 zlo zhi

Masses

   1	12.01	# c3
   2	1.008	# hc
   3	16.0	# os
   4	1.008	# h1
   5	12.01	# c
   6	16.0	# o

Pair Coeffs

   1	0.1094	3.3996695084235347	# c3
   2	0.0157	2.649532787749369	# hc
   3	0.17	3.0000123434657784	# os
   4	0.0157	2.471353044121301	# h1
   5	0.086	3.3996695084235347	# c
   6	0.21	2.959921901149463	# o

Bond Coeffs

   1	330.6	1.0969	# c3,hc
   2	637.7	1.2183	# c,o
   3	330.6	1.0969	# c3,h1
   4	308.6	1.4316	# c3,os
   5	313.0	1.5241	# c,c3
   6	390.8	1.3584	# c,os
   7	300.9	1.5375	# c3,c3

Angle Coeffs

   1	67.4	123.2	# c3,c,o
   2	46.93	108.77	# c,c3,hc
   3	75.32	123.25	# o,c,os
   4	68.0	107.97	# c3,c3,os
   5	46.34	109.8	# c3,c3,hc
   6	46.39	109.56	# c3,c3,h1
   7	63.28	115.98	# c,os,c3
   8	50.8	109.78	# h1,c3,os
   9	68.89	110.72	# c3,c,os
  10	39.4	107.58	# hc,c3,hc
  11	39.24	108.46	# h1,c3,h1
  12	62.86	111.51	# c3,c3,c3

Dihedral Coeffs

   1	2	0.383	3	0	0.8	1	180	# c3,c3,os,c
   2	2	0.0	3	0	0.25	1	0	# hc,c3,c3,os
   3	1	0.3833333333333333	3	0	# X,c3,os,X
   4	1	0.0	2	180	# X,c,c3,X
   5	3	0.8	1	0	0.0	2	0	0.08	3	180	# hc,c3,c,o
   6	3	2.7	2	180	0.0	1	0	1.15	3	0	# c3,c,os,c3
   7	1	0.15555555555555556	3	0	# X,c3,c3,X
   8	2	2.7	2	180	1.4	1	180	# o,c,os,c3
   9	1	0.16	3	0	# hc,c3,c3,c3
  10	3	0.18	3	0	0.25	2	180	0.2	1	180	# c3,c3,c3,c3

Improper Coeffs

   1	10.5	-1	2	# c,X,X,o

Atoms

   1	1	1	-0.003445	-1.08362	6.42262	-18.2353
   2	1	1	0.299845	0.180512	6.72817	-17.3888
   3	1	2	0.023286	-1.60337	5.54617	-17.8311
   4	1	2	-0.011958	-1.78595	7.25614	-18.106
   5	1	3	-0.518063	0.958755	5.5423	-17.144
   6	1	4	0.011666	-0.119639	7.17582	-16.4323
   7	1	5	0.843192	0.553957	4.6756	-16.1782
   8	1	1	-0.399874	1.48755	3.49156	-16.0825
   9	1	2	0.119224	2.14305	3.63375	-15.2179
  10	1	2	0.109051	2.10334	3.42241	-16.9843
  11	1	2	0.118031	0.901537	2.57569	-15.9658
  12	1	6	-0.590955	-0.464148	4.7795	-15.5203
  13	1	1	-0.003445	-0.379917	7.55326	-20.4509
  14	1	1	0.299845	-0.835361	6.23944	-19.7621
  15	1	2	0.023286	-1.0503	8.36109	-20.1312
  16	1	2	-0.011958	0.620155	7.81854	-20.0903
  17	1	3	-0.518063	0.172297	5.24149	-19.9982
  18	1	4	0.011666	-1.77911	5.92879	-20.2297
  19	1	5	0.843192	-0.10987	3.93615	-19.7611
  20	1	1	-0.399874	1.05546	3.06063	-20.1392
  21	1	2	0.119224	0.767886	2.01056	-20.0371
  22	1	2	0.109051	1.89182	3.28909	-19.4748
  23	1	2	0.118031	1.35174	3.27023	-21.1715
  24	1	6	-0.590955	-1.18067	3.49908	-19.39
  25	1	1	-0.003445	0.674092	6.57858	-22.6421
  26	1	1	0.299845	-0.396049	7.51054	-22.008
  27	1	2	0.023286	1.62802	6.71752	-22.1222
  28	1	2	-0.011958	0.386371	5.53278	-22.4797
  29	1	3	-0.518063	-0.293191	8.86022	-22.528
  30	1	4	0.011666	-1.37896	7.13108	-22.3152
  31	1	5	0.843192	0.837057	9.60888	-22.3773
  32	1	1	-0.399874	0.67637	10.9608	-23.0248
  33	1	2	0.119224	-0.137599	11.5053	-22.5387
  34	1	2	0.109051	0.445257	10.8228	-24.0861
  35	1	2	0.118031	1.61397	11.518	-22.9298
  36	1	6	-0.590955	1.82846	9.26907	-21.7641
  37	1	1	-0.003445	2.05533	5.9421	-24.7006
  38	1	1	0.299845	0.871726	6.7867	-24.1624
  39	1	2	0.023286	2.00462	4.94612	-24.2461
  40	1	2	-0.011958	1.95437	5.7729	-25.7805
  41	1	3	-0.518063	-0.346902	6.41527	-24.8343
  42	1	4	0.011666	1.06557	7.84371	-24.351
  43	1	5	0.843192	-0.5459	6.89998	-26.0904
  44	1	1	-0.399874	-1.88579	6.46822	-26.6323
  45	1	2	0.119224	-2.02788	6.89969	-27.6286
  46	1	2	0.109051	-2.67603	6.81971	-25.9618
  47	1	2	0.118031	-1.91723	5.37666	-26.6918
  48	1	6	-0.590955	0.231757	7.59887	-26.7108
  49	1	1	-0.003445	4.56406	5.57847	-24.1552
  50	1	1	0.299845	3.43352	6.60497	-24.4189
  51	1	2	0.023286	5.5313	6.09483	-24.1885
  52	1	2	-0.011958	4.58512	4.84502	-24.9722
  53	1	3	-0.518063	3.82702	7.34456	-25.5897
  54	1	4	0.011666	3.37036	7.27471	-23.5524
  55	1	5	0.843192	3.42013	8.63254	-25.7405
  56	1	1	-0.399874	3.89685	9.19046	-27.0571
  57	1	2	0.119224	4.96347	8.97761	-27.1751
  58	1	2	0.109051	3.72738	10.2715	-27.0779
  59	1	2	0.118031	3.33631	8.71099	-27.8653
  60	1	6	-0.590955	2.85167	9.29803	-24.8975
  61	1	1	-0.003445	5.64914	3.92965	-22.4741
  62	1	1	0.299845	4.42238	4.82265	-22.8052
  63	1	2	0.023286	5.74647	3.19539	-23.2836
  64	1	2	-0.011958	6.58129	4.50852	-22.4796
  65	1	3	-0.518063	4.09819	5.72035	-21.7191
  66	1	4	0.011666	3.56972	4.14039	-22.9077
  67	1	5	0.843192	4.94836	6.71112	-21.3254
  68	1	1	-0.399874	4.38885	7.46256	-20.1435
  69	1	2	0.119224	3.77953	8.29184	-20.5109
  70	1	2	0.109051	5.2121	7.85774	-19.5413
  71	1	2	0.118031	3.76534	6.79863	-19.5366
  72	1	6	-0.590955	6.01855	6.97079	-21.8351
  73	1	1	-0.003445	6.36828	1.90637	-21.0581
  74	1	1	0.299845	5.48506	3.18045	-21.1286
  75	1	2	0.023286	6.28187	1.34845	-21.9986
  76	1	2	-0.011958	7.41742	2.22629	-21.0063
  77	1	3	-0.518063	5.90947	4.06899	-20.0768
  78	1	4	0.011666	4.42799	2.92061	-21.04
  79	1	5	0.843192	5.2894	4.04328	-18.8713
  80	1	1	-0.399874	5.98185	4.94216	-17.8804
  81	1	2	0.119224	6.90906	4.45492	-17.56
  82	1	2	0.109051	5.33178	5.11011	-17.0161
  83	1	2	0.118031	6.22882	5.89511	-18.356
  84	1	6	-0.590955	4.27858	3.41423	-18.6219
  85	1	1	-0.003445	4.93345	-0.086353	-20.1822
  86	1	1	0.299845	6.0494	0.942871	-19.8747
  87	1	2	0.023286	4.99752	-0.377843	-21.2371
  88	1	2	-0.011958	5.1174	-1.00796	-19.6172
  89	1	3	-0.518063	7.23574	0.195673	-19.5633
  90	1	4	0.011666	5.761	1.50109	-18.9809
  91	1	5	0.843192	8.15992	0.786654	-18.7613
  92	1	1	-0.399874	9.31991	-0.141174	-18.504
  93	1	2	0.119224	8.9665	-0.986522	-17.9055
  94	1	2	0.109051	10.105	0.39659	-17.9631
  95	1	2	0.118031	9.7077	-0.508586	-19.4584
  96	1	6	-0.590955	8.08824	1.91721	-18.3167
  97	1	1	-0.003445	3.16078	0.38368	-18.3346
  98	1	1	0.299845	3.512	0.440322	-19.8425
  99	1	2	0.023286	2.27476	1.00458	-18.153
 100	1	2	-0.011958	3.96704	0.868423	-17.7726
 101	1	3	-0.518063	2.53887	-0.298708	-20.6052
 102	1	4	0.011666	3.43867	1.48995	-20.1267
 103	1	5	0.843192	2.40809	0.00474908	-21.925
 104	1	1	-0.399874	1.39575	-0.894169	-22.5894
 105	1	2	0.119224	0.415665	-0.738848	-22.1288
 106	1	2	0.109051	1.69568	-1.93881	-22.4576
 107	1	2	0.118031	1.34501	-0.658916	-23.6575
 108	1	6	-0.590955	2.9968	0.903914	-22.4973
 109	1	1	-0.003445	1.41007	-1.42925	-17.8525
 110	1	1	0.299845	2.90633	-1.04245	-17.7799
 111	1	2	0.023286	0.897299	-0.935497	-17.0259
 112	1	2	-0.011958	0.955087	-1.02063	-18.7624
 113	1	3	-0.518063	3.26683	-1.0552	-16.383
 114	1	4	0.011666	3.49786	-1.78238	-18.3336
 115	1	5	0.843192	4.58085	-1.11132	-16.0446
 116	1	1	-0.399874	4.75383	-1.09623	-14.5461
 117	1	2	0.119224	5.81022	-0.944025	-14.3039
 118	1	2	0.109051	4.41238	-2.05143	-14.1347
 119	1	2	0.118031	4.15582	-0.287405	-14.1163
 120	1	6	-0.590955	5.50596	-1.13649	-16.833
 121	1	1	-0.003445	-0.334444	-3.33654	-17.6554
 122	1	1	0.299845	1.16175	-2.95948	-17.8499
 123	1	2	0.023286	-0.500297	-4.29804	-18.158
 124	1	2	-0.011958	-0.964622	-2.61324	-18.1899
 125	1	3	-0.518063	1.9739	-3.58295	-16.84
 126	1	4	0.011666	1.4809	-3.31778	-18.8378
 127	1	5	0.843192	2.25798	-4.90616	-16.9381
 128	1	1	-0.399874	3.10815	-5.35623	-15.7771
 129	1	2	0.119224	3.9086	-4.62873	-15.6091
 130	1	2	0.109051	3.54058	-6.33734	-15.9975
 131	1	2	0.118031	2.48635	-5.4157	-14.8787
 132	1	6	-0.590955	1.89741	-5.63147	-17.8425
 133	1	1	-0.003445	-0.883089	-2.1544	-15.3746
 134	1	1	0.299845	-0.829531	-3.47905	-16.1872
 135	1	2	0.023286	-0.957932	-1.30492	-16.0598
 136	1	2	-0.011958	-1.8059	-2.11949	-14.7806
 137	1	3	-0.518063	-2.16758	-4.00242	-16.2676
 138	1	4	0.011666	-0.189888	-4.2095	-15.6753
 139	1	5	0.843192	-2.65409	-4.70521	-15.2097
 140	1	1	-0.399874	-4.09361	-5.09197	-15.441
 141	1	2	0.119224	-4.18631	-5.57863	-16.4163
 142	1	2	0.109051	-4.71359	-4.19032	-15.4241
 143	1	2	0.118031	-4.41575	-5.77781	-14.651
 144	1	6	-0.590955	-2.01623	-5.05178	-14.2352
 145	1	1	-0.003445	0.553462	-0.58025	-13.8378
 146	1	1	0.299845	0.325236	-2.00279	-14.4142
 147	1	2	0.023286	1.17408	-0.683468	-12.946
 148	1	2	-0.011958	1.14564	0.00761243	-14.5516
 149	1	3	-0.518063	0.0963066	-2.91147	-13.3259
 150	1	4	0.011666	1.23778	-2.29249	-14.9428
 151	1	5	0.843192	1.1409	-3.33138	-12.5674
 152	1	1	-0.399874	0.67444	-4.28264	-11.4955
 153	1	2	0.119224	0.116871	-5.10097	-11.9635
 154	1	2	0.109051	0.0133719	-3.74706	-10.807
 155	1	2	0.118031	1.53793	-4.67766	-10.9525
 156	1	6	-0.590955	2.31036	-3.05544	-12.7645
 157	1	1	-0.003445	-0.548356	1.2209	-12.3138
 158	1	1	0.299845	-0.732286	0.196743	-13.469
 159	1	2	0.023286	-1.52417	1.68651	-12.1263
 160	1	2	-0.011958	-0.31904	0.680544	-11.3913
 161	1	3	-0.518063	-1.15298	0.892918	-14.6617
 162	1	4	0.011666	-1.49442	-0.528009	-13.1541
 163	1	5	0.843192	-2.44742	1.29654	-14.769
 164	1	1	-0.399874	-2.68478	2.00347	-16.0803
 165	1	2	0.119224	-3.7524	2.21686	-16.1893
 166	1	2	0.109051	-2.34445	1.37682	-16.9097
 167	1	2	0.118031	-2.12695	2.94295	-16.0895
 168	1	6	-0.590955	-3.33024	1.02843	-13.9798
 169	1	1	-0.003445	1.9609	2.00993	-12.1336
 170	1	1	0.299845	0.498432	2.3454	-12.5634
 171	1	2	0.023286	2.63331	2.79418	-12.5005
 172	1	2	-0.011958	2.30275	1.113	-12.6558
 173	1	3	-0.518063	0.0238968	3.49556	-11.8394
 174	1	4	0.011666	0.487724	2.58024	-13.6336
 175	1	5	0.843192	0.462292	4.73435	-12.1814
 176	1	1	-0.399874	-0.209712	5.77961	-11.3256
 177	1	2	0.119224	0.267341	6.75007	-11.4918
 178	1	2	0.109051	-0.128245	5.4986	-10.2708
 179	1	2	0.118031	-1.2674	5.83404	-11.6018
 180	1	6	-0.590955	1.37293	4.97146	-12.9509
 181	1	1	-0.003445	2.77058	3.09909	-9.93165
 182	1	1	0.299845	2.16246	1.84032	-10.6004
 183	1	2	0.023286	3.75933	3.28741	-10.3697
 184	1	2	-0.011958	2.15691	3.97886	-10.1568
 185	1	3	-0.518063	3.08522	0.76073	-10.3558
 186	1	4	0.011666	1.20149	1.62112	-10.1237
 187	1	5	0.843192	2.62482	-0.515996	-10.3022
 188	1	1	-0.399874	3.73437	-1.48537	-9.98244
 189	1	2	0.119224	4.18796	-1.82673	-10.9179
 190	1	2	0.109051	3.32211	-2.3417	-9.43986
 191	1	2	0.118031	4.49377	-0.990942	-9.36761
 192	1	6	-0.590955	1.45656	-0.84037	-10.3783
 193	1	1	-0.003445	1.53773	3.01122	-7.65942
 194	1	1	0.299845	2.90162	2.95718	-8.39226
 195	1	2	0.023286	0.733764	2.66738	-8.31737
 196	1	2	-0.011958	1.28697	4.05722	-7.43784
 197	1	3	-0.518063	3.66388	4.07774	-7.90209
 198	1	4	0.011666	3.40124	2.00969	-8.15231
 199	1	5	0.843192	5.01898	4.01513	-7.91271
 200	1	1	-0.399874	5.62056	5.29363	-7.38261
 201	1	2	0.119224	5.03497	5.64745	-6.52748
 202	1	2	0.109051	5.60473	6.0519	-8.17124
 203	1	2	0.118031	6.65189	5.10484	-7.06909
 204	1	6	-0.590955	5.67381	3.04602	-8.23817
 205	1	1	-0.003445	2.69827	2.43614	-5.38766
 206	1	1	0.299845	1.49586	2.19788	-6.33694
 207	1	2	0.023286	3.02387	3.47903	-5.44474
 208	1	2	-0.011958	3.55295	1.83233	-5.72162
 209	1	3	-0.518063	1.47263	0.784528	-6.62602
 210	1	4	0.011666	0.577797	2.47882	-5.80439
 211	1	5	0.843192	0.31817	0.214717	-7.06608
 212	1	1	-0.399874	0.455337	-1.28312	-7.19861
 213	1	2	0.119224	-0.216828	-1.76323	-6.48132
 214	1	2	0.109051	1.48501	-1.59316	-6.99321
 215	1	2	0.118031	0.178721	-1.5796	-8.2147
 216	1	6	-0.590955	-0.719369	0.812156	-7.26933
 217	1	1	-0.003445	3.55445	1.8442	-2.99166
 218	1	1	0.299845	2.3332	2.05919	-3.9275
 219	1	2	0.023286	4.16285	1.03008	-3.40508
 220	1	2	-0.011958	4.20859	2.72487	-2.99152
 221	1	3	-0.518063	1.40026	3.023	-3.37349
 222	1	4	0.011666	1.81328	1.09345	-3.96896
 223	1	5	0.843192	1.71918	4.33272	-3.16966
 224	1	1	-0.399874	0.562672	5.09292	-2.5695
 225	1	2	0.119224	-0.331443	4.46263	-2.53979
 226	1	2	0.109051	0.361845	5.982	-3.1753
 227	1	2	0.118031	0.821236	5.39544	-1.55011
 228	1	6	-0.590955	2.79717	4.84469	-3.39526
 229	1	1	-0.003445	3.36065	2.63389	-0.539745
 230	1	1	0.299845	3.10169	1.48624	-1.54489
 231	1	2	0.023286	3.1561	3.5884	-1.02955
 232	1	2	-0.011958	4.42143	2.64768	-0.256203
 233	1	3	-0.518063	3.80222	0.323691	-1.05753
 234	1	4	0.011666	2.02622	1.26659	-1.5576
 235	1	5	0.843192	3.46825	-0.89461	-1.55317
 236	1	1	-0.399874	4.24613	-1.98975	-0.866016
 237	1	2	0.119224	3.96914	-2.01723	0.192519
 238	1	2	0.109051	5.31777	-1.78652	-0.953276
 239	1	2	0.118031	4.01136	-2.95151	-1.3332
 240	1	6	-0.590955	2.62035	-1.09538	-2.40044
 241	1	1	-0.003445	2.81898	3.53545	1.84134
 242	1	1	0.299845	2.46997	2.5144	0.719015
 243	1	2	0.023286	2.28463	3.24909	2.75462
 244	1	2	-0.011958	3.88457	3.4421	2.08902
 245	1	3	-0.518063	1.10813	2.67627	0.270701
 246	1	4	0.011666	2.59857	1.5019	1.12044
 247	1	5	0.843192	0.0833398	2.30958	1.08114
 248	1	1	-0.399874	-1.23349	2.39944	0.351559
 249	1	2	0.119224	-2.01122	1.91144	0.946721
 250	1	2	0.109051	-1.14584	1.90642	-0.621816
 251	1	2	0.118031	-1.48851	3.45278	0.199564
 252	1	6	-0.590955	0.193168	1.90073	2.2209
 253	1	1	-0.003445	2.64495	5.91631	2.78559
 254	1	1	0.299845	2.50579	5.02015	1.52178
 255	1	2	0.023286	3.32881	6.74439	2.56248
 256	1	2	-0.011958	3.13469	5.35706	3.59093
 257	1	3	-0.518063	3.46254	5.47229	0.542808
 258	1	4	0.011666	1.49409	5.09711	1.10929
 259	1	5	0.843192	3.20786	6.61881	-0.138849
 260	1	1	-0.399874	4.33081	6.94662	-1.08962
 261	1	2	0.119224	4.51435	6.08695	-1.7418
 262	1	2	0.109051	5.23728	7.16857	-0.519065
 263	1	2	0.118031	4.04953	7.81236	-1.69726
 264	1	6	-0.590955	2.23273	7.32323	0.0278886
 265	1	1	-0.003445	1.61767	7.59259	4.39598
 266	1	1	0.299845	1.31976	6.52631	3.31289
 267	1	2	0.023286	2.20705	7.14701	5.20416
 268	1	2	-0.011958	2.25985	8.35947	3.94491
 269	1	3	-0.518063	0.511346	5.51118	3.93998
 270	1	4	0.011666	0.78427	7.02047	2.49145
 271	1	5	0.843192	-0.49926	4.93025	3.24372
 272	1	1	-0.399874	-1.3359	4.05579	4.14246
 273	1	2	0.119224	-0.724964	3.2278	4.51502
 274	1	2	0.109051	-2.18497	3.66019	3.57584
 275	1	2	0.118031	-1.69733	4.65356	4.98351
 276	1	6	-0.590955	-0.774157	5.15713	2.08357
 277	1	1	-0.003445	-0.162695	7.57206	6.28255
 278	1	1	0.299845	0.345409	8.25618	4.99257
 279	1	2	0.023286	-0.26934	6.49103	6.13766
 280	1	2	-0.011958	0.589727	7.70851	7.07047
 281	1	3	-0.518063	0.669303	9.59889	5.40056
 282	1	4	0.011666	-0.458821	8.2674	4.24401
 283	1	5	0.843192	0.778904	10.5697	4.46053
 284	1	1	-0.399874	1.12305	11.8864	5.10871
 285	1	2	0.119224	1.17209	12.666	4.34223
 286	1	2	0.109051	2.08989	11.7987	5.61351
 287	1	2	0.118031	0.351945	12.1369	5.84368
 288	1	6	-0.590955	0.613235	10.4165	3.2687
 289	1	1	-0.003445	-1.7632	8.08749	8.26784
 290	1	1	0.299845	-1.52169	8.16555	6.73237
 291	1	2	0.023286	-1.11059	8.84016	8.72348
 292	1	2	-0.011958	-2.7855	8.39639	8.51669
 293	1	3	-0.518063	-2.54306	7.45895	6.00493
 294	1	4	0.011666	-1.55167	9.22718	6.45464
 295	1	5	0.843192	-3.78802	7.99621	5.93601
 296	1	1	-0.399874	-4.71739	7.08844	5.1704
 297	1	2	0.119224	-5.7524	7.33185	5.43007
 298	1	2	0.109051	-4.50825	6.04622	5.42861
 299	1	2	0.118031	-4.55724	7.23761	4.09854
 300	1	6	-0.590955	-4.11722	9.07604	6.38486
 301	1	1	-0.003445	-1.64462	6.68588	10.4504
 302	1	1	0.299845	-1.46767	6.70856	8.90847
 303	1	2	0.023286	-1.66985	5.64804	10.8082
 304	1	2	-0.011958	-2.61378	7.13263	10.7089
 305	1	3	-0.518063	-2.36914	5.73846	8.35025
 306	1	4	0.011666	-0.430054	6.45551	8.6691
 307	1	5	0.843192	-1.89797	4.48595	8.12952
 308	1	1	-0.399874	-2.97892	3.59808	7.57101
 309	1	2	0.119224	-2.52605	2.65915	7.2401
 310	1	2	0.109051	-3.47062	4.09673	6.73055
 311	1	2	0.118031	-3.71507	3.39698	8.35479
 312	1	6	-0.590955	-0.73524	4.15379	8.24332
 313	1	1	-0.003445	0.819161	6.63241	11.1837
 314	1	1	0.299845	-0.508398	7.44213	11.1763
 315	1	2	0.023286	0.897426	6.06904	12.1225
 316	1	2	-0.011958	0.788734	5.87308	10.3991
 317	1	3	-0.518063	-0.93235	7.69603	12.5287
 318	1	4	0.011666	-0.381328	8.39828	10.6603
 319	1	5	0.843192	-0.425323	8.78781	13.1624
 320	1	1	-0.399874	-0.960352	8.91235	14.5661
 321	1	2	0.119224	-1.0734	7.91791	15.0084
 322	1	2	0.109051	-1.93318	9.4117	14.5337
 323	1	2	0.118031	-0.259759	9.5041	15.1641
 324	1	6	-0.590955	0.335132	9.59344	12.6648
 325	1	1	-0.003445	3.38656	6.67958	10.8649
 326	1	1	0.299845	2.08242	7.51065	11.0112
 327	1	2	0.023286	4.21251	7.28016	11.2666
 328	1	2	-0.011958	3.31217	5.80917	11.5267
 329	1	3	-0.518063	1.8739	8.38776	9.88454
 330	1	4	0.011666	2.17609	8.10684	11.9268
 331	1	5	0.843192	2.60057	9.53587	9.82313
 332	1	1	-0.399874	2.13582	10.4038	8.6794
 333	1	2	0.119224	1.08382	10.6623	8.83334
 334	1	2	0.109051	2.24497	9.86045	7.73648
 335	1	2	0.118031	2.73599	11.3193	8.65683
 336	1	6	-0.590955	3.53619	9.81653	10.5434
 337	1	1	-0.003445	2.74151	5.37936	8.65057
 338	1	1	0.299845	3.78244	6.24089	9.4238
 339	1	2	0.023286	2.35261	4.59192	9.30405
 340	1	2	-0.011958	1.8888	6.01626	8.38642
 341	1	3	-0.518063	5.07324	5.58799	9.46481
 342	1	4	0.011666	3.92308	7.16061	8.84215
 343	1	5	0.843192	5.25945	4.3844	10.071
 344	1	1	-0.399874	6.69035	3.93746	9.91402
 345	1	2	0.119224	6.78383	2.89581	10.236
 346	1	2	0.109051	7.33684	4.57679	10.5226
 347	1	2	0.118031	6.98093	4.02587	8.86191
 348	1	6	-0.590955	4.40149	3.71416	10.6105
 349	1	1	-0.003445	2.23293	4.05956	6.46792
 350	1	1	0.299845	3.31031	4.74869	7.35203
 351	1	2	0.023286	2.50288	4.16257	5.4121
 352	1	2	-0.011958	1.28089	4.59192	6.57462
 353	1	3	-0.518063	3.91961	5.81991	6.60041
 354	1	4	0.011666	4.07157	4.01108	7.63494
 355	1	5	0.843192	4.99348	5.53329	5.8202
 356	1	1	-0.399874	5.56121	6.78228	5.18816
 357	1	2	0.119224	6.63804	6.64797	5.04447
 358	1	2	0.109051	5.3866	7.64388	5.84093
 359	1	2	0.118031	5.08148	6.95312	4.22206
 360	1	6	-0.590955	5.47406	4.42904	5.66674
 361	1	1	-0.003445	3.12927	1.64259	6.17096
 362	1	1	0.299845	2.0038	2.54998	6.74714
 363	1	2	0.023286	3.68719	1.17985	6.99616
 364	1	2	-0.011958	3.85963	2.25872	5.63249
 365	1	3	-0.518063	1.96007	2.34774	8.17252
 366	1	4	0.011666	1.0486	2.29251	6.27531
 367	1	5	0.843192	0.953165	1.62553	8.73574
 368	1	1	-0.399874	1.16346	1.48689	10.2234
 369	1	2	0.119224	1.76364	0.591468	10.4111
 370	1	2	0.109051	0.193084	1.38355	10.7192
 371	1	2	0.118031	1.69287	2.36119	10.6145
 372	1	6	-0.590955	0.0351208	1.10233	8.13202
 373	1	1	-0.003445	1.5587	-0.406203	5.79018
 374	1	1	0.299845	2.64567	0.527508	5.20395
 375	1	2	0.023286	1.85788	-0.722984	6.79675
 376	1	2	-0.011958	0.62351	0.155911	5.88488
 377	1	3	-0.518063	3.7993	-0.281572	4.89623
 378	1	4	0.011666	2.23241	0.992578	4.29932
 379	1	5	0.843192	4.52941	0.00783819	3.78811
 380	1	1	-0.399874	5.7546	-0.869079	3.70131
 381	1	2	0.119224	6.5501	-0.417064	4.30109
 382	1	2	0.109051	6.07586	-0.946548	2.65777
 383	1	2	0.118031	5.52579	-1.86485	4.09387
 384	1	6	-0.590955	4.22795	0.817703	2.93435
 385	1	1	-0.003445	0.0222898	-2.43919	5.37344
 386	1	1	0.299845	1.2749	-1.64958	4.91126
 387	1	2	0.023286	-0.845745	-1.78555	5.24034
 388	1	2	-0.011958	-0.13947	-3.29214	4.70232
 389	1	3	-0.518063	1.01702	-1.17618	3.57352
 390	1	4	0.011666	2.15688	-2.3029	4.92506
 391	1	5	0.843192	1.14377	-2.03375	2.52898
 392	1	1	-0.399874	0.715573	-1.38455	1.23511
 393	1	2	0.119224	-0.135326	-0.72418	1.4278
 394	1	2	0.109051	0.422395	-2.15852	0.51838
 395	1	2	0.118031	1.5463	-0.796991	0.836565
 396	1	6	-0.590955	1.55855	-3.17361	2.59739
 397	1	1	-0.003445	-1.21748	-3.74306	7.21998
 398	1	1	0.299845	0.0759317	-2.96103	6.8359
 399	1	2	0.023286	-1.62902	-4.22691	6.32524
 400	1	2	-0.011958	-0.988048	-4.56416	7.90584
 401	1	3	-0.518063	1.2256	-3.82644	6.93131
 402	1	4	0.011666	0.208702	-2.11125	7.51636
 403	1	5	0.843192	1.66061	-4.24349	8.15013
 404	1	1	-0.399874	2.90318	-5.08869	8.02135
 405	1	2	0.119224	3.53678	-4.92348	8.898
 406	1	2	0.109051	3.45097	-4.80979	7.11513
 407	1	2	0.118031	2.61417	-6.14177	7.96236
 408	1	6	-0.590955	1.1606	-3.96441	9.22093
 409	1	1	-0.003445	-1.9932	-2.38534	9.30019
 410	1	1	0.299845	-2.3222	-2.86166	7.85549
 411	1	2	0.023286	-0.915695	-2.24656	9.42817
 412	1	2	-0.011958	-2.43729	-1.39722	9.47153
 413	1	3	-0.518063	-2.526	-1.72934	6.99036
 414	1	4	0.011666	-3.24817	-3.45099	7.87386
 415	1	5	0.843192	-3.63478	-0.959766	7.12528
 416	1	1	-0.399874	-3.62987	0.157275	6.10995
 417	1	2	0.119224	-3.91965	-0.245803	5.1355
 418	1	2	0.109051	-2.62111	0.578183	6.03988
 419	1	2	0.118031	-4.33807	0.931249	6.41997
 420	1	6	-0.590955	-4.53678	-1.15031	7.91708
 421	1	1	-0.003445	-3.01836	-2.6721	11.6706
 422	1	1	0.299845	-2.5467	-3.36106	10.3698
 423	1	2	0.023286	-3.89702	-2.06501	11.4194
 424	1	2	-0.011958	-3.37848	-3.44655	12.3603
 425	1	3	-0.518063	-1.57035	-4.3494	10.7461
 426	1	4	0.011666	-3.44497	-3.84229	9.96453
 427	1	5	0.843192	-1.74525	-5.64103	10.3718
 428	1	1	-0.399874	-0.806659	-6.56416	11.1145
 429	1	2	0.119224	-0.173043	-7.09083	10.3966
 430	1	2	0.109051	-1.4035	-7.28439	11.6844
 431	1	2	0.118031	-0.180846	-5.9916	11.8043
 432	1	6	-0.590955	-2.57752	-6.03575	9.57924
 433	1	1	-0.003445	-2.66177	-1.19106	13.6931
 434	1	1	0.299845	-1.99458	-1.77022	12.411
 435	1	2	0.023286	-3.67285	-0.842611	13.4466
 436	1	2	-0.011958	-2.8127	-2.02358	14.3936
 437	1	3	-0.518063	-0.866824	-2.56903	12.8311
 438	1	4	0.011666	-1.69484	-0.951966	11.7492
 439	1	5	0.843192	0.318368	-2.44544	12.1666
 440	1	1	-0.399874	1.37538	-3.27796	12.8504
 441	1	2	0.119224	0.9878	-4.2831	13.0314
 442	1	2	0.109051	1.64452	-2.80949	13.8018
 443	1	2	0.118031	2.25569	-3.33263	12.2025
 444	1	6	-0.590955	0.590719	-1.55084	11.3922
 445	1	1	-0.003445	-0.387654	0.0517175	14.2327
 446	1	1	0.299845	-1.91892	-0.0518101	14.4607
 447	1	2	0.023286	-0.188262	0.381329	13.2056
 448	1	2	-0.011958	0.06219	-0.935949	14.3409
 449	1	3	-0.518063	-2.57581	1.22472	14.2814
 450	1	4	0.011666	-2.06097	-0.28674	15.5204
 451	1	5	0.843192	-2.7222	1.80957	13.0623
 452	1	1	-0.399874	-3.50622	3.09297	13.1752
 453	1	2	0.119224	-4.53638	2.85801	13.46
 454	1	2	0.109051	-3.49853	3.6111	12.2107
 455	1	2	0.118031	-3.05448	3.7288	13.9424
 456	1	6	-0.590955	-2.33687	1.35498	12.0074
 457	1	1	-0.003445	0.359355	0.532287	16.7091
 458	1	1	0.299845	0.365176	0.974568	15.2124
 459	1	2	0.023286	1.04671	1.18993	17.2557
 460	1	2	-0.011958	-0.629558	0.74847	17.1318
 461	1	3	-0.518063	1.72196	1.00682	14.7385
 462	1	4	0.011666	-0.0771994	1.97649	15.1332
 463	1	5	0.843192	2.49782	2.08367	15.0243
 464	1	1	-0.399874	3.88102	1.92405	14.4451
 465	1	2	0.119224	4.25439	0.92148	14.6782
 466	1	2	0.109051	4.54863	2.67641	14.8763
 467	1	2	0.118031	3.83309	2.04883	13.358
 468	1	6	-0.590955	2.13289	3.06211	15.6474
 469	1	1	-0.003445	-0.498992	-1.87448	17.1768
 470	1	1	0.299845	0.741217	-0.953229	17.0118
 471	1	2	0.023286	-1.27261	-1.36905	17.7686
 472	1	2	-0.011958	-0.919465	-2.02555	16.1782
 473	1	3	-0.518063	1.47925	-0.978166	18.2471
 474	1	4	0.011666	1.35126	-1.35652	16.1933
 475	1	5	0.843192	2.83296	-1.08908	18.2068
 476	1	1	-0.399874	3.41194	-1.02921	19.5986
 477	1	2	0.119224	4.4927	-1.19419	19.5511
 478	1	2	0.109051	2.95096	-1.80189	20.2202
 479	1	2	0.118031	3.20246	-0.0454999	20.028
 480	1	6	-0.590955	3.50465	-1.18111	17.1984
 481	1	1	-0.003445	-1.39373	-4.2474	17.4822
 482	1	1	0.299845	-0.22409	-3.27368	17.7938
 483	1	2	0.023286	-2.16738	-4.13024	18.2529
 484	1	2	-0.011958	-1.8778	-3.96787	16.5378
 485	1	3	-0.518063	-0.21407	-3.14114	19.2322
 486	1	4	0.011666	0.7173	-3.66678	17.3882
 487	1	5	0.843192	0.758537	-3.74519	19.9621
 488	1	1	-0.399874	0.429014	-3.70397	21.4359
 489	1	2	0.119224	1.3073	-4.00628	22.0146
 490	1	2	0.109051	-0.396515	-4.39478	21.636
 491	1	2	0.118031	0.126954	-2.69126	21.7188
 492	1	6	-0.590955	1.78675	-4.22041	19.5212
 493	1	1	-0.003445	-2.23732	-6.65816	17.3965
 494	1	1	0.299845	-0.992949	-5.73688	17.359
 495	1	2	0.023286	-1.94597	-7.6007	17.8514
 496	1	2	-0.011958	-2.9768	-6.24534	18.0956
 497	1	3	-0.518063	-0.153027	-6.14526	18.4515
 498	1	4	0.011666	-0.446737	-5.86316	16.4142
 499	1	5	0.843192	0.589609	-7.27566	18.2813
 500	1	1	-0.399874	1.15598	-7.75138	19.5937
 501	1	2	0.119224	1.60276	-8.74133	19.4549
 502	1	2	0.109051	0.348739	-7.81394	20.33
 503	1	2	0.118031	1.91359	-7.04234	19.9393
 504	1	6	-0.590955	0.597613	-7.95096	17.269
 505	1	1	-0.003445	-2.83086	-8.33193	15.4441
 506	1	1	0.299845	-2.88296	-6.87755	16.0048
 507	1	2	0.023286	-1.80887	-8.50087	15.0821
 508	1	2	-0.011958	-3.48093	-8.37292	14.5623
 509	1	3	-0.518063	-4.24667	-6.42894	16.1036
 510	1	4	0.011666	-2.34618	-6.23473	15.2946
 511	1	5	0.843192	-4.8379	-5.87252	15.0133
 512	1	1	-0.399874	-6.21262	-5.35204	15.3585
 513	1	2	0.119224	-6.96249	-5.95884	14.8431
 514	1	2	0.109051	-6.29129	-4.30987	15.0329
 515	1	2	0.118031	-6.37934	-5.40871	16.4392
 516	1	6	-0.590955	-4.27335	-5.61767	13.9694
 517	1	1	-0.003445	-4.65165	-9.5563	16.9502
 518	1	1	0.299845	-3.19479	-9.49855	16.4209
 519	1	2	0.023286	-4.6574	-10.2526	17.7976
 520	1	2	-0.011958	-4.8769	-8.57778	17.3934
 521	1	3	-0.518063	-2.68667	-10.7916	16.019
 522	1	4	0.011666	-2.62251	-9.3371	17.3332
 523	1	5	0.843192	-2.5744	-11.2324	14.7382
 524	1	1	-0.399874	-1.94563	-12.6044	14.7066
 525	1	2	0.119224	-2.52405	-13.2471	14.0371
 526	1	2	0.109051	-1.93307	-13.0394	15.7119
 527	1	2	0.118031	-0.918169	-12.5147	14.3411
 528	1	6	-0.590955	-3.01162	-10.6872	13.7487
 529	1	1	-0.003445	-5.93906	-11.4675	15.7301
 530	1	1	0.299845	-5.80301	-9.93518	15.9713
 531	1	2	0.023286	-5.04616	-11.8036	15.2005
 532	1	2	-0.011958	-5.88843	-11.9977	16.6879
 533	1	3	-0.518063	-7.02505	-9.36357	16.5098
 534	1	4	0.011666	-5.6123	-9.44989	15.0065
 535	1	5	0.843192	-7.51228	-9.72033	17.7347
 536	1	1	-0.399874	-8.59135	-8.76953	18.1921
 537	1	2	0.119224	-9.08863	-8.31864	17.3286
 538	1	2	0.109051	-8.12983	-7.98238	18.7972
 539	1	2	0.118031	-9.32105	-9.31591	18.7983
 540	1	6	-0.590955	-7.1003	-10.6261	18.4292
 541	1	1	-0.003445	-8.17937	-12.7809	15.7518
 542	1	1	0.299845	-7.19211	-11.9198	14.9103
 543	1	2	0.023286	-7.59003	-13.332	16.4947
 544	1	2	-0.011958	-8.81854	-12.1026	16.3314
 545	1	3	-0.518063	-6.74259	-12.7113	13.7924
 546	1	4	0.011666	-7.74039	-11.0446	14.5382
 547	1	5	0.843192	-6.24256	-12.0755	12.7021
 548	1	1	-0.399874	-5.93717	-13.0646	11.6028
 549	1	2	0.119224	-6.81796	-13.1606	10.9614
 550	1	2	0.109051	-5.69246	-14.0424	12.031
 551	1	2	0.118031	-5.08959	-12.6978	11.0155
 552	1	6	-0.590955	-6.21796	-10.8716	12.5568
 553	1	1	-0.003445	-10.5441	-13.3773	14.7253
 554	1	1	0.299845	-9.07026	-13.8196	14.9823
 555	1	2	0.023286	-10.5559	-12.5797	13.9723
 556	1	2	-0.011958	-10.9471	-12.9251	15.6397
 557	1	3	-0.518063	-9.0261	-15.073	15.7048
 558	1	4	0.011666	-8.63419	-14.0276	14.0008
 559	1	5	0.843192	-9.51052	-15.1794	16.9736
 560	1	1	-0.399874	-9.23524	-16.5531	17.528
 561	1	2	0.119224	-8.22041	-16.8596	17.2557
 562	1	2	0.109051	-9.95888	-17.2589	17.1096
 563	1	2	0.118031	-9.33158	-16.5237	18.6176
 564	1	6	-0.590955	-9.99685	-14.2772	17.6243
 565	1	1	-0.003445	-11.6025	-14.7654	12.7455
 566	1	1	0.299845	-11.4941	-14.5301	14.275
 567	1	2	0.023286	-12.4588	-15.4236	12.5485
 568	1	2	-0.011958	-11.8426	-13.8155	12.2503
 569	1	3	-0.518063	-12.8256	-14.218	14.7318
 570	1	4	0.011666	-11.1626	-15.4632	14.7365
 571	1	5	0.843192	-13.4496	-15.0824	15.5803
 572	1	1	-0.399874	-14.8423	-14.6024	15.9113
 573	1	2	0.119224	-15.1898	-15.1069	16.8184
 574	1	2	0.109051	-15.5131	-14.8349	15.0786
 575	1	2	0.118031	-14.826	-13.5209	16.0751
 576	1	6	-0.590955	-12.9635	-16.089	16.059
 577	1	1	-0.003445	-10.5914	-15.8822	10.6421
 578	1	1	0.299845	-10.3342	-15.3657	12.081
 579	1	2	0.023286	-9.68488	-15.7727	10.0341
 580	1	2	-0.011958	-11.3887	-15.3077	10.1533
 581	1	3	-0.518063	-9.729	-16.403	12.8878
 582	1	4	0.011666	-9.60832	-14.5479	11.9991
 583	1	5	0.843192	-10.4143	-17.516	13.2784
 584	1	1	-0.399874	-9.56346	-18.391	14.1656
 585	1	2	0.119224	-10.2033	-18.8625	14.9186
 586	1	2	0.109051	-8.79906	-17.785	14.6629
 587	1	2	0.118031	-9.08041	-19.1577	13.5541
 588	1	6	-0.590955	-11.5783	-17.7543	13.0312
 589	1	4	0	0.802085	7.46617	-17.9079
 590	1	2	0	-10.8814	-16.9394	10.6237

Velocities

   1	0.000358971	-0.000168021	0.000279762
   2	0.000417723	0.000602009	6.06548e-05
   3	0.00116502	-0.000686592	0.000192599
   4	-0.000626195	-0.000941212	0.000809358
   5	0.00133524	0.00101158	-0.0002585
   6	-6.24544e-05	-0.00013688	0.000330206
   7	0.000582265	0.000247569	-0.00126666
   8	-6.12562e-05	-0.000362621	-0.000768042
   9	-5.49917e-05	-0.000556322	-0.000751153
  10	-0.00032816	-0.00106605	-0.000752068
  11	-0.0007673	9.02999e-05	-0.000192245
  12	-0.00023302	-4.98008e-05	-0.00219427
  13	0.000303026	1.31561e-05	0.000521518
  14	-0.000284092	-2.08778e-05	0.000241472
  15	0.00063935	0.000128025	0.000789759
  16	0.000338615	-0.00089369	0.000683151
  17	-0.000848344	-0.000170044	-0.000300858
  18	-0.000821401	0.000225907	0.000419601
  19	-0.000385102	-0.000142942	-2.72404e-05
  20	-2.0849e-05	0.000288681	2.33778e-05
  21	0.000395375	6.14543e-05	0.000356833
  22	-3.14635e-05	0.000970014	2.1465e-05
  23	-0.0001324	0.000120319	-0.000200103
  24	-0.000120275	-0.000239701	0.000248959
  25	0.000339808	4.05303e-05	0.000470401
  26	0.000251313	-3.62396e-06	0.000502959
  27	0.000386819	7.33568e-05	0.000185539
  28	0.000432207	0.000106803	0.000260546
  29	2.69625e-05	-0.000114157	0.000586883
  30	0.000336385	-0.000123544	0.00040383
  31	-0.000155279	8.90586e-05	0.000762896
  32	-9.02837e-05	-0.000245683	0.000132838
  33	-0.000375977	-0.000104801	-0.000344061
  34	0.000173525	-0.000656175	2.89429e-05
  35	-0.000216195	9.63693e-05	8.84091e-05
  36	-0.000442435	0.000531715	0.00148776
  37	-5.4212e-05	-4.35503e-05	0.00015364
  38	6.17619e-05	0.000161461	0.000390372
  39	-2.10324e-05	9.77365e-05	0.000374151
  40	-0.000315507	-0.00032005	0.000176302
  41	9.35786e-05	0.000254099	0.000518945
  42	0.000154163	0.000104558	0.000272084
  43	0.000109936	-0.000320225	0.000322329
  44	0.000107541	-0.00073726	0.000453324
  45	-3.79008e-05	-0.00101271	0.000284923
  46	7.28657e-05	-0.00076024	0.00051744
  47	0.000443715	-0.000832674	0.000767297
  48	0.000211982	-0.00077292	-7.81457e-05
  49	-4.47803e-05	0.000165162	-3.59679e-05
  50	-1.29514e-05	8.27526e-05	-0.000298583
  51	-0.000108368	0.000309736	0.000125465
  52	0.000174083	0.000153326	-3.77485e-05
  53	-0.000263153	-0.000169174	-0.000541162
  54	1.8483e-05	0.000264346	-0.000400377
  55	1.44704e-05	-6.1591e-05	-0.000372727
  56	-5.44909e-06	-1.42103e-06	-0.000362833
  57	6.94772e-05	0.000234408	-0.00030031
  58	-0.000211278	-3.17286e-05	-0.000404171
  59	0.000189192	-0.000102099	-0.000464353
  60	0.00047672	4.1824e-05	-0.000135555
  61	-0.000251911	0.000188587	8.6332e-05
  62	-0.000213019	0.000194047	-1.04077e-05