pySIMM System Object

554 atoms
553 bonds
1012 angles
1325 dihedrals
46 impropers

6 atom types
7 bond types
12 angle types
10 dihedral types
1 improper types

-117.174439 117.174439 xlo xhi
-117.174439 117.174439 ylo yhi
-117.174439 117.174439 zlo zhi

Masses

   1	12.01	# c3
   2	1.008	# hc
   3	16.0	# os
   4	1.008	# h1
   5	12.01	# c
   6	16.0	# o

Pair Coeffs

   1	0.1094	3.3996695084235347	# c3
   2	0.0157	2.649532787749369	# hc
   3	0.17	3.0000123434657784	# os
   4	0.0157	2.471353044121301	# h1
   5	0.086	3.3996695084235347	# c
   6	0.21	2.959921901149463	# o

Bond Coeffs

   1	330.6	1.0969	# c3,hc
   2	637.7	1.2183	# c,o
   3	330.6	1.0969	# c3,h1
   4	308.6	1.4316	# c3,os
   5	313.0	1.5241	# c,c3
   6	390.8	1.3584	# c,os
   7	300.9	1.5375	# c3,c3

Angle Coeffs

   1	67.4	123.2	# c3,c,o
   2	46.93	108.77	# c,c3,hc
   3	75.32	123.25	# o,c,os
   4	68.0	107.97	# c3,c3,os
   5	46.34	109.8	# c3,c3,hc
   6	46.39	109.56	# c3,c3,h1
   7	63.28	115.98	# c,os,c3
   8	50.8	109.78	# h1,c3,os
   9	68.89	110.72	# c3,c,os
  10	39.4	107.58	# hc,c3,hc
  11	39.24	108.46	# h1,c3,h1
  12	62.86	111.51	# c3,c3,c3

Dihedral Coeffs

   1	2	0.383	3	0	0.8	1	180	# c3,c3,os,c
   2	2	0.0	3	0	0.25	1	0	# hc,c3,c3,os
   3	1	0.3833333333333333	3	0	# X,c3,os,X
   4	1	0.0	2	180	# X,c,c3,X
   5	3	0.8	1	0	0.0	2	0	0.08	3	180	# hc,c3,c,o
   6	3	2.7	2	180	0.0	1	0	1.15	3	0	# c3,c,os,c3
   7	1	0.15555555555555556	3	0	# X,c3,c3,X
   8	2	2.7	2	180	1.4	1	180	# o,c,os,c3
   9	1	0.16	3	0	# hc,c3,c3,c3
  10	3	0.18	3	0	0.25	2	180	0.2	1	180	# c3,c3,c3,c3

Improper Coeffs

   1	10.5	-1	2	# c,X,X,o

Atoms

   1	1	1	-0.003445	-15.4347	0.606945	8.21853
   2	1	1	0.299845	-14.8506	1.26272	9.50008
   3	1	2	0.023286	-14.6889	0.60696	7.41575
   4	1	2	-0.011958	-15.6218	-0.452434	8.43601
   5	1	3	-0.518063	-14.223	2.52732	9.21776
   6	1	4	0.011666	-14.1146	0.583972	9.951
   7	1	5	0.843192	-13.0275	2.52952	8.57276
   8	1	1	-0.399874	-12.5311	3.93428	8.34457
   9	1	2	0.119224	-12.1842	4.34958	9.2956
  10	1	2	0.109051	-13.3461	4.55117	7.96163
  11	1	2	0.118031	-11.7088	3.91221	7.62555
  12	1	6	-0.590955	-12.4494	1.53872	8.17013
  13	1	1	-0.003445	-17.9516	1.02813	8.65367
  14	1	1	0.299845	-16.7551	1.23187	7.691
  15	1	2	0.023286	-18.0729	-0.0494852	8.82346
  16	1	2	-0.011958	-17.7308	1.47915	9.62805
  17	1	3	-0.518063	-16.6004	2.64174	7.47278
  18	1	4	0.011666	-17.0118	0.739477	6.74346
  19	1	5	0.843192	-15.9169	3.08999	6.39305
  20	1	1	-0.399874	-15.9381	4.59727	6.3439
  21	1	2	0.119224	-15.2562	4.94592	5.56303
  22	1	2	0.109051	-15.6311	4.98965	7.31867
  23	1	2	0.118031	-16.9575	4.93215	6.13104
  24	1	6	-0.590955	-15.4285	2.39373	5.52664
  25	1	1	-0.003445	-19.5011	3.11395	8.39093
  26	1	1	0.299845	-19.2844	1.60375	8.0961
  27	1	2	0.023286	-19.4316	3.27933	9.46876
  28	1	2	-0.011958	-18.7028	3.71749	7.94849
  29	1	3	-0.518063	-20.4133	0.844939	8.59236
  30	1	4	0.011666	-19.2676	1.47068	7.00683
  31	1	5	0.843192	-20.7206	0.794829	9.91936
  32	1	1	-0.399874	-22.0034	0.035102	10.1382
  33	1	2	0.119224	-21.9206	-0.96186	9.69738
  34	1	2	0.109051	-22.8214	0.580094	9.65528
  35	1	2	0.118031	-22.2011	-0.0396817	11.2117
  36	1	6	-0.590955	-20.0306	1.22518	10.8226
  37	1	1	-0.003445	-21.0846	5.13159	8.19472
  38	1	1	0.299845	-20.8471	3.63991	7.84142
  39	1	2	0.023286	-20.2424	5.70771	7.79704
  40	1	2	-0.011958	-21.9642	5.50951	7.65852
  41	1	3	-0.518063	-20.7831	3.51147	6.40765
  42	1	4	0.011666	-21.6629	3.02365	8.23186
  43	1	5	0.843192	-21.9446	3.50484	5.70368
  44	1	1	-0.399874	-21.6692	3.38209	4.22534
  45	1	2	0.119224	-22.6177	3.38561	3.6787
  46	1	2	0.109051	-21.1343	2.44689	4.03295
  47	1	2	0.118031	-21.0514	4.22549	3.90336
  48	1	6	-0.590955	-23.0601	3.59139	6.17625
  49	1	1	-0.003445	-20.5957	6.71637	10.1902
  50	1	1	0.299845	-21.2701	5.4035	9.71801
  51	1	2	0.023286	-20.9122	6.94042	11.216
  52	1	2	-0.011958	-20.9531	7.54968	9.57089
  53	1	3	-0.518063	-22.6762	5.53432	9.99171
  54	1	4	0.011666	-20.8602	4.58551	10.3201
  55	1	5	0.843192	-23.4138	4.40982	10.1819
  56	1	1	-0.399874	-24.8688	4.75114	10.3781
  57	1	2	0.119224	-24.9646	5.46112	11.2048
  58	1	2	0.109051	-25.4313	3.8392	10.6017
  59	1	2	0.118031	-25.2522	5.20757	9.46048
  60	1	6	-0.590955	-22.9712	3.27935	10.2487
  61	1	1	-0.003445	-18.3363	7.92888	10.6559
  62	1	1	0.299845	-19.0458	6.65965	10.1133
  63	1	2	0.023286	-18.7987	8.79914	10.1737
  64	1	2	-0.011958	-18.4871	8.0591	11.7344
  65	1	3	-0.518063	-18.5277	5.45083	10.7139
  66	1	4	0.011666	-18.7874	6.61036	9.04974
  67	1	5	0.843192	-18.6658	5.18622	12.043
  68	1	1	-0.399874	-18.0283	3.86391	12.3906
  69	1	2	0.119224	-18.7449	3.06187	12.1888
  70	1	2	0.109051	-17.7603	3.85732	13.4516
  71	1	2	0.118031	-17.1347	3.70845	11.7791
  72	1	6	-0.590955	-19.2643	5.872	12.8459
  73	1	1	-0.003445	-16.1707	9.30763	10.3364
  74	1	1	0.299845	-16.8297	7.90392	10.3065
  75	1	2	0.023286	-16.8724	10.0556	9.94675
  76	1	2	-0.011958	-15.9955	9.58604	11.384
  77	1	3	-0.518063	-16.1567	7.07265	11.2709
  78	1	4	0.011666	-16.7637	7.48371	9.30353
  79	1	5	0.843192	-15.1272	6.28148	10.8774
  80	1	1	-0.399874	-14.4792	5.61553	12.0634
  81	1	2	0.119224	-13.9721	6.38334	12.6575
  82	1	2	0.109051	-13.7532	4.87264	11.7188
  83	1	2	0.118031	-15.2442	5.13537	12.6794
  84	1	6	-0.590955	-14.774	6.11078	9.72553
  85	1	1	-0.003445	-15.0472	9.55632	7.99652
  86	1	1	0.299845	-14.8431	9.40565	9.52815
  87	1	2	0.023286	-15.9986	10.0686	7.81056
  88	1	2	-0.011958	-14.2764	10.2195	7.58443
  89	1	3	-0.518063	-14.1257	10.5693	9.97009
  90	1	4	0.011666	-14.2187	8.52601	9.71038
  91	1	5	0.843192	-13.3279	10.4503	11.0635
  92	1	1	-0.399874	-12.6158	11.7485	11.3505
  93	1	2	0.119224	-12.0321	12.031	10.4685
  94	1	2	0.109051	-11.9502	11.6195	12.2098
  95	1	2	0.118031	-13.3549	12.5263	11.5619
  96	1	6	-0.590955	-13.2106	9.4494	11.7457
  97	1	1	-0.003445	-13.5717	7.64148	7.0307
  98	1	1	0.299845	-14.9992	8.20242	7.23466
  99	1	2	0.023286	-13.6509	6.58397	6.75478
 100	1	2	-0.011958	-13.0588	7.64149	7.99959
 101	1	3	-0.518063	-15.6664	8.33761	5.96611
 102	1	4	0.011666	-15.5289	7.44174	7.8055
 103	1	5	0.843192	-17.027	8.33367	5.96244
 104	1	1	-0.399874	-17.5636	8.4922	4.56237
 105	1	2	0.119224	-17.2319	7.64838	3.95024
 106	1	2	0.109051	-17.1838	9.42369	4.13062
 107	1	2	0.118031	-18.6577	8.52034	4.59309
 108	1	6	-0.590955	-17.7326	8.17683	6.9424
 109	1	1	-0.003445	-12.8667	7.71381	4.5689
 110	1	1	0.299845	-12.7159	8.37461	5.96324
 111	1	2	0.023286	-12.3849	6.73828	4.60418
 112	1	2	-0.011958	-13.9224	7.49931	4.36928
 113	1	3	-0.518063	-11.3313	8.24245	6.34339
 114	1	4	0.011666	-12.9962	9.43376	5.89775
 115	1	5	0.843192	-10.8438	9.01923	7.34625
 116	1	1	-0.399874	-9.38047	8.74605	7.58682
 117	1	2	0.119224	-9.10522	9.08024	8.59154
 118	1	2	0.109051	-8.78509	9.28019	6.83998
 119	1	2	0.118031	-9.18332	7.67416	7.48922
 120	1	6	-0.590955	-11.4945	9.81866	7.99088
 121	1	1	-0.003445	-12.2243	7.74797	2.05846
 122	1	1	0.299845	-12.3368	8.55905	3.38109
 123	1	2	0.023286	-12.328	8.45932	1.22919
 124	1	2	-0.011958	-13.0861	7.0727	1.97296
 125	1	3	-0.518063	-11.071	9.15732	3.70924
 126	1	4	0.011666	-13.0784	9.35505	3.23151
 127	1	5	0.843192	-10.6752	10.2676	3.03613
 128	1	1	-0.399874	-9.34361	10.7594	3.54385
 129	1	2	0.119224	-9.3519	10.7628	4.63811
 130	1	2	0.109051	-9.16365	11.774	3.17322
 131	1	2	0.118031	-8.55476	10.0879	3.19235
 132	1	6	-0.590955	-11.318	10.8232	2.16878
 133	1	1	-0.003445	-10.7232	5.69986	2.74326
 134	1	1	0.299845	-10.9088	6.94583	1.82937
 135	1	2	0.023286	-11.702	5.3272	3.06667
 136	1	2	-0.011958	-10.2787	4.87289	2.17366
 137	1	3	-0.518063	-10.9614	6.51593	0.456777
 138	1	4	0.011666	-10.0562	7.62667	1.95092
 139	1	5	0.843192	-9.80227	6.2215	-0.189036
 140	1	1	-0.399874	-10.0778	5.85015	-1.62557
 141	1	2	0.119224	-10.4431	6.73454	-2.15609
 142	1	2	0.109051	-10.8407	5.06625	-1.66131
 143	1	2	0.118031	-9.15521	5.49205	-2.09323
 144	1	6	-0.590955	-8.68449	6.34154	0.271339
 145	1	1	-0.003445	-10.0197	5.04274	5.15311
 146	1	1	0.299845	-9.81747	6.01246	3.96265
 147	1	2	0.023286	-9.47876	5.43972	6.01937
 148	1	2	-0.011958	-11.0777	5.05719	5.4442
 149	1	3	-0.518063	-8.46122	5.95525	3.49441
 150	1	4	0.011666	-10.0422	7.02256	4.31617
 151	1	5	0.843192	-7.47568	6.56253	4.19999
 152	1	1	-0.399874	-6.16277	6.4559	3.46871
 153	1	2	0.119224	-6.25383	6.94397	2.49352
 154	1	2	0.109051	-5.91966	5.39922	3.31907
 155	1	2	0.118031	-5.37516	6.93132	4.06063
 156	1	6	-0.590955	-7.63939	7.18696	5.23052
 157	1	1	-0.003445	-8.33093	3.15285	5.65706
 158	1	1	0.299845	-9.57964	3.58742	4.85122
 159	1	2	0.023286	-7.99623	2.17112	5.30132
 160	1	2	-0.011958	-7.52547	3.8524	5.41008
 161	1	3	-0.518063	-10.692	2.72385	5.15198
 162	1	4	0.011666	-9.32935	3.523	3.78551
 163	1	5	0.843192	-10.8759	1.61326	4.38802
 164	1	1	-0.399874	-12.1036	0.85351	4.8248
 165	1	2	0.119224	-12.3659	0.116761	4.05925
 166	1	2	0.109051	-12.9365	1.54946	4.96551
 167	1	2	0.118031	-11.8944	0.348871	5.77199
 168	1	6	-0.590955	-10.2563	1.35144	3.37651
 169	1	1	-0.003445	-7.29371	3.61597	7.98653
 170	1	1	0.299845	-8.53553	3.11103	7.1975
 171	1	2	0.023286	-7.50197	3.6183	9.06345
 172	1	2	-0.011958	-7.1475	4.67108	7.72164
 173	1	3	-0.518063	-8.84307	1.75138	7.54956
 174	1	4	0.011666	-9.38233	3.75545	7.46179
 175	1	5	0.843192	-9.47956	1.49914	8.72328
 176	1	1	-0.399874	-9.70005	0.0163816	8.89239
 177	1	2	0.119224	-10.1056	-0.18016	9.88908
 178	1	2	0.109051	-8.75459	-0.516662	8.75717
 179	1	2	0.118031	-10.415	-0.318031	8.13414
 180	1	6	-0.590955	-9.72708	2.32675	9.58011
 181	1	1	-0.003445	-5.77747	1.62585	8.67273
 182	1	1	0.299845	-5.98979	2.81664	7.70869
 183	1	2	0.023286	-5.41494	2.00771	9.63597
 184	1	2	-0.011958	-6.7213	1.11291	8.8852
 185	1	3	-0.518063	-4.85211	3.68007	7.89704
 186	1	4	0.011666	-5.99667	2.43989	6.67879
 187	1	5	0.843192	-4.5375	4.589	6.94051
 188	1	1	-0.399874	-3.32123	5.39201	7.32923
 189	1	2	0.119224	-3.49664	5.86615	8.29952
 190	1	2	0.109051	-3.1281	6.1576	6.57091
 191	1	2	0.118031	-2.46047	4.72052	7.40845
 192	1	6	-0.590955	-5.12166	4.71619	5.88315
 193	1	1	-0.003445	-5.43967	-0.417465	7.13784
 194	1	1	0.299845	-4.7672	0.616138	8.07738
 195	1	2	0.023286	-6.41911	-0.0459146	6.81398
 196	1	2	-0.011958	-5.65245	-1.34124	7.69223
 197	1	3	-0.518063	-4.16556	-0.129853	9.14971
 198	1	4	0.011666	-4.00333	1.17198	7.51827
 199	1	5	0.843192	-3.0887	0.391334	9.78805
 200	1	1	-0.399874	-2.6576	-0.514763	10.9127
 201	1	2	0.119224	-2.47374	-1.51809	10.5164
 202	1	2	0.109051	-3.45751	-0.562419	11.6582
 203	1	2	0.118031	-1.7449	-0.120255	11.3695
 204	1	6	-0.590955	-2.50425	1.40869	9.47467
 205	1	1	-0.003445	-3.12254	-1.15168	6.21494
 206	1	1	0.299845	-4.58634	-0.763351	5.8898
 207	1	2	0.023286	-3.10112	-1.88861	7.02532
 208	1	2	-0.011958	-2.58631	-0.273403	6.59613
 209	1	3	-0.518063	-4.55733	0.390048	5.0258
 210	1	4	0.011666	-5.05715	-1.60999	5.37315
 211	1	5	0.843192	-5.64709	0.647771	4.25533
 212	1	1	-0.399874	-5.4811	1.93384	3.48762
 213	1	2	0.119224	-6.41099	2.161	2.95578
 214	1	2	0.109051	-4.65916	1.8266	2.77355
 215	1	2	0.118031	-5.24733	2.7436	4.18389
 216	1	6	-0.590955	-6.66255	-0.0172448	4.24464
 217	1	1	-0.003445	-0.860155	-1.91787	5.22431
 218	1	1	0.299845	-2.36774	-1.67384	4.96429
 219	1	2	0.023286	-0.453794	-1.05966	5.77401
 220	1	2	-0.011958	-0.718379	-2.77443	5.89516
 221	1	3	-0.518063	-2.99878	-2.85377	4.4031
 222	1	4	0.011666	-2.43174	-0.882372	4.20834
 223	1	5	0.843192	-3.15987	-4.01468	5.09689
 224	1	1	-0.399874	-3.86724	-5.04823	4.25759
 225	1	2	0.119224	-3.3654	-5.13761	3.28941
 226	1	2	0.109051	-4.90463	-4.73716	4.09981
 227	1	2	0.118031	-3.84433	-6.01559	4.7704
 228	1	6	-0.590955	-2.80132	-4.21682	6.23906
 229	1	1	-0.003445	0.518253	-3.53906	3.82257
 230	1	1	0.299845	-0.0674588	-2.11492	3.89856
 231	1	2	0.023286	-0.320955	-4.23005	3.95582
 232	1	2	-0.011958	1.2073	-3.69591	4.66287
 233	1	3	-0.518063	1.00666	-1.15221	3.83773
 234	1	4	0.011666	-0.734986	-1.97525	3.03795
 235	1	5	0.843192	0.687169	0.147037	3.59596
 236	1	1	-0.399874	1.89597	1.04484	3.68614
 237	1	2	0.119224	2.78643	0.508214	3.34665
 238	1	2	0.109051	2.03089	1.36272	4.72435
 239	1	2	0.118031	1.737	1.92161	3.04904
 240	1	6	-0.590955	-0.435992	0.557547	3.37969
 241	1	1	-0.003445	1.99857	-5.23568	2.51356
 242	1	1	0.299845	1.22949	-3.87853	2.49033
 243	1	2	0.023286	2.46492	-5.39107	1.53578
 244	1	2	-0.011958	2.82844	-5.1606	3.22725
 245	1	3	-0.518063	0.218825	-3.94423	1.46527
 246	1	4	0.011666	1.94231	-3.0743	2.2661
 247	1	5	0.843192	0.598128	-3.81969	0.168513
 248	1	1	-0.399874	-0.561145	-4.05719	-0.765364
 249	1	2	0.119224	-1.12511	-3.12811	-0.884994
 250	1	2	0.109051	-1.21658	-4.83029	-0.34918
 251	1	2	0.118031	-0.184025	-4.39185	-1.73637
 252	1	6	-0.590955	1.72701	-3.57361	-0.208324
 253	1	1	-0.003445	1.85621	-7.83168	2.66385
 254	1	1	0.299845	1.13308	-6.47456	2.87875
 255	1	2	0.023286	1.48536	-8.55113	3.40536
 256	1	2	-0.011958	2.92899	-7.71783	2.86692
 257	1	3	-0.518063	0.86127	-6.37215	4.28786
 258	1	4	0.011666	0.202185	-6.4505	2.29616
 259	1	5	0.843192	-0.275575	-6.90396	4.79829
 260	1	1	-0.399874	-0.386864	-6.57168	6.26306
 261	1	2	0.119224	-1.25195	-7.08424	6.69389
 262	1	2	0.109051	-0.509549	-5.48977	6.37422
 263	1	2	0.118031	0.528863	-6.87687	6.77685
 264	1	6	-0.590955	-1.12331	-7.49318	4.15975
 265	1	1	-0.003445	2.36581	-9.84197	1.19741
 266	1	1	0.299845	1.64746	-8.46916	1.26914
 267	1	2	0.023286	3.40016	-9.74069	1.54974
 268	1	2	-0.011958	1.8731	-10.5115	1.91477
 269	1	3	-0.518063	2.20582	-7.60281	0.262475
 270	1	4	0.011666	0.571003	-8.62848	1.12219
 271	1	5	0.843192	1.44718	-7.25492	-0.814247
 272	1	1	-0.399874	2.23775	-6.4357	-1.79587
 273	1	2	0.119224	2.73348	-5.62108	-1.26437
 274	1	2	0.109051	1.57366	-6.02535	-2.56133
 275	1	2	0.118031	3.0041	-7.05882	-2.26348
 276	1	6	-0.590955	0.267413	-7.5027	-0.954478
 277	1	1	-0.003445	3.64691	-10.1675	-1.03539
 278	1	1	0.299845	2.36347	-10.4831	-0.217522
 279	1	2	0.023286	3.91686	-9.10894	-0.945212
 280	1	2	-0.011958	4.49064	-10.7395	-0.625814
 281	1	3	-0.518063	2.30042	-11.9189	-0.0803449
 282	1	4	0.011666	1.48544	-10.1288	-0.773724
 283	1	5	0.843192	1.10624	-12.4881	0.236368
 284	1	1	-0.399874	1.24517	-13.9802	0.413081
 285	1	2	0.119224	0.262657	-14.4122	0.629755
 286	1	2	0.109051	1.92898	-14.1836	1.24259
 287	1	2	0.118031	1.64677	-14.4189	-0.50518
 288	1	6	-0.590955	0.0672162	-11.884	0.407016
 289	1	1	-0.003445	4.7381	-10.6462	-3.36376
 290	1	1	0.299845	3.43566	-10.5253	-2.52459
 291	1	2	0.023286	5.3402	-11.4309	-2.89446
 292	1	2	-0.011958	4.48721	-11.0461	-4.35451
 293	1	3	-0.518063	2.55778	-9.53326	-3.08036
 294	1	4	0.011666	2.947	-11.5082	-2.54856
 295	1	5	0.843192	1.82451	-9.87063	-4.1728
 296	1	1	-0.399874	0.985249	-8.70707	-4.63325
 297	1	2	0.119224	1.63504	-7.84657	-4.81257
 298	1	2	0.109051	0.255315	-8.45834	-3.85552
 299	1	2	0.118031	0.465746	-8.98201	-5.55668
 300	1	6	-0.590955	1.79667	-10.9685	-4.69228
 301	1	1	-0.003445	7.05878	-9.75293	-3.95393
 302	1	1	0.299845	5.60041	-9.36226	-3.55418
 303	1	2	0.023286	7.59829	-8.90541	-4.38988
 304	1	2	-0.011958	7.0061	-10.505	-4.75142
 305	1	3	-0.518063	5.00999	-8.5893	-4.62625
 306	1	4	0.011666	5.60896	-8.77166	-2.62935
 307	1	5	0.843192	5.46388	-7.33159	-4.88487
 308	1	1	-0.399874	4.80618	-6.75237	-6.11709
 309	1	2	0.119224	3.73432	-6.6358	-5.93742
 310	1	2	0.109051	4.96053	-7.42756	-6.96513
 311	1	2	0.118031	5.25065	-5.77684	-6.34127
 312	1	6	-0.590955	6.35589	-6.76935	-4.2815
 313	1	1	-0.003445	8.45916	-9.17907	-1.85661
 314	1	1	0.299845	7.90029	-10.2959	-2.76558
 315	1	2	0.023286	9.12157	-8.53159	-2.4455
 316	1	2	-0.011958	7.63088	-8.54868	-1.53031
 317	1	3	-0.518063	9.03809	-11.0189	-3.26345
 318	1	4	0.011666	7.28335	-10.9614	-2.15099
 319	1	5	0.843192	8.86504	-12.2931	-3.69512
 320	1	1	-0.399874	10.1864	-12.9074	-4.0878
 321	1	2	0.119224	10.8946	-12.1204	-4.36737
 322	1	2	0.109051	10.0378	-13.5842	-4.93458
 323	1	2	0.118031	10.5851	-13.4621	-3.23312
 324	1	6	-0.590955	7.81378	-12.9019	-3.67516
 325	1	1	-0.003445	9.79949	-8.66504	0.32305
 326	1	1	0.299845	9.25381	-9.75175	-0.649084
 327	1	2	0.023286	10.6961	-9.06629	0.812108
 328	1	2	-0.011958	10.1468	-7.807	-0.265425
 329	1	3	-0.518063	8.4139	-10.7009	0.0441845
 330	1	4	0.011666	10.1206	-10.2814	-1.06659
 331	1	5	0.843192	8.99389	-11.5895	0.895958
 332	1	1	-0.399874	7.96898	-12.5316	1.47612
 333	1	2	0.119224	7.53891	-13.1324	0.668782
 334	1	2	0.109051	7.17642	-11.9568	1.96432
 335	1	2	0.118031	8.45368	-13.1893	2.20529
 336	1	6	-0.590955	10.1741	-11.6248	1.17713
 337	1	1	-0.003445	7.56904	-7.44816	0.897405
 338	1	1	0.299845	8.81807	-8.19415	1.4337
 339	1	2	0.023286	7.86042	-6.738	0.115135
 340	1	2	-0.011958	6.90619	-8.18584	0.430461
 341	1	3	-0.518063	9.54386	-7.43007	2.42561
 342	1	4	0.011666	8.45559	-9.08657	1.95777
 343	1	5	0.843192	10.0796	-6.21011	2.16074
 344	1	1	-0.399874	10.8525	-5.70337	3.35286
 345	1	2	0.119224	11.4799	-6.51049	3.74469
 346	1	2	0.109051	10.1523	-5.38164	4.12978
 347	1	2	0.118031	11.4843	-4.86422	3.04591
 348	1	6	-0.590955	9.92333	-5.57276	1.14003
 349	1	1	-0.003445	5.45698	-6.10246	1.39184
 350	1	1	0.299845	6.75074	-6.72418	1.98108
 351	1	2	0.023286	4.67933	-6.1375	2.16042
 352	1	2	-0.011958	5.07526	-6.72396	0.571782
 353	1	3	-0.518063	6.40374	-7.71193	2.9763
 354	1	4	0.011666	7.37388	-5.94557	2.43634
 355	1	5	0.843192	6.09708	-7.28853	4.231
 356	1	1	-0.399874	5.87121	-8.4549	5.16247
 357	1	2	0.119224	6.60082	-9.24163	4.94594
 358	1	2	0.109051	4.85931	-8.8449	5.02096
 359	1	2	0.118031	5.99764	-8.11622	6.19624
 360	1	6	-0.590955	6.07623	-6.12995	4.5929
 361	1	1	-0.003445	6.01173	-3.66615	2.05571
 362	1	1	0.299845	5.57343	-4.62356	0.926285
 363	1	2	0.023286	7.10787	-3.60917	2.10396
 364	1	2	-0.011958	5.69352	-4.0952	3.01011
 365	1	3	-0.518063	6.53046	-4.43282	-0.127291
 366	1	4	0.011666	4.57913	-4.30892	0.582542
 367	1	5	0.843192	6.19556	-4.71048	-1.41109
 368	1	1	-0.399874	7.11579	-3.97571	-2.3541
 369	1	2	0.119224	7.19135	-4.51601	-3.30078
 370	1	2	0.109051	8.11105	-3.87239	-1.90887
 371	1	2	0.118031	6.71243	-2.97435	-2.53185
 372	1	6	-0.590955	5.18559	-5.28897	-1.75494
 373	1	1	-0.003445	6.12897	-1.37658	0.825704
 374	1	1	0.299845	5.41342	-2.24035	1.89471
 375	1	2	0.023286	7.15212	-1.16791	1.1617
 376	1	2	-0.011958	6.20536	-1.94714	-0.104846
 377	1	3	-0.518063	5.54357	-1.56166	3.15826
 378	1	4	0.011666	4.35207	-2.32562	1.62657
 379	1	5	0.843192	4.72708	-1.94596	4.17478
 380	1	1	-0.399874	5.10178	-1.25395	5.45914
 381	1	2	0.119224	4.97738	-0.174645	5.33745
 382	1	2	0.109051	6.14726	-1.47726	5.69485
 383	1	2	0.118031	4.45705	-1.61926	6.26461
 384	1	6	-0.590955	3.80858	-2.73517	4.07577
 385	1	1	-0.003445	6.13066	1.00103	-0.339456
 386	1	1	0.299845	5.37647	-0.0485399	0.538537
 387	1	2	0.023286	5.40218	1.5855	-0.913681
 388	1	2	-0.011958	6.61344	1.72902	0.326132
 389	1	3	-0.518063	4.14051	-0.392488	-0.121145
 390	1	4	0.011666	5.15337	0.420088	1.50619
 391	1	5	0.843192	3.10669	0.490382	-0.0588967
 392	1	1	-0.399874	1.91038	-0.0098907	-0.826357
 393	1	2	0.119224	1.63924	-1.00175	-0.457988
 394	1	2	0.109051	2.16013	-0.0746424	-1.89004
 395	1	2	0.118031	1.0722	0.679741	-0.683751
 396	1	6	-0.590955	3.11838	1.53719	0.558663
 397	1	1	-0.003445	7.38441	1.25139	-2.60847
 398	1	1	0.299845	7.19377	0.420053	-1.30747
 399	1	2	0.023286	7.50497	2.30827	-2.34005
 400	1	2	-0.011958	8.32298	0.952348	-3.0908
 401	1	3	-0.518063	8.43977	0.387221	-0.58307
 402	1	4	0.011666	6.90821	-0.599397	-1.58169
 403	1	5	0.843192	9.39783	-0.488285	-0.987774
 404	1	1	-0.399874	10.6036	-0.431526	-0.080776
 405	1	2	0.119224	10.3136	-0.0524269	0.904202
 406	1	2	0.109051	11.3547	0.231122	-0.520639
 407	1	2	0.118031	11.0148	-1.44068	0.0233254
 408	1	6	-0.590955	9.26463	-1.31356	-1.86813
 409	1	1	-0.003445	6.64702	1.41202	-5.09768
 410	1	1	0.299845	6.21933	1.10632	-3.6331
 411	1	2	0.023286	7.63111	0.967761	-5.2722
 412	1	2	-0.011958	5.96748	0.913502	-5.79944
 413	1	3	-0.518063	5.74166	-0.253364	-3.58992
 414	1	4	0.011666	5.40746	1.78195	-3.33231
 415	1	5	0.843192	4.51876	-0.542591	-4.10119
 416	1	1	-0.399874	4.24276	-2.02369	-4.03517
 417	1	2	0.119224	5.10798	-2.56934	-4.42476
 418	1	2	0.109051	3.36135	-2.25663	-4.64019
 419	1	2	0.118031	4.06865	-2.31453	-2.99443
 420	1	6	-0.590955	3.72201	0.276096	-4.51556
 421	1	1	-0.003445	6.91646	3.21909	-6.95896
 422	1	1	0.299845	6.64391	2.91711	-5.45344
 423	1	2	0.023286	5.99172	2.96195	-7.48998
 424	1	2	-0.011958	7.03934	4.30031	-7.10672
 425	1	3	-0.518063	7.5733	3.60454	-4.59782
 426	1	4	0.011666	5.63054	3.27807	-5.23144
 427	1	5	0.843192	7.34723	4.90902	-4.29639
 428	1	1	-0.399874	8.32943	5.40219	-3.26167
 429	1	2	0.119224	9.19139	4.729	-3.21067
 430	1	2	0.109051	7.83264	5.42619	-2.28646
 431	1	2	0.118031	8.66162	6.40895	-3.53103
 432	1	6	-0.590955	6.41271	5.57252	-4.69673
 433	1	1	-0.003445	7.91787	2.38719	-9.18518
 434	1	1	0.299845	8.10196	2.46575	-7.64143
 435	1	2	0.023286	6.85503	2.26259	-9.42788
 436	1	2	-0.011958	8.19026	3.36003	-9.61598
 437	1	3	-0.518063	9.31394	3.20777	-7.42114
 438	1	4	0.011666	8.18728	1.45015	-7.25421
 439	1	5	0.843192	10.1195	2.88655	-6.37636
 440	1	1	-0.399874	11.3058	3.81458	-6.31207
 441	1	2	0.119224	11.0801	4.74623	-6.84078
 442	1	2	0.109051	12.1629	3.3261	-6.78747
 443	1	2	0.118031	11.5316	4.03076	-5.26419
 444	1	6	-0.590955	9.95704	1.95553	-5.61521
 445	1	1	-0.003445	10.0384	0.758099	-9.30706
 446	1	1	0.299845	8.71559	1.27738	-9.94329
 447	1	2	0.023286	9.82371	0.245634	-8.36137
 448	1	2	-0.011958	10.6707	1.62127	-9.07078
 449	1	3	-0.518063	7.85046	0.176283	-10.3312
 450	1	4	0.011666	9.0143	1.75573	-10.8824
 451	1	5	0.843192	7.1247	-0.557116	-9.44054
 452	1	1	-0.399874	6.31403	-1.62331	-10.1375
 453	1	2	0.119224	6.29604	-2.52206	-9.51284
 454	1	2	0.109051	6.75651	-1.86478	-11.1098
 455	1	2	0.118031	5.29253	-1.25897	-10.2825
 456	1	6	-0.590955	7.05013	-0.353046	-8.24832
 457	1	1	-0.003445	11.4667	0.433522	-11.511
 458	1	1	0.299845	10.8162	-0.211843	-10.2487
 459	1	2	0.023286	11.3442	1.52441	-11.5047
 460	1	2	-0.011958	12.5409	0.262659	-11.4956
 461	1	3	-0.518063	11.8245	-0.97138	-9.54289
 462	1	4	0.011666	10.0852	-0.954493	-10.5895
 463	1	5	0.843192	12.8919	-0.375062	-8.94167
 464	1	1	-0.399874	13.8627	-1.41793	-8.4401
 465	1	2	0.119224	13.3449	-2.0918	-7.75138
 466	1	2	0.109051	14.6963	-0.929285	-7.92568
 467	1	2	0.118031	14.2438	-1.99419	-9.28914
 468	1	6	-0.590955	13.0696	0.821503	-8.83747
 469	1	1	-0.003445	11.7666	-0.0800215	-14.0815
 470	1	1	0.299845	10.8752	-0.166991	-12.8069
 471	1	2	0.023286	11.1012	0.00454354	-14.951
 472	1	2	-0.011958	12.3683	0.835203	-14.0766
 473	1	3	-0.518063	9.65945	0.56585	-13.0261
 474	1	4	0.011666	10.6519	-1.2246	-12.617
 475	1	5	0.843192	8.5908	-0.0743994	-13.5603
 476	1	1	-0.399874	7.38584	0.832896	-13.5847
 477	1	2	0.119224	7.40652	1.43678	-14.4956
 478	1	2	0.109051	7.40458	1.49519	-12.7135
 479	1	2	0.118031	6.47759	0.223784	-13.5558
 480	1	6	-0.590955	8.56713	-1.24466	-13.8838
 481	1	1	-0.003445	14.0068	-1.35271	-13.5296
 482	1	1	0.299845	12.6508	-1.34432	-14.2906
 483	1	2	0.023286	13.8538	-1.04261	-12.4964
 484	1	2	-0.011958	14.292	-2.40429	-13.417
 485	1	3	-0.518063	12.7334	-1.59794	-15.713
 486	1	4	0.011666	12.081	-2.18722	-13.8796
 487	1	5	0.843192	13.316	-2.72823	-16.2011
 488	1	1	-0.399874	12.6095	-3.19188	-17.4516
 489	1	2	0.119224	11.6321	-3.5912	-17.1602
 490	1	2	0.109051	13.1928	-3.98259	-17.9348
 491	1	2	0.118031	12.4645	-2.35432	-18.1391
 492	1	6	-0.590955	14.1895	-3.37337	-15.6599
 493	1	1	-0.003445	16.4864	-0.964986	-13.3114
 494	1	1	0.299845	15.2219	-0.592531	-14.1351
 495	1	2	0.023286	16.463	-0.467555	-12.3391
 496	1	2	-0.011958	16.4345	-2.02767	-13.0579
 497	1	3	-0.518063	15.0196	0.850439	-14.179
 498	1	4	0.011666	15.3701	-0.948059	-15.1627
 499	1	5	0.843192	14.8397	1.61282	-13.0592
 500	1	1	-0.399874	14.6296	3.07022	-13.3921
 501	1	2	0.119224	15.3006	3.37049	-14.2017
 502	1	2	0.109051	14.8388	3.67228	-12.5003
 503	1	2	0.118031	13.5911	3.22455	-13.6988
 504	1	6	-0.590955	14.8141	1.20232	-11.9202
 505	1	1	-0.003445	18.9005	-0.296334	-12.92
 506	1	1	0.299845	17.8448	-0.674526	-13.9935
 507	1	2	0.023286	18.9481	-1.06304	-12.1398
 508	1	2	-0.011958	18.5334	0.603483	-12.4109
 509	1	3	-0.518063	18.2518	-1.81258	-14.797
 510	1	4	0.011666	17.7235	0.189475	-14.6602
 511	1	5	0.843192	18.5577	-3.02855	-14.2477
 512	1	1	-0.399874	18.7964	-4.07498	-15.3058
 513	1	2	0.119224	18.8636	-5.05706	-14.8253
 514	1	2	0.109051	19.7292	-3.85352	-15.8333
 515	1	2	0.118031	17.9612	-4.07128	-16.0125
 516	1	6	-0.590955	18.5993	-3.28554	-13.0614
 517	1	1	-0.003445	20.4432	1.353	-14.1728
 518	1	1	0.299845	20.3227	-0.0273849	-13.4713
 519	1	2	0.023286	19.545	1.92001	-13.9294
 520	1	2	-0.011958	21.2924	1.92472	-13.7734
 521	1	3	-0.518063	21.2876	-0.143143	-12.4026
 522	1	4	0.011666	20.5589	-0.821143	-14.1857
 523	1	5	0.843192	21.2519	0.670766	-11.3128
 524	1	1	-0.399874	22.3688	0.336673	-10.355
 525	1	2	0.119224	22.8519	1.26535	-10.0383
 526	1	2	0.109051	23.1046	-0.309806	-10.845
 527	1	2	0.118031	21.9524	-0.182007	-9.48656
 528	1	6	-0.590955	20.4935	1.6058	-11.1485
 529	1	1	-0.003445	20.1939	2.48841	-16.5496
 530	1	1	0.299845	20.5919	1.23886	-15.7074
 531	1	2	0.023286	20.8378	2.50393	-17.4381
 532	1	2	-0.011958	19.1821	2.31938	-16.9394
 533	1	3	-0.518063	21.9732	0.927888	-15.9841
 534	1	4	0.011666	19.9371	0.43039	-16.0561
 535	1	5	0.843192	22.3282	-0.354956	-16.2678
 536	1	1	-0.399874	23.8244	-0.493276	-16.4002
 537	1	2	0.119224	24.1759	0.136052	-17.2229
 538	1	2	0.109051	24.0775	-1.54036	-16.5975
 539	1	2	0.118031	24.2982	-0.169628	-15.4685
 540	1	6	-0.590955	21.5585	-1.28693	-16.3951
 541	1	1	-0.003445	19.0008	4.20075	-14.9706
 542	1	1	0.299845	20.2224	3.89763	-15.8791
 543	1	2	0.023286	19.2635	4.09905	-13.9111
 544	1	2	-0.011958	18.1588	3.52987	-15.1862
 545	1	3	-0.518063	20.1409	4.88732	-16.9211
 546	1	4	0.011666	21.1455	4.03837	-15.3009
 547	1	5	0.843192	21.2518	5.22959	-17.6188
 548	1	1	-0.399874	20.9259	6.25811	-18.6762
 549	1	2	0.119224	21.4572	7.18643	-18.4476
 550	1	2	0.109051	19.8478	6.45344	-18.6947
 551	1	2	0.118031	21.2411	5.87799	-19.6522
 552	1	6	-0.590955	22.3671	4.79192	-17.4235
 553	1	4	0	-15.6447	1.40905	10.2408
 554	1	2	0	18.6459	5.23085	-15.1078

Velocities

   1	-0.000661163	-0.000516463	-0.000476338
   2	-0.000115849	-0.000324015	-0.000716811
   3	-0.00113323	-0.00212866	-0.000775509
   4	-0.0017483	-0.000229936	0.000248204
   5	0.000265336	-0.000795356	-0.00141452
   6	-0.000194834	-0.00038875	-0.00066271
   7	0.000190904	-0.000575633	-0.00131233
   8	0.000265793	-0.000134375	-0.000191283
   9	0.00038158	-0.00113127	0.000340699
  10	-0.000161807	0.000135247	0.000814235
  11	0.000128415	0.000776553	-0.000506228
  12	0.000536306	-0.000617745	-0.00102531
  13	-0.000371119	0.000431604	0.000389849
  14	-0.00028151	0.000484391	0.000123211
  15	-0.000348614	0.000528116	0.000422777
  16	-0.000471249	0.000547227	0.000290683
  17	4.55724e-05	0.000500757	0.000770376
  18	-0.00101525	0.00123945	-0.00011455
  19	0.0010341	0.000632783	0.00158276
  20	0.000424501	0.000598269	0.000578183
  21	0.000262847	0.000209812	0.000259087
  22	0.000224748	0.0015084	0.000309333
  23	0.000233005	-0.000163748	0.000244649
  24	0.00158622	0.000412683	0.00197091
  25	-0.000289131	0.000229688	4.95111e-05
  26	-0.0003945	0.000222858	0.000274234
  27	-0.000154515	0.000411426	0.000119944
  28	-0.000297756	0.000197495	-7.34495e-05
  29	-0.000397881	0.000131613	0.000254789
  30	-0.000445475	0.000205865	0.000251175
  31	-0.00050548	0.000195056	0.000286871
  32	0.000130002	-0.000796233	0.000295145
  33	0.000911544	-0.000800188	0.000415974
  34	-0.000398063	-0.00157639	0.000306257
  35	0.000152152	-0.000945675	0.000309988
  36	-0.000732104	0.000634506	0.000231745
  37	-0.000236214	0.000251647	6.58422e-05
  38	-0.00026719	0.00025428	8.67866e-05
  39	-0.000188488	0.0001721	7.37893e-05
  40	-0.000187534	0.000312116	-2.87085e-06
  41	-0.000327502	0.000137396	6.77025e-05
  42	-0.000210105	0.000185705	5.36136e-05
  43	-0.000361724	0.00061624	0.000132166
  44	-0.000480357	1.30602e-05	0.000215805
  45	-0.000501403	-0.000114682	0.000256794
  46	-0.000585517	-0.000125742	0.000582057
  47	-0.000393203	-0.000186907	-0.000147828
  48	-0.000281596	0.00133624	0.000171329
  49	-0.000156953	6.98632e-05	-1.21836e-05
  50	-0.000303137	0.00011038	3.65053e-05
  51	2.84228e-05	-7.47862e-06	4.67523e-05
  52	-0.000263505	0.000116188	0.000124078
  53	-0.000314007	-2.79062e-06	7.10623e-05
  54	-0.000310141	6.26186e-05	-1.97355e-05
  55	-0.000416868	-4.48765e-05	-0.000417831
  56	-0.000348538	-3.20586e-05	0.000176433
  57	1.0379e-05	-0.000136317	0.000306947
  58	-0.000298321	-4.46185e-05	0.000319897
  59	-0.00073271	7.74089e-05	0.000393439
  60	-0.00051954	-0.000109249	-0.000875731
  61	0.000126972	-0.000130076	-0.000138617
  62	-0.000121483	7.95509e-05	-0.000313154
  63	0.000280436	-4.79221e-05	-0.000122145
  64	4.4683e-05	-0.000111055	-0.000160302
  65	-8.33839e-05	1.85863e-05	-0.000543884
  66	-0.000254886	0.000279251	-0.000354706
  67	0.000281348	0.000199648	-0.00049245
  68	0.000174853	0.000213561	-0.00042607
  69	0.000163531	0.000268204	-0.000564535
  70	-1.98554e-05	0.000224393	-0.000391217
  71	0.000270895	0.000203399	-0.000296408
  72	0.000622876	0.000419149	-0.000383051
  73	1.71354e-06	-0.00021909	-0.000245549
  74	0.000189483	-0.00031965	1.47681e-05
  75	-9.01888e-05	-0.000447184	-0.000532278
  76	-0.000165849	0.0001444	-0.000322487
  77	0.000323789	-0.000325835	2.83135e-05
  78	0.00014512	-0.000426185	7.50742e-05
  79	0.000662091	1.50165e-05	-5.33139e-05
  80	0.000434123	-0.000762903	-0.000309761
  81	0.00106886	-0.00135647	-0.000102849
  82	-7.96244e-05	-0.00111038	-0.000743826
  83	0.000282989	-0.000590636	-0.000389621
  84	0.000726702	0.000307248	7.70411e-06
  85	-0.000150173	-0.000645946	-0.000241494
  86	-1.98825e-05	-0.000185049	-0.000243317
  87	-0.000275678	-0.0009058	-0.000261665
  88	-0.00038733	-0.000561691	-0.000512123
  89	-8.90495e-05	-4.91657e-05	-0.00039146
  90	8.25128e-05	-7.19017e-05	-0.000118566
  91	-0.000132207	-4.01248e-05	-0.000332532
  92	-6.90118e-05	-0.000115849	-0.000108153
  93	0.000302475	-0.000161858	0.000122426
  94	-0.000384239	-0.000272539	0.000121216
  95	1.7554e-05	5.51755e-06	-0.000291833
  96	-0.00014436	-8.65082e-05	-0.000404758
  97	4.81626e-05	-0.000668139	3.51369e-05
  98	6.24127e-06	-0.00086494	0.000118779