pySIMM System Object

434 atoms
433 bonds
792 angles
1035 dihedrals
36 impropers

6 atom types
7 bond types
12 angle types
10 dihedral types
1 improper types

-107.758464 107.758464 xlo xhi
-107.758464 107.758464 ylo yhi
-107.758464 107.758464 zlo zhi

Masses

   1	12.01	# c3
   2	1.008	# hc
   3	16.0	# os
   4	1.008	# h1
   5	12.01	# c
   6	16.0	# o

Pair Coeffs

   1	0.1094	3.3996695084235347	# c3
   2	0.0157	2.649532787749369	# hc
   3	0.17	3.0000123434657784	# os
   4	0.0157	2.471353044121301	# h1
   5	0.086	3.3996695084235347	# c
   6	0.21	2.959921901149463	# o

Bond Coeffs

   1	330.6	1.0969	# c3,hc
   2	637.7	1.2183	# c,o
   3	330.6	1.0969	# c3,h1
   4	308.6	1.4316	# c3,os
   5	313.0	1.5241	# c,c3
   6	390.8	1.3584	# c,os
   7	300.9	1.5375	# c3,c3

Angle Coeffs

   1	67.4	123.2	# c3,c,o
   2	46.93	108.77	# c,c3,hc
   3	75.32	123.25	# o,c,os
   4	68.0	107.97	# c3,c3,os
   5	46.34	109.8	# c3,c3,hc
   6	46.39	109.56	# c3,c3,h1
   7	63.28	115.98	# c,os,c3
   8	50.8	109.78	# h1,c3,os
   9	68.89	110.72	# c3,c,os
  10	39.4	107.58	# hc,c3,hc
  11	39.24	108.46	# h1,c3,h1
  12	62.86	111.51	# c3,c3,c3

Dihedral Coeffs

   1	2	0.383	3	0	0.8	1	180	# c3,c3,os,c
   2	2	0.0	3	0	0.25	1	0	# hc,c3,c3,os
   3	1	0.3833333333333333	3	0	# X,c3,os,X
   4	1	0.0	2	180	# X,c,c3,X
   5	3	0.8	1	0	0.0	2	0	0.08	3	180	# hc,c3,c,o
   6	3	2.7	2	180	0.0	1	0	1.15	3	0	# c3,c,os,c3
   7	1	0.15555555555555556	3	0	# X,c3,c3,X
   8	2	2.7	2	180	1.4	1	180	# o,c,os,c3
   9	1	0.16	3	0	# hc,c3,c3,c3
  10	3	0.18	3	0	0.25	2	180	0.2	1	180	# c3,c3,c3,c3

Improper Coeffs

   1	10.5	-1	2	# c,X,X,o

Atoms

   1	1	1	-0.003445	-2.34353	2.20468	-15.0288
   2	1	1	0.299845	-2.58355	0.675666	-15.1493
   3	1	2	0.023286	-1.87369	2.44196	-14.068
   4	1	2	-0.011958	-1.60369	2.49498	-15.7859
   5	1	3	-0.518063	-3.11652	0.119664	-13.9281
   6	1	4	0.011666	-1.63473	0.178428	-15.3901
   7	1	5	0.843192	-2.30287	-0.00168874	-12.8446
   8	1	1	-0.399874	-3.03763	-0.640649	-11.691
   9	1	2	0.119224	-3.37174	-1.63789	-11.9895
  10	1	2	0.109051	-3.89859	-0.0253611	-11.4181
  11	1	2	0.118031	-2.36319	-0.729297	-10.8356
  12	1	6	-0.590955	-1.13944	0.342648	-12.7872
  13	1	1	-0.003445	-3.98525	3.2844	-16.7029
  14	1	1	0.299845	-3.60423	3.09519	-15.214
  15	1	2	0.023286	-3.15118	3.79008	-17.2059
  16	1	2	-0.011958	-4.09467	2.30758	-17.1918
  17	1	3	-0.518063	-4.74819	2.55239	-14.5283
  18	1	4	0.011666	-3.38124	4.09246	-14.8113
  19	1	5	0.843192	-4.77293	2.55247	-13.1719
  20	1	1	-0.399874	-6.06514	1.9648	-12.67
  21	1	2	0.119224	-6.07385	1.97925	-11.5758
  22	1	2	0.109051	-6.14813	0.938441	-13.0361
  23	1	2	0.118031	-6.89367	2.56275	-13.0607
  24	1	6	-0.590955	-3.90313	2.97918	-12.4401
  25	1	1	-0.003445	-6.52009	3.25779	-17.2342
  26	1	1	0.299845	-5.28367	4.12235	-16.8762
  27	1	2	0.023286	-6.31105	2.69408	-18.1457
  28	1	2	-0.011958	-6.68289	2.50306	-16.4535
  29	1	3	-0.518063	-5.09315	5.18092	-17.8458
  30	1	4	0.011666	-5.49603	4.61757	-15.9202
  31	1	5	0.843192	-4.84746	4.93102	-19.1619
  32	1	1	-0.399874	-4.74661	6.21961	-19.9382
  33	1	2	0.119224	-3.89163	6.79746	-19.577
  34	1	2	0.109051	-5.665	6.79783	-19.7897
  35	1	2	0.118031	-4.62853	5.99507	-21.0025
  36	1	6	-0.590955	-4.65374	3.83409	-19.6474
  37	1	1	-0.003445	-8.9717	3.30142	-18.0334
  38	1	1	0.299845	-7.80528	4.10433	-17.4001
  39	1	2	0.023286	-9.14144	2.40478	-17.4257
  40	1	2	-0.011958	-9.90565	3.87308	-17.9628
  41	1	3	-0.518063	-8.19221	4.52679	-16.0777
  42	1	4	0.011666	-7.58481	4.97924	-18.0207
  43	1	5	0.843192	-9.03422	5.5859	-15.9542
  44	1	1	-0.399874	-9.34882	5.84326	-14.5011
  45	1	2	0.119224	-9.95067	6.75393	-14.4183
  46	1	2	0.109051	-8.41546	5.96435	-13.9428
  47	1	2	0.118031	-9.90615	4.99238	-14.099
  48	1	6	-0.590955	-9.48896	6.2437	-16.8683
  49	1	1	-0.003445	-9.07942	1.43734	-19.8198
  50	1	1	0.299845	-8.72817	2.91626	-19.5242
  51	1	2	0.023286	-9.17822	1.28432	-20.9005
  52	1	2	-0.011958	-10.0607	1.20429	-19.3857
  53	1	3	-0.518063	-9.5592	3.73823	-20.3653
  54	1	4	0.011666	-7.67785	3.06983	-19.7998
  55	1	5	0.843192	-9.1274	4.98901	-20.6769
  56	1	1	-0.399874	-10.1249	5.70346	-21.5549
  57	1	2	0.119224	-10.5184	5.00684	-22.3017
  58	1	2	0.109051	-9.63281	6.54282	-22.0565
  59	1	2	0.118031	-10.9463	6.07235	-20.9336
  60	1	6	-0.590955	-8.0342	5.44157	-20.3959
  61	1	1	-0.003445	-8.38503	-1.0218	-19.26
  62	1	1	0.299845	-8.01015	0.482415	-19.2269
  63	1	2	0.023286	-9.39128	-1.12176	-18.8347
  64	1	2	-0.011958	-8.44017	-1.41937	-20.2803
  65	1	3	-0.518063	-6.71041	0.728818	-19.807
  66	1	4	0.011666	-7.92474	0.740033	-18.1662
  67	1	5	0.843192	-6.44254	0.489448	-21.1195
  68	1	1	-0.399874	-5.01237	0.839799	-21.4435
  69	1	2	0.119224	-4.91096	1.92909	-21.4624
  70	1	2	0.109051	-4.74517	0.425731	-22.4207
  71	1	2	0.118031	-4.35202	0.436705	-20.6711
  72	1	6	-0.590955	-7.23204	0.0807118	-21.9463
  73	1	1	-0.003445	-7.95536	-3.19491	-17.9157
  74	1	1	0.299845	-7.39229	-1.83418	-18.3963
  75	1	2	0.023286	-9.04499	-3.1359	-17.8031
  76	1	2	-0.011958	-7.78156	-3.9483	-18.6951
  77	1	3	-0.518063	-6.21061	-2.10033	-19.1751
  78	1	4	0.011666	-7.16239	-1.21107	-17.5299
  79	1	5	0.843192	-4.99964	-2.10494	-18.5622
  80	1	1	-0.399874	-3.92186	-2.57472	-19.5063
  81	1	2	0.119224	-4.09922	-3.63069	-19.7366
  82	1	2	0.109051	-2.94175	-2.46189	-19.0328
  83	1	2	0.118031	-3.96302	-1.9943	-20.4317
  84	1	6	-0.590955	-4.78689	-1.71501	-17.4283
  85	1	1	-0.003445	-7.96441	-2.9447	-15.3369
  86	1	1	0.299845	-7.33567	-3.6529	-16.5652
  87	1	2	0.023286	-8.95025	-2.55348	-15.6128
  88	1	2	-0.011958	-8.16696	-3.67812	-14.5483
  89	1	3	-0.518063	-7.53697	-5.06646	-16.4088
  90	1	4	0.011666	-6.25901	-3.46009	-16.5587
  91	1	5	0.843192	-6.65147	-5.89954	-17.0191
  92	1	1	-0.399874	-6.97275	-7.34317	-16.7229
  93	1	2	0.119224	-6.95336	-7.49046	-15.6382
  94	1	2	0.109051	-6.22591	-7.98809	-17.1966
  95	1	2	0.118031	-7.96972	-7.57839	-17.1055
  96	1	6	-0.590955	-5.74584	-5.54736	-17.7524
  97	1	1	-0.003445	-5.85767	-2.3018	-13.9489
  98	1	1	0.299845	-7.06908	-1.80309	-14.7727
  99	1	2	0.023286	-5.21325	-1.44402	-13.7304
 100	1	2	-0.011958	-5.25429	-2.94921	-14.5957
 101	1	3	-0.518063	-7.87128	-0.920244	-13.9654
 102	1	4	0.011666	-6.64939	-1.2218	-15.5987
 103	1	5	0.843192	-8.71576	-0.0620298	-14.6003
 104	1	1	-0.399874	-9.55131	0.703679	-13.6053
 105	1	2	0.119224	-8.90042	1.2456	-12.9155
 106	1	2	0.109051	-10.1694	0.00054087	-13.0373
 107	1	2	0.118031	-10.195	1.41008	-14.1393
 108	1	6	-0.590955	-8.8092	0.0709555	-15.8066
 109	1	1	-0.003445	-6.47138	-2.08569	-11.4317
 110	1	1	0.299845	-6.19562	-3.04188	-12.6212
 111	1	2	0.023286	-5.84411	-2.38621	-10.5851
 112	1	2	-0.011958	-6.17603	-1.06176	-11.6893
 113	1	3	-0.518063	-5.0603	-3.84732	-12.2512
 114	1	4	0.011666	-7.06078	-3.70188	-12.751
 115	1	5	0.843192	-4.85359	-5.01856	-12.91
 116	1	1	-0.399874	-3.60883	-5.70307	-12.4054
 117	1	2	0.119224	-3.40378	-6.58421	-13.0215
 118	1	2	0.109051	-3.75781	-6.0036	-11.3637
 119	1	2	0.118031	-2.76558	-5.00755	-12.4635
 120	1	6	-0.590955	-5.57202	-5.47199	-13.7799
 121	1	1	-0.003445	-8.33163	-0.927171	-10.034
 122	1	1	0.299845	-7.95105	-2.09921	-10.9869
 123	1	2	0.023286	-9.4239	-0.822666	-10.059
 124	1	2	-0.011958	-7.93802	0.0169555	-10.4333
 125	1	3	-0.518063	-8.18715	-3.3653	-10.3451
 126	1	4	0.011666	-8.57267	-2.01972	-11.8863
 127	1	5	0.843192	-9.46567	-3.81234	-10.2328
 128	1	1	-0.399874	-9.51637	-5.12309	-9.48959
 129	1	2	0.119224	-9.14424	-4.97358	-8.47091
 130	1	2	0.109051	-8.88484	-5.85685	-10.0001
 131	1	2	0.118031	-10.5495	-5.4833	-9.45556
 132	1	6	-0.590955	-10.4412	-3.24324	-10.6798
 133	1	1	-0.003445	-6.38622	-0.86463	-8.28486
 134	1	1	0.299845	-7.90116	-1.09399	-8.55101
 135	1	2	0.023286	-5.86023	-0.658271	-9.22141
 136	1	2	-0.011958	-6.23734	0.0370882	-7.67498
 137	1	3	-0.518063	-8.64352	-0.117134	-7.79797
 138	1	4	0.011666	-8.19285	-2.10221	-8.23235
 139	1	5	0.843192	-9.06564	-0.434501	-6.54431
 140	1	1	-0.399874	-9.77652	0.734455	-5.90741
 141	1	2	0.119224	-10.3516	1.27349	-6.66656
 142	1	2	0.109051	-9.03509	1.40804	-5.46738
 143	1	2	0.118031	-10.4516	0.365906	-5.12859
 144	1	6	-0.590955	-9.00693	-1.53611	-6.03428
 145	1	1	-0.003445	-4.20883	-2.17579	-7.73371
 146	1	1	0.299845	-5.74797	-2.08189	-7.5752
 147	1	2	0.023286	-3.86729	-3.08414	-7.22226
 148	1	2	-0.011958	-3.95931	-2.32331	-8.79294
 149	1	3	-0.518063	-6.0748	-1.96765	-6.17911
 150	1	4	0.011666	-6.18843	-2.99423	-7.99939
 151	1	5	0.843192	-6.10042	-3.08554	-5.4086
 152	1	1	-0.399874	-6.43166	-2.74873	-3.97614
 153	1	2	0.119224	-7.42224	-2.28464	-3.93999
 154	1	2	0.109051	-5.68848	-2.04736	-3.58449
 155	1	2	0.118031	-6.43154	-3.66469	-3.37751
 156	1	6	-0.590955	-5.81776	-4.20233	-5.79529
 157	1	1	-0.003445	-2.03355	-1.33203	-6.6556
 158	1	1	0.299845	-3.44396	-0.947349	-7.17804
 159	1	2	0.023286	-1.60736	-0.49176	-6.09495
 160	1	2	-0.011958	-2.1652	-2.13586	-5.91927
 161	1	3	-0.518063	-3.35674	0.0309912	-8.2338
 162	1	4	0.011666	-4.00981	-0.534677	-6.33292
 163	1	5	0.843192	-2.97812	1.29795	-7.91603
 164	1	1	-0.399874	-2.92889	2.16931	-9.14658
 165	1	2	0.119224	-2.5113	3.14611	-8.8831
 166	1	2	0.109051	-3.93821	2.29757	-9.54729
 167	1	2	0.118031	-2.30051	1.6995	-9.90717
 168	1	6	-0.590955	-2.78064	1.71198	-6.79156
 169	1	1	-0.003445	0.114808	-2.6773	-7.14973
 170	1	1	0.299845	-1.02729	-1.80098	-7.74116
 171	1	2	0.023286	0.905614	-2.83492	-7.89255
 172	1	2	-0.011958	-0.309203	-3.67118	-6.96026
 173	1	3	-0.518063	-0.467739	-0.637937	-8.38582
 174	1	4	0.011666	-1.56707	-2.40572	-8.48104
 175	1	5	0.843192	0.175088	-0.791136	-9.57454
 176	1	1	-0.399874	0.773212	0.512453	-10.0399
 177	1	2	0.119224	1.4069	0.325317	-10.913
 178	1	2	0.109051	1.36696	0.956747	-9.23542
 179	1	2	0.118031	-0.0296695	1.19758	-10.3231
 180	1	6	-0.590955	0.259993	-1.83588	-10.1884
 181	1	1	-0.003445	1.47685	-0.788649	-5.95394
 182	1	1	0.299845	0.750767	-2.15271	-5.83317
 183	1	2	0.023286	2.25817	-0.867166	-6.71993
 184	1	2	-0.011958	0.783982	-0.00493202	-6.28066
 185	1	3	-0.518063	1.73045	-3.10816	-5.38969
 186	1	4	0.011666	-0.0282203	-2.05974	-5.068
 187	1	5	0.843192	1.31569	-4.22041	-4.73437
 188	1	1	-0.399874	2.49198	-5.05452	-4.29262
 189	1	2	0.119224	2.14242	-5.87065	-3.65266
 190	1	2	0.109051	3.19432	-4.42544	-3.7354
 191	1	2	0.118031	2.99662	-5.46124	-5.17383
 192	1	6	-0.590955	0.160598	-4.47605	-4.45657
 193	1	1	-0.003445	1.02871	0.077215	-3.55394
 194	1	1	0.299845	2.0905	-0.370567	-4.5943
 195	1	2	0.023286	0.0267384	-0.249126	-3.85391
 196	1	2	-0.011958	0.972277	1.17394	-3.54029
 197	1	3	-0.518063	2.98519	0.745181	-4.77056
 198	1	4	0.011666	2.64619	-1.22615	-4.19607
 199	1	5	0.843192	4.22678	0.526524	-5.272
 200	1	1	-0.399874	5.02108	1.80888	-5.31121
 201	1	2	0.119224	4.38929	2.62042	-5.68515
 202	1	2	0.109051	5.88802	1.68173	-5.96717
 203	1	2	0.118031	5.35447	2.05055	-4.29758
 204	1	6	-0.590955	4.68243	-0.556564	-5.57683
 205	1	1	-0.003445	2.78522	-0.260375	-1.64791
 206	1	1	0.299845	1.31391	-0.418532	-2.11217
 207	1	2	0.023286	3.05735	0.801679	-1.65983
 208	1	2	-0.011958	3.47252	-0.755815	-2.34183
 209	1	3	-0.518063	0.946509	-1.80678	-1.97661
 210	1	4	0.011666	0.697597	0.181864	-1.43038
 211	1	5	0.843192	-0.362025	-2.10644	-1.75052
 212	1	1	-0.399874	-0.542724	-3.55594	-1.37554
 213	1	2	0.119224	-0.414622	-3.66264	-0.294803
 214	1	2	0.109051	0.201124	-4.1732	-1.88596
 215	1	2	0.118031	-1.54667	-3.88095	-1.66602
 216	1	6	-0.590955	-1.27166	-1.3006	-1.74743
 217	1	1	-0.003445	4.48493	-0.639719	0.246724
 218	1	1	0.299845	3.03733	-0.875472	-0.250033
 219	1	2	0.023286	5.17691	-1.10751	-0.465499
 220	1	2	-0.011958	4.72805	0.430049	0.233802
 221	1	3	-0.518063	2.04798	-0.434189	0.712344
 222	1	4	0.011666	2.91578	-1.96121	-0.351089
 223	1	5	0.843192	1.88456	0.871491	1.04836
 224	1	1	-0.399874	0.726069	1.02847	1.99701
 225	1	2	0.119224	-0.172128	0.592614	1.5484
 226	1	2	0.109051	0.559823	2.09119	2.20218
 227	1	2	0.118031	0.953987	0.509349	2.93308
 228	1	6	-0.590955	2.56602	1.79429	0.651647
 229	1	1	-0.003445	4.98875	-0.154307	2.72279
 230	1	1	0.299845	4.70312	-1.23592	1.65941
 231	1	2	0.023286	4.16236	0.563588	2.72716
 232	1	2	-0.011958	5.8957	0.401845	2.44959
 233	1	3	-0.518063	5.813	-2.15155	1.6643
 234	1	4	0.011666	3.79839	-1.77574	1.96618
 235	1	5	0.843192	5.61864	-3.39884	1.16153
 236	1	1	-0.399874	6.81034	-4.28071	1.43816
 237	1	2	0.119224	6.97555	-4.3111	2.52069
 238	1	2	0.109051	7.69638	-3.87107	0.945211
 239	1	2	0.118031	6.6071	-5.29181	1.07232
 240	1	6	-0.590955	4.62638	-3.76384	0.5604
 241	1	1	-0.003445	5.52642	0.254655	5.23413
 242	1	1	0.299845	5.16045	-0.765458	4.13385
 243	1	2	0.023286	5.76815	-0.323176	6.13525
 244	1	2	-0.011958	6.45065	0.78	4.95818
 245	1	3	-0.518063	3.93025	-1.40817	4.5254
 246	1	4	0.011666	5.98981	-1.48273	4.09937
 247	1	5	0.843192	3.85295	-2.76585	4.52763
 248	1	1	-0.399874	2.47443	-3.2164	4.93883
 249	1	2	0.119224	1.76342	-2.95495	4.14943
 250	1	2	0.109051	2.18679	-2.71373	5.86747
 251	1	2	0.118031	2.47844	-4.30042	5.0904
 252	1	6	-0.590955	4.75727	-3.52843	4.25236
 253	1	1	-0.003445	4.70618	1.89448	6.97259
 254	1	1	0.299845	4.4199	1.28365	5.58016
 255	1	2	0.023286	5.71591	2.31568	6.96272
 256	1	2	-0.011958	4.72933	1.0883	7.71828
 257	1	3	-0.518063	4.46592	2.3353	4.59213
 258	1	4	0.011666	3.44647	0.777868	5.60053
 259	1	5	0.843192	3.29974	2.90664	4.1778
 260	1	1	-0.399874	3.54339	4.05146	3.22634
 261	1	2	0.119224	3.15281	3.79452	2.23788
 262	1	2	0.109051	4.61404	4.26521	3.15253
 263	1	2	0.118031	3.03019	4.93949	3.60862
 264	1	6	-0.590955	2.18964	2.53185	4.50088
 265	1	1	-0.003445	4.1445	3.67087	8.7327
 266	1	1	0.299845	3.68419	2.96058	7.43342
 267	1	2	0.023286	3.26947	3.88895	9.35258
 268	1	2	-0.011958	4.75556	2.97936	9.32844
 269	1	3	-0.518063	2.44261	2.27242	7.66724
 270	1	4	0.011666	3.54411	3.70921	6.64675
 271	1	5	0.843192	1.29833	3.00632	7.69967
 272	1	1	-0.399874	0.093777	2.13097	7.94633
 273	1	2	0.119224	-0.749241	2.51675	7.36508
 274	1	2	0.109051	-0.14874	2.14614	9.01288
 275	1	2	0.118031	0.310604	1.10456	7.63412
 276	1	6	-0.590955	1.23919	4.21889	7.63069
 277	1	1	-0.003445	5.46731	5.60015	9.80541
 278	1	1	0.299845	4.93689	4.98912	8.4857
 279	1	2	0.023286	5.73242	4.77908	10.4778
 280	1	2	-0.011958	6.40753	6.13334	9.61082
 281	1	3	-0.518063	6.1062	4.70399	7.68877
 282	1	4	0.011666	4.29467	5.72998	7.99153
 283	1	5	0.843192	6.09385	4.98335	6.35788
 284	1	1	-0.399874	7.36073	4.50497	5.69141
 285	1	2	0.119224	8.02429	5.35889	5.52855
 286	1	2	0.109051	7.10499	4.04457	4.73139
 287	1	2	0.118031	7.86522	3.7672	6.32221
 288	1	6	-0.590955	5.15058	5.43784	5.74575
 289	1	1	-0.003445	4.89669	6.87221	11.967
 290	1	1	0.299845	4.50071	6.60419	10.4912
 291	1	2	0.023286	5.94662	7.18733	11.9783
 292	1	2	-0.011958	4.33759	7.73074	12.36
 293	1	3	-0.518063	3.15769	6.10144	10.4121
 294	1	4	0.011666	4.56401	7.54613	9.93
 295	1	5	0.843192	2.11641	6.95679	10.589
 296	1	1	-0.399874	0.798372	6.25261	10.3895
 297	1	2	0.119224	0.884391	5.20529	10.695
 298	1	2	0.109051	0.537799	6.29193	9.32627
 299	1	2	0.118031	0.0243026	6.75344	10.9778
 300	1	6	-0.590955	2.21326	8.13433	10.8693
 301	1	1	-0.003445	5.85155	5.46874	13.9114
 302	1	1	0.299845	4.69767	5.64259	12.8973
 303	1	2	0.023286	5.51502	4.87041	14.7675
 304	1	2	-0.011958	6.13312	6.45331	14.309
 305	1	3	-0.518063	3.47557	5.8186	13.6381
 306	1	4	0.011666	4.65328	4.73176	12.2917
 307	1	5	0.843192	2.52928	4.8448	13.5912
 308	1	1	-0.399874	1.3431	5.2071	14.4479
 309	1	2	0.119224	1.68965	5.45895	15.4546
 310	1	2	0.109051	0.654667	4.35706	14.4971
 311	1	2	0.118031	0.836194	6.07371	14.0133
 312	1	6	-0.590955	2.60914	3.81092	12.9573
 313	1	1	-0.003445	7.06069	3.23958	13.3379
 314	1	1	0.299845	7.07605	4.78517	13.2534
 315	1	2	0.023286	7.03547	2.92805	14.3897
 316	1	2	-0.011958	6.15317	2.84712	12.8603
 317	1	3	-0.518063	8.27856	5.24256	13.8969
 318	1	4	0.011666	7.10338	5.04925	12.1904
 319	1	5	0.843192	8.94525	6.2907	13.3462
 320	1	1	-0.399874	10.2427	6.53717	14.0724
 321	1	2	0.119224	10.8956	5.66869	13.9374
 322	1	2	0.109051	10.0434	6.67857	15.1387
 323	1	2	0.118031	10.7267	7.42843	13.6611
 324	1	6	-0.590955	8.59804	6.89765	12.352
 325	1	1	-0.003445	8.57581	1.15506	12.8993
 326	1	1	0.299845	8.31965	2.66023	12.6488
 327	1	2	0.023286	9.51345	0.890147	12.3948
 328	1	2	-0.011958	8.78129	1.01725	13.9682
 329	1	3	-0.518063	8.20792	2.92855	11.2371
 330	1	4	0.011666	9.19072	3.18896	13.055
 331	1	5	0.843192	9.35381	3.05858	10.5155
 332	1	1	-0.399874	9.05198	3.36823	9.07113
 333	1	2	0.119224	8.32296	2.64731	8.69039
 334	1	2	0.109051	9.97597	3.30815	8.48656
 335	1	2	0.118031	8.63546	4.37795	9.00215
 336	1	6	-0.590955	10.4793	2.99097	10.967
 337	1	1	-0.003445	6.59704	-0.356592	13.6323
 338	1	1	0.299845	7.44458	0.189119	12.4407
 339	1	2	0.023286	7.25454	-0.508592	14.497
 340	1	2	-0.011958	5.8773	0.412892	13.941
 341	1	3	-0.518063	8.03987	-0.86163	11.6426
 342	1	4	0.011666	6.76516	0.735141	11.7741
 343	1	5	0.843192	8.88051	-1.79202	12.1742
 344	1	1	-0.399874	9.36634	-2.7618	11.1249
 345	1	2	0.119224	10.4232	-2.56937	10.9207
 346	1	2	0.109051	8.78598	-2.64041	10.2035
 347	1	2	0.118031	9.23715	-3.78309	11.4955
 348	1	6	-0.590955	9.12916	-1.91231	13.3577
 349	1	1	-0.003445	5.23949	-2.29717	14.6511
 350	1	1	0.299845	5.84662	-1.6879	13.3635
 351	1	2	0.023286	4.18887	-1.99206	14.7442
 352	1	2	-0.011958	5.75262	-1.87623	15.5199
 353	1	3	-0.518063	4.76198	-1.4407	12.4513
 354	1	4	0.011666	6.55494	-2.42041	12.9659
 355	1	5	0.843192	4.76781	-2.03921	11.2317
 356	1	1	-0.399874	3.50989	-1.70393	10.4688
 357	1	2	0.119224	3.6489	-1.94852	9.41177
 358	1	2	0.109051	3.28132	-0.63918	10.5799
 359	1	2	0.118031	2.68674	-2.29605	10.8816
 360	1	6	-0.590955	5.68261	-2.69049	10.7667
 361	1	1	-0.003445	6.58654	-4.39336	15.4626
 362	1	1	0.299845	5.36242	-3.84761	14.6701
 363	1	2	0.023286	7.42157	-3.6842	15.3911
 364	1	2	-0.011958	6.92858	-5.29429	14.9394
 365	1	3	-0.518063	4.16817	-4.42832	15.2251
 366	1	4	0.011666	5.48449	-4.19655	13.6363
 367	1	5	0.843192	3.13926	-4.73356	14.3961
 368	1	1	-0.399874	2.0557	-5.46041	15.1555
 369	1	2	0.119224	1.54948	-4.75912	15.8239
 370	1	2	0.109051	2.50701	-6.26484	15.7467
 371	1	2	0.118031	1.34036	-5.88778	14.4458
 372	1	6	-0.590955	3.09731	-4.50478	13.2035
 373	1	1	-0.003445	6.19632	-3.48067	17.8436
 374	1	1	0.299845	6.31697	-4.7424	16.9615
 375	1	2	0.023286	7.13491	-2.9138	17.789
 376	1	2	-0.011958	5.42046	-2.85654	17.4024
 377	1	3	-0.518063	7.39083	-5.55817	17.4656
 378	1	4	0.011666	5.38186	-5.30743	17.053
 379	1	5	0.843192	7.37363	-6.8837	17.147
 380	1	1	-0.399874	8.53249	-7.62342	17.7682
 381	1	2	0.119224	9.39041	-6.95331	17.8735
 382	1	2	0.109051	8.80165	-8.47338	17.1325
 383	1	2	0.118031	8.22479	-7.98149	18.7554
 384	1	6	-0.590955	6.55317	-7.42382	16.4291
 385	1	1	-0.003445	5.6412	-2.39784	20.1229
 386	1	1	0.299845	5.83511	-3.72041	19.3339
 387	1	2	0.023286	5.47133	-2.63923	21.1796
 388	1	2	-0.011958	6.60056	-1.86406	20.1025
 389	1	3	-0.518063	4.61291	-4.47707	19.4478
 390	1	4	0.011666	6.66928	-4.24964	19.8129
 391	1	5	0.843192	4.6928	-5.81701	19.6796
 392	1	1	-0.399874	3.31867	-6.43134	19.7522
 393	1	2	0.119224	2.73649	-6.11945	18.8805
 394	1	2	0.109051	2.82087	-6.0955	20.6668
 395	1	2	0.118031	3.4145	-7.52225	19.7603
 396	1	6	-0.590955	5.71483	-6.44922	19.8541
 397	1	1	-0.003445	3.19315	-1.52385	20.46
 398	1	1	0.299845	4.5041	-1.45162	19.6178
 399	1	2	0.023286	2.80122	-2.54323	20.3645
 400	1	2	-0.011958	3.41246	-1.36422	21.5237
 401	1	3	-0.518063	5.01113	-0.103681	19.6556
 402	1	4	0.011666	4.22095	-1.69386	18.5884
 403	1	5	0.843192	5.78442	0.358634	18.6417
 404	1	1	-0.399874	6.17245	1.7989	18.8719
 405	1	2	0.119224	7.17643	1.9696	18.472
 406	1	2	0.109051	6.16396	2.01927	19.9446
 407	1	2	0.118031	5.45312	2.44634	18.3623
 408	1	6	-0.590955	6.10973	-0.273086	17.6564
 409	1	1	-0.003445	0.681854	-0.61263	20.6043
 410	1	1	0.299845	2.1078	-0.510325	19.9821
 411	1	2	0.023286	0.60912	0.0605092	21.4655
 412	1	2	-0.011958	-0.0153788	-0.193407	19.8671
 413	1	3	-0.518063	2.56521	0.806383	20.3399
 414	1	4	0.011666	2.02404	-0.611418	18.8914
 415	1	5	0.843192	2.08903	1.88804	19.6802
 416	1	1	-0.399874	2.60274	3.15421	20.3174
 417	1	2	0.119224	2.21887	3.21043	21.341
 418	1	2	0.109051	2.26135	4.02201	19.7451
 419	1	2	0.118031	3.69545	3.12624	20.348
 420	1	6	-0.590955	1.38095	1.85905	18.6935
 421	1	1	-0.003445	-1.37279	-1.98188	21.2984
 422	1	1	0.299845	0.14659	-2.01435	20.9915
 423	1	2	0.023286	-1.93857	-1.71985	20.3955
 424	1	2	-0.011958	-1.72616	-2.96183	21.6423
 425	1	3	-0.518063	0.860637	-2.59566	22.109
 426	1	4	0.011666	0.28381	-2.67514	20.1268
 427	1	5	0.843192	0.876212	-2.02864	23.3491
 428	1	1	-0.399874	1.63528	-2.89951	24.3182
 429	1	2	0.119224	1.7268	-2.37964	25.2775
 430	1	2	0.109051	2.62943	-3.1146	23.9158
 431	1	2	0.118031	1.08758	-3.83626	24.4577
 432	1	6	-0.590955	0.374716	-0.970116	23.6658
 433	1	4	0	-3.27533	0.476549	-15.9769
 434	1	2	0	-1.62136	-1.23758	22.0647

Velocities

   1	0.00044092	0.00031238	0.000270319
   2	-0.000251177	0.000622696	0.000494677
   3	0.000566068	0.000608123	0.00017167
   4	0.000363989	0.000282463	3.08683e-05
   5	0.000443092	0.000747681	0.000863812
   6	-0.000954082	-3.28053e-05	-0.000985671
   7	0.000575418	-0.000490737	0.000548282
   8	-0.000223939	-0.000108672	0.000155085
   9	-0.000849964	0.000316888	-0.000318246
  10	-1.73766e-05	0.000392365	-0.000599884
  11	-0.00132916	-0.000936896	0.000818101
  12	0.00074498	-0.00138034	0.000457582
  13	0.000147827	-4.44101e-05	0.000202755
  14	8.37869e-05	-0.000234553	0.000121479
  15	0.000135541	2.85351e-05	0.00029105
  16	0.000314176	4.45239e-05	-0.000119541
  17	0.000195345	-0.00101632	-0.000285606
  18	-0.000705519	-2.53278e-05	0.000603902
  19	2.83014e-05	-0.000665215	-0.000205512
  20	-4.69705e-05	-0.000265049	0.000163065
  21	0.000527142	-0.000167433	0.000182717
  22	-0.000797475	-0.000292268	0.000342738
  23	7.9625e-06	0.000157473	0.000684957
  24	-0.000335617	0.000269208	-0.000282181
  25	1.21985e-05	0.000213185	0.000391931
  26	0.000165498	-6.34615e-05	0.000320591
  27	7.07199e-07	-0.000181936	0.000560601
  28	-0.000233351	0.000392574	0.000495595
  29	0.000359256	-0.000151095	0.000255172
  30	0.000396527	-1.74265e-05	0.000238273
  31	0.000164618	-0.000403902	0.000202298
  32	0.000236114	-0.00051255	3.82419e-06
  33	-9.48664e-05	-0.000265822	0.000346047
  34	-7.05859e-06	-0.000790069	-0.000438815
  35	0.000765298	-0.000737906	0.000140516
  36	-0.000592772	-0.000554099	0.000285185
  37	0.000234398	0.000137511	4.74212e-05
  38	7.94804e-05	0.000348428	-3.60058e-05
  39	0.000244169	0.000198262	0.000128292
  40	0.000124677	8.16427e-05	-1.17033e-05
  41	4.12059e-05	0.000707167	-0.000120032
  42	0.000273956	0.000180267	-0.00039632
  43	-0.00031577	0.000370621	-0.000157784
  44	9.94322e-06	0.00048681	-0.00011765
  45	-0.000152133	0.000334367	4.49956e-05
  46	0.000116909	0.000733861	-0.000437921
  47	0.000369523	0.000443322	0.000180348
  48	-0.000770019	9.96516e-05	-0.000126103
  49	-2.92449e-05	-4.42394e-05	5.54357e-05
  50	0.000107429	-7.89486e-05	-3.81151e-06
  51	4.70823e-05	1.75576e-05	8.42129e-06
  52	-8.49315e-05	0.000108764	-3.22654e-05
  53	0.000103241	-8.93935e-05	6.30444e-05
  54	0.000104423	-0.000164292	5.6608e-05
  55	0.000307699	-0.000292517	-0.000398742
  56	-0.000127563	-0.000127644	0.000210557
  57	0.000240562	0.000223625	-0.00037384
  58	-0.000663571	0.000616494	0.000898388
  59	-0.000360121	-0.00115736	0.00058076
  60	0.000529837	-0.000488709	-0.000951845
  61	-0.000162527	-9.98394e-05	2.69642e-05
  62	-0.000145131	-5.0344e-05	0.000106037
  63	-0.000121048	-0.000197569	1.62562e-05
  64	-7.61287e-05	-6.2327e-05	3.74006e-06
  65	-9.16062e-05	-6.42305e-05	0.000220974
  66	-0.00025974	-0.000155035	7.52265e-05
  67	2.23794e-05	0.000104146	0.000234844
  68	4.09963e-05	0.000142779	0.000336592
  69	-5.9284e-05	0.000175917	-0.00013013
  70	0.000282779	-0.000244501	0.000552997
  71	-4.51337e-06	0.000562665	0.000646595
  72	0.000108523	0.000126325	0.000170065
  73	0.00015458	-0.000213276	-0.00012365
  74	-9.14775e-05	-7.77709e-05	-3.49658e-05
  75	0.000106338	-0.000520691	-0.000308457
  76	0.000491392	-0.00019955	-8.90866e-05
  77	-6.09663e-05	0.000123256	2.91564e-05
  78	-0.000182289	-0.000140751	6.11674e-05
  79	-9.28291e-05	0.000142198	3.56768e-05
  80	-5.53202e-05	0.000320446	-3.86208e-05
  81	0.000364143	0.000155254	0.000388603
  82	1.58375e-05	0.000963169	-0.000284176
  83	-0.00055874	-1.98061e-05	-0.000237974
  84	-0.000122931	-3.97738e-05	9.47796e-05
  85	-7.23293e-05	3.87187e-05	-0.000108527
  86	3.40191e-05	-9.93078e-05	-2.59805e-05
  87	1.18282e-05	0.000105172	-0.000300264
  88	-0.000263801	6.29065e-05	-0.000102953
  89	-1.87239e-05	-0.000108937	0.000124207
  90	8.07538e-05	-9.8817e-05	2.00707e-05
  91	-0.000130598	-0.00018915	3.80079e-05
  92	-0.000347442	-0.00013868	6.58481e-06
  93	2.79733e-05	-0.000297057	-2.44591e-05
  94	-0.000748496	-0.00027843	-0.00038671
  95	-0.000593218	0.000174266	0.00045875
  96	-0.000229603	-0.000323963	-0.000163247
  97	-2.33793e-05	-0.000187834	-9.90164e-05
  98	-6.51543e-05	-2.58296e-05	3.78949e-05
  99	0.000168638	-0.000296899	-0.000241724
 100	-0.000237707	-0.000262795	-0.000200958
 101	-0.000135601	-0.000107507	9.52289e-05
 102	-9.26327e-05	4.10824e-05	7.86131e-05
 103	-8.36446e-05	-1.06433e-05	0.000126335
 104	-0.000249893	-6.93299e-05	5.28695e-05
 105	-0.000393605	-0.000426175	0.00048778
 106	-0.00070362	-5.77967e-05	-0.000410334
 107	0.000151275	0.000271593	2.62797e-06
 108	0.00011714	0.000185939	0.000133031
 109	0.000449138	-0.00030156	5.93011e-05
 110	0.000140564	-0.000231446	-7.73806e-05
 111	0.000371135	-0.000538812	5.30468e-05
 112	0.000740695	-0.000362746	0.000182063
 113	0.000134353	-0.000312079	-0.000247922
 114	8.3598e-05	-0.000186241	2.93141e-05
 115	0.00017891	-0.000215737	-0.000402697
 116	9.54189e-05	-0.000287196	-0.000297978
 117	-0.000124732	-0.00055097	9.31836e-06
 118	0.000134123	0.00013459	-0.00016885
 119	0.000203487	-0.000444201	-0.000625216
 120	0.000244408	-0.00010476	-0.000515848
 121	0.000500804	0.000194726	-0.000224339
 122	0.000456838	-2.60974e-05	3.61302e-05
 123	0.000540802	0.000480646	-0.000485205
 124	0.000861791	4.43219e-05	-0.000235617
 125	0.000338843	9.3447e-05	0.000207599
 126	0.000495724	-0.000147101	1.70392e-06
 127	0.000287961	0.000279534	0.00024898
 128	0.000130617	0.000124356	-3.89728e-05
 129	0.000274187	-0.000225057	-3.76607e-05
 130	-7.35307e-05	0.000135495	-0.000304884
 131	6.47978e-05	0.000328279	-3.75998e-05
 132	0.000368838	0.000419835	0.000254075
 133	0.000115808	0.000128578	-7.26896e-05
 134	0.000173864	0.000199066	-0.000167011
 135	0.000157308	0.000231859	-4.10213e-05
 136	0.000114787	1.5763e-05	0.000102962
 137	0.0001053	0.000169969	-0.000212809
 138	0.000121647	0.000198484	-0.000207417
 139	-6.28583e-05	2.92551e-05	-0.000304177
 140	-4.86182e-05	-6.92446e-06	-0.000250954
 141	-0.00103494	-0.000720955	-1.07402e-05
 142	4.32905e-05	0.000599384	-0.00134009
 143	0.000887951	7.52717e-05	0.000597727
 144	-4.83998e-05	4.25915e-06	-0.000355554
 145	-3.00293e-05	0.000116305	-0.000246048
 146	3.15416e-06	-1.43863e-05	-0.000280155
 147	7.56286e-05	7.20858e-07	-0.000520075
 148	2.65439e-06	0.000489902	-0.000305227
 149	-8.79484e-06	-0.000124826	-0.000291101
 150	1.67595e-05	4.17523e-05	-0.000405741
 151	0.000102281	-0.000189572	-0.00039071
 152	0.000100605	-0.000204639	-0.000371944
 153	4.29995e-06	-0.000401418	-0.000372627
 154	-3.91916e-05	-2.65048e-05	-0.000424828
 155	0.000318621	-0.000186723	-0.000353959
 156	6.57846e-06	-0.000145747	-0.000523593
 157	-0.000287855	0.000238733	-1.87112e-05
 158	-0.000320087	0.000127774	0.000100354
 159	-0.00027825	0.000204863	2.4538e-05
 160	-0.000211058	0.000168309	-9.4867e-05
 161	-0.000558817	0.000292208	0.000266612
 162	-0.000375134	-0.000143827	0.000202744
 163	-0.0001768	0.00017835	0.000201901
 164	-0.000635358	0.000140404	0.000184813
 165	-0.000876438	0.000267937	9.51715e-05
 166	-0.000729893	-0.000177376	0.00030301
 167	-0.000589273	0.000239352	0.000164169
 168	0.000769264	2.50686e-05	8.98378e-05
 169	-0.000373969	0.000309091	-0.000412481
 170	-0.00041773	0.000374556	-0.000156284
 171	-0.000262349	0.000858351	-0.000414621
 172	-0.000204997	0.000143093	-0.000950023
 173	-0.000343168	0.000336767	-9.47905e-05
 174	-0.000524797	0.000472352	-0.000170301
 175	-0.000819119	0.000204782	-0.000328601
 176	0.000261789	-0.000190002	-3.05846e-06
 177	0.000185067	-0.000546282	8.65354e-06
 178	0.00060614	-0.00088294	0.000125064
 179	0.000845962	0.000547099	0.000110396
 180	-0.00173319	0.00027709	-0.000583348
 181	-0.000145405	-0.000243536	4.6284e-05
 182	-0.000542319	-6.39851e-05	-0.000172149
 183	-0.000273649	-0.000346245	-8.00738e-05
 184	-1.21032e-05	-5.93867e-05	0.000194367
 185	-0.000764957	-0.000291414	-0.000292805
 186	-0.000577392	-0.000110761	-0.000199897
 187	-0.000867273	-0.000637334	-0.000963292
 188	-0.000703436	-0.000140847	-0.000589636
 189	-0.000486489	-0.000402532	-0.000817393
 190	-0.00138943	0.000302735	-0.000237601
 191	-2.45092e-05	0.000299686	-0.000413009
 192	-0.000855926	-0.000777405	-0.00104321
 193	0.000481848	-4.50532e-05	4.63398e-06
 194	0.000251073	-0.00038112	-5.27482e-05
 195	0.000411233	6.70904e-05	0.000122495
 196	0.000648507	-3.14459e-05	-0.000138184
 197	0.000291926	-0.000432594	-0.000278617
 198	0.000197567	-0.000441617	-4.6647e-05
 199	0.000292963	-0.000347898	-0.000348196
 200	2.0457e-05	-0.000184233	-0.000857866
 201	6.45727e-05	-0.000677883	-0.00198892
 202	0.000513482	-0.000483124	-0.000171675
 203	-0.000711059	0.000830814	-0.000848935
 204	0.000398938	-0.000348576	-0.000177007
 205	0.000332508	0.000433627	0.0002599
 206	0.00046303	0.000136409	5.04904e-05
 207	0.000136238	0.000489983	0.000460122
 208	0.000490944	0.000630689	0.000266623
 209	0.000773593	8.59569e-05	9.60439e-05
 210	0.000246798	1.99063e-05	-3.48144e-05
 211	0.000754415	-0.000179648	-0.000526167
 212	0.000963627	-0.000127986	-0.000257768
 213	0.000585958	0.00020786	-0.000179128
 214	0.00129146	-9.70274e-05	0.000149934
 215	0.00113654	-0.000402048	-0.000533169
 216	0.00054015	-0.000411323	-0.00126649
 217	-0.000168536	0.000112694	0.000746509
 218	-5.87629e-06	0.000291788	0.000283019
 219	1.99341e-05	0.000328167	0.000783193
 220	-0.000125682	0.000100157	0.00109573
 221	-0.00022225	0.000250247	8.6397e-05
 222	-2.3616e-05	0.000308563	0.000142958