pySIMM System Object

146 atoms
145 bonds
264 angles
339 dihedrals
12 impropers

6 atom types
7 bond types
12 angle types
10 dihedral types
1 improper types

-73.264390 73.264390 xlo xhi
-73.264390 73.264390 ylo yhi
-73.264390 73.264390 zlo zhi

Masses

   1	12.01	# c3
   2	1.008	# hc
   3	16.0	# os
   4	1.008	# h1
   5	12.01	# c
   6	16.0	# o

Pair Coeffs

   1	0.1094	3.3996695084235347	# c3
   2	0.0157	2.649532787749369	# hc
   3	0.17	3.0000123434657784	# os
   4	0.0157	2.471353044121301	# h1
   5	0.086	3.3996695084235347	# c
   6	0.21	2.959921901149463	# o

Bond Coeffs

   1	330.6	1.0969	# c3,hc
   2	637.7	1.2183	# c,o
   3	330.6	1.0969	# c3,h1
   4	308.6	1.4316	# c3,os
   5	313.0	1.5241	# c,c3
   6	390.8	1.3584	# c,os
   7	300.9	1.5375	# c3,c3

Angle Coeffs

   1	67.4	123.2	# c3,c,o
   2	46.93	108.77	# c,c3,hc
   3	75.32	123.25	# o,c,os
   4	68.0	107.97	# c3,c3,os
   5	46.34	109.8	# c3,c3,hc
   6	46.39	109.56	# c3,c3,h1
   7	63.28	115.98	# c,os,c3
   8	50.8	109.78	# h1,c3,os
   9	68.89	110.72	# c3,c,os
  10	39.4	107.58	# hc,c3,hc
  11	39.24	108.46	# h1,c3,h1
  12	62.86	111.51	# c3,c3,c3

Dihedral Coeffs

   1	2	0.383	3	0	0.8	1	180	# c3,c3,os,c
   2	2	0.0	3	0	0.25	1	0	# hc,c3,c3,os
   3	1	0.3833333333333333	3	0	# X,c3,os,X
   4	1	0.0	2	180	# X,c,c3,X
   5	3	0.8	1	0	0.0	2	0	0.08	3	180	# hc,c3,c,o
   6	3	2.7	2	180	0.0	1	0	1.15	3	0	# c3,c,os,c3
   7	1	0.15555555555555556	3	0	# X,c3,c3,X
   8	2	2.7	2	180	1.4	1	180	# o,c,os,c3
   9	1	0.16	3	0	# hc,c3,c3,c3
  10	3	0.18	3	0	0.25	2	180	0.2	1	180	# c3,c3,c3,c3

Improper Coeffs

   1	10.5	-1	2	# c,X,X,o

Atoms

   1	1	1	-0.003445	5.05453	-2.25407	5.78001
   2	1	1	0.299845	5.35511	-1.99023	7.27259
   3	1	2	0.023286	5.87495	-2.8256	5.33454
   4	1	2	-0.011958	4.17345	-2.90727	5.72871
   5	1	3	-0.518063	6.43721	-1.06037	7.4673
   6	1	4	0.011666	5.58569	-2.94237	7.7682
   7	1	5	0.843192	7.70576	-1.44093	7.17405
   8	1	1	-0.399874	8.69339	-0.389549	7.6156
   9	1	2	0.119224	8.61981	0.478252	6.95432
  10	1	2	0.109051	9.7064	-0.803606	7.58177
  11	1	2	0.118031	8.45763	-0.0847204	8.64042
  12	1	6	-0.590955	8.03025	-2.50226	6.68001
  13	1	1	-0.003445	4.32876	-1.36014	3.50276
  14	1	1	0.299845	4.79281	-0.981324	4.93786
  15	1	2	0.023286	4.10075	-2.43239	3.4602
  16	1	2	-0.011958	3.37599	-0.866943	3.26946
  17	1	3	-0.518063	3.76102	-0.220221	5.59987
  18	1	4	0.011666	5.71463	-0.385982	4.89611
  19	1	5	0.843192	3.51465	1.04803	5.1779
  20	1	1	-0.399874	2.4271	1.69456	6.00111
  21	1	2	0.119224	2.85813	2.04862	6.94193
  22	1	2	0.109051	1.64024	0.96396	6.21426
  23	1	2	0.118031	2.00538	2.53772	5.44484
  24	1	6	-0.590955	4.09648	1.61025	4.27098
  25	1	1	-0.003445	4.82026	-1.52704	1.01337
  26	1	1	0.299845	5.34177	-1.00525	2.38166
  27	1	2	0.023286	4.28095	-2.46457	1.17876
  28	1	2	-0.011958	4.08498	-0.794842	0.65821
  29	1	3	-0.518063	6.67991	-1.46257	2.69789
  30	1	4	0.011666	5.39205	0.089289	2.31417
  31	1	5	0.843192	6.99802	-2.77895	2.80789
  32	1	1	-0.399874	8.48032	-2.94574	3.02276
  33	1	2	0.119224	8.71335	-2.76271	4.07572
  34	1	2	0.109051	9.02496	-2.22816	2.39957
  35	1	2	0.118031	8.77371	-3.96329	2.74816
  36	1	6	-0.590955	6.23027	-3.70181	2.62564
  37	1	1	-0.003445	5.35722	-2.50415	-1.36988
  38	1	1	0.299845	5.87951	-1.78886	-0.0855653
  39	1	2	0.023286	6.02618	-2.27204	-2.20824
  40	1	2	-0.011958	5.48553	-3.5821	-1.20527
  41	1	3	-0.518063	6.55139	-0.551226	-0.388467
  42	1	4	0.011666	6.61433	-2.47833	0.340613
  43	1	5	0.843192	7.8507	-0.619045	-0.790369
  44	1	1	-0.399874	8.50046	0.743092	-0.793624
  45	1	2	0.119224	8.33946	1.22289	-1.76227
  46	1	2	0.109051	9.57369	0.627376	-0.607604
  47	1	2	0.118031	8.0613	1.35825	-0.00156258
  48	1	6	-0.590955	8.4664	-1.64415	-1.00846
  49	1	1	-0.003445	3.76406	-1.46408	-3.1153
  50	1	1	0.299845	3.87719	-2.24942	-1.79215
  51	1	2	0.023286	4.32995	-1.98851	-3.89593
  52	1	2	-0.011958	4.26839	-0.502119	-2.9727
  53	1	3	-0.518063	3.21916	-3.5238	-1.9731
  54	1	4	0.011666	3.34772	-1.65666	-1.04467
  55	1	5	0.843192	2.514	-4.05355	-0.93312
  56	1	1	-0.399874	1.90438	-5.38555	-1.2913
  57	1	2	0.119224	2.26185	-6.1391	-0.583305
  58	1	2	0.109051	2.18531	-5.67485	-2.30844
  59	1	2	0.118031	0.81421	-5.30311	-1.22455
  60	1	6	-0.590955	2.25622	-3.47143	0.100971
  61	1	1	-0.003445	1.20143	-1.07981	-2.53787
  62	1	1	0.299845	2.30554	-1.26293	-3.62921
  63	1	2	0.023286	1.17867	-1.96691	-1.90222
  64	1	2	-0.011958	1.44329	-0.253794	-1.85923
  65	1	3	-0.518063	2.29272	-0.185129	-4.59453
  66	1	4	0.011666	2.0503	-2.18394	-4.16843
  67	1	5	0.843192	2.54399	1.10548	-4.24031
  68	1	1	-0.399874	2.42251	2.02937	-5.42645
  69	1	2	0.119224	1.89549	2.93681	-5.11619
  70	1	2	0.109051	1.86332	1.53884	-6.23038
  71	1	2	0.118031	3.42473	2.28489	-5.78132
  72	1	6	-0.590955	2.74167	1.5073	-3.11168
  73	1	1	-0.003445	-0.595655	0.489021	-3.55608
  74	1	1	0.299845	-0.24681	-0.92797	-3.06378
  75	1	2	0.023286	-0.0649194	1.24452	-2.9636
  76	1	2	-0.011958	-0.250515	0.61575	-4.58901
  77	1	3	-0.518063	-0.468418	-1.81408	-4.17295
  78	1	4	0.011666	-0.927002	-1.17052	-2.23832
  79	1	5	0.843192	-0.788537	-3.11049	-3.95398
  80	1	1	-0.399874	-0.78579	-3.88716	-5.24916
  81	1	2	0.119224	-0.339136	-4.87061	-5.07758
  82	1	2	0.109051	-0.20026	-3.34883	-6.00329
  83	1	2	0.118031	-1.81245	-3.99777	-5.60984
  84	1	6	-0.590955	-0.946541	-3.61555	-2.85971
  85	1	1	-0.003445	-2.50665	1.26772	-2.04893
  86	1	1	0.299845	-2.12248	0.719342	-3.44654
  87	1	2	0.023286	-1.63984	1.27506	-1.37908
  88	1	2	-0.011958	-2.79775	2.32186	-2.14725
  89	1	3	-0.518063	-2.52586	1.68887	-4.4323
  90	1	4	0.011666	-2.65442	-0.225223	-3.62723
  91	1	5	0.843192	-2.58754	1.29949	-5.73404
  92	1	1	-0.399874	-2.89826	2.46977	-6.63299
  93	1	2	0.119224	-2.31966	3.34006	-6.3084
  94	1	2	0.109051	-3.96613	2.69745	-6.57057
  95	1	2	0.118031	-2.62964	2.21257	-7.6626
  96	1	6	-0.590955	-2.35398	0.181876	-6.14942
  97	1	1	-0.003445	-4.33004	1.29758	-0.251426
  98	1	1	0.299845	-3.66379	0.481489	-1.38762
  99	1	2	0.023286	-3.56323	1.87382	0.282394
 100	1	2	-0.011958	-4.78625	0.625053	0.488212
 101	1	3	-0.518063	-3.2435	-0.8206	-0.916011
 102	1	4	0.011666	-4.4149	0.292151	-2.15886
 103	1	5	0.843192	-2.38949	-0.985418	0.131402
 104	1	1	-0.399874	-2.18725	-2.44856	0.442124
 105	1	2	0.119224	-1.15176	-2.61189	0.757925
 106	1	2	0.109051	-2.39305	-3.05548	-0.446629
 107	1	2	0.118031	-2.86966	-2.7411	1.24556
 108	1	6	-0.590955	-1.82785	-0.0902948	0.728549
 109	1	1	-0.003445	-5.64919	3.48241	0.11861
 110	1	1	0.299845	-5.41196	2.25454	-0.803616
 111	1	2	0.023286	-5.4636	3.2099	1.16023
 112	1	2	-0.011958	-4.85758	4.20875	-0.106168
 113	1	3	-0.518063	-6.61604	1.47663	-0.950344
 114	1	4	0.011666	-5.08328	2.65974	-1.76892
 115	1	5	0.843192	-6.97898	1.0474	-2.18902
 116	1	1	-0.399874	-8.20585	0.174888	-2.12347
 117	1	2	0.119224	-9.0785	0.798804	-1.91127
 118	1	2	0.109051	-8.08346	-0.566039	-1.32723
 119	1	2	0.118031	-8.33583	-0.33526	-3.08352
 120	1	6	-0.590955	-6.3774	1.27678	-3.22004
 121	1	1	-0.003445	-8.22435	3.55741	0.68604
 122	1	1	0.299845	-7.02126	4.21107	-0.047945
 123	1	2	0.023286	-8.49172	2.62284	0.181551
 124	1	2	-0.011958	-9.09845	4.21177	0.569055
 125	1	3	-0.518063	-7.36572	4.2142	-1.44842
 126	1	4	0.011666	-6.92443	5.23869	0.326749
 127	1	5	0.843192	-6.73884	5.06825	-2.294
 128	1	1	-0.399874	-6.9672	4.65729	-3.72809
 129	1	2	0.119224	-6.28141	3.83754	-3.96673
 130	1	2	0.109051	-6.77244	5.50336	-4.39332
 131	1	2	0.118031	-7.99547	4.30638	-3.85791
 132	1	6	-0.590955	-6.01726	5.98298	-1.95381
 133	1	1	-0.003445	-8.1819	4.51634	3.08831
 134	1	1	0.299845	-8.02186	3.26387	2.1943
 135	1	2	0.023286	-7.96706	4.28167	4.13836
 136	1	2	-0.011958	-7.48569	5.30526	2.77648
 137	1	3	-0.518063	-8.99867	2.26649	2.53554
 138	1	4	0.011666	-7.031	2.83379	2.35999
 139	1	5	0.843192	-8.78819	1.48983	3.62852
 140	1	1	-0.399874	-9.75922	0.333735	3.65761
 141	1	2	0.119224	-10.3673	0.329231	2.74686
 142	1	2	0.109051	-10.4098	0.423945	4.5317
 143	1	2	0.118031	-9.18973	-0.599357	3.71271
 144	1	6	-0.590955	-7.84786	1.59113	4.39037
 145	1	4	0	4.45317	-1.58712	7.74861
 146	1	2	0	-9.20128	4.91719	3.02802

Velocities

   1	0.000139091	-0.000341379	0.00038529
   2	-0.000101672	0.000894175	6.66432e-05
   3	2.38299e-05	-0.000557571	0.000727456
   4	-5.68323e-06	-0.000346945	0.000636852
   5	0.000217835	0.000631529	-0.000923087
   6	-0.00101567	0.00136035	0.00139833
   7	0.000131947	8.09877e-05	-0.000178837
   8	-6.79841e-05	0.000611438	-0.00151983
   9	-0.0014057	0.000385624	-0.00166053
  10	0.000215694	0.00108904	-0.00244309
  11	0.000581459	0.000592737	-0.00140986
  12	3.21403e-05	-0.000859907	0.00164981
  13	-9.8969e-05	-8.27615e-05	0.000574629
  14	0.000304507	-0.000336039	0.000266979
  15	-0.00118853	0.000108933	0.000540136
  16	0.00038782	0.000867726	0.000412046
  17	0.000445889	-0.00021093	0.000300772
  18	0.000374253	-0.000466863	0.000133481
  19	0.00117737	-4.42379e-05	0.000662914
  20	0.000358944	-0.000409746	-0.000210597
  21	-0.000915839	-0.0013629	0.000684779
  22	-1.75073e-05	-0.000403886	-0.00196649
  23	0.00127579	0.000131999	-5.29355e-05
  24	0.0015692	2.35823e-05	0.00095006
  25	-0.000140662	-0.00107948	0.000890613
  26	0.000203253	-0.000923798	0.000606177
  27	0.00056657	-0.00146458	0.00108718
  28	-0.000738617	-0.0015349	0.00116128
  29	9.24273e-05	-0.00129998	0.000740456
  30	0.000680151	-0.000963654	0.000263929
  31	3.06005e-05	-0.00127361	0.00126255
  32	8.28451e-05	-0.00127669	0.00102385
  33	0.000547725	-0.00029039	0.000755105
  34	-5.32609e-05	-0.00189073	0.00013694
  35	-1.40061e-05	-0.00152161	0.00187514
  36	-0.00022044	-0.00130384	0.00216752
  37	-0.000177812	-0.000617227	0.000782989
  38	-0.000325236	-0.000348544	0.000792864
  39	0.000345647	-0.00149012	0.0010358
  40	-0.000968429	-0.000576932	0.00151902
  41	-0.00110468	-2.81066e-05	0.000558369
  42	-1.1538e-05	6.4743e-06	0.000779301
  43	-0.00103206	0.000414122	0.000853861
  44	-0.00187376	0.000826016	-0.00132143
  45	-0.00389705	-7.67625e-05	-0.00144582
  46	-0.00145308	0.0015687	-0.00318397
  47	-0.000829446	0.00120128	-0.00102382
  48	-0.000370207	0.000537321	0.00189127
  49	0.000689534	0.000620267	0.000202864
  50	0.000191796	6.68402e-05	-2.93665e-06
  51	0.0010763	0.000911766	0.000248435
  52	0.000368842	0.000736313	0.000660848
  53	-6.53488e-05	0.000286178	-0.000864213
  54	-9.33492e-05	-0.000209936	0.00010356
  55	0.000794956	-0.000701213	-0.000781539
  56	0.000400175	-0.000348198	-0.00130597
  57	-0.000142453	-0.000669726	-0.00138364
  58	0.000489292	-0.000189635	-0.00131414
  59	0.000435139	0.000170346	-0.00152954
  60	0.00237582	-0.00191492	0.000311679
  61	0.000701893	0.000402924	-0.000304437
  62	0.000771801	0.000402866	-0.000236272
  63	0.000829941	0.000506299	-0.000145
  64	0.000654222	0.000454424	-0.00036364
  65	0.000769528	0.000207351	-0.000502157
  66	0.000942842	0.000265654	-9.62462e-05
  67	-4.80621e-05	0.000395572	-0.00071003
  68	1.22618e-05	0.000152467	-0.000899187
  69	0.00114222	0.000829212	-0.000881477
  70	-0.00102652	0.000487529	-0.000399117
  71	2.835e-05	-0.000957183	-0.00166329
  72	-0.000944382	0.000740053	-0.000624109
  73	0.000593925	0.000177637	-0.000546766
  74	0.000631689	0.000306638	-0.0001571
  75	0.000775888	0.000351295	-0.000908931
  76	0.000249788	-0.000231148	-0.000723892
  77	-0.000187636	-0.000217308	0.000393096
  78	0.000857182	0.000646648	0.000109408
  79	0.00313578	-0.000853435	0.00128469
  80	-0.00072991	-0.000620079	0.00120319
  81	-0.00296954	-0.00182645	0.000172741
  82	-0.000564714	-0.00179391	0.000496845
  83	-0.00156303	0.00209462	0.00272016
  84	0.00791264	-0.00132399	0.00191914
  85	0.000581538	0.00065118	-0.000378687
  86	0.000659951	0.000427977	-0.000288733
  87	0.000594136	0.000944955	-0.000376443
  88	0.000359264	0.000554697	-0.000592927
  89	0.000623683	0.000474886	-0.000129637
  90	0.000575486	0.000476996	-0.000155392
  91	-0.000865873	0.000260669	6.17594e-05
  92	-0.00138013	0.000369841	0.000353196
  93	-0.000830449	0.000167642	-0.000123745
  94	-0.00123332	0.000685519	0.00141974
  95	-0.00243819	0.000326244	0.000114104
  96	-0.00208101	5.25874e-05	6.33808e-05
  97	0.000348761	0.000304697	-0.000521982
  98	0.000550096	0.000552931	-0.000531594
  99	0.00022552	0.0005763	-0.000631083
 100	0.000742707	0.000173573	-0.000496021
 101	0.000667596	0.000429516	-0.000806458
 102	0.000567944	0.000760855	-0.000705356
 103	0.000905442	0.000415032	-0.000845857
 104	0.00127205	0.00033976	-0.000976236
 105	0.000950655	0.000860773	0.000332464
 106	0.00272848	0.000360284	-0.00129401
 107	0.000464137	-0.000182699	-0.00186086
 108	0.000814931	0.000361672	-0.000971105
 109	-0.000493048	-0.000362959	7.46408e-05
 110	-0.000195959	-5.11879e-05	-0.000209782
 111	-0.000774065	-0.000759954	-2.48248e-05
 112	-0.000594495	-0.000147537	0.000710609
 113	-1.08311e-05	-0.000294225	0.000182802
 114	-0.000552996	0.000361693	-0.000226758
 115	-0.000679199	0.000165074	0.000293074
 116	-0.00102919	0.000548566	0.000764104
 117	-0.000685005	0.000764714	0.00161172
 118	-0.000834416	0.000171021	0.000352326
 119	-0.00183175	0.00101805	0.000619756
 120	-0.0013133	0.000537082	6.09924e-05
 121	-0.000775621	-0.000967052	-0.000791423
 122	-0.000730287	-0.000462507	-0.000147899
 123	-0.000268079	-0.00101179	-0.000756907
 124	-0.00102513	-0.00130138	-0.000928606
 125	-0.000357221	0.000804723	-0.000200521
 126	-0.000909727	-0.000640725	0.000463425
 127	0.00184793	-0.000179054	0.000205023
 128	-0.000891998	0.00247302	-0.000166954
 129	-0.00242402	0.00193377	-0.00247609
 130	-0.000835516	0.00334237	0.0010233
 131	-0.0015068	0.00413086	0.000913294
 132	0.00542535	-0.00332807	0.00081333
 133	-0.000667014	-0.00076546	-0.0010298
 134	-0.000742811	-0.000880492	-0.000824478
 135	-0.00170689	-0.00100946	-0.000820139
 136	-0.000450363	-0.000639426	-0.000637715
 137	-0.000809342	-0.000489356	-0.000127162
 138	-0.000807764	-0.000603119	-0.000850949
 139	0.000161186	-0.000540665	-0.000164968
 140	-0.00124654	0.000620197	0.00167519
 141	-0.00137899	3.56474e-05	0.00180261
 142	-0.000896527	0.00273142	0.00168785
 143	-0.00225317	9.23006e-05	0.00294811
 144	0.00116992	-0.00106681	-0.00131613
 145	-2.89571e-06	0.00218994	-0.000940058
 146	-0.000679842	-0.000777595	-0.00181657

Bonds

   1	7	1	2
   2	1	1	3
   3	1	1	4
   4	4	2	5
   5	3	2	6
   6	6	5	7
   7	5	7	8
   8	2	7	12
   9	1	8	9
  10	1	8	10
  11	1	8	11
  12	7	13	14
  13	1	13	15
  14	1	13	16
  15	4	14	17
  16	3	14	18
  17	6	17	19
  18	5	19	20
  19	2	19	24
  20	1	20	21
  21	1	20	22
  22	1	20	23
  23	7	1	14
  24	7	25	26
  25	1	25	27
  26	1	25	28
  27	4	26	29
  28	3	26	30
  29	6	29	31
  30	5	31	32
  31	2	31	36
  32	1	32	33
  33	1	32	34
  34	1	32	35
  35	7	13	26
  36	7	37	38
  37	1	37	39
  38	1	37	40
  39	4	38	41
  40	3	38	42
  41	6	41	43
  42	5	43	44
  43	2	43	48
  44	1	44	45
  45	1	44	46
  46	1	44	47
  47	7	25	38
  48	7	49	50
  49	1	49	51
  50	1	49	52
  51	4	50	53
  52	3	50	54
  53	6	53	55
  54	5	55	56
  55	2	55	60
  56	1	56	57
  57	1	56	58
  58	1	56	59
  59	7	37	50
  60	7	61	62
  61	1	61	63
  62	1	61	64
  63	4	62	65
  64	3	62	66
  65	6	65	67
  66	5	67	68
  67	2	67	72
  68	1	68	69
  69	1	68	70
  70	1	68	71
  71	7	49	62
  72	7	73	74
  73	1	73	75
  74	1	73	76
  75	4	74	77
  76	3	74	78
  77	6	77	79
  78	5	79	80
  79	2	79	84
  80	1	80	81
  81	1	80	82
  82	1	80	83
  83	7	61	74
  84	7	85	86
  85	1	85	87
  86	1	85	88
  87	4	86	89
  88	3	86	90
  89	6	89	91
  90	5	91	92
  91	2	91	96
  92	1	92	93
  93	1	92	94
  94	1	92	95
  95	7	73	86
  96	7	97	98
  97	1	97	99
  98	1	97	100
  99	4	98	101
 100	3	98	102
 101	6	101	103
 102	5	103	104
 103	2	103	108
 104	1	104	105
 105	1	104	106
 106	1	104	107
 107	7	85	98
 108	7	109	110
 109	1	109	111
 110	1	109	112
 111	4	110	113
 112	3	110	114
 113	6	113	115
 114	5	115	116
 115	2	115	120
 116	1	116	117
 117	1	116	118
 118	1	116	119
 119	7	97	110
 120	7	121	122
 121	1	121	123
 122	1	121	124
 123	4	122	125
 124	3	122	126
 125	6	125	127
 126	5	127	128
 127	2	127	132
 128	1	128	129
 129	1	128	130
 130	1	128	131
 131	7	109	122
 132	7	133	134
 133	1	133	135
 134	1	133	136
 135	4	134	137
 136	3	134	138
 137	6	137	139
 138	5	139	140
 139	2	139	144
 140	1	140	141
 141	1	140	142
 142	1	140	143
 143	7	121	134
 144	3	2	145
 145	1	133	146

Angles

   1	5	2	1	3
   2	5	2	1	4
   3	10	3	1	4
   4	4	1	2	5
   5	6	1	2	6
   6	8	5	2	6
   7	7	2	5	7
   8	9	5	7	8
   9	3	5	7	12
  10	1	8	7	12
  11	2	7	8	9
  12	2	7	8	10
  13	2	7	8	11
  14	10	9	8	10
  15	10	9	8	11
  16	10	10	8	11
  17	5	14	13	15
  18	5	14	13	16
  19	10	15	13	16
  20	4	13	14	17
  21	6	13	14	18
  22	8	17	14	18
  23	7	14	17	19
  24	9	17	19	20
  25	3	17	19	24
  26	1	20	19	24
  27	2	19	20	21
  28	2	19	20	22
  29	2	19	20	23
  30	10	21	20	22
  31	10	21	20	23
  32	10	22	20	23
  33	12	2	1	14
  34	5	3	1	14
  35	5	4	1	14
  36	12	1	14	13
  37	4	1	14	17
  38	6	1	14	18
  39	5	26	25	27
  40	5	26	25	28
  41	10	27	25	28
  42	4	25	26	29
  43	6	25	26	30
  44	8	29	26	30
  45	7	26	29	31
  46	9	29	31	32
  47	3	29	31	36
  48	1	32	31	36
  49	2	31	32	33
  50	2	31	32	34
  51	2	31	32	35
  52	10	33	32	34
  53	10	33	32	35
  54	10	34	32	35
  55	12	14	13	26
  56	5	15	13	26
  57	5	16	13	26
  58	12	13	26	25
  59	4	13	26	29
  60	6	13	26	30
  61	5	38	37	39
  62	5	38	37	40
  63	10	39	37	40
  64	4	37	38	41
  65	6	37	38	42
  66	8	41	38	42
  67	7	38	41	43
  68	9	41	43	44
  69	3	41	43	48
  70	1	44	43	48
  71	2	43	44	45
  72	2	43	44	46
  73	2	43	44	47
  74	10	45	44	46
  75	10	45	44	47
  76	10	46	44	47
  77	12	26	25	38
  78	5	27	25	38
  79	5	28	25	38
  80	12	25	38	37
  81	4	25	38	41
  82	6	25	38	42
  83	5	50	49	51
  84	5	50	49	52
  85	10	51	49	52
  86	4	49	50	53
  87	6	49	50	54
  88	8	53	50	54
  89	7	50	53	55
  90	9	53	55	56
  91	3	53	55	60
  92	1	56	55	60
  93	2	55	56	57
  94	2	55	56	58
  95	2	55	56	59
  96	10	57	56	58
  97	10	57	56	59
  98	10	58	56	59
  99	12	38	37	50
 100	5	39	37	50
 101	5	40	37	50
 102	12	37	50	49
 103	4	37	50	53
 104	6	37	50	54
 105	5	62	61	63
 106	5	62	61	64
 107	10	63	61	64
 108	4	61	62	65
 109	6	61	62	66
 110	8	65	62	66
 111	7	62	65	67
 112	9	65	67	68
 113	3	65	67	72
 114	1	68	67	72
 115	2	67	68	69
 116	2	67	68	70
 117	2	67	68	71
 118	10	69	68	70
 119	10	69	68	71
 120	10	70	68	71
 121	12	50	49	62
 122	5	51	49	62
 123	5	52	49	62
 124	12	49	62	61
 125	4	49	62	65
 126	6	49	62	66
 127	5	74	73	75
 128	5	74	73	76
 129	10	75	73	76
 130	4	73	74	77
 131	6	73	74	78
 132	8	77	74	78
 133	7	74	77	79
 134	9	77	79	80
 135	3	77	79	84
 136	1	80	79	84
 137	2	79	80	81
 138	2	79	80	82
 139	2	79	80	83
 140	10	81	80	82
 141	10	81	80	83
 142	10	82	80	83
 143	12	62	61	74
 144	5	63	61	74
 145	5	64	61	74
 146	12	61	74	73
 147	4	61	74	77
 148	6	61	74	78
 149	5	86	85	87
 150	5	86	85	88
 151	10	87	85	88
 152	4	85	86	89
 153	6	85	86	90
 154	8	89	86	90
 155	7	86	89	91
 156	9	89	91	92
 157	3	89	91	96
 158	1	92	91	96
 159	2	91	92	93
 160	2	91	92	94
 161	2	91	92	95
 162	10	93	92	94
 163	10	93	92	95
 164	10	94	92	95
 165	12	74	73	86
 166	5	75	73	86
 167	5	76	73	86
 168	12	73	86	85
 169	4	73	86	89
 170	6	73	86	90
 171	5	98	97	99
 172	5	98	97	100
 173	10	99	97	100
 174	4	97	98	101
 175	6	97	98	102
 176	8	101	98	102
 177	7	98	101	103
 178	9	101	103	104
 179	3	101	103	108
 180	1	104	103	108
 181	2	103	104	105
 182	2	103	104	106
 183	2	103	104	107
 184	10	105	104	106
 185	10	105	104	107
 186	10	106	104	107
 187	12	86	85	98
 188	5	87	85	98
 189	5	88	85	98
 190	12	85	98	97
 191	4	85	98	101
 192	6	85	98	102
 193	5	110	109	111
 194	5	110	109	112
 195	10	111	109	112
 196	4	109	110	113
 197	6	109	110	114
 198	8	113	110	114
 199	7	110	113	115
 200	9	113	115	116
 201	3	113	115	120
 202	1	116	115	120
 203	2	115	116	117
 204	2	115	116	118
 205	2	115	116	119
 206	10	117	116	118
 207	10	117	116	119
 208	10	118	116	119
 209	12	98	97	110
 210	5	99	97	110
 211	5	100	97	110
 212	12	97	110	109
 213	4	97	110	113
 214	6	97	110	114
 215	5	122	121	123
 216	5	122	121	124
 217	10	123	121	124
 218	4	121	122	125
 219	6	121	122	126
 220	8	125	122	126
 221	7	122	125	127
 222	9	125	127	128
 223	3	125	127	132
 224	1	128	127	132
 225	2	127	128	129
 226	2	127	128	130
 227	2	127	128	131
 228	10	129	128	130
 229	10	129	128	131
 230	10	130	128	131
 231	12	110	109	122
 232	5	111	109	122
 233	5	112	109	122
 234	12	109	122	121
 235	4	109	122	125
 236	6	109	122	126
 237	5	134	133	135
 238	5	134	133	136
 239	10	135	133	136
 240	4	133	134	137
 241	6	133	134	138
 242	8	137	134	138
 243	7	134	137	139
 244	9	137	139	140
 245	3	137	139	144
 246	1	140	139	144
 247	2	139	140	141
 248	2	139	140	142
 249	2	139	140	143
 250	10	141	140	142
 251	10	141	140	143
 252	10	142	140	143
 253	12	122	121	134
 254	5	123	121	134
 255	5	124	121	134
 256	12	121	134	133
 257	4	121	134	137
 258	6	121	134	138
 259	6	1	2	145
 260	8	5	2	145
 261	11	6	2	145
 262	5	134	133	146
 263	10	135	133	146
 264	10	136	133	146

Dihedrals

   1	2	3	1	2	5
   2	7	3	1	2	6
   3	2	4	1	2	5
   4	7	4	1	2	6
   5	1	1	2	5	7
   6	3	6	2	5	7
   7	6	2	5	7	8
   8	8	2	5	7	12
   9	4	5	7	8	9
  10	4	5	7	8	10
  11	4	5	7	8	11
  12	5	12	7	8	9
  13	5	12	7	8	10
  14	5	12	7	8	11
  15	2	15	13	14	17
  16	7	15	13	14	18
  17	2	16	13	14	17
  18	7	16	13	14	18
  19	1	13	14	17	19
  20	3	18	14	17	19
  21	6	14	17	19	20
  22	8	14	17	19	24
  23	4	17	19	20	21
  24	4	17	19	20	22
  25	4	17	19	20	23
  26	5	24	19	20	21
  27	5	24	19	20	22
  28	5	24	19	20	23
  29	7	5	2	1	14
  30	7	6	2	1	14
  31	9	1	14	13	15
  32	9	1	14	13	16
  33	1	1	14	17	19
  34	10	2	1	14	13
  35	7	2	1	14	17
  36	7	2	1	14	18
  37	9	3	1	14	13
  38	2	3	1	14	17
  39	7	3	1	14	18
  40	9	4	1	14	13
  41	2	4	1	14	17
  42	7	4	1	14	18
  43	2	27	25	26	29
  44	7	27	25	26	30
  45	2	28	25	26	29
  46	7	28	25	26	30
  47	1	25	26	29	31
  48	3	30	26	29	31
  49	6	26	29	31	32
  50	8	26	29	31	36
  51	4	29	31	32	33
  52	4	29	31	32	34
  53	4	29	31	32	35
  54	5	36	31	32	33
  55	5	36	31	32	34
  56	5	36	31	32	35
  57	7	17	14	13	26
  58	7	18	14	13	26
  59	10	1	14	13	26
  60	9	13	26	25	27
  61	9	13	26	25	28
  62	1	13	26	29	31
  63	10	14	13	26	25
  64	7	14	13	26	29
  65	7	14	13	26	30
  66	9	15	13	26	25
  67	2	15	13	26	29
  68	7	15	13	26	30
  69	9	16	13	26	25
  70	2	16	13	26	29
  71	7	16	13	26	30
  72	2	39	37	38	41
  73	7	39	37	38	42
  74	2	40	37	38	41
  75	7	40	37	38	42
  76	1	37	38	41	43
  77	3	42	38	41	43
  78	6	38	41	43	44
  79	8	38	41	43	48
  80	4	41	43	44	45
  81	4	41	43	44	46
  82	4	41	43	44	47
  83	5	48	43	44	45
  84	5	48	43	44	46
  85	5	48	43	44	47
  86	7	29	26	25	38
  87	7	30	26	25	38
  88	10	13	26	25	38
  89	9	25	38	37	39
  90	9	25	38	37	40
  91	1	25	38	41	43
  92	10	26	25	38	37
  93	7	26	25	38	41
  94	7	26	25	38	42
  95	9	27	25	38	37
  96	2	27	25	38	41
  97	7	27	25	38	42
  98	9	28	25	38	37
  99	2	28	25	38	41
 100	7	28	25	38	42
 101	2	51	49	50	53
 102	7	51	49	50	54
 103	2	52	49	50	53
 104	7	52	49	50	54
 105	1	49	50	53	55
 106	3	54	50	53	55
 107	6	50	53	55	56
 108	8	50	53	55	60
 109	4	53	55	56	57
 110	4	53	55	56	58
 111	4	53	55	56	59
 112	5	60	55	56	57
 113	5	60	55	56	58
 114	5	60	55	56	59
 115	7	41	38	37	50
 116	7	42	38	37	50
 117	10	25	38	37	50
 118	9	37	50	49	51
 119	9	37	50	49	52
 120	1	37	50	53	55
 121	10	38	37	50	49
 122	7	38	37	50	53
 123	7	38	37	50	54
 124	9	39	37	50	49
 125	2	39	37	50	53
 126	7	39	37	50	54
 127	9	40	37	50	49
 128	2	40	37	50	53
 129	7	40	37	50	54
 130	2	63	61	62	65
 131	7	63	61	62	66
 132	2	64	61	62	65
 133	7	64	61	62	66
 134	1	61	62	65	67
 135	3	66	62	65	67
 136	6	62	65	67	68
 137	8	62	65	67	72
 138	4	65	67	68	69
 139	4	65	67	68	70
 140	4	65	67	68	71
 141	5	72	67	68	69
 142	5	72	67	68	70
 143	5	72	67	68	71
 144	7	53	50	49	62
 145	7	54	50	49	62
 146	10	37	50	49	62
 147	9	49	62	61	63
 148	9	49	62	61	64
 149	1	49	62	65	67
 150	10	50	49	62	61
 151	7	50	49	62	65
 152	7	50	49	62	66
 153	9	51	49	62	61
 154	2	51	49	62	65
 155	7	51	49	62	66
 156	9	52	49	62	61
 157	2	52	49	62	65
 158	7	52	49	62	66
 159	2	75	73	74	77
 160	7	75	73	74	78
 161	2	76	73	74	77
 162	7	76	73	74	78
 163	1	73	74	77	79
 164	3	78	74	77	79
 165	6	74	77	79	80
 166	8	74	77	79	84
 167	4	77	79	80	81
 168	4	77	79	80	82
 169	4	77	79	80	83
 170	5	84	79	80	81
 171	5	84	79	80	82
 172	5	84	79	80	83
 173	7	65	62	61	74
 174	7	66	62	61	74
 175	10	49	62	61	74
 176	9	61	74	73	75
 177	9	61	74	73	76
 178	1	61	74	77	79
 179	10	62	61	74	73
 180	7	62	61	74	77
 181	7	62	61	74	78
 182	9	63	61	74	73
 183	2	63	61	74	77
 184	7	63	61	74	78
 185	9	64	61	74	73
 186	2	64	61	74	77
 187	7	64	61	74	78
 188	2	87	85	86	89
 189	7	87	85	86	90
 190	2	88	85	86	89
 191	7	88	85	86	90
 192	1	85	86	89	91
 193	3	90	86	89	91
 194	6	86	89	91	92
 195	8	86	89	91	96
 196	4	89	91	92	93
 197	4	89	91	92	94
 198	4	89	91	92	95
 199	5	96	91	92	93
 200	5	96	91	92	94
 201	5	96	91	92	95
 202	7	77	74	73	86
 203	7	78	74	73	86
 204	10	61	74	73	86
 205	9	73	86	85	87
 206	9	73	86	85	88
 207	1	73	86	89	91
 208	10	74	73	86	85
 209	7	74	73	86	89
 210	7	74	73	86	90
 211	9	75	73	86	85
 212	2	75	73	86	89
 213	7	75	73	86	90
 214	9	76	73	86	85
 215	2	76	73	86	89
 216	7	76	73	86	90
 217	2	99	97	98	101
 218	7	99	97	98	102
 219	2	100	97	98	101
 220	7	100	97	98	102
 221	1	97	98	101	103
 222	3	102	98	101	103
 223	6	98	101	103	104
 224	8	98	101	103	108
 225	4	101	103	104	105
 226	4	101	103	104	106
 227	4	101	103	104	107
 228	5	108	103	104	105
 229	5	108	103	104	106
 230	5	108	103	104	107
 231	7	89	86	85	98
 232	7	90	86	85	98
 233	10	73	86	85	98
 234	9	85	98	97	99
 235	9	85	98	97	100
 236	1	85	98	101	103
 237	10	86	85	98	97
 238	7	86	85	98	101
 239	7	86	85	98	102
 240	9	87	85	98	97
 241	2	87	85	98	101
 242	7	87	85	98	102
 243	9	88	85	98	97
 244	2	88	85	98	101
 245	7	88	85	98	102
 246	2	111	109	110	113
 247	7	111	109	110	114
 248	2	112	109	110	113
 249	7	112	109	110	114
 250	1	109	110	113	115
 251	3	114	110	113	115
 252	6	110	113	115	116
 253	8	110	113	115	120
 254	4	113	115	116	117
 255	4	113	115	116	118
 256	4	113	115	116	119
 257	5	120	115	116	117
 258	5	120	115	116	118
 259	5	120	115	116	119
 260	7	101	98	97	110
 261	7	102	98	97	110
 262	10	85	98	97	110
 263	9	97	110	109	111
 264	9	97	110	109	112
 265	1	97	110	113	115
 266	10	98	97	110	109
 267	7	98	97	110	113
 268	7	98	97	110	114
 269	9	99	97	110	109
 270	2	99	97	110	113
 271	7	99	97	110	114
 272	9	100	97	110	109
 273	2	100	97	110	113
 274	7	100	97	110	114
 275	2	123	121	122	125
 276	7	123	121	122	126
 277	2	124	121	122	125
 278	7	124	121	122	126
 279	1	121	122	125	127
 280	3	126	122	125	127
 281	6	122	125	127	128
 282	8	122	125	127	132
 283	4	125	127	128	129
 284	4	125	127	128	130
 285	4	125	127	128	131
 286	5	132	127	128	129
 287	5	132	127	128	130
 288	5	132	127	128	131
 289	7	113	110	109	122
 290	7	114	110	109	122
 291	10	97	110	109	122
 292	9	109	122	121	123
 293	9	109	122	121	124
 294	1	109	122	125	127
 295	10	110	109	122	121
 296	7	110	109	122	125
 297	7	110	109	122	126
 298	9	111	109	122	121
 299	2	111	109	122	125
 300	7	111	109	122	126
 301	9	112	109	122	121
 302	2	112	109	122	125
 303	7	112	109	122	126
 304	2	135	133	134	137
 305	7	135	133	134	138
 306	2	136	133	134	137
 307	7	136	133	134	138
 308	1	133	134	137	139
 309	3	138	134	137	139
 310	6	134	137	139	140
 311	8	134	137	139	144
 312	4	137	139	140	141
 313	4	137	139	140	142
 314	4	137	139	140	143
 315	5	144	139	140	141
 316	5	144	139	140	142
 317	5	144	139	140	143
 318	7	125	122	121	134
 319	7	126	122	121	134
 320	10	109	122	121	134
 321	9	121	134	133	135
 322	9	121	134	133	136
 323	1	121	134	137	139
 324	10	122	121	134	133
 325	7	122	121	134	137
 326	7	122	121	134	138
 327	9	123	121	134	133
 328	2	123	121	134	137
 329	7	123	121	134	138
 330	9	124	121	134	133
 331	2	124	121	134	137
 332	7	124	121	134	138
 333	7	3	1	2	145
 334	7	4	1	2	145
 335	7	14	1	2	145
 336	3	7	5	2	145
 337	2	137	134	133	146
 338	7	138	134	133	146
 339	9	121	134	133	146

Impropers

   1	1	7	5	8	12
   2	1	19	17	20	24
   3	1	31	29	32	36
   4	1	43	41	44	48
   5	1	55	53	56	60
   6	1	67	65	68	72
   7	1	79	77	80	84
   8	1	91	89	92	96
   9	1	103	101	104	108
  10	1	115	113	116	120
  11	1	127	125	128	132
  12	1	139	137	140	144

