pySIMM System Object

266 atoms
265 bonds
484 angles
629 dihedrals
22 impropers

6 atom types
7 bond types
12 angle types
10 dihedral types
1 improper types

-90.887009 90.887009 xlo xhi
-90.887009 90.887009 ylo yhi
-90.887009 90.887009 zlo zhi

Masses

   1	12.01	# c3
   2	1.008	# hc
   3	16.0	# os
   4	1.008	# h1
   5	12.01	# c
   6	16.0	# o

Pair Coeffs

   1	0.1094	3.3996695084235347	# c3
   2	0.0157	2.649532787749369	# hc
   3	0.17	3.0000123434657784	# os
   4	0.0157	2.471353044121301	# h1
   5	0.086	3.3996695084235347	# c
   6	0.21	2.959921901149463	# o

Bond Coeffs

   1	330.6	1.0969	# c3,hc
   2	637.7	1.2183	# c,o
   3	330.6	1.0969	# c3,h1
   4	308.6	1.4316	# c3,os
   5	313.0	1.5241	# c,c3
   6	390.8	1.3584	# c,os
   7	300.9	1.5375	# c3,c3

Angle Coeffs

   1	67.4	123.2	# c3,c,o
   2	46.93	108.77	# c,c3,hc
   3	75.32	123.25	# o,c,os
   4	68.0	107.97	# c3,c3,os
   5	46.34	109.8	# c3,c3,hc
   6	46.39	109.56	# c3,c3,h1
   7	63.28	115.98	# c,os,c3
   8	50.8	109.78	# h1,c3,os
   9	68.89	110.72	# c3,c,os
  10	39.4	107.58	# hc,c3,hc
  11	39.24	108.46	# h1,c3,h1
  12	62.86	111.51	# c3,c3,c3

Dihedral Coeffs

   1	2	0.383	3	0	0.8	1	180	# c3,c3,os,c
   2	2	0.0	3	0	0.25	1	0	# hc,c3,c3,os
   3	1	0.3833333333333333	3	0	# X,c3,os,X
   4	1	0.0	2	180	# X,c,c3,X
   5	3	0.8	1	0	0.0	2	0	0.08	3	180	# hc,c3,c,o
   6	3	2.7	2	180	0.0	1	0	1.15	3	0	# c3,c,os,c3
   7	1	0.15555555555555556	3	0	# X,c3,c3,X
   8	2	2.7	2	180	1.4	1	180	# o,c,os,c3
   9	1	0.16	3	0	# hc,c3,c3,c3
  10	3	0.18	3	0	0.25	2	180	0.2	1	180	# c3,c3,c3,c3

Improper Coeffs

   1	10.5	-1	2	# c,X,X,o

Atoms

   1	1	1	-0.003445	-8.72475	7.03613	-9.54487
   2	1	1	0.299845	-8.79857	7.29232	-8.01987
   3	1	2	0.023286	-9.64751	7.39831	-10.0148
   4	1	2	-0.011958	-7.90565	7.61918	-9.98364
   5	1	3	-0.518063	-9.16532	8.65713	-7.75335
   6	1	4	0.011666	-7.84074	7.0578	-7.53863
   7	1	5	0.843192	-8.23077	9.62958	-7.91361
   8	1	1	-0.399874	-8.77969	10.9853	-7.53435
   9	1	2	0.119224	-8.66043	11.6697	-8.37916
  10	1	2	0.109051	-8.22568	11.3644	-6.67011
  11	1	2	0.118031	-9.84106	10.9057	-7.27722
  12	1	6	-0.590955	-7.07219	9.44445	-8.22854
  13	1	1	-0.003445	-7.20665	4.95413	-9.32968
  14	1	1	0.299845	-8.51825	5.54169	-9.90472
  15	1	2	0.023286	-6.36096	5.56533	-9.66841
  16	1	2	-0.011958	-7.21211	5.03429	-8.23552
  17	1	3	-0.518063	-9.62614	4.77007	-9.40002
  18	1	4	0.011666	-8.47065	5.46198	-10.9974
  19	1	5	0.843192	-10.7678	4.73856	-10.1389
  20	1	1	-0.399874	-11.844	3.93509	-9.45202
  21	1	2	0.119224	-12.5351	3.54605	-10.2066
  22	1	2	0.109051	-12.3839	4.58401	-8.75619
  23	1	2	0.118031	-11.3931	3.10336	-8.90247
  24	1	6	-0.590955	-10.9241	5.27301	-11.2183
  25	1	1	-0.003445	-5.5065	3.03288	-9.37448
  26	1	1	0.299845	-6.96289	3.46202	-9.68789
  27	1	2	0.023286	-4.83273	3.57885	-10.0419
  28	1	2	-0.011958	-5.24663	3.34974	-8.35572
  29	1	3	-0.518063	-7.29497	3.13169	-11.0583
  30	1	4	0.011666	-7.63379	2.87756	-9.04636
  31	1	5	0.843192	-6.72743	3.76389	-12.124
  32	1	1	-0.399874	-7.23499	3.18317	-13.4227
  33	1	2	0.119224	-7.89809	2.3346	-13.2258
  34	1	2	0.109051	-6.37897	2.84332	-14.0134
  35	1	2	0.118031	-7.78375	3.95545	-13.9697
  36	1	6	-0.590955	-6.07614	4.78745	-12.0638
  37	1	1	-0.003445	-3.84517	1.06227	-9.08615
  38	1	1	0.299845	-5.27901	1.50304	-9.49773
  39	1	2	0.023286	-3.79122	1.20913	-8.00501
  40	1	2	-0.011958	-3.72431	-0.0171796	-9.23875
  41	1	3	-0.518063	-6.2007	0.891626	-8.57296
  42	1	4	0.011666	-5.50514	1.17566	-10.5195
  43	1	5	0.843192	-6.47005	-0.43444	-8.67755
  44	1	1	-0.399874	-7.43853	-0.859191	-7.60202
  45	1	2	0.119224	-7.67788	-1.91975	-7.7274
  46	1	2	0.109051	-8.35097	-0.26041	-7.68316
  47	1	2	0.118031	-6.98248	-0.693451	-6.62159
  48	1	6	-0.590955	-6.02948	-1.18426	-9.52457
  49	1	1	-0.003445	-1.32677	1.66221	-8.98567
  50	1	1	0.299845	-2.65289	1.78676	-9.78527
  51	1	2	0.023286	-0.52069	2.13475	-9.5605
  52	1	2	-0.011958	-1.05722	0.601641	-8.90161
  53	1	3	-0.518063	-2.39332	1.17247	-11.0659
  54	1	4	0.011666	-2.85403	2.85597	-9.91118
  55	1	5	0.843192	-3.16053	1.47469	-12.1451
  56	1	1	-0.399874	-2.72772	0.700294	-13.3644
  57	1	2	0.119224	-3.16221	1.16125	-14.2574
  58	1	2	0.109051	-3.07354	-0.33396	-13.2741
  59	1	2	0.118031	-1.63613	0.714449	-13.436
  60	1	6	-0.590955	-4.0617	2.28638	-12.1616
  61	1	1	-0.003445	-0.0452509	2.20465	-6.76864
  62	1	1	0.299845	-1.38152	2.28146	-7.55979
  63	1	2	0.023286	0.794901	2.45748	-7.42741
  64	1	2	-0.011958	-0.0568033	2.95915	-5.97057
  65	1	3	-0.518063	-1.90349	3.6271	-7.57553
  66	1	4	0.011666	-2.11168	1.7159	-6.98238
  67	1	5	0.843192	-1.22242	4.6598	-8.13479
  68	1	1	-0.399874	-1.98108	5.95039	-7.948
  69	1	2	0.119224	-1.84283	6.29912	-6.92006
  70	1	2	0.109051	-3.04782	5.78285	-8.12934
  71	1	2	0.118031	-1.6031	6.70158	-8.64832
  72	1	6	-0.590955	-0.157897	4.57146	-8.71039
  73	1	1	-0.003445	1.48612	0.80231	-5.25323
  74	1	1	0.299845	0.211202	0.815564	-6.12731
  75	1	2	0.023286	2.34724	1.15827	-5.83299
  76	1	2	-0.011958	1.35294	1.5097	-4.42327
  77	1	3	-0.518063	-0.887867	0.522653	-5.24183
  78	1	4	0.011666	0.320327	0.0594439	-6.91551
  79	1	5	0.843192	-1.83158	-0.383929	-5.60145
  80	1	1	-0.399874	-2.99435	-0.343647	-4.64285
  81	1	2	0.119224	-3.22725	0.699271	-4.40295
  82	1	2	0.109051	-2.72416	-0.870003	-3.72201
  83	1	2	0.118031	-3.86601	-0.81634	-5.10577
  84	1	6	-0.590955	-1.84619	-0.985433	-6.65619
  85	1	1	-0.003445	2.66167	-1.48327	-5.61118
  86	1	1	0.299845	1.77723	-0.611781	-4.69379
  87	1	2	0.023286	2.35047	-1.38549	-6.6594
  88	1	2	-0.011958	3.7008	-1.13253	-5.55474
  89	1	3	-0.518063	2.48734	-0.479638	-3.44682
  90	1	4	0.011666	0.83006	-1.14566	-4.54459
  91	1	5	0.843192	1.78679	-0.519974	-2.28197
  92	1	1	-0.399874	2.71398	-0.338143	-1.10556
  93	1	2	0.119224	3.56925	-1.01341	-1.20478
  94	1	2	0.109051	2.17672	-0.553539	-0.177038
  95	1	2	0.118031	3.07113	0.696037	-1.09023
  96	1	6	-0.590955	0.615052	-0.823011	-2.17725
  97	1	1	-0.003445	3.84264	-3.78446	-5.29159
  98	1	1	0.299845	2.54121	-2.95497	-5.15285
  99	1	2	0.023286	4.72747	-3.13698	-5.25115
 100	1	2	-0.011958	3.86166	-4.27821	-6.2728
 101	1	3	-0.518063	1.52981	-3.56683	-5.97563
 102	1	4	0.011666	2.2409	-2.951	-4.09721
 103	1	5	0.843192	0.673662	-4.46926	-5.43126
 104	1	1	-0.399874	-0.167421	-5.11865	-6.50047
 105	1	2	0.119224	-0.695832	-4.34465	-7.06612
 106	1	2	0.109051	-0.887467	-5.80069	-6.03749
 107	1	2	0.118031	0.486234	-5.67734	-7.17764
 108	1	6	-0.590955	0.570418	-4.70769	-4.24438
 109	1	1	-0.003445	4.49666	-4.23633	-2.84868
 110	1	1	0.299845	3.93146	-4.83588	-4.16215
 111	1	2	0.023286	5.53969	-3.94803	-3.02678
 112	1	2	-0.011958	3.96532	-3.30676	-2.60512
 113	1	3	-0.518063	4.7886	-5.90259	-4.60558
 114	1	4	0.011666	2.92144	-5.21076	-3.98766
 115	1	5	0.843192	4.42514	-7.18283	-4.32686
 116	1	1	-0.399874	5.46909	-8.16506	-4.78376
 117	1	2	0.119224	6.39029	-7.98669	-4.21987
 118	1	2	0.109051	5.65835	-8.02393	-5.8516
 119	1	2	0.118031	5.11302	-9.18282	-4.59612
 120	1	6	-0.590955	3.3812	-7.51667	-3.80228
 121	1	1	-0.003445	2.94962	-5.34389	-1.1224
 122	1	1	0.299845	4.40203	-5.20127	-1.63588
 123	1	2	0.023286	2.27889	-5.61895	-1.94455
 124	1	2	-0.011958	2.60892	-4.35659	-0.788225
 125	1	3	-0.518063	5.19684	-4.67092	-0.554851
 126	1	4	0.011666	4.78435	-6.18556	-1.91963
 127	1	5	0.843192	6.5488	-4.81518	-0.626852
 128	1	1	-0.399874	7.23386	-4.15153	0.542931
 129	1	2	0.119224	6.70499	-3.23072	0.807507
 130	1	2	0.109051	8.2666	-3.91418	0.266241
 131	1	2	0.118031	7.22982	-4.83577	1.3953
 132	1	6	-0.590955	7.15476	-5.33113	-1.54448
 133	1	1	-0.003445	1.63864	-6.05943	0.976979
 134	1	1	0.299845	2.79571	-6.39518	0.0114524
 135	1	2	0.023286	0.731359	-5.88599	0.388747
 136	1	2	-0.011958	1.4323	-6.93316	1.61024
 137	1	3	-0.518063	2.42852	-7.66017	-0.56528
 138	1	4	0.011666	3.72207	-6.48432	0.593643
 139	1	5	0.843192	3.38728	-8.52379	-0.981308
 140	1	1	-0.399874	2.76955	-9.7777	-1.55366
 141	1	2	0.119224	1.68344	-9.65821	-1.62497
 142	1	2	0.109051	3.00479	-10.6274	-0.907201
 143	1	2	0.118031	3.17407	-9.94267	-2.5561
 144	1	6	-0.590955	4.58256	-8.37872	-0.814025
 145	1	1	-0.003445	0.744283	-4.45693	2.7949
 146	1	1	0.299845	1.94959	-4.85105	1.89198
 147	1	2	0.023286	0.146417	-5.35089	3.0131
 148	1	2	-0.011958	1.09828	-4.09625	3.7677
 149	1	3	-0.518063	3.06622	-5.24922	2.70714
 150	1	4	0.011666	2.24244	-3.99458	1.27479
 151	1	5	0.843192	3.81365	-4.30333	3.32585
 152	1	1	-0.399874	4.94897	-4.94336	4.08366
 153	1	2	0.119224	5.49766	-4.17757	4.64
 154	1	2	0.109051	5.61763	-5.44223	3.37528
 155	1	2	0.118031	4.54265	-5.68799	4.7752
 156	1	6	-0.590955	3.61126	-3.10513	3.28501
 157	1	1	-0.003445	0.483681	-1.97291	2.10217
 158	1	1	0.299845	-0.178912	-3.37814	2.16925
 159	1	2	0.023286	1.57399	-2.05991	2.11156
 160	1	2	-0.011958	0.246	-1.49518	1.14307
 161	1	3	-0.518063	-0.507056	-3.80715	0.834093
 162	1	4	0.011666	-1.0959	-3.32818	2.77086
 163	1	5	0.843192	-1.6103	-3.30289	0.219914
 164	1	1	-0.399874	-1.76961	-3.88804	-1.16214
 165	1	2	0.119224	-1.50756	-4.95075	-1.14831
 166	1	2	0.109051	-1.10106	-3.36406	-1.8534
 167	1	2	0.118031	-2.80725	-3.77058	-1.48882
 168	1	6	-0.590955	-2.43406	-2.57844	0.742002
 169	1	1	-0.003445	0.273173	-1.48792	4.6861
 170	1	1	0.299845	0.0635004	-1.0044	3.23261
 171	1	2	0.023286	1.29752	-1.85861	4.81738
 172	1	2	-0.011958	-0.400397	-2.32962	4.89799
 173	1	3	-0.518063	-1.33727	-0.716156	3.09356
 174	1	4	0.011666	0.660844	-0.0904623	3.11906
 175	1	5	0.843192	-1.71351	0.308588	2.28677
 176	1	1	-0.399874	-3.21411	0.452579	2.26865
 177	1	2	0.119224	-3.64286	-0.411991	1.75257
 178	1	2	0.109051	-3.48684	1.37233	1.74244
 179	1	2	0.118031	-3.59044	0.48251	3.29538
 180	1	6	-0.590955	-0.952616	1.11815	1.79324
 181	1	1	-0.003445	1.25162	0.254493	6.38406
 182	1	1	0.299845	-0.00494995	-0.295156	5.64749
 183	1	2	0.023286	1.51861	-0.36908	7.24423
 184	1	2	-0.011958	2.10652	0.206841	5.69702
 185	1	3	-0.518063	-1.10135	-0.600041	6.53815
 186	1	4	0.011666	-0.357999	0.540234	5.03021
 187	1	5	0.843192	-1.0215	-1.53212	7.51885
 188	1	1	-0.399874	-2.3249	-1.59288	8.27857
 189	1	2	0.119224	-2.16545	-2.07074	9.24939
 190	1	2	0.109051	-3.0526	-2.16389	7.69393
 191	1	2	0.118031	-2.70459	-0.576626	8.42596
 192	1	6	-0.590955	-0.0601375	-2.23504	7.76243
 193	1	1	-0.003445	2.17234	2.25237	7.77049
 194	1	1	0.299845	1.07171	1.73381	6.81592
 195	1	2	0.023286	2.20843	1.57946	8.6314
 196	1	2	-0.011958	1.84819	3.23301	8.12707
 197	1	3	-0.518063	-0.151957	1.84884	7.56436
 198	1	4	0.011666	1.03089	2.35379	5.91045
 199	1	5	0.843192	-0.745682	3.06812	7.65003
 200	1	1	-0.399874	-1.84785	3.06692	8.6772
 201	1	2	0.119224	-2.3077	2.07623	8.72833
 202	1	2	0.109051	-2.59737	3.81631	8.4059
 203	1	2	0.118031	-1.40849	3.31296	9.64981
 204	1	6	-0.590955	-0.427124	4.05006	7.00925
 205	1	1	-0.003445	4.72694	2.59458	8.23217
 206	1	1	0.299845	3.58445	2.42986	7.17624
 207	1	2	0.023286	5.63879	2.85129	7.67996
 208	1	2	-0.011958	4.97591	1.62307	8.66148
 209	1	3	-0.518063	3.55194	3.60406	6.34683
 210	1	4	0.011666	3.80769	1.54466	6.56755
 211	1	5	0.843192	4.48224	3.73464	5.36537
 212	1	1	-0.399874	4.37973	5.07693	4.68722
 213	1	2	0.119224	5.18456	5.17191	3.95149
 214	1	2	0.109051	4.47345	5.86747	5.43889
 215	1	2	0.118031	3.40787	5.1618	4.19205
 216	1	6	-0.590955	5.29002	2.88132	5.05618
 217	1	1	-0.003445	3.47785	3.54423	10.4614
 218	1	1	0.299845	4.56691	3.67891	9.34974
 219	1	2	0.023286	3.51004	4.48816	11.0209
 220	1	2	-0.011958	2.47909	3.53247	10.0395
 221	1	3	-0.518063	5.82027	3.73069	10.0591
 222	1	4	0.011666	4.36668	4.63332	8.84655
 223	1	5	0.843192	6.71071	4.71861	9.78602
 224	1	1	-0.399874	7.93153	4.58907	10.6651
 225	1	2	0.119224	8.51686	5.51259	10.6121
 226	1	2	0.109051	8.53683	3.74562	10.3201
 227	1	2	0.118031	7.62023	4.41079	11.6993
 228	1	6	-0.590955	6.54037	5.62421	8.99624
 229	1	1	-0.003445	3.42153	0.949623	11.0516
 230	1	1	0.299845	3.64966	2.41213	11.516
 231	1	2	0.023286	3.74456	0.791423	10.0281
 232	1	2	-0.011958	2.35671	0.737127	11.0011
 233	1	3	-0.518063	2.77296	2.6422	12.6499
 234	1	4	0.011666	4.68007	2.48438	11.8857
 235	1	5	0.843192	1.40979	2.66166	12.5375
 236	1	1	-0.399874	0.74199	2.66585	13.8899
 237	1	2	0.119224	-0.0211951	1.88115	13.9043
 238	1	2	0.109051	0.276187	3.63919	14.0665
 239	1	2	0.118031	1.47578	2.45608	14.6755
 240	1	6	-0.590955	0.775827	2.55312	11.5053
 241	1	1	-0.003445	3.52894	-1.37177	12.3591
 242	1	1	0.299845	4.21003	-0.0236358	11.9691
 243	1	2	0.023286	3.88329	-2.16975	11.6942
 244	1	2	-0.011958	3.89544	-1.64353	13.3578
 245	1	3	-0.518063	5.40733	-0.288194	11.2097
 246	1	4	0.011666	4.46269	0.502346	12.8997
 247	1	5	0.843192	6.518	-0.780396	11.8087
 248	1	1	-0.399874	7.6342	-0.949031	10.8028
 249	1	2	0.119224	8.08854	-1.93551	10.9325
 250	1	2	0.109051	8.38498	-0.169898	10.965
 251	1	2	0.118031	7.24143	-0.862221	9.78391
 252	1	6	-0.590955	6.62984	-1.01897	12.9925
 253	1	1	-0.003445	1.39806	-1.91871	11.0427
 254	1	1	0.299845	1.97271	-1.37375	12.3683
 255	1	2	0.023286	0.30316	-1.85864	11.0425
 256	1	2	-0.011958	1.76843	-1.34515	10.1841
 257	1	3	-0.518063	1.47076	-2.21013	13.4242
 258	1	4	0.011666	1.58325	-0.362006	12.531
 259	1	5	0.843192	1.41582	-1.68517	14.6761
 260	1	1	-0.399874	0.772338	-2.65401	15.637
 261	1	2	0.119224	1.17606	-3.6571	15.4691
 262	1	2	0.109051	-0.307767	-2.66604	15.4603
 263	1	2	0.118031	0.977261	-2.33901	16.665
 264	1	6	-0.590955	1.73577	-0.550756	14.9752
 265	1	4	0	-9.56293	6.63798	-7.5839
 266	1	2	0	1.68658	-2.9674	10.8962

Velocities

   1	4.09878e-05	0.000215727	4.56937e-06
   2	-0.000660338	-0.000504873	0.000133459
   3	0.000400379	0.000760607	-0.00030781
   4	0.000476861	0.000156829	0.000987222
   5	-0.000760942	-0.000477712	-5.20088e-05
   6	-0.000728853	-0.000297026	0.000365218
   7	-0.000326749	-0.000919459	0.000363073
   8	0.000154057	-0.000396394	-0.000797687
   9	0.0010695	-0.00137274	-0.0013947
  10	0.00024183	-0.000111747	-0.00107174
  11	-1.33169e-05	0.000532446	-0.0011009
  12	-9.6099e-05	-0.00136739	0.00111214
  13	-0.00025173	0.000738845	-0.00028377
  14	-0.000153222	0.000487946	-0.000354203
  15	-3.71468e-05	0.000624334	-0.000376485
  16	-6.15969e-05	0.0010235	-0.000364545
  17	0.00014412	-5.64248e-05	-0.000256264
  18	-0.000292797	0.000672515	-0.000431522
  19	-0.000382598	0.000330862	0.000417318
  20	0.000480333	-0.000598335	0.000589826
  21	-0.000210737	0.000248905	0.000946941
  22	0.0013493	-0.00160394	0.00207326
  23	0.00112179	-0.00119697	-0.000942783
  24	-0.00111247	0.000903765	0.000832961
  25	-0.000446586	0.00034954	0.00146239
  26	-0.000188724	0.000624421	0.000207098
  27	0.000283389	0.000911099	0.00249868
  28	-0.00164086	-0.000540986	0.00208693
  29	0.000636247	0.000454996	0.000138616
  30	-0.000625079	0.000902762	-0.000101882
  31	0.00105735	0.000342759	0.000180646
  32	0.00072642	0.000511957	0.000322651
  33	0.000361488	0.000758429	0.000377461
  34	0.000514594	0.000162445	0.000108885
  35	0.000913805	0.000769868	0.000373566
  36	0.000867123	0.000373466	0.000331172
  37	-0.0006282	-6.41058e-06	0.000204511
  38	-0.000510204	0.000451162	0.000392778
  39	-0.000329287	-0.000144072	0.000287772
  40	-0.00100415	3.99305e-05	0.000130036
  41	-0.000627533	1.83985e-05	0.000114184
  42	-0.000349747	0.00125231	0.000104484
  43	-0.000790253	2.46699e-05	-0.000468708
  44	-0.000274442	-0.000665065	-0.000337022
  45	0.000276027	-0.000774757	-0.000461986
  46	-0.000662227	-0.00130017	7.0412e-05
  47	-0.000288726	-0.000729169	-0.000393636
  48	-0.00109194	0.000513214	-0.000976417
  49	-0.000362473	-0.000515866	0.00028349
  50	-0.000376208	-0.000412976	0.000263471
  51	-0.000118816	-0.00127766	9.00333e-05
  52	-0.000978788	-0.000562023	0.00100305
  53	-0.000137257	-0.000983321	0.000568248
  54	3.60599e-05	-0.000482985	-0.000293931
  55	0.00100087	0.000186735	0.00010958
  56	0.00101323	-0.000469723	0.000404256
  57	0.000332881	-0.00147629	0.000224443
  58	0.00185676	-0.000671626	0.00132201
  59	0.000985275	0.00023378	-4.80827e-05
  60	0.00220803	0.00137403	-0.000236165
  61	-0.000223611	0.000419339	-0.000125022
  62	-0.000257319	0.000470826	-0.000131195
  63	-0.000213551	0.000169675	-0.000203824
  64	-0.000101242	0.000700934	-0.000286652
  65	0.00022172	0.000546654	-0.00106407
  66	-0.000405337	0.00108808	0.000205733
  67	0.000704173	0.000334224	-0.00106534
  68	0.000671157	0.000383592	-0.00164509
  69	-0.000610862	-9.48535e-06	-0.00136308
  70	0.000926617	0.000527843	-0.00309579
  71	0.00168478	0.000634403	-0.000928675
  72	0.00116091	4.62636e-05	-0.00016398
  73	-4.32892e-05	0.000243053	-0.000419757
  74	-0.00040586	0.000549789	7.13189e-05
  75	-0.000154653	-0.000634161	-0.00119056
  76	0.00090503	0.000898154	-0.000817338
  77	-0.000337846	0.00045056	0.000219801
  78	-0.000607015	0.00051316	5.04478e-05
  79	-0.000183122	0.000324746	0.00011162
  80	0.000560023	-0.00198425	0.00110913
  81	-0.00127985	-0.00250594	0.0014722
  82	0.00231716	-0.001686	0.00080908
  83	0.00112673	-0.0036778	0.00174388
  84	-0.000291215	0.000789967	-0.000189076
  85	-0.00072739	-8.34313e-05	0.000214043
  86	-0.000441319	0.000334422	0.000159327
  87	-0.00115059	-0.00031636	0.000320543
  88	-0.000749637	4.14413e-05	-0.000338313
  89	-0.000527366	0.000472837	0.000244495
  90	-0.000604645	0.000621541	0.000235167
  91	-0.000539767	0.000195407	0.000245648
  92	-0.000762472	-0.000146658	0.000443877
  93	-0.0012052	-0.000800508	0.000881354
  94	-0.00118867	0.000438727	0.00036781
  95	-1.79169e-05	-0.000383451	0.000426859
  96	-0.000522616	-0.000178466	9.04978e-05
  97	3.22728e-05	0.000247767	9.57411e-05
  98	-0.000258269	-0.000134598	0.000312359
  99	-0.000236981	0.000562631	0.0010942
 100	0.000674664	0.00122297	-0.000371068
 101	-0.000121844	-0.000398666	0.000270832
 102	-0.000184322	-0.000199698	0.000327383
 103	-0.000988883	0.000596388	0.000528193
 104	-0.00157703	0.00104132	0.000668549
 105	-0.00182901	0.00133849	0.00126591
 106	-0.00140811	0.000909818	0.000740567
 107	-0.00201925	0.00128252	4.52768e-05
 108	-0.00132027	0.0012088	0.000625736
 109	-0.000272073	-0.00113442	-0.000402782
 110	8.87365e-05	-0.00076853	-0.000775349
 111	-0.000331117	-0.000872283	-0.000196569
 112	-0.000405881	-0.00126569	-0.00027289
 113	0.000654524	-0.000299842	-0.00126121
 114	8.07311e-05	-0.00117396	-0.00127691
 115	0.00139049	-0.000619094	-0.00153438
 116	0.00203507	-0.000288817	-0.00112595
 117	0.00183996	2.30522e-05	-0.000893029
 118	0.00241179	-0.00063567	-0.00112025
 119	0.00233566	-0.000349973	-0.000969466
 120	0.00147746	-0.00117253	-0.00172986
 121	-0.000378598	-0.000979812	-0.000411817
 122	-0.000342854	-0.00124857	-0.000540519
 123	-0.000493621	-0.000783756	-0.000392308
 124	-5.58581e-05	-0.000869371	-0.000327819
 125	-0.000490064	-0.00148583	-0.000305591
 126	-0.000261653	-0.00113607	-0.00083109
 127	-0.000487358	0.000111667	-0.000188747
 128	-0.00149815	-0.000335514	0.000545475
 129	-0.00166098	-0.000183685	-2.27014e-05
 130	-0.00113171	-0.000608979	0.00196421
 131	-0.00288938	-0.00039109	0.000513007
 132	0.000409278	0.00194668	-0.00092955
 133	-0.000494961	-0.000222522	0.000144824
 134	-0.000630947	-0.000666469	-7.90141e-05
 135	-0.000298562	0.000475317	4.86939e-05
 136	-0.00119358	-0.00028972	-0.00021609
 137	-0.000417089	-0.000931076	9.86256e-05
 138	-0.000664889	-0.000622716	-5.65984e-05
 139	3.13626e-05	-0.000127343	-0.000657388
 140	0.000904772	-0.000958031	6.27202e-05
 141	0.000852268	-0.00171964	-0.000476955
 142	0.00122085	-0.000215728	0.000909628
 143	0.00148239	-0.00162219	0.00040432
 144	-3.0959e-05	0.000776906	-0.00142786
 145	1.93335e-05	0.000181358	0.000683089
 146	-5.05092e-05	-0.000486421	0.000625012
 147	-0.000145	0.000356195	0.00104844
 148	0.000117937	0.000413896	0.000592985
 149	-5.49288e-05	-0.00044702	0.000816174
 150	0.0003137	-0.000588791	0.000656979
 151	-0.000631346	-0.000330766	0.00125088
 152	4.83941e-05	0.000822791	0.000996983
 153	0.000117327	0.00148759	-1.24489e-05
 154	-0.000141732	0.000585148	0.000961108
 155	0.00094119	0.00113941	0.00193001
 156	-0.00132362	-0.00015369	0.00133271
 157	0.000325408	0.000319883	-0.0001375
 158	0.000170197	0.000314538	0.000580954
 159	0.000344245	0.000124497	-0.000399063
 160	0.000286367	-0.000296015	-0.000410435
 161	-0.00012633	-0.000272469	0.000810564
 162	0.000257515	0.000707377	0.000696938
 163	0.000902535	0.000872692	-8.87796e-05
 164	0.00105635	0.000776262	-0.000110798
 165	9.94001e-05	0.000533969	-8.56811e-05
 166	0.00188671	0.000192224	0.000226817
 167	0.00136915	0.0017502	-0.000654992
 168	0.00200675	0.00289971	-0.00122116
 169	0.000914237	0.00239852	-0.000340421
 170	0.000637133	0.00136231	-0.000694715
 171	0.00133377	0.00358746	-0.00035048
 172	0.00201352	0.00161869	-0.000162716
 173	0.000560888	0.00130091	-0.000375274
 174	0.000404282	0.00142532	-0.00160232
 175	2.06287e-05	-0.000660949	-0.00251872
 176	2.50803e-05	-0.000257889	-0.000631132
 177	-0.000925012	-0.000285167	0.000121303
 178	-0.000526139	-0.000300658	-0.000268357
 179	0.00155059	-0.0001571	-5.67907e-05
 180	-0.000358707	-0.00169573	-0.00496434
 181	-0.000634089	0.00152693	0.00123004
 182	-0.000188425	0.00205453	-5.2049e-05
 183	-0.00229121	0.00198719	0.00210697
 184	0.000355002	0.000428161	0.00256704
 185	-0.00032885	0.00110034	-0.000216433
 186	1.46886e-05	0.0021878	8.84744e-06
 187	0.000474484	0.000395519	-0.000909834
 188	0.00154962	-0.00110556	0.000708311
 189	0.00319228	-0.00283599	-0.00040347
 190	0.000848289	-0.000392692	0.000883863
 191	0.00142543	-0.00149017	0.00321339
 192	0.00109646	0.000569268	-0.00212354
 193	0.000738632	0.00133957	-0.000167195
 194	-2.97052e-05	0.00156881	0.000714982
 195	0.000330693	0.00226738	0.000568002
 196	0.00154406	0.00209552	-0.00143563
 197	0.00043654	0.00143493	0.00146762
 198	-0.000544071	0.00149648	0.000670372
 199	-0.000515725	0.000821449	0.00158436
 200	-0.00190109	-0.00075474	-3.94209e-05
 201	-0.00239292	-0.000773786	-0.00315568
 202	-0.00125603	8.02905e-05	0.000507601
 203	-0.00337841	-0.00329012	0.00127374
 204	-0.00173271	0.00105149	0.000920273
 205	0.000735158	9.35074e-05	-0.00011139
 206	0.000971914	-0.000352563	-0.000290987
 207	0.000810959	0.000482756	0.000123941
 208	0.00104588	0.000254582	0.000136632
 209	0.00101229	-0.00073326	-0.0006609
 210	0.00084612	-0.000724525	0.000177686
 211	0.00117132	-0.000105878	-0.000388283
 212	-0.000860613	-0.000122124	-0.000207805
 213	-0.00182513	0.000903609	-0.0011191
 214	-0.000946503	-0.00021202	-0.000112113
 215	-0.00159727	-0.00108567	0.00105056
 216	0.00180289	0.000715968	-0.000431469
 217	-0.000769377	-0.000207671	-0.000677408
 218	-0.000417011	0.000128943	-0.000304429
 219	-0.00144939	3.13419e-06	-0.00101335
 220	-0.000891894	-0.00107156	-0.000347581
 221	-0.000806447	0.000904889	0.000302349
 222	-0.000562349	7.54106e-05	-0.000439795
 223	5.64442e-05	-0.000287013	-0.00166161
 224	-0.000297453	0.000169847	-0.00107327
 225	-9.46327e-05	4.51289e-05	-0.00176381
 226	-0.000369014	-0.000204303	-0.000179451
 227	-0.000521222	0.00115821	-0.00104673
 228	0.000994996	-0.00200865	-0.00342907
 229	0.000270641	-0.0001215	6.11147e-05
 230	-7.26326e-05	0.000310167	-0.000223274
 231	0.000827127	-9.9164e-05	0.000312404
 232	0.000441637	-0.000506197	-0.00048648
 233	0.000196724	0.000777259	-0.000315507
 234	-0.000132595	0.000631691	-0.000538197
 235	0.000257316	-0.000594493	0.000531819
 236	0.00166521	0.00153699	0.00111501
 237	0.000554478	0.00281602	0.00267683
 238	0.0037184	0.00248139	0.00112094
 239	0.0024814	0.000861968	0.000223427
 240	-0.000486518	-0.00326605	0.00111497
 241	-0.00112135	-0.000532819	-0.00132786
 242	-0.000450005	-0.000142166	0.000493043
 243	-0.00105351	2.4062e-06	-0.00206332
 244	-0.0010235	-0.00149973	-0.00146755
 245	0.000431101	0.000687631	0.00154999
 246	-0.00164892	-0.000449906	0.001048
 247	-7.91371e-05	-0.000355523	0.00166354
 248	0.000330632	-0.000757056	0.00211484
 249	0.000691411	-0.000378372	0.00297418
 250	-0.000109991	-0.00030925	0.00140859
 251	0.000445302	-0.00194499	0.00216688
 252	-0.000940649	-0.00168402	0.00159244
 253	-0.00212247	-0.000769288	-0.000649867
 254	-0.000961508	-0.000949193	-0.0011787
 255	-0.00209828	-0.000336449	-4.97648e-05
 256	-0.00262065	-0.000694166	-0.000815339
 257	-0.000619478	-0.00119475	-0.000844141
 258	-0.0012593	-0.000999636	-0.0010555
 259	0.000492962	-0.000643591	-0.000716592
 260	0.00122868	-0.000455639	0.00032117
 261	0.00212861	-0.000415053	0.00183521
 262	0.00114208	-0.0018331	0.000345269
 263	0.000705419	0.000894881	0.000232767
 264	0.000951944	-0.00102165	-0.00141627
 265	-0.000591363	-0.000801959	-0.000455754
 266	-0.00236662	-0.00108336	-0.000788647

Bonds

   1	7	1	2
   2	1	1	3
   3	1	1	4
   4	4	2	5
   5	3	2	6
   6	6	5	7
   7	5	7	8
   8	2	7	12
   9	1	8	9
  10	1	8	10
  11	1	8	11
  12	7	13	14
  13	1	13	15
  14	1	13	16
  15	4	14	17
  16	3	14	18
  17	6	17	19
  18	5	19	20
  19	2	19	24
  20	1	20	21
  21	1	20	22
  22	1	20	23
  23	7	1	14
  24	7	25	26
  25	1	25	27
  26	1	25	28
  27	4	26	29
  28	3	26	30
  29	6	29	31
  30	5	31	32
  31	2	31	36
  32	1	32	33
  33	1	32	34
  34	1	32	35
  35	7	13	26
  36	7	37	38
  37	1	37	39
  38	1	37	40
  39	4	38	41
  40	3	38	42
  41	6	41	43
  42	5	43	44
  43	2	43	48
  44	1	44	45
  45	1	44	46
  46	1	44	47
  47	7	25	38
  48	7	49	50
  49	1	49	51
  50	1	49	52
  51	4	50	53
  52	3	50	54
  53	6	53	55
  54	5	55	56
  55	2	55	60
  56	1	56	57
  57	1	56	58
  58	1	56	59
  59	7	37	50
  60	7	61	62
  61	1	61	63
  62	1	61	64
  63	4	62	65
  64	3	62	66
  65	6	65	67
  66	5	67	68
  67	2	67	72
  68	1	68	69
  69	1	68	70
  70	1	68	71
  71	7	49	62
  72	7	73	74
  73	1	73	75
  74	1	73	76
  75	4	74	77
  76	3	74	78
  77	6	77	79
  78	5	79	80
  79	2	79	84
  80	1	80	81
  81	1	80	82
  82	1	80	83
  83	7	61	74
  84	7	85	86
  85	1	85	87
  86	1	85	88
  87	4	86	89
  88	3	86	90
  89	6	89	91
  90	5	91	92
  91	2	91	96
  92	1	92	93
  93	1	92	94
  94	1	92	95
  95	7	73	86
  96	7	97	98
  97	1	97	99
  98	1	97	100
  99	4	98	101
 100	3	98	102
 101	6	101	103
 102	5	103	104
 103	2	103	108
 104	1	104	105
 105	1	104	106
 106	1	104	107
 107	7	85	98
 108	7	109	110
 109	1	109	111
 110	1	109	112
 111	4	110	113
 112	3	110	114
 113	6	113	115
 114	5	115	116
 115	2	115	120
 116	1	116	117
 117	1	116	118
 118	1	116	119
 119	7	97	110
 120	7	121	122
 121	1	121	123
 122	1	121	124
 123	4	122	125
 124	3	122	126
 125	6	125	127
 126	5	127	128
 127	2	127	132
 128	1	128	129
 129	1	128	130
 130	1	128	131
 131	7	109	122
 132	7	133	134
 133	1	133	135
 134	1	133	136
 135	4	134	137
 136	3	134	138
 137	6	137	139
 138	5	139	140
 139	2	139	144
 140	1	140	141
 141	1	140	142
 142	1	140	143
 143	7	121	134
 144	7	145	146
 145	1	145	147
 146	1	145	148
 147	4	146	149
 148	3	146	150
 149	6	149	151
 150	5	151	152
 151	2	151	156
 152	1	152	153
 153	1	152	154
 154	1	152	155
 155	7	133	146
 156	7	157	158
 157	1	157	159
 158	1	157	160
 159	4	158	161
 160	3	158	162
 161	6	161	163
 162	5	163	164
 163	2	163	168
 164	1	164	165
 165	1	164	166
 166	1	164	167
 167	7	145	158
 168	7	169	170
 169	1	169	171
 170	1	169	172
 171	4	170	173
 172	3	170	174
 173	6	173	175
 174	5	175	176
 175	2	175	180
 176	1	176	177
 177	1	176	178
 178	1	176	179
 179	7	157	170
 180	7	181	182
 181	1	181	183
 182	1	181	184
 183	4	182	185
 184	3	182	186
 185	6	185	187
 186	5	187	188
 187	2	187	192
 188	1	188	189
 189	1	188	190
 190	1	188	191
 191	7	169	182
 192	7	193	194
 193	1	193	195
 194	1	193	196
 195	4	194	197
 196	3	194	198
 197	6	197	199
 198	5	199	200
 199	2	199	204
 200	1	200	201
 201	1	200	202
 202	1	200	203
 203	7	181	194
 204	7	205	206
 205	1	205	207
 206	1	205	208
 207	4	206	209
 208	3	206	210
 209	6	209	211
 210	5	211	212
 211	2	211	216
 212	1	212	213
 213	1	212	214
 214	1	212	215
 215	7	193	206
 216	7	217	218
 217	1	217	219
 218	1	217	220
 219	4	218	221
 220	3	218	222
 221	6	221	223
 222	5	223	224
 223	2	223	228
 224	1	224	225
 225	1	224	226
 226	1	224	227
 227	7	205	218
 228	7	229	230
 229	1	229	231
 230	1	229	232
 231	4	230	233
 232	3	230	234
 233	6	233	235
 234	5	235	236
 235	2	235	240
 236	1	236	237
 237	1	236	238
 238	1	236	239
 239	7	217	230
 240	7	241	242
 241	1	241	243
 242	1	241	244
 243	4	242	245
 244	3	242	246
 245	6	245	247
 246	5	247	248
 247	2	247	252
 248	1	248	249
 249	1	248	250
 250	1	248	251
 251	7	229	242
 252	7	253	254
 253	1	253	255
 254	1	253	256
 255	4	254	257
 256	3	254	258
 257	6	257	259
 258	5	259	260
 259	2	259	264
 260	1	260	261
 261	1	260	262
 262	1	260	263
 263	7	241	254
 264	3	2	265
 265	1	253	266

Angles

   1	5	2	1	3
   2	5	2	1	4
   3	10	3	1	4
   4	4	1	2	5
   5	6	1	2	6
   6	8	5	2	6
   7	7	2	5	7
   8	9	5	7	8
   9	3	5	7	12
  10	1	8	7	12
  11	2	7	8	9
  12	2	7	8	10
  13	2	7	8	11
  14	10	9	8	10
  15	10	9	8	11
  16	10	10	8	11
  17	5	14	13	15
  18	5	14	13	16
  19	10	15	13	16
  20	4	13	14	17
  21	6	13	14	18
  22	8	17	14	18
  23	7	14	17	19
  24	9	17	19	20
  25	3	17	19	24
  26	1	20	19	24
  27	2	19	20	21
  28	2	19	20	22
  29	2	19	20	23
  30	10	21	20	22
  31	10	21	20	23
  32	10	22	20	23
  33	12	2	1	14
  34	5	3	1	14
  35	5	4	1	14
  36	12	1	14	13
  37	4	1	14	17
  38	6	1	14	18
  39	5	26	25	27
  40	5	26	25	28
  41	10	27	25	28
  42	4	25	26	29
  43	6	25	26	30
  44	8	29	26	30
  45	7	26	29	31
  46	9	29	31	32
  47	3	29	31	36
  48	1	32	31	36
  49	2	31	32	33
  50	2	31	32	34
  51	2	31	32	35
  52	10	33	32	34
  53	10	33	32	35
  54	10	34	32	35
  55	12	14	13	26
  56	5	15	13	26
  57	5	16	13	26
  58	12	13	26	25
  59	4	13	26	29
  60	6	13	26	30
  61	5	38	37	39
  62	5	38	37	40
  63	10	39	37	40
  64	4	37	38	41
  65	6	37	38	42
  66	8	41	38	42
  67	7	38	41	43
  68	9	41	43	44
  69	3	41	43	48
  70	1	44	43	48
  71	2	43	44	45
  72	2	43	44	46
  73	2	43	44	47
  74	10	45	44	46
  75	10	45	44	47
  76	10	46	44	47
  77	12	26	25	38
  78	5	27	25	38
  79	5	28	25	38
  80	12	25	38	37
  81	4	25	38	41
  82	6	25	38	42
  83	5	50	49	51
  84	5	50	49	52
  85	10	51	49	52
  86	4	49	50	53
  87	6	49	50	54
  88	8	53	50	54
  89	7	50	53	55
  90	9	53	55	56
  91	3	53	55	60
  92	1	56	55	60
  93	2	55	56	57
  94	2	55	56	58
  95	2	55	56	59
  96	10	57	56	58
  97	10	57	56	59
  98	10	58	56	59
  99	12	38	37	50
 100	5	39	37	50
 101	5	40	37	50
 102	12	37	50	49
 103	4	37	50	53
 104	6	37	50	54
 105	5	62	61	63
 106	5	62	61	64
 107	10	63	61	64
 108	4	61	62	65
 109	6	61	62	66
 110	8	65	62	66
 111	7	62	65	67
 112	9	65	67	68
 113	3	65	67	72
 114	1	68	67	72
 115	2	67	68	69
 116	2	67	68	70
 117	2	67	68	71
 118	10	69	68	70
 119	10	69	68	71
 120	10	70	68	71
 121	12	50	49	62