pySIMM System Object

494 atoms
493 bonds
902 angles
1180 dihedrals
41 impropers

6 atom types
7 bond types
12 angle types
10 dihedral types
1 improper types

-112.663190 112.663190 xlo xhi
-112.663190 112.663190 ylo yhi
-112.663190 112.663190 zlo zhi

Masses

   1	12.01	# c3
   2	1.008	# hc
   3	16.0	# os
   4	1.008	# h1
   5	12.01	# c
   6	16.0	# o

Pair Coeffs

   1	0.1094	3.3996695084235347	# c3
   2	0.0157	2.649532787749369	# hc
   3	0.17	3.0000123434657784	# os
   4	0.0157	2.471353044121301	# h1
   5	0.086	3.3996695084235347	# c
   6	0.21	2.959921901149463	# o

Bond Coeffs

   1	330.6	1.0969	# c3,hc
   2	637.7	1.2183	# c,o
   3	330.6	1.0969	# c3,h1
   4	308.6	1.4316	# c3,os
   5	313.0	1.5241	# c,c3
   6	390.8	1.3584	# c,os
   7	300.9	1.5375	# c3,c3

Angle Coeffs

   1	67.4	123.2	# c3,c,o
   2	46.93	108.77	# c,c3,hc
   3	75.32	123.25	# o,c,os
   4	68.0	107.97	# c3,c3,os
   5	46.34	109.8	# c3,c3,hc
   6	46.39	109.56	# c3,c3,h1
   7	63.28	115.98	# c,os,c3
   8	50.8	109.78	# h1,c3,os
   9	68.89	110.72	# c3,c,os
  10	39.4	107.58	# hc,c3,hc
  11	39.24	108.46	# h1,c3,h1
  12	62.86	111.51	# c3,c3,c3

Dihedral Coeffs

   1	2	0.383	3	0	0.8	1	180	# c3,c3,os,c
   2	2	0.0	3	0	0.25	1	0	# hc,c3,c3,os
   3	1	0.3833333333333333	3	0	# X,c3,os,X
   4	1	0.0	2	180	# X,c,c3,X
   5	3	0.8	1	0	0.0	2	0	0.08	3	180	# hc,c3,c,o
   6	3	2.7	2	180	0.0	1	0	1.15	3	0	# c3,c,os,c3
   7	1	0.15555555555555556	3	0	# X,c3,c3,X
   8	2	2.7	2	180	1.4	1	180	# o,c,os,c3
   9	1	0.16	3	0	# hc,c3,c3,c3
  10	3	0.18	3	0	0.25	2	180	0.2	1	180	# c3,c3,c3,c3

Improper Coeffs

   1	10.5	-1	2	# c,X,X,o

Atoms

   1	1	1	-0.003445	-7.832	7.2404	11.3563
   2	1	1	0.299845	-9.26392	7.36898	10.7764
   3	1	2	0.023286	-7.16255	6.79229	10.613
   4	1	2	-0.011958	-7.43908	8.25083	11.527
   5	1	3	-0.518063	-9.65863	6.16157	10.1007
   6	1	4	0.011666	-9.30255	8.21565	10.0787
   7	1	5	0.843192	-9.16858	5.91717	8.85822
   8	1	1	-0.399874	-9.68766	4.6033	8.33003
   9	1	2	0.119224	-10.7807	4.6029	8.39187
  10	1	2	0.109051	-9.28322	3.7855	8.93184
  11	1	2	0.118031	-9.38199	4.48696	7.28629
  12	1	6	-0.590955	-8.40391	6.63661	8.2443
  13	1	1	-0.003445	-8.35374	7.22132	13.8859
  14	1	1	0.299845	-7.73464	6.4528	12.6923
  15	1	2	0.023286	-7.83807	8.18649	13.971
  16	1	2	-0.011958	-9.40964	7.44491	13.6916
  17	1	3	-0.518063	-8.39981	5.18415	12.6076
  18	1	4	0.011666	-6.67275	6.29177	12.9206
  19	1	5	0.843192	-7.86833	4.18343	11.8687
  20	1	1	-0.399874	-8.68946	2.93006	12.0272
  21	1	2	0.119224	-8.23497	2.123	11.4458
  22	1	2	0.109051	-9.7074	3.12786	11.6798
  23	1	2	0.118031	-8.7175	2.66008	13.0873
  24	1	6	-0.590955	-6.8344	4.23807	11.2347
  25	1	1	-0.003445	-9.39804	5.49548	15.5441
  26	1	1	0.299845	-8.21757	6.45598	15.2305
  27	1	2	0.023286	-10.3214	6.0709	15.6311
  28	1	2	-0.011958	-9.57377	4.80489	14.7127
  29	1	3	-0.518063	-8.02999	7.39884	16.3132
  30	1	4	0.011666	-7.30109	5.85477	15.1736
  31	1	5	0.843192	-8.9831	8.31273	16.6552
  32	1	1	-0.399874	-8.49452	9.19743	17.7744
  33	1	2	0.119224	-7.60321	9.73896	17.4468
  34	1	2	0.109051	-8.24395	8.57519	18.6394
  35	1	2	0.118031	-9.28479	9.90256	18.0491
  36	1	6	-0.590955	-10.0265	8.50502	16.0609
  37	1	1	-0.003445	-10.394	3.88937	17.299
  38	1	1	0.299845	-9.13432	4.65595	16.8155
  39	1	2	0.023286	-10.7341	3.24803	16.4785
  40	1	2	-0.011958	-10.1273	3.19754	18.108
  41	1	3	-0.518063	-8.11187	3.7043	16.454
  42	1	4	0.011666	-8.76749	5.31009	17.6135
  43	1	5	0.843192	-7.39029	3.11367	17.4412
  44	1	1	-0.399874	-6.35412	2.18247	16.8609
  45	1	2	0.119224	-5.69966	1.82629	17.6631
  46	1	2	0.109051	-5.76083	2.71907	16.1138
  47	1	2	0.118031	-6.85562	1.33414	16.3872
  48	1	6	-0.590955	-7.51985	3.31816	18.6312
  49	1	1	-0.003445	-12.9521	4.30015	17.3958
  50	1	1	0.299845	-11.5466	4.81725	17.7926
  51	1	2	0.023286	-13.7212	4.8299	17.97
  52	1	2	-0.011958	-13.0404	3.23969	17.6667
  53	1	3	-0.518063	-11.4922	4.90876	19.2281
  54	1	4	0.011666	-11.4474	5.82288	17.3721
  55	1	5	0.843192	-10.6754	5.84429	19.7811
  56	1	1	-0.399874	-10.6962	5.76951	21.2856
  57	1	2	0.119224	-11.7319	5.80934	21.6356
  58	1	2	0.109051	-10.1309	6.61146	21.6983
  59	1	2	0.118031	-10.2392	4.82655	21.6
  60	1	6	-0.590955	-10.055	6.68837	19.1641
  61	1	1	-0.003445	-14.5502	3.90391	15.3536
  62	1	1	0.299845	-13.1998	4.46633	15.8716
  63	1	2	0.023286	-14.6941	2.9113	15.7979
  64	1	2	-0.011958	-15.407	4.51212	15.6679
  65	1	3	-0.518063	-12.9893	5.83169	15.4468
  66	1	4	0.011666	-12.4264	3.87188	15.3751
  67	1	5	0.843192	-13.7751	6.85638	15.8793
  68	1	1	-0.399874	-13.3271	8.16889	15.2854
  69	1	2	0.119224	-12.7613	8.72245	16.0415
  70	1	2	0.109051	-14.2037	8.74771	14.9802
  71	1	2	0.118031	-12.6796	7.99126	14.421
  72	1	6	-0.590955	-14.6917	6.76365	16.6696
  73	1	1	-0.003445	-15.5153	2.74242	13.2411
  74	1	1	0.299845	-14.4997	3.76483	13.8131
  75	1	2	0.023286	-15.6616	1.9239	13.9569
  76	1	2	-0.011958	-16.4929	3.23254	13.1447
  77	1	3	-0.518063	-14.7632	5.05565	13.228
  78	1	4	0.011666	-13.4896	3.4295	13.5853
  79	1	5	0.843192	-14.0988	5.42985	12.1044
  80	1	1	-0.399874	-14.593	6.75794	11.5941
  81	1	2	0.119224	-15.6143	6.63027	11.221
  82	1	2	0.109051	-13.9433	7.10209	10.7829
  83	1	2	0.118031	-14.593	7.48658	12.4095
  84	1	6	-0.590955	-13.2004	4.80287	11.5774
  85	1	1	-0.003445	-13.9235	1.10043	11.9861
  86	1	1	0.299845	-15.0849	2.12776	11.8767
  87	1	2	0.023286	-13.9449	0.649204	12.9849
  88	1	2	-0.011958	-14.1005	0.268973	11.2917
  89	1	3	-0.518063	-16.2044	1.41211	11.3292
  90	1	4	0.011666	-14.7971	2.92056	11.1791
  91	1	5	0.843192	-17.124	2.10122	10.6057
  92	1	1	-0.399874	-18.1923	1.17558	10.0792
  93	1	2	0.119224	-17.7449	0.520746	9.32458
  94	1	2	0.109051	-19.001	1.76239	9.63237
  95	1	2	0.118031	-18.582	0.566455	10.9
  96	1	6	-0.590955	-17.119	3.30413	10.4258
  97	1	1	-0.003445	-12.2848	1.9824	10.1761
  98	1	1	0.299845	-12.5171	1.69278	11.682
  99	1	2	0.023286	-11.4919	2.73363	10.0784
 100	1	2	-0.011958	-13.1787	2.46092	9.76017
 101	1	3	-0.518063	-11.5093	0.786295	12.1762
 102	1	4	0.011666	-12.3852	2.64106	12.1998
 103	1	5	0.843192	-11.292	0.739862	13.5189
 104	1	1	-0.399874	-10.249	-0.294538	13.8607
 105	1	2	0.119224	-9.27153	0.0452685	13.5076
 106	1	2	0.109051	-10.501	-1.24183	13.3725
 107	1	2	0.118031	-10.223	-0.438886	14.9457
 108	1	6	-0.590955	-11.8364	1.44838	14.346
 109	1	1	-0.003445	-10.3801	0.512254	9.29508
 110	1	1	0.299845	-11.9099	0.727939	9.34608
 111	1	2	0.023286	-9.96914	1.05846	8.44173
 112	1	2	-0.011958	-9.90694	0.95297	10.1792
 113	1	3	-0.518063	-12.334	0.914427	7.98317
 114	1	4	0.011666	-12.3918	-0.161045	9.77433
 115	1	5	0.843192	-13.6474	0.757978	7.67904
 116	1	1	-0.399874	-13.8817	0.98309	6.20702
 117	1	2	0.119224	-14.9305	0.781389	5.96951
 118	1	2	0.109051	-13.2365	0.310677	5.63073
 119	1	2	0.118031	-13.6363	2.01943	5.9578
 120	1	6	-0.590955	-14.5252	0.482065	8.47412
 121	1	1	-0.003445	-8.45687	-1.17631	9.07167
 122	1	1	0.299845	-9.9859	-0.979599	9.25165
 123	1	2	0.023286	-8.18455	-2.10569	9.58813
 124	1	2	-0.011958	-7.91852	-0.379738	9.60278
 125	1	3	-0.518063	-10.7085	-1.64681	8.20175
 126	1	4	0.011666	-10.2781	-1.40375	10.2218
 127	1	5	0.843192	-10.7972	-3.00235	8.23046
 128	1	1	-0.399874	-11.4567	-3.52909	6.98182
 129	1	2	0.119224	-12.4486	-3.07983	6.87547
 130	1	2	0.109051	-11.5441	-4.61848	7.0452
 131	1	2	0.118031	-10.8475	-3.25935	6.11398
 132	1	6	-0.590955	-10.3464	-3.70747	9.11044
 133	1	1	-0.003445	-7.97615	0.0445613	6.78799
 134	1	1	0.299845	-7.93388	-1.27533	7.61112
 135	1	2	0.023286	-7.96205	0.90433	7.46761
 136	1	2	-0.011958	-7.06308	0.133167	6.18404
 137	1	3	-0.518063	-6.56573	-1.69567	7.74553
 138	1	4	0.011666	-8.50025	-2.05645	7.08903
 139	1	5	0.843192	-6.02668	-2.4877	6.78374
 140	1	1	-0.399874	-4.61234	-2.8671	7.14589
 141	1	2	0.119224	-4.63398	-3.52348	8.02111
 142	1	2	0.109051	-4.0429	-1.96395	7.3855
 143	1	2	0.118031	-4.14766	-3.38742	6.30274
 144	1	6	-0.590955	-6.61278	-2.92204	5.81216
 145	1	1	-0.003445	-9.52418	1.5434	5.3189
 146	1	1	0.299845	-9.20495	0.120483	5.84286
 147	1	2	0.023286	-10.3563	1.47551	4.60732
 148	1	2	-0.011958	-9.90425	2.15458	6.14817
 149	1	3	-0.518063	-8.93697	-0.736912	4.71921
 150	1	4	0.011666	-10.088	-0.235152	6.38009
 151	1	5	0.843192	-9.97556	-1.21439	3.98601
 152	1	1	-0.399874	-9.48689	-2.05623	2.83462
 153	1	2	0.119224	-8.7474	-2.77569	3.20198
 154	1	2	0.109051	-9.01742	-1.40826	2.08757
 155	1	2	0.118031	-10.3317	-2.58753	2.38528
 156	1	6	-0.590955	-11.1503	-1.03621	4.24297
 157	1	1	-0.003445	-8.7445	3.10367	3.4275
 158	1	1	0.299845	-8.31647	2.25183	4.65237
 159	1	2	0.023286	-7.8582	3.44552	2.87843
 160	1	2	-0.011958	-9.27764	2.43387	2.74021
 161	1	3	-0.518063	-7.7032	3.0672	5.67056
 162	1	4	0.011666	-7.60808	1.49106	4.2993
 163	1	5	0.843192	-6.46666	3.58563	5.45507
 164	1	1	-0.399874	-6.0042	4.37652	6.65323
 165	1	2	0.119224	-4.97395	4.70931	6.49449
 166	1	2	0.109051	-6.05691	3.75078	7.54946
 167	1	2	0.118031	-6.65447	5.24471	6.78651
 168	1	6	-0.590955	-5.77938	3.38143	4.47545
 169	1	1	-0.003445	-10.6087	4.71181	2.60467
 170	1	1	0.299845	-9.65131	4.31537	3.76631
 171	1	2	0.023286	-11.0815	5.67845	2.81851
 172	1	2	-0.011958	-11.4278	3.98254	2.61241
 173	1	3	-0.518063	-8.80904	5.43216	4.11183
 174	1	4	0.011666	-10.2734	4.04516	4.62895
 175	1	5	0.843192	-9.324	6.41846	4.89354
 176	1	1	-0.399874	-8.33567	7.54457	5.063
 177	1	2	0.119224	-8.80511	8.35416	5.63077
 178	1	2	0.109051	-8.02077	7.90939	4.08098
 179	1	2	0.118031	-7.46381	7.17894	5.61206
 180	1	6	-0.590955	-10.4451	6.42266	5.36334
 181	1	1	-0.003445	-9.12352	6.017	0.909122
 182	1	1	0.299845	-9.973	4.75075	1.18199
 183	1	2	0.023286	-9.78112	6.89441	0.950086
 184	1	2	-0.011958	-8.37368	6.15071	1.69724
 185	1	3	-0.518063	-11.029	4.73386	0.202581
 186	1	4	0.011666	-9.34413	3.86798	1.02878
 187	1	5	0.843192	-11.6666	3.56267	-0.0552308
 188	1	1	-0.399874	-12.7373	3.74449	-1.10113
 189	1	2	0.119224	-13.2776	2.80207	-1.2367
 190	1	2	0.109051	-12.273	4.04689	-2.04464
 191	1	2	0.118031	-13.4313	4.52539	-0.775338
 192	1	6	-0.590955	-11.3669	2.48496	0.418579
 193	1	1	-0.003445	-7.17305	4.9988	-0.441675
 194	1	1	0.299845	-8.39737	5.95254	-0.462552
 195	1	2	0.023286	-7.34312	4.17827	0.261761
 196	1	2	-0.011958	-6.30303	5.53386	-0.0381756
 197	1	3	-0.518063	-7.89263	7.26354	-0.78256
 198	1	4	0.011666	-9.10276	5.62045	-1.23541
 199	1	5	0.843192	-8.74291	8.19558	-1.2814
 200	1	1	-0.399874	-8.0139	9.48903	-1.54691
 201	1	2	0.119224	-7.19903	9.30312	-2.25303
 202	1	2	0.109051	-7.59766	9.86886	-0.608799
 203	1	2	0.118031	-8.7107	10.2208	-1.96767
 204	1	6	-0.590955	-9.91285	8.01264	-1.54858
 205	1	1	-0.003445	-6.43283	5.49903	-2.86733
 206	1	1	0.299845	-6.8022	4.40761	-1.83074
 207	1	2	0.023286	-5.75747	6.22302	-2.39582
 208	1	2	-0.011958	-7.33452	6.06145	-3.14292
 209	1	3	-0.518063	-7.9101	3.64274	-2.35144
 210	1	4	0.011666	-5.93288	3.75227	-1.69329
 211	1	5	0.843192	-8.18527	2.42933	-1.79879
 212	1	1	-0.399874	-9.40391	1.79486	-2.42355
 213	1	2	0.119224	-9.99806	1.31763	-1.6369
 214	1	2	0.109051	-9.08261	1.04105	-3.14825
 215	1	2	0.118031	-10.0077	2.55378	-2.92989
 216	1	6	-0.590955	-7.58018	1.93175	-0.870712
 217	1	1	-0.003445	-5.31872	6.10813	-5.09984
 218	1	1	0.299845	-5.78181	4.95223	-4.1669
 219	1	2	0.023286	-6.209	6.64353	-5.45392
 220	1	2	-0.011958	-4.75979	6.84998	-4.51587
 221	1	3	-0.518063	-4.6997	4.03512	-3.86894
 222	1	4	0.011666	-6.54968	4.38078	-4.70292
 223	1	5	0.843192	-3.56741	4.41572	-3.22096
 224	1	1	-0.399874	-2.62893	3.24771	-3.05594
 225	1	2	0.119224	-2.51867	2.73138	-4.01482
 226	1	2	0.109051	-3.04261	2.5543	-2.31726
 227	1	2	0.118031	-1.6513	3.6049	-2.72005
 228	1	6	-0.590955	-3.31122	5.54086	-2.84476
 229	1	1	-0.003445	-3.11035	6.39165	-6.3962
 230	1	1	0.299845	-4.46793	5.64899	-6.31878
 231	1	2	0.023286	-2.56711	6.25398	-5.45467
 232	1	2	-0.011958	-3.29139	7.4695	-6.5037
 233	1	3	-0.518063	-5.16869	5.95069	-7.54263
 234	1	4	0.011666	-4.26889	4.57129	-6.2613
 235	1	5	0.843192	-6.18957	5.14808	-7.93544
 236	1	1	-0.399874	-6.74486	5.60232	-9.26275
 237	1	2	0.119224	-5.92127	5.73586	-9.97151
 238	1	2	0.109051	-7.26538	6.55555	-9.13083
 239	1	2	0.118031	-7.43941	4.84722	-9.64424
 240	1	6	-0.590955	-6.59176	4.17661	-7.32863
 241	1	1	-0.003445	-0.983823	6.75325	-7.85089
 242	1	1	0.299845	-2.24671	5.88519	-7.57691
 243	1	2	0.023286	-0.730944	6.65397	-8.91395
 244	1	2	-0.011958	-1.23178	7.8135	-7.70903
 245	1	3	-0.518063	-1.89766	4.51894	-7.28317
 246	1	4	0.011666	-2.86778	5.92109	-8.48126
 247	1	5	0.843192	-1.44164	3.7229	-8.28205
 248	1	1	-0.399874	-1.1174	2.34596	-7.76199
 249	1	2	0.119224	-0.512792	2.43855	-6.85324
 250	1	2	0.109051	-0.560859	1.78876	-8.52198
 251	1	2	0.118031	-2.04924	1.824	-7.52504
 252	1	6	-0.590955	-1.27513	4.07202	-9.43357
 253	1	1	-0.003445	1.47271	7.30554	-7.40101
 254	1	1	0.299845	0.277826	6.39737	-7.02494
 255	1	2	0.023286	1.18926	8.35062	-7.21926
 256	1	2	-0.011958	1.67715	7.21859	-8.47658
 257	1	3	-0.518063	0.00128095	6.61162	-5.63023
 258	1	4	0.011666	0.55119	5.35753	-7.24048
 259	1	5	0.843192	0.260349	5.61432	-4.74453
 260	1	1	-0.399874	0.0736655	6.10639	-3.33325
 261	1	2	0.119224	0.852169	6.84266	-3.11039
 262	1	2	0.109051	0.147076	5.26841	-2.63425
 263	1	2	0.118031	-0.906384	6.58447	-3.23959
 264	1	6	-0.590955	0.613811	4.4859	-5.02944
 265	1	1	-0.003445	3.89896	7.96874	-6.98324
 266	1	1	0.299845	2.76124	6.98654	-6.60463
 267	1	2	0.023286	4.34891	7.64952	-7.93219
 268	1	2	-0.011958	3.46642	8.9564	-7.19017
 269	1	3	-0.518063	3.15653	5.646	-6.96081
 270	1	4	0.011666	2.53503	7.07125	-5.53398
 271	1	5	0.843192	3.79133	4.85945	-6.05062
 272	1	1	-0.399874	4.18229	3.53834	-6.66411
 273	1	2	0.119224	5.14645	3.64818	-7.16874
 274	1	2	0.109051	3.42244	3.22278	-7.38582
 275	1	2	0.118031	4.26949	2.78848	-5.87136
 276	1	6	-0.590955	4.13042	5.20733	-4.93741
 277	1	1	-0.003445	6.34019	7.50403	-6.3312
 278	1	1	0.299845	4.98682	8.1059	-5.88121
 279	1	2	0.023286	6.18207	6.43411	-6.49181
 280	1	2	-0.011958	6.63092	7.92453	-7.30269
 281	1	3	-0.518063	5.16749	9.49753	-5.54991
 282	1	4	0.011666	4.66495	7.57966	-4.97516
 283	1	5	0.843192	4.18828	10.0941	-4.81677
 284	1	1	-0.399874	4.52097	11.5337	-4.5175
 285	1	2	0.119224	3.74348	11.9552	-3.87186
 286	1	2	0.109051	4.57073	12.0969	-5.45394
 287	1	2	0.118031	5.48908	11.5821	-4.00994
 288	1	6	-0.590955	3.15253	9.56308	-4.46402
 289	1	1	-0.003445	8.76789	6.88419	-5.63428
 290	1	1	0.299845	7.49586	7.73495	-5.32479
 291	1	2	0.023286	9.12633	7.15929	-6.6342
 292	1	2	-0.011958	9.57359	7.16426	-4.94361
 293	1	3	-0.518063	6.99971	7.47345	-3.99872
 294	1	4	0.011666	7.76981	8.79593	-5.39786
 295	1	5	0.843192	7.64828	8.01954	-2.93894
 296	1	1	-0.399874	6.9378	7.70184	-1.64496
 297	1	2	0.119224	7.00001	8.5702	-0.98162
 298	1	2	0.109051	7.41839	6.8413	-1.17196
 299	1	2	0.118031	5.88614	7.47057	-1.84544
 300	1	6	-0.590955	8.58605	8.78866	-3.00951
 301	1	1	-0.003445	9.8269	4.54413	-6.00679
 302	1	1	0.299845	8.56469	5.3441	-5.58644
 303	1	2	0.023286	9.89442	3.61007	-5.43456
 304	1	2	-0.011958	10.7243	5.12368	-5.75202
 305	1	3	-0.518063	8.20924	4.97608	-4.24366
 306	1	4	0.011666	7.74735	5.08517	-6.266
 307	1	5	0.843192	7.44061	3.87343	-4.05911
 308	1	1	-0.399874	7.10566	3.69134	-2.60043
 309	1	2	0.119224	6.79353	4.65327	-2.18384
 310	1	2	0.109051	7.98904	3.33059	-2.06546
 311	1	2	0.118031	6.28559	2.97321	-2.50491
 312	1	6	-0.590955	7.09544	3.10805	-4.93957
 313	1	1	-0.003445	8.86757	3.06987	-7.92206
 314	1	1	0.299845	9.84282	4.1985	-7.5162
 315	1	2	0.023286	9.1758	2.14082	-7.42581
 316	1	2	-0.011958	7.85404	3.28505	-7.56323
 317	1	3	-0.518063	11.1558	3.70783	-7.84705
 318	1	4	0.011666	9.59096	5.09475	-8.09846
 319	1	5	0.843192	12.0727	4.5661	-8.35953
 320	1	1	-0.399874	13.3662	3.84845	-8.65821
 321	1	2	0.119224	13.1502	2.87667	-9.11364
 322	1	2	0.109051	13.9157	3.69492	-7.72474
 323	1	2	0.118031	13.9661	4.45061	-9.34817
 324	1	6	-0.590955	11.8612	5.7286	-8.63711
 325	1	1	-0.003445	8.98686	1.42555	-9.9271
 326	1	1	0.299845	8.85729	2.90426	-9.46565
 327	1	2	0.023286	9.58659	1.41794	-10.8446
 328	1	2	-0.011958	9.5989	0.875988	-9.20073
 329	1	3	-0.518063	7.64769	3.52415	-9.94289
 330	1	4	0.011666	9.72068	3.44467	-9.87585
 331	1	5	0.843192	7.53985	3.84113	-11.2589
 332	1	1	-0.399874	6.19673	4.468	-11.5412
 333	1	2	0.119224	5.43942	3.67909	-11.5768
 334	1	2	0.109051	6.23246	4.9933	-12.5007
 335	1	2	0.118031	5.94635	5.1738	-10.7431
 336	1	6	-0.590955	8.41471	3.70005	-12.0901
 337	1	1	-0.003445	7.71293	-0.815259	-9.70541
 338	1	1	0.299845	7.64522	0.672078	-10.1597
 339	1	2	0.023286	8.69174	-1.23919	-9.96125
 340	1	2	-0.011958	7.65068	-0.844744	-8.60953
 341	1	3	-0.518063	7.25148	0.819664	-11.548
 342	1	4	0.011666	6.8704	1.14599	-9.54373
 343	1	5	0.843192	7.96257	0.253051	-12.565
 344	1	1	-0.399874	7.41542	0.643365	-13.9147
 345	1	2	0.119224	6.3843	0.995954	-13.8135
 346	1	2	0.109051	7.43929	-0.225793	-14.5794
 347	1	2	0.118031	8.0367	1.44475	-14.3266
 348	1	6	-0.590955	8.87924	-0.533808	-12.4232
 349	1	1	-0.003445	6.63959	-3.14871	-9.70482
 350	1	1	0.299845	6.60981	-1.72015	-10.3011
 351	1	2	0.023286	6.19024	-3.12728	-8.7042
 352	1	2	-0.011958	7.68186	-3.46052	-9.55725
 353	1	3	-0.518063	5.33474	-1.13159	-9.9862
 354	1	4	0.011666	6.77696	-1.79441	-11.3819
 355	1	5	0.843192	4.42404	-0.948423	-10.9787
 356	1	1	-0.399874	3.12791	-0.40353	-10.432
 357	1	2	0.119224	2.61273	-1.20714	-9.89615
 358	1	2	0.109051	2.50031	-0.0476687	-11.255
 359	1	2	0.118031	3.33663	0.414933	-9.7378
 360	1	6	-0.590955	4.63326	-1.12516	-12.1636
 361	1	1	-0.003445	6.89997	-4.95193	-11.5383
 362	1	1	0.299845	5.914	-4.17496	-10.6219
 363	1	2	0.023286	7.79743	-4.34705	-11.7209
 364	1	2	-0.011958	6.41603	-5.05702	-12.5172
 365	1	3	-0.518063	5.17514	-5.12722	-9.83451
 366	1	4	0.011666	5.21152	-3.63851	-11.2726
 367	1	5	0.843192	4.03346	-4.74386	-9.21207
 368	1	1	-0.399874	3.43722	-5.90113	-8.451
 369	1	2	0.119224	2.59293	-5.54662	-7.85167
 370	1	2	0.109051	4.20006	-6.3383	-7.79848
 371	1	2	0.118031	3.09689	-6.65749	-9.16445
 372	1	6	-0.590955	3.5415	-3.63448	-9.26089
 373	1	1	-0.003445	7.991	-6.42245	-9.64858
 374	1	1	0.299845	7.31854	-6.36974	-11.0435
 375	1	2	0.023286	8.9858	-5.96449	-9.7181
 376	1	2	-0.011958	7.43162	-5.83957	-8.90785
 377	1	3	-0.518063	8.31861	-6.88362	-11.9446
 378	1	4	0.011666	6.43727	-7.02598	-11.0339
 379	1	5	0.843192	7.9544	-7.36886	-13.1573
 380	1	1	-0.399874	9.17289	-7.82824	-13.9198
 381	1	2	0.119224	9.70628	-6.95156	-14.2988
 382	1	2	0.109051	8.86642	-8.46817	-14.7531
 383	1	2	0.118031	9.83214	-8.38761	-13.2484
 384	1	6	-0.590955	6.81511	-7.47898	-13.5612
 385	1	1	-0.003445	9.31622	-8.14504	-8.21855
 386	1	1	0.299845	8.10802	-7.88871	-9.1596
 387	1	2	0.023286	9.44561	-9.22775	-8.1171
 388	1	2	-0.011958	10.2257	-7.80274	-8.7292
 389	1	3	-0.518063	6.84567	-8.23859	-8.55462
 390	1	4	0.011666	8.26246	-8.52639	-10.0399
 391	1	5	0.843192	6.54337	-9.54148	-8.31398
 392	1	1	-0.399874	5.09931	-9.68363	-7.89758
 393	1	2	0.119224	4.46269	-9.5337	-8.77522
 394	1	2	0.109051	4.85651	-8.93099	-7.14122
 395	1	2	0.118031	4.93315	-10.6851	-7.48862
 396	1	6	-0.590955	7.28885	-10.4839	-8.49558
 397	1	1	-0.003445	10.5257	-7.91536	-5.99416
 398	1	1	0.299845	9.26452	-7.50657	-6.80591
 399	1	2	0.023286	11.411	-7.73471	-6.61705
 400	1	2	-0.011958	10.6526	-7.26488	-5.11982
 401	1	3	-0.518063	9.29905	-6.07088	-6.93966
 402	1	4	0.011666	8.34935	-7.82571	-6.2902
 403	1	5	0.843192	8.97086	-5.31479	-5.85667
 404	1	1	-0.399874	9.2972	-3.86166	-6.0962
 405	1	2	0.119224	8.65176	-3.46636	-6.88448
 406	1	2	0.109051	10.345	-3.77568	-6.40106
 407	1	2	0.118031	9.14055	-3.30245	-5.1677
 408	1	6	-0.590955	8.56159	-5.73871	-4.7951
 409	1	1	-0.003445	11.847	-10.127	-5.77704
 410	1	1	0.299845	10.5112	-9.38932	-5.52022
 411	1	2	0.023286	12.0242	-10.2153	-6.85549
 412	1	2	-0.011958	12.6761	-9.52636	-5.38033
 413	1	3	-0.518063	10.3243	-9.40756	-4.0977
 414	1	4	0.011666	9.71361	-9.94985	-6.02469
 415	1	5	0.843192	9.07072	-9.44626	-3.58846
 416	1	1	-0.399874	9.13837	-9.67466	-2.0975
 417	1	2	0.119224	8.24294	-10.2108	-1.77079
 418	1	2	0.109051	9.21134	-8.71136	-1.58525
 419	1	2	0.118031	10.0243	-10.2764	-1.85988
 420	1	6	-0.590955	8.05009	-9.48907	-4.24772
 421	1	1	-0.003445	13.1673	-12.3133	-5.23962
 422	1	1	0.299845	11.852	-11.5197	-5.08607
 423	1	2	0.023286	13.1751	-12.8456	-6.19632
 424	1	2	-0.011958	14.0183	-11.619	-5.26943
 425	1	3	-0.518063	10.7126	-12.3101	-5.5064
 426	1	4	0.011666	11.7434	-11.3338	-4.01215
 427	1	5	0.843192	10.4955	-12.6555	-6.80639
 428	1	1	-0.399874	9.15229	-13.3218	-6.96926
 429	1	2	0.119224	9.26858	-14.4059	-6.88991
 430	1	2	0.109051	8.73596	-13.0585	-7.94788
 431	1	2	0.118031	8.46983	-12.9691	-6.18845
 432	1	6	-0.590955	11.2446	-12.4189	-7.7337
 433	1	1	-0.003445	13.9884	-14.6613	-4.47828
 434	1	1	0.299845	13.3565	-13.3167	-4.06761
 435	1	2	0.023286	14.1946	-15.2584	-3.58051
 436	1	2	-0.011958	13.2208	-15.211	-5.0384
 437	1	3	-0.518063	14.2206	-12.7348	-3.07315
 438	1	4	0.011666	12.3749	-13.5664	-3.64484
 439	1	5	0.843192	13.6727	-12.2371	-1.93315
 440	1	1	-0.399874	14.7422	-11.7179	-1.00591
 441	1	2	0.119224	14.273	-11.3017	-0.108561
 442	1	2	0.109051	15.3213	-10.9427	-1.51653
 443	1	2	0.118031	15.4068	-12.541	-0.726223
 444	1	6	-0.590955	12.4872	-12.2138	-1.67053
 445	1	1	-0.003445	16.6059	-14.7839	-4.58901
 446	1	1	0.299845	15.273	-14.5283	-5.3382
 447	1	2	0.023286	16.6698	-15.8244	-4.25155
 448	1	2	-0.011958	16.6438	-14.1662	-3.68166
 449	1	3	-0.518063	15.1427	-15.3747	-6.499
 450	1	4	0.011666	15.3285	-13.5028	-5.7112
 451	1	5	0.843192	15.0187	-16.7261	-6.38742
 452	1	1	-0.399874	14.7235	-17.3408	-7.72983
 453	1	2	0.119224	13.6833	-17.1283	-7.99315
 454	1	2	0.109051	14.88	-18.4226	-7.67622
 455	1	2	0.118031	15.3868	-16.9046	-8.48424
 456	1	6	-0.590955	15.0069	-17.3534	-5.34759
 457	1	1	-0.003445	18.0351	-12.9193	-5.65106
 458	1	1	0.299845	17.8179	-14.4502	-5.49027
 459	1	2	0.023286	17.2539	-12.3628	-5.11719
 460	1	2	-0.011958	18.961	-12.6362	-5.14231
 461	1	3	-0.518063	18.9876	-15.0103	-4.86102
 462	1	4	0.011666	17.6575	-14.9223	-6.46758
 463	1	5	0.843192	20.0422	-15.3524	-5.64605
 464	1	1	-0.399874	21.2409	-15.7611	-4.82475
 465	1	2	0.119224	21.9499	-14.9283	-4.80047
 466	1	2	0.109051	21.7135	-16.6344	-5.28533
 467	1	2	0.118031	20.933	-16.0058	-3.80336
 468	1	6	-0.590955	20.0592	-15.2958	-6.85856
 469	1	1	-0.003445	18.6435	-11.0038	-7.25661
 470	1	1	0.299845	18.0649	-12.4345	-7.12381
 471	1	2	0.023286	18.2294	-10.5517	-8.16749
 472	1	2	-0.011958	18.2446	-10.3921	-6.43899
 473	1	3	-0.518063	16.6994	-12.3151	-7.57644
 474	1	4	0.011666	18.6459	-13.1169	-7.75636
 475	1	5	0.843192	16.1861	-13.2105	-8.45939
 476	1	1	-0.399874	14.7863	-12.8178	-8.87092
 477	1	2	0.119224	14.3702	-12.0882	-8.16952
 478	1	2	0.109051	14.1477	-13.7063	-8.88845
 479	1	2	0.118031	14.8223	-12.3701	-9.86819
 480	1	6	-0.590955	16.7725	-14.1757	-8.90187
 481	1	1	-0.003445	21.094	-11.959	-6.74144
 482	1	1	0.299845	20.1941	-10.8655	-7.37432
 483	1	2	0.023286	20.9839	-12.0381	-5.65551
 484	1	2	-0.011958	22.1494	-11.743	-6.94793
 485	1	3	-0.518063	20.5957	-9.56169	-6.89536
 486	1	4	0.011666	20.4171	-10.8989	-8.44831
 487	1	5	0.843192	20.4695	-9.2172	-5.58308
 488	1	1	-0.399874	20.8556	-7.77549	-5.36675
 489	1	2	0.119224	20.556	-7.18234	-6.23643
 490	1	2	0.109051	21.939	-7.70807	-5.23489
 491	1	2	0.118031	20.3461	-7.39989	-4.47373
 492	1	6	-0.590955	20.0198	-9.92008	-4.69924
 493	1	4	0	-9.97502	7.58425	11.5818
 494	1	2	0	20.8801	-12.935	-7.18425

Velocities

   1	-0.000219529	-0.000219327	-0.000470827
   2	-0.000383502	-0.000278062	-0.000403862
   3	-1.95309e-06	0.000101943	-0.00031939
   4	-0.000517273	-0.000173527	-0.000710453
   5	-0.000228625	-0.000537425	9.72002e-05
   6	-0.000172821	-0.0011803	-0.00123925
   7	5.92406e-05	-0.000967711	0.000127855
   8	0.00010771	-0.000686718	-0.000389824
   9	8.65535e-05	-0.00107471	-0.000820473
  10	-1.51462e-05	-0.00104733	-0.000817106
  11	0.000463687	-0.000167726	-0.000540414
  12	-0.000102104	-0.0008132	0.000211057
  13	-0.000169906	5.34996e-05	-0.000540272
  14	0.000172505	0.000105358	-0.000358494
  15	-0.000408856	0.000121974	-0.000595857
  16	-0.000210951	-0.000166195	-0.000513932
  17	0.000506602	-9.11284e-05	-0.000140819
  18	-4.05858e-06	0.000582503	-0.000519649
  19	0.000252334	-0.000117296	-0.000230772
  20	-9.7918e-05	2.73063e-05	-0.000454512
  21	-0.000197737	-7.58216e-05	-0.000390073
  22	0.000256395	0.000546116	-0.000847204
  23	-0.00055579	-2.68811e-05	-0.000561797
  24	-0.00018191	-7.70903e-05	-0.000964055
  25	6.2186e-06	0.000395459	-0.000113334
  26	-3.58727e-06	0.000341423	-0.000451398
  27	-4.90255e-05	0.000550803	-1.45673e-06
  28	-0.00014696	0.000304567	5.19564e-05
  29	0.000357224	0.000338248	-0.000477839
  30	-2.34835e-05	0.000119423	-0.000417654
  31	0.000387977	0.000212991	-0.000212813
  32	0.000439417	3.41559e-05	-9.61953e-05
  33	0.000502133	1.45638e-05	-9.46198e-05
  34	0.000549677	-0.000161012	-0.000224125
  35	0.000543777	-1.52477e-05	7.95751e-05
  36	0.000226012	0.000172559	9.79528e-05
  37	0.000300262	0.000547934	0.000150428
  38	0.000189816	0.000681103	-1.77493e-05
  39	0.000455109	0.000440472	0.000208599
  40	0.000478669	0.000558358	0.000137047
  41	0.0001204	0.000705214	-5.47912e-07
  42	0.000155714	0.000826996	-4.74247e-05
  43	-0.000153156	0.000291663	-0.000109772
  44	-0.000624111	9.59942e-05	0.000108474
  45	-0.000858414	-0.000268461	0.000196753
  46	-0.00017094	-0.000143357	0.000190051
  47	-0.000846829	0.000218979	-7.06939e-05
  48	-0.000501746	0.000213414	4.87176e-06
  49	0.00033025	5.99948e-05	-0.000195984
  50	0.000226305	0.000320393	0.00020447
  51	0.000183777	-7.72388e-05	-0.000358219
  52	0.000489117	6.75433e-05	-9.32055e-05
  53	-0.00012008	-8.53893e-05	0.000295556
  54	0.000204323	0.000462976	0.000419929
  55	0.000142346	-0.000622838	0.000892323
  56	-0.000676274	-0.000952255	0.000922155
  57	-0.000856163	-0.000781058	0.000407594
  58	-0.000713486	-0.00121648	0.00146024
  59	-0.00111332	-0.00113971	0.0010164
  60	0.000714852	-0.000639481	0.00133827
  61	0.000447439	-0.000325239	-0.000194487
  62	0.000435238	-0.000209667	-0.000246935
  63	0.000750471	-0.000492237	-0.000461598
  64	0.000342025	-0.000674983	0.000178232
  65	0.000341231	-0.000248717	-0.000304598
  66	0.000459052	-0.000216732	-0.000203952
  67	3.10577e-06	-0.000393207	-0.00057415
  68	-4.65835e-05	-0.000304152	-0.00040078
  69	0.000542221	-0.0007227	-0.000545176
  70	-0.000114378	-2.99058e-06	0.000360199
  71	-0.000639823	-0.000182974	-0.000861139
  72	-0.00020195	-0.000539997	-0.000830442
  73	6.72388e-05	-0.000119933	-0.000143471
  74	-2.96951e-05	9.39372e-05	-0.000238371
  75	0.000300885	-0.000159331	-0.00013041
  76	-7.11533e-05	-0.000355629	-2.3767e-05
  77	-0.000438113	0.000184815	6.63607e-05
  78	-7.7633e-06	0.000404226	-0.000616785
  79	-0.000809899	0.000457848	-8.67458e-05
  80	-0.000458048	0.000918126	0.00069521
  81	-0.000610315	0.00157733	0.000911435
  82	-0.000542668	0.00104631	0.00069036
  83	6.75545e-05	0.000567073	0.00102684
  84	-0.000961967	0.000553089	-0.000453411
  85	0.000195164	4.72107e-05	-0.000116488
  86	0.000116333	-0.000116756	-0.000137694
  87	0.000336978	0.000229566	-3.44439e-05
  88	0.000209471	-7.57228e-05	3.75146e-05
  89	0.000187992	-0.000183285	-0.000201008
  90	2.79912e-05	-8.87688e-05	-9.40532e-05
  91	0.000198362	-2.78971e-05	-1.13533e-05
  92	-5.96461e-05	0.000249212	4.55042e-06
  93	-0.000258757	-0.000453679	0.000493861
  94	0.000303298	0.00027334	-0.00060723
  95	-0.000680292	0.000854673	0.00014244
  96	0.000264351	2.67534e-05	0.000286846
  97	-0.000248939	5.67217e-05	-0.000426631
  98	5.51177e-05	0.000258907	-0.0003531
  99	-0.000416242	0.000193634	-0.000675385
 100	-0.000420221	-0.000195898	-0.000362989
 101	0.00018842	0.000418057	-0.000352121
 102	-4.69672e-05	0.000381004	-0.000545055
 103	0.000324344	0.000521227	-0.000374607
 104	0.000281152	0.000471646	-0.000353387
 105	0.000174738	-3.66691e-05	-0.00117119
 106	-0.00026421	0.000222444	0.000417548
 107	0.000944569	0.00117788	-0.00034563
 108	0.000361741	0.000545121	-0.000378879
 109	-0.000121729	2.67643e-05	-0.000132002
 110	-0.000162106	-1.29831e-05	-0.000260055
 111	-0.000165781	-0.000112473	-0.000222566
 112	-0.000138695	0.000255929	-0.000245141
 113	-0.000160618	-0.000126938	-0.000295654
 114	-0.000171477	2.55548e-05	-0.000192002
 115	-0.000137609	-0.000227466	-0.000358954
 116	-0.000126589	-6.88017e-05	-0.000345264
 117	-0.000197208	0.000270334	-0.000341456
 118	-0.000356908	-0.000234161	-0.000408804
 119	0.000191833	-0.000131494	-0.000284955
 120	-0.000162356	-0.000305068	-0.000407296
 121	-4.04835e-05	-0.00024621	0.000340283
 122	-6.85868e-05	9.56291e-06	0.00015882
 123	-0.000288361	-0.000435626	0.000147236
 124	2.15406e-05	-0.000491537	0.000639825
 125	-0.000159441	7.41874e-05	0.000208381
 126	-0.000217527	0.000132174	0.000173422
 127	-0.000164838	8.99008e-05	-6.98449e-05
 128	-0.00106809	0.000521706	0.000235939
 129	-0.00090804	0.00105797	0.00079833
 130	-0.00160479	0.000573668	0.000169162
 131	-0.00140491	0.000327636	-4.01927e-05
 132	0.00032678	-0.000149782	-0.00052061
 133	0.000122596	0.000120837	0.000651382
 134	0.000170775	-3.74173e-05	0.000390497
 135	3.88686e-05	1.41949e-05	0.000789876
 136	0.000114934	0.000321755	0.00067801
 137	0.00017037	-0.000222368	0.000155077
 138	0.00014453	6.67782e-05	0.00025371
 139	0.000375249	0.00122791	-0.000975
 140	0.000387129	0.000734598	-0.00152562
 141	0.00061509	0.00126545	-0.00115882
 142	0.00098802	0.000601164	-0.00241897
 143	-0.000341109	-1.75749e-05	-0.00150502
 144	0.000512361	0.00271321	-0.00172976
 145	3.18338e-05	-5.65636e-05	0.000562006
 146	0.000121808	4.07793e-05	0.000663793
 147	-1.87336e-05	-0.000172629	0.000633995
 148	0.000104161	6.40565e-05	0.000503523
 149	0.000245731	5.41227e-05	0.000727244
 150	0.000126174	7.38283e-06	0.000640318
 151	0.000335173	-0.000191868	0.000785731
 152	0.000516824	-2.45241e-05	0.000764804
 153	0.000293132	-0.000226413	0.000854933
 154	0.000871023	3.97004e-05	0.00104828
 155	0.000561255	0.000228195	0.000403569
 156	0.000312554	-0.000462705	0.000835591
 157	-2.97857e-05	-0.000389758	0.000324588
 158	1.35313e-05	-0.000263329	0.000369257
 159	-4.97911e-05	-0.000398035	0.000299104
 160	-2.46701e-05	-0.000453683	0.000383736
 161	0.000188377	-0.000229817	0.000220117
 162	-8.7744e-05	-0.000368708	0.000387145