pySIMM System Object

600 atoms
599 bonds
1094 angles
1434 dihedrals
50 impropers

6 atom types
7 bond types
12 angle types
10 dihedral types
1 improper types

-120.548202 120.548202 xlo xhi
-120.548202 120.548202 ylo yhi
-120.548202 120.548202 zlo zhi

Masses

   1	12.01	# c3
   2	1.008	# hc
   3	16.0	# os
   4	1.008	# h1
   5	12.01	# c
   6	16.0	# o

Pair Coeffs

   1	0.1094	3.3996695084235347	# c3
   2	0.0157	2.649532787749369	# hc
   3	0.17	3.0000123434657784	# os
   4	0.0157	2.471353044121301	# h1
   5	0.086	3.3996695084235347	# c
   6	0.21	2.959921901149463	# o

Bond Coeffs

   1	330.6	1.0969	# c3,hc
   2	637.7	1.2183	# c,o
   3	330.6	1.0969	# c3,h1
   4	308.6	1.4316	# c3,os
   5	313.0	1.5241	# c,c3
   6	390.8	1.3584	# c,os
   7	300.9	1.5375	# c3,c3

Angle Coeffs

   1	67.4	123.2	# c3,c,o
   2	46.93	108.77	# c,c3,hc
   3	75.32	123.25	# o,c,os
   4	68.0	107.97	# c3,c3,os
   5	46.34	109.8	# c3,c3,hc
   6	46.39	109.56	# c3,c3,h1
   7	63.28	115.98	# c,os,c3
   8	50.8	109.78	# h1,c3,os
   9	68.89	110.72	# c3,c,os
  10	39.4	107.58	# hc,c3,hc
  11	39.24	108.46	# h1,c3,h1
  12	62.86	111.51	# c3,c3,c3

Dihedral Coeffs

   1	2	0.383	3	0	0.8	1	180	# c3,c3,os,c
   2	2	0.0	3	0	0.25	1	0	# hc,c3,c3,os
   3	1	0.3833333333333333	3	0	# X,c3,os,X
   4	1	0.0	2	180	# X,c,c3,X
   5	3	0.8	1	0	0.0	2	0	0.08	3	180	# hc,c3,c,o
   6	3	2.7	2	180	0.0	1	0	1.15	3	0	# c3,c,os,c3
   7	1	0.15555555555555556	3	0	# X,c3,c3,X
   8	2	2.7	2	180	1.4	1	180	# o,c,os,c3
   9	1	0.16	3	0	# hc,c3,c3,c3
  10	3	0.18	3	0	0.25	2	180	0.2	1	180	# c3,c3,c3,c3

Improper Coeffs

   1	10.5	-1	2	# c,X,X,o

Atoms

   1	1	1	-0.003445	-26.5212	-49.3572	69.1394
   2	1	1	0.299845	-25.3396	-49.6089	68.1706
   3	1	2	0.023286	-27.4607	-49.6998	68.6911
   4	1	2	-0.011958	-26.3773	-49.9871	70.0264
   5	1	3	-0.518063	-25.6514	-49.1211	66.8565
   6	1	4	0.011666	-25.0826	-50.6749	68.1357
   7	1	5	0.843192	-26.4287	-49.8874	66.0472
   8	1	1	-0.399874	-26.8028	-49.1278	64.7997
   9	1	2	0.119224	-26.0188	-49.268	64.049
  10	1	2	0.109051	-26.8701	-48.0654	65.0406
  11	1	2	0.118031	-27.7671	-49.4844	64.424
  12	1	6	-0.590955	-26.9015	-50.9697	66.337
  13	1	1	-0.003445	-25.3829	-47.4426	70.3994
  14	1	1	0.299845	-26.6425	-47.8794	69.6075
  15	1	2	0.023286	-25.2808	-48.1115	71.2638
  16	1	2	-0.011958	-24.4955	-47.6062	69.778
  17	1	3	-0.518063	-26.8145	-46.9867	68.4912
  18	1	4	0.011666	-27.51	-47.791	70.2735
  19	1	5	0.843192	-27.9581	-47.0079	67.7596
  20	1	1	-0.399874	-27.9398	-45.9323	66.6996
  21	1	2	0.119224	-28.7761	-46.0874	66.0096
  22	1	2	0.109051	-26.9889	-45.9714	66.1575
  23	1	2	0.118031	-28.0304	-44.9571	67.1871
  24	1	6	-0.590955	-28.9111	-47.7366	67.9515
  25	1	1	-0.003445	-24.9516	-44.9352	69.847
  26	1	1	0.299845	-25.4006	-45.9722	70.9111
  27	1	2	0.023286	-23.9971	-45.2609	69.432
  28	1	2	-0.011958	-25.6489	-44.9249	69.0038
  29	1	3	-0.518063	-24.5709	-45.8514	72.0938
  30	1	4	0.011666	-26.428	-45.7324	71.2128
  31	1	5	0.843192	-23.2282	-46.0969	72.0686
  32	1	1	-0.399874	-22.6086	-45.8325	73.4179
  33	1	2	0.119224	-23.0135	-46.5326	74.1532
  34	1	2	0.109051	-22.839	-44.8054	73.7196
  35	1	2	0.118031	-21.5229	-45.9461	73.3418
  36	1	6	-0.590955	-22.6117	-46.5529	71.1254
  37	1	1	-0.003445	-24.2252	-42.531	69.3347
  38	1	1	0.299845	-24.8496	-43.4881	70.3873
  39	1	2	0.023286	-24.8382	-42.5853	68.429
  40	1	2	-0.011958	-24.3055	-41.489	69.6691
  41	1	3	-0.518063	-26.1996	-43.0751	70.6847
  42	1	4	0.011666	-24.2514	-43.4743	71.3044
  43	1	5	0.843192	-26.3983	-41.997	71.4869
  44	1	1	-0.399874	-27.8708	-41.7825	71.7425
  45	1	2	0.119224	-27.9987	-40.972	72.4675
  46	1	2	0.109051	-28.3055	-42.7039	72.1425
  47	1	2	0.118031	-28.3695	-41.5253	70.8039
  48	1	6	-0.590955	-25.5254	-41.31	71.9788
  49	1	1	-0.003445	-22.3645	-42.6369	67.5155
  50	1	1	0.299845	-22.731	-42.8423	69.0075
  51	1	2	0.023286	-21.2807	-42.7541	67.3963
  52	1	2	-0.011958	-22.5908	-41.6009	67.2318
  53	1	3	-0.518063	-21.893	-41.947	69.766
  54	1	4	0.011666	-22.4737	-43.8749	69.2604
  55	1	5	0.843192	-21.5671	-42.2703	71.0453
  56	1	1	-0.399874	-20.7258	-41.1943	71.685
  57	1	2	0.119224	-19.8332	-41.0255	71.0752
  58	1	2	0.109051	-20.4349	-41.5107	72.6933
  59	1	2	0.118031	-21.3087	-40.2698	71.7424
  60	1	6	-0.590955	-21.8604	-43.3078	71.604
  61	1	1	-0.003445	-22.6058	-43.4657	65.0711
  62	1	1	0.299845	-23.1031	-43.5926	66.5352
  63	1	2	0.023286	-22.737	-42.4184	64.7746
  64	1	2	-0.011958	-21.5295	-43.6655	64.9971
  65	1	3	-0.518063	-23.095	-44.9685	66.9808
  66	1	4	0.011666	-24.1534	-43.28	66.5184
  67	1	5	0.843192	-21.9433	-45.685	67.1037
  68	1	1	-0.399874	-22.2435	-47.1123	67.4896
  69	1	2	0.119224	-22.5681	-47.1378	68.5321
  70	1	2	0.109051	-21.3392	-47.7175	67.3802
  71	1	2	0.118031	-23.0366	-47.5121	66.8507
  72	1	6	-0.590955	-20.8213	-45.2566	66.9341
  73	1	1	-0.003445	-23.5007	-43.781	62.6743
  74	1	1	0.299845	-23.4021	-44.3805	64.1032
  75	1	2	0.023286	-23.7123	-42.7065	62.7418
  76	1	2	-0.011958	-22.5136	-43.8574	62.1995
  77	1	3	-0.518063	-22.6981	-45.6384	64.0229
  78	1	4	0.011666	-24.4036	-44.4977	64.5246
  79	1	5	0.843192	-23.3885	-46.8021	63.9255
  80	1	1	-0.399874	-22.4679	-47.9846	63.7656
  81	1	2	0.119224	-22.1522	-48.0434	62.719
  82	1	2	0.109051	-22.9952	-48.9039	64.0476
  83	1	2	0.118031	-21.5854	-47.8522	64.3992
  84	1	6	-0.590955	-24.5961	-46.9009	64.0052
  85	1	1	-0.003445	-26.0322	-43.9613	62.0314
  86	1	1	0.299845	-24.5759	-44.4291	61.754
  87	1	2	0.023286	-26.0044	-42.9366	62.4218
  88	1	2	-0.011958	-26.5888	-43.8917	61.0893
  89	1	3	-0.518063	-24.2853	-44.0294	60.4051
  90	1	4	0.011666	-24.533	-45.52	61.826
  91	1	5	0.843192	-23.4662	-44.8153	59.6557
  92	1	1	-0.399874	-23.3491	-44.2717	58.2506
  93	1	2	0.119224	-24.3556	-44.0915	57.8604
  94	1	2	0.109051	-22.8349	-45.0028	57.6175
  95	1	2	0.118031	-22.792	-43.3311	58.27
  96	1	6	-0.590955	-22.8987	-45.814	60.0435
  97	1	1	-0.003445	-27.2285	-46.2652	62.4033
  98	1	1	0.299845	-26.8253	-44.8887	62.9933
  99	1	2	0.023286	-27.5603	-46.888	63.2398
 100	1	2	-0.011958	-26.3323	-46.7675	62.0187
 101	1	3	-0.518063	-28.0074	-44.2054	63.4465
 102	1	4	0.011666	-26.2068	-45.0984	63.8677
 103	1	5	0.843192	-27.8477	-43.2446	64.397
 104	1	1	-0.399874	-29.166	-42.5989	64.7341
 105	1	2	0.119224	-29.9107	-43.374	64.9368
 106	1	2	0.109051	-29.4974	-41.9906	63.8869
 107	1	2	0.118031	-29.0401	-41.965	65.6167
 108	1	6	-0.590955	-26.8	-42.9687	64.9526
 109	1	1	-0.003445	-29.7073	-46.718	61.9011
 110	1	1	0.299845	-28.3445	-46.2579	61.3199
 111	1	2	0.023286	-29.6365	-47.778	62.1476
 112	1	2	-0.011958	-29.8756	-46.206	62.8584
 113	1	3	-0.518063	-27.9792	-47.2295	60.3213
 114	1	4	0.011666	-28.4531	-45.2602	60.8741
 115	1	5	0.843192	-27.0715	-46.8912	59.3704
 116	1	1	-0.399874	-26.8269	-48.0424	58.4319
 117	1	2	0.119224	-26.1393	-47.7344	57.6387
 118	1	2	0.109051	-27.781	-48.3589	57.9986
 119	1	2	0.118031	-26.387	-48.87	58.9936
 120	1	6	-0.590955	-26.5304	-45.8097	59.2671
 121	1	1	-0.003445	-32.2489	-47.1113	61.5126
 122	1	1	0.299845	-30.9392	-46.4421	60.9955
 123	1	2	0.023286	-33.0838	-46.4984	61.1491
 124	1	2	-0.011958	-32.2783	-47.0316	62.6073
 125	1	3	-0.518063	-30.6827	-46.8209	59.6299
 126	1	4	0.011666	-31.0823	-45.3548	61.0342
 127	1	5	0.843192	-31.3746	-46.1987	58.6402
 128	1	1	-0.399874	-30.973	-46.7086	57.2795
 129	1	2	0.119224	-29.8832	-46.7696	57.2174
 130	1	2	0.109051	-31.3484	-46.0253	56.5115
 131	1	2	0.118031	-31.3935	-47.7065	57.1287
 132	1	6	-0.590955	-32.1905	-45.315	58.8116
 133	1	1	-0.003445	-31.5756	-49.6637	61.6569
 134	1	1	0.299845	-32.5501	-48.5854	61.0985
 135	1	2	0.023286	-31.1258	-49.3083	62.5901
 136	1	2	-0.011958	-32.1197	-50.5781	61.9295
 137	1	3	-0.518063	-33.8624	-48.8674	61.6228
 138	1	4	0.011666	-32.5811	-48.6392	60.002
 139	1	5	0.843192	-34.6114	-49.8445	61.0445
 140	1	1	-0.399874	-35.9147	-50.0279	61.7838
 141	1	2	0.119224	-36.3566	-49.0471	61.9822
 142	1	2	0.109051	-35.7206	-50.5354	62.7338
 143	1	2	0.118031	-36.5998	-50.6286	61.1771
 144	1	6	-0.590955	-34.3192	-50.4494	60.0322
 145	1	1	-0.003445	-29.1812	-50.6205	61.1712
 146	1	1	0.299845	-30.4945	-50.0273	60.6144
 147	1	2	0.023286	-28.5689	-50.89	60.304
 148	1	2	-0.011958	-28.6345	-49.8353	61.7079
 149	1	3	-0.518063	-31.0686	-50.9499	59.6716
 150	1	4	0.011666	-30.2147	-49.1031	60.1046
 151	1	5	0.843192	-30.6389	-50.9132	58.3833
 152	1	1	-0.399874	-31.3266	-51.9533	57.539
 153	1	2	0.119224	-32.4081	-51.8672	57.6766
 154	1	2	0.109051	-31.0006	-52.9507	57.8464
 155	1	2	0.118031	-31.0736	-51.7912	56.488
 156	1	6	-0.590955	-29.8299	-50.1225	57.9372
 157	1	1	-0.003445	-28.0289	-52.7388	62.066
 158	1	1	0.299845	-29.3107	-51.8545	62.0932
 159	1	2	0.023286	-28.1994	-53.602	62.7222
 160	1	2	-0.011958	-27.9237	-53.1694	61.0647
 161	1	3	-0.518063	-29.5339	-51.3783	63.4393
 162	1	4	0.011666	-30.1612	-52.4618	61.7539
 163	1	5	0.843192	-30.0125	-52.2491	64.374
 164	1	1	-0.399874	-30.1215	-51.6092	65.7372
 165	1	2	0.119224	-29.7298	-52.3045	66.4868
 166	1	2	0.109051	-31.1702	-51.3863	65.9509
 167	1	2	0.118031	-29.5355	-50.6866	65.7751
 168	1	6	-0.590955	-30.3849	-53.3827	64.1431
 169	1	1	-0.003445	-25.9399	-51.2552	61.3922
 170	1	1	0.299845	-26.7031	-52.0408	62.5041
 171	1	2	0.023286	-25.0807	-50.7358	61.8324
 172	1	2	-0.011958	-26.5586	-50.4398	61.0117
 173	1	3	-0.518063	-25.8564	-53.0895	63.007
 174	1	4	0.011666	-26.9365	-51.3604	63.3292
 175	1	5	0.843192	-24.8349	-52.7928	63.85
 176	1	1	-0.399874	-24.1654	-54.0593	64.3298
 177	1	2	0.119224	-23.4652	-53.8206	65.1363
 178	1	2	0.109051	-23.6355	-54.5356	63.4997
 179	1	2	0.118031	-24.9356	-54.7441	64.7011
 180	1	6	-0.590955	-24.4712	-51.6745	64.1507
 181	1	1	-0.003445	-23.9284	-52.3616	60.191
 182	1	1	0.299845	-25.4621	-52.1603	60.2238
 183	1	2	0.023286	-23.4639	-51.476	59.7396
 184	1	2	-0.011958	-23.5334	-52.4229	61.2133
 185	1	3	-0.518063	-25.8361	-51.5433	58.9745
 186	1	4	0.011666	-25.9206	-53.1483	60.3309
 187	1	5	0.843192	-26.7149	-52.1737	58.1531
 188	1	1	-0.399874	-26.8732	-51.4502	56.8414
 189	1	2	0.119224	-27.3947	-50.5072	57.0066
 190	1	2	0.109051	-27.454	-52.0716	56.1553
 191	1	2	0.118031	-25.8871	-51.2485	56.4148
 192	1	6	-0.590955	-27.312	-53.1963	58.4248
 193	1	1	-0.003445	-23.5559	-54.8955	60.3474
 194	1	1	0.299845	-23.5412	-53.6544	59.4173
 195	1	2	0.023286	-24.3542	-54.7674	61.0886
 196	1	2	-0.011958	-22.6228	-54.9367	60.9259
 197	1	3	-0.518063	-22.2054	-53.5059	58.9024
 198	1	4	0.011666	-24.246	-53.8125	58.59
 199	1	5	0.843192	-22.0233	-52.7416	57.7951
 200	1	1	-0.399874	-20.5625	-52.6549	57.4369
 201	1	2	0.119224	-20.2488	-53.5964	56.9774
 202	1	2	0.109051	-19.978	-52.4823	58.3466
 203	1	2	0.118031	-20.4086	-51.8274	56.7357
 204	1	6	-0.590955	-22.9077	-52.2102	57.1524
 205	1	1	-0.003445	-22.6876	-56.6879	58.6263
 206	1	1	0.299845	-23.7796	-56.2609	59.6388
 207	1	2	0.023286	-21.7256	-56.7878	59.1431
 208	1	2	-0.011958	-22.5611	-55.8985	57.8741
 209	1	3	-0.518063	-25.038	-56.2559	58.941
 210	1	4	0.011666	-23.7968	-57.0339	60.4175
 211	1	5	0.843192	-26.1793	-56.4777	59.6428
 212	1	1	-0.399874	-27.348	-56.6835	58.7118
 213	1	2	0.119224	-28.2566	-56.8626	59.2948
 214	1	2	0.109051	-27.1421	-57.5462	58.0695
 215	1	2	0.118031	-27.4755	-55.7942	58.0872
 216	1	6	-0.590955	-26.2378	-56.6177	60.8495
 217	1	1	-0.003445	-21.919	-58.5112	56.9465
 218	1	1	0.299845	-23.0457	-58.0085	57.8823
 219	1	2	0.023286	-21.7303	-57.7325	56.1969
 220	1	2	-0.011958	-20.9775	-58.6099	57.5019
 221	1	3	-0.518063	-23.4736	-59.0601	58.783
 222	1	4	0.011666	-23.9031	-57.7878	57.2349
 223	1	5	0.843192	-22.645	-59.6564	59.6809
 224	1	1	-0.399874	-23.3464	-60.824	60.3278
 225	1	2	0.119224	-23.6551	-61.5303	59.5504
 226	1	2	0.109051	-24.2274	-60.467	60.8673
 227	1	2	0.118031	-22.6653	-61.3307	61.0187
 228	1	6	-0.590955	-21.4833	-59.3668	59.8775
 229	1	1	-0.003445	-21.2478	-60.9609	56.5142
 230	1	1	0.299845	-22.2858	-59.8463	56.2369
 231	1	2	0.023286	-21.009	-60.9936	57.5831
 232	1	2	-0.011958	-20.3142	-60.7196	55.9898
 233	1	3	-0.518063	-22.3005	-59.6175	54.8123
 234	1	4	0.011666	-23.2667	-60.2045	56.5778
 235	1	5	0.843192	-23.4223	-59.1056	54.2397
 236	1	1	-0.399874	-23.1988	-58.8006	52.778
 237	1	2	0.119224	-22.8497	-59.7052	52.2722
 238	1	2	0.109051	-22.434	-58.0247	52.6834
 239	1	2	0.118031	-24.1359	-58.4553	52.3279
 240	1	6	-0.590955	-24.4403	-58.8124	54.8374
 241	1	1	-0.003445	-20.6003	-63.3843	55.9106
 242	1	1	0.299845	-21.765	-62.3527	56.0825
 243	1	2	0.023286	-20.8876	-64.0455	55.0822
 244	1	2	-0.011958	-19.6906	-62.875	55.5613
 245	1	3	-0.518063	-22.7539	-62.7391	57.0666
 246	1	4	0.011666	-22.2557	-62.2463	55.1065
 247	1	5	0.843192	-23.4898	-63.867	56.9182
 248	1	1	-0.399874	-24.3954	-64.1123	58.1014
 249	1	2	0.119224	-24.9185	-65.0616	57.9675
 250	1	2	0.109051	-25.1145	-63.2974	58.1965
 251	1	2	0.118031	-23.802	-64.1682	59.0173
 252	1	6	-0.590955	-23.3309	-64.6873	56.0374
 253	1	1	-0.003445	-19.2728	-65.4301	56.7708
 254	1	1	0.299845	-20.2484	-64.276	57.1322
 255	1	2	0.023286	-18.2366	-65.0682	56.8355
 256	1	2	-0.011958	-19.4238	-65.759	55.7324
 257	1	3	-0.518063	-19.6142	-63.5192	58.1895
 258	1	4	0.011666	-21.1742	-64.74	57.4777
 259	1	5	0.843192	-20.3238	-63.246	59.3223
 260	1	1	-0.399874	-19.4479	-62.6973	60.4197
 261	1	2	0.119224	-18.9768	-61.7654	60.1027
 262	1	2	0.109051	-18.6816	-63.4376	60.6665
 263	1	2	0.118031	-20.0706	-62.5071	61.2987
 264	1	6	-0.590955	-21.4911	-63.5165	59.505
 265	1	1	-0.003445	-18.4724	-67.8065	57.4954
 266	1	1	0.299845	-19.4696	-66.6398	57.7199
 267	1	2	0.023286	-18.4345	-68.0708	56.4332
 268	1	2	-0.011958	-17.4682	-67.4466	57.7472
 269	1	3	-0.518063	-20.8045	-67.1352	57.4893
 270	1	4	0.011666	-19.3339	-66.2801	58.748
 271	1	5	0.843192	-21.6687	-67.2078	58.5348
 272	1	1	-0.399874	-23.0096	-67.7335	58.0952
 273	1	2	0.119224	-23.4377	-67.0691	57.3396
 274	1	2	0.109051	-23.674	-67.7732	58.9617
 275	1	2	0.118031	-22.8835	-68.7368	57.6755
 276	1	6	-0.590955	-21.4008	-66.9258	59.6848
 277	1	1	-0.003445	-19.6754	-70.1091	57.5679
 278	1	1	0.299845	-18.8306	-69.0626	58.3449
 279	1	2	0.023286	-20.4376	-69.6074	56.9586
 280	1	2	-0.011958	-19.027	-70.6465	56.8627
 281	1	3	-0.518063	-17.6148	-69.7275	58.7537
 282	1	4	0.011666	-19.3917	-68.7472	59.2355
 283	1	5	0.843192	-16.9068	-69.1899	59.7844
 284	1	1	-0.399874	-15.6444	-69.9745	60.0568
 285	1	2	0.119224	-15.1548	-69.5581	60.9425
 286	1	2	0.109051	-14.9738	-69.9018	59.1971
 287	1	2	0.118031	-15.8965	-71.0218	60.2351
 288	1	6	-0.590955	-17.2107	-68.18	60.383
 289	1	1	-0.003445	-20.8736	-72.399	57.8448
 290	1	1	0.299845	-20.3618	-71.1065	58.5338
 291	1	2	0.023286	-20.0003	-72.9052	57.4184
 292	1	2	-0.011958	-21.2707	-73.0981	58.5896
 293	1	3	-0.518063	-21.4656	-70.4307	59.1543
 294	1	4	0.011666	-19.626	-71.4049	59.2914
 295	1	5	0.843192	-21.9961	-70.9775	60.2793
 296	1	1	-0.399874	-23.2429	-70.2445	60.697
 297	1	2	0.119224	-22.9704	-69.305	61.1903
 298	1	2	0.109051	-23.8124	-70.8794	61.3824
 299	1	2	0.118031	-23.845	-70.036	59.8086
 300	1	6	-0.590955	-21.5412	-71.9289	60.8857
 301	1	1	-0.003445	-22.0104	-73.4927	55.8774
 302	1	1	0.299845	-21.9372	-72.2067	56.7352
 303	1	2	0.023286	-22.9999	-73.5979	55.4305
 304	1	2	-0.011958	-21.8924	-74.3624	56.5356
 305	1	3	-0.518063	-23.2491	-71.9716	57.3056
 306	1	4	0.011666	-21.656	-71.3543	56.1058
 307	1	5	0.843192	-24.2076	-71.4504	56.4847
 308	1	1	-0.399874	-25.5874	-71.4734	57.1047
 309	1	2	0.119224	-26.3108	-71.8066	56.349
 310	1	2	0.109051	-25.8466	-70.4634	57.4421
 311	1	2	0.118031	-25.6055	-72.1655	57.9555
 312	1	6	-0.590955	-23.9983	-71.0315	55.3593
 313	1	1	-0.003445	-21.3164	-72.6236	53.5638
 314	1	1	0.299845	-20.9153	-73.4838	54.7778
 315	1	2	0.023286	-21.8938	-73.2406	52.8682
 316	1	2	-0.011958	-21.9768	-71.8114	53.8731
 317	1	3	-0.518063	-20.6929	-74.8223	54.3005
 318	1	4	0.011666	-19.9875	-73.0822	55.1993
 319	1	5	0.843192	-20.009	-75.6729	55.1034
 320	1	1	-0.399874	-19.9905	-77.0673	54.529
 321	1	2	0.119224	-20.4075	-77.7567	55.2658
 322	1	2	0.109051	-18.9586	-77.3535	54.3104
 323	1	2	0.118031	-20.5971	-77.1182	53.6173
 324	1	6	-0.590955	-19.4236	-75.3545	56.1215
 325	1	1	-0.003445	-20.5584	-71.3142	51.5097
 326	1	1	0.299845	-20.1015	-72.0578	52.7983
 327	1	2	0.023286	-19.7526	-71.3995	50.7682
 328	1	2	-0.011958	-21.3874	-71.8751	51.0592
 329	1	3	-0.518063	-19.3246	-71.2114	53.6808
 330	1	4	0.011666	-19.4882	-72.9156	52.4908
 331	1	5	0.843192	-18.0956	-70.7964	53.2659
 332	1	1	-0.399874	-17.4273	-69.931	54.3038
 333	1	2	0.119224	-17.2581	-70.5133	55.2139
 334	1	2	0.109051	-18.0824	-69.0856	54.5178
 335	1	2	0.118031	-16.4681	-69.5731	53.9134
 336	1	6	-0.590955	-17.6146	-71.0219	52.177
 337	1	1	-0.003445	-21.6893	-69.3097	52.8766
 338	1	1	0.299845	-20.9019	-69.7947	51.6244
 339	1	2	0.023286	-22.7046	-69.7104	52.8851
 340	1	2	-0.011958	-21.2234	-69.6777	53.7932
 341	1	3	-0.518063	-21.5591	-69.3589	50.4103
 342	1	4	0.011666	-19.9298	-69.2846	51.6641
 343	1	5	0.843192	-22.7926	-69.8154	50.0642
 344	1	1	-0.399874	-23.1937	-69.353	48.6891
 345	1	2	0.119224	-22.3056	-69.1091	48.0951
 346	1	2	0.109051	-23.8347	-68.4704	48.7801
 347	1	2	0.118031	-23.7471	-70.169	48.2102
 348	1	6	-0.590955	-23.4825	-70.5707	50.7155
 349	1	1	-0.003445	-22.489	-67.2893	54.2452
 350	1	1	0.299845	-21.7297	-67.7696	52.9813
 351	1	2	0.023286	-21.9609	-66.4416	54.7035
 352	1	2	-0.011958	-22.4904	-68.0754	55.0097
 353	1	3	-0.518063	-20.3701	-67.2895	53.0417
 354	1	4	0.011666	-22.2123	-67.3757	52.0799
 355	1	5	0.843192	-20.0944	-66.053	52.5434
 356	1	1	-0.399874	-18.6191	-65.7289	52.6218
 357	1	2	0.119224	-18.336	-65.2164	51.6943
 358	1	2	0.109051	-18.033	-66.6501	52.7177
 359	1	2	0.118031	-18.4346	-65.0708	53.4795
 360	1	6	-0.590955	-20.9025	-65.2945	52.0538
 361	1	1	-0.003445	-23.9968	-65.6071	53.0328
 362	1	1	0.299845	-23.9394	-66.8514	53.9514
 363	1	2	0.023286	-24.0151	-65.9093	51.9786
 364	1	2	-0.011958	-23.0926	-65.0101	53.1739
 365	1	3	-0.518063	-24.6323	-67.9211	53.2754
 366	1	4	0.011666	-24.4139	-66.612	54.909
 367	1	5	0.843192	-25.5154	-68.7092	53.9516
 368	1	1	-0.399874	-26.1386	-69.7263	53.0188
 369	1	2	0.119224	-27.2313	-69.7055	53.094
 370	1	2	0.109051	-25.7844	-70.7215	53.2962
 371	1	2	0.118031	-25.8379	-69.5322	51.9826
 372	1	6	-0.590955	-25.9193	-68.4978	55.0817
 373	1	1	-0.003445	-26.5289	-65.3092	53.6209
 374	1	1	0.299845	-25.1635	-64.6454	53.3339
 375	1	2	0.023286	-26.8271	-65.9409	52.773
 376	1	2	-0.011958	-26.4571	-65.9697	54.493
 377	1	3	-0.518063	-25.3512	-63.7494	52.2201
 378	1	4	0.011666	-24.8839	-64.0796	54.2292
 379	1	5	0.843192	-24.6069	-62.6128	52.1599
 380	1	1	-0.399874	-25.05	-61.7532	50.9986
 381	1	2	0.119224	-24.4102	-61.948	50.1317
 382	1	2	0.109051	-24.9804	-60.6997	51.2868
 383	1	2	0.118031	-26.0915	-61.9817	50.7465
 384	1	6	-0.590955	-23.8278	-62.2314	53.0104
 385	1	1	-0.003445	-28.9069	-64.8029	54.5239
 386	1	1	0.299845	-27.6009	-64.2361	53.9232
 387	1	2	0.023286	-28.7586	-64.8924	55.608
 388	1	2	-0.011958	-29.7091	-64.0629	54.3876
 389	1	3	-0.518063	-27.0162	-63.3837	54.9283
 390	1	4	0.011666	-27.8076	-63.6748	52.9971
 391	1	5	0.843192	-27.4237	-62.1013	55.093
 392	1	1	-0.399874	-26.5165	-61.4092	56.085
 393	1	2	0.119224	-26.8503	-61.627	57.1022
 394	1	2	0.109051	-26.5264	-60.327	55.9112
 395	1	2	0.118031	-25.4955	-61.7808	55.9533
 396	1	6	-0.590955	-28.3093	-61.5592	54.4664
 397	1	1	-0.003445	-30.542	-66.677	54.904
 398	1	1	0.299845	-29.3924	-66.1778	53.9898
 399	1	2	0.023286	-31.0789	-65.8048	55.3112
 400	1	2	-0.011958	-31.2822	-67.2331	54.3184
 401	1	3	-0.518063	-29.9044	-66.0049	52.6391
 402	1	4	0.011666	-28.5703	-66.9063	53.9866
 403	1	5	0.843192	-30.2519	-67.096	51.9007
 404	1	1	-0.399874	-30.9693	-66.6946	50.6322
 405	1	2	0.119224	-31.4856	-65.7408	50.7802
 406	1	2	0.109051	-31.7063	-67.4603	50.3704
 407	1	2	0.118031	-30.2522	-66.5929	49.8138
 408	1	6	-0.590955	-30.1395	-68.2538	52.2546
 409	1	1	-0.003445	-29.9089	-69.0716	55.6711
 410	1	1	0.299845	-30.1166	-67.5867	56.0871
 411	1	2	0.023286	-29.847	-69.1613	54.582
 412	1	2	-0.011958	-28.933	-69.4221	56.03
 413	1	3	-0.518063	-28.9409	-67.098	56.7717
 414	1	4	0.011666	-30.9552	-67.5266	56.7952
 415	1	5	0.843192	-28.6693	-67.6594	57.9917
 416	1	1	-0.399874	-27.4116	-67.1234	58.6209
 417	1	2	0.119224	-27.3762	-67.4599	59.6655
 418	1	2	0.109051	-27.4275	-66.0294	58.5907
 419	1	2	0.118031	-26.5361	-67.5021	58.0784
 420	1	6	-0.590955	-29.3686	-68.4899	58.5462
 421	1	1	-0.003445	-30.5586	-71.424	56.5623
 422	1	1	0.299845	-31.0389	-69.9847	56.2183
 423	1	2	0.023286	-29.8472	-71.3512	57.393
 424	1	2	-0.011958	-31.4024	-72.0041	56.9545
 425	1	3	-0.518063	-32.0818	-70.0814	55.2314
 426	1	4	0.011666	-31.4428	-69.5553	57.1442
 427	1	5	0.843192	-33.0512	-69.1522	55.1114
 428	1	1	-0.399874	-33.8263	-69.4049	53.8422
 429	1	2	0.119224	-33.1718	-69.1433	53.0063
 430	1	2	0.109051	-34.732	-68.79	53.8274
 431	1	2	0.118031	-34.0668	-70.47	53.7746
 432	1	6	-0.590955	-33.238	-68.2144	55.8497
 433	1	1	-0.003445	-29.6287	-73.7047	55.8055
 434	1	1	0.299845	-29.8572	-72.2206	55.4198
 435	1	2	0.023286	-29.016	-73.741	56.7116
 436	1	2	-0.011958	-30.6084	-74.1176	56.0979
 437	1	3	-0.518063	-30.71	-72.1859	54.2639
 438	1	4	0.011666	-28.9006	-71.7368	55.2129
 439	1	5	0.843192	-30.1854	-71.9748	53.0332
 440	1	1	-0.399874	-31.2754	-71.9159	51.995
 441	1	2	0.119224	-31.3468	-70.8857	51.6374
 442	1	2	0.109051	-32.2264	-72.2114	52.4485
 443	1	2	0.118031	-31.0246	-72.5866	51.1649
 444	1	6	-0.590955	-28.9992	-71.9721	52.7838
 445	1	1	-0.003445	-27.5263	-74.3629	54.2979
 446	1	1	0.299845	-29.0199	-74.6111	54.6772
 447	1	2	0.023286	-26.8925	-74.5057	55.1737
 448	1	2	-0.011958	-27.3888	-73.3084	54.0525
 449	1	3	-0.518063	-29.2436	-75.9977	55.0189
 450	1	4	0.011666	-29.6082	-74.4318	53.7722
 451	1	5	0.843192	-28.6946	-76.5838	56.1224
 452	1	1	-0.399874	-29.2221	-77.9921	56.3019
 453	1	2	0.119224	-30.3043	-77.9337	56.4576
 454	1	2	0.109051	-28.7587	-78.4506	57.1783
 455	1	2	0.118031	-29.0092	-78.591	55.4069
 456	1	6	-0.590955	-27.8905	-76.064	56.8696
 457	1	1	-0.003445	-27.7861	-76.1176	52.2078
 458	1	1	0.299845	-26.9086	-75.2545	53.1602
 459	1	2	0.023286	-27.0943	-76.661	51.5443
 460	1	2	-0.011958	-28.2865	-76.907	52.7757
 461	1	3	-0.518063	-26.0975	-74.479	52.2613
 462	1	4	0.011666	-26.2712	-75.9911	53.6595
 463	1	5	0.843192	-24.8045	-74.271	52.5903
 464	1	1	-0.399874	-23.9927	-74.0266	51.3378
 465	1	2	0.119224	-23.0554	-74.5871	51.3992
 466	1	2	0.109051	-23.8093	-72.9556	51.2446
 467	1	2	0.118031	-24.5507	-74.3761	50.4608
 468	1	6	-0.590955	-24.2981	-74.5768	53.6508
 469	1	1	-0.003445	-30.2247	-75.8834	51.313
 470	1	1	0.299845	-28.7697	-75.3197	51.3022
 471	1	2	0.023286	-30.4627	-76.2781	52.3066
 472	1	2	-0.011958	-30.8893	-75.0238	51.201
 473	1	3	-0.518063	-28.2482	-75.3485	49.9567
 474	1	4	0.011666	-28.7817	-74.2896	51.6763
 475	1	5	0.843192	-28.6551	-74.4258	49.0408
 476	1	1	-0.399874	-28.1053	-74.7782	47.6737
 477	1	2	0.119224	-28.44	-74.0624	46.9113
 478	1	2	0.109051	-28.4555	-75.7817	47.4035
 479	1	2	0.118031	-27.0126	-74.7725	47.73
 480	1	6	-0.590955	-29.4176	-73.5068	49.2593
 481	1	1	-0.003445	-32.0451	-77.416	50.199
 482	1	1	0.299845	-30.5624	-76.9518	50.2223
 483	1	2	0.023286	-32.15	-78.3341	49.6041
 484	1	2	-0.011958	-32.3301	-77.6835	51.2212
 485	1	3	-0.518063	-29.7663	-78.1293	50.4433
 486	1	4	0.011666	-30.3285	-76.5218	49.2442
 487	1	5	0.843192	-29.4595	-78.8845	49.355
 488	1	1	-0.399874	-29.0367	-80.2889	49.734
 489	1	2	0.119224	-29.1026	-80.4551	50.8209
 490	1	2	0.109051	-28.0181	-80.4579	49.366
 491	1	2	0.118031	-29.7087	-80.9818	49.2175
 492	1	6	-0.590955	-29.5981	-78.552	48.1945
 493	1	1	-0.003445	-34.4653	-76.4403	50.1063
 494	1	1	0.299845	-32.9918	-76.3323	49.6348
 495	1	2	0.023286	-34.9955	-77.1573	49.4868
 496	1	2	-0.011958	-34.4763	-76.8636	51.1156
 497	1	3	-0.518063	-32.997	-76.435	48.1976
 498	1	4	0.011666	-32.6019	-75.3745	49.9645
 499	1	5	0.843192	-32.9301	-75.3024	47.4414
 500	1	1	-0.399874	-33.2027	-75.5892	45.98
 501	1	2	0.119224	-34.1162	-76.194	45.8909
 502	1	2	0.109051	-32.3626	-76.15	45.5427
 503	1	2	0.118031	-33.3548	-74.6434	45.438
 504	1	6	-0.590955	-32.8208	-74.1865	47.8886
 505	1	1	-0.003445	-36.2627	-74.8224	49.0028
 506	1	1	0.299845	-35.1885	-75.0714	50.107
 507	1	2	0.023286	-35.7122	-74.4856	48.1194
 508	1	2	-0.011958	-36.8497	-73.9512	49.314
 509	1	3	-0.518063	-35.8058	-74.8817	51.3908
 510	1	4	0.011666	-34.4307	-74.2717	50.0105
 511	1	5	0.843192	-34.9923	-74.6704	52.4676
 512	1	1	-0.399874	-35.783	-74.4459	53.728
 513	1	2	0.119224	-35.3486	-73.5977	54.2679
 514	1	2	0.109051	-35.7519	-75.3457	54.3482
 515	1	2	0.118031	-36.8247	-74.2233	53.4816
 516	1	6	-0.590955	-33.7777	-74.7301	52.4558
 517	1	1	-0.003445	-38.0581	-76.6828	49.6843
 518	1	1	0.299845	-37.2274	-75.9752	48.5679
 519	1	2	0.023286	-38.6719	-77.4618	49.2025
 520	1	2	-0.011958	-37.3622	-77.2605	50.3075
 521	1	3	-0.518063	-38.125	-75.4606	47.5395
 522	1	4	0.011666	-36.638	-76.7774	48.1092
 523	1	5	0.843192	-37.6302	-75.2792	46.2682
 524	1	1	-0.399874	-38.6256	-74.7279	45.2683
 525	1	2	0.119224	-38.0844	-74.2868	44.4119
 526	1	2	0.109051	-39.2355	-73.9637	45.7627
 527	1	2	0.118031	-39.2665	-75.5441	44.9021
 528	1	6	-0.590955	-36.4965	-75.5494	45.9351
 529	1	1	-0.003445	-40.3707	-75.4791	50.0378
 530	1	1	0.299845	-38.9448	-75.779	50.6105
 531	1	2	0.023286	-40.2499	-75.1821	48.9977
 532	1	2	-0.011958	-40.9497	-76.4087	49.9902
 533	1	3	-0.518063	-39.0171	-76.4113	51.9216
 534	1	4	0.011666	-38.4317	-74.8284	50.735
 535	1	5	0.843192	-39.576	-77.6337	52.1411
 536	1	1	-0.399874	-39.2524	-78.1235	53.5316
 537	1	2	0.119224	-39.9817	-77.7204	54.2371
 538	1	2	0.109051	-38.2519	-77.8039	53.8234
 539	1	2	0.118031	-39.2513	-79.2151	53.5614
 540	1	6	-0.590955	-40.204	-78.3088	51.3451
 541	1	1	-0.003445	-42.6693	-74.4664	50.087
 542	1	1	0.299845	-41.2638	-74.4139	50.7531
 543	1	2	0.023286	-42.5243	-74.4435	48.9889
 544	1	2	-0.011958	-43.1031	-75.4466	50.316
 545	1	3	-0.518063	-40.7556	-73.0916	50.4872
 546	1	4	0.011666	-41.3748	-74.6151	51.8318
 547	1	5	0.843192	-39.7997	-72.5431	51.2818
 548	1	1	-0.399874	-39.3524	-71.2159	50.7097
 549	1	2	0.119224	-40.2397	-70.6187	50.4806
 550	1	2	0.109051	-38.8008	-71.397	49.7807
 551	1	2	0.118031	-38.7302	-70.6629	51.4303
 552	1	6	-0.590955	-39.3114	-73.052	52.2756
 553	1	1	-0.003445	-44.6242	-73.5177	51.6748
 554	1	1	0.299845	-43.7203	-73.344	50.416
 555	1	2	0.023286	-44.6327	-74.5549	52.0206
 556	1	2	-0.011958	-45.6753	-73.2656	51.4488
 557	1	3	-0.518063	-44.6232	-73.2239	49.299
 558	1	4	0.011666	-43.2018	-72.3916	50.4949
 559	1	5	0.843192	-45.4768	-74.2343	48.9716
 560	1	1	-0.399874	-46.5238	-73.7523	47.9949
 561	1	2	0.119224	-46.7585	-72.7016	48.2154
 562	1	2	0.109051	-47.4314	-74.3634	48.1158
 563	1	2	0.118031	-46.1505	-73.8384	46.9667
 564	1	6	-0.590955	-45.5204	-75.3275	49.513
 565	1	1	-0.003445	-45.1897	-72.8133	54.08
 566	1	1	0.299845	-44.2334	-72.6419	52.8782
 567	1	2	0.023286	-45.7196	-71.8814	54.3314
 568	1	2	-0.011958	-45.9865	-73.5078	53.8105
 569	1	3	-0.518063	-44.2636	-71.2533	52.5535
 570	1	4	0.011666	-43.2205	-72.9707	53.1538
 571	1	5	0.843192	-43.1429	-70.5403	52.7975
 572	1	1	-0.399874	-43.5035	-69.1369	53.2085
 573	1	2	0.119224	-42.7716	-68.4311	52.7961
 574	1	2	0.109051	-43.4993	-69.0925	54.3098
 575	1	2	0.118031	-44.5154	-68.9109	52.8502
 576	1	6	-0.590955	-42.0194	-70.9932	52.8048
 577	1	1	-0.003445	-45.0678	-74.247	56.2744
 578	1	1	0.299845	-44.3684	-73.2659	55.3086
 579	1	2	0.023286	-46.0128	-73.8349	56.6446
 580	1	2	-0.011958	-44.4587	-74.4141	57.1662
 581	1	3	-0.518063	-43.7284	-72.1167	55.8895
 582	1	4	0.011666	-43.5206	-73.8441	54.9284
 583	1	5	0.843192	-43.7209	-71.7539	57.1967
 584	1	1	-0.399874	-42.4307	-71.0333	57.4742
 585	1	2	0.119224	-42.5972	-70.1487	58.0875
 586	1	2	0.109051	-41.962	-70.7378	56.5327
 587	1	2	0.118031	-41.7587	-71.7215	57.9906
 588	1	6	-0.590955	-44.5138	-72.0573	58.0706
 589	1	1	-0.003445	-44.1701	-76.1091	54.6035
 590	1	1	0.299845	-45.2625	-75.6535	55.6242
 591	1	2	0.023286	-43.1812	-76.285	55.0611
 592	1	2	-0.011958	-44.4578	-76.9922	54.017
 593	1	3	-0.518063	-46.49	-75.6515	54.8824
 594	1	4	0.011666	-45.2955	-76.4001	56.4288
 595	1	5	0.843192	-47.4187	-76.6132	55.0892
 596	1	1	-0.399874	-48.3917	-76.5879	53.9343
 597	1	2	0.119224	-47.818	-76.585	52.9978
 598	1	2	0.109051	-49.0262	-75.6959	54.0008
 599	1	2	0.118031	-49.0286	-77.4766	53.9308
 600	1	6	-0.590955	-47.4002	-77.4357	55.9898

Velocities

   1	-8.85441e-05	-0.00243075	0.000856537
   2	0.000928307	-0.00134967	0.00150648
   3	0.000296446	-0.00352411	-0.00146973
   4	-0.000435715	-0.00338159	0.000942853
   5	0.000551997	-0.00237398	0.000898621
   6	0.0029427	-0.00231441	0.00264702
   7	-0.000161449	-0.00149264	0.000164884
   8	-0.000450434	-0.000280914	0.000291817
   9	0.00148886	7.93168e-05	0.00050633
  10	0.000163953	-0.000634169	-0.000651239
  11	0.0053294	-0.00419759	-0.000560964
  12	0.000764499	-0.00205203	-0.000503534
  13	-0.0010437	-0.00229078	0.00164999
  14	0.000571132	-0.00236983	0.00082729
  15	-0.00553589	-0.0013419	0.00246263
  16	-0.00279831	-0.00303092	0.00209669
  17	-6.92214e-05	-0.00111166	0.000125023
  18	0.000794127	-0.00171156	0.000556365
  19	-0.000319288	-0.00288741	-0.00223862
  20	0.000303764	-0.00224132	0.0009846
  21	0.00265641	-0.00841005	-0.000643103
  22	0.000222497	-0.00265205	0.00177575
  23	-0.00226331	-0.00269067	-0.000163059
  24	0.000295395	-0.00334156	-0.0012439
  25	-5.0136e-05	-0.00133354	0.00122193
  26	-0.000652207	-0.00144415	0.0014361
  27	8.73822e-05	-0.000564541	0.0010131
  28	0.00150835	-0.00092789	-0.000822268
  29	5.53876e-05	0.00080811	0.00161424
  30	-0.00240847	-0.00153925	-0.000484872
  31	-0.00091175	-0.00178032	0.00228782
  32	-0.000724992	-0.00243705	0.00232033
  33	0.00212134	-0.00337491	-0.000133448
  34	-0.00232202	-0.00334096	0.00394713
  35	-0.000836668	-6.12951e-05	0.00248212
  36	-0.00296691	-0.00263487	0.00144175
  37	-0.000295181	-0.00123475	0.00285114
  38	-0.00040006	-0.00164776	0.0015875
  39	-0.000111006	-0.000185376	0.00278391
  40	0.00115893	-0.000985605	0.00460543
  41	-0.000315889	-0.00101364	0.000712219
  42	-0.000806051	0.00083834	0.00146382
  43	-0.000461645	-0.00169856	0.00194241
  44	-0.00119758	-0.00125633	-0.000522986
  45	-0.000248509	-0.0013083	-0.000251895
  46	-0.00328033	-0.00135413	0.000457773
  47	0.002343	-0.00011704	-0.00204074
  48	-0.00149031	-0.00121984	0.00114559