pySIMM System Object

350 atoms
349 bonds
638 angles
832 dihedrals
29 impropers

6 atom types
7 bond types
12 angle types
10 dihedral types
1 improper types

-100.034097 100.034097 xlo xhi
-100.034097 100.034097 ylo yhi
-100.034097 100.034097 zlo zhi

Masses

   1	12.01	# c3
   2	1.008	# hc
   3	16.0	# os
   4	1.008	# h1
   5	12.01	# c
   6	16.0	# o

Pair Coeffs

   1	0.1094	3.3996695084235347	# c3
   2	0.0157	2.649532787749369	# hc
   3	0.17	3.0000123434657784	# os
   4	0.0157	2.471353044121301	# h1
   5	0.086	3.3996695084235347	# c
   6	0.21	2.959921901149463	# o

Bond Coeffs

   1	330.6	1.0969	# c3,hc
   2	637.7	1.2183	# c,o
   3	330.6	1.0969	# c3,h1
   4	308.6	1.4316	# c3,os
   5	313.0	1.5241	# c,c3
   6	390.8	1.3584	# c,os
   7	300.9	1.5375	# c3,c3

Angle Coeffs

   1	67.4	123.2	# c3,c,o
   2	46.93	108.77	# c,c3,hc
   3	75.32	123.25	# o,c,os
   4	68.0	107.97	# c3,c3,os
   5	46.34	109.8	# c3,c3,hc
   6	46.39	109.56	# c3,c3,h1
   7	63.28	115.98	# c,os,c3
   8	50.8	109.78	# h1,c3,os
   9	68.89	110.72	# c3,c,os
  10	39.4	107.58	# hc,c3,hc
  11	39.24	108.46	# h1,c3,h1
  12	62.86	111.51	# c3,c3,c3

Dihedral Coeffs

   1	2	0.383	3	0	0.8	1	180	# c3,c3,os,c
   2	2	0.0	3	0	0.25	1	0	# hc,c3,c3,os
   3	1	0.3833333333333333	3	0	# X,c3,os,X
   4	1	0.0	2	180	# X,c,c3,X
   5	3	0.8	1	0	0.0	2	0	0.08	3	180	# hc,c3,c,o
   6	3	2.7	2	180	0.0	1	0	1.15	3	0	# c3,c,os,c3
   7	1	0.15555555555555556	3	0	# X,c3,c3,X
   8	2	2.7	2	180	1.4	1	180	# o,c,os,c3
   9	1	0.16	3	0	# hc,c3,c3,c3
  10	3	0.18	3	0	0.25	2	180	0.2	1	180	# c3,c3,c3,c3

Improper Coeffs

   1	10.5	-1	2	# c,X,X,o

Atoms

   1	1	1	-0.003445	8.14737	-0.375055	7.57726
   2	1	1	0.299845	7.56093	-1.78803	7.31704
   3	1	2	0.023286	7.31924	0.325453	7.73887
   4	1	2	-0.011958	8.72532	-0.362265	8.50995
   5	1	3	-0.518063	7.40922	-2.50409	8.55591
   6	1	4	0.011666	8.19117	-2.36949	6.63399
   7	1	5	0.843192	8.52809	-3.01667	9.13435
   8	1	1	-0.399874	8.20028	-3.73244	10.4212
   9	1	2	0.119224	7.50304	-4.54876	10.2111
  10	1	2	0.109051	7.73572	-3.02939	11.1191
  11	1	2	0.118031	9.12136	-4.13267	10.8568
  12	1	6	-0.590955	9.65935	-2.90704	8.70412
  13	1	1	-0.003445	10.3618	-0.667348	6.32056
  14	1	1	0.299845	9.05603	0.145587	6.43268
  15	1	2	0.023286	10.8161	-0.778358	7.31093
  16	1	2	-0.011958	10.123	-1.68546	5.98827
  17	1	3	-0.518063	8.37296	0.0400188	5.16592
  18	1	4	0.011666	9.32127	1.19095	6.6392
  19	1	5	0.843192	7.41466	0.952621	4.86538
  20	1	1	-0.399874	6.80441	0.660001	3.51737
  21	1	2	0.119224	5.93451	1.30782	3.36878
  22	1	2	0.109051	6.49818	-0.389621	3.47687
  23	1	2	0.118031	7.54704	0.856178	2.73908
  24	1	6	-0.590955	7.06165	1.86795	5.57938
  25	1	1	-0.003445	12.5474	-1.03488	5.08938
  26	1	1	0.299845	11.3743	-0.0594343	5.31796
  27	1	2	0.023286	13.0065	-1.27528	6.05305
  28	1	2	-0.011958	12.1122	-1.96283	4.71733
  29	1	3	-0.518063	11.8413	1.25258	5.7149
  30	1	4	0.011666	10.8525	0.0519	4.35932
  31	1	5	0.843192	12.565	1.4644	6.84834
  32	1	1	-0.399874	12.9744	2.91204	6.95157
  33	1	2	0.119224	12.135	3.55319	6.66606
  34	1	2	0.109051	13.8149	3.0917	6.27352
  35	1	2	0.118031	13.2766	3.13114	7.98035
  36	1	6	-0.590955	12.8105	0.638267	7.70282
  37	1	1	-0.003445	14.553	-1.72189	3.62086
  38	1	1	0.299845	13.6318	-0.5592	4.09441
  39	1	2	0.023286	13.9562	-2.39483	2.99284
  40	1	2	-0.011958	15.3247	-1.32434	2.94969
  41	1	3	-0.518063	12.9572	-0.0270422	2.93578
  42	1	4	0.011666	14.2235	0.227039	4.57942
  43	1	5	0.843192	13.6414	0.800507	2.1038
  44	1	1	-0.399874	12.7759	1.21689	0.939687
  45	1	2	0.119224	13.2767	2.01865	0.387949
  46	1	2	0.109051	11.8098	1.57135	1.3116
  47	1	2	0.118031	12.6226	0.356185	0.282581
  48	1	6	-0.590955	14.7848	1.17852	2.25696
  49	1	1	-0.003445	14.9709	-4.06294	4.67254
  50	1	1	0.299845	15.2378	-2.53491	4.76547
  51	1	2	0.023286	15.6491	-4.60111	5.34467
  52	1	2	-0.011958	15.2059	-4.41068	3.65795
  53	1	3	-0.518063	16.6619	-2.33724	4.70038
  54	1	4	0.011666	14.8942	-2.19382	5.74794
  55	1	5	0.843192	17.1601	-1.14719	5.12955
  56	1	1	-0.399874	18.6618	-1.11074	4.99908
  57	1	2	0.119224	19.0914	-1.93271	5.57925
  58	1	2	0.109051	19.0372	-0.153839	5.37615
  59	1	2	0.118031	18.9342	-1.22739	3.94609
  60	1	6	-0.590955	16.5044	-0.246693	5.61589
  61	1	1	-0.003445	13.065	-5.87983	4.79895
  62	1	1	0.299845	13.4928	-4.4053	5.00092
  63	1	2	0.023286	13.3257	-6.16088	3.77138
  64	1	2	-0.011958	13.6228	-6.56021	5.45452
  65	1	3	-0.518063	13.1162	-3.91283	6.30608
  66	1	4	0.011666	12.8992	-3.85497	4.27028
  67	1	5	0.843192	13.6703	-4.39377	7.45177
  68	1	1	-0.399874	13.1228	-3.66296	8.65134
  69	1	2	0.119224	13.6972	-3.93744	9.54107
  70	1	2	0.109051	12.0721	-3.93129	8.78878
  71	1	2	0.118031	13.1925	-2.58263	8.4852
  72	1	6	-0.590955	14.5478	-5.22953	7.52056
  73	1	1	-0.003445	10.8862	-7.12246	4.12037
  74	1	1	0.299845	11.5316	-6.02328	5.01034
  75	1	2	0.023286	11.4281	-7.19703	3.16939
  76	1	2	-0.011958	11.0158	-8.09595	4.60997
  77	1	3	-0.518063	11.3253	-6.36699	6.39401
  78	1	4	0.011666	11.0801	-5.0549	4.77608
  79	1	5	0.843192	10.1918	-5.98775	7.03689
  80	1	1	-0.399874	10.1557	-6.56507	8.42867
  81	1	2	0.119224	10.1283	-7.65696	8.35415
  82	1	2	0.109051	9.26495	-6.20793	8.95226
  83	1	2	0.118031	11.0573	-6.26337	8.96952
  84	1	6	-0.590955	9.31963	-5.27565	6.57715
  85	1	1	-0.003445	9.16016	-5.67785	2.82285
  86	1	1	0.299845	9.38371	-6.87054	3.79342
  87	1	2	0.023286	10.1023	-5.46847	2.30604
  88	1	2	-0.011958	8.47391	-5.96717	2.01966
  89	1	3	-0.518063	8.83976	-8.03783	3.15472
  90	1	4	0.011666	8.8193	-6.69415	4.71269
  91	1	5	0.843192	8.45213	-9.07508	3.94558
  92	1	1	-0.399874	7.8828	-10.1971	3.11384
  93	1	2	0.119224	6.93697	-9.86312	2.67616
  94	1	2	0.109051	7.70899	-11.0704	3.7502
  95	1	2	0.118031	8.58587	-10.4504	2.3152
  96	1	6	-0.590955	8.62129	-9.14543	5.14819
  97	1	1	-0.003445	7.15483	-4.49543	4.02354
  98	1	1	0.299845	8.62593	-4.39762	3.53579
  99	1	2	0.023286	6.88275	-3.55215	4.51362
 100	1	2	-0.011958	7.11302	-5.25132	4.81608
 101	1	3	-0.518063	8.74108	-3.24871	2.67899
 102	1	4	0.011666	9.2387	-4.19738	4.41803
 103	1	5	0.843192	9.97534	-2.76114	2.38445
 104	1	1	-0.399874	9.87524	-1.55701	1.48508
 105	1	2	0.119224	9.4907	-1.86912	0.50865
 106	1	2	0.109051	10.8681	-1.11362	1.36695
 107	1	2	0.118031	9.19643	-0.827011	1.93315
 108	1	6	-0.590955	11.0273	-3.21111	2.79406
 109	1	1	-0.003445	5.69178	-3.64942	2.01218
 110	1	1	0.299845	6.08839	-4.83521	2.93996
 111	1	2	0.023286	4.61251	-3.67564	1.85989
 112	1	2	-0.011958	5.88183	-2.69648	2.52234
 113	1	3	-0.518063	4.87672	-5.24852	3.60346
 114	1	4	0.011666	6.42702	-5.6794	2.33412
 115	1	5	0.843192	4.7972	-6.52598	4.06609
 116	1	1	-0.399874	3.44534	-6.79248	4.67973
 117	1	2	0.119224	3.41445	-7.81939	5.05738
 118	1	2	0.109051	2.66717	-6.65401	3.92455
 119	1	2	0.118031	3.2738	-6.09244	5.50372
 120	1	6	-0.590955	5.65255	-7.37831	3.92438
 121	1	1	-0.003445	5.728	-2.69645	-0.41462
 122	1	1	0.299845	6.39788	-3.62998	0.629353
 123	1	2	0.023286	6.51064	-2.3825	-1.1173
 124	1	2	-0.011958	5.39473	-1.77328	0.0782226
 125	1	3	-0.518063	6.49884	-4.96799	0.113568
 126	1	4	0.011666	7.40275	-3.23676	0.791208
 127	1	5	0.843192	7.47083	-5.23751	-0.799312
 128	1	1	-0.399874	7.48718	-6.6951	-1.18242
 129	1	2	0.119224	8.19789	-7.22648	-0.543557
 130	1	2	0.109051	7.78087	-6.78969	-2.23221
 131	1	2	0.118031	6.49123	-7.12767	-1.04708
 132	1	6	-0.590955	8.29556	-4.43258	-1.1868
 133	1	1	-0.003445	3.21714	-3.40574	-0.471939
 134	1	1	0.299845	4.56367	-3.30868	-1.24302
 135	1	2	0.023286	3.24285	-2.69065	0.357001
 136	1	2	-0.011958	2.39165	-3.0708	-1.11416
 137	1	3	-0.518063	4.4104	-2.43277	-2.37702
 138	1	4	0.011666	4.86837	-4.29349	-1.61094
 139	1	5	0.843192	3.83235	-2.91107	-3.51052
 140	1	1	-0.399874	3.89894	-1.89548	-4.62556
 141	1	2	0.119224	4.72712	-1.20202	-4.44696
 142	1	2	0.109051	2.9591	-1.33787	-4.66427
 143	1	2	0.118031	4.06267	-2.41696	-5.57407
 144	1	6	-0.590955	3.37999	-4.02887	-3.65315
 145	1	1	-0.003445	1.94997	-4.8719	1.29388
 146	1	1	0.299845	2.89009	-4.83285	0.0611038
 147	1	2	0.023286	1.59324	-5.90298	1.41506
 148	1	2	-0.011958	2.52059	-4.64943	2.20408
 149	1	3	-0.518063	2.1996	-5.56055	-0.970288
 150	1	4	0.011666	3.81442	-5.34566	0.355169
 151	1	5	0.843192	2.90831	-6.35405	-1.8155
 152	1	1	-0.399874	2.00225	-6.99244	-2.83758
 153	1	2	0.119224	2.58372	-7.6873	-3.45097
 154	1	2	0.109051	1.58025	-6.20732	-3.47318
 155	1	2	0.118031	1.19382	-7.52503	-2.32912
 156	1	6	-0.590955	4.07754	-6.65207	-1.67293
 157	1	1	-0.003445	-0.543809	-4.45955	1.86264
 158	1	1	0.299845	0.743735	-3.9076	1.19359
 159	1	2	0.023286	-1.34128	-3.73155	1.69561
 160	1	2	-0.011958	-0.848593	-5.36039	1.31447
 161	1	3	-0.518063	1.14759	-2.66379	1.8029
 162	1	4	0.011666	0.513578	-3.74421	0.132823
 163	1	5	0.843192	0.399894	-1.54757	1.60772
 164	1	1	-0.399874	0.980733	-0.381266	2.36749
 165	1	2	0.119224	0.312449	0.480652	2.27144
 166	1	2	0.109051	1.96479	-0.135883	1.95791
 167	1	2	0.118031	1.08339	-0.653589	3.42154
 168	1	6	-0.590955	-0.567262	-1.46237	0.87868
 169	1	1	-0.003445	-1.74111	-5.50186	3.90771
 170	1	1	0.299845	-0.445697	-4.81792	3.37297
 171	1	2	0.023286	-1.62401	-5.76016	4.96728
 172	1	2	-0.011958	-1.84603	-6.46069	3.38487
 173	1	3	-0.518063	-0.191443	-3.62074	4.1303
 174	1	4	0.011666	0.388966	-5.51927	3.49858
 175	1	5	0.843192	0.328953	-3.73624	5.38057
 176	1	1	-0.399874	0.385057	-2.39955	6.08096
 177	1	2	0.119224	-0.0856882	-1.62705	5.4648
 178	1	2	0.109051	1.42954	-2.13427	6.26922
 179	1	2	0.118031	-0.152852	-2.47702	7.03125
 180	1	6	-0.590955	0.676479	-4.77773	5.89876
 181	1	1	-0.003445	-3.24835	-3.53637	4.75929
 182	1	1	0.299845	-3.04169	-4.66635	3.71976
 183	1	2	0.023286	-3.16488	-3.96119	5.76727
 184	1	2	-0.011958	-2.45347	-2.78991	4.66051
 185	1	3	-0.518063	-4.20132	-5.51832	3.76909
 186	1	4	0.011666	-3.0149	-4.19749	2.73566
 187	1	5	0.843192	-4.5218	-6.2327	2.65843
 188	1	1	-0.399874	-5.8536	-6.92098	2.82352
 189	1	2	0.119224	-6.65008	-6.19102	2.65193
 190	1	2	0.109051	-5.94115	-7.3218	3.8383
 191	1	2	0.118031	-5.93339	-7.73396	2.09495
 192	1	6	-0.590955	-3.8949	-6.22275	1.61756
 193	1	1	-0.003445	-4.89617	-2.30537	3.1655
 194	1	1	0.299845	-4.61139	-2.80634	4.61234
 195	1	2	0.023286	-4.76513	-3.11915	2.44651
 196	1	2	-0.011958	-4.16714	-1.53294	2.88532
 197	1	3	-0.518063	-4.59639	-1.6412	5.45671
 198	1	4	0.011666	-5.41178	-3.49057	4.92164
 199	1	5	0.843192	-4.76375	-1.77194	6.79452
 200	1	1	-0.399874	-4.77422	-0.414291	7.45201
 201	1	2	0.119224	-5.56122	0.195488	6.99751
 202	1	2	0.109051	-3.80731	0.0729723	7.29416
 203	1	2	0.118031	-4.96578	-0.52808	8.52344
 204	1	6	-0.590955	-4.92003	-2.81791	7.39001
 205	1	1	-0.003445	-6.62047	-0.431202	3.64058
 206	1	1	0.299845	-6.33282	-1.78549	2.93484
 207	1	2	0.023286	-5.68369	0.0601601	3.92357
 208	1	2	-0.011958	-7.15239	-0.618163	4.58329
 209	1	3	-0.518063	-7.22119	-2.80696	3.42968
 210	1	4	0.011666	-6.45475	-1.67826	1.84946
 211	1	5	0.843192	-8.49774	-2.87916	2.97948
 212	1	1	-0.399874	-9.24205	-3.98377	3.68611
 213	1	2	0.119224	-8.89205	-4.94937	3.31152
 214	1	2	0.109051	-10.3154	-3.87717	3.50001
 215	1	2	0.118031	-9.04727	-3.92034	4.76157
 216	1	6	-0.590955	-8.97024	-2.20839	2.08585
 217	1	1	-0.003445	-7.73461	1.89095	3.47505
 218	1	1	0.299845	-7.45066	0.541479	2.76983
 219	1	2	0.023286	-7.94662	1.68331	4.53057
 220	1	2	-0.011958	-6.85564	2.54631	3.47772
 221	1	3	-0.518063	-6.84205	0.726283	1.46736
 222	1	4	0.011666	-8.42414	0.0674669	2.61468
 223	1	5	0.843192	-5.58969	1.23165	1.2984
 224	1	1	-0.399874	-5.1827	1.17887	-0.151912
 225	1	2	0.119224	-5.9789	1.5997	-0.774561
 226	1	2	0.109051	-5.01497	0.135976	-0.43873
 227	1	2	0.118031	-4.25911	1.7483	-0.293869
 228	1	6	-0.590955	-4.8625	1.64601	2.1777
 229	1	1	-0.003445	-8.5391	3.62528	1.74308
 230	1	1	0.299845	-8.94984	2.60199	2.82403
 231	1	2	0.023286	-7.60695	3.30693	1.26255
 232	1	2	-0.011958	-8.33395	4.59762	2.21055
 233	1	3	-0.518063	-9.69573	3.31265	3.83278
 234	1	4	0.011666	-9.60207	1.84768	2.36369
 235	1	5	0.843192	-10.4517	2.59259	4.70324
 236	1	1	-0.399874	-11.0739	3.48401	5.7484
 237	1	2	0.119224	-11.8951	4.04904	5.29851
 238	1	2	0.109051	-10.3195	4.17982	6.1293
 239	1	2	0.118031	-11.452	2.86609	6.5691
 240	1	6	-0.590955	-10.5682	1.38316	4.6952
 241	1	1	-0.003445	-9.56919	5.0706	-0.15099
 242	1	1	0.299845	-9.64297	3.75458	0.670461
 243	1	2	0.023286	-10.52	5.19528	-0.682901
 244	1	2	-0.011958	-9.50743	5.92384	0.537772
 245	1	3	-0.518063	-9.49998	2.5979	-0.177918
 246	1	4	0.011666	-10.6162	3.72941	1.17885
 247	1	5	0.843192	-10.4777	2.26268	-1.05587
 248	1	1	-0.399874	-10.1023	1.02125	-1.82365
 249	1	2	0.119224	-10.9631	0.675386	-2.40386
 250	1	2	0.109051	-9.79319	0.239662	-1.12114
 251	1	2	0.118031	-9.26719	1.25217	-2.49302
 252	1	6	-0.590955	-11.4972	2.89439	-1.24743
 253	1	1	-0.003445	-8.53841	6.4294	-2.04966
 254	1	1	0.299845	-8.41188	5.14913	-1.17713
 255	1	2	0.023286	-7.80421	7.16572	-1.69733
 256	1	2	-0.011958	-9.51808	6.89911	-1.88743
 257	1	3	-0.518063	-7.1804	5.19738	-0.429647
 258	1	4	0.011666	-8.44497	4.25084	-1.79963
 259	1	5	0.843192	-6.0171	4.85599	-1.03915
 260	1	1	-0.399874	-4.86161	4.91156	-0.0716734
 261	1	2	0.119224	-4.02663	4.32981	-0.474507
 262	1	2	0.109051	-5.16518	4.49693	0.895174
 263	1	2	0.118031	-4.55615	5.9533	0.0596838
 264	1	6	-0.590955	-5.90488	4.50496	-2.19358
 265	1	1	-0.003445	-8.41354	7.59262	-4.30524
 266	1	1	0.299845	-8.35794	6.22294	-3.57798
 267	1	2	0.023286	-9.45949	7.87469	-4.48615
 268	1	2	-0.011958	-8.00797	8.36399	-3.6398
 269	1	3	-0.518063	-9.46374	5.44285	-4.08778
 270	1	4	0.011666	-7.38934	5.7536	-3.7858
 271	1	5	0.843192	-9.32434	4.10654	-4.29979
 272	1	1	-0.399874	-10.5975	3.50483	-4.83757
 273	1	2	0.119224	-10.4277	2.448	-5.06838
 274	1	2	0.109051	-10.8999	4.03518	-5.74545
 275	1	2	0.118031	-11.3858	3.59477	-4.08337
 276	1	6	-0.590955	-8.30673	3.46904	-4.14108
 277	1	1	-0.003445	-8.18378	6.70655	-6.7364
 278	1	1	0.299845	-7.62047	7.63293	-5.6377
 279	1	2	0.023286	-8.1803	5.66624	-6.39132
 280	1	2	-0.011958	-9.22896	6.98635	-6.89916
 281	1	3	-0.518063	-7.71401	8.95651	-6.19316
 282	1	4	0.011666	-6.57471	7.36637	-5.4424
 283	1	5	0.843192	-6.9172	9.94388	-5.71416
 284	1	1	-0.399874	-7.16531	11.2208	-6.48042
 285	1	2	0.119224	-6.56507	11.2053	-7.39521
 286	1	2	0.109051	-6.88244	12.0786	-5.86303
 287	1	2	0.118031	-8.22504	11.2903	-6.746
 288	1	6	-0.590955	-6.18494	9.85877	-4.74948
 289	1	1	-0.003445	-8.15198	6.43352	-9.35648
 290	1	1	0.299845	-7.37929	6.80526	-8.06525
 291	1	2	0.023286	-8.7294	7.31316	-9.66386
 292	1	2	-0.011958	-7.42506	6.27632	-10.1643
 293	1	3	-0.518063	-6.25504	5.91976	-7.9766
 294	1	4	0.011666	-7.04008	7.83573	-8.22615
 295	1	5	0.843192	-5.05331	6.40847	-7.5812
 296	1	1	-0.399874	-4.01327	5.31953	-7.56125
 297	1	2	0.119224	-4.24522	4.61992	-6.75258
 298	1	2	0.109051	-3.02377	5.75991	-7.40433
 299	1	2	0.118031	-4.03869	4.78405	-8.5157
 300	1	6	-0.590955	-4.82196	7.57191	-7.31674
 301	1	1	-0.003445	-10.5791	5.63532	-9.03884
 302	1	1	0.299845	-9.09774	5.2063	-9.23132
 303	1	2	0.023286	-10.6292	6.56958	-8.47032
 304	1	2	-0.011958	-11.053	4.87967	-8.4007
 305	1	3	-0.518063	-9.0019	4.37748	-10.4067
 306	1	4	0.011666	-8.80308	4.61172	-8.35702
 307	1	5	0.843192	-7.90364	3.59059	-10.5666
 308	1	1	-0.399874	-7.95908	2.85057	-11.8798
 309	1	2	0.119224	-7.10292	2.17132	-11.9468
 310	1	2	0.109051	-7.92574	3.571	-12.7027
 311	1	2	0.118031	-8.89003	2.2786	-11.9329
 312	1	6	-0.590955	-7.00079	3.4659	-9.76566
 313	1	1	-0.003445	-10.8596	6.70984	-11.4432
 314	1	1	0.299845	-11.4401	5.80841	-10.3229
 315	1	2	0.023286	-10.7536	7.7391	-11.0769
 316	1	2	-0.011958	-9.85271	6.37987	-11.7243
 317	1	3	-0.518063	-12.671	6.45633	-9.9461
 318	1	4	0.011666	-11.6401	4.8167	-10.7506
 319	1	5	0.843192	-13.6392	5.74841	-9.31197
 320	1	1	-0.399874	-14.816	6.63276	-8.9776
 321	1	2	0.119224	-14.5188	7.68602	-9.01823
 322	1	2	0.109051	-15.1713	6.39412	-7.97042
 323	1	2	0.118031	-15.6135	6.45458	-9.70491
 324	1	6	-0.590955	-13.5839	4.56574	-9.0468
 325	1	1	-0.003445	-12.4893	7.99454	-13.0448
 326	1	1	0.299845	-11.7932	6.64826	-12.6838
 327	1	2	0.023286	-13.5388	7.76274	-13.2666
 328	1	2	-0.011958	-12.5192	8.65758	-12.1699
 329	1	3	-0.518063	-11.0348	6.11489	-13.7862
 330	1	4	0.011666	-12.5949	5.93547	-12.449
 331	1	5	0.843192	-11.7112	5.5201	-14.8041
 332	1	1	-0.399874	-10.7634	5.08671	-15.8912
 333	1	2	0.119224	-11.3344	4.63538	-16.7086
 334	1	2	0.109051	-10.0523	4.36111	-15.4857
 335	1	2	0.118031	-10.2203	5.96233	-16.2602
 336	1	6	-0.590955	-12.9193	5.42225	-14.8767
 337	1	1	-0.003445	-10.5449	9.42542	-13.9936
 338	1	1	0.299845	-11.9138	8.75954	-14.2629
 339	1	2	0.023286	-10.6224	10.1779	-13.1992
 340	1	2	-0.011958	-9.80034	8.68003	-13.6871
 341	1	3	-0.518063	-12.8832	9.76724	-14.6035
 342	1	4	0.011666	-11.8132	8.06244	-15.1012
 343	1	5	0.843192	-13.0078	10.1351	-15.9055
 344	1	1	-0.399874	-14.1282	11.1314	-16.0763
 345	1	2	0.119224	-15.0796	10.5919	-16.1098
 346	1	2	0.109051	-13.9835	11.6852	-17.0093
 347	1	2	0.118031	-14.1352	11.8254	-15.2304
 348	1	6	-0.590955	-12.3515	9.69903	-16.8302
 349	1	4	0	6.58095	-1.67714	6.83648
 350	1	2	0	-10.1681	9.91852	-14.8985

Velocities

   1	0.000127981	-0.000203506	1.00597e-05
   2	0.000496331	-0.000187215	-0.000265599
   3	-0.00011185	-0.000338315	-0.000239823
   4	-1.56179e-05	0.00019202	3.70116e-05
   5	0.000929512	-0.000687671	-0.000667196
   6	-0.000194123	0.000205419	-0.00138718
   7	0.000608282	-0.000705206	-0.000348256
   8	-0.000769374	5.42627e-05	-0.000317757
   9	-0.00117068	0.000470812	-0.000853568
  10	-0.00134795	0.000854906	-0.00153617
  11	-0.00182887	-0.000400156	0.00128104
  12	0.000830058	-0.000594165	0.000546067
  13	0.000161216	0.00022263	5.4829e-05
  14	-3.78084e-05	2.12809e-05	-1.2108e-05
  15	5.35004e-05	0.000550497	3.99183e-05
  16	0.000347077	8.55579e-05	0.000269341
  17	-8.47069e-05	-0.000102642	-0.000108378
  18	1.48587e-06	0.000107767	-0.000138651
  19	-0.00077131	-0.000600543	0.000265523
  20	-0.000196553	-9.82088e-05	-0.000143202
  21	-9.58483e-05	-7.5131e-05	-0.000241699
  22	-0.000166259	-8.64717e-05	-0.00071119
  23	0.000118738	0.000221677	0.000238274
  24	-0.00158105	-0.00131629	0.000617908
  25	7.89753e-05	-3.7835e-05	-4.57432e-05
  26	0.000108732	4.56224e-05	-0.000118035
  27	-1.86399e-05	-0.00018293	-4.66299e-05
  28	2.90097e-05	-5.57549e-05	-0.000128364
  29	0.000196257	4.26197e-05	6.5456e-05
  30	0.000137534	-2.32103e-05	8.93406e-05
  31	0.000229145	-1.46481e-05	-1.4918e-05
  32	-0.000140944	-3.16397e-05	0.000301683
  33	-0.000603632	-8.51012e-05	0.00141969
  34	-0.000788075	0.000656984	-0.000375422
  35	0.00078511	-0.000384131	0.000145545
  36	0.000530458	-0.000156347	-0.000126793
  37	0.000234573	1.55521e-05	1.9649e-05
  38	0.000110134	-9.39008e-06	9.16183e-05
  39	0.000395709	4.28148e-05	-0.000208936
  40	0.000395844	0.000191385	0.000183668
  41	0.000185439	3.4723e-05	-3.40121e-05
  42	9.53834e-05	-0.000130882	0.000144181
  43	0.000283413	0.000187026	8.76422e-05
  44	0.000267157	0.000443984	0.000167708
  45	0.000503216	0.000200083	0.000110459
  46	0.000495839	0.000825642	0.000230325
  47	-9.36643e-05	0.000524525	0.000257982
  48	0.000280423	0.000160772	0.000163289
  49	-3.09805e-05	-0.000148405	-2.60575e-05
  50	0.000130415	-0.000154214	1.77623e-05
  51	-0.000152987	-0.000146039	9.42867e-05
  52	9.47373e-05	-0.000167838	5.98348e-05
  53	0.000169617	-0.000272649	1.87371e-06
  54	0.00017014	-0.00010954	-6.47448e-05
  55	0.000348039	-0.000390976	0.000106678
  56	0.00027724	-0.000261636	-0.000384772
  57	0.000574365	-0.000314947	-0.000629609
  58	0.000357112	-0.000286253	-0.00044197
  59	-7.65517e-05	-0.000154473	-0.000522973
  60	0.000386243	-0.00037388	0.000364205
  61	-3.45601e-05	-2.44985e-05	2.76651e-05
  62	-1.69513e-05	-6.35251e-05	-0.000172438
  63	-0.000196821	-0.000138726	1.92456e-05
  64	1.05199e-05	-4.21354e-05	-6.09052e-05
  65	-7.7114e-05	3.5289e-05	-0.000275823
  66	2.02226e-05	-9.01072e-05	-0.000255381
  67	-0.000256027	-0.000246559	-0.000219258
  68	-0.000172236	9.91548e-05	-0.000306111
  69	-0.000494151	-0.000188525	-0.000204361
  70	-0.000308901	0.000578503	-0.000562991
  71	0.000391163	3.72408e-05	-0.000358034
  72	-0.00076266	-0.000521114	-9.02867e-05
  73	-7.17938e-05	-3.63484e-05	0.000215503
  74	-0.000112434	-5.4879e-05	0.000222122
  75	-2.32117e-05	-0.000100433	0.000228392
  76	-0.000174953	-3.98742e-05	0.000243032
  77	-7.38623e-05	-6.04369e-05	0.000254323
  78	-4.14319e-05	-8.87095e-05	0.000265858
  79	-2.49601e-05	0.000123651	0.00026585
  80	-0.000133901	0.00044696	0.000382689
  81	4.07639e-05	0.000417728	0.000717903
  82	-0.000271524	0.000443069	0.000194995
  83	-0.000261902	0.00075229	0.000441772
  84	7.5505e-05	0.000275155	0.000183258
  85	0.000154934	0.000301451	0.000272191
  86	-6.43619e-06	0.000173337	0.00015065
  87	0.000183625	0.000295656	0.000300343
  88	0.000175411	0.000445628	0.000213022
  89	-0.000118772	0.000279474	4.95779e-05
  90	1.13009e-05	0.000154968	0.000158317
  91	4.0324e-05	0.000175992	-4.96058e-05
  92	-0.000414381	0.000400312	-2.74685e-05
  93	-0.000312115	0.000792904	3.53675e-05
  94	-0.000726712	0.000488663	-4.45966e-05
  95	-0.000574762	0.000144837	-8.57238e-05
  96	0.000303168	-3.66124e-05	-7.33194e-05
  97	0.000183809	0.000130461	0.000347848
  98	0.000181972	0.000283557	0.00035061
  99	1.29408e-05	0.000172911	0.000236146
 100	0.000253658	0.000225233	0.000463272
 101	8.85469e-05	0.000369676	0.000385303
 102	0.000188389	0.000279923	0.000366194
 103	6.05896e-05	0.000329609	0.00018798
 104	8.71076e-05	0.000138704	-8.66607e-05
 105	-7.55906e-05	-2.5748e-05	3.39774e-05
 106	0.000150809	-5.47012e-05	-0.000340137
 107	0.000275141	0.000383216	-0.000196205
 108	0.000101494	0.000234635	9.50312e-06
 109	0.00040726	-0.00034208	6.12306e-05
 110	0.00028553	-0.000167588	0.000337053
 111	0.000431902	-0.000448128	-3.35546e-05
 112	0.000275052	-0.000257468	-3.39675e-05
 113	0.000224948	4.46466e-05	0.000382562
 114	0.000303942	-0.000297082	0.000516236
 115	0.000108189	0.000117235	0.000602643
 116	5.19781e-05	0.000369122	0.000638352
 117	-3.05315e-05	0.000494918	0.000972324
 118	7.44723e-05	0.000166363	0.000586736
 119	3.09883e-05	0.000624158	0.000428825
 120	-3.19767e-05	-8.22463e-06	0.000725374
 121	0.000580476	-0.000285429	0.000106206
 122	0.000520779	-0.000399969	9.6605e-05
 123	0.000581252	-0.000288507	0.000101347
 124	0.000672089	-0.000282122	0.000162887
 125	0.000571623	-0.000416739	0.000168485
 126	0.000555338	-0.00044347	0.000127721
 127	0.000183538	-0.000405588	-0.00020513
 128	0.000521229	-0.000498315	0.000290612
 129	0.000175917	-0.00020632	0.000987313
 130	0.00116755	-0.000968482	0.000566676
 131	0.0004488	-0.000478761	-7.99243e-05
 132	-0.000110594	-0.000247777	-0.00077131
 133	0.000476645	-2.39133e-05	9.19175e-05
 134	0.000486961	-9.78417e-05	8.82518e-05
 135	0.0006471	-0.000262059	0.000290894
 136	0.000498496	0.000343715	0.000250476
 137	0.000497917	-9.26939e-05	5.03737e-05
 138	0.000416334	-8.94934e-05	4.75008e-05
 139	-0.000510454	9.78304e-05	0.000446309
 140	-0.00138677	0.000202771	0.000486598
 141	-0.000637582	-0.000439553	-0.000606055
 142	-0.00106524	0.000886	0.00194272
 143	-0.00316881	0.000205922	0.000189587
 144	-0.00111577	0.000326286	0.000774902
 145	-9.60022e-05	-7.16088e-06	-0.000517487
 146	0.000194585	-6.50847e-05	-0.000281955
 147	-0.000226627	-2.64005e-07	-0.00078252
 148	-0.000275777	-0.000213275	-0.000356994
 149	0.000236373	8.32289e-05	-0.00040995
 150	6.03623e-05	-0.000277146	-0.000187704
 151	0.000182489	0.000248851	-0.000649682
 152	-0.00021809	-3.39562e-05	-0.00015364
 153	-0.000522395	-0.000289515	-0.000137614
 154	-0.000419244	-0.000206699	-0.000224852
 155	-7.29146e-05	0.000210208	0.000329478
 156	0.000260358	0.000490898	-0.00107675
 157	6.63428e-05	-8.41513e-05	-0.000498746
 158	-6.92899e-05	7.04687e-05	-0.000592918
 159	-0.000153251	-0.000339807	-0.00055693
 160	0.000282591	-0.000232444	-0.000392845
 161	-0.000117705	0.000132615	-0.000631523
 162	-0.000136457	2.68804e-05	-0.000589404
 163	-0.000585012	1.0176e-05	5.76415e-06
 164	-0.000191695	6.63056e-05	-0.000289466
 165	2.79248e-05	0.000238882	-0.000434257
 166	-0.000193378	-0.00030492	-0.000473626
 167	-0.000144516	0.000319019	-0.000238587
 168	-0.0010755	-8.73958e-05	0.000782059
 169	0.000302219	7.75912e-05	-0.000388717
 170	0.000252153	2.63805e-05	-0.000484591
 171	0.000404511	-5.59867e-05	-0.000426417
 172	0.000295475	0.000139475	-0.000498123
 173	0.000523513	-5.5045e-05	-0.000454911
 174	0.000204643	-4.54414e-05	-0.000598534
 175	0.000788051	-0.000157376	-0.000589189
 176	0.00103064	-0.000179838	-0.000539016
 177	0.000224379	-0.000300681	-1.43633e-05
 178	0.00115775	0.000178351	-0.0015368
 179	0.00201294	-0.000366255	-1.97387e-05
 180	0.000912741	-0.000169739	-0.000759179
 181	0.000503975	0.000473621	-0.000564112
 182	0.000259071	0.000102997	-0.00025551
 183	0.00145864	0.00103565	-0.000409727
 184	0.000225289	0.000696923	-0.00155247
 185	0.000347562	-1.69e-05	0.000120916
 186	-6.08709e-05	-0.00014259	-0.000404266
 187	0.000545194	-0.000636929	0.000516434
 188	0.000814622	-0.000948328	0.000793097
 189	0.000584291	-0.00100136	0.00224438
 190	0.00179157	-0.00215458	0.000443039
 191	0.000401129	-0.000258542	-3.66911e-05
 192	0.000627833	-0.000985741	0.000410521
 193	-0.000671516	-0.000610124	1.58142e-05
 194	0.000171546	5.8262e-05	8.68108e-05
 195	-0.00149918	-0.00127418	0.000583102
 196	-0.000485347	-0.0012075	-0.00106588
 197	0.000243708	0.000138004	0.000118825
 198	0.000509975	-0.000151491	0.000517352
 199	-9.68394e-05	-0.000290877	0.000131733
 200	0.000384547	-0.000622622	0.000979277
 201	0.00030395	-0.000201949	0.00179009
 202	0.000385458	-0.000628638	0.00106001
 203	0.000777262	-0.00135106	0.00101804
 204	-0.000627787	-0.000439899	-0.000419736
 205	0.000232838	0.000314019	-0.000305179
 206	-0.000645725	-0.000175225	0.000361038
 207	0.000596885	0.000153805	-0.00117342
 208	0.000770747	0.000933566	0.000113891
 209	-0.00089742	0.000389452	0.00100496
 210	-0.000817153	-0.000571467	0.000298939
 211	-0.000480047	-0.000269136	-0.000166929
 212	-0.000898155	-0.000137007	-0.000353764
 213	-0.000429385	-0.000214208	0.000284609
 214	-0.000772938	-0.000444124	-0.00130575
 215	-0.00184598	0.000243026	-0.000215052
 216	0.000355338	-0.00119317	-0.00134441
 217	-0.000392863	4.90097e-05	-0.000171202
 218	-8.28737e-05	0.000100135	-0.000274428
 219	-0.000372654	-0.000110462	-0.000207493
 220	-0.000501336	0.000166438	6.3669e-05
 221	-0.00028541	0.000222561	-0.000309831
 222	6.02312e-05	-0.000245555	-0.000249929
 223	-0.000752359	0.00118323	-0.000717594
 224	-0.00131344	0.00116277	-0.000827341
 225	-0.00114403	0.00225651	-0.000365465
 226	-0.00276744	0.00104171	-0.00116468
 227	-0.000699543	8.24642e-05	-0.0011576
 228	-0.000833936	0.00207671	-0.000977862
 229	-0.000523741	0.000331681	0.000163229
 230	-0.000481584	-8.43583e-06	-0.000133155
 231	-0.000193319	0.000893531	0.000491399
 232	-0.00118446	0.000362573	0.000388076
 233	-0.0007443	-7.77689e-05	-0.000285095
 234	-0.000307244	-3.20844e-05	-0.000311059
 235	6.23111e-05	-3.50742e-05	0.000470486
 236	-0.000668482	0.000415437	-0.000419131
 237	5.37737e-05	0.000818377	-0.00144657
 238	-0.000776967	0.000196436	0.000240704
 239	-0.00192211	0.000816859	-0.00073197
 240	0.00131971	-0.000121993	0.0016749
 241	-1.79007e-05	-2.58475e-05	-0.000282183
 242	-0.000212199	6.61582e-05	-0.000128491
 243	4.25182e-05	7.69707e-05	-0.000324819
 244	5.56073e-05	1.48756e-05	-0.00032947
 245	3.4694e-05	-5.99305e-05	4.92906e-05
 246	-0.000362148	6.87962e-05	-0.000397076
 247	0.000493689	0.000279893	-0.000530036
 248	0.000348202	0.000220435	-0.000378239
 249	0.000555047	0.000855058	-0.0010304
 250	-0.000618706	-7.35583e-05	-0.000265959
 251	0.000966081	-0.00021945	0.000207204
 252	0.000638126	0.000533741	-0.000893308
 253	0.000320649	-0.000385426	-0.000363466
 254	0.000176597	-0.000271	-0.000131286
 255	0.000213948	-0.000431312	-0.000111688
 256	0.000312003	-0.000390675	-0.00053031
 257	-1.6862e-05	-0.000273661	0.000273254
 258	0.000288536	-0.000413971	6.88218e-05
 259	0.000340334	0.000712301	0.00034814
 260	0.000190986	0.000657279	0.000649058
 261	0.000843108	0.00206304	-2.87053e-05
 262	0.000607491	-0.000852609	0.00010513
 263	-0.000940496	0.000817063	0.0019209
 264	0.000927345	0.00245842	-4.53281e-05
 265	0.00103075	0.000222253	-5.23171e-05
 266	0.000594988	-2.52628e-05	-0.000464663
 267	0.00109067	0.000635645	0.000187042
 268	0.00117961	-0.000259057	0.000341654
 269	0.000415002	0.000668033	-0.000993229
 270	0.000454925	-0.000168596	-0.000612702
 271	-0.000424389	0.000329451	0.000139083
 272	-0.000934706	0.000913726	0.00047158
 273	-0.00134326	0.000877052	0.000384259
 274	-0.00123971	0.00103529	0.000656652
 275	-0.00051407	0.0011221	0.000872847
 276	-0.00133189	-0.000391322	0.00161458
 277	0.00078293	0.000821745	-0.000480322
 278	0.000893843	0.0005656	-0.00026251
 279	0.00030007	0.000825023	-0.000565906
 280	0.000888402	0.0012261	-0.000790289
 281	0.00100699	0.000839443	0.000348356
 282	0.00096619	0.000687001	-0.000426646
 283	-0.000317837	0.000995015	0.00233978
 284	0.00125132	0.000946824	0.00192153
 285	0.000789212	-0.000848271	0.00168792
 286	0.00313056	0.000929425	0.00120091
 287	0.00120646	0.00245715	0.00249797
 288	-0.00128032	0.000673544	0.00306009
 289	-0.000318653	5.20329e-06	-0.000210059
 290	0.000659602	0.000156028	-0.0006795
 291	-0.000586734	-0.00011092	-6.01237e-06
 292	-0.00104213	-0.000221808	-0.000804513
 293	0.000713376	2.78063e-05	-0.00080755
 294	0.000757933	0.000131384	-0.000960287
 295	0.000921695	-0.000418547	-0.000672886
 296	0.000633246	-0.000851381	0.000203689
 297	-1.88762e-05	-0.000555779	0.000286315
 298	0.000717493	-0.00120035	0.000739102
 299	0.00118352	-0.00120298	0.000374806
 300	0.00124943	-0.000573299	-0.000493558
 301	-0.000779233	6.38812e-06	-0.000232345
 302	-0.000627503	-3.12333e-05	0.000142978
 303	-0.000901327	0.000177324	-0.000372886
 304	-0.000690418	6.40568e-05	-3.33656e-05
 305	-0.00099271	-0.000341735	0.000312988
 306	-0.000792069	0.000150794	0.000268851
 307	-0.000693394	-5.54447e-05	-5.08024e-05
 308	-0.000887104	1.8311e-05	-0.000110698
 309	-0.000711313	0.000263804	-0.000248824
 310	-0.00119583	2.78374e-05	-7.94781e-05
 311	-0.000723032	-0.000215336	6.79352e-06
 312	-0.000206397	0.000691113	-0.000591812