pySIMM System Object

218 atoms
217 bonds
396 angles
513 dihedrals
18 impropers

6 atom types
7 bond types
12 angle types
10 dihedral types
1 improper types

-84.705515 84.705515 xlo xhi
-84.705515 84.705515 ylo yhi
-84.705515 84.705515 zlo zhi

Masses

   1	12.01	# c3
   2	1.008	# hc
   3	16.0	# os
   4	1.008	# h1
   5	12.01	# c
   6	16.0	# o

Pair Coeffs

   1	0.1094	3.3996695084235347	# c3
   2	0.0157	2.649532787749369	# hc
   3	0.17	3.0000123434657784	# os
   4	0.0157	2.471353044121301	# h1
   5	0.086	3.3996695084235347	# c
   6	0.21	2.959921901149463	# o

Bond Coeffs

   1	330.6	1.0969	# c3,hc
   2	637.7	1.2183	# c,o
   3	330.6	1.0969	# c3,h1
   4	308.6	1.4316	# c3,os
   5	313.0	1.5241	# c,c3
   6	390.8	1.3584	# c,os
   7	300.9	1.5375	# c3,c3

Angle Coeffs

   1	67.4	123.2	# c3,c,o
   2	46.93	108.77	# c,c3,hc
   3	75.32	123.25	# o,c,os
   4	68.0	107.97	# c3,c3,os
   5	46.34	109.8	# c3,c3,hc
   6	46.39	109.56	# c3,c3,h1
   7	63.28	115.98	# c,os,c3
   8	50.8	109.78	# h1,c3,os
   9	68.89	110.72	# c3,c,os
  10	39.4	107.58	# hc,c3,hc
  11	39.24	108.46	# h1,c3,h1
  12	62.86	111.51	# c3,c3,c3

Dihedral Coeffs

   1	2	0.383	3	0	0.8	1	180	# c3,c3,os,c
   2	2	0.0	3	0	0.25	1	0	# hc,c3,c3,os
   3	1	0.3833333333333333	3	0	# X,c3,os,X
   4	1	0.0	2	180	# X,c,c3,X
   5	3	0.8	1	0	0.0	2	0	0.08	3	180	# hc,c3,c,o
   6	3	2.7	2	180	0.0	1	0	1.15	3	0	# c3,c,os,c3
   7	1	0.15555555555555556	3	0	# X,c3,c3,X
   8	2	2.7	2	180	1.4	1	180	# o,c,os,c3
   9	1	0.16	3	0	# hc,c3,c3,c3
  10	3	0.18	3	0	0.25	2	180	0.2	1	180	# c3,c3,c3,c3

Improper Coeffs

   1	10.5	-1	2	# c,X,X,o

Atoms

   1	1	1	-0.003445	-4.89921	8.12981	1.80438
   2	1	1	0.299845	-5.18258	9.08905	2.98589
   3	1	2	0.023286	-5.08365	7.09512	2.11459
   4	1	2	-0.011958	-5.60445	8.33469	0.989174
   5	1	3	-0.518063	-6.56583	8.99433	3.37455
   6	1	4	0.011666	-4.9777	10.1192	2.67037
   7	1	5	0.843192	-6.99011	7.87737	4.02283
   8	1	1	-0.399874	-8.4601	7.96851	4.34804
   9	1	2	0.119224	-8.76415	7.07225	4.89814
  10	1	2	0.109051	-9.03433	8.04795	3.42015
  11	1	2	0.118031	-8.6361	8.85709	4.96125
  12	1	6	-0.590955	-6.29486	6.9318	4.33585
  13	1	1	-0.003445	-3.14718	9.46039	0.405625
  14	1	1	0.299845	-3.45069	8.19969	1.2703
  15	1	2	0.023286	-3.51695	10.3594	0.912931
  16	1	2	-0.011958	-2.0611	9.58349	0.329552
  17	1	3	-0.518063	-2.54028	8.14591	2.38291
  18	1	4	0.011666	-3.30367	7.29409	0.671228
  19	1	5	0.843192	-1.29301	7.64881	2.16104
  20	1	1	-0.399874	-0.480462	7.64246	3.43059
  21	1	2	0.119224	-1.01892	7.07802	4.19812
  22	1	2	0.109051	-0.333172	8.67141	3.7715
  23	1	2	0.118031	0.488493	7.17104	3.23716
  24	1	6	-0.590955	-0.871266	7.25454	1.09093
  25	1	1	-0.003445	-3.40929	8.06394	-1.75809
  26	1	1	0.299845	-3.76001	9.39216	-1.02346
  27	1	2	0.023286	-2.39734	7.75433	-1.46711
  28	1	2	-0.011958	-4.1053	7.30264	-1.38401
  29	1	3	-0.518063	-3.42172	10.5791	-1.78422
  30	1	4	0.011666	-4.851	9.40699	-0.909462
  31	1	5	0.843192	-2.15551	10.8284	-2.20623
  32	1	1	-0.399874	-2.09631	12.0488	-3.08715
  33	1	2	0.119224	-2.06206	12.9447	-2.46195
  34	1	2	0.109051	-2.98027	12.0799	-3.73189
  35	1	2	0.118031	-1.19686	11.9928	-3.70957
  36	1	6	-0.590955	-1.20171	10.1089	-2.01364
  37	1	1	-0.003445	-3.55629	6.63865	-3.92724
  38	1	1	0.299845	-3.48612	8.0605	-3.30049
  39	1	2	0.023286	-4.53458	6.197	-3.69716
  40	1	2	-0.011958	-3.54099	6.75816	-5.01742
  41	1	3	-0.518063	-4.67994	8.77631	-3.67103
  42	1	4	0.011666	-2.59467	8.57419	-3.68131
  43	1	5	0.843192	-4.70529	9.41981	-4.86683
  44	1	1	-0.399874	-5.99409	10.1824	-5.05188
  45	1	2	0.119224	-6.33167	10.0659	-6.08607
  46	1	2	0.109051	-5.81232	11.2402	-4.83885
  47	1	2	0.118031	-6.75972	9.80102	-4.36924
  48	1	6	-0.590955	-3.79181	9.45886	-5.66465
  49	1	1	-0.003445	-2.77344	4.86484	-2.20114
  50	1	1	0.299845	-2.43223	5.63938	-3.50225
  51	1	2	0.023286	-3.79727	4.48133	-2.29958
  52	1	2	-0.011958	-2.78237	5.544	-1.34662
  53	1	3	-0.518063	-2.31328	4.63995	-4.53413
  54	1	4	0.011666	-1.47957	6.16832	-3.37723
  55	1	5	0.843192	-1.637	4.93661	-5.67255
  56	1	1	-0.399874	-1.63593	3.75506	-6.611
  57	1	2	0.119224	-1.02108	2.95697	-6.18479
  58	1	2	0.109051	-1.22995	4.05999	-7.58092
  59	1	2	0.118031	-2.66035	3.39196	-6.73953
  60	1	6	-0.590955	-1.02402	5.96367	-5.87381
  61	1	1	-0.003445	-0.676883	4.00017	-0.86138
  62	1	1	0.299845	-1.82761	3.6778	-1.85742
  63	1	2	0.023286	-1.06034	4.6049	-0.0304392
  64	1	2	-0.011958	-0.359789	3.05255	-0.407541
  65	1	3	-0.518063	-2.59693	2.58393	-1.30042
  66	1	4	0.011666	-1.39596	3.27573	-2.77787
  67	1	5	0.843192	-3.33241	2.73001	-0.162068
  68	1	1	-0.399874	-3.92358	1.40744	0.258555
  69	1	2	0.119224	-3.13139	0.653082	0.28983
  70	1	2	0.109051	-4.68783	1.10309	-0.462415
  71	1	2	0.118031	-4.36922	1.51119	1.25319
  72	1	6	-0.590955	-3.52076	3.76798	0.441276
  73	1	1	-0.003445	1.23667	4.06064	-2.68198
  74	1	1	0.299845	0.605744	4.68084	-1.40566
  75	1	2	0.023286	0.471313	3.94588	-3.45651
  76	1	2	-0.011958	1.97338	4.75044	-3.11341
  77	1	3	-0.518063	0.400931	6.08461	-1.62693
  78	1	4	0.011666	1.31929	4.58746	-0.582103
  79	1	5	0.843192	1.50521	6.87461	-1.46191
  80	1	1	-0.399874	1.21666	8.31942	-1.74291
  81	1	2	0.119224	2.15674	8.87582	-1.80043
  82	1	2	0.109051	0.603853	8.71461	-0.927837
  83	1	2	0.118031	0.675	8.40867	-2.68897
  84	1	6	-0.590955	2.62023	6.48055	-1.17016
  85	1	1	-0.003445	2.38292	2.0448	-3.7462
  86	1	1	0.299845	1.9404	2.70763	-2.42311
  87	1	2	0.023286	1.7145	2.34332	-4.56451
  88	1	2	-0.011958	3.38465	2.39942	-4.02545
  89	1	3	-0.518063	3.14706	2.95697	-1.67549
  90	1	4	0.011666	1.25574	2.0343	-1.89217
  91	1	5	0.843192	3.14734	2.84589	-0.322823
  92	1	1	-0.399874	4.43525	3.36315	0.270257
  93	1	2	0.119224	4.71548	2.74787	1.12977
  94	1	2	0.109051	4.28104	4.40036	0.587664
  95	1	2	0.118031	5.2308	3.33846	-0.481067
  96	1	6	-0.590955	2.23857	2.37916	0.33446
  97	1	1	-0.003445	3.04695	-0.116806	-4.89032
  98	1	1	0.299845	2.37111	0.506691	-3.64098
  99	1	2	0.023286	4.10409	0.178236	-4.90943
 100	1	2	-0.011958	2.59122	0.327085	-5.78473
 101	1	3	-0.518063	0.976226	0.135371	-3.59608
 102	1	4	0.011666	2.90444	0.207334	-2.72888
 103	1	5	0.843192	0.570328	-0.912518	-2.83316
 104	1	1	-0.399874	-0.896473	-1.19091	-3.04031
 105	1	2	0.119224	-1.48173	-0.339622	-2.68019
 106	1	2	0.109051	-1.17942	-2.09626	-2.49423
 107	1	2	0.118031	-1.08427	-1.33349	-4.10962
 108	1	6	-0.590955	1.29611	-1.60384	-2.14995
 109	1	1	-0.003445	3.88891	-2.39827	-3.99388
 110	1	1	0.299845	2.9539	-1.66009	-4.97941
 111	1	2	0.023286	4.92783	-2.115	-4.20463
 112	1	2	-0.011958	3.68278	-2.06502	-2.97039
 113	1	3	-0.518063	3.32382	-2.0739	-6.30481
 114	1	4	0.011666	1.92064	-1.96207	-4.78232
 115	1	5	0.843192	2.38977	-2.00138	-7.28864
 116	1	1	-0.399874	2.95106	-2.45656	-8.61242
 117	1	2	0.119224	4.03238	-2.60897	-8.52963
 118	1	2	0.109051	2.74747	-1.69454	-9.37062
 119	1	2	0.118031	2.475	-3.40047	-8.89394
 120	1	6	-0.590955	1.23196	-1.66641	-7.1305
 121	1	1	-0.003445	2.29588	-4.45515	-4.15185
 122	1	1	0.299845	3.75754	-3.94475	-4.06638
 123	1	2	0.023286	1.93142	-4.28402	-5.17204
 124	1	2	-0.011958	1.64111	-3.85957	-3.50486
 125	1	3	-0.518063	4.35938	-4.51113	-2.88456
 126	1	4	0.011666	4.27533	-4.31232	-4.96271
 127	1	5	0.843192	5.71086	-4.62952	-2.83611
 128	1	1	-0.399874	6.14801	-5.26488	-1.53983
 129	1	2	0.119224	7.12765	-5.73147	-1.68115
 130	1	2	0.109051	5.42749	-6.02904	-1.23513
 131	1	2	0.118031	6.20859	-4.49381	-0.767036
 132	1	6	-0.590955	6.47713	-4.32492	-3.72724
 133	1	1	-0.003445	1.69216	-6.15208	-2.32176
 134	1	1	0.299845	2.17723	-5.96031	-3.78732
 135	1	2	0.023286	1.86276	-5.2226	-1.76632
 136	1	2	-0.011958	0.606435	-6.31466	-2.31483
 137	1	3	-0.518063	1.22244	-6.58902	-4.66984
 138	1	4	0.011666	3.15613	-6.44009	-3.91999
 139	1	5	0.843192	1.59025	-6.82409	-5.95802
 140	1	1	-0.399874	0.469706	-7.44387	-6.75959
 141	1	2	0.119224	0.773004	-8.44444	-7.08118
 142	1	2	0.109051	0.269432	-6.81959	-7.63612
 143	1	2	0.118031	-0.436795	-7.51591	-6.14999
 144	1	6	-0.590955	2.66524	-6.52971	-6.44371
 145	1	1	-0.003445	1.57806	-7.83671	-0.347781
 146	1	1	0.299845	2.41379	-7.27689	-1.53518
 147	1	2	0.023286	0.58125	-8.10041	-0.722009
 148	1	2	-0.011958	2.01551	-8.78742	-0.0178048
 149	1	3	-0.518063	2.68073	-8.37014	-2.43855
 150	1	4	0.011666	3.36067	-6.86935	-1.16246
 151	1	5	0.843192	3.70161	-9.21902	-2.1521
 152	1	1	-0.399874	3.80372	-10.3157	-3.18526
 153	1	2	0.119224	3.03463	-11.0676	-2.98575
 154	1	2	0.109051	4.79516	-10.7771	-3.13134
 155	1	2	0.118031	3.64775	-9.89562	-4.18395
 156	1	6	-0.590955	4.47521	-9.09179	-1.22353
 157	1	1	-0.003445	2.67927	-6.80687	1.79855
 158	1	1	0.299845	1.41021	-6.9443	0.917303
 159	1	2	0.023286	3.27391	-7.72422	1.70999
 160	1	2	-0.011958	3.3175	-5.98861	1.4374
 161	1	3	-0.518063	0.962143	-5.61777	0.588105
 162	1	4	0.011666	0.65199	-7.44071	1.53621
 163	1	5	0.843192	-0.35746	-5.41655	0.331064
 164	1	1	-0.399874	-0.638164	-3.96931	0.0154692
 165	1	2	0.119224	-1.62185	-3.88845	-0.456208
 166	1	2	0.109051	0.132472	-3.58143	-0.658189
 167	1	2	0.118031	-0.626002	-3.39417	0.947206
 168	1	6	-0.590955	-1.20136	-6.28923	0.305123
 169	1	1	-0.003445	1.93546	-5.11955	3.65078
 170	1	1	0.299845	2.28975	-6.58438	3.29179
 171	1	2	0.023286	1.13134	-4.80144	2.98647
 172	1	2	-0.011958	2.79638	-4.4762	3.42637
 173	1	3	-0.518063	3.35869	-7.01077	4.15904
 174	1	4	0.011666	1.40287	-7.19454	3.49635
 175	1	5	0.843192	3.48987	-8.34293	4.39769
 176	1	1	-0.399874	4.60256	-8.61875	5.37832
 177	1	2	0.119224	4.77443	-7.73981	6.00723
 178	1	2	0.109051	5.51665	-8.85494	4.82552
 179	1	2	0.118031	4.3207	-9.46991	6.0065
 180	1	6	-0.590955	2.72912	-9.19925	3.99426
 181	1	1	-0.003445	0.395781	-5.82364	5.6854
 182	1	1	0.299845	1.5306	-4.90715	5.14493
 183	1	2	0.023286	-0.551161	-5.5727	5.19435
 184	1	2	-0.011958	0.596609	-6.86637	5.41614
 185	1	3	-0.518063	1.18565	-3.52352	5.39862
 186	1	4	0.011666	2.43	-5.1269	5.73146
 187	1	5	0.843192	0.134626	-2.9062	4.78054
 188	1	1	-0.399874	-0.00546028	-1.48142	5.2534
 189	1	2	0.119224	-0.520579	-1.47922	6.21863
 190	1	2	0.109051	-0.589377	-0.913557	4.52163
 191	1	2	0.118031	0.985062	-1.03027	5.36416
 192	1	6	-0.590955	-0.557459	-3.37927	3.90096
 193	1	1	-0.003445	1.48651	-6.32607	7.96525
 194	1	1	0.299845	0.227903	-5.77695	7.2334
 195	1	2	0.023286	2.2409	-5.52954	7.94632
 196	1	2	-0.011958	1.91823	-7.14369	7.37345
 197	1	3	-0.518063	-0.936441	-6.56313	7.5309
 198	1	4	0.011666	0.0796038	-4.74258	7.57099
 199	1	5	0.843192	-2.14753	-5.9459	7.42396
 200	1	1	-0.399874	-3.29152	-6.90094	7.65752
 201	1	2	0.119224	-3.13749	-7.42153	8.60788
 202	1	2	0.109051	-3.33027	-7.62721	6.84059
 203	1	2	0.118031	-4.22703	-6.33383	7.69617
 204	1	6	-0.590955	-2.30903	-4.77953	7.1144
 205	1	1	-0.003445	0.75546	-8.2071	9.65553
 206	1	1	0.299845	1.39595	-6.81269	9.44102
 207	1	2	0.023286	1.35165	-8.9725	9.14351
 208	1	2	-0.011958	0.736895	-8.46324	10.7225
 209	1	3	-0.518063	0.943262	-5.80577	10.3805
 210	1	4	0.011666	2.44711	-6.97034	9.71535
 211	1	5	0.843192	-0.356615	-5.61681	10.7434
 212	1	1	-0.399874	-0.448013	-4.62449	11.8772
 213	1	2	0.119224	-1.47188	-4.24224	11.9387
 214	1	2	0.109051	0.248357	-3.79744	11.7105
 215	1	2	0.118031	-0.19034	-5.13415	12.8108
 216	1	6	-0.590955	-1.32504	-6.21892	10.3329
 217	1	4	0	-4.53159	8.86212	3.83978
 218	1	2	0	-0.264811	-8.27349	9.26549

Velocities

   1	-3.76244e-05	-0.00092159	-0.000180135
   2	7.0317e-05	-0.00104043	-0.000154086
   3	9.56032e-05	-0.00105218	-0.000133824
   4	-6.98932e-05	-0.00116008	-0.000248284
   5	-0.000159833	-0.000391751	-0.00094861
   6	0.000971709	-0.00117021	0.00054369
   7	2.45133e-05	0.00102933	0.00106096
   8	-0.000114418	0.000369289	-4.77375e-05
   9	-0.000369325	0.000347396	-0.000369497
  10	0.000424257	0.000557857	-0.000363608
  11	-0.000700158	0.000342159	-0.000209023
  12	0.00103209	0.00235551	0.00443097
  13	0.000207743	-0.000374989	-0.000422396
  14	-7.81339e-05	-0.000499155	-0.000158573
  15	0.000831316	-0.000250066	-0.000454369
  16	0.000224384	-0.000815739	-0.000722756
  17	-0.000221236	-0.000296074	-7.08507e-05
  18	0.000358703	-0.000440531	-0.000177351
  19	9.26778e-05	0.000889639	0.00047139
  20	2.75502e-05	0.000369676	0.000118248
  21	0.000208945	3.02834e-05	-3.03093e-05
  22	0.000105719	0.000132552	0.000668106
  23	-8.02716e-05	0.000495822	-0.000260266
  24	0.000434768	0.0013298	-2.88819e-05
  25	0.000623377	0.000189114	-0.000632094
  26	0.000108878	-9.31845e-05	-0.000412693
  27	0.000742957	0.000338739	-0.00077873
  28	0.000753876	-5.68524e-06	-0.000617253
  29	-0.000163313	0.000248822	-0.000196292
  30	0.000289078	-0.00047817	-0.000344674
  31	-0.00102075	0.00139359	-0.000593267
  32	-0.00120368	0.00157076	0.000230687
  33	-0.00280596	0.00153507	0.000641665
  34	-0.000909111	0.00110589	-0.000581868
  35	-0.000780117	0.00313485	0.000808654
  36	0.000110994	0.00117769	-0.00114579
  37	0.00069694	0.000200813	-0.000552965
  38	0.000389205	0.000205107	-0.000529692
  39	0.000559993	0.000166904	-0.00108161
  40	0.00126743	0.000197258	-0.000476764
  41	0.000113907	-0.000135473	-0.000413604
  42	0.00019989	0.000454188	-0.000703475
  43	-0.000270305	-5.90523e-05	-0.000346636
  44	-0.000742116	-0.000677486	-0.000120129
  45	-0.000181568	0.000295277	-0.000445786
  46	-0.0015256	-0.000783618	0.0012838
  47	-0.00080004	-0.0021084	-0.000834824
  48	-0.000292576	0.00052451	-0.000386629
  49	4.80554e-05	-1.36078e-05	-8.86756e-05
  50	0.000552512	0.000159886	5.96571e-05
  51	0.00029249	-0.000543707	-0.000907719
  52	-0.000938665	-0.000155448	-1.3702e-05
  53	0.000715015	0.000245125	4.5766e-05
  54	0.000405604	0.000175549	0.00042845
  55	0.00129391	0.000244051	0.000324067
  56	0.00061024	0.000417309	3.1468e-05
  57	-0.000483629	-0.000266816	0.000192793
  58	0.00145631	0.000223675	0.000328432
  59	0.000353513	0.00154736	-0.000615541
  60	0.00195677	-0.000225881	0.000772322
  61	0.000136139	0.00021731	0.000673004
  62	0.000314405	0.000279933	0.000357497
  63	8.77887e-05	0.000646925	0.000330911
  64	-0.00029683	0.000272155	0.00106152
  65	0.000221531	0.00026037	0.000173153
  66	0.000541731	0.000294506	0.000456151
  67	0.000684869	-2.62951e-05	0.000436109
  68	-0.000266742	0.000203626	-0.000412255
  69	-0.000585035	-0.000151217	0.000233382
  70	0.000426199	0.000663891	-0.00139276
  71	-0.00136086	7.07313e-05	-0.000891548
  72	0.00144073	-0.000172268	0.0011834
  73	0.000490988	-0.000373948	0.000829868
  74	0.000490757	-0.000335983	0.000837282
  75	0.00052878	0.000360922	0.000696723
  76	0.000853418	-0.000547243	0.0012258
  77	0.000116631	-0.000459307	0.00061041
  78	0.000445431	-0.000147165	0.000886271
  79	1.97069e-05	-8.5311e-05	0.000570351
  80	-0.00124916	-0.000284822	0.000170769
  81	-0.00161405	0.000334412	-0.000400554
  82	-0.00123585	-0.000444045	0.000228819
  83	-0.00165274	-0.00102194	0.000389846
  84	-0.000116729	0.000581001	0.000390349
  85	-0.000276897	-0.000208717	-0.000367964
  86	-0.000156916	-0.000890409	6.275e-05
  87	-0.000399784	8.77854e-05	-0.00014031
  88	-0.000323033	-5.28927e-05	-0.000363089
  89	-9.22305e-06	-0.00201744	0.000154237
  90	-0.000449624	-0.000923379	-0.000358414
  91	-0.000426921	-0.00135406	0.00027814
  92	-1.46875e-05	-0.00185868	-3.75458e-05
  93	-0.0010146	-0.00082821	0.0010569
  94	0.000932221	-0.00123866	-0.00173195
  95	0.000231226	-0.0038897	0.000307136
  96	-0.000954551	0.000242587	0.000373945
  97	-0.000535006	-0.000351595	-0.0011055
  98	-0.000140793	-0.000279282	-0.00087961
  99	-0.00064654	-2.82382e-05	-0.00174254
 100	-0.00116417	-0.000696312	-0.000962656
 101	-0.000166052	1.12118e-05	-0.000745127
 102	4.61694e-05	-0.000482401	-0.00110537
 103	-7.98495e-05	0.000208864	9.68001e-05
 104	-0.000580681	0.00115166	0.000455866
 105	2.83072e-05	0.00139019	0.000686223
 106	-0.00068052	0.00125908	0.000710591
 107	-0.000968132	0.00114593	0.000632976
 108	-0.000566013	0.000652267	-0.000106368
 109	-4.8292e-05	4.5822e-05	0.000130836
 110	-0.00010049	-0.000486488	-0.00049302
 111	-8.60276e-05	0.00060147	0.000694239
 112	-0.000808819	0.000180803	-5.10659e-05
 113	-0.000111923	-0.000947414	-0.000457398
 114	-8.70298e-05	-0.000574873	-0.000535019
 115	0.000300696	7.88879e-05	-0.000797094
 116	3.28958e-05	-0.000386399	-0.000786045
 117	0.000128306	0.000132422	-0.00107101
 118	-0.000558223	-0.000970121	-0.00121911
 119	0.000340176	-0.000736777	-0.000100996
 120	0.000597021	0.00153018	-0.00119575
 121	0.000729152	-0.000181422	0.0010271
 122	0.000751035	-0.000113953	0.000711115
 123	0.000870086	-0.000329328	0.000980271
 124	0.000785557	0.000107256	0.000771268
 125	0.00122296	6.26626e-05	0.000657351
 126	0.000735654	-9.4868e-05	0.000672452
 127	0.00129471	0.000750172	0.000772521
 128	0.0017314	0.000425699	0.00049389
 129	0.00283879	0.00259489	0.000867261
 130	0.00302064	-0.00135719	-0.000777171
 131	-0.000360383	-0.000135467	0.00123969
 132	0.00129341	0.00182568	0.000988801
 133	-0.00116803	-0.000209681	0.000727067
 134	9.00147e-05	-6.44267e-05	0.00119887
 135	-0.00288695	-4.36206e-06	0.000838267
 136	-0.000979155	-0.00169949	-0.000419287
 137	0.00017401	0.000128851	0.00105532
 138	-2.98639e-05	-0.000449911	0.00171013
 139	-4.65734e-05	0.000225374	0.00111278
 140	-3.30649e-05	-7.56338e-05	0.00143242
 141	-0.000120591	-0.000267903	0.00198146
 142	-8.99044e-05	-0.000496755	0.00117571
 143	-4.34496e-05	0.000252329	0.00155902
 144	-0.000129691	0.00054886	0.000862571
 145	-0.00137632	-0.000546607	0.000430645
 146	-0.000933144	0.000235701	0.00117407
 147	-0.00131114	-0.000390595	5.75932e-05
 148	-0.00150954	-0.000727063	0.000159824
 149	-0.000409675	0.00053256	0.00110609
 150	-0.00123341	0.000642766	0.00170505
 151	-2.65119e-05	0.0008425	0.00129929
 152	-0.000187653	0.00137439	0.000536053
 153	-0.00104395	0.00199418	-0.000584102
 154	-0.000590237	0.000522048	0.00105549
 155	0.000951426	0.00231321	0.00081034
 156	-0.000221004	0.000852436	0.000905444
 157	-0.00101275	-0.00174105	2.553e-05
 158	-0.00142614	-0.000970704	0.000509637
 159	-0.00206054	-0.00253482	0.000615862
 160	-0.00010883	-0.00277796	-0.000736477
 161	-0.000902757	-0.000709052	0.000851228
 162	-0.00158621	-0.000832567	0.000448375
 163	-0.000251656	-0.000218442	-0.00121952
 164	0.000273507	8.0625e-06	0.00016821
 165	5.17704e-05	0.00113143	0.000939576
 166	6.20327e-05	0.000237371	-2.86951e-05
 167	0.00130489	-0.00077225	0.000642476
 168	-0.000510914	-0.0003253	-0.00352795
 169	-0.000530506	0.000222776	-0.00169585
 170	-0.00054227	-0.000272721	-0.000248872
 171	-0.00173837	-0.000699829	-0.000695996
 172	-0.00100922	0.000180211	-0.0036879
 173	-0.000601312	0.000171365	0.000149771
 174	-0.00057064	-4.90146e-05	0.000307376
 175	0.000297816	0.000431393	0.00019915
 176	0.0007212	0.00051046	-0.000380675
 177	2.51626e-05	6.73376e-05	0.00061243
 178	0.000871672	0.00219347	-0.000987499
 179	0.00198667	-0.000554775	-0.00119669
 180	0.001103	-0.00024127	-0.00075419
 181	0.00145713	0.000610983	-0.000927314
 182	0.00123098	0.000957384	-0.00140373
 183	0.00164103	-0.0011152	-0.0019717
 184	0.00292514	0.000682777	0.000295971
 185	0.00157037	0.000876857	-0.00144516
 186	0.00178822	0.00102231	-0.0020965
 187	0.000425356	0.00035523	0.000454743
 188	0.000549859	0.000317145	0.000829367
 189	0.0015984	-0.000327596	0.00145189
 190	-0.000417878	0.000424547	0.00168061
 191	0.000610822	0.000571582	4.59739e-05
 192	-0.00174351	-0.000458385	0.00253232
 193	-0.000645993	-0.00111392	-0.00106485
 194	0.000420115	0.00103518	-0.00108819
 195	0.000961924	-0.00274822	-0.00161774
 196	-0.00259818	-0.00210491	-0.00112109
 197	0.00040219	0.00137513	-0.0012878
 198	0.000607559	0.0012781	-0.00144771
 199	0.000119135	0.000204938	-0.000476188
 200	0.0016072	-0.000990306	0.00102114
 201	0.00349049	9.43609e-05	0.00158198
 202	0.00303009	-0.00220377	0.00186914
 203	0.000510794	-0.00304043	0.00109873
 204	-0.00122069	0.000657097	6.13637e-05
 205	-0.00164286	-0.000735739	-7.7657e-05
 206	-0.00128817	-0.00101998	-0.00101501
 207	-0.00196021	-0.0014583	0.000538136
 208	-0.00120617	1.45881e-05	0.000127663
 209	-0.000631769	-0.000600882	-0.00121476
 210	-0.00150099	-0.00125137	-0.00115277
 211	-0.00053368	-0.000146533	-0.000603772
 212	0.000554877	0.00151009	-0.00185612
 213	0.000435274	0.00120416	-0.0010545
 214	-4.2112e-05	0.00152549	-0.00429945
 215	0.00209449	0.00319575	-0.0013719
 216	-0.000790549	2.07386e-05	0.000165202
 217	-0.000790717	-0.00194418	7.29467e-05
 218	-0.00191082	-0.00106765	0.000424775

Bonds

   1	7	1	2
   2	1	1	3
   3	1	1	4
   4	4	2	5
   5	3	2	6
   6	6	5	7
   7	5	7	8
   8	2	7	12
   9	1	8	9
  10	1	8	10
  11	1	8	11
  12	7	13	14
  13	1	13	15
  14	1	13	16
  15	4	14	17
  16	3	14	18
  17	6	17	19
  18	5	19	20
  19	2	19	24
  20	1	20	21
  21	1	20	22
  22	1	20	23
  23	7	1	14
  24	7	25	26
  25	1	25	27
  26	1	25	28
  27	4	26	29
  28	3	26	30
  29	6	29	31
  30	5	31	32
  31	2	31	36
  32	1	32	33
  33	1	32	34
  34	1	32	35
  35	7	13	26
  36	7	37	38
  37	1	37	39
  38	1	37	40
  39	4	38	41
  40	3	38	42
  41	6	41	43
  42	5	43	44
  43	2	43	48
  44	1	44	45
  45	1	44	46
  46	1	44	47
  47	7	25	38
  48	7	49	50
  49	1	49	51
  50	1	49	52
  51	4	50	53
  52	3	50	54
  53	6	53	55
  54	5	55	56
  55	2	55	60
  56	1	56	57
  57	1	56	58
  58	1	56	59
  59	7	37	50
  60	7	61	62
  61	1	61	63
  62	1	61	64
  63	4	62	65
  64	3	62	66
  65	6	65	67
  66	5	67	68
  67	2	67	72
  68	1	68	69
  69	1	68	70
  70	1	68	71
  71	7	49	62
  72	7	73	74
  73	1	73	75
  74	1	73	76
  75	4	74	77
  76	3	74	78
  77	6	77	79
  78	5	79	80
  79	2	79	84
  80	1	80	81
  81	1	80	82
  82	1	80	83
  83	7	61	74
  84	7	85	86
  85	1	85	87
  86	1	85	88
  87	4	86	89
  88	3	86	90
  89	6	89	91
  90	5	91	92
  91	2	91	96
  92	1	92	93
  93	1	92	94
  94	1	92	95
  95	7	73	86
  96	7	97	98
  97	1	97	99
  98	1	97	100
  99	4	98	101
 100	3	98	102
 101	6	101	103
 102	5	103	104
 103	2	103	108
 104	1	104	105
 105	1	104	106
 106	1	104	107
 107	7	85	98
 108	7	109	110
 109	1	109	111
 110	1	109	112
 111	4	110	113
 112	3	110	114
 113	6	113	115
 114	5	115	116
 115	2	115	120
 116	1	116	117
 117	1	116	118
 118	1	116	119
 119	7	97	110
 120	7	121	122
 121	1	121	123
 122	1	121	124
 123	4	122	125
 124	3	122	126
 125	6	125	127
 126	5	127	128
 127	2	127	132
 128	1	128	129
 129	1	128	130
 130	1	128	131
 131	7	109	122
 132	7	133	134
 133	1	133	135
 134	1	133	136
 135	4	134	137
 136	3	134	138
 137	6	137	139
 138	5	139	140
 139	2	139	144
 140	1	140	141
 141	1	140	142
 142	1	140	143
 143	7	121	134
 144	7	145	146
 145	1	145	147
 146	1	145	148
 147	4	146	149
 148	3	146	150
 149	6	149	151
 150	5	151	152
 151	2	151	156
 152	1	152	153
 153	1	152	154
 154	1	152	155
 155	7	133	146
 156	7	157	158
 157	1	157	159
 158	1	157	160
 159	4	158	161
 160	3	158	162
 161	6	161	163
 162	5	163	164
 163	2	163	168
 164	1	164	165
 165	1	164	166
 166	1	164	167
 167	7	145	158
 168	7	169	170
 169	1	169	171
 170	1	169	172
 171	4	170	173
 172	3	170	174
 173	6	173	175
 174	5	175	176
 175	2	175	180
 176	1	176	177
 177	1	176	178
 178	1	176	179
 179	7	157	170
 180	7	181	182
 181	1	181	183
 182	1	181	184
 183	4	182	185
 184	3	182	186
 185	6	185	187
 186	5	187	188
 187	2	187	192
 188	1	188	189
 189	1	188	190
 190	1	188	191
 191	7	169	182
 192	7	193	194
 193	1	193	195
 194	1	193	196
 195	4	194	197
 196	3	194	198
 197	6	197	199
 198	5	199	200
 199	2	199	204
 200	1	200	201
 201	1	200	202
 202	1	200	203
 203	7	181	194
 204	7	205	206
 205	1	205	207
 206	1	205	208
 207	4	206	209
 208	3	206	210
 209	6	209	211
 210	5	211	212
 211	2	211	216
 212	1	212	213
 213	1	212	214
 214	1	212	215
 215	7	193	206
 216	3	2	217
 217	1	205	218

Angles

   1	5	2	1	3
   2	5	2	1	4
   3	10	3	1	4
   4	4	1	2	5
   5	6	1	2	6
   6	8	5	2	6
   7	7	2	5	7
   8	9	5	7	8
   9	3	5	7	12
  10	1	8	7	12
  11	2	7	8	9
  12	2	7	8	10
  13	2	7	8	11
  14	10	9	8	10
  15	10	9	8	11
  16	10	10	8	11
  17	5	14	13	15
  18	5	14	13	16
  19	10	15	13	16
  20	4	13	14	17
  21	6	13	14	18
  22	8	17	14	18
  23	7	14	17	19
  24	9	17	19	20
  25	3	17	19	24
  26	1	20	19	24
  27	2	19	20	21
  28	2	19	20	22
  29	2	19	20	23
  30	10	21	20	22
  31	10	21	20	23
  32	10	22	20	23
  33	12	2	1	14
  34	5	3	1	14
  35	5	4	1	14
  36	12	1	14	13
  37	4	1	14	17
  38	6	1	14	18
  39	5	26	25	27
  40	5	26	25	28
  41	10	27	25	28
  42	4	25	26	29
  43	6	25	26	30
  44	8	29	26	30
  45	7	26	29	31
  46	9	29	31	32
  47	3	29	31	36
  48	1	32	31	36
  49	2	31	32	33
  50	2	31	32	34
  51	2	31	32	35
  52	10	33	32	34
  53	10	33	32	35
  54	10	34	32	35
  55	12	14	13	26
  56	5	15	13	26
  57	5	16	13	26
  58	12	13	26	25
  59	4	13	26	29
  60	6	13	26	30
  61	5	38	37	39
  62	5	38	37	40
  63	10	39	37	40
  64	4	37	38	41
  65	6	37	38	42
  66	8	41	38	42
  67	7	38	41	43
  68	9	41	43	44
  69	3	41	43	48
  70	1	44	43	48
  71	2	43	44	45
  72	2	43	44	46
  73	2	43	44	47
  74	10	45	44	46
  75	10	45	44	47
  76	10	46	44	47
  77	12	26	25	38
  78	5	27	25	38
  79	5	28	25	38
  80	12	25	38	37
  81	4	25	38	41
  82	6	25	38	42
  83	5	50	49	51
  84	5	50	49	52
  85	10	51	49	52
  86	4	49	50	53
  87	6	49	50	54
  88	8	53	50	54
  89	7	50	53	55
  90	9	53	55	56
  91	3	53	55	60
  92	1	56	55	60
  93	2	55	56	57
  94	2	55	56	58
  95	2	55	56	59
  96	10	57	56	58
  97	10	57	56	59
  98	10	58	56	59
  99	12	38	37	50
 100	5	39	37	50
 101	5	40	37	50
 102	12	37	50	49
 103	4	37	50	53
 104	6	37	50	54
 105	5	62	61	63
 106	5	62	61	64
 107	10	63	61	64
 108	4	61	62	65
 109	6	61	62	66
 110	8	65	62	66
 111	7	62	65	67
 112	9	65	67	68
 113	3	65	67	72
 114	1	68	67	72
 115	2	67	68	69
 116	2	67	68	70
 117	2	67	68	71
 118	10	69	68	70
 119	10	69	68	71
 120	10	70	68	71
 121	12	50	49	62
 122	5	51	49	62
 123	5	52	49	62
 124	12	49	62	61
 125	4	49	62	65
 126	6	49	62	66
 127	5	74	73	75
 128	5	74	73	76
 129	10	75	73	76
 130	4	73	74	77
 131	6	73	74	78
 132	8	77	74	78
 133	7	74	77	79
 134	9	77	79	80
 135	3	77	79	84
 136	1	80	79	84
 137	2	79	80	81
 138	2	79	80	82
 139	2	79	80	83
 140	10	81	80	82
 141	10	81	80	83
 142	10	82	80	83
 143	12	62	61	74
 144	5	63	61	74
 145	5	64	61	74
 146	12	61	74	73
 147	4	61	74	77
 148	6	61	74	78
 149	5	86	85	87
 150	5	86	85	88
 151	10	87	85	88
 152	4	85	86	89
 153	6	85	86	90
 154	8	89	86	90
 155	7	86	89	91
 156	9	89	91	92
 157	3	89	91	96
 158	1	92	91	96
 159	2	91	92	93
 160	2	91	92	94
 161	2	91	92	95
 162	10	93	92	94
 163	10	93	92	95
 164	10	94	92	95
 165	12	74	73	86
 166	5	75	73	86
 167	5	76	73	86
 168	12	73	86	85
 169	4	73	86	89
 170	6	73	86	90
 171	5	98	97	99
 172	5	98	97	100
 173	10	99	97	100
 174	4	97	98	101
 175	6	97	98	102
 176	8	101	98	102
 177	7	98	101	103
 178	9	101	103	104
 179	3	101	103	108
 180	1	104	103	108
 181	2	103	104	105
 182	2	103	104	106
 183	2	103	104	107
 184	10	105	104	106
 185	10	105	104	107
 186	10	106	104	107
 187	12	86	85	98
 188	5	87	85	98
 189	5	88	85	98
 190	12	85	98	97
 191	4	85	98	101
 192	6	85	98	102
 193	5	110	109	111
 194	5	110	109	112
 195	10	111	109	112
 196	4	109	110	113
 197	6	109	110	114
 198	8	113	110	114
 199	7	110	113	115
 200	9	113	115	116
 201	3	113	115	120
 202	1	116	115	120
 203	2	115	116	117
 204	2	115	116	118
 205	2	115	116	119
 206	10	117	116	118
 207	10	117	116	119
 208	10	118	116	119
 209	12	98	97	110
 210	5	99	97	110
 211	5	100	97	110
 212	12	97	110	109
 213	4	97	110	113
 214	6	97	110	114
 215	5	122	121	123
 216	5	122	121	124
 217	10	123	121	124
 218	4	121	122	125
 219	6	121	122	126
 220	8	125	122	126
 221	7	122	125	127
 222	9	125	127	128
 223	3	125	127	132
 224	1	128	127	132
 225	2	127	128	129
 226	2	127	128	130
 227	2	127	128	131
 228	10	129	128	130
 229	10	129	128	131
 230	10	130	128	131
 231	12	110	109	122
 232	5	111	109	122
 233	5	112	109	122
 234	12	109	122	121
 235	4	109	122	125
 236	6	109	122	126
 237	5	134	133	135
 238	5	134	133	136
 239	10	135	133	136
 240	4	133	134	137
 241	6	133	134	138
 242	8	137	134	138
 243	7	134	137	139
 244	9	137	139	140
 245	3	137	139	144
 246	1	140	139	144
 247	2	139	140	141
 248	2	139	140	142
 249	2	139	140	143
 250	10	141	140	142
 251	10	141	140	143
 252	10	142	140	143
 253	12	122	121	134
 254	5	123	121	134
 255	5	124	121	134
 256	12	121	134	133
 257	4	121	134	137
 258	6	121	134	138
 259	5	146	145	147
 260	5	146	145	148
 261	10	147	145	148
 262	4	145	146	149
 263	6	145	146	150
 264	8	149	146	150
 265	7	146	149	151
 266	9	149	151	152
 267	3	149	151	156
 268	1	152	151	156
 269	2	151	152	153
 270	2	151	152	154
 271	2	151	152	155
 272	10	153	152	154
 273	10	153	152	155
 274	10	154	152	155
 275	12	134	133	146
 276	5	135	133	146
 277	5	136	133	146
 278	12	133	146	145
 279	4	133	146	149
 280	6	133	146	150
 281	5	158	157	159
 282	5	158	157	160
 283	10	159	157	160
 284	4	157	158	161
 285	6	157	158	162
 286	8	161	158	162
 287	7	158	161	163
 288	9	161	163	164
 289	3	161	163	168
 290	1	164	163	168
 291	2	163	164	165
 292	2	163	164	166
 293	2	163	164	167
 294	10	165	164	166
 295	10	165	164	167
 296	10	166	164	167
 297	12	146	145	158
 298	5	147	145	158
 299	5	148	145	158
 300	12	145	158	157
 301	4	145	158	161
 302	6	145	158	162
 303	5	170	169	171
 304	5	170	169	172
 305	10	171	169	172
 306	4	169	170	173
 307	6	169	170	174
 308	8	173	170	174
 309	7	170	173	175
 310	9	173	175	176
 311	3	173	175	180
 312	1	176	175	180
 313	2	175	176	177
 314	2	175	176	178
 315	2	175	176	179
 316	10	177	176	178
 317	10	177	176	179
 318	10	178	176	179
 319	12	158	157	170
 320	5	159	157	170
 321	5	160	157	170
 322	12	157	170	169
 323	4	157	170	173
 324	6	157	170	174
 325	5	182	181	183
 326	5	182	181	184
 327	10	183	181	184
 328	4	181	182	185
 329	6	181	182	186
 330	8	185	182	186
 331	7	182	185	187
 332	9	185	187	188
 333	3	185	187	192
 334	1	188	187	192
 335	2	187	188	189
 336	2	187	188	190
 337	2	187	188	191
 338	10	189	188	190
 339	10	189	188	191
 340	10	190	188	191
 341	12	170	169	182
 342	5	171	169	182
 343	5	172	169	182
 344	12	169	182	181
 345	4	169	182	185
 346	6	169	182	186
 347	5	194	193	195
 348	5	194	193	196
 349	10	195	193	196
 350	4	193	194	197
 351	6	193	194	198
 352	8	197	194	198
 353	7	194	197	199
 354	9	197	199	200
 355	3	197	199	204
 356	1	200	199	204
 357	2	199	200	201
 358	2	199	200	202
 359	2	199	200	203
 360	10	201	200	202
 361	10	201	200	203
 362	10	202	200	203
 363	12	182	181	194
 364	5	183	181	194
 365	5	184	181	194
 366	12	181	194	193
 367	4	181	194	197
 368	6	181	194	198
 369	5	206	205	207
 370	5	206	205	208
 371	10	207	205	208
 372	4	205	206	209
 373	6	205	206	210
 374	8	209	206	210
 375	7	206	209	211
 376	9	209	211	212
 377	3	209	211	216
 378	1	212	211	216
 379	2	211	212	213
 380	2	211	212	214
 381	2	211	212	215
 382	10	213	212	214