pySIMM System Object

374 atoms
373 bonds
682 angles
890 dihedrals
31 impropers

6 atom types
7 bond types
12 angle types
10 dihedral types
1 improper types

-102.361301 102.361301 xlo xhi
-102.361301 102.361301 ylo yhi
-102.361301 102.361301 zlo zhi

Masses

   1	12.01	# c3
   2	1.008	# hc
   3	16.0	# os
   4	1.008	# h1
   5	12.01	# c
   6	16.0	# o

Pair Coeffs

   1	0.1094	3.3996695084235347	# c3
   2	0.0157	2.649532787749369	# hc
   3	0.17	3.0000123434657784	# os
   4	0.0157	2.471353044121301	# h1
   5	0.086	3.3996695084235347	# c
   6	0.21	2.959921901149463	# o

Bond Coeffs

   1	330.6	1.0969	# c3,hc
   2	637.7	1.2183	# c,o
   3	330.6	1.0969	# c3,h1
   4	308.6	1.4316	# c3,os
   5	313.0	1.5241	# c,c3
   6	390.8	1.3584	# c,os
   7	300.9	1.5375	# c3,c3

Angle Coeffs

   1	67.4	123.2	# c3,c,o
   2	46.93	108.77	# c,c3,hc
   3	75.32	123.25	# o,c,os
   4	68.0	107.97	# c3,c3,os
   5	46.34	109.8	# c3,c3,hc
   6	46.39	109.56	# c3,c3,h1
   7	63.28	115.98	# c,os,c3
   8	50.8	109.78	# h1,c3,os
   9	68.89	110.72	# c3,c,os
  10	39.4	107.58	# hc,c3,hc
  11	39.24	108.46	# h1,c3,h1
  12	62.86	111.51	# c3,c3,c3

Dihedral Coeffs

   1	2	0.383	3	0	0.8	1	180	# c3,c3,os,c
   2	2	0.0	3	0	0.25	1	0	# hc,c3,c3,os
   3	1	0.3833333333333333	3	0	# X,c3,os,X
   4	1	0.0	2	180	# X,c,c3,X
   5	3	0.8	1	0	0.0	2	0	0.08	3	180	# hc,c3,c,o
   6	3	2.7	2	180	0.0	1	0	1.15	3	0	# c3,c,os,c3
   7	1	0.15555555555555556	3	0	# X,c3,c3,X
   8	2	2.7	2	180	1.4	1	180	# o,c,os,c3
   9	1	0.16	3	0	# hc,c3,c3,c3
  10	3	0.18	3	0	0.25	2	180	0.2	1	180	# c3,c3,c3,c3

Improper Coeffs

   1	10.5	-1	2	# c,X,X,o

Atoms

   1	1	1	-0.003445	-6.23895	8.12146	-2.10182
   2	1	1	0.299845	-5.54644	8.56086	-3.41701
   3	1	2	0.023286	-5.71928	7.2483	-1.6882
   4	1	2	-0.011958	-6.14846	8.918	-1.35242
   5	1	3	-0.518063	-4.14812	8.2457	-3.37285
   6	1	4	0.011666	-5.70718	9.63051	-3.60428
   7	1	5	0.843192	-3.31037	9.07253	-2.7027
   8	1	1	-0.399874	-1.8833	8.61161	-2.86153
   9	1	2	0.119224	-1.5922	8.70999	-3.91047
  10	1	2	0.109051	-1.79831	7.56313	-2.56192
  11	1	2	0.118031	-1.22395	9.22853	-2.24326
  12	1	6	-0.590955	-3.64443	10.033	-2.03752
  13	1	1	-0.003445	-8.60006	9.00839	-2.68045
  14	1	1	0.299845	-7.73689	7.77222	-2.30497
  15	1	2	0.023286	-8.91819	9.48873	-1.74632
  16	1	2	-0.011958	-7.99191	9.75377	-3.20731
  17	1	3	-0.518063	-7.84628	6.77537	-3.33948
  18	1	4	0.011666	-8.14344	7.36657	-1.36888
  19	1	5	0.843192	-7.53509	5.48459	-3.06484
  20	1	1	-0.399874	-7.65687	4.63206	-4.30307
  21	1	2	0.119224	-8.03828	3.64542	-4.02323
  22	1	2	0.109051	-6.6668	4.53534	-4.75547
  23	1	2	0.118031	-8.34321	5.10393	-5.01516
  24	1	6	-0.590955	-7.21682	5.05233	-1.97664
  25	1	1	-0.003445	-9.54818	8.72861	-5.06118
  26	1	1	0.299845	-9.84971	8.66694	-3.54011
  27	1	2	0.023286	-9.23363	9.73963	-5.32317
  28	1	2	-0.011958	-8.68425	8.09784	-5.3034
  29	1	3	-0.518063	-10.9572	9.53031	-3.191
  30	1	4	0.011666	-10.1674	7.64643	-3.29185
  31	1	5	0.843192	-10.9183	10.8805	-3.36467
  32	1	1	-0.399874	-12.174	11.5228	-2.831
  33	1	2	0.119224	-12.4661	11.0341	-1.89655
  34	1	2	0.109051	-12.9754	11.4063	-3.56775
  35	1	2	0.118031	-11.9879	12.5858	-2.64952
  36	1	6	-0.590955	-9.95958	11.5159	-3.75481
  37	1	1	-0.003445	-10.517	8.59866	-7.43175
  38	1	1	0.299845	-10.7432	8.2768	-5.93008
  39	1	2	0.023286	-9.58145	8.11651	-7.74224
  40	1	2	-0.011958	-11.2986	8.1341	-8.04539
  41	1	3	-0.518063	-10.8351	6.84741	-5.75876
  42	1	4	0.011666	-11.6605	8.75947	-5.57473
  43	1	5	0.843192	-11.9738	6.20852	-6.13095
  44	1	1	-0.399874	-11.8592	4.72631	-5.87022
  45	1	2	0.119224	-12.7826	4.23093	-6.18738
  46	1	2	0.109051	-11.6981	4.55905	-4.80084
  47	1	2	0.118031	-11.0113	4.3255	-6.43305
  48	1	6	-0.590955	-12.9598	6.73384	-6.60558
  49	1	1	-0.003445	-9.32607	10.4881	-8.72523
  50	1	1	0.299845	-10.4664	10.1242	-7.74808
  51	1	2	0.023286	-9.52831	11.4571	-9.19468
  52	1	2	-0.011958	-9.30773	9.75737	-9.54508
  53	1	3	-0.518063	-11.693	10.5364	-8.37284
  54	1	4	0.011666	-10.3233	10.7136	-6.8358
  55	1	5	0.843192	-12.7533	10.8423	-7.58311
  56	1	1	-0.399874	-13.9021	11.3478	-8.41839
  57	1	2	0.119224	-13.6094	12.2936	-8.88466
  58	1	2	0.109051	-14.7791	11.5016	-7.78221
  59	1	2	0.118031	-14.1309	10.6162	-9.19909
  60	1	6	-0.590955	-12.7496	10.8381	-6.36668
  61	1	1	-0.003445	-6.76382	10.7761	-8.98151
  62	1	1	0.299845	-7.94426	10.4991	-8.02087
  63	1	2	0.023286	-6.89334	10.1299	-9.85852
  64	1	2	-0.011958	-6.76687	11.8067	-9.35677
  65	1	3	-0.518063	-7.90926	11.3971	-6.88776
  66	1	4	0.011666	-7.79093	9.48692	-7.62722
  67	1	5	0.843192	-8.08959	12.742	-7.01976
  68	1	1	-0.399874	-7.9111	13.4536	-5.70241
  69	1	2	0.119224	-8.68205	14.2236	-5.60525
  70	1	2	0.109051	-6.92198	13.9161	-5.67719
  71	1	2	0.118031	-8.00261	12.7434	-4.87506
  72	1	6	-0.590955	-8.3915	13.3215	-8.04286
  73	1	1	-0.003445	-4.29954	10.1833	-9.34076
  74	1	1	0.299845	-5.41717	10.4394	-8.3027
  75	1	2	0.023286	-4.71604	9.67775	-10.2207
  76	1	2	-0.011958	-3.94464	11.1544	-9.709
  77	1	3	-0.518063	-5.01823	11.5552	-7.47994
  78	1	4	0.011666	-5.5862	9.54142	-7.70627
  79	1	5	0.843192	-4.32483	11.3243	-6.33544
  80	1	1	-0.399874	-3.81394	12.6063	-5.73014
  81	1	2	0.119224	-3.11239	13.0695	-6.43222
  82	1	2	0.109051	-3.30075	12.3876	-4.78775
  83	1	2	0.118031	-4.64792	13.2878	-5.54946
  84	1	6	-0.590955	-4.1373	10.2281	-5.84358
  85	1	1	-0.003445	-3.44017	7.81156	-8.73081
  86	1	1	0.299845	-3.11369	9.32933	-8.80929
  87	1	2	0.023286	-4.21972	7.58017	-9.46602
  88	1	2	-0.011958	-2.56922	7.23273	-9.05766
  89	1	3	-0.518063	-2.02354	9.48946	-9.73191
  90	1	4	0.011666	-2.78691	9.67867	-7.82513
  91	1	5	0.843192	-1.26809	10.617	-9.634
  92	1	1	-0.399874	-0.218005	10.6589	-10.7168
  93	1	2	0.119224	0.649588	10.0802	-10.3874
  94	1	2	0.109051	0.0724346	11.6982	-10.901
  95	1	2	0.118031	-0.620301	10.22	-11.6348
  96	1	6	-0.590955	-1.46895	11.5364	-8.86197
  97	1	1	-0.003445	-2.75433	7.22505	-6.27354
  98	1	1	0.299845	-3.8864	7.32321	-7.31952
  99	1	2	0.023286	-3.20215	6.99111	-5.30396
 100	1	2	-0.011958	-2.323	8.22476	-6.15481
 101	1	3	-0.518063	-4.52773	6.04073	-7.43793
 102	1	4	0.011666	-4.6112	8.0231	-6.89963
 103	1	5	0.843192	-5.81095	6.01633	-7.88989
 104	1	1	-0.399874	-6.30578	4.59867	-8.02384
 105	1	2	0.119224	-6.29387	4.11221	-7.04603
 106	1	2	0.109051	-5.64576	4.04895	-8.70383
 107	1	2	0.118031	-7.32437	4.60464	-8.42446
 108	1	6	-0.590955	-6.49106	6.99664	-8.13633
 109	1	1	-0.003445	-1.9045	4.78077	-5.96957
 110	1	1	0.299845	-1.63539	6.19083	-6.57436
 111	1	2	0.023286	-1.0362	4.48275	-5.38123
 112	1	2	-0.011958	-2.7286	4.8249	-5.24596
 113	1	3	-0.518063	-0.413066	6.66802	-5.97528
 114	1	4	0.011666	-1.47555	6.1155	-7.65311
 115	1	5	0.843192	0.238052	7.70358	-6.5695
 116	1	1	-0.399874	1.44525	8.11389	-5.76619
 117	1	2	0.119224	1.88917	9.00746	-6.21603
 118	1	2	0.109051	2.17384	7.30068	-5.76391
 119	1	2	0.118031	1.13569	8.33481	-4.73904
 120	1	6	-0.590955	-0.0814681	8.22979	-7.61682
 121	1	1	-0.003445	-2.06766	2.23217	-6.43282
 122	1	1	0.299845	-2.23358	3.67263	-7.00256
 123	1	2	0.023286	-2.74314	1.57768	-6.99878
 124	1	2	-0.011958	-2.42971	2.1985	-5.39668
 125	1	3	-0.518063	-1.40717	3.83648	-8.16896
 126	1	4	0.011666	-3.2854	3.81097	-7.28193
 127	1	5	0.843192	-1.80811	3.26651	-9.3379
 128	1	1	-0.399874	-0.84638	3.56791	-10.4589
 129	1	2	0.119224	-0.364089	4.53504	-10.2842
 130	1	2	0.109051	-1.38536	3.58805	-11.4106
 131	1	2	0.118031	-0.0778762	2.78955	-10.487
 132	1	6	-0.590955	-2.86373	2.68421	-9.49348
 133	1	1	-0.003445	0.373359	2.15134	-5.45128
 134	1	1	0.299845	-0.634494	1.62642	-6.51754
 135	1	2	0.023286	-0.176403	2.59055	-4.61071
 136	1	2	-0.011958	0.937762	1.31345	-5.01967
 137	1	3	-0.518063	-0.78239	0.200187	-6.36362
 138	1	4	0.011666	-0.243453	1.82527	-7.52082
 139	1	5	0.843192	0.0699947	-0.615229	-7.04189
 140	1	1	-0.399874	-0.228115	-2.06906	-6.778
 141	1	2	0.119224	-1.27186	-2.27588	-7.03193
 142	1	2	0.109051	-0.0582564	-2.28704	-5.71984
 143	1	2	0.118031	0.431057	-2.6886	-7.39534
 144	1	6	-0.590955	0.949371	-0.247713	-7.79401
 145	1	1	-0.003445	1.9679	4.19754	-5.03113
 146	1	1	0.299845	1.37607	3.18124	-6.04053
 147	1	2	0.023286	2.56037	4.91506	-5.61164
 148	1	2	-0.011958	1.15605	4.7762	-4.57264
 149	1	3	-0.518063	2.48261	2.45508	-6.60666
 150	1	4	0.011666	0.858913	3.78131	-6.79883
 151	1	5	0.843192	2.55018	2.26975	-7.95073
 152	1	1	-0.399874	3.74853	1.42752	-8.31259
 153	1	2	0.119224	3.93794	1.50889	-9.38683
 154	1	2	0.109051	3.53628	0.384514	-8.05636
 155	1	2	0.118031	4.62281	1.76564	-7.74927
 156	1	6	-0.590955	1.85307	2.84051	-8.76613
 157	1	1	-0.003445	3.82403	4.66006	-3.29405
 158	1	1	0.299845	2.86762	3.59799	-3.9208
 159	1	2	0.023286	4.40906	4.20299	-2.49148
 160	1	2	-0.011958	4.55556	4.94073	-4.06319
 161	1	3	-0.518063	2.0011	3.00854	-2.93149
 162	1	4	0.011666	3.49608	2.81343	-4.36103
 163	1	5	0.843192	2.53357	2.20305	-1.97477
 164	1	1	-0.399874	1.46054	1.6313	-1.08279
 165	1	2	0.119224	1.18775	0.63997	-1.45655
 166	1	2	0.109051	0.57893	2.27952	-1.08956
 167	1	2	0.118031	1.84961	1.54726	-0.0635476
 168	1	6	-0.590955	3.71098	1.93291	-1.85106
 169	1	1	-0.003445	4.17985	7.0391	-2.29269
 170	1	1	0.299845	3.16002	5.96414	-2.77815
 171	1	2	0.023286	3.65799	7.83457	-1.74597
 172	1	2	-0.011958	4.58735	7.52216	-3.19073
 173	1	3	-0.518063	2.23298	5.65671	-1.72197
 174	1	4	0.011666	2.6075	6.40071	-3.61843
 175	1	5	0.843192	1.24061	6.54959	-1.46582
 176	1	1	-0.399874	0.416273	6.13402	-0.273769
 177	1	2	0.119224	-0.0160849	7.02744	0.188989
 178	1	2	0.109051	1.05091	5.61708	0.453116
 179	1	2	0.118031	-0.382629	5.46465	-0.604502
 180	1	6	-0.590955	1.04177	7.571	-2.09248
 181	1	1	-0.003445	4.99046	6.03148	-0.021997
 182	1	1	0.299845	5.37952	6.54188	-1.43852
 183	1	2	0.023286	4.73993	6.89716	0.604909
 184	1	2	-0.011958	4.08158	5.42367	-0.0757752
 185	1	3	-0.518063	6.23282	7.69494	-1.30518
 186	1	4	0.011666	5.8935	5.75599	-2.00274
 187	1	5	0.843192	7.58037	7.53916	-1.27571
 188	1	1	-0.399874	8.2751	8.87628	-1.21153
 189	1	2	0.119224	7.84855	9.54241	-1.96801
 190	1	2	0.109051	9.34483	8.74166	-1.40137
 191	1	2	0.118031	8.12465	9.31232	-0.219353
 192	1	6	-0.590955	8.16104	6.47835	-1.38282
 193	1	1	-0.003445	6.27874	3.77295	0.0498837
 194	1	1	0.299845	6.08067	5.18028	0.681694
 195	1	2	0.023286	6.69472	3.89671	-0.957249
 196	1	2	-0.011958	5.30345	3.28821	-0.0829207
 197	1	3	-0.518063	5.68643	5.0103	2.05493
 198	1	4	0.011666	7.04095	5.70272	0.638676
 199	1	5	0.843192	6.1727	5.87267	2.98406
 200	1	1	-0.399874	5.76201	5.46087	4.37824
 201	1	2	0.119224	6.66153	5.22354	4.95434
 202	1	2	0.109051	5.11372	4.57927	4.34047
 203	1	2	0.118031	5.22679	6.28856	4.85223
 204	1	6	-0.590955	6.87458	6.83719	2.75378
 205	1	1	-0.003445	6.49016	1.99208	1.93183
 206	1	1	0.299845	7.22209	2.82125	0.844917
 207	1	2	0.023286	5.82315	1.28101	1.42904
 208	1	2	-0.011958	5.83413	2.62808	2.53359
 209	1	3	-0.518063	8.27269	3.58479	1.46973
 210	1	4	0.011666	7.64702	2.09299	0.141733
 211	1	5	0.843192	9.38314	3.87173	0.741473
 212	1	1	-0.399874	10.3229	4.75735	1.52164
 213	1	2	0.119224	10.804	5.45495	0.829513
 214	1	2	0.109051	11.077	4.13728	2.01463
 215	1	2	0.118031	9.76151	5.32261	2.27308
 216	1	6	-0.590955	9.64526	3.40805	-0.34999
 217	1	1	-0.003445	6.64294	0.363829	3.91281
 218	1	1	0.299845	7.44025	1.23419	2.89984
 219	1	2	0.023286	6.25616	1.02592	4.69817
 220	1	2	-0.011958	5.7592	-0.0587125	3.41738
 221	1	3	-0.518063	8.45768	0.501041	2.17748
 222	1	4	0.011666	7.97065	1.99011	3.49295
 223	1	5	0.843192	8.16368	-0.527687	1.34183
 224	1	1	-0.399874	9.40821	-1.02213	0.646648
 225	1	2	0.119224	9.85926	-1.81851	1.24653
 226	1	2	0.109051	10.1252	-0.200505	0.540271
 227	1	2	0.118031	9.14269	-1.40198	-0.344339
 228	1	6	-0.590955	7.05198	-0.973815	1.14231
 229	1	1	-0.003445	6.61332	-1.46597	5.70127
 230	1	1	0.299845	7.42864	-0.79582	4.56871
 231	1	2	0.023286	5.6131	-1.67695	5.30967
 232	1	2	-0.011958	6.48908	-0.75959	6.53312
 233	1	3	-0.518063	8.65458	-0.283975	5.12856
 234	1	4	0.011666	7.6162	-1.53928	3.78565
 235	1	5	0.843192	9.8107	-0.95072	4.86479
 236	1	1	-0.399874	10.9664	-0.33721	5.61378
 237	1	2	0.119224	10.8175	-0.489134	6.68692
 238	1	2	0.109051	11.0124	0.734853	5.40028
 239	1	2	0.118031	11.8971	-0.819655	5.29855
 240	1	6	-0.590955	9.91371	-1.94441	4.1722
 241	1	1	-0.003445	6.62197	-3.38434	7.49243
 242	1	1	0.299845	7.26858	-2.7737	6.21384
 243	1	2	0.023286	7.32094	-4.11557	7.91686
 244	1	2	-0.011958	6.52853	-2.59359	8.24844
 245	1	3	-0.518063	7.22579	-3.71583	5.13071
 246	1	4	0.011666	8.31004	-2.53551	6.46255
 247	1	5	0.843192	8.13488	-4.7222	5.10546
 248	1	1	-0.399874	7.87425	-5.63758	3.93632
 249	1	2	0.119224	8.36118	-5.2286	3.04606
 250	1	2	0.109051	6.79573	-5.70725	3.75901
 251	1	2	0.118031	8.27521	-6.6301	4.1608
 252	1	6	-0.590955	8.9459	-4.9588	5.97932
 253	1	1	-0.003445	4.68501	-4.60974	8.65577
 254	1	1	0.299845	5.24907	-4.08441	7.30532
 255	1	2	0.023286	3.637	-4.30427	8.7487
 256	1	2	-0.011958	5.20488	-4.12103	9.49021
 257	1	3	-0.518063	4.32769	-3.10757	6.78603
 258	1	4	0.011666	5.36091	-4.91297	6.59286
 259	1	5	0.843192	3.17976	-3.53384	6.202
 260	1	1	-0.399874	2.33878	-2.37187	5.72891
 261	1	2	0.119224	1.39182	-2.37602	6.27705
 262	1	2	0.109051	2.14864	-2.47856	4.65661
 263	1	2	0.118031	2.86015	-1.42752	5.91534
 264	1	6	-0.590955	2.85658	-4.69643	6.07069
 265	1	1	-0.003445	4.21249	-6.54184	10.2489
 266	1	1	0.299845	4.74369	-6.14684	8.84171
 267	1	2	0.023286	4.65119	-7.48868	10.587
 268	1	2	-0.011958	4.53902	-5.79353	10.9834
 269	1	3	-0.518063	6.10651	-6.59758	8.71412
 270	1	4	0.011666	4.12835	-6.61775	8.0626
 271	1	5	0.843192	6.32226	-7.92818	8.5158
 272	1	1	-0.399874	7.79385	-8.25723	8.53049
 273	1	2	0.119224	8.36041	-7.44342	8.06588
 274	1	2	0.109051	7.96362	-9.18769	7.97937
 275	1	2	0.118031	8.11836	-8.37928	9.56817
 276	1	6	-0.590955	5.45528	-8.77253	8.39265
 277	1	1	-0.003445	2.20914	-8.12823	10.0301
 278	1	1	0.299845	2.67009	-6.66974	10.2543
 279	1	2	0.023286	2.80459	-8.58096	9.22979
 280	1	2	-0.011958	2.39421	-8.71608	10.9394
 281	1	3	-0.518063	2.15301	-6.23325	11.5274
 282	1	4	0.011666	2.25413	-6.04428	9.45424
 283	1	5	0.843192	1.99547	-4.89816	11.7326
 284	1	1	-0.399874	1.50638	-4.61322	13.1312
 285	1	2	0.119224	1.42507	-3.53039	13.2711
 286	1	2	0.109051	2.21549	-5.02757	13.8541
 287	1	2	0.118031	0.526618	-5.07909	13.2731
 288	1	6	-0.590955	2.25694	-4.02813	10.9257
 289	1	1	-0.003445	0.0813167	-9.59315	9.68288
 290	1	1	0.299845	0.712052	-8.17091	9.6578
 291	1	2	0.023286	0.654115	-10.2381	10.3612
 292	1	2	-0.011958	-0.900128	-9.49238	10.1594
 293	1	3	-0.518063	0.605573	-7.59867	8.34204
 294	1	4	0.011666	0.184131	-7.56462	10.405
 295	1	5	0.843192	-0.327424	-6.644	8.09347
 296	1	1	-0.399874	-0.26969	-6.20679	6.65152
 297	1	2	0.119224	0.77348	-6.1834	6.31986
 298	1	2	0.109051	-0.71055	-5.21057	6.55169
 299	1	2	0.118031	-0.819039	-6.92505	6.03678
 300	1	6	-0.590955	-1.03585	-6.12158	8.93019
 301	1	1	-0.003445	1.25896	-10.9668	7.84378
 302	1	1	0.299845	-0.0663023	-10.3067	8.30083
 303	1	2	0.023286	1.51403	-11.7888	8.52428
 304	1	2	-0.011958	2.05722	-10.2292	7.96091
 305	1	3	-0.518063	-1.05795	-11.3467	8.40327
 306	1	4	0.011666	-0.391134	-9.59487	7.53151
 307	1	5	0.843192	-2.37175	-10.9977	8.47844
 308	1	1	-0.399874	-3.2646	-12.2127	8.40407
 309	1	2	0.119224	-2.74184	-13.0266	7.89249
 310	1	2	0.109051	-4.16963	-11.952	7.8459
 311	1	2	0.118031	-3.53101	-12.5308	9.41598
 312	1	6	-0.590955	-2.79893	-9.86156	8.50552
 313	1	1	-0.003445	0.647614	-12.9071	6.22401
 314	1	1	0.299845	1.25481	-11.4859	6.37457
 315	1	2	0.023286	1.17286	-13.604	6.88508
 316	1	2	-0.011958	-0.38781	-12.8899	6.57973
 317	1	3	-0.518063	2.62166	-11.5639	5.91795
 318	1	4	0.011666	0.691388	-10.7897	5.73799
 319	1	5	0.843192	3.27988	-10.4073	5.62442
 320	1	1	-0.399874	4.70595	-10.6769	5.20821
 321	1	2	0.119224	4.80768	-11.7102	4.86205
 322	1	2	0.109051	5.36136	-10.5155	6.07
 323	1	2	0.118031	4.97912	-9.9892	4.40228
 324	1	6	-0.590955	2.77541	-9.30289	5.6038
 325	1	1	-0.003445	1.74343	-14.5378	4.47847
 326	1	1	0.299845	0.675639	-13.4292	4.75582
 327	1	2	0.023286	2.27487	-14.2489	3.5634
 328	1	2	-0.011958	2.50348	-14.5214	5.27042
 329	1	3	-0.518063	-0.640614	-13.9113	4.41665
 330	1	4	0.011666	0.91967	-12.5886	4.09212
 331	1	5	0.843192	-1.63023	-13.0095	4.18786
 332	1	1	-0.399874	-2.947	-13.7043	3.94153
 333	1	2	0.119224	-2.77751	-14.6332	3.38834
 334	1	2	0.109051	-3.60309	-13.045	3.36387
 335	1	2	0.118031	-3.40928	-13.935	4.90581
 336	1	6	-0.590955	-1.49375	-11.8031	4.19856
 337	1	1	-0.003445	1.03077	-16.7851	5.60791
 338	1	1	0.299845	1.21144	-15.9956	4.28714
 339	1	2	0.023286	1.99915	-16.9162	6.10541
 340	1	2	-0.011958	0.405537	-16.1881	6.28348
 341	1	3	-0.518063	2.04782	-16.7502	3.37808
 342	1	4	0.011666	0.235277	-15.9529	3.79348
 343	1	5	0.843192	3.36569	-16.9872	3.61115
 344	1	1	-0.399874	3.92437	-17.9368	2.57867
 345	1	2	0.119224	3.90023	-18.9526	2.98456
 346	1	2	0.109051	4.95538	-17.6569	2.34254
 347	1	2	0.118031	3.31714	-17.9015	1.66804
 348	1	6	-0.590955	4.01038	-16.5593	4.54622
 349	1	1	-0.003445	0.377443	-19.1308	6.60064
 350	1	1	0.299845	0.37214	-18.1712	5.37385
 351	1	2	0.023286	1.40504	-19.4649	6.7929
 352	1	2	-0.011958	-0.186096	-20.0368	6.34384
 353	1	3	-0.518063	-0.984671	-17.9184	4.96026
 354	1	4	0.011666	0.919298	-18.672	4.56464
 355	1	5	0.843192	-1.63072	-18.8518	4.21431
 356	1	1	-0.399874	-3.00961	-18.3764	3.8244
 357	1	2	0.119224	-3.14484	-17.3301	4.11655
 358	1	2	0.109051	-3.75886	-18.9944	4.32762
 359	1	2	0.118031	-3.12167	-18.468	2.7398
 360	1	6	-0.590955	-1.15738	-19.9068	3.84412
 361	1	1	-0.003445	-0.484491	-19.5779	8.98797
 362	1	1	0.299845	-0.208147	-18.5171	7.89461
 363	1	2	0.023286	0.408702	-19.7611	9.59909
 364	1	2	-0.011958	-0.796545	-20.5352	8.55128
 365	1	3	-0.518063	0.784582	-17.606	8.39652
 366	1	4	0.011666	-1.1442	-18.002	7.64171
 367	1	5	0.843192	0.406595	-16.5704	9.18339
 368	1	1	-0.399874	1.59629	-15.6974	9.49928
 369	1	2	0.119224	2.49903	-16.3132	9.56799
 370	1	2	0.109051	1.42919	-15.1796	10.4481
 371	1	2	0.118031	1.72493	-14.9688	8.69552
 372	1	6	-0.590955	-0.736895	-16.2928	9.4817
 373	1	4	0	-5.9751	8.0134	-4.26418
 374	1	2	0	-1.28898	-19.2408	9.65294

Velocities

   1	0.00045067	8.34366e-05	-0.000574481
   2	0.000242187	0.000391881	-0.000239053
   3	0.000444777	-0.0004223	-0.00115125
   4	0.000871662	-0.000430162	-0.000224867
   5	0.000376339	0.000850239	-0.000272886
   6	-0.000161936	0.000558211	-0.000246759
   7	-0.000255993	0.000753326	-7.88428e-05
   8	-4.48942e-06	0.000977004	0.00123325
   9	0.00128871	0.00171553	0.00155053
  10	-0.000279737	0.000748916	0.000954722
  11	-0.000988183	0.000766906	0.00246131
  12	-0.000443349	0.00089552	-0.00014239
  13	0.000278948	-0.000132719	-2.44197e-05
  14	0.000297397	-0.000187102	-0.000275211
  15	0.000227989	-0.000479626	0.000304642
  16	6.85239e-05	0.000101495	0.000179127
  17	0.000387007	-0.000161652	-0.000362331
  18	0.000903882	-0.000350545	-0.000172455
  19	0.00040982	-0.000265259	6.9322e-05
  20	-0.000106706	-0.000465205	0.000377965
  21	0.000656332	-0.000687348	0.000816511
  22	-0.000397437	-9.03463e-05	-0.000277462
  23	-0.000810455	-0.00110083	0.000802621
  24	0.00023416	-8.78531e-05	0.000261661
  25	-2.14037e-05	0.000237583	6.10002e-05
  26	3.10791e-05	-8.2027e-05	9.49346e-06
  27	-0.000237775	0.000472818	0.000353687
  28	6.28006e-05	0.000455547	-3.63018e-05
  29	0.000172661	-0.000119291	0.000168639
  30	0.000186441	-0.000123651	-4.04706e-05
  31	0.000365753	-9.72773e-06	0.000540424
  32	-0.000460569	-0.000138958	-0.00106384
  33	-0.000816515	0.000705595	-0.000773268
  34	0.000137005	-0.00158702	-0.0015202
  35	-0.00133832	0.000221882	-0.00219203
  36	0.000580676	0.000143383	0.00150104
  37	-0.00025694	0.000541906	0.00014917
  38	-9.94895e-05	0.00039001	9.84943e-05
  39	-0.000394536	0.000503944	-8.96957e-05
  40	-0.000373567	0.000565724	0.000238695
  41	-0.000126051	0.000350168	6.11136e-05
  42	-7.81203e-05	0.000418585	0.000265092
  43	-0.000188662	0.000395575	5.39613e-05
  44	-0.000199028	0.000361489	-6.54963e-05
  45	-0.000275777	0.000423226	8.05124e-05
  46	-1.99262e-05	0.000242549	-0.000129744
  47	-0.000361444	0.000355256	-0.000253115
  48	-0.000180017	0.000442531	0.000155855
  49	-0.000339942	0.00062052	0.000141256
  50	-0.000325389	0.000533095	0.000107708
  51	-0.000195941	0.000811821	0.000493547
  52	-0.000536383	0.000910467	-0.000104124
  53	-0.000448258	0.000382336	0.000249029
  54	-0.000312759	0.000509961	0.000170077
  55	-0.000445429	0.000118298	0.000328077
  56	-0.00103294	-0.000901042	0.000472799
  57	-0.00156354	-0.00128059	-0.000596036
  58	-0.000739801	-0.000529146	0.000825078
  59	-0.00130548	-0.00172444	0.00130084
  60	-0.000218174	0.000402106	0.000312299
  61	-0.000141232	-0.000282737	-6.12201e-05
  62	-0.000229548	0.000149929	1.31338e-05
  63	-0.000259476	-0.000485452	9.30831e-05
  64	2.61438e-05	-0.000378305	-0.000324473
  65	1.51272e-06	0.000100217	5.80966e-05
  66	-0.00048907	0.000108498	-4.40983e-06
  67	0.00054329	0.000173075	0.000132245
  68	-0.00018159	-3.13416e-05	0.000344605
  69	-0.00101939	-0.000906947	0.000585255
  70	-0.000694117	0.00105194	0.000514621
  71	0.00056255	-0.0003739	0.00015655
  72	0.00106412	0.000373443	5.6096e-05
  73	-8.57613e-05	-0.000309095	-7.37953e-05
  74	-0.000125315	-0.000336287	-7.93364e-05
  75	-6.8315e-05	-0.000212725	-0.000132756
  76	8.89563e-06	-0.000309805	3.5658e-05
  77	-0.000200485	-0.000293415	-0.000103328
  78	-0.00013425	-0.000315728	-5.90017e-05
  79	4.39692e-05	-0.000244201	-0.000240347
  80	-0.000602964	-0.000114692	7.29904e-05
  81	-0.000422199	0.000130896	0.000435703
  82	-0.000986093	-5.71011e-05	0.000288026
  83	-0.000887671	-0.000364535	-0.000244676
  84	0.000395529	-0.000205372	-0.000390955
  85	0.000117978	-0.000390184	-0.000245474
  86	-4.37452e-05	-0.000368302	-0.000223228
  87	0.000176775	-0.000401439	-0.000301713
  88	0.000168496	-0.000315424	-0.000236355
  89	-0.000169712	-0.000329102	-0.000286137
  90	5.15109e-05	-0.000437996	-0.00021617
  91	0.000279314	-0.000658742	0.00015287
  92	0.000500402	-0.000839458	0.000391691
  93	-0.000319514	-0.00211788	0.000269772
  94	0.00178383	-0.0010249	0.00136111
  95	0.000336332	0.000364157	-9.07965e-05
  96	0.000629212	-0.000909748	0.000549572
  97	0.000104184	4.25702e-05	-8.30512e-05
  98	0.000162249	-0.000352997	-0.000226299
  99	4.17105e-05	-0.000126833	-0.000142927
 100	-0.000205727	0.000151006	6.83462e-05
 101	0.000364567	-0.000465918	-0.000240361
 102	-1.21622e-05	-0.000475029	-0.000365947
 103	0.00055329	-0.000567411	-0.000763544
 104	0.000513841	-0.000588076	-0.000715035
 105	0.00126563	-0.000848016	-0.000859958
 106	-2.5963e-05	-0.000399542	-0.00140616
 107	0.000216719	-0.000424198	8.46759e-05
 108	0.00060924	-0.000602931	-0.00103813
 109	0.0010207	0.000401222	-7.92105e-05
 110	0.00051904	0.000478698	-3.3137e-05
 111	0.00149991	0.000374767	-0.000833064
 112	0.0016112	0.000243061	0.000576878
 113	0.000309896	0.000816382	0.000120728
 114	0.000746096	0.000524643	-1.19476e-05
 115	0.000236806	0.000835285	0.000194131
 116	0.000478743	0.000462039	-4.49745e-07
 117	-5.96452e-06	0.00101822	0.000646034
 118	0.000701245	0.000627617	-0.00114547
 119	0.000920341	-0.000642776	0.000375569
 120	0.000332717	0.000756486	6.92671e-05
 121	0.000296334	0.000539778	-0.000176117
 122	0.000408834	0.000569125	-2.92839e-05
 123	0.000147668	0.000696233	-0.000176025
 124	0.000380899	0.000531336	-0.000154805
 125	0.000135569	0.000367335	-0.000243072
 126	0.000347304	0.000784695	0.000347811
 127	-0.000597971	0.000857829	-0.000236609
 128	-0.000517079	0.000215884	-0.000350188
 129	-0.000101378	3.59025e-05	-0.000550521
 130	-0.000558996	0.000258448	-0.000341271
 131	-0.000869755	-0.000118606	-0.000209004
 132	-0.00105234	0.00167858	-9.14261e-05
 133	0.000431784	0.000230905	-0.000552373
 134	0.000158056	0.000240608	-0.000292901
 135	0.000563416	0.000213693	-0.000455793
 136	0.000507029	0.000247795	-0.00063126
 137	-0.000405767	0.000387352	0.000244071
 138	9.1842e-05	-0.00028846	-0.000446024
 139	0.000501633	-0.000166662	0.00209371
 140	-0.000929632	5.69326e-05	0.00175274
 141	-0.00106667	0.00111047	0.00142215
 142	-0.00148909	-0.000328804	0.00178964
 143	-0.00138119	-0.0004528	0.0018442
 144	0.00186923	-0.000732096	0.0034094
 145	0.000443613	-1.42981e-05	-0.00044496
 146	0.000354216	0.000266279	-0.000621026
 147	0.00105125	-0.000313586	-0.000216397
 148	0.000602518	0.000396862	-0.000710964
 149	0.000428414	0.000499924	-0.000754747
 150	0.000354344	0.000391742	-0.000518713
 151	0.000375267	0.000316604	-0.000644994
 152	0.000755947	0.00101425	-0.000716369
 153	0.000348822	0.000513877	-0.00081812
 154	0.00159136	0.00102814	1.44134e-05
 155	0.000740281	0.00197246	-0.00119474
 156	-0.000118777	-9.26043e-05	-0.000759618
 157	-0.000117565	-0.000905102	0.000305196
 158	-0.000230355	-0.000507612	-0.000133274
 159	-0.000538506	-0.00111693	0.000498427
 160	0.000207312	-0.00107709	0.000594853
 161	-0.000502193	-0.000272304	-0.000285815
 162	-0.000341677	-0.000681475	-3.53775e-05
 163	-0.000909776	-0.000764765	-0.000514274
 164	-0.00064677	0.000550196	0.000461894
 165	-0.00261289	0.0010694	0.000622561
 166	0.000325872	0.00186284	0.00173557
 167	0.000391862	-0.000301226	-2.33631e-05
 168	-0.000888123	-0.00165988	-0.00104464
 169	0.000397042	-0.000856291	-0.000625136
 170	1.66077e-05	-0.000813248	0.000169305
 171	0.000740018	-0.00024312	-0.00123029
 172	0.000518597	-0.00171131	-0.00105488
 173	0.000277795	-0.000591274	0.000515924
 174	-0.000249255	-0.000961815	0.00026973
 175	0.00045215	-0.000457108	0.000770306
 176	-0.000390032	-0.00117132	-2.63959e-05
 177	-0.0020928	-0.00163343	-0.000772492
 178	-0.000640717	-0.000243348	0.000858181
 179	0.000830424	-0.00223986	-0.00085218
 180	0.000559343	-0.000326542	0.000988105
 181	0.000285708	-0.000307164	-0.00035574
 182	0.000342253	-0.000684275	-0.000465352
 183	0.000196126	-0.000115554	-0.000655083
 184	0.000348323	-0.000379644	-0.000192821
 185	0.000244509	-0.000635691	-0.000596466
 186	0.00039659	-0.000822947	-0.000253047
 187	0.000201301	-0.000466434	0.000129239
 188	9.13018e-05	-0.000518408	0.00110655
 189	0.00056389	-0.000182654	0.00108462
 190	0.000203073	-0.000355176	0.00188389
 191	-0.000759282	-0.000941093	0.00120056
 192	0.000403648	-0.000456157	0.000455023
 193	0.000454474	-0.000146764	0.000284249
 194	0.000221487	-7.42059e-05	2.11098e-05
 195	0.000936717	-0.000238494	0.000472144
 196	0.000546246	-0.000211451	-0.000162243
 197	-3.7445e-05	0.000165067	-4.28677e-05
 198	0.000195736	-3.24554e-05	0.000186816
 199	-0.00071206	0.000758914	-0.000224012
 200	-0.000654646	0.000844118	-0.000171723
 201	-0.0006429	0.000544689	-0.000347624
 202	-0.000923366	0.00105663	-0.000105805
 203	-0.000323705	0.00100278	-4.28901e-05
 204	-0.00110044	0.000971345	-0.000387021
 205	-9.7688e-05	0.000391717	0.000892398
 206	0.000158642	-6.40626e-05	0.000738433
 207	-0.000779305	0.00090078	0.00108551
 208	0.000619496	0.000780817	0.001278
 209	0.000373984	-0.000172994	0.000528213
 210	7.62911e-05	-0.000378179	0.00100009
 211	-0.000305723	0.000643389	-0.000152208
 212	0.00014614	0.000333326	-0.000391783
 213	0.00138854	-0.000848938	-0.000720175
 214	-0.00086328	3.26514e-05	0.000783069
 215	0.000165161	0.0016323	-0.00135573
 216	-0.00131756	0.00173058	-0.000923522
 217	-0.000243292	-0.000751892	-0.000106214
 218	-0.000215848	-0.000302316	0.000380452
 219	-0.000492854	-0.00114557	0.000106603
 220	-8.22002e-05	-0.000830435	-0.000354338
 221	-0.000485083	-0.000274283	1.45393e-05
 222	3.70828e-06	-0.000749041	0.000748302
 223	-0.000874342	-8.4728e-05	-0.000108691
 224	-0.000926186	-0.00086157	0.000406067
 225	-0.000271228	0.000597737	0.00194131
 226	-0.00140253	-0.000711879	-0.00144464
 227	-0.00108589	-0.00306988	0.00133023
 228	-0.00102034	0.000415678	-0.000249844
 229	0.00046573	-0.000758431	-0.000502296
 230	0.000160498	-0.000680553	-0.000539159
 231	0.000539386	-0.00104038	-0.00050586
 232	0.000303233	-0.000624486	-0.00064779
 233	3.10404e-05	-0.000328369	-0.00065003
 234	0.000240903	-0.00060218	-0.000612228
 235	0.000260511	0.000223602	-0.000894688
 236	-7.29371e-05	0.000646689	-0.000800059
 237	-0.000602406	0.00128252	-0.000795485
 238	-2.94062e-05	0.00054589	-0.00138617
 239	7.70779e-05	0.000500707	-8.64367e-05
 240	0.000553644	-3.7733e-06	-0.000559633
 241	0.000308108	0.000561368	0.000112039
 242	0.000631774	-0.000530435	-0.000199479
 243	0.000137561	0.000903129	0.000981464
 244	0.000178316	0.00119372	-0.000534614
 245	0.000618497	-0.000846857	1.81462e-05
 246	0.000695804	-0.000588384	-0.00033535
 247	-0.00136896	-0.00280954	0.00178656
 248	0.000688017	-0.000676185	-0.000350055
 249	0.00046342	0.00225152	0.000843253
 250	0.000882667	-0.00192543	-0.000970276
 251	0.00230492	-0.000571799	-0.00251523
 252	-0.00355457	-0.00465157	0.00324013
 253	0.000548963	0.000769789	0.000377878
 254	0.00031919	0.000606368	0.000272243
 255	0.000805153	0.00139153	0.000971436
 256	0.00133847	0.000131792	0.000286838
 257	6.05569e-05	0.000228489	-2.40791e-05
 258	0.000402614	0.00046097	0.000449947
 259	-0.000120654	-0.000193121	0.000758885
 260	-0.000306467	-0.00070632	1.53339e-05
 261	-0.000390563	-0.000533953	-0.000118647
 262	-0.000143096	-0.00128473	4.87611e-05
 263	-0.00050735	-0.000494159	-0.00043164
 264	-0.000274749	-0.000448712	0.00200866
 265	-0.000389523	1.11817e-05	-0.000760441
 266	1.14733e-05	0.000728389	-0.00039572
 267	-0.00045055	-0.000127967	-0.00115834
 268	-0.00043913	-0.000385085	-0.00035476
 269	5.44033e-05	0.000985516	-0.000444389
 270	0.000208305	0.00123918	-0.000855228
 271	0.000453133	0.00113761	-0.000746707
 272	0.000612316	0.00184847	-0.00158495
 273	-0.000194409	0.00155718	-0.0031849
 274	0.000563853	0.00123783	-0.000529098
 275	0.00161479	0.00343253	-0.00174579
 276	0.000725027	0.000849022	-0.000389723
 277	-0.000421462	-0.000102415	-0.000969534
 278	-0.000441593	-2.53897e-05	-0.00109959
 279	-0.00067961	0.000111449	-0.00127938
 280	0.000150577	-0.000105504	-0.00110472
 281	-0.000739271	-0.000194043	-0.00118617
 282	-0.000328521	7.67295e-05	-0.00110431
 283	0.00134918	-0.000170571	3.96009e-05
 284	-0.000212703	-0.000982226	-0.000388997
 285	-0.000865608	-0.00112079	6.87429e-05
 286	-0.000793582	-0.00105497	0.000134853
 287	-0.000162501	-0.00152303	-0.00168433
 288	0.00394454	0.000321716	0.00136773