pySIMM System Object

722 atoms
801 bonds
1440 angles
2216 dihedrals
200 impropers

12 atom types
15 bond types
28 angle types
9 dihedral types
4 improper types

-112.656209 112.656209 xlo xhi
-112.656209 112.656209 ylo yhi
-112.656209 112.656209 zlo zhi

Masses

   1	14.01	# nh
   2	12.01	# ca
   3	12.01	# c3
   4	1.008	# ha
   5	19.0	# f
   6	12.01	# c
   7	14.01	# n
   8	16.0	# o
   9	1.008	# hn
  10	1.008	# hc
  11	1.008	# h1
  12	1.008	# h2

Pair Coeffs

   1	0.17	3.249998523775958	# nh
   2	0.086	3.3996695084235347	# ca
   3	0.1094	3.3996695084235347	# c3
   4	0.015	2.59964245953351	# ha
   5	0.061	3.1181455134911875	# f
   6	0.086	3.3996695084235347	# c
   7	0.17	3.249998523775958	# n
   8	0.21	2.959921901149463	# o
   9	0.0157	1.069078461768407	# hn
  10	0.0157	2.649532787749369	# hc
  11	0.0157	2.471353044121301	# h1
  12	0.0157	2.2931733004932333	# h2

Bond Coeffs

   1	356.9	1.3497	# c3,f
   2	403.2	1.0129	# hn,n
   3	417.9	1.3859	# ca,nh
   4	300.9	1.5375	# c3,c3
   5	384.2	1.4121	# ca,n
   6	330.6	1.0969	# c3,h1
   7	461.1	1.3984	# ca,ca
   8	326.6	1.464	# c3,nh
   9	427.6	1.3789	# c,n
  10	331.7	1.0961	# c3,h2
  11	345.9	1.4906	# c,ca
  12	345.8	1.086	# ca,ha
  13	321.0	1.5156	# c3,ca
  14	330.6	1.0969	# c3,hc
  15	637.7	1.2183	# c,o

Angle Coeffs

   1	71.11	105.87	# nh,c3,nh
   2	63.25	114.51	# c3,nh,c3
   3	74.22	123.05	# n,c,o
   4	66.62	120.02	# ca,ca,ca
   5	68.29	120.95	# ca,ca,nh
   6	49.52	110.01	# h2,c3,nh
   7	68.72	122.6	# ca,c,o
   8	49.57	109.79	# h1,c3,nh
   9	67.68	115.25	# ca,c,n
  10	66.46	111.39	# ca,c3,nh
  11	48.33	117.55	# c,n,hn
  12	64.28	120.33	# c,ca,ca
  13	39.4	107.58	# hc,c3,hc
  14	63.53	120.77	# c3,ca,ca
  15	70.89	107.36	# f,c3,f
  16	67.87	120.19	# ca,ca,n
  17	46.8	110.47	# ca,c3,hc
  18	46.99	109.56	# ca,c3,h1
  19	62.86	111.51	# c3,c3,c3
  20	66.11	109.24	# c3,c3,f
  21	63.15	112.07	# c3,c3,ca
  22	38.96	110.2	# h2,c3,h2
  23	63.82	123.71	# c,n,ca
  24	39.24	108.46	# h1,c3,h1
  25	63.56	112.24	# ca,c3,ca
  26	63.39	119.98	# c3,nh,ca
  27	63.74	127.08	# c,n,c
  28	48.18	119.88	# ca,ca,ha

Dihedral Coeffs

   1	2	2.5	2	180	2.0	1	0	# hn,n,c,o
   2	1	0.0	2	0	# X,c3,nh,X
   3	1	3.625	2	180	# X,ca,ca,X
   4	1	0.0	2	0	# X,c3,ca,X
   5	1	1.0	2	180	# X,c,ca,X
   6	1	0.15555555555555556	3	0	# X,c3,c3,X
   7	1	2.5	2	180	# X,c,n,X
   8	1	0.45	2	180	# X,ca,n,X
   9	1	1.05	2	180	# X,ca,nh,X

Improper Coeffs

   1	10.5	-1	2	# c,X,X,o
   2	1.1	-1	2	# n,X,X,hn
   3	1.1	-1	2	# ca,ca,ca,c3
   4	1.1	-1	2	# ca,X,X,ha

Atoms

   1	1	1	-0.247122	66.5513	-40.8678	10.9356
   2	1	2	0.139112	65.2399	-41.2581	10.6286
   3	1	2	0.02746	64.1282	-40.8337	11.3957
   4	1	3	-0.077297	64.308	-39.9742	12.652
   5	1	2	-0.08585	62.8275	-41.2093	10.9888
   6	1	2	-0.195578	62.6418	-42.0121	9.84849
   7	1	4	0.171692	61.639	-42.3034	9.54193
   8	1	2	-0.199822	63.7469	-42.4361	9.09513
   9	1	4	0.149498	63.5981	-43.047	8.20854
  10	1	2	0.076729	65.0436	-42.0558	9.47485
  11	1	2	-0.057821	60.0643	-40.6509	13.3339
  12	1	2	-0.076852	59.1689	-40.9121	14.3753
  13	1	4	0.145382	59.2832	-41.8393	14.9263
  14	1	2	-0.023498	58.101	-40.0069	14.6109
  15	1	4	0.166076	58.8326	-37.7256	12.1066
  16	1	2	-0.140684	58.9311	-38.5947	12.7543
  17	1	2	-0.058922	59.9464	-39.5329	12.5357
  18	1	3	-0.101954	56.9332	-40.3683	15.5688
  19	1	2	-0.067123	58.0105	-38.844	13.7955
  20	1	4	0.142141	57.1814	-38.1537	13.9273
  21	1	3	0.321219	55.8839	-41.1237	14.6625
  22	1	3	0.382784	57.3646	-41.3261	16.7527
  23	1	5	-0.111948	55.355	-40.3071	13.722
  24	1	5	-0.11115	54.861	-41.6507	15.373
  25	1	5	-0.103632	56.4407	-42.1463	13.9742
  26	1	5	-0.110272	58.5179	-40.9253	17.3342
  27	1	5	-0.120305	57.5505	-42.6125	16.3815
  28	1	5	-0.123663	56.4305	-41.3537	17.7313
  29	1	6	0.452517	61.0003	-39.6018	11.4853
  30	1	6	0.453374	61.1931	-41.4722	12.8271
  31	1	7	0.018948	61.6908	-40.783	11.7302
  32	1	8	-0.46698	61.2024	-38.7801	10.6075
  33	1	8	-0.469385	61.6018	-42.5144	13.3099
  34	1	3	-0.126657	66.246	-42.4766	8.62007
  35	1	2	0.020988	54.4892	-37.7267	17.0026
  36	1	6	0.027902	53.0912	-37.2874	17.202
  37	1	8	-0.378193	52.1209	-37.6789	16.5734
  38	1	2	0.043573	55.3085	-37.0025	17.8398
  39	1	6	0.038038	54.4557	-36.0898	18.6509
  40	1	7	0.4913	53.1469	-36.349	18.2323
  41	1	8	-0.382817	54.8392	-35.3206	19.5175
  42	1	2	0.0054	54.9712	-38.766	16.2079
  43	1	2	-0.040988	56.6878	-37.233	17.8633
  44	1	2	-0.085341	56.3557	-39.0822	16.2424
  45	1	4	0.154391	54.2417	-39.3301	15.6394
  46	1	2	-0.205992	57.2037	-38.2648	17.0442
  47	1	4	0.156637	57.3296	-36.6576	18.5275
  48	1	4	0.178085	58.2713	-38.4692	17.0865
  49	1	10	0.05178	63.716	-40.3618	13.4894
  50	1	10	0.015669	63.9898	-38.9413	12.4631
  51	1	10	0.036134	65.3451	-39.9436	13.0039
  52	1	11	0.101096	66.4125	-43.5542	8.73735
  53	1	1	-0.196269	67.4682	-41.7383	9.01278
  54	1	11	0.131285	66.0148	-42.2847	7.56564
  55	1	3	-0.292673	67.62	-41.7796	10.4796
  56	1	3	-0.034798	66.9158	-39.4666	10.6288
  57	1	12	0.194395	68.6118	-41.4143	10.7788
  58	1	12	0.183693	67.4637	-42.7949	10.868
  59	1	2	-0.144532	68.1349	-40.356	7.08294
  60	1	2	0.128587	67.6832	-40.4858	8.41709
  61	1	2	0.222203	68.2826	-39.0696	6.53127
  62	1	2	0.041795	67.4024	-39.3279	9.18411
  63	1	2	-0.461017	67.99	-37.9255	7.28961
  64	1	2	-0.140506	67.5529	-38.0517	8.6179
  65	1	4	0.148448	67.3237	-37.1664	9.20747
  66	1	10	0.055442	68.9567	-42.3638	6.82877
  67	1	10	0.090839	67.5935	-41.993	5.75332
  68	1	3	-0.16304	68.4875	-41.573	6.2298
  69	1	10	0.039719	69.1954	-41.3097	5.43361
  70	1	11	0.077452	67.7086	-39.1344	11.3099
  71	1	11	0.09063	66.0508	-38.8077	10.7749
  72	1	4	0.230266	68.1057	-36.943	6.83983
  73	1	1	-0.247122	47.207	-34.6515	20.1781
  74	1	2	0.139112	46.4213	-35.0561	19.0869
  75	1	2	0.02746	45.3809	-34.254	18.5539
  76	1	3	-0.077297	45.0427	-32.8846	19.1554
  77	1	2	-0.08585	44.6169	-34.7497	17.4676
  78	1	2	-0.195578	44.9137	-36.0019	16.9019
  79	1	4	0.171692	44.3338	-36.3721	16.0584
  80	1	2	-0.199822	45.9466	-36.7887	17.4292
  81	1	4	0.149498	46.1638	-37.7612	16.9952
  82	1	2	0.076729	46.6909	-36.3284	18.5255
  83	1	2	-0.057821	41.5123	-32.9164	16.7776
  84	1	2	-0.076852	40.2665	-32.3283	17.028
  85	1	4	0.145382	39.7555	-32.5777	17.9519
  86	1	2	-0.023498	39.7374	-31.411	16.0826
  87	1	4	0.166076	42.2993	-31.5756	13.75
  88	1	2	-0.140684	41.728	-31.783	14.653
  89	1	2	-0.058922	42.2353	-32.6359	15.6371
  90	1	3	-0.101954	38.3917	-30.659	16.3099
  91	1	2	-0.067123	40.4692	-31.1903	14.8798
  92	1	4	0.142141	40.0718	-30.5248	14.1176
  93	1	3	0.321219	37.2862	-31.5064	15.5752
  94	1	3	0.382784	38.0088	-30.507	17.8338
  95	1	5	-0.111948	37.4666	-31.4997	14.2348
  96	1	5	-0.11115	36.0323	-31.0632	15.819
  97	1	5	-0.103632	37.3167	-32.806	15.9481
  98	1	5	-0.110272	39.0513	-30.0609	18.5712
  99	1	5	-0.120305	37.5875	-31.6573	18.4056
 100	1	5	-0.123663	37.0111	-29.6101	18.0054
 101	1	6	0.452517	43.5401	-33.3459	15.7238
 102	1	6	0.453374	42.3175	-33.8358	17.6219
 103	1	7	0.018948	43.5183	-34.0106	16.9437
 104	1	8	-0.46698	44.4475	-33.2904	14.9114
 105	1	8	-0.469385	41.9875	-34.2943	18.7023
 106	1	3	-0.126657	47.7929	-37.2144	19.1172
 107	1	2	0.020988	37.8542	-27.3241	14.3812
 108	1	6	0.027902	37.1045	-26.5297	13.372
 109	1	8	-0.378193	36.0617	-26.854	12.8284
 110	1	2	0.043573	39.0104	-26.6421	14.6993
 111	1	6	0.038038	39.0543	-25.3868	13.912
 112	1	7	0.4913	37.8997	-25.4086	13.1295
 113	1	8	-0.382817	39.9726	-24.5833	13.8897
 114	1	2	0.0054	37.5885	-28.5993	14.8941
 115	1	2	-0.040988	39.9606	-27.1857	15.5649
 116	1	2	-0.085341	38.5462	-29.2105	15.7502
 117	1	4	0.154391	36.6739	-29.0923	14.5839
 118	1	2	-0.205992	39.7129	-28.4687	16.092
 119	1	4	0.156637	40.8755	-26.642	15.7913
 120	1	4	0.178085	40.4625	-28.9066	16.7482
 121	1	10	0.05178	45.8161	-32.5032	19.8294
 122	1	10	0.015669	44.1142	-32.9335	19.7366
 123	1	10	0.036134	44.9099	-32.1289	18.3714
 124	1	11	0.101096	47.3334	-38.0996	19.5731
 125	1	1	-0.196269	48.5887	-36.49	20.135
 126	1	11	0.131285	48.444	-37.5562	18.303
 127	1	3	-0.292673	47.6947	-35.7449	21.0416
 128	1	3	-0.034798	48.3006	-33.6832	19.9215
 129	1	12	0.194395	48.2495	-35.3564	21.9061
 130	1	12	0.183693	46.8625	-36.3748	21.3844
 131	1	2	-0.144532	50.911	-36.4605	19.3106
 132	1	2	0.128587	49.7184	-35.7936	19.6831
 133	1	2	0.222203	51.9819	-35.7076	18.7572
 134	1	2	0.041795	49.6101	-34.3898	19.5534
 135	1	2	-0.461017	51.8669	-34.3024	18.6629
 136	1	2	-0.140506	50.694	-33.6463	19.066
 137	1	4	0.148448	50.6115	-32.565	18.9759
 138	1	10	0.055442	50.4402	-38.3236	20.3722
 139	1	10	0.090839	50.6727	-38.5253	18.6311
 140	1	3	-0.16304	51.0297	-37.9787	19.5135
 141	1	10	0.039719	52.0622	-38.2922	19.7093
 142	1	11	0.077452	48.4641	-33.0709	20.8168
 143	1	11	0.09063	48.023	-33.01	19.101
 144	1	4	0.230266	52.6956	-33.7185	18.2648
 145	1	1	-0.247122	36.0944	-20.8385	8.88994
 146	1	2	0.139112	34.984	-21.4143	8.25606
 147	1	2	0.02746	34.8891	-21.4999	6.84636
 148	1	3	-0.077297	35.9204	-20.8013	5.95243
 149	1	2	-0.08585	33.8398	-22.2585	6.27382
 150	1	2	-0.195578	32.837	-22.8096	7.09196
 151	1	4	0.171692	32.0227	-23.3803	6.64857
 152	1	2	-0.199822	32.9094	-22.6802	8.48624
 153	1	4	0.149498	32.152	-23.1422	9.11383
 154	1	2	0.076729	34.0023	-22.0251	9.07325
 155	1	2	-0.057821	33.2841	-23.0306	2.71891
 156	1	2	-0.076852	32.6472	-23.122	1.47575
 157	1	4	0.145382	31.6941	-22.619	1.32728
 158	1	2	-0.023498	33.2709	-23.8505	0.426815
 159	1	4	0.166076	36.0728	-24.9056	2.17067
 160	1	2	-0.140684	35.1286	-24.405	1.963
 161	1	2	-0.058922	34.489	-23.657	2.95299
 162	1	3	-0.101954	32.5649	-23.9238	-0.961376
 163	1	2	-0.067123	34.5113	-24.4969	0.701197
 164	1	4	0.142141	35.0221	-25.0849	-0.0516768
 165	1	3	0.321219	33.5065	-24.4254	-2.12198
 166	1	3	0.382784	31.3649	-24.9313	-0.784299
 167	1	5	-0.111948	34.6559	-23.7135	-2.16781
 168	1	5	-0.11115	32.933	-24.2824	-3.33849
 169	1	5	-0.103632	33.8372	-25.732	-2.01149
 170	1	5	-0.110272	30.3727	-24.3951	-0.0390533
 171	1	5	-0.120305	31.7569	-26.0604	-0.150049
 172	1	5	-0.123663	30.8088	-25.3267	-1.95073
 173	1	6	0.452517	34.8789	-23.4108	4.36114
 174	1	6	0.453374	32.8653	-22.3452	3.9732
 175	1	7	0.018948	33.866	-22.6237	4.89782
 176	1	8	-0.46698	35.8705	-23.8536	4.91681
 177	1	8	-0.469385	31.8399	-21.7074	4.14002
 178	1	3	-0.126657	34.1659	-22.0268	10.5984
 179	1	2	0.020988	30.6911	-20.9499	-2.59979
 180	1	6	0.027902	29.7048	-20.4526	-3.59641
 181	1	8	-0.378193	28.9207	-21.1324	-4.23806
 182	1	2	0.043573	31.452	-19.8802	-2.17464
 183	1	6	0.038038	30.9756	-18.6541	-2.85107
 184	1	7	0.4913	29.9684	-19.0865	-3.71187
 185	1	8	-0.382817	31.4732	-17.5433	-2.75894
 186	1	2	0.0054	30.9872	-22.2609	-2.20691
 187	1	2	-0.040988	32.5732	-20.058	-1.36598
 188	1	2	-0.085341	32.1108	-22.4899	-1.36603
 189	1	4	0.154391	30.3835	-23.068	-2.60735
 190	1	2	-0.205992	32.9069	-21.3711	-0.986596
 191	1	4	0.156637	33.1944	-19.2083	-1.0907
 192	1	4	0.178085	33.8175	-21.512	-0.409205
 193	1	10	0.05178	36.7752	-21.4554	5.7433
 194	1	10	0.015669	36.3069	-19.886	6.41733
 195	1	10	0.036134	35.4867	-20.4979	4.99187
 196	1	11	0.101096	33.4256	-21.3496	11.0408
 197	1	1	-0.196269	35.5298	-21.6017	10.9897
 198	1	11	0.131285	33.9669	-23.0376	10.9759
 199	1	3	-0.292673	35.8782	-20.3601	10.2705
 200	1	3	-0.034798	37.3582	-21.6044	8.81899
 201	1	12	0.194395	36.792	-19.9126	10.6848
 202	1	12	0.183693	35.0566	-19.6325	10.3089
 203	1	2	-0.144532	36.6474	-23.5135	12.1021
 204	1	2	0.128587	36.5338	-22.5845	11.0341
 205	1	2	0.222203	37.6831	-24.4829	12.0646
 206	1	2	0.041795	37.4515	-22.6246	9.95556
 207	1	2	-0.461017	38.5677	-24.5216	10.9642
 208	1	2	-0.140506	38.4554	-23.5995	9.91747
 209	1	4	0.148448	39.1517	-23.6299	9.08176
 210	1	10	0.055442	36.2156	-23.6196	14.2487
 211	1	10	0.090839	35.1849	-22.4896	13.3893
 212	1	3	-0.16304	35.6903	-23.459	13.2992
 213	1	10	0.039719	34.9131	-24.2289	13.2109
 214	1	11	0.077452	38.211	-20.9176	8.88076
 215	1	11	0.09063	37.43	-22.141	7.86514
 216	1	4	0.230266	39.3694	-25.2576	10.9385
 217	1	1	-0.247122	26.867	-15.0043	-7.69937
 218	1	2	0.139112	26.0283	-15.7291	-8.55286
 219	1	2	0.02746	25.9459	-15.4594	-9.94132
 220	1	3	-0.077297	26.7469	-14.3223	-10.5859
 221	1	2	-0.08585	25.094	-16.2518	-10.7453
 222	1	2	-0.195578	24.3381	-17.2889	-10.1693
 223	1	4	0.171692	23.6765	-17.89	-10.7898
 224	1	2	-0.199822	24.4296	-17.5548	-8.79414
 225	1	4	0.149498	23.8465	-18.361	-8.35674
 226	1	2	0.076729	25.2758	-16.7832	-7.9828
 227	1	2	-0.057821	24.2724	-15.1116	-14.1357
 228	1	2	-0.076852	23.6181	-14.4056	-15.1507
 229	1	4	0.145382	22.7655	-13.78	-14.8968
 230	1	2	-0.023498	24.0817	-14.5193	-16.4867
 231	1	4	0.166076	26.6829	-16.7368	-15.9037
 232	1	2	-0.140684	25.8344	-16.0851	-15.7029
 233	1	2	-0.058922	25.3505	-15.9293	-14.3993
 234	1	3	-0.101954	23.3242	-13.7461	-17.6069
 235	1	2	-0.067123	25.1903	-15.3786	-16.7418
 236	1	4	0.142141	25.5692	-15.5185	-17.7479
 237	1	3	0.321219	24.1678	-13.5485	-18.9255
 238	1	3	0.382784	22.0444	-14.6061	-17.9383
 239	1	5	-0.111948	25.4044	-13.0659	-18.6674
 240	1	5	-0.11115	23.5815	-12.659	-19.7589
 241	1	5	-0.103632	24.3308	-14.6873	-19.6361
 242	1	5	-0.110272	21.1658	-14.6165	-16.9102
 243	1	5	-0.120305	22.3577	-15.9013	-18.1708
 244	1	5	-0.123663	21.3779	-14.1661	-19.0294
 245	1	6	0.452517	25.812	-16.519	-13.1113
 246	1	6	0.453374	24.0076	-15.1442	-12.6742
 247	1	7	0.018948	24.9654	-15.9963	-12.1402
 248	1	8	-0.46698	26.7599	-17.2706	-12.9586
 249	1	8	-0.469385	23.151	-14.5095	-12.083
 250	1	3	-0.126657	25.3937	-17.0893	-6.48184
 251	1	2	0.020988	21.5104	-10.4429	-16.6384
 252	1	6	0.027902	20.2708	-9.6255	-16.5579
 253	1	8	-0.378193	19.1717	-9.9363	-16.9868
 254	1	2	0.043573	22.5329	-9.74137	-16.0338
 255	1	6	0.038038	21.9992	-8.44397	-15.5506
 256	1	7	0.4913	20.6435	-8.46362	-15.8783
 257	1	8	-0.382817	22.632	-7.56893	-14.9817
 258	1	2	0.0054	21.7118	-11.7193	-17.1779
 259	1	2	-0.040988	23.8175	-10.2776	-15.9288
 260	1	2	-0.085341	22.9982	-12.3174	-17.0718
 261	1	4	0.154391	20.8679	-12.2137	-17.6465
 262	1	2	-0.205992	24.0377	-11.5687	-16.4503
 263	1	4	0.156637	24.6122	-9.71389	-15.4448
 264	1	4	0.178085	25.0339	-11.9962	-16.3586
 265	1	10	0.05178	27.2641	-13.69	-9.85566
 266	1	10	0.015669	26.093	-13.6573	-11.1632
 267	1	10	0.036134	27.5073	-14.7222	-11.2682
 268	1	11	0.101096	24.4341	-16.8729	-5.99723
 269	1	1	-0.196269	26.4629	-16.2908	-5.83396
 270	1	11	0.131285	25.5995	-18.1593	-6.35278
 271	1	3	-0.292673	26.4096	-14.8923	-6.29952
 272	1	3	-0.034798	28.3083	-15.3313	-7.7573
 273	1	12	0.194395	27.0858	-14.2593	-5.70847
 274	1	12	0.183693	25.3869	-14.4947	-6.24935
 275	1	2	-0.144532	28.1315	-17.7763	-4.76833
 276	1	2	0.128587	27.7491	-16.8445	-5.76871
 277	1	2	0.222203	29.4678	-18.2498	-4.75235
 278	1	2	0.041795	28.6903	-16.3981	-6.72853
 279	1	2	-0.461017	30.377	-17.8259	-5.74692
 280	1	2	-0.140506	29.9941	-16.9053	-6.72755
 281	1	4	0.148448	30.7135	-16.559	-7.46679
 282	1	10	0.055442	26.1964	-17.6902	-3.70799
 283	1	10	0.090839	26.9205	-19.2964	-3.77322
 284	1	3	-0.16304	27.1515	-18.2272	-3.67737
 285	1	10	0.039719	27.57	-18.062	-2.67658
 286	1	11	0.077452	28.8971	-14.4255	-7.56868
 287	1	11	0.09063	28.5727	-15.6992	-8.75697
 288	1	4	0.230266	31.4073	-18.1774	-5.72403
 289	1	1	-0.247122	16.1355	-4.40483	-13.517
 290	1	2	0.139112	14.9125	-4.71964	-14.1237
 291	1	2	0.02746	13.9945	-3.72852	-14.5541
 292	1	3	-0.077297	14.2573	-2.23726	-14.3238
 293	1	2	-0.08585	12.7842	-4.13663	-15.1631
 294	1	2	-0.195578	12.4924	-5.50298	-15.3213
 295	1	4	0.171692	11.5535	-5.81095	-15.7779
 296	1	2	-0.199822	13.3967	-6.47766	-14.8818
 297	1	4	0.149498	13.1593	-7.53161	-14.9999
 298	1	2	0.076729	14.6059	-6.09269	-14.2866
 299	1	2	-0.057821	9.83302	-2.10731	-15.9408
 300	1	2	-0.076852	8.5228	-1.62377	-15.8488
 301	1	4	0.145382	7.93983	-1.84456	-14.9582
 302	1	2	-0.023498	7.99307	-0.840746	-16.9083
 303	1	4	0.166076	10.7827	-0.886226	-18.9699
 304	1	2	-0.140684	10.1514	-1.07948	-18.1044
 305	1	2	-0.058922	10.6314	-1.83296	-17.0303
 306	1	3	-0.101954	6.55197	-0.257046	-16.7568
 307	1	2	-0.067123	8.82822	-0.596393	-18.0393
 308	1	4	0.142141	8.4773	-0.0224417	-18.8888
 309	1	3	0.321219	6.1548	0.742231	-17.9088
 310	1	3	0.382784	5.5528	-1.4831	-16.7688
 311	1	5	-0.111948	7.04767	1.75171	-18.0255
 312	1	5	-0.11115	4.96475	1.34177	-17.6789
 313	1	5	-0.103632	6.05839	0.134445	-19.1134
 314	1	5	-0.110272	5.59307	-2.18299	-15.6131
 315	1	5	-0.120305	5.85425	-2.35462	-17.758
 316	1	5	-0.123663	4.25965	-1.13545	-16.9531
 317	1	6	0.452517	11.9398	-2.51323	-16.8355
 318	1	6	0.453374	10.5973	-2.98343	-15.015
 319	1	7	0.018948	11.823	-3.1988	-15.6328
 320	1	8	-0.46698	12.8836	-2.49829	-17.6075
 321	1	8	-0.469385	10.1842	-3.46473	-13.974
 322	1	3	-0.126657	15.584	-7.16798	-13.7982
 323	1	2	0.020988	5.34348	1.46631	-13.4995
 324	1	6	0.027902	4.25565	1.79329	-12.542
 325	1	8	-0.378193	3.09423	1.42631	-12.6118
 326	1	2	0.043573	6.49441	2.10079	-13.0779
 327	1	6	0.038038	6.20101	2.85007	-11.8325
 328	1	7	0.4913	4.85075	2.6173	-11.5861
 329	1	8	-0.382817	6.98484	3.53246	-11.1929
 330	1	2	0.0054	5.31329	0.693544	-14.6669
 331	1	2	-0.040988	7.67749	2.01956	-13.8112
 332	1	2	-0.085341	6.5039	0.558645	-15.4315
 333	1	4	0.154391	4.37467	0.234963	-14.9601
 334	1	2	-0.205992	7.66702	1.25732	-14.9956
 335	1	4	0.156637	8.56868	2.54657	-13.478
 336	1	4	0.178085	8.58267	1.22355	-15.5811
 337	1	10	0.05178	15.1814	-2.04306	-13.768
 338	1	10	0.015669	13.4414	-1.78687	-13.7444
 339	1	10	0.036134	14.3314	-1.69721	-15.2753
 340	1	11	0.101096	15.1123	-7.74028	-12.9908
 341	1	1	-0.196269	16.8547	-6.58092	-13.3131
 342	1	11	0.131285	15.7855	-7.86073	-14.6254
 343	1	3	-0.292673	16.5949	-5.37509	-12.5042
 344	1	3	-0.034798	17.2547	-4.00272	-14.4039
 345	1	12	0.194395	17.5126	-5.03246	-12.0072
 346	1	12	0.183693	15.8118	-5.56255	-11.7569
 347	1	2	-0.144532	18.7168	-7.57657	-14.5815
 348	1	2	0.128587	17.9007	-6.47052	-14.2371
 349	1	2	0.222203	19.7506	-7.40041	-15.5387
 350	1	2	0.041795	18.1188	-5.20121	-14.8205
 351	1	2	-0.461017	19.9441	-6.12895	-16.1257
 352	1	2	-0.140506	19.1377	-5.03714	-15.7692
 353	1	4	0.148448	19.3088	-4.06004	-16.2163
 354	1	10	0.055442	19.4044	-9.53605	-13.8335
 355	1	10	0.090839	18.1423	-8.80921	-12.8606
 356	1	3	-0.16304	18.4924	-8.93094	-13.8938
 357	1	10	0.039719	17.7369	-9.51808	-14.4313
 358	1	11	0.077452	17.8874	-3.27517	-13.8807
 359	1	11	0.09063	16.8639	-3.51544	-15.3063
 360	1	4	0.230266	20.7514	-5.98332	-16.8418
 361	1	1	-0.247122	1.26065	4.07638	-6.45983
 362	1	2	0.139112	0.114522	3.40097	-6.92394
 363	1	2	0.02746	-1.1339	4.05096	-7.10946
 364	1	3	-0.077297	-1.34336	5.51075	-6.69798
 365	1	2	-0.08585	-2.19146	3.34336	-7.72868
 366	1	2	-0.195578	-2.0425	1.98599	-8.06127
 367	1	4	0.171692	-2.85656	1.44791	-8.54308
 368	1	2	-0.199822	-0.820318	1.3376	-7.85263
 369	1	4	0.149498	-0.695788	0.303286	-8.16203
 370	1	2	0.076729	0.26755	2.05061	-7.33131
 371	1	2	-0.057821	-5.50505	4.78721	-8.41032
 372	1	2	-0.076852	-6.85693	5.11214	-8.23328
 373	1	4	0.145382	-7.28686	4.99422	-7.24429
 374	1	2	-0.023498	-7.61294	5.54547	-9.35754
 375	1	4	0.166076	-5.11111	5.35343	-11.7471
 376	1	2	-0.140684	-5.59783	5.30646	-10.7748
 377	1	2	-0.058922	-4.89526	4.88598	-9.64383
 378	1	3	-0.101954	-9.13378	5.87787	-9.29126
 379	1	2	-0.067123	-6.95876	5.6267	-10.6193
 380	1	4	0.142141	-7.51642	5.93779	-11.4991
 381	1	3	0.321219	-9.87381	4.64579	-9.94124
 382	1	3	0.382784	-9.66848	6.09873	-7.82558
 383	1	5	-0.111948	-9.71354	4.61935	-11.2837
 384	1	5	-0.11115	-11.2044	4.62483	-9.70651
 385	1	5	-0.103632	-9.38674	3.47347	-9.47361
 386	1	5	-0.110272	-8.91971	7.00477	-7.1565
 387	1	5	-0.120305	-9.68825	4.96299	-7.09221
 388	1	5	-0.123663	-10.9323	6.58186	-7.81755
 389	1	6	0.452517	-3.49888	4.40405	-9.51606
 390	1	6	0.453374	-4.51346	4.22707	-7.44835
 391	1	7	0.018948	-3.36141	4.00552	-8.19329
 392	1	8	-0.46698	-2.67952	4.33058	-10.4158
 393	1	8	-0.469385	-4.70736	3.97713	-6.27137
 394	1	3	-0.126657	1.64699	1.38768	-7.30187
 395	1	2	0.020988	-10.7779	8.73904	-11.3297
 396	1	6	0.027902	-12.0009	9.34552	-11.9221
 397	1	8	-0.378193	-13.0802	8.79817	-12.0772
 398	1	2	0.043573	-9.80419	9.71491	-11.2551
 399	1	6	0.038038	-10.3476	10.9775	-11.7995
 400	1	7	0.4913	-11.6747	10.6892	-12.1081
 401	1	8	-0.382817	-9.79335	12.0648	-11.7788
 402	1	2	0.0054	-10.5968	7.48093	-10.742
 403	1	2	-0.040988	-8.60405	9.50078	-10.5794
 404	1	2	-0.085341	-9.38207	7.21259	-10.0528
 405	1	4	0.154391	-11.4164	6.77109	-10.7781
 406	1	2	-0.205992	-8.40842	8.24822	-9.9696
 407	1	4	0.156637	-7.87724	10.3042	-10.4801
 408	1	4	0.178085	-7.49654	8.10141	-9.39457
 409	1	10	0.05178	-1.25613	6.17877	-7.5634
 410	1	10	0.015669	-0.618347	5.8382	-5.94314
 411	1	10	0.036134	-2.33434	5.66289	-6.25411
 412	1	11	0.101096	1.68798	0.660775	-6.48199
 413	1	1	-0.196269	2.70324	2.40801	-7.13212
 414	1	11	0.131285	1.79456	0.844743	-8.24348
 415	1	3	-0.292673	2.36263	3.23005	-5.95234
 416	1	3	-0.034798	1.84058	5.10589	-7.3473
 417	1	12	0.194395	3.22407	3.83486	-5.63807
 418	1	12	0.183693	2.02342	2.60618	-5.1144
 419	1	2	-0.144532	3.86352	2.48337	-9.32239
 420	1	2	0.128587	3.11732	3.10255	-8.28607
 421	1	2	0.222203	4.14409	3.21508	-10.5035
 422	1	2	0.041795	2.69489	4.44825	-8.4304
 423	1	2	-0.461017	3.72331	4.5572	-10.6215
 424	1	2	-0.140506	3.00884	5.1735	-9.58719
 425	1	4	0.148448	2.67395	6.20382	-9.68929
 426	1	10	0.055442	5.43683	0.972416	-9.47187
 427	1	10	0.090839	4.31322	0.664848	-8.16137
 428	1	3	-0.16304	4.37914	1.04479	-9.18802
 429	1	10	0.039719	3.80985	0.362532	-9.83219
 430	1	11	0.077452	2.46225	5.79538	-6.76288
 431	1	11	0.09063	1.05275	5.6935	-7.83057
 432	1	4	0.230266	3.94913	5.12035	-11.5252
 433	1	1	-0.247122	-15.3442	15.9305	-11.2642
 434	1	2	0.139112	-16.7011	15.6177	-11.144
 435	1	2	0.02746	-17.7041	16.3943	-11.7677
 436	1	3	-0.077297	-17.3419	17.7016	-12.4785
 437	1	2	-0.08585	-19.0437	15.9454	-11.7149
 438	1	2	-0.195578	-19.3745	14.7799	-10.9994
 439	1	4	0.171692	-20.4075	14.4391	-10.9594
 440	1	2	-0.199822	-18.38	14.0396	-10.3465
 441	1	4	0.149498	-18.6421	13.1353	-9.80363
 442	1	2	0.076729	-17.0412	14.4462	-10.4283
 443	1	2	-0.057821	-22.0941	17.5446	-12.9615
 444	1	2	-0.076852	-23.3896	18.0732	-12.9317
 445	1	4	0.145382	-23.8341	18.3425	-11.9758
 446	1	2	-0.023498	-24.1006	18.2354	-14.1496
 447	1	4	0.166076	-21.7149	16.9016	-16.2817
 448	1	2	-0.140684	-22.176	17.2553	-15.3612
 449	1	2	-0.058922	-21.5056	17.1412	-14.1414
 450	1	3	-0.101954	-25.5606	18.7793	-14.1039
 451	1	2	-0.067123	-23.4724	17.8067	-15.3556
 452	1	4	0.142141	-23.9822	17.8666	-16.3095
 453	1	3	0.321219	-26.0869	19.2786	-15.5023
 454	1	3	0.382784	-26.4504	17.5735	-13.6021
 455	1	5	-0.111948	-25.2132	20.1364	-16.076
 456	1	5	-0.11115	-27.2565	19.9499	-15.3975
 457	1	5	-0.103632	-26.3111	18.2698	-16.3747
 458	1	5	-0.110272	-26.3114	17.3756	-12.2711
 459	1	5	-0.120305	-26.1031	16.411	-14.2
 460	1	5	-0.123663	-27.7717	17.7336	-13.8404
 461	1	6	0.452517	-20.1881	16.5329	-13.824
 462	1	6	0.453374	-21.1658	17.2222	-11.8465
 463	1	7	0.018948	-20.0787	16.5948	-12.4405
 464	1	8	-0.46698	-19.4198	16.0204	-14.6203
 465	1	8	-0.469385	-21.3641	17.4218	-10.6606
 466	1	3	-0.126657	-15.9458	13.6054	-9.76487
 467	1	2	0.020988	-26.8665	21.4237	-11.6178
 468	1	6	0.027902	-27.9979	21.9496	-10.8306
 469	1	8	-0.378193	-29.1296	21.4933	-10.8012
 470	1	2	0.043573	-25.765	22.2262	-11.4108
 471	1	6	0.038038	-26.1425	23.3004	-10.4514
 472	1	7	0.4913	-27.4852	23.0571	-10.1608
 473	1	8	-0.382817	-25.4183	24.1824	-10.0194
 474	1	2	0.0054	-26.836	20.3182	-12.464
 475	1	2	-0.040988	-24.5672	21.9812	-12.0882
 476	1	2	-0.085341	-25.6337	20.0053	-13.1452
 477	1	4	0.154391	-27.7473	19.7432	-12.5821
 478	1	2	-0.205992	-24.521	20.8811	-12.9749
 479	1	4	0.156637	-23.7084	22.6329	-11.9412
 480	1	4	0.178085	-23.6005	20.7105	-13.5289
 481	1	10	0.05178	-18.1541	18.4359	-12.4215
 482	1	10	0.015669	-17.1151	17.5264	-13.5368
 483	1	10	0.036134	-16.4664	18.1813	-12.0229
 484	1	11	0.101096	-16.0651	13.6518	-8.67604
 485	1	1	-0.196269	-14.5913	14.0747	-10.1385
 486	1	11	0.131285	-16.0724	12.5593	-10.0723
 487	1	3	-0.292673	-14.5103	15.5455	-10.1097
 488	1	3	-0.034798	-14.6985	15.5519	-12.5462
 489	1	12	0.194395	-13.4721	15.8817	-10.2382
 490	1	12	0.183693	-14.9209	15.9464	-9.17329
 491	1	2	-0.144532	-13.2942	12.2455	-11.1412
 492	1	2	0.128587	-13.9883	13.4724	-11.2463
 493	1	2	0.222203	-12.6192	11.7404	-12.28
 494	1	2	0.041795	-14.039	14.1681	-12.4762
 495	1	2	-0.461017	-12.7274	12.4086	-13.5201
 496	1	2	-0.140506	-13.4452	13.6117	-13.6198
 497	1	4	0.148448	-13.4946	14.1449	-14.5673
 498	1	10	0.055442	-12.1489	11.3962	-9.47668
 499	1	10	0.090839	-13.7176	12.0073	-8.97902
 500	1	3	-0.16304	-13.1922	11.504	-9.79815
 501	1	10	0.039719	-13.6273	10.4993	-9.87614
 502	1	11	0.077452	-13.9358	16.297	-12.8025
 503	1	11	0.09063	-15.4413	15.5461	-13.3544
 504	1	4	0.230266	-12.199	12.0269	-14.3917
 505	1	1	-0.247122	-32.0059	24.9975	-6.05147
 506	1	2	0.139112	-33.0532	24.1749	-6.5007
 507	1	2	0.02746	-34.3568	24.6742	-6.74517
 508	1	3	-0.077297	-34.656	26.1571	-6.49672
 509	1	2	-0.08585	-35.3559	23.788	-7.22572
 510	1	2	-0.195578	-35.0514	22.4305	-7.43924
 511	1	4	0.171692	-35.8154	21.7512	-7.81332
 512	1	2	-0.199822	-33.7631	21.9409	-7.18623
 513	1	4	0.149498	-33.5359	20.8923	-7.36121
 514	1	2	0.076729	-32.7623	22.8075	-6.7253
 515	1	2	-0.057821	-38.8625	24.9003	-7.28001
 516	1	2	-0.076852	-40.1161	25.3013	-6.80209
 517	1	4	0.145382	-40.2633	25.4219	-5.73133
 518	1	2	-0.023498	-41.1708	25.5289	-7.72422
 519	1	4	0.166076	-39.4259	24.8103	-10.6339
 520	1	2	-0.140684	-39.6247	24.9548	-9.57331
 521	1	2	-0.058922	-38.6193	24.7381	-8.6269
 522	1	3	-0.101954	-42.5744	25.9229	-7.17065
 523	1	2	-0.067123	-40.8996	25.3428	-9.11199
 524	1	4	0.142141	-41.6691	25.4869	-9.86136
 525	1	3	0.321219	-43.5817	26.4088	-8.28142
 526	1	3	0.382784	-43.1562	24.6275	-6.47695
 527	1	5	-0.111948	-43.0578	27.405	-9.03155
 528	1	5	-0.11115	-44.7184	26.9107	-7.74706
 529	1	5	-0.103632	-43.9568	25.4189	-9.12301
 530	1	5	-0.110272	-42.5255	24.3516	-5.313
 531	1	5	-0.120305	-43.0047	23.5357	-7.26046
 532	1	5	-0.123663	-44.4752	24.7086	-6.19147
 533	1	6	0.452517	-37.2076	24.3007	-8.7984
 534	1	6	0.453374	-37.6194	24.5569	-6.54078
 535	1	7	0.018948	-36.6827	24.2232	-7.5132
 536	1	8	-0.46698	-36.6563	24.0479	-9.85607
 537	1	8	-0.469385	-37.4759	24.5695	-5.33021
 538	1	3	-0.126657	-31.3444	22.2744	-6.49576
 539	1	2	0.020988	-43.0148	28.3954	-4.22209
 540	1	6	0.027902	-43.73	28.7949	-2.98674
 541	1	8	-0.378193	-44.6012	28.1587	-2.41637
 542	1	2	0.043573	-42.1199	29.3923	-4.55271
 543	1	6	0.038038	-42.2239	30.4768	-3.54292
 544	1	7	0.4913	-43.2083	30.0444	-2.65636
 545	1	8	-0.382817	-41.5997	31.5253	-3.53337
 546	1	2	0.0054	-43.185	27.2598	-5.01845
 547	1	2	-0.040988	-41.3395	29.3073	-5.70743
 548	1	2	-0.085341	-42.4004	27.1215	-6.19387
 549	1	4	0.154391	-43.9327	26.5333	-4.72005
 550	1	2	-0.205992	-41.4911	28.1668	-6.52411
 551	1	4	0.156637	-40.6564	30.1121	-5.97039
 552	1	4	0.178085	-40.9073	28.111	-7.4404
 553	1	10	0.05178	-34.3535	26.7647	-7.35732
 554	1	10	0.015669	-34.1168	26.5299	-5.61696
 555	1	10	0.036134	-35.7131	26.3623	-6.30819
 556	1	11	0.101096	-31.3484	21.577	-5.65
 557	1	1	-0.196269	-30.3896	23.3765	-6.23367
 558	1	11	0.131285	-31.0377	21.7161	-7.38953
 559	1	3	-0.292673	-30.9625	24.32	-5.25697
 560	1	3	-0.034798	-31.3745	25.9123	-7.03174
 561	1	12	0.194395	-30.2011	25.0298	-4.90643
 562	1	12	0.183693	-31.4013	23.7883	-4.40202
 563	1	2	-0.144532	-28.7755	23.267	-8.08294
 564	1	2	0.128587	-29.7686	23.9548	-7.34911
 565	1	2	0.222203	-28.2927	23.8357	-9.28591
 566	1	2	0.041795	-30.2345	25.2185	-7.78432
 567	1	2	-0.461017	-28.7331	25.1159	-9.68923
 568	1	2	-0.140506	-29.6917	25.81	-8.9351
 569	1	4	0.148448	-30.0531	26.7813	-9.26739
 570	1	10	0.055442	-27.1896	21.7677	-7.83719
 571	1	10	0.090839	-28.3418	21.7905	-6.51583
 572	1	3	-0.16304	-28.2527	21.9051	-7.60337
 573	1	10	0.039719	-28.8092	21.0826	-8.06991
 574	1	11	0.077452	-30.9812	26.7947	-6.51253
 575	1	11	0.09063	-32.1165	26.2559	-7.76215
 576	1	4	0.230266	-28.3572	25.5527	-10.6132
 577	1	1	-0.247122	-45.4169	32.3225	2.93585
 578	1	2	0.139112	-46.351	31.2948	3.16415
 579	1	2	0.02746	-47.7141	31.5598	3.44309
 580	1	3	-0.077297	-48.2174	32.9992	3.59548
 581	1	2	-0.08585	-48.6191	30.4779	3.57149
 582	1	2	-0.195578	-48.1618	29.1523	3.46452
 583	1	4	0.171692	-48.8598	28.3223	3.55781
 584	1	2	-0.199822	-46.8085	28.892	3.20499
 585	1	4	0.149498	-46.463	27.8665	3.10146
 586	1	2	0.076729	-45.9074	29.9549	3.03824
 587	1	2	-0.057821	-52.1177	31.0214	4.59049
 588	1	2	-0.076852	-53.2687	31.0821	5.39233
 589	1	4	0.145382	-53.2186	30.7461	6.42559
 590	1	2	-0.023498	-54.4855	31.5536	4.82594
 591	1	4	0.166076	-53.3003	32.237	1.63957
 592	1	2	-0.140684	-53.2996	31.9251	2.68241
 593	1	2	-0.058922	-52.1383	31.4326	3.27435
 594	1	3	-0.101954	-55.7996	31.494	5.66935
 595	1	2	-0.067123	-54.4683	31.9726	3.46196
 596	1	4	0.142141	-55.3598	32.3262	2.96031
 597	1	3	0.321219	-57.0247	32.194	4.95645
 598	1	3	0.382784	-56.1193	29.9578	5.85919
 599	1	5	-0.111948	-56.7348	33.4735	4.62527
 600	1	5	-0.11115	-58.1228	32.2688	5.74205
 601	1	5	-0.103632	-57.4202	31.5494	3.83527
 602	1	5	-0.110272	-55.3121	29.3918	6.78406
 603	1	5	-0.120305	-55.9375	29.2688	4.70906
 604	1	5	-0.123663	-57.3875	29.6994	6.24722
 605	1	6	0.452517	-50.7897	31.2395	2.6917
 606	1	6	0.453374	-50.739	30.5385	4.89279
 607	1	7	0.018948	-50.0144	30.7195	3.71827
 608	1	8	-0.46698	-50.4496	31.5253	1.55581
 609	1	8	-0.469385	-50.3462	30.0924	5.957
 610	1	3	-0.126657	-44.4489	29.6648	2.67203
 611	1	2	0.020988	-56.5173	32.8354	9.20136
 612	1	6	0.027902	-57.4954	32.8987	10.3059
 613	1	8	-0.378193	-58.4564	32.1588	10.4457
 614	1	2	0.043573	-55.6495	33.8992	9.31062
 615	1	6	0.038038	-56.0327	34.6927	10.5129
 616	1	7	0.4913	-57.149	34.0336	11.0399
 617	1	8	-0.382817	-55.5467	35.7581	10.8577
 618	1	2	0.0054	-56.5218	31.9896	8.09395
 619	1	2	-0.040988	-54.7094	34.1572	8.30684
 620	1	2	-0.085341	-55.6245	32.2408	7.02501
 621	1	4	0.154391	-57.2959	31.2325	8.04251
 622	1	2	-0.205992	-54.7116	33.3267	7.16117
 623	1	4	0.156637	-54.0488	35.0183	8.38251
 624	1	4	0.178085	-54.0373	33.5822	6.34756
 625	1	10	0.05178	-47.4193	33.6877	3.89624
 626	1	10	0.015669	-48.9959	33.0776	4.36387
 627	1	10	0.036134	-48.6387	33.3671	2.65161
 628	1	11	0.101096	-43.9217	29.2913	3.55823