pySIMM System Object

1154 atoms
1281 bonds
2304 angles
3548 dihedrals
320 impropers

12 atom types
15 bond types
28 angle types
9 dihedral types
4 improper types

-162.478370 162.478370 xlo xhi
-162.478370 162.478370 ylo yhi
-162.478370 162.478370 zlo zhi

Masses

   1	14.01	# nh
   2	12.01	# ca
   3	12.01	# c3
   4	1.008	# ha
   5	19.0	# f
   6	12.01	# c
   7	14.01	# n
   8	16.0	# o
   9	1.008	# hn
  10	1.008	# hc
  11	1.008	# h1
  12	1.008	# h2

Pair Coeffs

   1	0.17	3.249998523775958	# nh
   2	0.086	3.3996695084235347	# ca
   3	0.1094	3.3996695084235347	# c3
   4	0.015	2.59964245953351	# ha
   5	0.061	3.1181455134911875	# f
   6	0.086	3.3996695084235347	# c
   7	0.17	3.249998523775958	# n
   8	0.21	2.959921901149463	# o
   9	0.0157	1.069078461768407	# hn
  10	0.0157	2.649532787749369	# hc
  11	0.0157	2.471353044121301	# h1
  12	0.0157	2.2931733004932333	# h2

Bond Coeffs

   1	356.9	1.3497	# c3,f
   2	403.2	1.0129	# hn,n
   3	417.9	1.3859	# ca,nh
   4	300.9	1.5375	# c3,c3
   5	384.2	1.4121	# ca,n
   6	330.6	1.0969	# c3,h1
   7	461.1	1.3984	# ca,ca
   8	326.6	1.464	# c3,nh
   9	427.6	1.3789	# c,n
  10	331.7	1.0961	# c3,h2
  11	345.9	1.4906	# c,ca
  12	345.8	1.086	# ca,ha
  13	321.0	1.5156	# c3,ca
  14	330.6	1.0969	# c3,hc
  15	637.7	1.2183	# c,o

Angle Coeffs

   1	71.11	105.87	# nh,c3,nh
   2	63.25	114.51	# c3,nh,c3
   3	74.22	123.05	# n,c,o
   4	66.62	120.02	# ca,ca,ca
   5	68.29	120.95	# ca,ca,nh
   6	49.52	110.01	# h2,c3,nh
   7	68.72	122.6	# ca,c,o
   8	49.57	109.79	# h1,c3,nh
   9	67.68	115.25	# ca,c,n
  10	66.46	111.39	# ca,c3,nh
  11	48.33	117.55	# c,n,hn
  12	64.28	120.33	# c,ca,ca
  13	39.4	107.58	# hc,c3,hc
  14	63.53	120.77	# c3,ca,ca
  15	70.89	107.36	# f,c3,f
  16	67.87	120.19	# ca,ca,n
  17	46.8	110.47	# ca,c3,hc
  18	46.99	109.56	# ca,c3,h1
  19	62.86	111.51	# c3,c3,c3
  20	66.11	109.24	# c3,c3,f
  21	63.15	112.07	# c3,c3,ca
  22	38.96	110.2	# h2,c3,h2
  23	63.82	123.71	# c,n,ca
  24	39.24	108.46	# h1,c3,h1
  25	63.56	112.24	# ca,c3,ca
  26	63.39	119.98	# c3,nh,ca
  27	63.74	127.08	# c,n,c
  28	48.18	119.88	# ca,ca,ha

Dihedral Coeffs

   1	2	2.5	2	180	2.0	1	0	# hn,n,c,o
   2	1	0.0	2	0	# X,c3,nh,X
   3	1	3.625	2	180	# X,ca,ca,X
   4	1	0.0	2	0	# X,c3,ca,X
   5	1	1.0	2	180	# X,c,ca,X
   6	1	0.15555555555555556	3	0	# X,c3,c3,X
   7	1	2.5	2	180	# X,c,n,X
   8	1	0.45	2	180	# X,ca,n,X
   9	1	1.05	2	180	# X,ca,nh,X

Improper Coeffs

   1	10.5	-1	2	# c,X,X,o
   2	1.1	-1	2	# n,X,X,hn
   3	1.1	-1	2	# ca,ca,ca,c3
   4	1.1	-1	2	# ca,X,X,ha

Atoms

   1	1	1	-0.247122	66.5335	18.2267	-55.9441
   2	1	2	0.139112	67.2843	18.6056	-57.0632
   3	1	2	0.02746	66.9047	18.2678	-58.385
   4	1	3	-0.077297	65.614	17.4912	-58.6692
   5	1	2	-0.08585	67.7655	18.6078	-59.4565
   6	1	2	-0.195578	68.9669	19.297	-59.211
   7	1	4	0.171692	69.6299	19.5495	-60.0363
   8	1	2	-0.199822	69.3253	19.6493	-57.9004
   9	1	4	0.149498	70.2583	20.1749	-57.7153
  10	1	2	0.076729	68.4927	19.3015	-56.8248
  11	1	2	-0.057821	67.0554	16.9035	-62.6279
  12	1	2	-0.076852	66.9408	15.8417	-63.5363
  13	1	4	0.145382	67.4753	14.9233	-63.3175
  14	1	2	-0.023498	66.1077	15.9956	-64.6788
  15	1	4	0.166076	65.0647	19.2494	-64.0808
  16	1	2	-0.140684	65.5901	18.3061	-63.9433
  17	1	2	-0.058922	66.3999	18.1011	-62.8227
  18	1	3	-0.101954	65.8651	14.8594	-65.7223
  19	1	2	-0.067123	65.451	17.2457	-64.8622
  20	1	4	0.142141	64.801	17.392	-65.721
  21	1	3	0.321219	66.6347	15.2802	-67.0333
  22	1	3	0.382784	66.3841	13.446	-65.2503
  23	1	5	-0.111948	66.0439	16.328	-67.6502
  24	1	5	-0.11115	66.7226	14.2896	-67.9488
  25	1	5	-0.103632	67.9024	15.6637	-66.7594
  26	1	5	-0.110272	65.9032	13.1122	-64.0306
  27	1	5	-0.120305	67.7324	13.3719	-65.1851
  28	1	5	-0.123663	65.9805	12.4596	-66.0837
  29	1	6	0.452517	66.6614	18.977	-61.6479
  30	1	6	0.453374	67.7577	16.9706	-61.3174
  31	1	7	0.018948	67.4455	18.2178	-60.7887
  32	1	8	-0.46698	66.1891	20.0841	-61.4543
  33	1	8	-0.469385	68.379	16.0654	-60.7874
  34	1	3	-0.126657	68.9049	19.653	-55.3875
  35	1	2	0.020988	62.3471	14.2012	-67.2482
  36	1	6	0.027902	61.4573	13.9146	-68.4122
  37	1	8	-0.378193	61.7888	13.8422	-69.5838
  38	1	2	0.043573	61.5667	14.2355	-66.1099
  39	1	6	0.038038	60.1631	13.9629	-66.4815
  40	1	7	0.4913	60.1796	13.7944	-67.8635
  41	1	8	-0.382817	59.206	13.9443	-65.7235
  42	1	2	0.0054	63.7311	14.422	-67.187
  43	1	2	-0.040988	62.1076	14.5056	-64.8544
  44	1	2	-0.085341	64.3292	14.6962	-65.9233
  45	1	4	0.154391	64.3044	14.3599	-68.1058
  46	1	2	-0.205992	63.4933	14.7312	-64.7723
  47	1	4	0.156637	61.4703	14.5264	-63.9729
  48	1	4	0.178085	63.9221	14.913	-63.7892
  49	1	10	0.05178	65.8417	16.4612	-58.9699
  50	1	10	0.015669	65.0382	17.9595	-59.477
  51	1	10	0.036134	64.9443	17.4338	-57.805
  52	1	11	0.101096	69.8788	19.1975	-55.1727
  53	1	1	-0.196269	67.9146	19.1919	-54.3815
  54	1	11	0.131285	69.0221	20.7417	-55.3185
  55	1	3	-0.292673	67.3414	17.8862	-54.7567
  56	1	3	-0.034798	65.3569	19.0571	-55.5791
  57	1	12	0.194395	66.7126	17.4882	-53.9488
  58	1	12	0.183693	68.1304	17.1645	-55.0079
  59	1	2	-0.144532	67.2748	21.0321	-52.8788
  60	1	2	0.128587	66.9742	20.1154	-53.9113
  61	1	2	0.222203	66.2617	21.8895	-52.409
  62	1	2	0.041795	65.676	20.0708	-54.4718
  63	1	2	-0.461017	64.9719	21.842	-52.9618
  64	1	2	-0.140506	64.6777	20.9372	-53.9958
  65	1	4	0.148448	63.6769	20.8965	-54.4204
  66	1	10	0.055442	68.8753	20.1211	-51.7242
  67	1	10	0.090839	69.4425	21.2449	-52.9723
  68	1	3	-0.16304	68.6559	21.0706	-52.2287
  69	1	10	0.039719	68.7305	21.8687	-51.4797
  70	1	11	0.077452	64.5441	18.4037	-55.2404
  71	1	11	0.09063	64.9981	19.6044	-56.46
  72	1	4	0.230266	64.2023	22.5059	-52.5765
  73	1	1	-0.247122	54.1884	12.0051	-68.9968
  74	1	2	0.139112	53.6776	11.3996	-70.1379
  75	1	2	0.02746	52.3192	11.5218	-70.4979
  76	1	3	-0.077297	51.3579	12.3803	-69.6655
  77	1	2	-0.08585	51.8349	10.7652	-71.5879
  78	1	2	-0.195578	52.7141	9.96545	-72.3431
  79	1	4	0.171692	52.3332	9.37229	-73.172
  80	1	2	-0.199822	54.0753	9.88386	-71.9963
  81	1	4	0.149498	54.7433	9.24277	-72.5656
  82	1	2	0.076729	54.5585	10.5793	-70.8745
  83	1	2	-0.057821	48.2408	10.2492	-71.3111
  84	1	2	-0.076852	47.0524	9.78176	-70.7435
  85	1	4	0.145382	47.0941	8.93091	-70.0679
  86	1	2	-0.023498	45.8329	10.4332	-71.0577
  87	1	4	0.166076	47.1041	12.7937	-73.2595
  88	1	2	-0.140684	47.0825	11.9594	-72.5608
  89	1	2	-0.058922	48.2641	11.3058	-72.196
  90	1	3	-0.101954	44.4995	9.88704	-70.4689
  91	1	2	-0.067123	45.8717	11.5139	-71.9871
  92	1	4	0.142141	44.9608	12.0172	-72.2909
  93	1	3	0.321219	43.414	11.0098	-70.2459
  94	1	3	0.382784	43.9681	8.85448	-71.5377
  95	1	5	-0.111948	43.942	12.0963	-69.6395
  96	1	5	-0.11115	42.4092	10.5728	-69.4528
  97	1	5	-0.103632	42.8291	11.4445	-71.3847
  98	1	5	-0.110272	44.7885	7.78356	-71.6431
  99	1	5	-0.120305	43.9078	9.38614	-72.7803
 100	1	5	-0.123663	42.7251	8.39858	-71.2613
 101	1	6	0.452517	49.6851	11.584	-72.5516
 102	1	6	0.453374	49.636	9.81853	-71.0605
 103	1	7	0.018948	50.4315	10.6819	-71.8018
 104	1	8	-0.46698	50.0907	12.4941	-73.2539
 105	1	8	-0.469385	49.9907	8.98138	-70.2478
 106	1	3	-0.126657	56.0165	10.4169	-70.4008
 107	1	2	0.020988	45.7672	9.4015	-66.8327
 108	1	6	0.027902	46.5174	9.9109	-65.6441
 109	1	8	-0.378193	47.0298	11.0117	-65.5266
 110	1	2	0.043573	45.3615	8.11278	-66.5554
 111	1	6	0.038038	45.8284	7.73684	-65.2041
 112	1	7	0.4913	46.5051	8.8567	-64.7243
 113	1	8	-0.382817	45.666	6.65453	-64.6632
 114	1	2	0.0054	45.4843	9.99741	-68.0738
 115	1	2	-0.040988	44.6432	7.35588	-67.4778
 116	1	2	-0.085341	44.7779	9.25207	-69.0636
 117	1	4	0.154391	45.8341	11.0079	-68.2695
 118	1	2	-0.205992	44.3495	7.93514	-68.7257
 119	1	4	0.156637	44.3325	6.34258	-67.2324
 120	1	4	0.178085	43.7888	7.32026	-69.42
 121	1	10	0.05178	50.7515	11.7531	-69.0007
 122	1	10	0.015669	50.6769	12.9541	-70.3055
 123	1	10	0.036134	51.8741	13.1157	-69.0388
 124	1	11	0.101096	56.2366	9.34722	-70.3016
 125	1	1	-0.196269	56.2964	11.092	-69.0983
 126	1	11	0.131285	56.6811	10.8196	-71.1751
 127	1	3	-0.292673	55.1046	11.1346	-68.233
 128	1	3	-0.034798	54.686	13.3948	-69.156
 129	1	12	0.194395	55.3433	11.5729	-67.254
 130	1	12	0.183693	54.6797	10.1304	-68.0983
 131	1	2	-0.144532	58.3717	12.3759	-68.7931
 132	1	2	0.128587	56.9913	12.3053	-69.0973
 133	1	2	0.222203	58.9582	13.6508	-68.582
 134	1	2	0.041795	56.2141	13.4832	-69.1657
 135	1	2	-0.461017	58.198	14.8203	-68.8074
 136	1	2	-0.140506	56.8299	14.7384	-69.096
 137	1	4	0.148448	56.2262	15.6417	-69.1556
 138	1	10	0.055442	58.6533	10.4359	-67.8332
 139	1	10	0.090839	59.2363	10.51	-69.5022
 140	1	3	-0.16304	59.1575	11.0787	-68.5665
 141	1	10	0.039719	60.1787	11.2407	-68.2039
 142	1	11	0.077452	54.3056	14.0031	-68.3264
 143	1	11	0.09063	54.302	13.8299	-70.0878
 144	1	4	0.230266	58.6416	15.7981	-68.6303
 145	1	1	-0.247122	48.0174	7.02833	-58.7349
 146	1	2	0.139112	47.8345	7.77007	-57.5654
 147	1	2	0.02746	48.4625	7.44055	-56.3371
 148	1	3	-0.077297	49.3381	6.18576	-56.2636
 149	1	2	-0.08585	48.197	8.23863	-55.1888
 150	1	2	-0.195578	47.3086	9.32956	-55.3024
 151	1	4	0.171692	47.0897	9.94939	-54.4346
 152	1	2	-0.199822	46.6321	9.59373	-56.5007
 153	1	4	0.149498	45.8983	10.3941	-56.5445
 154	1	2	0.076729	46.8732	8.80104	-57.6284
 155	1	2	-0.057821	48.9876	7.92348	-51.5973
 156	1	2	-0.076852	48.7967	8.12021	-50.2211
 157	1	4	0.145382	47.7961	8.32683	-49.8488
 158	1	2	-0.023498	49.9272	8.15117	-49.364
 159	1	4	0.166076	52.3744	7.67729	-51.7734
 160	1	2	-0.140684	51.3827	7.76341	-51.3327
 161	1	2	-0.058922	50.245	7.79058	-52.1437
 162	1	3	-0.101954	49.7675	8.62316	-47.8871
 163	1	2	-0.067123	51.2119	7.93388	-49.9436
 164	1	4	0.142141	52.1099	7.97662	-49.3385
 165	1	3	0.321219	50.8575	8.00574	-46.9228
 166	1	3	0.382784	49.9474	10.1908	-47.9288
 167	1	5	-0.111948	51.0179	6.67982	-47.1333
 168	1	5	-0.11115	50.5103	8.15161	-45.6233
 169	1	5	-0.103632	52.0815	8.56759	-47.0424
 170	1	5	-0.110272	48.9265	10.7851	-48.588
 171	1	5	-0.120305	51.0715	10.566	-48.581
 172	1	5	-0.123663	50.0232	10.7467	-46.6983
 173	1	6	0.452517	50.1231	7.83729	-53.6276
 174	1	6	0.453374	48.0107	7.99484	-52.7145
 175	1	7	0.018948	48.761	7.9778	-53.8929
 176	1	8	-0.46698	51.0563	7.89542	-54.4106
 177	1	8	-0.469385	46.8051	8.12817	-52.5848
 178	1	3	-0.126657	46.0336	8.9939	-58.9
 179	1	2	0.020988	46.3747	8.57146	-45.9806
 180	1	6	0.027902	45.4315	9.25935	-45.0615
 181	1	8	-0.378193	45.4445	10.4435	-44.7677
 182	1	2	0.043573	46.0621	7.22907	-46.0062
 183	1	6	0.038038	44.9132	6.99655	-45.0866
 184	1	7	0.4913	44.6269	8.24922	-44.5375
 185	1	8	-0.382817	44.446	5.91251	-44.7773
 186	1	2	0.0054	47.5187	9.07391	-46.6096
 187	1	2	-0.040988	46.8598	6.31981	-46.7095
 188	1	2	-0.085341	48.3794	8.18404	-47.313
 189	1	4	0.154391	47.7331	10.1278	-46.4778
 190	1	2	-0.205992	48.0092	6.81084	-47.3699
 191	1	4	0.156637	46.6222	5.25807	-46.6981
 192	1	4	0.178085	48.6519	6.10019	-47.8857
 193	1	10	0.05178	48.9693	5.3952	-56.9287
 194	1	10	0.015669	49.3568	5.74884	-55.2585
 195	1	10	0.036134	50.3703	6.40958	-56.5596
 196	1	11	0.101096	44.9722	8.97957	-58.6259
 197	1	1	-0.196269	46.2774	7.95078	-59.9334
 198	1	11	0.131285	46.2542	9.98505	-59.316
 199	1	3	-0.292673	46.7326	6.66707	-59.3642
 200	1	3	-0.034798	49.0243	7.52556	-59.7255
 201	1	12	0.194395	46.877	5.91731	-60.1549
 202	1	12	0.183693	46.0169	6.29085	-58.6208
 203	1	2	-0.144532	46.3643	8.70343	-62.2629
 204	1	2	0.128587	47.0036	8.31828	-61.0626
 205	1	2	0.222203	47.1406	8.84086	-63.4419
 206	1	2	0.041795	48.3979	8.11665	-61.0057
 207	1	2	-0.461017	48.5493	8.73069	-63.3573
 208	1	2	-0.140506	49.1757	8.38097	-62.1455
 209	1	4	0.148448	50.2541	8.23865	-62.1083
 210	1	10	0.055442	44.467	9.35294	-61.3957
 211	1	10	0.090839	44.4708	9.41572	-63.1484
 212	1	3	-0.16304	44.8364	8.83812	-62.2912
 213	1	10	0.039719	44.3607	7.84955	-62.3231
 214	1	11	0.077452	49.6845	6.6965	-60.0076
 215	1	11	0.09063	49.6517	8.29675	-59.2599
 216	1	4	0.230266	49.1539	8.84587	-64.2562
 217	1	1	-0.247122	40.1319	9.33425	-39.9087
 218	1	2	0.139112	39.7715	10.6705	-39.6979
 219	1	2	0.02746	39.4019	11.1852	-38.4247
 220	1	3	-0.077297	39.4276	10.3084	-37.1717
 221	1	2	-0.08585	38.956	12.5273	-38.3205
 222	1	2	-0.195578	38.9109	13.3344	-39.474
 223	1	4	0.171692	38.5503	14.3589	-39.4056
 224	1	2	-0.199822	39.2942	12.825	-40.7256
 225	1	4	0.149498	39.2356	13.4562	-41.6084
 226	1	2	0.076729	39.7164	11.4922	-40.8473
 227	1	2	-0.057821	36.97	14.0007	-35.5929
 228	1	2	-0.076852	35.825	14.5616	-35.0118
 229	1	4	0.145382	34.8721	14.3055	-35.4585
 230	1	2	-0.023498	35.9544	15.5288	-33.9732
 231	1	4	0.166076	39.4182	15.5416	-33.8109
 232	1	2	-0.140684	38.4161	15.2442	-34.1141
 233	1	2	-0.058922	38.2368	14.3438	-35.1765
 234	1	3	-0.101954	34.748	16.4371	-33.55
 235	1	2	-0.067123	37.2695	15.8299	-33.5206
 236	1	4	0.142141	37.4096	16.5931	-32.7588
 237	1	3	0.321219	34.8664	17.715	-34.4705
 238	1	3	0.382784	33.3529	15.7402	-33.8076
 239	1	5	-0.111948	35.8716	18.5213	-34.0591
 240	1	5	-0.11115	33.739	18.46	-34.5127
 241	1	5	-0.103632	35.1403	17.3948	-35.7561
 242	1	5	-0.110272	33.3363	14.4802	-33.3152
 243	1	5	-0.120305	33.0111	15.6711	-35.1139
 244	1	5	-0.123663	32.3361	16.3949	-33.2002
 245	1	6	0.452517	39.2156	13.7292	-36.1304
 246	1	6	0.453374	37.0909	13.1569	-36.8148
 247	1	7	0.018948	38.4503	13.0757	-37.0951
 248	1	8	-0.46698	40.4259	13.8732	-36.1127
 249	1	8	-0.469385	36.165	12.7273	-37.4813
 250	1	3	-0.126657	40.0757	10.9152	-42.2306
 251	1	2	0.020988	33.8961	18.2131	-30.2118
 252	1	6	0.027902	33.1785	19.3329	-29.5407
 253	1	8	-0.378193	32.8438	20.387	-30.0554
 254	1	2	0.043573	34.0698	17.195	-29.3
 255	1	6	0.038038	33.4645	17.6195	-28.0041
 256	1	7	0.4913	32.9303	18.8895	-28.2412
 257	1	8	-0.382817	33.3948	16.9511	-26.9856
 258	1	2	0.0054	34.2267	18.0514	-31.5628
 259	1	2	-0.040988	34.6294	15.9712	-29.6902
 260	1	2	-0.085341	34.7321	16.7996	-32.0248
 261	1	4	0.154391	33.9811	18.8693	-32.2284
 262	1	2	-0.205992	34.9561	15.7827	-31.0557
 263	1	4	0.156637	34.7337	15.1652	-28.9667
 264	1	4	0.178085	35.3011	14.8016	-31.3757
 265	1	10	0.05178	40.1386	10.7075	-36.4376
 266	1	10	0.015669	39.7212	9.27254	-37.3755
 267	1	10	0.036134	38.4386	10.2723	-36.6988
 268	1	11	0.101096	39.2279	11.0701	-42.9086
 269	1	1	-0.196269	40.4077	9.4642	-42.1945
 270	1	11	0.131285	40.9274	11.478	-42.6333
 271	1	3	-0.292673	39.6142	8.76009	-41.1687
 272	1	3	-0.034798	41.5489	8.95038	-39.6761
 273	1	12	0.194395	39.7914	7.67653	-41.2123
 274	1	12	0.183693	38.5421	8.96642	-41.2886
 275	1	2	-0.144532	42.4828	8.90374	-43.4351
 276	1	2	0.128587	41.7547	9.08206	-42.2268
 277	1	2	0.222203	43.822	8.43908	-43.3703
 278	1	2	0.041795	42.355	8.80108	-40.9768
 279	1	2	-0.461017	44.4055	8.17135	-42.1117
 280	1	2	-0.140506	43.6809	8.35091	-40.9249
 281	1	4	0.148448	44.1406	8.13048	-39.9637
 282	1	10	0.055442	41.8344	8.24104	-45.4082
 283	1	10	0.090839	40.7979	9.49318	-44.7314
 284	1	3	-0.16304	41.8391	9.1568	-44.8028
 285	1	10	0.039719	42.3879	9.92606	-45.3609
 286	1	11	0.077452	41.5788	8.00005	-39.1298
 287	1	11	0.09063	42.0394	9.70649	-39.0497
 288	1	4	0.230266	45.4323	7.81326	-42.0594
 289	1	1	-0.247122	28.5915	21.2768	-23.9623
 290	1	2	0.139112	27.6037	22.1316	-24.469
 291	1	2	0.02746	27.0338	23.1835	-23.7058
 292	1	3	-0.077297	27.5468	23.4378	-22.2859
 293	1	2	-0.08585	25.9757	23.9527	-24.2612
 294	1	2	-0.195578	25.5434	23.6892	-25.5755
 295	1	4	0.171692	24.7487	24.2881	-26.0159
 296	1	2	-0.199822	26.1157	22.6475	-26.325
 297	1	4	0.149498	25.7583	22.4423	-27.3307
 298	1	2	0.076729	27.1325	21.8538	-25.7715
 299	1	2	-0.057821	24.0364	26.152	-21.9939
 300	1	2	-0.076852	23.2338	26.5335	-20.8979
 301	1	4	0.145382	22.6637	25.7736	-20.3699
 302	1	2	-0.023498	23.2748	27.8788	-20.4288
 303	1	4	0.166076	25.4998	29.1124	-22.7971
 304	1	2	-0.140684	24.8488	28.4067	-22.2832
 305	1	2	-0.058922	24.8338	27.0626	-22.6552
 306	1	3	-0.101954	22.6615	28.2435	-19.0221
 307	1	2	-0.067123	24.0732	28.8015	-21.1751
 308	1	4	0.142141	24.1729	29.8387	-20.8828
 309	1	3	0.321219	23.4843	27.3921	-17.9715
 310	1	3	0.382784	22.8246	29.7756	-18.6654
 311	1	5	-0.111948	23.0753	26.104	-17.9441
 312	1	5	-0.11115	23.4024	27.8451	-16.701
 313	1	5	-0.103632	24.8048	27.3756	-18.2672
 314	1	5	-0.110272	22.2636	30.5649	-19.6108
 315	1	5	-0.120305	24.1169	30.15	-18.5218
 316	1	5	-0.123663	22.2084	30.1156	-17.5102
 317	1	6	0.452517	25.6652	26.3415	-23.6591
 318	1	6	0.453374	24.3347	24.8042	-22.5701
 319	1	7	0.018948	25.3296	25.0009	-23.5291
 320	1	8	-0.46698	26.5187	26.8352	-24.3766
 321	1	8	-0.469385	23.8465	23.7466	-22.212
 322	1	3	-0.126657	27.7066	20.6631	-26.5606
 323	1	2	0.020988	19.0887	27.7996	-17.5743
 324	1	6	0.027902	18.2039	27.7244	-16.3756
 325	1	8	-0.378193	18.5663	27.5495	-15.2243
 326	1	2	0.043573	18.3	28.0001	-18.6858
 327	1	6	0.038038	16.8749	28.0584	-18.2442
 328	1	7	0.4913	16.9024	27.8911	-16.855
 329	1	8	-0.382817	15.9045	28.2277	-18.9643
 330	1	2	0.0054	20.4874	27.7696	-17.6647
 331	1	2	-0.040988	18.8757	28.1614	-19.954
 332	1	2	-0.085341	21.1227	27.9755	-18.9255
 333	1	4	0.154391	21.0461	27.6691	-16.7415
 334	1	2	-0.205992	20.2883	28.1558	-20.0627
 335	1	4	0.156637	18.243	28.3371	-20.8213
 336	1	4	0.178085	20.7342	28.3555	-21.0347
 337	1	10	0.05178	27.0803	24.3002	-21.7988
 338	1	10	0.015669	28.6275	23.6251	-22.2895
 339	1	10	0.036134	27.3621	22.565	-21.6474
 340	1	11	0.101096	26.8831	19.9904	-26.8287
 341	1	1	-0.196269	28.73	19.894	-25.8006
 342	1	11	0.131285	28.1445	21.0397	-27.4934
 343	1	3	-0.292673	28.4165	19.8648	-24.3583
 344	1	3	-0.034798	30.0151	21.6991	-24.0722
 345	1	12	0.194395	29.115	19.2108	-23.8181
 346	1	12	0.183693	27.3842	19.5311	-24.1843
 347	1	2	-0.144532	30.7782	19.4289	-27.1141
 348	1	2	0.128587	30.0829	20.1194	-26.0852
 349	1	2	0.222203	32.1754	19.6339	-27.273
 350	1	2	0.041795	30.7643	21.0177	-25.2331
 351	1	2	-0.461017	32.834	20.5627	-26.4342
 352	1	2	-0.140506	32.1353	21.25	-25.4256
 353	1	4	0.148448	32.6597	21.9443	-24.7718
 354	1	10	0.055442	30.2329	17.3899	-27.6509
 355	1	10	0.090839	28.966	18.5649	-28.0181
 356	1	3	-0.16304	30.0515	18.4133	-28.0037
 357	1	10	0.039719	30.3839	18.4752	-29.0473
 358	1	11	0.077452	30.5293	21.4599	-23.1333
 359	1	11	0.09063	30.0704	22.7864	-24.2098
 360	1	4	0.230266	33.9019	20.7352	-26.5543
 361	1	1	-0.247122	11.5099	28.6423	-13.1765
 362	1	2	0.139112	11.6533	28.8586	-11.799
 363	1	2	0.02746	10.7181	28.3963	-10.83
 364	1	3	-0.077297	9.49037	27.5876	-11.2522
 365	1	2	-0.08585	10.9204	28.7045	-9.45736
 366	1	2	-0.195578	12.0359	29.4799	-9.08534
 367	1	4	0.171692	12.1973	29.7269	-8.03799
 368	1	2	-0.199822	12.9548	29.9339	-10.0479
 369	1	4	0.149498	13.8101	30.5294	-9.7399
 370	1	2	0.076729	12.7762	29.6209	-11.4052
 371	1	2	-0.057821	8.53773	28.0908	-6.67103
 372	1	2	-0.076852	7.53763	28.3265	-5.70675
 373	1	4	0.145382	7.02389	29.2815	-5.73061
 374	1	2	-0.023498	7.19781	27.3029	-4.76913
 375	1	4	0.166076	9.43458	24.9039	-5.89434
 376	1	2	-0.140684	8.90944	25.8549	-5.82995
 377	1	2	-0.058922	9.20328	26.8857	-6.73204
 378	1	3	-0.101954	5.98861	27.4288	-3.77473
 379	1	2	-0.067123	7.90197	26.0704	-4.86251
 380	1	4	0.142141	7.64581	25.2526	-4.1937
 381	1	3	0.321219	5.71491	28.9213	-3.34532
 382	1	3	0.382784	4.74407	26.881	-4.57492
 383	1	5	-0.111948	4.8717	28.9909	-2.28939
 384	1	5	-0.11115	5.15467	29.674	-4.31862
 385	1	5	-0.103632	6.8558	29.5405	-2.96741
 386	1	5	-0.110272	4.66498	27.4037	-5.82014
 387	1	5	-0.120305	3.56097	27.1517	-3.97865
 388	1	5	-0.123663	4.82202	25.5404	-4.73739
 389	1	6	0.452517	10.1837	26.9448	-7.85761
 390	1	6	0.453374	9.07768	28.9628	-7.76402
 391	1	7	0.018948	10.0582	28.213	-8.41617
 392	1	8	-0.46698	10.9586	26.0611	-8.18188
 393	1	8	-0.469385	8.74434	30.1129	-7.99241
 394	1	3	-0.126657	13.7835	30.1192	-12.4644
 395	1	2	0.020988	5.50602	25.2188	-0.576242
 396	1	6	0.027902	4.6787	24.2627	0.211155
 397	1	8	-0.378193	3.55178	23.892	-0.073465
 398	1	2	0.043573	6.73935	25.3183	0.0295619
 399	1	6	0.038038	6.75638	24.4215	1.22533
 400	1	7	0.4913	5.50549	23.7965	1.23811
 401	1	8	-0.382817	7.72312	24.1828	1.93007
 402	1	2	0.0054	5.22524	25.861	-1.79318
 403	1	2	-0.040988	7.75508	26.0902	-0.548638
 404	1	2	-0.085341	6.23589	26.6377	-2.43667
 405	1	4	0.154391	4.23468	25.7233	-2.21081
 406	1	2	-0.205992	7.48966	26.7517	-1.77268
 407	1	4	0.156637	8.72862	26.1585	-0.0680189
 408	1	4	0.178085	8.2761	27.3603	-2.21476
 409	1	10	0.05178	9.24388	27.7248	-12.3119
 410	1	10	0.015669	8.59958	27.8862	-10.6858
 411	1	10	0.036134	9.6542	26.5163	-11.0839
 412	1	11	0.101096	13.8939	31.2054	-12.3622
 413	1	1	-0.196269	13.383	29.8017	-13.8657
 414	1	11	0.131285	14.7611	29.668	-12.2526
 415	1	3	-0.292673	11.9137	29.7962	-14.009
 416	1	3	-0.034798	12.0086	27.3589	-13.7447
 417	1	12	0.194395	11.623	29.649	-15.0584
 418	1	12	0.183693	11.4784	30.7314	-13.6313
 419	1	2	-0.144532	15.2034	28.9045	-15.3046
 420	1	2	0.128587	14.0142	28.7433	-14.5373
 421	1	2	0.222203	15.7242	27.7969	-16.0337
 422	1	2	0.041795	13.3413	27.5009	-14.5064
 423	1	2	-0.461017	15.045	26.5582	-15.9676
 424	1	2	-0.140506	13.8681	26.4104	-15.2141
 425	1	4	0.148448	13.3482	25.4547	-15.1936
 426	1	10	0.055442	16.4224	30.4306	-16.3178
 427	1	10	0.090839	15.1724	31.0953	-15.2824
 428	1	3	-0.16304	15.8928	30.2718	-15.3707
 429	1	10	0.039719	16.6207	30.3795	-14.5569
 430	1	11	0.077452	11.2532	26.9569	-14.4306
 431	1	11	0.09063	12.1451	26.6259	-12.9394
 432	1	4	0.230266	15.428	25.7055	-16.5254
 433	1	1	-0.247122	3.07421	18.8732	4.79864
 434	1	2	0.139112	3.62238	18.5066	6.03371
 435	1	2	0.02746	3.55848	17.1813	6.54234
 436	1	3	-0.077297	3.01611	16.0604	5.65178
 437	1	2	-0.08585	3.9641	16.9295	7.88227
 438	1	2	-0.195578	4.48941	17.9881	8.65044
 439	1	4	0.171692	4.80256	17.8081	9.67738
 440	1	2	-0.199822	4.59146	19.2863	8.1223
 441	1	4	0.149498	4.98064	20.0918	8.73918
 442	1	2	0.076729	4.14458	19.5577	6.82011
 443	1	2	-0.057821	4.09096	13.7808	9.83547
 444	1	2	-0.076852	4.61324	12.7531	10.6415
 445	1	4	0.145382	5.68825	12.7045	10.7805
 446	1	2	-0.023498	3.72251	11.837	11.2735
 447	1	4	0.166076	0.75041	13.2034	10.1276
 448	1	2	-0.140684	1.82123	13.0615	10.2601
 449	1	2	-0.058922	2.73358	13.9272	9.64639
 450	1	3	-0.101954	4.20966	10.7087	12.2413
 451	1	2	-0.067123	2.32621	12.0275	11.0763
 452	1	4	0.142141	1.61559	11.3742	11.5763
 453	1	3	0.321219	5.67449	10.2157	11.9166
 454	1	3	0.382784	4.18641	11.3298	13.6896
 455	1	5	-0.111948	5.962	9.05729	12.5542
 456	1	5	-0.11115	6.63657	11.093	12.2803
 457	1	5	-0.103632	5.84036	9.97465	10.5965
 458	1	5	-0.110272	4.79332	10.549	14.6126
 459	1	5	-0.120305	2.92003	11.5453	14.1118
 460	1	5	-0.123663	4.80716	12.5306	13.7364
 461	1	6	0.452517	2.5029	15.1324	8.80021
 462	1	6	0.453374	4.77376	14.8985	9.115
 463	1	7	0.018948	3.76244	15.6651	8.53511
 464	1	8	-0.46698	1.41592	15.5752	8.46956
 465	1	8	-0.469385	5.97352	15.1139	9.10344
 466	1	3	-0.126657	4.17068	20.9976	6.26502
 467	1	2	0.020988	2.08054	7.51597	12.9785
 468	1	6	0.027902	1.59023	6.48482	13.9372
 469	1	8	-0.378193	1.68386	6.53349	15.1526
 470	1	2	0.043573	1.82936	7.06408	11.7005
 471	1	6	0.038038	1.18448	5.72763	11.7826
 472	1	7	0.4913	1.10234	5.43803	13.1476
 473	1	8	-0.382817	0.937798	4.99822	10.836
 474	1	2	0.0054	2.80945	8.69359	13.2103
 475	1	2	-0.040988	2.27398	7.77331	10.582
 476	1	2	-0.085341	3.28861	9.44937	12.0993
 477	1	4	0.154391	3.02288	8.96193	14.2391
 478	1	2	-0.205992	2.99825	8.96539	10.7935
 479	1	4	0.156637	2.10022	7.38417	9.581
 480	1	4	0.178085	3.37619	9.49907	9.92368
 481	1	10	0.05178	3.48603	16.0852	4.66126
 482	1	10	0.015669	1.9333	16.1618	5.50941
 483	1	10	0.036134	3.20877	15.0609	6.05741
 484	1	11	0.101096	3.69451	21.6633	6.99487
 485	1	1	-0.196269	3.47372	21.1425	4.95472
 486	1	11	0.131285	5.21618	21.3135	6.16293
 487	1	3	-0.292673	2.36596	20.1714	4.83346
 488	1	3	-0.034798	3.91169	18.7353	3.57778
 489	1	12	0.194395	1.79494	20.3368	3.90939
 490	1	12	0.183693	1.69243	20.2301	5.69967
 491	1	2	-0.144532	4.63455	22.5284	3.24887
 492	1	2	0.128587	4.22685	21.2701	3.77725
 493	1	2	0.222203	5.21564	22.5804	1.94826
 494	1	2	0.041795	4.43248	20.0797	3.04286
 495	1	2	-0.461017	5.43219	21.3709	1.24902
 496	1	2	-0.140506	5.05528	20.134	1.79017
 497	1	4	0.148448	5.19799	19.2202	1.21729
 498	1	10	0.055442	4.74425	24.7107	3.57518
 499	1	10	0.090839	3.31583	23.9318	4.272
 500	1	3	-0.16304	4.3862	23.7991	4.06695
 501	1	10	0.039719	4.89946	23.738	5.03554
 502	1	11	0.077452	3.31913	18.2492	2.79321
 503	1	11	0.09063	4.77371	18.0902	3.78887
 504	1	4	0.230266	5.86102	21.3985	0.249273
 505	1	1	-0.247122	-0.811479	-0.741899	13.7938
 506	1	2	0.139112	-1.83294	-1.2339	14.607
 507	1	2	0.02746	-2.00417	-2.61749	14.8674
 508	1	3	-0.077297	-0.984826	-3.60886	14.301
 509	1	2	-0.08585	-3.17291	-3.04409	15.5524
 510	1	2	-0.195578	-4.09019	-2.08313	16.0243
 511	1	4	0.171692	-4.99777	-2.40385	16.5327
 512	1	2	-0.199822	-3.9185	-0.720727	15.7448
 513	1	4	0.149498	-4.68096	-0.00691494	16.0442
 514	1	2	0.076729	-2.81534	-0.297105	14.9931
 515	1	2	-0.057821	-4.99607	-6.21808	15.5515
 516	1	2	-0.076852	-6.10596	-7.04633	15.3717
 517	1	4	0.145382	-6.91721	-6.68851	14.7456
 518	1	2	-0.023498	-6.1507	-8.30374	16.0244
 519	1	4	0.166076	-3.09244	-8.0963	17.6465
 520	1	2	-0.140684	-3.92655	-7.81476	17.0069
 521	1	2	-0.058922	-3.94238	-6.56826	16.3652
 522	1	3	-0.101954	-7.39666	-9.2195	15.8518
 523	1	2	-0.067123	-5.0293	-8.68187	16.8182
 524	1	4	0.142141	-5.00745	-9.64697	17.3157
 525	1	3	0.321219	-8.72702	-8.39752	16.1433
 526	1	3	0.382784	-7.43507	-9.70855	14.3464
 527	1	5	-0.111948	-9.7751	-9.21502	16.3951
 528	1	5	-0.11115	-9.13149	-7.59058	15.1384
 529	1	5	-0.103632	-8.59603	-7.57772	17.2111
 530	1	5	-0.110272	-7.52887	-8.71364	13.4369
 531	1	5	-0.120305	-8.48336	-10.5311	14.11
 532	1	5	-0.123663	-6.29899	-10.3607	14.0117
 533	1	6	0.452517	-3.00633	-5.40229	16.4321
 534	1	6	0.453374	-4.76219	-4.84897	15.0405
 535	1	7	0.018948	-3.58535	-4.41168	15.6395
 536	1	8	-0.46698	-2.00034	-5.32317	17.1164
 537	1	8	-0.469385	-5.51891	-4.22443	14.3161
 538	1	3	-0.126657	-2.7302	1.15397	14.4882
 539	1	2	0.020988	-7.48221	-12.8231	17.3292
 540	1	6	0.027902	-7.78248	-14.2353	16.9982
 541	1	8	-0.378193	-7.56447	-14.7647	15.92
 542	1	2	0.043573	-7.9096	-12.5753	18.6128
 543	1	6	0.038038	-8.58018	-13.7972	19.1311
 544	1	7	0.4913	-8.58095	-14.6926	18.0506
 545	1	8	-0.382817	-9.27221	-13.8267	20.1358
 546	1	2	0.0054	-7.2143	-11.7824	16.4349
 547	1	2	-0.040988	-7.94211	-11.2731	19.1172
 548	1	2	-0.085341	-7.35739	-10.4298	16.8593
 549	1	4	0.154391	-7.03818	-12.0696	15.4064
 550	1	2	-0.205992	-7.62189	-10.211	18.2437
 551	1	4	0.156637	-8.31035	-11.0841	20.1237
 552	1	4	0.178085	-7.69761	-9.20294	18.6387
 553	1	10	0.05178	0.0293775	-3.34851	14.6292
 554	1	10	0.015669	-0.992664	-3.59052	13.2041
 555	1	10	0.036134	-1.16162	-4.64359	14.6092
 556	1	11	0.101096	-3.71058	1.4456	14.0933
 557	1	1	-0.196269	-1.70067	1.36251	13.426
 558	1	11	0.131285	-2.51485	1.80406	15.3455
 559	1	3	-0.292673	-1.34758	0.116124	12.7159
 560	1	3	-0.034798	0.389881	-0.151821	14.4613
 561	1	12	0.194395	-0.586652	0.305084	11.946
 562	1	12	0.183693	-2.23672	-0.334891	12.2541
 563	1	2	-0.144532	-0.438177	3.48111	13.4287
 564	1	2	0.128587	-0.570322	2.10748	13.7567
 565	1	2	0.222203	0.809527	4.12503	13.65
 566	1	2	0.041795	0.508907	1.37621	14.2953
 567	1	2	-0.461017	1.84962	3.4015	14.2809
 568	1	2	-0.140506	1.70435	2.04123	14.6015
 569	1	4	0.148448	2.5355	1.4887	15.0347
 570	1	10	0.055442	-2.57518	3.84599	13.1108
 571	1	10	0.090839	-1.59461	5.29473	12.9597
 572	1	3	-0.16304	-1.60456	4.217	12.7585
 573	1	10	0.039719	-1.57753	4.07646	11.6703
 574	1	11	0.077452	1.29077	-0.620786	14.0478
 575	1	11	0.09063	0.366322	-0.38105	15.5346
 576	1	4	0.230266	2.8011	3.89347	14.4789
 577	1	1	-0.247122	-14.3324	-17.2271	18.8642
 578	1	2	0.139112	-14.7979	-18.532	18.8314
 579	1	2	0.02746	-16.1237	-18.8405	18.4608
 580	1	3	-0.077297	-17.0915	-17.7348	18.008
 581	1	2	-0.08585	-16.5451	-20.1901	18.5005
 582	1	2	-0.195578	-15.6349	-21.2014	18.868
 583	1	4	0.171692	-15.9581	-22.2404	18.8887
 584	1	2	-0.199822	-14.3021	-20.8788	19.1945
 585	1	4	0.149498	-13.6034	-21.6666	19.4638
 586	1	2	0.076729	-13.8733	-19.5391	19.1748
 587	1	2	-0.057821	-19.7277	-20.5262	16.7815
 588	1	2	-0.076852	-20.5615	-20.4435	15.6591
 589	1	4	0.145382	-20.1422	-20.7755	14.7192
 590	1	2	-0.023498	-21.8499	-19.8435	15.7713
 591	1	4	0.166076	-21.6823	-19.1128	19.1675
 592	1	2	-0.140684	-21.3912	-19.5137	18.1981
 593	1	2	-0.058922	-20.1359	-20.0964	18.0231
 594	1	3	-0.101954	-22.7785	-19.5987	14.519
 595	1	2	-0.067123	-22.2231	-19.3731	17.0688
 596	1	4	0.142141	-23.1575	-18.855	17.2339
 597	1	3	0.321219	-22.4772	-20.6099	13.3401
 598	1	3	0.382784	-24.2949	-19.7974	14.9666
 599	1	5	-0.111948	-22.5453	-21.894	13.7556
 600	1	5	-0.11115	-21.2611	-20.4192	12.7821
 601	1	5	-0.103632	-23.3186	-20.4767	12.2905
 602	1	5	-0.110272	-25.176	-19.9823	13.9591
 603	1	5	-0.120305	-24.7821	-18.7313	15.6419
 604	1	5	-0.123663	-24.4343	-20.8761	15.7704
 605	1	6	0.452517	-18.9742	-20.1556	18.9491
 606	1	6	0.453374	-18.2738	-20.8343	16.8541
 607	1	7	0.018948	-17.8907	-20.5048	18.1494
 608	1	8	-0.46698	-18.9579	-19.7537	20.1005
 609	1	8	-0.469385	-17.5531	-21.0845	15.9034
 610	1	3	-0.126657	-12.4148	-19.1425	19.5035
 611	1	2	0.020988	-20.9084	-16.4001	13.4248
 612	1	6	0.027902	-19.658	-15.5993	13.441
 613	1	8	-0.378193	-18.5938	-15.9386	13.932
 614	1	2	0.043573	-21.9097	-15.6395	12.8615
 615	1	6	0.038038	-21.3529	-14.3079	12.5133
 616	1	7	0.4913	-20.025	-14.349	12.9413
 617	1	8	-0.382817	-21.9913	-13.3428	12.1262
 618	1	2	0.0054	-21.1679	-17.6549	13.9834
 619	1	2	-0.040988	-23.2226	-16.1111	12.7927
 620	1	2	-0.085341	-22.4907	-18.1752	13.9523
 621	1	4	0.154391	-20.341	-18.1936	14.4317
 622	1	2	-0.205992	-23.4997	-17.39	13.3224
 623	1	4	0.156637	-24.005	-15.4937	12.3561
 624	1	4	0.178085	-24.5203	-17.7505	13.2416
 625	1	10	0.05178	-16.6506	-16.7326	18.0239
 626	1	10	0.015669	-17.9752	-17.6828	18.653
 627	1	10	0.036134	-17.4312	-17.9122	16.98
 628	1	11	0.101096	-12.1293	-19.6075	20.4544
 629	1	1	-0.196269	-12.1932	-17.6632	19.5983
 630	1	11	0.131285	-11.7631	-19.5585	18.7252
 631	1	3	-0.292673	-13.423	-16.9574	19.9986
 632	1	3	-0.034798	-13.8598	-16.6924	17.5638
 633	1	12	0.194395	-13.2371	-15.8799	20.1106
 634	1	12	0.183693	-13.8237	-17.3649	20.9367
 635	1	2	-0.144532	-10.1955	-16.5128	18.7048