pySIMM System Object

3600 atoms
3999 bonds
7196 angles
11088 dihedrals
1000 impropers

12 atom types
15 bond types
28 angle types
9 dihedral types
4 improper types

-241.081467 241.081467 xlo xhi
-241.081467 241.081467 ylo yhi
-241.081467 241.081467 zlo zhi

Masses

   1	14.01	# nh
   2	12.01	# ca
   3	12.01	# c3
   4	1.008	# ha
   5	19.0	# f
   6	12.01	# c
   7	14.01	# n
   8	16.0	# o
   9	1.008	# hn
  10	1.008	# hc
  11	1.008	# h1
  12	1.008	# h2

Pair Coeffs

   1	0.17	3.249998523775958	# nh
   2	0.086	3.3996695084235347	# ca
   3	0.1094	3.3996695084235347	# c3
   4	0.015	2.59964245953351	# ha
   5	0.061	3.1181455134911875	# f
   6	0.086	3.3996695084235347	# c
   7	0.17	3.249998523775958	# n
   8	0.21	2.959921901149463	# o
   9	0.0157	1.069078461768407	# hn
  10	0.0157	2.649532787749369	# hc
  11	0.0157	2.471353044121301	# h1
  12	0.0157	2.2931733004932333	# h2

Bond Coeffs

   1	356.9	1.3497	# c3,f
   2	403.2	1.0129	# hn,n
   3	417.9	1.3859	# ca,nh
   4	300.9	1.5375	# c3,c3
   5	384.2	1.4121	# ca,n
   6	330.6	1.0969	# c3,h1
   7	461.1	1.3984	# ca,ca
   8	326.6	1.464	# c3,nh
   9	427.6	1.3789	# c,n
  10	331.7	1.0961	# c3,h2
  11	345.9	1.4906	# c,ca
  12	345.8	1.086	# ca,ha
  13	321.0	1.5156	# c3,ca
  14	330.6	1.0969	# c3,hc
  15	637.7	1.2183	# c,o

Angle Coeffs

   1	71.11	105.87	# nh,c3,nh
   2	63.25	114.51	# c3,nh,c3
   3	74.22	123.05	# n,c,o
   4	66.62	120.02	# ca,ca,ca
   5	68.29	120.95	# ca,ca,nh
   6	49.52	110.01	# h2,c3,nh
   7	68.72	122.6	# ca,c,o
   8	49.57	109.79	# h1,c3,nh
   9	67.68	115.25	# ca,c,n
  10	66.46	111.39	# ca,c3,nh
  11	48.33	117.55	# c,n,hn
  12	64.28	120.33	# c,ca,ca
  13	39.4	107.58	# hc,c3,hc
  14	63.53	120.77	# c3,ca,ca
  15	70.89	107.36	# f,c3,f
  16	67.87	120.19	# ca,ca,n
  17	46.8	110.47	# ca,c3,hc
  18	46.99	109.56	# ca,c3,h1
  19	62.86	111.51	# c3,c3,c3
  20	66.11	109.24	# c3,c3,f
  21	63.15	112.07	# c3,c3,ca
  22	38.96	110.2	# h2,c3,h2
  23	63.82	123.71	# c,n,ca
  24	39.24	108.46	# h1,c3,h1
  25	63.56	112.24	# ca,c3,ca
  26	63.39	119.98	# c3,nh,ca
  27	63.74	127.08	# c,n,c
  28	48.18	119.88	# ca,ca,ha

Dihedral Coeffs

   1	2	2.5	2	180	2.0	1	0	# hn,n,c,o
   2	1	0.0	2	0	# X,c3,nh,X
   3	1	3.625	2	180	# X,ca,ca,X
   4	1	0.0	2	0	# X,c3,ca,X
   5	1	1.0	2	180	# X,c,ca,X
   6	1	0.15555555555555556	3	0	# X,c3,c3,X
   7	1	2.5	2	180	# X,c,n,X
   8	1	0.45	2	180	# X,ca,n,X
   9	1	1.05	2	180	# X,ca,nh,X

Improper Coeffs

   1	10.5	-1	2	# c,X,X,o
   2	1.1	-1	2	# n,X,X,hn
   3	1.1	-1	2	# ca,ca,ca,c3
   4	1.1	-1	2	# ca,X,X,ha

Atoms

   1	1	1	-0.247122	18.6902	64.6248	88.8874
   2	1	2	0.139112	20.0053	64.4362	88.4352
   3	1	2	0.02746	20.2942	63.915	87.1499
   4	1	3	-0.077297	19.156	63.428	86.247
   5	1	2	-0.08585	21.6453	63.8296	86.7269
   6	1	2	-0.195578	22.6804	64.214	87.6002
   7	1	4	0.171692	23.7191	64.1302	87.2852
   8	1	2	-0.199822	22.3899	64.6999	88.8822
   9	1	4	0.149498	23.1977	64.9927	89.5478
  10	1	2	0.076729	21.0574	64.8239	89.2992
  11	1	2	-0.057821	22.9651	62.1696	83.7177
  12	1	2	-0.076852	23.706	61.2695	82.9407
  13	1	4	0.145382	24.2854	60.5074	83.4511
  14	1	2	-0.023498	23.6852	61.4019	81.5262
  15	1	4	0.166076	21.6155	64.1758	81.3221
  16	1	2	-0.140684	22.1874	63.361	81.7622
  17	1	2	-0.058922	22.2369	63.1927	83.149
  18	1	3	-0.101954	24.5186	60.491	80.5766
  19	1	2	-0.067123	22.9119	62.4552	80.9614
  20	1	4	0.142141	22.8853	62.5865	79.8828
  21	1	3	0.321219	25.7621	61.3529	80.1285
  22	1	3	0.382784	25.0331	59.1638	81.2586
  23	1	5	-0.111948	25.4034	62.3685	79.3105
  24	1	5	-0.11115	26.7032	60.635	79.4754
  25	1	5	-0.103632	26.3797	61.924	81.188
  26	1	5	-0.110272	24.0363	58.4986	81.8859
  27	1	5	-0.120305	26.0071	59.3746	82.1724
  28	1	5	-0.123663	25.5405	58.3014	80.348
  29	1	6	0.452517	21.6171	63.9897	84.2415
  30	1	6	0.453374	22.8199	62.2646	85.1946
  31	1	7	0.018948	22.0018	63.3659	85.4247
  32	1	8	-0.46698	20.9404	64.9945	84.1004
  33	1	8	-0.469385	23.3367	61.5248	86.0146
  34	1	3	-0.126657	20.744	65.3959	90.6862
  35	1	2	0.020988	23.1701	59.5518	77.0562
  36	1	6	0.027902	23.3732	59.4126	75.5905
  37	1	8	-0.378193	24.3684	59.7383	74.9639
  38	1	2	0.043573	21.906	59.0929	77.3652
  39	1	6	0.038038	21.2488	58.6324	76.1174
  40	1	7	0.4913	22.19	58.848	75.1111
  41	1	8	-0.382817	20.1256	58.1648	76.0216
  42	1	2	0.0054	24.0432	60.0252	78.0431
  43	1	2	-0.040988	21.4353	59.0927	78.6794
  44	1	2	-0.085341	23.6053	60.0467	79.3959
  45	1	4	0.154391	25.0332	60.3467	77.7386
  46	1	2	-0.205992	22.2947	59.5745	79.6876
  47	1	4	0.156637	20.44	58.7176	78.9083
  48	1	4	0.178085	21.9386	59.5602	80.7157
  49	1	10	0.05178	18.3074	63.0494	86.8295
  50	1	10	0.015669	19.4702	62.6037	85.5957
  51	1	10	0.036134	18.786	64.2405	85.6098
  52	1	11	0.101096	21.0472	64.6722	91.4522
  53	1	1	-0.196269	19.3024	65.6982	90.8304
  54	1	11	0.131285	21.3351	66.3079	90.8322
  55	1	3	-0.292673	18.5007	64.5559	90.3506
  56	1	3	-0.034798	17.9507	65.7839	88.3341
  57	1	12	0.194395	17.4439	64.6818	90.6227
  58	1	12	0.183693	18.8794	63.6068	90.7527
  59	1	2	-0.144532	19.1025	68.1297	91.1688
  60	1	2	0.128587	18.866	66.9616	90.4077
  61	1	2	0.222203	18.6577	69.3692	90.6776
  62	1	2	0.041795	18.1908	67.0494	89.1654
  63	1	2	-0.461017	17.9883	69.456	89.4473
  64	1	2	-0.140506	17.7537	68.297	88.6887
  65	1	4	0.148448	17.2408	68.3618	87.7313
  66	1	10	0.055442	19.5922	68.9838	93.113
  67	1	10	0.090839	19.4793	67.2195	93.1147
  68	1	3	-0.16304	19.8057	68.0839	92.5224
  69	1	10	0.039719	20.8936	68.0197	92.3989
  70	1	11	0.077452	16.8767	65.5628	88.3194
  71	1	11	0.09063	18.2662	65.9761	87.3009
  72	1	4	0.230266	17.6585	70.4268	89.0871
  73	1	1	-0.247122	21.8585	56.5895	69.028
  74	1	2	0.139112	22.9958	57.0573	68.3561
  75	1	2	0.02746	22.9281	57.6181	67.0579
  76	1	3	-0.077297	21.5918	57.7071	66.3133
  77	1	2	-0.08585	24.1122	58.1089	66.4576
  78	1	2	-0.195578	25.3429	58.0095	67.1313
  79	1	4	0.171692	26.2517	58.3863	66.6659
  80	1	2	-0.199822	25.4038	57.45	68.4165
  81	1	4	0.149498	26.3545	57.3935	68.94
  82	1	2	0.076729	24.2337	56.9884	69.0389
  83	1	2	-0.057821	24.1306	59.2094	62.9474
  84	1	2	-0.076852	24.2562	59.1556	61.5523
  85	1	4	0.145382	24.6133	58.2416	61.0831
  86	1	2	-0.023498	23.9037	60.2938	60.7787
  87	1	4	0.166076	22.979	62.3817	63.3883
  88	1	2	-0.140684	23.331	61.4918	62.8694
  89	1	2	-0.058922	23.6755	60.344	63.5861
  90	1	3	-0.101954	24.0627	60.233	59.2277
  91	1	2	-0.067123	23.4557	61.4599	61.4662
  92	1	4	0.142141	23.1936	62.3645	60.9307
  93	1	3	0.321219	23.3096	61.3923	58.469
  94	1	3	0.382784	25.6109	60.346	58.946
  95	1	5	-0.111948	22.0166	61.4825	58.8562
  96	1	5	-0.11115	23.2822	61.1853	57.1326
  97	1	5	-0.103632	23.8765	62.6062	58.6538
  98	1	5	-0.110272	26.2623	59.2115	59.2882
  99	1	5	-0.120305	26.1747	61.3432	59.6656
 100	1	5	-0.123663	25.9104	60.5973	57.6517
 101	1	6	0.452517	23.6314	60.077	65.0469
 102	1	6	0.453374	24.401	58.1749	63.9842
 103	1	7	0.018948	24.0704	58.7686	65.1973
 104	1	8	-0.46698	23.2402	60.8448	65.9097
 105	1	8	-0.469385	24.7926	57.0378	63.7856
 106	1	3	-0.126657	24.2927	56.4306	70.4678
 107	1	2	0.020988	23.2877	57.0782	57.1091
 108	1	6	0.027902	23.5838	56.2221	55.9329
 109	1	8	-0.378193	24.5133	56.3614	55.1546
 110	1	2	0.043573	22.1299	56.619	57.7019
 111	1	6	0.038038	21.6389	55.4433	56.9384
 112	1	7	0.4913	22.5576	55.2768	55.9025
 113	1	8	-0.382817	20.6254	54.803	57.1665
 114	1	2	0.0054	23.9596	58.2112	57.5805
 115	1	2	-0.040988	21.5715	57.2762	58.8002
 116	1	2	-0.085341	23.4341	58.9075	58.7026
 117	1	4	0.154391	24.8447	58.5392	57.0468
 118	1	2	-0.205992	22.2275	58.4268	59.2861
 119	1	4	0.156637	20.6429	56.9195	59.241
 120	1	4	0.178085	21.7718	58.963	60.1158
 121	1	10	0.05178	20.8894	56.9277	66.632
 122	1	10	0.015669	21.7145	57.583	65.2307
 123	1	10	0.036134	21.1158	58.6799	66.4886
 124	1	11	0.101096	24.8702	55.4985	70.4655
 125	1	1	-0.196269	22.9386	56.1727	71.0132
 126	1	11	0.131285	24.8199	57.1501	71.1067
 127	1	3	-0.292673	22.0997	55.5053	70.0005
 128	1	3	-0.034798	20.9445	57.6048	69.6006
 129	1	12	0.194395	21.1599	55.1507	70.4458
 130	1	12	0.183693	22.633	54.6661	69.5336
 131	1	2	-0.144532	22.6304	57.4951	73.0765
 132	1	2	0.128587	22.3093	57.2032	71.7267
 133	1	2	0.222203	21.9412	58.5448	73.738
 134	1	2	0.041795	21.3095	57.9434	71.0509
 135	1	2	-0.461017	20.953	59.2791	73.0444
 136	1	2	-0.140506	20.6389	58.9821	71.7105
 137	1	4	0.148448	19.867	59.5454	71.1895
 138	1	10	0.055442	23.8378	55.6784	73.3773
 139	1	10	0.090839	24.6525	57.1802	73.8345
 140	1	3	-0.16304	23.6822	56.6663	73.827
 141	1	10	0.039719	23.3916	56.4822	74.8687
 142	1	11	0.077452	19.915	57.2282	69.5681
 143	1	11	0.09063	20.9813	58.5257	69.0054
 144	1	4	0.230266	20.4072	60.0697	73.5567
 145	1	1	-0.247122	23.2415	50.6383	51.4418
 146	1	2	0.139112	24.2848	51.1715	50.6685
 147	1	2	0.02746	24.2355	51.2076	49.2528
 148	1	3	-0.077297	23.0625	50.569	48.5015
 149	1	2	-0.08585	25.2964	51.8221	48.542
 150	1	2	-0.195578	26.3973	52.3556	49.2371
 151	1	4	0.171692	27.2195	52.8125	48.6893
 152	1	2	-0.199822	26.4502	52.2998	50.6362
 153	1	4	0.149498	27.3027	52.718	51.1653
 154	1	2	0.076729	25.3972	51.7165	51.3545
 155	1	2	-0.057821	25.8514	51.6464	44.9148
 156	1	2	-0.076852	26.4365	51.2721	43.7011
 157	1	4	0.145382	27.2888	50.5962	43.7082
 158	1	2	-0.023498	25.8942	51.7673	42.4869
 159	1	4	0.166076	23.3724	53.718	43.8482
 160	1	2	-0.140684	24.2192	53.0359	43.7965
 161	1	2	-0.058922	24.7716	52.5015	44.965
 162	1	3	-0.101954	26.5453	51.3187	41.145
 163	1	2	-0.067123	24.7897	52.6651	42.5602
 164	1	4	0.142141	24.352	53.0896	41.6638
 165	1	3	0.321219	25.6336	51.5584	39.8817
 166	1	3	0.382784	27.8708	52.1616	40.9967
 167	1	5	-0.111948	24.3868	51.0669	40.0621
 168	1	5	-0.11115	26.1271	50.9357	38.787
 169	1	5	-0.103632	25.5054	52.8644	39.5557
 170	1	5	-0.110272	28.7994	51.8023	41.9122
 171	1	5	-0.120305	27.645	53.4816	41.1887
 172	1	5	-0.123663	28.4476	52.0434	39.7796
 173	1	6	0.452517	24.3962	52.694	46.3923
 174	1	6	0.453374	26.2034	51.2576	46.3046
 175	1	7	0.018948	25.2911	51.9161	47.1201
 176	1	8	-0.46698	23.4876	53.3917	46.8107
 177	1	8	-0.469385	27.1117	50.5149	46.6357
 178	1	3	-0.126657	25.4486	51.6864	52.8857
 179	1	2	0.020988	28.117	47.7754	40.907
 180	1	6	0.027902	29.2504	46.8913	40.5367
 181	1	8	-0.378193	30.2892	47.2374	39.9978
 182	1	2	0.043573	27.1191	46.9966	41.4561
 183	1	6	0.038038	27.5725	45.5838	41.4739
 184	1	7	0.4913	28.8521	45.6097	40.9214
 185	1	8	-0.382817	26.9402	44.6247	41.8856
 186	1	2	0.0054	27.9819	49.1616	40.7711
 187	1	2	-0.040988	25.9145	47.5574	41.8821
 188	1	2	-0.085341	26.7864	49.7815	41.2253
 189	1	4	0.154391	28.8021	49.7155	40.3274
 190	1	2	-0.205992	25.7566	48.9522	41.7547
 191	1	4	0.156637	25.1307	46.9292	42.2996
 192	1	4	0.178085	24.8182	49.3937	42.0836
 193	1	10	0.05178	22.6152	49.7426	49.0669
 194	1	10	0.015669	23.3726	50.1463	47.5384
 195	1	10	0.036134	22.2738	51.3063	48.308
 196	1	11	0.101096	26.2251	50.982	53.2069
 197	1	1	-0.196269	24.1432	51.2869	53.4573
 198	1	11	0.131285	25.7284	52.6836	53.2486
 199	1	3	-0.292673	23.6336	50.0923	52.7564
 200	1	3	-0.034798	22.0211	51.4649	51.5858
 201	1	12	0.194395	22.7713	49.6668	53.2869
 202	1	12	0.183693	24.4174	49.3308	52.6474
 203	1	2	-0.144532	23.3474	53.2249	54.7582
 204	1	2	0.128587	23.2116	52.3109	53.6835
 205	1	2	0.222203	22.4216	54.292	54.8777
 206	1	2	0.041795	22.1461	52.4413	52.7609
 207	1	2	-0.461017	21.3559	54.3998	53.9557
 208	1	2	-0.140506	21.2141	53.4778	52.9081
 209	1	4	0.148448	20.3943	53.574	52.1988
 210	1	10	0.055442	24.1558	53.3343	56.7969
 211	1	10	0.090839	24.8235	52.0188	55.8514
 212	1	3	-0.16304	24.4758	53.0574	55.7851
 213	1	10	0.039719	25.3403	53.6799	55.5226
 214	1	11	0.077452	21.1531	50.8149	51.7505
 215	1	11	0.09063	21.8414	52.038	50.6675
 216	1	4	0.230266	20.633	55.2076	54.057
 217	1	1	-0.247122	33.4244	41.0573	40.4744
 218	1	2	0.139112	34.3678	41.7114	39.6663
 219	1	2	0.02746	34.9533	41.0924	38.5349
 220	1	3	-0.077297	34.6306	39.6363	38.1828
 221	1	2	-0.08585	35.8504	41.8356	37.7297
 222	1	2	-0.195578	36.1805	43.1593	38.07
 223	1	4	0.171692	36.877	43.7245	37.4535
 224	1	2	-0.199822	35.607	43.764	39.1976
 225	1	4	0.149498	35.8561	44.7919	39.4487
 226	1	2	0.076729	34.6952	43.0508	39.9898
 227	1	2	-0.057821	37.8404	40.1949	35.114
 228	1	2	-0.076852	38.9098	39.5102	34.5223
 229	1	4	0.145382	39.8206	39.3893	35.0988
 230	1	2	-0.023498	38.7492	38.9821	33.2124
 231	1	4	0.166076	35.5017	40.0563	32.6439
 232	1	2	-0.140684	36.4504	39.9056	33.1554
 233	1	2	-0.058922	36.6431	40.382	34.455
 234	1	3	-0.101954	39.8523	38.1561	32.4824
 235	1	2	-0.067123	37.5127	39.2104	32.544
 236	1	4	0.142141	37.3615	38.82	31.5408
 237	1	3	0.321219	40.4365	39.0937	31.3556
 238	1	3	0.382784	41.0243	37.6895	33.4286
 239	1	5	-0.111948	39.5569	39.2725	30.3446
 240	1	5	-0.11115	41.5778	38.6282	30.8007
 241	1	5	-0.103632	40.7206	40.3253	31.8365
 242	1	5	-0.110272	40.5578	37.0423	34.5212
 243	1	5	-0.120305	41.7949	38.7134	33.8608
 244	1	5	-0.123663	41.8523	36.8164	32.8108
 245	1	6	0.452517	35.7087	41.0876	35.3725
 246	1	6	0.453374	37.7151	40.7804	36.4761
 247	1	7	0.018948	36.4174	41.2704	36.5532
 248	1	8	-0.46698	34.5459	41.3711	35.139
 249	1	8	-0.469385	38.5672	40.7674	37.3478
 250	1	3	-0.126657	34.0338	43.7345	41.1919
 251	1	2	0.020988	38.9678	35.0729	30.2959
 252	1	6	0.027902	39.2072	34.2347	29.0921
 253	1	8	-0.378193	39.9978	34.4672	28.1925
 254	1	2	0.043573	38.0148	34.4489	31.0753
 255	1	6	0.038038	37.5958	33.1941	30.4044
 256	1	7	0.4913	38.3643	33.1339	29.2432
 257	1	8	-0.382817	36.7807	32.387	30.8208
 258	1	2	0.0054	39.5768	36.2696	30.6937
 259	1	2	-0.040988	37.6248	34.9773	32.3063
 260	1	2	-0.085341	39.1965	36.8551	31.932
 261	1	4	0.154391	40.3369	36.7001	30.0505
 262	1	2	-0.205992	38.2302	36.1773	32.7293
 263	1	4	0.156637	36.8921	34.4597	32.9219
 264	1	4	0.178085	37.9497	36.5741	33.7027
 265	1	10	0.05178	34.2866	39.0648	39.0531
 266	1	10	0.015669	35.5106	39.1063	37.7986
 267	1	10	0.036134	33.8457	39.5853	37.418
 268	1	11	0.101096	34.7839	43.8945	41.9756
 269	1	1	-0.196269	32.9188	42.9197	41.7257
 270	1	11	0.131285	33.6623	44.7179	40.8771
 271	1	3	-0.292673	33.3517	41.5171	41.8757
 272	1	3	-0.034798	32.0582	40.904	39.9257
 273	1	12	0.194395	32.6128	40.9408	42.4492
 274	1	12	0.183693	34.3343	41.4541	42.3621
 275	1	2	-0.144532	30.8739	44.2626	41.4176
 276	1	2	0.128587	31.6551	43.1123	41.1472
 277	1	2	0.222203	29.6463	44.4399	40.7291
 278	1	2	0.041795	31.1972	42.1333	40.2328
 279	1	2	-0.461017	29.1965	43.4446	39.8325
 280	1	2	-0.140506	29.963	42.2959	39.5897
 281	1	4	0.148448	29.6114	41.5382	38.8917
 282	1	10	0.055442	30.5076	45.733	43.0092
 283	1	10	0.090839	32.0054	44.8466	43.2081
 284	1	3	-0.16304	31.3448	45.2925	42.4537
 285	1	10	0.039719	31.8974	46.1093	41.9727
 286	1	11	0.077452	31.5839	40.0155	40.3595
 287	1	11	0.09063	32.0987	40.7658	38.8381
 288	1	4	0.230266	28.2403	43.5654	39.3256
 289	1	1	-0.247122	39.0169	27.5815	25.9358
 290	1	2	0.139112	40.2675	27.6086	25.3038
 291	1	2	0.02746	40.4661	27.1238	23.9863
 292	1	3	-0.077297	39.2993	26.5095	23.2071
 293	1	2	-0.08585	41.7652	27.1861	23.4209
 294	1	2	-0.195578	42.8313	27.7261	24.1656
 295	1	4	0.171692	43.8324	27.7593	23.7388
 296	1	2	-0.199822	42.6301	28.1922	25.4702
 297	1	4	0.149498	43.4659	28.5894	26.04
 298	1	2	0.076729	41.3545	28.1301	26.0446
 299	1	2	-0.057821	43.1843	25.5789	20.4487
 300	1	2	-0.076852	44.1023	24.8244	19.7119
 301	1	4	0.145382	44.7783	24.1763	20.259
 302	1	2	-0.023498	44.1431	24.9741	18.301
 303	1	4	0.166076	41.6573	27.3747	17.997
 304	1	2	-0.140684	42.3213	26.649	18.4632
 305	1	2	-0.058922	42.3273	26.4779	19.8517
 306	1	3	-0.101954	45.1999	24.256	17.4086
 307	1	2	-0.067123	43.2303	25.8864	17.6983
 308	1	4	0.142141	43.2463	26.0311	16.6209
 309	1	3	0.321219	46.2413	25.3683	16.9928
 310	1	3	0.382784	45.9591	23.0865	18.1463
 311	1	5	-0.111948	45.7316	26.2106	16.0659
 312	1	5	-0.11115	47.3929	24.8775	16.4827
 313	1	5	-0.103632	46.597	26.1332	18.0507
 314	1	5	-0.110272	45.0932	22.2079	18.7018
 315	1	5	-0.120305	46.7852	23.5237	19.1238
 316	1	5	-0.123663	46.724	22.3621	17.2974
 317	1	6	0.452517	41.5851	27.1954	20.927
 318	1	6	0.453374	43.0109	25.6729	21.9181
 319	1	7	0.018948	42.069	26.6742	22.1242
 320	1	8	-0.46698	40.7903	28.1065	20.7681
 321	1	8	-0.469385	43.6448	25.0488	22.7523
 322	1	3	-0.126657	41.1495	28.6145	27.4837
 323	1	2	0.020988	42.607	22.3259	15.3112
 324	1	6	0.027902	41.3188	21.5902	15.2458
 325	1	8	-0.378193	40.4926	21.4964	16.1385
 326	1	2	0.043573	43.2534	22.1787	14.1015
 327	1	6	0.038038	42.4226	21.3261	13.2176
 328	1	7	0.4913	41.2884	21.0236	13.9713
 329	1	8	-0.382817	42.7283	20.9272	12.1054
 330	1	2	0.0054	43.197	23.0111	16.3787
 331	1	2	-0.040988	44.5148	22.7322	13.88
 332	1	2	-0.085341	44.4789	23.5962	16.1986
 333	1	4	0.154391	42.6771	23.0496	17.3325
 334	1	2	-0.205992	45.119	23.4447	14.9352
 335	1	4	0.156637	45.0207	22.5861	12.9279
 336	1	4	0.178085	46.1154	23.8369	14.7618
 337	1	10	0.05178	38.7785	27.2775	22.6222
 338	1	10	0.015669	38.5627	26.0404	23.8708
 339	1	10	0.036134	39.6294	25.7257	22.5154
 340	1	11	0.101096	41.7227	27.9717	28.1623
 341	1	1	-0.196269	39.7208	28.5982	27.8752
 342	1	11	0.131285	41.5493	29.6329	27.5695
 343	1	3	-0.292673	39.0603	27.37	27.3963
 344	1	3	-0.034798	38.0538	28.6557	25.5916
 345	1	12	0.194395	38.0496	27.282	27.8178
 346	1	12	0.183693	39.6501	26.4784	27.6489
 347	1	2	-0.144532	39.0852	30.8699	28.5874
 348	1	2	0.128587	38.9939	29.779	27.6883
 349	1	2	0.222203	38.3222	32.0359	28.3341
 350	1	2	0.041795	38.1564	29.8513	26.5501
 351	1	2	-0.461017	37.4985	32.1021	27.188
 352	1	2	-0.140506	37.4162	31.0166	26.3011
 353	1	4	0.148448	36.7773	31.073	25.4219
 354	1	10	0.055442	39.37	30.94	30.7522
 355	1	10	0.090839	40.4828	29.8407	29.9588
 356	1	3	-0.16304	39.9674	30.8009	29.8423
 357	1	10	0.039719	40.74	31.5801	29.8228
 358	1	11	0.077452	37.0338	28.2543	25.6319
 359	1	11	0.09063	38.2334	29.0057	24.5672
 360	1	4	0.230266	36.9161	33.0002	26.9904
 361	1	1	-0.247122	36.5241	17.7889	10.9522
 362	1	2	0.139112	35.2882	18.3556	11.2891
 363	1	2	0.02746	34.1346	17.5722	11.5364
 364	1	3	-0.077297	34.1939	16.0431	11.4345
 365	1	2	-0.08585	32.9113	18.227	11.8275
 366	1	2	-0.195578	32.861	19.6299	11.9169
 367	1	4	0.171692	31.9233	20.1286	12.1569
 368	1	2	-0.199822	34.0091	20.3974	11.6806
 369	1	4	0.149498	33.9586	21.4814	11.7363
 370	1	2	0.076729	35.2178	19.767	11.3532
 371	1	2	-0.057821	29.8768	16.1792	11.561
 372	1	2	-0.076852	28.9163	15.3415	10.9868
 373	1	4	0.145382	29.0239	15.0448	9.94558
 374	1	2	-0.023498	27.8273	14.8934	11.7772
 375	1	4	0.166076	28.6693	16.5164	14.7226
 376	1	2	-0.140684	28.7301	16.1834	13.6881
 377	1	2	-0.058922	29.7961	16.5821	12.8764
 378	1	3	-0.101954	26.7717	13.9591	11.1183
 379	1	2	-0.067123	27.7441	15.345	13.1268
 380	1	4	0.142141	26.9181	15.0549	13.7664
 381	1	3	0.321219	25.8414	13.2187	12.1542
 382	1	3	0.382784	25.8836	14.8799	10.1941
 383	1	5	-0.111948	25.1057	12.2513	11.5608
 384	1	5	-0.11115	24.9658	14.0447	12.7701
 385	1	5	-0.103632	26.5566	12.6018	13.1222
 386	1	5	-0.110272	25.4477	15.9755	10.8566
 387	1	5	-0.120305	24.7825	14.2582	9.71498
 388	1	5	-0.123663	26.5736	15.3392	9.1256
 389	1	6	0.452517	30.9725	17.4442	13.1726
 390	1	6	0.453374	31.0963	16.7776	10.964
 391	1	7	0.018948	31.6983	17.4988	11.9887
 392	1	8	-0.46698	31.221	17.9874	14.2356
 393	1	8	-0.469385	31.4666	16.6532	9.80884
 394	1	3	-0.126657	36.4589	20.6148	11.0556
 395	1	2	0.020988	29.3202	11.1846	10.3119
 396	1	6	0.027902	30.448	10.3272	10.7622
 397	1	8	-0.378193	31.0088	10.3788	11.8446
 398	1	2	0.043573	28.9451	10.784	9.04679
 399	1	6	0.038038	29.8094	9.65492	8.63011
 400	1	7	0.4913	30.6713	9.44121	9.70734
 401	1	8	-0.382817	29.7103	9.01635	7.59402
 402	1	2	0.0054	28.6383	12.2025	10.9866
 403	1	2	-0.040988	27.8689	11.3767	8.38502
 404	1	2	-0.085341	27.5436	12.8461	10.3487
 405	1	4	0.154391	28.9516	12.4726	11.9918
 406	1	2	-0.205992	27.1704	12.4077	9.04567
 407	1	4	0.156637	27.5749	11.0331	7.39562
 408	1	4	0.178085	26.3252	12.843	8.52369
 409	1	10	0.05178	33.984	15.718	10.408
 410	1	10	0.015669	33.4686	15.5568	12.0977
 411	1	10	0.036134	35.1728	15.6381	11.7097
 412	1	11	0.101096	36.2716	21.2198	10.1605
 413	1	1	-0.196269	37.6679	19.7831	10.8435
 414	1	11	0.131285	36.6196	21.3001	11.8972
 415	1	3	-0.292673	37.3483	18.5948	10.0296
 416	1	3	-0.034798	37.3515	17.2499	12.0588
 417	1	12	0.194395	38.2643	18.0601	9.743
 418	1	12	0.183693	36.7802	18.8698	9.13085
 419	1	2	-0.144532	39.4291	20.4873	12.4206
 420	1	2	0.128587	38.4869	19.5381	11.952
 421	1	2	0.222203	40.257	20.1465	13.5208
 422	1	2	0.041795	38.3536	18.2818	12.5886
 423	1	2	-0.461017	40.0903	18.8996	14.1644
 424	1	2	-0.140506	39.1429	17.974	13.7048
 425	1	4	0.148448	39.028	17.0121	14.2009
 426	1	10	0.055442	40.4354	21.8114	11.0107
 427	1	10	0.090839	38.7136	22.1434	11.1462
 428	1	3	-0.16304	39.5974	21.8427	11.7186
 429	1	10	0.039719	39.789	22.6513	12.4346
 430	1	11	0.077452	37.8993	16.3675	11.7056
 431	1	11	0.09063	36.7083	16.9319	12.8892
 432	1	4	0.230266	40.7081	18.6482	15.0254
 433	1	1	-0.247122	34.2662	4.38553	8.21021
 434	1	2	0.139112	33.3674	4.02358	7.18734
 435	1	2	0.02746	32.7633	2.74184	7.12287
 436	1	3	-0.077297	33.1786	1.62874	8.08929
 437	1	2	-0.08585	31.7616	2.49752	6.15094
 438	1	2	-0.195578	31.4199	3.49344	5.21896
 439	1	4	0.171692	30.6545	3.30229	4.46905
 440	1	2	-0.199822	32.0374	4.7491	5.26603
 441	1	4	0.149498	31.7465	5.52373	4.56109
 442	1	2	0.076729	32.9912	5.02348	6.25577
 443	1	2	-0.057821	29.4731	-0.333977	6.63889
 444	1	2	-0.076852	28.4385	-1.09189	7.20335
 445	1	4	0.145382	27.9981	-0.750105	8.13438
 446	1	2	-0.023498	27.991	-2.25705	6.5256
 447	1	4	0.166076	30.1002	-2.0685	3.77922
 448	1	2	-0.140684	29.6459	-1.81415	4.73469
 449	1	2	-0.058922	30.0587	-0.679731	5.43888
 450	1	3	-0.101954	26.8128	-3.13603	7.04079
 451	1	2	-0.067123	28.6108	-2.59464	5.28863
 452	1	4	0.142141	28.2746	-3.46868	4.73688
 453	1	3	0.321219	26.4889	-2.93367	8.57173
 454	1	3	0.382784	25.5533	-2.7183	6.1878
 455	1	5	-0.111948	25.6433	-3.88559	9.02845
 456	1	5	-0.11115	25.9075	-1.74415	8.84514
 457	1	5	-0.103632	27.5995	-3.01969	9.33861
 458	1	5	-0.110272	24.3964	-3.24398	6.64903
 459	1	5	-0.120305	25.6749	-3.09945	4.89588
 460	1	5	-0.123663	25.3857	-1.37645	6.1678
 461	1	6	0.452517	31.0689	0.357108	5.09316
 462	1	6	0.453374	30.0933	0.933653	7.10617
 463	1	7	0.018948	31.0209	1.28082	6.12968
 464	1	8	-0.46698	31.7467	0.395224	4.08046
 465	1	8	-0.469385	29.8072	1.54098	8.12415
 466	1	3	-0.126657	33.5734	6.43398	6.36628
 467	1	2	0.020988	26.7801	-6.94502	6.26758
 468	1	6	0.027902	26.0757	-8.16052	5.7794
 469	1	8	-0.378193	24.9306	-8.21544	5.36228
 470	1	2	0.043573	28.0489	-7.31005	6.66875
 471	1	6	0.038038	28.2152	-8.76712	6.45364
 472	1	7	0.4913	27.0003	-9.19609	5.92107
 473	1	8	-0.382817	29.2106	-9.4263	6.70691
 474	1	2	0.0054	26.3313	-5.62235	6.36403
 475	1	2	-0.040988	28.9427	-6.3762	7.19517
 476	1	2	-0.085341	27.2155	-4.63156	6.87346
 477	1	4	0.154391	25.3174	-5.40178	6.04835
 478	1	2	-0.205992	28.5137	-5.03748	7.29301
 479	1	4	0.156637	29.9336	-6.68438	7.52185
 480	1	4	0.178085	29.2035	-4.30643	7.71011
 481	1	10	0.05178	34.2004	1.76919	8.4626
 482	1	10	0.015669	33.1602	0.644806	7.60513
 483	1	10	0.036134	32.5069	1.58956	8.9555
 484	1	11	0.101096	34.3251	6.58131	5.58153
 485	1	1	-0.196269	34.1839	6.63557	7.69833
 486	1	11	0.131285	32.767	7.15719	6.20097
 487	1	3	-0.292673	35.1482	5.54067	7.93365
 488	1	3	-0.034798	33.6989	4.5498	9.56573
 489	1	12	0.194395	35.793	5.77028	8.79262
 490	1	12	0.183693	35.7673	5.3568	7.04492
 491	1	2	-0.144532	32.6041	8.17084	8.81525
 492	1	2	0.128587	33.3008	6.93754	8.752
 493	1	2	0.222203	31.563	8.32837	9.76546
 494	1	2	0.041795	33.0155	5.91331	9.68874
 495	1	2	-0.461017	31.3178	7.30866	10.7113
 496	1	2	-0.140506	32.0515	6.11538	10.6855
 497	1	4	0.148448	31.8311	5.32102	11.3958
 498	1	10	0.055442	34.0101	9.27514	7.54635
 499	1	10	0.090839	32.3398	9.29434	6.95482
 500	1	3	-0.16304	32.9593	9.3183	7.86019
 501	1	10	0.039719	32.8227	10.2984	8.33402
 502	1	11	0.077452	34.4947	4.47215	10.3165
 503	1	11	0.09063	32.9634	3.76425	9.77418
 504	1	4	0.230266	30.5275	7.43307	11.4502
 505	1	1	-0.247122	26.1594	-15.114	3.36611
 506	1	2	0.139112	24.8437	-15.2334	2.90226
 507	1	2	0.02746	24.0566	-16.3888	3.13757
 508	1	3	-0.077297	24.6309	-17.6081	3.87161
 509	1	2	-0.08585	22.716	-16.4115	2.67995
 510	1	2	-0.195578	22.1825	-15.3032	1.99676
 511	1	4	0.171692	21.1463	-15.3151	1.66465
 512	1	2	-0.199822	22.9694	-14.1657	1.76259
 513	1	4	0.149498	22.5448	-13.3084	1.24664
 514	1	2	0.076729	24.295	-14.1213	2.21974
 515	1	2	-0.057821	20.9767	-19.6289	3.0905
 516	1	2	-0.076852	20.7234	-21.0024	2.9774
 517	1	4	0.145382	21.318	-21.5782	2.27638
 518	1	2	-0.023498	19.7222	-21.5874	3.79923
 519	1	4	0.166076	18.773	-18.7362	5.52774
 520	1	2	-0.140684	19.2992	-19.3679	4.81478
 521	1	2	-0.058922	20.2918	-18.8363	3.98738
 522	1	3	-0.101954	19.3966	-23.1106	3.78824
 523	1	2	-0.067123	19.0244	-20.7457	4.71141
 524	1	4	0.142141	18.2625	-21.1685	5.36158
 525	1	3	0.321219	19.9362	-23.8645	2.51421
 526	1	3	0.382784	20.0822	-23.712	5.07715
 527	1	5	-0.111948	19.4397	-25.12	2.43149
 528	1	5	-0.11115	21.2832	-23.9829	2.49691
 529	1	5	-0.103632	19.5693	-23.2409	1.37187
 530	1	5	-0.110272	21.3658	-23.302	5.19583
 531	1	5	-0.120305	20.1109	-25.0636	5.09313
 532	1	5	-0.123663	19.4546	-23.3182	6.20861
 533	1	6	0.452517	20.8464	-17.4591	3.91324
 534	1	6	0.453374	21.9844	-18.7798	2.39897
 535	1	7	0.018948	21.861	-17.5154	2.96611
 536	1	8	-0.46698	20.4975	-16.506	4.5888
 537	1	8	-0.469385	22.7691	-19.1486	1.54194
 538	1	3	-0.126657	25.1388	-12.8562	2.00285
 539	1	2	0.020988	15.7899	-24.3781	4.43683
 540	1	6	0.027902	14.8664	-25.325	5.10559
 541	1	8	-0.378193	15.1835	-26.2297	5.86089
 542	1	2	0.043573	15.0458	-23.5255	3.64755
 543	1	6	0.038038	13.6102	-23.8836	3.78343
 544	1	7	0.4913	13.5919	-24.9574	4.67227
 545	1	8	-0.382817	12.6702	-23.3402	3.22663
 546	1	2	0.0054	17.1829	-24.2883	4.51732
 547	1	2	-0.040988	15.6604	-22.5375	2.87591
 548	1	2	-0.085341	17.8488	-23.2793	3.77201
 549	1	4	0.154391	17.7065	-24.9996	5.14679
 550	1	2	-0.205992	17.0653	-22.4289	2.94053
 551	1	4	0.156637	15.0656	-21.8825	2.24307
 552	1	4	0.178085	17.5504	-21.6709	2.32849
 553	1	10	0.05178	24.7694	-18.4474	3.17941
 554	1	10	0.015669	23.9618	-17.9399	4.67522
 555	1	10	0.036134	25.6071	-17.4234	4.33144
 556	1	11	0.101096	25.3179	-12.7267	0.928717
 557	1	1	-0.196269	26.4381	-12.9255	2.71512
 558	1	11	0.131285	24.5679	-11.987	2.35367
 559	1	3	-0.292673	27.0443	-14.2595	2.54989
 560	1	3	-0.034798	26.3346	-14.8239	4.80929
 561	1	12	0.194395	28.073	-14.271	2.9349
 562	1	12	0.183693	27.0356	-14.5725	1.49707
 563	1	2	-0.144532	26.6657	-11.0152	4.26579
 564	1	2	0.128587	26.5021	-12.4008	4.01353
 565	1	2	0.222203	26.7416	-10.5642	5.60896
 566	1	2	0.041795	26.4342	-13.3205	5.08636
 567	1	2	-0.461017	26.6372	-11.4934	6.66776
 568	1	2	-0.140506	26.4857	-12.8626	6.40964
 569	1	4	0.148448	26.4317	-13.5737	7.2316
 570	1	10	0.055442	27.6036	-9.28617	3.29652
 571	1	10	0.090839	27.0628	-10.5051	2.15919
 572	1	3	-0.16304	26.8082	-10.0179	3.10829
 573	1	10	0.039719	25.8723	-9.46607	2.95222
 574	1	11	0.077452	27.2472	-15.3138	5.17035
 575	1	11	0.09063	25.4898	-15.229	5.38096
 576	1	4	0.230266	26.7142	-11.1506	7.69824
 577	1	1	-0.247122	9.02436	-28.2601	7.77842
 578	1	2	0.139112	9.8687	-29.2378	8.33302
 579	1	2	0.02746	9.58356	-30.6254	8.26156
 580	1	3	-0.077297	8.28387	-31.1464	7.63609
 581	1	2	-0.08585	10.5104	-31.5474	8.80836
 582	1	2	-0.195578	11.7011	-31.0942	9.40244
 583	1	4	0.171692	12.414	-31.807	9.81272
 584	1	2	-0.199822	11.9741	-29.7228	9.48027
 585	1	4	0.149498	12.8947	-29.3784	9.94422
 586	1	2	0.076729	11.0631	-28.7954	8.95465
 587	1	2	-0.057821	9.35775	-34.992	9.30915
 588	1	2	-0.076852	8.61323	-36.0484	9.8394
 589	1	4	0.145382	7.88221	-35.8206	10.6069
 590	1	2	-0.023498	8.86112	-37.3693	9.38298
 591	1	4	0.166076	11.4129	-36.6316	7.15164
 592	1	2	-0.140684	10.6283	-36.4782	7.89011
 593	1	2	-0.058922	10.3242	-35.1913	8.34748
 594	1	3	-0.101954	8.09044	-38.5858	9.97745
 595	1	2	-0.067123	9.90483	-37.5627	8.43239
 596	1	4	0.142141	10.1625	-38.5669	8.10517
 597	1	3	0.321219	8.90048	-39.0197	11.259
 598	1	3	0.382784	6.60909	-38.2236	10.3832
 599	1	5	-0.111948	9.21567	-37.9654	12.0454
 600	1	5	-0.11115	10.0745	-39.6	10.921
 601	1	5	-0.103632	8.22666	-39.8848	12.0503
 602	1	5	-0.110272	5.86171	-39.3322	10.5901
 603	1	5	-0.120305	5.9906	-37.522	9.40618
 604	1	5	-0.123663	6.51512	-37.4976	11.5193
 605	1	6	0.452517	10.9113	-33.8668	8.00194
 606	1	6	0.453374	9.30824	-33.5453	9.6339
 607	1	7	0.018948	10.2488	-32.9463	8.80664
 608	1	8	-0.46698	11.7842	-33.6568	7.1773
 609	1	8	-0.469385	8.5886	-33.0179	10.465
 610	1	3	-0.126657	11.3801	-27.2996	9.03803
 611	1	2	0.020988	7.8595	-42.0639	8.28532
 612	1	6	0.027902	7.87118	-43.5366	8.41834
 613	1	8	-0.378193	8.09416	-44.1651	9.44018
 614	1	2	0.043573	7.54359	-41.7398	6.98317
 615	1	6	0.038038	7.34995	-43.0031	6.21723
 616	1	7	0.4913	7.56154	-44.0206	7.14874
 617	1	8	-0.382817	7.06187	-43.1013	5.03565
 618	1	2	0.0054	8.07524	-41.0929	9.2644
 619	1	2	-0.040988	7.414	-40.4038	6.59177
 620	1	2	-0.085341	7.96416	-39.7216	8.91431
 621	1	4	0.154391	8.29372	-41.4325	10.27
 622	1	2	-0.205992	7.61246	-39.4029	7.57034
 623	1	4	0.156637	7.14326	-40.1545	5.56782
 624	1	4	0.178085	7.47602	-38.3627	7.27947
 625	1	10	0.05178	8.48676	-31.9501	6.91764
 626	1	10	0.015669	7.71572	-30.3793	7.10096
 627	1	10	0.036134	7.61553	-31.5454	8.40831
 628	1	11	0.101096	11.267	-26.9642	10.0759
 629	1	1	-0.196269	10.4833	-26.5184	8.15884
 630	1	11	0.131285	12.4263	-27.1457	8.74673
 631	1	3	-0.292673	9.08519	-26.9236	8.40468
 632	1	3	-0.034798	9.04312	-28.1096	6.30541
 633	1	12	0.194395	8.38576	-26.225	7.92612
 634	1	12	0.183693	8.8719	-26.9845	9.48038
 635	1	2	-0.144532	11.9669	-25.5965	6.4214
 636	1	2	0.128587	10.8709	-26.4022	6.81497
 637	1	2	0.222203	12.407	-25.6403	5.07482
 638	1	2	0.041795	10.1895	-27.1964	5.86205
 639	1	2	-0.461017	11.7005	-26.4177	4.1304
 640	1	2	-0.140506	10.5916	-27.1837	4.51907
 641	1	4	0.148448	10.0647	-27.7964	3.79005
 642	1	10	0.055442	13.0123	-23.7511	6.98771
 643	1	10	0.090839	12.0077	-24.4062	8.26616
 644	1	3	-0.16304	12.6721	-24.6906	7.4404
 645	1	10	0.039719	13.5464	-25.191	7.8752
 646	1	11	0.077452	8.09046	-27.6856	5.96565
 647	1	11	0.09063	9.16488	-29.0878	5.82442
 648	1	4	0.230266	12.0259	-26.4362	3.09143