pySIMM System Object

3242 atoms
3601 bonds
6480 angles
9986 dihedrals
900 impropers

12 atom types
15 bond types
28 angle types
9 dihedral types
4 improper types

-232.585530 232.585530 xlo xhi
-232.585530 232.585530 ylo yhi
-232.585530 232.585530 zlo zhi

Masses

   1	14.01	# nh
   2	12.01	# ca
   3	12.01	# c3
   4	1.008	# ha
   5	19.0	# f
   6	12.01	# c
   7	14.01	# n
   8	16.0	# o
   9	1.008	# hn
  10	1.008	# hc
  11	1.008	# h1
  12	1.008	# h2

Pair Coeffs

   1	0.17	3.249998523775958	# nh
   2	0.086	3.3996695084235347	# ca
   3	0.1094	3.3996695084235347	# c3
   4	0.015	2.59964245953351	# ha
   5	0.061	3.1181455134911875	# f
   6	0.086	3.3996695084235347	# c
   7	0.17	3.249998523775958	# n
   8	0.21	2.959921901149463	# o
   9	0.0157	1.069078461768407	# hn
  10	0.0157	2.649532787749369	# hc
  11	0.0157	2.471353044121301	# h1
  12	0.0157	2.2931733004932333	# h2

Bond Coeffs

   1	356.9	1.3497	# c3,f
   2	403.2	1.0129	# hn,n
   3	417.9	1.3859	# ca,nh
   4	300.9	1.5375	# c3,c3
   5	384.2	1.4121	# ca,n
   6	330.6	1.0969	# c3,h1
   7	461.1	1.3984	# ca,ca
   8	326.6	1.464	# c3,nh
   9	427.6	1.3789	# c,n
  10	331.7	1.0961	# c3,h2
  11	345.9	1.4906	# c,ca
  12	345.8	1.086	# ca,ha
  13	321.0	1.5156	# c3,ca
  14	330.6	1.0969	# c3,hc
  15	637.7	1.2183	# c,o

Angle Coeffs

   1	71.11	105.87	# nh,c3,nh
   2	63.25	114.51	# c3,nh,c3
   3	74.22	123.05	# n,c,o
   4	66.62	120.02	# ca,ca,ca
   5	68.29	120.95	# ca,ca,nh
   6	49.52	110.01	# h2,c3,nh
   7	68.72	122.6	# ca,c,o
   8	49.57	109.79	# h1,c3,nh
   9	67.68	115.25	# ca,c,n
  10	66.46	111.39	# ca,c3,nh
  11	48.33	117.55	# c,n,hn
  12	64.28	120.33	# c,ca,ca
  13	39.4	107.58	# hc,c3,hc
  14	63.53	120.77	# c3,ca,ca
  15	70.89	107.36	# f,c3,f
  16	67.87	120.19	# ca,ca,n
  17	46.8	110.47	# ca,c3,hc
  18	46.99	109.56	# ca,c3,h1
  19	62.86	111.51	# c3,c3,c3
  20	66.11	109.24	# c3,c3,f
  21	63.15	112.07	# c3,c3,ca
  22	38.96	110.2	# h2,c3,h2
  23	63.82	123.71	# c,n,ca
  24	39.24	108.46	# h1,c3,h1
  25	63.56	112.24	# ca,c3,ca
  26	63.39	119.98	# c3,nh,ca
  27	63.74	127.08	# c,n,c
  28	48.18	119.88	# ca,ca,ha

Dihedral Coeffs

   1	2	2.5	2	180	2.0	1	0	# hn,n,c,o
   2	1	0.0	2	0	# X,c3,nh,X
   3	1	3.625	2	180	# X,ca,ca,X
   4	1	0.0	2	0	# X,c3,ca,X
   5	1	1.0	2	180	# X,c,ca,X
   6	1	0.15555555555555556	3	0	# X,c3,c3,X
   7	1	2.5	2	180	# X,c,n,X
   8	1	0.45	2	180	# X,ca,n,X
   9	1	1.05	2	180	# X,ca,nh,X

Improper Coeffs

   1	10.5	-1	2	# c,X,X,o
   2	1.1	-1	2	# n,X,X,hn
   3	1.1	-1	2	# ca,ca,ca,c3
   4	1.1	-1	2	# ca,X,X,ha

Atoms

   1	1	1	-0.247122	-109.2	-61.8428	-96.0761
   2	1	2	0.139112	-108.13	-61.5913	-96.9477
   3	1	2	0.02746	-106.78	-61.6387	-96.5223
   4	1	3	-0.077297	-106.428	-61.9133	-95.0566
   5	1	2	-0.08585	-105.752	-61.4245	-97.4713
   6	1	2	-0.195578	-106.07	-61.1415	-98.8119
   7	1	4	0.171692	-105.277	-60.9682	-99.5369
   8	1	2	-0.199822	-107.408	-61.0867	-99.2257
   9	1	4	0.149498	-107.647	-60.8777	-100.265
  10	1	2	0.076729	-108.438	-61.3183	-98.3024
  11	1	2	-0.057821	-102.24	-60.9418	-96.5107
  12	1	2	-0.076852	-101.052	-60.273	-96.1886
  13	1	4	0.145382	-101.045	-59.189	-96.2364
  14	1	2	-0.023498	-99.9126	-61.0356	-95.816
  15	1	4	0.166076	-101.306	-64.1946	-96.1407
  16	1	2	-0.140684	-101.229	-63.1088	-96.1467
  17	1	2	-0.058922	-102.33	-62.3177	-96.4852
  18	1	3	-0.101954	-98.5442	-60.3868	-95.4507
  19	1	2	-0.067123	-100.023	-62.4554	-95.8207
  20	1	4	0.142141	-99.1603	-63.0646	-95.5624
  21	1	3	0.321219	-97.6382	-60.5376	-96.7327
  22	1	3	0.382784	-98.6521	-58.8617	-95.0651
  23	1	5	-0.111948	-97.2783	-61.8247	-96.9401
  24	1	5	-0.11115	-96.4995	-59.811	-96.6754
  25	1	5	-0.103632	-98.2877	-60.1412	-97.851
  26	1	5	-0.110272	-99.6131	-58.649	-94.1374
  27	1	5	-0.120305	-98.9253	-58.0606	-96.1198
  28	1	5	-0.123663	-97.5008	-58.4016	-94.5238
  29	1	6	0.452517	-103.716	-62.7021	-96.8661
  30	1	6	0.453374	-103.563	-60.3977	-96.9152
  31	1	7	0.018948	-104.381	-61.5052	-97.1011
  32	1	8	-0.46698	-104.159	-63.8364	-96.9256
  33	1	8	-0.469385	-103.852	-59.2195	-97.0358
  34	1	3	-0.126657	-109.898	-61.2986	-98.7706
  35	1	2	0.020988	-96.1555	-62.0328	-92.8716
  36	1	6	0.027902	-94.7857	-62.4315	-92.4627
  37	1	8	-0.378193	-93.7633	-62.2787	-93.1108
  38	1	2	0.043573	-97.0273	-62.3626	-91.8541
  39	1	6	0.038038	-96.2561	-62.9974	-90.7542
  40	1	7	0.4913	-94.9333	-62.9907	-91.1938
  41	1	8	-0.382817	-96.7045	-63.4143	-89.6988
  42	1	2	0.0054	-96.5906	-61.4084	-94.0456
  43	1	2	-0.040988	-98.3893	-62.0692	-91.9473
  44	1	2	-0.085341	-97.9721	-61.111	-94.1947
  45	1	4	0.154391	-95.8504	-61.1636	-94.7995
  46	1	2	-0.205992	-98.8492	-61.4343	-93.1202
  47	1	4	0.156637	-99.0635	-62.3153	-91.1296
  48	1	4	0.178085	-99.9066	-61.1853	-93.1881
  49	1	10	0.05178	-107.249	-61.653	-94.3761
  50	1	10	0.015669	-105.562	-61.3264	-94.7294
  51	1	10	0.036134	-106.193	-62.9743	-94.9061
  52	1	11	0.101096	-110.175	-60.2748	-99.0478
  53	1	1	-0.196269	-110.813	-61.7941	-97.7169
  54	1	11	0.131285	-109.986	-61.925	-99.6664
  55	1	3	-0.292673	-110.472	-61.1762	-96.4213
  56	1	3	-0.034798	-109.447	-63.2551	-95.7009
  57	1	12	0.194395	-111.249	-61.3856	-95.6732
  58	1	12	0.183693	-110.335	-60.0915	-96.522
  59	1	2	-0.144532	-111.93	-63.8026	-98.6005
  60	1	2	0.128587	-111.063	-63.1729	-97.6781
  61	1	2	0.222203	-112.122	-65.1948	-98.5208
  62	1	2	0.041795	-110.4	-63.9394	-96.6888
  63	1	2	-0.461017	-111.465	-65.9526	-97.5393
  64	1	2	-0.140506	-110.604	-65.3282	-96.6223
  65	1	4	0.148448	-110.089	-65.9156	-95.8651
  66	1	10	0.055442	-113.563	-63.5465	-100.026
  67	1	10	0.090839	-113.024	-62.0398	-99.2789
  68	1	3	-0.16304	-112.678	-63.0058	-99.668
  69	1	10	0.039719	-112.035	-62.8114	-100.535
  70	1	11	0.077452	-109.881	-63.296	-94.6945
  71	1	11	0.09063	-108.502	-63.8115	-95.6805
  72	1	4	0.230266	-111.627	-67.0268	-97.4973
  73	1	1	-0.247122	-89.4556	-64.0246	-87.8963
  74	1	2	0.139112	-88.4632	-63.6716	-88.824
  75	1	2	0.02746	-87.3063	-64.4624	-89.0349
  76	1	3	-0.077297	-87.0633	-65.7172	-88.1904
  77	1	2	-0.08585	-86.3668	-64.0622	-90.0186
  78	1	2	-0.195578	-86.5747	-62.8795	-90.7523
  79	1	4	0.171692	-85.8464	-62.5647	-91.4977
  80	1	2	-0.199822	-87.7118	-62.0922	-90.5272
  81	1	4	0.149498	-87.8629	-61.1799	-91.0984
  82	1	2	0.076729	-88.6584	-62.4849	-89.5708
  83	1	2	-0.057821	-83.0035	-65.4428	-90.5812
  84	1	2	-0.076852	-81.6054	-65.4909	-90.6581
  85	1	4	0.145382	-81.0229	-64.636	-90.3217
  86	1	2	-0.023498	-80.9793	-66.6469	-91.1933
  87	1	4	0.166076	-83.8484	-68.4486	-91.9331
  88	1	2	-0.140684	-83.2182	-67.6395	-91.568
  89	1	2	-0.058922	-83.7892	-66.4846	-91.0263
  90	1	3	-0.101954	-79.4277	-66.6664	-91.3422
  91	1	2	-0.067123	-81.8122	-67.7104	-91.6495
  92	1	4	0.142141	-81.3884	-68.6029	-92.0947
  93	1	3	0.321219	-78.8278	-68.1176	-91.4895
  94	1	3	0.382784	-79.112	-65.8375	-92.6459
  95	1	5	-0.111948	-79.3105	-68.9551	-90.5434
  96	1	5	-0.11115	-77.4828	-68.1186	-91.3438
  97	1	5	-0.103632	-79.0783	-68.6845	-92.6914
  98	1	5	-0.110272	-79.3565	-64.5195	-92.467
  99	1	5	-0.120305	-79.8842	-66.2272	-93.6862
 100	1	5	-0.123663	-77.8299	-65.955	-93.0586
 101	1	6	0.452517	-85.2171	-66.1028	-90.8549
 102	1	6	0.453374	-83.9024	-64.3595	-90.1018
 103	1	7	0.018948	-85.197	-64.828	-90.2996
 104	1	8	-0.46698	-86.1849	-66.7737	-91.1722
 105	1	8	-0.469385	-83.5519	-63.2795	-89.6577
 106	1	3	-0.126657	-89.9064	-61.6258	-89.3408
 107	1	2	0.020988	-77.091	-64.773	-88.8824
 108	1	6	0.027902	-75.8954	-63.9243	-88.6392
 109	1	8	-0.378193	-75.1774	-63.4232	-89.489
 110	1	2	0.043573	-77.6062	-65.1598	-87.6624
 111	1	6	0.038038	-76.7666	-64.5761	-86.586
 112	1	7	0.4913	-75.7705	-63.8626	-87.2513
 113	1	8	-0.382817	-76.9166	-64.7311	-85.3848
 114	1	2	0.0054	-77.6499	-65.2089	-90.0893
 115	1	2	-0.040988	-78.7123	-66.008	-87.5794
 116	1	2	-0.085341	-78.7839	-66.067	-90.0549
 117	1	4	0.154391	-77.1773	-64.8919	-91.0123
 118	1	2	-0.205992	-79.2899	-66.4606	-88.7839
 119	1	4	0.156637	-79.0948	-66.3208	-86.6101
 120	1	4	0.178085	-80.1343	-67.1442	-88.724
 121	1	10	0.05178	-87.5305	-65.643	-87.201
 122	1	10	0.015669	-85.9956	-65.892	-88.0118
 123	1	10	0.036134	-87.4727	-66.606	-88.6861
 124	1	11	0.101096	-89.6084	-60.6737	-88.8856
 125	1	1	-0.196269	-90.8815	-62.3119	-88.4633
 126	1	11	0.131285	-90.3658	-61.4049	-90.3122
 127	1	3	-0.292673	-90.1924	-62.8948	-87.2963
 128	1	3	-0.034798	-90.401	-65.098	-88.2853
 129	1	12	0.194395	-90.9184	-63.2419	-86.5484
 130	1	12	0.183693	-89.5026	-62.1718	-86.8407
 131	1	2	-0.144532	-92.9439	-62.6042	-89.7825
 132	1	2	0.128587	-91.8329	-63.1349	-89.0813
 133	1	2	0.222203	-93.8392	-63.492	-90.4291
 134	1	2	0.041795	-91.6263	-64.5337	-89.0166
 135	1	2	-0.461017	-93.6313	-64.8866	-90.3415
 136	1	2	-0.140506	-92.533	-65.4049	-89.6381
 137	1	4	0.148448	-92.3728	-66.48	-89.5849
 138	1	10	0.055442	-92.6974	-60.5554	-89.019
 139	1	10	0.090839	-92.8	-60.6698	-90.7834
 140	1	3	-0.16304	-93.1842	-61.0893	-89.8443
 141	1	10	0.039719	-94.2506	-60.8415	-89.7759
 142	1	11	0.077452	-90.7345	-65.6354	-87.3892
 143	1	11	0.09063	-89.9002	-65.8211	-88.9415
 144	1	4	0.230266	-94.3246	-65.5696	-90.8289
 145	1	1	-0.247122	-71.504	-59.8318	-84.4626
 146	1	2	0.139112	-70.7854	-59.208	-85.4916
 147	1	2	0.02746	-69.3769	-59.0559	-85.4511
 148	1	3	-0.077297	-68.563	-59.5462	-84.2502
 149	1	2	-0.08585	-68.7167	-58.4544	-86.5486
 150	1	2	-0.195578	-69.4564	-57.9902	-87.6514
 151	1	4	0.171692	-68.9458	-57.5381	-88.4996
 152	1	2	-0.199822	-70.8512	-58.137	-87.6834
 153	1	4	0.149498	-71.4134	-57.7932	-88.5477
 154	1	2	0.076729	-71.518	-58.7578	-86.6162
 155	1	2	-0.057821	-65.1031	-57.7184	-86.4794
 156	1	2	-0.076852	-63.8991	-57.0177	-86.3006
 157	1	4	0.145382	-63.9229	-56.0186	-85.8719
 158	1	2	-0.023498	-62.6737	-57.6211	-86.6992
 159	1	4	0.166076	-63.9807	-60.6196	-87.858
 160	1	2	-0.140684	-63.9474	-59.624	-87.4186
 161	1	2	-0.058922	-65.1228	-58.9861	-87.0219
 162	1	3	-0.101954	-61.342	-56.8058	-86.5808
 163	1	2	-0.067123	-62.7313	-58.9329	-87.2591
 164	1	4	0.142141	-61.8409	-59.447	-87.5989
 165	1	3	0.321219	-60.058	-57.6632	-86.9088
 166	1	3	0.382784	-61.459	-55.627	-87.6277
 167	1	5	-0.111948	-59.9938	-58.7697	-86.1332
 168	1	5	-0.11115	-58.9073	-56.9924	-86.6742
 169	1	5	-0.103632	-60.005	-58.055	-88.2024
 170	1	5	-0.110272	-62.28	-54.6477	-87.1869
 171	1	5	-0.120305	-61.9656	-56.0586	-88.8057
 172	1	5	-0.123663	-60.2825	-55.0323	-87.9248
 173	1	6	0.452517	-66.5318	-59.4467	-87.106
 174	1	6	0.453374	-66.5145	-57.3212	-86.2022
 175	1	7	0.018948	-67.2947	-58.3995	-86.6105
 176	1	8	-0.46698	-66.9148	-60.5257	-87.5256
 177	1	8	-0.469385	-66.8862	-56.2654	-85.72
 178	1	3	-0.126657	-73.037	-58.9729	-86.6824
 179	1	2	0.020988	-60.0617	-54.8172	-83.5171
 180	1	6	0.027902	-59.1669	-53.7674	-82.9701
 181	1	8	-0.378193	-58.4497	-53.0244	-83.6205
 182	1	2	0.043573	-60.6463	-55.487	-82.464
 183	1	6	0.038038	-60.1735	-54.8753	-81.1939
 184	1	7	0.4913	-59.302	-53.8555	-81.5827
 185	1	8	-0.382817	-60.4834	-55.2227	-80.0657
 186	1	2	0.0054	-60.2984	-55.1822	-84.8458
 187	1	2	-0.040988	-61.4833	-56.5841	-82.6851
 188	1	2	-0.085341	-61.1486	-56.287	-85.1231
 189	1	4	0.154391	-59.7816	-54.6339	-85.6258
 190	1	2	-0.205992	-61.714	-56.9874	-84.0189
 191	1	4	0.156637	-61.913	-57.1245	-81.8443
 192	1	4	0.178085	-62.3216	-57.874	-84.1825
 193	1	10	0.05178	-69.1751	-59.661	-83.3479
 194	1	10	0.015669	-67.7642	-58.8406	-83.991
 195	1	10	0.036134	-68.0991	-60.5166	-84.4658
 196	1	11	0.101096	-73.5391	-57.9983	-86.6748
 197	1	1	-0.196269	-73.5293	-59.793	-85.5493
 198	1	11	0.131285	-73.2814	-59.4676	-87.6313
 199	1	3	-0.292673	-72.8932	-59.363	-84.2902
 200	1	3	-0.034798	-71.4411	-61.3108	-84.3883
 201	1	12	0.194395	-73.3733	-59.8431	-83.4264
 202	1	12	0.183693	-72.9298	-58.2708	-84.1795
 203	1	2	-0.144532	-74.6831	-61.7899	-86.4367
 204	1	2	0.128587	-73.6136	-61.1805	-85.7325
 205	1	2	0.222203	-74.7019	-63.2007	-86.5757
 206	1	2	0.041795	-72.5837	-61.9717	-85.1691
 207	1	2	-0.461017	-73.6627	-63.9749	-86.013
 208	1	2	-0.140506	-72.6103	-63.3657	-85.3143
 209	1	4	0.148448	-71.8183	-63.9711	-84.8778
 210	1	10	0.055442	-76.8058	-61.4027	-86.816
 211	1	10	0.090839	-75.867	-59.9382	-86.5974
 212	1	3	-0.16304	-75.8272	-60.9498	-87.0191
 213	1	10	0.039719	-75.7218	-60.8492	-88.1068
 214	1	11	0.077452	-71.4967	-61.6257	-83.3392
 215	1	11	0.09063	-70.4863	-61.6686	-84.7939
 216	1	4	0.230266	-73.6841	-65.0593	-86.1075
 217	1	1	-0.247122	-56.5154	-49.0764	-78.1394
 218	1	2	0.139112	-55.5956	-48.4283	-78.9741
 219	1	2	0.02746	-54.3643	-47.9132	-78.4952
 220	1	3	-0.077297	-54.0269	-48.006	-77.0038
 221	1	2	-0.08585	-53.4888	-47.2619	-79.4034
 222	1	2	-0.195578	-53.852	-47.1423	-80.7592
 223	1	4	0.171692	-53.1949	-46.6244	-81.4559
 224	1	2	-0.199822	-55.0844	-47.6266	-81.2178
 225	1	4	0.149498	-55.3677	-47.4917	-82.2584
 226	1	2	0.076729	-55.966	-48.2539	-80.3277
 227	1	2	-0.057821	-50.6899	-45.0061	-78.6293
 228	1	2	-0.076852	-49.9619	-43.8122	-78.5902
 229	1	4	0.145382	-50.4309	-42.926	-79.0027
 230	1	2	-0.023498	-48.6552	-43.813	-78.0316
 231	1	4	0.166076	-48.4913	-47.1863	-77.2273
 232	1	2	-0.140684	-48.8953	-46.2459	-77.5976
 233	1	2	-0.058922	-50.1754	-46.1944	-78.1606
 234	1	3	-0.101954	-47.7513	-42.5381	-77.9817
 235	1	2	-0.067123	-48.1483	-45.0487	-77.5345
 236	1	4	0.142141	-47.1556	-45.0838	-77.0935
 237	1	3	0.321219	-46.5768	-42.7923	-79.0076
 238	1	3	0.382784	-48.5153	-41.2182	-78.3874
 239	1	5	-0.111948	-45.6706	-43.6701	-78.5223
 240	1	5	-0.11115	-45.8876	-41.6799	-79.3445
 241	1	5	-0.103632	-47.0379	-43.3118	-80.1684
 242	1	5	-0.110272	-49.6189	-41.0339	-77.627
 243	1	5	-0.120305	-48.8978	-41.21	-79.6847
 244	1	5	-0.123663	-47.7634	-40.1085	-78.2073
 245	1	6	0.452517	-51.1898	-47.2635	-78.3928
 246	1	6	0.453374	-52.0517	-45.2641	-79.1584
 247	1	7	0.018948	-52.2794	-46.6251	-78.9828
 248	1	8	-0.46698	-51.059	-48.4469	-78.1292
 249	1	8	-0.469385	-52.7939	-44.431	-79.6506
 250	1	3	-0.126657	-57.3483	-48.7067	-80.8155
 251	1	2	0.020988	-45.7146	-41.2783	-74.9391
 252	1	6	0.027902	-44.6179	-40.4288	-74.409
 253	1	8	-0.378193	-43.7711	-39.8466	-75.0665
 254	1	2	0.043573	-46.4862	-41.7053	-73.8783
 255	1	6	0.038038	-45.9091	-41.1624	-72.6215
 256	1	7	0.4913	-44.8198	-40.3933	-73.03
 257	1	8	-0.382817	-46.3616	-41.3014	-71.4967
 258	1	2	0.0054	-46.0594	-41.5663	-76.2642
 259	1	2	-0.040988	-47.6582	-42.4357	-74.0866
 260	1	2	-0.085341	-47.2426	-42.3092	-76.5265
 261	1	4	0.154391	-45.4397	-41.159	-77.0556
 262	1	2	-0.205992	-48.0348	-42.721	-75.4162
 263	1	4	0.156637	-48.2791	-42.7302	-73.2432
 264	1	4	0.178085	-48.9788	-43.2371	-75.5745
 265	1	10	0.05178	-54.9276	-48.0239	-76.3786
 266	1	10	0.015669	-53.4364	-47.1489	-76.6593
 267	1	10	0.036134	-53.4568	-48.9184	-76.7901
 268	1	11	0.101096	-57.9178	-47.8273	-81.1384
 269	1	1	-0.196269	-58.1073	-49.425	-79.7635
 270	1	11	0.131285	-57.2164	-49.3569	-81.6902
 271	1	3	-0.292673	-57.9303	-48.7897	-78.4451
 272	1	3	-0.034798	-56.3098	-50.5263	-77.8867
 273	1	12	0.194395	-58.5986	-49.2431	-77.7004
 274	1	12	0.183693	-58.1109	-47.7078	-78.5015
 275	1	2	-0.144532	-58.7813	-51.6121	-80.6552
 276	1	2	0.128587	-58.017	-50.8189	-79.7664
 277	1	2	0.222203	-58.5938	-53.0185	-80.6626
 278	1	2	0.041795	-57.1097	-51.4096	-78.8587
 279	1	2	-0.461017	-57.6815	-53.5981	-79.7494
 280	1	2	-0.140506	-56.9515	-52.8033	-78.8491
 281	1	4	0.148448	-56.2574	-53.2635	-78.1485
 282	1	10	0.055442	-60.6723	-51.5943	-81.781
 283	1	10	0.090839	-60.2251	-50.0294	-81.1348
 284	1	3	-0.16304	-59.8124	-50.9452	-81.5767
 285	1	10	0.039719	-59.3596	-50.6713	-82.5378
 286	1	11	0.077452	-56.616	-50.7612	-76.86
 287	1	11	0.09063	-55.2443	-50.7734	-77.9792
 288	1	4	0.230266	-57.5506	-54.6792	-79.7321
 289	1	1	-0.247122	-42.1341	-35.6076	-69.5614
 290	1	2	0.139112	-41.5814	-34.7309	-70.5063
 291	1	2	0.02746	-40.332	-34.0882	-70.3122
 292	1	3	-0.077297	-39.5536	-34.2967	-69.0096
 293	1	2	-0.08585	-39.8426	-33.2156	-71.3188
 294	1	2	-0.195578	-40.5928	-33.0091	-72.4929
 295	1	4	0.171692	-40.2285	-32.3283	-73.2604
 296	1	2	-0.199822	-41.8361	-33.6286	-72.6676
 297	1	4	0.149498	-42.4185	-33.4345	-73.5645
 298	1	2	0.076729	-42.3401	-34.4765	-71.6736
 299	1	2	-0.057821	-37.1812	-30.6902	-71.1897
 300	1	2	-0.076852	-36.5955	-29.43	-71.3459
 301	1	4	0.145382	-37.2519	-28.5803	-71.4991
 302	1	2	-0.023498	-35.1805	-29.3245	-71.3611
 303	1	4	0.166076	-34.4392	-32.6901	-70.9745
 304	1	2	-0.140684	-35.0303	-31.7796	-71.0531
 305	1	2	-0.058922	-36.4286	-31.8375	-71.0643
 306	1	3	-0.101954	-34.4495	-27.9886	-71.6831
 307	1	2	-0.067123	-34.4176	-30.5158	-71.199
 308	1	4	0.142141	-33.3318	-30.4683	-71.2335
 309	1	3	0.321219	-34.0446	-28.083	-73.2064
 310	1	3	0.382784	-35.3483	-26.7082	-71.4709
 311	1	5	-0.111948	-33.0562	-28.984	-73.4084
 312	1	5	-0.11115	-33.6254	-26.9073	-73.7269
 313	1	5	-0.103632	-35.0822	-28.4874	-73.9749
 314	1	5	-0.110272	-35.9519	-26.7174	-70.2606
 315	1	5	-0.120305	-36.3189	-26.5706	-72.4025
 316	1	5	-0.123663	-34.6166	-25.5713	-71.5148
 317	1	6	0.452517	-37.3592	-33.0029	-71.0475
 318	1	6	0.453374	-38.6128	-31.0735	-71.2365
 319	1	7	0.018948	-38.6376	-32.4624	-71.1691
 320	1	8	-0.46698	-37.0374	-34.1786	-71.012
 321	1	8	-0.469385	-39.5507	-30.3068	-71.3774
 322	1	3	-0.126657	-43.7289	-35.1005	-71.8459
 323	1	2	0.020988	-32.368	-27.7909	-68.4455
 324	1	6	0.027902	-32.3129	-27.8726	-66.9611
 325	1	8	-0.378193	-33.2036	-28.2617	-66.2239
 326	1	2	0.043573	-31.1653	-27.2846	-68.8938
 327	1	6	0.038038	-30.2947	-27.011	-67.7256
 328	1	7	0.4913	-31.0517	-27.3837	-66.6156
 329	1	8	-0.382817	-29.1847	-26.5044	-67.7553
 330	1	2	0.0054	-33.4196	-28.0676	-69.3291
 331	1	2	-0.040988	-30.9373	-27.0435	-70.2485
 332	1	2	-0.085341	-33.2389	-27.8229	-70.7173
 333	1	4	0.154391	-34.3681	-28.4221	-68.9327
 334	1	2	-0.205992	-31.9817	-27.3146	-71.1544
 335	1	4	0.156637	-29.9898	-26.6244	-70.5807
 336	1	4	0.178085	-31.799	-27.0816	-72.1978
 337	1	10	0.05178	-38.8303	-35.1144	-69.1169
 338	1	10	0.015669	-40.212	-34.5445	-68.1685
 339	1	10	0.036134	-39.0041	-33.3967	-68.7103
 340	1	11	0.101096	-44.4824	-34.3041	-71.8261
 341	1	1	-0.196269	-44.0248	-36.0859	-70.7811
 342	1	11	0.131285	-43.7782	-35.5839	-72.8297
 343	1	3	-0.292673	-43.6063	-35.5723	-69.4634
 344	1	3	-0.034798	-41.6488	-37.0102	-69.5598
 345	1	12	0.194395	-43.9683	-36.2238	-68.6564
 346	1	12	0.183693	-43.9663	-34.5467	-69.3057
 347	1	2	-0.144532	-44.4805	-38.2374	-71.8877
 348	1	2	0.128587	-43.6912	-37.4189	-71.0429
 349	1	2	0.222203	-44.0608	-39.5646	-72.1507
 350	1	2	0.041795	-42.5033	-37.9176	-70.4591
 351	1	2	-0.461017	-42.8748	-40.0549	-71.5588
 352	1	2	-0.140506	-42.1027	-39.2379	-70.7158
 353	1	4	0.148448	-41.1865	-39.6199	-70.2697
 354	1	10	0.055442	-46.6032	-38.4202	-72.3998
 355	1	10	0.090839	-46.1233	-36.7733	-72.0574
 356	1	3	-0.16304	-45.7776	-37.7073	-72.5164
 357	1	10	0.039719	-45.6433	-37.5173	-73.5888
 358	1	11	0.077452	-41.6718	-37.401	-68.5352
 359	1	11	0.09063	-40.608	-37.0459	-69.906
 360	1	4	0.230266	-42.548	-41.0726	-71.7636
 361	1	1	-0.247122	-27.9937	-27.2054	-60.8781
 362	1	2	0.139112	-28.3877	-28.2851	-60.0775
 363	1	2	0.02746	-28.6478	-28.1524	-58.6903
 364	1	3	-0.077297	-28.4815	-26.807	-57.9795
 365	1	2	-0.08585	-29.0607	-29.2903	-57.957
 366	1	2	-0.195578	-29.1963	-30.5348	-58.5995
 367	1	4	0.171692	-29.5162	-31.4085	-58.0348
 368	1	2	-0.199822	-28.9341	-30.6605	-59.9709
 369	1	4	0.149498	-29.0482	-31.6244	-60.4598
 370	1	2	0.076729	-28.5367	-29.5399	-60.714
 371	1	2	-0.057821	-29.4411	-29.6392	-54.3197
 372	1	2	-0.076852	-29.209	-30.1466	-53.0331
 373	1	4	0.145382	-28.248	-30.6028	-52.8085
 374	1	2	-0.023498	-30.2656	-30.1425	-52.084
 375	1	4	0.166076	-32.6681	-28.5968	-54.0484
 376	1	2	-0.140684	-31.7043	-29.006	-53.7509
 377	1	2	-0.058922	-30.6534	-29.0818	-54.6671
 378	1	3	-0.101954	-30.0691	-30.9041	-50.7366
 379	1	2	-0.067123	-31.5059	-29.5506	-52.4669
 380	1	4	0.142141	-32.3597	-29.5389	-51.8
 381	1	3	0.321219	-31.2766	-30.7368	-49.7292
 382	1	3	0.382784	-29.9483	-32.4386	-51.1081
 383	1	5	-0.111948	-30.9948	-31.2573	-48.5127
 384	1	5	-0.11115	-32.4089	-31.341	-50.1556
 385	1	5	-0.103632	-31.5791	-29.4383	-49.501
 386	1	5	-0.110272	-30.9157	-32.8143	-51.9762
 387	1	5	-0.120305	-30.0523	-33.2665	-50.0439
 388	1	5	-0.123663	-28.7725	-32.7344	-51.7064
 389	1	6	0.452517	-30.6282	-28.7618	-56.1181
 390	1	6	0.453374	-28.6029	-29.7142	-55.5489
 391	1	7	0.018948	-29.3967	-29.2118	-56.5746
 392	1	8	-0.46698	-31.5485	-28.2969	-56.7681
 393	1	8	-0.469385	-27.5003	-30.2259	-55.6387
 394	1	3	-0.126657	-28.2739	-29.6783	-62.219
 395	1	2	0.020988	-27.746	-28.4065	-48.972
 396	1	6	0.027902	-27.5759	-27.0202	-48.4672
 397	1	8	-0.378193	-28.2044	-26.0431	-48.8409
 398	1	2	0.043573	-26.8988	-29.231	-48.262
 399	1	6	0.038038	-26.1598	-28.4151	-47.265
 400	1	7	0.4913	-26.6449	-27.1149	-47.4274
 401	1	8	-0.382817	-25.4191	-28.8471	-46.3965
 402	1	2	0.0054	-28.7056	-28.9222	-49.8525
 403	1	2	-0.040988	-26.9372	-30.6172	-48.4229
 404	1	2	-0.085341	-28.8251	-30.3295	-49.9978
 405	1	4	0.154391	-29.4089	-28.2416	-50.3258
 406	1	2	-0.205992	-27.9067	-31.1593	-49.2919
 407	1	4	0.156637	-26.2861	-31.2563	-47.8302
 408	1	4	0.178085	-27.9704	-32.2411	-49.3425
 409	1	10	0.05178	-28.0293	-26.9305	-56.988
 410	1	10	0.015669	-29.4526	-26.3139	-57.8487
 411	1	10	0.036134	-27.8296	-26.1193	-58.531
 412	1	11	0.101096	-27.4221	-30.3514	-62.3728
 413	1	1	-0.196269	-27.9921	-28.3714	-62.8616
 414	1	11	0.131285	-29.1539	-30.1389	-62.6852
 415	1	3	-0.292673	-27.1095	-27.5541	-62.0083
 416	1	3	-0.034798	-29.0494	-26.257	-61.308
 417	1	12	0.194395	-26.7727	-26.6554	-62.5432
 418	1	12	0.183693	-26.2406	-28.1331	-61.6672
 419	1	2	-0.144532	-29.5598	-27.9833	-64.7306
 420	1	2	0.128587	-29.0646	-27.6777	-63.4371
 421	1	2	0.222203	-30.6048	-27.1927	-65.2728
 422	1	2	0.041795	-29.6203	-26.613	-62.688
 423	1	2	-0.461017	-31.1677	-26.1514	-64.5012
 424	1	2	-0.140506	-30.6815	-25.8647	-63.2168
 425	1	4	0.148448	-31.1102	-25.0496	-62.6368
 426	1	10	0.055442	-28.2846	-28.6981	-66.3484
 427	1	10	0.090839	-28.3381	-29.8062	-64.9826
 428	1	3	-0.16304	-28.9428	-29.1088	-65.5723
 429	1	10	0.039719	-29.7162	-29.7091	-66.0678
 430	1	11	0.077452	-28.6317	-25.2436	-61.3465
 431	1	11	0.09063	-29.8689	-26.2509	-60.5778
 432	1	4	0.230266	-31.978	-25.5508	-64.9116
 433	1	1	-0.247122	-24.4042	-22.5437	-43.3297
 434	1	2	0.139112	-23.7631	-23.1359	-42.2344
 435	1	2	0.02746	-23.8655	-22.6236	-40.9148
 436	1	3	-0.077297	-24.7071	-21.382	-40.6101
 437	1	2	-0.08585	-23.1579	-23.2653	-39.8691
 438	1	2	-0.195578	-22.3735	-24.4008	-40.1447
 439	1	4	0.171692	-21.8297	-24.8944	-39.3415
 440	1	2	-0.199822	-22.2775	-24.9031	-41.4511
 441	1	4	0.149498	-21.6636	-25.7769	-41.6526
 442	1	2	0.076729	-22.9649	-24.2736	-42.4995
 443	1	2	-0.057821	-23.745	-22.6338	-36.2948
 444	1	2	-0.076852	-24.2752	-22.8429	-35.0155
 445	1	4	0.145382	-25.1666	-23.4545	-34.941
 446	1	2	-0.023498	-23.596	-22.3194	-33.8789
 447	1	4	0.166076	-20.9529	-20.8341	-35.5658
 448	1	2	-0.140684	-21.8878	-21.3685	-35.4074
 449	1	2	-0.058922	-22.5796	-21.9253	-36.4898
 450	1	3	-0.101954	-24.0146	-22.6722	-32.4113
 451	1	2	-0.067123	-22.4017	-21.578	-34.1083
 452	1	4	0.142141	-21.8403	-21.1897	-33.2618
 453	1	3	0.321219	-25.4853	-23.2374	-32.3194
 454	1	3	0.382784	-22.9931	-23.7826	-31.9435
 455	1	5	-0.111948	-25.9181	-23.3622	-31.0445
 456	1	5	-0.11115	-25.6178	-24.4653	-32.87
 457	1	5	-0.103632	-26.3631	-22.4084	-32.9286
 458	1	5	-0.110272	-23.3951	-24.4769	-30.8562
 459	1	5	-0.120305	-21.7897	-23.245	-31.6402
 460	1	5	-0.123663	-22.7719	-24.7027	-32.9106
 461	1	6	0.452517	-22.2263	-22.004	-37.9366
 462	1	6	0.453374	-24.1807	-23.1859	-37.6074
 463	1	7	0.018948	-23.2093	-22.7965	-38.5213
 464	1	8	-0.46698	-21.23	-21.536	-38.4606
 465	1	8	-0.469385	-25.1518	-23.8965	-37.8026
 466	1	3	-0.126657	-22.8356	-24.8109	-43.9341
 467	1	2	0.020988	-23.9845	-20.4337	-29.2475
 468	1	6	0.027902	-24.0884	-20.3434	-27.7681
 469	1	8	-0.378193	-24.097	-21.2878	-26.9955
 470	1	2	0.043573	-24.1253	-19.1698	-29.7754
 471	1	6	0.038038	-24.2864	-18.2071	-28.6539
 472	1	7	0.4913	-24.2766	-18.9861	-27.4915
 473	1	8	-0.382817	-24.4692	-17.0052	-28.7636
 474	1	2	0.0054	-23.8909	-21.5644	-30.0648
 475	1	2	-0.040988	-24.2143	-18.9727	-31.157
 476	1	2	-0.085341	-23.9717	-21.4186	-31.4783
 477	1	4	0.154391	-23.8307	-22.5329	-29.5814
 478	1	2	-0.205992	-24.1563	-20.1062	-31.9995
 479	1	4	0.156637	-24.3779	-17.9745	-31.5574
 480	1	4	0.178085	-24.2955	-19.9547	-33.0673
 481	1	10	0.05178	-24.9436	-20.8013	-41.5093
 482	1	10	0.015669	-24.1822	-20.6997	-39.9303
 483	1	10	0.036134	-25.656	-21.6643	-40.1375
 484	1	11	0.101096	-21.7827	-24.7677	-44.237
 485	1	1	-0.196269	-23.6573	-24.046	-44.9062
 486	1	11	0.131285	-23.1403	-25.8652	-43.9407
 487	1	3	-0.292673	-23.6428	-22.6047	-44.5935
 488	1	3	-0.034798	-25.8357	-22.8689	-43.5519
 489	1	12	0.194395	-24.1395	-22.0284	-45.3859
 490	1	12	0.183693	-22.6156	-22.2414	-44.4544
 491	1	2	-0.144532	-25.0867	-25.5763	-46.2152
 492	1	2	0.128587	-24.9162	-24.5578	-45.2419
 493	1	2	0.222203	-26.3953	-26.0531	-46.4968
 494	1	2	0.041795	-26.0308	-23.9972	-44.5767
 495	1	2	-0.461017	-27.4964	-25.483	-45.8155
 496	1	2	-0.140506	-27.3195	-24.4619	-44.8699
 497	1	4	0.148448	-28.1796	-24.0281	-44.3636
 498	1	10	0.055442	-23.0857	-25.3686	-47.0897
 499	1	10	0.090839	-23.4249	-26.9739	-46.426
 500	1	3	-0.16304	-23.8682	-26.1276	-46.9667
 501	1	10	0.039719	-24.1218	-26.4696	-47.9773
 502	1	11	0.077452	-26.3583	-21.9728	-43.9079
 503	1	11	0.09063	-26.3013	-23.17	-42.6046
 504	1	4	0.230266	-28.5054	-25.8288	-46.0375
 505	1	1	-0.247122	-24.8656	-17.2725	-21.2189
 506	1	2	0.139112	-25.2215	-18.4122	-20.4877
 507	1	2	0.02746	-26.1753	-18.3789	-19.4399
 508	1	3	-0.077297	-26.8535	-17.0712	-19.0168
 509	1	2	-0.08585	-26.4761	-19.5736	-18.7426
 510	1	2	-0.195578	-25.8414	-20.7781	-19.0964
 511	1	4	0.171692	-26.0746	-21.6954	-18.5595
 512	1	2	-0.199822	-24.8955	-20.8035	-20.1337
 513	1	4	0.149498	-24.403	-21.7361	-20.3966
 514	1	2	0.076729	-24.5784	-19.6255	-20.8289
 515	1	2	-0.057821	-28.3538	-19.1945	-15.6062
 516	1	2	-0.076852	-28.6146	-18.8147	-14.283
 517	1	4	0.145382	-27.7797	-18.5033	-13.6644
 518	1	2	-0.023498	-29.9576	-18.8036	-13.8184
 519	1	4	0.166076	-31.4964	-19.8134	-16.7567
 520	1	2	-0.140684	-30.7017	-19.5562	-16.0589
 521	1	2	-0.058922	-29.3653	-19.5564	-16.471
 522	1	3	-0.101954	-30.3453	-18.2946	-12.3975
 523	1	2	-0.067123	-30.9859	-19.1709	-14.7322
 524	1	4	0.142141	-32.0264	-19.1327	-14.4195
 525	1	3	0.321219	-29.1797	-18.4392	-11.3436
 526	1	3	0.382784	-30.7019	-16.7689	-12.5721
 527	1	5	-0.111948	-29.6296	-18.2629	-10.0798
 528	1	5	-0.11115	-28.1798	-17.5457	-11.5151
 529	1	5	-0.103632	-28.6226	-19.6709	-11.3805
 530	1	5	-0.110272	-29.7473	-16.1031	-13.2618
 531	1	5	-0.120305	-30.8486	-16.1172	-11.3963
 532	1	5	-0.123663	-31.8496	-16.6072	-13.2693
 533	1	6	0.452517	-28.7654	-19.8188	-17.8084
 534	1	6	0.453374	-27.0721	-19.2092	-16.3618
 535	1	7	0.018948	-27.4063	-19.5687	-17.6622
 536	1	8	-0.46698	-29.3699	-20.1194	-18.8235
 537	1	8	-0.469385	-25.9775	-18.8919	-15.929
 538	1	3	-0.126657	-23.526	-19.6506	-21.9492
 539	1	2	0.020988	-33.623	-19.4343	-10.6436
 540	1	6	0.027902	-34.8375	-19.1101	-9.85095
 541	1	8	-0.378193	-35.2202	-17.9946	-9.53839
 542	1	2	0.043573	-33.5297	-20.8058	-10.7551
 543	1	6	0.038038	-34.6727	-21.4201	-10.0333
 544	1	7	0.4913	-35.3993	-20.3438	-9.52135
 545	1	8	-0.382817	-34.8672	-22.6143	-9.87343
 546	1	2	0.0054	-32.6428	-18.584	-11.1686
 547	1	2	-0.040988	-32.4534	-21.407	-11.4111
 548	1	2	-0.085341	-31.5292	-19.1504	-11.8491
 549	1	4	0.154391	-32.7589	-17.5175	-11.0114
 550	1	2	-0.205992	-31.4585	-20.5681	-11.9554
 551	1	4	0.156637	-32.3822	-22.4909	-11.4728
 552	1	4	0.178085	-30.6053	-21.0324	-12.446
 553	1	10	0.05178	-26.5401	-16.7843	-18.0053
 554	1	10	0.015669	-27.9455	-17.1765	-19.0139
 555	1	10	0.036134	-26.6175	-16.2264	-19.6726
 556	1	11	0.101096	-22.5558	-19.9258	-21.5188
 557	1	1	-0.196269	-23.4043	-18.3415	-22.6396
 558	1	11	0.131285	-23.8013	-20.4277	-22.6738
 559	1	3	-0.292673	-23.4604	-17.2328	-21.6683
 560	1	3	-0.034798	-25.7819	-16.8513	-22.3067
 561	1	12	0.194395	-23.225	-16.2756	-22.1527
 562	1	12	0.183693	-22.7732	-17.4063	-20.8292
 563	1	2	-0.144532	-23.7527	-18.6501	-25.0639
 564	1	2	0.128587	-24.1643	-18.1519	-23.8011
 565	1	2	0.222203	-24.5994	-18.4688	-26.1922
 566	1	2	0.041795	-25.374	-17.4333	-23.667
 567	1	2	-0.461017	-25.815	-17.7628	-26.0299
 568	1	2	-0.140506	-26.1948	-17.2394	-24.7851
 569	1	4	0.148448	-27.1256	-16.6847	-24.6836
 570	1	10	0.055442	-21.9561	-19.229	-26.1952
 571	1	10	0.090839	-21.6538	-18.9236	-24.4954
 572	1	3	-0.16304	-22.3896	-19.3416	-25.1944
 573	1	10	0.039719	-22.4727	-20.4145	-24.9807
 574	1	11	0.077452	-25.7845	-15.7566	-22.3748
 575	1	11	0.09063	-26.8064	-17.1723	-22.0785
 576	1	4	0.230266	-26.4622	-17.599	-26.8908
 577	1	1	-0.247122	-40.981	-21.672	-6.45364
 578	1	2	0.139112	-41.946	-20.7121	-6.78285
 579	1	2	0.02746	-42.816	-20.1449	-5.81897
 580	1	3	-0.077297	-42.7609	-20.5826	-4.35222
 581	1	2	-0.08585	-43.7491	-19.1629	-6.22963
 582	1	2	-0.195578	-43.819	-18.7724	-7.57922
 583	1	4	0.171692	-44.5408	-18.0207	-7.89282
 584	1	2	-0.199822	-42.9556	-19.3382	-8.52817
 585	1	4	0.149498	-43.0102	-19.0245	-9.56719
 586	1	2	0.076729	-42.0138	-20.3001	-8.13452
 587	1	2	-0.057821	-46.4825	-17.8536	-4.14512
 588	1	2	-0.076852	-47.7843	-17.6568	-3.66197
 589	1	4	0.145382	-48.5814	-18.283	-4.04921
 590	1	2	-0.023498	-48.0191	-16.6229	-2.71569
 591	1	4	0.166076	-44.7786	-15.4066	-2.50265
 592	1	2	-0.140684	-45.6131	-16.0358	-2.80613
 593	1	2	-0.058922	-45.4259	-17.0738	-3.72183
 594	1	3	-0.101954	-49.443	-16.2889	-2.1776
 595	1	2	-0.067123	-46.9166	-15.8108	-2.32203
 596	1	4	0.142141	-47.0688	-14.9792	-1.63898
 597	1	3	0.321219	-50.0246	-15.1977	-3.1548
 598	1	3	0.382784	-50.4129	-17.5334	-2.14847
 599	1	5	-0.111948	-49.9514	-15.5852	-4.44861
 600	1	5	-0.11115	-49.3284	-14.0404	-3.07835
 601	1	5	-0.103632	-51.323	-14.9101	-2.90999
 602	1	5	-0.110272	-51.5147	-17.2815	-1.4051
 603	1	5	-0.120305	-49.8204	-18.6183	-1.60057
 604	1	5	-0.123663	-50.8575	-17.9076	-3.3689
 605	1	6	0.452517	-44.2017	-17.5054	-4.44661
 606	1	6	0.453374	-45.969	-18.8043	-5.16977
 607	1	7	0.018948	-44.6136	-18.523	-5.2967
 608	1	8	-0.46698	-43.0836	-17.0363	-4.31783
 609	1	8	-0.469385	-46.6249	-19.6281	-5.78343