pySIMM System Object

938 atoms
1041 bonds
1872 angles
2882 dihedrals
260 impropers

12 atom types
15 bond types
28 angle types
9 dihedral types
4 improper types

-150.831557 150.831557 xlo xhi
-150.831557 150.831557 ylo yhi
-150.831557 150.831557 zlo zhi

Masses

   1	14.01	# nh
   2	12.01	# ca
   3	12.01	# c3
   4	1.008	# ha
   5	19.0	# f
   6	12.01	# c
   7	14.01	# n
   8	16.0	# o
   9	1.008	# hn
  10	1.008	# hc
  11	1.008	# h1
  12	1.008	# h2

Pair Coeffs

   1	0.17	3.249998523775958	# nh
   2	0.086	3.3996695084235347	# ca
   3	0.1094	3.3996695084235347	# c3
   4	0.015	2.59964245953351	# ha
   5	0.061	3.1181455134911875	# f
   6	0.086	3.3996695084235347	# c
   7	0.17	3.249998523775958	# n
   8	0.21	2.959921901149463	# o
   9	0.0157	1.069078461768407	# hn
  10	0.0157	2.649532787749369	# hc
  11	0.0157	2.471353044121301	# h1
  12	0.0157	2.2931733004932333	# h2

Bond Coeffs

   1	356.9	1.3497	# c3,f
   2	403.2	1.0129	# hn,n
   3	417.9	1.3859	# ca,nh
   4	300.9	1.5375	# c3,c3
   5	384.2	1.4121	# ca,n
   6	330.6	1.0969	# c3,h1
   7	461.1	1.3984	# ca,ca
   8	326.6	1.464	# c3,nh
   9	427.6	1.3789	# c,n
  10	331.7	1.0961	# c3,h2
  11	345.9	1.4906	# c,ca
  12	345.8	1.086	# ca,ha
  13	321.0	1.5156	# c3,ca
  14	330.6	1.0969	# c3,hc
  15	637.7	1.2183	# c,o

Angle Coeffs

   1	71.11	105.87	# nh,c3,nh
   2	63.25	114.51	# c3,nh,c3
   3	74.22	123.05	# n,c,o
   4	66.62	120.02	# ca,ca,ca
   5	68.29	120.95	# ca,ca,nh
   6	49.52	110.01	# h2,c3,nh
   7	68.72	122.6	# ca,c,o
   8	49.57	109.79	# h1,c3,nh
   9	67.68	115.25	# ca,c,n
  10	66.46	111.39	# ca,c3,nh
  11	48.33	117.55	# c,n,hn
  12	64.28	120.33	# c,ca,ca
  13	39.4	107.58	# hc,c3,hc
  14	63.53	120.77	# c3,ca,ca
  15	70.89	107.36	# f,c3,f
  16	67.87	120.19	# ca,ca,n
  17	46.8	110.47	# ca,c3,hc
  18	46.99	109.56	# ca,c3,h1
  19	62.86	111.51	# c3,c3,c3
  20	66.11	109.24	# c3,c3,f
  21	63.15	112.07	# c3,c3,ca
  22	38.96	110.2	# h2,c3,h2
  23	63.82	123.71	# c,n,ca
  24	39.24	108.46	# h1,c3,h1
  25	63.56	112.24	# ca,c3,ca
  26	63.39	119.98	# c3,nh,ca
  27	63.74	127.08	# c,n,c
  28	48.18	119.88	# ca,ca,ha

Dihedral Coeffs

   1	2	2.5	2	180	2.0	1	0	# hn,n,c,o
   2	1	0.0	2	0	# X,c3,nh,X
   3	1	3.625	2	180	# X,ca,ca,X
   4	1	0.0	2	0	# X,c3,ca,X
   5	1	1.0	2	180	# X,c,ca,X
   6	1	0.15555555555555556	3	0	# X,c3,c3,X
   7	1	2.5	2	180	# X,c,n,X
   8	1	0.45	2	180	# X,ca,n,X
   9	1	1.05	2	180	# X,ca,nh,X

Improper Coeffs

   1	10.5	-1	2	# c,X,X,o
   2	1.1	-1	2	# n,X,X,hn
   3	1.1	-1	2	# ca,ca,ca,c3
   4	1.1	-1	2	# ca,X,X,ha

Atoms

   1	1	1	-0.247122	-53.6576	13.3502	-50.649
   2	1	2	0.139112	-53.3276	12.2045	-51.3873
   3	1	2	0.02746	-51.9908	11.8929	-51.7311
   4	1	3	-0.077297	-50.8475	12.8658	-51.4208
   5	1	2	-0.08585	-51.7149	10.6697	-52.3855
   6	1	2	-0.195578	-52.7614	9.79417	-52.727
   7	1	4	0.171692	-52.5469	8.8621	-53.2461
   8	1	2	-0.199822	-54.0881	10.1192	-52.4055
   9	1	4	0.149498	-54.8932	9.4383	-52.6682
  10	1	2	0.076729	-54.375	11.3157	-51.7299
  11	1	2	-0.057821	-48.3846	10.2739	-53.8473
  12	1	2	-0.076852	-47.3564	10.4209	-54.7819
  13	1	4	0.145382	-47.6231	10.786	-55.7669
  14	1	2	-0.023498	-46.0266	10.0867	-54.4105
  15	1	4	0.166076	-46.6793	9.08955	-51.1521
  16	1	2	-0.140684	-46.859	9.45712	-52.1608
  17	1	2	-0.058922	-48.1489	9.81518	-52.5694
  18	1	3	-0.101954	-44.838	10.1609	-55.4183
  19	1	2	-0.067123	-45.8079	9.58441	-53.0957
  20	1	4	0.142141	-44.8057	9.29174	-52.792
  21	1	3	0.321219	-44.6114	8.67813	-55.9073
  22	1	3	0.382784	-45.139	11.086	-56.6602
  23	1	5	-0.111948	-44.0137	7.93183	-54.9512
  24	1	5	-0.11115	-43.8534	8.57929	-57.0218
  25	1	5	-0.103632	-45.7808	8.06366	-56.1993
  26	1	5	-0.110272	-45.5883	12.3	-56.2671
  27	1	5	-0.120305	-46.0518	10.5622	-57.5094
  28	1	5	-0.123663	-44.0337	11.3212	-57.4035
  29	1	6	0.452517	-49.4409	9.83423	-51.8277
  30	1	6	0.453374	-49.8294	10.5896	-53.9764
  31	1	7	0.018948	-50.3782	10.3269	-52.73
  32	1	8	-0.46698	-49.6024	9.558	-50.6512
  33	1	8	-0.469385	-50.3787	11.0647	-54.9555
  34	1	3	-0.126657	-55.8196	11.6493	-51.3388
  35	1	2	0.020988	-41.1719	11.128	-54.6603
  36	1	6	0.027902	-39.7413	11.0157	-55.0212
  37	1	8	-0.378193	-39.2667	10.2604	-55.8542
  38	1	2	0.043573	-41.3059	12.0812	-53.6739
  39	1	6	0.038038	-39.9529	12.6135	-53.347
  40	1	7	0.4913	-39.0846	11.9337	-54.2031
  41	1	8	-0.382817	-39.6845	13.4485	-52.4986
  42	1	2	0.0054	-42.2699	10.4558	-55.1994
  43	1	2	-0.040988	-42.5688	12.4245	-53.181
  44	1	2	-0.085341	-43.5743	10.7738	-54.738
  45	1	4	0.154391	-42.0854	9.74423	-55.9956
  46	1	2	-0.205992	-43.6986	11.7783	-53.7346
  47	1	4	0.156637	-42.6689	13.1937	-52.4182
  48	1	4	0.178085	-44.6834	12.0892	-53.3934
  49	1	10	0.05178	-50.1719	12.9735	-52.2779
  50	1	10	0.015669	-50.2568	12.5151	-50.5657
  51	1	10	0.036134	-51.2024	13.8762	-51.1881
  52	1	11	0.101096	-56.3815	11.9273	-52.2386
  53	1	1	-0.196269	-55.8645	12.7596	-50.3603
  54	1	11	0.131285	-56.2895	10.7551	-50.9122
  55	1	3	-0.292673	-55.0248	13.874	-50.8409
  56	1	3	-0.034798	-53.3296	13.3168	-49.2065
  57	1	12	0.194395	-55.1947	14.7767	-50.2386
  58	1	12	0.183693	-55.2177	14.0912	-51.9002
  59	1	2	-0.144532	-56.7506	11.8133	-48.2631
  60	1	2	0.128587	-55.7109	12.4174	-49.0079
  61	1	2	0.222203	-56.5017	11.4153	-46.9369
  62	1	2	0.041795	-54.4489	12.6457	-48.4049
  63	1	2	-0.461017	-55.2424	11.617	-46.3517
  64	1	2	-0.140506	-54.2161	12.239	-47.0808
  65	1	4	0.148448	-53.2396	12.3984	-46.6285
  66	1	10	0.055442	-58.3791	12.3318	-49.6287
  67	1	10	0.090839	-58.2405	10.5965	-49.2831
  68	1	3	-0.16304	-58.1453	11.5983	-48.8477
  69	1	10	0.039719	-58.9166	11.7009	-48.0738
  70	1	11	0.077452	-53.1868	14.3401	-48.8384
  71	1	11	0.09063	-52.3944	12.7672	-49.0419
  72	1	4	0.230266	-55.0718	11.2916	-45.3291
  73	1	1	-0.247122	-33.0764	11.3621	-55.9858
  74	1	2	0.139112	-33.6035	10.283	-56.7364
  75	1	2	0.02746	-33.2838	8.92907	-56.4512
  76	1	3	-0.077297	-32.0786	8.56953	-55.5758
  77	1	2	-0.08585	-34.1123	7.90331	-56.975
  78	1	2	-0.195578	-35.0826	8.20882	-57.9473
  79	1	4	0.171692	-35.7143	7.42741	-58.3665
  80	1	2	-0.199822	-35.3261	9.53332	-58.3128
  81	1	4	0.149498	-36.1294	9.76173	-59.0082
  82	1	2	0.076729	-34.6488	10.5652	-57.6549
  83	1	2	-0.057821	-34.8965	4.44111	-56.1184
  84	1	2	-0.076852	-35.4495	3.17562	-56.3467
  85	1	4	0.145382	-35.4555	2.80551	-57.3658
  86	1	2	-0.023498	-36.0235	2.46288	-55.2585
  87	1	4	0.166076	-35.5206	4.85384	-52.8
  88	1	2	-0.140684	-35.472	4.36625	-53.7721
  89	1	2	-0.058922	-34.942	5.03555	-54.8779
  90	1	3	-0.101954	-36.7312	1.08099	-55.4213
  91	1	2	-0.067123	-35.98	3.06697	-53.9692
  92	1	4	0.142141	-36.3847	2.54375	-53.1082
  93	1	3	0.321219	-38.2542	1.30263	-55.0422
  94	1	3	0.382784	-36.6542	0.497331	-56.8837
  95	1	5	-0.111948	-38.4407	1.4515	-53.711
  96	1	5	-0.11115	-39.0659	0.289742	-55.4186
  97	1	5	-0.103632	-38.7491	2.4197	-55.6218
  98	1	5	-0.110272	-35.3781	0.38926	-57.3193
  99	1	5	-0.120305	-37.3315	1.2512	-57.7792
 100	1	5	-0.123663	-37.1611	-0.754429	-56.9581
 101	1	6	0.452517	-34.4935	6.44353	-55.0186
 102	1	6	0.453374	-34.3572	5.4292	-57.0888
 103	1	7	0.018948	-34.1915	6.61111	-56.3711
 104	1	8	-0.46698	-34.5943	7.29662	-54.1519
 105	1	8	-0.469385	-34.2368	5.24965	-58.289
 106	1	3	-0.126657	-35.169	11.9902	-57.808
 107	1	2	0.020988	-35.9762	-1.85584	-53.0177
 108	1	6	0.027902	-36.47	-2.87737	-52.0633
 109	1	8	-0.378193	-37.639	-3.14784	-51.842
 110	1	2	0.043573	-34.6039	-1.77437	-52.9006
 111	1	6	0.038038	-34.1569	-2.74353	-51.8702
 112	1	7	0.4913	-35.3341	-3.31432	-51.3834
 113	1	8	-0.382817	-33.0223	-2.85519	-51.4344
 114	1	2	0.0054	-36.7025	-0.967585	-53.816
 115	1	2	-0.040988	-33.8746	-0.801534	-53.5869
 116	1	2	-0.085341	-36.0051	0.0551413	-54.5102
 117	1	4	0.154391	-37.7819	-1.07045	-53.8521
 118	1	2	-0.205992	-34.5869	0.105662	-54.3972
 119	1	4	0.156637	-32.7953	-0.734441	-53.4679
 120	1	4	0.178085	-34.0223	0.865038	-54.9343
 121	1	10	0.05178	-31.6105	7.63746	-55.9154
 122	1	10	0.015669	-32.3504	8.43899	-54.5232
 123	1	10	0.036134	-31.3032	9.34415	-55.6237
 124	1	11	0.101096	-34.7117	12.4583	-58.6881
 125	1	1	-0.196269	-34.8375	12.7441	-56.5825
 126	1	11	0.131285	-36.2507	11.9564	-57.9697
 127	1	3	-0.292673	-33.3591	12.7296	-56.4846
 128	1	3	-0.034798	-33.4016	11.3769	-54.5441
 129	1	12	0.194395	-33.0127	13.4983	-55.7808
 130	1	12	0.183693	-32.8869	12.8916	-57.4626
 131	1	2	-0.144532	-36.9704	12.6039	-55.3036
 132	1	2	0.128587	-35.5645	12.4219	-55.4093
 133	1	2	0.222203	-37.663	12.0475	-54.1964
 134	1	2	0.041795	-34.8745	11.7429	-54.3704
 135	1	2	-0.461017	-36.9443	11.434	-53.1497
 136	1	2	-0.140506	-35.5544	11.2919	-53.2313
 137	1	4	0.148448	-35.0128	10.7563	-52.4539
 138	1	10	0.055442	-38.5399	13.988	-55.9401
 139	1	10	0.090839	-37.1197	14.0235	-56.971
 140	1	3	-0.16304	-37.7603	13.355	-56.3822
 141	1	10	0.039719	-38.2484	12.6581	-57.0752
 142	1	11	0.077452	-32.7767	12.1088	-54.0179
 143	1	11	0.09063	-33.2238	10.3992	-54.086
 144	1	4	0.230266	-37.4756	11.0062	-52.3014
 145	1	1	-0.247122	-36.3801	-6.96269	-46.1038
 146	1	2	0.139112	-37.7523	-7.18523	-45.937
 147	1	2	0.02746	-38.3708	-7.15294	-44.6641
 148	1	3	-0.077297	-37.5403	-6.76624	-43.4331
 149	1	2	-0.08585	-39.7406	-7.50405	-44.5556
 150	1	2	-0.195578	-40.4748	-7.83838	-45.7096
 151	1	4	0.171692	-41.5267	-8.10616	-45.6268
 152	1	2	-0.199822	-39.8631	-7.82354	-46.9737
 153	1	4	0.149498	-40.4402	-8.07574	-47.8596
 154	1	2	0.076729	-38.5032	-7.49713	-47.0943
 155	1	2	-0.057821	-40.8537	-8.03906	-41.0989
 156	1	2	-0.076852	-40.8767	-8.58367	-39.8104
 157	1	4	0.145382	-40.3121	-9.49315	-39.6373
 158	1	2	-0.023498	-41.6337	-7.93573	-38.7967
 159	1	4	0.166076	-42.8574	-5.31728	-40.7125
 160	1	2	-0.140684	-42.3118	-6.22268	-40.4535
 161	1	2	-0.058922	-41.5535	-6.89558	-41.4181
 162	1	3	-0.101954	-41.7866	-8.51898	-37.3597
 163	1	2	-0.067123	-42.3415	-6.75127	-39.1445
 164	1	4	0.142141	-42.9344	-6.2386	-38.3911
 165	1	3	0.321219	-43.2398	-9.13157	-37.2913
 166	1	3	0.382784	-40.7348	-9.65028	-37.0294
 167	1	5	-0.111948	-44.1852	-8.16701	-37.2266
 168	1	5	-0.11115	-43.4377	-9.94788	-36.2319
 169	1	5	-0.103632	-43.5188	-9.86985	-38.3897
 170	1	5	-0.110272	-39.4686	-9.2466	-37.2849
 171	1	5	-0.120305	-40.9453	-10.7922	-37.7215
 172	1	5	-0.123663	-40.7511	-9.99108	-35.7197
 173	1	6	0.452517	-41.2851	-6.57143	-42.8473
 174	1	6	0.453374	-40.1117	-8.48607	-42.3067
 175	1	7	0.018948	-40.3929	-7.54191	-43.2884
 176	1	8	-0.46698	-41.7156	-5.61136	-43.463
 177	1	8	-0.469385	-39.338	-9.42683	-42.3667
 178	1	3	-0.126657	-37.8246	-7.48702	-48.4748
 179	1	2	0.020988	-41.6951	-6.62958	-34.0041
 180	1	6	0.027902	-42.0734	-6.63289	-32.571
 181	1	8	-0.378193	-43.0168	-7.22652	-32.0747
 182	1	2	0.043573	-40.5808	-5.83339	-34.1656
 183	1	6	0.038038	-40.1778	-5.3149	-32.8308
 184	1	7	0.4913	-41.0916	-5.87555	-31.9346
 185	1	8	-0.382817	-39.1955	-4.63234	-32.588
 186	1	2	0.0054	-42.1932	-7.42028	-35.0418
 187	1	2	-0.040988	-39.9445	-5.72764	-35.4061
 188	1	2	-0.085341	-41.5263	-7.41231	-36.2958
 189	1	4	0.154391	-43.007	-8.0979	-34.8117
 190	1	2	-0.205992	-40.4297	-6.52133	-36.4692
 191	1	4	0.156637	-39.0526	-5.11417	-35.5161
 192	1	4	0.178085	-39.8806	-6.51262	-37.4085
 193	1	10	0.05178	-36.7504	-7.50534	-43.2519
 194	1	10	0.015669	-38.1254	-6.67925	-42.5122
 195	1	10	0.036134	-37.0599	-5.79162	-43.5714
 196	1	11	0.101096	-37.9371	-8.47527	-48.9362
 197	1	1	-0.196269	-36.3808	-7.14302	-48.395
 198	1	11	0.131285	-38.3428	-6.7604	-49.1138
 199	1	3	-0.292673	-35.7637	-7.74171	-47.1958
 200	1	3	-0.034798	-35.8938	-5.56282	-46.1036
 201	1	12	0.194395	-34.6727	-7.61326	-47.2091
 202	1	12	0.183693	-36.0141	-8.80774	-47.1101
 203	1	2	-0.144532	-35.8476	-5.29801	-49.9571
 204	1	2	0.128587	-35.9891	-5.82058	-48.646
 205	1	2	0.222203	-35.4106	-3.95758	-50.1142
 206	1	2	0.041795	-35.7025	-5.01392	-47.519
 207	1	2	-0.461017	-35.099	-3.18107	-48.9762
 208	1	2	-0.140506	-35.2453	-3.70217	-47.6868
 209	1	4	0.148448	-35.0141	-3.08998	-46.8175
 210	1	10	0.055442	-35.503	-5.92481	-52.0327
 211	1	10	0.090839	-36.0077	-7.23451	-50.9782
 212	1	3	-0.16304	-36.1536	-6.16622	-51.183
 213	1	10	0.039719	-37.1933	-6.03024	-51.5068
 214	1	11	0.077452	-34.9431	-5.50382	-45.5606
 215	1	11	0.09063	-36.6148	-4.91515	-45.5895
 216	1	4	0.230266	-34.747	-2.15782	-49.0988
 217	1	1	-0.247122	-40.5674	-6.30788	-25.4594
 218	1	2	0.139112	-41.7054	-6.86079	-24.8693
 219	1	2	0.02746	-42.2493	-6.35181	-23.6656
 220	1	3	-0.077297	-41.6017	-5.1552	-22.9606
 221	1	2	-0.08585	-43.4059	-6.95406	-23.1166
 222	1	2	-0.195578	-43.9883	-8.06292	-23.7636
 223	1	4	0.171692	-44.8669	-8.54246	-23.3362
 224	1	2	-0.199822	-43.4493	-8.5525	-24.9693
 225	1	4	0.149498	-43.9158	-9.39857	-25.4679
 226	1	2	0.076729	-42.3141	-7.94678	-25.5366
 227	1	2	-0.057821	-44.2443	-5.97181	-19.6705
 228	1	2	-0.076852	-44.1954	-5.96186	-18.2707
 229	1	4	0.145382	-43.6554	-6.77374	-17.7994
 230	1	2	-0.023498	-44.8649	-4.93562	-17.5389
 231	1	4	0.166076	-46.105	-3.19479	-20.2769
 232	1	2	-0.140684	-45.5744	-3.95882	-19.7116
 233	1	2	-0.058922	-44.9192	-5.00352	-20.3777
 234	1	3	-0.101954	-45.0074	-4.96601	-15.9715
 235	1	2	-0.067123	-45.5464	-3.93954	-18.2963
 236	1	4	0.142141	-46.083	-3.14851	-17.7784
 237	1	3	0.321219	-46.4954	-5.41431	-15.699
 238	1	3	0.382784	-44.0162	-6.01191	-15.3176
 239	1	5	-0.111948	-47.3614	-4.39977	-15.9182
 240	1	5	-0.11115	-46.7165	-5.84995	-14.44
 241	1	5	-0.103632	-46.87	-6.42805	-16.5137
 242	1	5	-0.110272	-42.7413	-5.77452	-15.7041
 243	1	5	-0.120305	-44.3178	-7.29414	-15.623
 244	1	5	-0.123663	-43.9977	-5.9656	-13.9669
 245	1	6	0.452517	-44.7621	-5.30247	-21.8327
 246	1	6	0.453374	-43.6326	-6.92257	-20.6418
 247	1	7	0.018948	-43.9695	-6.4458	-21.9036
 248	1	8	-0.46698	-45.176	-4.62138	-22.7551
 249	1	8	-0.469385	-42.9088	-7.86385	-20.3658
 250	1	3	-0.126657	-41.7341	-8.43847	-26.8794
 251	1	2	0.020988	-44.4503	-2.29023	-13.2186
 252	1	6	0.027902	-44.406	-2.02635	-11.7491
 253	1	8	-0.378193	-45.0477	-2.61965	-10.8978
 254	1	2	0.043573	-43.5789	-1.42351	-13.8387
 255	1	6	0.038038	-42.928	-0.583012	-12.7965
 256	1	7	0.4913	-43.4088	-1.05792	-11.5701
 257	1	8	-0.382817	-42.0506	0.24154	-12.9961
 258	1	2	0.0054	-45.0313	-3.35905	-13.9177
 259	1	2	-0.040988	-43.2798	-1.5512	-15.2002
 260	1	2	-0.085341	-44.6804	-3.59326	-15.2825
 261	1	4	0.154391	-45.6226	-4.06511	-13.3458
 262	1	2	-0.205992	-43.8239	-2.6465	-15.911
 263	1	4	0.156637	-42.5616	-0.878517	-15.6641
 264	1	4	0.178085	-43.4936	-2.80032	-16.9351
 265	1	10	0.05178	-40.5567	-5.00688	-23.2553
 266	1	10	0.015669	-41.5948	-5.27743	-21.8712
 267	1	10	0.036134	-42.1474	-4.23245	-23.1937
 268	1	11	0.101096	-41.4441	-9.49144	-26.7809
 269	1	1	-0.196269	-40.5558	-7.64234	-27.3304
 270	1	11	0.131285	-42.5235	-8.38476	-27.6404
 271	1	3	-0.292673	-39.7113	-7.2695	-26.1829
 272	1	3	-0.034798	-40.7578	-5.05041	-26.2196
 273	1	12	0.194395	-38.7776	-6.79872	-26.519
 274	1	12	0.183693	-39.4856	-8.14565	-25.5595
 275	1	2	-0.144532	-40.7795	-6.81701	-29.6477
 276	1	2	0.128587	-40.7664	-6.6017	-28.2476
 277	1	2	0.222203	-41.0243	-5.71622	-30.5163
 278	1	2	0.041795	-40.9062	-5.2966	-27.7237
 279	1	2	-0.461017	-41.2092	-4.42705	-29.9685
 280	1	2	-0.140506	-41.1368	-4.21531	-28.5843
 281	1	4	0.148448	-41.2499	-3.21337	-28.1752
 282	1	10	0.055442	-40.4068	-8.28735	-31.2707
 283	1	10	0.090839	-39.465	-8.54303	-29.8113
 284	1	3	-0.16304	-40.4479	-8.21911	-30.1787
 285	1	10	0.039719	-41.1849	-8.9551	-29.835
 286	1	11	0.077452	-39.8993	-4.39043	-26.0483
 287	1	11	0.09063	-41.6557	-4.52943	-25.8632
 288	1	4	0.230266	-41.3784	-3.57804	-30.6289
 289	1	1	-0.247122	-39.3787	-0.393419	-6.47139
 290	1	2	0.139112	-39.5447	-0.898797	-5.17598
 291	1	2	0.02746	-38.7066	-0.539956	-4.08371
 292	1	3	-0.077297	-37.6095	0.510538	-4.27046
 293	1	2	-0.08585	-38.8192	-1.25715	-2.86029
 294	1	2	-0.195578	-39.7898	-2.27138	-2.73956
 295	1	4	0.171692	-39.8663	-2.84182	-1.81564
 296	1	2	-0.199822	-40.5965	-2.63238	-3.82732
 297	1	4	0.149498	-41.2852	-3.46799	-3.73644
 298	1	2	0.076729	-40.4497	-1.97699	-5.05673
 299	1	2	-0.057821	-36.4663	-1.70245	-0.0625682
 300	1	2	-0.076852	-35.6236	-2.39126	0.820524
 301	1	4	0.145382	-35.3114	-3.39617	0.555351
 302	1	2	-0.023498	-35.1929	-1.75643	2.01735
 303	1	4	0.166076	-36.8192	1.26945	1.54867
 304	1	2	-0.140684	-36.4847	0.252562	1.35306
 305	1	2	-0.058922	-36.9019	-0.421964	0.196719
 306	1	3	-0.101954	-34.1902	-2.45651	2.98523
 307	1	2	-0.067123	-35.6213	-0.419385	2.25032
 308	1	4	0.142141	-35.2782	0.113723	3.13301
 309	1	3	0.321219	-34.4495	-4.0174	3.08342
 310	1	3	0.382784	-32.7576	-2.2172	2.3688
 311	1	5	-0.111948	-35.7685	-4.30614	3.16117
 312	1	5	-0.11115	-33.8723	-4.55081	4.18503
 313	1	5	-0.103632	-33.9694	-4.72842	2.03896
 314	1	5	-0.110272	-32.4329	-0.903982	2.3756
 315	1	5	-0.120305	-32.6721	-2.59882	1.07458
 316	1	5	-0.123663	-31.7889	-2.89148	3.03052
 317	1	6	0.452517	-37.8375	-0.0187329	-0.899106
 318	1	6	0.453374	-37.08	-2.15088	-1.34086
 319	1	7	0.018948	-37.9019	-1.10896	-1.76607
 320	1	8	-0.46698	-38.4789	1.0169	-0.947999
 321	1	8	-0.469385	-36.942	-3.25199	-1.84671
 322	1	3	-0.126657	-41.1726	-2.51079	-6.30546
 323	1	2	0.020988	-33.3502	-1.10852	6.54023
 324	1	6	0.027902	-32.294	-0.771911	7.52451
 325	1	8	-0.378193	-31.1185	-0.562376	7.27384
 326	1	2	0.043573	-34.5293	-1.33212	7.21695
 327	1	6	0.038038	-34.2698	-1.16847	8.67725
 328	1	7	0.4913	-32.9043	-0.88482	8.77081
 329	1	8	-0.382817	-35.0542	-1.40432	9.58161
 330	1	2	0.0054	-33.2128	-1.38779	5.17796
 331	1	2	-0.040988	-35.6637	-1.78919	6.5365
 332	1	2	-0.085341	-34.3225	-1.89966	4.44775
 333	1	4	0.154391	-32.2222	-1.27133	4.75551
 334	1	2	-0.205992	-35.5544	-2.04844	5.14911
 335	1	4	0.156637	-36.5829	-1.99622	7.08107
 336	1	4	0.178085	-36.4259	-2.44391	4.63254
 337	1	10	0.05178	-36.6424	0.0301047	-4.46231
 338	1	10	0.015669	-37.4976	1.15021	-3.38893
 339	1	10	0.036134	-37.8169	1.1829	-5.11138
 340	1	11	0.101096	-41.1161	-3.60564	-6.30744
 341	1	1	-0.196269	-40.6078	-1.99722	-7.58749
 342	1	11	0.131285	-42.2328	-2.23723	-6.23261
 343	1	3	-0.292673	-39.228	-1.48702	-7.45272
 344	1	3	-0.034798	-40.3048	0.682519	-6.95896
 345	1	12	0.194395	-38.8525	-1.10569	-8.41236
 346	1	12	0.183693	-38.5569	-2.27182	-7.07758
 347	1	2	-0.144532	-42.1547	-1.61718	-9.46496
 348	1	2	0.128587	-41.4027	-1.14958	-8.35654
 349	1	2	0.222203	-42.8146	-0.676054	-10.3101
 350	1	2	0.041795	-41.2758	0.224586	-8.07402
 351	1	2	-0.461017	-42.7285	0.699174	-9.97331
 352	1	2	-0.140506	-41.9718	1.14651	-8.87156
 353	1	4	0.148448	-41.8735	2.2119	-8.67227
 354	1	10	0.055442	-42.8626	-3.6361	-9.06968
 355	1	10	0.090839	-42.4346	-3.39474	-10.7684
 356	1	3	-0.16304	-42.1607	-3.1279	-9.74397
 357	1	10	0.039719	-41.1711	-3.57176	-9.58011
 358	1	11	0.077452	-39.7043	1.51813	-7.33863
 359	1	11	0.09063	-40.8983	1.0646	-6.11859
 360	1	4	0.230266	-43.1911	1.4382	-10.6262
 361	1	1	-0.247122	-29.0676	-0.355425	14.0228
 362	1	2	0.139112	-27.8302	0.22173	13.7222
 363	1	2	0.02746	-26.6258	-0.165098	14.366
 364	1	3	-0.077297	-26.6026	-1.31455	15.3775
 365	1	2	-0.08585	-25.4389	0.554632	14.0838
 366	1	2	-0.195578	-25.4628	1.6112	13.1526
 367	1	4	0.171692	-24.5567	2.18043	12.9524
 368	1	2	-0.199822	-26.6503	1.96637	12.4986
 369	1	4	0.149498	-26.6542	2.79239	11.7924
 370	1	2	0.076729	-27.839	1.28126	12.785
 371	1	2	-0.057821	-22.2136	0.793484	15.7774
 372	1	2	-0.076852	-21.1153	1.49036	16.2851
 373	1	4	0.145382	-21.2803	2.50073	16.6442
 374	1	2	-0.023498	-19.8246	0.901424	16.236
 375	1	4	0.166076	-20.7434	-2.08658	14.7356
 376	1	2	-0.140684	-20.845	-1.10537	15.1953
 377	1	2	-0.058922	-22.0833	-0.450775	15.2034
 378	1	3	-0.101954	-18.5718	1.74756	16.6293
 379	1	2	-0.067123	-19.7271	-0.432135	15.7409
 380	1	4	0.142141	-18.7709	-0.945174	15.7188
 381	1	3	0.321219	-18.5775	3.10278	15.8061
 382	1	3	0.382784	-18.657	2.0898	18.1721
 383	1	5	-0.111948	-17.3655	3.70272	15.8207
 384	1	5	-0.11115	-19.455	4.02644	16.2544
 385	1	5	-0.103632	-18.8991	2.90382	14.5071
 386	1	5	-0.110272	-19.7962	2.71378	18.542
 387	1	5	-0.120305	-17.6556	2.9078	18.5712
 388	1	5	-0.123663	-18.6099	0.965554	18.9214
 389	1	6	0.452517	-23.3813	-0.793032	14.5487
 390	1	6	0.453374	-23.5987	1.27313	15.5567
 391	1	7	0.018948	-24.2065	0.309064	14.7622
 392	1	8	-0.46698	-23.5952	-1.7634	13.8422
 393	1	8	-0.469385	-24.0403	2.35756	15.8973
 394	1	3	-0.126657	-29.1535	1.70607	12.1084
 395	1	2	0.020988	-14.9472	0.319556	16.7663
 396	1	6	0.027902	-13.6794	0.185021	17.5247
 397	1	8	-0.378193	-13.5347	0.352887	18.7245
 398	1	2	0.043573	-14.6862	0.0864211	15.4338
 399	1	6	0.038038	-13.2358	-0.19678	15.2757
 400	1	7	0.4913	-12.7062	-0.0691809	16.5589
 401	1	8	-0.382817	-12.6429	-0.376551	14.2247
 402	1	2	0.0054	-16.1939	0.771592	17.2078
 403	1	2	-0.040988	-15.6823	0.247733	14.4701
 404	1	2	-0.085341	-17.2291	1.01609	16.2592
 405	1	4	0.154391	-16.2858	0.986016	18.2656
 406	1	2	-0.205992	-16.9483	0.705924	14.8945
 407	1	4	0.156637	-15.46	0.0798009	13.4184
 408	1	4	0.178085	-17.7058	0.86411	14.1318
 409	1	10	0.05178	-27.601	-1.57568	15.7465
 410	1	10	0.015669	-25.9989	-1.0656	16.2586
 411	1	10	0.036134	-26.1759	-2.2174	14.9227
 412	1	11	0.101096	-29.3136	2.77681	12.2813
 413	1	1	-0.196269	-30.3325	0.944931	12.6021
 414	1	11	0.131285	-29.0468	1.5583	11.0259
 415	1	3	-0.292673	-30.1923	0.602599	14.0303
 416	1	3	-0.034798	-29.4281	-1.62139	13.3372
 417	1	12	0.194395	-31.1095	0.135418	14.4134
 418	1	12	0.183693	-29.9489	1.49293	14.6262
 419	1	2	-0.144532	-31.7013	0.102884	10.7207
 420	1	2	0.128587	-30.8138	-0.102866	11.8097
 421	1	2	0.222203	-32.1305	-1.0171	9.96431
 422	1	2	0.041795	-30.3834	-1.40552	12.1543
 423	1	2	-0.461017	-31.698	-2.31184	10.3293
 424	1	2	-0.140506	-30.8359	-2.50718	11.4172
 425	1	4	0.148448	-30.5032	-3.50888	11.6814
 426	1	10	0.055442	-33.2753	1.49694	10.12
 427	1	10	0.090839	-32.0901	2.21366	11.197
 428	1	3	-0.16304	-32.2056	1.50593	10.3661
 429	1	10	0.039719	-31.6627	1.91391	9.50462
 430	1	11	0.077452	-29.899	-2.30155	14.0566
 431	1	11	0.09063	-28.5194	-2.11177	12.9641
 432	1	4	0.230266	-32.0206	-3.17253	9.74595
 433	1	1	-0.247122	-6.58944	1.36541	18.2156
 434	1	2	0.139112	-5.77183	1.96278	17.2524
 435	1	2	0.02746	-4.36601	1.84767	17.3037
 436	1	3	-0.077297	-3.73624	0.866169	18.2976
 437	1	2	-0.08585	-3.57482	2.71414	16.5069
 438	1	2	-0.195578	-4.19275	3.56775	15.5728
 439	1	4	0.171692	-3.58906	4.24007	14.9661
 440	1	2	-0.199822	-5.59441	3.62004	15.4765
 441	1	4	0.149498	-6.06562	4.31479	14.786
 442	1	2	0.076729	-6.38758	2.85644	16.349
 443	1	2	-0.057821	0.0926639	2.74417	16.955
 444	1	2	-0.076852	1.4453	2.38972	16.8006
 445	1	4	0.145382	1.76864	1.90837	15.8805
 446	1	2	-0.023498	2.35375	2.60992	17.8769
 447	1	4	0.166076	0.0972556	3.96864	20.1315
 448	1	2	-0.140684	0.487468	3.56069	19.2005
 449	1	2	-0.058922	-0.361642	3.31554	18.1249
 450	1	3	-0.101954	3.81925	2.06182	17.7877
 451	1	2	-0.067123	1.83874	3.203	19.0686
 452	1	4	0.142141	2.45556	3.36635	19.9424
 453	1	3	0.321219	4.71764	2.50649	19.0091
 454	1	3	0.382784	3.68177	0.486408	17.7865
 455	1	5	-0.111948	6.01765	2.1655	18.8642
 456	1	5	-0.11115	4.32341	1.95168	20.1783
 457	1	5	-0.103632	4.71368	3.85133	19.1563
 458	1	5	-0.110272	4.81858	-0.167305	18.1131
 459	1	5	-0.120305	3.30936	0.023026	16.5717
 460	1	5	-0.123663	2.74525	0.0639469	18.6668
 461	1	6	0.452517	-1.82973	3.46818	18.047
 462	1	6	0.453374	-1.09818	2.50112	16.0813
 463	1	7	0.018948	-2.19938	2.91322	16.8294
 464	1	8	-0.46698	-2.55026	3.89357	18.9345
 465	1	8	-0.469385	-1.09391	1.97896	14.9803
 466	1	3	-0.126657	-7.91217	3.05064	16.3986
 467	1	2	0.020988	6.36438	2.38421	14.8996
 468	1	6	0.027902	7.55886	1.84493	14.2058
 469	1	8	-0.378193	8.23967	0.900978	14.5721
 470	1	2	0.043573	5.90454	3.48329	14.2092
 471	1	6	0.038038	6.76567	3.67336	13.0129
 472	1	7	0.4913	7.69758	2.6332	13.0638
 473	1	8	-0.382817	6.6245	4.52444	12.1497
 474	1	2	0.0054	5.70654	1.90084	16.0304
 475	1	2	-0.040988	4.78322	4.19394	14.6499
 476	1	2	-0.085341	4.54433	2.56792	16.5036
 477	1	4	0.154391	6.12024	1.02708	16.5211
 478	1	2	-0.205992	4.12038	3.73995	15.8136
 479	1	4	0.156637	4.44006	5.06982	14.1032
 480	1	4	0.178085	3.26766	4.31213	16.1704
 481	1	10	0.05178	-2.65187	0.76511	18.1805
 482	1	10	0.015669	-4.15285	-0.139505	18.1619
 483	1	10	0.036134	-3.93554	1.17392	19.3315
 484	1	11	0.101096	-8.13402	4.123	16.4538
 485	1	1	-0.196269	-8.54638	2.36272	17.5577
 486	1	11	0.131285	-8.34109	2.66968	15.4634
 487	1	3	-0.292673	-7.64001	2.27191	18.7169
 488	1	3	-0.034798	-7.09723	-0.0113409	17.9789
 489	1	12	0.194395	-8.153	1.84454	19.5895
 490	1	12	0.183693	-7.22468	3.25656	18.9737
 491	1	2	-0.144532	-10.6217	1.19195	16.9655
 492	1	2	0.128587	-9.25375	1.18192	17.3198
 493	1	2	0.222203	-11.3086	-0.0438214	16.8397
 494	1	2	0.041795	-8.56702	-0.0337083	17.5332
 495	1	2	-0.461017	-10.6065	-1.25627	17.0304
 496	1	2	-0.140506	-9.24317	-1.25206	17.3712
 497	1	4	0.148448	-8.71361	-2.18879	17.5338
 498	1	10	0.055442	-11.134	3.21323	17.6102
 499	1	10	0.090839	-10.9566	3.03909	15.8587
 500	1	3	-0.16304	-11.3271	2.54142	16.7637
 501	1	10	0.039719	-12.4153	2.46936	16.6682
 502	1	11	0.077452	-6.99732	-0.592295	18.9039
 503	1	11	0.09063	-6.49009	-0.504738	17.2097
 504	1	4	0.230266	-11.1286	-2.20581	16.9287
 505	1	1	-0.247122	10.8754	0.68091	7.74536
 506	1	2	0.139112	11.7595	-0.342544	8.10547
 507	1	2	0.02746	13.1143	-0.324916	7.7026
 508	1	3	-0.077297	13.6114	0.710231	6.68983
 509	1	2	-0.08585	14.0173	-1.23968	8.28936
 510	1	2	-0.195578	13.5455	-2.23619	9.16334
 511	1	4	0.171692	14.2453	-2.92771	9.62889
 512	1	2	-0.199822	12.1854	-2.29125	9.50764
 513	1	4	0.149498	11.8356	-3.03571	10.2181
 514	1	2	0.076729	11.2972	-1.32077	9.0164
 515	1	2	-0.057821	17.6847	-1.07701	7.894
 516	1	2	-0.076852	18.9928	-1.36916	7.47293
 517	1	4	0.145382	19.1168	-2.1511	6.73399
 518	1	2	-0.023498	20.0853	-0.629929	8.01701
 519	1	4	0.166076	18.2502	1.42861	10.1234
 520	1	2	-0.140684	18.4657	0.656316	9.38723
 521	1	2	-0.058922	17.4317	-0.0558822	8.78427
 522	1	3	-0.101954	21.5725	-0.812614	7.56243
 523	1	2	-0.067123	19.7852	0.324891	9.03217
 524	1	4	0.142141	20.5772	0.844383	9.55797
 525	1	3	0.321219	21.7304	-1.76311	6.28546
 526	1	3	0.382784	22.1481	0.603368	7.09261
 527	1	5	-0.111948	23.0263	-1.93265	5.94181
 528	1	5	-0.11115	21.0895	-1.29235	5.19265
 529	1	5	-0.103632	21.2543	-3.01722	6.42546
 530	1	5	-0.110272	21.4705	1.11571	6.04195
 531	1	5	-0.120305	23.451	0.540175	6.73814
 532	1	5	-0.123663	22.0908	1.58806	8.01305
 533	1	6	0.452517	15.9696	0.0455508	8.98964
 534	1	6	0.453374	16.376	-1.70873	7.5421
 535	1	7	0.018948	15.416	-0.982939	8.2416
 536	1	8	-0.46698	15.3954	0.868586	9.68384
 537	1	8	-0.469385	16.2131	-2.69821	6.84928
 538	1	3	-0.126657	9.84808	-1.27013	9.52124
 539	1	2	0.020988	23.9314	-1.29469	10.6485
 540	1	6	0.027902	24.7546	-0.72514	11.7554
 541	1	8	-0.378193	24.9749	0.456943	11.9619
 542	1	2	0.043573	23.8144	-2.65127	10.8609
 543	1	6	0.038038	24.584	-3.02525	12.0615
 544	1	7	0.4913	25.0552	-1.81951	12.5699
 545	1	8	-0.382817	24.6431	-4.1376	12.5614
 546	1	2	0.0054	23.2425	-0.65909	9.6047
 547	1	2	-0.040988	22.9364	-3.4298	10.1172
 548	1	2	-0.085341	22.3667	-1.42136	8.77241
 549	1	4	0.154391	23.3916	0.406578	9.49501
 550	1	2	-0.205992	22.1877	-2.79518	9.11133
 551	1	4	0.156637	22.8013	-4.4831	10.3541
 552	1	4	0.178085	21.4472	-3.4088	8.61614
 553	1	10	0.05178	12.8312	0.963677	5.96074
 554	1	10	0.015669	14.4632	0.333432	6.11027
 555	1	10	0.036134	13.9233	1.63607	7.18715
 556	1	11	0.101096	9.2907	-2.11357	9.09677
 557	1	1	-0.196269	9.18366	0.00382831	9.15008
 558	1	11	0.131285	9.848	-1.3832	10.6131
 559	1	3	-0.292673	9.44457	0.318277	7.73404
 560	1	3	-0.034798	11.0783	1.97933	8.43325
 561	1	12	0.194395	8.82263	1.16107	7.40249
 562	1	12	0.183693	9.26352	-0.55541	7.094
 563	1	2	-0.144532	8.4602	1.23414	11.1671
 564	1	2	0.128587	9.30171	1.08515	10.0362
 565	1	2	0.222203	8.62264	2.36871	12.0068
 566	1	2	0.041795	10.271	2.06982	9.73307
 567	1	2	-0.461017	9.64556	3.30332	11.7288
 568	1	2	-0.140506	10.4626	3.15704	10.5976
 569	1	4	0.148448	11.22	3.904	10.3672
 570	1	10	0.055442	6.35125	0.741543	11.4527
 571	1	10	0.090839	7.25053	-0.55141	10.6748
 572	1	3	-0.16304	7.32433	0.23514	11.434
 573	1	10	0.039719	7.45939	-0.276408	12.394
 574	1	11	0.077452	10.7712	2.7954	7.76792
 575	1	11	0.09063	12.1394	2.12546	8.6712
 576	1	4	0.230266	9.76629	4.17957	12.3637
 577	1	1	-0.247122	25.2469	-3.38372	18.6955
 578	1	2	0.139112	25.1941	-2.49412	19.7666
 579	1	2	0.02746	25.8629	-2.75965	20.9774
 580	1	3	-0.077297	26.7136	-4.03931	21.0821
 581	1	2	-0.08585	25.7319	-1.83071	22.0434
 582	1	2	-0.195578	24.9785	-0.653777	21.8704
 583	1	4	0.171692	24.9316	0.0843026	22.6691
 584	1	2	-0.199822	24.3438	-0.38956	20.6461
 585	1	4	0.149498	23.7908	0.535872	20.5097
 586	1	2	0.076729	24.454	-1.30547	19.5882
 587	1	2	-0.057821	28.646	-2.15937	24.006
 588	1	2	-0.076852	30.039	-2.10473	24.0276
 589	1	4	0.145382	30.5128	-1.21536	23.6276
 590	1	2	-0.023498	30.7636	-3.22137	24.5104
 591	1	4	0.166076	28.0656	-5.31964	25.1101
 592	1	2	-0.140684	28.6163	-4.41383	24.8628
 593	1	2	-0.058922	27.9439	-3.2682	24.4284
 594	1	3	-0.101954	32.3158	-3.2161	24.6508
 595	1	2	-0.067123	30.025	-4.37953	24.8957
 596	1	4	0.142141	30.5493	-5.2648	25.2455
 597	1	3	0.321219	32.8749	-4.25857	23.6031
 598	1	3	0.382784	32.9653	-1.8037	24.3785
 599	1	5	-0.111948	32.2799	-4.11598	22.397
 600	1	5	-0.11115	32.6561	-5.53284	23.9972
 601	1	5	-0.103632	34.2044	-4.15684	23.3829
 602	1	5	-0.110272	34.2897	-1.77789	24.6489
 603	1	5	-0.120305	32.4185	-0.849188	25.1657
 604	1	5	-0.123663	32.8356	-1.4094	23.091
 605	1	6	0.452517	26.5233	-3.10259	24.0181
 606	1	6	0.453374	27.7198	-1.25545	23.2951
 607	1	7	0.018948	26.5366	-1.9722	23.2044
 608	1	8	-0.46698	25.6606	-3.9611	24.0928
 609	1	8	-0.469385	28.0472	-0.264786	22.664
 610	1	3	-0.126657	23.805	-1.01795	18.2257
 611	1	2	0.020988	34.2104	-4.46332	27.7702
 612	1	6	0.027902	35.4684	-4.94323	28.3908
 613	1	8	-0.378193	36.5516	-5.0621	27.8435
 614	1	2	0.043573	33.2367	-4.39534	28.7455
 615	1	6	0.038038	33.8098	-4.86817	30.0223
 616	1	7	0.4913	35.1391	-5.15975	29.725
 617	1	8	-0.382817	33.2322	-4.94127	31.0954
 618	1	2	0.0054	33.955	-4.08876	26.4503
 619	1	2	-0.040988	31.9726	-3.87606	28.4785
 620	1	2	-0.085341	32.6643	-3.60609	26.1152
 621	1	4	0.154391	34.7578	-4.16379	25.7244
 622	1	2	-0.205992	31.7092	-3.44866	27.1649