pySIMM System Object

1442 atoms
1601 bonds
2880 angles
4436 dihedrals
400 impropers

12 atom types
15 bond types
28 angle types
9 dihedral types
4 improper types

-175.798973 175.798973 xlo xhi
-175.798973 175.798973 ylo yhi
-175.798973 175.798973 zlo zhi

Masses

   1	14.01	# nh
   2	12.01	# ca
   3	12.01	# c3
   4	1.008	# ha
   5	19.0	# f
   6	12.01	# c
   7	14.01	# n
   8	16.0	# o
   9	1.008	# hn
  10	1.008	# hc
  11	1.008	# h1
  12	1.008	# h2

Pair Coeffs

   1	0.17	3.249998523775958	# nh
   2	0.086	3.3996695084235347	# ca
   3	0.1094	3.3996695084235347	# c3
   4	0.015	2.59964245953351	# ha
   5	0.061	3.1181455134911875	# f
   6	0.086	3.3996695084235347	# c
   7	0.17	3.249998523775958	# n
   8	0.21	2.959921901149463	# o
   9	0.0157	1.069078461768407	# hn
  10	0.0157	2.649532787749369	# hc
  11	0.0157	2.471353044121301	# h1
  12	0.0157	2.2931733004932333	# h2

Bond Coeffs

   1	356.9	1.3497	# c3,f
   2	403.2	1.0129	# hn,n
   3	417.9	1.3859	# ca,nh
   4	300.9	1.5375	# c3,c3
   5	384.2	1.4121	# ca,n
   6	330.6	1.0969	# c3,h1
   7	461.1	1.3984	# ca,ca
   8	326.6	1.464	# c3,nh
   9	427.6	1.3789	# c,n
  10	331.7	1.0961	# c3,h2
  11	345.9	1.4906	# c,ca
  12	345.8	1.086	# ca,ha
  13	321.0	1.5156	# c3,ca
  14	330.6	1.0969	# c3,hc
  15	637.7	1.2183	# c,o

Angle Coeffs

   1	71.11	105.87	# nh,c3,nh
   2	63.25	114.51	# c3,nh,c3
   3	74.22	123.05	# n,c,o
   4	66.62	120.02	# ca,ca,ca
   5	68.29	120.95	# ca,ca,nh
   6	49.52	110.01	# h2,c3,nh
   7	68.72	122.6	# ca,c,o
   8	49.57	109.79	# h1,c3,nh
   9	67.68	115.25	# ca,c,n
  10	66.46	111.39	# ca,c3,nh
  11	48.33	117.55	# c,n,hn
  12	64.28	120.33	# c,ca,ca
  13	39.4	107.58	# hc,c3,hc
  14	63.53	120.77	# c3,ca,ca
  15	70.89	107.36	# f,c3,f
  16	67.87	120.19	# ca,ca,n
  17	46.8	110.47	# ca,c3,hc
  18	46.99	109.56	# ca,c3,h1
  19	62.86	111.51	# c3,c3,c3
  20	66.11	109.24	# c3,c3,f
  21	63.15	112.07	# c3,c3,ca
  22	38.96	110.2	# h2,c3,h2
  23	63.82	123.71	# c,n,ca
  24	39.24	108.46	# h1,c3,h1
  25	63.56	112.24	# ca,c3,ca
  26	63.39	119.98	# c3,nh,ca
  27	63.74	127.08	# c,n,c
  28	48.18	119.88	# ca,ca,ha

Dihedral Coeffs

   1	2	2.5	2	180	2.0	1	0	# hn,n,c,o
   2	1	0.0	2	0	# X,c3,nh,X
   3	1	3.625	2	180	# X,ca,ca,X
   4	1	0.0	2	0	# X,c3,ca,X
   5	1	1.0	2	180	# X,c,ca,X
   6	1	0.15555555555555556	3	0	# X,c3,c3,X
   7	1	2.5	2	180	# X,c,n,X
   8	1	0.45	2	180	# X,ca,n,X
   9	1	1.05	2	180	# X,ca,nh,X

Improper Coeffs

   1	10.5	-1	2	# c,X,X,o
   2	1.1	-1	2	# n,X,X,hn
   3	1.1	-1	2	# ca,ca,ca,c3
   4	1.1	-1	2	# ca,X,X,ha

Atoms

   1	1	1	-0.247122	-31.2774	88.4528	-49.8327
   2	1	2	0.139112	-31.447	89.5265	-48.9469
   3	1	2	0.02746	-31.7273	89.3357	-47.5721
   4	1	3	-0.077297	-31.9281	87.926	-47.0054
   5	1	2	-0.08585	-31.831	90.4669	-46.726
   6	1	2	-0.195578	-31.697	91.7627	-47.2558
   7	1	4	0.171692	-31.7878	92.6306	-46.6052
   8	1	2	-0.199822	-31.4357	91.9462	-48.6217
   9	1	4	0.149498	-31.3242	92.95	-49.023
  10	1	2	0.076729	-31.2979	90.8345	-49.4669
  11	1	2	-0.057821	-33.0011	90.1745	-43.2505
  12	1	2	-0.076852	-33.8885	90.1384	-42.1649
  13	1	4	0.145382	-34.9086	90.4726	-42.324
  14	1	2	-0.023498	-33.43	89.6303	-40.9179
  15	1	4	0.166076	-30.1582	88.9434	-41.8377
  16	1	2	-0.140684	-31.19	89.2802	-41.9175
  17	1	2	-0.058922	-31.6932	89.7518	-43.1318
  18	1	3	-0.101954	-34.3492	89.4533	-39.6699
  19	1	2	-0.067123	-32.0684	89.2251	-40.8183
  20	1	4	0.142141	-31.6898	88.8279	-39.8803
  21	1	3	0.321219	-33.9088	90.5536	-38.6264
  22	1	3	0.382784	-35.8852	89.6236	-39.9804
  23	1	5	-0.111948	-32.692	90.2932	-38.0974
  24	1	5	-0.11115	-34.7625	90.6843	-37.5863
  25	1	5	-0.103632	-33.8174	91.7732	-39.2034
  26	1	5	-0.110272	-36.2831	88.8317	-41.0021
  27	1	5	-0.120305	-36.2212	90.8939	-40.2999
  28	1	5	-0.123663	-36.6519	89.2713	-38.9231
  29	1	6	0.452517	-31.0431	89.8506	-44.4641
  30	1	6	0.453374	-33.2313	90.5628	-44.6702
  31	1	7	0.018948	-32.0288	90.3177	-45.3238
  32	1	8	-0.46698	-29.9012	89.5194	-44.7353
  33	1	8	-0.469385	-34.2814	90.9547	-45.1494
  34	1	3	-0.126657	-30.9707	91.0387	-50.9516
  35	1	2	0.020988	-33.893	86.3266	-37.4098
  36	1	6	0.027902	-33.7094	85.7242	-36.0639
  37	1	8	-0.378193	-33.7326	86.3148	-34.9966
  38	1	2	0.043573	-33.7683	85.3261	-38.3525
  39	1	6	0.038038	-33.4888	84.0459	-37.6565
  40	1	7	0.4913	-33.4587	84.3725	-36.3016
  41	1	8	-0.382817	-33.266	82.9686	-38.1849
  42	1	2	0.0054	-34.0958	87.6634	-37.7755
  43	1	2	-0.040988	-33.8677	85.5991	-39.7173
  44	1	2	-0.085341	-34.1645	87.9938	-39.1563
  45	1	4	0.154391	-34.1749	88.4067	-36.9894
  46	1	2	-0.205992	-34.0777	86.9367	-40.1071
  47	1	4	0.156637	-33.7718	84.7995	-40.4489
  48	1	4	0.178085	-34.158	87.1517	-41.1707
  49	1	10	0.05178	-32.2468	87.2117	-47.7742
  50	1	10	0.015669	-32.7046	87.9064	-46.2308
  51	1	10	0.036134	-30.999	87.5464	-46.5625
  52	1	11	0.101096	-31.824	91.5186	-51.4455
  53	1	1	-0.196269	-30.6638	89.7553	-51.6253
  54	1	11	0.131285	-30.1112	91.7156	-51.0319
  55	1	3	-0.292673	-31.6458	88.726	-51.2358
  56	1	3	-0.034798	-29.9909	87.7178	-49.7702
  57	1	12	0.194395	-31.537	87.8278	-51.8586
  58	1	12	0.183693	-32.6727	89.1089	-51.3074
  59	1	2	-0.144532	-28.3701	89.8946	-52.5098
  60	1	2	0.128587	-29.3274	89.3332	-51.6337
  61	1	2	0.222203	-27.0413	89.4326	-52.4607
  62	1	2	0.041795	-28.9485	88.319	-50.7212
  63	1	2	-0.461017	-26.6666	88.4265	-51.5565
  64	1	2	-0.140506	-27.6176	87.8682	-50.6854
  65	1	4	0.148448	-27.3271	87.0905	-49.9825
  66	1	10	0.055442	-28.0196	91.0307	-54.341
  67	1	10	0.090839	-29.7276	90.7637	-53.9789
  68	1	3	-0.16304	-28.7503	90.9709	-53.5242
  69	1	10	0.039719	-28.7998	91.9585	-53.0496
  70	1	11	0.077452	-30.1563	86.6674	-50.0386
  71	1	11	0.09063	-29.591	87.7423	-48.7488
  72	1	4	0.230266	-25.6348	88.0847	-51.537
  73	1	1	-0.247122	-32.8651	80.2032	-31.3361
  74	1	2	0.139112	-32.9537	80.8444	-30.0951
  75	1	2	0.02746	-32.1492	80.4749	-28.9878
  76	1	3	-0.077297	-31.0678	79.3972	-29.1364
  77	1	2	-0.08585	-32.3704	81.1034	-27.735
  78	1	2	-0.195578	-33.3441	82.1157	-27.622
  79	1	4	0.171692	-33.4996	82.6177	-26.6684
  80	1	2	-0.199822	-34.1075	82.5038	-28.7339
  81	1	4	0.149498	-34.8486	83.2929	-28.6351
  82	1	2	0.076729	-33.9207	81.8693	-29.9708
  83	1	2	-0.057821	-30.553	79.598	-24.8939
  84	1	2	-0.076852	-30.065	78.6199	-24.0149
  85	1	4	0.145382	-30.4192	77.5956	-24.1059
  86	1	2	-0.023498	-29.1367	78.9936	-23.0076
  87	1	4	0.166076	-28.8978	82.361	-23.8007
  88	1	2	-0.140684	-29.2146	81.3211	-23.8536
  89	1	2	-0.058922	-30.1267	80.9067	-24.8264
  90	1	3	-0.101954	-28.6725	77.9219	-21.9752
  91	1	2	-0.067123	-28.7362	80.3609	-22.94
  92	1	4	0.142141	-28.0534	80.7135	-22.1761
  93	1	3	0.321219	-27.4775	78.3985	-21.0595
  94	1	3	0.382784	-29.9255	77.6326	-21.0542
  95	1	5	-0.111948	-26.4399	78.8703	-21.7879
  96	1	5	-0.11115	-26.9728	77.3832	-20.3216
  97	1	5	-0.103632	-27.83	79.3686	-20.1855
  98	1	5	-0.110272	-30.8846	76.9346	-21.7033
  99	1	5	-0.120305	-30.5107	78.7801	-20.6402
 100	1	5	-0.123663	-29.6285	76.9362	-19.9335
 101	1	6	0.452517	-30.7937	81.6772	-25.9087
 102	1	6	0.453374	-31.5416	79.4957	-26.0018
 103	1	7	0.018948	-31.6001	80.7643	-26.5786
 104	1	8	-0.46698	-30.6368	82.8628	-26.1477
 105	1	8	-0.469385	-32.1699	78.4963	-26.3064
 106	1	3	-0.126657	-34.7681	82.2816	-31.1863
 107	1	2	0.020988	-26.608	75.7181	-24.3813
 108	1	6	0.027902	-25.5307	75.6187	-25.4095
 109	1	8	-0.378193	-25.0586	76.5421	-26.0521
 110	1	2	0.043573	-26.8489	74.4508	-23.8922
 111	1	6	0.038038	-25.9402	73.4941	-24.5665
 112	1	7	0.4913	-25.1639	74.2685	-25.428
 113	1	8	-0.382817	-25.851	72.3	-24.3298
 114	1	2	0.0054	-27.2422	76.8426	-23.8291
 115	1	2	-0.040988	-27.7487	74.2293	-22.8495
 116	1	2	-0.085341	-28.1396	76.67	-22.7378
 117	1	4	0.154391	-26.9811	77.8321	-24.1955
 118	1	2	-0.205992	-28.3882	75.3456	-22.2757
 119	1	4	0.156637	-27.9016	73.2246	-22.4608
 120	1	4	0.178085	-29.037	75.1555	-21.4276
 121	1	10	0.05178	-30.702	79.2973	-30.1624
 122	1	10	0.015669	-31.4518	78.4148	-28.8378
 123	1	10	0.036134	-30.186	79.6193	-28.5235
 124	1	11	0.101096	-35.8296	82.1588	-30.9407
 125	1	1	-0.196269	-34.4487	81.4864	-32.4001
 126	1	11	0.131285	-34.5945	83.3467	-31.3869
 127	1	3	-0.292673	-34.1507	80.0844	-32.0521
 128	1	3	-0.034798	-31.7714	80.6077	-32.254
 129	1	12	0.194395	-34.0478	79.4681	-32.9555
 130	1	12	0.183693	-34.9285	79.6646	-31.3998
 131	1	2	-0.144532	-34.0192	82.9568	-34.3369
 132	1	2	0.128587	-33.5802	82.042	-33.3478
 133	1	2	0.222203	-33.0828	83.4468	-35.2835
 134	1	2	0.041795	-32.2328	81.6154	-33.3111
 135	1	2	-0.461017	-31.7404	83.0081	-35.2325
 136	1	2	-0.140506	-31.3167	82.0989	-34.254
 137	1	4	0.148448	-30.2828	81.7599	-34.2285
 138	1	10	0.055442	-36.1604	82.574	-34.0723
 139	1	10	0.090839	-35.6739	84.2456	-33.7426
 140	1	3	-0.16304	-35.4917	83.382	-34.3951
 141	1	10	0.039719	-35.8122	83.6537	-35.4079
 142	1	11	0.077452	-31.3736	79.7184	-32.7577
 143	1	11	0.09063	-30.9523	81.0629	-31.683
 144	1	4	0.230266	-31.0254	83.3652	-35.9716
 145	1	1	-0.247122	-19.7223	71.0991	-26.8678
 146	1	2	0.139112	-18.5552	71.6311	-27.4171
 147	1	2	0.02746	-17.5857	70.8309	-28.0698
 148	1	3	-0.077297	-17.7989	69.3144	-28.1367
 149	1	2	-0.08585	-16.4126	71.4437	-28.5921
 150	1	2	-0.195578	-16.2245	72.8297	-28.4084
 151	1	4	0.171692	-15.321	73.3078	-28.7832
 152	1	2	-0.199822	-17.171	73.6034	-27.712
 153	1	4	0.149498	-16.9918	74.6633	-27.5513
 154	1	2	0.076729	-18.3383	73.0084	-27.2076
 155	1	2	-0.057821	-13.4072	69.6772	-29.8803
 156	1	2	-0.076852	-12.0768	69.2216	-29.9835
 157	1	4	0.145382	-11.3319	69.643	-29.3146
 158	1	2	-0.023498	-11.7395	68.1997	-30.9253
 159	1	4	0.166076	-14.929	67.7927	-32.2576
 160	1	2	-0.140684	-14.1316	68.1874	-31.6302
 161	1	2	-0.058922	-14.3945	69.1979	-30.7098
 162	1	3	-0.101954	-10.238	67.7226	-31.1216
 163	1	2	-0.067123	-12.8198	67.6855	-31.7128
 164	1	4	0.142141	-12.685	66.8899	-32.4322
 165	1	3	0.321219	-10.1266	66.6999	-32.3349
 166	1	3	0.382784	-9.38411	69.0042	-31.4738
 167	1	5	-0.111948	-10.781	65.5487	-32.0577
 168	1	5	-0.11115	-8.87514	66.3139	-32.6582
 169	1	5	-0.103632	-10.6189	67.2071	-33.4889
 170	1	5	-0.110272	-9.20397	69.8015	-30.3982
 171	1	5	-0.120305	-9.9816	69.7551	-32.4267
 172	1	5	-0.123663	-8.13892	68.7279	-31.9189
 173	1	6	0.452517	-15.6735	69.8803	-30.3897
 174	1	6	0.453374	-14.0513	70.6548	-28.9487
 175	1	7	0.018948	-15.4066	70.6913	-29.2911
 176	1	8	-0.46698	-16.7259	69.7336	-30.9882
 177	1	8	-0.469385	-13.491	71.2507	-28.0446
 178	1	3	-0.126657	-19.3539	73.821	-26.3787
 179	1	2	0.020988	-7.81285	65.8665	-28.69
 180	1	6	0.027902	-6.56824	65.0658	-28.4851
 181	1	8	-0.378193	-5.76629	64.7676	-29.3548
 182	1	2	0.043573	-8.52732	65.857	-27.5162
 183	1	6	0.038038	-7.74652	65.1249	-26.4902
 184	1	7	0.4913	-6.60743	64.6415	-27.1487
 185	1	8	-0.382817	-8.09558	64.9467	-25.3338
 186	1	2	0.0054	-8.31698	66.4912	-29.8403
 187	1	2	-0.040988	-9.81513	66.3921	-27.4494
 188	1	2	-0.085341	-9.6337	67.0483	-29.8356
 189	1	4	0.154391	-7.67525	66.5097	-30.7128
 190	1	2	-0.205992	-10.3707	66.9537	-28.6192
 191	1	4	0.156637	-10.3832	66.3331	-26.5235
 192	1	4	0.178085	-11.3938	67.3029	-28.551
 193	1	10	0.05178	-18.3411	68.9397	-27.2602
 194	1	10	0.015669	-16.8523	68.7622	-28.1623
 195	1	10	0.036134	-18.3814	69.0395	-29.0244
 196	1	11	0.101096	-18.8143	74.3595	-25.5908
 197	1	1	-0.196269	-20.4221	72.9862	-25.7499
 198	1	11	0.131285	-19.8138	74.5721	-27.0336
 199	1	3	-0.292673	-19.9843	71.5998	-25.5042
 200	1	3	-0.034798	-20.9438	71.091	-27.7278
 201	1	12	0.194395	-20.7786	71.0171	-25.0166
 202	1	12	0.183693	-19.0745	71.5777	-24.8892
 203	1	2	-0.144532	-22.7354	73.8441	-25.7004
 204	1	2	0.128587	-21.7153	73.0435	-26.2751
 205	1	2	0.222203	-24.0711	73.7006	-26.161
 206	1	2	0.041795	-22.0175	72.1017	-27.2828
 207	1	2	-0.461017	-24.3416	72.8154	-27.231
 208	1	2	-0.140506	-23.3236	72.0234	-27.7896
 209	1	4	0.148448	-23.5597	71.293	-28.5612
 210	1	10	0.055442	-22.8347	74.3295	-23.5761
 211	1	10	0.090839	-21.355	74.9058	-24.3489
 212	1	3	-0.16304	-22.4298	74.7535	-24.5038
 213	1	10	0.039719	-22.8625	75.7521	-24.6373
 214	1	11	0.077452	-21.3801	70.0849	-27.7149
 215	1	11	0.09063	-20.6681	71.3136	-28.7669
 216	1	4	0.230266	-25.3673	72.6749	-27.5681
 217	1	1	-0.247122	-1.94246	61.0547	-24.2476
 218	1	2	0.139112	-1.23786	60.2267	-25.1269
 219	1	2	0.02746	-0.896536	58.8876	-24.8043
 220	1	3	-0.077297	-1.25866	58.299	-23.4381
 221	1	2	-0.08585	-0.22641	58.0931	-25.7666
 222	1	2	-0.195578	0.122913	58.6525	-27.0105
 223	1	4	0.171692	0.635906	58.0449	-27.7534
 224	1	2	-0.199822	-0.213816	59.9814	-27.32
 225	1	4	0.149498	0.044727	60.393	-28.2919
 226	1	2	0.076729	-0.91196	60.7692	-26.3907
 227	1	2	-0.057821	1.04032	54.669	-25.1702
 228	1	2	-0.076852	1.94235	53.6204	-24.9175
 229	1	4	0.145382	2.96233	53.8745	-24.6485
 230	1	2	-0.023498	1.49865	52.2725	-25.0496
 231	1	4	0.166076	-1.76321	52.9346	-26.0194
 232	1	2	-0.140684	-0.739273	53.1164	-25.6985
 233	1	2	-0.058922	-0.264044	54.4221	-25.5444
 234	1	3	-0.101954	2.43286	51.0337	-24.8516
 235	1	2	-0.067123	0.152378	52.0522	-25.4556
 236	1	4	0.142141	-0.208682	51.0364	-25.5964
 237	1	3	0.321219	2.86143	50.5805	-26.3003
 238	1	3	0.382784	3.72234	51.354	-24.0044
 239	1	5	-0.111948	1.8284	50.0244	-26.9732
 240	1	5	-0.11115	3.8696	49.6797	-26.3063
 241	1	5	-0.103632	3.28058	51.6271	-27.0478
 242	1	5	-0.110272	3.41266	51.9879	-22.8508
 243	1	5	-0.120305	4.61676	52.1266	-24.6612
 244	1	5	-0.123663	4.3794	50.2256	-23.6499
 245	1	6	0.452517	-0.942648	55.7255	-25.7802
 246	1	6	0.453374	1.23936	56.1502	-25.1634
 247	1	7	0.018948	0.0198808	56.7008	-25.5518
 248	1	8	-0.46698	-2.10027	55.8795	-26.1307
 249	1	8	-0.469385	2.27528	56.7355	-24.899
 250	1	3	-0.126657	-1.34095	62.2062	-26.748
 251	1	2	0.020988	1.03714	47.6118	-23.6053
 252	1	6	0.027902	0.922703	46.1311	-23.7311
 253	1	8	-0.378193	1.49447	45.436	-24.5549
 254	1	2	0.043573	0.210156	48.019	-22.5808
 255	1	6	0.038038	-0.486424	46.8324	-22.0262
 256	1	7	0.4913	-0.00493396	45.7415	-22.7575
 257	1	8	-0.382817	-1.36976	46.8585	-21.1843
 258	1	2	0.0054	1.77179	48.5354	-24.3648
 259	1	2	-0.040988	0.0961858	49.3656	-22.2302
 260	1	2	-0.085341	1.66007	49.9247	-24.0667
 261	1	4	0.154391	2.39691	48.1566	-25.1662
 262	1	2	-0.205992	0.837775	50.3085	-22.9706
 263	1	4	0.156637	-0.553653	49.6674	-21.4116
 264	1	4	0.178085	0.758909	51.3574	-22.6917
 265	1	10	0.05178	-1.31523	59.0712	-22.661
 266	1	10	0.015669	-0.512078	57.5727	-23.0948
 267	1	10	0.036134	-2.23009	57.7913	-23.4781
 268	1	11	0.101096	-0.443335	62.8077	-26.9347
 269	1	1	-0.196269	-2.15152	62.8521	-25.6792
 270	1	11	0.131285	-1.91943	62.1776	-27.6802
 271	1	3	-0.292673	-1.62333	62.4943	-24.3487
 272	1	3	-0.034798	-3.4044	60.8338	-24.1524
 273	1	12	0.194395	-2.12858	63.07	-23.5612
 274	1	12	0.183693	-0.538983	62.6625	-24.2962
 275	1	2	-0.144532	-4.30737	63.7763	-26.5015
 276	1	2	0.128587	-3.55144	62.8073	-25.7816
 277	1	2	0.222203	-5.73096	63.6691	-26.5378
 278	1	2	0.041795	-4.20133	61.7804	-25.0595
 279	1	2	-0.461017	-6.33861	62.5739	-25.8755
 280	1	2	-0.140506	-5.5913	61.6536	-25.1307
 281	1	4	0.148448	-6.09164	60.8595	-24.5801
 282	1	10	0.055442	-4.1973	65.8432	-27.253
 283	1	10	0.090839	-2.68255	65.2443	-26.6044
 284	1	3	-0.16304	-3.57432	64.9453	-27.1698
 285	1	10	0.039719	-3.24465	64.6698	-28.1797
 286	1	11	0.077452	-3.72399	60.9865	-23.1143
 287	1	11	0.09063	-3.64785	59.7991	-24.4253
 288	1	4	0.230266	-7.4231	62.4741	-25.879
 289	1	1	-0.247122	-3.0158	40.2707	-20.8889
 290	1	2	0.139112	-2.25353	39.1875	-20.4386
 291	1	2	0.02746	-2.63053	37.8354	-20.6495
 292	1	3	-0.077297	-3.90291	37.4801	-21.4206
 293	1	2	-0.08585	-1.81141	36.8076	-20.1225
 294	1	2	-0.195578	-0.648869	37.1361	-19.3983
 295	1	4	0.171692	-0.0150699	36.3474	-18.9966
 296	1	2	-0.199822	-0.282749	38.4719	-19.1952
 297	1	4	0.149498	0.618651	38.7092	-18.6365
 298	1	2	0.076729	-1.07699	39.4999	-19.7179
 299	1	2	-0.057821	-1.70263	33.2059	-19.8938
 300	1	2	-0.076852	-1.22462	32.0906	-19.1921
 301	1	4	0.145382	-1.44035	32.0232	-18.1312
 302	1	2	-0.023498	-0.300479	31.216	-19.8247
 303	1	4	0.166076	-0.33628	32.684	-22.9603
 304	1	2	-0.140684	-0.624677	32.4844	-21.9298
 305	1	2	-0.058922	-1.39515	33.4083	-21.2219
 306	1	3	-0.101954	0.595111	30.2867	-18.9356
 307	1	2	-0.067123	-0.0731052	31.3993	-21.2219
 308	1	4	0.142141	0.621203	30.7804	-21.7749
 309	1	3	0.321219	1.76771	29.5865	-19.7416
 310	1	3	0.382784	1.27628	31.2173	-17.8363
 311	1	5	-0.111948	1.3223	28.815	-20.7594
 312	1	5	-0.11115	2.48697	28.7358	-18.9739
 313	1	5	-0.103632	2.63966	30.4778	-20.2653
 314	1	5	-0.110272	0.432818	31.5666	-16.8392
 315	1	5	-0.120305	1.72492	32.3729	-18.3786
 316	1	5	-0.123663	2.3437	30.6644	-17.2173
 317	1	6	0.452517	-1.69524	34.8223	-21.5682
 318	1	6	0.453374	-2.20382	34.492	-19.3376
 319	1	7	0.018948	-2.04605	35.4204	-20.364
 320	1	8	-0.46698	-1.39737	35.3731	-22.6145
 321	1	8	-0.469385	-2.40203	34.7169	-18.1558
 322	1	3	-0.126657	-0.667934	40.9626	-19.4962
 323	1	2	0.020988	-1.45219	27.0642	-18.8187
 324	1	6	0.027902	-1.94627	25.9312	-19.6499
 325	1	8	-0.378193	-2.39024	26.0167	-20.7834
 326	1	2	0.043573	-1.08943	26.5623	-17.5866
 327	1	6	0.038038	-1.27694	25.098	-17.5892
 328	1	7	0.4913	-1.69181	24.7843	-18.8859
 329	1	8	-0.382817	-0.923481	24.3449	-16.6955
 330	1	2	0.0054	-1.06203	28.351	-19.2166
 331	1	2	-0.040988	-0.398656	27.33	-16.6525
 332	1	2	-0.085341	-0.242434	29.1192	-18.3448
 333	1	4	0.154391	-1.23717	28.6589	-20.2441
 334	1	2	-0.205992	0.0241857	28.6126	-17.041
 335	1	4	0.156637	-0.0815436	26.8903	-15.7092
 336	1	4	0.178085	0.6696	29.1384	-16.3463
 337	1	10	0.05178	-3.67057	37.2499	-22.4676
 338	1	10	0.015669	-4.63732	38.2944	-21.4124
 339	1	10	0.036134	-4.40382	36.606	-20.9866
 340	1	11	0.101096	-0.567239	41.145	-18.4197
 341	1	1	-0.196269	-1.64265	41.9267	-20.0663
 342	1	11	0.131285	0.316648	41.1168	-19.9548
 343	1	3	-0.292673	-3.02445	41.42	-19.9605
 344	1	3	-0.034798	-2.84223	40.7057	-22.3008
 345	1	12	0.194395	-3.74638	42.1841	-20.28
 346	1	12	0.183693	-3.25019	41.0995	-18.9344
 347	1	2	-0.144532	-0.604117	43.7294	-21.3914
 348	1	2	0.128587	-1.35797	42.5316	-21.2957
 349	1	2	0.222203	-0.543495	44.4138	-22.6375
 350	1	2	0.041795	-1.97043	41.9664	-22.4369
 351	1	2	-0.461017	-1.12988	43.8108	-23.776
 352	1	2	-0.140506	-1.82081	42.5914	-23.6826
 353	1	4	0.148448	-2.28558	42.1551	-24.5646
 354	1	10	0.055442	-0.655561	44.8139	-19.5001
 355	1	10	0.090839	0.528946	43.5026	-19.5321
 356	1	3	-0.16304	0.0726365	44.2952	-20.1365
 357	1	10	0.039719	0.879307	44.9993	-20.372
 358	1	11	0.077452	-3.8283	40.9077	-22.7362
 359	1	11	0.09063	-2.38309	39.8978	-22.8852
 360	1	4	0.230266	-1.06466	44.3095	-24.7425
 361	1	1	-0.247122	-0.442614	18.9533	-21.4157
 362	1	2	0.139112	-1.5295	18.8387	-22.2943
 363	1	2	0.02746	-2.42514	17.745	-22.2235
 364	1	3	-0.077297	-2.14312	16.5407	-21.3172
 365	1	2	-0.08585	-3.62518	17.7933	-22.9655
 366	1	2	-0.195578	-3.89332	18.8776	-23.8198
 367	1	4	0.171692	-4.82767	18.9167	-24.3763
 368	1	2	-0.199822	-2.98276	19.9402	-23.9198
 369	1	4	0.149498	-3.21132	20.7928	-24.554
 370	1	2	0.076729	-1.81498	19.9385	-23.1412
 371	1	2	-0.057821	-5.92136	14.9276	-22.8685
 372	1	2	-0.076852	-6.52873	13.7162	-23.2219
 373	1	4	0.145382	-6.13059	13.1444	-24.0568
 374	1	2	-0.023498	-7.68194	13.2881	-22.5138
 375	1	4	0.166076	-7.87724	15.92	-20.2648
 376	1	2	-0.140684	-7.50678	15.2987	-21.0784
 377	1	2	-0.058922	-6.39611	15.6946	-21.8252
 378	1	3	-0.101954	-8.43254	12.0158	-23.0084
 379	1	2	-0.067123	-8.15122	14.0996	-21.4382
 380	1	4	0.142141	-9.03575	13.836	-20.8708
 381	1	3	0.321219	-9.5693	11.534	-22.0252
 382	1	3	0.382784	-9.08957	12.4092	-24.3917
 383	1	5	-0.111948	-10.0781	10.334	-22.3866
 384	1	5	-0.11115	-10.6148	12.3899	-21.964
 385	1	5	-0.103632	-9.10492	11.3674	-20.7654
 386	1	5	-0.110272	-9.70356	13.6132	-24.3225
 387	1	5	-0.120305	-10.0273	11.5347	-24.8204
 388	1	5	-0.123663	-8.17116	12.506	-25.3791
 389	1	6	0.452517	-5.5631	16.9184	-21.7249
 390	1	6	0.453374	-4.77114	15.6449	-23.4833
 391	1	7	0.018948	-4.63427	16.8169	-22.7513
 392	1	8	-0.46698	-5.67405	17.8021	-20.8917
 393	1	8	-0.469385	-4.09539	15.2609	-24.4219
 394	1	3	-0.126657	-0.898264	21.1688	-23.1305
 395	1	2	0.020988	-5.73669	9.44987	-22.0239
 396	1	6	0.027902	-4.82325	8.93569	-20.9719
 397	1	8	-0.378193	-4.45144	9.55954	-19.9908
 398	1	2	0.043573	-5.93027	8.44887	-22.9507
 399	1	6	0.038038	-5.19383	7.23691	-22.5096
 400	1	7	0.4913	-4.57034	7.59909	-21.31
 401	1	8	-0.382817	-5.28345	6.13215	-23.0203
 402	1	2	0.0054	-6.47272	10.6419	-22.0665
 403	1	2	-0.040988	-6.81915	8.61076	-24.0148
 404	1	2	-0.085341	-7.4298	10.8276	-23.0999
 405	1	4	0.154391	-6.36248	11.3597	-21.2576
 406	1	2	-0.205992	-7.56093	9.80782	-24.0856
 407	1	4	0.156637	-6.97758	7.80238	-24.7253
 408	1	4	0.178085	-8.29394	9.88724	-24.8811
 409	1	10	0.05178	-2.72023	16.6074	-20.3865
 410	1	10	0.015669	-1.08305	16.4568	-21.0496
 411	1	10	0.036134	-2.408	15.5975	-21.8096
 412	1	11	0.101096	-0.261427	21.1545	-24.0232
 413	1	1	-0.196269	-0.0608249	21.178	-21.9098
 414	1	11	0.131285	-1.51228	22.0775	-23.1691
 415	1	3	-0.292673	0.638475	19.8803	-21.8125
 416	1	3	-0.034798	-0.804944	19.212	-20.0086
 417	1	12	0.194395	1.43014	19.9209	-21.0524
 418	1	12	0.183693	1.06881	19.5859	-22.7793
 419	1	2	-0.144532	-0.874801	23.0293	-20.4841
 420	1	2	0.128587	-0.687512	21.6473	-20.7405
 421	1	2	0.222203	-1.65329	23.428	-19.3565
 422	1	2	0.041795	-1.16993	20.683	-19.8271
 423	1	2	-0.461017	-2.2421	22.43	-18.5436
 424	1	2	-0.140506	-1.97918	21.0717	-18.7557
 425	1	4	0.148448	-2.37523	20.3214	-18.0741
 426	1	10	0.055442	0.230304	24.9028	-20.8202
 427	1	10	0.090839	0.707238	23.615	-21.8979
 428	1	3	-0.16304	-0.160047	24.0481	-21.3843
 429	1	10	0.039719	-0.836118	24.4275	-22.1608
 430	1	11	0.077452	0.0436388	18.9695	-19.3569
 431	1	11	0.09063	-1.65249	18.5926	-19.6965
 432	1	4	0.230266	-2.81769	22.7166	-17.6645
 433	1	1	-0.247122	-1.24722	2.91776	-18.1727
 434	1	2	0.139112	-1.80889	1.67989	-18.5053
 435	1	2	0.02746	-1.96878	0.64349	-17.5519
 436	1	3	-0.077297	-1.40607	0.839525	-16.1393
 437	1	2	-0.08585	-2.60456	-0.568188	-17.9402
 438	1	2	-0.195578	-3.02289	-0.727194	-19.2775
 439	1	4	0.171692	-3.48938	-1.65863	-19.5944
 440	1	2	-0.199822	-2.82116	0.289973	-20.2246
 441	1	4	0.149498	-3.13312	0.140933	-21.255
 442	1	2	0.076729	-2.21752	1.49765	-19.845
 443	1	2	-0.057821	-3.37089	-2.87476	-15.1549
 444	1	2	-0.076852	-3.7432	-3.27989	-13.8682
 445	1	4	0.145382	-4.16651	-2.52917	-13.2118
 446	1	2	-0.023498	-3.53169	-4.62907	-13.4698
 447	1	4	0.166076	-2.19778	-5.78771	-16.4559
 448	1	2	-0.140684	-2.62913	-5.09776	-15.7329
 449	1	2	-0.058922	-2.7891	-3.74318	-16.0492
 450	1	3	-0.101954	-3.87291	-5.1429	-12.03
 451	1	2	-0.067123	-3.03194	-5.53391	-14.4507
 452	1	4	0.142141	-2.90955	-6.5848	-14.1988
 453	1	3	0.321219	-3.9617	-3.96696	-10.9791
 454	1	3	0.382784	-5.27094	-5.85969	-12.1481
 455	1	5	-0.111948	-4.03222	-4.40942	-9.70327
 456	1	5	-0.11115	-5.0465	-3.17819	-11.1471
 457	1	5	-0.103632	-2.86187	-3.18128	-11.0374
 458	1	5	-0.110272	-5.8739	-6.0821	-10.9593
 459	1	5	-0.120305	-5.15152	-7.0578	-12.7628
 460	1	5	-0.123663	-6.1451	-5.1325	-12.8809
 461	1	6	0.452517	-2.41738	-2.96858	-17.2674
 462	1	6	0.453374	-3.4513	-1.53299	-15.7896
 463	1	7	0.018948	-2.81639	-1.65363	-17.0247
 464	1	8	-0.46698	-1.85	-3.41606	-18.2499
 465	1	8	-0.469385	-3.99059	-0.552576	-15.3051
 466	1	3	-0.126657	-1.9821	2.6107	-20.8802
 467	1	2	0.020988	-1.95276	-7.70824	-9.84338
 468	1	6	0.027902	-1.9118	-8.49888	-8.58418
 469	1	8	-0.378193	-2.85381	-8.73117	-7.84471
 470	1	2	0.043573	-0.666358	-7.59767	-10.3275
 471	1	6	0.038038	0.248674	-8.33653	-9.42371
 472	1	7	0.4913	-0.563099	-8.79459	-8.38842
 473	1	8	-0.382817	1.46424	-8.3941	-9.51448
 474	1	2	0.0054	-3.01441	-6.99643	-10.4136
 475	1	2	-0.040988	-0.364664	-6.7421	-11.3876
 476	1	2	-0.085341	-2.75865	-6.10156	-11.4917
 477	1	4	0.154391	-3.98744	-7.07711	-9.94206
 478	1	2	-0.205992	-1.41201	-5.97764	-11.9421
 479	1	4	0.156637	0.665747	-6.61631	-11.7132
 480	1	4	0.178085	-1.14724	-5.24324	-12.698
 481	1	10	0.05178	-0.509997	1.47169	-16.1415
 482	1	10	0.015669	-1.1056	-0.107138	-15.6756
 483	1	10	0.036134	-2.14453	1.32196	-15.4871
 484	1	11	0.101096	-1.27357	2.25055	-21.6355
 485	1	1	-0.196269	-1.45296	3.85611	-20.2657
 486	1	11	0.131285	-2.93006	2.82378	-21.3905
 487	1	3	-0.292673	-0.441901	3.54518	-19.2382
 488	1	3	-0.034798	-2.14508	3.90777	-17.5282
 489	1	12	0.194395	0.0455406	4.46202	-18.8798
 490	1	12	0.183693	0.312485	2.84722	-19.6253
 491	1	2	-0.144532	-2.91631	5.76036	-20.8367
 492	1	2	0.128587	-2.38561	4.83482	-19.9008
 493	1	2	0.222203	-3.92868	6.67045	-20.4178
 494	1	2	0.041795	-2.78781	4.86026	-18.5467
 495	1	2	-0.461017	-4.3429	6.6476	-19.0635
 496	1	2	-0.140506	-3.76742	5.77035	-18.1332
 497	1	4	0.148448	-4.08358	5.78967	-17.0921
 498	1	10	0.055442	-2.85688	5.02675	-22.8914
 499	1	10	0.090839	-2.45957	6.75011	-22.7549
 500	1	3	-0.16304	-2.35477	5.77505	-22.2652
 501	1	10	0.039719	-1.282	5.54489	-22.2788
 502	1	11	0.077452	-1.57289	4.49788	-16.8022
 503	1	11	0.09063	-2.9417	3.38917	-16.979
 504	1	4	0.230266	-5.10584	7.34533	-18.7199
 505	1	1	-0.247122	2.10696	-11.9892	-3.42429
 506	1	2	0.139112	1.01498	-12.5527	-2.75044
 507	1	2	0.02746	0.836503	-12.3971	-1.35655
 508	1	3	-0.077297	1.91095	-11.712	-0.501115
 509	1	2	-0.08585	-0.359232	-12.8635	-0.76052
 510	1	2	-0.195578	-1.32311	-13.5396	-1.52863
 511	1	4	0.171692	-2.23679	-13.9035	-1.06277
 512	1	2	-0.199822	-1.1264	-13.7166	-2.90666
 513	1	4	0.149498	-1.88543	-14.2149	-3.50378
 514	1	2	0.076729	0.0246813	-13.2021	-3.52447
 515	1	2	-0.057821	-0.510513	-12.6633	2.8876
 516	1	2	-0.076852	-0.256201	-13.0237	4.21744
 517	1	4	0.145382	-0.037709	-14.0623	4.44396
 518	1	2	-0.023498	-0.239799	-12.0088	5.2097
 519	1	4	0.166076	-0.859279	-9.28609	3.1549
 520	1	2	-0.140684	-0.719923	-10.3208	3.46277
 521	1	2	-0.058922	-0.756823	-11.3542	2.52663
 522	1	3	-0.101954	0.0781503	-12.3086	6.70211
 523	1	2	-0.067123	-0.439583	-10.6586	4.79819
 524	1	4	0.142141	-0.366866	-9.84794	5.51826
 525	1	3	0.321219	-0.357456	-13.7516	7.16511
 526	1	3	0.382784	1.64127	-12.1626	6.84964
 527	1	5	-0.111948	-0.349671	-13.857	8.51352
 528	1	5	-0.11115	0.44572	-14.7362	6.70408
 529	1	5	-0.103632	-1.61276	-14.0504	6.76259
 530	1	5	-0.110272	2.30904	-12.9102	5.94137
 531	1	5	-0.120305	2.09448	-12.5356	8.06775
 532	1	5	-0.123663	2.04339	-10.8883	6.63799
 533	1	6	0.452517	-0.883496	-11.2868	1.0518
 534	1	6	0.453374	-0.443892	-13.4789	1.64455
 535	1	7	0.018948	-0.624937	-12.5757	0.604784
 536	1	8	-0.46698	-1.03716	-10.2735	0.390445
 537	1	8	-0.469385	-0.144126	-14.6579	1.57037
 538	1	3	-0.126657	0.183007	-13.2905	-5.04651
 539	1	2	0.020988	-0.912279	-9.50039	9.18094
 540	1	6	0.027902	-0.515161	-8.49411	10.1903
 541	1	8	-0.378193	0.588039	-8.37947	10.6994
 542	1	2	0.043573	-2.24107	-9.30558	8.86551
 543	1	6	0.038038	-2.75443	-8.15994	9.65918
 544	1	7	0.4913	-1.66282	-7.73514	10.4148
 545	1	8	-0.382817	-3.88669	-7.70589	9.63321
 546	1	2	0.0054	-0.138383	-10.487	8.56653
 547	1	2	-0.040988	-2.88418	-10.114	7.92727
 548	1	2	-0.085341	-0.733713	-11.2931	7.56167
 549	1	4	0.154391	0.90308	-10.5713	8.85698
 550	1	2	-0.205992	-2.11972	-11.1093	7.28418
 551	1	4	0.156637	-3.93395	-9.95622	7.68973
 552	1	4	0.178085	-2.60563	-11.7174	6.52381
 553	1	10	0.05178	2.00238	-12.1779	0.487348
 554	1	10	0.015669	1.67722	-10.6505	-0.351981
 555	1	10	0.036134	2.90615	-11.7725	-0.957062
 556	1	11	0.101096	0.399399	-14.3281	-5.32707
 557	1	1	-0.196269	1.26957	-12.4051	-5.53057
 558	1	11	0.131285	-0.767669	-13.0057	-5.51317
 559	1	3	-0.292673	2.47638	-12.6198	-4.70758
 560	1	3	-0.034798	2.09042	-10.5184	-3.57291
 561	1	12	0.194395	3.34794	-12.1252	-5.15768
 562	1	12	0.183693	2.68315	-13.69	-4.57359
 563	1	2	-0.144532	0.279736	-10.6608	-6.98112
 564	1	2	0.128587	0.941939	-11.0643	-5.79253
 565	1	2	0.222203	-0.0230583	-9.28825	-7.1655
 566	1	2	0.041795	1.30654	-10.1015	-4.8188
 567	1	2	-0.461017	0.298623	-8.35307	-6.15724
 568	1	2	-0.140506	0.964124	-8.75493	-4.99286
 569	1	4	0.148448	1.23352	-8.02385	-4.23289
 570	1	10	0.055442	-0.949205	-11.4165	-8.63722
 571	1	10	0.090839	0.79331	-11.7001	-8.82285
 572	1	3	-0.16304	-0.02884	-11.6681	-8.09607
 573	1	10	0.039719	-0.166504	-12.6874	-7.72012
 574	1	11	0.077452	3.11858	-10.1447	-3.6533
 575	1	11	0.09063	1.63187	-10.0473	-2.69472
 576	1	4	0.230266	0.0605735	-7.30002	-6.29664
 577	1	1	-0.247122	-0.228758	-3.02755	14.51
 578	1	2	0.139112	1.01404	-3.57712	14.8774
 579	1	2	0.02746	1.36967	-3.82618	16.2277
 580	1	3	-0.077297	0.447027	-3.41547	17.3847
 581	1	2	-0.08585	2.59101	-4.49184	16.5077
 582	1	2	-0.195578	3.45122	-4.87391	15.4648
 583	1	4	0.171692	4.36531	-5.42269	15.6834
 584	1	2	-0.199822	3.10673	-4.60722	14.1339
 585	1	4	0.149498	3.75988	-4.93517	13.3295
 586	1	2	0.076729	1.88848	-3.97889	13.8364
 587	1	2	-0.057821	2.93733	-4.97537	20.1103
 588	1	2	-0.076852	2.78497	-4.59256	21.451
 589	1	4	0.145382	2.99377	-3.56196	21.7176
 590	1	2	-0.023498	2.23316	-5.52719	22.3676
 591	1	4	0.166076	1.81592	-8.18877	20.1879
 592	1	2	-0.140684	2.12818	-7.21239	20.5537
 593	1	2	-0.058922	2.61233	-6.24474	19.6771
 594	1	3	-0.101954	1.72665	-5.13717	23.7854
 595	1	2	-0.067123	1.92884	-6.8357	21.8906
 596	1	4	0.142141	1.43803	-7.55746	22.5346
 597	1	3	0.321219	2.49775	-6.01972	24.8582
 598	1	3	0.382784	1.95269	-3.61612	24.1841
 599	1	5	-0.111948	3.83202	-5.81133	24.8133
 600	1	5	-0.11115	2.35144	-7.35115	24.686
 601	1	5	-0.103632	2.09988	-5.77067	26.1259
 602	1	5	-0.110272	1.39194	-3.32461	25.3791
 603	1	5	-0.120305	1.40648	-2.73185	23.3218
 604	1	5	-0.123663	3.25994	-3.28274	24.2675
 605	1	6	0.452517	2.62352	-6.26155	18.1972
 606	1	6	0.453374	3.17546	-4.13098	18.9084
 607	1	7	0.018948	2.87773	-4.95014	17.8233
 608	1	8	-0.46698	2.26286	-7.18954	17.4931
 609	1	8	-0.469385	3.37321	-2.9282	18.9089
 610	1	3	-0.126657	1.47499	-3.79935	12.3734
 611	1	2	0.020988	-1.80623	-6.68279	24.1925
 612	1	6	0.027902	-2.69166	-7.68751	24.8151
 613	1	8	-0.378193	-2.37748	-8.48605	25.6824
 614	1	2	0.043573	-2.53592	-5.98735	23.25
 615	1	6	0.038038	-3.93487	-6.49227	23.2545
 616	1	7	0.4913	-3.93784	-7.4902	24.2245
 617	1	8	-0.382817	-4.87106	-6.06527	22.5988
 618	1	2	0.0054	-0.463071	-6.40311	24.4615
 619	1	2	-0.040988	-1.94025	-4.98669	22.485
 620	1	2	-0.085341	0.192752	-5.40687	23.6939