pySIMM System Object

2306 atoms
2561 bonds
4608 angles
7100 dihedrals
640 impropers

12 atom types
15 bond types
28 angle types
9 dihedral types
4 improper types

-206.959658 206.959658 xlo xhi
-206.959658 206.959658 ylo yhi
-206.959658 206.959658 zlo zhi

Masses

   1	14.01	# nh
   2	12.01	# ca
   3	12.01	# c3
   4	1.008	# ha
   5	19.0	# f
   6	12.01	# c
   7	14.01	# n
   8	16.0	# o
   9	1.008	# hn
  10	1.008	# hc
  11	1.008	# h1
  12	1.008	# h2

Pair Coeffs

   1	0.17	3.249998523775958	# nh
   2	0.086	3.3996695084235347	# ca
   3	0.1094	3.3996695084235347	# c3
   4	0.015	2.59964245953351	# ha
   5	0.061	3.1181455134911875	# f
   6	0.086	3.3996695084235347	# c
   7	0.17	3.249998523775958	# n
   8	0.21	2.959921901149463	# o
   9	0.0157	1.069078461768407	# hn
  10	0.0157	2.649532787749369	# hc
  11	0.0157	2.471353044121301	# h1
  12	0.0157	2.2931733004932333	# h2

Bond Coeffs

   1	356.9	1.3497	# c3,f
   2	403.2	1.0129	# hn,n
   3	417.9	1.3859	# ca,nh
   4	300.9	1.5375	# c3,c3
   5	384.2	1.4121	# ca,n
   6	330.6	1.0969	# c3,h1
   7	461.1	1.3984	# ca,ca
   8	326.6	1.464	# c3,nh
   9	427.6	1.3789	# c,n
  10	331.7	1.0961	# c3,h2
  11	345.9	1.4906	# c,ca
  12	345.8	1.086	# ca,ha
  13	321.0	1.5156	# c3,ca
  14	330.6	1.0969	# c3,hc
  15	637.7	1.2183	# c,o

Angle Coeffs

   1	71.11	105.87	# nh,c3,nh
   2	63.25	114.51	# c3,nh,c3
   3	74.22	123.05	# n,c,o
   4	66.62	120.02	# ca,ca,ca
   5	68.29	120.95	# ca,ca,nh
   6	49.52	110.01	# h2,c3,nh
   7	68.72	122.6	# ca,c,o
   8	49.57	109.79	# h1,c3,nh
   9	67.68	115.25	# ca,c,n
  10	66.46	111.39	# ca,c3,nh
  11	48.33	117.55	# c,n,hn
  12	64.28	120.33	# c,ca,ca
  13	39.4	107.58	# hc,c3,hc
  14	63.53	120.77	# c3,ca,ca
  15	70.89	107.36	# f,c3,f
  16	67.87	120.19	# ca,ca,n
  17	46.8	110.47	# ca,c3,hc
  18	46.99	109.56	# ca,c3,h1
  19	62.86	111.51	# c3,c3,c3
  20	66.11	109.24	# c3,c3,f
  21	63.15	112.07	# c3,c3,ca
  22	38.96	110.2	# h2,c3,h2
  23	63.82	123.71	# c,n,ca
  24	39.24	108.46	# h1,c3,h1
  25	63.56	112.24	# ca,c3,ca
  26	63.39	119.98	# c3,nh,ca
  27	63.74	127.08	# c,n,c
  28	48.18	119.88	# ca,ca,ha

Dihedral Coeffs

   1	2	2.5	2	180	2.0	1	0	# hn,n,c,o
   2	1	0.0	2	0	# X,c3,nh,X
   3	1	3.625	2	180	# X,ca,ca,X
   4	1	0.0	2	0	# X,c3,ca,X
   5	1	1.0	2	180	# X,c,ca,X
   6	1	0.15555555555555556	3	0	# X,c3,c3,X
   7	1	2.5	2	180	# X,c,n,X
   8	1	0.45	2	180	# X,ca,n,X
   9	1	1.05	2	180	# X,ca,nh,X

Improper Coeffs

   1	10.5	-1	2	# c,X,X,o
   2	1.1	-1	2	# n,X,X,hn
   3	1.1	-1	2	# ca,ca,ca,c3
   4	1.1	-1	2	# ca,X,X,ha

Atoms

   1	1	1	-0.247122	53.855	-26.414	-99.8329
   2	1	2	0.139112	52.8098	-25.6629	-99.2759
   3	1	2	0.02746	52.7933	-25.2896	-97.9095
   4	1	3	-0.077297	53.8873	-25.7853	-96.9582
   5	1	2	-0.08585	51.743	-24.4668	-97.4327
   6	1	2	-0.195578	50.7108	-24.066	-98.3014
   7	1	4	0.171692	49.8958	-23.4466	-97.9309
   8	1	2	-0.199822	50.7206	-24.4573	-99.6476
   9	1	4	0.149498	49.9219	-24.1384	-100.312
  10	1	2	0.076729	51.7705	-25.2447	-100.141
  11	1	2	-0.057821	51.041	-23.6144	-93.9244
  12	1	2	-0.076852	50.3532	-23.5578	-92.7056
  13	1	4	0.145382	49.4323	-24.123	-92.6086
  14	1	2	-0.023498	50.8669	-22.7418	-91.6622
  15	1	4	0.166076	53.6379	-21.4954	-93.3316
  16	1	2	-0.140684	52.7357	-22.0746	-93.1448
  17	1	2	-0.058922	52.196	-22.893	-94.1411
  18	1	3	-0.101954	50.1266	-22.5499	-90.3066
  19	1	2	-0.067123	52.0592	-22.0043	-91.9102
  20	1	4	0.142141	52.4589	-21.3476	-91.1417
  21	1	3	0.321219	49.3012	-21.2145	-90.4546
  22	1	3	0.382784	49.1407	-23.7309	-89.9536
  23	1	5	-0.111948	50.1106	-20.1329	-90.523
  24	1	5	-0.11115	48.4375	-21.007	-89.4354
  25	1	5	-0.103632	48.5659	-21.2018	-91.5899
  26	1	5	-0.110272	49.73	-24.9388	-90.1052
  27	1	5	-0.120305	48.0177	-23.7417	-90.7064
  28	1	5	-0.123663	48.7336	-23.6677	-88.6651
  29	1	6	0.452517	52.6415	-23.1324	-95.5396
  30	1	6	0.453374	50.71	-24.3457	-95.1764
  31	1	7	0.018948	51.7072	-24.0071	-96.0839
  32	1	8	-0.46698	53.6141	-22.6326	-96.0799
  33	1	8	-0.469385	49.743	-25.0666	-95.354
  34	1	3	-0.126657	51.7979	-25.6359	-101.624
  35	1	2	0.020988	52.1015	-21.6213	-87.0922
  36	1	6	0.027902	52.2805	-20.7584	-85.8975
  37	1	8	-0.378193	51.624	-19.7673	-85.6215
  38	1	2	0.043573	53.067	-22.6056	-87.0682
  39	1	6	0.038038	53.8964	-22.4268	-85.8492
  40	1	7	0.4913	53.3548	-21.316	-85.2
  41	1	8	-0.382817	54.8449	-23.1175	-85.5135
  42	1	2	0.0054	51.1452	-21.5494	-88.1108
  43	1	2	-0.040988	53.1422	-23.5689	-88.0767
  44	1	2	-0.085341	51.1818	-22.5085	-89.1596
  45	1	4	0.154391	50.3986	-20.7651	-88.0533
  46	1	2	-0.205992	52.1937	-23.5093	-89.1196
  47	1	4	0.156637	53.9055	-24.3435	-88.0429
  48	1	4	0.178085	52.2392	-24.2655	-89.9009
  49	1	10	0.05178	54.3057	-26.7469	-97.2791
  50	1	10	0.015669	53.5066	-25.9421	-95.9417
  51	1	10	0.036134	54.7125	-25.0649	-96.9016
  52	1	11	0.101096	50.9858	-26.3447	-101.824
  53	1	1	-0.196269	53.0943	-26.2447	-102.0
  54	1	11	0.131285	51.6173	-24.7383	-102.227
  55	1	3	-0.292673	53.4902	-27.2498	-100.995
  56	1	3	-0.034798	55.1279	-25.7011	-100.094
  57	1	12	0.194395	54.348	-27.8371	-101.349
  58	1	12	0.183693	52.654	-27.9192	-100.752
  59	1	2	-0.144532	54.1229	-24.7977	-103.706
  60	1	2	0.128587	54.1139	-25.378	-102.417
  61	1	2	0.222203	55.1612	-23.9134	-104.052
  62	1	2	0.041795	55.1439	-25.0736	-101.493
  63	1	2	-0.461017	56.1794	-23.6104	-103.135
  64	1	2	-0.140506	56.1738	-24.1896	-101.855
  65	1	4	0.148448	56.9604	-23.9528	-101.142
  66	1	10	0.055442	53.3847	-24.8911	-105.759
  67	1	10	0.090839	52.7868	-26.1908	-104.724
  68	1	3	-0.16304	53.0475	-25.1248	-104.741
  69	1	10	0.039719	52.1333	-24.5485	-104.555
  70	1	11	0.077452	55.9664	-26.4023	-100.006
  71	1	11	0.09063	55.2761	-24.9073	-99.3512
  72	1	4	0.230266	56.9697	-22.923	-103.424
  73	1	1	-0.247122	54.5365	-18.8481	-79.3081
  74	1	2	0.139112	53.8902	-17.6045	-79.329
  75	1	2	0.02746	54.5057	-16.4287	-78.8358
  76	1	3	-0.077297	55.875	-16.5091	-78.1521
  77	1	2	-0.08585	53.8299	-15.189	-78.9645
  78	1	2	-0.195578	52.5424	-15.1459	-79.532
  79	1	4	0.171692	52.0162	-14.1967	-79.6181
  80	1	2	-0.199822	51.9255	-16.3195	-79.9902
  81	1	4	0.149498	50.9322	-16.2754	-80.4294
  82	1	2	0.076729	52.5975	-17.5475	-79.9012
  83	1	2	-0.057821	54.8793	-11.9913	-77.4641
  84	1	2	-0.076852	54.8592	-10.8564	-76.641
  85	1	4	0.145382	54.0391	-10.719	-75.9396
  86	1	2	-0.023498	55.9058	-9.90257	-76.751
  87	1	4	0.166076	57.6984	-11.4381	-79.2895
  88	1	2	-0.140684	56.9215	-11.2744	-78.5448
  89	1	2	-0.058922	55.8781	-12.1903	-78.3935
  90	1	3	-0.101954	55.851	-8.60537	-75.8897
  91	1	2	-0.067123	56.9259	-10.1327	-77.7196
  92	1	4	0.142141	57.7312	-9.4232	-77.8666
  93	1	3	0.321219	57.255	-7.90729	-75.716
  94	1	3	0.382784	54.8742	-7.63003	-76.6526
  95	1	5	-0.111948	58.2078	-8.7935	-75.3472
  96	1	5	-0.11115	57.2263	-6.95952	-74.7512
  97	1	5	-0.103632	57.693	-7.28841	-76.8357
  98	1	5	-0.110272	53.5927	-8.05561	-76.5774
  99	1	5	-0.120305	55.1703	-7.55222	-77.9704
 100	1	5	-0.123663	54.9062	-6.36237	-76.1836
 101	1	6	0.452517	55.5989	-13.4542	-79.1228
 102	1	6	0.453374	53.9308	-13.1351	-77.5579
 103	1	7	0.018948	54.436	-13.9636	-78.5554
 104	1	8	-0.46698	56.2654	-13.9204	-80.0317
 105	1	8	-0.469385	52.9255	-13.2925	-76.8864
 106	1	3	-0.126657	51.9357	-18.8255	-80.4326
 107	1	2	0.020988	54.1857	-8.45399	-72.3912
 108	1	6	0.027902	53.3484	-7.72403	-71.4108
 109	1	8	-0.378193	52.737	-6.68752	-71.6122
 110	1	2	0.043573	54.7122	-9.56997	-71.7745
 111	1	6	0.038038	54.2352	-9.60104	-70.3654
 112	1	7	0.4913	53.4373	-8.46516	-70.2344
 113	1	8	-0.382817	54.5162	-10.4331	-69.5183
 114	1	2	0.0054	54.4954	-8.11998	-73.7122
 115	1	2	-0.040988	55.5816	-10.4241	-72.4578
 116	1	2	-0.085341	55.3743	-8.95902	-74.4479
 117	1	4	0.154391	54.0719	-7.20759	-74.1165
 118	1	2	-0.205992	55.9113	-10.1044	-73.7934
 119	1	4	0.156637	56.0054	-11.2923	-71.9576
 120	1	4	0.178085	56.6146	-10.7477	-74.3182
 121	1	10	0.05178	56.026	-17.4746	-77.6543
 122	1	10	0.015669	55.9936	-15.7442	-77.3754
 123	1	10	0.036134	56.6849	-16.3806	-78.8804
 124	1	11	0.101096	51.0816	-19.0796	-79.7936
 125	1	1	-0.196269	52.8876	-19.961	-80.4635
 126	1	11	0.131285	51.5529	-18.6312	-81.4424
 127	1	3	-0.292673	53.6496	-20.0231	-79.2022
 128	1	3	-0.034798	55.576	-19.0789	-80.3393
 129	1	12	0.194395	54.227	-20.9557	-79.1419
 130	1	12	0.183693	52.9842	-19.9379	-78.3326
 131	1	2	-0.144532	53.0854	-20.7073	-82.8041
 132	1	2	0.128587	53.6396	-20.1319	-81.6338
 133	1	2	0.222203	53.8773	-20.7826	-83.9802
 134	1	2	0.041795	54.9802	-19.6806	-81.6185
 135	1	2	-0.461017	55.2134	-20.3216	-83.9483
 136	1	2	-0.140506	55.7644	-19.7826	-82.7758
 137	1	4	0.148448	56.7963	-19.437	-82.7623
 138	1	10	0.055442	51.3675	-21.6143	-81.7812
 139	1	10	0.090839	50.9293	-20.4987	-83.0837
 140	1	3	-0.16304	51.6551	-21.2644	-82.7805
 141	1	10	0.039719	51.5344	-22.1264	-83.4475
 142	1	11	0.077452	56.3387	-19.7609	-79.9442
 143	1	11	0.09063	56.073	-18.1336	-80.5922
 144	1	4	0.230266	55.8335	-20.4007	-84.8401
 145	1	1	-0.247122	49.368	-6.21188	-65.8128
 146	1	2	0.139112	48.8586	-5.18027	-66.6227
 147	1	2	0.02746	48.7913	-3.83211	-66.1883
 148	1	3	-0.077297	49.1861	-3.44073	-64.7615
 149	1	2	-0.08585	48.3435	-2.83906	-67.0926
 150	1	2	-0.195578	47.9406	-3.18905	-68.3931
 151	1	4	0.171692	47.5924	-2.42259	-69.0829
 152	1	2	-0.199822	47.9917	-4.52312	-68.8142
 153	1	4	0.149498	47.6906	-4.78577	-69.8249
 154	1	2	0.076729	48.4554	-5.51541	-67.9396
 155	1	2	-0.057821	47.5208	0.628644	-66.2374
 156	1	2	-0.076852	46.7333	1.75152	-65.9715
 157	1	4	0.145382	45.656	1.63251	-65.8806
 158	1	2	-0.023498	47.3551	3.01937	-65.836
 159	1	4	0.166076	50.6234	2.01723	-66.4017
 160	1	2	-0.140684	49.5451	1.95175	-66.268
 161	1	2	-0.058922	48.889	0.720578	-66.3765
 162	1	3	-0.101954	46.4546	4.25529	-65.5557
 163	1	2	-0.067123	48.7676	3.09952	-66.0023
 164	1	4	0.142141	49.2847	4.05046	-65.9372
 165	1	3	0.321219	47.2339	5.50654	-64.9921
 166	1	3	0.382784	45.795	4.64166	-66.9365
 167	1	5	-0.111948	48.0443	5.1809	-63.96
 168	1	5	-0.11115	46.382	6.44547	-64.5208
 169	1	5	-0.103632	48.0082	6.1191	-65.9158
 170	1	5	-0.110272	44.9524	3.68291	-67.3837
 171	1	5	-0.120305	46.7229	4.79648	-67.9084
 172	1	5	-0.123663	45.0916	5.79487	-66.8816
 173	1	6	0.452517	49.4143	-0.637322	-66.6851
 174	1	6	0.453374	47.1192	-0.783724	-66.4579
 175	1	7	0.018948	48.2978	-1.46452	-66.7306
 176	1	8	-0.46698	50.5811	-0.934289	-66.8774
 177	1	8	-0.469385	45.9816	-1.22208	-66.437
 178	1	3	-0.126657	48.5604	-6.95981	-68.4329
 179	1	2	0.020988	43.1901	3.55598	-63.5733
 180	1	6	0.027902	41.7098	3.57042	-63.4907
 181	1	8	-0.378193	40.9416	4.0222	-64.3242
 182	1	2	0.043573	43.6837	2.9399	-62.4411
 183	1	6	0.038038	42.5428	2.54638	-61.5764
 184	1	7	0.4913	41.4098	2.94394	-62.2822
 185	1	8	-0.382817	42.6077	1.98915	-60.4926
 186	1	2	0.0054	44.0301	4.02631	-64.5878
 187	1	2	-0.040988	45.0543	2.75124	-62.261
 188	1	2	-0.085341	45.4315	3.83284	-64.4594
 189	1	4	0.154391	43.5741	4.50466	-65.4479
 190	1	2	-0.205992	45.9187	3.19837	-63.2808
 191	1	4	0.156637	45.4307	2.25759	-61.3677
 192	1	4	0.178085	46.9863	3.03178	-63.1556
 193	1	10	0.05178	49.1282	-4.28779	-64.0676
 194	1	10	0.015669	48.5229	-2.66639	-64.3568
 195	1	10	0.036134	50.2118	-3.05291	-64.7337
 196	1	11	0.101096	47.5556	-7.39298	-68.5038
 197	1	1	-0.196269	49.3926	-7.76549	-67.514
 198	1	11	0.131285	48.9974	-6.95539	-69.4387
 199	1	3	-0.292673	48.9032	-7.5776	-66.1334
 200	1	3	-0.034798	50.8322	-6.24074	-65.6003
 201	1	12	0.194395	49.3465	-8.32227	-65.4582
 202	1	12	0.183693	47.8076	-7.63918	-66.0872
 203	1	2	-0.144532	51.421	-8.27594	-68.8265
 204	1	2	0.128587	50.784	-7.69982	-67.6985
 205	1	2	0.222203	52.8053	-8.05401	-69.0252
 206	1	2	0.041795	51.5359	-6.94197	-66.7668
 207	1	2	-0.461017	53.5474	-7.32693	-68.0686
 208	1	2	-0.140506	52.9178	-6.78031	-66.941
 209	1	4	0.148448	53.4887	-6.19195	-66.2253
 210	1	10	0.055442	51.1996	-9.99393	-70.1671
 211	1	10	0.090839	49.6901	-9.49205	-69.4311
 212	1	3	-0.16304	50.6328	-9.11161	-69.8438
 213	1	10	0.039719	50.3924	-8.51988	-70.7362
 214	1	11	0.077452	51.0618	-6.77084	-64.6679
 215	1	11	0.09063	51.2239	-5.22004	-65.5113
 216	1	4	0.230266	54.6111	-7.15547	-68.2234
 217	1	1	-0.247122	35.1561	1.58575	-61.5112
 218	1	2	0.139112	34.653	2.18622	-62.6798
 219	1	2	0.02746	33.5668	3.10096	-62.6674
 220	1	3	-0.077297	32.8334	3.44436	-61.3633
 221	1	2	-0.08585	33.1662	3.71176	-63.8853
 222	1	2	-0.195578	33.8229	3.39249	-65.0873
 223	1	4	0.171692	33.5333	3.88288	-66.0149
 224	1	2	-0.199822	34.8892	2.48577	-65.0955
 225	1	4	0.149498	35.4109	2.26952	-66.0244
 226	1	2	0.076729	35.3163	1.89582	-63.8986
 227	1	2	-0.057821	30.2679	5.96773	-63.6189
 228	1	2	-0.076852	29.0068	6.42912	-63.2249
 229	1	4	0.145382	28.276	5.71881	-62.8447
 230	1	2	-0.023498	28.7357	7.82275	-63.26
 231	1	4	0.166076	31.7973	8.88112	-64.4898
 232	1	2	-0.140684	31.0129	8.20814	-64.1474
 233	1	2	-0.058922	31.2512	6.83586	-64.04
 234	1	3	-0.101954	27.3688	8.33125	-62.7103
 235	1	2	-0.067123	29.7458	8.69211	-63.766
 236	1	4	0.142141	29.5848	9.76107	-63.8422
 237	1	3	0.321219	27.3175	9.88962	-62.481
 238	1	3	0.382784	26.2821	7.92376	-63.7795
 239	1	5	-0.111948	28.3529	10.316	-61.7218
 240	1	5	-0.11115	26.1987	10.2663	-61.8209
 241	1	5	-0.103632	27.3382	10.5945	-63.6348
 242	1	5	-0.110272	26.0509	6.59176	-63.7757
 243	1	5	-0.120305	26.6795	8.2415	-65.0328
 244	1	5	-0.123663	25.0863	8.52687	-63.597
 245	1	6	0.452517	32.4986	6.05992	-64.2524
 246	1	6	0.453374	30.8423	4.5962	-63.5842
 247	1	7	0.018948	32.1847	4.74649	-63.9204
 248	1	8	-0.46698	33.5805	6.51985	-64.576
 249	1	8	-0.469385	30.2427	3.57569	-63.2928
 250	1	3	-0.126657	36.5415	0.976482	-63.9131
 251	1	2	0.020988	25.7096	6.82239	-59.5482
 252	1	6	0.027902	24.4834	6.45631	-58.7994
 253	1	8	-0.378193	23.3364	6.58801	-59.1948
 254	1	2	0.043573	26.7997	6.59985	-58.7331
 255	1	6	0.038038	26.3225	6.0569	-57.4357
 256	1	7	0.4913	24.9334	6.00322	-57.5568
 257	1	8	-0.382817	27.0158	5.76903	-56.4733
 258	1	2	0.0054	25.842	7.35799	-60.8337
 259	1	2	-0.040988	28.0898	6.93299	-59.1482
 260	1	2	-0.085341	27.1385	7.68589	-61.3107
 261	1	4	0.154391	24.9429	7.52819	-61.4158
 262	1	2	-0.205992	28.2454	7.49096	-60.434
 263	1	4	0.156637	28.9379	6.78461	-58.4833
 264	1	4	0.178085	29.2463	7.78394	-60.743
 265	1	10	0.05178	33.3142	3.04237	-60.467
 266	1	10	0.015669	31.8202	3.02829	-61.3655
 267	1	10	0.036134	32.7554	4.52935	-61.2234
 268	1	11	0.101096	36.2824	0.0340455	-64.4101
 269	1	1	-0.196269	37.0167	0.704376	-62.5392
 270	1	11	0.131285	37.3344	1.45843	-64.4978
 271	1	3	-0.292673	35.8697	0.305863	-61.6996
 272	1	3	-0.034798	35.9289	2.43918	-60.5792
 273	1	12	0.194395	36.2136	-0.107934	-60.7419
 274	1	12	0.183693	35.2337	-0.426315	-62.215
 275	1	2	-0.144532	39.2591	1.73575	-62.3893
 276	1	2	0.128587	37.9101	1.62693	-61.9689
 277	1	2	0.222203	40.0782	2.74363	-61.8213
 278	1	2	0.041795	37.4022	2.5064	-60.9824
 279	1	2	-0.461017	39.5635	3.59182	-60.8172
 280	1	2	-0.140506	38.2323	3.47217	-60.3972
 281	1	4	0.148448	37.8336	4.14194	-59.638
 282	1	10	0.055442	39.2732	-0.155112	-63.5117
 283	1	10	0.090839	39.8225	1.24919	-64.4418
 284	1	3	-0.16304	39.8354	0.784521	-63.4471
 285	1	10	0.039719	40.8712	0.502175	-63.2212
 286	1	11	0.077452	35.8514	2.03915	-59.5607
 287	1	11	0.09063	35.528	3.45972	-60.5721
 288	1	4	0.230266	40.1998	4.35612	-60.3742
 289	1	1	-0.247122	19.997	4.10257	-53.8931
 290	1	2	0.139112	19.0199	4.78774	-54.6378
 291	1	2	0.02746	18.0731	5.65369	-54.0334
 292	1	3	-0.077297	17.9855	5.75914	-52.5076
 293	1	2	-0.08585	17.1996	6.40681	-54.8593
 294	1	2	-0.195578	17.244	6.25154	-56.2573
 295	1	4	0.171692	16.5677	6.82106	-56.8925
 296	1	2	-0.199822	18.1561	5.36914	-56.8485
 297	1	4	0.149498	18.1869	5.26375	-57.9298
 298	1	2	0.076729	19.0496	4.6467	-56.0471
 299	1	2	-0.057821	14.3663	8.57402	-53.9693
 300	1	2	-0.076852	13.0576	9.07316	-53.9734
 301	1	4	0.145382	12.2843	8.47908	-54.4489
 302	1	2	-0.023498	12.8014	10.3358	-53.3754
 303	1	4	0.166076	16.0463	11.0891	-52.4093
 304	1	2	-0.140684	15.211	10.5309	-52.828
 305	1	2	-0.058922	15.4143	9.28114	-53.4194
 306	1	3	-0.101954	11.3869	10.9893	-53.3406
 307	1	2	-0.067123	13.8997	11.047	-52.812
 308	1	4	0.142141	13.7371	12.0224	-52.3599
 309	1	3	0.321219	11.4002	12.1214	-54.4399
 310	1	3	0.382784	10.2128	9.9832	-53.647
 311	1	5	-0.111948	12.1946	13.1579	-54.0881
 312	1	5	-0.11115	10.1769	12.6342	-54.7017
 313	1	5	-0.103632	11.8815	11.6618	-55.6175
 314	1	5	-0.110272	10.2901	8.87634	-52.8737
 315	1	5	-0.120305	10.1839	9.57413	-54.9355
 316	1	5	-0.123663	9.00416	10.5332	-53.3895
 317	1	6	0.452517	16.6672	8.51127	-53.6433
 318	1	6	0.453374	14.9102	7.31944	-54.5517
 319	1	7	0.018948	16.2826	7.36284	-54.3289
 320	1	8	-0.46698	17.793	8.8696	-53.3398
 321	1	8	-0.469385	14.2702	6.4721	-55.1507
 322	1	3	-0.126657	20.0858	3.73546	-56.7091
 323	1	2	0.020988	11.3672	11.1885	-49.5013
 324	1	6	0.027902	11.7909	10.5952	-48.2112
 325	1	8	-0.378193	12.3708	9.53272	-48.0584
 326	1	2	0.043573	10.7948	12.4188	-49.2537
 327	1	6	0.038038	10.8219	12.6668	-47.7897
 328	1	7	0.4913	11.4514	11.5458	-47.2511
 329	1	8	-0.382817	10.4545	13.6795	-47.217
 330	1	2	0.0054	11.5423	10.707	-50.8001
 331	1	2	-0.040988	10.3522	13.2327	-50.2988
 332	1	2	-0.085341	11.1448	11.5161	-51.8963
 333	1	4	0.154391	12.0083	9.73493	-50.9433
 334	1	2	-0.205992	10.5265	12.7698	-51.6207
 335	1	4	0.156637	9.90462	14.202	-50.0891
 336	1	4	0.178085	10.1795	13.4128	-52.4232
 337	1	10	0.05178	18.6229	6.56873	-52.132
 338	1	10	0.015669	18.3001	4.83119	-52.0146
 339	1	10	0.036134	16.9605	5.95253	-52.1696
 340	1	11	0.101096	19.5915	2.82474	-57.0676
 341	1	1	-0.196269	21.1581	3.38495	-55.7532
 342	1	11	0.131285	20.5057	4.2558	-57.5785
 343	1	3	-0.292673	20.5451	2.8759	-54.5095
 344	1	3	-0.034798	21.1157	4.91236	-53.3612
 345	1	12	0.194395	21.302	2.40761	-53.8659
 346	1	12	0.183693	19.745	2.15558	-54.7266
 347	1	2	-0.144532	23.1467	4.55408	-56.625
 348	1	2	0.128587	22.1907	4.3254	-55.6038
 349	1	2	0.222203	24.0557	5.6349	-56.4913
 350	1	2	0.041795	22.1886	5.12365	-54.4342
 351	1	2	-0.461017	24.0549	6.40387	-55.3055
 352	1	2	-0.140506	23.1377	6.14255	-54.2778
 353	1	4	0.148448	23.1339	6.75383	-53.3775
 354	1	10	0.055442	24.2174	3.51168	-58.2352
 355	1	10	0.090839	22.8224	2.63402	-57.6361
 356	1	3	-0.16304	23.1953	3.6418	-57.8588
 357	1	10	0.039719	22.5855	4.04617	-58.676
 358	1	11	0.077452	21.5631	4.40587	-52.4972
 359	1	11	0.09063	20.7522	5.89095	-53.0251
 360	1	4	0.230266	24.7671	7.21935	-55.1883
 361	1	1	-0.247122	14.4682	11.1413	-41.5536
 362	1	2	0.139112	15.3164	10.0417	-41.7539
 363	1	2	0.02746	15.446	9.00374	-40.7998
 364	1	3	-0.077297	14.7162	9.08078	-39.4542
 365	1	2	-0.08585	16.2766	7.89604	-41.0968
 366	1	2	-0.195578	16.9876	7.84497	-42.3091
 367	1	4	0.171692	17.6359	6.99832	-42.5271
 368	1	2	-0.199822	16.8691	8.8838	-43.2428
 369	1	4	0.149498	17.4183	8.83744	-44.1794
 370	1	2	0.076729	16.0322	9.97703	-42.9737
 371	1	2	-0.057821	17.2308	5.48097	-38.5089
 372	1	2	-0.076852	17.977	4.90985	-37.4747
 373	1	4	0.145382	18.9613	5.31321	-37.2464
 374	1	2	-0.023498	17.4173	3.84569	-36.7211
 375	1	4	0.166076	14.4028	3.59131	-38.4108
 376	1	2	-0.140684	15.3967	3.94723	-38.1456
 377	1	2	-0.058922	15.9721	5.02149	-38.8322
 378	1	3	-0.101954	18.2373	3.2732	-35.5293
 379	1	2	-0.067123	16.1303	3.36031	-37.0926
 380	1	4	0.142141	15.6702	2.53282	-36.564
 381	1	3	0.321219	17.3725	2.46588	-34.4854
 382	1	3	0.382784	19.3193	2.31415	-36.1576
 383	1	5	-0.111948	18.0688	2.21839	-33.3526
 384	1	5	-0.11115	16.9527	1.26706	-34.9483
 385	1	5	-0.103632	16.2692	3.14927	-34.1055
 386	1	5	-0.110272	18.7585	1.41351	-36.9968
 387	1	5	-0.120305	20.005	1.60629	-35.2317
 388	1	5	-0.123663	20.2277	2.99233	-36.8951
 389	1	6	0.452517	15.4338	5.87514	-39.9257
 390	1	6	0.453374	17.5451	6.64093	-39.3813
 391	1	7	0.018948	16.4213	6.82132	-40.1761
 392	1	8	-0.46698	14.3332	5.77942	-40.4416
 393	1	8	-0.469385	18.5615	7.31361	-39.348
 394	1	3	-0.126657	15.8843	11.0956	-44.0102
 395	1	2	0.020988	18.4943	6.69591	-33.7949
 396	1	6	0.027902	17.8144	7.93891	-33.3564
 397	1	8	-0.378193	16.6317	8.20476	-33.4961
 398	1	2	0.043573	19.8242	6.77127	-33.4388
 399	1	6	0.038038	20.0577	8.0714	-32.7601
 400	1	7	0.4913	18.8111	8.69735	-32.7448
 401	1	8	-0.382817	21.1153	8.47135	-32.3006
 402	1	2	0.0054	17.9721	5.57682	-34.4468
 403	1	2	-0.040988	20.7035	5.71842	-33.7033
 404	1	2	-0.085341	18.8323	4.49178	-34.7616
 405	1	4	0.154391	16.9183	5.56675	-34.7137
 406	1	2	-0.205992	20.1974	4.57721	-34.3627
 407	1	4	0.156637	21.7471	5.78626	-33.4033
 408	1	4	0.178085	20.8927	3.7668	-34.5563
 409	1	10	0.05178	15.3387	8.70497	-38.6334
 410	1	10	0.015669	13.793	8.48883	-39.4764
 411	1	10	0.036134	14.4462	10.1083	-39.1831
 412	1	11	0.101096	16.8244	11.6571	-44.0691
 413	1	1	-0.196269	14.7776	12.0139	-43.6566
 414	1	11	0.131285	15.6985	10.6435	-44.9923
 415	1	3	-0.292673	14.8686	12.3887	-42.233
 416	1	3	-0.034798	13.0153	10.9118	-41.7279
 417	1	12	0.194395	14.1766	13.2103	-42.0022
 418	1	12	0.183693	15.8935	12.6734	-41.959
 419	1	2	-0.144532	13.1179	11.8502	-45.4706
 420	1	2	0.128587	13.4962	11.6797	-44.117
 421	1	2	0.222203	11.829	11.4329	-45.8834
 422	1	2	0.041795	12.5898	11.1161	-43.1866
 423	1	2	-0.461017	10.9316	10.8768	-44.9457
 424	1	2	-0.140506	11.309	10.723	-43.6027
 425	1	4	0.148448	10.6186	10.2844	-42.8847
 426	1	10	0.055442	13.5761	13.2471	-47.0937
 427	1	10	0.090839	14.9314	12.9819	-46.0179
 428	1	3	-0.16304	14.078	12.4805	-46.4901
 429	1	10	0.039719	14.4781	11.7203	-47.173
 430	1	11	0.077452	12.4543	11.6046	-41.0889
 431	1	11	0.09063	12.7551	9.89033	-41.4222
 432	1	4	0.230266	9.94223	10.554	-45.2647
 433	1	1	-0.247122	18.7558	14.697	-30.3882
 434	1	2	0.139112	20.0899	14.7111	-29.9423
 435	1	2	0.02746	20.4371	15.013	-28.6017
 436	1	3	-0.077297	19.3798	15.4784	-27.5959
 437	1	2	-0.08585	21.7801	14.8542	-28.1856
 438	1	2	-0.195578	22.7732	14.4852	-29.1096
 439	1	4	0.171692	23.8044	14.3616	-28.7841
 440	1	2	-0.199822	22.4332	14.2172	-30.4419
 441	1	4	0.149498	23.1981	13.8939	-31.1433
 442	1	2	0.076729	21.0945	14.2956	-30.852
 443	1	2	-0.057821	22.4472	14.2749	-24.6349
 444	1	2	-0.076852	22.5037	13.5728	-23.4282
 445	1	4	0.145382	22.0229	12.5996	-23.3621
 446	1	2	-0.023498	23.2069	14.1331	-22.3315
 447	1	4	0.166076	24.3179	17.0183	-23.903
 448	1	2	-0.140684	23.8011	16.0718	-23.7565
 449	1	2	-0.058922	23.0823	15.4863	-24.8045
 450	1	3	-0.101954	23.3137	13.3135	-21.0121
 451	1	2	-0.067123	23.8571	15.3873	-22.5222
 452	1	4	0.142141	24.4387	15.8389	-21.7264
 453	1	3	0.321219	24.5379	12.3407	-21.2104
 454	1	3	0.382784	23.5585	14.206	-19.7339
 455	1	5	-0.111948	24.8493	11.654	-20.0881
 456	1	5	-0.11115	25.6563	13.004	-21.5828
 457	1	5	-0.103632	24.3062	11.4369	-22.1896
 458	1	5	-0.110272	23.3452	13.5061	-18.5963
 459	1	5	-0.120305	22.7222	15.2677	-19.6942
 460	1	5	-0.123663	24.814	14.6998	-19.646
 461	1	6	0.452517	22.8884	15.9181	-26.2182
 462	1	6	0.453374	21.8127	13.8951	-25.9193
 463	1	7	0.018948	22.1328	14.9123	-26.8089
 464	1	8	-0.46698	23.3458	16.9208	-26.7389
 465	1	8	-0.469385	21.1639	12.8837	-26.129
 466	1	3	-0.126657	20.7133	13.8531	-32.2674
 467	1	2	0.020988	20.5944	10.5876	-20.4493
 468	1	6	0.027902	20.2168	9.15572	-20.3242
 469	1	8	-0.378193	20.982	8.20942	-20.2402
 470	1	2	0.043573	19.4389	11.3337	-20.557
 471	1	6	0.038038	18.2734	10.417	-20.5054
 472	1	7	0.4913	18.824	9.14146	-20.3873
 473	1	8	-0.382817	17.1001	10.7299	-20.6284
 474	1	2	0.0054	21.8619	11.1731	-20.5489
 475	1	2	-0.040988	19.4838	12.7138	-20.7587
 476	1	2	-0.085341	21.9577	12.5722	-20.7897
 477	1	4	0.154391	22.7274	10.5238	-20.4771
 478	1	2	-0.205992	20.7502	13.3226	-20.8716
 479	1	4	0.156637	18.5641	13.2862	-20.8585
 480	1	4	0.178085	20.788	14.3926	-21.0636
 481	1	10	0.05178	18.5202	15.948	-28.0894
 482	1	10	0.015669	19.7852	16.2272	-26.9043
 483	1	10	0.036134	19.0074	14.637	-26.9989
 484	1	11	0.101096	21.0124	14.6273	-32.9842
 485	1	1	-0.196269	19.2566	13.6148	-32.361
 486	1	11	0.131285	21.2633	12.9367	-32.5117
 487	1	3	-0.292673	18.5517	14.8074	-31.8483
 488	1	3	-0.034798	17.8919	13.6146	-29.8696
 489	1	12	0.194395	17.4853	14.7694	-32.1092
 490	1	12	0.183693	18.9963	15.7329	-32.2381
 491	1	2	-0.144532	19.0011	11.1676	-32.6409
 492	1	2	0.128587	18.7757	12.3683	-31.919
 493	1	2	0.222203	18.5604	9.93775	-32.0895
 494	1	2	0.041795	18.097	12.3303	-30.6752
 495	1	2	-0.461017	17.8759	9.92376	-30.8549
 496	1	2	-0.140506	17.6415	11.1126	-30.153
 497	1	4	0.148448	17.1259	11.0918	-29.1947
 498	1	10	0.055442	19.6353	12.1635	-34.4949
 499	1	10	0.090839	20.7712	10.9413	-33.8979
 500	1	3	-0.16304	19.706	11.1854	-34.0035
 501	1	10	0.039719	19.2638	10.4628	-34.7007
 502	1	11	0.077452	16.8391	13.9163	-29.9317
 503	1	11	0.09063	18.1198	13.4085	-28.8173
 504	1	4	0.230266	17.5284	8.98022	-30.4384
 505	1	1	-0.247122	14.6369	4.20383	-19.7371
 506	1	2	0.139112	15.1027	3.16855	-18.9199
 507	1	2	0.02746	14.7688	1.81062	-19.1449
 508	1	3	-0.077297	13.8858	1.39117	-20.3241
 509	1	2	-0.08585	15.2009	0.834362	-18.2159
 510	1	2	-0.195578	15.992	1.20517	-17.1135
 511	1	4	0.171692	16.3109	0.453604	-16.3941
 512	1	2	-0.199822	16.3295	2.55082	-16.9039
 513	1	4	0.149498	16.9135	2.83447	-16.0324
 514	1	2	0.076729	15.869	3.53708	-17.7896
 515	1	2	-0.057821	13.3828	-2.34655	-18.0891
 516	1	2	-0.076852	12.3338	-3.22956	-17.812
 517	1	4	0.145382	11.4854	-2.84801	-17.2549
 518	1	2	-0.023498	12.4082	-4.5656	-18.2885
 519	1	4	0.166076	15.4742	-4.32745	-19.8971
 520	1	2	-0.140684	14.6061	-4.03355	-19.3101
 521	1	2	-0.058922	14.4897	-2.72928	-18.8164
 522	1	3	-0.101954	11.2489	-5.59265	-18.0918
 523	1	2	-0.067123	13.556	-4.94002	-19.0448
 524	1	4	0.142141	13.6312	-5.94939	-19.4422
 525	1	3	0.321219	10.2386	-5.18136	-16.9535
 526	1	3	0.382784	10.4892	-5.64612	-19.4742
 527	1	5	-0.111948	9.37622	-6.17988	-16.6553
 528	1	5	-0.11115	9.47653	-4.11258	-17.2783
 529	1	5	-0.103632	10.8863	-4.89232	-15.8018
 530	1	5	-0.110272	10.2777	-4.40791	-19.9766
 531	1	5	-0.120305	9.275	-6.23647	-19.4076
 532	1	5	-0.123663	11.2046	-6.32019	-20.4031
 533	1	6	0.452517	15.3838	-1.54365	-18.9603
 534	1	6	0.453374	13.5261	-0.91009	-17.7435
 535	1	7	0.018948	14.7326	-0.50787	-18.3004
 536	1	8	-0.46698	16.4437	-1.50369	-19.5613
 537	1	8	-0.469385	12.7253	-0.235173	-17.1194
 538	1	3	-0.126657	16.1522	5.01869	-17.5021
 539	1	2	0.020988	11.7013	-9.39823	-17.5167
 540	1	6	0.027902	11.1755	-10.7792	-17.6543
 541	1	8	-0.378193	10.1468	-11.1016	-18.226
 542	1	2	0.043573	12.8405	-9.43845	-16.7417
 543	1	6	0.038038	13.1101	-10.8511	-16.3702
 544	1	7	0.4913	12.0731	-11.5848	-16.9501
 545	1	8	-0.382817	14.0291	-11.2507	-15.6736
 546	1	2	0.0054	11.1759	-8.19349	-17.9934
 547	1	2	-0.040988	13.5048	-8.26592	-16.3738
 548	1	2	-0.085341	11.8303	-6.97493	-17.6659
 549	1	4	0.154391	10.2586	-8.23058	-18.5702
 550	1	2	-0.205992	12.9812	-7.03681	-16.8292
 551	1	4	0.156637	14.3805	-8.30928	-15.7297
 552	1	4	0.178085	13.4703	-6.12078	-16.5048
 553	1	10	0.05178	13.7435	2.18933	-21.0608
 554	1	10	0.015669	12.8901	1.08966	-19.976
 555	1	10	0.036134	14.3256	0.542093	-20.8618
 556	1	11	0.101096	15.7334	5.27548	-16.5217
 557	1	1	-0.196269	15.5748	5.92208	-18.5298
 558	1	11	0.131285	17.2386	5.16363	-17.4483
 559	1	3	-0.292673	14.2683	5.43202	-19.0069
 560	1	3	-0.034798	15.4095	4.51355	-20.9671
 561	1	12	0.194395	13.7946	6.16477	-19.6746
 562	1	12	0.183693	13.5988	5.20693	-18.1656
 563	1	2	-0.144532	17.2641	7.50782	-19.3734
 564	1	2	0.128587	16.4229	6.37993	-19.5419
 565	1	2	0.222203	18.0454	7.94919	-20.4691
 566	1	2	0.041795	16.3713	5.69557	-20.7787
 567	1	2	-0.461017	18.0078	7.23907	-21.6904
 568	1	2	-0.140506	17.1784	6.11795	-21.8446
 569	1	4	0.148448	17.1414	5.58896	-22.7949
 570	1	10	0.055442	16.839	9.27839	-18.173
 571	1	10	0.090839	16.7614	7.78787	-17.2405
 572	1	3	-0.16304	17.2989	8.28904	-18.0535
 573	1	10	0.039719	18.3299	8.4357	-17.7075
 574	1	11	0.077452	14.7125	4.75146	-21.7799
 575	1	11	0.09063	15.9901	3.63459	-21.2753
 576	1	4	0.230266	18.6142	7.57485	-22.5304
 577	1	1	-0.247122	10.9825	-17.9752	-17.2981
 578	1	2	0.139112	9.65037	-18.06	-17.7251
 579	1	2	0.02746	8.72514	-18.9582	-17.1402
 580	1	3	-0.077297	9.16238	-19.9258	-16.0353
 581	1	2	-0.08585	7.3865	-18.9629	-17.6004
 582	1	2	-0.195578	6.98888	-18.0969	-18.6351
 583	1	4	0.171692	5.96079	-18.109	-18.9924
 584	1	2	-0.199822	7.91206	-17.2154	-19.2162
 585	1	4	0.149498	7.59751	-16.5473	-20.0137
 586	1	2	0.076729	9.24019	-17.1914	-18.7648
 587	1	2	-0.057821	4.98746	-21.5985	-16.7086
 588	1	2	-0.076852	4.20993	-22.7571	-16.8334
 589	1	4	0.145382	4.27449	-23.3285	-17.7536
 590	1	2	-0.023498	3.34473	-23.1215	-15.7683
 591	1	4	0.166076	4.04339	-20.4779	-13.6358
 592	1	2	-0.140684	4.09208	-21.1203	-14.513
 593	1	2	-0.058922	4.93627	-20.8057	-15.5808
 594	1	3	-0.101954	2.38822	-24.3448	-15.8585
 595	1	2	-0.067123	3.29176	-22.2745	-14.6239
 596	1	4	0.142141	2.60803	-22.4998	-13.81
 597	1	3	0.321219	1.04104	-23.7898	-16.46
 598	1	3	0.382784	2.93017	-25.5036	-16.7861
 599	1	5	-0.111948	1.23819	-23.124	-17.6207
 600	1	5	-0.11115	0.451969	-22.9011	-15.6276
 601	1	5	-0.103632	0.142033	-24.7661	-16.7193
 602	1	5	-0.110272	2.24225	-26.6518	-16.5905
 603	1	5	-0.120305	4.22826	-25.7869	-16.5355
 604	1	5	-0.123663	2.84457	-25.2337	-18.1078
 605	1	6	0.452517	5.86128	-19.6573	-15.772
 606	1	6	0.453374	5.94239	-20.9789	-17.6652
 607	1	7	0.018948	6.41745	-19.8368	-17.0323
 608	1	8	-0.46698	6.08691	-18.7695	-14.967
 609	1	8	-0.469385	6.24004	-21.4077	-18.7667
 610	1	3	-0.126657	10.245	-16.2191	-19.3959
 611	1	2	0.020988	0.93808	-25.6871	-12.5107
 612	1	6	0.027902	-0.225782	-25.9423	-11.6278
 613	1	8	-0.378193	-1.39723	-25.7445	-11.9053
 614	1	2	0.043573	2.0874	-26.0173	-11.824
 615	1	6	0.038038	1.70968	-26.5156	-10.477
 616	1	7	0.4913	0.317926	-26.4175	-10.4343
 617	1	8	-0.382817	2.47362	-26.9106	-9.61125
 618	1	2	0.0054	0.973296	-25.1727	-13.8104
 619	1	2	-0.040988	3.34706	-25.8369	-12.3975
 620	1	2	-0.085341	2.23395	-24.9528	-14.4294
 621	1	4	0.154391	0.0280762	-24.9432	-14.2899
 622	1	2	-0.205992	3.40778	-25.2951	-13.6986
 623	1	4	0.156637	4.24675	-26.094	-11.8423
 624	1	4	0.178085	4.3887	-25.1289	-14.1386
 625	1	10	0.05178	8.91885	-19.5198	-15.0457
 626	1	10	0.015669	10.2399	-20.1267	-16.0573
 627	1	10	0.036134	8.66983	-20.901	-16.1302
 628	1	11	0.101096	10.4259	-16.5161	-20.4357
 629	1	1	-0.196269	11.5279	-16.1989	-18.6535