pySIMM System Object

3602 atoms
4001 bonds
7200 angles
11096 dihedrals
1000 impropers

12 atom types
15 bond types
28 angle types
9 dihedral types
4 improper types

-241.081467 241.081467 xlo xhi
-241.081467 241.081467 ylo yhi
-241.081467 241.081467 zlo zhi

Masses

   1	14.01	# nh
   2	12.01	# ca
   3	12.01	# c3
   4	1.008	# ha
   5	19.0	# f
   6	12.01	# c
   7	14.01	# n
   8	16.0	# o
   9	1.008	# hn
  10	1.008	# hc
  11	1.008	# h1
  12	1.008	# h2

Pair Coeffs

   1	0.17	3.249998523775958	# nh
   2	0.086	3.3996695084235347	# ca
   3	0.1094	3.3996695084235347	# c3
   4	0.015	2.59964245953351	# ha
   5	0.061	3.1181455134911875	# f
   6	0.086	3.3996695084235347	# c
   7	0.17	3.249998523775958	# n
   8	0.21	2.959921901149463	# o
   9	0.0157	1.069078461768407	# hn
  10	0.0157	2.649532787749369	# hc
  11	0.0157	2.471353044121301	# h1
  12	0.0157	2.2931733004932333	# h2

Bond Coeffs

   1	356.9	1.3497	# c3,f
   2	403.2	1.0129	# hn,n
   3	417.9	1.3859	# ca,nh
   4	300.9	1.5375	# c3,c3
   5	384.2	1.4121	# ca,n
   6	330.6	1.0969	# c3,h1
   7	461.1	1.3984	# ca,ca
   8	326.6	1.464	# c3,nh
   9	427.6	1.3789	# c,n
  10	331.7	1.0961	# c3,h2
  11	345.9	1.4906	# c,ca
  12	345.8	1.086	# ca,ha
  13	321.0	1.5156	# c3,ca
  14	330.6	1.0969	# c3,hc
  15	637.7	1.2183	# c,o

Angle Coeffs

   1	71.11	105.87	# nh,c3,nh
   2	63.25	114.51	# c3,nh,c3
   3	74.22	123.05	# n,c,o
   4	66.62	120.02	# ca,ca,ca
   5	68.29	120.95	# ca,ca,nh
   6	49.52	110.01	# h2,c3,nh
   7	68.72	122.6	# ca,c,o
   8	49.57	109.79	# h1,c3,nh
   9	67.68	115.25	# ca,c,n
  10	66.46	111.39	# ca,c3,nh
  11	48.33	117.55	# c,n,hn
  12	64.28	120.33	# c,ca,ca
  13	39.4	107.58	# hc,c3,hc
  14	63.53	120.77	# c3,ca,ca
  15	70.89	107.36	# f,c3,f
  16	67.87	120.19	# ca,ca,n
  17	46.8	110.47	# ca,c3,hc
  18	46.99	109.56	# ca,c3,h1
  19	62.86	111.51	# c3,c3,c3
  20	66.11	109.24	# c3,c3,f
  21	63.15	112.07	# c3,c3,ca
  22	38.96	110.2	# h2,c3,h2
  23	63.82	123.71	# c,n,ca
  24	39.24	108.46	# h1,c3,h1
  25	63.56	112.24	# ca,c3,ca
  26	63.39	119.98	# c3,nh,ca
  27	63.74	127.08	# c,n,c
  28	48.18	119.88	# ca,ca,ha

Dihedral Coeffs

   1	2	2.5	2	180	2.0	1	0	# hn,n,c,o
   2	1	0.0	2	0	# X,c3,nh,X
   3	1	3.625	2	180	# X,ca,ca,X
   4	1	0.0	2	0	# X,c3,ca,X
   5	1	1.0	2	180	# X,c,ca,X
   6	1	0.15555555555555556	3	0	# X,c3,c3,X
   7	1	2.5	2	180	# X,c,n,X
   8	1	0.45	2	180	# X,ca,n,X
   9	1	1.05	2	180	# X,ca,nh,X

Improper Coeffs

   1	10.5	-1	2	# c,X,X,o
   2	1.1	-1	2	# n,X,X,hn
   3	1.1	-1	2	# ca,ca,ca,c3
   4	1.1	-1	2	# ca,X,X,ha

Atoms

   1	1	1	-0.247122	-8.76512	114.02	121.968
   2	1	2	0.139112	-7.45261	113.833	121.509
   3	1	2	0.02746	-7.16938	113.302	120.227
   4	1	3	-0.077297	-8.31145	112.803	119.335
   5	1	2	-0.08585	-5.82061	113.218	119.797
   6	1	2	-0.195578	-4.78201	113.619	120.659
   7	1	4	0.171692	-3.74492	113.539	120.337
   8	1	2	-0.199822	-5.06724	114.115	121.938
   9	1	4	0.149498	-4.25705	114.42	122.595
  10	1	2	0.076729	-6.39722	114.233	122.364
  11	1	2	-0.057821	-4.50008	111.553	116.792
  12	1	2	-0.076852	-3.75166	110.657	116.017
  13	1	4	0.145382	-3.16941	109.898	116.53
  14	1	2	-0.023498	-3.77057	110.789	114.603
  15	1	4	0.166076	-5.86051	113.547	114.393
  16	1	2	-0.140684	-5.28283	112.737	114.835
  17	1	2	-0.058922	-5.23619	112.569	116.221
  18	1	3	-0.101954	-2.93777	109.876	113.655
  19	1	2	-0.067123	-4.54775	111.838	114.036
  20	1	4	0.142141	-4.57262	111.97	112.958
  21	1	3	0.321219	-1.6936	110.735	113.204
  22	1	3	0.382784	-2.42669	108.549	114.338
  23	1	5	-0.111948	-2.05195	111.746	112.381
  24	1	5	-0.11115	-0.750752	110.015	112.556
  25	1	5	-0.103632	-1.07751	111.31	114.262
  26	1	5	-0.110272	-3.42755	107.884	114.96
  27	1	5	-0.120305	-1.45661	108.759	115.256
  28	1	5	-0.123663	-1.91555	107.686	113.43
  29	1	6	0.452517	-5.86232	113.363	117.312
  30	1	6	0.453374	-4.64436	111.65	118.269
  31	1	7	0.018948	-5.46972	112.747	118.496
  32	1	8	-0.46698	-6.54663	114.362	117.168
  33	1	8	-0.469385	-4.11796	110.919	119.09
  34	1	3	-0.126657	-6.70496	114.809	123.75
  35	1	2	0.020988	-4.28698	108.92	110.139
  36	1	6	0.027902	-4.08086	108.76	108.676
  37	1	8	-0.378193	-3.07373	109.051	108.051
  38	1	2	0.043573	-5.56518	108.5	110.446
  39	1	6	0.038038	-6.23031	108.049	109.2
  40	1	7	0.4913	-5.27833	108.226	108.196
  41	1	8	-0.382817	-7.36839	107.619	109.103
  42	1	2	0.0054	-3.40782	109.383	111.126
  43	1	2	-0.040988	-6.04252	108.524	111.757
  44	1	2	-0.085341	-3.8531	109.431	112.476
  45	1	4	0.154391	-2.4085	109.678	110.824
  46	1	2	-0.205992	-5.17519	108.991	112.766
  47	1	4	0.156637	-7.04921	108.18	111.984
  48	1	4	0.178085	-5.53631	108.993	113.792
  49	1	10	0.05178	-9.15532	112.426	119.925
  50	1	10	0.015669	-7.99784	111.976	118.687
  51	1	10	0.036134	-8.68883	113.609	118.694
  52	1	11	0.101096	-6.38317	114.095	124.517
  53	1	1	-0.196269	-8.14894	115.094	123.91
  54	1	11	0.131285	-6.12493	115.73	123.883
  55	1	3	-0.292673	-8.94493	113.946	123.432
  56	1	3	-0.034798	-9.50904	115.179	121.42
  57	1	12	0.194395	-10.0014	114.062	123.711
  58	1	12	0.183693	-8.55487	113.0	123.83
  59	1	2	-0.144532	-8.37038	117.52	124.266
  60	1	2	0.128587	-8.59983	116.355	123.497
  61	1	2	0.222203	-8.81705	118.762	123.778
  62	1	2	0.041795	-9.2748	116.444	122.256
  63	1	2	-0.461017	-9.48406	118.849	122.546
  64	1	2	-0.140506	-9.7153	117.692	121.784
  65	1	4	0.148448	-10.2278	117.759	120.827
  66	1	10	0.055442	-7.89958	118.34	126.233
  67	1	10	0.090839	-7.97436	116.576	126.194
  68	1	3	-0.16304	-7.66643	117.46	125.62
  69	1	10	0.039719	-6.57735	117.422	125.497
  70	1	11	0.077452	-10.5821	114.953	121.404
  71	1	11	0.09063	-9.19393	115.375	120.387
  72	1	4	0.230266	-9.81662	119.82	122.187
  73	1	1	-0.247122	-5.61928	105.977	102.109
  74	1	2	0.139112	-4.48311	106.451	101.44
  75	1	2	0.02746	-4.55144	107.013	100.142
  76	1	3	-0.077297	-5.88248	107.083	99.3863
  77	1	2	-0.08585	-3.37106	107.519	99.5489
  78	1	2	-0.195578	-2.14241	107.434	100.228
  79	1	4	0.171692	-1.23653	107.824	99.7676
  80	1	2	-0.199822	-2.07966	106.869	101.51
  81	1	4	0.149498	-1.13004	106.821	102.037
  82	1	2	0.076729	-3.24657	106.39	102.126
  83	1	2	-0.057821	-3.35433	108.609	96.037
  84	1	2	-0.076852	-3.22602	108.551	94.6427
  85	1	4	0.145382	-2.87414	107.633	94.1765
  86	1	2	-0.023498	-3.56795	109.689	93.8655
  87	1	4	0.166076	-4.47996	111.793	96.467
  88	1	2	-0.140684	-4.13573	110.897	95.9515
  89	1	2	-0.058922	-3.80233	109.749	96.6721
  90	1	3	-0.101954	-3.40293	109.622	92.316
  91	1	2	-0.067123	-4.00832	110.861	94.5487
  92	1	4	0.142141	-4.26081	111.766	94.0103
  93	1	3	0.321219	-4.14762	110.782	91.5511
  94	1	3	0.382784	-1.85281	109.727	92.0408
  95	1	5	-0.111948	-5.44111	110.88	91.9347
  96	1	5	-0.11115	-4.17159	110.571	90.2151
  97	1	5	-0.103632	-3.5754	111.994	91.7338
  98	1	5	-0.110272	-1.20686	108.593	92.3939
  99	1	5	-0.120305	-1.28857	110.728	92.7554
 100	1	5	-0.123663	-1.54634	109.968	90.7464
 101	1	6	0.452517	-3.84753	109.486	98.1338
 102	1	6	0.453374	-3.08969	107.576	97.0764
 103	1	7	0.018948	-3.41492	108.176	98.2876
 104	1	8	-0.46698	-4.23296	110.259	98.9949
 105	1	8	-0.469385	-2.70344	106.437	96.881
 106	1	3	-0.126657	-3.1859	105.821	103.55
 107	1	2	0.020988	-4.18157	106.462	90.2083
 108	1	6	0.027902	-3.88398	105.602	89.0361
 109	1	8	-0.378193	-2.952	105.738	88.2602
 110	1	2	0.043573	-5.3417	106.007	90.7999
 111	1	6	0.038038	-5.83324	104.83	90.039
 112	1	7	0.4913	-4.91263	104.659	89.0055
 113	1	8	-0.382817	-6.84877	104.193	90.2661
 114	1	2	0.0054	-3.50855	107.595	90.6765
 115	1	2	-0.040988	-5.90218	106.67	91.8935
 116	1	2	-0.085341	-4.03585	108.298	91.7939
 117	1	4	0.154391	-2.62146	107.919	90.1436
 118	1	2	-0.205992	-5.24594	107.822	92.3755
 119	1	4	0.156637	-6.83222	106.317	92.3336
 120	1	4	0.178085	-5.70372	108.364	93.2005
 121	1	10	0.05178	-6.59436	106.322	99.7282
 122	1	10	0.015669	-5.74983	106.915	98.3107
 123	1	10	0.036134	-6.35269	108.065	99.5184
 124	1	11	0.101096	-2.60514	104.891	103.541
 125	1	1	-0.196269	-4.53944	105.554	104.093
 126	1	11	0.131285	-2.66132	106.538	104.195
 127	1	3	-0.292673	-5.3757	104.89	103.077
 128	1	3	-0.034798	-6.53354	106.991	102.685
 129	1	12	0.194395	-6.31462	104.53	103.519
 130	1	12	0.183693	-4.83963	104.055	102.606
 131	1	2	-0.144532	-4.85164	106.866	106.162
 132	1	2	0.128587	-5.17114	106.581	104.81
 133	1	2	0.222203	-5.53194	107.921	106.824
 134	1	2	0.041795	-6.16698	107.326	104.136
 135	1	2	-0.461017	-6.51519	108.662	106.13
 136	1	2	-0.140506	-6.83236	108.367	104.797
 137	1	4	0.148448	-7.60112	108.935	104.277
 138	1	10	0.055442	-3.68795	105.024	106.471
 139	1	10	0.090839	-2.82773	106.511	106.896
 140	1	3	-0.16304	-3.8106	106.022	106.91
 141	1	10	0.039719	-4.0903	105.858	107.958
 142	1	11	0.077452	-7.56295	106.614	102.654
 143	1	11	0.09063	-6.49805	107.913	102.092
 144	1	4	0.230266	-7.05611	109.456	106.643
 145	1	1	-0.247122	-4.22179	100.039	84.5287
 146	1	2	0.139112	-3.17594	100.573	83.7598
 147	1	2	0.02746	-3.22134	100.611	82.3444
 148	1	3	-0.077297	-4.39249	99.9758	81.5875
 149	1	2	-0.08585	-2.15874	101.226	81.6376
 150	1	2	-0.195578	-1.06021	101.76	82.3355
 151	1	4	0.171692	-0.238	102.22	81.7899
 152	1	2	-0.199822	-1.01081	101.702	83.7348
 153	1	4	0.149498	-0.160039	102.12	84.2665
 154	1	2	0.076729	-2.06546	101.117	84.4496
 155	1	2	-0.057821	-1.62058	101.031	78.0101
 156	1	2	-0.076852	-1.04836	100.643	76.7947
 157	1	4	0.145382	-0.207214	99.9529	76.7999
 158	1	2	-0.023498	-1.58629	101.146	75.5818
 159	1	4	0.166076	-4.06492	103.147	76.9485
 160	1	2	-0.140684	-3.23229	102.448	76.8952
 161	1	2	-0.058922	-2.68423	101.907	78.0625
 162	1	3	-0.101954	-0.940671	100.695	74.2381
 163	1	2	-0.067123	-2.67351	102.064	75.6577
 164	1	4	0.142141	-3.104	102.498	74.7622
 165	1	3	0.321219	-1.86016	100.929	72.9791
 166	1	3	0.382784	0.378898	101.545	74.0832
 167	1	5	-0.111948	-3.10634	100.439	73.1706
 168	1	5	-0.11115	-1.37272	100.299	71.8853
 169	1	5	-0.103632	-1.99056	102.232	72.6446
 170	1	5	-0.110272	1.31094	101.194	74.9981
 171	1	5	-0.120305	0.146578	102.865	74.2705
 172	1	5	-0.123663	0.952549	101.425	72.8649
 173	1	6	0.452517	-3.04828	102.111	79.4909
 174	1	6	0.453374	-1.26717	100.643	79.3997
 175	1	7	0.018948	-2.16343	101.321	80.2165
 176	1	8	-0.46698	-3.94391	102.824	79.912
 177	1	8	-0.469385	-0.371714	99.884	79.7296
 178	1	3	-0.126657	-2.01808	101.082	85.9808
 179	1	2	0.020988	0.644143	97.1587	73.9907
 180	1	6	0.027902	1.77997	96.2807	73.6147
 181	1	8	-0.378193	2.81887	96.6339	73.0807
 182	1	2	0.043573	-0.351154	96.3736	74.5353
 183	1	6	0.038038	0.105258	94.9615	74.5412
 184	1	7	0.4913	1.38495	94.9952	73.9891
 185	1	8	-0.382817	-0.525719	93.997	74.9426
 186	1	2	0.0054	0.505269	98.545	73.8619
 187	1	2	-0.040988	-1.55593	96.9293	74.9678
 188	1	2	-0.085341	-0.692167	99.1592	74.3184
 189	1	4	0.154391	1.324	99.1024	73.42
 190	1	2	-0.205992	-1.71794	98.3244	74.847
 191	1	4	0.156637	-2.33711	96.2969	75.384
 192	1	4	0.178085	-2.65705	98.762	75.1793
 193	1	10	0.05178	-4.85669	99.1612	82.1565
 194	1	10	0.015669	-4.07498	99.5388	80.633
 195	1	10	0.036134	-5.16989	100.72	81.3758
 196	1	11	0.101096	-1.24253	100.376	86.3013
 197	1	1	-0.196269	-3.32462	100.68	86.5485
 198	1	11	0.131285	-1.73907	102.078	86.348
 199	1	3	-0.292673	-3.83333	99.4882	85.8424
 200	1	3	-0.034798	-5.44125	100.867	84.6712
 201	1	12	0.194395	-4.69797	99.062	86.3692
 202	1	12	0.183693	-3.04975	98.7264	85.7331
 203	1	2	-0.144532	-4.1241	102.61	87.8572
 204	1	2	0.128587	-4.25727	101.702	86.7776
 205	1	2	0.222203	-5.04988	103.676	87.9796
 206	1	2	0.041795	-5.32056	101.837	85.8528
 207	1	2	-0.461017	-6.11399	103.788	87.0564
 208	1	2	-0.140506	-6.25296	102.872	86.0034
 209	1	4	0.148448	-7.07033	102.973	85.292
 210	1	10	0.055442	-3.32096	102.709	89.8986
 211	1	10	0.090839	-2.64937	101.399	88.948
 212	1	3	-0.16304	-2.99814	102.438	88.886
 213	1	10	0.039719	-2.13343	103.062	88.6291
 214	1	11	0.077452	-6.31161	100.218	84.826
 215	1	11	0.09063	-5.6144	101.446	83.7553
 216	1	4	0.230266	-6.83678	104.596	87.16
 217	1	1	-0.247122	5.95938	90.4428	73.5493
 218	1	2	0.139112	6.9048	91.0977	72.7444
 219	1	2	0.02746	7.4904	90.4802	71.6124
 220	1	3	-0.077297	7.16943	89.0237	71.2599
 221	1	2	-0.08585	8.38398	91.2255	70.8057
 222	1	2	-0.195578	8.71073	92.5503	71.145
 223	1	4	0.171692	9.40406	93.1174	70.5268
 224	1	2	-0.199822	8.1383	93.1532	72.2742
 225	1	4	0.149498	8.3846	94.1818	72.5242
 226	1	2	0.076729	7.23021	92.4373	73.0687
 227	1	2	-0.057821	10.3728	89.5832	68.1908
 228	1	2	-0.076852	11.4429	88.8991	67.5994
 229	1	4	0.145382	12.3579	88.7888	68.1718
 230	1	2	-0.023498	11.2778	88.3574	66.2956
 231	1	4	0.166076	8.02139	89.4089	65.7351
 232	1	2	-0.140684	8.97406	89.2686	66.2424
 233	1	2	-0.058922	9.17146	89.7588	67.5361
 234	1	3	-0.101954	12.3823	87.5324	65.567
 235	1	2	-0.067123	10.0364	88.5725	65.632
 236	1	4	0.142141	9.8819	88.1712	64.6335
 237	1	3	0.321219	12.9658	88.4702	64.4403
 238	1	3	0.382784	13.5542	87.0689	66.5145
 239	1	5	-0.111948	12.0843	88.6508	63.4311
 240	1	5	-0.11115	14.1057	88.0034	63.8838
 241	1	5	-0.103632	13.2524	89.7015	64.9213
 242	1	5	-0.110272	13.0875	86.4295	67.6114
 243	1	5	-0.120305	14.328	88.093	66.9403
 244	1	5	-0.123663	14.3792	86.1907	65.8996
 245	1	6	0.452517	8.23796	90.4674	68.4518
 246	1	6	0.453374	10.2503	90.177	69.5496
 247	1	7	0.018948	8.95045	90.661	69.6287
 248	1	8	-0.46698	7.07306	90.7445	68.2209
 249	1	8	-0.469385	11.105	90.1714	70.4186
 250	1	3	-0.126657	6.56911	93.1182	74.2727
 251	1	2	0.020988	11.498	84.4487	63.3786
 252	1	6	0.027902	11.7311	83.6146	62.1706
 253	1	8	-0.378193	12.5187	83.8488	61.269
 254	1	2	0.043573	10.5494	83.8215	64.1608
 255	1	6	0.038038	10.1259	82.5696	63.4871
 256	1	7	0.4913	10.8877	82.514	62.3212
 257	1	8	-0.382817	9.31404	81.7601	63.9053
 258	1	2	0.0054	12.1064	85.6459	63.7762
 259	1	2	-0.040988	10.1654	84.3457	65.3955
 260	1	2	-0.085341	11.73	86.2286	65.0172
 261	1	4	0.154391	12.8617	86.0799	63.1299
 262	1	2	-0.205992	10.7704	85.546	65.8182
 263	1	4	0.156637	9.43652	83.8252	66.0132
 264	1	4	0.178085	10.4933	85.9406	66.7936
 265	1	10	0.05178	6.83177	88.4502	72.1314
 266	1	10	0.015669	8.04807	88.4959	70.8696
 267	1	10	0.036134	6.38036	88.9723	70.4996
 268	1	11	0.101096	7.31846	93.2706	75.0585
 269	1	1	-0.196269	5.44982	92.3049	74.8004
 270	1	11	0.131285	6.20225	94.1048	73.9626
 271	1	3	-0.292673	5.8807	90.9018	74.9506
 272	1	3	-0.034798	4.59534	90.2919	72.9941
 273	1	12	0.194395	5.13882	90.326	75.5205
 274	1	12	0.183693	6.86112	90.8371	75.4415
 275	1	2	-0.144532	3.4061	93.6485	74.4862
 276	1	2	0.128587	4.18978	92.5	74.2147
 277	1	2	0.222203	2.18354	93.8296	73.7901
 278	1	2	0.041795	3.73737	91.5254	73.2929
 279	1	2	-0.461017	1.74327	92.843	72.8796
 280	1	2	-0.140506	2.51062	91.6949	72.6369
 281	1	4	0.148448	2.16495	90.9424	71.9307
 282	1	10	0.055442	3.02533	95.1043	76.0873
 283	1	10	0.090839	4.526	94.2227	76.2872
 284	1	3	-0.16304	3.86746	94.672	75.5332
 285	1	10	0.039719	4.41862	95.4952	75.0615
 286	1	11	0.077452	4.11606	89.4064	73.4293
 287	1	11	0.09063	4.64097	90.1483	71.9075
 288	1	4	0.230266	0.79265	92.9691	72.3636
 289	1	1	-0.247122	11.5478	76.9711	58.9999
 290	1	2	0.139112	12.8074	77.0028	58.3852
 291	1	2	0.02746	13.0258	76.5213	57.0696
 292	1	3	-0.077297	11.8759	75.8894	56.2794
 293	1	2	-0.08585	14.3301	76.5975	56.5173
 294	1	2	-0.195578	15.3832	77.1445	57.2756
 295	1	4	0.171692	16.3886	77.1883	56.8601
 296	1	2	-0.199822	15.1645	77.6	58.5814
 297	1	4	0.149498	15.9909	77.9991	59.1636
 298	1	2	0.076729	13.8834	77.5241	59.1421
 299	1	2	-0.057821	15.7588	74.9866	53.5459
 300	1	2	-0.076852	16.671	74.2272	52.8066
 301	1	4	0.145382	17.3601	73.5922	53.3524
 302	1	2	-0.023498	16.6903	74.3556	51.3929
 303	1	4	0.166076	14.1771	76.7272	51.0895
 304	1	2	-0.140684	14.8562	76.0164	51.5566
 305	1	2	-0.058922	14.8849	75.8678	52.9475
 306	1	3	-0.101954	17.7446	73.6357	50.4984
 307	1	2	-0.067123	15.7621	75.252	50.7898
 308	1	4	0.142141	15.7641	75.3833	49.7104
 309	1	3	0.321219	18.7911	74.7449	50.0891
 310	1	3	0.382784	18.4964	72.4595	51.2326
 311	1	5	-0.111948	18.2817	75.6002	49.1739
 312	1	5	-0.11115	19.9368	74.2499	49.5693
 313	1	5	-0.103632	19.1569	75.4973	51.1524
 314	1	5	-0.110272	17.6249	71.5919	51.7962
 315	1	5	-0.120305	19.3349	72.8875	52.2035
 316	1	5	-0.123663	19.2469	71.7265	50.3785
 317	1	6	0.452517	14.1481	76.5922	54.022
 318	1	6	0.453374	15.6024	75.1	55.0165
 319	1	7	0.018948	14.6482	76.0903	55.221
 320	1	8	-0.46698	13.3382	77.4892	53.8594
 321	1	8	-0.469385	16.2489	74.4903	55.8517
 322	1	3	-0.126657	13.6613	77.9887	60.585
 323	1	2	0.020988	15.1604	71.6998	48.398
 324	1	6	0.027902	13.8797	70.9513	48.3339
 325	1	8	-0.378193	13.0636	70.8355	49.2335
 326	1	2	0.043573	15.7954	71.5793	47.1794
 327	1	6	0.038038	14.9656	70.7312	46.2908
 328	1	7	0.4913	13.8413	70.4062	47.0503
 329	1	8	-0.382817	15.2651	70.3527	45.1698
 330	1	2	0.0054	15.7518	72.3781	49.469
 331	1	2	-0.040988	17.0458	72.1548	46.9522
 332	1	2	-0.085341	17.0234	72.9831	49.2843
 333	1	4	0.154391	15.241	72.398	50.4286
 334	1	2	-0.205992	17.6517	72.8595	48.0117
 335	1	4	0.156637	17.5413	72.0327	45.9914
 336	1	4	0.178085	18.6394	73.2702	47.8316
 337	1	10	0.05178	11.3652	76.6434	55.6678
 338	1	10	0.015669	11.1269	75.431	56.9362
 339	1	10	0.036134	12.2238	75.0923	55.6119
 340	1	11	0.101096	14.2196	77.3311	61.2619
 341	1	1	-0.196269	12.2273	77.9743	60.9546
 342	1	11	0.131285	14.0657	79.003	60.6933
 343	1	3	-0.292673	11.5709	76.7502	60.459
 344	1	3	-0.034798	10.5895	78.0488	58.6509
 345	1	12	0.194395	10.554	76.6611	60.8652
 346	1	12	0.183693	12.1552	75.8558	60.7139
 347	1	2	-0.144532	11.5996	80.2481	61.6655
 348	1	2	0.128587	11.5076	79.1587	60.7646
 349	1	2	0.222203	10.8424	81.4173	61.4106
 350	1	2	0.041795	10.6793	79.2374	59.62
 351	1	2	-0.461017	10.0216	81.4873	60.2626
 352	1	2	-0.140506	9.94111	80.4045	59.3721
 353	1	4	0.148448	9.30632	80.4648	58.4902
 354	1	10	0.055442	11.8883	80.3381	63.8301
 355	1	10	0.090839	12.9766	79.2073	63.0497
 356	1	3	-0.16304	12.4811	80.1763	62.921
 357	1	10	0.039719	13.2688	80.9399	62.8908
 358	1	11	0.077452	9.56874	77.6479	58.6723
 359	1	11	0.09063	10.7845	78.4073	57.632
 360	1	4	0.230266	9.44257	82.3874	60.0645
 361	1	1	-0.247122	9.06015	67.1923	44.0316
 362	1	2	0.139112	7.82035	67.752	44.3656
 363	1	2	0.02746	6.66858	66.9631	44.6065
 364	1	3	-0.077297	6.73272	65.434	44.5073
 365	1	2	-0.08585	5.44132	67.612	44.8941
 366	1	2	-0.195578	5.3847	69.0149	44.9823
 367	1	4	0.171692	4.44407	69.5096	45.2179
 368	1	2	-0.199822	6.53135	69.7876	44.7554
 369	1	4	0.149498	6.47644	70.8712	44.8148
 370	1	2	0.076729	7.74509	69.1631	44.4355
 371	1	2	-0.057821	2.40259	65.5653	44.6441
 372	1	2	-0.076852	1.43147	64.7369	44.0743
 373	1	4	0.145382	1.52504	64.4488	43.0294
 374	1	2	-0.023498	0.351383	64.2839	44.8744
 375	1	4	0.166076	1.23177	65.8784	47.8228
 376	1	2	-0.140684	1.27947	65.5544	46.7849
 377	1	2	-0.058922	2.33678	65.9581	45.9635
 378	1	3	-0.101954	-0.710242	63.353	44.2215
 379	1	2	-0.067123	0.285671	64.7213	46.2291
 380	1	4	0.142141	-0.531769	64.4234	46.8761
 381	1	3	0.321219	-1.62387	62.5962	45.2606
 382	1	3	0.382784	-1.61439	64.2787	43.3181
 383	1	5	-0.111948	-2.35894	61.6297	44.6648
 384	1	5	-0.11115	-2.4982	63.4098	45.8945
 385	1	5	-0.103632	-0.894938	61.9743	46.215
 386	1	5	-0.110272	-2.05143	65.3623	43.9998
 387	1	5	-0.120305	-2.71564	63.6545	42.8425
 388	1	5	-0.123663	-0.939486	64.7577	42.2485
 389	1	6	0.452517	3.51782	66.8161	46.2526
 390	1	6	0.453374	3.61919	66.1631	44.0391
 391	1	7	0.018948	4.23198	66.8782	45.0616
 392	1	8	-0.46698	3.77682	67.3541	47.3157
 393	1	8	-0.469385	3.97936	66.0433	42.8802
 394	1	3	-0.126657	8.98655	70.0165	44.1532
 395	1	2	0.020988	1.83573	60.5921	43.3784
 396	1	6	0.027902	2.95907	59.7278	43.8232
 397	1	8	-0.378193	3.5179	59.7699	44.9071
 398	1	2	0.043573	1.45734	60.2016	42.1116
 399	1	6	0.038038	2.3156	59.07	41.6882
 400	1	7	0.4913	3.1769	58.8457	42.7642
 401	1	8	-0.382817	2.20805	58.4347	40.6512
 402	1	2	0.0054	1.15625	61.6034	44.0633
 403	1	2	-0.040988	0.379945	60.8013	41.4573
 404	1	2	-0.085341	0.0592595	62.2518	43.4347
 405	1	4	0.154391	1.47205	61.8625	45.0707
 406	1	2	-0.205992	-0.316972	61.8274	42.1282
 407	1	4	0.156637	0.0827129	60.4641	40.4666
 408	1	4	0.178085	-1.16444	62.2678	41.6137
 409	1	10	0.05178	6.49491	65.1035	43.4887
 410	1	10	0.015669	6.02833	64.948	45.1932
 411	1	10	0.036134	7.72087	65.0336	44.7553
 412	1	11	0.101096	8.80175	70.6318	43.2645
 413	1	1	-0.196269	10.1989	69.1903	43.9357
 414	1	11	0.131285	9.14297	70.6925	45.003
 415	1	3	-0.292673	9.88305	68.0063	43.1144
 416	1	3	-0.034798	9.88572	66.6513	45.1387
 417	1	12	0.194395	10.801	67.4764	42.8249
 418	1	12	0.183693	9.31491	68.286	42.2169
 419	1	2	-0.144532	11.9712	69.8829	45.5066
 420	1	2	0.128587	11.0227	68.9392	45.0394
 421	1	2	0.222203	12.8091	69.5317	46.5962
 422	1	2	0.041795	10.8935	67.6781	45.6674
 423	1	2	-0.461017	12.6481	68.2789	47.2295
 424	1	2	-0.140506	11.6949	67.3588	46.7716
 425	1	4	0.148448	11.5848	66.3922	47.2597
 426	1	10	0.055442	12.9659	71.2169	44.0974
 427	1	10	0.090839	11.2458	71.5492	44.2519
 428	1	3	-0.16304	12.1348	71.2435	44.8135
 429	1	10	0.039719	12.3345	72.0464	45.5338
 430	1	11	0.077452	10.429	65.7659	44.7867
 431	1	11	0.09063	9.24153	66.3378	45.97
 432	1	4	0.230266	13.2735	68.0194	48.0825
 433	1	1	-0.247122	6.77633	53.7696	41.3171
 434	1	2	0.139112	5.89026	53.4008	40.2856
 435	1	2	0.02746	5.28855	52.118	40.2212
 436	1	3	-0.077297	5.7009	51.0062	41.1901
 437	1	2	-0.08585	4.29282	51.8708	39.2444
 438	1	2	-0.195578	3.95394	52.8631	38.3081
 439	1	4	0.171692	3.19148	52.6686	37.556
 440	1	2	-0.199822	4.57333	54.1176	38.3513
 441	1	4	0.149498	4.28788	54.8884	37.6403
 442	1	2	0.076729	5.52195	54.3953	39.3449
 443	1	2	-0.057821	1.99083	49.0493	39.7073
 444	1	2	-0.076852	0.946743	48.2959	40.2591
 445	1	4	0.145382	0.49448	48.6409	41.183
 446	1	2	-0.023498	0.510075	47.1268	39.5813
 447	1	4	0.166076	2.65885	47.3011	36.8649
 448	1	2	-0.140684	2.18872	47.5621	37.811
 449	1	2	-0.058922	2.59503	48.6967	38.5185
 450	1	3	-0.101954	-0.661019	46.2392	40.0975
 451	1	2	-0.067123	1.14342	46.7865	38.3519
 452	1	4	0.142141	0.815554	45.9092	37.7998
 453	1	3	0.321219	-0.977284	46.4341	41.6305
 454	1	3	0.382784	-1.92657	46.6493	39.2509
 455	1	5	-0.111948	-1.81029	45.4727	42.0907
 456	1	5	-0.11115	-1.56872	47.6171	41.9103
 457	1	5	-0.103632	0.1398	46.3569	42.3889
 458	1	5	-0.110272	-3.07887	46.121	39.721
 459	1	5	-0.120305	-1.80991	46.2637	37.9599
 460	1	5	-0.123663	-2.09883	47.9906	39.2281
 461	1	6	0.452517	3.61675	49.7269	38.1876
 462	1	6	0.453374	2.60888	50.315	40.1816
 463	1	7	0.018948	3.55423	50.6541	39.2199
 464	1	8	-0.46698	4.31139	49.7597	37.1862
 465	1	8	-0.469385	2.30584	50.9295	41.1904
 466	1	3	-0.126657	6.10649	55.8045	39.449
 467	1	2	0.020988	-0.67538	42.4289	39.3397
 468	1	6	0.027902	-1.3789	41.2046	38.8739
 469	1	8	-0.378193	-2.52975	41.1377	38.4745
 470	1	2	0.043573	0.604758	42.0772	39.7165
 471	1	6	0.038038	0.779207	40.6203	39.5093
 472	1	7	0.4913	-0.442818	40.1781	39.0064
 473	1	8	-0.382817	1.786	39.9715	39.7432
 474	1	2	0.0054	-1.13405	43.7479	39.4383
 475	1	2	-0.040988	1.50113	43.0206	40.2193
 476	1	2	-0.085341	-0.248333	44.7474	39.927
 477	1	4	0.154391	-2.15599	43.959	39.1426
 478	1	2	-0.205992	1.06111	44.3546	40.3237
 479	1	4	0.156637	2.50196	42.7232	40.5251
 480	1	4	0.178085	1.75205	45.0927	40.7263
 481	1	10	0.05178	6.71566	51.1552	41.5786
 482	1	10	0.015669	5.69955	50.0244	40.7008
 483	1	10	0.036134	5.017	50.9561	42.046
 484	1	11	0.101096	6.8709	55.9407	38.6748
 485	1	1	-0.196269	6.69664	56.0152	40.7879
 486	1	11	0.131285	5.30568	56.5292	39.2639
 487	1	3	-0.292673	7.65991	54.9243	41.0451
 488	1	3	-0.034798	6.19115	53.9422	42.6642
 489	1	12	0.194395	8.29097	55.1615	41.9122
 490	1	12	0.183693	8.29267	54.735	40.1676
 491	1	2	-0.144532	5.09959	57.5568	41.8731
 492	1	2	0.128587	5.79981	56.3243	41.8275
 493	1	2	0.222203	4.06033	57.726	42.8232
 494	1	2	0.041795	5.51044	55.3086	42.7725
 495	1	2	-0.461017	3.8166	56.7178	43.7817
 496	1	2	-0.140506	4.5468	55.5222	43.7669
 497	1	4	0.148448	4.32745	54.7368	44.4875
 498	1	10	0.055442	6.48901	58.6318	40.5582
 499	1	10	0.090839	4.80441	58.6721	40.013
 500	1	3	-0.16304	5.44854	58.6923	40.9012
 501	1	10	0.039719	5.33903	59.677	41.3724
 502	1	11	0.077452	6.97599	53.8652	43.4266
 503	1	11	0.09063	5.44987	53.1598	42.8652
 504	1	4	0.230266	3.03153	56.8538	44.5242
 505	1	1	-0.247122	-1.30203	34.2631	36.4676
 506	1	2	0.139112	-2.62544	34.1627	36.0212
 507	1	2	0.02746	-3.42231	33.0161	36.262
 508	1	3	-0.077297	-2.85746	31.7919	36.9947
 509	1	2	-0.08585	-4.76296	33.0041	35.8056
 510	1	2	-0.195578	-5.29084	34.1159	35.1243
 511	1	4	0.171692	-6.3274	34.11	34.7923
 512	1	2	-0.199822	-4.49556	35.2468	34.8881
 513	1	4	0.149498	-4.91391	36.1063	34.3709
 514	1	2	0.076729	-3.16739	35.2787	35.3393
 515	1	2	-0.057821	-6.4954	29.7829	36.1802
 516	1	2	-0.076852	-6.74536	28.4109	36.0494
 517	1	4	0.145382	-6.15152	27.845	35.3393
 518	1	2	-0.023498	-7.74332	27.8141	36.8653
 519	1	4	0.166076	-8.69089	30.6384	38.6383
 520	1	2	-0.140684	-8.16688	30.0176	37.9139
 521	1	2	-0.058922	-7.17953	30.5626	37.0892
 522	1	3	-0.101954	-8.0664	26.2918	36.8313
 523	1	2	-0.067123	-8.43941	28.641	37.7923
 524	1	4	0.142141	-9.1977	28.2079	38.4399
 525	1	3	0.321219	-7.54322	25.559	35.5378
 526	1	3	0.382784	-7.36355	25.6697	38.1007
 527	1	5	-0.111948	-8.04597	24.307	35.4386
 528	1	5	-0.11115	-6.19728	25.4356	35.5026
 529	1	5	-0.103632	-7.91915	26.2038	34.4101
 530	1	5	-0.110272	-6.07534	26.0694	38.2031
 531	1	5	-0.120305	-7.34518	24.3178	38.0983
 532	1	5	-0.123663	-7.96919	26.0535	39.2476
 533	1	6	0.452517	-6.63021	31.9423	37.03
 534	1	6	0.453374	-5.49225	30.6423	35.4967
 535	1	7	0.018948	-5.61865	31.8989	36.0793
 536	1	8	-0.46698	-6.97957	32.8865	37.7175
 537	1	8	-0.469385	-4.70539	30.2854	34.6365
 538	1	3	-0.126657	-2.31153	36.5332	35.1122
 539	1	2	0.020988	-11.6682	25.0317	37.511
 540	1	6	0.027902	-12.5867	24.0845	38.1849
 541	1	8	-0.378193	-12.2648	23.1811	38.9394
 542	1	2	0.043573	-12.4165	25.8817	36.723
 543	1	6	0.038038	-13.8503	25.5208	36.8636
 544	1	7	0.4913	-13.8626	24.4482	37.754
 545	1	8	-0.382817	-14.7929	26.058	36.3052
 546	1	2	0.0054	-10.2752	25.1204	37.5825
 547	1	2	-0.040988	-11.807	26.868	35.9454
 548	1	2	-0.085341	-9.61398	26.1256	36.829
 549	1	4	0.154391	-9.74841	24.4099	38.21
 550	1	2	-0.205992	-10.4019	26.9764	36.0019
 551	1	4	0.156637	-12.4058	27.5205	35.3135
 552	1	4	0.178085	-9.92012	27.733	35.3858
 553	1	10	0.05178	-2.7152	30.9566	36.2986
 554	1	10	0.015669	-3.53394	31.4574	37.791
 555	1	10	0.036134	-1.88543	31.9718	37.4644
 556	1	11	0.101096	-2.14228	36.6618	34.0366
 557	1	1	-0.196269	-1.00719	36.4469	35.812
 558	1	11	0.131285	-2.86744	37.4092	35.4706
 559	1	3	-0.292673	-0.417924	35.1062	35.6396
 560	1	3	-0.034798	-1.09899	34.5485	37.9078
 561	1	12	0.194395	0.615843	35.0828	36.0103
 562	1	12	0.183693	-0.444655	34.7926	34.5872
 563	1	2	-0.144532	-0.773296	38.3559	37.3593
 564	1	2	0.128587	-0.930166	36.9699	37.1098
 565	1	2	0.222203	-0.692309	38.8079	38.701
 566	1	2	0.041795	-0.989838	36.0508	38.1838
 567	1	2	-0.461017	-0.780399	37.8793	39.762
 568	1	2	-0.140506	-0.927422	36.5091	39.5063
 569	1	4	0.148448	-0.972594	35.7983	40.3292
 570	1	10	0.055442	0.145372	40.0908	36.3826
 571	1	10	0.090839	-0.393448	38.8668	35.2498
 572	1	3	-0.16304	-0.645751	39.3532	36.2
 573	1	10	0.039719	-1.58658	39.8978	36.0497
 574	1	11	0.077452	-0.181615	34.055	38.2512
 575	1	11	0.09063	-1.93443	34.1456	38.4944
 576	1	4	0.230266	-0.697076	38.2236	40.7915
 577	1	1	-0.247122	-18.4374	21.1258	40.8338
 578	1	2	0.139112	-17.6086	20.144	41.4026
 579	1	2	0.02746	-17.9072	18.7592	41.3343
 580	1	3	-0.077297	-19.2014	18.2511	40.6866
 581	1	2	-0.08585	-16.996	17.8302	41.8959
 582	1	2	-0.195578	-15.8064	18.2761	42.4988
 583	1	4	0.171692	-15.1029	17.559	42.9177
 584	1	2	-0.199822	-15.5191	19.6452	42.5704
 585	1	4	0.149498	-14.5984	19.9832	43.0389
 586	1	2	0.076729	-16.4157	20.579	42.0317
 587	1	2	-0.057821	-18.1848	14.3913	42.3735
 588	1	2	-0.076852	-18.9443	13.3389	42.8915
 589	1	4	0.145382	-19.7079	13.5738	43.6245
 590	1	2	-0.023498	-18.662	12.0118	42.475
 591	1	4	0.166076	-16.0247	12.7284	40.3388
 592	1	2	-0.140684	-16.845	12.8897	41.0358
 593	1	2	-0.058922	-17.1737	14.1815	41.461
 594	1	3	-0.101954	-19.4106	10.791	43.0853
 595	1	2	-0.067123	-17.5861	11.8102	41.5634
 596	1	4	0.142141	-17.3084	10.8017	41.2676
 597	1	3	0.321219	-18.5697	10.3724	44.3517
 598	1	3	0.382784	-20.8886	11.1297	43.522
 599	1	5	-0.111948	-18.2641	11.4338	45.1325
 600	1	5	-0.11115	-17.3894	9.81737	43.9934
 601	1	5	-0.103632	-19.2104	9.49124	45.1524
 602	1	5	-0.110272	-21.6098	10.0085	43.7537
 603	1	5	-0.120305	-21.5437	11.8125	42.5554
 604	1	5	-0.123663	-20.9682	11.8632	44.6548
 605	1	6	0.452517	-16.568	15.5013	41.1308
 606	1	6	0.453374	-18.2468	15.8417	42.68
 607	1	7	0.018948	-17.2671	16.4321	41.8921
 608	1	8	-0.46698	-15.6468	15.6991	40.3572
 609	1	8	-0.469385	-18.9971	16.376	43.4788
 610	1	3	-0.126657	-16.0845	22.0726	42.1077
 611	1	2	0.020988	-19.5939	7.31387	41.3859
 612	1	6	0.027902	-19.5415	5.84125	41.5123
 613	1	8	-0.378193	-19.2753	5.21555	42.5256
 614	1	2	0.043573	-19.9586	7.63461	40.0957
 615	1	6	0.038038	-20.1483	6.36927	39.3322
 616	1	7	0.4913	-19.8813	5.35372	40.2517
 617	1	8	-0.382817	-20.4819	6.26784	38.163
 618	1	2	0.0054	-19.3773	8.28644	42.3632
 619	1	2	-0.040988	-20.1331	8.96842	39.714
 620	1	2	-0.085341	-19.5361	9.65525	42.0229
 621	1	4	0.154391	-19.1211	7.9493	43.3607
 622	1	2	-0.205992	-19.9279	9.97079	40.6898
 623	1	4	0.156637	-20.4426	9.21396	38.7003
 624	1	4	0.178085	-20.0958	11.0086	40.4077
 625	1	10	0.05178	-18.9901	17.4685	39.9477
 626	1	10	0.015669	-19.7693	19.0308	40.1694
 627	1	10	0.036134	-19.8759	17.8301	41.441
 628	1	11	0.101096	-16.1939	22.4137	43.144
 629	1	1	-0.196269	-16.9738	22.8599	41.2253
 630	1	11	0.131285	-15.037	22.2158	41.8149
 631	1	3	-0.292673	-18.3759	22.4627	41.4584
 632	1	3	-0.034798	-18.3984	21.2683	39.3604
 633	1	12	0.194395	-19.0671	23.1638	40.9716
 634	1	12	0.183693	-18.5999	22.4042	42.5322
 635	1	2	-0.144532	-15.4856	23.7925	39.4984
 636	1	2	0.128587	-16.5787	22.98	39.8846
 637	1	2	0.222203	-15.0431	23.7569	38.1525
 638	1	2	0.041795	-17.2534	22.1867	38.9262
 639	1	2	-0.461017	-15.7419	22.9792	37.2028
 640	1	2	-0.140506	-16.8477	22.2063	37.5846
 641	1	4	0.148448	-17.3695	21.5946	36.8512
 642	1	10	0.055442	-14.4669	25.648	40.0777
 643	1	10	0.090839	-15.447	24.9612	41.3583