pySIMM System Object

1226 atoms
1361 bonds
2448 angles
3770 dihedrals
340 impropers

12 atom types
15 bond types
28 angle types
9 dihedral types
4 improper types

-166.011610 166.011610 xlo xhi
-166.011610 166.011610 ylo yhi
-166.011610 166.011610 zlo zhi

Masses

   1	14.01	# nh
   2	12.01	# ca
   3	12.01	# c3
   4	1.008	# ha
   5	19.0	# f
   6	12.01	# c
   7	14.01	# n
   8	16.0	# o
   9	1.008	# hn
  10	1.008	# hc
  11	1.008	# h1
  12	1.008	# h2

Pair Coeffs

   1	0.17	3.249998523775958	# nh
   2	0.086	3.3996695084235347	# ca
   3	0.1094	3.3996695084235347	# c3
   4	0.015	2.59964245953351	# ha
   5	0.061	3.1181455134911875	# f
   6	0.086	3.3996695084235347	# c
   7	0.17	3.249998523775958	# n
   8	0.21	2.959921901149463	# o
   9	0.0157	1.069078461768407	# hn
  10	0.0157	2.649532787749369	# hc
  11	0.0157	2.471353044121301	# h1
  12	0.0157	2.2931733004932333	# h2

Bond Coeffs

   1	356.9	1.3497	# c3,f
   2	403.2	1.0129	# hn,n
   3	417.9	1.3859	# ca,nh
   4	300.9	1.5375	# c3,c3
   5	384.2	1.4121	# ca,n
   6	330.6	1.0969	# c3,h1
   7	461.1	1.3984	# ca,ca
   8	326.6	1.464	# c3,nh
   9	427.6	1.3789	# c,n
  10	331.7	1.0961	# c3,h2
  11	345.9	1.4906	# c,ca
  12	345.8	1.086	# ca,ha
  13	321.0	1.5156	# c3,ca
  14	330.6	1.0969	# c3,hc
  15	637.7	1.2183	# c,o

Angle Coeffs

   1	71.11	105.87	# nh,c3,nh
   2	63.25	114.51	# c3,nh,c3
   3	74.22	123.05	# n,c,o
   4	66.62	120.02	# ca,ca,ca
   5	68.29	120.95	# ca,ca,nh
   6	49.52	110.01	# h2,c3,nh
   7	68.72	122.6	# ca,c,o
   8	49.57	109.79	# h1,c3,nh
   9	67.68	115.25	# ca,c,n
  10	66.46	111.39	# ca,c3,nh
  11	48.33	117.55	# c,n,hn
  12	64.28	120.33	# c,ca,ca
  13	39.4	107.58	# hc,c3,hc
  14	63.53	120.77	# c3,ca,ca
  15	70.89	107.36	# f,c3,f
  16	67.87	120.19	# ca,ca,n
  17	46.8	110.47	# ca,c3,hc
  18	46.99	109.56	# ca,c3,h1
  19	62.86	111.51	# c3,c3,c3
  20	66.11	109.24	# c3,c3,f
  21	63.15	112.07	# c3,c3,ca
  22	38.96	110.2	# h2,c3,h2
  23	63.82	123.71	# c,n,ca
  24	39.24	108.46	# h1,c3,h1
  25	63.56	112.24	# ca,c3,ca
  26	63.39	119.98	# c3,nh,ca
  27	63.74	127.08	# c,n,c
  28	48.18	119.88	# ca,ca,ha

Dihedral Coeffs

   1	2	2.5	2	180	2.0	1	0	# hn,n,c,o
   2	1	0.0	2	0	# X,c3,nh,X
   3	1	3.625	2	180	# X,ca,ca,X
   4	1	0.0	2	0	# X,c3,ca,X
   5	1	1.0	2	180	# X,c,ca,X
   6	1	0.15555555555555556	3	0	# X,c3,c3,X
   7	1	2.5	2	180	# X,c,n,X
   8	1	0.45	2	180	# X,ca,n,X
   9	1	1.05	2	180	# X,ca,nh,X

Improper Coeffs

   1	10.5	-1	2	# c,X,X,o
   2	1.1	-1	2	# n,X,X,hn
   3	1.1	-1	2	# ca,ca,ca,c3
   4	1.1	-1	2	# ca,X,X,ha

Atoms

   1	1	1	-0.247122	93.2398	-49.8902	0.564725
   2	1	2	0.139112	93.2799	-49.8138	-0.835669
   3	1	2	0.02746	92.1089	-49.7396	-1.63089
   4	1	3	-0.077297	90.7129	-49.7647	-0.999327
   5	1	2	-0.08585	92.239	-49.672	-3.03938
   6	1	2	-0.195578	93.51	-49.6666	-3.63856
   7	1	4	0.171692	93.603	-49.6226	-4.72182
   8	1	2	-0.199822	94.6643	-49.7396	-2.8482
   9	1	4	0.149498	95.6445	-49.7446	-3.31724
  10	1	2	0.076729	94.555	-49.8214	-1.45251
  11	1	2	-0.057821	89.333	-50.3916	-5.1555
  12	1	2	-0.076852	88.341	-51.1561	-5.78091
  13	1	4	0.145382	88.4401	-52.2363	-5.76409
  14	1	2	-0.023498	87.221	-50.4937	-6.34841
  15	1	4	0.166076	88.1672	-47.2316	-5.64545
  16	1	2	-0.140684	88.2162	-48.3177	-5.69871
  17	1	2	-0.058922	89.2656	-49.0153	-5.09401
  18	1	3	-0.101954	85.976	-51.254	-6.9003
  19	1	2	-0.067123	87.2056	-49.0686	-6.3329
  20	1	4	0.142141	86.3632	-48.5338	-6.76469
  21	1	3	0.321219	86.0252	-51.1277	-8.47069
  22	1	3	0.382784	85.9318	-52.778	-6.49847
  23	1	5	-0.111948	85.7619	-49.8664	-8.87992
  24	1	5	-0.11115	85.1473	-51.9366	-9.10508
  25	1	5	-0.103632	87.2501	-51.4385	-8.95211
  26	1	5	-0.110272	86.0882	-52.9499	-5.16567
  27	1	5	-0.120305	86.8807	-53.5162	-7.11713
  28	1	5	-0.123663	84.741	-53.3425	-6.80373
  29	1	6	0.452517	90.4087	-48.5269	-4.27435
  30	1	6	0.453374	90.5281	-50.8314	-4.39157
  31	1	7	0.018948	91.0968	-49.6697	-3.88646
  32	1	8	-0.46698	90.6298	-47.3698	-3.96094
  33	1	8	-0.469385	90.8785	-51.9838	-4.20424
  34	1	3	-0.126657	95.8244	-49.9247	-0.599911
  35	1	2	0.020988	82.4183	-49.8197	-6.30103
  36	1	6	0.027902	81.038	-49.5311	-6.77323
  37	1	8	-0.378193	80.5714	-49.8077	-7.86584
  38	1	2	0.043573	82.5295	-49.3726	-4.9999
  39	1	6	0.038038	81.2504	-48.7523	-4.59306
  40	1	7	0.4913	80.41	-48.9094	-5.69345
  41	1	8	-0.382817	81.0156	-48.2213	-3.51953
  42	1	2	0.0054	83.4905	-50.4354	-6.95959
  43	1	2	-0.040988	83.6948	-49.5586	-4.26004
  44	1	2	-0.085341	84.7155	-50.6038	-6.25823
  45	1	4	0.154391	83.3506	-50.7658	-7.98355
  46	1	2	-0.205992	84.7761	-50.1955	-4.89448
  47	1	4	0.156637	83.7513	-49.2269	-3.2255
  48	1	4	0.178085	85.68	-50.359	-4.31162
  49	1	10	0.05178	90.0752	-50.5181	-1.47738
  50	1	10	0.015669	90.2207	-48.7898	-1.10527
  51	1	10	0.036134	90.7292	-50.0094	0.0687957
  52	1	11	0.101096	96.3132	-50.8861	-0.797072
  53	1	1	-0.196269	95.522	-49.8099	0.844201
  54	1	11	0.131285	96.5153	-49.1283	-0.901979
  55	1	3	-0.292673	94.3501	-50.6377	1.18791
  56	1	3	-0.034798	92.983	-48.6363	1.31268
  57	1	12	0.194395	94.225	-50.7035	2.27717
  58	1	12	0.183693	94.4362	-51.6459	0.760773
  59	1	2	-0.144532	96.7395	-47.8412	1.68179
  60	1	2	0.128587	95.5336	-48.5229	1.39726
  61	1	2	0.222203	96.6801	-46.5394	2.21103
  62	1	2	0.041795	94.2866	-47.8979	1.64231
  63	1	2	-0.461017	95.4441	-45.9217	2.45714
  64	1	2	-0.140506	94.2459	-46.5984	2.17428
  65	1	4	0.148448	93.2876	-46.1175	2.35998
  66	1	10	0.055442	98.8734	-48.0494	2.09328
  67	1	10	0.090839	98.0823	-49.5636	1.64874
  68	1	3	-0.16304	98.1041	-48.4856	1.44324
  69	1	10	0.039719	98.4282	-48.3449	0.404603
  70	1	11	0.077452	92.4593	-48.8703	2.24751
  71	1	11	0.09063	92.3373	-47.9728	0.72407
  72	1	4	0.230266	95.4247	-44.9148	2.86536
  73	1	1	-0.247122	74.1806	-47.5748	-4.46233
  74	1	2	0.139112	73.3266	-48.5374	-5.01221
  75	1	2	0.02746	72.0565	-48.2095	-5.54497
  76	1	3	-0.077297	71.5606	-46.7592	-5.55589
  77	1	2	-0.08585	71.2232	-49.2525	-6.01964
  78	1	2	-0.195578	71.6776	-50.5844	-6.0069
  79	1	4	0.171692	71.0314	-51.385	-6.36208
  80	1	2	-0.199822	72.9392	-50.8996	-5.48481
  81	1	4	0.149498	73.2701	-51.9342	-5.44837
  82	1	2	0.076729	73.7533	-49.8848	-4.96339
  83	1	2	-0.057821	67.5805	-48.9506	-6.37994
  84	1	2	-0.076852	66.2196	-49.1408	-6.10136
  85	1	4	0.145382	65.9302	-49.7338	-5.23646
  86	1	2	-0.023498	65.2488	-48.5989	-6.98446
  87	1	4	0.166076	67.4324	-47.129	-9.24677
  88	1	2	-0.140684	67.0882	-47.6752	-8.37044
  89	1	2	-0.058922	68.0048	-48.2525	-7.49057
  90	1	3	-0.101954	63.7451	-48.9709	-6.77809
  91	1	2	-0.067123	65.7151	-47.8535	-8.10943
  92	1	4	0.142141	65.0299	-47.4237	-8.82934
  93	1	3	0.321219	62.7687	-48.1357	-7.692
  94	1	3	0.382784	63.6418	-50.501	-7.17086
  95	1	5	-0.111948	62.9709	-46.8079	-7.53399
  96	1	5	-0.11115	61.4671	-48.3487	-7.39271
  97	1	5	-0.103632	62.8975	-48.4247	-9.0072
  98	1	5	-0.110272	64.139	-51.2994	-6.199
  99	1	5	-0.120305	64.347	-50.7774	-8.29242
 100	1	5	-0.123663	62.3832	-50.9278	-7.41758
 101	1	6	0.452517	69.4917	-48.2874	-7.53502
 102	1	6	0.453374	68.7855	-49.4436	-5.66405
 103	1	7	0.018948	69.8754	-49.0045	-6.4085
 104	1	8	-0.46698	70.2001	-47.799	-8.39939
 105	1	8	-0.469385	68.7923	-50.1019	-4.63771
 106	1	3	-0.126657	75.0858	-50.246	-4.29959
 107	1	2	0.020988	63.4077	-47.4273	-3.2267
 108	1	6	0.027902	63.8798	-46.4952	-2.15975
 109	1	8	-0.378193	64.8406	-45.7464	-2.22511
 110	1	2	0.043573	62.3263	-48.1245	-2.72706
 111	1	6	0.038038	62.0478	-47.6704	-1.34714
 112	1	7	0.4913	63.033	-46.7263	-1.07023
 113	1	8	-0.382817	61.182	-48.1079	-0.606156
 114	1	2	0.0054	63.9044	-47.6795	-4.51785
 115	1	2	-0.040988	61.6914	-49.118	-3.4676
 116	1	2	-0.085341	63.2958	-48.6976	-5.30738
 117	1	4	0.154391	64.7398	-47.0908	-4.88714
 118	1	2	-0.205992	62.1846	-49.3974	-4.75448
 119	1	4	0.156637	60.8411	-49.6553	-3.05276
 120	1	4	0.178085	61.6578	-50.1542	-5.32453
 121	1	10	0.05178	72.1524	-46.0994	-4.91152
 122	1	10	0.015669	70.5244	-46.6855	-5.2045
 123	1	10	0.036134	71.6037	-46.3442	-6.57056
 124	1	11	0.101096	74.8872	-50.8788	-3.42631
 125	1	1	-0.196269	75.8433	-49.0459	-3.87016
 126	1	11	0.131285	75.6823	-50.832	-5.0096
 127	1	3	-0.292673	74.947	-48.0315	-3.28689
 128	1	3	-0.034798	75.0395	-46.8064	-5.39667
 129	1	12	0.194395	75.5232	-47.2089	-2.84147
 130	1	12	0.183693	74.2853	-48.4751	-2.53056
 131	1	2	-0.144532	78.1035	-49.0905	-4.8315
 132	1	2	0.128587	76.8026	-48.5409	-4.7519
 133	1	2	0.222203	79.0512	-48.4806	-5.69194
 134	1	2	0.041795	76.438	-47.4234	-5.53849
 135	1	2	-0.461017	78.6658	-47.3888	-6.50206
 136	1	2	-0.140506	77.3661	-46.8643	-6.42873
 137	1	4	0.148448	77.0829	-46.0096	-7.03993
 138	1	10	0.055442	77.6625	-50.9537	-3.73945
 139	1	10	0.090839	79.2872	-50.8978	-4.37881
 140	1	3	-0.16304	78.4999	-50.2761	-3.9362
 141	1	10	0.039719	78.8608	-49.9195	-2.96308
 142	1	11	0.077452	75.1413	-45.7777	-5.02974
 143	1	11	0.09063	74.5694	-46.7606	-6.3874
 144	1	4	0.230266	79.389	-46.9342	-7.1774
 145	1	1	-0.247122	63.3093	-43.6306	4.64712
 146	1	2	0.139112	64.4366	-42.7969	4.62686
 147	1	2	0.02746	65.3562	-42.7329	5.70521
 148	1	3	-0.077297	65.1314	-43.5576	6.97583
 149	1	2	-0.08585	66.4936	-41.8986	5.58606
 150	1	2	-0.195578	66.6777	-41.1134	4.43356
 151	1	4	0.171692	67.5453	-40.4612	4.35206
 152	1	2	-0.199822	65.7629	-41.176	3.37441
 153	1	4	0.149498	65.9241	-40.5775	2.48174
 154	1	2	0.076729	64.655	-42.0306	3.45608
 155	1	2	-0.057821	68.7958	-40.9522	8.26326
 156	1	2	-0.076852	69.3361	-40.1281	9.25151
 157	1	4	0.145382	68.6595	-39.4259	9.72302
 158	1	2	-0.023498	70.7275	-40.1988	9.54457
 159	1	4	0.166076	71.5356	-42.7216	7.30704
 160	1	2	-0.140684	70.928	-42.0123	7.86537
 161	1	2	-0.058922	69.5653	-41.8667	7.58107
 162	1	3	-0.101954	71.403	-39.1981	10.535
 163	1	2	-0.067123	71.4995	-41.1697	8.84453
 164	1	4	0.142141	72.566	-41.2569	9.02557
 165	1	3	0.321219	72.1974	-39.9991	11.6511
 166	1	3	0.382784	72.4198	-38.2868	9.72761
 167	1	5	-0.111948	71.4749	-41.0342	12.1364
 168	1	5	-0.11115	72.5366	-39.1994	12.6877
 169	1	5	-0.103632	73.3464	-40.5771	11.2398
 170	1	5	-0.110272	71.8965	-37.8424	8.56361
 171	1	5	-0.120305	73.5557	-38.9068	9.34058
 172	1	5	-0.123663	72.7932	-37.2072	10.4499
 173	1	6	0.452517	68.7212	-42.4693	6.51202
 174	1	6	0.453374	67.439	-40.9284	7.65927
 175	1	7	0.018948	67.4938	-41.8197	6.59655
 176	1	8	-0.46698	69.0898	-43.2703	5.67004
 177	1	8	-0.469385	66.5279	-40.18	7.96918
 178	1	3	-0.126657	63.6982	-42.1503	2.26211
 179	1	2	0.020988	68.4768	-36.6834	10.8837
 180	1	6	0.027902	67.54	-35.7991	10.1438
 181	1	8	-0.378193	67.7444	-35.2699	9.06369
 182	1	2	0.043573	67.8435	-37.1321	12.0215
 183	1	6	0.038038	66.4811	-36.5547	12.0715
 184	1	7	0.4913	66.3636	-35.8246	10.8907
 185	1	8	-0.382817	65.6158	-36.8184	12.8907
 186	1	2	0.0054	69.6906	-37.2288	10.4564
 187	1	2	-0.040988	68.4075	-38.1256	12.8164
 188	1	2	-0.085341	70.2704	-38.3134	11.1806
 189	1	4	0.154391	70.058	-36.8928	9.4966
 190	1	2	-0.205992	69.6142	-38.7104	12.3867
 191	1	4	0.156637	67.8744	-38.4991	13.6884
 192	1	4	0.178085	69.9731	-39.5342	12.9893
 193	1	10	0.05178	64.065	-43.7316	7.16528
 194	1	10	0.015669	65.5224	-43.0573	7.86944
 195	1	10	0.036134	65.6225	-44.5351	6.89757
 196	1	11	0.101096	63.1744	-41.1967	2.12495
 197	1	1	-0.196269	62.7095	-43.2356	2.45878
 198	1	11	0.131285	64.2871	-42.3432	1.35698
 199	1	3	-0.292673	62.1655	-43.1757	3.82957
 200	1	3	-0.034798	63.5349	-45.0793	4.4477
 201	1	12	0.194395	61.3041	-43.8495	3.9359
 202	1	12	0.183693	61.8729	-42.1516	4.09736
 203	1	2	-0.144532	62.9232	-44.8957	0.631517
 204	1	2	0.128587	63.0347	-44.5216	1.99784
 205	1	2	0.222203	63.2325	-46.2298	0.255145
 206	1	2	0.041795	63.4498	-45.4668	2.96759
 207	1	2	-0.461017	63.6583	-47.1498	1.23938
 208	1	2	-0.140506	63.7672	-46.7745	2.58352
 209	1	4	0.148448	64.0725	-47.5018	3.33319
 210	1	10	0.055442	61.7475	-43.1475	0.0208279
 211	1	10	0.090839	63.2807	-43.3351	-0.84685
 212	1	3	-0.16304	62.435	-43.8846	-0.413074
 213	1	10	0.039719	61.8905	-44.3618	-1.23647
 214	1	11	0.077452	62.7833	-45.6471	5.00988
 215	1	11	0.09063	64.5232	-45.3658	4.82773
 216	1	4	0.230266	63.8654	-48.1817	0.960171
 217	1	1	-0.247122	60.3447	-34.9452	8.65946
 218	1	2	0.139112	60.3794	-34.7428	7.27299
 219	1	2	0.02746	59.5616	-33.7844	6.62548
 220	1	3	-0.077297	58.5591	-32.9443	7.42674
 221	1	2	-0.08585	59.6333	-33.6653	5.2157
 222	1	2	-0.195578	60.5148	-34.473	4.47592
 223	1	4	0.171692	60.5593	-34.3814	3.39243
 224	1	2	-0.199822	61.3256	-35.4144	5.12404
 225	1	4	0.149498	61.9973	-36.0442	4.54665
 226	1	2	0.076729	61.2589	-35.5555	6.51744
 227	1	2	-0.057821	56.9878	-31.8881	3.4015
 228	1	2	-0.076852	55.7508	-31.6698	2.78386
 229	1	4	0.145382	55.0847	-32.5177	2.66606
 230	1	2	-0.023498	55.4122	-30.3541	2.36785
 231	1	4	0.166076	58.3347	-28.7635	3.34936
 232	1	2	-0.140684	57.6162	-29.5643	3.18453
 233	1	2	-0.058922	57.9007	-30.8714	3.58644
 234	1	3	-0.101954	54.0381	-29.9877	1.72921
 235	1	2	-0.067123	56.3623	-29.3166	2.59103
 236	1	4	0.142141	56.1226	-28.2934	2.31644
 237	1	3	0.321219	54.3252	-29.5294	0.24351
 238	1	3	0.382784	53.0077	-31.1849	1.69545
 239	1	5	-0.111948	54.9613	-28.3384	0.183329
 240	1	5	-0.11115	53.2101	-29.3979	-0.508897
 241	1	5	-0.103632	55.1199	-30.4158	-0.397931
 242	1	5	-0.110272	52.7994	-31.7214	2.91971
 243	1	5	-0.120305	53.3985	-32.1897	0.879476
 244	1	5	-0.123663	51.7865	-30.786	1.27214
 245	1	6	0.452517	59.0877	-31.4293	4.28645
 246	1	6	0.453374	57.549	-33.1288	3.99551
 247	1	7	0.018948	58.7893	-32.7683	4.50579
 248	1	8	-0.46698	60.0748	-30.8084	4.64102
 249	1	8	-0.469385	56.9852	-34.2064	4.07524
 250	1	3	-0.126657	62.1296	-36.6061	7.21582
 251	1	2	0.020988	52.0926	-26.8732	2.98523
 252	1	6	0.027902	51.2957	-25.6462	2.71834
 253	1	8	-0.378193	51.0922	-25.1385	1.62764
 254	1	2	0.043573	52.1208	-27.0803	4.34966
 255	1	6	0.038038	51.3274	-26.0214	5.01219
 256	1	7	0.4913	50.8589	-25.2192	3.97454
 257	1	8	-0.382817	51.1262	-25.9122	6.21108
 258	1	2	0.0054	52.7092	-27.7619	2.09481
 259	1	2	-0.040988	52.7915	-28.1657	4.91026
 260	1	2	-0.085341	53.3965	-28.8891	2.62204
 261	1	4	0.154391	52.6204	-27.5737	1.02992
 262	1	2	-0.205992	53.4312	-29.0625	4.03484
 263	1	4	0.156637	52.7955	-28.3161	5.98777
 264	1	4	0.178085	53.9325	-29.9249	4.46843
 265	1	10	0.05178	58.3409	-31.9823	6.95057
 266	1	10	0.015669	58.922	-32.7026	8.43113
 267	1	10	0.036134	57.6114	-33.4844	7.54154
 268	1	11	0.101096	61.8169	-37.6051	6.88821
 269	1	1	-0.196269	62.022	-36.5162	8.69006
 270	1	11	0.131285	63.1733	-36.4638	6.90821
 271	1	3	-0.292673	60.6163	-36.3291	9.09601
 272	1	3	-0.034798	61.0821	-33.9787	9.50935
 273	1	12	0.194395	60.5081	-36.4338	10.1844
 274	1	12	0.183693	59.9567	-37.0429	8.58458
 275	1	2	-0.144532	64.2628	-36.1579	9.66033
 276	1	2	0.128587	62.9498	-35.7154	9.36868
 277	1	2	0.222203	65.1111	-35.3265	10.4345
 278	1	2	0.041795	62.5125	-34.4422	9.80416
 279	1	2	-0.461017	64.6693	-34.0511	10.8485
 280	1	2	-0.140506	63.3792	-33.6067	10.5242
 281	1	4	0.148448	63.0357	-32.6297	10.8578
 282	1	10	0.055442	65.0477	-38.1656	10.0513
 283	1	10	0.090839	64.0235	-38.1051	8.6279
 284	1	3	-0.16304	64.7649	-37.5352	9.19929
 285	1	10	0.039719	65.6456	-37.4319	8.5519
 286	1	11	0.077452	60.5475	-33.8471	10.458
 287	1	11	0.09063	61.1308	-33.001	9.01419
 288	1	4	0.230266	65.32	-33.4176	11.4487
 289	1	1	-0.247122	46.1868	-20.8338	4.96285
 290	1	2	0.139112	46.0352	-20.144	3.75552
 291	1	2	0.02746	45.9598	-18.7327	3.70867
 292	1	3	-0.077297	45.895	-17.9062	4.99794
 293	1	2	-0.08585	45.9454	-18.0877	2.45088
 294	1	2	-0.195578	45.959	-18.8452	1.26492
 295	1	4	0.171692	45.9469	-18.3456	0.29815
 296	1	2	-0.199822	46.0004	-20.2472	1.31924
 297	1	4	0.149498	46.0209	-20.827	0.399999
 298	1	2	0.076729	46.0489	-20.9007	2.56034
 299	1	2	-0.057821	45.3498	-14.4794	2.09546
 300	1	2	-0.076852	44.6718	-13.281	1.83961
 301	1	4	0.145382	43.6204	-13.3206	1.56611
 302	1	2	-0.023498	45.3844	-12.054	1.91198
 303	1	4	0.166076	48.4334	-13.3292	2.963
 304	1	2	-0.140684	47.3951	-13.3078	2.63657
 305	1	2	-0.058922	46.674	-14.4936	2.47971
 306	1	3	-0.101954	44.6824	-10.7062	1.56327
 307	1	2	-0.067123	46.7414	-12.0939	2.34615
 308	1	4	0.142141	47.3106	-11.1803	2.47375
 309	1	3	0.321219	44.2195	-10.0706	2.92847
 310	1	3	0.382784	45.6532	-9.70534	0.819405
 311	1	5	-0.111948	43.2387	-10.8041	3.50108
 312	1	5	-0.11115	43.7647	-8.80429	2.791
 313	1	5	-0.103632	45.2203	-10.0137	3.83623
 314	1	5	-0.110272	46.3665	-10.3289	-0.145986
 315	1	5	-0.120305	46.549	-9.10041	1.63074
 316	1	5	-0.123663	44.9702	-8.70858	0.210497
 317	1	6	0.452517	47.0925	-15.9066	2.6694
 318	1	6	0.453374	44.8762	-15.8872	2.01345
 319	1	7	0.018948	45.9698	-16.6678	2.36704
 320	1	8	-0.46698	48.1918	-16.292	3.03035
 321	1	8	-0.469385	43.7622	-16.2565	1.68432
 322	1	3	-0.126657	46.149	-22.4305	2.6243
 323	1	2	0.020988	41.2514	-10.5799	-0.264404
 324	1	6	0.027902	39.89	-10.0003	-0.39106
 325	1	8	-0.378193	39.3411	-9.25682	0.405311
 326	1	2	0.043573	41.5109	-11.3355	-1.38906
 327	1	6	0.038038	40.3281	-11.2776	-2.28347
 328	1	7	0.4913	39.4254	-10.4414	-1.62842
 329	1	8	-0.382817	40.2289	-11.7823	-3.39013
 330	1	2	0.0054	42.2165	-10.3779	0.72739
 331	1	2	-0.040988	42.7547	-11.9373	-1.58483
 332	1	2	-0.085341	43.5037	-10.9627	0.569307
 333	1	4	0.154391	41.9503	-9.74569	1.56663
 334	1	2	-0.205992	43.746	-11.7368	-0.602372
 335	1	4	0.156637	42.9525	-12.5118	-2.48727
 336	1	4	0.178085	44.725	-12.1821	-0.765886
 337	1	10	0.05178	46.8823	-17.5036	5.25517
 338	1	10	0.015669	45.5413	-18.4926	5.85415
 339	1	10	0.036134	45.2002	-17.0631	4.89984
 340	1	11	0.101096	45.1894	-22.8654	2.32027
 341	1	1	-0.196269	46.4968	-22.8966	3.98812
 342	1	11	0.131285	46.9115	-22.7672	1.91025
 343	1	3	-0.292673	45.6572	-22.2112	4.98808
 344	1	3	-0.034798	47.5373	-20.7854	5.5662
 345	1	12	0.194395	45.7817	-22.6673	5.97966
 346	1	12	0.183693	44.5981	-22.2305	4.69806
 347	1	2	-0.144532	48.6589	-24.0813	3.89977
 348	1	2	0.128587	47.8611	-22.9796	4.2971
 349	1	2	0.222203	50.041	-24.0769	4.21792
 350	1	2	0.041795	48.427	-21.9141	5.03691
 351	1	2	-0.461017	50.6025	-22.9741	4.89962
 352	1	2	-0.140506	49.8	-21.9026	5.31442
 353	1	4	0.148448	50.2328	-21.0766	5.87533
 354	1	10	0.055442	48.0332	-26.1694	3.91115
 355	1	10	0.090839	46.9843	-25.1526	2.93051
 356	1	3	-0.16304	48.027	-25.31	3.22883
 357	1	10	0.039719	48.5645	-25.5981	2.31837
 358	1	11	0.077452	47.4546	-20.8771	6.65603
 359	1	11	0.09063	48.0178	-19.8232	5.34821
 360	1	4	0.230266	51.6588	-22.979	5.16236
 361	1	1	-0.247122	34.5412	-7.56241	-4.77454
 362	1	2	0.139112	34.2633	-6.40948	-4.02437
 363	1	2	0.02746	32.9405	-6.01044	-3.7017
 364	1	3	-0.077297	31.7419	-6.80639	-4.22748
 365	1	2	-0.08585	32.7406	-4.85265	-2.90641
 366	1	2	-0.195578	33.8493	-4.11005	-2.45913
 367	1	4	0.171692	33.6985	-3.21092	-1.86497
 368	1	2	-0.199822	35.154	-4.5043	-2.78875
 369	1	4	0.149498	36.0018	-3.91996	-2.44126
 370	1	2	0.076729	35.3667	-5.6494	-3.56932
 371	1	2	-0.057821	29.5304	-3.08654	-2.56656
 372	1	2	-0.076852	28.5393	-2.13166	-2.82013
 373	1	4	0.145382	28.7808	-1.32238	-3.50137
 374	1	2	-0.023498	27.2449	-2.28184	-2.24775
 375	1	4	0.166076	27.8871	-5.19372	-0.469522
 376	1	2	-0.140684	28.0623	-4.3362	-1.11641
 377	1	2	-0.058922	29.3096	-4.15555	-1.72801
 378	1	3	-0.101954	26.0956	-1.28597	-2.62696
 379	1	2	-0.067123	27.0314	-3.41002	-1.40277
 380	1	4	0.142141	26.0532	-3.59775	-0.972388
 381	1	3	0.321219	26.5762	0.206295	-2.43703
 382	1	3	0.382784	25.7607	-1.53447	-4.1551
 383	1	5	-0.111948	25.5344	1.06913	-2.43087
 384	1	5	-0.11115	27.4163	0.643483	-3.40019
 385	1	5	-0.103632	27.2262	0.3708	-1.26285
 386	1	5	-0.110272	26.8345	-1.4914	-4.97327
 387	1	5	-0.120305	24.9003	-0.619073	-4.65662
 388	1	5	-0.123663	25.2239	-2.76308	-4.33585
 389	1	6	0.452517	30.5472	-4.99133	-1.70844
 390	1	6	0.453374	30.9005	-3.21011	-3.13214
 391	1	7	0.018948	31.4343	-4.37062	-2.58462
 392	1	8	-0.46698	30.7132	-6.01861	-1.073
 393	1	8	-0.469385	31.4123	-2.45962	-3.94529
 394	1	3	-0.126657	36.797	-6.07728	-3.92247
 395	1	2	0.020988	22.4055	-1.61996	-1.39044
 396	1	6	0.027902	20.9699	-1.78321	-1.72035
 397	1	8	-0.378193	20.5071	-1.89062	-2.84452
 398	1	2	0.043573	22.54	-1.55343	-0.0233082
 399	1	6	0.038038	21.1859	-1.70023	0.588154
 400	1	7	0.4913	20.3066	-1.84845	-0.492457
 401	1	8	-0.382817	20.9425	-1.78234	1.7812
 402	1	2	0.0054	23.5066	-1.58233	-2.24954
 403	1	2	-0.040988	23.8063	-1.41708	0.557367
 404	1	2	-0.085341	24.8213	-1.44844	-1.71553
 405	1	4	0.154391	23.2922	-1.65408	-3.30826
 406	1	2	-0.205992	24.9348	-1.35191	-0.296732
 407	1	4	0.156637	23.9086	-1.35927	1.63899
 408	1	4	0.178085	25.9153	-1.22628	0.157557
 409	1	10	0.05178	31.4182	-7.55075	-3.48961
 410	1	10	0.015669	31.9742	-7.33854	-5.15796
 411	1	10	0.036134	30.8857	-6.16	-4.45257
 412	1	11	0.101096	37.2294	-5.34517	-4.6152
 413	1	1	-0.196269	36.8278	-7.4225	-4.5422
 414	1	11	0.131285	37.4015	-6.07122	-3.00758
 415	1	3	-0.292673	35.7816	-7.52229	-5.5771
 416	1	3	-0.034798	34.4315	-8.86235	-4.07365
 417	1	12	0.194395	35.9057	-8.43996	-6.16831
 418	1	12	0.183693	35.7945	-6.64728	-6.24092
 419	1	2	-0.144532	38.1674	-8.90016	-3.09546
 420	1	2	0.128587	36.9347	-8.52568	-3.68316
 421	1	2	0.222203	38.1996	-10.0101	-2.21207
 422	1	2	0.041795	35.7546	-9.25565	-3.40576
 423	1	2	-0.461017	37.0083	-10.7113	-1.9209
 424	1	2	-0.140506	35.7938	-10.3391	-2.51675
 425	1	4	0.148448	34.8814	-10.8886	-2.29381
 426	1	10	0.055442	40.3682	-8.65259	-3.21155
 427	1	10	0.090839	39.4832	-7.87912	-4.51018
 428	1	3	-0.16304	39.442	-8.11364	-3.43843
 429	1	10	0.039719	39.4761	-7.16513	-2.88884
 430	1	11	0.077452	34.1502	-9.64149	-4.79276
 431	1	11	0.09063	33.6469	-8.8144	-3.30843
 432	1	4	0.230266	37.0293	-11.5547	-1.23319
 433	1	1	-0.247122	13.8567	-2.60369	0.360047
 434	1	2	0.139112	13.5404	-3.01371	1.65913
 435	1	2	0.02746	12.5211	-3.9607	1.92742
 436	1	3	-0.077297	11.6956	-4.53397	0.771165
 437	1	2	-0.08585	12.2838	-4.35406	3.26829
 438	1	2	-0.195578	13.043	-3.7898	4.30993
 439	1	4	0.171692	12.8675	-4.09903	5.33851
 440	1	2	-0.199822	14.038	-2.8383	4.03565
 441	1	4	0.149498	14.6193	-2.41241	4.84893
 442	1	2	0.076729	14.2955	-2.44938	2.71209
 443	1	2	-0.057821	10.3993	-7.40411	4.06525
 444	1	2	-0.076852	10.1542	-8.77107	4.23697
 445	1	4	0.145382	10.9946	-9.44985	4.14445
 446	1	2	-0.023498	8.82488	-9.21321	4.47519
 447	1	4	0.166076	7.28549	-6.1039	4.49807
 448	1	2	-0.140684	8.07755	-6.8478	4.43382
 449	1	2	-0.058922	9.39157	-6.46662	4.1382
 450	1	3	-0.101954	8.43644	-10.7259	4.54666
 451	1	2	-0.067123	7.81	-8.22251	4.6147
 452	1	4	0.142141	6.78537	-8.52783	4.81369
 453	1	3	0.321219	9.56911	-11.6794	4.0009
 454	1	3	0.382784	8.15887	-11.0507	6.06386
 455	1	5	-0.111948	9.14892	-12.9589	3.87519
 456	1	5	-0.11115	10.6585	-11.7189	4.80059
 457	1	5	-0.103632	9.97479	-11.306	2.76522
 458	1	5	-0.110272	8.11128	-12.3732	6.33954
 459	1	5	-0.120305	6.98334	-10.5236	6.47302
 460	1	5	-0.123663	9.11746	-10.5324	6.86476
 461	1	6	0.452517	9.98	-5.12947	3.83642
 462	1	6	0.453374	11.6661	-6.70298	3.73158
 463	1	7	0.018948	11.3317	-5.36164	3.6015
 464	1	8	-0.46698	9.37476	-4.07359	3.76623
 465	1	8	-0.469385	12.7576	-7.22425	3.58108
 466	1	3	-0.126657	15.3952	-1.4181	2.40543
 467	1	2	0.020988	5.33154	-12.3626	2.89847
 468	1	6	0.027902	4.45012	-13.555	2.75808
 469	1	8	-0.378193	4.39211	-14.5083	3.51693
 470	1	2	0.043573	5.15884	-11.5642	1.78633
 471	1	6	0.038038	4.15111	-12.1874	0.901767
 472	1	7	0.4913	3.81631	-13.3873	1.52732
 473	1	8	-0.382817	3.82585	-11.7916	-0.206481
 474	1	2	0.0054	6.32868	-12.0907	3.84357
 475	1	2	-0.040988	5.98496	-10.4695	1.53742
 476	1	2	-0.085341	7.19938	-10.9847	3.63262
 477	1	4	0.154391	6.45992	-12.7865	4.66492
 478	1	2	-0.205992	7.01676	-10.2024	2.4559
 479	1	4	0.156637	5.87399	-9.89314	0.621285
 480	1	4	0.178085	7.70874	-9.40049	2.21054
 481	1	10	0.05178	11.4103	-3.74354	0.0651201
 482	1	10	0.015669	10.7624	-5.00482	1.0994
 483	1	10	0.036134	12.2694	-5.28549	0.215837
 484	1	11	0.101096	15.1423	-0.471502	2.89724
 485	1	1	-0.196269	15.5757	-1.18274	0.948011
 486	1	11	0.131285	16.3379	-1.77544	2.83938
 487	1	3	-0.292673	14.2776	-1.19281	0.246148
 488	1	3	-0.034798	14.7397	-3.49624	-0.431666
 489	1	12	0.194395	14.3994	-0.898302	-0.805162
 490	1	12	0.183693	13.5574	-0.526081	0.739407
 491	1	2	-0.144532	17.945	-1.4396	0.269709
 492	1	2	0.128587	16.596	-1.88807	0.297392
 493	1	2	0.222203	18.9251	-2.23063	-0.391408
 494	1	2	0.041795	16.2143	-3.07089	-0.376533
 495	1	2	-0.461017	18.5231	-3.43197	-1.02177
 496	1	2	-0.140506	17.183	-3.84204	-1.02904
 497	1	4	0.148448	16.8905	-4.74964	-1.55317
 498	1	10	0.055442	17.4553	0.569419	1.02216
 499	1	10	0.090839	18.7917	-0.21487	1.87012
 500	1	3	-0.16304	18.3237	-0.0869986	0.885974
 501	1	10	0.039719	19.0235	0.464541	0.245773
 502	1	11	0.077452	14.4093	-3.49609	-1.47747
 503	1	11	0.09063	14.661	-4.52608	-0.0603934
 504	1	4	0.230266	19.2575	-4.03056	-1.55886
 505	1	1	-0.247122	0.235281	-15.7738	-3.09747
 506	1	2	0.139112	-0.965672	-16.4727	-3.11571
 507	1	2	0.02746	-1.46429	-17.0997	-4.28112
 508	1	3	-0.077297	-0.669611	-17.0472	-5.58926
 509	1	2	-0.08585	-2.73332	-17.723	-4.22165
 510	1	2	-0.195578	-3.47082	-17.7025	-3.01959
 511	1	4	0.171692	-4.45148	-18.1732	-2.97413
 512	1	2	-0.199822	-2.98146	-17.0435	-1.88372
 513	1	4	0.149498	-3.58096	-17.0013	-0.978371
 514	1	2	0.076729	-1.7321	-16.4129	-1.93191
 515	1	2	-0.057821	-5.01933	-19.3105	-6.55276
 516	1	2	-0.076852	-6.31348	-19.7252	-6.87532
 517	1	4	0.145382	-7.14394	-19.061	-6.64665
 518	1	2	-0.023498	-6.52566	-21.0543	-7.32288
 519	1	4	0.166076	-3.24569	-22.1423	-7.18553
 520	1	2	-0.140684	-4.09233	-21.4589	-7.15809
 521	1	2	-0.058922	-3.94314	-20.1662	-6.64445
 522	1	3	-0.101954	-7.98216	-21.6008	-7.35059
 523	1	2	-0.067123	-5.38894	-21.8918	-7.50762
 524	1	4	0.142141	-5.50174	-22.9231	-7.82131
 525	1	3	0.321219	-8.1899	-22.8364	-8.30697
 526	1	3	0.382784	-8.28094	-22.0381	-5.86277
 527	1	5	-0.111948	-9.50428	-23.0946	-8.49318
 528	1	5	-0.11115	-7.64133	-23.9822	-7.84531
 529	1	5	-0.103632	-7.66127	-22.6173	-9.53115
 530	1	5	-0.110272	-7.3453	-22.8909	-5.38578
 531	1	5	-0.120305	-9.47366	-22.6585	-5.72219
 532	1	5	-0.123663	-8.2713	-20.9833	-5.01462
 533	1	6	0.452517	-2.81073	-19.5683	-5.8846
 534	1	6	0.453374	-4.60527	-18.1148	-5.78168
 535	1	7	0.018948	-3.31773	-18.3929	-5.33689
 536	1	8	-0.46698	-1.7639	-20.1303	-5.61051
 537	1	8	-0.469385	-5.33798	-17.1968	-5.45204
 538	1	3	-0.126657	-1.21911	-15.5956	-0.734542
 539	1	2	0.020988	-9.31154	-18.698	-9.48067
 540	1	6	0.027902	-9.06449	-17.7555	-10.5973
 541	1	8	-0.378193	-8.18626	-17.839	-11.4401
 542	1	2	0.043573	-10.3917	-18.2442	-8.75172
 543	1	6	0.038038	-10.8784	-16.9839	-9.36068
 544	1	7	0.4913	-10.0118	-16.7507	-10.4256
 545	1	8	-0.382817	-11.7904	-16.2824	-8.95373
 546	1	2	0.0054	-8.56021	-19.8	-9.06902
 547	1	2	-0.040988	-10.8048	-18.8921	-7.58779
 548	1	2	-0.085341	-8.91249	-20.4635	-7.86578
 549	1	4	0.154391	-7.68203	-20.0845	-9.64278
 550	1	2	-0.205992	-10.0628	-20.01	-7.15536
 551	1	4	0.156637	-11.6491	-18.5119	-7.01626
 552	1	4	0.178085	-10.3863	-20.4838	-6.23488
 553	1	10	0.05178	-1.32782	-16.996	-6.46452
 554	1	10	0.015669	-0.0311994	-17.9324	-5.69608
 555	1	10	0.036134	-0.0213272	-16.164	-5.6435
 556	1	11	0.101096	-2.03965	-14.9828	-0.343667
 557	1	1	-0.196269	-0.0638819	-14.711	-1.07029
 558	1	11	0.131285	-0.926873	-16.2975	0.05731
 559	1	3	-0.292673	0.0548169	-14.4281	-2.51332
 560	1	3	-0.034798	1.43374	-16.5024	-2.57804
 561	1	12	0.194395	0.925734	-13.7894	-2.71777
 562	1	12	0.183693	-0.856485	-13.9464	-2.89323
 563	1	2	-0.144532	1.73353	-14.2443	0.516283
 564	1	2	0.128587	1.18075	-15.0156	-0.528795
 565	1	2	0.222203	3.10718	-14.4005	0.820253
 566	1	2	0.041795	1.97345	-15.9264	-1.25887
 567	1	2	-0.461017	3.85534	-15.4161	0.180376
 568	1	2	-0.140506	3.29138	-16.1804	-0.853574
 569	1	4	0.148448	3.90362	-16.8875	-1.40983
 570	1	10	0.055442	0.620101	-12.3729	0.459954
 571	1	10	0.090839	-0.0598208	-13.5834	1.55803
 572	1	3	-0.16304	0.879733	-13.1588	1.18113
 573	1	10	0.039719	1.37365	-12.6777	2.03325
 574	1	11	0.077452	2.22789	-16.4641	-3.33318
 575	1	11	0.09063	1.18748	-17.5602	-2.41705
 576	1	4	0.230266	4.91276	-15.5345	0.412609
 577	1	1	-0.247122	-11.4819	-11.824	-14.3888
 578	1	2	0.139112	-11.2329	-11.8072	-15.761
 579	1	2	0.02746	-11.6593	-10.7334	-16.575
 580	1	3	-0.077297	-12.2026	-9.45852	-15.9213
 581	1	2	-0.08585	-11.7247	-10.9402	-17.9755
 582	1	2	-0.195578	-11.2193	-12.1213	-18.5496
 583	1	4	0.171692	-11.2845	-12.2835	-19.6244
 584	1	2	-0.199822	-10.8259	-13.1844	-17.7373
 585	1	4	0.149498	-10.5902	-14.1462	-18.1841
 586	1	2	0.076729	-10.9333	-13.056	-16.35
 587	1	2	-0.057821	-13.5959	-9.79605	-20.8256
 588	1	2	-0.076852	-13.8447	-9.61784	-22.1913
 589	1	4	0.145382	-13.0047	-9.39049	-22.8376
 590	1	2	-0.023498	-15.1827	-9.69734	-22.657
 591	1	4	0.166076	-16.704	-10.5341	-19.6507
 592	1	2	-0.140684	-15.9198	-10.2647	-20.3561
 593	1	2	-0.058922	-14.6002	-10.1169	-19.9387
 594	1	3	-0.101954	-15.6112	-9.19846	-24.0643
 595	1	2	-0.067123	-16.2009	-10.0175	-21.7081
 596	1	4	0.142141	-17.2466	-10.0265	-21.99
 597	1	3	0.321219	-14.4079	-8.84113	-25.0521
 598	1	3	0.382784	-16.4702	-10.3136	-24.8177
 599	1	5	-0.111948	-13.6451	-9.91433	-25.3571
 600	1	5	-0.11115	-13.5273	-7.92683	-24.5996
 601	1	5	-0.103632	-14.8547	-8.32578	-26.2183
 602	1	5	-0.110272	-16.9919	-9.85936	-25.9796
 603	1	5	-0.120305	-17.5198	-10.8068	-24.1282
 604	1	5	-0.123663	-15.7427	-11.4131	-25.1109
 605	1	6	0.452517	-13.9991	-10.3654	-18.611
 606	1	6	0.453374	-12.3088	-9.79665	-20.0859
 607	1	7	0.018948	-12.6275	-10.2233	-18.8015
 608	1	8	-0.46698	-14.5879	-10.8326	-17.6494
 609	1	8	-0.469385	-11.2033	-9.66685	-20.5824
 610	1	3	-0.126657	-10.97	-14.3188	-15.4929
 611	1	2	0.020988	-16.4192	-5.75768	-22.5214
 612	1	6	0.027902	-15.9645	-4.37323	-22.2336
 613	1	8	-0.378193	-14.8309	-3.9528	-22.4018
 614	1	2	0.043573	-17.7881	-5.79791	-22.4211
 615	1	6	0.038038	-18.2695	-4.47745	-21.9801
 616	1	7	0.4913	-17.1506	-3.64501	-22.1258
 617	1	8	-0.382817	-19.4507	-4.17051	-21.9198
 618	1	2	0.0054	-15.7059	-6.81334	-23.0854
 619	1	2	-0.040988	-18.5262	-6.84443	-22.971
 620	1	2	-0.085341	-16.4044	-7.92001	-23.6506
 621	1	4	0.154391	-14.628	-6.73667	-23.0596
 622	1	2	-0.205992	-17.8286	-7.8916	-23.6028
 623	1	4	0.156637	-19.6134	-6.80917	-22.9607
 624	1	4	0.178085	-18.4311	-8.68113	-24.0341
 625	1	10	0.05178	-11.4141	-8.955	-15.3483