pySIMM System Object

2882 atoms
3201 bonds
5760 angles
8876 dihedrals
800 impropers

12 atom types
15 bond types
28 angle types
9 dihedral types
4 improper types

-223.418948 223.418948 xlo xhi
-223.418948 223.418948 ylo yhi
-223.418948 223.418948 zlo zhi

Masses

   1	14.01	# nh
   2	12.01	# ca
   3	12.01	# c3
   4	1.008	# ha
   5	19.0	# f
   6	12.01	# c
   7	14.01	# n
   8	16.0	# o
   9	1.008	# hn
  10	1.008	# hc
  11	1.008	# h1
  12	1.008	# h2

Pair Coeffs

   1	0.17	3.249998523775958	# nh
   2	0.086	3.3996695084235347	# ca
   3	0.1094	3.3996695084235347	# c3
   4	0.015	2.59964245953351	# ha
   5	0.061	3.1181455134911875	# f
   6	0.086	3.3996695084235347	# c
   7	0.17	3.249998523775958	# n
   8	0.21	2.959921901149463	# o
   9	0.0157	1.069078461768407	# hn
  10	0.0157	2.649532787749369	# hc
  11	0.0157	2.471353044121301	# h1
  12	0.0157	2.2931733004932333	# h2

Bond Coeffs

   1	356.9	1.3497	# c3,f
   2	403.2	1.0129	# hn,n
   3	417.9	1.3859	# ca,nh
   4	300.9	1.5375	# c3,c3
   5	384.2	1.4121	# ca,n
   6	330.6	1.0969	# c3,h1
   7	461.1	1.3984	# ca,ca
   8	326.6	1.464	# c3,nh
   9	427.6	1.3789	# c,n
  10	331.7	1.0961	# c3,h2
  11	345.9	1.4906	# c,ca
  12	345.8	1.086	# ca,ha
  13	321.0	1.5156	# c3,ca
  14	330.6	1.0969	# c3,hc
  15	637.7	1.2183	# c,o

Angle Coeffs

   1	71.11	105.87	# nh,c3,nh
   2	63.25	114.51	# c3,nh,c3
   3	74.22	123.05	# n,c,o
   4	66.62	120.02	# ca,ca,ca
   5	68.29	120.95	# ca,ca,nh
   6	49.52	110.01	# h2,c3,nh
   7	68.72	122.6	# ca,c,o
   8	49.57	109.79	# h1,c3,nh
   9	67.68	115.25	# ca,c,n
  10	66.46	111.39	# ca,c3,nh
  11	48.33	117.55	# c,n,hn
  12	64.28	120.33	# c,ca,ca
  13	39.4	107.58	# hc,c3,hc
  14	63.53	120.77	# c3,ca,ca
  15	70.89	107.36	# f,c3,f
  16	67.87	120.19	# ca,ca,n
  17	46.8	110.47	# ca,c3,hc
  18	46.99	109.56	# ca,c3,h1
  19	62.86	111.51	# c3,c3,c3
  20	66.11	109.24	# c3,c3,f
  21	63.15	112.07	# c3,c3,ca
  22	38.96	110.2	# h2,c3,h2
  23	63.82	123.71	# c,n,ca
  24	39.24	108.46	# h1,c3,h1
  25	63.56	112.24	# ca,c3,ca
  26	63.39	119.98	# c3,nh,ca
  27	63.74	127.08	# c,n,c
  28	48.18	119.88	# ca,ca,ha

Dihedral Coeffs

   1	2	2.5	2	180	2.0	1	0	# hn,n,c,o
   2	1	0.0	2	0	# X,c3,nh,X
   3	1	3.625	2	180	# X,ca,ca,X
   4	1	0.0	2	0	# X,c3,ca,X
   5	1	1.0	2	180	# X,c,ca,X
   6	1	0.15555555555555556	3	0	# X,c3,c3,X
   7	1	2.5	2	180	# X,c,n,X
   8	1	0.45	2	180	# X,ca,n,X
   9	1	1.05	2	180	# X,ca,nh,X

Improper Coeffs

   1	10.5	-1	2	# c,X,X,o
   2	1.1	-1	2	# n,X,X,hn
   3	1.1	-1	2	# ca,ca,ca,c3
   4	1.1	-1	2	# ca,X,X,ha

Atoms

   1	1	1	-0.247122	15.2658	-132.351	8.74056
   2	1	2	0.139112	14.5339	-131.536	9.61672
   3	1	2	0.02746	13.6372	-130.541	9.15491
   4	1	3	-0.077297	13.4962	-130.267	7.65436
   5	1	2	-0.08585	12.896	-129.788	10.1002
   6	1	2	-0.195578	13.0776	-130.013	11.4775
   7	1	4	0.171692	12.5221	-129.423	12.2044
   8	1	2	-0.199822	13.9792	-130.987	11.9287
   9	1	4	0.149498	14.1137	-131.151	12.9945
  10	1	2	0.076729	14.7044	-131.752	11.005
  11	1	2	-0.057821	10.8888	-126.775	9.44203
  12	1	2	-0.076852	10.4983	-125.43	9.48449
  13	1	4	0.145382	11.1453	-124.725	9.99478
  14	1	2	-0.023498	9.27137	-125.049	8.877
  15	1	4	0.166076	8.27627	-128.183	7.77629
  16	1	2	-0.140684	8.89135	-127.413	8.23799
  17	1	2	-0.058922	10.1092	-127.741	8.8411
  18	1	3	-0.101954	8.72674	-123.589	8.90884
  19	1	2	-0.067123	8.48337	-126.064	8.26348
  20	1	4	0.142141	7.5316	-125.805	7.80639
  21	1	3	0.321219	7.62202	-123.562	10.0343
  22	1	3	0.382784	9.82895	-122.51	9.23999
  23	1	5	-0.111948	6.52142	-124.259	9.67186
  24	1	5	-0.11115	7.21258	-122.314	10.3547
  25	1	5	-0.103632	8.06538	-124.125	11.1812
  26	1	5	-0.110272	10.922	-122.654	8.45655
  27	1	5	-0.120305	10.2486	-122.55	10.5247
  28	1	5	-0.123663	9.37687	-121.253	9.02376
  29	1	6	0.452517	10.785	-129.057	9.00338
  30	1	6	0.453374	12.0954	-127.44	10.0032
  31	1	7	0.018948	11.9591	-128.79	9.7
  32	1	8	-0.46698	10.3648	-130.133	8.61423
  33	1	8	-0.469385	12.9959	-126.892	10.6166
  34	1	3	-0.126657	15.6785	-132.826	11.5042
  35	1	2	0.020988	6.59741	-122.176	5.98089
  36	1	6	0.027902	5.40715	-121.432	5.4902
  37	1	8	-0.378193	4.50874	-120.973	6.17663
  38	1	2	0.043573	7.35604	-122.548	4.89036
  39	1	6	0.038038	6.69124	-122.058	3.65782
  40	1	7	0.4913	5.54356	-121.4	4.10041
  41	1	8	-0.382817	7.08147	-122.222	2.51315
  42	1	2	0.0054	6.98355	-122.494	7.28889
  43	1	2	-0.040988	8.54618	-123.261	5.04338
  44	1	2	-0.085341	8.18369	-123.23	7.49293
  45	1	4	0.154391	6.35419	-122.157	8.10529
  46	1	2	-0.205992	8.95293	-123.593	6.35167
  47	1	4	0.156637	9.13846	-123.538	4.1739
  48	1	4	0.178085	9.88998	-124.132	6.47671
  49	1	10	0.05178	14.4134	-130.51	7.10476
  50	1	10	0.015669	13.2887	-129.21	7.4477
  51	1	10	0.036134	12.682	-130.862	7.22302
  52	1	11	0.101096	16.5255	-132.339	12.0025
  53	1	1	-0.196269	16.1753	-133.67	10.3937
  54	1	11	0.131285	15.1643	-133.449	12.2465
  55	1	3	-0.292673	16.5687	-132.823	9.25126
  56	1	3	-0.034798	14.5383	-133.464	8.08471
  57	1	12	0.194395	17.1032	-133.414	8.49442
  58	1	12	0.183693	17.1933	-131.981	9.57708
  59	1	2	-0.144532	15.4689	-135.984	10.8521
  60	1	2	0.128587	15.4251	-134.808	10.068
  61	1	2	0.222203	14.6718	-137.083	10.4829
  62	1	2	0.041795	14.5902	-134.746	8.92555
  63	1	2	-0.461017	13.8441	-137.02	9.35107
  64	1	2	-0.140506	13.8019	-135.853	8.57017
  65	1	4	0.148448	13.1578	-135.802	7.69501
  66	1	10	0.055442	16.5409	-137.146	12.3608
  67	1	10	0.090839	17.3625	-135.658	11.8805
  68	1	3	-0.16304	16.3766	-136.099	12.0752
  69	1	10	0.039719	15.9399	-135.585	12.9401
  70	1	11	0.077452	14.9826	-133.662	7.10172
  71	1	11	0.09063	13.4882	-133.187	7.92789
  72	1	4	0.230266	13.2372	-137.882	9.08702
  73	1	1	-0.247122	1.52644	-117.705	0.565043
  74	1	2	0.139112	0.451796	-117.363	1.39552
  75	1	2	0.02746	-0.889619	-117.395	0.943699
  76	1	3	-0.077297	-1.20819	-117.753	-0.512092
  77	1	2	-0.08585	-1.92949	-117.074	1.85045
  78	1	2	-0.195578	-1.62326	-116.704	3.17336
  79	1	4	0.171692	-2.42235	-116.444	3.86507
  80	1	2	-0.199822	-0.290823	-116.663	3.61067
  81	1	4	0.149498	-0.063346	-116.378	4.63459
  82	1	2	0.076729	0.748741	-116.996	2.72934
  83	1	2	-0.057821	-5.41108	-116.476	0.829757
  84	1	2	-0.076852	-6.57746	-115.773	0.503417
  85	1	4	0.145382	-6.5926	-114.689	0.602687
  86	1	2	-0.023498	-7.71375	-116.489	0.043506
  87	1	4	0.166076	-6.38081	-119.683	0.234937
  88	1	2	-0.140684	-6.44266	-118.598	0.301426
  89	1	2	-0.058922	-5.3434	-117.849	0.730514
  90	1	3	-0.101954	-9.01489	-115.701	-0.296022
  91	1	2	-0.067123	-7.62575	-117.909	-0.0354854
  92	1	4	0.142141	-8.47192	-118.507	-0.354072
  93	1	3	0.321219	-10.0164	-116.5	-1.21523
  94	1	3	0.382784	-9.70749	-115.396	1.08737
  95	1	5	-0.111948	-9.39279	-117.025	-2.29443
  96	1	5	-0.11115	-10.9956	-115.701	-1.69778
  97	1	5	-0.103632	-10.6373	-117.517	-0.576617
  98	1	5	-0.110272	-9.00701	-114.488	1.80445
  99	1	5	-0.120305	-9.7911	-116.504	1.85883
 100	1	5	-0.123663	-10.9675	-114.922	0.963523
 101	1	6	0.452517	-3.98034	-118.282	1.13944
 102	1	6	0.453374	-4.0912	-115.981	1.30394
 103	1	7	0.018948	-3.29715	-117.112	1.45169
 104	1	8	-0.46698	-3.5644	-119.428	1.16153
 105	1	8	-0.469385	-3.78523	-114.816	1.49498
 106	1	3	-0.126657	2.20551	-116.963	3.2119
 107	1	2	0.020988	-8.87988	-112.074	-1.67444
 108	1	6	0.027902	-9.37616	-110.675	-1.65957
 109	1	8	-0.378193	-10.2323	-110.219	-0.919193
 110	1	2	0.043573	-7.92562	-112.188	-2.66437
 111	1	6	0.038038	-7.76595	-110.867	-3.32487
 112	1	7	0.4913	-8.65827	-110.024	-2.66325
 113	1	8	-0.382817	-7.00964	-110.601	-4.24498
 114	1	2	0.0054	-9.2558	-113.162	-0.880806
 115	1	2	-0.040988	-7.29517	-113.407	-2.92254
 116	1	2	-0.085341	-8.62987	-114.42	-1.09672
 117	1	4	0.154391	-10.0253	-113.006	-0.132969
 118	1	2	-0.205992	-7.6619	-114.519	-2.13657
 119	1	4	0.156637	-6.55371	-113.486	-3.71462
 120	1	4	0.178085	-7.18829	-115.476	-2.34787
 121	1	10	0.05178	-0.381788	-117.503	-1.18832
 122	1	10	0.015669	-2.08352	-117.21	-0.887593
 123	1	10	0.036134	-1.40853	-118.827	-0.613513
 124	1	11	0.101096	2.48435	-115.927	3.43801
 125	1	1	-0.196269	3.1351	-117.515	2.19714
 126	1	11	0.131285	2.2831	-117.542	4.14132
 127	1	3	-0.292673	2.79434	-117.007	0.855169
 128	1	3	-0.034798	1.76499	-119.15	0.335523
 129	1	12	0.194395	3.57324	-117.275	0.128197
 130	1	12	0.183693	2.65194	-115.918	0.867544
 131	1	2	-0.144532	4.36309	-119.413	3.18517
 132	1	2	0.128587	3.42595	-118.884	2.26225
 133	1	2	0.222203	4.59279	-120.813	3.20981
 134	1	2	0.041795	2.74702	-119.735	1.35822
 135	1	2	-0.461017	3.89429	-121.649	2.30954
 136	1	2	-0.140506	2.98155	-121.116	1.38792
 137	1	4	0.148448	2.46118	-121.769	0.68973
 138	1	10	0.055442	5.24115	-117.465	3.7031
 139	1	10	0.090839	4.64102	-118.386	5.09079
 140	1	3	-0.16304	5.14254	-118.476	4.11834
 141	1	10	0.039719	6.16523	-118.828	4.29847
 142	1	11	0.077452	2.16921	-119.297	-0.673388
 143	1	11	0.09063	0.818955	-119.702	0.399088
 144	1	4	0.230266	4.08579	-122.721	2.30867
 145	1	1	-0.247122	-9.19053	-103.567	-2.80101
 146	1	2	0.139112	-10.221	-103.321	-1.8814
 147	1	2	0.02746	-11.2665	-102.401	-2.14508
 148	1	3	-0.077297	-11.2387	-101.557	-3.42346
 149	1	2	-0.08585	-12.3118	-102.255	-1.19695
 150	1	2	-0.195578	-12.2809	-102.993	0.00147391
 151	1	4	0.171692	-13.074	-102.872	0.73756
 152	1	2	-0.199822	-11.2271	-103.876	0.27073
 153	1	4	0.149498	-11.2109	-104.435	1.20275
 154	1	2	0.076729	-10.1993	-104.046	-0.666211
 155	1	2	-0.057821	-15.0215	-99.7693	-1.06465
 156	1	2	-0.076852	-15.8432	-98.7631	-0.541178
 157	1	4	0.145382	-15.5681	-98.2839	0.395816
 158	1	2	-0.023498	-17.0318	-98.4095	-1.23125
 159	1	4	0.166076	-16.7727	-100.688	-3.83253
 160	1	2	-0.140684	-16.513	-100.136	-2.93099
 161	1	2	-0.058922	-15.35	-100.445	-2.22016
 162	1	3	-0.101954	-17.9842	-97.3477	-0.602946
 163	1	2	-0.067123	-17.3473	-99.1156	-2.42913
 164	1	4	0.142141	-18.2575	-98.9074	-2.97895
 165	1	3	0.321219	-18.9619	-96.6852	-1.64829
 166	1	3	0.382784	-18.8266	-98.1198	0.483598
 167	1	5	-0.111948	-18.3012	-96.2705	-2.75306
 168	1	5	-0.11115	-19.5712	-95.5905	-1.13757
 169	1	5	-0.103632	-19.9516	-97.5099	-2.05954
 170	1	5	-0.110272	-18.0643	-98.4693	1.5445
 171	1	5	-0.120305	-19.3429	-99.2703	-0.00615749
 172	1	5	-0.123663	-19.8727	-97.4062	0.957655
 173	1	6	0.452517	-14.3248	-101.497	-2.45622
 174	1	6	0.453374	-13.763	-100.352	-0.531117
 175	1	7	0.018948	-13.4166	-101.376	-1.40853
 176	1	8	-0.46698	-14.337	-102.321	-3.3556
 177	1	8	-0.469385	-13.1956	-100.013	0.493525
 178	1	3	-0.126657	-9.05549	-105.021	-0.369968
 179	1	2	0.020988	-16.6868	-94.4533	1.63901
 180	1	6	0.027902	-16.8596	-93.575	2.82381
 181	1	8	-0.378193	-17.7155	-93.684	3.68627
 182	1	2	0.043573	-15.6336	-93.9719	0.889083
 183	1	6	0.038038	-15.0858	-92.765	1.56033
 184	1	7	0.4913	-15.8812	-92.5907	2.6924
 185	1	8	-0.382817	-14.1843	-92.0523	1.14965
 186	1	2	0.0054	-17.4543	-95.5448	1.21854
 187	1	2	-0.040988	-15.2863	-94.5604	-0.329023
 188	1	2	-0.085341	-17.1341	-96.181	-0.0123164
 189	1	4	0.154391	-18.2919	-95.8449	1.83832
 190	1	2	-0.205992	-16.0481	-95.662	-0.772703
 191	1	4	0.156637	-14.4706	-94.1545	-0.92352
 192	1	4	0.178085	-15.8015	-96.1029	-1.73643
 193	1	10	0.05178	-10.2131	-101.352	-3.75338
 194	1	10	0.015669	-11.7157	-100.58	-3.28338
 195	1	10	0.036134	-11.7542	-102.072	-4.24367
 196	1	11	0.101096	-8.4447	-104.623	0.448608
 197	1	1	-0.196269	-8.20709	-105.239	-1.56333
 198	1	11	0.131285	-9.484	-105.975	-0.0351282
 199	1	3	-0.292673	-7.89333	-103.951	-2.21081
 200	1	3	-0.034798	-9.50973	-104.448	-3.95034
 201	1	12	0.194395	-7.12482	-104.081	-2.98514
 202	1	12	0.183693	-7.5608	-103.208	-1.47426
 203	1	2	-0.144532	-8.35377	-107.638	-2.10124
 204	1	2	0.128587	-8.58322	-106.278	-2.42443
 205	1	2	0.222203	-8.82496	-108.644	-2.98058
 206	1	2	0.041795	-9.25037	-105.924	-3.62124
 207	1	2	-0.461017	-9.48056	-108.277	-4.1777
 208	1	2	-0.140506	-9.68887	-106.927	-4.49876
 209	1	4	0.148448	-10.2013	-106.654	-5.41932
 210	1	10	0.055442	-6.9354	-108.88	-0.976388
 211	1	10	0.090839	-6.95724	-107.208	-0.45662
 212	1	3	-0.16304	-7.59827	-108.02	-0.82069
 213	1	10	0.039719	-8.29833	-108.275	-0.0150809
 214	1	11	0.077452	-8.89766	-104.161	-4.81388
 215	1	11	0.09063	-10.5633	-104.329	-4.23396
 216	1	4	0.230266	-9.82895	-109.05	-4.8613
 217	1	1	-0.247122	-14.764	-88.051	7.19228
 218	1	2	0.139112	-15.3365	-88.5769	8.36027
 219	1	2	0.02746	-16.1923	-87.816	9.19498
 220	1	3	-0.077297	-16.4911	-86.3464	8.88221
 221	1	2	-0.08585	-16.7854	-88.435	10.3217
 222	1	2	-0.195578	-16.4981	-89.7776	10.6258
 223	1	4	0.171692	-16.9596	-90.2524	11.4896
 224	1	2	-0.199822	-15.6439	-90.5239	9.80135
 225	1	4	0.149498	-15.4447	-91.5677	10.0295
 226	1	2	0.076729	-15.0761	-89.9356	8.66133
 227	1	2	-0.057821	-18.8024	-86.5894	12.7923
 228	1	2	-0.076852	-19.1389	-85.8744	13.9523
 229	1	4	0.145382	-18.3554	-85.6747	14.6758
 230	1	2	-0.023498	-20.4703	-85.3947	14.1281
 231	1	4	0.166076	-21.7654	-86.5799	11.1282
 232	1	2	-0.140684	-21.0426	-86.3839	11.9183
 233	1	2	-0.058922	-19.7287	-86.8336	11.8025
 234	1	3	-0.101954	-20.8504	-84.5635	15.4123
 235	1	2	-0.067123	-21.4011	-85.6707	13.0777
 236	1	4	0.142141	-22.4302	-85.34	13.1189
 237	1	3	0.321219	-22.4121	-84.3015	15.494
 238	1	3	0.382784	-20.4067	-85.3981	16.6826
 239	1	5	-0.111948	-22.8283	-83.4961	14.4897
 240	1	5	-0.11115	-22.8221	-83.6723	16.6166
 241	1	5	-0.103632	-23.1242	-85.4504	15.4432
 242	1	5	-0.110272	-19.0713	-85.351	16.8816
 243	1	5	-0.120305	-20.7475	-86.7009	16.5598
 244	1	5	-0.123663	-20.9417	-84.9726	17.8474
 245	1	6	0.452517	-19.0676	-87.5833	10.7044
 246	1	6	0.453374	-17.5057	-87.1842	12.3586
 247	1	7	0.018948	-17.7522	-87.752	11.1126
 248	1	8	-0.46698	-19.5846	-87.938	9.65842
 249	1	8	-0.469385	-16.4557	-87.1564	12.977
 250	1	3	-0.126657	-14.2023	-90.7778	7.72321
 251	1	2	0.020988	-19.7011	-80.9972	16.401
 252	1	6	0.027902	-19.8293	-79.8277	17.3122
 253	1	8	-0.378193	-20.4942	-79.7863	18.3344
 254	1	2	0.043573	-18.9607	-80.612	15.3053
 255	1	6	0.038038	-18.5452	-79.2009	15.4812
 256	1	7	0.4913	-19.122	-78.7953	16.6869
 257	1	8	-0.382817	-17.9002	-78.5401	14.6826
 258	1	2	0.0054	-20.2723	-82.2728	16.4861
 259	1	2	-0.040988	-18.7834	-81.4629	14.2148
 260	1	2	-0.085341	-20.1347	-83.175	15.3933
 261	1	4	0.154391	-20.8463	-82.5185	17.3736
 262	1	2	-0.205992	-19.392	-82.7334	14.2582
 263	1	4	0.156637	-18.2288	-81.1266	13.3415
 264	1	4	0.178085	-19.2904	-83.3517	13.3726
 265	1	10	0.05178	-15.6898	-85.8769	8.29902
 266	1	10	0.015669	-16.5962	-85.7489	9.79586
 267	1	10	0.036134	-17.422	-86.2523	8.30953
 268	1	11	0.101096	-13.2654	-91.0298	8.23433
 269	1	1	-0.196269	-13.9031	-90.0567	6.4637
 270	1	11	0.131285	-14.7266	-91.7156	7.50057
 271	1	3	-0.292673	-13.4934	-88.672	6.76684
 272	1	3	-0.034798	-15.656	-87.8731	6.02408
 273	1	12	0.194395	-13.0876	-88.1805	5.87187
 274	1	12	0.183693	-12.7512	-88.6446	7.576
 275	1	2	-0.144532	-14.8473	-91.3698	4.58885
 276	1	2	0.128587	-14.8041	-90.2036	5.39701
 277	1	2	0.222203	-15.8005	-91.4478	3.5425
 278	1	2	0.041795	-15.7	-89.1336	5.15358
 279	1	2	-0.461017	-16.6918	-90.375	3.32151
 280	1	2	-0.140506	-16.6417	-89.2243	4.11993
 281	1	4	0.148448	-17.3339	-88.4033	3.94339
 282	1	10	0.055442	-13.3352	-92.7819	3.8879
 283	1	10	0.090839	-13.1082	-92.3187	5.56385
 284	1	3	-0.16304	-13.8751	-92.5354	4.81095
 285	1	10	0.039719	-14.4109	-93.4352	5.13906
 286	1	11	0.077452	-15.3022	-87.0307	5.41724
 287	1	11	0.09063	-16.6754	-87.6409	6.35645
 288	1	4	0.230266	-17.431	-90.4406	2.52498
 289	1	1	-0.247122	-18.5081	-72.9694	19.538
 290	1	2	0.139112	-19.5541	-72.8375	20.4582
 291	1	2	0.02746	-20.3047	-71.6427	20.5781
 292	1	3	-0.077297	-19.9457	-70.4125	19.7373
 293	1	2	-0.08585	-21.3837	-71.5965	21.4941
 294	1	2	-0.195578	-21.679	-72.7186	22.2913
 295	1	4	0.171692	-22.4988	-72.677	23.0062
 296	1	2	-0.199822	-20.9238	-73.896	22.174
 297	1	4	0.149498	-21.1635	-74.7591	22.7897
 298	1	2	0.076729	-19.8665	-73.9645	21.2541
 299	1	2	-0.057821	-23.1718	-68.5293	22.4601
 300	1	2	-0.076852	-23.5923	-67.4567	23.2568
 301	1	4	0.145382	-23.1731	-67.3632	24.253
 302	1	2	-0.023498	-24.571	-66.5611	22.7474
 303	1	4	0.166076	-25.0628	-68.073	19.667
 304	1	2	-0.140684	-24.6505	-67.887	20.6569
 305	1	2	-0.058922	-23.6843	-68.7409	21.1976
 306	1	3	-0.101954	-25.1739	-65.4062	23.599
 307	1	2	-0.067123	-25.0908	-66.8035	21.4446
 308	1	4	0.142141	-25.868	-66.1575	21.0438
 309	1	3	0.321219	-26.5168	-65.9803	24.1977
 310	1	3	0.382784	-24.2399	-64.942	24.783
 311	1	5	-0.111948	-27.4552	-66.1598	23.2402
 312	1	5	-0.11115	-27.0602	-65.1901	25.1514
 313	1	5	-0.103632	-26.3333	-67.1927	24.7696
 314	1	5	-0.110272	-22.9743	-64.7212	24.3613
 315	1	5	-0.120305	-24.1718	-65.8311	25.7995
 316	1	5	-0.123663	-24.666	-63.7781	25.325
 317	1	6	0.452517	-23.0609	-69.9722	20.6413
 318	1	6	0.453374	-22.2028	-69.6187	22.7558
 319	1	7	0.018948	-22.1931	-70.43	21.6271
 320	1	8	-0.46698	-23.2803	-70.4583	19.5445
 321	1	8	-0.469385	-21.5657	-69.7555	23.7861
 322	1	3	-0.126657	-19.0551	-75.2606	21.1049
 323	1	2	0.020988	-24.468	-62.5675	21.0746
 324	1	6	0.027902	-23.5176	-61.8774	20.158
 325	1	8	-0.378193	-22.3897	-62.2448	19.8742
 326	1	2	0.043573	-25.6225	-61.815	21.1403
 327	1	6	0.038038	-25.4663	-60.6191	20.2783
 328	1	7	0.4913	-24.1869	-60.7268	19.7352
 329	1	8	-0.382817	-26.2819	-59.7227	20.1332
 330	1	2	0.0054	-24.314	-63.7357	21.8354
 331	1	2	-0.040988	-26.6862	-62.1848	21.9633
 332	1	2	-0.085341	-25.3727	-64.154	22.6885
 333	1	4	0.154391	-23.3793	-64.2884	21.7783
 334	1	2	-0.205992	-26.5515	-63.3547	22.7368
 335	1	4	0.156637	-27.5798	-61.5664	22.0174
 336	1	4	0.178085	-27.379	-63.6064	23.3911
 337	1	10	0.05178	-20.5296	-70.3929	18.8088
 338	1	10	0.015669	-18.884	-70.3937	19.4636
 339	1	10	0.036134	-20.1365	-69.4767	20.2757
 340	1	11	0.101096	-18.4975	-75.4412	22.0316
 341	1	1	-0.196269	-18.1098	-75.1964	19.963
 342	1	11	0.131285	-19.75	-76.0984	20.9645
 343	1	3	-0.292673	-17.4252	-73.8903	19.9361
 344	1	3	-0.034798	-18.8915	-73.1888	18.1249
 345	1	12	0.194395	-16.6121	-73.8913	19.1975
 346	1	12	0.183693	-17.0302	-73.6291	20.9271
 347	1	2	-0.144532	-18.5929	-77.0345	18.387
 348	1	2	0.128587	-18.568	-75.6558	18.7207
 349	1	2	0.222203	-19.1044	-77.43	17.1213
 350	1	2	0.041795	-19.0008	-74.6808	17.7917
 351	1	2	-0.461017	-19.5744	-76.439	16.2273
 352	1	2	-0.140506	-19.5138	-75.0774	16.5516
 353	1	4	0.148448	-19.8501	-74.3272	15.8386
 354	1	10	0.055442	-17.5801	-78.9281	18.8632
 355	1	10	0.090839	-17.2406	-77.6437	20.0056
 356	1	3	-0.16304	-18.0299	-78.0673	19.372
 357	1	10	0.039719	-18.8182	-78.4427	20.0365
 358	1	11	0.077452	-18.1421	-72.7298	17.4687
 359	1	11	0.09063	-19.8558	-72.7087	17.9156
 360	1	4	0.230266	-19.9495	-76.7296	15.247
 361	1	1	-0.247122	-22.7759	-56.1792	15.2943
 362	1	2	0.139112	-21.9362	-56.6073	14.2591
 363	1	2	0.02746	-20.9279	-55.7814	13.6977
 364	1	3	-0.077297	-20.7199	-54.3521	14.2035
 365	1	2	-0.08585	-20.1197	-56.2923	12.6512
 366	1	2	-0.195578	-20.3392	-57.5992	12.1741
 367	1	4	0.171692	-19.7205	-57.9964	11.3714
 368	1	2	-0.199822	-21.3405	-58.4085	12.7311
 369	1	4	0.149498	-21.4939	-59.4168	12.3557
 370	1	2	0.076729	-22.1357	-57.9224	13.7787
 371	1	2	-0.057821	-17.5152	-54.7594	10.5536
 372	1	2	-0.076852	-16.8186	-54.4988	9.36168
 373	1	4	0.145382	-17.3777	-54.442	8.43206
 374	1	2	-0.023498	-15.3965	-54.4596	9.37709
 375	1	4	0.166076	-14.9569	-54.9114	12.7872
 376	1	2	-0.140684	-15.4695	-54.7638	11.8383
 377	1	2	-0.058922	-16.8568	-54.8954	11.7566
 378	1	3	-0.101954	-14.6131	-54.5195	8.02173
 379	1	2	-0.067123	-14.7487	-54.5592	10.6452
 380	1	4	0.142141	-13.6698	-54.5563	10.7359
 381	1	3	0.321219	-13.0384	-54.5621	8.19766
 382	1	3	0.382784	-15.0418	-55.8794	7.3211
 383	1	5	-0.111948	-12.3935	-54.4881	7.01076
 384	1	5	-0.11115	-12.6061	-55.6898	8.80639
 385	1	5	-0.103632	-12.5613	-53.5201	8.91566
 386	1	5	-0.110272	-14.9971	-56.9172	8.18813
 387	1	5	-0.120305	-14.2593	-56.2282	6.27479
 388	1	5	-0.123663	-16.3054	-55.8521	6.84163
 389	1	6	0.452517	-17.8269	-55.3678	12.7798
 390	1	6	0.453374	-18.9378	-55.1549	10.7676
 391	1	7	0.018948	-19.0239	-55.557	12.0996
 392	1	8	-0.46698	-17.5603	-55.6747	13.9293
 393	1	8	-0.469385	-19.7885	-55.2579	9.90043
 394	1	3	-0.126657	-23.2209	-58.8165	14.4
 395	1	2	0.020988	-14.6611	-50.834	6.92362
 396	1	6	0.027902	-14.2735	-49.4305	7.23361
 397	1	8	-0.378193	-13.9806	-48.9899	8.33294
 398	1	2	0.043573	-14.8703	-50.929	5.56335
 399	1	6	0.038038	-14.6344	-49.6	4.94531
 400	1	7	0.4913	-14.2677	-48.7678	6.0032
 401	1	8	-0.382817	-14.6855	-49.3375	3.75434
 402	1	2	0.0054	-14.6977	-51.9652	7.75235
 403	1	2	-0.040988	-15.1476	-52.155	4.9581
 404	1	2	-0.085341	-14.9	-53.2457	7.16922
 405	1	4	0.154391	-14.4689	-51.8543	8.80901
 406	1	2	-0.205992	-15.1497	-53.3099	5.76679
 407	1	4	0.156637	-15.2852	-52.2157	3.88058
 408	1	4	0.178085	-15.2846	-54.2581	5.25781
 409	1	10	0.05178	-20.4254	-53.6748	13.3932
 410	1	10	0.015669	-19.9378	-54.3204	14.9719
 411	1	10	0.036134	-21.6335	-53.9304	14.6395
 412	1	11	0.101096	-23.9434	-59.0914	13.6223
 413	1	1	-0.196269	-23.9359	-58.1535	15.5207
 414	1	11	0.131285	-22.7495	-59.7403	14.7584
 415	1	3	-0.292673	-24.1485	-56.722	15.238
 416	1	3	-0.034798	-22.2362	-56.2211	16.677
 417	1	12	0.194395	-24.7896	-56.2639	16.0038
 418	1	12	0.183693	-24.5919	-56.5763	14.2437
 419	1	2	-0.144532	-23.991	-59.5545	17.5584
 420	1	2	0.128587	-23.5241	-58.4286	16.8309
 421	1	2	0.222203	-23.6125	-59.7045	18.9172
 422	1	2	0.041795	-22.6742	-57.4785	17.4449
 423	1	2	-0.461017	-22.7345	-58.766	19.5046
 424	1	2	-0.140506	-22.2646	-57.6638	18.7733
 425	1	4	0.148448	-21.6108	-56.9319	19.2437
 426	1	10	0.055442	-25.921	-60.5673	17.4219
 427	1	10	0.090839	-25.1325	-60.3876	15.8606
 428	1	3	-0.16304	-24.9434	-60.576	16.9236
 429	1	10	0.039719	-24.5347	-61.5917	16.9999
 430	1	11	0.077452	-22.58	-55.3345	17.2235
 431	1	11	0.09063	-21.1393	-56.189	16.6515
 432	1	4	0.230266	-22.4405	-58.8789	20.5468
 433	1	1	-0.247122	-13.7091	-42.3403	4.92621
 434	1	2	0.139112	-13.8168	-41.9186	3.59681
 435	1	2	0.02746	-13.3186	-40.6683	3.15339
 436	1	3	-0.077297	-12.5438	-39.7561	4.10548
 437	1	2	-0.08585	-13.66	-40.2137	1.85609
 438	1	2	-0.195578	-14.3924	-41.045	0.988135
 439	1	4	0.171692	-14.6737	-40.6877	-0.000617767
 440	1	2	-0.199822	-14.875	-42.2849	1.43065
 441	1	4	0.149498	-15.5086	-42.8832	0.781097
 442	1	2	0.076729	-14.6399	-42.6964	2.75046
 443	1	2	-0.057821	-12.8348	-36.818	0.646838
 444	1	2	-0.076852	-12.1557	-35.7571	0.0236488
 445	1	4	0.145382	-11.1413	-35.9101	-0.337245
 446	1	2	-0.023498	-12.8184	-34.5093	-0.149813
 447	1	4	0.166076	-15.8372	-35.3606	1.32513
 448	1	2	-0.140684	-14.8122	-35.4564	0.970828
 449	1	2	-0.058922	-14.1246	-36.6626	1.11018
 450	1	3	-0.101954	-12.0909	-33.354	-0.909884
 451	1	2	-0.067123	-14.155	-34.3888	0.331973
 452	1	4	0.142141	-14.7224	-33.474	0.210844
 453	1	3	0.321219	-12.0335	-33.7916	-2.42549
 454	1	3	0.382784	-12.8295	-31.962	-0.807317
 455	1	5	-0.111948	-11.697	-32.7898	-3.26853
 456	1	5	-0.11115	-13.2306	-34.2569	-2.85026
 457	1	5	-0.103632	-11.1416	-34.7869	-2.62769
 458	1	5	-0.110272	-12.0799	-30.9518	-1.30548
 459	1	5	-0.120305	-13.0872	-31.6246	0.477433
 460	1	5	-0.123663	-14.0037	-31.9329	-1.47817
 461	1	6	0.452517	-14.5842	-37.9533	1.67641
 462	1	6	0.453374	-12.4286	-38.2358	0.896934
 463	1	7	0.018948	-13.5308	-38.8394	1.49731
 464	1	8	-0.46698	-15.6807	-38.1739	2.16294
 465	1	8	-0.469385	-11.362	-38.7471	0.603173
 466	1	3	-0.126657	-15.3813	-43.9183	3.31211
 467	1	2	0.020988	-8.36057	-32.43	-0.382219
 468	1	6	0.027902	-7.05941	-31.9578	-0.92807
 469	1	8	-0.378193	-6.78695	-31.7888	-2.10528
 470	1	2	0.043573	-8.25619	-32.4971	0.991844
 471	1	6	0.038038	-6.89137	-32.0704	1.38642
 472	1	7	0.4913	-6.24627	-31.7597	0.189619
 473	1	8	-0.382817	-6.45724	-32.0	2.52488
 474	1	2	0.0054	-9.55675	-32.7367	-1.04277
 475	1	2	-0.040988	-9.33881	-32.8807	1.78554
 476	1	2	-0.085341	-10.6881	-33.1288	-0.274634
 477	1	4	0.154391	-9.5891	-32.6301	-2.12152
 478	1	2	-0.205992	-10.554	-33.189	1.14089
 479	1	4	0.156637	-9.24396	-32.9107	2.8689
 480	1	4	0.178085	-11.4108	-33.4461	1.75999
 481	1	10	0.05178	-12.0154	-40.3239	4.88051
 482	1	10	0.015669	-13.2189	-39.0518	4.6068
 483	1	10	0.036134	-11.7812	-39.1744	3.57357
 484	1	11	0.101096	-16.4499	-43.8155	3.08965
 485	1	1	-0.196269	-15.2087	-44.0813	4.78027
 486	1	11	0.131285	-15.0208	-44.8152	2.79224
 487	1	3	-0.292673	-14.9979	-42.7984	5.47847
 488	1	3	-0.034798	-12.5865	-43.2485	5.303
 489	1	12	0.194395	-14.9328	-42.9471	6.56506
 490	1	12	0.183693	-15.8031	-42.0875	5.24644
 491	1	2	-0.144532	-14.795	-46.4242	5.38733
 492	1	2	0.128587	-14.3513	-45.093	5.20439
 493	1	2	0.222203	-13.8706	-47.4036	5.82935
 494	1	2	0.041795	-13.0175	-44.7187	5.47261
 495	1	2	-0.461017	-12.5318	-47.0224	6.08753
 496	1	2	-0.140506	-12.108	-45.6921	5.91406
 497	1	4	0.148448	-11.0784	-45.4117	6.12751
 498	1	10	0.055442	-16.9353	-45.9415	5.33383
 499	1	10	0.090839	-16.4141	-47.0795	4.08182
 500	1	3	-0.16304	-16.2641	-46.7847	5.12872
 501	1	10	0.039719	-16.612	-47.608	5.76393
 502	1	11	0.077452	-12.1473	-42.8997	6.24551
 503	1	11	0.09063	-11.8011	-43.2012	4.53779
 504	1	4	0.230266	-11.8187	-47.766	6.44013
 505	1	1	-0.247122	-0.560194	-28.5979	-0.075247
 506	1	2	0.139112	-0.150838	-28.3826	-1.39608
 507	1	2	0.02746	1.2054	-28.4816	-1.79458
 508	1	3	-0.077297	2.27875	-28.8722	-0.771868
 509	1	2	-0.08585	1.54417	-28.2198	-3.14621
 510	1	2	-0.195578	0.536962	-27.8938	-4.07386
 511	1	4	0.171692	0.796812	-27.7011	-5.11311
 512	1	2	-0.199822	-0.803966	-27.8041	-3.67132
 513	1	4	0.149498	-1.5726	-27.5445	-4.39453
 514	1	2	0.076729	-1.15257	-28.0374	-2.33307
 515	1	2	-0.057821	5.05382	-27.6069	-4.05901
 516	1	2	-0.076852	6.2892	-26.9504	-4.12955
 517	1	4	0.145382	6.4098	-26.0289	-3.5701
 518	1	2	-0.023498	7.32825	-27.5153	-4.91775
 519	1	4	0.166076	5.62324	-30.3262	-6.02339
 520	1	2	-0.140684	5.81447	-29.3889	-5.50425
 521	1	2	-0.058922	4.82072	-28.7942	-4.72
 522	1	3	-0.101954	8.75068	-26.8839	-5.02325
 523	1	2	-0.067123	7.06423	-28.7405	-5.59354
 524	1	4	0.142141	7.84276	-29.2014	-6.19632
 525	1	3	0.321219	8.80924	-25.3824	-4.54693
 526	1	3	0.382784	9.68146	-27.7592	-4.09615
 527	1	5	-0.111948	9.99266	-24.8044	-4.85563
 528	1	5	-0.11115	8.6529	-25.2416	-3.21119
 529	1	5	-0.103632	7.8598	-24.6311	-5.14979
 530	1	5	-0.110272	9.11425	-27.9813	-2.88823
 531	1	5	-0.120305	10.8865	-27.1971	-3.85152
 532	1	5	-0.123663	9.91766	-28.977	-4.63492
 533	1	6	0.452517	3.42331	-29.2227	-4.43155
 534	1	6	0.453374	3.81144	-27.2284	-3.33499
 535	1	7	0.018948	2.89453	-28.2389	-3.60422
 536	1	8	-0.46698	2.86847	-30.2165	-4.8685
 537	1	8	-0.469385	3.64516	-26.2196	-2.6708
 538	1	3	-0.126657	-2.61666	-27.9085	-1.88497
 539	1	2	0.020988	10.877	-27.0211	-8.26609
 540	1	6	0.027902	12.1954	-27.185	-8.92646
 541	1	8	-0.378193	13.2549	-27.4189	-8.36808
 542	1	2	0.043573	9.93789	-26.7292	-9.23284
 543	1	6	0.038038	10.6117	-26.7073	-10.5579
 544	1	7	0.4913	11.9507	-26.9951	-10.2881
 545	1	8	-0.382817	10.0833	-26.4796	-11.6341
 546	1	2	0.0054	10.5433	-27.0999	-6.90987
 547	1	2	-0.040988	8.60592	-26.4819	-8.89168
 548	1	2	-0.085341	9.19572	-26.8775	-6.51704
 549	1	4	0.154391	11.3356	-27.3115	-6.20056
 550	1	2	-0.205992	8.24774	-26.5506	-7.52803
 551	1	4	0.156637	7.87908	-26.228	-9.66036
 552	1	4	0.178085	7.21785	-26.3291	-7.25528
 553	1	10	0.05178	2.02401	-28.5289	0.238208
 554	1	10	0.015669	3.26019	-28.4427	-0.996566
 555	1	10	0.036134	2.39536	-29.9621	-0.733374
 556	1	11	0.101096	-2.94904	-26.8766	-2.0488
 557	1	1	-0.196269	-2.80276	-28.2634	-0.455776
 558	1	11	0.131285	-3.23653	-28.5617	-2.51262
 559	1	3	-0.292673	-1.68864	-27.7548	0.365284
 560	1	3	-0.034798	-0.73499	-30.0027	0.367562
 561	1	12	0.194395	-1.89491	-27.8932	1.43537
 562	1	12	0.183693	-1.49459	-26.694	0.156309
 563	1	2	-0.144532	-4.55834	-29.979	-0.206331
 564	1	2	0.128587	-3.20152	-29.5709	-0.15561
 565	1	2	0.222203	-4.88914	-31.3148	0.140327
 566	1	2	0.041795	-2.19083	-30.474	0.248778
 567	1	2	-0.461017	-3.86358	-32.2108	0.518841
 568	1	2	-0.140506	-2.52514	-31.7954	0.573943
 569	1	4	0.148448	-1.74848	-32.4887	0.890524
 570	1	10	0.055442	-6.55843	-29.1048	0.0304665
 571	1	10	0.090839	-5.3453	-27.9364	-0.452795
 572	1	3	-0.16304	-5.65952	-28.9791	-0.585433
 573	1	10	0.039719	-5.95154	-29.102	-1.63608
 574	1	11	0.077452	-0.416866	-30.094	1.41328
 575	1	11	0.09063	-0.100194	-30.667	-0.23234
 576	1	4	0.230266	-4.11609	-33.2293	0.809097
 577	1	1	-0.247122	17.0349	-28.3541	-14.0934
 578	1	2	0.139112	18.1204	-28.4343	-13.2088
 579	1	2	0.02746	19.404	-27.9183	-13.5214
 580	1	3	-0.077297	19.6832	-27.2495	-14.8704
 581	1	2	-0.08585	20.4509	-28.0647	-12.5784
 582	1	2	-0.195578	20.2109	-28.693	-11.3436
 583	1	4	0.171692	21.0195	-28.8103	-10.6246
 584	1	2	-0.199822	18.943	-29.2063	-11.0427
 585	1	4	0.149498	18.7718	-29.7094	-10.0948
 586	1	2	0.076729	17.9027	-29.0953	-11.9756
 587	1	2	-0.057821	24.0321	-27.7381	-13.3068
 588	1	2	-0.076852	25.3459	-28.1388	-13.5807
 589	1	4	0.145382	25.5357	-29.1903	-13.7697
 590	1	2	-0.023498	26.3751	-27.161	-13.5854
 591	1	4	0.166076	24.4398	-24.4034	-12.7614
 592	1	2	-0.140684	24.6954	-25.4335	-13.0026
 593	1	2	-0.058922	23.7105	-26.4253	-13.0311
 594	1	3	-0.101954	27.8671	-27.5095	-13.8632
 595	1	2	-0.067123	26.0247	-25.8155	-13.2765
 596	1	4	0.142141	26.7965	-25.0505	-13.2428
 597	1	3	0.321219	28.5657	-27.6054	-12.4528
 598	1	3	0.382784	28.0686	-28.8728	-14.6328
 599	1	5	-0.111948	27.8837	-28.4151	-11.6112
 600	1	5	-0.11115	28.6286	-26.4007	-11.8414
 601	1	5	-0.103632	29.8271	-28.0882	-12.5164
 602	1	5	-0.110272	29.3366	-29.0022	-15.0862
 603	1	5	-0.120305	27.2694	-28.9612	-15.7202
 604	1	5	-0.123663	27.8222	-29.9629	-13.8719
 605	1	6	0.452517	22.2494	-26.3496	-12.7518
 606	1	6	0.453374	22.7906	-28.5479	-13.2082
 607	1	7	0.018948	21.7844	-27.6542	-12.8628
 608	1	8	-0.46698	21.6189	-25.3457	-12.4672
 609	1	8	-0.469385	22.7033	-29.7529	-13.3707
 610	1	3	-0.126657	16.5379	-29.7189	-11.6621
 611	1	2	0.020988	30.1465	-24.7755	-15.4191
 612	1	6	0.027902	31.3761	-23.9448	-15.375
 613	1	8	-0.378193	32.2575	-24.0029	-14.5335
 614	1	2	0.043573	29.4007	-24.3907	-16.5143
 615	1	6	0.038038	30.1209	-23.3041	-17.2233
 616	1	7	0.4913	31.2753	-23.0876	-16.4708
 617	1	8	-0.382817	29.7496	-22.7272	-18.2328
 618	1	2	0.0054	29.7109	-25.7762	-14.5433
 619	1	2	-0.040988	28.1713	-24.9865	-16.7989
 620	1	2	-0.085341	28.4544	-26.3965	-14.7816