pySIMM System Object

2018 atoms
2241 bonds
4032 angles
6212 dihedrals
560 impropers

12 atom types
15 bond types
28 angle types
9 dihedral types
4 improper types

-197.645253 197.645253 xlo xhi
-197.645253 197.645253 ylo yhi
-197.645253 197.645253 zlo zhi

Masses

   1	14.01	# nh
   2	12.01	# ca
   3	12.01	# c3
   4	1.008	# ha
   5	19.0	# f
   6	12.01	# c
   7	14.01	# n
   8	16.0	# o
   9	1.008	# hn
  10	1.008	# hc
  11	1.008	# h1
  12	1.008	# h2

Pair Coeffs

   1	0.17	3.249998523775958	# nh
   2	0.086	3.3996695084235347	# ca
   3	0.1094	3.3996695084235347	# c3
   4	0.015	2.59964245953351	# ha
   5	0.061	3.1181455134911875	# f
   6	0.086	3.3996695084235347	# c
   7	0.17	3.249998523775958	# n
   8	0.21	2.959921901149463	# o
   9	0.0157	1.069078461768407	# hn
  10	0.0157	2.649532787749369	# hc
  11	0.0157	2.471353044121301	# h1
  12	0.0157	2.2931733004932333	# h2

Bond Coeffs

   1	356.9	1.3497	# c3,f
   2	403.2	1.0129	# hn,n
   3	417.9	1.3859	# ca,nh
   4	300.9	1.5375	# c3,c3
   5	384.2	1.4121	# ca,n
   6	330.6	1.0969	# c3,h1
   7	461.1	1.3984	# ca,ca
   8	326.6	1.464	# c3,nh
   9	427.6	1.3789	# c,n
  10	331.7	1.0961	# c3,h2
  11	345.9	1.4906	# c,ca
  12	345.8	1.086	# ca,ha
  13	321.0	1.5156	# c3,ca
  14	330.6	1.0969	# c3,hc
  15	637.7	1.2183	# c,o

Angle Coeffs

   1	71.11	105.87	# nh,c3,nh
   2	63.25	114.51	# c3,nh,c3
   3	74.22	123.05	# n,c,o
   4	66.62	120.02	# ca,ca,ca
   5	68.29	120.95	# ca,ca,nh
   6	49.52	110.01	# h2,c3,nh
   7	68.72	122.6	# ca,c,o
   8	49.57	109.79	# h1,c3,nh
   9	67.68	115.25	# ca,c,n
  10	66.46	111.39	# ca,c3,nh
  11	48.33	117.55	# c,n,hn
  12	64.28	120.33	# c,ca,ca
  13	39.4	107.58	# hc,c3,hc
  14	63.53	120.77	# c3,ca,ca
  15	70.89	107.36	# f,c3,f
  16	67.87	120.19	# ca,ca,n
  17	46.8	110.47	# ca,c3,hc
  18	46.99	109.56	# ca,c3,h1
  19	62.86	111.51	# c3,c3,c3
  20	66.11	109.24	# c3,c3,f
  21	63.15	112.07	# c3,c3,ca
  22	38.96	110.2	# h2,c3,h2
  23	63.82	123.71	# c,n,ca
  24	39.24	108.46	# h1,c3,h1
  25	63.56	112.24	# ca,c3,ca
  26	63.39	119.98	# c3,nh,ca
  27	63.74	127.08	# c,n,c
  28	48.18	119.88	# ca,ca,ha

Dihedral Coeffs

   1	2	2.5	2	180	2.0	1	0	# hn,n,c,o
   2	1	0.0	2	0	# X,c3,nh,X
   3	1	3.625	2	180	# X,ca,ca,X
   4	1	0.0	2	0	# X,c3,ca,X
   5	1	1.0	2	180	# X,c,ca,X
   6	1	0.15555555555555556	3	0	# X,c3,c3,X
   7	1	2.5	2	180	# X,c,n,X
   8	1	0.45	2	180	# X,ca,n,X
   9	1	1.05	2	180	# X,ca,nh,X

Improper Coeffs

   1	10.5	-1	2	# c,X,X,o
   2	1.1	-1	2	# n,X,X,hn
   3	1.1	-1	2	# ca,ca,ca,c3
   4	1.1	-1	2	# ca,X,X,ha

Atoms

   1	1	1	-0.247122	72.9525	22.8546	103.686
   2	1	2	0.139112	72.4843	21.8566	102.816
   3	1	2	0.02746	72.0975	22.135	101.481
   4	1	3	-0.077297	72.0858	23.5734	100.955
   5	1	2	-0.08585	71.7077	21.0652	100.639
   6	1	2	-0.195578	71.6701	19.75	101.136
   7	1	4	0.171692	71.3586	18.9307	100.491
   8	1	2	-0.199822	72.0364	19.4814	102.462
   9	1	4	0.149498	72.0124	18.4615	102.837
  10	1	2	0.076729	72.4526	20.526	103.299
  11	1	2	-0.057821	70.199	21.38	97.3014
  12	1	2	-0.076852	69.2234	21.322	96.2981
  13	1	4	0.145382	68.2067	21.079	96.587
  14	1	2	-0.023498	69.6057	21.5487	94.9482
  15	1	4	0.166076	72.9952	22.0525	95.4815
  16	1	2	-0.140684	71.9455	21.8661	95.7008
  17	1	2	-0.058922	71.5209	21.6485	97.0151
  18	1	3	-0.101954	68.6024	21.429	93.7612
  19	1	2	-0.067123	70.9796	21.8045	94.6749
  20	1	4	0.142141	71.3092	21.9441	93.6483
  21	1	3	0.321219	68.7833	19.9678	93.1972
  22	1	3	0.382784	67.0998	21.6424	94.1892
  23	1	5	-0.111948	69.97	19.8255	92.5645
  24	1	5	-0.11115	67.8161	19.6055	92.325
  25	1	5	-0.103632	68.7688	19.0434	94.1847
  26	1	5	-0.110272	66.9517	22.7587	94.9382
  27	1	5	-0.120305	66.5892	20.611	94.899
  28	1	5	-0.123663	66.2931	21.798	93.1144
  29	1	6	0.452517	72.294	21.5945	98.2856
  30	1	6	0.453374	70.0813	21.1377	98.7643
  31	1	7	0.018948	71.3672	21.2773	99.272
  32	1	8	-0.46698	73.4945	21.7716	98.407
  33	1	8	-0.469385	69.0623	20.8441	99.3658
  34	1	3	-0.126657	72.8968	20.2173	104.733
  35	1	2	0.020988	69.0895	23.3717	90.4333
  36	1	6	0.027902	69.0587	23.4027	88.9493
  37	1	8	-0.378193	68.8107	22.464	88.2109
  38	1	2	0.043573	69.3923	24.6379	90.8896
  39	1	6	0.038038	69.5824	25.532	89.7176
  40	1	7	0.4913	69.3561	24.7208	88.6062
  41	1	8	-0.382817	69.8634	26.719	89.7467
  42	1	2	0.0054	68.8446	22.3091	91.3099
  43	1	2	-0.040988	69.4497	24.917	92.257
  44	1	2	-0.085341	68.912	22.5403	92.7111
  45	1	4	0.154391	68.596	21.3438	90.8832
  46	1	2	-0.205992	69.1983	23.8612	93.1594
  47	1	4	0.156637	69.667	25.925	92.6037
  48	1	4	0.178085	69.2182	24.0796	94.2255
  49	1	10	0.05178	71.9537	24.3051	101.761
  50	1	10	0.015669	71.2627	23.7429	100.251
  51	1	10	0.036134	73.025	23.8087	100.44
  52	1	11	0.101096	72.0193	19.9448	105.331
  53	1	1	-0.196269	73.5743	21.3823	105.343
  54	1	11	0.131285	73.5736	19.3549	104.715
  55	1	3	-0.292673	72.7599	22.5945	105.127
  56	1	3	-0.034798	74.3235	23.3634	103.451
  57	1	12	0.194395	73.1338	23.4281	105.737
  58	1	12	0.183693	71.7015	22.4106	105.356
  59	1	2	-0.144532	75.9115	20.7046	105.748
  60	1	2	0.128587	74.9508	21.5225	105.107
  61	1	2	0.222203	77.2735	20.8755	105.439
  62	1	2	0.041795	75.3664	22.4985	104.167
  63	1	2	-0.461017	77.6821	21.8456	104.511
  64	1	2	-0.140506	76.731	22.659	103.874
  65	1	4	0.148448	77.0456	23.4057	103.149
  66	1	10	0.055442	76.3354	19.4396	107.474
  67	1	10	0.090839	74.6565	19.9761	107.379
  68	1	3	-0.16304	75.5138	19.649	106.778
  69	1	10	0.039719	75.2457	18.7046	106.289
  70	1	11	0.077452	74.3995	24.3951	103.815
  71	1	11	0.09063	74.5468	23.3693	102.377
  72	1	4	0.230266	78.7399	21.9569	104.288
  73	1	1	-0.247122	68.3368	26.525	82.4957
  74	1	2	0.139112	67.6569	25.366	82.0816
  75	1	2	0.02746	68.0782	24.607	80.9629
  76	1	3	-0.077297	69.1872	25.1196	80.0386
  77	1	2	-0.08585	67.479	23.3482	80.7198
  78	1	2	-0.195578	66.3986	22.9113	81.5062
  79	1	4	0.171692	65.9387	21.9435	81.3147
  80	1	2	-0.199822	65.9488	23.6892	82.5817
  81	1	4	0.149498	65.1401	23.3277	83.2114
  82	1	2	0.076729	66.5998	24.8912	82.8968
  83	1	2	-0.057821	68.4341	20.9686	78.079
  84	1	2	-0.076852	68.3541	20.1685	76.9321
  85	1	4	0.145382	67.4823	20.2469	76.2864
  86	1	2	-0.023498	69.414	19.2685	76.6388
  87	1	4	0.166076	71.4175	19.9632	79.3781
  88	1	2	-0.140684	70.578	20.0198	78.6874
  89	1	2	-0.058922	69.5193	20.8975	78.9265
  90	1	3	-0.101954	69.3044	18.3634	75.3764
  91	1	2	-0.067123	70.5138	19.2035	77.5426
  92	1	4	0.142141	71.337	18.5173	77.3844
  93	1	3	0.321219	70.6632	17.6763	74.9678
  94	1	3	0.382784	68.2439	17.2494	75.7318
  95	1	5	-0.111948	71.6682	18.5769	74.8735
  96	1	5	-0.11115	70.5824	17.0827	73.7551
  97	1	5	-0.103632	71.0558	16.7164	75.8359
  98	1	5	-0.110272	66.988	17.7488	75.7726
  99	1	5	-0.120305	68.4803	16.7105	76.95
 100	1	5	-0.123663	68.2277	16.2173	74.8589
 101	1	6	0.452517	69.3007	21.8399	80.0488
 102	1	6	0.453374	67.474	21.9619	78.6388
 103	1	7	0.018948	68.066	22.4289	79.8065
 104	1	8	-0.46698	70.0581	22.0277	80.9862
 105	1	8	-0.469385	66.3889	22.2629	78.1722
 106	1	3	-0.126657	66.2187	25.6466	84.173
 107	1	2	0.020988	67.7735	19.5977	72.0418
 108	1	6	0.027902	66.9843	19.3128	70.8213
 109	1	8	-0.378193	66.4223	18.2619	70.5578
 110	1	2	0.043573	68.2975	20.8694	71.9386
 111	1	6	0.038038	67.8549	21.4613	70.6492
 112	1	7	0.4913	67.0802	20.4697	70.047
 113	1	8	-0.382817	68.158	22.5599	70.2127
 114	1	2	0.0054	68.0495	18.7674	73.1313
 115	1	2	-0.040988	69.1461	21.3801	72.9232
 116	1	2	-0.085341	68.8926	19.2504	74.1658
 117	1	4	0.154391	67.6296	17.7676	73.1326
 118	1	2	-0.205992	69.4455	20.5563	74.0292
 119	1	4	0.156637	69.5767	22.3735	72.8179
 120	1	4	0.178085	70.1341	20.9379	74.7801
 121	1	10	0.05178	69.2306	26.2156	80.0243
 122	1	10	0.015669	69.0246	24.8038	79.0006
 123	1	10	0.036134	70.1699	24.7479	80.3523
 124	1	11	0.101096	65.2685	26.1708	84.0157
 125	1	1	-0.196269	67.275	26.6161	84.5386
 126	1	11	0.131285	66.0749	24.9213	84.9824
 127	1	3	-0.292673	67.5797	27.4534	83.3609
 128	1	3	-0.034798	69.687	26.3284	83.0695
 129	1	12	0.194395	68.1894	28.3206	83.6493
 130	1	12	0.183693	66.6611	27.7936	82.8646
 131	1	2	-0.144532	68.292	25.7455	86.6213
 132	1	2	0.128587	68.3814	26.1275	85.2578
 133	1	2	0.222203	69.4259	25.1786	87.2573
 134	1	2	0.041795	69.5992	25.9603	84.5531
 135	1	2	-0.461017	70.6312	25.0213	86.5385
 136	1	2	-0.140506	70.719	25.4141	85.1956
 137	1	4	0.148448	71.6449	25.2723	84.6412
 138	1	10	0.055442	66.3229	26.6695	86.947
 139	1	10	0.090839	66.4345	24.9832	87.4782
 140	1	3	-0.16304	66.9874	25.9288	87.4081
 141	1	10	0.039719	67.1732	26.2876	88.4276
 142	1	11	0.077452	70.2759	27.2469	82.9579
 143	1	11	0.09063	70.2163	25.5257	82.5426
 144	1	4	0.230266	71.4977	24.5733	87.0211
 145	1	1	-0.247122	63.615	19.8043	64.677
 146	1	2	0.139112	63.4636	18.4106	64.7921
 147	1	2	0.02746	63.7633	17.5236	63.727
 148	1	3	-0.077297	64.1535	18.0687	62.3497
 149	1	2	-0.08585	63.6864	16.1255	63.9493
 150	1	2	-0.195578	63.2751	15.631	65.2005
 151	1	4	0.171692	63.2099	14.5575	65.3692
 152	1	2	-0.199822	62.955	16.5103	66.2425
 153	1	4	0.149498	62.6501	16.1186	67.2095
 154	1	2	0.076729	63.0578	17.8943	66.0474
 155	1	2	-0.057821	64.0144	13.3929	61.5087
 156	1	2	-0.076852	63.6691	12.2603	60.7594
 157	1	4	0.145382	62.6416	11.9034	60.7735
 158	1	2	-0.023498	64.6733	11.5877	60.0147
 159	1	4	0.166076	67.3532	13.6082	60.8886
 160	1	2	-0.140684	66.3311	13.2373	60.8338
 161	1	2	-0.058922	65.3085	13.8665	61.5482
 162	1	3	-0.101954	64.2942	10.2857	59.243
 163	1	2	-0.067123	66.0042	12.0974	60.0715
 164	1	4	0.142141	66.8167	11.6114	59.5446
 165	1	3	0.321219	65.3722	9.8507	58.1777
 166	1	3	0.382784	64.1598	9.15977	60.3398
 167	1	5	-0.111948	65.7015	10.8759	57.3589
 168	1	5	-0.11115	64.9168	8.86284	57.3733
 169	1	5	-0.103632	66.5158	9.38976	58.7331
 170	1	5	-0.110272	63.0419	9.32118	61.083
 171	1	5	-0.120305	65.2008	9.18043	61.2038
 172	1	5	-0.123663	64.1175	7.90859	59.8299
 173	1	6	0.452517	65.3561	15.0278	62.4756
 174	1	6	0.453374	63.1855	14.2406	62.4069
 175	1	7	0.018948	64.0571	15.1799	62.9484
 176	1	8	-0.46698	66.3511	15.6643	62.7799
 177	1	8	-0.469385	61.9987	14.0909	62.6421
 178	1	3	-0.126657	62.7664	18.8437	67.2126
 179	1	2	0.020988	60.9358	9.7434	57.3748
 180	1	6	0.027902	59.8716	8.82415	56.8891
 181	1	8	-0.378193	59.7384	7.64831	57.1869
 182	1	2	0.043573	60.7548	10.9724	56.7745
 183	1	6	0.038038	59.5714	10.8974	55.8834
 184	1	7	0.4913	59.1156	9.58427	55.9951
 185	1	8	-0.382817	59.1519	11.789	55.1634
 186	1	2	0.0054	62.0311	9.48887	58.2092
 187	1	2	-0.040988	61.6576	12.0183	56.9739
 188	1	2	-0.085341	62.9799	10.5238	58.4399
 189	1	4	0.154391	62.1444	8.48916	58.6134
 190	1	2	-0.205992	62.7735	11.7792	57.8014
 191	1	4	0.156637	61.5162	12.971	56.4681
 192	1	4	0.178085	63.5047	12.5765	57.9156
 193	1	10	0.05178	63.7132	19.0553	62.1609
 194	1	10	0.015669	63.8067	17.4172	61.5387
 195	1	10	0.036134	65.2424	18.1662	62.2607
 196	1	11	0.101096	61.6844	18.8821	67.3867
 197	1	1	-0.196269	63.2784	20.2009	66.9229
 198	1	11	0.131285	63.2395	18.444	68.1179
 199	1	3	-0.292673	62.7959	20.6249	65.5936
 200	1	3	-0.034798	64.9995	20.3274	64.6693
 201	1	12	0.194395	62.9738	21.6979	65.4394
 202	1	12	0.183693	61.7274	20.4034	65.4695
 203	1	2	-0.144532	65.1302	20.5075	68.5222
 204	1	2	0.128587	64.6369	20.4299	67.1961
 205	1	2	0.222203	66.5305	20.5693	68.7344
 206	1	2	0.041795	65.53	20.4787	66.0981
 207	1	2	-0.461017	67.4047	20.6465	67.6275
 208	1	2	-0.140506	66.9078	20.614	66.3169
 209	1	4	0.148448	67.5905	20.6489	65.4702
 210	1	10	0.055442	64.5271	21.1537	70.5312
 211	1	10	0.090839	63.1767	20.9103	69.4395
 212	1	3	-0.16304	64.1637	20.5174	69.7148
 213	1	10	0.039719	64.0176	19.5067	70.1156
 214	1	11	0.077452	65.0255	21.3034	64.1694
 215	1	11	0.09063	65.6609	19.6492	64.1167
 216	1	4	0.230266	68.4795	20.7117	67.79
 217	1	1	-0.247122	53.6611	7.2952	53.2873
 218	1	2	0.139112	53.5615	5.93295	53.5973
 219	1	2	0.02746	53.2008	4.96382	52.6295
 220	1	3	-0.077297	52.8141	5.39478	51.2112
 221	1	2	-0.08585	53.1973	3.59499	52.9937
 222	1	2	-0.195578	53.4953	3.21795	54.3167
 223	1	4	0.171692	53.4813	2.16683	54.5996
 224	1	2	-0.199822	53.8307	4.18502	55.2758
 225	1	4	0.149498	54.0738	3.88232	56.291
 226	1	2	0.076729	53.8838	5.54003	54.9177
 227	1	2	-0.057821	52.1349	0.714121	50.9624
 228	1	2	-0.076852	51.4133	-0.423911	50.5779
 229	1	4	0.145382	50.5032	-0.68426	51.1136
 230	1	2	-0.023498	51.8986	-1.22868	49.5128
 231	1	4	0.166076	54.7467	0.607466	48.7834
 232	1	2	-0.140684	53.8142	0.32066	49.2662
 233	1	2	-0.058922	53.3013	1.07697	50.3233
 234	1	3	-0.101954	51.1199	-2.52691	49.1383
 235	1	2	-0.067123	53.1095	-0.834666	48.8718
 236	1	4	0.142141	53.5381	-1.42125	48.0676
 237	1	3	0.321219	51.5549	-3.15595	47.7586
 238	1	3	0.382784	51.4155	-3.56265	50.2921
 239	1	5	-0.111948	51.5359	-2.24225	46.7614
 240	1	5	-0.11115	50.7159	-4.14389	47.3714
 241	1	5	-0.103632	52.7949	-3.6951	47.7871
 242	1	5	-0.110272	50.8036	-3.21746	51.4473
 243	1	5	-0.120305	52.7378	-3.63226	50.5688
 244	1	5	-0.123663	51.0195	-4.82208	50.0014
 245	1	6	0.452517	53.8505	2.28248	50.9974
 246	1	6	0.453374	51.899	1.67644	52.074
 247	1	7	0.018948	52.9679	2.56576	52.0336
 248	1	8	-0.46698	54.8875	2.85667	50.7105
 249	1	8	-0.469385	50.9825	1.63792	52.8769
 250	1	3	-0.126657	54.31	6.59109	55.9521
 251	1	2	0.020988	47.2388	-2.6535	49.1976
 252	1	6	0.027902	45.9735	-3.37132	49.5072
 253	1	8	-0.378193	45.8715	-4.45531	50.0579
 254	1	2	0.043573	46.9218	-1.47677	48.55
 255	1	6	0.038038	45.4479	-1.3867	48.4178
 256	1	7	0.4913	44.9603	-2.55169	49.007
 257	1	8	-0.382817	44.8234	-0.489456	47.8753
 258	1	2	0.0054	48.568	-3.02981	49.4286
 259	1	2	-0.040988	47.9134	-0.608209	48.0925
 260	1	2	-0.085341	49.6121	-2.16883	48.9909
 261	1	4	0.154391	48.7556	-3.98042	49.9161
 262	1	2	-0.205992	49.2574	-0.968	48.3141
 263	1	4	0.156637	47.6458	0.304781	47.5649
 264	1	4	0.178085	50.0335	-0.307358	47.9335
 265	1	10	0.05178	52.3421	6.38496	51.2021
 266	1	10	0.015669	52.0923	4.70727	50.754
 267	1	10	0.036134	53.6964	5.43923	50.5612
 268	1	11	0.101096	53.5473	6.65078	56.7376
 269	1	1	-0.196269	54.4924	7.9278	55.3375
 270	1	11	0.131285	55.2478	6.26557	56.4193
 271	1	3	-0.292673	53.3871	8.21962	54.4054
 272	1	3	-0.034798	54.8662	7.72362	52.5383
 273	1	12	0.194395	53.423	9.26674	54.0746
 274	1	12	0.183693	52.413	8.00593	54.8653
 275	1	2	-0.144532	56.7982	8.71692	55.7365
 276	1	2	0.128587	55.7698	8.26635	54.87
 277	1	2	0.222203	58.0594	9.06352	55.1867
 278	1	2	0.041795	55.9954	8.16759	53.4763
 279	1	2	-0.461017	58.2725	8.9385	53.795
 280	1	2	-0.140506	57.2501	8.49368	52.9452
 281	1	4	0.148448	57.4212	8.41753	51.8731
 282	1	10	0.055442	55.4842	9.07324	57.4586
 283	1	10	0.090839	56.8044	7.93428	57.771
 284	1	3	-0.16304	56.538	8.85866	57.2419
 285	1	10	0.039719	57.1122	9.67794	57.6906
 286	1	11	0.077452	54.6061	8.55573	51.8729
 287	1	11	0.09063	55.2343	6.90009	51.913
 288	1	4	0.230266	59.234	9.21942	53.3683
 289	1	1	-0.247122	38.6933	-3.72014	50.2486
 290	1	2	0.139112	38.6192	-4.97634	50.8637
 291	1	2	0.02746	37.6384	-5.93419	50.5089
 292	1	3	-0.077297	36.5798	-5.61008	49.449
 293	1	2	-0.08585	37.6424	-7.1941	51.1553
 294	1	2	-0.195578	38.5965	-7.47482	52.1509
 295	1	4	0.171692	38.5893	-8.43931	52.6553
 296	1	2	-0.199822	39.563	-6.52002	52.5
 297	1	4	0.149498	40.3002	-6.74772	53.2654
 298	1	2	0.076729	39.5842	-5.2744	51.8552
 299	1	2	-0.057821	34.9404	-9.676	50.9001
 300	1	2	-0.076852	33.8372	-10.4531	51.2775
 301	1	4	0.145382	33.4021	-10.2895	52.258
 302	1	2	-0.023498	33.355	-11.4445	50.3818
 303	1	4	0.166076	35.6493	-10.9589	47.8277
 304	1	2	-0.140684	35.1336	-10.8162	48.7755
 305	1	2	-0.058922	35.5701	-9.84897	49.6851
 306	1	3	-0.101954	32.1937	-12.4124	50.7523
 307	1	2	-0.067123	34.0305	-11.6144	49.1395
 308	1	4	0.142141	33.7125	-12.3929	48.4506
 309	1	3	0.321219	32.8865	-13.7046	51.333
 310	1	3	0.382784	31.2031	-11.8281	51.8341
 311	1	5	-0.111948	33.6009	-14.3585	50.3885
 312	1	5	-0.11115	32.0067	-14.586	51.86
 313	1	5	-0.103632	33.7672	-13.4059	52.3154
 314	1	5	-0.110272	30.8221	-10.5657	51.5354
 315	1	5	-0.120305	31.7177	-11.7953	53.0837
 316	1	5	-0.123663	30.0682	-12.5601	51.9098
 317	1	6	0.452517	36.7138	-8.90058	49.6109
 318	1	6	0.453374	35.6625	-8.61135	51.6471
 319	1	7	0.018948	36.6983	-8.20495	50.814
 320	1	8	-0.46698	37.4897	-8.77653	48.6782
 321	1	8	-0.469385	35.3875	-8.20071	52.7613
 322	1	3	-0.126657	40.6574	-4.2396	52.2209
 323	1	2	0.020988	30.1346	-11.7865	47.5536
 324	1	6	0.027902	29.5716	-10.82	46.576
 325	1	8	-0.378193	29.6358	-9.60352	46.6462
 326	1	2	0.043573	29.8275	-13.0618	47.1283
 327	1	6	0.038038	29.0728	-12.9718	45.8542
 328	1	7	0.4913	28.9803	-11.607	45.5843
 329	1	8	-0.382817	28.6694	-13.9092	45.1852
 330	1	2	0.0054	30.889	-11.5612	48.7108
 331	1	2	-0.040988	30.2357	-14.1839	47.8503
 332	1	2	-0.085341	31.3436	-12.6729	49.4699
 333	1	4	0.154391	31.1266	-10.5398	48.9978
 334	1	2	-0.205992	30.9866	-13.9799	49.0263
 335	1	4	0.156637	29.9802	-15.1831	47.5038
 336	1	4	0.178085	31.286	-14.8659	49.5759
 337	1	10	0.05178	36.904	-5.95558	48.4596
 338	1	10	0.015669	36.3799	-4.53429	49.3774
 339	1	10	0.036134	35.6166	-6.08386	49.6725
 340	1	11	0.101096	40.5028	-3.91307	53.2561
 341	1	1	-0.196269	40.6183	-3.06346	51.3194
 342	1	11	0.131285	41.6436	-4.71801	52.1646
 343	1	3	-0.292673	39.2258	-2.63381	51.094
 344	1	3	-0.034798	39.2881	-3.66618	48.8932
 345	1	12	0.194395	39.1936	-1.66877	50.5701
 346	1	12	0.183693	38.6735	-2.56399	52.0407
 347	1	2	-0.144532	42.8162	-2.82183	50.2244
 348	1	2	0.128587	41.4267	-3.09732	50.1753
 349	1	2	0.222203	43.5716	-2.87957	49.026
 350	1	2	0.041795	40.7987	-3.41	48.9459
 351	1	2	-0.461017	42.9324	-3.21049	47.8099
 352	1	2	-0.140506	41.5556	-3.47276	47.7683
 353	1	4	0.148448	41.0701	-3.71132	46.8241
 354	1	10	0.055442	44.2288	-1.62962	51.4084
 355	1	10	0.090839	42.776	-2.059	52.2892
 356	1	3	-0.16304	43.4919	-2.43067	51.5457
 357	1	10	0.039719	44.009	-3.29167	51.988
 358	1	11	0.077452	38.8093	-2.86519	48.3169
 359	1	11	0.09063	39.1087	-4.6107	48.3642
 360	1	4	0.230266	43.508	-3.23459	46.8861
 361	1	1	-0.247122	27.3116	-8.6483	40.0561
 362	1	2	0.139112	27.2468	-7.30533	40.4556
 363	1	2	0.02746	26.1645	-6.46639	40.0939
 364	1	3	-0.077297	25.1402	-6.96335	39.0681
 365	1	2	-0.08585	26.0725	-5.17011	40.6666
 366	1	2	-0.195578	27.0949	-4.71386	41.5224
 367	1	4	0.171692	27.0404	-3.71717	41.9574
 368	1	2	-0.199822	28.1981	-5.52451	41.8201
 369	1	4	0.149498	28.9818	-5.15541	42.4761
 370	1	2	0.076729	28.2727	-6.82371	41.3017
 371	1	2	-0.057821	23.6833	-2.41921	40.1168
 372	1	2	-0.076852	23.2287	-1.10519	39.9524
 373	1	4	0.145382	23.9537	-0.315899	39.7681
 374	1	2	-0.023498	21.8409	-0.831825	40.08
 375	1	4	0.166076	20.7866	-4.03748	40.8665
 376	1	2	-0.140684	21.4517	-3.22305	40.5856
 377	1	2	-0.058922	22.8245	-3.4434	40.4481
 378	1	3	-0.101954	21.3353	0.63815	40.0146
 379	1	2	-0.067123	20.9679	-1.91408	40.3903
 380	1	4	0.142141	19.9062	-1.7502	40.5346
 381	1	3	0.321219	19.8564	0.763312	39.4748
 382	1	3	0.382784	21.3975	1.17712	41.4951
 383	1	5	-0.111948	19.5666	2.03499	39.1157
 384	1	5	-0.11115	18.912	0.404513	40.3727
 385	1	5	-0.103632	19.6597	-0.000632831	38.3767
 386	1	5	-0.110272	20.7656	0.356186	42.3651
 387	1	5	-0.120305	20.8264	2.39461	41.639
 388	1	5	-0.123663	22.6736	1.26572	41.9353
 389	1	6	0.452517	23.6284	-4.66951	40.687
 390	1	6	0.453374	25.0651	-2.96607	40.0865
 391	1	7	0.018948	24.9522	-4.30823	40.4437
 392	1	8	-0.46698	23.1952	-5.72806	41.1095
 393	1	8	-0.469385	26.0775	-2.32867	39.8494
 394	1	3	-0.126657	29.4543	-7.72737	41.6697
 395	1	2	0.020988	23.1809	1.66338	36.7922
 396	1	6	0.027902	23.488	1.38227	35.3675
 397	1	8	-0.378193	23.1567	0.388034	34.7424
 398	1	2	0.043573	23.6986	2.90013	37.1127
 399	1	6	0.038038	24.3443	3.47493	35.9089
 400	1	7	0.4913	24.1745	2.51052	34.9134
 401	1	8	-0.382817	24.8257	4.59321	35.8164
 402	1	2	0.0054	22.4412	0.917047	37.7153
 403	1	2	-0.040988	23.5247	3.45227	38.3814
 404	1	2	-0.085341	22.2273	1.44144	39.018
 405	1	4	0.154391	22.0277	-0.0414565	37.4117
 406	1	2	-0.205992	22.7874	2.71519	39.3297
 407	1	4	0.156637	23.9293	4.43522	38.6129
 408	1	4	0.178085	22.6465	3.17669	40.3007
 409	1	10	0.05178	24.672	-6.13945	38.5174
 410	1	10	0.015669	24.3464	-7.54683	39.5495
 411	1	10	0.036134	25.6091	-7.60589	38.3126
 412	1	11	0.101096	30.3503	-7.38033	41.1415
 413	1	1	-0.196269	29.1799	-9.13711	41.3124
 414	1	11	0.131285	29.6438	-7.64238	42.7471
 415	1	3	-0.292673	28.6679	-9.21736	39.9308
 416	1	3	-0.034798	26.4328	-9.59119	40.7887
 417	1	12	0.194395	28.6314	-10.2607	39.5891
 418	1	12	0.183693	29.2822	-8.62055	39.2435
 419	1	2	-0.144532	29.1386	-10.401	43.4246
 420	1	2	0.128587	28.4946	-9.90166	42.266
 421	1	2	0.222203	28.3716	-11.0881	44.4006
 422	1	2	0.041795	27.1131	-10.1226	42.0574
 423	1	2	-0.461017	26.9903	-11.2946	44.1816
 424	1	2	-0.140506	26.3663	-10.8219	43.0163
 425	1	4	0.148448	25.3033	-10.9917	42.8551
 426	1	10	0.055442	31.1181	-11.0914	44.0843
 427	1	10	0.090839	31.171	-10.1006	42.6416
 428	1	3	-0.16304	30.6536	-10.2232	43.6013
 429	1	10	0.039719	30.8763	-9.33813	44.2104
 430	1	11	0.077452	26.1765	-10.4362	40.1381
 431	1	11	0.09063	25.4966	-9.09269	41.0711
 432	1	4	0.230266	26.4015	-11.8468	44.9128
 433	1	1	-0.247122	26.7376	4.36774	29.2804
 434	1	2	0.139112	26.744	5.7525	29.5018
 435	1	2	0.02746	26.2439	6.66077	28.5404
 436	1	3	-0.077297	25.8812	6.1524	27.139
 437	1	2	-0.08585	26.1121	8.031	28.8847
 438	1	2	-0.195578	26.5614	8.48502	30.1393
 439	1	4	0.171692	26.4853	9.53995	30.3974
 440	1	2	-0.199822	27.1142	7.58666	31.0655
 441	1	4	0.149498	27.4567	7.94611	32.0324
 442	1	2	0.076729	27.1925	6.21943	30.759
 443	1	2	-0.057821	24.1397	9.81038	26.3626
 444	1	2	-0.076852	23.1843	9.92697	25.3495
 445	1	4	0.145382	22.3486	9.23167	25.3302
 446	1	2	-0.023498	23.3838	10.8732	24.3127
 447	1	4	0.166076	26.3912	12.183	25.4303
 448	1	2	-0.140684	25.4862	11.5782	25.4147
 449	1	2	-0.058922	25.2808	10.582	26.3753
 450	1	3	-0.101954	22.407	10.8445	23.0981
 451	1	2	-0.067123	24.5214	11.7292	24.3953
 452	1	4	0.142141	24.7109	12.4869	23.6433
 453	1	3	0.321219	21.0262	11.4142	23.607
 454	1	3	0.382784	22.8953	11.6987	21.8657
 455	1	5	-0.111948	20.1466	11.6633	22.6112
 456	1	5	-0.11115	21.1917	12.578	24.2755
 457	1	5	-0.103632	20.4105	10.5686	24.463
 458	1	5	-0.110272	22.1236	11.4914	20.7744
 459	1	5	-0.120305	24.1529	11.3723	21.4885
 460	1	5	-0.123663	22.8822	13.0289	22.108
 461	1	6	0.452517	26.1823	10.058	27.439
 462	1	6	0.453374	24.2438	8.80226	27.4445
 463	1	7	0.018948	25.5179	8.96194	27.9806
 464	1	8	-0.46698	27.3142	10.4442	27.6758
 465	1	8	-0.469385	23.4053	7.95958	27.7179
 466	1	3	-0.126657	27.735	5.22507	31.7926
 467	1	2	0.020988	21.182	7.41269	21.7375
 468	1	6	0.027902	20.0937	6.52261	21.2513
 469	1	8	-0.378193	18.912	6.81065	21.1556
 470	1	2	0.043573	22.3659	6.70361	21.6973
 471	1	6	0.038038	22.0934	5.34033	21.1834
 472	1	7	0.4913	20.7222	5.3137	20.9427
 473	1	8	-0.382817	22.9141	4.45508	21.0045
 474	1	2	0.0054	21.1346	8.74315	22.1778
 475	1	2	-0.040988	23.5727	7.28035	22.0901
 476	1	2	-0.085341	22.3395	9.36767	22.6027
 477	1	4	0.154391	20.1782	9.25563	22.1773
 478	1	2	-0.205992	23.5482	8.61619	22.5341
 479	1	4	0.156637	24.4975	6.7089	22.0461
 480	1	4	0.178085	24.492	9.06998	22.8287
 481	1	10	0.05178	26.5052	5.30026	26.8434
 482	1	10	0.015669	26.0321	6.91866	26.3692
 483	1	10	0.036134	24.8354	5.82553	27.0942
 484	1	11	0.101096	28.8232	5.33731	31.8667
 485	1	1	-0.196269	27.4009	3.83007	31.4199
 486	1	11	0.131285	27.3049	5.4659	32.7725
 487	1	3	-0.292673	27.76	3.59143	30.0086
 488	1	3	-0.034798	25.4208	3.69862	29.393
 489	1	12	0.194395	27.696	2.52196	29.766
 490	1	12	0.183693	28.7683	3.965	29.7857
 491	1	2	-0.144532	25.8676	3.02211	33.1672
 492	1	2	0.128587	26.1402	3.36429	31.8206
 493	1	2	0.222203	24.5337	2.72377	33.5477
 494	1	2	0.041795	25.1136	3.32792	30.8477
 495	1	2	-0.461017	23.5191	2.69837	32.5643
 496	1	2	-0.140506	23.8078	2.98198	31.2213
 497	1	4	0.148448	23.0165	2.96463	30.4743
 498	1	10	0.055442	27.9578	2.66648	33.7179
 499	1	10	0.090839	27.1728	3.94299	34.6606
 500	1	3	-0.16304	27.0123	2.96583	34.1878
 501	1	10	0.039719	26.8233	2.23337	34.9819
 502	1	11	0.077452	25.4126	2.78953	28.7796
 503	1	11	0.09063	24.6265	4.35911	29.0222
 504	1	4	0.230266	22.4959	2.45521	32.8486
 505	1	1	-0.247122	17.3935	0.755918	17.7425
 506	1	2	0.139112	16.077	1.22446	17.8596
 507	1	2	0.02746	14.9934	0.364623	18.1686
 508	1	3	-0.077297	15.2179	-1.15071	18.2017
 509	1	2	-0.08585	13.7095	0.9296	18.3901
 510	1	2	-0.195578	13.5351	2.32491	18.2849
 511	1	4	0.171692	12.5531	2.76848	18.4409
 512	1	2	-0.199822	14.5953	3.15848	17.9151
 513	1	4	0.149498	14.4323	4.22653	17.7978
 514	1	2	0.076729	15.8633	2.61282	17.6914
 515	1	2	-0.057821	10.3572	-0.537839	18.588
 516	1	2	-0.076852	8.99295	-0.649563	18.3247
 517	1	4	0.145382	8.57528	-0.0437513	17.5283
 518	1	2	-0.023498	8.20991	-1.54597	19.0923
 519	1	4	0.166076	10.7463	-2.767	21.1214
 520	1	2	-0.140684	10.2532	-2.18385	20.3459
 521	1	2	-0.058922	10.9698	-1.24149	19.5984
 522	1	3	-0.101954	6.67878	-1.66655	18.8306
 523	1	2	-0.067123	8.87987	-2.35416	20.0578
 524	1	4	0.142141	8.33147	-3.10803	20.6161
 525	1	3	0.321219	6.01405	-0.254284	18.5815
 526	1	3	0.382784	6.51312	-2.56425	17.5441
 527	1	5	-0.111948	4.66764	-0.30497	18.7065
 528	1	5	-0.11115	6.24944	0.256839	17.353
 529	1	5	-0.103632	6.44841	0.660662	19.4783
 530	1	5	-0.110272	7.31431	-2.17351	16.5275
 531	1	5	-0.120305	5.25674	-2.55045	17.0441
 532	1	5	-0.123663	6.84144	-3.8492	17.8074
 533	1	6	0.452517	12.3893	-0.789889	19.6753
 534	1	6	0.453374	11.3614	0.32796	17.9361
 535	1	7	0.018948	12.5417	0.14547	18.6494
 536	1	8	-0.46698	13.1948	-1.11883	20.5297
 537	1	8	-0.469385	11.148	1.06863	16.9906
 538	1	3	-0.126657	17.0135	3.52682	17.264
 539	1	2	0.020988	4.16788	-3.53107	21.1127
 540	1	6	0.027902	2.89847	-4.28482	21.2049
 541	1	8	-0.378193	2.28956	-4.76894	20.2645
 542	1	2	0.043573	4.47267	-3.02173	22.3562
 543	1	6	0.038038	3.42397	-3.45677	23.3126
 544	1	7	0.4913	2.49973	-4.15998	22.5358
 545	1	8	-0.382817	3.33431	-3.11971	24.4823
 546	1	2	0.0054	4.88346	-3.17524	19.9699
 547	1	2	-0.040988	5.51258	-2.10454	22.5217
 548	1	2	-0.085341	5.94985	-2.24476	20.0835
 549	1	4	0.154391	4.53928	-3.5745	19.0236
 550	1	2	-0.205992	6.23402	-1.71109	21.3744
 551	1	4	0.156637	5.70509	-1.66098	23.4964
 552	1	4	0.178085	7.00101	-0.947485	21.488
 553	1	10	0.05178	16.018	-1.45881	17.5176
 554	1	10	0.015669	14.3254	-1.70829	17.8943
 555	1	10	0.036134	15.4989	-1.48396	19.2082
 556	1	11	0.101096	16.8675	3.8223	16.2181
 557	1	1	-0.196269	18.3156	2.84417	17.4112
 558	1	11	0.131285	16.9924	4.43684	17.8765
 559	1	3	-0.292673	18.2568	1.50001	16.8039
 560	1	3	-0.034798	18.1176	0.517351	19.0136
 561	1	12	0.194395	19.2597	1.05552	16.7462
 562	1	12	0.183693	17.8067	1.53705	15.8029
 563	1	2	-0.144532	19.545	4.10919	19.1275
 564	1	2	0.128587	18.9116	2.92507	18.6747
 565	1	2	0.222203	20.0524	4.15417	20.4497
 566	1	2	0.041795	18.8068	1.79332	19.5176
 567	1	2	-0.461017	19.9376	3.01847	21.2829
 568	1	2	-0.140506	19.3224	1.84479	20.8202
 569	1	4	0.148448	19.2406	0.974486	21.4683
 570	1	10	0.055442	18.9872	6.11152	18.4567
 571	1	10	0.090839	20.7134	5.74947	18.2565
 572	1	3	-0.16304	19.7046	5.32213	18.1985
 573	1	10	0.039719	19.5464	5.07147	17.1429
 574	1	11	0.077452	18.8733	-0.263546	18.8651
 575	1	11	0.09063	17.4194	0.162693	19.7827
 576	1	4	0.230266	20.3473	3.04407	22.2915
 577	1	1	-0.247122	-3.53921	-6.31173	23.3467
 578	1	2	0.139112	-3.99048	-6.39322	22.0213
 579	1	2	0.02746	-5.28763	-5.97343	21.6391
 580	1	3	-0.077297	-6.23775	-5.36289	22.6782
 581	1	2	-0.08585	-5.71841	-6.201	20.3064
 582	1	2	-0.195578	-4.83357	-6.75132	19.3609
 583	1	4	0.171692	-5.16574	-6.92775	18.3391
 584	1	2	-0.199822	-3.53655	-7.12743	19.7375
 585	1	4	0.149498	-2.86806	-7.57672	19.0077
 586	1	2	0.076729	-3.12145	-6.97746	21.0689
 587	1	2	-0.057821	-9.33604	-6.44773	19.846
 588	1	2	-0.076852	-10.6155	-6.9604	20.0424
 589	1	4	0.145382	-10.7288	-7.69552	20.8292
 590	1	2	-0.023498	-11.6717	-6.55067	19.1891
 591	1	4	0.166076	-9.82196	-4.38344	17.1952
 592	1	2	-0.140684	-10.053	-5.08599	17.9939
 593	1	2	-0.058922	-9.04824	-5.52943	18.863
 594	1	3	-0.101954	-13.0873	-7.21462	19.2586
 595	1	2	-0.067123	-11.3548	-5.6172	18.1563
 596	1	4	0.142141	-12.1276	-5.30748	17.4571
 597	1	3	0.321219	-13.168	-8.14743	17.9838
 598	1	3	0.382784	-13.2875	-8.08856	20.5622
 599	1	5	-0.111948	-12.011	-8.8165	17.7747
 600	1	5	-0.11115	-13.4078	-7.43037	16.8619
 601	1	5	-0.103632	-14.1336	-9.0901	18.0489
 602	1	5	-0.110272	-14.5455	-8.55764	20.7132
 603	1	5	-0.120305	-13.0386	-7.36134	21.675
 604	1	5	-0.123663	-12.4981	-9.18674	20.5854
 605	1	6	0.452517	-7.58128	-5.25008	18.9168
 606	1	6	0.453374	-8.08469	-6.81521	20.5384
 607	1	7	0.018948	-7.08814	-6.05685	19.9404
 608	1	8	-0.46698	-6.95895	-4.50338	18.1809
 609	1	8	-0.469385	-7.97528	-7.66255	21.4088
 610	1	3	-0.126657	-1.73558	-7.47737	21.4951
 611	1	2	0.020988	-16.5714	-5.63097	18.8631
 612	1	6	0.027902	-17.9567	-5.84698	18.4117
 613	1	8	-0.378193	-18.4902	-6.92892	18.2248
 614	1	2	0.043573	-16.3179	-4.27903	18.9219
 615	1	6	0.038038	-17.527	-3.56062	18.4286
 616	1	7	0.4913	-18.4147	-4.57914	18.0711
 617	1	8	-0.382817	-17.6055	-2.36946	18.1768
 618	1	2	0.0054	-15.5594	-6.57652	18.979
 619	1	2	-0.040988	-15.0396	-3.80935	19.2427
 620	1	2	-0.085341	-14.2314	-6.1536	19.2344
 621	1	4	0.154391	-15.8236	-7.61567	18.8181
 622	1	2	-0.205992	-14.0091	-4.75991	19.4415
 623	1	4	0.156637	-14.8461	-2.73981	19.2934
 624	1	4	0.178085	-13.0223	-4.38968	19.7062
 625	1	10	0.05178	-7.04603	-4.78394	22.2172
 626	1	10	0.015669	-5.72713	-4.66991	23.3536
 627	1	10	0.036134	-6.69313	-6.14673	23.2957
 628	1	11	0.101096	-1.69271	-8.56588	21.37
 629	1	1	-0.196269	-1.43268	-7.12869	22.904
 630	1	11	0.131285	-0.984963	-7.03442	20.8282
 631	1	3	-0.292673	-2.60871	-7.38173	23.7591
 632	1	3	-0.034798	-3.0549	-4.99964	23.8311
 633	1	12	0.194395	-2.34581	-7.29432	24.8219
 634	1	12	0.183693	-3.03781	-8.37329	23.5608
 635	1	2	-0.144532	0.601354	-5.74158	22.8454
 636	1	2	0.128587	-0.776487	-5.911	23.1239
 637	1	2	0.222203	1.17041	-4.44784	22.9663
 638	1	2	0.041795	-1.55935	-4.82085	23.5699
 639	1	2	-0.461017	0.373826	-3.37421	23.4259
 640	1	2	-0.140506	-0.977634	-3.55958	23.739
 641	1	4	0.148448	-1.58379	-2.72178	24.0778
 642	1	10	0.055442	2.50436	-6.83455	22.7001
 643	1	10	0.090839	1.10221	-7.87361	22.8885
 644	1	3	-0.16304	1.45078	-6.9456	22.4171