pySIMM System Object

2090 atoms
2321 bonds
4176 angles
6434 dihedrals
580 impropers

12 atom types
15 bond types
28 angle types
9 dihedral types
4 improper types

-200.055798 200.055798 xlo xhi
-200.055798 200.055798 ylo yhi
-200.055798 200.055798 zlo zhi

Masses

   1	14.01	# nh
   2	12.01	# ca
   3	12.01	# c3
   4	1.008	# ha
   5	19.0	# f
   6	12.01	# c
   7	14.01	# n
   8	16.0	# o
   9	1.008	# hn
  10	1.008	# hc
  11	1.008	# h1
  12	1.008	# h2

Pair Coeffs

   1	0.17	3.249998523775958	# nh
   2	0.086	3.3996695084235347	# ca
   3	0.1094	3.3996695084235347	# c3
   4	0.015	2.59964245953351	# ha
   5	0.061	3.1181455134911875	# f
   6	0.086	3.3996695084235347	# c
   7	0.17	3.249998523775958	# n
   8	0.21	2.959921901149463	# o
   9	0.0157	1.069078461768407	# hn
  10	0.0157	2.649532787749369	# hc
  11	0.0157	2.471353044121301	# h1
  12	0.0157	2.2931733004932333	# h2

Bond Coeffs

   1	356.9	1.3497	# c3,f
   2	403.2	1.0129	# hn,n
   3	417.9	1.3859	# ca,nh
   4	300.9	1.5375	# c3,c3
   5	384.2	1.4121	# ca,n
   6	330.6	1.0969	# c3,h1
   7	461.1	1.3984	# ca,ca
   8	326.6	1.464	# c3,nh
   9	427.6	1.3789	# c,n
  10	331.7	1.0961	# c3,h2
  11	345.9	1.4906	# c,ca
  12	345.8	1.086	# ca,ha
  13	321.0	1.5156	# c3,ca
  14	330.6	1.0969	# c3,hc
  15	637.7	1.2183	# c,o

Angle Coeffs

   1	71.11	105.87	# nh,c3,nh
   2	63.25	114.51	# c3,nh,c3
   3	74.22	123.05	# n,c,o
   4	66.62	120.02	# ca,ca,ca
   5	68.29	120.95	# ca,ca,nh
   6	49.52	110.01	# h2,c3,nh
   7	68.72	122.6	# ca,c,o
   8	49.57	109.79	# h1,c3,nh
   9	67.68	115.25	# ca,c,n
  10	66.46	111.39	# ca,c3,nh
  11	48.33	117.55	# c,n,hn
  12	64.28	120.33	# c,ca,ca
  13	39.4	107.58	# hc,c3,hc
  14	63.53	120.77	# c3,ca,ca
  15	70.89	107.36	# f,c3,f
  16	67.87	120.19	# ca,ca,n
  17	46.8	110.47	# ca,c3,hc
  18	46.99	109.56	# ca,c3,h1
  19	62.86	111.51	# c3,c3,c3
  20	66.11	109.24	# c3,c3,f
  21	63.15	112.07	# c3,c3,ca
  22	38.96	110.2	# h2,c3,h2
  23	63.82	123.71	# c,n,ca
  24	39.24	108.46	# h1,c3,h1
  25	63.56	112.24	# ca,c3,ca
  26	63.39	119.98	# c3,nh,ca
  27	63.74	127.08	# c,n,c
  28	48.18	119.88	# ca,ca,ha

Dihedral Coeffs

   1	2	2.5	2	180	2.0	1	0	# hn,n,c,o
   2	1	0.0	2	0	# X,c3,nh,X
   3	1	3.625	2	180	# X,ca,ca,X
   4	1	0.0	2	0	# X,c3,ca,X
   5	1	1.0	2	180	# X,c,ca,X
   6	1	0.15555555555555556	3	0	# X,c3,c3,X
   7	1	2.5	2	180	# X,c,n,X
   8	1	0.45	2	180	# X,ca,n,X
   9	1	1.05	2	180	# X,ca,nh,X

Improper Coeffs

   1	10.5	-1	2	# c,X,X,o
   2	1.1	-1	2	# n,X,X,hn
   3	1.1	-1	2	# ca,ca,ca,c3
   4	1.1	-1	2	# ca,X,X,ha

Atoms

   1	1	1	-0.247122	-44.5648	87.925	74.703
   2	1	2	0.139112	-44.5656	86.6784	74.0583
   3	1	2	0.02746	-43.3965	86.1146	73.4874
   4	1	3	-0.077297	-42.0697	86.8796	73.4952
   5	1	2	-0.08585	-43.4703	84.8312	72.8928
   6	1	2	-0.195578	-44.6954	84.1414	72.8473
   7	1	4	0.171692	-44.7519	83.1597	72.3802
   8	1	2	-0.199822	-45.8502	84.707	73.4041
   9	1	4	0.149498	-46.7907	84.1639	73.3708
  10	1	2	0.076729	-45.7892	85.9667	74.0166
  11	1	2	-0.057821	-40.8679	83.2112	70.8662
  12	1	2	-0.076852	-40.2389	82.6823	69.7321
  13	1	4	0.145382	-40.6936	82.8615	68.7637
  14	1	2	-0.023498	-39.0597	81.907	69.8958
  15	1	4	0.166076	-38.86	82.0436	73.3541
  16	1	2	-0.140684	-39.225	82.2316	72.3462
  17	1	2	-0.058922	-40.3784	82.9943	72.1371
  18	1	3	-0.101954	-38.3419	81.2098	68.7027
  19	1	2	-0.067123	-38.5762	81.6903	71.2171
  20	1	4	0.142141	-37.6951	81.0732	71.3748
  21	1	3	0.321219	-38.8584	79.7201	68.7001
  22	1	3	0.382784	-38.661	81.8702	67.3047
  23	1	5	-0.111948	-38.3858	79.0271	69.7608
  24	1	5	-0.11115	-38.5098	79.0363	67.5869
  25	1	5	-0.103632	-40.2074	79.6577	68.7817
  26	1	5	-0.110272	-38.5108	83.214	67.339
  27	1	5	-0.120305	-39.9149	81.6216	66.864
  28	1	5	-0.123663	-37.824	81.4225	66.3407
  29	1	6	0.452517	-41.3063	83.6342	73.1097
  30	1	6	0.453374	-42.1268	83.9949	70.9812
  31	1	7	0.018948	-42.3215	84.1936	72.3426
  32	1	8	-0.46698	-41.1982	83.624	74.3244
  33	1	8	-0.469385	-42.8452	84.3419	70.0594
  34	1	3	-0.126657	-47.0497	86.5593	74.6568
  35	1	2	0.020988	-34.5229	80.4974	68.7364
  36	1	6	0.027902	-33.3834	79.5828	68.4675
  37	1	8	-0.378193	-33.4639	78.3963	68.1933
  38	1	2	0.043573	-34.017	81.7405	69.0528
  39	1	6	0.038038	-32.5352	81.6844	68.9755
  40	1	7	0.4913	-32.2384	80.3755	68.5909
  41	1	8	-0.382817	-31.7682	82.6136	69.1705
  42	1	2	0.0054	-35.9	80.2647	68.6403
  43	1	2	-0.040988	-34.8624	82.8183	69.3247
  44	1	2	-0.085341	-36.7999	81.3364	68.8943
  45	1	4	0.154391	-36.2306	79.2766	68.3396
  46	1	2	-0.205992	-36.2542	82.6034	69.245
  47	1	4	0.156637	-34.4485	83.7965	69.5601
  48	1	4	0.178085	-36.9166	83.4478	69.4259
  49	1	10	0.05178	-42.2143	87.9621	73.5927
  50	1	10	0.015669	-41.5096	86.7272	72.5646
  51	1	10	0.036134	-41.4357	86.5505	74.3275
  52	1	11	0.101096	-47.7709	86.809	73.8695
  53	1	1	-0.196269	-46.7385	87.7708	75.4486
  54	1	11	0.131285	-47.5046	85.7973	75.3009
  55	1	3	-0.292673	-45.8473	88.6573	74.6752
  56	1	3	-0.034798	-43.9742	87.9867	76.0603
  57	1	12	0.194395	-45.758	89.6391	75.1598
  58	1	12	0.183693	-46.207	88.7809	73.6447
  59	1	2	-0.144532	-47.3528	87.2961	77.7886
  60	1	2	0.128587	-46.3891	87.5891	76.7947
  61	1	2	0.222203	-46.9303	87.1058	79.1176
  62	1	2	0.041795	-45.0189	87.6856	77.1415
  63	1	2	-0.461017	-45.5725	87.2044	79.4588
  64	1	2	-0.140506	-44.6148	87.4939	78.4731
  65	1	4	0.148448	-43.5614	87.5647	78.7361
  66	1	10	0.055442	-49.4591	87.2535	78.3684
  67	1	10	0.090839	-49.1579	88.0257	76.8075
  68	1	3	-0.16304	-48.8424	87.2029	77.4617
  69	1	10	0.039719	-49.0779	86.2582	76.9573
  70	1	11	0.077452	-43.5577	88.9865	76.2339
  71	1	11	0.09063	-43.1543	87.2631	76.1498
  72	1	4	0.230266	-45.2709	87.0512	80.4915
  73	1	1	-0.247122	-26.6228	77.9406	66.3589
  74	1	2	0.139112	-26.7606	76.547	66.3726
  75	1	2	0.02746	-25.7171	75.6923	66.8032
  76	1	3	-0.077297	-24.3421	76.2841	67.1301
  77	1	2	-0.08585	-25.958	74.2966	66.8939
  78	1	2	-0.195578	-27.2086	73.7788	66.5027
  79	1	4	0.171692	-27.3967	72.7079	66.5595
  80	1	2	-0.199822	-28.2207	74.6279	66.0301
  81	1	4	0.149498	-29.1788	74.2145	65.7259
  82	1	2	0.076729	-28.0057	76.0124	65.9699
  83	1	2	-0.057821	-23.6083	71.5637	67.6946
  84	1	2	-0.076852	-22.9445	70.3318	67.5878
  85	1	4	0.145382	-23.0656	69.7344	66.6868
  86	1	2	-0.023498	-22.1746	69.863	68.6855
  87	1	4	0.166076	-22.7538	72.5067	70.8511
  88	1	2	-0.140684	-22.7831	71.9082	69.9422
  89	1	2	-0.058922	-23.5436	72.3192	68.8459
  90	1	3	-0.101954	-21.5747	68.4252	68.6421
  91	1	2	-0.067123	-22.1004	70.6799	69.8516
  92	1	4	0.142141	-21.5507	70.36	70.7284
  93	1	3	0.321219	-20.3867	68.2105	69.6593
  94	1	3	0.382784	-22.7655	67.4636	69.0253
  95	1	5	-0.111948	-19.478	69.2091	69.579
  96	1	5	-0.11115	-19.7128	67.0645	69.4079
  97	1	5	-0.103632	-20.7852	68.1326	70.9491
  98	1	5	-0.110272	-23.6826	67.3939	68.0338
  99	1	5	-0.120305	-23.4281	67.895	70.1231
 100	1	5	-0.123663	-22.3703	66.1998	69.2989
 101	1	6	0.452517	-24.4364	73.4963	68.691
 102	1	6	0.453374	-24.5285	72.2532	66.7477
 103	1	7	0.018948	-24.9811	73.3907	67.4145
 104	1	8	-0.46698	-24.6793	74.3245	69.553
 105	1	8	-0.469385	-24.8409	71.8561	65.6379
 106	1	3	-0.126657	-29.118	76.9449	65.4702
 107	1	2	0.020988	-20.3713	66.6141	65.4347
 108	1	6	0.027902	-20.2093	65.3432	64.6887
 109	1	8	-0.378193	-20.7401	64.2777	64.9575
 110	1	2	0.043573	-19.5727	67.5735	64.8485
 111	1	6	0.038038	-18.8563	66.9528	63.7004
 112	1	7	0.4913	-19.2778	65.6221	63.6894
 113	1	8	-0.382817	-18.0151	67.487	62.9961
 114	1	2	0.0054	-21.0773	66.859	66.6156
 115	1	2	-0.040988	-19.4595	68.851	65.4055
 116	1	2	-0.085341	-20.9752	68.1354	67.2319
 117	1	4	0.154391	-21.6312	66.0352	67.0504
 118	1	2	-0.205992	-20.1655	69.1208	66.5996
 119	1	4	0.156637	-18.805	69.592	64.9515
 120	1	4	0.178085	-20.0376	70.0958	67.0658
 121	1	10	0.05178	-24.1169	77.1533	66.5001
 122	1	10	0.015669	-23.5311	75.5662	66.9589
 123	1	10	0.036134	-24.2927	76.6114	68.1757
 124	1	11	0.101096	-29.2888	76.7594	64.4032
 125	1	1	-0.196269	-28.7776	78.3738	65.6754
 126	1	11	0.131285	-30.0461	76.7036	66.0038
 127	1	3	-0.292673	-27.3765	78.6361	65.298
 128	1	3	-0.034798	-26.7815	78.6374	67.66
 129	1	12	0.194395	-27.1665	79.7143	65.3022
 130	1	12	0.183693	-27.1483	78.2143	64.3101
 131	1	2	-0.144532	-30.5235	79.4041	67.0716
 132	1	2	0.128587	-29.1935	78.9569	66.8778
 133	1	2	0.222203	-30.9057	79.9147	68.341
 134	1	2	0.041795	-28.2334	79.0718	67.9086
 135	1	2	-0.461017	-29.9375	80.0028	69.3687
 136	1	2	-0.140506	-28.6108	79.5964	69.1528
 137	1	4	0.148448	-27.8723	79.6885	69.9469
 138	1	10	0.055442	-31.0063	79.4916	64.9323
 139	1	10	0.090839	-32.0545	78.4153	65.8675
 140	1	3	-0.16304	-31.5128	79.3695	65.8978
 141	1	10	0.039719	-32.2527	80.177	65.9509
 142	1	11	0.077452	-26.1364	79.5241	67.6792
 143	1	11	0.09063	-26.4651	77.9791	68.4794
 144	1	4	0.230266	-30.2127	80.4233	70.3348
 145	1	1	-0.247122	-18.1251	60.4452	59.9949
 146	1	2	0.139112	-18.88	59.4905	60.6979
 147	1	2	0.02746	-18.3673	58.2116	61.0357
 148	1	3	-0.077297	-16.9802	57.7867	60.5453
 149	1	2	-0.08585	-19.1633	57.3312	61.8137
 150	1	2	-0.195578	-20.459	57.717	62.2052
 151	1	4	0.171692	-21.0741	57.0426	62.7987
 152	1	2	-0.199822	-20.9715	58.9691	61.845
 153	1	4	0.149498	-21.9715	59.2571	62.1584
 154	1	2	0.076729	-20.1857	59.8602	61.1028
 155	1	2	-0.057821	-18.6473	53.8548	62.8949
 156	1	2	-0.076852	-18.9612	52.5109	63.1422
 157	1	4	0.145382	-19.7879	52.0499	62.607
 158	1	2	-0.023498	-18.2234	51.7928	64.1203
 159	1	4	0.166076	-16.0768	54.3471	65.0673
 160	1	2	-0.140684	-16.8613	53.8242	64.5229
 161	1	2	-0.058922	-17.6309	54.4956	63.5701
 162	1	3	-0.101954	-18.6528	50.3308	64.4647
 163	1	2	-0.067123	-17.1664	52.4751	64.7933
 164	1	4	0.142141	-16.576	51.9884	65.5603
 165	1	3	0.321219	-17.6294	49.5811	65.4023
 166	1	3	0.382784	-20.0445	50.4427	65.2047
 167	1	5	-0.111948	-16.3762	49.6105	64.8934
 168	1	5	-0.11115	-17.9322	48.2707	65.5474
 169	1	5	-0.103632	-17.58	50.1009	66.65
 170	1	5	-0.110272	-21.048	50.7287	64.3452
 171	1	5	-0.120305	-20.0345	51.4301	66.1294
 172	1	5	-0.123663	-20.4093	49.3184	65.8603
 173	1	6	0.452517	-17.6293	55.9285	63.1719
 174	1	6	0.453374	-19.3294	54.8577	62.0329
 175	1	7	0.018948	-18.6852	56.068	62.2772
 176	1	8	-0.46698	-16.9083	56.7985	63.6311
 177	1	8	-0.469385	-20.3148	54.6556	61.344
 178	1	3	-0.126657	-20.7423	61.2435	60.7518
 179	1	2	0.020988	-19.4828	47.5488	61.9031
 180	1	6	0.027902	-20.1351	46.2447	61.6134
 181	1	8	-0.378193	-20.9774	45.6874	62.298
 182	1	2	0.043573	-18.5608	47.8039	60.9086
 183	1	6	0.038038	-18.5791	46.6781	59.9425
 184	1	7	0.4913	-19.5136	45.7796	60.4549
 185	1	8	-0.382817	-17.8412	46.54	58.9803
 186	1	2	0.0054	-19.59	48.3692	63.032
 187	1	2	-0.040988	-17.7015	48.9018	60.9798
 188	1	2	-0.085341	-18.7224	49.489	63.1571
 189	1	4	0.154391	-20.2837	48.0778	63.813
 190	1	2	-0.205992	-17.7853	49.7348	62.114
 191	1	4	0.156637	-16.9524	49.0641	60.2077
 192	1	4	0.178085	-17.069	50.5486	62.2006
 193	1	10	0.05178	-16.7558	58.2089	59.558
 194	1	10	0.015669	-16.8923	56.6987	60.4415
 195	1	10	0.036134	-16.1991	58.1223	61.2383
 196	1	11	0.101096	-21.5395	61.1332	60.0071
 197	1	1	-0.196269	-19.6822	62.1287	60.221
 198	1	11	0.131285	-21.1838	61.6841	61.6546
 199	1	3	-0.292673	-18.9029	61.4111	59.1925
 200	1	3	-0.034798	-17.0694	61.1645	60.7466
 201	1	12	0.194395	-18.2438	62.1027	58.6503
 202	1	12	0.183693	-19.5626	60.8921	58.4841
 203	1	2	-0.144532	-19.4854	63.9723	61.8506
 204	1	2	0.128587	-18.9389	62.8617	61.1581
 205	1	2	0.222203	-18.7163	64.6045	62.8594
 206	1	2	0.041795	-17.6305	62.4072	61.4511
 207	1	2	-0.461017	-17.3997	64.1596	63.1156
 208	1	2	-0.140506	-16.8578	63.0725	62.4135
 209	1	4	0.148448	-15.8521	62.7216	62.6369
 210	1	10	0.055442	-20.9443	65.581	61.5582
 211	1	10	0.090839	-21.2218	64.1947	60.5208
 212	1	3	-0.16304	-20.8944	64.4854	61.5268
 213	1	10	0.039719	-21.6293	64.0935	62.2412
 214	1	11	0.077452	-16.272	61.4714	60.0588
 215	1	11	0.09063	-16.6243	60.5022	61.4996
 216	1	4	0.230266	-16.8042	64.6492	63.8846
 217	1	1	-0.247122	-21.1868	40.2103	57.5328
 218	1	2	0.139112	-22.2637	39.6122	58.1989
 219	1	2	0.02746	-22.3768	38.2084	58.3639
 220	1	3	-0.077297	-21.3083	37.25	57.8292
 221	1	2	-0.08585	-23.5294	37.6808	58.994
 222	1	2	-0.195578	-24.5291	38.5435	59.4786
 223	1	4	0.171692	-25.4185	38.1343	59.9538
 224	1	2	-0.199822	-24.4062	39.932	59.3222
 225	1	4	0.149498	-25.1924	40.5909	59.6814
 226	1	2	0.076729	-23.286	40.4696	58.6709
 227	1	2	-0.057821	-24.4478	34.1507	58.5638
 228	1	2	-0.076852	-25.0022	33.0109	57.9695
 229	1	4	0.145382	-25.5408	33.1104	57.0297
 230	1	2	-0.023498	-24.8303	31.7465	58.5916
 231	1	4	0.166076	-23.0157	32.8188	61.3465
 232	1	2	-0.140684	-23.5671	32.8628	60.4089
 233	1	2	-0.058922	-23.7449	34.0828	59.7477
 234	1	3	-0.101954	-25.4314	30.4845	57.8961
 235	1	2	-0.067123	-24.1178	31.7004	59.826
 236	1	4	0.142141	-23.9713	30.7649	60.3537
 237	1	3	0.321219	-24.8583	29.1219	58.4438
 238	1	3	0.382784	-26.9862	30.5346	58.157
 239	1	5	-0.111948	-23.5059	29.113	58.45
 240	1	5	-0.11115	-25.2342	28.0761	57.6725
 241	1	5	-0.103632	-25.2674	28.8382	59.7011
 242	1	5	-0.110272	-27.5762	31.5428	57.4764
 243	1	5	-0.120305	-27.2627	30.7457	59.4642
 244	1	5	-0.123663	-27.6283	29.3971	57.8088
 245	1	6	0.452517	-23.2821	35.4566	60.0954
 246	1	6	0.453374	-24.4606	35.5665	58.1125
 247	1	7	0.018948	-23.7484	36.2747	59.0728
 248	1	8	-0.46698	-22.6158	35.7712	61.0666
 249	1	8	-0.469385	-24.9825	35.994	57.0972
 250	1	3	-0.126657	-23.1908	41.9847	58.4409
 251	1	2	0.020988	-25.4954	30.2455	54.012
 252	1	6	0.027902	-26.1943	29.9138	52.7391
 253	1	8	-0.378193	-27.3137	29.4395	52.6356
 254	1	2	0.043573	-24.2296	30.6971	53.7014
 255	1	6	0.038038	-24.0705	30.7052	52.2298
 256	1	7	0.4913	-25.2838	30.2346	51.726
 257	1	8	-0.382817	-23.0735	31.0559	51.6186
 258	1	2	0.0054	-25.9355	30.1561	55.3405
 259	1	2	-0.040988	-23.3149	31.047	54.694
 260	1	2	-0.085341	-25.0486	30.5398	56.386
 261	1	4	0.154391	-26.9414	29.7957	55.5268
 262	1	2	-0.205992	-23.7316	30.9506	56.0349
 263	1	4	0.156637	-22.3132	31.3783	54.429
 264	1	4	0.178085	-23.015	31.2083	56.8118
 265	1	10	0.05178	-20.4812	37.7615	57.3248
 266	1	10	0.015669	-21.7387	36.5501	57.1023
 267	1	10	0.036134	-20.8724	36.6607	58.6456
 268	1	11	0.101096	-24.0307	42.3016	57.8112
 269	1	1	-0.196269	-21.9171	42.3762	57.79
 270	1	11	0.131285	-23.2869	42.4951	59.4075
 271	1	3	-0.292673	-21.5365	41.4081	56.7443
 272	1	3	-0.034798	-19.9366	40.4278	58.3011
 273	1	12	0.194395	-20.6739	41.7721	56.1693
 274	1	12	0.183693	-22.3771	41.2041	56.0673
 275	1	2	-0.144532	-20.7877	44.1072	59.1373
 276	1	2	0.128587	-20.8676	42.7909	58.6163
 277	1	2	0.222203	-19.6768	44.4585	59.9426
 278	1	2	0.041795	-19.8584	41.8398	58.8984
 279	1	2	-0.461017	-18.6837	43.4943	60.2271
 280	1	2	-0.140506	-18.7727	42.1938	59.7105
 281	1	4	0.148448	-17.9952	41.4633	59.9253
 282	1	10	0.055442	-22.4929	44.8711	57.9681
 283	1	10	0.090839	-22.5224	45.3128	59.6804
 284	1	3	-0.16304	-21.8611	45.1557	58.818
 285	1	10	0.039719	-21.4141	46.1226	58.5557
 286	1	11	0.077452	-19.0748	40.2742	57.6403
 287	1	11	0.09063	-19.8653	39.6957	59.1157
 288	1	4	0.230266	-17.8253	43.7671	60.8386
 289	1	1	-0.247122	-26.9327	30.4867	45.4354
 290	1	2	0.139112	-28.0175	29.6221	45.2526
 291	1	2	0.02746	-28.0726	28.7077	44.173
 292	1	3	-0.077297	-26.9841	28.7164	43.0939
 293	1	2	-0.08585	-29.1459	27.7869	44.1055
 294	1	2	-0.195578	-30.1648	27.8216	45.0762
 295	1	4	0.171692	-30.9941	27.1188	45.0195
 296	1	2	-0.199822	-30.1155	28.747	46.1304
 297	1	4	0.149498	-30.9	28.7564	46.8825
 298	1	2	0.076729	-29.0374	29.6392	46.2327
 299	1	2	-0.057821	-29.8647	25.4459	41.3546
 300	1	2	-0.076852	-30.5592	24.8335	40.3017
 301	1	4	0.145382	-31.464	25.3045	39.9288
 302	1	2	-0.023498	-30.0955	23.5876	39.8003
 303	1	4	0.166076	-27.3742	23.194	41.9124
 304	1	2	-0.140684	-28.2449	23.6511	41.446
 305	1	2	-0.058922	-28.7392	24.8727	41.9081
 306	1	3	-0.101954	-30.9043	22.8001	38.7296
 307	1	2	-0.067123	-28.9371	23.0115	40.3995
 308	1	4	0.142141	-28.5756	22.0361	40.0896
 309	1	3	0.321219	-32.125	22.1513	39.4961
 310	1	3	0.382784	-31.4598	23.7442	37.5822
 311	1	5	-0.111948	-31.7187	21.3933	40.5407
 312	1	5	-0.11115	-32.8804	21.3789	38.6829
 313	1	5	-0.103632	-32.9558	23.0596	40.0556
 314	1	5	-0.110272	-30.5506	24.6684	37.2004
 315	1	5	-0.120305	-32.5623	24.4524	37.91
 316	1	5	-0.123663	-31.7906	23.0331	36.4804
 317	1	6	0.452517	-28.2845	25.7232	43.0378
 318	1	6	0.453374	-30.1725	26.686	42.1198
 319	1	7	0.018948	-29.1927	26.7737	43.1032
 320	1	8	-0.46698	-27.3299	25.5026	43.7644
 321	1	8	-0.469385	-31.1208	27.4293	41.9355
 322	1	3	-0.126657	-28.9489	30.6122	47.4184
 323	1	2	0.020988	-28.0396	21.2028	36.6547
 324	1	6	0.027902	-26.9076	21.3718	35.7062
 325	1	8	-0.378193	-26.6061	22.4084	35.1381
 326	1	2	0.043573	-28.1284	19.8707	36.9863
 327	1	6	0.038038	-27.0269	19.1369	36.3207
 328	1	7	0.4913	-26.336	20.0994	35.5778
 329	1	8	-0.382817	-26.7971	17.9431	36.4322
 330	1	2	0.0054	-28.914	22.1531	37.1962
 331	1	2	-0.040988	-29.1385	19.401	37.8234
 332	1	2	-0.085341	-29.9618	21.7321	38.0648
 333	1	4	0.154391	-28.7487	23.1948	36.9464
 334	1	2	-0.205992	-30.0584	20.3339	38.3425
 335	1	4	0.156637	-29.207	18.3413	38.0608
 336	1	4	0.178085	-30.8361	19.9276	38.9776
 337	1	10	0.05178	-26.1722	28.0256	43.3522
 338	1	10	0.015669	-26.5449	29.7126	42.9617
 339	1	10	0.036134	-27.3765	28.4244	42.1126
 340	1	11	0.101096	-29.7427	31.363	47.3266
 341	1	1	-0.196269	-27.6303	31.2888	47.4791
 342	1	11	0.131285	-29.1221	30.0553	48.3482
 343	1	3	-0.292673	-27.2338	31.7513	46.1357
 344	1	3	-0.034798	-25.6946	29.8759	45.9694
 345	1	12	0.194395	-26.3469	32.3969	46.1929
 346	1	12	0.183693	-28.0557	32.2874	45.6422
 347	1	2	-0.144532	-26.5327	30.776	49.631
 348	1	2	0.128587	-26.621	30.658	48.2203
 349	1	2	0.222203	-25.5072	30.0739	50.3206
 350	1	2	0.041795	-25.6682	29.8994	47.5011
 351	1	2	-0.461017	-24.6068	29.2675	49.5859
 352	1	2	-0.140506	-24.677	29.189	48.1885
 353	1	4	0.148448	-23.9494	28.5996	47.6338
 354	1	10	0.055442	-27.031	32.1862	51.2445
 355	1	10	0.090839	-27.8713	32.5144	49.7439
 356	1	3	-0.16304	-27.5009	31.7012	50.3806
 357	1	10	0.039719	-28.3742	31.1428	50.7406
 358	1	11	0.077452	-24.8244	30.4247	45.589
 359	1	11	0.09063	-25.6066	28.8361	45.6305
 360	1	4	0.230266	-23.8021	28.7474	50.1038
 361	1	1	-0.247122	-20.6932	19.3625	32.3814
 362	1	2	0.139112	-20.6118	20.3185	31.3655
 363	1	2	0.02746	-20.1503	19.9919	30.0694
 364	1	3	-0.077297	-19.6126	18.5886	29.7676
 365	1	2	-0.08585	-20.1981	20.974	29.052
 366	1	2	-0.195578	-20.647	22.2746	29.35
 367	1	4	0.171692	-20.6862	23.0299	28.5672
 368	1	2	-0.199822	-21.0734	22.5998	30.6494
 369	1	4	0.149498	-21.4329	23.602	30.8674
 370	1	2	0.076729	-21.0748	21.6215	31.6578
 371	1	2	-0.057821	-18.8186	20.2974	25.6989
 372	1	2	-0.076852	-17.9356	20.2945	24.6073
 373	1	4	0.145382	-17.0339	20.9014	24.6504
 374	1	2	-0.023498	-18.2506	19.5114	23.4625
 375	1	4	0.166076	-21.2891	18.2528	24.5548
 376	1	2	-0.140684	-20.3527	18.8075	24.5636
 377	1	2	-0.058922	-19.9969	19.581	25.6695
 378	1	3	-0.101954	-17.3301	19.5576	22.2056
 379	1	2	-0.067123	-19.4732	18.7795	23.4653
 380	1	4	0.142141	-19.7791	18.195	22.6061
 381	1	3	0.321219	-17.4085	18.248	21.3269
 382	1	3	0.382784	-17.8355	20.7858	21.356
 383	1	5	-0.111948	-16.3898	18.1824	20.4392
 384	1	5	-0.11115	-18.5428	18.1451	20.5985
 385	1	5	-0.103632	-17.3232	17.1336	22.0883
 386	1	5	-0.110272	-19.1766	20.7623	21.1789
 387	1	5	-0.120305	-17.2932	20.8381	20.1179
 388	1	5	-0.123663	-17.5628	21.9583	21.9728
 389	1	6	0.452517	-20.7164	19.7983	26.9486
 390	1	6	0.453374	-18.7377	20.9884	27.0192
 391	1	7	0.018948	-19.895	20.626	27.703
 392	1	8	-0.46698	-21.7889	19.3096	27.2623
 393	1	8	-0.469385	-17.816	21.6801	27.4164
 394	1	3	-0.126657	-21.5989	21.9486	33.0666
 395	1	2	0.020988	-13.9951	18.8723	24.0184
 396	1	6	0.027902	-13.2249	18.0782	25.0111
 397	1	8	-0.378193	-13.662	17.1902	25.7244
 398	1	2	0.043573	-13.1293	19.7547	23.406
 399	1	6	0.038038	-11.7743	19.5729	23.9777
 400	1	7	0.4913	-11.9188	18.563	24.9268
 401	1	8	-0.382817	-10.7638	20.1779	23.6567
 402	1	2	0.0054	-15.3477	18.8071	23.662
 403	1	2	-0.040988	-13.5628	20.6166	22.3997
 404	1	2	-0.085341	-15.8403	19.6771	22.6521
 405	1	4	0.154391	-15.9936	18.0856	24.1562
 406	1	2	-0.205992	-14.9202	20.5683	22.0259
 407	1	4	0.156637	-12.861	21.2916	21.9144
 408	1	4	0.178085	-15.2276	21.2318	21.2254
 409	1	10	0.05178	-18.7793	18.6188	29.0553
 410	1	10	0.015669	-20.3974	17.9495	29.3451
 411	1	10	0.036134	-19.2253	18.0916	30.665
 412	1	11	0.101096	-20.9338	22.6836	33.5351
 413	1	1	-0.196269	-21.6889	20.7413	33.9296
 414	1	11	0.131285	-22.5908	22.41	32.975
 415	1	3	-0.292673	-20.5063	19.8809	33.7501
 416	1	3	-0.034798	-21.8427	18.4285	32.3099
 417	1	12	0.194395	-20.5004	19.0656	34.486
 418	1	12	0.183693	-19.5783	20.4632	33.8276
 419	1	2	-0.144532	-23.9768	20.4637	34.8052
 420	1	2	0.128587	-22.913	20.0612	33.9593
 421	1	2	0.222203	-25.2185	19.7712	34.7377
 422	1	2	0.041795	-23.0424	18.9291	33.1236
 423	1	2	-0.461017	-25.3421	18.6763	33.849
 424	1	2	-0.140506	-24.2624	18.2451	33.0649
 425	1	4	0.148448	-24.365	17.3743	32.42
 426	1	10	0.055442	-24.3477	21.4901	36.718
 427	1	10	0.090839	-22.6941	21.6163	36.1596
 428	1	3	-0.16304	-23.7356	21.5941	35.8146
 429	1	10	0.039719	-23.9516	22.5721	35.3669
 430	1	11	0.077452	-21.5371	17.4461	32.6897
 431	1	11	0.09063	-22.1564	18.2969	31.266
 432	1	4	0.230266	-26.2763	18.1171	33.8067
 433	1	1	-0.247122	-6.6566	17.5853	28.558
 434	1	2	0.139112	-5.71193	18.4002	27.9105
 435	1	2	0.02746	-4.41461	17.9431	27.5607
 436	1	3	-0.077297	-3.95079	16.5225	27.9029
 437	1	2	-0.08585	-3.53745	18.8181	26.8712
 438	1	2	-0.195578	-3.94429	20.1266	26.5558
 439	1	4	0.171692	-3.27277	20.7924	26.0169
 440	1	2	-0.199822	-5.22464	20.575	26.9059
 441	1	4	0.149498	-5.53797	21.5819	26.6427
 442	1	2	0.076729	-6.11271	19.7155	27.5681
 443	1	2	-0.057821	-0.553761	17.637	25.0828
 444	1	2	-0.076852	0.232114	17.1761	24.0199
 445	1	4	0.145382	-0.188302	17.1571	23.0169
 446	1	2	-0.023498	1.54641	16.7073	24.2803
 447	1	4	0.166076	1.60894	17.3324	27.6913
 448	1	2	-0.140684	1.23378	17.2825	26.6705
 449	1	2	-0.058922	-0.0699597	17.6907	26.3725
 450	1	3	-0.101954	2.3987	16.149	23.0988
 451	1	2	-0.067123	2.0347	16.7924	25.6172
 452	1	4	0.142141	3.04111	16.4772	25.8669
 453	1	3	0.321219	3.01397	17.4037	22.3734
 454	1	3	0.382784	3.55914	15.1866	23.5624
 455	1	5	-0.111948	3.96606	17.085	21.468
 456	1	5	-0.11115	3.59268	18.2534	23.2524
 457	1	5	-0.103632	2.06345	18.1145	21.7259
 458	1	5	-0.110272	4.09912	14.5163	22.5184
 459	1	5	-0.120305	3.1093	14.2447	24.4229
 460	1	5	-0.123663	4.58201	15.828	24.1707
 461	1	6	0.452517	-1.15332	18.2002	27.2577
 462	1	6	0.453374	-1.96761	18.0939	25.0989
 463	1	7	0.018948	-2.25302	18.3878	26.4273
 464	1	8	-0.46698	-1.07651	18.3809	28.4611
 465	1	8	-0.469385	-2.71554	18.1488	24.1377
 466	1	3	-0.126657	-7.53296	20.197	27.8843
 467	1	2	0.020988	0.744806	14.4459	20.0163
 468	1	6	0.027902	0.649479	14.2316	18.545
 469	1	8	-0.378193	1.2888	14.8185	17.6874
 470	1	2	0.043573	-0.161264	13.6097	20.6339
 471	1	6	0.038038	-0.86498	12.8206	19.5996
 472	1	7	0.4913	-0.320893	13.2377	18.3831
 473	1	8	-0.382817	-1.72731	11.9813	19.8055
 474	1	2	0.0054	1.57853	15.2939	20.7576
 475	1	2	-0.040988	-0.291864	13.5676	22.0215
 476	1	2	-0.085341	1.47945	15.2888	22.1781
 477	1	4	0.154391	2.28636	15.9147	20.2195
 478	1	2	-0.205992	0.545019	14.4026	22.7851
 479	1	4	0.156637	-1.00859	12.8951	22.4881
 480	1	4	0.178085	0.464526	14.3519	23.8689
 481	1	10	0.05178	-4.6814	15.9581	28.492
 482	1	10	0.015669	-3.03172	16.5395	28.4993
 483	1	10	0.036134	-3.75019	15.9472	26.9908
 484	1	11	0.101096	-7.4884	20.9734	28.6574
 485	1	1	-0.196269	-8.38899	19.0817	28.3467
 486	1	11	0.131285	-7.95926	20.6473	26.9796
 487	1	3	-0.292673	-7.66915	18.295	29.366
 488	1	3	-0.034798	-7.31424	16.5264	27.7574
 489	1	12	0.194395	-8.34893	17.5921	29.8668
 490	1	12	0.183693	-7.19424	18.9484	30.1102
 491	1	2	-0.144532	-10.2098	18.8472	26.6939
 492	1	2	0.128587	-9.07439	18.3385	27.3727
 493	1	2	0.222203	-10.8257	18.0572	25.6899
 494	1	2	0.041795	-8.56856	17.055	27.0543
 495	1	2	-0.461017	-10.3213	16.7701	25.4005
 496	1	2	-0.140506	-9.19993	16.2711	26.0785
 497	1	4	0.148448	-8.80758	15.2848	25.8389
 498	1	10	0.055442	-10.5258	20.5404	28.0601
 499	1	10	0.090839	-10.3617	20.9978	26.3569
 500	1	3	-0.16304	-10.7683	20.2357	27.0347
 501	1	10	0.039719	-11.8622	20.2692	26.9594
 502	1	11	0.077452	-7.5953	15.6923	28.4119
 503	1	11	0.09063	-6.62284	16.1389	26.9991
 504	1	4	0.230266	-10.7997	16.1599	24.636
 505	1	1	-0.247122	-1.47131	9.84615	12.9547
 506	1	2	0.139112	-1.13517	10.4997	11.7677
 507	1	2	0.02746	-1.94096	10.4163	10.6068
 508	1	3	-0.077297	-3.24458	9.60383	10.6085
 509	1	2	-0.08585	-1.52426	11.0878	9.42999
 510	1	2	-0.195578	-0.347511	11.8604	9.44015
 511	1	4	0.171692	-0.0381882	12.3918	8.54222
 512	1	2	-0.199822	0.433807	11.9537	10.6051
 513	1	4	0.149498	1.34052	12.553	10.6035
 514	1	2	0.076729	0.0494642	11.2704	11.7708
 515	1	2	-0.057821	-3.59157	10.0362	6.59879
 516	1	2	-0.076852	-4.33112	9.11651	5.84532
 517	1	4	0.145382	-4.02346	8.07678	5.87008
 518	1	2	-0.023498	-5.49087	9.56115	5.1561
 519	1	4	0.166076	-5.37523	12.892	6.11094
 520	1	2	-0.140684	-5.07183	11.8519	6.00627
 521	1	2	-0.058922	-3.96589	11.3587	6.70667
 522	1	3	-0.101954	-6.47489	8.58541	4.43907
 523	1	2	-0.067123	-5.81859	10.9453	5.22405
 524	1	4	0.142141	-6.70083	11.3158	4.70812
 525	1	3	0.321219	-5.88123	7.14303	4.20753
 526	1	3	0.382784	-7.73694	8.47284	5.3835
 527	1	5	-0.111948	-6.68249	6.39368	3.41621
 528	1	5	-0.11115	-5.71583	6.44617	5.35473
 529	1	5	-0.103632	-4.68173	7.18794	3.58453
 530	1	5	-0.110272	-7.37813	8.2512	6.66905
 531	1	5	-0.120305	-8.58002	7.47206	5.0442
 532	1	5	-0.123663	-8.46788	9.61085	5.38704
 533	1	6	0.452517	-3.11338	12.0005	7.74736
 534	1	6	0.453374	-2.46181	9.79619	7.53245
 535	1	7	0.018948	-2.29481	10.9862	8.23255
 536	1	8	-0.46698	-3.22725	13.1394	8.16731
 537	1	8	-0.469385	-1.89307	8.73231	7.70923
 538	1	3	-0.126657	0.903653	11.3573	13.0493
 539	1	2	0.020988	-8.299	9.59495	1.16311
 540	1	6	0.027902	-9.54461	9.70792	0.356571
 541	1	8	-0.378193	-10.6635	9.35955	0.695352
 542	1	2	0.043573	-7.25872	10.134	0.43371
 543	1	6	0.038038	-7.78691	10.614	-0.865031
 544	1	7	0.4913	-9.1532	10.3441	-0.821652
 545	1	8	-0.382817	-7.15129	11.1773	-1.74147
 546	1	2	0.0054	-8.10373	9.09057	2.45469
 547	1	2	-0.040988	-5.96276	10.1956	0.94802
 548	1	2	-0.085341	-6.80298	9.15187	3.02779
 549	1	4	0.154391	-8.95725	8.67046	2.97576
 550	1	2	-0.205992	-5.74537	9.69664	2.24762
 551	1	4	0.156637	-5.15444	10.6205	0.356693
 552	1	4	0.178085	-4.73411	9.72881	2.6482
 553	1	10	0.05178	-3.55477	9.27538	11.6053
 554	1	10	0.015669	-3.14513	8.69442	10.0056
 555	1	10	0.036134	-4.0763	10.1917	10.2011
 556	1	11	0.101096	1.89556	10.939	12.8408
 557	1	1	-0.196269	0.297466	10.6301	14.1975
 558	1	11	0.131285	1.03882	12.414	13.3128
 559	1	3	-0.292673	-0.322799	9.37021	13.7506
 560	1	3	-0.034798	-2.49477	10.4997	13.8034
 561	1	12	0.194395	-0.653312	8.7705	14.6096
 562	1	12	0.183693	0.372461	8.78574	13.1327
 563	1	2	-0.144532	0.0869339	12.0076	16.2406
 564	1	2	0.128587	-0.475051	11.3614	15.1096
 565	1	2	0.222203	-0.774277	12.703	17.1349
 566	1	2	0.041795	-1.8741	11.357	14.9086
 567	1	2	-0.461017	-2.15962	12.7633	16.8572
 568	1	2	-0.140506	-2.70889	12.0854	15.7625
 569	1	4	0.148448	-3.78503	12.0835	15.6013
 570	1	10	0.055442	2.13878	12.7313	16.0891
 571	1	10	0.090839	1.8213	11.843	17.5898
 572	1	3	-0.16304	1.59178	11.8823	16.5186
 573	1	10	0.039719	2.01838	10.9677	16.0891
 574	1	11	0.077452	-3.12399	9.72928	14.2655
 575	1	11	0.09063	-3.14472	11.1362	13.1895
 576	1	4	0.230266	-2.82911	13.272	17.5494
 577	1	1	-0.247122	-12.4828	13.7781	-5.18369
 578	1	2	0.139112	-13.8316	14.0054	-4.89211
 579	1	2	0.02746	-14.8425	13.9518	-5.88189
 580	1	3	-0.077297	-14.4938	13.6682	-7.34713
 581	1	2	-0.08585	-16.1918	14.1379	-5.49527
 582	1	2	-0.195578	-16.5129	14.4137	-4.15418
 583	1	4	0.171692	-17.552	14.5443	-3.85861
 584	1	2	-0.199822	-15.5036	14.4774	-3.18144
 585	1	4	0.149498	-15.7622	14.6676	-2.14321
 586	1	2	0.076729	-14.1657	14.253	-3.54077
 587	1	2	-0.057821	-18.7177	14.1294	-8.17102
 588	1	2	-0.076852	-19.4213	14.5555	-9.30627
 589	1	4	0.145382	-19.3396	15.6011	-9.57942
 590	1	2	-0.023498	-20.1374	13.599	-10.0838
 591	1	4	0.166076	-19.4289	10.8035	-8.1538
 592	1	2	-0.140684	-19.451	11.8457	-8.46668
 593	1	2	-0.058922	-18.7386	12.8144	-7.75972
 594	1	3	-0.101954	-20.7791	13.9299	-11.4753
 595	1	2	-0.067123	-20.1287	12.2461	-9.63344
 596	1	4	0.142141	-20.6035	11.4671	-10.2179
 597	1	3	0.321219	-22.267	13.3772	-11.4715
 598	1	3	0.382784	-20.8103	15.4785	-11.7849
 599	1	5	-0.111948	-22.8771	13.6209	-10.2894
 600	1	5	-0.11115	-22.3209	12.0427	-11.6775
 601	1	5	-0.103632	-23.0705	13.9056	-12.4202
 602	1	5	-0.110272	-21.3717	15.7734	-12.9795
 603	1	5	-0.120305	-19.5661	16.0018	-11.8673
 604	1	5	-0.123663	-21.4956	16.1677	-10.8447
 605	1	6	0.452517	-17.8183	12.6658	-6.60492
 606	1	6	0.453374	-17.762	14.8693	-7.29811
 607	1	7	0.018948	-17.2521	13.9188	-6.41935
 608	1	8	-0.46698	-17.5474	11.6252	-6.0306
 609	1	8	-0.469385	-17.4154	16.0301	-7.432
 610	1	3	-0.126657	-13.07	14.2418	-2.46465
 611	1	2	0.020988	-19.5381	12.5309	-14.8656
 612	1	6	0.027902	-19.7635	12.3275	-16.319
 613	1	8	-0.378193	-20.8019	12.534	-16.9247
 614	1	2	0.043573	-18.217	12.2384	-14.5923
 615	1	6	0.038038	-17.5451	11.8202	-15.8484
 616	1	7	0.4913	-18.5259	11.9353	-16.8301
 617	1	8	-0.382817	-16.3682	11.5261	-15.9797
 618	1	2	0.0054	-20.4018	13.0392	-13.886
 619	1	2	-0.040988	-17.6773	12.4562	-13.3255
 620	1	2	-0.085341	-19.8985	13.2685	-12.5777
 621	1	4	0.154391	-21.4202	13.2918	-14.1654
 622	1	2	-0.205992	-18.5225	12.9829	-12.3292
 623	1	4	0.156637	-16.6226	12.267	-13.1372
 624	1	4	0.178085	-18.0699	13.1985	-11.3654
 625	1	10	0.05178	-14.7043	12.6225	-7.60212
 626	1	10	0.015669	-13.4382	13.8591	-7.57409
 627	1	10	0.036134	-15.0692	14.3064	-8.02816
 628	1	11	0.101096	-13.0265	15.2284	-1.98847
 629	1	1	-0.196269	-11.733	13.9009	-3.01618
 630	1	11	0.131285	-13.3492	13.5107	-1.69549
 631	1	3	-0.292673	-11.5331	14.5254	-4.33588
 632	1	3	-0.034798	-12.0582	12.367	-5.36664
 633	1	12	0.194395	-10.4985	14.3889	-4.68019
 634	1	12	0.183693	-11.7804	15.5952	-4.30974
 635	1	2	-0.144532	-10.6113	12.0768	-1.79993
 636	1	2	0.128587	-11.2896	12.5743	-2.93853