pySIMM System Object

1298 atoms
1441 bonds
2592 angles
3992 dihedrals
360 impropers

12 atom types
15 bond types
28 angle types
9 dihedral types
4 improper types

-169.400533 169.400533 xlo xhi
-169.400533 169.400533 ylo yhi
-169.400533 169.400533 zlo zhi

Masses

   1	14.01	# nh
   2	12.01	# ca
   3	12.01	# c3
   4	1.008	# ha
   5	19.0	# f
   6	12.01	# c
   7	14.01	# n
   8	16.0	# o
   9	1.008	# hn
  10	1.008	# hc
  11	1.008	# h1
  12	1.008	# h2

Pair Coeffs

   1	0.17	3.249998523775958	# nh
   2	0.086	3.3996695084235347	# ca
   3	0.1094	3.3996695084235347	# c3
   4	0.015	2.59964245953351	# ha
   5	0.061	3.1181455134911875	# f
   6	0.086	3.3996695084235347	# c
   7	0.17	3.249998523775958	# n
   8	0.21	2.959921901149463	# o
   9	0.0157	1.069078461768407	# hn
  10	0.0157	2.649532787749369	# hc
  11	0.0157	2.471353044121301	# h1
  12	0.0157	2.2931733004932333	# h2

Bond Coeffs

   1	356.9	1.3497	# c3,f
   2	403.2	1.0129	# hn,n
   3	417.9	1.3859	# ca,nh
   4	300.9	1.5375	# c3,c3
   5	384.2	1.4121	# ca,n
   6	330.6	1.0969	# c3,h1
   7	461.1	1.3984	# ca,ca
   8	326.6	1.464	# c3,nh
   9	427.6	1.3789	# c,n
  10	331.7	1.0961	# c3,h2
  11	345.9	1.4906	# c,ca
  12	345.8	1.086	# ca,ha
  13	321.0	1.5156	# c3,ca
  14	330.6	1.0969	# c3,hc
  15	637.7	1.2183	# c,o

Angle Coeffs

   1	71.11	105.87	# nh,c3,nh
   2	63.25	114.51	# c3,nh,c3
   3	74.22	123.05	# n,c,o
   4	66.62	120.02	# ca,ca,ca
   5	68.29	120.95	# ca,ca,nh
   6	49.52	110.01	# h2,c3,nh
   7	68.72	122.6	# ca,c,o
   8	49.57	109.79	# h1,c3,nh
   9	67.68	115.25	# ca,c,n
  10	66.46	111.39	# ca,c3,nh
  11	48.33	117.55	# c,n,hn
  12	64.28	120.33	# c,ca,ca
  13	39.4	107.58	# hc,c3,hc
  14	63.53	120.77	# c3,ca,ca
  15	70.89	107.36	# f,c3,f
  16	67.87	120.19	# ca,ca,n
  17	46.8	110.47	# ca,c3,hc
  18	46.99	109.56	# ca,c3,h1
  19	62.86	111.51	# c3,c3,c3
  20	66.11	109.24	# c3,c3,f
  21	63.15	112.07	# c3,c3,ca
  22	38.96	110.2	# h2,c3,h2
  23	63.82	123.71	# c,n,ca
  24	39.24	108.46	# h1,c3,h1
  25	63.56	112.24	# ca,c3,ca
  26	63.39	119.98	# c3,nh,ca
  27	63.74	127.08	# c,n,c
  28	48.18	119.88	# ca,ca,ha

Dihedral Coeffs

   1	2	2.5	2	180	2.0	1	0	# hn,n,c,o
   2	1	0.0	2	0	# X,c3,nh,X
   3	1	3.625	2	180	# X,ca,ca,X
   4	1	0.0	2	0	# X,c3,ca,X
   5	1	1.0	2	180	# X,c,ca,X
   6	1	0.15555555555555556	3	0	# X,c3,c3,X
   7	1	2.5	2	180	# X,c,n,X
   8	1	0.45	2	180	# X,ca,n,X
   9	1	1.05	2	180	# X,ca,nh,X

Improper Coeffs

   1	10.5	-1	2	# c,X,X,o
   2	1.1	-1	2	# n,X,X,hn
   3	1.1	-1	2	# ca,ca,ca,c3
   4	1.1	-1	2	# ca,X,X,ha

Atoms

   1	1	1	-0.247122	-48.1707	-91.0012	17.6307
   2	1	2	0.139112	-48.6065	-89.7804	17.0914
   3	1	2	0.02746	-48.9292	-88.66	17.8999
   4	1	3	-0.077297	-48.8902	-88.7483	19.4276
   5	1	2	-0.08585	-49.3042	-87.4472	17.2727
   6	1	2	-0.195578	-49.3967	-87.3748	15.8701
   7	1	4	0.171692	-49.6966	-86.4449	15.3896
   8	1	2	-0.199822	-49.0903	-88.4857	15.0767
   9	1	4	0.149498	-49.1503	-88.4132	13.994
  10	1	2	0.076729	-48.6773	-89.6804	15.6794
  11	1	2	-0.057821	-50.4206	-84.1751	18.4216
  12	1	2	-0.076852	-51.1763	-83.0046	18.2953
  13	1	4	0.145382	-52.1758	-83.0865	17.8821
  14	1	2	-0.023498	-50.5645	-81.7542	18.5731
  15	1	4	0.166076	-47.4119	-82.9222	19.3989
  16	1	2	-0.140684	-48.4701	-82.9418	19.1448
  17	1	2	-0.058922	-49.0994	-84.1473	18.8151
  18	1	3	-0.101954	-51.2405	-80.4118	18.1775
  19	1	2	-0.067123	-49.2144	-81.7497	19.0222
  20	1	4	0.142141	-48.7043	-80.8052	19.1936
  21	1	3	0.321219	-50.7521	-80.117	16.705
  22	1	3	0.382784	-52.8194	-80.475	18.189
  23	1	5	-0.111948	-49.4279	-79.8428	16.6635
  24	1	5	-0.11115	-51.4014	-79.0796	16.1295
  25	1	5	-0.103632	-50.9301	-81.1791	15.8863
  26	1	5	-0.110272	-53.2904	-81.0612	19.3128
  27	1	5	-0.120305	-53.3481	-81.1514	17.1446
  28	1	5	-0.123663	-53.3636	-79.2369	18.1456
  29	1	6	0.452517	-48.5184	-85.4987	18.5855
  30	1	6	0.453374	-50.7361	-85.5438	17.9387
  31	1	7	0.018948	-49.5377	-86.2443	18.0012
  32	1	8	-0.46698	-47.3429	-85.8002	18.7057
  33	1	8	-0.469385	-51.783	-85.8926	17.4201
  34	1	3	-0.126657	-48.2745	-90.8654	14.7962
  35	1	2	0.020988	-50.2084	-77.022	19.7456
  36	1	6	0.027902	-49.8418	-75.602	19.5522
  37	1	8	-0.378193	-49.5098	-75.0836	18.4982
  38	1	2	0.043573	-50.4788	-77.2321	21.0806
  39	1	6	0.038038	-50.3336	-75.9354	21.7986
  40	1	7	0.4913	-49.9878	-75.013	20.8083
  41	1	8	-0.382817	-50.5501	-75.7344	22.9827
  42	1	2	0.0054	-50.39	-78.0179	18.785
  43	1	2	-0.040988	-50.8878	-78.4885	21.5384
  44	1	2	-0.085341	-50.8444	-79.2993	19.1958
  45	1	4	0.154391	-50.2224	-77.7487	17.7485
  46	1	2	-0.205992	-51.0539	-79.5204	20.5866
  47	1	4	0.156637	-51.1068	-78.6451	22.5925
  48	1	4	0.178085	-51.4032	-80.4912	20.9327
  49	1	10	0.05178	-49.7429	-88.2253	19.8772
  50	1	10	0.015669	-47.971	-88.2996	19.8235
  51	1	10	0.036134	-48.9375	-89.7826	19.789
  52	1	11	0.101096	-49.1631	-91.2572	14.2871
  53	1	1	-0.196269	-47.6422	-91.9363	15.5953
  54	1	11	0.131285	-47.5766	-90.5093	14.0285
  55	1	3	-0.292673	-48.4443	-92.1963	16.8062
  56	1	3	-0.034798	-46.7863	-91.0561	18.1561
  57	1	12	0.194395	-48.1075	-93.1146	17.3062
  58	1	12	0.183693	-49.5131	-92.2722	16.5658
  59	1	2	-0.144532	-45.3314	-92.1777	14.7637
  60	1	2	0.128587	-46.2549	-91.8665	15.7906
  61	1	2	0.222203	-43.9532	-92.0846	15.0317
  62	1	2	0.041795	-45.7869	-91.4442	17.0598
  63	1	2	-0.461017	-43.4928	-91.6845	16.2956
  64	1	2	-0.140506	-44.4079	-91.3583	17.3095
  65	1	4	0.148448	-44.0532	-91.0323	18.2853
  66	1	10	0.055442	-45.0892	-93.3599	12.9499
  67	1	10	0.090839	-46.7762	-93.065	13.3717
  68	1	3	-0.16304	-45.7764	-92.6137	13.3686
  69	1	10	0.039719	-45.7939	-91.7577	12.6823
  70	1	11	0.077452	-46.7303	-91.7883	18.9706
  71	1	11	0.09063	-46.4992	-90.0791	18.5651
  72	1	4	0.230266	-42.4232	-91.6188	16.4774
  73	1	1	-0.247122	-49.7672	-68.5706	20.2571
  74	1	2	0.139112	-49.1959	-68.4291	18.9819
  75	1	2	0.02746	-48.1901	-67.471	18.6914
  76	1	3	-0.077297	-47.698	-66.4834	19.7533
  77	1	2	-0.08585	-47.6695	-67.3964	17.376
  78	1	2	-0.195578	-48.1253	-68.2794	16.3813
  79	1	4	0.171692	-47.7134	-68.2285	15.3752
  80	1	2	-0.199822	-49.1264	-69.2158	16.6691
  81	1	4	0.149498	-49.4855	-69.8833	15.8902
  82	1	2	0.076729	-49.6734	-69.2839	17.9581
  83	1	2	-0.057821	-45.7513	-64.4841	16.2162
  84	1	2	-0.076852	-45.5052	-63.2093	15.6885
  85	1	4	0.145382	-46.3324	-62.5108	15.5831
  86	1	2	-0.023498	-44.1893	-62.8722	15.2729
  87	1	4	0.166076	-42.6788	-65.9199	15.9422
  88	1	2	-0.140684	-43.4508	-65.1543	15.8918
  89	1	2	-0.058922	-44.7551	-65.4331	16.3088
  90	1	3	-0.101954	-43.9196	-61.4868	14.6113
  91	1	2	-0.067123	-43.1775	-63.8704	15.3778
  92	1	4	0.142141	-42.1686	-63.6805	15.0301
  93	1	3	0.321219	-42.4289	-60.9981	14.7755
  94	1	3	0.382784	-44.2417	-61.6817	13.0796
  95	1	5	-0.111948	-41.9934	-61.1587	16.0455
  96	1	5	-0.11115	-42.3035	-59.6815	14.4915
  97	1	5	-0.103632	-41.5521	-61.6398	13.9706
  98	1	5	-0.110272	-45.5644	-61.8765	12.8738
  99	1	5	-0.120305	-43.622	-62.7688	12.5653
 100	1	5	-0.123663	-43.8581	-60.6333	12.3161
 101	1	6	0.452517	-45.3545	-66.6952	16.8206
 102	1	6	0.453374	-47.022	-65.1035	16.6807
 103	1	7	0.018948	-46.7032	-66.4179	17.0039
 104	1	8	-0.46698	-44.7765	-67.7575	16.9757
 105	1	8	-0.469385	-48.1138	-64.5624	16.721
 106	1	3	-0.126657	-50.7977	-70.2845	18.2464
 107	1	2	0.020988	-45.6785	-59.398	17.3407
 108	1	6	0.027902	-45.9824	-59.179	18.7793
 109	1	8	-0.378193	-45.5381	-59.8189	19.718
 110	1	2	0.043573	-46.3894	-58.473	16.6048
 111	1	6	0.038038	-47.1829	-57.63	17.5305
 112	1	7	0.4913	-46.8922	-58.1205	18.8019
 113	1	8	-0.382817	-47.9548	-56.7384	17.2165
 114	1	2	0.0054	-44.874	-60.3638	16.7226
 115	1	2	-0.040988	-46.3236	-58.4483	15.2124
 116	1	2	-0.085341	-44.8058	-60.4036	15.3032
 117	1	4	0.154391	-44.3356	-61.0803	17.3382
 118	1	2	-0.205992	-45.525	-59.4149	14.5695
 119	1	4	0.156637	-46.8861	-57.7068	14.6489
 120	1	4	0.178085	-45.4883	-59.3726	13.4868
 121	1	10	0.05178	-47.9632	-66.7812	20.7732
 122	1	10	0.015669	-48.1303	-65.4895	19.5837
 123	1	10	0.036134	-46.606	-66.3829	19.7295
 124	1	11	0.101096	-51.695	-69.9875	17.6907
 125	1	1	-0.196269	-51.1095	-70.3546	19.6921
 126	1	11	0.131285	-50.4886	-71.2716	17.88
 127	1	3	-0.292673	-51.1806	-68.9983	20.2681
 128	1	3	-0.034798	-49.0006	-69.3331	21.2748
 129	1	12	0.194395	-51.5819	-69.0275	21.29
 130	1	12	0.183693	-51.7969	-68.3369	19.6442
 131	1	2	-0.144532	-50.6789	-72.6847	20.3493
 132	1	2	0.128587	-50.3975	-71.3005	20.4392
 133	1	2	0.222203	-49.8341	-73.6079	21.0182
 134	1	2	0.041795	-49.3242	-70.8333	21.2314
 135	1	2	-0.461017	-48.786	-73.1262	21.835
 136	1	2	-0.140506	-48.5394	-71.7478	21.9503
 137	1	4	0.148448	-47.7185	-71.3869	22.5669
 138	1	10	0.055442	-52.686	-72.4251	19.496
 139	1	10	0.090839	-51.5961	-73.394	18.4946
 140	1	3	-0.16304	-51.8837	-73.1726	19.5304
 141	1	10	0.039719	-52.3328	-74.0778	19.9572
 142	1	11	0.077452	-49.2346	-68.9457	22.274
 143	1	11	0.09063	-47.9241	-69.2012	21.109
 144	1	4	0.230266	-48.151	-73.8303	22.3706
 145	1	1	-0.247122	-49.0229	-55.0926	24.1238
 146	1	2	0.139112	-48.0036	-55.3922	25.0411
 147	1	2	0.02746	-48.2739	-55.8805	26.3445
 148	1	3	-0.077297	-49.712	-55.9981	26.8567
 149	1	2	-0.08585	-47.1879	-56.2514	27.172
 150	1	2	-0.195578	-45.8645	-56.115	26.7146
 151	1	4	0.171692	-45.0322	-56.4017	27.3554
 152	1	2	-0.199822	-45.6021	-55.6095	25.4375
 153	1	4	0.149498	-44.5767	-55.5114	25.0916
 154	1	2	0.076729	-46.6648	-55.2512	24.5992
 155	1	2	-0.057821	-46.8831	-57.1535	30.6752
 156	1	2	-0.076852	-46.297	-57.0741	31.9385
 157	1	4	0.145382	-45.9526	-56.1042	32.2889
 158	1	2	-0.023498	-46.0612	-58.2675	32.6688
 159	1	4	0.166076	-47.5339	-60.4845	30.4519
 160	1	2	-0.140684	-47.2055	-59.5392	30.88
 161	1	2	-0.058922	-47.3134	-58.3511	30.1473
 162	1	3	-0.101954	-45.225	-58.1999	33.9809
 163	1	2	-0.067123	-46.5774	-59.487	32.1441
 164	1	4	0.142141	-46.4606	-60.4179	32.6885
 165	1	3	0.321219	-46.2581	-58.0005	35.1517
 166	1	3	0.382784	-44.3767	-59.5061	34.2467
 167	1	5	-0.111948	-46.933	-56.8347	35.0295
 168	1	5	-0.11115	-45.6721	-58.0147	36.3703
 169	1	5	-0.103632	-47.2059	-58.9654	35.163
 170	1	5	-0.110272	-43.735	-59.927	33.1337
 171	1	5	-0.120305	-45.1059	-60.5572	34.683
 172	1	5	-0.123663	-43.4237	-59.2905	35.1814
 173	1	6	0.452517	-47.684	-58.1189	28.7235
 174	1	6	0.453374	-46.9464	-56.1169	29.6178
 175	1	7	0.018948	-47.3639	-56.7878	28.4766
 176	1	8	-0.46698	-48.022	-58.9706	27.9189
 177	1	8	-0.469385	-46.5045	-54.9834	29.7043
 178	1	3	-0.126657	-46.3655	-54.737	23.1898
 179	1	2	0.020988	-42.5939	-55.8602	32.4147
 180	1	6	0.027902	-41.7321	-55.5428	31.2487
 181	1	8	-0.378193	-41.4549	-56.3046	30.3365
 182	1	2	0.043573	-42.6039	-54.7726	33.2595
 183	1	6	0.038038	-41.7714	-53.6993	32.6608
 184	1	7	0.4913	-41.3093	-54.2252	31.4518
 185	1	8	-0.382817	-41.5667	-52.5956	33.1403
 186	1	2	0.0054	-43.3704	-56.9944	32.6708
 187	1	2	-0.040988	-43.3509	-54.7813	34.439
 188	1	2	-0.085341	-44.2056	-57.023	33.8222
 189	1	4	0.154391	-43.3806	-57.7947	31.9361
 190	1	2	-0.205992	-44.1443	-55.9149	34.7172
 191	1	4	0.156637	-43.3428	-53.9169	35.0996
 192	1	4	0.178085	-44.7397	-55.8857	35.6236
 193	1	10	0.05178	-50.1262	-56.989	26.6343
 194	1	10	0.015669	-50.3701	-55.2481	26.4006
 195	1	10	0.036134	-49.7761	-55.8437	27.9404
 196	1	11	0.101096	-45.9658	-53.718	23.2556
 197	1	1	-0.196269	-47.585	-54.7439	22.3551
 198	1	11	0.131285	-45.5949	-55.3734	22.7381
 199	1	3	-0.292673	-48.6869	-54.0915	23.0904
 200	1	3	-0.034798	-49.706	-56.2433	23.4919
 201	1	12	0.194395	-49.5401	-53.9013	22.4249
 202	1	12	0.183693	-48.3566	-53.1495	23.5485
 203	1	2	-0.144532	-47.1885	-56.3993	20.5615
 204	1	2	0.128587	-47.9005	-55.946	21.7028
 205	1	2	0.222203	-47.5365	-57.6468	19.9836
 206	1	2	0.041795	-48.9407	-56.7323	22.2564
 207	1	2	-0.461017	-48.5621	-58.427	20.5615
 208	1	2	-0.140506	-49.261	-57.9734	21.6891
 209	1	4	0.148448	-50.0504	-58.5817	22.1266
 210	1	10	0.055442	-45.9436	-54.5786	20.4067
 211	1	10	0.090839	-45.0971	-56.0757	20.0136
 212	1	3	-0.16304	-46.0635	-55.5608	19.9361
 213	1	10	0.039719	-46.2564	-55.3618	18.8753
 214	1	11	0.077452	-50.7195	-55.9491	23.1928
 215	1	11	0.09063	-49.7961	-57.0713	24.2057
 216	1	4	0.230266	-48.8196	-59.392	20.1272
 217	1	1	-0.247122	-37.9093	-51.6778	26.5531
 218	1	2	0.139112	-37.3904	-52.8439	25.9696
 219	1	2	0.02746	-36.0244	-52.9655	25.6158
 220	1	3	-0.077297	-35.0769	-51.7765	25.8263
 221	1	2	-0.08585	-35.5572	-54.1949	25.0852
 222	1	2	-0.195578	-36.441	-55.2759	24.9181
 223	1	4	0.171692	-36.0766	-56.2246	24.5291
 224	1	2	-0.199822	-37.7943	-55.1451	25.2627
 225	1	4	0.149498	-38.4696	-55.9879	25.1404
 226	1	2	0.076729	-38.2735	-53.9345	25.7855
 227	1	2	-0.057821	-32.1384	-54.023	23.7874
 228	1	2	-0.076852	-31.0781	-53.5139	23.0267
 229	1	4	0.145382	-31.317	-53.001	22.1012
 230	1	2	-0.023498	-29.7551	-53.6128	23.5366
 231	1	4	0.166076	-30.4892	-55.283	26.4851
 232	1	2	-0.140684	-30.6421	-54.8148	25.5145
 233	1	2	-0.058922	-31.9301	-54.6472	24.9998
 234	1	3	-0.101954	-28.5272	-52.9214	22.8681
 235	1	2	-0.067123	-29.5641	-54.2882	24.776
 236	1	4	0.142141	-28.5695	-54.3576	25.2078
 237	1	3	0.321219	-27.5663	-54.0676	22.3585
 238	1	3	0.382784	-28.9013	-51.9943	21.6458
 239	1	5	-0.111948	-26.9831	-54.7404	23.3754
 240	1	5	-0.11115	-26.5603	-53.6206	21.5738
 241	1	5	-0.103632	-28.2406	-54.9883	21.6333
 242	1	5	-0.110272	-29.828	-51.064	21.971
 243	1	5	-0.120305	-29.3842	-52.6878	20.5901
 244	1	5	-0.123663	-27.8335	-51.2936	21.2008
 245	1	6	0.452517	-33.2534	-54.9155	25.6229
 246	1	6	0.453374	-33.6051	-53.8719	23.5901
 247	1	7	0.018948	-34.1863	-54.3739	24.7488
 248	1	8	-0.46698	-33.4468	-55.3862	26.7309
 249	1	8	-0.469385	-34.1494	-53.2724	22.6786
 250	1	3	-0.126657	-39.7481	-53.8057	26.1877
 251	1	2	0.020988	-26.0277	-50.9967	25.1383
 252	1	6	0.027902	-24.6372	-50.682	25.5566
 253	1	8	-0.378193	-23.6159	-51.1624	25.0935
 254	1	2	0.043573	-26.8895	-50.2375	25.9047
 255	1	6	0.038038	-26.0941	-49.4064	26.8422
 256	1	7	0.4913	-24.7665	-49.7276	26.5667
 257	1	8	-0.382817	-26.5327	-48.6053	27.6517
 258	1	2	0.0054	-26.494	-51.873	24.149
 259	1	2	-0.040988	-28.271	-50.3077	25.7259
 260	1	2	-0.085341	-27.8958	-51.9916	23.9463
 261	1	4	0.154391	-25.7676	-52.4303	23.5664
 262	1	2	-0.205992	-28.7623	-51.189	24.7431
 263	1	4	0.156637	-28.9384	-49.6936	26.3269
 264	1	4	0.178085	-29.8394	-51.2372	24.5968
 265	1	10	0.05178	-35.5641	-50.8308	25.5579
 266	1	10	0.015669	-34.1654	-51.8299	25.2231
 267	1	10	0.036134	-34.7653	-51.7072	26.8751
 268	1	11	0.101096	-40.3691	-53.8006	25.2844
 269	1	1	-0.196269	-39.9922	-52.5706	26.9693
 270	1	11	0.131285	-40.0269	-54.6847	26.7825
 271	1	3	-0.292673	-39.3427	-51.4225	26.3064
 272	1	3	-0.034798	-37.5968	-51.4455	27.9816
 273	1	12	0.194395	-39.6653	-50.4757	26.7605
 274	1	12	0.183693	-39.5588	-51.4111	25.2296
 275	1	2	-0.144532	-40.7516	-53.314	29.1945
 276	1	2	0.128587	-39.8102	-52.6645	28.3571
 277	1	2	0.222203	-40.4381	-53.511	30.5671
 278	1	2	0.041795	-38.6082	-52.1469	28.8927
 279	1	2	-0.461017	-39.2275	-52.9893	31.0795
 280	1	2	-0.140506	-38.3273	-52.2989	30.256
 281	1	4	0.148448	-37.4015	-51.9003	30.6665
 282	1	10	0.055442	-42.9031	-53.7578	29.3545
 283	1	10	0.090839	-42.4301	-53.1043	27.7997
 284	1	3	-0.16304	-42.0978	-53.766	28.61
 285	1	10	0.039719	-42.0295	-54.7803	28.1981
 286	1	11	0.077452	-37.6072	-50.3688	28.1912
 287	1	11	0.09063	-36.5955	-51.8229	28.2193
 288	1	4	0.230266	-38.9934	-53.1075	32.1369
 289	1	1	-0.247122	-19.4331	-46.496	28.3716
 290	1	2	0.139112	-18.3681	-47.0352	27.6344
 291	1	2	0.02746	-17.0861	-47.2566	28.1969
 292	1	3	-0.077297	-16.8181	-46.9235	29.6687
 293	1	2	-0.08585	-16.0469	-47.7636	27.3744
 294	1	2	-0.195578	-16.2986	-48.0549	26.0212
 295	1	4	0.171692	-15.4983	-48.4297	25.3863
 296	1	2	-0.199822	-17.5719	-47.84	25.4725
 297	1	4	0.149498	-17.7552	-48.0567	24.4233
 298	1	2	0.076729	-18.6039	-47.3215	26.2689
 299	1	2	-0.057821	-12.5753	-47.3939	28.509
 300	1	2	-0.076852	-11.3909	-46.7088	28.8122
 301	1	4	0.145382	-11.178	-45.7713	28.3041
 302	1	2	-0.023498	-10.5751	-47.1707	29.8775
 303	1	4	0.166076	-12.4439	-49.9607	30.7366
 304	1	2	-0.140684	-12.1292	-49.0756	30.1864
 305	1	2	-0.058922	-12.9416	-48.5409	29.1811
 306	1	3	-0.101954	-9.45638	-46.2318	30.416
 307	1	2	-0.067123	-10.9531	-48.3775	30.5355
 308	1	4	0.142141	-10.3833	-48.7605	31.3746
 309	1	3	0.321219	-10.2088	-45.0834	31.2095
 310	1	3	0.382784	-8.45782	-46.9277	31.4411
 311	1	5	-0.111948	-11.0766	-44.3827	30.446
 312	1	5	-0.11115	-9.35294	-44.1899	31.7543
 313	1	5	-0.103632	-10.9754	-45.5682	32.2129
 314	1	5	-0.110272	-7.98916	-48.1188	31.0076
 315	1	5	-0.120305	-8.99398	-47.1873	32.6544
 316	1	5	-0.123663	-7.37227	-46.1533	31.6696
 317	1	6	0.452517	-14.3193	-48.9163	28.7531
 318	1	6	0.453374	-13.7101	-46.9881	27.637
 319	1	7	0.018948	-14.7182	-47.9167	27.8723
 320	1	8	-0.46698	-14.9847	-49.8378	29.1942
 321	1	8	-0.469385	-13.7686	-45.9737	26.9633
 322	1	3	-0.126657	-19.9807	-47.0441	25.6502
 323	1	2	0.020988	-7.71802	-43.9135	27.8023
 324	1	6	0.027902	-7.5796	-42.5919	27.1406
 325	1	8	-0.378193	-8.3894	-41.6838	27.2312
 326	1	2	0.043573	-6.75508	-44.7515	27.2945
 327	1	6	0.038038	-5.88272	-43.9755	26.38
 328	1	7	0.4913	-6.43971	-42.6889	26.3268
 329	1	8	-0.382817	-4.89106	-44.4111	25.8162
 330	1	2	0.0054	-8.6238	-44.3388	28.7817
 331	1	2	-0.040988	-6.73926	-46.1067	27.6227
 332	1	2	-0.085341	-8.59731	-45.6956	29.217
 333	1	4	0.154391	-9.29617	-43.5937	29.1878
 334	1	2	-0.205992	-7.69409	-46.5746	28.5498
 335	1	4	0.156637	-6.01143	-46.7741	27.1662
 336	1	4	0.178085	-7.68968	-47.6367	28.7689
 337	1	10	0.05178	-16.9442	-47.8166	30.2933
 338	1	10	0.015669	-17.4956	-46.1515	30.0522
 339	1	10	0.036134	-15.8032	-46.5418	29.8288
 340	1	11	0.101096	-19.8772	-46.2763	24.8743
 341	1	1	-0.196269	-20.9639	-46.5906	26.6625
 342	1	11	0.131285	-20.3396	-47.9617	25.1672
 343	1	3	-0.292673	-20.3481	-45.6331	27.5998
 344	1	3	-0.034798	-20.1981	-47.4059	29.2599
 345	1	12	0.194395	-21.1081	-45.1754	28.2479
 346	1	12	0.183693	-19.794	-44.8514	27.0625
 347	1	2	-0.144532	-22.8911	-48.1198	26.5819
 348	1	2	0.128587	-21.7751	-47.5656	27.2543
 349	1	2	0.222203	-23.6565	-49.1225	27.2276
 350	1	2	0.041795	-21.429	-47.9965	28.5563
 351	1	2	-0.461017	-23.314	-49.5297	28.5374
 352	1	2	-0.140506	-22.208	-48.9707	29.198
 353	1	4	0.148448	-21.946	-49.2959	30.203
 354	1	10	0.055442	-24.3431	-47.693	24.9801
 355	1	10	0.090839	-22.9867	-46.5862	25.0153
 356	1	3	-0.16304	-23.2653	-47.6357	25.1741
 357	1	10	0.039719	-22.7551	-48.2353	24.4098
 358	1	11	0.077452	-20.5246	-46.8552	30.1506
 359	1	11	0.09063	-19.5546	-48.2292	29.5949
 360	1	4	0.230266	-23.9104	-50.2868	29.0432
 361	1	1	-0.247122	-5.14723	-37.374	22.8077
 362	1	2	0.139112	-6.44791	-37.0736	22.3811
 363	1	2	0.02746	-6.74497	-36.8005	21.0229
 364	1	3	-0.077297	-5.61001	-36.6479	20.0038
 365	1	2	-0.08585	-8.09677	-36.6626	20.6172
 366	1	2	-0.195578	-9.12166	-36.7309	21.5813
 367	1	4	0.171692	-10.1607	-36.6098	21.2808
 368	1	2	-0.199822	-8.81652	-36.9617	22.935
 369	1	4	0.149498	-9.61665	-37.0234	23.6683
 370	1	2	0.076729	-7.48426	-37.1485	23.3399
 371	1	2	-0.057821	-8.81899	-35.4402	17.2186
 372	1	2	-0.076852	-8.98298	-34.4945	16.1967
 373	1	4	0.145382	-9.25898	-33.4867	16.4864
 374	1	2	-0.023498	-8.67117	-34.8402	14.8487
 375	1	4	0.166076	-7.70907	-38.118	15.4443
 376	1	2	-0.140684	-8.09285	-37.1186	15.6397
 377	1	2	-0.058922	-8.39289	-36.7214	16.9491
 378	1	3	-0.101954	-8.65331	-33.751	13.7206
 379	1	2	-0.067123	-8.21696	-36.1666	14.6015
 380	1	4	0.142141	-7.90747	-36.4585	13.6023
 381	1	3	0.321219	-9.89854	-32.7896	13.8382
 382	1	3	0.382784	-7.32553	-32.9232	13.947
 383	1	5	-0.111948	-10.0706	-32.0535	12.7162
 384	1	5	-0.11115	-9.81498	-31.8998	14.8515
 385	1	5	-0.103632	-11.0402	-33.4907	14.021
 386	1	5	-0.110272	-7.14022	-32.5519	15.2339
 387	1	5	-0.120305	-7.28573	-31.7758	13.2327
 388	1	5	-0.123663	-6.23855	-33.6572	13.6162
 389	1	6	0.452517	-8.18136	-37.4225	18.2478
 390	1	6	0.453374	-8.87449	-35.2692	18.7002
 391	1	7	0.018948	-8.42866	-36.4729	19.2369
 392	1	8	-0.46698	-7.75439	-38.5565	18.3863
 393	1	8	-0.469385	-9.14083	-34.2388	19.2945
 394	1	3	-0.126657	-7.14748	-37.4664	24.8075
 395	1	2	0.020988	-8.16066	-34.3575	9.8903
 396	1	6	0.027902	-7.46715	-34.0068	8.62366
 397	1	8	-0.378193	-6.5585	-33.201	8.50818
 398	1	2	0.043573	-9.10303	-35.3235	9.61688
 399	1	6	0.038038	-9.04049	-35.6419	8.15456
 400	1	7	0.4913	-8.02992	-34.8222	7.6382
 401	1	8	-0.382817	-9.6955	-36.4889	7.56989
 402	1	2	0.0054	-7.95094	-33.8666	11.186
 403	1	2	-0.040988	-9.9009	-35.8416	10.6466
 404	1	2	-0.085341	-8.73426	-34.3608	12.2707
 405	1	4	0.154391	-7.19515	-33.0996	11.3025
 406	1	2	-0.205992	-9.71709	-35.3453	11.9621
 407	1	4	0.156637	-10.6524	-36.5973	10.4281
 408	1	4	0.178085	-10.3635	-35.7215	12.7528
 409	1	10	0.05178	-5.42382	-37.5928	19.4795
 410	1	10	0.015669	-4.66941	-36.3383	20.475
 411	1	10	0.036134	-5.83794	-35.8816	19.2534
 412	1	11	0.101096	-7.28642	-36.5631	25.4133
 413	1	1	-0.196269	-5.75394	-37.9588	24.9577
 414	1	11	0.131285	-7.84998	-38.2246	25.1771
 415	1	3	-0.292673	-4.83494	-37.0714	24.2202
 416	1	3	-0.034798	-4.65783	-38.7255	22.4591
 417	1	12	0.194395	-3.78955	-37.3099	24.4582
 418	1	12	0.183693	-5.03711	-36.0163	24.4487
 419	1	2	-0.144532	-5.9106	-40.2837	25.761
 420	1	2	0.128587	-5.56991	-39.3362	24.7632
 421	1	2	0.222203	-5.97481	-41.667	25.4193
 422	1	2	0.041795	-5.11819	-39.7565	23.4932
 423	1	2	-0.461017	-5.58223	-42.0507	24.1116
 424	1	2	-0.140506	-5.11657	-41.1176	23.1753
 425	1	4	0.148448	-4.78974	-41.4436	22.1898
 426	1	10	0.055442	-5.94648	-40.5426	27.9476
 427	1	10	0.090839	-5.46725	-38.9405	27.4262
 428	1	3	-0.16304	-6.14098	-39.7745	27.1899
 429	1	10	0.039719	-7.16607	-39.4084	27.3241
 430	1	11	0.077452	-3.56181	-38.7216	22.4169
 431	1	11	0.09063	-5.02951	-39.0224	21.4706
 432	1	4	0.230266	-5.60706	-43.0996	23.82
 433	1	1	-0.247122	-5.45573	-33.1653	1.96314
 434	1	2	0.139112	-5.84533	-33.3785	0.638749
 435	1	2	0.02746	-4.95686	-33.2253	-0.459558
 436	1	3	-0.077297	-3.46207	-33.075	-0.172869
 437	1	2	-0.08585	-5.47233	-33.1918	-1.7889
 438	1	2	-0.195578	-6.85289	-33.4434	-1.96887
 439	1	4	0.171692	-7.27521	-33.4465	-2.97259
 440	1	2	-0.199822	-7.7122	-33.6706	-0.873096
 441	1	4	0.149498	-8.77101	-33.8463	-1.04529
 442	1	2	0.076729	-7.2217	-33.6068	0.442365
 443	1	2	-0.057821	-3.84835	-32.6454	-5.11639
 444	1	2	-0.076852	-3.66137	-32.7275	-6.51168
 445	1	4	0.145382	-4.177	-33.5231	-7.0376
 446	1	2	-0.023498	-2.91041	-31.718	-7.19603
 447	1	4	0.166076	-2.1329	-29.794	-4.42393
 448	1	2	-0.140684	-2.52757	-30.6241	-5.00646
 449	1	2	-0.058922	-3.32723	-31.5987	-4.39256
 450	1	3	-0.101954	-2.94551	-31.5417	-8.75932
 451	1	2	-0.067123	-2.31919	-30.6977	-6.40325
 452	1	4	0.142141	-1.7641	-29.8986	-6.888
 453	1	3	0.321219	-3.27241	-32.8952	-9.50236
 454	1	3	0.382784	-4.12761	-30.5242	-9.01451
 455	1	5	-0.111948	-3.06169	-32.8006	-10.8354
 456	1	5	-0.11115	-4.55563	-33.2981	-9.3591
 457	1	5	-0.103632	-2.48364	-33.9013	-9.06204
 458	1	5	-0.110272	-4.52818	-30.4735	-10.305
 459	1	5	-0.120305	-3.78017	-29.2685	-8.65078
 460	1	5	-0.123663	-5.23224	-30.8298	-8.29499
 461	1	6	0.452517	-3.86365	-31.6777	-3.00089
 462	1	6	0.453374	-4.69555	-33.4629	-4.18522
 463	1	7	0.018948	-4.6672	-32.8218	-2.93997
 464	1	8	-0.46698	-3.71771	-30.8156	-2.15101
 465	1	8	-0.469385	-5.33052	-34.4559	-4.49837
 466	1	3	-0.126657	-8.1533	-33.7245	1.67793
 467	1	2	0.020988	-0.304284	-29.8564	-11.1211
 468	1	6	0.027902	-0.0128523	-29.027	-12.3302
 469	1	8	-0.378193	-0.822255	-28.3289	-12.9182
 470	1	2	0.043573	0.851961	-30.5128	-10.7671
 471	1	6	0.038038	1.92171	-30.1539	-11.755
 472	1	7	0.4913	1.32903	-29.2646	-12.6672
 473	1	8	-0.382817	3.03337	-30.6541	-11.8046
 474	1	2	0.0054	-1.52296	-30.1019	-10.4601
 475	1	2	-0.040988	0.853105	-31.4144	-9.69073
 476	1	2	-0.085341	-1.58324	-31.0358	-9.3773
 477	1	4	0.154391	-2.40224	-29.6042	-10.8507
 478	1	2	-0.205992	-0.362335	-31.6611	-9.00016
 479	1	4	0.156637	1.76563	-31.9456	-9.42817
 480	1	4	0.178085	-0.367222	-32.4025	-8.20317
 481	1	10	0.05178	-3.22477	-32.0517	0.143114
 482	1	10	0.015669	-2.84291	-33.3217	-1.04291
 483	1	10	0.036134	-3.14302	-33.7505	0.629542
 484	1	11	0.101096	-9.07107	-33.1571	1.48229
 485	1	1	-0.196269	-7.54293	-33.2285	2.95836
 486	1	11	0.131285	-8.44054	-34.777	1.79491
 487	1	3	-0.292673	-6.41842	-32.3084	2.69604
 488	1	3	-0.034798	-5.00101	-34.3391	2.76312
 489	1	12	0.194395	-5.9851	-31.9392	3.6362
 490	1	12	0.183693	-6.74538	-31.4579	2.08205
 491	1	2	-0.144532	-8.00263	-34.2301	5.19023
 492	1	2	0.128587	-7.22746	-34.1183	3.99884
 493	1	2	0.222203	-7.45948	-34.9095	6.31913
 494	1	2	0.041795	-5.93234	-34.6816	3.93933
 495	1	2	-0.461017	-6.20076	-35.5415	6.19464
 496	1	2	-0.140506	-5.44515	-35.4327	5.01756
 497	1	4	0.148448	-4.44095	-35.8493	4.97395
 498	1	10	0.055442	-9.84272	-33.4315	4.31941
 499	1	10	0.090839	-10.0553	-34.0548	5.94608
 500	1	3	-0.16304	-9.35251	-33.5164	5.2974
 501	1	10	0.039719	-9.22876	-32.5021	5.69677
 502	1	11	0.077452	-4.00003	-34.1262	3.15729
 503	1	11	0.09063	-4.91976	-35.2219	2.11656
 504	1	4	0.230266	-5.76177	-36.0401	7.05712
 505	1	1	-0.247122	5.13343	-27.4055	-17.7497
 506	1	2	0.139112	5.52057	-26.1005	-18.0891
 507	1	2	0.02746	6.03723	-25.7267	-19.3655
 508	1	3	-0.077297	6.11007	-26.749	-20.4992
 509	1	2	-0.08585	6.54241	-24.4105	-19.5661
 510	1	2	-0.195578	6.48959	-23.4936	-18.4968
 511	1	4	0.171692	6.86418	-22.4813	-18.6359
 512	1	2	-0.199822	5.98203	-23.8708	-17.2392
 513	1	4	0.149498	5.97828	-23.154	-16.4225
 514	1	2	0.076729	5.51403	-25.1776	-17.0207
 515	1	2	-0.057821	8.62368	-23.4361	-22.5025
 516	1	2	-0.076852	9.74966	-23.3042	-23.341
 517	1	4	0.145382	10.6508	-23.8184	-23.0284
 518	1	2	-0.023498	9.66872	-22.5466	-24.5553
 519	1	4	0.166076	6.3416	-21.597	-24.2172
 520	1	2	-0.140684	7.2935	-22.0665	-23.9758
 521	1	2	-0.058922	7.42311	-22.8412	-22.8153
 522	1	3	-0.101954	10.8346	-22.4694	-25.6306
 523	1	2	-0.067123	8.41465	-21.9239	-24.8279
 524	1	4	0.142141	8.29394	-21.3246	-25.7254
 525	1	3	0.321219	12.1039	-23.2813	-25.1515
 526	1	3	0.382784	10.2746	-23.1347	-26.9541
 527	1	5	-0.111948	13.1394	-23.2471	-26.0185
 528	1	5	-0.11115	11.8357	-24.5934	-24.9618
 529	1	5	-0.103632	12.5952	-22.7757	-23.9977
 530	1	5	-0.110272	9.59188	-24.2722	-26.6939
 531	1	5	-0.120305	11.2235	-23.4655	-27.8572
 532	1	5	-0.123663	9.42701	-22.3094	-27.6089
 533	1	6	0.452517	6.43753	-23.1744	-21.7391
 534	1	6	0.453374	8.44026	-24.1736	-21.2088
 535	1	7	0.018948	7.11577	-23.9659	-20.8146
 536	1	8	-0.46698	5.28468	-22.7832	-21.679
 537	1	8	-0.469385	9.30504	-24.7922	-20.6128
 538	1	3	-0.126657	5.05722	-25.6365	-15.6144
 539	1	2	0.020988	12.6734	-19.4169	-27.2393
 540	1	6	0.027902	13.6817	-18.882	-28.2096
 541	1	8	-0.378193	14.2957	-19.5268	-29.0432
 542	1	2	0.043573	12.2483	-18.3749	-26.4456
 543	1	6	0.038038	12.938	-17.1327	-26.8831
 544	1	7	0.4913	13.7957	-17.5188	-27.9145
 545	1	8	-0.382817	12.7967	-16.0227	-26.3964
 546	1	2	0.0054	12.2124	-20.7262	-27.0204
 547	1	2	-0.040988	11.3699	-18.5893	-25.3783
 548	1	2	-0.085341	11.3111	-21.0026	-25.943
 549	1	4	0.154391	12.5971	-21.5068	-27.668
 550	1	2	-0.205992	10.9189	-19.9058	-25.1253
 551	1	4	0.156637	11.0753	-17.7569	-24.7429
 552	1	4	0.178085	10.2755	-20.0626	-24.2643
 553	1	10	0.05178	7.088	-27.2464	-20.5072
 554	1	10	0.015669	5.96259	-26.2816	-21.4805
 555	1	10	0.036134	5.34123	-27.5246	-20.4026
 556	1	11	0.101096	5.76876	-25.2537	-14.8735
 557	1	1	-0.196269	4.94693	-27.1232	-15.4529
 558	1	11	0.131285	4.08491	-25.174	-15.4031
 559	1	3	-0.292673	5.74147	-27.8438	-16.4726
 560	1	3	-0.034798	3.68212	-27.7744	-17.8284
 561	1	12	0.194395	5.6479	-28.9313	-16.3462
 562	1	12	0.183693	6.80062	-27.5574	-16.4169
 563	1	2	-0.144532	3.14433	-28.0576	-13.9907
 564	1	2	0.128587	3.68326	-27.7055	-15.2676
 565	1	2	0.222203	1.92763	-28.8057	-13.9115
 566	1	2	0.041795	3.02504	-28.0767	-16.4594
 567	1	2	-0.461017	1.27397	-29.1276	-15.1275
 568	1	2	-0.140506	1.8068	-28.7675	-16.3795
 569	1	4	0.148448	1.28849	-29.0496	-17.2938
 570	1	10	0.055442	4.58949	-26.836	-12.8776
 571	1	10	0.090839	3.21933	-27.3647	-11.9125
 572	1	3	-0.16304	3.89996	-27.6729	-12.7153
 573	1	10	0.039719	4.49853	-28.5154	-12.3472
 574	1	11	0.077452	3.57553	-28.6555	-18.4723
 575	1	11	0.09063	3.12207	-26.9574	-18.3017
 576	1	4	0.230266	0.331637	-29.6736	-15.0978
 577	1	1	-0.247122	16.3616	-12.1675	-30.4365
 578	1	2	0.139112	16.9232	-11.8753	-31.6788
 579	1	2	0.02746	17.5045	-10.6178	-31.9758
 580	1	3	-0.077297	17.7034	-9.58053	-30.8631
 581	1	2	-0.08585	17.8214	-10.3079	-33.3238
 582	1	2	-0.195578	17.6333	-11.2777	-34.3276
 583	1	4	0.171692	17.8611	-11.0367	-35.3642
 584	1	2	-0.199822	17.0532	-12.5214	-34.0201
 585	1	4	0.149498	16.8439	-13.2317	-34.8155
 586	1	2	0.076729	16.644	-12.8016	-32.7056
 587	1	2	-0.057821	17.7018	-6.72534	-34.06
 588	1	2	-0.076852	17.0881	-5.46733	-34.1488
 589	1	4	0.145382	16.021	-5.43778	-34.3393
 590	1	2	-0.023498	17.8586	-4.30037	-33.8955
 591	1	4	0.166076	20.9078	-5.86348	-33.3351
 592	1	2	-0.140684	19.855	-5.74943	-33.5865
 593	1	2	-0.058922	19.046	-6.87164	-33.7911
 594	1	3	-0.101954	17.2323	-2.87303	-33.7645
 595	1	2	-0.067123	19.2463	-4.47624	-33.6203
 596	1	4	0.142141	19.8636	-3.61895	-33.3711
 597	1	3	0.321219	17.8937	-1.93899	-34.8605
 598	1	3	0.382784	15.6613	-2.82442	-33.9856
 599	1	5	-0.111948	17.7895	-2.47787	-36.0961
 600	1	5	-0.11115	19.2131	-1.73327	-34.6598
 601	1	5	-0.103632	17.3368	-0.708403	-34.9247
 602	1	5	-0.110272	15.1548	-1.59781	-33.7236
 603	1	5	-0.120305	14.9744	-3.6564	-33.1708
 604	1	5	-0.123663	15.2981	-3.14212	-35.2482
 605	1	6	0.452517	19.3352	-8.32558	-33.6043
 606	1	6	0.453374	17.0804	-8.07395	-34.0354
 607	1	7	0.018948	18.1021	-8.9612	-33.7112
 608	1	8	-0.46698	20.4038	-8.811	-33.2757
 609	1	8	-0.469385	15.8842	-8.30288	-34.0897
 610	1	3	-0.126657	15.7776	-14.0381	-32.3832
 611	1	2	0.020988	18.2077	-0.871127	-30.5661
 612	1	6	0.027902	18.845	0.297205	-29.9036
 613	1	8	-0.378193	19.4058	1.21683	-30.4774
 614	1	2	0.043573	17.731	-1.70723	-29.5793
 615	1	6	0.038038	17.9745	-1.0836	-28.2552
 616	1	7	0.4913	18.6982	0.082174	-28.525
 617	1	8	-0.382817	17.5818	-1.51428	-27.1829
 618	1	2	0.0054	18.0754	-1.18206	-31.9291
 619	1	2	-0.040988	17.1677	-2.94384	-29.8902
 620	1	2	-0.085341	17.4844	-2.42403	-32.2932
 621	1	4	0.154391	18.4294	-0.462945	-32.6608