pySIMM System Object

1658 atoms
1841 bonds
3312 angles
5102 dihedrals
460 impropers

12 atom types
15 bond types
28 angle types
9 dihedral types
4 improper types

-184.603257 184.603257 xlo xhi
-184.603257 184.603257 ylo yhi
-184.603257 184.603257 zlo zhi

Masses

   1	14.01	# nh
   2	12.01	# ca
   3	12.01	# c3
   4	1.008	# ha
   5	19.0	# f
   6	12.01	# c
   7	14.01	# n
   8	16.0	# o
   9	1.008	# hn
  10	1.008	# hc
  11	1.008	# h1
  12	1.008	# h2

Pair Coeffs

   1	0.17	3.249998523775958	# nh
   2	0.086	3.3996695084235347	# ca
   3	0.1094	3.3996695084235347	# c3
   4	0.015	2.59964245953351	# ha
   5	0.061	3.1181455134911875	# f
   6	0.086	3.3996695084235347	# c
   7	0.17	3.249998523775958	# n
   8	0.21	2.959921901149463	# o
   9	0.0157	1.069078461768407	# hn
  10	0.0157	2.649532787749369	# hc
  11	0.0157	2.471353044121301	# h1
  12	0.0157	2.2931733004932333	# h2

Bond Coeffs

   1	356.9	1.3497	# c3,f
   2	403.2	1.0129	# hn,n
   3	417.9	1.3859	# ca,nh
   4	300.9	1.5375	# c3,c3
   5	384.2	1.4121	# ca,n
   6	330.6	1.0969	# c3,h1
   7	461.1	1.3984	# ca,ca
   8	326.6	1.464	# c3,nh
   9	427.6	1.3789	# c,n
  10	331.7	1.0961	# c3,h2
  11	345.9	1.4906	# c,ca
  12	345.8	1.086	# ca,ha
  13	321.0	1.5156	# c3,ca
  14	330.6	1.0969	# c3,hc
  15	637.7	1.2183	# c,o

Angle Coeffs

   1	71.11	105.87	# nh,c3,nh
   2	63.25	114.51	# c3,nh,c3
   3	74.22	123.05	# n,c,o
   4	66.62	120.02	# ca,ca,ca
   5	68.29	120.95	# ca,ca,nh
   6	49.52	110.01	# h2,c3,nh
   7	68.72	122.6	# ca,c,o
   8	49.57	109.79	# h1,c3,nh
   9	67.68	115.25	# ca,c,n
  10	66.46	111.39	# ca,c3,nh
  11	48.33	117.55	# c,n,hn
  12	64.28	120.33	# c,ca,ca
  13	39.4	107.58	# hc,c3,hc
  14	63.53	120.77	# c3,ca,ca
  15	70.89	107.36	# f,c3,f
  16	67.87	120.19	# ca,ca,n
  17	46.8	110.47	# ca,c3,hc
  18	46.99	109.56	# ca,c3,h1
  19	62.86	111.51	# c3,c3,c3
  20	66.11	109.24	# c3,c3,f
  21	63.15	112.07	# c3,c3,ca
  22	38.96	110.2	# h2,c3,h2
  23	63.82	123.71	# c,n,ca
  24	39.24	108.46	# h1,c3,h1
  25	63.56	112.24	# ca,c3,ca
  26	63.39	119.98	# c3,nh,ca
  27	63.74	127.08	# c,n,c
  28	48.18	119.88	# ca,ca,ha

Dihedral Coeffs

   1	2	2.5	2	180	2.0	1	0	# hn,n,c,o
   2	1	0.0	2	0	# X,c3,nh,X
   3	1	3.625	2	180	# X,ca,ca,X
   4	1	0.0	2	0	# X,c3,ca,X
   5	1	1.0	2	180	# X,c,ca,X
   6	1	0.15555555555555556	3	0	# X,c3,c3,X
   7	1	2.5	2	180	# X,c,n,X
   8	1	0.45	2	180	# X,ca,n,X
   9	1	1.05	2	180	# X,ca,nh,X

Improper Coeffs

   1	10.5	-1	2	# c,X,X,o
   2	1.1	-1	2	# n,X,X,hn
   3	1.1	-1	2	# ca,ca,ca,c3
   4	1.1	-1	2	# ca,X,X,ha

Atoms

   1	1	1	-0.247122	106.137	60.8636	-25.3759
   2	1	2	0.139112	104.949	60.9414	-26.1225
   3	1	2	0.02746	103.749	60.3062	-25.7141
   4	1	3	-0.077297	103.704	59.4298	-24.4588
   5	1	2	-0.08585	102.576	60.4878	-26.4847
   6	1	2	-0.195578	102.61	61.2565	-27.6614
   7	1	4	0.171692	101.707	61.39	-28.2537
   8	1	2	-0.199822	103.801	61.8717	-28.07
   9	1	4	0.149498	103.817	62.4776	-28.9722
  10	1	2	0.076729	104.964	61.7296	-27.2999
  11	1	2	-0.057821	99.4522	58.6379	-25.9047
  12	1	2	-0.076852	98.4422	57.6841	-26.0835
  13	1	4	0.145382	98.564	56.952	-26.8746
  14	1	2	-0.023498	97.2977	57.7257	-25.242
  15	1	4	0.166076	98.1805	60.4921	-23.348
  16	1	2	-0.140684	98.2497	59.7046	-24.0961
  17	1	2	-0.058922	99.3606	59.6199	-24.9406
  18	1	3	-0.101954	96.0964	56.7475	-25.4025
  19	1	2	-0.067123	97.2222	58.7535	-24.2598
  20	1	4	0.142141	96.3472	58.8239	-23.6184
  21	1	3	0.321219	94.9899	57.5522	-26.1886
  22	1	3	0.382784	96.4534	55.4368	-26.2028
  23	1	5	-0.111948	94.4341	58.5163	-25.4201
  24	1	5	-0.11115	93.9809	56.7763	-26.6442
  25	1	5	-0.103632	95.5042	58.1805	-27.2705
  26	1	5	-0.110272	97.5697	54.8462	-25.7185
  27	1	5	-0.120305	96.6509	55.6528	-27.5229
  28	1	5	-0.123663	95.47	54.5122	-26.1104
  29	1	6	0.452517	100.572	60.4774	-25.0315
  30	1	6	0.453374	100.727	58.8329	-26.6462
  31	1	7	0.018948	101.329	59.9429	-26.0666
  32	1	8	-0.46698	100.828	61.4422	-24.331
  33	1	8	-0.469385	101.138	58.1488	-27.5679
  34	1	3	-0.126657	106.243	62.4597	-27.7219
  35	1	2	0.020988	93.9356	55.6012	-22.3936
  36	1	6	0.027902	92.6039	55.2756	-21.8289
  37	1	8	-0.378193	91.5288	55.4043	-22.3915
  38	1	2	0.043573	94.8979	55.2858	-21.4566
  39	1	6	0.038038	94.2217	54.7513	-20.2448
  40	1	7	0.4913	92.8623	54.7657	-20.5574
  41	1	8	-0.382817	94.7639	54.3536	-19.2265
  42	1	2	0.0054	94.2672	56.0913	-23.6603
  43	1	2	-0.040988	96.2572	55.4379	-21.7418
  44	1	2	-0.085341	95.6362	56.2762	-23.9905
  45	1	4	0.154391	93.461	56.2905	-24.3574
  46	1	2	-0.205992	96.6151	55.9292	-23.016
  47	1	4	0.156637	97.0089	55.161	-21.0056
  48	1	4	0.178085	97.6732	56.0212	-23.2533
  49	1	10	0.05178	104.698	59.0908	-24.1458
  50	1	10	0.015669	103.108	58.5237	-24.6255
  51	1	10	0.036134	103.257	59.9764	-23.6191
  52	1	11	0.101096	106.647	61.9889	-28.6261
  53	1	1	-0.196269	107.257	62.4232	-26.6451
  54	1	11	0.131285	105.992	63.4984	-27.9661
  55	1	3	-0.292673	107.388	61.0417	-26.1412
  56	1	3	-0.034798	106.204	61.6498	-24.1218
  57	1	12	0.194395	108.272	60.9456	-25.4951
  58	1	12	0.183693	107.45	60.3207	-26.9675
  59	1	2	-0.144532	107.609	64.7566	-25.9235
  60	1	2	0.128587	107.2	63.4266	-25.6649
  61	1	2	0.222203	107.509	65.7168	-24.8992
  62	1	2	0.041795	106.687	63.0799	-24.39
  63	1	2	-0.461017	107.012	65.367	-23.6341
  64	1	2	-0.140506	106.599	64.0497	-23.3774
  65	1	4	0.148448	106.202	63.7796	-22.4011
  66	1	10	0.055442	108.799	66.0728	-27.1913
  67	1	10	0.090839	108.777	64.3934	-27.7349
  68	1	3	-0.16304	108.164	65.1826	-27.2811
  69	1	10	0.039719	107.353	65.4258	-27.9774
  70	1	11	0.077452	106.893	61.1651	-23.4194
  71	1	11	0.09063	105.217	61.6939	-23.6462
  72	1	4	0.230266	106.942	66.1262	-22.8599
  73	1	1	-0.247122	87.8822	51.6778	-17.7754
  74	1	2	0.139112	86.8145	51.8145	-18.6761
  75	1	2	0.02746	85.4864	52.0714	-18.2508
  76	1	3	-0.077297	85.1699	52.1978	-16.7579
  77	1	2	-0.08585	84.4566	52.1735	-19.2218
  78	1	2	-0.195578	84.7638	52.0259	-20.588
  79	1	4	0.171692	83.9749	52.0952	-21.335
  80	1	2	-0.199822	86.0773	51.7651	-21.0017
  81	1	4	0.149498	86.2994	51.6387	-22.0582
  82	1	2	0.076729	87.1019	51.651	-20.0523
  83	1	2	-0.057821	80.8062	52.1929	-18.7301
  84	1	2	-0.076852	79.4686	51.8037	-18.8937
  85	1	4	0.145382	79.2452	50.8476	-19.3619
  86	1	2	-0.023498	78.4362	52.7092	-18.5347
  87	1	4	0.166076	80.4362	55.3242	-17.4515
  88	1	2	-0.140684	80.1599	54.3401	-17.8255
  89	1	2	-0.058922	81.1436	53.4292	-18.2206
  90	1	3	-0.101954	76.9686	52.3795	-18.9298
  91	1	2	-0.067123	78.8088	53.9723	-17.9899
  92	1	4	0.142141	78.06	54.714	-17.7362
  93	1	3	0.321219	75.8881	53.1887	-18.1005
  94	1	3	0.382784	76.8444	52.8028	-20.4482
  95	1	5	-0.111948	76.1534	53.1879	-16.7751
  96	1	5	-0.11115	74.6547	52.6523	-18.2449
  97	1	5	-0.103632	75.7734	54.4876	-18.4579
  98	1	5	-0.110272	77.6565	52.0758	-21.2501
  99	1	5	-0.120305	77.2128	54.0882	-20.654
 100	1	5	-0.123663	75.5844	52.6797	-20.9246
 101	1	6	0.452517	82.6228	53.5813	-18.292
 102	1	6	0.453374	82.0621	51.509	-19.1414
 103	1	7	0.018948	83.0923	52.4046	-18.8659
 104	1	8	-0.46698	83.2593	54.5721	-17.9753
 105	1	8	-0.469385	82.1389	50.4161	-19.6769
 106	1	3	-0.126657	88.5287	51.3263	-20.5105
 107	1	2	0.020988	76.3236	49.0358	-17.0909
 108	1	6	0.027902	76.1207	48.3149	-15.8008
 109	1	8	-0.378193	76.3607	48.7461	-14.6851
 110	1	2	0.043573	75.8923	48.2129	-18.1098
 111	1	6	0.038038	75.4205	46.9336	-17.532
 112	1	7	0.4913	75.5443	47.0908	-16.152
 113	1	8	-0.382817	74.969	45.9853	-18.1543
 114	1	2	0.0054	76.753	50.3477	-17.346
 115	1	2	-0.040988	75.8561	48.6506	-19.432
 116	1	2	-0.085341	76.6817	50.8613	-18.6725
 117	1	4	0.154391	77.0738	50.9648	-16.5121
 118	1	2	-0.205992	76.2392	49.9784	-19.7024
 119	1	4	0.156637	75.4867	47.9938	-20.2168
 120	1	4	0.178085	76.1393	50.3022	-20.7319
 121	1	10	0.05178	85.8422	51.5862	-16.1443
 122	1	10	0.015669	84.1523	51.8667	-16.5195
 123	1	10	0.036134	85.2717	53.239	-16.4275
 124	1	11	0.101096	88.5407	50.3276	-20.9631
 125	1	1	-0.196269	89.492	51.3686	-19.386
 126	1	11	0.131285	88.8226	52.0478	-21.2832
 127	1	3	-0.292673	88.9251	50.7193	-18.1895
 128	1	3	-0.034798	88.5009	52.9142	-17.2352
 129	1	12	0.194395	89.6905	50.5995	-17.4107
 130	1	12	0.183693	88.4877	49.7431	-18.4386
 131	1	2	-0.144532	91.2323	53.0113	-19.9672
 132	1	2	0.128587	90.1569	52.5782	-19.1538
 133	1	2	0.222203	91.8354	54.2659	-19.7027
 134	1	2	0.041795	89.694	53.3794	-18.0838
 135	1	2	-0.461017	91.3815	55.0464	-18.6156
 136	1	2	-0.140506	90.3191	54.6054	-17.8097
 137	1	4	0.148448	89.9666	55.2184	-16.9825
 138	1	10	0.055442	91.5114	51.076	-20.9751
 139	1	10	0.090839	91.2872	52.4457	-22.0749
 140	1	3	-0.16304	91.7406	52.1383	-21.1234
 141	1	10	0.039719	92.8303	52.198	-21.2344
 142	1	11	0.077452	88.8428	52.7316	-16.2091
 143	1	11	0.09063	87.7572	53.7205	-17.1999
 144	1	4	0.230266	91.8496	56.0059	-18.4043
 145	1	1	-0.247122	72.2196	42.4674	-13.0004
 146	1	2	0.139112	71.4157	42.8752	-11.9294
 147	1	2	0.02746	71.1609	42.0525	-10.8032
 148	1	3	-0.077297	71.7688	40.6512	-10.7067
 149	1	2	-0.08585	70.3087	42.5357	-9.77979
 150	1	2	-0.195578	69.7312	43.8142	-9.88639
 151	1	4	0.171692	69.0772	44.1837	-9.09886
 152	1	2	-0.199822	69.9731	44.6141	-11.0115
 153	1	4	0.149498	69.5064	45.5921	-11.0942
 154	1	2	0.076729	70.8042	44.1455	-12.0386
 155	1	2	-0.057821	68.7991	40.5659	-7.0711
 156	1	2	-0.076852	67.8085	39.875	-6.35782
 157	1	4	0.145382	66.9141	39.5371	-6.87685
 158	1	2	-0.023498	67.9752	39.6627	-4.96301
 159	1	4	0.166076	71.0252	41.2706	-4.59681
 160	1	2	-0.140684	70.1408	40.8607	-5.08122
 161	1	2	-0.058922	69.9341	41.0446	-6.45079
 162	1	3	-0.101954	66.8339	38.9629	-4.16048
 163	1	2	-0.067123	69.1543	40.1733	-4.34519
 164	1	4	0.142141	69.3202	40.0707	-3.27927
 165	1	3	0.321219	67.2764	38.4688	-2.73028
 166	1	3	0.382784	65.6889	40.0391	-4.00435
 167	1	5	-0.111948	68.4143	37.7398	-2.78523
 168	1	5	-0.11115	66.3452	37.6651	-2.16711
 169	1	5	-0.103632	67.4845	39.4806	-1.85725
 170	1	5	-0.110272	65.0557	40.2705	-5.17666
 171	1	5	-0.120305	66.1792	41.2323	-3.59692
 172	1	5	-0.123663	64.7401	39.6922	-3.10549
 173	1	6	0.452517	70.7323	41.8071	-7.44885
 174	1	6	0.453374	68.8328	41.0091	-8.49236
 175	1	7	0.018948	69.9935	41.7646	-8.62364
 176	1	8	-0.46698	71.7712	42.4083	-7.23478
 177	1	8	-0.469385	67.9697	40.8098	-9.32996
 178	1	3	-0.126657	71.0179	44.9994	-13.2952
 179	1	2	0.020988	64.6997	36.1079	-5.69049
 180	1	6	0.027902	63.3705	35.5099	-5.96355
 181	1	8	-0.378193	62.2919	35.9474	-5.59788
 182	1	2	0.043573	65.662	35.3348	-6.30649
 183	1	6	0.038038	64.9904	34.2059	-7.00246
 184	1	7	0.4913	63.6296	34.4025	-6.76904
 185	1	8	-0.382817	65.5264	33.3589	-7.69839
 186	1	2	0.0054	65.0227	37.2777	-4.99593
 187	1	2	-0.040988	67.0127	35.6857	-6.24964
 188	1	2	-0.085341	66.3817	37.6877	-4.93253
 189	1	4	0.154391	64.2158	37.8356	-4.53359
 190	1	2	-0.205992	67.3624	36.8601	-5.54929
 191	1	4	0.156637	67.7625	35.069	-6.74036
 192	1	4	0.178085	68.4149	37.1293	-5.49072
 193	1	10	0.05178	71.9697	40.222	-11.696
 194	1	10	0.015669	71.0988	39.9474	-10.1984
 195	1	10	0.036134	72.7154	40.6751	-10.1535
 196	1	11	0.101096	70.0439	45.198	-13.7582
 197	1	1	-0.196269	71.9058	44.3467	-14.2905
 198	1	11	0.131285	71.4455	45.9632	-12.9917
 199	1	3	-0.292673	71.708	42.8853	-14.3206
 200	1	3	-0.034798	73.6891	42.6809	-12.8905
 201	1	12	0.194395	72.2866	42.428	-15.1353
 202	1	12	0.183693	70.6446	42.6332	-14.4314
 203	1	2	-0.144532	73.6776	45.853	-15.1018
 204	1	2	0.128587	73.2455	44.7423	-14.336
 205	1	2	0.222203	75.0683	46.109	-15.2258
 206	1	2	0.041795	74.176	43.925	-13.6559
 207	1	2	-0.461017	75.9876	45.31	-14.5081
 208	1	2	-0.140506	75.5446	44.2316	-13.7216
 209	1	4	0.148448	76.263	43.6055	-13.1961
 210	1	10	0.055442	72.5468	46.3793	-16.8923
 211	1	10	0.090839	71.6647	46.698	-15.3986
 212	1	3	-0.16304	72.6601	46.7211	-15.8557
 213	1	10	0.039719	72.9608	47.7759	-15.8772
 214	1	11	0.077452	74.2086	41.799	-13.2848
 215	1	11	0.09063	73.9719	42.7857	-11.8352
 216	1	4	0.230266	77.0547	45.5109	-14.5886
 217	1	1	-0.247122	58.5559	32.3965	-10.2003
 218	1	2	0.139112	57.671	33.427	-9.84288
 219	1	2	0.02746	56.3462	33.1656	-9.41606
 220	1	3	-0.077297	55.7796	31.7475	-9.53853
 221	1	2	-0.08585	55.5594	34.2329	-8.90946
 222	1	2	-0.195578	56.0788	35.5424	-8.90298
 223	1	4	0.171692	55.4775	36.3682	-8.52587
 224	1	2	-0.199822	57.3662	35.8046	-9.3878
 225	1	4	0.149498	57.7525	36.8205	-9.3809
 226	1	2	0.076729	58.1676	34.7519	-9.84811
 227	1	2	-0.057821	52.039	34.3297	-7.84034
 228	1	2	-0.076852	50.7294	34.8081	-7.72347
 229	1	4	0.145382	50.4345	35.6141	-8.3858
 230	1	2	-0.023498	49.8685	34.2485	-6.73746
 231	1	4	0.166076	52.1079	31.956	-5.40739
 232	1	2	-0.140684	51.7148	32.7397	-6.05208
 233	1	2	-0.058922	52.5299	33.3484	-7.00943
 234	1	3	-0.101954	48.4122	34.7602	-6.47719
 235	1	2	-0.067123	50.3827	33.1863	-5.93827
 236	1	4	0.142141	49.7467	32.7018	-5.20394
 237	1	3	0.321219	48.3694	35.2719	-4.97968
 238	1	3	0.382784	48.0058	35.9458	-7.43984
 239	1	5	-0.111948	48.2898	34.2498	-4.09864
 240	1	5	-0.11115	47.3241	36.0784	-4.69468
 241	1	5	-0.103632	49.4811	35.9757	-4.6658
 242	1	5	-0.110272	48.0618	35.568	-8.73758
 243	1	5	-0.120305	48.7966	37.0316	-7.28119
 244	1	5	-0.123663	46.7368	36.375	-7.25767
 245	1	6	0.452517	53.9715	33.1554	-7.3162
 246	1	6	0.453374	53.1362	34.7669	-8.74237
 247	1	7	0.018948	54.2543	34.0292	-8.36404
 248	1	8	-0.46698	54.7393	32.4355	-6.70001
 249	1	8	-0.469385	53.0532	35.6276	-9.60246
 250	1	3	-0.126657	59.5922	35.0359	-10.3292
 251	1	2	0.020988	45.1165	32.7575	-6.64472
 252	1	6	0.027902	43.6365	32.7902	-6.5312
 253	1	8	-0.378193	42.9735	33.665	-5.9986
 254	1	2	0.043573	45.4713	31.6692	-7.41453
 255	1	6	0.038038	44.2393	30.9387	-7.80192
 256	1	7	0.4913	43.1944	31.7134	-7.29782
 257	1	8	-0.382817	44.1756	29.9913	-8.56858
 258	1	2	0.0054	46.0509	33.7275	-6.26989
 259	1	2	-0.040988	46.7805	31.5015	-7.86931
 260	1	2	-0.085341	47.3923	33.6096	-6.72233
 261	1	4	0.154391	45.6999	34.594	-5.71891
 262	1	2	-0.205992	47.732	32.4855	-7.53
 263	1	4	0.156637	47.0296	30.6745	-8.53099
 264	1	4	0.178085	48.7266	32.3849	-7.95655
 265	1	10	0.05178	56.1909	31.2249	-10.4109
 266	1	10	0.015669	54.6908	31.747	-9.6678
 267	1	10	0.036134	56.0174	31.1483	-8.65154
 268	1	11	0.101096	59.5523	35.5074	-11.3184
 269	1	1	-0.196269	60.3816	33.7869	-10.4009
 270	1	11	0.131285	60.0637	35.7442	-9.63701
 271	1	3	-0.292673	59.6261	32.7639	-11.1491
 272	1	3	-0.034798	59.1333	31.6092	-9.0842
 273	1	12	0.194395	60.2665	31.9024	-11.3823
 274	1	12	0.183693	59.2066	33.1784	-12.0755
 275	1	2	-0.144532	62.1083	34.0336	-8.66441
 276	1	2	0.128587	60.9876	33.362	-9.21002
 277	1	2	0.222203	62.5923	33.6477	-7.39062
 278	1	2	0.041795	60.3823	32.2912	-8.50976
 279	1	2	-0.461017	61.9876	32.57	-6.70542
 280	1	2	-0.140506	60.8948	31.8889	-7.26664
 281	1	4	0.148448	60.4181	31.0748	-6.72383
 282	1	10	0.055442	63.8753	35.1305	-9.36554
 283	1	10	0.090839	62.5448	35.171	-10.4975
 284	1	3	-0.16304	62.7816	35.1845	-9.42635
 285	1	10	0.039719	62.468	36.1572	-9.02699
 286	1	11	0.077452	59.3995	30.6059	-9.43792
 287	1	11	0.09063	58.3937	31.4949	-8.28151
 288	1	4	0.230266	62.3495	32.2817	-5.72028
 289	1	1	-0.247122	37.5588	31.9556	-10.5224
 290	1	2	0.139112	37.1036	33.2796	-10.4182
 291	1	2	0.02746	35.7277	33.6175	-10.3342
 292	1	3	-0.077297	34.6728	32.5121	-10.4488
 293	1	2	-0.08585	35.3625	34.9883	-10.2173
 294	1	2	-0.195578	36.367	35.9734	-10.1427
 295	1	4	0.171692	36.0991	37.0251	-10.0564
 296	1	2	-0.199822	37.7146	35.6373	-10.2889
 297	1	4	0.149498	38.4698	36.4182	-10.3084
 298	1	2	0.076729	38.0812	34.3004	-10.4649
 299	1	2	-0.057821	32.213	36.7289	-10.9587
 300	1	2	-0.076852	31.3607	37.6344	-11.5985
 301	1	4	0.145382	31.788	38.2775	-12.3599
 302	1	2	-0.023498	29.9809	37.6313	-11.268
 303	1	4	0.166076	30.0864	35.1628	-8.82479
 304	1	2	-0.140684	30.4356	35.855	-9.58863
 305	1	2	-0.058922	31.7813	35.8811	-9.96399
 306	1	3	-0.101954	28.9219	38.4711	-12.0515
 307	1	2	-0.067123	29.5437	36.7116	-10.2685
 308	1	4	0.142141	28.4887	36.6266	-10.0293
 309	1	3	0.321219	28.1686	39.3945	-11.0075
 310	1	3	0.382784	29.5323	39.3985	-13.1785
 311	1	5	-0.111948	27.3767	38.7007	-10.1611
 312	1	5	-0.11115	27.3655	40.3223	-11.5744
 313	1	5	-0.103632	29.0481	40.0697	-10.2337
 314	1	5	-0.110272	30.2324	38.704	-14.1038
 315	1	5	-0.120305	30.3592	40.344	-12.6775
 316	1	5	-0.123663	28.576	40.0403	-13.887
 317	1	6	0.452517	32.9463	35.0745	-9.49704
 318	1	6	0.453374	33.645	36.4561	-11.2086
 319	1	7	0.018948	34.0151	35.4632	-10.3034
 320	1	8	-0.46698	32.9403	34.2695	-8.58099
 321	1	8	-0.469385	34.326	37.0011	-12.0615
 322	1	3	-0.126657	39.5408	33.9647	-10.7643
 323	1	2	0.020988	27.8675	35.3516	-14.0194
 324	1	6	0.027902	28.2837	34.1231	-14.737
 325	1	8	-0.378193	29.4325	33.7762	-14.9588
 326	1	2	0.043573	26.4928	35.4297	-14.024
 327	1	6	0.038038	25.9631	34.2327	-14.7249
 328	1	7	0.4913	27.0914	33.501	-15.1104
 329	1	8	-0.382817	24.7853	33.9719	-14.9105
 330	1	2	0.0054	28.6517	36.3263	-13.4054
 331	1	2	-0.040988	25.8272	36.5151	-13.4442
 332	1	2	-0.085341	28.022	37.4266	-12.7657
 333	1	4	0.154391	29.7322	36.2124	-13.4271
 334	1	2	-0.205992	26.6031	37.5184	-12.8208
 335	1	4	0.156637	24.7414	36.5747	-13.4775
 336	1	4	0.178085	26.0807	38.3619	-12.3791
 337	1	10	0.05178	34.4083	32.1237	-9.45744
 338	1	10	0.015669	35.0258	31.6658	-11.0506
 339	1	10	0.036134	33.7541	32.8624	-10.9324
 340	1	11	0.101096	39.7984	34.3533	-11.7568
 341	1	1	-0.196269	39.7834	32.5079	-10.729
 342	1	11	0.131285	40.1758	34.4738	-10.0287
 343	1	3	-0.292673	38.7121	31.7689	-11.4236
 344	1	3	-0.034798	37.7646	31.1953	-9.26011
 345	1	12	0.194395	38.9718	30.7059	-11.5228
 346	1	12	0.183693	38.5124	32.1983	-12.4145
 347	1	2	-0.144532	41.5067	32.1391	-9.02258
 348	1	2	0.128587	40.1847	31.9809	-9.50111
 349	1	2	0.222203	41.8524	31.5886	-7.76406
 350	1	2	0.041795	39.2043	31.319	-8.72753
 351	1	2	-0.461017	40.8703	30.9242	-6.99465
 352	1	2	-0.140506	39.553	30.7945	-7.4717
 353	1	4	0.148448	38.7996	30.2893	-6.87053
 354	1	10	0.055442	43.468	32.3026	-9.99801
 355	1	10	0.090839	42.2193	33.1747	-10.848
 356	1	3	-0.16304	42.5625	32.9006	-9.84415
 357	1	10	0.039719	42.8528	33.8305	-9.33805
 358	1	11	0.077452	37.5433	30.1356	-9.43657
 359	1	11	0.09063	37.0683	31.5551	-8.49187
 360	1	4	0.230266	41.1312	30.5147	-6.02058
 361	1	1	-0.247122	27.1989	27.4889	-17.5969
 362	1	2	0.139112	28.4351	27.2414	-18.1984
 363	1	2	0.02746	28.5387	26.56	-19.4318
 364	1	3	-0.077297	27.2774	26.0189	-20.1199
 365	1	2	-0.08585	29.8183	26.3678	-20.0088
 366	1	2	-0.195578	30.9689	26.829	-19.3414
 367	1	4	0.171692	31.9531	26.662	-19.7752
 368	1	2	-0.199822	30.8555	27.4963	-18.1086
 369	1	4	0.149498	31.748	27.8479	-17.5973
 370	1	2	0.076729	29.5908	27.7102	-17.5341
 371	1	2	-0.057821	29.8706	23.9134	-22.7122
 372	1	2	-0.076852	29.8458	22.6352	-23.2904
 373	1	4	0.145382	30.3271	21.8148	-22.7655
 374	1	2	-0.023498	29.1557	22.444	-24.5183
 375	1	4	0.166076	28.2009	25.7389	-25.0468
 376	1	2	-0.140684	28.663	24.8762	-24.5702
 377	1	2	-0.058922	29.3132	25.0054	-23.3428
 378	1	3	-0.101954	29.0746	21.0409	-25.2026
 379	1	2	-0.067123	28.5818	23.5922	-25.1412
 380	1	4	0.142141	28.07	23.512	-26.0928
 381	1	3	0.321219	27.6475	20.7764	-25.8249
 382	1	3	0.382784	30.1552	21.0587	-26.3553
 383	1	5	-0.111948	27.4599	19.4678	-26.114
 384	1	5	-0.11115	27.4152	21.4421	-26.9781
 385	1	5	-0.103632	26.6664	21.1248	-24.9623
 386	1	5	-0.110272	30.0901	22.171	-27.1216
 387	1	5	-0.120305	30.035	20.0237	-27.2181
 388	1	5	-0.123663	31.4078	21.0351	-25.8459
 389	1	6	0.452517	29.4143	26.1796	-22.4396
 390	1	6	0.453374	30.3111	24.3447	-21.3569
 391	1	7	0.018948	29.9382	25.6815	-21.2525
 392	1	8	-0.46698	28.9587	27.2904	-22.6552
 393	1	8	-0.469385	30.7249	23.6124	-20.475
 394	1	3	-0.126657	29.451	28.4392	-16.1862
 395	1	2	0.020988	28.7351	18.7711	-22.0673
 396	1	6	0.027902	28.1771	18.518	-20.7076
 397	1	8	-0.378193	27.4837	19.2875	-20.0629
 398	1	2	0.043573	29.4636	17.6616	-22.4362
 399	1	6	0.038038	29.358	16.6352	-21.3764
 400	1	7	0.4913	28.6236	17.2381	-20.3516
 401	1	8	-0.382817	29.7792	15.4913	-21.4515
 402	1	2	0.0054	28.6012	19.8734	-22.928
 403	1	2	-0.040988	30.1505	17.61	-23.6457
 404	1	2	-0.085341	29.2917	19.8753	-24.1752
 405	1	4	0.154391	27.9697	20.706	-22.6279
 406	1	2	-0.205992	30.0691	18.7238	-24.501
 407	1	4	0.156637	30.7241	16.7257	-23.9146
 408	1	4	0.178085	30.6047	18.6408	-25.4384
 409	1	10	0.05178	26.9047	26.7329	-20.8649
 410	1	10	0.015669	26.4633	25.8264	-19.4117
 411	1	10	0.036134	27.4613	25.0649	-20.6276
 412	1	11	0.101096	29.9304	27.8356	-15.4062
 413	1	1	-0.196269	28.0298	28.6795	-15.8174
 414	1	11	0.131285	29.987	29.3953	-16.242
 415	1	3	-0.292673	27.2084	27.4951	-16.1221
 416	1	3	-0.034798	26.4114	28.6201	-18.1383
 417	1	12	0.194395	26.1932	27.6068	-15.7182
 418	1	12	0.183693	27.6706	26.5804	-15.7274
 419	1	2	-0.144532	27.5927	31.0715	-15.4039
 420	1	2	0.128587	27.4557	29.902	-16.1916
 421	1	2	0.222203	27.0169	32.2874	-15.8648
 422	1	2	0.041795	26.6865	29.9209	-17.3777
 423	1	2	-0.461017	26.312	32.2983	-17.0904
 424	1	2	-0.140506	26.133	31.1236	-17.8337
 425	1	4	0.148448	25.5495	31.1384	-18.7522
 426	1	10	0.055442	27.9094	31.708	-13.3203
 427	1	10	0.090839	28.1762	29.9977	-13.5824
 428	1	3	-0.16304	28.3014	30.9849	-14.0453
 429	1	10	0.039719	29.3788	31.1623	-14.1525
 430	1	11	0.077452	25.3427	28.3855	-18.0623
 431	1	11	0.09063	26.6443	28.7722	-19.2
 432	1	4	0.230266	25.8528	33.2217	-17.4414
 433	1	1	-0.247122	28.413	13.2939	-15.2093
 434	1	2	0.139112	28.4447	12.0707	-15.8985
 435	1	2	0.02746	27.6387	10.9606	-15.5294
 436	1	3	-0.077297	26.845	11.0144	-14.2218
 437	1	2	-0.08585	27.6359	9.79938	-16.352
 438	1	2	-0.195578	28.4343	9.78168	-17.5155
 439	1	4	0.171692	28.444	8.90519	-18.1611
 440	1	2	-0.199822	29.2848	10.8478	-17.8288
 441	1	4	0.149498	29.9305	10.7891	-18.701
 442	1	2	0.076729	29.3115	11.9827	-17.0123
 443	1	2	-0.057821	25.242	7.03016	-15.7136
 444	1	2	-0.076852	24.0314	6.3397	-15.5237
 445	1	4	0.145382	23.1297	6.90849	-15.3163
 446	1	2	-0.023498	24.0079	4.91846	-15.6288
 447	1	4	0.166076	27.3826	4.44969	-16.2808
 448	1	2	-0.140684	26.45	4.96442	-16.0563
 449	1	2	-0.058922	26.4188	6.35367	-15.9399
 450	1	3	-0.101954	22.6544	4.14339	-15.4563
 451	1	2	-0.067123	25.2408	4.25935	-15.9176
 452	1	4	0.142141	25.3003	3.18671	-16.0506
 453	1	3	0.321219	21.6707	4.67443	-16.5763
 454	1	3	0.382784	22.8066	2.57772	-15.6157
 455	1	5	-0.111948	20.607	3.87403	-16.8091
 456	1	5	-0.11115	22.3041	4.80392	-17.7643
 457	1	5	-0.103632	21.1598	5.88676	-16.2683
 458	1	5	-0.110272	21.6549	1.90923	-15.3778
 459	1	5	-0.120305	23.6891	2.06674	-14.7258
 460	1	5	-0.123663	23.21	2.21956	-16.856
 461	1	6	0.452517	27.512	7.33994	-16.1051
 462	1	6	0.453374	25.5406	8.49375	-15.7891
 463	1	7	0.018948	26.9127	8.59619	-16.042
 464	1	8	-0.46698	28.6825	7.06361	-16.3113
 465	1	8	-0.469385	24.7131	9.38788	-15.7443
 466	1	3	-0.126657	30.2878	13.12	-17.3281
 467	1	2	0.020988	20.3118	4.17061	-12.3818
 468	1	6	0.027902	18.9752	3.87479	-11.8041
 469	1	8	-0.378193	17.9553	3.62963	-12.4273
 470	1	2	0.043573	21.2031	4.35635	-11.3453
 471	1	6	0.038038	20.4761	4.19544	-10.0594
 472	1	7	0.4913	19.1647	3.89246	-10.4224
 473	1	8	-0.382817	20.958	4.25632	-8.94005
 474	1	2	0.0054	20.7267	4.17286	-13.7182
 475	1	2	-0.040988	22.5627	4.56316	-11.5898
 476	1	2	-0.085341	22.105	4.35529	-14.0153
 477	1	4	0.154391	19.9894	3.96044	-14.4847
 478	1	2	-0.205992	23.0057	4.55213	-12.9297
 479	1	4	0.156637	23.2582	4.67561	-10.761
 480	1	4	0.178085	24.074	4.64389	-13.1095
 481	1	10	0.05178	27.3447	11.6384	-13.4706
 482	1	10	0.015669	26.7314	10.0235	-13.7669
 483	1	10	0.036134	25.8446	11.4328	-14.3865
 484	1	11	0.101096	31.3046	12.8059	-17.0644
 485	1	1	-0.196269	29.9389	14.3517	-16.5866
 486	1	11	0.131285	30.2669	13.3096	-18.4086
 487	1	3	-0.292673	29.69	14.0365	-15.166
 488	1	3	-0.034798	27.3085	14.2224	-15.5606
 489	1	12	0.194395	29.5975	14.9574	-14.5747
 490	1	12	0.183693	30.4943	13.4114	-14.7553
 491	1	2	-0.144532	29.354	15.9644	-18.3384
 492	1	2	0.128587	29.0003	15.1748	-17.2179
 493	1	2	0.222203	28.3299	16.5816	-19.1078
 494	1	2	0.041795	27.6599	15.0868	-16.7831
 495	1	2	-0.461017	26.9907	16.4846	-18.6593
 496	1	2	-0.140506	26.6607	15.7674	-17.4952
 497	1	4	0.148448	25.6253	15.7031	-17.1668
 498	1	10	0.055442	31.4613	16.1664	-17.778
 499	1	10	0.090839	31.2094	15.3139	-19.3043
 500	1	3	-0.16304	30.8412	16.1401	-18.6829
 501	1	10	0.039719	31.0403	17.0789	-19.2133
 502	1	11	0.077452	27.1018	14.8812	-14.7081
 503	1	11	0.09063	26.3936	13.6546	-15.7716
 504	1	4	0.230266	26.1984	16.9773	-19.222
 505	1	1	-0.247122	14.5239	1.37678	-6.697
 506	1	2	0.139112	13.6277	1.07795	-7.73878
 507	1	2	0.02746	12.2924	1.55518	-7.74375
 508	1	3	-0.077297	11.6913	2.1939	-6.48799
 509	1	2	-0.08585	11.5268	1.44186	-8.93109
 510	1	2	-0.195578	12.0477	0.748152	-10.04
 511	1	4	0.171692	11.4663	0.661357	-10.9564
 512	1	2	-0.199822	13.3387	0.211258	-10.0046
 513	1	4	0.149498	13.7413	-0.29091	-10.8802
 514	1	2	0.076729	14.1425	0.406655	-8.87523
 515	1	2	-0.057821	8.40681	2.81058	-10.2274
 516	1	2	-0.076852	7.3136	2.84694	-11.103
 517	1	4	0.145382	6.86274	1.90556	-11.3987
 518	1	2	-0.023498	6.88643	4.10023	-11.6206
 519	1	4	0.166076	9.20507	6.11345	-10.0206
 520	1	2	-0.140684	8.6557	5.2168	-10.3011
 521	1	2	-0.058922	9.07244	3.95916	-9.85759
 522	1	3	-0.101954	5.73562	4.23934	-12.6603
 523	1	2	-0.067123	7.54903	5.27594	-11.1697
 524	1	4	0.142141	7.23471	6.24943	-11.5373
 525	1	3	0.321219	5.42889	2.9018	-13.4386
 526	1	3	0.382784	4.46088	4.67219	-11.842
 527	1	5	-0.111948	4.61152	3.11639	-14.4949
 528	1	5	-0.11115	4.82657	1.9629	-12.6749
 529	1	5	-0.103632	6.5542	2.34643	-13.9438
 530	1	5	-0.110272	4.27546	3.88806	-10.7555
 531	1	5	-0.120305	3.31626	4.61023	-12.5587
 532	1	5	-0.123663	4.57621	5.93832	-11.3812
 533	1	6	0.452517	10.3034	3.57257	-9.12414
 534	1	6	0.453374	9.17326	1.64404	-9.7118
 535	1	7	0.018948	10.3223	2.17994	-9.13554
 536	1	8	-0.46698	11.1982	4.33646	-8.80204
 537	1	8	-0.469385	8.92346	0.472256	-9.93847
 538	1	3	-0.126657	15.6069	-0.0331267	-8.91287
 539	1	2	0.020988	5.69567	7.0392	-15.3538
 540	1	6	0.027902	4.93213	8.01842	-16.1687
 541	1	8	-0.378193	3.76158	8.327	-16.0187
 542	1	2	0.043573	6.97468	6.95173	-15.8642
 543	1	6	0.038038	7.08458	7.8667	-17.03
 544	1	7	0.4913	5.82067	8.4428	-17.1555
 545	1	8	-0.382817	8.05678	8.00434	-17.7547
 546	1	2	0.0054	5.25996	6.21844	-14.307
 547	1	2	-0.040988	7.89831	6.04217	-15.3446
 548	1	2	-0.085341	6.16312	5.27279	-13.7492
 549	1	4	0.154391	4.22787	6.30655	-13.9867
 550	1	2	-0.205992	7.48002	5.20569	-14.2881
 551	1	4	0.156637	8.89453	5.96264	-15.775
 552	1	4	0.178085	8.18538	4.46943	-13.9072
 553	1	10	0.05178	10.6083	2.02986	-6.43191
 554	1	10	0.015669	11.8701	3.27469	-6.4569
 555	1	10	0.036134	12.1173	1.75972	-5.57477
 556	1	11	0.101096	15.6651	-1.11484	-8.74252
 557	1	1	-0.196269	16.3838	0.685316	-7.88132
 558	1	11	0.131285	16.0149	0.175915	-9.90922
 559	1	3	-0.292673	15.7118	0.504069	-6.57746
 560	1	3	-0.034798	14.9645	2.78698	-6.60753
 561	1	12	0.194395	16.3654	0.828648	-5.75634
 562	1	12	0.183693	15.4156	-0.542024	-6.423
 563	1	2	-0.144532	17.8358	2.25269	-9.13383
 564	1	2	0.128587	16.7999	1.99109	-8.19906
 565	1	2	0.222203	18.1367	3.59518	-9.47841
 566	1	2	0.041795	16.0943	3.06608	-7.60404
 567	1	2	-0.461017	17.4131	4.65233	-8.88507
 568	1	2	-0.140506	16.4012	4.38977	-7.9502
 569	1	4	0.148448	15.8409	5.20863	-7.50275
 570	1	10	0.055442	19.7256	1.26987	-9.61413
 571	1	10	0.090839	18.4201	0.1319	-9.3389
 572	1	3	-0.16304	18.6498	1.11517	-9.76574
 573	1	10	0.039719	18.4667	1.05361	-10.8462
 574	1	11	0.077452	15.3191	3.00126	-5.59194
 575	1	11	0.09063	14.1306	3.46639	-6.82008
 576	1	4	0.230266	17.64	5.68267	-9.15261
 577	1	1	-0.247122	4.25296	13.0536	-21.4676
 578	1	2	0.139112	3.10304	13.6975	-20.9864
 579	1	2	0.02746	2.00064	14.0305	-21.8192
 580	1	3	-0.077297	2.02334	13.6871	-23.3141
 581	1	2	-0.08585	0.88487	14.7034	-21.2511
 582	1	2	-0.195578	0.881658	15.0101	-19.876
 583	1	4	0.171692	0.0198195	15.5032	-19.4293
 584	1	2	-0.199822	1.96313	14.6601	-19.0575
 585	1	4	0.149498	1.93566	14.8875	-17.995
 586	1	2	0.076729	3.07309	14.004	-19.6044
 587	1	2	-0.057821	-1.74745	15.962	-23.5315
 588	1	2	-0.076852	-2.35638	16.6401	-24.5996
 589	1	4	0.145382	-1.72999	17.206	-25.2816
 590	1	2	-0.023498	-3.76948	16.5701	-24.7459
 591	1	4	0.166076	-4.4511	14.6072	-21.9699
 592	1	2	-0.140684	-3.87846	15.167	-22.707
 593	1	2	-0.058922	-2.48566	15.2235	-22.6322
 594	1	3	-0.101954	-4.52849	17.2723	-25.9151
 595	1	2	-0.067123	-4.51022	15.8659	-23.7526
 596	1	4	0.142141	-5.59583	15.8399	-23.7944
 597	1	3	0.321219	-4.86573	18.7253	-25.4127
 598	1	3	0.382784	-3.67784	17.356	-27.242
 599	1	5	-0.111948	-3.77151	19.3661	-24.9432
 600	1	5	-0.11115	-5.7493	18.6988	-24.3891
 601	1	5	-0.103632	-5.38619	19.5097	-26.3834
 602	1	5	-0.110272	-4.45265	17.6684	-28.3062
 603	1	5	-0.120305	-3.08595	16.1752	-27.5323
 604	1	5	-0.123663	-2.69595	18.2837	-27.2031
 605	1	6	0.452517	-1.55804	14.6114	-21.6485
 606	1	6	0.453374	-0.315639	15.8774	-23.1239
 607	1	7	0.018948	-0.284489	15.043	-22.0056
 608	1	8	-0.46698	-1.88149	13.8932	-20.7175
 609	1	8	-0.469385	0.612436	16.4612	-23.6565
 610	1	3	-0.126657	4.24432	13.6092	-18.6931
 611	1	2	0.020988	-8.18335	16.1145	-26.6085
 612	1	6	0.027902	-9.6349	16.4061	-26.7719
 613	1	8	-0.378193	-10.1426	17.5143	-26.8188
 614	1	2	0.043573	-8.00591	14.7503	-26.6959
 615	1	6	0.038038	-9.32386	14.1071	-26.877
 616	1	7	0.4913	-10.2455	15.1549	-26.9131
 617	1	8	-0.382817	-9.52235	12.9081	-26.989
 618	1	2	0.0054	-7.10158	16.9789	-26.3928
 619	1	2	-0.040988	-6.74076	14.1696	-26.6293
 620	1	2	-0.085341	-5.79572	16.426	-26.2565
 621	1	4	0.154391	-7.30501	18.0414	-26.3148
 622	1	2	-0.205992	-5.63988	15.0204	-26.4208
 623	1	4	0.156637	-6.62266	13.0923	-26.7249
 624	1	4	0.178085	-4.65267	14.5693	-26.3459
 625	1	10	0.05178	1.02241	13.4621	-23.6993
 626	1	10	0.015669	2.63595	12.8108	-23.545
 627	1	10	0.036134	2.43052	14.523	-23.8957
 628	1	11	0.101096	4.7025	14.5174	-18.2838
 629	1	1	-0.196269	5.27015	12.8192	-19.4142
 630	1	11	0.131285	3.85032	13.0251	-17.8517
 631	1	3	-0.292673	5.50408	13.3875	-20.7562
 632	1	3	-0.034798	4.17385	11.5931	-21.7126
 633	1	12	0.194395	6.37305	12.9163	-21.2354
 634	1	12	0.183693	5.6511	14.475	-20.7061
 635	1	2	-0.144532	5.57876	10.6661	-18.2354
 636	1	2	0.128587	5.17021	11.4217	-19.3646