pySIMM System Object

2522 atoms
2801 bonds
5040 angles
7766 dihedrals
700 impropers

12 atom types
15 bond types
28 angle types
9 dihedral types
4 improper types

-213.431298 213.431298 xlo xhi
-213.431298 213.431298 ylo yhi
-213.431298 213.431298 zlo zhi

Masses

   1	14.01	# nh
   2	12.01	# ca
   3	12.01	# c3
   4	1.008	# ha
   5	19.0	# f
   6	12.01	# c
   7	14.01	# n
   8	16.0	# o
   9	1.008	# hn
  10	1.008	# hc
  11	1.008	# h1
  12	1.008	# h2

Pair Coeffs

   1	0.17	3.249998523775958	# nh
   2	0.086	3.3996695084235347	# ca
   3	0.1094	3.3996695084235347	# c3
   4	0.015	2.59964245953351	# ha
   5	0.061	3.1181455134911875	# f
   6	0.086	3.3996695084235347	# c
   7	0.17	3.249998523775958	# n
   8	0.21	2.959921901149463	# o
   9	0.0157	1.069078461768407	# hn
  10	0.0157	2.649532787749369	# hc
  11	0.0157	2.471353044121301	# h1
  12	0.0157	2.2931733004932333	# h2

Bond Coeffs

   1	356.9	1.3497	# c3,f
   2	403.2	1.0129	# hn,n
   3	417.9	1.3859	# ca,nh
   4	300.9	1.5375	# c3,c3
   5	384.2	1.4121	# ca,n
   6	330.6	1.0969	# c3,h1
   7	461.1	1.3984	# ca,ca
   8	326.6	1.464	# c3,nh
   9	427.6	1.3789	# c,n
  10	331.7	1.0961	# c3,h2
  11	345.9	1.4906	# c,ca
  12	345.8	1.086	# ca,ha
  13	321.0	1.5156	# c3,ca
  14	330.6	1.0969	# c3,hc
  15	637.7	1.2183	# c,o

Angle Coeffs

   1	71.11	105.87	# nh,c3,nh
   2	63.25	114.51	# c3,nh,c3
   3	74.22	123.05	# n,c,o
   4	66.62	120.02	# ca,ca,ca
   5	68.29	120.95	# ca,ca,nh
   6	49.52	110.01	# h2,c3,nh
   7	68.72	122.6	# ca,c,o
   8	49.57	109.79	# h1,c3,nh
   9	67.68	115.25	# ca,c,n
  10	66.46	111.39	# ca,c3,nh
  11	48.33	117.55	# c,n,hn
  12	64.28	120.33	# c,ca,ca
  13	39.4	107.58	# hc,c3,hc
  14	63.53	120.77	# c3,ca,ca
  15	70.89	107.36	# f,c3,f
  16	67.87	120.19	# ca,ca,n
  17	46.8	110.47	# ca,c3,hc
  18	46.99	109.56	# ca,c3,h1
  19	62.86	111.51	# c3,c3,c3
  20	66.11	109.24	# c3,c3,f
  21	63.15	112.07	# c3,c3,ca
  22	38.96	110.2	# h2,c3,h2
  23	63.82	123.71	# c,n,ca
  24	39.24	108.46	# h1,c3,h1
  25	63.56	112.24	# ca,c3,ca
  26	63.39	119.98	# c3,nh,ca
  27	63.74	127.08	# c,n,c
  28	48.18	119.88	# ca,ca,ha

Dihedral Coeffs

   1	2	2.5	2	180	2.0	1	0	# hn,n,c,o
   2	1	0.0	2	0	# X,c3,nh,X
   3	1	3.625	2	180	# X,ca,ca,X
   4	1	0.0	2	0	# X,c3,ca,X
   5	1	1.0	2	180	# X,c,ca,X
   6	1	0.15555555555555556	3	0	# X,c3,c3,X
   7	1	2.5	2	180	# X,c,n,X
   8	1	0.45	2	180	# X,ca,n,X
   9	1	1.05	2	180	# X,ca,nh,X

Improper Coeffs

   1	10.5	-1	2	# c,X,X,o
   2	1.1	-1	2	# n,X,X,hn
   3	1.1	-1	2	# ca,ca,ca,c3
   4	1.1	-1	2	# ca,X,X,ha

Atoms

   1	1	1	-0.247122	82.6411	42.856	-59.861
   2	1	2	0.139112	82.5804	41.707	-59.0593
   3	1	2	0.02746	81.3941	40.9469	-58.9174
   4	1	3	-0.077297	80.0965	41.4005	-59.5946
   5	1	2	-0.08585	81.4197	39.7711	-58.1278
   6	1	2	-0.195578	82.6024	39.3853	-57.4711
   7	1	4	0.171692	82.6164	38.4887	-56.8541
   8	1	2	-0.199822	83.7708	40.149	-57.6048
   9	1	4	0.149498	84.6814	39.8408	-57.0979
  10	1	2	0.076729	83.7671	41.3038	-58.4014
  11	1	2	-0.057821	78.4386	37.8737	-57.1091
  12	1	2	-0.076852	77.4139	37.3853	-56.2867
  13	1	4	0.145382	77.3882	37.7047	-55.2499
  14	1	2	-0.023498	76.4573	36.4911	-56.8387
  15	1	4	0.166076	77.7435	36.3118	-60.0537
  16	1	2	-0.140684	77.6414	36.6093	-59.0116
  17	1	2	-0.058922	78.5484	37.5002	-58.4325
  18	1	3	-0.101954	75.2925	35.8763	-56.0081
  19	1	2	-0.067123	76.6027	36.108	-58.2024
  20	1	4	0.142141	75.8994	35.4075	-58.6454
  21	1	3	0.321219	75.7593	34.4219	-55.6156
  22	1	3	0.382784	74.9538	36.6822	-54.6946
  23	1	5	-0.111948	75.8375	33.6114	-56.6954
  24	1	5	-0.11115	74.9391	33.8211	-54.7244
  25	1	5	-0.103632	76.9935	34.4256	-55.0623
  26	1	5	-0.110272	74.8055	38.004	-54.9392
  27	1	5	-0.120305	75.8948	36.5608	-53.7314
  28	1	5	-0.123663	73.7885	36.2681	-54.1464
  29	1	6	0.452517	79.7316	38.1846	-59.0172
  30	1	6	0.453374	79.5522	38.8115	-56.8012
  31	1	7	0.018948	80.2666	38.9473	-57.9858
  32	1	8	-0.46698	80.1249	38.0874	-60.1675
  33	1	8	-0.469385	79.771	39.3413	-55.7252
  34	1	3	-0.126657	85.0544	42.1206	-58.5668
  35	1	2	0.020988	71.9916	34.9209	-57.8225
  36	1	6	0.027902	70.9461	33.9193	-58.1501
  37	1	8	-0.378193	70.8956	32.7697	-57.7437
  38	1	2	0.043573	71.7075	36.0852	-58.5059
  39	1	6	0.038038	70.4686	35.8822	-59.2989
  40	1	7	0.4913	70.0807	34.5699	-59.0311
  41	1	8	-0.382817	69.9434	36.6944	-60.043
  42	1	2	0.0054	73.1198	34.8007	-57.0031
  43	1	2	-0.040988	72.5363	37.2039	-58.4037
  44	1	2	-0.085341	74.0047	35.907	-56.886
  45	1	4	0.154391	73.2822	33.8578	-56.4921
  46	1	2	-0.205992	73.682	37.1034	-57.5876
  47	1	4	0.156637	72.2992	38.1172	-58.9453
  48	1	4	0.178085	74.3318	37.9724	-57.5058
  49	1	10	0.05178	80.0674	42.4866	-59.7443
  50	1	10	0.015669	79.2124	41.1516	-58.9951
  51	1	10	0.036134	79.9829	40.9251	-60.5768
  52	1	11	0.101096	85.3133	42.5849	-57.6076
  53	1	1	-0.196269	84.9053	43.1691	-59.6024
  54	1	11	0.131285	85.8693	41.4393	-58.8399
  55	1	3	-0.292673	83.6212	43.8746	-59.4338
  56	1	3	-0.034798	82.7103	42.654	-61.3281
  57	1	12	0.194395	83.5793	44.7641	-60.0772
  58	1	12	0.183693	83.4613	44.1635	-58.3859
  59	1	2	-0.144532	86.5667	42.7283	-61.3636
  60	1	2	0.128587	85.2271	42.8233	-60.9215
  61	1	2	0.222203	86.8214	42.3605	-62.6979
  62	1	2	0.041795	84.1612	42.5546	-61.8145
  63	1	2	-0.461017	85.7644	42.0935	-63.5816
  64	1	2	-0.140506	84.4332	42.1901	-63.1435
  65	1	4	0.148448	83.6135	41.9805	-63.827
  66	1	10	0.055442	88.656	43.246	-61.0028
  67	1	10	0.090839	87.5368	43.9199	-59.8141
  68	1	3	-0.16304	87.7397	43.038	-60.436
  69	1	10	0.039719	87.9481	42.1935	-59.7677
  70	1	11	0.077452	82.2175	43.4913	-61.8375
  71	1	11	0.09063	82.1805	41.7341	-61.608
  72	1	4	0.230266	85.9857	41.8109	-64.6072
  73	1	1	-0.247122	64.8008	31.1841	-60.6235
  74	1	2	0.139112	65.1484	29.9136	-60.1375
  75	1	2	0.02746	64.9843	28.7365	-60.9093
  76	1	3	-0.077297	64.3294	28.7975	-62.2927
  77	1	2	-0.08585	65.4193	27.4974	-60.3776
  78	1	2	-0.195578	65.976	27.4378	-59.087
  79	1	4	0.171692	66.3006	26.4836	-58.6759
  80	1	2	-0.199822	66.1191	28.602	-58.3203
  81	1	4	0.149498	66.5555	28.5478	-57.3263
  82	1	2	0.076729	65.7153	29.8391	-58.842
  83	1	2	-0.057821	64.7844	24.1557	-61.7732
  84	1	2	-0.076852	64.2796	22.8527	-61.869
  85	1	4	0.145382	63.5563	22.5053	-61.1345
  86	1	2	-0.023498	64.7406	22.0044	-62.9095
  87	1	4	0.166076	66.9609	24.2202	-64.3874
  88	1	2	-0.140684	66.2068	23.8369	-63.7023
  89	1	2	-0.058922	65.7229	24.6351	-62.6622
  90	1	3	-0.101954	64.2282	20.5331	-62.9604
  91	1	2	-0.067123	65.7123	22.5211	-63.816
  92	1	4	0.142141	66.118	21.9099	-64.6136
  93	1	3	0.321219	64.4882	19.8191	-64.3415
  94	1	3	0.382784	65.0103	19.7666	-61.8239
  95	1	5	-0.111948	64.0551	20.5698	-65.3798
  96	1	5	-0.11115	63.8269	18.6421	-64.4285
  97	1	5	-0.103632	65.7929	19.5396	-64.5615
  98	1	5	-0.110272	64.5951	20.1408	-60.5925
  99	1	5	-0.120305	66.3375	20.0247	-61.8714
 100	1	5	-0.123663	64.8823	18.4225	-61.8931
 101	1	6	0.452517	66.0869	26.02	-62.2588
 102	1	6	0.453374	64.5124	25.2193	-60.7701
 103	1	7	0.018948	65.3275	26.288	-61.1255
 104	1	8	-0.46698	66.9065	26.7385	-62.8061
 105	1	8	-0.469385	63.7521	25.1355	-59.8209
 106	1	3	-0.126657	65.9073	31.1122	-58.0112
 107	1	2	0.020988	60.6159	19.5605	-61.9288
 108	1	6	0.027902	59.685	18.6348	-61.2363
 109	1	8	-0.378193	59.9959	17.6462	-60.5921
 110	1	2	0.043573	59.8725	20.5355	-62.5611
 111	1	6	0.038038	58.4328	20.2802	-62.2972
 112	1	7	0.4913	58.4098	19.1378	-61.4976
 113	1	8	-0.382817	57.4917	20.9386	-62.7093
 114	1	2	0.0054	62.0119	19.5262	-62.0108
 115	1	2	-0.040988	60.4873	21.5328	-63.3212
 116	1	2	-0.085341	62.6828	20.5295	-62.7613
 117	1	4	0.154391	62.5324	18.7182	-61.5087
 118	1	2	-0.205992	61.8947	21.5151	-63.4208
 119	1	4	0.156637	59.8887	22.2863	-63.8285
 120	1	4	0.178085	62.3758	22.2746	-64.0337
 121	1	10	0.05178	63.6515	29.6539	-62.3908
 122	1	10	0.015669	63.7265	27.9046	-62.4981
 123	1	10	0.036134	65.0882	28.881	-63.0804
 124	1	11	0.101096	65.2064	31.1011	-57.168
 125	1	1	-0.196269	65.6832	32.3247	-58.8298
 126	1	11	0.131285	66.9254	31.1162	-57.6029
 127	1	3	-0.292673	64.4324	32.1826	-59.5999
 128	1	3	-0.034798	65.7125	31.798	-61.616
 129	1	12	0.194395	64.1466	33.1394	-60.0578
 130	1	12	0.183693	63.6152	31.813	-58.9661
 131	1	2	-0.144532	67.8375	33.5242	-58.8904
 132	1	2	0.128587	66.7845	32.8295	-59.5367
 133	1	2	0.222203	68.9624	33.9344	-59.6499
 134	1	2	0.041795	66.8407	32.5761	-60.9284
 135	1	2	-0.461017	68.9948	33.6876	-61.0409
 136	1	2	-0.140506	67.9397	33.0178	-61.6776
 137	1	4	0.148448	67.9786	32.8238	-62.7478
 138	1	10	0.055442	66.721	33.9008	-57.0363
 139	1	10	0.090839	68.2627	33.0618	-56.7988
 140	1	3	-0.16304	67.7576	33.837	-57.3898
 141	1	10	0.039719	68.2202	34.8011	-57.1454
 142	1	11	0.077452	65.1473	32.4805	-62.2624
 143	1	11	0.09063	66.155	31.0226	-62.254
 144	1	4	0.230266	69.8478	34.0197	-61.6305
 145	1	1	-0.247122	53.5729	16.4244	-58.1416
 146	1	2	0.139112	54.1914	15.2984	-57.5776
 147	1	2	0.02746	53.5846	14.0183	-57.5897
 148	1	3	-0.077297	52.1611	13.8513	-58.1309
 149	1	2	-0.08585	54.3041	12.908	-57.0785
 150	1	2	-0.195578	55.5859	13.0956	-56.5272
 151	1	4	0.171692	56.1368	12.2465	-56.1261
 152	1	2	-0.199822	56.1678	14.3701	-56.4891
 153	1	4	0.149498	57.1596	14.5022	-56.0645
 154	1	2	0.076729	55.4808	15.4704	-57.02
 155	1	2	-0.057821	53.1957	9.4326	-56.5711
 156	1	2	-0.076852	52.981	8.21227	-55.9147
 157	1	4	0.145382	53.0981	8.15855	-54.8345
 158	1	2	-0.023498	52.6735	7.05822	-56.6823
 159	1	4	0.166076	52.7841	8.52068	-59.8235
 160	1	2	-0.140684	52.8123	8.43087	-58.739
 161	1	2	-0.058922	53.126	9.53581	-57.9443
 162	1	3	-0.101954	52.5899	5.67375	-55.9734
 163	1	2	-0.067123	52.5872	7.19614	-58.0986
 164	1	4	0.142141	52.3867	6.3423	-58.7347
 165	1	3	0.321219	51.7987	4.58908	-56.8031
 166	1	3	0.382784	54.0845	5.20125	-55.7949
 167	1	5	-0.111948	50.6177	5.07022	-57.2539
 168	1	5	-0.11115	51.5037	3.50345	-56.0515
 169	1	5	-0.103632	52.4777	4.12794	-57.8778
 170	1	5	-0.110272	54.7344	5.94943	-54.8745
 171	1	5	-0.120305	54.7905	5.32042	-56.9428
 172	1	5	-0.123663	54.1957	3.90838	-55.4149
 173	1	6	0.452517	53.5107	10.9176	-58.3341
 174	1	6	0.453374	53.6128	10.7558	-56.0324
 175	1	7	0.018948	53.79	11.5779	-57.1421
 176	1	8	-0.46698	53.6234	11.3352	-59.4747
 177	1	8	-0.469385	53.8111	11.0216	-54.8591
 178	1	3	-0.126657	56.1375	16.8554	-57.0097
 179	1	2	0.020988	51.4169	5.22239	-52.3032
 180	1	6	0.027902	51.5685	4.54206	-50.9936
 181	1	8	-0.378193	52.4929	3.82064	-50.6569
 182	1	2	0.043573	50.2273	5.92021	-52.3006
 183	1	6	0.038038	49.56	5.71035	-50.9881
 184	1	7	0.4913	50.4177	4.86801	-50.2784
 185	1	8	-0.382817	48.4616	6.12829	-50.6588
 186	1	2	0.0054	52.2281	5.14862	-53.4392
 187	1	2	-0.040988	49.7921	6.60513	-53.4386
 188	1	2	-0.085341	51.8216	5.81976	-54.6245
 189	1	4	0.154391	53.1225	4.53908	-53.3813
 190	1	2	-0.205992	50.5992	6.54862	-54.5961
 191	1	4	0.156637	48.8404	7.13223	-53.4325
 192	1	4	0.178085	50.2462	7.04768	-55.4963
 193	1	10	0.05178	51.5522	14.7459	-57.9517
 194	1	10	0.015669	51.6311	13.0197	-57.6514
 195	1	10	0.036134	52.1716	13.6668	-59.212
 196	1	11	0.101096	56.1988	17.2185	-55.9769
 197	1	1	-0.196269	55.3752	17.8217	-57.8331
 198	1	11	0.131285	57.1613	16.7619	-57.3936
 199	1	3	-0.292673	53.9343	17.7196	-57.5328
 200	1	3	-0.034798	53.5948	16.5329	-59.62
 201	1	12	0.194395	53.3794	18.547	-57.9954
 202	1	12	0.183693	53.7548	17.7086	-56.4493
 203	1	2	-0.144532	56.8839	18.5591	-59.6363
 204	1	2	0.128587	55.7112	17.9004	-59.1915
 205	1	2	0.222203	57.2093	18.5337	-61.016
 206	1	2	0.041795	54.8555	17.254	-60.1145
 207	1	2	-0.461017	56.3408	17.8913	-61.9272
 208	1	2	-0.140506	55.1691	17.2601	-61.4814
 209	1	4	0.148448	54.5094	16.7632	-62.1901
 210	1	10	0.055442	58.2089	20.2173	-59.0715
 211	1	10	0.090839	57.2373	19.6177	-57.7428
 212	1	3	-0.16304	57.7845	19.3024	-58.64
 213	1	10	0.039719	58.6166	18.6658	-58.3137
 214	1	11	0.077452	52.7097	17.0838	-59.9609
 215	1	11	0.09063	53.5606	15.5336	-60.0721
 216	1	4	0.230266	56.5794	17.8867	-62.9896
 217	1	1	-0.247122	49.3141	3.32417	-44.0507
 218	1	2	0.139112	50.5357	3.18758	-43.3794
 219	1	2	0.02746	50.7753	2.16621	-42.4254
 220	1	3	-0.077297	49.6968	1.13755	-42.0717
 221	1	2	-0.08585	52.0371	2.10369	-41.7862
 222	1	2	-0.195578	53.0412	3.03403	-42.1109
 223	1	4	0.171692	54.0147	2.9767	-41.6275
 224	1	2	-0.199822	52.7983	4.0409	-43.0568
 225	1	4	0.149498	53.5788	4.75713	-43.3
 226	1	2	0.076729	51.5485	4.12586	-43.6884
 227	1	2	-0.057821	52.4957	-0.0516809	-38.8346
 228	1	2	-0.076852	52.4456	-0.482719	-37.5003
 229	1	4	0.145382	51.9577	0.141836	-36.7552
 230	1	2	-0.023498	53.0336	-1.72737	-37.1471
 231	1	4	0.166076	54.1996	-2.60947	-40.2939
 232	1	2	-0.140684	53.7078	-2.02962	-39.5147
 233	1	2	-0.058922	53.1082	-0.804429	-39.8142
 234	1	3	-0.101954	53.0143	-2.18145	-35.6504
 235	1	2	-0.067123	53.6692	-2.48003	-38.1797
 236	1	4	0.142141	54.1551	-3.42587	-37.973
 237	1	3	0.321219	53.4305	-3.68929	-35.4509
 238	1	3	0.382784	54.0487	-1.25109	-34.9041
 239	1	5	-0.111948	52.6958	-4.51072	-36.2353
 240	1	5	-0.11115	53.2284	-4.11403	-34.1827
 241	1	5	-0.103632	54.7359	-3.91828	-35.7202
 242	1	5	-0.110272	53.5587	-0.00290631	-34.7321
 243	1	5	-0.120305	55.1976	-1.122	-35.6068
 244	1	5	-0.123663	54.4067	-1.70035	-33.6807
 245	1	6	0.452517	53.0074	-0.0732079	-41.1057
 246	1	6	0.453374	51.9809	1.19313	-39.4698
 247	1	7	0.018948	52.3272	1.10161	-40.8147
 248	1	8	-0.46698	53.439	-0.447021	-42.1828
 249	1	8	-0.469385	51.3774	2.09155	-38.9089
 250	1	3	-0.126657	51.2831	5.23845	-44.7126
 251	1	2	0.020988	50.013	-1.86806	-33.2115
 252	1	6	0.027902	49.4989	-1.78562	-31.8183
 253	1	8	-0.378193	50.1763	-1.70638	-30.8064
 254	1	2	0.043573	48.9397	-2.02802	-34.0616
 255	1	6	0.038038	47.6923	-2.02692	-33.2579
 256	1	7	0.4913	48.1091	-1.88391	-31.9328
 257	1	8	-0.382817	46.5595	-2.17202	-33.6887
 258	1	2	0.0054	51.3308	-1.87149	-33.6846
 259	1	2	-0.040988	49.124	-2.23124	-35.4307
 260	1	2	-0.085341	51.5695	-2.05924	-35.0748
 261	1	4	0.154391	52.1338	-1.77557	-32.9623
 262	1	2	-0.205992	50.4449	-2.26329	-35.9244
 263	1	4	0.156637	48.2679	-2.39466	-36.0817
 264	1	4	0.178085	50.5865	-2.47515	-36.9815
 265	1	10	0.05178	48.7138	1.3878	-42.4861
 266	1	10	0.015669	49.563	1.05844	-40.9862
 267	1	10	0.036134	49.9707	0.14488	-42.4499
 268	1	11	0.101096	51.3495	6.20955	-44.2078
 269	1	1	-0.196269	49.9518	5.10908	-45.3562
 270	1	11	0.131285	52.0695	5.20526	-45.4775
 271	1	3	-0.292673	48.9302	4.71399	-44.3687
 272	1	3	-0.034798	49.0663	2.42908	-45.2072
 273	1	12	0.194395	47.9241	4.75898	-44.8079
 274	1	12	0.183693	48.976	5.35085	-43.4749
 275	1	2	-0.144532	50.2153	5.04678	-47.8125
 276	1	2	0.128587	49.8836	4.42986	-46.5788
 277	1	2	0.222203	50.1065	4.29445	-49.0086
 278	1	2	0.041795	49.4502	3.08299	-46.5417
 279	1	2	-0.461017	49.6907	2.94521	-48.9525
 280	1	2	-0.140506	49.3621	2.34337	-47.7291
 281	1	4	0.148448	49.0372	1.30525	-47.6983
 282	1	10	0.055442	49.841	7.13434	-48.3081
 283	1	10	0.090839	50.8807	6.94537	-46.8999
 284	1	3	-0.16304	50.6431	6.51859	-47.8807
 285	1	10	0.039719	51.5361	6.64821	-48.5049
 286	1	11	0.077452	48.0035	2.15953	-45.236
 287	1	11	0.09063	49.6415	1.50138	-45.093
 288	1	4	0.230266	49.626	2.36138	-49.8692
 289	1	1	-0.247122	44.4068	-1.09669	-26.6378
 290	1	2	0.139112	45.2507	-1.3312	-25.545
 291	1	2	0.02746	44.8599	-2.14602	-24.4552
 292	1	3	-0.077297	43.4417	-2.72279	-24.384
 293	1	2	-0.08585	45.7968	-2.4212	-23.4301
 294	1	2	-0.195578	47.0815	-1.84974	-23.4755
 295	1	4	0.171692	47.7982	-2.0569	-22.683
 296	1	2	-0.199822	47.4541	-1.02251	-24.5464
 297	1	4	0.149498	48.4526	-0.594829	-24.5799
 298	1	2	0.076729	46.5494	-0.771591	-25.5897
 299	1	2	-0.057821	44.8724	-4.17396	-20.3292
 300	1	2	-0.076852	44.481	-4.36408	-18.9964
 301	1	4	0.145382	44.4278	-3.4962	-18.3471
 302	1	2	-0.023498	44.1532	-5.67561	-18.5568
 303	1	4	0.166076	44.7437	-7.35722	-21.5312
 304	1	2	-0.140684	44.6708	-6.53465	-20.8222
 305	1	2	-0.058922	44.9552	-5.22573	-21.2181
 306	1	3	-0.101954	43.6625	-5.99648	-17.1124
 307	1	2	-0.067123	44.2785	-6.74731	-19.4866
 308	1	4	0.142141	44.0484	-7.76339	-19.1755
 309	1	3	0.321219	44.8866	-6.65511	-16.3669
 310	1	3	0.382784	43.1847	-4.72859	-16.3068
 311	1	5	-0.111948	45.1706	-7.88518	-16.852
 312	1	5	-0.11115	44.6965	-6.79064	-15.0352
 313	1	5	-0.103632	46.0123	-5.92145	-16.5202
 314	1	5	-0.110272	42.2886	-3.99878	-17.0091
 315	1	5	-0.120305	44.1984	-3.90118	-15.9659
 316	1	5	-0.123663	42.5632	-5.07347	-15.1561
 317	1	6	0.452517	45.3522	-4.6893	-22.5457
 318	1	6	0.453374	45.2241	-2.92503	-21.0599
 319	1	7	0.018948	45.4798	-3.31706	-22.369
 320	1	8	-0.46698	45.4889	-5.33337	-23.5723
 321	1	8	-0.469385	45.2458	-1.79886	-20.5943
 322	1	3	-0.126657	46.9742	0.0879552	-26.7892
 323	1	2	0.020988	40.3629	-7.50932	-18.3861
 324	1	6	0.027902	39.2644	-7.472	-19.38
 325	1	8	-0.378193	39.1071	-6.62981	-20.249
 326	1	2	0.043573	40.19	-8.61419	-17.5796
 327	1	6	0.038038	38.9695	-9.33644	-18.023
 328	1	7	0.4913	38.4905	-8.60043	-19.1067
 329	1	8	-0.382817	38.5203	-10.3649	-17.544
 330	1	2	0.0054	41.4509	-6.64762	-18.2308
 331	1	2	-0.040988	41.0947	-8.90838	-16.5566
 332	1	2	-0.085341	42.4229	-6.93206	-17.2362
 333	1	4	0.154391	41.5441	-5.79162	-18.8948
 334	1	2	-0.205992	42.2096	-8.05812	-16.3895
 335	1	4	0.156637	40.9411	-9.77751	-15.9203
 336	1	4	0.178085	42.9049	-8.29993	-15.5921
 337	1	10	0.05178	43.406	-3.72767	-24.8221
 338	1	10	0.015669	42.7152	-2.09871	-24.9184
 339	1	10	0.036134	43.0796	-2.79175	-23.3512
 340	1	11	0.101096	47.1016	1.1257	-26.4588
 341	1	1	-0.196269	45.9755	0.0348851	-27.8843
 342	1	11	0.131285	47.9457	-0.268702	-27.1545
 343	1	3	-0.292673	44.6133	0.185576	-27.3395
 344	1	3	-0.034798	44.2625	-2.20412	-27.611
 345	1	12	0.194395	43.8816	0.319017	-28.1478
 346	1	12	0.183693	44.5569	1.03102	-26.6406
 347	1	2	-0.144532	47.0648	-0.861036	-29.9092
 348	1	2	0.128587	46.1303	-0.971107	-28.8486
 349	1	2	0.222203	47.2026	-1.938	-30.8255
 350	1	2	0.041795	45.3114	-2.11818	-28.7262
 351	1	2	-0.461017	46.3942	-3.08791	-30.6674
 352	1	2	-0.140506	45.4511	-3.17597	-29.6335
 353	1	4	0.148448	44.8223	-4.05902	-29.537
 354	1	10	0.055442	48.0963	0.651459	-31.1281
 355	1	10	0.090839	47.3492	1.30394	-29.6842
 356	1	3	-0.16304	47.8805	0.427669	-30.0766
 357	1	10	0.039719	48.837	0.356715	-29.5438
 358	1	11	0.077452	43.2607	-2.17158	-28.0563
 359	1	11	0.09063	44.3692	-3.17045	-27.1021
 360	1	4	0.230266	46.4779	-3.90792	-31.3794
 361	1	1	-0.247122	33.9993	-9.70955	-23.5989
 362	1	2	0.139112	34.0637	-8.46769	-24.2538
 363	1	2	0.02746	32.9091	-7.69073	-24.5216
 364	1	3	-0.077297	31.5109	-8.23217	-24.2044
 365	1	2	-0.08585	33.0619	-6.40441	-25.0959
 366	1	2	-0.195578	34.3382	-5.9335	-25.4517
 367	1	4	0.171692	34.4499	-4.95114	-25.9069
 368	1	2	-0.199822	35.4753	-6.71429	-25.2065
 369	1	4	0.149498	36.4604	-6.33555	-25.4663
 370	1	2	0.076729	35.3455	-7.96766	-24.5913
 371	1	2	-0.057821	30.3325	-4.22807	-26.2463
 372	1	2	-0.076852	29.4779	-3.55152	-27.1237
 373	1	4	0.145382	29.6214	-3.66106	-28.1967
 374	1	2	-0.023498	28.4216	-2.76394	-26.5945
 375	1	4	0.166076	29.0878	-3.26054	-23.2302
 376	1	2	-0.140684	29.1862	-3.33735	-24.3115
 377	1	2	-0.058922	30.1894	-4.12747	-24.8791
 378	1	3	-0.101954	27.446	-2.06151	-27.586
 379	1	2	-0.067123	28.3077	-2.65578	-25.1778
 380	1	4	0.142141	27.5347	-2.05049	-24.7189
 381	1	3	0.321219	26.1126	-1.55627	-26.9144
 382	1	3	0.382784	28.2336	-0.830515	-28.1801
 383	1	5	-0.111948	25.2059	-1.15287	-27.8337
 384	1	5	-0.11115	26.3028	-0.509514	-26.0798
 385	1	5	-0.103632	25.5108	-2.53871	-26.2057
 386	1	5	-0.110272	28.8415	-0.115963	-27.2054
 387	1	5	-0.120305	27.4499	0.0403055	-28.8551
 388	1	5	-0.123663	29.2088	-1.22376	-29.0302
 389	1	6	0.452517	31.2377	-4.96288	-24.2371
 390	1	6	0.453374	31.4747	-5.13731	-26.5289
 391	1	7	0.018948	31.9484	-5.53723	-25.2851
 392	1	8	-0.46698	31.4211	-5.09304	-23.0384
 393	1	8	-0.469385	31.8952	-5.44599	-27.6308
 394	1	3	-0.126657	36.6007	-8.77626	-24.2499
 395	1	2	0.020988	26.3701	-5.38237	-29.2124
 396	1	6	0.027902	26.0419	-6.81941	-29.0512
 397	1	8	-0.378193	26.1216	-7.46286	-28.0171
 398	1	2	0.043573	26.1278	-5.01955	-30.5194
 399	1	6	0.038038	25.6034	-6.19995	-31.2484
 400	1	7	0.4913	25.5835	-7.23087	-30.3044
 401	1	8	-0.382817	25.1784	-6.2028	-32.3929
 402	1	2	0.0054	26.7831	-4.44991	-28.2582
 403	1	2	-0.040988	26.3125	-3.70494	-30.9523
 404	1	2	-0.085341	27.0145	-3.10621	-28.6565
 405	1	4	0.154391	26.9071	-4.77361	-27.2279
 406	1	2	-0.205992	26.7644	-2.7537	-30.0136
 407	1	4	0.156637	26.0952	-3.43008	-31.9822
 408	1	4	0.178085	26.8878	-1.73298	-30.3598
 409	1	10	0.05178	30.7759	-7.92041	-24.9562
 410	1	10	0.015669	31.1642	-7.87738	-23.2262
 411	1	10	0.036134	31.4851	-9.32835	-24.1894
 412	1	11	0.101096	37.0369	-9.17378	-25.1741
 413	1	1	-0.196269	36.2782	-9.88805	-23.3281
 414	1	11	0.131285	37.3366	-8.1052	-23.7902
 415	1	3	-0.292673	35.1206	-10.6363	-23.8561
 416	1	3	-0.034798	33.7033	-9.689	-22.1487
 417	1	12	0.194395	34.9882	-11.584	-23.3167
 418	1	12	0.183693	35.2307	-10.8317	-24.9312
 419	1	2	-0.144532	37.4333	-9.35158	-21.2148
 420	1	2	0.128587	36.2495	-9.59308	-21.9551
 421	1	2	0.222203	37.3302	-8.95343	-19.8572
 422	1	2	0.041795	34.9826	-9.47698	-21.3331
 423	1	2	-0.461017	36.06	-8.86816	-19.2457
 424	1	2	-0.140506	34.8931	-9.13428	-19.9767
 425	1	4	0.148448	33.9167	-9.0495	-19.5034
 426	1	10	0.055442	39.5574	-9.91003	-21.1689
 427	1	10	0.090839	38.7824	-10.2348	-22.7067
 428	1	3	-0.16304	38.8102	-9.52276	-21.8723
 429	1	10	0.039719	39.1803	-8.56713	-22.2643
 430	1	11	0.077452	33.2381	-10.637	-21.8519
 431	1	11	0.09063	32.9976	-8.88218	-21.9153
 432	1	4	0.230266	35.9806	-8.58382	-18.1976
 433	1	1	-0.247122	22.7871	-12.3412	-32.8901
 434	1	2	0.139112	22.1354	-11.4789	-33.7987
 435	1	2	0.02746	20.7212	-11.3638	-33.8621
 436	1	3	-0.077297	19.8122	-12.287	-33.0428
 437	1	2	-0.08585	20.1468	-10.3304	-34.6442
 438	1	2	-0.195578	20.9616	-9.4892	-35.4212
 439	1	4	0.171692	20.5199	-8.6737	-35.9908
 440	1	2	-0.199822	22.3536	-9.62666	-35.3878
 441	1	4	0.149498	22.9791	-8.93077	-35.9409
 442	1	2	0.076729	22.9415	-10.5876	-34.5539
 443	1	2	-0.057821	16.9576	-8.8525	-33.6558
 444	1	2	-0.076852	16.1006	-8.00468	-32.9544
 445	1	4	0.145382	16.5247	-7.17726	-32.3899
 446	1	2	-0.023498	14.7092	-8.27182	-32.953
 447	1	4	0.166076	14.758	-11.0493	-35.0297
 448	1	2	-0.140684	15.1218	-10.2002	-34.4539
 449	1	2	-0.058922	16.4926	-9.92172	-34.3888
 450	1	3	-0.101954	13.7861	-7.35044	-32.1028
 451	1	2	-0.067123	14.2357	-9.36783	-33.732
 452	1	4	0.142141	13.1775	-9.59918	-33.7814
 453	1	3	0.321219	13.5359	-6.06161	-32.975
 454	1	3	0.382784	12.4022	-8.00541	-31.728
 455	1	5	-0.111948	12.6162	-5.2293	-32.4374
 456	1	5	-0.11115	13.0976	-6.37496	-34.2155
 457	1	5	-0.103632	14.6701	-5.3463	-33.1513
 458	1	5	-0.110272	11.755	-7.28588	-30.7831
 459	1	5	-0.120305	12.5553	-9.24892	-31.2195
 460	1	5	-0.123663	11.5557	-8.11223	-32.7767
 461	1	6	0.452517	17.6717	-10.6353	-34.9614
 462	1	6	0.453374	18.4357	-8.85079	-33.7085
 463	1	7	0.018948	18.7842	-9.95379	-34.4758
 464	1	8	-0.46698	17.6431	-11.6329	-35.6611
 465	1	8	-0.469385	19.1702	-8.07514	-33.1204
 466	1	3	-0.126657	24.4601	-10.5799	-34.3668
 467	1	2	0.020988	15.4525	-5.59896	-29.06
 468	1	6	0.027902	15.8029	-4.36209	-28.3185
 469	1	8	-0.378193	15.4362	-3.22979	-28.586
 470	1	2	0.043573	16.0612	-6.66705	-28.4331
 471	1	6	0.038038	16.8404	-6.1622	-27.2759
 472	1	7	0.4913	16.6203	-4.78531	-27.2711
 473	1	8	-0.382817	17.5143	-6.83006	-26.5079
 474	1	2	0.0054	14.6772	-5.7618	-30.2139
 475	1	2	-0.040988	15.9003	-7.96987	-28.9043
 476	1	2	-0.085341	14.5273	-7.06572	-30.7595
 477	1	4	0.154391	14.2413	-4.87778	-30.667
 478	1	2	-0.205992	15.1232	-8.15769	-30.0647
 479	1	4	0.156637	16.3792	-8.80329	-28.395
 480	1	4	0.178085	15.0178	-9.16941	-30.4503
 481	1	10	0.05178	20.3367	-13.1775	-32.6775
 482	1	10	0.015669	18.9766	-12.663	-33.6423
 483	1	10	0.036134	19.395	-11.7603	-32.1758
 484	1	11	0.101096	24.9368	-11.0949	-35.2093
 485	1	1	-0.196269	24.8111	-11.2451	-33.0942
 486	1	11	0.131285	24.8099	-9.54166	-34.3662
 487	1	3	-0.292673	24.2242	-12.6021	-33.1329
 488	1	3	-0.034798	22.6332	-12.0369	-31.4526
 489	1	12	0.194395	24.6599	-13.2333	-32.3467
 490	1	12	0.183693	24.3748	-13.0763	-34.112
 491	1	2	-0.144532	25.3831	-9.34432	-31.6102
 492	1	2	0.128587	24.6118	-10.4958	-31.9148
 493	1	2	0.222203	24.9768	-8.50261	-30.5401
 494	1	2	0.041795	23.5135	-10.8449	-31.0896
 495	1	2	-0.461017	23.888	-8.88407	-29.7245
 496	1	2	-0.140506	23.1736	-10.0583	-29.983
 497	1	4	0.148448	22.3224	-10.3306	-29.3622
 498	1	10	0.055442	27.1002	-9.9228	-32.8431
 499	1	10	0.090839	26.4176	-8.34362	-33.2605
 500	1	3	-0.16304	26.642	-9.01775	-32.4247
 501	1	10	0.039719	27.4137	-8.54099	-31.8076
 502	1	11	0.077452	22.9292	-12.9043	-30.8494
 503	1	11	0.09063	21.594	-11.797	-31.2056
 504	1	4	0.230266	23.5888	-8.25343	-28.8877
 505	1	1	-0.247122	17.8078	-0.886057	-22.2405
 506	1	2	0.139112	16.7413	0.0243793	-22.2908
 507	1	2	0.02746	16.9167	1.40981	-22.0582
 508	1	3	-0.077297	18.2943	1.96295	-21.6776
 509	1	2	-0.08585	15.7908	2.26762	-22.1304
 510	1	2	-0.195578	14.52	1.74654	-22.4343
 511	1	4	0.171692	13.653	2.40395	-22.4642
 512	1	2	-0.199822	14.3498	0.371856	-22.6453
 513	1	4	0.149498	13.3605	-0.0281475	-22.8514
 514	1	2	0.076729	15.4512	-0.491468	-22.5595
 515	1	2	-0.057821	15.8194	5.55041	-20.5154
 516	1	2	-0.076852	15.6711	6.47762	-19.4801
 517	1	4	0.145382	15.1501	6.15706	-18.5846
 518	1	2	-0.023498	16.2322	7.77281	-19.6287
 519	1	4	0.166076	17.6197	7.34007	-22.7795
 520	1	2	-0.140684	17.0668	7.11346	-21.8697
 521	1	2	-0.058922	16.5058	5.84722	-21.6734
 522	1	3	-0.101954	16.1824	8.84709	-18.4995
 523	1	2	-0.067123	16.9186	8.0691	-20.8415
 524	1	4	0.142141	17.3606	9.05221	-20.983
 525	1	3	0.321219	15.1755	8.49346	-17.3385
 526	1	3	0.382784	17.6456	8.92658	-17.9113
 527	1	5	-0.111948	15.0153	9.52291	-16.4759
 528	1	5	-0.11115	15.5737	7.43438	-16.5977
 529	1	5	-0.103632	13.9401	8.22032	-17.8171
 530	1	5	-0.110272	18.1623	7.69432	-17.6989
 531	1	5	-0.120305	17.725	9.57818	-16.7298
 532	1	5	-0.123663	18.4903	9.5566	-18.7585
 533	1	6	0.452517	16.5531	4.61683	-22.5135
 534	1	6	0.453374	15.3922	4.13204	-20.5754
 535	1	7	0.018948	15.8878	3.64251	-21.7758
 536	1	8	-0.46698	17.1201	4.49544	-23.5861
 537	1	8	-0.469385	14.7734	3.53087	-19.7137
 538	1	3	-0.126657	15.2471	-1.99913	-22.7296
 539	1	2	0.020988	15.5271	12.6186	-19.0936
 540	1	6	0.027902	15.6905	14.0308	-18.6581
 541	1	8	-0.378193	16.4095	14.4316	-17.7576
 542	1	2	0.043573	14.5825	12.5794	-20.0984
 543	1	6	0.038038	14.1096	13.9594	-20.3601
 544	1	7	0.4913	14.8006	14.758	-19.4496
 545	1	8	-0.382817	13.2448	14.2867	-21.1566
 546	1	2	0.0054	16.0964	11.4494	-18.5768
 547	1	2	-0.040988	14.1426	11.3696	-20.6373
 548	1	2	-0.085341	15.6858	10.1933	-19.1008
 549	1	4	0.154391	16.7991	11.539	-17.7555
 550	1	2	-0.205992	14.6942	10.1794	-20.1224
 551	1	4	0.156637	13.3667	11.3562	-21.3999
 552	1	4	0.178085	14.313	9.23462	-20.5041
 553	1	10	0.05178	18.9318	1.20247	-21.2115
 554	1	10	0.015669	18.224	2.78299	-20.9531
 555	1	10	0.036134	18.8188	2.34036	-22.564
 556	1	11	0.101096	14.6636	-2.3793	-21.8826
 557	1	1	-0.196269	16.5394	-2.71754	-22.8014
 558	1	11	0.131285	14.6665	-2.17446	-23.6437
 559	1	3	-0.292673	17.4607	-2.23534	-21.7557
 560	1	3	-0.034798	18.6819	-0.979915	-23.4345
 561	1	12	0.194395	18.3501	-2.87736	-21.6923
 562	1	12	0.183693	16.9627	-2.18879	-20.7779
 563	1	2	-0.144532	16.5845	-3.82428	-24.9984
 564	1	2	0.128587	17.099	-2.88358	-24.0733
 565	1	2	0.222203	17.1549	-3.89654	-26.2932
 566	1	2	0.041795	18.1691	-2.02915	-24.4314
 567	1	2	-0.461017	18.2316	-3.04756	-26.6357
 568	1	2	-0.140506	18.7375	-2.1208	-25.7104
 569	1	4	0.148448	19.553	-1.45613	-25.9889
 570	1	10	0.055442	15.6042	-5.78559	-24.8926
 571	1	10	0.090839	15.2096	-4.75502	-23.5431
 572	1	3	-0.16304	15.4111	-4.74166	-24.6207
 573	1	10	0.039719	14.4895	-4.42544	-25.1251
 574	1	11	0.077452	19.699	-1.24793	-23.1232
 575	1	11	0.09063	18.7332	-0.0061189	-23.9383
 576	1	4	0.230266	18.6579	-3.09035	-27.6368
 577	1	1	-0.247122	14.3817	21.2442	-19.4292
 578	1	2	0.139112	15.1752	21.7833	-18.411
 579	1	2	0.02746	14.7331	22.8549	-17.5976
 580	1	3	-0.077297	13.3564	23.4871	-17.8285
 581	1	2	-0.08585	15.5877	23.3414	-16.5786
 582	1	2	-0.195578	16.8638	22.7746	-16.399
 583	1	4	0.171692	17.5287	23.1629	-15.6295
 584	1	2	-0.199822	17.2932	21.7115	-17.2075
 585	1	4	0.149498	18.2787	21.2786	-17.0573
 586	1	2	0.076729	16.4509	21.2066	-18.2089
 587	1	2	-0.057821	15.1165	26.454	-14.6833
 588	1	2	-0.076852	15.3545	27.7624	-14.248
 589	1	4	0.145382	16.1323	28.3319	-14.7449
 590	1	2	-0.023498	14.601	28.2756	-13.1589
 591	1	4	0.166076	12.6815	25.4585	-12.524
 592	1	2	-0.140684	13.4098	26.1082	-13.0057
 593	1	2	-0.058922	14.1722	25.6477	-14.0843
 594	1	3	-0.101954	14.8676	29.6843	-12.5506
 595	1	2	-0.067123	13.6399	27.4221	-12.5464
 596	1	4	0.142141	13.0735	27.7764	-11.6884
 597	1	3	0.321219	15.7965	29.4359	-11.2992
 598	1	3	0.382784	15.5867	30.6727	-13.547
 599	1	5	-0.111948	16.8161	28.5965	-11.5913
 600	1	5	-0.11115	15.1135	28.8633	-10.2819
 601	1	5	-0.103632	16.3655	30.563	-10.8153
 602	1	5	-0.110272	15.5729	31.9455	-13.088
 603	1	5	-0.120305	14.9672	30.6993	-14.749
 604	1	5	-0.123663	16.8853	30.3658	-13.7656
 605	1	6	0.452517	14.205	24.318	-14.7533
 606	1	6	0.453374	15.7889	25.67	-15.7518
 607	1	7	0.018948	15.1968	24.4134	-15.7242
 608	1	8	-0.46698	13.5018	23.3585	-14.4854
 609	1	8	-0.469385	16.6849	26.0645	-16.4781
 610	1	3	-0.126657	16.9124	20.0316	-19.0839
 611	1	2	0.020988	12.1599	31.8419	-10.8211
 612	1	6	0.027902	11.803	32.8008	-9.75321
 613	1	8	-0.378193	12.5253	33.1634	-8.83918
 614	1	2	0.043573	11.0858	31.7119	-11.6765
 615	1	6	0.038038	9.98466	32.5875	-11.1853
 616	1	7	0.4913	10.504	33.2064	-10.0476
 617	1	8	-0.382817	8.88843	32.74	-11.6989
 618	1	2	0.0054	13.3738	31.19	-11.044
 619	1	2	-0.040988	11.1753	30.9088	-12.8177
 620	1	2	-0.085341	13.5112	30.3599	-12.1864
 621	1	4	0.154391	14.1833	31.3738	-10.3469
 622	1	2	-0.205992	12.3975	30.2436	-13.0674
 623	1	4	0.156637	10.3336	30.8303	-13.5025
 624	1	4	0.178085	12.4849	29.6494	-13.9751
 625	1	10	0.05178	12.597	22.9969	-17.2066
 626	1	10	0.015669	13.0344	23.4062	-18.8736
 627	1	10	0.036134	13.3471	24.557	-17.5898
 628	1	11	0.101096	17.7857	20.3443	-19.6686
 629	1	1	-0.196269	15.8443	19.5655	-20.0027