pySIMM System Object

1082 atoms
1201 bonds
2160 angles
3326 dihedrals
300 impropers

12 atom types
15 bond types
28 angle types
9 dihedral types
4 improper types

-158.784392 158.784392 xlo xhi
-158.784392 158.784392 ylo yhi
-158.784392 158.784392 zlo zhi

Masses

   1	14.01	# nh
   2	12.01	# ca
   3	12.01	# c3
   4	1.008	# ha
   5	19.0	# f
   6	12.01	# c
   7	14.01	# n
   8	16.0	# o
   9	1.008	# hn
  10	1.008	# hc
  11	1.008	# h1
  12	1.008	# h2

Pair Coeffs

   1	0.17	3.249998523775958	# nh
   2	0.086	3.3996695084235347	# ca
   3	0.1094	3.3996695084235347	# c3
   4	0.015	2.59964245953351	# ha
   5	0.061	3.1181455134911875	# f
   6	0.086	3.3996695084235347	# c
   7	0.17	3.249998523775958	# n
   8	0.21	2.959921901149463	# o
   9	0.0157	1.069078461768407	# hn
  10	0.0157	2.649532787749369	# hc
  11	0.0157	2.471353044121301	# h1
  12	0.0157	2.2931733004932333	# h2

Bond Coeffs

   1	356.9	1.3497	# c3,f
   2	403.2	1.0129	# hn,n
   3	417.9	1.3859	# ca,nh
   4	300.9	1.5375	# c3,c3
   5	384.2	1.4121	# ca,n
   6	330.6	1.0969	# c3,h1
   7	461.1	1.3984	# ca,ca
   8	326.6	1.464	# c3,nh
   9	427.6	1.3789	# c,n
  10	331.7	1.0961	# c3,h2
  11	345.9	1.4906	# c,ca
  12	345.8	1.086	# ca,ha
  13	321.0	1.5156	# c3,ca
  14	330.6	1.0969	# c3,hc
  15	637.7	1.2183	# c,o

Angle Coeffs

   1	71.11	105.87	# nh,c3,nh
   2	63.25	114.51	# c3,nh,c3
   3	74.22	123.05	# n,c,o
   4	66.62	120.02	# ca,ca,ca
   5	68.29	120.95	# ca,ca,nh
   6	49.52	110.01	# h2,c3,nh
   7	68.72	122.6	# ca,c,o
   8	49.57	109.79	# h1,c3,nh
   9	67.68	115.25	# ca,c,n
  10	66.46	111.39	# ca,c3,nh
  11	48.33	117.55	# c,n,hn
  12	64.28	120.33	# c,ca,ca
  13	39.4	107.58	# hc,c3,hc
  14	63.53	120.77	# c3,ca,ca
  15	70.89	107.36	# f,c3,f
  16	67.87	120.19	# ca,ca,n
  17	46.8	110.47	# ca,c3,hc
  18	46.99	109.56	# ca,c3,h1
  19	62.86	111.51	# c3,c3,c3
  20	66.11	109.24	# c3,c3,f
  21	63.15	112.07	# c3,c3,ca
  22	38.96	110.2	# h2,c3,h2
  23	63.82	123.71	# c,n,ca
  24	39.24	108.46	# h1,c3,h1
  25	63.56	112.24	# ca,c3,ca
  26	63.39	119.98	# c3,nh,ca
  27	63.74	127.08	# c,n,c
  28	48.18	119.88	# ca,ca,ha

Dihedral Coeffs

   1	2	2.5	2	180	2.0	1	0	# hn,n,c,o
   2	1	0.0	2	0	# X,c3,nh,X
   3	1	3.625	2	180	# X,ca,ca,X
   4	1	0.0	2	0	# X,c3,ca,X
   5	1	1.0	2	180	# X,c,ca,X
   6	1	0.15555555555555556	3	0	# X,c3,c3,X
   7	1	2.5	2	180	# X,c,n,X
   8	1	0.45	2	180	# X,ca,n,X
   9	1	1.05	2	180	# X,ca,nh,X

Improper Coeffs

   1	10.5	-1	2	# c,X,X,o
   2	1.1	-1	2	# n,X,X,hn
   3	1.1	-1	2	# ca,ca,ca,c3
   4	1.1	-1	2	# ca,X,X,ha

Atoms

   1	1	1	-0.247122	-38.1656	67.6667	9.2582
   2	1	2	0.139112	-37.9588	68.9477	8.72715
   3	1	2	0.02746	-36.6973	69.3788	8.24463
   4	1	3	-0.077297	-35.4703	68.463	8.2891
   5	1	2	-0.08585	-36.5694	70.6967	7.74532
   6	1	2	-0.195578	-37.6832	71.5548	7.70811
   7	1	4	0.171692	-37.5767	72.5716	7.33459
   8	1	2	-0.199822	-38.9287	71.1217	8.18069
   9	1	4	0.149498	-39.7811	71.7956	8.16131
  10	1	2	0.076729	-39.0684	69.8276	8.70127
  11	1	2	-0.057821	-33.4048	72.4928	7.3214
  12	1	2	-0.076852	-32.3978	73.4223	7.60349
  13	1	4	0.145382	-32.4139	73.9196	8.56731
  14	1	2	-0.023498	-31.4375	73.724	6.60305
  15	1	4	0.166076	-32.6602	71.6411	4.11325
  16	1	2	-0.140684	-32.5675	72.1214	5.0855
  17	1	2	-0.058922	-33.4936	71.8582	6.10029
  18	1	3	-0.101954	-30.3691	74.8397	6.79917
  19	1	2	-0.067123	-31.5488	73.0629	5.34599
  20	1	4	0.142141	-30.8567	73.3047	4.54352
  21	1	3	0.321219	-31.0298	76.1623	6.25259
  22	1	3	0.382784	-29.9563	75.0519	8.30899
  23	1	5	-0.111948	-31.2157	76.1062	4.91408
  24	1	5	-0.11115	-30.2966	77.2673	6.51707
  25	1	5	-0.103632	-32.2538	76.3773	6.78678
  26	1	5	-0.110272	-29.705	73.8769	8.92961
  27	1	5	-0.120305	-30.8911	75.6916	9.04699
  28	1	5	-0.123663	-28.8268	75.7891	8.41387
  29	1	6	0.452517	-34.7215	71.0128	6.10267
  30	1	6	0.453374	-34.5683	72.0806	8.1453
  31	1	7	0.018948	-35.3099	71.223	7.34413
  32	1	8	-0.46698	-35.1307	70.3287	5.18015
  33	1	8	-0.469385	-34.8248	72.4681	9.27239
  34	1	3	-0.126657	-40.4251	69.378	9.25601
  35	1	2	0.020988	-27.1773	74.8886	4.57963
  36	1	6	0.027902	-26.2812	75.5944	3.62817
  37	1	8	-0.378193	-26.4532	76.7131	3.1724
  38	1	2	0.043573	-26.6698	73.6262	4.80298
  39	1	6	0.038038	-25.4204	73.4719	4.01626
  40	1	7	0.4913	-25.2583	74.6864	3.34734
  41	1	8	-0.382817	-24.7232	72.4719	3.95867
  42	1	2	0.0054	-28.3592	75.3261	5.18691
  43	1	2	-0.040988	-27.3245	72.7205	5.64053
  44	1	2	-0.085341	-29.0645	74.4373	6.04477
  45	1	4	0.154391	-28.6925	76.3362	4.97644
  46	1	2	-0.205992	-28.5232	73.1378	6.25614
  47	1	4	0.156637	-26.9133	71.7268	5.8057
  48	1	4	0.178085	-29.036	72.4374	6.91244
  49	1	10	0.05178	-34.5986	68.9846	8.70213
  50	1	10	0.015669	-35.2089	68.1173	7.28119
  51	1	10	0.036134	-35.6225	67.5748	8.91274
  52	1	11	0.101096	-40.6609	69.9684	10.1493
  53	1	1	-0.196269	-40.425	67.9386	9.60103
  54	1	11	0.131285	-41.1978	69.5823	8.50498
  55	1	3	-0.292673	-39.1875	67.5835	10.3211
  56	1	3	-0.034798	-38.3247	66.5477	8.29924
  57	1	12	0.194395	-39.2542	66.5675	10.7333
  58	1	12	0.183693	-38.9779	68.3005	11.1263
  59	1	2	-0.144532	-42.1698	66.8588	8.2425
  60	1	2	0.128587	-40.8133	67.0434	8.59746
  61	1	2	0.222203	-42.488	65.9663	7.20288
  62	1	2	0.041795	-39.7943	66.3358	7.91473
  63	1	2	-0.461017	-41.4776	65.2665	6.52507
  64	1	2	-0.140506	-40.1302	65.448	6.87912
  65	1	4	0.148448	-39.3462	64.9089	6.35188
  66	1	10	0.055442	-43.0699	67.7486	10.0263
  67	1	10	0.090839	-43.4883	68.5699	8.50996
  68	1	3	-0.16304	-43.3005	67.5899	8.96528
  69	1	10	0.039719	-44.2367	67.0188	8.9227
  70	1	11	0.077452	-37.9367	65.6251	8.74774
  71	1	11	0.09063	-37.7445	66.7465	7.38929
  72	1	4	0.230266	-41.7497	64.5845	5.72396
  73	1	1	-0.247122	-20.2419	76.7136	-0.256855
  74	1	2	0.139112	-20.6704	77.9024	-0.860784
  75	1	2	0.02746	-20.456	78.1623	-2.23461
  76	1	3	-0.077297	-19.6279	77.1878	-3.08052
  77	1	2	-0.08585	-21.0121	79.3309	-2.81144
  78	1	2	-0.195578	-21.7092	80.2507	-2.00592
  79	1	4	0.171692	-22.1296	81.1524	-2.44783
  80	1	2	-0.199822	-21.8876	80.0029	-0.635327
  81	1	4	0.149498	-22.4397	80.711	-0.0226563
  82	1	2	0.076729	-21.3886	78.8225	-0.0621936
  83	1	2	-0.057821	-20.3986	80.3398	-6.30641
  84	1	2	-0.076852	-19.8811	81.0411	-7.40807
  85	1	4	0.145382	-19.2987	81.9317	-7.2016
  86	1	2	-0.023498	-20.1355	80.5645	-8.72929
  87	1	4	0.166076	-22.0893	77.8277	-7.84813
  88	1	2	-0.140684	-21.4716	78.7167	-7.73275
  89	1	2	-0.058922	-21.1781	79.2162	-6.4679
  90	1	3	-0.101954	-19.6072	81.2809	-10.0244
  91	1	2	-0.067123	-20.9446	79.3944	-8.84541
  92	1	4	0.142141	-21.2099	78.9876	-9.80729
  93	1	3	0.321219	-20.8463	81.9695	-10.7416
  94	1	3	0.382784	-18.5736	82.4483	-9.68911
  95	1	5	-0.111948	-21.8754	81.1339	-10.992
  96	1	5	-0.11115	-20.497	82.5124	-11.9288
  97	1	5	-0.103632	-21.4179	82.944	-10.0004
  98	1	5	-0.110272	-17.5727	82.0509	-8.87005
  99	1	5	-0.120305	-19.1152	83.515	-9.05962
 100	1	5	-0.123663	-17.9911	82.9385	-10.8073
 101	1	6	0.452517	-21.5705	78.7068	-5.13284
 102	1	6	0.453374	-20.2468	80.5768	-4.8413
 103	1	7	0.018948	-20.9511	79.5492	-4.219
 104	1	8	-0.46698	-22.2656	77.7286	-4.91371
 105	1	8	-0.469385	-19.5982	81.4664	-4.31826
 106	1	3	-0.126657	-21.6388	78.5161	1.42153
 107	1	2	0.020988	-19.0747	78.2578	-12.4421
 108	1	6	0.027902	-19.6878	77.0596	-13.0643
 109	1	8	-0.378193	-20.8809	76.8018	-13.068
 110	1	2	0.043573	-17.71	78.1117	-12.4682
 111	1	6	0.038038	-17.3777	76.8479	-13.1705
 112	1	7	0.4913	-18.6123	76.2533	-13.4532
 113	1	8	-0.382817	-16.2554	76.3952	-13.3315
 114	1	2	0.0054	-19.6944	79.3072	-11.7597
 115	1	2	-0.040988	-16.8899	78.9974	-11.7743
 116	1	2	-0.085341	-18.9221	80.2055	-10.9662
 117	1	4	0.154391	-20.7725	79.3324	-11.8117
 118	1	2	-0.205992	-17.5023	80.0187	-11.017
 119	1	4	0.156637	-15.8111	78.8551	-11.7684
 120	1	4	0.178085	-16.8178	80.642	-10.4598
 121	1	10	0.05178	-19.0861	77.6999	-3.88438
 122	1	10	0.015669	-20.2659	76.4213	-3.53686
 123	1	10	0.036134	-18.8665	76.673	-2.48212
 124	1	11	0.101096	-21.0676	79.2239	2.03391
 125	1	1	-0.196269	-21.2452	77.1289	1.77014
 126	1	11	0.131285	-22.7037	78.6666	1.64024
 127	1	3	-0.292673	-19.9312	76.8079	1.18237
 128	1	3	-0.034798	-21.0451	75.5004	-0.538633
 129	1	12	0.194395	-19.5521	75.8529	1.57106
 130	1	12	0.183693	-19.2029	77.6068	1.37545
 131	1	2	-0.144532	-23.2302	75.9317	2.61924
 132	1	2	0.128587	-22.2197	76.1285	1.64438
 133	1	2	0.222203	-24.21	74.9268	2.40582
 134	1	2	0.041795	-22.1638	75.3087	0.492212
 135	1	2	-0.461017	-24.1467	74.1285	1.24122
 136	1	2	-0.140506	-23.1292	74.3126	0.294064
 137	1	4	0.148448	-23.0847	73.6843	-0.593476
 138	1	10	0.055442	-23.5347	76.1774	4.77838
 139	1	10	0.090839	-22.2541	77.1881	4.13811
 140	1	3	-0.16304	-23.2415	76.7711	3.90381
 141	1	10	0.039719	-23.9401	77.6124	3.81653
 142	1	11	0.077452	-20.3929	74.6188	-0.529431
 143	1	11	0.09063	-21.4964	75.5697	-1.53685
 144	1	4	0.230266	-24.884	73.3428	1.08377
 145	1	1	-0.247122	-20.1982	70.3884	-15.828
 146	1	2	0.139112	-21.4678	70.0637	-15.3376
 147	1	2	0.02746	-21.8089	68.7486	-14.9337
 148	1	3	-0.077297	-20.7857	67.6184	-15.0864
 149	1	2	-0.08585	-23.1129	68.4955	-14.4335
 150	1	2	-0.195578	-24.0408	69.5531	-14.3459
 151	1	4	0.171692	-25.0487	69.364	-13.9801
 152	1	2	-0.199822	-23.7	70.8478	-14.7657
 153	1	4	0.149498	-24.4349	71.6468	-14.7128
 154	1	2	0.076729	-22.419	71.1071	-15.2727
 155	1	2	-0.057821	-24.8162	65.2662	-13.9454
 156	1	2	-0.076852	-25.8278	64.3054	-14.0625
 157	1	4	0.145382	-26.6226	64.49	-14.7769
 158	1	2	-0.023498	-25.8153	63.1771	-13.1989
 159	1	4	0.166076	-22.9492	63.9666	-11.4165
 160	1	2	-0.140684	-23.7374	64.0425	-12.1632
 161	1	2	-0.058922	-23.812	65.1557	-13.0089
 162	1	3	-0.101954	-27.0087	62.1785	-13.1168
 163	1	2	-0.067123	-24.7434	63.0573	-12.2705
 164	1	4	0.142141	-24.7196	62.2157	-11.5825
 165	1	3	0.321219	-27.8709	62.6585	-11.8846
 166	1	3	0.382784	-27.916	62.176	-14.4088
 167	1	5	-0.111948	-27.2462	62.4073	-10.7114
 168	1	5	-0.11115	-29.0895	62.0762	-11.8218
 169	1	5	-0.103632	-28.0905	63.9931	-11.9146
 170	1	5	-0.110272	-27.1785	62.0596	-15.5366
 171	1	5	-0.120305	-28.6728	63.2892	-14.5379
 172	1	5	-0.123663	-28.7766	61.1319	-14.4128
 173	1	6	0.452517	-22.9871	66.3967	-13.0642
 174	1	6	0.453374	-24.654	66.5639	-14.6506
 175	1	7	0.018948	-23.5529	67.1833	-14.0665
 176	1	8	-0.46698	-22.0503	66.6659	-12.3317
 177	1	8	-0.469385	-25.3772	66.9896	-15.5352
 178	1	3	-0.126657	-22.0592	72.5124	-15.7792
 179	1	2	0.020988	-26.683	58.4408	-12.1434
 180	1	6	0.027902	-27.2215	57.2663	-11.4144
 181	1	8	-0.378193	-28.0778	57.2913	-10.5452
 182	1	2	0.043573	-25.6987	58.0105	-13.0067
 183	1	6	0.038038	-25.5832	56.5324	-12.8876
 184	1	7	0.4913	-26.547	56.1644	-11.9443
 185	1	8	-0.382817	-24.8284	55.8146	-13.5238
 186	1	2	0.0054	-27.0996	59.7742	-12.1049
 187	1	2	-0.040988	-25.0414	58.9079	-13.8543
 188	1	2	-0.085341	-26.4808	60.7192	-12.968
 189	1	4	0.154391	-27.923	60.0255	-11.4463
 190	1	2	-0.205992	-25.4383	60.2637	-13.8232
 191	1	4	0.156637	-24.2765	58.5537	-14.5423
 192	1	4	0.178085	-24.9626	60.9582	-14.5131
 193	1	10	0.05178	-21.2611	66.65	-15.278
 194	1	10	0.015669	-20.1745	67.523	-14.1805
 195	1	10	0.036134	-20.1045	67.7927	-15.9278
 196	1	11	0.101096	-22.6914	72.7519	-16.6424
 197	1	1	-0.196269	-20.6308	72.6247	-16.1693
 198	1	11	0.131285	-22.2868	73.2394	-14.989
 199	1	3	-0.292673	-20.1828	71.4169	-16.8867
 200	1	3	-0.034798	-19.1352	70.6387	-14.8245
 201	1	12	0.194395	-19.1708	71.5557	-17.291
 202	1	12	0.183693	-20.8771	71.1591	-17.6977
 203	1	2	-0.144532	-19.5952	74.4777	-14.9211
 204	1	2	0.128587	-19.7442	73.0952	-15.1954
 205	1	2	0.222203	-18.7487	74.8832	-13.8541
 206	1	2	0.041795	-19.0098	72.1275	-14.4732
 207	1	2	-0.461017	-18.0457	73.895	-13.1235
 208	1	2	-0.140506	-18.1585	72.5335	-13.4388
 209	1	4	0.148448	-17.5945	71.7909	-12.8778
 210	1	10	0.055442	-20.4065	75.1585	-16.8393
 211	1	10	0.090839	-21.3424	75.6845	-15.4343
 212	1	3	-0.16304	-20.3238	75.5028	-15.8007
 213	1	10	0.039719	-19.8013	76.466	-15.8411
 214	1	11	0.077452	-18.1745	70.2834	-15.2163
 215	1	11	0.09063	-19.3475	70.076	-13.9061
 216	1	4	0.230266	-17.3816	74.1922	-12.3124
 217	1	1	-0.247122	-28.8794	50.1768	-10.7922
 218	1	2	0.139112	-29.7942	50.0401	-9.74569
 219	1	2	0.02746	-29.9651	48.8172	-9.059
 220	1	3	-0.077297	-29.02	47.6456	-9.34461
 221	1	2	-0.08585	-31.0649	48.6716	-8.17638
 222	1	2	-0.195578	-31.8933	49.7763	-7.89892
 223	1	4	0.171692	-32.7316	49.6698	-7.2125
 224	1	2	-0.199822	-31.6863	51.0031	-8.55259
 225	1	4	0.149498	-32.3572	51.8378	-8.36572
 226	1	2	0.076729	-30.6668	51.1257	-9.51065
 227	1	2	-0.057821	-32.0137	45.1637	-7.66916
 228	1	2	-0.076852	-32.3105	43.8437	-8.02196
 229	1	4	0.145382	-32.436	43.6118	-9.0738
 230	1	2	-0.023498	-32.4347	42.8667	-7.00093
 231	1	4	0.166076	-31.8664	44.9441	-4.28
 232	1	2	-0.140684	-31.9884	44.6325	-5.31564
 233	1	2	-0.058922	-31.8282	45.5509	-6.35992
 234	1	3	-0.101954	-32.7653	41.3781	-7.32617
 235	1	2	-0.067123	-32.3126	43.298	-5.64826
 236	1	4	0.142141	-32.4558	42.5859	-4.8395
 237	1	3	0.321219	-34.3363	41.2667	-7.29224
 238	1	3	0.382784	-32.2374	40.9224	-8.74261
 239	1	5	-0.111948	-34.8081	41.3852	-6.03059
 240	1	5	-0.11115	-34.8004	40.0995	-7.79335
 241	1	5	-0.103632	-34.928	42.2477	-8.01123
 242	1	5	-0.110272	-30.9523	41.2975	-8.93581
 243	1	5	-0.120305	-32.9567	41.413	-9.77669
 244	1	5	-0.123663	-32.2642	39.576	-8.8752
 245	1	6	0.452517	-31.4565	46.9973	-6.35191
 246	1	6	0.453374	-31.8086	46.3457	-8.53848
 247	1	7	0.018948	-31.438	47.3828	-7.68873
 248	1	8	-0.46698	-31.188	47.6688	-5.37055
 249	1	8	-0.469385	-31.9326	46.3689	-9.75147
 250	1	3	-0.126657	-30.5425	52.3988	-10.3652
 251	1	2	0.020988	-31.9446	38.4595	-4.90301
 252	1	6	0.027902	-32.3482	37.1932	-4.24519
 253	1	8	-0.378193	-33.4363	36.6481	-4.33056
 254	1	2	0.043573	-30.6362	38.7326	-4.56209
 255	1	6	0.038038	-30.1474	37.6557	-3.66074
 256	1	7	0.4913	-31.2236	36.7779	-3.5343
 257	1	8	-0.382817	-29.0404	37.5791	-3.1532
 258	1	2	0.0054	-32.6759	39.2881	-5.75914
 259	1	2	-0.040988	-29.9787	39.8542	-5.07333
 260	1	2	-0.085341	-32.0529	40.4463	-6.29716
 261	1	4	0.154391	-33.6929	38.9991	-5.9982
 262	1	2	-0.205992	-30.6943	40.698	-5.95012
 263	1	4	0.156637	-28.9405	40.0502	-4.81337
 264	1	4	0.178085	-30.1767	41.5558	-6.37563
 265	1	10	0.05178	-27.9949	47.987	-9.52755
 266	1	10	0.015669	-29.345	47.087	-10.2307
 267	1	10	0.036134	-28.9629	46.9455	-8.50269
 268	1	11	0.101096	-31.5249	52.6386	-10.7888
 269	1	1	-0.196269	-29.5546	52.2632	-11.4729
 270	1	11	0.131285	-30.2532	53.2313	-9.71093
 271	1	3	-0.292673	-29.4469	50.8763	-11.9602
 272	1	3	-0.034798	-27.4985	50.632	-10.4764
 273	1	12	0.194395	-28.7757	50.8123	-12.8273
 274	1	12	0.183693	-30.435	50.4729	-12.2217
 275	1	2	-0.144532	-28.1044	54.234	-11.7305
 276	1	2	0.128587	-28.3183	52.8951	-11.3256
 277	1	2	0.222203	-26.815	54.8092	-11.5664
 278	1	2	0.041795	-27.2594	52.1106	-10.8192
 279	1	2	-0.461017	-25.7682	54.0157	-11.0406
 280	1	2	-0.140506	-25.9841	52.6759	-10.6782
 281	1	4	0.148448	-25.1625	52.0692	-10.3025
 282	1	10	0.055442	-29.9264	54.3584	-12.9493
 283	1	10	0.090839	-29.856	55.5336	-11.6291
 284	1	3	-0.16304	-29.2524	55.0155	-12.3855
 285	1	10	0.039719	-28.8947	55.7625	-13.104
 286	1	11	0.077452	-26.7841	50.0186	-11.0388
 287	1	11	0.09063	-27.2933	50.4842	-9.4086
 288	1	4	0.230266	-24.7681	54.4371	-10.9476
 289	1	1	-0.247122	-31.3788	30.7816	-1.04086
 290	1	2	0.139112	-32.6422	30.2537	-1.33982
 291	1	2	0.02746	-33.3759	29.4661	-0.417434
 292	1	3	-0.077297	-32.8182	29.1754	0.980919
 293	1	2	-0.08585	-34.6173	28.9094	-0.818742
 294	1	2	-0.195578	-35.1347	29.1924	-2.09698
 295	1	4	0.171692	-36.0993	28.7868	-2.39733
 296	1	2	-0.199822	-34.4109	29.9872	-2.99864
 297	1	4	0.149498	-34.8129	30.1905	-3.98795
 298	1	2	0.076729	-33.159	30.5046	-2.63313
 299	1	2	-0.057821	-35.9409	26.2771	1.3952
 300	1	2	-0.076852	-35.9686	25.1032	2.16207
 301	1	4	0.145382	-35.1331	24.4086	2.10723
 302	1	2	-0.023498	-37.0785	24.8536	3.01167
 303	1	4	0.166076	-38.8515	27.76	2.34182
 304	1	2	-0.140684	-38.0641	27.0104	2.2854
 305	1	2	-0.058922	-36.9553	27.2086	1.4586
 306	1	3	-0.101954	-37.0748	23.5789	3.91464
 307	1	2	-0.067123	-38.116	25.8318	3.05816
 308	1	4	0.142141	-38.9739	25.7119	3.70867
 309	1	3	0.321219	-36.1337	23.9181	5.13315
 310	1	3	0.382784	-38.5059	23.1909	4.45286
 311	1	5	-0.111948	-34.8362	23.9656	4.75631
 312	1	5	-0.11115	-36.2226	23.0309	6.14932
 313	1	5	-0.103632	-36.4227	25.1282	5.66449
 314	1	5	-0.110272	-39.414	23.144	3.4514
 315	1	5	-0.120305	-38.9795	24.045	5.38825
 316	1	5	-0.123663	-38.514	21.965	5.02506
 317	1	6	0.452517	-36.5978	28.3571	0.580847
 318	1	6	0.453374	-34.9044	26.792	0.461083
 319	1	7	0.018948	-35.3555	28.0419	0.0429874
 320	1	8	-0.46698	-37.2648	29.3618	0.400311
 321	1	8	-0.469385	-33.8739	26.2201	0.1486
 322	1	3	-0.126657	-32.3438	31.325	-3.64374
 323	1	2	0.020988	-35.5371	20.1593	2.89013
 324	1	6	0.027902	-34.8496	18.8925	3.26587
 325	1	8	-0.378193	-34.3552	18.6285	4.34939
 326	1	2	0.043573	-35.9714	20.0463	1.58552
 327	1	6	0.038038	-35.5812	18.7116	1.06844
 328	1	7	0.4913	-34.9391	18.0818	2.13388
 329	1	8	-0.382817	-35.8403	18.2588	-0.0348413
 330	1	2	0.0054	-35.826	21.2921	3.66224
 331	1	2	-0.040988	-36.718	21.0575	0.977746
 332	1	2	-0.085341	-36.5899	22.3476	3.08768
 333	1	4	0.154391	-35.4914	21.3039	4.69315
 334	1	2	-0.205992	-37.0302	22.2005	1.74212
 335	1	4	0.156637	-37.0741	20.9396	-0.0434122
 336	1	4	0.178085	-37.6511	22.9679	1.28472
 337	1	10	0.05178	-32.2841	28.2177	0.992353
 338	1	10	0.015669	-33.6144	29.1293	1.73395
 339	1	10	0.036134	-32.1158	29.9393	1.32835
 340	1	11	0.101096	-32.093	30.6878	-4.5001
 341	1	1	-0.196269	-31.0951	31.8645	-3.05088
 342	1	11	0.131285	-32.9665	32.1499	-4.01314
 343	1	3	-0.292673	-30.4513	30.8574	-2.18633
 344	1	3	-0.034798	-31.3219	32.0291	-0.240212
 345	1	12	0.194395	-29.4538	31.1917	-1.87071
 346	1	12	0.183693	-30.3761	29.8877	-2.69676
 347	1	2	-0.144532	-31.093	34.3166	-3.34409
 348	1	2	0.128587	-31.1451	33.1611	-2.52463
 349	1	2	0.222203	-31.2039	35.594	-2.7397
 350	1	2	0.041795	-31.2766	33.2827	-1.12158
 351	1	2	-0.461017	-31.3397	35.6997	-1.33784
 352	1	2	-0.140506	-31.3692	34.5516	-0.532468
 353	1	4	0.148448	-31.4745	34.6402	0.547013
 354	1	10	0.055442	-30.7596	33.1791	-5.20991
 355	1	10	0.090839	-31.7291	34.6349	-5.41521
 356	1	3	-0.16304	-30.8819	34.2109	-4.86116
 357	1	10	0.039719	-29.9751	34.7503	-5.16451
 358	1	11	0.077452	-30.4292	32.0098	0.396892
 359	1	11	0.09063	-32.1989	32.0956	0.415677
 360	1	4	0.230266	-31.4222	36.6809	-0.873779
 361	1	1	-0.247122	-34.3616	11.6519	1.35353
 362	1	2	0.139112	-34.4185	10.8169	2.47394
 363	1	2	0.02746	-33.7671	9.55898	2.52837
 364	1	3	-0.077297	-32.9136	9.05909	1.35878
 365	1	2	-0.08585	-33.9479	8.73579	3.66775
 366	1	2	-0.195578	-34.7501	9.1804	4.73554
 367	1	4	0.171692	-34.9014	8.54355	5.60466
 368	1	2	-0.199822	-35.3927	10.4278	4.67325
 369	1	4	0.149498	-36.0317	10.7507	5.49101
 370	1	2	0.076729	-35.2438	11.2421	3.53971
 371	1	2	-0.057821	-33.1253	5.16855	3.32564
 372	1	2	-0.076852	-33.242	3.85405	2.8569
 373	1	4	0.145382	-34.162	3.58202	2.35265
 374	1	2	-0.023498	-32.1401	2.96275	2.98534
 375	1	4	0.166076	-29.9445	5.16071	4.52742
 376	1	2	-0.140684	-30.8652	4.78438	4.08566
 377	1	2	-0.058922	-31.9686	5.6309	3.91502
 378	1	3	-0.101954	-32.1249	1.55767	2.29887
 379	1	2	-0.067123	-30.961	3.4553	3.61253
 380	1	4	0.142141	-30.0875	2.81256	3.69134
 381	1	3	0.321219	-33.5738	0.994602	2.02992
 382	1	3	0.382784	-31.3861	1.7824	0.921354
 383	1	5	-0.111948	-33.5539	-0.310968	1.67569
 384	1	5	-0.11115	-34.2252	1.63629	1.03378
 385	1	5	-0.103632	-34.3418	1.07164	3.1405
 386	1	5	-0.110272	-31.8108	2.90472	0.296042
 387	1	5	-0.120305	-31.5649	0.776478	0.0361631
 388	1	5	-0.123663	-30.0531	1.92652	1.09991
 389	1	6	0.452517	-32.1378	7.09045	4.18516
 390	1	6	0.453374	-34.0736	6.30823	3.20253
 391	1	7	0.018948	-33.4057	7.41494	3.71292
 392	1	8	-0.46698	-31.3001	7.83998	4.65692
 393	1	8	-0.469385	-35.1799	6.27192	2.69155
 394	1	3	-0.126657	-36.0139	12.5691	3.43205
 395	1	2	0.020988	-30.2748	-1.65411	3.4454
 396	1	6	0.027902	-29.6336	-2.94111	3.07788
 397	1	8	-0.378193	-29.3482	-3.30544	1.94897
 398	1	2	0.043573	-30.4448	-1.62353	4.81269
 399	1	6	0.038038	-29.9062	-2.89423	5.38207
 400	1	7	0.4913	-29.4595	-3.62735	4.28018
 401	1	8	-0.382817	-29.8957	-3.21629	6.55873
 402	1	2	0.0054	-30.7387	-0.626654	2.61744
 403	1	2	-0.040988	-31.0964	-0.546296	5.42556
 404	1	2	-0.085341	-31.4198	0.483327	3.19085
 405	1	4	0.154391	-30.6112	-0.748745	1.54843
 406	1	2	-0.205992	-31.5901	0.495929	4.60432
 407	1	4	0.156637	-31.2529	-0.54224	6.5021
 408	1	4	0.178085	-32.152	1.301	5.07357
 409	1	10	0.05178	-33.0136	9.6782	0.460105
 410	1	10	0.015669	-33.1958	8.0408	1.0649
 411	1	10	0.036134	-31.8516	9.04783	1.6333
 412	1	11	0.101096	-37.0807	12.3741	3.59349
 413	1	1	-0.196269	-35.8363	13.2414	2.11689
 414	1	11	0.131285	-35.6735	13.2353	4.23493
 415	1	3	-0.292673	-35.6575	12.2738	1.0186
 416	1	3	-0.034798	-33.236	12.6226	1.26101
 417	1	12	0.194395	-35.6129	12.7861	0.0473012
 418	1	12	0.183693	-36.4663	11.5304	1.011
 419	1	2	-0.144532	-35.3936	15.6608	2.28998
 420	1	2	0.128587	-34.967	14.3322	2.0438
 421	1	2	0.222203	-34.4887	16.7279	2.06233
 422	1	2	0.041795	-33.6516	14.0645	1.60179
 423	1	2	-0.461017	-33.1653	16.4468	1.65257
 424	1	2	-0.140506	-32.747	15.1238	1.43035
 425	1	4	0.148448	-31.735	14.9198	1.08603
 426	1	10	0.055442	-37.3266	16.6614	2.05727
 427	1	10	0.090839	-37.4642	15.0728	2.79072
 428	1	3	-0.16304	-36.8285	15.9645	2.74267
 429	1	10	0.039719	-36.8317	16.4155	3.74335
 430	1	11	0.077452	-32.8282	12.6025	0.243102
 431	1	11	0.09063	-32.4311	12.3227	1.9444
 432	1	4	0.230266	-32.4697	17.2643	1.47212
 433	1	1	-0.247122	-27.6264	-9.67582	2.87129
 434	1	2	0.139112	-28.0777	-10.8418	3.49195
 435	1	2	0.02746	-27.3683	-12.0663	3.4245
 436	1	3	-0.077297	-25.9971	-12.1138	2.73879
 437	1	2	-0.08585	-27.9514	-13.2309	3.98899
 438	1	2	-0.195578	-29.1969	-13.1401	4.643
 439	1	4	0.171692	-29.6412	-14.027	5.09175
 440	1	2	-0.199822	-29.8945	-11.9213	4.69518
 441	1	4	0.149498	-30.8698	-11.8742	5.17273
 442	1	2	0.076729	-29.3521	-10.7743	4.09547
 443	1	2	-0.057821	-26.3436	-16.5337	4.36151
 444	1	2	-0.076852	-25.8551	-17.6873	4.99164
 445	1	4	0.145382	-25.8255	-17.6949	6.07564
 446	1	2	-0.023498	-25.5022	-18.8164	4.19846
 447	1	4	0.166076	-26.258	-17.4809	1.09375
 448	1	2	-0.140684	-26.1211	-17.5372	2.17209
 449	1	2	-0.058922	-26.5254	-16.4829	2.99672
 450	1	3	-0.101954	-25.2303	-20.2284	4.80307
 451	1	2	-0.067123	-25.5792	-18.6863	2.78384
 452	1	4	0.142141	-25.2914	-19.5185	2.14738
 453	1	3	0.321219	-25.1249	-20.2291	6.38513
 454	1	3	0.382784	-26.4891	-21.1139	4.4165
 455	1	5	-0.111948	-24.7262	-21.4327	6.85719
 456	1	5	-0.11115	-26.2956	-19.9432	6.99829
 457	1	5	-0.103632	-24.2204	-19.3412	6.85622
 458	1	5	-0.110272	-26.5174	-22.3107	5.04535
 459	1	5	-0.120305	-26.5569	-21.382	3.09265
 460	1	5	-0.123663	-27.6515	-20.4922	4.71931
 461	1	6	0.452517	-27.2086	-15.2043	2.66509
 462	1	6	0.453374	-26.844	-15.2543	4.94191
 463	1	7	0.018948	-27.336	-14.517	3.86963
 464	1	8	-0.46698	-27.609	-14.8719	1.56214
 465	1	8	-0.469385	-26.8186	-14.9387	6.11925
 466	1	3	-0.126657	-30.155	-9.46063	4.03672
 467	1	2	0.020988	-22.4862	-22.6976	3.63324
 468	1	6	0.027902	-22.1361	-24.1121	3.35945
 469	1	8	-0.378193	-22.9142	-24.9745	2.98519
 470	1	2	0.043573	-21.3489	-22.0367	4.03973
 471	1	6	0.038038	-20.2357	-23.0232	4.12307
 472	1	7	0.4913	-20.7974	-24.2493	3.73801
 473	1	8	-0.382817	-19.1544	-22.8159	4.64869
 474	1	2	0.0054	-23.7553	-22.1226	3.75906
 475	1	2	-0.040988	-21.4067	-20.7043	4.46155
 476	1	2	-0.085341	-23.8746	-20.8041	4.2799
 477	1	4	0.154391	-24.6085	-22.7598	3.55861
 478	1	2	-0.205992	-22.6745	-20.0843	4.53958
 479	1	4	0.156637	-20.506	-20.1951	4.79858
 480	1	4	0.178085	-22.7253	-19.0687	4.92573
 481	1	10	0.05178	-25.902	-11.351	1.95703
 482	1	10	0.015669	-25.7941	-13.0671	2.24348
 483	1	10	0.036134	-25.1962	-11.9457	3.46805
 484	1	11	0.101096	-31.1617	-9.68095	3.66222
 485	1	1	-0.196269	-29.5335	-8.41978	3.16554
 486	1	11	0.131285	-30.2613	-9.07219	5.05743
 487	1	3	-0.292673	-28.693	-9.0037	2.10286
 488	1	3	-0.034798	-26.8053	-8.72326	3.67547
 489	1	12	0.194395	-28.2786	-8.2205	1.45278
 490	1	12	0.183693	-29.2632	-9.72449	1.50065
 491	1	2	-0.144532	-29.6077	-6.07883	3.93061
 492	1	2	0.128587	-28.9298	-7.31202	3.76514
 493	1	2	0.222203	-28.874	-4.93357	4.33725
 494	1	2	0.041795	-27.5456	-7.41794	4.02245
 495	1	2	-0.461017	-27.5027	-5.06918	4.65632
 496	1	2	-0.140506	-26.8442	-6.30294	4.50744
 497	1	4	0.148448	-25.777	-6.38157	4.70521
 498	1	10	0.055442	-31.6076	-5.19777	4.15715
 499	1	10	0.090839	-31.2154	-5.71769	2.50413
 500	1	3	-0.16304	-31.0924	-5.96531	3.56678
 501	1	10	0.039719	-31.6295	-6.90361	3.75167
 502	1	11	0.077452	-25.8967	-8.47616	3.11325
 503	1	11	0.09063	-26.4913	-9.20306	4.61152
 504	1	4	0.230266	-26.933	-4.1958	4.96873
 505	1	1	-0.247122	-16.8654	-29.0975	5.43593
 506	1	2	0.139112	-16.2204	-30.0822	4.69433
 507	1	2	0.02746	-15.4788	-31.1173	5.31057
 508	1	3	-0.077297	-15.5336	-31.2982	6.83207
 509	1	2	-0.08585	-14.5798	-31.8796	4.52107
 510	1	2	-0.195578	-14.5267	-31.6684	3.12736
 511	1	4	0.171692	-13.809	-32.2201	2.52304
 512	1	2	-0.199822	-15.2927	-30.6554	2.52299
 513	1	4	0.149498	-15.1771	-30.4497	1.4621
 514	1	2	0.076729	-16.0979	-29.8207	3.31393
 515	1	2	-0.057821	-11.4897	-32.9704	6.14911
 516	1	2	-0.076852	-10.1984	-32.8052	6.66246
 517	1	4	0.145382	-9.59631	-32.0006	6.25699
 518	1	2	-0.023498	-9.75489	-33.6348	7.72775
 519	1	4	0.166076	-12.6739	-35.4748	8.11385
 520	1	2	-0.140684	-11.9716	-34.7565	7.69515
 521	1	2	-0.058922	-12.3538	-33.9272	6.63238
 522	1	3	-0.101954	-8.3608	-33.4218	8.4093
 523	1	2	-0.067123	-10.6794	-34.5876	8.246
 524	1	4	0.142141	-10.401	-35.1951	9.10359
 525	1	3	0.321219	-7.29033	-32.83	7.41229
 526	1	3	0.382784	-8.61385	-32.4029	9.58504
 527	1	5	-0.111948	-6.03424	-32.9152	7.9073
 528	1	5	-0.11115	-7.48067	-31.5235	7.12197
 529	1	5	-0.103632	-7.28467	-33.5114	6.2439
 530	1	5	-0.110272	-9.38399	-31.3603	9.1971
 531	1	5	-0.120305	-7.48051	-31.8622	10.0854
 532	1	5	-0.123663	-9.26421	-32.9991	10.6097
 533	1	6	0.452517	-13.6686	-33.7554	5.9423
 534	1	6	0.453374	-12.2225	-32.1349	5.16582
 535	1	7	0.018948	-13.525	-32.6232	5.14139
 536	1	8	-0.46698	-14.6691	-34.4276	6.12558
 537	1	8	-0.469385	-11.7795	-31.1476	4.60333
 538	1	3	-0.126657	-16.7251	-28.5317	2.74121
 539	1	2	0.020988	-6.28373	-36.0816	10.3535
 540	1	6	0.027902	-5.25432	-36.4136	11.3821
 541	1	8	-0.378193	-4.74291	-35.6323	12.1674
 542	1	2	0.043573	-6.5318	-37.2158	9.61101
 543	1	6	0.038038	-5.70967	-38.326	10.149
 544	1	7	0.4913	-4.96252	-37.7685	11.1902
 545	1	8	-0.382817	-5.66252	-39.4603	9.70042
 546	1	2	0.0054	-6.88669	-34.8563	10.0339
 547	1	2	-0.040988	-7.35824	-37.1833	8.48566
 548	1	2	-0.085341	-7.75759	-34.7765	8.90678
 549	1	4	0.154391	-6.62321	-33.9917	10.6322
 550	1	2	-0.205992	-7.94895	-35.9534	8.13048
 551	1	4	0.156637	-7.49766	-38.077	7.88123
 552	1	4	0.178085	-8.5415	-35.9147	7.21893
 553	1	10	0.05178	-15.7279	-32.3417	7.101
 554	1	10	0.015669	-16.338	-30.7224	7.30341
 555	1	10	0.036134	-14.5915	-30.9911	7.30156
 556	1	11	0.101096	-16.0415	-28.1009	2.00042
 557	1	1	-0.196269	-17.0312	-27.4953	3.78302
 558	1	11	0.131285	-17.648	-28.8058	2.21457
 559	1	3	-0.292673	-16.357	-27.7581	5.07001
 560	1	3	-0.034798	-18.3527	-29.1658	5.55473
 561	1	12	0.194395	-16.6371	-27.0096	5.82421
 562	1	12	0.183693	-15.2651	-27.7658	4.9443
 563	1	2	-0.144532	-18.914	-25.9155	3.55286
 564	1	2	0.128587	-18.3631	-27.1433	4.0028
 565	1	2	0.222203	-20.209	-25.5352	4.00412
 566	1	2	0.041795	-19.0692	-27.9745	4.89837
 567	1	2	-0.461017	-20.935	-26.4355	4.82377
 568	1	2	-0.140506	-20.377	-27.6427	5.26666
 569	1	4	0.148448	-20.9327	-28.29	5.94209
 570	1	10	0.055442	-17.3818	-25.5524	2.02798
 571	1	10	0.090839	-18.6766	-24.3637	2.01042
 572	1	3	-0.16304	-18.0671	-24.9889	2.67308
 573	1	10	0.039719	-17.4511	-24.3242	3.29247
 574	1	11	0.077452	-18.6225	-29.2007	6.61707
 575	1	11	0.09063	-18.7225	-30.0902	5.09228
 576	1	4	0.230266	-21.9393	-26.1746	5.15545
 577	1	1	-0.247122	-1.31415	-41.8004	14.7581
 578	1	2	0.139112	-0.406129	-41.2977	15.6887
 579	1	2	0.02746	0.856008	-41.8972	15.9076
 580	1	3	-0.077297	1.265	-43.1486	15.1165
 581	1	2	-0.08585	1.7485	-41.3115	16.8408
 582	1	2	-0.195578	1.36571	-40.1522	17.5422
 583	1	4	0.171692	2.05558	-39.6918	18.2465
 584	1	2	-0.199822	0.104995	-39.5658	17.3155
 585	1	4	0.149498	-0.175114	-38.6625	17.8509
 586	1	2	0.076729	-0.784009	-40.1278	16.3809
 587	1	2	-0.057821	4.91258	-42.823	16.0686
 588	1	2	-0.076852	5.66725	-43.3444	15.0168
 589	1	4	0.145382	5.76733	-42.7302	14.1292
 590	1	2	-0.023498	6.00543	-44.7212	15.0223
 591	1	4	0.166076	4.6258	-45.5571	18.0719
 592	1	2	-0.140684	4.98152	-44.9281	17.258
 593	1	2	-0.058922	4.53528	-43.6032	17.1413
 594	1	3	-0.101954	6.27282	-45.4404	13.674
 595	1	2	-0.067123	5.72313	-45.481	16.1894
 596	1	4	0.142141	5.93526	-46.5469	16.2066
 597	1	3	0.321219	4.83292	-45.6774	13.0521
 598	1	3	0.382784	7.10323	-44.5512	12.6505
 599	1	5	-0.111948	4.09794	-44.5468	12.9498
 600	1	5	-0.11115	4.08561	-46.502	13.8223
 601	1	5	-0.103632	4.88363	-46.1986	11.8044
 602	1	5	-0.110272	7.63089	-45.2994	11.6522
 603	1	5	-0.120305	8.13401	-43.9163	13.2535
 604	1	5	-0.123663	6.38941	-43.5883	12.0271
 605	1	6	0.452517	3.36901	-42.9415	17.7979
 606	1	6	0.453374	4.02716	-41.6341	16.0087
 607	1	7	0.018948	3.0638	-41.8511	16.9841
 608	1	8	-0.46698	2.66204	-43.4474	18.652
 609	1	8	-0.469385	3.97979	-40.84	15.0844
 610	1	3	-0.126657	-2.15172	-39.4763	16.0823
 611	1	2	0.020988	7.50611	-48.9282	12.8223
 612	1	6	0.027902	7.21747	-49.8024	11.6674
 613	1	8	-0.378193	6.10021	-50.1064	11.2796
 614	1	2	0.043573	8.86639	-48.6993	12.8769
 615	1	6	0.038038	9.49559	-49.3627	11.6985
 616	1	7	0.4913	8.41243	-49.8511	10.9617
 617	1	8	-0.382817	10.6273	-49.1502	11.2952
 618	1	2	0.0054	6.59735	-47.9978	13.3233
 619	1	2	-0.040988	9.38084	-47.6387	13.6317
 620	1	2	-0.085341	7.08454	-46.7718	13.8488
 621	1	4	0.154391	5.56641	-48.149	13.0304
 622	1	2	-0.205992	8.47083	-46.6944	14.1583
 623	1	4	0.156637	10.4507	-47.44	13.6338
 624	1	4	0.178085	8.87851	-45.791	14.6052
 625	1	10	0.05178	1.91459	-42.8791	14.2744
 626	1	10	0.015669	0.405217	-43.691	14.707
 627	1	10	0.036134	1.80226	-43.8722	15.7396