pySIMM System Object

2234 atoms
2481 bonds
4464 angles
6878 dihedrals
620 impropers

12 atom types
15 bond types
28 angle types
9 dihedral types
4 improper types

-204.709918 204.709918 xlo xhi
-204.709918 204.709918 ylo yhi
-204.709918 204.709918 zlo zhi

Masses

   1	14.01	# nh
   2	12.01	# ca
   3	12.01	# c3
   4	1.008	# ha
   5	19.0	# f
   6	12.01	# c
   7	14.01	# n
   8	16.0	# o
   9	1.008	# hn
  10	1.008	# hc
  11	1.008	# h1
  12	1.008	# h2

Pair Coeffs

   1	0.17	3.249998523775958	# nh
   2	0.086	3.3996695084235347	# ca
   3	0.1094	3.3996695084235347	# c3
   4	0.015	2.59964245953351	# ha
   5	0.061	3.1181455134911875	# f
   6	0.086	3.3996695084235347	# c
   7	0.17	3.249998523775958	# n
   8	0.21	2.959921901149463	# o
   9	0.0157	1.069078461768407	# hn
  10	0.0157	2.649532787749369	# hc
  11	0.0157	2.471353044121301	# h1
  12	0.0157	2.2931733004932333	# h2

Bond Coeffs

   1	356.9	1.3497	# c3,f
   2	403.2	1.0129	# hn,n
   3	417.9	1.3859	# ca,nh
   4	300.9	1.5375	# c3,c3
   5	384.2	1.4121	# ca,n
   6	330.6	1.0969	# c3,h1
   7	461.1	1.3984	# ca,ca
   8	326.6	1.464	# c3,nh
   9	427.6	1.3789	# c,n
  10	331.7	1.0961	# c3,h2
  11	345.9	1.4906	# c,ca
  12	345.8	1.086	# ca,ha
  13	321.0	1.5156	# c3,ca
  14	330.6	1.0969	# c3,hc
  15	637.7	1.2183	# c,o

Angle Coeffs

   1	71.11	105.87	# nh,c3,nh
   2	63.25	114.51	# c3,nh,c3
   3	74.22	123.05	# n,c,o
   4	66.62	120.02	# ca,ca,ca
   5	68.29	120.95	# ca,ca,nh
   6	49.52	110.01	# h2,c3,nh
   7	68.72	122.6	# ca,c,o
   8	49.57	109.79	# h1,c3,nh
   9	67.68	115.25	# ca,c,n
  10	66.46	111.39	# ca,c3,nh
  11	48.33	117.55	# c,n,hn
  12	64.28	120.33	# c,ca,ca
  13	39.4	107.58	# hc,c3,hc
  14	63.53	120.77	# c3,ca,ca
  15	70.89	107.36	# f,c3,f
  16	67.87	120.19	# ca,ca,n
  17	46.8	110.47	# ca,c3,hc
  18	46.99	109.56	# ca,c3,h1
  19	62.86	111.51	# c3,c3,c3
  20	66.11	109.24	# c3,c3,f
  21	63.15	112.07	# c3,c3,ca
  22	38.96	110.2	# h2,c3,h2
  23	63.82	123.71	# c,n,ca
  24	39.24	108.46	# h1,c3,h1
  25	63.56	112.24	# ca,c3,ca
  26	63.39	119.98	# c3,nh,ca
  27	63.74	127.08	# c,n,c
  28	48.18	119.88	# ca,ca,ha

Dihedral Coeffs

   1	2	2.5	2	180	2.0	1	0	# hn,n,c,o
   2	1	0.0	2	0	# X,c3,nh,X
   3	1	3.625	2	180	# X,ca,ca,X
   4	1	0.0	2	0	# X,c3,ca,X
   5	1	1.0	2	180	# X,c,ca,X
   6	1	0.15555555555555556	3	0	# X,c3,c3,X
   7	1	2.5	2	180	# X,c,n,X
   8	1	0.45	2	180	# X,ca,n,X
   9	1	1.05	2	180	# X,ca,nh,X

Improper Coeffs

   1	10.5	-1	2	# c,X,X,o
   2	1.1	-1	2	# n,X,X,hn
   3	1.1	-1	2	# ca,ca,ca,c3
   4	1.1	-1	2	# ca,X,X,ha

Atoms

   1	1	1	-0.247122	89.0747	-32.1609	-66.0175
   2	1	2	0.139112	88.6769	-31.8402	-64.711
   3	1	2	0.02746	87.3445	-32.0128	-64.2648
   4	1	3	-0.077297	86.2534	-32.4789	-65.2345
   5	1	2	-0.08585	87.0308	-31.7389	-62.9114
   6	1	2	-0.195578	88.0238	-31.2644	-62.0353
   7	1	4	0.171692	87.7773	-31.0458	-60.998
   8	1	2	-0.199822	89.3373	-31.0761	-62.4874
   9	1	4	0.149498	90.1008	-30.7174	-61.802
  10	1	2	0.076729	89.6702	-31.371	-63.8179
  11	1	2	-0.057821	83.6276	-31.6448	-61.5243
  12	1	2	-0.076852	82.4386	-31.1171	-61.0032
  13	1	4	0.145382	82.3469	-30.0394	-60.9163
  14	1	2	-0.023498	81.4118	-32.0097	-60.5936
  15	1	4	0.166076	83.029	-34.9904	-61.3176
  16	1	2	-0.140684	82.8527	-33.9193	-61.2366
  17	1	2	-0.058922	83.8274	-33.0046	-61.6431
  18	1	3	-0.101954	80.0747	-31.522	-59.9629
  19	1	2	-0.067123	81.652	-33.4091	-60.7048
  20	1	4	0.142141	80.8993	-34.1172	-60.3668
  21	1	3	0.321219	80.277	-31.6203	-58.4021
  22	1	3	0.382784	79.6994	-30.0383	-60.3448
  23	1	5	-0.111948	80.3822	-32.905	-57.9918
  24	1	5	-0.11115	79.2701	-31.0541	-57.6996
  25	1	5	-0.103632	81.4161	-31.0096	-58.0032
  26	1	5	-0.110272	79.8032	-29.8215	-61.6756
  27	1	5	-0.120305	80.469	-29.1109	-59.732
  28	1	5	-0.123663	78.4201	-29.7514	-60.012
  29	1	6	0.452517	85.1828	-33.2319	-62.2086
  30	1	6	0.453374	84.8545	-30.954	-62.0062
  31	1	7	0.018948	85.7241	-31.9658	-62.3951
  32	1	8	-0.46698	85.6919	-34.3138	-62.449
  33	1	8	-0.469385	85.0396	-29.7494	-62.0355
  34	1	3	-0.126657	91.1172	-31.2047	-64.2954
  35	1	2	0.020988	76.9552	-33.8223	-60.2349
  36	1	6	0.027902	75.8757	-34.5985	-59.5784
  37	1	8	-0.378193	75.6298	-34.6218	-58.3833
  38	1	2	0.043573	76.9262	-34.0938	-61.5872
  39	1	6	0.038038	75.8299	-35.0617	-61.8552
  40	1	7	0.4913	75.2654	-35.3184	-60.6061
  41	1	8	-0.382817	75.5517	-35.5627	-62.9324
  42	1	2	0.0054	77.9269	-32.9923	-59.6655
  43	1	2	-0.040988	77.8633	-33.5288	-62.4547
  44	1	2	-0.085341	78.9219	-32.4224	-60.5047
  45	1	4	0.154391	77.8976	-32.8345	-58.5929
  46	1	2	-0.205992	78.8539	-32.6894	-61.902
  47	1	4	0.156637	77.8323	-33.7515	-63.519
  48	1	4	0.178085	79.5935	-32.2564	-62.5726
  49	1	10	0.05178	86.4781	-32.1999	-66.2711
  50	1	10	0.015669	85.2803	-32.0298	-65.0017
  51	1	10	0.036134	86.1392	-33.5692	-65.1986
  52	1	11	0.101096	91.3652	-30.1372	-64.3309
  53	1	1	-0.196269	91.3164	-31.8079	-65.6326
  54	1	11	0.131285	91.7846	-31.6801	-63.5668
  55	1	3	-0.292673	90.2264	-31.3971	-66.5382
  56	1	3	-0.034798	89.2285	-33.5996	-66.3391
  57	1	12	0.194395	90.4566	-31.6772	-67.5752
  58	1	12	0.183693	90.0433	-30.3158	-66.4753
  59	1	2	-0.144532	92.9624	-33.6202	-65.376
  60	1	2	0.128587	91.6581	-33.1664	-65.6798
  61	1	2	0.222203	93.2324	-35.0009	-65.4128
  62	1	2	0.041795	90.6439	-34.0947	-66.0208
  63	1	2	-0.461017	92.2256	-35.9192	-65.7492
  64	1	2	-0.140506	90.9308	-35.4692	-66.0548
  65	1	4	0.148448	90.1486	-36.1803	-66.311
  66	1	10	0.055442	95.0743	-33.103	-65.1964
  67	1	10	0.090839	94.0427	-31.7423	-65.6456
  68	1	3	-0.16304	94.0895	-32.6493	-65.0291
  69	1	10	0.039719	94.0386	-32.3464	-63.9763
  70	1	11	0.077452	89.0221	-33.7624	-67.4042
  71	1	11	0.09063	88.508	-34.1955	-65.764
  72	1	4	0.230266	92.4572	-36.9808	-65.7685
  73	1	1	-0.247122	70.5036	-38.8402	-58.1622
  74	1	2	0.139112	70.8952	-38.5555	-56.8393
  75	1	2	0.02746	71.1701	-39.5757	-55.8931
  76	1	3	-0.077297	70.8527	-41.0385	-56.2193
  77	1	2	-0.08585	71.7361	-39.2249	-54.6403
  78	1	2	-0.195578	71.9345	-37.8711	-54.3119
  79	1	4	0.171692	72.3604	-37.5983	-53.3478
  80	1	2	-0.199822	71.614	-36.8623	-55.2283
  81	1	4	0.149498	71.7928	-35.8208	-54.9739
  82	1	2	0.076729	71.1206	-37.1995	-56.4956
  83	1	2	-0.057821	72.6507	-41.3579	-51.7807
  84	1	2	-0.076852	72.7229	-41.8137	-50.4576
  85	1	4	0.145382	72.0749	-41.3681	-49.7063
  86	1	2	-0.023498	73.6553	-42.8324	-50.1237
  87	1	4	0.166076	75.1041	-43.2027	-53.25
  88	1	2	-0.140684	74.4333	-42.8389	-52.4739
  89	1	2	-0.058922	73.4881	-41.8501	-52.7584
  90	1	3	-0.101954	73.7833	-43.2983	-48.6419
  91	1	2	-0.067123	74.5073	-43.326	-51.1537
  92	1	4	0.142141	75.2616	-44.0754	-50.9453
  93	1	3	0.321219	74.3829	-44.7492	-48.4893
  94	1	3	0.382784	74.7452	-42.2587	-47.9499
  95	1	5	-0.111948	73.7805	-45.6263	-49.324
  96	1	5	-0.11115	74.206	-45.2305	-47.2374
  97	1	5	-0.103632	75.7112	-44.8162	-48.733
  98	1	5	-0.110272	74.1614	-41.0438	-47.8385
  99	1	5	-0.120305	75.8776	-42.0669	-48.665
 100	1	5	-0.123663	75.1368	-42.6357	-46.7119
 101	1	6	0.452517	73.2218	-41.112	-54.02
 102	1	6	0.453374	71.8022	-40.2976	-52.3906
 103	1	7	0.018948	72.2052	-40.2102	-53.72
 104	1	8	-0.46698	73.8356	-41.2411	-55.0663
 105	1	8	-0.469385	70.9725	-39.6192	-51.8095
 106	1	3	-0.126657	70.8929	-36.0967	-57.5306
 107	1	2	0.020988	70.7909	-42.9791	-46.1866
 108	1	6	0.027902	70.2459	-42.5497	-44.8745
 109	1	8	-0.378193	70.878	-42.0456	-43.9604
 110	1	2	0.043573	69.7661	-43.5305	-46.9268
 111	1	6	0.038038	68.5164	-43.4652	-46.1282
 112	1	7	0.4913	68.8844	-42.8521	-44.9306
 113	1	8	-0.382817	67.4141	-43.8584	-46.4744
 114	1	2	0.0054	72.0921	-42.878	-46.6885
 115	1	2	-0.040988	69.9905	-44.0353	-48.2091
 116	1	2	-0.085341	72.3631	-43.3522	-48.0011
 117	1	4	0.154391	72.8489	-42.4366	-46.0499
 118	1	2	-0.205992	71.2974	-43.9494	-48.7326
 119	1	4	0.156637	69.1755	-44.4791	-48.7768
 120	1	4	0.178085	71.4805	-44.3497	-49.7278
 121	1	10	0.05178	70.0084	-41.1246	-56.9143
 122	1	10	0.015669	70.5721	-41.6036	-55.3221
 123	1	10	0.036134	71.7134	-41.54	-56.6773
 124	1	11	0.101096	69.9534	-35.5764	-57.3085
 125	1	1	-0.196269	70.8419	-36.6753	-58.8895
 126	1	11	0.131285	71.7083	-35.3688	-57.4539
 127	1	3	-0.292673	69.8275	-37.7505	-58.899
 128	1	3	-0.034798	71.5368	-39.4251	-59.0451
 129	1	12	0.194395	69.5891	-38.0498	-59.9288
 130	1	12	0.183693	68.9098	-37.4385	-58.383
 131	1	2	-0.144532	72.9729	-35.9492	-59.9131
 132	1	2	0.128587	72.0763	-36.9677	-59.4985
 133	1	2	0.222203	74.2679	-36.3093	-60.3628
 134	1	2	0.041795	72.4612	-38.3292	-59.5831
 135	1	2	-0.461017	74.619	-37.6727	-60.4737
 136	1	2	-0.140506	73.7181	-38.6775	-60.0958
 137	1	4	0.148448	74.0094	-39.7247	-60.1516
 138	1	10	0.055442	71.4774	-34.3408	-59.9001
 139	1	10	0.090839	72.9297	-33.9897	-58.9463
 140	1	3	-0.16304	72.5662	-34.4706	-59.8637
 141	1	10	0.039719	72.9686	-33.9115	-60.7177
 142	1	11	0.077452	71.0609	-39.9445	-59.8859
 143	1	11	0.09063	72.1406	-40.158	-58.4972
 144	1	4	0.230266	75.6097	-37.9514	-60.8283
 145	1	1	-0.247122	65.0876	-40.4032	-40.2716
 146	1	2	0.139112	65.9856	-40.0096	-39.2687
 147	1	2	0.02746	65.766	-40.2998	-37.8993
 148	1	3	-0.077297	64.4818	-41.0023	-37.4488
 149	1	2	-0.08585	66.7468	-39.921	-36.9505
 150	1	2	-0.195578	67.9044	-39.2368	-37.3642
 151	1	4	0.171692	68.654	-38.9412	-36.6323
 152	1	2	-0.199822	68.1091	-38.9387	-38.7181
 153	1	4	0.149498	69.0111	-38.4185	-39.0297
 154	1	2	0.076729	67.1601	-39.3299	-39.6728
 155	1	2	-0.057821	66.5553	-40.0867	-33.2852
 156	1	2	-0.076852	66.546	-39.6425	-31.9571
 157	1	4	0.145382	66.4247	-38.5816	-31.7502
 158	1	2	-0.023498	66.7242	-40.5832	-30.9093
 159	1	4	0.166076	67.0707	-43.424	-32.8671
 160	1	2	-0.140684	66.9079	-42.3802	-32.6038
 161	1	2	-0.058922	66.7297	-41.4175	-33.6009
 162	1	3	-0.101954	66.7811	-40.064	-29.4409
 163	1	2	-0.067123	66.9084	-41.9529	-31.26
 164	1	4	0.142141	67.0749	-42.7103	-30.5029
 165	1	3	0.321219	66.635	-41.2021	-28.3591
 166	1	3	0.382784	68.1909	-39.3729	-29.2775
 167	1	5	-0.111948	65.5544	-41.9805	-28.5957
 168	1	5	-0.11115	66.4628	-40.6952	-27.1167
 169	1	5	-0.103632	67.7132	-42.0157	-28.2935
 170	1	5	-0.110272	68.2568	-38.2026	-29.9515
 171	1	5	-0.120305	69.1842	-40.1503	-29.7666
 172	1	5	-0.123663	68.5164	-39.1048	-27.9931
 173	1	6	0.452517	66.7629	-41.5477	-35.082
 174	1	6	0.453374	66.4744	-39.3167	-34.5553
 175	1	7	0.018948	66.6267	-40.254	-35.5709
 176	1	8	-0.46698	66.9329	-42.5783	-35.7115
 177	1	8	-0.469385	66.364	-38.1069	-34.6574
 178	1	3	-0.126657	67.4081	-39.0337	-41.1563
 179	1	2	0.020988	64.5368	-37.177	-28.1498
 180	1	6	0.027902	64.3531	-35.9936	-27.2732
 181	1	8	-0.378193	65.2211	-35.4292	-26.6275
 182	1	2	0.043573	63.3093	-37.5223	-28.6776
 183	1	6	0.038038	62.2848	-36.5816	-28.1565
 184	1	7	0.4913	62.9867	-35.718	-27.3169
 185	1	8	-0.382817	61.0844	-36.6244	-28.3722
 186	1	2	0.0054	65.6849	-37.9401	-28.3891
 187	1	2	-0.040988	63.1628	-38.6489	-29.489
 188	1	2	-0.085341	65.5831	-39.097	-29.208
 189	1	4	0.154391	66.6081	-37.6422	-27.9043
 190	1	2	-0.205992	64.3072	-39.4327	-29.7436
 191	1	4	0.156637	62.1848	-38.9238	-29.8782
 192	1	4	0.178085	64.1879	-40.3337	-30.3416
 193	1	10	0.05178	63.642	-40.7907	-38.122
 194	1	10	0.015669	64.1644	-40.6764	-36.4509
 195	1	10	0.036134	64.6214	-42.0898	-37.4195
 196	1	11	0.101096	67.3601	-37.9508	-41.3212
 197	1	1	-0.196269	66.4149	-39.7136	-42.019
 198	1	11	0.131285	68.4205	-39.3678	-41.4174
 199	1	3	-0.292673	65.0575	-39.54	-41.469
 200	1	3	-0.034798	65.1031	-41.8307	-40.6695
 201	1	12	0.194395	64.3004	-39.8791	-42.1891
 202	1	12	0.183693	64.8714	-38.4927	-41.1952
 203	1	2	-0.144532	67.6501	-41.2354	-43.5126
 204	1	2	0.128587	66.729	-41.0058	-42.4611
 205	1	2	0.222203	67.9599	-42.5707	-43.8794
 206	1	2	0.041795	66.104	-42.0908	-41.8021
 207	1	2	-0.461017	67.3259	-43.6432	-43.2122
 208	1	2	-0.140506	66.4019	-43.4064	-42.1834
 209	1	4	0.148448	65.9165	-44.2394	-41.6786
 210	1	10	0.055442	68.4471	-40.2658	-45.3194
 211	1	10	0.090839	67.6483	-39.1559	-44.2251
 212	1	3	-0.16304	68.2828	-40.0505	-44.2567
 213	1	10	0.039719	69.2506	-39.7835	-43.8138
 214	1	11	0.077452	64.1012	-42.1291	-41.0016
 215	1	11	0.09063	65.3715	-42.4593	-39.811
 216	1	4	0.230266	67.5425	-44.668	-43.5099
 217	1	1	-0.247122	61.1544	-30.4728	-24.0032
 218	1	2	0.139112	62.3773	-30.0468	-23.4563
 219	1	2	0.02746	62.5159	-29.6763	-22.0939
 220	1	3	-0.077297	61.3006	-29.7372	-21.1616
 221	1	2	-0.08585	63.787	-29.2572	-21.6221
 222	1	2	-0.195578	64.888	-29.2164	-22.4966
 223	1	4	0.171692	65.8636	-28.901	-22.1312
 224	1	2	-0.199822	64.7458	-29.5861	-23.8391
 225	1	4	0.149498	65.6043	-29.5565	-24.5049
 226	1	2	0.076729	63.498	-30.0011	-24.3217
 227	1	2	-0.057821	64.174	-27.5661	-18.3851
 228	1	2	-0.076852	64.1052	-26.5493	-17.4264
 229	1	4	0.145382	63.5247	-25.6547	-17.6405
 230	1	2	-0.023498	64.7954	-26.7071	-16.1962
 231	1	4	0.166076	66.2012	-29.812	-16.8277
 232	1	2	-0.140684	65.6119	-28.9091	-16.9785
 233	1	2	-0.058922	64.8994	-28.7174	-18.166
 234	1	3	-0.101954	64.7091	-25.5631	-15.143
 235	1	2	-0.067123	65.5581	-27.895	-15.9999
 236	1	4	0.142141	66.1271	-28.0534	-15.0909
 237	1	3	0.321219	65.1752	-25.9898	-13.6987
 238	1	3	0.382784	65.6461	-24.4072	-15.6694
 239	1	5	-0.111948	64.568	-27.1274	-13.2909
 240	1	5	-0.11115	64.8657	-25.0503	-12.776
 241	1	5	-0.103632	66.5094	-26.1917	-13.6081
 242	1	5	-0.110272	65.1343	-23.8048	-16.7665
 243	1	5	-0.120305	66.8612	-24.8794	-16.0302
 244	1	5	-0.123663	65.8691	-23.4364	-14.7552
 245	1	6	0.452517	64.7984	-29.5705	-19.3799
 246	1	6	0.453374	63.5911	-27.6367	-19.7509
 247	1	7	0.018948	64.0132	-28.8533	-20.2751
 248	1	8	-0.46698	65.348	-30.6451	-19.5519
 249	1	8	-0.469385	62.9219	-26.7744	-20.2942
 250	1	3	-0.126657	63.361	-30.419	-25.7888
 251	1	2	0.020988	61.4389	-23.5131	-14.7562
 252	1	6	0.027902	60.7587	-22.2132	-14.544
 253	1	8	-0.378193	61.3072	-21.129	-14.428
 254	1	2	0.043573	60.4857	-24.51	-14.7467
 255	1	6	0.038038	59.1515	-23.8927	-14.5427
 256	1	7	0.4913	59.4022	-22.5258	-14.424
 257	1	8	-0.382817	58.0912	-24.4852	-14.4238
 258	1	2	0.0054	62.8034	-23.7938	-14.881
 259	1	2	-0.040988	60.8459	-25.8544	-14.8442
 260	1	2	-0.085341	63.2145	-25.1466	-15.0149
 261	1	4	0.154391	63.5026	-22.965	-14.8541
 262	1	2	-0.205992	62.2158	-26.1611	-14.9727
 263	1	4	0.156637	60.087	-26.6324	-14.8011
 264	1	4	0.178085	62.5024	-27.2087	-15.0296
 265	1	10	0.05178	60.4029	-29.3483	-21.6584
 266	1	10	0.015669	61.4239	-29.1523	-20.245
 267	1	10	0.036134	61.0943	-30.7701	-20.8576
 268	1	11	0.101096	63.4926	-29.538	-26.4281
 269	1	1	-0.196269	62.0404	-31.0313	-26.052
 270	1	11	0.131285	64.1608	-31.1308	-26.0274
 271	1	3	-0.292673	60.9772	-30.206	-25.4452
 272	1	3	-0.034798	60.6968	-31.8474	-23.6941
 273	1	12	0.194395	59.986	-30.527	-25.7939
 274	1	12	0.183693	61.1236	-29.1407	-25.669
 275	1	2	-0.144532	62.4896	-33.3541	-26.7664
 276	1	2	0.128587	61.9215	-32.4169	-25.8661
 277	1	2	0.222203	62.3649	-34.7381	-26.4885
 278	1	2	0.041795	61.2435	-32.8615	-24.7051
 279	1	2	-0.461017	61.6544	-35.1645	-25.3447
 280	1	2	-0.140506	61.0977	-34.2332	-24.4574
 281	1	4	0.148448	60.5707	-34.5708	-23.5672
 282	1	10	0.055442	62.9496	-31.8794	-28.3328
 283	1	10	0.090839	64.3226	-32.8908	-27.8549
 284	1	3	-0.16304	63.2376	-32.8917	-28.0238
 285	1	10	0.039719	63.0314	-33.5422	-28.8828
 286	1	11	0.077452	59.6005	-31.8815	-23.7065
 287	1	11	0.09063	61.0298	-32.1424	-22.6922
 288	1	4	0.230266	61.5493	-36.2283	-25.1382
 289	1	1	-0.247122	56.3352	-17.1706	-12.95
 290	1	2	0.139112	57.5915	-16.673	-12.5387
 291	1	2	0.02746	57.8504	-16.2632	-11.205
 292	1	3	-0.077297	56.7301	-16.1644	-10.1653
 293	1	2	-0.08585	59.1806	-15.9735	-10.8177
 294	1	2	-0.195578	60.2246	-16.0119	-11.7562
 295	1	4	0.171692	61.2469	-15.8016	-11.448
 296	1	2	-0.199822	59.9644	-16.3771	-13.0817
 297	1	4	0.149498	60.7817	-16.449	-13.7945
 298	1	2	0.076729	58.6641	-16.7334	-13.4664
 299	1	2	-0.057821	59.9852	-14.8306	-7.41921
 300	1	2	-0.076852	60.1859	-13.9633	-6.33748
 301	1	4	0.145382	60.1053	-12.8953	-6.51239
 302	1	2	-0.023498	60.4564	-14.5171	-5.05699
 303	1	4	0.166076	60.4225	-17.869	-5.94252
 304	1	2	-0.140684	60.3617	-16.7868	-6.04271
 305	1	2	-0.058922	60.0592	-16.2007	-7.27293
 306	1	3	-0.101954	60.6089	-13.6568	-3.7682
 307	1	2	-0.067123	60.564	-15.9328	-4.94279
 308	1	4	0.142141	60.7804	-16.3844	-3.97791
 309	1	3	0.321219	62.1478	-13.6345	-3.4247
 310	1	3	0.382784	60.0915	-12.1752	-3.92513
 311	1	5	-0.111948	62.5961	-14.8466	-3.02682
 312	1	5	-0.11115	62.4669	-12.7568	-2.44703
 313	1	5	-0.103632	62.8897	-13.2957	-4.50357
 314	1	5	-0.110272	58.8377	-12.1307	-4.4302
 315	1	5	-0.120305	60.8734	-11.4209	-4.72985
 316	1	5	-0.123663	60.0328	-11.539	-2.73308
 317	1	6	0.452517	59.7559	-16.8294	-8.5822
 318	1	6	0.453374	59.6397	-14.5356	-8.83692
 319	1	7	0.018948	59.5165	-15.7743	-9.45183
 320	1	8	-0.46698	59.6995	-18.0256	-8.81264
 321	1	8	-0.469385	59.4769	-13.4325	-9.3285
 322	1	3	-0.126657	58.4324	-17.3005	-14.8668
 323	1	2	0.020988	57.632	-15.4019	-2.07664
 324	1	6	0.027902	56.2742	-15.9773	-2.21209
 325	1	8	-0.378193	55.594	-15.9916	-3.22495
 326	1	2	0.043573	58.063	-15.5842	-0.779816
 327	1	6	0.038038	56.9909	-16.2821	-0.0218173
 328	1	7	0.4913	55.9672	-16.4799	-0.948794
 329	1	8	-0.382817	57.0218	-16.5991	1.15603
 330	1	2	0.0054	58.4243	-14.7668	-3.03375
 331	1	2	-0.040988	59.32	-15.1318	-0.368998
 332	1	2	-0.085341	59.7227	-14.3211	-2.67354
 333	1	4	0.154391	58.0345	-14.644	-4.04144
 334	1	2	-0.205992	60.1452	-14.4981	-1.3246
 335	1	4	0.156637	59.6449	-15.2717	0.659846
 336	1	4	0.178085	61.118	-14.1494	-0.992358
 337	1	10	0.05178	56.7373	-17.035	-9.49774
 338	1	10	0.015669	55.7369	-16.0994	-10.6252
 339	1	10	0.036134	56.8404	-15.2658	-9.54597
 340	1	11	0.101096	58.3351	-16.4768	-15.5843
 341	1	1	-0.196269	57.2088	-18.1285	-14.8653
 342	1	11	0.131285	59.3044	-17.8977	-15.1554
 343	1	3	-0.292673	56.099	-17.2631	-14.409
 344	1	3	-0.034798	55.9102	-18.4555	-12.3583
 345	1	12	0.194395	55.1291	-17.7272	-14.6328
 346	1	12	0.183693	56.1471	-16.2695	-14.8744
 347	1	2	-0.144532	58.1382	-20.4219	-14.8096
 348	1	2	0.128587	57.3186	-19.4006	-14.2642
 349	1	2	0.222203	58.4139	-21.5749	-14.0303
 350	1	2	0.041795	56.7069	-19.5897	-12.9986
 351	1	2	-0.461017	57.7685	-21.753	-12.7871
 352	1	2	-0.140506	56.9033	-20.7763	-12.2823
 353	1	4	0.148448	56.4384	-20.9069	-11.3072
 354	1	10	0.055442	58.758	-21.2498	-16.7415
 355	1	10	0.090839	58.1215	-19.6178	-16.8494
 356	1	3	-0.16304	58.7252	-20.2847	-16.2207
 357	1	10	0.039719	59.7453	-19.8831	-16.1956
 358	1	11	0.077452	54.8396	-18.6182	-12.5339
 359	1	11	0.09063	56.0772	-18.4664	-11.2759
 360	1	4	0.230266	57.9631	-22.6487	-12.1986
 361	1	1	-0.247122	50.4351	-19.7951	-0.873202
 362	1	2	0.139112	49.988	-19.499	-2.17206
 363	1	2	0.02746	48.6912	-18.9881	-2.43014
 364	1	3	-0.077297	47.6693	-18.828	-1.30091
 365	1	2	-0.08585	48.3495	-18.6058	-3.74972
 366	1	2	-0.195578	49.2628	-18.7978	-4.80203
 367	1	4	0.171692	48.9984	-18.5015	-5.81535
 368	1	2	-0.199822	50.5373	-19.323	-4.54701
 369	1	4	0.149498	51.2504	-19.4364	-5.35947
 370	1	2	0.076729	50.9131	-19.6461	-3.23478
 371	1	2	-0.057821	45.1094	-17.2544	-4.86749
 372	1	2	-0.076852	43.8869	-17.1585	-5.54848
 373	1	4	0.145382	43.4819	-18.0386	-6.04279
 374	1	2	-0.023498	43.2286	-15.9009	-5.62125
 375	1	4	0.166076	45.514	-14.0522	-3.78626
 376	1	2	-0.140684	45.0476	-14.9107	-4.26596
 377	1	2	-0.058922	45.6684	-16.1607	-4.24065
 378	1	3	-0.101954	41.9313	-15.7771	-6.4766
 379	1	2	-0.067123	43.8333	-14.7875	-4.96761
 380	1	4	0.142141	43.3925	-13.7985	-5.00662
 381	1	3	0.321219	41.1767	-14.4014	-6.29718
 382	1	3	0.382784	42.383	-15.912	-7.98553
 383	1	5	-0.111948	39.9643	-14.4099	-6.89695
 384	1	5	-0.11115	41.8552	-13.3527	-6.81583
 385	1	5	-0.103632	40.9368	-14.1214	-4.99567
 386	1	5	-0.110272	43.4485	-15.1231	-8.25504
 387	1	5	-0.120305	41.4225	-15.5671	-8.87282
 388	1	5	-0.123663	42.7599	-17.1733	-8.29399
 389	1	6	0.452517	46.9789	-16.5614	-3.67132
 390	1	6	0.453374	46.0587	-18.3966	-4.73048
 391	1	7	0.018948	47.1455	-17.8946	-4.02173
 392	1	8	-0.46698	47.7561	-15.8359	-3.07375
 393	1	8	-0.469385	45.9246	-19.5094	-5.20959
 394	1	3	-0.126657	52.3479	-20.1027	-2.94767
 395	1	2	0.020988	39.7225	-17.9581	-4.20301
 396	1	6	0.027902	39.2299	-18.258	-2.83351
 397	1	8	-0.378193	39.6732	-17.8046	-1.79104
 398	1	2	0.043573	38.9301	-18.6347	-5.10718
 399	1	6	0.038038	37.9008	-19.3997	-4.36149
 400	1	7	0.4913	38.1385	-19.1085	-3.01885
 401	1	8	-0.382817	37.0024	-20.0688	-4.84645
 402	1	2	0.0054	40.7275	-17.0793	-4.62378
 403	1	2	-0.040988	39.102	-18.4763	-6.48293
 404	1	2	-0.085341	40.9284	-16.8732	-6.01465
 405	1	4	0.154391	41.297	-16.5298	-3.87831
 406	1	2	-0.205992	40.1027	-17.5886	-6.92897
 407	1	4	0.156637	38.4473	-18.9942	-7.1806
 408	1	4	0.178085	40.1895	-17.4414	-8.00024
 409	1	10	0.05178	46.6502	-19.0382	-1.64725
 410	1	10	0.015669	47.6847	-17.8075	-0.898998
 411	1	10	0.036134	47.8595	-19.5192	-0.471124
 412	1	11	0.101096	52.491	-21.1164	-3.34044
 413	1	1	-0.196269	52.6324	-20.0821	-1.49457
 414	1	11	0.131285	53.0406	-19.4356	-3.47577
 415	1	3	-0.292673	51.5418	-20.7688	-0.775669
 416	1	3	-0.034798	50.7084	-18.6483	0.0221222
 417	1	12	0.194395	51.8204	-20.954	0.270692
 418	1	12	0.183693	51.2771	-21.716	-1.26428
 419	1	2	-0.144532	54.3718	-18.3597	-1.15937
 420	1	2	0.128587	53.0674	-18.8679	-0.936744
 421	1	2	0.222203	54.7128	-17.0835	-0.643526
 422	1	2	0.041795	52.1325	-18.1215	-0.178412
 423	1	2	-0.461017	53.7753	-16.3627	0.127638
 424	1	2	-0.140506	52.4945	-16.8807	0.364237
 425	1	4	0.148448	51.7706	-16.3108	0.943436
 426	1	10	0.055442	56.4174	-19.0548	-1.54242
 427	1	10	0.090839	55.1925	-20.2502	-1.92113
 428	1	3	-0.16304	55.4054	-19.1741	-1.94879
 429	1	10	0.039719	55.4265	-18.8663	-3.0018
 430	1	11	0.077452	50.5803	-18.9557	1.06708
 431	1	11	0.09063	50.0018	-17.8329	-0.175803
 432	1	4	0.230266	54.0397	-15.3864	0.530574
 433	1	1	-0.247122	34.312	-22.2581	1.17277
 434	1	2	0.139112	33.3781	-22.9344	0.372523
 435	1	2	0.02746	31.9926	-22.9758	0.676423
 436	1	3	-0.077297	31.4257	-22.29	1.92375
 437	1	2	-0.08585	31.1186	-23.6863	-0.183176
 438	1	2	-0.195578	31.6222	-24.3359	-1.32471
 439	1	4	0.171692	30.9484	-24.8758	-1.98744
 440	1	2	-0.199822	32.9915	-24.2909	-1.62163
 441	1	4	0.149498	33.3722	-24.7938	-2.50682
 442	1	2	0.076729	33.8707	-23.5932	-0.780543
 443	1	2	-0.057821	27.4495	-23.4366	-0.0889984
 444	1	2	-0.076852	26.1548	-23.0591	-0.468971
 445	1	4	0.145382	26.0234	-22.3661	-1.29679
 446	1	2	-0.023498	25.0405	-23.6162	0.211146
 447	1	4	0.166076	26.7912	-25.6307	2.42706
 448	1	2	-0.140684	26.6064	-24.9086	1.63328
 449	1	2	-0.058922	27.6718	-24.3389	0.929673
 450	1	3	-0.101954	23.604	-23.2649	-0.284514
 451	1	2	-0.067123	25.2943	-24.5447	1.26371
 452	1	4	0.142141	24.4818	-25.0202	1.80083
 453	1	3	0.321219	23.3714	-24.1353	-1.5793
 454	1	3	0.382784	22.4738	-23.5952	0.766537
 455	1	5	-0.111948	22.091	-24.1147	-2.01331
 456	1	5	-0.11115	23.6844	-25.4347	-1.37087
 457	1	5	-0.103632	24.1479	-23.7234	-2.60688
 458	1	5	-0.110272	21.2876	-23.0506	0.410724
 459	1	5	-0.120305	22.7643	-23.0967	1.98988
 460	1	5	-0.123663	22.2529	-24.9204	0.921487
 461	1	6	0.452517	29.1394	-24.561	1.04727
 462	1	6	0.453374	28.768	-23.0454	-0.655017
 463	1	7	0.018948	29.7169	-23.7559	0.0714409
 464	1	8	-0.46698	29.6946	-25.3143	1.829
 465	1	8	-0.469385	28.9533	-22.2671	-1.57477
 466	1	3	-0.126657	35.3659	-23.5428	-1.1208
 467	1	2	0.020988	22.8109	-19.7754	-1.81379
 468	1	6	0.027902	22.2303	-18.9412	-2.9006
 469	1	8	-0.378193	21.7176	-19.3521	-3.92874
 470	1	2	0.043573	23.318	-18.9342	-0.845708
 471	1	6	0.038038	23.0781	-17.5294	-1.26318
 472	1	7	0.4913	22.4284	-17.6187	-2.49529
 473	1	8	-0.382817	23.4024	-16.528	-0.645403
 474	1	2	0.0054	22.8871	-21.1689	-1.69068
 475	1	2	-0.040988	23.9398	-19.4383	0.298896
 476	1	2	-0.085341	23.5185	-21.729	-0.544441
 477	1	4	0.154391	22.4516	-21.774	-2.47823
 478	1	2	-0.205992	24.0341	-20.8388	0.438926
 479	1	4	0.156637	24.3317	-18.7618	1.05542
 480	1	4	0.178085	24.5069	-21.2358	1.33493
 481	1	10	0.05178	32.1575	-21.6668	2.44777
 482	1	10	0.015669	31.0699	-23.0333	2.64731
 483	1	10	0.036134	30.5802	-21.6406	1.66537
 484	1	11	0.101096	35.7846	-24.5539	-1.05209
 485	1	1	-0.196269	36.108	-22.6379	-0.212301
 486	1	11	0.131285	35.4777	-23.2037	-2.15829
 487	1	3	-0.292673	35.6699	-22.8381	1.18188
 488	1	3	-0.034798	34.3864	-20.7818	1.0499
 489	1	12	0.194395	36.3287	-22.3021	1.87879
 490	1	12	0.183693	35.6422	-23.9053	1.44019
 491	1	2	-0.144532	37.1985	-20.9089	-1.59653
 492	1	2	0.128587	36.2622	-21.3022	-0.607676
 493	1	2	0.222203	37.2765	-19.5426	-1.9676
 494	1	2	0.041795	35.4226	-20.3437	0.00752132
 495	1	2	-0.461017	36.4484	-18.5945	-1.32559
 496	1	2	-0.140506	35.5282	-18.9908	-0.344024
 497	1	4	0.148448	34.8861	-18.2547	0.135588
 498	1	10	0.055442	38.2882	-22.8173	-1.61687
 499	1	10	0.090839	37.6928	-22.3007	-3.2027
 500	1	3	-0.16304	38.1202	-21.9425	-2.25692
 501	1	10	0.039719	39.1131	-21.5283	-2.47175
 502	1	11	0.077452	34.6507	-20.3473	2.02157
 503	1	11	0.09063	33.4078	-20.3797	0.75943
 504	1	4	0.230266	36.5169	-17.5429	-1.59964
 505	1	1	-0.247122	19.5916	-12.5617	-5.51959
 506	1	2	0.139112	18.9298	-12.8132	-6.72615
 507	1	2	0.02746	18.6801	-11.8031	-7.69185
 508	1	3	-0.077297	19.1931	-10.3749	-7.47975
 509	1	2	-0.08585	17.8619	-12.1064	-8.81225
 510	1	2	-0.195578	17.3756	-13.4169	-8.98635
 511	1	4	0.171692	16.7203	-13.6463	-9.82443
 512	1	2	-0.199822	17.6209	-14.4064	-8.02296
 513	1	4	0.149498	17.1736	-15.3909	-8.13178
 514	1	2	0.076729	18.3545	-14.0961	-6.86945
 515	1	2	-0.057821	15.7579	-9.5322	-10.3539
 516	1	2	-0.076852	14.6328	-8.71041	-10.4588
 517	1	4	0.145382	13.7521	-9.00502	-9.90142
 518	1	2	-0.023498	14.715	-7.49531	-11.19
 519	1	4	0.166076	18.0356	-7.7795	-12.1625
 520	1	2	-0.140684	17.0801	-8.04759	-11.7155
 521	1	2	-0.058922	16.9578	-9.2173	-10.9505
 522	1	3	-0.101954	13.5741	-6.42584	-11.1223
 523	1	2	-0.067123	15.9556	-7.19171	-11.8212
 524	1	4	0.142141	16.0674	-6.25075	-12.3545
 525	1	3	0.321219	12.169	-7.05849	-10.776
 526	1	3	0.382784	14.0072	-5.44004	-9.96799
 527	1	5	-0.111948	11.152	-6.18771	-10.9687
 528	1	5	-0.11115	12.0598	-7.46212	-9.49013
 529	1	5	-0.103632	11.9057	-8.12333	-11.5676
 530	1	5	-0.110272	14.4845	-6.10089	-8.88798
 531	1	5	-0.120305	13.0018	-4.66252	-9.50775
 532	1	5	-0.123663	14.9964	-4.61496	-10.3802
 533	1	6	0.452517	17.9696	-10.2305	-10.5084
 534	1	6	0.453374	15.9504	-10.738	-9.51477
 535	1	7	0.018948	17.294	-11.0746	-9.62625
 536	1	8	-0.46698	19.1512	-10.248	-10.8085
 537	1	8	-0.469385	15.0999	-11.2567	-8.81111
 538	1	3	-0.126657	18.4356	-15.1106	-5.71736
 539	1	2	0.020988	12.4747	-3.81842	-13.7696
 540	1	6	0.027902	11.7616	-2.54659	-14.0644
 541	1	8	-0.378193	11.412	-1.70908	-13.2494
 542	1	2	0.043573	12.6377	-4.51489	-14.9474
 543	1	6	0.038038	12.05	-3.71029	-16.0522
 544	1	7	0.4913	11.5299	-2.56774	-15.4393
 545	1	8	-0.382817	11.9754	-4.04058	-17.2245
 546	1	2	0.0054	12.836	-4.36997	-12.5365
 547	1	2	-0.040988	13.1717	-5.80831	-14.9519
 548	1	2	-0.085341	13.3694	-5.68949	-12.4851
 549	1	4	0.154391	12.6165	-3.79149	-11.6473
 550	1	2	-0.205992	13.5239	-6.39195	-13.7129
 551	1	4	0.156637	13.2527	-6.36273	-15.8845
 552	1	4	0.178085	13.8674	-7.42422	-13.7087
 553	1	10	0.05178	19.5986	-10.2085	-6.4755
 554	1	10	0.015669	18.395	-9.63566	-7.61918
 555	1	10	0.036134	19.9947	-10.1444	-8.19227
 556	1	11	0.101096	17.4193	-15.4314	-5.45903
 557	1	1	-0.196269	19.0922	-14.5642	-4.49951
 558	1	11	0.131285	18.9809	-15.9961	-6.06811
 559	1	3	-0.292673	18.8835	-13.1116	-4.34766
 560	1	3	-0.034798	21.0598	-12.8106	-5.45106
 561	1	12	0.194395	19.3269	-12.7477	-3.41043
 562	1	12	0.183693	17.814	-12.8623	-4.37648
 563	1	2	-0.144532	20.7038	-16.139	-3.50809
 564	1	2	0.128587	20.4022	-14.9684	-4.24735
 565	1	2	0.222203	22.0622	-16.4705	-3.26849
 566	1	2	0.041795	21.4242	-14.1164	-4.71955
 567	1	2	-0.461017	23.0782	-15.6192	-3.76352
 568	1	2	-0.140506	22.7647	-14.4511	-4.47912
 569	1	4	0.148448	23.5575	-13.794	-4.83096
 570	1	10	0.055442	19.8166	-17.3898	-1.93671
 571	1	10	0.090839	18.6346	-16.4504	-2.82502
 572	1	3	-0.16304	19.5741	-17.0059	-2.93525
 573	1	10	0.039719	19.3715	-17.8648	-3.58721
 574	1	11	0.077452	21.5398	-11.9715	-4.93289
 575	1	11	0.09063	21.4764	-12.8513	-6.46567
 576	1	4	0.230266	24.1218	-15.8517	-3.55831
 577	1	1	-0.247122	9.01687	1.74396	-19.6248
 578	1	2	0.139112	9.08966	3.11879	-19.3842
 579	1	2	0.02746	8.15746	4.04072	-19.9241
 580	1	3	-0.077297	6.97641	3.52968	-20.7529
 581	1	2	-0.08585	8.37305	5.43149	-19.7379
 582	1	2	-0.195578	9.47014	5.86658	-18.9681
 583	1	4	0.171692	9.63783	6.93122	-18.8147
 584	1	2	-0.199822	10.3814	4.94472	-18.4278
 585	1	4	0.149498	11.2408	5.2989	-17.8647
 586	1	2	0.076729	10.2117	3.57083	-18.6556
 587	1	2	-0.057821	6.77485	7.8432	-22.018
 588	1	2	-0.076852	6.5558	8.54324	-23.2113
 589	1	4	0.145382	6.97216	8.13397	-24.1251
 590	1	2	-0.023498	5.88853	9.79815	-23.1735
 591	1	4	0.166076	5.37498	9.95305	-19.7482
 592	1	2	-0.140684	5.6746	9.55474	-20.7157
 593	1	2	-0.058922	6.34956	8.33052	-20.8017
 594	1	3	-0.101954	5.7901	10.7041	-24.4403
 595	1	2	-0.067123	5.45988	10.2849	-21.9061
 596	1	4	0.142141	4.9949	11.2644	-21.8308
 597	1	3	0.321219	7.15188	11.4992	-24.4958
 598	1	3	0.382784	5.61874	9.87069	-25.7708
 599	1	5	-0.111948	8.2272	10.6926	-24.3481
 600	1	5	-0.11115	7.22748	12.4064	-23.4954
 601	1	5	-0.103632	7.33793	12.156	-25.6633
 602	1	5	-0.110272	5.21644	10.652	-26.8001
 603	1	5	-0.120305	4.68163	8.90577	-25.6317
 604	1	5	-0.123663	6.75179	9.26394	-26.1892
 605	1	6	0.452517	6.84632	7.41287	-19.7348
 606	1	6	0.453374	7.56305	6.60553	-21.7731
 607	1	7	0.018948	7.57525	6.42488	-20.3926
 608	1	8	-0.46698	6.70883	7.56891	-18.5336
 609	1	8	-0.469385	8.14511	5.9505	-22.6208
 610	1	3	-0.126657	11.2654	2.5621	-18.1637
 611	1	2	0.020988	3.40661	13.7528	-24.7967
 612	1	6	0.027902	3.19246	15.1402	-25.274
 613	1	8	-0.378193	4.05966	15.9132	-25.647
 614	1	2	0.043573	2.18214	13.1984	-24.4924
 615	1	6	0.038038	1.12514	14.2123	-24.7669
 616	1	7	0.4913	1.81077	15.3281	-25.2535
 617	1	8	-0.382817	-0.079646	14.0497	-24.6617
 618	1	2	0.0054	4.59031	13.0113	-24.7445
 619	1	2	-0.040988	2.08208	11.8607	-24.0959
 620	1	2	-0.085341	4.53976	11.6417	-24.3639
 621	1	4	0.154391	5.50308	13.5091	-25.0496
 622	1	2	-0.205992	3.26748	11.0915	-24.0369
 623	1	4	0.156637	1.10875	11.4229	-23.8844