pySIMM System Object

2450 atoms
2721 bonds
4896 angles
7544 dihedrals
680 impropers

12 atom types
15 bond types
28 angle types
9 dihedral types
4 improper types

-211.317978 211.317978 xlo xhi
-211.317978 211.317978 ylo yhi
-211.317978 211.317978 zlo zhi

Masses

   1	14.01	# nh
   2	12.01	# ca
   3	12.01	# c3
   4	1.008	# ha
   5	19.0	# f
   6	12.01	# c
   7	14.01	# n
   8	16.0	# o
   9	1.008	# hn
  10	1.008	# hc
  11	1.008	# h1
  12	1.008	# h2

Pair Coeffs

   1	0.17	3.249998523775958	# nh
   2	0.086	3.3996695084235347	# ca
   3	0.1094	3.3996695084235347	# c3
   4	0.015	2.59964245953351	# ha
   5	0.061	3.1181455134911875	# f
   6	0.086	3.3996695084235347	# c
   7	0.17	3.249998523775958	# n
   8	0.21	2.959921901149463	# o
   9	0.0157	1.069078461768407	# hn
  10	0.0157	2.649532787749369	# hc
  11	0.0157	2.471353044121301	# h1
  12	0.0157	2.2931733004932333	# h2

Bond Coeffs

   1	356.9	1.3497	# c3,f
   2	403.2	1.0129	# hn,n
   3	417.9	1.3859	# ca,nh
   4	300.9	1.5375	# c3,c3
   5	384.2	1.4121	# ca,n
   6	330.6	1.0969	# c3,h1
   7	461.1	1.3984	# ca,ca
   8	326.6	1.464	# c3,nh
   9	427.6	1.3789	# c,n
  10	331.7	1.0961	# c3,h2
  11	345.9	1.4906	# c,ca
  12	345.8	1.086	# ca,ha
  13	321.0	1.5156	# c3,ca
  14	330.6	1.0969	# c3,hc
  15	637.7	1.2183	# c,o

Angle Coeffs

   1	71.11	105.87	# nh,c3,nh
   2	63.25	114.51	# c3,nh,c3
   3	74.22	123.05	# n,c,o
   4	66.62	120.02	# ca,ca,ca
   5	68.29	120.95	# ca,ca,nh
   6	49.52	110.01	# h2,c3,nh
   7	68.72	122.6	# ca,c,o
   8	49.57	109.79	# h1,c3,nh
   9	67.68	115.25	# ca,c,n
  10	66.46	111.39	# ca,c3,nh
  11	48.33	117.55	# c,n,hn
  12	64.28	120.33	# c,ca,ca
  13	39.4	107.58	# hc,c3,hc
  14	63.53	120.77	# c3,ca,ca
  15	70.89	107.36	# f,c3,f
  16	67.87	120.19	# ca,ca,n
  17	46.8	110.47	# ca,c3,hc
  18	46.99	109.56	# ca,c3,h1
  19	62.86	111.51	# c3,c3,c3
  20	66.11	109.24	# c3,c3,f
  21	63.15	112.07	# c3,c3,ca
  22	38.96	110.2	# h2,c3,h2
  23	63.82	123.71	# c,n,ca
  24	39.24	108.46	# h1,c3,h1
  25	63.56	112.24	# ca,c3,ca
  26	63.39	119.98	# c3,nh,ca
  27	63.74	127.08	# c,n,c
  28	48.18	119.88	# ca,ca,ha

Dihedral Coeffs

   1	2	2.5	2	180	2.0	1	0	# hn,n,c,o
   2	1	0.0	2	0	# X,c3,nh,X
   3	1	3.625	2	180	# X,ca,ca,X
   4	1	0.0	2	0	# X,c3,ca,X
   5	1	1.0	2	180	# X,c,ca,X
   6	1	0.15555555555555556	3	0	# X,c3,c3,X
   7	1	2.5	2	180	# X,c,n,X
   8	1	0.45	2	180	# X,ca,n,X
   9	1	1.05	2	180	# X,ca,nh,X

Improper Coeffs

   1	10.5	-1	2	# c,X,X,o
   2	1.1	-1	2	# n,X,X,hn
   3	1.1	-1	2	# ca,ca,ca,c3
   4	1.1	-1	2	# ca,X,X,ha

Atoms

   1	1	1	-0.247122	-17.0574	-76.6339	-85.3064
   2	1	2	0.139112	-16.9017	-75.2807	-84.9711
   3	1	2	0.02746	-16.2432	-74.8667	-83.7871
   4	1	3	-0.077297	-15.7445	-75.9044	-82.7764
   5	1	2	-0.08585	-16.074	-73.4811	-83.5414
   6	1	2	-0.195578	-16.5805	-72.5365	-84.4534
   7	1	4	0.171692	-16.4619	-71.4722	-84.2588
   8	1	2	-0.199822	-17.2482	-72.9518	-85.6132
   9	1	4	0.149498	-17.6374	-72.214	-86.3099
  10	1	2	0.076729	-17.4072	-74.3189	-85.8785
  11	1	2	-0.057821	-14.9241	-71.8704	-80.4426
  12	1	2	-0.076852	-14.9636	-71.0551	-79.3044
  13	1	4	0.145382	-15.9073	-70.5916	-79.0373
  14	1	2	-0.023498	-13.7666	-70.837	-78.5711
  15	1	4	0.166076	-11.6307	-72.7206	-80.5484
  16	1	2	-0.140684	-12.5529	-72.2699	-80.1872
  17	1	2	-0.058922	-13.7547	-72.4585	-80.8761
  18	1	3	-0.101954	-13.6956	-69.8748	-77.3491
  19	1	2	-0.067123	-12.5713	-71.4536	-79.0378
  20	1	4	0.142141	-11.6338	-71.2787	-78.5164
  21	1	3	0.321219	-13.174	-68.4994	-77.9164
  22	1	3	0.382784	-15.0895	-69.6488	-76.6437
  23	1	5	-0.111948	-11.885	-68.5825	-78.3174
  24	1	5	-0.11115	-13.2523	-67.4899	-77.0204
  25	1	5	-0.103632	-13.8778	-68.1047	-79.0021
  26	1	5	-0.110272	-15.7253	-70.818	-76.403
  27	1	5	-0.120305	-15.9387	-68.8767	-77.3583
  28	1	5	-0.123663	-14.9446	-69.0428	-75.4429
  29	1	6	0.452517	-14.041	-73.1958	-82.1364
  30	1	6	0.453374	-16.0013	-72.216	-81.4073
  31	1	7	0.018948	-15.3953	-72.9982	-82.3843
  32	1	8	-0.46698	-13.2297	-73.8052	-82.8131
  33	1	8	-0.469385	-17.1611	-71.8435	-81.3522
  34	1	3	-0.126657	-18.1204	-74.7671	-87.1589
  35	1	2	0.020988	-11.0207	-70.3799	-74.5748
  36	1	6	0.027902	-9.94382	-69.8348	-73.7086
  37	1	8	-0.378193	-9.4846	-68.7051	-73.7556
  38	1	2	0.043573	-11.2184	-71.7037	-74.2428
  39	1	6	0.038038	-10.2885	-72.0612	-73.142
  40	1	7	0.4913	-9.57284	-70.8929	-72.8753
  41	1	8	-0.382817	-10.1855	-73.1553	-72.6112
  42	1	2	0.0054	-11.7746	-69.749	-75.571
  43	1	2	-0.040988	-12.1748	-72.4801	-74.9006
  44	1	2	-0.085341	-12.7608	-70.4996	-76.2688
  45	1	4	0.154391	-11.5836	-68.6994	-75.7655
  46	1	2	-0.205992	-12.9407	-71.8663	-75.9138
  47	1	4	0.156637	-12.3232	-73.5218	-74.6242
  48	1	4	0.178085	-13.6975	-72.4627	-76.4198
  49	1	10	0.05178	-16.3427	-76.8233	-82.8035
  50	1	10	0.015669	-15.7993	-75.5347	-81.7456
  51	1	10	0.036134	-14.7027	-76.179	-82.982
  52	1	11	0.101096	-19.1831	-74.5061	-87.0902
  53	1	1	-0.196269	-17.9787	-76.2247	-87.3761
  54	1	11	0.131285	-17.6928	-74.2192	-88.0073
  55	1	3	-0.292673	-18.2473	-76.9525	-86.121
  56	1	3	-0.034798	-15.8665	-77.3375	-85.8402
  57	1	12	0.194395	-18.3266	-78.0324	-86.3069
  58	1	12	0.183693	-19.1632	-76.586	-85.638
  59	1	2	-0.144532	-16.772	-76.5254	-89.4995
  60	1	2	0.128587	-16.8556	-76.6561	-88.0944
  61	1	2	0.222203	-15.6021	-76.9462	-90.1576
  62	1	2	0.041795	-15.7742	-77.2085	-87.3653
  63	1	2	-0.461017	-14.5301	-77.4913	-89.4341
  64	1	2	-0.140506	-14.6135	-77.6251	-88.0382
  65	1	4	0.148448	-13.7809	-78.0438	-87.4763
  66	1	10	0.055442	-17.8509	-76.2415	-91.378
  67	1	10	0.090839	-18.8953	-76.3224	-89.9564
  68	1	3	-0.16304	-17.9273	-75.956	-90.3212
  69	1	10	0.039719	-17.9409	-74.8605	-90.2752
  70	1	11	0.077452	-15.9169	-78.4002	-85.5733
  71	1	11	0.09063	-14.9523	-76.9241	-85.3958
  72	1	4	0.230266	-13.6357	-77.8058	-89.9651
  73	1	1	-0.247122	-5.40198	-69.5481	-68.0806
  74	1	2	0.139112	-4.82481	-68.3337	-68.4787
  75	1	2	0.02746	-3.42614	-68.1155	-68.4381
  76	1	3	-0.077297	-2.49322	-69.1806	-67.852
  77	1	2	-0.08585	-2.90229	-66.8992	-68.9416
  78	1	2	-0.195578	-3.77102	-65.9045	-69.4272
  79	1	4	0.171692	-3.36842	-64.9674	-69.8074
  80	1	2	-0.199822	-5.15759	-66.1169	-69.4424
  81	1	4	0.149498	-5.82056	-65.3488	-69.8323
  82	1	2	0.076729	-5.68763	-67.3325	-68.9848
  83	1	2	-0.057821	0.621196	-65.8453	-68.7267
  84	1	2	-0.076852	1.75772	-65.1248	-68.3332
  85	1	4	0.145382	1.65788	-64.3262	-67.6012
  86	1	2	-0.023498	3.01817	-65.4513	-68.9014
  87	1	4	0.166076	1.95353	-67.9934	-71.0058
  88	1	2	-0.140684	1.91116	-67.2027	-70.2586
  89	1	2	-0.058922	0.696829	-66.8538	-69.6639
  90	1	3	-0.101954	4.27267	-64.6179	-68.4944
  91	1	2	-0.067123	3.06604	-66.4938	-69.8732
  92	1	4	0.142141	3.99418	-66.7704	-70.3587
  93	1	3	0.321219	5.63753	-65.3107	-68.8736
  94	1	3	0.382784	4.14825	-63.249	-69.2689
  95	1	5	-0.111948	5.68223	-66.5893	-68.4342
  96	1	5	-0.11115	6.69567	-64.6853	-68.3087
  97	1	5	-0.103632	5.87663	-65.3275	-70.2045
  98	1	5	-0.110272	3.17498	-62.4702	-68.745
  99	1	5	-0.120305	3.82789	-63.4403	-70.5693
 100	1	5	-0.123663	5.28513	-62.5177	-69.2657
 101	1	6	0.452517	-0.667186	-67.4011	-69.8792
 102	1	6	0.453374	-0.80103	-65.7169	-68.3035
 103	1	7	0.018948	-1.49664	-66.6787	-69.0296
 104	1	8	-0.46698	-0.969649	-68.2972	-70.6494
 105	1	8	-0.469385	-1.24123	-64.9241	-67.4888
 106	1	3	-0.126657	-7.19916	-67.5855	-69.0569
 107	1	2	0.020988	4.92669	-63.2441	-64.9285
 108	1	6	0.027902	5.5231	-62.206	-64.0514
 109	1	8	-0.378193	6.04086	-61.1637	-64.4185
 110	1	2	0.043573	4.50764	-64.2946	-64.1392
 111	1	6	0.038038	4.80515	-63.9707	-62.7206
 112	1	7	0.4913	5.41628	-62.7172	-62.7568
 113	1	8	-0.382817	4.60635	-64.6919	-61.7563
 114	1	2	0.0054	4.83702	-63.2876	-66.3237
 115	1	2	-0.040988	3.98275	-65.4583	-64.7052
 116	1	2	-0.085341	4.30153	-64.4481	-66.9454
 117	1	4	0.154391	5.2228	-62.4447	-66.886
 118	1	2	-0.205992	3.8959	-65.529	-66.1116
 119	1	4	0.156637	3.68665	-66.2924	-64.0726
 120	1	4	0.178085	3.532	-66.4531	-66.5553
 121	1	10	0.05178	-2.99361	-69.7866	-67.0869
 122	1	10	0.015669	-1.61735	-68.7353	-67.3648
 123	1	10	0.036134	-2.13499	-69.8607	-68.6344
 124	1	11	0.101096	-7.70615	-66.9401	-68.3296
 125	1	1	-0.196269	-7.52652	-69.0032	-68.7766
 126	1	11	0.131285	-7.55669	-67.3101	-70.057
 127	1	3	-0.292673	-6.78994	-69.4639	-67.5843
 128	1	3	-0.034798	-5.2624	-70.6907	-69.0131
 129	1	12	0.194395	-7.15754	-70.4456	-67.2556
 130	1	12	0.183693	-6.87213	-68.7399	-66.7626
 131	1	2	-0.144532	-8.61176	-69.938	-70.787
 132	1	2	0.128587	-7.53673	-69.8896	-69.8639
 133	1	2	0.222203	-8.53015	-70.8171	-71.8994
 134	1	2	0.041795	-6.41297	-70.7343	-70.0256
 135	1	2	-0.461017	-7.39651	-71.6484	-72.0466
 136	1	2	-0.140506	-6.3489	-71.6134	-71.1149
 137	1	4	0.148448	-5.48462	-72.2636	-71.2358
 138	1	10	0.055442	-10.0188	-68.8456	-69.5021
 139	1	10	0.090839	-9.77009	-68.1127	-71.094
 140	1	3	-0.16304	-9.85772	-69.0699	-70.5638
 141	1	10	0.039719	-10.7735	-69.5642	-70.9101
 142	1	11	0.077452	-5.24895	-71.6286	-68.4446
 143	1	11	0.09063	-4.31429	-70.6188	-69.5608
 144	1	4	0.230266	-7.34022	-72.3424	-72.884
 145	1	1	-0.247122	7.54408	-58.7312	-58.128
 146	1	2	0.139112	8.24067	-57.7959	-58.9093
 147	1	2	0.02746	9.55632	-57.3759	-58.5934
 148	1	3	-0.077297	10.2573	-57.8658	-57.3223
 149	1	2	-0.08585	10.223	-56.4847	-59.4676
 150	1	2	-0.195578	9.57512	-55.9993	-60.6174
 151	1	4	0.171692	10.089	-55.3094	-61.2841
 152	1	2	-0.199822	8.26759	-56.4056	-60.9179
 153	1	4	0.149498	7.77578	-56.0349	-61.8134
 154	1	2	0.076729	7.60157	-57.3078	-60.0752
 155	1	2	-0.057821	13.3859	-54.8327	-58.6049
 156	1	2	-0.076852	14.2621	-53.8341	-58.1671
 157	1	4	0.145382	13.8579	-52.8779	-57.8428
 158	1	2	-0.023498	15.6581	-54.0883	-58.1652
 159	1	4	0.166076	15.565	-57.3149	-59.4259
 160	1	2	-0.140684	15.2127	-56.3495	-59.0671
 161	1	2	-0.058922	13.8452	-56.0581	-59.039
 162	1	3	-0.101954	16.6212	-52.9533	-57.7133
 163	1	2	-0.067123	16.1137	-55.3544	-58.6337
 164	1	4	0.142141	17.1716	-55.5867	-58.6789
 165	1	3	0.321219	18.0607	-53.4584	-57.3098
 166	1	3	0.382784	16.7451	-51.9745	-58.9442
 167	1	5	-0.111948	18.0093	-54.5086	-56.4594
 168	1	5	-0.11115	18.763	-52.4924	-56.6748
 169	1	5	-0.103632	18.8122	-53.8451	-58.3652
 170	1	5	-0.110272	15.5781	-51.342	-59.2041
 171	1	5	-0.120305	17.068	-52.6358	-60.0793
 172	1	5	-0.123663	17.6869	-51.0202	-58.7702
 173	1	6	0.452517	12.6712	-56.8797	-59.4389
 174	1	6	0.453374	11.9037	-54.8234	-58.7159
 175	1	7	0.018948	11.5616	-56.0728	-59.2168
 176	1	8	-0.46698	12.6991	-58.0246	-59.8577
 177	1	8	-0.469385	11.163	-53.9019	-58.4186
 178	1	3	-0.126657	6.18941	-57.7836	-60.4347
 179	1	2	0.020988	15.3282	-50.3847	-55.103
 180	1	6	0.027902	15.0454	-48.9819	-54.7134
 181	1	8	-0.378193	15.2574	-47.9864	-55.3859
 182	1	2	0.043573	14.9128	-51.214	-54.0812
 183	1	6	0.038038	14.3604	-50.3774	-52.9849
 184	1	7	0.4913	14.4651	-49.0675	-53.4496
 185	1	8	-0.382817	13.8957	-50.7743	-51.9287
 186	1	2	0.0054	15.891	-50.885	-56.2814
 187	1	2	-0.040988	15.0267	-52.6013	-54.1869
 188	1	2	-0.085341	16.015	-52.2916	-56.4392
 189	1	4	0.154391	16.2056	-50.174	-57.0375
 190	1	2	-0.205992	15.5781	-53.1289	-55.3732
 191	1	4	0.156637	14.6903	-53.2454	-53.3772
 192	1	4	0.178085	15.6632	-54.2097	-55.4632
 193	1	10	0.05178	9.54902	-58.2239	-56.5659
 194	1	10	0.015669	10.8346	-57.0641	-56.8456
 195	1	10	0.036134	10.9471	-58.6876	-57.5504
 196	1	11	0.101096	5.48422	-56.9554	-60.2966
 197	1	1	-0.196269	5.78152	-58.933	-59.5952
 198	1	11	0.131285	6.1716	-58.0676	-61.4946
 199	1	3	-0.292673	6.07089	-58.6403	-58.1779
 200	1	3	-0.034798	7.9624	-60.1461	-58.2466
 201	1	12	0.194395	5.60123	-59.3856	-57.5217
 202	1	12	0.183693	5.73029	-57.633	-57.9025
 203	1	2	-0.144532	5.49467	-60.8373	-61.1366
 204	1	2	0.128587	6.14804	-60.21	-60.0464
 205	1	2	0.222203	5.9817	-62.0826	-61.6092
 206	1	2	0.041795	7.24464	-60.8394	-59.4094
 207	1	2	-0.461017	7.07043	-62.701	-60.9539
 208	1	2	-0.140506	7.69311	-62.0892	-59.8569
 209	1	4	0.148448	8.5361	-62.5707	-59.365
 210	1	10	0.055442	3.53365	-60.9264	-62.1198
 211	1	10	0.090839	3.73824	-59.5196	-61.0945
 212	1	3	-0.16304	4.26928	-60.1832	-61.7887
 213	1	10	0.039719	4.56036	-59.5848	-62.6611
 214	1	11	0.077452	7.73488	-60.6776	-57.3145
 215	1	11	0.09063	9.04525	-60.2087	-58.4121
 216	1	4	0.230266	7.43359	-63.6666	-61.3027
 217	1	1	-0.247122	11.4057	-43.8316	-51.1986
 218	1	2	0.139112	11.3798	-42.9885	-52.3212
 219	1	2	0.02746	11.7315	-41.617	-52.2543
 220	1	3	-0.077297	12.1415	-40.9654	-50.9297
 221	1	2	-0.08585	11.7137	-40.8435	-53.44
 222	1	2	-0.195578	11.3444	-41.4267	-54.6649
 223	1	4	0.171692	11.3458	-40.8318	-55.5763
 224	1	2	-0.199822	10.993	-42.7818	-54.7257
 225	1	4	0.149498	10.7208	-43.2307	-55.6775
 226	1	2	0.076729	11.0147	-43.5651	-53.5626
 227	1	2	-0.057821	12.1425	-37.1961	-53.2295
 228	1	2	-0.076852	11.837	-35.8463	-53.0079
 229	1	4	0.145382	10.8374	-35.572	-52.6783
 230	1	2	-0.023498	12.8422	-34.8639	-53.213
 231	1	4	0.166076	15.3981	-36.9911	-54.1992
 232	1	2	-0.140684	14.4149	-36.6641	-53.8648
 233	1	2	-0.058922	13.3974	-37.5936	-53.6406
 234	1	3	-0.101954	12.4851	-33.3613	-52.9874
 235	1	2	-0.067123	14.1261	-35.3011	-53.6548
 236	1	4	0.142141	14.9279	-34.5985	-53.8472
 237	1	3	0.321219	13.7455	-32.4142	-52.9581
 238	1	3	0.382784	11.5516	-32.9486	-54.192
 239	1	5	-0.111948	14.6707	-32.8475	-52.0713
 240	1	5	-0.11115	13.4294	-31.1567	-52.573
 241	1	5	-0.103632	14.3507	-32.3011	-54.1622
 242	1	5	-0.110272	10.3124	-33.4737	-54.0653
 243	1	5	-0.120305	12.0405	-33.3938	-55.3722
 244	1	5	-0.123663	11.3957	-31.6131	-54.3303
 245	1	6	0.452517	13.4022	-39.073	-53.779
 246	1	6	0.453374	11.2953	-38.413	-53.0975
 247	1	7	0.018948	12.1202	-39.4799	-53.4372
 248	1	8	-0.46698	14.35	-39.7646	-54.1105
 249	1	8	-0.469385	10.128	-38.4459	-52.7478
 250	1	3	-0.126657	10.6686	-45.0554	-53.6484
 251	1	2	0.020988	10.3803	-31.9856	-50.0404
 252	1	6	0.027902	9.50465	-30.9192	-49.4927
 253	1	8	-0.378193	8.99929	-30.0051	-50.1235
 254	1	2	0.043573	10.791	-32.7906	-48.9981
 255	1	6	0.038038	10.1921	-32.2801	-47.7386
 256	1	7	0.4913	9.45959	-31.1561	-48.1185
 257	1	8	-0.382817	10.3841	-32.7178	-46.6156
 258	1	2	0.0054	10.8607	-32.1625	-51.3424
 259	1	2	-0.040988	11.7107	-33.8214	-49.2006
 260	1	2	-0.085341	11.801	-33.1974	-51.5971
 261	1	4	0.154391	10.5403	-31.462	-52.1055
 262	1	2	-0.205992	12.2186	-34.0087	-50.5033
 263	1	4	0.156637	12.053	-34.4247	-48.3627
 264	1	4	0.178085	12.978	-34.7738	-50.6475
 265	1	10	0.05178	11.8734	-41.5722	-50.0574
 266	1	10	0.015669	11.6484	-39.9962	-50.7896
 267	1	10	0.036134	13.2254	-40.799	-50.8993
 268	1	11	0.101096	9.60347	-45.1654	-53.8845
 269	1	1	-0.196269	10.9716	-45.7551	-52.3795
 270	1	11	0.131285	11.243	-45.5018	-54.4693
 271	1	3	-0.292673	10.4661	-44.9697	-51.2378
 272	1	3	-0.034798	12.73	-44.2861	-50.7127
 273	1	12	0.194395	10.5084	-45.5583	-50.3113
 274	1	12	0.183693	9.43812	-44.6266	-51.4164
 275	1	2	-0.144532	12.6684	-47.4691	-52.8987
 276	1	2	0.128587	12.2585	-46.2912	-52.2264
 277	1	2	0.222203	13.9987	-47.9283	-52.7333
 278	1	2	0.041795	13.1652	-45.587	-51.3979
 279	1	2	-0.461017	14.8874	-47.2261	-51.8896
 280	1	2	-0.140506	14.4729	-46.063	-51.2239
 281	1	4	0.148448	15.1677	-45.5173	-50.5884
 282	1	10	0.055442	10.6469	-48.0603	-53.5272
 283	1	10	0.090839	11.8141	-47.9331	-54.8533
 284	1	3	-0.16304	11.6936	-48.2348	-53.8048
 285	1	10	0.039719	11.84	-49.3201	-53.7483
 286	1	11	0.077452	12.6872	-44.4482	-49.6288
 287	1	11	0.09063	13.4875	-43.5162	-50.9063
 288	1	4	0.230266	15.9106	-47.577	-51.7679
 289	1	1	-0.247122	5.70586	-27.1248	-44.7225
 290	1	2	0.139112	5.3747	-26.1778	-45.7046
 291	1	2	0.02746	5.48804	-24.7827	-45.4825
 292	1	3	-0.077297	5.91044	-24.2345	-44.1158
 293	1	2	-0.08585	5.2065	-23.8907	-46.5452
 294	1	2	-0.195578	4.78248	-24.3839	-47.792
 295	1	4	0.171692	4.5639	-23.6947	-48.6055
 296	1	2	-0.199822	4.65878	-25.7642	-48.0036
 297	1	4	0.149498	4.34742	-26.1391	-48.975
 298	1	2	0.076729	4.96659	-26.6626	-46.9714
 299	1	2	-0.057821	5.03042	-20.2326	-46.199
 300	1	2	-0.076852	4.47575	-18.9502	-46.0851
 301	1	4	0.145382	3.39539	-18.8561	-46.0471
 302	1	2	-0.023498	5.34515	-17.8274	-46.0372
 303	1	4	0.166076	8.3578	-19.5206	-46.3222
 304	1	2	-0.140684	7.28487	-19.3543	-46.2465
 305	1	2	-0.058922	6.39413	-20.4302	-46.2676
 306	1	3	-0.101954	4.82862	-16.3619	-45.931
 307	1	2	-0.067123	6.74712	-18.0568	-46.1428
 308	1	4	0.142141	7.43591	-17.2155	-46.1472
 309	1	3	0.321219	4.8242	-15.7966	-47.4022
 310	1	3	0.382784	3.37798	-16.2435	-45.3227
 311	1	5	-0.111948	6.07762	-15.6711	-47.8952
 312	1	5	-0.11115	4.2276	-14.5876	-47.5057
 313	1	5	-0.103632	4.17286	-16.6223	-48.2527
 314	1	5	-0.110272	3.25179	-16.9631	-44.1849
 315	1	5	-0.120305	2.40412	-16.6591	-46.1631
 316	1	5	-0.123663	3.08206	-14.9648	-44.9958
 317	1	6	0.452517	6.6516	-21.8886	-46.3928
 318	1	6	0.453374	4.36717	-21.5622	-46.289
 319	1	7	0.018948	5.39832	-22.4872	-46.4031
 320	1	8	-0.46698	7.74395	-22.4257	-46.4689
 321	1	8	-0.469385	3.16665	-21.772	-46.2744
 322	1	3	-0.126657	4.89066	-28.1716	-47.2304
 323	1	2	0.020988	7.0292	-15.56	-42.8818
 324	1	6	0.027902	7.62649	-16.0296	-41.6101
 325	1	8	-0.378193	7.38679	-17.0849	-41.046
 326	1	2	0.043573	7.57878	-14.3358	-43.1997
 327	1	6	0.038038	8.55843	-13.9673	-42.1454
 328	1	7	0.4913	8.54333	-15.0401	-41.2557
 329	1	8	-0.382817	9.26887	-12.9755	-42.1277
 330	1	2	0.0054	6.12689	-16.2051	-43.7304
 331	1	2	-0.040988	7.23391	-13.6762	-44.3812
 332	1	2	-0.085341	5.77711	-15.5931	-44.9621
 333	1	4	0.154391	5.74312	-17.1827	-43.4488
 334	1	2	-0.205992	6.32496	-14.3102	-45.2556
 335	1	4	0.156637	7.67677	-12.7119	-44.6214
 336	1	4	0.178085	6.07422	-13.7869	-46.1724
 337	1	10	0.05178	6.98321	-24.0058	-44.1026
 338	1	10	0.015669	5.709	-24.9414	-43.3021
 339	1	10	0.036134	5.36697	-23.3159	-43.8635
 340	1	11	0.101096	3.8402	-28.466	-47.3401
 341	1	1	-0.196269	5.51206	-28.9382	-46.1266
 342	1	11	0.131285	5.40281	-28.3927	-48.1753
 343	1	3	-0.292673	5.0219	-28.4292	-44.8309
 344	1	3	-0.034798	7.14535	-27.336	-44.4497
 345	1	12	0.194395	5.31187	-29.1025	-44.0129
 346	1	12	0.183693	3.93113	-28.3012	-44.8401
 347	1	2	-0.144532	7.44244	-30.1294	-47.1018
 348	1	2	0.128587	6.89292	-29.1752	-46.2088
 349	1	2	0.222203	8.8511	-30.2625	-47.1872
 350	1	2	0.041795	7.74067	-28.3861	-45.3938
 351	1	2	-0.461017	9.68103	-29.4754	-46.3578
 352	1	2	-0.140506	9.13096	-28.5465	-45.4635
 353	1	4	0.148448	9.77903	-27.9375	-44.8362
 354	1	10	0.055442	6.92613	-32.0338	-48.0599
 355	1	10	0.090839	5.52759	-31.12	-47.529
 356	1	3	-0.16304	6.53091	-31.0153	-47.9606
 357	1	10	0.039719	6.41683	-30.5983	-48.9691
 358	1	11	0.077452	7.27912	-27.6667	-43.4126
 359	1	11	0.09063	7.69692	-26.3959	-44.5747
 360	1	4	0.230266	10.7628	-29.5866	-46.4129
 361	1	1	-0.247122	12.6208	-17.0502	-36.7057
 362	1	2	0.139112	11.9034	-18.2042	-36.3469
 363	1	2	0.02746	11.5833	-18.5072	-35.0006
 364	1	3	-0.077297	12.1291	-17.6485	-33.8549
 365	1	2	-0.08585	10.761	-19.6268	-34.724
 366	1	2	-0.195578	10.311	-20.4536	-35.7687
 367	1	4	0.171692	9.68875	-21.3197	-35.5507
 368	1	2	-0.199822	10.6532	-20.167	-37.0963
 369	1	4	0.149498	10.2916	-20.8027	-37.9004
 370	1	2	0.076729	11.4363	-19.0417	-37.3897
 371	1	2	-0.057821	10.0857	-21.0164	-31.3968
 372	1	2	-0.076852	10.1384	-21.9054	-30.3203
 373	1	4	0.145382	10.7416	-22.8066	-30.4075
 374	1	2	-0.023498	9.41249	-21.6059	-29.1386
 375	1	4	0.166076	7.9487	-18.6518	-30.2048
 376	1	2	-0.140684	8.56041	-19.5519	-30.2232
 377	1	2	-0.058922	9.31987	-19.8714	-31.3532
 378	1	3	-0.101954	9.49347	-22.5986	-27.9447
 379	1	2	-0.067123	8.61201	-20.4276	-29.1183
 380	1	4	0.142141	8.01357	-20.173	-28.2507
 381	1	3	0.321219	9.12358	-21.9529	-26.5535
 382	1	3	0.382784	8.47219	-23.7548	-28.2703
 383	1	5	-0.111948	9.47816	-22.7565	-25.5251
 384	1	5	-0.11115	7.80239	-21.7067	-26.4071
 385	1	5	-0.103632	9.76574	-20.7792	-26.3572
 386	1	5	-0.110272	7.24925	-23.2686	-28.5836
 387	1	5	-0.120305	8.29376	-24.6119	-27.2396
 388	1	5	-0.123663	8.86504	-24.4852	-29.3388
 389	1	6	0.452517	9.47311	-19.162	-32.6514
 390	1	6	0.453374	10.7637	-21.078	-32.7161
 391	1	7	0.018948	10.3524	-19.9401	-33.3974
 392	1	8	-0.46698	8.92302	-18.1228	-32.9746
 393	1	8	-0.469385	11.5206	-21.9549	-33.0969
 394	1	3	-0.126657	11.7526	-18.7012	-38.848
 395	1	2	0.020988	13.339	-22.5074	-27.7739
 396	1	6	0.027902	14.5846	-21.7004	-27.7218
 397	1	8	-0.378193	14.6569	-20.4826	-27.7441
 398	1	2	0.043573	13.6747	-23.8386	-27.6505
 399	1	6	0.038038	15.1472	-23.947	-27.521
 400	1	7	0.4913	15.6118	-22.6309	-27.5587
 401	1	8	-0.382817	15.7776	-24.9732	-27.3212
 402	1	2	0.0054	12.0061	-22.0954	-27.8593
 403	1	2	-0.040988	12.6961	-24.8322	-27.594
 404	1	2	-0.085341	10.9741	-23.0718	-27.8309
 405	1	4	0.154391	11.786	-21.0344	-27.9477
 406	1	2	-0.205992	11.3446	-24.4396	-27.6835
 407	1	4	0.156637	12.9798	-25.8751	-27.4693
 408	1	4	0.178085	10.5983	-25.2251	-27.6284
 409	1	10	0.05178	12.3893	-18.2579	-32.9812
 410	1	10	0.015669	11.3918	-16.901	-33.538
 411	1	10	0.036134	13.0445	-17.1146	-34.137
 412	1	11	0.101096	12.505	-19.4025	-39.2279
 413	1	1	-0.196269	12.2535	-17.3141	-38.9636
 414	1	11	0.131285	10.8409	-18.8272	-39.4448
 415	1	3	-0.292673	13.3452	-17.1091	-37.9919
 416	1	3	-0.034798	11.8965	-15.7625	-36.6129
 417	1	12	0.194395	13.8769	-16.1697	-38.1954
 418	1	12	0.183693	14.0534	-17.9484	-38.0059
 419	1	2	-0.144532	10.4865	-16.1117	-40.1867
 420	1	2	0.128587	11.2853	-16.3001	-39.0333
 421	1	2	0.222203	9.43107	-15.1667	-40.1488
 422	1	2	0.041795	11.063	-15.5166	-37.8749
 423	1	2	-0.461017	9.23405	-14.377	-38.9948
 424	1	2	-0.140506	10.0517	-14.5447	-37.8668
 425	1	4	0.148448	9.88396	-13.9461	-36.9735
 426	1	10	0.055442	10.6189	-16.3124	-42.3679
 427	1	10	0.090839	11.7848	-17.297	-41.5079
 428	1	3	-0.16304	10.7554	-16.9198	-41.4646
 429	1	10	0.039719	10.0824	-17.7838	-41.5335
 430	1	11	0.077452	12.6134	-14.942	-36.4866
 431	1	11	0.09063	11.2303	-15.7623	-35.7412
 432	1	4	0.230266	8.43537	-13.6375	-38.971
 433	1	1	-0.247122	21.83	-22.8892	-26.2839
 434	1	2	0.139112	21.6277	-24.2131	-25.835
 435	1	2	0.02746	21.8923	-24.6166	-24.5005
 436	1	3	-0.077297	22.5702	-23.6757	-23.5003
 437	1	2	-0.08585	21.473	-25.8983	-24.0704
 438	1	2	-0.195578	20.8925	-26.8025	-24.9752
 439	1	4	0.171692	20.5528	-27.7781	-24.6331
 440	1	2	-0.199822	20.6695	-26.4211	-26.3033
 441	1	4	0.149498	20.1689	-27.1025	-26.9865
 442	1	2	0.076729	20.9956	-25.1233	-26.7219
 443	1	2	-0.057821	20.6654	-26.3496	-20.5364
 444	1	2	-0.076852	19.9134	-26.2617	-19.3636
 445	1	4	0.145382	18.9058	-25.8553	-19.4145
 446	1	2	-0.023498	20.4883	-26.683	-18.1381
 447	1	4	0.166076	23.5358	-27.7661	-19.3921
 448	1	2	-0.140684	22.5333	-27.3427	-19.3742
 449	1	2	-0.058922	21.9393	-26.8748	-20.5521
 450	1	3	-0.101954	19.6435	-26.5613	-16.8355
 451	1	2	-0.067123	21.7989	-27.2429	-18.1707
 452	1	4	0.142141	22.2666	-27.6139	-17.2656
 453	1	3	0.321219	18.7643	-27.8673	-16.7701
 454	1	3	0.382784	20.515	-26.4486	-15.5259
 455	1	5	-0.111948	18.0825	-27.9851	-15.6085
 456	1	5	-0.11115	19.514	-28.9863	-16.8935
 457	1	5	-0.103632	17.8631	-27.9136	-17.7779
 458	1	5	-0.110272	19.7693	-26.0478	-14.4708
 459	1	5	-0.120305	21.5073	-25.5401	-15.6612
 460	1	5	-0.123663	21.0991	-27.6115	-15.1603
 461	1	6	0.452517	22.4492	-26.8102	-21.953
 462	1	6	0.453374	20.3181	-25.9176	-21.9092
 463	1	7	0.018948	21.4277	-26.2179	-22.6863
 464	1	8	-0.46698	23.5451	-27.1714	-22.3448
 465	1	8	-0.469385	19.2879	-25.3592	-22.2467
 466	1	3	-0.126657	20.5525	-24.6573	-28.1088
 467	1	2	0.020988	16.7232	-23.9948	-16.886
 468	1	6	0.027902	15.2708	-23.7025	-16.7981
 469	1	8	-0.378193	14.3925	-24.49	-16.487
 470	1	2	0.043573	17.3739	-22.8486	-17.2934
 471	1	6	0.038038	16.3677	-21.7752	-17.493
 472	1	7	0.4913	15.1436	-22.3688	-17.1837
 473	1	8	-0.382817	16.586	-20.6418	-17.8902
 474	1	2	0.0054	17.4041	-25.2007	-16.6863
 475	1	2	-0.040988	18.7543	-22.8358	-17.4991
 476	1	2	-0.085341	18.8046	-25.2473	-16.9262
 477	1	4	0.154391	16.8252	-26.0679	-16.3878
 478	1	2	-0.205992	19.4607	-24.0406	-17.3045
 479	1	4	0.156637	19.2543	-21.9266	-17.8262
 480	1	4	0.178085	20.5324	-24.042	-17.492
 481	1	10	0.05178	23.1345	-22.8782	-23.9983
 482	1	10	0.015669	23.2904	-24.2135	-22.8718
 483	1	10	0.036134	21.8316	-23.2077	-22.8379
 484	1	11	0.101096	21.2597	-25.0236	-28.8626
 485	1	1	-0.196269	20.4881	-23.1811	-28.1409
 486	1	11	0.131285	19.5712	-25.0912	-28.3283
 487	1	3	-0.292673	21.8221	-22.6758	-27.7489
 488	1	3	-0.034798	20.9792	-21.8401	-25.6838
 489	1	12	0.194395	21.9218	-21.6119	-28.0032
 490	1	12	0.183693	22.6263	-23.247	-28.2316
 491	1	2	-0.144532	18.0507	-22.7344	-28.0224
 492	1	2	0.128587	19.3707	-22.577	-27.5242
 493	1	2	0.222203	16.9575	-22.283	-27.2378
 494	1	2	0.041795	19.5797	-21.9065	-26.2917
 495	1	2	-0.461017	17.1955	-21.5763	-26.0393
 496	1	2	-0.140506	18.4998	-21.3759	-25.5749
 497	1	4	0.148448	18.6716	-20.8677	-24.6281
 498	1	10	0.055442	18.663	-23.307	-30.0498
 499	1	10	0.090839	17.5658	-24.4625	-29.2744
 500	1	3	-0.16304	17.7957	-23.395	-29.3835
 501	1	10	0.039719	16.956	-22.9237	-29.9096
 502	1	11	0.077452	21.4116	-20.8495	-25.872
 503	1	11	0.09063	20.8995	-21.9695	-24.5993
 504	1	4	0.230266	16.3562	-21.2121	-25.448
 505	1	1	-0.247122	9.60453	-19.0018	-16.7515
 506	1	2	0.139112	8.86889	-19.5776	-15.7055
 507	1	2	0.02746	7.46788	-19.7789	-15.7788
 508	1	3	-0.077297	6.68033	-19.3747	-17.0289
 509	1	2	-0.08585	6.79682	-20.3444	-14.6671
 510	1	2	-0.195578	7.51508	-20.7133	-13.5159
 511	1	4	0.171692	6.99372	-21.1398	-12.6611
 512	1	2	-0.199822	8.90047	-20.5133	-13.4499
 513	1	4	0.149498	9.44775	-20.7899	-12.5526
 514	1	2	0.076729	9.578	-19.9383	-14.5346
 515	1	2	-0.057821	3.16359	-20.0778	-14.2567
 516	1	2	-0.076852	1.93318	-19.5128	-13.9049
 517	1	4	0.145382	1.92627	-18.4917	-13.5395
 518	1	2	-0.023498	0.752393	-20.2879	-14.048
 519	1	4	0.166076	2.21111	-23.1709	-15.3085
 520	1	2	-0.140684	2.12652	-22.1596	-14.915
 521	1	2	-0.058922	3.26405	-21.3622	-14.7483
 522	1	3	-0.101954	-0.662609	-19.7205	-13.7318
 523	1	2	-0.067123	0.875058	-21.6087	-14.5657
 524	1	4	0.142141	-0.0149008	-22.2175	-14.7057
 525	1	3	0.321219	-0.637518	-18.4607	-12.7826
 526	1	3	0.382784	-1.28234	-19.3096	-15.1232
 527	1	5	-0.111948	-1.8744	-18.1527	-12.3296
 528	1	5	-0.11115	-0.16614	-17.3452	-13.3837
 529	1	5	-0.103632	0.120318	-18.6782	-11.6835
 530	1	5	-0.110272	-0.4139	-18.5816	-15.8621
 531	1	5	-0.120305	-2.40566	-18.565	-15.0139
 532	1	5	-0.123663	-1.59428	-20.3952	-15.8673
 533	1	6	0.452517	4.70247	-21.6463	-15.015
 534	1	6	0.453374	4.52814	-19.4962	-14.1889
 535	1	7	0.018948	5.38168	-20.4915	-14.6456
 536	1	8	-0.46698	5.16751	-22.6896	-15.4408
 537	1	8	-0.469385	4.81822	-18.3832	-13.7846
 538	1	3	-0.126657	11.0873	-19.6891	-14.4388
 539	1	2	0.020988	-3.56861	-21.9293	-12.4309
 540	1	6	0.027902	-5.0064	-22.2845	-12.4533
 541	1	8	-0.378193	-5.84702	-21.847	-13.2221
 542	1	2	0.043573	-2.95761	-22.6354	-11.4154
 543	1	6	0.038038	-3.98299	-23.4733	-10.7377
 544	1	7	0.4913	-5.17061	-23.1991	-11.4145
 545	1	8	-0.382817	-3.80376	-24.2177	-9.78786
 546	1	2	0.0054	-2.87194	-21.0105	-13.22
 547	1	2	-0.040988	-1.59866	-22.4659	-11.1393
 548	1	2	-0.085341	-1.48867	-20.803	-12.9751
 549	1	4	0.154391	-3.42717	-20.464	-13.9741
 550	1	2	-0.205992	-0.873934	-21.5432	-11.925
 551	1	4	0.156637	-1.13036	-23.0135	-10.3241
 552	1	4	0.178085	0.176417	-21.381	-11.6912
 553	1	10	0.05178	7.20001	-18.6119	-17.6207
 554	1	10	0.015669	5.70075	-18.9507	-16.7786
 555	1	10	0.036134	6.51391	-20.2436	-17.6775
 556	1	11	0.101096	11.2796	-18.9533	-13.6491
 557	1	1	-0.196269	11.6481	-19.1973	-15.7186
 558	1	11	0.131285	11.5796	-20.6265	-14.1509
 559	1	3	-0.292673	10.7607	-18.1888	-16.3268
 560	1	3	-0.034798	9.973	-19.8697	-17.8961
 561	1	12	0.194395	11.2469	-17.707	-17.1864
 562	1	12	0.183693	10.4616	-17.4287	-15.5925
 563	1	2	-0.144532	13.4308	-20.7544	-16.4068
 564	1	2	0.128587	12.1635	-20.1508	-16.6039
 565	1	2	0.222203	13.883	-21.7199	-17.3406
 566	1	2	0.041795	11.3553	-20.5112	-17.7084
 567	1	2	-0.461017	13.0687	-22.0651	-18.4429
 568	1	2	-0.140506	11.8129	-21.4669	-18.6261
 569	1	4	0.148448	11.1884	-21.7483	-19.4717
 570	1	10	0.055442	15.3468	-20.2071	-15.4865
 571	1	10	0.090839	13.9753	-19.4587	-14.7069
 572	1	3	-0.16304	14.3035	-20.3818	-15.1995
 573	1	10	0.039719	14.2895	-21.1802	-14.447
 574	1	11	0.077452	9.97789	-19.2749	-18.8177
 575	1	11	0.09063	9.22779	-20.6661	-18.0175
 576	1	4	0.230266	13.4098	-22.8176	-19.1524
 577	1	1	-0.247122	-11.1066	-25.6345	-11.5784
 578	1	2	0.139112	-11.5749	-24.8079	-12.6146
 579	1	2	0.02746	-12.8085	-24.1147	-12.5368
 580	1	3	-0.077297	-13.7347	-24.2926	-11.3293
 581	1	2	-0.08585	-13.191	-23.2679	-13.6062
 582	1	2	-0.195578	-12.3571	-23.117	-14.7281
 583	1	4	0.171692	-12.6589	-22.4726	-15.5517
 584	1	2	-0.199822	-11.1431	-23.8107	-14.8052
 585	1	4	0.149498	-10.5055	-23.6942	-15.6776
 586	1	2	0.076729	-10.754	-24.6593	-13.7595
 587	1	2	-0.057821	-16.6159	-22.0453	-14.0745
 588	1	2	-0.076852	-17.9235	-21.9934	-14.5711
 589	1	4	0.145382	-18.2196	-22.7163	-15.324
 590	1	2	-0.023498	-18.8056	-20.9979	-14.0769
 591	1	4	0.166076	-16.6108	-19.4325	-11.8939
 592	1	2	-0.140684	-16.9835	-20.1414	-12.6309
 593	1	2	-0.058922	-16.1588	-21.1559	-13.1245
 594	1	3	-0.101954	-20.2715	-20.8624	-14.5816
 595	1	2	-0.067123	-18.3014	-20.0648	-13.1252
 596	1	4	0.142141	-18.9395	-19.2659	-12.7568
 597	1	3	0.321219	-20.2322	-19.8154	-15.7573
 598	1	3	0.382784	-20.8815	-22.2196	-15.1133
 599	1	5	-0.111948	-19.3097	-20.14	-16.6917
 600	1	5	-0.11115	-19.8915	-18.5838	-15.3146
 601	1	5	-0.103632	-21.4157	-19.7044	-16.4018
 602	1	5	-0.110272	-22.2251	-22.1375	-15.2459
 603	1	5	-0.120305	-20.6448	-23.2466	-14.2657
 604	1	5	-0.123663	-20.4046	-22.5959	-16.321
 605	1	6	0.452517	-14.7455	-21.4963	-12.8061
 606	1	6	0.453374	-15.5097	-22.9781	-14.406
 607	1	7	0.018948	-14.4423	-22.5915	-13.6062
 608	1	8	-0.46698	-14.0352	-20.9402	-11.9855
 609	1	8	-0.469385	-15.5576	-23.8972	-15.2054
 610	1	3	-0.126657	-9.42815	-25.4169	-13.8589
 611	1	2	0.020988	-22.7931	-18.992	-12.2852
 612	1	6	0.027902	-23.7904	-17.9106	-12.0661
 613	1	8	-0.378193	-24.1552	-17.082	-12.8834
 614	1	2	0.043573	-22.6658	-19.7087	-11.1128
 615	1	6	0.038038	-23.5688	-19.1218	-10.0955
 616	1	7	0.4913	-24.2057	-18.0668	-10.7441
 617	1	8	-0.382817	-23.7172	-19.5092	-8.94821
 618	1	2	0.0054	-22.0643	-19.3258	-13.433