

################################################################################
##################################    Init    ##################################
################################################################################
units           real
atom_style      full
pair_style      lj/cut/coul/long 12.0  12.0
kspace_style    pppm 1e-4
bond_style      harmonic
angle_style     harmonic
dihedral_style  fourier
improper_style  cvff
special_bonds   amber
pair_modify     mix arithmetic
read_data       temp.lmps
  orthogonal box = (-112.656 -112.656 -112.656) to (112.656 112.656 112.656)
  1 by 1 by 1 MPI processor grid
  reading atoms ...
  144 atoms
  reading velocities ...
  144 velocities
  scanning bonds ...
  3 = max bonds/atom
  scanning angles ...
  6 = max angles/atom
  scanning dihedrals ...
  24 = max dihedrals/atom
  scanning impropers ...
  2 = max impropers/atom
  reading bonds ...
  159 bonds
  reading angles ...
  284 angles
  reading dihedrals ...
  432 dihedrals
  reading impropers ...
  40 impropers
  4 = max # of 1-2 neighbors
  10 = max # of 1-3 neighbors
  22 = max # of 1-4 neighbors
  23 = max # of special neighbors
  special bonds CPU = 0.000363111 secs
  read_data CPU = 0.00523686 secs
################################################################################

timestep        1
fix             pysimm_md all nve/limit 0.1
run             2000
PPPM initialization ...
  using 12-bit tables for long-range coulomb (../kspace.cpp:332)
  G vector (1/distance) = 0.142891
  grid = 36 36 36
  stencil order = 5
  estimated absolute RMS force accuracy = 0.00204179
  estimated relative force accuracy = 6.14879e-06
  using double precision KISS FFT
  3d grid and FFT values/proc = 68921 46656
Neighbor list info ...
  update every 1 steps, delay 10 steps, check yes
  max neighbors/atom: 2000, page size: 100000
  master list distance cutoff = 14
  ghost atom cutoff = 14
  binsize = 7, bins = 33 33 33
  1 neighbor lists, perpetual/occasional/extra = 1 0 0
  (1) pair lj/cut/coul/long, perpetual
      attributes: half, newton on
      pair build: half/bin/newton
      stencil: half/bin/3d/newton
      bin: standard
Per MPI rank memory allocation (min/avg/max) = 24.58 | 24.58 | 24.58 Mbytes
Step Temp E_pair E_mol TotEng Press 
       0     10.53279    240.36012    216.36167    461.21145    2.6310516 
    2000    165.23847    118.96088    204.37525    393.76999   -0.4916521 
Loop time of 19.7529 on 1 procs for 2000 steps with 144 atoms

Performance: 8.748 ns/day, 2.743 hours/ns, 101.251 timesteps/s
99.8% CPU use with 1 MPI tasks x no OpenMP threads

MPI task timing breakdown:
Section |  min time  |  avg time  |  max time  |%varavg| %total
---------------------------------------------------------------
Pair    | 0.2514     | 0.2514     | 0.2514     |   0.0 |  1.27
Bond    | 0.13226    | 0.13226    | 0.13226    |   0.0 |  0.67
Kspace  | 19.346     | 19.346     | 19.346     |   0.0 | 97.94
Neigh   | 0.0083742  | 0.0083742  | 0.0083742  |   0.0 |  0.04
Comm    | 0.001354   | 0.001354   | 0.001354   |   0.0 |  0.01
Output  | 2.0981e-05 | 2.0981e-05 | 2.0981e-05 |   0.0 |  0.00
Modify  | 0.0062878  | 0.0062878  | 0.0062878  |   0.0 |  0.03
Other   |            | 0.006886   |            |       |  0.03

Nlocal:    144 ave 144 max 144 min
Histogram: 1 0 0 0 0 0 0 0 0 0
Nghost:    0 ave 0 max 0 min
Histogram: 1 0 0 0 0 0 0 0 0 0
Neighs:    5457 ave 5457 max 5457 min
Histogram: 1 0 0 0 0 0 0 0 0 0

Total # of neighbors = 5457
Ave neighs/atom = 37.8958
Ave special neighs/atom = 11.375
Neighbor list builds = 35
Dangerous builds = 0
unfix pysimm_md
min_style cg
minimize 0.001 0.001 10000 100000
WARNING: Using 'neigh_modify every 1 delay 0 check yes' setting during minimization (../min.cpp:190)
PPPM initialization ...
  using 12-bit tables for long-range coulomb (../kspace.cpp:332)
  G vector (1/distance) = 0.142891
  grid = 36 36 36
  stencil order = 5
  estimated absolute RMS force accuracy = 0.00204179
  estimated relative force accuracy = 6.14879e-06
  using double precision KISS FFT
  3d grid and FFT values/proc = 68921 46656
Per MPI rank memory allocation (min/avg/max) = 25.7 | 25.7 | 25.7 Mbytes
Step Temp E_pair E_mol TotEng Press 
    2000    165.23847    118.96088    204.37525    393.76999   -0.4916521 
    2016    165.23847    118.34401    142.50523     331.2831   0.29360522 
Loop time of 0.335318 on 1 procs for 16 steps with 144 atoms

96.9% CPU use with 1 MPI tasks x no OpenMP threads

Minimization stats:
  Stopping criterion = energy tolerance
  Energy initial, next-to-last, final = 
         323.336125047      261.093910616      260.849234408
  Force two-norm initial, final = 345.04 21.1357
  Force max component initial, final = 113.886 3.60102
  Final line search alpha, max atom move = 0.00953445 0.0343338
  Iterations, force evaluations = 16 32

MPI task timing breakdown:
Section |  min time  |  avg time  |  max time  |%varavg| %total
---------------------------------------------------------------
Pair    | 0.0073931  | 0.0073931  | 0.0073931  |   0.0 |  2.20
Bond    | 0.0026824  | 0.0026824  | 0.0026824  |   0.0 |  0.80
Kspace  | 0.3249     | 0.3249     | 0.3249     |   0.0 | 96.89
Neigh   | 0          | 0          | 0          |   0.0 |  0.00
Comm    | 3.5763e-05 | 3.5763e-05 | 3.5763e-05 |   0.0 |  0.01
Output  | 0          | 0          | 0          |   0.0 |  0.00
Modify  | 0          | 0          | 0          |   0.0 |  0.00
Other   |            | 0.0003049  |            |       |  0.09

Nlocal:    144 ave 144 max 144 min
Histogram: 1 0 0 0 0 0 0 0 0 0
Nghost:    0 ave 0 max 0 min
Histogram: 1 0 0 0 0 0 0 0 0 0
Neighs:    5464 ave 5464 max 5464 min
Histogram: 1 0 0 0 0 0 0 0 0 0

Total # of neighbors = 5464
Ave neighs/atom = 37.9444
Ave special neighs/atom = 11.375
Neighbor list builds = 0
Dangerous builds = 0
write_dump all custom pysimm.dump.tmp id q x y z vx vy vz
quit


################################################################################
##################################    Init    ##################################
################################################################################
units           real
atom_style      full
pair_style      lj/cut/coul/long 12.0  12.0
kspace_style    pppm 1e-4
bond_style      harmonic
angle_style     harmonic
dihedral_style  fourier
improper_style  cvff
special_bonds   amber
pair_modify     mix arithmetic
read_data       temp.lmps
  orthogonal box = (-112.656 -112.656 -112.656) to (112.656 112.656 112.656)
  1 by 1 by 1 MPI processor grid
  reading atoms ...
  216 atoms
  reading velocities ...
  216 velocities
  scanning bonds ...
  3 = max bonds/atom
  scanning angles ...
  6 = max angles/atom
  scanning dihedrals ...
  24 = max dihedrals/atom
  scanning impropers ...
  2 = max impropers/atom
  reading bonds ...
  239 bonds
  reading angles ...
  428 angles
  reading dihedrals ...
  654 dihedrals
  reading impropers ...
  60 impropers
  4 = max # of 1-2 neighbors
  10 = max # of 1-3 neighbors
  22 = max # of 1-4 neighbors
  23 = max # of special neighbors
  special bonds CPU = 0.000426054 secs
  read_data CPU = 0.00590777 secs
################################################################################

timestep        1
fix             pysimm_md all nve/limit 0.1
run             2000
PPPM initialization ...
  using 12-bit tables for long-range coulomb (../kspace.cpp:332)
  G vector (1/distance) = 0.0128909
  grid = 2 2 2
  stencil order = 5
  estimated absolute RMS force accuracy = 0.0460928
  estimated relative force accuracy = 0.000138807
  using double precision KISS FFT
  3d grid and FFT values/proc = 343 8
Neighbor list info ...
  update every 1 steps, delay 10 steps, check yes
  max neighbors/atom: 2000, page size: 100000
  master list distance cutoff = 14
  ghost atom cutoff = 14
  binsize = 7, bins = 33 33 33
  1 neighbor lists, perpetual/occasional/extra = 1 0 0
  (1) pair lj/cut/coul/long, perpetual
      attributes: half, newton on
      pair build: half/bin/newton
      stencil: half/bin/3d/newton
      bin: standard
Per MPI rank memory allocation (min/avg/max) = 18 | 18 | 18 Mbytes
Step Temp E_pair E_mol TotEng Press 
       0    113.40556     16916891    298.37136     16917262    405667.18 
    2000    448.58975    201.82745     471.1161    960.43312   0.73220502 
Loop time of 1.22061 on 1 procs for 2000 steps with 216 atoms

Performance: 141.568 ns/day, 0.170 hours/ns, 1638.520 timesteps/s
99.8% CPU use with 1 MPI tasks x no OpenMP threads

MPI task timing breakdown:
Section |  min time  |  avg time  |  max time  |%varavg| %total
---------------------------------------------------------------
Pair    | 0.52861    | 0.52861    | 0.52861    |   0.0 | 43.31
Bond    | 0.26608    | 0.26608    | 0.26608    |   0.0 | 21.80
Kspace  | 0.37499    | 0.37499    | 0.37499    |   0.0 | 30.72
Neigh   | 0.0336     | 0.0336     | 0.0336     |   0.0 |  2.75
Comm    | 0.0012617  | 0.0012617  | 0.0012617  |   0.0 |  0.10
Output  | 2.6941e-05 | 2.6941e-05 | 2.6941e-05 |   0.0 |  0.00
Modify  | 0.0098441  | 0.0098441  | 0.0098441  |   0.0 |  0.81
Other   |            | 0.006207   |            |       |  0.51

Nlocal:    216 ave 216 max 216 min
Histogram: 1 0 0 0 0 0 0 0 0 0
Nghost:    0 ave 0 max 0 min
Histogram: 1 0 0 0 0 0 0 0 0 0
Neighs:    9016 ave 9016 max 9016 min
Histogram: 1 0 0 0 0 0 0 0 0 0

Total # of neighbors = 9016
Ave neighs/atom = 41.7407
Ave special neighs/atom = 11.4537
Neighbor list builds = 71
Dangerous builds = 0
unfix pysimm_md
min_style cg
minimize 0.001 0.001 10000 100000
WARNING: Using 'neigh_modify every 1 delay 0 check yes' setting during minimization (../min.cpp:190)
PPPM initialization ...
  using 12-bit tables for long-range coulomb (../kspace.cpp:332)
  G vector (1/distance) = 0.0128909
  grid = 2 2 2
  stencil order = 5
  estimated absolute RMS force accuracy = 0.0460928
  estimated relative force accuracy = 0.000138807
  using double precision KISS FFT
  3d grid and FFT values/proc = 343 8
Per MPI rank memory allocation (min/avg/max) = 19.12 | 19.12 | 19.12 Mbytes
Step Temp E_pair E_mol TotEng Press 
    2000    448.58975    201.82745     471.1161    960.43312   0.73220502 
    2016    448.58975    189.94829    226.72278    704.16065    1.7308369 
Loop time of 0.056905 on 1 procs for 16 steps with 216 atoms

100.2% CPU use with 1 MPI tasks x no OpenMP threads

Minimization stats:
  Stopping criterion = linesearch alpha is zero
  Energy initial, next-to-last, final = 
          672.94354529      416.671073307      416.671073307
  Force two-norm initial, final = 602.732 58.1085
  Force max component initial, final = 119.386 10.9869
  Final line search alpha, max atom move = 2.04828e-12 2.25042e-11
  Iterations, force evaluations = 16 93

MPI task timing breakdown:
Section |  min time  |  avg time  |  max time  |%varavg| %total
---------------------------------------------------------------
Pair    | 0.031879   | 0.031879   | 0.031879   |   0.0 | 56.02
Bond    | 0.010498   | 0.010498   | 0.010498   |   0.0 | 18.45
Kspace  | 0.013986   | 0.013986   | 0.013986   |   0.0 | 24.58
Neigh   | 0          | 0          | 0          |   0.0 |  0.00
Comm    | 3.8624e-05 | 3.8624e-05 | 3.8624e-05 |   0.0 |  0.07
Output  | 0          | 0          | 0          |   0.0 |  0.00
Modify  | 0          | 0          | 0          |   0.0 |  0.00
Other   |            | 0.0005038  |            |       |  0.89

Nlocal:    216 ave 216 max 216 min
Histogram: 1 0 0 0 0 0 0 0 0 0
Nghost:    0 ave 0 max 0 min
Histogram: 1 0 0 0 0 0 0 0 0 0
Neighs:    9029 ave 9029 max 9029 min
Histogram: 1 0 0 0 0 0 0 0 0 0

Total # of neighbors = 9029
Ave neighs/atom = 41.8009
Ave special neighs/atom = 11.4537
Neighbor list builds = 0
Dangerous builds = 0
write_dump all custom pysimm.dump.tmp id q x y z vx vy vz
quit


################################################################################
##################################    Init    ##################################
################################################################################
units           real
atom_style      full
pair_style      lj/cut/coul/long 12.0  12.0
kspace_style    pppm 1e-4
bond_style      harmonic
angle_style     harmonic
dihedral_style  fourier
improper_style  cvff
special_bonds   amber
pair_modify     mix arithmetic
read_data       temp.lmps
  orthogonal box = (-112.656 -112.656 -112.656) to (112.656 112.656 112.656)
  1 by 1 by 1 MPI processor grid
  reading atoms ...
  288 atoms
  reading velocities ...
  288 velocities
  scanning bonds ...
  3 = max bonds/atom
  scanning angles ...
  6 = max angles/atom
  scanning dihedrals ...
  24 = max dihedrals/atom
  scanning impropers ...
  2 = max impropers/atom
  reading bonds ...
  319 bonds
  reading angles ...
  572 angles
  reading dihedrals ...
  876 dihedrals
  reading impropers ...
  80 impropers
  4 = max # of 1-2 neighbors
  10 = max # of 1-3 neighbors
  22 = max # of 1-4 neighbors
  23 = max # of special neighbors
  special bonds CPU = 0.000497818 secs
  read_data CPU = 0.0064311 secs
################################################################################

timestep        1
fix             pysimm_md all nve/limit 0.1
run             2000
PPPM initialization ...
  using 12-bit tables for long-range coulomb (../kspace.cpp:332)
  G vector (1/distance) = 0.0463485
  grid = 8 8 8
  stencil order = 5
  estimated absolute RMS force accuracy = 0.0400107
  estimated relative force accuracy = 0.000120491
  using double precision KISS FFT
  3d grid and FFT values/proc = 2197 512
Neighbor list info ...
  update every 1 steps, delay 10 steps, check yes
  max neighbors/atom: 2000, page size: 100000
  master list distance cutoff = 14
  ghost atom cutoff = 14
  binsize = 7, bins = 33 33 33
  1 neighbor lists, perpetual/occasional/extra = 1 0 0
  (1) pair lj/cut/coul/long, perpetual
      attributes: half, newton on
      pair build: half/bin/newton
      stencil: half/bin/3d/newton
      bin: standard
Per MPI rank memory allocation (min/avg/max) = 18.13 | 18.13 | 18.13 Mbytes
Step Temp E_pair E_mol TotEng Press 
       0    338.67548    335.56795    429.36453    1054.6668    2.5886109 
    2000    322.12047    271.63121    504.74112     1051.944  -0.99274059 
Loop time of 1.54095 on 1 procs for 2000 steps with 288 atoms

Performance: 112.139 ns/day, 0.214 hours/ns, 1297.902 timesteps/s
99.1% CPU use with 1 MPI tasks x no OpenMP threads

MPI task timing breakdown:
Section |  min time  |  avg time  |  max time  |%varavg| %total
---------------------------------------------------------------
Pair    | 0.5992     | 0.5992     | 0.5992     |   0.0 | 38.89
Bond    | 0.27388    | 0.27388    | 0.27388    |   0.0 | 17.77
Kspace  | 0.62416    | 0.62416    | 0.62416    |   0.0 | 40.50
Neigh   | 0.025652   | 0.025652   | 0.025652   |   0.0 |  1.66
Comm    | 0.0010808  | 0.0010808  | 0.0010808  |   0.0 |  0.07
Output  | 4.1962e-05 | 4.1962e-05 | 4.1962e-05 |   0.0 |  0.00
Modify  | 0.010279   | 0.010279   | 0.010279   |   0.0 |  0.67
Other   |            | 0.006653   |            |       |  0.43

Nlocal:    288 ave 288 max 288 min
Histogram: 1 0 0 0 0 0 0 0 0 0
Nghost:    0 ave 0 max 0 min
Histogram: 1 0 0 0 0 0 0 0 0 0
Neighs:    12239 ave 12239 max 12239 min
Histogram: 1 0 0 0 0 0 0 0 0 0

Total # of neighbors = 12239
Ave neighs/atom = 42.4965
Ave special neighs/atom = 11.4931
Neighbor list builds = 53
Dangerous builds = 0
unfix pysimm_md
min_style cg
minimize 0.001 0.001 10000 100000
WARNING: Using 'neigh_modify every 1 delay 0 check yes' setting during minimization (../min.cpp:190)
PPPM initialization ...
  using 12-bit tables for long-range coulomb (../kspace.cpp:332)
  G vector (1/distance) = 0.0463485
  grid = 8 8 8
  stencil order = 5
  estimated absolute RMS force accuracy = 0.0400107
  estimated relative force accuracy = 0.000120491
  using double precision KISS FFT
  3d grid and FFT values/proc = 2197 512
Per MPI rank memory allocation (min/avg/max) = 19.25 | 19.25 | 19.25 Mbytes
Step Temp E_pair E_mol TotEng Press 
    2000    322.12047    271.63121    504.74112     1051.944  -0.99274059 
    2015    322.12047    257.57017    300.26466    833.40647   0.83102692 
Loop time of 0.0298479 on 1 procs for 15 steps with 288 atoms

100.5% CPU use with 1 MPI tasks x no OpenMP threads

Minimization stats:
  Stopping criterion = energy tolerance
  Energy initial, next-to-last, final = 
         776.372335526      558.351800662      557.834825974
  Force two-norm initial, final = 531.595 47.5247
  Force max component initial, final = 70.9784 7.75662
  Final line search alpha, max atom move = 0.00648051 0.0502668
  Iterations, force evaluations = 15 30

MPI task timing breakdown:
Section |  min time  |  avg time  |  max time  |%varavg| %total
---------------------------------------------------------------
Pair    | 0.014429   | 0.014429   | 0.014429   |   0.0 | 48.34
Bond    | 0.0047922  | 0.0047922  | 0.0047922  |   0.0 | 16.06
Kspace  | 0.010339   | 0.010339   | 0.010339   |   0.0 | 34.64
Neigh   | 0          | 0          | 0          |   0.0 |  0.00
Comm    | 1.1683e-05 | 1.1683e-05 | 1.1683e-05 |   0.0 |  0.04
Output  | 0          | 0          | 0          |   0.0 |  0.00
Modify  | 0          | 0          | 0          |   0.0 |  0.00
Other   |            | 0.0002759  |            |       |  0.92

Nlocal:    288 ave 288 max 288 min
Histogram: 1 0 0 0 0 0 0 0 0 0
Nghost:    0 ave 0 max 0 min
Histogram: 1 0 0 0 0 0 0 0 0 0
Neighs:    12232 ave 12232 max 12232 min
Histogram: 1 0 0 0 0 0 0 0 0 0

Total # of neighbors = 12232
Ave neighs/atom = 42.4722
Ave special neighs/atom = 11.4931
Neighbor list builds = 0
Dangerous builds = 0
write_dump all custom pysimm.dump.tmp id q x y z vx vy vz
quit


################################################################################
##################################    Init    ##################################
################################################################################
units           real
atom_style      full
pair_style      lj/cut/coul/long 12.0  12.0
kspace_style    pppm 1e-4
bond_style      harmonic
angle_style     harmonic
dihedral_style  fourier
improper_style  cvff
special_bonds   amber
pair_modify     mix arithmetic
read_data       temp.lmps
  orthogonal box = (-112.656 -112.656 -112.656) to (112.656 112.656 112.656)
  1 by 1 by 1 MPI processor grid
  reading atoms ...
  360 atoms
  reading velocities ...
  360 velocities
  scanning bonds ...
  3 = max bonds/atom
  scanning angles ...
  6 = max angles/atom
  scanning dihedrals ...
  24 = max dihedrals/atom
  scanning impropers ...
  2 = max impropers/atom
  reading bonds ...
  399 bonds
  reading angles ...
  716 angles
  reading dihedrals ...
  1098 dihedrals
  reading impropers ...
  100 impropers
  4 = max # of 1-2 neighbors
  10 = max # of 1-3 neighbors
  22 = max # of 1-4 neighbors
  23 = max # of special neighbors
  special bonds CPU = 0.000530958 secs
  read_data CPU = 0.00700498 secs
################################################################################

timestep        1
fix             pysimm_md all nve/limit 0.1
run             2000
PPPM initialization ...
WARNING: System is not charge neutral, net charge = -1e-05 (../kspace.cpp:313)
  using 12-bit tables for long-range coulomb (../kspace.cpp:332)
  G vector (1/distance) = 0.0563142
  grid = 10 10 10
  stencil order = 5
  estimated absolute RMS force accuracy = 0.0386028
  estimated relative force accuracy = 0.000116251
  using double precision KISS FFT
  3d grid and FFT values/proc = 3375 1000
Neighbor list info ...
  update every 1 steps, delay 10 steps, check yes
  max neighbors/atom: 2000, page size: 100000
  master list distance cutoff = 14
  ghost atom cutoff = 14
  binsize = 7, bins = 33 33 33
  1 neighbor lists, perpetual/occasional/extra = 1 0 0
  (1) pair lj/cut/coul/long, perpetual
      attributes: half, newton on
      pair build: half/bin/newton
      stencil: half/bin/3d/newton
      bin: standard
Per MPI rank memory allocation (min/avg/max) = 18.23 | 18.23 | 18.23 Mbytes
Step Temp E_pair E_mol TotEng Press 
       0    259.61455    327.71573    475.48155    1081.0136  -0.13926484 
    2000    203.53781    345.65581    523.62661    1087.0904  -0.23641236 
Loop time of 1.93674 on 1 procs for 2000 steps with 360 atoms

Performance: 89.222 ns/day, 0.269 hours/ns, 1032.663 timesteps/s
99.9% CPU use with 1 MPI tasks x no OpenMP threads

MPI task timing breakdown:
Section |  min time  |  avg time  |  max time  |%varavg| %total
---------------------------------------------------------------
Pair    | 0.68526    | 0.68526    | 0.68526    |   0.0 | 35.38
Bond    | 0.31836    | 0.31836    | 0.31836    |   0.0 | 16.44
Kspace  | 0.88982    | 0.88982    | 0.88982    |   0.0 | 45.94
Neigh   | 0.02383    | 0.02383    | 0.02383    |   0.0 |  1.23
Comm    | 0.0011203  | 0.0011203  | 0.0011203  |   0.0 |  0.06
Output  | 1.8835e-05 | 1.8835e-05 | 1.8835e-05 |   0.0 |  0.00
Modify  | 0.01156    | 0.01156    | 0.01156    |   0.0 |  0.60
Other   |            | 0.006769   |            |       |  0.35

Nlocal:    360 ave 360 max 360 min
Histogram: 1 0 0 0 0 0 0 0 0 0
Nghost:    0 ave 0 max 0 min
Histogram: 1 0 0 0 0 0 0 0 0 0
Neighs:    15854 ave 15854 max 15854 min
Histogram: 1 0 0 0 0 0 0 0 0 0

Total # of neighbors = 15854
Ave neighs/atom = 44.0389
Ave special neighs/atom = 11.5167
Neighbor list builds = 43
Dangerous builds = 0
unfix pysimm_md
min_style cg
minimize 0.001 0.001 10000 100000
WARNING: Using 'neigh_modify every 1 delay 0 check yes' setting during minimization (../min.cpp:190)
PPPM initialization ...
  using 12-bit tables for long-range coulomb (../kspace.cpp:332)
  G vector (1/distance) = 0.0563142
  grid = 10 10 10
  stencil order = 5
  estimated absolute RMS force accuracy = 0.0386028
  estimated relative force accuracy = 0.000116251
  using double precision KISS FFT
  3d grid and FFT values/proc = 3375 1000
Per MPI rank memory allocation (min/avg/max) = 19.35 | 19.35 | 19.35 Mbytes
Step Temp E_pair E_mol TotEng Press 
    2000    203.53781    345.65581    523.62661    1087.0904  -0.23641236 
    2015    203.53781    333.46033    377.09885    928.36718     1.026331 
Loop time of 0.104594 on 1 procs for 15 steps with 360 atoms

100.4% CPU use with 1 MPI tasks x no OpenMP threads

Minimization stats:
  Stopping criterion = linesearch alpha is zero
  Energy initial, next-to-last, final = 
         869.282417496      710.559179376      710.559179376
  Force two-norm initial, final = 471.167 50.9984
  Force max component initial, final = 59.2187 6.9222
  Final line search alpha, max atom move = 3.77261e-12 2.61148e-11
  Iterations, force evaluations = 15 89

MPI task timing breakdown:
Section |  min time  |  avg time  |  max time  |%varavg| %total
---------------------------------------------------------------
Pair    | 0.048451   | 0.048451   | 0.048451   |   0.0 | 46.32
Bond    | 0.015573   | 0.015573   | 0.015573   |   0.0 | 14.89
Kspace  | 0.039911   | 0.039911   | 0.039911   |   0.0 | 38.16
Neigh   | 0          | 0          | 0          |   0.0 |  0.00
Comm    | 5.8651e-05 | 5.8651e-05 | 5.8651e-05 |   0.0 |  0.06
Output  | 0          | 0          | 0          |   0.0 |  0.00
Modify  | 0          | 0          | 0          |   0.0 |  0.00
Other   |            | 0.0006006  |            |       |  0.57

Nlocal:    360 ave 360 max 360 min
Histogram: 1 0 0 0 0 0 0 0 0 0
Nghost:    0 ave 0 max 0 min
Histogram: 1 0 0 0 0 0 0 0 0 0
Neighs:    15862 ave 15862 max 15862 min
Histogram: 1 0 0 0 0 0 0 0 0 0

Total # of neighbors = 15862
Ave neighs/atom = 44.0611
Ave special neighs/atom = 11.5167
Neighbor list builds = 0
Dangerous builds = 0
write_dump all custom pysimm.dump.tmp id q x y z vx vy vz
quit


################################################################################
##################################    Init    ##################################
################################################################################
units           real
atom_style      full
pair_style      lj/cut/coul/long 12.0  12.0
kspace_style    pppm 1e-4
bond_style      harmonic
angle_style     harmonic
dihedral_style  fourier
improper_style  cvff
special_bonds   amber
pair_modify     mix arithmetic
read_data       temp.lmps
  orthogonal box = (-112.656 -112.656 -112.656) to (112.656 112.656 112.656)
  1 by 1 by 1 MPI processor grid
  reading atoms ...
  432 atoms
  reading velocities ...
  432 velocities
  scanning bonds ...
  3 = max bonds/atom
  scanning angles ...
  6 = max angles/atom
  scanning dihedrals ...
  24 = max dihedrals/atom
  scanning impropers ...
  2 = max impropers/atom
  reading bonds ...
  479 bonds
  reading angles ...
  860 angles
  reading dihedrals ...
  1320 dihedrals
  reading impropers ...
  120 impropers
  4 = max # of 1-2 neighbors
  10 = max # of 1-3 neighbors
  22 = max # of 1-4 neighbors
  23 = max # of special neighbors
  special bonds CPU = 0.000564098 secs
  read_data CPU = 0.00740504 secs
################################################################################

timestep        1
fix             pysimm_md all nve/limit 0.1
run             2000
PPPM initialization ...
WARNING: System is not charge neutral, net charge = -1.2e-05 (../kspace.cpp:313)
  using 12-bit tables for long-range coulomb (../kspace.cpp:332)
  G vector (1/distance) = 0.0657026
  grid = 12 12 12
  stencil order = 5
  estimated absolute RMS force accuracy = 0.0358584
  estimated relative force accuracy = 0.000107986
  using double precision KISS FFT
  3d grid and FFT values/proc = 4913 1728
Neighbor list info ...
  update every 1 steps, delay 10 steps, check yes
  max neighbors/atom: 2000, page size: 100000
  master list distance cutoff = 14
  ghost atom cutoff = 14
  binsize = 7, bins = 33 33 33
  1 neighbor lists, perpetual/occasional/extra = 1 0 0
  (1) pair lj/cut/coul/long, perpetual
      attributes: half, newton on
      pair build: half/bin/newton
      stencil: half/bin/3d/newton
      bin: standard
Per MPI rank memory allocation (min/avg/max) = 18.36 | 18.36 | 18.36 Mbytes
Step Temp E_pair E_mol TotEng Press 
       0    171.28345    410.09172    557.32845     1187.473   0.25172602 
    2000    140.44445    405.07504     594.4229     1179.931   0.25851954 
Loop time of 2.47213 on 1 procs for 2000 steps with 432 atoms

Performance: 69.899 ns/day, 0.343 hours/ns, 809.020 timesteps/s
100.0% CPU use with 1 MPI tasks x no OpenMP threads

MPI task timing breakdown:
Section |  min time  |  avg time  |  max time  |%varavg| %total
---------------------------------------------------------------
Pair    | 0.85259    | 0.85259    | 0.85259    |   0.0 | 34.49
Bond    | 0.38195    | 0.38195    | 0.38195    |   0.0 | 15.45
Kspace  | 1.1898     | 1.1898     | 1.1898     |   0.0 | 48.13
Neigh   | 0.023602   | 0.023602   | 0.023602   |   0.0 |  0.95
Comm    | 0.0017614  | 0.0017614  | 0.0017614  |   0.0 |  0.07
Output  | 2.408e-05  | 2.408e-05  | 2.408e-05  |   0.0 |  0.00
Modify  | 0.014633   | 0.014633   | 0.014633   |   0.0 |  0.59
Other   |            | 0.007812   |            |       |  0.32

Nlocal:    432 ave 432 max 432 min
Histogram: 1 0 0 0 0 0 0 0 0 0
Nghost:    29 ave 29 max 29 min
Histogram: 1 0 0 0 0 0 0 0 0 0
Neighs:    20004 ave 20004 max 20004 min
Histogram: 1 0 0 0 0 0 0 0 0 0

Total # of neighbors = 20004
Ave neighs/atom = 46.3056
Ave special neighs/atom = 11.5324
Neighbor list builds = 34
Dangerous builds = 0
unfix pysimm_md
min_style cg
minimize 0.001 0.001 10000 100000
WARNING: Using 'neigh_modify every 1 delay 0 check yes' setting during minimization (../min.cpp:190)
PPPM initialization ...
  using 12-bit tables for long-range coulomb (../kspace.cpp:332)
  G vector (1/distance) = 0.0657026
  grid = 12 12 12
  stencil order = 5
  estimated absolute RMS force accuracy = 0.0358584
  estimated relative force accuracy = 0.000107986
  using double precision KISS FFT
  3d grid and FFT values/proc = 4913 1728
Per MPI rank memory allocation (min/avg/max) = 19.48 | 19.48 | 19.48 Mbytes
Step Temp E_pair E_mol TotEng Press 
    2000    140.44445    405.07504     594.4229     1179.931   0.25851954 
    2017    140.44445    395.84579    445.54799    1021.8269    1.1597332 
Loop time of 0.0566311 on 1 procs for 17 steps with 432 atoms

100.6% CPU use with 1 MPI tasks x no OpenMP threads

Minimization stats:
  Stopping criterion = energy tolerance
  Energy initial, next-to-last, final = 
         999.497937995      842.080507188       841.39377861
  Force two-norm initial, final = 472.078 44.7032
  Force max component initial, final = 63.9653 5.60668
  Final line search alpha, max atom move = 0.0053649 0.0300793
  Iterations, force evaluations = 17 34

MPI task timing breakdown:
Section |  min time  |  avg time  |  max time  |%varavg| %total
---------------------------------------------------------------
Pair    | 0.026323   | 0.026323   | 0.026323   |   0.0 | 46.48
Bond    | 0.0076816  | 0.0076816  | 0.0076816  |   0.0 | 13.56
Kspace  | 0.022147   | 0.022147   | 0.022147   |   0.0 | 39.11
Neigh   | 0          | 0          | 0          |   0.0 |  0.00
Comm    | 2.5988e-05 | 2.5988e-05 | 2.5988e-05 |   0.0 |  0.05
Output  | 0          | 0          | 0          |   0.0 |  0.00
Modify  | 0          | 0          | 0          |   0.0 |  0.00
Other   |            | 0.0004532  |            |       |  0.80

Nlocal:    432 ave 432 max 432 min
Histogram: 1 0 0 0 0 0 0 0 0 0
Nghost:    29 ave 29 max 29 min
Histogram: 1 0 0 0 0 0 0 0 0 0
Neighs:    20003 ave 20003 max 20003 min
Histogram: 1 0 0 0 0 0 0 0 0 0

Total # of neighbors = 20003
Ave neighs/atom = 46.3032
Ave special neighs/atom = 11.5324
Neighbor list builds = 0
Dangerous builds = 0
write_dump all custom pysimm.dump.tmp id q x y z vx vy vz
quit


################################################################################
##################################    Init    ##################################
################################################################################
units           real
atom_style      full
pair_style      lj/cut/coul/long 12.0  12.0
kspace_style    pppm 1e-4
bond_style      harmonic
angle_style     harmonic
dihedral_style  fourier
improper_style  cvff
special_bonds   amber
pair_modify     mix arithmetic
read_data       temp.lmps
  orthogonal box = (-112.656 -112.656 -112.656) to (112.656 112.656 112.656)
  1 by 1 by 1 MPI processor grid
  reading atoms ...
  504 atoms
  reading velocities ...
  504 velocities
  scanning bonds ...
  3 = max bonds/atom
  scanning angles ...
  6 = max angles/atom
  scanning dihedrals ...
  24 = max dihedrals/atom
  scanning impropers ...
  2 = max impropers/atom
  reading bonds ...
  559 bonds
  reading angles ...
  1004 angles
  reading dihedrals ...
  1542 dihedrals
  reading impropers ...
  140 impropers
  4 = max # of 1-2 neighbors
  10 = max # of 1-3 neighbors
  22 = max # of 1-4 neighbors
  23 = max # of special neighbors
  special bonds CPU = 0.000771999 secs
  read_data CPU = 0.0110312 secs
################################################################################

timestep        1
fix             pysimm_md all nve/limit 0.1
run             2000
PPPM initialization ...
WARNING: System is not charge neutral, net charge = -1.4e-05 (../kspace.cpp:313)
  using 12-bit tables for long-range coulomb (../kspace.cpp:332)
  G vector (1/distance) = 0.0787349
  grid = 15 15 15
  stencil order = 5
  estimated absolute RMS force accuracy = 0.0295349
  estimated relative force accuracy = 8.89434e-05
  using double precision KISS FFT
  3d grid and FFT values/proc = 8000 3375
Neighbor list info ...
  update every 1 steps, delay 10 steps, check yes
  max neighbors/atom: 2000, page size: 100000
  master list distance cutoff = 14
  ghost atom cutoff = 14
  binsize = 7, bins = 33 33 33
  1 neighbor lists, perpetual/occasional/extra = 1 0 0
  (1) pair lj/cut/coul/long, perpetual
      attributes: half, newton on
      pair build: half/bin/newton
      stencil: half/bin/3d/newton
      bin: standard
Per MPI rank memory allocation (min/avg/max) = 18.63 | 18.63 | 18.63 Mbytes
Step Temp E_pair E_mol TotEng Press 
       0    121.83829      599.369    611.58935    1393.6363    3.5562716 
    2000    125.83144    469.93267    671.36534    1329.9631  -0.49041782 
Loop time of 3.5873 on 1 procs for 2000 steps with 504 atoms

Performance: 48.170 ns/day, 0.498 hours/ns, 557.522 timesteps/s
100.0% CPU use with 1 MPI tasks x no OpenMP threads

MPI task timing breakdown:
Section |  min time  |  avg time  |  max time  |%varavg| %total
---------------------------------------------------------------
Pair    | 1.0632     | 1.0632     | 1.0632     |   0.0 | 29.64
Bond    | 0.45905    | 0.45905    | 0.45905    |   0.0 | 12.80
Kspace  | 2.0018     | 2.0018     | 2.0018     |   0.0 | 55.80
Neigh   | 0.035232   | 0.035232   | 0.035232   |   0.0 |  0.98
Comm    | 0.0030415  | 0.0030415  | 0.0030415  |   0.0 |  0.08
Output  | 2.0981e-05 | 2.0981e-05 | 2.0981e-05 |   0.0 |  0.00
Modify  | 0.016464   | 0.016464   | 0.016464   |   0.0 |  0.46
Other   |            | 0.00849    |            |       |  0.24

Nlocal:    504 ave 504 max 504 min
Histogram: 1 0 0 0 0 0 0 0 0 0
Nghost:    97 ave 97 max 97 min
Histogram: 1 0 0 0 0 0 0 0 0 0
Neighs:    23149 ave 23149 max 23149 min
Histogram: 1 0 0 0 0 0 0 0 0 0

Total # of neighbors = 23149
Ave neighs/atom = 45.9306
Ave special neighs/atom = 11.5437
Neighbor list builds = 42
Dangerous builds = 0
unfix pysimm_md
min_style cg
minimize 0.001 0.001 10000 100000
WARNING: Using 'neigh_modify every 1 delay 0 check yes' setting during minimization (../min.cpp:190)
PPPM initialization ...
  using 12-bit tables for long-range coulomb (../kspace.cpp:332)
  G vector (1/distance) = 0.0787349
  grid = 15 15 15
  stencil order = 5
  estimated absolute RMS force accuracy = 0.0295349
  estimated relative force accuracy = 8.89434e-05
  using double precision KISS FFT
  3d grid and FFT values/proc = 8000 3375
Per MPI rank memory allocation (min/avg/max) = 19.75 | 19.75 | 19.75 Mbytes
Step Temp E_pair E_mol TotEng Press 
    2000    125.83144    469.93267    671.36534    1329.9631  -0.49041782 
    2018    125.83144    460.25997    520.64865    1169.5737   0.79380333 
Loop time of 0.0794358 on 1 procs for 18 steps with 504 atoms

100.7% CPU use with 1 MPI tasks x no OpenMP threads

Minimization stats:
  Stopping criterion = energy tolerance
  Energy initial, next-to-last, final = 
         1141.29801202      981.781272379      980.908624315
  Force two-norm initial, final = 453.889 39.7796
  Force max component initial, final = 84.5929 5.35679
  Final line search alpha, max atom move = 0.00513253 0.0274939
  Iterations, force evaluations = 18 36

MPI task timing breakdown:
Section |  min time  |  avg time  |  max time  |%varavg| %total
---------------------------------------------------------------
Pair    | 0.031724   | 0.031724   | 0.031724   |   0.0 | 39.94
Bond    | 0.0093188  | 0.0093188  | 0.0093188  |   0.0 | 11.73
Kspace  | 0.037846   | 0.037846   | 0.037846   |   0.0 | 47.64
Neigh   | 0          | 0          | 0          |   0.0 |  0.00
Comm    | 3.9816e-05 | 3.9816e-05 | 3.9816e-05 |   0.0 |  0.05
Output  | 0          | 0          | 0          |   0.0 |  0.00
Modify  | 0          | 0          | 0          |   0.0 |  0.00
Other   |            | 0.0005071  |            |       |  0.64

Nlocal:    504 ave 504 max 504 min
Histogram: 1 0 0 0 0 0 0 0 0 0
Nghost:    97 ave 97 max 97 min
Histogram: 1 0 0 0 0 0 0 0 0 0
Neighs:    23150 ave 23150 max 23150 min
Histogram: 1 0 0 0 0 0 0 0 0 0

Total # of neighbors = 23150
Ave neighs/atom = 45.9325
Ave special neighs/atom = 11.5437
Neighbor list builds = 0
Dangerous builds = 0
write_dump all custom pysimm.dump.tmp id q x y z vx vy vz
quit


################################################################################
##################################    Init    ##################################
################################################################################
units           real
atom_style      full
pair_style      lj/cut/coul/long 12.0  12.0
kspace_style    pppm 1e-4
bond_style      harmonic
angle_style     harmonic
dihedral_style  fourier
improper_style  cvff
special_bonds   amber
pair_modify     mix arithmetic
read_data       temp.lmps
  orthogonal box = (-112.656 -112.656 -112.656) to (112.656 112.656 112.656)
  1 by 1 by 1 MPI processor grid
  reading atoms ...
  576 atoms
  reading velocities ...
  576 velocities
  scanning bonds ...
  3 = max bonds/atom
  scanning angles ...
  6 = max angles/atom
  scanning dihedrals ...
  24 = max dihedrals/atom
  scanning impropers ...
  2 = max impropers/atom
  reading bonds ...
  639 bonds
  reading angles ...
  1148 angles
  reading dihedrals ...
  1764 dihedrals
  reading impropers ...
  160 impropers
  4 = max # of 1-2 neighbors
  10 = max # of 1-3 neighbors
  22 = max # of 1-4 neighbors
  23 = max # of special neighbors
  special bonds CPU = 0.000721931 secs
  read_data CPU = 0.00866199 secs
################################################################################

timestep        1
fix             pysimm_md all nve/limit 0.1
run             2000
PPPM initialization ...
WARNING: System is not charge neutral, net charge = -1.6e-05 (../kspace.cpp:313)
  using 12-bit tables for long-range coulomb (../kspace.cpp:332)
  G vector (1/distance) = 0.0787345
  grid = 15 15 15
  stencil order = 5
  estimated absolute RMS force accuracy = 0.0315736
  estimated relative force accuracy = 9.50828e-05
  using double precision KISS FFT
  3d grid and FFT values/proc = 8000 3375
Neighbor list info ...
  update every 1 steps, delay 10 steps, check yes
  max neighbors/atom: 2000, page size: 100000
  master list distance cutoff = 14
  ghost atom cutoff = 14
  binsize = 7, bins = 33 33 33
  1 neighbor lists, perpetual/occasional/extra = 1 0 0
  (1) pair lj/cut/coul/long, perpetual
      attributes: half, newton on
      pair build: half/bin/newton
      stencil: half/bin/3d/newton
      bin: standard
Per MPI rank memory allocation (min/avg/max) = 18.64 | 18.64 | 18.64 Mbytes
Step Temp E_pair E_mol TotEng Press 
       0     111.3849    540.63563    713.63924    1445.1848  0.060555206 
    2000    107.05211    540.41826    725.03786    1448.9398   0.15192561 
Loop time of 3.83598 on 1 procs for 2000 steps with 576 atoms

Performance: 45.047 ns/day, 0.533 hours/ns, 521.379 timesteps/s
100.0% CPU use with 1 MPI tasks x no OpenMP threads

MPI task timing breakdown:
Section |  min time  |  avg time  |  max time  |%varavg| %total
---------------------------------------------------------------
Pair    | 1.2031     | 1.2031     | 1.2031     |   0.0 | 31.36
Bond    | 0.52483    | 0.52483    | 0.52483    |   0.0 | 13.68
Kspace  | 2.0431     | 2.0431     | 2.0431     |   0.0 | 53.26
Neigh   | 0.032889   | 0.032889   | 0.032889   |   0.0 |  0.86
Comm    | 0.0034673  | 0.0034673  | 0.0034673  |   0.0 |  0.09
Output  | 2.7895e-05 | 2.7895e-05 | 2.7895e-05 |   0.0 |  0.00
Modify  | 0.018975   | 0.018975   | 0.018975   |   0.0 |  0.49
Other   |            | 0.009583   |            |       |  0.25

Nlocal:    576 ave 576 max 576 min
Histogram: 1 0 0 0 0 0 0 0 0 0
Nghost:    134 ave 134 max 134 min
Histogram: 1 0 0 0 0 0 0 0 0 0
Neighs:    26326 ave 26326 max 26326 min
Histogram: 1 0 0 0 0 0 0 0 0 0

Total # of neighbors = 26326
Ave neighs/atom = 45.7049
Ave special neighs/atom = 11.5521
Neighbor list builds = 34
Dangerous builds = 0
unfix pysimm_md
min_style cg
minimize 0.001 0.001 10000 100000
WARNING: Using 'neigh_modify every 1 delay 0 check yes' setting during minimization (../min.cpp:190)
PPPM initialization ...
  using 12-bit tables for long-range coulomb (../kspace.cpp:332)
  G vector (1/distance) = 0.0787345
  grid = 15 15 15
  stencil order = 5
  estimated absolute RMS force accuracy = 0.0315736
  estimated relative force accuracy = 9.50828e-05
  using double precision KISS FFT
  3d grid and FFT values/proc = 8000 3375
Per MPI rank memory allocation (min/avg/max) = 19.76 | 19.76 | 19.76 Mbytes
Step Temp E_pair E_mol TotEng Press 
    2000    107.05211    540.41826    725.03786    1448.9398   0.15192561 
    2010    107.05211    533.61763    606.75996    1323.8613   0.30009421 
Loop time of 0.0476658 on 1 procs for 10 steps with 576 atoms

98.6% CPU use with 1 MPI tasks x no OpenMP threads

Minimization stats:
  Stopping criterion = energy tolerance
  Energy initial, next-to-last, final = 
         1265.45612455      1141.45014978      1140.37759634
  Force two-norm initial, final = 439.425 66.0869
  Force max component initial, final = 60.0796 10.494
  Final line search alpha, max atom move = 0.00493799 0.0518191
  Iterations, force evaluations = 10 20

MPI task timing breakdown:
Section |  min time  |  avg time  |  max time  |%varavg| %total
---------------------------------------------------------------
Pair    | 0.019593   | 0.019593   | 0.019593   |   0.0 | 41.10
Bond    | 0.0058579  | 0.0058579  | 0.0058579  |   0.0 | 12.29
Kspace  | 0.021848   | 0.021848   | 0.021848   |   0.0 | 45.84
Neigh   | 0          | 0          | 0          |   0.0 |  0.00
Comm    | 3.1233e-05 | 3.1233e-05 | 3.1233e-05 |   0.0 |  0.07
Output  | 0          | 0          | 0          |   0.0 |  0.00
Modify  | 0          | 0          | 0          |   0.0 |  0.00
Other   |            | 0.0003359  |            |       |  0.70

Nlocal:    576 ave 576 max 576 min
Histogram: 1 0 0 0 0 0 0 0 0 0
Nghost:    133 ave 133 max 133 min
Histogram: 1 0 0 0 0 0 0 0 0 0
Neighs:    26343 ave 26343 max 26343 min
Histogram: 1 0 0 0 0 0 0 0 0 0

Total # of neighbors = 26343
Ave neighs/atom = 45.7344
Ave special neighs/atom = 11.5521
Neighbor list builds = 0
Dangerous builds = 0
write_dump all custom pysimm.dump.tmp id q x y z vx vy vz
quit


################################################################################
##################################    Init    ##################################
################################################################################
units           real
atom_style      full
pair_style      lj/cut/coul/long 12.0  12.0
kspace_style    pppm 1e-4
bond_style      harmonic
angle_style     harmonic
dihedral_style  fourier
improper_style  cvff
special_bonds   amber
pair_modify     mix arithmetic
read_data       temp.lmps
  orthogonal box = (-112.656 -112.656 -112.656) to (112.656 112.656 112.656)
  1 by 1 by 1 MPI processor grid
  reading atoms ...
  648 atoms
  reading velocities ...
  648 velocities
  scanning bonds ...
  3 = max bonds/atom
  scanning angles ...
  6 = max angles/atom
  scanning dihedrals ...
  24 = max dihedrals/atom
  scanning impropers ...
  2 = max impropers/atom
  reading bonds ...
  719 bonds
  reading angles ...
  1292 angles
  reading dihedrals ...
  1986 dihedrals
  reading impropers ...
  180 impropers
  4 = max # of 1-2 neighbors
  10 = max # of 1-3 neighbors
  22 = max # of 1-4 neighbors
  23 = max # of special neighbors
  special bonds CPU = 0.000730038 secs
  read_data CPU = 0.00959611 secs
################################################################################

timestep        1
fix             pysimm_md all nve/limit 0.1
run             2000
PPPM initialization ...
WARNING: System is not charge neutral, net charge = -1.8e-05 (../kspace.cpp:313)
  using 12-bit tables for long-range coulomb (../kspace.cpp:332)
  G vector (1/distance) = 0.0787347
  grid = 15 15 15
  stencil order = 5
  estimated absolute RMS force accuracy = 0.0334891
  estimated relative force accuracy = 0.000100851
  using double precision KISS FFT
  3d grid and FFT values/proc = 8000 3375
Neighbor list info ...
  update every 1 steps, delay 10 steps, check yes
  max neighbors/atom: 2000, page size: 100000
  master list distance cutoff = 14
  ghost atom cutoff = 14
  binsize = 7, bins = 33 33 33
  1 neighbor lists, perpetual/occasional/extra = 1 0 0
  (1) pair lj/cut/coul/long, perpetual
      attributes: half, newton on
      pair build: half/bin/newton
      stencil: half/bin/3d/newton
      bin: standard
Per MPI rank memory allocation (min/avg/max) = 18.65 | 18.65 | 18.65 Mbytes
Step Temp E_pair E_mol TotEng Press 
       0    96.303041    607.68771    787.55299    1580.9692  -0.57799429 
    2000    93.161947    601.28339    800.24426    1581.1983   -1.6029851 
Loop time of 4.53788 on 1 procs for 2000 steps with 648 atoms

Performance: 38.079 ns/day, 0.630 hours/ns, 440.735 timesteps/s
100.0% CPU use with 1 MPI tasks x no OpenMP threads

MPI task timing breakdown:
Section |  min time  |  avg time  |  max time  |%varavg| %total
---------------------------------------------------------------
Pair    | 1.5102     | 1.5102     | 1.5102     |   0.0 | 33.28
Bond    | 0.61226    | 0.61226    | 0.61226    |   0.0 | 13.49
Kspace  | 2.3413     | 2.3413     | 2.3413     |   0.0 | 51.60
Neigh   | 0.038153   | 0.038153   | 0.038153   |   0.0 |  0.84
Comm    | 0.0032885  | 0.0032885  | 0.0032885  |   0.0 |  0.07
Output  | 2.2888e-05 | 2.2888e-05 | 2.2888e-05 |   0.0 |  0.00
Modify  | 0.022392   | 0.022392   | 0.022392   |   0.0 |  0.49
Other   |            | 0.01019    |            |       |  0.22

Nlocal:    648 ave 648 max 648 min
Histogram: 1 0 0 0 0 0 0 0 0 0
Nghost:    133 ave 133 max 133 min
Histogram: 1 0 0 0 0 0 0 0 0 0
Neighs:    29903 ave 29903 max 29903 min
Histogram: 1 0 0 0 0 0 0 0 0 0

Total # of neighbors = 29903
Ave neighs/atom = 46.1466
Ave special neighs/atom = 11.5586
Neighbor list builds = 34
Dangerous builds = 0
unfix pysimm_md
min_style cg
minimize 0.001 0.001 10000 100000
WARNING: Using 'neigh_modify every 1 delay 0 check yes' setting during minimization (../min.cpp:190)
PPPM initialization ...
  using 12-bit tables for long-range coulomb (../kspace.cpp:332)
  G vector (1/distance) = 0.0787347
  grid = 15 15 15
  stencil order = 5
  estimated absolute RMS force accuracy = 0.0334891
  estimated relative force accuracy = 0.000100851
  using double precision KISS FFT
  3d grid and FFT values/proc = 8000 3375
Per MPI rank memory allocation (min/avg/max) = 19.77 | 19.77 | 19.77 Mbytes
Step Temp E_pair E_mol TotEng Press 
    2000    93.161947    601.28339    800.24426    1581.1983   -1.6029851 
    2014    93.161947    592.40897      673.372    1445.4516  0.071727008 
Loop time of 0.0721459 on 1 procs for 14 steps with 648 atoms

99.8% CPU use with 1 MPI tasks x no OpenMP threads

Minimization stats:
  Stopping criterion = energy tolerance
  Energy initial, next-to-last, final = 
         1401.52765206      1266.92682972      1265.78097063
  Force two-norm initial, final = 452.059 50.0894
  Force max component initial, final = 102.057 8.26062
  Final line search alpha, max atom move = 0.00543786 0.0449201
  Iterations, force evaluations = 14 28

MPI task timing breakdown:
Section |  min time  |  avg time  |  max time  |%varavg| %total
---------------------------------------------------------------
Pair    | 0.031498   | 0.031498   | 0.031498   |   0.0 | 43.66
Bond    | 0.0091503  | 0.0091503  | 0.0091503  |   0.0 | 12.68
Kspace  | 0.030997   | 0.030997   | 0.030997   |   0.0 | 42.96
Neigh   | 0          | 0          | 0          |   0.0 |  0.00
Comm    | 4.0054e-05 | 4.0054e-05 | 4.0054e-05 |   0.0 |  0.06
Output  | 0          | 0          | 0          |   0.0 |  0.00
Modify  | 0          | 0          | 0          |   0.0 |  0.00
Other   |            | 0.0004613  |            |       |  0.64

Nlocal:    648 ave 648 max 648 min
Histogram: 1 0 0 0 0 0 0 0 0 0
Nghost:    134 ave 134 max 134 min
Histogram: 1 0 0 0 0 0 0 0 0 0
Neighs:    29903 ave 29903 max 29903 min
Histogram: 1 0 0 0 0 0 0 0 0 0

Total # of neighbors = 29903
Ave neighs/atom = 46.1466
Ave special neighs/atom = 11.5586
Neighbor list builds = 0
Dangerous builds = 0
write_dump all custom pysimm.dump.tmp id q x y z vx vy vz
quit


################################################################################
##################################    Init    ##################################
################################################################################
units           real
atom_style      full
pair_style      lj/cut/coul/long 12.0  12.0
kspace_style    pppm 1e-4
bond_style      harmonic
angle_style     harmonic
dihedral_style  fourier
improper_style  cvff
special_bonds   amber
pair_modify     mix arithmetic
read_data       temp.lmps
  orthogonal box = (-112.656 -112.656 -112.656) to (112.656 112.656 112.656)
  1 by 1 by 1 MPI processor grid
  reading atoms ...
  720 atoms
  reading velocities ...
  720 velocities
  scanning bonds ...
  3 = max bonds/atom
  scanning angles ...
  6 = max angles/atom
  scanning dihedrals ...
  24 = max dihedrals/atom
  scanning impropers ...
  2 = max impropers/atom
  reading bonds ...
  799 bonds
  reading angles ...
  1436 angles
  reading dihedrals ...
  2208 dihedrals
  reading impropers ...
  200 impropers
  4 = max # of 1-2 neighbors
  10 = max # of 1-3 neighbors
  22 = max # of 1-4 neighbors
  23 = max # of special neighbors
  special bonds CPU = 0.000810862 secs
  read_data CPU = 0.0100479 secs
################################################################################

timestep        1
fix             pysimm_md all nve/limit 0.1
run             2000
PPPM initialization ...
WARNING: System is not charge neutral, net charge = -2e-05 (../kspace.cpp:313)
  using 12-bit tables for long-range coulomb (../kspace.cpp:332)
  G vector (1/distance) = 0.0787345
  grid = 15 15 15
  stencil order = 5
  estimated absolute RMS force accuracy = 0.0353003
  estimated relative force accuracy = 0.000106306
  using double precision KISS FFT
  3d grid and FFT values/proc = 8000 3375
Neighbor list info ...
  update every 1 steps, delay 10 steps, check yes
  max neighbors/atom: 2000, page size: 100000
  master list distance cutoff = 14
  ghost atom cutoff = 14
  binsize = 7, bins = 33 33 33
  1 neighbor lists, perpetual/occasional/extra = 1 0 0
  (1) pair lj/cut/coul/long, perpetual
      attributes: half, newton on
      pair build: half/bin/newton
      stencil: half/bin/3d/newton
      bin: standard
Per MPI rank memory allocation (min/avg/max) = 18.65 | 18.65 | 18.65 Mbytes
Step Temp E_pair E_mol TotEng Press 
       0    84.880225    662.58327    843.62156    1688.1203  -0.78224584 
    2000    75.996221    683.07482    846.15095     1692.101    1.7101669 
Loop time of 4.39613 on 1 procs for 2000 steps with 720 atoms

Performance: 39.307 ns/day, 0.611 hours/ns, 454.946 timesteps/s
100.1% CPU use with 1 MPI tasks x no OpenMP threads

MPI task timing breakdown:
Section |  min time  |  avg time  |  max time  |%varavg| %total
---------------------------------------------------------------
Pair    | 1.4643     | 1.4643     | 1.4643     |   0.0 | 33.31
Bond    | 0.64045    | 0.64045    | 0.64045    |   0.0 | 14.57
Kspace  | 2.2219     | 2.2219     | 2.2219     |   0.0 | 50.54
Neigh   | 0.033224   | 0.033224   | 0.033224   |   0.0 |  0.76
Comm    | 0.0031993  | 0.0031993  | 0.0031993  |   0.0 |  0.07
Output  | 2.8133e-05 | 2.8133e-05 | 2.8133e-05 |   0.0 |  0.00
Modify  | 0.022846   | 0.022846   | 0.022846   |   0.0 |  0.52
Other   |            | 0.0102     |            |       |  0.23

Nlocal:    720 ave 720 max 720 min
Histogram: 1 0 0 0 0 0 0 0 0 0
Nghost:    130 ave 130 max 130 min
Histogram: 1 0 0 0 0 0 0 0 0 0
Neighs:    33349 ave 33349 max 33349 min
Histogram: 1 0 0 0 0 0 0 0 0 0

Total # of neighbors = 33349
Ave neighs/atom = 46.3181
Ave special neighs/atom = 11.5639
Neighbor list builds = 29
Dangerous builds = 0
unfix pysimm_md
min_style cg
minimize 0.001 0.001 10000 100000
WARNING: Using 'neigh_modify every 1 delay 0 check yes' setting during minimization (../min.cpp:190)
PPPM initialization ...
  using 12-bit tables for long-range coulomb (../kspace.cpp:332)
  G vector (1/distance) = 0.0787345
  grid = 15 15 15
  stencil order = 5
  estimated absolute RMS force accuracy = 0.0353003
  estimated relative force accuracy = 0.000106306
  using double precision KISS FFT
  3d grid and FFT values/proc = 8000 3375
Per MPI rank memory allocation (min/avg/max) = 19.78 | 19.78 | 19.78 Mbytes
Step Temp E_pair E_mol TotEng Press 
    2000    75.996221    683.07482    846.15095     1692.101    1.7101669 
    2012    75.996221    672.35995    744.67706    1579.9123    1.1100987 
Loop time of 0.0686979 on 1 procs for 12 steps with 720 atoms

99.0% CPU use with 1 MPI tasks x no OpenMP threads

Minimization stats:
  Stopping criterion = energy tolerance
  Energy initial, next-to-last, final = 
         1529.22576231      1418.08284763      1417.03701152
  Force two-norm initial, final = 399.73 52.8335
  Force max component initial, final = 69.5549 9.37997
  Final line search alpha, max atom move = 0.00557361 0.0522803
  Iterations, force evaluations = 12 24

MPI task timing breakdown:
Section |  min time  |  avg time  |  max time  |%varavg| %total
---------------------------------------------------------------
Pair    | 0.03021    | 0.03021    | 0.03021    |   0.0 | 43.98
Bond    | 0.0090022  | 0.0090022  | 0.0090022  |   0.0 | 13.10
Kspace  | 0.028924   | 0.028924   | 0.028924   |   0.0 | 42.10
Neigh   | 0          | 0          | 0          |   0.0 |  0.00
Comm    | 4.1246e-05 | 4.1246e-05 | 4.1246e-05 |   0.0 |  0.06
Output  | 0          | 0          | 0          |   0.0 |  0.00
Modify  | 0          | 0          | 0          |   0.0 |  0.00
Other   |            | 0.0005195  |            |       |  0.76

Nlocal:    720 ave 720 max 720 min
Histogram: 1 0 0 0 0 0 0 0 0 0
Nghost:    130 ave 130 max 130 min
Histogram: 1 0 0 0 0 0 0 0 0 0
Neighs:    33346 ave 33346 max 33346 min
Histogram: 1 0 0 0 0 0 0 0 0 0

Total # of neighbors = 33346
Ave neighs/atom = 46.3139
Ave special neighs/atom = 11.5639
Neighbor list builds = 0
Dangerous builds = 0
write_dump all custom pysimm.dump.tmp id q x y z vx vy vz
quit


################################################################################
##################################    Init    ##################################
################################################################################
units           real
atom_style      full
pair_style      lj/cut/coul/long 12.0  12.0
kspace_style    pppm 1e-4
bond_style      harmonic
angle_style     harmonic
dihedral_style  fourier
improper_style  cvff
special_bonds   amber
pair_modify     mix arithmetic
read_data       temp.lmps
  orthogonal box = (-141.938 -141.938 -141.938) to (141.938 141.938 141.938)
  1 by 1 by 1 MPI processor grid
  reading atoms ...
  792 atoms
  reading velocities ...
  792 velocities
  scanning bonds ...
  3 = max bonds/atom
  scanning angles ...
  6 = max angles/atom
  scanning dihedrals ...
  24 = max dihedrals/atom
  scanning impropers ...
  2 = max impropers/atom
  reading bonds ...
  879 bonds
  reading angles ...
  1580 angles
  reading dihedrals ...
  2430 dihedrals
  reading impropers ...
  220 impropers
  4 = max # of 1-2 neighbors
  10 = max # of 1-3 neighbors
  22 = max # of 1-4 neighbors
  23 = max # of special neighbors
  special bonds CPU = 0.0010221 secs
  read_data CPU = 0.0123692 secs
################################################################################

timestep        1
fix             pysimm_md all nve/limit 0.1
run             2000
PPPM initialization ...
WARNING: System is not charge neutral, net charge = -2.2e-05 (../kspace.cpp:313)
  using 12-bit tables for long-range coulomb (../kspace.cpp:332)
  G vector (1/distance) = 0.0652715
  grid = 15 15 15
  stencil order = 5
  estimated absolute RMS force accuracy = 0.0346109
  estimated relative force accuracy = 0.00010423
  using double precision KISS FFT
  3d grid and FFT values/proc = 8000 3375
Neighbor list info ...
  update every 1 steps, delay 10 steps, check yes
  max neighbors/atom: 2000, page size: 100000
  master list distance cutoff = 14
  ghost atom cutoff = 14
  binsize = 7, bins = 41 41 41
  1 neighbor lists, perpetual/occasional/extra = 1 0 0
  (1) pair lj/cut/coul/long, perpetual
      attributes: half, newton on
      pair build: half/bin/newton
      stencil: half/bin/3d/newton
      bin: standard
Per MPI rank memory allocation (min/avg/max) = 18.82 | 18.82 | 18.82 Mbytes
Step Temp E_pair E_mol TotEng Press 
       0     70.03083     725.4203    359034.64    359925.18   -748.09932 
    2000    1711.9039    939.92151    2817.2979     7793.582    2.5743571 
Loop time of 5.25511 on 1 procs for 2000 steps with 792 atoms

Performance: 32.882 ns/day, 0.730 hours/ns, 380.582 timesteps/s
99.6% CPU use with 1 MPI tasks x no OpenMP threads

MPI task timing breakdown:
Section |  min time  |  avg time  |  max time  |%varavg| %total
---------------------------------------------------------------
Pair    | 1.8071     | 1.8071     | 1.8071     |   0.0 | 34.39
Bond    | 0.73788    | 0.73788    | 0.73788    |   0.0 | 14.04
Kspace  | 2.4495     | 2.4495     | 2.4495     |   0.0 | 46.61
Neigh   | 0.22514    | 0.22514    | 0.22514    |   0.0 |  4.28
Comm    | 0.0032609  | 0.0032609  | 0.0032609  |   0.0 |  0.06
Output  | 2.5034e-05 | 2.5034e-05 | 2.5034e-05 |   0.0 |  0.00
Modify  | 0.026345   | 0.026345   | 0.026345   |   0.0 |  0.50
Other   |            | 0.005888   |            |       |  0.11

Nlocal:    792 ave 792 max 792 min
Histogram: 1 0 0 0 0 0 0 0 0 0
Nghost:    0 ave 0 max 0 min
Histogram: 1 0 0 0 0 0 0 0 0 0
Neighs:    41850 ave 41850 max 41850 min
Histogram: 1 0 0 0 0 0 0 0 0 0

Total # of neighbors = 41850
Ave neighs/atom = 52.8409
Ave special neighs/atom = 11.5682
Neighbor list builds = 168
Dangerous builds = 0
unfix pysimm_md
min_style cg
minimize 0.001 0.001 10000 100000
WARNING: Using 'neigh_modify every 1 delay 0 check yes' setting during minimization (../min.cpp:190)
PPPM initialization ...
  using 12-bit tables for long-range coulomb (../kspace.cpp:332)
  G vector (1/distance) = 0.0652715
  grid = 15 15 15
  stencil order = 5
  estimated absolute RMS force accuracy = 0.0346109
  estimated relative force accuracy = 0.00010423
  using double precision KISS FFT
  3d grid and FFT values/proc = 8000 3375
Per MPI rank memory allocation (min/avg/max) = 19.95 | 19.95 | 19.95 Mbytes
Step Temp E_pair E_mol TotEng Press 
    2000    1711.9039    939.92151    2817.2979     7793.582    2.5743571 
    2054    1711.9039    768.65944    1054.7989    5859.8209    7.0958786 
Loop time of 0.345218 on 1 procs for 54 steps with 792 atoms

99.3% CPU use with 1 MPI tasks x no OpenMP threads

Minimization stats:
  Stopping criterion = energy tolerance
  Energy initial, next-to-last, final = 
         3757.21938301      1824.28553055      1823.45829361
  Force two-norm initial, final = 1321.39 88.1422
  Force max component initial, final = 163.361 9.78016
  Final line search alpha, max atom move = 0.00207113 0.020256
  Iterations, force evaluations = 54 107

MPI task timing breakdown:
Section |  min time  |  avg time  |  max time  |%varavg| %total
---------------------------------------------------------------
Pair    | 0.16477    | 0.16477    | 0.16477    |   0.0 | 47.73
Bond    | 0.042776   | 0.042776   | 0.042776   |   0.0 | 12.39
Kspace  | 0.13132    | 0.13132    | 0.13132    |   0.0 | 38.04
Neigh   | 0.0041313  | 0.0041313  | 0.0041313  |   0.0 |  1.20
Comm    | 0.00010085 | 0.00010085 | 0.00010085 |   0.0 |  0.03
Output  | 0          | 0          | 0          |   0.0 |  0.00
Modify  | 0          | 0          | 0          |   0.0 |  0.00
Other   |            | 0.002118   |            |       |  0.61

Nlocal:    792 ave 792 max 792 min
Histogram: 1 0 0 0 0 0 0 0 0 0
Nghost:    0 ave 0 max 0 min
Histogram: 1 0 0 0 0 0 0 0 0 0
Neighs:    41982 ave 41982 max 41982 min
Histogram: 1 0 0 0 0 0 0 0 0 0

Total # of neighbors = 41982
Ave neighs/atom = 53.0076
Ave special neighs/atom = 11.5682
Neighbor list builds = 3
Dangerous builds = 0
write_dump all custom pysimm.dump.tmp id q x y z vx vy vz
quit


################################################################################
##################################    Init    ##################################
################################################################################
units           real
atom_style      full
pair_style      lj/cut/coul/long 12.0  12.0
kspace_style    pppm 1e-4
bond_style      harmonic
angle_style     harmonic
dihedral_style  fourier
improper_style  cvff
special_bonds   amber
pair_modify     mix arithmetic
read_data       temp.lmps
  orthogonal box = (-146.52 -146.52 -146.52) to (146.52 146.52 146.52)
  1 by 1 by 1 MPI processor grid
  reading atoms ...
  864 atoms
  reading velocities ...
  864 velocities
  scanning bonds ...
  3 = max bonds/atom
  scanning angles ...
  6 = max angles/atom
  scanning dihedrals ...
  24 = max dihedrals/atom
  scanning impropers ...
  2 = max impropers/atom
  reading bonds ...
  959 bonds
  reading angles ...
  1724 angles
  reading dihedrals ...
  2652 dihedrals
  reading impropers ...
  240 impropers
  4 = max # of 1-2 neighbors
  10 = max # of 1-3 neighbors
  22 = max # of 1-4 neighbors
  23 = max # of special neighbors
  special bonds CPU = 0.000833988 secs
  read_data CPU = 0.0108941 secs
################################################################################

timestep        1
fix             pysimm_md all nve/limit 0.1
run             2000
PPPM initialization ...
WARNING: System is not charge neutral, net charge = -2.4e-05 (../kspace.cpp:313)
  using 12-bit tables for long-range coulomb (../kspace.cpp:332)
  G vector (1/distance) = 0.0635621
  grid = 15 15 15
  stencil order = 5
  estimated absolute RMS force accuracy = 0.0355778
  estimated relative force accuracy = 0.000107141
  using double precision KISS FFT
  3d grid and FFT values/proc = 8000 3375
Neighbor list info ...
  update every 1 steps, delay 10 steps, check yes
  max neighbors/atom: 2000, page size: 100000
  master list distance cutoff = 14
  ghost atom cutoff = 14
  binsize = 7, bins = 42 42 42
  1 neighbor lists, perpetual/occasional/extra = 1 0 0
  (1) pair lj/cut/coul/long, perpetual
      attributes: half, newton on
      pair build: half/bin/newton
      stencil: half/bin/3d/newton
      bin: standard
Per MPI rank memory allocation (min/avg/max) = 18.86 | 18.86 | 18.86 Mbytes
Step Temp E_pair E_mol TotEng Press 
       0    1569.9527    819.35711    203784.77    208642.74   -383.74227 
    2000    1376.8879    1009.3049    2983.3217    7534.5868   0.69010446 
Loop time of 5.62967 on 1 procs for 2000 steps with 864 atoms

Performance: 30.695 ns/day, 0.782 hours/ns, 355.261 timesteps/s
100.0% CPU use with 1 MPI tasks x no OpenMP threads

MPI task timing breakdown:
Section |  min time  |  avg time  |  max time  |%varavg| %total
---------------------------------------------------------------
Pair    | 2.0703     | 2.0703     | 2.0703     |   0.0 | 36.78
Bond    | 0.7926     | 0.7926     | 0.7926     |   0.0 | 14.08
Kspace  | 2.4722     | 2.4722     | 2.4722     |   0.0 | 43.91
Neigh   | 0.25691    | 0.25691    | 0.25691    |   0.0 |  4.56
Comm    | 0.003437   | 0.003437   | 0.003437   |   0.0 |  0.06
Output  | 2.1935e-05 | 2.1935e-05 | 2.1935e-05 |   0.0 |  0.00
Modify  | 0.027975   | 0.027975   | 0.027975   |   0.0 |  0.50
Other   |            | 0.006184   |            |       |  0.11

Nlocal:    864 ave 864 max 864 min
Histogram: 1 0 0 0 0 0 0 0 0 0
Nghost:    0 ave 0 max 0 min
Histogram: 1 0 0 0 0 0 0 0 0 0
Neighs:    45035 ave 45035 max 45035 min
Histogram: 1 0 0 0 0 0 0 0 0 0

Total # of neighbors = 45035
Ave neighs/atom = 52.1238
Ave special neighs/atom = 11.5718
Neighbor list builds = 171
Dangerous builds = 0
unfix pysimm_md
min_style cg
minimize 0.001 0.001 10000 100000
WARNING: Using 'neigh_modify every 1 delay 0 check yes' setting during minimization (../min.cpp:190)
PPPM initialization ...
  using 12-bit tables for long-range coulomb (../kspace.cpp:332)
  G vector (1/distance) = 0.0635621
  grid = 15 15 15
  stencil order = 5
  estimated absolute RMS force accuracy = 0.0355778
  estimated relative force accuracy = 0.000107141
  using double precision KISS FFT
  3d grid and FFT values/proc = 8000 3375
Per MPI rank memory allocation (min/avg/max) = 19.98 | 19.98 | 19.98 Mbytes
Step Temp E_pair E_mol TotEng Press 
    2000    1376.8879    1009.3049    2983.3217    7534.5868   0.69010446 
    2033    1376.8879    826.30247    1152.0786    5520.3413     5.912659 
Loop time of 0.423923 on 1 procs for 33 steps with 864 atoms

100.0% CPU use with 1 MPI tasks x no OpenMP threads

Minimization stats:
  Stopping criterion = linesearch alpha is zero
  Energy initial, next-to-last, final = 
         3992.62655933      1978.38102788      1978.38102788
  Force two-norm initial, final = 1495.81 96.5678
  Force max component initial, final = 243.647 14.5235
  Final line search alpha, max atom move = 1.012e-12 1.46978e-11
  Iterations, force evaluations = 33 126

MPI task timing breakdown:
Section |  min time  |  avg time  |  max time  |%varavg| %total
---------------------------------------------------------------
Pair    | 0.20805    | 0.20805    | 0.20805    |   0.0 | 49.08
Bond    | 0.054471   | 0.054471   | 0.054471   |   0.0 | 12.85
Kspace  | 0.15774    | 0.15774    | 0.15774    |   0.0 | 37.21
Neigh   | 0.0015252  | 0.0015252  | 0.0015252  |   0.0 |  0.36
Comm    | 6.938e-05  | 6.938e-05  | 6.938e-05  |   0.0 |  0.02
Output  | 0          | 0          | 0          |   0.0 |  0.00
Modify  | 0          | 0          | 0          |   0.0 |  0.00
Other   |            | 0.002067   |            |       |  0.49

Nlocal:    864 ave 864 max 864 min
Histogram: 1 0 0 0 0 0 0 0 0 0
Nghost:    0 ave 0 max 0 min
Histogram: 1 0 0 0 0 0 0 0 0 0
Neighs:    45020 ave 45020 max 45020 min
Histogram: 1 0 0 0 0 0 0 0 0 0

Total # of neighbors = 45020
Ave neighs/atom = 52.1065
Ave special neighs/atom = 11.5718
Neighbor list builds = 1
Dangerous builds = 0
write_dump all custom pysimm.dump.tmp id q x y z vx vy vz
quit


################################################################################
##################################    Init    ##################################
################################################################################
units           real
atom_style      full
pair_style      lj/cut/coul/long 12.0  12.0
kspace_style    pppm 1e-4
bond_style      harmonic
angle_style     harmonic
dihedral_style  fourier
improper_style  cvff
special_bonds   amber
pair_modify     mix arithmetic
read_data       temp.lmps
  orthogonal box = (-150.832 -150.832 -150.832) to (150.832 150.832 150.832)
  1 by 1 by 1 MPI processor grid
  reading atoms ...
  936 atoms
  reading velocities ...
  936 velocities
  scanning bonds ...
  3 = max bonds/atom
  scanning angles ...
  6 = max angles/atom
  scanning dihedrals ...
  24 = max dihedrals/atom
  scanning impropers ...
  2 = max impropers/atom
  reading bonds ...
  1039 bonds
  reading angles ...
  1868 angles
  reading dihedrals ...
  2874 dihedrals
  reading impropers ...
  260 impropers
  4 = max # of 1-2 neighbors
  10 = max # of 1-3 neighbors
  22 = max # of 1-4 neighbors
  23 = max # of special neighbors
  special bonds CPU = 0.00084281 secs
  read_data CPU = 0.011693 secs
################################################################################

timestep        1
fix             pysimm_md all nve/limit 0.1
run             2000
PPPM initialization ...
WARNING: System is not charge neutral, net charge = -2.6e-05 (../kspace.cpp:313)
  using 12-bit tables for long-range coulomb (../kspace.cpp:332)
  G vector (1/distance) = 0.062032
  grid = 15 15 15
  stencil order = 5
  estimated absolute RMS force accuracy = 0.0364488
  estimated relative force accuracy = 0.000109764
  using double precision KISS FFT
  3d grid and FFT values/proc = 8000 3375
Neighbor list info ...
  update every 1 steps, delay 10 steps, check yes
  max neighbors/atom: 2000, page size: 100000
  master list distance cutoff = 14
  ghost atom cutoff = 14
  binsize = 7, bins = 44 44 44
  1 neighbor lists, perpetual/occasional/extra = 1 0 0
  (1) pair lj/cut/coul/long, perpetual
      attributes: half, newton on
      pair build: half/bin/newton
      stencil: half/bin/3d/newton
      bin: standard
Per MPI rank memory allocation (min/avg/max) = 18.92 | 18.92 | 18.92 Mbytes
Step Temp E_pair E_mol TotEng Press 
       0    1271.6654    876.81229    182547.14    186968.16   -315.68622 
    2000    1186.0159    979.68138    2915.2555    7200.4313  0.053169651 
Loop time of 6.24265 on 1 procs for 2000 steps with 936 atoms

Performance: 27.681 ns/day, 0.867 hours/ns, 320.377 timesteps/s
99.6% CPU use with 1 MPI tasks x no OpenMP threads

MPI task timing breakdown:
Section |  min time  |  avg time  |  max time  |%varavg| %total
---------------------------------------------------------------
Pair    | 2.4205     | 2.4205     | 2.4205     |   0.0 | 38.77
Bond    | 0.85534    | 0.85534    | 0.85534    |   0.0 | 13.70
Kspace  | 2.6481     | 2.6481     | 2.6481     |   0.0 | 42.42
Neigh   | 0.27827    | 0.27827    | 0.27827    |   0.0 |  4.46
Comm    | 0.0034652  | 0.0034652  | 0.0034652  |   0.0 |  0.06
Output  | 2.3127e-05 | 2.3127e-05 | 2.3127e-05 |   0.0 |  0.00
Modify  | 0.030329   | 0.030329   | 0.030329   |   0.0 |  0.49
Other   |            | 0.006546   |            |       |  0.10

Nlocal:    936 ave 936 max 936 min
Histogram: 1 0 0 0 0 0 0 0 0 0
Nghost:    0 ave 0 max 0 min
Histogram: 1 0 0 0 0 0 0 0 0 0
Neighs:    60077 ave 60077 max 60077 min
Histogram: 1 0 0 0 0 0 0 0 0 0

Total # of neighbors = 60077
Ave neighs/atom = 64.1848
Ave special neighs/atom = 11.5748
Neighbor list builds = 162
Dangerous builds = 0
unfix pysimm_md
min_style cg
minimize 0.001 0.001 10000 100000
WARNING: Using 'neigh_modify every 1 delay 0 check yes' setting during minimization (../min.cpp:190)
PPPM initialization ...
  using 12-bit tables for long-range coulomb (../kspace.cpp:332)
  G vector (1/distance) = 0.062032
  grid = 15 15 15
  stencil order = 5
  estimated absolute RMS force accuracy = 0.0364488
  estimated relative force accuracy = 0.000109764
  using double precision KISS FFT
  3d grid and FFT values/proc = 8000 3375
Per MPI rank memory allocation (min/avg/max) = 20.04 | 20.04 | 20.04 Mbytes
Step Temp E_pair E_mol TotEng Press 
    2000    1186.0159    979.68138    2915.2555    7200.4313  0.053169651 
    2035    1186.0159    869.68055    1202.4441    5377.6191    5.3332857 
Loop time of 0.264051 on 1 procs for 35 steps with 936 atoms

100.3% CPU use with 1 MPI tasks x no OpenMP threads

Minimization stats:
  Stopping criterion = energy tolerance
  Energy initial, next-to-last, final = 
         3894.93688432      2073.36123441      2072.12466314
  Force two-norm initial, final = 1479.29 95.4239
  Force max component initial, final = 158.724 12.8563
  Final line search alpha, max atom move = 0.00282439 0.0363113
  Iterations, force evaluations = 35 70

MPI task timing breakdown:
Section |  min time  |  avg time  |  max time  |%varavg| %total
---------------------------------------------------------------
Pair    | 0.14228    | 0.14228    | 0.14228    |   0.0 | 53.88
Bond    | 0.031089   | 0.031089   | 0.031089   |   0.0 | 11.77
Kspace  | 0.087389   | 0.087389   | 0.087389   |   0.0 | 33.10
Neigh   | 0.00173    | 0.00173    | 0.00173    |   0.0 |  0.66
Comm    | 3.7909e-05 | 3.7909e-05 | 3.7909e-05 |   0.0 |  0.01
Output  | 0          | 0          | 0          |   0.0 |  0.00
Modify  | 0          | 0          | 0          |   0.0 |  0.00
Other   |            | 0.001527   |            |       |  0.58

Nlocal:    936 ave 936 max 936 min
Histogram: 1 0 0 0 0 0 0 0 0 0
Nghost:    0 ave 0 max 0 min
Histogram: 1 0 0 0 0 0 0 0 0 0
Neighs:    60033 ave 60033 max 60033 min
Histogram: 1 0 0 0 0 0 0 0 0 0

Total # of neighbors = 60033
Ave neighs/atom = 64.1378
Ave special neighs/atom = 11.5748
Neighbor list builds = 1
Dangerous builds = 0
write_dump all custom pysimm.dump.tmp id q x y z vx vy vz
quit


################################################################################
##################################    Init    ##################################
################################################################################
units           real
atom_style      full
pair_style      lj/cut/coul/long 12.0  12.0
kspace_style    pppm 1e-4
bond_style      harmonic
angle_style     harmonic
dihedral_style  fourier
improper_style  cvff
special_bonds   amber
pair_modify     mix arithmetic
read_data       temp.lmps
  orthogonal box = (-154.91 -154.91 -154.91) to (154.91 154.91 154.91)
  1 by 1 by 1 MPI processor grid
  reading atoms ...
  1008 atoms
  reading velocities ...
  1008 velocities
  scanning bonds ...
  3 = max bonds/atom
  scanning angles ...
  6 = max angles/atom
  scanning dihedrals ...
  24 = max dihedrals/atom
  scanning impropers ...
  2 = max impropers/atom
  reading bonds ...
  1119 bonds
  reading angles ...
  2012 angles
  reading dihedrals ...
  3096 dihedrals
  reading impropers ...
  280 impropers
  4 = max # of 1-2 neighbors
  10 = max # of 1-3 neighbors
  22 = max # of 1-4 neighbors
  23 = max # of special neighbors
  special bonds CPU = 0.00101089 secs
  read_data CPU = 0.0127711 secs
################################################################################

timestep        1
fix             pysimm_md all nve/limit 0.1
run             2000
PPPM initialization ...
WARNING: System is not charge neutral, net charge = -2.8e-05 (../kspace.cpp:313)
  using 12-bit tables for long-range coulomb (../kspace.cpp:332)
  G vector (1/distance) = 0.0606499
  grid = 15 15 15
  stencil order = 5
  estimated absolute RMS force accuracy = 0.037239
  estimated relative force accuracy = 0.000112144
  using double precision KISS FFT
  3d grid and FFT values/proc = 8000 3375
Neighbor list info ...
  update every 1 steps, delay 10 steps, check yes
  max neighbors/atom: 2000, page size: 100000
  master list distance cutoff = 14
  ghost atom cutoff = 14
  binsize = 7, bins = 45 45 45
  1 neighbor lists, perpetual/occasional/extra = 1 0 0
  (1) pair lj/cut/coul/long, perpetual
      attributes: half, newton on
      pair build: half/bin/newton
      stencil: half/bin/3d/newton
      bin: standard
Per MPI rank memory allocation (min/avg/max) = 18.96 | 18.96 | 18.96 Mbytes
Step Temp E_pair E_mol TotEng Press 
       0    1101.9642    919.36397    416074.95    420302.05   -659.75393 
    2000    1117.1947    1099.1121    3203.0182    7655.5864    1.7224649 
Loop time of 6.53555 on 1 procs for 2000 steps with 1008 atoms

Performance: 26.440 ns/day, 0.908 hours/ns, 306.019 timesteps/s
100.1% CPU use with 1 MPI tasks x no OpenMP threads

MPI task timing breakdown:
Section |  min time  |  avg time  |  max time  |%varavg| %total
---------------------------------------------------------------
Pair    | 2.6012     | 2.6012     | 2.6012     |   0.0 | 39.80
Bond    | 0.91642    | 0.91642    | 0.91642    |   0.0 | 14.02
Kspace  | 2.6537     | 2.6537     | 2.6537     |   0.0 | 40.60
Neigh   | 0.32155    | 0.32155    | 0.32155    |   0.0 |  4.92
Comm    | 0.0038035  | 0.0038035  | 0.0038035  |   0.0 |  0.06
Output  | 2.3127e-05 | 2.3127e-05 | 2.3127e-05 |   0.0 |  0.00
Modify  | 0.032503   | 0.032503   | 0.032503   |   0.0 |  0.50
Other   |            | 0.006344   |            |       |  0.10

Nlocal:    1008 ave 1008 max 1008 min
Histogram: 1 0 0 0 0 0 0 0 0 0
Nghost:    0 ave 0 max 0 min
Histogram: 1 0 0 0 0 0 0 0 0 0
Neighs:    52550 ave 52550 max 52550 min
Histogram: 1 0 0 0 0 0 0 0 0 0

Total # of neighbors = 52550
Ave neighs/atom = 52.1329
Ave special neighs/atom = 11.5774
Neighbor list builds = 172
Dangerous builds = 0
unfix pysimm_md
min_style cg
minimize 0.001 0.001 10000 100000
WARNING: Using 'neigh_modify every 1 delay 0 check yes' setting during minimization (../min.cpp:190)
PPPM initialization ...
  using 12-bit tables for long-range coulomb (../kspace.cpp:332)
  G vector (1/distance) = 0.0606499
  grid = 15 15 15
  stencil order = 5
  estimated absolute RMS force accuracy = 0.037239
  estimated relative force accuracy = 0.000112144
  using double precision KISS FFT
  3d grid and FFT values/proc = 8000 3375
Per MPI rank memory allocation (min/avg/max) = 20.08 | 20.08 | 20.08 Mbytes
Step Temp E_pair E_mol TotEng Press 
    2000    1117.1947    1099.1121    3203.0182    7655.5864    1.7224649 
    2040    1117.1947    965.33199    1288.2889    5607.0769    4.9601951 
Loop time of 0.28915 on 1 procs for 40 steps with 1008 atoms

100.3% CPU use with 1 MPI tasks x no OpenMP threads

Minimization stats:
  Stopping criterion = energy tolerance
  Energy initial, next-to-last, final = 
         4302.13030538      2255.82327626      2253.62084663
  Force two-norm initial, final = 1606.93 86.5148
  Force max component initial, final = 203.787 10.8912
  Final line search alpha, max atom move = 0.00206646 0.0225062
  Iterations, force evaluations = 40 79

MPI task timing breakdown:
Section |  min time  |  avg time  |  max time  |%varavg| %total
---------------------------------------------------------------
Pair    | 0.14275    | 0.14275    | 0.14275    |   0.0 | 49.37
Bond    | 0.038372   | 0.038372   | 0.038372   |   0.0 | 13.27
Kspace  | 0.10265    | 0.10265    | 0.10265    |   0.0 | 35.50
Neigh   | 0.0034359  | 0.0034359  | 0.0034359  |   0.0 |  1.19
Comm    | 5.7459e-05 | 5.7459e-05 | 5.7459e-05 |   0.0 |  0.02
Output  | 0          | 0          | 0          |   0.0 |  0.00
Modify  | 0          | 0          | 0          |   0.0 |  0.00
Other   |            | 0.001886   |            |       |  0.65

Nlocal:    1008 ave 1008 max 1008 min
Histogram: 1 0 0 0 0 0 0 0 0 0
Nghost:    0 ave 0 max 0 min
Histogram: 1 0 0 0 0 0 0 0 0 0
Neighs:    52300 ave 52300 max 52300 min
Histogram: 1 0 0 0 0 0 0 0 0 0

Total # of neighbors = 52300
Ave neighs/atom = 51.8849
Ave special neighs/atom = 11.5774
Neighbor list builds = 2
Dangerous builds = 0
write_dump all custom pysimm.dump.tmp id q x y z vx vy vz
quit


################################################################################
##################################    Init    ##################################
################################################################################
units           real
atom_style      full
pair_style      lj/cut/coul/long 12.0  12.0
kspace_style    pppm 1e-4
bond_style      harmonic
angle_style     harmonic
dihedral_style  fourier
improper_style  cvff
special_bonds   amber
pair_modify     mix arithmetic
read_data       temp.lmps
  orthogonal box = (-158.784 -158.784 -158.784) to (158.784 158.784 158.784)
  1 by 1 by 1 MPI processor grid
  reading atoms ...
  1080 atoms
  reading velocities ...
  1080 velocities
  scanning bonds ...
  3 = max bonds/atom
  scanning angles ...
  6 = max angles/atom
  scanning dihedrals ...
  24 = max dihedrals/atom
  scanning impropers ...
  2 = max impropers/atom
  reading bonds ...
  1199 bonds
  reading angles ...
  2156 angles
  reading dihedrals ...
  3318 dihedrals
  reading impropers ...
  300 impropers
  4 = max # of 1-2 neighbors
  10 = max # of 1-3 neighbors
  22 = max # of 1-4 neighbors
  23 = max # of special neighbors
  special bonds CPU = 0.000932932 secs
  read_data CPU = 0.0126731 secs
################################################################################

timestep        1
fix             pysimm_md all nve/limit 0.1
run             2000
PPPM initialization ...
WARNING: System is not charge neutral, net charge = -3e-05 (../kspace.cpp:313)
  using 12-bit tables for long-range coulomb (../kspace.cpp:332)
  G vector (1/distance) = 0.0593936
  grid = 15 15 15
  stencil order = 5
  estimated absolute RMS force accuracy = 0.0379643
  estimated relative force accuracy = 0.000114328
  using double precision KISS FFT
  3d grid and FFT values/proc = 8000 3375
Neighbor list info ...
  update every 1 steps, delay 10 steps, check yes
  max neighbors/atom: 2000, page size: 100000
  master list distance cutoff = 14
  ghost atom cutoff = 14
  binsize = 7, bins = 46 46 46
  1 neighbor lists, perpetual/occasional/extra = 1 0 0
[...]
  using double precision KISS FFT
  3d grid and FFT values/proc = 24389 13824
Per MPI rank memory allocation (min/avg/max) = 23.66 | 23.66 | 23.66 Mbytes
Step Temp E_pair E_mol TotEng Press 
    2000    603.74847    3384.3443    7215.2337    16687.826  -0.26427535 
    2037    603.74847     3171.749    3892.6433     13152.64    2.5599379 
Loop time of 1.08163 on 1 procs for 37 steps with 3384 atoms

98.8% CPU use with 1 MPI tasks x no OpenMP threads

Minimization stats:
  Stopping criterion = energy tolerance
  Energy initial, next-to-last, final = 
         10599.5779916      7068.84305912      7064.39223472
  Force two-norm initial, final = 1930.16 123.202
  Force max component initial, final = 153.001 15.4162
  Final line search alpha, max atom move = 0.00193588 0.0298439
  Iterations, force evaluations = 37 66

MPI task timing breakdown:
Section |  min time  |  avg time  |  max time  |%varavg| %total
---------------------------------------------------------------
Pair    | 0.56831    | 0.56831    | 0.56831    |   0.0 | 52.54
Bond    | 0.12007    | 0.12007    | 0.12007    |   0.0 | 11.10
Kspace  | 0.3627     | 0.3627     | 0.3627     |   0.0 | 33.53
Neigh   | 0.024315   | 0.024315   | 0.024315   |   0.0 |  2.25
Comm    | 0.00025845 | 0.00025845 | 0.00025845 |   0.0 |  0.02
Output  | 0          | 0          | 0          |   0.0 |  0.00
Modify  | 0          | 0          | 0          |   0.0 |  0.00
Other   |            | 0.005971   |            |       |  0.55

Nlocal:    3384 ave 3384 max 3384 min
Histogram: 1 0 0 0 0 0 0 0 0 0
Nghost:    0 ave 0 max 0 min
Histogram: 1 0 0 0 0 0 0 0 0 0
Neighs:    230036 ave 230036 max 230036 min
Histogram: 1 0 0 0 0 0 0 0 0 0

Total # of neighbors = 230036
Ave neighs/atom = 67.9775
Ave special neighs/atom = 11.6011
Neighbor list builds = 3
Dangerous builds = 0
write_dump all custom pysimm.dump.tmp id q x y z vx vy vz
quit


################################################################################
##################################    Init    ##################################
################################################################################
units           real
atom_style      full
pair_style      lj/cut/coul/long 12.0  12.0
kspace_style    pppm 1e-4
bond_style      harmonic
angle_style     harmonic
dihedral_style  fourier
improper_style  cvff
special_bonds   amber
pair_modify     mix arithmetic
read_data       temp.lmps
  orthogonal box = (-237.756 -237.756 -237.756) to (237.756 237.756 237.756)
  1 by 1 by 1 MPI processor grid
  reading atoms ...
  3456 atoms
  reading velocities ...
  3456 velocities
  scanning bonds ...
  3 = max bonds/atom
  scanning angles ...
  6 = max angles/atom
  scanning dihedrals ...
  24 = max dihedrals/atom
  scanning impropers ...
  2 = max impropers/atom
  reading bonds ...
  3839 bonds
  reading angles ...
  6908 angles
  reading dihedrals ...
  10644 dihedrals
  reading impropers ...
  960 impropers
  4 = max # of 1-2 neighbors
  10 = max # of 1-3 neighbors
  22 = max # of 1-4 neighbors
  23 = max # of special neighbors
  special bonds CPU = 0.00266385 secs
  read_data CPU = 0.033381 secs
################################################################################

timestep        1
fix             pysimm_md all nve/limit 0.1
run             2000
PPPM initialization ...
WARNING: System is not charge neutral, net charge = -9.6e-05 (../kspace.cpp:313)
  using 12-bit tables for long-range coulomb (../kspace.cpp:332)
  G vector (1/distance) = 0.0628156
  grid = 24 24 24
  stencil order = 5
  estimated absolute RMS force accuracy = 0.0348943
  estimated relative force accuracy = 0.000105083
  using double precision KISS FFT
  3d grid and FFT values/proc = 24389 13824
Neighbor list info ...
  update every 1 steps, delay 10 steps, check yes
  max neighbors/atom: 2000, page size: 100000
  master list distance cutoff = 14
  ghost atom cutoff = 14
  binsize = 7, bins = 68 68 68
  1 neighbor lists, perpetual/occasional/extra = 1 0 0
  (1) pair lj/cut/coul/long, perpetual
      attributes: half, newton on
      pair build: half/bin/newton
      stencil: half/bin/3d/newton
      bin: standard
Per MPI rank memory allocation (min/avg/max) = 22.54 | 22.54 | 22.54 Mbytes
Step Temp E_pair E_mol TotEng Press 
       0    591.38474    3227.4082    309516.46    318834.36   -133.83302 
    2000    544.32004     3401.999    6717.7448    15725.532     0.369346 
Loop time of 25.8887 on 1 procs for 2000 steps with 3456 atoms

Performance: 6.675 ns/day, 3.596 hours/ns, 77.254 timesteps/s
100.0% CPU use with 1 MPI tasks x no OpenMP threads

MPI task timing breakdown:
Section |  min time  |  avg time  |  max time  |%varavg| %total
---------------------------------------------------------------
Pair    | 11.001     | 11.001     | 11.001     |   0.0 | 42.49
Bond    | 3.2113     | 3.2113     | 3.2113     |   0.0 | 12.40
Kspace  | 10.152     | 10.152     | 10.152     |   0.0 | 39.21
Neigh   | 1.3833     | 1.3833     | 1.3833     |   0.0 |  5.34
Comm    | 0.011611   | 0.011611   | 0.011611   |   0.0 |  0.04
Output  | 3.4809e-05 | 3.4809e-05 | 3.4809e-05 |   0.0 |  0.00
Modify  | 0.11102    | 0.11102    | 0.11102    |   0.0 |  0.43
Other   |            | 0.01887    |            |       |  0.07

Nlocal:    3456 ave 3456 max 3456 min
Histogram: 1 0 0 0 0 0 0 0 0 0
Nghost:    0 ave 0 max 0 min
Histogram: 1 0 0 0 0 0 0 0 0 0
Neighs:    224740 ave 224740 max 224740 min
Histogram: 1 0 0 0 0 0 0 0 0 0

Total # of neighbors = 224740
Ave neighs/atom = 65.0289
Ave special neighs/atom = 11.6013
Neighbor list builds = 172
Dangerous builds = 0
unfix pysimm_md
min_style cg
minimize 0.001 0.001 10000 100000
WARNING: Using 'neigh_modify every 1 delay 0 check yes' setting during minimization (../min.cpp:190)
PPPM initialization ...
  using 12-bit tables for long-range coulomb (../kspace.cpp:332)
  G vector (1/distance) = 0.0628156
  grid = 24 24 24
  stencil order = 5
  estimated absolute RMS force accuracy = 0.0348943
  estimated relative force accuracy = 0.000105083
  using double precision KISS FFT
  3d grid and FFT values/proc = 24389 13824
Per MPI rank memory allocation (min/avg/max) = 23.67 | 23.67 | 23.67 Mbytes
Step Temp E_pair E_mol TotEng Press 
    2000    544.32004     3401.999    6717.7448    15725.532     0.369346 
    2033    544.32004    3231.3801    3952.4923    12789.661    2.2755924 
Loop time of 0.95706 on 1 procs for 33 steps with 3456 atoms

100.1% CPU use with 1 MPI tasks x no OpenMP threads

Minimization stats:
  Stopping criterion = energy tolerance
  Energy initial, next-to-last, final = 
         10119.7438871      7189.68424218      7183.87247548
  Force two-norm initial, final = 1922.57 122.788
  Force max component initial, final = 188.276 15.8718
  Final line search alpha, max atom move = 0.00162093 0.0257271
  Iterations, force evaluations = 33 65

MPI task timing breakdown:
Section |  min time  |  avg time  |  max time  |%varavg| %total
---------------------------------------------------------------
Pair    | 0.50438    | 0.50438    | 0.50438    |   0.0 | 52.70
Bond    | 0.11118    | 0.11118    | 0.11118    |   0.0 | 11.62
Kspace  | 0.3215     | 0.3215     | 0.3215     |   0.0 | 33.59
Neigh   | 0.014668   | 0.014668   | 0.014668   |   0.0 |  1.53
Comm    | 0.0001874  | 0.0001874  | 0.0001874  |   0.0 |  0.02
Output  | 0          | 0          | 0          |   0.0 |  0.00
Modify  | 0          | 0          | 0          |   0.0 |  0.00
Other   |            | 0.005138   |            |       |  0.54

Nlocal:    3456 ave 3456 max 3456 min
Histogram: 1 0 0 0 0 0 0 0 0 0
Nghost:    0 ave 0 max 0 min
Histogram: 1 0 0 0 0 0 0 0 0 0
Neighs:    224527 ave 224527 max 224527 min
Histogram: 1 0 0 0 0 0 0 0 0 0

Total # of neighbors = 224527
Ave neighs/atom = 64.9673
Ave special neighs/atom = 11.6013
Neighbor list builds = 2
Dangerous builds = 0
write_dump all custom pysimm.dump.tmp id q x y z vx vy vz
quit


################################################################################
##################################    Init    ##################################
################################################################################
units           real
atom_style      full
pair_style      lj/cut/coul/long 12.0  12.0
kspace_style    pppm 1e-4
bond_style      harmonic
angle_style     harmonic
dihedral_style  fourier
improper_style  cvff
special_bonds   amber
pair_modify     mix arithmetic
read_data       temp.lmps
  orthogonal box = (-239.43 -239.43 -239.43) to (239.43 239.43 239.43)
  1 by 1 by 1 MPI processor grid
  reading atoms ...
  3528 atoms
  reading velocities ...
  3528 velocities
  scanning bonds ...
  3 = max bonds/atom
  scanning angles ...
  6 = max angles/atom
  scanning dihedrals ...
  24 = max dihedrals/atom
  scanning impropers ...
  2 = max impropers/atom
  reading bonds ...
  3919 bonds
  reading angles ...
  7052 angles
  reading dihedrals ...
  10866 dihedrals
  reading impropers ...
  980 impropers
  4 = max # of 1-2 neighbors
  10 = max # of 1-3 neighbors
  22 = max # of 1-4 neighbors
  23 = max # of special neighbors
  special bonds CPU = 0.00296688 secs
  read_data CPU = 0.0363691 secs
################################################################################

timestep        1
fix             pysimm_md all nve/limit 0.1
run             2000
PPPM initialization ...
WARNING: System is not charge neutral, net charge = -9.8e-05 (../kspace.cpp:313)
  using 12-bit tables for long-range coulomb (../kspace.cpp:332)
  G vector (1/distance) = 0.0624461
  grid = 24 24 24
  stencil order = 5
  estimated absolute RMS force accuracy = 0.03512
  estimated relative force accuracy = 0.000105763
  using double precision KISS FFT
  3d grid and FFT values/proc = 24389 13824
Neighbor list info ...
  update every 1 steps, delay 10 steps, check yes
  max neighbors/atom: 2000, page size: 100000
  master list distance cutoff = 14
  ghost atom cutoff = 14
  binsize = 7, bins = 69 69 69
  1 neighbor lists, perpetual/occasional/extra = 1 0 0
  (1) pair lj/cut/coul/long, perpetual
      attributes: half, newton on
      pair build: half/bin/newton
      stencil: half/bin/3d/newton
      bin: standard
Per MPI rank memory allocation (min/avg/max) = 22.61 | 22.61 | 22.61 Mbytes
Step Temp E_pair E_mol TotEng Press 
       0    533.42187    3282.2296    458551.76    467442.02   -194.70567 
    2000    504.11175    3484.0524    6481.6587    15265.598   0.62656519 
Loop time of 24.922 on 1 procs for 2000 steps with 3528 atoms

Performance: 6.934 ns/day, 3.461 hours/ns, 80.250 timesteps/s
100.0% CPU use with 1 MPI tasks x no OpenMP threads

MPI task timing breakdown:
Section |  min time  |  avg time  |  max time  |%varavg| %total
---------------------------------------------------------------
Pair    | 10.083     | 10.083     | 10.083     |   0.0 | 40.46
Bond    | 3.2284     | 3.2284     | 3.2284     |   0.0 | 12.95
Kspace  | 10.155     | 10.155     | 10.155     |   0.0 | 40.75
Neigh   | 1.3135     | 1.3135     | 1.3135     |   0.0 |  5.27
Comm    | 0.011468   | 0.011468   | 0.011468   |   0.0 |  0.05
Output  | 3.3855e-05 | 3.3855e-05 | 3.3855e-05 |   0.0 |  0.00
Modify  | 0.11205    | 0.11205    | 0.11205    |   0.0 |  0.45
Other   |            | 0.01877    |            |       |  0.08

Nlocal:    3528 ave 3528 max 3528 min
Histogram: 1 0 0 0 0 0 0 0 0 0
Nghost:    0 ave 0 max 0 min
Histogram: 1 0 0 0 0 0 0 0 0 0
Neighs:    226450 ave 226450 max 226450 min
Histogram: 1 0 0 0 0 0 0 0 0 0

Total # of neighbors = 226450
Ave neighs/atom = 64.1865
Ave special neighs/atom = 11.6015
Neighbor list builds = 169
Dangerous builds = 0
unfix pysimm_md
min_style cg
minimize 0.001 0.001 10000 100000
WARNING: Using 'neigh_modify every 1 delay 0 check yes' setting during minimization (../min.cpp:190)
PPPM initialization ...
  using 12-bit tables for long-range coulomb (../kspace.cpp:332)
  G vector (1/distance) = 0.0624461
  grid = 24 24 24
  stencil order = 5
  estimated absolute RMS force accuracy = 0.03512
  estimated relative force accuracy = 0.000105763
  using double precision KISS FFT
  3d grid and FFT values/proc = 24389 13824
Per MPI rank memory allocation (min/avg/max) = 23.74 | 23.74 | 23.74 Mbytes
Step Temp E_pair E_mol TotEng Press 
    2000    504.11175    3484.0524    6481.6587    15265.598   0.62656519 
    2035    504.11175    3293.8513    4015.0861    12608.824    2.1900164 
Loop time of 0.997733 on 1 procs for 35 steps with 3528 atoms

100.1% CPU use with 1 MPI tasks x no OpenMP threads

Minimization stats:
  Stopping criterion = energy tolerance
  Energy initial, next-to-last, final = 
         9965.71118387      7315.38715577       7308.9373899
  Force two-norm initial, final = 1773.47 130.309
  Force max component initial, final = 171.718 13.062
  Final line search alpha, max atom move = 0.00169888 0.0221908
  Iterations, force evaluations = 35 67

MPI task timing breakdown:
Section |  min time  |  avg time  |  max time  |%varavg| %total
---------------------------------------------------------------
Pair    | 0.51263    | 0.51263    | 0.51263    |   0.0 | 51.38
Bond    | 0.11731    | 0.11731    | 0.11731    |   0.0 | 11.76
Kspace  | 0.34688    | 0.34688    | 0.34688    |   0.0 | 34.77
Neigh   | 0.015177   | 0.015177   | 0.015177   |   0.0 |  1.52
Comm    | 0.00015855 | 0.00015855 | 0.00015855 |   0.0 |  0.02
Output  | 0          | 0          | 0          |   0.0 |  0.00
Modify  | 0          | 0          | 0          |   0.0 |  0.00
Other   |            | 0.005581   |            |       |  0.56

Nlocal:    3528 ave 3528 max 3528 min
Histogram: 1 0 0 0 0 0 0 0 0 0
Nghost:    0 ave 0 max 0 min
Histogram: 1 0 0 0 0 0 0 0 0 0
Neighs:    226821 ave 226821 max 226821 min
Histogram: 1 0 0 0 0 0 0 0 0 0

Total # of neighbors = 226821
Ave neighs/atom = 64.2917
Ave special neighs/atom = 11.6015
Neighbor list builds = 2
Dangerous builds = 0
write_dump all custom pysimm.dump.tmp id q x y z vx vy vz
quit


################################################################################
##################################    Init    ##################################
################################################################################
units           real
atom_style      full
pair_style      lj/cut/coul/long 12.0  12.0
kspace_style    pppm 1e-4
bond_style      harmonic
angle_style     harmonic
dihedral_style  fourier
improper_style  cvff
special_bonds   amber
pair_modify     mix arithmetic
read_data       temp.lmps
  orthogonal box = (-241.081 -241.081 -241.081) to (241.081 241.081 241.081)
  1 by 1 by 1 MPI processor grid
  reading atoms ...
  3600 atoms
  reading velocities ...
  3600 velocities
  scanning bonds ...
  3 = max bonds/atom
  scanning angles ...
  6 = max angles/atom
  scanning dihedrals ...
  24 = max dihedrals/atom
  scanning impropers ...
  2 = max impropers/atom
  reading bonds ...
  3999 bonds
  reading angles ...
  7196 angles
  reading dihedrals ...
  11088 dihedrals
  reading impropers ...
  1000 impropers
  4 = max # of 1-2 neighbors
  10 = max # of 1-3 neighbors
  22 = max # of 1-4 neighbors
  23 = max # of special neighbors
  special bonds CPU = 0.00294209 secs
  read_data CPU = 0.0366678 secs
################################################################################

timestep        1
fix             pysimm_md all nve/limit 0.1
run             2000
PPPM initialization ...
WARNING: System is not charge neutral, net charge = -0.0001 (../kspace.cpp:313)
  using 12-bit tables for long-range coulomb (../kspace.cpp:332)
  G vector (1/distance) = 0.0620859
  grid = 24 24 24
  stencil order = 5
  estimated absolute RMS force accuracy = 0.0353402
  estimated relative force accuracy = 0.000106426
  using double precision KISS FFT
  3d grid and FFT values/proc = 24389 13824
Neighbor list info ...
  update every 1 steps, delay 10 steps, check yes
  max neighbors/atom: 2000, page size: 100000
  master list distance cutoff = 14
  ghost atom cutoff = 14
  binsize = 7, bins = 69 69 69
  1 neighbor lists, perpetual/occasional/extra = 1 0 0
  (1) pair lj/cut/coul/long, perpetual
      attributes: half, newton on
      pair build: half/bin/newton
      stencil: half/bin/3d/newton
      bin: standard
Per MPI rank memory allocation (min/avg/max) = 22.62 | 22.62 | 22.62 Mbytes
Step Temp E_pair E_mol TotEng Press 
       0    494.23598    3344.8117    486070.71    494717.66   -202.19986 
    2000    514.32357    3479.7417    6739.3283      15736.7  -0.15641667 
Loop time of 25.9824 on 1 procs for 2000 steps with 3600 atoms

Performance: 6.651 ns/day, 3.609 hours/ns, 76.975 timesteps/s
99.9% CPU use with 1 MPI tasks x no OpenMP threads

MPI task timing breakdown:
Section |  min time  |  avg time  |  max time  |%varavg| %total
---------------------------------------------------------------
Pair    | 10.714     | 10.714     | 10.714     |   0.0 | 41.23
Bond    | 3.3458     | 3.3458     | 3.3458     |   0.0 | 12.88
Kspace  | 10.375     | 10.375     | 10.375     |   0.0 | 39.93
Neigh   | 1.3996     | 1.3996     | 1.3996     |   0.0 |  5.39
Comm    | 0.012071   | 0.012071   | 0.012071   |   0.0 |  0.05
Output  | 3.8862e-05 | 3.8862e-05 | 3.8862e-05 |   0.0 |  0.00
Modify  | 0.11707    | 0.11707    | 0.11707    |   0.0 |  0.45
Other   |            | 0.01963    |            |       |  0.08

Nlocal:    3600 ave 3600 max 3600 min
Histogram: 1 0 0 0 0 0 0 0 0 0
Nghost:    0 ave 0 max 0 min
Histogram: 1 0 0 0 0 0 0 0 0 0
Neighs:    243661 ave 243661 max 243661 min
Histogram: 1 0 0 0 0 0 0 0 0 0

Total # of neighbors = 243661
Ave neighs/atom = 67.6836
Ave special neighs/atom = 11.6017
Neighbor list builds = 171
Dangerous builds = 0
unfix pysimm_md
min_style cg
minimize 0.001 0.001 10000 100000
WARNING: Using 'neigh_modify every 1 delay 0 check yes' setting during minimization (../min.cpp:190)
PPPM initialization ...
  using 12-bit tables for long-range coulomb (../kspace.cpp:332)
  G vector (1/distance) = 0.0620859
  grid = 24 24 24
  stencil order = 5
  estimated absolute RMS force accuracy = 0.0353402
  estimated relative force accuracy = 0.000106426
  using double precision KISS FFT
  3d grid and FFT values/proc = 24389 13824
Per MPI rank memory allocation (min/avg/max) = 23.75 | 23.75 | 23.75 Mbytes
Step Temp E_pair E_mol TotEng Press 
    2000    514.32357    3479.7417    6739.3283      15736.7  -0.15641667 
    2028    514.32357     3357.667    4179.6769    13054.974    2.3547502 
Loop time of 0.869668 on 1 procs for 28 steps with 3600 atoms

100.0% CPU use with 1 MPI tasks x no OpenMP threads

Minimization stats:
  Stopping criterion = energy tolerance
  Energy initial, next-to-last, final = 
         10219.0700026      7542.23757211      7537.34386645
  Force two-norm initial, final = 1832.95 133.552
  Force max component initial, final = 177.472 17.1731
  Final line search alpha, max atom move = 0.00189359 0.0325187
  Iterations, force evaluations = 28 53

MPI task timing breakdown:
Section |  min time  |  avg time  |  max time  |%varavg| %total
---------------------------------------------------------------
Pair    | 0.45795    | 0.45795    | 0.45795    |   0.0 | 52.66
Bond    | 0.10086    | 0.10086    | 0.10086    |   0.0 | 11.60
Kspace  | 0.28889    | 0.28889    | 0.28889    |   0.0 | 33.22
Neigh   | 0.016798   | 0.016798   | 0.016798   |   0.0 |  1.93
Comm    | 0.00015903 | 0.00015903 | 0.00015903 |   0.0 |  0.02
Output  | 0          | 0          | 0          |   0.0 |  0.00
Modify  | 0          | 0          | 0          |   0.0 |  0.00
Other   |            | 0.005014   |            |       |  0.58

Nlocal:    3600 ave 3600 max 3600 min
Histogram: 1 0 0 0 0 0 0 0 0 0
Nghost:    0 ave 0 max 0 min
Histogram: 1 0 0 0 0 0 0 0 0 0
Neighs:    243625 ave 243625 max 243625 min
Histogram: 1 0 0 0 0 0 0 0 0 0

Total # of neighbors = 243625
Ave neighs/atom = 67.6736
Ave special neighs/atom = 11.6017
Neighbor list builds = 2
Dangerous builds = 0
write_dump all custom pysimm.dump.tmp id q x y z vx vy vz
quit
