pySIMM System Object

1902 atoms
2051 bonds
3300 angles
4846 dihedrals
550 impropers

9 atom types
10 bond types
15 angle types
5 dihedral types
2 improper types

-195.703467 195.703467 xlo xhi
-195.703467 195.703467 ylo yhi
-195.703467 195.703467 zlo zhi

Masses

   1	12.01	# ca
   2	1.008	# ha
   3	16.0	# os
   4	32.06	# sy
   5	16.0	# o
   6	16.0	# oh
   7	1.008	# ho
   8	12.01	# c
   9	1.008	# h4

Pair Coeffs

   1	0.086	3.3996695084235347	# ca
   2	0.015	2.59964245953351	# ha
   3	0.17	3.0000123434657784	# os
   4	0.25	3.563594872561357	# sy
   5	0.21	2.959921901149463	# o
   6	0.2104	3.0664733878390478	# oh
   7	1e-05	0.0	# ho
   8	0.086	3.3996695084235347	# c
   9	0.015	2.5105525877194763	# h4

Bond Coeffs

   1	345.8	1.086	# ca,ha
   2	243.4	1.7909	# ca,sy
   3	289.8	1.6497	# oh,sy
   4	637.7	1.2183	# c,o
   5	376.6	1.3696	# ca,os
   6	371.4	0.973	# ho,oh
   7	461.1	1.3984	# ca,ca
   8	345.9	1.4906	# c,ca
   9	310.7	1.1121	# c,h4
  10	493.0	1.466	# o,sy

Angle Coeffs

   1	48.18	119.88	# ca,ca,ha
   2	72.54	121.41	# o,sy,o
   3	72.32	106.68	# o,sy,oh
   4	61.48	119.42	# ca,ca,sy
   5	64.28	120.33	# c,ca,ca
   6	69.58	119.2	# ca,ca,os
   7	68.72	122.6	# ca,c,o
   8	54.22	120.7	# h4,c,o
   9	46.43	115.14	# ca,c,h4
  10	44.17	106.42	# ho,oh,sy
  11	65.46	101.3	# ca,sy,oh
  12	65.77	108.35	# ca,sy,o
  13	63.48	119.89	# ca,os,ca
  14	66.62	120.02	# ca,ca,ca
  15	63.0	118.11	# ca,c,ca

Dihedral Coeffs

   1	1	1.3	2	180	# X,ca,sy,X
   2	1	9.5	1	180	# X,oh,sy,X
   3	1	3.625	2	180	# X,ca,ca,X
   4	1	1.0	2	180	# X,c,ca,X
   5	1	0.9	2	180	# X,ca,os,X

Improper Coeffs

   1	10.5	-1	2	# c,X,X,o
   2	1.1	-1	2	# ca,X,X,ha

Atoms

   1	1	1	0.228748	-8.99494	-12.7339	41.5542
   2	1	1	-0.221817	-9.28758	-13.1666	40.2528
   3	1	1	-0.090782	-8.24857	-13.5649	42.4113
   4	1	2	0.148235	-8.02266	-13.2464	43.4247
   5	1	1	-0.079307	-8.84121	-14.4237	39.8067
   6	1	1	-0.073979	-7.80804	-14.8286	41.9769
   7	1	1	0.031918	-8.09975	-15.2551	40.6657
   8	1	3	-0.235323	-7.69499	-16.4961	40.2305
   9	1	1	0.139602	-6.8666	-16.7241	39.1507
  10	1	1	-0.107898	-6.07392	-15.7053	38.5886
  11	1	1	-0.094745	-6.77955	-18.0292	38.6412
  12	1	1	-0.163657	-5.2262	-15.9896	37.5033
  13	1	1	-0.253044	-5.91937	-18.3181	37.5661
  14	1	2	0.134377	-6.10348	-14.6986	38.9946
  15	1	1	-0.00458	-5.14282	-17.297	36.983
  16	1	2	0.169279	-7.38024	-18.8176	39.0891
  17	1	2	0.169448	-4.61539	-15.1941	37.0804
  18	1	1	-0.039038	-9.72358	-11.1494	44.3291
  19	1	1	-0.435237	-9.20885	-10.6436	45.5385
  20	1	1	0.120439	-9.0459	-10.9065	43.1239
  21	1	1	0.323935	-8.0157	-9.88414	45.5591
  22	1	1	-0.012898	-7.88284	-10.1231	43.1206
  23	1	2	0.208311	-9.73995	-10.8395	46.4676
  24	1	1	-0.466417	-7.37929	-9.61131	44.3298
  25	1	3	-0.302302	-9.4664	-11.5045	41.9614
  26	1	2	0.13972	-7.36557	-9.936	42.1826
  27	1	2	0.217142	-6.47255	-9.00956	44.3281
  28	1	2	0.144775	-10.63	-11.7507	44.3212
  29	1	2	0.161927	-9.86886	-12.5249	39.597
  30	1	2	0.152343	-9.08036	-14.7634	38.8021
  31	1	4	1.02665	-6.90733	-15.8682	43.1382
  32	1	5	-0.487155	-6.31523	-15.0885	44.2235
  33	1	5	-0.529829	-7.73922	-17.0422	43.3986
  34	1	6	-0.538439	-5.71576	-16.515	42.2513
  35	1	7	0.447385	-6.27826	-17.1428	41.7492
  36	1	2	0.176748	-5.85866	-19.3341	37.1779
  37	1	8	0.492969	-4.22959	-17.5859	35.8249
  38	1	5	-0.49751	-3.83786	-18.7059	35.5285
  39	1	1	0.228748	-9.19277	-16.4113	51.8733
  40	1	1	-0.221817	-7.8005	-16.39	51.6903
  41	1	1	-0.090782	-9.91178	-15.2097	51.9256
  42	1	2	0.148235	-10.9863	-15.2445	52.0872
  43	1	1	-0.079307	-7.13318	-15.1619	51.5461
  44	1	1	-0.073979	-9.25441	-13.9723	51.7738
  45	1	1	0.031918	-7.85446	-13.9564	51.5747
  46	1	3	-0.235323	-7.14874	-12.7846	51.4432
  47	1	1	0.139602	-7.18731	-11.9962	50.3172
  48	1	1	-0.107898	-7.3645	-12.5481	49.0372
  49	1	1	-0.094745	-7.07249	-10.6071	50.4656
  50	1	1	-0.163657	-7.44114	-11.7089	47.9119
  51	1	1	-0.253044	-7.15954	-9.76671	49.3418
  52	1	2	0.134377	-7.43726	-13.6249	48.9141
  53	1	1	-0.00458	-7.35909	-10.3038	48.0515
  54	1	2	0.169279	-6.93305	-10.1888	51.4603
  55	1	2	0.169448	-7.54364	-12.1671	46.9308
  56	1	1	-0.039038	-9.62199	-19.9771	51.9441
  57	1	1	-0.435237	-9.37739	-21.1508	51.2075
  58	1	1	0.120439	-9.60791	-18.7306	51.3035
  59	1	1	0.323935	-9.11877	-21.1083	49.8199
  60	1	1	-0.012898	-9.37959	-18.6663	49.9175
  61	1	2	0.208311	-9.4	-22.1159	51.7095
  62	1	1	-0.466417	-9.13788	-19.8438	49.184
  63	1	3	-0.302302	-9.8657	-17.5972	52.0398
  64	1	2	0.13972	-9.41154	-17.7046	49.4112
  65	1	2	0.217142	-9.00556	-19.776	48.1065
  66	1	2	0.144775	-9.82605	-20.0266	53.011
  67	1	2	0.161927	-7.24084	-17.3209	51.6796
  68	1	2	0.152343	-6.05383	-15.1364	51.4165
  69	1	4	1.02665	-10.2522	-12.4691	51.86
  70	1	5	-0.487155	-11.6432	-12.7124	52.2333
  71	1	5	-0.529829	-9.4931	-11.3425	52.3918
  72	1	6	-0.538439	-10.2851	-11.9622	50.3324
  73	1	7	0.447385	-9.7573	-11.1755	50.5585
  74	1	2	0.176748	-7.06417	-8.68866	49.468
  75	1	8	0.492969	-7.41528	-9.37634	46.8559
  76	1	5	-0.49751	-6.87067	-8.28132	46.9049
  77	1	1	0.228748	-2.79357	-19.8352	43.05
  78	1	1	-0.221817	-2.46271	-20.9258	43.866
  79	1	1	-0.090782	-4.12789	-19.625	42.6673
  80	1	2	0.148235	-4.36734	-18.7704	42.0438
  81	1	1	-0.079307	-3.46298	-21.8253	44.2751
  82	1	1	-0.073979	-5.13858	-20.5201	43.0727
  83	1	1	0.031918	-4.79613	-21.623	43.8798
  84	1	3	-0.235323	-5.74563	-22.5345	44.2676
  85	1	1	0.139602	-6.48643	-22.4487	45.426
  86	1	1	-0.107898	-6.20971	-21.5043	46.432
  87	1	1	-0.094745	-7.53645	-23.3598	45.604
  88	1	1	-0.163657	-6.98224	-21.4776	47.6076
  89	1	1	-0.253044	-8.30776	-23.3348	46.7792
  90	1	2	0.134377	-5.3953	-20.7973	46.3087
  91	1	1	-0.00458	-8.05124	-22.3843	47.7896
  92	1	2	0.169279	-7.74611	-24.0843	44.8214
  93	1	2	0.169448	-6.73128	-20.7582	48.3828
  94	1	1	-0.039038	-1.3849	-17.0386	41.2977
  95	1	1	-0.435237	-1.30677	-16.4212	40.0351
  96	1	1	0.120439	-1.75506	-18.3872	41.4004
  97	1	1	0.323935	-1.57287	-17.1409	38.8511
  98	1	1	-0.012898	-2.05449	-19.1136	40.2327
  99	1	2	0.208311	-1.02466	-15.3734	39.964
 100	1	1	-0.466417	-1.97561	-18.4911	38.9718
 101	1	3	-0.302302	-1.7992	-18.9762	42.6457
 102	1	2	0.13972	-2.34136	-20.1601	40.3063
 103	1	2	0.217142	-2.23298	-19.0609	38.08
 104	1	2	0.144775	-1.16194	-16.4772	42.2019
 105	1	2	0.161927	-1.42927	-21.0775	44.1639
 106	1	2	0.152343	-3.21172	-22.6854	44.891
 107	1	4	1.02665	-6.83817	-20.238	42.539
 108	1	5	-0.487155	-6.84097	-19.0714	41.6537
 109	1	5	-0.529829	-7.57531	-21.4489	42.1889
 110	1	6	-0.538439	-7.5473	-19.6667	43.8827
 111	1	7	0.447385	-7.69259	-18.7354	43.5905
 112	1	2	0.176748	-9.11338	-24.0558	46.9095
 113	1	8	0.492969	-8.88188	-22.4004	49.0541
 114	1	5	-0.49751	-9.33777	-23.4603	49.4648
 115	1	1	0.228748	-0.362632	-18.8898	29.0068
 116	1	1	-0.221817	0.888644	-18.464	29.4691
 117	1	1	-0.090782	-1.28918	-19.4467	29.9087
 118	1	2	0.148235	-2.26354	-19.7738	29.5552
 119	1	1	-0.079307	1.22369	-18.6069	30.825
 120	1	1	-0.073979	-0.968136	-19.5869	31.275
 121	1	1	0.031918	0.301001	-19.1582	31.7285
 122	1	3	-0.235323	0.707699	-19.2996	33.0319
 123	1	1	0.139602	0.226842	-18.5626	34.0897
 124	1	1	-0.107898	-0.46841	-17.3543	33.9118
 125	1	1	-0.094745	0.439785	-19.0549	35.3832
 126	1	1	-0.163657	-0.986388	-16.6733	35.0272
 127	1	1	-0.253044	-0.0708033	-18.3708	36.4996
 128	1	2	0.134377	-0.626252	-16.9553	32.914
 129	1	1	-0.00458	-0.827897	-17.188	36.3335
 130	1	2	0.169279	0.985761	-19.9865	35.508
 131	1	2	0.169448	-1.53115	-15.7444	34.8733
 132	1	1	-0.039038	-1.56026	-20.6511	26.5388
 133	1	1	-0.435237	-2.65235	-21.2758	25.9077
 134	1	1	0.120439	-1.69433	-19.3474	27.0391
 135	1	1	0.323935	-3.88825	-20.6105	25.7567
 136	1	1	-0.012898	-2.9169	-18.6725	26.9137
 137	1	2	0.208311	-2.55034	-22.2901	25.5277
 138	1	1	-0.466417	-4.00605	-19.3025	26.2849
 139	1	3	-0.302302	-0.637196	-18.7383	27.6672
 140	1	2	0.13972	-3.01704	-17.6677	27.3173
 141	1	2	0.217142	-4.95649	-18.7765	26.2267
 142	1	2	0.144775	-0.611577	-21.1715	26.6456
 143	1	2	0.161927	1.59891	-18.0354	28.7683
 144	1	2	0.152343	2.20073	-18.2928	31.1836
 145	1	4	1.02665	-2.22762	-20.2994	32.3617
 146	1	5	-0.487155	-1.69839	-20.8363	33.6123
 147	1	5	-0.529829	-3.25803	-21.0202	31.6175
 148	1	6	-0.538439	-2.99308	-18.974	32.8886
 149	1	7	0.447385	-3.08553	-19.2543	33.825
 150	1	2	0.176748	0.124775	-18.7792	37.4877
 151	1	8	0.492969	-1.4487	-16.4515	37.5038
 152	1	5	-0.49751	-1.88147	-15.3153	37.35
 153	1	1	0.228748	-13.0514	-18.1869	22.7741
 154	1	1	-0.221817	-12.4056	-18.5501	21.5853
 155	1	1	-0.090782	-12.3066	-17.754	23.8818
 156	1	2	0.148235	-12.8303	-17.4569	24.7865
 157	1	1	-0.079307	-11.0059	-18.4774	21.5027
 158	1	1	-0.073979	-10.9004	-17.6661	23.8065
 159	1	1	0.031918	-10.2548	-18.042	22.6065
 160	1	3	-0.235323	-8.89325	-17.9666	22.4535
 161	1	1	0.139602	-7.99	-18.8147	23.0552
 162	1	1	-0.107898	-6.63665	-18.4516	23.0376
 163	1	1	-0.094745	-8.38158	-20.013	23.6813
 164	1	1	-0.163657	-5.67754	-19.2595	23.6695
 165	1	1	-0.253044	-7.42134	-20.8228	24.3144
 166	1	2	0.134377	-6.3397	-17.529	22.5471
 167	1	1	-0.00458	-6.0641	-20.4408	24.3395
 168	1	2	0.169279	-9.42642	-20.3076	23.6942
 169	1	2	0.169448	-4.63329	-18.9569	23.6417
 170	1	1	-0.039038	-14.6085	-15.8642	22.1082
 171	1	1	-0.435237	-15.4279	-14.7727	21.774
 172	1	1	0.120439	-15.1868	-17.0992	22.4593
 173	1	1	0.323935	-16.8342	-14.8803	21.7653
 174	1	1	-0.012898	-16.5859	-17.2228	22.4619
 175	1	2	0.208311	-14.9723	-13.8144	21.5327
 176	1	1	-0.466417	-17.4031	-16.1261	22.1175
 177	1	3	-0.302302	-14.4223	-18.189	22.824
 178	1	2	0.13972	-17.0308	-18.1725	22.7498
 179	1	2	0.217142	-18.484	-16.2322	22.165
 180	1	2	0.144775	-13.5291	-15.7372	22.1084
 181	1	2	0.161927	-12.9935	-18.8702	20.7302
 182	1	2	0.152343	-10.4951	-18.7471	20.5813
 183	1	4	1.02665	-9.99081	-17.0464	25.241
 184	1	5	-0.487155	-8.6512	-16.5166	25.0017
 185	1	5	-0.529829	-10.9096	-16.3899	26.1659
 186	1	6	-0.538439	-9.79244	-18.3654	26.1402
 187	1	7	0.447385	-10.247	-17.9505	26.8933
 188	1	2	0.176748	-7.7299	-21.7408	24.8118
 189	1	8	0.492969	-5.04972	-21.2971	25.0589
 190	1	5	-0.49751	-5.16389	-22.5162	25.0599
 191	1	1	0.228748	-23.2747	-10.5234	15.6046
 192	1	1	-0.221817	-21.9272	-10.812	15.8826
 193	1	1	-0.090782	-24.2857	-11.3216	16.1582
 194	1	2	0.148235	-25.3225	-11.088	15.9313
 195	1	1	-0.079307	-21.6016	-11.8982	16.7143
 196	1	1	-0.073979	-23.9685	-12.4134	16.9915
 197	1	1	0.031918	-22.6183	-12.6945	17.2799
 198	1	3	-0.235323	-22.2952	-13.7615	18.0899
 199	1	1	0.139602	-21.2249	-13.7703	18.9542
 200	1	1	-0.107898	-20.9604	-12.6669	19.7799
 201	1	1	-0.094745	-20.3734	-14.8844	18.987
 202	1	1	-0.163657	-19.8233	-12.6642	20.6037
 203	1	1	-0.253044	-19.2278	-14.88	19.8072
 204	1	2	0.134377	-21.6254	-11.8081	19.7668
 205	1	1	-0.00458	-18.9363	-13.7628	20.626
 206	1	2	0.169279	-20.5925	-15.7352	18.3467
 207	1	2	0.169448	-19.6144	-11.7895	21.2173
 208	1	1	-0.039038	-22.3342	-9.02411	12.8414
 209	1	1	-0.435237	-21.5524	-8.13143	12.0801
 210	1	1	0.120439	-22.7982	-8.64828	14.1114
 211	1	1	0.323935	-21.2224	-6.84573	12.573
 212	1	1	-0.012898	-22.4747	-7.38329	14.6217
 213	1	2	0.208311	-21.258	-8.42184	11.0758
 214	1	1	-0.466417	-21.6902	-6.49754	13.8601
 215	1	3	-0.302302	-23.6538	-9.46717	14.8089
 216	1	2	0.13972	-22.8621	-7.08281	15.5923
 217	1	2	0.217142	-21.4732	-5.50378	14.247
 218	1	2	0.144775	-22.6206	-9.99196	12.4367
 219	1	2	0.161927	-21.136	-10.2004	15.4597
 220	1	2	0.152343	-20.5581	-12.1247	16.9192
 221	1	4	1.02665	-25.3057	-13.4096	17.6796
 222	1	5	-0.487155	-25.0307	-14.6431	18.408
 223	1	5	-0.529829	-26.5317	-12.6364	17.8369
 224	1	6	-0.538439	-26.2536	-13.7049	16.4934
 225	1	7	0.447385	-26.7435	-13.0628	17.1259
 226	1	2	0.176748	-18.5548	-15.7331	19.7671
 227	1	8	0.492969	-17.672	-13.6523	21.4538
 228	1	5	-0.49751	-17.263	-12.5411	21.7673
 229	1	1	0.228748	-13.0904	-6.43439	7.68032
 230	1	1	-0.221817	-14.026	-5.40968	7.8688
 231	1	1	-0.090782	-13.5312	-7.71873	7.30225
 232	1	2	0.148235	-12.806	-8.50932	7.14614
 233	1	1	-0.079307	-15.3987	-5.67465	7.72869
 234	1	1	-0.073979	-14.9057	-7.99041	7.14556
 235	1	1	0.031918	-15.8397	-6.96768	7.39005
 236	1	3	-0.235323	-17.1857	-7.22814	7.2943
 237	1	1	0.139602	-18.027	-6.93535	8.33689
 238	1	1	-0.107898	-18.0276	-7.74182	9.4857
 239	1	1	-0.094745	-18.8385	-5.79392	8.27966
 240	1	1	-0.163657	-18.8372	-7.40365	10.5853
 241	1	1	-0.253044	-19.6388	-5.4489	9.3827
 242	1	2	0.134377	-17.3833	-8.61657	9.5256
 243	1	1	-0.00458	-19.6548	-6.2525	10.544
 244	1	2	0.169279	-18.8153	-5.16315	7.39502
 245	1	2	0.169448	-18.7968	-8.01993	11.4807
 246	1	1	-0.039038	-10.7836	-7.77369	9.38053
 247	1	1	-0.435237	-10.0304	-8.95005	9.55242
 248	1	1	0.120439	-10.851	-7.16497	8.11676
 249	1	1	0.323935	-9.36179	-9.54104	8.46039
 250	1	1	-0.012898	-10.1297	-7.69962	7.03906
 251	1	2	0.208311	-10.0038	-9.4459	10.5199
 252	1	1	-0.466417	-9.41432	-8.89823	7.20565
 253	1	3	-0.302302	-11.756	-6.15845	7.89173
 254	1	2	0.13972	-10.1827	-7.21681	6.06659
 255	1	2	0.217142	-8.9078	-9.35201	6.35475
 256	1	2	0.144775	-11.3549	-7.35699	10.2066
 257	1	2	0.161927	-13.68	-4.41482	8.13363
 258	1	2	0.152343	-16.1208	-4.87769	7.88076
 259	1	4	1.02665	-15.4758	-9.64217	6.69177
 260	1	5	-0.487155	-16.3395	-10.2477	7.70472
 261	1	5	-0.529829	-15.8776	-9.64443	5.28649
 262	1	6	-0.538439	-14.1324	-10.5446	6.64203
 263	1	7	0.447385	-14.2015	-10.8176	5.69266
 264	1	2	0.176748	-20.2383	-4.5401	9.35022
 265	1	8	0.492969	-20.4723	-5.81656	11.7386
 266	1	5	-0.49751	-20.5871	-4.62101	11.9757
 267	1	1	0.228748	-15.6494	-15.8526	5.33336
 268	1	1	-0.221817	-14.8228	-16.5743	6.20154
 269	1	1	-0.090782	-15.1219	-14.7717	4.60225
 270	1	2	0.148235	-15.7542	-14.2366	3.89779
 271	1	1	-0.079307	-13.4737	-16.2225	6.34398
 272	1	1	-0.073979	-13.7615	-14.4112	4.72911
 273	1	1	0.031918	-12.9404	-15.1483	5.61678
 274	1	3	-0.235323	-11.5885	-14.9561	5.72841
 275	1	1	0.139602	-10.9586	-14.021	6.5154
 276	1	1	-0.107898	-11.6485	-12.9413	7.0909
 277	1	1	-0.094745	-9.56661	-14.1165	6.65667
 278	1	1	-0.163657	-10.9348	-11.9376	7.76493
 279	1	1	-0.253044	-8.85662	-13.1334	7.36632
 280	1	2	0.134377	-12.7253	-12.8553	6.98485
 281	1	1	-0.00458	-9.52976	-12.0179	7.90006
 282	1	2	0.169279	-9.03866	-14.9433	6.18958
 283	1	2	0.169448	-11.4849	-11.0957	8.17817
 284	1	1	-0.039038	-18.8728	-16.3248	3.78578
 285	1	1	-0.435237	-20.0265	-15.6947	3.29301
 286	1	1	0.120439	-18.0069	-15.638	4.64705
 287	1	1	0.323935	-20.3529	-14.3723	3.65838
 288	1	1	-0.012898	-18.322	-14.3269	5.04576
 289	1	2	0.208311	-20.6843	-16.2354	2.61503
 290	1	1	-0.466417	-19.4863	-13.7018	4.55579
 291	1	3	-0.302302	-16.9302	-16.3224	5.16071
 292	1	2	0.13972	-17.6842	-13.8107	5.75974
 293	1	2	0.217142	-19.7365	-12.7058	4.91219
 294	1	2	0.144775	-18.6507	-17.3511	3.50865
 295	1	2	0.161927	-15.2285	-17.423	6.74455
 296	1	2	0.152343	-12.8251	-16.7988	6.99956
 297	1	4	1.02665	-13.2029	-13.0082	3.72955
 298	1	5	-0.487155	-13.4044	-13.3914	2.33566
 299	1	5	-0.529829	-13.8056	-11.7994	4.29851
 300	1	6	-0.538439	-11.5952	-12.8526	3.87329
 301	1	7	0.447385	-11.3007	-13.7896	3.86912
 302	1	2	0.176748	-7.773	-13.1994	7.45282
 303	1	8	0.492969	-8.75682	-10.9177	8.58141
 304	1	5	-0.49751	-7.85951	-11.1694	9.37462
 305	1	1	0.228748	-20.1974	-5.16553	4.17087
 306	1	1	-0.221817	-20.9884	-6.00137	4.97105
 307	1	1	-0.090782	-20.2098	-5.30368	2.77386
 308	1	2	0.148235	-19.5615	-4.67407	2.16952
 309	1	1	-0.079307	-21.7813	-6.99373	4.37057
 310	1	1	-0.073979	-20.9896	-6.30501	2.16577
 311	1	1	0.031918	-21.7668	-7.15888	2.97414
 312	1	3	-0.235323	-22.5096	-8.17011	2.41982
 313	1	1	0.139602	-22.2561	-9.49396	2.68435
 314	1	1	-0.107898	-23.3296	-10.3416	2.98172
 315	1	1	-0.094745	-20.9551	-10.0179	2.60007
 316	1	1	-0.163657	-23.1133	-11.7167	3.1598
 317	1	1	-0.253044	-20.7335	-11.3931	2.79893
 318	1	2	0.134377	-24.3351	-9.93587	3.03961
 319	1	1	-0.00458	-21.8151	-12.2612	3.07344
 320	1	2	0.169279	-20.1281	-9.36456	2.3337
 321	1	2	0.169448	-23.9659	-12.3689	3.34328
 322	1	1	-0.039038	-16.9749	-3.60076	4.73242
 323	1	1	-0.435237	-15.6016	-3.88326	4.5762
 324	1	1	0.120439	-17.9224	-4.63257	4.63711
 325	1	1	0.323935	-15.1523	-5.19402	4.30473
 326	1	1	-0.012898	-17.4825	-5.94958	4.40728
 327	1	2	0.208311	-14.8703	-3.08145	4.64847
 328	1	1	-0.466417	-16.1195	-6.22004	4.2315
 329	1	3	-0.302302	-19.2667	-4.34826	4.76265
 330	1	2	0.13972	-18.1909	-6.77348	4.37168
 331	1	2	0.217142	-15.815	-7.25241	4.07364
 332	1	2	0.144775	-17.3121	-2.58336	4.915
 333	1	2	0.161927	-20.9496	-5.90828	6.05193
 334	1	2	0.152343	-22.3841	-7.65838	4.98459
 335	1	4	1.02665	-20.8477	-6.54798	0.386224
 336	1	5	-0.487155	-20.1729	-5.43636	-0.281864
 337	1	5	-0.529829	-20.4078	-7.92091	0.161393
 338	1	6	-0.538439	-22.3691	-6.6139	-0.161989
 339	1	7	0.447385	-22.3694	-7.56504	-0.42077
 340	1	2	0.176748	-19.7285	-11.7867	2.66461
 341	1	8	0.492969	-21.6483	-13.7611	3.15125
 342	1	5	-0.49751	-22.567	-14.4782	2.76913
 343	1	1	0.228748	-16.4562	-12.1374	-0.398414
 344	1	1	-0.221817	-16.5746	-11.4211	0.803377
 345	1	1	-0.090782	-15.2024	-12.3009	-0.997549
 346	1	2	0.148235	-15.1302	-12.8731	-1.91838
 347	1	1	-0.079307	-15.434	-10.8494	1.39091
 348	1	1	-0.073979	-14.0529	-11.7389	-0.410472
 349	1	1	0.031918	-14.1749	-10.9858	0.771844
 350	1	3	-0.235323	-13.0548	-10.4333	1.35369
 351	1	1	0.139602	-13.0787	-9.19006	1.94132
 352	1	1	-0.107898	-12.3893	-8.97304	3.14444
 353	1	1	-0.094745	-13.8436	-8.15583	1.37502
 354	1	1	-0.163657	-12.5274	-7.74541	3.81899
 355	1	1	-0.253044	-13.999	-6.94129	2.05813
 356	1	2	0.134377	-11.7878	-9.7731	3.56923
 357	1	1	-0.00458	-13.3688	-6.73971	3.30363
 358	1	2	0.169279	-14.3521	-8.3155	0.427771
 359	1	2	0.169448	-12.0294	-7.59022	4.77002
 360	1	1	-0.039038	-19.0444	-11.0032	-1.67882
 361	1	1	-0.435237	-20.3348	-10.4442	-1.66981
 362	1	1	0.120439	-18.7927	-12.1889	-0.973869
 363	1	1	0.323935	-21.3971	-11.0527	-0.965989
 364	1	1	-0.012898	-19.8287	-12.8077	-0.261467
 365	1	2	0.208311	-20.512	-9.50229	-2.18394
 366	1	1	-0.466417	-21.1174	-12.2493	-0.264725
 367	1	3	-0.302302	-17.539	-12.7449	-0.978583
 368	1	2	0.13972	-19.6268	-13.7067	0.31432
 369	1	2	0.217142	-21.8876	-12.7318	0.328385
 370	1	2	0.144775	-18.2374	-10.5148	-2.21921
 371	1	2	0.161927	-17.5421	-11.3191	1.28487
 372	1	2	0.152343	-15.5213	-10.3144	2.33547
 373	1	4	1.02665	-12.4425	-12.0615	-1.14069
 374	1	5	-0.487155	-12.6051	-13.0801	-2.17674
 375	1	5	-0.529829	-11.7374	-10.795	-1.31752
 376	1	6	-0.538439	-11.7046	-12.7934	0.104585
 377	1	7	0.447385	-12.3087	-12.5511	0.832559
 378	1	2	0.176748	-14.6398	-6.17032	1.63418
 379	1	8	0.492969	-13.6801	-5.50772	4.11107
 380	1	5	-0.49751	-12.8005	-4.90406	4.70981
 381	1	1	0.228748	-28.7255	-17.0666	0.167318
 382	1	1	-0.221817	-29.2032	-15.9214	-0.484474
 383	1	1	-0.090782	-27.7221	-16.9637	1.13985
 384	1	2	0.148235	-27.3552	-17.8654	1.62447
 385	1	1	-0.079307	-28.6747	-14.6624	-0.156066
 386	1	1	-0.073979	-27.1819	-15.7056	1.47189
 387	1	1	0.031918	-27.6614	-14.5531	0.810534
 388	1	3	-0.235323	-27.2222	-13.2948	1.13479
 389	1	1	0.139602	-26.1814	-12.6271	0.529368
 390	1	1	-0.107898	-26.051	-11.2577	0.796229
 391	1	1	-0.094745	-25.2453	-13.2643	-0.306849
 392	1	1	-0.163657	-24.9682	-10.5323	0.274655
 393	1	1	-0.253044	-24.1524	-12.5394	-0.819452
 394	1	2	0.134377	-26.7836	-10.766	1.42969
 395	1	1	-0.00458	-23.9744	-11.1742	-0.490718
 396	1	2	0.169279	-25.3444	-14.3225	-0.536665
 397	1	2	0.169448	-24.8685	-9.47436	0.510244
 398	1	1	-0.039038	-27.7131	-18.4754	-2.1238
 399	1	1	-0.435237	-27.2797	-19.2088	-3.24206
 400	1	1	0.120439	-28.7586	-18.967	-1.31745
 401	1	1	0.323935	-27.8584	-20.4569	-3.56699
 402	1	1	-0.012898	-29.3816	-20.1746	-1.66311
 403	1	2	0.208311	-26.4933	-18.7944	-3.86754
 404	1	1	-0.466417	-28.9411	-20.9049	-2.78144
 405	1	3	-0.302302	-29.197	-18.3003	-0.194492
 406	1	2	0.13972	-30.1997	-20.5471	-1.05143
 407	1	2	0.217142	-29.4323	-21.8427	-3.03626
 408	1	2	0.144775	-27.2342	-17.5272	-1.89215
 409	1	2	0.161927	-29.9781	-16.0165	-1.23975
 410	1	2	0.152343	-29.0472	-13.7657	-0.645213
 411	1	4	1.02665	-25.8337	-15.6541	2.66673
 412	1	5	-0.487155	-25.6115	-14.3415	3.26725
 413	1	5	-0.529829	-25.7423	-16.8733	3.46704
 414	1	6	-0.538439	-24.5718	-15.7912	1.66514
 415	1	7	0.447385	-23.9263	-15.2523	2.19
 416	1	2	0.176748	-23.4316	-13.0552	-1.45204
 417	1	8	0.492969	-22.7613	-10.3794	-0.924192
 418	1	5	-0.49751	-22.8567	-9.16279	-1.06151
 419	1	1	0.228748	-19.0916	-18.291	-5.36756
 420	1	1	-0.221817	-20.2738	-17.9762	-6.04903
 421	1	1	-0.090782	-18.8231	-19.6118	-4.98148
 422	1	2	0.148235	-17.8892	-19.8407	-4.47516
 423	1	1	-0.079307	-21.2063	-18.9874	-6.33378
 424	1	1	-0.073979	-19.7388	-20.6348	-5.29145
 425	1	1	0.031918	-20.9396	-20.3155	-5.95531
 426	1	3	-0.235323	-21.8458	-21.2994	-6.26503
 427	1	1	0.139602	-23.1656	-21.2444	-5.88381
 428	1	1	-0.107898	-23.5274	-20.8716	-4.57884
 429	1	1	-0.094745	-24.1546	-21.642	-6.79197
 430	1	1	-0.163657	-24.879	-20.8885	-4.19124
 431	1	1	-0.253044	-25.5059	-21.65	-6.407
 432	1	2	0.134377	-22.7587	-20.5918	-3.86369
 433	1	1	-0.00458	-25.8921	-21.2563	-5.10861
 434	1	2	0.169279	-23.8669	-21.9727	-7.78682
 435	1	2	0.169448	-25.1264	-20.63	-3.16585
 436	1	1	-0.039038	-16.611	-17.2317	-3.31754
 437	1	1	-0.435237	-16.2732	-16.8127	-2.02181
 438	1	1	0.120439	-17.8704	-16.9293	-3.84467
 439	1	1	0.323935	-17.1838	-16.0781	-1.22341
 440	1	1	-0.012898	-18.8079	-16.239	-3.06358
 441	1	2	0.208311	-15.2962	-17.0976	-1.64852
 442	1	1	-0.466417	-18.4709	-15.8386	-1.75807
 443	1	3	-0.302302	-18.1752	-17.3066	-5.123
 444	1	2	0.13972	-19.7853	-16.0068	-3.48018
 445	1	2	0.217142	-19.1981	-15.2989	-1.16104
 446	1	2	0.144775	-15.901	-17.801	-3.91035
 447	1	2	0.161927	-20.4509	-16.9527	-6.36703
 448	1	2	0.152343	-22.122	-18.7498	-6.86931
 449	1	4	1.02665	-19.3502	-22.3238	-4.82236
 450	1	5	-0.487155	-19.6407	-23.2297	-5.93546
 451	1	5	-0.529829	-18.1001	-22.4234	-4.07439
 452	1	6	-0.538439	-20.5399	-22.6759	-3.77377
 453	1	7	0.447385	-21.1504	-23.1441	-4.39752
 454	1	2	0.176748	-26.2602	-21.9857	-7.11731
 455	1	8	0.492969	-27.359	-21.2981	-4.72795
 456	1	5	-0.49751	-28.1159	-22.0644	-5.30959
 457	1	1	0.228748	-8.68331	-17.9659	-0.808701
 458	1	1	-0.221817	-9.94637	-18.5863	-0.872495
 459	1	1	-0.090782	-8.4278	-17.0241	0.200052
 460	1	2	0.148235	-7.47087	-16.5111	0.218431
 461	1	1	-0.079307	-10.9194	-18.3073	0.0984471
 462	1	1	-0.073979	-9.41428	-16.7107	1.15647
 463	1	1	0.031918	-10.656	-17.3707	1.11188
 464	1	3	-0.235323	-11.6462	-17.0688	2.01389
 465	1	1	0.139602	-12.8842	-16.6376	1.60922
 466	1	1	-0.107898	-14.0152	-17.0112	2.34774
 467	1	1	-0.094745	-13.0267	-15.8539	0.452043
 468	1	1	-0.163657	-15.2961	-16.645	1.90057
 469	1	1	-0.253044	-14.3056	-15.4965	0.00101623
 470	1	2	0.134377	-13.8941	-17.5961	3.25549
 471	1	1	-0.00458	-15.4535	-15.915	0.70517
 472	1	2	0.169279	-12.1459	-15.5258	-0.0942255
 473	1	2	0.169448	-16.1716	-16.9485	2.46959
 474	1	1	-0.039038	-7.96755	-20.5836	-2.17819
 475	1	1	-0.435237	-8.12568	-21.6297	-3.10413
 476	1	1	0.120439	-7.72754	-19.2736	-2.62559
 477	1	1	0.323935	-8.00547	-21.4042	-4.4974
 478	1	1	-0.012898	-7.56763	-19.0366	-3.99841
 479	1	2	0.208311	-8.38764	-22.6128	-2.72166
 480	1	1	-0.466417	-7.7079	-20.0906	-4.92039
 481	1	3	-0.302302	-7.6983	-18.2162	-1.74187
 482	1	2	0.13972	-7.36617	-18.0295	-4.34835
 483	1	2	0.217142	-7.61455	-19.8863	-5.98468
 484	1	2	0.144775	-8.0831	-20.7764	-1.11422
 485	1	2	0.161927	-10.1861	-19.2767	-1.67537
 486	1	2	0.152343	-11.89	-18.7952	0.0510274
 487	1	4	1.02665	-9.11273	-15.3674	2.3143
 488	1	5	-0.487155	-10.1255	-15.1603	3.3458
 489	1	5	-0.529829	-7.69592	-15.2162	2.65986
 490	1	6	-0.538439	-9.3489	-14.0967	1.3566
 491	1	7	0.447385	-9.08465	-13.3845	1.99025
 492	1	2	0.176748	-14.4013	-14.9132	-0.910963
 493	1	8	0.492969	-16.8354	-15.6183	0.186914
 494	1	5	-0.49751	-17.7065	-15.289	0.980909
 495	1	1	0.228748	-13.6275	-26.9986	-1.65601
 496	1	1	-0.221817	-13.2969	-28.0125	-2.56673
 497	1	1	-0.090782	-12.616	-26.2202	-1.07182
 498	1	2	0.148235	-12.8901	-25.4445	-0.363367
 499	1	1	-0.079307	-11.9598	-28.1827	-2.96434
 500	1	1	-0.073979	-11.272	-26.3921	-1.45083
 501	1	1	0.031918	-10.9561	-27.3523	-2.43779
 502	1	3	-0.235323	-9.71553	-27.381	-3.02939
 503	1	1	0.139602	-9.30252	-26.3097	-3.79104
 504	1	1	-0.107898	-10.2027	-25.6477	-4.64669
 505	1	1	-0.094745	-8.00962	-25.7977	-3.60827
 506	1	1	-0.163657	-9.83117	-24.4416	-5.26183
 507	1	1	-0.253044	-7.64097	-24.5825	-4.21231
 508	1	2	0.134377	-11.2035	-26.0426	-4.79687
 509	1	1	-0.00458	-8.56649	-23.8763	-5.01041
 510	1	2	0.169279	-7.32755	-26.3076	-2.93187
 511	1	2	0.169448	-10.5467	-23.9112	-5.88639
 512	1	1	-0.039038	-14.7955	-24.5242	-2.56486
 513	1	1	-0.435237	-15.1564	-23.1689	-2.62738
 514	1	1	0.120439	-15.3795	-25.3672	-1.6004
 515	1	1	0.323935	-16.1199	-22.6182	-1.75449
 516	1	1	-0.012898	-16.3716	-24.8521	-0.751599
 517	1	2	0.208311	-14.677	-22.5209	-3.35744
 518	1	1	-0.466417	-16.734	-23.4906	-0.82225
 519	1	3	-0.302302	-14.9461	-26.67	-1.44009
 520	1	2	0.13972	-16.8262	-25.5057	-0.011188
 521	1	2	0.217142	-17.4695	-23.1078	-0.122326
 522	1	2	0.144775	-14.0362	-24.9088	-3.2427
 523	1	2	0.161927	-14.0786	-28.6135	-3.02094
 524	1	2	0.152343	-11.707	-28.9038	-3.73801
 525	1	4	1.02665	-10.0171	-25.3087	-0.734266
 526	1	5	-0.487155	-8.67359	-25.8648	-0.595941
 527	1	5	-0.529829	-10.2165	-23.9509	-1.23354
 528	1	6	-0.538439	-10.555	-24.9608	0.740475
 529	1	7	0.447385	-10.5779	-24.0136	0.516635
 530	1	2	0.176748	-6.65598	-24.1637	-4.01523
 531	1	8	0.492969	-8.25847	-22.4971	-5.52715
 532	1	5	-0.49751	-8.53802	-22.2159	-6.68616
 533	1	1	0.228748	-24.5268	-19.8505	1.42617
 534	1	1	-0.221817	-23.4967	-20.4387	2.17266
 535	1	1	-0.090782	-24.2552	-18.78	0.561751
 536	1	2	0.148235	-25.0677	-18.333	-0.00384383
 537	1	1	-0.079307	-22.1815	-19.9632	2.04261
 538	1	1	-0.073979	-22.9397	-18.2929	0.42885
 539	1	1	0.031918	-21.9013	-18.9065	1.15932
 540	1	3	-0.235323	-20.6028	-18.4873	1.01866
 541	1	1	0.139602	-19.6151	-19.2125	0.389063
 542	1	1	-0.107898	-18.298	-18.7599	0.520122
 543	1	1	-0.094745	-19.8852	-20.3384	-0.413537
 544	1	1	-0.163657	-17.2547	-19.4001	-0.167893
 545	1	1	-0.253044	-18.8353	-20.997	-1.08336
 546	1	2	0.134377	-18.1013	-17.8903	1.13684
 547	1	1	-0.00458	-17.5095	-20.5229	-0.980065
 548	1	2	0.169279	-20.9061	-20.6867	-0.541474
 549	1	2	0.169448	-16.2411	-19.0126	-0.0914263
 550	1	1	-0.039038	-27.5341	-21.8625	0.815109
 551	1	1	-0.435237	-28.0473	-22.8348	-0.0632068
 552	1	1	0.120439	-26.2468	-21.3446	0.61989
 553	1	1	0.323935	-27.2972	-23.3077	-1.1622
 554	1	1	-0.012898	-25.4732	-21.8176	-0.458915
 555	1	2	0.208311	-29.0577	-23.2097	0.0845297
 556	1	1	-0.466417	-25.9966	-22.7799	-1.34349
 557	1	3	-0.302302	-25.7905	-20.3764	1.48987
 558	1	2	0.13972	-24.4722	-21.4299	-0.62577
 559	1	2	0.217142	-25.3966	-23.0913	-2.19408
 560	1	2	0.144775	-28.1353	-21.4944	1.64313
 561	1	2	0.161927	-23.7243	-21.2619	2.84415
 562	1	2	0.152343	-21.3764	-20.4137	2.6179
 563	1	4	1.02665	-22.6185	-16.9289	-0.706973
 564	1	5	-0.487155	-23.7996	-16.4991	-1.45747
 565	1	5	-0.529829	-21.6623	-15.9853	-0.13249
 566	1	6	-0.538439	-21.6061	-17.5982	-1.76924
 567	1	7	0.447385	-20.8299	-17.1653	-1.36761
 568	1	2	0.176748	-19.0584	-21.8504	-1.72038
 569	1	8	0.492969	-16.378	-21.117	-1.78587
 570	1	5	-0.49751	-15.552	-20.3557	-2.27869
 571	1	1	0.228748	-20.8386	-28.4942	-5.42125
 572	1	1	-0.221817	-21.9203	-29.376	-5.28731
 573	1	1	-0.090782	-21.0756	-27.1427	-5.73362
 574	1	2	0.148235	-20.2464	-26.4475	-5.81662
 575	1	1	-0.079307	-23.235	-28.9147	-5.47291
 576	1	1	-0.073979	-22.3866	-26.681	-5.95729
 577	1	1	0.031918	-23.4686	-27.57	-5.80219
 578	1	3	-0.235323	-24.7657	-27.1512	-5.9615
 579	1	1	0.139602	-25.4753	-26.442	-5.01524
 580	1	1	-0.107898	-25.0492	-26.3338	-3.67733
 581	1	1	-0.094745	-26.6779	-25.8384	-5.40722
 582	1	1	-0.163657	-25.8304	-25.6296	-2.74121
 583	1	1	-0.253044	-27.4621	-25.143	-4.47088
 584	1	2	0.134377	-24.1262	-26.8084	-3.35854
 585	1	1	-0.00458	-27.0436	-25.0202	-3.13075
 586	1	2	0.169279	-26.9985	-25.9159	-6.44279
 587	1	2	0.169448	-25.503	-25.5807	-1.70547
 588	1	1	-0.039038	-18.1204	-27.7807	-6.74255
 589	1	1	-0.435237	-16.9534	-27.0189	-6.94885
 590	1	1	0.120439	-18.4137	-28.2861	-5.46264
 591	1	1	0.323935	-16.0458	-26.7887	-5.89204
 592	1	1	-0.012898	-17.5186	-28.068	-4.40712
 593	1	2	0.208311	-16.7377	-26.6234	-7.9386
 594	1	1	-0.466417	-16.3437	-27.3306	-4.6276
 595	1	3	-0.302302	-19.5697	-28.9892	-5.21881
 596	1	2	0.13972	-17.7451	-28.4642	-3.42023
 597	1	2	0.217142	-15.6606	-27.1509	-3.80851
 598	1	2	0.144775	-18.8049	-27.9722	-7.56611
 599	1	2	0.161927	-21.7332	-30.4163	-5.03678
 600	1	2	0.152343	-24.0772	-29.5939	-5.36421
 601	1	4	1.02665	-22.6311	-24.9582	-6.41862
 602	1	5	-0.487155	-23.871	-24.6564	-7.12766
 603	1	5	-0.529829	-22.1931	-24.1582	-5.2723
 604	1	6	-0.538439	-21.4121	-24.6651	-7.44895
 605	1	7	0.447385	-20.8857	-24.0559	-6.88546
 606	1	2	0.176748	-28.3991	-24.6858	-4.78817
 607	1	8	0.492969	-27.9217	-24.294	-2.13843
 608	1	5	-0.49751	-29.1378	-24.4234	-2.19849
 609	1	1	0.228748	-13.7175	-17.55	-5.73448
 610	1	1	-0.221817	-12.9805	-18.746	-5.77536
 611	1	1	-0.090782	-14.8946	-17.4272	-6.48818
 612	1	2	0.148235	-15.4758	-16.5098	-6.42665
 613	1	1	-0.079307	-13.4017	-19.8027	-6.59698
 614	1	1	-0.073979	-15.3311	-18.4907	-7.3022
 615	1	1	0.031918	-14.5749	-19.6789	-7.36514
 616	1	3	-0.235323	-14.9753	-20.71	-8.1864
 617	1	1	0.139602	-14.9654	-22.0135	-7.76068
 618	1	1	-0.107898	-13.8512	-22.8278	-8.01322
 619	1	1	-0.094745	-16.0527	-22.512	-7.02897
 620	1	1	-0.163657	-13.8021	-24.1287	-7.4843
 621	1	1	-0.253044	-16.0172	-23.823	-6.52307
 622	1	2	0.134377	-13.0158	-22.4347	-8.58635
 623	1	1	-0.00458	-14.8825	-24.637	-6.73431
 624	1	2	0.169279	-16.9084	-21.869	-6.83892
 625	1	2	0.169448	-12.9198	-24.7449	-7.64708
 626	1	1	-0.039038	-11.0027	-16.2636	-5.53261
 627	1	1	-0.435237	-9.68742	-15.9333	-5.15619
 628	1	1	0.120439	-12.0369	-16.2217	-4.58124
 629	1	1	0.323935	-9.38108	-15.5271	-3.83881
 630	1	1	-0.012898	-11.7445	-15.8506	-3.26267
 631	1	2	0.208311	-8.89238	-15.9599	-5.89812
 632	1	1	-0.466417	-10.4291	-15.5176	-2.89063
 633	1	3	-0.302302	-13.3408	-16.5116	-4.91683
 634	1	2	0.13972	-12.551	-15.8055	-2.53763
 635	1	2	0.217142	-10.2328	-15.226	-1.86229
 636	1	2	0.144775	-11.2242	-16.538	-6.56108