pySIMM System Object

876 atoms
944 bonds
1518 angles
2227 dihedrals
253 impropers

9 atom types
10 bond types
15 angle types
5 dihedral types
2 improper types

-149.855971 149.855971 xlo xhi
-149.855971 149.855971 ylo yhi
-149.855971 149.855971 zlo zhi

Masses

   1	12.01	# ca
   2	1.008	# ha
   3	16.0	# os
   4	32.06	# sy
   5	16.0	# o
   6	16.0	# oh
   7	1.008	# ho
   8	12.01	# c
   9	1.008	# h4

Pair Coeffs

   1	0.086	3.3996695084235347	# ca
   2	0.015	2.59964245953351	# ha
   3	0.17	3.0000123434657784	# os
   4	0.25	3.563594872561357	# sy
   5	0.21	2.959921901149463	# o
   6	0.2104	3.0664733878390478	# oh
   7	1e-05	0.0	# ho
   8	0.086	3.3996695084235347	# c
   9	0.015	2.5105525877194763	# h4

Bond Coeffs

   1	345.8	1.086	# ca,ha
   2	243.4	1.7909	# ca,sy
   3	289.8	1.6497	# oh,sy
   4	637.7	1.2183	# c,o
   5	376.6	1.3696	# ca,os
   6	371.4	0.973	# ho,oh
   7	461.1	1.3984	# ca,ca
   8	345.9	1.4906	# c,ca
   9	310.7	1.1121	# c,h4
  10	493.0	1.466	# o,sy

Angle Coeffs

   1	48.18	119.88	# ca,ca,ha
   2	72.54	121.41	# o,sy,o
   3	72.32	106.68	# o,sy,oh
   4	61.48	119.42	# ca,ca,sy
   5	64.28	120.33	# c,ca,ca
   6	69.58	119.2	# ca,ca,os
   7	68.72	122.6	# ca,c,o
   8	54.22	120.7	# h4,c,o
   9	46.43	115.14	# ca,c,h4
  10	44.17	106.42	# ho,oh,sy
  11	65.46	101.3	# ca,sy,oh
  12	65.77	108.35	# ca,sy,o
  13	63.48	119.89	# ca,os,ca
  14	66.62	120.02	# ca,ca,ca
  15	63.0	118.11	# ca,c,ca

Dihedral Coeffs

   1	1	1.3	2	180	# X,ca,sy,X
   2	1	9.5	1	180	# X,oh,sy,X
   3	1	3.625	2	180	# X,ca,ca,X
   4	1	1.0	2	180	# X,c,ca,X
   5	1	0.9	2	180	# X,ca,os,X

Improper Coeffs

   1	10.5	-1	2	# c,X,X,o
   2	1.1	-1	2	# ca,X,X,ha

Atoms

   1	1	1	0.228748	-80.4215	-15.973	0.229032
   2	1	1	-0.221817	-81.7552	-16.0237	-0.205609
   3	1	1	-0.090782	-79.9258	-16.9924	1.06215
   4	1	2	0.148235	-78.9044	-16.9474	1.42942
   5	1	1	-0.079307	-82.595	-17.0828	0.183883
   6	1	1	-0.073979	-80.7608	-18.0597	1.45389
   7	1	1	0.031918	-82.0992	-18.1052	1.01218
   8	1	3	-0.235323	-82.9388	-19.1006	1.46209
   9	1	1	0.139602	-83.8294	-19.8129	0.691439
  10	1	1	-0.107898	-83.5119	-20.2209	-0.616234
  11	1	1	-0.094745	-85.0457	-20.2089	1.26833
  12	1	1	-0.163657	-84.4169	-21.0165	-1.34519
  13	1	1	-0.253044	-85.9518	-20.9996	0.53956
  14	1	2	0.134377	-82.5562	-19.9429	-1.05211
  15	1	1	-0.00458	-85.6431	-21.4139	-0.772036
  16	1	2	0.169279	-85.2763	-19.907	2.28673
  17	1	2	0.169448	-84.1557	-21.3386	-2.35056
  18	1	1	-0.039038	-77.7836	-13.4931	0.379178
  19	1	1	-0.435237	-76.3935	-13.2586	0.370857
  20	1	1	0.120439	-78.3063	-14.7196	-0.0599293
  21	1	1	0.323935	-75.489	-14.2488	-0.0798262
  22	1	1	-0.012898	-77.4258	-15.7088	-0.530082
  23	1	2	0.208311	-76.0286	-12.2792	0.665574
  24	1	1	-0.466417	-76.0369	-15.4735	-0.527975
  25	1	3	-0.302302	-79.6771	-14.8662	-0.122619
  26	1	2	0.13972	-77.8196	-16.6432	-0.922274
  27	1	2	0.217142	-75.3651	-16.2378	-0.914434
  28	1	2	0.144775	-78.4703	-12.7131	0.699091
  29	1	2	0.161927	-82.1409	-15.2201	-0.826629
  30	1	2	0.152343	-83.636	-17.0971	-0.130029
  31	1	4	1.02665	-80.0862	-19.3537	2.50912
  32	1	5	-0.487155	-78.6422	-19.2489	2.70732
  33	1	5	-0.529829	-81.0059	-19.6418	3.60424
  34	1	6	-0.538439	-80.3742	-20.7004	1.67566
  35	1	7	0.447385	-81.0946	-20.9453	2.28381
  36	1	2	0.176748	-86.8931	-21.3084	0.993479
  37	1	8	0.492969	-86.5986	-22.2834	-1.54458
  38	1	5	-0.49751	-87.657	-22.6934	-1.09687
  39	1	1	0.228748	-67.0625	-9.6742	2.58405
  40	1	1	-0.221817	-67.7413	-10.8019	3.06576
  41	1	1	-0.090782	-67.7873	-8.5731	2.09849
  42	1	2	0.148235	-67.2549	-7.71751	1.69041
  43	1	1	-0.079307	-69.1462	-10.8313	3.07524
  44	1	1	-0.073979	-69.1981	-8.60215	2.08986
  45	1	1	0.031918	-69.8779	-9.73772	2.58006
  46	1	3	-0.235323	-71.2549	-9.80044	2.57799
  47	1	1	0.139602	-71.9406	-10.7879	1.90509
  48	1	1	-0.107898	-72.986	-11.4743	2.54423
  49	1	1	-0.094745	-71.595	-11.123	0.586468
  50	1	1	-0.163657	-73.6711	-12.5091	1.87587
  51	1	1	-0.253044	-72.277	-12.1561	-0.0797863
  52	1	2	0.134377	-73.2445	-11.2171	3.56769
  53	1	1	-0.00458	-73.3277	-12.858	0.549913
  54	1	2	0.169279	-70.7978	-10.581	0.0839791
  55	1	2	0.169448	-74.448	-13.0585	2.40328
  56	1	1	-0.039038	-65.0381	-7.94207	4.01675
  57	1	1	-0.435237	-64.0574	-7.01718	4.42923
  58	1	1	0.120439	-64.8155	-8.73925	2.88025
  59	1	1	0.323935	-62.8368	-6.87474	3.73163
  60	1	1	-0.012898	-63.6226	-8.5894	2.1578
  61	1	2	0.208311	-64.2307	-6.40655	5.31326
  62	1	1	-0.466417	-62.6502	-7.65893	2.56946
  63	1	3	-0.302302	-65.6926	-9.7282	2.49439
  64	1	2	0.13972	-63.4564	-9.20586	1.27755
  65	1	2	0.217142	-61.7486	-7.54265	1.97391
  66	1	2	0.144775	-65.9539	-8.05915	4.59094
  67	1	2	0.161927	-67.1713	-11.657	3.41745
  68	1	2	0.152343	-69.6713	-11.7071	3.44888
  69	1	4	1.02665	-70.0978	-7.21848	1.37254
  70	1	5	-0.487155	-69.2474	-6.07745	1.04188
  71	1	5	-0.529829	-71.0951	-7.74291	0.444285
  72	1	6	-0.538439	-71.1179	-6.7716	2.53545
  73	1	7	0.447385	-71.8617	-7.22687	2.10539
  74	1	2	0.176748	-71.9856	-12.4222	-1.09492
  75	1	8	0.492969	-73.9864	-14.0095	-0.181709
  76	1	5	-0.49751	-73.3018	-14.7025	-0.923842
  77	1	1	0.228748	-53.0603	-5.54804	5.51577
  78	1	1	-0.221817	-54.3043	-5.82254	6.09944
  79	1	1	-0.090782	-52.8837	-5.73016	4.13287
  80	1	2	0.148235	-51.9129	-5.54409	3.68086
  81	1	1	-0.079307	-55.3765	-6.26329	5.3046
  82	1	1	-0.073979	-53.9561	-6.15759	3.32649
  83	1	1	0.031918	-55.2098	-6.42421	3.91452
  84	1	3	-0.235323	-56.2467	-6.89857	3.14072
  85	1	1	0.139602	-57.5731	-6.65164	3.40634
  86	1	1	-0.107898	-58.456	-7.7297	3.55964
  87	1	1	-0.094745	-58.0485	-5.33623	3.52776
  88	1	1	-0.163657	-59.8153	-7.49644	3.83466
  89	1	1	-0.253044	-59.4099	-5.10245	3.79773
  90	1	2	0.134377	-58.0783	-8.74516	3.47761
  91	1	1	-0.00458	-60.3156	-6.17766	3.93325
  92	1	2	0.169279	-57.36	-4.5039	3.40507
  93	1	2	0.169448	-60.4744	-8.34912	3.98134
  94	1	1	-0.039038	-51.1769	-3.22114	5.11557
  95	1	1	-0.435237	-50.0767	-2.46199	4.67894
  96	1	1	0.120439	-50.9706	-4.36642	5.9027
  97	1	1	0.323935	-48.7532	-2.81816	5.01779
  98	1	1	-0.012898	-49.6669	-4.71619	6.28453
  99	1	2	0.208311	-50.2433	-1.57428	4.07169
 100	1	1	-0.466417	-48.5682	-3.9493	5.84864
 101	1	3	-0.302302	-52.0281	-5.13796	6.32917
 102	1	2	0.13972	-49.5172	-5.58482	6.9214
 103	1	2	0.217142	-47.5719	-4.2209	6.18554
 104	1	2	0.144775	-52.1872	-2.9227	4.84696
 105	1	2	0.161927	-54.4287	-5.6996	7.1715
 106	1	2	0.152343	-56.3318	-6.49181	5.77063
 107	1	4	1.02665	-53.679	-6.33876	1.55555
 108	1	5	-0.487155	-54.8237	-5.82488	0.809371
 109	1	5	-0.529829	-52.3059	-6.04604	1.1523
 110	1	6	-0.538439	-53.9286	-7.90669	1.28121
 111	1	7	0.447385	-54.732	-7.72935	0.765361
 112	1	2	0.176748	-59.7723	-4.07982	3.89516
 113	1	8	0.492969	-61.7766	-5.89945	4.22329
 114	1	5	-0.49751	-62.0859	-4.91413	4.8806
 115	1	1	0.228748	-39.0929	-2.06093	5.7829
 116	1	1	-0.221817	-40.0157	-2.76613	6.56748
 117	1	1	-0.090782	-39.2035	-2.07197	4.3835
 118	1	2	0.148235	-38.498	-1.49878	3.78759
 119	1	1	-0.079307	-41.0625	-3.47419	5.95313
 120	1	1	-0.073979	-40.2546	-2.77394	3.75887
 121	1	1	0.031918	-41.1946	-3.46308	4.55354
 122	1	3	-0.235323	-42.298	-4.06036	3.99105
 123	1	1	0.139602	-43.5703	-3.54742	4.13105
 124	1	1	-0.107898	-44.6737	-4.38956	3.92421
 125	1	1	-0.094745	-43.7838	-2.1923	4.44247
 126	1	1	-0.163657	-45.9841	-3.89133	4.05648
 127	1	1	-0.253044	-45.0906	-1.69601	4.576
 128	1	2	0.134377	-44.5069	-5.42871	3.65297
 129	1	1	-0.00458	-46.2077	-2.54024	4.4077
 130	1	2	0.169279	-42.9406	-1.51817	4.56542
 131	1	2	0.169448	-46.8225	-4.55678	3.86165
 132	1	1	-0.039038	-35.9856	-0.267046	6.18754
 133	1	1	-0.435237	-34.5877	-0.372608	6.04155
 134	1	1	0.120439	-36.7881	-1.41867	6.18891
 135	1	1	0.323935	-33.9652	-1.63503	5.90626
 136	1	1	-0.012898	-36.1863	-2.68133	6.05893
 137	1	2	0.208311	-33.9803	0.527879	6.0831
 138	1	1	-0.466417	-34.7894	-2.78176	5.92541
 139	1	3	-0.302302	-38.1408	-1.2906	6.40295
 140	1	2	0.13972	-36.7968	-3.58014	6.09649
 141	1	2	0.217142	-34.3237	-3.76297	5.86056
 142	1	2	0.144775	-36.4548	0.704895	6.32094
 143	1	2	0.161927	-39.9287	-2.7399	7.64993
 144	1	2	0.152343	-41.7954	-4.00353	6.55748
 145	1	4	1.02665	-40.417	-2.67762	1.96651
 146	1	5	-0.487155	-39.3298	-1.9453	1.32081
 147	1	5	-0.529829	-40.9654	-3.90936	1.41014
 148	1	6	-0.538439	-41.7474	-1.79309	1.78009
 149	1	7	0.447385	-42.2276	-2.55371	1.40634
 150	1	2	0.176748	-45.2431	-0.641879	4.80394
 151	1	8	0.492969	-47.5975	-1.95445	4.53739
 152	1	5	-0.49751	-47.7758	-0.77016	4.28191
 153	1	1	0.228748	-25.4026	0.392571	1.27911
 154	1	1	-0.221817	-26.6023	-0.175436	0.81942
 155	1	1	-0.090782	-25.4366	1.40788	2.24695
 156	1	2	0.148235	-24.5028	1.84981	2.58569
 157	1	1	-0.079307	-27.8327	0.263671	1.34107
 158	1	1	-0.073979	-26.6653	1.85007	2.779
 159	1	1	0.031918	-27.8677	1.27346	2.31972
 160	1	3	-0.235323	-29.0879	1.70203	2.792
 161	1	1	0.139602	-29.9066	0.893087	3.54789
 162	1	1	-0.107898	-29.3738	0.0682225	4.55097
 163	1	1	-0.094745	-31.2895	0.888235	3.30843
 164	1	1	-0.163657	-30.2189	-0.771986	5.29391
 165	1	1	-0.253044	-32.1375	0.0381315	4.04629
 166	1	2	0.134377	-28.3071	0.0804076	4.75498
 167	1	1	-0.00458	-31.6097	-0.803652	5.05432
 168	1	2	0.169279	-31.6943	1.52743	2.52816
 169	1	2	0.169448	-29.7877	-1.41631	6.05819
 170	1	1	-0.039038	-24.2828	-2.34177	1.43599
 171	1	1	-0.435237	-23.7693	-3.64694	1.3233
 172	1	1	0.120439	-23.7509	-1.30522	0.648795
 173	1	1	0.323935	-22.7129	-3.95845	0.438357
 174	1	1	-0.012898	-22.6874	-1.59008	-0.224078
 175	1	2	0.208311	-24.1733	-4.4362	1.95391
 176	1	1	-0.466417	-22.1709	-2.89921	-0.328002
 177	1	3	-0.302302	-24.1892	-4.33079e-05	0.760381
 178	1	2	0.13972	-22.2504	-0.779567	-0.802788
 179	1	2	0.217142	-21.3121	-3.07635	-0.970001
 180	1	2	0.144775	-25.0746	-2.13454	2.151
 181	1	2	0.161927	-26.5755	-0.941278	0.0496515
 182	1	2	0.152343	-28.7637	-0.165849	0.979712
 183	1	4	1.02665	-26.656	3.13867	4.03885
 184	1	5	-0.487155	-27.6595	2.85579	5.06115
 185	1	5	-0.529829	-25.3149	3.59975	4.38767
 186	1	6	-0.538439	-27.4123	4.36954	3.32387
 187	1	7	0.447385	-28.1884	4.29029	3.90117
 188	1	2	0.176748	-33.1974	0.0160744	3.80268
 189	1	8	0.492969	-32.4562	-1.79541	5.82686
 190	1	5	-0.49751	-31.9202	-2.77719	6.32575
 191	1	1	0.228748	-18.9396	-11.8143	-4.80841
 192	1	1	-0.221817	-20.2586	-11.339	-4.78498
 193	1	1	-0.090782	-17.8727	-10.9274	-4.59169
 194	1	2	0.148235	-16.8539	-11.3019	-4.63472
 195	1	1	-0.079307	-20.514	-9.9769	-4.54358
 196	1	1	-0.073979	-18.1191	-9.55745	-4.35767
 197	1	1	0.031918	-19.4481	-9.0841	-4.33619
 198	1	3	-0.235323	-19.7232	-7.74105	-4.21247
 199	1	1	0.139602	-20.3012	-7.17351	-3.09785
 200	1	1	-0.107898	-21.1687	-6.08088	-3.25543
 201	1	1	-0.094745	-20.0235	-7.6536	-1.80848
 202	1	1	-0.163657	-21.7756	-5.48134	-2.13395
 203	1	1	-0.253044	-20.6201	-7.04912	-0.688107
 204	1	2	0.134377	-21.3795	-5.71177	-4.25521
 205	1	1	-0.00458	-21.4972	-5.95008	-0.829192
 206	1	2	0.169279	-19.3368	-8.48426	-1.67709
 207	1	2	0.169448	-22.4791	-4.66826	-2.29287
 208	1	1	-0.039038	-17.0713	-14.8873	-5.12841
 209	1	1	-0.435237	-16.2595	-15.8072	-4.43246
 210	1	1	0.120439	-17.8751	-13.9742	-4.42674
 211	1	1	0.323935	-16.2451	-15.8412	-3.01856
 212	1	1	-0.012898	-17.8807	-14.0003	-3.02221
 213	1	2	0.208311	-15.6731	-16.5297	-4.99441
 214	1	1	-0.466417	-17.078	-14.929	-2.33249
 215	1	3	-0.302302	-18.7094	-13.1321	-5.12947
 216	1	2	0.13972	-18.5317	-13.3255	-2.47178
 217	1	2	0.217142	-17.1131	-14.9674	-1.24566
 218	1	2	0.144775	-17.0981	-14.8882	-6.21559
 219	1	2	0.161927	-21.0776	-12.0261	-4.97759
 220	1	2	0.152343	-21.5342	-9.60087	-4.55171
 221	1	4	1.02665	-16.7225	-8.44116	-4.12776
 222	1	5	-0.487155	-16.9795	-7.25072	-3.32224
 223	1	5	-0.529829	-15.4983	-9.22001	-3.96318
 224	1	6	-0.538439	-16.411	-7.92463	-5.61958
 225	1	7	0.447385	-15.5106	-8.28695	-5.59254
 226	1	2	0.176748	-20.4015	-7.4375	0.305435
 227	1	8	0.492969	-22.1586	-5.37811	0.411201
 228	1	5	-0.49751	-22.2829	-6.09624	1.39591
 229	1	1	0.228748	-7.12487	-20.138	-1.21912
 230	1	1	-0.221817	-7.87725	-19.0858	-0.66827
 231	1	1	-0.090782	-7.36256	-20.5428	-2.53948
 232	1	2	0.148235	-6.78869	-21.3715	-2.94718
 233	1	1	-0.079307	-8.85942	-18.4425	-1.45103
 234	1	1	-0.073979	-8.33638	-19.9044	-3.3303
 235	1	1	0.031918	-9.09867	-18.8543	-2.77836
 236	1	3	-0.235323	-10.0156	-18.1868	-3.56203
 237	1	1	0.139602	-11.3201	-17.8912	-3.23106
 238	1	1	-0.107898	-12.0687	-18.6932	-2.35445
 239	1	1	-0.094745	-11.9246	-16.7768	-3.83233
 240	1	1	-0.163657	-13.4045	-18.3582	-2.06406
 241	1	1	-0.253044	-13.2582	-16.4347	-3.5354
 242	1	2	0.134377	-11.6184	-19.5722	-1.90205
 243	1	1	-0.00458	-14.0215	-17.2265	-2.64587
 244	1	2	0.169279	-11.3409	-16.1691	-4.51929
 245	1	2	0.169448	-13.9674	-18.9792	-1.36892
 246	1	1	-0.039038	-5.71297	-21.3464	1.78639
 247	1	1	-0.435237	-4.90687	-21.16	2.92476
 248	1	1	0.120439	-5.55846	-20.5171	0.666711
 249	1	1	0.323935	-3.90199	-20.1694	2.96071
 250	1	1	-0.012898	-4.60602	-19.4831	0.701535
 251	1	2	0.208311	-5.027	-21.819	3.78219
 252	1	1	-0.466417	-3.79174	-19.3063	1.84286
 253	1	3	-0.302302	-6.204	-20.8649	-0.498841
 254	1	2	0.13972	-4.46984	-18.8536	-0.174713
 255	1	2	0.217142	-3.05709	-18.5051	1.85299
 256	1	2	0.144775	-6.43403	-22.1595	1.74949
 257	1	2	0.161927	-7.7116	-18.7801	0.36056
 258	1	2	0.152343	-9.43521	-17.6201	-1.03325
 259	1	4	1.02665	-8.60385	-20.5218	-5.00468
 260	1	5	-0.487155	-9.20043	-19.5326	-5.89707
 261	1	5	-0.529829	-7.5542	-21.4291	-5.46183
 262	1	6	-0.538439	-9.91052	-21.4454	-4.81466
 263	1	7	0.447385	-10.4124	-20.9375	-5.47216
 264	1	2	0.176748	-13.676	-15.5348	-3.98031
 265	1	8	0.492969	-15.4382	-16.8668	-2.23443
 266	1	5	-0.49751	-15.8933	-17.3349	-1.19833
 267	1	1	0.228748	5.33632	-17.2188	6.11042
 268	1	1	-0.221817	5.45123	-18.6004	5.90818
 269	1	1	-0.090782	4.32431	-16.4997	5.45705
 270	1	2	0.148235	4.23575	-15.4313	5.63673
 271	1	1	-0.079307	4.54986	-19.2638	5.05679
 272	1	1	-0.073979	3.41038	-17.1551	4.60211
 273	1	1	0.031918	3.51032	-18.5577	4.42555
 274	1	3	-0.235323	2.67612	-19.2763	3.59326
 275	1	1	0.139602	1.32477	-19.5004	3.77541
 276	1	1	-0.107898	0.550688	-19.8302	2.65283
 277	1	1	-0.094745	0.701508	-19.4013	5.03129
 278	1	1	-0.163657	-0.839023	-20.0226	2.76594
 279	1	1	-0.253044	-0.693105	-19.574	5.14168
 280	1	2	0.134377	1.03781	-19.9258	1.68611
 281	1	1	-0.00458	-1.49172	-19.8667	4.01021
 282	1	2	0.169279	1.29281	-19.1709	5.91411
 283	1	2	0.169448	-1.39356	-20.3071	1.87578
 284	1	1	-0.039038	7.02424	-14.395	7.2498
 285	1	1	-0.435237	8.11191	-13.5092	7.13285
 286	1	1	0.120439	7.13392	-15.7123	6.77879
 287	1	1	0.323935	9.32743	-13.9157	6.546
 288	1	1	-0.012898	8.33403	-16.1349	6.18127
 289	1	2	0.208311	8.03611	-12.4971	7.5249
 290	1	1	-0.466417	9.41804	-15.2405	6.05652
 291	1	3	-0.302302	6.12807	-16.6105	7.05321
 292	1	2	0.13972	8.43632	-17.1693	5.86344
 293	1	2	0.217142	10.3572	-15.5932	5.6379
 294	1	2	0.144775	6.10781	-14.0766	7.73973
 295	1	2	0.161927	6.2264	-19.1545	6.42918
 296	1	2	0.152343	4.64265	-20.3349	4.89423
 297	1	4	1.02665	2.15263	-16.1386	3.79665
 298	1	5	-0.487155	2.41906	-14.7061	3.8963
 299	1	5	-0.529829	1.6416	-16.7543	2.57667
 300	1	6	-0.538439	0.862619	-16.4023	4.72255
 301	1	7	0.447385	0.431511	-16.9414	4.03749
 302	1	2	0.176748	-1.16396	-19.4864	6.12051
 303	1	8	0.492969	-2.99101	-20.0688	4.17822
 304	1	5	-0.49751	-3.44057	-20.3002	5.29337
 305	1	1	0.228748	17.9465	-11.1818	2.13246
 306	1	1	-0.221817	17.7288	-12.5656	2.17473
 307	1	1	-0.090782	16.8516	-10.3017	2.10141
 308	1	2	0.148235	17.0235	-9.2293	2.09515
 309	1	1	-0.079307	16.4176	-13.0707	2.14549
 310	1	1	-0.073979	15.5319	-10.7955	2.10593
 311	1	1	0.031918	15.3211	-12.1929	2.11208
 312	1	3	-0.235323	14.0624	-12.7417	2.07586
 313	1	1	0.139602	13.2388	-12.8563	3.17273
 314	1	1	-0.107898	13.7287	-12.7313	4.48485
 315	1	1	-0.094745	11.868	-13.0655	2.95937
 316	1	1	-0.163657	12.8413	-12.7864	5.57252
 317	1	1	-0.253044	10.9818	-13.143	4.04944
 318	1	2	0.134377	14.7866	-12.5632	4.66318
 319	1	1	-0.00458	11.4618	-12.9948	5.36848
 320	1	2	0.169279	11.4951	-13.1302	1.94011
 321	1	2	0.169448	13.2215	-12.6517	6.58338
 322	1	1	-0.039038	20.0223	-10.0289	-0.0231054
 323	1	1	-0.435237	20.405	-9.00771	-0.913173
 324	1	1	0.120439	19.6407	-9.71066	1.28904
 325	1	1	0.323935	20.3932	-7.65218	-0.512465
 326	1	1	-0.012898	19.649	-8.37241	1.71342
 327	1	2	0.208311	20.6869	-9.26544	-1.93157
 328	1	1	-0.466417	20.0072	-7.35202	0.811845
 329	1	3	-0.302302	19.2373	-10.7095	2.1413
 330	1	2	0.13972	19.3545	-8.1314	2.7321
 331	1	2	0.217142	19.9834	-6.31242	1.13096
 332	1	2	0.144775	20.0109	-11.0676	-0.34515
 333	1	2	0.161927	18.5785	-13.2404	2.21548
 334	1	2	0.152343	16.2422	-14.1435	2.15914
 335	1	4	1.02665	14.1881	-9.58987	2.1814
 336	1	5	-0.487155	14.623	-8.23402	1.85077
 337	1	5	-0.529829	12.9103	-10.1253	1.72492
 338	1	6	-0.538439	13.8834	-9.5575	3.7656
 339	1	7	0.447385	12.974	-9.8934	3.67638
 340	1	2	0.176748	9.91596	-13.2638	3.86366
 341	1	8	0.492969	10.5209	-12.9788	6.54739
 342	1	5	-0.49751	10.799	-12.3231	7.54365
 343	1	1	0.228748	28.3869	-4.57596	-2.36846
 344	1	1	-0.221817	27.4118	-3.97109	-3.17323
 345	1	1	-0.090782	28.5334	-5.96878	-2.36185
 346	1	2	0.148235	29.2882	-6.41835	-1.72181
 347	1	1	-0.079307	26.5375	-4.77371	-3.92414
 348	1	1	-0.073979	27.6722	-6.78352	-3.12197
 349	1	1	0.031918	26.6434	-6.1767	-3.87785
 350	1	3	-0.235323	25.637	-6.91447	-4.45212
 351	1	1	0.139602	24.4146	-6.93749	-3.82073
 352	1	1	-0.107898	23.3735	-6.10586	-4.26311
 353	1	1	-0.094745	24.251	-7.69007	-2.64732
 354	1	1	-0.163657	22.1883	-6.00194	-3.51079
 355	1	1	-0.253044	23.0657	-7.59696	-1.90223
 356	1	2	0.134377	23.5041	-5.5135	-5.16398
 357	1	1	-0.00458	22.0225	-6.74217	-2.3205
 358	1	2	0.169279	25.0566	-8.32524	-2.29652
 359	1	2	0.169448	21.3999	-5.32535	-3.83626
 360	1	1	-0.039038	29.5623	-3.26899	0.820088
 361	1	1	-0.435237	29.1217	-3.05564	2.14202
 362	1	1	0.120439	28.6473	-3.62902	-0.180371
 363	1	1	0.323935	27.7592	-3.17964	2.49746
 364	1	1	-0.012898	27.2876	-3.76999	0.158141
 365	1	2	0.208311	29.8402	-2.76458	2.90551
 366	1	1	-0.466417	26.8515	-3.5402	1.47389
 367	1	3	-0.302302	29.0984	-3.82171	-1.47151
 368	1	2	0.13972	26.556	-4.03408	-0.600132
 369	1	2	0.217142	25.7885	-3.61019	1.67611
 370	1	2	0.144775	30.6124	-3.15216	0.563029
 371	1	2	0.161927	27.296	-2.89087	-3.15922
 372	1	2	0.152343	25.7385	-4.31361	-4.49966
 373	1	4	1.02665	27.8916	-8.56955	-2.97883
 374	1	5	-0.487155	28.3448	-8.96449	-1.6479
 375	1	5	-0.529829	26.8949	-9.35406	-3.69847
 376	1	6	-0.538439	29.1454	-8.86177	-3.9432
 377	1	7	0.447385	28.6498	-9.531	-4.4448
 378	1	2	0.176748	22.9883	-8.15941	-0.974072
 379	1	8	0.492969	20.7864	-6.54757	-1.475
 380	1	5	-0.49751	20.2229	-5.46111	-1.46157
 381	1	1	0.228748	19.9007	-1.47463	8.34682
 382	1	1	-0.221817	20.8717	-2.4804	8.43961
 383	1	1	-0.090782	19.5134	-0.985906	7.08481
 384	1	2	0.148235	18.7554	-0.210763	7.00842
 385	1	1	-0.079307	21.4669	-3.00358	7.28271
 386	1	1	-0.073979	20.1103	-1.50738	5.91519
 387	1	1	0.031918	21.0908	-2.5179	6.02047
 388	1	3	-0.235323	21.6801	-3.06337	4.90282
 389	1	1	0.139602	23.0415	-3.02395	4.70542
 390	1	1	-0.107898	23.7212	-4.1901	4.31979
 391	1	1	-0.094745	23.7522	-1.82352	4.87158
 392	1	1	-0.163657	25.1096	-4.15596	4.09114
 393	1	1	-0.253044	25.1391	-1.78809	4.64262
 394	1	2	0.134377	23.1677	-5.11725	4.20048
 395	1	1	-0.00458	25.8263	-2.94705	4.22714
 396	1	2	0.169279	23.2206	-0.91883	5.1553
 397	1	2	0.169448	25.6277	-5.06621	3.79561
 398	1	1	-0.039038	19.0054	1.2742	10.1162
 399	1	1	-0.435237	18.1252	2.2788	10.562
 400	1	1	0.120439	18.5081	0.0239636	9.72061
 401	1	1	0.323935	16.7303	2.04884	10.6342
 402	1	1	-0.012898	17.1263	-0.214087	9.75125
 403	1	2	0.208311	18.5466	3.21222	10.9256
 404	1	1	-0.466417	16.2494	0.792942	10.1985
 405	1	3	-0.302302	19.3801	-1.01984	9.53434
 406	1	2	0.13972	16.7485	-1.2	9.491
 407	1	2	0.217142	15.1858	0.581926	10.2806
 408	1	2	0.144775	20.0802	1.43641	10.1393
 409	1	2	0.161927	21.1563	-2.85409	9.41888
 410	1	2	0.152343	22.2144	-3.78903	7.36119
 411	1	4	1.02665	19.631	-0.855132	4.3062
 412	1	5	-0.487155	18.5588	0.136455	4.3634
 413	1	5	-0.529829	20.84	-0.646836	3.51217
 414	1	6	-0.538439	19.0863	-2.15293	3.51984
 415	1	7	0.447385	19.9396	-2.30177	3.08174
 416	1	2	0.176748	25.6846	-0.853335	4.76345
 417	1	8	0.492969	27.3014	-2.87135	3.91817
 418	1	5	-0.49751	28.0548	-2.33796	4.72211
 419	1	1	0.228748	18.713	11.0348	9.60574
 420	1	1	-0.221817	17.3647	10.8289	9.92629
 421	1	1	-0.090782	19.7139	10.3135	10.2841
 422	1	2	0.148235	20.756	10.4515	10.0128
 423	1	1	-0.079307	17.0149	9.92035	10.9377
 424	1	1	-0.073979	19.3748	9.42495	11.3235
 425	1	1	0.031918	18.0158	9.22611	11.6363
 426	1	3	-0.235323	17.6331	8.29241	12.5623
 427	1	1	0.139602	17.188	7.03741	12.209
 428	1	1	-0.107898	16.5706	6.2489	13.1905
 429	1	1	-0.094745	17.3349	6.53318	10.9005
 430	1	1	-0.163657	16.0981	4.96409	12.8711
 431	1	1	-0.253044	16.8815	5.24031	10.5861
 432	1	2	0.134377	16.4576	6.6418	14.1971
 433	1	1	-0.00458	16.2683	4.44025	11.5734
 434	1	2	0.169279	17.7977	7.13786	10.1242
 435	1	2	0.169448	15.6098	4.3633	13.6357
 436	1	1	-0.039038	20.6868	13.2274	9.84175
 437	1	1	-0.435237	21.8164	14.0619	9.81533
 438	1	1	0.120439	20.1087	12.787	8.6371
 439	1	1	0.323935	22.3829	14.5004	8.60056
 440	1	1	-0.012898	20.6258	13.2524	7.41842
 441	1	2	0.208311	22.2629	14.3907	10.7521
 442	1	1	-0.466417	21.7453	14.1084	7.39831
 443	1	3	-0.302302	19.0203	11.9412	8.61551
 444	1	2	0.13972	20.1481	12.9449	6.49155
 445	1	2	0.217142	22.1048	14.4888	6.44632
 446	1	2	0.144775	20.2664	12.9246	10.7976
 447	1	2	0.161927	16.5941	11.3667	9.3826
 448	1	2	0.152343	15.9699	9.73937	11.1774
 449	1	4	1.02665	20.6896	8.55453	12.2029
 450	1	5	-0.487155	20.3452	7.89901	13.4611
 451	1	5	-0.529829	21.5782	7.91139	11.2401
 452	1	6	-0.538439	21.7441	9.71715	12.5558
 453	1	7	0.447385	22.4619	9.20779	12.1405
 454	1	2	0.176748	16.9992	4.86739	9.56976
 455	1	8	0.492969	15.7708	3.0534	11.2573
 456	1	5	-0.49751	14.6731	2.70158	11.6712
 457	1	1	0.228748	31.129	14.2135	3.31761
 458	1	1	-0.221817	30.0636	13.3039	3.37554
 459	1	1	-0.090782	30.9433	15.5354	3.73788
 460	1	2	0.148235	31.7757	16.2303	3.6941
 461	1	1	-0.079307	28.7942	13.7393	3.79893
 462	1	1	-0.073979	29.6689	15.9932	4.11434
 463	1	1	0.031918	28.5847	15.0879	4.14308
 464	1	3	-0.235323	27.2945	15.541	4.2786
 465	1	1	0.139602	26.5145	15.4274	5.40292
 466	1	1	-0.107898	25.716	14.2901	5.60275
 467	1	1	-0.094745	26.382	16.5259	6.26341
 468	1	1	-0.163657	24.7857	14.2544	6.65932
 469	1	1	-0.253044	25.4538	16.4923	7.3158
 470	1	2	0.134377	25.8005	13.4498	4.92173
 471	1	1	-0.00458	24.6184	15.3726	7.51019
 472	1	2	0.169279	26.9718	17.4209	6.09513
 473	1	2	0.169448	24.1943	13.3544	6.80519
 474	1	1	-0.039038	32.5467	15.5454	0.945821
 475	1	1	-0.435237	32.497	15.8888	-0.415851
 476	1	1	0.120439	32.4084	14.2044	1.34228
 477	1	1	0.323935	32.3404	14.9109	-1.42252
 478	1	1	-0.012898	32.281	13.2117	0.3606
 479	1	2	0.208311	32.5796	16.9355	-0.702916
 480	1	1	-0.466417	32.2631	13.558	-1.00543
 481	1	3	-0.302302	32.2895	13.867	2.67297
 482	1	2	0.13972	32.1711	12.1749	0.667793
 483	1	2	0.217142	32.162	12.7606	-1.729
 484	1	2	0.144775	32.6692	16.3267	1.68912
 485	1	2	0.161927	30.2107	12.2852	3.03019
 486	1	2	0.152343	27.9531	13.0533	3.77787
 487	1	4	1.02665	29.4971	17.7581	4.43265
 488	1	5	-0.487155	29.3702	18.0679	5.85362
 489	1	5	-0.529829	30.4655	18.4586	3.59275
 490	1	6	-0.538439	28.1238	18.2233	3.72395
 491	1	7	0.447385	28.5699	18.7175	3.01964
 492	1	2	0.176748	25.3635	17.3576	7.97179
 493	1	8	0.492969	23.6043	15.4049	8.6351
 494	1	5	-0.49751	23.7871	16.149	9.59007
 495	1	1	0.228748	38.5029	10.4099	-5.90579
 496	1	1	-0.221817	37.7103	10.8443	-4.83836
 497	1	1	-0.090782	37.986	10.4441	-7.21637
 498	1	2	0.148235	38.601	10.1186	-8.0509
 499	1	1	-0.079307	36.3923	11.2708	-5.06788
 500	1	1	-0.073979	36.6617	10.863	-7.45674
 501	1	1	0.031918	35.8573	11.2751	-6.37372
 502	1	3	-0.235323	34.5506	11.6671	-6.58224
 503	1	1	0.139602	33.9298	12.5984	-5.78384
 504	1	1	-0.107898	34.5368	13.8425	-5.54868
 505	1	1	-0.094745	32.7176	12.279	-5.15344
 506	1	1	-0.163657	33.9685	14.7359	-4.62763
 507	1	1	-0.253044	32.1431	13.1786	-4.23537
 508	1	2	0.134377	35.4614	14.0982	-6.05909
 509	1	1	-0.00458	32.7947	14.3937	-3.92791
 510	1	2	0.169279	32.2449	11.3227	-5.36256
 511	1	2	0.169448	34.4524	15.6915	-4.43274
 512	1	1	-0.039038	39.6854	7.81534	-6.78457
 513	1	1	-0.435237	40.2021	6.98843	-7.79576
 514	1	1	0.120439	40.3733	8.98638	-6.42176
 515	1	1	0.323935	41.4133	7.30976	-8.43957
 516	1	1	-0.012898	41.6337	9.25886	-6.97424
 517	1	2	0.208311	39.6271	6.13312	-8.14452
 518	1	1	-0.466417	42.1528	8.42186	-7.97954
 519	1	3	-0.302302	39.766	9.93071	-5.6298
 520	1	2	0.13972	42.1623	10.162	-6.67813
 521	1	2	0.217142	43.0899	8.68037	-8.46625
 522	1	2	0.144775	38.7162	7.59787	-6.34142
 523	1	2	0.161927	38.1162	10.8248	-3.83115
 524	1	2	0.152343	35.7811	11.5804	-4.22426
 525	1	4	1.02665	36.0368	10.7989	-9.14913
 526	1	5	-0.487155	37.0942	10.736	-10.1579
 527	1	5	-0.529829	34.8966	9.89064	-9.19072
 528	1	6	-0.538439	35.1927	12.149	-9.38275
 529	1	7	0.447385	34.355	11.6512	-9.39087
 530	1	2	0.176748	31.1985	12.9268	-3.75747
 531	1	8	0.492969	32.2774	15.3478	-2.88275
 532	1	5	-0.49751	32.2118	16.5368	-3.16783
 533	1	1	0.228748	40.8629	9.05435	-18.284
 534	1	1	-0.221817	41.801	9.00738	-17.2432
 535	1	1	-0.090782	39.4981	9.21664	-17.9891
 536	1	2	0.148235	38.7684	9.22845	-18.7932
 537	1	1	-0.079307	41.3686	9.10373	-15.9068
 538	1	1	-0.073979	39.0544	9.26367	-16.6599
 539	1	1	0.031918	39.9929	9.20461	-15.6137
 540	1	3	-0.235323	39.5496	9.27862	-14.3152
 541	1	1	0.139602	40.127	8.63499	-13.2505
 542	1	1	-0.107898	40.297	9.34653	-12.0593
 543	1	1	-0.094745	40.4918	7.27997	-13.3165
 544	1	1	-0.163657	40.8451	8.71375	-10.9346
 545	1	1	-0.253044	41.0486	6.64519	-12.1895
 546	1	2	0.134377	39.9878	10.3876	-12.007
 547	1	1	-0.00458	41.2304	7.35113	-10.9791
 548	1	2	0.169279	40.3158	6.72084	-14.2316
 549	1	2	0.169448	40.9415	9.30369	-10.0295
 550	1	1	-0.039038	40.2863	6.58078	-19.7241
 551	1	1	-0.435237	39.2326	5.77298	-20.1783
 552	1	1	0.120439	40.4632	7.86711	-20.259
 553	1	1	0.323935	38.329	6.23831	-21.1541
 554	1	1	-0.012898	39.6324	8.31221	-21.3
 555	1	2	0.208311	39.07	4.79357	-19.7331
 556	1	1	-0.466417	38.5698	7.50014	-21.7454
 557	1	3	-0.302302	41.2462	8.76587	-19.5742
 558	1	2	0.13972	39.7672	9.3154	-21.6977
 559	1	2	0.217142	37.9104	7.85985	-22.531
 560	1	2	0.144775	40.917	6.24741	-18.9032
 561	1	2	0.161927	42.852	8.86122	-17.4749
 562	1	2	0.152343	42.095	9.06657	-15.0987
 563	1	4	1.02665	37.2803	9.23151	-16.3549
 564	1	5	-0.487155	36.4914	9.50668	-17.5566
 565	1	5	-0.529829	37.006	8.08428	-15.4964
 566	1	6	-0.538439	37.0133	10.3974	-15.2749
 567	1	7	0.447385	37.0163	9.77398	-14.5273
 568	1	2	0.176748	41.3077	5.58863	-12.2403
 569	1	8	0.492969	41.7599	6.64106	-9.7473
 570	1	5	-0.49751	42.0692	5.458	-9.7875
 571	1	1	0.228748	29.7182	10.5381	-19.3199
 572	1	1	-0.221817	30.5122	10.5931	-20.4743
 573	1	1	-0.090782	29.6647	9.34915	-18.5661
 574	1	2	0.148235	29.0455	9.29168	-17.6755
 575	1	1	-0.079307	31.2331	9.46882	-20.9056
 576	1	1	-0.073979	30.3995	8.21562	-18.9886
 577	1	1	0.031918	31.1826	8.28151	-20.1611
 578	1	3	-0.235323	31.7336	7.13461	-20.6788
 579	1	1	0.139602	33.0585	6.80421	-20.8528
 580	1	1	-0.107898	34.1319	7.68765	-20.6384
 581	1	1	-0.094745	33.3195	5.48649	-21.2455
 582	1	1	-0.163657	35.4581	7.24931	-20.847
 583	1	1	-0.253044	34.6363	5.05195	-21.4588
 584	1	2	0.134377	33.9445	8.70357	-20.3017
 585	1	1	-0.00458	35.7301	5.92626	-21.2813
 586	1	2	0.169279	32.4865	4.80018	-21.3785
 587	1	2	0.169448	36.2635	7.95009	-20.647
 588	1	1	-0.039038	26.8388	12.5134	-18.4973
 589	1	1	-0.435237	25.9431	13.0563	-17.5577
 590	1	1	0.120439	28.0499	11.937	-18.0799
 591	1	1	0.323935	26.2447	13.0288	-16.1824
 592	1	1	-0.012898	28.3507	11.8795	-16.7072
 593	1	2	0.208311	25.0323	13.5456	-17.8948
 594	1	1	-0.466417	27.4393	12.4016	-15.7663
 595	1	3	-0.302302	28.9916	11.6773	-19.05
 596	1	2	0.13972	29.3114	11.4914	-16.3789
 597	1	2	0.217142	27.6917	12.3921	-14.7087
 598	1	2	0.144775	26.6289	12.5901	-19.5612
 599	1	2	0.161927	30.5298	11.5095	-21.0568
 600	1	2	0.152343	31.7954	9.50214	-21.835
 601	1	4	1.02665	30.3513	6.69908	-18.0096
 602	1	5	-0.487155	29.4856	6.78881	-16.8365
 603	1	5	-0.529829	30.398	5.50948	-18.8567
 604	1	6	-0.538439	31.8692	6.60517	-17.4794
 605	1	7	0.447385	32.0871	5.89337	-18.1043
 606	1	2	0.176748	34.8111	4.01875	-21.7556
 607	1	8	0.492969	37.1324	5.38589	-21.5161
 608	1	5	-0.49751	37.2938	4.19113	-21.7315
 609	1	1	0.228748	19.5837	11.3121	-8.83455
 610	1	1	-0.221817	20.0701	12.2707	-9.7308
 611	1	1	-0.090782	20.2274	10.0694	-8.72199
 612	1	2	0.148235	19.8365	9.32206	-8.03804
 613	1	1	-0.079307	21.1988	11.9893	-10.5181
 614	1	1	-0.073979	21.348	9.77297	-9.51994
 615	1	1	0.031918	21.8606	10.7477	-10.3991
 616	1	3	-0.235323	22.9574	10.4207	-11.1693
 617	1	1	0.139602	23.5784	11.2172	-12.0999
 618	1	1	-0.107898	24.0039	12.5219	-11.7951
 619	1	1	-0.094745	23.8019	10.6885	-13.3781
 620	1	1	-0.163657	24.5595	13.3296	-12.8015
 621	1	1	-0.253044	24.395	11.4801	-14.3756
 622	1	2	0.134377	23.8767	12.9128	-10.7896
 623	1	1	-0.00458	24.7577	12.8158	-14.0989
 624	1	2	0.169279	23.4993	9.66561	-13.5889
 625	1	2	0.169448	24.8467	14.3552	-12.5765
 626	1	1	-0.039038	17.0175	10.6178	-6.46299
 627	1	1	-0.435237	16.094	9.62903	-6.07716
 628	1	1	0.120439	17.5152	10.6412	-7.77244
 629	1	1	0.323935	15.6247	8.66569	-6.99797
 630	1	1	-0.012898	17.0542	9.69518	-8.70785
 631	1	2	0.208311	15.7129	9.62443	-5.05926
 632	1	1	-0.466417	16.1144	8.71837	-8.32136
 633	1	3	-0.302302	18.4489	11.5942	-8.11246
 634	1	2	0.13972	17.4241	9.72511	-9.73042
 635	1	2	0.217142	15.7534	7.99481	-9.04873
 636	1	2	0.144775	17.3582	11.3658	-5.75104
 637	1	2	0.161927	19.5527	13.2204	-9.83154
 638	1	2	0.152343	21.5266	12.7299	-11.2401
 639	1	4	1.02665	21.987	8.08727	-9.52289
 640	1	5	-0.487155	21.275	7.26898	-8.54217
 641	1	5	-0.529829	23.424	7.93446	-9.72342
 642	1	6	-0.538439	21.3255	7.48642	-10.8699
 643	1	7	0.447385	21.0079	6.68137	-10.4378
 644	1	2	0.176748	24.5401	11.0606	-15.3693
 645	1	8	0.492969	25.3336	13.6909	-15.1763
 646	1	5	-0.49751	25.1703	14.9036	-15.1572
 647	1	1	0.228748	18.3385	8.50796	0.284548
 648	1	1	-0.221817	18.8424	7.4301	-0.459455