pySIMM System Object

1408 atoms
1518 bonds
2442 angles
3585 dihedrals
407 impropers

9 atom types
10 bond types
15 angle types
5 dihedral types
2 improper types

-176.590496 176.590496 xlo xhi
-176.590496 176.590496 ylo yhi
-176.590496 176.590496 zlo zhi

Masses

   1	12.01	# ca
   2	1.008	# ha
   3	16.0	# os
   4	32.06	# sy
   5	16.0	# o
   6	16.0	# oh
   7	1.008	# ho
   8	12.01	# c
   9	1.008	# h4

Pair Coeffs

   1	0.086	3.3996695084235347	# ca
   2	0.015	2.59964245953351	# ha
   3	0.17	3.0000123434657784	# os
   4	0.25	3.563594872561357	# sy
   5	0.21	2.959921901149463	# o
   6	0.2104	3.0664733878390478	# oh
   7	1e-05	0.0	# ho
   8	0.086	3.3996695084235347	# c
   9	0.015	2.5105525877194763	# h4

Bond Coeffs

   1	345.8	1.086	# ca,ha
   2	243.4	1.7909	# ca,sy
   3	289.8	1.6497	# oh,sy
   4	637.7	1.2183	# c,o
   5	376.6	1.3696	# ca,os
   6	371.4	0.973	# ho,oh
   7	461.1	1.3984	# ca,ca
   8	345.9	1.4906	# c,ca
   9	310.7	1.1121	# c,h4
  10	493.0	1.466	# o,sy

Angle Coeffs

   1	48.18	119.88	# ca,ca,ha
   2	72.54	121.41	# o,sy,o
   3	72.32	106.68	# o,sy,oh
   4	61.48	119.42	# ca,ca,sy
   5	64.28	120.33	# c,ca,ca
   6	69.58	119.2	# ca,ca,os
   7	68.72	122.6	# ca,c,o
   8	54.22	120.7	# h4,c,o
   9	46.43	115.14	# ca,c,h4
  10	44.17	106.42	# ho,oh,sy
  11	65.46	101.3	# ca,sy,oh
  12	65.77	108.35	# ca,sy,o
  13	63.48	119.89	# ca,os,ca
  14	66.62	120.02	# ca,ca,ca
  15	63.0	118.11	# ca,c,ca

Dihedral Coeffs

   1	1	1.3	2	180	# X,ca,sy,X
   2	1	9.5	1	180	# X,oh,sy,X
   3	1	3.625	2	180	# X,ca,ca,X
   4	1	1.0	2	180	# X,c,ca,X
   5	1	0.9	2	180	# X,ca,os,X

Improper Coeffs

   1	10.5	-1	2	# c,X,X,o
   2	1.1	-1	2	# ca,X,X,ha

Atoms

   1	1	1	0.228748	-26.3263	-12.8754	28.785
   2	1	1	-0.221817	-27.5209	-13.4551	28.3353
   3	1	1	-0.090782	-25.095	-13.3362	28.2812
   4	1	2	0.148235	-24.1642	-12.8968	28.6281
   5	1	1	-0.079307	-27.492	-14.4711	27.3646
   6	1	1	-0.073979	-25.0555	-14.3612	27.3157
   7	1	1	0.031918	-26.2653	-14.9124	26.8409
   8	1	3	-0.235323	-26.2821	-15.8478	25.8327
   9	1	1	0.139602	-26.4944	-15.5343	24.5035
  10	1	1	-0.107898	-26.6168	-14.2027	24.0591
  11	1	1	-0.094745	-26.5174	-16.5764	23.5633
  12	1	1	-0.163657	-26.7344	-13.9225	22.6856
  13	1	1	-0.253044	-26.6173	-16.2957	22.1884
  14	1	2	0.134377	-26.5916	-13.3818	24.7694
  15	1	1	-0.00458	-26.7175	-14.9647	21.7368
  16	1	2	0.169279	-26.4046	-17.6032	23.902
  17	1	2	0.169448	-26.8107	-12.8887	22.3583
  18	1	1	-0.039038	-24.5812	-11.741	31.2608
  19	1	1	-0.435237	-23.4387	-11.08	31.7503
  20	1	1	0.120439	-25.3116	-11.1878	30.1985
  21	1	1	0.323935	-23.0099	-9.85254	31.1916
  22	1	1	-0.012898	-24.9153	-9.96187	29.6432
  23	1	2	0.208311	-22.9039	-11.5093	32.5939
  24	1	1	-0.466417	-23.7761	-9.3017	30.1408
  25	1	3	-0.302302	-26.4079	-11.8486	29.6994
  26	1	2	0.13972	-25.494	-9.52934	28.8305
  27	1	2	0.217142	-23.4784	-8.3432	29.7199
  28	1	2	0.144775	-24.9098	-12.679	31.7026
  29	1	2	0.161927	-28.4682	-13.1016	28.7326
  30	1	2	0.152343	-28.4185	-14.9083	27.0008
  31	1	4	1.02665	-23.4487	-14.9065	26.7052
  32	1	5	-0.487155	-22.3391	-14.1091	27.2287
  33	1	5	-0.529829	-23.4024	-16.3657	26.7072
  34	1	6	-0.538439	-23.5403	-14.6127	25.1182
  35	1	7	0.447385	-23.725	-15.5409	24.8627
  36	1	2	0.176748	-26.5849	-17.1115	21.466
  37	1	8	0.492969	-26.7804	-14.6454	20.2669
  38	1	5	-0.49751	-26.6172	-15.4663	19.3788
  39	1	1	0.228748	-16.2997	-15.9182	33.2362
  40	1	1	-0.221817	-15.7141	-14.8201	32.5842
  41	1	1	-0.090782	-17.2928	-15.7108	34.2049
  42	1	2	0.148235	-17.7374	-16.5692	34.7018
  43	1	1	-0.079307	-16.1228	-13.5149	32.9022
  44	1	1	-0.073979	-17.7175	-14.4041	34.5228
  45	1	1	0.031918	-17.1275	-13.3059	33.8601
  46	1	3	-0.235323	-17.4966	-12.0132	34.1403
  47	1	1	0.139602	-18.5107	-11.3351	33.5008
  48	1	1	-0.107898	-19.2329	-11.8928	32.4285
  49	1	1	-0.094745	-18.843	-10.0559	33.9676
  50	1	1	-0.163657	-20.2976	-11.1805	31.8479
  51	1	1	-0.253044	-19.9003	-9.33928	33.3802
  52	1	2	0.134377	-18.9823	-12.8805	32.0529
  53	1	1	-0.00458	-20.6554	-9.9015	32.3297
  54	1	2	0.169279	-18.277	-9.62681	34.7912
  55	1	2	0.169448	-20.8365	-11.6259	31.0142
  56	1	1	-0.039038	-14.8602	-17.5926	30.7889
  57	1	1	-0.435237	-14.9792	-17.8958	29.4196
  58	1	1	0.120439	-15.9959	-17.6262	31.6126
  59	1	1	0.323935	-16.2254	-18.2417	28.8548
  60	1	1	-0.012898	-17.2306	-18.031	31.0839
  61	1	2	0.208311	-14.1055	-17.8415	28.7732
  62	1	1	-0.466417	-17.3415	-18.3452	29.7174
  63	1	3	-0.302302	-15.9227	-17.1994	32.9148
  64	1	2	0.13972	-18.1011	-18.0775	31.734
  65	1	2	0.217142	-18.3049	-18.6553	29.3187
  66	1	2	0.144775	-13.9016	-17.2968	31.2081
  67	1	2	0.161927	-14.9404	-14.9795	31.84
  68	1	2	0.152343	-15.6656	-12.6603	32.4093
  69	1	4	1.02665	-19.0138	-14.19	35.7589
  70	1	5	-0.487155	-19.5004	-15.4438	36.3293
  71	1	5	-0.529829	-18.7768	-13.0006	36.569
  72	1	6	-0.538439	-20.2319	-13.559	34.9221
  73	1	7	0.447385	-20.1075	-12.706	35.3779
  74	1	2	0.176748	-20.1454	-8.3426	33.7452
  75	1	8	0.492969	-21.791	-9.1131	31.7172
  76	1	5	-0.49751	-21.7244	-7.89188	31.6622
  77	1	1	0.228748	-20.8216	-14.7574	20.7636
  78	1	1	-0.221817	-19.952	-14.2598	21.7441
  79	1	1	-0.090782	-21.7098	-15.8027	21.0761
  80	1	2	0.148235	-22.3656	-16.2076	20.3095
  81	1	1	-0.079307	-19.9808	-14.7873	23.0459
  82	1	1	-0.073979	-21.7288	-16.3493	22.3736
  83	1	1	0.031918	-20.8661	-15.8326	23.3597
  84	1	3	-0.235323	-20.911	-16.3161	24.644
  85	1	1	0.139602	-19.8067	-16.8185	25.2834
  86	1	1	-0.107898	-19.4518	-16.3126	26.5402
  87	1	1	-0.094745	-19.0451	-17.8418	24.6984
  88	1	1	-0.163657	-18.3297	-16.8251	27.2132
  89	1	1	-0.253044	-17.9296	-18.3639	25.3776
  90	1	2	0.134377	-20.0442	-15.5163	26.9835
  91	1	1	-0.00458	-17.5661	-17.8763	26.6514
  92	1	2	0.169279	-19.3334	-18.2388	23.7283
  93	1	2	0.169448	-18.0586	-16.3869	28.1701
  94	1	1	-0.039038	-23.0123	-13.6061	18.9663
  95	1	1	-0.435237	-24.0639	-13.5582	18.033
  96	1	1	0.120439	-21.7909	-14.2018	18.6118
  97	1	1	0.323935	-23.9272	-14.1179	16.7445
  98	1	1	-0.012898	-21.6233	-14.7349	17.3259
  99	1	2	0.208311	-25.0054	-13.0844	18.2967
 100	1	1	-0.466417	-22.6844	-14.7004	16.402
 101	1	3	-0.302302	-20.7394	-14.2342	19.4955
 102	1	2	0.13972	-20.6652	-15.1697	17.0515
 103	1	2	0.217142	-22.5266	-15.0972	15.4024
 104	1	2	0.144775	-23.1327	-13.17	19.9546
 105	1	2	0.161927	-19.2617	-13.4608	21.4897
 106	1	2	0.152343	-19.3218	-14.3883	23.8131
 107	1	4	1.02665	-22.8138	-17.7385	22.7311
 108	1	5	-0.487155	-23.8002	-18.0026	21.6872
 109	1	5	-0.529829	-22.0286	-18.7997	23.3522
 110	1	6	-0.538439	-23.6102	-17.2643	24.0475
 111	1	7	0.447385	-23.0656	-17.8101	24.6516
 112	1	2	0.176748	-17.3448	-19.1598	24.9187
 113	1	8	0.492969	-16.3569	-18.4538	27.3584
 114	1	5	-0.49751	-15.4421	-18.9442	26.7092
 115	1	1	0.228748	-27.725	-17.0817	8.05433
 116	1	1	-0.221817	-28.34	-16.929	9.30332
 117	1	1	-0.090782	-26.4155	-17.582	7.96867
 118	1	2	0.148235	-25.9537	-17.6971	6.99163
 119	1	1	-0.079307	-27.6261	-17.236	10.4739
 120	1	1	-0.073979	-25.6853	-17.8762	9.13691
 121	1	1	0.031918	-26.2899	-17.6737	10.3943
 122	1	3	-0.235323	-25.578	-17.8773	11.5528
 123	1	1	0.139602	-25.4261	-16.9256	12.5406
 124	1	1	-0.107898	-25.0167	-17.3391	13.817
 125	1	1	-0.094745	-25.6719	-15.5596	12.3022
 126	1	1	-0.163657	-24.8834	-16.4032	14.8595
 127	1	1	-0.253044	-25.5572	-14.6266	13.3465
 128	1	2	0.134377	-24.8172	-18.3923	13.9956
 129	1	1	-0.00458	-25.1568	-15.0359	14.6346
 130	1	2	0.169279	-25.9615	-15.2207	11.3128
 131	1	2	0.169448	-24.5945	-16.7495	15.8501
 132	1	1	-0.039038	-26.8876	-14.7819	6.51741
 133	1	1	-0.435237	-26.2682	-13.9079	5.60882
 134	1	1	0.120439	-27.8018	-15.7489	6.0572
 135	1	1	0.323935	-26.5635	-13.9584	4.23227
 136	1	1	-0.012898	-28.1159	-15.8048	4.68987
 137	1	2	0.208311	-25.5394	-13.1824	5.96397
 138	1	1	-0.466417	-27.5026	-14.9156	3.78409
 139	1	3	-0.302302	-28.3776	-16.6542	6.92381
 140	1	2	0.13972	-28.8208	-16.5541	4.33702
 141	1	2	0.217142	-27.7315	-14.9875	2.72338
 142	1	2	0.144775	-26.6459	-14.7164	7.57529
 143	1	2	0.161927	-29.3541	-16.5437	9.35962
 144	1	2	0.152343	-28.0909	-17.1011	11.4481
 145	1	4	1.02665	-23.9819	-18.4516	8.97342
 146	1	5	-0.487155	-23.1367	-18.3887	10.1623
 147	1	5	-0.529829	-23.4694	-18.0719	7.65986
 148	1	6	-0.538439	-24.1529	-20.0104	8.61464
 149	1	7	0.447385	-23.6754	-19.8958	7.77563
 150	1	2	0.176748	-25.7779	-13.5767	13.1613
 151	1	8	0.492969	-25.0683	-14.0202	15.7488
 152	1	5	-0.49751	-25.8405	-13.0694	15.7722
 153	1	1	0.228748	-32.2725	-7.26202	1.86082
 154	1	1	-0.221817	-31.1359	-7.49779	2.6547
 155	1	1	-0.090782	-32.2757	-7.65674	0.514613
 156	1	2	0.148235	-33.1551	-7.45665	-0.0914443
 157	1	1	-0.079307	-30.0198	-8.1486	2.1071
 158	1	1	-0.073979	-31.1637	-8.32568	-0.0396473
 159	1	1	0.031918	-30.0386	-8.58511	0.76914
 160	1	3	-0.235323	-28.9442	-9.24164	0.253145
 161	1	1	0.139602	-28.238	-10.2033	0.940766
 162	1	1	-0.107898	-28.8785	-11.0794	1.83419
 163	1	1	-0.094745	-26.8513	-10.2898	0.76069
 164	1	1	-0.163657	-28.1285	-12.0017	2.58304
 165	1	1	-0.253044	-26.0998	-11.217	1.50463
 166	1	2	0.134377	-29.9561	-11.0297	1.96025
 167	1	1	-0.00458	-26.7245	-12.0796	2.43293
 168	1	2	0.169279	-26.3633	-9.61994	0.0577717
 169	1	2	0.169448	-28.6536	-12.6298	3.29707
 170	1	1	-0.039038	-34.0072	-7.88284	4.34658
 171	1	1	-0.435237	-34.2164	-7.92212	5.73782
 172	1	1	0.120439	-33.6828	-6.66867	3.72045
 173	1	1	0.323935	-34.0947	-6.7596	6.52912
 174	1	1	-0.012898	-33.6061	-5.4922	4.48017
 175	1	2	0.208311	-34.4636	-8.8645	6.22216
 176	1	1	-0.466417	-33.8087	-5.53858	5.87301
 177	1	3	-0.302302	-33.3849	-6.63744	2.37868
 178	1	2	0.13972	-33.3675	-4.55323	3.98576
 179	1	2	0.217142	-33.7486	-4.61742	6.44911
 180	1	2	0.144775	-34.0808	-8.79003	3.75167
 181	1	2	0.161927	-31.1124	-7.17236	3.69015
 182	1	2	0.152343	-29.1385	-8.31976	2.72043
 183	1	4	1.02665	-31.2144	-8.84209	-1.76841
 184	1	5	-0.487155	-30.3574	-9.96597	-2.13546
 185	1	5	-0.529829	-32.5781	-8.73751	-2.27902
 186	1	6	-0.538439	-30.6263	-7.56343	-2.55033
 187	1	7	0.447385	-31.4169	-7.49551	-3.10967
 188	1	2	0.176748	-25.0189	-11.2553	1.37573
 189	1	8	0.492969	-25.8743	-13.0012	3.28227
 190	1	5	-0.49751	-24.6733	-12.789	3.39109
 191	1	1	0.228748	-27.759	-1.50155	9.75141
 192	1	1	-0.221817	-27.541	-2.72399	10.4011
 193	1	1	-0.090782	-29.0385	-0.923246	9.74651
 194	1	2	0.148235	-29.1887	0.0280905	9.24247
 195	1	1	-0.079307	-28.6173	-3.3958	11.0052
 196	1	1	-0.073979	-30.1278	-1.59795	10.3317
 197	1	1	0.031918	-29.9103	-2.84768	10.9478
 198	1	3	-0.235323	-30.9583	-3.59852	11.4174
 199	1	1	0.139602	-31.7185	-4.4018	10.5911
 200	1	1	-0.107898	-32.9588	-4.86744	11.0513
 201	1	1	-0.094745	-31.2856	-4.75288	9.29819
 202	1	1	-0.163657	-33.7721	-5.66	10.2209
 203	1	1	-0.253044	-32.0961	-5.54598	8.46936
 204	1	2	0.134377	-33.2951	-4.59371	12.0473
 205	1	1	-0.00458	-33.3628	-5.98953	8.91193
 206	1	2	0.169279	-30.3216	-4.41432	8.93248
 207	1	2	0.169448	-34.7352	-6.00959	10.5884
 208	1	1	-0.039038	-27.7794	-1.09569	6.87202
 209	1	1	-0.435237	-27.8099	-0.724026	5.51702
 210	1	1	0.120439	-26.7943	-0.567628	7.73158
 211	1	1	0.323935	-26.8451	0.150139	4.9809
 212	1	1	-0.012898	-25.8322	0.312634	7.21118
 213	1	2	0.208311	-28.5771	-1.12607	4.8585
 214	1	1	-0.466417	-25.853	0.663741	5.84689
 215	1	3	-0.302302	-26.725	-0.91063	9.06773
 216	1	2	0.13972	-25.0682	0.714909	7.8727
 217	1	2	0.217142	-25.1012	1.34521	5.45581
 218	1	2	0.144775	-28.5197	-1.79803	7.24414
 219	1	2	0.161927	-26.5463	-3.16118	10.4029
 220	1	2	0.152343	-28.4652	-4.36226	11.4803
 221	1	4	1.02665	-31.7701	-0.860137	10.2147
 222	1	5	-0.487155	-32.9534	-1.56283	10.6965
 223	1	5	-0.529829	-31.7146	0.579346	9.99547
 224	1	6	-0.538439	-31.9425	-0.56546	8.70581
 225	1	7	0.447385	-31.876	0.337225	9.19045
 226	1	2	0.176748	-31.7264	-5.81895	7.48387
 227	1	8	0.492969	-34.2567	-6.84088	8.03788
 228	1	5	-0.49751	-34.9948	-7.67228	8.55048
 229	1	1	0.228748	-20.447	-4.76041	1.21844
 230	1	1	-0.221817	-20.0117	-3.58509	1.84428
 231	1	1	-0.090782	-21.4677	-4.71358	0.255276
 232	1	2	0.148235	-21.7911	-5.63275	-0.225708
 233	1	1	-0.079307	-20.6097	-2.3573	1.51615
 234	1	1	-0.073979	-22.0841	-3.48903	-0.0693913
 235	1	1	0.031918	-21.6626	-2.3135	0.585369
 236	1	3	-0.235323	-22.3107	-1.12186	0.380233
 237	1	1	0.139602	-23.379	-0.729573	1.15827
 238	1	1	-0.107898	-23.5058	-1.14473	2.49617
 239	1	1	-0.094745	-24.3731	0.081711	0.592376
 240	1	1	-0.163657	-24.6123	-0.747705	3.26095
 241	1	1	-0.253044	-25.4865	0.477848	1.35771
 242	1	2	0.134377	-22.7581	-1.78682	2.94796
 243	1	1	-0.00458	-25.6171	0.0754369	2.70489
 244	1	2	0.169279	-24.2879	0.372543	-0.452107
 245	1	2	0.169448	-24.6878	-1.11716	4.27989
 246	1	1	-0.039038	-19.6572	-8.21316	0.786008
 247	1	1	-0.435237	-19.1539	-9.13202	-0.154858
 248	1	1	0.120439	-19.3925	-6.84276	0.639941
 249	1	1	0.323935	-18.3542	-8.70137	-1.23397
 250	1	1	-0.012898	-18.6188	-6.39369	-0.443372
 251	1	2	0.208311	-19.3707	-10.1927	-0.0481726
 252	1	1	-0.466417	-18.1015	-7.31892	-1.36475
 253	1	3	-0.302302	-19.8758	-5.95629	1.57139
 254	1	2	0.13972	-18.4097	-5.33261	-0.561154
 255	1	2	0.217142	-17.5084	-6.9596	-2.20065
 256	1	2	0.144775	-20.2554	-8.55571	1.62697
 257	1	2	0.161927	-19.2176	-3.6336	2.58367
 258	1	2	0.152343	-20.2893	-1.44126	2.00657
 259	1	4	1.02665	-23.399	-3.48028	-1.3059
 260	1	5	-0.487155	-23.8767	-2.18177	-1.77499
 261	1	5	-0.529829	-23.1906	-4.59077	-2.2315
 262	1	6	-0.538439	-24.6319	-4.16991	-0.538089
 263	1	7	0.447385	-24.7121	-4.84684	-1.23244
 264	1	2	0.176748	-26.2648	1.08501	0.897868
 265	1	8	0.492969	-26.8449	0.46197	3.49963
 266	1	5	-0.49751	-27.8824	0.763156	2.92491
 267	1	1	0.228748	-11.2664	-10.37	-7.7085
 268	1	1	-0.221817	-10.8001	-11.059	-6.58164
 269	1	1	-0.090782	-12.0031	-9.18527	-7.55224
 270	1	2	0.148235	-12.3562	-8.65759	-8.4343
 271	1	1	-0.079307	-11.1127	-10.586	-5.29511
 272	1	1	-0.073979	-12.3292	-8.70601	-6.27046
 273	1	1	0.031918	-11.8976	-9.43045	-5.13812
 274	1	3	-0.235323	-12.3244	-9.11183	-3.87412
 275	1	1	0.139602	-13.6286	-9.30164	-3.4664
 276	1	1	-0.107898	-14.533	-10.0907	-4.20358
 277	1	1	-0.094745	-14.0649	-8.66041	-2.29961
 278	1	1	-0.163657	-15.8684	-10.2099	-3.78631
 279	1	1	-0.253044	-15.3997	-8.78617	-1.87686
 280	1	2	0.134377	-14.2086	-10.6109	-5.09915
 281	1	1	-0.00458	-16.3261	-9.54435	-2.63114
 282	1	2	0.169279	-13.3629	-8.05377	-1.73371
 283	1	2	0.169448	-16.5579	-10.8243	-4.36161
 284	1	1	-0.039038	-11.9752	-10.7215	-11.1892
 285	1	1	-0.435237	-13.0734	-10.7514	-12.0737
 286	1	1	0.120439	-12.1565	-11.0201	-9.83202
 287	1	1	0.323935	-14.3714	-11.0675	-11.6157
 288	1	1	-0.012898	-13.4326	-11.3864	-9.37003
 289	1	2	0.208311	-12.9194	-10.505	-13.1238
 290	1	1	-0.466417	-14.5266	-11.4029	-10.2508
 291	1	3	-0.302302	-11.0971	-10.9156	-8.95747
 292	1	2	0.13972	-13.5744	-11.6466	-8.32446
 293	1	2	0.217142	-15.5034	-11.6916	-9.8718
 294	1	2	0.144775	-10.9837	-10.4463	-11.5394
 295	1	2	0.161927	-10.2367	-11.9783	-6.71266
 296	1	2	0.152343	-10.7943	-11.1408	-4.41584
 297	1	4	1.02665	-13.3609	-7.22879	-6.18625
 298	1	5	-0.487155	-14.4582	-7.27663	-7.15043
 299	1	5	-0.529829	-13.5539	-6.66353	-4.85571
 300	1	6	-0.538439	-12.3721	-6.10532	-6.77157
 301	1	7	0.447385	-12.5314	-5.51496	-6.01577
 302	1	2	0.176748	-15.7009	-8.29185	-0.955785
 303	1	8	0.492969	-17.7711	-9.70057	-2.21201
 304	1	5	-0.49751	-18.4275	-10.6525	-2.61587
 305	1	1	0.228748	-20.8484	-8.80815	-6.25416
 306	1	1	-0.221817	-20.5231	-10.1351	-6.56769
 307	1	1	-0.090782	-21.2	-7.90858	-7.27215
 308	1	2	0.148235	-21.4264	-6.87647	-7.01657
 309	1	1	-0.079307	-20.5121	-10.5511	-7.91107
 310	1	1	-0.073979	-21.1912	-8.3152	-8.61955
 311	1	1	0.031918	-20.8193	-9.63862	-8.93694
 312	1	3	-0.235323	-20.6826	-10.0478	-10.2416
 313	1	1	0.139602	-19.4473	-10.2606	-10.811
 314	1	1	-0.107898	-19.3128	-11.231	-11.8162
 315	1	1	-0.094745	-18.3291	-9.50219	-10.4211
 316	1	1	-0.163657	-18.0558	-11.4752	-12.3986
 317	1	1	-0.253044	-17.0721	-9.75283	-10.9932
 318	1	2	0.134377	-20.1844	-11.7952	-12.1357
 319	1	1	-0.00458	-16.9186	-10.7611	-11.9686
 320	1	2	0.169279	-18.4392	-8.70904	-9.68656
 321	1	2	0.169448	-17.9557	-12.2359	-13.1711
 322	1	1	-0.039038	-20.0089	-6.20372	-4.09358
 323	1	1	-0.435237	-19.0264	-5.19904	-3.97024
 324	1	1	0.120439	-19.6946	-7.41483	-4.73067
 325	1	1	0.323935	-17.7257	-5.38266	-4.48896
 326	1	1	-0.012898	-18.3873	-7.63551	-5.19712
 327	1	2	0.208311	-19.2818	-4.25024	-3.50351
 328	1	1	-0.466417	-17.4143	-6.63057	-5.07075
 329	1	3	-0.302302	-20.6765	-8.34761	-4.97254
 330	1	2	0.13972	-18.1376	-8.57704	-5.68007
 331	1	2	0.217142	-16.4104	-6.80971	-5.44924
 332	1	2	0.144775	-21.0225	-6.03517	-3.73309
 333	1	2	0.161927	-20.2406	-10.8194	-5.77199
 334	1	2	0.152343	-20.2294	-11.5692	-8.16681
 335	1	4	1.02665	-21.5043	-7.06592	-9.87975
 336	1	5	-0.487155	-22.3301	-5.96942	-9.37773
 337	1	5	-0.529829	-20.2097	-6.79162	-10.4958
 338	1	6	-0.538439	-22.2983	-7.8103	-11.0806
 339	1	7	0.447385	-21.5193	-7.99074	-11.6611
 340	1	2	0.176748	-16.2209	-9.14781	-10.6868
 341	1	8	0.492969	-15.5641	-11.0649	-12.5557
 342	1	5	-0.49751	-15.4689	-11.4263	-13.7198
 343	1	1	0.228748	-13.9219	-5.72599	-12.4922
 344	1	1	-0.221817	-13.7378	-6.36632	-11.2602
 345	1	1	-0.090782	-13.8317	-4.32878	-12.5841
 346	1	2	0.148235	-13.9895	-3.84702	-13.5456
 347	1	1	-0.079307	-13.5011	-5.60254	-10.107
 348	1	1	-0.073979	-13.6111	-3.55587	-11.4255
 349	1	1	0.031918	-13.4736	-4.19725	-10.1772
 350	1	3	-0.235323	-13.3535	-3.4616	-9.01615
 351	1	1	0.139602	-14.1882	-3.6282	-7.92847
 352	1	1	-0.107898	-13.7449	-3.23494	-6.65539
 353	1	1	-0.094745	-15.4753	-4.1774	-8.06994
 354	1	1	-0.163657	-14.56	-3.43871	-5.5247
 355	1	1	-0.253044	-16.2867	-4.38501	-6.94271
 356	1	2	0.134377	-12.7636	-2.78147	-6.54932
 357	1	1	-0.00458	-15.8297	-4.04146	-5.65062
 358	1	2	0.169279	-15.8476	-4.44756	-9.0539
 359	1	2	0.169448	-14.2068	-3.13723	-4.54041
 360	1	1	-0.039038	-16.6806	-6.33017	-12.9476
 361	1	1	-0.435237	-17.9857	-6.83788	-13.0459
 362	1	1	0.120439	-15.6262	-6.94048	-13.655
 363	1	1	0.323935	-18.2803	-7.95185	-13.8554
 364	1	1	-0.012898	-15.898	-8.06009	-14.4574
 365	1	2	0.208311	-18.7902	-6.35725	-12.494
 366	1	1	-0.466417	-17.2118	-8.5616	-14.554
 367	1	3	-0.302302	-14.3344	-6.46203	-13.573
 368	1	2	0.13972	-15.0838	-8.54231	-14.9952
 369	1	2	0.217142	-17.3971	-9.44428	-15.1627
 370	1	2	0.144775	-16.4983	-5.45823	-12.3256
 371	1	2	0.161927	-13.8103	-7.44862	-11.202
 372	1	2	0.152343	-13.3815	-6.09591	-9.14996
 373	1	4	1.02665	-13.5864	-1.76113	-11.5601
 374	1	5	-0.487155	-13.5528	-1.2752	-12.9378
 375	1	5	-0.529829	-14.4824	-1.19299	-10.558
 376	1	6	-0.538439	-12.2117	-1.33363	-10.8405
 377	1	7	0.447385	-12.69	-1.06479	-10.0369
 378	1	2	0.176748	-17.2782	-4.8095	-7.08737
 379	1	8	0.492969	-16.6902	-4.27626	-4.42742
 380	1	5	-0.49751	-16.559	-3.58704	-3.42392
 381	1	1	0.228748	-24.9919	-12.3726	-20.1463
 382	1	1	-0.221817	-25.2355	-11.0113	-19.9229
 383	1	1	-0.090782	-23.7126	-12.9075	-19.9173
 384	1	2	0.148235	-23.5346	-13.965	-20.0954
 385	1	1	-0.079307	-24.1844	-10.173	-19.5131
 386	1	1	-0.073979	-22.6535	-12.0765	-19.5054
 387	1	1	0.031918	-22.8966	-10.7	-19.3164
 388	1	3	-0.235323	-21.8719	-9.82588	-19.0599
 389	1	1	0.139602	-21.37	-9.53477	-17.8148
 390	1	1	-0.107898	-21.9651	-10.0006	-16.6292
 391	1	1	-0.094745	-20.2261	-8.72933	-17.7513
 392	1	1	-0.163657	-21.4067	-9.65709	-15.3857
 393	1	1	-0.253044	-19.6695	-8.38336	-16.51
 394	1	2	0.134377	-22.8537	-10.6235	-16.6672
 395	1	1	-0.00458	-20.248	-8.8548	-15.3102
 396	1	2	0.169279	-19.7812	-8.36607	-18.6737
 397	1	2	0.169448	-21.8798	-10.0101	-14.4715
 398	1	1	-0.039038	-26.2928	-15.2387	-21.8402
 399	1	1	-0.435237	-25.9677	-16.0911	-22.9132
 400	1	1	0.120439	-25.7498	-13.9467	-21.7827
 401	1	1	0.323935	-25.0918	-15.6738	-23.9377
 402	1	1	-0.012898	-24.9328	-13.4903	-22.8339
 403	1	2	0.208311	-26.3696	-17.1016	-22.944
 404	1	1	-0.466417	-24.6073	-14.3471	-23.8998
 405	1	3	-0.302302	-25.9871	-13.1555	-20.6802
 406	1	2	0.13972	-24.5337	-12.4789	-22.8093
 407	1	2	0.217142	-23.9636	-13.9849	-24.6977
 408	1	2	0.144775	-26.9375	-15.5836	-21.0354
 409	1	2	0.161927	-26.2248	-10.6052	-20.1137
 410	1	2	0.152343	-24.3521	-9.10654	-19.3839
 411	1	4	1.02665	-21.0171	-12.8104	-19.2986
 412	1	5	-0.487155	-20.5319	-12.5656	-17.9443
 413	1	5	-0.529829	-20.9193	-14.1397	-19.8993
 414	1	6	-0.538439	-20.0097	-11.8475	-20.1146
 415	1	7	0.447385	-19.4471	-11.6275	-19.3452
 416	1	2	0.176748	-18.8028	-7.72643	-16.4923
 417	1	8	0.492969	-19.7084	-8.4563	-13.9577
 418	1	5	-0.49751	-20.4787	-8.38336	-13.0062
 419	1	1	0.228748	-16.209	-14.4549	-25.0286
 420	1	1	-0.221817	-17.0274	-14.0862	-26.1049
 421	1	1	-0.090782	-16.3354	-15.7259	-24.4462
 422	1	2	0.148235	-15.6896	-15.9977	-23.6148
 423	1	1	-0.079307	-18.0001	-14.9817	-26.5805
 424	1	1	-0.073979	-17.2913	-16.6406	-24.9337
 425	1	1	0.031918	-18.1398	-16.2502	-25.9915
 426	1	3	-0.235323	-19.1331	-17.0789	-26.4536
 427	1	1	0.139602	-20.4568	-16.9268	-26.1034
 428	1	1	-0.107898	-20.8347	-16.2864	-24.91
 429	1	1	-0.094745	-21.445	-17.4675	-26.9384
 430	1	1	-0.163657	-22.19	-16.192	-24.5557
 431	1	1	-0.253044	-22.8052	-17.3538	-26.5946
 432	1	2	0.134377	-20.0802	-15.8918	-24.2348
 433	1	1	-0.00458	-23.1988	-16.7067	-25.4026
 434	1	2	0.169279	-21.1485	-17.9801	-27.8498
 435	1	2	0.169448	-22.4371	-15.7397	-23.5982
 436	1	1	-0.039038	-14.4508	-12.7937	-22.4218
 437	1	1	-0.435237	-14.6621	-12.1952	-21.1637
 438	1	1	0.120439	-15.5092	-12.9155	-23.3328
 439	1	1	0.323935	-15.9298	-11.6779	-20.7992
 440	1	1	-0.012898	-16.7699	-12.3942	-22.9976
 441	1	2	0.208311	-13.8347	-12.1705	-20.4624
 442	1	1	-0.466417	-16.9681	-11.7747	-21.7509
 443	1	3	-0.302302	-15.2995	-13.556	-24.5323
 444	1	2	0.13972	-17.5951	-12.4763	-23.7001
 445	1	2	0.217142	-17.9525	-11.3876	-21.5063
 446	1	2	0.144775	-13.4755	-13.1962	-22.686
 447	1	2	0.161927	-16.9135	-13.1037	-26.5534
 448	1	2	0.152343	-18.652	-14.6975	-27.4028
 449	1	4	1.02665	-17.4073	-18.2706	-24.1674
 450	1	5	-0.487155	-17.7595	-19.2967	-25.1443
 451	1	5	-0.529829	-16.3968	-18.5011	-23.1381
 452	1	6	-0.538439	-18.8267	-18.2294	-23.4077
 453	1	7	0.447385	-19.1888	-18.9339	-23.9713
 454	1	2	0.176748	-23.5632	-17.7851	-27.2472
 455	1	8	0.492969	-24.6663	-16.6381	-25.0283
 456	1	5	-0.49751	-25.4623	-17.4359	-25.506
 457	1	1	0.228748	-8.32158	-13.2735	-16.8363
 458	1	1	-0.221817	-9.53555	-13.4866	-17.5127
 459	1	1	-0.090782	-8.26644	-12.3185	-15.8111
 460	1	2	0.148235	-7.34098	-12.1953	-15.2559
 461	1	1	-0.079307	-10.6556	-12.6924	-17.2216
 462	1	1	-0.073979	-9.39056	-11.5252	-15.4975
 463	1	1	0.031918	-10.5868	-11.6919	-16.2297
 464	1	3	-0.235323	-11.6897	-10.911	-15.9493
 465	1	1	0.139602	-12.8099	-10.8648	-16.746
 466	1	1	-0.107898	-13.937	-11.6212	-16.3994
 467	1	1	-0.094745	-12.8069	-10.1193	-17.9356
 468	1	1	-0.163657	-15.0618	-11.6436	-17.2422
 469	1	1	-0.253044	-13.9202	-10.1641	-18.7978
 470	1	2	0.134377	-13.9244	-12.207	-15.4855
 471	1	1	-0.00458	-15.0505	-10.9468	-18.4669
 472	1	2	0.169279	-11.9298	-9.52961	-18.1901
 473	1	2	0.169448	-15.9299	-12.2377	-16.9619
 474	1	1	-0.039038	-6.29226	-15.8812	-18.3276
 475	1	1	-0.435237	-6.07936	-16.5714	-19.5385
 476	1	1	0.120439	-6.92652	-14.6292	-18.3262
 477	1	1	0.323935	-6.49819	-16.023	-20.7732
 478	1	1	-0.012898	-7.29026	-14.0447	-19.5518
 479	1	2	0.208311	-5.63611	-17.5635	-19.5057
 480	1	1	-0.466417	-7.09084	-14.7422	-20.7561
 481	1	3	-0.302302	-7.18719	-14.0074	-17.1211
 482	1	2	0.13972	-7.76515	-13.068	-19.5617
 483	1	2	0.217142	-7.4263	-14.3054	-21.6943
 484	1	2	0.144775	-6.00108	-16.3291	-17.3802
 485	1	2	0.161927	-9.61746	-14.2677	-18.2626
 486	1	2	0.152343	-11.5807	-12.8703	-17.7633
 487	1	4	1.02665	-9.25161	-10.3633	-14.122
 488	1	5	-0.487155	-10.4115	-9.51896	-13.86
 489	1	5	-0.529829	-8.54543	-10.9976	-13.0053
 490	1	6	-0.538439	-8.10849	-9.32983	-14.6097
 491	1	7	0.447385	-7.94262	-8.90143	-13.7326
 492	1	2	0.176748	-13.8989	-9.60304	-19.7306
 493	1	8	0.492969	-16.2127	-11.0937	-19.4196
 494	1	5	-0.49751	-17.3638	-10.9832	-19.0048
 495	1	1	0.228748	-4.59779	-25.2784	-23.5737
 496	1	1	-0.221817	-4.59546	-24.2763	-24.5551
 497	1	1	-0.090782	-4.08071	-25.0182	-22.2981
 498	1	2	0.148235	-4.06689	-25.8136	-21.5573
 499	1	1	-0.079307	-4.09972	-22.9975	-24.2472
 500	1	1	-0.073979	-3.59338	-23.7368	-21.9774
 501	1	1	0.031918	-3.62019	-22.7194	-22.9535
 502	1	3	-0.235323	-3.16212	-21.4564	-22.6562
 503	1	1	0.139602	-3.97829	-20.3542	-22.4967
 504	1	1	-0.107898	-5.3529	-20.3822	-22.8031
 505	1	1	-0.094745	-3.40578	-19.167	-22.0119
 506	1	1	-0.163657	-6.13188	-19.223	-22.6567
 507	1	1	-0.253044	-4.1922	-18.0128	-21.836
 508	1	2	0.134377	-5.82345	-21.2891	-23.1687
 509	1	1	-0.00458	-5.56405	-18.0328	-22.1635
 510	1	2	0.169279	-2.34267	-19.1443	-21.785
 511	1	2	0.169448	-7.18642	-19.2456	-22.927
 512	1	1	-0.039038	-7.44243	-25.8796	-23.915
 513	1	1	-0.435237	-8.78557	-26.2647	-24.0971
 514	1	1	0.120439	-6.4132	-26.8353	-24.0293
 515	1	1	0.323935	-9.13311	-27.5991	-24.399
 516	1	1	-0.012898	-6.74634	-28.1708	-24.2944
 517	1	2	0.208311	-9.5768	-25.5228	-24.0087
 518	1	1	-0.466417	-8.08922	-28.5512	-24.4686
 519	1	3	-0.302302	-5.07977	-26.5297	-23.8572
 520	1	2	0.13972	-5.95213	-28.9109	-24.3546
 521	1	2	0.217142	-8.31969	-29.5983	-24.6438
 522	1	2	0.144775	-7.20875	-24.8432	-23.686
 523	1	2	0.161927	-4.98131	-24.4922	-25.548
 524	1	2	0.152343	-4.10326	-22.2155	-25.0034
 525	1	4	1.02665	-2.93082	-23.4492	-20.3279
 526	1	5	-0.487155	-3.3543	-22.1432	-19.8302
 527	1	5	-0.529829	-2.9355	-24.6414	-19.4837
 528	1	6	-0.538439	-1.38943	-23.0779	-20.6198
 529	1	7	0.447385	-1.5373	-22.1361	-20.4411
 530	1	2	0.176748	-3.72414	-17.0946	-21.4858
 531	1	8	0.492969	-6.414	-16.7934	-22.0803
 532	1	5	-0.49751	-7.14462	-16.5127	-23.0215
 533	1	1	0.228748	-9.86904	-32.7301	-31.7263
 534	1	1	-0.221817	-9.45055	-33.4834	-30.621
 535	1	1	-0.090782	-11.0113	-31.9209	-31.6415
 536	1	2	0.148235	-11.3168	-31.3395	-32.5079
 537	1	1	-0.079307	-10.1597	-33.3995	-29.4109
 538	1	1	-0.073979	-11.7269	-31.8262	-30.4317
 539	1	1	0.031918	-11.278	-32.5541	-29.3079
 540	1	3	-0.235323	-11.8492	-32.3806	-28.0708
 541	1	1	0.139602	-11.5087	-31.3335	-27.2398
 542	1	1	-0.107898	-12.3525	-31.0196	-26.1639
 543	1	1	-0.094745	-10.3701	-30.5405	-27.4799
 544	1	1	-0.163657	-12.0534	-29.9313	-25.3228
 545	1	1	-0.253044	-10.0753	-29.4513	-26.6447
 546	1	2	0.134377	-13.2444	-31.6169	-25.9923
 547	1	1	-0.00458	-10.899	-29.1491	-25.5381
 548	1	2	0.169279	-9.72222	-30.7512	-28.3249
 549	1	2	0.169448	-12.7184	-29.6913	-24.4946
 550	1	1	-0.039038	-7.42177	-31.7524	-34.2851
 551	1	1	-0.435237	-6.44295	-30.7736	-34.5469
 552	1	1	0.120439	-8.15156	-31.7208	-33.0871
 553	1	1	0.323935	-6.17853	-29.7351	-33.6282
 554	1	1	-0.012898	-7.88462	-30.7024	-32.1496
 555	1	2	0.208311	-5.87312	-30.8149	-35.4728
 556	1	1	-0.466417	-6.91031	-29.7246	-32.4189
 557	1	3	-0.302302	-9.0949	-32.703	-32.8576
 558	1	2	0.13972	-8.42145	-30.6678	-31.206
 559	1	2	0.217142	-6.70388	-28.967	-31.6673
 560	1	2	0.144775	-7.61571	-32.5441	-35.0051
 561	1	2	0.161927	-8.56093	-34.1023	-30.6994
 562	1	2	0.152343	-9.8238	-33.9546	-28.538
 563	1	4	1.02665	-13.1604	-30.7311	-30.3642
 564	1	5	-0.487155	-13.5178	-30.1643	-31.6622
 565	1	5	-0.529829	-14.1599	-31.2113	-29.4166
 566	1	6	-0.538439	-12.6408	-29.4986	-29.4716
 567	1	7	0.447385	-13.2587	-29.7233	-28.7525
 568	1	2	0.176748	-9.20923	-28.8326	-26.8733
 569	1	8	0.492969	-10.5865	-27.9908	-24.6167
 570	1	5	-0.49751	-11.4968	-27.3884	-24.0634
 571	1	1	0.228748	-2.46343	-21.1111	-29.969
 572	1	1	-0.221817	-2.50174	-21.4041	-31.3404
 573	1	1	-0.090782	-3.4482	-21.6367	-29.1139
 574	1	2	0.148235	-3.42283	-21.4124	-28.051
 575	1	1	-0.079307	-3.5278	-22.2119	-31.8626
 576	1	1	-0.073979	-4.46817	-22.4588	-29.6271
 577	1	1	0.031918	-4.50211	-22.7537	-31.0046
 578	1	3	-0.235323	-5.52954	-23.5129	-31.5189
 579	1	1	0.139602	-5.387	-24.7545	-32.1079
 580	1	1	-0.107898	-4.13553	-25.3762	-32.2868
 581	1	1	-0.094745	-6.55039	-25.4191	-32.5264
 582	1	1	-0.163657	-4.05684	-26.6446	-32.8898
 583	1	1	-0.253044	-6.47339	-26.6951	-33.1129
 584	1	2	0.134377	-3.22228	-24.8883	-31.9617
 585	1	1	-0.00458	-5.2231	-27.328	-33.2901
 586	1	2	0.169279	-7.51646	-24.9401	-32.3914
 587	1	2	0.169448	-3.08444	-27.1122	-33.0362
 588	1	1	-0.039038	-2.36371	-18.462	-28.2542
 589	1	1	-0.435237	-2.47357	-17.7397	-27.0506
 590	1	1	0.120439	-1.55258	-19.6048	-28.3187
 591	1	1	0.323935	-1.78463	-18.1513	-25.8839
 592	1	1	-0.012898	-0.857045	-20.0285	-27.1776
 593	1	2	0.208311	-3.08366	-16.8414	-27.0403
 594	1	1	-0.466417	-0.980516	-19.3106	-25.9734
 595	1	3	-0.302302	-1.44956	-20.3145	-29.4912
 596	1	2	0.13972	-0.225498	-20.912	-27.2322
 597	1	2	0.217142	-0.4302	-19.6408	-25.0946
 598	1	2	0.144775	-2.8938	-18.1327	-29.1448
 599	1	2	0.161927	-1.74081	-20.9888	-31.9956
 600	1	2	0.152343	-3.57149	-22.4182	-32.9297
 601	1	4	1.02665	-5.7306	-23.0922	-28.513
 602	1	5	-0.487155	-5.80396	-24.5356	-28.7208
 603	1	5	-0.529829	-5.63553	-22.4559	-27.1997
 604	1	6	-0.538439	-7.06633	-22.5508	-29.2551
 605	1	7	0.447385	-6.87282	-22.9407	-30.1224
 606	1	2	0.176748	-7.38907	-27.1846	-33.4407
 607	1	8	0.492969	-5.10971	-28.6958	-33.9237
 608	1	5	-0.49751	-4.14215	-28.9641	-34.6239
 609	1	1	0.228748	-6.30276	-10.9865	-20.6318
 610	1	1	-0.221817	-4.99482	-11.4818	-20.7092
 611	1	1	-0.090782	-7.15042	-11.0511	-21.7437
 612	1	2	0.148235	-8.16978	-10.6837	-21.657
 613	1	1	-0.079307	-4.52424	-12.0225	-21.917
 614	1	1	-0.073979	-6.68837	-11.5952	-22.957
 615	1	1	0.031918	-5.36469	-12.0747	-23.0477
 616	1	3	-0.235323	-4.89283	-12.5622	-24.246
 617	1	1	0.139602	-4.15447	-13.7158	-24.3443
 618	1	1	-0.107898	-2.75827	-13.6804	-24.2027
 619	1	1	-0.094745	-4.80321	-14.9332	-24.5992
 620	1	1	-0.163657	-2.01595	-14.8717	-24.2712
 621	1	1	-0.253044	-4.05814	-16.1235	-24.6933
 622	1	2	0.134377	-2.25784	-12.7324	-24.0262
 623	1	1	-0.00458	-2.6564	-16.1004	-24.5278
 624	1	2	0.169279	-5.88621	-14.9476	-24.715
 625	1	2	0.169448	-0.936426	-14.8458	-24.1342
 626	1	1	-0.039038	-5.75184	-8.30041	-19.5183
 627	1	1	-0.435237	-5.33447	-7.14829	-18.8214
 628	1	1	0.120439	-6.28164	-9.39547	-18.8115
 629	1	1	0.323935	-5.43071	-7.06224	-17.4139
 630	1	1	-0.012898	-6.36948	-9.33375	-17.417
 631	1	2	0.208311	-4.96656	-6.28714	-19.375
 632	1	1	-0.466417	-5.93977	-8.18814	-16.7273
 633	1	3	-0.302302	-6.78785	-10.5053	-19.4463