pySIMM System Object

1142 atoms
1231 bonds
1980 angles
2906 dihedrals
330 impropers

9 atom types
10 bond types
15 angle types
5 dihedral types
2 improper types

-164.310692 164.310692 xlo xhi
-164.310692 164.310692 ylo yhi
-164.310692 164.310692 zlo zhi

Masses

   1	12.01	# ca
   2	1.008	# ha
   3	16.0	# os
   4	32.06	# sy
   5	16.0	# o
   6	16.0	# oh
   7	1.008	# ho
   8	12.01	# c
   9	1.008	# h4

Pair Coeffs

   1	0.086	3.3996695084235347	# ca
   2	0.015	2.59964245953351	# ha
   3	0.17	3.0000123434657784	# os
   4	0.25	3.563594872561357	# sy
   5	0.21	2.959921901149463	# o
   6	0.2104	3.0664733878390478	# oh
   7	1e-05	0.0	# ho
   8	0.086	3.3996695084235347	# c
   9	0.015	2.5105525877194763	# h4

Bond Coeffs

   1	345.8	1.086	# ca,ha
   2	243.4	1.7909	# ca,sy
   3	289.8	1.6497	# oh,sy
   4	637.7	1.2183	# c,o
   5	376.6	1.3696	# ca,os
   6	371.4	0.973	# ho,oh
   7	461.1	1.3984	# ca,ca
   8	345.9	1.4906	# c,ca
   9	310.7	1.1121	# c,h4
  10	493.0	1.466	# o,sy

Angle Coeffs

   1	48.18	119.88	# ca,ca,ha
   2	72.54	121.41	# o,sy,o
   3	72.32	106.68	# o,sy,oh
   4	61.48	119.42	# ca,ca,sy
   5	64.28	120.33	# c,ca,ca
   6	69.58	119.2	# ca,ca,os
   7	68.72	122.6	# ca,c,o
   8	54.22	120.7	# h4,c,o
   9	46.43	115.14	# ca,c,h4
  10	44.17	106.42	# ho,oh,sy
  11	65.46	101.3	# ca,sy,oh
  12	65.77	108.35	# ca,sy,o
  13	63.48	119.89	# ca,os,ca
  14	66.62	120.02	# ca,ca,ca
  15	63.0	118.11	# ca,c,ca

Dihedral Coeffs

   1	1	1.3	2	180	# X,ca,sy,X
   2	1	9.5	1	180	# X,oh,sy,X
   3	1	3.625	2	180	# X,ca,ca,X
   4	1	1.0	2	180	# X,c,ca,X
   5	1	0.9	2	180	# X,ca,os,X

Improper Coeffs

   1	10.5	-1	2	# c,X,X,o
   2	1.1	-1	2	# ca,X,X,ha

Atoms

   1	1	1	0.228748	53.9529	17.0505	31.4791
   2	1	1	-0.221817	54.8244	16.4337	30.5684
   3	1	1	-0.090782	54.1857	18.3669	31.8981
   4	1	2	0.148235	53.5042	18.8274	32.6088
   5	1	1	-0.079307	55.9304	17.143	30.0691
   6	1	1	-0.073979	55.2916	19.0841	31.4029
   7	1	1	0.031918	56.1617	18.471	30.479
   8	1	3	-0.235323	57.2572	19.1596	30.0097
   9	1	1	0.139602	57.7342	19.0585	28.7258
  10	1	1	-0.107898	56.8661	19.1634	27.6256
  11	1	1	-0.094745	59.1091	18.8742	28.5214
  12	1	1	-0.163657	57.3746	19.0671	26.3182
  13	1	1	-0.253044	59.6172	18.7713	27.2142
  14	1	2	0.134377	55.8047	19.3286	27.7893
  15	1	1	-0.00458	58.7536	18.8671	26.1031
  16	1	2	0.169279	59.7724	18.8068	29.38
  17	1	2	0.169448	56.6973	19.1525	25.4721
  18	1	1	-0.039038	50.9522	14.9689	31.7986
  19	1	1	-0.435237	49.8445	14.4888	31.0742
  20	1	1	0.120439	51.822	15.9087	31.2267
  21	1	1	0.323935	49.5756	14.9481	29.764
  22	1	1	-0.012898	51.5755	16.3694	29.9194
  23	1	2	0.208311	49.2052	13.7363	31.5287
  24	1	1	-0.466417	50.4685	15.8839	29.1983
  25	1	3	-0.302302	52.8771	16.3669	31.9852
  26	1	2	0.13972	52.2343	17.1041	29.4638
  27	1	2	0.217142	50.2885	16.2353	28.1844
  28	1	2	0.144775	51.1488	14.6114	32.8067
  29	1	2	0.161927	54.6472	15.4055	30.2661
  30	1	2	0.152343	56.616	16.6597	29.3771
  31	1	4	1.02665	55.5443	20.7823	31.9479
  32	1	5	-0.487155	54.4743	21.2906	32.8032
  33	1	5	-0.529829	56.9533	21.0255	32.2373
  34	1	6	-0.538439	55.5084	21.6222	30.5763
  35	1	7	0.447385	56.4646	21.7968	30.6456
  36	1	2	0.176748	60.6846	18.6218	27.0563
  37	1	8	0.492969	59.2881	18.7649	24.7013
  38	1	5	-0.49751	60.4612	18.5633	24.4339
  39	1	1	0.228748	39.7832	12.6745	29.8751
  40	1	1	-0.221817	40.7797	13.5044	29.328
  41	1	1	-0.090782	40.0836	11.8715	30.9842
  42	1	2	0.148235	39.3126	11.2225	31.3919
  43	1	1	-0.079307	42.0577	13.5493	29.9101
  44	1	1	-0.073979	41.3694	11.8934	31.5591
  45	1	1	0.031918	42.3615	12.7389	31.0218
  46	1	3	-0.235323	43.6027	12.8022	31.6195
  47	1	1	0.139602	44.757	13.1825	30.9773
  48	1	1	-0.107898	45.544	14.2004	31.5337
  49	1	1	-0.094745	45.1521	12.5678	29.7781
  50	1	1	-0.163657	46.7222	14.615	30.8883
  51	1	1	-0.253044	46.3292	12.9844	29.1301
  52	1	2	0.134377	45.2266	14.676	32.4578
  53	1	1	-0.00458	47.1365	14.0008	29.6848
  54	1	2	0.169279	44.5431	11.772	29.3566
  55	1	2	0.169448	47.3005	15.4286	31.3211
  56	1	1	-0.039038	37.9589	14.8088	28.5478
  57	1	1	-0.435237	37.4763	15.6354	27.5159
  58	1	1	0.120439	38.021	13.4182	28.3593
  59	1	1	0.323935	37.0358	15.0957	26.2875
  60	1	1	-0.012898	37.5447	12.8584	27.1656
  61	1	2	0.208311	37.431	16.7126	27.6639
  62	1	1	-0.466417	37.0552	13.6885	26.1397
  63	1	3	-0.302302	38.518	12.588	29.3363
  64	1	2	0.13972	37.5592	11.7778	27.0436
  65	1	2	0.217142	36.6631	13.2304	25.2354
  66	1	2	0.144775	38.2905	15.2397	29.4899
  67	1	2	0.161927	40.5713	14.117	28.4568
  68	1	2	0.152343	42.8097	14.2172	29.4974
  69	1	4	1.02665	41.7139	10.8146	32.9599
  70	1	5	-0.487155	40.5392	10.1021	33.4565
  71	1	5	-0.529829	42.9968	10.1487	32.7581
  72	1	6	-0.538439	42.2109	11.8163	34.1165
  73	1	7	0.447385	43.1303	11.516	34.008
  74	1	2	0.176748	46.6255	12.5143	28.1933
  75	1	8	0.492969	48.3885	14.4426	28.9608
  76	1	5	-0.49751	48.4251	14.4114	27.7373
  77	1	1	0.228748	35.36	16.7761	16.6066
  78	1	1	-0.221817	36.5136	17.171	17.2981
  79	1	1	-0.090782	34.7295	15.5618	16.9292
  80	1	2	0.148235	33.842	15.2512	16.3843
  81	1	1	-0.079307	37.0227	16.3649	18.3316
  82	1	1	-0.073979	35.2292	14.7519	17.9647
  83	1	1	0.031918	36.3773	15.1624	18.6713
  84	1	3	-0.235323	36.8763	14.4091	19.7066
  85	1	1	0.139602	36.7854	14.8099	21.0213
  86	1	1	-0.107898	37.7569	14.3723	21.9331
  87	1	1	-0.094745	35.7386	15.6377	21.466
  88	1	1	-0.163657	37.6881	14.7606	23.2833
  89	1	1	-0.253044	35.6691	16.0246	22.8153
  90	1	2	0.134377	38.5694	13.7402	21.5856
  91	1	1	-0.00458	36.6305	15.5769	23.7448
  92	1	2	0.169279	34.9731	15.97	20.7707
  93	1	2	0.169448	38.4695	14.4326	23.965
  94	1	1	-0.039038	32.6503	18.1071	16.4789
  95	1	1	-0.435237	31.2578	18.1419	16.2871
  96	1	1	0.120439	33.4924	17.7052	15.4293
  97	1	1	0.323935	30.6792	17.7619	15.0574
  98	1	1	-0.012898	32.9408	17.3601	14.1867
  99	1	2	0.208311	30.6069	18.462	17.0985
 100	1	1	-0.466417	31.5442	17.3812	14.0045
 101	1	3	-0.302302	34.8479	17.5967	15.6299
 102	1	2	0.13972	33.6018	17.0623	13.3762
 103	1	2	0.217142	31.1319	17.1235	13.0325
 104	1	2	0.144775	33.0797	18.3853	17.4383
 105	1	2	0.161927	36.9993	18.1075	17.0386
 106	1	2	0.152343	37.9113	16.6716	18.878
 107	1	4	1.02665	34.353	13.2321	18.369
 108	1	5	-0.487155	34.2097	13.1306	19.8183
 109	1	5	-0.529829	33.2478	12.9466	17.4569
 110	1	6	-0.538439	35.4697	12.0871	18.1652
 111	1	7	0.447385	35.6084	11.9796	19.1196
 112	1	2	0.176748	34.8573	16.6689	23.1501
 113	1	8	0.492969	36.5297	16.0159	25.1889
 114	1	5	-0.49751	36.0659	17.117	25.4561
 115	1	1	0.228748	27.7764	10.6238	9.48718
 116	1	1	-0.221817	28.6448	11.7147	9.63293
 117	1	1	-0.090782	26.4883	10.6731	10.0401
 118	1	2	0.148235	25.8229	9.82133	9.92624
 119	1	1	-0.079307	28.2167	12.87	10.3121
 120	1	1	-0.073979	26.0606	11.8166	10.7417
 121	1	1	0.031918	26.929	12.9197	10.8823
 122	1	3	-0.235323	26.4677	14.0675	11.4919
 123	1	1	0.139602	27.1803	14.9391	12.2887
 124	1	1	-0.107898	28.3286	14.5524	13.0052
 125	1	1	-0.094745	26.6816	16.2415	12.4374
 126	1	1	-0.163657	28.9958	15.481	13.8271
 127	1	1	-0.253044	27.3357	17.1635	13.2724
 128	1	2	0.134377	28.6889	13.5293	12.9465
 129	1	1	-0.00458	28.5105	16.8016	13.9625
 130	1	2	0.169279	25.7735	16.5267	11.9135
 131	1	2	0.169448	29.8682	15.1554	14.3904
 132	1	1	-0.039038	27.2769	9.70338	6.58479
 133	1	1	-0.435237	26.5727	9.13094	5.50724
 134	1	1	0.120439	27.4756	8.9727	7.76685
 135	1	1	0.323935	26.0317	7.82503	5.59511
 136	1	1	-0.012898	26.9727	7.66749	7.86527
 137	1	2	0.208311	26.4834	9.6966	4.5845
 138	1	1	-0.466417	26.2543	7.10692	6.79188
 139	1	3	-0.302302	28.2002	9.51102	8.80449
 140	1	2	0.13972	27.1465	7.09407	8.77269
 141	1	2	0.217142	25.8762	6.08962	6.8717
 142	1	2	0.144775	27.6968	10.7023	6.49813
 143	1	2	0.161927	29.6385	11.6665	9.19742
 144	1	2	0.152343	28.877	13.7301	10.3841
 145	1	4	1.02665	24.394	11.8355	11.4252
 146	1	5	-0.487155	23.6182	10.6364	11.1151
 147	1	5	-0.529829	24.3964	12.4435	12.7517
 148	1	6	-0.538439	23.6922	13.0698	10.6705
 149	1	7	0.447385	23.7174	13.5965	11.4888
 150	1	2	0.176748	26.9259	18.1647	13.398
 151	1	8	0.492969	29.1726	17.8021	14.8823
 152	1	5	-0.49751	28.4943	18.6302	15.4762
 153	1	1	0.228748	21.7323	9.1736	-3.56775
 154	1	1	-0.221817	20.9427	8.97855	-2.42574
 155	1	1	-0.090782	23.0297	9.69259	-3.44995
 156	1	2	0.148235	23.6255	9.84696	-4.34625
 157	1	1	-0.079307	21.4424	9.33285	-1.16015
 158	1	1	-0.073979	23.5362	10.054	-2.18614
 159	1	1	0.031918	22.7313	9.88106	-1.04017
 160	1	3	-0.235323	23.1429	10.3354	0.190575
 161	1	1	0.139602	23.6141	9.53031	1.20374
 162	1	1	-0.107898	24.1572	8.25803	0.954191
 163	1	1	-0.094745	23.5844	10.0257	2.51592
 164	1	1	-0.163657	24.6872	7.50051	2.01339
 165	1	1	-0.253044	24.1081	9.265	3.57742
 166	1	2	0.134377	24.1947	7.86719	-0.0581643
 167	1	1	-0.00458	24.6958	8.00329	3.33186
 168	1	2	0.169279	23.1505	11.0043	2.70285
 169	1	2	0.169448	25.1146	6.52048	1.80869
 170	1	1	-0.039038	20.5884	11.2726	-5.17452
 171	1	1	-0.435237	19.9912	12.2446	-5.99738
 172	1	1	0.120439	20.6413	9.92743	-5.59088
 173	1	1	0.323935	19.4388	11.9106	-7.25151
 174	1	1	-0.012898	20.0848	9.57613	-6.83112
 175	1	2	0.208311	19.9438	13.278	-5.66027
 176	1	1	-0.466417	19.4874	10.5544	-7.65161
 177	1	3	-0.302302	21.1995	8.93427	-4.80939
 178	1	2	0.13972	20.1069	8.53477	-7.14393
 179	1	2	0.217142	19.0287	10.2478	-8.58857
 180	1	2	0.144775	20.9981	11.5709	-4.21311
 181	1	2	0.161927	19.9349	8.58746	-2.53237
 182	1	2	0.152343	20.8215	9.22027	-0.274536
 183	1	4	1.02665	25.181	10.7803	-2.08817
 184	1	5	-0.487155	25.8937	10.2514	-0.929386
 185	1	5	-0.529829	25.822	10.9364	-3.39127
 186	1	6	-0.538439	24.8929	12.259	-1.51415
 187	1	7	0.447385	25.231	12.0339	-0.632397
 188	1	2	0.176748	24.0516	9.65877	4.59051
 189	1	8	0.492969	25.2915	7.16142	4.43935
 190	1	5	-0.49751	25.2302	5.94095	4.35876
 191	1	1	0.228748	15.3683	13.2436	-16.3187
 192	1	1	-0.221817	16.2244	14.2756	-15.8989
 193	1	1	-0.090782	15.5836	11.9308	-15.8789
 194	1	2	0.148235	14.9234	11.1394	-16.2256
 195	1	1	-0.079307	17.2987	13.9886	-15.0386
 196	1	1	-0.073979	16.6477	11.6368	-15.0042
 197	1	1	0.031918	17.5083	12.6739	-14.5869
 198	1	3	-0.235323	18.596	12.4122	-13.7884
 199	1	1	0.139602	18.6205	12.5885	-12.421
 200	1	1	-0.107898	19.7237	12.0919	-11.7109
 201	1	1	-0.094745	17.5788	13.2286	-11.7239
 202	1	1	-0.163657	19.7842	12.2127	-10.3115
 203	1	1	-0.253044	17.6447	13.3603	-10.3251
 204	1	2	0.134377	20.5302	11.6061	-12.2522
 205	1	1	-0.00458	18.7342	12.8333	-9.60013
 206	1	2	0.169279	16.7199	13.6206	-12.2592
 207	1	2	0.169448	20.6569	11.831	-9.78609
 208	1	1	-0.039038	12.969	15.1807	-18.2059
 209	1	1	-0.435237	12.0626	16.2524	-18.0923
 210	1	1	0.120439	13.4625	14.5506	-17.0536
 211	1	1	0.323935	11.6152	16.6979	-16.831
 212	1	1	-0.012898	13.038	14.9892	-15.7874
 213	1	2	0.208311	11.6874	16.742	-18.9887
 214	1	1	-0.466417	12.1298	16.0573	-15.679
 215	1	3	-0.302302	14.334	13.4946	-17.1874
 216	1	2	0.13972	13.4086	14.4967	-14.892
 217	1	2	0.217142	11.828	16.3954	-14.6912
 218	1	2	0.144775	13.2957	14.8342	-19.1836
 219	1	2	0.161927	16.0691	15.2875	-16.2629
 220	1	2	0.152343	17.9821	14.7771	-14.7322
 221	1	4	1.02665	16.8897	9.92694	-14.4896
 222	1	5	-0.487155	17.3668	9.85333	-13.1117
 223	1	5	-0.529829	15.859	9.02258	-14.9923
 224	1	6	-0.538439	18.2653	9.52055	-15.2246
 225	1	7	0.447385	18.7479	9.44445	-14.3871
 226	1	2	0.176748	16.8402	13.8639	-9.79134
 227	1	8	0.492969	18.7766	12.9865	-8.09712
 228	1	5	-0.49751	18.2637	13.9679	-7.57381
 229	1	1	0.228748	7.71066	14.994	-9.2077
 230	1	1	-0.221817	8.67225	15.9676	-9.50746
 231	1	1	-0.090782	6.50978	14.9379	-9.93694
 232	1	2	0.148235	5.77654	14.1694	-9.70506
 233	1	1	-0.079307	8.43291	16.8996	-10.5308
 234	1	1	-0.073979	6.26731	15.8629	-10.9726
 235	1	1	0.031918	7.23301	16.848	-11.2625
 236	1	3	-0.235323	7.03035	17.7532	-12.2786
 237	1	1	0.139602	7.85146	17.7688	-13.382
 238	1	1	-0.107898	8.28548	18.993	-13.9133
 239	1	1	-0.094745	8.26482	16.5636	-13.9738
 240	1	1	-0.163657	9.16702	19.01	-15.01
 241	1	1	-0.253044	9.14251	16.5805	-15.068
 242	1	2	0.134377	7.95317	19.925	-13.464
 243	1	1	-0.00458	9.62827	17.8044	-15.579
 244	1	2	0.169279	7.90131	15.6159	-13.586
 245	1	2	0.169448	9.51104	19.9612	-15.4134
 246	1	1	-0.039038	6.30725	14.9846	-6.65541
 247	1	1	-0.435237	5.44267	14.7766	-5.56752
 248	1	1	0.120439	7.13057	13.9387	-7.11042
 249	1	1	0.323935	5.383	13.5273	-4.90864
 250	1	1	-0.012898	7.1202	12.7079	-6.4347
 251	1	2	0.208311	4.80881	15.5929	-5.22946
 252	1	1	-0.466417	6.25414	12.5066	-5.34213
 253	1	3	-0.302302	7.96421	14.1033	-8.19402
 254	1	2	0.13972	7.7749	11.9082	-6.7733
 255	1	2	0.217142	6.23551	11.5462	-4.8309
 256	1	2	0.144775	6.3347	15.9552	-7.14415
 257	1	2	0.161927	9.59629	15.9979	-8.93661
 258	1	2	0.152343	9.176	17.6601	-10.7606
 259	1	4	1.02665	4.75161	15.7511	-11.9386
 260	1	5	-0.487155	5.14907	15.6879	-13.3428
 261	1	5	-0.529829	3.78167	14.8386	-11.3361
 262	1	6	-0.538439	4.17503	17.2618	-11.829
 263	1	7	0.447385	4.87555	17.6794	-12.3573
 264	1	2	0.176748	9.44193	15.6356	-15.5188
 265	1	8	0.492969	10.6124	17.8325	-16.724
 266	1	5	-0.49751	10.6205	18.7684	-17.5121
 267	1	1	0.228748	-1.24493	18.0091	-7.9875
 268	1	1	-0.221817	-0.517971	18.4993	-6.89355
 269	1	1	-0.090782	-1.87698	16.7549	-7.90007
 270	1	2	0.148235	-2.44759	16.3708	-8.74033
 271	1	1	-0.079307	-0.387475	17.7227	-5.72887
 272	1	1	-0.073979	-1.75792	15.9748	-6.73481
 273	1	1	0.031918	-0.994815	16.4572	-5.6525
 274	1	3	-0.235323	-0.760621	15.6773	-4.544
 275	1	1	0.139602	0.452873	15.0493	-4.36689
 276	1	1	-0.107898	1.21758	14.6422	-5.47388
 277	1	1	-0.094745	0.935255	14.8169	-3.06896
 278	1	1	-0.163657	2.47094	14.0465	-5.28614
 279	1	1	-0.253044	2.20017	14.2252	-2.87968
 280	1	2	0.134377	0.839144	14.7752	-6.48283
 281	1	1	-0.00458	2.99479	13.8633	-3.9886
 282	1	2	0.169279	0.332216	15.1127	-2.21458
 283	1	2	0.169448	3.02904	13.7261	-6.16293
 284	1	1	-0.039038	-2.67434	17.9482	-10.9296
 285	1	1	-0.435237	-2.78199	17.2731	-12.1582
 286	1	1	0.120439	-1.40905	18.1935	-10.3782
 287	1	1	0.323935	-1.63945	16.8426	-12.8701
 288	1	1	-0.012898	-0.256827	17.8162	-11.0845
 289	1	2	0.208311	-3.76732	17.069	-12.572
 290	1	1	-0.466417	-0.370984	17.1625	-12.3267
 291	1	3	-0.302302	-1.29735	18.7668	-9.13486
 292	1	2	0.13972	0.722497	18.0297	-10.6626
 293	1	2	0.217142	0.537283	16.9128	-12.8682
 294	1	2	0.144775	-3.56614	18.258	-10.3894
 295	1	2	0.161927	-0.0380499	19.471	-6.96442
 296	1	2	0.152343	0.200585	18.0875	-4.89038
 297	1	4	1.02665	-2.54499	14.3563	-6.69844
 298	1	5	-0.487155	-3.47831	14.1437	-7.80218
 299	1	5	-0.529829	-1.55224	13.3511	-6.33276
 300	1	6	-0.538439	-3.37313	14.3401	-5.31845
 301	1	7	0.447385	-2.72021	13.7595	-4.89246
 302	1	2	0.176748	2.57695	14.0578	-1.87162
 303	1	8	0.492969	4.37645	13.2823	-3.8005
 304	1	5	-0.49751	4.65133	12.6129	-2.81406
 305	1	1	0.228748	5.69654	11.376	-14.6545
 306	1	1	-0.221817	5.57673	12.7533	-14.8863
 307	1	1	-0.090782	4.67461	10.5048	-15.0769
 308	1	2	0.148235	4.76498	9.43571	-14.9044
 309	1	1	-0.079307	4.43047	13.2602	-15.5255
 310	1	1	-0.073979	3.51761	11.0046	-15.698
 311	1	1	0.031918	3.39887	12.389	-15.9214
 312	1	3	-0.235323	2.28982	12.8951	-16.5517
 313	1	1	0.139602	1.33133	13.6667	-15.9341
 314	1	1	-0.107898	0.390443	14.3171	-16.7431
 315	1	1	-0.094745	1.2401	13.7797	-14.5338
 316	1	1	-0.163657	-0.617256	15.1046	-16.1633
 317	1	1	-0.253044	0.22527	14.5629	-13.9524
 318	1	2	0.134377	0.441226	14.2024	-17.8221
 319	1	1	-0.00458	-0.700248	15.2604	-14.7639
 320	1	2	0.169279	1.94014	13.2465	-13.8962
 321	1	2	0.169448	-1.3465	15.5953	-16.805
 322	1	1	-0.039038	7.18104	8.56691	-13.4936
 323	1	1	-0.435237	6.80123	7.40424	-12.7953
 324	1	1	0.120439	6.62458	9.80541	-13.1385
 325	1	1	0.323935	5.85236	7.45869	-11.7515
 326	1	1	-0.012898	5.73784	9.88923	-12.0533
 327	1	2	0.208311	7.19965	6.43669	-13.0951
 328	1	1	-0.466417	5.35845	8.72564	-11.3645
 329	1	3	-0.302302	6.7847	10.895	-13.9598
 330	1	2	0.13972	5.30104	10.85	-11.7909
 331	1	2	0.217142	4.64789	8.8003	-10.545
 332	1	2	0.144775	7.8521	8.50444	-14.3474
 333	1	2	0.161927	6.36178	13.4259	-14.5565
 334	1	2	0.152343	4.33161	14.3288	-15.7033
 335	1	4	1.02665	2.20689	9.84727	-16.1338
 336	1	5	-0.487155	2.57142	8.45312	-15.888
 337	1	5	-0.529829	0.915227	10.3827	-15.7143
 338	1	6	-0.538439	2.0074	10.0423	-17.719
 339	1	7	0.447385	1.14216	10.4694	-17.595
 340	1	2	0.176748	0.150988	14.6012	-12.8676
 341	1	8	0.492969	-1.81751	16.1075	-14.1922
 342	1	5	-0.49751	-2.86425	16.2144	-14.8207
 343	1	1	0.228748	-3.5127	7.16811	-11.5744
 344	1	1	-0.221817	-2.78249	8.10894	-10.8334
 345	1	1	-0.090782	-3.11846	5.82176	-11.591
 346	1	2	0.148235	-3.7002	5.10087	-12.1612
 347	1	1	-0.079307	-1.64153	7.7042	-10.1205
 348	1	1	-0.073979	-1.97437	5.40646	-10.8804
 349	1	1	0.031918	-1.22843	6.36094	-10.1559
 350	1	3	-0.235323	-0.124129	5.99175	-9.42829
 351	1	1	0.139602	1.17306	6.04002	-9.88726
 352	1	1	-0.107898	2.14538	5.30536	-9.19292
 353	1	1	-0.094745	1.54557	6.79155	-11.0164
 354	1	1	-0.163657	3.49016	5.33982	-9.60192
 355	1	1	-0.253044	2.89261	6.83538	-11.4195
 356	1	2	0.134377	1.8482	4.70773	-8.33497
 357	1	1	-0.00458	3.88576	6.12976	-10.7
 358	1	2	0.169279	0.796681	7.34214	-11.5794
 359	1	2	0.169448	4.23509	4.76307	-9.05634
 360	1	1	-0.039038	-3.44327	8.84977	-13.9637
 361	1	1	-0.435237	-3.50799	9.64883	-15.1193
 362	1	1	0.120439	-4.62959	8.41474	-13.3425
 363	1	1	0.323935	-4.74194	10.0253	-15.6946
 364	1	1	-0.012898	-5.86431	8.77972	-13.896
 365	1	2	0.208311	-2.58496	9.96111	-15.6067
 366	1	1	-0.466417	-5.92085	9.5694	-15.0584
 367	1	3	-0.302302	-4.63368	7.55869	-12.2626
 368	1	2	0.13972	-6.78016	8.4201	-13.4328
 369	1	2	0.217142	-6.89457	9.78343	-15.4857
 370	1	2	0.144775	-2.47195	8.55331	-13.5754
 371	1	2	0.161927	-3.11243	9.1439	-10.806
 372	1	2	0.152343	-1.07922	8.4251	-9.53219
 373	1	4	1.02665	-1.50167	3.66496	-10.9414
 374	1	5	-0.487155	-0.745654	3.26355	-9.75763
 375	1	5	-0.529829	-2.52057	2.80124	-11.5343
 376	1	6	-0.538439	-0.269703	3.68306	-11.9803
 377	1	7	0.447385	0.374502	3.43935	-11.2974
 378	1	2	0.176748	3.1564	7.41277	-12.3044
 379	1	8	0.492969	5.34482	6.1895	-11.0949
 380	1	5	-0.49751	6.08345	5.23472	-10.8941
 381	1	1	0.228748	-10.1996	17.498	-18.9735
 382	1	1	-0.221817	-8.98082	16.9808	-19.4346
 383	1	1	-0.090782	-11.1682	16.643	-18.4237
 384	1	2	0.148235	-12.1053	17.0625	-18.0683
 385	1	1	-0.079307	-8.73922	15.5977	-19.3713
 386	1	1	-0.073979	-10.9249	15.2561	-18.3382
 387	1	1	0.031918	-9.71202	14.7368	-18.8296
 388	1	3	-0.235323	-9.5135	13.3791	-18.8566
 389	1	1	0.139602	-8.37375	12.7815	-18.3888
 390	1	1	-0.107898	-8.07739	12.7922	-17.0173
 391	1	1	-0.094745	-7.51895	12.134	-19.2902
 392	1	1	-0.163657	-6.91232	12.1604	-16.5467
 393	1	1	-0.253044	-6.3524	11.5075	-18.8204
 394	1	2	0.134377	-8.75107	13.2892	-16.3242
 395	1	1	-0.00458	-6.0434	11.4983	-17.4433
 396	1	2	0.169279	-7.7596	12.1321	-20.3499
 397	1	2	0.169448	-6.67985	12.201	-15.4844
 398	1	1	-0.039038	-12.1632	20.3634	-19.8647
 399	1	1	-0.435237	-13.0534	20.7992	-20.867
 400	1	1	0.120439	-11.2782	19.3037	-20.1197
 401	1	1	0.323935	-13.0776	20.1861	-22.1379
 402	1	1	-0.012898	-11.2484	18.7228	-21.4
 403	1	2	0.208311	-13.7551	21.6043	-20.6583
 404	1	1	-0.466417	-12.1354	19.1639	-22.3966
 405	1	3	-0.302302	-10.4648	18.838	-19.1105
 406	1	2	0.13972	-10.5443	17.9247	-21.6199
 407	1	2	0.217142	-12.0966	18.7029	-23.3808
 408	1	2	0.144775	-12.1728	20.8243	-18.88
 409	1	2	0.161927	-8.24143	17.651	-19.864
 410	1	2	0.152343	-7.80999	15.1898	-19.7617
 411	1	4	1.02665	-12.1498	14.1675	-17.5821
 412	1	5	-0.487155	-11.8584	12.7522	-17.3699
 413	1	5	-0.529829	-13.1176	14.9146	-16.79
 414	1	6	-0.538439	-13.4462	14.3382	-18.4055
 415	1	7	0.447385	-13.6025	14.7645	-17.4843
 416	1	2	0.176748	-5.67465	11.0247	-19.5234
 417	1	8	0.492969	-4.76246	10.8426	-16.9798
 418	1	5	-0.49751	-3.7626	10.9455	-17.6796
 419	1	1	0.228748	-19.119	13.8339	-25.7917
 420	1	1	-0.221817	-17.8671	13.6209	-25.1993
 421	1	1	-0.090782	-19.2916	14.8712	-26.7202
 422	1	2	0.148235	-20.2623	15.0059	-27.189
 423	1	1	-0.079307	-16.7909	14.4657	-25.5153
 424	1	1	-0.073979	-18.219	15.7334	-27.0324
 425	1	1	0.031918	-16.9744	15.5486	-26.3947
 426	1	3	-0.235323	-15.9294	16.4068	-26.6438
 427	1	1	0.139602	-15.5584	17.4157	-25.7798
 428	1	1	-0.107898	-15.2164	17.1424	-24.4446
 429	1	1	-0.094745	-15.479	18.736	-26.2532
 430	1	1	-0.163657	-14.776	18.1722	-23.6001
 431	1	1	-0.253044	-15.0414	19.7723	-25.404
 432	1	2	0.134377	-15.2692	16.1331	-24.0577
 433	1	1	-0.00458	-14.6511	19.495	-24.0768
 434	1	2	0.169279	-15.7541	18.9489	-27.2838
 435	1	2	0.169448	-14.5216	17.9301	-22.5707
 436	1	1	-0.039038	-20.8182	14.2967	-23.4773
 437	1	1	-0.435237	-21.4066	14.3288	-22.2024
 438	1	1	0.120439	-20.7456	13.0867	-24.1881
 439	1	1	0.323935	-21.9386	13.1675	-21.5992
 440	1	1	-0.012898	-21.2571	11.9158	-23.6046
 441	1	2	0.208311	-21.4502	15.2692	-21.6573
 442	1	1	-0.466417	-21.8336	11.9518	-22.3172
 443	1	3	-0.302302	-20.1795	13.0344	-25.4439
 444	1	2	0.13972	-21.1851	10.9779	-24.1499
 445	1	2	0.217142	-22.1715	11.0248	-21.8611
 446	1	2	0.144775	-20.4238	15.2114	-23.9117
 447	1	2	0.161927	-17.7384	12.8019	-24.4975
 448	1	2	0.152343	-15.8155	14.2831	-25.0752
 449	1	4	1.02665	-18.4676	17.0429	-28.2493
 450	1	5	-0.487155	-17.2756	17.5675	-28.911
 451	1	5	-0.529829	-19.7033	16.8041	-28.9883
 452	1	6	-0.538439	-19.0476	18.2579	-27.372
 453	1	7	0.447385	-19.8593	18.2817	-27.9076
 454	1	2	0.176748	-14.9828	20.7922	-25.7812
 455	1	8	0.492969	-14.1057	20.5864	-23.1827
 456	1	5	-0.49751	-14.517	21.7355	-23.2723
 457	1	1	0.228748	-28.5047	6.32511	-19.44
 458	1	1	-0.221817	-29.2176	7.49925	-19.1437
 459	1	1	-0.090782	-27.1096	6.31477	-19.3321
 460	1	2	0.148235	-26.5761	5.39149	-19.5364
 461	1	1	-0.079307	-28.5223	8.6552	-18.7463
 462	1	1	-0.073979	-26.4047	7.45781	-18.9093
 463	1	1	0.031918	-27.1214	8.64381	-18.6294
 464	1	3	-0.235323	-26.5339	9.76031	-18.0845
 465	1	1	0.139602	-25.5861	10.5706	-18.6675
 466	1	1	-0.107898	-24.7511	11.2968	-17.8109
 467	1	1	-0.094745	-25.4529	10.7181	-20.0601
 468	1	1	-0.163657	-23.7695	12.1488	-18.3348
 469	1	1	-0.253044	-24.4711	11.5835	-20.588
 470	1	2	0.134377	-24.8597	11.1858	-16.7359
 471	1	1	-0.00458	-23.602	12.2964	-19.7264
 472	1	2	0.169279	-26.1141	10.17	-20.7258
 473	1	2	0.169448	-23.1201	12.6972	-17.6543
 474	1	1	-0.039038	-31.1903	3.94032	-19.628
 475	1	1	-0.435237	-32.4631	3.65729	-20.155
 476	1	1	0.120439	-30.4148	4.97018	-20.1757
 477	1	1	0.323935	-32.9875	4.38126	-21.2492
 478	1	1	-0.012898	-30.9224	5.72281	-21.2471
 479	1	2	0.208311	-33.0421	2.83531	-19.7386
 480	1	1	-0.466417	-32.1968	5.43314	-21.7753
 481	1	3	-0.302302	-29.1262	5.13224	-19.725
 482	1	2	0.13972	-30.2963	6.48332	-21.7088
 483	1	2	0.217142	-32.5218	5.98163	-22.6508
 484	1	2	0.144775	-30.7842	3.34317	-18.8152
 485	1	2	0.161927	-30.3024	7.50642	-19.1776
 486	1	2	0.152343	-29.0693	9.55649	-18.4803
 487	1	4	1.02665	-24.6245	7.27952	-18.6891
 488	1	5	-0.487155	-24.0473	8.1788	-17.6876
 489	1	5	-0.529829	-24.2151	5.87718	-18.7124
 490	1	6	-0.538439	-24.048	7.86955	-20.0828
 491	1	7	0.447385	-23.1589	8.14216	-19.7477
 492	1	2	0.176748	-24.4101	11.7143	-21.6658
 493	1	8	0.492969	-22.5524	13.2768	-20.2102
 494	1	5	-0.49751	-22.2773	14.2363	-19.4982
 495	1	1	0.228748	-33.744	8.25467	-29.4291
 496	1	1	-0.221817	-33.3659	8.31457	-28.081
 497	1	1	-0.090782	-34.9522	7.64115	-29.792
 498	1	2	0.148235	-35.2273	7.58327	-30.8423
 499	1	1	-0.079307	-34.2092	7.78506	-27.0886
 500	1	1	-0.073979	-35.8035	7.10726	-28.8032
 501	1	1	0.031918	-35.4332	7.18227	-27.4431
 502	1	3	-0.235323	-36.2778	6.68395	-26.4724
 503	1	1	0.139602	-35.8363	6.03531	-25.344
 504	1	1	-0.107898	-35.5543	6.75582	-24.1718
 505	1	1	-0.094745	-35.6946	4.64027	-25.3582
 506	1	1	-0.163657	-35.0654	6.08795	-23.0335
 507	1	1	-0.253044	-35.2122	3.97232	-24.2195
 508	1	2	0.134377	-35.714	7.83037	-24.1524
 509	1	1	-0.00458	-34.858	4.6917	-23.059
 510	1	2	0.169279	-35.9558	4.07907	-26.2522
 511	1	2	0.169448	-34.8551	6.65392	-22.1281
 512	1	1	-0.039038	-34.2265	10.7775	-30.8824
 513	1	1	-0.435237	-34.5046	11.8458	-31.7576
 514	1	1	0.120439	-33.2472	9.82609	-31.2223
 515	1	1	0.323935	-33.8191	12.0004	-32.9844
 516	1	1	-0.012898	-32.5648	9.95691	-32.4412
 517	1	2	0.208311	-35.2661	12.5753	-31.4879
 518	1	1	-0.466417	-32.8617	11.0151	-33.3221
 519	1	3	-0.302302	-32.9095	8.78276	-30.384
 520	1	2	0.13972	-31.8046	9.22695	-32.7016
 521	1	2	0.217142	-32.35	11.0568	-34.279
 522	1	2	0.144775	-34.7614	10.6995	-29.9393
 523	1	2	0.161927	-32.4259	8.7886	-27.8126
 524	1	2	0.152343	-33.9163	7.85842	-26.046
 525	1	4	1.02665	-37.3474	6.33495	-29.319
 526	1	5	-0.487155	-38.4603	6.93577	-28.5918
 527	1	5	-0.529829	-37.4188	6.07403	-30.7551
 528	1	6	-0.538439	-37.3698	4.91031	-28.5651
 529	1	7	0.447385	-38.1098	5.18637	-27.996
 530	1	2	0.176748	-35.0986	2.88884	-24.2396
 531	1	8	0.492969	-34.3155	3.95014	-21.8615
 532	1	5	-0.49751	-34.8278	2.88432	-21.544
 533	1	1	0.228748	-28.3191	12.9011	-40.4489
 534	1	1	-0.221817	-29.6327	12.5461	-40.1071
 535	1	1	-0.090782	-27.7383	14.0552	-39.9068
 536	1	2	0.148235	-26.7198	14.3177	-40.1819
 537	1	1	-0.079307	-30.3631	13.3419	-39.2073
 538	1	1	-0.073979	-28.4651	14.8603	-39.0075
 539	1	1	0.031918	-29.7795	14.4956	-38.6476
 540	1	3	-0.235323	-30.4953	15.2762	-37.7666
 541	1	1	0.139602	-31.3605	14.7563	-36.8345
 542	1	1	-0.107898	-32.7418	14.9273	-36.9952
 543	1	1	-0.094745	-30.8661	14.0893	-35.7033
 544	1	1	-0.163657	-33.6307	14.3964	-36.0438
 545	1	1	-0.253044	-31.7557	13.5744	-34.7402
 546	1	2	0.134377	-33.1185	15.4731	-37.8561
 547	1	1	-0.00458	-33.156	13.6939	-34.9132
 548	1	2	0.169279	-29.7908	13.9955	-35.5686
 549	1	2	0.169448	-34.7015	14.5406	-36.178
 550	1	1	-0.039038	-26.7811	9.99319	-42.0669
 551	1	1	-0.435237	-26.3703	8.67133	-41.8055
 552	1	1	0.120439	-27.2141	10.8208	-41.0193
 553	1	1	0.323935	-26.3893	8.1467	-40.4959
 554	1	1	-0.012898	-27.2141	10.3211	-39.7033
 555	1	2	0.208311	-26.0264	8.03931	-42.6214
 556	1	1	-0.466417	-26.8119	8.99817	-39.4486
 557	1	3	-0.302302	-27.5908	12.1155	-41.3074
 558	1	2	0.13972	-27.5121	10.9584	-38.8746
 559	1	2	0.217142	-26.8006	8.64476	-38.4188
 560	1	2	0.144775	-26.7617	10.3857	-43.0807
 561	1	2	0.161927	-30.0792	11.6579	-40.5444
 562	1	2	0.152343	-31.3835	13.0692	-38.9513
 563	1	4	1.02665	-27.6721	16.3217	-38.3171
 564	1	5	-0.487155	-26.2496	16.4252	-38.6336
 565	1	5	-0.529829	-28.5705	17.4672	-38.3995
 566	1	6	-0.538439	-27.8122	16.1228	-36.7273
 567	1	7	0.447385	-28.4634	16.8471	-36.6884
 568	1	2	0.176748	-31.3446	13.1071	-33.8479
 569	1	8	0.492969	-34.1605	13.1699	-33.9017
 570	1	5	-0.49751	-35.2623	13.7006	-33.8312
 571	1	1	0.228748	-31.6886	5.18019	-33.5297
 572	1	1	-0.221817	-31.442	3.95261	-34.1602
 573	1	1	-0.090782	-30.7211	6.1924	-33.5608
 574	1	2	0.148235	-30.9183	7.1236	-33.0393
 575	1	1	-0.079307	-30.2195	3.73699	-34.8203
 576	1	1	-0.073979	-29.4902	5.98807	-34.2164
 577	1	1	0.031918	-29.2433	4.74833	-34.8527
 578	1	3	-0.235323	-28.0245	4.44702	-35.4208
 579	1	1	0.139602	-27.5817	4.90827	-36.6425
 580	1	1	-0.107898	-28.4296	5.58861	-37.535
 581	1	1	-0.094745	-26.2271	4.73125	-36.9683
 582	1	1	-0.163657	-27.9036	6.15316	-38.7086
 583	1	1	-0.253044	-25.7051	5.28087	-38.1528
 584	1	2	0.134377	-29.4811	5.72562	-37.3011
 585	1	1	-0.00458	-26.5313	6.03149	-39.0127
 586	1	2	0.169279	-25.5753	4.18903	-36.2881
 587	1	2	0.169448	-28.5621	6.71099	-39.3709
 588	1	1	-0.039038	-31.998	4.57583	-30.6995
 589	1	1	-0.435237	-32.2292	3.95145	-29.4614
 590	1	1	0.120439	-33.0602	4.78071	-31.5989
 591	1	1	0.323935	-33.5216	3.51235	-29.0946
 592	1	1	-0.012898	-34.3528	4.36431	-31.244
 593	1	2	0.208311	-31.3878	3.78227	-28.7947
 594	1	1	-0.466417	-34.5737	3.72178	-30.0105
 595	1	3	-0.302302	-32.8512	5.37051	-32.8261
 596	1	2	0.13972	-35.178	4.52437	-31.9354
 597	1	2	0.217142	-35.5745	3.3763	-29.757
 598	1	2	0.144775	-30.9927	4.89573	-30.9602
 599	1	2	0.161927	-32.1922	3.1676	-34.116
 600	1	2	0.152343	-30.0149	2.77676	-35.2889
 601	1	4	1.02665	-28.2613	7.30746	-34.1413
 602	1	5	-0.487155	-28.0673	7.77987	-35.5097
 603	1	5	-0.529829	-28.5719	8.18333	-33.0131
 604	1	6	-0.538439	-26.9134	6.46677	-33.8019
 605	1	7	0.447385	-27.0853	5.70907	-34.3848
 606	1	2	0.176748	-24.6482	5.16352	-38.3894
 607	1	8	0.492969	-25.9527	6.71792	-40.2242
 608	1	5	-0.49751	-25.1288	6.14872	-40.9277
 609	1	1	0.228748	-27.562	1.39771	-21.3468
 610	1	1	-0.221817	-28.9374	1.13283	-21.3943
 611	1	1	-0.090782	-27.0455	2.53023	-21.9999
 612	1	2	0.148235	-25.9798	2.73955	-21.96
 613	1	1	-0.079307	-29.7967	1.98272	-22.1108
 614	1	1	-0.073979	-27.9045	3.39838	-22.7009
 615	1	1	0.031918	-29.2745	3.08577	-22.811
 616	1	3	-0.235323	-30.0954	3.91746	-23.5367
 617	1	1	0.139602	-30.9837	3.58448	-24.5371
 618	1	1	-0.107898	-31.3227	2.26106	-24.8827
 619	1	1	-0.094745	-31.5502	4.64962	-25.2527
 620	1	1	-0.163657	-32.2501	2.01696	-25.9113
 621	1	1	-0.253044	-32.4428	4.40615	-26.3098
 622	1	2	0.134377	-30.8757	1.41706	-24.3707
 623	1	1	-0.00458	-32.8024	3.08436	-26.6451
 624	1	2	0.169279	-31.2771	5.66685	-24.9863
 625	1	2	0.169448	-32.5237	0.993244	-26.1613
 626	1	1	-0.039038	-24.6104	-0.130833	-19.8304
 627	1	1	-0.435237	-23.4498	0.145622	-19.0836
 628	1	1	0.120439	-25.6148	0.839506	-19.9613
 629	1	1	0.323935	-23.2591	1.39757	-18.4606
 630	1	1	-0.012898	-25.461	2.07993	-19.315
 631	1	2	0.208311	-22.6834	-0.618577	-18.9729
 632	1	1	-0.466417	-24.2897	2.35869	-18.5864
 633	1	3	-0.302302	-26.7535	0.515279	-20.668
 634	1	2	0.13972	-26.2535	2.82144	-19.3655
 635	1	2	0.217142	-24.1974	3.3225	-18.089
 636	1	2	0.144775	-24.7428	-1.10122	-20.3027
 637	1	2	0.161927	-29.3306	0.266253	-20.8708
 638	1	2	0.152343	-30.8666	1.79106	-22.118
 639	1	4	1.02665	-27.2201	4.90729	-23.4116
 640	1	5	-0.487155	-25.8044	5.10695	-23.1159
 641	1	5	-0.529829	-28.1747	6.01328	-23.3544
 642	1	6	-0.538439	-27.3423	4.66866	-24.9962
 643	1	7	0.447385	-27.9503	5.42243	-25.0755
 644	1	2	0.176748	-32.8709	5.24298	-26.8581
 645	1	8	0.492969	-33.7639	2.8104	-27.7709
 646	1	5	-0.49751	-34.6887	2.0263	-27.6068
 647	1	1	0.228748	-16.9601	8.98926	-17.9182
 648	1	1	-0.221817	-16.9163	7.77048	-17.219
 649	1	1	-0.090782	-18.1928	9.55861	-18.2569
 650	1	2	0.148235	-18.208	10.4939	-18.8101
 651	1	1	-0.079307	-18.114	7.12852	-16.8558
 652	1	1	-0.073979	-19.3956	8.9257	-17.8932
 653	1	1	0.031918	-19.3542	7.70312	-17.1931