pySIMM System Object

1674 atoms
1805 bonds
2904 angles
4264 dihedrals
484 impropers

9 atom types
10 bond types
15 angle types
5 dihedral types
2 improper types

-187.365364 187.365364 xlo xhi
-187.365364 187.365364 ylo yhi
-187.365364 187.365364 zlo zhi

Masses

   1	12.01	# ca
   2	1.008	# ha
   3	16.0	# os
   4	32.06	# sy
   5	16.0	# o
   6	16.0	# oh
   7	1.008	# ho
   8	12.01	# c
   9	1.008	# h4

Pair Coeffs

   1	0.086	3.3996695084235347	# ca
   2	0.015	2.59964245953351	# ha
   3	0.17	3.0000123434657784	# os
   4	0.25	3.563594872561357	# sy
   5	0.21	2.959921901149463	# o
   6	0.2104	3.0664733878390478	# oh
   7	1e-05	0.0	# ho
   8	0.086	3.3996695084235347	# c
   9	0.015	2.5105525877194763	# h4

Bond Coeffs

   1	345.8	1.086	# ca,ha
   2	243.4	1.7909	# ca,sy
   3	289.8	1.6497	# oh,sy
   4	637.7	1.2183	# c,o
   5	376.6	1.3696	# ca,os
   6	371.4	0.973	# ho,oh
   7	461.1	1.3984	# ca,ca
   8	345.9	1.4906	# c,ca
   9	310.7	1.1121	# c,h4
  10	493.0	1.466	# o,sy

Angle Coeffs

   1	48.18	119.88	# ca,ca,ha
   2	72.54	121.41	# o,sy,o
   3	72.32	106.68	# o,sy,oh
   4	61.48	119.42	# ca,ca,sy
   5	64.28	120.33	# c,ca,ca
   6	69.58	119.2	# ca,ca,os
   7	68.72	122.6	# ca,c,o
   8	54.22	120.7	# h4,c,o
   9	46.43	115.14	# ca,c,h4
  10	44.17	106.42	# ho,oh,sy
  11	65.46	101.3	# ca,sy,oh
  12	65.77	108.35	# ca,sy,o
  13	63.48	119.89	# ca,os,ca
  14	66.62	120.02	# ca,ca,ca
  15	63.0	118.11	# ca,c,ca

Dihedral Coeffs

   1	1	1.3	2	180	# X,ca,sy,X
   2	1	9.5	1	180	# X,oh,sy,X
   3	1	3.625	2	180	# X,ca,ca,X
   4	1	1.0	2	180	# X,c,ca,X
   5	1	0.9	2	180	# X,ca,os,X

Improper Coeffs

   1	10.5	-1	2	# c,X,X,o
   2	1.1	-1	2	# ca,X,X,ha

Atoms

   1	1	1	0.228748	-42.4584	4.95061	-13.39
   2	1	1	-0.221817	-42.2234	4.78949	-12.0171
   3	1	1	-0.090782	-42.4093	6.23975	-13.956
   4	1	2	0.148235	-42.5984	6.38046	-15.0155
   5	1	1	-0.079307	-41.9198	5.90542	-11.2164
   6	1	1	-0.073979	-42.1215	7.36371	-13.1604
   7	1	1	0.031918	-41.8608	7.18908	-11.7868
   8	1	3	-0.235323	-41.5255	8.25765	-10.9912
   9	1	1	0.139602	-40.235	8.53491	-10.5876
  10	1	1	-0.107898	-39.1186	7.89304	-11.1594
  11	1	1	-0.094745	-40.0372	9.53298	-9.62129
  12	1	1	-0.163657	-37.8174	8.24768	-10.7617
  13	1	1	-0.253044	-38.7352	9.89071	-9.2259
  14	1	2	0.134377	-39.2516	7.13566	-11.9259
  15	1	1	-0.00458	-37.6143	9.24997	-9.7931
  16	1	2	0.169279	-40.8992	10.0443	-9.19876
  17	1	2	0.169448	-36.9633	7.75494	-11.2228
  18	1	1	-0.039038	-43.8199	4.25851	-16.2474
  19	1	1	-0.435237	-43.723	4.48944	-17.6316
  20	1	1	0.120439	-42.6831	3.86811	-15.5235
  21	1	1	0.323935	-42.4963	4.31931	-18.3151
  22	1	1	-0.012898	-41.4694	3.64499	-16.192
  23	1	2	0.208311	-44.6059	4.81509	-18.1779
  24	1	1	-0.466417	-41.3829	3.85961	-17.5803
  25	1	3	-0.302302	-42.7249	3.83221	-14.1513
  26	1	2	0.13972	-40.5934	3.34249	-15.6236
  27	1	2	0.217142	-40.4379	3.7061	-18.0973
  28	1	2	0.144775	-44.7582	4.42535	-15.7229
  29	1	2	0.161927	-42.2681	3.79531	-11.5816
  30	1	2	0.152343	-41.7255	5.7805	-10.1538
  31	1	4	1.02665	-42.1	8.98669	-13.9435
  32	1	5	-0.487155	-42.1666	8.90327	-15.4025
  33	1	5	-0.529829	-42.9826	9.87806	-13.1917
  34	1	6	-0.538439	-40.6515	9.59716	-13.5499
  35	1	7	0.447385	-40.9233	10.0235	-12.7066
  36	1	2	0.176748	-38.5904	10.6739	-8.48326
  37	1	8	0.492969	-36.2152	9.6265	-9.38669
  38	1	5	-0.49751	-35.9478	10.5307	-8.61086
  39	1	1	0.228748	-48.0006	11.2642	-19.3064
  40	1	1	-0.221817	-46.829	11.8977	-19.7495
  41	1	1	-0.090782	-48.2626	9.93794	-19.6728
  42	1	2	0.148235	-49.1847	9.47174	-19.3349
  43	1	1	-0.079307	-45.9137	11.1923	-20.5494
  44	1	1	-0.073979	-47.3496	9.21674	-20.4682
  45	1	1	0.031918	-46.1619	9.85462	-20.9018
  46	1	3	-0.235323	-45.2268	9.22134	-21.6876
  47	1	1	0.139602	-44.4436	8.18669	-21.2336
  48	1	1	-0.107898	-44.0179	8.12761	-19.8961
  49	1	1	-0.094745	-44.1285	7.13988	-22.1123
  50	1	1	-0.163657	-43.3247	6.99896	-19.429
  51	1	1	-0.253044	-43.4393	6.00702	-21.6435
  52	1	2	0.134377	-44.2436	8.94329	-19.2146
  53	1	1	-0.00458	-43.0577	5.90856	-20.2887
  54	1	2	0.169279	-44.4618	7.19627	-23.1464
  55	1	2	0.169448	-43.0034	6.98042	-18.3895
  56	1	1	-0.039038	-49.4442	13.7559	-17.0807
  57	1	1	-0.435237	-49.1683	14.5239	-15.9339
  58	1	1	0.120439	-48.6123	12.6813	-17.427
  59	1	1	0.323935	-48.0587	14.2379	-15.1104
  60	1	1	-0.012898	-47.5201	12.3589	-16.6003
  61	1	2	0.208311	-49.8221	15.3515	-15.667
  62	1	1	-0.466417	-47.2462	13.1327	-15.4567
  63	1	3	-0.302302	-48.9232	11.9371	-18.5434
  64	1	2	0.13972	-46.8962	11.5003	-16.8358
  65	1	2	0.217142	-46.415	12.8513	-14.8134
  66	1	2	0.144775	-50.3043	13.9858	-17.705
  67	1	2	0.161927	-46.642	12.9346	-19.4857
  68	1	2	0.152343	-45.0075	11.6783	-20.9032
  69	1	4	1.02665	-47.7853	7.51687	-20.9024
  70	1	5	-0.487155	-49.1368	7.14037	-20.4957
  71	1	5	-0.529829	-47.2328	7.13124	-22.1962
  72	1	6	-0.538439	-46.7911	6.62729	-20.0004
  73	1	7	0.447385	-46.3087	6.32631	-20.7915
  74	1	2	0.176748	-43.2137	5.18967	-22.3277
  75	1	8	0.492969	-42.3617	4.6633	-19.7861
  76	1	5	-0.49751	-41.6641	3.99392	-20.5367
  77	1	1	0.228748	-39.1371	14.2446	-14.2381
  78	1	1	-0.221817	-39.4424	15.6092	-14.3325
  79	1	1	-0.090782	-39.9133	13.4037	-13.4239
  80	1	2	0.148235	-39.6671	12.3475	-13.3671
  81	1	1	-0.079307	-40.5213	16.1371	-13.6026
  82	1	1	-0.073979	-41.003	13.921	-12.6948
  83	1	1	0.031918	-41.3046	15.2957	-12.7945
  84	1	3	-0.235323	-42.3839	15.8376	-12.1424
  85	1	1	0.139602	-43.6764	15.6746	-12.5888
  86	1	1	-0.107898	-43.9639	15.495	-13.9538
  87	1	1	-0.094745	-44.7222	15.6842	-11.6552
  88	1	1	-0.163657	-45.2902	15.3085	-14.3771
  89	1	1	-0.253044	-46.0512	15.5003	-12.0788
  90	1	2	0.134377	-43.162	15.498	-14.6853
  91	1	1	-0.00458	-46.3485	15.2881	-13.4417
  92	1	2	0.169279	-44.4905	15.8129	-10.601
  93	1	2	0.169448	-45.4891	15.1876	-15.4388
  94	1	1	-0.039038	-37.1598	11.5192	-14.9179
  95	1	1	-0.435237	-36.2802	10.5807	-14.3433
  96	1	1	0.120439	-37.2111	12.829	-14.4171
  97	1	1	0.323935	-35.4239	10.9398	-13.2799
  98	1	1	-0.012898	-36.3888	13.1969	-13.341
  99	1	2	0.208311	-36.2518	9.56327	-14.7257
 100	1	1	-0.466417	-35.505	12.2591	-12.7781
 101	1	3	-0.302302	-38.083	13.7413	-14.9599
 102	1	2	0.13972	-36.4403	14.2093	-12.9469
 103	1	2	0.217142	-34.8857	12.5574	-11.9333
 104	1	2	0.144775	-37.8115	11.2359	-15.741
 105	1	2	0.161927	-38.8385	16.2512	-14.9672
 106	1	2	0.152343	-40.7665	17.1943	-13.6695
 107	1	4	1.02665	-41.9788	12.8038	-11.6652
 108	1	5	-0.487155	-41.3116	11.5006	-11.6353
 109	1	5	-0.529829	-42.519	13.3941	-10.4432
 110	1	6	-0.538439	-43.2672	12.4856	-12.5984
 111	1	7	0.447385	-43.1588	11.5081	-12.6675
 112	1	2	0.176748	-46.856	15.5049	-11.3457
 113	1	8	0.492969	-47.7807	15.0847	-13.8799
 114	1	5	-0.49751	-48.6909	15.6391	-13.2774
 115	1	1	0.228748	-28.627	11.8817	-6.40587
 116	1	1	-0.221817	-27.77	11.3748	-7.38994
 117	1	1	-0.090782	-29.8697	12.4267	-6.76738
 118	1	2	0.148235	-30.5241	12.8096	-5.98861
 119	1	1	-0.079307	-28.1443	11.4323	-8.74164
 120	1	1	-0.073979	-30.2472	12.5149	-8.12491
 121	1	1	0.031918	-29.3766	11.9939	-9.114
 122	1	3	-0.235323	-29.6576	12.0385	-10.46
 123	1	1	0.139602	-30.7471	11.4366	-11.0478
 124	1	1	-0.107898	-31.3262	10.2679	-10.5228
 125	1	1	-0.094745	-31.3094	12.0431	-12.1785
 126	1	1	-0.163657	-32.512	9.7594	-11.0833
 127	1	1	-0.253044	-32.4916	11.5344	-12.7415
 128	1	2	0.134377	-30.8876	9.7859	-9.65453
 129	1	1	-0.00458	-33.1334	10.4132	-12.168
 130	1	2	0.169279	-30.8523	12.9451	-12.5763
 131	1	2	0.169448	-32.9784	8.88208	-10.6419
 132	1	1	-0.039038	-28.2311	14.2261	-4.6479
 133	1	1	-0.435237	-28.0054	15.2744	-3.73537
 134	1	1	0.120439	-28.0288	12.8884	-4.25208
 135	1	1	0.323935	-27.544	15.0221	-2.42635
 136	1	1	-0.012898	-27.5782	12.6238	-2.9495
 137	1	2	0.208311	-28.1847	16.3039	-4.03864
 138	1	1	-0.466417	-27.3318	13.6765	-2.04853
 139	1	3	-0.302302	-28.233	11.8113	-5.09211
 140	1	2	0.13972	-27.4204	11.5925	-2.64277
 141	1	2	0.217142	-26.9995	13.4403	-1.03897
 142	1	2	0.144775	-28.5638	14.4625	-5.65408
 143	1	2	0.161927	-26.8152	10.9465	-7.09955
 144	1	2	0.152343	-27.4783	11.0485	-9.51043
 145	1	4	1.02665	-31.8006	13.3534	-8.52626
 146	1	5	-0.487155	-31.8452	14.0273	-9.82179
 147	1	5	-0.529829	-32.3324	14.0019	-7.3314
 148	1	6	-0.538439	-32.8732	12.1525	-8.60904
 149	1	7	0.447385	-33.4709	12.5409	-7.94883
 150	1	2	0.176748	-32.9235	12.0433	-13.6007
 151	1	8	0.492969	-34.4684	9.92356	-12.6811
 152	1	5	-0.49751	-34.8225	8.76512	-12.493
 153	1	1	0.228748	-20.4646	12.3486	2.15196
 154	1	1	-0.221817	-20.0699	13.6871	2.28027
 155	1	1	-0.090782	-21.8323	12.0174	2.22123
 156	1	2	0.148235	-22.1493	10.9841	2.1244
 157	1	1	-0.079307	-21.0368	14.6936	2.45004
 158	1	1	-0.073979	-22.8075	13.0137	2.41466
 159	1	1	0.031918	-22.4015	14.364	2.4995
 160	1	3	-0.235323	-23.3102	15.3946	2.554
 161	1	1	0.139602	-24.2235	15.6389	1.54983
 162	1	1	-0.107898	-24.0169	15.1691	0.239218
 163	1	1	-0.094745	-25.4047	16.3284	1.86095
 164	1	1	-0.163657	-25.0087	15.3469	-0.738077
 165	1	1	-0.253044	-26.3914	16.5228	0.876874
 166	1	2	0.134377	-23.1004	14.6472	-0.0190379
 167	1	1	-0.00458	-26.2157	16.0062	-0.423348
 168	1	2	0.169279	-25.5634	16.6781	2.87751
 169	1	2	0.169448	-24.8367	14.9651	-1.74193
 170	1	1	-0.039038	-20.0775	9.54275	0.526642
 171	1	1	-0.435237	-20.5849	8.23654	0.395628
 172	1	1	0.120439	-19.8099	10.0636	1.80113
 173	1	1	0.323935	-20.8315	7.42791	1.52697
 174	1	1	-0.012898	-20.0294	9.27428	2.93892
 175	1	2	0.208311	-20.8222	7.84644	-0.592061
 176	1	1	-0.466417	-20.5447	7.97319	2.80228
 177	1	3	-0.302302	-19.4937	11.3915	1.94518
 178	1	2	0.13972	-19.8474	9.69501	3.92562
 179	1	2	0.217142	-20.7617	7.40615	3.70462
 180	1	2	0.144775	-19.9305	10.1697	-0.349471
 181	1	2	0.161927	-19.0149	13.9405	2.22771
 182	1	2	0.152343	-20.7364	15.7362	2.51861
 183	1	4	1.02665	-24.5419	12.5116	2.50618
 184	1	5	-0.487155	-25.451	13.39	3.23607
 185	1	5	-0.529829	-24.9273	11.9315	1.22272
 186	1	6	-0.538439	-24.5197	11.1	3.27785
 187	1	7	0.447385	-24.9501	10.6603	2.52398
 188	1	2	0.176748	-27.3122	17.0459	1.12951
 189	1	8	0.492969	-27.2977	16.1686	-1.4615
 190	1	5	-0.49751	-27.941	17.208	-1.52601
 191	1	1	0.228748	-23.8856	0.281006	7.99668
 192	1	1	-0.221817	-23.123	-0.320297	6.98629
 193	1	1	-0.090782	-23.8423	1.67024	8.18687
 194	1	2	0.148235	-24.4094	2.10727	9.00472
 195	1	1	-0.079307	-22.2641	0.465064	6.20176
 196	1	1	-0.073979	-22.9637	2.46401	7.42073
 197	1	1	0.031918	-22.162	1.84528	6.43758
 198	1	3	-0.235323	-21.141	2.51728	5.81864
 199	1	1	0.139602	-21.2542	3.3244	4.71309
 200	1	1	-0.107898	-22.4473	3.44819	3.97839
 201	1	1	-0.094745	-20.1166	4.04573	4.3271
 202	1	1	-0.163657	-22.4985	4.31676	2.87269
 203	1	1	-0.253044	-20.1665	4.91154	3.22394
 204	1	2	0.134377	-23.3302	2.8842	4.26346
 205	1	1	-0.00458	-21.3688	5.07674	2.5039
 206	1	2	0.169279	-19.2009	3.94087	4.90332
 207	1	2	0.169448	-23.424	4.42226	2.30953
 208	1	1	-0.039038	-22.4604	-0.432344	10.3391
 209	1	1	-0.435237	-21.7026	-0.952007	11.3997
 210	1	1	0.120439	-23.7162	-0.986967	10.0151
 211	1	1	0.323935	-22.1629	-2.0482	12.1609
 212	1	1	-0.012898	-24.2073	-2.05003	10.7906
 213	1	2	0.208311	-20.7522	-0.481983	11.6411
 214	1	1	-0.466417	-23.4375	-2.57251	11.8512
 215	1	3	-0.302302	-24.4661	-0.512377	8.9529
 216	1	2	0.13972	-25.1821	-2.47213	10.5576
 217	1	2	0.217142	-23.8237	-3.39779	12.4459
 218	1	2	0.144775	-22.0593	0.406266	9.77722
 219	1	2	0.161927	-23.1384	-1.40048	6.87274
 220	1	2	0.152343	-21.6149	-0.00171237	5.46474
 221	1	4	1.02665	-22.809	4.2186	7.8155
 222	1	5	-0.487155	-21.7548	5.03808	7.22843
 223	1	5	-0.529829	-24.0502	4.76327	8.35065
 224	1	6	-0.538439	-22.7158	4.28252	9.3579
 225	1	7	0.447385	-23.6211	4.6835	9.08788
 226	1	2	0.176748	-19.2725	5.46574	2.9423
 227	1	8	0.492969	-21.4581	6.05247	1.35865
 228	1	5	-0.49751	-22.1498	5.7874	0.383838
 229	1	1	0.228748	-13.7434	-0.301006	9.61195
 230	1	1	-0.221817	-13.9324	-1.68738	9.70846
 231	1	1	-0.090782	-14.1807	0.52942	10.6625
 232	1	2	0.148235	-14.0301	1.60125	10.619
 233	1	1	-0.079307	-14.5674	-2.23887	10.8354
 234	1	1	-0.073979	-14.7973	-0.0139848	11.8046
 235	1	1	0.031918	-15.0175	-1.40398	11.8729
 236	1	3	-0.235323	-15.6451	-1.96922	12.9549
 237	1	1	0.139602	-17.0079	-2.16342	13.0109
 238	1	1	-0.107898	-17.763	-2.42375	11.8535
 239	1	1	-0.094745	-17.6513	-2.10203	14.2565
 240	1	1	-0.163657	-19.1534	-2.60046	11.9428
 241	1	1	-0.253044	-19.0455	-2.2739	14.3458
 242	1	2	0.134377	-17.2777	-2.48922	10.8853
 243	1	1	-0.00458	-19.8154	-2.50053	13.1863
 244	1	2	0.169279	-17.0654	-1.88873	15.1467
 245	1	2	0.169448	-19.7165	-2.81026	11.0363
 246	1	1	-0.039038	-13.9721	1.91026	7.02788
 247	1	1	-0.435237	-14.1219	3.27588	6.71855
 248	1	1	0.120439	-13.1701	1.51988	8.10981
 249	1	1	0.323935	-13.4896	4.27775	7.48892
 250	1	1	-0.012898	-12.4712	2.49451	8.83892
 251	1	2	0.208311	-14.7678	3.57439	5.89615
 252	1	1	-0.466417	-12.6489	3.85796	8.54847
 253	1	3	-0.302302	-13.1276	0.195234	8.48041
 254	1	2	0.13972	-11.8465	2.19281	9.67349
 255	1	2	0.217142	-12.1549	4.58927	9.18539
 256	1	2	0.144775	-14.4995	1.15249	6.45419
 257	1	2	0.161927	-13.5798	-2.32855	8.90629
 258	1	2	0.152343	-14.7074	-3.31379	10.9156
 259	1	4	1.02665	-15.1948	1.10358	13.1653
 260	1	5	-0.487155	-15.8559	0.536228	14.3381
 261	1	5	-0.529829	-14.0928	2.04828	13.3175
 262	1	6	-0.538439	-16.1915	2.17693	12.502
 263	1	7	0.447385	-15.5398	2.89386	12.6167
 264	1	2	0.176748	-19.538	-2.20743	15.3146
 265	1	8	0.492969	-21.3185	-2.63522	13.2804
 266	1	5	-0.49751	-21.8302	-3.20737	14.2336
 267	1	1	0.228748	-13.0612	8.53224	15.6652
 268	1	1	-0.221817	-13.0116	9.75497	14.9857
 269	1	1	-0.090782	-12.808	7.34306	14.9574
 270	1	2	0.148235	-12.8978	6.38834	15.4653
 271	1	1	-0.079307	-12.654	9.79733	13.6286
 272	1	1	-0.073979	-12.4244	7.36688	13.5978
 273	1	1	0.031918	-12.3601	8.61657	12.9269
 274	1	3	-0.235323	-11.9192	8.78079	11.6314
 275	1	1	0.139602	-12.4357	8.18013	10.5079
 276	1	1	-0.107898	-13.7814	7.78367	10.4282
 277	1	1	-0.094745	-11.5632	7.92076	9.43965
 278	1	1	-0.163657	-14.2252	7.04591	9.31692
 279	1	1	-0.253044	-12.0039	7.18188	8.32952
 280	1	2	0.134377	-14.4609	7.98718	11.2502
 281	1	1	-0.00458	-13.3311	6.71099	8.28079
 282	1	2	0.169279	-10.5294	8.24529	9.50427
 283	1	2	0.169448	-15.2491	6.68076	9.28587
 284	1	1	-0.039038	-12.0839	6.70283	17.9299
 285	1	1	-0.435237	-11.9946	5.6411	18.853
 286	1	1	0.120439	-13.2108	7.54798	17.9319
 287	1	1	0.323935	-13.001	5.43443	19.8241
 288	1	1	-0.012898	-14.1842	7.38709	18.9306
 289	1	2	0.208311	-11.1374	4.97324	18.8262
 290	1	1	-0.466417	-14.0767	6.34416	19.8702
 291	1	3	-0.302302	-13.3836	8.56056	17.008
 292	1	2	0.13972	-15.0288	8.07104	18.964
 293	1	2	0.217142	-14.8398	6.2233	20.636
 294	1	2	0.144775	-11.2894	6.86283	17.2046
 295	1	2	0.161927	-13.2339	10.6713	15.5241
 296	1	2	0.152343	-12.5854	10.7525	13.1136
 297	1	4	1.02665	-12.0112	5.76554	12.8509
 298	1	5	-0.487155	-11.4892	4.93587	13.9367
 299	1	5	-0.529829	-13.1098	5.33472	11.9876
 300	1	6	-0.538439	-10.7435	6.06316	11.8761
 301	1	7	0.447385	-10.3645	6.8806	12.2708
 302	1	2	0.176748	-11.3053	6.94069	7.53052
 303	1	8	0.492969	-13.7604	5.74914	7.21052
 304	1	5	-0.49751	-14.5653	6.10409	6.35907
 305	1	1	0.228748	-12.276	-2.14803	14.8025
 306	1	1	-0.221817	-13.4445	-2.28508	15.5641
 307	1	1	-0.090782	-11.0911	-1.71048	15.4162
 308	1	2	0.148235	-10.185	-1.61893	14.8234
 309	1	1	-0.079307	-13.4368	-1.94328	16.9288
 310	1	1	-0.073979	-11.0789	-1.33751	16.771
 311	1	1	0.031918	-12.2654	-1.44767	17.5288
 312	1	3	-0.235323	-12.3141	-1.08079	18.8538
 313	1	1	0.139602	-12.5327	0.211379	19.2881
 314	1	1	-0.107898	-12.4176	0.482939	20.6586
 315	1	1	-0.094745	-12.8287	1.26212	18.3997
 316	1	1	-0.163657	-12.5549	1.79768	21.138
 317	1	1	-0.253044	-12.9663	2.57802	18.8769
 318	1	2	0.134377	-12.2042	-0.331261	21.3439
 319	1	1	-0.00458	-12.8056	2.86809	20.2522
 320	1	2	0.169279	-12.9326	1.06488	17.3366
 321	1	2	0.169448	-12.4633	1.98974	22.2052
 322	1	1	-0.039038	-10.9882	-2.02095	11.4521
 323	1	1	-0.435237	-10.2281	-1.16095	10.6319
 324	1	1	0.120439	-11.6617	-1.51065	12.5732
 325	1	1	0.323935	-10.1157	0.214532	10.9285
 326	1	1	-0.012898	-11.6244	-0.128694	12.829
 327	1	2	0.208311	-9.68483	-1.56191	9.77931
 328	1	1	-0.466417	-10.8591	0.720453	12.0179
 329	1	3	-0.302302	-12.3073	-2.36514	13.443
 330	1	2	0.13972	-12.1624	0.282825	13.6795
 331	1	2	0.217142	-10.8283	1.78232	12.2575
 332	1	2	0.144775	-11.0312	-3.08719	11.246
 333	1	2	0.161927	-14.357	-2.6301	15.0888
 334	1	2	0.152343	-14.3444	-2.03387	17.5205
 335	1	4	1.02665	-9.53754	-0.696003	17.4466
 336	1	5	-0.487155	-8.43169	-0.753199	16.4901
 337	1	5	-0.529829	-9.80641	0.534382	18.1802
 338	1	6	-0.538439	-9.19085	-1.73274	18.6381
 339	1	7	0.447385	-9.3869	-1.1313	19.3961
 340	1	2	0.176748	-13.2005	3.36269	18.1613
 341	1	8	0.492969	-12.9352	4.27472	20.7992
 342	1	5	-0.49751	-13.0485	4.4624	22.0043
 343	1	1	0.228748	-7.3188	5.36023	17.5025
 344	1	1	-0.221817	-8.3933	4.83071	16.7698
 345	1	1	-0.090782	-6.24271	5.95804	16.8287
 346	1	2	0.148235	-5.42519	6.38235	17.4062
 347	1	1	-0.079307	-8.38066	4.88238	15.3666
 348	1	1	-0.073979	-6.22171	6.00808	15.418
 349	1	1	0.031918	-7.2878	5.45068	14.6832
 350	1	3	-0.235323	-7.26614	5.47195	13.3022
 351	1	1	0.139602	-7.62611	4.39928	12.5082
 352	1	1	-0.107898	-8.06558	4.63128	11.1939
 353	1	1	-0.094745	-7.56714	3.07857	12.9911
 354	1	1	-0.163657	-8.52702	3.56452	10.3982
 355	1	1	-0.253044	-8.04241	2.01666	12.2064
 356	1	2	0.134377	-8.09247	5.64645	10.8097
 357	1	1	-0.00458	-8.56013	2.25418	10.9151
 358	1	2	0.169279	-7.18284	2.87585	13.9866
 359	1	2	0.169448	-8.90891	3.75955	9.39794
 360	1	1	-0.039038	-7.24518	2.9291	19.1739
 361	1	1	-0.435237	-7.66313	1.78121	19.866
 362	1	1	0.120439	-7.69142	4.19756	19.5812
 363	1	1	0.323935	-8.543	1.86682	20.9637
 364	1	1	-0.012898	-8.53159	4.30923	20.7021
 365	1	2	0.208311	-7.34582	0.802091	19.5151
 366	1	1	-0.466417	-8.95994	3.15176	21.3843
 367	1	3	-0.302302	-7.32683	5.32493	18.8784
 368	1	2	0.13972	-8.87115	5.29284	21.0192
 369	1	2	0.217142	-9.65083	3.24803	22.2184
 370	1	2	0.144775	-6.59325	2.83242	18.3093
 371	1	2	0.161927	-9.23103	4.36928	17.2855
 372	1	2	0.152343	-9.21225	4.4629	14.8065
 373	1	4	1.02665	-4.85293	6.83248	14.5869
 374	1	5	-0.487155	-3.92581	7.45674	15.5262
 375	1	5	-0.529829	-4.42798	6.05792	13.4258
 376	1	6	-0.538439	-5.61599	8.01826	13.8072
 377	1	7	0.447385	-5.83482	7.46953	13.0313
 378	1	2	0.176748	-8.03073	1.00796	12.6169
 379	1	8	0.492969	-9.19824	1.12924	10.1389
 380	1	5	-0.49751	-9.06734	1.03491	8.9263
 381	1	1	0.228748	-6.2447	0.623308	30.0884
 382	1	1	-0.221817	-6.21136	-0.462809	29.2015
 383	1	1	-0.090782	-7.30997	1.54158	30.0242
 384	1	2	0.148235	-7.35326	2.3765	30.7184
 385	1	1	-0.079307	-7.23721	-0.631296	28.2528
 386	1	1	-0.073979	-8.34086	1.37866	29.081
 387	1	1	0.031918	-8.30046	0.287321	28.1924
 388	1	3	-0.235323	-9.32703	0.0718111	27.3064
 389	1	1	0.139602	-9.21882	0.217829	25.9439
 390	1	1	-0.107898	-10.0056	-0.600099	25.1226
 391	1	1	-0.094745	-8.37972	1.18667	25.3653
 392	1	1	-0.163657	-9.9438	-0.465427	23.7259
 393	1	1	-0.253044	-8.33325	1.33785	23.9668
 394	1	2	0.134377	-10.6528	-1.34726	25.5744
 395	1	1	-0.00458	-9.12003	0.513611	23.1303
 396	1	2	0.169279	-7.77439	1.82731	26.0013
 397	1	2	0.169448	-10.5362	-1.13005	23.1001
 398	1	1	-0.039038	-4.56804	3.05439	30.8138
 399	1	1	-0.435237	-4.42713	4.32855	31.3872
 400	1	1	0.120439	-4.95443	1.96657	31.6103
 401	1	1	0.323935	-4.66641	4.54375	32.7651
 402	1	1	-0.012898	-5.14268	2.14488	32.9902
 403	1	2	0.208311	-4.13444	5.1604	30.7525
 404	1	1	-0.466417	-4.99278	3.42474	33.5616
 405	1	3	-0.302302	-5.23728	0.75763	31.02
 406	1	2	0.13972	-5.44043	1.29754	33.6031
 407	1	2	0.217142	-5.15945	3.56752	34.6275
 408	1	2	0.144775	-4.41093	2.90973	29.7476
 409	1	2	0.161927	-5.39446	-1.1764	29.2621
 410	1	2	0.152343	-7.22371	-1.48332	27.5773
 411	1	4	1.02665	-9.67779	2.5857	29.0491
 412	1	5	-0.487155	-10.9719	1.92469	28.9211
 413	1	5	-0.529829	-9.46346	3.70583	29.9621
 414	1	6	-0.538439	-9.61768	3.19068	27.5572
 415	1	7	0.447385	-10.4991	2.83289	27.3498
 416	1	2	0.176748	-7.66234	2.08097	23.5403
 417	1	8	0.492969	-9.04686	0.597069	21.6237
 418	1	5	-0.49751	-9.31234	-0.396037	20.9554
 419	1	1	0.228748	-5.91316	8.61198	25.4591
 420	1	1	-0.221817	-5.1064	7.9022	26.3568
 421	1	1	-0.090782	-6.543	9.79784	25.8764
 422	1	2	0.148235	-7.14003	10.3655	25.1685
 423	1	1	-0.079307	-4.94686	8.35478	27.676
 424	1	1	-0.073979	-6.38355	10.2637	27.2006
 425	1	1	0.031918	-5.59792	9.52628	28.1103
 426	1	3	-0.235323	-5.44792	9.94843	29.4153
 427	1	1	0.139602	-5.34035	9.06879	30.4676
 428	1	1	-0.107898	-6.21988	7.97872	30.5674
 429	1	1	-0.094745	-4.30267	9.21829	31.4014
 430	1	1	-0.163657	-6.00705	6.99253	31.5421
 431	1	1	-0.253044	-4.09133	8.2315	32.3844
 432	1	2	0.134377	-7.04346	7.88081	29.8651
 433	1	1	-0.00458	-4.91299	7.08578	32.4295
 434	1	2	0.169279	-3.64202	10.0784	31.3299
 435	1	2	0.169448	-6.68007	6.1377	31.5842
 436	1	1	-0.039038	-6.67574	9.00495	22.0438
 437	1	1	-0.435237	-7.67834	9.27009	21.0924
 438	1	1	0.120439	-7.00772	8.43335	23.2797
 439	1	1	0.323935	-9.03248	8.95258	21.3507
 440	1	1	-0.012898	-8.34644	8.11154	23.559
 441	1	2	0.208311	-7.40082	9.76657	20.1675
 442	1	1	-0.466417	-9.34669	8.37158	22.6012
 443	1	3	-0.302302	-6.00144	8.13949	24.1698
 444	1	2	0.13972	-8.60145	7.65364	24.5115
 445	1	2	0.217142	-10.3838	8.12638	22.8217
 446	1	2	0.144775	-5.6383	9.25627	21.8372
 447	1	2	0.161927	-4.60016	7.00246	26.0206
 448	1	2	0.152343	-4.31179	7.79897	28.361
 449	1	4	1.02665	-7.2001	11.7949	27.6842
 450	1	5	-0.487155	-6.87247	12.3572	28.9903
 451	1	5	-0.529829	-7.32493	12.6489	26.5073
 452	1	6	-0.538439	-8.74779	11.3429	27.7748
 453	1	7	0.447385	-9.02322	11.9244	27.0411
 454	1	2	0.176748	-3.26243	8.32736	33.0842
 455	1	8	0.492969	-4.59438	5.94045	33.3586
 456	1	5	-0.49751	-4.19372	6.14032	34.4971
 457	1	1	0.228748	-5.58202	11.862	13.319
 458	1	1	-0.221817	-5.91997	11.932	14.6825
 459	1	1	-0.090782	-6.33542	11.039	12.4656
 460	1	2	0.148235	-6.04519	10.9589	11.4219
 461	1	1	-0.079307	-7.0381	11.2372	15.1711
 462	1	1	-0.073979	-7.44109	10.3084	12.9553
 463	1	1	0.031918	-7.80913	10.4281	14.3126
 464	1	3	-0.235323	-8.93496	9.7809	14.7809
 465	1	1	0.139602	-9.2374	9.62879	16.1131
 466	1	1	-0.107898	-10.2479	10.4026	16.6986
 467	1	1	-0.094745	-8.52349	8.71075	16.8935
 468	1	1	-0.163657	-10.5386	10.2625	18.0675
 469	1	1	-0.253044	-8.80617	8.57298	18.2656
 470	1	2	0.134377	-10.7969	11.1146	16.0905
 471	1	1	-0.00458	-9.80638	9.36619	18.8747
 472	1	2	0.169279	-7.74916	8.11887	16.4204
 473	1	2	0.169448	-11.3317	10.8605	18.5135
 474	1	1	-0.039038	-4.50993	14.6604	14.0151
 475	1	1	-0.435237	-3.79211	15.6652	14.6956
 476	1	1	0.120439	-3.83098	13.5819	13.4186
 477	1	1	0.323935	-2.37818	15.6349	14.7701
 478	1	1	-0.012898	-2.42958	13.5618	13.4475
 479	1	2	0.208311	-4.34979	16.461	15.1872
 480	1	1	-0.466417	-1.71581	14.5698	14.1204
 481	1	3	-0.302302	-4.50343	12.5484	12.7952
 482	1	2	0.13972	-1.89837	12.7522	12.96
 483	1	2	0.217142	-0.629334	14.5212	14.1569
 484	1	2	0.144775	-5.59561	14.703	13.9713
 485	1	2	0.161927	-5.32551	12.5265	15.369
 486	1	2	0.152343	-7.3022	11.3344	16.2205
 487	1	4	1.02665	-8.33485	9.20569	11.8383
 488	1	5	-0.487155	-9.17188	8.17833	12.4617
 489	1	5	-0.529829	-8.83584	9.98704	10.7078
 490	1	6	-0.538439	-7.16499	8.3785	11.0743
 491	1	7	0.447385	-7.50243	8.48169	10.1518
 492	1	2	0.176748	-8.25006	7.84488	18.853
 493	1	8	0.492969	-10.1368	9.25679	20.3491
 494	1	5	-0.49751	-11.2831	9.4637	20.7278
 495	1	1	0.228748	-6.58005	18.6702	22.137
 496	1	1	-0.221817	-5.62262	19.6852	22.2384
 497	1	1	-0.090782	-6.97731	18.2024	20.8724
 498	1	2	0.148235	-7.74349	17.4357	20.7987
 499	1	1	-0.079307	-5.01985	20.197	21.0791
 500	1	1	-0.073979	-6.39011	18.7184	19.7007
 501	1	1	0.031918	-5.38554	19.7068	19.8152
 502	1	3	-0.235323	-4.71752	20.1967	18.7192
 503	1	1	0.139602	-3.86686	19.406	17.982
 504	1	1	-0.107898	-3.17384	18.3371	18.578
 505	1	1	-0.094745	-3.75949	19.625	16.6005
 506	1	1	-0.163657	-2.40532	17.4716	17.7858
 507	1	1	-0.253044	-3.00155	18.7476	15.8028
 508	1	2	0.134377	-3.25174	18.1585	19.6458
 509	1	1	-0.00458	-2.33443	17.6531	16.3918
 510	1	2	0.169279	-4.3057	20.4494	16.1506
 511	1	2	0.169448	-1.88485	16.6422	18.2541
 512	1	1	-0.039038	-6.59307	15.8252	23.4941
 513	1	1	-0.435237	-7.02809	14.488	23.5783
 514	1	1	0.120439	-7.53565	16.8601	23.3828
 515	1	1	0.323935	-8.40207	14.1692	23.5668
 516	1	1	-0.012898	-8.90405	16.5602	23.3379
 517	1	2	0.208311	-6.30284	13.6877	23.7077
 518	1	1	-0.466417	-9.33278	15.2238	23.4206
 519	1	3	-0.302302	-7.12704	18.1662	23.2893
 520	1	2	0.13972	-9.62452	17.3689	23.2437
 521	1	2	0.217142	-10.3969	15.0027	23.4002
 522	1	2	0.144775	-5.53294	16.068	23.5378
 523	1	2	0.161927	-5.34087	20.0523	23.2185
 524	1	2	0.152343	-4.25828	20.9646	21.154
 525	1	4	1.02665	-6.98963	18.1081	18.1079
 526	1	5	-0.487155	-5.99872	17.4006	17.2996
 527	1	5	-0.529829	-8.32412	17.5456	18.2928
 528	1	6	-0.538439	-7.38907	19.4331	17.2803
 529	1	7	0.447385	-8.33421	19.2132	17.2914
 530	1	2	0.176748	-2.94631	18.908	14.7285
 531	1	8	0.492969	-1.5735	16.6624	15.5562
 532	1	5	-0.49751	-0.38297	16.4854	15.7851
 533	1	1	0.228748	-13.2744	14.9601	30.7058
 534	1	1	-0.221817	-13.8442	15.0876	29.4304
 535	1	1	-0.090782	-12.6578	13.7601	31.0871
 536	1	2	0.148235	-12.2026	13.6847	32.0717
 537	1	1	-0.079307	-13.7586	14.0246	28.5178
 538	1	1	-0.073979	-12.5372	12.6988	30.167
 539	1	1	0.031918	-13.0717	12.8489	28.869
 540	1	3	-0.235323	-12.8169	11.9289	27.8809
 541	1	1	0.139602	-11.8689	12.144	26.9011
 542	1	1	-0.107898	-11.6634	11.1658	25.9142
 543	1	1	-0.094745	-11.0805	13.3099	26.8867
 544	1	1	-0.163657	-10.6982	11.3602	24.9057
 545	1	1	-0.253044	-10.1263	13.5059	25.8805
 546	1	2	0.134377	-12.2545	10.2539	25.939
 547	1	1	-0.00458	-9.9331	12.5445	24.8633
 548	1	2	0.169279	-11.1906	14.0656	27.6595
 549	1	2	0.169448	-10.5488	10.5934	24.1461
 550	1	1	-0.039038	-13.0018	18.4394	31.2395
 551	1	1	-0.435237	-12.2878	19.5521	30.7533
 552	1	1	0.120439	-12.4543	17.1535	31.1315
 553	1	1	0.323935	-11.0108	19.4132	30.1633
 554	1	1	-0.012898	-11.1767	16.9935	30.5644
 555	1	2	0.208311	-12.7356	20.5422	30.8103
 556	1	1	-0.466417	-10.4666	18.1092	30.0817
 557	1	3	-0.302302	-13.1959	16.0598	31.5229
 558	1	2	0.13972	-10.7458	15.9985	30.4792
 559	1	2	0.217142	-9.50397	17.9459	29.6054
 560	1	2	0.144775	-13.9925	18.5634	31.6706
 561	1	2	0.161927	-14.309	16.0258	29.1406
 562	1	2	0.152343	-14.1551	14.1338	27.5111
 563	1	4	1.02665	-11.5613	11.2635	30.6619
 564	1	5	-0.487155	-11.5939	11.0292	32.1038
 565	1	5	-0.529829	-11.5913	10.1748	29.6909
 566	1	6	-0.538439	-10.0738	11.8158	30.3761
 567	1	7	0.447385	-9.87037	11.161	29.6826
 568	1	2	0.176748	-9.51223	14.4055	25.9201
 569	1	8	0.492969	-8.87962	12.749	23.7962
 570	1	5	-0.49751	-8.33406	11.7876	23.27
 571	1	1	0.228748	-2.94354	22.4524	24.9742
 572	1	1	-0.221817	-3.3292	23.1478	26.1296
 573	1	1	-0.090782	-3.19715	21.0696	24.8809
 574	1	2	0.148235	-2.91658	20.52	23.9877
 575	1	1	-0.079307	-3.94691	22.4657	27.194
 576	1	1	-0.073979	-3.81664	20.3788	25.9399
 577	1	1	0.031918	-4.1901	21.0836	27.102
 578	1	3	-0.235323	-4.76472	20.4314	28.1683
 579	1	1	0.139602	-6.1034	20.5064	28.4935
 580	1	1	-0.107898	-7.04904	21.1016	27.6381
 581	1	1	-0.094745	-6.52768	19.9493	29.7103
 582	1	1	-0.163657	-8.40536	21.139	28.0054
 583	1	1	-0.253044	-7.8876	19.9773	30.0739
 584	1	2	0.134377	-6.74089	21.5294	26.6892
 585	1	1	-0.00458	-8.84453	20.5614	29.2146
 586	1	2	0.169279	-5.79227	19.4985	30.3712
 587	1	2	0.169448	-9.12858	21.6103	27.3425
 588	1	1	-0.039038	-0.708149	21.6723	22.9814
 589	1	1	-0.435237	-0.235068	20.9625	21.8628
 590	1	1	0.120439	-1.78594	22.5623	22.8441
 591	1	1	0.323935	-0.824303	21.1293	20.5882
 592	1	1	-0.012898	-2.33297	22.7993	21.5744
 593	1	2	0.208311	0.597174	20.2736	21.9866
 594	1	1	-0.466417	-1.85632	22.0841	20.4588
 595	1	3	-0.302302	-2.346	23.1592	23.95
 596	1	2	0.13972	-3.15112	23.5079	21.468
 597	1	2	0.217142	-2.29878	22.2485	19.4772
 598	1	2	0.144775	-0.263164	21.5149	23.9615
 599	1	2	0.161927	-3.13942	24.2155	26.1972
 600	1	2	0.152343	-4.23321	23.0027	28.0954
 601	1	4	1.02665	-4.10308	18.6069	25.7641
 602	1	5	-0.487155	-5.41137	18.2529	26.303
 603	1	5	-0.529829	-3.62235	18.0729	24.4895
 604	1	6	-0.538439	-3.19035	17.9683	26.9295
 605	1	7	0.447385	-3.95531	17.7403	27.4825
 606	1	2	0.176748	-8.19312	19.5571	31.0306
 607	1	8	0.492969	-10.3105	20.6319	29.5761
 608	1	5	-0.49751	-10.9514	21.6285	29.2665
 609	1	1	0.228748	-0.651154	11.667	18.2528
 610	1	1	-0.221817	-0.839689	12.9614	17.7445
 611	1	1	-0.090782	0.198712	11.4582	19.3473
 612	1	2	0.148235	0.350427	10.4476	19.7179
 613	1	1	-0.079307	-0.170726	14.0471	18.3289
 614	1	1	-0.073979	0.872412	12.5452	19.94
 615	1	1	0.031918	0.682932	13.8481	19.4319
 616	1	3	-0.235323	1.36268	14.9089	19.9932
 617	1	1	0.139602	0.962694	16.2168	19.8656
 618	1	1	-0.107898	1.41793	16.993	18.7896
 619	1	1	-0.094745	0.0702817	16.7653	20.7975
 620	1	1	-0.163657	0.977421	18.3198	18.6451
 621	1	1	-0.253044	-0.365213	18.0961	20.6581
 622	1	2	0.134377	2.09148	16.557	18.0568
 623	1	1	-0.00458	0.098152	18.8969	19.5856
 624	1	2	0.169279	-0.285494	16.1482	21.6201
 625	1	2	0.169448	1.31442	18.9052	17.7912
 626	1	1	-0.039038	0.049784	10.602	15.6139
 627	1	1	-0.435237	0.107001	10.5021	14.2143
 628	1	1	0.120439	-1.17298	10.4242	16.281
 629	1	1	0.323935	-1.04447	10.2186	13.4486
 630	1	1	-0.012898	-2.32652	10.1252	15.5422
 631	1	2	0.208311	1.05447	10.6673	13.7057
 632	1	1	-0.466417	-2.26614	10.0316	14.1379
 633	1	3	-0.302302	-1.25348	10.5945	17.6437
 634	1	2	0.13972	-3.27131	9.98849	16.0627
 635	1	2	0.217142	-3.18785	9.83749	13.5975
 636	1	2	0.144775	0.947556	10.8359	16.1809
 637	1	2	0.161927	-1.48457	13.1173	16.8837
 638	1	2	0.152343	-0.294168	15.0361	17.9027
 639	1	4	1.02665	1.99125	12.2313	21.3159
 640	1	5	-0.487155	2.17455	10.8133	21.6182
 641	1	5	-0.529829	1.7845	13.2316	22.3587
 642	1	6	-0.538439	3.39958	12.8026	20.7888
 643	1	7	0.447385	3.31489	13.5915	21.3516
 644	1	2	0.176748	-1.08064	18.4885	21.378
 645	1	8	0.492969	-0.366159	20.3243	19.3847
 646	1	5	-0.49751	-0.410141	20.8024	18.2587
 647	1	1	0.228748	-5.26245	10.2652	4.43884
 648	1	1	-0.221817	-4.05986	9.88329	5.05625
 649	1	1	-0.090782	-6.4686	10.1831	5.15559
 650	1	2	0.148235	-7.39466	10.4798	4.66998
 651	1	1	-0.079307	-4.06355	9.43737	6.38907