pySIMM System Object

724 atoms
780 bonds
1254 angles
1839 dihedrals
209 impropers

9 atom types
10 bond types
15 angle types
5 dihedral types
2 improper types

-140.159969 140.159969 xlo xhi
-140.159969 140.159969 ylo yhi
-140.159969 140.159969 zlo zhi

Masses

   1	12.01	# ca
   2	1.008	# ha
   3	16.0	# os
   4	32.06	# sy
   5	16.0	# o
   6	16.0	# oh
   7	1.008	# ho
   8	12.01	# c
   9	1.008	# h4

Pair Coeffs

   1	0.086	3.3996695084235347	# ca
   2	0.015	2.59964245953351	# ha
   3	0.17	3.0000123434657784	# os
   4	0.25	3.563594872561357	# sy
   5	0.21	2.959921901149463	# o
   6	0.2104	3.0664733878390478	# oh
   7	1e-05	0.0	# ho
   8	0.086	3.3996695084235347	# c
   9	0.015	2.5105525877194763	# h4

Bond Coeffs

   1	345.8	1.086	# ca,ha
   2	243.4	1.7909	# ca,sy
   3	289.8	1.6497	# oh,sy
   4	637.7	1.2183	# c,o
   5	376.6	1.3696	# ca,os
   6	371.4	0.973	# ho,oh
   7	461.1	1.3984	# ca,ca
   8	345.9	1.4906	# c,ca
   9	310.7	1.1121	# c,h4
  10	493.0	1.466	# o,sy

Angle Coeffs

   1	48.18	119.88	# ca,ca,ha
   2	72.54	121.41	# o,sy,o
   3	72.32	106.68	# o,sy,oh
   4	61.48	119.42	# ca,ca,sy
   5	64.28	120.33	# c,ca,ca
   6	69.58	119.2	# ca,ca,os
   7	68.72	122.6	# ca,c,o
   8	54.22	120.7	# h4,c,o
   9	46.43	115.14	# ca,c,h4
  10	44.17	106.42	# ho,oh,sy
  11	65.46	101.3	# ca,sy,oh
  12	65.77	108.35	# ca,sy,o
  13	63.48	119.89	# ca,os,ca
  14	66.62	120.02	# ca,ca,ca
  15	63.0	118.11	# ca,c,ca

Dihedral Coeffs

   1	1	1.3	2	180	# X,ca,sy,X
   2	1	9.5	1	180	# X,oh,sy,X
   3	1	3.625	2	180	# X,ca,ca,X
   4	1	1.0	2	180	# X,c,ca,X
   5	1	0.9	2	180	# X,ca,os,X

Improper Coeffs

   1	10.5	-1	2	# c,X,X,o
   2	1.1	-1	2	# ca,X,X,ha

Atoms

   1	1	1	0.228748	27.2493	61.1298	11.3953
   2	1	1	-0.221817	26.9805	62.2595	12.1814
   3	1	1	-0.090782	28.4656	60.445	11.5322
   4	1	2	0.148235	28.6516	59.562	10.9261
   5	1	1	-0.079307	27.9278	62.6994	13.1203
   6	1	1	-0.073979	29.4189	60.8775	12.4758
   7	1	1	0.031918	29.1395	62.0025	13.2785
   8	1	3	-0.235323	30.0262	62.4139	14.2451
   9	1	1	0.139602	29.6522	62.5657	15.5593
  10	1	1	-0.107898	28.8651	61.5921	16.1995
  11	1	1	-0.094745	30.0655	63.7058	16.2639
  12	1	1	-0.163657	28.4799	61.767	17.5404
  13	1	1	-0.253044	29.673	63.8849	17.6029
  14	1	2	0.134377	28.5601	60.7003	15.6581
  15	1	1	-0.00458	28.8762	62.9176	18.251
  16	1	2	0.169279	30.6798	64.4503	15.764
  17	1	2	0.169448	27.872	61.0072	18.0263
  18	1	1	-0.039038	23.9461	60.1718	10.299
  19	1	1	-0.435237	22.7596	59.5796	10.7772
  20	1	1	0.120439	25.1418	60.0465	11.0225
  21	1	1	0.323935	22.7497	58.8311	11.9779
  22	1	1	-0.012898	25.146	59.3164	12.2252
  23	1	2	0.208311	21.8357	59.7305	10.2254
  24	1	1	-0.466417	23.9611	58.7228	12.6938
  25	1	3	-0.302302	26.2849	60.6504	10.546
  26	1	2	0.13972	26.0643	59.209	12.7968
  27	1	2	0.217142	23.9699	58.171	13.6317
  28	1	2	0.144775	23.9432	60.749	9.3773
  29	1	2	0.161927	26.0333	62.7795	12.0698
  30	1	2	0.152343	27.72	63.5694	13.7387
  31	1	4	1.02665	30.936	59.9301	12.6864
  32	1	5	-0.487155	30.9851	58.7117	11.8816
  33	1	5	-0.529829	32.0813	60.8219	12.8267
  34	1	6	-0.538439	30.8804	59.4851	14.2315
  35	1	7	0.447385	31.6012	60.1051	14.4473
  36	1	2	0.176748	29.9853	64.7757	18.1464
  37	1	8	0.492969	28.4513	63.1011	19.6821
  38	1	5	-0.49751	28.7267	64.0841	20.3501
  39	1	1	0.228748	15.2673	52.6881	10.4596
  40	1	1	-0.221817	16.6607	52.649	10.3128
  41	1	1	-0.090782	14.5653	53.8723	10.1817
  42	1	2	0.148235	13.4912	53.9089	10.3436
  43	1	1	-0.079307	17.3559	53.7884	9.8745
  44	1	1	-0.073979	15.2546	55.017	9.73034
  45	1	1	0.031918	16.6572	54.9742	9.58687
  46	1	3	-0.235323	17.3634	56.0831	9.1797
  47	1	1	0.139602	18.3493	56.6291	9.96788
  48	1	1	-0.107898	19.6531	56.7573	9.46625
  49	1	1	-0.094745	18.0655	57.0305	11.2822
  50	1	1	-0.163657	20.679	57.2696	10.2829
  51	1	1	-0.253044	19.0874	57.5513	12.0947
  52	1	2	0.134377	19.8698	56.4325	8.4525
  53	1	1	-0.00458	20.4056	57.6858	11.6067
  54	1	2	0.169279	17.0536	56.936	11.6684
  55	1	2	0.169448	21.6908	57.3108	9.88703
  56	1	1	-0.039038	13.0517	51.0409	9.21507
  57	1	1	-0.435237	12.2226	50.075	8.61088
  58	1	1	0.120439	13.8575	50.687	10.3132
  59	1	1	0.323935	12.1916	48.7385	9.06647
  60	1	1	-0.012898	13.8319	49.3645	10.7819
  61	1	2	0.208311	11.5725	50.3639	7.78721
  62	1	1	-0.466417	13.0186	48.3975	10.161
  63	1	3	-0.302302	14.6358	51.595	10.9993
  64	1	2	0.13972	14.4392	49.0993	11.6442
  65	1	2	0.217142	12.9937	47.3905	10.569
  66	1	2	0.144775	13.0396	52.0622	8.84725
  67	1	2	0.161927	17.1986	51.7394	10.5628
  68	1	2	0.152343	18.4375	53.7599	9.76928
  69	1	4	1.02665	14.328	56.5254	9.40476
  70	1	5	-0.487155	12.8797	56.3383	9.44745
  71	1	5	-0.529829	14.9905	57.642	10.0715
  72	1	6	-0.538439	14.7396	56.918	7.89825
  73	1	7	0.447385	15.3411	57.6168	8.20722
  74	1	2	0.176748	18.8591	57.8455	13.1184
  75	1	8	0.492969	21.4874	58.194	12.5372
  76	1	5	-0.49751	21.3629	58.0337	13.7451
  77	1	1	0.228748	12.9094	39.4874	5.49486
  78	1	1	-0.221817	12.3041	40.7373	5.28173
  79	1	1	-0.090782	13.4085	39.1649	6.76375
  80	1	2	0.148235	13.9227	38.2179	6.90696
  81	1	1	-0.079307	12.1406	41.635	6.35422
  82	1	1	-0.073979	13.2627	40.0621	7.8393
  83	1	1	0.031918	12.6147	41.2986	7.63943
  84	1	3	-0.235323	12.4635	42.1565	8.70962
  85	1	1	0.139602	12.1722	43.4949	8.61426
  86	1	1	-0.107898	13.1962	44.4204	8.36262
  87	1	1	-0.094745	10.8574	43.9399	8.81544
  88	1	1	-0.163657	12.9053	45.7962	8.31211
  89	1	1	-0.253044	10.5624	45.3139	8.74549
  90	1	2	0.134377	14.2129	44.0666	8.21272
  91	1	1	-0.00458	11.5849	46.2578	8.50949
  92	1	2	0.169279	10.0736	43.2157	9.02349
  93	1	2	0.169448	13.7069	46.5019	8.10365
  94	1	1	-0.039038	10.8339	38.2861	3.64974
  95	1	1	-0.435237	9.92871	37.5122	2.89755
  96	1	1	0.120439	12.1662	37.8599	3.80598
  97	1	1	0.323935	10.3124	36.2877	2.30891
  98	1	1	-0.012898	12.5626	36.6434	3.22661
  99	1	2	0.208311	8.91188	37.8688	2.74681
 100	1	1	-0.466417	11.6469	35.86	2.49557
 101	1	3	-0.302302	13.1263	38.6068	4.46078
 102	1	2	0.13972	13.595	36.3198	3.33738
 103	1	2	0.217142	11.9923	34.9411	2.02916
 104	1	2	0.144775	10.5007	39.2242	4.08032
 105	1	2	0.161927	11.975	41.0133	4.28444
 106	1	2	0.152343	11.6555	42.5925	6.18234
 107	1	4	1.02665	13.9681	39.6206	9.43714
 108	1	5	-0.487155	13.0093	39.8996	10.5018
 109	1	5	-0.529829	14.7571	38.3914	9.40588
 110	1	6	-0.538439	14.9817	40.8372	9.74431
 111	1	7	0.447385	14.3933	41.2047	10.4245
 112	1	2	0.176748	9.53763	45.6555	8.8865
 113	1	8	0.492969	11.2497	47.7292	8.42991
 114	1	5	-0.49751	10.2052	48.0863	7.90142
 115	1	1	0.228748	8.029	27.0171	-1.54412
 116	1	1	-0.221817	9.39146	27.347	-1.51799
 117	1	1	-0.090782	7.1303	27.6731	-0.6904
 118	1	2	0.148235	6.08138	27.3877	-0.707161
 119	1	1	-0.079307	9.8588	28.3221	-0.621322
 120	1	1	-0.073979	7.59222	28.6392	0.228841
 121	1	1	0.031918	8.96808	28.9658	0.2541
 122	1	3	-0.235323	9.50864	29.7945	1.20881
 123	1	1	0.139602	9.47488	31.1713	1.21522
 124	1	1	-0.107898	9.87918	31.8269	2.38733
 125	1	1	-0.094745	9.03961	31.9274	0.112598
 126	1	1	-0.163657	9.85345	33.2301	2.46787
 127	1	1	-0.253044	9.00013	33.3324	0.19755
 128	1	2	0.134377	10.1943	31.2351	3.24278
 129	1	1	-0.00458	9.4196	34.0022	1.3688
 130	1	2	0.169279	8.71241	31.4292	-0.796173
 131	1	2	0.169448	10.1422	33.7095	3.4008
 132	1	1	-0.039038	8.31972	23.7919	-3.05914
 133	1	1	-0.435237	8.78489	22.4932	-2.76103
 134	1	1	0.120439	7.97578	24.6768	-2.02458
 135	1	1	0.323935	8.89717	22.0479	-1.42172
 136	1	1	-0.012898	8.06745	24.243	-0.690471
 137	1	2	0.208311	9.10529	21.8499	-3.57585
 138	1	1	-0.466417	8.52505	22.9471	-0.399664
 139	1	3	-0.302302	7.59893	25.9696	-2.32206
 140	1	2	0.13972	7.80241	24.9155	0.121305
 141	1	2	0.217142	8.62179	22.6344	0.638174
 142	1	2	0.144775	8.25939	24.1336	-4.08967
 143	1	2	0.161927	10.0846	26.817	-2.16506
 144	1	2	0.152343	10.9203	28.5512	-0.568229
 145	1	4	1.02665	6.39518	29.3557	1.37538
 146	1	5	-0.487155	5.08881	28.7033	1.32982
 147	1	5	-0.529829	7.00588	29.7685	2.6343
 148	1	6	-0.538439	6.17349	30.834	0.783328
 149	1	7	0.447385	6.52952	31.2422	1.5923
 150	1	2	0.176748	8.63481	33.9122	-0.649263
 151	1	8	0.492969	9.32371	35.5102	1.45265
 152	1	5	-0.49751	8.44433	36.0941	0.832726
 153	1	1	0.228748	11.1792	12.5733	-3.23879
 154	1	1	-0.221817	9.99943	13.0395	-2.63245
 155	1	1	-0.090782	11.7385	13.2745	-4.31611
 156	1	2	0.148235	12.6485	12.9017	-4.78028
 157	1	1	-0.079307	9.40038	14.228	-3.08186
 158	1	1	-0.073979	11.1476	14.4716	-4.76578
 159	1	1	0.031918	9.98006	14.9514	-4.13806
 160	1	3	-0.235323	9.41191	16.1461	-4.51999
 161	1	1	0.139602	9.4413	17.2568	-3.70274
 162	1	1	-0.107898	10.482	17.4486	-2.7771
 163	1	1	-0.094745	8.41072	18.2063	-3.79152
 164	1	1	-0.163657	10.4793	18.5725	-1.93702
 165	1	1	-0.253044	8.40806	19.3356	-2.94852
 166	1	2	0.134377	11.2948	16.7314	-2.70695
 167	1	1	-0.00458	9.45164	19.5345	-2.01536
 168	1	2	0.169279	7.60308	18.0496	-4.50166
 169	1	2	0.169448	11.2828	18.6995	-1.21339
 170	1	1	-0.039038	12.2645	12.1637	-0.5067
 171	1	1	-0.435237	12.3433	11.8577	0.864364
 172	1	1	0.120439	11.9363	11.1591	-1.43498
 173	1	1	0.323935	12.0934	10.552	1.33562
 174	1	1	-0.012898	11.7345	9.84484	-0.989496
 175	1	2	0.208311	12.5932	12.6374	1.58108
 176	1	1	-0.466417	11.8076	9.54525	0.38409
 177	1	3	-0.302302	11.8074	11.4421	-2.77602
 178	1	2	0.13972	11.5076	9.06636	-1.7143
 179	1	2	0.217142	11.6526	8.51992	0.712491
 180	1	2	0.144775	12.4517	13.178	-0.850351
 181	1	2	0.161927	9.55712	12.484	-1.81027
 182	1	2	0.152343	8.49667	14.6	-2.60491
 183	1	4	1.02665	11.9215	15.3912	-6.10314
 184	1	5	-0.487155	12.1277	16.7514	-5.61243
 185	1	5	-0.529829	12.9505	14.6019	-6.77559
 186	1	6	-0.538439	10.6732	15.5943	-7.11566
 187	1	7	0.447385	10.1728	16.1822	-6.52926
 188	1	2	0.176748	7.57723	20.0364	-3.00295
 189	1	8	0.492969	9.47056	20.6908	-1.04098
 190	1	5	-0.49751	9.98743	20.5282	0.0576109
 191	1	1	0.228748	7.68909	5.6907	9.00762
 192	1	1	-0.221817	7.83198	7.03008	8.62181
 193	1	1	-0.090782	7.7052	4.6735	8.03507
 194	1	2	0.148235	7.5636	3.63753	8.33129
 195	1	1	-0.079307	8.02201	7.35733	7.26949
 196	1	1	-0.073979	7.91007	4.99301	6.678
 197	1	1	0.031918	8.07979	6.33863	6.30146
 198	1	3	-0.235323	8.23488	6.66229	4.97638
 199	1	1	0.139602	9.18484	7.52884	4.48923
 200	1	1	-0.107898	8.90208	8.22385	3.30682
 201	1	1	-0.094745	10.4241	7.71406	5.12848
 202	1	1	-0.163657	9.84574	9.1111	2.76424
 203	1	1	-0.253044	11.3689	8.60502	4.58753
 204	1	2	0.134377	7.94397	8.07254	2.81733
 205	1	1	-0.00458	11.0987	9.3009	3.38995
 206	1	2	0.169279	10.6551	7.16166	6.03477
 207	1	2	0.169448	9.58721	9.6562	1.85996
 208	1	1	-0.039038	6.89054	3.61914	11.788
 209	1	1	-0.435237	7.18318	2.38684	12.3985
 210	1	1	0.120439	7.82783	4.2251	10.9422
 211	1	1	0.323935	8.42466	1.74052	12.1869
 212	1	1	-0.012898	9.07223	3.60667	10.7263
 213	1	2	0.208311	6.41979	1.92002	13.0151
 214	1	1	-0.466417	9.3595	2.37175	11.3379
 215	1	3	-0.302302	7.50242	5.41868	10.3423
 216	1	2	0.13972	9.80601	4.08006	10.0786
 217	1	2	0.217142	10.3137	1.88311	11.1501
 218	1	2	0.144775	5.92914	4.10134	11.9488
 219	1	2	0.161927	7.78871	7.81074	9.37583
 220	1	2	0.152343	8.11734	8.39767	6.9678
 221	1	4	1.02665	7.96268	3.67744	5.44568
 222	1	5	-0.487155	8.93903	3.86486	4.3756
 223	1	5	-0.529829	7.79034	2.38149	6.09577
 224	1	6	-0.538439	6.51613	3.75646	4.74144
 225	1	7	0.447385	6.31665	2.83198	4.95962
 226	1	2	0.176748	12.3241	8.75092	5.0901
 227	1	8	0.492969	12.1259	10.2547	2.82329
 228	1	5	-0.49751	12.8936	10.8461	3.57143
 229	1	1	0.228748	6.2102	-2.69187	20.8294
 230	1	1	-0.221817	7.19657	-2.63965	19.8373
 231	1	1	-0.090782	4.93411	-2.1618	20.5864
 232	1	2	0.148235	4.17929	-2.21459	21.3664
 233	1	1	-0.079307	6.89805	-2.08372	18.5821
 234	1	1	-0.073979	4.62141	-1.60752	19.3296
 235	1	1	0.031918	5.6074	-1.57844	18.3211
 236	1	3	-0.235323	5.27707	-1.10071	17.0759
 237	1	1	0.139602	6.17624	-0.77419	16.095
 238	1	1	-0.107898	6.85059	0.454099	16.1451
 239	1	1	-0.094745	6.37732	-1.64893	15.0171
 240	1	1	-0.163657	7.70942	0.822707	15.096
 241	1	1	-0.253044	7.24939	-1.28845	13.9743
 242	1	2	0.134377	6.68145	1.12564	16.9825
 243	1	1	-0.00458	7.89792	-0.0368813	13.9923
 244	1	2	0.169279	5.83934	-2.59257	14.9883
 245	1	2	0.169448	8.21243	1.787	15.1306
 246	1	1	-0.039038	5.06067	-5.24918	21.5087
 247	1	1	-0.435237	4.40353	-6.4103	21.9503
 248	1	1	0.120439	5.82803	-4.48162	22.407
 249	1	1	0.323935	4.50507	-6.84201	23.2921
 250	1	1	-0.012898	5.94008	-4.89968	23.7419
 251	1	2	0.208311	3.78363	-6.96053	21.2477
 252	1	1	-0.466417	5.2794	-6.06406	24.1789
 253	1	3	-0.302302	6.48149	-3.33228	22.0119
 254	1	2	0.13972	6.53424	-4.31003	24.436
 255	1	2	0.217142	5.3555	-6.37224	25.2198
 256	1	2	0.144775	4.96287	-4.94713	20.4693
 257	1	2	0.161927	8.17905	-3.05792	20.0367
 258	1	2	0.152343	7.66155	-2.07238	17.8083
 259	1	4	1.02665	2.95021	-0.976551	19.0554
 260	1	5	-0.487155	2.5772	-0.598003	17.6953
 261	1	5	-0.529829	2.01845	-1.69478	19.9199
 262	1	6	-0.538439	2.92087	0.374076	19.9267
 263	1	7	0.447385	2.16325	0.0491799	20.4426
 264	1	2	0.176748	7.39491	-1.95836	13.1279
 265	1	8	0.492969	8.74019	0.396287	12.8217
 266	1	5	-0.49751	9.56709	-0.366856	12.3409
 267	1	1	0.228748	4.49012	-14.2218	17.1615
 268	1	1	-0.221817	4.24104	-12.8548	16.962
 269	1	1	-0.090782	4.06967	-14.8506	18.3413
 270	1	2	0.148235	4.26036	-15.9117	18.479
 271	1	1	-0.079307	3.52947	-12.1234	17.9282
 272	1	1	-0.073979	3.36832	-14.1207	19.3199
 273	1	1	0.031918	3.08961	-12.7558	19.1037
 274	1	3	-0.235323	2.28102	-12.0687	19.9765
 275	1	1	0.139602	2.69334	-11.1078	20.8717
 276	1	1	-0.107898	3.98914	-10.5588	20.8594
 277	1	1	-0.094745	1.76923	-10.6849	21.8384
 278	1	1	-0.163657	4.34226	-9.57253	21.7985
 279	1	1	-0.253044	2.12848	-9.71624	22.7902
 280	1	2	0.134377	4.72277	-10.8959	20.1338
 281	1	1	-0.00458	3.41199	-9.137	22.768
 282	1	2	0.169279	0.775048	-11.122	21.8524
 283	1	2	0.169448	5.34925	-9.16073	21.7844
 284	1	1	-0.039038	3.89329	-14.5814	14.0918
 285	1	1	-0.435237	2.98131	-15.0168	13.1138
 286	1	1	0.120439	4.24917	-15.4314	15.151
 287	1	1	0.323935	2.43937	-16.3194	13.1603
 288	1	1	-0.012898	3.72321	-16.7323	15.2076
 289	1	2	0.208311	2.71024	-14.3529	12.2974
 290	1	1	-0.466417	2.83432	-17.1745	14.2095
 291	1	3	-0.302302	5.05579	-14.9687	16.1615
 292	1	2	0.13972	3.99909	-17.3887	16.0293
 293	1	2	0.217142	2.43192	-18.1846	14.2462
 294	1	2	0.144775	4.3195	-13.5842	14.0385
 295	1	2	0.161927	4.56604	-12.377	16.044
 296	1	2	0.152343	3.28716	-11.0778	17.7562
 297	1	4	1.02665	2.80286	-14.9697	20.8029
 298	1	5	-0.487155	3.05993	-16.4077	20.7916
 299	1	5	-0.529829	3.05976	-14.1375	21.9732
 300	1	6	-0.538439	1.20986	-14.7535	20.7882
 301	1	7	0.447385	1.28064	-14.1086	21.5132
 302	1	2	0.176748	1.41074	-9.4061	23.5483
 303	1	8	0.492969	3.77777	-8.08081	23.781
 304	1	5	-0.49751	3.39913	-8.17922	24.9405
 305	1	1	0.228748	-5.54248	-10.5848	12.1619
 306	1	1	-0.221817	-4.22344	-10.6681	12.6297
 307	1	1	-0.090782	-6.05355	-11.5751	11.3134
 308	1	2	0.148235	-7.0518	-11.4553	10.9011
 309	1	1	-0.079307	-3.39242	-11.7185	12.2056
 310	1	1	-0.073979	-5.22247	-12.6194	10.8654
 311	1	1	0.031918	-3.88756	-12.6953	11.319
 312	1	3	-0.235323	-3.05948	-13.5973	10.6955
 313	1	1	0.139602	-1.9567	-14.3035	11.1206
 314	1	1	-0.107898	-1.36505	-15.1318	10.1573
 315	1	1	-0.094745	-1.44203	-14.289	12.4312
 316	1	1	-0.163657	-0.258488	-15.9304	10.4817
 317	1	1	-0.253044	-0.302189	-15.0555	12.7472
 318	1	2	0.134377	-1.79674	-15.1743	9.16014
 319	1	1	-0.00458	0.297351	-15.8881	11.7736
 320	1	2	0.169279	-1.93148	-13.7166	13.2105
 321	1	2	0.169448	0.165513	-16.5931	9.72965
 322	1	1	-0.039038	-5.54066	-7.08584	12.0116
 323	1	1	-0.435237	-4.94822	-6.07538	11.2255
 324	1	1	0.120439	-5.7781	-8.35558	11.461
 325	1	1	0.323935	-4.5852	-6.32082	9.88345
 326	1	1	-0.012898	-5.4615	-8.5913	10.108
 327	1	2	0.208311	-4.75849	-5.09599	11.6567
 328	1	1	-0.466417	-4.8587	-7.58763	9.33431
 329	1	3	-0.302302	-6.20548	-9.38903	12.2697
 330	1	2	0.13972	-5.65655	-9.56065	9.65839
 331	1	2	0.217142	-4.60152	-7.78807	8.29697
 332	1	2	0.144775	-5.78826	-6.90241	13.0545
 333	1	2	0.161927	-3.82404	-9.86164	13.2376
 334	1	2	0.152343	-2.34361	-11.7055	12.4819
 335	1	4	1.02665	-5.8474	-13.6975	9.55325
 336	1	5	-0.487155	-6.63982	-12.8961	8.62361
 337	1	5	-0.529829	-4.96933	-14.7488	9.04724
 338	1	6	-0.538439	-7.09636	-14.451	10.236
 339	1	7	0.447385	-7.67575	-14.2714	9.4788
 340	1	2	0.176748	0.0804467	-15.0424	13.7662
 341	1	8	0.492969	1.46202	-16.7871	12.1068
 342	1	5	-0.49751	1.59405	-17.8691	11.5516
 343	1	1	0.228748	3.61083	-9.21002	6.31989
 344	1	1	-0.221817	2.78437	-9.38406	7.43896
 345	1	1	-0.090782	3.81412	-7.91676	5.80436
 346	1	2	0.148235	4.45737	-7.76685	4.943
 347	1	1	-0.079307	2.13832	-8.27918	8.02256
 348	1	1	-0.073979	3.18179	-6.80226	6.38948
 349	1	1	0.031918	2.32309	-6.98711	7.49375
 350	1	3	-0.235323	1.7171	-5.90326	8.08875
 351	1	1	0.139602	0.362889	-5.81176	8.30843
 352	1	1	-0.107898	-0.453866	-5.18796	7.3539
 353	1	1	-0.094745	-0.196325	-6.25975	9.51607
 354	1	1	-0.163657	-1.82625	-5.01616	7.60218
 355	1	1	-0.253044	-1.57729	-6.11644	9.75416
 356	1	2	0.134377	-0.0215226	-4.82071	6.42853
 357	1	1	-0.00458	-2.40719	-5.48339	8.79958
 358	1	2	0.169279	0.44845	-6.70245	10.2696
 359	1	2	0.169448	-2.44567	-4.51683	6.859
 360	1	1	-0.039038	3.77404	-10.9128	3.45967
 361	1	1	-0.435237	4.17705	-10.917	2.10771
 362	1	1	0.120439	4.61454	-10.3755	4.44752
 363	1	1	0.323935	5.42939	-10.3829	1.7203
 364	1	1	-0.012898	5.87464	-9.87517	4.08775
 365	1	2	0.208311	3.50664	-11.3296	1.35838
 366	1	1	-0.466417	6.26809	-9.87328	2.73753
 367	1	3	-0.302302	4.19207	-10.3258	5.75601
 368	1	2	0.13972	6.53114	-9.4683	4.85351
 369	1	2	0.217142	7.23724	-9.46102	2.46268
 370	1	2	0.144775	2.80611	-11.3146	3.74949
 371	1	2	0.161927	2.64045	-10.3821	7.84261
 372	1	2	0.152343	1.50075	-8.42634	8.88841
 373	1	4	1.02665	3.46726	-5.18096	5.6504
 374	1	5	-0.487155	4.62098	-5.14304	4.75532
 375	1	5	-0.529829	2.1869	-4.60358	5.25501
 376	1	6	-0.538439	3.74786	-4.16906	6.86914
 377	1	7	0.447385	2.91837	-3.69129	6.69724
 378	1	2	0.176748	-1.99181	-6.46739	10.6968
 379	1	8	0.492969	-3.8841	-5.27664	9.04821
 380	1	5	-0.49751	-4.52757	-4.48789	8.37029
 381	1	1	0.228748	1.92198	-11.8416	-8.18012
 382	1	1	-0.221817	1.11318	-12.5801	-7.31428
 383	1	1	-0.090782	2.981	-11.088	-7.64746
 384	1	2	0.148235	3.5576	-10.455	-8.31037
 385	1	1	-0.079307	1.38674	-12.595	-5.93924
 386	1	1	-0.073979	3.29029	-11.106	-6.26439
 387	1	1	0.031918	2.46433	-11.8765	-5.38983
 388	1	3	-0.235323	2.55808	-12.0707	-4.018
 389	1	1	0.139602	3.40318	-11.6105	-3.03767
 390	1	1	-0.107898	4.24587	-12.5302	-2.39153
 391	1	1	-0.094745	3.28705	-10.3065	-2.53151
 392	1	1	-0.163657	5.03105	-12.1276	-1.29564
 393	1	1	-0.253044	4.08952	-9.89293	-1.45073
 394	1	2	0.134377	4.28811	-13.5564	-2.74668
 395	1	1	-0.00458	4.96595	-10.8022	-0.823235
 396	1	2	0.169279	2.60091	-9.6088	-3.00602
 397	1	2	0.169448	5.70475	-12.8398	-0.823515
 398	1	1	-0.039038	1.67102	-13.1363	-11.4798
 399	1	1	-0.435237	2.26469	-13.4447	-12.724
 400	1	1	0.120439	2.27019	-12.2124	-10.6032
 401	1	1	0.323935	3.457	-12.8057	-13.1317
 402	1	1	-0.012898	3.48587	-11.6143	-10.9779
 403	1	2	0.208311	1.74779	-14.1073	-13.4139
 404	1	1	-0.466417	4.06468	-11.911	-12.2253
 405	1	3	-0.302302	1.54975	-11.7791	-9.50595
 406	1	2	0.13972	3.94612	-10.8603	-10.3508
 407	1	2	0.217142	4.965	-11.3853	-12.5356
 408	1	2	0.144775	0.707642	-13.5648	-11.2136
 409	1	2	0.161927	0.265235	-13.1294	-7.71264
 410	1	2	0.152343	0.750893	-13.1766	-5.27613
 411	1	4	1.02665	4.72675	-10.0958	-5.81344
 412	1	5	-0.487155	5.54209	-9.73029	-6.97037
 413	1	5	-0.529829	4.3411	-9.06365	-4.86
 414	1	6	-0.538439	5.65549	-11.0019	-4.85947
 415	1	7	0.447385	5.61063	-10.372	-4.11955
 416	1	2	0.176748	4.04438	-8.85922	-1.11203
 417	1	8	0.492969	5.8922	-10.3435	0.27074
 418	1	5	-0.49751	7.00199	-9.93095	-0.0358387
 419	1	1	0.228748	5.31849	-19.6093	-20.8741
 420	1	1	-0.221817	6.22656	-18.5747	-20.5993
 421	1	1	-0.090782	4.29486	-19.8989	-19.965
 422	1	2	0.148235	3.60632	-20.7084	-20.1849
 423	1	1	-0.079307	6.15722	-17.8945	-19.3655
 424	1	1	-0.073979	4.2347	-19.2473	-18.7242
 425	1	1	0.031918	5.18072	-18.2522	-18.414
 426	1	3	-0.235323	5.31435	-17.8409	-17.1096
 427	1	1	0.139602	4.86531	-16.6652	-16.553
 428	1	1	-0.107898	4.7949	-15.4673	-17.2797
 429	1	1	-0.094745	4.55624	-16.6647	-15.1834
 430	1	1	-0.163657	4.46451	-14.2712	-16.6178
 431	1	1	-0.253044	4.21316	-15.47	-14.5211
 432	1	2	0.134377	5.03798	-15.4527	-18.3373
 433	1	1	-0.00458	4.1882	-14.2491	-15.2309
 434	1	2	0.169279	4.60534	-17.6036	-14.6369
 435	1	2	0.169448	4.46065	-13.3397	-17.1806
 436	1	1	-0.039038	4.40032	-22.6005	-22.1034
 437	1	1	-0.435237	4.3368	-23.9724	-21.7797
 438	1	1	0.120439	5.49643	-21.8265	-21.6882
 439	1	1	0.323935	5.37228	-24.6008	-21.0524
 440	1	1	-0.012898	6.51988	-22.4307	-20.9371
 441	1	2	0.208311	3.51085	-24.5724	-22.1527
 442	1	1	-0.466417	6.46152	-23.8063	-20.6323
 443	1	3	-0.302302	5.52151	-20.4661	-21.9291
 444	1	2	0.13972	7.36837	-21.8315	-20.6145
 445	1	2	0.217142	7.29518	-24.2773	-20.1172
 446	1	2	0.144775	3.60726	-22.1316	-22.6813
 447	1	2	0.161927	7.02969	-18.3649	-21.3006
 448	1	2	0.152343	6.91773	-17.1622	-19.1044
 449	1	4	1.02665	3.09686	-19.9085	-17.5003
 450	1	5	-0.487155	2.78034	-19.068	-16.3494
 451	1	5	-0.529829	2.09558	-20.7296	-18.1766
 452	1	6	-0.538439	3.94453	-21.1573	-16.9439
 453	1	7	0.447385	3.36384	-21.7793	-17.4108
 454	1	2	0.176748	4.02259	-15.4981	-13.4507
 455	1	8	0.492969	3.99607	-12.91	-14.5494
 456	1	5	-0.49751	4.39065	-11.8984	-15.1165
 457	1	1	0.228748	-0.387705	-28.9063	-14.1988
 458	1	1	-0.221817	-0.10215	-27.8798	-15.1092
 459	1	1	-0.090782	0.450736	-30.0304	-14.1412
 460	1	2	0.148235	0.257091	-30.8052	-13.4029
 461	1	1	-0.079307	1.00503	-27.9723	-15.9725
 462	1	1	-0.073979	1.58666	-30.1178	-14.9784
 463	1	1	0.031918	1.87696	-29.0767	-15.8953
 464	1	3	-0.235323	2.98998	-29.1869	-16.7116
 465	1	1	0.139602	3.44626	-28.3602	-17.7256
 466	1	1	-0.107898	3.69335	-26.9822	-17.5553
 467	1	1	-0.094745	3.82989	-28.9719	-18.9267
 468	1	1	-0.163657	4.28334	-26.2219	-18.5943
 469	1	1	-0.253044	4.43404	-28.2232	-19.9515
 470	1	2	0.134377	3.46694	-26.5135	-16.6021
 471	1	1	-0.00458	4.67316	-26.8385	-19.8069
 472	1	2	0.169279	3.69076	-30.0438	-19.0432
 473	1	2	0.169448	4.48906	-25.1673	-18.4284
 474	1	1	-0.039038	-3.39405	-29.8987	-13.9182
 475	1	1	-0.435237	-4.59688	-30.5384	-13.5232
 476	1	1	0.120439	-2.45576	-29.4844	-12.9526
 477	1	1	0.323935	-4.87339	-30.7927	-12.1567
 478	1	1	-0.012898	-2.72317	-29.7261	-11.5987
 479	1	2	0.208311	-5.31063	-30.8451	-14.282
 480	1	1	-0.466417	-3.90263	-30.3866	-11.2139
 481	1	3	-0.302302	-1.37335	-28.6858	-13.2631
 482	1	2	0.13972	-2.01685	-29.383	-10.8463
 483	1	2	0.217142	-4.08499	-30.577	-10.1582
 484	1	2	0.144775	-3.20058	-29.6893	-14.9673
 485	1	2	0.161927	-0.734344	-26.9971	-15.1221
 486	1	2	0.152343	1.19017	-27.172	-16.6807
 487	1	4	1.02665	2.637	-31.5769	-14.7972
 488	1	5	-0.487155	2.06438	-32.7231	-14.0991
 489	1	5	-0.529829	3.84379	-31.6259	-15.6105
 490	1	6	-0.538439	3.82122	-31.0748	-13.9442
 491	1	7	0.447385	4.18594	-31.3345	-14.8702
 492	1	2	0.176748	4.75293	-28.7316	-20.8607
 493	1	8	0.492969	5.41646	-26.1112	-20.9162
 494	1	5	-0.49751	6.02268	-26.7572	-21.7598
 495	1	1	0.228748	-15.2304	-29.3724	-12.4624
 496	1	1	-0.221817	-14.0223	-28.6676	-12.3519
 497	1	1	-0.090782	-15.2134	-30.7488	-12.7171
 498	1	2	0.148235	-16.1567	-31.2701	-12.8603
 499	1	1	-0.079307	-12.7928	-29.3411	-12.5079
 500	1	1	-0.073979	-13.99	-31.4345	-12.8581
 501	1	1	0.031918	-12.7694	-30.7295	-12.7577
 502	1	3	-0.235323	-11.6169	-31.4086	-13.1061
 503	1	1	0.139602	-10.2736	-31.2204	-12.8326
 504	1	1	-0.107898	-9.37529	-32.0044	-13.5765
 505	1	1	-0.094745	-9.77701	-30.4331	-11.7775
 506	1	1	-0.163657	-7.99996	-32.0244	-13.2733
 507	1	1	-0.253044	-8.39654	-30.4418	-11.4806
 508	1	2	0.134377	-9.77153	-32.6646	-14.3444
 509	1	1	-0.00458	-7.4925	-31.2449	-12.2151
 510	1	2	0.169279	-10.4596	-29.8841	-11.138
 511	1	2	0.169448	-7.35172	-32.7231	-13.7963
 512	1	1	-0.039038	-16.6895	-28.1119	-10.1548
 513	1	1	-0.435237	-17.5078	-27.5792	-9.12925
 514	1	1	0.120439	-17.1574	-28.1861	-11.4781
 515	1	1	0.323935	-18.8144	-27.0814	-9.39279
 516	1	1	-0.012898	-18.4463	-27.7275	-11.7599
 517	1	2	0.208311	-17.0992	-27.6011	-8.13751
 518	1	1	-0.466417	-19.2468	-27.1895	-10.7408
 519	1	3	-0.302302	-16.4276	-28.7035	-12.5273
 520	1	2	0.13972	-18.8264	-27.7963	-12.7769
 521	1	2	0.217142	-20.2458	-26.8533	-11.0107
 522	1	2	0.144775	-15.6939	-28.4778	-9.9194
 523	1	2	0.161927	-14.0484	-27.5895	-12.2228
 524	1	2	0.152343	-11.8701	-28.7699	-12.5093
 525	1	4	1.02665	-14.03	-33.1954	-13.2648
 526	1	5	-0.487155	-12.8017	-33.9613	-13.4473
 527	1	5	-0.529829	-15.313	-33.8038	-12.9341
 528	1	6	-0.538439	-14.8915	-33.2963	-14.5452
 529	1	7	0.447385	-15.4245	-33.7251	-13.781
 530	1	2	0.176748	-8.03608	-29.8991	-10.609
 531	1	8	0.492969	-6.11626	-31.5215	-11.651
 532	1	5	-0.49751	-6.07247	-32.1012	-10.5743
 533	1	1	0.228748	-23.462	-25.0512	-1.3884
 534	1	1	-0.221817	-22.8215	-23.8608	-1.79089
 535	1	1	-0.090782	-22.6942	-26.1858	-1.09568
 536	1	2	0.148235	-23.1821	-27.079	-0.712903
 537	1	1	-0.079307	-21.4602	-23.8738	-2.11868
 538	1	1	-0.073979	-21.313	-26.1911	-1.37909
 539	1	1	0.031918	-20.7324	-25.0679	-2.00596
 540	1	3	-0.235323	-19.5681	-25.1827	-2.73067
 541	1	1	0.139602	-19.6055	-25.4919	-4.08654
 542	1	1	-0.107898	-18.4499	-25.9513	-4.73612
 543	1	1	-0.094745	-20.7812	-25.3613	-4.84697
 544	1	1	-0.163657	-18.4609	-26.2691	-6.11464
 545	1	1	-0.253044	-20.7935	-25.6876	-6.20971
 546	1	2	0.134377	-17.5376	-26.0671	-4.15765
 547	1	1	-0.00458	-19.6439	-26.1621	-6.89228
 548	1	2	0.169279	-21.7022	-25.0108	-4.39725
 549	1	2	0.169448	-17.5228	-26.5768	-6.53794
 550	1	1	-0.039038	-25.0791	-24.4534	-3.73153
 551	1	1	-0.435237	-25.3545	-23.3793	-4.59844
 552	1	1	0.120439	-25.4934	-24.3954	-2.38565
 553	1	1	0.323935	-26.0561	-22.2439	-4.1339
 554	1	1	-0.012898	-26.3105	-23.3435	-1.95464
 555	1	2	0.208311	-24.969	-23.3946	-5.61576
 556	1	1	-0.466417	-26.5952	-22.2815	-2.83033
 557	1	3	-0.302302	-24.8373	-25.1485	-1.43775
 558	1	2	0.13972	-26.6224	-23.3009	-0.914182
 559	1	2	0.217142	-27.1715	-21.4301	-2.47554
 560	1	2	0.144775	-24.4412	-25.2709	-4.06056
 561	1	2	0.161927	-23.4014	-22.9597	-1.97055
 562	1	2	0.152343	-21.0012	-23.0013	-2.57656
 563	1	4	1.02665	-20.3347	-27.6224	-0.89321
 564	1	5	-0.487155	-21.1385	-28.7786	-0.505917
 565	1	5	-0.529829	-19.0851	-27.7395	-1.6377
 566	1	6	-0.538439	-19.6726	-27.0766	0.469249
 567	1	7	0.447385	-18.7854	-27.0763	0.0729394
 568	1	2	0.176748	-21.7336	-25.5631	-6.74484
 569	1	8	0.492969	-19.821	-26.4677	-8.392
 570	1	5	-0.49751	-20.917	-26.1673	-8.85477
 571	1	1	0.228748	-18.023	-16.6612	-5.51254
 572	1	1	-0.221817	-18.2416	-18.0453	-5.47399
 573	1	1	-0.090782	-19.0027	-15.8132	-6.04296
 574	1	2	0.148235	-18.7991	-14.7485	-6.10834
 575	1	1	-0.079307	-19.4486	-18.5788	-5.95657
 576	1	1	-0.073979	-20.2051	-16.3421	-6.5574
 577	1	1	0.031918	-20.4456	-17.7336	-6.48131
 578	1	3	-0.235323	-21.564	-18.2794	-7.073
 579	1	1	0.139602	-22.6226	-18.8973	-6.43443
 580	1	1	-0.107898	-23.9071	-18.3546	-6.58343
 581	1	1	-0.094745	-22.4804	-20.1261	-5.76607
 582	1	1	-0.163657	-25.0348	-19.0329	-6.09029
 583	1	1	-0.253044	-23.6084	-20.8012	-5.25574
 584	1	2	0.134377	-24.0366	-17.4173	-7.11434
 585	1	1	-0.00458	-24.9144	-20.2793	-5.43888
 586	1	2	0.169279	-21.5019	-20.5797	-5.67529
 587	1	2	0.169448	-26.0185	-18.5904	-6.2359
 588	1	1	-0.039038	-15.4707	-16.1773	-7.13247
 589	1	1	-0.435237	-14.3592	-16.6702	-7.83937
 590	1	1	0.120439	-15.6752	-16.5543	-5.79617
 591	1	1	0.323935	-13.4304	-17.5436	-7.22733
 592	1	1	-0.012898	-14.7648	-17.4177	-5.16822
 593	1	2	0.208311	-14.2219	-16.3859	-8.87658
 594	1	1	-0.466417	-13.6586	-17.914	-5.88445
 595	1	3	-0.302302	-16.8078	-16.146	-5.13631
 596	1	2	0.13972	-14.9372	-17.7195	-4.13795
 597	1	2	0.217142	-12.967	-18.6037	-5.40476
 598	1	2	0.144775	-16.1856	-15.5177	-7.61886
 599	1	2	0.161927	-17.4602	-18.7036	-5.10588
 600	1	2	0.152343	-19.5782	-19.6542	-5.98081
 601	1	4	1.02665	-21.3289	-15.2013	-7.39334
 602	1	5	-0.487155	-20.55	-14.1273	-8.00664
 603	1	5	-0.529829	-22.4883	-15.7535	-8.08481
 604	1	6	-0.538439	-21.9167	-14.3125	-6.18453
 605	1	7	0.447385	-21.6883	-13.4787	-6.62549
 606	1	2	0.176748	-23.446	-21.7399	-4.73811
 607	1	8	0.492969	-26.1801	-20.9763	-4.95646
 608	1	5	-0.49751	-27.2443	-20.3713	-4.96953
 609	1	1	0.228748	-7.93886	-11.8222	-7.60688
 610	1	1	-0.221817	-8.7624	-11.4251	-8.67021
 611	1	1	-0.090782	-7.17725	-12.9973	-7.70289
 612	1	2	0.148235	-6.52739	-13.2813	-6.88036
 613	1	1	-0.079307	-8.89713	-12.2533	-9.79618
 614	1	1	-0.073979	-7.31377	-13.8394	-8.82551
 615	1	1	0.031918	-8.23172	-13.4905	-9.83823
 616	1	3	-0.235323	-8.71817	-14.4542	-10.6896
 617	1	1	0.139602	-9.66385	-15.3251	-10.1825
 618	1	1	-0.107898	-10.7075	-14.8387	-9.37496
 619	1	1	-0.094745	-9.50096	-16.7114	-10.3257
 620	1	1	-0.163657	-11.5367	-15.7177	-8.67025
 621	1	1	-0.253044	-10.3557	-17.5984	-9.63932
 622	1	2	0.134377	-10.8536	-13.7738	-9.24594
 623	1	1	-0.00458	-11.3805	-17.1151	-8.79317
 624	1	2	0.169279	-8.67771	-17.0922	-10.926
 625	1	2	0.169448	-12.2657	-15.285	-7.99359
 626	1	1	-0.039038	-9.23716	-9.87616	-4.83907
 627	1	1	-0.435237	-10.3095	-9.80519	-3.9254
 628	1	1	0.120439	-9.01098	-11.0431	-5.58658
 629	1	1	0.323935	-11.1732	-10.9064	-3.73262
 630	1	1	-0.012898	-9.86415	-12.1492	-5.40468
 631	1	2	0.208311	-10.4436	-8.90562	-3.3316
 632	1	1	-0.466417	-10.9317	-12.0757	-4.48742
 633	1	3	-0.302302	-7.93083	-11.0867	-6.44762
 634	1	2	0.13972	-9.68466	-13.071	-5.95293
 635	1	2	0.217142	-11.5688	-12.9429	-4.32727
 636	1	2	0.144775	-8.56408	-9.03164	-4.96564
 637	1	2	0.161927	-9.33817	-10.5081	-8.5897
 638	1	2	0.152343	-9.60881	-12.0032	-10.5795
 639	1	4	1.02665	-6.37468	-15.3795	-8.90171
 640	1	5	-0.487155	-6.3261	-16.0691	-10.1884
 641	1	5	-0.529829	-6.53991	-16.1166	-7.65383
 642	1	6	-0.538439	-4.86956	-14.931	-8.56082
 643	1	7	0.447385	-4.83	-15.5798	-7.83618
 644	1	2	0.176748	-10.1917	-18.6713	-9.72712
 645	1	8	0.492969	-12.2256	-18.0789	-7.98285
 646	1	5	-0.49751	-11.8624	-19.2374	-7.82742
 647	1	1	0.228748	-15.9781	-9.1098	-9.42462
 648	1	1	-0.221817	-15.1937	-9.78973	-8.48334
 649	1	1	-0.090782	-17.1311	-8.42523	-9.01158
 650	1	2	0.148235	-17.7573	-7.93898	-9.75567