pySIMM System Object

572 atoms
616 bonds
990 angles
1451 dihedrals
165 impropers

9 atom types
10 bond types
15 angle types
5 dihedral types
2 improper types

-128.896909 128.896909 xlo xhi
-128.896909 128.896909 ylo yhi
-128.896909 128.896909 zlo zhi

Masses

   1	12.01	# ca
   2	1.008	# ha
   3	16.0	# os
   4	32.06	# sy
   5	16.0	# o
   6	16.0	# oh
   7	1.008	# ho
   8	12.01	# c
   9	1.008	# h4

Pair Coeffs

   1	0.086	3.3996695084235347	# ca
   2	0.015	2.59964245953351	# ha
   3	0.17	3.0000123434657784	# os
   4	0.25	3.563594872561357	# sy
   5	0.21	2.959921901149463	# o
   6	0.2104	3.0664733878390478	# oh
   7	1e-05	0.0	# ho
   8	0.086	3.3996695084235347	# c
   9	0.015	2.5105525877194763	# h4

Bond Coeffs

   1	345.8	1.086	# ca,ha
   2	243.4	1.7909	# ca,sy
   3	289.8	1.6497	# oh,sy
   4	637.7	1.2183	# c,o
   5	376.6	1.3696	# ca,os
   6	371.4	0.973	# ho,oh
   7	461.1	1.3984	# ca,ca
   8	345.9	1.4906	# c,ca
   9	310.7	1.1121	# c,h4
  10	493.0	1.466	# o,sy

Angle Coeffs

   1	48.18	119.88	# ca,ca,ha
   2	72.54	121.41	# o,sy,o
   3	72.32	106.68	# o,sy,oh
   4	61.48	119.42	# ca,ca,sy
   5	64.28	120.33	# c,ca,ca
   6	69.58	119.2	# ca,ca,os
   7	68.72	122.6	# ca,c,o
   8	54.22	120.7	# h4,c,o
   9	46.43	115.14	# ca,c,h4
  10	44.17	106.42	# ho,oh,sy
  11	65.46	101.3	# ca,sy,oh
  12	65.77	108.35	# ca,sy,o
  13	63.48	119.89	# ca,os,ca
  14	66.62	120.02	# ca,ca,ca
  15	63.0	118.11	# ca,c,ca

Dihedral Coeffs

   1	1	1.3	2	180	# X,ca,sy,X
   2	1	9.5	1	180	# X,oh,sy,X
   3	1	3.625	2	180	# X,ca,ca,X
   4	1	1.0	2	180	# X,c,ca,X
   5	1	0.9	2	180	# X,ca,os,X

Improper Coeffs

   1	10.5	-1	2	# c,X,X,o
   2	1.1	-1	2	# ca,X,X,ha

Atoms

   1	1	1	0.228748	51.5195	-55.8747	4.29862
   2	1	1	-0.221817	52.6216	-56.7311	4.14836
   3	1	1	-0.090782	50.409	-56.3043	5.04919
   4	1	2	0.148235	49.5354	-55.6654	5.14229
   5	1	1	-0.079307	52.6389	-57.9835	4.79156
   6	1	1	-0.073979	50.4293	-57.542	5.71737
   7	1	1	0.031918	51.5544	-58.38	5.59422
   8	1	3	-0.235323	51.6401	-59.5471	6.31611
   9	1	1	0.139602	51.6781	-60.7988	5.74659
  10	1	1	-0.107898	52.4601	-61.7924	6.3547
  11	1	1	-0.094745	50.9176	-61.1097	4.60607
  12	1	1	-0.163657	52.5001	-63.0913	5.81636
  13	1	1	-0.253044	50.9561	-62.4091	4.06724
  14	1	2	0.134377	53.0334	-61.5495	7.24479
  15	1	1	-0.00458	51.7491	-63.41	4.66687
  16	1	2	0.169279	50.2821	-60.3514	4.15656
  17	1	2	0.169448	53.1114	-63.8507	6.29741
  18	1	1	-0.039038	50.225	-52.6807	3.2127
  19	1	1	-0.435237	49.3865	-51.628	3.63992
  20	1	1	0.120439	50.818	-53.5425	4.1484
  21	1	1	0.323935	49.0824	-51.4427	5.01194
  22	1	1	-0.012898	50.6406	-53.2841	5.51843
  23	1	2	0.208311	48.9839	-50.9499	2.8949
  24	1	1	-0.466417	49.77	-52.2629	5.93535
  25	1	3	-0.302302	51.556	-54.6253	3.70937
  26	1	2	0.13972	51.1454	-53.9015	6.25815
  27	1	2	0.217142	49.6108	-52.1041	7.00037
  28	1	2	0.144775	50.4128	-52.8432	2.15394
  29	1	2	0.161927	53.4716	-56.4081	3.55412
  30	1	2	0.152343	53.5061	-58.6335	4.70175
  31	1	4	1.02665	49.0208	-57.9908	6.74438
  32	1	5	-0.487155	47.9779	-56.9675	6.77567
  33	1	5	-0.529829	48.7199	-59.4095	6.58497
  34	1	6	-0.538439	49.6572	-58.082	8.22017
  35	1	7	0.447385	49.6258	-59.0536	8.20934
  36	1	2	0.176748	50.3593	-62.6504	3.1888
  37	1	8	0.492969	51.7902	-64.8039	4.10155
  38	1	5	-0.49751	51.2004	-65.1441	3.08909
  39	1	1	0.228748	41.0441	-45.0255	3.12202
  40	1	1	-0.221817	40.6417	-46.3622	3.25752
  41	1	1	-0.090782	42.385	-44.7297	2.83688
  42	1	2	0.148235	42.6834	-43.6894	2.73529
  43	1	1	-0.079307	41.5796	-47.3989	3.09201
  44	1	1	-0.073979	43.3344	-45.7608	2.66328
  45	1	1	0.031918	42.9271	-47.1109	2.80661
  46	1	3	-0.235323	43.7485	-48.1815	2.51139
  47	1	1	0.139602	44.7367	-48.7383	3.30048
  48	1	1	-0.107898	45.3888	-49.8886	2.82873
  49	1	1	-0.094745	45.1266	-48.1939	4.53366
  50	1	1	-0.163657	46.4491	-50.4675	3.55347
  51	1	1	-0.253044	46.221	-48.7399	5.22942
  52	1	2	0.134377	45.0618	-50.3354	1.89364
  53	1	1	-0.00458	46.9277	-49.8647	4.74068
  54	1	2	0.169279	44.621	-47.3173	4.92896
  55	1	2	0.169448	46.8793	-51.3908	3.17965
  56	1	1	-0.039038	39.169	-44.1385	1.04769
  57	1	1	-0.435237	38.2644	-43.6302	0.0955311
  58	1	1	0.120439	39.2623	-43.5446	2.31827
  59	1	1	0.323935	37.4283	-42.5203	0.363698
  60	1	1	-0.012898	38.4571	-42.4268	2.6007
  61	1	2	0.208311	38.2195	-44.0934	-0.888069
  62	1	1	-0.466417	37.5609	-41.9122	1.63611
  63	1	3	-0.302302	40.1359	-44.0025	3.28972
  64	1	2	0.13972	38.5507	-41.9478	3.57256
  65	1	2	0.217142	37.0055	-41.0094	1.86982
  66	1	2	0.144775	39.7988	-44.9862	0.790712
  67	1	2	0.161927	39.6028	-46.5895	3.47796
  68	1	2	0.152343	41.2613	-48.4365	3.16054
  69	1	4	1.02665	45.0172	-45.2665	2.2314
  70	1	5	-0.487155	45.0935	-43.929	1.64993
  71	1	5	-0.529829	45.9097	-45.6578	3.31517
  72	1	6	-0.538439	45.5448	-46.3328	1.14769
  73	1	7	0.447385	46.1218	-46.7598	1.80364
  74	1	2	0.176748	46.5333	-48.2729	6.16247
  75	1	8	0.492969	48.113	-50.3872	5.54622
  76	1	5	-0.49751	48.2443	-49.9975	6.70034
  77	1	1	0.228748	27.919	-38.7352	-1.33485
  78	1	1	-0.221817	28.465	-39.8875	-0.745281
  79	1	1	-0.090782	28.7302	-37.6093	-1.53548
  80	1	2	0.148235	28.3099	-36.7326	-2.02263
  81	1	1	-0.079307	29.8079	-39.8958	-0.313026
  82	1	1	-0.073979	30.0742	-37.61	-1.1071
  83	1	1	0.031918	30.6163	-38.7551	-0.482221
  84	1	3	-0.235323	31.8729	-38.7006	0.0933401
  85	1	1	0.139602	32.9178	-39.5746	-0.130077
  86	1	1	-0.107898	33.4167	-40.3554	0.927003
  87	1	1	-0.094745	33.5878	-39.5846	-1.36193
  88	1	1	-0.163657	34.5669	-41.1555	0.752619
  89	1	1	-0.253044	34.7475	-40.3652	-1.52879
  90	1	2	0.134377	32.9078	-40.3348	1.88647
  91	1	1	-0.00458	35.2708	-41.1515	-0.474574
  92	1	2	0.169279	33.2263	-38.9645	-2.17859
  93	1	2	0.169448	34.8951	-41.785	1.57522
  94	1	1	-0.039038	24.2405	-38.5528	-1.71853
  95	1	1	-0.435237	23.0289	-38.4283	-1.00816
  96	1	1	0.120439	25.4713	-38.5978	-1.04354
  97	1	1	0.323935	23.0104	-38.331	0.403206
  98	1	1	-0.012898	25.4746	-38.5164	0.362217
  99	1	2	0.208311	22.0946	-38.437	-1.56343
 100	1	1	-0.466417	24.2576	-38.3924	1.06887
 101	1	3	-0.302302	26.6226	-38.7265	-1.80202
 102	1	2	0.13972	26.4145	-38.5545	0.906617
 103	1	2	0.217142	24.2703	-38.3464	2.1558
 104	1	2	0.144775	24.233	-38.6255	-2.80361
 105	1	2	0.161927	27.8417	-40.7686	-0.622933
 106	1	2	0.152343	30.216	-40.7761	0.176576
 107	1	4	1.02665	31.0717	-36.1357	-1.37571
 108	1	5	-0.487155	32.3468	-36.5593	-1.94832
 109	1	5	-0.529829	30.2928	-35.0155	-1.89861
 110	1	6	-0.538439	31.5501	-35.7625	0.122696
 111	1	7	0.447385	32.2994	-36.3783	0.118403
 112	1	2	0.176748	35.2547	-40.3548	-2.49296
 113	1	8	0.492969	36.5056	-42.004	-0.744087
 114	1	5	-0.49751	36.7495	-42.3066	-1.90577
 115	1	1	0.228748	13.1412	-34.9917	-1.48129
 116	1	1	-0.221817	14.0494	-34.2185	-0.735012
 117	1	1	-0.090782	13.5585	-36.2277	-2.00113
 118	1	2	0.148235	12.8479	-36.8341	-2.55729
 119	1	1	-0.079307	15.3955	-34.6126	-0.628843
 120	1	1	-0.073979	14.9054	-36.6411	-1.88309
 121	1	1	0.031918	15.8366	-35.8045	-1.22775
 122	1	3	-0.235323	17.1843	-35.9288	-1.47588
 123	1	1	0.139602	18.2085	-36.4201	-0.696373
 124	1	1	-0.107898	19.5007	-35.989	-1.02805
 125	1	1	-0.094745	18.0406	-37.3917	0.305923
 126	1	1	-0.163657	20.6284	-36.5377	-0.397436
 127	1	1	-0.253044	19.1769	-37.9554	0.930727
 128	1	2	0.134377	19.6236	-35.2362	-1.80151
 129	1	1	-0.00458	20.4875	-37.5647	0.558894
 130	1	2	0.169279	17.0421	-37.729	0.571302
 131	1	2	0.169448	21.6138	-36.1687	-0.672055
 132	1	1	-0.039038	10.4471	-32.5447	-1.77728
 133	1	1	-0.435237	10.2834	-31.1508	-1.97108
 134	1	1	0.120439	11.6502	-33.1825	-2.13653
 135	1	1	0.323935	11.3316	-30.3688	-2.51185
 136	1	1	-0.012898	12.6391	-32.4332	-2.79826
 137	1	2	0.208311	9.37706	-30.6664	-1.61647
 138	1	1	-0.466417	12.4859	-31.0469	-2.95978
 139	1	3	-0.302302	11.8794	-34.5054	-1.78402
 140	1	2	0.13972	13.5601	-32.9122	-3.12121
 141	1	2	0.217142	13.3051	-30.4682	-3.38125
 142	1	2	0.144775	9.66791	-33.1273	-1.2912
 143	1	2	0.161927	13.7301	-33.2677	-0.317387
 144	1	2	0.152343	16.1196	-33.9481	-0.163901
 145	1	4	1.02665	15.3876	-38.2162	-2.62309
 146	1	5	-0.487155	14.3473	-38.8262	-3.44663
 147	1	5	-0.529829	16.7979	-38.2921	-2.98795
 148	1	6	-0.538439	15.5336	-39.1642	-1.33375
 149	1	7	0.447385	16.4501	-39.3741	-1.58806
 150	1	2	0.176748	19.0467	-38.7224	1.69323
 151	1	8	0.492969	21.7068	-38.2109	1.19498
 152	1	5	-0.49751	21.632	-38.6425	2.3382
 153	1	1	0.228748	6.56008	-21.1875	-1.49204
 154	1	1	-0.221817	7.79985	-21.6092	-2.00829
 155	1	1	-0.090782	5.51439	-22.1128	-1.38288
 156	1	2	0.148235	4.54489	-21.7661	-1.03353
 157	1	1	-0.079307	7.97402	-22.9546	-2.4101
 158	1	1	-0.073979	5.67442	-23.4508	-1.78653
 159	1	1	0.031918	6.91289	-23.8816	-2.30425
 160	1	3	-0.235323	7.0085	-25.1525	-2.84366
 161	1	1	0.139602	8.01263	-26.0863	-2.66848
 162	1	1	-0.107898	8.99249	-25.962	-1.6697
 163	1	1	-0.094745	8.03943	-27.2068	-3.51971
 164	1	1	-0.163657	10.0331	-26.9046	-1.58737
 165	1	1	-0.253044	9.0671	-28.1693	-3.42011
 166	1	2	0.134377	8.96905	-25.1232	-0.981247
 167	1	1	-0.00458	10.0935	-28.0086	-2.46519
 168	1	2	0.169279	7.2724	-27.3029	-4.28366
 169	1	2	0.169448	10.8277	-26.7594	-0.858322
 170	1	1	-0.039038	8.18703	-18.8112	-0.203342
 171	1	1	-0.435237	8.7858	-17.6147	0.254626
 172	1	1	0.120439	6.9505	-18.7623	-0.87136
 173	1	1	0.323935	8.16978	-16.3501	0.0789618
 174	1	1	-0.012898	6.32453	-17.5176	-1.04522
 175	1	2	0.208311	9.72888	-17.6616	0.795236
 176	1	1	-0.466417	6.91812	-16.3305	-0.57615
 177	1	3	-0.302302	6.21934	-19.8719	-1.25008
 178	1	2	0.13972	5.34407	-17.4866	-1.51478
 179	1	2	0.217142	6.36628	-15.3993	-0.673048
 180	1	2	0.144775	8.65949	-19.7688	-0.0030376
 181	1	2	0.161927	8.59706	-20.8884	-2.16056
 182	1	2	0.152343	8.91244	-23.2666	-2.86215
 183	1	4	1.02665	4.22557	-24.5232	-1.72219
 184	1	5	-0.487155	4.56994	-25.9408	-1.66014
 185	1	5	-0.529829	3.13064	-23.9669	-0.931507
 186	1	6	-0.538439	3.70664	-24.4866	-3.2476
 187	1	7	0.447385	3.79816	-25.4467	-3.34738
 188	1	2	0.176748	9.1041	-28.9907	-4.13334
 189	1	8	0.492969	11.3517	-28.8454	-2.48527
 190	1	5	-0.49751	12.4232	-28.2626	-2.37594
 191	1	1	0.228748	7.36256	-6.03139	0.412749
 192	1	1	-0.221817	8.56185	-6.59736	-0.0457127
 193	1	1	-0.090782	6.17668	-6.78498	0.353451
 194	1	2	0.148235	5.25245	-6.36012	0.73439
 195	1	1	-0.079307	8.5796	-7.89551	-0.587248
 196	1	1	-0.073979	6.18524	-8.09313	-0.186424
 197	1	1	0.031918	7.3966	-8.65026	-0.654171
 198	1	3	-0.235323	7.42403	-9.86062	-1.31343
 199	1	1	0.139602	7.77187	-11.0954	-0.794422
 200	1	1	-0.107898	7.78097	-12.1921	-1.67103
 201	1	1	-0.094745	8.10172	-11.2997	0.557815
 202	1	1	-0.163657	8.1095	-13.4823	-1.21336
 203	1	1	-0.253044	8.43037	-12.5937	1.01756
 204	1	2	0.134377	7.52913	-12.0328	-2.71559
 205	1	1	-0.00458	8.42038	-13.7084	0.145422
 206	1	2	0.169279	8.09986	-10.4619	1.24859
 207	1	2	0.169448	8.13221	-14.3024	-1.92687
 208	1	1	-0.039038	5.56972	-3.49138	0.0487321
 209	1	1	-0.435237	4.66379	-2.41737	0.192083
 210	1	1	0.120439	6.4375	-3.82302	1.10493
 211	1	1	0.323935	4.61308	-1.63585	1.37094
 212	1	1	-0.012898	6.38289	-3.07273	2.29034
 213	1	2	0.208311	3.99558	-2.16403	-0.629192
 214	1	1	-0.466417	5.47507	-2.00384	2.4295
 215	1	3	-0.302302	7.42928	-4.7787	0.988738
 216	1	2	0.13972	7.06092	-3.32467	3.10192
 217	1	2	0.217142	5.43523	-1.46663	3.37275
 218	1	2	0.144775	5.61883	-4.04309	-0.886873
 219	1	2	0.161927	9.47808	-6.01669	0.0120907
 220	1	2	0.152343	9.5052	-8.31378	-0.975665
 221	1	4	1.02665	4.63159	-9.00819	-0.267157
 222	1	5	-0.487155	4.69554	-10.4196	-0.636013
 223	1	5	-0.529829	3.7458	-8.54397	0.795838
 224	1	6	-0.538439	3.82437	-8.26061	-1.43841
 225	1	7	0.447385	3.09471	-8.05796	-0.827667
 226	1	2	0.176748	8.69099	-12.7399	2.06471
 227	1	8	0.492969	8.80377	-15.0868	0.662257
 228	1	5	-0.49751	9.60841	-15.1741	1.58132
 229	1	1	0.228748	2.28466	5.48743	7.8669
 230	1	1	-0.221817	2.75623	4.16885	7.8503
 231	1	1	-0.090782	2.61324	6.36702	6.82421
 232	1	2	0.148235	2.22862	7.38403	6.83908
 233	1	1	-0.079307	3.57241	3.72856	6.79474
 234	1	1	-0.073979	3.42144	5.93086	5.75509
 235	1	1	0.031918	3.90093	4.60256	5.74187
 236	1	3	-0.235323	4.7128	4.14952	4.72561
 237	1	1	0.139602	4.44095	3.02502	3.97247
 238	1	1	-0.107898	5.50676	2.26632	3.46467
 239	1	1	-0.094745	3.1222	2.65265	3.66022
 240	1	1	-0.163657	5.26156	1.12944	2.66929
 241	1	1	-0.253044	2.87686	1.51414	2.8688
 242	1	2	0.134377	6.52623	2.5739	3.6794
 243	1	1	-0.00458	3.93929	0.722811	2.37484
 244	1	2	0.169279	2.29231	3.26043	4.01108
 245	1	2	0.169448	6.10951	0.587599	2.25778
 246	1	1	-0.039038	2.90836	7.3605	10.1589
 247	1	1	-0.435237	3.04732	8.50318	10.9727
 248	1	1	0.120439	1.65286	7.03344	9.61643
 249	1	1	0.323935	1.94085	9.33093	11.2633
 250	1	1	-0.012898	0.5518	7.86218	9.86717
 251	1	2	0.208311	4.01577	8.74691	11.405
 252	1	1	-0.466417	0.697872	9.00536	10.6711
 253	1	3	-0.302302	1.46222	5.88272	8.88981
 254	1	2	0.13972	-0.414814	7.60923	9.43833
 255	1	2	0.217142	-0.166296	9.64317	10.8388
 256	1	2	0.144775	3.76247	6.71446	9.96998
 257	1	2	0.161927	2.48977	3.49691	8.66098
 258	1	2	0.152343	3.95391	2.71069	6.79017
 259	1	4	1.02665	3.80105	7.10372	4.44069
 260	1	5	-0.487155	3.96258	6.43524	3.1533
 261	1	5	-0.529829	3.07371	8.36445	4.56538
 262	1	6	-0.538439	5.3518	7.44983	4.70732
 263	1	7	0.447385	5.6269	7.07032	3.85758
 264	1	2	0.176748	1.85026	1.25149	2.6169
 265	1	8	0.492969	3.63336	-0.470901	1.48339
 266	1	5	-0.49751	2.59286	-0.482472	0.838168
 267	1	1	0.228748	-6.21799	9.87817	15.3225
 268	1	1	-0.221817	-5.0625	9.42568	15.9744
 269	1	1	-0.090782	-6.20186	11.1161	14.6616
 270	1	2	0.148235	-7.12234	11.5126	14.2433
 271	1	1	-0.079307	-3.87559	10.1753	15.911
 272	1	1	-0.073979	-5.00615	11.8563	14.5612
 273	1	1	0.031918	-3.82497	11.3611	15.1545
 274	1	3	-0.235323	-2.64614	12.0704	15.0563
 275	1	1	0.139602	-1.50197	11.653	14.4006
 276	1	1	-0.107898	-0.605437	12.6339	13.9433
 277	1	1	-0.094745	-1.19938	10.2953	14.1799
 278	1	1	-0.163657	0.564343	12.2687	13.2494
 279	1	1	-0.253044	-0.0235185	9.92945	13.5062
 280	1	2	0.134377	-0.829152	13.6827	14.1174
 281	1	1	-0.00458	0.855037	10.9123	13.0026
 282	1	2	0.169279	-1.86396	9.51235	14.5208
 283	1	2	0.169448	1.24119	13.0388	12.8834
 284	1	1	-0.039038	-8.79565	7.35531	14.8444
 285	1	1	-0.435237	-9.58823	6.67449	13.9036
 286	1	1	0.120439	-8.09207	8.51188	14.4793
 287	1	1	0.323935	-9.72667	7.14212	12.5795
 288	1	1	-0.012898	-8.18067	8.97079	13.1488
 289	1	2	0.208311	-10.1134	5.76878	14.2
 290	1	1	-0.466417	-8.9951	8.29671	12.2138
 291	1	3	-0.302302	-7.37656	9.15409	15.4721
 292	1	2	0.13972	-7.63312	9.85119	12.8317
 293	1	2	0.217142	-9.03927	8.6628	11.1915
 294	1	2	0.144775	-8.71949	6.98736	15.8648
 295	1	2	0.161927	-5.10023	8.50289	16.5462
 296	1	2	0.152343	-2.99188	9.83704	16.446
 297	1	4	1.02665	-5.04863	13.4365	13.6962
 298	1	5	-0.487155	-6.34033	13.7277	13.0777
 299	1	5	-0.529829	-4.29224	14.451	14.4216
 300	1	6	-0.538439	-3.97881	13.2648	12.5109
 301	1	7	0.447385	-3.40954	13.9394	12.9226
 302	1	2	0.176748	0.197126	8.87274	13.3647
 303	1	8	0.492969	2.07358	10.52	12.2004
 304	1	5	-0.49751	3.12294	11.1383	12.3187
 305	1	1	0.228748	-15.6958	10.9018	5.35614
 306	1	1	-0.221817	-14.5376	11.5137	5.87235
 307	1	1	-0.090782	-15.8252	9.5094	5.40047
 308	1	2	0.148235	-16.7235	9.05207	4.99327
 309	1	1	-0.079307	-13.4956	10.7205	6.38454
 310	1	1	-0.073979	-14.7908	8.70748	5.91889
 311	1	1	0.031918	-13.6133	9.32006	6.40311
 312	1	3	-0.235323	-12.4947	8.57372	6.68437
 313	1	1	0.139602	-12.0988	8.08947	7.90895
 314	1	1	-0.107898	-11.5778	6.78965	7.94377
 315	1	1	-0.094745	-12.1193	8.86374	9.08367
 316	1	1	-0.163657	-11.103	6.24729	9.14675
 317	1	1	-0.253044	-11.6092	8.33139	10.2884
 318	1	2	0.134377	-11.5468	6.20225	7.02948
 319	1	1	-0.00458	-11.092	7.01442	10.3282
 320	1	2	0.169279	-12.5152	9.87477	9.05536
 321	1	2	0.169448	-10.7276	5.22557	9.16271
 322	1	1	-0.039038	-17.2341	13.6091	5.96259
 323	1	1	-0.435237	-17.275	15.0109	6.0317
 324	1	1	0.120439	-16.7806	12.984	4.79327
 325	1	1	0.323935	-16.8849	15.8032	4.93241
 326	1	1	-0.012898	-16.3866	13.7533	3.68753
 327	1	2	0.208311	-17.6179	15.4999	6.9413
 328	1	1	-0.466417	-16.4432	15.1575	3.75574
 329	1	3	-0.302302	-16.6982	11.6182	4.74583
 330	1	2	0.13972	-16.0285	13.2567	2.78861
 331	1	2	0.217142	-16.1237	15.747	2.89888
 332	1	2	0.144775	-17.5426	13.0025	6.81032
 333	1	2	0.161927	-14.4194	12.5927	5.83186
 334	1	2	0.152343	-12.571	11.1853	6.71681
 335	1	4	1.02665	-15.0281	6.92049	5.90296
 336	1	5	-0.487155	-16.2975	6.50394	5.31116
 337	1	5	-0.529829	-13.7869	6.2016	5.63781
 338	1	6	-0.538439	-15.1137	6.55814	7.46789
 339	1	7	0.447385	-14.3175	6.00357	7.41067
 340	1	2	0.176748	-11.6406	8.93363	11.1948
 341	1	8	0.492969	-10.5947	6.36593	11.6001
 342	1	5	-0.49751	-10.8373	5.18126	11.7927
 343	1	1	0.228748	-19.3122	22.8537	4.6674
 344	1	1	-0.221817	-20.2822	22.1426	3.95027
 345	1	1	-0.090782	-18.1128	23.2305	4.04106
 346	1	2	0.148235	-17.3947	23.8273	4.59659
 347	1	1	-0.079307	-19.9903	21.6808	2.65743
 348	1	1	-0.073979	-17.822	22.7987	2.7284
 349	1	1	0.031918	-18.7316	21.934	2.07893
 350	1	3	-0.235323	-18.2827	21.0357	1.13419
 351	1	1	0.139602	-17.8248	19.8581	1.6901
 352	1	1	-0.107898	-18.7638	18.8969	2.10533
 353	1	1	-0.094745	-16.5181	19.8137	2.20787
 354	1	1	-0.163657	-18.443	18.0006	3.13848
 355	1	1	-0.253044	-16.2024	18.9378	3.25663
 356	1	2	0.134377	-19.7783	18.936	1.72217
 357	1	1	-0.00458	-17.1823	18.0668	3.76231
 358	1	2	0.169279	-15.7792	20.5352	1.88508
 359	1	2	0.169448	-19.21	17.3373	3.53162
 360	1	1	-0.039038	-21.155	24.3582	7.38771
 361	1	1	-0.435237	-21.9932	25.4759	7.60941
 362	1	1	0.120439	-20.2943	24.3294	6.27462
 363	1	1	0.323935	-21.9759	26.5755	6.72298
 364	1	1	-0.012898	-20.2104	25.4497	5.44161
 365	1	2	0.208311	-22.69	25.4803	8.44436
 366	1	1	-0.466417	-21.0319	26.5523	5.6715
 367	1	3	-0.302302	-19.5629	23.2067	5.9736
 368	1	2	0.13972	-19.5283	25.4607	4.5992
 369	1	2	0.217142	-20.9452	27.3907	4.99169
 370	1	2	0.144775	-21.1966	23.496	8.04896
 371	1	2	0.161927	-21.2207	21.882	4.43044
 372	1	2	0.152343	-20.6918	21.0255	2.1496
 373	1	4	1.02665	-16.2635	23.3114	1.96148
 374	1	5	-0.487155	-15.3069	23.5927	3.02749
 375	1	5	-0.529829	-15.8858	22.635	0.723846
 376	1	6	-0.538439	-16.5707	24.8286	1.5113
 377	1	7	0.447385	-16.1314	25.2456	2.27116
 378	1	2	0.176748	-15.2272	19.0008	3.73569
 379	1	8	0.492969	-16.932	17.3079	5.0291
 380	1	5	-0.49751	-17.0178	17.8843	6.10501
 381	1	1	0.228748	-20.79	25.1581	-0.0791429
 382	1	1	-0.221817	-21.9356	25.8653	-0.47746
 383	1	1	-0.090782	-19.8888	25.7469	0.814331
 384	1	2	0.148235	-18.9887	25.201	1.06892
 385	1	1	-0.079307	-22.1938	27.1397	0.0564276
 386	1	1	-0.073979	-20.1205	27.0338	1.34466
 387	1	1	0.031918	-21.3111	27.7188	0.987492
 388	1	3	-0.235323	-21.7174	28.8855	1.60669
 389	1	1	0.139602	-22.4367	28.8379	2.78958
 390	1	1	-0.107898	-22.1869	29.7979	3.78665
 391	1	1	-0.094745	-23.2611	27.7358	3.08741
 392	1	1	-0.163657	-22.5717	29.5479	5.11875
 393	1	1	-0.253044	-23.6671	27.4974	4.40775
 394	1	2	0.134377	-21.5506	30.6484	3.56058
 395	1	1	-0.00458	-23.2274	28.3445	5.44509
 396	1	2	0.169279	-23.4803	26.9901	2.33121
 397	1	2	0.169448	-22.1998	30.1906	5.91416
 398	1	1	-0.039038	-19.4094	24.3617	-2.6677
 399	1	1	-0.435237	-19.4861	24.4451	-4.06707
 400	1	1	0.120439	-20.4467	23.7454	-1.95201
 401	1	1	0.323935	-20.5924	23.9162	-4.76412
 402	1	1	-0.012898	-21.501	23.1205	-2.63773
 403	1	2	0.208311	-18.7376	25.016	-4.61245
 404	1	1	-0.466417	-21.579	23.214	-4.04039
 405	1	3	-0.302302	-20.518	23.9105	-0.592233
 406	1	2	0.13972	-22.3014	22.652	-2.07134
 407	1	2	0.217142	-22.4486	22.8242	-4.5635
 408	1	2	0.144775	-18.5961	24.8457	-2.13103
 409	1	2	0.161927	-22.6298	25.417	-1.18135
 410	1	2	0.152343	-23.1011	27.6722	-0.219594
 411	1	4	1.02665	-18.793	27.7363	2.35912
 412	1	5	-0.487155	-17.9757	26.7411	3.05379
 413	1	5	-0.529829	-18.162	28.8197	1.61698
 414	1	6	-0.538439	-19.4108	28.7028	3.47167
 415	1	7	0.447385	-18.9584	29.4608	3.05538
 416	1	2	0.176748	-24.1515	26.5527	4.64839
 417	1	8	0.492969	-22.9821	27.7153	6.79003
 418	1	5	-0.49751	-23.4393	28.1652	7.8306
 419	1	1	0.228748	-19.9459	32.5843	-8.41556
 420	1	1	-0.221817	-19.0657	31.7152	-7.75932
 421	1	1	-0.090782	-21.2307	32.8061	-7.89319
 422	1	2	0.148235	-21.8753	33.5583	-8.33789
 423	1	1	-0.079307	-19.5137	30.9664	-6.66209
 424	1	1	-0.073979	-21.7132	32.0091	-6.8414
 425	1	1	0.031918	-20.8645	31.0363	-6.27695
 426	1	3	-0.235323	-21.3631	30.0813	-5.43034
 427	1	1	0.139602	-21.3627	28.7297	-5.72942
 428	1	1	-0.107898	-21.9634	27.8619	-4.81041
 429	1	1	-0.094745	-20.7679	28.1902	-6.89355
 430	1	1	-0.163657	-21.8881	26.4729	-4.99687
 431	1	1	-0.253044	-20.6663	26.7991	-7.0673
 432	1	2	0.134377	-22.4592	28.2724	-3.93546
 433	1	1	-0.00458	-21.1897	25.924	-6.09794
 434	1	2	0.169279	-20.3418	28.833	-7.65472
 435	1	2	0.169448	-22.3293	25.8257	-4.24406
 436	1	1	-0.039038	-21.5601	33.0824	-10.9357
 437	1	1	-0.435237	-22.2989	33.6051	-12.0164
 438	1	1	0.120439	-20.2947	33.62	-10.6173
 439	1	1	0.323935	-21.7802	34.6406	-12.8228
 440	1	1	-0.012898	-19.753	34.6142	-11.4362
 441	1	2	0.208311	-23.2816	33.1976	-12.2475
 442	1	1	-0.466417	-20.481	35.1162	-12.5253
 443	1	3	-0.302302	-19.511	33.1868	-9.56901
 444	1	2	0.13972	-18.754	34.9818	-11.2242
 445	1	2	0.217142	-20.0139	35.8697	-13.1524
 446	1	2	0.144775	-21.9735	32.2621	-10.3549
 447	1	2	0.161927	-18.0537	31.5926	-8.13413
 448	1	2	0.152343	-18.851	30.2496	-6.18208
 449	1	4	1.02665	-23.4034	32.2849	-6.28006
 450	1	5	-0.487155	-24.1937	33.0709	-7.22676
 451	1	5	-0.529829	-23.9459	31.1465	-5.5455
 452	1	6	-0.538439	-23.1386	33.2464	-5.01463
 453	1	7	0.447385	-23.2933	32.5252	-4.38102
 454	1	2	0.176748	-20.131	26.3965	-7.9265
 455	1	8	0.492969	-20.8902	24.4435	-6.14431
 456	1	5	-0.49751	-20.4292	23.9144	-7.1462
 457	1	1	0.228748	-17.6598	40.7621	-12.6575
 458	1	1	-0.221817	-17.488	39.7952	-13.6569
 459	1	1	-0.090782	-18.6512	41.746	-12.7853
 460	1	2	0.148235	-18.777	42.4796	-11.9938
 461	1	1	-0.079307	-18.3888	39.7407	-14.7301
 462	1	1	-0.073979	-19.567	41.6938	-13.854
 463	1	1	0.031918	-19.4646	40.6451	-14.7927
 464	1	3	-0.235323	-20.543	40.2862	-15.5667
 465	1	1	0.139602	-21.21	39.1292	-15.2157
 466	1	1	-0.107898	-21.4572	38.8472	-13.8586
 467	1	1	-0.094745	-21.524	38.1676	-16.1897
 468	1	1	-0.163657	-21.9688	37.6037	-13.4736
 469	1	1	-0.253044	-22.0263	36.9082	-15.8013
 470	1	2	0.134377	-21.2105	39.5731	-13.0905
 471	1	1	-0.00458	-22.2126	36.6047	-14.4355
 472	1	2	0.169279	-21.3238	38.3834	-17.2361
 473	1	2	0.169448	-22.1216	37.399	-12.4161
 474	1	1	-0.039038	-18.7501	40.1624	-9.78809
 475	1	1	-0.435237	-19.4827	39.2519	-9.00094
 476	1	1	0.120439	-17.6743	39.7155	-10.5728
 477	1	1	0.323935	-19.1717	37.8718	-8.99349
 478	1	1	-0.012898	-17.3202	38.3579	-10.5442
 479	1	2	0.208311	-20.2898	39.6283	-8.37743
 480	1	1	-0.466417	-18.0574	37.4525	-9.75637
 481	1	3	-0.302302	-17.048	40.5766	-11.4466
 482	1	2	0.13972	-16.4841	38.0112	-11.1462
 483	1	2	0.217142	-17.7639	36.4062	-9.72206
 484	1	2	0.144775	-19.0192	41.2157	-9.80007
 485	1	2	0.161927	-16.7295	39.0275	-13.5401
 486	1	2	0.152343	-18.3344	38.9205	-15.4419
 487	1	4	1.02665	-20.9521	42.8471	-13.8565
 488	1	5	-0.487155	-20.8919	43.8288	-12.7762
 489	1	5	-0.529829	-21.3407	43.1841	-15.2204
 490	1	6	-0.538439	-22.2178	41.9062	-13.5416
 491	1	7	0.447385	-22.5262	41.9792	-14.4633
 492	1	2	0.176748	-22.2234	36.1456	-16.5535
 493	1	8	0.492969	-22.5818	35.216	-13.9808
 494	1	5	-0.49751	-23.499	34.6045	-14.5114
 495	1	1	0.228748	-27.7007	36.7493	-11.054
 496	1	1	-0.221817	-26.4669	36.1047	-10.8472
 497	1	1	-0.090782	-28.3031	37.4244	-9.97731
 498	1	2	0.148235	-29.2791	37.8769	-10.1238
 499	1	1	-0.079307	-25.8282	36.1674	-9.6071
 500	1	1	-0.073979	-27.647	37.5202	-8.72554
 501	1	1	0.031918	-26.3787	36.9251	-8.55959
 502	1	3	-0.235323	-25.6304	37.1124	-7.41334
 503	1	1	0.139602	-24.2521	37.1933	-7.48697
 504	1	1	-0.107898	-23.4551	36.3855	-6.66434
 505	1	1	-0.094745	-23.6442	37.9554	-8.50171
 506	1	1	-0.163657	-22.0649	36.3161	-6.87745
 507	1	1	-0.253044	-22.2618	37.8592	-8.73888
 508	1	2	0.134377	-23.9244	35.7764	-5.89592
 509	1	1	-0.00458	-21.446	37.0443	-7.91993
 510	1	2	0.169279	-24.2671	38.568	-9.14896
 511	1	2	0.169448	-21.4666	35.661	-6.24629
 512	1	1	-0.039038	-29.729	34.7784	-12.6943
 513	1	1	-0.435237	-29.7769	33.3862	-12.8869
 514	1	1	0.120439	-28.5194	35.4607	-12.8824
 515	1	1	0.323935	-28.5875	32.6609	-13.1236
 516	1	1	-0.012898	-27.4354	34.7914	-13.4742
 517	1	2	0.208311	-30.7099	32.8559	-12.7178
 518	1	1	-0.466417	-27.4549	33.3893	-13.5467
 519	1	3	-0.302302	-28.3409	36.6853	-12.2812
 520	1	2	0.13972	-26.5242	35.3354	-13.7124
 521	1	2	0.217142	-26.5526	32.8539	-13.837
 522	1	2	0.144775	-30.5939	35.313	-12.3093
 523	1	2	0.161927	-25.9741	35.5565	-11.6354
 524	1	2	0.152343	-24.879	35.6533	-9.47196
 525	1	4	1.02665	-28.4459	38.3496	-7.33639
 526	1	5	-0.487155	-29.1798	37.4215	-6.48083
 527	1	5	-0.529829	-27.6098	39.3744	-6.71952
 528	1	6	-0.538439	-29.6226	39.2488	-7.98581
 529	1	7	0.447385	-29.6743	39.845	-7.22376
 530	1	2	0.176748	-21.8469	38.3924	-9.58952
 531	1	8	0.492969	-19.9612	36.8557	-8.17509
 532	1	5	-0.49751	-19.429	35.8138	-7.81534
 533	1	1	0.228748	-31.3624	30.3241	-4.33216
 534	1	1	-0.221817	-30.1573	30.6433	-4.97271
 535	1	1	-0.090782	-32.2948	29.4858	-4.96583
 536	1	2	0.148235	-33.2443	29.2788	-4.4791
 537	1	1	-0.079307	-29.8614	30.0976	-6.23336
 538	1	1	-0.073979	-32.017	28.9555	-6.24371
 539	1	1	0.031918	-30.7892	29.2543	-6.87064
 540	1	3	-0.235323	-30.4632	28.6679	-8.07269
 541	1	1	0.139602	-29.9344	29.3321	-9.15659
 542	1	1	-0.107898	-29.015	28.6743	-9.98402
 543	1	1	-0.094745	-30.3304	30.6376	-9.47501
 544	1	1	-0.163657	-28.5397	29.2952	-11.1542
 545	1	1	-0.253044	-29.8242	31.2724	-10.6227
 546	1	2	0.134377	-28.69	27.6709	-9.72613
 547	1	1	-0.00458	-28.9631	30.5927	-11.526
 548	1	2	0.169279	-31.0467	31.1513	-8.83912
 549	1	2	0.169448	-27.8391	28.7544	-11.7872
 550	1	1	-0.039038	-31.6101	28.9792	-1.64672
 551	1	1	-0.435237	-32.0653	28.3605	-0.464786
 552	1	1	0.120439	-32.1049	30.2464	-2.01046
 553	1	1	0.323935	-33.0083	29.0	0.35448
 554	1	1	-0.012898	-33.0421	30.8889	-1.18483
 555	1	2	0.208311	-31.6823	27.3882	-0.171378
 556	1	1	-0.466417	-33.4975	30.2627	-0.00861596
 557	1	3	-0.302302	-31.6399	30.9125	-3.12221
 558	1	2	0.13972	-33.4069	31.8749	-1.46223
 559	1	2	0.217142	-34.2208	30.7596	0.63045
 560	1	2	0.144775	-30.8626	28.491	-2.26658
 561	1	2	0.161927	-29.4537	31.3114	-4.48437
 562	1	2	0.152343	-28.9144	30.325	-6.71718
 563	1	4	1.02665	-33.2698	27.9754	-7.09237
 564	1	5	-0.487155	-34.4096	27.7192	-6.21475
 565	1	5	-0.529829	-33.4901	28.366	-8.48208
 566	1	6	-0.538439	-32.6456	26.4883	-7.17414
 567	1	7	0.447385	-33.481	26.0563	-6.94571
 568	1	2	0.176748	-30.1384	32.2935	-10.7756
 569	1	8	0.492969	-28.4643	31.1696	-12.8534
 570	1	5	-0.49751	-27.6886	30.5061	-13.5314
 571	1	9	0	52.4313	-65.5277	4.65176
 572	1	2	0	-33.3516	28.5242	1.26903

Velocities

   1	-0.000762387	0.000515196	-9.49795e-05
   2	-0.000427273	0.0010085	0.000418795
   3	-0.000682211	0.000136704	-0.000298103
   4	-0.00100929	-0.000350854	-0.000909296
   5	3.88804e-05	0.00108073	0.000625132
   6	-0.000238635	0.000311534	-1.10456e-05
   7	-3.19629e-05	0.000495221	0.000138936
   8	0.000145719	0.000124815	-0.0003691
   9	8.67604e-05	-0.000111202	-0.000359021
  10	4.17774e-05	-0.000378361	-7.21473e-05
  11	0.000376331	-0.000123146	-0.00018305
  12	0.000161035	-0.00038296	-5.65995e-05
  13	0.000277366	-1.18039e-05	-0.000273977
  14	-0.000269098	-0.000521433	-0.000121708
  15	0.000236148	0.000133112	-0.000101314
  16	0.000233124	0.000101552	-0.000395368
  17	2.68248e-05	-0.000380447	-6.39527e-05
  18	-0.000703026	0.000414391	0.000204236
  19	-0.000669041	0.000390268	0.000340622
  20	-0.000863978	0.000262747	9.52128e-05
  21	-0.000704342	0.000185716	0.000352289
  22	-0.00125553	-0.000280394	0.00015357
  23	-0.000488311	0.000652982	0.000384677
  24	-0.00119968	-0.0002807	0.000284309
  25	-0.00095135	0.000360526	-0.000140332
  26	-0.00166866	-0.000642943	0.000121409
  27	-0.00147481	-0.00053594	0.000361285
  28	-0.000568679	0.000590403	0.000174989
  29	-0.000606438	0.00111899	0.00029241
  30	0.000515078	0.00159222	0.00108847
  31	-0.000174865	-0.000164868	-7.87923e-05
  32	-0.000528099	-0.000526957	0.00055189
  33	0.000327166	-0.000108242	-0.00107897
  34	-0.000259285	-0.000975163	-5.48921e-05
  35	-0.000265399	-0.000933787	-0.000727019
  36	0.000531495	0.000154764	-0.000172669
  37	0.000325868	0.000662367	1.38904e-05
  38	-0.000523574	0.0011077	0.000233068
  39	-7.46331e-05	0.000323813	-0.00020432
  40	-1.56503e-05	0.000390932	0.000466959
  41	-0.000209512	0.00027413	-0.000769664
  42	-0.000294365	0.000245088	-0.00123784
  43	-6.94399e-05	0.000348626	0.000477555
  44	-0.000232182	0.000208048	-0.000634558
  45	-0.000170133	0.000270306	-3.13237e-05
  46	-0.000239109	0.000190702	0.000134935
  47	-0.000212205	0.00028984	0.000198063
  48	-0.000528227	8.96392e-06	0.000519549
  49	0.000164543	0.000736859	-0.000114416
  50	-0.000458808	0.000122001	0.00050347
  51	0.000259692	0.000877782	-0.000153669
  52	-0.000845298	-0.000339084	0.00079099
  53	-0.000122998	0.000527626	0.00018914
  54	0.000477496	0.00103648	-0.000399441
  55	-0.000661786	-7.40068e-05	0.000764532
  56	-0.000872306	-0.000653257	2.93363e-05
  57	-0.000944213	-0.00083347	6.05327e-06
  58	-0.000421364	-0.00011068	-0.000252405
  59	-0.000610158	-0.000544899	-0.000253896
  60	-0.000228883	8.21912e-05	-0.000467128
  61	-0.00125075	-0.00114354	0.000162054
  62	-0.000353386	-0.000159687	-0.00046752
  63	-0.000118936	0.000317147	-0.000326084
  64	0.000118999	0.000473902	-0.000692465
  65	-0.000144366	3.96751e-05	-0.000708229
  66	-0.00110836	-0.000883448	0.000211743
  67	5.84548e-05	0.000468598	0.000952888
  68	-5.45652e-05	0.000380197	0.000951202
  69	-0.000311585	-9.18541e-07	-0.00120519
  70	-0.000145809	-7.81715e-06	-0.00118067
  71	0.000226376	-0.00025163	-0.00176785
  72	-0.000593027	3.0347e-05	-0.00130437
  73	0.000633358	0.00115372	-0.00161455
  74	0.000638907	0.00127302	-0.00047418
  75	-0.000209703	0.00057717	0.00022307
  76	0.000255919	0.000955936	1.4543e-05
  77	0.000196878	-0.000360351	0.000643422
  78	0.000136004	-0.000259681	0.000864111
  79	9.9971e-05	-0.000274572	0.000775587
  80	0.000126494	-0.000340948	0.000639639