pySIMM System Object

838 atoms
903 bonds
1452 angles
2130 dihedrals
242 impropers

9 atom types
10 bond types
15 angle types
5 dihedral types
2 improper types

-147.550128 147.550128 xlo xhi
-147.550128 147.550128 ylo yhi
-147.550128 147.550128 zlo zhi

Masses

   1	12.01	# ca
   2	1.008	# ha
   3	16.0	# os
   4	32.06	# sy
   5	16.0	# o
   6	16.0	# oh
   7	1.008	# ho
   8	12.01	# c
   9	1.008	# h4

Pair Coeffs

   1	0.086	3.3996695084235347	# ca
   2	0.015	2.59964245953351	# ha
   3	0.17	3.0000123434657784	# os
   4	0.25	3.563594872561357	# sy
   5	0.21	2.959921901149463	# o
   6	0.2104	3.0664733878390478	# oh
   7	1e-05	0.0	# ho
   8	0.086	3.3996695084235347	# c
   9	0.015	2.5105525877194763	# h4

Bond Coeffs

   1	345.8	1.086	# ca,ha
   2	243.4	1.7909	# ca,sy
   3	289.8	1.6497	# oh,sy
   4	637.7	1.2183	# c,o
   5	376.6	1.3696	# ca,os
   6	371.4	0.973	# ho,oh
   7	461.1	1.3984	# ca,ca
   8	345.9	1.4906	# c,ca
   9	310.7	1.1121	# c,h4
  10	493.0	1.466	# o,sy

Angle Coeffs

   1	48.18	119.88	# ca,ca,ha
   2	72.54	121.41	# o,sy,o
   3	72.32	106.68	# o,sy,oh
   4	61.48	119.42	# ca,ca,sy
   5	64.28	120.33	# c,ca,ca
   6	69.58	119.2	# ca,ca,os
   7	68.72	122.6	# ca,c,o
   8	54.22	120.7	# h4,c,o
   9	46.43	115.14	# ca,c,h4
  10	44.17	106.42	# ho,oh,sy
  11	65.46	101.3	# ca,sy,oh
  12	65.77	108.35	# ca,sy,o
  13	63.48	119.89	# ca,os,ca
  14	66.62	120.02	# ca,ca,ca
  15	63.0	118.11	# ca,c,ca

Dihedral Coeffs

   1	1	1.3	2	180	# X,ca,sy,X
   2	1	9.5	1	180	# X,oh,sy,X
   3	1	3.625	2	180	# X,ca,ca,X
   4	1	1.0	2	180	# X,c,ca,X
   5	1	0.9	2	180	# X,ca,os,X

Improper Coeffs

   1	10.5	-1	2	# c,X,X,o
   2	1.1	-1	2	# ca,X,X,ha

Atoms

   1	1	1	0.228748	-40.5756	-5.38313	66.196
   2	1	1	-0.221817	-41.0573	-5.7206	67.4682
   3	1	1	-0.090782	-41.4823	-5.20279	65.1356
   4	1	2	0.148235	-41.1173	-4.92131	64.1525
   5	1	1	-0.079307	-42.4363	-5.89395	67.6783
   6	1	1	-0.073979	-42.8642	-5.39969	65.3269
   7	1	1	0.031918	-43.3411	-5.73231	66.6157
   8	1	3	-0.235323	-44.675	-5.94187	66.8739
   9	1	1	0.139602	-45.6236	-4.94532	66.8544
  10	1	1	-0.107898	-45.3025	-3.61532	67.1818
  11	1	1	-0.094745	-46.929	-5.26987	66.4556
  12	1	1	-0.163657	-46.2845	-2.61237	67.0956
  13	1	1	-0.253044	-47.9099	-4.2663	66.3657
  14	1	2	0.134377	-44.2925	-3.35824	67.4883
  15	1	1	-0.00458	-47.5945	-2.92913	66.6842
  16	1	2	0.169279	-47.1651	-6.29891	66.193
  17	1	2	0.169448	-46.0242	-1.58598	67.3419
  18	1	1	-0.039038	-38.7411	-6.15379	63.8416
  19	1	1	-0.435237	-38.0893	-6.043	62.5969
  20	1	1	0.120439	-38.5682	-5.159	64.8212
  21	1	1	0.323935	-37.2383	-4.9489	62.3146
  22	1	1	-0.012898	-37.6984	-4.08865	64.5707
  23	1	2	0.208311	-38.2222	-6.82787	61.8562
  24	1	1	-0.466417	-37.0398	-3.98958	63.3314
  25	1	3	-0.302302	-39.2164	-5.22219	66.0352
  26	1	2	0.13972	-37.5426	-3.33656	65.3404
  27	1	2	0.217142	-36.3604	-3.15988	63.1471
  28	1	2	0.144775	-39.3819	-7.00749	64.0508
  29	1	2	0.161927	-40.3554	-5.8519	68.2868
  30	1	2	0.152343	-42.81	-6.16319	68.6632
  31	1	4	1.02665	-43.9329	-5.26206	63.876
  32	1	5	-0.487155	-43.1835	-5.14777	62.6259
  33	1	5	-0.529829	-45.114	-6.11065	63.9893
  34	1	6	-0.538439	-44.6702	-3.84574	64.0847
  35	1	7	0.447385	-45.5375	-4.27108	64.2077
  36	1	2	0.176748	-48.9199	-4.52116	66.0459
  37	1	8	0.492969	-48.6341	-1.84699	66.5855
  38	1	5	-0.49751	-49.7796	-2.03863	66.2117
  39	1	1	0.228748	-37.8966	-4.54115	52.2509
  40	1	1	-0.221817	-37.7482	-3.76523	53.4096
  41	1	1	-0.090782	-38.395	-5.85318	52.358
  42	1	2	0.148235	-38.4967	-6.47632	51.4748
  43	1	1	-0.079307	-38.1063	-4.28253	54.6669
  44	1	1	-0.073979	-38.7736	-6.37296	53.6125
  45	1	1	0.031918	-38.6175	-5.59006	54.7754
  46	1	3	-0.235323	-39.0231	-6.08143	56.0001
  47	1	1	0.139602	-38.408	-5.80396	57.2019
  48	1	1	-0.107898	-39.1993	-5.5543	58.3332
  49	1	1	-0.094745	-37.0082	-5.77625	57.3158
  50	1	1	-0.163657	-38.5994	-5.24787	59.5691
  51	1	1	-0.253044	-36.4076	-5.46825	58.5502
  52	1	2	0.134377	-40.2819	-5.57686	58.2419
  53	1	1	-0.00458	-37.1917	-5.20443	59.6953
  54	1	2	0.169279	-36.3925	-5.9883	56.4457
  55	1	2	0.169448	-39.2413	-5.01453	60.4154
  56	1	1	-0.039038	-38.8338	-5.04102	49.3039
  57	1	1	-0.435237	-38.8798	-5.64028	48.0306
  58	1	1	0.120439	-37.6159	-4.54727	49.8032
  59	1	1	0.323935	-37.7307	-5.72315	47.2142
  60	1	1	-0.012898	-36.4687	-4.60201	48.9972
  61	1	2	0.208311	-39.8155	-6.06057	47.6663
  62	1	1	-0.466417	-36.5235	-5.18387	47.716
  63	1	3	-0.302302	-37.5198	-3.97145	51.0516
  64	1	2	0.13972	-35.5323	-4.20617	49.3826
  65	1	2	0.217142	-35.6111	-5.25504	47.1299
  66	1	2	0.144775	-39.7339	-4.97712	49.9108
  67	1	2	0.161927	-37.3581	-2.75507	53.325
  68	1	2	0.152343	-38.0046	-3.66202	55.5539
  69	1	4	1.02665	-39.476	-8.0298	53.6834
  70	1	5	-0.487155	-39.6686	-8.63668	52.3681
  71	1	5	-0.529829	-38.9056	-8.76273	54.8089
  72	1	6	-0.538439	-40.932	-7.78782	54.327
  73	1	7	0.447385	-40.6404	-8.13435	55.1877
  74	1	2	0.176748	-35.3215	-5.42572	58.6224
  75	1	8	0.492969	-36.507	-4.81059	60.9891
  76	1	5	-0.49751	-35.4004	-4.28779	60.9476
  77	1	1	0.228748	-34.7884	-6.77563	37.8091
  78	1	1	-0.221817	-35.9158	-6.30992	38.498
  79	1	1	-0.090782	-33.506	-6.5994	38.3531
  80	1	2	0.148235	-32.6359	-6.95277	37.8056
  81	1	1	-0.079307	-35.7659	-5.69055	39.7505
  82	1	1	-0.073979	-33.3485	-5.97769	39.6064
  83	1	1	0.031918	-34.4843	-5.5364	40.3139
  84	1	3	-0.235323	-34.3474	-4.94945	41.5537
  85	1	1	0.139602	-35.1271	-5.31499	42.6285
  86	1	1	-0.107898	-35.6063	-4.32625	43.5011
  87	1	1	-0.094745	-35.4719	-6.66081	42.842
  88	1	1	-0.163657	-36.454	-4.67577	44.5688
  89	1	1	-0.253044	-36.3299	-7.00814	43.8991
  90	1	2	0.134377	-35.3423	-3.28636	43.3298
  91	1	1	-0.00458	-36.8284	-6.02216	44.7755
  92	1	2	0.169279	-35.0864	-7.43102	42.1788
  93	1	2	0.169448	-36.8476	-3.89187	45.2126
  94	1	1	-0.039038	-34.6419	-9.7248	37.2618
  95	1	1	-0.435237	-34.0426	-10.977	37.0297
  96	1	1	0.120439	-34.3947	-8.65465	36.3848
  97	1	1	0.323935	-33.1742	-11.1757	35.936
  98	1	1	-0.012898	-33.5615	-8.8433	35.2733
  99	1	2	0.208311	-34.2408	-11.8086	37.7031
 100	1	1	-0.466417	-32.9475	-10.091	35.0576
 101	1	3	-0.302302	-34.9541	-7.42039	36.6102
 102	1	2	0.13972	-33.3873	-8.01444	34.5912
 103	1	2	0.217142	-32.3065	-10.2251	34.1899
 104	1	2	0.144775	-35.3011	-9.58144	38.1145
 105	1	2	0.161927	-36.902	-6.4441	38.0624
 106	1	2	0.152343	-36.6421	-5.33628	40.2885
 107	1	4	1.02665	-31.6981	-5.78634	40.2936
 108	1	5	-0.487155	-31.7261	-6.39502	41.6208
 109	1	5	-0.529829	-30.6674	-6.05529	39.2923
 110	1	6	-0.538439	-31.6768	-4.207	40.6554
 111	1	7	0.447385	-32.3432	-4.26463	41.3582
 112	1	2	0.176748	-36.619	-8.04873	44.041
 113	1	8	0.492969	-37.8001	-6.41518	45.8636
 114	1	5	-0.49751	-38.6245	-7.29355	45.647
 115	1	1	0.228748	-25.6427	-12.6956	30.0033
 116	1	1	-0.221817	-26.6676	-11.7974	30.3408
 117	1	1	-0.090782	-25.1419	-13.5845	30.9651
 118	1	2	0.148235	-24.3518	-14.2782	30.6895
 119	1	1	-0.079307	-27.1725	-11.7685	31.6539
 120	1	1	-0.073979	-25.6334	-13.5526	32.2851
 121	1	1	0.031918	-26.6493	-12.6381	32.6291
 122	1	3	-0.235323	-27.0786	-12.5465	33.9326
 123	1	1	0.139602	-28.3984	-12.5291	34.3116
 124	1	1	-0.107898	-28.8423	-11.5173	35.1739
 125	1	1	-0.094745	-29.279	-13.5494	33.9151
 126	1	1	-0.163657	-30.1753	-11.5027	35.6172
 127	1	1	-0.253044	-30.6103	-13.5457	34.3735
 128	1	2	0.134377	-28.1456	-10.7517	35.505
 129	1	1	-0.00458	-31.0766	-12.5132	35.2151
 130	1	2	0.169279	-28.919	-14.354	33.2785
 131	1	2	0.169448	-30.4945	-10.7176	36.2999
 132	1	1	-0.039038	-23.671	-11.8638	27.0001
 133	1	1	-0.435237	-22.726	-10.9354	26.5142
 134	1	1	0.120439	-24.1702	-11.7593	28.3092
 135	1	1	0.323935	-22.2594	-9.87706	27.328
 136	1	1	-0.012898	-23.7105	-10.7131	29.1322
 137	1	2	0.208311	-22.3833	-11.0163	25.4857
 138	1	1	-0.466417	-22.7764	-9.78358	28.6385
 139	1	3	-0.302302	-25.1009	-12.6861	28.7404
 140	1	2	0.13972	-24.0812	-10.6077	30.1484
 141	1	2	0.217142	-22.4472	-8.96391	29.2737
 142	1	2	0.144775	-24.0341	-12.6647	26.3603
 143	1	2	0.161927	-27.0506	-11.114	29.5881
 144	1	2	0.152343	-27.9456	-11.0539	31.9258
 145	1	4	1.02665	-24.9393	-14.6802	33.5059
 146	1	5	-0.487155	-24.1042	-15.7291	32.9256
 147	1	5	-0.529829	-24.5288	-13.928	34.6862
 148	1	6	-0.538439	-26.2256	-15.378	34.1773
 149	1	7	0.447385	-26.1034	-14.8584	34.9927
 150	1	2	0.176748	-31.2858	-14.3497	34.0841
 151	1	8	0.492969	-32.5022	-12.5162	35.7131
 152	1	5	-0.49751	-33.0749	-13.5689	35.9606
 153	1	1	0.228748	-14.7855	-7.86146	20.4179
 154	1	1	-0.221817	-14.4336	-7.87046	21.7769
 155	1	1	-0.090782	-15.9603	-8.50311	19.9988
 156	1	2	0.148235	-16.1995	-8.52865	18.9386
 157	1	1	-0.079307	-15.2429	-8.5506	22.7087
 158	1	1	-0.073979	-16.7819	-9.17763	20.9257
 159	1	1	0.031918	-16.4083	-9.21689	22.2861
 160	1	3	-0.235323	-17.0489	-10.0591	23.17
 161	1	1	0.139602	-18.0695	-9.72678	24.0363
 162	1	1	-0.107898	-18.5893	-8.425	24.1323
 163	1	1	-0.094745	-18.6089	-10.7457	24.838
 164	1	1	-0.163657	-19.6392	-8.15362	25.0295
 165	1	1	-0.253044	-19.6629	-10.4763	25.7317
 166	1	2	0.134377	-18.1852	-7.62737	23.5168
 167	1	1	-0.00458	-20.1996	-9.17283	25.8314
 168	1	2	0.169279	-18.1946	-11.7477	24.7671
 169	1	2	0.169448	-20.025	-7.13879	25.1062
 170	1	1	-0.039038	-14.2281	-5.0024	19.6993
 171	1	1	-0.435237	-13.8519	-3.7007	19.3068
 172	1	1	0.120439	-13.5359	-6.11437	19.1897
 173	1	1	0.323935	-12.7846	-3.4701	18.4063
 174	1	1	-0.012898	-12.476	-5.90518	18.2923
 175	1	2	0.208311	-14.4128	-2.84693	19.6815
 176	1	1	-0.466417	-12.1037	-4.60281	17.9032
 177	1	3	-0.302302	-13.894	-7.41737	19.4683
 178	1	2	0.13972	-11.9615	-6.76863	17.8768
 179	1	2	0.217142	-11.3154	-4.48295	17.1649
 180	1	2	0.144775	-15.0693	-5.14625	20.372
 181	1	2	0.161927	-13.4959	-7.42073	22.0898
 182	1	2	0.152343	-14.9334	-8.62432	23.7485
 183	1	4	1.02665	-18.2244	-10.0666	20.3098
 184	1	5	-0.487155	-19.3288	-9.98535	21.2609
 185	1	5	-0.529829	-18.4349	-9.90773	18.8735
 186	1	6	-0.538439	-17.8394	-11.6116	20.5589
 187	1	7	0.447385	-18.5055	-11.7102	21.2569
 188	1	2	0.176748	-20.0368	-11.2792	26.3637
 189	1	8	0.492969	-21.2905	-8.81727	26.8216
 190	1	5	-0.49751	-21.3546	-7.67219	27.2513
 191	1	1	0.228748	-6.16598	3.14759	14.2707
 192	1	1	-0.221817	-7.0438	3.09512	15.3617
 193	1	1	-0.090782	-5.65408	1.95491	13.7322
 194	1	2	0.148235	-4.9399	1.99498	12.9147
 195	1	1	-0.079307	-7.43246	1.85708	15.9013
 196	1	1	-0.073979	-6.04096	0.706353	14.264
 197	1	1	0.031918	-6.95341	0.65693	15.3412
 198	1	3	-0.235323	-7.31485	-0.555941	15.8902
 199	1	1	0.139602	-8.56494	-0.905439	16.3635
 200	1	1	-0.107898	-8.65642	-1.90957	17.3405
 201	1	1	-0.094745	-9.74343	-0.312397	15.8764
 202	1	1	-0.163657	-9.90894	-2.30268	17.8518
 203	1	1	-0.253044	-10.9947	-0.697092	16.3941
 204	1	2	0.134377	-7.74481	-2.37371	17.7074
 205	1	1	-0.00458	-11.0984	-1.70351	17.3805
 206	1	2	0.169279	-9.68823	0.446129	15.1009
 207	1	2	0.169448	-9.94539	-3.0569	18.6345
 208	1	1	-0.039038	-4.15091	5.53666	12.5005
 209	1	1	-0.435237	-3.6463	5.93662	11.2496
 210	1	1	0.120439	-5.26089	4.68339	12.577
 211	1	1	0.323935	-4.25446	5.50929	10.0472
 212	1	1	-0.012898	-5.86209	4.2221	11.3918
 213	1	2	0.208311	-2.7735	6.58409	11.2143
 214	1	1	-0.466417	-5.35165	4.62474	10.1412
 215	1	3	-0.302302	-5.77393	4.38775	13.8205
 216	1	2	0.13972	-6.73304	3.57293	11.4437
 217	1	2	0.217142	-5.81959	4.2698	9.22474
 218	1	2	0.144775	-3.68993	5.89065	13.4196
 219	1	2	0.161927	-7.40672	4.02183	15.797
 220	1	2	0.152343	-8.09271	1.82791	16.7647
 221	1	4	1.02665	-5.32347	-0.785645	13.5435
 222	1	5	-0.487155	-5.77149	-2.07707	14.0566
 223	1	5	-0.529829	-5.10807	-0.568093	12.116
 224	1	6	-0.538439	-3.76278	-0.65788	13.9061
 225	1	7	0.447385	-3.52835	-0.682513	12.9618
 226	1	2	0.176748	-11.8983	-0.211233	16.0286
 227	1	8	0.492969	-12.4598	-2.04934	17.954
 228	1	5	-0.49751	-13.3086	-1.16971	18.0298
 229	1	1	0.228748	-2.58108	14.744	10.3322
 230	1	1	-0.221817	-3.5903	14.0856	9.61664
 231	1	1	-0.090782	-1.27067	14.2413	10.3304
 232	1	2	0.148235	-0.491922	14.7742	10.8708
 233	1	1	-0.079307	-3.28671	12.9244	8.88458
 234	1	1	-0.073979	-0.958664	13.0802	9.59729
 235	1	1	0.031918	-1.97523	12.4128	8.88379
 236	1	3	-0.235323	-1.67144	11.2978	8.13608
 237	1	1	0.139602	-2.2196	10.0419	8.29513
 238	1	1	-0.107898	-3.16426	9.74267	9.2948
 239	1	1	-0.094745	-1.78722	9.02466	7.43136
 240	1	1	-0.163657	-3.67675	8.43924	9.41589
 241	1	1	-0.253044	-2.28728	7.71646	7.56354
 242	1	2	0.134377	-3.50572	10.5117	9.98009
 243	1	1	-0.00458	-3.22689	7.40182	8.56795
 244	1	2	0.169279	-1.05816	9.25718	6.65928
 245	1	2	0.169448	-4.43235	8.24488	10.1737
 246	1	1	-0.039038	-2.25685	18.2269	11.3675
 247	1	1	-0.435237	-1.68095	19.4399	10.9403
 248	1	1	0.120439	-2.31997	17.1299	10.4945
 249	1	1	0.323935	-1.14956	19.58	9.64048
 250	1	1	-0.012898	-1.84381	17.2718	9.17655
 251	1	2	0.208311	-1.6293	20.2851	11.6234
 252	1	1	-0.466417	-1.2664	18.4827	8.75729
 253	1	3	-0.302302	-2.85988	15.9417	10.9417
 254	1	2	0.13972	-1.9206	16.4455	8.47415
 255	1	2	0.217142	-0.91923	18.5736	7.73125
 256	1	2	0.144775	-2.64573	18.1271	12.3781
 257	1	2	0.161927	-4.59465	14.4995	9.60649
 258	1	2	0.152343	-4.0596	12.4288	8.30207
 259	1	4	1.02665	0.749913	12.5111	9.55526
 260	1	5	-0.487155	1.15022	12.2736	8.17185
 261	1	5	-0.529829	1.61907	13.2133	10.4962
 262	1	6	-0.538439	0.67174	10.9677	10.0114
 263	1	7	0.447385	0.879673	10.6596	9.11347
 264	1	2	0.176748	-1.94408	6.93667	6.88483
 265	1	8	0.492969	-3.75582	5.98794	8.69377
 266	1	5	-0.49751	-3.82209	5.26775	7.70631
 267	1	1	0.228748	3.78127	22.5047	1.83578
 268	1	1	-0.221817	4.51209	23.0243	2.91385
 269	1	1	-0.090782	3.09888	21.2833	1.97999
 270	1	2	0.148235	2.50588	20.8918	1.15887
 271	1	1	-0.079307	4.56099	22.3399	4.1377
 272	1	1	-0.073979	3.15476	20.5786	3.20296
 273	1	1	0.031918	3.86826	21.1303	4.29086
 274	1	3	-0.235323	3.88742	20.5292	5.52578
 275	1	1	0.139602	2.86633	20.6633	6.4403
 276	1	1	-0.107898	2.61927	19.6015	7.3209
 277	1	1	-0.094745	2.05355	21.8112	6.48996
 278	1	1	-0.163657	1.54512	19.6655	8.22468
 279	1	1	-0.253044	0.982069	21.8783	7.39991
 280	1	2	0.134377	3.25935	18.7229	7.28912
 281	1	1	-0.00458	0.695888	20.7953	8.25816
 282	1	2	0.169279	2.24787	22.6465	5.82335
 283	1	2	0.169448	1.38433	18.8316	8.90464
 284	1	1	-0.039038	2.82445	24.0598	-1.34195
 285	1	1	-0.435237	2.6	23.9076	-2.72
 286	1	1	0.120439	3.3411	23.0011	-0.582211
 287	1	1	0.323935	2.87026	22.6896	-3.37316
 288	1	1	-0.012898	3.61307	21.7706	-1.21399
 289	1	2	0.208311	2.25742	24.7566	-3.30719
 290	1	1	-0.466417	3.35531	21.6113	-2.59521
 291	1	3	-0.302302	3.69875	23.3004	0.716174
 292	1	2	0.13972	4.07243	20.9618	-0.651696
 293	1	2	0.217142	3.61256	20.675	-3.08419
 294	1	2	0.144775	2.65034	25.0197	-0.861892
 295	1	2	0.161927	5.02187	23.9768	2.79986
 296	1	2	0.152343	5.11424	22.7531	4.97795
 297	1	4	1.02665	2.2943	18.9972	3.32705
 298	1	5	-0.487155	1.73393	18.5404	2.05742
 299	1	5	-0.529829	2.96791	18.0933	4.25337
 300	1	6	-0.538439	1.05076	19.3208	4.29202
 301	1	7	0.447385	1.45376	18.7921	5.00351
 302	1	2	0.176748	0.357148	22.77	7.43439
 303	1	8	0.492969	-0.477375	20.8726	9.21204
 304	1	5	-0.49751	-0.847094	21.9545	9.64942
 305	1	1	0.228748	0.457631	16.4141	-10.8252
 306	1	1	-0.221817	1.2695	16.4191	-9.67668
 307	1	1	-0.090782	-0.646492	17.2765	-10.8917
 308	1	2	0.148235	-1.22296	17.3252	-11.8122
 309	1	1	-0.079307	0.909644	17.2023	-8.56416
 310	1	1	-0.073979	-0.992812	18.0925	-9.79739
 311	1	1	0.031918	-0.224743	18.0325	-8.61746
 312	1	3	-0.235323	-0.571172	18.783	-7.51624
 313	1	1	0.139602	0.278806	19.6587	-6.88007
 314	1	1	-0.107898	1.20429	20.4261	-7.60478
 315	1	1	-0.094745	0.168425	19.8317	-5.49148
 316	1	1	-0.163657	2.01551	21.3593	-6.93785
 317	1	1	-0.253044	0.990866	20.7572	-4.81904
 318	1	2	0.134377	1.27004	20.324	-8.68475
 319	1	1	-0.00458	1.9243	21.5369	-5.53939
 320	1	2	0.169279	-0.572046	19.2535	-4.9444
 321	1	2	0.169448	2.70609	21.9711	-7.51626
 322	1	1	-0.039038	0.977288	13.848	-13.4205
 323	1	1	-0.435237	1.33542	12.5159	-13.6995
 324	1	1	0.120439	1.07773	14.3651	-12.1196
 325	1	1	0.323935	1.85092	11.6748	-12.6892
 326	1	1	-0.012898	1.48896	13.5059	-11.081
 327	1	2	0.208311	1.21268	12.137	-14.7099
 328	1	1	-0.466417	1.88239	12.1844	-11.3724
 329	1	3	-0.302302	0.771788	15.7053	-11.9637
 330	1	2	0.13972	1.52349	13.8466	-10.0536
 331	1	2	0.217142	2.22767	11.5357	-10.5694
 332	1	2	0.144775	0.615101	14.4952	-14.2156
 333	1	2	0.161927	2.18587	15.8401	-9.65039
 334	1	2	0.152343	1.51759	17.1831	-7.6632
 335	1	4	1.02665	-2.35036	19.262	-9.98243
 336	1	5	-0.487155	-2.89972	19.3169	-11.3353
 337	1	5	-0.529829	-3.19749	19.2627	-8.79524
 338	1	6	-0.538439	-1.64929	20.6805	-9.69086
 339	1	7	0.447385	-2.11698	20.7549	-8.83995
 340	1	2	0.176748	0.865445	20.8924	-3.74661
 341	1	8	0.492969	2.7551	22.6184	-4.88436
 342	1	5	-0.49751	3.22371	23.5157	-5.57291
 343	1	1	0.228748	4.41873	9.46568	-21.8205
 344	1	1	-0.221817	3.3509	9.12296	-20.9688
 345	1	1	-0.090782	5.69772	9.66301	-21.287
 346	1	2	0.148235	6.51501	9.92362	-21.9547
 347	1	1	-0.079307	3.57709	8.94979	-19.5901
 348	1	1	-0.073979	5.92994	9.4986	-19.9088
 349	1	1	0.031918	4.86912	9.12312	-19.0599
 350	1	3	-0.235323	5.12951	8.79558	-17.7487
 351	1	1	0.139602	4.36915	9.17629	-16.6701
 352	1	1	-0.107898	4.23502	10.5302	-16.3287
 353	1	1	-0.094745	3.84284	8.1911	-15.8243
 354	1	1	-0.163657	3.56986	10.8975	-15.1428
 355	1	1	-0.253044	3.15593	8.55835	-14.6534
 356	1	2	0.134377	4.6986	11.2874	-16.9558
 357	1	1	-0.00458	3.00126	9.91648	-14.2936
 358	1	2	0.169279	3.99498	7.1428	-16.0671
 359	1	2	0.169448	3.55025	11.9494	-14.8713
 360	1	1	-0.039038	2.42873	8.82376	-24.5434
 361	1	1	-0.435237	1.1659	9.07299	-25.1117
 362	1	1	0.120439	3.06164	9.82221	-23.7881
 363	1	1	0.323935	0.521291	10.3151	-24.9318
 364	1	1	-0.012898	2.46043	11.0814	-23.6431
 365	1	2	0.208311	0.665801	8.296	-25.6869
 366	1	1	-0.466417	1.19868	11.3256	-24.2128
 367	1	3	-0.302302	4.26476	9.56463	-23.1841
 368	1	2	0.13972	2.97486	11.8586	-23.0831
 369	1	2	0.217142	0.740268	12.3053	-24.1012
 370	1	2	0.144775	2.91182	7.85732	-24.6683
 371	1	2	0.161927	2.36065	8.94777	-21.3785
 372	1	2	0.152343	2.76399	8.63542	-18.9407
 373	1	4	1.02665	7.59584	9.75021	-19.2765
 374	1	5	-0.487155	8.55541	10.1471	-20.3043
 375	1	5	-0.529829	7.53967	10.4023	-17.9714
 376	1	6	-0.538439	8.02079	8.28771	-18.7564
 377	1	7	0.447385	7.93976	8.56077	-17.8269
 378	1	2	0.176748	2.77219	7.78062	-13.9942
 379	1	8	0.492969	2.32632	10.2574	-12.974
 380	1	5	-0.49751	2.25769	9.40316	-12.0989
 381	1	1	0.228748	-8.63752	10.6893	-22.9934
 382	1	1	-0.221817	-7.54161	9.93576	-22.5447
 383	1	1	-0.090782	-8.55536	12.0918	-23.0316
 384	1	2	0.148235	-9.41168	12.6676	-23.3731
 385	1	1	-0.079307	-6.34741	10.5771	-22.1896
 386	1	1	-0.073979	-7.35762	12.7454	-22.67
 387	1	1	0.031918	-6.24532	11.9758	-22.2731
 388	1	3	-0.235323	-5.01082	12.5495	-22.086
 389	1	1	0.139602	-3.97182	12.1685	-22.9032
 390	1	1	-0.107898	-4.1493	12.1071	-24.2959
 391	1	1	-0.094745	-2.76418	11.7415	-22.3362
 392	1	1	-0.163657	-3.12753	11.6043	-25.1164
 393	1	1	-0.253044	-1.74323	11.2274	-23.1565
 394	1	2	0.134377	-5.0885	12.4267	-24.739
 395	1	1	-0.00458	-1.91249	11.1536	-24.5617
 396	1	2	0.169279	-2.64434	11.771	-21.2564
 397	1	2	0.169448	-3.28821	11.5408	-26.1914
 398	1	1	-0.039038	-9.42508	7.79819	-24.2415
 399	1	1	-0.435237	-9.27739	6.90086	-25.3187
 400	1	1	0.120439	-9.70702	9.15322	-24.4778
 401	1	1	0.323935	-9.46341	7.32352	-26.6584
 402	1	1	-0.012898	-9.87839	9.59767	-25.7956
 403	1	2	0.208311	-8.99901	5.87841	-25.0955
 404	1	1	-0.466417	-9.76733	8.69012	-26.8657
 405	1	3	-0.302302	-9.77242	10.0541	-23.4382
 406	1	2	0.13972	-10.0899	10.6476	-25.9827
 407	1	2	0.217142	-9.89625	9.05336	-27.8835
 408	1	2	0.144775	-9.29706	7.45198	-23.2195
 409	1	2	0.161927	-7.60274	8.85502	-22.4986
 410	1	2	0.152343	-5.48463	9.98938	-21.8869
 411	1	4	1.02665	-7.25958	14.5429	-22.7733
 412	1	5	-0.487155	-8.41496	15.1631	-23.4167
 413	1	5	-0.529829	-6.67504	15.0686	-21.5447
 414	1	6	-0.538439	-5.97144	14.8338	-23.6912
 415	1	7	0.447385	-5.47108	15.1349	-22.9101
 416	1	2	0.176748	-0.840151	10.8521	-22.6818
 417	1	8	0.492969	-0.8726	10.5406	-25.4761
 418	1	5	-0.49751	-1.20505	10.0794	-26.5601
 419	1	1	0.228748	-7.40513	-2.68719	-26.496
 420	1	1	-0.221817	-8.45323	-1.90294	-27.0059
 421	1	1	-0.090782	-6.18645	-2.08535	-26.1524
 422	1	2	0.148235	-5.37774	-2.69582	-25.7578
 423	1	1	-0.079307	-8.26298	-0.523098	-27.2305
 424	1	1	-0.073979	-5.99154	-0.710268	-26.3637
 425	1	1	0.031918	-7.0248	0.0733477	-26.9182
 426	1	3	-0.235323	-6.7021	1.35695	-27.3036
 427	1	1	0.139602	-7.47592	2.48133	-27.4773
 428	1	1	-0.107898	-6.98704	3.43238	-28.3828
 429	1	1	-0.094745	-8.61442	2.77606	-26.7044
 430	1	1	-0.163657	-7.6091	4.68232	-28.5063
 431	1	1	-0.253044	-9.24617	4.03325	-26.8351
 432	1	2	0.134377	-6.1017	3.20965	-28.9719
 433	1	1	-0.00458	-8.72077	5.0159	-27.7086
 434	1	2	0.169279	-8.98306	2.04967	-25.9851
 435	1	2	0.169448	-7.20882	5.41276	-29.2078
 436	1	1	-0.039038	-5.91345	-4.66283	-28.0919
 437	1	1	-0.435237	-4.90569	-5.53251	-28.5478
 438	1	1	0.120439	-6.56458	-4.91124	-26.8691
 439	1	1	0.323935	-4.51339	-6.65503	-27.7908
 440	1	1	-0.012898	-6.20164	-6.03969	-26.1147
 441	1	2	0.208311	-4.41925	-5.34625	-29.5025
 442	1	1	-0.466417	-5.17266	-6.89473	-26.5638
 443	1	3	-0.302302	-7.54279	-4.05341	-26.4031
 444	1	2	0.13972	-6.71906	-6.24227	-25.1799
 445	1	2	0.217142	-4.90714	-7.77157	-25.9784
 446	1	2	0.144775	-6.19723	-3.80103	-28.6907
 447	1	2	0.161927	-9.38985	-2.38227	-27.2777
 448	1	2	0.152343	-9.05075	0.0625908	-27.6976
 449	1	4	1.02665	-4.38382	0.00908881	-25.9835
 450	1	5	-0.487155	-4.63929	1.15514	-25.1147
 451	1	5	-0.529829	-3.39835	-1.03668	-25.7145
 452	1	6	-0.538439	-4.01529	0.705541	-27.4017
 453	1	7	0.447385	-4.84521	1.20667	-27.4778
 454	1	2	0.176748	-10.1363	4.2489	-26.2474
 455	1	8	0.492969	-9.31701	6.398	-27.8662
 456	1	5	-0.49751	-9.40643	6.8546	-28.9992
 457	1	1	0.228748	4.749	-6.50638	-24.2816
 458	1	1	-0.221817	3.50825	-6.11851	-23.7548
 459	1	1	-0.090782	4.81731	-7.61003	-25.1507
 460	1	2	0.148235	5.77757	-7.9258	-25.548
 461	1	1	-0.079307	2.33579	-6.81671	-24.0886
 462	1	1	-0.073979	3.63706	-8.30839	-25.5029
 463	1	1	0.031918	2.38814	-7.89399	-24.9889
 464	1	3	-0.235323	1.2596	-8.65121	-25.2242
 465	1	1	0.139602	0.169204	-8.31362	-26.0025
 466	1	1	-0.107898	-0.288987	-9.25613	-26.9357
 467	1	1	-0.094745	-0.558588	-7.12273	-25.8184
 468	1	1	-0.163657	-1.45337	-9.01172	-27.686
 469	1	1	-0.253044	-1.74131	-6.88766	-26.549
 470	1	2	0.134377	0.268346	-10.1787	-27.0778
 471	1	1	-0.00458	-2.20564	-7.8351	-27.4893
 472	1	2	0.169279	-0.224471	-6.38666	-25.0984
 473	1	2	0.169448	-1.78198	-9.74628	-28.4191
 474	1	1	-0.039038	7.77744	-5.21048	-25.2084
 475	1	1	-0.435237	9.18376	-5.12394	-25.3057
 476	1	1	0.120439	7.17995	-5.94827	-24.1719
 477	1	1	0.323935	10.0181	-5.73897	-24.345
 478	1	1	-0.012898	8.00075	-6.61589	-23.2472
 479	1	2	0.208311	9.62871	-4.49021	-26.0689
 480	1	1	-0.466417	9.40471	-6.51167	-23.3357
 481	1	3	-0.302302	5.8427	-5.76546	-23.8867
 482	1	2	0.13972	7.54319	-7.1406	-22.4122
 483	1	2	0.217142	10.0283	-6.96422	-22.5687
 484	1	2	0.144775	7.14471	-4.63913	-25.8836
 485	1	2	0.161927	3.46613	-5.28173	-23.0634
 486	1	2	0.152343	1.39553	-6.54219	-23.6214
 487	1	4	1.02665	3.74177	-9.73458	-26.602
 488	1	5	-0.487155	2.94402	-9.60497	-27.818
 489	1	5	-0.529829	5.1195	-10.2157	-26.6612
 490	1	6	-0.538439	3.0746	-10.9595	-25.789
 491	1	7	0.447385	3.85264	-11.5269	-25.8947
 492	1	2	0.176748	-2.2829	-5.9566	-26.3931
 493	1	8	0.492969	-3.44852	-7.59618	-28.3173
 494	1	5	-0.49751	-3.57073	-8.12103	-29.416
 495	1	1	0.228748	18.7191	-8.16985	-29.6308
 496	1	1	-0.221817	18.0681	-8.91984	-28.6379
 497	1	1	-0.090782	18.0829	-7.04038	-30.1712
 498	1	2	0.148235	18.5925	-6.44019	-30.92
 499	1	1	-0.079307	16.7563	-8.59064	-28.2413
 500	1	1	-0.073979	16.7768	-6.69604	-29.7693
 501	1	1	0.031918	16.0985	-7.48948	-28.8189
 502	1	3	-0.235323	14.7383	-7.34651	-28.6416
 503	1	1	0.139602	14.0587	-6.96722	-27.5045
 504	1	1	-0.107898	14.5062	-5.92652	-26.6743
 505	1	1	-0.094745	12.7993	-7.54303	-27.273
 506	1	1	-0.163657	13.6813	-5.45761	-25.6316
 507	1	1	-0.253044	11.9727	-7.07362	-26.2358
 508	1	2	0.134377	15.4645	-5.45209	-26.8674
 509	1	1	-0.00458	12.396	-6.00749	-25.4147
 510	1	2	0.169279	12.4558	-8.34283	-27.9233
 511	1	2	0.169448	14.0272	-4.63511	-25.0072
 512	1	1	-0.039038	21.5295	-7.336	-31.4138
 513	1	1	-0.435237	22.0766	-7.03642	-32.6768
 514	1	1	0.120439	20.4951	-8.27655	-31.2962
 515	1	1	0.323935	21.6226	-7.69031	-33.8454
 516	1	1	-0.012898	20.0371	-8.94489	-32.4463
 517	1	2	0.208311	22.8825	-6.30994	-32.7499
 518	1	1	-0.466417	20.6059	-8.65981	-33.7058
 519	1	3	-0.302302	19.973	-8.56151	-30.0507
 520	1	2	0.13972	19.2518	-9.69141	-32.3556
 521	1	2	0.217142	20.2611	-9.18926	-34.5918
 522	1	2	0.144775	21.903	-6.8427	-30.52
 523	1	2	0.161927	18.5677	-9.78673	-28.2147
 524	1	2	0.152343	16.2271	-9.22066	-27.5305
 525	1	4	1.02665	16.0081	-5.24932	-30.5131
 526	1	5	-0.487155	15.3597	-4.46818	-29.4637
 527	1	5	-0.529829	16.8292	-4.63013	-31.5521
 528	1	6	-0.538439	14.6813	-5.82992	-31.2187
 529	1	7	0.447385	14.1047	-5.50871	-30.507
 530	1	2	0.176748	11.0005	-7.5375	-26.081
 531	1	8	0.492969	11.5134	-5.46988	-24.3097
 532	1	5	-0.49751	11.9992	-4.80603	-23.4037
 533	1	1	0.228748	25.0079	-0.362806	-32.1553
 534	1	1	-0.221817	23.6404	-0.410397	-32.457
 535	1	1	-0.090782	25.9414	-0.738747	-33.137
 536	1	2	0.148235	27.0041	-0.694794	-32.9303
 537	1	1	-0.079307	23.199	-0.87828	-33.7049
 538	1	1	-0.073979	25.5092	-1.18601	-34.4036
 539	1	1	0.031918	24.1265	-1.30691	-34.6717
 540	1	3	-0.235323	23.6676	-1.87832	-35.8426
 541	1	1	0.139602	23.2222	-3.18568	-35.8317
 542	1	1	-0.107898	24.0108	-4.19684	-36.405
 543	1	1	-0.094745	22.0252	-3.53371	-35.181
 544	1	1	-0.163657	23.6644	-5.54946	-36.2352
 545	1	1	-0.253044	21.6813	-4.88435	-35.0044
 546	1	2	0.134377	24.9166	-3.94175	-36.9455
 547	1	1	-0.00458	22.5238	-5.90762	-35.4887
 548	1	2	0.169279	21.3715	-2.76307	-34.7889
 549	1	2	0.169448	24.3111	-6.32474	-36.6427
 550	1	1	-0.039038	27.7551	0.409117	-30.6383
 551	1	1	-0.435237	28.8895	0.358503	-29.7998
 552	1	1	0.120439	26.5182	-0.0936558	-30.1936
 553	1	1	0.323935	28.8088	-0.181148	-28.4939
 554	1	1	-0.012898	26.4219	-0.611317	-28.8936
 555	1	2	0.208311	29.8066	0.828531	-30.1363
 556	1	1	-0.466417	27.5521	-0.653574	-28.0594
 557	1	3	-0.302302	25.3464	0.0891855	-30.8978
 558	1	2	0.13972	25.4537	-0.932336	-28.5174
 559	1	2	0.217142	27.4513	-1.0037	-27.0335
 560	1	2	0.144775	27.8208	0.89904	-31.6058
 561	1	2	0.161927	22.9215	-0.0983168	-31.7046
 562	1	2	0.152343	22.1347	-0.913029	-33.9138
 563	1	4	1.02665	26.7701	-1.57627	-35.6303
 564	1	5	-0.487155	27.9343	-0.725086	-35.3897
 565	1	5	-0.529829	26.8275	-3.03228	-35.6954
 566	1	6	-0.538439	26.0623	-1.11962	-37.022
 567	1	7	0.447385	25.1524	-1.38329	-36.8046
 568	1	2	0.176748	20.7633	-5.13489	-34.475
 569	1	8	0.492969	22.2134	-7.35732	-35.2053
 570	1	5	-0.49751	22.4825	-8.22731	-36.0225
 571	1	1	0.228748	36.8817	-4.51471	-24.9567
 572	1	1	-0.221817	36.8743	-3.11479	-25.0181
 573	1	1	-0.090782	36.3955	-5.2726	-26.0318
 574	1	2	0.148235	36.391	-6.35778	-25.9621
 575	1	1	-0.079307	36.3298	-2.47009	-26.1423
 576	1	1	-0.073979	35.845	-4.6365	-27.1596
 577	1	1	0.031918	35.7784	-3.22822	-27.1927
 578	1	3	-0.235323	35.091	-2.58079	-28.191
 579	1	1	0.139602	33.8275	-2.04465	-28.0223
 580	1	1	-0.107898	33.1974	-1.98901	-26.7654
 581	1	1	-0.094745	33.1544	-1.5349	-29.1432
 582	1	1	-0.163657	31.9432	-1.37459	-26.6305
 583	1	1	-0.253044	31.8808	-0.942397	-29.0132
 584	1	2	0.134377	33.6751	-2.40122	-25.8835
 585	1	1	-0.00458	31.2673	-0.826801	-27.7428
 586	1	2	0.169279	33.6336	-1.60251	-30.1168
 587	1	2	0.169448	31.4873	-1.32109	-25.6428
 588	1	1	-0.039038	34.8151	-5.38217	-23.216
 589	1	1	-0.435237	33.8096	-5.99013	-22.4463
 590	1	1	0.120439	36.173	-5.69533	-23.0003
 591	1	1	0.323935	34.1278	-6.90573	-21.4198
 592	1	1	-0.012898	36.5068	-6.61243	-21.9924
 593	1	2	0.208311	32.7704	-5.76905	-22.6752
 594	1	1	-0.466417	35.4936	-7.20978	-21.2154
 595	1	3	-0.302302	37.1756	-5.13645	-23.7704
 596	1	2	0.13972	37.5513	-6.86743	-21.8283
 597	1	2	0.217142	35.7605	-7.93449	-20.4494
 598	1	2	0.144775	34.527	-4.67967	-23.9928
 599	1	2	0.161927	37.2313	-2.53926	-24.1687
 600	1	2	0.152343	36.2694	-1.38471	-26.1741
 601	1	4	1.02665	35.175	-5.68265	-28.4653
 602	1	5	-0.487155	34.4061	-6.80797	-27.9404
 603	1	5	-0.529829	34.7728	-4.96245	-29.669
 604	1	6	-0.538439	36.5088	-6.37042	-29.0481
 605	1	7	0.447385	36.3131	-6.06664	-29.95
 606	1	2	0.176748	31.4037	-0.559703	-29.907
 607	1	8	0.492969	29.9459	-0.123033	-27.4868
 608	1	5	-0.49751	29.6882	0.223727	-26.3404
 609	1	1	0.228748	24.2452	-4.21664	-21.0113
 610	1	1	-0.221817	24.3582	-4.95087	-19.8235
 611	1	1	-0.090782	25.3812	-4.00852	-21.8099
 612	1	2	0.148235	25.27	-3.47249	-22.749
 613	1	1	-0.079307	25.6275	-5.33533	-19.3608
 614	1	1	-0.073979	26.6563	-4.45191	-21.3864
 615	1	1	0.031918	26.7834	-5.06326	-20.1145
 616	1	3	-0.235323	27.9808	-5.21521	-19.442
 617	1	1	0.139602	29.1606	-5.78453	-19.8606
 618	1	1	-0.107898	29.3037	-7.17911	-19.9062
 619	1	1	-0.094745	30.2824	-4.96403	-20.0626
 620	1	1	-0.163657	30.5649	-7.74762	-20.1661
 621	1	1	-0.253044	31.5403	-5.53157	-20.3387
 622	1	2	0.134377	28.4498	-7.81583	-19.6962
 623	1	1	-0.00458	31.6978	-6.93628	-20.3962
 624	1	2	0.169279	30.1705	-3.88452	-19.9941
 625	1	2	0.169448	30.6747	-8.83026	-20.1644
 626	1	1	-0.039038	21.5041	-1.85138	-21.5312
 627	1	1	-0.435237	20.8832	-0.719222	-20.9671
 628	1	1	0.120439	22.4087	-2.61701	-20.7788
 629	1	1	0.323935	21.1272	-0.327439	-19.6322
 630	1	1	-0.012898	22.6584	-2.24236	-19.4414
 631	1	2	0.208311	20.2162	-0.113693	-21.5777
 632	1	1	-0.466417	22.0183	-1.12103	-18.8743
 633	1	3	-0.302302	23.0298	-3.6939	-21.3941
 634	1	2	0.13972	23.3601	-2.80406	-18.8354
 635	1	2	0.217142	22.2556	-0.841411	-17.8518
 636	1	2	0.144775	21.3094	-2.12321	-22.5659
 637	1	2	0.161927	23.4709	-5.15469	-19.231
 638	1	2	0.152343	25.7273	-5.80679	-18.3863
 639	1	4	1.02665	28.0686	-4.16546	-22.4736
 640	1	5	-0.487155	28.8515	-5.37335	-22.6972
 641	1	5	-0.529829	28.6872	-2.84844	-22.3613
 642	1	6	-0.538439	27.4748	-4.26806	-23.9424
 643	1	7	0.447385	28.0698	-5.04738	-24.0246
 644	1	2	0.176748	32.3956	-4.87131	-20.4632
 645	1	8	0.492969	33.0496	-7.59458	-20.5957