pySIMM System Object

1218 atoms
1313 bonds
2112 angles
3100 dihedrals
352 impropers

9 atom types
10 bond types
15 angle types
5 dihedral types
2 improper types

-168.004297 168.004297 xlo xhi
-168.004297 168.004297 ylo yhi
-168.004297 168.004297 zlo zhi

Masses

   1	12.01	# ca
   2	1.008	# ha
   3	16.0	# os
   4	32.06	# sy
   5	16.0	# o
   6	16.0	# oh
   7	1.008	# ho
   8	12.01	# c
   9	1.008	# h4

Pair Coeffs

   1	0.086	3.3996695084235347	# ca
   2	0.015	2.59964245953351	# ha
   3	0.17	3.0000123434657784	# os
   4	0.25	3.563594872561357	# sy
   5	0.21	2.959921901149463	# o
   6	0.2104	3.0664733878390478	# oh
   7	1e-05	0.0	# ho
   8	0.086	3.3996695084235347	# c
   9	0.015	2.5105525877194763	# h4

Bond Coeffs

   1	345.8	1.086	# ca,ha
   2	243.4	1.7909	# ca,sy
   3	289.8	1.6497	# oh,sy
   4	637.7	1.2183	# c,o
   5	376.6	1.3696	# ca,os
   6	371.4	0.973	# ho,oh
   7	461.1	1.3984	# ca,ca
   8	345.9	1.4906	# c,ca
   9	310.7	1.1121	# c,h4
  10	493.0	1.466	# o,sy

Angle Coeffs

   1	48.18	119.88	# ca,ca,ha
   2	72.54	121.41	# o,sy,o
   3	72.32	106.68	# o,sy,oh
   4	61.48	119.42	# ca,ca,sy
   5	64.28	120.33	# c,ca,ca
   6	69.58	119.2	# ca,ca,os
   7	68.72	122.6	# ca,c,o
   8	54.22	120.7	# h4,c,o
   9	46.43	115.14	# ca,c,h4
  10	44.17	106.42	# ho,oh,sy
  11	65.46	101.3	# ca,sy,oh
  12	65.77	108.35	# ca,sy,o
  13	63.48	119.89	# ca,os,ca
  14	66.62	120.02	# ca,ca,ca
  15	63.0	118.11	# ca,c,ca

Dihedral Coeffs

   1	1	1.3	2	180	# X,ca,sy,X
   2	1	9.5	1	180	# X,oh,sy,X
   3	1	3.625	2	180	# X,ca,ca,X
   4	1	1.0	2	180	# X,c,ca,X
   5	1	0.9	2	180	# X,ca,os,X

Improper Coeffs

   1	10.5	-1	2	# c,X,X,o
   2	1.1	-1	2	# ca,X,X,ha

Atoms

   1	1	1	0.228748	-43.1741	25.9354	-49.767
   2	1	1	-0.221817	-43.373	27.2756	-49.3978
   3	1	1	-0.090782	-42.993	25.5933	-51.1139
   4	1	2	0.148235	-42.8481	24.5501	-51.3831
   5	1	1	-0.079307	-43.3829	28.2772	-50.3844
   6	1	1	-0.073979	-43.0036	26.5906	-52.1075
   7	1	1	0.031918	-43.1968	27.9358	-51.7372
   8	1	3	-0.235323	-43.2339	28.9151	-52.6999
   9	1	1	0.139602	-42.5147	30.0825	-52.6265
  10	1	1	-0.107898	-41.1972	30.0974	-52.1356
  11	1	1	-0.094745	-43.1054	31.2677	-53.0843
  12	1	1	-0.163657	-40.4795	31.3061	-52.0847
  13	1	1	-0.253044	-42.3901	32.4766	-53.0303
  14	1	2	0.134377	-40.7312	29.172	-51.808
  15	1	1	-0.00458	-41.0724	32.5062	-52.5284
  16	1	2	0.169279	-44.1193	31.2418	-53.476
  17	1	2	0.169448	-39.4599	31.3072	-51.7067
  18	1	1	-0.039038	-42.7168	23.9586	-46.7097
  19	1	1	-0.435237	-41.8883	23.8073	-45.5829
  20	1	1	0.120439	-42.3784	24.8673	-47.7222
  21	1	1	0.323935	-40.6972	24.5563	-45.4481
  22	1	1	-0.012898	-41.2039	25.6341	-47.5973
  23	1	2	0.208311	-42.1833	23.1111	-44.8019
  24	1	1	-0.466417	-40.3818	25.4842	-46.4639
  25	1	3	-0.302302	-43.1988	24.9371	-48.8266
  26	1	2	0.13972	-40.9212	26.3347	-48.3785
  27	1	2	0.217142	-39.477	26.081	-46.368
  28	1	2	0.144775	-43.6265	23.3708	-46.8084
  29	1	2	0.161927	-43.538	27.5297	-48.3543
  30	1	2	0.152343	-43.5513	29.3152	-50.107
  31	1	4	1.02665	-42.7329	26.1212	-53.8251
  32	1	5	-0.487155	-42.3923	24.7114	-54.0017
  33	1	5	-0.529829	-43.6738	26.8116	-54.7003
  34	1	6	-0.538439	-41.4467	26.9894	-54.2497
  35	1	7	0.447385	-42.002	27.5546	-54.8173
  36	1	2	0.176748	-42.8535	33.3975	-53.3823
  37	1	8	0.492969	-40.3026	33.7975	-52.4727
  38	1	5	-0.49751	-40.7537	34.8712	-52.8367
  39	1	1	0.228748	-36.8481	17.9843	-38.759
  40	1	1	-0.221817	-36.4071	18.9128	-39.7176
  41	1	1	-0.090782	-38.1671	17.5136	-38.7948
  42	1	2	0.148235	-38.4985	16.8036	-38.0411
  43	1	1	-0.079307	-37.2784	19.339	-40.7347
  44	1	1	-0.073979	-39.0495	17.9441	-39.804
  45	1	1	0.031918	-38.6016	18.8586	-40.779
  46	1	3	-0.235323	-39.44	19.2244	-41.8082
  47	1	1	0.139602	-39.4943	20.4754	-42.3769
  48	1	1	-0.107898	-39.7181	20.5747	-43.757
  49	1	1	-0.094745	-39.3633	21.6428	-41.6046
  50	1	1	-0.163657	-39.8035	21.8355	-44.371
  51	1	1	-0.253044	-39.4423	22.9057	-42.2198
  52	1	2	0.134377	-39.8197	19.6686	-44.348
  53	1	1	-0.00458	-39.6827	23.0173	-43.6059
  54	1	2	0.169279	-39.2121	21.5661	-40.5311
  55	1	2	0.169448	-39.9568	21.8868	-45.4469
  56	1	1	-0.039038	-34.1959	16.7016	-39.1545
  57	1	1	-0.435237	-32.8289	16.3959	-39.2897
  58	1	1	0.120439	-34.6843	17.2205	-37.9412
  59	1	1	0.323935	-31.9245	16.5877	-38.2232
  60	1	1	-0.012898	-33.8079	17.3794	-36.8587
  61	1	2	0.208311	-32.4568	15.9899	-40.2284
  62	1	1	-0.466417	-32.4431	17.0655	-36.9966
  63	1	3	-0.302302	-36.0134	17.5353	-37.764
  64	1	2	0.13972	-34.1979	17.7415	-35.9103
  65	1	2	0.217142	-31.7931	17.1648	-36.1313
  66	1	2	0.144775	-34.8752	16.5287	-39.9856
  67	1	2	0.161927	-35.3897	19.2912	-39.678
  68	1	2	0.152343	-36.9244	20.0307	-41.4955
  69	1	4	1.02665	-40.7333	17.3044	-39.8196
  70	1	5	-0.487155	-40.9894	16.2986	-38.7913
  71	1	5	-0.529829	-41.6711	18.3868	-40.1009
  72	1	6	-0.538439	-40.8549	16.5831	-41.2523
  73	1	7	0.447385	-41.4163	17.3031	-41.5887
  74	1	2	0.176748	-39.3355	23.808	-41.6192
  75	1	8	0.492969	-39.7817	24.3818	-44.2492
  76	1	5	-0.49751	-39.1155	25.3145	-43.8193
  77	1	1	0.228748	-22.513	17.7512	-35.0452
  78	1	1	-0.221817	-23.1039	18.3001	-36.1918
  79	1	1	-0.090782	-23.2825	17.5547	-33.8847
  80	1	2	0.148235	-22.8211	17.148	-32.9886
  81	1	1	-0.079307	-24.4673	18.6398	-36.1886
  82	1	1	-0.073979	-24.6506	17.8871	-33.8758
  83	1	1	0.031918	-25.241	18.4305	-35.0339
  84	1	3	-0.235323	-26.5714	18.7738	-35.0492
  85	1	1	0.139602	-27.4897	18.1556	-35.8669
  86	1	1	-0.107898	-28.6128	18.8796	-36.292
  87	1	1	-0.094745	-27.3296	16.8175	-36.2695
  88	1	1	-0.163657	-29.574	18.273	-37.1198
  89	1	1	-0.253044	-28.2892	16.2116	-37.0987
  90	1	2	0.134377	-28.7293	19.9147	-35.9833
  91	1	1	-0.00458	-29.4316	16.9245	-37.5169
  92	1	2	0.169279	-26.4702	16.2459	-35.9305
  93	1	2	0.169448	-30.4261	18.8591	-37.4569
  94	1	1	-0.039038	-21.0626	15.1576	-34.3103
  95	1	1	-0.435237	-20.4236	14.1773	-33.5281
  96	1	1	0.120439	-20.5843	16.4785	-34.306
  97	1	1	0.323935	-19.304	14.4914	-32.7267
  98	1	1	-0.012898	-19.4641	16.8079	-33.5306
  99	1	2	0.208311	-20.7829	13.1502	-33.5492
 100	1	1	-0.466417	-18.8327	15.826	-32.7444
 101	1	3	-0.302302	-21.1726	17.4498	-35.0813
 102	1	2	0.13972	-19.0856	17.827	-33.5519
 103	1	2	0.217142	-17.946	16.099	-32.1796
 104	1	2	0.144775	-21.9141	14.8935	-34.9326
 105	1	2	0.161927	-22.4983	18.4622	-37.079
 106	1	2	0.152343	-24.9269	19.0692	-37.0757
 107	1	4	1.02665	-25.6115	17.5908	-32.3832
 108	1	5	-0.487155	-26.8866	16.9796	-32.7474
 109	1	5	-0.529829	-24.8036	17.1051	-31.267
 110	1	6	-0.538439	-26.1573	19.0576	-31.9932
 111	1	7	0.447385	-27.045	18.8775	-32.3415
 112	1	2	0.176748	-28.1581	15.1762	-37.4103
 113	1	8	0.492969	-30.454	16.2467	-38.399
 114	1	5	-0.49751	-30.0897	15.4334	-39.2384
 115	1	1	0.228748	-15.4403	17.9213	-24.8334
 116	1	1	-0.221817	-15.386	18.2311	-26.2001
 117	1	1	-0.090782	-15.4227	16.5807	-24.4152
 118	1	2	0.148235	-15.4689	16.3467	-23.355
 119	1	1	-0.079307	-15.2848	17.1989	-27.1506
 120	1	1	-0.073979	-15.3405	15.5417	-25.361
 121	1	1	0.031918	-15.2662	15.8551	-26.7328
 122	1	3	-0.235323	-15.0948	14.8533	-27.6588
 123	1	1	0.139602	-15.9722	14.5418	-28.6744
 124	1	1	-0.107898	-17.2473	15.1287	-28.7829
 125	1	1	-0.094745	-15.5767	13.5692	-29.6045
 126	1	1	-0.163657	-18.102	14.7665	-29.8403
 127	1	1	-0.253044	-16.4363	13.1949	-30.6516
 128	1	2	0.134377	-17.5838	15.8509	-28.0452
 129	1	1	-0.00458	-17.6985	13.8054	-30.7929
 130	1	2	0.169279	-14.6023	13.1	-29.5022
 131	1	2	0.169448	-19.0898	15.2184	-29.9046
 132	1	1	-0.039038	-13.2716	19.2153	-23.0206
 133	1	1	-0.435237	-12.3866	19.1718	-21.9273
 134	1	1	0.120439	-14.6353	18.9449	-22.8334
 135	1	1	0.323935	-12.8413	18.8328	-20.6304
 136	1	1	-0.012898	-15.1168	18.6554	-21.5478
 137	1	2	0.208311	-11.3404	19.4166	-22.0888
 138	1	1	-0.466417	-14.224	18.5982	-20.4603
 139	1	3	-0.302302	-15.4862	18.9388	-23.9122
 140	1	2	0.13972	-16.1768	18.4594	-21.4039
 141	1	2	0.217142	-14.5988	18.365	-19.4656
 142	1	2	0.144775	-12.9078	19.4616	-24.0151
 143	1	2	0.161927	-15.3935	19.2714	-26.5124
 144	1	2	0.152343	-15.2043	17.4351	-28.2088
 145	1	4	1.02665	-15.317	13.8371	-24.7785
 146	1	5	-0.487155	-15.3464	13.7163	-23.3227
 147	1	5	-0.529829	-16.1237	12.9869	-25.6469
 148	1	6	-0.538439	-13.8919	13.2853	-25.2773
 149	1	7	0.447385	-14.3281	12.7119	-25.9316
 150	1	2	0.176748	-16.1266	12.4287	-31.3608
 151	1	8	0.492969	-18.6052	13.4022	-31.9299
 152	1	5	-0.49751	-18.6674	12.2295	-32.2754
 153	1	1	0.228748	-3.32599	17.0713	-17.495
 154	1	1	-0.221817	-4.38882	16.1589	-17.5472
 155	1	1	-0.090782	-3.32317	18.1968	-18.3359
 156	1	2	0.148235	-2.50598	18.9114	-18.2746
 157	1	1	-0.079307	-5.42836	16.3421	-18.4753
 158	1	1	-0.073979	-4.35849	18.3848	-19.2722
 159	1	1	0.031918	-5.40671	17.4453	-19.346
 160	1	3	-0.235323	-6.37463	17.5497	-20.3153
 161	1	1	0.139602	-7.70045	17.8049	-20.0532
 162	1	1	-0.107898	-8.10051	18.6078	-18.9711
 163	1	1	-0.094745	-8.6657	17.279	-20.9229
 164	1	1	-0.163657	-9.46355	18.8954	-18.7765
 165	1	1	-0.253044	-10.029	17.5585	-20.7235
 166	1	2	0.134377	-7.35729	19.0279	-18.2994
 167	1	1	-0.00458	-10.4421	18.3986	-19.6638
 168	1	2	0.169279	-8.34804	16.6508	-21.7508
 169	1	2	0.169448	-9.76473	19.5256	-17.9414
 170	1	1	-0.039038	-0.508552	16.7334	-18.2755
 171	1	1	-0.435237	0.870104	16.7324	-18.5562
 172	1	1	0.120439	-0.958834	16.8396	-16.9451
 173	1	1	0.323935	1.83153	16.8228	-17.5278
 174	1	1	-0.012898	-0.015518	16.8929	-15.9079
 175	1	2	0.208311	1.20919	16.6527	-19.5872
 176	1	1	-0.466417	1.36344	16.8775	-16.1936
 177	1	3	-0.302302	-2.29854	16.8407	-16.612
 178	1	2	0.13972	-0.364085	16.9349	-14.8787
 179	1	2	0.217142	2.07098	16.8818	-15.3686
 180	1	2	0.144775	-1.21914	16.6438	-19.0928
 181	1	2	0.161927	-4.38656	15.2979	-16.8848
 182	1	2	0.152343	-6.23625	15.6175	-18.5422
 183	1	4	1.02665	-4.2993	19.8148	-20.3645
 184	1	5	-0.487155	-5.63402	20.3904	-20.5017
 185	1	5	-0.529829	-3.11126	20.6416	-20.1686
 186	1	6	-0.538439	-4.18615	19.1539	-21.8307
 187	1	7	0.447385	-5.10986	19.3594	-22.0468
 188	1	2	0.176748	-10.7609	17.1154	-21.3961
 189	1	8	0.492969	-11.8976	18.749	-19.4395
 190	1	5	-0.49751	-12.2995	18.9687	-18.304
 191	1	1	0.228748	11.1631	18.8618	-14.3987
 192	1	1	-0.221817	10.537	19.7321	-15.3016
 193	1	1	-0.090782	10.3988	18.1893	-13.4289
 194	1	2	0.148235	10.891	17.536	-12.713
 195	1	1	-0.079307	9.14231	19.9028	-15.262
 196	1	1	-0.073979	8.99837	18.3262	-13.4052
 197	1	1	0.031918	8.37259	19.1881	-14.3284
 198	1	3	-0.235323	7.01084	19.3631	-14.3212
 199	1	1	0.139602	6.15619	18.7583	-15.217
 200	1	1	-0.107898	4.84576	19.246	-15.3147
 201	1	1	-0.094745	6.54792	17.659	-16.0039
 202	1	1	-0.163657	3.92323	18.636	-16.1817
 203	1	1	-0.253044	5.62273	17.0441	-16.8662
 204	1	2	0.134377	4.54903	20.1021	-14.7155
 205	1	1	-0.00458	4.29256	17.5076	-16.9472
 206	1	2	0.169279	7.55788	17.267	-15.9332
 207	1	2	0.169448	2.92053	19.0504	-16.2565
 208	1	1	-0.039038	14.5139	17.4243	-14.0284
 209	1	1	-0.435237	15.1866	16.1949	-13.8843
 210	1	1	0.120439	13.1524	17.4497	-14.3689
 211	1	1	0.323935	14.5068	14.9705	-14.0515
 212	1	1	-0.012898	12.4791	16.2336	-14.5989
 213	1	2	0.208311	16.2442	16.1812	-13.63
 214	1	1	-0.466417	13.1432	15.009	-14.4144
 215	1	3	-0.302302	12.5223	18.6715	-14.4971
 216	1	2	0.13972	11.4403	16.2335	-14.917
 217	1	2	0.217142	12.6051	14.0797	-14.5831
 218	1	2	0.144775	15.0422	18.363	-13.8787
 219	1	2	0.161927	11.137	20.2646	-16.0341
 220	1	2	0.152343	8.65212	20.578	-15.9596
 221	1	4	1.02665	8.05396	17.3527	-12.2196
 222	1	5	-0.487155	6.89819	16.7617	-12.8872
 223	1	5	-0.529829	8.89825	16.5738	-11.3167
 224	1	6	-0.538439	7.27445	18.4592	-11.345
 225	1	7	0.447385	6.42511	18.2778	-11.7775
 226	1	2	0.176748	5.93066	16.1894	-17.4671
 227	1	8	0.492969	3.31296	16.8172	-17.8704
 228	1	5	-0.49751	3.72016	16.2648	-18.8846
 229	1	1	0.228748	10.1407	6.47614	-13.0233
 230	1	1	-0.221817	9.80988	7.83584	-13.1152
 231	1	1	-0.090782	11.3072	6.09175	-12.3343
 232	1	2	0.148235	11.5941	5.04602	-12.2828
 233	1	1	-0.079307	10.6283	8.80786	-12.5138
 234	1	1	-0.073979	12.1088	7.05496	-11.6922
 235	1	1	0.031918	11.7755	8.41927	-11.8001
 236	1	3	-0.235323	12.548	9.37856	-11.1924
 237	1	1	0.139602	13.144	10.4041	-11.8861
 238	1	1	-0.107898	13.9766	10.1417	-12.9876
 239	1	1	-0.094745	12.9648	11.7222	-11.4431
 240	1	1	-0.163657	14.6486	11.1984	-13.6277
 241	1	1	-0.253044	13.6071	12.7836	-12.1059
 242	1	2	0.134377	14.1253	9.1201	-13.326
 243	1	1	-0.00458	14.4657	12.5285	-13.1987
 244	1	2	0.169279	12.3337	11.9121	-10.5781
 245	1	2	0.169448	15.3206	10.9884	-14.4581
 246	1	1	-0.039038	9.34086	3.36052	-14.5767
 247	1	1	-0.435237	9.42435	1.96448	-14.4163
 248	1	1	0.120439	9.34478	4.20039	-13.4533
 249	1	1	0.323935	9.52756	1.38183	-13.1359
 250	1	1	-0.012898	9.36967	3.63329	-12.1663
 251	1	2	0.208311	9.42863	1.31755	-15.2909
 252	1	1	-0.466417	9.47858	2.23857	-12.0113
 253	1	3	-0.302302	9.30909	5.56505	-13.6407
 254	1	2	0.13972	9.3249	4.27847	-11.2919
 255	1	2	0.217142	9.51311	1.81729	-11.0089
 256	1	2	0.144775	9.28744	3.79958	-15.5698
 257	1	2	0.161927	8.91434	8.13043	-13.6548
 258	1	2	0.152343	10.3657	9.86065	-12.5821
 259	1	4	1.02665	13.5408	6.5016	-10.7496
 260	1	5	-0.487155	13.5931	7.19814	-9.46837
 261	1	5	-0.529829	13.7857	5.06513	-10.8633
 262	1	6	-0.538439	14.7759	7.26147	-11.4527
 263	1	7	0.447385	14.8332	7.91391	-10.7339
 264	1	2	0.176748	13.4683	13.7998	-11.7399
 265	1	8	0.492969	15.2212	13.648	-13.8701
 266	1	5	-0.49751	16.3698	13.4793	-14.2565
 267	1	1	0.228748	17.1743	-1.92982	-8.65749
 268	1	1	-0.221817	16.524	-2.72394	-9.61218
 269	1	1	-0.090782	16.4139	-1.15722	-7.7579
 270	1	2	0.148235	16.9095	-0.535095	-7.01795
 271	1	1	-0.079307	15.1201	-2.76898	-9.65856
 272	1	1	-0.073979	15.0055	-1.19174	-7.80196
 273	1	1	0.031918	14.3608	-2.0118	-8.75054
 274	1	3	-0.235323	12.991	-2.12533	-8.77578
 275	1	1	0.139602	12.2248	-1.6425	-9.81101
 276	1	1	-0.107898	12.5124	-0.403301	-10.4067
 277	1	1	-0.094745	11.1234	-2.38942	-10.2552
 278	1	1	-0.163657	11.6925	0.0929792	-11.4334
 279	1	1	-0.253044	10.3102	-1.90001	-11.2943
 280	1	2	0.134377	13.3584	0.183321	-10.0593
 281	1	1	-0.00458	10.5719	-0.642834	-11.8795
 282	1	2	0.169279	10.9082	-3.34905	-9.79315
 283	1	2	0.169448	11.941	1.05207	-11.8828
 284	1	1	-0.039038	19.6466	-1.67622	-6.50538
 285	1	1	-0.435237	20.3673	-0.863618	-5.60833
 286	1	1	0.120439	19.3029	-1.18394	-7.77467
 287	1	1	0.323935	20.7445	0.449226	-5.96043
 288	1	1	-0.012898	19.7021	0.104637	-8.15657
 289	1	2	0.208311	20.6226	-1.23702	-4.61908
 290	1	1	-0.466417	20.415	0.913989	-7.25481
 291	1	3	-0.302302	18.5515	-1.94586	-8.63499
 292	1	2	0.13972	19.4449	0.473649	-9.14625
 293	1	2	0.217142	20.7188	1.91256	-7.55955
 294	1	2	0.144775	19.3403	-2.67948	-6.21882
 295	1	2	0.161927	17.116	-3.31576	-10.3043
 296	1	2	0.152343	14.6168	-3.40283	-10.3846
 297	1	4	1.02665	14.0693	-0.183793	-6.63761
 298	1	5	-0.487155	14.9085	0.556405	-5.69724
 299	1	5	-0.529829	12.9386	0.439156	-7.31704
 300	1	6	-0.538439	13.2287	-1.27013	-5.79858
 301	1	7	0.447385	12.4211	-1.10127	-6.31319
 302	1	2	0.176748	9.46367	-2.4894	-11.6439
 303	1	8	0.492969	9.68359	-0.12061	-12.9853
 304	1	5	-0.49751	9.16634	-0.896805	-13.7781
 305	1	1	0.228748	16.167	8.36389	-5.90793
 306	1	1	-0.221817	17.2594	8.29085	-6.78356
 307	1	1	-0.090782	16.3195	7.94591	-4.57189
 308	1	2	0.148235	15.4824	8.00779	-3.88234
 309	1	1	-0.079307	18.4916	7.7818	-6.33134
 310	1	1	-0.073979	17.5376	7.41403	-4.11759
 311	1	1	0.031918	18.6284	7.32998	-5.00641
 312	1	3	-0.235323	19.8396	6.82275	-4.59946
 313	1	1	0.139602	20.206	5.49983	-4.73196
 314	1	1	-0.107898	21.5121	5.12866	-4.38047
 315	1	1	-0.094745	19.2987	4.51386	-5.16138
 316	1	1	-0.163657	21.9164	3.78486	-4.46523
 317	1	1	-0.253044	19.6993	3.16977	-5.2373
 318	1	2	0.134377	22.2069	5.88234	-4.02065
 319	1	1	-0.00458	21.0191	2.79014	-4.9014
 320	1	2	0.169279	18.2738	4.77955	-5.40128
 321	1	2	0.169448	22.9271	3.50992	-4.17199
 322	1	1	-0.039038	13.0788	9.14954	-4.90488
 323	1	1	-0.435237	12.1241	8.58677	-4.03552
 324	1	1	0.120439	13.7974	8.32267	-5.78238
 325	1	1	0.323935	11.8971	7.19427	-4.01301
 326	1	1	-0.012898	13.5089	6.9501	-5.84513
 327	1	2	0.208311	11.6063	9.21661	-3.31552
 328	1	1	-0.466417	12.572	6.39069	-4.9595
 329	1	3	-0.302302	14.9431	8.79409	-6.37737
 330	1	2	0.13972	14.0745	6.31472	-6.52362
 331	1	2	0.217142	12.4029	5.31639	-4.97311
 332	1	2	0.144775	13.3252	10.2068	-4.84485
 333	1	2	0.161927	17.1404	8.6156	-7.81254
 334	1	2	0.152343	19.341	7.72076	-7.00747
 335	1	4	1.02665	17.6183	6.81515	-2.42072
 336	1	5	-0.487155	16.4453	7.18786	-1.63175
 337	1	5	-0.529829	18.1092	5.44287	-2.44272
 338	1	6	-0.538439	18.9196	7.54085	-1.80314
 339	1	7	0.447385	19.4926	6.76662	-1.92916
 340	1	2	0.176748	18.9649	2.42248	-5.53031
 341	1	8	0.492969	21.4626	1.34718	-4.97317
 342	1	5	-0.49751	22.4217	0.945735	-4.32545
 343	1	1	0.228748	16.9112	0.381527	-1.49312
 344	1	1	-0.221817	15.9798	0.688228	-2.49081
 345	1	1	-0.090782	16.5691	0.513457	-0.140197
 346	1	2	0.148235	17.31	0.268381	0.613736
 347	1	1	-0.079307	14.7048	1.15797	-2.1363
 348	1	1	-0.073979	15.2898	0.976034	0.226788
 349	1	1	0.031918	14.3649	1.32428	-0.778625
 350	1	3	-0.235323	13.144	1.86579	-0.439234
 351	1	1	0.139602	12.6549	3.02583	-1.00096
 352	1	1	-0.107898	11.2666	3.21414	-1.08448
 353	1	1	-0.094745	13.5211	4.02856	-1.47339
 354	1	1	-0.163657	10.7437	4.37179	-1.69219
 355	1	1	-0.253044	13.0003	5.17641	-2.09246
 356	1	2	0.134377	10.5992	2.45306	-0.688403
 357	1	1	-0.00458	11.6043	5.34801	-2.23569
 358	1	2	0.169279	14.5981	3.91769	-1.36429
 359	1	2	0.169448	9.66608	4.50638	-1.76114
 360	1	1	-0.039038	19.112	2.24562	-1.63081
 361	1	1	-0.435237	20.2276	3.06654	-1.40087
 362	1	1	0.120439	19.2538	0.84582	-1.61787
 363	1	1	0.323935	21.5002	2.52194	-1.14363
 364	1	1	-0.012898	20.5168	0.283635	-1.38511
 365	1	2	0.208311	20.1077	4.14486	-1.41833
 366	1	1	-0.466417	21.6289	1.11264	-1.14964
 367	1	3	-0.302302	18.1821	0.0132535	-1.84733
 368	1	2	0.13972	20.6284	-0.797437	-1.38995
 369	1	2	0.217142	22.6023	0.652322	-1.00727
 370	1	2	0.144775	18.1449	2.70249	-1.82553
 371	1	2	0.161927	16.2608	0.586072	-3.53424
 372	1	2	0.152343	13.9899	1.41367	-2.91494
 373	1	4	1.02665	14.8761	1.13998	1.97148
 374	1	5	-0.487155	13.5887	0.49531	2.20914
 375	1	5	-0.529829	16.0264	0.933438	2.86007
 376	1	6	-0.538439	14.4203	2.6832	2.11317
 377	1	7	0.447385	13.4799	2.50239	1.94367
 378	1	2	0.176748	13.6941	5.93767	-2.44581
 379	1	8	0.492969	11.0381	6.56236	-2.93595
 380	1	5	-0.49751	9.98776	7.06848	-2.56407
 381	1	1	0.228748	31.0	0.412901	-0.32542
 382	1	1	-0.221817	30.8154	1.57698	0.438539
 383	1	1	-0.090782	29.9355	-0.479882	-0.517242
 384	1	2	0.148235	30.1003	-1.38103	-1.10188
 385	1	1	-0.079307	29.571	1.83345	1.03448
 386	1	1	-0.073979	28.6822	-0.233344	0.0830878
 387	1	1	0.031918	28.5099	0.93114	0.860647
 388	1	3	-0.235323	27.3271	1.19274	1.5023
 389	1	1	0.139602	26.2326	1.76884	0.899419
 390	1	1	-0.107898	26.3427	2.55762	-0.260467
 391	1	1	-0.094745	24.9753	1.55472	1.48077
 392	1	1	-0.163657	25.1892	3.11689	-0.837724
 393	1	1	-0.253044	23.8197	2.10133	0.897308
 394	1	2	0.134377	27.313	2.741	-0.711363
 395	1	1	-0.00458	23.9185	2.87481	-0.278287
 396	1	2	0.169279	24.909	0.944953	2.37594
 397	1	2	0.169448	25.2725	3.72662	-1.73485
 398	1	1	-0.039038	34.5134	0.856234	-0.592158
 399	1	1	-0.435237	35.6534	1.02861	0.217135
 400	1	1	0.120439	33.3746	0.223505	-0.0726706
 401	1	1	0.323935	35.6867	0.558998	1.54878
 402	1	1	-0.012898	33.3879	-0.249509	1.25104
 403	1	2	0.208311	36.5261	1.54203	-0.181892
 404	1	1	-0.466417	34.5279	-0.0738252	2.05484
 405	1	3	-0.302302	32.238	0.117262	-0.842261
 406	1	2	0.13972	32.5042	-0.734857	1.65823
 407	1	2	0.217142	34.4967	-0.405574	3.08885
 408	1	2	0.144775	34.4975	1.23137	-1.61258
 409	1	2	0.161927	31.6421	2.2675	0.582183
 410	1	2	0.152343	29.4269	2.72218	1.6444
 411	1	4	1.02665	27.3465	-1.42837	-0.134899
 412	1	5	-0.487155	26.146	-1.37932	0.694061
 413	1	5	-0.529829	27.4065	-2.0745	-1.43974
 414	1	6	-0.538439	28.0111	-2.81777	0.00841808
 415	1	7	0.447385	27.7372	-2.70975	-0.974526
 416	1	2	0.176748	22.8443	1.92757	1.35387
 417	1	8	0.492969	22.6888	3.44317	-0.935017
 418	1	5	-0.49751	22.7275	4.56397	-1.43128
 419	1	1	0.228748	35.5969	-5.62349	8.40312
 420	1	1	-0.221817	35.1188	-4.37393	7.98905
 421	1	1	-0.090782	36.9498	-5.95386	8.2289
 422	1	2	0.148235	37.3104	-6.92049	8.56907
 423	1	1	-0.079307	35.9935	-3.45316	7.38916
 424	1	1	-0.073979	37.8315	-5.04727	7.60523
 425	1	1	0.031918	37.3463	-3.78923	7.18513
 426	1	3	-0.235323	38.2005	-2.8608	6.63666
 427	1	1	0.139602	37.8621	-1.99896	5.61933
 428	1	1	-0.107898	37.1924	-2.45937	4.47406
 429	1	1	-0.094745	38.2348	-0.650537	5.713
 430	1	1	-0.163657	36.8828	-1.56733	3.43174
 431	1	1	-0.253044	37.9148	0.244958	4.67599
 432	1	2	0.134377	36.9393	-3.51232	4.38582
 433	1	1	-0.00458	37.2235	-0.19841	3.52802
 434	1	2	0.169279	38.7778	-0.308715	6.59019
 435	1	2	0.169448	36.3991	-1.9546	2.53774
 436	1	1	-0.039038	34.6454	-8.12466	7.17834
 437	1	1	-0.435237	33.9693	-9.18155	6.54338
 438	1	1	0.120439	34.0982	-7.53007	8.33019
 439	1	1	0.323935	32.7361	-9.67136	7.02725
 440	1	1	-0.012898	32.8656	-7.99209	8.81834
 441	1	2	0.208311	34.3975	-9.63474	5.65185
 442	1	1	-0.466417	32.1858	-9.04105	8.16821
 443	1	3	-0.302302	34.7304	-6.50407	9.00068
 444	1	2	0.13972	32.433	-7.51906	9.69662
 445	1	2	0.217142	31.212	-9.34978	8.53886
 446	1	2	0.144775	35.592	-7.77934	6.77354
 447	1	2	0.161927	34.0744	-4.12101	8.14666
 448	1	2	0.152343	35.6259	-2.47431	7.09197
 449	1	4	1.02665	39.5476	-5.55488	7.34878
 450	1	5	-0.487155	40.4427	-4.59568	6.70825
 451	1	5	-0.529829	39.9999	-6.3585	8.48131
 452	1	6	-0.538439	39.4057	-6.78585	6.31501
 453	1	7	0.447385	40.0134	-7.3561	6.81971
 454	1	2	0.176748	38.2156	1.28877	4.75305
 455	1	8	0.492969	36.919	0.776486	2.41043
 456	1	5	-0.49751	37.6422	1.74769	2.23048
 457	1	1	0.228748	27.6393	-15.1327	12.9627
 458	1	1	-0.221817	28.411	-16.055	12.2323
 459	1	1	-0.090782	27.1857	-13.9664	12.3375
 460	1	2	0.148235	26.5815	-13.2662	12.9065
 461	1	1	-0.079307	28.7207	-15.7978	10.8842
 462	1	1	-0.073979	27.4754	-13.7077	10.9843
 463	1	1	0.031918	28.2618	-14.6268	10.2572
 464	1	3	-0.235323	28.5067	-14.4821	8.91279
 465	1	1	0.139602	29.3926	-13.5957	8.33973
 466	1	1	-0.107898	29.2869	-13.3706	6.96072
 467	1	1	-0.094745	30.3858	-12.9271	9.0786
 468	1	1	-0.163657	30.1535	-12.471	6.3208
 469	1	1	-0.253044	31.2604	-12.0292	8.43454
 470	1	2	0.134377	28.5207	-13.8882	6.39034
 471	1	1	-0.00458	31.1383	-11.7712	7.04771
 472	1	2	0.169279	30.4827	-13.1064	10.1457
 473	1	2	0.169448	30.049	-12.2936	5.2514
 474	1	1	-0.039038	26.6681	-17.3468	15.4555
 475	1	1	-0.435237	27.0404	-18.4225	16.2835
 476	1	1	0.120439	27.6331	-16.4248	15.0272
 477	1	1	0.323935	28.3771	-18.5985	16.7042
 478	1	1	-0.012898	28.9671	-16.5751	15.4337
 479	1	2	0.208311	26.2809	-19.121	16.6297
 480	1	1	-0.466417	29.3347	-17.6545	16.2595
 481	1	3	-0.302302	27.2494	-15.3492	14.2654
 482	1	2	0.13972	29.7022	-15.8265	15.1433
 483	1	2	0.217142	30.36	-17.7013	16.6117
 484	1	2	0.144775	25.6312	-17.2118	15.1567
 485	1	2	0.161927	28.7492	-16.9777	12.6923
 486	1	2	0.152343	29.2965	-16.5184	10.3087
 487	1	4	1.02665	26.7895	-12.1968	10.2897
 488	1	5	-0.487155	26.819	-12.1399	8.82849
 489	1	5	-0.529829	25.6001	-11.7768	11.026
 490	1	6	-0.538439	27.9454	-11.141	10.714
 491	1	7	0.447385	28.1425	-10.7606	9.82248
 492	1	2	0.176748	32.0365	-11.5425	9.02001
 493	1	8	0.492969	32.0464	-10.8162	6.29811
 494	1	5	-0.49751	32.3041	-11.0418	5.12098
 495	1	1	0.228748	37.165	-17.8282	17.0874
 496	1	1	-0.221817	35.8102	-17.4932	16.9878
 497	1	1	-0.090782	37.5556	-18.9808	17.7833
 498	1	2	0.148235	38.6108	-19.2362	17.843
 499	1	1	-0.079307	34.8389	-18.308	17.5891
 500	1	1	-0.073979	36.5841	-19.8241	18.36
 501	1	1	0.031918	35.2166	-19.4925	18.2568
 502	1	3	-0.235323	34.2704	-20.3202	18.8301
 503	1	1	0.139602	32.9273	-20.2865	18.5358
 504	1	1	-0.107898	32.4764	-20.3322	17.2051
 505	1	1	-0.094745	32.0024	-20.1785	19.5833
 506	1	1	-0.163657	31.1087	-20.1776	16.9211
 507	1	1	-0.253044	30.6341	-20.0273	19.3008
 508	1	2	0.134377	33.1921	-20.4591	16.3972
 509	1	1	-0.00458	30.1809	-19.9826	17.9667
 510	1	2	0.169279	32.3525	-20.1837	20.6116
 511	1	2	0.169448	30.7718	-20.1905	15.8866
 512	1	1	-0.039038	38.0116	-18.3754	14.3936
 513	1	1	-0.435237	38.4928	-18.6058	13.0925
 514	1	1	0.120439	38.5237	-17.3095	15.1585
 515	1	1	0.323935	39.4848	-17.786	12.5135
 516	1	1	-0.012898	39.5174	-16.4891	14.6033
 517	1	2	0.208311	38.102	-19.4427	12.5171
 518	1	1	-0.466417	40.0002	-16.7277	13.3002
 519	1	3	-0.302302	38.099	-17.0549	16.4472
 520	1	2	0.13972	39.9205	-15.6767	15.2015
 521	1	2	0.217142	40.8018	-16.1057	12.9137
 522	1	2	0.144775	37.2491	-19.0334	14.8015
 523	1	2	0.161927	35.5165	-16.6092	16.4296
 524	1	2	0.152343	33.794	-18.0213	17.5159
 525	1	4	1.02665	37.1239	-21.3385	19.1732
 526	1	5	-0.487155	36.372	-22.4676	18.6352
 527	1	5	-0.529829	38.5679	-21.3981	19.3817
 528	1	6	-0.538439	36.4233	-21.2967	20.6233
 529	1	7	0.447385	35.8001	-22.0038	20.3829
 530	1	2	0.176748	29.9239	-19.9117	20.1183
 531	1	8	0.492969	28.726	-19.718	17.6743
 532	1	5	-0.49751	27.8622	-20.2347	18.3708
 533	1	1	0.228748	44.9581	-11.4309	9.7136
 534	1	1	-0.221817	45.0494	-12.8066	9.96456
 535	1	1	-0.090782	44.0436	-10.9419	8.76863
 536	1	2	0.148235	43.9727	-9.8701	8.6005
 537	1	1	-0.079307	44.2066	-13.6981	9.28674
 538	1	1	-0.073979	43.1862	-11.8308	8.08744
 539	1	1	0.031918	43.2584	-13.2135	8.36577
 540	1	3	-0.235323	42.3717	-14.0975	7.79481
 541	1	1	0.139602	41.7529	-15.0576	8.55982
 542	1	1	-0.107898	42.1161	-16.404	8.42027
 543	1	1	-0.094745	40.797	-14.6859	9.51856
 544	1	1	-0.163657	41.5416	-17.3758	9.25852
 545	1	1	-0.253044	40.2134	-15.6601	10.3507
 546	1	2	0.134377	42.8523	-16.6878	7.67297
 547	1	1	-0.00458	40.6001	-17.017	10.2484
 548	1	2	0.169279	40.5093	-13.6408	9.60611
 549	1	2	0.169448	41.8297	-18.4196	9.14252
 550	1	1	-0.039038	46.366	-10.7817	12.7973
 551	1	1	-0.435237	46.0275	-10.834	14.1641
 552	1	1	0.120439	45.3744	-10.5137	11.8416
 553	1	1	0.323935	44.6996	-10.624	14.5962
 554	1	1	-0.012898	44.0541	-10.2746	12.2565
 555	1	2	0.208311	46.7963	-11.0455	14.9051
 556	1	1	-0.466417	43.7208	-10.3306	13.6196
 557	1	3	-0.302302	45.6707	-10.5644	10.5007
 558	1	2	0.13972	43.2892	-10.0518	11.5164
 559	1	2	0.217142	42.6965	-10.121	13.9171
 560	1	2	0.144775	47.3865	-10.9682	12.4717
 561	1	2	0.161927	45.7525	-13.1727	10.7071
 562	1	2	0.152343	44.2686	-14.7624	9.49847
 563	1	4	1.02665	41.9649	-11.1621	6.94096
 564	1	5	-0.487155	41.8392	-9.70501	6.97491
 565	1	5	-0.529829	41.9872	-11.9137	5.69199
 566	1	6	-0.538439	40.5696	-11.7698	7.45897
 567	1	7	0.447385	40.5309	-12.3513	6.67564
 568	1	2	0.176748	39.4464	-15.3557	11.06
 569	1	8	0.492969	39.9934	-18.1026	11.1136
 570	1	5	-0.49751	39.9238	-19.2441	10.676
 571	1	1	0.228748	38.5047	-15.2741	20.285
 572	1	1	-0.221817	39.6751	-14.5073	20.3286
 573	1	1	-0.090782	37.5308	-15.0044	19.3048
 574	1	2	0.148235	36.6282	-15.607	19.2561
 575	1	1	-0.079307	39.8646	-13.4576	19.4143
 576	1	1	-0.073979	37.7017	-13.941	18.4004
 577	1	1	0.031918	38.8751	-13.1631	18.4524
 578	1	3	-0.235323	39.0336	-12.103	17.5849
 579	1	1	0.139602	40.2749	-11.7071	17.1576
 580	1	1	-0.107898	40.9225	-12.4318	16.147
 581	1	1	-0.094745	40.9281	-10.6409	17.7939
 582	1	1	-0.163657	42.2369	-12.0972	15.7784
 583	1	1	-0.253044	42.251	-10.3206	17.4417
 584	1	2	0.134377	40.4075	-13.2611	15.6699
 585	1	1	-0.00458	42.9145	-11.0412	16.4277
 586	1	2	0.169279	40.4186	-10.0919	18.5815
 587	1	2	0.169448	42.7391	-12.6784	15.0077
 588	1	1	-0.039038	36.1039	-15.6424	21.9605
 589	1	1	-0.435237	34.7656	-16.0114	22.1662
 590	1	1	0.120439	37.0635	-16.6242	21.657
 591	1	1	0.323935	34.3738	-17.3655	22.1156
 592	1	1	-0.012898	36.705	-17.9807	21.6787
 593	1	2	0.208311	34.016	-15.2401	22.3261
 594	1	1	-0.466417	35.3659	-18.3464	21.9152
 595	1	3	-0.302302	38.319	-16.2558	21.2339
 596	1	2	0.13972	37.4546	-18.7384	21.4592
 597	1	2	0.217142	35.079	-19.3945	21.8853
 598	1	2	0.144775	36.3867	-14.5922	21.9662
 599	1	2	0.161927	40.4238	-14.7199	21.0866
 600	1	2	0.152343	40.7718	-12.8621	19.4738
 601	1	4	1.02665	36.3945	-13.5841	17.2167
 602	1	5	-0.487155	37.0041	-13.447	15.8962
 603	1	5	-0.529829	35.1767	-14.3592	17.4639
 604	1	6	-0.538439	36.0518	-12.0372	17.5395
 605	1	7	0.447385	36.768	-11.6781	16.9931
 606	1	2	0.176748	42.7724	-9.51553	17.9581
 607	1	8	0.492969	44.3384	-10.6996	16.0671
 608	1	5	-0.49751	45.1641	-10.4974	16.9472
 609	1	1	0.228748	25.8067	-13.7496	17.8427
 610	1	1	-0.221817	26.0494	-15.0536	18.2976
 611	1	1	-0.090782	26.887	-12.9082	17.5271
 612	1	2	0.148235	26.701	-11.8984	17.1713
 613	1	1	-0.079307	27.3689	-15.5239	18.4241
 614	1	1	-0.073979	28.2083	-13.3785	17.6318
 615	1	1	0.031918	28.4523	-14.6796	18.114
 616	1	3	-0.235323	29.7487	-15.1392	18.1297
 617	1	1	0.139602	30.4451	-15.7684	19.1362
 618	1	1	-0.107898	29.8738	-16.2012	20.3487
 619	1	1	-0.094745	31.8158	-15.9551	18.9123
 620	1	1	-0.163657	30.6719	-16.8516	21.3096
 621	1	1	-0.253044	32.6176	-16.5737	19.8825
 622	1	2	0.134377	28.8231	-16.0357	20.5582
 623	1	1	-0.00458	32.0529	-17.0332	21.0933
 624	1	2	0.169279	32.2574	-15.5992	17.9833
 625	1	2	0.169448	30.2241	-17.2003	22.2384
 626	1	1	-0.039038	23.1794	-11.4371	17.0274
 627	1	1	-0.435237	22.7809	-10.5078	16.0466
 628	1	1	0.120439	24.1015	-12.4453	16.7094
 629	1	1	0.323935	23.2984	-10.5596	14.7341
 630	1	1	-0.012898	24.5902	-12.5442	15.394
 631	1	2	0.208311	22.0646	-9.72863	16.2984
 632	1	1	-0.466417	24.1993	-11.6045	14.4217
 633	1	3	-0.302302	24.5055	-13.3265	17.6902
 634	1	2	0.13972	25.2735	-13.3489	15.1328
 635	1	2	0.217142	24.5772	-11.6999	13.4054
 636	1	2	0.144775	22.7843	-11.3759	18.0385
 637	1	2	0.161927	25.2096	-15.7052	18.5209
 638	1	2	0.152343	27.547	-16.5538	18.72
 639	1	4	1.02665	29.5531	-12.3097	17.085
 640	1	5	-0.487155	29.1081	-10.9831	16.6634
 641	1	5	-0.529829	30.5252	-13.0744	16.307
 642	1	6	-0.538439	30.4595	-12.1233	18.4027
 643	1	7	0.447385	31.1909	-12.6332	18.015
 644	1	2	0.176748	33.6792	-16.6994	19.6788
 645	1	8	0.492969	32.9061	-17.724	22.1297
 646	1	5	-0.49751	32.4745	-18.6914	22.742
 647	1	1	0.228748	26.5956	-5.88454	6.27261
 648	1	1	-0.221817	25.8803	-5.57553	7.44364
 649	1	1	-0.090782	27.3035	-7.08818	6.1879
 650	1	2	0.148235	27.8548	-7.31403	5.2785
 651	1	1	-0.079307	25.8797	-6.47044	8.52637