pySIMM System Object

382 atoms
411 bonds
660 angles
966 dihedrals
110 impropers

9 atom types
10 bond types
15 angle types
5 dihedral types
2 improper types

-91.451288 91.451288 xlo xhi
-91.451288 91.451288 ylo yhi
-91.451288 91.451288 zlo zhi

Masses

   1	12.01	# ca
   2	1.008	# ha
   3	16.0	# os
   4	32.06	# sy
   5	16.0	# o
   6	16.0	# oh
   7	1.008	# ho
   8	12.01	# c
   9	1.008	# h4

Pair Coeffs

   1	0.086	3.3996695084235347	# ca
   2	0.015	2.59964245953351	# ha
   3	0.17	3.0000123434657784	# os
   4	0.25	3.563594872561357	# sy
   5	0.21	2.959921901149463	# o
   6	0.2104	3.0664733878390478	# oh
   7	1e-05	0.0	# ho
   8	0.086	3.3996695084235347	# c
   9	0.015	2.5105525877194763	# h4

Bond Coeffs

   1	345.8	1.086	# ca,ha
   2	243.4	1.7909	# ca,sy
   3	289.8	1.6497	# oh,sy
   4	637.7	1.2183	# c,o
   5	376.6	1.3696	# ca,os
   6	371.4	0.973	# ho,oh
   7	461.1	1.3984	# ca,ca
   8	345.9	1.4906	# c,ca
   9	310.7	1.1121	# c,h4
  10	493.0	1.466	# o,sy

Angle Coeffs

   1	48.18	119.88	# ca,ca,ha
   2	72.54	121.41	# o,sy,o
   3	72.32	106.68	# o,sy,oh
   4	61.48	119.42	# ca,ca,sy
   5	64.28	120.33	# c,ca,ca
   6	69.58	119.2	# ca,ca,os
   7	68.72	122.6	# ca,c,o
   8	54.22	120.7	# h4,c,o
   9	46.43	115.14	# ca,c,h4
  10	44.17	106.42	# ho,oh,sy
  11	65.46	101.3	# ca,sy,oh
  12	65.77	108.35	# ca,sy,o
  13	63.48	119.89	# ca,os,ca
  14	66.62	120.02	# ca,ca,ca
  15	63.0	118.11	# ca,c,ca

Dihedral Coeffs

   1	1	1.3	2	180	# X,ca,sy,X
   2	1	9.5	1	180	# X,oh,sy,X
   3	1	3.625	2	180	# X,ca,ca,X
   4	1	1.0	2	180	# X,c,ca,X
   5	1	0.9	2	180	# X,ca,os,X

Improper Coeffs

   1	10.5	-1	2	# c,X,X,o
   2	1.1	-1	2	# ca,X,X,ha

Atoms

   1	1	1	0.228748	32.6725	-9.31428	-36.0082
   2	1	1	-0.221817	33.6608	-9.09856	-36.977
   3	1	1	-0.090782	32.5719	-10.5707	-35.3832
   4	1	2	0.148235	31.8232	-10.7324	-34.6122
   5	1	1	-0.079307	34.5288	-10.1412	-37.3417
   6	1	1	-0.073979	33.4068	-11.6368	-35.7718
   7	1	1	0.031918	34.4057	-11.4073	-36.7458
   8	1	3	-0.235323	35.2526	-12.3973	-37.1816
   9	1	1	0.139602	36.2724	-12.9432	-36.4339
  10	1	1	-0.107898	36.7571	-12.3308	-35.2631
  11	1	1	-0.094745	36.8193	-14.1635	-36.8566
  12	1	1	-0.163657	37.7662	-12.9563	-34.5094
  13	1	1	-0.253044	37.8376	-14.784	-36.1103
  14	1	2	0.134377	36.341	-11.3864	-34.9241
  15	1	1	-0.00458	38.3146	-14.1864	-34.9255
  16	1	2	0.169279	36.4333	-14.6295	-37.7599
  17	1	2	0.169448	38.125	-12.4891	-33.5938
  18	1	1	-0.039038	29.6965	-9.45871	-35.6049
  19	1	1	-0.435237	28.4126	-9.57639	-35.0428
  20	1	1	0.120439	30.5397	-8.39753	-35.2234
  21	1	1	0.323935	27.9246	-8.62044	-34.1283
  22	1	1	-0.012898	30.0588	-7.42328	-34.3372
  23	1	2	0.208311	27.7834	-10.4251	-35.3042
  24	1	1	-0.466417	28.7644	-7.53097	-33.7968
  25	1	3	-0.302302	31.8274	-8.27125	-35.7004
  26	1	2	0.13972	30.7058	-6.59568	-34.056
  27	1	2	0.217142	28.4333	-6.78279	-33.0812
  28	1	2	0.144775	30.0429	-10.2037	-36.3167
  29	1	2	0.161927	33.7413	-8.12403	-37.45
  30	1	2	0.152343	35.2893	-9.97913	-38.1016
  31	1	4	1.02665	33.0857	-13.2566	-35.0367
  32	1	5	-0.487155	31.8015	-13.3218	-34.3433
  33	1	5	-0.529829	33.5653	-14.3525	-35.8719
  34	1	6	-0.538439	34.2058	-13.3715	-33.8885
  35	1	7	0.447385	34.6293	-14.127	-34.3322
  36	1	2	0.176748	38.2477	-15.7328	-36.4493
  37	1	8	0.492969	39.3909	-14.8542	-34.1146
  38	1	5	-0.49751	39.8207	-14.4066	-33.0642
  39	1	1	0.228748	21.084	-4.68131	-28.4724
  40	1	1	-0.221817	20.9586	-5.15482	-29.7857
  41	1	1	-0.090782	22.2218	-3.96235	-28.0791
  42	1	2	0.148235	22.31	-3.62263	-27.0502
  43	1	1	-0.079307	21.992	-4.93066	-30.7076
  44	1	1	-0.073979	23.2688	-3.74496	-28.9955
  45	1	1	0.031918	23.1528	-4.24469	-30.308
  46	1	3	-0.235323	24.1962	-4.13988	-31.1942
  47	1	1	0.139602	24.7786	-5.26247	-31.7346
  48	1	1	-0.107898	25.2002	-5.2363	-33.0713
  49	1	1	-0.094745	24.9318	-6.43604	-30.9726
  50	1	1	-0.163657	25.7693	-6.38297	-33.6508
  51	1	1	-0.253044	25.4833	-7.58864	-31.5566
  52	1	2	0.134377	25.0738	-4.32955	-33.656
  53	1	1	-0.00458	25.9159	-7.56591	-32.8963
  54	1	2	0.169279	24.6263	-6.44986	-29.9299
  55	1	2	0.169448	26.0874	-6.35645	-34.6909
  56	1	1	-0.039038	21.1173	-7.25263	-27.2046
  57	1	1	-0.435237	21.0342	-8.52222	-26.6059
  58	1	1	0.120439	20.0999	-6.2998	-26.9908
  59	1	1	0.323935	19.9527	-8.86676	-25.7701
  60	1	1	-0.012898	19.0023	-6.63967	-26.1872
  61	1	2	0.208311	21.8206	-9.25451	-26.7772
  62	1	1	-0.466417	18.9267	-7.9106	-25.5871
  63	1	3	-0.302302	20.1472	-5.03469	-27.5393
  64	1	2	0.13972	18.211	-5.90948	-26.0342
  65	1	2	0.217142	18.0568	-8.15721	-24.9837
  66	1	2	0.144775	21.9758	-7.01607	-27.827
  67	1	2	0.161927	20.0781	-5.72412	-30.0704
  68	1	2	0.152343	21.9152	-5.3203	-31.7201
  69	1	4	1.02665	24.7689	-2.91983	-28.4396
  70	1	5	-0.487155	24.6535	-2.3347	-27.106
  71	1	5	-0.529829	25.9203	-3.72419	-28.838
  72	1	6	-0.538439	24.9768	-1.72777	-29.5017
  73	1	7	0.447385	25.6718	-2.22052	-29.9695
  74	1	2	0.176748	25.5953	-8.49846	-30.9684
  75	1	8	0.492969	26.5511	-8.78462	-33.5057
  76	1	5	-0.49751	26.0089	-9.87731	-33.4103
  77	1	1	0.228748	18.8016	-10.3834	-16.3202
  78	1	1	-0.221817	19.4263	-11.2011	-17.2724
  79	1	1	-0.090782	17.64	-9.66806	-16.666
  80	1	2	0.148235	17.1547	-9.02572	-15.9368
  81	1	1	-0.079307	18.8893	-11.3212	-18.565
  82	1	1	-0.073979	17.0956	-9.78466	-17.9601
  83	1	1	0.031918	17.7204	-10.6195	-18.9074
  84	1	3	-0.235323	17.1564	-10.8059	-20.1465
  85	1	1	0.139602	17.8621	-10.6676	-21.3148
  86	1	1	-0.107898	17.8754	-11.7219	-22.2386
  87	1	1	-0.094745	18.5359	-9.47072	-21.603
  88	1	1	-0.163657	18.5598	-11.5796	-23.4578
  89	1	1	-0.253044	19.2142	-9.32438	-22.8262
  90	1	2	0.134377	17.3526	-12.6455	-22.0071
  91	1	1	-0.00458	19.2127	-10.3715	-23.7769
  92	1	2	0.169279	18.5111	-8.65471	-20.8844
  93	1	2	0.169448	18.5694	-12.402	-24.1711
  94	1	1	-0.039038	19.7073	-8.25993	-13.8904
  95	1	1	-0.435237	19.3568	-7.38189	-12.8492
  96	1	1	0.120439	18.9764	-9.43901	-14.0859
  97	1	1	0.323935	18.2776	-7.66001	-11.9813
  98	1	1	-0.012898	17.8974	-9.73884	-13.2398
  99	1	2	0.208311	19.9461	-6.48184	-12.6852
 100	1	1	-0.466417	17.549	-8.8555	-12.1991
 101	1	3	-0.302302	19.3621	-10.3198	-15.0661
 102	1	2	0.13972	17.3518	-10.669	-13.3806
 103	1	2	0.217142	16.7406	-9.13292	-11.5293
 104	1	2	0.144775	20.5568	-8.04397	-14.5337
 105	1	2	0.161927	20.3232	-11.749	-16.9975
 106	1	2	0.152343	19.3648	-11.9722	-19.2947
 107	1	4	1.02665	15.6215	-8.84167	-18.382
 108	1	5	-0.487155	15.0439	-8.12732	-17.2454
 109	1	5	-0.529829	15.823	-8.21151	-19.6839
 110	1	6	-0.538439	14.5675	-9.96406	-18.8551
 111	1	7	0.447385	14.7274	-9.77212	-19.7947
 112	1	2	0.176748	19.7379	-8.39216	-23.031
 113	1	8	0.492969	19.9059	-10.2332	-25.1112
 114	1	5	-0.49751	20.4123	-11.2123	-25.644
 115	1	1	0.228748	9.81475	-9.50967	-8.93754
 116	1	1	-0.221817	11.0976	-10.0301	-9.14338
 117	1	1	-0.090782	9.65057	-8.25752	-8.32302
 118	1	2	0.148235	8.64892	-7.87465	-8.14846
 119	1	1	-0.079307	12.2244	-9.28502	-8.76049
 120	1	1	-0.073979	10.7749	-7.49937	-7.93982
 121	1	1	0.031918	12.0668	-8.01381	-8.17563
 122	1	3	-0.235323	13.177	-7.30064	-7.79257
 123	1	1	0.139602	14.3176	-7.16635	-8.55076
 124	1	1	-0.107898	14.2677	-7.09454	-9.95528
 125	1	1	-0.094745	15.5505	-7.0623	-7.89235
 126	1	1	-0.163657	15.455	-6.95804	-10.6978
 127	1	1	-0.253044	16.7368	-6.91938	-8.63295
 128	1	2	0.134377	13.3093	-7.12804	-10.4655
 129	1	1	-0.00458	16.7033	-6.88689	-10.0423
 130	1	2	0.169279	15.5764	-7.08775	-6.80603
 131	1	2	0.169448	15.4015	-6.88404	-11.7822
 132	1	1	-0.039038	6.39939	-10.2941	-9.83369
 133	1	1	-0.435237	5.28692	-9.79054	-10.5293
 134	1	1	0.120439	7.66596	-9.7308	-10.0339
 135	1	1	0.323935	5.41812	-8.72077	-11.446
 136	1	1	-0.012898	7.82195	-8.68335	-10.9626
 137	1	2	0.208311	4.31691	-10.2519	-10.3694
 138	1	1	-0.466417	6.70512	-8.18622	-11.6614
 139	1	3	-0.302302	8.73155	-10.2509	-9.33591
 140	1	2	0.13972	8.80671	-8.26068	-11.1448
 141	1	2	0.217142	6.82569	-7.37554	-12.3772
 142	1	2	0.144775	6.28806	-11.1205	-9.13517
 143	1	2	0.161927	11.2103	-11.0088	-9.60092
 144	1	2	0.152343	13.2207	-9.69271	-8.91172
 145	1	4	1.02665	10.5117	-5.88652	-7.17136
 146	1	5	-0.487155	11.6708	-5.01175	-7.02114
 147	1	5	-0.529829	9.21494	-5.35975	-7.58844
 148	1	6	-0.538439	10.0254	-6.25866	-5.68496
 149	1	7	0.447385	9.19965	-5.76127	-5.81126
 150	1	2	0.176748	17.6905	-6.82901	-8.11529
 151	1	8	0.492969	17.9882	-6.72516	-10.816
 152	1	5	-0.49751	18.8458	-5.95482	-10.404
 153	1	1	0.228748	-0.916245	-8.52061	-5.10192
 154	1	1	-0.221817	-1.57798	-7.73835	-6.06533
 155	1	1	-0.090782	-0.10135	-9.58576	-5.50474
 156	1	2	0.148235	0.413376	-10.1719	-4.74735
 157	1	1	-0.079307	-1.43329	-8.03856	-7.42783
 158	1	1	-0.073979	0.0545146	-9.89448	-6.87009
 159	1	1	0.031918	-0.617981	-9.10614	-7.83299
 160	1	3	-0.235323	-0.493429	-9.32194	-9.1823
 161	1	1	0.139602	0.592852	-8.91211	-9.92146
 162	1	1	-0.107898	1.63695	-8.16055	-9.35059
 163	1	1	-0.094745	0.673347	-9.30747	-11.2656
 164	1	1	-0.163657	2.78694	-7.87796	-10.1014
 165	1	1	-0.253044	1.81521	-9.00092	-12.0283
 166	1	2	0.134377	1.58532	-7.8355	-8.3154
 167	1	1	-0.00458	2.89486	-8.3175	-11.436
 168	1	2	0.169279	-0.139747	-9.88506	-11.6977
 169	1	2	0.169448	3.61075	-7.34175	-9.63402
 170	1	1	-0.039038	-1.86358	-6.41966	-2.47262
 171	1	1	-0.435237	-2.94939	-5.69511	-1.95222
 172	1	1	0.120439	-2.09534	-7.58048	-3.22211
 173	1	1	0.323935	-4.27802	-6.11614	-2.18107
 174	1	1	-0.012898	-3.41072	-8.02149	-3.4489
 175	1	2	0.208311	-2.76117	-4.78699	-1.38412
 176	1	1	-0.466417	-4.4945	-7.2827	-2.94253
 177	1	3	-0.302302	-1.0275	-8.25313	-3.75926
 178	1	2	0.13972	-3.58363	-8.92551	-4.02803
 179	1	2	0.217142	-5.51442	-7.6125	-3.12947
 180	1	2	0.144775	-0.842779	-6.08	-2.31367
 181	1	2	0.161927	-2.19584	-6.89724	-5.7641
 182	1	2	0.152343	-1.94153	-7.43793	-8.17852
 183	1	4	1.02665	1.13446	-11.279	-7.29039
 184	1	5	-0.487155	1.37352	-12.1919	-6.17581
 185	1	5	-0.529829	0.977471	-11.7506	-8.66114
 186	1	6	-0.538439	2.54585	-10.5534	-7.53733
 187	1	7	0.447385	2.54883	-10.8827	-8.45324
 188	1	2	0.176748	1.8891	-9.33982	-13.0605
 189	1	8	0.492969	4.20207	-8.16255	-12.1608
 190	1	5	-0.49751	4.259	-7.65415	-13.2715
 191	1	1	0.228748	-8.8601	-1.6895	4.90021
 192	1	1	-0.221817	-8.86136	-2.88584	4.17731
 193	1	1	-0.090782	-7.64559	-1.15686	5.37368
 194	1	2	0.148235	-7.64256	-0.249996	5.97235
 195	1	1	-0.079307	-7.64581	-3.50823	3.86001
 196	1	1	-0.073979	-6.41864	-1.75413	5.03395
 197	1	1	0.031918	-6.42227	-2.92013	4.24238
 198	1	3	-0.235323	-5.25238	-3.44524	3.74712
 199	1	1	0.139602	-5.16626	-3.82178	2.4258
 200	1	1	-0.107898	-5.79521	-3.06142	1.42125
 201	1	1	-0.094745	-4.55061	-5.03717	2.09934
 202	1	1	-0.163657	-5.87256	-3.55326	0.109435
 203	1	1	-0.253044	-4.60307	-5.51823	0.77903
 204	1	2	0.134377	-6.26816	-2.11569	1.67055
 205	1	1	-0.00458	-5.28611	-4.78856	-0.220936
 206	1	2	0.169279	-4.07603	-5.62077	2.88381
 207	1	2	0.169448	-6.40472	-2.98632	-0.652471
 208	1	1	-0.039038	-9.45569	1.24757	4.59449
 209	1	1	-0.435237	-9.37866	2.58561	5.02511
 210	1	1	0.120439	-10.1261	0.292917	5.38227
 211	1	1	0.323935	-9.97619	2.9905	6.23625
 212	1	1	-0.012898	-10.7932	0.691064	6.54321
 213	1	2	0.208311	-8.81876	3.31435	4.44218
 214	1	1	-0.466417	-10.7273	2.0288	6.95862
 215	1	3	-0.302302	-10.0592	-1.04668	5.09386
 216	1	2	0.13972	-11.3197	-0.0508883	7.13908
 217	1	2	0.217142	-11.247	2.30708	7.86953
 218	1	2	0.144775	-8.95097	0.935882	3.68319
 219	1	2	0.161927	-9.80289	-3.3037	3.83268
 220	1	2	0.152343	-7.64925	-4.41651	3.26191
 221	1	4	1.02665	-4.90958	-0.937125	5.59299
 222	1	5	-0.487155	-3.70605	-1.37763	4.89545
 223	1	5	-0.529829	-5.12276	0.467953	5.93283
 224	1	6	-0.538439	-4.63575	-1.65497	7.00959
 225	1	7	0.447385	-3.73091	-1.90375	6.76274
 226	1	2	0.176748	-4.15625	-6.484	0.548997
 227	1	8	0.492969	-5.4388	-5.3337	-1.61503
 228	1	5	-0.49751	-6.48521	-5.18672	-2.23258
 229	1	1	0.228748	-15.5859	2.33267	12.0118
 230	1	1	-0.221817	-14.8243	2.32057	10.8375
 231	1	1	-0.090782	-15.0122	2.80467	13.2083
 232	1	2	0.148235	-15.5821	2.79931	14.132
 233	1	1	-0.079307	-13.5078	2.80467	10.8377
 234	1	1	-0.073979	-13.694	3.30784	13.2116
 235	1	1	0.031918	-12.9452	3.33474	12.018
 236	1	3	-0.235323	-11.6813	3.89902	12.0155
 237	1	1	0.139602	-11.0397	4.25514	10.8564
 238	1	1	-0.107898	-9.9019	3.53911	10.4621
 239	1	1	-0.094745	-11.6162	5.20531	9.99569
 240	1	1	-0.163657	-9.40418	3.69247	9.15899
 241	1	1	-0.253044	-11.1255	5.35182	8.68717
 242	1	2	0.134377	-9.46754	2.80269	11.1338
 243	1	1	-0.00458	-10.0574	4.54805	8.24484
 244	1	2	0.169279	-12.4999	5.75253	10.3142
 245	1	2	0.169448	-8.57965	3.06383	8.8259
 246	1	1	-0.039038	-18.2121	2.51495	13.8334
 247	1	1	-0.435237	-19.0774	2.13603	14.8773
 248	1	1	0.120439	-17.7079	1.54075	12.9548
 249	1	1	0.323935	-19.4761	0.788486	15.0381
 250	1	1	-0.012898	-18.1241	0.207541	13.0806
 251	1	2	0.208311	-19.461	2.89571	15.5586
 252	1	1	-0.466417	-19.0052	-0.162666	14.111
 253	1	3	-0.302302	-16.8794	1.87292	11.9115
 254	1	2	0.13972	-17.7621	-0.533442	12.3726
 255	1	2	0.217142	-19.3296	-1.1963	14.2064
 256	1	2	0.144775	-17.9333	3.55799	13.7026
 257	1	2	0.161927	-15.268	1.93749	9.92295
 258	1	2	0.152343	-12.9403	2.78171	9.91208
 259	1	4	1.02665	-12.9926	3.95513	14.7366
 260	1	5	-0.487155	-13.9788	4.05649	15.8103
 261	1	5	-0.529829	-11.6678	3.3665	14.9069
 262	1	6	-0.538439	-12.5641	5.44801	14.2888
 263	1	7	0.447385	-11.7426	5.14865	13.8629
 264	1	2	0.176748	-11.6326	6.01085	7.98359
 265	1	8	0.492969	-9.78915	4.39963	6.77296
 266	1	5	-0.49751	-9.68063	5.37222	6.0394
 267	1	1	0.228748	-22.9669	5.38146	21.9967
 268	1	1	-0.221817	-22.5915	4.34997	22.8683
 269	1	1	-0.090782	-22.1705	5.6812	20.8765
 270	1	2	0.148235	-22.4775	6.46328	20.1875
 271	1	1	-0.079307	-21.4311	3.60105	22.6141
 272	1	1	-0.073979	-20.998	4.94438	20.6189
 273	1	1	0.031918	-20.6478	3.88336	21.4839
 274	1	3	-0.235323	-19.6511	2.99771	21.1555
 275	1	1	0.139602	-19.7909	2.21411	20.0333
 276	1	1	-0.107898	-21.0497	1.69816	19.6741
 277	1	1	-0.094745	-18.6961	2.04642	19.1751
 278	1	1	-0.163657	-21.2241	1.06769	18.4333
 279	1	1	-0.253044	-18.8717	1.42109	17.9289
 280	1	2	0.134377	-21.9019	1.82567	20.3344
 281	1	1	-0.00458	-20.1484	0.959831	17.5318
 282	1	2	0.169279	-17.7307	2.46225	19.4535
 283	1	2	0.169448	-22.2084	0.703719	18.1457
 284	1	1	-0.039038	-23.5989	8.38278	22.1345
 285	1	1	-0.435237	-23.8954	9.68033	21.675
 286	1	1	0.120439	-24.4275	7.30509	21.7867
 287	1	1	0.323935	-25.042	9.93451	20.884
 288	1	1	-0.012898	-25.544	7.52518	20.969
 289	1	2	0.208311	-23.2028	10.4752	21.9117
 290	1	1	-0.466417	-25.839	8.82549	20.5189
 291	1	3	-0.302302	-24.1517	6.03625	22.2361
 292	1	2	0.13972	-26.172	6.68444	20.6835
 293	1	2	0.217142	-26.7013	8.98791	19.8759
 294	1	2	0.144775	-22.7241	8.20447	22.7553
 295	1	2	0.161927	-23.2233	4.11264	23.7192
 296	1	2	0.152343	-21.1635	2.7655	23.2566
 297	1	4	1.02665	-20.022	5.32801	19.1465
 298	1	5	-0.487155	-18.5857	5.26437	19.4001
 299	1	5	-0.529829	-20.5728	4.74432	17.9261
 300	1	6	-0.538439	-20.2135	6.91859	18.936
 301	1	7	0.447385	-19.2837	7.06037	18.6983
 302	1	2	0.176748	-18.0154	1.32717	17.2646
 303	1	8	0.492969	-20.3847	0.358797	16.1701
 304	1	5	-0.49751	-21.251	-0.491516	16.0065
 305	1	1	0.228748	-24.1875	16.2918	27.326
 306	1	1	-0.221817	-24.923	15.0993	27.3458
 307	1	1	-0.090782	-24.3931	17.2299	26.2977
 308	1	2	0.148235	-23.8108	18.1476	26.2782
 309	1	1	-0.079307	-25.8486	14.8254	26.3268
 310	1	1	-0.073979	-25.3359	16.9698	25.2813
 311	1	1	0.031918	-26.0308	15.7447	25.2799
 312	1	3	-0.235323	-26.8101	15.3853	24.2068
 313	1	1	0.139602	-26.4338	14.4139	23.2981
 314	1	1	-0.107898	-27.3117	14.0857	22.2558
 315	1	1	-0.094745	-25.1893	13.7589	23.3735
 316	1	1	-0.163657	-26.9651	13.093	21.32
 317	1	1	-0.253044	-24.8499	12.7566	22.4484
 318	1	2	0.134377	-28.2597	14.61	22.1735
 319	1	1	-0.00458	-25.7412	12.3933	21.4142
 320	1	2	0.169279	-24.4732	14.0302	24.1428
 321	1	2	0.169448	-27.6577	12.8584	20.5138
 322	1	1	-0.039038	-21.7213	17.6996	29.6623
 323	1	1	-0.435237	-21.4122	18.827	30.4458
 324	1	1	0.120439	-22.948	17.6161	28.9871
 325	1	1	0.323935	-22.3236	19.9018	30.566
 326	1	1	-0.012898	-23.8727	18.6698	29.1067
 327	1	2	0.208311	-20.4601	18.8555	30.9682
 328	1	1	-0.466417	-23.5512	19.8036	29.8752
 329	1	3	-0.302302	-23.2203	16.4611	28.2875
 330	1	2	0.13972	-24.8434	18.6071	28.6226
 331	1	2	0.217142	-24.2714	20.6146	29.9646
 332	1	2	0.144775	-21.0173	16.8743	29.5853
 333	1	2	0.161927	-24.7505	14.3792	28.1404
 334	1	2	0.152343	-26.3954	13.8854	26.3183
 335	1	4	1.02665	-25.6226	18.1932	23.9892
 336	1	5	-0.487155	-27.0074	18.2843	23.5361
 337	1	5	-0.529829	-24.8579	19.4148	24.2239
 338	1	6	-0.538439	-24.8499	17.5924	22.7039
 339	1	7	0.447385	-24.8151	18.4401	22.2388
 340	1	2	0.176748	-23.8718	12.3052	22.5326
 341	1	8	0.492969	-25.4246	11.3227	20.3861
 342	1	5	-0.49751	-25.9199	11.4329	19.2716
 343	1	1	0.228748	-18.5036	19.9059	39.6231
 344	1	1	-0.221817	-18.9094	18.8689	38.7713
 345	1	1	-0.090782	-17.9705	21.0891	39.0769
 346	1	2	0.148235	-17.6216	21.8813	39.733
 347	1	1	-0.079307	-18.7863	19.0082	37.3784
 348	1	1	-0.073979	-17.8601	21.2439	37.6799
 349	1	1	0.031918	-18.2804	20.2006	36.8323
 350	1	3	-0.235323	-18.0865	20.2953	35.4769
 351	1	1	0.139602	-19.0717	20.5057	34.5377
 352	1	1	-0.107898	-18.6838	21.0025	33.2835
 353	1	1	-0.094745	-20.4299	20.2345	34.7894
 354	1	1	-0.163657	-19.6401	21.2166	32.2752
 355	1	1	-0.253044	-21.3861	20.4385	33.7792
 356	1	2	0.134377	-17.6367	21.2349	33.1056
 357	1	1	-0.00458	-20.9968	20.9247	32.5156
 358	1	2	0.169279	-20.7472	19.8642	35.7582
 359	1	2	0.169448	-19.328	21.6155	31.3125
 360	1	1	-0.039038	-19.29	21.7777	41.9973
 361	1	1	-0.435237	-19.0781	22.7835	42.9595
 362	1	1	0.120439	-18.4136	20.6802	41.9273
 363	1	1	0.323935	-18.0038	22.6916	43.8573
 364	1	1	-0.012898	-17.3439	20.58	42.8322
 365	1	2	0.208311	-19.747	23.6367	43.0174
 366	1	1	-0.466417	-17.1393	21.5888	43.7933
 367	1	3	-0.302302	-18.5951	19.6988	40.9815
 368	1	2	0.13972	-16.6751	19.7245	42.7771
 369	1	2	0.217142	-16.3111	21.5203	44.4919
 370	1	2	0.144775	-20.1258	21.8436	41.3054
 371	1	2	0.161927	-19.2925	17.9473	39.2004
 372	1	2	0.152343	-19.0618	18.1882	36.7198
 373	1	4	1.02665	-17.1423	22.7601	37.0147
 374	1	5	-0.487155	-17.0332	22.9774	35.5759
 375	1	5	-0.529829	-17.139	23.8381	37.9958
 376	1	6	-0.538439	-15.7395	22.8566	37.6564
 377	1	7	0.447385	-16.3138	23.6075	38.0543
 378	1	2	0.176748	-22.4357	20.2256	33.9733
 379	1	8	0.492969	-22.0261	21.1102	31.4372
 380	1	5	-0.49751	-22.8005	22.0546	31.5054
 381	1	9	0	39.7723	-15.8179	-34.5188
 382	1	2	0	-17.844	23.4686	44.5995

Velocities

   1	-4.54206e-05	-0.000284705	-0.000379027
   2	0.000133078	-0.000229353	-0.000143858
   3	-0.000186408	-0.000293591	-0.0004597
   4	-0.000164928	-0.000237028	-0.000469596
   5	0.000102519	-0.000232724	-0.000105155
   6	-0.000114515	-0.000280718	-0.000264158
   7	1.27764e-05	-0.000265498	-0.000134284
   8	0.000144425	-0.000189521	0.000115356
   9	0.000200159	-7.86752e-05	0.000140183
  10	0.000452862	0.000247145	-0.00018851
  11	-4.69208e-05	-0.000328548	0.000449951
  12	0.000483766	0.000403859	-0.000207034
  13	-1.01069e-05	-0.000245409	0.000415294
  14	0.000566587	0.000480277	-0.000477889
  15	0.000136381	0.000218565	-1.11149e-06
  16	-0.00028619	-0.000589847	0.000778421
  17	0.000664273	0.000682233	-0.000454927
  18	-0.000139927	2.30148e-05	-0.000634014
  19	-9.67282e-05	0.000150243	-0.000521492
  20	0.000110974	-0.000260664	-0.000421074
  21	0.000249012	-5.90579e-06	-0.00014134
  22	0.000557096	-0.000531665	9.97362e-05
  23	-0.000387884	0.000414051	-0.000763884
  24	0.000600062	-0.000385506	0.000232277
  25	-1.69515e-05	-0.000257875	-0.000564179
  26	0.000911656	-0.000886837	0.000362576
  27	0.000930818	-0.000577322	0.00061596
  28	-0.000384392	0.000173713	-0.000944741
  29	0.000465046	-6.62065e-05	0.000237645
  30	0.000251928	-0.000163813	7.8217e-06
  31	0.000221085	-0.000286628	1.15311e-05
  32	0.000327821	-0.000533756	0.000215553
  33	0.000434031	-0.000356061	0.000234932
  34	0.000400996	0.000205561	-0.000101182
  35	0.00042866	0.000132248	7.15211e-05
  36	-0.000273397	-0.000442298	0.000735691
  37	-2.70728e-05	0.000220651	-0.000293695
  38	0.000344131	0.00040884	-0.000548844
  39	-0.000209419	0.000183142	-3.03896e-05
  40	-0.00030957	0.000275161	-5.75128e-05
  41	-0.000169373	0.000143434	-9.26716e-05
  42	-0.000104319	9.14804e-05	-7.98774e-05
  43	-0.000361483	0.000297009	-0.000121282
  44	-0.000200438	0.000124578	-0.000135844
  45	-0.000288484	0.000206083	-0.000173559
  46	-0.000343752	0.000198107	-0.000262241
  47	-0.000181301	0.000239537	-0.000258513
  48	0.000456877	0.000444333	-6.05467e-05
  49	-0.000538796	9.54157e-05	-0.000419026
  50	0.000741872	0.000539368	-6.98328e-06
  51	-0.0002974	0.000178812	-0.000383479
  52	0.000731175	0.000549739	3.5081e-05
  53	0.000354095	0.000377826	-0.00016675
  54	-0.00104615	-0.000127416	-0.00057
  55	0.00116734	0.000725232	0.000127972
  56	-5.69011e-06	0.000247745	0.000262386
  57	3.57909e-05	0.000230288	0.000322935
  58	3.74882e-05	0.000244277	0.00027783
  59	3.27607e-05	0.000264691	0.000379801
  60	0.000122338	0.000322082	0.000420849
  61	-3.39556e-05	0.000215005	0.000214882
  62	0.000147557	0.000300371	0.000444146
  63	-0.000130032	0.000182728	5.0231e-05
  64	0.000143102	0.000304956	0.000434618
  65	0.000118041	0.000346612	0.000442066
  66	-8.03003e-05	0.000182825	0.000119446
  67	-0.000351537	0.000324376	-3.17409e-05
  68	-0.000446091	0.000351026	-0.000136769
  69	-0.000124081	-8.81832e-05	-5.11589e-05
  70	4.01738e-06	-0.000430353	0.000112118
  71	-0.000179597	-1.55734e-05	-0.000346129
  72	-0.000164072	0.00016866	0.000251499
  73	-0.000159591	0.0002784	0.00013449
  74	-0.000698946	4.3175e-05	-0.000522046
  75	0.000269489	0.000263323	-8.21258e-05
  76	0.000280805	0.000300863	0.000148474
  77	9.92007e-05	0.000129768	-4.30951e-05
  78	-0.000225352	-0.000233211	5.11858e-05
  79	0.000162278	0.000212583	-5.40729e-05
  80	0.000430961	0.000539281	-0.000153256
  81	-0.000456231	-0.000485275	0.000158647
  82	-0.000104226	-8.05592e-05	8.025e-05
  83	-0.000398539	-0.000403182	0.000121488
  84	-0.000503595	-0.000610091	0.000154799
  85	-0.00060897	-0.000488199	2.49957e-05
  86	-0.000515929	-0.000340749	-0.000129803
  87	-0.000679848	-0.000414914	0.000164101
  88	-0.000440239	-0.000172946	-0.000115221
  89	-0.000594273	-0.000251822	0.000193226
  90	-0.00042717	-0.000444849	-0.000288296
  91	-0.000443808	-8.96197e-05	8.49824e-05
  92	-0.000712995	-0.000512753	0.000242871
  93	-0.000298639	-0.000100309	-0.000174803
  94	0.00015437	0.000285361	7.81859e-05
  95	0.00013233	0.0001357	0.000193018
  96	0.000284631	0.000221167	-8.51041e-06
  97	0.000237645	-8.50345e-05	0.000249509
  98	0.000446843	-4.9576e-05	0.000116177
  99	-1.52359e-05	0.000227806	0.00020224
 100	0.000442402	-0.000202542	0.000263975
 101	0.000348326	0.000384025	-0.000155636
 102	0.000582634	-0.000126053	0.000103742
 103	0.000570105	-0.000399197	0.000344561
 104	5.57741e-05	0.000490105	1.61941e-05
 105	-0.000277435	-0.000307674	5.56795e-05
 106	-0.000661768	-0.000743752	0.000256072
 107	-5.56949e-05	4.3254e-05	0.000280652
 108	0.000176126	2.9507e-05	0.000413889
 109	-1.38798e-06	7.84471e-05	0.000311798
 110	-0.000131246	4.51365e-05	0.000425908
 111	0.000323796	-0.000594858	0.000366697
 112	-0.000571072	-0.000211239	0.000402023
 113	-0.000128179	0.000105434	0.000194122
 114	-7.18026e-05	0.000224576	0.000161577
 115	0.000523918	0.000113407	-0.000536444
 116	0.000561696	4.06114e-05	-3.41445e-05
 117	0.000305922	0.000171189	-0.000681747
 118	0.000257952	0.000190766	-0.000992374
 119	0.000427787	6.1399e-05	0.000236164
 120	0.000192897	0.000171236	-0.000357976
 121	0.000227271	0.000127401	2.53007e-05
 122	9.48748e-05	0.00022482	8.14536e-05
 123	5.91658e-05	0.000209634	6.61003e-05
 124	0.000112713	-0.000416364	2.74374e-05
 125	-2.70371e-05	0.000657824	0.000112272
 126	0.000140992	-0.000548552	4.54534e-05
 127	-1.46993e-05	0.000525565	0.000138854
 128	0.000160201	-0.000856709	-3.53561e-05
 129	6.7383e-05	-6.83688e-05	0.000124515
 130	-0.000124685	0.0011147	0.000128956
 131	0.000191336	-0.00105191	4.39593e-06
 132	0.000645355	0.000209984	-3.20923e-05
 133	0.000489081	0.000229204	0.000251106
 134	0.000631485	1.39355e-05	-0.000569388
 135	0.000347182	3.48716e-05	6.79455e-06
 136	0.00049614	-0.000154637	-0.000771861
 137	0.000502679	0.000365303	0.00068157
 138	0.000341698	-0.000138601	-0.000497927
 139	0.000734428	-1.73803e-06	-0.000805682
 140	0.000502906	-0.00031734	-0.00114884
 141	0.000216978	-0.000312003	-0.00071643
 142	0.000787152	0.000372414	0.000185812
 143	0.000684607	-2.78799e-05	0.000143128
 144	0.000475508	3.62567e-05	0.000611396
 145	0.000100582	8.40946e-05	-0.000192049
 146	-7.16429e-06	0.00026085	-0.000410036
 147	-0.000122664	-8.32035e-05	0.000289416
 148	0.0007133	-0.000237429	-7.12717e-05
 149	0.000507574	-0.000480126	0.000283526
 150	-7.60403e-05	0.000914071	0.000176225
 151	0.000125633	-9.68444e-05	0.000230815
 152	-1.83961e-05	8.77634e-05	0.000167476
 153	-0.000303481	-0.000351613	-0.00028525
 154	-4.70816e-05	-2.99967e-05	-0.000205839
 155	-0.000630531	-0.00055152	-0.000416285
 156	-0.000801279	-0.000775695	-0.00047616
 157	-0.00013023	5.8525e-05	-0.000254251
 158	-0.000573064	-0.000351515	-0.000457245
 159	-0.000377469	-9.69721e-05	-0.000388546
 160	-0.000279356	5.44727e-05	-0.000417623
 161	-5.4779e-05	-0.000175195	-0.000232775
 162	-8.77158e-05	-0.00024702	-7.35131e-05
 163	0.000179533	-0.00025415	-0.000195178
 164	7.60539e-05	-0.000352415	0.000124494
 165	0.000312481	-0.000302721	-1.3331e-05
 166	-0.000244231	-0.000233914	-8.86062e-05
 167	0.000237999	-0.000310509	0.000125314
 168	0.000216532	-0.000194574	-0.000339697
 169	2.07624e-05	-0.000388629	0.000268916
 170	0.0003584	-0.000996545	0.000952295
 171	0.000502686	-0.000816095	0.000986614
 172	0.000119034	-0.000414837	0.00010412
 173	0.000377075	-9.60548e-05	0.000256597
 174	1.45618e-06	0.000145712	-0.000353969
 175	0.000708364	-0.00120306	0.00153314
 176	0.000161602	0.000291812	-0.000261051
 177	-4.03194e-05	-0.000402317	-0.000223391
 178	-0.000201095	0.000554166	-0.000921699
 179	7.60475e-05	0.000810667	-0.000753148
 180	0.000456198	-0.00151146	0.0014895
 181	0.000289752	0.000189636	-0.000112333
 182	0.000118445	0.000343812	-0.000193913
 183	-0.000521697	-0.000283303	-0.000609498
 184	0.000293609	8.36951e-05	-0.000477302
 185	-0.00119788	-0.000740706	-0.000366105
 186	-0.000756534	-0.00017868	-0.00163226
 187	-0.00112215	-0.000657283	-0.00144887
 188	0.000447396	-0.000253762	-2.06811e-05
 189	0.000227821	-8.43642e-05	0.000136354
 190	4.5273e-05	-0.000634683	-0.000115776
 191	-8.41228e-05	8.32791e-05	-0.000464514
 192	-0.000103432	-4.92389e-05	-0.000276778
 193	-6.89147e-05	-7.74696e-06	-0.000362569
 194	-3.81653e-05	7.32176e-05	-0.000489267
 195	-0.000140145	-0.000295678	5.82845e-05
 196	-8.8348e-05	-0.000221802	-0.000126612
 197	-0.000132422	-0.000368903	0.000109215
 198	-0.000157706	-0.000476636	0.000181847
 199	-8.64516e-05	-0.000212836	0.000117284
 200	-0.000367448	-0.000269199	0.000220765
 201	0.000266072	2.39808e-05	-6.00904e-05
 202	-0.000258707	-0.000123043	0.000167105
 203	0.000347327	0.000172604	-8.90539e-05
 204	-0.000682208	-0.000463714	0.000355943
 205	0.000148327	0.000116976	-7.09692e-06
 206	0.000504644	6.63844e-05	-0.000168015
 207	-0.000494836	-0.000194547	0.000264147
 208	-0.000125749	0.00034015	-0.000190917
 209	-0.000267435	0.000272831	2.60037e-05
 210	-0.000187365	0.00017402	-0.000424967
 211	-0.000325608	0.00011444	4.9589e-05
 212	-0.000421908	6.00485e-05	-0.000485992
 213	-0.000238532	0.000383564	0.00017403
 214	-0.000400639	-2.8156e-05	-0.000167285
 215	-9.1204e-05	0.000215301	-0.000671807
 216	-0.000600916	-4.27251e-05	-0.000744055
 217	-0.000436828	-0.000131116	-0.00015923
 218	-6.29842e-06	0.000494574	-0.000172641
 219	-8.25037e-05	7.61409e-06	-0.000394532
 220	-0.000133328	-0.000380654	0.000181995
 221	3.18458e-05	-0.000325227	-0.000280961
 222	-0.000251739	5.75599e-05	-0.00101456
 223	4.73641e-05	-0.000484112	0.000371751
 224	0.000728511	-0.00105397	-0.000783201
 225	0.000325933	-0.00162191	-0.0016722
 226	0.000626496	0.000340711	-0.000215901
 227	0.000461393	0.000259052	-7.43515e-05
 228	0.000640908	0.000465944	-0.000362085
 229	-0.000155558	0.000104132	-0.000342245
 230	-5.351e-05	0.000521334	-0.000283928
 231	-0.000343491	8.57089e-06	-0.000238544
 232	-0.000340005	-0.000478315	-0.000247659
 233	-0.000153789	0.000861854	-5.23125e-05
 234	-0.000537126	0.000461063	-1.70306e-05
 235	-0.000372505	0.000832004	9.16076e-05
 236	-0.000408277	0.000977694	0.000341496
 237	-0.000208709	0.000948137	0.000432188
 238	-0.000227879	0.00084671	0.000500317
 239	-9.21639e-05	0.000889275	0.000275682
 240	-0.000393065	0.000387907	0.000384843
 241	-0.000164604	0.000563382	0.000220667
 242	-0.000183031	0.00103395	0.00068717
 243	-0.000422891	0.00022219	0.000207036
 244	-4.68478e-06	0.00104742	0.000242581
 245	-0.000414678	0.000311188	0.000487107
 246	0.000348951	-0.000577155	2.93939e-05
 247	0.000648514	-0.000757947	0.000213304
 248	8.92799e-05	-0.000411219	-0.000307426
 249	0.00071613	-0.000808969	9.31701e-05
 250	0.000120438	-0.000428289	-0.000436022
 251	0.000831275	-0.000859742	0.00043176
 252	0.000439352	-0.000620904	-0.000222403
 253	-3.15443e-05	-0.000261602	-0.000371205
 254	-0.000101497	-0.000288695	-0.000669344
 255	0.000424599	-0.000639449	-0.000363241
 256	0.000361096	-0.000557819	0.000208606
 257	0.000139668	0.000542712	-0.000392159
 258	-4.6528e-05	0.00111895	1.04971e-05
 259	-0.00114521	0.000226344	0.00035571
 260	-0.00132719	-3.20629e-05	0.000211308
 261	-0.00106034	0.00057571	0.000839589
 262	-0.000582619	0.000290259	0.00135886
 263	0.00142507	0.000391036	0.00509352
 264	-7.98365e-05	0.000581319	0.000164321
 265	-0.000408254	6.77658e-05	0.000220961
 266	4.58645e-05	7.81585e-05	0.00025599
 267	-0.000243334	0.000457306	0.000310392
 268	-0.000187012	0.000557044	0.000388033
 269	-0.000426289	0.00020548	0.000108627
 270	-0.000467262	0.000125922	4.24557e-05
 271	-0.000348896	0.000350057	0.000252548
 272	-0.000522549	8.43046e-05	3.38212e-05
 273	-0.000551235	8.91623e-05	4.49399e-05
 274	-0.000581724	4.36908e-05	6.28633e-05
 275	-0.000337428	0.00016836	-6.47712e-05
 276	-0.000145083	-0.00021264	-0.000185172