pySIMM System Object

1560 atoms
1682 bonds
2706 angles
3973 dihedrals
451 impropers

9 atom types
10 bond types
15 angle types
5 dihedral types
2 improper types

-182.902576 182.902576 xlo xhi
-182.902576 182.902576 ylo yhi
-182.902576 182.902576 zlo zhi

Masses

   1	12.01	# ca
   2	1.008	# ha
   3	16.0	# os
   4	32.06	# sy
   5	16.0	# o
   6	16.0	# oh
   7	1.008	# ho
   8	12.01	# c
   9	1.008	# h4

Pair Coeffs

   1	0.086	3.3996695084235347	# ca
   2	0.015	2.59964245953351	# ha
   3	0.17	3.0000123434657784	# os
   4	0.25	3.563594872561357	# sy
   5	0.21	2.959921901149463	# o
   6	0.2104	3.0664733878390478	# oh
   7	1e-05	0.0	# ho
   8	0.086	3.3996695084235347	# c
   9	0.015	2.5105525877194763	# h4

Bond Coeffs

   1	345.8	1.086	# ca,ha
   2	243.4	1.7909	# ca,sy
   3	289.8	1.6497	# oh,sy
   4	637.7	1.2183	# c,o
   5	376.6	1.3696	# ca,os
   6	371.4	0.973	# ho,oh
   7	461.1	1.3984	# ca,ca
   8	345.9	1.4906	# c,ca
   9	310.7	1.1121	# c,h4
  10	493.0	1.466	# o,sy

Angle Coeffs

   1	48.18	119.88	# ca,ca,ha
   2	72.54	121.41	# o,sy,o
   3	72.32	106.68	# o,sy,oh
   4	61.48	119.42	# ca,ca,sy
   5	64.28	120.33	# c,ca,ca
   6	69.58	119.2	# ca,ca,os
   7	68.72	122.6	# ca,c,o
   8	54.22	120.7	# h4,c,o
   9	46.43	115.14	# ca,c,h4
  10	44.17	106.42	# ho,oh,sy
  11	65.46	101.3	# ca,sy,oh
  12	65.77	108.35	# ca,sy,o
  13	63.48	119.89	# ca,os,ca
  14	66.62	120.02	# ca,ca,ca
  15	63.0	118.11	# ca,c,ca

Dihedral Coeffs

   1	1	1.3	2	180	# X,ca,sy,X
   2	1	9.5	1	180	# X,oh,sy,X
   3	1	3.625	2	180	# X,ca,ca,X
   4	1	1.0	2	180	# X,c,ca,X
   5	1	0.9	2	180	# X,ca,os,X

Improper Coeffs

   1	10.5	-1	2	# c,X,X,o
   2	1.1	-1	2	# ca,X,X,ha

Atoms

   1	1	1	0.228748	37.2661	19.1895	13.854
   2	1	1	-0.221817	37.7729	18.2785	14.7911
   3	1	1	-0.090782	37.8668	19.2846	12.5826
   4	1	2	0.148235	37.4853	19.9872	11.8484
   5	1	1	-0.079307	38.8563	17.4478	14.4548
   6	1	1	-0.073979	38.961	18.4666	12.2407
   7	1	1	0.031918	39.4398	17.5293	13.1779
   8	1	3	-0.235323	40.4247	16.6323	12.8384
   9	1	1	0.139602	40.1598	15.3179	12.5054
  10	1	1	-0.107898	38.8466	14.8074	12.4831
  11	1	1	-0.094745	41.227	14.4865	12.1282
  12	1	1	-0.163657	38.6084	13.4841	12.0824
  13	1	1	-0.253044	40.9833	13.1722	11.6871
  14	1	2	0.134377	38.0017	15.4306	12.7579
  15	1	1	-0.00458	39.6685	12.6638	11.6557
  16	1	2	0.169279	42.2408	14.8807	12.1394
  17	1	2	0.169448	37.5884	13.109	12.0693
  18	1	1	-0.039038	35.9504	21.9719	12.9221
  19	1	1	-0.435237	35.3409	22.6622	11.8594
  20	1	1	0.120439	35.4763	20.7052	13.295
  21	1	1	0.323935	34.2415	22.1065	11.1648
  22	1	1	-0.012898	34.3512	20.162	12.6551
  23	1	2	0.208311	35.7365	23.6303	11.5582
  24	1	1	-0.466417	33.734	20.8651	11.603
  25	1	3	-0.302302	36.1749	19.955	14.2091
  26	1	2	0.13972	33.9866	19.182	12.9538
  27	1	2	0.217142	32.8758	20.4357	11.0898
  28	1	2	0.144775	36.8174	22.3906	13.4285
  29	1	2	0.161927	37.3084	18.2069	15.7704
  30	1	2	0.152343	39.2316	16.7204	15.1707
  31	1	4	1.02665	39.6869	18.6369	10.5973
  32	1	5	-0.487155	38.9366	19.5602	9.74605
  33	1	5	-0.529829	41.1434	18.7254	10.712
  34	1	6	-0.538439	39.5306	17.1577	9.95459
  35	1	7	0.447385	40.4098	16.8127	10.2276
  36	1	2	0.176748	41.8123	12.5476	11.3571
  37	1	8	0.492969	39.3763	11.279	11.1509
  38	1	5	-0.49751	40.1657	10.6173	10.4975
  39	1	1	0.228748	41.4506	25.548	7.49575
  40	1	1	-0.221817	41.0764	24.6983	6.44099
  41	1	1	-0.090782	40.4766	26.3004	8.16514
  42	1	2	0.148235	40.787	26.9687	8.96441
  43	1	1	-0.079307	39.7233	24.5925	6.07458
  44	1	1	-0.073979	39.1167	26.2017	7.80936
  45	1	1	0.031918	38.7422	25.3312	6.75829
  46	1	3	-0.235323	37.4321	25.173	6.36837
  47	1	1	0.139602	36.5086	24.5184	7.14861
  48	1	1	-0.107898	36.882	23.4193	7.9391
  49	1	1	-0.094745	35.195	25.0082	7.21087
  50	1	1	-0.163657	35.957	22.8441	8.82344
  51	1	1	-0.253044	34.2698	24.4379	8.10499
  52	1	2	0.134377	37.8923	23.0237	7.88358
  53	1	1	-0.00458	34.6497	23.3685	8.94387
  54	1	2	0.169279	34.9159	25.8595	6.59334
  55	1	2	0.169448	36.2731	21.9902	9.41905
  56	1	1	-0.039038	45.0161	25.0571	7.37637
  57	1	1	-0.435237	46.0234	24.0756	7.3332
  58	1	1	0.120439	43.7248	24.7228	7.80847
  59	1	1	0.323935	45.7653	22.744	7.72121
  60	1	1	-0.012898	43.4539	23.4091	8.23087
  61	1	2	0.208311	47.0249	24.3426	7.00254
  62	1	1	-0.466417	44.4644	22.4297	8.18279
  63	1	3	-0.302302	42.7666	25.7091	7.86046
  64	1	2	0.13972	42.4662	23.1568	8.60937
  65	1	2	0.217142	44.2451	21.4251	8.54005
  66	1	2	0.144775	45.2294	26.0807	7.07801
  67	1	2	0.161927	41.8325	24.1377	5.89921
  68	1	2	0.152343	39.4267	23.9382	5.25826
  69	1	4	1.02665	37.9361	27.2238	8.72018
  70	1	5	-0.487155	38.5696	28.1759	9.62879
  71	1	5	-0.529829	36.7864	27.5866	7.89834
  72	1	6	-0.538439	37.1717	26.1613	9.65929
  73	1	7	0.447385	36.3424	26.2848	9.16388
  74	1	2	0.176748	33.2568	24.8351	8.16371
  75	1	8	0.492969	33.6688	22.7903	9.93891
  76	1	5	-0.49751	32.4675	22.7921	9.70623
  77	1	1	0.228748	41.5451	15.1422	5.73694
  78	1	1	-0.221817	42.5975	15.038	4.81806
  79	1	1	-0.090782	41.7931	15.6055	7.03966
  80	1	2	0.148235	40.97	15.6855	7.74262
  81	1	1	-0.079307	43.9026	15.3865	5.20559
  82	1	1	-0.073979	43.0957	15.9656	7.43714
  83	1	1	0.031918	44.1516	15.8545	6.50667
  84	1	3	-0.235323	45.4308	16.2411	6.81956
  85	1	1	0.139602	45.7882	17.5625	6.96713
  86	1	1	-0.107898	45.0503	18.5937	6.35826
  87	1	1	-0.094745	46.9027	17.8789	7.75678
  88	1	1	-0.163657	45.4045	19.9348	6.57271
  89	1	1	-0.253044	47.264	19.2225	7.96421
  90	1	2	0.134377	44.194	18.3591	5.7338
  91	1	1	-0.00458	46.4999	20.2652	7.39967
  92	1	2	0.169279	47.4638	17.0764	8.22814
  93	1	2	0.169448	44.8191	20.7152	6.09357
  94	1	1	-0.039038	38.4214	14.9087	6.86854
  95	1	1	-0.435237	37.5558	14.2648	7.77199
  96	1	1	0.120439	39.4058	14.1677	6.1964
  97	1	1	0.323935	37.6399	12.8739	7.99359
  98	1	1	-0.012898	39.5277	12.7898	6.43119
  99	1	2	0.208311	36.8009	14.8408	8.30202
 100	1	1	-0.466417	38.6474	12.1476	7.3205
 101	1	3	-0.302302	40.2779	14.7923	5.34031
 102	1	2	0.13972	40.3072	12.2265	5.92331
 103	1	2	0.217142	38.7623	11.0812	7.50706
 104	1	2	0.144775	38.3439	15.9798	6.69658
 105	1	2	0.161927	42.397	14.6816	3.81194
 106	1	2	0.152343	44.725	15.3097	4.49857
 107	1	4	1.02665	43.3478	16.5421	9.13014
 108	1	5	-0.487155	42.1444	16.2409	9.90457
 109	1	5	-0.529829	44.6704	16.2996	9.69872
 110	1	6	-0.538439	43.2117	18.154	9.00891
 111	1	7	0.447385	42.5686	18.2892	9.7425
 112	1	2	0.176748	48.1236	19.4606	8.58822
 113	1	8	0.492969	46.872	21.7045	7.66208
 114	1	5	-0.49751	48.0475	22.0222	7.78863
 115	1	1	0.228748	32.2821	6.74749	3.64312
 116	1	1	-0.221817	31.8905	7.81291	4.46428
 117	1	1	-0.090782	33.3112	5.8829	4.05373
 118	1	2	0.148235	33.6156	5.06581	3.40548
 119	1	1	-0.079307	32.5117	7.99833	5.71133
 120	1	1	-0.073979	33.939	6.05984	5.3014
 121	1	1	0.031918	33.5311	7.12294	6.13052
 122	1	3	-0.235323	34.1195	7.31804	7.35493
 123	1	1	0.139602	34.7706	8.47733	7.70639
 124	1	1	-0.107898	34.8742	8.80937	9.0643
 125	1	1	-0.094745	35.3258	9.33016	6.73602
 126	1	1	-0.163657	35.5001	10.0066	9.45279
 127	1	1	-0.253044	35.9543	10.5254	7.12275
 128	1	2	0.134377	34.4543	8.14073	9.81076
 129	1	1	-0.00458	36.0494	10.8775	8.4884
 130	1	2	0.169279	35.2622	9.06951	5.68323
 131	1	2	0.169448	35.5535	10.264	10.5083
 132	1	1	-0.039038	31.5333	4.78074	0.813196
 133	1	1	-0.435237	31.2195	3.45028	0.474066
 134	1	1	0.120439	31.2249	5.26803	2.09115
 135	1	1	0.323935	30.5846	2.5866	1.39475
 136	1	1	-0.012898	30.5733	4.43295	3.01445
 137	1	2	0.208311	31.4924	3.06526	-0.506267
 138	1	1	-0.466417	30.2602	3.10694	2.67049
 139	1	3	-0.302302	31.623	6.53293	2.45662
 140	1	2	0.13972	30.3373	4.80674	4.00843
 141	1	2	0.217142	29.7995	2.47336	3.42666
 142	1	2	0.144775	32.046	5.42658	0.104433
 143	1	2	0.161927	31.0921	8.4743	4.1403
 144	1	2	0.152343	32.2	8.81196	6.36215
 145	1	4	1.02665	35.2529	4.91845	5.77891
 146	1	5	-0.487155	35.895	5.11985	7.07438
 147	1	5	-0.529829	36.0317	4.57189	4.59401
 148	1	6	-0.538439	34.5065	3.49692	5.83798
 149	1	7	0.447385	35.1111	3.13832	5.16496
 150	1	2	0.176748	36.3448	11.1834	6.34912
 151	1	8	0.492969	36.6658	12.1847	8.92643
 152	1	5	-0.49751	36.3017	12.7142	9.96883
 153	1	1	0.228748	23.4576	-0.850818	6.33366
 154	1	1	-0.221817	23.6446	-1.86576	5.38579
 155	1	1	-0.090782	24.5635	-0.117513	6.80308
 156	1	2	0.148235	24.4194	0.656195	7.55221
 157	1	1	-0.079307	24.9307	-2.14528	4.89636
 158	1	1	-0.073979	25.8603	-0.392536	6.31877
 159	1	1	0.031918	26.0344	-1.40884	5.3541
 160	1	3	-0.235323	27.2767	-1.75633	4.88317
 161	1	1	0.139602	27.9513	-1.08537	3.88716
 162	1	1	-0.107898	27.3846	0.00521047	3.20001
 163	1	1	-0.094745	29.2582	-1.49506	3.5833
 164	1	1	-0.163657	28.1461	0.712134	2.2541
 165	1	1	-0.253044	30.0125	-0.80381	2.61885
 166	1	2	0.134377	26.3749	0.332375	3.42613
 167	1	1	-0.00458	29.4714	0.323564	1.97043
 168	1	2	0.169279	29.6889	-2.33578	4.1201
 169	1	2	0.169448	27.7137	1.57774	1.75772
 170	1	1	-0.039038	21.4009	1.63135	6.60342
 171	1	1	-0.435237	20.9463	2.81439	7.21527
 172	1	1	0.120439	21.7687	0.532765	7.39352
 173	1	1	0.323935	20.8404	2.92307	8.61989
 174	1	1	-0.012898	21.6899	0.62207	8.79116
 175	1	2	0.208311	20.6626	3.6654	6.59946
 176	1	1	-0.466417	21.2417	1.81091	9.39861
 177	1	3	-0.302302	22.1818	-0.634709	6.80039
 178	1	2	0.13972	21.9839	-0.231782	9.3972
 179	1	2	0.217142	21.2225	1.87129	10.4839
 180	1	2	0.144775	21.4621	1.5574	5.52051
 181	1	2	0.161927	22.789	-2.43935	5.0411
 182	1	2	0.152343	25.0818	-2.94079	4.17072
 183	1	4	1.02665	27.2591	0.542561	6.97601
 184	1	5	-0.487155	28.1136	1.16434	5.96711
 185	1	5	-0.529829	26.8329	1.29649	8.15117
 186	1	6	-0.538439	28.1741	-0.563238	7.70949
 187	1	7	0.447385	28.1192	-0.114892	8.56792
 188	1	2	0.176748	31.0332	-1.11351	2.40172
 189	1	8	0.492969	30.3195	1.13486	1.02933
 190	1	5	-0.49751	30.9171	0.585811	0.113043
 191	1	1	0.228748	13.7992	4.3317	15.1029
 192	1	1	-0.221817	14.341	5.00462	13.9999
 193	1	1	-0.090782	14.6436	3.63528	15.9834
 194	1	2	0.148235	14.2191	3.13773	16.8511
 195	1	1	-0.079307	15.7246	4.96999	13.7617
 196	1	1	-0.073979	16.0316	3.57731	15.7407
 197	1	1	0.031918	16.5717	4.25365	14.6285
 198	1	3	-0.235323	17.931	4.26459	14.4243
 199	1	1	0.139602	18.5031	4.24016	13.1767
 200	1	1	-0.107898	19.2443	5.34298	12.7305
 201	1	1	-0.094745	18.3438	3.11946	12.3478
 202	1	1	-0.163657	19.8281	5.32494	11.4517
 203	1	1	-0.253044	18.9324	3.09821	11.0698
 204	1	2	0.134377	19.3579	6.20996	13.3754
 205	1	1	-0.00458	19.6995	4.19616	10.6145
 206	1	2	0.169279	17.7667	2.27066	12.7061
 207	1	2	0.169448	20.3934	6.18914	11.1072
 208	1	1	-0.039038	11.919	2.04992	15.5689
 209	1	1	-0.435237	10.9749	1.06498	15.9175
 210	1	1	0.120439	11.5903	3.4149	15.6892
 211	1	1	0.323935	9.67933	1.41432	16.3522
 212	1	1	-0.012898	10.3128	3.7747	16.1444
 213	1	2	0.208311	11.2317	0.011022	15.8297
 214	1	1	-0.466417	9.36601	2.7868	16.471
 215	1	3	-0.302302	12.4465	4.43265	15.3228
 216	1	2	0.13972	10.0594	4.82876	16.2296
 217	1	2	0.217142	8.38171	3.08526	16.8239
 218	1	2	0.144775	12.8924	1.74701	15.1931
 219	1	2	0.161927	13.6837	5.56321	13.3398
 220	1	2	0.152343	16.1404	5.51156	12.9155
 221	1	4	1.02665	17.0792	2.61265	16.846
 222	1	5	-0.487155	18.4648	2.31932	16.4973
 223	1	5	-0.529829	16.5325	2.51353	18.1935
 224	1	6	-0.538439	16.3204	1.27232	16.9979
 225	1	7	0.447385	16.2892	1.74651	17.9071
 226	1	2	0.176748	18.7794	2.22886	10.4335
 227	1	8	0.492969	20.341	4.21762	9.24442
 228	1	5	-0.49751	20.4535	5.28244	8.65005
 229	1	1	0.228748	2.96634	2.06076	10.4751
 230	1	1	-0.221817	2.62364	2.92826	11.5209
 231	1	1	-0.090782	3.36961	0.745683	10.7515
 232	1	2	0.148235	3.61996	0.0829044	9.92775
 233	1	1	-0.079307	2.72677	2.49035	12.8529
 234	1	1	-0.073979	3.4644	0.293115	12.0818
 235	1	1	0.031918	3.16692	1.18543	13.134
 236	1	3	-0.235323	3.38064	0.839132	14.4456
 237	1	1	0.139602	4.64885	0.764982	14.9839
 238	1	1	-0.107898	5.72227	1.48745	14.4322
 239	1	1	-0.094745	4.87733	-0.0808868	16.0789
 240	1	1	-0.163657	7.01221	1.36142	14.9718
 241	1	1	-0.253044	6.1703	-0.207095	16.6211
 242	1	2	0.134377	5.56511	2.13096	13.5723
 243	1	1	-0.00458	7.25302	0.520233	16.0815
 244	1	2	0.169279	4.05228	-0.665837	16.4772
 245	1	2	0.169448	7.8269	1.89961	14.4942
 246	1	1	-0.039038	5.20803	3.279	8.79736
 247	1	1	-0.435237	6.41119	3.19037	8.07488
 248	1	1	0.120439	4.11509	2.47494	8.4412
 249	1	1	0.323935	6.55569	2.29813	6.98958
 250	1	1	-0.012898	4.23498	1.57517	7.37232
 251	1	2	0.208311	7.25767	3.80972	8.36293
 252	1	1	-0.466417	5.44908	1.47616	6.66499
 253	1	3	-0.302302	2.95975	2.51958	9.18313
 254	1	2	0.13972	3.3947	0.93254	7.11825
 255	1	2	0.217142	5.52991	0.720753	5.88646
 256	1	2	0.144775	5.12044	3.96202	9.63826
 257	1	2	0.161927	2.31052	3.94329	11.295
 258	1	2	0.152343	2.49989	3.16679	13.6734
 259	1	4	1.02665	3.99267	-1.40659	12.3774
 260	1	5	-0.487155	3.77491	-1.95515	13.7129
 261	1	5	-0.529829	3.73448	-2.20171	11.1811
 262	1	6	-0.538439	5.5851	-1.32733	12.1588
 263	1	7	0.447385	5.54495	-1.94758	11.4122
 264	1	2	0.176748	6.34071	-0.890937	17.4511
 265	1	8	0.492969	8.64668	0.342724	16.6447
 266	1	5	-0.49751	8.95767	-0.691829	17.2197
 267	1	1	0.228748	10.4954	-3.96762	0.959762
 268	1	1	-0.221817	10.9134	-2.78278	0.336953
 269	1	1	-0.090782	9.27365	-3.98478	1.66046
 270	1	2	0.148235	8.92037	-4.89932	2.12294
 271	1	1	-0.079307	10.1301	-1.61967	0.417829
 272	1	1	-0.073979	8.48301	-2.8223	1.75843
 273	1	1	0.031918	8.92398	-1.63313	1.13537
 274	1	3	-0.235323	8.2091	-0.46091	1.23121
 275	1	1	0.139602	8.1903	0.281106	2.39305
 276	1	1	-0.107898	9.24166	0.199588	3.3238
 277	1	1	-0.094745	7.06233	1.06437	2.68463
 278	1	1	-0.163657	9.13622	0.852145	4.56116
 279	1	1	-0.253044	6.95735	1.71726	3.92682
 280	1	2	0.134377	10.1254	-0.393446	3.10892
 281	1	1	-0.00458	7.97836	1.582	4.89556
 282	1	2	0.169279	6.25449	1.13527	1.96143
 283	1	2	0.169448	9.94367	0.76268	5.28542
 284	1	1	-0.039038	11.211	-7.40455	0.32174
 285	1	1	-0.435237	11.0005	-8.73711	0.72295
 286	1	1	0.120439	11.059	-6.35698	1.24201
 287	1	1	0.323935	10.5932	-9.05257	2.03621
 288	1	1	-0.012898	10.7535	-6.65844	2.58042
 289	1	2	0.208311	11.1278	-9.54439	0.00802852
 290	1	1	-0.466417	10.5037	-7.98896	2.96733
 291	1	3	-0.302302	11.3154	-5.06896	0.824121
 292	1	2	0.13972	10.7078	-5.85867	3.31487
 293	1	2	0.217142	10.2613	-8.20072	4.00502
 294	1	2	0.144775	11.496	-7.17569	-0.702087
 295	1	2	0.161927	11.8512	-2.77655	-0.211886
 296	1	2	0.152343	10.4615	-0.702241	-0.0630349
 297	1	4	1.02665	6.89711	-2.91242	2.62062
 298	1	5	-0.487155	6.40687	-4.28755	2.65149
 299	1	5	-0.529829	6.98199	-2.06741	3.80644
 300	1	6	-0.538439	5.96554	-2.05773	1.60131
 301	1	7	0.447385	6.63813	-1.40545	1.33507
 302	1	2	0.176748	6.07187	2.31262	4.14161
 303	1	8	0.492969	7.89154	2.21717	6.26418
 304	1	5	-0.49751	8.91946	2.60327	6.80858
 305	1	1	0.228748	6.67353	-7.46622	8.96073
 306	1	1	-0.221817	7.91227	-8.08673	8.75398
 307	1	1	-0.090782	5.48825	-8.12183	8.59567
 308	1	2	0.148235	4.53596	-7.61853	8.74305
 309	1	1	-0.079307	7.9662	-9.34628	8.13139
 310	1	1	-0.073979	5.53347	-9.37781	7.96284
 311	1	1	0.031918	6.78264	-9.98119	7.70537
 312	1	3	-0.235323	6.88176	-11.1258	6.94269
 313	1	1	0.139602	7.60931	-11.085	5.77408
 314	1	1	-0.107898	8.68008	-11.9707	5.57349
 315	1	1	-0.094745	7.34512	-10.0847	4.82401
 316	1	1	-0.163657	9.52793	-11.8087	4.46074
 317	1	1	-0.253044	8.19584	-9.91783	3.71859
 318	1	2	0.134377	8.88162	-12.7503	6.30343
 319	1	1	-0.00458	9.32549	-10.7484	3.55032
 320	1	2	0.169279	6.49277	-9.42487	4.96462
 321	1	2	0.169448	10.3784	-12.4771	4.33198
 322	1	1	-0.039038	5.19104	-4.24176	9.03484
 323	1	1	-0.435237	4.51264	-3.36385	8.16376
 324	1	1	0.120439	6.0574	-5.21692	8.51745
 325	1	1	0.323935	4.66897	-3.46291	6.76465
 326	1	1	-0.012898	6.27327	-5.28256	7.12948
 327	1	2	0.208311	3.81198	-2.637	8.5684
 328	1	1	-0.466417	5.58007	-4.42011	6.26678
 329	1	3	-0.302302	6.62793	-6.15137	9.35473
 330	1	2	0.13972	6.95163	-6.0261	6.71859
 331	1	2	0.217142	5.73873	-4.50308	5.19411
 332	1	2	0.144775	5.01224	-4.20551	10.1064
 333	1	2	0.161927	8.82518	-7.56467	9.02537
 334	1	2	0.152343	8.92852	-9.80956	7.92733
 335	1	4	1.02665	3.98807	-10.0898	7.38221
 336	1	5	-0.487155	2.81523	-9.35959	7.85962
 337	1	5	-0.529829	4.13939	-10.4012	5.9653
 338	1	6	-0.538439	3.95427	-11.565	8.04654
 339	1	7	0.447385	4.0261	-12.0798	7.20611
 340	1	2	0.176748	7.98731	-9.12688	3.0005
 341	1	8	0.492969	10.3159	-10.4956	2.43484
 342	1	5	-0.49751	10.9931	-11.4138	1.98824
 343	1	1	0.228748	4.45445	-9.19395	0.413258
 344	1	1	-0.221817	4.99106	-8.32063	1.36948
 345	1	1	-0.090782	3.39587	-8.77512	-0.401425
 346	1	2	0.148235	2.99057	-9.46168	-1.13861
 347	1	1	-0.079307	4.46102	-7.0302	1.5192
 348	1	1	-0.073979	2.82993	-7.49609	-0.228522
 349	1	1	0.031918	3.34704	-6.62423	0.75419
 350	1	3	-0.235323	2.7702	-5.38071	0.951112
 351	1	1	0.139602	2.85109	-4.6828	2.13872
 352	1	1	-0.107898	3.14536	-3.31121	2.1152
 353	1	1	-0.094745	2.70125	-5.3394	3.37254
 354	1	1	-0.163657	3.39342	-2.62013	3.31678
 355	1	1	-0.253044	2.97751	-4.65862	4.56909
 356	1	2	0.134377	3.25205	-2.80235	1.16253
 357	1	1	-0.00458	3.37609	-3.30364	4.54803
 358	1	2	0.169279	2.43296	-6.39296	3.39564
 359	1	2	0.169448	3.68897	-1.57384	3.28886
 360	1	1	-0.039038	3.80269	-11.3824	2.22918
 361	1	1	-0.435237	3.83825	-12.1516	3.40299
 362	1	1	0.120439	4.93801	-11.3004	1.40613
 363	1	1	0.323935	5.00327	-12.8436	3.79222
 364	1	1	-0.012898	6.09558	-12.0136	1.75104
 365	1	2	0.208311	2.97111	-12.1636	4.05979
 366	1	1	-0.466417	6.12979	-12.7735	2.93687
 367	1	3	-0.302302	4.93657	-10.4744	0.306769
 368	1	2	0.13972	6.97891	-11.9344	1.12269
 369	1	2	0.217142	7.06509	-13.2489	3.2195
 370	1	2	0.144775	2.90551	-10.8244	1.97405
 371	1	2	0.161927	5.8284	-8.6421	1.97984
 372	1	2	0.152343	4.91212	-6.35589	2.24305
 373	1	4	1.02665	1.41503	-7.03607	-1.23902
 374	1	5	-0.487155	1.36609	-7.83892	-2.46132
 375	1	5	-0.529829	0.298978	-6.88029	-0.311474
 376	1	6	-0.538439	1.74401	-5.4982	-1.62977
 377	1	7	0.447385	1.90275	-5.20752	-0.714442
 378	1	2	0.176748	2.91883	-5.20089	5.51138
 379	1	8	0.492969	3.8422	-2.62079	5.81122
 380	1	5	-0.49751	3.60141	-1.43839	6.02174
 381	1	1	0.228748	9.81342	-19.4025	9.82714
 382	1	1	-0.221817	8.49642	-19.4096	9.34376
 383	1	1	-0.090782	10.8167	-18.705	9.13684
 384	1	2	0.148235	11.8333	-18.7101	9.52211
 385	1	1	-0.079307	8.19549	-18.7702	8.12891
 386	1	1	-0.073979	10.5164	-18.0381	7.93311
 387	1	1	0.031918	9.20901	-18.1057	7.4147
 388	1	3	-0.235323	8.9318	-17.5888	6.17373
 389	1	1	0.139602	7.98946	-16.6177	5.94356
 390	1	1	-0.107898	7.6202	-15.6982	6.94017
 391	1	1	-0.094745	7.40068	-16.5485	4.67378
 392	1	1	-0.163657	6.65488	-14.7176	6.662
 393	1	1	-0.253044	6.44703	-15.5573	4.38803
 394	1	2	0.134377	8.08024	-15.7409	7.92341
 395	1	1	-0.00458	6.07528	-14.6246	5.38034
 396	1	2	0.169279	7.6801	-17.2784	3.92199
 397	1	2	0.169448	6.36218	-14.0144	7.44047
 398	1	1	-0.039038	11.8087	-21.8674	11.4342
 399	1	1	-0.435237	12.4806	-23.0646	11.1093
 400	1	1	0.120439	10.7284	-21.4316	10.6498
 401	1	1	0.323935	12.0912	-23.8393	9.99546
 402	1	1	-0.012898	10.2845	-22.2338	9.58288
 403	1	2	0.208311	13.3382	-23.3831	11.6984
 404	1	1	-0.466417	10.9557	-23.4244	9.26439
 405	1	3	-0.302302	10.1505	-20.2034	10.8898
 406	1	2	0.13972	9.43313	-21.9234	8.98406
 407	1	2	0.217142	10.6039	-24.022	8.42746
 408	1	2	0.144775	12.1447	-21.254	12.2668
 409	1	2	0.161927	7.73041	-19.9601	9.88265
 410	1	2	0.152343	7.18885	-18.8179	7.72021
 411	1	4	1.02665	11.818	-17.132	7.07587
 412	1	5	-0.487155	11.2814	-15.8766	6.55486
 413	1	5	-0.529829	13.0941	-17.1874	7.78602
 414	1	6	-0.538439	12.0077	-17.9759	5.70885
 415	1	7	0.447385	11.604	-17.3087	5.10586
 416	1	2	0.176748	5.9849	-15.5253	3.40333
 417	1	8	0.492969	5.02716	-13.5751	5.12446
 418	1	5	-0.49751	4.23506	-13.3018	6.02
 419	1	1	0.228748	10.4515	-23.5594	1.78801
 420	1	1	-0.221817	9.99916	-24.5656	2.65112
 421	1	1	-0.090782	11.8251	-23.3967	1.54925
 422	1	2	0.148235	12.1608	-22.6079	0.880651
 423	1	1	-0.079307	10.9295	-25.3786	3.32013
 424	1	1	-0.073979	12.7637	-24.2197	2.20119
 425	1	1	0.031918	12.3093	-25.193	3.11491
 426	1	3	-0.235323	13.1907	-25.8928	3.90541
 427	1	1	0.139602	13.2043	-25.6865	5.26707
 428	1	1	-0.107898	13.114	-24.3842	5.78647
 429	1	1	-0.094745	13.2698	-26.7802	6.14441
 430	1	1	-0.163657	13.0511	-24.1791	7.17192
 431	1	1	-0.253044	13.1914	-26.575	7.53675
 432	1	2	0.134377	13.0869	-23.5292	5.11676
 433	1	1	-0.00458	13.048	-25.2735	8.06496
 434	1	2	0.169279	13.3542	-27.7849	5.73857
 435	1	2	0.169448	12.9947	-23.1581	7.54424
 436	1	1	-0.039038	9.57242	-20.37	0.562421
 437	1	1	-0.435237	9.73908	-19.0057	0.871247
 438	1	1	0.120439	9.63637	-21.3332	1.57885
 439	1	1	0.323935	9.95942	-18.5766	2.20249
 440	1	1	-0.012898	9.83907	-20.9246	2.90882
 441	1	2	0.208311	9.73879	-18.2837	0.0592356
 442	1	1	-0.466417	9.99585	-19.561	3.21328
 443	1	3	-0.302302	9.55263	-22.6689	1.25839
 444	1	2	0.13972	9.89169	-21.6673	3.70081
 445	1	2	0.217142	10.1763	-19.2635	4.24383
 446	1	2	0.144775	9.43023	-20.6922	-0.466977
 447	1	2	0.161927	8.93436	-24.6805	2.8318
 448	1	2	0.152343	10.588	-26.1299	4.02779
 449	1	4	1.02665	14.5167	-23.9404	1.89357
 450	1	5	-0.487155	15.2432	-25.2048	1.84416
 451	1	5	-0.529829	14.7707	-22.8639	0.938846
 452	1	6	-0.538439	15.0791	-23.4398	3.31757
 453	1	7	0.447385	15.6274	-24.2363	3.42089
 454	1	2	0.176748	13.2211	-27.4278	8.21345
 455	1	8	0.492969	12.8925	-25.0511	9.55436
 456	1	5	-0.49751	13.406	-25.8138	10.3616
 457	1	1	0.228748	10.7848	-12.1974	-4.50775
 458	1	1	-0.221817	10.6164	-13.5465	-4.14595
 459	1	1	-0.090782	10.1763	-11.1906	-3.74521
 460	1	2	0.148235	10.3246	-10.1519	-4.02798
 461	1	1	-0.079307	9.82387	-13.8838	-3.03702
 462	1	1	-0.073979	9.38902	-11.5225	-2.62387
 463	1	1	0.031918	9.20937	-12.8738	-2.27528
 464	1	3	-0.235323	8.41519	-13.2165	-1.20713
 465	1	1	0.139602	8.82466	-14.1167	-0.25491
 466	1	1	-0.107898	10.0887	-14.0015	0.345322
 467	1	1	-0.094745	7.97335	-15.1712	0.101402
 468	1	1	-0.163657	10.5126	-14.9584	1.2825
 469	1	1	-0.253044	8.4074	-16.1474	1.01605
 470	1	2	0.134377	10.7372	-13.1682	0.0878447
 471	1	1	-0.00458	9.69253	-16.0598	1.59865
 472	1	2	0.169279	6.98849	-15.2349	-0.354111
 473	1	2	0.169448	11.4913	-14.8554	1.74895
 474	1	1	-0.039038	13.1548	-13.0166	-6.9418
 475	1	1	-0.435237	13.4289	-13.9135	-7.99252
 476	1	1	0.120439	11.8308	-12.6781	-6.63218
 477	1	1	0.323935	12.3843	-14.497	-8.75086
 478	1	1	-0.012898	10.7822	-13.2161	-7.39173
 479	1	2	0.208311	14.4695	-14.1203	-8.22888
 480	1	1	-0.466417	11.0584	-14.1263	-8.42764
 481	1	3	-0.302302	11.568	-11.8346	-5.57948
 482	1	2	0.13972	9.76028	-12.9231	-7.17063
 483	1	2	0.217142	10.2392	-14.527	-9.02126
 484	1	2	0.144775	13.9655	-12.5771	-6.36505
 485	1	2	0.161927	11.1055	-14.3314	-4.71453
 486	1	2	0.152343	9.68472	-14.9274	-2.76631
 487	1	4	1.02665	8.63473	-10.2102	-1.65433
 488	1	5	-0.487155	8.56696	-10.4794	-0.220994
 489	1	5	-0.529829	9.09192	-8.89404	-2.10997
 490	1	6	-0.538439	7.0862	-10.2557	-2.12113
 491	1	7	0.447385	6.80796	-9.41079	-1.68396
 492	1	2	0.176748	7.74376	-16.9721	1.26721
 493	1	8	0.492969	10.1959	-17.1154	2.55
 494	1	5	-0.49751	10.8153	-16.7919	3.55696
 495	1	1	0.228748	21.5175	-16.3363	-9.05664
 496	1	1	-0.221817	21.156	-17.4192	-9.86654
 497	1	1	-0.090782	20.7251	-15.1763	-9.04908
 498	1	2	0.148235	21.0438	-14.3194	-8.4607
 499	1	1	-0.079307	19.9789	-17.3639	-10.63
 500	1	1	-0.073979	19.538	-15.1075	-9.80861
 501	1	1	0.031918	19.1568	-16.2254	-10.5925
 502	1	3	-0.235323	18.0718	-16.2192	-11.4395
 503	1	1	0.139602	16.7532	-16.1447	-11.056
 504	1	1	-0.107898	16.3104	-16.5663	-9.78831
 505	1	1	-0.094745	15.8381	-15.6057	-11.9713
 506	1	1	-0.163657	14.9671	-16.3687	-9.41508
 507	1	1	-0.253044	14.4965	-15.42	-11.6024
 508	1	2	0.134377	17.0119	-17.0043	-9.08219
 509	1	1	-0.00458	14.0585	-15.7578	-10.3074
 510	1	2	0.169279	16.1791	-15.3147	-12.9616
 511	1	2	0.169448	14.6409	-16.667	-8.42153
 512	1	1	-0.039038	21.7554	-15.8705	-6.1362
 513	1	1	-0.435237	21.9717	-15.4397	-4.81374
 514	1	1	0.120439	22.8404	-16.0021	-7.0238
 515	1	1	0.323935	23.2691	-15.1666	-4.33251
 516	1	1	-0.012898	24.1372	-15.7314	-6.56137
 517	1	2	0.208311	21.1258	-15.3234	-4.13985
 518	1	1	-0.466417	24.3513	-15.3175	-5.23167
 519	1	3	-0.302302	22.6836	-16.4185	-8.33076
 520	1	2	0.13972	24.9739	-15.8379	-7.2474
 521	1	2	0.217142	25.3616	-15.0864	-4.90536
 522	1	2	0.144775	20.7476	-16.1103	-6.46531
 523	1	2	0.161927	21.7951	-18.2957	-9.8949
 524	1	2	0.152343	19.7054	-18.197	-11.2701
 525	1	4	1.02665	18.6263	-13.5455	-9.76991
 526	1	5	-0.487155	17.2589	-13.7618	-9.30622
 527	1	5	-0.529829	19.4107	-12.4376	-9.23207
 528	1	6	-0.538439	18.2919	-13.201	-11.3093
 529	1	7	0.447385	17.3348	-13.2612	-11.1635
 530	1	2	0.176748	13.7909	-14.9962	-12.3157
 531	1	8	0.492969	12.6363	-15.4534	-9.9097
 532	1	5	-0.49751	11.7214	-15.7723	-10.6579
 533	1	1	0.228748	30.8764	-18.1211	-2.76944
 534	1	1	-0.221817	30.6307	-16.7497	-2.92502
 535	1	1	-0.090782	30.3993	-18.805	-1.6419
 536	1	2	0.148235	30.5806	-19.8731	-1.55134
 537	1	1	-0.079307	29.8356	-16.0753	-1.98566
 538	1	1	-0.073979	29.6043	-18.1343	-0.691666
 539	1	1	0.031918	29.287	-16.7753	-0.896324
 540	1	3	-0.235323	28.2903	-16.1655	-0.172828
 541	1	1	0.139602	27.0958	-15.8536	-0.78888
 542	1	1	-0.107898	26.4245	-14.6693	-0.45216
 543	1	1	-0.094745	26.5577	-16.6973	-1.77916
 544	1	1	-0.163657	25.245	-14.3101	-1.13233
 545	1	1	-0.253044	25.3842	-16.3378	-2.4605
 546	1	2	0.134377	26.8296	-14.0251	0.32356
 547	1	1	-0.00458	24.7286	-15.1229	-2.1648
 548	1	2	0.169279	27.0488	-17.6361	-2.0175
 549	1	2	0.169448	24.7317	-13.387	-0.868436
 550	1	1	-0.039038	31.1776	-19.8457	-5.99106
 551	1	1	-0.435237	30.3889	-20.2347	-7.09255
 552	1	1	0.120439	30.5884	-19.2097	-4.88827
 553	1	1	0.323935	28.9949	-20.0089	-7.11845
 554	1	1	-0.012898	29.1984	-18.966	-4.90554
 555	1	2	0.208311	30.8603	-20.7147	-7.94798
 556	1	1	-0.466417	28.4167	-19.3536	-6.00774
 557	1	3	-0.302302	31.388	-18.8317	-3.82399
 558	1	2	0.13972	28.7151	-18.4657	-4.07171
 559	1	2	0.217142	27.3564	-19.1175	-6.00655
 560	1	2	0.144775	32.2497	-20.0283	-5.98878
 561	1	2	0.161927	30.9878	-16.2372	-3.81401
 562	1	2	0.152343	29.5751	-15.0307	-2.14001
 563	1	4	1.02665	28.9045	-19.0766	0.675024
 564	1	5	-0.487155	29.3154	-20.4782	0.692769
 565	1	5	-0.529829	28.8281	-18.2676	1.88539
 566	1	6	-0.538439	27.327	-19.0571	0.369109
 567	1	7	0.447385	27.1757	-18.507	1.16116
 568	1	2	0.176748	24.9797	-17.016	-3.20935
 569	1	8	0.492969	23.4712	-14.7099	-2.89606
 570	1	5	-0.49751	22.6291	-14.0303	-2.32428
 571	1	1	0.228748	19.7913	-21.6404	-11.0024
 572	1	1	-0.221817	21.0394	-22.2769	-11.0331
 573	1	1	-0.090782	19.4485	-20.836	-9.89891
 574	1	2	0.148235	18.4762	-20.3529	-9.85374
 575	1	1	-0.079307	21.9478	-22.1069	-9.97418
 576	1	1	-0.073979	20.3566	-20.6517	-8.83853
 577	1	1	0.031918	21.6191	-21.279	-8.88327
 578	1	3	-0.235323	22.5063	-21.1272	-7.83899
 579	1	1	0.139602	23.8677	-20.9476	-7.97659
 580	1	1	-0.107898	24.4248	-20.3279	-9.11031
 581	1	1	-0.094745	24.7121	-21.3821	-6.94316
 582	1	1	-0.163657	25.8179	-20.1706	-9.21646
 583	1	1	-0.253044	26.1066	-21.215	-7.04335
 584	1	2	0.134377	23.7825	-19.971	-9.90939
 585	1	1	-0.00458	26.6744	-20.5963	-8.18051
 586	1	2	0.169279	24.2773	-21.8608	-6.06955
 587	1	2	0.169448	26.2408	-19.706	-10.1057
 588	1	1	-0.039038	16.5587	-21.8739	-11.679
 589	1	1	-0.435237	15.3205	-21.2035	-11.6805
 590	1	1	0.120439	17.7079	-21.2234	-12.152
 591	1	1	0.323935	15.2135	-19.8686	-12.1381
 592	1	1	-0.012898	17.6111	-19.9234	-12.6695
 593	1	2	0.208311	14.4344	-21.7248	-11.3266
 594	1	1	-0.466417	16.3728	-19.2581	-12.663
 595	1	3	-0.302302	18.9318	-21.8393	-12.0607
 596	1	2	0.13972	18.4984	-19.4317	-13.0597
 597	1	2	0.217142	16.3001	-18.248	-13.0584
 598	1	2	0.144775	16.6377	-22.8908	-11.3014
 599	1	2	0.161927	21.2928	-22.9122	-11.8776
 600	1	2	0.152343	22.9052	-22.6226	-9.99571
 601	1	4	1.02665	19.8548	-19.6207	-7.44741
 602	1	5	-0.487155	20.9866	-18.8394	-6.9626
 603	1	5	-0.529829	18.5211	-19.0403	-7.60791
 604	1	6	-0.538439	19.7846	-20.672	-6.2291
 605	1	7	0.447385	20.6181	-20.3564	-5.84289
 606	1	2	0.176748	26.7455	-21.584	-6.24241
 607	1	8	0.492969	28.1689	-20.414	-8.32962
 608	1	5	-0.49751	28.6805	-20.503	-9.43803
 609	1	1	0.228748	7.68036	-16.7852	-6.24057
 610	1	1	-0.221817	9.00319	-16.4501	-6.57876
 611	1	1	-0.090782	7.23061	-18.1024	-6.39856
 612	1	2	0.148235	6.2097	-18.3519	-6.12036
 613	1	1	-0.079307	9.86706	-17.4305	-7.09494
 614	1	1	-0.073979	8.09442	-19.0944	-6.90069
 615	1	1	0.031918	9.41501	-18.7532	-7.25733
 616	1	3	-0.235323	10.2785	-19.7223	-7.71308
 617	1	1	0.139602	11.1477	-19.5459	-8.76253
 618	1	1	-0.107898	10.7197	-18.9806	-9.97366
 619	1	1	-0.094745	12.4775	-19.9629	-8.61964
 620	1	1	-0.163657	11.6222	-18.8497	-11.0437
 621	1	1	-0.253044	13.3865	-19.8095	-9.68204
 622	1	2	0.134377	9.69059	-18.6506	-10.0871
 623	1	1	-0.00458	12.9628	-19.2751	-10.923
 624	1	2	0.169279	12.799	-20.3953	-7.6752
 625	1	2	0.169448	11.2822	-18.3951	-11.9733
 626	1	1	-0.039038	7.01137	-14.0076	-7.26336
 627	1	1	-0.435237	7.09428	-12.6184	-7.48006
 628	1	1	0.120439	6.89159	-14.5079	-5.95457
 629	1	1	0.323935	7.03359	-11.7061	-6.40413
 630	1	1	-0.012898	6.83404	-13.6186	-4.87463
 631	1	2	0.208311	7.19399	-12.2316	-8.49253
 632	1	1	-0.466417	6.91148	-12.2347	-5.09993
 633	1	3	-0.302302	6.81859	-15.8575	-5.70702
 634	1	2	0.13972	6.74166	-14.0067	-3.86271
 635	1	2	0.217142	6.88781	-11.5689	-4.24428
 636	1	2	0.144775	7.03884	-14.6971	-8.10417
 637	1	2	0.161927	9.36294	-15.4379	-6.4295
 638	1	2	0.152343	10.8914	-17.1716	-7.3505
 639	1	4	1.02665	7.47741	-20.776	-7.08348
 640	1	5	-0.487155	6.04378	-20.904	-6.83158
 641	1	5	-0.529829	8.45176	-21.7132	-6.53557
 642	1	6	-0.538439	7.74733	-21.1122	-8.63356
 643	1	7	0.447385	8.51413	-21.6646	-8.39977
 644	1	2	0.176748	14.4217	-20.101	-9.52278
 645	1	8	0.492969	13.903	-19.1012	-12.1008
 646	1	5	-0.49751	13.6312	-18.3048	-12.9903
 647	1	1	0.228748	5.58676	-2.81676	-1.75595
 648	1	1	-0.221817	4.5624	-3.09973	-2.67992
 649	1	1	-0.090782	6.33466	-3.86918	-1.21041
 650	1	2	0.148235	7.13721	-3.64625	-0.517417
 651	1	1	-0.079307	4.28854	-4.42907	-3.03716
 652	1	1	-0.073979	6.06323	-5.20558	-1.55802
 653	1	1	0.031918	5.0333	-5.47995	-2.48297
 654	1	3	-0.235323	4.66705	-6.75819	-2.81829
 655	1	1	0.139602	5.26136	-7.5294	-3.79175
 656	1	1	-0.107898	4.65501	-8.75098	-4.11205
 657	1	1	-0.094745	6.45735	-7.15632	-4.43383