pySIMM System Object

458 atoms
493 bonds
792 angles
1160 dihedrals
132 impropers

9 atom types
10 bond types
15 angle types
5 dihedral types
2 improper types

-118.940763 118.940763 xlo xhi
-118.940763 118.940763 ylo yhi
-118.940763 118.940763 zlo zhi

Masses

   1	12.01	# ca
   2	1.008	# ha
   3	16.0	# os
   4	32.06	# sy
   5	16.0	# o
   6	16.0	# oh
   7	1.008	# ho
   8	12.01	# c
   9	1.008	# h4

Pair Coeffs

   1	0.086	3.3996695084235347	# ca
   2	0.015	2.59964245953351	# ha
   3	0.17	3.0000123434657784	# os
   4	0.25	3.563594872561357	# sy
   5	0.21	2.959921901149463	# o
   6	0.2104	3.0664733878390478	# oh
   7	1e-05	0.0	# ho
   8	0.086	3.3996695084235347	# c
   9	0.015	2.5105525877194763	# h4

Bond Coeffs

   1	345.8	1.086	# ca,ha
   2	243.4	1.7909	# ca,sy
   3	289.8	1.6497	# oh,sy
   4	637.7	1.2183	# c,o
   5	376.6	1.3696	# ca,os
   6	371.4	0.973	# ho,oh
   7	461.1	1.3984	# ca,ca
   8	345.9	1.4906	# c,ca
   9	310.7	1.1121	# c,h4
  10	493.0	1.466	# o,sy

Angle Coeffs

   1	48.18	119.88	# ca,ca,ha
   2	72.54	121.41	# o,sy,o
   3	72.32	106.68	# o,sy,oh
   4	61.48	119.42	# ca,ca,sy
   5	64.28	120.33	# c,ca,ca
   6	69.58	119.2	# ca,ca,os
   7	68.72	122.6	# ca,c,o
   8	54.22	120.7	# h4,c,o
   9	46.43	115.14	# ca,c,h4
  10	44.17	106.42	# ho,oh,sy
  11	65.46	101.3	# ca,sy,oh
  12	65.77	108.35	# ca,sy,o
  13	63.48	119.89	# ca,os,ca
  14	66.62	120.02	# ca,ca,ca
  15	63.0	118.11	# ca,c,ca

Dihedral Coeffs

   1	1	1.3	2	180	# X,ca,sy,X
   2	1	9.5	1	180	# X,oh,sy,X
   3	1	3.625	2	180	# X,ca,ca,X
   4	1	1.0	2	180	# X,c,ca,X
   5	1	0.9	2	180	# X,ca,os,X

Improper Coeffs

   1	10.5	-1	2	# c,X,X,o
   2	1.1	-1	2	# ca,X,X,ha

Atoms

   1	1	1	0.228748	-41.8364	-2.47753	44.3604
   2	1	1	-0.221817	-40.7335	-1.74774	44.8269
   3	1	1	-0.090782	-42.8466	-2.87603	45.2471
   4	1	2	0.148235	-43.6915	-3.44746	44.8723
   5	1	1	-0.079307	-40.6335	-1.42546	46.1904
   6	1	1	-0.073979	-42.7467	-2.56771	46.6179
   7	1	1	0.031918	-41.6326	-1.84279	47.0888
   8	1	3	-0.235323	-41.5225	-1.51728	48.4197
   9	1	1	0.139602	-40.394	-1.81151	49.1451
  10	1	1	-0.107898	-39.5619	-0.7725	49.5879
  11	1	1	-0.094745	-40.0809	-3.14407	49.4571
  12	1	1	-0.163657	-38.4083	-1.06508	50.3384
  13	1	1	-0.253044	-38.9309	-3.43685	50.2126
  14	1	2	0.134377	-39.8154	0.255831	49.3466
  15	1	1	-0.00458	-38.0855	-2.39976	50.6595
  16	1	2	0.169279	-40.7404	-3.94309	49.1265
  17	1	2	0.169448	-37.7702	-0.252592	50.6773
  18	1	1	-0.039038	-41.6509	-5.25795	42.912
  19	1	1	-0.435237	-40.8684	-6.38144	42.5881
  20	1	1	0.120439	-41.1597	-3.96735	42.6625
  21	1	1	0.323935	-39.5802	-6.23938	42.0299
  22	1	1	-0.012898	-39.8976	-3.80428	42.0713
  23	1	2	0.208311	-41.2521	-7.3812	42.7808
  24	1	1	-0.466417	-39.1124	-4.93159	41.7609
  25	1	3	-0.302302	-41.8848	-2.8681	43.0485
  26	1	2	0.13972	-39.5301	-2.80138	41.8694
  27	1	2	0.217142	-38.1385	-4.79294	41.2986
  28	1	2	0.144775	-42.6324	-5.38255	43.3627
  29	1	2	0.161927	-39.9577	-1.44231	44.1321
  30	1	2	0.152343	-39.7808	-0.858232	46.5541
  31	1	4	1.02665	-44.0196	-3.16346	47.7422
  32	1	5	-0.487155	-45.1409	-3.80601	47.0605
  33	1	5	-0.529829	-43.3778	-3.7547	48.9127
  34	1	6	-0.538439	-44.5604	-1.82421	48.4544
  35	1	7	0.447385	-44.0437	-1.99778	49.2593
  36	1	2	0.176748	-38.6957	-4.4703	50.4644
  37	1	8	0.492969	-36.8603	-2.70502	51.478
  38	1	5	-0.49751	-36.5195	-3.83228	51.7963
  39	1	1	0.228748	-29.684	-8.60877	41.198
  40	1	1	-0.221817	-30.8224	-8.2303	40.4624
  41	1	1	-0.090782	-29.7459	-8.66705	42.5956
  42	1	2	0.148235	-28.8541	-8.9378	43.1553
  43	1	1	-0.079307	-32.0211	-7.9195	41.1308
  44	1	1	-0.073979	-30.9417	-8.36125	43.2705
  45	1	1	0.031918	-32.0897	-7.99977	42.5364
  46	1	3	-0.235323	-33.2291	-7.6589	43.2332
  47	1	1	0.139602	-34.5277	-7.59929	42.7846
  48	1	1	-0.107898	-35.0673	-8.53861	41.8891
  49	1	1	-0.094745	-35.3595	-6.62401	43.3498
  50	1	1	-0.163657	-36.4273	-8.46703	41.5333
  51	1	1	-0.253044	-36.72	-6.55807	43.0043
  52	1	2	0.134377	-34.444	-9.33583	41.4943
  53	1	1	-0.00458	-37.2706	-7.47204	42.0762
  54	1	2	0.169279	-34.9419	-5.93504	44.0803
  55	1	2	0.169448	-36.8416	-9.20695	40.8503
  56	1	1	-0.039038	-28.805	-10.2543	38.642
  57	1	1	-0.435237	-28.5713	-10.4815	37.2711
  58	1	1	0.120439	-28.3036	-9.09484	39.2552
  59	1	1	0.323935	-27.8213	-9.56852	36.4977
  60	1	1	-0.012898	-27.5836	-8.16124	38.4987
  61	1	2	0.208311	-28.9496	-11.3855	36.7989
  62	1	1	-0.466417	-27.3567	-8.39087	37.1306
  63	1	3	-0.302302	-28.4765	-8.87805	40.599
  64	1	2	0.13972	-27.2006	-7.26445	38.9803
  65	1	2	0.217142	-26.8075	-7.6475	36.5572
  66	1	2	0.144775	-29.3559	-10.9788	39.237
  67	1	2	0.161927	-30.7738	-8.1538	39.3801
  68	1	2	0.152343	-32.8852	-7.5964	40.5571
  69	1	4	1.02665	-30.9636	-8.42744	45.0715
  70	1	5	-0.487155	-29.7347	-8.96292	45.653
  71	1	5	-0.529829	-31.622	-7.23718	45.6016
  72	1	6	-0.538439	-32.1551	-9.46013	45.3955
  73	1	7	0.447385	-32.7474	-8.7335	45.6555
  74	1	2	0.176748	-37.3448	-5.81656	43.4969
  75	1	8	0.492969	-38.744	-7.4687	41.7226
  76	1	5	-0.49751	-39.2701	-8.48958	41.2988
  77	1	1	0.228748	-20.3002	-7.52948	29.8026
  78	1	1	-0.221817	-20.2436	-8.53992	30.7793
  79	1	1	-0.090782	-21.2455	-6.49825	29.9212
  80	1	2	0.148235	-21.2666	-5.71531	29.1681
  81	1	1	-0.079307	-21.1214	-8.50016	31.877
  82	1	1	-0.073979	-22.1214	-6.44365	31.0247
  83	1	1	0.031918	-22.0512	-7.45441	32.0043
  84	1	3	-0.235323	-22.7503	-7.34612	33.1774
  85	1	1	0.139602	-23.8543	-8.08394	33.5264
  86	1	1	-0.107898	-24.9737	-8.20477	32.684
  87	1	1	-0.094745	-23.8941	-8.61858	34.82
  88	1	1	-0.163657	-26.1464	-8.82429	33.1601
  89	1	1	-0.253044	-25.0571	-9.24632	35.2916
  90	1	2	0.134377	-24.9544	-7.77102	31.6889
  91	1	1	-0.00458	-26.2129	-9.31295	34.4823
  92	1	2	0.169279	-23.0268	-8.50999	35.465
  93	1	2	0.169448	-27.0263	-8.87806	32.5216
  94	1	1	-0.039038	-17.087	-8.03739	28.6157
  95	1	1	-0.435237	-16.0688	-8.93055	28.2288
  96	1	1	0.120439	-18.4354	-8.39518	28.4654
  97	1	1	0.323935	-16.3778	-10.1888	27.6616
  98	1	1	-0.012898	-18.7631	-9.65791	27.9464
  99	1	2	0.208311	-15.0302	-8.64031	28.3668
 100	1	1	-0.466417	-17.7408	-10.5472	27.56
 101	1	3	-0.302302	-19.4166	-7.4724	28.7477
 102	1	2	0.13972	-19.8084	-9.93099	27.8229
 103	1	2	0.217142	-17.9991	-11.5209	27.148
 104	1	2	0.144775	-16.8383	-7.05917	29.0206
 105	1	2	0.161927	-19.5019	-9.32999	30.713
 106	1	2	0.152343	-21.0525	-9.25147	32.6597
 107	1	4	1.02665	-23.2813	-5.06443	31.1621
 108	1	5	-0.487155	-23.9008	-4.83628	32.464
 109	1	5	-0.529829	-22.85	-3.95245	30.3206
 110	1	6	-0.538439	-24.4869	-5.51675	30.1972
 111	1	7	0.447385	-24.428	-4.6838	29.6977
 112	1	2	0.176748	-25.0692	-9.64288	36.3052
 113	1	8	0.492969	-27.5101	-9.85335	35.0371
 114	1	5	-0.49751	-28.2899	-10.4675	34.321
 115	1	1	0.228748	-9.02634	-10.4229	21.065
 116	1	1	-0.221817	-10.35	-10.7111	21.4263
 117	1	1	-0.090782	-8.20795	-9.68751	21.9337
 118	1	2	0.148235	-7.17388	-9.49874	21.6571
 119	1	1	-0.079307	-10.8608	-10.2535	22.6543
 120	1	1	-0.073979	-8.70868	-9.22956	23.1693
 121	1	1	0.031918	-10.0401	-9.52069	23.5377
 122	1	3	-0.235323	-10.5168	-9.09648	24.7622
 123	1	1	0.139602	-11.658	-9.57867	25.3577
 124	1	1	-0.107898	-12.8299	-8.80994	25.3363
 125	1	1	-0.094745	-11.6607	-10.8406	25.971
 126	1	1	-0.163657	-14.0105	-9.30498	25.9192
 127	1	1	-0.253044	-12.8402	-11.3334	26.561
 128	1	2	0.134377	-12.8212	-7.83742	24.8514
 129	1	1	-0.00458	-14.0279	-10.5678	26.5562
 130	1	2	0.169279	-10.7486	-11.4323	25.9817
 131	1	2	0.169448	-14.9154	-8.70558	25.8522
 132	1	1	-0.039038	-7.19163	-10.3059	18.022
 133	1	1	-0.435237	-7.08588	-9.68533	16.7625
 134	1	1	0.120439	-8.41073	-10.2926	18.7174
 135	1	1	0.323935	-8.20259	-9.06928	16.162
 136	1	1	-0.012898	-9.53047	-9.66769	18.1392
 137	1	2	0.208311	-6.13328	-9.68178	16.2382
 138	1	1	-0.466417	-9.42798	-9.07255	16.8648
 139	1	3	-0.302302	-8.49421	-10.9593	19.9188
 140	1	2	0.13972	-10.4788	-9.66369	18.6698
 141	1	2	0.217142	-10.297	-8.59137	16.4229
 142	1	2	0.144775	-6.33072	-10.7986	18.4674
 143	1	2	0.161927	-10.9676	-11.3102	20.7641
 144	1	2	0.152343	-11.8873	-10.4871	22.9245
 145	1	4	1.02665	-7.59655	-8.33832	24.2731
 146	1	5	-0.487155	-6.22672	-8.23968	23.7744
 147	1	5	-0.529829	-8.27959	-7.20711	24.8917
 148	1	6	-0.538439	-7.56349	-9.25458	25.5946
 149	1	7	0.447385	-8.06471	-8.58118	26.088
 150	1	2	0.176748	-12.839	-12.3194	27.0243
 151	1	8	0.492969	-15.2925	-11.1358	27.1712
 152	1	5	-0.49751	-15.4665	-12.3476	27.1868
 153	1	1	0.228748	-9.04145	-12.8292	6.86249
 154	1	1	-0.221817	-8.56192	-11.5647	7.24506
 155	1	1	-0.090782	-9.97194	-13.4907	7.67503
 156	1	2	0.148235	-10.3132	-14.48	7.38341
 157	1	1	-0.079307	-9.05125	-10.9469	8.41325
 158	1	1	-0.073979	-10.4679	-12.8804	8.84593
 159	1	1	0.031918	-10.0132	-11.5962	9.21207
 160	1	3	-0.235323	-10.573	-10.9655	10.3027
 161	1	1	0.139602	-9.89148	-10.3865	11.3489
 162	1	1	-0.107898	-9.78472	-11.0755	12.5674
 163	1	1	-0.094745	-9.43639	-9.0618	11.2617
 164	1	1	-0.163657	-9.20447	-10.4531	13.6903
 165	1	1	-0.253044	-8.83939	-8.44425	12.3768
 166	1	2	0.134377	-10.1774	-12.0868	12.6419
 167	1	1	-0.00458	-8.72322	-9.12591	13.6088
 168	1	2	0.169279	-9.57124	-8.50814	10.3379
 169	1	2	0.169448	-9.13527	-11.0129	14.6203
 170	1	1	-0.039038	-7.67849	-13.5305	3.5057
 171	1	1	-0.435237	-7.56953	-13.0006	2.20078
 172	1	1	0.120439	-8.51007	-12.9219	4.46214
 173	1	1	0.323935	-8.30063	-11.8514	1.81883
 174	1	1	-0.012898	-9.26252	-11.794	4.08883
 175	1	2	0.208311	-6.87804	-13.4575	1.49813
 176	1	1	-0.466417	-9.14243	-11.2638	2.79014
 177	1	3	-0.302302	-8.5771	-13.4675	5.73123
 178	1	2	0.13972	-9.92938	-11.3207	4.80476
 179	1	2	0.217142	-9.69831	-10.3672	2.52462
 180	1	2	0.144775	-7.10059	-14.4056	3.79373
 181	1	2	0.161927	-7.81367	-11.0664	6.63524
 182	1	2	0.152343	-8.69199	-9.96093	8.69016
 183	1	4	1.02665	-11.6161	-13.8028	9.88758
 184	1	5	-0.487155	-12.5157	-13.0282	10.738
 185	1	5	-0.529829	-12.0562	-15.0092	9.1928
 186	1	6	-0.538439	-10.6139	-14.5528	10.8988
 187	1	7	0.447385	-10.8867	-15.4223	10.56
 188	1	2	0.176748	-8.4827	-7.41837	12.296
 189	1	8	0.492969	-8.08291	-8.43217	14.7939
 190	1	5	-0.49751	-7.41424	-7.41954	14.6358
 191	1	1	0.228748	-6.64876	-13.3663	-8.39549
 192	1	1	-0.221817	-5.85278	-13.1438	-7.25738
 193	1	1	-0.090782	-8.00098	-13.7124	-8.2309
 194	1	2	0.148235	-8.60769	-13.9048	-9.11183
 195	1	1	-0.079307	-6.40226	-13.2857	-5.96475
 196	1	1	-0.073979	-8.5622	-13.8402	-6.94046
 197	1	1	0.031918	-7.75698	-13.6352	-5.80148
 198	1	3	-0.235323	-8.263	-13.9663	-4.55854
 199	1	1	0.139602	-8.14779	-13.2846	-3.36309
 200	1	1	-0.107898	-7.88942	-11.9066	-3.29755
 201	1	1	-0.094745	-8.40247	-13.989	-2.17461
 202	1	1	-0.163657	-7.86219	-11.2552	-2.04882
 203	1	1	-0.253044	-8.38336	-13.3372	-0.924193
 204	1	2	0.134377	-7.74718	-11.3365	-4.2106
 205	1	1	-0.00458	-8.10184	-11.9538	-0.840471
 206	1	2	0.169279	-8.64831	-15.0459	-2.23716
 207	1	2	0.169448	-7.68541	-10.1815	-2.0212
 208	1	1	-0.039038	-4.26867	-12.8136	-11.1388
 209	1	1	-0.435237	-3.43123	-11.8532	-11.7574
 210	1	1	0.120439	-5.2591	-12.426	-10.2151
 211	1	1	0.323935	-3.5775	-10.4733	-11.4798
 212	1	1	-0.012898	-5.42433	-11.0604	-9.93914
 213	1	2	0.208311	-2.66138	-12.1863	-12.4489
 214	1	1	-0.466417	-4.59477	-10.1082	-10.5635
 215	1	3	-0.302302	-6.10015	-13.3797	-9.66639
 216	1	2	0.13972	-6.20511	-10.739	-9.25436
 217	1	2	0.217142	-4.73816	-9.05448	-10.3342
 218	1	2	0.144775	-4.15297	-13.8702	-11.3693
 219	1	2	0.161927	-4.79656	-12.9229	-7.37949
 220	1	2	0.152343	-5.76733	-13.181	-5.08872
 221	1	4	1.02665	-10.2979	-14.3039	-6.75389
 222	1	5	-0.487155	-11.0082	-13.6136	-5.68016
 223	1	5	-0.529829	-10.9195	-14.4945	-8.06151
 224	1	6	-0.538439	-10.2479	-15.8506	-6.3014
 225	1	7	0.447385	-10.8619	-16.1209	-7.00206
 226	1	2	0.176748	-8.63364	-13.9113	-0.0360932
 227	1	8	0.492969	-8.13656	-11.17	0.464413
 228	1	5	-0.49751	-8.13054	-9.94601	0.417918
 229	1	1	0.228748	5.54041	-8.26747	-16.2061
 230	1	1	-0.221817	4.45444	-7.39826	-16.4258
 231	1	1	-0.090782	5.28174	-9.57741	-15.7719
 232	1	2	0.148235	6.12152	-10.2516	-15.6272
 233	1	1	-0.079307	3.1304	-7.85203	-16.231
 234	1	1	-0.073979	3.96095	-10.0381	-15.5705
 235	1	1	0.031918	2.8738	-9.1725	-15.8103
 236	1	3	-0.235323	1.5828	-9.66706	-15.8877
 237	1	1	0.139602	0.595737	-9.68398	-14.9139
 238	1	1	-0.107898	-0.702007	-10.0778	-15.2914
 239	1	1	-0.094745	0.832452	-9.31816	-13.5778
 240	1	1	-0.163657	-1.76537	-10.0697	-14.3628
 241	1	1	-0.253044	-0.232165	-9.29815	-12.6518
 242	1	2	0.134377	-0.886538	-10.3553	-16.3256
 243	1	1	-0.00458	-1.54358	-9.66801	-13.0284
 244	1	2	0.169279	1.82957	-9.02225	-13.267
 245	1	2	0.169448	-2.77119	-10.3071	-14.7019
 246	1	1	-0.039038	7.11581	-5.60547	-15.8436
 247	1	1	-0.435237	7.6992	-4.3439	-16.0757
 248	1	1	0.120439	7.40522	-6.68186	-16.6972
 249	1	1	0.323935	8.61012	-4.12475	-17.1351
 250	1	1	-0.012898	8.34312	-6.4948	-17.7309
 251	1	2	0.208311	7.4325	-3.50571	-15.4355
 252	1	1	-0.466417	8.94195	-5.23269	-17.9479
 253	1	3	-0.302302	6.85573	-7.93655	-16.4974
 254	1	2	0.13972	8.58864	-7.33416	-18.3774
 255	1	2	0.217142	9.62751	-5.1027	-18.7818
 256	1	2	0.144775	6.43198	-5.74777	-15.0109
 257	1	2	0.161927	4.62974	-6.39493	-16.8027
 258	1	2	0.152343	2.2937	-7.1982	-16.4655
 259	1	4	1.02665	3.70044	-11.7501	-15.0691
 260	1	5	-0.487155	2.39177	-12.2074	-14.6161
 261	1	5	-0.529829	4.76134	-12.636	-15.5319
 262	1	6	-0.538439	4.72057	-11.9713	-13.9274
 263	1	7	0.447385	5.02438	-12.5407	-14.7247
 264	1	2	0.176748	-0.0516262	-8.94668	-11.6381
 265	1	8	0.492969	-2.69271	-9.37795	-12.0829
 266	1	5	-0.49751	-2.82891	-8.21792	-11.7157
 267	1	1	0.228748	15.2213	2.47193	-21.3578
 268	1	1	-0.221817	14.8487	1.44308	-22.2413
 269	1	1	-0.090782	15.11	2.26005	-19.9735
 270	1	2	0.148235	15.3701	3.07065	-19.2978
 271	1	1	-0.079307	14.4523	0.187865	-21.7378
 272	1	1	-0.073979	14.6929	1.01186	-19.4587
 273	1	1	0.031918	14.3801	-0.0372359	-20.351
 274	1	3	-0.235323	14.0722	-1.30699	-19.9014
 275	1	1	0.139602	12.8586	-1.69305	-19.365
 276	1	1	-0.107898	12.8341	-2.66972	-18.3536
 277	1	1	-0.094745	11.6509	-1.12026	-19.7962
 278	1	1	-0.163657	11.6158	-3.05653	-17.7563
 279	1	1	-0.253044	10.4363	-1.49451	-19.1908
 280	1	2	0.134377	13.7739	-3.08655	-18.0001
 281	1	1	-0.00458	10.4013	-2.46216	-18.1626
 282	1	2	0.169279	11.6617	-0.362444	-20.5733
 283	1	2	0.169448	11.6296	-3.76513	-16.9313
 284	1	1	-0.039038	17.2855	3.05933	-23.5
 285	1	1	-0.435237	18.1042	3.43134	-24.586
 286	1	1	0.120439	16.4681	4.01599	-22.8684
 287	1	1	0.323935	18.1725	4.76592	-25.0458
 288	1	1	-0.012898	16.535	5.35104	-23.3076
 289	1	2	0.208311	18.6995	2.67443	-25.0924
 290	1	1	-0.466417	17.3789	5.72481	-24.3765
 291	1	3	-0.302302	15.6305	3.71623	-21.8034
 292	1	2	0.13972	15.9158	6.09711	-22.815
 293	1	2	0.217142	17.3821	6.75847	-24.7145
 294	1	2	0.144775	17.2854	2.02838	-23.1587
 295	1	2	0.161927	14.8761	1.61487	-23.3133
 296	1	2	0.152343	14.2037	-0.620927	-22.4203
 297	1	4	1.02665	14.5895	0.788393	-17.67
 298	1	5	-0.487155	15.1246	-0.475578	-17.1703
 299	1	5	-0.529829	14.8626	2.04894	-16.9854
 300	1	6	-0.538439	13.0046	0.725197	-17.3841
 301	1	7	0.447385	13.0378	1.44722	-16.7376
 302	1	2	0.176748	9.51364	-1.00251	-19.4922
 303	1	8	0.492969	9.10439	-2.7119	-17.422
 304	1	5	-0.49751	8.39883	-1.75352	-17.1346
 305	1	1	0.228748	23.1618	11.9091	-30.3936
 306	1	1	-0.221817	23.8644	10.8621	-29.7784
 307	1	1	-0.090782	21.9297	12.32	-29.852
 308	1	2	0.148235	21.3509	13.0935	-30.3459
 309	1	1	-0.079307	23.3635	10.2519	-28.6141
 310	1	1	-0.073979	21.4463	11.7525	-28.6532
 311	1	1	0.031918	22.1581	10.6968	-28.0458
 312	1	3	-0.235323	21.7353	10.1333	-26.8628
 313	1	1	0.139602	21.0479	8.93916	-26.7469
 314	1	1	-0.107898	20.8538	8.40012	-25.464
 315	1	1	-0.094745	20.5406	8.24993	-27.8634
 316	1	1	-0.163657	20.1701	7.17985	-25.2898
 317	1	1	-0.253044	19.8699	7.02308	-27.6914
 318	1	2	0.134377	21.249	8.93216	-24.6032
 319	1	1	-0.00458	19.6691	6.47343	-26.4049
 320	1	2	0.169279	20.6723	8.65774	-28.8614
 321	1	2	0.169448	20.0646	6.7705	-24.2877
 322	1	1	-0.039038	24.0721	13.9586	-33.3528
 323	1	1	-0.435237	24.0151	15.2415	-33.9347
 324	1	1	0.120439	23.6165	13.7403	-32.0407
 325	1	1	0.323935	23.4611	16.3299	-33.2282
 326	1	1	-0.012898	23.1395	14.8408	-31.2992
 327	1	2	0.208311	24.3504	15.3823	-34.9593
 328	1	1	-0.466417	23.0293	16.108	-31.9043
 329	1	3	-0.302302	23.706	12.4497	-31.5434
 330	1	2	0.13972	22.844	14.726	-30.2611
 331	1	2	0.217142	22.6036	16.9385	-31.3448
 332	1	2	0.144775	24.4641	13.118	-33.9204
 333	1	2	0.161927	24.8056	10.5317	-30.2079
 334	1	2	0.152343	23.9199	9.45164	-28.1324
 335	1	4	1.02665	19.9667	12.4609	-27.9037
 336	1	5	-0.487155	19.4294	11.8205	-26.7067
 337	1	5	-0.529829	20.0269	13.9136	-28.0322
 338	1	6	-0.538439	18.8561	12.3256	-29.0526
 339	1	7	0.447385	18.7406	13.2942	-29.0484
 340	1	2	0.176748	19.5055	6.48488	-28.565
 341	1	8	0.492969	19.0215	5.10945	-26.2645
 342	1	5	-0.49751	19.2096	4.271	-27.137
 343	1	1	0.228748	30.9276	21.4032	-33.9923
 344	1	1	-0.221817	30.9413	20.2137	-34.735
 345	1	1	-0.090782	29.8801	22.3214	-34.1474
 346	1	2	0.148235	29.8897	23.2449	-33.5732
 347	1	1	-0.079307	29.8714	19.9134	-35.5915
 348	1	1	-0.073979	28.7969	22.0267	-35.0003
 349	1	1	0.031918	28.7791	20.7921	-35.6879
 350	1	3	-0.235323	27.6784	20.3792	-36.3967
 351	1	1	0.139602	26.6524	19.6644	-35.8078
 352	1	1	-0.107898	26.8769	18.762	-34.7483
 353	1	1	-0.094745	25.3428	19.876	-36.2612
 354	1	1	-0.163657	25.7985	18.0841	-34.1486
 355	1	1	-0.253044	24.2617	19.2211	-35.6442
 356	1	2	0.134377	27.8817	18.5956	-34.3752
 357	1	1	-0.00458	24.4756	18.3158	-34.5836
 358	1	2	0.169279	25.1687	20.591	-37.0612
 359	1	2	0.169448	25.9915	17.4162	-33.3119
 360	1	1	-0.039038	33.2283	20.164	-31.6532
 361	1	1	-0.435237	33.3178	19.1861	-30.6434
 362	1	1	0.120439	31.9822	20.7142	-31.9859
 363	1	1	0.323935	32.1716	18.7381	-29.9512
 364	1	1	-0.012898	30.8342	20.3086	-31.2817
 365	1	2	0.208311	34.2853	18.7574	-30.3905
 366	1	1	-0.466417	30.9293	19.332	-30.2736
 367	1	3	-0.302302	31.8828	21.6056	-33.0298
 368	1	2	0.13972	29.8706	20.752	-31.5221
 369	1	2	0.217142	30.0339	19.0462	-29.7262
 370	1	2	0.144775	34.1154	20.485	-32.1939
 371	1	2	0.161927	31.7629	19.5137	-34.6136
 372	1	2	0.152343	29.857	18.9761	-36.1422
 373	1	4	1.02665	27.4867	23.2614	-35.1473
 374	1	5	-0.487155	26.3211	22.8261	-35.9099
 375	1	5	-0.529829	27.3529	24.0891	-33.9521
 376	1	6	-0.538439	28.1022	24.266	-36.2469
 377	1	7	0.447385	27.3065	24.2241	-36.801
 378	1	2	0.176748	23.246	19.435	-35.9733
 379	1	8	0.492969	23.295	17.6892	-33.8782
 380	1	5	-0.49751	22.2349	18.2947	-33.797
 381	1	1	0.228748	27.9421	10.753	-25.4585
 382	1	1	-0.221817	28.7091	10.5595	-26.6154
 383	1	1	-0.090782	27.2151	11.9502	-25.2983
 384	1	2	0.148235	26.5868	12.0961	-24.4255
 385	1	1	-0.079307	28.7697	11.5586	-27.6003
 386	1	1	-0.073979	27.2918	12.9707	-26.2682
 387	1	1	0.031918	28.0749	12.7651	-27.4215
 388	1	3	-0.235323	28.1617	13.7182	-28.4029
 389	1	1	0.139602	29.1666	14.656	-28.4853
 390	1	1	-0.107898	29.3268	15.3406	-29.697
 391	1	1	-0.094745	30.0243	14.9435	-27.4074
 392	1	1	-0.163657	30.3358	16.3078	-29.8404
 393	1	1	-0.253044	31.0292	15.9184	-27.5476
 394	1	2	0.134377	28.6668	15.1081	-30.5277
 395	1	1	-0.00458	31.1887	16.6259	-28.7591
 396	1	2	0.169279	29.9088	14.4225	-26.4617
 397	1	2	0.169448	30.4553	16.7949	-30.8045
 398	1	1	-0.039038	27.638	10.8445	-22.3962
 399	1	1	-0.435237	26.991	10.9115	-21.149
 400	1	1	0.120439	27.36	9.78747	-23.2784
 401	1	1	0.323935	26.092	9.89861	-20.7302
 402	1	1	-0.012898	26.5034	8.7563	-22.869
 403	1	2	0.208311	27.186	11.7718	-20.5187
 404	1	1	-0.466417	25.8822	8.81155	-21.6077
 405	1	3	-0.302302	27.9195	9.72908	-24.5347
 406	1	2	0.13972	26.3095	7.92577	-23.5432
 407	1	2	0.217142	25.2001	8.01761	-21.3101
 408	1	2	0.144775	28.3318	11.6269	-22.694
 409	1	2	0.161927	29.251	9.62695	-26.7454
 410	1	2	0.152343	29.3588	11.4064	-28.5015
 411	1	4	1.02665	26.4345	14.5321	-25.9719
 412	1	5	-0.487155	26.1733	15.3843	-27.1282
 413	1	5	-0.529829	25.4629	14.3845	-24.8926
 414	1	6	-0.538439	27.5021	15.3389	-25.08
 415	1	7	0.447385	26.8335	15.4791	-24.3874
 416	1	2	0.176748	31.6903	16.1333	-26.7091
 417	1	8	0.492969	32.2895	17.6584	-28.8889
 418	1	5	-0.49751	33.2952	17.5684	-28.1966
 419	1	1	0.228748	24.135	18.2398	-20.1283
 420	1	1	-0.221817	24.7907	17.0874	-20.5911
 421	1	1	-0.090782	23.8842	18.3979	-18.7569
 422	1	2	0.148235	23.3633	19.2879	-18.4147
 423	1	1	-0.079307	25.222	16.1135	-19.6799
 424	1	1	-0.073979	24.3076	17.4187	-17.8325
 425	1	1	0.031918	24.9783	16.2704	-18.3013
 426	1	3	-0.235323	25.3931	15.2899	-17.4275
 427	1	1	0.139602	25.3213	13.9564	-17.7516
 428	1	1	-0.107898	26.4463	13.1376	-17.5724
 429	1	1	-0.094745	24.1606	13.437	-18.3496
 430	1	1	-0.163657	26.4369	11.8175	-18.0582
 431	1	1	-0.253044	24.1521	12.122	-18.8411
 432	1	2	0.134377	27.3335	13.5448	-17.0949
 433	1	1	-0.00458	25.3031	11.3175	-18.7334
 434	1	2	0.169279	23.2859	14.0718	-18.4667
 435	1	2	0.169448	27.3229	11.1965	-17.9461
 436	1	1	-0.039038	23.7326	19.6081	-23.3805
 437	1	1	-0.435237	24.437	19.8564	-24.575
 438	1	1	0.120439	24.4282	19.5055	-22.1647
 439	1	1	0.323935	25.8311	20.0105	-24.5596
 440	1	1	-0.012898	25.8267	19.6718	-22.1458
 441	1	2	0.208311	23.9054	19.9292	-25.519
 442	1	1	-0.466417	26.5243	19.9175	-23.3437
 443	1	3	-0.302302	23.7359	19.2194	-21.0082
 444	1	2	0.13972	26.3641	19.6029	-21.2032
 445	1	2	0.217142	27.6025	20.0453	-23.3354
 446	1	2	0.144775	22.6529	19.4804	-23.3913
 447	1	2	0.161927	24.964	16.948	-21.6541
 448	1	2	0.152343	25.7421	15.2319	-20.0446
 449	1	4	1.02665	23.9784	17.6701	-16.0754
 450	1	5	-0.487155	22.8515	18.5817	-15.8981
 451	1	5	-0.529829	24.1377	16.5146	-15.1983
 452	1	6	-0.538439	25.1434	18.695	-15.6342
 453	1	7	0.447385	24.5376	19.2439	-15.1133
 454	1	2	0.176748	23.265	11.7346	-19.3396
 455	1	8	0.492969	25.3316	9.97586	-19.4121
 456	1	5	-0.49751	24.4839	9.14148	-19.1241
 457	1	9	0	-36.2623	-1.82273	51.7968
 458	1	2	0	26.3709	20.2017	-25.4827

Velocities

   1	0.000355408	-0.000440193	0.000134259
   2	0.000231822	-0.000403068	0.000225042
   3	0.000274977	-0.000287954	4.54849e-05
   4	0.000502685	-0.000538256	3.55716e-05
   5	-9.28332e-06	-3.82183e-05	0.000179686
   6	-3.60438e-05	8.32233e-05	1.08146e-05
   7	-8.36612e-05	0.000169923	0.000163211
   8	2.96094e-05	0.000234409	0.000155739
   9	-5.3561e-05	0.000235538	0.000471012
  10	-0.000128334	0.00014564	0.000805747
  11	7.03148e-05	0.000220977	0.000148253
  12	6.22735e-05	7.23767e-05	0.00069502
  13	3.81954e-05	2.46271e-05	-6.31273e-05
  14	-9.77328e-05	0.000176969	0.00115554
  15	-8.78955e-05	0.00012056	9.41726e-05
  16	-7.00045e-06	0.000148075	-0.000157519
  17	8.68954e-05	1.91596e-05	0.000651802
  18	0.000148792	-0.00025119	-0.000399835
  19	1.24118e-05	-0.00028982	-0.000666568
  20	0.00023895	-0.000286945	-0.00024438
  21	7.78564e-06	-0.000299749	-0.000684681
  22	0.000190609	-0.000266815	-0.000310499
  23	-5.97425e-05	-0.000280364	-0.000773
  24	7.69028e-05	-0.00030784	-0.000553776
  25	0.000429884	-0.000290712	0.00010075
  26	0.000304475	-0.000270368	-0.00012267
  27	9.52627e-05	-0.000293432	-0.000533124
  28	0.000186956	-0.000241674	-0.000280915
  29	0.000544192	-0.000751831	0.000449559
  30	-0.000106872	0.000162676	0.00023205
  31	-0.000237147	0.00038466	-1.80917e-05
  32	-0.000350809	0.000415193	0.000172268
  33	-0.000206339	0.000486534	-7.2875e-06
  34	-5.75222e-05	0.000396776	6.20567e-05
  35	-0.000404381	-7.69133e-05	0.000176503
  36	0.000220844	5.74551e-05	-0.000646325
  37	-0.000170517	0.000182076	-0.000456014
  38	-0.000370136	0.000140187	-0.000590773
  39	-0.000483253	-0.00045947	-4.23382e-05
  40	-0.000318292	0.000271269	7.57206e-05
  41	-0.000472718	-0.000795748	-5.64961e-05
  42	-0.000567067	-0.00130479	-0.000149666
  43	-0.000155955	0.000617676	0.000199811
  44	-0.000278733	-0.000302222	7.4355e-05
  45	-0.000162535	0.000308237	0.00018501
  46	-8.02718e-06	0.000725342	0.000207955
  47	-5.32056e-05	0.000371944	0.000244158
  48	0.000163646	7.70384e-05	0.000456684
  49	-0.000232894	0.000396056	-7.74726e-05
  50	0.000192561	-0.000204814	0.000248654
  51	-0.000216405	0.000119803	-0.000273179
  52	0.000329224	6.35382e-05	0.000717106
  53	2.12027e-05	-0.000117238	-0.000151031
  54	-0.000414324	0.000667712	-0.000238233
  55	0.00038392	-0.000441211	0.000393749
  56	-0.000473471	-9.33375e-05	-0.000454471
  57	-0.000160559	0.000125338	-0.000429937
  58	-0.00052597	-0.000243883	-0.000151672
  59	8.00894e-05	0.000192471	-0.00010946
  60	-0.000346541	-0.000118257	0.000165997
  61	-5.95436e-05	0.000201602	-0.000648277
  62	-4.62617e-05	9.49607e-05	0.000172505
  63	-0.000561592	-0.000654502	-9.41237e-05
  64	-0.000374518	-0.000247228	0.00043125
  65	0.000143451	0.00015502	0.000441357
  66	-0.000596836	-0.000186231	-0.000690817
  67	-0.00027545	0.000630781	0.000100294
  68	-7.42545e-06	0.00125386	0.000324281
  69	-2.02285e-05	-0.000110529	8.82925e-05
  70	0.000172727	0.000275496	3.66605e-05
  71	-0.000273424	-0.000279172	0.000146428
  72	0.000299473	-0.000350511	0.000424754
  73	0.000434846	-0.000458601	0.00107096
  74	-0.000345028	0.000181263	-0.000520932
  75	8.64782e-05	-0.000304127	-0.000475573
  76	0.000191522	-0.000456628	-0.000138378
  77	-0.000263894	-0.000340242	-0.000343315
  78	-3.78399e-06	-0.000350433	-0.000349427
  79	-0.000138287	-0.000329113	-0.000106942
  80	-0.000338804	-0.000401067	-0.000161811
  81	0.000338913	-0.000251954	-7.21154e-05
  82	0.000268719	-0.000200601	0.000156896
  83	0.000505545	-0.000124521	0.000193907
  84	0.000765702	-5.35978e-05	0.000327323
  85	0.000633876	0.000182964	0.000351536
  86	0.000836097	-9.38065e-05	0.000129278
  87	0.000414399	0.000492802	0.000462683
  88	0.000762304	-1.09134e-05	4.73997e-05
  89	0.000347224	0.000570842	0.000390364
  90	0.00106072	-0.000454678	-2.24673e-05
  91	0.000507102	0.00035538	0.000178449
  92	0.000330617	0.000621273	0.000558968
  93	0.000937674	-0.000313763	-0.000163854
  94	-0.000595987	0.000529099	-0.00040187
  95	-0.000324331	0.000749511	-0.000232637
  96	-0.000459817	0.000168907	-0.000667028
  97	-9.42421e-06	0.000637759	-0.000119719
  98	-0.000142687	0.000152577	-0.000743553
  99	-0.000411034	0.000953989	1.36125e-05
 100	9.46657e-05	0.000341539	-0.000439989
 101	-0.000749596	-0.000224699	-0.000691406
 102	-6.79542e-05	-8.41406e-05	-0.000904263
 103	0.000414603	0.000222591	-0.000330861
 104	-0.000934247	0.000557697	-0.000265176
 105	-0.000108448	-0.000441914	-0.000605235
 106	0.000456687	-0.000286218	-0.000103438
 107	0.000448078	-0.000120454	7.29778e-05
 108	0.000551586	0.000152079	6.84468e-05
 109	0.000621219	-0.000426435	-0.000244573
 110	0.000517841	-0.000216024	5.3497e-05
 111	0.00151406	-0.000850827	-0.000898415
 112	0.0002097	0.000743751	0.000454886
 113	0.00042193	0.000309639	-6.29646e-05
 114	0.000740758	4.56049e-05	-0.000185955
 115	3.56254e-05	-0.000396148	-0.00019269
 116	4.48767e-05	-0.000508186	-0.000237693
 117	-3.97012e-05	-0.000308477	-0.000186476
 118	-4.45146e-05	-0.000227906	-0.000129379
 119	-4.25757e-05	-0.000501746	-0.000303889
 120	-0.000158358	-0.000238327	-0.000259174
 121	-0.000131612	-0.000343432	-0.000352955
 122	-0.000198446	-0.000173069	-0.000480747
 123	-0.000200816	-9.55801e-05	-0.000504651
 124	-8.49085e-05	6.01117e-05	-0.000453661
 125	-0.000245327	-8.32459e-05	-0.000519857
 126	-4.86733e-05	0.000277139	-0.000201111
 127	-0.000190257	0.000144944	-0.000257239
 128	1.40833e-05	1.90909e-05	-0.000520952
 129	-4.88012e-05	0.000368831	-4.53536e-05
 130	-0.000332141	-0.000224052	-0.000633999
 131	4.45938e-05	0.000431575	-7.78479e-05
 132	8.08935e-05	-5.97731e-05	-2.01319e-05
 133	7.94698e-05	-0.000117537	-4.62599e-05
 134	-8.28625e-06	-0.000364635	-0.000199963
 135	-2.60406e-05	-0.000501824	-0.00021688
 136	-0.000117413	-0.000705705	-0.000337426
 137	0.000163291	0.000164194	0.000108294
 138	-8.45102e-05	-0.000693564	-0.000361702
 139	5.63641e-05	-0.000359127	-0.000186601
 140	-0.000173888	-0.000874244	-0.000500247
 141	-0.000154088	-0.00100009	-0.000550724
 142	0.00016736	0.000257783	0.000145874
 143	0.000121256	-0.000581952	-0.00024224
 144	-3.38432e-05	-0.00055684	-0.000331381
 145	-0.000477833	0.000128647	-0.000211122
 146	-0.000421274	0.00027907	-1.29757e-05
 147	-0.000781739	0.000127565	-0.000528593
 148	-0.000573096	0.000401595	-1.51198e-05
 149	-0.00087154	0.000370369	-0.000279285
 150	-0.000253756	0.000203764	-0.000154249
 151	0.000135897	0.000563109	0.000460194
 152	0.00039113	0.000549713	0.00144399
 153	0.000432452	-0.000178325	-0.000211042
 154	3.0432e-05	8.50889e-05	-0.000489643
 155	0.00094083	-0.000425386	0.000295602
 156	0.00112855	-0.000556207	0.00054147
 157	0.000102732	9.34997e-05	-0.000471949
 158	0.000840368	-0.000323463	0.000221062
 159	0.000456604	-6.09786e-05	-0.000193775
 160	0.000102786	0.000304697	-0.000597974
 161	-0.00012069	0.000144856	-0.000388879
 162	-0.000205264	-4.2174e-05	-0.000491967
 163	-0.000117362	0.000150922	-0.000197158
 164	-0.000238025	-0.000211066	-0.000382372
 165	-0.000151396	-2.76602e-05	-9.64871e-05
 166	-0.00017092	-7.25739e-05	-0.000685911
 167	-0.000165019	-0.000224868	-0.000214204
 168	-3.03038e-06	0.00026595	-0.000147299
 169	-0.000216443	-0.000373005	-0.000479881
 170	0.000406349	0.000784084	-0.000433473
 171	0.0002535	0.000892303	-0.000426484
 172	0.000336718	0.000563183	-0.000375852
 173	7.96128e-05	0.000796051	-0.000356632
 174	0.000297906	0.000579934	-0.000205545
 175	0.00012862	0.000902527	-0.000568047
 176	0.000204911	0.000718768	-0.000185408
 177	9.32448e-05	7.85556e-05	-0.000543722
 178	0.000178042	0.000384401	-0.000185396
 179	3.01437e-06	0.000610125	-0.000120545
 180	0.000417248	0.000746674	-0.000594424
 181	-0.000467656	0.000359316	-0.000875374
 182	-0.000357566	0.000368432	-0.000850922
 183	0.000221986	0.000124976	6.86466e-05
 184	0.000417007	0.000594868	-0.000153281
 185	-0.000540597	0.000473195	-4.31839e-05
 186	-0.000704065	-0.000625599	0.000476829
 187	-0.00242414	-0.000553776	0.00165681
 188	-6.28478e-05	-4.88266e-05	6.16349e-05
 189	9.91047e-05	-0.000480866	-0.000222913
 190	0.000956997	-0.00107407	-0.000346854
 191	0.000851147	0.000292328	6.77042e-05
 192	0.000668536	0.000710064	0.000119923
 193	0.000968233	-0.000127862	-6.88755e-05
 194	0.00115741	-0.000374009	-0.000138971
 195	0.000628603	0.000401795	6.1424e-05
 196	0.000852276	-0.000105995	-0.000126149