pySIMM System Object

1900 atoms
2049 bonds
3296 angles
4840 dihedrals
550 impropers

9 atom types
10 bond types
15 angle types
5 dihedral types
2 improper types

-195.703467 195.703467 xlo xhi
-195.703467 195.703467 ylo yhi
-195.703467 195.703467 zlo zhi

Masses

   1	12.01	# ca
   2	1.008	# ha
   3	16.0	# os
   4	32.06	# sy
   5	16.0	# o
   6	16.0	# oh
   7	1.008	# ho
   8	12.01	# c
   9	1.008	# h4

Pair Coeffs

   1	0.086	3.3996695084235347	# ca
   2	0.015	2.59964245953351	# ha
   3	0.17	3.0000123434657784	# os
   4	0.25	3.563594872561357	# sy
   5	0.21	2.959921901149463	# o
   6	0.2104	3.0664733878390478	# oh
   7	1e-05	0.0	# ho
   8	0.086	3.3996695084235347	# c
   9	0.015	2.5105525877194763	# h4

Bond Coeffs

   1	345.8	1.086	# ca,ha
   2	243.4	1.7909	# ca,sy
   3	289.8	1.6497	# oh,sy
   4	637.7	1.2183	# c,o
   5	376.6	1.3696	# ca,os
   6	371.4	0.973	# ho,oh
   7	461.1	1.3984	# ca,ca
   8	345.9	1.4906	# c,ca
   9	310.7	1.1121	# c,h4
  10	493.0	1.466	# o,sy

Angle Coeffs

   1	48.18	119.88	# ca,ca,ha
   2	72.54	121.41	# o,sy,o
   3	72.32	106.68	# o,sy,oh
   4	61.48	119.42	# ca,ca,sy
   5	64.28	120.33	# c,ca,ca
   6	69.58	119.2	# ca,ca,os
   7	68.72	122.6	# ca,c,o
   8	54.22	120.7	# h4,c,o
   9	46.43	115.14	# ca,c,h4
  10	44.17	106.42	# ho,oh,sy
  11	65.46	101.3	# ca,sy,oh
  12	65.77	108.35	# ca,sy,o
  13	63.48	119.89	# ca,os,ca
  14	66.62	120.02	# ca,ca,ca
  15	63.0	118.11	# ca,c,ca

Dihedral Coeffs

   1	1	1.3	2	180	# X,ca,sy,X
   2	1	9.5	1	180	# X,oh,sy,X
   3	1	3.625	2	180	# X,ca,ca,X
   4	1	1.0	2	180	# X,c,ca,X
   5	1	0.9	2	180	# X,ca,os,X

Improper Coeffs

   1	10.5	-1	2	# c,X,X,o
   2	1.1	-1	2	# ca,X,X,ha

Atoms

   1	1	1	0.228748	-60.2912	84.8839	73.8756
   2	1	1	-0.221817	-60.5725	84.4563	72.5698
   3	1	1	-0.090782	-59.5447	84.0529	74.7314
   4	1	2	0.148235	-59.3297	84.3672	75.7488
   5	1	1	-0.079307	-60.1121	83.2054	72.119
   6	1	1	-0.073979	-59.0906	82.7956	74.2929
   7	1	1	0.031918	-59.3681	82.3744	72.9763
   8	1	3	-0.235323	-58.9589	81.1349	72.5383
   9	1	1	0.139602	-58.1336	80.9046	71.4553
  10	1	1	-0.107898	-57.3239	81.9148	70.9011
  11	1	1	-0.094745	-58.061	79.6008	70.9394
  12	1	1	-0.163657	-56.4683	81.6221	69.8227
  13	1	1	-0.253044	-57.1969	79.3049	69.8696
  14	1	2	0.134377	-57.3427	82.9199	71.3121
  15	1	1	-0.00458	-56.3981	80.3156	69.2996
  16	1	2	0.169279	-58.6726	78.8175	71.3811
  17	1	2	0.169448	-55.8399	82.409	69.409
  18	1	1	-0.039038	-61.0281	86.4821	76.6581
  19	1	1	-0.435237	-60.5101	86.9934	77.864
  20	1	1	0.120439	-60.3474	86.7093	75.451
  21	1	1	0.323935	-59.3107	87.7432	77.8796
  22	1	1	-0.012898	-59.1804	87.4873	75.4429
  23	1	2	0.208311	-61.044	86.8108	78.7946
  24	1	1	-0.466417	-58.674	88.0057	76.6484
  25	1	3	-0.302302	-60.7729	86.1072	74.291
  26	1	2	0.13972	-58.6637	87.6681	74.5035
  27	1	2	0.217142	-57.765	88.6043	76.6428
  28	1	2	0.144775	-61.9408	85.8904	76.6543
  29	1	2	0.161927	-61.1555	85.0963	71.9136
  30	1	2	0.152343	-60.3432	82.8691	71.1111
  31	1	4	1.02665	-58.1903	81.7632	75.4617
  32	1	5	-0.487155	-57.6014	82.5512	76.543
  33	1	5	-0.529829	-59.0211	80.5899	75.7291
  34	1	6	-0.538439	-56.9952	81.1131	74.5818
  35	1	7	0.447385	-57.5519	80.4741	74.0868
  36	1	2	0.176748	-57.1433	78.2892	69.4796
  37	1	8	0.492969	-55.4682	80.0138	68.159
  38	1	5	-0.49751	-55.0837	78.8905	67.8651
  39	1	1	0.228748	-60.4706	81.2068	84.1932
  40	1	1	-0.221817	-59.0794	81.224	84.0029
  41	1	1	-0.090782	-61.1871	82.4098	84.2451
  42	1	2	0.148235	-62.2606	82.378	84.4128
  43	1	1	-0.079307	-58.4101	82.4499	83.8515
  44	1	1	-0.073979	-60.5276	83.645	84.0848
  45	1	1	0.031918	-59.1286	83.6567	83.8794
  46	1	3	-0.235323	-58.419	84.8255	83.7463
  47	1	1	0.139602	-58.4586	85.6162	82.6222
  48	1	1	-0.107898	-58.6429	85.0689	81.3409
  49	1	1	-0.094745	-58.3372	87.004	82.7749
  50	1	1	-0.163657	-58.725	85.9131	80.2195
  51	1	1	-0.253044	-58.4289	87.849	81.6553
  52	1	2	0.134377	-58.718	83.9925	81.2141
  53	1	1	-0.00458	-58.6393	87.3177	80.3646
  54	1	2	0.169279	-58.1905	87.4181	83.7703
  55	1	2	0.169448	-58.8357	85.4589	79.2372
  56	1	1	-0.039038	-60.9011	77.643	84.2618
  57	1	1	-0.435237	-60.656	76.4716	83.5221
  58	1	1	0.120439	-60.8903	78.8909	83.624
  59	1	1	0.323935	-60.4001	76.5174	82.1338
  60	1	1	-0.012898	-60.6653	78.9587	82.2375
  61	1	2	0.208311	-60.6752	75.5056	84.0223
  62	1	1	-0.466417	-60.4231	77.7835	81.5008
  63	1	3	-0.302302	-61.1449	80.0226	84.3638
  64	1	2	0.13972	-60.699	79.9219	81.734
  65	1	2	0.217142	-60.2926	77.8555	80.4232
  66	1	2	0.144775	-61.1019	77.5911	85.3295
  67	1	2	0.161927	-58.5216	80.2918	83.9935
  68	1	2	0.152343	-57.3314	82.4729	83.7181
  69	1	4	1.02665	-61.5204	85.1509	84.1675
  70	1	5	-0.487155	-62.9127	84.9137	84.5389
  71	1	5	-0.529829	-60.7562	86.2739	84.6993
  72	1	6	-0.538439	-61.5485	85.6553	82.639
  73	1	7	0.447385	-61.0088	86.4346	82.8627
  74	1	2	0.176748	-58.3294	88.926	81.7855
  75	1	8	0.492969	-58.7044	88.2505	79.1738
  76	1	5	-0.49751	-58.1623	89.3468	79.2236
  77	1	1	0.228748	-54.0749	77.7948	75.3585
  78	1	1	-0.221817	-53.7493	76.7059	76.1785
  79	1	1	-0.090782	-55.4075	78.0069	74.9698
  80	1	2	0.148235	-55.6427	78.8606	74.3441
  81	1	1	-0.079307	-54.753	75.8096	76.5855
  82	1	1	-0.073979	-56.422	77.1154	75.3738
  83	1	1	0.031918	-56.084	76.0136	76.1841
  84	1	3	-0.235323	-57.037	75.1059	76.5707
  85	1	1	0.139602	-57.7722	75.1889	77.7323
  86	1	1	-0.107898	-57.501	76.1389	78.7347
  87	1	1	-0.094745	-58.8135	74.2693	77.9154
  88	1	1	-0.163657	-58.2711	76.1625	79.9121
  89	1	1	-0.253044	-59.5823	74.2912	79.0921
  90	1	2	0.134377	-56.6935	76.8529	78.6071
  91	1	1	-0.00458	-59.3322	75.2475	80.0988
  92	1	2	0.169279	-59.0186	73.5408	77.1349
  93	1	2	0.169448	-58.0243	76.8861	80.6845
  94	1	1	-0.039038	-52.6547	80.5832	73.6052
  95	1	1	-0.435237	-52.5741	81.1955	72.3401
  96	1	1	0.120439	-53.0241	79.2348	73.7119
  97	1	1	0.323935	-52.8367	80.4699	71.1587
  98	1	1	-0.012898	-53.3157	78.502	72.5468
  99	1	2	0.208311	-52.2949	82.2438	72.2644
 100	1	1	-0.466417	-53.2345	79.1188	71.2836
 101	1	3	-0.302302	-53.076	78.6501	74.9583
 102	1	2	0.13972	-53.5995	77.4549	72.6246
 103	1	2	0.217142	-53.4888	78.5447	70.3936
 104	1	2	0.144775	-52.4359	81.1487	74.5075
 105	1	2	0.161927	-52.7171	76.5532	76.4809
 106	1	2	0.152343	-54.5056	74.9504	77.2046
 107	1	4	1.02665	-58.1205	77.4019	74.8393
 108	1	5	-0.487155	-58.1221	78.5773	73.9661
 109	1	5	-0.529829	-58.8561	76.1941	74.4763
 110	1	6	-0.538439	-58.8329	77.9591	76.1872
 111	1	7	0.447385	-58.9762	78.8942	75.9067
 112	1	2	0.176748	-60.3815	73.5636	79.2259
 113	1	8	0.492969	-60.1597	75.2272	81.3656
 114	1	5	-0.49751	-60.6065	74.1642	81.7781
 115	1	1	0.228748	-51.6488	78.743	61.2869
 116	1	1	-0.221817	-50.3958	79.1608	61.7513
 117	1	1	-0.090782	-52.579	78.1896	62.1872
 118	1	2	0.148235	-53.5537	77.8642	61.8333
 119	1	1	-0.079307	-50.0633	79.0174	63.1079
 120	1	1	-0.073979	-52.2593	78.047	63.5539
 121	1	1	0.031918	-50.9897	78.4715	64.0104
 122	1	3	-0.235323	-50.5852	78.3274	65.3147
 123	1	1	0.139602	-51.0718	79.0544	66.3769
 124	1	1	-0.107898	-51.7853	80.2531	66.207
 125	1	1	-0.094745	-50.8427	78.5624	67.6683
 126	1	1	-0.163657	-52.3003	80.9273	67.3276
 127	1	1	-0.253044	-51.3471	79.2415	68.7905
 128	1	2	0.134377	-51.96	80.6506	65.2115
 129	1	1	-0.00458	-52.1158	80.4179	68.6325
 130	1	2	0.169279	-50.2851	77.637	67.787
 131	1	2	0.169448	-52.8595	81.8485	67.18
 132	1	1	-0.039038	-52.8311	76.9907	58.7969
 133	1	1	-0.435237	-53.9261	76.358	58.179
 134	1	1	0.120439	-52.9743	78.286	59.3164
 135	1	1	0.323935	-55.1728	77.0084	58.0604
 136	1	1	-0.012898	-54.2062	78.9491	59.2154
 137	1	2	0.208311	-53.8187	75.3496	57.7855
 138	1	1	-0.466417	-55.2971	78.3122	58.5968
 139	1	3	-0.302302	-51.9187	78.8952	59.9466
 140	1	2	0.13972	-54.3114	79.9491	59.6301
 141	1	2	0.217142	-56.2537	78.8283	58.5544
 142	1	2	0.144775	-51.8738	76.4822	58.8797
 143	1	2	0.161927	-49.6824	79.5827	61.0498
 144	1	2	0.152343	-49.0848	79.3238	63.4673
 145	1	4	1.02665	-53.5155	77.3214	64.6357
 146	1	5	-0.487155	-52.9717	76.7487	65.864
 147	1	5	-0.529829	-54.5559	76.6229	63.8843
 148	1	6	-0.538439	-54.2725	78.6371	65.2024
 149	1	7	0.447385	-54.3616	78.3371	66.1325
 150	1	2	0.176748	-51.1368	78.8359	69.7769
 151	1	8	0.492969	-52.721	81.1562	69.8093
 152	1	5	-0.49751	-53.1562	82.2917	69.657
 153	1	1	0.228748	-64.2992	79.4382	55.1036
 154	1	1	-0.221817	-63.6528	79.0953	53.9088
 155	1	1	-0.090782	-63.5554	79.8682	56.2136
 156	1	2	0.148235	-64.0786	80.1482	57.1236
 157	1	1	-0.079307	-62.2543	79.1808	53.8234
 158	1	1	-0.073979	-62.1503	79.9704	56.1351
 159	1	1	0.031918	-61.505	79.6116	54.9298
 160	1	3	-0.235323	-60.1433	79.6831	54.7791
 161	1	1	0.139602	-59.2492	78.8182	55.3699
 162	1	1	-0.107898	-57.8881	79.1469	55.3196
 163	1	1	-0.094745	-59.6586	77.6397	56.0219
 164	1	1	-0.163657	-56.939	78.3281	55.9522
 165	1	1	-0.253044	-58.7086	76.8196	56.6567
 166	1	2	0.134377	-57.5765	80.0522	54.806
 167	1	1	-0.00458	-57.3437	77.1705	56.6514
 168	1	2	0.169279	-60.7099	77.3721	56.0615
 169	1	2	0.169448	-55.888	78.6041	55.9052
 170	1	1	-0.039038	-65.8792	81.7288	54.3949
 171	1	1	-0.435237	-66.7072	82.8096	54.0491
 172	1	1	0.120439	-66.4466	80.4958	54.7681
 173	1	1	0.323935	-68.113	82.6948	54.0502
 174	1	1	-0.012898	-67.8449	80.3617	54.7728
 175	1	2	0.208311	-66.2577	83.7673	53.7948
 176	1	1	-0.466417	-68.6725	81.448	54.4166
 177	1	3	-0.302302	-65.6704	79.4214	55.1544
 178	1	2	0.13972	-68.281	79.4121	55.0734
 179	1	2	0.217142	-69.7528	81.3336	54.4701
 180	1	2	0.144775	-64.8012	81.8638	54.3884
 181	1	2	0.161927	-64.2404	78.776	53.0526
 182	1	2	0.152343	-61.7422	78.9206	52.8999
 183	1	4	1.02665	-61.2389	80.5767	57.5747
 184	1	5	-0.487155	-59.9013	81.113	57.3385
 185	1	5	-0.529829	-62.1573	81.2173	58.5111
 186	1	6	-0.538439	-61.0366	79.2483	58.4579
 187	1	7	0.447385	-61.4932	79.6546	59.2144
 188	1	2	0.176748	-59.0311	75.9222	57.1827
 189	1	8	0.492969	-56.3383	76.3143	57.3798
 190	1	5	-0.49751	-56.4562	75.0957	57.391
 191	1	1	0.228748	-74.5553	87.1082	47.9246
 192	1	1	-0.221817	-73.2108	86.8115	48.2076
 193	1	1	-0.090782	-75.5732	86.3204	48.4808
 194	1	2	0.148235	-76.6085	86.56	48.2517
 195	1	1	-0.079307	-72.8949	85.7256	49.0443
 196	1	1	-0.073979	-75.2656	85.2285	49.3178
 197	1	1	0.031918	-73.9182	84.9375	49.6097
 198	1	3	-0.235323	-73.6043	83.8659	50.418
 199	1	1	0.139602	-72.5315	83.8406	51.279
 200	1	1	-0.107898	-72.2478	84.9404	52.1022
 201	1	1	-0.094745	-71.6934	82.7157	51.3066
 202	1	1	-0.163657	-71.1054	84.9282	52.9176
 203	1	1	-0.253044	-70.5427	82.7038	52.12
 204	1	2	0.134377	-72.8989	85.8096	52.0905
 205	1	1	-0.00458	-70.2317	83.8186	52.9347
 206	1	2	0.169279	-71.9252	81.8695	50.665
 207	1	2	0.169448	-70.8781	85.8023	53.5252
 208	1	1	-0.039038	-73.6054	88.5926	45.1519
 209	1	1	-0.435237	-72.8177	89.4785	44.3879
 210	1	1	0.120439	-74.0652	88.974	46.4218
 211	1	1	0.323935	-72.4789	90.763	44.8782
 212	1	1	-0.012898	-73.7321	90.2376	46.9296
 213	1	2	0.208311	-72.5236	89.1832	43.3853
 214	1	1	-0.466417	-72.9427	91.1163	46.1654
 215	1	3	-0.302302	-74.926	88.1625	47.1219
 216	1	2	0.13972	-74.1146	90.5432	47.9003
 217	1	2	0.217142	-72.7164	92.1089	46.5508
 218	1	2	0.144775	-73.8993	87.6256	44.7497
 219	1	2	0.161927	-72.414	87.4146	47.7826
 220	1	2	0.152343	-71.8528	85.4915	49.2501
 221	1	4	1.02665	-76.612	84.2383	49.9972
 222	1	5	-0.487155	-76.3468	83.02	50.7546
 223	1	5	-0.529829	-77.8494	85.0018	50.1034
 224	1	6	-0.538439	-77.5233	83.9078	48.7912
 225	1	7	0.447385	-78.0372	84.5585	49.3949
 226	1	2	0.176748	-69.8778	81.8439	52.0748
 227	1	8	0.492969	-68.9536	83.9233	53.7418
 228	1	5	-0.49751	-68.5299	85.0359	54.0304
 229	1	1	0.228748	-64.3662	91.1949	39.9988
 230	1	1	-0.221817	-65.3038	92.2263	40.1389
 231	1	1	-0.090782	-64.8037	89.9003	39.6522
 232	1	2	0.148235	-64.079	89.1019	39.5369
 233	1	1	-0.079307	-66.6753	91.9588	39.9857
 234	1	1	-0.073979	-66.1753	89.6273	39.4749
 235	1	1	0.031918	-67.1125	90.6565	39.6773
 236	1	3	-0.235323	-68.4573	90.3917	39.5783
 237	1	1	0.139602	-69.2984	90.6756	40.624
 238	1	1	-0.107898	-69.2877	89.8693	41.7733
 239	1	1	-0.094745	-70.1185	91.8112	40.5712
 240	1	1	-0.163657	-70.095	90.2017	42.8773
 241	1	1	-0.253044	-70.915	92.1508	41.6784
 242	1	2	0.134377	-68.6359	88.9999	41.8116
 243	1	1	-0.00458	-70.9187	91.3483	42.8406
 244	1	2	0.169279	-70.1047	92.4424	39.6864
 245	1	2	0.169448	-70.0449	89.5876	43.7737
 246	1	1	-0.039038	-62.0713	89.8455	41.706
 247	1	1	-0.435237	-61.3288	88.6609	41.8704
 248	1	1	0.120439	-62.1288	90.4666	40.4475
 249	1	1	0.323935	-60.6575	88.0759	40.7768
 250	1	1	-0.012898	-61.4068	89.9351	39.3681
 251	1	2	0.208311	-61.3113	88.158	42.8341
 252	1	1	-0.466417	-60.7	88.7303	39.528
 253	1	3	-0.302302	-63.0343	91.4737	40.2249
 254	1	2	0.13972	-61.4552	90.4249	38.3986
 255	1	2	0.217142	-60.1911	88.2809	38.6766
 256	1	2	0.144775	-62.6457	90.2582	42.5321
 257	1	2	0.161927	-64.9603	93.2285	40.3788
 258	1	2	0.152343	-67.3994	92.7605	40.1035
 259	1	4	1.02665	-66.7383	87.9643	39.0558
 260	1	5	-0.487155	-67.4979	87.3368	40.1365
 261	1	5	-0.529829	-67.2545	87.9523	37.6882
 262	1	6	-0.538439	-65.3796	87.0965	38.9044
 263	1	7	0.447385	-65.511	86.8192	37.9634
 264	1	2	0.176748	-71.5197	93.0564	41.6502
 265	1	8	0.492969	-71.7235	91.7869	44.0425
 266	1	5	-0.49751	-71.8247	92.9827	44.2844
 267	1	1	0.228748	-66.9383	81.7641	37.6321
 268	1	1	-0.221817	-66.1022	81.0425	38.4908
 269	1	1	-0.090782	-66.4208	82.8516	36.9019
 270	1	2	0.148235	-67.0615	83.3851	36.2034
 271	1	1	-0.079307	-64.7535	81.3988	38.6226
 272	1	1	-0.073979	-65.0609	83.2191	37.0215
 273	1	1	0.031918	-64.2307	82.4798	37.8985
 274	1	3	-0.235323	-62.8793	82.6784	38.0035
 275	1	1	0.139602	-62.252	83.5997	38.8086
 276	1	1	-0.107898	-62.9456	84.6663	39.4039
 277	1	1	-0.094745	-60.8585	83.5121	38.9405
 278	1	1	-0.163657	-62.2352	85.6674	40.0854
 279	1	1	-0.253044	-60.1512	84.4917	39.6576
 280	1	2	0.134377	-64.0229	84.749	39.3004
 281	1	1	-0.00458	-60.8284	85.5957	40.2098
 282	1	2	0.169279	-60.3272	82.6977	38.4557
 283	1	2	0.169448	-62.7892	86.5033	40.5058
 284	1	1	-0.039038	-70.1442	81.2935	36.068
 285	1	1	-0.435237	-71.2909	81.9278	35.5656
 286	1	1	0.120439	-69.2938	81.9732	36.9513
 287	1	1	0.323935	-71.625	83.2451	35.9412
 288	1	1	-0.012898	-69.6202	83.2772	37.3632
 289	1	2	0.208311	-71.9387	81.3937	34.8733
 290	1	1	-0.466417	-70.7763	83.9071	36.8609
 291	1	3	-0.302302	-68.2196	81.2906	37.4707
 292	1	2	0.13972	-68.9964	83.7848	38.0959
 293	1	2	0.217142	-71.0378	84.8973	37.2258
 294	1	2	0.144775	-69.9151	80.2715	35.7815
 295	1	2	0.161927	-66.4992	80.1893	39.033
 296	1	2	0.152343	-64.0952	80.8214	39.2675
 297	1	4	1.02665	-64.5132	84.6306	36.0266
 298	1	5	-0.487155	-64.6591	84.2295	34.6319
 299	1	5	-0.529829	-65.1691	85.8288	36.5573
 300	1	6	-0.538439	-62.9149	84.838	36.2069
 301	1	7	0.447385	-62.5863	83.9146	36.1427
 302	1	2	0.176748	-59.066	84.4359	39.7317
 303	1	8	0.492969	-60.0557	86.6977	40.8893
 304	1	5	-0.49751	-59.0836	86.4631	41.5944
 305	1	1	0.228748	-71.4936	92.4692	36.4672
 306	1	1	-0.221817	-72.2717	91.6157	37.2625
 307	1	1	-0.090782	-71.5119	92.3452	35.0695
 308	1	2	0.148235	-70.8713	92.9865	34.4692
 309	1	1	-0.079307	-73.0543	90.6193	36.655
 310	1	1	-0.073979	-72.2825	91.3418	34.4546
 311	1	1	0.031918	-73.0422	90.4671	35.2569
 312	1	3	-0.235323	-73.7705	89.4505	34.6925
 313	1	1	0.139602	-73.5149	88.1272	34.9582
 314	1	1	-0.107898	-74.5899	87.2803	35.2538
 315	1	1	-0.094745	-72.2149	87.6009	34.8709
 316	1	1	-0.163657	-74.3756	85.905	35.4296
 317	1	1	-0.253044	-71.9943	86.2256	35.0727
 318	1	2	0.134377	-75.5954	87.6864	35.3097
 319	1	1	-0.00458	-73.0778	85.3593	35.3472
 320	1	2	0.169279	-71.3885	88.253	34.5994
 321	1	2	0.169448	-75.2301	85.2531	35.6081
 322	1	1	-0.039038	-68.2743	94.04	36.9823
 323	1	1	-0.435237	-66.9016	93.7577	36.8214
 324	1	1	0.120439	-69.2194	93.0034	36.9254
 325	1	1	0.323935	-66.4497	92.4412	36.5842
 326	1	1	-0.012898	-68.7781	91.6823	36.7237
 327	1	2	0.208311	-66.1724	94.5639	36.8638
 328	1	1	-0.466417	-67.4147	91.4106	36.5451
 329	1	3	-0.302302	-70.5633	93.2862	37.0589
 330	1	2	0.13972	-69.4859	90.8567	36.7149
 331	1	2	0.217142	-67.1067	90.3754	36.4146
 332	1	2	0.144775	-68.6134	95.0605	37.139
 333	1	2	0.161927	-72.2282	91.6965	38.3441
 334	1	2	0.152343	-73.6459	89.9403	37.264
 335	1	4	1.02665	-72.1399	91.116	32.6738
 336	1	5	-0.487155	-71.4785	92.2406	32.0135
 337	1	5	-0.529829	-71.6817	89.7505	32.4451
 338	1	6	-0.538439	-73.6611	91.0337	32.1253
 339	1	7	0.447385	-73.6547	90.0814	31.8712
 340	1	2	0.176748	-70.9902	85.8288	34.9402
 341	1	8	0.492969	-72.9135	83.8603	35.4276
 342	1	5	-0.49751	-73.8357	83.144	35.0542
 343	1	1	0.228748	-67.7071	85.4865	31.8952
 344	1	1	-0.221817	-67.8232	86.1903	33.1046
 345	1	1	-0.090782	-66.4547	85.3242	31.2928
 346	1	2	0.148235	-66.3845	84.7602	30.3663
 347	1	1	-0.079307	-66.6826	86.7606	33.691
 348	1	1	-0.073979	-65.3051	85.8821	31.8818
 349	1	1	0.031918	-65.4257	86.6336	33.0651
 350	1	3	-0.235323	-64.3086	87.2013	33.638
 351	1	1	0.139602	-64.3478	88.4458	34.2236
 352	1	1	-0.107898	-63.6413	88.6795	35.4139
 353	1	1	-0.094745	-65.145	89.4634	33.671
 354	1	1	-0.163657	-63.7908	89.9067	36.0875
 355	1	1	-0.253044	-65.3124	90.6765	34.3538
 356	1	2	0.134377	-63.0149	87.8934	35.8286
 357	1	1	-0.00458	-64.6624	90.8945	35.5862
 358	1	2	0.169279	-65.6695	89.2919	32.7346
 359	1	2	0.169448	-63.2776	90.0744	37.0289
 360	1	1	-0.039038	-70.2838	86.674	30.6624
 361	1	1	-0.435237	-71.5762	87.2315	30.6712
 362	1	1	0.120439	-70.0433	85.4607	31.3211
 363	1	1	0.323935	-72.6503	86.5937	31.3339
 364	1	1	-0.012898	-71.0868	84.8207	32.0019
 365	1	2	0.208311	-71.7442	88.1914	30.1899
 366	1	1	-0.466417	-72.3758	85.3803	32.0022
 367	1	3	-0.302302	-68.7933	84.895	31.307
 368	1	2	0.13972	-70.8919	83.9063	32.5522
 369	1	2	0.217142	-73.1479	84.877	32.5763
 370	1	2	0.144775	-69.4687	87.1841	30.1539
 371	1	2	0.161927	-68.7898	86.2882	33.5901
 372	1	2	0.152343	-66.7688	87.2918	34.6374
 373	1	4	1.02665	-63.6981	85.5593	31.1483
 374	1	5	-0.487155	-63.8629	84.5363	30.1172
 375	1	5	-0.529829	-62.9993	86.8278	30.9655
 376	1	6	-0.538439	-62.9543	84.838	32.3959
 377	1	7	0.447385	-63.5373	85.1194	33.1267
 378	1	2	0.176748	-65.9768	91.4336	33.9396
 379	1	8	0.492969	-64.9772	92.1274	36.3909
 380	1	5	-0.49751	-64.098	92.7378	36.9844
 381	1	1	0.228748	-79.9683	80.5509	32.4718
 382	1	1	-0.221817	-80.4318	81.6977	31.8115
 383	1	1	-0.090782	-78.9727	80.6504	33.4535
 384	1	2	0.148235	-78.6139	79.7487	33.9447
 385	1	1	-0.079307	-79.8985	82.954	32.1417
 386	1	1	-0.073979	-78.4299	81.9059	33.7889
 387	1	1	0.031918	-78.896	83.0593	33.1202
 388	1	3	-0.235323	-78.4523	84.3135	33.4497
 389	1	1	0.139602	-77.4226	84.9865	32.8309
 390	1	1	-0.107898	-77.305	86.3571	33.0885
 391	1	1	-0.094745	-76.4854	84.3521	31.9932
 392	1	1	-0.163657	-76.2319	87.0917	32.5573
 393	1	1	-0.253044	-75.4033	85.0879	31.4682
 394	1	2	0.134377	-78.0381	86.8438	33.7261
 395	1	1	-0.00458	-75.2341	86.4528	31.7916
 396	1	2	0.169279	-76.5719	83.2908	31.7754
 397	1	2	0.169448	-76.1412	88.15	32.7889
 398	1	1	-0.039038	-78.9919	79.1361	30.1666
 399	1	1	-0.435237	-78.5756	78.4025	29.0429
 400	1	1	0.120439	-80.0305	78.6493	30.9837
 401	1	1	0.323935	-79.16	77.1556	28.7252
 402	1	1	-0.012898	-80.6624	77.4441	30.6437
 403	1	2	0.208311	-77.7923	78.8128	28.4107
 404	1	1	-0.466417	-80.2354	76.71	29.5218
 405	1	3	-0.302302	-80.4472	79.3183	32.1141
 406	1	2	0.13972	-81.4744	77.0744	31.2648
 407	1	2	0.217142	-80.7296	75.7711	29.2731
 408	1	2	0.144775	-78.5011	80.0785	30.3959
 409	1	2	0.161927	-81.201	81.6049	31.0502
 410	1	2	0.152343	-80.2592	83.8511	31.6441
 411	1	4	1.02665	-77.0868	81.9513	34.9899
 412	1	5	-0.487155	-76.8611	83.262	35.5943
 413	1	5	-0.529829	-76.9942	80.7274	35.7838
 414	1	6	-0.538439	-75.8276	81.819	33.9861
 415	1	7	0.447385	-75.1866	82.3714	34.5046
 416	1	2	0.176748	-74.6822	84.5741	30.8337
 417	1	8	0.492969	-74.0227	87.2592	31.3641
 418	1	5	-0.49751	-74.1252	88.4717	31.2323
 419	1	1	0.228748	-70.3687	79.3355	26.9616
 420	1	1	-0.221817	-71.5567	79.6577	26.2925
 421	1	1	-0.090782	-70.1046	78.0142	27.346
 422	1	2	0.148235	-69.1665	77.7799	27.8417
 423	1	1	-0.079307	-72.4986	78.6519	26.0168
 424	1	1	-0.073979	-71.0281	76.9974	27.0428
 425	1	1	0.031918	-72.2335	77.3218	26.389
 426	1	3	-0.235323	-73.1369	76.3371	26.0727
 427	1	1	0.139602	-74.4593	76.3794	26.4458
 428	1	1	-0.107898	-74.8328	76.7454	27.7493
 429	1	1	-0.094745	-75.4383	75.9717	25.531
 430	1	1	-0.163657	-76.1867	76.7151	28.1269
 431	1	1	-0.253044	-76.7931	75.955	25.9048
 432	1	2	0.134377	-74.0722	77.0319	28.4701
 433	1	1	-0.00458	-77.1908	76.3467	27.2001
 434	1	2	0.169279	-75.14	75.6457	24.538
 435	1	2	0.169448	-76.4434	76.9694	29.1511
 436	1	1	-0.039038	-67.8622	80.3926	28.9934
 437	1	1	-0.435237	-67.5239	80.8131	30.2894
 438	1	1	0.120439	-69.1257	80.6872	28.47
 439	1	1	0.323935	-68.4388	81.5425	31.0882
 440	1	1	-0.012898	-70.067	81.3662	29.2545
 441	1	2	0.208311	-66.5442	80.5363	30.6626
 442	1	1	-0.466417	-69.7299	81.7678	30.5586
 443	1	3	-0.302302	-69.4377	80.3085	27.1942
 444	1	2	0.13972	-71.049	81.5853	28.8424
 445	1	2	0.217142	-70.4627	82.2938	31.1601
 446	1	2	0.144775	-67.1518	79.8252	28.3993
 447	1	2	0.161927	-71.7296	80.6823	25.9754
 448	1	2	0.152343	-73.4182	78.8948	25.4895
 449	1	4	1.02665	-70.6391	75.3063	27.5007
 450	1	5	-0.487155	-70.9118	74.4158	26.3711
 451	1	5	-0.529829	-69.3962	75.2032	28.2597
 452	1	6	-0.538439	-71.842	74.942	28.5316
 453	1	7	0.447385	-72.453	74.4961	27.8927
 454	1	2	0.176748	-77.541	75.6199	25.1882
 455	1	8	0.492969	-78.6615	76.3092	27.5677
 456	1	5	-0.49751	-79.4181	75.5463	26.9817
 457	1	1	0.228748	-59.9584	79.6474	31.5191
 458	1	1	-0.221817	-61.2234	79.0301	31.4555
 459	1	1	-0.090782	-59.7037	80.592	32.5266
 460	1	2	0.148235	-58.7449	81.1015	32.5481
 461	1	1	-0.079307	-62.1956	79.3081	32.4275
 462	1	1	-0.073979	-60.6947	80.9136	33.477
 463	1	1	0.031918	-61.9327	80.2477	33.4374
 464	1	3	-0.235323	-62.9207	80.5488	34.3409
 465	1	1	0.139602	-64.155	80.9873	33.9361
 466	1	1	-0.107898	-65.2887	80.6065	34.6654
 467	1	1	-0.094745	-64.2909	81.7791	32.7838
 468	1	1	-0.163657	-66.5671	80.9734	34.2134
 469	1	1	-0.253044	-65.5673	82.1388	32.3282
 470	1	2	0.134377	-65.172	80.0153	35.5691
 471	1	1	-0.00458	-66.7181	81.712	33.0223
 472	1	2	0.169279	-63.4071	82.1121	32.245
 473	1	2	0.169448	-67.4452	80.6635	34.775
 474	1	1	-0.039038	-59.2847	77.0339	30.1271
 475	1	1	-0.435237	-59.4433	75.998	29.1908
 476	1	1	0.120439	-59.0012	78.3408	29.6953
 477	1	1	0.323935	-59.2758	76.2271	27.8032
 478	1	1	-0.012898	-58.7914	78.5796	28.3291
 479	1	2	0.208311	-59.7427	75.02	29.5591
 480	1	1	-0.466417	-58.9303	77.5341	27.3961
 481	1	3	-0.302302	-58.9729	79.3939	30.5858
 482	1	2	0.13972	-58.5494	79.5822	27.9924
 483	1	2	0.217142	-58.798	77.7392	26.3359
 484	1	2	0.144775	-59.4353	76.8369	31.1855
 485	1	2	0.161927	-61.4655	78.3402	30.6539
 486	1	2	0.152343	-63.1654	78.8181	32.3832
 487	1	4	1.02665	-60.4035	82.2713	34.6214
 488	1	5	-0.487155	-61.4486	82.5357	35.6066
 489	1	5	-0.529829	-58.996	82.3914	35.0143
 490	1	6	-0.538439	-60.5706	83.5288	33.633
 491	1	7	0.447385	-60.3097	84.245	34.2638
 492	1	2	0.176748	-65.6568	82.7293	31.4204
 493	1	8	0.492969	-68.0967	82.008	32.4973
 494	1	5	-0.49751	-68.973	82.3343	33.2866
 495	1	1	0.228748	-64.9069	70.6067	30.6488
 496	1	1	-0.221817	-64.5709	69.6331	29.6975
 497	1	1	-0.090782	-63.9012	71.3721	31.2584
 498	1	2	0.148235	-64.1827	72.1269	31.9869
 499	1	1	-0.079307	-63.2309	69.4792	29.3025
 500	1	1	-0.073979	-62.5568	71.2254	30.8715
 501	1	1	0.031918	-62.2313	70.2925	29.862
 502	1	3	-0.235323	-60.9847	70.2728	29.2838
 503	1	1	0.139602	-60.5727	71.3389	28.5157
 504	1	1	-0.107898	-61.4716	71.9951	27.6547
 505	1	1	-0.094745	-59.2794	71.8505	28.6955
 506	1	1	-0.163657	-61.0984	73.1961	27.0307
 507	1	1	-0.253044	-58.909	73.0609	28.0838
 508	1	2	0.134377	-62.4738	71.6019	27.5078
 509	1	1	-0.00458	-59.833	73.7608	27.2785
 510	1	2	0.169279	-58.5987	71.346	29.3769
 511	1	2	0.169448	-61.8146	73.7247	26.4056
 512	1	1	-0.039038	-66.0449	73.0958	29.7836
 513	1	1	-0.435237	-66.4096	74.4493	29.7276
 514	1	1	0.120439	-66.6568	72.2365	30.7162
 515	1	1	0.323935	-67.4057	74.9844	30.5724
 516	1	1	-0.012898	-67.6802	72.7352	31.5372
 517	1	2	0.208311	-65.9098	75.1081	29.0211
 518	1	1	-0.466417	-68.0482	74.0957	31.4707
 519	1	3	-0.302302	-66.2258	70.9318	30.8662
 520	1	2	0.13972	-68.1603	72.0683	32.2494
 521	1	2	0.217142	-68.8132	74.4636	32.1461
 522	1	2	0.144775	-65.2654	72.7249	29.122
 523	1	2	0.161927	-65.3505	69.0524	29.2136
 524	1	2	0.152343	-62.9727	68.7883	28.5038
 525	1	4	1.02665	-61.3253	72.3286	31.5946
 526	1	5	-0.487155	-59.9616	71.8162	31.6977
 527	1	5	-0.529829	-61.5824	73.6886	31.1286
 528	1	6	-0.538439	-61.8541	72.6227	33.0851
 529	1	7	0.447385	-61.944	73.5696	32.8777
 530	1	2	0.176748	-57.9255	73.4836	28.2831
 531	1	8	0.492969	-59.5266	75.1413	26.7658
 532	1	5	-0.49751	-59.7974	75.4272	25.6056
 533	1	1	0.228748	-75.8044	77.7546	33.7725
 534	1	1	-0.221817	-74.7598	77.1883	34.515
 535	1	1	-0.090782	-75.5555	78.8205	32.8944
 536	1	2	0.148235	-76.3811	79.2512	32.3346
 537	1	1	-0.079307	-73.4519	77.676	34.3609
 538	1	1	-0.073979	-74.2474	79.3222	32.7386
 539	1	1	0.031918	-73.1936	78.7251	33.4611
 540	1	3	-0.235323	-71.9011	79.1536	33.2943
 541	1	1	0.139602	-70.9118	78.4151	32.6829
 542	1	1	-0.107898	-69.593	78.862	32.8173
 543	1	1	-0.094745	-71.1825	77.2818	31.8911
 544	1	1	-0.163657	-68.5496	78.2092	32.1422
 545	1	1	-0.253044	-70.1325	76.6109	31.2344
 546	1	2	0.134377	-69.3953	79.7379	33.4238
 547	1	1	-0.00458	-68.8054	77.0795	31.3404
 548	1	2	0.169279	-72.2047	76.9406	31.7571
 549	1	2	0.169448	-67.5345	78.5946	32.2178
 550	1	1	-0.039038	-78.8131	75.7473	33.143
 551	1	1	-0.435237	-79.3246	74.7843	32.2532
 552	1	1	0.120439	-77.5176	76.2517	32.9686
 553	1	1	0.323935	-78.5642	74.3073	31.1629
 554	1	1	-0.012898	-76.7367	75.7786	31.8952
 555	1	2	0.208311	-80.3403	74.4181	32.3859
 556	1	1	-0.466417	-77.258	74.8262	30.9992
 557	1	3	-0.302302	-77.059	77.2086	33.8502
 558	1	2	0.13972	-75.7309	76.1574	31.7406
 559	1	2	0.217142	-76.6514	74.5149	30.1535
 560	1	2	0.144775	-79.4218	76.1186	33.964
 561	1	2	0.161927	-74.97	76.3709	35.1992
 562	1	2	0.152343	-72.6363	77.2401	34.9318
 563	1	4	1.02665	-73.9564	80.6849	31.5895
 564	1	5	-0.487155	-75.1476	81.0823	30.8365
 565	1	5	-0.529829	-73.0196	81.653	32.1562
 566	1	6	-0.538439	-72.9252	80.0352	30.5341
 567	1	7	0.447385	-72.1607	80.4711	30.9542
 568	1	2	0.176748	-70.3579	75.7548	30.6018
 569	1	8	0.492969	-67.6735	76.4842	30.5369
 570	1	5	-0.49751	-66.855	77.2494	30.0365
 571	1	1	0.228748	-72.1089	69.1246	26.8966
 572	1	1	-0.221817	-73.2007	68.2579	27.0504
 573	1	1	-0.090782	-72.3303	70.4715	26.553
 574	1	2	0.148235	-71.4931	71.1539	26.4512
 575	1	1	-0.079307	-74.5103	68.7314	26.857
 576	1	1	-0.073979	-73.6359	70.944	26.3217
 577	1	1	0.031918	-74.7266	70.0719	26.4998
 578	1	3	-0.235323	-76.0159	70.5078	26.3354
 579	1	1	0.139602	-76.7251	71.2067	27.2889
 580	1	1	-0.107898	-76.298	71.3074	28.6274
 581	1	1	-0.094745	-77.931	71.8055	26.9026
 582	1	1	-0.163657	-77.0831	71.9997	29.5696
 583	1	1	-0.253044	-78.7182	72.4896	27.844
 584	1	2	0.134377	-75.3703	70.8387	28.9419
 585	1	1	-0.00458	-78.3001	72.6061	29.1846
 586	1	2	0.169279	-78.2516	71.7327	25.8668
 587	1	2	0.169448	-76.7536	72.0451	30.6051
 588	1	1	-0.039038	-69.3884	69.7795	25.5481
 589	1	1	-0.435237	-68.2272	70.5444	25.3214
 590	1	1	0.120439	-69.6849	69.3148	26.8429
 591	1	1	0.323935	-67.3269	70.8189	26.3742
 592	1	1	-0.012898	-68.7964	69.576	27.8946
 593	1	2	0.208311	-68.0114	70.9082	24.3199
 594	1	1	-0.466417	-67.628	70.3178	27.6552
 595	1	3	-0.302302	-70.8434	68.6219	27.1056
 596	1	2	0.13972	-69.0242	69.213	28.8937
 597	1	2	0.217142	-66.9519	70.5331	28.4724
 598	1	2	0.144775	-70.0693	69.5574	24.7286
 599	1	2	0.161927	-73.0256	67.2197	27.319
 600	1	2	0.152343	-75.3616	68.0656	26.9794
 601	1	4	1.02665	-73.8684	72.6607	25.8315
 602	1	5	-0.487155	-75.0869	72.9525	25.0822
 603	1	5	-0.529829	-73.4677	73.4727	26.9827
 604	1	6	-0.538439	-72.6187	72.9492	24.8382
 605	1	7	0.447385	-72.1138	73.5637	25.4172
 606	1	2	0.176748	-79.6575	72.9424	27.5293
 607	1	8	0.492969	-79.1827	73.3254	30.1782
 608	1	5	-0.49751	-80.3994	73.2038	30.1058
 609	1	1	0.228748	-64.989	80.0947	26.5512
 610	1	1	-0.221817	-64.2538	78.898	26.4946
 611	1	1	-0.090782	-66.1823	80.2143	25.8204
 612	1	2	0.148235	-66.764	81.1306	25.8908
 613	1	1	-0.079307	-64.691	77.8391	25.6843
 614	1	1	-0.073979	-66.6351	79.1479	25.0169
 615	1	1	0.031918	-65.8796	77.9595	24.9411
 616	1	3	-0.235323	-66.2916	76.9273	24.1256
 617	1	1	0.139602	-66.2719	75.6206	24.5439
 618	1	1	-0.107898	-65.1674	74.8048	24.2556
 619	1	1	-0.094745	-67.3453	75.1152	25.2912
 620	1	1	-0.163657	-65.1138	73.4957	24.7647
 621	1	1	-0.253044	-67.3065	73.7962	25.7765
 622	1	2	0.134377	-64.3441	75.2021	23.6679
 623	1	1	-0.00458	-66.1802	72.9801	25.5297
 624	1	2	0.169279	-68.194	75.7591	25.5062
 625	1	2	0.169448	-64.2385	72.8775	24.5738
 626	1	1	-0.039038	-62.2446	81.341	26.786
 627	1	1	-0.435237	-60.9314	81.6647	27.1768
 628	1	1	0.120439	-63.2922	81.4018	27.7216
 629	1	1	0.323935	-60.6375	82.0826	28.4928
 630	1	1	-0.012898	-63.0117	81.7822	29.0411
 631	1	2	0.208311	-60.1277	81.6245	26.4456
 632	1	1	-0.466417	-61.6979	82.1094	29.4264
 633	1	3	-0.302302	-64.5974	81.1314	27.3681
 634	1	2	0.13972	-63.8262	81.8451	29.7561
 635	1	2	0.217142	-61.5133	82.4114	30.4535
 636	1	2	0.144775	-62.4546	81.0628	25.7559
 637	1	2	0.161927	-63.347	78.7852	27.082
 638	1	2	0.152343	-64.1049	76.9271	25.6347
 639	1	4	1.02665	-68.1947	79.2919	24.1279
 640	1	5	-0.487155	-68.7963	80.6221	24.1822
 641	1	5	-0.529829	-68.9575	78.0687	24.3668
 642	1	6	-0.538439	-67.7725	79.0002	22.6012
 643	1	7	0.447385	-67.9539	78.0499	22.6846
 644	1	2	0.176748	-68.1318	73.4351	26.3888
 645	1	8	0.492969	-66.0594	71.6122	26.1461
 646	1	5	-0.49751	-64.9896	71.2559	26.6254
 647	1	1	0.228748	-54.6321	86.1453	35.2986
 648	1	1	-0.221817	-54.6883	86.4332	33.9283
 649	1	1	-0.090782	-55.8022	85.8507	36.011
 650	1	2	0.148235	-55.7401	85.6566	37.0787
 651	1	1	-0.079307	-55.9221	86.3994	33.2621
 652	1	1	-0.073979	-57.0486	85.8229	35.3541
 653	1	1	0.031918	-57.0967	86.0733	33.9648
 654	1	3	-0.235323	-58.2765	86.0029	33.2664
 655	1	1	0.139602	-58.4711	85.1587	32.1932
 656	1	1	-0.107898	-59.5734	85.3795	31.3527
 657	1	1	-0.094745	-57.6255	84.0573	31.9547