

################################################################################
##################################    Init    ##################################
################################################################################
units           real
atom_style      full
pair_style      lj/cut/coul/long 12.0  12.0
kspace_style    pppm 1e-4
bond_style      harmonic
angle_style     harmonic
dihedral_style  fourier
improper_style  cvff
special_bonds   amber
pair_modify     mix arithmetic
read_data       temp.lmps
  orthogonal box = (-91.4513 -91.4513 -91.4513) to (91.4513 91.4513 91.4513)
  1 by 1 by 1 MPI processor grid
  reading atoms ...
  76 atoms
  reading velocities ...
  76 velocities
  scanning bonds ...
  3 = max bonds/atom
  scanning angles ...
  6 = max angles/atom
  scanning dihedrals ...
  10 = max dihedrals/atom
  scanning impropers ...
  2 = max impropers/atom
  reading bonds ...
  81 bonds
  reading angles ...
  128 angles
  reading dihedrals ...
  184 dihedrals
  reading impropers ...
  22 impropers
  4 = max # of 1-2 neighbors
  7 = max # of 1-3 neighbors
  14 = max # of 1-4 neighbors
  16 = max # of special neighbors
  special bonds CPU = 0.00030899 secs
  read_data CPU = 0.00496721 secs
################################################################################

timestep        1
fix             pysimm_md all nve/limit 0.1
run             2000
PPPM initialization ...
WARNING: System is not charge neutral, net charge = -1.2e-05 (../kspace.cpp:313)
  using 12-bit tables for long-range coulomb (../kspace.cpp:332)
  G vector (1/distance) = 0.0923719
  grid = 15 15 15
  stencil order = 5
  estimated absolute RMS force accuracy = 0.0278939
  estimated relative force accuracy = 8.40015e-05
  using double precision KISS FFT
  3d grid and FFT values/proc = 8000 3375
Neighbor list info ...
  update every 1 steps, delay 10 steps, check yes
  max neighbors/atom: 2000, page size: 100000
  master list distance cutoff = 14
  ghost atom cutoff = 14
  binsize = 7, bins = 27 27 27
  1 neighbor lists, perpetual/occasional/extra = 1 0 0
  (1) pair lj/cut/coul/long, perpetual
      attributes: half, newton on
      pair build: half/bin/newton
      stencil: half/bin/3d/newton
      bin: standard
Per MPI rank memory allocation (min/avg/max) = 13.68 | 13.68 | 13.68 Mbytes
Step Temp E_pair E_mol TotEng Press 
       0   0.40501178    15.971616    256.24599    272.30815    1.0119091 
    2000    5199.2756    -2111.928    1238.8632    289.28908   -9.0663303 
Loop time of 1.46951 on 1 procs for 2000 steps with 76 atoms

Performance: 117.591 ns/day, 0.204 hours/ns, 1361.002 timesteps/s
99.7% CPU use with 1 MPI tasks x no OpenMP threads

MPI task timing breakdown:
Section |  min time  |  avg time  |  max time  |%varavg| %total
---------------------------------------------------------------
Pair    | 0.091993   | 0.091993   | 0.091993   |   0.0 |  6.26
Bond    | 0.051237   | 0.051237   | 0.051237   |   0.0 |  3.49
Kspace  | 1.3102     | 1.3102     | 1.3102     |   0.0 | 89.16
Neigh   | 0.011171   | 0.011171   | 0.011171   |   0.0 |  0.76
Comm    | 0.00079846 | 0.00079846 | 0.00079846 |   0.0 |  0.05
Output  | 3.0041e-05 | 3.0041e-05 | 3.0041e-05 |   0.0 |  0.00
Modify  | 0.0024173  | 0.0024173  | 0.0024173  |   0.0 |  0.16
Other   |            | 0.001659   |            |       |  0.11

Nlocal:    76 ave 76 max 76 min
Histogram: 1 0 0 0 0 0 0 0 0 0
Nghost:    0 ave 0 max 0 min
Histogram: 1 0 0 0 0 0 0 0 0 0
Neighs:    2092 ave 2092 max 2092 min
Histogram: 1 0 0 0 0 0 0 0 0 0

Total # of neighbors = 2092
Ave neighs/atom = 27.5263
Ave special neighs/atom = 9.86842
Neighbor list builds = 108
Dangerous builds = 0
unfix pysimm_md
min_style cg
minimize 0.001 0.001 10000 100000
WARNING: Using 'neigh_modify every 1 delay 0 check yes' setting during minimization (../min.cpp:190)
PPPM initialization ...
  using 12-bit tables for long-range coulomb (../kspace.cpp:332)
  G vector (1/distance) = 0.0923719
  grid = 15 15 15
  stencil order = 5
  estimated absolute RMS force accuracy = 0.0278939
  estimated relative force accuracy = 8.40015e-05
  using double precision KISS FFT
  3d grid and FFT values/proc = 8000 3375
Per MPI rank memory allocation (min/avg/max) = 14.8 | 14.8 | 14.8 Mbytes
Step Temp E_pair E_mol TotEng Press 
    2000    5199.2756    -2111.928    1238.8632    289.28908   -9.0663303 
    2023    5199.2756 -8.955764e+15    1234.8512 -8.955764e+15 -3.5748852e+13 
Loop time of 0.381898 on 1 procs for 23 steps with 76 atoms

99.8% CPU use with 1 MPI tasks x no OpenMP threads

Minimization stats:
  Stopping criterion = quadratic factors are zero
  Energy initial, next-to-last, final = 
        -873.064895645 -8.95576399752e+15 -8.95576399752e+15
  Force two-norm initial, final = 48918.1 1.72927e+30
  Force max component initial, final = 26075.7 1.18627e+30
  Final line search alpha, max atom move = 1.23625e-46 1.46653e-16
  Iterations, force evaluations = 23 527

MPI task timing breakdown:
Section |  min time  |  avg time  |  max time  |%varavg| %total
---------------------------------------------------------------
Pair    | 0.042408   | 0.042408   | 0.042408   |   0.0 | 11.10
Bond    | 0.014655   | 0.014655   | 0.014655   |   0.0 |  3.84
Kspace  | 0.32349    | 0.32349    | 0.32349    |   0.0 | 84.71
Neigh   | 0          | 0          | 0          |   0.0 |  0.00
Comm    | 0.000103   | 0.000103   | 0.000103   |   0.0 |  0.03
Output  | 0          | 0          | 0          |   0.0 |  0.00
Modify  | 0          | 0          | 0          |   0.0 |  0.00
Other   |            | 0.00124    |            |       |  0.32

Nlocal:    76 ave 76 max 76 min
Histogram: 1 0 0 0 0 0 0 0 0 0
Nghost:    0 ave 0 max 0 min
Histogram: 1 0 0 0 0 0 0 0 0 0
Neighs:    2086 ave 2086 max 2086 min
Histogram: 1 0 0 0 0 0 0 0 0 0

Total # of neighbors = 2086
Ave neighs/atom = 27.4474
Ave special neighs/atom = 9.86842
Neighbor list builds = 0
Dangerous builds = 0
write_dump all custom pysimm.dump.tmp id q x y z vx vy vz
quit


################################################################################
##################################    Init    ##################################
################################################################################
units           real
atom_style      full
pair_style      lj/cut/coul/long 12.0  12.0
kspace_style    pppm 1e-4
bond_style      harmonic
angle_style     harmonic
dihedral_style  fourier
improper_style  cvff
special_bonds   amber
pair_modify     mix arithmetic
read_data       temp.lmps
  orthogonal box = (-91.4513 -91.4513 -91.4513) to (91.4513 91.4513 91.4513)
  1 by 1 by 1 MPI processor grid
  reading atoms ...
  114 atoms
  reading velocities ...
  114 velocities
  scanning bonds ...
  3 = max bonds/atom
  scanning angles ...
  6 = max angles/atom
  scanning dihedrals ...
  10 = max dihedrals/atom
  scanning impropers ...
  2 = max impropers/atom
  reading bonds ...
  122 bonds
  reading angles ...
  194 angles
  reading dihedrals ...
  281 dihedrals
  reading impropers ...
  33 impropers
  4 = max # of 1-2 neighbors
  7 = max # of 1-3 neighbors
  14 = max # of 1-4 neighbors
  16 = max # of special neighbors
  special bonds CPU = 0.000340939 secs
  read_data CPU = 0.00519896 secs
################################################################################

timestep        1
fix             pysimm_md all nve/limit 0.1
run             2000
PPPM initialization ...
WARNING: System is not charge neutral, net charge = -1.8e-05 (../kspace.cpp:313)
  using 12-bit tables for long-range coulomb (../kspace.cpp:332)
  G vector (1/distance) = 0.0923719
  grid = 15 15 15
  stencil order = 5
  estimated absolute RMS force accuracy = 0.0341629
  estimated relative force accuracy = 0.00010288
  using double precision KISS FFT
  3d grid and FFT values/proc = 8000 3375
Neighbor list info ...
  update every 1 steps, delay 10 steps, check yes
  max neighbors/atom: 2000, page size: 100000
  master list distance cutoff = 14
  ghost atom cutoff = 14
  binsize = 7, bins = 27 27 27
  1 neighbor lists, perpetual/occasional/extra = 1 0 0
  (1) pair lj/cut/coul/long, perpetual
      attributes: half, newton on
      pair build: half/bin/newton
      stencil: half/bin/3d/newton
      bin: standard
Per MPI rank memory allocation (min/avg/max) = 13.68 | 13.68 | 13.68 Mbytes
Step Temp E_pair E_mol TotEng Press 
       0    3450.9806         -nan    1789.4209         -nan         -nan 
ERROR on proc 0: Out of range atoms - cannot compute PPPM (../pppm.cpp:1940)
Last command: run             2000


################################################################################
##################################    Init    ##################################
################################################################################
units           real
atom_style      full
pair_style      lj/cut/coul/long 12.0  12.0
kspace_style    pppm 1e-4
bond_style      harmonic
angle_style     harmonic
dihedral_style  fourier
improper_style  cvff
special_bonds   amber
pair_modify     mix arithmetic
read_data       temp.lmps
  orthogonal box = (-91.4513 -91.4513 -91.4513) to (91.4513 91.4513 91.4513)
  1 by 1 by 1 MPI processor grid
  reading atoms ...
  76 atoms
  reading velocities ...
  76 velocities
  scanning bonds ...
  3 = max bonds/atom
  scanning angles ...
  6 = max angles/atom
  scanning dihedrals ...
  10 = max dihedrals/atom
  scanning impropers ...
  2 = max impropers/atom
  reading bonds ...
  81 bonds
  reading angles ...
  128 angles
  reading dihedrals ...
  184 dihedrals
  reading impropers ...
  22 impropers
  4 = max # of 1-2 neighbors
  7 = max # of 1-3 neighbors
  14 = max # of 1-4 neighbors
  16 = max # of special neighbors
  special bonds CPU = 0.000319958 secs
  read_data CPU = 0.00500512 secs
################################################################################

timestep        1
fix             pysimm_md all nve/limit 0.1
run             2000
PPPM initialization ...
WARNING: System is not charge neutral, net charge = -1.2e-05 (../kspace.cpp:313)
  using 12-bit tables for long-range coulomb (../kspace.cpp:332)
  G vector (1/distance) = 0.0923719
  grid = 15 15 15
  stencil order = 5
  estimated absolute RMS force accuracy = 0.0278939
  estimated relative force accuracy = 8.40015e-05
  using double precision KISS FFT
  3d grid and FFT values/proc = 8000 3375
Neighbor list info ...
  update every 1 steps, delay 10 steps, check yes
  max neighbors/atom: 2000, page size: 100000
  master list distance cutoff = 14
  ghost atom cutoff = 14
  binsize = 7, bins = 27 27 27
  1 neighbor lists, perpetual/occasional/extra = 1 0 0
  (1) pair lj/cut/coul/long, perpetual
      attributes: half, newton on
      pair build: half/bin/newton
      stencil: half/bin/3d/newton
      bin: standard
Per MPI rank memory allocation (min/avg/max) = 13.68 | 13.68 | 13.68 Mbytes
Step Temp E_pair E_mol TotEng Press 
       0   0.40501178    15.998703    256.24599    272.33524    1.0116639 
    2000    2549.8193   -438.69774    684.35235    815.69415   -1.7844515 
Loop time of 1.46092 on 1 procs for 2000 steps with 76 atoms

Performance: 118.281 ns/day, 0.203 hours/ns, 1368.998 timesteps/s
99.8% CPU use with 1 MPI tasks x no OpenMP threads

MPI task timing breakdown:
Section |  min time  |  avg time  |  max time  |%varavg| %total
---------------------------------------------------------------
Pair    | 0.089037   | 0.089037   | 0.089037   |   0.0 |  6.09
Bond    | 0.051433   | 0.051433   | 0.051433   |   0.0 |  3.52
Kspace  | 1.3051     | 1.3051     | 1.3051     |   0.0 | 89.33
Neigh   | 0.010711   | 0.010711   | 0.010711   |   0.0 |  0.73
Comm    | 0.00074124 | 0.00074124 | 0.00074124 |   0.0 |  0.05
Output  | 2.8849e-05 | 2.8849e-05 | 2.8849e-05 |   0.0 |  0.00
Modify  | 0.0022237  | 0.0022237  | 0.0022237  |   0.0 |  0.15
Other   |            | 0.001691   |            |       |  0.12

Nlocal:    76 ave 76 max 76 min
Histogram: 1 0 0 0 0 0 0 0 0 0
Nghost:    0 ave 0 max 0 min
Histogram: 1 0 0 0 0 0 0 0 0 0
Neighs:    2146 ave 2146 max 2146 min
Histogram: 1 0 0 0 0 0 0 0 0 0

Total # of neighbors = 2146
Ave neighs/atom = 28.2368
Ave special neighs/atom = 9.86842
Neighbor list builds = 102
Dangerous builds = 0
unfix pysimm_md
min_style cg
minimize 0.001 0.001 10000 100000
WARNING: Using 'neigh_modify every 1 delay 0 check yes' setting during minimization (../min.cpp:190)
PPPM initialization ...
  using 12-bit tables for long-range coulomb (../kspace.cpp:332)
  G vector (1/distance) = 0.0923719
  grid = 15 15 15
  stencil order = 5
  estimated absolute RMS force accuracy = 0.0278939
  estimated relative force accuracy = 8.40015e-05
  using double precision KISS FFT
  3d grid and FFT values/proc = 8000 3375
Per MPI rank memory allocation (min/avg/max) = 14.8 | 14.8 | 14.8 Mbytes
Step Temp E_pair E_mol TotEng Press 
    2000    2549.8193   -438.69774    684.35235    815.69415   -1.7844515 
    2022    2549.8193 -4.1284032e+15    650.72874 -4.1284032e+15 -1.0514368e+13 
Loop time of 0.35812 on 1 procs for 22 steps with 76 atoms

99.8% CPU use with 1 MPI tasks x no OpenMP threads

Minimization stats:
  Stopping criterion = quadratic factors are zero
  Energy initial, next-to-last, final = 
         245.654612614 -4.12840321621e+15 -4.12840321621e+15
  Force two-norm initial, final = 4960.29 3.6747e+29
  Force max component initial, final = 3381.7 2.32408e+29
  Final line search alpha, max atom move = 6.1146e-45 1.42109e-15
  Iterations, force evaluations = 22 472

MPI task timing breakdown:
Section |  min time  |  avg time  |  max time  |%varavg| %total
---------------------------------------------------------------
Pair    | 0.038643   | 0.038643   | 0.038643   |   0.0 | 10.79
Bond    | 0.013251   | 0.013251   | 0.013251   |   0.0 |  3.70
Kspace  | 0.30499    | 0.30499    | 0.30499    |   0.0 | 85.17
Neigh   | 0          | 0          | 0          |   0.0 |  0.00
Comm    | 8.1062e-05 | 8.1062e-05 | 8.1062e-05 |   0.0 |  0.02
Output  | 0          | 0          | 0          |   0.0 |  0.00
Modify  | 0          | 0          | 0          |   0.0 |  0.00
Other   |            | 0.001151   |            |       |  0.32

Nlocal:    76 ave 76 max 76 min
Histogram: 1 0 0 0 0 0 0 0 0 0
Nghost:    0 ave 0 max 0 min
Histogram: 1 0 0 0 0 0 0 0 0 0
Neighs:    2147 ave 2147 max 2147 min
Histogram: 1 0 0 0 0 0 0 0 0 0

Total # of neighbors = 2147
Ave neighs/atom = 28.25
Ave special neighs/atom = 9.86842
Neighbor list builds = 0
Dangerous builds = 0
write_dump all custom pysimm.dump.tmp id q x y z vx vy vz
quit


################################################################################
##################################    Init    ##################################
################################################################################
units           real
atom_style      full
pair_style      lj/cut/coul/long 12.0  12.0
kspace_style    pppm 1e-4
bond_style      harmonic
angle_style     harmonic
dihedral_style  fourier
improper_style  cvff
special_bonds   amber
pair_modify     mix arithmetic
read_data       temp.lmps
  orthogonal box = (-91.4513 -91.4513 -91.4513) to (91.4513 91.4513 91.4513)
  1 by 1 by 1 MPI processor grid
  reading atoms ...
  114 atoms
  reading velocities ...
  114 velocities
  scanning bonds ...
  3 = max bonds/atom
  scanning angles ...
  6 = max angles/atom
  scanning dihedrals ...
  10 = max dihedrals/atom
  scanning impropers ...
  2 = max impropers/atom
  reading bonds ...
  122 bonds
  reading angles ...
  194 angles
  reading dihedrals ...
  281 dihedrals
  reading impropers ...
  33 impropers
  4 = max # of 1-2 neighbors
  7 = max # of 1-3 neighbors
  14 = max # of 1-4 neighbors
  16 = max # of special neighbors
  special bonds CPU = 0.000260115 secs
  read_data CPU = 0.00508714 secs
################################################################################

timestep        1
fix             pysimm_md all nve/limit 0.1
run             2000
PPPM initialization ...
WARNING: System is not charge neutral, net charge = -1.8e-05 (../kspace.cpp:313)
  using 12-bit tables for long-range coulomb (../kspace.cpp:332)
  G vector (1/distance) = 0.0923719
  grid = 15 15 15
  stencil order = 5
  estimated absolute RMS force accuracy = 0.0341629
  estimated relative force accuracy = 0.00010288
  using double precision KISS FFT
  3d grid and FFT values/proc = 8000 3375
Neighbor list info ...
  update every 1 steps, delay 10 steps, check yes
  max neighbors/atom: 2000, page size: 100000
  master list distance cutoff = 14
  ghost atom cutoff = 14
  binsize = 7, bins = 27 27 27
  1 neighbor lists, perpetual/occasional/extra = 1 0 0
  (1) pair lj/cut/coul/long, perpetual
      attributes: half, newton on
      pair build: half/bin/newton
      stencil: half/bin/3d/newton
      bin: standard
Per MPI rank memory allocation (min/avg/max) = 13.68 | 13.68 | 13.68 Mbytes
Step Temp E_pair E_mol TotEng Press 
       0    1692.4926         -nan     862.9393         -nan         -nan 
ERROR on proc 0: Out of range atoms - cannot compute PPPM (../pppm.cpp:1940)
Last command: run             2000


################################################################################
##################################    Init    ##################################
################################################################################
units           real
atom_style      full
pair_style      lj/cut/coul/long 12.0  12.0
kspace_style    pppm 1e-4
bond_style      harmonic
angle_style     harmonic
dihedral_style  fourier
improper_style  cvff
special_bonds   amber
pair_modify     mix arithmetic
read_data       temp.lmps
  orthogonal box = (-91.4513 -91.4513 -91.4513) to (91.4513 91.4513 91.4513)
  1 by 1 by 1 MPI processor grid
  reading atoms ...
  76 atoms
  reading velocities ...
  76 velocities
  scanning bonds ...
  3 = max bonds/atom
  scanning angles ...
  6 = max angles/atom
  scanning dihedrals ...
  10 = max dihedrals/atom
  scanning impropers ...
  2 = max impropers/atom
  reading bonds ...
  81 bonds
  reading angles ...
  128 angles
  reading dihedrals ...
  184 dihedrals
  reading impropers ...
  22 impropers
  4 = max # of 1-2 neighbors
  7 = max # of 1-3 neighbors
  14 = max # of 1-4 neighbors
  16 = max # of special neighbors
  special bonds CPU = 0.000310183 secs
  read_data CPU = 0.00501609 secs
################################################################################

timestep        1
fix             pysimm_md all nve/limit 0.1
run             2000
PPPM initialization ...
WARNING: System is not charge neutral, net charge = -1.2e-05 (../kspace.cpp:313)
  using 12-bit tables for long-range coulomb (../kspace.cpp:332)
  G vector (1/distance) = 0.0923719
  grid = 15 15 15
  stencil order = 5
  estimated absolute RMS force accuracy = 0.0278939
  estimated relative force accuracy = 8.40015e-05
  using double precision KISS FFT
  3d grid and FFT values/proc = 8000 3375
Neighbor list info ...
  update every 1 steps, delay 10 steps, check yes
  max neighbors/atom: 2000, page size: 100000
  master list distance cutoff = 14
  ghost atom cutoff = 14
  binsize = 7, bins = 27 27 27
  1 neighbor lists, perpetual/occasional/extra = 1 0 0
  (1) pair lj/cut/coul/long, perpetual
      attributes: half, newton on
      pair build: half/bin/newton
      stencil: half/bin/3d/newton
      bin: standard
Per MPI rank memory allocation (min/avg/max) = 13.68 | 13.68 | 13.68 Mbytes
Step Temp E_pair E_mol TotEng Press 
       0   0.40501178    15.991381    256.24599    272.32792    1.0116438 
    2000     4020.879   -1569.1524      817.268    147.02633     -1.45143 
Loop time of 1.46537 on 1 procs for 2000 steps with 76 atoms

Performance: 117.923 ns/day, 0.204 hours/ns, 1364.845 timesteps/s
99.8% CPU use with 1 MPI tasks x no OpenMP threads

MPI task timing breakdown:
Section |  min time  |  avg time  |  max time  |%varavg| %total
---------------------------------------------------------------
Pair    | 0.089794   | 0.089794   | 0.089794   |   0.0 |  6.13
Bond    | 0.051132   | 0.051132   | 0.051132   |   0.0 |  3.49
Kspace  | 1.3091     | 1.3091     | 1.3091     |   0.0 | 89.34
Neigh   | 0.010015   | 0.010015   | 0.010015   |   0.0 |  0.68
Comm    | 0.00080109 | 0.00080109 | 0.00080109 |   0.0 |  0.05
Output  | 2.8133e-05 | 2.8133e-05 | 2.8133e-05 |   0.0 |  0.00
Modify  | 0.0025609  | 0.0025609  | 0.0025609  |   0.0 |  0.17
Other   |            | 0.001914   |            |       |  0.13

Nlocal:    76 ave 76 max 76 min
Histogram: 1 0 0 0 0 0 0 0 0 0
Nghost:    0 ave 0 max 0 min
Histogram: 1 0 0 0 0 0 0 0 0 0
Neighs:    2133 ave 2133 max 2133 min
Histogram: 1 0 0 0 0 0 0 0 0 0

Total # of neighbors = 2133
Ave neighs/atom = 28.0658
Ave special neighs/atom = 9.86842
Neighbor list builds = 98
Dangerous builds = 0
unfix pysimm_md
min_style cg
minimize 0.001 0.001 10000 100000
WARNING: Using 'neigh_modify every 1 delay 0 check yes' setting during minimization (../min.cpp:190)
PPPM initialization ...
  using 12-bit tables for long-range coulomb (../kspace.cpp:332)
  G vector (1/distance) = 0.0923719
  grid = 15 15 15
  stencil order = 5
  estimated absolute RMS force accuracy = 0.0278939
  estimated relative force accuracy = 8.40015e-05
  using double precision KISS FFT
  3d grid and FFT values/proc = 8000 3375
Per MPI rank memory allocation (min/avg/max) = 14.8 | 14.8 | 14.8 Mbytes
Step Temp E_pair E_mol TotEng Press 
    2000     4020.879   -1569.1524      817.268    147.02633     -1.45143 
    2017     4020.879 -6.1542602e+15    826.74486 -6.1542602e+15 -1.8925863e+13 
Loop time of 0.29354 on 1 procs for 17 steps with 76 atoms

99.8% CPU use with 1 MPI tasks x no OpenMP threads

Minimization stats:
  Stopping criterion = energy tolerance
  Energy initial, next-to-last, final = 
        -751.884408049 -6.15426015331e+15 -6.15426015331e+15
  Force two-norm initial, final = 34712.2 8.166e+29
  Force max component initial, final = 17120.8 3.84949e+29
  Final line search alpha, max atom move = 7.38324e-45 2.84217e-15
  Iterations, force evaluations = 17 404

MPI task timing breakdown:
Section |  min time  |  avg time  |  max time  |%varavg| %total
---------------------------------------------------------------
Pair    | 0.032374   | 0.032374   | 0.032374   |   0.0 | 11.03
Bond    | 0.011593   | 0.011593   | 0.011593   |   0.0 |  3.95
Kspace  | 0.24851    | 0.24851    | 0.24851    |   0.0 | 84.66
Neigh   | 0          | 0          | 0          |   0.0 |  0.00
Comm    | 9.7036e-05 | 9.7036e-05 | 9.7036e-05 |   0.0 |  0.03
Output  | 0          | 0          | 0          |   0.0 |  0.00
Modify  | 0          | 0          | 0          |   0.0 |  0.00
Other   |            | 0.0009687  |            |       |  0.33

Nlocal:    76 ave 76 max 76 min
Histogram: 1 0 0 0 0 0 0 0 0 0
Nghost:    0 ave 0 max 0 min
Histogram: 1 0 0 0 0 0 0 0 0 0
Neighs:    2134 ave 2134 max 2134 min
Histogram: 1 0 0 0 0 0 0 0 0 0

Total # of neighbors = 2134
Ave neighs/atom = 28.0789
Ave special neighs/atom = 9.86842
Neighbor list builds = 0
Dangerous builds = 0
write_dump all custom pysimm.dump.tmp id q x y z vx vy vz
quit


################################################################################
##################################    Init    ##################################
################################################################################
units           real
atom_style      full
pair_style      lj/cut/coul/long 12.0  12.0
kspace_style    pppm 1e-4
bond_style      harmonic
angle_style     harmonic
dihedral_style  fourier
improper_style  cvff
special_bonds   amber
pair_modify     mix arithmetic
read_data       temp.lmps
  orthogonal box = (-91.4513 -91.4513 -91.4513) to (91.4513 91.4513 91.4513)
  1 by 1 by 1 MPI processor grid
  reading atoms ...
  114 atoms
  reading velocities ...
  114 velocities
  scanning bonds ...
  3 = max bonds/atom
  scanning angles ...
  6 = max angles/atom
  scanning dihedrals ...
  10 = max dihedrals/atom
  scanning impropers ...
  2 = max impropers/atom
  reading bonds ...
  122 bonds
  reading angles ...
  194 angles
  reading dihedrals ...
  281 dihedrals
  reading impropers ...
  33 impropers
  4 = max # of 1-2 neighbors
  7 = max # of 1-3 neighbors
  14 = max # of 1-4 neighbors
  16 = max # of special neighbors
  special bonds CPU = 0.000533104 secs
  read_data CPU = 0.011086 secs
################################################################################

timestep        1
fix             pysimm_md all nve/limit 0.1
run             2000
PPPM initialization ...
WARNING: System is not charge neutral, net charge = -1.8e-05 (../kspace.cpp:313)
  using 12-bit tables for long-range coulomb (../kspace.cpp:332)
  G vector (1/distance) = 0.0923719
  grid = 15 15 15
  stencil order = 5
  estimated absolute RMS force accuracy = 0.0341629
  estimated relative force accuracy = 0.00010288
  using double precision KISS FFT
  3d grid and FFT values/proc = 8000 3375
Neighbor list info ...
  update every 1 steps, delay 10 steps, check yes
  max neighbors/atom: 2000, page size: 100000
  master list distance cutoff = 14
  ghost atom cutoff = 14
  binsize = 7, bins = 27 27 27
  1 neighbor lists, perpetual/occasional/extra = 1 0 0
  (1) pair lj/cut/coul/long, perpetual
      attributes: half, newton on
      pair build: half/bin/newton
      stencil: half/bin/3d/newton
      bin: standard
Per MPI rank memory allocation (min/avg/max) = 13.68 | 13.68 | 13.68 Mbytes
Step Temp E_pair E_mol TotEng Press 
       0    2668.8584         -nan    1306.6477         -nan         -nan 
ERROR on proc 0: Out of range atoms - cannot compute PPPM (../pppm.cpp:1940)
Last command: run             2000


################################################################################
##################################    Init    ##################################
################################################################################
units           real
atom_style      full
pair_style      lj/cut/coul/long 12.0  12.0
kspace_style    pppm 1e-4
bond_style      harmonic
angle_style     harmonic
dihedral_style  fourier
improper_style  cvff
special_bonds   amber
pair_modify     mix arithmetic
read_data       temp.lmps
  orthogonal box = (-91.4513 -91.4513 -91.4513) to (91.4513 91.4513 91.4513)
  1 by 1 by 1 MPI processor grid
  reading atoms ...
  76 atoms
  reading velocities ...
  76 velocities
  scanning bonds ...
  3 = max bonds/atom
  scanning angles ...
  6 = max angles/atom
  scanning dihedrals ...
  10 = max dihedrals/atom
  scanning impropers ...
  2 = max impropers/atom
  reading bonds ...
  81 bonds
  reading angles ...
  128 angles
  reading dihedrals ...
  184 dihedrals
  reading impropers ...
  22 impropers
  4 = max # of 1-2 neighbors
  7 = max # of 1-3 neighbors
  14 = max # of 1-4 neighbors
  16 = max # of special neighbors
  special bonds CPU = 0.000300884 secs
  read_data CPU = 0.00402999 secs
################################################################################

timestep        1
fix             pysimm_md all nve/limit 0.1
run             2000
PPPM initialization ...
WARNING: System is not charge neutral, net charge = -1.2e-05 (../kspace.cpp:313)
  using 12-bit tables for long-range coulomb (../kspace.cpp:332)
  G vector (1/distance) = 0.0923719
  grid = 15 15 15
  stencil order = 5
  estimated absolute RMS force accuracy = 0.0278939
  estimated relative force accuracy = 8.40015e-05
  using double precision KISS FFT
  3d grid and FFT values/proc = 8000 3375
Neighbor list info ...
  update every 1 steps, delay 10 steps, check yes
  max neighbors/atom: 2000, page size: 100000
  master list distance cutoff = 14
  ghost atom cutoff = 14
  binsize = 7, bins = 27 27 27
  1 neighbor lists, perpetual/occasional/extra = 1 0 0
  (1) pair lj/cut/coul/long, perpetual
      attributes: half, newton on
      pair build: half/bin/newton
      stencil: half/bin/3d/newton
      bin: standard
Per MPI rank memory allocation (min/avg/max) = 13.68 | 13.68 | 13.68 Mbytes
Step Temp E_pair E_mol TotEng Press 
       0   0.40501178     15.95399    256.24599    272.29053    1.0120835 
    2000    3761.3528   -10142.682    611.84938   -8689.9414   -36.524694 
Loop time of 1.72914 on 1 procs for 2000 steps with 76 atoms

Performance: 99.934 ns/day, 0.240 hours/ns, 1156.647 timesteps/s
99.9% CPU use with 1 MPI tasks x no OpenMP threads

MPI task timing breakdown:
Section |  min time  |  avg time  |  max time  |%varavg| %total
---------------------------------------------------------------
Pair    | 0.10306    | 0.10306    | 0.10306    |   0.0 |  5.96
Bond    | 0.06246    | 0.06246    | 0.06246    |   0.0 |  3.61
Kspace  | 1.5462     | 1.5462     | 1.5462     |   0.0 | 89.42
Neigh   | 0.0086453  | 0.0086453  | 0.0086453  |   0.0 |  0.50
Comm    | 0.0010514  | 0.0010514  | 0.0010514  |   0.0 |  0.06
Output  | 2.5988e-05 | 2.5988e-05 | 2.5988e-05 |   0.0 |  0.00
Modify  | 0.00334    | 0.00334    | 0.00334    |   0.0 |  0.19
Other   |            | 0.004397   |            |       |  0.25

Nlocal:    76 ave 76 max 76 min
Histogram: 1 0 0 0 0 0 0 0 0 0
Nghost:    0 ave 0 max 0 min
Histogram: 1 0 0 0 0 0 0 0 0 0
Neighs:    2014 ave 2014 max 2014 min
Histogram: 1 0 0 0 0 0 0 0 0 0

Total # of neighbors = 2014
Ave neighs/atom = 26.5
Ave special neighs/atom = 9.86842
Neighbor list builds = 92
Dangerous builds = 0
unfix pysimm_md
min_style cg
minimize 0.001 0.001 10000 100000
WARNING: Using 'neigh_modify every 1 delay 0 check yes' setting during minimization (../min.cpp:190)
PPPM initialization ...
  using 12-bit tables for long-range coulomb (../kspace.cpp:332)
  G vector (1/distance) = 0.0923719
  grid = 15 15 15
  stencil order = 5
  estimated absolute RMS force accuracy = 0.0278939
  estimated relative force accuracy = 8.40015e-05
  using double precision KISS FFT
  3d grid and FFT values/proc = 8000 3375
Per MPI rank memory allocation (min/avg/max) = 14.8 | 14.8 | 14.8 Mbytes
Step Temp E_pair E_mol TotEng Press 
    2000    3761.3528   -10142.682    611.84938   -8689.9414   -36.524694 
    2017    3761.3528 -6.5275786e+15    612.48712 -6.5275786e+15 -1.6822989e+13 
Loop time of 0.357975 on 1 procs for 17 steps with 76 atoms

100.0% CPU use with 1 MPI tasks x no OpenMP threads

Minimization stats:
  Stopping criterion = energy tolerance
  Energy initial, next-to-last, final = 
        -9530.83221374 -6.52757863139e+15 -6.52757863139e+15
  Force two-norm initial, final = 2.22111e+06 9.18675e+29
  Force max component initial, final = 1.04047e+06 4.59338e+29
  Final line search alpha, max atom move = 6.18754e-45 2.84217e-15
  Iterations, force evaluations = 17 419

MPI task timing breakdown:
Section |  min time  |  avg time  |  max time  |%varavg| %total
---------------------------------------------------------------
Pair    | 0.035118   | 0.035118   | 0.035118   |   0.0 |  9.81
Bond    | 0.014504   | 0.014504   | 0.014504   |   0.0 |  4.05
Kspace  | 0.30689    | 0.30689    | 0.30689    |   0.0 | 85.73
Neigh   | 0          | 0          | 0          |   0.0 |  0.00
Comm    | 0.00018287 | 0.00018287 | 0.00018287 |   0.0 |  0.05
Output  | 0          | 0          | 0          |   0.0 |  0.00
Modify  | 0          | 0          | 0          |   0.0 |  0.00
Other   |            | 0.001285   |            |       |  0.36

Nlocal:    76 ave 76 max 76 min
Histogram: 1 0 0 0 0 0 0 0 0 0
Nghost:    0 ave 0 max 0 min
Histogram: 1 0 0 0 0 0 0 0 0 0
Neighs:    2016 ave 2016 max 2016 min
Histogram: 1 0 0 0 0 0 0 0 0 0

Total # of neighbors = 2016
Ave neighs/atom = 26.5263
Ave special neighs/atom = 9.86842
Neighbor list builds = 0
Dangerous builds = 0
write_dump all custom pysimm.dump.tmp id q x y z vx vy vz
quit


################################################################################
##################################    Init    ##################################
################################################################################
units           real
atom_style      full
pair_style      lj/cut/coul/long 12.0  12.0
kspace_style    pppm 1e-4
bond_style      harmonic
angle_style     harmonic
dihedral_style  fourier
improper_style  cvff
special_bonds   amber
pair_modify     mix arithmetic
read_data       temp.lmps
  orthogonal box = (-91.4513 -91.4513 -91.4513) to (91.4513 91.4513 91.4513)
  1 by 1 by 1 MPI processor grid
  reading atoms ...
  114 atoms
  reading velocities ...
  114 velocities
  scanning bonds ...
  3 = max bonds/atom
  scanning angles ...
  6 = max angles/atom
  scanning dihedrals ...
  10 = max dihedrals/atom
  scanning impropers ...
  2 = max impropers/atom
  reading bonds ...
  122 bonds
  reading angles ...
  194 angles
  reading dihedrals ...
  281 dihedrals
  reading impropers ...
  33 impropers
  4 = max # of 1-2 neighbors
  7 = max # of 1-3 neighbors
  14 = max # of 1-4 neighbors
  16 = max # of special neighbors
  special bonds CPU = 0.000252008 secs
  read_data CPU = 0.00429893 secs
################################################################################

timestep        1
fix             pysimm_md all nve/limit 0.1
run             2000
PPPM initialization ...
WARNING: System is not charge neutral, net charge = -1.8e-05 (../kspace.cpp:313)
  using 12-bit tables for long-range coulomb (../kspace.cpp:332)
  G vector (1/distance) = 0.0923719
  grid = 15 15 15
  stencil order = 5
  estimated absolute RMS force accuracy = 0.0341629
  estimated relative force accuracy = 0.00010288
  using double precision KISS FFT
  3d grid and FFT values/proc = 8000 3375
Neighbor list info ...
  update every 1 steps, delay 10 steps, check yes
  max neighbors/atom: 2000, page size: 100000
  master list distance cutoff = 14
  ghost atom cutoff = 14
  binsize = 7, bins = 27 27 27
  1 neighbor lists, perpetual/occasional/extra = 1 0 0
  (1) pair lj/cut/coul/long, perpetual
      attributes: half, newton on
      pair build: half/bin/newton
      stencil: half/bin/3d/newton
      bin: standard
Per MPI rank memory allocation (min/avg/max) = 13.68 | 13.68 | 13.68 Mbytes
Step Temp E_pair E_mol TotEng Press 
       0    2496.6073         -nan    956.89506         -nan         -nan 
ERROR on proc 0: Out of range atoms - cannot compute PPPM (../pppm.cpp:1940)
Last command: run             2000


################################################################################
##################################    Init    ##################################
################################################################################
units           real
atom_style      full
pair_style      lj/cut/coul/long 12.0  12.0
kspace_style    pppm 1e-4
bond_style      harmonic
angle_style     harmonic
dihedral_style  fourier
improper_style  cvff
special_bonds   amber
pair_modify     mix arithmetic
read_data       temp.lmps
  orthogonal box = (-91.4513 -91.4513 -91.4513) to (91.4513 91.4513 91.4513)
  1 by 1 by 1 MPI processor grid
  reading atoms ...
  76 atoms
  reading velocities ...
  76 velocities
  scanning bonds ...
  3 = max bonds/atom
  scanning angles ...
  6 = max angles/atom
  scanning dihedrals ...
  10 = max dihedrals/atom
  scanning impropers ...
  2 = max impropers/atom
  reading bonds ...
  81 bonds
  reading angles ...
  128 angles
  reading dihedrals ...
  184 dihedrals
  reading impropers ...
  22 impropers
  4 = max # of 1-2 neighbors
  7 = max # of 1-3 neighbors
  14 = max # of 1-4 neighbors
  16 = max # of special neighbors
  special bonds CPU = 0.000349045 secs
  read_data CPU = 0.00412107 secs
################################################################################

timestep        1
fix             pysimm_md all nve/limit 0.1
run             2000
PPPM initialization ...
WARNING: System is not charge neutral, net charge = -1.2e-05 (../kspace.cpp:313)
  using 12-bit tables for long-range coulomb (../kspace.cpp:332)
  G vector (1/distance) = 0.0923719
  grid = 15 15 15
  stencil order = 5
  estimated absolute RMS force accuracy = 0.0278939
  estimated relative force accuracy = 8.40015e-05
  using double precision KISS FFT
  3d grid and FFT values/proc = 8000 3375
Neighbor list info ...
  update every 1 steps, delay 10 steps, check yes
  max neighbors/atom: 2000, page size: 100000
  master list distance cutoff = 14
  ghost atom cutoff = 14
  binsize = 7, bins = 27 27 27
  1 neighbor lists, perpetual/occasional/extra = 1 0 0
  (1) pair lj/cut/coul/long, perpetual
      attributes: half, newton on
      pair build: half/bin/newton
      stencil: half/bin/3d/newton
      bin: standard
Per MPI rank memory allocation (min/avg/max) = 13.68 | 13.68 | 13.68 Mbytes
Step Temp E_pair E_mol TotEng Press 
       0    0.4043036    15.962396    256.24504    272.29782    1.0118781 
    2000    419.20991   -40.587316    211.64313    264.77469    0.2893006 
Loop time of 1.76043 on 1 procs for 2000 steps with 76 atoms

Performance: 98.158 ns/day, 0.245 hours/ns, 1136.087 timesteps/s
100.0% CPU use with 1 MPI tasks x no OpenMP threads

MPI task timing breakdown:
Section |  min time  |  avg time  |  max time  |%varavg| %total
---------------------------------------------------------------
Pair    | 0.11117    | 0.11117    | 0.11117    |   0.0 |  6.31
Bond    | 0.063807   | 0.063807   | 0.063807   |   0.0 |  3.62
Kspace  | 1.5719     | 1.5719     | 1.5719     |   0.0 | 89.29
Neigh   | 0.0038891  | 0.0038891  | 0.0038891  |   0.0 |  0.22
Comm    | 0.0010769  | 0.0010769  | 0.0010769  |   0.0 |  0.06
Output  | 2.5988e-05 | 2.5988e-05 | 2.5988e-05 |   0.0 |  0.00
Modify  | 0.0032775  | 0.0032775  | 0.0032775  |   0.0 |  0.19
Other   |            | 0.005294   |            |       |  0.30

Nlocal:    76 ave 76 max 76 min
Histogram: 1 0 0 0 0 0 0 0 0 0
Nghost:    0 ave 0 max 0 min
Histogram: 1 0 0 0 0 0 0 0 0 0
Neighs:    2066 ave 2066 max 2066 min
Histogram: 1 0 0 0 0 0 0 0 0 0

Total # of neighbors = 2066
Ave neighs/atom = 27.1842
Ave special neighs/atom = 9.86842
Neighbor list builds = 39
Dangerous builds = 0
unfix pysimm_md
min_style cg
minimize 0.001 0.001 10000 100000
WARNING: Using 'neigh_modify every 1 delay 0 check yes' setting during minimization (../min.cpp:190)
PPPM initialization ...
  using 12-bit tables for long-range coulomb (../kspace.cpp:332)
  G vector (1/distance) = 0.0923719
  grid = 15 15 15
  stencil order = 5
  estimated absolute RMS force accuracy = 0.0278939
  estimated relative force accuracy = 8.40015e-05
  using double precision KISS FFT
  3d grid and FFT values/proc = 8000 3375
Per MPI rank memory allocation (min/avg/max) = 14.8 | 14.8 | 14.8 Mbytes
Step Temp E_pair E_mol TotEng Press 
    2000    419.20991   -40.587316    211.64313    264.77469    0.2893006 
    2015    419.20991   -43.276218    119.16398    169.60665  0.060601677 
Loop time of 0.0792172 on 1 procs for 15 steps with 76 atoms

99.7% CPU use with 1 MPI tasks x no OpenMP threads

Minimization stats:
  Stopping criterion = linesearch alpha is zero
  Energy initial, next-to-last, final = 
         171.055809288        75.88776653        75.88776653
  Force two-norm initial, final = 351.736 29.9783
  Force max component initial, final = 91.9955 7.39575
  Final line search alpha, max atom move = 1.11297e-11 8.23128e-11
  Iterations, force evaluations = 15 86

MPI task timing breakdown:
Section |  min time  |  avg time  |  max time  |%varavg| %total
---------------------------------------------------------------
Pair    | 0.0076249  | 0.0076249  | 0.0076249  |   0.0 |  9.63
Bond    | 0.0030959  | 0.0030959  | 0.0030959  |   0.0 |  3.91
Kspace  | 0.068126   | 0.068126   | 0.068126   |   0.0 | 86.00
Neigh   | 0          | 0          | 0          |   0.0 |  0.00
Comm    | 5.0545e-05 | 5.0545e-05 | 5.0545e-05 |   0.0 |  0.06
Output  | 0          | 0          | 0          |   0.0 |  0.00
Modify  | 0          | 0          | 0          |   0.0 |  0.00
Other   |            | 0.0003202  |            |       |  0.40

Nlocal:    76 ave 76 max 76 min
Histogram: 1 0 0 0 0 0 0 0 0 0
Nghost:    0 ave 0 max 0 min
Histogram: 1 0 0 0 0 0 0 0 0 0
Neighs:    2073 ave 2073 max 2073 min
Histogram: 1 0 0 0 0 0 0 0 0 0

Total # of neighbors = 2073
Ave neighs/atom = 27.2763
Ave special neighs/atom = 9.86842
Neighbor list builds = 0
Dangerous builds = 0
write_dump all custom pysimm.dump.tmp id q x y z vx vy vz
quit


################################################################################
##################################    Init    ##################################
################################################################################
units           real
atom_style      full
pair_style      lj/cut/coul/long 12.0  12.0
kspace_style    pppm 1e-4
bond_style      harmonic
angle_style     harmonic
dihedral_style  fourier
improper_style  cvff
special_bonds   amber
pair_modify     mix arithmetic
read_data       temp.lmps
  orthogonal box = (-91.4513 -91.4513 -91.4513) to (91.4513 91.4513 91.4513)
  1 by 1 by 1 MPI processor grid
  reading atoms ...
  114 atoms
  reading velocities ...
  114 velocities
  scanning bonds ...
  3 = max bonds/atom
  scanning angles ...
  6 = max angles/atom
  scanning dihedrals ...
  10 = max dihedrals/atom
  scanning impropers ...
  2 = max impropers/atom
  reading bonds ...
  122 bonds
  reading angles ...
  194 angles
  reading dihedrals ...
  281 dihedrals
  reading impropers ...
  33 impropers
  4 = max # of 1-2 neighbors
  7 = max # of 1-3 neighbors
  14 = max # of 1-4 neighbors
  16 = max # of special neighbors
  special bonds CPU = 0.000339985 secs
  read_data CPU = 0.00432086 secs
################################################################################

timestep        1
fix             pysimm_md all nve/limit 0.1
run             2000
PPPM initialization ...
WARNING: System is not charge neutral, net charge = -1.8e-05 (../kspace.cpp:313)
  using 12-bit tables for long-range coulomb (../kspace.cpp:332)
  G vector (1/distance) = 0.0923719
  grid = 15 15 15
  stencil order = 5
  estimated absolute RMS force accuracy = 0.0341629
  estimated relative force accuracy = 0.00010288
  using double precision KISS FFT
  3d grid and FFT values/proc = 8000 3375
Neighbor list info ...
  update every 1 steps, delay 10 steps, check yes
  max neighbors/atom: 2000, page size: 100000
  master list distance cutoff = 14
  ghost atom cutoff = 14
  binsize = 7, bins = 27 27 27
  1 neighbor lists, perpetual/occasional/extra = 1 0 0
  (1) pair lj/cut/coul/long, perpetual
      attributes: half, newton on
      pair build: half/bin/newton
      stencil: half/bin/3d/newton
      bin: standard
Per MPI rank memory allocation (min/avg/max) = 13.68 | 13.68 | 13.68 Mbytes
Step Temp E_pair E_mol TotEng Press 
       0     278.3707   -44.078037    304.73607    354.42206   -1.5373288 
    2000    331.11374   -60.800649    303.77223    354.50114   -1.9875539 
Loop time of 1.88863 on 1 procs for 2000 steps with 114 atoms

Performance: 91.495 ns/day, 0.262 hours/ns, 1058.969 timesteps/s
100.1% CPU use with 1 MPI tasks x no OpenMP threads

MPI task timing breakdown:
Section |  min time  |  avg time  |  max time  |%varavg| %total
---------------------------------------------------------------
Pair    | 0.16586    | 0.16586    | 0.16586    |   0.0 |  8.78
Bond    | 0.092862   | 0.092862   | 0.092862   |   0.0 |  4.92
Kspace  | 1.6131     | 1.6131     | 1.6131     |   0.0 | 85.41
Neigh   | 0.0056388  | 0.0056388  | 0.0056388  |   0.0 |  0.30
Comm    | 0.0010667  | 0.0010667  | 0.0010667  |   0.0 |  0.06
Output  | 4.1962e-05 | 4.1962e-05 | 4.1962e-05 |   0.0 |  0.00
Modify  | 0.004616   | 0.004616   | 0.004616   |   0.0 |  0.24
Other   |            | 0.005445   |            |       |  0.29

Nlocal:    114 ave 114 max 114 min
Histogram: 1 0 0 0 0 0 0 0 0 0
Nghost:    0 ave 0 max 0 min
Histogram: 1 0 0 0 0 0 0 0 0 0
Neighs:    3745 ave 3745 max 3745 min
Histogram: 1 0 0 0 0 0 0 0 0 0

Total # of neighbors = 3745
Ave neighs/atom = 32.8509
Ave special neighs/atom = 10
Neighbor list builds = 39
Dangerous builds = 0
unfix pysimm_md
min_style cg
minimize 0.001 0.001 10000 100000
WARNING: Using 'neigh_modify every 1 delay 0 check yes' setting during minimization (../min.cpp:190)
PPPM initialization ...
  using 12-bit tables for long-range coulomb (../kspace.cpp:332)
  G vector (1/distance) = 0.0923719
  grid = 15 15 15
  stencil order = 5
  estimated absolute RMS force accuracy = 0.0341629
  estimated relative force accuracy = 0.00010288
  using double precision KISS FFT
  3d grid and FFT values/proc = 8000 3375
Per MPI rank memory allocation (min/avg/max) = 14.81 | 14.81 | 14.81 Mbytes
Step Temp E_pair E_mol TotEng Press 
    2000    331.11374   -60.800649    303.77223    354.50114   -1.9875539 
    2020    331.11374   -33.515084    163.29383     241.3083   0.52250819 
Loop time of 0.095361 on 1 procs for 20 steps with 114 atoms

99.6% CPU use with 1 MPI tasks x no OpenMP threads

Minimization stats:
  Stopping criterion = linesearch alpha is zero
  Energy initial, next-to-last, final = 
         242.971586002      129.778746147      129.778746147
  Force two-norm initial, final = 383.595 29.279
  Force max component initial, final = 70.5752 5.55183
  Final line search alpha, max atom move = 1.01283e-11 5.62309e-11
  Iterations, force evaluations = 20 97

MPI task timing breakdown:
Section |  min time  |  avg time  |  max time  |%varavg| %total
---------------------------------------------------------------
Pair    | 0.013565   | 0.013565   | 0.013565   |   0.0 | 14.23
Bond    | 0.0048721  | 0.0048721  | 0.0048721  |   0.0 |  5.11
Kspace  | 0.076473   | 0.076473   | 0.076473   |   0.0 | 80.19
Neigh   | 0          | 0          | 0          |   0.0 |  0.00
Comm    | 5.0783e-05 | 5.0783e-05 | 5.0783e-05 |   0.0 |  0.05
Output  | 0          | 0          | 0          |   0.0 |  0.00
Modify  | 0          | 0          | 0          |   0.0 |  0.00
Other   |            | 0.0003998  |            |       |  0.42

Nlocal:    114 ave 114 max 114 min
Histogram: 1 0 0 0 0 0 0 0 0 0
Nghost:    0 ave 0 max 0 min
Histogram: 1 0 0 0 0 0 0 0 0 0
Neighs:    3749 ave 3749 max 3749 min
Histogram: 1 0 0 0 0 0 0 0 0 0

Total # of neighbors = 3749
Ave neighs/atom = 32.886
Ave special neighs/atom = 10
Neighbor list builds = 0
Dangerous builds = 0
write_dump all custom pysimm.dump.tmp id q x y z vx vy vz
quit


################################################################################
##################################    Init    ##################################
################################################################################
units           real
atom_style      full
pair_style      lj/cut/coul/long 12.0  12.0
kspace_style    pppm 1e-4
bond_style      harmonic
angle_style     harmonic
dihedral_style  fourier
improper_style  cvff
special_bonds   amber
pair_modify     mix arithmetic
read_data       temp.lmps
  orthogonal box = (-91.4513 -91.4513 -91.4513) to (91.4513 91.4513 91.4513)
  1 by 1 by 1 MPI processor grid
  reading atoms ...
  152 atoms
  reading velocities ...
  152 velocities
  scanning bonds ...
  3 = max bonds/atom
  scanning angles ...
  6 = max angles/atom
  scanning dihedrals ...
  10 = max dihedrals/atom
  scanning impropers ...
  2 = max impropers/atom
  reading bonds ...
  163 bonds
  reading angles ...
  260 angles
  reading dihedrals ...
  378 dihedrals
  reading impropers ...
  44 impropers
  4 = max # of 1-2 neighbors
  7 = max # of 1-3 neighbors
  14 = max # of 1-4 neighbors
  16 = max # of special neighbors
  special bonds CPU = 0.000351906 secs
  read_data CPU = 0.00471091 secs
################################################################################

timestep        1
fix             pysimm_md all nve/limit 0.1
run             2000
PPPM initialization ...
WARNING: System is not charge neutral, net charge = -2.4e-05 (../kspace.cpp:313)
  using 12-bit tables for long-range coulomb (../kspace.cpp:332)
  G vector (1/distance) = 0.0968523
  grid = 16 16 16
  stencil order = 5
  estimated absolute RMS force accuracy = 0.0349143
  estimated relative force accuracy = 0.000105143
  using double precision KISS FFT
  3d grid and FFT values/proc = 9261 4096
Neighbor list info ...
  update every 1 steps, delay 10 steps, check yes
  max neighbors/atom: 2000, page size: 100000
  master list distance cutoff = 14
  ghost atom cutoff = 14
  binsize = 7, bins = 27 27 27
  1 neighbor lists, perpetual/occasional/extra = 1 0 0
  (1) pair lj/cut/coul/long, perpetual
      attributes: half, newton on
      pair build: half/bin/newton
      stencil: half/bin/3d/newton
      bin: standard
Per MPI rank memory allocation (min/avg/max) = 13.79 | 13.79 | 13.79 Mbytes
Step Temp E_pair E_mol TotEng Press 
       0    247.88747    3.4844103    331.89344    446.95258   0.69807431 
    2000    262.52123   -35.429477    363.17271    445.90464    -2.762796 
Loop time of 2.2837 on 1 procs for 2000 steps with 152 atoms

Performance: 75.667 ns/day, 0.317 hours/ns, 875.771 timesteps/s
100.0% CPU use with 1 MPI tasks x no OpenMP threads

MPI task timing breakdown:
Section |  min time  |  avg time  |  max time  |%varavg| %total
---------------------------------------------------------------
Pair    | 0.24334    | 0.24334    | 0.24334    |   0.0 | 10.66
Bond    | 0.12609    | 0.12609    | 0.12609    |   0.0 |  5.52
Kspace  | 1.8931     | 1.8931     | 1.8931     |   0.0 | 82.90
Neigh   | 0.0082498  | 0.0082498  | 0.0082498  |   0.0 |  0.36
Comm    | 0.001096   | 0.001096   | 0.001096   |   0.0 |  0.05
Output  | 2.6941e-05 | 2.6941e-05 | 2.6941e-05 |   0.0 |  0.00
Modify  | 0.0059013  | 0.0059013  | 0.0059013  |   0.0 |  0.26
Other   |            | 0.005896   |            |       |  0.26

Nlocal:    152 ave 152 max 152 min
Histogram: 1 0 0 0 0 0 0 0 0 0
Nghost:    0 ave 0 max 0 min
Histogram: 1 0 0 0 0 0 0 0 0 0
Neighs:    5237 ave 5237 max 5237 min
Histogram: 1 0 0 0 0 0 0 0 0 0

Total # of neighbors = 5237
Ave neighs/atom = 34.4539
Ave special neighs/atom = 10.0658
Neighbor list builds = 39
Dangerous builds = 0
unfix pysimm_md
min_style cg
minimize 0.001 0.001 10000 100000
WARNING: Using 'neigh_modify every 1 delay 0 check yes' setting during minimization (../min.cpp:190)
PPPM initialization ...
  using 12-bit tables for long-range coulomb (../kspace.cpp:332)
  G vector (1/distance) = 0.0968523
  grid = 16 16 16
  stencil order = 5
  estimated absolute RMS force accuracy = 0.0349143
  estimated relative force accuracy = 0.000105143
  using double precision KISS FFT
  3d grid and FFT values/proc = 9261 4096
Per MPI rank memory allocation (min/avg/max) = 14.92 | 14.92 | 14.92 Mbytes
Step Temp E_pair E_mol TotEng Press 
    2000    262.52123   -35.429477    363.17271    445.90464    -2.762796 
    2014    262.52123   -35.379016    231.94819    314.73059   0.39934444 
Loop time of 0.109337 on 1 procs for 14 steps with 152 atoms

99.7% CPU use with 1 MPI tasks x no OpenMP threads

Minimization stats:
  Stopping criterion = linesearch alpha is zero
  Energy initial, next-to-last, final = 
         327.743229341      196.569171287      196.569171287
  Force two-norm initial, final = 451.734 36.2217
  Force max component initial, final = 77.5013 7.78298
  Final line search alpha, max atom move = 6.2662e-12 4.87698e-11
  Iterations, force evaluations = 14 87

MPI task timing breakdown:
Section |  min time  |  avg time  |  max time  |%varavg| %total
---------------------------------------------------------------
Pair    | 0.017622   | 0.017622   | 0.017622   |   0.0 | 16.12
Bond    | 0.0060935  | 0.0060935  | 0.0060935  |   0.0 |  5.57
Kspace  | 0.085192   | 0.085192   | 0.085192   |   0.0 | 77.92
Neigh   | 0          | 0          | 0          |   0.0 |  0.00
Comm    | 4.3392e-05 | 4.3392e-05 | 4.3392e-05 |   0.0 |  0.04
Output  | 0          | 0          | 0          |   0.0 |  0.00
Modify  | 0          | 0          | 0          |   0.0 |  0.00
Other   |            | 0.0003853  |            |       |  0.35

Nlocal:    152 ave 152 max 152 min
Histogram: 1 0 0 0 0 0 0 0 0 0
Nghost:    0 ave 0 max 0 min
Histogram: 1 0 0 0 0 0 0 0 0 0
Neighs:    5225 ave 5225 max 5225 min
Histogram: 1 0 0 0 0 0 0 0 0 0

Total # of neighbors = 5225
Ave neighs/atom = 34.375
Ave special neighs/atom = 10.0658
Neighbor list builds = 0
Dangerous builds = 0
write_dump all custom pysimm.dump.tmp id q x y z vx vy vz
quit


################################################################################
##################################    Init    ##################################
################################################################################
units           real
atom_style      full
pair_style      lj/cut/coul/long 12.0  12.0
kspace_style    pppm 1e-4
bond_style      harmonic
angle_style     harmonic
dihedral_style  fourier
improper_style  cvff
special_bonds   amber
pair_modify     mix arithmetic
read_data       temp.lmps
  orthogonal box = (-91.4513 -91.4513 -91.4513) to (91.4513 91.4513 91.4513)
  1 by 1 by 1 MPI processor grid
  reading atoms ...
  190 atoms
  reading velocities ...
  190 velocities
  scanning bonds ...
  3 = max bonds/atom
  scanning angles ...
  6 = max angles/atom
  scanning dihedrals ...
  10 = max dihedrals/atom
  scanning impropers ...
  2 = max impropers/atom
  reading bonds ...
  204 bonds
  reading angles ...
  326 angles
  reading dihedrals ...
  475 dihedrals
  reading impropers ...
  55 impropers
  4 = max # of 1-2 neighbors
  7 = max # of 1-3 neighbors
  14 = max # of 1-4 neighbors
  16 = max # of special neighbors
  special bonds CPU = 0.000397921 secs
  read_data CPU = 0.00507092 secs
################################################################################

timestep        1
fix             pysimm_md all nve/limit 0.1
run             2000
PPPM initialization ...
WARNING: System is not charge neutral, net charge = -3e-05 (../kspace.cpp:313)
  using 12-bit tables for long-range coulomb (../kspace.cpp:332)
  G vector (1/distance) = 0.10531
  grid = 18 18 18
  stencil order = 5
  estimated absolute RMS force accuracy = 0.030516
  estimated relative force accuracy = 9.18979e-05
  using double precision KISS FFT
  3d grid and FFT values/proc = 12167 5832
Neighbor list info ...
  update every 1 steps, delay 10 steps, check yes
  max neighbors/atom: 2000, page size: 100000
  master list distance cutoff = 14
  ghost atom cutoff = 14
  binsize = 7, bins = 27 27 27
  1 neighbor lists, perpetual/occasional/extra = 1 0 0
  (1) pair lj/cut/coul/long, perpetual
      attributes: half, newton on
      pair build: half/bin/newton
      stencil: half/bin/3d/newton
      bin: standard
Per MPI rank memory allocation (min/avg/max) = 14.06 | 14.06 | 14.06 Mbytes
Step Temp E_pair E_mol TotEng Press 
       0    209.81949    45.319596    417.41085     580.9371    2.6441047 
    2000    298.28802   -75.652262    470.61007    563.00525  0.025985385 
Loop time of 3.30079 on 1 procs for 2000 steps with 190 atoms

Performance: 52.351 ns/day, 0.458 hours/ns, 605.916 timesteps/s
100.0% CPU use with 1 MPI tasks x no OpenMP threads

MPI task timing breakdown:
Section |  min time  |  avg time  |  max time  |%varavg| %total
---------------------------------------------------------------
Pair    | 0.31666    | 0.31666    | 0.31666    |   0.0 |  9.59
Bond    | 0.15635    | 0.15635    | 0.15635    |   0.0 |  4.74
Kspace  | 2.801      | 2.801      | 2.801      |   0.0 | 84.86
Neigh   | 0.012166   | 0.012166   | 0.012166   |   0.0 |  0.37
Comm    | 0.0012412  | 0.0012412  | 0.0012412  |   0.0 |  0.04
Output  | 2.5034e-05 | 2.5034e-05 | 2.5034e-05 |   0.0 |  0.00
Modify  | 0.007056   | 0.007056   | 0.007056   |   0.0 |  0.21
Other   |            | 0.006272   |            |       |  0.19

Nlocal:    190 ave 190 max 190 min
Histogram: 1 0 0 0 0 0 0 0 0 0
Nghost:    0 ave 0 max 0 min
Histogram: 1 0 0 0 0 0 0 0 0 0
Neighs:    6773 ave 6773 max 6773 min
Histogram: 1 0 0 0 0 0 0 0 0 0

Total # of neighbors = 6773
Ave neighs/atom = 35.6474
Ave special neighs/atom = 10.1053
Neighbor list builds = 47
Dangerous builds = 0
unfix pysimm_md
min_style cg
minimize 0.001 0.001 10000 100000
WARNING: Using 'neigh_modify every 1 delay 0 check yes' setting during minimization (../min.cpp:190)
PPPM initialization ...
  using 12-bit tables for long-range coulomb (../kspace.cpp:332)
  G vector (1/distance) = 0.10531
  grid = 18 18 18
  stencil order = 5
  estimated absolute RMS force accuracy = 0.030516
  estimated relative force accuracy = 9.18979e-05
  using double precision KISS FFT
  3d grid and FFT values/proc = 12167 5832
Per MPI rank memory allocation (min/avg/max) = 15.18 | 15.18 | 15.18 Mbytes
Step Temp E_pair E_mol TotEng Press 
    2000    298.28802   -75.652262    470.61007    563.00525  0.025985385 
    2015    298.28802    -72.93393    338.64193    433.75545    1.9554389 
Loop time of 0.0544562 on 1 procs for 15 steps with 190 atoms

99.1% CPU use with 1 MPI tasks x no OpenMP threads

Minimization stats:
  Stopping criterion = energy tolerance
  Energy initial, next-to-last, final = 
         394.957803193      265.963670604      265.708000209
  Force two-norm initial, final = 464.528 33.1999
  Force max component initial, final = 99.1845 6.32797
  Final line search alpha, max atom move = 0.00834478 0.0528055
  Iterations, force evaluations = 15 30

MPI task timing breakdown:
Section |  min time  |  avg time  |  max time  |%varavg| %total
---------------------------------------------------------------
Pair    | 0.0079625  | 0.0079625  | 0.0079625  |   0.0 | 14.62
Bond    | 0.0026908  | 0.0026908  | 0.0026908  |   0.0 |  4.94
Kspace  | 0.043563   | 0.043563   | 0.043563   |   0.0 | 80.00
Neigh   | 0          | 0          | 0          |   0.0 |  0.00
Comm    | 1.6212e-05 | 1.6212e-05 | 1.6212e-05 |   0.0 |  0.03
Output  | 0          | 0          | 0          |   0.0 |  0.00
Modify  | 0          | 0          | 0          |   0.0 |  0.00
Other   |            | 0.0002241  |            |       |  0.41

Nlocal:    190 ave 190 max 190 min
Histogram: 1 0 0 0 0 0 0 0 0 0
Nghost:    0 ave 0 max 0 min
Histogram: 1 0 0 0 0 0 0 0 0 0
Neighs:    6776 ave 6776 max 6776 min
Histogram: 1 0 0 0 0 0 0 0 0 0

Total # of neighbors = 6776
Ave neighs/atom = 35.6632
Ave special neighs/atom = 10.1053
Neighbor list builds = 0
Dangerous builds = 0
write_dump all custom pysimm.dump.tmp id q x y z vx vy vz
quit


################################################################################
##################################    Init    ##################################
################################################################################
units           real
atom_style      full
pair_style      lj/cut/coul/long 12.0  12.0
kspace_style    pppm 1e-4
bond_style      harmonic
angle_style     harmonic
dihedral_style  fourier
improper_style  cvff
special_bonds   amber
pair_modify     mix arithmetic
read_data       temp.lmps
  orthogonal box = (-91.4513 -91.4513 -91.4513) to (91.4513 91.4513 91.4513)
  1 by 1 by 1 MPI processor grid
  reading atoms ...
  228 atoms
  reading velocities ...
  228 velocities
  scanning bonds ...
  3 = max bonds/atom
  scanning angles ...
  6 = max angles/atom
  scanning dihedrals ...
  10 = max dihedrals/atom
  scanning impropers ...
  2 = max impropers/atom
  reading bonds ...
  245 bonds
  reading angles ...
  392 angles
  reading dihedrals ...
  572 dihedrals
  reading impropers ...
  66 impropers
  4 = max # of 1-2 neighbors
  7 = max # of 1-3 neighbors
  14 = max # of 1-4 neighbors
  16 = max # of special neighbors
  special bonds CPU = 0.000330925 secs
  read_data CPU = 0.00509214 secs
################################################################################

timestep        1
fix             pysimm_md all nve/limit 0.1
run             2000
PPPM initialization ...
WARNING: System is not charge neutral, net charge = -3.6e-05 (../kspace.cpp:313)
  using 12-bit tables for long-range coulomb (../kspace.cpp:332)
  G vector (1/distance) = 0.105312
  grid = 18 18 18
  stencil order = 5
  estimated absolute RMS force accuracy = 0.0334301
  estimated relative force accuracy = 0.000100674
  using double precision KISS FFT
  3d grid and FFT values/proc = 12167 5832
Neighbor list info ...
  update every 1 steps, delay 10 steps, check yes
  max neighbors/atom: 2000, page size: 100000
  master list distance cutoff = 14
  ghost atom cutoff = 14
  binsize = 7, bins = 27 27 27
  1 neighbor lists, perpetual/occasional/extra = 1 0 0
  (1) pair lj/cut/coul/long, perpetual
      attributes: half, newton on
      pair build: half/bin/newton
      stencil: half/bin/3d/newton
      bin: standard
Per MPI rank memory allocation (min/avg/max) = 14.06 | 14.06 | 14.06 Mbytes
Step Temp E_pair E_mol TotEng Press 
       0    248.42103   -52.300994    554.69909    670.49066    1.6929276 
    2000    262.03281   -7.5201279    501.02679    670.80956   -2.3868655 
Loop time of 3.43626 on 1 procs for 2000 steps with 228 atoms

Performance: 50.287 ns/day, 0.477 hours/ns, 582.028 timesteps/s
100.0% CPU use with 1 MPI tasks x no OpenMP threads

MPI task timing breakdown:
Section |  min time  |  avg time  |  max time  |%varavg| %total
---------------------------------------------------------------
Pair    | 0.38435    | 0.38435    | 0.38435    |   0.0 | 11.18
Bond    | 0.18636    | 0.18636    | 0.18636    |   0.0 |  5.42
Kspace  | 2.8319     | 2.8319     | 2.8319     |   0.0 | 82.41
Neigh   | 0.018025   | 0.018025   | 0.018025   |   0.0 |  0.52
Comm    | 0.0011435  | 0.0011435  | 0.0011435  |   0.0 |  0.03
Output  | 2.6941e-05 | 2.6941e-05 | 2.6941e-05 |   0.0 |  0.00
Modify  | 0.0081589  | 0.0081589  | 0.0081589  |   0.0 |  0.24
Other   |            | 0.006283   |            |       |  0.18

Nlocal:    228 ave 228 max 228 min
Histogram: 1 0 0 0 0 0 0 0 0 0
Nghost:    0 ave 0 max 0 min
Histogram: 1 0 0 0 0 0 0 0 0 0
Neighs:    8099 ave 8099 max 8099 min
Histogram: 1 0 0 0 0 0 0 0 0 0

Total # of neighbors = 8099
Ave neighs/atom = 35.5219
Ave special neighs/atom = 10.1316
Neighbor list builds = 57
Dangerous builds = 0
unfix pysimm_md
min_style cg
minimize 0.001 0.001 10000 100000
WARNING: Using 'neigh_modify every 1 delay 0 check yes' setting during minimization (../min.cpp:190)
PPPM initialization ...
  using 12-bit tables for long-range coulomb (../kspace.cpp:332)
  G vector (1/distance) = 0.105312
  grid = 18 18 18
  stencil order = 5
  estimated absolute RMS force accuracy = 0.0334301
  estimated relative force accuracy = 0.000100674
  using double precision KISS FFT
  3d grid and FFT values/proc = 12167 5832
Per MPI rank memory allocation (min/avg/max) = 15.19 | 15.19 | 15.19 Mbytes
Step Temp E_pair E_mol TotEng Press 
    2000    262.03281   -7.5201279    501.02679    670.80956   -2.3868655 
    2017    262.03281   -21.588431      352.505    508.21947   0.89872674 
Loop time of 0.0645421 on 1 procs for 17 steps with 228 atoms

100.7% CPU use with 1 MPI tasks x no OpenMP threads

Minimization stats:
  Stopping criterion = energy tolerance
  Energy initial, next-to-last, final = 
         493.506659301      331.180312844      330.916568404
  Force two-norm initial, final = 486.155 36.6921
  Force max component initial, final = 113.436 6.33258
  Final line search alpha, max atom move = 0.00474429 0.0300436
  Iterations, force evaluations = 17 34

MPI task timing breakdown:
Section |  min time  |  avg time  |  max time  |%varavg| %total
---------------------------------------------------------------
Pair    | 0.010919   | 0.010919   | 0.010919   |   0.0 | 16.92
Bond    | 0.0036399  | 0.0036399  | 0.0036399  |   0.0 |  5.64
Kspace  | 0.04967    | 0.04967    | 0.04967    |   0.0 | 76.96
Neigh   | 0          | 0          | 0          |   0.0 |  0.00
Comm    | 1.502e-05  | 1.502e-05  | 1.502e-05  |   0.0 |  0.02
Output  | 0          | 0          | 0          |   0.0 |  0.00
Modify  | 0          | 0          | 0          |   0.0 |  0.00
Other   |            | 0.000298   |            |       |  0.46

Nlocal:    228 ave 228 max 228 min
Histogram: 1 0 0 0 0 0 0 0 0 0
Nghost:    0 ave 0 max 0 min
Histogram: 1 0 0 0 0 0 0 0 0 0
Neighs:    8094 ave 8094 max 8094 min
Histogram: 1 0 0 0 0 0 0 0 0 0

Total # of neighbors = 8094
Ave neighs/atom = 35.5
Ave special neighs/atom = 10.1316
Neighbor list builds = 0
Dangerous builds = 0
write_dump all custom pysimm.dump.tmp id q x y z vx vy vz
quit


################################################################################
##################################    Init    ##################################
################################################################################
units           real
atom_style      full
pair_style      lj/cut/coul/long 12.0  12.0
kspace_style    pppm 1e-4
bond_style      harmonic
angle_style     harmonic
dihedral_style  fourier
improper_style  cvff
special_bonds   amber
pair_modify     mix arithmetic
read_data       temp.lmps
  orthogonal box = (-91.4513 -91.4513 -91.4513) to (91.4513 91.4513 91.4513)
  1 by 1 by 1 MPI processor grid
  reading atoms ...
  266 atoms
  reading velocities ...
  266 velocities
  scanning bonds ...
  3 = max bonds/atom
  scanning angles ...
  6 = max angles/atom
  scanning dihedrals ...
  10 = max dihedrals/atom
  scanning impropers ...
  2 = max impropers/atom
  reading bonds ...
  286 bonds
  reading angles ...
  458 angles
  reading dihedrals ...
  669 dihedrals
  reading impropers ...
  77 impropers
  4 = max # of 1-2 neighbors
  7 = max # of 1-3 neighbors
  14 = max # of 1-4 neighbors
  16 = max # of special neighbors
  special bonds CPU = 0.000374079 secs
  read_data CPU = 0.00541401 secs
################################################################################

timestep        1
fix             pysimm_md all nve/limit 0.1
run             2000
PPPM initialization ...
WARNING: System is not charge neutral, net charge = -4.2e-05 (../kspace.cpp:313)
  using 12-bit tables for long-range coulomb (../kspace.cpp:332)
  G vector (1/distance) = 0.10531
  grid = 18 18 18
  stencil order = 5
  estimated absolute RMS force accuracy = 0.0361072
  estimated relative force accuracy = 0.000108736
  using double precision KISS FFT
  3d grid and FFT values/proc = 12167 5832
Neighbor list info ...
  update every 1 steps, delay 10 steps, check yes
  max neighbors/atom: 2000, page size: 100000
  master list distance cutoff = 14
  ghost atom cutoff = 14
  binsize = 7, bins = 27 27 27
  1 neighbor lists, perpetual/occasional/extra = 1 0 0
  (1) pair lj/cut/coul/long, perpetual
      attributes: half, newton on
      pair build: half/bin/newton
      stencil: half/bin/3d/newton
      bin: standard
Per MPI rank memory allocation (min/avg/max) = 14.07 | 14.07 | 14.07 Mbytes
Step Temp E_pair E_mol TotEng Press 
       0    224.51556    394.21478    536.16189    1107.7248    18.103723 
    2000    333.47862   -27.964197    610.60155      846.057   -1.3524264 
Loop time of 3.5538 on 1 procs for 2000 steps with 266 atoms

Performance: 48.624 ns/day, 0.494 hours/ns, 562.778 timesteps/s
100.0% CPU use with 1 MPI tasks x no OpenMP threads

MPI task timing breakdown:
Section |  min time  |  avg time  |  max time  |%varavg| %total
---------------------------------------------------------------
Pair    | 0.45922    | 0.45922    | 0.45922    |   0.0 | 12.92
Bond    | 0.21655    | 0.21655    | 0.21655    |   0.0 |  6.09
Kspace  | 2.8376     | 2.8376     | 2.8376     |   0.0 | 79.85
Neigh   | 0.023723   | 0.023723   | 0.023723   |   0.0 |  0.67
Comm    | 0.0012231  | 0.0012231  | 0.0012231  |   0.0 |  0.03
Output  | 2.3127e-05 | 2.3127e-05 | 2.3127e-05 |   0.0 |  0.00
Modify  | 0.009239   | 0.009239   | 0.009239   |   0.0 |  0.26
Other   |            | 0.006177   |            |       |  0.17

Nlocal:    266 ave 266 max 266 min
Histogram: 1 0 0 0 0 0 0 0 0 0
Nghost:    0 ave 0 max 0 min
Histogram: 1 0 0 0 0 0 0 0 0 0
Neighs:    9231 ave 9231 max 9231 min
Histogram: 1 0 0 0 0 0 0 0 0 0

Total # of neighbors = 9231
Ave neighs/atom = 34.703
Ave special neighs/atom = 10.1504
Neighbor list builds = 65
Dangerous builds = 0
unfix pysimm_md
min_style cg
minimize 0.001 0.001 10000 100000
WARNING: Using 'neigh_modify every 1 delay 0 check yes' setting during minimization (../min.cpp:190)
PPPM initialization ...
  using 12-bit tables for long-range coulomb (../kspace.cpp:332)
  G vector (1/distance) = 0.10531
  grid = 18 18 18
  stencil order = 5
  estimated absolute RMS force accuracy = 0.0361072
  estimated relative force accuracy = 0.000108736
  using double precision KISS FFT
  3d grid and FFT values/proc = 12167 5832
Per MPI rank memory allocation (min/avg/max) = 15.19 | 15.19 | 15.19 Mbytes
Step Temp E_pair E_mol TotEng Press 
    2000    333.47862   -27.964197    610.60155      846.057   -1.3524264 
    2030    333.47862    -68.12232    438.95013    634.24746    1.6760832 
Loop time of 0.1113 on 1 procs for 30 steps with 266 atoms

99.7% CPU use with 1 MPI tasks x no OpenMP threads

Minimization stats:
  Stopping criterion = energy tolerance
  Energy initial, next-to-last, final = 
         582.637350135       370.87114741      370.827805879
  Force two-norm initial, final = 538.867 21.1745
  Force max component initial, final = 112.288 3.27538
  Final line search alpha, max atom move = 0.00674981 0.0221082
  Iterations, force evaluations = 30 60

MPI task timing breakdown:
Section |  min time  |  avg time  |  max time  |%varavg| %total
---------------------------------------------------------------
Pair    | 0.021301   | 0.021301   | 0.021301   |   0.0 | 19.14
Bond    | 0.0070395  | 0.0070395  | 0.0070395  |   0.0 |  6.32
Kspace  | 0.082425   | 0.082425   | 0.082425   |   0.0 | 74.06
Neigh   | 0          | 0          | 0          |   0.0 |  0.00
Comm    | 2.0266e-05 | 2.0266e-05 | 2.0266e-05 |   0.0 |  0.02
Output  | 0          | 0          | 0          |   0.0 |  0.00
Modify  | 0          | 0          | 0          |   0.0 |  0.00
Other   |            | 0.000514   |            |       |  0.46

Nlocal:    266 ave 266 max 266 min
Histogram: 1 0 0 0 0 0 0 0 0 0
Nghost:    0 ave 0 max 0 min
Histogram: 1 0 0 0 0 0 0 0 0 0
Neighs:    9229 ave 9229 max 9229 min
Histogram: 1 0 0 0 0 0 0 0 0 0

Total # of neighbors = 9229
Ave neighs/atom = 34.6955
Ave special neighs/atom = 10.1504
Neighbor list builds = 0
Dangerous builds = 0
write_dump all custom pysimm.dump.tmp id q x y z vx vy vz
quit


################################################################################
##################################    Init    ##################################
################################################################################
units           real
atom_style      full
pair_style      lj/cut/coul/long 12.0  12.0
kspace_style    pppm 1e-4
bond_style      harmonic
angle_style     harmonic
dihedral_style  fourier
improper_style  cvff
special_bonds   amber
pair_modify     mix arithmetic
read_data       temp.lmps
  orthogonal box = (-91.4513 -91.4513 -91.4513) to (91.4513 91.4513 91.4513)
  1 by 1 by 1 MPI processor grid
  reading atoms ...
  304 atoms
  reading velocities ...
  304 velocities
  scanning bonds ...
  3 = max bonds/atom
  scanning angles ...
  6 = max angles/atom
  scanning dihedrals ...
  10 = max dihedrals/atom
  scanning impropers ...
  2 = max impropers/atom
  reading bonds ...
  327 bonds
  reading angles ...
  524 angles
  reading dihedrals ...
  766 dihedrals
  reading impropers ...
  88 impropers
  4 = max # of 1-2 neighbors
  7 = max # of 1-3 neighbors
  14 = max # of 1-4 neighbors
  16 = max # of special neighbors
  special bonds CPU = 0.000467062 secs
  read_data CPU = 0.00599504 secs
################################################################################

timestep        1
fix             pysimm_md all nve/limit 0.1
run             2000
PPPM initialization ...
WARNING: System is not charge neutral, net charge = -4.8e-05 (../kspace.cpp:313)
  using 12-bit tables for long-range coulomb (../kspace.cpp:332)
  G vector (1/distance) = 0.11315
  grid = 20 20 20
  stencil order = 5
  estimated absolute RMS force accuracy = 0.0301652
  estimated relative force accuracy = 9.08416e-05
  using double precision KISS FFT
  3d grid and FFT values/proc = 15625 8000
Neighbor list info ...
  update every 1 steps, delay 10 steps, check yes
  max neighbors/atom: 2000, page size: 100000
  master list distance cutoff = 14
  ghost atom cutoff = 14
  binsize = 7, bins = 27 27 27
  1 neighbor lists, perpetual/occasional/extra = 1 0 0
  (1) pair lj/cut/coul/long, perpetual
      attributes: half, newton on
      pair build: half/bin/newton
      stencil: half/bin/3d/newton
      bin: standard
Per MPI rank memory allocation (min/avg/max) = 14.39 | 14.39 | 14.39 Mbytes
Step Temp E_pair E_mol TotEng Press 
       0    291.70625   -16.148626    682.63022    929.94643    2.2607711 
    2000    279.27478    3.4362941    667.23383    922.90704   -0.8425269 
Loop time of 4.27126 on 1 procs for 2000 steps with 304 atoms

Performance: 40.456 ns/day, 0.593 hours/ns, 468.246 timesteps/s
100.0% CPU use with 1 MPI tasks x no OpenMP threads

MPI task timing breakdown:
Section |  min time  |  avg time  |  max time  |%varavg| %total
---------------------------------------------------------------
Pair    | 0.51498    | 0.51498    | 0.51498    |   0.0 | 12.06
Bond    | 0.24901    | 0.24901    | 0.24901    |   0.0 |  5.83
Kspace  | 3.4605     | 3.4605     | 3.4605     |   0.0 | 81.02
Neigh   | 0.027309   | 0.027309   | 0.027309   |   0.0 |  0.64
Comm    | 0.001991   | 0.001991   | 0.001991   |   0.0 |  0.05
Output  | 2.5034e-05 | 2.5034e-05 | 2.5034e-05 |   0.0 |  0.00
Modify  | 0.010544   | 0.010544   | 0.010544   |   0.0 |  0.25
Other   |            | 0.0069     |            |       |  0.16

Nlocal:    304 ave 304 max 304 min
Histogram: 1 0 0 0 0 0 0 0 0 0
Nghost:    16 ave 16 max 16 min
Histogram: 1 0 0 0 0 0 0 0 0 0
Neighs:    10981 ave 10981 max 10981 min
Histogram: 1 0 0 0 0 0 0 0 0 0

Total # of neighbors = 10981
Ave neighs/atom = 36.1217
Ave special neighs/atom = 10.1645
Neighbor list builds = 66
Dangerous builds = 0
unfix pysimm_md
min_style cg
minimize 0.001 0.001 10000 100000
WARNING: Using 'neigh_modify every 1 delay 0 check yes' setting during minimization (../min.cpp:190)
PPPM initialization ...
  using 12-bit tables for long-range coulomb (../kspace.cpp:332)
  G vector (1/distance) = 0.11315
  grid = 20 20 20
  stencil order = 5
  estimated absolute RMS force accuracy = 0.0301652
  estimated relative force accuracy = 9.08416e-05
  using double precision KISS FFT
  3d grid and FFT values/proc = 15625 8000
Per MPI rank memory allocation (min/avg/max) = 15.51 | 15.51 | 15.51 Mbytes
Step Temp E_pair E_mol TotEng Press 
    2000    279.27478    3.4362941    667.23383    922.90704   -0.8425269 
    2031    279.27478   -18.425235    471.26939    705.08107    1.5899538 
Loop time of 0.14214 on 1 procs for 31 steps with 304 atoms

99.9% CPU use with 1 MPI tasks x no OpenMP threads

Minimization stats:
  Stopping criterion = energy tolerance
  Energy initial, next-to-last, final = 
         670.670124759      453.234695027      452.844157761
  Force two-norm initial, final = 524.504 30.752
  Force max component initial, final = 98.3418 5.22013
  Final line search alpha, max atom move = 0.00577286 0.0301351
  Iterations, force evaluations = 31 62

MPI task timing breakdown:
Section |  min time  |  avg time  |  max time  |%varavg| %total
---------------------------------------------------------------
Pair    | 0.026432   | 0.026432   | 0.026432   |   0.0 | 18.60
Bond    | 0.0087159  | 0.0087159  | 0.0087159  |   0.0 |  6.13
Kspace  | 0.10632    | 0.10632    | 0.10632    |   0.0 | 74.80
Neigh   | 0          | 0          | 0          |   0.0 |  0.00
Comm    | 5.0545e-05 | 5.0545e-05 | 5.0545e-05 |   0.0 |  0.04
Output  | 0          | 0          | 0          |   0.0 |  0.00
Modify  | 0          | 0          | 0          |   0.0 |  0.00
Other   |            | 0.0006218  |            |       |  0.44

Nlocal:    304 ave 304 max 304 min
Histogram: 1 0 0 0 0 0 0 0 0 0
Nghost:    16 ave 16 max 16 min
Histogram: 1 0 0 0 0 0 0 0 0 0
Neighs:    10987 ave 10987 max 10987 min
Histogram: 1 0 0 0 0 0 0 0 0 0

Total # of neighbors = 10987
Ave neighs/atom = 36.1414
Ave special neighs/atom = 10.1645
Neighbor list builds = 0
Dangerous builds = 0
write_dump all custom pysimm.dump.tmp id q x y z vx vy vz
quit


################################################################################
##################################    Init    ##################################
################################################################################
units           real
atom_style      full
pair_style      lj/cut/coul/long 12.0  12.0
kspace_style    pppm 1e-4
bond_style      harmonic
angle_style     harmonic
dihedral_style  fourier
improper_style  cvff
special_bonds   amber
pair_modify     mix arithmetic
read_data       temp.lmps
  orthogonal box = (-91.4513 -91.4513 -91.4513) to (91.4513 91.4513 91.4513)
  1 by 1 by 1 MPI processor grid
  reading atoms ...
  342 atoms
  reading velocities ...
  342 velocities
  scanning bonds ...
  3 = max bonds/atom
  scanning angles ...
  6 = max angles/atom
  scanning dihedrals ...
  10 = max dihedrals/atom
  scanning impropers ...
  2 = max impropers/atom
  reading bonds ...
  368 bonds
  reading angles ...
  590 angles
  reading dihedrals ...
  863 dihedrals
  reading impropers ...
  99 impropers
  4 = max # of 1-2 neighbors
  7 = max # of 1-3 neighbors
  14 = max # of 1-4 neighbors
  16 = max # of special neighbors
  special bonds CPU = 0.000460863 secs
  read_data CPU = 0.00601411 secs
################################################################################

timestep        1
fix             pysimm_md all nve/limit 0.1
run             2000
PPPM initialization ...
WARNING: System is not charge neutral, net charge = -5.4e-05 (../kspace.cpp:313)
  using 12-bit tables for long-range coulomb (../kspace.cpp:332)
  G vector (1/distance) = 0.113149
  grid = 20 20 20
  stencil order = 5
  estimated absolute RMS force accuracy = 0.0319945
  estimated relative force accuracy = 9.63504e-05
  using double precision KISS FFT
  3d grid and FFT values/proc = 15625 8000
Neighbor list info ...
  update every 1 steps, delay 10 steps, check yes
  max neighbors/atom: 2000, page size: 100000
  master list distance cutoff = 14
  ghost atom cutoff = 14
  binsize = 7, bins = 27 27 27
  1 neighbor lists, perpetual/occasional/extra = 1 0 0
  (1) pair lj/cut/coul/long, perpetual
      attributes: half, newton on
      pair build: half/bin/newton
      stencil: half/bin/3d/newton
      bin: standard
Per MPI rank memory allocation (min/avg/max) = 14.39 | 14.39 | 14.39 Mbytes
Step Temp E_pair E_mol TotEng Press 
       0    248.19768    17268.255    764.38649    18284.924    776.43644 
    2000    333.96955    -13.04658    796.34197    1122.7608    1.3007291 
Loop time of 4.48293 on 1 procs for 2000 steps with 342 atoms

Performance: 38.546 ns/day, 0.623 hours/ns, 446.136 timesteps/s
100.0% CPU use with 1 MPI tasks x no OpenMP threads

MPI task timing breakdown:
Section |  min time  |  avg time  |  max time  |%varavg| %total
---------------------------------------------------------------
Pair    | 0.58799    | 0.58799    | 0.58799    |   0.0 | 13.12
Bond    | 0.28093    | 0.28093    | 0.28093    |   0.0 |  6.27
Kspace  | 3.5509     | 3.5509     | 3.5509     |   0.0 | 79.21
Neigh   | 0.042578   | 0.042578   | 0.042578   |   0.0 |  0.95
Comm    | 0.0024986  | 0.0024986  | 0.0024986  |   0.0 |  0.06
Output  | 3.8862e-05 | 3.8862e-05 | 3.8862e-05 |   0.0 |  0.00
Modify  | 0.011797   | 0.011797   | 0.011797   |   0.0 |  0.26
Other   |            | 0.006245   |            |       |  0.14

Nlocal:    342 ave 342 max 342 min
Histogram: 1 0 0 0 0 0 0 0 0 0
Nghost:    54 ave 54 max 54 min
Histogram: 1 0 0 0 0 0 0 0 0 0
Neighs:    12586 ave 12586 max 12586 min
Histogram: 1 0 0 0 0 0 0 0 0 0

Total # of neighbors = 12586
Ave neighs/atom = 36.8012
Ave special neighs/atom = 10.1754
Neighbor list builds = 89
Dangerous builds = 0
unfix pysimm_md
min_style cg
minimize 0.001 0.001 10000 100000
[...]
  using double precision KISS FFT
  3d grid and FFT values/proc = 68921 46656
Per MPI rank memory allocation (min/avg/max) = 22.06 | 22.06 | 22.06 Mbytes
Step Temp E_pair E_mol TotEng Press 
    2000    472.74059   -233.72011    4413.9281    6695.5406     0.235091 
    2036    472.74059   -317.65326     2928.818    5126.4973    1.9525075 
Loop time of 1.23186 on 1 procs for 36 steps with 1786 atoms

99.9% CPU use with 1 MPI tasks x no OpenMP threads

Minimization stats:
  Stopping criterion = energy tolerance
  Energy initial, next-to-last, final = 
         4180.20801257       2613.1129544      2611.16470536
  Force two-norm initial, final = 1367.37 71.6271
  Force max component initial, final = 171.534 7.7476
  Final line search alpha, max atom move = 0.00305195 0.0236453
  Iterations, force evaluations = 36 72

MPI task timing breakdown:
Section |  min time  |  avg time  |  max time  |%varavg| %total
---------------------------------------------------------------
Pair    | 0.3646     | 0.3646     | 0.3646     |   0.0 | 29.60
Bond    | 0.056588   | 0.056588   | 0.056588   |   0.0 |  4.59
Kspace  | 0.80293    | 0.80293    | 0.80293    |   0.0 | 65.18
Neigh   | 0.004601   | 0.004601   | 0.004601   |   0.0 |  0.37
Comm    | 7.2718e-05 | 7.2718e-05 | 7.2718e-05 |   0.0 |  0.01
Output  | 0          | 0          | 0          |   0.0 |  0.00
Modify  | 0          | 0          | 0          |   0.0 |  0.00
Other   |            | 0.003064   |            |       |  0.25

Nlocal:    1786 ave 1786 max 1786 min
Histogram: 1 0 0 0 0 0 0 0 0 0
Nghost:    0 ave 0 max 0 min
Histogram: 1 0 0 0 0 0 0 0 0 0
Neighs:    146457 ave 146457 max 146457 min
Histogram: 1 0 0 0 0 0 0 0 0 0

Total # of neighbors = 146457
Ave neighs/atom = 82.0028
Ave special neighs/atom = 10.2464
Neighbor list builds = 1
Dangerous builds = 0
write_dump all custom pysimm.dump.tmp id q x y z vx vy vz
quit


################################################################################
##################################    Init    ##################################
################################################################################
units           real
atom_style      full
pair_style      lj/cut/coul/long 12.0  12.0
kspace_style    pppm 1e-4
bond_style      harmonic
angle_style     harmonic
dihedral_style  fourier
improper_style  cvff
special_bonds   amber
pair_modify     mix arithmetic
read_data       temp.lmps
  orthogonal box = (-193.004 -193.004 -193.004) to (193.004 193.004 193.004)
  1 by 1 by 1 MPI processor grid
  reading atoms ...
  1824 atoms
  reading velocities ...
  1824 velocities
  scanning bonds ...
  3 = max bonds/atom
  scanning angles ...
  6 = max angles/atom
  scanning dihedrals ...
  10 = max dihedrals/atom
  scanning impropers ...
  2 = max impropers/atom
  reading bonds ...
  1967 bonds
  reading angles ...
  3164 angles
  reading dihedrals ...
  4646 dihedrals
  reading impropers ...
  528 impropers
  4 = max # of 1-2 neighbors
  7 = max # of 1-3 neighbors
  14 = max # of 1-4 neighbors
  16 = max # of special neighbors
  special bonds CPU = 0.00147796 secs
  read_data CPU = 0.018889 secs
################################################################################

timestep        1
fix             pysimm_md all nve/limit 0.1
run             2000
PPPM initialization ...
WARNING: System is not charge neutral, net charge = -0.000288 (../kspace.cpp:313)
  using 12-bit tables for long-range coulomb (../kspace.cpp:332)
  G vector (1/distance) = 0.101409
  grid = 36 36 36
  stencil order = 5
  estimated absolute RMS force accuracy = 0.0346402
  estimated relative force accuracy = 0.000104318
  using double precision KISS FFT
  3d grid and FFT values/proc = 68921 46656
Neighbor list info ...
  update every 1 steps, delay 10 steps, check yes
  max neighbors/atom: 2000, page size: 100000
  master list distance cutoff = 14
  ghost atom cutoff = 14
  binsize = 7, bins = 56 56 56
  1 neighbor lists, perpetual/occasional/extra = 1 0 0
  (1) pair lj/cut/coul/long, perpetual
      attributes: half, newton on
      pair build: half/bin/newton
      stencil: half/bin/3d/newton
      bin: standard
Per MPI rank memory allocation (min/avg/max) = 20.99 | 20.99 | 20.99 Mbytes
Step Temp E_pair E_mol TotEng Press 
       0    462.89477   -354.78858    66217.444    68378.033   -53.695058 
    2000    364.88232   -302.30616    4154.6173    5835.0878  0.045638203 
Loop time of 30.0835 on 1 procs for 2000 steps with 1824 atoms

Performance: 5.744 ns/day, 4.178 hours/ns, 66.482 timesteps/s
100.0% CPU use with 1 MPI tasks x no OpenMP threads

MPI task timing breakdown:
Section |  min time  |  avg time  |  max time  |%varavg| %total
---------------------------------------------------------------
Pair    | 6.3421     | 6.3421     | 6.3421     |   0.0 | 21.08
Bond    | 1.4602     | 1.4602     | 1.4602     |   0.0 |  4.85
Kspace  | 21.535     | 21.535     | 21.535     |   0.0 | 71.58
Neigh   | 0.6702     | 0.6702     | 0.6702     |   0.0 |  2.23
Comm    | 0.0061474  | 0.0061474  | 0.0061474  |   0.0 |  0.02
Output  | 2.5988e-05 | 2.5988e-05 | 2.5988e-05 |   0.0 |  0.00
Modify  | 0.058252   | 0.058252   | 0.058252   |   0.0 |  0.19
Other   |            | 0.01162    |            |       |  0.04

Nlocal:    1824 ave 1824 max 1824 min
Histogram: 1 0 0 0 0 0 0 0 0 0
Nghost:    0 ave 0 max 0 min
Histogram: 1 0 0 0 0 0 0 0 0 0
Neighs:    140264 ave 140264 max 140264 min
Histogram: 1 0 0 0 0 0 0 0 0 0

Total # of neighbors = 140264
Ave neighs/atom = 76.8991
Ave special neighs/atom = 10.2467
Neighbor list builds = 155
Dangerous builds = 0
unfix pysimm_md
min_style cg
minimize 0.001 0.001 10000 100000
WARNING: Using 'neigh_modify every 1 delay 0 check yes' setting during minimization (../min.cpp:190)
PPPM initialization ...
  using 12-bit tables for long-range coulomb (../kspace.cpp:332)
  G vector (1/distance) = 0.101409
  grid = 36 36 36
  stencil order = 5
  estimated absolute RMS force accuracy = 0.0346402
  estimated relative force accuracy = 0.000104318
  using double precision KISS FFT
  3d grid and FFT values/proc = 68921 46656
Per MPI rank memory allocation (min/avg/max) = 22.11 | 22.11 | 22.11 Mbytes
Step Temp E_pair E_mol TotEng Press 
    2000    364.88232   -302.30616    4154.6173    5835.0878  0.045638203 
    2022    364.88232   -437.04746    3040.7471    4586.4763    1.1769474 
Loop time of 0.678718 on 1 procs for 22 steps with 1824 atoms

100.2% CPU use with 1 MPI tasks x no OpenMP threads

Minimization stats:
  Stopping criterion = energy tolerance
  Energy initial, next-to-last, final = 
         3852.31115092      2605.85178002       2603.6996384
  Force two-norm initial, final = 1314.44 83.9479
  Force max component initial, final = 192.078 8.0467
  Final line search alpha, max atom move = 0.00218703 0.0175984
  Iterations, force evaluations = 22 43

MPI task timing breakdown:
Section |  min time  |  avg time  |  max time  |%varavg| %total
---------------------------------------------------------------
Pair    | 0.19795    | 0.19795    | 0.19795    |   0.0 | 29.17
Bond    | 0.032857   | 0.032857   | 0.032857   |   0.0 |  4.84
Kspace  | 0.44219    | 0.44219    | 0.44219    |   0.0 | 65.15
Neigh   | 0.003861   | 0.003861   | 0.003861   |   0.0 |  0.57
Comm    | 4.7922e-05 | 4.7922e-05 | 4.7922e-05 |   0.0 |  0.01
Output  | 0          | 0          | 0          |   0.0 |  0.00
Modify  | 0          | 0          | 0          |   0.0 |  0.00
Other   |            | 0.001807   |            |       |  0.27

Nlocal:    1824 ave 1824 max 1824 min
Histogram: 1 0 0 0 0 0 0 0 0 0
Nghost:    0 ave 0 max 0 min
Histogram: 1 0 0 0 0 0 0 0 0 0
Neighs:    140170 ave 140170 max 140170 min
Histogram: 1 0 0 0 0 0 0 0 0 0

Total # of neighbors = 140170
Ave neighs/atom = 76.8476
Ave special neighs/atom = 10.2467
Neighbor list builds = 1
Dangerous builds = 0
write_dump all custom pysimm.dump.tmp id q x y z vx vy vz
quit


################################################################################
##################################    Init    ##################################
################################################################################
units           real
atom_style      full
pair_style      lj/cut/coul/long 12.0  12.0
kspace_style    pppm 1e-4
bond_style      harmonic
angle_style     harmonic
dihedral_style  fourier
improper_style  cvff
special_bonds   amber
pair_modify     mix arithmetic
read_data       temp.lmps
  orthogonal box = (-194.363 -194.363 -194.363) to (194.363 194.363 194.363)
  1 by 1 by 1 MPI processor grid
  reading atoms ...
  1862 atoms
  reading velocities ...
  1862 velocities
  scanning bonds ...
  3 = max bonds/atom
  scanning angles ...
  6 = max angles/atom
  scanning dihedrals ...
  10 = max dihedrals/atom
  scanning impropers ...
  2 = max impropers/atom
  reading bonds ...
  2008 bonds
  reading angles ...
  3230 angles
  reading dihedrals ...
  4743 dihedrals
  reading impropers ...
  539 impropers
  4 = max # of 1-2 neighbors
  7 = max # of 1-3 neighbors
  14 = max # of 1-4 neighbors
  16 = max # of special neighbors
  special bonds CPU = 0.00137186 secs
  read_data CPU = 0.0185931 secs
################################################################################

timestep        1
fix             pysimm_md all nve/limit 0.1
run             2000
PPPM initialization ...
WARNING: System is not charge neutral, net charge = -0.000294 (../kspace.cpp:313)
  using 12-bit tables for long-range coulomb (../kspace.cpp:332)
  G vector (1/distance) = 0.100904
  grid = 36 36 36
  stencil order = 5
  estimated absolute RMS force accuracy = 0.0351449
  estimated relative force accuracy = 0.000105838
  using double precision KISS FFT
  3d grid and FFT values/proc = 68921 46656
Neighbor list info ...
  update every 1 steps, delay 10 steps, check yes
  max neighbors/atom: 2000, page size: 100000
  master list distance cutoff = 14
  ghost atom cutoff = 14
  binsize = 7, bins = 56 56 56
  1 neighbor lists, perpetual/occasional/extra = 1 0 0
  (1) pair lj/cut/coul/long, perpetual
      attributes: half, newton on
      pair build: half/bin/newton
      stencil: half/bin/3d/newton
      bin: standard
Per MPI rank memory allocation (min/avg/max) = 20.99 | 20.99 | 20.99 Mbytes
Step Temp E_pair E_mol TotEng Press 
       0    357.43991   -474.39574    218857.11    220365.54   -176.67996 
    2000    394.85492   -332.37904    4353.6451    6211.6398   0.25118206 
Loop time of 29.7013 on 1 procs for 2000 steps with 1862 atoms

Performance: 5.818 ns/day, 4.125 hours/ns, 67.337 timesteps/s
99.8% CPU use with 1 MPI tasks x no OpenMP threads

MPI task timing breakdown:
Section |  min time  |  avg time  |  max time  |%varavg| %total
---------------------------------------------------------------
Pair    | 6.3641     | 6.3641     | 6.3641     |   0.0 | 21.43
Bond    | 1.4643     | 1.4643     | 1.4643     |   0.0 |  4.93
Kspace  | 21.038     | 21.038     | 21.038     |   0.0 | 70.83
Neigh   | 0.75812    | 0.75812    | 0.75812    |   0.0 |  2.55
Comm    | 0.0065532  | 0.0065532  | 0.0065532  |   0.0 |  0.02
Output  | 4.6968e-05 | 4.6968e-05 | 4.6968e-05 |   0.0 |  0.00
Modify  | 0.059357   | 0.059357   | 0.059357   |   0.0 |  0.20
Other   |            | 0.01086    |            |       |  0.04

Nlocal:    1862 ave 1862 max 1862 min
Histogram: 1 0 0 0 0 0 0 0 0 0
Nghost:    0 ave 0 max 0 min
Histogram: 1 0 0 0 0 0 0 0 0 0
Neighs:    152191 ave 152191 max 152191 min
Histogram: 1 0 0 0 0 0 0 0 0 0

Total # of neighbors = 152191
Ave neighs/atom = 81.7352
Ave special neighs/atom = 10.247
Neighbor list builds = 170
Dangerous builds = 0
unfix pysimm_md
min_style cg
minimize 0.001 0.001 10000 100000
WARNING: Using 'neigh_modify every 1 delay 0 check yes' setting during minimization (../min.cpp:190)
PPPM initialization ...
  using 12-bit tables for long-range coulomb (../kspace.cpp:332)
  G vector (1/distance) = 0.100904
  grid = 36 36 36
  stencil order = 5
  estimated absolute RMS force accuracy = 0.0351449
  estimated relative force accuracy = 0.000105838
  using double precision KISS FFT
  3d grid and FFT values/proc = 68921 46656
Per MPI rank memory allocation (min/avg/max) = 22.11 | 22.11 | 22.11 Mbytes
Step Temp E_pair E_mol TotEng Press 
    2000    394.85492   -332.37904    4353.6451    6211.6398   0.25118206 
    2027    394.85492   -410.81272    3106.5809     4886.142    1.4765553 
Loop time of 0.900177 on 1 procs for 27 steps with 1862 atoms

100.1% CPU use with 1 MPI tasks x no OpenMP threads

Minimization stats:
  Stopping criterion = energy tolerance
  Energy initial, next-to-last, final = 
         4021.26602145      2697.58550942      2695.76819774
  Force two-norm initial, final = 1266.59 91.5895
  Force max component initial, final = 199.847 11.0426
  Final line search alpha, max atom move = 0.00268898 0.0296933
  Iterations, force evaluations = 27 53

MPI task timing breakdown:
Section |  min time  |  avg time  |  max time  |%varavg| %total
---------------------------------------------------------------
Pair    | 0.27137    | 0.27137    | 0.27137    |   0.0 | 30.15
Bond    | 0.043125   | 0.043125   | 0.043125   |   0.0 |  4.79
Kspace  | 0.57843    | 0.57843    | 0.57843    |   0.0 | 64.26
Neigh   | 0.0048468  | 0.0048468  | 0.0048468  |   0.0 |  0.54
Comm    | 6.4373e-05 | 6.4373e-05 | 6.4373e-05 |   0.0 |  0.01
Output  | 0          | 0          | 0          |   0.0 |  0.00
Modify  | 0          | 0          | 0          |   0.0 |  0.00
Other   |            | 0.002349   |            |       |  0.26

Nlocal:    1862 ave 1862 max 1862 min
Histogram: 1 0 0 0 0 0 0 0 0 0
Nghost:    0 ave 0 max 0 min
Histogram: 1 0 0 0 0 0 0 0 0 0
Neighs:    152143 ave 152143 max 152143 min
Histogram: 1 0 0 0 0 0 0 0 0 0

Total # of neighbors = 152143
Ave neighs/atom = 81.7095
Ave special neighs/atom = 10.247
Neighbor list builds = 1
Dangerous builds = 0
write_dump all custom pysimm.dump.tmp id q x y z vx vy vz
quit


################################################################################
##################################    Init    ##################################
################################################################################
units           real
atom_style      full
pair_style      lj/cut/coul/long 12.0  12.0
kspace_style    pppm 1e-4
bond_style      harmonic
angle_style     harmonic
dihedral_style  fourier
improper_style  cvff
special_bonds   amber
pair_modify     mix arithmetic
read_data       temp.lmps
  orthogonal box = (-195.703 -195.703 -195.703) to (195.703 195.703 195.703)
  1 by 1 by 1 MPI processor grid
  reading atoms ...
  1900 atoms
  reading velocities ...
  1900 velocities
  scanning bonds ...
  3 = max bonds/atom
  scanning angles ...
  6 = max angles/atom
  scanning dihedrals ...
  10 = max dihedrals/atom
  scanning impropers ...
  2 = max impropers/atom
  reading bonds ...
  2049 bonds
  reading angles ...
  3296 angles
  reading dihedrals ...
  4840 dihedrals
  reading impropers ...
  550 impropers
  4 = max # of 1-2 neighbors
  7 = max # of 1-3 neighbors
  14 = max # of 1-4 neighbors
  16 = max # of special neighbors
  special bonds CPU = 0.00128198 secs
  read_data CPU = 0.017298 secs
################################################################################

timestep        1
fix             pysimm_md all nve/limit 0.1
run             2000
PPPM initialization ...
WARNING: System is not charge neutral, net charge = -0.0003 (../kspace.cpp:313)
  using 12-bit tables for long-range coulomb (../kspace.cpp:332)
  G vector (1/distance) = 0.100411
  grid = 36 36 36
  stencil order = 5
  estimated absolute RMS force accuracy = 0.0356428
  estimated relative force accuracy = 0.000107337
  using double precision KISS FFT
  3d grid and FFT values/proc = 68921 46656
Neighbor list info ...
  update every 1 steps, delay 10 steps, check yes
  max neighbors/atom: 2000, page size: 100000
  master list distance cutoff = 14
  ghost atom cutoff = 14
  binsize = 7, bins = 56 56 56
  1 neighbor lists, perpetual/occasional/extra = 1 0 0
  (1) pair lj/cut/coul/long, perpetual
      attributes: half, newton on
      pair build: half/bin/newton
      stencil: half/bin/3d/newton
      bin: standard
Per MPI rank memory allocation (min/avg/max) = 20.99 | 20.99 | 20.99 Mbytes
Step Temp E_pair E_mol TotEng Press 
       0    386.96154   -448.28879    213511.99    215254.12   -168.53181 
    2000      354.904   -384.78729    4499.4304    6123.5979   -1.2766789 
Loop time of 30.4474 on 1 procs for 2000 steps with 1900 atoms

Performance: 5.675 ns/day, 4.229 hours/ns, 65.687 timesteps/s
99.9% CPU use with 1 MPI tasks x no OpenMP threads

MPI task timing breakdown:
Section |  min time  |  avg time  |  max time  |%varavg| %total
---------------------------------------------------------------
Pair    | 7.1049     | 7.1049     | 7.1049     |   0.0 | 23.33
Bond    | 1.5035     | 1.5035     | 1.5035     |   0.0 |  4.94
Kspace  | 20.971     | 20.971     | 20.971     |   0.0 | 68.88
Neigh   | 0.79116    | 0.79116    | 0.79116    |   0.0 |  2.60
Comm    | 0.0064154  | 0.0064154  | 0.0064154  |   0.0 |  0.02
Output  | 4.4823e-05 | 4.4823e-05 | 4.4823e-05 |   0.0 |  0.00
Modify  | 0.059148   | 0.059148   | 0.059148   |   0.0 |  0.19
Other   |            | 0.01119    |            |       |  0.04

Nlocal:    1900 ave 1900 max 1900 min
Histogram: 1 0 0 0 0 0 0 0 0 0
Nghost:    0 ave 0 max 0 min
Histogram: 1 0 0 0 0 0 0 0 0 0
Neighs:    154098 ave 154098 max 154098 min
Histogram: 1 0 0 0 0 0 0 0 0 0

Total # of neighbors = 154098
Ave neighs/atom = 81.1042
Ave special neighs/atom = 10.2474
Neighbor list builds = 164
Dangerous builds = 0
unfix pysimm_md
min_style cg
minimize 0.001 0.001 10000 100000
WARNING: Using 'neigh_modify every 1 delay 0 check yes' setting during minimization (../min.cpp:190)
PPPM initialization ...
  using 12-bit tables for long-range coulomb (../kspace.cpp:332)
  G vector (1/distance) = 0.100411
  grid = 36 36 36
  stencil order = 5
  estimated absolute RMS force accuracy = 0.0356428
  estimated relative force accuracy = 0.000107337
  using double precision KISS FFT
  3d grid and FFT values/proc = 68921 46656
Per MPI rank memory allocation (min/avg/max) = 22.12 | 22.12 | 22.12 Mbytes
Step Temp E_pair E_mol TotEng Press 
    2000      354.904   -384.78729    4499.4304    6123.5979   -1.2766789 
    2025      354.904   -418.64454    3183.2302    4773.5405    1.5690899 
Loop time of 0.892971 on 1 procs for 25 steps with 1900 atoms

99.8% CPU use with 1 MPI tasks x no OpenMP threads

Minimization stats:
  Stopping criterion = energy tolerance
  Energy initial, next-to-last, final = 
         4114.64307817      2767.22723285      2764.58568793
  Force two-norm initial, final = 1345.5 95.3005
  Force max component initial, final = 176.009 9.44367
  Final line search alpha, max atom move = 0.00238577 0.0225304
  Iterations, force evaluations = 25 50

MPI task timing breakdown:
Section |  min time  |  avg time  |  max time  |%varavg| %total
---------------------------------------------------------------
Pair    | 0.26664    | 0.26664    | 0.26664    |   0.0 | 29.86
Bond    | 0.043469   | 0.043469   | 0.043469   |   0.0 |  4.87
Kspace  | 0.57608    | 0.57608    | 0.57608    |   0.0 | 64.51
Neigh   | 0.0044079  | 0.0044079  | 0.0044079  |   0.0 |  0.49
Comm    | 6.7949e-05 | 6.7949e-05 | 6.7949e-05 |   0.0 |  0.01
Output  | 0          | 0          | 0          |   0.0 |  0.00
Modify  | 0          | 0          | 0          |   0.0 |  0.00
Other   |            | 0.002313   |            |       |  0.26

Nlocal:    1900 ave 1900 max 1900 min
Histogram: 1 0 0 0 0 0 0 0 0 0
Nghost:    0 ave 0 max 0 min
Histogram: 1 0 0 0 0 0 0 0 0 0
Neighs:    154111 ave 154111 max 154111 min
Histogram: 1 0 0 0 0 0 0 0 0 0

Total # of neighbors = 154111
Ave neighs/atom = 81.1111
Ave special neighs/atom = 10.2474
Neighbor list builds = 1
Dangerous builds = 0
write_dump all custom pysimm.dump.tmp id q x y z vx vy vz
quit
