pySIMM System Object

1934 atoms
2254 bonds
4680 angles
8654 dihedrals
156 impropers

6 atom types
11 bond types
24 angle types
21 dihedral types
2 improper types

-173.454882 173.454882 xlo xhi
-173.454882 173.454882 ylo yhi
-173.454882 173.454882 zlo zhi

Masses

   1	12.01	# ca
   2	12.01	# c3
   3	12.01	# cy
   4	12.01	# cp
   5	1.008	# hc
   6	1.008	# ha

Pair Coeffs

   1	0.086	3.3996695084235347	# ca
   2	0.1094	3.3996695084235347	# c3
   3	0.086	3.3996695084235347	# cy
   4	0.086	3.3996695084235347	# cp
   5	0.0157	2.649532787749369	# hc
   6	0.015	2.59964245953351	# ha

Bond Coeffs

   1	321.2	1.5154	# ca,cy
   2	461.1	1.3984	# ca,ca
   3	305.9	1.5319	# c3,cy
   4	351.4	1.4854	# cp,cp
   5	345.8	1.086	# ca,ha
   6	300.9	1.5375	# c3,c3
   7	450.2	1.4058	# ca,cp
   8	285.0	1.5562	# cy,cy
   9	321.0	1.5156	# c3,ca
  10	330.6	1.0969	# c3,hc
  11	333.3	1.0949	# cy,hc

Angle Coeffs

   1	67.9	96.03	# cy,c3,cy
   2	61.4	116.81	# ca,cy,cy
   3	63.15	112.07	# c3,c3,ca
   4	45.97	114.53	# ca,cy,hc
   5	66.26	120.69	# ca,ca,cp
   6	46.34	109.8	# c3,c3,hc
   7	48.18	119.88	# ca,ca,ha
   8	62.73	112.39	# c3,c3,cy
   9	46.29	110.75	# cy,c3,hc
  10	44.83	114.79	# cy,cy,hc
  11	46.8	110.47	# ca,c3,hc
  12	66.72	118.38	# ca,cp,ca
  13	62.86	111.51	# c3,c3,c3
  14	46.43	110.14	# c3,cy,hc
  15	60.66	118.7	# c3,cy,cy
  16	63.43	120.63	# c3,ca,cp
  17	63.56	112.24	# ca,c3,ca
  18	64.05	121.11	# ca,cp,cp
  19	66.62	120.02	# ca,ca,ca
  20	39.4	107.58	# hc,c3,hc
  21	47.98	119.86	# cp,ca,ha
  22	63.53	120.77	# c3,ca,ca
  23	63.51	120.86	# ca,ca,cy
  24	62.8	113.57	# c3,cy,ca

Dihedral Coeffs

   1	1	0.16	3	0	# hc,c3,c3,c3
   2	1	0.0	2	0.0	# ca,ca,cy,cy
   3	1	1.0	2	180	# X,cp,cp,X
   4	1	0.0	2	0.0	# ca,ca,cy,c3
   5	3	0.38	3	180.0	0.0	2	0.0	1.15	1	0.0	# ca,ca,cy,hc
   6	1	0.0	2	0	# X,c3,ca,X
   7	1	0.16	3	0.0	# cy,c3,cy,ca
   8	1	0.15555555555555556	3	0	# X,c3,c3,X
   9	1	0.16	3	0.0	# c3,c3,cy,ca
  10	1	0.16	3	0.0	# hc,c3,cy,ca
  11	3	0.18	3	0.0	0.25	2	180.0	0.2	1	180.0	# cy,c3,cy,cy
  12	1	0.15	3	0	# hc,c3,c3,hc
  13	3	0.18	3	0.0	0.25	2	180.0	0.2	1	180.0	# c3,c3,cy,cy
  14	1	0.16	3	0.0	# hc,c3,cy,cy
  15	1	0.16	3	0.0	# cy,c3,cy,hc
  16	1	0.16	3	0.0	# c3,c3,cy,hc
  17	1	0.15	3	0.0	# hc,c3,cy,hc
  18	1	3.625	2	180	# X,ca,ca,X
  19	1	0.15555555555555556	3	0	# X,cy,cy,X
  20	1	3.625	2	180	# X,ca,cp,X
  21	3	0.18	3	0	0.25	2	180	0.2	1	180	# c3,c3,c3,c3

Improper Coeffs

   1	1.1	-1	2	# ca,ca,ca,c3
   2	1.1	-1	2	# ca,X,X,ha

Atoms

   1	1	1	0.066869	0.340245	-47.0646	-15.3128
   2	1	1	0.053974	1.21207	-45.9967	-15.2997
   3	1	1	-0.117882	2.5016	-46.0243	-14.7385
   4	1	1	-0.084276	2.75879	-47.2722	-14.1483
   5	1	1	-0.157972	0.588959	-48.3084	-14.7012
   6	1	2	0.004935	4.05276	-47.6412	-11.8127
   7	1	1	-0.170374	1.86759	-48.3283	-14.1108
   8	1	3	0.154019	2.78761	-49.2094	-13.2706
   9	1	3	0.051574	3.80595	-47.9829	-13.3119
  10	1	3	0.007409	2.69499	-47.014	-11.3823
  11	1	2	0.007138	2.58936	-49.463	-11.7425
  12	1	1	-0.211215	3.0433	-46.2866	-8.77477
  13	1	3	-0.023783	1.70829	-48.2601	-11.3153
  14	1	2	-0.253384	3.9958	-49.0712	-11.2011
  15	1	1	-0.027691	1.62626	-47.9734	-9.82673
  16	1	1	-0.014027	2.46006	-46.8866	-9.89307
  17	1	1	-0.211541	1.30901	-48.6258	-8.62886
  18	1	1	-0.003037	1.79202	-47.9808	-7.46546
  19	1	4	-0.005095	2.62586	-46.8345	-7.53678
  20	1	2	0.078204	1.53702	-48.3854	-6.00841
  21	1	3	-0.018845	3.13008	-44.9491	-2.3104
  22	1	4	0.006574	2.94955	-46.4047	-6.1702
  23	1	1	0.013723	2.29777	-47.2786	-5.2623
  24	1	1	-0.173541	2.29075	-47.0295	-3.87087
  25	1	1	-0.072264	3.05368	-45.926	-3.46962
  26	1	1	-0.030211	3.6904	-45.0821	-4.34686
  27	1	3	0.009457	3.87747	-43.9781	-3.31922
  28	1	1	-0.176921	3.62413	-45.2352	-5.73577
  29	1	2	0.038799	1.88534	-44.1231	-1.90004
  30	1	2	0.012799	0.87603	-43.9403	-3.06834
  31	1	2	-0.181835	2.50196	-42.7102	-1.85928
  32	1	2	-0.004967	1.61263	-42.977	-4.03622
  33	1	2	0.05243	2.96952	-42.723	-3.329
  34	1	2	-0.049676	0.0251149	-48.4235	-5.65504
  35	1	2	-0.040251	-0.287785	-49.8675	-5.22146
  36	1	5	0.031595	-0.195775	-47.7382	-4.82723
  37	1	5	0.022689	-0.607303	-48.1258	-6.50094
  38	1	2	-0.037258	1.05476	-50.4483	-4.75526
  39	1	2	0.002978	2.09714	-49.79	-5.67224
  40	1	5	0.016721	2.19356	-50.3884	-6.58744
  41	1	5	-0.000468	3.08638	-49.7471	-5.19808
  42	1	5	0.056924	3.59149	-44.3923	-13.8174
  43	1	5	0.029852	-0.216168	-50.1247	-15.561
  44	1	5	0.043077	4.95092	-47.0512	-11.5915
  45	1	5	0.016056	3.14716	-50.1153	-13.7709
  46	1	5	0.041103	4.74949	-48.1945	-13.8263
  47	1	5	0.055216	2.38269	-46.1314	-11.9502
  48	1	5	0.041749	2.21946	-50.4565	-11.4605
  49	1	6	0.155314	3.75841	-45.4741	-8.85115
  50	1	5	0.049935	0.748362	-48.1837	-11.8371
  51	1	5	0.098652	4.05052	-49.0704	-10.1038
  52	1	5	0.045245	4.78877	-49.7235	-11.5915
  53	1	6	0.165622	0.74145	-49.5506	-8.59859
  54	1	5	0.050235	3.72589	-45.2628	-1.44616
  55	1	6	0.152615	1.69352	-47.6093	-3.17398
  56	1	5	0.037653	4.9114	-43.7394	-3.04668
  57	1	6	0.137195	3.99608	-44.485	-6.42629
  58	1	5	0.010736	1.41722	-44.4422	-0.960304
  59	1	5	-0.004925	-0.045895	-43.4693	-2.70293
  60	1	5	0.039247	3.33434	-42.6271	-1.14672
  61	1	5	0.062128	1.76271	-41.9242	-1.64964
  62	1	5	0.003131	1.052	-42.0375	-4.12898
  63	1	5	0.00404	3.46908	-41.8019	-3.65462
  64	1	5	0.021644	-1.05225	-49.9082	-4.43518
  65	1	5	0.012129	-0.651525	-50.4383	-6.08592
  66	1	5	0.009331	1.24195	-50.1566	-3.71362
  67	1	5	0.018167	1.07876	-51.5437	-4.81863
  68	1	2	-0.164337	3.5073	-44.8897	-14.7913
  69	1	5	0.06697	4.50169	-45.2631	-15.0647
  70	1	5	0.100055	3.2215	-44.1376	-15.5361
  71	1	2	0.054914	-0.383929	-49.472	-14.6957
  72	1	5	0.026242	-0.270314	-50.0764	-13.7872
  73	1	5	-0.001285	-1.42177	-49.118	-14.7351
  74	1	1	0.066869	-8.10833	-35.4358	-12.3548
  75	1	1	0.053974	-6.80489	-35.0673	-12.0814
  76	1	1	-0.117882	-5.76983	-35.089	-13.0419
  77	1	1	-0.084276	-6.25617	-35.3615	-14.3396
  78	1	1	-0.157972	-8.55387	-35.8879	-13.6062
  79	1	2	0.004935	-4.91477	-37.0823	-16.0338
  80	1	1	-0.170374	-7.56572	-35.7389	-14.5931
  81	1	3	0.154019	-7.25204	-36.2818	-15.9708
  82	1	3	0.051574	-5.75687	-35.8014	-15.723
  83	1	3	0.007409	-5.1501	-37.9479	-14.778
  84	1	2	0.007138	-7.12222	-37.8062	-16.2638
  85	1	1	-0.211215	-3.78628	-40.2025	-15.4708
  86	1	3	-0.023783	-6.66343	-38.4014	-14.893
  87	1	2	-0.253384	-5.81128	-37.7798	-17.1003
  88	1	1	-0.027691	-6.12123	-39.816	-14.9234
  89	1	1	-0.014027	-4.80208	-39.4251	-14.8905
  90	1	1	-0.211541	-6.55322	-41.0597	-15.3916
  91	1	1	-0.003037	-5.5222	-41.9439	-15.7739
  92	1	4	-0.005095	-4.17532	-41.5086	-15.8716
  93	1	2	0.078204	-5.68849	-43.3755	-16.2976
  94	1	3	-0.018845	-1.45939	-45.6539	-18.5393
  95	1	4	0.006574	-3.40409	-42.5594	-16.5649
  96	1	1	0.013723	-4.26812	-43.6676	-16.7859
  97	1	1	-0.173541	-3.82773	-44.8535	-17.4151
  98	1	1	-0.072264	-2.50726	-44.8007	-17.8615
  99	1	1	-0.030211	-1.69028	-43.7105	-17.73
 100	1	3	0.009457	-0.511431	-44.3754	-18.4315
 101	1	1	-0.176921	-2.06664	-42.5444	-17.051
 102	1	2	0.038799	-0.697872	-46.7225	-17.7152
 103	1	2	0.012799	-0.676893	-46.3604	-16.1934
 104	1	2	-0.181835	0.738778	-46.3645	-18.1609
 105	1	2	-0.004967	0.311423	-45.1191	-16.1438
 106	1	2	0.05243	0.699189	-44.9117	-17.6299
 107	1	2	-0.049676	-6.15827	-44.3371	-15.1839
 108	1	2	-0.040251	-7.68964	-44.3761	-15.3019
 109	1	5	0.031595	-5.76132	-45.3443	-15.3645
 110	1	5	0.022689	-5.82844	-44.0183	-14.1864
 111	1	2	-0.037258	-7.98416	-44.195	-16.8021
 112	1	2	0.002978	-6.76024	-43.4782	-17.4138
 113	1	5	0.016721	-7.03535	-42.4868	-17.7965
 114	1	5	-0.000468	-6.388	-44.0605	-18.2664
 115	1	5	0.056924	-3.96961	-35.7759	-12.0505
 116	1	5	0.029852	-10.683	-36.1063	-13.2608
 117	1	5	0.043077	-3.86696	-36.9177	-16.3149
 118	1	5	0.016056	-7.75506	-35.768	-16.7977
 119	1	5	0.041103	-5.44665	-34.9778	-16.3748
 120	1	5	0.055216	-4.82486	-37.4884	-13.841
 121	1	5	0.041749	-7.99103	-38.2826	-16.7348
 122	1	6	0.155314	-2.79132	-39.8112	-15.657
 123	1	5	0.049935	-7.3265	-38.2046	-14.0471
 124	1	5	0.098652	-5.45888	-38.7828	-17.3765
 125	1	5	0.045245	-5.91128	-37.1812	-18.0161
 126	1	6	0.165622	-7.6051	-41.3013	-15.5028
 127	1	5	0.050235	-1.68539	-45.9928	-19.5564
 128	1	6	0.152615	-4.46585	-45.7189	-17.565
 129	1	5	0.037653	-0.212976	-43.9459	-19.3935
 130	1	6	0.137195	-1.40458	-41.6944	-16.923
 131	1	5	0.010736	-0.992891	-47.7589	-17.9216
 132	1	5	-0.004925	-1.64962	-46.1902	-15.7143
 133	1	5	0.039247	0.868146	-46.4111	-19.2513
 134	1	5	0.062128	1.51531	-46.9877	-17.6979
 135	1	5	0.003131	-0.0871433	-44.2446	-15.6173
 136	1	5	0.00404	1.63394	-44.3558	-17.7703
 137	1	5	0.021644	-8.10959	-45.3108	-14.9089
 138	1	5	0.012129	-8.12491	-43.5429	-14.7357
 139	1	5	0.009331	-8.10495	-45.1783	-17.275
 140	1	5	0.018167	-8.9094	-43.627	-16.9623
 141	1	2	-0.164337	-4.29805	-34.9526	-12.6968
 142	1	5	0.06697	-3.67437	-34.9633	-13.5993
 143	1	5	0.100055	-4.10694	-34.0108	-12.1679
 144	1	2	0.054914	-9.88016	-36.5911	-13.8298
 145	1	5	0.026242	-10.163	-36.5755	-14.8896
 146	1	5	-0.001285	-9.82506	-37.6393	-13.5108
 147	1	1	0.066869	-0.194128	-43.1282	-11.4579
 148	1	1	0.053974	0.441108	-42.1645	-10.6865
 149	1	1	-0.117882	0.7416	-42.3315	-9.32425
 150	1	1	-0.084276	0.44745	-43.6225	-8.85439
 151	1	1	-0.157972	-0.611828	-44.3724	-10.9436
 152	1	2	0.004935	-1.12642	-43.6461	-6.65253
 153	1	1	-0.170374	-0.199937	-44.5881	-9.61235
 154	1	3	0.154019	-0.687481	-45.3688	-8.38476
 155	1	3	0.051574	0.0204439	-44.2355	-7.53178
 156	1	3	0.007409	-2.03588	-42.9232	-7.69263
 157	1	2	0.007138	-2.15009	-45.3801	-7.82654
 158	1	1	-0.211215	-4.05168	-41.2778	-7.05022
 159	1	3	-0.023783	-2.75663	-44.1048	-8.45271
 160	1	2	-0.253384	-1.91092	-44.9524	-6.34845
 161	1	1	-0.027691	-4.04419	-43.5717	-7.84823
 162	1	1	-0.014027	-3.41646	-42.5123	-7.22717
 163	1	1	-0.211541	-5.38754	-43.5445	-8.24615
 164	1	1	-0.003037	-6.09869	-42.3718	-7.90675
 165	1	4	-0.005095	-5.43323	-41.2491	-7.35946
 166	1	2	0.078204	-7.548	-42.0238	-8.27458
 167	1	3	-0.018845	-8.59462	-37.0012	-8.84392
 168	1	4	0.006574	-6.34097	-40.0944	-7.41997
 169	1	1	0.013723	-7.59482	-40.5301	-7.91073
 170	1	1	-0.173541	-8.60365	-39.6075	-8.26265
 171	1	1	-0.072264	-8.31331	-38.2541	-8.0379
 172	1	1	-0.030211	-7.05212	-37.8268	-7.65866
 173	1	3	0.009457	-7.13755	-36.529	-8.45049
 174	1	1	-0.176921	-6.01064	-38.7185	-7.37488
 175	1	2	0.038799	-8.53081	-37.1045	-10.3817
 176	1	2	0.012799	-8.47064	-35.6419	-10.9031
 177	1	2	-0.181835	-7.08297	-37.5998	-10.6224
 178	1	2	-0.004967	-6.98368	-35.1975	-10.5705
 179	1	2	0.05243	-6.41941	-36.4483	-9.83074
 180	1	2	-0.049676	-7.89281	-42.2631	-9.76562
 181	1	2	-0.040251	-9.38912	-42.6399	-9.82224
 182	1	5	0.031595	-7.67003	-41.3841	-10.3849
 183	1	5	0.022689	-7.30734	-43.0986	-10.1675
 184	1	2	-0.037258	-9.85813	-42.8488	-8.36684
 185	1	2	0.002978	-8.58795	-42.8548	-7.49735
 186	1	5	0.016721	-8.23151	-43.8882	-7.3949
 187	1	5	-0.000468	-8.77412	-42.4599	-6.49018
 188	1	5	0.056924	0.243165	-40.4792	-8.30607
 189	1	5	0.029852	-2.41135	-44.7338	-12.1055
 190	1	5	0.043077	-0.817139	-43.0515	-5.7846
 191	1	5	0.016056	-0.241646	-46.3573	-8.26892
 192	1	5	0.041103	0.838586	-44.6014	-6.90515
 193	1	5	0.055216	-1.54737	-42.1377	-8.26826
 194	1	5	0.041749	-2.71742	-46.3068	-7.97705
 195	1	6	0.155314	-3.50014	-40.3785	-6.79685
 196	1	5	0.049935	-2.77285	-44.1067	-9.54338
 197	1	5	0.098652	-2.84221	-44.7747	-5.79404
 198	1	5	0.045245	-1.30458	-45.6806	-5.79418
 199	1	6	0.165622	-5.81882	-44.3283	-8.86023
 200	1	5	0.050235	-9.42675	-36.3872	-8.48733
 201	1	6	0.152615	-9.48681	-39.9071	-8.81625
 202	1	5	0.037653	-7.06132	-35.6048	-7.86744
 203	1	6	0.137195	-4.98414	-38.3832	-7.26968
 204	1	5	0.010736	-9.31269	-37.7204	-10.8432
 205	1	5	-0.004925	-9.24598	-34.9627	-10.5262
 206	1	5	0.039247	-6.79512	-37.6338	-11.6803
 207	1	5	0.062128	-6.87685	-38.5919	-10.2035
 208	1	5	0.003131	-6.91459	-34.2496	-10.0216
 209	1	5	0.00404	-5.32388	-36.4923	-9.79233
 210	1	5	0.021644	-9.97463	-41.8454	-10.3026
 211	1	5	0.012129	-9.5259	-43.5576	-10.4087
 212	1	5	0.009331	-10.5075	-42.0168	-8.06562
 213	1	5	0.018167	-10.4288	-43.7792	-8.25251
 214	1	2	-0.164337	1.08787	-41.1718	-8.40552
 215	1	5	0.06697	1.35573	-41.525	-7.40183
 216	1	5	0.100055	1.94136	-40.6061	-8.79898
 217	1	2	0.054914	-1.56426	-45.2926	-11.6888
 218	1	5	0.026242	-1.04813	-45.791	-12.5192
 219	1	5	-0.001285	-1.96606	-46.0724	-11.0298
 220	1	1	0.066869	5.38384	-30.5881	-20.0563
 221	1	1	0.053974	6.01405	-30.4942	-18.8318
 222	1	1	-0.117882	6.7212	-31.5422	-18.2156
 223	1	1	-0.084276	6.60092	-32.734	-18.9478
 224	1	1	-0.157972	5.37793	-31.7522	-20.8516
 225	1	2	0.004935	6.68218	-35.3369	-18.245
 226	1	1	-0.170374	5.98364	-32.8336	-20.1822
 227	1	3	0.154019	6.54521	-34.2251	-20.4633
 228	1	3	0.051574	7.23554	-34.1102	-19.0329
 229	1	3	0.007409	5.1931	-34.9476	-18.0064
 230	1	2	0.007138	5.70383	-35.5352	-20.3568
 231	1	1	-0.211215	4.19118	-37.0506	-16.5883
 232	1	3	-0.023783	4.53002	-35.0987	-19.4427
 233	1	2	-0.253384	6.59755	-36.3766	-19.3988
 234	1	1	-0.027691	3.70019	-36.2104	-18.8265
 235	1	1	-0.014027	4.25846	-36.0647	-17.5792
 236	1	1	-0.211541	3.05702	-37.3836	-19.2425
 237	1	1	-0.003037	2.8691	-38.3518	-18.2291
 238	1	4	-0.005095	3.40437	-38.1803	-16.9283
 239	1	2	0.078204	2.19697	-39.7239	-18.3688
 240	1	3	-0.018845	1.1945	-42.2404	-13.893
 241	1	4	0.006574	3.0873	-39.3758	-16.1325
 242	1	1	0.013723	2.37754	-40.2884	-16.9499
 243	1	1	-0.173541	1.76705	-41.4402	-16.4043
 244	1	1	-0.072264	2.01565	-41.6803	-15.0447
 245	1	1	-0.030211	2.6829	-40.7727	-14.2443
 246	1	3	0.009457	1.93886	-41.1815	-12.9868
 247	1	1	-0.176921	3.18724	-39.5615	-14.7334
 248	1	2	0.038799	-0.289348	-41.815	-13.7919
 249	1	2	0.012799	-0.847236	-42.0975	-12.3685
 250	1	2	-0.181835	-0.190495	-40.274	-13.7118
 251	1	2	-0.004967	-0.117621	-41.0066	-11.4876
 252	1	2	0.05243	0.783144	-40.2624	-12.5101
 253	1	2	-0.049676	0.706788	-39.6376	-18.782
 254	1	2	-0.040251	0.443646	-40.7924	-19.7729
 255	1	5	0.031595	0.0428395	-39.7002	-17.91
 256	1	5	0.022689	0.498809	-38.6816	-19.2795
 257	1	2	-0.037258	1.76238	-41.5776	-19.9082
 258	1	2	0.002978	2.86559	-40.6209	-19.4326
 259	1	5	0.016721	3.19866	-40.0132	-20.2836
 260	1	5	-0.000468	3.73832	-41.1595	-19.0408
 261	1	5	0.056924	7.64681	-30.3387	-16.6616
 262	1	5	0.029852	4.16111	-31.0069	-22.4863
 263	1	5	0.043077	7.25194	-35.6396	-17.3575
 264	1	5	0.016056	7.2371	-34.2816	-21.3109
 265	1	5	0.041103	8.33076	-34.1178	-19.041
 266	1	5	0.055216	5.03998	-34.009	-17.4626
 267	1	5	0.041749	5.42634	-36.0106	-21.3058
 268	1	6	0.155314	4.73391	-36.9768	-15.6514
 269	1	5	0.049935	3.93659	-34.2614	-19.8263
 270	1	5	0.098652	6.12968	-37.3217	-19.0909
 271	1	5	0.045245	7.58187	-36.5974	-19.8337
 272	1	6	0.165622	2.7612	-37.5491	-20.2737
 273	1	5	0.050235	1.3591	-43.2963	-13.6556
 274	1	6	0.152615	1.06403	-42.0418	-16.9694
 275	1	5	0.037653	2.56205	-41.5707	-12.1743
 276	1	6	0.137195	3.52513	-38.7694	-14.073
 277	1	5	0.010736	-0.934251	-42.1882	-14.5931
 278	1	5	-0.004925	-1.94021	-42.0332	-12.2836
 279	1	5	0.039247	-1.15504	-39.7969	-13.4858
 280	1	5	0.062128	0.218405	-39.8066	-14.6161
 281	1	5	0.003131	-0.827249	-40.3675	-10.9455
 282	1	5	0.00404	1.09089	-39.2613	-12.1834
 283	1	5	0.021644	-0.371139	-41.4403	-19.4273
 284	1	5	0.012129	0.154059	-40.3804	-20.7482
 285	1	5	0.009331	1.73997	-42.4573	-19.2556
 286	1	5	0.018167	1.93294	-41.9224	-20.936
 287	1	2	-0.164337	7.5989	-31.3852	-16.9879
 288	1	5	0.06697	7.21092	-31.9812	-16.1527
 289	1	5	0.100055	8.62314	-31.7191	-17.1947
 290	1	2	0.054914	4.88464	-31.8068	-22.2854
 291	1	5	0.026242	5.71784	-31.6939	-22.9898
 292	1	5	-0.001285	4.39291	-32.765	-22.4948
 293	1	1	0.066869	16.2272	-19.1684	-19.5511
 294	1	1	0.053974	16.3851	-20.0396	-18.4906
 295	1	1	-0.117882	16.6995	-21.4013	-18.6203
 296	1	1	-0.084276	16.9726	-21.7521	-19.9542
 297	1	1	-0.157972	16.3021	-19.5753	-20.898
 298	1	2	0.004935	15.7634	-23.9927	-20.8782
 299	1	1	-0.170374	16.7666	-20.9013	-21.0311
 300	1	3	0.154019	16.7474	-22.0388	-22.0553
 301	1	3	0.051574	16.9667	-23.0051	-20.8132
 302	1	3	0.007409	14.5527	-23.0932	-20.4923
 303	1	2	0.007138	15.4624	-22.6133	-22.7388
 304	1	1	-0.211215	12.4604	-24.8219	-20.5132
 305	1	3	-0.023783	14.3317	-22.1816	-21.7709
 306	1	2	-0.253384	15.6235	-24.1296	-22.4217
 307	1	1	-0.027691	12.9925	-22.8909	-21.91
 308	1	1	-0.014027	13.1796	-23.6557	-20.784
 309	1	1	-0.211541	12.0909	-23.2437	-22.9253
 310	1	1	-0.003037	11.2609	-24.3513	-22.6276
 311	1	4	-0.005095	11.4302	-25.107	-21.4405
 312	1	2	0.078204	10.1878	-24.984	-23.5275
 313	1	3	-0.018845	7.37635	-28.9283	-21.429
 314	1	4	0.006574	10.5001	-26.2414	-21.468
 315	1	1	0.013723	9.77312	-26.1998	-22.6825
 316	1	1	-0.173541	8.71474	-27.1023	-22.9383
 317	1	1	-0.072264	8.5316	-28.1005	-21.9691
 318	1	1	-0.030211	9.20924	-28.1054	-20.7697
 319	1	3	0.009457	8.14193	-28.8998	-20.0423
 320	1	1	-0.176921	10.1753	-27.1524	-20.4344
 321	1	2	0.038799	6.04508	-28.2091	-21.1092
 322	1	2	0.012799	5.15816	-29.0861	-20.173
 323	1	2	-0.181835	6.48818	-27.1307	-20.0922
 324	1	2	-0.004967	5.91355	-28.9851	-18.7766
 325	1	2	0.05243	7.16318	-28.1224	-19.117
 326	1	2	-0.049676	9.00591	-24.0162	-23.795
 327	1	2	-0.040251	8.67628	-24.1467	-25.2911
 328	1	5	0.031595	8.13297	-24.2335	-23.1659
 329	1	5	0.022689	9.31154	-22.9822	-23.5881
 330	1	2	-0.037258	10.0134	-24.5131	-25.9506
 331	1	2	0.002978	10.7346	-25.3985	-24.919
 332	1	5	0.016721	11.8245	-25.2892	-24.991
 333	1	5	-0.000468	10.4961	-26.4507	-25.1219
 334	1	5	0.056924	15.5823	-22.3634	-17.0309
 335	1	5	0.029852	16.2976	-17.7594	-22.079
 336	1	5	0.043077	15.8728	-24.9274	-20.3141
 337	1	5	0.016056	17.5845	-22.0314	-22.7621
 338	1	5	0.041103	17.9161	-23.5508	-20.8384
 339	1	5	0.055216	14.6131	-22.6084	-19.5166
 340	1	5	0.041749	15.3187	-22.3522	-23.7946
 341	1	6	0.155314	12.7073	-25.4848	-19.6903
 342	1	5	0.049935	14.2444	-21.103	-21.6191
 343	1	5	0.098652	14.7533	-24.7291	-22.7224
 344	1	5	0.045245	16.5217	-24.5595	-22.8857
 345	1	6	0.165622	12.0633	-22.7326	-23.8825
 346	1	5	0.050235	7.24596	-29.9066	-21.9018
 347	1	6	0.152615	8.0505	-26.9929	-23.7898
 348	1	5	0.037653	8.4732	-29.8608	-19.6364
 349	1	6	0.137195	10.5907	-27.0701	-19.4353
 350	1	5	0.010736	5.51239	-27.8151	-21.9837
 351	1	5	-0.004925	4.10966	-28.7688	-20.0997
 352	1	5	0.039247	5.63994	-26.5971	-19.64
 353	1	5	0.062128	7.17833	-26.3856	-20.5083
 354	1	5	0.003131	5.27321	-28.5872	-17.9784
 355	1	5	0.00404	7.62865	-27.653	-18.2414
 356	1	5	0.021644	7.95543	-24.9609	-25.4414
 357	1	5	0.012129	8.24829	-23.2244	-25.7039
 358	1	5	0.009331	9.87516	-25.0244	-26.9117
 359	1	5	0.018167	10.5983	-23.6006	-26.1252
 360	1	2	-0.164337	16.5806	-22.402	-17.4843
 361	1	5	0.06697	16.7509	-23.4275	-17.8344
 362	1	5	0.100055	17.3161	-22.189	-16.6989
 363	1	2	0.054914	15.7929	-18.7331	-22.0537
 364	1	5	0.026242	15.9696	-19.2286	-23.0165
 365	1	5	-0.001285	14.7149	-18.5521	-21.9606
 366	1	1	0.066869	15.3632	-12.3299	-7.11284
 367	1	1	0.053974	15.3403	-13.7087	-7.0708
 368	1	1	-0.117882	16.4909	-14.5182	-7.03896
 369	1	1	-0.084276	17.6701	-13.7492	-6.9511
 370	1	1	-0.157972	16.5406	-11.5714	-7.23292
 371	1	2	0.004935	19.7909	-14.4247	-8.53163
 372	1	1	-0.170374	17.6908	-12.3685	-7.07986
 373	1	3	0.154019	19.1811	-12.3121	-7.38818
 374	1	3	0.051574	19.1694	-13.892	-7.20564
 375	1	3	0.007409	18.6469	-14.1855	-9.54503
 376	1	2	0.007138	19.7669	-12.1072	-8.82401
 377	1	1	-0.211215	19.0308	-15.2046	-12.0376
 378	1	3	-0.023783	18.6218	-12.6105	-9.7517
 379	1	2	-0.253384	20.791	-13.2787	-8.86176
 380	1	1	-0.027691	18.9856	-12.912	-11.1998
 381	1	1	-0.014027	19.024	-14.2679	-11.0047
 382	1	1	-0.211541	18.9079	-12.3246	-12.4706
 383	1	1	-0.003037	18.988	-13.2394	-13.5513
 384	1	4	-0.005095	19.0682	-14.6394	-13.3355
 385	1	2	0.078204	18.8433	-12.9339	-15.0514
 386	1	3	-0.018845	17.7086	-17.0596	-18.1141
 387	1	4	0.006574	18.9937	-15.322	-14.6314
 388	1	1	0.013723	18.8448	-14.353	-15.6519
 389	1	1	-0.173541	18.5244	-14.7362	-16.9766
 390	1	1	-0.072264	18.5226	-16.1178	-17.232
 391	1	1	-0.030211	18.6785	-17.0543	-16.2288
 392	1	3	0.009457	17.876	-18.115	-16.948
 393	1	1	-0.176921	18.841	-16.7033	-14.8864
 394	1	2	0.038799	16.1713	-16.8615	-18.1844
 395	1	2	0.012799	15.4623	-18.1447	-18.7237
 396	1	2	-0.181835	15.7561	-16.9681	-16.6981
 397	1	2	-0.004967	15.6306	-19.1619	-17.5169
 398	1	2	0.05243	16.421	-18.3443	-16.4639
 399	1	2	-0.049676	17.5536	-12.155	-15.4028
 400	1	2	-0.040251	17.8856	-11.2689	-16.623
 401	1	5	0.031595	16.7106	-12.8286	-15.6051
 402	1	5	0.022689	17.2606	-11.5074	-14.5671
 403	1	2	-0.037258	19.4084	-11.3665	-16.8516
 404	1	2	0.002978	19.988	-12.0642	-15.6085
 405	1	5	0.016721	20.2674	-11.3018	-14.8697
 406	1	5	-0.000468	20.8852	-12.6511	-15.8446
 407	1	5	0.056924	17.4708	-16.4553	-7.11991
 408	1	5	0.029852	16.2737	-9.9686	-8.66459
 409	1	5	0.043077	20.2055	-15.4402	-8.50058
 410	1	5	0.016056	19.7873	-11.7829	-6.64457
 411	1	5	0.041103	19.7484	-14.241	-6.34394
 412	1	5	0.055216	17.7182	-14.7133	-9.32152
 413	1	5	0.041749	20.1644	-11.1088	-9.04524
 414	1	6	0.155314	18.9436	-16.2717	-11.8624
 415	1	5	0.049935	17.6768	-12.0724	-9.63555
 416	1	5	0.098652	21.2735	-13.3965	-9.84165
 417	1	5	0.045245	21.5723	-13.1748	-8.09655
 418	1	6	0.165622	18.7323	-11.2627	-12.6112
 419	1	5	0.050235	18.1604	-17.314	-19.0791
 420	1	6	0.152615	18.209	-14.0182	-17.7262
 421	1	5	0.037653	18.4216	-19.0363	-17.1794
 422	1	6	0.137195	18.7534	-17.431	-14.0865
 423	1	5	0.010736	15.8485	-15.9365	-18.6783
 424	1	5	-0.004925	14.4107	-18.0086	-19.0083
 425	1	5	0.039247	14.6656	-16.9918	-16.5604
 426	1	5	0.062128	16.1625	-16.1689	-16.0656
 427	1	5	0.003131	14.6703	-19.5663	-17.1707
 428	1	5	0.00404	16.3267	-18.7292	-15.4408
 429	1	5	0.021644	17.3419	-11.6089	-17.5138
 430	1	5	0.012129	17.5907	-10.2302	-16.4259
 431	1	5	0.009331	19.6088	-11.9749	-17.7428
 432	1	5	0.018167	19.8615	-10.3794	-17.0086
 433	1	2	-0.164337	16.4644	-16.0271	-7.20508
 434	1	5	0.06697	15.8355	-16.4928	-6.4363
 435	1	5	0.100055	16.0602	-16.3068	-8.18584
 436	1	2	0.054914	16.5632	-10.1029	-7.61505
 437	1	5	0.026242	15.8651	-9.52642	-6.99551
 438	1	5	-0.001285	17.5639	-9.6727	-7.48354
 439	1	1	0.066869	2.01177	-16.9348	0.517337
 440	1	1	0.053974	2.42742	-17.9038	-0.37487
 441	1	1	-0.117882	3.69604	-18.5155	-0.333171
 442	1	1	-0.084276	4.43705	-18.1226	0.802008
 443	1	1	-0.157972	2.82748	-16.3965	1.52552
 444	1	2	0.004935	7.09313	-17.4967	0.511207
 445	1	1	-0.170374	4.03347	-17.1071	1.65587
 446	1	3	0.154019	5.42166	-16.8982	2.2362
 447	1	3	0.051574	5.88523	-18.0947	1.29762
 448	1	3	0.007409	6.39579	-16.5539	-0.494757
 449	1	2	0.007138	6.35489	-15.7138	1.82829
 450	1	1	-0.211215	8.48278	-15.481	-1.88872
 451	1	3	-0.023783	5.86928	-15.3462	0.391743
 452	1	2	-0.253384	7.66857	-16.5057	1.56558
 453	1	1	-0.027691	6.79587	-14.4802	-0.447187
 454	1	1	-0.014027	7.27585	-15.5326	-1.1842
 455	1	1	-0.211541	7.3974	-13.2159	-0.416546
 456	1	1	-0.003037	8.521	-13.0794	-1.26664
 457	1	4	-0.005095	9.07618	-14.1943	-1.94631
 458	1	2	0.078204	9.35518	-11.8148	-1.51664
 459	1	3	-0.018845	13.4004	-12.3099	-4.93463
 460	1	4	0.006574	10.3183	-13.767	-2.60681
 461	1	1	0.013723	10.4724	-12.3691	-2.41752
 462	1	1	-0.173541	11.4821	-11.6438	-3.09494
 463	1	1	-0.072264	12.408	-12.4345	-3.78734
 464	1	1	-0.030211	12.3177	-13.8021	-3.88183
 465	1	3	0.009457	13.3214	-13.8941	-5.01234
 466	1	1	-0.176921	11.2229	-14.5228	-3.39442
 467	1	2	0.038799	12.8691	-11.8726	-6.33254
 468	1	2	0.012799	13.894	-12.2122	-7.45899
 469	1	2	-0.181835	11.8221	-12.9636	-6.6531
 470	1	2	-0.004967	13.8768	-13.8012	-7.47949
 471	1	2	0.05243	12.7835	-14.1556	-6.43356
 472	1	2	-0.049676	8.55751	-10.6777	-2.19317
 473	1	2	-0.040251	9.17713	-9.34975	-1.70624
 474	1	5	0.031595	8.57244	-10.7597	-3.28782
 475	1	5	0.022689	7.50807	-10.717	-1.8735
 476	1	2	-0.037258	10.152	-9.69779	-0.561498
 477	1	2	0.002978	9.91538	-11.181	-0.226048
 478	1	5	0.016721	9.17096	-11.246	0.57757
 479	1	5	-0.000468	10.8305	-11.6771	0.122603
 480	1	5	0.056924	5.27019	-19.7111	-1.23587
 481	1	5	0.029852	2.67688	-14.2382	1.63114
 482	1	5	0.043077	7.80083	-18.2188	0.085097
 483	1	5	0.016056	5.51235	-17.1115	3.30712
 484	1	5	0.041103	6.19504	-18.9903	1.84681
 485	1	5	0.055216	5.69178	-17.039	-1.17337
 486	1	5	0.041749	6.42286	-14.8847	2.54357
 487	1	6	0.155314	8.93998	-16.359	-2.33318
 488	1	5	0.049935	4.81377	-15.0726	0.312161
 489	1	5	0.098652	8.47768	-15.876	1.17066
 490	1	5	0.045245	8.03311	-17.0203	2.46503
 491	1	6	0.165622	7.03813	-12.4143	0.220964
 492	1	5	0.050235	14.3709	-11.8734	-4.67456
 493	1	6	0.152615	11.5267	-10.5599	-3.10214
 494	1	5	0.037653	14.2355	-14.4507	-4.77821
 495	1	6	0.137195	11.0611	-15.5696	-3.62995
 496	1	5	0.010736	12.4837	-10.8465	-6.37997
 497	1	5	-0.004925	13.6751	-11.7745	-8.44195
 498	1	5	0.039247	11.4456	-12.9053	-7.68435
 499	1	5	0.062128	10.961	-12.9587	-5.97224
 500	1	5	0.003131	13.7018	-14.201	-8.4869
 501	1	5	0.00404	12.3278	-15.1425	-6.5821
 502	1	5	0.021644	9.71211	-8.84711	-2.52222
 503	1	5	0.012129	8.39001	-8.67115	-1.35302
 504	1	5	0.009331	11.186	-9.5558	-0.900701
 505	1	5	0.018167	9.99535	-9.05733	0.315829
 506	1	2	-0.164337	4.24265	-19.3902	-1.44744
 507	1	5	0.06697	3.62899	-20.2909	-1.57169
 508	1	5	0.100055	4.24774	-18.8513	-2.40307
 509	1	2	0.054914	2.50912	-15.1133	2.27096
 510	1	5	0.026242	1.4612	-15.0984	2.59548
 511	1	5	-0.001285	3.13866	-15.0052	3.16297
 512	1	1	0.066869	-9.69571	-18.5213	-8.26952
 513	1	1	0.053974	-8.55539	-19.0263	-8.86696
 514	1	1	-0.117882	-7.88031	-20.1787	-8.41885
 515	1	1	-0.084276	-8.38154	-20.6475	-7.1935
 516	1	1	-0.157972	-10.2846	-19.0838	-7.11929
 517	1	2	0.004935	-7.54647	-22.4299	-5.32003
 518	1	1	-0.170374	-9.50265	-20.1181	-6.56907
 519	1	3	0.154019	-9.75125	-21.374	-5.74669
 520	1	3	0.051574	-8.48985	-21.9928	-6.48337
 521	1	3	0.007409	-7.00329	-21.0681	-4.81797
 522	1	2	0.007138	-9.37984	-21.4772	-4.23717
 523	1	1	-0.211215	-5.06263	-21.0934	-2.89273
 524	1	3	-0.023783	-8.2548	-20.4119	-4.09215
 525	1	2	-0.253384	-8.59319	-22.819	-4.2365
 526	1	1	-0.027691	-7.42094	-20.4845	-2.82756
 527	1	1	-0.014027	-6.34425	-21.0599	-3.45089
 528	1	1	-0.211541	-7.34918	-19.8686	-1.57465
 529	1	1	-0.003037	-6.09325	-19.9746	-0.932634
 530	1	4	-0.005095	-4.97763	-20.5782	-1.57231
 531	1	2	0.078204	-5.6727	-19.3043	0.383803
 532	1	3	-0.018845	-0.554746	-18.3233	0.742134
 533	1	4	0.006574	-3.77627	-20.3086	-0.76421
 534	1	1	0.013723	-4.15126	-19.5019	0.337656
 535	1	1	-0.173541	-3.18029	-18.8175	1.10115
 536	1	1	-0.072264	-1.84572	-19.1247	0.805793
 537	1	1	-0.030211	-1.47414	-19.985	-0.209654
 538	1	3	0.009457	-0.10834	-19.3431	-0.380388
 539	1	1	-0.176921	-2.41593	-20.5269	-1.09562
 540	1	2	0.038799	-0.578217	-16.9624	-0.0185349
 541	1	2	0.012799	0.863209	-16.4766	-0.350681
 542	1	2	-0.181835	-0.995134	-17.3728	-1.44899
 543	1	2	-0.004967	1.36611	-17.5478	-1.40943
 544	1	2	0.05243	0.11039	-18.4433	-1.61544
 545	1	2	-0.049676	-6.13356	-17.8321	0.463427
 546	1	2	-0.040251	-7.47733	-17.8258	1.22612
 547	1	5	0.031595	-5.41225	-17.2256	1.02272
 548	1	5	0.022689	-6.22288	-17.3956	-0.535244
 549	1	2	-0.037258	-7.67291	-19.2441	1.80215
 550	1	2	0.002978	-6.33356	-19.9763	1.60372
 551	1	5	0.016721	-6.46963	-21.057	1.46601
 552	1	5	-0.000468	-5.70739	-19.8236	2.49269
 553	1	5	0.056924	-6.61885	-20.4118	-10.1738
 554	1	5	0.029852	-11.6269	-18.0919	-5.73935
 555	1	5	0.043077	-6.79352	-23.1896	-5.56476
 556	1	5	0.016056	-10.7057	-21.876	-5.94082
 557	1	5	0.041103	-8.70184	-22.8431	-7.14038
 558	1	5	0.055216	-6.45876	-20.4936	-5.57567
 559	1	5	0.041749	-10.2167	-21.4019	-3.53351
 560	1	6	0.155314	-4.18909	-21.4042	-3.4563
 561	1	5	0.049935	-8.5512	-19.3951	-4.37166
 562	1	5	0.098652	-8.13761	-23.052	-3.26462
 563	1	5	0.045245	-9.21774	-23.6682	-4.54563
 564	1	6	0.165622	-8.17107	-19.2908	-1.16431
 565	1	5	0.050235	0.0383187	-18.3075	1.66304
 566	1	6	0.152615	-3.44112	-18.036	1.80725
 567	1	5	0.037653	0.745994	-19.9907	-0.154345
 568	1	6	0.137195	-2.12145	-20.9781	-2.03742
 569	1	5	0.010736	-1.21177	-16.1896	0.434377
 570	1	5	-0.004925	0.937568	-15.4464	-0.72341
 571	1	5	0.039247	-0.904769	-16.5516	-2.17447
 572	1	5	0.062128	-2.01545	-17.771	-1.51142
 573	1	5	0.003131	1.75145	-17.076	-2.32284
 574	1	5	0.00404	0.0925811	-18.9686	-2.57858
 575	1	5	0.021644	-7.45169	-17.0805	2.03138
 576	1	5	0.012129	-8.30928	-17.5671	0.559297
 577	1	5	0.009331	-7.96609	-19.2187	2.85932
 578	1	5	0.018167	-8.46419	-19.7634	1.24591
 579	1	2	-0.164337	-6.87852	-20.9542	-9.25604
 580	1	5	0.06697	-5.95185	-21.1248	-8.69443
 581	1	5	0.100055	-7.28195	-21.9322	-9.54564
 582	1	2	0.054914	-11.6788	-18.7375	-6.62459
 583	1	5	0.026242	-12.2564	-18.2073	-7.39169
 584	1	5	-0.001285	-12.2369	-19.6414	-6.35068
 585	1	1	0.066869	-11.2791	-32.4872	-8.53697
 586	1	1	0.053974	-9.9722	-32.0621	-8.67299
 587	1	1	-0.117882	-9.60354	-30.7301	-8.90596
 588	1	1	-0.084276	-10.7013	-29.8842	-9.12662
 589	1	1	-0.157972	-12.3802	-31.6087	-8.60941
 590	1	2	0.004935	-11.0465	-27.2581	-9.59041
 591	1	1	-0.170374	-12.03	-30.2929	-8.9832
 592	1	3	0.154019	-12.4783	-28.9293	-8.45315
 593	1	3	0.051574	-10.9775	-28.4794	-8.63568
 594	1	3	0.007409	-11.4596	-27.9028	-10.9503
 595	1	2	0.007138	-13.272	-27.8696	-9.27753
 596	1	1	-0.211215	-11.4996	-25.6325	-12.2912
 597	1	3	-0.023783	-12.9734	-28.2808	-10.7438
 598	1	2	-0.253384	-12.3638	-26.6214	-9.06544
 599	1	1	-0.027691	-13.2838	-27.2277	-11.8019
 600	1	1	-0.014027	-11.9433	-26.9295	-12.0095
 601	1	1	-0.211541	-14.2678	-26.2231	-11.8086
 602	1	1	-0.003037	-13.8451	-24.9105	-12.1208
 603	1	4	-0.005095	-12.488	-24.6289	-12.3949
 604	1	2	0.078204	-14.6172	-23.6072	-11.8394
 605	1	3	-0.018845	-11.5001	-19.7953	-10.2325
 606	1	4	0.006574	-12.2718	-23.1799	-12.2839
 607	1	1	0.013723	-13.4764	-22.5752	-11.86
 608	1	1	-0.173541	-13.4701	-21.2834	-11.2832
 609	1	1	-0.072264	-12.2427	-20.6007	-11.2943
 610	1	1	-0.030211	-11.0804	-21.1693	-11.7886
 611	1	3	0.009457	-10.1838	-20.417	-10.8337
 612	1	1	-0.176921	-11.0355	-22.4985	-12.2178
 613	1	2	0.038799	-11.2836	-18.2767	-10.4351
 614	1	2	0.012799	-10.135	-17.7493	-9.51068
 615	1	2	-0.181835	-10.552	-18.2319	-11.7958
 616	1	2	-0.004967	-8.83349	-18.3477	-10.1942
 617	1	2	0.05243	-9.41134	-19.1834	-11.372
 618	1	2	-0.049676	-15.6858	-23.3356	-12.9157