pySIMM System Object

3584 atoms
4168 bonds
8640 angles
15936 dihedrals
288 impropers

6 atom types
11 bond types
24 angle types
21 dihedral types
2 improper types

-214.078216 214.078216 xlo xhi
-214.078216 214.078216 ylo yhi
-214.078216 214.078216 zlo zhi

Masses

   1	12.01	# ca
   2	12.01	# c3
   3	12.01	# cy
   4	12.01	# cp
   5	1.008	# hc
   6	1.008	# ha

Pair Coeffs

   1	0.086	3.3996695084235347	# ca
   2	0.1094	3.3996695084235347	# c3
   3	0.086	3.3996695084235347	# cy
   4	0.086	3.3996695084235347	# cp
   5	0.0157	2.649532787749369	# hc
   6	0.015	2.59964245953351	# ha

Bond Coeffs

   1	321.2	1.5154	# ca,cy
   2	461.1	1.3984	# ca,ca
   3	305.9	1.5319	# c3,cy
   4	351.4	1.4854	# cp,cp
   5	345.8	1.086	# ca,ha
   6	300.9	1.5375	# c3,c3
   7	450.2	1.4058	# ca,cp
   8	285.0	1.5562	# cy,cy
   9	321.0	1.5156	# c3,ca
  10	330.6	1.0969	# c3,hc
  11	333.3	1.0949	# cy,hc

Angle Coeffs

   1	67.9	96.03	# cy,c3,cy
   2	61.4	116.81	# ca,cy,cy
   3	63.15	112.07	# c3,c3,ca
   4	45.97	114.53	# ca,cy,hc
   5	66.26	120.69	# ca,ca,cp
   6	46.34	109.8	# c3,c3,hc
   7	48.18	119.88	# ca,ca,ha
   8	62.73	112.39	# c3,c3,cy
   9	46.29	110.75	# cy,c3,hc
  10	44.83	114.79	# cy,cy,hc
  11	46.8	110.47	# ca,c3,hc
  12	66.72	118.38	# ca,cp,ca
  13	62.86	111.51	# c3,c3,c3
  14	46.43	110.14	# c3,cy,hc
  15	60.66	118.7	# c3,cy,cy
  16	63.43	120.63	# c3,ca,cp
  17	63.56	112.24	# ca,c3,ca
  18	64.05	121.11	# ca,cp,cp
  19	66.62	120.02	# ca,ca,ca
  20	39.4	107.58	# hc,c3,hc
  21	47.98	119.86	# cp,ca,ha
  22	63.53	120.77	# c3,ca,ca
  23	63.51	120.86	# ca,ca,cy
  24	62.8	113.57	# c3,cy,ca

Dihedral Coeffs

   1	1	0.16	3	0	# hc,c3,c3,c3
   2	1	0.0	2	0.0	# ca,ca,cy,cy
   3	1	1.0	2	180	# X,cp,cp,X
   4	1	0.0	2	0.0	# ca,ca,cy,c3
   5	3	0.38	3	180.0	0.0	2	0.0	1.15	1	0.0	# ca,ca,cy,hc
   6	1	0.0	2	0	# X,c3,ca,X
   7	1	0.16	3	0.0	# cy,c3,cy,ca
   8	1	0.15555555555555556	3	0	# X,c3,c3,X
   9	1	0.16	3	0.0	# c3,c3,cy,ca
  10	1	0.16	3	0.0	# hc,c3,cy,ca
  11	3	0.18	3	0.0	0.25	2	180.0	0.2	1	180.0	# cy,c3,cy,cy
  12	1	0.15	3	0	# hc,c3,c3,hc
  13	3	0.18	3	0.0	0.25	2	180.0	0.2	1	180.0	# c3,c3,cy,cy
  14	1	0.16	3	0.0	# hc,c3,cy,cy
  15	1	0.16	3	0.0	# cy,c3,cy,hc
  16	1	0.16	3	0.0	# c3,c3,cy,hc
  17	1	0.15	3	0.0	# hc,c3,cy,hc
  18	1	3.625	2	180	# X,ca,ca,X
  19	1	0.15555555555555556	3	0	# X,cy,cy,X
  20	1	3.625	2	180	# X,ca,cp,X
  21	3	0.18	3	0	0.25	2	180	0.2	1	180	# c3,c3,c3,c3

Improper Coeffs

   1	1.1	-1	2	# ca,ca,ca,c3
   2	1.1	-1	2	# ca,X,X,ha

Atoms

   1	1	1	0.066869	-1.03494	-48.2437	32.3049
   2	1	1	0.053974	-0.936625	-47.3118	33.3156
   3	1	1	-0.117882	-1.76871	-47.2713	34.448
   4	1	1	-0.084276	-2.66784	-48.3516	34.454
   5	1	1	-0.157972	-2.01821	-49.2486	32.2484
   6	1	2	0.004935	-5.27621	-47.9386	35.0491
   7	1	1	-0.170374	-2.79381	-49.2711	33.4253
   8	1	3	0.154019	-4.10585	-49.8391	33.9585
   9	1	3	0.051574	-3.96109	-48.7713	35.1304
  10	1	3	0.007409	-5.09018	-47.1196	33.7383
  11	1	2	0.007138	-5.50895	-49.5263	33.3513
  12	1	1	-0.211215	-7.39777	-45.7104	33.679
  13	1	3	-0.023783	-5.26225	-48.1971	32.5897
  14	1	2	-0.253384	-6.2702	-49.0594	34.6274
  15	1	1	-0.027691	-6.49935	-47.4168	32.1841
  16	1	1	-0.014027	-6.33811	-46.4709	33.1728
  17	1	1	-0.211541	-7.7473	-47.7227	31.6237
  18	1	1	-0.003037	-8.80938	-46.8792	32.0191
  19	1	4	-0.005095	-8.63464	-45.8874	33.0143
  20	1	2	0.078204	-10.2764	-46.9647	31.58
  21	1	3	-0.018845	-13.4434	-43.0933	33.273
  22	1	4	0.006574	-9.93294	-45.2526	33.277
  23	1	1	0.013723	-10.9054	-45.8564	32.4394
  24	1	1	-0.173541	-12.2195	-45.344	32.3491
  25	1	1	-0.072264	-12.505	-44.2861	33.2214
  26	1	1	-0.030211	-11.561	-43.6981	34.0309
  27	1	3	0.009457	-12.3561	-42.4147	34.2062
  28	1	1	-0.176921	-10.2229	-44.1066	34.0587
  29	1	2	0.038799	-13.5301	-42.115	32.0754
  30	1	2	0.012799	-12.2441	-42.1248	31.2048
  31	1	2	-0.181835	-13.3432	-40.7703	32.8077
  32	1	2	-0.004967	-11.1851	-41.4541	32.1194
  33	1	2	0.05243	-11.9748	-41.1367	33.4168
  34	1	2	-0.049676	-10.4814	-46.7273	30.0671
  35	1	2	-0.040251	-11.7117	-47.5599	29.6471
  36	1	5	0.031595	-10.6128	-45.6631	29.8354
  37	1	5	0.022689	-9.60612	-47.0832	29.5087
  38	1	2	-0.037258	-12.0797	-48.4604	30.845
  39	1	2	0.002978	-10.9203	-48.3408	31.8498
  40	1	5	0.016721	-10.1957	-49.1401	31.649
  41	1	5	-0.000468	-11.2606	-48.4487	32.8879
  42	1	5	0.056924	-2.00353	-46.5885	36.4903
  43	1	5	0.029852	-2.59411	-49.5318	30.1808
  44	1	5	0.043077	-5.54189	-47.3644	35.9455
  45	1	5	0.016056	-4.05464	-50.8802	34.2961
  46	1	5	0.041103	-3.84146	-49.2141	36.125
  47	1	5	0.055216	-4.20997	-46.4715	33.7094
  48	1	5	0.041749	-5.97702	-50.3338	32.7748
  49	1	6	0.155314	-7.29203	-45.0754	34.5522
  50	1	5	0.049935	-4.49523	-48.2446	31.8112
  51	1	5	0.098652	-7.27932	-48.681	34.4151
  52	1	5	0.045245	-6.34672	-49.8544	35.3816
  53	1	6	0.165622	-7.89424	-48.5828	30.9784
  54	1	5	0.050235	-14.4174	-43.2592	33.7463
  55	1	6	0.152615	-12.9329	-45.6859	31.6068
  56	1	5	0.037653	-12.6982	-42.1891	35.2222
  57	1	6	0.137195	-9.44899	-43.5389	34.5656
  58	1	5	0.010736	-14.4564	-42.1899	31.492
  59	1	5	-0.004925	-12.4018	-41.5251	30.3013
  60	1	5	0.039247	-14.1145	-40.5872	33.5686
  61	1	5	0.062128	-13.2942	-39.9104	32.1244
  62	1	5	0.003131	-10.8225	-40.5281	31.6603
  63	1	5	0.00404	-11.521	-40.3436	34.0245
  64	1	5	0.021644	-12.5547	-46.9067	29.3875
  65	1	5	0.012129	-11.4738	-48.1674	28.7644
  66	1	5	0.009331	-13.0077	-48.1	31.3068
  67	1	5	0.018167	-12.2398	-49.5017	30.5376
  68	1	2	-0.164337	-1.75049	-46.182	35.5035
  69	1	5	0.06697	-0.757582	-45.722	35.5799
  70	1	5	0.100055	-2.47591	-45.3936	35.2716
  71	1	2	0.054914	-2.2625	-50.1304	31.0382
  72	1	5	0.026242	-1.34567	-50.6582	30.748
  73	1	5	-0.001285	-3.03443	-50.8827	31.2428
  74	1	1	0.066869	0.559913	-34.7385	25.5553
  75	1	1	0.053974	0.0972287	-34.5257	26.8389
  76	1	1	-0.117882	0.771463	-34.9626	27.9986
  77	1	1	-0.084276	2.04524	-35.4951	27.7036
  78	1	1	-0.157972	1.74729	-35.4232	25.2542
  79	1	2	0.004935	2.88075	-37.8351	28.905
  80	1	1	-0.170374	2.49132	-35.7117	26.409
  81	1	3	0.154019	3.57069	-36.6836	26.8332
  82	1	3	0.051574	3.11486	-36.4009	28.3285
  83	1	3	0.007409	1.53649	-38.2344	28.2626
  84	1	2	0.007138	3.42203	-38.2267	26.6698
  85	1	1	-0.211215	1.25847	-40.7726	29.2128
  86	1	3	-0.023783	1.87413	-38.4603	26.7298
  87	1	2	-0.253384	3.90882	-38.6648	28.08
  88	1	1	-0.027691	1.39779	-39.8855	26.9557
  89	1	1	-0.014027	1.17795	-39.7097	28.301
  90	1	1	-0.211541	1.5431	-41.1377	26.3492
  91	1	1	-0.003037	1.44491	-42.2398	27.2235
  92	1	4	-0.005095	1.35596	-42.0622	28.6268
  93	1	2	0.078204	1.58715	-43.7222	26.8525
  94	1	3	-0.018845	2.4473	-47.116	30.811
  95	1	4	0.006574	1.51643	-43.3798	29.2639
  96	1	1	0.013723	1.60005	-44.3652	28.2433
  97	1	1	-0.173541	1.83251	-45.7293	28.5336
  98	1	1	-0.072264	1.94943	-46.0162	29.8961
  99	1	1	-0.030211	1.96191	-45.057	30.8751
 100	1	3	0.009457	2.5002	-45.9967	31.9438
 101	1	1	-0.176921	1.76149	-43.6955	30.6258
 102	1	2	0.038799	1.43972	-48.143	31.3881
 103	1	2	0.012799	-0.00709964	-47.5545	31.4249
 104	1	2	-0.181835	1.86241	-48.0708	32.874
 105	1	2	-0.004967	0.0845077	-46.4694	32.5788
 106	1	2	0.05243	1.56331	-46.5621	33.0379
 107	1	2	-0.049676	0.418893	-44.2061	25.9604
 108	1	2	-0.040251	0.982181	-44.2503	24.5304
 109	1	5	0.031595	0.115925	-45.2189	26.256
 110	1	5	0.022689	-0.463606	-43.5572	26.0338
 111	1	2	-0.037258	2.4576	-44.6367	24.7119
 112	1	2	0.002978	2.88776	-44.0119	26.0532
 113	1	5	0.016721	3.44529	-43.086	25.8752
 114	1	5	-0.000468	3.56315	-44.6901	26.5903
 115	1	5	0.056924	-0.718561	-35.6638	29.4075
 116	1	5	0.029852	1.72795	-35.2499	23.0959
 117	1	5	0.043077	2.94061	-37.9354	29.9961
 118	1	5	0.016056	4.59548	-36.3654	26.6109
 119	1	5	0.041103	3.8656	-35.8709	28.9243
 120	1	5	0.055216	0.699352	-37.5777	28.5102
 121	1	5	0.041749	3.95352	-38.6617	25.817
 122	1	6	0.155314	1.30127	-40.6167	30.286
 123	1	5	0.049935	1.28804	-37.9157	25.9866
 124	1	5	0.098652	3.82681	-39.748	28.2441
 125	1	5	0.045245	4.94384	-38.3574	28.2808
 126	1	6	0.165622	1.75311	-41.2579	25.294
 127	1	5	0.050235	3.40245	-47.5807	30.5423
 128	1	6	0.152615	1.98278	-46.4781	27.7619
 129	1	5	0.037653	3.49783	-45.7677	32.3326
 130	1	6	0.137195	1.84616	-42.9332	31.3914
 131	1	5	0.010736	1.50068	-49.1456	30.9466
 132	1	5	-0.004925	-0.406974	-47.1777	30.4746
 133	1	5	0.039247	2.92497	-48.3084	33.024
 134	1	5	0.062128	1.27018	-48.7161	33.5361
 135	1	5	0.003131	-0.272841	-45.475	32.288
 136	1	5	0.00404	1.73909	-46.1724	34.0481
 137	1	5	0.021644	0.442542	-44.9616	23.8925
 138	1	5	0.012129	0.912606	-43.2552	24.0727
 139	1	5	0.009331	2.54121	-45.7293	24.7768
 140	1	5	0.018167	3.08191	-44.2974	23.877
 141	1	2	-0.164337	0.139787	-34.9811	29.3788
 142	1	5	0.06697	0.856945	-35.3088	30.1415
 143	1	5	0.100055	-0.215549	-33.9819	29.659
 144	1	2	0.054914	2.11479	-35.922	23.8715
 145	1	5	0.026242	3.20339	-35.9813	23.7499
 146	1	5	-0.001285	1.70154	-36.9222	23.6995
 147	1	1	0.066869	-4.07601	-43.1848	31.3298
 148	1	1	0.053974	-4.76336	-42.2346	32.0754
 149	1	1	-0.117882	-6.16138	-42.1025	32.0648
 150	1	1	-0.084276	-6.80154	-43.1227	31.3453
 151	1	1	-0.157972	-4.72424	-44.1238	30.5002
 152	1	2	0.004935	-8.48251	-42.1965	29.4534
 153	1	1	-0.170374	-6.13187	-44.0839	30.6019
 154	1	3	0.154019	-7.35491	-44.3977	29.7234
 155	1	3	0.051574	-8.07714	-43.2455	30.5373
 156	1	3	0.007409	-7.1097	-41.6415	28.9467
 157	1	2	0.007138	-7.56615	-43.9587	28.2347
 158	1	1	-0.211215	-6.79292	-39.5197	27.3221
 159	1	3	-0.023783	-6.5316	-42.828	28.0792
 160	1	2	-0.253384	-8.90823	-43.1725	28.3227
 161	1	1	-0.027691	-6.6865	-41.9012	26.8888
 162	1	1	-0.014027	-7.1185	-40.8411	27.6577
 163	1	1	-0.211541	-6.03852	-41.7547	25.6565
 164	1	1	-0.003037	-5.89866	-40.4259	25.2022
 165	1	4	-0.005095	-6.22234	-39.3318	26.0393
 166	1	2	0.078204	-5.16581	-39.9589	23.938
 167	1	3	-0.018845	-3.03066	-35.2346	24.1537
 168	1	4	0.006574	-5.64883	-38.1132	25.4473
 169	1	1	0.013723	-5.0528	-38.452	24.2088
 170	1	1	-0.173541	-4.27353	-37.5251	23.4836
 171	1	1	-0.072264	-4.16247	-36.2449	24.0439
 172	1	1	-0.030211	-4.67153	-35.9443	25.2944
 173	1	3	0.009457	-3.59055	-34.9231	25.5989
 174	1	1	-0.176921	-5.39579	-36.8639	26.0631
 175	1	2	0.038799	-1.60064	-35.7408	24.4476
 176	1	2	0.012799	-0.78739	-34.4972	24.9101
 177	1	2	-0.181835	-1.78928	-36.5213	25.771
 178	1	2	-0.004967	-1.32541	-34.2369	26.379
 179	1	2	0.05243	-2.41983	-35.3327	26.5329
 180	1	2	-0.049676	-3.78265	-40.6482	23.7653
 181	1	2	-0.040251	-3.9114	-41.5646	22.5372
 182	1	5	0.031595	-2.99956	-39.9056	23.5743
 183	1	5	0.022689	-3.47636	-41.2113	24.6562
 184	1	2	-0.037258	-4.97766	-40.8935	21.6588
 185	1	2	0.002978	-5.97252	-40.271	22.6523
 186	1	5	0.016721	-6.76351	-41.0003	22.8714
 187	1	5	-0.000468	-6.45263	-39.3778	22.2317
 188	1	5	0.056924	-7.96443	-40.9854	32.5373
 189	1	5	0.029852	-4.66321	-45.5608	28.8695
 190	1	5	0.043077	-9.22598	-41.4499	29.7571
 191	1	5	0.016056	-7.78157	-45.3913	29.8822
 192	1	5	0.041103	-8.95324	-43.5877	31.0962
 193	1	5	0.055216	-6.48105	-41.188	29.7132
 194	1	5	0.041749	-7.52115	-44.7573	27.4838
 195	1	6	0.155314	-6.86954	-38.7046	28.0333
 196	1	5	0.049935	-5.49975	-43.145	28.2281
 197	1	5	0.098652	-9.17094	-42.658	27.3886
 198	1	5	0.045245	-9.74988	-43.8119	28.6182
 199	1	6	0.165622	-5.58446	-42.5944	25.14
 200	1	5	0.050235	-3.05568	-34.4095	23.4333
 201	1	6	0.152615	-3.70007	-37.8205	22.6135
 202	1	5	0.037653	-3.92763	-33.9032	25.7646
 203	1	6	0.137195	-5.63752	-36.6799	27.1054
 204	1	5	0.010736	-1.12599	-36.3106	23.6421
 205	1	5	-0.004925	-0.832205	-33.6196	24.2522
 206	1	5	0.039247	-0.852493	-36.8799	26.2133
 207	1	5	0.062128	-2.45784	-37.3865	25.6827
 208	1	5	0.003131	-1.65474	-33.2083	26.5569
 209	1	5	0.00404	-2.7006	-35.5481	27.5713
 210	1	5	0.021644	-2.95668	-41.6937	22.0122
 211	1	5	0.012129	-4.26678	-42.5542	22.8527
 212	1	5	0.009331	-4.51951	-40.0977	21.0588
 213	1	5	0.018167	-5.46178	-41.6046	20.9775
 214	1	2	-0.164337	-6.8766	-40.8444	32.528
 215	1	5	0.06697	-6.56662	-40.5723	33.5444
 216	1	5	0.100055	-6.65157	-39.9969	31.8692
 217	1	2	0.054914	-3.97501	-44.9559	29.4727
 218	1	5	0.026242	-3.39784	-44.3183	28.7915
 219	1	5	-0.001285	-3.27355	-45.6402	29.9664
 220	1	1	0.066869	3.76683	-33.6692	39.4784
 221	1	1	0.053974	2.56687	-33.8012	40.1523
 222	1	1	-0.117882	2.21979	-34.9031	40.9467
 223	1	1	-0.084276	3.29322	-35.7931	41.1092
 224	1	1	-0.157972	4.76995	-34.6613	39.4965
 225	1	2	0.004935	2.72895	-38.3931	40.6671
 226	1	1	-0.170374	4.49591	-35.6918	40.4242
 227	1	3	0.154019	4.88502	-37.1525	40.6958
 228	1	3	0.051574	3.48115	-37.2614	41.431
 229	1	3	0.007409	2.45684	-37.7612	39.265
 230	1	2	0.007138	4.83381	-38.3229	39.6574
 231	1	1	-0.211215	0.990229	-39.558	37.8115
 232	1	3	-0.023783	3.88647	-37.7666	38.5725
 233	1	2	-0.253384	3.92764	-39.3481	40.4019
 234	1	1	-0.027691	3.28911	-38.7635	37.5933
 235	1	1	-0.014027	2.04425	-38.7125	38.1621
 236	1	1	-0.211541	3.67976	-39.7714	36.7013
 237	1	1	-0.003037	2.62765	-40.6224	36.2825
 238	1	4	-0.005095	1.30943	-40.4829	36.7861
 239	1	2	0.078204	2.7127	-41.8086	35.3117
 240	1	3	-0.018845	-1.80867	-43.271	33.2214
 241	1	4	0.006574	0.443326	-41.4547	36.1081
 242	1	1	0.013723	1.23723	-42.2464	35.2458
 243	1	1	-0.173541	0.646064	-43.1188	34.3039
 244	1	1	-0.072264	-0.756449	-43.1964	34.3203
 245	1	1	-0.030211	-1.52518	-42.3612	35.1124
 246	1	3	0.009457	-2.65472	-42.2737	34.1029
 247	1	1	-0.176921	-0.965685	-41.4353	35.9998
 248	1	2	0.038799	-1.54937	-42.4704	31.9259
 249	1	2	0.012799	-2.86808	-42.2762	31.1232
 250	1	2	-0.181835	-1.37111	-41.0278	32.4564
 251	1	2	-0.004967	-3.6494	-41.2164	31.9954
 252	1	2	0.05243	-2.71743	-40.9971	33.2164
 253	1	2	-0.049676	3.28328	-41.4299	33.9197
 254	1	2	-0.040251	4.26118	-42.5537	33.5108
 255	1	5	0.031595	2.48311	-41.3111	33.1781
 256	1	5	0.022689	3.8242	-40.476	33.963
 257	1	2	-0.037258	4.14204	-43.653	34.5813
 258	1	2	0.002978	3.62152	-42.9405	35.8367
 259	1	5	0.016721	4.47334	-42.5159	36.3837
 260	1	5	-0.000468	3.09353	-43.6262	36.5121
 261	1	5	0.056924	0.769869	-36.0568	42.0815
 262	1	5	0.029852	6.60258	-35.5295	38.7163
 263	1	5	0.043077	1.86266	-38.8297	41.1797
 264	1	5	0.016056	5.74378	-37.2769	41.3646
 265	1	5	0.041103	3.55537	-37.4956	42.4986
 266	1	5	0.055216	1.88348	-36.8325	39.2654
 267	1	5	0.041749	5.80171	-38.6995	39.3038
 268	1	6	0.155314	0.0186453	-39.5226	38.2937
 269	1	5	0.049935	4.22735	-36.8441	38.0983
 270	1	5	0.098652	3.65632	-40.2152	39.7843
 271	1	5	0.045245	4.38643	-39.7108	41.3319
 272	1	6	0.165622	4.70672	-39.8965	36.3726
 273	1	5	0.050235	-2.24305	-44.2602	33.0398
 274	1	6	0.152615	1.2275	-43.5931	33.5223
 275	1	5	0.037653	-3.63222	-42.6234	34.4523
 276	1	6	0.137195	-1.55894	-40.6495	36.4561
 277	1	5	0.010736	-0.717597	-42.8361	31.3158
 278	1	5	-0.004925	-2.72552	-41.9312	30.0904
 279	1	5	0.039247	-1.31542	-40.282	31.6502
 280	1	5	0.062128	-0.496905	-40.892	33.104
 281	1	5	0.003131	-3.89179	-40.3071	31.4292
 282	1	5	0.00404	-2.91233	-40.0638	33.7593
 283	1	5	0.021644	4.04232	-42.9443	32.5093
 284	1	5	0.012129	5.28572	-42.1597	33.5015
 285	1	5	0.009331	3.40896	-44.402	34.2638
 286	1	5	0.018167	5.0971	-44.1629	34.7603
 287	1	2	-0.164337	0.802062	-35.1921	41.4071
 288	1	5	0.06697	0.383943	-34.3322	41.945
 289	1	5	0.100055	0.147631	-35.4057	40.553
 290	1	2	0.054914	5.93081	-34.685	38.518
 291	1	5	0.026242	5.57163	-34.7744	37.4853
 292	1	5	-0.001285	6.52022	-33.7627	38.5907
 293	1	1	0.066869	-5.18811	-21.8154	39.9902
 294	1	1	0.053974	-5.58083	-22.7896	40.8883
 295	1	1	-0.117882	-4.96402	-23.0222	42.1278
 296	1	1	-0.084276	-3.9647	-22.0722	42.4066
 297	1	1	-0.157972	-4.05003	-21.0074	40.185
 298	1	2	0.004935	-1.60257	-23.0622	43.2863
 299	1	1	-0.170374	-3.51115	-21.1421	41.4819
 300	1	3	0.154019	-2.19186	-20.8977	42.22
 301	1	3	0.051574	-2.71541	-21.9729	43.2663
 302	1	3	0.007409	-1.75574	-23.7356	41.8927
 303	1	2	0.007138	-0.796068	-21.462	41.7868
 304	1	1	-0.211215	-0.0187185	-25.8421	41.7473
 305	1	3	-0.023783	-1.17052	-22.6602	40.878
 306	1	2	-0.253384	-0.348128	-22.1597	43.105
 307	1	1	-0.027691	-0.0867347	-23.6924	40.5924
 308	1	1	-0.014027	-0.61496	-24.6181	41.4494
 309	1	1	-0.211541	1.15572	-23.8464	39.9609
 310	1	1	-0.003037	1.77607	-25.1005	40.1966
 311	1	4	-0.005095	1.19291	-26.0724	41.0509
 312	1	2	0.078204	3.10547	-25.6182	39.6208
 313	1	3	-0.018845	3.91677	-30.7732	40.0588
 314	1	4	0.006574	2.04318	-27.2661	41.0564
 315	1	1	0.013723	3.16733	-27.0299	40.2318
 316	1	1	-0.173541	4.0567	-28.076	39.8894
 317	1	1	-0.072264	3.81472	-29.3173	40.5046
 318	1	1	-0.030211	2.68447	-29.5457	41.268
 319	1	3	0.009457	2.59506	-31.0086	40.8925
 320	1	1	-0.176921	1.7301	-28.5592	41.5294
 321	1	2	0.038799	3.48885	-31.1315	38.6149
 322	1	2	0.012799	3.20351	-32.6616	38.48
 323	1	2	-0.181835	2.03474	-30.6044	38.5637
 324	1	2	-0.004967	1.8359	-32.8217	39.2676
 325	1	2	0.05243	1.55582	-31.3946	39.8027
 326	1	2	-0.049676	3.10434	-25.6381	38.0685
 327	1	2	-0.040251	4.43929	-25.0134	37.6287
 328	1	5	0.031595	2.97826	-26.6491	37.6602
 329	1	5	0.022689	2.28013	-25.0255	37.6812
 330	1	2	-0.037258	4.81161	-24.0505	38.7649
 331	1	2	0.002978	4.31449	-24.7452	40.0439
 332	1	5	0.016721	4.05417	-24.0171	40.823
 333	1	5	-0.000468	5.11787	-25.3805	40.4395
 334	1	5	0.056924	-4.99063	-25.1717	42.415
 335	1	5	0.029852	-2.5633	-19.6031	39.4527
 336	1	5	0.043077	-1.59829	-23.7352	44.1529
 337	1	5	0.016056	-2.08249	-19.8912	42.6387
 338	1	5	0.041103	-2.87909	-21.5697	44.2716
 339	1	5	0.055216	-2.73062	-24.1774	41.6835
 340	1	5	0.041749	-0.0923006	-20.7363	41.3606
 341	1	6	0.155314	-0.446141	-26.5533	42.4465
 342	1	5	0.049935	-1.77276	-22.3987	40.0043
 343	1	5	0.098652	0.581783	-22.7343	42.9945
 344	1	5	0.045245	-0.223744	-21.4474	43.932
 345	1	6	0.165622	1.59768	-23.0755	39.3374
 346	1	5	0.050235	4.8129	-31.3086	40.3914
 347	1	6	0.152615	4.80995	-27.9576	39.1168
 348	1	5	0.037653	2.64918	-31.7115	41.7308
 349	1	6	0.137195	0.760097	-28.7947	41.955
 350	1	5	0.010736	4.14172	-30.7317	37.829
 351	1	5	-0.004925	3.12888	-33.0267	37.4472
 352	1	5	0.039247	1.50901	-30.893	37.6422
 353	1	5	0.062128	1.94947	-29.5166	38.6769
 354	1	5	0.003131	1.03951	-33.2548	38.648
 355	1	5	0.00404	0.507619	-31.2221	40.0772
 356	1	5	0.021644	5.20385	-25.7969	37.5453
 357	1	5	0.012129	4.35973	-24.5026	36.6606
 358	1	5	0.009331	5.88865	-23.8427	38.7972
 359	1	5	0.018167	4.27886	-23.0999	38.631
 360	1	2	-0.164337	-5.22304	-24.2566	42.9737
 361	1	5	0.06697	-4.61138	-24.2529	43.8843
 362	1	5	0.100055	-6.27589	-24.3058	43.2778
 363	1	2	0.054914	-3.3934	-20.2109	39.0718
 364	1	5	0.026242	-2.99574	-20.8769	38.296
 365	1	5	-0.001285	-4.11547	-19.5346	38.5979
 366	1	1	0.066869	-16.6984	-28.0387	34.8338
 367	1	1	0.053974	-16.0084	-28.7406	35.8038
 368	1	1	-0.117882	-16.2392	-28.5975	37.1857
 369	1	1	-0.084276	-17.3434	-27.7628	37.4594
 370	1	1	-0.157972	-17.6622	-27.0567	35.1173
 371	1	2	0.004935	-17.0691	-25.8618	39.412
 372	1	1	-0.170374	-17.9946	-27.0221	36.4836
 373	1	3	0.154019	-18.6059	-26.0482	37.48
 374	1	3	0.051574	-17.8937	-26.9137	38.6066
 375	1	3	0.007409	-15.9055	-25.5453	38.4439
 376	1	2	0.007138	-18.0672	-24.6004	37.7195
 377	1	1	-0.211215	-13.8877	-23.9818	39.3638
 378	1	3	-0.023783	-16.5746	-24.6969	37.2829
 379	1	2	-0.253384	-17.9814	-24.6083	39.2731
 380	1	1	-0.027691	-15.6515	-23.5709	37.7251
 381	1	1	-0.014027	-15.0984	-24.3027	38.747
 382	1	1	-0.211541	-15.0135	-22.4582	37.158
 383	1	1	-0.003037	-13.824	-22.0523	37.8119
 384	1	4	-0.005095	-13.2948	-22.779	38.9087
 385	1	2	0.078204	-12.8512	-20.9426	37.377
 386	1	3	-0.018845	-8.03025	-21.1701	39.4817
 387	1	4	0.006574	-11.9963	-22.1998	39.2737
 388	1	1	0.013723	-11.7032	-21.1426	38.3801
 389	1	1	-0.173541	-10.4208	-20.5455	38.3488
 390	1	1	-0.072264	-9.5359	-20.9539	39.3599
 391	1	1	-0.030211	-9.84299	-21.9611	40.2528
 392	1	3	0.009457	-8.39643	-22.3231	40.5021
 393	1	1	-0.176921	-11.0391	-22.6827	40.1951
 394	1	2	0.038799	-7.29685	-21.9346	38.3443
 395	1	2	0.012799	-5.90729	-22.468	38.8199
 396	1	2	-0.181835	-8.05837	-23.2802	38.3055
 397	1	2	-0.004967	-6.31303	-23.6089	39.8451
 398	1	2	0.05243	-7.86207	-23.5974	39.8064
 399	1	2	-0.049676	-12.3895	-21.1018	35.9019
 400	1	2	-0.040251	-12.5879	-19.7298	35.2337
 401	1	5	0.031595	-11.3473	-21.4364	35.822
 402	1	5	0.022689	-13.0071	-21.8459	35.3834
 403	1	2	-0.037258	-13.7085	-19.057	36.0389
 404	1	2	0.002978	-13.4863	-19.5336	37.4835
 405	1	5	0.016721	-14.4218	-19.5366	38.0581
 406	1	5	-0.000468	-12.792	-18.8445	37.9822
 407	1	5	0.056924	-15.2365	-30.2502	38.162
 408	1	5	0.029852	-18.4543	-26.5427	33.167
 409	1	5	0.043077	-16.7844	-26.1457	40.433
 410	1	5	0.016056	-19.7003	-26.0664	37.5312
 411	1	5	0.041103	-18.5927	-27.4377	39.2673
 412	1	5	0.055216	-15.2789	-26.4015	38.1898
 413	1	5	0.041749	-18.6511	-23.7876	37.2699
 414	1	6	0.155314	-13.3998	-24.6426	40.0726
 415	1	5	0.049935	-16.4243	-25.001	36.244
 416	1	5	0.098652	-17.5268	-23.696	39.6829
 417	1	5	0.045245	-18.963	-24.7533	39.7447
 418	1	6	0.165622	-15.3608	-21.9968	36.2389
 419	1	5	0.050235	-7.45939	-20.3232	39.8781
 420	1	6	0.152615	-10.114	-19.8775	37.5499
 421	1	5	0.037653	-8.0574	-22.2038	41.5369
 422	1	6	0.137195	-11.1862	-23.6018	40.7527
 423	1	5	0.010736	-7.26253	-21.4074	37.3827
 424	1	5	-0.004925	-5.25389	-22.8403	38.0198
 425	1	5	0.039247	-7.58277	-24.0213	37.6472
 426	1	5	0.062128	-9.1103	-23.1844	38.0079
 427	1	5	0.003131	-5.8486	-24.5738	39.6022
 428	1	5	0.00404	-8.32209	-24.5362	40.1392
 429	1	5	0.021644	-11.6664	-19.1397	35.3245
 430	1	5	0.012129	-12.8379	-19.8189	34.1689
 431	1	5	0.009331	-13.6825	-17.9633	35.9538
 432	1	5	0.018167	-14.684	-19.4102	35.6796
 433	1	2	-0.164337	-15.3124	-29.1593	38.2493
 434	1	5	0.06697	-14.3023	-28.7428	38.1502
 435	1	5	0.100055	-15.6761	-28.9286	39.2582
 436	1	2	0.054914	-18.1527	-26.0452	34.0972
 437	1	5	0.026242	-19.0181	-25.4866	34.475
 438	1	5	-0.001285	-17.3646	-25.3223	33.8529
 439	1	1	0.066869	-8.77465	-34.4378	27.1847
 440	1	1	0.053974	-8.22395	-34.3595	28.4524
 441	1	1	-0.117882	-8.26402	-35.4249	29.3729
 442	1	1	-0.084276	-8.73369	-36.6236	28.8006
 443	1	1	-0.157972	-9.36286	-35.5982	26.6538
 444	1	2	0.004935	-10.7082	-37.9475	30.1583
 445	1	1	-0.170374	-9.23512	-36.7096	27.5091
 446	1	3	0.154019	-9.99649	-38.0018	27.7846
 447	1	3	0.051574	-9.42645	-37.905	29.2636
 448	1	3	0.007409	-11.3479	-36.5556	29.9201
 449	1	2	0.007138	-11.5432	-38.0762	27.9835
 450	1	1	-0.211215	-13.423	-35.6131	31.3441
 451	1	3	-0.023783	-11.9024	-36.6384	28.4459
 452	1	2	-0.253384	-11.6065	-38.8891	29.3062
 453	1	1	-0.027691	-13.2754	-36.4327	29.0508
 454	1	1	-0.014027	-12.7961	-36.3721	30.3456
 455	1	1	-0.211541	-14.3948	-35.705	28.6282
 456	1	1	-0.003037	-15.097	-35.0109	29.6355
 457	1	4	-0.005095	-14.6419	-34.9904	30.9758
 458	1	2	0.078204	-16.2228	-33.9927	29.4162
 459	1	3	-0.018845	-16.8766	-30.4954	33.2531
 460	1	4	0.006574	-15.4398	-34.0011	31.7215
 461	1	1	0.013723	-16.3347	-33.378	30.8179
 462	1	1	-0.173541	-17.0458	-32.2125	31.1774
 463	1	1	-0.072264	-16.9326	-31.8244	32.5181
 464	1	1	-0.030211	-16.1168	-32.4711	33.4254
 465	1	3	0.009457	-15.9815	-31.2494	34.3177
 466	1	1	-0.176921	-15.265	-33.5172	33.0423
 467	1	2	0.038799	-15.914	-29.4011	32.703
 468	1	2	0.012799	-15.6598	-28.2914	33.7643
 469	1	2	-0.181835	-14.5322	-30.0893	32.7794
 470	1	2	-0.004967	-14.8341	-29.0534	34.885
 471	1	2	0.05243	-14.6479	-30.4725	34.2743
 472	1	2	-0.049676	-15.8838	-32.934	28.3273
 473	1	2	-0.040251	-17.0017	-33.0127	27.2699
 474	1	5	0.031595	-15.8542	-31.9253	28.7576
 475	1	5	0.022689	-14.9037	-33.1082	27.866
 476	1	2	-0.037258	-18.1909	-33.6771	27.9792
 477	1	2	0.002978	-17.5473	-34.6575	28.9717
 478	1	5	0.016721	-17.3362	-35.6016	28.4523
 479	1	5	-0.000468	-18.212	-34.8811	29.8163
 480	1	5	0.056924	-8.75003	-34.5404	31.2927
 481	1	5	0.029852	-9.62364	-35.2862	24.527
 482	1	5	0.043077	-10.5571	-38.2308	31.207
 483	1	5	0.016056	-9.64087	-38.8745	27.2259
 484	1	5	0.041103	-8.75092	-38.7236	29.5328
 485	1	5	0.055216	-10.7126	-35.7148	30.2041
 486	1	5	0.041749	-12.121	-38.4732	27.1396
 487	1	6	0.155314	-12.9387	-35.4012	32.2916
 488	1	5	0.049935	-11.6474	-35.8534	27.7344
 489	1	5	0.098652	-12.6263	-38.9884	29.7017
 490	1	5	0.045245	-11.1693	-39.8894	29.1909
 491	1	6	0.165622	-14.622	-35.5694	27.5753
 492	1	5	0.050235	-17.8398	-30.106	33.6003
 493	1	6	0.152615	-17.5716	-31.6061	30.4466
 494	1	5	0.037653	-16.3929	-31.3571	35.3273
 495	1	6	0.137195	-14.4614	-33.8676	33.6815
 496	1	5	0.010736	-16.1735	-29.0126	31.7103
 497	1	5	-0.004925	-15.1416	-27.3973	33.3929
 498	1	5	0.039247	-13.6989	-29.4005	32.58
 499	1	5	0.062128	-14.4319	-30.9493	32.1055
 500	1	5	0.003131	-13.9005	-28.5329	35.1356
 501	1	5	0.00404	-13.7825	-31.0173	34.6718
 502	1	5	0.021644	-17.2606	-32.0254	26.8664
 503	1	5	0.012129	-16.6727	-33.6485	26.4375
 504	1	5	0.009331	-18.7652	-32.9192	28.5277
 505	1	5	0.018167	-18.8655	-34.1814	27.2757
 506	1	2	-0.164337	-8.02675	-35.2438	30.8619
 507	1	5	0.06697	-8.11983	-36.1952	31.4001
 508	1	5	0.100055	-7.0206	-34.8494	31.0504
 509	1	2	0.054914	-10.2169	-35.5917	25.3976
 510	1	5	0.026242	-10.629	-36.5869	25.1893
 511	1	5	-0.001285	-11.0565	-34.8923	25.4954
 512	1	1	0.066869	6.54421	-27.7557	25.3824
 513	1	1	0.053974	6.43911	-28.1237	26.7092
 514	1	1	-0.117882	5.65637	-29.1983	27.1713
 515	1	1	-0.084276	4.8552	-29.7473	26.1564
 516	1	1	-0.157972	5.87059	-28.4218	24.3387
 517	1	2	0.004935	2.70699	-31.4025	26.0432
 518	1	1	-0.170374	4.96257	-29.387	24.8198
 519	1	3	0.154019	4.35492	-30.6948	24.324
 520	1	3	0.051574	4.22816	-31.1018	25.8532
 521	1	3	0.007409	2.07275	-29.9831	25.9885
 522	1	2	0.007138	2.89587	-30.809	23.7922
 523	1	1	-0.211215	-0.613667	-30.4002	26.3236
 524	1	3	-0.023783	2.20683	-29.5899	24.4563
 525	1	2	-0.253384	2.37592	-31.9989	24.6444
 526	1	1	-0.027691	0.693208	-29.5878	24.432
 527	1	1	-0.014027	0.57006	-29.901	25.763
 528	1	1	-0.211541	-0.324702	-29.8166	23.5016
 529	1	1	-0.003037	-1.57011	-30.1777	24.0508
 530	1	4	-0.005095	-1.72249	-30.4417	25.4361
 531	1	2	0.078204	-2.85786	-30.4743	23.2743
 532	1	3	-0.018845	-6.80239	-32.7073	25.9852
 533	1	4	0.006574	-3.1038	-30.9013	25.6654
 534	1	1	0.013723	-3.76842	-30.9517	24.4096
 535	1	1	-0.173541	-5.07308	-31.4752	24.2773
 536	1	1	-0.072264	-5.67414	-31.8339	25.4853
 537	1	1	-0.030211	-5.05642	-31.7556	26.7083
 538	1	3	0.009457	-6.09746	-32.6188	27.4069
 539	1	1	-0.176921	-3.72735	-31.344	26.8637
 540	1	2	0.038799	-8.16905	-32.0305	26.2255
 541	1	2	0.012799	-9.05933	-32.9483	27.104
 542	1	2	-0.181835	-7.83289	-30.9425	27.2718
 543	1	2	-0.004967	-8.3873	-32.8509	28.5353
 544	1	2	0.05243	-7.1693	-31.9112	28.278
 545	1	2	-0.049676	-3.40041	-29.2247	22.5489
 546	1	2	-0.040251	-2.77228	-29.2423	21.1432
 547	1	5	0.031595	-4.49119	-29.2984	22.4506
 548	1	5	0.022689	-3.17365	-28.2963	23.0892
 549	1	2	-0.037258	-2.39505	-30.7095	20.8495
 550	1	2	0.002978	-2.63928	-31.5117	22.1478
 551	1	5	0.016721	-1.80806	-32.1932	22.3694
 552	1	5	-0.000468	-3.54035	-32.124	22.0175
 553	1	5	0.056924	6.35858	-30.7637	28.4949
 554	1	5	0.029852	6.5837	-29.1706	22.4336
 555	1	5	0.043077	2.43856	-32.0215	26.909
 556	1	5	0.016056	5.02757	-31.3187	23.7251
 557	1	5	0.041103	4.82673	-31.9664	26.1599
 558	1	5	0.055216	2.45285	-29.2788	26.7365
 559	1	5	0.041749	2.78027	-30.9006	22.7051
 560	1	6	0.155314	-0.668194	-30.7639	27.3445
 561	1	5	0.049935	2.65608	-28.6203	24.2179
 562	1	5	0.098652	1.30446	-32.191	24.503
 563	1	5	0.045245	2.9313	-32.9249	24.445
 564	1	6	0.165622	-0.161725	-29.7572	22.4328
 565	1	5	0.050235	-6.8803	-33.688	25.5024
 566	1	6	0.152615	-5.55234	-31.6332	23.3159
 567	1	5	0.037653	-5.7188	-33.5436	27.8559
 568	1	6	0.137195	-3.19878	-31.4136	27.8088
 569	1	5	0.010736	-8.66772	-31.6578	25.322
 570	1	5	-0.004925	-10.1235	-32.6783	27.1253
 571	1	5	0.039247	-8.72869	-30.4522	27.6789
 572	1	5	0.062128	-7.15551	-30.1643	26.8966
 573	1	5	0.003131	-9.09026	-32.4997	29.3022
 574	1	5	0.00404	-6.78273	-31.4284	29.1842
 575	1	5	0.021644	-3.46299	-28.8421	20.3902
 576	1	5	0.012129	-1.86977	-28.619	21.1331
 577	1	5	0.009331	-3.0029	-31.114	20.03
 578	1	5	0.018167	-1.34305	-30.7685	20.5444
 579	1	2	-0.164337	5.79898	-29.8218	28.5476
 580	1	5	0.06697	6.32893	-29.1518	29.2362
 581	1	5	0.100055	4.81481	-30.0379	28.9816
 582	1	2	0.054914	6.19642	-28.2403	22.8671
 583	1	5	0.026242	5.30006	-27.9529	22.3033
 584	1	5	-0.001285	6.95186	-27.4587	22.718
 585	1	1	0.066869	9.70321	-42.1286	25.3783
 586	1	1	0.053974	9.03591	-41.6973	26.5101
 587	1	1	-0.117882	8.81882	-40.35	26.8279
 588	1	1	-0.084276	9.4582	-39.4637	25.9505
 589	1	1	-0.157972	10.2444	-41.2326	24.431
 590	1	2	0.004935	9.49706	-36.7933	25.6457
 591	1	1	-0.170374	10.15	-39.8728	24.8059
 592	1	3	0.154019	9.71127	-38.6417	24.0077
 593	1	3	0.051574	8.93594	-38.198	25.3057
 594	1	3	0.007409	10.9457	-37.1125	26.1258
 595	1	2	0.007138	10.6153	-37.4084	23.6974
 596	1	1	-0.211215	11.6041	-34.6029	26.6079
 597	1	3	-0.023783	11.7054	-37.4907	24.7997
 598	1	2	-0.253384	9.69117	-36.2585	24.1989
 599	1	1	-0.027691	12.5216	-36.2211	25.0203
 600	1	1	-0.014027	11.8748	-35.9179	26.2113
 601	1	1	-0.211541	12.8918	-35.2141	24.1112
 602	1	1	-0.003037	12.6534	-33.8781	24.5058
 603	1	4	-0.005095	12.0599	-33.5767	25.7524
 604	1	2	0.078204	12.6575	-32.6383	23.597
 605	1	3	-0.018845	9.18292	-29.0118	25.0164
 606	1	4	0.006574	11.6283	-32.1717	25.7495
 607	1	1	0.013723	11.8952	-31.6266	24.471
 608	1	1	-0.173541	11.2552	-30.4399	24.0453
 609	1	1	-0.072264	10.4981	-29.7737	25.0184
 610	1	1	-0.030211	10.3138	-30.2571	26.2981
 611	1	3	0.009457	9.00173	-29.5239	26.499
 612	1	1	-0.176921	10.7852	-31.5167	26.681
 613	1	2	0.038799	9.21894	-27.4788	25.1773
 614	1	2	0.012799	7.81633	-26.9386	25.5986
 615	1	2	-0.181835	9.97154	-27.3057	26.5162
 616	1	2	-0.004967	7.70545	-27.3981	27.115
 617	1	2	0.05243	9.01759	-28.2088	27.3297
 618	1	2	-0.049676	14.077	-32.146	23.2552
 619	1	2	-0.040251	13.9205	-31.3238	21.9648
 620	1	5	0.031595	14.5255	-31.5606	24.0684
 621	1	5	0.022689	14.7288	-33.007	23.0564
 622	1	2	-0.037258	12.7174	-31.9333	21.216
 623	1	2	0.002978	11.9764	-32.8451	22.2195
 624	1	5	0.016721	12.0779	-33.8835	21.8842
 625	1	5	-0.000468	10.9019	-32.6227	22.2537
 626	1	5	0.056924	6.79272	-39.6888	27.2436
 627	1	5	0.029852	11.7496	-41.4432	22.8888
 628	1	5	0.043077	8.8845	-36.1775	26.3162
 629	1	5	0.016056	9.07845	-38.864	23.1411
 630	1	5	0.041103	7.84591	-38.1512	25.2054