pySIMM System Object

1784 atoms
2080 bonds
4320 angles
7992 dihedrals
144 impropers

6 atom types
11 bond types
24 angle types
21 dihedral types
2 improper types

-168.700280 168.700280 xlo xhi
-168.700280 168.700280 ylo yhi
-168.700280 168.700280 zlo zhi

Masses

   1	12.01	# ca
   2	12.01	# c3
   3	12.01	# cy
   4	12.01	# cp
   5	1.008	# hc
   6	1.008	# ha

Pair Coeffs

   1	0.086	3.3996695084235347	# ca
   2	0.1094	3.3996695084235347	# c3
   3	0.086	3.3996695084235347	# cy
   4	0.086	3.3996695084235347	# cp
   5	0.0157	2.649532787749369	# hc
   6	0.015	2.59964245953351	# ha

Bond Coeffs

   1	321.2	1.5154	# ca,cy
   2	461.1	1.3984	# ca,ca
   3	305.9	1.5319	# c3,cy
   4	351.4	1.4854	# cp,cp
   5	345.8	1.086	# ca,ha
   6	300.9	1.5375	# c3,c3
   7	450.2	1.4058	# ca,cp
   8	285.0	1.5562	# cy,cy
   9	321.0	1.5156	# c3,ca
  10	330.6	1.0969	# c3,hc
  11	333.3	1.0949	# cy,hc

Angle Coeffs

   1	67.9	96.03	# cy,c3,cy
   2	61.4	116.81	# ca,cy,cy
   3	63.15	112.07	# c3,c3,ca
   4	45.97	114.53	# ca,cy,hc
   5	66.26	120.69	# ca,ca,cp
   6	46.34	109.8	# c3,c3,hc
   7	48.18	119.88	# ca,ca,ha
   8	62.73	112.39	# c3,c3,cy
   9	46.29	110.75	# cy,c3,hc
  10	44.83	114.79	# cy,cy,hc
  11	46.8	110.47	# ca,c3,hc
  12	66.72	118.38	# ca,cp,ca
  13	62.86	111.51	# c3,c3,c3
  14	46.43	110.14	# c3,cy,hc
  15	60.66	118.7	# c3,cy,cy
  16	63.43	120.63	# c3,ca,cp
  17	63.56	112.24	# ca,c3,ca
  18	64.05	121.11	# ca,cp,cp
  19	66.62	120.02	# ca,ca,ca
  20	39.4	107.58	# hc,c3,hc
  21	47.98	119.86	# cp,ca,ha
  22	63.53	120.77	# c3,ca,ca
  23	63.51	120.86	# ca,ca,cy
  24	62.8	113.57	# c3,cy,ca

Dihedral Coeffs

   1	1	0.16	3	0	# hc,c3,c3,c3
   2	1	0.0	2	0.0	# ca,ca,cy,cy
   3	1	1.0	2	180	# X,cp,cp,X
   4	1	0.0	2	0.0	# ca,ca,cy,c3
   5	3	0.38	3	180.0	0.0	2	0.0	1.15	1	0.0	# ca,ca,cy,hc
   6	1	0.0	2	0	# X,c3,ca,X
   7	1	0.16	3	0.0	# cy,c3,cy,ca
   8	1	0.15555555555555556	3	0	# X,c3,c3,X
   9	1	0.16	3	0.0	# c3,c3,cy,ca
  10	1	0.16	3	0.0	# hc,c3,cy,ca
  11	3	0.18	3	0.0	0.25	2	180.0	0.2	1	180.0	# cy,c3,cy,cy
  12	1	0.15	3	0	# hc,c3,c3,hc
  13	3	0.18	3	0.0	0.25	2	180.0	0.2	1	180.0	# c3,c3,cy,cy
  14	1	0.16	3	0.0	# hc,c3,cy,cy
  15	1	0.16	3	0.0	# cy,c3,cy,hc
  16	1	0.16	3	0.0	# c3,c3,cy,hc
  17	1	0.15	3	0.0	# hc,c3,cy,hc
  18	1	3.625	2	180	# X,ca,ca,X
  19	1	0.15555555555555556	3	0	# X,cy,cy,X
  20	1	3.625	2	180	# X,ca,cp,X
  21	3	0.18	3	0	0.25	2	180	0.2	1	180	# c3,c3,c3,c3

Improper Coeffs

   1	1.1	-1	2	# ca,ca,ca,c3
   2	1.1	-1	2	# ca,X,X,ha

Atoms

   1	1	1	0.066869	8.33035	-53.1944	-20.6384
   2	1	1	0.053974	8.51673	-51.8296	-20.589
   3	1	1	-0.117882	9.59151	-51.1909	-19.942
   4	1	1	-0.084276	10.4579	-52.1358	-19.3646
   5	1	1	-0.157972	9.17596	-54.1396	-20.0289
   6	1	2	0.004935	11.6611	-51.8757	-16.9497
   7	1	1	-0.170374	10.2635	-53.5046	-19.399
   8	1	3	0.154019	11.461	-53.8016	-18.5057
   9	1	3	0.051574	11.6841	-52.2233	-18.4692
  10	1	3	0.007409	10.1611	-52.0512	-16.586
  11	1	2	0.007138	11.3366	-54.1899	-17.0001
  12	1	1	-0.211215	10.1045	-51.4377	-13.9328
  13	1	3	-0.023783	9.94075	-53.6243	-16.6192
  14	1	2	-0.253384	12.3174	-53.1603	-16.3652
  15	1	1	-0.027691	9.64511	-53.5059	-15.1361
  16	1	1	-0.014027	9.83577	-52.146	-15.1083
  17	1	1	-0.211541	9.69028	-54.314	-13.9934
  18	1	1	-0.003037	9.8049	-53.6095	-12.7722
  19	1	4	-0.005095	10.0144	-52.2063	-12.7451
  20	1	2	0.078204	9.79367	-54.1897	-11.3495
  21	1	3	-0.018845	10.0377	-50.7114	-7.3544
  22	1	4	0.006574	10.175	-51.7834	-11.347
  23	1	1	0.013723	10.033	-52.9241	-10.515
  24	1	1	-0.173541	10.0176	-52.8165	-9.10506
  25	1	1	-0.072264	10.26	-51.5275	-8.61562
  26	1	1	-0.030211	10.4049	-50.4243	-9.41969
  27	1	3	0.009457	10.2098	-49.4353	-8.28363
  28	1	1	-0.176921	10.3126	-50.476	-10.8143
  29	1	2	0.038799	8.61079	-50.5273	-6.78041
  30	1	2	0.012799	7.50722	-50.7068	-7.8592
  31	1	2	-0.181835	8.57837	-48.9936	-6.62033
  32	1	2	-0.004967	7.67768	-49.4563	-8.76165
  33	1	2	0.05243	8.86112	-48.6952	-8.10669
  34	1	2	-0.049676	8.46149	-54.9019	-11.03
  35	1	2	-0.040251	8.66818	-56.3805	-11.4066
  36	1	5	0.031595	8.24659	-54.8361	-9.9561
  37	1	5	0.022689	7.61379	-54.4616	-11.5687
  38	1	2	-0.037258	10.191	-56.6322	-11.396
  39	1	2	0.002978	10.8736	-55.2725	-11.1388
  40	1	5	0.016721	11.7445	-55.1208	-11.7897
  41	1	5	-0.000468	11.2272	-55.2474	-10.0998
  42	1	5	0.056924	9.38935	-49.275	-18.9501
  43	1	5	0.029852	7.92449	-55.8823	-19.7313
  44	1	5	0.043077	12.1195	-50.9206	-16.6638
  45	1	5	0.016056	12.2713	-54.3615	-18.9855
  46	1	5	0.041103	12.6198	-51.8897	-18.9303
  47	1	5	0.055216	9.46726	-51.4198	-17.1508
  48	1	5	0.041749	11.514	-55.2447	-16.7562
  49	1	6	0.155314	10.3815	-50.3886	-13.9347
  50	1	5	0.049935	9.10482	-54.0148	-17.2089
  51	1	5	0.098652	12.314	-53.1827	-15.2668
  52	1	5	0.045245	13.3496	-53.2968	-16.7152
  53	1	6	0.165622	9.6604	-55.3965	-14.0509
  54	1	5	0.050235	10.7934	-50.8138	-6.56771
  55	1	6	0.152615	9.79302	-53.655	-8.45305
  56	1	5	0.037653	11.0681	-48.7998	-8.03905
  57	1	6	0.137195	10.2943	-49.5855	-11.4343
  58	1	5	0.010736	8.41677	-51.0848	-5.85539
  59	1	5	-0.004925	6.51429	-50.6971	-7.39078
  60	1	5	0.039247	9.36477	-48.6166	-5.95173
  61	1	5	0.062128	7.60216	-48.6166	-6.28417
  62	1	5	0.003131	6.76758	-48.8431	-8.72849
  63	1	5	0.00404	8.8909	-47.6276	-8.35841
  64	1	5	0.021644	8.14381	-57.0449	-10.7079
  65	1	5	0.012129	8.26845	-56.5686	-12.4113
  66	1	5	0.009331	10.4645	-57.3532	-10.615
  67	1	5	0.018167	10.511	-57.046	-12.3608
  68	1	2	-0.164337	9.80474	-49.6903	-19.8761
  69	1	5	0.06697	10.8732	-49.4442	-19.903
  70	1	5	0.100055	9.32579	-49.183	-20.7225
  71	1	2	0.054914	8.94445	-55.6385	-20.0532
  72	1	5	0.026242	9.08421	-56.0374	-21.0655
  73	1	5	-0.001285	9.64178	-56.1599	-19.3855
  74	1	1	0.066869	-4.50187	-46.9952	-17.1182
  75	1	1	0.053974	-3.50918	-46.0445	-16.9873
  76	1	1	-0.117882	-2.65898	-45.6448	-18.0407
  77	1	1	-0.084276	-3.03413	-46.2344	-19.268
  78	1	1	-0.157972	-4.74835	-47.7226	-18.2929
  79	1	2	0.004935	-1.16719	-47.1809	-21.0608
  80	1	1	-0.170374	-4.00075	-47.2217	-19.3711
  81	1	3	0.154019	-3.57831	-47.6394	-20.7637
  82	1	3	0.051574	-2.50532	-46.4671	-20.6888
  83	1	3	0.007409	-0.839739	-47.9569	-19.7678
  84	1	2	0.007138	-2.72871	-48.9168	-21.041
  85	1	1	-0.211215	1.40995	-49.2477	-20.5688
  86	1	3	-0.023783	-1.9206	-49.1138	-19.7171
  87	1	2	-0.253384	-1.68075	-48.3026	-22.0126
  88	1	1	-0.027691	-0.738815	-50.0658	-19.7829
  89	1	1	-0.014027	0.196672	-49.061	-19.8891
  90	1	1	-0.211541	-0.514334	-51.3806	-20.2067
  91	1	1	-0.003037	0.783884	-51.6391	-20.6994
  92	1	4	-0.005095	1.70729	-50.5883	-20.9261
  93	1	2	0.078204	1.33342	-52.9798	-21.2021
  94	1	3	-0.018845	5.98005	-52.8626	-23.7949
  95	1	4	0.006574	2.8454	-51.1311	-21.69
  96	1	1	0.013723	2.65586	-52.5324	-21.8417
  97	1	1	-0.173541	3.59707	-53.3447	-22.5176
  98	1	1	-0.072264	4.66383	-52.6391	-23.0788
  99	1	1	-0.030211	4.82747	-51.284	-22.9786
 100	1	3	0.009457	6.16789	-51.2809	-23.6999
 101	1	1	-0.176921	3.95747	-50.4552	-22.2617
 102	1	2	0.038799	7.20114	-53.4077	-23.0119
 103	1	2	0.012799	7.07519	-53.1014	-21.4866
 104	1	2	-0.181835	8.25136	-52.3694	-23.4682
 105	1	2	-0.004967	7.28486	-51.5289	-21.4202
 106	1	2	0.05243	7.49415	-51.1411	-22.9115
 107	1	2	-0.049676	1.54887	-53.9964	-20.0614
 108	1	2	-0.040251	1.44965	-55.3942	-20.7024
 109	1	5	0.031595	2.50607	-53.8457	-19.5451
 110	1	5	0.022689	0.748428	-53.8904	-19.3174
 111	1	2	-0.037258	0.717615	-55.217	-22.0504
 112	1	2	0.002978	0.414545	-53.7124	-22.2053
 113	1	5	0.016721	-0.638272	-53.5417	-21.9498
 114	1	5	-0.000468	0.565136	-53.3674	-23.2365
 115	1	5	0.056924	-1.70605	-43.8248	-17.354
 116	1	5	0.029852	-6.51519	-48.8485	-17.7363
 117	1	5	0.043077	-0.367947	-46.5399	-21.4536
 118	1	5	0.016056	-4.33885	-47.5015	-21.5405
 119	1	5	0.041103	-2.7028	-45.6456	-21.3857
 120	1	5	0.055216	-0.715553	-47.3326	-18.8789
 121	1	5	0.041749	-3.27925	-49.7914	-21.4093
 122	1	6	0.155314	2.04406	-48.4169	-20.8607
 123	1	5	0.049935	-2.52368	-49.2135	-18.8099
 124	1	5	0.098652	-0.898885	-49.0158	-22.3065
 125	1	5	0.045245	-2.14213	-47.8969	-22.9234
 126	1	6	0.165622	-1.29964	-52.1294	-20.2006
 127	1	5	0.050235	5.92123	-53.2679	-24.8111
 128	1	6	0.152615	3.50019	-54.421	-22.609
 129	1	5	0.037653	6.19951	-50.7602	-24.6626
 130	1	6	0.137195	4.11057	-49.3868	-22.1535
 131	1	5	0.010736	7.46454	-54.449	-23.2361
 132	1	5	-0.004925	6.16713	-53.4629	-20.9873
 133	1	5	0.039247	8.3655	-52.3346	-24.5608
 134	1	5	0.062128	9.24488	-52.5175	-23.0247
 135	1	5	0.003131	6.49666	-50.991	-20.8801
 136	1	5	0.00404	8.02071	-50.1898	-23.0559
 137	1	5	0.021644	2.45389	-55.8026	-20.8737
 138	1	5	0.012129	0.913432	-56.0896	-20.044
 139	1	5	0.009331	1.35868	-55.5616	-22.8718
 140	1	5	0.018167	-0.208225	-55.8057	-22.0799
 141	1	2	-0.164337	-1.43756	-44.7637	-17.8536
 142	1	5	0.06697	-0.681616	-45.2688	-17.2396
 143	1	5	0.100055	-0.976904	-44.5118	-18.8168
 144	1	2	0.054914	-5.61877	-48.9638	-18.3582
 145	1	5	0.026242	-5.94635	-49.1643	-19.3858
 146	1	5	-0.001285	-5.06995	-49.8437	-18.0006
 147	1	1	0.066869	5.48978	-49.9904	-16.6016
 148	1	1	0.053974	5.69347	-48.8155	-15.8997
 149	1	1	-0.117882	6.20167	-48.7585	-14.5936
 150	1	1	-0.084276	6.59567	-50.0208	-14.1169
 151	1	1	-0.157972	5.72503	-51.2673	-16.0537
 152	1	2	0.004935	5.54251	-50.6463	-11.7151
 153	1	1	-0.170374	6.35601	-51.2111	-14.792
 154	1	3	0.154019	6.47035	-52.0717	-13.5245
 155	1	3	0.051574	6.69437	-50.6974	-12.7634
 156	1	3	0.007409	4.26941	-50.4867	-12.6006
 157	1	2	0.007138	5.28203	-52.7232	-12.7386
 158	1	1	-0.211215	1.84077	-49.8631	-11.7213
 159	1	3	-0.023783	4.06967	-51.9126	-13.2431
 160	1	2	-0.253384	5.50602	-52.1451	-11.3094
 161	1	1	-0.027691	2.78549	-51.9828	-12.4316
 162	1	1	-0.014027	2.93798	-50.7075	-11.9222
 163	1	1	-0.211541	1.53456	-52.5772	-12.6451
 164	1	1	-0.003037	0.4146	-51.8107	-12.2525
 165	1	4	-0.005095	0.566381	-50.4601	-11.8597
 166	1	2	0.078204	-1.06791	-52.1519	-12.4693
 167	1	3	-0.018845	-4.15241	-48.1426	-13.4386
 168	1	4	0.006574	-0.747332	-49.8043	-11.9271
 169	1	1	0.013723	-1.71849	-50.778	-12.2578
 170	1	1	-0.173541	-3.03935	-50.4148	-12.5932
 171	1	1	-0.072264	-3.33754	-49.0459	-12.5354
 172	1	1	-0.030211	-2.36213	-48.0869	-12.3184
 173	1	3	0.009457	-3.0263	-47.0537	-13.2208
 174	1	1	-0.176921	-1.02935	-48.4215	-12.0472
 175	1	2	0.038799	-4.09392	-48.4131	-14.9568
 176	1	2	0.012799	-4.69834	-47.1531	-15.6292
 177	1	2	-0.181835	-2.58531	-48.2582	-15.2726
 178	1	2	-0.004967	-3.55752	-46.0611	-15.4615
 179	1	2	0.05243	-2.46955	-46.8423	-14.6602
 180	1	2	-0.049676	-1.32314	-52.772	-13.868
 181	1	2	-0.040251	-1.43363	-54.3001	-13.666
 182	1	5	0.031595	-2.26247	-52.4027	-14.2963
 183	1	5	0.022689	-0.526104	-52.516	-14.5782
 184	1	2	-0.037258	-1.29111	-54.5643	-12.1538
 185	1	2	0.002978	-1.56399	-53.2152	-11.4698
 186	1	5	0.016721	-1.07052	-53.1374	-10.4923
 187	1	5	-0.000468	-2.64548	-53.1042	-11.3155
 188	1	5	0.056924	5.05493	-47.2388	-13.5543
 189	1	5	0.029852	4.11387	-52.4762	-16.8602
 190	1	5	0.043077	5.65724	-49.9214	-10.9008
 191	1	5	0.016056	7.33187	-52.7404	-13.5097
 192	1	5	0.041103	7.66765	-50.6102	-12.2721
 193	1	5	0.055216	4.25481	-49.6057	-13.2415
 194	1	5	0.041749	5.19502	-53.8144	-12.8118
 195	1	6	0.155314	1.96003	-48.7911	-11.6038
 196	1	5	0.049935	3.89899	-51.9943	-14.3181
 197	1	5	0.098652	4.68931	-52.3822	-10.6146
 198	1	5	0.045245	6.45424	-52.4755	-10.8646
 199	1	6	0.165622	1.43298	-53.5098	-13.1903
 200	1	5	0.050235	-5.15693	-47.8898	-13.0813
 201	1	6	0.152615	-3.73943	-51.1285	-13.0156
 202	1	5	0.037653	-3.33598	-46.1209	-12.7368
 203	1	6	0.137195	-0.237462	-47.6803	-12.0761
 204	1	5	0.010736	-4.54017	-49.3607	-15.2833
 205	1	5	-0.004925	-5.68317	-46.8363	-15.2615
 206	1	5	0.039247	-2.34894	-48.2978	-16.3435
 207	1	5	0.062128	-1.95018	-49.0015	-14.7759
 208	1	5	0.003131	-3.90398	-45.125	-15.0046
 209	1	5	0.00404	-1.46638	-46.4013	-14.7151
 210	1	5	0.021644	-2.41249	-54.6503	-14.0185
 211	1	5	0.012129	-0.660338	-54.8359	-14.2313
 212	1	5	0.009331	-1.9768	-55.3469	-11.8053
 213	1	5	0.018167	-0.265938	-54.887	-11.9309
 214	1	2	-0.164337	6.10204	-47.5231	-13.7159
 215	1	5	0.06697	6.56106	-47.693	-12.7341
 216	1	5	0.100055	6.61398	-46.6725	-14.1823
 217	1	2	0.054914	5.19443	-52.5444	-16.6825
 218	1	5	0.026242	5.68253	-52.7337	-17.6469
 219	1	5	-0.001285	5.37627	-53.4135	-16.0381
 220	1	1	0.066869	7.49842	-37.2803	-26.3738
 221	1	1	0.053974	7.66611	-36.8355	-25.0807
 222	1	1	-0.117882	8.52811	-37.4301	-24.1419
 223	1	1	-0.084276	9.28286	-38.4642	-24.7282
 224	1	1	-0.157972	8.16629	-38.3868	-26.9286
 225	1	2	0.004935	9.69482	-40.8305	-23.4585
 226	1	1	-0.170374	9.11316	-38.9128	-26.0278
 227	1	3	0.154019	9.98403	-40.1474	-25.8263
 228	1	3	0.051574	10.1754	-39.6317	-24.3318
 229	1	3	0.007409	8.15583	-40.816	-23.6741
 230	1	2	0.007138	9.42185	-41.5924	-25.6499
 231	1	1	-0.211215	7.41976	-42.9203	-22.1414
 232	1	3	-0.023783	7.9703	-41.3386	-25.1584
 233	1	2	-0.253384	10.1623	-42.0189	-24.3483
 234	1	1	-0.027691	7.24942	-42.5245	-24.5406
 235	1	1	-0.014027	7.40854	-42.0666	-23.2507
 236	1	1	-0.211541	7.08234	-43.8815	-24.8523
 237	1	1	-0.003037	6.938	-44.745	-23.7427
 238	1	4	-0.005095	7.10356	-44.2729	-22.4171
 239	1	2	0.078204	6.76569	-46.2731	-23.7655
 240	1	3	-0.018845	6.34861	-48.6848	-19.0828
 241	1	4	0.006574	7.07268	-45.4243	-21.5046
 242	1	1	0.013723	6.86567	-46.5977	-22.2697
 243	1	1	-0.173541	6.67327	-47.8542	-21.6553
 244	1	1	-0.072264	6.85233	-47.8746	-20.2668
 245	1	1	-0.030211	7.05263	-46.7332	-19.5246
 246	1	3	0.009457	6.56654	-47.3627	-18.2357
 247	1	1	-0.176921	7.09704	-45.4536	-20.0888
 248	1	2	0.038799	4.82471	-48.9347	-18.9631
 249	1	2	0.012799	4.44615	-49.3693	-17.5175
 250	1	2	-0.181835	4.25343	-47.4978	-18.9419
 251	1	2	-0.004967	4.66491	-48.0349	-16.6923
 252	1	2	0.05243	5.13283	-47.0154	-17.7649
 253	1	2	-0.049676	5.41568	-46.6893	-24.3959
 254	1	2	-0.040251	5.73912	-47.0543	-25.8527
 255	1	5	0.031595	5.01666	-47.5775	-23.8902
 256	1	5	0.022689	4.6586	-45.8972	-24.3285
 257	1	2	-0.037258	7.15973	-47.6403	-25.8073
 258	1	2	0.002978	7.86343	-46.9793	-24.6042
 259	1	5	0.016721	8.61753	-46.2604	-24.9495
 260	1	5	-0.000468	8.38981	-47.7422	-24.016
 261	1	5	0.056924	8.69741	-35.9655	-22.5553
 262	1	5	0.029852	8.54922	-39.7835	-28.5462
 263	1	5	0.043077	10.0376	-40.8388	-22.4163
 264	1	5	0.016056	10.9081	-40.1618	-26.4148
 265	1	5	0.041103	11.2072	-39.3609	-24.0835
 266	1	5	0.055216	7.65483	-39.8863	-23.3887
 267	1	5	0.041749	9.53038	-42.2622	-26.512
 268	1	6	0.155314	7.72411	-42.5864	-21.1548
 269	1	5	0.049935	7.34861	-40.7473	-25.8374
 270	1	5	0.098652	9.83665	-42.9964	-23.9671
 271	1	5	0.045245	11.253	-42.0398	-24.4766
 272	1	6	0.165622	7.1308	-44.248	-25.8725
 273	1	5	0.050235	6.95477	-49.5547	-18.8084
 274	1	6	0.152615	6.36143	-48.7283	-22.2118
 275	1	5	0.037653	7.30437	-47.4035	-17.427
 276	1	6	0.137195	7.09305	-44.5506	-19.4869
 277	1	5	0.010736	4.40217	-49.5838	-19.7349
 278	1	5	-0.004925	3.42889	-49.7672	-17.4044
 279	1	5	0.039247	3.17923	-47.4693	-18.7096
 280	1	5	0.062128	4.41946	-46.9417	-19.8734
 281	1	5	0.003131	3.76926	-47.7403	-16.1296
 282	1	5	0.00404	4.97891	-45.9673	-17.4796
 283	1	5	0.021644	5.01321	-47.7623	-26.2726
 284	1	5	0.012129	5.73205	-46.1482	-26.4717
 285	1	5	0.009331	7.10346	-48.7239	-25.645
 286	1	5	0.018167	7.70165	-47.4658	-26.7455
 287	1	2	-0.164337	8.58537	-37.0504	-22.6744
 288	1	5	0.06697	7.66758	-37.3545	-22.1562
 289	1	5	0.100055	9.43274	-37.5326	-22.1716
 290	1	2	0.054914	7.85771	-38.9696	-28.2949
 291	1	5	0.026242	6.8376	-39.3716	-28.3268
 292	1	5	-0.001285	7.94347	-38.2024	-29.0744
 293	1	1	0.066869	8.46665	-21.0875	-26.4065
 294	1	1	0.053974	8.5876	-21.4813	-25.0912
 295	1	1	-0.117882	9.48268	-22.4671	-24.6369
 296	1	1	-0.084276	10.3321	-22.903	-25.6721
 297	1	1	-0.157972	9.22747	-21.6141	-27.4655
 298	1	2	0.004935	10.9271	-25.5408	-26.0201
 299	1	1	-0.170374	10.2132	-22.5027	-26.9932
 300	1	3	0.154019	11.1681	-23.5707	-27.5094
 301	1	3	0.051574	11.31	-24.028	-25.9909
 302	1	3	0.007409	9.39184	-25.5017	-26.2472
 303	1	2	0.007138	10.7052	-24.8651	-28.2454
 304	1	1	-0.211215	8.79218	-28.151	-26.3265
 305	1	3	-0.023783	9.24012	-25.0354	-27.7546
 306	1	2	-0.253384	11.4775	-25.9367	-27.4214
 307	1	1	-0.027691	8.60272	-26.3899	-28.0007
 308	1	1	-0.014027	8.73911	-26.7995	-26.6933
 309	1	1	-0.211541	8.49643	-27.2817	-29.0752
 310	1	1	-0.003037	8.39591	-28.6449	-28.719
 311	1	4	-0.005095	8.53994	-29.0719	-27.3753
 312	1	2	0.078204	8.28879	-29.842	-29.6722
 313	1	3	-0.018845	8.07201	-34.65	-27.4511
 314	1	4	0.006574	8.5501	-30.5443	-27.3541
 315	1	1	0.013723	8.39306	-31.0143	-28.6847
 316	1	1	-0.173541	8.26229	-32.3928	-28.9717
 317	1	1	-0.072264	8.44236	-33.2409	-27.8737
 318	1	1	-0.030211	8.5997	-32.7897	-26.586
 319	1	3	0.009457	8.2559	-34.131	-25.9611
 320	1	1	-0.176921	8.5901	-31.4317	-26.2472
 321	1	2	0.038799	6.57671	-35.058	-27.4995
 322	1	2	0.012799	6.338	-36.3457	-26.6581
 323	1	2	-0.181835	5.91575	-34.0286	-26.5536
 324	1	2	-0.004967	6.52904	-35.8332	-25.1628
 325	1	2	0.05243	6.84342	-34.319	-25.3509
 326	1	2	-0.049676	6.97453	-29.8609	-30.4826
 327	1	2	-0.040251	7.28434	-30.5882	-31.808
 328	1	5	0.031595	6.15584	-30.3415	-29.9312
 329	1	5	0.022689	6.66351	-28.8326	-30.7083
 330	1	2	-0.037258	8.82097	-30.6814	-31.9246
 331	1	2	0.002978	9.40271	-29.8867	-30.7404
 332	1	5	0.016721	9.63839	-28.871	-31.0817
 333	1	5	-0.000468	10.33	-30.3345	-30.3597
 334	1	5	0.056924	8.60223	-23.6874	-23.0799
 335	1	5	0.029852	9.88258	-21.4276	-29.5244
 336	1	5	0.043077	11.2753	-26.145	-25.173
 337	1	5	0.016056	12.0963	-23.1877	-27.948
 338	1	5	0.041103	12.316	-23.8932	-25.5793
 339	1	5	0.055216	8.82528	-24.9618	-25.4829
 340	1	5	0.041749	10.8576	-24.8842	-29.3317
 341	1	6	0.155314	9.07315	-28.4717	-25.3287
 342	1	5	0.049935	8.57688	-24.1922	-27.967
 343	1	5	0.098652	11.2242	-26.9663	-27.7087
 344	1	5	0.045245	12.5667	-25.8121	-27.4918
 345	1	6	0.165622	8.54756	-26.95	-30.1073
 346	1	5	0.050235	8.75575	-35.4347	-27.7929
 347	1	6	0.152615	8.0115	-32.7704	-29.957
 348	1	5	0.037653	9.05585	-34.59	-25.3701
 349	1	6	0.137195	8.57538	-31.0857	-25.2188
 350	1	5	0.010736	6.14011	-35.0977	-28.5053
 351	1	5	-0.004925	5.36781	-36.8355	-26.8139
 352	1	5	0.039247	4.86142	-34.2582	-26.3434
 353	1	5	0.062128	5.97717	-32.9945	-26.9168
 354	1	5	0.003131	5.66093	-36.0566	-24.5289
 355	1	5	0.00404	6.63911	-33.7095	-24.4618
 356	1	5	0.021644	6.84462	-31.5938	-31.8067
 357	1	5	0.012129	6.85832	-30.0378	-32.6567
 358	1	5	0.009331	9.13476	-31.731	-31.8592
 359	1	5	0.018167	9.17819	-30.284	-32.8833
 360	1	2	-0.164337	9.47645	-23.0428	-23.2332
 361	1	5	0.06697	10.3755	-23.6427	-23.0456
 362	1	5	0.100055	9.44303	-22.2437	-22.4822
 363	1	2	0.054914	8.96541	-21.3233	-28.9315
 364	1	5	0.026242	8.21845	-22.0151	-29.3397
 365	1	5	-0.001285	8.59082	-20.3013	-29.0696
 366	1	1	0.066869	9.12625	-7.8277	-16.7686
 367	1	1	0.053974	9.21448	-8.94396	-15.9655
 368	1	1	-0.117882	10.0222	-10.0635	-16.2402
 369	1	1	-0.084276	10.7609	-9.87133	-17.4228
 370	1	1	-0.157972	9.80466	-7.66509	-17.99
 371	1	2	0.004935	11.2333	-11.8029	-19.2757
 372	1	1	-0.170374	10.6483	-8.7628	-18.243
 373	1	3	0.154019	11.5458	-9.34164	-19.3267
 374	1	3	0.051574	11.6877	-10.6136	-18.3765
 375	1	3	0.007409	9.69833	-11.5883	-19.3657
 376	1	2	0.007138	11.0059	-9.93792	-20.6636
 377	1	1	-0.211215	9.03493	-13.6681	-20.9564
 378	1	3	-0.023783	9.54146	-10.3229	-20.3056
 379	1	2	-0.253384	11.7395	-11.3106	-20.6631
 380	1	1	-0.027691	8.83478	-11.2599	-21.2708
 381	1	1	-0.014027	8.97716	-12.3617	-20.454
 382	1	1	-0.211541	8.71373	-11.3567	-22.6639
 383	1	1	-0.003037	8.60418	-12.6688	-23.1777
 384	1	4	-0.005095	8.77084	-13.8009	-22.3418
 385	1	2	0.078204	8.50535	-13.0865	-24.6542
 386	1	3	-0.018845	8.73148	-18.2795	-25.7168
 387	1	4	0.006574	8.84511	-15.0014	-23.19
 388	1	1	0.013723	8.70471	-14.6033	-24.5447
 389	1	1	-0.173541	8.68459	-15.546	-25.5989
 390	1	1	-0.072264	8.93913	-16.8652	-25.2061
 391	1	1	-0.030211	9.07027	-17.2533	-23.8958
 392	1	3	0.009457	8.87968	-18.7289	-24.1995
 393	1	1	-0.176921	8.97047	-16.3655	-22.819
 394	1	2	0.038799	7.29081	-18.7243	-26.0746
 395	1	2	0.012799	7.20741	-20.2767	-26.1606
 396	1	2	-0.181835	6.53422	-18.5166	-24.742
 397	1	2	-0.004967	7.35016	-20.7269	-24.6405
 398	1	2	0.05243	7.50207	-19.3703	-23.89
 399	1	2	-0.049676	7.14725	-12.6918	-25.2713
 400	1	2	-0.040251	7.35633	-11.2849	-25.8562
 401	1	5	0.031595	6.89139	-13.3809	-26.0863
 402	1	5	0.022689	6.33024	-12.718	-24.5385
 403	1	2	-0.037258	8.85177	-11.1937	-26.2232
 404	1	2	0.002978	9.56028	-12.3856	-25.5418
 405	1	5	0.016721	10.4334	-12.0611	-24.9608
 406	1	5	-0.000468	9.91992	-13.0739	-26.3176
 407	1	5	0.056924	9.18537	-11.4217	-14.7692
 408	1	5	0.029852	10.4796	-5.77195	-18.7937
 409	1	5	0.043077	11.5648	-12.801	-18.963
 410	1	5	0.016056	12.4816	-8.79699	-19.4945
 411	1	5	0.041103	12.7025	-10.7793	-17.9991
 412	1	5	0.055216	9.17355	-11.5849	-18.4051
 413	1	5	0.041749	11.1381	-9.31652	-21.558
 414	1	6	0.155314	9.35062	-14.5084	-20.3468
 415	1	5	0.049935	8.91895	-9.49463	-19.9517
 416	1	5	0.098652	11.4321	-11.9638	-21.491
 417	1	5	0.045245	12.832	-11.1995	-20.6928
 418	1	6	0.165622	8.77902	-10.4842	-23.3052
 419	1	5	0.050235	9.49155	-18.6394	-26.4189
 420	1	6	0.152615	8.46944	-15.2747	-26.6278
 421	1	5	0.037653	9.73141	-19.3716	-23.9516
 422	1	6	0.137195	8.96371	-16.6959	-21.7854
 423	1	5	0.010736	6.84754	-18.2073	-26.9348
 424	1	5	-0.004925	6.29734	-20.6714	-26.6312
 425	1	5	0.039247	5.51331	-18.9237	-24.7639
 426	1	5	0.062128	6.47939	-17.4667	-24.4261
 427	1	5	0.003131	6.51309	-21.355	-24.3088
 428	1	5	0.00404	7.24487	-19.4215	-22.8246
 429	1	5	0.021644	6.70953	-11.1059	-26.7246
 430	1	5	0.012129	7.116	-10.5307	-25.0961
 431	1	5	0.009331	8.9823	-11.2533	-27.3114
 432	1	5	0.018167	9.27372	-10.2383	-25.886
 433	1	2	-0.164337	10.0898	-11.3115	-15.3804
 434	1	5	0.06697	10.1886	-12.2119	-15.9992
 435	1	5	0.100055	10.952	-11.2706	-14.7036
 436	1	2	0.054914	9.64356	-6.47186	-18.9129
 437	1	5	0.026242	9.61392	-6.78835	-19.9629
 438	1	5	-0.001285	8.71481	-5.92795	-18.6998
 439	1	1	0.066869	9.65557	-3.34733	-1.56344
 440	1	1	0.053974	9.55897	-4.72274	-1.63526
 441	1	1	-0.117882	10.5166	-5.55109	-2.24729
 442	1	1	-0.084276	11.6548	-4.82743	-2.65347
 443	1	1	-0.157972	10.7039	-2.6089	-2.14099
 444	1	2	0.004935	12.6688	-5.30951	-5.14028
 445	1	1	-0.170374	11.7346	-3.44289	-2.6176
 446	1	3	0.154019	12.9032	-3.38309	-3.59458
 447	1	3	0.051574	12.822	-4.97048	-3.62503
 448	1	3	0.007409	11.2133	-4.86683	-5.44244
 449	1	2	0.007138	12.7695	-2.97552	-5.09659
 450	1	1	-0.211215	10.8812	-5.46828	-8.08426
 451	1	3	-0.023783	11.2782	-3.28081	-5.41231
 452	1	2	-0.253384	13.5173	-4.16487	-5.76723
 453	1	1	-0.027691	10.8888	-3.34853	-6.87886
 454	1	1	-0.014027	10.8394	-4.71965	-6.9034
 455	1	1	-0.211541	10.9631	-2.5589	-8.03269
 456	1	1	-0.003037	10.8579	-3.27795	-9.24641
 457	1	4	-0.005095	10.8294	-4.69638	-9.27254
 458	1	2	0.078204	10.8676	-2.70083	-10.6686
 459	1	3	-0.018845	10.1127	-6.14153	-14.608
 460	1	4	0.006574	10.8343	-5.13657	-10.6759
 461	1	1	0.013723	10.8302	-3.98698	-11.5056
 462	1	1	-0.173541	10.6682	-4.08727	-12.9062
 463	1	1	-0.072264	10.6759	-5.39421	-13.4104
 464	1	1	-0.030211	10.7133	-6.51217	-12.6085
 465	1	3	0.009457	10.1685	-7.43108	-13.6853
 466	1	1	-0.176921	10.7079	-6.44316	-11.2105
 467	1	2	0.038799	8.59671	-5.99965	-14.9165
 468	1	2	0.012799	8.11876	-7.13164	-15.8751
 469	1	2	-0.181835	7.93889	-6.50696	-13.6124
 470	1	2	-0.004967	8.20171	-8.43052	-14.9568
 471	1	2	0.05243	8.68465	-7.86189	-13.5911
 472	1	2	-0.049676	9.65349	-1.77014	-10.9307
 473	1	2	-0.040251	10.2207	-0.480542	-11.5503
 474	1	5	0.031595	8.90385	-2.23266	-11.5856
 475	1	5	0.022689	9.15348	-1.52394	-9.98495
 476	1	2	-0.037258	11.6625	-0.393453	-11.0298
 477	1	2	0.002978	12.1346	-1.85453	-10.9543
 478	1	5	0.016721	12.9134	-1.99111	-10.1928
 479	1	5	-0.000468	12.5665	-2.13757	-11.9232
 480	1	5	0.056924	9.38896	-7.15077	-3.17912
 481	1	5	0.029852	10.356	-0.588901	-1.43802
 482	1	5	0.043077	12.935	-6.33147	-5.438
 483	1	5	0.016056	13.8367	-2.99482	-3.17235
 484	1	5	0.041103	13.7059	-5.46582	-3.20898
 485	1	5	0.055216	10.4417	-5.3624	-4.84972
 486	1	5	0.041749	13.1231	-1.97042	-5.35796
 487	1	6	0.155314	10.9791	-6.54892	-8.09019
 488	1	5	0.049935	10.5534	-2.74974	-4.79014
 489	1	5	0.098652	13.4656	-4.14203	-6.86446
 490	1	5	0.045245	14.5729	-4.21638	-5.46732
 491	1	6	0.165622	11.1139	-1.4847	-7.99631
 492	1	5	0.050235	10.7473	-6.14242	-15.5008
 493	1	6	0.152615	10.5021	-3.2206	-13.5385
 494	1	5	0.037653	10.8434	-8.2362	-13.9952
 495	1	6	0.137195	10.5575	-7.31675	-10.5847
 496	1	5	0.010736	8.27983	-4.99528	-15.224
 497	1	5	-0.004925	7.12199	-6.988	-16.3125
 498	1	5	0.039247	6.84918	-6.62192	-13.7009
 499	1	5	0.062128	8.14792	-5.8748	-12.7397
 500	1	5	0.003131	7.25275	-8.98165	-14.9249
 501	1	5	0.00404	8.44214	-8.50107	-12.7329
 502	1	5	0.021644	10.231	-0.571537	-12.6444
 503	1	5	0.012129	9.62883	0.403868	-11.2824
 504	1	5	0.009331	12.3029	0.216672	-11.6793
 505	1	5	0.018167	11.6659	0.0486632	-10.025
 506	1	2	-0.164337	10.2835	-7.01875	-2.5579
 507	1	5	0.06697	11.1347	-7.45346	-3.09634
 508	1	5	0.100055	10.1412	-7.59421	-1.63487
 509	1	2	0.054914	10.6533	-1.10746	-2.35791
 510	1	5	0.026242	11.6318	-0.716412	-2.66309
 511	1	5	-0.001285	9.92814	-0.849928	-3.13976
 512	1	1	0.066869	-2.11839	-6.94043	6.10874
 513	1	1	0.053974	-1.65575	-7.87636	5.20355
 514	1	1	-0.117882	-0.545743	-8.71399	5.4303
 515	1	1	-0.084276	0.134729	-8.36251	6.6064
 516	1	1	-0.157972	-1.49624	-6.67098	7.3449
 517	1	2	0.004935	2.69317	-8.77667	7.42794
 518	1	1	-0.170374	-0.281793	-7.3742	7.48113
 519	1	3	0.154019	0.711979	-7.78322	8.56054
 520	1	3	0.051574	1.14994	-8.95627	7.57853
 521	1	3	0.007409	2.76972	-7.54655	6.49361
 522	1	2	0.007138	2.04785	-7.00886	8.80378
 523	1	1	-0.211215	5.10123	-6.71518	5.42786
 524	1	3	-0.023783	2.31281	-6.34674	7.41806
 525	1	2	-0.253384	3.05754	-8.19011	8.82143
 526	1	1	-0.027691	3.69255	-5.76633	7.17765
 527	1	1	-0.014027	4.09979	-6.82618	6.39676
 528	1	1	-0.211541	4.21132	-4.47327	7.02613
 529	1	1	-0.003037	5.30348	-4.35304	6.13493
 530	1	4	-0.005095	5.75471	-5.46026	5.37424
 531	1	2	0.078204	6.00375	-3.06025	5.67735
 532	1	3	-0.018845	8.81147	-3.39776	1.24213
 533	1	4	0.006574	6.76963	-4.99418	4.41979
 534	1	1	0.013723	6.91813	-3.59404	4.5645
 535	1	1	-0.173541	7.68106	-2.84011	3.64325
 536	1	1	-0.072264	8.3932	-3.58742	2.6934
 537	1	1	-0.030211	8.2714	-4.95675	2.57437
 538	1	3	0.009457	8.67912	-4.97027	1.11511
 539	1	1	-0.176921	7.3939	-5.7047	3.36685
 540	1	2	0.038799	7.74802	-2.87858	0.235618
 541	1	2	0.012799	8.18678	-3.15732	-1.23418
 542	1	2	-0.181835	6.63163	-3.94284	0.34629
 543	1	2	-0.004967	8.06947	-4.73758	-1.34311
 544	1	2	0.05243	7.55707	-5.14985	0.0642589
 545	1	2	-0.049676	4.99916	-1.98726	5.1973
 546	1	2	-0.040251	4.69254	-1.09568	6.41973
 547	1	5	0.031595	5.45623	-1.36375	4.41921
 548	1	5	0.022689	4.09332	-2.43159	4.76745
 549	1	2	-0.037258	5.76111	-1.41807	7.48718
 550	1	2	0.002978	6.77176	-2.37217	6.82266
 551	1	5	0.016721	7.1946	-3.09163	7.53575
 552	1	5	-0.000468	7.59898	-1.78075	6.40846
 553	1	5	0.056924	-0.886397	-10.0367	3.74032
 554	1	5	0.029852	-1.96279	-4.77736	8.29275
 555	1	5	0.043077	3.25704	-9.66201	7.10818
 556	1	5	0.016056	0.269145	-8.10177	9.51079
 557	1	5	0.041103	0.914269	-9.96673	7.92924
 558	1	5	0.055216	2.28661	-7.6935	5.52119
 559	1	5	0.041749	2.07064	-6.34095	9.6733
 560	1	6	0.155314	5.29417	-7.49845	4.70213
 561	1	5	0.049935	1.50854	-5.7006	7.07052
 562	1	5	0.098652	4.10303	-7.85939	8.88808
 563	1	5	0.045245	2.85741	-8.89793	9.63736
 564	1	6	0.165622	3.73917	-3.61418	7.49092
 565	1	5	0.050235	9.80865	-2.97049	1.08938
 566	1	6	0.152615	7.66194	-1.75507	3.62298
 567	1	5	0.037653	9.59221	-5.5318	0.889109
 568	1	6	0.137195	7.14784	-6.73669	3.13946
 569	1	5	0.010736	7.41156	-1.84891	0.409803
 570	1	5	-0.004925	7.59824	-2.63967	-2.00311
 571	1	5	0.039247	5.8475	-3.82004	-0.414394
 572	1	5	0.062128	6.14953	-3.97565	1.33161
 573	1	5	0.003131	7.4335	-5.05227	-2.18093
 574	1	5	0.00404	7.05379	-6.12454	0.0859416
 575	1	5	0.021644	4.72596	-0.0351607	6.13896
 576	1	5	0.012129	3.68939	-1.3052	6.81245
 577	1	5	0.009331	6.25353	-0.509204	7.8557
 578	1	5	0.018167	5.28962	-1.9155	8.34446
 579	1	2	-0.164337	-0.211311	-9.93929	4.59972
 580	1	5	0.06697	0.814727	-9.88127	4.21607
 581	1	5	0.100055	-0.296644	-10.8535	5.19978
 582	1	2	0.054914	-2.13515	-5.84722	8.44933
 583	1	5	0.026242	-3.21998	-6.00412	8.48443
 584	1	5	-0.001285	-1.72878	-6.11793	9.43112
 585	1	1	0.066869	0.683824	-18.5096	13.4895
 586	1	1	0.053974	1.33659	-18.3997	12.2771
 587	1	1	-0.117882	1.04261	-17.4235	11.3151
 588	1	1	-0.084276	-0.0858982	-16.6556	11.6384
 589	1	1	-0.157972	-0.347572	-17.6303	13.8827
 590	1	2	0.004935	-1.42008	-14.6236	10.5003
 591	1	1	-0.170374	-0.752807	-16.741	12.8629
 592	1	3	0.154019	-1.0902	-15.2469	12.8762
 593	1	3	0.051574	-0.353697	-15.1758	11.4827
 594	1	3	0.007409	-2.43862	-15.8031	10.3914
 595	1	2	0.007138	-2.49476	-14.6413	12.5665
 596	1	1	-0.211215	-4.0604	-14.593	8.69948
 597	1	3	-0.023783	-3.19061	-15.7778	11.7741
 598	1	2	-0.253384	-2.11651	-13.6154	11.4563
 599	1	1	-0.027691	-4.43222	-15.3734	10.9851
 600	1	1	-0.014027	-3.77489	-15.4528	9.76485
 601	1	1	-0.211541	-5.377	-14.3625	11.2407
 602	1	1	-0.003037	-5.69999	-13.4976	10.169
 603	1	4	-0.005095	-5.08437	-13.6431	8.90543
 604	1	2	0.078204	-6.39012	-12.1231	10.2717
 605	1	3	-0.018845	-4.31725	-8.67377	7.0212
 606	1	4	0.006574	-5.29612	-12.4162	8.12703
 607	1	1	0.013723	-5.96314	-11.4752	8.94242
 608	1	1	-0.173541	-5.92573	-10.097	8.62546
 609	1	1	-0.072264	-5.32533	-9.7527	7.4031
 610	1	1	-0.030211	-4.75336	-10.6938	6.56236
 611	1	3	0.009457	-3.70709	-9.73989	6.0353
 612	1	1	-0.176921	-4.64344	-12.0366	6.93247
 613	1	2	0.038799	-4.7459	-7.53174	6.07037
 614	1	2	0.012799	-3.49211	-6.82728	5.45449
 615	1	2	-0.181835	-5.23694	-8.30988	4.82805
 616	1	2	-0.004967	-2.95579	-7.91281	4.42683
 617	1	2	0.05243	-3.92827	-9.10693	4.63588
 618	1	2	-0.049676	-7.91899	-12.2613	10.4064
 619	1	2	-0.040251	-8.18575	-12.3751	11.917
 620	1	5	0.031595	-8.40636	-11.3557	10.0217
 621	1	5	0.022689	-8.31346	-13.1217	9.85021
 622	1	2	-0.037258	-7.04605	-11.6009	12.6106
 623	1	2	0.002978	-5.96118	-11.3425	11.5414
 624	1	5	0.016721	-4.96425	-11.6392	11.8917