pySIMM System Object

2534 atoms
2950 bonds
6120 angles
11302 dihedrals
204 impropers

6 atom types
11 bond types
24 angle types
21 dihedral types
2 improper types

-190.273294 190.273294 xlo xhi
-190.273294 190.273294 ylo yhi
-190.273294 190.273294 zlo zhi

Masses

   1	12.01	# ca
   2	12.01	# c3
   3	12.01	# cy
   4	12.01	# cp
   5	1.008	# hc
   6	1.008	# ha

Pair Coeffs

   1	0.086	3.3996695084235347	# ca
   2	0.1094	3.3996695084235347	# c3
   3	0.086	3.3996695084235347	# cy
   4	0.086	3.3996695084235347	# cp
   5	0.0157	2.649532787749369	# hc
   6	0.015	2.59964245953351	# ha

Bond Coeffs

   1	321.2	1.5154	# ca,cy
   2	461.1	1.3984	# ca,ca
   3	305.9	1.5319	# c3,cy
   4	351.4	1.4854	# cp,cp
   5	345.8	1.086	# ca,ha
   6	300.9	1.5375	# c3,c3
   7	450.2	1.4058	# ca,cp
   8	285.0	1.5562	# cy,cy
   9	321.0	1.5156	# c3,ca
  10	330.6	1.0969	# c3,hc
  11	333.3	1.0949	# cy,hc

Angle Coeffs

   1	67.9	96.03	# cy,c3,cy
   2	61.4	116.81	# ca,cy,cy
   3	63.15	112.07	# c3,c3,ca
   4	45.97	114.53	# ca,cy,hc
   5	66.26	120.69	# ca,ca,cp
   6	46.34	109.8	# c3,c3,hc
   7	48.18	119.88	# ca,ca,ha
   8	62.73	112.39	# c3,c3,cy
   9	46.29	110.75	# cy,c3,hc
  10	44.83	114.79	# cy,cy,hc
  11	46.8	110.47	# ca,c3,hc
  12	66.72	118.38	# ca,cp,ca
  13	62.86	111.51	# c3,c3,c3
  14	46.43	110.14	# c3,cy,hc
  15	60.66	118.7	# c3,cy,cy
  16	63.43	120.63	# c3,ca,cp
  17	63.56	112.24	# ca,c3,ca
  18	64.05	121.11	# ca,cp,cp
  19	66.62	120.02	# ca,ca,ca
  20	39.4	107.58	# hc,c3,hc
  21	47.98	119.86	# cp,ca,ha
  22	63.53	120.77	# c3,ca,ca
  23	63.51	120.86	# ca,ca,cy
  24	62.8	113.57	# c3,cy,ca

Dihedral Coeffs

   1	1	0.16	3	0	# hc,c3,c3,c3
   2	1	0.0	2	0.0	# ca,ca,cy,cy
   3	1	1.0	2	180	# X,cp,cp,X
   4	1	0.0	2	0.0	# ca,ca,cy,c3
   5	3	0.38	3	180.0	0.0	2	0.0	1.15	1	0.0	# ca,ca,cy,hc
   6	1	0.0	2	0	# X,c3,ca,X
   7	1	0.16	3	0.0	# cy,c3,cy,ca
   8	1	0.15555555555555556	3	0	# X,c3,c3,X
   9	1	0.16	3	0.0	# c3,c3,cy,ca
  10	1	0.16	3	0.0	# hc,c3,cy,ca
  11	3	0.18	3	0.0	0.25	2	180.0	0.2	1	180.0	# cy,c3,cy,cy
  12	1	0.15	3	0	# hc,c3,c3,hc
  13	3	0.18	3	0.0	0.25	2	180.0	0.2	1	180.0	# c3,c3,cy,cy
  14	1	0.16	3	0.0	# hc,c3,cy,cy
  15	1	0.16	3	0.0	# cy,c3,cy,hc
  16	1	0.16	3	0.0	# c3,c3,cy,hc
  17	1	0.15	3	0.0	# hc,c3,cy,hc
  18	1	3.625	2	180	# X,ca,ca,X
  19	1	0.15555555555555556	3	0	# X,cy,cy,X
  20	1	3.625	2	180	# X,ca,cp,X
  21	3	0.18	3	0	0.25	2	180	0.2	1	180	# c3,c3,c3,c3

Improper Coeffs

   1	1.1	-1	2	# ca,ca,ca,c3
   2	1.1	-1	2	# ca,X,X,ha

Atoms

   1	1	1	0.066869	-38.3386	17.5048	-13.5905
   2	1	1	0.053974	-37.5169	18.37	-12.8999
   3	1	1	-0.117882	-37.0869	19.6206	-13.3875
   4	1	1	-0.084276	-37.6126	19.8656	-14.6684
   5	1	1	-0.157972	-38.8443	17.7369	-14.8824
   6	1	2	0.004935	-36.2571	20.9918	-16.7315
   7	1	1	-0.170374	-38.4327	18.9945	-15.3612
   8	1	3	0.154019	-38.4637	19.857	-16.6153
   9	1	3	0.051574	-37.5149	20.8591	-15.8167
  10	1	3	0.007409	-35.5657	19.6097	-16.5643
  11	1	2	0.007138	-37.6508	19.5253	-17.9027
  12	1	1	-0.211215	-33.3232	19.7517	-18.1329
  13	1	3	-0.023783	-36.5192	18.6133	-17.3562
  14	1	2	-0.253384	-36.9256	20.8834	-18.1333
  15	1	1	-0.027691	-35.3404	18.3872	-18.2788
  16	1	1	-0.014027	-34.5144	19.2459	-17.5979
  17	1	1	-0.211541	-35.0951	17.9515	-19.5846
  18	1	1	-0.003037	-33.8471	18.3516	-20.112
  19	1	4	-0.005095	-32.973	19.2137	-19.3997
  20	1	2	0.078204	-33.2728	17.987	-21.4851
  21	1	3	-0.018845	-28.2979	19.4295	-22.4591
  22	1	4	0.006574	-31.783	19.4526	-20.232
  23	1	1	0.013723	-31.9489	18.7596	-21.459
  24	1	1	-0.173541	-30.9278	18.7121	-22.4343
  25	1	1	-0.072264	-29.7798	19.4501	-22.1232
  26	1	1	-0.030211	-29.5959	20.075	-20.9119
  27	1	3	0.009457	-28.0843	20.1267	-21.0505
  28	1	1	-0.176921	-30.5566	20.0781	-19.8932
  29	1	2	0.038799	-27.4784	18.1214	-22.3335
  30	1	2	0.012799	-28.1264	17.107	-21.3551
  31	1	2	-0.181835	-26.3043	18.6158	-21.4631
  32	1	2	-0.004967	-27.9434	17.7823	-19.9729
  33	1	2	0.05243	-27.1927	19.1034	-20.3013
  34	1	2	-0.049676	-33.0684	16.4555	-21.6327
  35	1	2	-0.040251	-34.078	15.99	-22.6952
  36	1	5	0.031595	-32.0522	16.2353	-21.9833
  37	1	5	0.022689	-33.2086	15.9206	-20.6842
  38	1	2	-0.037258	-34.2819	17.2121	-23.602
  39	1	2	0.002978	-34.1881	18.4235	-22.6585
  40	1	5	0.016721	-35.1919	18.6694	-22.2892
  41	1	5	-0.000468	-33.8044	19.3088	-23.1821
  42	1	5	0.056924	-36.4897	21.6339	-12.8582
  43	1	5	0.029852	-39.414	15.7242	-15.4499
  44	1	5	0.043077	-35.6247	21.8721	-16.5612
  45	1	5	0.016056	-39.4453	20.2712	-16.8708
  46	1	5	0.041103	-37.9593	21.8408	-15.6207
  47	1	5	0.055216	-35.2866	19.351	-15.5373
  48	1	5	0.041749	-38.2254	19.1294	-18.7493
  49	1	6	0.155314	-32.7264	20.5031	-17.6259
  50	1	5	0.049935	-36.8575	17.7062	-16.8452
  51	1	5	0.098652	-36.1973	20.8485	-18.955
  52	1	5	0.045245	-37.6299	21.7046	-18.3236
  53	1	6	0.165622	-35.817	17.3732	-20.1526
  54	1	5	0.050235	-27.9878	20.031	-23.3207
  55	1	6	0.152615	-30.9932	18.0849	-23.3181
  56	1	5	0.037653	-27.6309	21.1232	-21.0931
  57	1	6	0.137195	-30.3516	20.4581	-18.8975
  58	1	5	0.010736	-27.1785	17.6777	-23.2912
  59	1	5	-0.004925	-27.5792	16.1554	-21.381
  60	1	5	0.039247	-25.7341	19.428	-21.935
  61	1	5	0.062128	-25.6164	17.8105	-21.1689
  62	1	5	0.003131	-27.3275	17.1352	-19.3383
  63	1	5	0.00404	-26.6403	19.5199	-19.4498
  64	1	5	0.021644	-33.721	15.1142	-23.252
  65	1	5	0.012129	-35.0282	15.729	-22.211
  66	1	5	0.009331	-33.4721	17.2589	-24.342
  67	1	5	0.018167	-35.2388	17.1767	-24.138
  68	1	2	-0.164337	-36.1991	20.5986	-12.6417
  69	1	5	0.06697	-36.2743	20.4547	-11.5572
  70	1	5	0.100055	-35.1489	20.4793	-12.9341
  71	1	2	0.054914	-39.7127	16.7603	-15.6525
  72	1	5	0.026242	-40.7668	16.8698	-15.3697
  73	1	5	-0.001285	-39.6328	16.9271	-16.7339
  74	1	1	0.066869	-27.9554	9.12816	-7.07346
  75	1	1	0.053974	-27.4781	10.421	-6.97932
  76	1	1	-0.117882	-28.162	11.4596	-6.31285
  77	1	1	-0.084276	-29.2897	10.9868	-5.60745
  78	1	1	-0.157972	-29.1523	8.68578	-6.49079
  79	1	2	0.004935	-31.6992	12.3323	-5.75023
  80	1	1	-0.170374	-29.7404	9.67815	-5.69098
  81	1	3	0.154019	-31.1152	10.0098	-5.15697
  82	1	3	0.051574	-30.6016	11.505	-5.00149
  83	1	3	0.007409	-31.368	12.0652	-7.2338
  84	1	2	0.007138	-32.3632	10.1212	-6.08201
  85	1	1	-0.211215	-33.4045	13.4086	-8.45251
  86	1	3	-0.023783	-31.7624	10.5476	-7.46464
  87	1	2	-0.253384	-32.9581	11.4436	-5.52148
  88	1	1	-0.027691	-32.7354	11.0752	-8.50245
  89	1	1	-0.014027	-32.4528	12.3968	-8.24813
  90	1	1	-0.211541	-33.9022	10.635	-9.13467
  91	1	1	-0.003037	-34.7986	11.6543	-9.51284
  92	1	4	-0.005095	-34.5809	13.0041	-9.13935
  93	1	2	0.078204	-36.1643	11.4667	-10.1866
  94	1	3	-0.018845	-39.4075	15.6675	-10.2707
  95	1	4	0.006574	-35.8006	13.7658	-9.46153
  96	1	1	0.013723	-36.718	12.8924	-10.1086
  97	1	1	-0.173541	-38.0041	13.3174	-10.5158
  98	1	1	-0.072264	-38.2868	14.6498	-10.2071
  99	1	1	-0.030211	-37.4299	15.4801	-9.53697
 100	1	3	0.009457	-38.4184	16.6334	-9.47573
 101	1	1	-0.176921	-36.1495	15.1001	-9.12304
 102	1	2	0.038799	-39.6681	16.4455	-11.5834
 103	1	2	0.012799	-38.3874	16.4831	-12.4723
 104	1	2	-0.181835	-39.7088	17.8795	-11.0043
 105	1	2	-0.004967	-37.4289	17.4693	-11.6789
 106	1	2	0.05243	-38.2735	17.8469	-10.4286
 107	1	2	-0.049676	-36.0201	10.9364	-11.6329
 108	1	2	-0.040251	-36.2997	9.42686	-11.5465
 109	1	5	0.031595	-36.7743	11.402	-12.2803
 110	1	5	0.022689	-35.0321	11.1477	-12.0623
 111	1	2	-0.037258	-37.3497	9.29432	-10.4331
 112	1	2	0.002978	-37.0568	10.4373	-9.44127
 113	1	5	0.016721	-36.5402	10.0468	-8.55768
 114	1	5	-0.000468	-37.996	10.8838	-9.09065
 115	1	5	0.056924	-27.9839	13.2766	-7.4798
 116	1	5	0.029852	-29.0693	6.58051	-6.99311
 117	1	5	0.043077	-31.7925	13.3869	-5.46195
 118	1	5	0.016056	-31.3744	9.5256	-4.20871
 119	1	5	0.041103	-30.5204	11.8362	-3.96073
 120	1	5	0.055216	-30.3683	12.3842	-7.53978
 121	1	5	0.041749	-33.0275	9.25088	-6.08001
 122	1	6	0.155314	-33.2798	14.4112	-8.05609
 123	1	5	0.049935	-31.009	9.87635	-7.88079
 124	1	5	0.098652	-33.8409	11.786	-6.07855
 125	1	5	0.045245	-33.2232	11.3666	-4.45843
 126	1	6	0.165622	-34.1269	9.58674	-9.28617
 127	1	5	0.050235	-40.3363	15.4049	-9.75228
 128	1	6	0.152615	-38.7249	12.6561	-10.987
 129	1	5	0.037653	-38.7643	16.9252	-8.47965
 130	1	6	0.137195	-35.4892	15.7523	-8.56287
 131	1	5	0.010736	-40.5755	16.147	-12.1232
 132	1	5	-0.004925	-37.9383	15.5147	-12.7279
 133	1	5	0.039247	-40.4735	17.9991	-10.224
 134	1	5	0.062128	-39.8665	18.6601	-11.7603
 135	1	5	0.003131	-36.4314	17.0577	-11.4858
 136	1	5	0.00404	-37.9585	18.7795	-9.94408
 137	1	5	0.021644	-36.6526	9.0141	-12.5
 138	1	5	0.012129	-35.3842	8.89413	-11.2588
 139	1	5	0.009331	-38.3516	9.43192	-10.8601
 140	1	5	0.018167	-37.319	8.31048	-9.95042
 141	1	2	-0.164337	-27.7992	12.9259	-6.4569
 142	1	5	0.06697	-28.3862	13.5513	-5.77308
 143	1	5	0.100055	-26.7374	13.0866	-6.23376
 144	1	2	0.054914	-29.8171	7.36118	-6.80771
 145	1	5	0.026242	-30.4485	7.02757	-5.97499
 146	1	5	-0.001285	-30.4521	7.4496	-7.69609
 147	1	1	0.066869	-32.6731	17.168	-13.2034
 148	1	1	0.053974	-31.5173	17.9292	-13.1095
 149	1	1	-0.117882	-30.7077	18.2397	-14.2135
 150	1	1	-0.084276	-31.2822	17.856	-15.4363
 151	1	1	-0.157972	-33.1864	16.6815	-14.4229
 152	1	2	0.004935	-29.6771	16.3204	-16.9719
 153	1	1	-0.170374	-32.4603	17.1301	-15.5479
 154	1	3	0.154019	-32.1408	16.6451	-16.9721
 155	1	3	0.051574	-30.7699	17.4235	-16.7965
 156	1	3	0.007409	-29.8697	15.4084	-15.7149
 157	1	2	0.007138	-31.6837	15.2082	-17.3804
 158	1	1	-0.211215	-28.2317	13.4198	-14.9301
 159	1	3	-0.023783	-31.2073	14.6333	-16.0358
 160	1	2	-0.253384	-30.3433	15.5035	-18.1147
 161	1	1	-0.027691	-30.3585	13.3835	-16.0909
 162	1	1	-0.014027	-29.2013	14.0434	-15.7306
 163	1	1	-0.211541	-30.6009	12.032	-15.8309
 164	1	1	-0.003037	-29.5448	11.3408	-15.2062
 165	1	4	-0.005095	-28.4051	12.0274	-14.7215
 166	1	2	0.078204	-29.5789	9.89184	-14.7135
 167	1	3	-0.018845	-26.5755	8.73511	-10.6869
 168	1	4	0.006574	-27.6631	11.1117	-13.8376
 169	1	1	0.013723	-28.3065	9.85112	-13.8613
 170	1	1	-0.173541	-27.9265	8.80645	-12.9965
 171	1	1	-0.072264	-26.8537	9.07736	-12.1394
 172	1	1	-0.030211	-26.2849	10.336	-12.0488
 173	1	3	0.009457	-25.9494	10.1828	-10.5741
 174	1	1	-0.176921	-26.6863	11.4106	-12.856
 175	1	2	0.038799	-27.7486	8.78398	-9.67996
 176	1	2	0.012799	-27.0962	8.77893	-8.26868
 177	1	2	-0.181835	-28.2443	10.2442	-9.81505
 178	1	2	-0.004967	-26.5167	10.2488	-8.14724
 179	1	2	0.05243	-26.8632	10.8768	-9.52731
 180	1	2	-0.049676	-30.8544	9.57222	-13.8801
 181	1	2	-0.040251	-31.5766	8.42352	-14.6067
 182	1	5	0.031595	-30.5889	9.25386	-12.8647
 183	1	5	0.022689	-31.5155	10.4414	-13.7727
 184	1	2	-0.037258	-30.4893	7.72679	-15.4387
 185	1	2	0.002978	-29.5467	8.86227	-15.8682
 186	1	5	0.016721	-29.9352	9.31901	-16.7879
 187	1	5	-0.000468	-28.5337	8.49518	-16.0782
 188	1	5	0.056924	-28.7674	18.7544	-15.0498
 189	1	5	0.029852	-34.4866	15.3259	-15.5189
 190	1	5	0.043077	-28.6575	16.6766	-17.1586
 191	1	5	0.016056	-32.7929	17.0469	-17.748
 192	1	5	0.041103	-30.6244	18.2347	-17.5169
 193	1	5	0.055216	-29.7644	15.9179	-14.7557
 194	1	5	0.041749	-32.4166	14.605	-17.9306
 195	1	6	0.155314	-27.4623	13.9819	-14.4105
 196	1	5	0.049935	-31.9852	14.569	-15.2759
 197	1	5	0.098652	-29.7833	14.5959	-18.3767
 198	1	5	0.045245	-30.4945	16.0992	-19.0256
 199	1	6	0.165622	-31.5741	11.579	-15.9922
 200	1	5	0.050235	-25.8958	7.89251	-10.5166
 201	1	6	0.152615	-28.5162	7.90352	-12.908
 202	1	5	0.037653	-24.8896	10.2237	-10.3193
 203	1	6	0.137195	-26.3693	12.4301	-12.6572
 204	1	5	0.010736	-28.524	8.02369	-9.81972
 205	1	5	-0.004925	-26.3657	7.98305	-8.08672
 206	1	5	0.039247	-29.0154	10.5195	-9.08578
 207	1	5	0.062128	-28.637	10.4881	-10.8096
 208	1	5	0.003131	-25.4612	10.269	-7.87237
 209	1	5	0.00404	-26.8453	11.9737	-9.54209
 210	1	5	0.021644	-32.0738	7.73921	-13.9086
 211	1	5	0.012129	-32.3387	8.83923	-15.2788
 212	1	5	0.009331	-29.9405	7.01298	-14.8115
 213	1	5	0.018167	-30.9062	7.18537	-16.2973
 214	1	2	-0.164337	-29.2656	18.6953	-14.0742
 215	1	5	0.06697	-29.216	19.6893	-13.6131
 216	1	5	0.100055	-28.6956	18.0039	-13.4415
 217	1	2	0.054914	-34.2975	15.6464	-14.4868
 218	1	5	0.026242	-34.0449	14.7571	-13.896
 219	1	5	-0.001285	-35.2333	16.0586	-14.0887
 220	1	1	0.066869	-29.7451	23.1801	0.423357
 221	1	1	0.053974	-29.2786	24.1132	-0.484137
 222	1	1	-0.117882	-30.0972	24.913	-1.29325
 223	1	1	-0.084276	-31.4543	24.7756	-0.964908
 224	1	1	-0.157972	-31.1186	22.9169	0.614117
 225	1	2	0.004935	-33.1136	24.346	-3.04389
 226	1	1	-0.170374	-31.947	23.8351	-0.0712918
 227	1	3	0.154019	-33.3844	23.9423	-0.603384
 228	1	3	0.051574	-32.7874	24.9729	-1.65426
 229	1	3	0.007409	-32.212	23.0695	-3.08798
 230	1	2	0.007138	-34.1092	22.8934	-1.51111
 231	1	1	-0.211215	-32.6362	21.9782	-5.54806
 232	1	3	-0.023783	-32.9311	22.0763	-2.0826
 233	1	2	-0.253384	-34.5253	23.7771	-2.72489
 234	1	1	-0.027691	-33.216	21.2133	-3.30034
 235	1	1	-0.014027	-32.537	22.0453	-4.15606
 236	1	1	-0.211541	-34.1986	20.317	-3.7455
 237	1	1	-0.003037	-34.2776	20.1698	-5.15102
 238	1	4	-0.005095	-33.4715	20.9392	-6.02574
 239	1	2	0.078204	-35.2684	19.31	-5.94768
 240	1	3	-0.018845	-33.9611	18.4345	-10.9072
 241	1	4	0.006574	-33.7702	20.5465	-7.40861
 242	1	1	0.013723	-34.8226	19.6011	-7.39247
 243	1	1	-0.173541	-35.1862	18.8924	-8.55939
 244	1	1	-0.072264	-34.4988	19.2375	-9.73358
 245	1	1	-0.030211	-33.4184	20.101	-9.72442
 246	1	3	0.009457	-32.7068	19.3916	-10.8645
 247	1	1	-0.176921	-32.9824	20.7528	-8.56516
 248	1	2	0.038799	-33.3597	17.045	-10.6132
 249	1	2	0.012799	-32.4965	16.5695	-11.8122
 250	1	2	-0.181835	-32.2364	17.3712	-9.60163
 251	1	2	-0.004967	-31.2112	17.4819	-11.6977
 252	1	2	0.05243	-31.5457	18.4197	-10.5031
 253	1	2	-0.049676	-35.2153	17.8028	-5.60233
 254	1	2	-0.040251	-36.6551	17.261	-5.75161
 255	1	5	0.031595	-34.5078	17.2606	-6.24317
 256	1	5	0.022689	-34.8892	17.6639	-4.56364
 257	1	2	-0.037258	-37.564	18.4713	-6.04889
 258	1	2	0.002978	-36.7358	19.7179	-5.70559
 259	1	5	0.016721	-36.8873	19.9643	-4.64673
 260	1	5	-0.000468	-37.0342	20.59	-6.30191
 261	1	5	0.056924	-30.3692	26.3351	-2.91258
 262	1	5	0.029852	-32.7309	21.6589	1.34921
 263	1	5	0.043077	-33.0442	25.0203	-3.90668
 264	1	5	0.016056	-34.0959	24.391	0.0986241
 265	1	5	0.041103	-33.2055	25.9822	-1.57442
 266	1	5	0.055216	-31.1405	23.239	-2.96674
 267	1	5	0.041749	-34.911	22.3141	-1.0366
 268	1	6	0.155314	-32.1525	22.6916	-6.20753
 269	1	5	0.049935	-32.3158	21.5765	-1.33177
 270	1	5	0.098652	-34.9524	23.2002	-3.55649
 271	1	5	0.045245	-35.2389	24.5632	-2.44248
 272	1	6	0.165622	-34.8769	19.813	-3.06421
 273	1	5	0.050235	-34.5649	18.4541	-11.8184
 274	1	6	0.152615	-35.8637	18.0474	-8.52883
 275	1	5	0.037653	-32.5152	20.0002	-11.7547
 276	1	6	0.137195	-32.0271	21.2656	-8.5192
 277	1	5	0.010736	-34.0746	16.2923	-10.2738
 278	1	5	-0.004925	-32.2446	15.5007	-11.7996
 279	1	5	0.039247	-31.5962	16.5044	-9.38263
 280	1	5	0.062128	-32.5968	17.7789	-8.64931
 281	1	5	0.003131	-30.2904	16.8945	-11.5834
 282	1	5	0.00404	-30.6651	18.8956	-10.054
 283	1	5	0.021644	-36.7212	16.5211	-6.55844
 284	1	5	0.012129	-36.9671	16.7695	-4.82113
 285	1	5	0.009331	-37.8169	18.4948	-7.11486
 286	1	5	0.018167	-38.5009	18.4327	-5.47865
 287	1	2	-0.164337	-29.592	25.6777	-2.50366
 288	1	5	0.06697	-28.7302	26.3027	-2.23869
 289	1	5	0.100055	-29.278	24.9906	-3.29907
 290	1	2	0.054914	-31.6344	21.6949	1.3534
 291	1	5	0.026242	-31.2647	20.7714	0.890933
 292	1	5	-0.001285	-31.3029	21.7042	2.39906
 293	1	1	0.066869	-15.4566	26.4273	0.236204
 294	1	1	0.053974	-16.2047	27.3908	-0.414088
 295	1	1	-0.117882	-16.8945	28.4304	0.228394
 296	1	1	-0.084276	-16.6522	28.448	1.61352
 297	1	1	-0.157972	-15.3979	26.3265	1.64127
 298	1	2	0.004935	-18.8465	28.6758	3.17843
 299	1	1	-0.170374	-15.9757	27.4407	2.2868
 300	1	3	0.154019	-16.5647	27.8148	3.65125
 301	1	3	0.051574	-17.3466	28.9535	2.86614
 302	1	3	0.007409	-19.1237	27.3595	2.39564
 303	1	2	0.007138	-17.7062	27.0371	4.39213
 304	1	1	-0.211215	-21.7759	26.7109	2.55248
 305	1	3	-0.023783	-18.3838	26.2403	3.24971
 306	1	2	-0.253384	-18.72	28.1905	4.65117
 307	1	1	-0.027691	-19.779	25.6829	3.50793
 308	1	1	-0.014027	-20.3984	26.6334	2.74556
 309	1	1	-0.211541	-20.4721	24.7213	4.25748
 310	1	1	-0.003037	-21.8803	24.7527	4.08084
 311	1	4	-0.005095	-22.5044	25.7046	3.23258
 312	1	2	0.078204	-22.9322	23.8184	4.70468
 313	1	3	-0.018845	-27.6259	23.8148	2.38997
 314	1	4	0.006574	-23.9431	25.4303	3.19409
 315	1	1	0.013723	-24.2248	24.3412	4.05047
 316	1	1	-0.173541	-25.5026	23.7325	4.06483
 317	1	1	-0.072264	-26.4845	24.3369	3.25876
 318	1	1	-0.030211	-26.174	25.356	2.37682
 319	1	3	0.009457	-27.2175	24.9432	1.36232
 320	1	1	-0.176921	-24.8957	25.9089	2.26878
 321	1	2	0.038799	-27.4028	22.5114	1.5873
 322	1	2	0.012799	-28.4383	22.3889	0.423385
 323	1	2	-0.181835	-26.1379	22.849	0.761712
 324	1	2	-0.004967	-27.9176	23.4773	-0.606491
 325	1	2	0.05243	-26.7223	24.1325	0.129875
 326	1	2	-0.049676	-22.6639	22.3253	4.37724
 327	1	2	-0.040251	-22.8793	21.5543	5.69005
 328	1	5	0.031595	-23.3092	21.9469	3.5739
 329	1	5	0.022689	-21.6245	22.1883	4.05266
 330	1	2	-0.037258	-22.5159	22.5592	6.79224
 331	1	2	0.002978	-22.9789	23.923	6.25097
 332	1	5	0.016721	-22.3527	24.7392	6.63412
 333	1	5	-0.000468	-24.0075	24.1107	6.58598
 334	1	5	0.056924	-18.7329	28.6998	-0.890719
 335	1	5	0.029852	-14.9041	25.2346	3.45315
 336	1	5	0.043077	-19.5414	29.505	2.99577
 337	1	5	0.016056	-15.8352	28.1983	4.37319
 338	1	5	0.041103	-17.0708	29.9697	3.16781
 339	1	5	0.055216	-18.9516	27.4016	1.31977
 340	1	5	0.041749	-17.4027	26.4543	5.27062
 341	1	6	0.155314	-22.2444	27.4654	1.92909
 342	1	5	0.049935	-17.7212	25.5476	2.72489
 343	1	5	0.098652	-19.6731	27.841	5.07138
 344	1	5	0.045245	-18.309	28.9659	5.31199
 345	1	6	0.165622	-19.9719	24.0044	4.90104
 346	1	5	0.050235	-28.6266	23.886	2.83031
 347	1	6	0.152615	-25.6823	22.7909	4.57397
 348	1	5	0.037653	-27.9696	25.7042	1.12778
 349	1	6	0.137195	-24.6195	26.5641	1.4491
 350	1	5	0.010736	-27.3138	21.6046	2.19845
 351	1	5	-0.004925	-28.5032	21.3914	-0.0309382
 352	1	5	0.039247	-25.8964	22.0765	0.0175804
 353	1	5	0.062128	-25.2415	23.0278	1.36806
 354	1	5	0.003131	-27.6862	23.0516	-1.59192
 355	1	5	0.00404	-26.0334	24.6691	-0.534423
 356	1	5	0.021644	-23.9358	21.2707	5.78367
 357	1	5	0.012129	-22.2701	20.643	5.74135
 358	1	5	0.009331	-22.9878	22.3117	7.75158
 359	1	5	0.018167	-21.4274	22.5703	6.93446
 360	1	2	-0.164337	-17.9235	29.306	-0.465393
 361	1	5	0.06697	-18.3713	30.0256	0.231049
 362	1	5	0.100055	-17.4628	29.874	-1.28306
 363	1	2	0.054914	-14.9144	25.0836	2.36654
 364	1	5	0.026242	-15.5646	24.2267	2.15113
 365	1	5	-0.001285	-13.8961	24.8211	2.05404
 366	1	1	0.066869	-14.3209	24.2715	-13.5801
 367	1	1	0.053974	-15.4049	25.0105	-13.1482
 368	1	1	-0.117882	-15.3761	26.4067	-12.965
 369	1	1	-0.084276	-14.1602	26.9763	-13.4007
 370	1	1	-0.157972	-13.0489	24.8143	-13.8244
 371	1	2	0.004935	-12.9419	28.8287	-11.7914
 372	1	1	-0.170374	-13.0611	26.2199	-13.7814
 373	1	3	0.154019	-12.0733	27.359	-13.5829
 374	1	3	0.051574	-13.3316	28.2445	-13.1847
 375	1	3	0.007409	-13.094	27.5986	-10.868
 376	1	2	0.007138	-11.1234	27.4734	-12.3465
 377	1	1	-0.211215	-12.8621	28.0001	-8.19699
 378	1	3	-0.023783	-11.87	26.6626	-11.2441
 379	1	2	-0.253384	-11.3979	28.9516	-11.946
 380	1	1	-0.027691	-11.4147	26.868	-9.80613
 381	1	1	-0.014027	-12.4594	27.705	-9.50007
 382	1	1	-0.211541	-10.6962	26.1661	-8.82653
 383	1	1	-0.003037	-11.0232	26.5001	-7.48866
 384	1	4	-0.005095	-12.0557	27.4235	-7.18648
 385	1	2	0.078204	-10.4952	25.8396	-6.20263
 386	1	3	-0.018845	-13.3848	26.654	-1.87483
 387	1	4	0.006574	-12.2488	27.4548	-5.73265
 388	1	1	0.013723	-11.3706	26.5201	-5.13608
 389	1	1	-0.173541	-11.4975	26.1672	-3.77116
 390	1	1	-0.072264	-12.4233	26.9215	-3.03081
 391	1	1	-0.030211	-13.2482	27.8622	-3.61517
 392	1	3	0.009457	-14.3208	27.7302	-2.55968
 393	1	1	-0.176921	-13.2604	28.1055	-4.99135
 394	1	2	0.038799	-14.2545	25.3661	-1.91357
 395	1	2	0.012799	-15.4804	25.473	-0.948886
 396	1	2	-0.181835	-15.0056	25.5157	-3.25732
 397	1	2	-0.004967	-16.3832	26.561	-1.66808
 398	1	2	0.05243	-15.5797	26.9169	-2.94288
 399	1	2	-0.049676	-10.6664	24.2959	-6.21004
 400	1	2	-0.040251	-9.33088	23.7131	-5.71786
 401	1	5	0.031595	-11.5056	23.9622	-5.58623
 402	1	5	0.022689	-10.8571	23.9358	-7.22874
 403	1	2	-0.037258	-8.27813	24.7508	-6.1317
 404	1	2	0.002978	-8.98509	26.1084	-5.97896
 405	1	5	0.016721	-8.58373	26.8513	-6.68039
 406	1	5	-0.000468	-8.81565	26.4871	-4.96242
 407	1	5	0.056924	-17.4297	27.067	-12.7751
 408	1	5	0.029852	-11.9031	23.2202	-14.7403
 409	1	5	0.043077	-13.4737	29.7361	-11.4788
 410	1	5	0.016056	-11.5645	27.6937	-14.4937
 411	1	5	0.041103	-13.5428	29.0534	-13.8923
 412	1	5	0.055216	-14.1002	27.1779	-10.8325
 413	1	5	0.041749	-10.0737	27.2041	-12.5178
 414	1	6	0.155314	-13.7685	28.5542	-7.97683
 415	1	5	0.049935	-12.0551	25.6156	-11.4978
 416	1	5	0.098652	-10.8929	29.2454	-11.0156
 417	1	5	0.045245	-11.1137	29.6584	-12.7375
 418	1	6	0.165622	-10.0037	25.3683	-9.07601
 419	1	5	0.050235	-13.0058	26.8948	-0.875556
 420	1	6	0.152615	-10.9755	25.3166	-3.34405
 421	1	5	0.037653	-14.5331	28.6442	-1.99437
 422	1	6	0.137195	-14.0487	28.6779	-5.46883
 423	1	5	0.010736	-13.6932	24.4287	-1.81277
 424	1	5	-0.004925	-16.02	24.532	-0.778555
 425	1	5	0.039247	-15.7877	24.7557	-3.39646
 426	1	5	0.062128	-14.3487	25.4943	-4.1361
 427	1	5	0.003131	-17.406	26.204	-1.84714
 428	1	5	0.00404	-16.1885	27.3525	-3.74505
 429	1	5	0.021644	-9.34801	23.6228	-4.62382
 430	1	5	0.012129	-9.12771	22.7224	-6.14404
 431	1	5	0.009331	-7.36834	24.6857	-5.52153
 432	1	5	0.018167	-8.00237	24.5955	-7.18299
 433	1	2	-0.164337	-16.4719	27.1789	-12.2521
 434	1	5	0.06697	-16.6044	26.8155	-11.2255
 435	1	5	0.100055	-16.2395	28.25	-12.2043
 436	1	2	0.054914	-11.7896	23.9768	-13.954
 437	1	5	0.026242	-10.9219	24.5981	-14.2084
 438	1	5	-0.001285	-11.5676	23.4566	-13.014
 439	1	1	0.066869	-23.219	14.5013	-12.9591
 440	1	1	0.053974	-23.6517	15.5221	-12.1309
 441	1	1	-0.117882	-24.6071	16.4805	-12.5157
 442	1	1	-0.084276	-25.2054	16.1816	-13.754
 443	1	1	-0.157972	-23.7196	14.2837	-14.2555
 444	1	2	0.004935	-25.275	18.2178	-15.5713
 445	1	1	-0.170374	-24.7955	15.1379	-14.5725
 446	1	3	0.154019	-25.4186	15.7487	-15.8272
 447	1	3	0.051574	-25.878	16.9437	-14.8903
 448	1	3	0.007409	-23.7516	18.0818	-15.3006
 449	1	2	0.007138	-24.6106	16.4607	-16.9561
 450	1	1	-0.211215	-21.9747	20.0329	-15.891
 451	1	3	-0.023783	-23.3086	16.8798	-16.2251
 452	1	2	-0.253384	-25.3932	17.8024	-17.0621
 453	1	1	-0.027691	-22.4211	17.8757	-16.9369
 454	1	1	-0.014027	-22.8099	18.9338	-16.1412
 455	1	1	-0.211541	-21.1515	17.79	-17.5185
 456	1	1	-0.003037	-20.3327	18.928	-17.3679
 457	1	4	-0.005095	-20.7438	20.0435	-16.5974
 458	1	2	0.078204	-18.8536	19.0324	-17.7569
 459	1	3	-0.018845	-16.1086	22.8131	-15.3693
 460	1	4	0.006574	-19.596	20.9599	-16.4651
 461	1	1	0.013723	-18.4769	20.3652	-17.0997
 462	1	1	-0.173541	-17.1773	20.8954	-16.9498
 463	1	1	-0.072264	-17.1058	22.1234	-16.283
 464	1	1	-0.030211	-18.2013	22.7491	-15.7261
 465	1	3	0.009457	-17.3601	23.5725	-14.7648
 466	1	1	-0.176921	-19.4688	22.1487	-15.7015
 467	1	2	0.038799	-15.5661	22.0106	-14.1489
 468	1	2	0.012799	-14.8972	22.9561	-13.1099
 469	1	2	-0.181835	-16.8497	21.6906	-13.3498
 470	1	2	-0.004967	-16.1222	23.8016	-12.5577
 471	1	2	0.05243	-17.3418	23.156	-13.2791
 472	1	2	-0.049676	-18.0104	17.839	-17.2252
 473	1	2	-0.040251	-17.4925	17.0875	-18.4642
 474	1	5	0.031595	-17.1552	18.1982	-16.6398
 475	1	5	0.022689	-18.5883	17.174	-16.5706
 476	1	2	-0.037258	-17.4473	18.1438	-19.5773
 477	1	2	0.002978	-18.6486	19.0598	-19.2923
 478	1	5	0.016721	-19.5346	18.6532	-19.7974
 479	1	5	-0.000468	-18.4836	20.0747	-19.6768
 480	1	5	0.056924	-23.8989	18.3947	-11.7806
 481	1	5	0.029852	-23.0538	12.3315	-14.915
 482	1	5	0.043077	-25.732	19.1768	-15.297
 483	1	5	0.016056	-26.248	15.1769	-16.2571
 484	1	5	0.041103	-26.9648	17.0301	-14.804
 485	1	5	0.055216	-23.4831	18.0666	-14.2428
 486	1	5	0.041749	-24.4829	15.8967	-17.8885
 487	1	6	0.155314	-22.1991	20.7635	-15.1208
 488	1	5	0.049935	-22.738	16.0556	-15.7974
 489	1	5	0.098652	-24.9266	18.5205	-17.7499
 490	1	5	0.045245	-26.4384	17.6569	-17.3565
 491	1	6	0.165622	-20.778	16.8646	-17.9456
 492	1	5	0.050235	-15.3514	23.4241	-15.8727
 493	1	6	0.152615	-16.2887	20.3572	-17.2646
 494	1	5	0.037653	-17.403	24.657	-14.9142
 495	1	6	0.137195	-20.275	22.5262	-15.0812
 496	1	5	0.010736	-14.9588	21.1332	-14.4041
 497	1	5	-0.004925	-14.3346	22.4545	-12.3113
 498	1	5	0.039247	-16.6417	21.2633	-12.3584
 499	1	5	0.062128	-17.5368	21.0153	-13.8753
 500	1	5	0.003131	-16.1732	23.7856	-11.4611
 501	1	5	0.00404	-18.2935	23.2903	-12.7499
 502	1	5	0.021644	-16.5121	16.626	-18.2902
 503	1	5	0.012129	-18.2031	16.2967	-18.7383
 504	1	5	0.009331	-16.5168	18.7214	-19.4997
 505	1	5	0.018167	-17.4952	17.6958	-20.5779
 506	1	2	-0.164337	-24.8149	17.791	-11.7768
 507	1	5	0.06697	-25.6137	18.3864	-12.2361
 508	1	5	0.100055	-25.0929	17.6083	-10.7314
 509	1	2	0.054914	-23.0387	13.3722	-15.2619
 510	1	5	0.026242	-23.5404	13.4075	-16.2369
 511	1	5	-0.001285	-21.9913	13.6628	-15.4105
 512	1	1	0.066869	-25.81	8.28792	2.3218
 513	1	1	0.053974	-26.194	9.61544	2.31259
 514	1	1	-0.117882	-26.7478	10.2728	1.1982
 515	1	1	-0.084276	-26.7147	9.46328	0.0526932
 516	1	1	-0.157972	-25.9032	7.43879	1.19893
 517	1	2	0.004935	-26.7627	9.99306	-2.59669
 518	1	1	-0.170374	-26.3052	8.14059	0.0448146
 519	1	3	0.154019	-26.9154	7.86144	-1.32595
 520	1	3	0.051574	-27.3891	9.38008	-1.30753
 521	1	3	0.007409	-25.2552	10.07	-2.22331
 522	1	2	0.007138	-26.0687	7.76332	-2.6336
 523	1	1	-0.211215	-24.164	11.1582	-4.45771
 524	1	3	-0.023783	-24.7862	8.55379	-2.25966
 525	1	2	-0.253384	-26.8365	8.76269	-3.54538
 526	1	1	-0.027691	-23.8905	8.97328	-3.40946
 527	1	1	-0.014027	-24.282	10.2914	-3.36473
 528	1	1	-0.211541	-23.3739	8.37989	-4.56609
 529	1	1	-0.003037	-23.0919	9.26276	-5.62661
 530	1	4	-0.005095	-23.4681	10.6267	-5.57198
 531	1	2	0.078204	-22.5706	8.87466	-7.01441
 532	1	3	-0.018845	-22.8736	12.6066	-10.7873
 533	1	4	0.006574	-23.2308	11.2215	-6.89395
 534	1	1	0.013723	-22.7121	10.2121	-7.75308
 535	1	1	-0.173541	-22.4648	10.4517	-9.12493
 536	1	1	-0.072264	-22.8071	11.7401	-9.54557
 537	1	1	-0.030211	-23.3051	12.7117	-8.72132
 538	1	3	0.009457	-23.4337	13.7443	-9.82461
 539	1	1	-0.176921	-23.5445	12.5258	-7.35879
 540	1	2	0.038799	-21.5546	13.2143	-11.3128
 541	1	2	0.012799	-21.8613	14.3907	-12.2819
 542	1	2	-0.181835	-21.0464	14.0236	-10.0963
 543	1	2	-0.004967	-22.3752	15.5337	-11.3119
 544	1	2	0.05243	-22.344	14.8452	-9.9166
 545	1	2	-0.049676	-21.1096	8.35669	-6.96535
 546	1	2	-0.040251	-21.0891	7.0278	-7.74162
 547	1	5	0.031595	-20.3983	9.07665	-7.38987
 548	1	5	0.022689	-20.809	8.1691	-5.92596
 549	1	2	-0.037258	-22.5213	6.48464	-7.64484
 550	1	2	0.002978	-23.4126	7.73728	-7.65247
 551	1	5	0.016721	-24.3486	7.55767	-7.1101
 552	1	5	-0.000468	-23.6725	7.98591	-8.68945
 553	1	5	0.056924	-27.2182	12.2158	0.363312
 554	1	5	0.029852	-24.9565	5.60306	0.548938
 555	1	5	0.043077	-27.22	10.9195	-2.96685
 556	1	5	0.016056	-27.7205	7.11836	-1.33368
 557	1	5	0.041103	-28.4738	9.5317	-1.29823
 558	1	5	0.055216	-25.027	10.6626	-1.33078
 559	1	5	0.041749	-25.9156	6.75509	-3.03806
 560	1	6	0.155314	-24.6322	12.1367	-4.47676
 561	1	5	0.049935	-24.2431	8.16236	-1.39248
 562	1	5	0.098652	-26.3426	8.93666	-4.51085
 563	1	5	0.045245	-27.8705	8.44412	-3.73362
 564	1	6	0.165622	-23.2687	7.30884	-4.67503
 565	1	5	0.050235	-23.5336	12.2396	-11.5813
 566	1	6	0.152615	-22.0957	9.6884	-9.80341
 567	1	5	0.037653	-24.4488	14.1134	-10.0078
 568	1	6	0.137195	-23.9689	13.2957	-6.72311
 569	1	5	0.010736	-20.835	12.4869	-11.7088
 570	1	5	-0.004925	-21.0108	14.7188	-12.894
 571	1	5	0.039247	-20.175	14.6497	-10.3356
 572	1	5	0.062128	-20.7946	13.4024	-9.22682
 573	1	5	0.003131	-21.7772	16.4511	-11.392
 574	1	5	0.00404	-22.3241	15.5486	-9.07479
 575	1	5	0.021644	-20.8414	7.21972	-8.79377
 576	1	5	0.012129	-20.3511	6.32573	-7.33473
 577	1	5	0.009331	-22.7631	5.79779	-8.46591
 578	1	5	0.018167	-22.6483	5.9466	-6.69705
 579	1	2	-0.164337	-27.4445	11.6198	1.25621
 580	1	5	0.06697	-28.5329	11.4958	1.31193
 581	1	5	0.100055	-27.1241	12.1958	2.13339
 582	1	2	0.054914	-25.7329	5.93146	1.25093
 583	1	5	0.026242	-25.4425	5.59613	2.25438
 584	1	5	-0.001285	-26.6673	5.42298	0.983231
 585	1	1	0.066869	-39.1125	8.3465	-3.14599
 586	1	1	0.053974	-38.397	9.52306	-3.26641
 587	1	1	-0.117882	-37.175	9.76937	-2.62746
 588	1	1	-0.084276	-36.8023	8.75169	-1.73841
 589	1	1	-0.157972	-38.6625	7.26363	-2.35981
 590	1	2	0.004935	-34.6849	8.26311	-0.166948
 591	1	1	-0.170374	-37.5002	7.5474	-1.60758
 592	1	3	0.154019	-36.2184	6.73875	-1.37881
 593	1	3	0.051574	-35.4535	8.11148	-1.50521
 594	1	3	0.007409	-35.8314	8.49719	0.868235
 595	1	2	0.007138	-35.7345	6.19101	-0.000121726
 596	1	1	-0.211215	-34.243	8.72487	2.95885
 597	1	3	-0.023783	-36.5038	7.08114	1.00943
 598	1	2	-0.253384	-34.2899	6.77458	0.0407546
 599	1	1	-0.027691	-35.9717	7.07469	2.43915
 600	1	1	-0.014027	-35.4309	8.34896	2.32303
 601	1	1	-0.211541	-35.3008	6.05934	3.14583
 602	1	1	-0.003037	-34.1022	6.42096	3.80252
 603	1	4	-0.005095	-33.613	7.74532	3.75573
 604	1	2	0.078204	-33.0122	5.4653	4.31795
 605	1	3	-0.018845	-28.2044	7.40381	3.79188
 606	1	4	0.006574	-32.2185	7.75729	4.21504
 607	1	1	0.013723	-31.8161	6.42471	4.46247
 608	1	1	-0.173541	-30.443	6.0864	4.51441
 609	1	1	-0.072264	-29.5415	7.16151	4.48206
 610	1	1	-0.030211	-29.9472	8.47504	4.33734
 611	1	3	0.009457	-28.6599	8.91025	3.67482
 612	1	1	-0.176921	-31.2826	8.81177	4.10302
 613	1	2	0.038799	-26.9206	7.49903	4.64712
 614	1	2	0.012799	-25.7757	8.19957	3.84537
 615	1	2	-0.181835	-27.2701	8.63569	5.6351
 616	1	2	-0.004967	-26.2425	9.71802	3.82212
 617	1	2	0.05243	-27.6195	9.66995	4.54182
 618	1	2	-0.049676	-33.3762	4.80178	5.66005
 619	1	2	-0.040251	-32.5081	3.53471	5.72821
 620	1	5	0.031595	-33.2083	5.46713	6.51694
 621	1	5	0.022689	-34.4356	4.51314	5.65488
 622	1	2	-0.037258	-32.3156	3.08007	4.26745
 623	1	2	0.002978	-32.693	4.27975	3.36955
 624	1	5	0.016721	-33.5697	4.00498	2.77213
 625	1	5	-0.000468	-31.8896	4.52444	2.66267
 626	1	5	0.056924	-35.5274	10.4487	-3.86897
 627	1	5	0.029852	-39.6621	5.5424	-1.50814