pySIMM System Object

959 atoms
1123 bonds
2340 angles
4351 dihedrals
78 impropers

6 atom types
11 bond types
24 angle types
21 dihedral types
2 improper types

-135.810581 135.810581 xlo xhi
-135.810581 135.810581 ylo yhi
-135.810581 135.810581 zlo zhi

Masses

   1	12.01	# ca
   2	12.01	# c3
   3	12.01	# cy
   4	12.01	# cp
   5	1.008	# hc
   6	1.008	# ha

Pair Coeffs

   1	0.086	3.3996695084235347	# ca
   2	0.1094	3.3996695084235347	# c3
   3	0.086	3.3996695084235347	# cy
   4	0.086	3.3996695084235347	# cp
   5	0.0157	2.649532787749369	# hc
   6	0.015	2.59964245953351	# ha

Bond Coeffs

   1	321.2	1.5154	# ca,cy
   2	461.1	1.3984	# ca,ca
   3	305.9	1.5319	# c3,cy
   4	351.4	1.4854	# cp,cp
   5	345.8	1.086	# ca,ha
   6	300.9	1.5375	# c3,c3
   7	450.2	1.4058	# ca,cp
   8	285.0	1.5562	# cy,cy
   9	321.0	1.5156	# c3,ca
  10	330.6	1.0969	# c3,hc
  11	333.3	1.0949	# cy,hc

Angle Coeffs

   1	67.9	96.03	# cy,c3,cy
   2	61.4	116.81	# ca,cy,cy
   3	63.15	112.07	# c3,c3,ca
   4	45.97	114.53	# ca,cy,hc
   5	66.26	120.69	# ca,ca,cp
   6	46.34	109.8	# c3,c3,hc
   7	48.18	119.88	# ca,ca,ha
   8	62.73	112.39	# c3,c3,cy
   9	46.29	110.75	# cy,c3,hc
  10	44.83	114.79	# cy,cy,hc
  11	46.8	110.47	# ca,c3,hc
  12	66.72	118.38	# ca,cp,ca
  13	62.86	111.51	# c3,c3,c3
  14	46.43	110.14	# c3,cy,hc
  15	60.66	118.7	# c3,cy,cy
  16	63.43	120.63	# c3,ca,cp
  17	63.56	112.24	# ca,c3,ca
  18	64.05	121.11	# ca,cp,cp
  19	66.62	120.02	# ca,ca,ca
  20	39.4	107.58	# hc,c3,hc
  21	47.98	119.86	# cp,ca,ha
  22	63.53	120.77	# c3,ca,ca
  23	63.51	120.86	# ca,ca,cy
  24	62.8	113.57	# c3,cy,ca

Dihedral Coeffs

   1	1	0.16	3	0	# hc,c3,c3,c3
   2	1	0.0	2	0.0	# ca,ca,cy,cy
   3	1	1.0	2	180	# X,cp,cp,X
   4	1	0.0	2	0.0	# ca,ca,cy,c3
   5	3	0.38	3	180.0	0.0	2	0.0	1.15	1	0.0	# ca,ca,cy,hc
   6	1	0.0	2	0	# X,c3,ca,X
   7	1	0.16	3	0.0	# cy,c3,cy,ca
   8	1	0.15555555555555556	3	0	# X,c3,c3,X
   9	1	0.16	3	0.0	# c3,c3,cy,ca
  10	1	0.16	3	0.0	# hc,c3,cy,ca
  11	3	0.18	3	0.0	0.25	2	180.0	0.2	1	180.0	# cy,c3,cy,cy
  12	1	0.15	3	0	# hc,c3,c3,hc
  13	3	0.18	3	0.0	0.25	2	180.0	0.2	1	180.0	# c3,c3,cy,cy
  14	1	0.16	3	0.0	# hc,c3,cy,cy
  15	1	0.16	3	0.0	# cy,c3,cy,hc
  16	1	0.16	3	0.0	# c3,c3,cy,hc
  17	1	0.15	3	0.0	# hc,c3,cy,hc
  18	1	3.625	2	180	# X,ca,ca,X
  19	1	0.15555555555555556	3	0	# X,cy,cy,X
  20	1	3.625	2	180	# X,ca,cp,X
  21	3	0.18	3	0	0.25	2	180	0.2	1	180	# c3,c3,c3,c3

Improper Coeffs

   1	1.1	-1	2	# ca,ca,ca,c3
   2	1.1	-1	2	# ca,X,X,ha

Atoms

   1	1	1	0.066869	1.43229	-14.6757	-25.6946
   2	1	1	0.053974	1.95699	-14.1304	-24.5435
   3	1	1	-0.117882	2.40226	-14.886	-23.4393
   4	1	1	-0.084276	2.30864	-16.2712	-23.6971
   5	1	1	-0.157972	1.20356	-16.0452	-25.8978
   6	1	2	0.004935	1.44591	-18.0604	-21.812
   7	1	1	-0.170374	1.72061	-16.8032	-24.8333
   8	1	3	0.154019	1.65258	-18.21	-24.2722
   9	1	3	0.051574	2.37821	-17.6227	-22.9822
  10	1	3	0.007409	0.260354	-17.0811	-21.9674
  11	1	2	0.007138	0.334421	-18.8326	-23.7144
  12	1	1	-0.211215	-1.3743	-17.8484	-19.9341
  13	1	3	-0.023783	-0.49278	-17.5851	-23.2715
  14	1	2	-0.253384	0.870943	-19.3961	-22.3683
  15	1	1	-0.027691	-1.67381	-17.839	-22.3495
  16	1	1	-0.014027	-1.00688	-17.4347	-21.2188
  17	1	1	-0.211541	-2.83388	-18.622	-22.3234
  18	1	1	-0.003037	-3.33515	-18.894	-21.0293
  19	1	4	-0.005095	-2.60739	-18.5445	-19.8635
  20	1	2	0.078204	-4.60973	-19.6682	-20.6714
  21	1	3	-0.018845	-5.76816	-20.0426	-15.5158
  22	1	4	0.006574	-3.31045	-19.0932	-18.6931
  23	1	1	0.013723	-4.50054	-19.7252	-19.1394
  24	1	1	-0.173541	-5.46807	-20.2066	-18.2265
  25	1	1	-0.072264	-5.1011	-20.1202	-16.8784
  26	1	1	-0.030211	-3.93598	-19.5352	-16.4474
  27	1	3	0.009457	-4.42265	-19.3628	-15.0203
  28	1	1	-0.176921	-3.00956	-18.9505	-17.3148
  29	1	2	0.038799	-6.83096	-18.9545	-15.221
  30	1	2	0.012799	-6.69276	-17.7166	-16.1492
  31	1	2	-0.181835	-6.26389	-18.3673	-13.9121
  32	1	2	-0.004967	-5.37581	-17.051	-15.6702
  33	1	2	0.05243	-4.89994	-17.9775	-14.517
  34	1	2	-0.049676	-5.90038	-18.965	-21.1458
  35	1	2	-0.040251	-6.94595	-20.0769	-21.3727
  36	1	5	0.031595	-6.24938	-18.2108	-20.4282
  37	1	5	0.022689	-5.71546	-18.4542	-22.0997
  38	1	2	-0.037258	-6.18098	-21.4183	-21.3927
  39	1	2	0.002978	-4.68209	-21.075	-21.3011
  40	1	5	0.016721	-4.26326	-21.0543	-22.3151
  41	1	5	-0.000468	-4.12221	-21.8215	-20.7229
  42	1	5	0.056924	3.20737	-15.063	-21.4291
  43	1	5	0.029852	0.547449	-17.7096	-27.1266
  44	1	5	0.043077	1.90763	-18.114	-20.8199
  45	1	5	0.016056	2.23901	-18.9584	-24.8167
  46	1	5	0.041103	3.39194	-18.0085	-22.8303
  47	1	5	0.055216	0.522478	-16.0217	-21.8982
  48	1	5	0.041749	-0.178042	-19.5467	-24.3709
  49	1	6	0.155314	-0.741217	-17.687	-19.0688
  50	1	5	0.049935	-0.69467	-16.856	-24.0624
  51	1	5	0.098652	0.0800399	-19.8229	-21.7364
  52	1	5	0.045245	1.65053	-20.1561	-22.5148
  53	1	6	0.165622	-3.29381	-19.0097	-23.2268
  54	1	5	0.050235	-6.00552	-20.9979	-15.0346
  55	1	6	0.152615	-6.44623	-20.5587	-18.5352
  56	1	5	0.037653	-3.88053	-19.922	-14.2497
  57	1	6	0.137195	-2.16247	-18.382	-16.9526
  58	1	5	0.010736	-7.85826	-19.3319	-15.1416
  59	1	5	-0.004925	-7.53603	-17.0309	-15.9935
  60	1	5	0.039247	-6.17837	-19.1138	-13.1102
  61	1	5	0.062128	-6.83461	-17.5024	-13.5457
  62	1	5	0.003131	-5.58418	-16.044	-15.2856
  63	1	5	0.00404	-4.21441	-17.4879	-13.814
  64	1	5	0.021644	-7.68707	-20.078	-20.5632
  65	1	5	0.012129	-7.48253	-19.9146	-22.3163
  66	1	5	0.009331	-6.47719	-22.0269	-20.5288
  67	1	5	0.018167	-6.40077	-21.9948	-22.3004
  68	1	2	-0.164337	2.86849	-14.2858	-22.1249
  69	1	5	0.06697	3.70318	-13.5925	-22.2864
  70	1	5	0.100055	2.05701	-13.7293	-21.6392
  71	1	2	0.054914	0.442966	-16.6186	-27.0785
  72	1	5	0.026242	-0.626201	-16.3851	-27.003
  73	1	5	-0.001285	0.8144	-16.2027	-28.0232
  74	1	1	0.066869	-8.38658	-5.58809	-20.9683
  75	1	1	0.053974	-7.36205	-5.0698	-20.1949
  76	1	1	-0.117882	-6.19445	-4.5034	-20.7459
  77	1	1	-0.084276	-6.30339	-4.30053	-22.1344
  78	1	1	-0.157972	-8.43339	-5.509	-22.3715
  79	1	2	0.004935	-4.23551	-5.03369	-23.7806
  80	1	1	-0.170374	-7.37644	-4.73919	-22.895
  81	1	3	0.154019	-6.63319	-4.5693	-24.2131
  82	1	3	0.051574	-5.39727	-4.07883	-23.3431
  83	1	3	0.007409	-4.62187	-6.39256	-23.1329
  84	1	2	0.007138	-6.06108	-5.75268	-25.0461
  85	1	1	-0.211215	-2.62803	-8.03271	-24.0079
  86	1	3	-0.023783	-5.87437	-6.86354	-23.9773
  87	1	2	-0.253384	-4.60802	-5.24437	-25.2772
  88	1	1	-0.027691	-5.03176	-8.04336	-24.3988
  89	1	1	-0.014027	-3.93359	-7.64514	-23.6686
  90	1	1	-0.211541	-4.94232	-8.8298	-25.5507
  91	1	1	-0.003037	-3.66018	-9.33983	-25.8382
  92	1	4	-0.005095	-2.52555	-8.96923	-25.0712
  93	1	2	0.078204	-3.25855	-10.1568	-27.0729
  94	1	3	-0.018845	1.86957	-11.3088	-27.6743
  95	1	4	0.006574	-1.32535	-9.52064	-25.7283
  96	1	1	0.013723	-1.73741	-10.1916	-26.9115
  97	1	1	-0.173541	-0.818564	-10.8358	-27.7681
  98	1	1	-0.072264	0.517083	-10.7	-27.3839
  99	1	1	-0.030211	0.921481	-10.1057	-26.2164
 100	1	3	0.009457	2.35527	-10.6149	-26.3233
 101	1	1	-0.176921	0.0350094	-9.50647	-25.3122
 102	1	2	0.038799	2.09741	-12.8118	-27.405
 103	1	2	0.012799	1.10988	-13.3375	-26.3163
 104	1	2	-0.181835	3.42833	-12.7012	-26.6249
 105	1	2	-0.004967	1.67221	-12.6968	-24.9775
 106	1	2	0.05243	2.8566	-11.8247	-25.4842
 107	1	2	-0.049676	-3.91037	-11.5557	-27.0834
 108	1	2	-0.040251	-5.2357	-11.3912	-27.8487
 109	1	5	0.031595	-3.27172	-12.2619	-27.6291
 110	1	5	0.022689	-4.06376	-11.9537	-26.0718
 111	1	2	-0.037258	-5.04636	-10.1851	-28.7928
 112	1	2	0.002978	-3.72207	-9.49877	-28.3932
 113	1	5	0.016721	-3.84023	-8.41197	-28.2918
 114	1	5	-0.000468	-2.98141	-9.67616	-29.1835
 115	1	5	0.056924	-4.21719	-3.63959	-20.5054
 116	1	5	0.029852	-10.4436	-6.10127	-22.9232
 117	1	5	0.043077	-3.21682	-4.67792	-23.5817
 118	1	5	0.016056	-7.04335	-3.79815	-24.8746
 119	1	5	0.041103	-5.12024	-3.03414	-23.5207
 120	1	5	0.055216	-4.71631	-6.36533	-22.045
 121	1	5	0.041749	-6.62841	-6.03199	-25.9425
 122	1	6	0.155314	-1.753	-7.58508	-23.548
 123	1	5	0.049935	-6.7752	-7.16134	-23.4398
 124	1	5	0.098652	-3.96777	-5.98128	-25.781
 125	1	5	0.045245	-4.57968	-4.30739	-25.85
 126	1	6	0.165622	-5.78701	-8.96184	-26.2178
 127	1	5	0.050235	2.37618	-10.9642	-28.5827
 128	1	6	0.152615	-1.12232	-11.4093	-28.6383
 129	1	5	0.037653	3.13099	-9.85202	-26.4512
 130	1	6	0.137195	0.355462	-9.0874	-24.3639
 131	1	5	0.010736	2.14546	-13.4389	-28.3041
 132	1	5	-0.004925	0.0395047	-13.176	-26.4941
 133	1	5	0.039247	4.21352	-12.1884	-27.198
 134	1	5	0.062128	3.82779	-13.6671	-26.2889
 135	1	5	0.003131	0.916253	-12.1818	-24.371
 136	1	5	0.00404	3.58413	-11.5718	-24.7028
 137	1	5	0.021644	-5.49801	-12.3028	-28.4007
 138	1	5	0.012129	-6.04801	-11.1823	-27.141
 139	1	5	0.009331	-5.00034	-10.5154	-29.8385
 140	1	5	0.018167	-5.89026	-9.48976	-28.698
 141	1	2	-0.164337	-4.90859	-4.29821	-19.9653
 142	1	5	0.06697	-5.11132	-3.8429	-18.9881
 143	1	5	0.100055	-4.39808	-5.25368	-19.7928
 144	1	2	0.054914	-9.40805	-6.30518	-23.222
 145	1	5	0.026242	-9.30914	-6.05133	-24.2847
 146	1	5	-0.001285	-9.23328	-7.38286	-23.1162
 147	1	1	0.066869	3.31552	-14.5211	-17.1786
 148	1	1	0.053974	3.29122	-13.5691	-16.1837
 149	1	1	-0.117882	2.26891	-13.4284	-15.232
 150	1	1	-0.084276	1.31193	-14.449	-15.3667
 151	1	1	-0.157972	2.2945	-15.4677	-17.3893
 152	1	2	0.004935	-1.32505	-13.8711	-15.2595
 153	1	1	-0.170374	1.31574	-15.3988	-16.3758
 154	1	3	0.154019	-0.101017	-15.8804	-16.0663
 155	1	3	0.051574	-0.101245	-14.7742	-14.9202
 156	1	3	0.007409	-0.863508	-13.1274	-16.5489
 157	1	2	0.007138	-1.3606	-15.5155	-16.9119
 158	1	1	-0.211215	-3.04847	-11.6343	-17.0425
 159	1	3	-0.023783	-0.900516	-14.246	-17.6664
 160	1	2	-0.253384	-2.29911	-14.9529	-15.8046
 161	1	1	-0.027691	-2.00242	-13.4326	-18.3148
 162	1	1	-0.014027	-1.95239	-12.4443	-17.3527
 163	1	1	-0.211541	-3.17346	-13.7411	-19.0238
 164	1	1	-0.003037	-4.25691	-12.8589	-18.8181
 165	1	4	-0.005095	-4.18406	-11.8184	-17.8644
 166	1	2	0.078204	-5.6672	-12.9512	-19.4183
 167	1	3	-0.018845	-8.6721	-8.7302	-18.6552
 168	1	4	0.006574	-5.48121	-11.1406	-17.8103
 169	1	1	0.013723	-6.36277	-11.7657	-18.7222
 170	1	1	-0.173541	-7.61456	-11.1869	-19.038
 171	1	1	-0.072264	-7.96683	-10.0383	-18.3065
 172	1	1	-0.030211	-7.08352	-9.42507	-17.4338
 173	1	3	0.009457	-7.62356	-8.03725	-17.6948
 174	1	1	-0.176921	-5.79506	-9.90996	-17.1959
 175	1	2	0.038799	-8.38028	-8.05892	-20.0191
 176	1	2	0.012799	-8.84165	-6.56805	-19.9005
 177	1	2	-0.181835	-6.8391	-7.92924	-19.9853
 178	1	2	-0.004967	-7.71324	-5.92748	-18.9913
 179	1	2	0.05243	-6.80577	-7.13597	-18.6556
 180	1	2	-0.049676	-5.68168	-12.8321	-20.9643
 181	1	2	-0.040251	-6.63887	-13.923	-21.4924
 182	1	5	0.031595	-6.00928	-11.8342	-21.2832
 183	1	5	0.022689	-4.67872	-12.9911	-21.3814
 184	1	2	-0.037258	-7.34135	-14.5243	-20.2623
 185	1	2	0.002978	-6.37028	-14.2896	-19.0963
 186	1	5	0.016721	-5.63849	-15.1076	-19.0753
 187	1	5	-0.000468	-6.8842	-14.2739	-18.1264
 188	1	5	0.056924	1.16592	-12.1937	-13.8274
 189	1	5	0.029852	3.20789	-16.5223	-19.0504
 190	1	5	0.043077	-1.70374	-13.2413	-14.4448
 191	1	5	0.016056	-0.169797	-16.9085	-15.6939
 192	1	5	0.041103	-0.18619	-15.1812	-13.9068
 193	1	5	0.055216	0.0470438	-12.5303	-16.4453
 194	1	5	0.041749	-1.78355	-16.303	-17.5403
 195	1	6	0.155314	-3.05662	-10.971	-16.1839
 196	1	5	0.049935	-0.017565	-14.3745	-18.2987
 197	1	5	0.098652	-3.23293	-14.5318	-16.2012
 198	1	5	0.045245	-2.5506	-15.7083	-15.048
 199	1	6	0.165622	-3.26088	-14.6389	-19.6292
 200	1	5	0.050235	-9.72493	-8.66115	-18.3602
 201	1	6	0.152615	-8.21349	-11.5374	-19.8724
 202	1	5	0.037653	-8.02694	-7.50305	-16.8274
 203	1	6	0.137195	-5.04206	-9.31745	-16.6865
 204	1	5	0.010736	-8.77605	-8.58965	-20.8938
 205	1	5	-0.004925	-9.86246	-6.40786	-19.5299
 206	1	5	0.039247	-6.42916	-7.38612	-20.8431
 207	1	5	0.062128	-6.31117	-8.88899	-19.9367
 208	1	5	0.003131	-8.09916	-5.36686	-18.1299
 209	1	5	0.00404	-5.8022	-6.86428	-18.3055
 210	1	5	0.021644	-7.36199	-13.5181	-22.2118
 211	1	5	0.012129	-6.05684	-14.7039	-21.9993
 212	1	5	0.009331	-8.28037	-13.9887	-20.0734
 213	1	5	0.018167	-7.57442	-15.5881	-20.3974
 214	1	2	-0.164337	2.18184	-12.293	-14.2293
 215	1	5	0.06697	2.86245	-12.4659	-13.3865
 216	1	5	0.100055	2.45428	-11.3368	-14.6928
 217	1	2	0.054914	2.22148	-16.3929	-18.5879
 218	1	5	0.026242	1.85377	-17.3844	-18.2963
 219	1	5	-0.001285	1.54244	-15.9905	-19.3493
 220	1	1	0.066869	13.1936	-18.4141	-5.37774
 221	1	1	0.053974	12.3774	-17.3783	-4.97796
 222	1	1	-0.117882	11.0278	-17.2411	-5.34174
 223	1	1	-0.084276	10.5839	-18.3605	-6.06796
 224	1	1	-0.157972	12.7806	-19.4762	-6.20425
 225	1	2	0.004935	9.05315	-18.0824	-8.28281
 226	1	1	-0.170374	11.3978	-19.4071	-6.47007
 227	1	3	0.154019	10.3411	-20.0095	-7.39302
 228	1	3	0.051574	9.42065	-18.7902	-6.94395
 229	1	3	0.007409	10.4028	-17.439	-8.72155
 230	1	2	0.007138	10.3601	-19.8991	-8.94968
 231	1	1	-0.211215	9.63028	-16.2569	-11.0154
 232	1	3	-0.023783	11.2762	-18.6718	-9.19189
 233	1	2	-0.253384	8.9353	-19.3266	-9.20974
 234	1	1	-0.027691	11.2214	-18.0549	-10.5799
 235	1	1	-0.014027	10.4822	-16.9669	-10.1616
 236	1	1	-0.211541	11.1343	-18.5653	-11.8844
 237	1	1	-0.003037	10.3709	-17.7999	-12.795
 238	1	4	-0.005095	9.66129	-16.6496	-12.3749
 239	1	2	0.078204	10.0124	-18.1649	-14.2438
 240	1	3	-0.018845	5.91984	-15.5161	-16.3473
 241	1	4	0.006574	8.81759	-16.1859	-13.4851
 242	1	1	0.013723	8.97269	-17.0808	-14.5764
 243	1	1	-0.173541	8.12509	-17.0143	-15.7097
 244	1	1	-0.072264	7.23972	-15.93	-15.7144
 245	1	1	-0.030211	7.14163	-15.0245	-14.6882
 246	1	3	0.009457	5.82932	-14.4486	-15.1734
 247	1	1	-0.176921	7.85772	-15.1427	-13.4953
 248	1	2	0.038799	5.94941	-14.635	-17.6198
 249	1	2	0.012799	4.56341	-13.9508	-17.8382
 250	1	2	-0.181835	6.76614	-13.4081	-17.1523
 251	1	2	-0.004967	4.53075	-12.859	-16.6793
 252	1	2	0.05243	5.87196	-13.0942	-15.9312
 253	1	2	-0.049676	11.2265	-18.116	-15.1926
 254	1	2	-0.040251	10.8667	-19.0327	-16.3752
 255	1	5	0.031595	11.4635	-17.0943	-15.5169
 256	1	5	0.022689	12.1101	-18.5219	-14.6828
 257	1	2	-0.037258	9.84728	-20.0581	-15.835
 258	1	2	0.002978	9.44368	-19.5929	-14.4185
 259	1	5	0.016721	9.89256	-20.2744	-13.6856
 260	1	5	-0.000468	8.3561	-19.6252	-14.2728
 261	1	5	0.056924	10.4318	-15.5898	-4.07069
 262	1	5	0.029852	14.5053	-20.0449	-7.38485
 263	1	5	0.043077	8.18379	-17.4137	-8.25373
 264	1	5	0.016056	9.96405	-20.9899	-7.0817
 265	1	5	0.041103	8.51753	-19.0895	-6.40123
 266	1	5	0.055216	10.8425	-16.7402	-8.00389
 267	1	5	0.041749	10.6232	-20.8135	-9.4958
 268	1	6	0.155314	8.9193	-15.5265	-10.6436
 269	1	5	0.049935	12.289	-18.7672	-8.78922
 270	1	5	0.098652	8.75883	-19.064	-10.2615
 271	1	5	0.045245	8.14376	-20.0156	-8.88498
 272	1	6	0.165622	11.5472	-19.5339	-12.1472
 273	1	5	0.050235	5.15824	-16.3025	-16.3891
 274	1	6	0.152615	8.11219	-17.7748	-16.483
 275	1	5	0.037653	5.00282	-14.5233	-14.4585
 276	1	6	0.137195	7.64931	-14.5288	-12.6252
 277	1	5	0.010736	6.34639	-15.1301	-18.5148
 278	1	5	-0.004925	4.40878	-13.5108	-18.8321
 279	1	5	0.039247	6.77627	-12.5963	-17.8936
 280	1	5	0.062128	7.80436	-13.6455	-16.8861
 281	1	5	0.003131	4.37215	-11.8412	-17.0591
 282	1	5	0.00404	6.20237	-12.2368	-15.3316
 283	1	5	0.021644	10.4056	-18.4394	-17.1754
 284	1	5	0.012129	11.757	-19.5224	-16.7896
 285	1	5	0.009331	8.97074	-20.1056	-16.4937
 286	1	5	0.018167	10.2899	-21.0616	-15.7938
 287	1	2	-0.164337	10.1824	-16.0157	-5.05065
 288	1	5	0.06697	10.3456	-15.2392	-5.80802
 289	1	5	0.100055	9.11407	-16.2648	-5.04559
 290	1	2	0.054914	13.7187	-20.5183	-6.78434
 291	1	5	0.026242	14.2028	-21.0947	-5.9864
 292	1	5	-0.001285	13.1806	-21.2231	-7.43049
 293	1	1	0.066869	17.0468	-12.9345	8.59906
 294	1	1	0.053974	15.7831	-12.4272	8.3593
 295	1	1	-0.117882	14.6304	-13.2237	8.25031
 296	1	1	-0.084276	14.8746	-14.5616	8.60823
 297	1	1	-0.157972	17.3152	-14.3022	8.79539
 298	1	2	0.004935	13.9392	-16.4857	6.93382
 299	1	1	-0.170374	16.1364	-15.0728	8.87557
 300	1	3	0.154019	15.6942	-16.5254	8.69126
 301	1	3	0.051574	14.2598	-15.9296	8.35722
 302	1	3	0.007409	14.9295	-15.7092	6.01581
 303	1	2	0.007138	16.0233	-17.4087	7.44569
 304	1	1	-0.211215	14.4021	-16.5742	3.47315
 305	1	3	-0.023783	16.3391	-16.3549	6.35607
 306	1	2	-0.253384	14.5964	-17.8913	7.05103
 307	1	1	-0.027691	16.3475	-16.8398	4.91963
 308	1	1	-0.014027	15.1425	-16.2593	4.61695
 309	1	1	-0.211541	16.9255	-17.8568	4.15091
 310	1	1	-0.003037	16.2573	-18.1314	2.93447
 311	1	4	-0.005095	15.0405	-17.485	2.59229
 312	1	2	0.078204	16.6429	-19.1692	1.86813
 313	1	3	-0.018845	13.9904	-19.0045	-2.64362
 314	1	4	0.006574	14.5776	-18.0147	1.30059
 315	1	1	0.013723	15.4905	-19.0068	0.868081
 316	1	1	-0.173541	15.3875	-19.5976	-0.410713
 317	1	1	-0.072264	14.2705	-19.2159	-1.16614
 318	1	1	-0.030211	13.4122	-18.2117	-0.766386
 319	1	3	0.009457	13.0229	-17.8377	-2.18618
 320	1	1	-0.176921	13.5572	-17.5279	0.447241
 321	1	2	0.038799	15.0638	-18.2693	-3.48478
 322	1	2	0.012799	14.455	-17.7698	-4.82802
 323	1	2	-0.181835	15.1884	-16.9117	-2.75376
 324	1	2	-0.004967	13.506	-16.5802	-4.36045
 325	1	2	0.05243	13.68	-16.5774	-2.81382
 326	1	2	-0.049676	18.0347	-18.885	1.26201
 327	1	2	-0.040251	19.0403	-19.7007	2.09689
 328	1	5	0.031595	18.0738	-19.2373	0.223865
 329	1	5	0.022689	18.2758	-17.814	1.25833
 330	1	2	-0.037258	18.2357	-20.8123	2.80435
 331	1	2	0.002978	16.7521	-20.5981	2.44094
 332	1	5	0.016721	16.0912	-20.7506	3.3042
 333	1	5	-0.000468	16.4685	-21.3284	1.67182
 334	1	5	0.056924	12.5576	-13.5172	7.66822
 335	1	5	0.029852	18.7019	-15.9683	8.94684
 336	1	5	0.043077	12.8841	-16.4665	6.63337
 337	1	5	0.016056	15.72	-17.1298	9.60475
 338	1	5	0.041103	13.4817	-16.2225	9.07037
 339	1	5	0.055216	14.8414	-14.621	6.04627
 340	1	5	0.041749	16.7775	-18.1917	7.59312
 341	1	6	0.155314	13.4065	-16.1822	3.29164
 342	1	5	0.049935	17.1682	-15.6836	6.58634
 343	1	5	0.098652	14.5766	-18.4546	6.10798
 344	1	5	0.045245	14.1325	-18.5049	7.83535
 345	1	6	0.165622	17.7999	-18.4058	4.4826
 346	1	5	0.050235	13.533	-19.8555	-3.16011
 347	1	6	0.152615	16.164	-20.2371	-0.818441
 348	1	5	0.037653	11.9598	-17.9492	-2.42578
 349	1	6	0.137195	12.9933	-16.6296	0.676919
 350	1	5	0.010736	16.0108	-18.8111	-3.60095
 351	1	5	-0.004925	15.1854	-17.4505	-5.58301
 352	1	5	0.039247	15.8083	-16.1879	-3.30166
 353	1	5	0.062128	15.58	-16.9931	-1.73181
 354	1	5	0.003131	13.7407	-15.6321	-4.86197
 355	1	5	0.00404	13.4058	-15.6272	-2.33881
 356	1	5	0.021644	19.8309	-20.12	1.46139
 357	1	5	0.012129	19.5186	-19.0547	2.84416
 358	1	5	0.009331	18.5717	-21.8075	2.48598
 359	1	5	0.018167	18.376	-20.7433	3.89062
 360	1	2	-0.164337	13.327	-12.7355	7.64366
 361	1	5	0.06697	12.9412	-11.8683	8.19383
 362	1	5	0.100055	13.4688	-12.4356	6.59796
 363	1	2	0.054914	18.7161	-14.8868	8.76329
 364	1	5	0.026242	19.1907	-14.7154	7.78918
 365	1	5	-0.001285	19.348	-14.4239	9.53138
 366	1	1	0.066869	17.081	-0.351842	6.21636
 367	1	1	0.053974	15.7548	-0.715706	6.3283
 368	1	1	-0.117882	14.9714	-0.516043	7.47573
 369	1	1	-0.084276	15.6543	0.234312	8.45042
 370	1	1	-0.157972	17.8109	0.259532	7.25356
 371	1	2	0.004935	15.62	-0.729154	10.9851
 372	1	1	-0.170374	16.9903	0.598463	8.35105
 373	1	3	0.154019	17.1263	0.88483	9.84803
 374	1	3	0.051574	15.6033	0.443593	9.95573
 375	1	3	0.007409	16.3243	-1.87094	10.196
 376	1	2	0.007138	17.8499	-0.0498847	10.8718
 377	1	1	-0.211215	16.4509	-4.40348	11.11
 378	1	3	-0.023783	17.8398	-1.41691	10.1444
 379	1	2	-0.253384	16.7353	-0.223832	11.9442
 380	1	1	-0.027691	18.1286	-2.64851	10.9842
 381	1	1	-0.014027	16.8134	-3.05651	11.003
 382	1	1	-0.211541	19.2086	-3.52566	11.1456
 383	1	1	-0.003037	18.8628	-4.86688	11.4294
 384	1	4	-0.005095	17.5141	-5.29966	11.3824
 385	1	2	0.078204	19.8169	-6.06587	11.5575
 386	1	3	-0.018845	17.8263	-10.6889	10.2973
 387	1	4	0.006574	17.4958	-6.77007	11.4055
 388	1	1	0.013723	18.8263	-7.2376	11.5142
 389	1	1	-0.173541	19.1402	-8.60577	11.3607
 390	1	1	-0.072264	18.0516	-9.47264	11.1806
 391	1	1	-0.030211	16.7589	-9.00686	11.0149
 392	1	3	0.009457	16.3603	-10.1406	10.0859
 393	1	1	-0.176921	16.4368	-7.64493	11.0655
 394	1	2	0.038799	18.4238	-10.6581	8.86977
 395	1	2	0.012799	17.7538	-11.7409	7.97576
 396	1	2	-0.181835	17.7663	-9.39941	8.25545
 397	1	2	-0.004967	16.3016	-11.1511	7.73153
 398	1	2	0.05243	16.3151	-9.83611	8.56169
 399	1	2	-0.049676	20.874	-6.08775	10.4241
 400	1	2	-0.040251	22.1806	-5.51534	11.0172
 401	1	5	0.031595	21.0596	-7.1136	10.0839
 402	1	5	0.022689	20.5438	-5.51369	9.54851
 403	1	2	-0.037258	21.919	-5.24882	12.5133
 404	1	2	0.002978	20.6361	-6.0209	12.8626
 405	1	5	0.016721	20.0841	-5.55528	13.6893
 406	1	5	-0.000468	20.9056	-7.04099	13.1665
 407	1	5	0.056924	13.7086	-2.26599	7.67985
 408	1	5	0.029852	19.8102	-0.573126	7.15371
 409	1	5	0.043077	14.6574	-0.98142	11.4474
 410	1	5	0.016056	17.3011	1.93677	10.0995
 411	1	5	0.041103	14.9321	1.24262	10.2888
 412	1	5	0.055216	15.8195	-2.16951	9.27514
 413	1	5	0.041749	18.8254	0.295133	11.2365
 414	1	6	0.155314	15.4446	-4.74889	10.8968
 415	1	5	0.049935	18.3671	-1.42018	9.18808
 416	1	5	0.098652	16.9962	-0.954161	12.7221
 417	1	5	0.045245	16.4708	0.72629	12.4281
 418	1	6	0.165622	20.2321	-3.21469	10.9637
 419	1	5	0.050235	17.9288	-11.6593	10.7954
 420	1	6	0.152615	20.1641	-8.95196	11.2612
 421	1	5	0.037653	15.5369	-10.7721	10.4369
 422	1	6	0.137195	15.4716	-7.27296	10.7383
 423	1	5	0.010736	19.5202	-10.6642	8.82696
 424	1	5	-0.004925	18.278	-11.9529	7.03456
 425	1	5	0.039247	17.9641	-9.29721	7.17879
 426	1	5	0.062128	18.0568	-8.46138	8.74422
 427	1	5	0.003131	16.0718	-11.0275	6.66492
 428	1	5	0.00404	15.5491	-9.11212	8.25681
 429	1	5	0.021644	22.9937	-6.24305	10.8978
 430	1	5	0.012129	22.4781	-4.59145	10.5049
 431	1	5	0.009331	22.7647	-5.56084	13.1392
 432	1	5	0.018167	21.7569	-4.17534	12.674
 433	1	2	-0.164337	13.6203	-1.17261	7.69518
 434	1	5	0.06697	13.1867	-0.882535	8.66017
 435	1	5	0.100055	12.9134	-0.880661	6.90862
 436	1	2	0.054914	19.3219	0.405101	7.24245
 437	1	5	0.026242	19.6466	1.02304	6.39615
 438	1	5	-0.001285	19.6832	0.880447	8.163
 439	1	1	0.066869	8.16595	4.6997	-7.03118
 440	1	1	0.053974	7.3087	4.46258	-5.9731
 441	1	1	-0.117882	7.71596	4.41088	-4.63041
 442	1	1	-0.084276	9.11095	4.46115	-4.48724
 443	1	1	-0.157972	9.54703	4.92971	-6.86514
 444	1	2	0.004935	10.8751	4.17551	-2.47931
 445	1	1	-0.170374	9.98324	4.72024	-5.54125
 446	1	3	0.154019	11.0225	5.38358	-4.63705
 447	1	3	0.051574	10.0347	5.05728	-3.44481
 448	1	3	0.007409	11.0328	2.84534	-3.27685
 449	1	2	0.007138	12.3585	4.70963	-4.19676
 450	1	1	-0.211215	12.4838	1.55201	-1.4593
 451	1	3	-0.023783	12.0598	3.20442	-4.42172
 452	1	2	-0.253384	12.2582	4.86478	-2.64984
 453	1	1	-0.027691	13.0081	2.22739	-3.74373
 454	1	1	-0.014027	12.0936	1.89591	-2.75776
 455	1	1	-0.211541	14.391	2.26242	-3.49888
 456	1	1	-0.003037	14.8148	1.80802	-2.22976
 457	1	4	-0.005095	13.8744	1.45377	-1.23568
 458	1	2	0.078204	16.2349	1.86971	-1.63639
 459	1	3	-0.018845	16.716	0.7214	3.5274
 460	1	4	0.006574	14.5734	1.31657	0.0453829
 461	1	1	0.013723	15.949	1.59152	-0.153157
 462	1	1	-0.173541	16.8785	1.51697	0.912019
 463	1	1	-0.072264	16.3099	1.28069	2.1724
 464	1	1	-0.030211	14.9796	0.984282	2.34982
 465	1	3	0.009457	15.1815	0.355582	3.7108
 466	1	1	-0.176921	14.0564	0.929351	1.30453
 467	1	2	0.038799	17.4102	-0.660193	3.57659
 468	1	2	0.012799	17.3326	-1.25498	5.016
 469	1	2	-0.181835	16.3801	-1.57519	2.87272
 470	1	2	-0.004967	15.801	-1.65711	5.14536
 471	1	2	0.05243	15.1968	-1.19457	3.79174
 472	1	2	-0.049676	17.1666	0.826542	-2.28528
 473	1	2	-0.040251	17.7694	1.53351	-3.51069
 474	1	5	0.031595	17.975	0.564622	-1.59056
 475	1	5	0.022689	16.6388	-0.0972212	-2.55584
 476	1	2	-0.037258	17.8165	3.03347	-3.15174
 477	1	2	0.002978	16.9321	3.22538	-1.89856
 478	1	5	0.016721	16.2092	4.0411	-2.02994
 479	1	5	-0.000468	17.5755	3.48946	-1.04935
 480	1	5	0.056924	6.86808	5.52683	-2.97422
 481	1	5	0.029852	11.2774	4.86561	-8.16446
 482	1	5	0.043077	10.4974	4.08499	-1.45306
 483	1	5	0.016056	11.1854	6.44944	-4.83187
 484	1	5	0.041103	9.63305	5.92691	-2.9134
 485	1	5	0.055216	10.0946	2.35484	-3.55856
 486	1	5	0.041749	13.2722	5.09712	-4.6643
 487	1	6	0.155314	11.7732	1.51642	-0.640082
 488	1	5	0.049935	11.7968	2.93978	-5.45204
 489	1	5	0.098652	13.0639	4.35399	-2.10657
 490	1	5	0.045245	12.2405	5.91724	-2.33547
 491	1	6	0.165622	15.0742	2.73626	-4.19563
 492	1	5	0.050235	17.1383	1.44923	4.22895
 493	1	6	0.152615	17.95	1.60787	0.763813
 494	1	5	0.037653	14.645	0.840916	4.53331
 495	1	6	0.137195	13.0355	0.587324	1.44043
 496	1	5	0.010736	18.4154	-0.687598	3.13779
 497	1	5	-0.004925	18.0021	-2.1045	5.20464
 498	1	5	0.039247	16.6436	-2.64065	2.93571
 499	1	5	0.062128	16.2141	-1.32413	1.81704
 500	1	5	0.003131	15.6616	-2.71969	5.38436
 501	1	5	0.00404	14.247	-1.68247	3.53931
 502	1	5	0.021644	18.7617	1.13856	-3.76258
 503	1	5	0.012129	17.1158	1.38243	-4.37952
 504	1	5	0.009331	18.8471	3.34262	-2.93478
 505	1	5	0.018167	17.4526	3.64176	-3.98972
 506	1	2	-0.164337	6.76027	4.54814	-3.45773
 507	1	5	0.06697	5.71593	4.44432	-3.77777
 508	1	5	0.100055	6.95655	3.77619	-2.70347
 509	1	2	0.054914	10.4354	5.53198	-7.94032
 510	1	5	0.026242	9.88123	5.69591	-8.87296
 511	1	5	-0.001285	10.8469	6.49644	-7.61816
 512	1	1	0.066869	-1.53446	16.5678	-3.85651
 513	1	1	0.053974	-1.24245	15.9506	-2.65447
 514	1	1	-0.117882	0.0342273	15.9009	-2.07847
 515	1	1	-0.084276	0.953532	16.7038	-2.77071
 516	1	1	-0.157972	-0.563411	17.2271	-4.63793
 517	1	2	0.004935	3.28378	15.5048	-3.39878
 518	1	1	-0.170374	0.681881	17.3347	-3.97734
 519	1	3	0.154019	2.16656	17.5279	-4.31916
 520	1	3	0.051574	2.45419	16.7515	-2.96414
 521	1	3	0.007409	2.25713	14.6488	-4.20986
 522	1	2	0.007138	2.97707	16.7073	-5.37611
 523	1	1	-0.211215	3.63476	12.4086	-4.89908
 524	1	3	-0.023783	2.09961	15.4516	-5.56706
 525	1	2	-0.253384	4.15142	16.168	-4.50588
 526	1	1	-0.027691	2.74914	14.2529	-6.2347
 527	1	1	-0.014027	2.82579	13.5349	-5.06523
 528	1	1	-0.211541	3.59328	14.003	-7.32612
 529	1	1	-0.003037	4.36758	12.8239	-7.22512
 530	1	4	-0.005095	4.34028	12.015	-6.06168
 531	1	2	0.078204	5.41687	12.3092	-8.22273
 532	1	3	-0.018845	7.51553	7.57294	-7.2201
 533	1	4	0.006574	5.27573	10.9006	-6.24406
 534	1	1	0.013723	5.9378	11.0669	-7.48585
 535	1	1	-0.173541	6.84271	10.0994	-7.97859
 536	1	1	-0.072264	7.09258	9.02642	-7.1121
 537	1	1	-0.030211	6.3712	8.82056	-5.95888
 538	1	3	0.009457	6.63803	7.32784	-5.92491
 539	1	1	-0.176921	5.4057	9.71195	-5.48504
 540	1	2	0.038799	6.83672	6.68257	-8.2843
 541	1	2	0.012799	7.04939	5.16988	-7.96036
 542	1	2	-0.181835	5.34154	6.81458	-7.90935
 543	1	2	-0.004967	6.08478	4.9398	-6.72298
 544	1	2	0.05243	5.52432	6.36694	-6.44125
 545	1	2	-0.049676	4.79325	11.9845	-9.60623
 546	1	2	-0.040251	5.6079	12.7675	-10.653
 547	1	5	0.031595	4.8036	10.9088	-9.82435
 548	1	5	0.022689	3.74625	12.3127	-9.639
 549	1	2	-0.037258	6.26314	13.9222	-9.88064
 550	1	2	0.002978	6.53794	13.346	-8.48304
 551	1	5	0.016721	6.57367	14.1306	-7.71601
 552	1	5	-0.000468	7.51626	12.8477	-8.49351
 553	1	5	0.056924	-0.243337	15.0411	-0.10821
 554	1	5	0.029852	0.083104	18.1245	-6.5082
 555	1	5	0.043077	3.82803	14.9838	-2.6011
 556	1	5	0.016056	2.50271	18.5706	-4.30979
 557	1	5	0.041103	2.99916	17.3422	-2.2198
 558	1	5	0.055216	1.35081	14.3587	-3.67519
 559	1	5	0.041749	3.25828	17.2417	-6.29204
 560	1	6	0.155314	3.76084	11.9119	-3.94236
 561	1	5	0.049935	1.08959	15.6493	-5.92946
 562	1	5	0.098652	4.79107	15.4496	-5.03632
 563	1	5	0.045245	4.78416	16.9758	-4.11355
 564	1	6	0.165622	3.68387	14.6929	-8.15891
 565	1	5	0.050235	8.59096	7.41117	-7.12479
 566	1	6	0.152615	7.26341	10.1493	-8.9782
 567	1	5	0.037653	7.16011	6.97809	-5.0311
 568	1	6	0.137195	4.75636	9.48122	-4.64651
 569	1	5	0.010736	7.06796	6.9505	-9.32277
 570	1	5	-0.004925	6.82428	4.4871	-8.79007
 571	1	5	0.039247	4.69638	6.13725	-8.48694
 572	1	5	0.062128	4.94588	7.8333	-8.01098
 573	1	5	0.003131	5.32621	4.16995	-6.9166
 574	1	5	0.00404	4.60103	6.36921	-5.8486
 575	1	5	0.021644	6.38831	12.1179	-11.0703
 576	1	5	0.012129	4.9815	13.1274	-11.4791
 577	1	5	0.009331	7.17882	14.2801	-10.3682
 578	1	5	0.018167	5.56109	14.7623	-9.8037
 579	1	2	-0.164337	0.41948	14.9309	-0.975317
 580	1	5	0.06697	0.348086	13.8931	-1.32397
 581	1	5	0.100055	1.44822	15.1013	-0.634688
 582	1	2	0.054914	-0.800304	17.6335	-6.08164
 583	1	5	0.026242	-1.03418	16.7594	-6.702
 584	1	5	-0.001285	-1.64212	18.333	-6.15529
 585	1	1	0.066869	-13.1282	13.2294	5.88013
 586	1	1	0.053974	-11.9633	13.3604	6.60548
 587	1	1	-0.117882	-11.1666	14.5156	6.61288
 588	1	1	-0.084276	-11.8088	15.5846	5.96421
 589	1	1	-0.157972	-13.6782	14.2493	5.07623
 590	1	2	0.004935	-10.4071	17.1871	4.31228
 591	1	1	-0.170374	-12.9823	15.4663	5.23652
 592	1	3	0.154019	-12.8497	16.8531	4.59725
 593	1	3	0.051574	-11.4832	16.9543	5.40583
 594	1	3	0.007409	-10.3826	15.8238	3.55874
 595	1	2	0.007138	-12.4162	17.1438	3.12194
 596	1	1	-0.211215	-8.42168	16.2926	1.78709
 597	1	3	-0.023783	-11.7166	15.8286	2.70558
 598	1	2	-0.253384	-11.2175	18.1107	3.35771
 599	1	1	-0.027691	-10.8078	15.8863	1.48121
 600	1	1	-0.014027	-9.65745	15.8327	2.23663
 601	1	1	-0.211541	-10.8378	16.4649	0.198371
 602	1	1	-0.003037	-9.57511	16.8223	-0.338634
 603	1	4	-0.005095	-8.3999	16.7152	0.441194
 604	1	2	0.078204	-9.24428	17.4485	-1.71091
 605	1	3	-0.018845	-4.16306	17.5512	-2.95736
 606	1	4	0.006574	-7.26497	17.2159	-0.328567
 607	1	1	0.013723	-7.72033	17.6478	-1.59323
 608	1	1	-0.173541	-6.80357	18.0028	-2.61158
 609	1	1	-0.072264	-5.44211	17.9922	-2.25169
 610	1	1	-0.030211	-5.01547	17.518	-1.02293
 611	1	3	0.009457	-3.71925	16.9595	-1.56233
 612	1	1	-0.176921	-5.8938	17.0686	-0.0371435
 613	1	2	0.038799	-4.21917	16.2979	-3.86027
 614	1	2	0.012799	-2.78571	15.7246	-4.09551
 615	1	2	-0.181835	-4.76632	15.2179	-2.89514
 616	1	2	-0.004967	-2.45157	15.0537	-2.69763
 617	1	2	0.05243	-3.67422	15.4246	-1.82211
 618	1	2	-0.049676	-9.66767	16.5262	-2.87558
 619	1	2	-0.040251	-11.0846	16.9725	-3.29081
 620	1	5	0.031595	-8.99226	16.6612	-3.72937
 621	1	5	0.022689	-9.63832	15.4653	-2.59483
 622	1	2	-0.037258	-11.3092	18.3768	-2.69018
 623	1	2	0.002978	-10.0024	18.7666	-1.9726
 624	1	5	0.016721	-10.1884	19.3332	-1.05113
 625	1	5	-0.000468	-9.41066	19.4033	-2.64371
 626	1	5	0.056924	-9.58462	13.8107	7.908
 627	1	5	0.029852	-14.5777	13.2662	3.36948