pySIMM System Object

1034 atoms
1210 bonds
2520 angles
4682 dihedrals
84 impropers

6 atom types
11 bond types
24 angle types
21 dihedral types
2 improper types

-139.482902 139.482902 xlo xhi
-139.482902 139.482902 ylo yhi
-139.482902 139.482902 zlo zhi

Masses

   1	12.01	# ca
   2	12.01	# c3
   3	12.01	# cy
   4	12.01	# cp
   5	1.008	# hc
   6	1.008	# ha

Pair Coeffs

   1	0.086	3.3996695084235347	# ca
   2	0.1094	3.3996695084235347	# c3
   3	0.086	3.3996695084235347	# cy
   4	0.086	3.3996695084235347	# cp
   5	0.0157	2.649532787749369	# hc
   6	0.015	2.59964245953351	# ha

Bond Coeffs

   1	321.2	1.5154	# ca,cy
   2	461.1	1.3984	# ca,ca
   3	305.9	1.5319	# c3,cy
   4	351.4	1.4854	# cp,cp
   5	345.8	1.086	# ca,ha
   6	300.9	1.5375	# c3,c3
   7	450.2	1.4058	# ca,cp
   8	285.0	1.5562	# cy,cy
   9	321.0	1.5156	# c3,ca
  10	330.6	1.0969	# c3,hc
  11	333.3	1.0949	# cy,hc

Angle Coeffs

   1	67.9	96.03	# cy,c3,cy
   2	61.4	116.81	# ca,cy,cy
   3	63.15	112.07	# c3,c3,ca
   4	45.97	114.53	# ca,cy,hc
   5	66.26	120.69	# ca,ca,cp
   6	46.34	109.8	# c3,c3,hc
   7	48.18	119.88	# ca,ca,ha
   8	62.73	112.39	# c3,c3,cy
   9	46.29	110.75	# cy,c3,hc
  10	44.83	114.79	# cy,cy,hc
  11	46.8	110.47	# ca,c3,hc
  12	66.72	118.38	# ca,cp,ca
  13	62.86	111.51	# c3,c3,c3
  14	46.43	110.14	# c3,cy,hc
  15	60.66	118.7	# c3,cy,cy
  16	63.43	120.63	# c3,ca,cp
  17	63.56	112.24	# ca,c3,ca
  18	64.05	121.11	# ca,cp,cp
  19	66.62	120.02	# ca,ca,ca
  20	39.4	107.58	# hc,c3,hc
  21	47.98	119.86	# cp,ca,ha
  22	63.53	120.77	# c3,ca,ca
  23	63.51	120.86	# ca,ca,cy
  24	62.8	113.57	# c3,cy,ca

Dihedral Coeffs

   1	1	0.16	3	0	# hc,c3,c3,c3
   2	1	0.0	2	0.0	# ca,ca,cy,cy
   3	1	1.0	2	180	# X,cp,cp,X
   4	1	0.0	2	0.0	# ca,ca,cy,c3
   5	3	0.38	3	180.0	0.0	2	0.0	1.15	1	0.0	# ca,ca,cy,hc
   6	1	0.0	2	0	# X,c3,ca,X
   7	1	0.16	3	0.0	# cy,c3,cy,ca
   8	1	0.15555555555555556	3	0	# X,c3,c3,X
   9	1	0.16	3	0.0	# c3,c3,cy,ca
  10	1	0.16	3	0.0	# hc,c3,cy,ca
  11	3	0.18	3	0.0	0.25	2	180.0	0.2	1	180.0	# cy,c3,cy,cy
  12	1	0.15	3	0	# hc,c3,c3,hc
  13	3	0.18	3	0.0	0.25	2	180.0	0.2	1	180.0	# c3,c3,cy,cy
  14	1	0.16	3	0.0	# hc,c3,cy,cy
  15	1	0.16	3	0.0	# cy,c3,cy,hc
  16	1	0.16	3	0.0	# c3,c3,cy,hc
  17	1	0.15	3	0.0	# hc,c3,cy,hc
  18	1	3.625	2	180	# X,ca,ca,X
  19	1	0.15555555555555556	3	0	# X,cy,cy,X
  20	1	3.625	2	180	# X,ca,cp,X
  21	3	0.18	3	0	0.25	2	180	0.2	1	180	# c3,c3,c3,c3

Improper Coeffs

   1	1.1	-1	2	# ca,ca,ca,c3
   2	1.1	-1	2	# ca,X,X,ha

Atoms

   1	1	1	0.066869	-8.76907	31.6317	-10.965
   2	1	1	0.053974	-8.33937	30.4424	-11.5124
   3	1	1	-0.117882	-9.11216	29.2735	-11.5809
   4	1	1	-0.084276	-10.4132	29.4803	-11.0924
   5	1	1	-0.157972	-10.0141	31.7914	-10.3268
   6	1	2	0.004935	-11.4162	27.6611	-9.34772
   7	1	1	-0.170374	-10.8361	30.6561	-10.4915
   8	1	3	0.154019	-12.0655	30.005	-9.8597
   9	1	3	0.051574	-11.5652	28.657	-10.5398
  10	1	3	0.007409	-10.1738	28.2077	-8.58705
  11	1	2	0.007138	-12.1872	29.6284	-8.34955
  12	1	1	-0.211215	-9.83507	26.4756	-6.50523
  13	1	3	-0.023783	-10.7058	29.5376	-7.90162
  14	1	2	-0.253384	-12.6057	28.1324	-8.46194
  15	1	1	-0.027691	-10.442	28.8373	-6.58306
  16	1	1	-0.014027	-9.96539	27.695	-7.17598
  17	1	1	-0.211541	-10.8886	28.8853	-5.25698
  18	1	1	-0.003037	-10.6594	27.7034	-4.51552
  19	1	4	-0.005095	-10.1331	26.5331	-5.12048
  20	1	2	0.078204	-10.9767	27.4642	-3.03469
  21	1	3	-0.018845	-9.27707	22.9146	-0.958928
  22	1	4	0.006574	-10.0607	25.475	-4.10358
  23	1	1	0.013723	-10.5495	25.997	-2.8779
  24	1	1	-0.173541	-10.4701	25.2588	-1.67543
  25	1	1	-0.072264	-9.97661	23.9563	-1.81349
  26	1	1	-0.030211	-9.48291	23.4579	-2.99592
  27	1	3	0.009457	-8.70135	22.3427	-2.32186
  28	1	1	-0.176921	-9.44445	24.2004	-4.18133
  29	1	2	0.038799	-7.9983	23.2803	-0.165342
  30	1	2	0.012799	-7.24497	24.4947	-0.773077
  31	1	2	-0.181835	-7.06542	22.1378	-0.615934
  32	1	2	-0.004967	-6.6823	23.9357	-2.10481
  33	1	2	0.05243	-7.16982	22.462	-2.12012
  34	1	2	-0.049676	-10.1895	28.4015	-2.08396
  35	1	2	-0.040251	-11.1686	28.8614	-0.982453
  36	1	5	0.031595	-9.3233	27.8876	-1.64772
  37	1	5	0.022689	-9.80944	29.2787	-2.62295
  38	1	2	-0.037258	-12.4844	28.0943	-1.20699
  39	1	2	0.002978	-12.4663	27.6742	-2.68515
  40	1	5	0.016721	-12.8836	28.4897	-3.2894
  41	1	5	-0.000468	-13.0717	26.7768	-2.86672
  42	1	5	0.056924	-8.76006	27.8053	-13.1214
  43	1	5	0.029852	-10.5017	33.8854	-10.0676
  44	1	5	0.043077	-11.3942	26.5949	-9.60597
  45	1	5	0.016056	-13.0259	30.3655	-10.2444
  46	1	5	0.041103	-12.252	28.2583	-11.294
  47	1	5	0.055216	-9.25119	28.2582	-9.16985
  48	1	5	0.041749	-12.8371	30.27	-7.74161
  49	1	6	0.155314	-9.54789	25.5579	-7.00792
  50	1	5	0.049935	-10.1228	30.4527	-8.03408
  51	1	5	0.098652	-12.646	27.6208	-7.4904
  52	1	5	0.045245	-13.5746	28.0067	-8.96389
  53	1	6	0.165622	-11.3853	29.7558	-4.84026
  54	1	5	0.050235	-9.92446	22.2235	-0.407784
  55	1	6	0.152615	-10.6989	25.6895	-0.706199
  56	1	5	0.037653	-9.01115	21.319	-2.5592
  57	1	6	0.137195	-8.91511	23.8636	-5.06726
  58	1	5	0.010736	-8.14063	23.3501	0.9204
  59	1	5	-0.004925	-6.41877	24.7962	-0.115967
  60	1	5	0.039247	-7.45658	21.1421	-0.364972
  61	1	5	0.062128	-6.04324	22.2374	-0.224261
  62	1	5	0.003131	-5.58544	23.971	-2.08789
  63	1	5	0.00404	-6.57273	21.8086	-2.76868
  64	1	5	0.021644	-10.7649	28.6754	0.0211139
  65	1	5	0.012129	-11.3479	29.94	-1.07981
  66	1	5	0.009331	-12.5068	27.2021	-0.569027
  67	1	5	0.018167	-13.3629	28.7058	-0.964924
  68	1	2	-0.164337	-8.58463	27.9346	-12.0467
  69	1	5	0.06697	-7.50585	27.8606	-11.8731
  70	1	5	0.100055	-9.0778	27.1064	-11.5229
  71	1	2	0.054914	-10.3665	32.9842	-9.45724
  72	1	5	0.026242	-11.2957	32.8111	-8.90021
  73	1	5	-0.001285	-9.57133	33.1851	-8.72844
  74	1	1	0.066869	5.88577	30.14	-5.76107
  75	1	1	0.053974	5.41839	28.8581	-6.0056
  76	1	1	-0.117882	4.8829	28.4617	-7.25278
  77	1	1	-0.084276	5.06179	29.4382	-8.25778
  78	1	1	-0.157972	5.8932	31.1699	-6.71588
  79	1	2	0.004935	2.9847	30.0511	-9.97554
  80	1	1	-0.170374	5.54124	30.7117	-7.99481
  81	1	3	0.154019	5.00403	31.2956	-9.28639
  82	1	3	0.051574	4.49443	29.8306	-9.62994
  83	1	3	0.007409	2.35173	30.2684	-8.58519
  84	1	2	0.007138	3.71872	32.1774	-9.35145
  85	1	1	-0.211215	-0.250633	30.7687	-9.24515
  86	1	3	-0.023783	2.88142	31.6904	-8.12596
  87	1	2	-0.253384	3.01673	31.4947	-10.5598
  88	1	1	-0.027691	1.42091	32.0966	-8.08829
  89	1	1	-0.014027	0.96313	30.8868	-8.55136
  90	1	1	-0.211541	0.670056	33.2753	-8.1087
  91	1	1	-0.003037	-0.644487	33.1307	-8.60507
  92	1	4	-0.005095	-1.07558	31.9247	-9.2165
  93	1	2	0.078204	-1.70459	34.2309	-8.73759
  94	1	3	-0.018845	-5.49913	33.4625	-12.2342
  95	1	4	0.006574	-2.37235	32.1797	-9.87396
  96	1	1	0.013723	-2.76788	33.5079	-9.57069
  97	1	1	-0.173541	-3.90832	34.0989	-10.1547
  98	1	1	-0.072264	-4.64259	33.2662	-11.0039
  99	1	1	-0.030211	-4.21094	32.0139	-11.3835
 100	1	3	0.009457	-4.96341	32.0459	-12.7122
 101	1	1	-0.176921	-3.04604	31.4241	-10.8713
 102	1	2	0.038799	-7.02894	33.2443	-12.1285
 103	1	2	0.012799	-7.38162	32.2508	-10.9717
 104	1	2	-0.181835	-7.21144	32.3697	-13.3903
 105	1	2	-0.004967	-6.88324	30.8605	-11.5488
 106	1	2	0.05243	-6.26846	31.2376	-12.9176
 107	1	2	-0.049676	-2.23481	34.6844	-7.35927
 108	1	2	-0.040251	-1.42841	35.943	-7.00614
 109	1	5	0.031595	-3.2968	34.9516	-7.43664
 110	1	5	0.022689	-2.13959	33.9024	-6.59492
 111	1	2	-0.037258	-1.1516	36.6283	-8.35415
 112	1	2	0.002978	-1.14147	35.5095	-9.41724
 113	1	5	0.016721	-0.122179	35.3436	-9.78885
 114	1	5	-0.000468	-1.7482	35.8134	-10.2794
 115	1	5	0.056924	4.60578	26.3192	-7.07724
 116	1	5	0.029852	6.41152	33.2118	-7.23701
 117	1	5	0.043077	2.51369	29.2848	-10.6039
 118	1	5	0.016056	5.76782	31.6738	-9.97506
 119	1	5	0.041103	5.01283	29.3741	-10.4799
 120	1	5	0.055216	2.47194	29.4311	-7.89485
 121	1	5	0.041749	3.87967	33.2597	-9.43055
 122	1	6	0.155314	-0.51789	29.8766	-9.80203
 123	1	5	0.049935	3.37879	31.7744	-7.15899
 124	1	5	0.098652	2.01748	31.904	-10.7617
 125	1	5	0.045245	3.61275	31.5582	-11.4804
 126	1	6	0.165622	1.08519	34.233	-7.81209
 127	1	5	0.050235	-5.25072	34.32	-12.8695
 128	1	6	0.152615	-4.13845	35.1538	-10.0403
 129	1	5	0.037653	-4.34198	32.0431	-13.6144
 130	1	6	0.137195	-2.63047	30.5092	-11.281
 131	1	5	0.010736	-7.62584	34.1649	-12.1222
 132	1	5	-0.004925	-6.99241	32.4983	-9.97562
 133	1	5	0.039247	-6.85185	32.8634	-14.304
 134	1	5	0.062128	-8.247	32.047	-13.5603
 135	1	5	0.003131	-6.23453	30.2892	-10.8735
 136	1	5	0.00404	-6.18547	30.394	-13.6144
 137	1	5	0.021644	-1.96783	36.5985	-6.31054
 138	1	5	0.012129	-0.478223	35.6545	-6.54063
 139	1	5	0.009331	-1.96012	37.3365	-8.57763
 140	1	5	0.018167	-0.206325	37.1858	-8.33779
 141	1	2	-0.164337	4.06205	27.1983	-7.4441
 142	1	5	0.06697	3.11326	27.2593	-6.89684
 143	1	5	0.100055	3.82946	27.031	-8.50299
 144	1	2	0.054914	6.07088	32.6371	-6.36686
 145	1	5	0.026242	5.12764	33.0769	-6.02089
 146	1	5	-0.001285	6.81398	32.764	-5.56978
 147	1	1	0.066869	-5.68245	27.2532	-7.96421
 148	1	1	0.053974	-5.34069	26.0869	-7.31143
 149	1	1	-0.117882	-5.64286	25.8022	-5.97276
 150	1	1	-0.084276	-6.44201	26.8056	-5.39732
 151	1	1	-0.157972	-6.3324	28.3335	-7.33297
 152	1	2	0.004935	-5.6641	27.7265	-2.98496
 153	1	1	-0.170374	-6.74732	28.006	-6.02384
 154	1	3	0.154019	-7.14896	28.7029	-4.71969
 155	1	3	0.051574	-6.76551	27.3329	-4.01204
 156	1	3	0.007409	-4.45691	28.1007	-3.89823
 157	1	2	0.007138	-6.28695	29.7586	-3.95291
 158	1	1	-0.211215	-2.07287	28.6009	-2.67017
 159	1	3	-0.023783	-4.87085	29.5051	-4.51688
 160	1	2	-0.253384	-6.21334	29.1113	-2.53826
 161	1	1	-0.027691	-3.70149	30.0679	-3.72615
 162	1	1	-0.014027	-3.32638	28.848	-3.23089
 163	1	1	-0.211541	-2.93287	31.231	-3.60312
 164	1	1	-0.003037	-1.71131	31.0472	-2.91033
 165	1	4	-0.005095	-1.27456	29.76	-2.50229
 166	1	2	0.078204	-0.621421	32.0972	-2.65623
 167	1	3	-0.018845	4.13642	30.3195	-2.30653
 168	1	4	0.006574	0.120557	29.8609	-2.05851
 169	1	1	0.013723	0.509179	31.2185	-2.09444
 170	1	1	-0.173541	1.85269	31.6019	-1.8985
 171	1	1	-0.072264	2.77636	30.5659	-1.67698
 172	1	1	-0.030211	2.40821	29.2285	-1.76947
 173	1	3	0.009457	3.69679	28.8135	-2.46672
 174	1	1	-0.176921	1.08197	28.8287	-1.97578
 175	1	2	0.038799	4.33488	30.7825	-3.76358
 176	1	2	0.012799	5.61853	30.0675	-4.27599
 177	1	2	-0.181835	3.21119	30.0171	-4.5096
 178	1	2	-0.004967	5.12845	28.5836	-4.52831
 179	1	2	0.05243	3.65818	28.6236	-4.01447
 180	1	2	-0.049676	-0.212306	32.8422	-3.95941
 181	1	2	-0.040251	-0.596831	34.3175	-3.75346
 182	1	5	0.031595	0.869518	32.7718	-4.12664
 183	1	5	0.022689	-0.698735	32.4272	-4.8518
 184	1	2	-0.037258	-0.581312	34.5248	-2.23287
 185	1	2	0.002978	-1.07001	33.1878	-1.65262
 186	1	5	0.016721	-2.16555	33.2075	-1.58353
 187	1	5	-0.000468	-0.675599	33.0173	-0.642471
 188	1	5	0.056924	-5.74025	23.7928	-5.17309
 189	1	5	0.029852	-6.71094	30.4677	-7.18267
 190	1	5	0.043077	-5.4647	27.0002	-2.18711
 191	1	5	0.016056	-8.20638	28.9634	-4.64489
 192	1	5	0.041103	-7.60564	26.8434	-3.51016
 193	1	5	0.055216	-4.10357	27.306	-4.55765
 194	1	5	0.041749	-6.64322	30.7954	-3.99389
 195	1	6	0.155314	-1.72037	27.602	-2.43539
 196	1	5	0.049935	-4.78255	29.6545	-5.59638
 197	1	5	0.098652	-5.53622	29.642	-1.85542
 198	1	5	0.045245	-7.19968	29.0362	-2.06302
 199	1	6	0.165622	-3.22073	32.176	-4.05308
 200	1	5	0.050235	5.00422	30.517	-1.66734
 201	1	6	0.152615	2.18459	32.6138	-2.10893
 202	1	5	0.037653	4.31	28.0662	-1.9512
 203	1	6	0.137195	0.833128	27.8075	-2.24522
 204	1	5	0.010736	4.32861	31.8694	-3.91188
 205	1	5	-0.004925	6.50911	30.1512	-3.63947
 206	1	5	0.039247	3.24017	30.1278	-5.5972
 207	1	5	0.062128	2.19586	30.2853	-4.20137
 208	1	5	0.003131	5.77155	27.8217	-4.06916
 209	1	5	0.00404	3.0357	27.7924	-4.36807
 210	1	5	0.021644	0.0895889	35.0002	-4.26935
 211	1	5	0.012129	-1.61155	34.4899	-4.13518
 212	1	5	0.009331	0.446264	34.7186	-1.89862
 213	1	5	0.018167	-1.2121	35.3674	-1.92237
 214	1	2	-0.164337	-5.043	24.639	-5.20479
 215	1	5	0.06697	-4.11229	24.2923	-5.67044
 216	1	5	0.100055	-4.80861	24.9264	-4.17376
 217	1	2	0.054914	-6.46801	29.7167	-7.94436
 218	1	5	0.026242	-5.53713	30.0259	-8.43589
 219	1	5	-0.001285	-7.2696	29.7316	-8.69198
 220	1	1	0.066869	-11.285	13.8669	-16.4308
 221	1	1	0.053974	-11.0541	13.4207	-15.1439
 222	1	1	-0.117882	-10.9733	14.2763	-14.0278
 223	1	1	-0.084276	-10.9786	15.6371	-14.3884
 224	1	1	-0.157972	-11.4922	15.2176	-16.763
 225	1	2	0.004935	-10.5118	18.0257	-13.1947
 226	1	1	-0.170374	-11.2472	16.0783	-15.6795
 227	1	3	0.154019	-11.8006	17.4176	-15.2151
 228	1	3	0.051574	-11.4712	16.9259	-13.7454
 229	1	3	0.007409	-9.20001	17.7767	-13.9963
 230	1	2	0.007138	-11.0188	18.756	-15.3505
 231	1	1	-0.211215	-7.74488	19.7822	-12.9696
 232	1	3	-0.023783	-9.54731	18.2708	-15.4565
 233	1	2	-0.253384	-11.1192	19.2793	-13.8882
 234	1	1	-0.027691	-8.4886	19.3363	-15.248
 235	1	1	-0.014027	-8.17558	18.9014	-13.9718
 236	1	1	-0.211541	-8.42426	20.6866	-15.6204
 237	1	1	-0.003037	-7.88808	21.5731	-14.663
 238	1	4	-0.005095	-7.53609	21.1246	-13.3678
 239	1	2	0.078204	-7.8645	23.1087	-14.7402
 240	1	3	-0.018845	-6.61806	25.7342	-10.2829
 241	1	4	0.006574	-7.27912	22.3	-12.5229
 242	1	1	0.013723	-7.50423	23.469	-13.2946
 243	1	1	-0.173541	-7.37393	24.765	-12.7429
 244	1	1	-0.072264	-7.1073	24.7872	-11.3681
 245	1	1	-0.030211	-6.81793	23.6587	-10.6455
 246	1	3	0.009457	-6.24729	24.4216	-9.46855
 247	1	1	-0.176921	-6.85444	22.3649	-11.1716
 248	1	2	0.038799	-5.25525	26.4404	-10.4806
 249	1	2	0.012799	-4.72628	26.9956	-9.12279
 250	1	2	-0.181835	-4.29533	25.2412	-10.6584
 251	1	2	-0.004967	-4.32955	25.6635	-8.35224
 252	1	2	0.05243	-4.70455	24.5317	-9.34703
 253	1	2	-0.049676	-6.84211	23.6185	-15.7766
 254	1	2	-0.040251	-7.6204	23.7208	-17.0995
 255	1	5	0.031595	-6.48864	24.618	-15.4924
 256	1	5	0.022689	-5.96693	22.9611	-15.861
 257	1	2	-0.037258	-9.08743	23.9966	-16.7105
 258	1	2	0.002978	-9.21943	23.6973	-15.2009
 259	1	5	0.016721	-10.0539	23.0147	-14.9933
 260	1	5	-0.000468	-9.42628	24.6363	-14.6715
 261	1	5	0.056924	-10.2985	14.2672	-11.9695
 262	1	5	0.029852	-11.4845	16.4536	-18.5406
 263	1	5	0.043077	-10.4102	18.0764	-12.1033
 264	1	5	0.016056	-12.863	17.5763	-15.4315
 265	1	5	0.041103	-12.3362	16.8102	-13.0835
 266	1	5	0.055216	-8.77334	16.7743	-13.8802
 267	1	5	0.041749	-11.3619	19.4391	-16.1375
 268	1	6	0.155314	-7.71525	19.4892	-11.9252
 269	1	5	0.049935	-9.34161	17.5951	-16.2942
 270	1	5	0.098652	-10.5376	20.1941	-13.7138
 271	1	5	0.045245	-12.158	19.4636	-13.5819
 272	1	6	0.165622	-8.88665	21.0409	-16.5354
 273	1	5	0.050235	-7.38278	26.3799	-9.83796
 274	1	6	0.152615	-7.46672	25.6662	-13.3395
 275	1	5	0.037653	-6.76016	24.2581	-8.51454
 276	1	6	0.137195	-6.57375	21.4874	-10.5981
 277	1	5	0.010736	-5.22433	27.1698	-11.2995
 278	1	5	-0.004925	-3.88627	27.6983	-9.20151
 279	1	5	0.039247	-3.23787	25.5415	-10.6695
 280	1	5	0.062128	-4.4941	24.6459	-11.5591
 281	1	5	0.003131	-3.28398	25.6665	-8.01722
 282	1	5	0.00404	-4.18447	23.5842	-9.1591
 283	1	5	0.021644	-7.2146	24.505	-17.7511
 284	1	5	0.012129	-7.55525	22.7673	-17.6392
 285	1	5	0.009331	-9.34405	25.0455	-16.9073
 286	1	5	0.018167	-9.76796	23.3679	-17.2991
 287	1	2	-0.164337	-11.0763	13.8033	-12.5886
 288	1	5	0.06697	-12.0497	14.0674	-12.1574
 289	1	5	0.100055	-10.9585	12.7149	-12.5152
 290	1	2	0.054914	-12.1078	15.6827	-18.0709
 291	1	5	0.026242	-12.2098	14.8544	-18.783
 292	1	5	-0.001285	-13.1044	16.1102	-17.9055
 293	1	1	0.066869	-24.3444	5.6917	-12.1078
 294	1	1	0.053974	-23.4401	5.4415	-11.0898
 295	1	1	-0.117882	-22.8759	6.45705	-10.2932
 296	1	1	-0.084276	-23.4806	7.71138	-10.5066
 297	1	1	-0.157972	-24.8373	6.9698	-12.4228
 298	1	2	0.004935	-21.8539	9.89357	-10.8521
 299	1	1	-0.170374	-24.4177	7.94819	-11.5014
 300	1	3	0.154019	-24.2167	9.45747	-11.4674
 301	1	3	0.051574	-23.1486	9.19217	-10.3216
 302	1	3	0.007409	-21.3859	8.95007	-11.9908
 303	1	2	0.007138	-23.4201	10.2508	-12.5483
 304	1	1	-0.211215	-19.0969	10.0683	-13.0377
 305	1	3	-0.023783	-22.464	9.17453	-13.1352
 306	1	2	-0.253384	-22.4814	11.0869	-11.6305
 307	1	1	-0.027691	-21.3123	9.68069	-13.9747
 308	1	1	-0.014027	-20.3787	9.50434	-12.988
 309	1	1	-0.211541	-21.0879	10.4131	-15.1423
 310	1	1	-0.003037	-19.7678	10.8962	-15.2808
 311	1	4	-0.005095	-18.7952	10.7343	-14.2572
 312	1	2	0.078204	-19.2108	11.6956	-16.4633
 313	1	3	-0.018845	-14.1258	13.1692	-16.2104
 314	1	4	0.006574	-17.5624	11.4229	-14.6832
 315	1	1	0.013723	-17.7856	11.9734	-15.9749
 316	1	1	-0.173541	-16.7684	12.6443	-16.6905
 317	1	1	-0.072264	-15.5764	12.8019	-15.9802
 318	1	1	-0.030211	-15.3562	12.2904	-14.7283
 319	1	3	0.009457	-13.8663	12.5955	-14.7522
 320	1	1	-0.176921	-16.3022	11.5265	-14.0333
 321	1	2	0.038799	-13.2733	12.238	-17.1144
 322	1	2	0.012799	-11.7525	12.5121	-16.925
 323	1	2	-0.181835	-13.3531	10.8849	-16.371
 324	1	2	-0.004967	-11.4746	11.9889	-15.4523
 325	1	2	0.05243	-12.8689	11.4395	-15.0104
 326	1	2	-0.049676	-19.2523	10.8833	-17.7837
 327	1	2	-0.040251	-20.3437	11.5353	-18.6485
 328	1	5	0.031595	-18.2908	10.9574	-18.3076
 329	1	5	0.022689	-19.4537	9.8174	-17.6146
 330	1	2	-0.037258	-20.3359	13.0128	-18.2316
 331	1	2	0.002978	-20.0086	13.0007	-16.728
 332	1	5	0.016721	-20.9448	13.0013	-16.1551
 333	1	5	-0.000468	-19.4485	13.8992	-16.438
 334	1	5	0.056924	-21.4464	7.12492	-8.79988
 335	1	5	0.029852	-26.3927	6.5642	-13.8752
 336	1	5	0.043077	-21.099	10.1507	-10.0984
 337	1	5	0.016056	-25.0897	10.0306	-11.1359
 338	1	5	0.041103	-23.435	9.60574	-9.34866
 339	1	5	0.055216	-21.1751	7.92443	-11.6811
 340	1	5	0.041749	-24.0192	10.8145	-13.2743
 341	1	6	0.155314	-18.4003	10.0181	-12.2073
 342	1	5	0.049935	-22.9484	8.29744	-13.566
 343	1	5	0.098652	-21.7403	11.6722	-12.1921
 344	1	5	0.045245	-23.0389	11.767	-10.9721
 345	1	6	0.165622	-21.8685	10.6082	-15.8708
 346	1	5	0.050235	-13.9458	14.236	-16.3648
 347	1	6	0.152615	-16.8962	12.9987	-17.7086
 348	1	5	0.037653	-13.5319	13.3065	-13.9924
 349	1	6	0.137195	-16.0865	11.0431	-13.0861
 350	1	5	0.010736	-13.5884	12.1991	-18.1646
 351	1	5	-0.004925	-11.0987	12.038	-17.6689
 352	1	5	0.039247	-12.6743	10.1276	-16.7887
 353	1	5	0.062128	-14.3646	10.4595	-16.3394
 354	1	5	0.003131	-10.66	11.2535	-15.4226
 355	1	5	0.00404	-12.8159	10.6903	-14.2107
 356	1	5	0.021644	-20.1566	11.4052	-19.722
 357	1	5	0.012129	-21.3187	11.0904	-18.4101
 358	1	5	0.009331	-19.5426	13.5423	-18.7753
 359	1	5	0.018167	-21.2913	13.5092	-18.444
 360	1	2	-0.164337	-21.6414	6.25086	-9.43355
 361	1	5	0.06697	-21.7665	5.38198	-8.77547
 362	1	5	0.100055	-20.7536	6.07702	-10.0539
 363	1	2	0.054914	-25.5782	7.28088	-13.7116
 364	1	5	0.026242	-26.0174	8.28592	-13.6854
 365	1	5	-0.001285	-24.9056	7.22764	-14.5764
 366	1	1	0.066869	-21.5141	-8.24625	-11.2253
 367	1	1	0.053974	-20.9548	-7.7355	-10.067
 368	1	1	-0.117882	-21.682	-7.50037	-8.88781
 369	1	1	-0.084276	-22.9881	-8.01654	-8.95333
 370	1	1	-0.157972	-22.8699	-8.6122	-11.3377
 371	1	2	0.004935	-25.0007	-6.36364	-8.17957
 372	1	1	-0.170374	-23.5504	-8.55092	-10.1034
 373	1	3	0.154019	-24.9837	-8.41194	-9.58461
 374	1	3	0.051574	-24.3321	-7.77114	-8.28527
 375	1	3	0.007409	-24.382	-5.58436	-9.37799
 376	1	2	0.007138	-26.0057	-7.32737	-10.0552
 377	1	1	-0.211215	-25.0799	-2.92599	-9.53118
 378	1	3	-0.023783	-25.0865	-6.23207	-10.6479
 379	1	2	-0.253384	-26.4287	-6.71599	-8.6873
 380	1	1	-0.027691	-25.7042	-4.86509	-10.8656
 381	1	1	-0.014027	-25.079	-4.30006	-9.78911
 382	1	1	-0.211541	-26.478	-4.15392	-11.7866
 383	1	1	-0.003037	-26.5725	-2.76735	-11.5158
 384	1	4	-0.005095	-25.8689	-2.16531	-10.4359
 385	1	2	0.078204	-27.3011	-1.70614	-12.354
 386	1	3	-0.018845	-25.8058	3.21381	-11.6586
 387	1	4	0.006574	-26.0419	-0.70516	-10.5253
 388	1	1	0.013723	-26.8821	-0.421136	-11.6282
 389	1	1	-0.173541	-27.0909	0.901126	-12.0732
 390	1	1	-0.072264	-26.4942	1.90965	-11.3046
 391	1	1	-0.030211	-25.6323	1.63532	-10.2578
 392	1	3	0.009457	-24.8137	2.90258	-10.4692
 393	1	1	-0.176921	-25.3255	0.324087	-9.86462
 394	1	2	0.038799	-24.8831	3.20833	-12.9021
 395	1	2	0.012799	-23.9575	4.45437	-12.8954
 396	1	2	-0.181835	-23.8293	2.13513	-12.5414
 397	1	2	-0.004967	-22.9447	4.14922	-11.7153
 398	1	2	0.05243	-23.4415	2.76999	-11.1854
 399	1	2	-0.049676	-26.877	-1.75468	-13.8425
 400	1	2	-0.040251	-27.9716	-2.54103	-14.5963
 401	1	5	0.031595	-26.8193	-0.742528	-14.261
 402	1	5	0.022689	-25.8882	-2.21432	-13.9702
 403	1	2	-0.037258	-29.1144	-2.80401	-13.5942
 404	1	2	0.002978	-28.829	-1.91552	-12.3712
 405	1	5	0.016721	-29.2014	-2.36166	-11.4399
 406	1	5	-0.000468	-29.3338	-0.950284	-12.5087
 407	1	5	0.056924	-21.8849	-6.60393	-6.91853
 408	1	5	0.029852	-24.6269	-9.04725	-12.5411
 409	1	5	0.043077	-24.9412	-5.87207	-7.20042
 410	1	5	0.016056	-25.4959	-9.36249	-9.3987
 411	1	5	0.041103	-24.505	-8.3501	-7.37161
 412	1	5	0.055216	-23.2935	-5.49889	-9.36029
 413	1	5	0.041749	-26.8192	-7.67736	-10.7029
 414	1	6	0.155314	-24.4989	-2.47643	-8.7326
 415	1	5	0.049935	-24.4678	-6.55809	-11.4855
 416	1	5	0.098652	-27.0778	-5.83563	-8.79059
 417	1	5	0.045245	-26.9322	-7.44854	-8.04168
 418	1	6	0.165622	-26.9276	-4.62281	-12.6554
 419	1	5	0.050235	-26.4253	4.11311	-11.5701
 420	1	6	0.152615	-27.5844	1.12011	-13.0148
 421	1	5	0.037653	-24.8061	3.60889	-9.63189
 422	1	6	0.137195	-24.5092	0.105282	-9.18414
 423	1	5	0.010736	-25.3948	3.04113	-13.8582
 424	1	5	-0.004925	-23.4424	4.65283	-13.8446
 425	1	5	0.039247	-22.992	2.10299	-13.2533
 426	1	5	0.062128	-24.2397	1.12153	-12.4542
 427	1	5	0.003131	-21.8991	4.16685	-12.0499
 428	1	5	0.00404	-22.6809	2.21157	-10.6256
 429	1	5	0.021644	-28.3365	-1.9533	-15.4487
 430	1	5	0.012129	-27.5767	-3.48801	-14.986
 431	1	5	0.009331	-30.0974	-2.5859	-14.0309
 432	1	5	0.018167	-29.1073	-3.8594	-13.294
 433	1	2	-0.164337	-21.175	-6.62621	-7.75459
 434	1	5	0.06697	-20.2184	-7.00253	-7.37136
 435	1	5	0.100055	-21.0195	-5.59453	-8.09337
 436	1	2	0.054914	-23.5504	-8.87895	-12.6691
 437	1	5	0.026242	-23.4209	-8.03145	-13.3535
 438	1	5	-0.001285	-23.1268	-9.76897	-13.1505
 439	1	1	0.066869	-5.74721	-9.65659	-10.8235
 440	1	1	0.053974	-6.15472	-9.5646	-9.51036
 441	1	1	-0.117882	-7.04952	-10.4457	-8.88536
 442	1	1	-0.084276	-7.37401	-11.5198	-9.73035
 443	1	1	-0.157972	-6.17451	-10.6656	-11.71
 444	1	2	0.004935	-9.94222	-12.3168	-9.96958
 445	1	1	-0.170374	-6.96459	-11.6323	-11.0497
 446	1	3	0.154019	-7.92962	-12.7812	-11.3539
 447	1	3	0.051574	-8.4168	-12.6136	-9.84786
 448	1	3	0.007409	-9.97647	-10.8886	-10.5963
 449	1	2	0.007138	-9.25085	-12.6471	-12.176
 450	1	1	-0.211215	-12.636	-10.3643	-10.7516
 451	1	3	-0.023783	-9.53546	-11.1278	-12.1005
 452	1	2	-0.253384	-10.2836	-13.2416	-11.1725
 453	1	1	-0.027691	-10.9363	-10.6778	-12.4767
 454	1	1	-0.014027	-11.304	-10.4341	-11.1731
 455	1	1	-0.211541	-11.8692	-10.9624	-13.4846
 456	1	1	-0.003037	-13.2242	-10.8005	-13.1141
 457	1	4	-0.005095	-13.596	-10.4692	-11.7877
 458	1	2	0.078204	-14.4645	-11.0702	-13.9799
 459	1	3	-0.018845	-19.1029	-9.75475	-11.9243
 460	1	4	0.006574	-15.0627	-10.4631	-11.7009
 461	1	1	0.013723	-15.5896	-10.8337	-12.9608
 462	1	1	-0.173541	-16.9796	-10.8151	-13.213
 463	1	1	-0.072264	-17.7926	-10.5007	-12.1134
 464	1	1	-0.030211	-17.2721	-10.0679	-10.9097
 465	1	3	0.009457	-18.491	-9.23052	-10.5625
 466	1	1	-0.176921	-15.8965	-9.97767	-10.6649
 467	1	2	0.038799	-19.315	-8.45929	-12.7414
 468	1	2	0.012799	-20.466	-7.61026	-12.1277
 469	1	2	-0.181835	-18.1117	-7.58944	-12.3061
 470	1	2	-0.004967	-19.8171	-7.05107	-10.7938
 471	1	2	0.05243	-18.4017	-7.69557	-10.7912
 472	1	2	-0.049676	-14.5429	-10.1097	-15.1965
 473	1	2	-0.040251	-14.3303	-10.9798	-16.4468
 474	1	5	0.031595	-15.5331	-9.64002	-15.2516
 475	1	5	0.022689	-13.8013	-9.30229	-15.1402
 476	1	2	-0.037258	-14.8429	-12.371	-16.0485
 477	1	2	0.002978	-14.494	-12.5101	-14.5567
 478	1	5	0.016721	-13.5078	-12.9818	-14.4612
 479	1	5	-0.000468	-15.2163	-13.1534	-14.0375
 480	1	5	0.056924	-8.25684	-11.0755	-7.194
 481	1	5	0.029852	-6.5565	-9.97793	-13.7287
 482	1	5	0.043077	-10.5373	-12.4618	-9.05919
 483	1	5	0.016056	-7.44663	-13.7431	-11.5586
 484	1	5	0.041103	-8.2391	-13.4935	-9.22016
 485	1	5	0.055216	-9.45865	-10.1132	-10.0248
 486	1	5	0.041749	-9.24193	-13.0877	-13.1807
 487	1	6	0.155314	-12.9149	-10.3051	-9.70454
 488	1	5	0.049935	-8.74584	-10.4927	-12.5109
 489	1	5	0.098652	-11.324	-13.1394	-11.5097
 490	1	5	0.045245	-10.0895	-14.3003	-10.9525
 491	1	6	0.165622	-11.5727	-11.3407	-14.458
 492	1	5	0.050235	-19.9979	-10.3831	-11.8571
 493	1	6	0.152615	-17.3874	-10.9484	-14.2101
 494	1	5	0.037653	-19.0117	-9.51256	-9.64092
 495	1	6	0.137195	-15.4949	-9.48568	-9.78486
 496	1	5	0.010736	-19.4008	-8.60587	-13.8253
 497	1	5	-0.004925	-20.8405	-6.80567	-12.7742
 498	1	5	0.039247	-18.1734	-6.55816	-12.6822
 499	1	5	0.062128	-17.1368	-8.00046	-12.597
 500	1	5	0.003131	-19.8294	-5.95398	-10.7498
 501	1	5	0.00404	-17.6788	-7.17302	-10.1524
 502	1	5	0.021644	-14.8545	-10.5803	-17.3243
 503	1	5	0.012129	-13.2587	-11.0351	-16.679
 504	1	5	0.009331	-15.9325	-12.4113	-16.1764
 505	1	5	0.018167	-14.3937	-13.1676	-16.6551
 506	1	2	-0.164337	-7.6562	-10.2151	-7.51402
 507	1	5	0.06697	-6.87345	-10.0531	-6.76263
 508	1	5	0.100055	-8.30762	-9.33239	-7.51897
 509	1	2	0.054914	-5.88608	-10.6665	-13.1999
 510	1	5	0.026242	-4.85388	-10.3535	-13.4003
 511	1	5	-0.001285	-6.02298	-11.6671	-13.6287
 512	1	1	0.066869	6.61252	-6.64055	-0.935042
 513	1	1	0.053974	5.60643	-7.21447	-0.183034
 514	1	1	-0.117882	4.9122	-8.37969	-0.548801
 515	1	1	-0.084276	5.4769	-8.98751	-1.68337
 516	1	1	-0.157972	7.05643	-7.15935	-2.16668
 517	1	2	0.004935	3.83645	-9.8664	-3.66322
 518	1	1	-0.170374	6.4878	-8.42024	-2.44388
 519	1	3	0.154019	6.2682	-9.36785	-3.62229
 520	1	3	0.051574	5.09406	-9.99767	-2.75233
 521	1	3	0.007409	3.5595	-8.33438	-3.67292
 522	1	2	0.007138	5.56571	-8.98297	-4.95981
 523	1	1	-0.211215	1.41144	-8.30419	-5.29123
 524	1	3	-0.023783	4.72338	-7.74366	-4.56249
 525	1	2	-0.253384	4.49911	-10.1148	-5.04901
 526	1	1	-0.027691	3.63815	-7.33744	-5.54396
 527	1	1	-0.014027	2.61766	-7.83443	-4.7551
 528	1	1	-0.211541	3.55926	-7.30879	-6.94487
 529	1	1	-0.003037	2.31288	-7.67074	-7.50014
 530	1	4	-0.005095	1.25261	-8.13422	-6.68719
 531	1	2	0.078204	1.98074	-7.84242	-8.9904
 532	1	3	-0.018845	-2.91234	-9.43545	-10.1747
 533	1	4	0.006574	0.175415	-8.61935	-7.56028
 534	1	1	0.013723	0.589534	-8.48605	-8.90817
 535	1	1	-0.173541	-0.270204	-8.80964	-9.98342
 536	1	1	-0.072264	-1.4995	-9.37619	-9.61501
 537	1	1	-0.030211	-1.92149	-9.43792	-8.30512
 538	1	3	0.009457	-3.39351	-9.45443	-8.66403
 539	1	1	-0.176921	-1.13879	-9.02255	-7.22378
 540	1	2	0.038799	-3.53836	-8.13545	-10.7275
 541	1	2	0.012799	-5.08858	-8.28093	-10.8217
 542	1	2	-0.181835	-3.44183	-7.18159	-9.5128
 543	1	2	-0.004967	-5.53552	-8.20524	-9.29607
 544	1	2	0.05243	-4.18372	-8.11974	-8.53413
 545	1	2	-0.049676	1.97436	-6.48524	-9.74185
 546	1	2	-0.040251	2.82134	-6.68575	-11.0108
 547	1	5	0.031595	0.959177	-6.14734	-9.98733
 548	1	5	0.022689	2.4375	-5.70752	-9.12045
 549	1	2	-0.037258	3.79829	-7.81739	-10.6607
 550	1	2	0.002978	3.00155	-8.74603	-9.7295
 551	1	5	0.016721	3.65929	-9.29124	-9.0402
 552	1	5	-0.000468	2.4746	-9.49125	-10.3394
 553	1	5	0.056924	3.67413	-8.68586	1.2035
 554	1	5	0.029852	8.12767	-6.96244	-4.04634
 555	1	5	0.043077	2.98572	-10.5112	-3.40921
 556	1	5	0.016056	7.098	-10.0545	-3.81914
 557	1	5	0.041103	5.25045	-11.0445	-2.47374
 558	1	5	0.055216	3.38594	-7.8849	-2.69172
 559	1	5	0.041749	6.22038	-8.86347	-5.832
 560	1	6	0.155314	0.698028	-8.86849	-4.69933
 561	1	5	0.049935	5.29625	-6.90218	-4.16461
 562	1	5	0.098652	3.80197	-9.99021	-5.88836
 563	1	5	0.045245	4.95445	-11.112	-5.12136
 564	1	6	0.165622	4.43218	-7.1261	-7.5633
 565	1	5	0.050235	-3.14039	-10.3206	-10.7789
 566	1	6	0.152615	-0.0208981	-8.58448	-11.0158
 567	1	5	0.037653	-3.94697	-10.3378	-8.32767
 568	1	6	0.137195	-1.52875	-8.95356	-6.21346
 569	1	5	0.010736	-3.07136	-7.75141	-11.6431
 570	1	5	-0.004925	-5.59014	-7.52354	-11.4382
 571	1	5	0.039247	-3.9685	-6.23045	-9.67515
 572	1	5	0.062128	-2.41241	-6.95515	-9.20667
 573	1	5	0.003131	-6.24263	-7.38869	-9.09922
 574	1	5	0.00404	-4.27473	-7.73276	-7.51156
 575	1	5	0.021644	2.17398	-7.00263	-11.8389
 576	1	5	0.012129	3.34181	-5.76732	-11.3109
 577	1	5	0.009331	4.16416	-8.34039	-11.5534
 578	1	5	0.018167	4.66172	-7.40566	-10.1222
 579	1	2	-0.164337	3.63126	-8.84511	0.118736
 580	1	5	0.06697	2.76476	-8.29478	-0.2679
 581	1	5	0.100055	3.45935	-9.91438	-0.0558107
 582	1	2	0.054914	7.93241	-6.3848	-3.1346
 583	1	5	0.026242	7.45106	-5.44473	-3.43098
 584	1	5	-0.001285	8.89859	-6.14031	-2.6762
 585	1	1	0.066869	9.03243	-4.69464	15.0738
 586	1	1	0.053974	8.00745	-5.5857	14.841
 587	1	1	-0.117882	8.03987	-6.62455	13.8953
 588	1	1	-0.084276	9.27939	-6.65879	13.2341
 589	1	1	-0.157972	10.2371	-4.66882	14.3435
 590	1	2	0.004935	9.55052	-7.17171	10.5882
 591	1	1	-0.170374	10.2914	-5.73391	13.4209
 592	1	3	0.154019	11.1403	-6.28111	12.2782
 593	1	3	0.051574	9.97633	-7.35058	12.0744
 594	1	3	0.007409	8.80827	-5.80617	10.6117
 595	1	2	0.007138	11.2587	-5.6052	10.8751
 596	1	1	-0.211215	8.16655	-5.67482	8.01383
 597	1	3	-0.023783	9.96689	-4.74421	10.7878
 598	1	2	-0.253384	10.9281	-6.81747	9.95672
 599	1	1	-0.027691	9.57989	-4.24831	9.40025
 600	1	1	-0.014027	8.56001	-5.17036	9.25888
 601	1	1	-0.211541	10.3002	-3.75116	8.30172
 602	1	1	-0.003037	9.83909	-4.1508	7.02632
 603	1	4	-0.005095	8.79296	-5.09217	6.88802
 604	1	2	0.078204	10.4575	-3.81905	5.65866
 605	1	3	-0.018845	8.25603	-6.08744	1.4345
 606	1	4	0.006574	8.70852	-5.49503	5.47746
 607	1	1	0.013723	9.6926	-4.79151	4.74273
 608	1	1	-0.173541	9.8055	-4.94073	3.34038
 609	1	1	-0.072264	8.97636	-5.91584	2.76422
 610	1	1	-0.030211	7.99477	-6.56879	3.4806
 611	1	3	0.009457	7.11697	-6.80532	2.26717
 612	1	1	-0.176921	7.77497	-6.34955	4.84462
 613	1	2	0.038799	7.53388	-4.85511	0.837204
 614	1	2	0.012799	6.49752	-5.28999	-0.24335
 615	1	2	-0.181835	6.55408	-4.46613	1.9693
 616	1	2	-0.004967	5.34925	-5.96142	0.624739
 617	1	2	0.05243	5.89749	-5.86237	2.07503
 618	1	2	-0.049676	10.2358	-2.34401	5.26329
 619	1	2	-0.040251	11.3698	-1.98136	4.28567
 620	1	5	0.031595	9.24264	-2.17394	4.8274
 621	1	5	0.022689	10.3218	-1.70834	6.1545
 622	1	2	-0.037258	12.4803	-3.03589	4.48291
 623	1	2	0.002978	11.9877	-4.01096	5.57221