pySIMM System Object

2459 atoms
2863 bonds
5940 angles
10971 dihedrals
198 impropers

6 atom types
11 bond types
24 angle types
21 dihedral types
2 improper types

-188.331595 188.331595 xlo xhi
-188.331595 188.331595 ylo yhi
-188.331595 188.331595 zlo zhi

Masses

   1	12.01	# ca
   2	12.01	# c3
   3	12.01	# cy
   4	12.01	# cp
   5	1.008	# hc
   6	1.008	# ha

Pair Coeffs

   1	0.086	3.3996695084235347	# ca
   2	0.1094	3.3996695084235347	# c3
   3	0.086	3.3996695084235347	# cy
   4	0.086	3.3996695084235347	# cp
   5	0.0157	2.649532787749369	# hc
   6	0.015	2.59964245953351	# ha

Bond Coeffs

   1	321.2	1.5154	# ca,cy
   2	461.1	1.3984	# ca,ca
   3	305.9	1.5319	# c3,cy
   4	351.4	1.4854	# cp,cp
   5	345.8	1.086	# ca,ha
   6	300.9	1.5375	# c3,c3
   7	450.2	1.4058	# ca,cp
   8	285.0	1.5562	# cy,cy
   9	321.0	1.5156	# c3,ca
  10	330.6	1.0969	# c3,hc
  11	333.3	1.0949	# cy,hc

Angle Coeffs

   1	67.9	96.03	# cy,c3,cy
   2	61.4	116.81	# ca,cy,cy
   3	63.15	112.07	# c3,c3,ca
   4	45.97	114.53	# ca,cy,hc
   5	66.26	120.69	# ca,ca,cp
   6	46.34	109.8	# c3,c3,hc
   7	48.18	119.88	# ca,ca,ha
   8	62.73	112.39	# c3,c3,cy
   9	46.29	110.75	# cy,c3,hc
  10	44.83	114.79	# cy,cy,hc
  11	46.8	110.47	# ca,c3,hc
  12	66.72	118.38	# ca,cp,ca
  13	62.86	111.51	# c3,c3,c3
  14	46.43	110.14	# c3,cy,hc
  15	60.66	118.7	# c3,cy,cy
  16	63.43	120.63	# c3,ca,cp
  17	63.56	112.24	# ca,c3,ca
  18	64.05	121.11	# ca,cp,cp
  19	66.62	120.02	# ca,ca,ca
  20	39.4	107.58	# hc,c3,hc
  21	47.98	119.86	# cp,ca,ha
  22	63.53	120.77	# c3,ca,ca
  23	63.51	120.86	# ca,ca,cy
  24	62.8	113.57	# c3,cy,ca

Dihedral Coeffs

   1	1	0.16	3	0	# hc,c3,c3,c3
   2	1	0.0	2	0.0	# ca,ca,cy,cy
   3	1	1.0	2	180	# X,cp,cp,X
   4	1	0.0	2	0.0	# ca,ca,cy,c3
   5	3	0.38	3	180.0	0.0	2	0.0	1.15	1	0.0	# ca,ca,cy,hc
   6	1	0.0	2	0	# X,c3,ca,X
   7	1	0.16	3	0.0	# cy,c3,cy,ca
   8	1	0.15555555555555556	3	0	# X,c3,c3,X
   9	1	0.16	3	0.0	# c3,c3,cy,ca
  10	1	0.16	3	0.0	# hc,c3,cy,ca
  11	3	0.18	3	0.0	0.25	2	180.0	0.2	1	180.0	# cy,c3,cy,cy
  12	1	0.15	3	0	# hc,c3,c3,hc
  13	3	0.18	3	0.0	0.25	2	180.0	0.2	1	180.0	# c3,c3,cy,cy
  14	1	0.16	3	0.0	# hc,c3,cy,cy
  15	1	0.16	3	0.0	# cy,c3,cy,hc
  16	1	0.16	3	0.0	# c3,c3,cy,hc
  17	1	0.15	3	0.0	# hc,c3,cy,hc
  18	1	3.625	2	180	# X,ca,ca,X
  19	1	0.15555555555555556	3	0	# X,cy,cy,X
  20	1	3.625	2	180	# X,ca,cp,X
  21	3	0.18	3	0	0.25	2	180	0.2	1	180	# c3,c3,c3,c3

Improper Coeffs

   1	1.1	-1	2	# ca,ca,ca,c3
   2	1.1	-1	2	# ca,X,X,ha

Atoms

   1	1	1	0.066869	-1.1682	27.4336	32.084
   2	1	1	0.053974	-2.12136	26.4402	32.156
   3	1	1	-0.117882	-2.26781	25.5573	33.2457
   4	1	1	-0.084276	-1.32945	25.8431	34.2537
   5	1	1	-0.157972	-0.202773	27.6942	33.0727
   6	1	2	0.004935	0.0544299	23.963	35.6426
   7	1	1	-0.170374	-0.374674	26.8406	34.1782
   8	1	3	0.154019	0.308817	26.4274	35.4743
   9	1	3	0.051574	-0.788732	25.2745	35.5581
  10	1	3	0.007409	0.628017	23.83	34.2044
  11	1	2	0.007138	1.66196	25.6562	35.5223
  12	1	1	-0.211215	2.12861	21.5315	34.2221
  13	1	3	-0.023783	1.71501	24.9885	34.1215
  14	1	2	-0.253384	1.27601	24.475	36.4604
  15	1	1	-0.027691	2.72979	23.8788	33.9491
  16	1	1	-0.014027	1.79684	22.8769	34.023
  17	1	1	-0.211541	4.10646	23.6696	34.0746
  18	1	1	-0.003037	4.48452	22.311	34.1633
  19	1	4	-0.005095	3.52424	21.2668	34.2269
  20	1	2	0.078204	5.91271	21.7584	34.226
  21	1	3	-0.018845	6.46418	16.5128	34.0052
  22	1	4	0.006574	4.24243	19.987	34.3363
  23	1	1	0.013723	5.63611	20.2553	34.3455
  24	1	1	-0.173541	6.59635	19.2188	34.3359
  25	1	1	-0.072264	6.06545	17.9253	34.3971
  26	1	1	-0.030211	4.71704	17.6623	34.3524
  27	1	3	0.009457	4.90759	16.2132	33.9391
  28	1	1	-0.176921	3.74047	18.6621	34.2719
  29	1	2	0.038799	6.94217	16.2	32.5653
  30	1	2	0.012799	6.43337	17.2399	31.5318
  31	1	2	-0.181835	6.0193	15.012	32.2229
  32	1	2	-0.004967	4.91027	16.962	31.4687
  33	1	2	0.05243	4.70779	15.7857	32.4636
  34	1	2	-0.049676	6.71951	22.1198	32.9508
  35	1	2	-0.040251	7.77119	23.1504	33.3924
  36	1	5	0.031595	7.23229	21.233	32.5572
  37	1	5	0.022689	6.08213	22.512	32.1475
  38	1	2	-0.037258	8.06436	22.8011	34.8585
  39	1	2	0.002978	6.72104	22.3121	35.4287
  40	1	5	0.016721	6.19359	23.1583	35.8874
  41	1	5	-0.000468	6.87417	21.5578	36.2114
  42	1	5	0.056924	-3.65217	24.3416	34.383
  43	1	5	0.029852	1.31384	28.9888	33.9272
  44	1	5	0.043077	-0.461354	23.08	36.0403
  45	1	5	0.016056	0.251406	27.1626	36.2846
  46	1	5	0.041103	-1.46431	25.3587	36.416
  47	1	5	0.055216	-0.122632	23.7684	33.4094
  48	1	5	0.041749	2.54278	26.2418	35.8135
  49	1	6	0.155314	1.38035	20.7586	34.3654
  50	1	5	0.049935	1.672	25.6789	33.2734
  51	1	5	0.098652	2.07257	23.7247	36.558
  52	1	5	0.045245	0.99102	24.8164	37.4648
  53	1	6	0.165622	4.82121	24.4856	34.1127
  54	1	5	0.050235	7.01167	15.9357	34.7585
  55	1	6	0.152615	7.65924	19.4066	34.2186
  56	1	5	0.037653	4.55395	15.4535	34.645
  57	1	6	0.137195	2.691	18.443	34.1025
  58	1	5	0.010736	8.01413	15.9824	32.4782
  59	1	5	-0.004925	6.88811	17.0517	30.5503
  60	1	5	0.039247	6.14503	14.1613	32.9069
  61	1	5	0.062128	6.12879	14.6651	31.1856
  62	1	5	0.003131	4.64095	16.6541	30.4521
  63	1	5	0.00404	3.7967	15.2035	32.2807
  64	1	5	0.021644	8.67347	23.1165	32.7686
  65	1	5	0.012129	7.34591	24.1607	33.3323
  66	1	5	0.009331	8.79901	21.9863	34.9006
  67	1	5	0.018167	8.46509	23.6566	35.4169
  68	1	2	-0.164337	-3.29662	24.4477	33.3508
  69	1	5	0.06697	-4.1703	24.6559	32.7217
  70	1	5	0.100055	-2.87045	23.4845	33.0452
  71	1	2	0.054914	0.8939	28.7345	32.9461
  72	1	5	0.026242	1.71067	28.3637	32.3147
  73	1	5	-0.001285	0.509657	29.6578	32.495
  74	1	1	0.066869	-2.15373	21.422	18.2819
  75	1	1	0.053974	-2.81999	20.5539	19.1305
  76	1	1	-0.117882	-3.92756	20.9341	19.9184
  77	1	1	-0.084276	-4.37599	22.2394	19.624
  78	1	1	-0.157972	-2.50097	22.7734	18.1122
  79	1	2	0.004935	-4.97727	23.9597	21.6945
  80	1	1	-0.170374	-3.69381	23.0992	18.7772
  81	1	3	0.154019	-4.36455	24.3415	19.3294
  82	1	3	0.051574	-5.19771	23.3648	20.2653
  83	1	3	0.007409	-3.53315	23.5252	22.019
  84	1	2	0.007138	-3.6606	25.3161	20.3262
  85	1	1	-0.211215	-3.19623	24.7229	24.4415
  86	1	3	-0.023783	-2.62607	24.4036	21.0613
  87	1	2	-0.253384	-4.80655	25.4715	21.3666
  88	1	1	-0.027691	-2.01002	24.9485	22.3366
  89	1	1	-0.014027	-2.84712	24.2435	23.1692
  90	1	1	-0.211541	-1.29373	26.0816	22.7321
  91	1	1	-0.003037	-1.45609	26.4501	24.0836
  92	1	4	-0.005095	-2.43801	25.8332	24.8988
  93	1	2	0.078204	-0.803528	27.6407	24.7979
  94	1	3	-0.018845	-3.15437	29.3192	29.2545
  95	1	4	0.006574	-2.60353	26.6556	26.1114
  96	1	1	0.013723	-1.65722	27.7169	26.0678
  97	1	1	-0.173541	-1.61712	28.7301	27.0543
  98	1	1	-0.072264	-2.57935	28.5885	28.0573
  99	1	1	-0.030211	-3.51084	27.5865	28.091
 100	1	3	0.009457	-4.24331	28.1542	29.2962
 101	1	1	-0.176921	-3.60249	26.5858	27.1189
 102	1	2	0.038799	-2.46311	29.2016	30.6335
 103	1	2	0.012799	-1.60313	27.9046	30.7117
 104	1	2	-0.181835	-3.69839	28.8311	31.4878
 105	1	2	-0.004967	-2.69486	26.7545	30.782
 106	1	2	0.05243	-4.03671	27.5401	30.7058
 107	1	2	-0.049676	0.688485	27.3748	25.0861
 108	1	2	-0.040251	1.43888	27.877	23.841
 109	1	5	0.031595	1.00817	27.9603	25.958
 110	1	5	0.022689	0.894284	26.3166	25.2944
 111	1	2	-0.037258	0.5777	29.0183	23.2631
 112	1	2	0.002978	-0.811221	28.925	23.937
 113	1	5	0.016721	-1.62275	28.9089	23.2001
 114	1	5	-0.000468	-0.959017	29.8106	24.5676
 115	1	5	0.056924	-3.72263	19.9885	21.8597
 116	1	5	0.029852	-2.00983	24.0356	16.4247
 117	1	5	0.043077	-5.73547	23.7093	22.4471
 118	1	5	0.016056	-4.97582	24.8937	18.6075
 119	1	5	0.041103	-6.26673	23.3357	20.0288
 120	1	5	0.055216	-3.37304	22.4453	22.0272
 121	1	5	0.041749	-3.26699	26.2451	19.8974
 122	1	6	0.155314	-4.03175	24.3192	25.0043
 123	1	5	0.049935	-1.90783	23.9008	20.4119
 124	1	5	0.098652	-4.51601	26.0766	22.2363
 125	1	5	0.045245	-5.7182	25.9003	20.9311
 126	1	6	0.165622	-0.697705	26.6648	22.0419
 127	1	5	0.050235	-3.54094	30.3277	29.0704
 128	1	6	0.152615	-0.929073	29.5689	27.0152
 129	1	5	0.037653	-5.27777	28.4723	29.1312
 130	1	6	0.137195	-4.3896	25.8401	27.1111
 131	1	5	0.010736	-1.93593	30.1056	30.9631
 132	1	5	-0.004925	-0.84477	27.7702	29.9296
 133	1	5	0.039247	-4.49688	29.5837	31.4253
 134	1	5	0.062128	-3.47041	28.6613	32.5484
 135	1	5	0.003131	-2.55109	25.9666	30.0337
 136	1	5	0.00404	-4.89851	26.986	31.0982
 137	1	5	0.021644	2.45517	28.2119	24.0845
 138	1	5	0.012129	1.51796	27.0657	23.1055
 139	1	5	0.009331	1.03519	29.9914	23.4831
 140	1	5	0.018167	0.499599	28.9242	22.1733
 141	1	2	-0.164337	-4.46732	20.0919	21.0609
 142	1	5	0.06697	-5.36855	20.5411	21.4963
 143	1	5	0.100055	-4.72918	19.0851	20.7133
 144	1	2	0.054914	-1.62079	23.801	17.423
 145	1	5	0.026242	-1.57841	24.7361	17.9941
 146	1	5	-0.001285	-0.59635	23.4343	17.3027
 147	1	1	0.066869	-0.884252	22.3781	29.7297
 148	1	1	0.053974	-1.19384	21.0336	29.8976
 149	1	1	-0.117882	-0.259513	20.089	30.3532
 150	1	1	-0.084276	0.949547	20.6656	30.7729
 151	1	1	-0.157972	0.359108	22.9426	30.0781
 152	1	2	0.004935	3.12334	19.6521	29.5245
 153	1	1	-0.170374	1.24578	22.0174	30.668
 154	1	3	0.154019	2.76449	21.7886	30.7402
 155	1	3	0.051574	2.40679	20.2448	30.7826
 156	1	3	0.007409	2.34808	20.2841	28.3207
 157	1	2	0.007138	3.77034	21.8895	29.5493
 158	1	1	-0.211215	2.65699	19.6015	25.7232
 159	1	3	-0.023783	2.83303	21.7874	28.3328
 160	1	2	-0.253384	4.43545	20.4821	29.5826
 161	1	1	-0.027691	3.4751	21.4953	26.9975
 162	1	1	-0.014027	2.99442	20.2038	26.9453
 163	1	1	-0.211541	3.78153	22.263	25.8704
 164	1	1	-0.003037	3.63332	21.6013	24.6361
 165	1	4	-0.005095	3.04665	20.3138	24.559
 166	1	2	0.078204	3.833	22.2136	23.2465
 167	1	3	-0.018845	1.31022	20.02	19.3138
 168	1	4	0.006574	2.77851	20.0189	23.1407
 169	1	1	0.013723	3.28773	21.0861	22.3634
 170	1	1	-0.173541	3.06032	21.1653	20.9777
 171	1	1	-0.072264	2.36247	20.096	20.4021
 172	1	1	-0.030211	1.76196	19.1173	21.1757
 173	1	3	0.009457	0.591184	18.9423	20.217
 174	1	1	-0.176921	1.90954	19.0554	22.5697
 175	1	2	0.038799	0.273806	21.1566	19.2276
 176	1	2	0.012799	-0.867199	20.6265	18.3129
 177	1	2	-0.181835	-0.371939	21.1161	20.635
 178	1	2	-0.004967	-1.62983	19.6079	19.2554
 179	1	2	0.05243	-0.76522	19.625	20.5533
 180	1	2	-0.049676	3.04732	23.54	23.0342
 181	1	2	-0.040251	4.02446	24.552	22.3993
 182	1	5	0.031595	2.17917	23.3865	22.3799
 183	1	5	0.022689	2.66148	23.941	23.9798
 184	1	2	-0.037258	5.26505	23.7483	21.974
 185	1	2	0.002978	5.30845	22.5447	22.93
 186	1	5	0.016721	5.82882	22.8404	23.8503
 187	1	5	-0.000468	5.84794	21.6926	22.4964
 188	1	5	0.056924	0.520108	18.0655	30.2066
 189	1	5	0.029852	1.80705	24.5576	29.9052
 190	1	5	0.043077	3.2416	18.5635	29.5026
 191	1	5	0.016056	3.23966	22.1667	31.6462
 192	1	5	0.041103	2.73584	19.7375	31.6945
 193	1	5	0.055216	1.27857	20.0674	28.2996
 194	1	5	0.041749	4.45171	22.7493	29.5625
 195	1	6	0.155314	2.05769	18.6984	25.6664
 196	1	5	0.049935	2.10107	22.5889	28.2596
 197	1	5	0.098652	5.09879	20.2964	28.7273
 198	1	5	0.045245	4.99868	20.3094	30.5104
 199	1	6	0.165622	4.01811	23.3203	25.9376
 200	1	5	0.050235	1.66387	19.6835	18.3345
 201	1	6	0.152615	3.27607	22.0741	20.4313
 202	1	5	0.037653	0.473571	17.956	19.7722
 203	1	6	0.137195	1.30653	18.3939	23.1843
 204	1	5	0.010736	0.673882	22.1332	18.9356
 205	1	5	-0.004925	-0.557603	20.2051	17.3475
 206	1	5	0.039247	-1.22864	21.7859	20.7527
 207	1	5	0.062128	0.323138	21.3408	21.4528
 208	1	5	0.003131	-1.79108	18.6241	18.8052
 209	1	5	0.00404	-1.27718	19.2363	21.4422
 210	1	5	0.021644	3.5728	25.0821	21.5511
 211	1	5	0.012129	4.31276	25.299	23.1503
 212	1	5	0.009331	5.14475	23.3983	20.9412
 213	1	5	0.018167	6.18205	24.3488	22.0249
 214	1	2	-0.164337	-0.439586	18.5933	30.1611
 215	1	5	0.06697	-1.08441	18.1788	30.9456
 216	1	5	0.100055	-0.904933	18.37	29.1938
 217	1	2	0.054914	0.754691	24.3537	29.6717
 218	1	5	0.026242	0.608417	24.5137	28.5961
 219	1	5	-0.001285	0.146126	25.0939	30.2056
 220	1	1	0.066869	-14.7569	18.4835	25.8016
 221	1	1	0.053974	-14.4894	17.6283	26.8545
 222	1	1	-0.117882	-14.4445	18.0207	28.2
 223	1	1	-0.084276	-14.8751	19.3449	28.3756
 224	1	1	-0.157972	-15.0156	19.8598	25.9732
 225	1	2	0.004935	-13.2885	20.9185	29.8866
 226	1	1	-0.170374	-15.149	20.2193	27.3338
 227	1	3	0.154019	-15.0622	21.4642	28.2293
 228	1	3	0.051574	-14.6926	20.45	29.3949
 229	1	3	0.007409	-12.3516	20.5884	28.68
 230	1	2	0.007138	-13.8807	22.489	28.263
 231	1	1	-0.211215	-9.81005	21.2452	29.4509
 232	1	3	-0.023783	-12.7333	21.6935	27.6061
 233	1	2	-0.253384	-13.4924	22.456	29.7713
 234	1	1	-0.027691	-11.3249	22.2245	27.8041
 235	1	1	-0.014027	-10.9797	21.2336	28.6866
 236	1	1	-0.211541	-10.6139	23.4274	27.6967
 237	1	1	-0.003037	-9.39161	23.4551	28.41
 238	1	4	-0.005095	-8.97534	22.3673	29.2187
 239	1	2	0.078204	-8.3905	24.6142	28.5032
 240	1	3	-0.018845	-3.63014	23.2944	30.0208
 241	1	4	0.006574	-7.65094	22.6766	29.7741
 242	1	1	0.013723	-7.29189	23.9867	29.3786
 243	1	1	-0.173541	-5.98389	24.4779	29.5786
 244	1	1	-0.072264	-5.09416	23.623	30.2458
 245	1	1	-0.030211	-5.42339	22.3139	30.5554
 246	1	3	0.009457	-4.00881	21.797	30.3356
 247	1	1	-0.176921	-6.69121	21.7778	30.2966
 248	1	2	0.038799	-3.13297	23.2398	28.5631
 249	1	2	0.012799	-1.76716	22.5139	28.4959
 250	1	2	-0.181835	-4.03295	22.1509	27.9343
 251	1	2	-0.004967	-2.16217	21.0053	28.7343
 252	1	2	0.05243	-3.69567	21.0759	28.992
 253	1	2	-0.049676	-7.85348	25.0898	27.1308
 254	1	2	-0.040251	-7.65618	26.6193	27.2314
 255	1	5	0.031595	-6.92089	24.5783	26.8588
 256	1	5	0.022689	-8.58405	24.876	26.3402
 257	1	2	-0.037258	-8.13909	27.0448	28.6324
 258	1	2	0.002978	-8.99025	25.8772	29.1547
 259	1	5	0.016721	-10.0268	26.0147	28.8207
 260	1	5	-0.000468	-8.99202	25.825	30.2513
 261	1	5	0.056924	-14.0198	17.611	30.2904
 262	1	5	0.029852	-15.2337	21.8694	25.1757
 263	1	5	0.043077	-12.9693	20.5423	30.8667
 264	1	5	0.016056	-16.0161	21.9814	28.3809
 265	1	5	0.041103	-15.4115	20.4413	30.2213
 266	1	5	0.055216	-12.3372	19.5434	28.3635
 267	1	5	0.041749	-14.0856	23.479	27.8367
 268	1	6	0.155314	-9.57466	20.4773	30.1807
 269	1	5	0.049935	-12.9309	21.3652	26.5839
 270	1	5	0.098652	-12.5816	23.0271	29.9974
 271	1	5	0.045245	-14.3027	22.8199	30.4178
 272	1	6	0.165622	-10.9867	24.2775	27.1339
 273	1	5	0.050235	-2.9202	23.7764	30.6967
 274	1	6	0.152615	-5.64194	25.3979	29.1181
 275	1	5	0.037653	-3.5298	21.3365	31.2063
 276	1	6	0.137195	-6.88185	20.7105	30.3451
 277	1	5	0.010736	-3.13614	24.1946	28.036
 278	1	5	-0.004925	-1.22133	22.6523	27.553
 279	1	5	0.039247	-3.7158	21.8704	26.9195
 280	1	5	0.062128	-5.09656	22.4153	27.8981
 281	1	5	0.003131	-1.86413	20.3615	27.896
 282	1	5	0.00404	-4.21308	20.1193	28.8476
 283	1	5	0.021644	-6.60682	26.9002	27.0795
 284	1	5	0.012129	-8.25221	27.1212	26.4583
 285	1	5	0.009331	-7.27693	27.1889	29.2945
 286	1	5	0.018167	-8.70569	27.9841	28.6047
 287	1	2	-0.164337	-13.8257	17.1784	29.3011
 288	1	5	0.06697	-14.2381	16.1619	29.2935
 289	1	5	0.100055	-12.7389	17.1023	29.1732
 290	1	2	0.054914	-15.0042	20.8551	24.8264
 291	1	5	0.026242	-14.0219	20.88	24.3384
 292	1	5	-0.001285	-15.7495	20.584	24.0685
 293	1	1	0.066869	-13.9499	4.08794	23.0695
 294	1	1	0.053974	-14.1607	4.32782	24.4143
 295	1	1	-0.117882	-15.4104	4.60699	24.988
 296	1	1	-0.084276	-16.4535	4.51438	24.0501
 297	1	1	-0.157972	-14.9705	4.2132	22.1043
 298	1	2	0.004935	-18.1973	6.5801	24.0441
 299	1	1	-0.170374	-16.248	4.36331	22.686
 300	1	3	0.154019	-17.641	4.88457	22.3142
 301	1	3	0.051574	-17.8558	5.07012	23.8774
 302	1	3	0.007409	-16.8448	7.27874	23.7175
 303	1	2	0.007138	-17.9562	6.30699	21.7363
 304	1	1	-0.211215	-17.0652	9.97177	24.1446
 305	1	3	-0.023783	-16.7087	7.13047	22.1401
 306	1	2	-0.253384	-19.0313	6.80041	22.7493
 307	1	1	-0.027691	-16.8247	8.64971	22.1062
 308	1	1	-0.014027	-16.9061	8.7649	23.4661
 309	1	1	-0.211541	-16.9908	9.73116	21.2295
 310	1	1	-0.003037	-17.1361	10.9858	21.8767
 311	1	4	-0.005095	-17.1424	11.1	23.2917
 312	1	2	0.078204	-17.2889	12.3708	21.225
 313	1	3	-0.018845	-16.3122	16.4549	24.3272
 314	1	4	0.006574	-17.2248	12.5192	23.6498
 315	1	1	0.013723	-17.3207	13.2834	22.4643
 316	1	1	-0.173541	-17.2158	14.6938	22.4916
 317	1	1	-0.072264	-17.1075	15.2818	23.7645
 318	1	1	-0.030211	-16.9442	14.5196	24.9075
 319	1	3	0.009457	-16.0824	15.5528	25.6034
 320	1	1	-0.176921	-16.9462	13.1219	24.8964
 321	1	2	0.038799	-14.878	16.6859	23.7968
 322	1	2	0.012799	-14.0646	17.5896	24.7758
 323	1	2	-0.181835	-14.1966	15.327	24.0877
 324	1	2	-0.004967	-13.7866	16.6098	25.9922
 325	1	2	0.05243	-14.544	15.3164	25.5935
 326	1	2	-0.049676	-16.1133	12.7024	20.2664
 327	1	2	-0.040251	-16.7495	13.2365	18.9716
 328	1	5	0.031595	-15.4097	13.4263	20.6972
 329	1	5	0.022689	-15.5429	11.7939	20.0346
 330	1	2	-0.037258	-18.1332	12.5739	18.9139
 331	1	2	0.002978	-18.584	12.4863	20.3815
 332	1	5	0.016721	-19.2679	11.6432	20.5445
 333	1	5	-0.000468	-19.1233	13.4061	20.6436
 334	1	5	0.056924	-15.0496	6.07752	26.541
 335	1	5	0.029852	-15.6297	4.32074	20.0375
 336	1	5	0.043077	-18.6769	6.86733	24.9882
 337	1	5	0.016056	-18.3025	4.13626	21.8638
 338	1	5	0.041103	-18.6538	4.44509	24.2927
 339	1	5	0.055216	-16.0002	6.9982	24.3474
 340	1	5	0.041749	-18.2365	6.34717	20.6764
 341	1	6	0.155314	-17.1169	10.04	25.2264
 342	1	5	0.049935	-15.7653	6.75013	21.7405
 343	1	5	0.098652	-19.3184	7.84992	22.5971
 344	1	5	0.045245	-19.9391	6.18213	22.7274
 345	1	6	0.165622	-16.992	9.61816	20.1499
 346	1	5	0.050235	-16.8764	17.3829	24.4718
 347	1	6	0.152615	-17.1023	15.2761	21.5824
 348	1	5	0.037653	-16.4726	15.9253	26.5567
 349	1	6	0.137195	-16.6244	12.5398	25.7538
 350	1	5	0.010736	-14.8207	17.0045	22.7485
 351	1	5	-0.004925	-13.1357	18.0001	24.3584
 352	1	5	0.039247	-13.1137	15.3439	23.8979
 353	1	5	0.062128	-14.6247	14.4832	23.533
 354	1	5	0.003131	-12.7153	16.4822	26.1967
 355	1	5	0.00404	-14.2074	14.4223	26.133
 356	1	5	0.021644	-16.8665	14.326	19.0403
 357	1	5	0.012129	-16.1427	13.0086	18.0861
 358	1	5	0.009331	-18.8403	13.1414	18.2956
 359	1	5	0.018167	-18.0403	11.5631	18.4958
 360	1	2	-0.164337	-15.5843	5.12956	26.4033
 361	1	5	0.06697	-16.6418	5.30134	26.639
 362	1	5	0.100055	-15.1911	4.41188	27.1339
 363	1	2	0.054914	-14.6975	4.33424	20.6158
 364	1	5	0.026242	-14.1728	5.27043	20.3887
 365	1	5	-0.001285	-14.0723	3.50392	20.2649
 366	1	1	0.066869	-1.84957	2.78763	29.3609
 367	1	1	0.053974	-2.83565	3.55895	29.9445
 368	1	1	-0.117882	-3.769	3.06109	30.8751
 369	1	1	-0.084276	-3.49851	1.72401	31.2405
 370	1	1	-0.157972	-1.70508	1.4076	29.5745
 371	1	2	0.004935	-5.59017	-0.0509429	31.3314
 372	1	1	-0.170374	-2.54108	0.945345	30.6061
 373	1	3	0.154019	-3.1521	-0.36873	31.0634
 374	1	3	0.051574	-4.22491	0.513576	31.8354
 375	1	3	0.007409	-5.66915	0.524239	29.9007
 376	1	2	0.007138	-4.01247	-1.28543	30.1343
 377	1	1	-0.211215	-7.94954	0.265037	28.4936
 378	1	3	-0.023783	-4.58827	-0.289831	29.0799
 379	1	2	-0.253384	-5.22197	-1.54184	31.0784
 380	1	1	-0.027691	-5.75524	-0.774076	28.2309
 381	1	1	-0.014027	-6.69322	-0.0997859	28.9797
 382	1	1	-0.211541	-5.96028	-1.07725	26.8755
 383	1	1	-0.003037	-7.2601	-0.812417	26.3771
 384	1	4	-0.005095	-8.24057	-0.186357	27.1852
 385	1	2	0.078204	-7.74793	-0.903354	24.9173
 386	1	3	-0.018845	-12.0804	1.89313	23.7844
 387	1	4	0.006574	-9.40453	0.137009	26.354
 388	1	1	0.013723	-9.13119	-0.236726	25.0175
 389	1	1	-0.173541	-9.98521	0.160868	23.9596
 390	1	1	-0.072264	-11.1785	0.794886	24.3463
 391	1	1	-0.030211	-11.4514	1.12144	25.6592
 392	1	3	0.009457	-12.3755	2.25852	25.2958
 393	1	1	-0.176921	-10.5484	0.890555	26.6995
 394	1	2	0.038799	-11.4244	3.19255	23.2388
 395	1	2	0.012799	-12.4556	4.36632	23.1571
 396	1	2	-0.181835	-10.6089	3.68571	24.4571
 397	1	2	-0.004967	-12.7173	4.69223	24.6874
 398	1	2	0.05243	-11.806	3.69003	25.4361
 399	1	2	-0.049676	-6.77837	-0.198579	23.9386
 400	1	2	-0.040251	-5.85983	-1.29473	23.3554
 401	1	5	0.031595	-7.33617	0.266502	23.1166
 402	1	5	0.022689	-6.20241	0.595081	24.4322
 403	1	2	-0.037258	-6.4307	-2.65352	23.8124
 404	1	2	0.002978	-7.81589	-2.35891	24.4143
 405	1	5	0.016721	-8.08053	-3.0663	25.2109
 406	1	5	-0.000468	-8.57241	-2.44161	23.6228
 407	1	5	0.056924	-4.7124	4.78341	31.7881
 408	1	5	0.029852	0.134007	0.910121	28.5425
 409	1	5	0.043077	-6.45992	0.133439	31.9745
 410	1	5	0.016056	-2.51568	-0.971413	31.7209
 411	1	5	0.041103	-4.15872	0.433532	32.9257
 412	1	5	0.055216	-5.67213	1.61401	29.8512
 413	1	5	0.041749	-3.51025	-2.17584	29.736
 414	1	6	0.155314	-8.60754	0.936918	29.0345
 415	1	5	0.049935	-3.83165	0.252448	28.5074
 416	1	5	0.098652	-6.02924	-2.11042	30.5969
 417	1	5	0.045245	-4.92921	-2.06077	32.0014
 418	1	6	0.165622	-5.14531	-1.39314	26.2331
 419	1	5	0.050235	-12.9312	1.54996	23.1856
 420	1	6	0.152615	-9.70549	0.0518071	22.9165
 421	1	5	0.037653	-13.4073	2.14983	25.6472
 422	1	6	0.137195	-10.674	1.33445	27.6815
 423	1	5	0.010736	-10.8326	3.06001	22.3245
 424	1	5	-0.004925	-12.1123	5.2468	22.598
 425	1	5	0.039247	-10.1779	4.68574	24.306
 426	1	5	0.062128	-9.79953	3.00597	24.7523
 427	1	5	0.003131	-12.5422	5.74949	24.9265
 428	1	5	0.00404	-11.5584	3.99403	26.4608
 429	1	5	0.021644	-5.84419	-1.23101	22.2597
 430	1	5	0.012129	-4.82935	-1.17313	23.7131
 431	1	5	0.009331	-6.49506	-3.36893	22.9827
 432	1	5	0.018167	-5.77924	-3.08787	24.5815
 433	1	2	-0.164337	-4.99852	3.83416	31.3185
 434	1	5	0.06697	-5.64754	4.06385	30.4643
 435	1	5	0.100055	-5.58738	3.26399	32.0475
 436	1	2	0.054914	-0.875003	0.502761	28.6821
 437	1	5	0.026242	-0.775231	-0.500338	29.1151
 438	1	5	-0.001285	-1.3372	0.398842	27.6927
 439	1	1	0.066869	1.67427	14.5144	23.8907
 440	1	1	0.053974	0.322196	14.5451	24.1793
 441	1	1	-0.117882	-0.202967	15.0741	25.3728
 442	1	1	-0.084276	0.771519	15.7393	26.1416
 443	1	1	-0.157972	2.66697	15.0542	24.7272
 444	1	2	0.004935	0.889725	15.1175	28.8024
 445	1	1	-0.170374	2.12412	15.7427	25.8303
 446	1	3	0.154019	2.54903	16.1182	27.2472
 447	1	3	0.051574	1.00199	16.1163	27.6018
 448	1	3	0.007409	1.11633	13.7347	28.135
 449	1	2	0.007138	3.16243	15.1143	28.2709
 450	1	1	-0.211215	0.810595	11.4122	29.5003
 451	1	3	-0.023783	2.64978	13.7451	27.7498
 452	1	2	-0.253384	2.24972	15.3786	29.5047
 453	1	1	-0.027691	2.79828	12.5684	28.687
 454	1	1	-0.014027	1.46706	12.5645	29.0451
 455	1	1	-0.211541	3.58464	11.4114	28.678
 456	1	1	-0.003037	2.97525	10.257	29.213
 457	1	4	-0.005095	1.63048	10.2646	29.6604
 458	1	2	0.078204	3.5431	8.83331	29.1855
 459	1	3	-0.018845	0.0324933	4.97193	29.8152
 460	1	4	0.006574	1.2455	8.88049	29.9919
 461	1	1	0.013723	2.33048	8.02681	29.6701
 462	1	1	-0.173541	2.16767	6.62483	29.6241
 463	1	1	-0.072264	0.946127	6.14783	30.1117
 464	1	1	-0.030211	-0.0796633	6.97016	30.5266
 465	1	3	0.009457	-1.13894	5.89594	30.3463
 466	1	1	-0.176921	-0.0175744	8.36318	30.3781
 467	1	2	0.038799	-0.371573	4.71979	28.3313
 468	1	2	0.012799	-1.59891	3.76783	28.2393
 469	1	2	-0.181835	-1.09183	6.03061	27.9424
 470	1	2	-0.004967	-2.77156	4.63532	28.8655
 471	1	2	0.05243	-2.08244	6.00604	29.1311
 472	1	2	-0.049676	4.03038	8.37133	27.7895
 473	1	2	-0.040251	5.23392	7.43137	28.024
 474	1	5	0.031595	3.23219	7.87426	27.2229
 475	1	5	0.022689	4.3644	9.22878	27.1927
 476	1	2	-0.037258	5.53363	7.44943	29.5369
 477	1	2	0.002978	4.76565	8.65336	30.1077
 478	1	5	0.016721	5.40585	9.54358	30.0526
 479	1	5	-0.000468	4.48276	8.50397	31.1578
 480	1	5	0.056924	-1.77816	13.7162	25.9868
 481	1	5	0.029852	4.50224	15.1	23.5784
 482	1	5	0.043077	-0.005746	15.2105	29.4296
 483	1	5	0.016056	3.02689	17.0989	27.3422
 484	1	5	0.041103	0.61912	17.102	27.8799
 485	1	5	0.055216	0.377517	13.4795	27.3724
 486	1	5	0.041749	4.24394	15.1938	28.4371
 487	1	6	0.155314	-0.267696	11.3679	29.6129
 488	1	5	0.049935	2.94977	13.4995	26.7309
 489	1	5	0.098652	2.44154	14.688	30.3364
 490	1	5	0.045245	2.32935	16.4072	29.8767
 491	1	6	0.165622	4.55203	11.3809	28.1867
 492	1	5	0.050235	0.241055	4.05784	30.3817
 493	1	6	0.152615	2.90498	5.96514	29.1787
 494	1	5	0.037653	-1.6451	5.578	31.2645
 495	1	6	0.137195	-0.894691	8.99413	30.4777
 496	1	5	0.010736	0.455539	4.44099	27.6665
 497	1	5	-0.004925	-1.83503	3.40052	27.2317
 498	1	5	0.039247	-1.59607	5.96946	26.9674
 499	1	5	0.062128	-0.43142	6.90694	27.931
 500	1	5	0.003131	-3.64823	4.68009	28.206
 501	1	5	0.00404	-2.77703	6.85481	29.161
 502	1	5	0.021644	5.01118	6.41108	27.6862
 503	1	5	0.012129	6.10384	7.79003	27.4587
 504	1	5	0.009331	5.16237	6.52494	29.9973
 505	1	5	0.018167	6.60961	7.5196	29.7411
 506	1	2	-0.164337	-1.61395	14.7933	25.8586
 507	1	5	0.06697	-1.81024	15.2814	26.8212
 508	1	5	0.100055	-2.35429	15.1632	25.1384
 509	1	2	0.054914	4.14674	14.7573	24.558
 510	1	5	0.026242	4.74553	15.2612	25.3269
 511	1	5	-0.001285	4.34235	13.6802	24.6297
 512	1	1	0.066869	-6.73917	19.8408	10.2316
 513	1	1	0.053974	-7.6379	19.7607	11.277
 514	1	1	-0.117882	-7.29213	19.9596	12.6257
 515	1	1	-0.084276	-5.90484	20.0737	12.816
 516	1	1	-0.157972	-5.37215	20.1378	10.4114
 517	1	2	0.004935	-4.21997	20.0997	14.9333
 518	1	1	-0.170374	-4.99189	20.1611	11.7703
 519	1	3	0.154019	-3.97243	20.9312	12.608
 520	1	3	0.051574	-5.01221	20.8166	13.7975
 521	1	3	0.007409	-4.09108	18.648	14.3867
 522	1	2	0.007138	-2.67499	20.2977	13.1968
 523	1	1	-0.211215	-2.78467	17.2578	16.3467
 524	1	3	-0.023783	-3.01794	18.7864	13.222
 525	1	2	-0.253384	-2.80611	20.7043	14.693
 526	1	1	-0.027691	-2.13355	17.897	14.0827
 527	1	1	-0.014027	-3.07473	17.7525	15.07
 528	1	1	-0.211541	-0.772491	17.6361	14.2895
 529	1	1	-0.003037	-0.459988	17.0203	15.5219
 530	1	4	-0.005095	-1.44909	16.8103	16.5176
 531	1	2	0.078204	0.929483	16.5924	16.0205
 532	1	3	-0.018845	1.28493	14.9989	21.065
 533	1	4	0.006574	-0.800014	16.2233	17.7016
 534	1	1	0.013723	0.589992	16.0996	17.4315
 535	1	1	-0.173541	1.50684	15.6561	18.413
 536	1	1	-0.072264	0.916018	15.3105	19.6303
 537	1	1	-0.030211	-0.425608	15.4023	19.889
 538	1	3	0.009457	-0.274528	15.093	21.3683
 539	1	1	-0.176921	-1.35702	15.8856	18.9648
 540	1	2	0.038799	1.62231	13.5323	21.414
 541	1	2	0.012799	1.55189	13.3257	22.952
 542	1	2	-0.181835	0.333231	12.7808	21.0065
 543	1	2	-0.004967	-0.00343395	13.3857	23.2554
 544	1	2	0.05243	-0.619297	13.659	21.8508
 545	1	2	-0.049676	1.5617	15.4988	15.1293
 546	1	2	-0.040251	2.60071	16.192	14.2213
 547	1	5	0.031595	2.07443	14.7536	15.7509
 548	1	5	0.022689	0.802666	14.9671	14.5425
 549	1	2	-0.037258	2.69568	17.6623	14.673
 550	1	2	0.002978	1.94805	17.7536	16.0148
 551	1	5	0.016721	1.46646	18.7278	16.1559
 552	1	5	-0.000468	2.67418	17.6227	16.827
 553	1	5	0.056924	-9.31252	19.93	13.4227
 554	1	5	0.029852	-4.97367	20.5485	8.3157
 555	1	5	0.043077	-4.62614	20.2026	15.9478
 556	1	5	0.016056	-3.76816	21.9494	12.2586
 557	1	5	0.041103	-5.41728	21.7675	14.1603
 558	1	5	0.055216	-5.04062	18.1508	14.1602
 559	1	5	0.041749	-1.74436	20.5754	12.6917
 560	1	6	0.155314	-3.51527	17.2456	17.149
 561	1	5	0.049935	-3.26838	18.3599	12.2439
 562	1	5	0.098652	-2.03426	20.2555	15.3319
 563	1	5	0.045245	-2.789	21.7937	14.8339
 564	1	6	0.165622	-0.0120731	17.8897	13.5613
 565	1	5	0.050235	1.94947	15.7265	21.5444
 566	1	6	0.152615	2.58058	15.6317	18.2542
 567	1	5	0.037653	-0.620352	15.8773	22.0507
 568	1	6	0.137195	-2.40325	16.0381	19.2086
 569	1	5	0.010736	2.5404	13.1457	20.9541
 570	1	5	-0.004925	2.01099	12.3973	23.3167
 571	1	5	0.039247	0.335818	11.7281	21.3237
 572	1	5	0.062128	0.124695	12.8146	19.9293
 573	1	5	0.003131	-0.367416	12.4782	23.7551
 574	1	5	0.00404	-1.67903	13.3866	21.7703
 575	1	5	0.021644	3.57558	15.6977	14.321
 576	1	5	0.012129	2.30402	16.1349	13.1667
 577	1	5	0.009331	3.73779	17.9923	14.7703
 578	1	5	0.018167	2.21412	18.3039	13.9272
 579	1	2	-0.164337	-8.30377	20.2406	13.7223
 580	1	5	0.06697	-8.045	19.6973	14.6395
 581	1	5	0.100055	-8.3369	21.3102	13.9621
 582	1	2	0.054914	-4.45355	20.5673	9.28112
 583	1	5	0.026242	-4.08344	21.5871	9.44142
 584	1	5	-0.001285	-3.58698	19.8992	9.20846
 585	1	1	0.066869	-4.3376	31.5419	18.2793
 586	1	1	0.053974	-4.99193	30.5047	18.9154
 587	1	1	-0.117882	-5.48463	29.3711	18.2581
 588	1	1	-0.084276	-5.35522	29.4423	16.8649
 589	1	1	-0.157972	-4.08479	31.5471	16.8903
 590	1	2	0.004935	-5.92723	27.8129	14.8158
 591	1	1	-0.170374	-4.68938	30.4738	16.1993
 592	1	3	0.154019	-4.16941	29.5382	15.1027
 593	1	3	0.051574	-4.94037	28.3905	15.8621
 594	1	3	0.007409	-6.95612	28.974	14.6376
 595	1	2	0.007138	-4.74391	29.4483	13.654
 596	1	1	-0.211215	-8.4575	27.7112	12.8804
 597	1	3	-0.023783	-6.16342	30.0537	13.8101
 598	1	2	-0.253384	-5.02029	27.9176	13.558
 599	1	1	-0.027691	-7.14079	29.7619	12.6753
 600	1	1	-0.014027	-7.86596	28.8514	13.4329
 601	1	1	-0.211541	-6.89933	29.5436	11.3065
 602	1	1	-0.003037	-7.50394	28.4059	10.724
 603	1	4	-0.005095	-8.31008	27.5334	11.4886
 604	1	2	0.078204	-7.13476	27.7544	9.38051
 605	1	3	-0.018845	-7.54134	22.5769	9.45627
 606	1	4	0.006574	-8.5137	26.2876	10.739
 607	1	1	0.013723	-7.77104	26.3608	9.53835
 608	1	1	-0.173541	-7.45287	25.186	8.8182
 609	1	1	-0.072264	-8.04853	24.0004	9.27454
 610	1	1	-0.030211	-8.84303	23.9472	10.4053
 611	1	3	0.009457	-8.48417	22.5103	10.7181
 612	1	1	-0.176921	-9.02918	25.0632	11.2253
 613	1	2	0.038799	-8.0998	21.4578	8.55087
 614	1	2	0.012799	-7.82676	20.0552	9.1802
 615	1	2	-0.181835	-9.6204	21.5547	8.81021
 616	1	2	-0.004967	-8.84602	19.9976	10.3922
 617	1	2	0.05243	-9.50931	21.4048	10.3447
 618	1	2	-0.049676	-7.70243	28.511	8.1644
 619	1	2	-0.040251	-6.81608	28.0919	6.97925
 620	1	5	0.031595	-8.76297	28.2882	7.98909
 621	1	5	0.022689	-7.60338	29.5929	8.32324
 622	1	2	-0.037258	-5.42834	27.7796	7.57611
 623	1	2	0.002978	-5.61105	27.6677	9.10614
 624	1	5	0.016721	-5.0795	28.5009	9.57991
 625	1	5	-0.000468	-5.17307	26.742	9.50148
 626	1	5	0.056924	-6.82664	27.7272	18.6832
 627	1	5	0.029852	-3.57622	33.0979	15.4677
 628	1	5	0.043077	-6.34164	26.8216	15.0386
 629	1	5	0.016056	-3.07925	29.4302	15.0771
 630	1	5	0.041103	-4.30938	27.5912	16.2663
 631	1	5	0.055216	-7.46848	29.2928	15.5518
 632	1	5	0.041749	-4.11983	29.8781	12.8606
 633	1	6	0.155314	-8.81273	26.9044	13.5124
 634	1	5	0.049935	-6.17529	31.0876	14.1732
 635	1	5	0.098652	-5.52906	27.6159	12.635
 636	1	5	0.045245	-4.10218	27.3217	13.6538
 637	1	6	0.165622	-6.1302	30.1033	10.7847
 638	1	5	0.050235	-6.46265	22.5007	9.61332
 639	1	6	0.152615	-6.69051	25.1734	8.04637
 640	1	5	0.037653	-8.02543	22.3667	11.6996
 641	1	6	0.137195	-9.40719	24.9649	12.2373
 642	1	5	0.010736	-7.81378	21.533	7.49415