pySIMM System Object

2084 atoms
2428 bonds
5040 angles
9316 dihedrals
168 impropers

6 atom types
11 bond types
24 angle types
21 dihedral types
2 improper types

-177.962205 177.962205 xlo xhi
-177.962205 177.962205 ylo yhi
-177.962205 177.962205 zlo zhi

Masses

   1	12.01	# ca
   2	12.01	# c3
   3	12.01	# cy
   4	12.01	# cp
   5	1.008	# hc
   6	1.008	# ha

Pair Coeffs

   1	0.086	3.3996695084235347	# ca
   2	0.1094	3.3996695084235347	# c3
   3	0.086	3.3996695084235347	# cy
   4	0.086	3.3996695084235347	# cp
   5	0.0157	2.649532787749369	# hc
   6	0.015	2.59964245953351	# ha

Bond Coeffs

   1	321.2	1.5154	# ca,cy
   2	461.1	1.3984	# ca,ca
   3	305.9	1.5319	# c3,cy
   4	351.4	1.4854	# cp,cp
   5	345.8	1.086	# ca,ha
   6	300.9	1.5375	# c3,c3
   7	450.2	1.4058	# ca,cp
   8	285.0	1.5562	# cy,cy
   9	321.0	1.5156	# c3,ca
  10	330.6	1.0969	# c3,hc
  11	333.3	1.0949	# cy,hc

Angle Coeffs

   1	67.9	96.03	# cy,c3,cy
   2	61.4	116.81	# ca,cy,cy
   3	63.15	112.07	# c3,c3,ca
   4	45.97	114.53	# ca,cy,hc
   5	66.26	120.69	# ca,ca,cp
   6	46.34	109.8	# c3,c3,hc
   7	48.18	119.88	# ca,ca,ha
   8	62.73	112.39	# c3,c3,cy
   9	46.29	110.75	# cy,c3,hc
  10	44.83	114.79	# cy,cy,hc
  11	46.8	110.47	# ca,c3,hc
  12	66.72	118.38	# ca,cp,ca
  13	62.86	111.51	# c3,c3,c3
  14	46.43	110.14	# c3,cy,hc
  15	60.66	118.7	# c3,cy,cy
  16	63.43	120.63	# c3,ca,cp
  17	63.56	112.24	# ca,c3,ca
  18	64.05	121.11	# ca,cp,cp
  19	66.62	120.02	# ca,ca,ca
  20	39.4	107.58	# hc,c3,hc
  21	47.98	119.86	# cp,ca,ha
  22	63.53	120.77	# c3,ca,ca
  23	63.51	120.86	# ca,ca,cy
  24	62.8	113.57	# c3,cy,ca

Dihedral Coeffs

   1	1	0.16	3	0	# hc,c3,c3,c3
   2	1	0.0	2	0.0	# ca,ca,cy,cy
   3	1	1.0	2	180	# X,cp,cp,X
   4	1	0.0	2	0.0	# ca,ca,cy,c3
   5	3	0.38	3	180.0	0.0	2	0.0	1.15	1	0.0	# ca,ca,cy,hc
   6	1	0.0	2	0	# X,c3,ca,X
   7	1	0.16	3	0.0	# cy,c3,cy,ca
   8	1	0.15555555555555556	3	0	# X,c3,c3,X
   9	1	0.16	3	0.0	# c3,c3,cy,ca
  10	1	0.16	3	0.0	# hc,c3,cy,ca
  11	3	0.18	3	0.0	0.25	2	180.0	0.2	1	180.0	# cy,c3,cy,cy
  12	1	0.15	3	0	# hc,c3,c3,hc
  13	3	0.18	3	0.0	0.25	2	180.0	0.2	1	180.0	# c3,c3,cy,cy
  14	1	0.16	3	0.0	# hc,c3,cy,cy
  15	1	0.16	3	0.0	# cy,c3,cy,hc
  16	1	0.16	3	0.0	# c3,c3,cy,hc
  17	1	0.15	3	0.0	# hc,c3,cy,hc
  18	1	3.625	2	180	# X,ca,ca,X
  19	1	0.15555555555555556	3	0	# X,cy,cy,X
  20	1	3.625	2	180	# X,ca,cp,X
  21	3	0.18	3	0	0.25	2	180	0.2	1	180	# c3,c3,c3,c3

Improper Coeffs

   1	1.1	-1	2	# ca,ca,ca,c3
   2	1.1	-1	2	# ca,X,X,ha

Atoms

   1	1	1	0.066869	-23.982	-27.0353	-16.3186
   2	1	1	0.053974	-24.263	-25.7753	-15.8359
   3	1	1	-0.117882	-24.9237	-24.7692	-16.568
   4	1	1	-0.084276	-25.2932	-25.2343	-17.8433
   5	1	1	-0.157972	-24.2682	-27.4712	-17.6246
   6	1	2	0.004935	-25.0417	-23.7364	-20.1005
   7	1	1	-0.170374	-24.9792	-26.4878	-18.3384
   8	1	3	0.154019	-25.4481	-26.1609	-19.7483
   9	1	3	0.051574	-25.8226	-24.7216	-19.1764
  10	1	3	0.007409	-23.5722	-23.9316	-19.6395
  11	1	2	0.007138	-24.4747	-25.848	-20.9249
  12	1	1	-0.211215	-22.2387	-22.2274	-21.2898
  13	1	3	-0.023783	-23.1904	-25.3698	-20.19
  14	1	2	-0.253384	-25.095	-24.5186	-21.4457
  15	1	1	-0.027691	-22.1628	-24.6533	-21.0434
  16	1	1	-0.014027	-22.497	-23.4042	-20.5728
  17	1	1	-0.211541	-21.5334	-24.8651	-22.2748
  18	1	1	-0.003037	-21.1242	-23.6918	-22.9448
  19	1	4	-0.005095	-21.4692	-22.4018	-22.4684
  20	1	2	0.078204	-20.3802	-23.6123	-24.2811
  21	1	3	-0.018845	-18.9944	-18.7897	-25.9595
  22	1	4	0.006574	-20.9701	-21.4046	-23.43
  23	1	1	0.013723	-20.3235	-22.0949	-24.4889
  24	1	1	-0.173541	-19.6297	-21.4111	-25.5125
  25	1	1	-0.072264	-19.7248	-20.0173	-25.448
  26	1	1	-0.030211	-20.3463	-19.3442	-24.4258
  27	1	3	0.009457	-19.7169	-18.0069	-24.7822
  28	1	1	-0.176921	-20.9509	-19.9884	-23.3388
  29	1	2	0.038799	-17.4924	-18.5847	-25.6417
  30	1	2	0.012799	-17.0455	-19.3404	-24.3599
  31	1	2	-0.181835	-17.5271	-17.1419	-25.0997
  32	1	2	-0.004967	-17.7467	-18.5595	-23.2168
  33	1	2	0.05243	-18.5263	-17.4472	-23.9654
  34	1	2	-0.049676	-18.9734	-24.2625	-24.2059
  35	1	2	-0.040251	-18.8495	-25.1638	-25.4468
  36	1	5	0.031595	-18.1677	-23.5179	-24.1664
  37	1	5	0.022689	-18.8897	-24.8824	-23.3038
  38	1	2	-0.037258	-20.2917	-25.5688	-25.7841
  39	1	2	0.002978	-21.1369	-24.3352	-25.4255
  40	1	5	0.016721	-22.1601	-24.6151	-25.1427
  41	1	5	-0.000468	-21.2051	-23.6827	-26.3057
  42	1	5	0.056924	-24.3637	-22.6914	-16.3117
  43	1	5	0.029852	-22.8192	-29.0651	-17.8606
  44	1	5	0.043077	-25.4068	-22.702	-20.1247
  45	1	5	0.016056	-26.3076	-26.7429	-20.0991
  46	1	5	0.041103	-26.8951	-24.5003	-19.1932
  47	1	5	0.055216	-23.3843	-23.7175	-18.5827
  48	1	5	0.041749	-24.3399	-26.6456	-21.666
  49	1	6	0.155314	-22.6291	-21.2626	-20.983
  50	1	5	0.049935	-22.7584	-26.0911	-19.4892
  51	1	5	0.098652	-24.5007	-24.0485	-22.2411
  52	1	5	0.045245	-26.1227	-24.6525	-21.8097
  53	1	6	0.165622	-21.4079	-25.8559	-22.6998
  54	1	5	0.050235	-19.257	-18.451	-26.9677
  55	1	6	0.152615	-19.0322	-21.9231	-26.2604
  56	1	5	0.037653	-20.4036	-17.2179	-25.1079
  57	1	6	0.137195	-21.3253	-19.4518	-22.4731
  58	1	5	0.010736	-16.8214	-18.7341	-26.497
  59	1	5	-0.004925	-15.9557	-19.2773	-24.2423
  60	1	5	0.039247	-17.9173	-16.42	-25.8305
  61	1	5	0.062128	-16.5503	-16.7972	-24.7319
  62	1	5	0.003131	-16.9965	-18.1155	-22.5494
  63	1	5	0.00404	-18.7755	-16.5842	-23.3382
  64	1	5	0.021644	-18.4261	-24.5878	-26.28
  65	1	5	0.012129	-18.2061	-26.0341	-25.2654
  66	1	5	0.009331	-20.4069	-25.8586	-26.8363
  67	1	5	0.018167	-20.5926	-26.4176	-25.1562
  68	1	2	-0.164337	-25.1965	-23.3624	-16.071
  69	1	5	0.06697	-26.1014	-22.951	-16.5345
  70	1	5	0.100055	-25.3467	-23.3491	-14.9846
  71	1	2	0.054914	-23.8314	-28.8069	-18.1961
  72	1	5	0.026242	-24.5087	-29.608	-17.876
  73	1	5	-0.001285	-23.8257	-28.7863	-19.2931
  74	1	1	0.066869	-11.5748	-22.3828	-9.187
  75	1	1	0.053974	-12.4347	-21.3014	-9.22261
  76	1	1	-0.117882	-13.7357	-21.32	-8.67865
  77	1	1	-0.084276	-13.9825	-22.4983	-7.94376
  78	1	1	-0.157972	-11.8906	-23.6239	-8.60696
  79	1	2	0.004935	-16.3873	-23.8077	-8.14679
  80	1	1	-0.170374	-13.1159	-23.5789	-7.92084
  81	1	3	0.154019	-14.1542	-24.5362	-7.36314
  82	1	3	0.051574	-15.1469	-23.2935	-7.35044
  83	1	3	0.007409	-15.8787	-23.8009	-9.60839
  84	1	2	0.007138	-14.8954	-25.6034	-8.22654
  85	1	1	-0.211215	-18.0685	-24.7714	-10.8938
  86	1	3	-0.023783	-14.8488	-25.003	-9.6646
  87	1	2	-0.253384	-16.3579	-25.3212	-7.77701
  88	1	1	-0.027691	-15.7944	-25.6189	-10.682
  89	1	1	-0.014027	-16.7057	-24.5893	-10.6111
  90	1	1	-0.211541	-16.1288	-26.9105	-11.1056
  91	1	1	-0.003037	-17.4527	-27.0705	-11.574
  92	1	4	-0.005095	-18.413	-26.034	-11.4441
  93	1	2	0.078204	-18.1007	-28.3579	-12.1052
  94	1	3	-0.018845	-23.3651	-28.4141	-12.6718
  95	1	4	0.006574	-19.7355	-26.575	-11.8186
  96	1	1	0.013723	-19.5605	-27.921	-12.2399
  97	1	1	-0.173541	-20.6462	-28.7377	-12.6291
  98	1	1	-0.072264	-21.8884	-28.1055	-12.5634
  99	1	1	-0.030211	-22.0776	-26.826	-12.1149
 100	1	3	0.009457	-23.6003	-26.9337	-12.1278
 101	1	1	-0.176921	-21.028	-25.9912	-11.7059
 102	1	2	0.038799	-24.0475	-28.3931	-14.0612
 103	1	2	0.012799	-23.2657	-27.4796	-15.0579
 104	1	2	-0.181835	-25.2697	-27.5191	-13.6999
 105	1	2	-0.004967	-23.5634	-26.0202	-14.51
 106	1	2	0.05243	-24.443	-26.2888	-13.2589
 107	1	2	-0.049676	-17.4722	-28.8231	-13.4345
 108	1	2	-0.040251	-16.3326	-29.7817	-13.045
 109	1	5	0.031595	-18.2144	-29.3749	-14.0254
 110	1	5	0.022689	-17.1141	-27.9828	-14.0435
 111	1	2	-0.037258	-16.6531	-30.296	-11.6245
 112	1	2	0.002978	-17.9159	-29.5557	-11.148
 113	1	5	0.016721	-17.8383	-29.2419	-10.0987
 114	1	5	-0.000468	-18.7708	-30.2391	-11.2267
 115	1	5	0.056924	-14.4473	-19.2731	-8.65002
 116	1	5	0.029852	-9.99848	-24.6641	-8.70355
 117	1	5	0.043077	-17.3327	-23.2819	-7.96359
 118	1	5	0.016056	-13.9262	-24.9353	-6.36841
 119	1	5	0.041103	-15.4451	-22.9793	-6.34453
 120	1	5	0.055216	-15.5481	-22.8267	-9.9782
 121	1	5	0.041749	-14.545	-26.6378	-8.12153
 122	1	6	0.155314	-18.8152	-24.021	-10.6547
 123	1	5	0.049935	-13.8465	-24.8004	-10.0531
 124	1	5	0.098652	-17.0994	-25.9158	-8.32792
 125	1	5	0.045245	-16.5044	-25.4905	-6.7016
 126	1	6	0.165622	-15.4312	-27.7363	-11.0265
 127	1	5	0.050235	-23.742	-29.2243	-12.0377
 128	1	6	0.152615	-20.5334	-29.7805	-12.9094
 129	1	5	0.037653	-24.1013	-26.8652	-11.1567
 130	1	6	0.137195	-21.1821	-24.9987	-11.2969
 131	1	5	0.010736	-24.2986	-29.3814	-14.4662
 132	1	5	-0.004925	-22.2014	-27.7067	-15.2008
 133	1	5	0.039247	-25.8658	-27.9422	-12.8791
 134	1	5	0.062128	-25.9417	-27.3234	-14.5459
 135	1	5	0.003131	-22.6637	-25.4152	-14.3496
 136	1	5	0.00404	-25.0533	-25.4312	-12.9517
 137	1	5	0.021644	-16.2428	-30.6078	-13.762
 138	1	5	0.012129	-15.3808	-29.2366	-13.0404
 139	1	5	0.009331	-16.8149	-31.3815	-11.6243
 140	1	5	0.018167	-15.8218	-30.079	-10.9446
 141	1	2	-0.164337	-14.7874	-20.2645	-8.96749
 142	1	5	0.06697	-15.0079	-20.2169	-10.0412
 143	1	5	0.100055	-15.7248	-20.481	-8.44085
 144	1	2	0.054914	-11.0683	-24.885	-8.79352
 145	1	5	0.026242	-11.3166	-25.6369	-8.03404
 146	1	5	-0.001285	-11.2458	-25.3287	-9.78101
 147	1	1	0.066869	-19.9132	-22.3499	-16.2969
 148	1	1	0.053974	-19.9865	-20.9694	-16.3295
 149	1	1	-0.117882	-19.7543	-20.1974	-17.4744
 150	1	1	-0.084276	-19.6027	-20.9857	-18.6247
 151	1	1	-0.157972	-19.6304	-23.1371	-17.4326
 152	1	2	0.004935	-17.3577	-20.4799	-20.0223
 153	1	1	-0.170374	-19.5552	-22.3739	-18.6214
 154	1	3	0.154019	-18.883	-22.4465	-20.0046
 155	1	3	0.051574	-18.8724	-20.8607	-19.9438
 156	1	3	0.007409	-16.7665	-21.0326	-18.6789
 157	1	2	0.007138	-17.3888	-22.7934	-20.2976
 158	1	1	-0.211215	-14.3352	-20.6292	-17.625
 159	1	3	-0.023783	-16.7536	-22.5905	-18.9157
 160	1	2	-0.253384	-16.9094	-21.5325	-21.0743
 161	1	1	-0.027691	-15.2479	-22.495	-18.8654
 162	1	1	-0.014027	-15.2531	-21.1481	-18.5549
 163	1	1	-0.211541	-14.2731	-23.3937	-18.4308
 164	1	1	-0.003037	-13.2365	-22.8465	-17.6524
 165	1	4	-0.005095	-13.2936	-21.5023	-17.2116
 166	1	2	0.078204	-12.1336	-23.6284	-16.9289
 167	1	3	-0.018845	-10.1076	-21.5018	-12.6726
 168	1	4	0.006574	-12.2807	-21.3276	-16.1519
 169	1	1	0.013723	-11.5601	-22.5398	-16.0179
 170	1	1	-0.173541	-10.6088	-22.7311	-14.9949
 171	1	1	-0.072264	-10.3775	-21.633	-14.1587
 172	1	1	-0.030211	-11.1621	-20.4949	-14.211
 173	1	3	0.009457	-11.0371	-20.2222	-12.7181
 174	1	1	-0.176921	-12.1675	-20.3087	-15.1719
 175	1	2	0.038799	-10.8549	-22.4558	-11.715
 176	1	2	0.012799	-10.6889	-21.8498	-10.2931
 177	1	2	-0.181835	-12.3386	-22.1471	-12.0344
 178	1	2	-0.004967	-11.6598	-20.5955	-10.328
 179	1	2	0.05243	-12.2122	-20.6249	-11.7837
 180	1	2	-0.049676	-12.7124	-24.8382	-16.1564
 181	1	2	-0.040251	-12.5956	-26.0512	-17.101
 182	1	5	0.031595	-12.1237	-25.0314	-15.2529
 183	1	5	0.022689	-13.7487	-24.6689	-15.8355
 184	1	2	-0.037258	-11.5586	-25.6804	-18.1821
 185	1	2	0.002978	-11.0945	-24.2382	-17.8924
 186	1	5	0.016721	-10.9873	-23.649	-18.8124
 187	1	5	-0.000468	-10.1123	-24.2757	-17.4033
 188	1	5	0.056924	-18.4075	-18.5029	-17.3165
 189	1	5	0.029852	-19.0098	-25.0191	-18.3265
 190	1	5	0.043077	-17.1348	-19.4311	-20.2545
 191	1	5	0.016056	-19.5108	-22.8676	-20.7894
 192	1	5	0.041103	-19.4424	-20.3816	-20.7461
 193	1	5	0.055216	-17.2333	-20.6373	-17.775
 194	1	5	0.041749	-17.2007	-23.7615	-20.7783
 195	1	6	0.155314	-14.4855	-19.6616	-17.1562
 196	1	5	0.049935	-17.146	-23.2532	-18.1451
 197	1	5	0.098652	-15.8267	-21.5204	-21.2576
 198	1	5	0.045245	-17.4315	-21.4189	-22.0338
 199	1	6	0.165622	-14.3919	-24.4605	-18.5745
 200	1	5	0.050235	-9.06154	-21.3381	-12.3902
 201	1	6	0.152615	-10.18	-23.7035	-14.7846
 202	1	5	0.037653	-10.5659	-19.2762	-12.4385
 203	1	6	0.137195	-12.8854	-19.4975	-15.1011
 204	1	5	0.010736	-10.5757	-23.5141	-11.7938
 205	1	5	-0.004925	-9.66098	-21.6154	-9.98618
 206	1	5	0.039247	-13.0494	-22.6495	-11.3664
 207	1	5	0.062128	-12.6323	-22.3953	-13.0615
 208	1	5	0.003131	-11.1749	-19.6616	-10.0236
 209	1	5	0.00404	-13.1401	-20.0574	-11.9262
 210	1	5	0.021644	-12.3001	-26.9523	-16.555
 211	1	5	0.012129	-13.5639	-26.2661	-17.5688
 212	1	5	0.009331	-10.7069	-26.3727	-18.1666
 213	1	5	0.018167	-12.0205	-25.7368	-19.1761
 214	1	2	-0.164337	-19.479	-18.7062	-17.4355
 215	1	5	0.06697	-19.8193	-18.2293	-18.3619
 216	1	5	0.100055	-20.007	-18.2275	-16.6016
 217	1	2	0.054914	-19.2909	-24.6156	-17.3457
 218	1	5	0.026242	-18.4548	-24.7878	-16.6564
 219	1	5	-0.001285	-20.1512	-25.1907	-16.9812
 220	1	1	0.066869	-28.1937	-15.466	-5.07741
 221	1	1	0.053974	-28.4996	-14.776	-6.23289
 222	1	1	-0.117882	-29.143	-15.338	-7.34363
 223	1	1	-0.084276	-29.6038	-16.6356	-7.07177
 224	1	1	-0.157972	-28.513	-16.8249	-4.87331
 225	1	2	0.004935	-29.0449	-18.5286	-8.89636
 226	1	1	-0.170374	-29.3201	-17.3432	-5.91227
 227	1	3	0.154019	-29.7455	-18.6913	-6.51549
 228	1	3	0.051574	-29.9956	-17.8694	-7.85265
 229	1	3	0.007409	-27.6169	-18.1623	-8.37076
 230	1	2	0.007138	-28.7869	-19.8369	-6.9807
 231	1	1	-0.211215	-25.9524	-19.2004	-10.2433
 232	1	3	-0.023783	-27.4368	-19.1031	-7.10859
 233	1	2	-0.253384	-29.2176	-20.0132	-8.46778
 234	1	1	-0.027691	-26.3482	-19.8011	-7.90719
 235	1	1	-0.014027	-26.4586	-18.9336	-8.96929
 236	1	1	-0.211541	-25.857	-21.1078	-8.0591
 237	1	1	-0.003037	-25.2664	-21.3861	-9.31434
 238	1	4	-0.005095	-25.2565	-20.4265	-10.3558
 239	1	2	0.078204	-24.6961	-22.7265	-9.80575
 240	1	3	-0.018845	-22.0624	-22.6279	-14.3349
 241	1	4	0.006574	-24.6098	-21.0153	-11.5316
 242	1	1	0.013723	-24.3046	-22.3658	-11.2471
 243	1	1	-0.173541	-23.5662	-23.1575	-12.1519
 244	1	1	-0.072264	-23.2354	-22.5485	-13.3711
 245	1	1	-0.030211	-23.4269	-21.1987	-13.582
 246	1	3	0.009457	-22.2342	-21.0652	-14.5082
 247	1	1	-0.176921	-24.0817	-20.3649	-12.6708
 248	1	2	0.038799	-20.6473	-22.7761	-13.7427
 249	1	2	0.012799	-19.5798	-22.3862	-14.8062
 250	1	2	-0.181835	-20.5533	-21.5444	-12.8108
 251	1	2	-0.004967	-19.7131	-20.8078	-14.8561
 252	1	2	0.05243	-20.9062	-20.5137	-13.9075
 253	1	2	-0.049676	-23.4857	-23.1994	-8.95998
 254	1	2	-0.040251	-23.6695	-24.7122	-8.75894
 255	1	5	0.031595	-22.5234	-22.9657	-9.43374
 256	1	5	0.022689	-23.4979	-22.7083	-7.97837
 257	1	2	-0.037258	-25.1902	-24.9258	-8.77715
 258	1	2	0.002978	-25.7335	-23.8796	-9.76651
 259	1	5	0.016721	-26.7318	-23.5329	-9.46965
 260	1	5	-0.000468	-25.8289	-24.3396	-10.7587
 261	1	5	0.056924	-29.5167	-13.6441	-8.64245
 262	1	5	0.029852	-28.2557	-17.2353	-2.76233
 263	1	5	0.043077	-29.2496	-18.299	-9.94954
 264	1	5	0.016056	-30.6578	-19.1146	-6.08086
 265	1	5	0.041103	-31.0339	-17.8895	-8.20099
 266	1	5	0.055216	-27.4127	-17.0955	-8.25177
 267	1	5	0.041749	-28.784	-20.7458	-6.36624
 268	1	6	0.155314	-26.1357	-18.5532	-11.0949
 269	1	5	0.049935	-27.0749	-18.6517	-6.182
 270	1	5	0.098652	-28.5703	-20.6992	-9.03065
 271	1	5	0.045245	-30.2564	-20.358	-8.56218
 272	1	6	0.165622	-25.9783	-21.8661	-7.29184
 273	1	5	0.050235	-22.222	-23.2423	-15.2275
 274	1	6	0.152615	-23.1983	-24.1383	-11.883
 275	1	5	0.037653	-22.4598	-20.696	-15.5144
 276	1	6	0.137195	-24.0916	-19.2846	-12.7745
 277	1	5	0.010736	-20.4481	-23.7352	-13.2528
 278	1	5	-0.004925	-18.5562	-22.7054	-14.5693
 279	1	5	0.039247	-19.545	-21.4021	-12.3962
 280	1	5	0.062128	-21.2665	-21.5576	-11.9774
 281	1	5	0.003131	-18.7751	-20.2946	-14.6059
 282	1	5	0.00404	-20.9494	-19.4741	-13.5596
 283	1	5	0.021644	-23.208	-25.2536	-9.59338
 284	1	5	0.012129	-23.2131	-25.0653	-7.82558
 285	1	5	0.009331	-25.4615	-25.949	-9.06672
 286	1	5	0.018167	-25.5992	-24.7308	-7.77728
 287	1	2	-0.164337	-29.1873	-14.688	-8.71438
 288	1	5	0.06697	-28.1956	-14.6977	-9.18336
 289	1	5	0.100055	-29.8813	-15.2137	-9.38184
 290	1	2	0.054914	-27.9518	-17.6519	-3.73053
 291	1	5	0.026242	-28.3062	-18.6891	-3.77658
 292	1	5	-0.001285	-26.8552	-17.6685	-3.76115
 293	1	1	0.066869	-27.5716	-1.04073	-4.94026
 294	1	1	0.053974	-28.4821	-1.45339	-5.89712
 295	1	1	-0.117882	-29.8383	-1.70997	-5.6508
 296	1	1	-0.084276	-30.2022	-1.41808	-4.32604
 297	1	1	-0.157972	-27.9023	-0.962897	-3.5701
 298	1	2	0.004935	-31.5579	-3.39983	-3.09958
 299	1	1	-0.170374	-29.2881	-1.09893	-3.3313
 300	1	3	0.154019	-30.2361	-1.49906	-2.1907
 301	1	3	0.051574	-31.255	-1.89159	-3.34349
 302	1	3	0.007409	-30.204	-4.09284	-3.44806
 303	1	2	0.007138	-30.1453	-2.81087	-1.33585
 304	1	1	-0.211215	-30.3308	-6.82824	-3.4318
 305	1	3	-0.023783	-29.2689	-3.73281	-2.21393
 306	1	2	-0.253384	-31.5705	-3.403	-1.54434
 307	1	1	-0.027691	-29.2904	-5.22637	-1.91579
 308	1	1	-0.014027	-30.054	-5.52861	-3.0081
 309	1	1	-0.211541	-28.8311	-6.18365	-1.00216
 310	1	1	-0.003037	-29.1476	-7.51997	-1.35814
 311	1	4	-0.005095	-29.8307	-7.83106	-2.56396
 312	1	2	0.078204	-28.7891	-8.80471	-0.594284
 313	1	3	-0.018845	-28.9887	-13.2603	-3.32198
 314	1	4	0.006574	-29.8713	-9.29034	-2.71675
 315	1	1	0.013723	-29.2994	-9.88191	-1.56595
 316	1	1	-0.173541	-29.0635	-11.2741	-1.49303
 317	1	1	-0.072264	-29.5053	-12.0291	-2.59177
 318	1	1	-0.030211	-29.9597	-11.4307	-3.75105
 319	1	3	0.009457	-29.4524	-12.5409	-4.6521
 320	1	1	-0.176921	-30.1225	-10.0479	-3.88443
 321	1	2	0.038799	-27.4621	-13.4082	-3.50851
 322	1	2	0.012799	-27.1505	-14.4452	-4.63055
 323	1	2	-0.181835	-27.0943	-12.1034	-4.25547
 324	1	2	-0.004967	-27.5398	-13.6481	-5.94843
 325	1	2	0.05243	-28.1075	-12.3081	-5.4039
 326	1	2	-0.049676	-27.2669	-8.92798	-0.317259
 327	1	2	-0.040251	-27.134	-9.37641	1.14772
 328	1	5	0.031595	-26.7695	-9.62767	-1.00134
 329	1	5	0.022689	-26.7771	-7.95324	-0.435947
 330	1	2	-0.037258	-28.3787	-8.80668	1.8429
 331	1	2	0.002978	-29.4921	-8.88744	0.784886
 332	1	5	0.016721	-30.236	-8.09221	0.923739
 333	1	5	-0.000468	-30.0132	-9.84852	0.886548
 334	1	5	0.056924	-30.7754	-1.88821	-7.59506
 335	1	5	0.029852	-27.322	-0.859223	-1.47825
 336	1	5	0.043077	-32.4512	-3.80045	-3.59505
 337	1	5	0.016056	-30.5754	-0.663982	-1.56788
 338	1	5	0.041103	-32.1795	-1.30397	-3.33756
 339	1	5	0.055216	-29.834	-3.93224	-4.4601
 340	1	5	0.041749	-29.8207	-2.68866	-0.294971
 341	1	6	0.155314	-30.8625	-7.05018	-4.35142
 342	1	5	0.049935	-28.2699	-3.3419	-2.4196
 343	1	5	0.098652	-31.6872	-4.40887	-1.11823
 344	1	5	0.045245	-32.3552	-2.75439	-1.13144
 345	1	6	0.165622	-28.2601	-5.92543	-0.115816
 346	1	5	0.050235	-29.4886	-14.2013	-3.06759
 347	1	6	0.152615	-28.4792	-11.7166	-0.692445
 348	1	5	0.037653	-30.2178	-13.0449	-5.25203
 349	1	6	0.137195	-30.3146	-9.57864	-4.84391
 350	1	5	0.010736	-26.8983	-13.5737	-2.58199
 351	1	5	-0.004925	-26.1123	-14.8019	-4.65561
 352	1	5	0.039247	-26.0509	-12.0909	-4.60195
 353	1	5	0.062128	-27.2711	-11.1901	-3.67402
 354	1	5	0.003131	-26.7016	-13.5545	-6.65157
 355	1	5	0.00404	-28.1238	-11.5003	-6.1463
 356	1	5	0.021644	-27.1517	-10.4728	1.20157
 357	1	5	0.012129	-26.2028	-9.02195	1.60756
 358	1	5	0.009331	-28.6338	-9.35926	2.75602
 359	1	5	0.018167	-28.2019	-7.75683	2.11095
 360	1	2	-0.164337	-30.745	-2.42402	-6.63826
 361	1	5	0.06697	-30.3901	-3.44316	-6.83472
 362	1	5	0.100055	-31.7728	-2.49045	-6.26041
 363	1	2	0.054914	-26.8564	-0.919888	-2.46982
 364	1	5	0.026242	-26.2268	-1.81807	-2.49204
 365	1	5	-0.001285	-26.2021	-0.0473754	-2.58776
 366	1	1	0.066869	-21.0015	-1.90254	-17.3743
 367	1	1	0.053974	-22.1156	-2.68835	-17.1633
 368	1	1	-0.117882	-23.4356	-2.25775	-17.4013
 369	1	1	-0.084276	-23.4739	-0.979532	-18.0006
 370	1	1	-0.157972	-21.0476	-0.564914	-17.7966
 371	1	2	0.004935	-25.2596	0.877701	-17.0612
 372	1	1	-0.170374	-22.3501	-0.181898	-18.1623
 373	1	3	0.154019	-23.1507	1.09728	-18.3339
 374	1	3	0.051574	-24.4467	0.18629	-18.1996
 375	1	3	0.007409	-24.4556	0.479702	-15.8047
 376	1	2	0.007138	-23.3143	2.16093	-17.2008
 377	1	1	-0.211215	-25.5072	1.10057	-13.3905
 378	1	3	-0.023783	-23.1189	1.3277	-15.8955
 379	1	2	-0.253384	-24.8552	2.36664	-17.2663
 380	1	1	-0.027691	-23.5671	1.97056	-14.5908
 381	1	1	-0.014027	-24.7455	1.26598	-14.5466
 382	1	1	-0.211541	-22.9679	2.50431	-13.4391
 383	1	1	-0.003037	-23.7508	2.4312	-12.2591
 384	1	4	-0.005095	-25.0097	1.78002	-12.2535
 385	1	2	0.078204	-23.34	2.81126	-10.8215
 386	1	3	-0.018845	-26.3492	0.773388	-6.97426
 387	1	4	0.006574	-25.5124	1.73219	-10.8783
 388	1	1	0.013723	-24.5434	2.2919	-10.0134
 389	1	1	-0.173541	-24.6713	2.17955	-8.60623
 390	1	1	-0.072264	-25.8863	1.63997	-8.14731
 391	1	1	-0.030211	-26.8437	1.14029	-9.00627
 392	1	3	0.009457	-27.4317	0.206218	-7.97992
 393	1	1	-0.176921	-26.6645	1.07968	-10.3891
 394	1	2	0.038799	-25.528	-0.494664	-6.6061
 395	1	2	0.012799	-26.3691	-1.50439	-5.75396
 396	1	2	-0.181835	-25.516	-1.27498	-7.9417
 397	1	2	-0.004967	-27.4249	-2.03298	-6.81033
 398	1	2	0.05243	-27.0529	-1.28696	-8.11156
 399	1	2	-0.049676	-21.9894	2.17575	-10.4171
 400	1	2	-0.040251	-20.9005	3.2302	-10.7103
 401	1	5	0.031595	-21.9819	1.95371	-9.34285
 402	1	5	0.022689	-21.8009	1.23391	-10.9487
 403	1	2	-0.037258	-21.6266	4.5649	-10.9828
 404	1	2	0.002978	-23.1133	4.32748	-10.6602
 405	1	5	0.016721	-23.7763	4.92083	-11.3031
 406	1	5	-0.000468	-23.3018	4.62008	-9.61883
 407	1	5	0.056924	-25.5866	-2.4893	-17.197
 408	1	5	0.029852	-19.5179	0.499916	-16.6922
 409	1	5	0.043077	-26.3356	0.664306	-17.0333
 410	1	5	0.016056	-23.0467	1.58261	-19.3108
 411	1	5	0.041103	-25.044	0.130592	-19.1159
 412	1	5	0.055216	-24.3988	-0.595729	-15.6259
 413	1	5	0.041749	-22.6995	3.06464	-17.2953
 414	1	6	0.155314	-26.3594	0.430739	-13.3443
 415	1	5	0.049935	-22.1544	0.818653	-15.821
 416	1	5	0.098652	-25.2337	3.02978	-16.4765
 417	1	5	0.045245	-25.1839	2.75659	-18.2393
 418	1	6	0.165622	-21.945	2.86459	-13.4412
 419	1	5	0.050235	-26.7266	1.31568	-6.10039
 420	1	6	0.152615	-23.8612	2.42926	-7.92826
 421	1	5	0.037653	-28.4856	0.384383	-7.73975
 422	1	6	0.137195	-27.3202	0.501512	-11.0317
 423	1	5	0.010736	-24.5313	-0.292909	-6.19439
 424	1	5	-0.004925	-25.7907	-2.32172	-5.30325
 425	1	5	0.039247	-25.09	-2.28374	-7.84332
 426	1	5	0.062128	-24.9862	-0.758145	-8.7519
 427	1	5	0.003131	-27.4287	-3.12834	-6.88699
 428	1	5	0.00404	-27.4101	-1.77972	-9.02453
 429	1	5	0.021644	-20.2183	3.32339	-9.85544
 430	1	5	0.012129	-20.3038	2.93824	-11.5841
 431	1	5	0.009331	-21.2121	5.38298	-10.38
 432	1	5	0.018167	-21.5155	4.83721	-12.0402
 433	1	2	-0.164337	-24.6635	-3.0284	-16.9504
 434	1	5	0.06697	-24.7076	-4.00992	-17.4384
 435	1	5	0.100055	-24.6476	-3.192	-15.8657
 436	1	2	0.054914	-19.8655	0.384396	-17.7262
 437	1	5	0.026242	-19.027	0.00819481	-18.3252
 438	1	5	-0.001285	-20.1299	1.37946	-18.1055
 439	1	1	0.066869	-14.616	-14.8504	-16.5123
 440	1	1	0.053974	-15.7586	-14.9834	-15.7438
 441	1	1	-0.117882	-17.0265	-15.238	-16.3065
 442	1	1	-0.084276	-16.954	-15.584	-17.6713
 443	1	1	-0.157972	-14.5595	-15.0696	-17.8978
 444	1	2	0.004935	-18.6743	-14.3773	-19.4414
 445	1	1	-0.170374	-15.7824	-15.5387	-18.4127
 446	1	3	0.154019	-16.5109	-15.5519	-19.7493
 447	1	3	0.051574	-17.8555	-15.6008	-18.9069
 448	1	3	0.007409	-17.9261	-13.1595	-18.8403
 449	1	2	0.007138	-16.6811	-14.2962	-20.6549
 450	1	1	-0.211215	-18.9543	-10.6455	-19.222
 451	1	3	-0.023783	-16.5579	-13.1258	-19.6404
 452	1	2	-0.253384	-18.212	-14.3641	-20.9262
 453	1	1	-0.027691	-16.9912	-11.7677	-20.1372
 454	1	1	-0.014027	-18.1904	-11.7951	-19.4687
 455	1	1	-0.211541	-16.3687	-10.5879	-20.5522
 456	1	1	-0.003037	-17.1383	-9.41798	-20.3768
 457	1	4	-0.005095	-18.4233	-9.44743	-19.7737
 458	1	2	0.078204	-16.6719	-7.98024	-20.6319
 459	1	3	-0.018845	-19.7603	-4.12794	-18.7709
 460	1	4	0.006574	-18.9088	-8.0586	-19.6649
 461	1	1	0.013723	-17.8833	-7.19252	-20.1254
 462	1	1	-0.173541	-17.9705	-5.79184	-19.9694
 463	1	1	-0.072264	-19.2081	-5.33099	-19.5115
 464	1	1	-0.030211	-20.2466	-6.15879	-19.1543
 465	1	3	0.009457	-20.987	-5.06551	-18.4029
 466	1	1	-0.176921	-20.1136	-7.55379	-19.1092
 467	1	2	0.038799	-19.1553	-3.78745	-17.3765
 468	1	2	0.012799	-20.0803	-2.81088	-16.5946
 469	1	2	-0.181835	-19.4446	-5.06388	-16.5544
 470	1	2	-0.004967	-21.3661	-3.69654	-16.2986
 471	1	2	0.05243	-20.961	-5.09164	-16.8607
 472	1	2	-0.049676	-15.3684	-7.63104	-19.862
 473	1	2	-0.040251	-14.4261	-6.97032	-20.8832
 474	1	5	0.031595	-15.5517	-6.97259	-19.0032
 475	1	5	0.022689	-14.8943	-8.54181	-19.4749
 476	1	2	-0.037258	-14.8537	-7.5431	-22.2419
 477	1	2	0.002978	-16.3779	-7.71304	-22.1301
 478	1	5	0.016721	-16.7439	-8.5183	-22.7802
 479	1	5	-0.000468	-16.8637	-6.78195	-22.4502
 480	1	5	0.056924	-19.1964	-15.2582	-16.1894
 481	1	5	0.029852	-13.2073	-13.5798	-18.7086
 482	1	5	0.043077	-19.758	-14.4087	-19.2722
 483	1	5	0.016056	-16.3369	-16.4457	-20.359
 484	1	5	0.041103	-18.4202	-16.5251	-19.0526
 485	1	5	0.055216	-17.9021	-13.1457	-17.7475
 486	1	5	0.041749	-16.0312	-14.2448	-21.5373
 487	1	6	0.155314	-19.8377	-10.6543	-18.5919
 488	1	5	0.049935	-15.6165	-13.0826	-19.0932
 489	1	5	0.098652	-18.5891	-13.4994	-21.4889
 490	1	5	0.045245	-18.5013	-15.281	-21.4544
 491	1	6	0.165622	-15.3404	-10.565	-20.8989
 492	1	5	0.050235	-19.9712	-3.25042	-19.3918
 493	1	6	0.152615	-17.1318	-5.1275	-20.1536
 494	1	5	0.037653	-21.9626	-4.79076	-18.8187
 495	1	6	0.137195	-20.8577	-8.19521	-18.6485
 496	1	5	0.010736	-18.101	-3.48379	-17.3898
 497	1	5	-0.004925	-19.6461	-2.37499	-15.6851
 498	1	5	0.039247	-19.2295	-4.94111	-15.4833
 499	1	5	0.062128	-18.9034	-5.94856	-16.9139
 500	1	5	0.003131	-21.6384	-3.68713	-15.235
 501	1	5	0.00404	-21.5016	-5.92991	-16.4039
 502	1	5	0.021644	-14.5815	-5.88349	-20.8779
 503	1	5	0.012129	-13.3697	-7.16974	-20.6626
 504	1	5	0.009331	-14.5691	-6.88966	-23.0763
 505	1	5	0.018167	-14.3833	-8.52349	-22.393
 506	1	2	-0.164337	-18.3309	-14.9985	-15.5673
 507	1	5	0.06697	-18.3791	-15.6062	-14.6552
 508	1	5	0.100055	-18.4291	-13.9453	-15.2758
 509	1	2	0.054914	-13.3734	-14.6632	-18.7552
 510	1	5	0.026242	-12.4571	-15.1585	-18.4108
 511	1	5	-0.001285	-13.528	-14.9362	-19.8065
 512	1	1	0.066869	-8.93257	-19.0303	-1.04734
 513	1	1	0.053974	-10.2999	-19.2194	-0.967066
 514	1	1	-0.117882	-11.1105	-19.5173	-2.08053
 515	1	1	-0.084276	-10.4175	-19.4512	-3.30265
 516	1	1	-0.157972	-8.21343	-19.1066	-2.25232
 517	1	2	0.004935	-11.0248	-19.7382	-5.94599
 518	1	1	-0.170374	-9.04153	-19.249	-3.38186
 519	1	3	0.154019	-8.91229	-20.0215	-4.68546
 520	1	3	0.051574	-10.4707	-20.2741	-4.58859
 521	1	3	0.007409	-10.9235	-18.202	-5.7577
 522	1	2	0.007138	-8.73225	-19.3218	-6.06256
 523	1	1	-0.211215	-11.8058	-17.3461	-8.17197
 524	1	3	-0.023783	-9.36597	-17.9231	-5.81285
 525	1	2	-0.253384	-9.82545	-20.0632	-6.88375
 526	1	1	-0.027691	-9.6572	-17.1009	-7.04828
 527	1	1	-0.014027	-11.0136	-17.3494	-7.01437
 528	1	1	-0.211541	-8.9608	-16.8293	-8.22931
 529	1	1	-0.003037	-9.75761	-16.6841	-9.38277
 530	1	4	-0.005095	-11.1528	-16.9288	-9.35911
 531	1	2	0.078204	-9.25696	-16.4364	-10.8083
 532	1	3	-0.018845	-12.8453	-15.9976	-14.5525
 533	1	4	0.006574	-11.6501	-16.8947	-10.7465
 534	1	1	0.013723	-10.552	-16.6321	-11.6002
 535	1	1	-0.173541	-10.7219	-16.4406	-12.9848
 536	1	1	-0.072264	-12.0186	-16.648	-13.4681
 537	1	1	-0.030211	-13.1044	-16.8655	-12.6414
 538	1	3	0.009457	-14.0976	-16.2383	-13.617
 539	1	1	-0.176921	-12.9779	-16.9392	-11.2449
 540	1	2	0.038799	-12.7668	-14.4567	-14.6524
 541	1	2	0.012799	-13.9305	-13.9272	-15.5254
 542	1	2	-0.181835	-13.2798	-13.9918	-13.269
 543	1	2	-0.004967	-15.2089	-14.1305	-14.6105
 544	1	2	0.05243	-14.6006	-14.7942	-13.3322
 545	1	2	-0.049676	-8.65948	-15.0115	-10.9563
 546	1	2	-0.040251	-7.20943	-15.1823	-11.4482
 547	1	5	0.031595	-9.23586	-14.3929	-11.6563
 548	1	5	0.022689	-8.66214	-14.4923	-9.98872
 549	1	2	-0.037258	-6.82452	-16.6331	-11.1197
 550	1	2	0.002978	-8.13978	-17.422	-11.2303
 551	1	5	0.016721	-8.12734	-18.3339	-10.6192
 552	1	5	-0.000468	-8.28098	-17.7248	-12.276
 553	1	5	0.056924	-13.2182	-19.5222	-2.57373
 554	1	5	0.029852	-6.23175	-18.2713	-2.41424
 555	1	5	0.043077	-12.0036	-20.1252	-6.25717
 556	1	5	0.016056	-8.28554	-20.9188	-4.63159
 557	1	5	0.041103	-10.7671	-21.3195	-4.4496
 558	1	5	0.055216	-11.4868	-17.8076	-4.90469
 559	1	5	0.041749	-7.71815	-19.3291	-6.48063
 560	1	6	0.155314	-12.8203	-17.7265	-8.1767
 561	1	5	0.049935	-8.92322	-17.3494	-4.9958
 562	1	5	0.098652	-9.94898	-19.6591	-7.89649
 563	1	5	0.045245	-9.63528	-21.1427	-6.95699
 564	1	6	0.165622	-7.87719	-16.8132	-8.26316
 565	1	5	0.050235	-12.834	-16.5105	-15.5206
 566	1	6	0.152615	-9.92048	-16.0774	-13.621
 567	1	5	0.037653	-14.8776	-16.906	-13.9989
 568	1	6	0.137195	-13.8397	-16.9437	-10.5854
 569	1	5	0.010736	-11.7837	-14.0582	-14.9326
 570	1	5	-0.004925	-13.821	-12.8878	-15.8625
 571	1	5	0.039247	-13.4419	-12.9057	-13.2165
 572	1	5	0.062128	-12.6271	-14.2788	-12.4349
 573	1	5	0.003131	-15.7465	-13.1898	-14.4322
 574	1	5	0.00404	-15.2313	-14.6946	-12.44
 575	1	5	0.021644	-7.17277	-15.0316	-12.535
 576	1	5	0.012129	-6.52875	-14.4602	-10.9791
 577	1	5	0.009331	-6.05231	-17.0187	-11.7972
 578	1	5	0.018167	-6.43912	-16.6897	-10.094
 579	1	2	-0.164337	-12.5096	-20.0986	-1.96624
 580	1	5	0.06697	-12.5367	-21.1379	-2.31564
 581	1	5	0.100055	-12.868	-20.0809	-0.929436
 582	1	2	0.054914	-6.70307	-19.2528	-2.30437
 583	1	5	0.026242	-6.30588	-19.7048	-1.3878
 584	1	5	-0.001285	-6.3908	-19.8788	-3.14907
 585	1	1	0.066869	-13.3195	-33.1071	-6.57381
 586	1	1	0.053974	-14.3273	-32.1607	-6.57947
 587	1	1	-0.117882	-14.1366	-30.7968	-6.32046
 588	1	1	-0.084276	-12.8328	-30.5041	-5.89887
 589	1	1	-0.157972	-11.9683	-32.7698	-6.33306
 590	1	2	0.004935	-11.5261	-28.3629	-4.97944
 591	1	1	-0.170374	-11.7881	-31.4266	-5.93237
 592	1	3	0.154019	-10.7372	-30.3496	-6.24345
 593	1	3	0.051574	-11.9308	-29.3185	-6.13592
 594	1	3	0.007409	-11.5803	-29.2869	-3.71837
 595	1	2	0.007138	-9.69461	-29.7835	-5.22805
 596	1	1	-0.211215	-10.919	-27.4979	-1.84464
 597	1	3	-0.023783	-10.3037	-30.2062	-3.87273
 598	1	2	-0.253384	-10.0099	-28.2583	-5.29319
 599	1	1	-0.027691	-9.75978	-29.4968	-2.63984
 600	1	1	-0.014027	-10.9089	-28.7459	-2.47234
 601	1	1	-0.211541	-8.49356	-28.9918	-2.2907
 602	1	1	-0.003037	-8.48306	-27.7651	-1.58581
 603	1	4	-0.005095	-9.68226	-27.0676	-1.31571
 604	1	2	0.078204	-7.26357	-26.8875	-1.24997
 605	1	3	-0.018845	-8.34246	-21.8423	-0.368959
 606	1	4	0.006574	-9.3537	-25.7618	-0.73797
 607	1	1	0.013723	-7.94769	-25.6135	-0.7178
 608	1	1	-0.173541	-7.35947	-24.3517	-0.465231
 609	1	1	-0.072264	-8.24111	-23.3315	-0.0725206
 610	1	1	-0.030211	-9.61214	-23.5014	-0.0462559
 611	1	3	0.009457	-9.90557	-22.0454	-0.321385
 612	1	1	-0.176921	-10.2256	-24.6861	-0.457441