pySIMM System Object

3650 atoms
4258 bonds
8790 angles
16180 dihedrals
300 impropers

6 atom types
11 bond types
24 angle types
21 dihedral types
2 improper types

-217.072705 217.072705 xlo xhi
-217.072705 217.072705 ylo yhi
-217.072705 217.072705 zlo zhi

Masses

   1	12.01	# ca
   2	12.01	# c3
   3	12.01	# cy
   4	12.01	# cp
   5	1.008	# hc
   6	1.008	# ha

Pair Coeffs

   1	0.086	3.3996695084235347	# ca
   2	0.1094	3.3996695084235347	# c3
   3	0.086	3.3996695084235347	# cy
   4	0.086	3.3996695084235347	# cp
   5	0.0157	2.649532787749369	# hc
   6	0.015	2.59964245953351	# ha

Bond Coeffs

   1	321.2	1.5154	# ca,cy
   2	461.1	1.3984	# ca,ca
   3	305.9	1.5319	# c3,cy
   4	351.4	1.4854	# cp,cp
   5	345.8	1.086	# ca,ha
   6	300.9	1.5375	# c3,c3
   7	450.2	1.4058	# ca,cp
   8	285.0	1.5562	# cy,cy
   9	321.0	1.5156	# c3,ca
  10	330.6	1.0969	# c3,hc
  11	333.3	1.0949	# cy,hc

Angle Coeffs

   1	67.9	96.03	# cy,c3,cy
   2	61.4	116.81	# ca,cy,cy
   3	63.15	112.07	# c3,c3,ca
   4	45.97	114.53	# ca,cy,hc
   5	66.26	120.69	# ca,ca,cp
   6	46.34	109.8	# c3,c3,hc
   7	48.18	119.88	# ca,ca,ha
   8	62.73	112.39	# c3,c3,cy
   9	46.29	110.75	# cy,c3,hc
  10	44.83	114.79	# cy,cy,hc
  11	46.8	110.47	# ca,c3,hc
  12	66.72	118.38	# ca,cp,ca
  13	62.86	111.51	# c3,c3,c3
  14	46.43	110.14	# c3,cy,hc
  15	60.66	118.7	# c3,cy,cy
  16	63.43	120.63	# c3,ca,cp
  17	63.56	112.24	# ca,c3,ca
  18	64.05	121.11	# ca,cp,cp
  19	66.62	120.02	# ca,ca,ca
  20	39.4	107.58	# hc,c3,hc
  21	47.98	119.86	# cp,ca,ha
  22	63.53	120.77	# c3,ca,ca
  23	63.51	120.86	# ca,ca,cy
  24	62.8	113.57	# c3,cy,ca

Dihedral Coeffs

   1	1	0.16	3	0	# hc,c3,c3,c3
   2	1	0.0	2	0.0	# ca,ca,cy,cy
   3	1	1.0	2	180	# X,cp,cp,X
   4	1	0.0	2	0.0	# ca,ca,cy,c3
   5	3	0.38	3	180.0	0.0	2	0.0	1.15	1	0.0	# ca,ca,cy,hc
   6	1	0.0	2	0	# X,c3,ca,X
   7	1	0.16	3	0.0	# cy,c3,cy,ca
   8	1	0.15555555555555556	3	0	# X,c3,c3,X
   9	1	0.16	3	0.0	# c3,c3,cy,ca
  10	1	0.16	3	0.0	# hc,c3,cy,ca
  11	3	0.18	3	0.0	0.25	2	180.0	0.2	1	180.0	# cy,c3,cy,cy
  12	1	0.15	3	0	# hc,c3,c3,hc
  13	3	0.18	3	0.0	0.25	2	180.0	0.2	1	180.0	# c3,c3,cy,cy
  14	1	0.16	3	0.0	# hc,c3,cy,cy
  15	1	0.16	3	0.0	# cy,c3,cy,hc
  16	1	0.16	3	0.0	# c3,c3,cy,hc
  17	1	0.15	3	0.0	# hc,c3,cy,hc
  18	1	3.625	2	180	# X,ca,ca,X
  19	1	0.15555555555555556	3	0	# X,cy,cy,X
  20	1	3.625	2	180	# X,ca,cp,X
  21	3	0.18	3	0	0.25	2	180	0.2	1	180	# c3,c3,c3,c3

Improper Coeffs

   1	1.1	-1	2	# ca,ca,ca,c3
   2	1.1	-1	2	# ca,X,X,ha

Atoms

   1	1	1	0.066869	-22.3487	155.615	-142.6
   2	1	1	0.053974	-21.3639	155.411	-141.658
   3	1	1	-0.117882	-20.0035	155.213	-141.958
   4	1	1	-0.084276	-19.766	155.32	-143.34
   5	1	1	-0.157972	-22.1313	155.587	-143.99
   6	1	2	0.004935	-18.187	153.51	-144.599
   7	1	1	-0.170374	-20.7589	155.482	-144.292
   8	1	3	0.154019	-19.8352	155.155	-145.46
   9	1	3	0.051574	-18.6984	154.963	-144.362
  10	1	3	0.007409	-19.3715	152.639	-144.091
  11	1	2	0.007138	-19.8389	153.795	-146.226
  12	1	1	-0.211215	-18.4055	150.15	-144.532
  13	1	3	-0.023783	-20.4868	152.825	-145.201
  14	1	2	-0.253384	-18.3276	153.427	-146.147
  15	1	1	-0.027691	-20.3138	151.341	-145.475
  16	1	1	-0.014027	-19.3522	151.18	-144.502
  17	1	1	-0.211541	-20.42	150.494	-146.587
  18	1	1	-0.003037	-19.572	149.364	-146.567
  19	1	4	-0.005095	-18.5907	149.195	-145.561
  20	1	2	0.078204	-19.4647	148.26	-147.628
  21	1	3	-0.018845	-16.4192	144.181	-146.379
  22	1	4	0.006574	-17.7949	148.001	-145.876
  23	1	1	0.013723	-18.2987	147.428	-147.068
  24	1	1	-0.173541	-17.856	146.163	-147.514
  25	1	1	-0.072264	-16.8048	145.594	-146.781
  26	1	1	-0.030211	-16.3087	146.157	-145.621
  27	1	3	0.009457	-15.8445	144.824	-145.053
  28	1	1	-0.176921	-16.8264	147.341	-145.082
  29	1	2	0.038799	-17.5178	143.229	-145.849
  30	1	2	0.012799	-18.7131	144.039	-145.284
  31	1	2	-0.181835	-16.8675	142.734	-144.545
  32	1	2	-0.004967	-18.1452	144.655	-143.977
  33	1	2	0.05243	-16.6842	144.14	-143.946
  34	1	2	-0.049676	-20.7601	147.433	-147.789
  35	1	2	-0.040251	-20.8021	146.949	-149.254
  36	1	5	0.031595	-20.8017	146.596	-147.081
  37	1	5	0.022689	-21.635	148.07	-147.606
  38	1	2	-0.037258	-19.6846	147.7	-150.008
  39	1	2	0.002978	-19.1684	148.787	-149.047
  40	1	5	0.016721	-19.7303	149.712	-149.228
  41	1	5	-0.000468	-18.1034	149.004	-149.202
  42	1	5	0.056924	-17.9641	155.301	-141.234
  43	1	5	0.029852	-23.8113	154.639	-144.971
  44	1	5	0.043077	-17.1985	153.271	-144.187
  45	1	5	0.016056	-19.6527	155.986	-146.151
  46	1	5	0.041103	-17.876	155.682	-144.443
  47	1	5	0.055216	-19.6538	152.794	-143.047
  48	1	5	0.041749	-20.283	153.806	-147.23
  49	1	6	0.155314	-17.5598	150.118	-143.854
  50	1	5	0.049935	-21.4937	153.101	-144.875
  51	1	5	0.098652	-18.1043	152.428	-146.546
  52	1	5	0.045245	-17.6919	154.159	-146.663
  53	1	6	0.165622	-21.0687	150.722	-147.427
  54	1	5	0.050235	-15.6815	143.67	-147.007
  55	1	6	0.152615	-18.3545	145.62	-148.31
  56	1	5	0.037653	-14.7662	144.699	-144.904
  57	1	6	0.137195	-16.5831	147.675	-144.078
  58	1	5	0.010736	-17.8124	142.433	-146.544
  59	1	5	-0.004925	-19.5522	143.375	-145.058
  60	1	5	0.039247	-15.9149	142.213	-144.714
  61	1	5	0.062128	-17.5338	142.094	-143.95
  62	1	5	0.003131	-18.7002	144.284	-143.107
  63	1	5	0.00404	-16.2307	144.155	-142.947
  64	1	5	0.021644	-20.6403	145.865	-149.311
  65	1	5	0.012129	-21.783	147.165	-149.696
  66	1	5	0.009331	-18.8714	147.005	-150.251
  67	1	5	0.018167	-20.0482	148.134	-150.948
  68	1	2	-0.164337	-18.9298	154.87	-140.942
  69	1	5	0.06697	-19.183	155.266	-139.951
  70	1	5	0.100055	-18.7989	153.785	-140.856
  71	1	2	0.054914	-23.243	155.576	-145.022
  72	1	5	0.026242	-23.941	156.405	-144.853
  73	1	5	-0.001285	-22.8431	155.673	-146.039
  74	1	1	0.066869	-28.2836	145.711	-132.636
  75	1	1	0.053974	-26.9102	145.683	-132.488
  76	1	1	-0.117882	-26.137	146.809	-132.138
  77	1	1	-0.084276	-26.9386	147.919	-131.797
  78	1	1	-0.157972	-29.0691	146.861	-132.454
  79	1	2	0.004935	-26.3072	150.401	-132.809
  80	1	1	-0.170374	-28.3168	147.935	-131.951
  81	1	3	0.154019	-28.4071	149.448	-131.917
  82	1	3	0.051574	-26.8344	149.445	-131.69
  83	1	3	0.007409	-26.4343	149.533	-134.079
  84	1	2	0.007138	-28.6077	150.312	-133.199
  85	1	1	-0.211215	-25.6086	151.276	-136.007
  86	1	3	-0.023783	-27.996	149.427	-134.333
  87	1	2	-0.253384	-27.5072	151.383	-132.948
  88	1	1	-0.027691	-27.7121	150.11	-135.656
  89	1	1	-0.014027	-26.3684	150.259	-135.411
  90	1	1	-0.211541	-28.4149	150.849	-136.611
  91	1	1	-0.003037	-27.6309	151.751	-137.359
  92	1	4	-0.005095	-26.2717	151.994	-137.037
  93	1	2	0.078204	-28.1255	152.698	-138.459
  94	1	3	-0.018845	-24.9412	156.673	-139.811
  95	1	4	0.006574	-25.8076	153.136	-137.842
  96	1	1	0.013723	-26.8618	153.53	-138.708
  97	1	1	-0.173541	-26.75	154.655	-139.557
  98	1	1	-0.072264	-25.513	155.305	-139.506
  99	1	1	-0.030211	-24.53	154.986	-138.601
 100	1	3	0.009457	-23.8251	156.33	-138.729
 101	1	1	-0.176921	-24.6278	153.914	-137.706
 102	1	2	0.038799	-24.1147	156.882	-141.104
 103	1	2	0.012799	-23.48	155.54	-141.592
 104	1	2	-0.181835	-22.9028	157.616	-140.484
 105	1	2	-0.004967	-22.3501	155.272	-140.512
 106	1	2	0.05243	-22.5068	156.463	-139.532
 107	1	2	-0.049676	-28.6057	151.923	-139.706
 108	1	2	-0.040251	-30.1288	151.793	-139.544
 109	1	5	0.031595	-28.3911	152.505	-140.612
 110	1	5	0.022689	-28.1156	150.946	-139.808
 111	1	2	-0.037258	-30.561	153.078	-138.819
 112	1	2	0.002978	-29.3443	153.54	-137.989
 113	1	5	0.016721	-29.5351	153.396	-136.918
 114	1	5	-0.000468	-29.1775	154.614	-138.143
 115	1	5	0.056924	-24.3096	146.76	-133.302
 116	1	5	0.029852	-31.0822	146.086	-132.655
 117	1	5	0.043077	-25.3248	150.858	-132.634
 118	1	5	0.016056	-28.9786	149.86	-131.078
 119	1	5	0.041103	-26.5317	149.811	-130.703
 120	1	5	0.055216	-25.855	148.607	-134.061
 121	1	5	0.041749	-29.6226	150.692	-133.369
 122	1	6	0.155314	-24.6074	151.528	-135.672
 123	1	5	0.049935	-28.4358	148.434	-134.444
 124	1	5	0.098652	-27.3966	152.089	-133.782
 125	1	5	0.045245	-27.6793	151.954	-132.026
 126	1	6	0.165622	-29.4863	150.767	-136.743
 127	1	5	0.050235	-25.5869	157.53	-139.591
 128	1	6	0.152615	-27.583	155.032	-140.142
 129	1	5	0.037653	-23.8268	156.963	-137.836
 130	1	6	0.137195	-23.9005	153.73	-136.924
 131	1	5	0.010736	-24.631	157.443	-141.893
 132	1	5	-0.004925	-24.1689	154.701	-141.75
 133	1	5	0.039247	-23.1916	158.528	-139.943
 134	1	5	0.062128	-22.1238	157.88	-141.211
 135	1	5	0.003131	-22.393	154.273	-140.067
 136	1	5	0.00404	-21.6134	156.661	-138.926
 137	1	5	0.021644	-30.6377	151.672	-140.509
 138	1	5	0.012129	-30.3637	150.918	-138.924
 139	1	5	0.009331	-30.809	153.849	-139.56
 140	1	5	0.018167	-31.4469	152.913	-138.193
 141	1	2	-0.164337	-24.6244	146.857	-132.256
 142	1	5	0.06697	-24.2246	147.803	-131.87
 143	1	5	0.100055	-24.1618	146.041	-131.688
 144	1	2	0.054914	-30.5111	146.989	-132.903
 145	1	5	0.026242	-31.004	147.841	-132.418
 146	1	5	-0.001285	-30.5636	147.147	-133.986
 147	1	1	0.066869	-21.6448	149.922	-140.96
 148	1	1	0.053974	-20.5914	149.096	-140.585
 149	1	1	-0.117882	-20.1032	148.055	-141.39
 150	1	1	-0.084276	-20.6705	148.041	-142.673
 151	1	1	-0.157972	-22.2905	149.825	-142.211
 152	1	2	0.004935	-21.763	145.669	-143.346
 153	1	1	-0.170374	-21.6971	148.881	-143.078
 154	1	3	0.154019	-22.1177	147.963	-144.239
 155	1	3	0.051574	-20.9928	146.982	-143.706
 156	1	3	0.007409	-22.6628	146.083	-142.131
 157	1	2	0.007138	-23.3874	147.048	-144.287
 158	1	1	-0.211215	-24.1122	144.405	-140.585
 159	1	3	-0.023783	-23.7839	146.97	-142.802
 160	1	2	-0.253384	-22.7619	145.644	-144.535
 161	1	1	-0.027691	-24.7537	145.879	-142.398
 162	1	1	-0.014027	-23.7934	145.142	-141.738
 163	1	1	-0.211541	-26.1191	145.832	-142.098
 164	1	1	-0.003037	-26.4813	144.926	-141.08
 165	1	4	-0.005095	-25.4966	144.273	-140.299
 166	1	2	0.078204	-27.8856	144.716	-140.501
 167	1	3	-0.018845	-28.1739	143.161	-135.571
 168	1	4	0.006574	-26.1645	143.688	-139.12
 169	1	1	0.013723	-27.5595	143.895	-139.249
 170	1	1	-0.173541	-28.4603	143.58	-138.212
 171	1	1	-0.072264	-27.8956	143.024	-137.059
 172	1	1	-0.030211	-26.5284	142.915	-136.891
 173	1	3	0.009457	-26.6072	143.069	-135.381
 174	1	1	-0.176921	-25.6057	143.274	-137.885
 175	1	2	0.038799	-28.5057	144.555	-134.992
 176	1	2	0.012799	-28.3292	144.435	-133.451
 177	1	2	-0.181835	-27.2695	145.39	-135.402
 178	1	2	-0.004967	-26.7542	144.388	-133.273
 179	1	2	0.05243	-26.2459	144.437	-134.744
 180	1	2	-0.049676	-28.6079	146.051	-140.154
 181	1	2	-0.040251	-29.9059	146.077	-140.982
 182	1	5	0.031595	-28.8577	146.094	-139.087
 183	1	5	0.022689	-27.989	146.931	-140.368
 184	1	2	-0.037258	-30.2075	144.607	-141.309
 185	1	2	0.002978	-28.8249	143.954	-141.467
 186	1	5	0.016721	-28.4846	144.086	-142.503
 187	1	5	-0.000468	-28.8573	142.876	-141.262
 188	1	5	0.056924	-18.7478	146.383	-141.652
 189	1	5	0.029852	-23.9927	150.261	-143.492
 190	1	5	0.043077	-21.1477	144.772	-143.216
 191	1	5	0.016056	-21.9173	148.376	-145.231
 192	1	5	0.041103	-20.1974	146.783	-144.432
 193	1	5	0.055216	-22.1216	146.475	-141.269
 194	1	5	0.041749	-24.1806	147.355	-144.98
 195	1	6	0.155314	-23.351	144.039	-139.903
 196	1	5	0.049935	-24.0401	147.931	-142.359
 197	1	5	0.098652	-23.4916	144.826	-144.464
 198	1	5	0.045245	-22.2558	145.577	-145.507
 199	1	6	0.165622	-26.8322	146.518	-142.545
 200	1	5	0.050235	-28.7677	142.357	-135.122
 201	1	6	0.152615	-29.5031	143.864	-138.259
 202	1	5	0.037653	-26.2619	142.224	-134.792
 203	1	6	0.137195	-24.5418	143.349	-137.684
 204	1	5	0.010736	-29.4653	144.98	-135.303
 205	1	5	-0.004925	-28.8558	143.601	-132.97
 206	1	5	0.039247	-27.2598	146.403	-134.984
 207	1	5	0.062128	-27.1417	145.484	-136.488
 208	1	5	0.003131	-26.401	143.538	-132.68
 209	1	5	0.00404	-25.1974	144.742	-134.85
 210	1	5	0.021644	-30.7309	146.561	-140.443
 211	1	5	0.012129	-29.7325	146.63	-141.915
 212	1	5	0.009331	-30.7415	144.143	-140.471
 213	1	5	0.018167	-30.8218	144.501	-142.213
 214	1	2	-0.164337	-19.2722	146.907	-140.845
 215	1	5	0.06697	-18.5157	147.272	-140.139
 216	1	5	0.100055	-19.8999	146.178	-140.318
 217	1	2	0.054914	-23.5994	150.539	-142.507
 218	1	5	0.026242	-24.3615	150.295	-141.756
 219	1	5	-0.001285	-23.4573	151.627	-142.498
 220	1	1	0.066869	-15.7339	151.52	-127.685
 221	1	1	0.053974	-14.6545	151.173	-128.474
 222	1	1	-0.117882	-13.9686	152.058	-129.318
 223	1	1	-0.084276	-14.4117	153.38	-129.157
 224	1	1	-0.157972	-16.288	152.817	-127.665
 225	1	2	0.004935	-14.9935	154.699	-131.433
 226	1	1	-0.170374	-15.5061	153.748	-128.387
 227	1	3	0.154019	-15.6499	155.116	-129.07
 228	1	3	0.051574	-14.4326	154.652	-129.979
 229	1	3	0.007409	-16.0453	153.543	-131.45
 230	1	2	0.007138	-16.7456	155.508	-130.118
 231	1	1	-0.211215	-17.0649	153.282	-133.981
 232	1	3	-0.023783	-17.2516	154.132	-130.599
 233	1	2	-0.253384	-15.8682	155.98	-131.315
 234	1	1	-0.027691	-18.0423	154.093	-131.896
 235	1	1	-0.014027	-17.0187	153.53	-132.609
 236	1	1	-0.211541	-19.1801	154.646	-132.499
 237	1	1	-0.003037	-19.2768	154.403	-133.891
 238	1	4	-0.005095	-18.2763	153.686	-134.597
 239	1	2	0.078204	-20.389	154.859	-134.846
 240	1	3	-0.018845	-20.7803	152.157	-139.245
 241	1	4	0.006574	-18.7186	153.508	-135.985
 242	1	1	0.013723	-19.9385	154.201	-136.164
 243	1	1	-0.173541	-20.7035	154.044	-137.341
 244	1	1	-0.072264	-20.1632	153.203	-138.329
 245	1	1	-0.030211	-19.0261	152.447	-138.099
 246	1	3	0.009457	-19.5159	151.271	-138.927
 247	1	1	-0.176921	-18.2816	152.54	-136.918
 248	1	2	0.038799	-21.9542	151.328	-138.683
 249	1	2	0.012799	-22.1706	150.045	-139.532
 250	1	2	-0.181835	-21.3326	150.687	-137.418
 251	1	2	-0.004967	-20.9413	149.145	-139.117
 252	1	2	0.05243	-20.1299	150.062	-138.161
 253	1	2	-0.049676	-21.8054	154.398	-134.407
 254	1	2	-0.040251	-22.741	155.618	-134.549
 255	1	5	0.031595	-22.16	153.561	-135.022
 256	1	5	0.022689	-21.807	154.052	-133.366
 257	1	2	-0.037258	-21.9376	156.697	-135.294
 258	1	2	0.002978	-20.4685	156.396	-134.971
 259	1	5	0.016721	-20.2115	156.866	-134.013
 260	1	5	-0.000468	-19.7878	156.792	-135.735
 261	1	5	0.056924	-12.5449	152.47	-130.907
 262	1	5	0.029852	-17.8712	154.2	-127.114
 263	1	5	0.043077	-14.2492	154.691	-132.24
 264	1	5	0.016056	-15.418	155.972	-128.427
 265	1	5	0.041103	-13.5401	155.28	-129.885
 266	1	5	0.055216	-15.6643	152.551	-131.201
 267	1	5	0.041749	-17.5153	156.21	-129.775
 268	1	6	0.155314	-16.2436	152.831	-134.529
 269	1	5	0.049935	-17.6774	153.504	-129.814
 270	1	5	0.098652	-16.4502	156.186	-132.224
 271	1	5	0.045245	-15.2741	156.871	-131.069
 272	1	6	0.165622	-19.9186	155.217	-131.945
 273	1	5	0.050235	-20.9202	152.456	-140.289
 274	1	6	0.152615	-21.7158	154.423	-137.418
 275	1	5	0.037653	-18.8819	150.987	-139.774
 276	1	6	0.137195	-17.5186	151.812	-136.663
 277	1	5	0.010736	-22.8743	151.894	-138.5
 278	1	5	-0.004925	-23.1274	149.536	-139.353
 279	1	5	0.039247	-21.9895	149.937	-136.955
 280	1	5	0.062128	-21.043	151.407	-136.643
 281	1	5	0.003131	-21.2535	148.186	-138.682
 282	1	5	0.00404	-19.4291	149.517	-137.517
 283	1	5	0.021644	-23.6691	155.367	-135.078
 284	1	5	0.012129	-23.01	155.988	-133.551
 285	1	5	0.009331	-22.0941	156.597	-136.373
 286	1	5	0.018167	-22.2289	157.713	-134.996
 287	1	2	-0.164337	-13.0009	151.611	-130.399
 288	1	5	0.06697	-12.1912	151.007	-129.971
 289	1	5	0.100055	-13.5109	151.003	-131.156
 290	1	2	0.054914	-17.6424	153.129	-127.054
 291	1	5	0.026242	-18.4411	152.582	-127.571
 292	1	5	-0.001285	-17.6675	152.838	-125.996
 293	1	1	0.066869	-9.5165	138.241	-125.202
 294	1	1	0.053974	-8.77307	139.039	-126.051
 295	1	1	-0.117882	-7.95084	140.095	-125.624
 296	1	1	-0.084276	-7.88383	140.183	-124.22
 297	1	1	-0.157972	-9.61514	138.476	-123.816
 298	1	2	0.004935	-8.21616	142.661	-123.171
 299	1	1	-0.170374	-8.69437	139.445	-123.369
 300	1	3	0.154019	-8.50513	140.4	-122.189
 301	1	3	0.051574	-7.57954	141.24	-123.17
 302	1	3	0.007409	-9.53728	142.439	-123.957
 303	1	2	0.007138	-9.56356	141.446	-121.698
 304	1	1	-0.211215	-10.77	144.854	-124.293
 305	1	3	-0.023783	-10.4683	141.645	-122.942
 306	1	2	-0.253384	-8.69825	142.741	-121.693
 307	1	1	-0.027691	-11.3588	142.883	-122.978
 308	1	1	-0.014027	-10.5571	143.545	-123.865
 309	1	1	-0.211541	-12.4752	143.467	-122.361
 310	1	1	-0.003037	-12.7604	144.785	-122.806
 311	1	4	-0.005095	-11.9346	145.448	-123.751
 312	1	2	0.078204	-13.9377	145.687	-122.395
 313	1	3	-0.018845	-14.79	149.868	-125.433
 314	1	4	0.006574	-12.5038	146.769	-124.031
 315	1	1	0.013723	-13.6692	146.939	-123.249
 316	1	1	-0.173541	-14.5326	148.041	-123.454
 317	1	1	-0.072264	-14.0992	148.997	-124.389
 318	1	1	-0.030211	-12.9832	148.793	-125.179
 319	1	3	0.009457	-13.5307	149.585	-126.346
 320	1	1	-0.176921	-12.1767	147.657	-125.079
 321	1	2	0.038799	-15.9562	149.256	-126.246
 322	1	2	0.012799	-16.2182	150.079	-127.547
 323	1	2	-0.181835	-15.2974	148.004	-126.874
 324	1	2	-0.004967	-14.9686	149.698	-128.448
 325	1	2	0.05243	-14.1289	148.774	-127.53
 326	1	2	-0.049676	-15.3107	145.037	-122.715
 327	1	2	-0.040251	-16.1844	145.238	-121.465
 328	1	5	0.031595	-15.7814	145.465	-123.609
 329	1	5	0.022689	-15.1895	143.961	-122.895
 330	1	2	-0.037258	-15.1873	145.299	-120.299
 331	1	2	0.002978	-13.9489	146.005	-120.878
 332	1	5	0.016721	-13.0286	145.682	-120.374
 333	1	5	-0.000468	-14.0497	147.087	-120.721
 334	1	5	0.056924	-8.14272	141.626	-127.148
 335	1	5	0.029852	-10.5205	138.079	-121.882
 336	1	5	0.043077	-7.57492	143.48	-123.519
 337	1	5	0.016056	-7.96915	139.971	-121.335
 338	1	5	0.041103	-6.53097	141.288	-122.857
 339	1	5	0.055216	-9.4273	142.061	-124.974
 340	1	5	0.041749	-10.0807	141.207	-120.76
 341	1	6	0.155314	-10.1075	145.365	-124.984
 342	1	5	0.049935	-10.9583	140.735	-123.298
 343	1	5	0.098652	-9.28103	143.647	-121.48
 344	1	5	0.045245	-7.86593	142.683	-120.978
 345	1	6	0.165622	-13.0767	142.949	-121.621
 346	1	5	0.050235	-14.9642	150.909	-125.141
 347	1	6	0.152615	-15.5166	148.09	-122.998
 348	1	5	0.037653	-12.9281	150.447	-126.65
 349	1	6	0.137195	-11.4285	147.414	-125.826
 350	1	5	0.010736	-16.8627	149.046	-125.665
 351	1	5	-0.004925	-17.1704	149.861	-128.048
 352	1	5	0.039247	-15.9456	147.504	-127.608
 353	1	5	0.062128	-14.9725	147.255	-126.141
 354	1	5	0.003131	-15.2594	149.262	-129.414
 355	1	5	0.00404	-13.4126	148.143	-128.071
 356	1	5	0.021644	-16.722	146.193	-121.54
 357	1	5	0.012129	-16.9213	144.435	-121.34
 358	1	5	0.009331	-15.598	145.828	-119.43
 359	1	5	0.018167	-14.9202	144.28	-119.991
 360	1	2	-0.164337	-7.35722	141.126	-126.568
 361	1	5	0.06697	-6.80062	141.896	-126.02
 362	1	5	0.100055	-6.66568	140.652	-127.276
 363	1	2	0.054914	-10.7017	137.873	-122.944
 364	1	5	0.026242	-11.6853	138.283	-123.204
 365	1	5	-0.001285	-10.7463	136.784	-123.071
 366	1	1	0.066869	-11.8157	133.087	-138.036
 367	1	1	0.053974	-11.367	134.391	-137.981
 368	1	1	-0.117882	-10.0092	134.761	-137.965
 369	1	1	-0.084276	-9.15942	133.648	-138.131
 370	1	1	-0.157972	-10.9653	131.968	-138.0
 371	1	2	0.004935	-6.94911	133.425	-136.534
 372	1	1	-0.170374	-9.61159	132.337	-138.119
 373	1	3	0.154019	-8.23341	131.754	-137.84
 374	1	3	0.051574	-7.70298	133.253	-137.889
 375	1	3	0.007409	-8.11384	133.513	-135.52
 376	1	2	0.007138	-7.77595	131.243	-136.435
 377	1	1	-0.211215	-7.51173	134.126	-132.941
 378	1	3	-0.023783	-8.68942	132.036	-135.455
 379	1	2	-0.253384	-6.41075	131.981	-136.318
 380	1	1	-0.027691	-8.27127	132.057	-133.992
 381	1	1	-0.014027	-7.75314	133.327	-134.061
 382	1	1	-0.211541	-8.6598	131.459	-132.786
 383	1	1	-0.003037	-8.35543	132.207	-131.623
 384	1	4	-0.005095	-7.76553	133.495	-131.698
 385	1	2	0.078204	-8.749	131.872	-130.175
 386	1	3	-0.018845	-8.69196	135.909	-126.816
 387	1	4	0.006574	-7.71877	134.069	-130.345
 388	1	1	0.013723	-8.32162	133.155	-129.448
 389	1	1	-0.173541	-8.64648	133.535	-128.125
 390	1	1	-0.072264	-8.18008	134.795	-127.723
 391	1	1	-0.030211	-7.53856	135.664	-128.584
 392	1	3	0.009457	-7.93624	136.895	-127.796
 393	1	1	-0.176921	-7.36677	135.38	-129.944
 394	1	2	0.038799	-10.179	136.347	-126.958
 395	1	2	0.012799	-10.4272	137.745	-126.31
 396	1	2	-0.181835	-10.2611	136.773	-128.442
 397	1	2	-0.004967	-9.61873	138.715	-127.27
 398	1	2	0.05243	-9.07616	137.765	-128.37
 399	1	2	-0.049676	-10.2657	131.573	-130.019
 400	1	2	-0.040251	-10.3674	130.276	-129.197
 401	1	5	0.031595	-10.8101	132.396	-129.539
 402	1	5	0.022689	-10.7289	131.409	-131.0
 403	1	2	-0.037258	-9.06404	129.521	-129.493
 404	1	2	0.002978	-8.00232	130.623	-129.641
 405	1	5	0.016721	-7.18282	130.31	-130.301
 406	1	5	-0.000468	-7.5703	130.836	-128.654
 407	1	5	0.056924	-9.92526	136.877	-138.415
 408	1	5	0.029852	-12.3133	130.309	-138.349
 409	1	5	0.043077	-6.20729	134.232	-136.49
 410	1	5	0.016056	-7.83275	131.114	-138.634
 411	1	5	0.041103	-7.03005	133.455	-138.73
 412	1	5	0.055216	-8.79689	134.349	-135.683
 413	1	5	0.041749	-7.75265	130.155	-136.302
 414	1	6	0.155314	-7.23661	135.173	-133.019
 415	1	5	0.049935	-9.76054	131.872	-135.602
 416	1	5	0.098652	-5.92929	131.841	-135.341
 417	1	5	0.045245	-5.70428	131.678	-137.103
 418	1	6	0.165622	-9.22679	130.534	-132.754
 419	1	5	0.050235	-8.34002	135.877	-125.779
 420	1	6	0.152615	-9.28645	132.929	-127.491
 421	1	5	0.037653	-7.10397	137.474	-127.381
 422	1	6	0.137195	-7.07596	136.142	-130.66
 423	1	5	0.010736	-10.914	135.587	-126.665
 424	1	5	-0.004925	-11.4821	138.034	-126.214
 425	1	5	0.039247	-11.2122	137.263	-128.695
 426	1	5	0.062128	-10.1053	135.947	-129.148
 427	1	5	0.003131	-10.2367	139.544	-127.638
 428	1	5	0.00404	-8.84435	138.268	-129.317
 429	1	5	0.021644	-10.4146	130.52	-128.127
 430	1	5	0.012129	-11.2565	129.688	-129.457
 431	1	5	0.009331	-8.80965	128.804	-128.702
 432	1	5	0.018167	-9.16233	128.974	-130.44
 433	1	2	-0.164337	-9.52673	136.171	-137.676
 434	1	5	0.06697	-9.85516	136.502	-136.683
 435	1	5	0.100055	-8.43199	136.233	-137.708
 436	1	2	0.054914	-11.4428	130.554	-137.728
 437	1	5	0.026242	-10.6567	129.82	-137.947
 438	1	5	-0.001285	-11.7327	130.434	-136.677
 439	1	1	0.066869	-22.9247	139.56	-138.566
 440	1	1	0.053974	-21.9424	140.35	-137.999
 441	1	1	-0.117882	-21.242	141.339	-138.716
 442	1	1	-0.084276	-21.7928	141.569	-139.993
 443	1	1	-0.157972	-23.3916	139.699	-139.882
 444	1	2	0.004935	-20.0697	141.603	-142.12
 445	1	1	-0.170374	-22.8218	140.809	-140.534
 446	1	3	0.154019	-22.5124	141.23	-141.965
 447	1	3	0.051574	-21.3361	142.101	-141.35
 448	1	3	0.007409	-19.8273	140.197	-141.513
 449	1	2	0.007138	-21.7958	140.306	-143.001
 450	1	1	-0.211215	-17.6289	138.73	-141.966
 451	1	3	-0.023783	-21.0016	139.323	-142.098
 452	1	2	-0.253384	-20.6943	141.277	-143.507
 453	1	1	-0.027691	-19.9244	138.487	-142.759
 454	1	1	-0.014027	-18.8918	139.262	-142.263
 455	1	1	-0.211541	-19.7988	137.104	-142.949
 456	1	1	-0.003037	-18.5133	136.562	-142.74
 457	1	4	-0.005095	-17.4375	137.364	-142.293
 458	1	2	0.078204	-18.1484	135.072	-142.693
 459	1	3	-0.018845	-13.7278	133.873	-140.121
 460	1	4	0.006574	-16.3034	136.481	-141.967
 461	1	1	0.013723	-16.7049	135.137	-142.171
 462	1	1	-0.173541	-15.9161	134.06	-141.707
 463	1	1	-0.072264	-14.6532	134.403	-141.207
 464	1	1	-0.030211	-14.2393	135.711	-141.055
 465	1	3	0.009457	-13.2402	135.371	-139.965
 466	1	1	-0.176921	-15.0758	136.799	-141.335
 467	1	2	0.038799	-14.3395	133.556	-138.726
 468	1	2	0.012799	-13.2315	133.447	-137.634
 469	1	2	-0.181835	-14.9343	134.919	-138.304
 470	1	2	-0.004967	-12.7067	134.943	-137.52
 471	1	2	0.05243	-13.6236	135.716	-138.508
 472	1	2	-0.049676	-19.0585	134.24	-141.755
 473	1	2	-0.040251	-19.1858	132.834	-142.382
 474	1	5	0.031595	-18.6571	134.192	-140.734
 475	1	5	0.022689	-20.0578	134.686	-141.687
 476	1	2	-0.037258	-18.48	132.885	-143.753
 477	1	2	0.002978	-18.2505	134.374	-144.064
 478	1	5	0.016721	-19.119	134.761	-144.613
 479	1	5	-0.000468	-17.3594	134.534	-144.685
 480	1	5	0.056924	-19.146	141.184	-138.181
 481	1	5	0.029852	-25.2117	138.539	-140.053
 482	1	5	0.043077	-19.2065	142.277	-142.116
 483	1	5	0.016056	-23.2948	141.823	-142.452
 484	1	5	0.041103	-21.4655	143.179	-141.482
 485	1	5	0.055216	-19.6489	140.199	-140.437
 486	1	5	0.041749	-22.4352	139.852	-143.769
 487	1	6	0.155314	-16.8915	139.288	-141.399
 488	1	5	0.049935	-21.6164	138.732	-141.419
 489	1	5	0.098652	-19.9865	140.802	-144.2
 490	1	5	0.045245	-21.1284	142.162	-143.99
 491	1	6	0.165622	-20.6673	136.474	-143.11
 492	1	5	0.050235	-12.9818	133.142	-140.452
 493	1	6	0.152615	-16.2923	133.043	-141.658
 494	1	5	0.037653	-12.193	135.582	-140.208
 495	1	6	0.137195	-14.8386	137.806	-141.01
 496	1	5	0.010736	-15.056	132.725	-138.714
 497	1	5	-0.004925	-13.563	133.042	-136.669
 498	1	5	0.039247	-15.2817	134.929	-137.261
 499	1	5	0.062128	-15.7612	135.255	-138.943
 500	1	5	0.003131	-12.7246	135.311	-136.485
 501	1	5	0.00404	-13.705	136.788	-138.292
 502	1	5	0.021644	-18.7262	132.073	-141.739
 503	1	5	0.012129	-20.2451	132.575	-142.506
 504	1	5	0.009331	-17.5134	132.369	-143.688
 505	1	5	0.018167	-19.0724	132.393	-144.535
 506	1	2	-0.164337	-19.9329	141.946	-138.243
 507	1	5	0.06697	-19.5884	142.732	-138.926
 508	1	5	0.100055	-20.0471	142.393	-137.248
 509	1	2	0.054914	-24.2534	138.657	-140.573
 510	1	5	0.026242	-24.4676	138.941	-141.611
 511	1	5	-0.001285	-23.7539	137.68	-140.586
 512	1	1	0.066869	-28.7226	144.706	-123.568
 513	1	1	0.053974	-27.577	145.434	-123.821
 514	1	1	-0.117882	-27.1299	145.783	-125.107
 515	1	1	-0.084276	-27.8861	145.167	-126.118
 516	1	1	-0.157972	-29.5821	144.239	-124.585
 517	1	2	0.004935	-27.6046	144.746	-128.776
 518	1	1	-0.170374	-29.0501	144.449	-125.875
 519	1	3	0.154019	-29.5917	144.677	-127.286
 520	1	3	0.051574	-28.2508	145.48	-127.56
 521	1	3	0.007409	-27.1318	143.4	-128.15
 522	1	2	0.007138	-29.5946	143.585	-128.398
 523	1	1	-0.211215	-25.977	142.099	-130.247
 524	1	3	-0.023783	-28.4895	142.616	-127.909
 525	1	2	-0.253384	-28.891	144.349	-129.556
 526	1	1	-0.027691	-27.9755	141.62	-128.931
 527	1	1	-0.014027	-26.782	142.278	-129.114
 528	1	1	-0.211541	-28.5331	140.79	-129.911
 529	1	1	-0.003037	-27.6907	140.482	-130.998
 530	1	4	-0.005095	-26.4223	141.098	-131.148
 531	1	2	0.078204	-28.0439	139.622	-132.219
 532	1	3	-0.018845	-24.552	139.53	-136.203
 533	1	4	0.006574	-25.8462	140.664	-132.432
 534	1	1	0.013723	-26.7877	139.811	-133.073
 535	1	1	-0.173541	-26.5616	139.277	-134.362
 536	1	1	-0.072264	-25.3356	139.642	-134.918
 537	1	1	-0.030211	-24.4112	140.442	-134.301
 538	1	3	0.009457	-23.4717	140.464	-135.498
 539	1	1	-0.176921	-24.607	141.013	-133.039
 540	1	2	0.038799	-23.7762	138.216	-136.446
 541	1	2	0.012799	-22.7351	138.428	-137.575
 542	1	2	-0.181835	-22.813	138.155	-135.237
 543	1	2	-0.004967	-21.6359	139.349	-136.897
 544	1	2	0.05243	-22.2098	139.561	-135.461
 545	1	2	-0.049676	-28.3195	138.149	-131.847
 546	1	2	-0.040251	-29.8405	138.036	-131.623
 547	1	5	0.031595	-28.0372	137.495	-132.682
 548	1	5	0.022689	-27.7494	137.829	-130.965
 549	1	2	-0.037258	-30.4883	139.255	-132.314
 550	1	2	0.002978	-29.3401	140.091	-132.917
 551	1	5	0.016721	-29.5065	141.169	-132.798
 552	1	5	-0.000468	-29.2836	139.883	-133.993
 553	1	5	0.056924	-26.5466	147.768	-125.749
 554	1	5	0.029852	-31.7363	144.37	-124.799
 555	1	5	0.043077	-26.8511	145.31	-129.34
 556	1	5	0.016056	-30.5122	145.269	-127.335
 557	1	5	0.041103	-28.3777	146.545	-127.785
 558	1	5	0.055216	-26.4372	143.499	-127.308
 559	1	5	0.041749	-30.5667	143.134	-128.633
 560	1	6	0.155314	-25.111	142.721	-130.449
 561	1	5	0.049935	-28.6609	142.188	-126.915
 562	1	5	0.098652	-28.6848	143.715	-130.428
 563	1	5	0.045245	-29.4648	145.226	-129.886
 564	1	6	0.165622	-29.56	140.449	-129.865
 565	1	5	0.050235	-25.0633	139.915	-137.093
 566	1	6	0.152615	-27.2864	138.664	-134.888
 567	1	5	0.037653	-23.288	141.452	-135.935
 568	1	6	0.137195	-23.8935	141.69	-132.58
 569	1	5	0.010736	-24.402	137.324	-136.579
 570	1	5	-0.004925	-22.3088	137.508	-137.996
 571	1	5	0.039247	-22.0673	137.352	-135.327
 572	1	5	0.062128	-23.3244	138.043	-134.272
 573	1	5	0.003131	-20.6339	138.902	-136.937
 574	1	5	0.00404	-21.4547	139.854	-134.721
 575	1	5	0.021644	-30.2301	137.093	-132.026
 576	1	5	0.012129	-30.061	138.057	-130.549
 577	1	5	0.009331	-31.1957	138.944	-133.093
 578	1	5	0.018167	-31.0456	139.844	-131.576
 579	1	2	-0.164337	-26.0817	146.845	-125.382
 580	1	5	0.06697	-25.5156	147.09	-124.474
 581	1	5	0.100055	-25.367	146.501	-126.14
 582	1	2	0.054914	-30.9867	143.718	-124.334
 583	1	5	0.026242	-31.1099	142.712	-124.753
 584	1	5	-0.001285	-31.2071	143.663	-123.26
 585	1	1	0.066869	-32.96	156.051	-132.072
 586	1	1	0.053974	-31.5998	155.807	-132.081
 587	1	1	-0.117882	-30.9659	154.873	-131.25
 588	1	1	-0.084276	-31.8271	154.306	-130.3
 589	1	1	-0.157972	-33.8484	155.376	-131.207
 590	1	2	0.004935	-31.5873	152.457	-128.372
 591	1	1	-0.170374	-33.2043	154.539	-130.268
 592	1	3	0.154019	-33.5129	153.117	-129.788
 593	1	3	0.051574	-31.9538	152.879	-129.818
 594	1	3	0.007409	-31.8011	153.776	-127.565
 595	1	2	0.007138	-33.9005	152.728	-128.326
 596	1	1	-0.211215	-31.0988	152.777	-125.224
 597	1	3	-0.023783	-33.3679	153.927	-127.499
 598	1	2	-0.253384	-32.8499	151.612	-128.045
 599	1	1	-0.027691	-33.2302	153.692	-125.997
 600	1	1	-0.014027	-31.8461	153.612	-126.06
 601	1	1	-0.211541	-33.9709	152.876	-125.121
 602	1	1	-0.003037	-33.2332	152.054	-124.237
 603	1	4	-0.005095	-31.8204	152.041	-124.26
 604	1	2	0.078204	-33.7676	150.873	-123.406
 605	1	3	-0.018845	-30.3105	147.043	-122.768
 606	1	4	0.006574	-31.3369	150.894	-123.484
 607	1	1	0.013723	-32.4561	150.161	-123.024
 608	1	1	-0.173541	-32.3056	148.832	-122.567
 609	1	1	-0.072264	-30.987	148.367	-122.461
 610	1	1	-0.030211	-29.8873	149.11	-122.846
 611	1	3	0.009457	-29.0415	147.892	-123.168
 612	1	1	-0.176921	-30.0253	150.361	-123.452
 613	1	2	0.038799	-29.7984	146.192	-121.591
 614	1	2	0.012799	-28.7853	145.12	-122.098
 615	1	2	-0.181835	-28.8241	147.155	-120.876
 616	1	2	-0.004967	-27.4931	145.987	-122.414
 617	1	2	0.05243	-27.9723	147.443	-122.131
 618	1	2	-0.049676	-34.5722	151.314	-122.168
 619	1	2	-0.040251	-35.4735	150.118	-121.815
 620	1	5	0.031595	-33.926	151.607	-121.33
 621	1	5	0.022689	-35.2038	152.174	-122.427
 622	1	2	-0.037258	-35.7223	149.362	-123.137
 623	1	2	0.002978	-34.7314	149.934	-124.175
 624	1	5	0.016721	-35.301	150.493	-124.927
 625	1	5	-0.000468	-34.1949	149.136	-124.705
 626	1	5	0.056924	-29.6884	153.36	-132.133