pySIMM System Object

3434 atoms
3994 bonds
8280 angles
15274 dihedrals
276 impropers

6 atom types
11 bond types
24 angle types
21 dihedral types
2 improper types

-210.997525 210.997525 xlo xhi
-210.997525 210.997525 ylo yhi
-210.997525 210.997525 zlo zhi

Masses

   1	12.01	# ca
   2	12.01	# c3
   3	12.01	# cy
   4	12.01	# cp
   5	1.008	# hc
   6	1.008	# ha

Pair Coeffs

   1	0.086	3.3996695084235347	# ca
   2	0.1094	3.3996695084235347	# c3
   3	0.086	3.3996695084235347	# cy
   4	0.086	3.3996695084235347	# cp
   5	0.0157	2.649532787749369	# hc
   6	0.015	2.59964245953351	# ha

Bond Coeffs

   1	321.2	1.5154	# ca,cy
   2	461.1	1.3984	# ca,ca
   3	305.9	1.5319	# c3,cy
   4	351.4	1.4854	# cp,cp
   5	345.8	1.086	# ca,ha
   6	300.9	1.5375	# c3,c3
   7	450.2	1.4058	# ca,cp
   8	285.0	1.5562	# cy,cy
   9	321.0	1.5156	# c3,ca
  10	330.6	1.0969	# c3,hc
  11	333.3	1.0949	# cy,hc

Angle Coeffs

   1	67.9	96.03	# cy,c3,cy
   2	61.4	116.81	# ca,cy,cy
   3	63.15	112.07	# c3,c3,ca
   4	45.97	114.53	# ca,cy,hc
   5	66.26	120.69	# ca,ca,cp
   6	46.34	109.8	# c3,c3,hc
   7	48.18	119.88	# ca,ca,ha
   8	62.73	112.39	# c3,c3,cy
   9	46.29	110.75	# cy,c3,hc
  10	44.83	114.79	# cy,cy,hc
  11	46.8	110.47	# ca,c3,hc
  12	66.72	118.38	# ca,cp,ca
  13	62.86	111.51	# c3,c3,c3
  14	46.43	110.14	# c3,cy,hc
  15	60.66	118.7	# c3,cy,cy
  16	63.43	120.63	# c3,ca,cp
  17	63.56	112.24	# ca,c3,ca
  18	64.05	121.11	# ca,cp,cp
  19	66.62	120.02	# ca,ca,ca
  20	39.4	107.58	# hc,c3,hc
  21	47.98	119.86	# cp,ca,ha
  22	63.53	120.77	# c3,ca,ca
  23	63.51	120.86	# ca,ca,cy
  24	62.8	113.57	# c3,cy,ca

Dihedral Coeffs

   1	1	0.16	3	0	# hc,c3,c3,c3
   2	1	0.0	2	0.0	# ca,ca,cy,cy
   3	1	1.0	2	180	# X,cp,cp,X
   4	1	0.0	2	0.0	# ca,ca,cy,c3
   5	3	0.38	3	180.0	0.0	2	0.0	1.15	1	0.0	# ca,ca,cy,hc
   6	1	0.0	2	0	# X,c3,ca,X
   7	1	0.16	3	0.0	# cy,c3,cy,ca
   8	1	0.15555555555555556	3	0	# X,c3,c3,X
   9	1	0.16	3	0.0	# c3,c3,cy,ca
  10	1	0.16	3	0.0	# hc,c3,cy,ca
  11	3	0.18	3	0.0	0.25	2	180.0	0.2	1	180.0	# cy,c3,cy,cy
  12	1	0.15	3	0	# hc,c3,c3,hc
  13	3	0.18	3	0.0	0.25	2	180.0	0.2	1	180.0	# c3,c3,cy,cy
  14	1	0.16	3	0.0	# hc,c3,cy,cy
  15	1	0.16	3	0.0	# cy,c3,cy,hc
  16	1	0.16	3	0.0	# c3,c3,cy,hc
  17	1	0.15	3	0.0	# hc,c3,cy,hc
  18	1	3.625	2	180	# X,ca,ca,X
  19	1	0.15555555555555556	3	0	# X,cy,cy,X
  20	1	3.625	2	180	# X,ca,cp,X
  21	3	0.18	3	0	0.25	2	180	0.2	1	180	# c3,c3,c3,c3

Improper Coeffs

   1	1.1	-1	2	# ca,ca,ca,c3
   2	1.1	-1	2	# ca,X,X,ha

Atoms

   1	1	1	0.066869	-7.68446	-40.833	-23.6029
   2	1	1	0.053974	-6.42634	-40.6851	-23.0598
   3	1	1	-0.117882	-5.926	-41.4419	-21.9867
   4	1	1	-0.084276	-6.84485	-42.4284	-21.5906
   5	1	1	-0.157972	-8.65334	-41.7314	-23.1176
   6	1	2	0.004935	-7.3575	-42.7919	-18.9606
   7	1	1	-0.170374	-8.12295	-42.562	-22.109
   8	1	3	0.154019	-8.58181	-43.5076	-21.0009
   9	1	3	0.051574	-7.11731	-43.3323	-20.4025
  10	1	3	0.007409	-7.87266	-41.3431	-19.2103
  11	1	2	0.007138	-9.51019	-43.0946	-19.8158
  12	1	1	-0.211215	-8.24437	-40.4691	-16.6775
  13	1	3	-0.023783	-9.33933	-41.5542	-19.7713
  14	1	2	-0.253384	-8.6555	-43.5729	-18.6046
  15	1	1	-0.027691	-9.81267	-40.8613	-18.5061
  16	1	1	-0.014027	-8.53538	-40.6575	-18.0325
  17	1	1	-0.211541	-10.9286	-40.9457	-17.6614
  18	1	1	-0.003037	-10.6838	-40.6313	-16.3057
  19	1	4	-0.005095	-9.37395	-40.3813	-15.8297
  20	1	2	0.078204	-11.6937	-40.6423	-15.1509
  21	1	3	-0.018845	-9.94366	-38.7738	-10.5333
  22	1	4	0.006574	-9.43387	-40.1679	-14.3781
  23	1	1	0.013723	-10.7833	-40.2972	-13.9609
  24	1	1	-0.173541	-11.181	-39.9698	-12.6446
  25	1	1	-0.072264	-10.137	-39.6226	-11.7778
  26	1	1	-0.030211	-8.82956	-39.4904	-12.185
  27	1	3	0.009457	-8.43718	-38.6199	-11.0029
  28	1	1	-0.176921	-8.42053	-39.6967	-13.5069
  29	1	2	0.038799	-10.4457	-37.3091	-10.4987
  30	1	2	0.012799	-10.5681	-36.689	-11.917
  31	1	2	-0.181835	-9.16997	-36.5952	-10.0064
  32	1	2	-0.004967	-9.09244	-36.5311	-12.3701
  33	1	2	0.05243	-8.28278	-37.0864	-11.168
  34	1	2	-0.049676	-12.8494	-39.6311	-15.3253
  35	1	2	-0.040251	-14.0908	-40.2474	-14.6448
  36	1	5	0.031595	-12.5999	-38.6512	-14.9006
  37	1	5	0.022689	-13.0665	-39.4865	-16.3912
  38	1	2	-0.037258	-13.7213	-41.6931	-14.2531
  39	1	2	0.002978	-12.3928	-42.0049	-14.9636
  40	1	5	0.016721	-12.6118	-42.4517	-15.9418
  41	1	5	-0.000468	-11.7791	-42.718	-14.3978
  42	1	5	0.056924	-4.15681	-42.1384	-20.9488
  43	1	5	0.029852	-10.5991	-40.7967	-23.2844
  44	1	5	0.043077	-6.51981	-42.8944	-18.2595
  45	1	5	0.016056	-8.80826	-44.5277	-21.3303
  46	1	5	0.041103	-6.53123	-44.2573	-20.3795
  47	1	5	0.055216	-7.19578	-40.6915	-19.7693
  48	1	5	0.041749	-10.542	-43.4649	-19.8583
  49	1	6	0.155314	-7.22822	-40.445	-16.2986
  50	1	5	0.049935	-9.61694	-41.0313	-20.691
  51	1	5	0.098652	-9.07899	-43.2817	-17.6339
  52	1	5	0.045245	-8.50173	-44.6606	-18.6065
  53	1	6	0.165622	-11.8965	-41.2845	-18.0164
  54	1	5	0.050235	-10.0764	-39.2818	-9.57164
  55	1	6	0.152615	-12.2219	-39.9085	-12.345
  56	1	5	0.037653	-7.69579	-39.0402	-10.3144
  57	1	6	0.137195	-7.43058	-39.4273	-13.8611
  58	1	5	0.010736	-11.3297	-37.1453	-9.86956
  59	1	5	-0.004925	-11.0549	-35.7094	-11.855
  60	1	5	0.039247	-8.82937	-36.9565	-9.02617
  61	1	5	0.062128	-9.27239	-35.5013	-9.9753
  62	1	5	0.003131	-8.8577	-35.4715	-12.5283
  63	1	5	0.00404	-7.247	-36.726	-11.1322
  64	1	5	0.021644	-14.3775	-39.6709	-13.7559
  65	1	5	0.012129	-14.9419	-40.2414	-15.3378
  66	1	5	0.009331	-13.5824	-41.7573	-13.1664
  67	1	5	0.018167	-14.5069	-42.4059	-14.5346
  68	1	2	-0.164337	-4.60018	-41.1958	-21.2921
  69	1	5	0.06697	-3.88106	-40.7188	-21.9693
  70	1	5	0.100055	-4.72698	-40.5482	-20.4167
  71	1	2	0.054914	-10.104	-41.7354	-23.562
  72	1	5	0.026242	-10.1787	-41.848	-24.6507
  73	1	5	-0.001285	-10.6603	-42.5598	-23.0987
  74	1	1	0.066869	-5.45219	-25.9666	-21.6338
  75	1	1	0.053974	-4.62141	-26.6592	-20.7758
  76	1	1	-0.117882	-3.66849	-27.6083	-21.2018
  77	1	1	-0.084276	-3.55294	-27.6502	-22.6085
  78	1	1	-0.157972	-5.47062	-26.1538	-23.0237
  79	1	2	0.004935	-3.42096	-30.0795	-23.9113
  80	1	1	-0.170374	-4.41105	-26.9662	-23.456
  81	1	3	0.154019	-4.07198	-27.8197	-24.6577
  82	1	3	0.051574	-3.03816	-28.5764	-23.7188
  83	1	3	0.007409	-4.71306	-30.1994	-23.078
  84	1	2	0.007138	-5.01595	-28.9442	-25.1796
  85	1	1	-0.211215	-5.3723	-32.7933	-23.5701
  86	1	3	-0.023783	-5.80212	-29.3924	-23.9006
  87	1	2	-0.253384	-3.96162	-30.0706	-25.3719
  88	1	1	-0.027691	-6.55272	-30.7112	-23.9757
  89	1	1	-0.014027	-5.57055	-31.4258	-23.3322
  90	1	1	-0.211541	-7.5504	-31.2945	-24.764
  91	1	1	-0.003037	-7.48556	-32.7001	-24.863
  92	1	4	-0.005095	-6.39175	-33.4254	-24.3287
  93	1	2	0.078204	-8.42509	-33.6123	-25.6639
  94	1	3	-0.018845	-6.72086	-38.5192	-26.6633
  95	1	4	0.006574	-6.4812	-34.8107	-24.816
  96	1	1	0.013723	-7.68899	-34.9522	-25.5512
  97	1	1	-0.173541	-8.03114	-36.1576	-26.2072
  98	1	1	-0.072264	-7.09218	-37.1818	-26.0556
  99	1	1	-0.030211	-5.88214	-37.0149	-25.4342
 100	1	3	0.009457	-5.29864	-38.311	-25.975
 101	1	1	-0.176921	-5.49903	-35.8343	-24.7908
 102	1	2	0.038799	-7.23258	-39.8266	-26.0046
 103	1	2	0.012799	-7.55939	-39.6077	-24.4924
 104	1	2	-0.181835	-5.89168	-40.5949	-25.9431
 105	1	2	-0.004967	-6.12176	-39.4274	-23.8461
 106	1	2	0.05243	-5.1657	-39.5519	-25.0613
 107	1	2	-0.049676	-9.84894	-33.6377	-25.0592
 108	1	2	-0.040251	-10.6861	-32.6959	-25.9401
 109	1	5	0.031595	-10.2655	-34.6513	-25.1238
 110	1	5	0.022689	-9.8638	-33.3351	-24.0039
 111	1	2	-0.037258	-10.0927	-32.8616	-27.3472
 112	1	2	0.002978	-8.59263	-33.1456	-27.1361
 113	1	5	0.016721	-8.00702	-32.2388	-27.3229
 114	1	5	-0.000468	-8.245	-33.9012	-27.852
 115	1	5	0.056924	-3.66737	-29.2211	-19.7542
 116	1	5	0.029852	-6.93585	-24.6745	-23.6186
 117	1	5	0.043077	-2.63568	-30.8129	-23.689
 118	1	5	0.016056	-3.60726	-27.2827	-25.4922
 119	1	5	0.041103	-1.99124	-28.4132	-23.9959
 120	1	5	0.055216	-4.59593	-29.9653	-22.0175
 121	1	5	0.041749	-5.61196	-28.6834	-26.06
 122	1	6	0.155314	-4.47722	-33.3161	-23.2486
 123	1	5	0.049935	-6.35653	-28.6034	-23.3886
 124	1	5	0.098652	-4.40779	-31.0268	-25.6779
 125	1	5	0.045245	-3.18433	-29.7984	-26.0984
 126	1	6	0.165622	-8.29617	-30.7124	-25.2913
 127	1	5	0.050235	-6.72669	-38.578	-27.7574
 128	1	6	0.152615	-8.91071	-36.2567	-26.836
 129	1	5	0.037653	-4.45205	-38.2119	-26.6626
 130	1	6	0.137195	-4.51528	-35.6836	-24.3622
 131	1	5	0.010736	-8.02599	-40.3418	-26.5605
 132	1	5	-0.004925	-8.26944	-38.8044	-24.2566
 133	1	5	0.039247	-5.42398	-40.71	-26.931
 134	1	5	0.062128	-5.96989	-41.5887	-25.4831
 135	1	5	0.003131	-6.01505	-38.525	-23.2333
 136	1	5	0.00404	-4.13749	-39.8224	-24.7911
 137	1	5	0.021644	-11.7557	-32.939	-25.9096
 138	1	5	0.012129	-10.5584	-31.6591	-25.6031
 139	1	5	0.009331	-10.5601	-33.7248	-27.8386
 140	1	5	0.018167	-10.2631	-31.9801	-27.9761
 141	1	2	-0.164337	-2.95296	-28.5593	-20.2595
 142	1	5	0.06697	-2.23324	-29.1884	-20.7978
 143	1	5	0.100055	-2.4039	-28.0052	-19.4884
 144	1	2	0.054914	-6.58422	-25.6662	-23.9285
 145	1	5	0.026242	-6.24703	-25.593	-24.9698
 146	1	5	-0.001285	-7.43415	-26.3566	-23.8961
 147	1	1	0.066869	-7.48678	-36.6508	-19.3212
 148	1	1	0.053974	-6.813	-36.4768	-18.1183
 149	1	1	-0.117882	-7.42978	-36.5895	-16.8609
 150	1	1	-0.084276	-8.75688	-37.037	-16.9427
 151	1	1	-0.157972	-8.85721	-36.9762	-19.3952
 152	1	2	0.004935	-10.5148	-35.4253	-15.6895
 153	1	1	-0.170374	-9.44106	-37.2267	-18.1347
 154	1	3	0.154019	-10.8247	-37.1296	-17.4706
 155	1	3	0.051574	-10.0225	-36.8384	-16.134
 156	1	3	0.007409	-9.9616	-34.4777	-16.8043
 157	1	2	0.007138	-11.8134	-35.9166	-17.5606
 158	1	1	-0.211215	-9.98286	-31.794	-16.6817
 159	1	3	-0.023783	-10.8936	-34.7782	-18.0433
 160	1	2	-0.253384	-12.0176	-35.5644	-16.0574
 161	1	1	-0.027691	-11.3953	-33.3542	-17.8823
 162	1	1	-0.014027	-10.5268	-33.0731	-16.8491
 163	1	1	-0.211541	-11.9215	-32.3796	-18.7401
 164	1	1	-0.003037	-11.552	-31.0495	-18.4421
 165	1	4	-0.005095	-10.5652	-30.7711	-17.4671
 166	1	2	0.078204	-11.9075	-29.7882	-19.2423
 167	1	3	-0.018845	-8.3961	-25.9808	-19.1086
 168	1	4	0.006574	-10.1327	-29.3768	-17.6303
 169	1	1	0.013723	-10.9176	-28.7774	-18.6437
 170	1	1	-0.173541	-10.615	-27.4947	-19.1492
 171	1	1	-0.072264	-9.52054	-26.8445	-18.5611
 172	1	1	-0.030211	-8.70413	-27.4699	-17.6354
 173	1	3	0.009457	-7.45748	-26.726	-18.079
 174	1	1	-0.176921	-8.94765	-28.7632	-17.1599
 175	1	2	0.038799	-7.76719	-26.351	-20.4689
 176	1	2	0.012799	-6.42693	-25.5694	-20.5492
 177	1	2	-0.181835	-7.28681	-27.8034	-20.2322
 178	1	2	-0.004967	-5.4793	-26.3595	-19.553
 179	1	2	0.05243	-6.43312	-27.4552	-18.991
 180	1	2	-0.049676	-11.7252	-29.9876	-20.7728
 181	1	2	-0.040251	-13.1427	-30.0479	-21.3648
 182	1	5	0.031595	-11.1952	-29.1362	-21.2148
 183	1	5	0.022689	-11.1455	-30.8873	-21.0162
 184	1	2	-0.037258	-13.9932	-29.1755	-20.4296
 185	1	2	0.002978	-13.3857	-29.3722	-19.0297
 186	1	5	0.016721	-13.9318	-30.169	-18.5077
 187	1	5	-0.000468	-13.4785	-28.4594	-18.4269
 188	1	5	0.056924	-6.80974	-36.814	-14.7994
 189	1	5	0.029852	-10.7117	-37.0894	-20.5251
 190	1	5	0.043077	-10.294	-35.136	-14.6554
 191	1	5	0.016056	-11.3852	-38.0685	-17.4597
 192	1	5	0.041103	-10.1939	-37.5754	-15.3439
 193	1	5	0.055216	-8.87951	-34.4948	-16.9379
 194	1	5	0.041749	-12.7258	-36.0783	-18.1479
 195	1	6	0.155314	-9.10117	-31.612	-16.0782
 196	1	5	0.049935	-10.443	-34.9542	-19.0196
 197	1	5	0.098652	-12.5847	-34.6366	-15.9032
 198	1	5	0.045245	-12.5117	-36.3715	-15.5018
 199	1	6	0.165622	-12.4882	-32.639	-19.6286
 200	1	5	0.050235	-8.51128	-24.9019	-18.968
 201	1	6	0.152615	-11.1169	-27.0921	-20.0208
 202	1	5	0.037653	-6.98334	-26.099	-17.3288
 203	1	6	0.137195	-8.21284	-29.3089	-16.5761
 204	1	5	0.010736	-8.41321	-26.2142	-21.3414
 205	1	5	-0.004925	-6.48614	-24.49	-20.3579
 206	1	5	0.039247	-6.70501	-28.221	-21.0622
 207	1	5	0.062128	-8.09923	-28.5087	-20.0188
 208	1	5	0.003131	-4.98938	-25.7274	-18.8059
 209	1	5	0.00404	-5.91949	-28.3088	-18.5316
 210	1	5	0.021644	-13.1742	-29.6987	-22.4046
 211	1	5	0.012129	-13.5104	-31.0818	-21.3377
 212	1	5	0.009331	-13.9015	-28.1216	-20.7189
 213	1	5	0.018167	-15.0555	-29.449	-20.4616
 214	1	2	-0.164337	-6.82457	-36.042	-15.5784
 215	1	5	0.06697	-5.79186	-35.7064	-15.7339
 216	1	5	0.100055	-7.40023	-35.1914	-15.195
 217	1	2	0.054914	-9.64761	-36.8792	-20.6896
 218	1	5	0.026242	-9.56395	-35.878	-21.1306
 219	1	5	-0.001285	-9.27411	-37.6018	-21.426
 220	1	1	0.066869	7.06401	-33.2877	-20.1007
 221	1	1	0.053974	6.91109	-33.93	-18.8855
 222	1	1	-0.117882	6.72021	-35.3119	-18.7394
 223	1	1	-0.084276	6.86286	-35.9958	-19.9575
 224	1	1	-0.157972	7.01951	-33.9635	-21.338
 225	1	2	0.004935	4.90684	-37.7605	-20.5523
 226	1	1	-0.170374	6.99843	-35.3681	-21.1875
 227	1	3	0.154019	6.59354	-36.6188	-21.9796
 228	1	3	0.051574	6.39858	-37.3066	-20.5611
 229	1	3	0.007409	4.12113	-36.4124	-20.5043
 230	1	2	0.007138	5.21336	-36.8486	-22.6806
 231	1	1	-0.211215	1.46399	-37.0435	-20.3455
 232	1	3	-0.023783	4.30009	-35.8257	-21.9691
 233	1	2	-0.253384	4.7728	-38.1979	-22.039
 234	1	1	-0.027691	2.79983	-36.0176	-22.1139
 235	1	1	-0.014027	2.6439	-36.4763	-20.832
 236	1	1	-0.211541	1.82899	-36.1911	-23.1096
 237	1	1	-0.003037	0.595111	-36.7068	-22.6434
 238	1	4	-0.005095	0.405482	-37.0763	-21.2876
 239	1	2	0.078204	-0.666088	-37.0013	-23.4677
 240	1	3	-0.018845	-5.05083	-37.5267	-20.7383
 241	1	4	0.006574	-0.980604	-37.5286	-21.1148
 242	1	1	0.013723	-1.62404	-37.5086	-22.3742
 243	1	1	-0.173541	-3.01872	-37.7041	-22.4861
 244	1	1	-0.072264	-3.70639	-37.9766	-21.2928
 245	1	1	-0.030211	-3.08346	-37.9176	-20.0585
 246	1	3	0.009457	-4.32305	-37.411	-19.3434
 247	1	1	-0.176921	-1.71698	-37.6513	-19.9141
 248	1	2	0.038799	-5.49362	-36.0755	-21.0319
 249	1	2	0.012799	-6.62078	-35.6338	-20.0557
 250	1	2	-0.181835	-4.32635	-35.2457	-20.4463
 251	1	2	-0.004967	-5.84727	-35.4624	-18.6893
 252	1	2	0.05243	-4.39662	-35.8876	-19.0412
 253	1	2	-0.049676	-1.22031	-35.7537	-24.2061
 254	1	2	-0.040251	-1.58091	-36.1989	-25.6401
 255	1	5	0.031595	-2.09757	-35.3428	-23.6903
 256	1	5	0.022689	-0.470112	-34.9538	-24.249
 257	1	2	-0.037258	-1.44159	-37.7306	-25.6704
 258	1	2	0.002978	-0.432753	-38.0646	-24.5629
 259	1	5	0.016721	0.583202	-37.9718	-24.968
 260	1	5	-0.000468	-0.554964	-39.0893	-24.1885
 261	1	5	0.056924	6.22385	-37.0531	-17.5383
 262	1	5	0.029852	6.85685	-33.9584	-23.5048
 263	1	5	0.043077	4.63344	-38.5091	-19.7981
 264	1	5	0.016056	7.39977	-37.0596	-22.5763
 265	1	5	0.041103	7.06462	-38.1583	-20.3851
 266	1	5	0.055216	4.34453	-35.7632	-19.6558
 267	1	5	0.041749	5.21497	-36.8115	-23.7771
 268	1	6	0.155314	1.37302	-37.4468	-19.3422
 269	1	5	0.049935	4.61534	-34.785	-22.0671
 270	1	5	0.098652	3.7492	-38.492	-22.3087
 271	1	5	0.045245	5.45248	-39.0222	-22.2948
 272	1	6	0.165622	2.01695	-35.9672	-24.155
 273	1	5	0.050235	-5.86665	-38.2543	-20.8115
 274	1	6	0.152615	-3.54854	-37.5227	-23.4134
 275	1	5	0.037653	-4.69678	-38.0454	-18.5323
 276	1	6	0.137195	-1.27941	-37.4064	-18.9517
 277	1	5	0.010736	-5.71862	-35.8646	-22.082
 278	1	5	-0.004925	-7.14313	-34.7135	-20.3495
 279	1	5	0.039247	-4.53509	-34.166	-20.4364
 280	1	5	0.062128	-3.36686	-35.4004	-20.9539
 281	1	5	0.003131	-5.94501	-34.4482	-18.2794
 282	1	5	0.00404	-3.64369	-35.5177	-18.334
 283	1	5	0.021644	-2.59049	-35.88	-25.9283
 284	1	5	0.012129	-0.871069	-35.7528	-26.3488
 285	1	5	0.009331	-2.40493	-38.1942	-25.4331
 286	1	5	0.018167	-1.1167	-38.0981	-26.652
 287	1	2	-0.164337	6.22619	-35.959	-17.4578
 288	1	5	0.06697	6.86859	-35.687	-16.6111
 289	1	5	0.100055	5.20464	-35.6356	-17.2229
 290	1	2	0.054914	6.85693	-33.249	-22.668
 291	1	5	0.026242	5.91416	-32.689	-22.6999
 292	1	5	-0.001285	7.67636	-32.538	-22.8306
 293	1	1	0.066869	9.0638	-25.167	-7.94368
 294	1	1	0.053974	9.0239	-26.5141	-7.63959
 295	1	1	-0.117882	10.0986	-27.4003	-7.81432
 296	1	1	-0.084276	11.2672	-26.7355	-8.22848
 297	1	1	-0.157972	10.1733	-24.5502	-8.55529
 298	1	2	0.004935	12.6076	-27.85	-10.3023
 299	1	1	-0.170374	11.2982	-25.4004	-8.6055
 300	1	3	0.154019	12.6105	-25.5432	-9.38091
 301	1	3	0.051574	12.56	-27.0729	-8.95317
 302	1	3	0.007409	11.2113	-27.5525	-10.9192
 303	1	2	0.007138	12.7333	-25.6057	-10.9409
 304	1	1	-0.211215	10.9223	-28.9694	-13.2435
 305	1	3	-0.023783	11.3119	-26.0349	-11.385
 306	1	2	-0.253384	13.5555	-26.9174	-11.1103
 307	1	1	-0.027691	11.1534	-26.5807	-12.7979
 308	1	1	-0.014027	11.0444	-27.8791	-12.3836
 309	1	1	-0.211541	11.2189	-26.2018	-14.1457
 310	1	1	-0.003037	11.0627	-27.2766	-15.0584
 311	1	4	-0.005095	10.902	-28.6159	-14.6155
 312	1	2	0.078204	11.0244	-27.2081	-16.5943
 313	1	3	-0.018845	9.06518	-31.4132	-19.0002
 314	1	4	0.006574	10.705	-29.4778	-15.7853
 315	1	1	0.013723	10.7725	-28.6834	-16.9531
 316	1	1	-0.173541	10.4136	-29.2076	-18.2169
 317	1	1	-0.072264	10.0971	-30.5771	-18.2503
 318	1	1	-0.030211	9.98859	-31.3308	-17.0953
 319	1	3	0.009457	8.91519	-32.2367	-17.6603
 320	1	1	-0.176921	10.23	-30.8074	-15.8217
 321	1	2	0.038799	7.65121	-30.8173	-19.2063
 322	1	2	0.012799	6.61854	-31.9367	-19.5501
 323	1	2	-0.181835	7.20744	-30.5131	-17.7553
 324	1	2	-0.004967	6.45378	-32.6863	-18.1622
 325	1	2	0.05243	7.4494	-31.9472	-17.2316
 326	1	2	-0.049676	9.90356	-26.2675	-17.1131
 327	1	2	-0.040251	10.5449	-25.3961	-18.2063
 328	1	5	0.031595	9.03392	-26.8182	-17.4944
 329	1	5	0.022689	9.54751	-25.6174	-16.3038
 330	1	2	-0.037258	12.0261	-25.3068	-17.8129
 331	1	2	0.002978	12.3506	-26.6786	-17.1974
 332	1	5	0.016721	13.1515	-26.6055	-16.4503
 333	1	5	-0.000468	12.6991	-27.3522	-17.9914
 334	1	5	0.056924	9.23668	-29.2788	-8.47081
 335	1	5	0.029852	11.1005	-22.8588	-9.55392
 336	1	5	0.043077	12.8968	-28.9068	-10.2433
 337	1	5	0.016056	13.456	-24.9928	-8.95363
 338	1	5	0.041103	13.3864	-27.3784	-8.30239
 339	1	5	0.055216	10.3539	-27.8627	-10.3205
 340	1	5	0.041749	13.1414	-24.7125	-11.43
 341	1	6	0.155314	10.8408	-29.993	-12.8927
 342	1	5	0.049935	10.5145	-25.3506	-11.0845
 343	1	5	0.098652	13.6674	-27.2238	-12.1594
 344	1	5	0.045245	14.5539	-26.8447	-10.658
 345	1	6	0.165622	11.3599	-25.1727	-14.4612
 346	1	5	0.050235	9.44028	-31.9557	-19.8751
 347	1	6	0.152615	10.278	-28.5687	-19.0839
 348	1	5	0.037653	9.17	-33.3015	-17.6952
 349	1	6	0.137195	9.94896	-31.3396	-14.9188
 350	1	5	0.010736	7.60964	-29.9537	-19.8817
 351	1	5	-0.004925	5.65799	-31.5734	-19.9387
 352	1	5	0.039247	6.15439	-30.2045	-17.6874
 353	1	5	0.062128	7.81702	-29.7528	-17.2516
 354	1	5	0.003131	5.41266	-32.7045	-17.8136
 355	1	5	0.00404	7.24173	-32.0838	-16.163
 356	1	5	0.021644	10.4523	-25.8964	-19.1791
 357	1	5	0.012129	10.074	-24.4076	-18.2788
 358	1	5	0.009331	12.6703	-25.0736	-18.6701
 359	1	5	0.018167	12.159	-24.5228	-17.0559
 360	1	2	-0.164337	9.96184	-28.9106	-7.73453
 361	1	5	0.06697	10.9199	-29.4094	-7.92612
 362	1	5	0.100055	9.61736	-29.2181	-6.73943
 363	1	2	0.054914	10.1084	-23.1868	-9.21957
 364	1	5	0.026242	9.4475	-23.2088	-10.0948
 365	1	5	-0.001285	9.72156	-22.4318	-8.52396
 366	1	1	0.066869	-3.34007	-27.9533	-1.60224
 367	1	1	0.053974	-2.65481	-29.0325	-2.12706
 368	1	1	-0.117882	-1.66769	-29.7506	-1.42515
 369	1	1	-0.084276	-1.54901	-29.3246	-0.0851541
 370	1	1	-0.157972	-3.07322	-27.4009	-0.338248
 371	1	2	0.004935	0.968325	-28.9307	0.917959
 372	1	1	-0.170374	-2.19274	-28.2008	0.41234
 373	1	3	0.154019	-1.24446	-28.0485	1.59238
 374	1	3	0.051574	-0.525931	-29.3588	1.05146
 375	1	3	0.007409	0.938194	-28.0231	-0.333378
 376	1	2	0.007138	-0.0976591	-26.9872	1.65243
 377	1	1	-0.211215	3.32748	-27.1749	-1.30548
 378	1	3	-0.023783	0.206692	-26.7012	0.151007
 379	1	2	-0.253384	1.08293	-27.9049	2.08303
 380	1	1	-0.027691	1.51725	-25.9948	-0.166949
 381	1	1	-0.014027	2.15054	-27.1484	-0.556009
 382	1	1	-0.211541	1.96345	-24.7197	-0.543974
 383	1	1	-0.003037	3.19879	-24.7012	-1.23846
 384	1	4	-0.005095	3.87691	-25.8992	-1.58035
 385	1	2	0.078204	3.90273	-23.4838	-1.86282
 386	1	3	-0.018845	7.62776	-24.5629	-5.43264
 387	1	4	0.006574	5.04637	-25.5607	-2.39971
 388	1	1	0.013723	5.07248	-24.1598	-2.59756
 389	1	1	-0.173541	5.96403	-23.5681	-3.52373
 390	1	1	-0.072264	6.91184	-24.4353	-4.09124
 391	1	1	-0.030211	6.90085	-25.7969	-3.86666
 392	1	3	0.009457	7.60458	-26.1229	-5.16437
 393	1	1	-0.176921	5.92502	-26.4273	-3.08927
 394	1	2	0.038799	6.79258	-24.4239	-6.73556
 395	1	2	0.012799	7.54946	-25.0268	-7.96239
 396	1	2	-0.181835	5.72082	-25.5252	-6.56077
 397	1	2	-0.004967	7.51073	-26.5836	-7.65631
 398	1	2	0.05243	6.73194	-26.6702	-6.31917
 399	1	2	-0.049676	2.97589	-22.6898	-2.8241
 400	1	2	-0.040251	3.1113	-21.2084	-2.43138
 401	1	5	0.031595	3.23093	-22.8482	-3.87984
 402	1	5	0.022689	1.93145	-23.0001	-2.69428
 403	1	2	-0.037258	3.49531	-21.2297	-0.945204
 404	1	2	0.002978	4.38668	-22.4732	-0.792485
 405	1	5	0.016721	4.33794	-22.8834	0.224594
 406	1	5	-0.000468	5.42946	-22.1895	-0.986488
 407	1	5	0.056924	-1.31908	-31.5808	-2.529
 408	1	5	0.029852	-4.61816	-25.9004	-0.100135
 409	1	5	0.043077	1.70732	-29.7418	0.908876
 410	1	5	0.016056	-1.70914	-28.1711	2.57707
 411	1	5	0.041103	-0.617596	-30.2202	1.72174
 412	1	5	0.055216	0.604793	-28.5165	-1.24727
 413	1	5	0.041749	-0.284904	-26.1097	2.28365
 414	1	6	0.155314	3.74309	-28.0917	-1.71044
 415	1	5	0.049935	-0.644581	-26.3219	-0.420118
 416	1	5	0.098652	2.0485	-27.3814	2.10373
 417	1	5	0.045245	0.914577	-28.369	3.06444
 418	1	6	0.165622	1.36895	-23.8256	-0.384565
 419	1	5	0.050235	8.61275	-24.0869	-5.4919
 420	1	6	0.152615	5.87287	-22.5314	-3.83268
 421	1	5	0.037653	8.57075	-26.6277	-5.05667
 422	1	6	0.137195	5.79739	-27.5048	-3.08418
 423	1	5	0.010736	6.3847	-23.4216	-6.91646
 424	1	5	-0.004925	7.1155	-24.7841	-8.94137
 425	1	5	0.039247	5.11289	-25.6767	-7.46417
 426	1	5	0.062128	5.04137	-25.3508	-5.7168
 427	1	5	0.003131	7.08077	-27.1625	-8.48435
 428	1	5	0.00404	6.2762	-27.6507	-6.13284
 429	1	5	0.021644	3.91968	-20.7456	-3.0126
 430	1	5	0.012129	2.18764	-20.6445	-2.61348
 431	1	5	0.009331	4.00836	-20.3105	-0.635282
 432	1	5	0.018167	2.59159	-21.3462	-0.332796
 433	1	2	-0.164337	-0.743657	-30.7601	-2.08313
 434	1	5	0.06697	-0.153162	-30.2916	-2.88021
 435	1	5	0.100055	-0.0464461	-31.196	-1.35696
 436	1	2	0.054914	-3.54481	-26.0233	0.0906235
 437	1	5	0.026242	-3.37329	-25.8596	1.16179
 438	1	5	-0.001285	-3.01203	-25.2385	-0.460371
 439	1	1	0.066869	-8.53653	-27.6384	-13.0376
 440	1	1	0.053974	-7.27869	-28.2137	-13.0775
 441	1	1	-0.117882	-7.07242	-29.6049	-13.1622
 442	1	1	-0.084276	-8.26291	-30.3203	-13.4031
 443	1	1	-0.157972	-9.73514	-28.363	-13.1469
 444	1	2	0.004935	-8.77117	-32.4746	-11.7821
 445	1	1	-0.170374	-9.51893	-29.7289	-13.4138
 446	1	3	0.154019	-10.2485	-31.0433	-13.1643
 447	1	3	0.051574	-8.81439	-31.726	-13.1549
 448	1	3	0.007409	-8.62107	-31.3178	-10.7628
 449	1	2	0.007138	-10.8647	-31.4453	-11.7878
 450	1	1	-0.211215	-8.09879	-31.6824	-8.15772
 451	1	3	-0.023783	-10.0303	-30.6111	-10.7774
 452	1	2	-0.253384	-10.2678	-32.8714	-11.6351
 453	1	1	-0.027691	-10.1331	-30.9928	-9.31554
 454	1	1	-0.014027	-8.90629	-31.6307	-9.30258
 455	1	1	-0.211541	-10.63	-30.3018	-8.20296
 456	1	1	-0.003037	-9.87471	-30.4093	-7.01627
 457	1	4	-0.005095	-8.65293	-31.1226	-6.97969
 458	1	2	0.078204	-10.0811	-29.6025	-5.72784
 459	1	3	-0.018845	-5.80192	-29.0442	-2.75971
 460	1	4	0.006574	-7.99681	-30.8573	-5.68744
 461	1	1	0.013723	-8.78597	-29.9267	-4.96859
 462	1	1	-0.173541	-8.26711	-29.25	-3.84254
 463	1	1	-0.072264	-7.02328	-29.701	-3.38333
 464	1	1	-0.030211	-6.29013	-30.6785	-4.02658
 465	1	3	0.009457	-4.96906	-30.1945	-3.45631
 466	1	1	-0.176921	-6.69504	-31.2155	-5.25665
 467	1	2	0.038799	-5.24282	-27.755	-3.43371
 468	1	2	0.012799	-3.79271	-27.4508	-2.95451
 469	1	2	-0.181835	-4.89703	-28.2364	-4.86104
 470	1	2	-0.004967	-2.95718	-28.6509	-3.57075
 471	1	2	0.05243	-4.02051	-29.4257	-4.4001
 472	1	2	-0.049676	-10.2589	-28.079	-5.95068
 473	1	2	-0.040251	-11.2327	-27.5779	-4.86079
 474	1	5	0.031595	-9.29959	-27.5466	-5.91255
 475	1	5	0.022689	-10.6992	-27.8774	-6.93449
 476	1	2	-0.037258	-11.7114	-28.8178	-4.07869
 477	1	2	0.002978	-11.3352	-30.0335	-4.94184
 478	1	5	0.016721	-12.1558	-30.2441	-5.64022
 479	1	5	-0.000468	-11.1648	-30.9338	-4.33732
 480	1	5	0.056924	-5.44453	-30.0442	-11.7981
 481	1	5	0.029852	-11.3216	-26.9237	-13.4631
 482	1	5	0.043077	-8.04063	-33.2886	-11.6964
 483	1	5	0.016056	-10.8959	-31.3741	-13.9836
 484	1	5	0.041103	-8.65427	-32.436	-13.9725
 485	1	5	0.055216	-7.72132	-30.7151	-10.8987
 486	1	5	0.041749	-11.9554	-31.3617	-11.7031
 487	1	6	0.155314	-7.06142	-31.997	-8.20359
 488	1	5	0.049935	-10.0847	-29.5323	-10.9219
 489	1	5	0.098652	-10.5004	-33.3332	-10.6661
 490	1	5	0.045245	-10.6005	-33.5398	-12.4397
 491	1	6	0.165622	-11.4647	-29.6137	-8.2912
 492	1	5	0.050235	-5.78781	-29.0144	-1.66477
 493	1	6	0.152615	-8.75193	-28.3787	-3.41476
 494	1	5	0.037653	-4.45346	-30.9042	-2.79998
 495	1	6	0.137195	-6.01766	-31.7836	-5.88557
 496	1	5	0.010736	-5.91189	-26.8862	-3.39756
 497	1	5	-0.004925	-3.39864	-26.4682	-3.24633
 498	1	5	0.039247	-4.33275	-27.4912	-5.43976
 499	1	5	0.062128	-5.77489	-28.5312	-5.44955
 500	1	5	0.003131	-2.09089	-28.2982	-4.14577
 501	1	5	0.00404	-3.59792	-30.0227	-5.21787
 502	1	5	0.021644	-10.7424	-26.8615	-4.18918
 503	1	5	0.012129	-12.0864	-27.0704	-5.32834
 504	1	5	0.009331	-11.1845	-28.8731	-3.11747
 505	1	5	0.018167	-12.7887	-28.7826	-3.87232
 506	1	2	-0.164337	-5.74757	-30.2678	-12.8285
 507	1	5	0.06697	-5.80824	-31.3581	-12.9334
 508	1	5	0.100055	-4.95473	-29.9106	-13.4972
 509	1	2	0.054914	-11.0927	-27.7727	-12.8072
 510	1	5	0.026242	-11.8924	-28.5141	-12.9281
 511	1	5	-0.001285	-11.1184	-27.4142	-11.7707
 512	1	1	0.066869	0.257019	-19.3981	-24.6307
 513	1	1	0.053974	1.05192	-20.4563	-24.2359
 514	1	1	-0.117882	0.55705	-21.7083	-23.8271
 515	1	1	-0.084276	-0.842031	-21.7112	-23.7037
 516	1	1	-0.157972	-1.14992	-19.4632	-24.6769
 517	1	2	0.004935	-2.70427	-23.3083	-22.5478
 518	1	1	-0.170374	-1.64629	-20.6586	-24.1193
 519	1	3	0.154019	-2.87613	-21.5438	-24.2879
 520	1	3	0.051574	-1.95753	-22.7427	-23.7981
 521	1	3	0.007409	-2.468	-22.2	-21.4811
 522	1	2	0.007138	-4.06344	-21.5538	-23.2814
 523	1	1	-0.211215	-3.66219	-23.0229	-19.1413
 524	1	3	-0.023783	-3.40236	-21.0184	-21.9886
 525	1	2	-0.253384	-4.17692	-23.0738	-22.9937
 526	1	1	-0.027691	-4.18039	-21.2258	-20.7065
 527	1	1	-0.014027	-3.35642	-22.2183	-20.2463
 528	1	1	-0.211541	-5.45746	-20.9908	-20.1899
 529	1	1	-0.003037	-5.75352	-21.6971	-19.0064
 530	1	4	-0.005095	-4.86628	-22.669	-18.4731
 531	1	2	0.078204	-7.04318	-21.5969	-18.1842
 532	1	3	-0.018845	-7.73822	-25.2739	-14.4846
 533	1	4	0.006574	-5.49544	-23.2537	-17.2757
 534	1	1	0.013723	-6.77622	-22.6616	-17.1143
 535	1	1	-0.173541	-7.69436	-23.1347	-16.1526
 536	1	1	-0.072264	-7.19275	-24.1245	-15.3032
 537	1	1	-0.030211	-5.93529	-24.6701	-15.4158
 538	1	3	0.009457	-6.28801	-25.908	-14.6021
 539	1	1	-0.176921	-5.05195	-24.3163	-16.4437
 540	1	2	0.038799	-7.90465	-25.0533	-12.9657
 541	1	2	0.012799	-8.07049	-26.423	-12.2547
 542	1	2	-0.181835	-6.46682	-24.7129	-12.5105
 543	1	2	-0.004967	-6.62147	-27.0586	-12.339
 544	1	2	0.05243	-5.81981	-25.9755	-13.1248
 545	1	2	-0.049676	-7.22735	-20.1807	-17.5907
 546	1	2	-0.040251	-8.1625	-19.4418	-18.5612
 547	1	5	0.031595	-7.71506	-20.2487	-16.6096
 548	1	5	0.022689	-6.27396	-19.6528	-17.4568
 549	1	2	-0.037258	-9.09379	-20.5313	-19.1182
 550	1	2	0.002978	-8.31227	-21.8612	-19.0387
 551	1	5	0.016721	-8.04276	-22.2163	-20.0407
 552	1	5	-0.000468	-8.95097	-22.6291	-18.5863
 553	1	5	0.056924	1.27072	-23.5998	-24.6069
 554	1	5	0.029852	-2.56179	-18.9077	-26.2252
 555	1	5	0.043077	-2.44618	-24.3327	-22.2498
 556	1	5	0.016056	-3.24829	-21.6257	-25.3151
 557	1	5	0.041103	-1.79101	-23.5376	-24.5331
 558	1	5	0.055216	-1.41609	-21.9762	-21.2728
 559	1	5	0.041749	-4.98129	-21.0471	-23.6047
 560	1	6	0.155314	-3.03899	-23.8552	-18.8307
 561	1	5	0.049935	-2.95225	-20.0251	-22.0816
 562	1	5	0.098652	-4.90627	-23.304	-22.2066
 563	1	5	0.045245	-4.43241	-23.6451	-23.8957
 564	1	6	0.165622	-6.16727	-20.3203	-20.6609
 565	1	5	0.050235	-8.58022	-25.8078	-14.9395
 566	1	6	0.152615	-8.72856	-22.8057	-16.1171
 567	1	5	0.037653	-6.17873	-26.8633	-15.127
 568	1	6	0.137195	-4.13589	-24.8645	-16.6379
 569	1	5	0.010736	-8.66147	-24.3103	-12.6846
 570	1	5	-0.004925	-8.44053	-26.3672	-11.2223
 571	1	5	0.039247	-6.36521	-24.6706	-11.4166
 572	1	5	0.062128	-6.08315	-23.7733	-12.929
 573	1	5	0.003131	-6.21771	-27.3077	-11.3488
 574	1	5	0.00404	-4.73333	-26.0411	-12.9871
 575	1	5	0.021644	-8.71905	-18.6362	-18.0658
 576	1	5	0.012129	-7.57933	-18.9982	-19.3771
 577	1	5	0.009331	-9.98964	-20.6003	-18.4875
 578	1	5	0.018167	-9.41975	-20.3021	-20.1402
 579	1	2	-0.164337	1.40519	-22.9626	-23.7243
 580	1	5	0.06697	2.47152	-22.7171	-23.644
 581	1	5	0.100055	1.12901	-23.5492	-22.8393
 582	1	2	0.054914	-2.02398	-18.4458	-25.3882
 583	1	5	0.026242	-2.76791	-18.0245	-24.7006
 584	1	5	-0.001285	-1.4277	-17.6157	-25.7875
 585	1	1	0.066869	-5.01616	-30.3267	-32.5534
 586	1	1	0.053974	-4.26834	-30.7403	-31.4666
 587	1	1	-0.117882	-3.47064	-29.8863	-30.6927
 588	1	1	-0.084276	-3.39096	-28.5848	-31.2075
 589	1	1	-0.157972	-5.03086	-28.9871	-32.9978
 590	1	2	0.004935	-2.27847	-26.279	-30.3788
 591	1	1	-0.170374	-4.12276	-28.1457	-32.3153
 592	1	3	0.154019	-4.29955	-26.7395	-31.738
 593	1	3	0.051574	-3.48015	-27.2524	-30.4935
 594	1	3	0.007409	-1.41025	-26.6632	-31.6148
 595	1	2	0.007138	-3.49888	-25.481	-32.1951
 596	1	1	-0.211215	0.475739	-24.877	-31.1481
 597	1	3	-0.023783	-2.22296	-26.0923	-32.8362
 598	1	2	-0.253384	-2.99038	-24.9673	-30.8149
 599	1	1	-0.027691	-1.05707	-25.1295	-33.0368
 600	1	1	-0.014027	-0.33002	-25.6637	-31.9806
 601	1	1	-0.211541	-1.06428	-23.7479	-33.2965
 602	1	1	-0.003037	-0.237309	-22.9403	-32.4837
 603	1	4	-0.005095	0.553239	-23.5008	-31.4547
 604	1	2	0.078204	-0.313966	-21.4128	-32.3335
 605	1	3	-0.018845	0.737046	-19.7916	-27.506
 606	1	4	0.006574	1.0193	-22.4228	-30.5691
 607	1	1	0.013723	0.451725	-21.2061	-31.015
 608	1	1	-0.173541	0.382251	-20.0871	-30.1548
 609	1	1	-0.072264	1.05397	-20.2122	-28.9313
 610	1	1	-0.030211	1.70153	-21.3669	-28.5356
 611	1	3	0.009457	1.53274	-21.0775	-27.0559
 612	1	1	-0.176921	1.6202	-22.5421	-29.2913
 613	1	2	0.038799	1.54407	-18.6393	-26.8771
 614	1	2	0.012799	1.39988	-18.6587	-25.3223
 615	1	2	-0.181835	2.99753	-19.1482	-27.0084