pySIMM System Object

2609 atoms
3037 bonds
6300 angles
11633 dihedrals
210 impropers

6 atom types
11 bond types
24 angle types
21 dihedral types
2 improper types

-192.176153 192.176153 xlo xhi
-192.176153 192.176153 ylo yhi
-192.176153 192.176153 zlo zhi

Masses

   1	12.01	# ca
   2	12.01	# c3
   3	12.01	# cy
   4	12.01	# cp
   5	1.008	# hc
   6	1.008	# ha

Pair Coeffs

   1	0.086	3.3996695084235347	# ca
   2	0.1094	3.3996695084235347	# c3
   3	0.086	3.3996695084235347	# cy
   4	0.086	3.3996695084235347	# cp
   5	0.0157	2.649532787749369	# hc
   6	0.015	2.59964245953351	# ha

Bond Coeffs

   1	321.2	1.5154	# ca,cy
   2	461.1	1.3984	# ca,ca
   3	305.9	1.5319	# c3,cy
   4	351.4	1.4854	# cp,cp
   5	345.8	1.086	# ca,ha
   6	300.9	1.5375	# c3,c3
   7	450.2	1.4058	# ca,cp
   8	285.0	1.5562	# cy,cy
   9	321.0	1.5156	# c3,ca
  10	330.6	1.0969	# c3,hc
  11	333.3	1.0949	# cy,hc

Angle Coeffs

   1	67.9	96.03	# cy,c3,cy
   2	61.4	116.81	# ca,cy,cy
   3	63.15	112.07	# c3,c3,ca
   4	45.97	114.53	# ca,cy,hc
   5	66.26	120.69	# ca,ca,cp
   6	46.34	109.8	# c3,c3,hc
   7	48.18	119.88	# ca,ca,ha
   8	62.73	112.39	# c3,c3,cy
   9	46.29	110.75	# cy,c3,hc
  10	44.83	114.79	# cy,cy,hc
  11	46.8	110.47	# ca,c3,hc
  12	66.72	118.38	# ca,cp,ca
  13	62.86	111.51	# c3,c3,c3
  14	46.43	110.14	# c3,cy,hc
  15	60.66	118.7	# c3,cy,cy
  16	63.43	120.63	# c3,ca,cp
  17	63.56	112.24	# ca,c3,ca
  18	64.05	121.11	# ca,cp,cp
  19	66.62	120.02	# ca,ca,ca
  20	39.4	107.58	# hc,c3,hc
  21	47.98	119.86	# cp,ca,ha
  22	63.53	120.77	# c3,ca,ca
  23	63.51	120.86	# ca,ca,cy
  24	62.8	113.57	# c3,cy,ca

Dihedral Coeffs

   1	1	0.16	3	0	# hc,c3,c3,c3
   2	1	0.0	2	0.0	# ca,ca,cy,cy
   3	1	1.0	2	180	# X,cp,cp,X
   4	1	0.0	2	0.0	# ca,ca,cy,c3
   5	3	0.38	3	180.0	0.0	2	0.0	1.15	1	0.0	# ca,ca,cy,hc
   6	1	0.0	2	0	# X,c3,ca,X
   7	1	0.16	3	0.0	# cy,c3,cy,ca
   8	1	0.15555555555555556	3	0	# X,c3,c3,X
   9	1	0.16	3	0.0	# c3,c3,cy,ca
  10	1	0.16	3	0.0	# hc,c3,cy,ca
  11	3	0.18	3	0.0	0.25	2	180.0	0.2	1	180.0	# cy,c3,cy,cy
  12	1	0.15	3	0	# hc,c3,c3,hc
  13	3	0.18	3	0.0	0.25	2	180.0	0.2	1	180.0	# c3,c3,cy,cy
  14	1	0.16	3	0.0	# hc,c3,cy,cy
  15	1	0.16	3	0.0	# cy,c3,cy,hc
  16	1	0.16	3	0.0	# c3,c3,cy,hc
  17	1	0.15	3	0.0	# hc,c3,cy,hc
  18	1	3.625	2	180	# X,ca,ca,X
  19	1	0.15555555555555556	3	0	# X,cy,cy,X
  20	1	3.625	2	180	# X,ca,cp,X
  21	3	0.18	3	0	0.25	2	180	0.2	1	180	# c3,c3,c3,c3

Improper Coeffs

   1	1.1	-1	2	# ca,ca,ca,c3
   2	1.1	-1	2	# ca,X,X,ha

Atoms

   1	1	1	0.066869	7.25565	45.0453	4.22671
   2	1	1	0.053974	6.23198	44.6325	5.05146
   3	1	1	-0.117882	6.25727	44.704	6.45525
   4	1	1	-0.084276	7.44756	45.2991	6.9069
   5	1	1	-0.157972	8.49292	45.5373	4.6834
   6	1	2	0.004935	8.81382	44.2503	8.98974
   7	1	1	-0.170374	8.4978	45.6754	6.08644
   8	1	3	0.154019	9.45809	45.9048	7.25083
   9	1	3	0.051574	8.24841	45.4593	8.18618
  10	1	3	0.007409	8.91579	43.1348	7.90864
  11	1	2	0.007138	10.6051	44.9233	7.64889
  12	1	1	-0.211215	9.87217	41.0522	9.35224
  13	1	3	-0.023783	10.1436	43.5862	7.012
  14	1	2	-0.253384	10.2893	44.7148	9.15976
  15	1	1	-0.027691	10.8339	42.3285	7.5098
  16	1	1	-0.014027	9.75905	41.93	8.27046
  17	1	1	-0.211541	12.1472	41.9157	7.77427
  18	1	1	-0.003037	12.2763	40.9211	8.77178
  19	1	4	-0.005095	11.1601	40.4947	9.53454
  20	1	2	0.078204	13.5644	40.2408	9.26417
  21	1	3	-0.018845	12.9398	36.2789	12.7085
  22	1	4	0.006574	11.6153	39.5211	10.5346
  23	1	1	0.013723	13.0115	39.3347	10.3734
  24	1	1	-0.173541	13.7093	38.3332	11.086
  25	1	1	-0.072264	12.9397	37.6344	12.0247
  26	1	1	-0.030211	11.5884	37.8237	12.1918
  27	1	3	0.009457	11.3828	36.5026	12.9146
  28	1	1	-0.176921	10.8464	38.7235	11.4191
  29	1	2	0.038799	12.989	34.98	11.8657
  30	1	2	0.012799	12.4407	35.1815	10.4254
  31	1	2	-0.181835	11.8106	34.2067	12.4919
  32	1	2	-0.004967	10.9166	35.3814	10.6424
  33	1	2	0.05243	10.7572	35.2895	12.182
  34	1	2	-0.049676	14.2999	39.4839	8.13662
  35	1	2	-0.040251	15.3079	40.4826	7.53576
  36	1	5	0.031595	14.8535	38.6328	8.55206
  37	1	5	0.022689	13.6132	39.0938	7.3774
  38	1	2	-0.037258	15.52	41.5914	8.58888
  39	1	2	0.002978	14.6042	41.2562	9.78323
  40	1	5	0.016721	14.1344	42.1535	10.2069
  41	1	5	-0.000468	15.2106	40.7931	10.5726
  42	1	5	0.056924	5.10729	44.7837	8.28949
  43	1	5	0.029852	10.5479	46.1597	4.36295
  44	1	5	0.043077	8.2768	43.9862	9.9094
  45	1	5	0.016056	9.77245	46.9447	7.39273
  46	1	5	0.041103	7.89272	46.2449	8.86153
  47	1	5	0.055216	7.97801	42.8757	7.40881
  48	1	5	0.041749	11.6248	45.2471	7.40641
  49	1	6	0.155314	9.0457	40.8475	10.0247
  50	1	5	0.049935	10.003	43.6152	5.92708
  51	1	5	0.098652	10.9262	43.9557	9.63396
  52	1	5	0.045245	10.3692	45.6472	9.73497
  53	1	6	0.165622	12.9996	42.3622	7.27479
  54	1	5	0.050235	13.5204	36.1983	13.634
  55	1	6	0.152615	14.7442	38.079	10.8798
  56	1	5	0.037653	11.0621	36.5659	13.9602
  57	1	6	0.137195	9.76157	38.7526	11.4358
  58	1	5	0.010736	13.9497	34.4509	11.9002
  59	1	5	-0.004925	12.6246	34.2823	9.82548
  60	1	5	0.039247	11.9389	34.0311	13.569
  61	1	5	0.062128	11.6063	33.2507	11.9895
  62	1	5	0.003131	10.3535	34.5753	10.1583
  63	1	5	0.00404	9.73888	35.0377	12.504
  64	1	5	0.021644	16.2524	39.9837	7.28325
  65	1	5	0.012129	14.9018	40.9179	6.61371
  66	1	5	0.009331	16.5694	41.6434	8.90614
  67	1	5	0.018167	15.2501	42.5671	8.16516
  68	1	2	-0.164337	5.17106	44.1806	7.37558
  69	1	5	0.06697	4.18943	44.2154	6.88748
  70	1	5	0.100055	5.36962	43.1443	7.67277
  71	1	2	0.054914	9.68084	45.8198	3.78319
  72	1	5	0.026242	9.97634	44.9178	3.23309
  73	1	5	-0.001285	9.43841	46.5989	3.05004
  74	1	1	0.066869	2.64324	31.7856	-1.35347
  75	1	1	0.053974	2.22881	31.8393	-0.0368283
  76	1	1	-0.117882	1.38896	32.8492	0.479548
  77	1	1	-0.084276	0.879508	33.6872	-0.535642
  78	1	1	-0.157972	2.28328	32.7314	-2.32577
  79	1	2	0.004935	0.795839	36.4279	-0.189614
  80	1	1	-0.170374	1.30484	33.621	-1.8534
  81	1	3	0.154019	0.772571	34.9943	-2.19977
  82	1	3	0.051574	0.227399	35.066	-0.709456
  83	1	3	0.007409	2.28166	36.0962	0.0609863
  84	1	2	0.007138	1.69467	36.2412	-2.33361
  85	1	1	-0.211215	3.24097	38.5363	0.825516
  86	1	3	-0.023783	2.89849	35.9117	-1.38793
  87	1	2	-0.253384	0.852526	37.2547	-1.50849
  88	1	1	-0.027691	3.81397	37.064	-1.02062
  89	1	1	-0.014027	3.23066	37.2763	0.205752
  90	1	1	-0.211541	4.59941	38.0105	-1.68393
  91	1	1	-0.003037	4.7744	39.2272	-0.994696
  92	1	4	-0.005095	4.07671	39.5055	0.207621
  93	1	2	0.078204	5.56801	40.4441	-1.48296
  94	1	3	-0.018845	4.84691	45.0028	1.08978
  95	1	4	0.006574	4.30967	40.9207	0.550564
  96	1	1	0.013723	5.22804	41.4621	-0.390594
  97	1	1	-0.173541	5.62343	42.8187	-0.362699
  98	1	1	-0.072264	5.04997	43.5624	0.67072
  99	1	1	-0.030211	4.09306	43.0718	1.52021
 100	1	3	0.009457	3.70575	44.4446	2.05211
 101	1	1	-0.176921	3.6579	41.7416	1.50975
 102	1	2	0.038799	5.84544	45.6573	2.07869
 103	1	2	0.012799	6.56228	44.5814	2.95711
 104	1	2	-0.181835	4.82204	46.2621	3.06756
 105	1	2	-0.004967	5.39889	44.0802	3.91323
 106	1	2	0.05243	4.17378	44.9111	3.45147
 107	1	2	-0.049676	7.08223	40.1412	-1.59722
 108	1	2	-0.040251	7.36185	39.9795	-3.10079
 109	1	5	0.031595	7.66545	40.9887	-1.21466
 110	1	5	0.022689	7.37665	39.2492	-1.02893
 111	1	2	-0.037258	6.3692	40.9338	-3.7809
 112	1	2	0.002978	5.1128	40.919	-2.89097
 113	1	5	0.016721	4.3703	40.2298	-3.30936
 114	1	5	-0.000468	4.6464	41.9122	-2.8656
 115	1	5	0.056924	2.09749	33.3982	2.45239
 116	1	5	0.029852	3.2984	31.906	-4.05224
 117	1	5	0.043077	0.259018	36.8896	0.648609
 118	1	5	0.016056	-0.0129977	35.0081	-2.96369
 119	1	5	0.041103	-0.865643	35.0615	-0.640838
 120	1	5	0.055216	2.45307	35.3024	0.792388
 121	1	5	0.041749	1.93667	36.5365	-3.3592
 122	1	6	0.155314	2.61694	38.7684	1.68258
 123	1	5	0.049935	3.43235	34.9847	-1.60631
 124	1	5	0.098652	1.34819	38.2282	-1.39185
 125	1	5	0.045245	-0.144812	37.4197	-1.93781
 126	1	6	0.165622	5.01499	37.8419	-2.66931
 127	1	5	0.050235	4.52449	45.6986	0.307324
 128	1	6	0.152615	6.26391	43.2617	-1.11928
 129	1	5	0.037653	2.69067	44.7841	1.82192
 130	1	6	0.137195	2.85534	41.3761	2.14118
 131	1	5	0.010736	6.52765	46.3885	1.62717
 132	1	5	-0.004925	7.08887	43.7815	2.4205
 133	1	5	0.039247	4.1136	46.9456	2.57869
 134	1	5	0.062128	5.28086	46.792	3.91273
 135	1	5	0.003131	5.27029	42.9919	3.92983
 136	1	5	0.00404	3.38179	44.9883	4.20619
 137	1	5	0.021644	8.40314	40.2114	-3.35767
 138	1	5	0.012129	7.1527	38.9469	-3.40767
 139	1	5	0.009331	6.7919	41.9468	-3.79718
 140	1	5	0.018167	6.1478	40.6394	-4.81376
 141	1	2	-0.164337	1.16821	33.0806	1.96337
 142	1	5	0.06697	0.412978	33.857	2.13766
 143	1	5	0.100055	0.825603	32.1622	2.45555
 144	1	2	0.054914	2.98288	32.881	-3.66224
 145	1	5	0.026242	2.3225	33.3432	-4.40627
 146	1	5	-0.001285	3.87345	33.511	-3.56281
 147	1	1	0.066869	7.0031	39.2714	5.5954
 148	1	1	0.053974	6.63585	38.4462	6.64801
 149	1	1	-0.117882	7.55888	37.8052	7.48955
 150	1	1	-0.084276	8.87808	38.2293	7.2673
 151	1	1	-0.157972	8.34279	39.585	5.28895
 152	1	2	0.004935	10.6201	36.2151	6.85165
 153	1	1	-0.170374	9.25893	39.0735	6.23365
 154	1	3	0.154019	10.7312	38.6353	6.28762
 155	1	3	0.051574	10.2596	37.626	7.41583
 156	1	3	0.007409	9.66093	36.0544	5.62617
 157	1	2	0.007138	11.4603	37.7009	5.26481
 158	1	1	-0.211215	9.28398	33.7909	4.22728
 159	1	3	-0.023783	10.2767	37.0272	4.545
 160	1	2	-0.253384	11.9822	36.5618	6.19139
 161	1	1	-0.027691	10.5741	35.781	3.73362
 162	1	1	-0.014027	9.97033	34.939	4.64486
 163	1	1	-0.211541	10.6779	35.4988	2.36554
 164	1	1	-0.003037	10.1742	34.2425	1.96576
 165	1	4	-0.005095	9.45376	33.4275	2.86997
 166	1	2	0.078204	10.0619	33.7091	0.531303
 167	1	3	-0.018845	6.15112	30.4314	-0.375524
 168	1	4	0.006574	8.76249	32.3824	2.1015
 169	1	1	0.013723	9.12441	32.5111	0.739665
 170	1	1	-0.173541	8.48613	31.7584	-0.26924
 171	1	1	-0.072264	7.50867	30.8521	0.165245
 172	1	1	-0.030211	7.09887	30.7915	1.48546
 173	1	3	0.009457	5.67543	30.4032	1.13146
 174	1	1	-0.176921	7.67212	31.5717	2.49647
 175	1	2	0.038799	5.23159	31.5028	-1.0024
 176	1	2	0.012799	3.81209	30.8689	-1.06449
 177	1	2	-0.181835	5.08476	32.5295	0.146526
 178	1	2	-0.004967	3.33192	30.9065	0.446323
 179	1	2	0.05243	4.57261	31.4964	1.17718
 180	1	2	-0.049676	9.47803	34.759	-0.45804
 181	1	2	-0.040251	10.5754	35.0291	-1.50257
 182	1	5	0.031595	8.58706	34.3668	-0.963036
 183	1	5	0.022689	9.17403	35.6869	0.0427746
 184	1	2	-0.037258	11.4393	33.7594	-1.50866
 185	1	2	0.002978	11.4331	33.283	-0.0476865
 186	1	5	0.016721	12.2427	33.7884	0.495294
 187	1	5	-0.000468	11.6048	32.2013	0.027979
 188	1	5	0.056924	8.0388	36.327	9.0082
 189	1	5	0.029852	9.84061	40.327	3.89851
 190	1	5	0.043077	10.6257	35.3916	7.57584
 191	1	5	0.016056	11.4153	39.4112	6.63643
 192	1	5	0.041103	10.7404	37.7934	8.38406
 193	1	5	0.055216	8.5977	36.1232	5.86001
 194	1	5	0.041749	12.2063	38.1801	4.61868
 195	1	6	0.155314	8.57246	33.2765	4.86212
 196	1	5	0.049935	9.62337	37.7215	4.01673
 197	1	5	0.098652	12.4175	35.719	5.63798
 198	1	5	0.045245	12.7191	36.9184	6.92299
 199	1	6	0.165622	11.0194	36.2392	1.64896
 200	1	5	0.050235	6.12551	29.4775	-0.91167
 201	1	6	0.152615	8.65157	31.9603	-1.32028
 202	1	5	0.037653	5.338	29.4393	1.50615
 203	1	6	0.137195	7.22984	31.648	3.48504
 204	1	5	0.010736	5.57562	31.9231	-1.95308
 205	1	5	-0.004925	3.7484	29.8782	-1.53317
 206	1	5	0.039247	4.36963	33.3336	-0.0651057
 207	1	5	0.062128	6.02916	33.0049	0.438406
 208	1	5	0.003131	2.97211	29.9431	0.822323
 209	1	5	0.00404	4.3582	31.9061	2.17202
 210	1	5	0.021644	10.1604	35.2589	-2.49165
 211	1	5	0.012129	11.1851	35.8832	-1.17994
 212	1	5	0.009331	10.9743	32.9947	-2.14347
 213	1	5	0.018167	12.4544	33.9485	-1.87993
 214	1	2	-0.164337	7.20624	36.6032	8.34907
 215	1	5	0.06697	6.33599	36.8179	8.98138
 216	1	5	0.100055	6.9645	35.7323	7.72751
 217	1	2	0.054914	8.74947	40.2578	3.98863
 218	1	5	0.026242	8.37198	39.7022	3.12117
 219	1	5	-0.001285	8.34461	41.2764	3.93693
 220	1	1	0.066869	-7.59289	38.0613	8.64746
 221	1	1	0.053974	-6.96646	37.9303	9.87414
 222	1	1	-0.117882	-6.3971	38.9935	10.5892
 223	1	1	-0.084276	-6.67462	40.2365	9.99941
 224	1	1	-0.157972	-7.70711	39.2956	7.97326
 225	1	2	0.004935	-4.53675	41.8432	9.65029
 226	1	1	-0.170374	-7.28814	40.3895	8.76399
 227	1	3	0.154019	-6.78439	41.8297	8.5844
 228	1	3	0.051574	-6.04505	41.614	9.9731
 229	1	3	0.007409	-4.17025	40.6238	8.74451
 230	1	2	0.007138	-5.62735	42.2853	7.63343
 231	1	1	-0.211215	-1.49673	40.8083	8.20485
 232	1	3	-0.023783	-4.87591	40.964	7.36377
 233	1	2	-0.253384	-4.68062	43.0121	8.6345
 234	1	1	-0.027691	-3.4721	41.0673	6.79218
 235	1	1	-0.014027	-2.87059	40.7166	7.97281
 236	1	1	-0.211541	-2.78394	41.6982	5.74663
 237	1	1	-0.003037	-1.3795	41.7585	5.91844
 238	1	4	-0.005095	-0.751494	41.2745	7.09353
 239	1	2	0.078204	-0.3468	42.3931	4.97627
 240	1	3	-0.018845	4.58793	40.9258	5.7674
 241	1	4	0.006574	0.700157	41.4347	6.94929
 242	1	1	0.013723	0.965084	42.0949	5.72603
 243	1	1	-0.173541	2.28194	42.2025	5.22357
 244	1	1	-0.072264	3.3011	41.6896	6.0425
 245	1	1	-0.030211	3.02439	40.9706	7.19097
 246	1	3	0.009457	4.23515	40.0668	7.04372
 247	1	1	-0.176921	1.72395	40.7755	7.66752
 248	1	2	0.038799	4.57564	39.889	4.62464
 249	1	2	0.012799	5.77534	38.911	4.76598
 250	1	2	-0.181835	3.42731	38.9417	5.04558
 251	1	2	-0.004967	5.34609	38.01	5.99284
 252	1	2	0.05243	4.00428	38.6462	6.44919
 253	1	2	-0.049676	-0.357992	41.8003	3.54522
 254	1	2	-0.040251	-0.0966995	42.9705	2.57046
 255	1	5	0.031595	0.391185	41.0062	3.42975
 256	1	5	0.022689	-1.33682	41.3581	3.31995
 257	1	2	-0.037258	0.0557122	44.2427	3.42633
 258	1	2	0.002978	-0.570195	43.9078	4.78735
 259	1	5	0.016721	-1.64507	44.1268	4.74726
 260	1	5	-0.000468	-0.134085	44.5024	5.60064
 261	1	5	0.056924	-5.13273	39.7636	12.1803
 262	1	5	0.029852	-8.07593	40.4483	6.16804
 263	1	5	0.043077	-3.88023	42.0242	10.5106
 264	1	5	0.016056	-7.56994	42.5927	8.61709
 265	1	5	0.041103	-6.38073	42.2918	10.7655
 266	1	5	0.055216	-4.3382	39.6385	9.18258
 267	1	5	0.041749	-5.92627	42.8582	6.74683
 268	1	6	0.155314	-1.04275	40.5722	9.16186
 269	1	5	0.049935	-5.47675	40.1844	6.89235
 270	1	5	0.098652	-3.72291	43.3108	8.18673
 271	1	5	0.045245	-5.14938	43.8992	9.08179
 272	1	6	0.165622	-3.29172	42.1297	4.88974
 273	1	5	0.050235	5.51081	41.5142	5.80863
 274	1	6	0.152615	2.48406	42.5393	4.21319
 275	1	5	0.037653	4.94911	40.0923	7.87404
 276	1	6	0.137195	1.49966	40.0539	8.44639
 277	1	5	0.010736	4.47403	40.3097	3.6203
 278	1	5	-0.004925	5.98543	38.3121	3.86978
 279	1	5	0.039247	3.36082	38.0462	4.41093
 280	1	5	0.062128	2.43925	39.417	5.06769
 281	1	5	0.003131	5.29175	36.9445	5.73233
 282	1	5	0.00404	3.3858	37.9805	7.06404
 283	1	5	0.021644	0.799919	42.7966	1.9627
 284	1	5	0.012129	-0.94913	43.0787	1.88744
 285	1	5	0.009331	1.11774	44.4699	3.56681
 286	1	5	0.018167	-0.419146	45.1145	2.95869
 287	1	2	-0.164337	-5.42317	38.8023	11.7385
 288	1	5	0.06697	-5.87173	38.1914	12.5317
 289	1	5	0.100055	-4.51014	38.2972	11.4
 290	1	2	0.054914	-8.08892	39.4051	6.50743
 291	1	5	0.026242	-7.3943	38.8363	5.87697
 292	1	5	-0.001285	-9.09805	39.0097	6.33802
 293	1	1	0.066869	-8.0872	24.879	15.2292
 294	1	1	0.053974	-7.6652	25.8749	16.0881
 295	1	1	-0.117882	-8.51771	26.7758	16.745
 296	1	1	-0.084276	-9.87326	26.4846	16.5071
 297	1	1	-0.157972	-9.43038	24.7326	14.8285
 298	1	2	0.004935	-11.4361	28.5886	15.8275
 299	1	1	-0.170374	-10.3048	25.5469	15.5794
 300	1	3	0.154019	-11.7104	26.145	15.4748
 301	1	3	0.051574	-11.2036	27.2189	16.5309
 302	1	3	0.007409	-10.3615	28.5822	14.7036
 303	1	2	0.007138	-12.2311	27.0226	14.2861
 304	1	1	-0.211215	-10.3831	30.9891	13.4049
 305	1	3	-0.023783	-10.9232	27.5437	13.6376
 306	1	2	-0.253384	-12.751	28.2707	15.0591
 307	1	1	-0.027691	-11.0301	28.7424	12.7029
 308	1	1	-0.014027	-10.5239	29.6197	13.621
 309	1	1	-0.211541	-11.5275	29.1339	11.452
 310	1	1	-0.003037	-11.3761	30.5175	11.1752
 311	1	4	-0.005095	-10.8046	31.4099	12.1198
 312	1	2	0.078204	-11.7546	31.268	9.88678
 313	1	3	-0.018845	-9.60984	36.0	9.301
 314	1	4	0.006574	-10.7301	32.7456	11.5214
 315	1	1	0.013723	-11.2822	32.6946	10.2209
 316	1	1	-0.173541	-11.1639	33.7894	9.33247
 317	1	1	-0.072264	-10.566	34.9493	9.85704
 318	1	1	-0.030211	-9.98191	34.9655	11.111
 319	1	3	0.009457	-8.91772	35.9681	10.7207
 320	1	1	-0.176921	-9.99011	33.8619	11.9682
 321	1	2	0.038799	-8.48167	35.5334	8.35034
 322	1	2	0.012799	-7.34875	36.6045	8.2623
 323	1	2	-0.181835	-7.75015	34.4705	9.20513
 324	1	2	-0.004967	-6.64404	36.47	9.67597
 325	1	2	0.05243	-7.50119	35.4072	10.4089
 326	1	2	-0.049676	-11.0435	30.6826	8.6371
 327	1	2	-0.040251	-12.1218	30.5566	7.5478
 328	1	5	0.031595	-10.2017	31.3023	8.30211
 329	1	5	0.022689	-10.6444	29.6845	8.85916
 330	1	2	-0.037258	-13.4331	30.3555	8.32037
 331	1	2	0.002978	-13.2748	31.2097	9.58976
 332	1	5	0.016721	-13.8502	30.7958	10.428
 333	1	5	-0.000468	-13.6589	32.2189	9.39081
 334	1	5	0.056924	-7.44916	28.6619	16.8064
 335	1	5	0.029852	-10.9496	23.8973	13.5198
 336	1	5	0.043077	-11.4524	29.4717	16.4786
 337	1	5	0.016056	-12.5113	25.4992	15.8516
 338	1	5	0.041103	-11.7328	27.1823	17.4892
 339	1	5	0.055216	-9.32752	28.4875	15.0369
 340	1	5	0.041749	-12.9465	26.5418	13.6074
 341	1	6	0.155314	-9.97874	31.667	14.1494
 342	1	5	0.049935	-10.2504	26.7608	13.2781
 343	1	5	0.098652	-13.0689	29.087	14.396
 344	1	5	0.045245	-13.5807	28.0258	15.7361
 345	1	6	0.165622	-11.9729	28.435	10.751
 346	1	5	0.050235	-10.0707	36.9461	8.9964
 347	1	6	0.152615	-11.4122	33.7009	8.27943
 348	1	5	0.037653	-8.91516	36.8988	11.2984
 349	1	6	0.137195	-9.36584	33.8176	12.8547
 350	1	5	0.010736	-8.82405	35.1694	7.37357
 351	1	5	-0.004925	-6.64156	36.4585	7.43514
 352	1	5	0.039247	-6.81978	34.1154	8.73909
 353	1	5	0.062128	-8.36265	33.5942	9.45018
 354	1	5	0.003131	-5.57468	36.2341	9.59421
 355	1	5	0.00404	-6.99049	34.9347	11.2573
 356	1	5	0.021644	-12.1741	31.4888	6.97033
 357	1	5	0.012129	-11.9172	29.7307	6.85472
 358	1	5	0.009331	-14.3114	30.6473	7.73066
 359	1	5	0.018167	-13.5377	29.2986	8.59837
 360	1	2	-0.164337	-8.02746	28.0133	17.4761
 361	1	5	0.06697	-8.86423	28.6002	17.8745
 362	1	5	0.100055	-7.38125	27.7369	18.3184
 363	1	2	0.054914	-9.85772	23.9115	13.6254
 364	1	5	0.026242	-9.43503	24.3234	12.7006
 365	1	5	-0.001285	-9.51544	22.8736	13.7199
 366	1	1	0.066869	5.75695	23.3151	17.2587
 367	1	1	0.053974	5.20178	24.5553	17.5045
 368	1	1	-0.117882	4.65951	24.9412	18.7453
 369	1	1	-0.084276	4.85957	23.9602	19.7403
 370	1	1	-0.157972	5.77327	22.267	18.1932
 371	1	2	0.004935	2.75304	23.316	21.3698
 372	1	1	-0.170374	5.35853	22.6946	19.4673
 373	1	3	0.154019	4.80733	22.0846	20.7461
 374	1	3	0.051574	4.27127	23.541	21.0894
 375	1	3	0.007409	2.19133	23.0855	19.949
 376	1	2	0.007138	3.52599	21.1902	20.7919
 377	1	1	-0.211215	-0.493266	22.9445	19.6452
 378	1	3	-0.023783	2.72182	21.6496	19.5372
 379	1	2	-0.253384	2.77333	21.8787	21.9667
 380	1	1	-0.027691	1.25476	21.2491	19.4707
 381	1	1	-0.014027	0.806149	22.4863	19.8648
 382	1	1	-0.211541	0.456702	20.3557	18.7405
 383	1	1	-0.003037	-0.897782	20.7434	18.5835
 384	1	4	-0.005095	-1.36289	21.9977	19.0535
 385	1	2	0.078204	-1.98966	20.0452	17.7493
 386	1	3	-0.018845	-6.1923	23.0043	16.518
 387	1	4	0.006574	-2.74531	22.1893	18.6025
 388	1	1	0.013723	-3.12699	21.0789	17.8128
 389	1	1	-0.173541	-4.33749	21.086	17.0776
 390	1	1	-0.072264	-5.1842	22.181	17.3168
 391	1	1	-0.030211	-4.81611	23.243	18.1161
 392	1	3	0.009457	-5.75443	24.2145	17.4408
 393	1	1	-0.176921	-3.55924	23.3389	18.718
 394	1	2	0.038799	-5.79693	23.4945	15.0967
 395	1	2	0.012799	-6.70437	24.6785	14.6274
 396	1	2	-0.181835	-4.50061	24.2917	15.372
 397	1	2	-0.004967	-6.23883	25.8601	15.5794
 398	1	2	0.05243	-5.12656	25.2155	16.4428
 399	1	2	-0.049676	-1.50844	19.7272	16.3141
 400	1	2	-0.040251	-1.01592	18.2638	16.3258
 401	1	5	0.031595	-2.34184	19.8116	15.6059
 402	1	5	0.022689	-0.724085	20.4192	15.9808
 403	1	2	-0.037258	-1.44831	17.6515	17.675
 404	1	2	0.002978	-2.38737	18.6762	18.336
 405	1	5	0.016721	-2.31943	18.6539	19.4314
 406	1	5	-0.000468	-3.42283	18.441	18.0567
 407	1	5	0.056924	4.41869	27.0919	18.6644
 408	1	5	0.029852	5.27091	20.4321	17.1567
 409	1	5	0.043077	2.25004	24.0853	21.9692
 410	1	5	0.016056	5.56451	21.7129	21.4454
 411	1	5	0.041103	4.75686	23.9956	21.9596
 412	1	5	0.055216	2.32642	23.9247	19.2652
 413	1	5	0.041749	3.69465	20.1105	20.89
 414	1	6	0.155314	-0.78765	23.9726	19.8284
 415	1	5	0.049935	3.25135	21.5263	18.5889
 416	1	5	0.098652	1.76892	21.4663	22.1337
 417	1	5	0.045245	3.33478	21.8275	22.9096
 418	1	6	0.165622	0.873232	19.4775	18.259
 419	1	5	0.050235	-7.23602	22.6799	16.5932
 420	1	6	0.152615	-4.56825	20.3331	16.3305
 421	1	5	0.037653	-6.51863	24.6516	18.0927
 422	1	6	0.137195	-3.20427	24.2577	19.1727
 423	1	5	0.010736	-5.68702	22.6987	14.3495
 424	1	5	-0.004925	-6.61512	24.9399	13.5647
 425	1	5	0.039247	-4.14261	24.8422	14.4903
 426	1	5	0.062128	-3.67457	23.6754	15.7492
 427	1	5	0.003131	-5.93521	26.7543	15.0192
 428	1	5	0.00404	-4.43121	25.9397	16.8854
 429	1	5	0.021644	-1.4565	17.7081	15.488
 430	1	5	0.012129	0.0756433	18.2195	16.2202
 431	1	5	0.009331	-1.94289	16.681	17.5417
 432	1	5	0.018167	-0.566536	17.4951	18.3094
 433	1	2	-0.164337	3.8386	26.2033	18.9425
 434	1	5	0.06697	2.93398	26.1848	18.3222
 435	1	5	0.100055	3.52953	26.319	19.9887
 436	1	2	0.054914	6.04791	20.8198	17.8271
 437	1	5	0.026242	7.01393	20.7229	17.3163
 438	1	5	-0.001285	6.07326	20.1807	18.7185
 439	1	1	0.066869	8.08038	28.4131	5.53571
 440	1	1	0.053974	6.94496	28.9584	6.10774
 441	1	1	-0.117882	6.95084	30.19	6.79404
 442	1	1	-0.084276	8.16532	30.8927	6.64736
 443	1	1	-0.157972	9.3294	29.0525	5.49658
 444	1	2	0.004935	9.34855	31.8892	8.92184
 445	1	1	-0.170374	9.28005	30.3605	6.01345
 446	1	3	0.154019	10.2455	31.3254	6.68503
 447	1	3	0.051574	8.97498	31.9514	7.40423
 448	1	3	0.007409	9.21017	30.3827	9.24618
 449	1	2	0.007138	11.1857	30.9173	7.86093
 450	1	1	-0.211215	9.33651	29.413	11.7508
 451	1	3	-0.023783	10.4372	29.7182	8.50979
 452	1	2	-0.253384	10.8905	32.0822	8.84383
 453	1	1	-0.027691	10.9027	29.2798	9.88231
 454	1	1	-0.014027	9.84659	29.8867	10.5346
 455	1	1	-0.211541	11.4891	28.0962	10.3489
 456	1	1	-0.003037	11.0491	27.6446	11.6109
 457	1	4	-0.005095	10.0266	28.3158	12.3233
 458	1	2	0.078204	11.3713	26.2886	12.252
 459	1	3	-0.018845	7.97517	24.6528	15.9018
 460	1	4	0.006574	9.65211	27.4923	13.4848
 461	1	1	0.013723	10.3877	26.2834	13.4304
 462	1	1	-0.173541	10.0558	25.1875	14.257
 463	1	1	-0.072264	9.09013	25.4449	15.2381
 464	1	1	-0.030211	8.43402	26.6534	15.3555
 465	1	3	0.009457	7.24803	26.0472	16.0821
 466	1	1	-0.176921	8.60768	27.6849	14.4229
 467	1	2	0.038799	6.99042	23.8667	14.9842
 468	1	2	0.012799	5.69754	23.4695	15.7562
 469	1	2	-0.181835	6.37828	24.9798	14.1039
 470	1	2	-0.004967	5.00175	24.8707	16.0274
 471	1	2	0.05243	5.93617	25.871	15.2894
 472	1	2	-0.049676	11.1476	25.0872	11.2895
 473	1	2	-0.040251	12.4667	24.2902	11.2581
 474	1	5	0.031595	10.3331	24.4448	11.647
 475	1	5	0.022689	10.8726	25.4109	10.2778
 476	1	2	-0.037258	13.2419	24.7211	12.5124
 477	1	2	0.002978	12.8388	26.1876	12.7289
 478	1	5	0.016721	13.4789	26.8277	12.1076
 479	1	5	-0.000468	12.9659	26.4988	13.774
 480	1	5	0.056924	5.73552	29.8962	8.5657
 481	1	5	0.029852	10.5554	27.9119	4.12354
 482	1	5	0.043077	8.80576	32.5763	9.58307
 483	1	5	0.016056	10.7586	32.0141	6.00487
 484	1	5	0.041103	8.76489	32.9862	7.11643
 485	1	5	0.055216	8.20854	29.9806	9.08277
 486	1	5	0.041749	12.2391	30.7517	7.60318
 487	1	6	0.155314	8.39613	29.7703	12.1574
 488	1	5	0.049935	10.2659	28.8709	7.84611
 489	1	5	0.098652	11.3913	31.9621	9.81366
 490	1	5	0.045245	11.1665	33.0553	8.41745
 491	1	6	0.165622	12.1336	27.4924	9.71761
 492	1	5	0.050235	8.25518	24.1168	16.8152
 493	1	6	0.152615	10.4596	24.1933	14.0936
 494	1	5	0.037653	7.09642	26.4014	17.1077
 495	1	6	0.137195	7.93245	28.5325	14.3686
 496	1	5	0.010736	7.44155	23.0397	14.4218
 497	1	5	-0.004925	5.03734	22.7629	15.236
 498	1	5	0.039247	5.53164	24.6289	13.4967
 499	1	5	0.062128	7.10387	25.4577	13.4337
 500	1	5	0.003131	3.95545	24.8839	15.6949
 501	1	5	0.00404	5.44367	26.8065	14.9961
 502	1	5	0.021644	12.2948	23.2066	11.232
 503	1	5	0.012129	13.039	24.5682	10.3634
 504	1	5	0.009331	12.9205	24.1183	13.3716
 505	1	5	0.018167	14.3261	24.6021	12.3919
 506	1	2	-0.164337	5.84324	30.6136	7.74258
 507	1	5	0.06697	6.04514	31.5998	8.17844
 508	1	5	0.100055	4.88156	30.6693	7.21767
 509	1	2	0.054914	10.6176	28.3342	5.13413
 510	1	5	0.026242	11.476	29.0169	5.15915
 511	1	5	-0.001285	10.8196	27.5114	5.83105
 512	1	1	0.066869	-3.88301	27.1764	-5.94109
 513	1	1	0.053974	-4.47223	27.7847	-4.84828
 514	1	1	-0.117882	-3.82948	28.723	-4.01825
 515	1	1	-0.084276	-2.4697	28.857	-4.33939
 516	1	1	-0.157972	-2.55909	27.4351	-6.3541
 517	1	2	0.004935	-0.272856	29.7217	-3.01125
 518	1	1	-0.170374	-1.87705	28.2616	-5.44014
 519	1	3	0.154019	-0.66264	29.1829	-5.40568
 520	1	3	0.051574	-1.34424	29.862	-4.13875
 521	1	3	0.007409	-0.326474	28.2021	-2.68902
 522	1	2	0.007138	0.731327	28.7303	-4.8751
 523	1	1	-0.211215	1.44803	27.705	-0.646407
 524	1	3	-0.023783	0.359324	27.5353	-3.96164
 525	1	2	-0.253384	1.02648	29.8627	-3.85475
 526	1	1	-0.027691	1.42716	27.0587	-2.99853
 527	1	1	-0.014027	0.832033	27.6179	-1.8998
 528	1	1	-0.211541	2.7346	26.5668	-3.00412
 529	1	1	-0.003037	3.36071	26.5579	-1.7378
 530	1	4	-0.005095	2.72682	27.089	-0.581131
 531	1	2	0.078204	4.78055	26.0726	-1.42108
 532	1	3	-0.018845	6.6676	27.2026	3.34476
 533	1	4	0.006574	3.65504	26.9592	0.556325
 534	1	1	0.013723	4.85778	26.3769	0.0775866
 535	1	1	-0.173541	6.00468	26.268	0.891307
 536	1	1	-0.072264	5.81945	26.666	2.21631
 537	1	1	-0.030211	4.65059	27.2003	2.70414
 538	1	3	0.009457	5.32587	27.8253	3.91986
 539	1	1	-0.176921	3.53171	27.4297	1.89209
 540	1	2	0.038799	7.0948	26.204	4.44212
 541	1	2	0.012799	7.59786	26.9826	5.68447
 542	1	2	-0.181835	5.74142	25.7059	4.99927
 543	1	2	-0.004967	6.27407	27.6051	6.29393
 544	1	2	0.05243	5.17975	27.1165	5.29244
 545	1	2	-0.049676	4.97007	24.5754	-1.75066
 546	1	2	-0.040251	5.60262	24.5342	-3.151
 547	1	5	0.031595	5.66534	24.1209	-1.03322
 548	1	5	0.022689	4.02794	24.0127	-1.70897
 549	1	2	-0.037258	6.43021	25.8247	-3.27376
 550	1	2	0.002978	5.85739	26.8231	-2.24624
 551	1	5	0.016721	5.43244	27.7042	-2.73844
 552	1	5	-0.000468	6.67273	27.182	-1.60626
 553	1	5	0.056924	-3.99877	29.6558	-2.07085
 554	1	5	0.029852	-1.75545	27.8744	-8.31827
 555	1	5	0.043077	-0.373468	30.4034	-2.15684
 556	1	5	0.016056	-0.54742	29.832	-6.28079
 557	1	5	0.041103	-1.6312	30.9114	-4.26614
 558	1	5	0.055216	-1.30808	27.8324	-2.37283
 559	1	5	0.041749	1.50246	28.5421	-5.63245
 560	1	6	0.155314	0.992419	28.2105	0.198722
 561	1	5	0.049935	-0.18177	26.7312	-4.46796
 562	1	5	0.098652	1.939	29.6855	-3.27092
 563	1	5	0.045245	1.09654	30.8441	-4.34048
 564	1	6	0.165622	3.22457	26.2182	-3.90615
 565	1	5	0.050235	7.47026	27.8822	3.03683
 566	1	6	0.152615	6.97438	25.9729	0.501983
 567	1	5	0.037653	5.25003	28.9157	3.99327
 568	1	6	0.137195	2.6718	27.9967	2.23291
 569	1	5	0.010736	7.77366	25.4092	4.10848
 570	1	5	-0.004925	8.15128	26.3801	6.41693
 571	1	5	0.039247	5.85332	25.0942	5.90583
 572	1	5	0.062128	5.14808	25.1374	4.27126
 573	1	5	0.003131	6.11537	27.3031	7.33757
 574	1	5	0.00404	4.16448	27.1217	5.70818
 575	1	5	0.021644	6.22236	23.6401	-3.28945
 576	1	5	0.012129	4.8174	24.5264	-3.91573
 577	1	5	0.009331	7.4797	25.6138	-3.0311
 578	1	5	0.018167	6.39615	26.2252	-4.29389
 579	1	2	-0.164337	-4.54713	29.6126	-3.02003
 580	1	5	0.06697	-4.63929	30.636	-3.40378
 581	1	5	0.100055	-5.55681	29.2396	-2.80715
 582	1	2	0.054914	-1.97921	27.004	-7.68927
 583	1	5	0.026242	-1.04706	26.4433	-7.54605
 584	1	5	-0.001285	-2.6775	26.3609	-8.23929
 585	1	1	0.066869	-0.394009	40.8634	-7.6968
 586	1	1	0.053974	-0.761264	40.5494	-6.40168
 587	1	1	-0.117882	-1.32011	39.3203	-6.02083
 588	1	1	-0.084276	-1.61987	38.4903	-7.11104
 589	1	1	-0.157972	-0.556281	39.9647	-8.77207
 590	1	2	0.004935	-2.6556	36.0263	-7.43006
 591	1	1	-0.170374	-1.25922	38.7894	-8.42693
 592	1	3	0.154019	-1.03223	37.3195	-8.78438
 593	1	3	0.051574	-1.45081	36.9968	-7.29775
 594	1	3	0.007409	-3.78444	36.9501	-7.98262
 595	1	2	0.007138	-2.01402	36.4509	-9.62871
 596	1	1	-0.211215	-5.62758	35.059	-8.1158
 597	1	3	-0.023783	-3.3604	37.209	-9.47691
 598	1	2	-0.253384	-2.185	35.2282	-8.67843
 599	1	1	-0.027691	-4.607	36.4246	-9.86755
 600	1	1	-0.014027	-4.99597	36.2317	-8.54849
 601	1	1	-0.211541	-4.77202	35.4195	-10.8359
 602	1	1	-0.003037	-5.42848	34.2383	-10.4245
 603	1	4	-0.005095	-5.89333	34.0802	-9.0993
 604	1	2	0.078204	-5.42517	32.8891	-11.16
 605	1	3	-0.018845	-5.23334	28.8761	-7.91571
 606	1	4	0.006574	-6.20793	32.6618	-8.87123
 607	1	1	0.013723	-5.85917	31.9358	-10.0328
 608	1	1	-0.173541	-5.64798	30.5401	-9.96976
 609	1	1	-0.072264	-5.96096	29.9181	-8.75238
 610	1	1	-0.030211	-6.40377	30.6177	-7.64224
 611	1	3	0.009457	-5.79377	29.6418	-6.65756
 612	1	1	-0.176921	-6.45141	32.0163	-7.63555
 613	1	2	0.038799	-5.8435	27.4663	-7.76777
 614	1	2	0.012799	-5.21346	26.7284	-6.54242
 615	1	2	-0.181835	-7.24385	27.7783	-7.19256
 616	1	2	-0.004967	-5.88067	27.4699	-5.30611
 617	1	2	0.05243	-6.7219	28.5897	-5.98618
 618	1	2	-0.049676	-6.39964	32.8498	-12.3528
 619	1	2	-0.040251	-5.87645	31.7276	-13.265
 620	1	5	0.031595	-7.43852	32.6807	-12.0409
 621	1	5	0.022689	-6.35818	33.8034	-12.8954
 622	1	2	-0.037258	-4.3505	31.6798	-13.0461
 623	1	2	0.002978	-4.05341	32.4883	-11.7635
 624	1	5	0.016721	-3.47049	33.374	-12.04
 625	1	5	-0.000468	-3.44324	31.9142	-11.0542
 626	1	5	0.056924	-0.491005	38.0882	-4.43655
 627	1	5	0.029852	-0.601301	40.2085	-10.9229
 628	1	5	0.043077	-2.90106	35.4363	-6.53813
 629	1	5	0.016056	0.00259823	37.0683	-9.04275
 630	1	5	0.041103	-0.668615	36.5426	-6.67958
 631	1	5	0.055216	-4.02708	37.8154	-7.35616
 632	1	5	0.041749	-1.69802	36.2265	-10.6551
 633	1	6	0.155314	-5.70935	34.8256	-7.05964
 634	1	5	0.049935	-3.3408	38.2451	-9.83295
 635	1	5	0.098652	-2.92502	34.4981	-9.02751
 636	1	5	0.045245	-1.23745	34.7002	-8.50385
 637	1	6	0.165622	-4.24503	35.4725	-11.7828
 638	1	5	0.050235	-4.1508	28.8558	-8.06802
 639	1	6	0.152615	-5.13561	30.0027	-10.7609
 640	1	5	0.037653	-5.07874	30.0956	-5.96585
 641	1	6	0.137195	-6.50599	32.5734	-6.70627
 642	1	5	0.010736	-5.85402	26.8703	-8.68886
 643	1	5	-0.004925	-5.38911	25.6449	-6.51707
 644	1	5	0.039247	-7.79323	26.8737	-6.89533