pySIMM System Object

3359 atoms
3907 bonds
8100 angles
14943 dihedrals
270 impropers

6 atom types
11 bond types
24 angle types
21 dihedral types
2 improper types

-209.422858 209.422858 xlo xhi
-209.422858 209.422858 ylo yhi
-209.422858 209.422858 zlo zhi

Masses

   1	12.01	# ca
   2	12.01	# c3
   3	12.01	# cy
   4	12.01	# cp
   5	1.008	# hc
   6	1.008	# ha

Pair Coeffs

   1	0.086	3.3996695084235347	# ca
   2	0.1094	3.3996695084235347	# c3
   3	0.086	3.3996695084235347	# cy
   4	0.086	3.3996695084235347	# cp
   5	0.0157	2.649532787749369	# hc
   6	0.015	2.59964245953351	# ha

Bond Coeffs

   1	321.2	1.5154	# ca,cy
   2	461.1	1.3984	# ca,ca
   3	305.9	1.5319	# c3,cy
   4	351.4	1.4854	# cp,cp
   5	345.8	1.086	# ca,ha
   6	300.9	1.5375	# c3,c3
   7	450.2	1.4058	# ca,cp
   8	285.0	1.5562	# cy,cy
   9	321.0	1.5156	# c3,ca
  10	330.6	1.0969	# c3,hc
  11	333.3	1.0949	# cy,hc

Angle Coeffs

   1	67.9	96.03	# cy,c3,cy
   2	61.4	116.81	# ca,cy,cy
   3	63.15	112.07	# c3,c3,ca
   4	45.97	114.53	# ca,cy,hc
   5	66.26	120.69	# ca,ca,cp
   6	46.34	109.8	# c3,c3,hc
   7	48.18	119.88	# ca,ca,ha
   8	62.73	112.39	# c3,c3,cy
   9	46.29	110.75	# cy,c3,hc
  10	44.83	114.79	# cy,cy,hc
  11	46.8	110.47	# ca,c3,hc
  12	66.72	118.38	# ca,cp,ca
  13	62.86	111.51	# c3,c3,c3
  14	46.43	110.14	# c3,cy,hc
  15	60.66	118.7	# c3,cy,cy
  16	63.43	120.63	# c3,ca,cp
  17	63.56	112.24	# ca,c3,ca
  18	64.05	121.11	# ca,cp,cp
  19	66.62	120.02	# ca,ca,ca
  20	39.4	107.58	# hc,c3,hc
  21	47.98	119.86	# cp,ca,ha
  22	63.53	120.77	# c3,ca,ca
  23	63.51	120.86	# ca,ca,cy
  24	62.8	113.57	# c3,cy,ca

Dihedral Coeffs

   1	1	0.16	3	0	# hc,c3,c3,c3
   2	1	0.0	2	0.0	# ca,ca,cy,cy
   3	1	1.0	2	180	# X,cp,cp,X
   4	1	0.0	2	0.0	# ca,ca,cy,c3
   5	3	0.38	3	180.0	0.0	2	0.0	1.15	1	0.0	# ca,ca,cy,hc
   6	1	0.0	2	0	# X,c3,ca,X
   7	1	0.16	3	0.0	# cy,c3,cy,ca
   8	1	0.15555555555555556	3	0	# X,c3,c3,X
   9	1	0.16	3	0.0	# c3,c3,cy,ca
  10	1	0.16	3	0.0	# hc,c3,cy,ca
  11	3	0.18	3	0.0	0.25	2	180.0	0.2	1	180.0	# cy,c3,cy,cy
  12	1	0.15	3	0	# hc,c3,c3,hc
  13	3	0.18	3	0.0	0.25	2	180.0	0.2	1	180.0	# c3,c3,cy,cy
  14	1	0.16	3	0.0	# hc,c3,cy,cy
  15	1	0.16	3	0.0	# cy,c3,cy,hc
  16	1	0.16	3	0.0	# c3,c3,cy,hc
  17	1	0.15	3	0.0	# hc,c3,cy,hc
  18	1	3.625	2	180	# X,ca,ca,X
  19	1	0.15555555555555556	3	0	# X,cy,cy,X
  20	1	3.625	2	180	# X,ca,cp,X
  21	3	0.18	3	0	0.25	2	180	0.2	1	180	# c3,c3,c3,c3

Improper Coeffs

   1	1.1	-1	2	# ca,ca,ca,c3
   2	1.1	-1	2	# ca,X,X,ha

Atoms

   1	1	1	0.066869	9.25239	-52.8846	19.2465
   2	1	1	0.053974	8.17605	-52.7328	18.3995
   3	1	1	-0.117882	8.1814	-53.0668	17.0337
   4	1	1	-0.084276	9.41005	-53.6367	16.658
   5	1	1	-0.157972	10.5211	-53.3394	18.8417
   6	1	2	0.004935	10.629	-52.8546	14.3729
   7	1	1	-0.170374	10.5079	-53.754	17.4946
   8	1	3	0.154019	11.4661	-54.0945	16.3566
   9	1	3	0.051574	10.2019	-53.946	15.4
  10	1	3	0.007409	10.6356	-51.5551	15.23
  11	1	2	0.007138	12.5004	-53.0945	15.7507
  12	1	1	-0.211215	11.3633	-49.7097	13.3893
  13	1	3	-0.023783	11.9153	-51.7145	16.1514
  14	1	2	-0.253384	12.141	-53.1979	14.2388
  15	1	1	-0.027691	12.4687	-50.5088	15.413
  16	1	1	-0.014027	11.3477	-50.3614	14.6268
  17	1	1	-0.211541	13.734	-50.0479	15.0235
  18	1	1	-0.003037	13.754	-49.2692	13.8444
  19	1	4	-0.005095	12.5927	-49.0947	13.0528
  20	1	2	0.078204	14.9748	-48.6225	13.1785
  21	1	3	-0.018845	13.9782	-45.5	9.02884
  22	1	4	0.006574	12.9507	-48.3191	11.858
  23	1	1	0.013723	14.3341	-48.0113	11.9219
  24	1	1	-0.173541	14.9348	-47.1262	10.9979
  25	1	1	-0.072264	14.094	-46.6879	9.96731
  26	1	1	-0.030211	12.7545	-46.9909	9.90125
  27	1	3	0.009457	12.434	-45.8525	8.94629
  28	1	1	-0.176921	12.1018	-47.7636	10.8679
  29	1	2	0.038799	13.9719	-44.0575	9.59214
  30	1	2	0.012799	13.4961	-43.9975	11.0698
  31	1	2	-0.181835	12.7198	-43.4966	8.88749
  32	1	2	-0.004967	11.9824	-44.3281	10.9758
  33	1	2	0.05243	11.7561	-44.5565	9.4585
  34	1	2	-0.049676	15.6729	-47.5621	14.0609
  35	1	2	-0.040251	17.1822	-47.6329	13.7413
  36	1	5	0.031595	15.2703	-46.5579	13.881
  37	1	5	0.022689	15.5226	-47.793	15.1233
  38	1	2	-0.037258	17.386	-48.818	12.7757
  39	1	2	0.002978	16.0842	-49.635	12.8239
  40	1	5	0.016721	16.1703	-50.3905	13.6153
  41	1	5	-0.000468	15.8894	-50.1583	11.8788
  42	1	5	0.056924	7.00268	-53.5799	15.2903
  43	1	5	0.029852	12.0579	-52.274	19.9323
  44	1	5	0.043077	10.0535	-52.8164	13.4395
  45	1	5	0.016056	11.8824	-55.1073	16.3909
  46	1	5	0.041103	9.91785	-54.8722	14.889
  47	1	5	0.055216	9.68505	-51.3001	15.7065
  48	1	5	0.041749	13.5514	-53.2682	16.0129
  49	1	6	0.155314	10.5125	-49.7187	12.7163
  50	1	5	0.049935	11.7955	-51.5577	17.2276
  51	1	5	0.098652	12.6903	-52.4809	13.6137
  52	1	5	0.045245	12.3056	-54.2078	13.8392
  53	1	6	0.165622	14.6372	-50.3157	15.5623
  54	1	5	0.050235	14.519	-45.5741	8.07889
  55	1	6	0.152615	15.9475	-46.7543	11.114
  56	1	5	0.037653	12.0807	-46.1393	7.94973
  57	1	6	0.137195	11.0215	-47.862	10.9064
  58	1	5	0.010736	14.8923	-43.4907	9.40319
  59	1	5	-0.004925	13.6418	-42.9866	11.4675
  60	1	5	0.039247	12.7939	-43.5325	7.79176
  61	1	5	0.062128	12.47	-42.4734	9.20217
  62	1	5	0.003131	11.3852	-43.4763	11.3218
  63	1	5	0.00404	10.711	-44.4348	9.14709
  64	1	5	0.021644	17.5337	-46.6985	13.2851
  65	1	5	0.012129	17.7529	-47.7913	14.6655
  66	1	5	0.009331	17.5475	-48.4418	11.7576
  67	1	5	0.018167	18.257	-49.426	13.0519
  68	1	2	-0.164337	7.04092	-52.8073	16.0679
  69	1	5	0.06697	6.07458	-52.8122	16.5868
  70	1	5	0.100055	7.15723	-51.8381	15.5692
  71	1	2	0.054914	11.756	-53.3076	19.7223
  72	1	5	0.026242	11.5655	-53.8056	20.681
  73	1	5	-0.001285	12.6015	-53.8148	19.241
  74	1	1	0.066869	3.54572	-39.1396	22.2135
  75	1	1	0.053974	3.1006	-39.528	20.9651
  76	1	1	-0.117882	2.35862	-40.7044	20.7271
  77	1	1	-0.084276	1.98773	-41.3503	21.9264
  78	1	1	-0.157972	3.33765	-39.8859	23.3838
  79	1	2	0.004935	2.20504	-44.0929	22.1594
  80	1	1	-0.170374	2.46027	-40.9606	23.1699
  81	1	3	0.154019	2.11176	-42.2773	23.8298
  82	1	3	0.051574	1.50845	-42.7194	22.4282
  83	1	3	0.007409	3.62702	-43.6661	21.7403
  84	1	2	0.007138	3.1798	-43.3659	24.1503
  85	1	1	-0.211215	4.806	-46.1008	21.4102
  86	1	3	-0.023783	4.29092	-43.1234	23.0739
  87	1	2	-0.253384	2.42169	-44.6122	23.6123
  88	1	1	-0.027691	5.31206	-44.2306	22.8778
  89	1	1	-0.014027	4.69451	-44.747	21.7633
  90	1	1	-0.211541	6.22522	-44.9443	23.66
  91	1	1	-0.003037	6.49322	-46.2563	23.2179
  92	1	4	-0.005095	5.76845	-46.8396	22.1482
  93	1	2	0.078204	7.43061	-47.2721	23.8825
  94	1	3	-0.018845	6.94796	-52.3256	22.4084
  95	1	4	0.006574	6.11367	-48.2714	22.0897
  96	1	1	0.013723	7.11734	-48.5281	23.0635
  97	1	1	-0.173541	7.61691	-49.8282	23.3044
  98	1	1	-0.072264	7.05443	-50.818	22.4956
  99	1	1	-0.030211	6.03179	-50.5909	21.6122
 100	1	3	0.009457	5.7353	-52.07	21.4062
 101	1	1	-0.176921	5.4923	-49.3235	21.3645
 102	1	2	0.038799	7.95985	-53.1119	21.5371
 103	1	2	0.012799	8.56318	-52.2054	20.4165
 104	1	2	-0.181835	6.9545	-53.9848	20.7508
 105	1	2	-0.004967	7.33648	-52.0053	19.4303
 106	1	2	0.05243	6.19328	-52.7964	20.1178
 107	1	2	-0.049676	8.91189	-46.8325	23.7904
 108	1	2	-0.040251	9.26902	-46.2867	25.1826
 109	1	5	0.031595	9.54826	-47.7002	23.5734
 110	1	5	0.022689	9.08156	-46.0873	23.0023
 111	1	2	-0.037258	8.4315	-47.134	26.1517
 112	1	2	0.002978	7.12902	-47.459	25.3954
 113	1	5	0.016721	6.33068	-46.7806	25.7164
 114	1	5	-0.000468	6.79387	-48.4773	25.6302
 115	1	5	0.056924	3.04748	-41.5615	18.8597
 116	1	5	0.029852	4.28341	-38.5866	24.8355
 117	1	5	0.043077	1.68616	-44.7743	21.4734
 118	1	5	0.016056	1.37039	-42.211	24.6341
 119	1	5	0.041103	0.420204	-42.8424	22.4372
 120	1	5	0.055216	3.66994	-43.0303	20.8529
 121	1	5	0.041749	3.50669	-43.4118	25.1943
 122	1	6	0.155314	4.16332	-46.5629	20.6677
 123	1	5	0.049935	4.72385	-42.1207	23.0634
 124	1	5	0.098652	3.02075	-45.5318	23.6614
 125	1	5	0.045245	1.47262	-44.7849	24.1376
 126	1	6	0.165622	6.6682	-44.5378	24.5606
 127	1	5	0.050235	6.70555	-52.853	23.3377
 128	1	6	0.152615	8.32588	-50.05	24.0962
 129	1	5	0.037653	4.75767	-52.4208	21.7527
 130	1	6	0.137195	4.63731	-49.1597	20.7178
 131	1	5	0.010736	8.70997	-53.6794	22.1019
 132	1	5	-0.004925	9.04279	-51.274	20.7442
 133	1	5	0.039247	6.31608	-54.5919	21.4079
 134	1	5	0.062128	7.425	-54.6531	20.0177
 135	1	5	0.003131	7.12439	-50.9581	19.1869
 136	1	5	0.00404	5.38652	-53.0895	19.4352
 137	1	5	0.021644	10.3437	-46.3558	25.3931
 138	1	5	0.012129	8.96967	-45.2335	25.2565
 139	1	5	0.009331	8.9658	-48.0671	26.373
 140	1	5	0.018167	8.24326	-46.617	27.0999
 141	1	2	-0.164337	2.10576	-41.2708	19.3416
 142	1	5	0.06697	1.46114	-42.1574	19.3845
 143	1	5	0.100055	1.61437	-40.5291	18.7001
 144	1	2	0.054914	4.08662	-39.6545	24.6807
 145	1	5	0.026242	3.51126	-40.0181	25.541
 146	1	5	-0.001285	5.04717	-40.1813	24.6692
 147	1	1	0.066869	8.67401	-47.4827	16.7677
 148	1	1	0.053974	8.22024	-46.9319	15.5763
 149	1	1	-0.117882	9.06888	-46.3924	14.5966
 150	1	1	-0.084276	10.4271	-46.6093	14.873
 151	1	1	-0.157972	10.0422	-47.5711	17.1002
 152	1	2	0.004935	11.899	-44.3535	14.8333
 153	1	1	-0.170374	10.8991	-47.1664	16.053
 154	1	3	0.154019	12.3077	-46.5706	15.8852
 155	1	3	0.051574	11.7245	-45.8845	14.5808
 156	1	3	0.007409	10.9166	-44.0615	16.0157
 157	1	2	0.007138	12.9055	-45.3598	16.6788
 158	1	1	-0.211215	10.2652	-41.6063	16.9076
 159	1	3	-0.023783	11.6427	-44.7007	17.2648
 160	1	2	-0.253384	13.2881	-44.3826	15.5272
 161	1	1	-0.027691	11.7762	-43.2829	17.787
 162	1	1	-0.014027	11.0765	-42.735	16.7333
 163	1	1	-0.211541	11.8675	-42.691	19.0526
 164	1	1	-0.003037	11.2331	-41.4361	19.1783
 165	1	4	-0.005095	10.408	-40.932	18.1449
 166	1	2	0.078204	11.1034	-40.59	20.4529
 167	1	3	-0.018845	6.83925	-37.6579	20.7857
 168	1	4	0.006574	9.61532	-39.8201	18.6891
 169	1	1	0.013723	10.0204	-39.5886	20.0255
 170	1	1	-0.173541	9.31732	-38.7	20.8677
 171	1	1	-0.072264	8.22536	-38.0383	20.2882
 172	1	1	-0.030211	7.78155	-38.3334	19.0115
 173	1	3	0.009457	6.33	-38.0362	19.3384
 174	1	1	-0.176921	8.42443	-39.2539	18.1759
 175	1	2	0.038799	6.06738	-38.6509	21.6824
 176	1	2	0.012799	4.58466	-38.1846	21.6681
 177	1	2	-0.181835	6.01852	-39.926	20.8062
 178	1	2	-0.004967	4.07649	-38.6179	20.2302
 179	1	2	0.05243	5.36279	-39.2233	19.5949
 180	1	2	-0.049676	10.696	-41.4412	21.6873
 181	1	2	-0.040251	11.9544	-41.5462	22.5639
 182	1	5	0.031595	9.90896	-40.9396	22.2616
 183	1	5	0.022689	10.3101	-42.4307	21.4101
 184	1	2	-0.037258	12.727	-40.2463	22.2943
 185	1	2	0.002978	12.4424	-39.9009	20.8217
 186	1	5	0.016721	13.2549	-40.2907	20.1944
 187	1	5	-0.000468	12.4045	-38.8139	20.6731
 188	1	5	0.056924	9.37782	-45.232	12.7858
 189	1	5	0.029852	11.6131	-47.85	18.5772
 190	1	5	0.043077	11.8076	-43.704	13.9544
 191	1	5	0.016056	13.0898	-47.3083	15.6896
 192	1	5	0.041103	12.2327	-46.1882	13.6609
 193	1	5	0.055216	9.87213	-44.3084	15.8234
 194	1	5	0.041749	13.7006	-45.597	17.3966
 195	1	6	0.155314	9.50167	-41.324	16.1912
 196	1	5	0.049935	11.0779	-45.3428	17.9403
 197	1	5	0.098652	13.6094	-43.3953	15.8854
 198	1	5	0.045245	14.0712	-44.7893	14.8749
 199	1	6	0.165622	12.307	-43.2072	19.8999
 200	1	5	0.050235	6.7106	-36.6132	21.0894
 201	1	6	0.152615	9.53228	-38.6276	21.9269
 202	1	5	0.037653	5.86901	-37.2314	18.7742
 203	1	6	0.137195	7.97283	-39.6082	17.2544
 204	1	5	0.010736	6.47514	-38.7968	22.6871
 205	1	5	-0.004925	4.41128	-37.1271	21.9064
 206	1	5	0.039247	5.40939	-40.7336	21.2289
 207	1	5	0.062128	7.00637	-40.3476	20.5836
 208	1	5	0.003131	3.60027	-37.8102	19.6641
 209	1	5	0.00404	5.17705	-39.8731	18.7307
 210	1	5	0.021644	11.7114	-41.6739	23.6264
 211	1	5	0.012129	12.5577	-42.4053	22.2434
 212	1	5	0.009331	12.3401	-39.445	22.9355
 213	1	5	0.018167	13.8008	-40.3556	22.4929
 214	1	2	-0.164337	8.58597	-45.4398	13.516
 215	1	5	0.06697	7.73425	-45.8668	12.9725
 216	1	5	0.100055	8.26501	-44.4838	13.9474
 217	1	2	0.054914	10.5196	-47.8994	18.505
 218	1	5	0.026242	10.099	-47.2011	19.2393
 219	1	5	-0.001285	10.2112	-48.9128	18.7914
 220	1	1	0.066869	-5.9256	-47.3343	14.2868
 221	1	1	0.053974	-5.34562	-47.3627	13.0312
 222	1	1	-0.117882	-4.79306	-48.5087	12.441
 223	1	1	-0.084276	-5.03459	-49.6642	13.2012
 224	1	1	-0.157972	-5.99762	-48.4671	15.1244
 225	1	2	0.004935	-2.87737	-51.22	13.6649
 226	1	1	-0.170374	-5.59583	-49.6533	14.4703
 227	1	3	0.154019	-5.07401	-51.0544	14.8193
 228	1	3	0.051574	-4.39875	-51.0283	13.382
 229	1	3	0.007409	-2.47294	-49.8887	14.373
 230	1	2	0.007138	-3.87319	-51.372	15.7721
 231	1	1	-0.211215	0.228448	-49.9482	14.8241
 232	1	3	-0.023783	-3.11627	-50.0264	15.8192
 233	1	2	-0.253384	-2.97058	-52.2343	14.8404
 234	1	1	-0.027691	-1.68696	-50.0486	16.3344
 235	1	1	-0.014027	-1.14011	-49.8798	15.0907
 236	1	1	-0.211541	-0.940852	-50.4444	17.4523
 237	1	1	-0.003037	0.458825	-50.4825	17.2365
 238	1	4	-0.005095	1.02699	-50.1953	15.9691
 239	1	2	0.078204	1.55138	-50.8648	18.2451
 240	1	3	-0.018845	6.36471	-49.3041	17.007
 241	1	4	0.006574	2.48892	-50.2527	16.0875
 242	1	1	0.013723	2.82376	-50.6477	17.4043
 243	1	1	-0.173541	4.15708	-50.5827	17.8702
 244	1	1	-0.072264	5.1238	-50.1842	16.9321
 245	1	1	-0.030211	4.77633	-49.7282	15.6733
 246	1	3	0.009457	5.92878	-48.7445	15.5974
 247	1	1	-0.176921	3.45464	-49.6991	15.2164
 248	1	2	0.038799	6.30851	-48.0587	17.9183
 249	1	2	0.012799	7.4325	-47.0503	17.5424
 250	1	2	-0.181835	5.08838	-47.2912	17.356
 251	1	2	-0.004967	6.91637	-46.4551	16.1727
 252	1	2	0.05243	5.6126	-47.252	15.9019
 253	1	2	-0.049676	1.53913	-50.0016	19.5328
 254	1	2	-0.040251	1.82294	-50.9517	20.7175
 255	1	5	0.031595	2.28109	-49.1941	19.483
 256	1	5	0.022689	0.558609	-49.5299	19.6757
 257	1	2	-0.037258	2.07544	-52.3476	20.1187
 258	1	2	0.002978	1.42383	-52.3244	18.7295
 259	1	5	0.016721	0.364961	-52.5961	18.8293
 260	1	5	-0.000468	1.89289	-53.0393	18.0409
 261	1	5	0.056924	-3.60897	-49.4777	10.8979
 262	1	5	0.029852	-6.33373	-49.3768	17.069
 263	1	5	0.043077	-2.26051	-51.5219	12.8092
 264	1	5	0.016056	-5.85416	-51.8161	14.9261
 265	1	5	0.041103	-4.76847	-51.8046	12.7033
 266	1	5	0.055216	-2.65878	-48.9746	13.8066
 267	1	5	0.041749	-4.12915	-51.8144	16.7429
 268	1	6	0.155314	0.642492	-49.8378	13.827
 269	1	5	0.049935	-3.70008	-49.1867	16.2007
 270	1	5	0.098652	-1.99254	-52.4697	15.282
 271	1	5	0.045245	-3.45599	-53.174	14.5437
 272	1	6	0.165622	-1.40039	-50.7112	18.3989
 273	1	5	0.050235	7.32388	-49.8312	17.053
 274	1	6	0.152615	4.40322	-50.7039	18.9189
 275	1	5	0.037653	6.62501	-48.8931	14.7649
 276	1	6	0.137195	3.16928	-49.1581	14.32
 277	1	5	0.010736	6.2559	-48.2731	18.9901
 278	1	5	-0.004925	7.60863	-46.2651	18.2898
 279	1	5	0.039247	4.9742	-46.2912	17.7989
 280	1	5	0.062128	4.13497	-47.8218	17.4657
 281	1	5	0.003131	6.79384	-45.3644	16.2102
 282	1	5	0.00404	4.9371	-46.7651	15.1874
 283	1	5	0.021644	2.68058	-50.6145	21.3129
 284	1	5	0.012129	0.947171	-50.985	21.3784
 285	1	5	0.009331	3.15181	-52.5129	20.0066
 286	1	5	0.018167	1.67162	-53.1486	20.7509
 287	1	2	-0.164337	-3.87164	-48.4672	11.2347
 288	1	5	0.06697	-4.35173	-47.949	10.3953
 289	1	5	0.100055	-2.94047	-47.9369	11.4694
 290	1	2	0.054914	-6.31977	-48.3822	16.606
 291	1	5	0.026242	-5.57625	-47.7736	17.1354
 292	1	5	-0.001285	-7.3039	-47.9243	16.7646
 293	1	1	0.066869	-7.33247	-35.0318	5.87089
 294	1	1	0.053974	-6.89564	-36.1028	5.11498
 295	1	1	-0.117882	-7.71573	-37.1551	4.6785
 296	1	1	-0.084276	-9.06736	-36.9381	5.00125
 297	1	1	-0.157972	-8.64698	-34.9301	6.36855
 298	1	2	0.004935	-10.3703	-39.0291	6.12509
 299	1	1	-0.170374	-9.50511	-35.9074	5.82094
 300	1	3	0.154019	-10.8387	-36.5893	6.13937
 301	1	3	0.051574	-10.3219	-37.7698	5.20963
 302	1	3	0.007409	-9.21702	-38.7657	7.13555
 303	1	2	0.007138	-11.1845	-37.3123	7.48495
 304	1	1	-0.211215	-9.01948	-40.9636	8.74728
 305	1	3	-0.023783	-9.78877	-37.6234	8.08177
 306	1	2	-0.253384	-11.646	-38.7015	6.95351
 307	1	1	-0.027691	-9.71673	-38.6659	9.18972
 308	1	1	-0.014027	-9.19946	-39.633	8.37118
 309	1	1	-0.211541	-10.1843	-38.9246	10.486
 310	1	1	-0.003037	-9.95621	-40.2507	10.9342
 311	1	4	-0.005095	-9.37376	-41.2329	10.0919
 312	1	2	0.078204	-10.2938	-40.8506	12.3092
 313	1	3	-0.018845	-7.99909	-45.4165	13.4157
 314	1	4	0.006574	-9.25131	-42.4855	10.8439
 315	1	1	0.013723	-9.78021	-42.2916	12.1408
 316	1	1	-0.173541	-9.61247	-43.2653	13.153
 317	1	1	-0.072264	-8.99375	-44.4648	12.7591
 318	1	1	-0.030211	-8.44014	-44.6234	11.5013
 319	1	3	0.009457	-7.34644	-45.5523	11.9832
 320	1	1	-0.176921	-8.4936	-43.6318	10.5173
 321	1	2	0.038799	-6.85702	-44.8083	14.2658
 322	1	2	0.012799	-5.69814	-45.8361	14.4613
 323	1	2	-0.181835	-6.1698	-43.8544	13.2595
 324	1	2	-0.004967	-5.03939	-45.8843	13.0199
 325	1	2	0.05243	-5.93351	-44.936	12.1809
 326	1	2	-0.049676	-9.5877	-40.0961	13.4674
 327	1	2	-0.040251	-10.6559	-39.8773	14.5521
 328	1	5	0.031595	-8.71975	-40.642	13.8592
 329	1	5	0.022689	-9.22843	-39.1187	13.1202
 330	1	2	-0.037258	-11.9826	-39.8107	13.7825
 331	1	2	0.002978	-11.8116	-40.8049	12.6213
 332	1	5	0.016721	-12.4106	-40.5123	11.7492
 333	1	5	-0.000468	-12.1599	-41.7945	12.9449
 334	1	5	0.056924	-6.50564	-38.9507	4.79825
 335	1	5	0.029852	-10.1268	-34.0058	7.66238
 336	1	5	0.043077	-10.3561	-40.0003	5.61483
 337	1	5	0.016056	-11.7213	-36.0723	5.74684
 338	1	5	0.041103	-10.9277	-37.9229	4.30996
 339	1	5	0.055216	-8.22515	-38.6354	6.70096
 340	1	5	0.041749	-11.886	-36.7906	8.14778
 341	1	6	0.155314	-8.6478	-41.7242	8.06846
 342	1	5	0.049935	-9.16226	-36.746	8.26008
 343	1	5	0.098652	-11.8358	-39.4287	7.75491
 344	1	5	0.045245	-12.5443	-38.6299	6.32528
 345	1	6	0.165622	-10.6769	-38.172	11.0936
 346	1	5	0.050235	-8.42938	-46.3249	13.8515
 347	1	6	0.152615	-9.84302	-43.0557	14.1928
 348	1	5	0.037653	-7.34139	-46.5482	11.527
 349	1	6	0.137195	-7.89006	-43.6816	9.61687
 350	1	5	0.010736	-7.18238	-44.3254	15.1958
 351	1	5	-0.004925	-4.97022	-45.5668	15.238
 352	1	5	0.039247	-5.23484	-43.4261	13.6484
 353	1	5	0.062128	-6.80661	-43.0279	12.9209
 354	1	5	0.003131	-3.97167	-45.6283	13.0356
 355	1	5	0.00404	-5.45341	-44.5698	11.2648
 356	1	5	0.021644	-10.6698	-40.7364	15.2355
 357	1	5	0.012129	-10.4707	-38.9695	15.1402
 358	1	5	0.009331	-12.8436	-40.0573	14.4166
 359	1	5	0.018167	-12.1252	-38.7982	13.3826
 360	1	2	-0.164337	-7.17843	-38.4487	4.09195
 361	1	5	0.06697	-7.99054	-39.1444	3.84717
 362	1	5	0.100055	-6.61543	-38.2539	3.1708
 363	1	2	0.054914	-9.04491	-33.9788	7.48263
 364	1	5	0.026242	-8.5403	-34.2415	8.4206
 365	1	5	-0.001285	-8.77165	-32.9467	7.2305
 366	1	1	0.066869	6.14471	-33.0622	2.87279
 367	1	1	0.053974	5.65151	-34.3459	2.74248
 368	1	1	-0.117882	5.07613	-34.8473	1.55904
 369	1	1	-0.084276	5.17996	-33.934	0.48793
 370	1	1	-0.157972	6.06281	-32.0867	1.86528
 371	1	2	0.004935	2.97324	-33.52	-1.07956
 372	1	1	-0.170374	5.62036	-32.6278	0.644729
 373	1	3	0.154019	4.98631	-32.1447	-0.651015
 374	1	3	0.051574	4.51215	-33.6475	-0.858232
 375	1	3	0.007409	2.46461	-33.2005	0.344885
 376	1	2	0.007138	3.65991	-31.3189	-0.711552
 377	1	1	-0.211215	-0.210253	-33.1689	0.762771
 378	1	3	-0.023783	2.93363	-31.7094	0.610837
 379	1	2	-0.253384	2.89351	-32.1375	-1.79025
 380	1	1	-0.027691	1.45078	-31.379	0.710523
 381	1	1	-0.014027	1.0539	-32.6679	0.448528
 382	1	1	-0.211541	0.632489	-30.458	1.38174
 383	1	1	-0.003037	-0.688308	-30.9026	1.63794
 384	1	4	-0.005095	-1.10531	-32.216	1.30518
 385	1	2	0.078204	-1.78154	-30.1754	2.44072
 386	1	3	-0.018845	-5.70273	-33.203	4.21347
 387	1	4	0.006574	-2.46021	-32.4267	1.8271
 388	1	1	0.013723	-2.8695	-31.26	2.51423
 389	1	1	-0.173541	-4.0372	-31.2544	3.31357
 390	1	1	-0.072264	-4.82873	-32.4129	3.24327
 391	1	1	-0.030211	-4.43642	-33.537	2.54352
 392	1	3	0.009457	-5.23928	-34.4828	3.40683
 393	1	1	-0.176921	-3.2082	-33.6244	1.88204
 394	1	2	0.038799	-5.16022	-33.4801	5.64289
 395	1	2	0.012799	-5.93012	-34.6562	6.32552
 396	1	2	-0.181835	-3.82817	-34.2116	5.35506
 397	1	2	-0.004967	-5.44092	-35.9139	5.49056
 398	1	2	0.05243	-4.45749	-35.3045	4.46009
 399	1	2	-0.049676	-1.28966	-29.7287	3.84543
 400	1	2	-0.040251	-1.6864	-28.2494	3.99465
 401	1	5	0.031595	-1.71485	-30.3385	4.65289
 402	1	5	0.022689	-0.198297	-29.8158	3.91711
 403	1	2	-0.037258	-1.75163	-27.7119	2.55814
 404	1	2	0.002978	-2.27722	-28.8932	1.72624
 405	1	5	0.016721	-1.93969	-28.8364	0.6832
 406	1	5	-0.000468	-3.37483	-28.8649	1.72258
 407	1	5	0.056924	4.94845	-36.9961	1.79619
 408	1	5	0.029852	7.19904	-30.4259	2.66893
 409	1	5	0.043077	2.48434	-34.359	-1.59033
 410	1	5	0.016056	5.69498	-31.7937	-1.40937
 411	1	5	0.041103	4.98119	-34.1434	-1.71483
 412	1	5	0.055216	2.6768	-33.9708	1.08769
 413	1	5	0.041749	3.76875	-30.2444	-0.904531
 414	1	6	0.155314	-0.457449	-34.2221	0.681049
 415	1	5	0.049935	3.49458	-31.4797	1.52047
 416	1	5	0.098652	1.86281	-31.7889	-1.94193
 417	1	5	0.045245	3.41014	-32.1372	-2.75976
 418	1	6	0.165622	1.01069	-29.5108	1.75337
 419	1	5	0.050235	-6.77201	-32.9656	4.19042
 420	1	6	0.152615	-4.26199	-30.4446	4.00068
 421	1	5	0.037653	-6.01307	-35.0518	2.88008
 422	1	6	0.137195	-2.81396	-34.5684	1.52059
 423	1	5	0.010736	-5.0588	-32.5907	6.27728
 424	1	5	-0.004925	-5.74195	-34.7722	7.40106
 425	1	5	0.039247	-3.36063	-34.6201	6.26237
 426	1	5	0.062128	-3.08537	-33.591	4.83806
 427	1	5	0.003131	-5.01886	-36.7017	6.12839
 428	1	5	0.00404	-3.74133	-36.0267	4.04841
 429	1	5	0.021644	-2.67947	-28.1796	4.45766
 430	1	5	0.012129	-0.975336	-27.6895	4.61534
 431	1	5	0.009331	-2.39451	-26.8265	2.47446
 432	1	5	0.018167	-0.742875	-27.4419	2.21933
 433	1	2	-0.164337	4.31083	-36.157	1.49166
 434	1	5	0.06697	3.43946	-36.1376	2.15792
 435	1	5	0.100055	3.95436	-36.3592	0.474103
 436	1	2	0.054914	6.26946	-30.6037	2.11407
 437	1	5	0.026242	6.32961	-30.0466	1.17084
 438	1	5	-0.001285	5.44137	-30.1865	2.70028
 439	1	1	0.066869	8.62575	-36.8431	14.6867
 440	1	1	0.053974	7.57173	-37.5797	14.1731
 441	1	1	-0.117882	7.72492	-38.8924	13.6836
 442	1	1	-0.084276	8.99321	-39.4392	13.9653
 443	1	1	-0.157972	9.92716	-37.3442	14.8564
 444	1	2	0.004935	10.3405	-40.595	11.8735
 445	1	1	-0.170374	10.0268	-38.7125	14.5401
 446	1	3	0.154019	11.1069	-39.6634	14.0381
 447	1	3	0.051574	9.92827	-40.5	13.3804
 448	1	3	0.007409	10.0918	-39.1557	11.3528
 449	1	2	0.007138	12.056	-39.3443	12.841
 450	1	1	-0.211215	10.191	-38.4539	8.76197
 451	1	3	-0.023783	11.2419	-38.3082	12.02
 452	1	2	-0.253384	11.8887	-40.6474	12.0129
 453	1	1	-0.027691	11.7182	-38.0172	10.6131
 454	1	1	-0.014027	10.7205	-38.7698	10.0219
 455	1	1	-0.211541	12.2353	-36.8574	10.0227
 456	1	1	-0.003037	11.7807	-36.5692	8.7191
 457	1	4	-0.005095	10.8067	-37.3736	8.0805
 458	1	2	0.078204	12.0344	-35.2776	7.93179
 459	1	3	-0.018845	8.47427	-34.1735	4.24996
 460	1	4	0.006574	10.379	-36.6927	6.84485
 461	1	1	0.013723	11.0438	-35.4439	6.77072
 462	1	1	-0.173541	10.6211	-34.446	5.86528
 463	1	1	-0.072264	9.65337	-34.8436	4.93526
 464	1	1	-0.030211	9.06691	-36.0931	4.9413
 465	1	3	0.009457	7.82447	-35.6156	4.20932
 466	1	1	-0.176921	9.32489	-37.0252	5.95676
 467	1	2	0.038799	7.47751	-33.3684	5.1373
 468	1	2	0.012799	6.14156	-33.1025	4.3837
 469	1	2	-0.181835	6.95508	-34.4374	6.12366
 470	1	2	-0.004967	5.51707	-34.5555	4.24614
 471	1	2	0.05243	6.52784	-35.4435	5.02815
 472	1	2	-0.049676	11.7739	-33.9792	8.73661
 473	1	2	-0.040251	12.7807	-32.9255	8.22388
 474	1	5	0.031595	10.7369	-33.6345	8.63095
 475	1	5	0.022689	11.9513	-34.1423	9.80633
 476	1	2	-0.037258	13.7145	-33.6409	7.22632
 477	1	2	0.002978	13.489	-35.1474	7.43808
 478	1	5	0.016721	14.1771	-35.5063	8.2147
 479	1	5	-0.000468	13.6771	-35.7265	6.52462
 480	1	5	0.056924	6.56565	-38.9758	11.8523
 481	1	5	0.029852	11.0072	-35.9427	16.1042
 482	1	5	0.043077	9.87718	-41.4037	11.2945
 483	1	5	0.016056	11.6512	-40.1993	14.8231
 484	1	5	0.041103	9.80857	-41.5031	13.803
 485	1	5	0.055216	9.05831	-38.8179	11.4473
 486	1	5	0.041749	13.0833	-39.06	13.1003
 487	1	6	0.155314	9.27931	-38.9123	8.39343
 488	1	5	0.049935	10.9884	-37.396	12.5591
 489	1	5	0.098652	12.4115	-40.6142	11.0475
 490	1	5	0.045245	12.2253	-41.5295	12.5724
 491	1	6	0.165622	12.8379	-36.1545	10.5889
 492	1	5	0.050235	8.69407	-33.7002	3.2868
 493	1	6	0.152615	10.9551	-33.4163	5.93722
 494	1	5	0.037653	7.66198	-36.0608	3.22153
 495	1	6	0.137195	8.69615	-37.896	6.11062
 496	1	5	0.010736	7.90012	-32.4764	5.61642
 497	1	5	-0.004925	5.4597	-32.3935	4.87174
 498	1	5	0.039247	6.10885	-34.0839	6.73003
 499	1	5	0.062128	7.72579	-34.8202	6.80437
 500	1	5	0.003131	4.48405	-34.5972	4.61569
 501	1	5	0.00404	6.09612	-36.3764	5.41158
 502	1	5	0.021644	12.2642	-32.0881	7.73735
 503	1	5	0.012129	13.3588	-32.5207	9.06461
 504	1	5	0.009331	13.4357	-33.3684	6.20036
 505	1	5	0.018167	14.7654	-33.3622	7.37607
 506	1	2	-0.164337	6.71014	-39.5583	12.7707
 507	1	5	0.06697	7.03193	-40.5669	12.4831
 508	1	5	0.100055	5.73706	-39.6465	13.2694
 509	1	2	0.054914	11.1249	-36.4544	15.141
 510	1	5	0.026242	12.0541	-37.0362	15.1828
 511	1	5	-0.001285	11.2406	-35.6882	14.3644
 512	1	1	0.066869	-3.78514	-35.0224	25.7435
 513	1	1	0.053974	-4.25188	-35.9673	24.8508
 514	1	1	-0.117882	-3.43278	-36.8843	24.1642
 515	1	1	-0.084276	-2.06761	-36.626	24.3729
 516	1	1	-0.157972	-2.42605	-34.8738	26.0798
 517	1	2	0.004935	0.25946	-37.2717	23.1202
 518	1	1	-0.170374	-1.60098	-35.6961	25.2893
 519	1	3	0.154019	-0.217962	-36.3238	25.3655
 520	1	3	0.051574	-0.748629	-37.3884	24.3108
 521	1	3	0.007409	-0.130804	-35.9115	22.4746
 522	1	2	0.007138	1.02372	-35.6993	24.6702
 523	1	1	-0.211215	1.60646	-35.5876	20.3758
 524	1	3	-0.023783	0.377122	-34.8537	23.5425
 525	1	2	-0.253384	1.56236	-36.9358	23.9026
 526	1	1	-0.027691	1.32023	-34.3683	22.4672
 527	1	1	-0.014027	0.874628	-35.2657	21.5282
 528	1	1	-0.211541	2.57719	-33.7625	22.4065
 529	1	1	-0.003037	3.27658	-33.956	21.2002
 530	1	4	-0.005095	2.79199	-34.8253	20.1887
 531	1	2	0.078204	4.66806	-33.4131	20.8611
 532	1	3	-0.018845	7.00202	-35.3893	16.5703
 533	1	4	0.006574	3.79955	-34.8806	19.1129
 534	1	1	0.013723	4.91006	-34.0864	19.5075
 535	1	1	-0.173541	6.10157	-34.0462	18.753
 536	1	1	-0.072264	6.04528	-34.7454	17.5462
 537	1	1	-0.030211	4.96098	-35.4763	17.1253
 538	1	3	0.009457	5.75542	-36.2368	16.0697
 539	1	1	-0.176921	3.81149	-35.6395	17.9103
 540	1	2	0.038799	7.3985	-34.5701	15.3244
 541	1	2	0.012799	8.03375	-35.5092	14.2666
 542	1	2	-0.181835	6.03768	-34.3115	14.6372
 543	1	2	-0.004967	6.80174	-36.3461	13.7284
 544	1	2	0.05243	5.61814	-35.7989	14.5867
 545	1	2	-0.049676	4.6877	-31.8718	20.7824
 546	1	2	-0.040251	5.0478	-31.3809	22.196
 547	1	5	0.031595	5.46994	-31.5469	20.0842
 548	1	5	0.022689	3.73238	-31.4582	20.4336
 549	1	2	-0.037258	5.83225	-32.5275	22.8672
 550	1	2	0.002978	5.71329	-33.764	21.9473
 551	1	5	0.016721	5.43534	-34.6646	22.5102
 552	1	5	-0.000468	6.69094	-33.9547	21.4874
 553	1	5	0.056924	-3.86277	-39.0047	24.0574
 554	1	5	0.029852	-1.42464	-34.6771	27.9919
 555	1	5	0.043077	0.311588	-38.1332	22.4421
 556	1	5	0.016056	0.0548598	-36.7288	26.3463
 557	1	5	0.041103	-0.795015	-38.422	24.6704
 558	1	5	0.055216	-1.17203	-35.8443	22.1407
 559	1	5	0.041749	1.73684	-35.1801	25.3221
 560	1	6	0.155314	1.312	-36.3848	19.7011
 561	1	5	0.049935	-0.336082	-34.0946	23.8791
 562	1	5	0.098652	2.4082	-36.6961	23.246
 563	1	5	0.045245	1.85727	-37.745	24.5827
 564	1	6	0.165622	3.00011	-33.2161	23.2416
 565	1	5	0.050235	7.84428	-35.92	17.0285
 566	1	6	0.152615	7.00606	-33.5583	19.1034
 567	1	5	0.037653	5.78468	-37.3249	16.1935
 568	1	6	0.137195	3.02238	-36.3383	17.6525
 569	1	5	0.010736	7.98676	-33.6671	15.53
 570	1	5	-0.004925	8.57334	-34.9976	13.4586
 571	1	5	0.039247	6.14327	-33.8636	13.6388
 572	1	5	0.062128	5.35885	-33.6817	15.2269
 573	1	5	0.003131	6.67251	-36.2441	12.6428
 574	1	5	0.00404	4.63044	-35.9757	14.143
 575	1	5	0.021644	5.63277	-30.4529	22.1628
 576	1	5	0.012129	4.13078	-31.1767	22.7634
 577	1	5	0.009331	6.88686	-32.2522	22.9963
 578	1	5	0.018167	5.41813	-32.7339	23.8614
 579	1	2	-0.164337	-3.95244	-38.1077	23.4326
 580	1	5	0.06697	-5.00874	-37.9893	23.1605
 581	1	5	0.100055	-3.38599	-38.2809	22.5092
 582	1	2	0.054914	-1.92025	-34.0437	27.246
 583	1	5	0.026242	-1.1954	-33.2942	26.9043
 584	1	5	-0.001285	-2.7412	-33.514	27.7454
 585	1	1	0.066869	2.11604	-47.3705	30.4666
 586	1	1	0.053974	1.66366	-47.4221	29.1609
 587	1	1	-0.117882	0.874525	-46.4294	28.5639
 588	1	1	-0.084276	0.466109	-45.4342	29.4624
 589	1	1	-0.157972	1.80973	-46.2994	31.3336
 590	1	2	0.004935	-0.917974	-43.1402	29.2601
 591	1	1	-0.170374	0.90035	-45.3645	30.7894
 592	1	3	0.154019	0.906132	-43.8334	30.7888
 593	1	3	0.051574	0.415081	-43.9314	29.2941
 594	1	3	0.007409	-1.88214	-44.0602	30.0705
 595	1	2	0.007138	-0.179729	-42.936	31.4596
 596	1	1	-0.211215	-3.9802	-42.4808	29.8332
 597	1	3	-0.023783	-1.40215	-43.8876	31.5597
 598	1	2	-0.253384	-0.548243	-42.0102	30.2617
 599	1	1	-0.027691	-2.74707	-43.2144	31.8135
 600	1	1	-0.014027	-3.17957	-43.4096	30.508
 601	1	1	-0.211541	-3.0447	-42.0319	32.5139
 602	1	1	-0.003037	-3.87014	-41.0909	31.8579
 603	1	4	-0.005095	-4.36691	-41.3323	30.5571
 604	1	2	0.078204	-4.05683	-39.6138	32.2401
 605	1	3	-0.018845	-4.64888	-36.4954	28.1277
 606	1	4	0.006574	-4.88641	-40.0746	30.002
 607	1	1	0.013723	-4.64427	-39.0417	30.9377
 608	1	1	-0.173541	-4.6683	-37.6871	30.5355
 609	1	1	-0.072264	-5.10196	-37.4433	29.2252
 610	1	1	-0.030211	-5.42714	-38.45	28.3357
 611	1	3	0.009457	-5.07265	-37.6265	27.1124
 612	1	1	-0.176921	-5.23927	-39.7979	28.6584
 613	1	2	0.038799	-5.56545	-35.3177	27.7417
 614	1	2	0.012799	-5.15912	-34.753	26.3451
 615	1	2	-0.181835	-6.8795	-36.0342	27.3567
 616	1	2	-0.004967	-5.68079	-35.872	25.345
 617	1	2	0.05243	-6.22934	-36.9653	26.3092
 618	1	2	-0.049676	-5.00643	-39.4124	33.4366
 619	1	2	-0.040251	-4.64322	-38.0335	34.0136
 620	1	5	0.031595	-6.06386	-39.4764	33.1487
 621	1	5	0.022689	-4.81308	-40.1822	34.1953
 622	1	2	-0.037258	-3.14754	-37.8221	33.7011
 623	1	2	0.002978	-2.75094	-38.887	32.6545
 624	1	5	0.016721	-2.04501	-39.5838	33.1206
 625	1	5	-0.000468	-2.23745	-38.4394	31.7937
 626	1	5	0.056924	1.47305	-45.5025	26.6919
 627	1	5	0.029852	1.85046	-46.0674	33.486
 628	1	5	0.043077	-1.26507	-42.8206	28.2695
 629	1	5	0.016056	1.89551	-43.3825	30.9253
 630	1	5	0.041103	1.10862	-43.5297	28.547
 631	1	5	0.055216	-2.00094	-45.076	29.6779
 632	1	5	0.041749	0.117912	-42.4317	32.3874
 633	1	6	0.155314	-4.1096	-42.5319	28.7574
 634	1	5	0.049935	-1.22261	-44.7942	32.1485
 635	1	5	0.098652	-1.38165	-41.3288	30.4692