pySIMM System Object

3134 atoms
3646 bonds
7560 angles
13950 dihedrals
252 impropers

6 atom types
11 bond types
24 angle types
21 dihedral types
2 improper types

-204.550781 204.550781 xlo xhi
-204.550781 204.550781 ylo yhi
-204.550781 204.550781 zlo zhi

Masses

   1	12.01	# ca
   2	12.01	# c3
   3	12.01	# cy
   4	12.01	# cp
   5	1.008	# hc
   6	1.008	# ha

Pair Coeffs

   1	0.086	3.3996695084235347	# ca
   2	0.1094	3.3996695084235347	# c3
   3	0.086	3.3996695084235347	# cy
   4	0.086	3.3996695084235347	# cp
   5	0.0157	2.649532787749369	# hc
   6	0.015	2.59964245953351	# ha

Bond Coeffs

   1	321.2	1.5154	# ca,cy
   2	461.1	1.3984	# ca,ca
   3	305.9	1.5319	# c3,cy
   4	351.4	1.4854	# cp,cp
   5	345.8	1.086	# ca,ha
   6	300.9	1.5375	# c3,c3
   7	450.2	1.4058	# ca,cp
   8	285.0	1.5562	# cy,cy
   9	321.0	1.5156	# c3,ca
  10	330.6	1.0969	# c3,hc
  11	333.3	1.0949	# cy,hc

Angle Coeffs

   1	67.9	96.03	# cy,c3,cy
   2	61.4	116.81	# ca,cy,cy
   3	63.15	112.07	# c3,c3,ca
   4	45.97	114.53	# ca,cy,hc
   5	66.26	120.69	# ca,ca,cp
   6	46.34	109.8	# c3,c3,hc
   7	48.18	119.88	# ca,ca,ha
   8	62.73	112.39	# c3,c3,cy
   9	46.29	110.75	# cy,c3,hc
  10	44.83	114.79	# cy,cy,hc
  11	46.8	110.47	# ca,c3,hc
  12	66.72	118.38	# ca,cp,ca
  13	62.86	111.51	# c3,c3,c3
  14	46.43	110.14	# c3,cy,hc
  15	60.66	118.7	# c3,cy,cy
  16	63.43	120.63	# c3,ca,cp
  17	63.56	112.24	# ca,c3,ca
  18	64.05	121.11	# ca,cp,cp
  19	66.62	120.02	# ca,ca,ca
  20	39.4	107.58	# hc,c3,hc
  21	47.98	119.86	# cp,ca,ha
  22	63.53	120.77	# c3,ca,ca
  23	63.51	120.86	# ca,ca,cy
  24	62.8	113.57	# c3,cy,ca

Dihedral Coeffs

   1	1	0.16	3	0	# hc,c3,c3,c3
   2	1	0.0	2	0.0	# ca,ca,cy,cy
   3	1	1.0	2	180	# X,cp,cp,X
   4	1	0.0	2	0.0	# ca,ca,cy,c3
   5	3	0.38	3	180.0	0.0	2	0.0	1.15	1	0.0	# ca,ca,cy,hc
   6	1	0.0	2	0	# X,c3,ca,X
   7	1	0.16	3	0.0	# cy,c3,cy,ca
   8	1	0.15555555555555556	3	0	# X,c3,c3,X
   9	1	0.16	3	0.0	# c3,c3,cy,ca
  10	1	0.16	3	0.0	# hc,c3,cy,ca
  11	3	0.18	3	0.0	0.25	2	180.0	0.2	1	180.0	# cy,c3,cy,cy
  12	1	0.15	3	0	# hc,c3,c3,hc
  13	3	0.18	3	0.0	0.25	2	180.0	0.2	1	180.0	# c3,c3,cy,cy
  14	1	0.16	3	0.0	# hc,c3,cy,cy
  15	1	0.16	3	0.0	# cy,c3,cy,hc
  16	1	0.16	3	0.0	# c3,c3,cy,hc
  17	1	0.15	3	0.0	# hc,c3,cy,hc
  18	1	3.625	2	180	# X,ca,ca,X
  19	1	0.15555555555555556	3	0	# X,cy,cy,X
  20	1	3.625	2	180	# X,ca,cp,X
  21	3	0.18	3	0	0.25	2	180	0.2	1	180	# c3,c3,c3,c3

Improper Coeffs

   1	1.1	-1	2	# ca,ca,ca,c3
   2	1.1	-1	2	# ca,X,X,ha

Atoms

   1	1	1	0.066869	28.7895	30.5367	-39.2187
   2	1	1	0.053974	28.8552	30.9573	-37.9081
   3	1	1	-0.117882	30.0121	30.906	-37.1092
   4	1	1	-0.084276	31.1026	30.4001	-37.8381
   5	1	1	-0.157972	29.8572	29.9481	-39.9214
   6	1	2	0.004935	32.8271	28.5969	-36.7893
   7	1	1	-0.170374	31.0313	29.9432	-39.1426
   8	1	3	0.154019	32.438	29.3553	-39.1225
   9	1	3	0.051574	32.5124	29.8779	-37.6191
  10	1	3	0.007409	31.4899	27.8056	-36.8612
  11	1	2	0.007138	32.7421	27.8299	-38.9951
  12	1	1	-0.211215	32.0569	25.5948	-35.3923
  13	1	3	-0.023783	31.44	27.2764	-38.3566
  14	1	2	-0.253384	33.7393	27.8413	-37.799
  15	1	1	-0.027691	31.5234	25.8852	-37.7549
  16	1	1	-0.014027	31.5547	26.3462	-36.4594
  17	1	1	-0.211541	32.0096	24.6253	-38.1294
  18	1	1	-0.003037	32.394	23.7912	-37.0547
  19	1	4	-0.005095	32.4108	24.2633	-35.7186
  20	1	2	0.078204	32.9061	22.3475	-37.1364
  21	1	3	-0.018845	33.6864	19.8719	-32.5307
  22	1	4	0.006574	32.9252	23.1955	-34.8515
  23	1	1	0.013723	33.2018	22.061	-35.6564
  24	1	1	-0.173541	33.5742	20.8228	-35.0858
  25	1	1	-0.072264	33.7469	20.8433	-33.6961
  26	1	1	-0.030211	33.4823	21.9436	-32.9152
  27	1	3	0.009457	33.3889	21.1418	-31.6278
  28	1	1	-0.176921	33.0033	23.1502	-33.4369
  29	1	2	0.038799	32.4299	18.9933	-32.3109
  30	1	2	0.012799	31.1531	19.6103	-32.9453
  31	1	2	-0.181835	32.152	19.2837	-30.8218
  32	1	2	-0.004967	30.8637	20.844	-32.0486
  33	1	2	0.05243	32.0104	20.8084	-31.0046
  34	1	2	-0.049676	31.8558	21.3714	-37.7334
  35	1	2	-0.040251	32.5255	20.6778	-38.9353
  36	1	5	0.031595	31.5573	20.6207	-36.9907
  37	1	5	0.022689	30.9441	21.8919	-38.0525
  38	1	2	-0.037258	34.0369	20.8469	-38.7205
  39	1	2	0.002978	34.1761	22.2019	-38.0099
  40	1	5	0.016721	34.2098	22.9963	-38.7664
  41	1	5	-0.000468	35.1015	22.2623	-37.4224
  42	1	5	0.056924	31.0725	31.7439	-35.4163
  43	1	5	0.029852	29.0585	28.4988	-41.3167
  44	1	5	0.043077	33.2406	28.7588	-35.7859
  45	1	5	0.016056	33.1513	29.8374	-39.8001
  46	1	5	0.041103	33.272	30.6485	-37.45
  47	1	5	0.055216	30.613	28.3291	-36.4684
  48	1	5	0.041749	33.0843	27.3271	-39.9082
  49	1	6	0.155314	32.1989	26.0126	-34.4011
  50	1	5	0.049935	30.528	27.4559	-38.9346
  51	1	5	0.098652	34.0157	26.8343	-37.4578
  52	1	5	0.045245	34.6583	28.3979	-38.0276
  53	1	6	0.165622	32.1136	24.3282	-39.1682
  54	1	5	0.050235	34.6139	19.3414	-32.2883
  55	1	6	0.152615	33.6532	19.9098	-35.6677
  56	1	5	0.037653	34.1484	21.3535	-30.867
  57	1	6	0.137195	32.6471	23.9594	-32.8074
  58	1	5	0.010736	32.5696	17.9312	-32.5485
  59	1	5	-0.004925	30.3246	18.8946	-32.8874
  60	1	5	0.039247	32.9913	19.0077	-30.1685
  61	1	5	0.062128	31.2322	18.8069	-30.454
  62	1	5	0.003131	29.8962	20.7311	-31.5466
  63	1	5	0.00404	31.7821	21.3572	-30.0823
  64	1	5	0.021644	32.236	19.6225	-39.0183
  65	1	5	0.012129	32.2305	21.1883	-39.8615
  66	1	5	0.009331	34.41	20.0464	-38.0687
  67	1	5	0.018167	34.5965	20.8137	-39.664
  68	1	2	-0.164337	30.0879	31.3222	-35.6524
  69	1	5	0.06697	29.3367	32.087	-35.4203
  70	1	5	0.100055	29.9232	30.4667	-34.987
  71	1	2	0.054914	29.7408	29.3578	-41.3138
  72	1	5	0.026242	29.353	30.1005	-42.0219
  73	1	5	-0.001285	30.7153	29.0154	-41.6839
  74	1	1	0.066869	16.3459	25.3368	-32.6736
  75	1	1	0.053974	17.2428	25.6391	-31.6688
  76	1	1	-0.117882	17.7856	26.9246	-31.4608
  77	1	1	-0.084276	17.1815	27.8948	-32.2892
  78	1	1	-0.157972	15.8795	26.2681	-33.6136
  79	1	2	0.004935	18.7232	29.7861	-33.5822
  80	1	1	-0.170374	16.2877	27.5745	-33.2997
  81	1	3	0.154019	16.4582	28.8998	-34.0092
  82	1	3	0.051574	17.4388	29.3087	-32.8281
  83	1	3	0.007409	19.3571	28.4544	-34.0347
  84	1	2	0.007138	17.321	29.0546	-35.2965
  85	1	1	-0.211215	21.5037	29.3628	-35.4529
  86	1	3	-0.023783	18.3868	27.9137	-35.1663
  87	1	2	-0.253384	18.1109	30.3352	-34.9049
  88	1	1	-0.027691	19.5957	27.9956	-36.0803
  89	1	1	-0.014027	20.4176	28.5376	-35.121
  90	1	1	-0.211541	19.8498	28.0665	-37.4529
  91	1	1	-0.003037	21.0363	28.7405	-37.8059
  92	1	4	-0.005095	21.8215	29.4144	-36.8367
  93	1	2	0.078204	21.5549	28.9909	-39.227
  94	1	3	-0.018845	25.4375	32.547	-39.7934
  95	1	4	0.006574	22.8441	30.2025	-37.5483
  96	1	1	0.013723	22.7323	29.9266	-38.9391
  97	1	1	-0.173541	23.5493	30.5621	-39.9019
  98	1	1	-0.072264	24.4582	31.4754	-39.3643
  99	1	1	-0.030211	24.5184	31.804	-38.0366
 100	1	3	0.009457	25.488	32.9569	-38.2534
 101	1	1	-0.176921	23.7269	31.1998	-37.0534
 102	1	2	0.038799	26.9071	32.1618	-40.0976
 103	1	2	0.012799	27.3103	30.8467	-39.3571
 104	1	2	-0.181835	27.6094	33.2473	-39.2488
 105	1	2	-0.004967	27.3809	31.3053	-37.839
 106	1	2	0.05243	26.9885	32.8054	-37.9027
 107	1	2	-0.049676	21.9705	27.6749	-39.9282
 108	1	2	-0.040251	20.8279	27.346	-40.9032
 109	1	5	0.031595	22.8943	27.8295	-40.5005
 110	1	5	0.022689	22.1501	26.8578	-39.2172
 111	1	2	-0.037258	20.3044	28.7171	-41.3556
 112	1	2	0.002978	20.4855	29.649	-40.1421
 113	1	5	0.016721	19.5346	29.7571	-39.6084
 114	1	5	-0.000468	20.7814	30.6534	-40.4711
 115	1	5	0.056924	19.867	26.6878	-30.9069
 116	1	5	0.029852	14.4766	25.0438	-34.7199
 117	1	5	0.043077	19.3825	30.4699	-33.033
 118	1	5	0.016056	15.5525	29.5135	-34.071
 119	1	5	0.041103	17.0512	30.1127	-32.1934
 120	1	5	0.055216	19.619	27.7751	-33.2198
 121	1	5	0.041749	16.7587	29.1018	-36.2344
 122	1	6	0.155314	22.0253	29.9629	-34.7142
 123	1	5	0.049935	17.9861	26.903	-35.0631
 124	1	5	0.098652	18.8665	30.617	-35.651
 125	1	5	0.045245	17.4532	31.1973	-34.7304
 126	1	6	0.165622	19.1708	27.6683	-38.1961
 127	1	5	0.050235	25.0576	33.3094	-40.4824
 128	1	6	0.152615	23.4414	30.3984	-40.9697
 129	1	5	0.037653	25.1086	33.9587	-38.028
 130	1	6	0.137195	23.749	31.494	-36.0099
 131	1	5	0.010736	27.1749	32.1731	-41.1615
 132	1	5	-0.004925	26.6798	29.967	-39.5404
 133	1	5	0.039247	27.3131	34.2663	-39.535
 134	1	5	0.062128	28.7056	33.1902	-39.2731
 135	1	5	0.003131	26.7971	30.6787	-37.1551
 136	1	5	0.00404	27.3248	33.3887	-37.0367
 137	1	5	0.021644	21.1653	26.7316	-41.7474
 138	1	5	0.012129	20.0347	26.8015	-40.3754
 139	1	5	0.009331	20.9176	29.0829	-42.1894
 140	1	5	0.018167	19.2623	28.6735	-41.6934
 141	1	2	-0.164337	18.966	27.2001	-30.5472
 142	1	5	0.06697	19.187	28.2733	-30.4936
 143	1	5	0.100055	18.7622	26.8476	-29.5287
 144	1	2	0.054914	15.1504	25.8928	-34.8883
 145	1	5	0.026242	14.5484	26.7302	-35.2621
 146	1	5	-0.001285	15.8639	25.6134	-35.6712
 147	1	1	0.066869	27.0756	26.8512	-35.0114
 148	1	1	0.053974	27.3572	26.5234	-33.6928
 149	1	1	-0.117882	28.0804	25.3811	-33.3145
 150	1	1	-0.084276	28.6312	24.7003	-34.4112
 151	1	1	-0.157972	27.5139	26.0813	-36.1085
 152	1	2	0.004935	28.0244	22.075	-34.4722
 153	1	1	-0.170374	28.3711	25.0232	-35.7356
 154	1	3	0.154019	28.7775	23.6344	-36.2562
 155	1	3	0.051574	29.0	23.2662	-34.7303
 156	1	3	0.007409	26.6085	22.7262	-34.6116
 157	1	2	0.007138	27.8103	22.5076	-36.7522
 158	1	1	-0.211215	24.2822	21.5461	-33.9718
 159	1	3	-0.023783	26.4595	22.9603	-36.1662
 160	1	2	-0.253384	28.203	21.3231	-35.8194
 161	1	1	-0.027691	25.3424	21.935	-36.1148
 162	1	1	-0.014027	25.4247	21.7877	-34.7456
 163	1	1	-0.211541	24.1707	21.7131	-36.8501
 164	1	1	-0.003037	23.0636	21.2558	-36.103
 165	1	4	-0.005095	23.107	21.219	-34.6897
 166	1	2	0.078204	21.6378	21.0145	-36.6185
 167	1	3	-0.018845	17.833	21.7834	-33.1832
 168	1	4	0.006574	21.7348	21.0566	-34.1889
 169	1	1	0.013723	20.8649	20.9107	-35.2955
 170	1	1	-0.173541	19.4619	20.9152	-35.1385
 171	1	1	-0.072264	18.9907	21.0321	-33.823
 172	1	1	-0.030211	19.8419	21.259	-32.756
 173	1	3	0.009457	18.8222	22.0766	-31.9863
 174	1	1	-0.176921	21.2336	21.3198	-32.8923
 175	1	2	0.038799	17.488	23.2017	-33.6895
 176	1	2	0.012799	16.5881	23.8454	-32.5959
 177	1	2	-0.181835	18.8252	23.9582	-33.5005
 178	1	2	-0.004967	17.6112	24.1809	-31.4314
 179	1	2	0.05243	18.9499	23.6241	-31.9955
 180	1	2	-0.049676	21.1282	22.1704	-37.5259
 181	1	2	-0.040251	21.0081	21.583	-38.942
 182	1	5	0.031595	20.1397	22.5148	-37.1997
 183	1	5	0.022689	21.7912	23.0448	-37.509
 184	1	2	-0.037258	20.7364	20.0874	-38.7238
 185	1	2	0.002978	21.5388	19.7201	-37.4645
 186	1	5	0.016721	22.5418	19.3878	-37.7631
 187	1	5	-0.000468	21.0665	18.8954	-36.9149
 188	1	5	0.056924	28.7503	23.9699	-31.8039
 189	1	5	0.029852	27.385	25.537	-38.2094
 190	1	5	0.043077	28.2044	21.4917	-33.561
 191	1	5	0.016056	29.6899	23.6273	-36.8546
 192	1	5	0.041103	30.03	22.9865	-34.4905
 193	1	5	0.055216	26.4094	23.552	-33.9278
 194	1	5	0.041749	27.8219	22.3001	-37.8294
 195	1	6	0.155314	24.263	21.7086	-32.9001
 196	1	5	0.049935	26.1197	23.9298	-36.5303
 197	1	5	0.098652	27.5371	20.4553	-35.9178
 198	1	5	0.045245	29.2383	20.9922	-35.9772
 199	1	6	0.165622	24.0908	21.9768	-37.9
 200	1	5	0.050235	16.9476	21.1835	-32.9473
 201	1	6	0.152615	18.7936	20.9537	-35.9901
 202	1	5	0.037653	18.5238	21.6809	-31.0193
 203	1	6	0.137195	21.8755	21.6738	-32.0916
 204	1	5	0.010736	17.0674	23.2535	-34.6988
 205	1	5	-0.004925	15.7209	23.2531	-32.276
 206	1	5	0.039247	18.7615	25.0328	-33.7096
 207	1	5	0.062128	19.6486	23.5589	-34.1051
 208	1	5	0.003131	17.3117	23.7972	-30.4512
 209	1	5	0.00404	19.847	24.0247	-31.5073
 210	1	5	0.021644	20.2189	22.0697	-39.5288
 211	1	5	0.012129	21.9601	21.7087	-39.474
 212	1	5	0.009331	19.668	19.9275	-38.5333
 213	1	5	0.018167	21.027	19.482	-39.5918
 214	1	2	-0.164337	28.0392	24.7985	-31.912
 215	1	5	0.06697	28.297	25.5601	-31.1659
 216	1	5	0.100055	27.0386	24.418	-31.6729
 217	1	2	0.054914	26.9724	26.2789	-37.5144
 218	1	5	0.026242	25.879	26.1901	-37.5331
 219	1	5	-0.001285	27.2347	27.2745	-37.8939
 220	1	1	0.066869	22.6772	36.5386	-24.4538
 221	1	1	0.053974	23.7989	35.924	-23.9276
 222	1	1	-0.117882	25.1124	36.1835	-24.345
 223	1	1	-0.084276	25.1769	37.2577	-25.2465
 224	1	1	-0.157972	22.7389	37.4883	-25.4952
 225	1	2	0.004935	26.6148	36.8171	-27.4875
 226	1	1	-0.170374	24.0636	37.8759	-25.798
 227	1	3	0.154019	24.8609	38.4979	-26.9534
 228	1	3	0.051574	26.1131	37.7407	-26.3358
 229	1	3	0.007409	25.473	35.7603	-27.6258
 230	1	2	0.007138	24.8486	38.0109	-28.4409
 231	1	1	-0.211215	26.2805	33.9745	-29.5315
 232	1	3	-0.023783	24.2984	36.5732	-28.3186
 233	1	2	-0.253384	26.367	37.7701	-28.6915
 234	1	1	-0.027691	24.5023	35.6489	-29.5072
 235	1	1	-0.014027	25.4781	34.9159	-28.883
 236	1	1	-0.211541	24.3083	35.6298	-30.8953
 237	1	1	-0.003037	25.0587	34.6441	-31.5813
 238	1	4	-0.005095	25.9807	33.8052	-30.9061
 239	1	2	0.078204	25.0843	34.3701	-33.0913
 240	1	3	-0.018845	27.0237	29.7401	-34.475
 241	1	4	0.006574	26.5612	32.8692	-31.8769
 242	1	1	0.013723	26.0587	33.1795	-33.1627
 243	1	1	-0.173541	26.2759	32.316	-34.2604
 244	1	1	-0.072264	27.0784	31.19	-34.015
 245	1	1	-0.030211	27.5004	30.8558	-32.7408
 246	1	3	0.009457	27.4524	29.3616	-33.0041
 247	1	1	-0.176921	27.2244	31.6472	-31.6205
 248	1	2	0.038799	25.6333	29.0845	-34.6214
 249	1	2	0.012799	25.7605	27.5352	-34.6538
 250	1	2	-0.181835	25.0329	29.2562	-33.2061
 251	1	2	-0.004967	26.1109	27.1859	-33.1521
 252	1	2	0.05243	26.2155	28.5797	-32.4752
 253	1	2	-0.049676	23.695	34.0353	-33.6899
 254	1	2	-0.040251	23.6289	34.7083	-35.0793
 255	1	5	0.031595	23.5357	32.9515	-33.761
 256	1	5	0.022689	22.8947	34.4393	-33.0569
 257	1	2	-0.037258	24.9804	35.4144	-35.2998
 258	1	2	0.002978	25.5949	35.5786	-33.9032
 259	1	5	0.016721	25.2256	36.5125	-33.4601
 260	1	5	-0.000468	26.6909	35.6304	-33.9374
 261	1	5	0.056924	27.2318	35.706	-24.3862
 262	1	5	0.029852	21.7902	38.663	-27.0579
 263	1	5	0.043077	27.6327	36.4215	-27.3816
 264	1	5	0.016056	24.9419	39.5897	-26.9131
 265	1	5	0.041103	26.9128	38.408	-25.9964
 266	1	5	0.055216	25.2446	35.1872	-26.7254
 267	1	5	0.041749	24.3364	38.6627	-29.1596
 268	1	6	0.155314	27.0834	33.4406	-29.0335
 269	1	5	0.049935	23.301	36.5012	-27.8808
 270	1	5	0.098652	26.5767	37.2989	-29.6614
 271	1	5	0.045245	26.953	38.6965	-28.6187
 272	1	6	0.165622	23.6559	36.333	-31.4034
 273	1	5	0.050235	27.7168	29.4656	-35.2771
 274	1	6	0.152615	25.751	32.442	-35.2002
 275	1	5	0.037653	28.4019	28.8288	-32.8833
 276	1	6	0.137195	27.3774	31.2838	-30.6094
 277	1	5	0.010736	25.0158	29.4864	-35.4298
 278	1	5	-0.004925	24.8601	27.0096	-34.9987
 279	1	5	0.039247	24.0836	28.7162	-33.0785
 280	1	5	0.062128	24.8728	30.3003	-32.9111
 281	1	5	0.003131	25.3796	26.503	-32.6994
 282	1	5	0.00404	26.1179	28.5493	-31.3828
 283	1	5	0.021644	23.4309	33.9783	-35.8738
 284	1	5	0.012129	22.8163	35.4461	-35.092
 285	1	5	0.009331	25.6367	34.7808	-35.9059
 286	1	5	0.018167	24.865	36.3764	-35.8151
 287	1	2	-0.164337	26.2898	35.2832	-24.0155
 288	1	5	0.06697	26.3867	35.1497	-22.9309
 289	1	5	0.100055	26.1644	34.2913	-24.467
 290	1	2	0.054914	21.5231	37.9204	-26.2957
 291	1	5	0.026242	21.0638	37.064	-26.8049
 292	1	5	-0.001285	20.7654	38.3686	-25.6412
 293	1	1	0.066869	20.6874	27.6435	-13.0317
 294	1	1	0.053974	22.025	27.9294	-13.2236
 295	1	1	-0.117882	22.6608	29.099	-12.7778
 296	1	1	-0.084276	21.7996	29.9061	-12.0122
 297	1	1	-0.157972	19.7839	28.554	-12.4482
 298	1	2	0.004935	21.7708	32.5445	-12.6254
 299	1	1	-0.170374	20.4386	29.6685	-11.8824
 300	1	3	0.154019	20.1244	31.1029	-11.4497
 301	1	3	0.051574	21.6834	31.3672	-11.6095
 302	1	3	0.007409	21.3328	31.8775	-13.9599
 303	1	2	0.007138	19.475	32.1977	-12.3624
 304	1	1	-0.211215	21.5836	33.6349	-16.0442
 305	1	3	-0.023783	19.7637	31.675	-13.7928
 306	1	2	-0.253384	20.5089	33.3513	-12.204
 307	1	1	-0.027691	19.6333	32.6662	-14.9421
 308	1	1	-0.014027	20.9839	32.8142	-15.0905
 309	1	1	-0.211541	18.6885	33.3782	-15.6936
 310	1	1	-0.003037	19.2537	34.2201	-16.6861
 311	1	4	-0.005095	20.6584	34.3278	-16.8639
 312	1	2	0.078204	18.5121	35.0885	-17.7165
 313	1	3	-0.018845	21.3424	36.6471	-21.8199
 314	1	4	0.006574	20.9219	35.1999	-18.0127
 315	1	1	0.013723	19.6883	35.6609	-18.5275
 316	1	1	-0.173541	19.6218	36.3521	-19.7599
 317	1	1	-0.072264	20.853	36.639	-20.3753
 318	1	1	-0.030211	22.0471	36.1378	-19.8883
 319	1	3	0.009457	22.6827	36.0283	-21.258
 320	1	1	-0.176921	22.1281	35.3598	-18.7298
 321	1	2	0.038799	20.8202	35.5463	-22.7747
 322	1	2	0.012799	21.7429	35.4105	-24.0268
 323	1	2	-0.181835	21.2221	34.2491	-22.0326
 324	1	2	-0.004967	23.0377	34.7227	-23.4222
 325	1	2	0.05243	22.7182	34.6168	-21.909
 326	1	2	-0.049676	17.5335	34.2589	-18.5909
 327	1	2	-0.040251	16.2194	35.0564	-18.6402
 328	1	5	0.031595	17.9269	34.0664	-19.5974
 329	1	5	0.022689	17.34	33.2838	-18.1257
 330	1	2	-0.037258	16.193	35.8436	-17.3225
 331	1	2	0.002978	17.6639	36.2026	-17.0516
 332	1	5	0.016721	17.8638	36.2962	-15.9762
 333	1	5	-0.000468	17.8857	37.1728	-17.5153
 334	1	5	0.056924	24.1027	29.6334	-14.3067
 335	1	5	0.029852	17.7639	29.1585	-11.928
 336	1	5	0.043077	22.7185	33.097	-12.6472
 337	1	5	0.016056	19.7631	31.2011	-10.42
 338	1	5	0.041103	22.187	31.628	-10.6723
 339	1	5	0.055216	21.9422	31.0349	-14.2889
 340	1	5	0.041749	18.4301	32.4513	-12.1443
 341	1	6	0.155314	22.6592	33.72	-16.1589
 342	1	5	0.049935	19.3441	30.6893	-14.0097
 343	1	5	0.098652	20.3056	34.2061	-12.8636
 344	1	5	0.045245	20.5727	33.7145	-11.1692
 345	1	6	0.165622	17.6184	33.274	-15.5443
 346	1	5	0.050235	21.4121	37.6339	-22.2909
 347	1	6	0.152615	18.6764	36.5436	-20.2578
 348	1	5	0.037653	23.6005	36.6097	-21.3977
 349	1	6	0.137195	23.0255	34.8078	-18.47
 350	1	5	0.010736	19.7524	35.6156	-23.0169
 351	1	5	-0.004925	21.3149	34.8276	-24.853
 352	1	5	0.039247	21.0517	33.3441	-22.6332
 353	1	5	0.062128	20.7218	34.1137	-21.0658
 354	1	5	0.003131	23.2811	33.773	-23.9169
 355	1	5	0.00404	23.3282	33.8751	-21.3784
 356	1	5	0.021644	16.2432	35.7558	-19.4862
 357	1	5	0.012129	15.3428	34.4059	-18.7531
 358	1	5	0.009331	15.553	36.733	-17.3828
 359	1	5	0.018167	15.8166	35.1996	-16.517
 360	1	2	-0.164337	24.0531	29.5167	-13.217
 361	1	5	0.06697	24.3463	30.4708	-12.7617
 362	1	5	0.100055	24.7955	28.7639	-12.9246
 363	1	2	0.054914	18.2758	28.4194	-12.5568
 364	1	5	0.026242	17.943	28.5678	-13.5914
 365	1	5	-0.001285	17.9487	27.4222	-12.2372
 366	1	1	0.066869	27.1366	16.0301	-18.4862
 367	1	1	0.053974	27.7913	17.2357	-18.6483
 368	1	1	-0.117882	28.6455	17.8008	-17.682
 369	1	1	-0.084276	28.8552	16.9365	-16.5864
 370	1	1	-0.157972	27.187	15.267	-17.3078
 371	1	2	0.004935	28.7158	17.9907	-14.0628
 372	1	1	-0.170374	28.1451	15.7588	-16.4032
 373	1	3	0.154019	28.4496	15.6815	-14.9149
 374	1	3	0.051574	29.2996	17.008	-15.1245
 375	1	3	0.007409	27.3505	18.3679	-14.6823
 376	1	2	0.007138	27.4226	16.064	-13.7999
 377	1	1	-0.211215	25.9384	20.3202	-13.4236
 378	1	3	-0.023783	26.4646	17.0611	-14.5193
 379	1	2	-0.253384	28.3172	16.9967	-12.9332
 380	1	1	-0.027691	25.5682	17.9167	-13.6351
 381	1	1	-0.014027	26.3567	19.0319	-13.757
 382	1	1	-0.211541	24.2299	17.9732	-13.2209
 383	1	1	-0.003037	23.7906	19.2515	-12.7915
 384	1	4	-0.005095	24.6369	20.3883	-12.8691
 385	1	2	0.078204	22.3685	19.6694	-12.3701
 386	1	3	-0.018845	21.4023	24.8647	-12.3178
 387	1	4	0.006574	23.8659	21.5785	-12.4924
 388	1	1	0.013723	22.5314	21.1917	-12.2233
 389	1	1	-0.173541	21.5157	22.1578	-12.0231
 390	1	1	-0.072264	21.9545	23.4899	-11.9516
 391	1	1	-0.030211	23.2638	23.8547	-12.184
 392	1	3	0.009457	22.9104	25.2685	-12.5841
 393	1	1	-0.176921	24.2528	22.9373	-12.5486
 394	1	2	0.038799	20.743	25.0543	-13.7124
 395	1	2	0.012799	20.6639	26.5653	-14.1042
 396	1	2	-0.181835	21.8754	24.6249	-14.6742
 397	1	2	-0.004967	22.1879	26.9328	-14.3529
 398	1	2	0.05243	22.9299	25.597	-14.0956
 399	1	2	-0.049676	21.3066	19.249	-13.4127
 400	1	2	-0.040251	20.7277	17.8997	-12.9352
 401	1	5	0.031595	20.4953	19.9865	-13.4471
 402	1	5	0.022689	21.7282	19.1778	-14.4239
 403	1	2	-0.037258	21.2309	17.6761	-11.4933
 404	1	2	0.002978	21.9196	18.9841	-11.0639
 405	1	5	0.016721	22.7561	18.8051	-10.3759
 406	1	5	-0.000468	21.1869	19.6177	-10.547
 407	1	5	0.056924	29.7305	19.3906	-18.6747
 408	1	5	0.029852	26.09	13.4771	-17.8456
 409	1	5	0.043077	29.3609	18.8283	-13.7691
 410	1	5	0.016056	29.0465	14.8148	-14.6097
 411	1	5	0.041103	30.3749	16.8717	-14.9676
 412	1	5	0.055216	27.4101	18.8573	-15.6554
 413	1	5	0.041749	26.9447	15.2267	-13.2762
 414	1	6	0.155314	26.5303	21.203	-13.6415
 415	1	5	0.049935	25.9538	16.6496	-15.3938
 416	1	5	0.098652	27.7685	17.4754	-12.1107
 417	1	5	0.045245	29.1866	16.471	-12.5153
 418	1	6	0.165622	23.5673	17.1178	-13.2962
 419	1	5	0.050235	20.8838	25.3976	-11.5131
 420	1	6	0.152615	20.4627	21.8964	-11.9912
 421	1	5	0.037653	23.3394	26.0526	-11.9507
 422	1	6	0.137195	25.2229	23.2494	-12.9209
 423	1	5	0.010736	19.8003	24.5109	-13.8537
 424	1	5	-0.004925	20.0341	26.7874	-14.9758
 425	1	5	0.039247	21.6404	24.8291	-15.7286
 426	1	5	0.062128	22.1539	23.5671	-14.5844
 427	1	5	0.003131	22.3554	27.3757	-15.3435
 428	1	5	0.00404	23.9166	25.5375	-14.5716
 429	1	5	0.021644	19.6307	17.9238	-12.9658
 430	1	5	0.012129	21.0631	17.0816	-13.5855
 431	1	5	0.009331	20.411	17.4131	-10.8129
 432	1	5	0.018167	21.9568	16.8532	-11.4783
 433	1	2	-0.164337	29.1587	19.2281	-17.7527
 434	1	5	0.06697	28.3286	19.9453	-17.741
 435	1	5	0.100055	29.8167	19.4582	-16.9056
 436	1	2	0.054914	26.2096	14.1507	-16.9878
 437	1	5	0.026242	26.5557	13.5515	-16.1365
 438	1	5	-0.001285	25.2216	14.5558	-16.7364
 439	1	1	0.066869	22.3923	18.8323	-29.6581
 440	1	1	0.053974	22.7503	19.9829	-28.9758
 441	1	1	-0.117882	23.9215	20.7098	-29.2701
 442	1	1	-0.084276	24.5605	20.27	-30.4473
 443	1	1	-0.157972	23.0944	18.3191	-30.761
 444	1	2	0.004935	27.2538	19.7694	-30.2881
 445	1	1	-0.170374	24.1543	19.1528	-31.1642
 446	1	3	0.154019	25.5029	18.9812	-31.8526
 447	1	3	0.051574	25.9724	20.2614	-31.0388
 448	1	3	0.007409	26.6754	18.8426	-29.189
 449	1	2	0.007138	26.5412	17.8833	-31.4614
 450	1	1	-0.211215	28.1051	17.8268	-27.1653
 451	1	3	-0.023783	26.18	17.5745	-29.9828
 452	1	2	-0.253384	27.8165	18.7589	-31.3281
 453	1	1	-0.027691	27.1888	16.7873	-29.1734
 454	1	1	-0.014027	27.6393	17.9001	-28.4858
 455	1	1	-0.211541	27.1137	15.5201	-28.5807
 456	1	1	-0.003037	27.6519	15.4068	-27.2818
 457	1	4	-0.005095	28.1779	16.5295	-26.6001
 458	1	2	0.078204	27.5144	14.2038	-26.3397
 459	1	3	-0.018845	27.8615	15.3394	-21.2386
 460	1	4	0.006574	28.4352	16.1468	-25.2009
 461	1	1	0.013723	28.0009	14.8115	-25.0157
 462	1	1	-0.173541	27.8338	14.2744	-23.7199
 463	1	1	-0.072264	28.3048	15.0697	-22.6678
 464	1	1	-0.030211	28.8169	16.3388	-22.8515
 465	1	3	0.009457	28.4923	16.7767	-21.4347
 466	1	1	-0.176921	28.8032	16.9663	-24.1049
 467	1	2	0.038799	26.3557	15.6531	-20.9884
 468	1	2	0.012799	26.1401	16.3037	-19.5901
 469	1	2	-0.181835	26.1209	16.9156	-21.8484
 470	1	2	-0.004967	26.8481	17.7161	-19.7438
 471	1	2	0.05243	27.2897	17.7235	-21.235
 472	1	2	-0.049676	26.0743	13.6427	-26.2277
 473	1	2	-0.040251	26.2049	12.1205	-25.9983
 474	1	5	0.031595	25.5078	14.1279	-25.4222
 475	1	5	0.022689	25.5186	13.8098	-27.158
 476	1	2	-0.037258	27.7013	11.7705	-26.1315
 477	1	2	0.002978	28.3707	12.9976	-26.7731
 478	1	5	0.016721	28.3365	12.8932	-27.8656
 479	1	5	-0.000468	29.4223	13.0989	-26.475
 480	1	5	0.056924	24.7798	21.2348	-27.3485
 481	1	5	0.029852	21.8451	16.8187	-31.6971
 482	1	5	0.043077	27.944	20.5504	-29.9455
 483	1	5	0.016056	25.488	19.1232	-32.9387
 484	1	5	0.041103	26.2138	21.1236	-31.6688
 485	1	5	0.055216	25.9918	19.3393	-28.4986
 486	1	5	0.041749	26.6104	17.0203	-32.1354
 487	1	6	0.155314	28.2569	18.7168	-26.5636
 488	1	5	0.049935	25.1648	17.2114	-29.8272
 489	1	5	0.098652	28.6861	18.1985	-30.9592
 490	1	5	0.045245	28.0791	19.2427	-32.2779
 491	1	6	0.165622	26.5449	14.7164	-29.0371
 492	1	5	0.050235	28.3142	14.6986	-20.4741
 493	1	6	0.152615	27.2943	13.3506	-23.5395
 494	1	5	0.037653	29.3577	17.0305	-20.8127
 495	1	6	0.137195	28.9632	18.0339	-24.2139
 496	1	5	0.010736	25.6685	14.8247	-21.2014
 497	1	5	-0.004925	25.0938	16.3885	-19.268
 498	1	5	0.039247	25.1412	17.3808	-21.668
 499	1	5	0.062128	26.2199	16.7369	-22.9264
 500	1	5	0.003131	26.1869	18.5433	-19.4538
 501	1	5	0.00404	27.4176	18.7287	-21.6558
 502	1	5	0.021644	25.8291	11.8364	-25.007
 503	1	5	0.012129	25.6167	11.5768	-26.7488
 504	1	5	0.009331	28.1291	11.5978	-25.1355
 505	1	5	0.018167	27.8586	10.8634	-26.7288
 506	1	2	-0.164337	24.5375	21.7099	-28.3073
 507	1	5	0.06697	25.4616	22.1395	-28.7136
 508	1	5	0.100055	23.8437	22.5357	-28.1073
 509	1	2	0.054914	22.8658	16.9205	-31.3082
 510	1	5	0.026242	23.5598	16.6931	-32.1268
 511	1	5	-0.001285	23.0056	16.1633	-30.5268
 512	1	1	0.066869	8.28823	27.8329	-28.9408
 513	1	1	0.053974	9.21734	28.6557	-28.3335
 514	1	1	-0.117882	10.5829	28.7042	-28.6768
 515	1	1	-0.084276	10.9268	27.7085	-29.6066
 516	1	1	-0.157972	8.60286	26.9506	-29.9916
 517	1	2	0.004935	13.2263	26.4993	-30.4387
 518	1	1	-0.170374	9.98772	26.908	-30.238
 519	1	3	0.154019	10.9259	26.5396	-31.3742
 520	1	3	0.051574	12.007	27.4581	-30.6564
 521	1	3	0.007409	12.7392	25.5865	-29.2794
 522	1	2	0.007138	11.6149	25.1512	-31.4605
 523	1	1	-0.211215	14.7684	23.7855	-28.8052
 524	1	3	-0.023783	11.6234	24.6988	-29.9761
 525	1	2	-0.253384	13.0856	25.5878	-31.6922
 526	1	1	-0.027691	12.5054	23.5171	-29.6631
 527	1	1	-0.014027	13.4745	24.269	-29.0498
 528	1	1	-0.211541	12.7245	22.2323	-30.16
 529	1	1	-0.003037	13.9641	21.666	-29.8095
 530	1	4	-0.005095	14.9615	22.4131	-29.1289
 531	1	2	0.078204	14.4641	20.2729	-30.1999
 532	1	3	-0.018845	19.5626	19.2683	-29.3817
 533	1	4	0.006574	16.1612	21.5624	-29.0065
 534	1	1	0.013723	15.8903	20.3227	-29.647
 535	1	1	-0.173541	16.8873	19.3403	-29.8205
 536	1	1	-0.072264	18.1089	19.642	-29.2171
 537	1	1	-0.030211	18.3789	20.8224	-28.5675
 538	1	3	0.009457	19.89	20.6286	-28.6308
 539	1	1	-0.176921	17.4471	21.8658	-28.48
 540	1	2	0.038799	20.1245	18.1917	-28.4295
 541	1	2	0.012799	21.6734	18.2252	-28.4671
 542	1	2	-0.181835	19.9005	18.817	-27.0331
 543	1	2	-0.004967	22.0335	19.5636	-27.7012
 544	1	2	0.05243	20.6264	20.1443	-27.353
 545	1	2	-0.049676	13.6089	19.1514	-29.5732
 546	1	2	-0.040251	12.5037	18.8386	-30.5984
 547	1	5	0.031595	14.2239	18.2535	-29.4299
 548	1	5	0.022689	13.1962	19.4359	-28.5964
 549	1	2	-0.037258	13.0521	19.2678	-31.9756
 550	1	2	0.002978	14.3748	20.0262	-31.725
 551	1	5	0.016721	14.4212	20.9616	-32.2977
 552	1	5	-0.000468	15.2089	19.3959	-32.0575
 553	1	5	0.056924	11.6499	30.5552	-29.0339
 554	1	5	0.029852	7.63584	26.5811	-31.8961
 555	1	5	0.043077	14.2034	26.9795	-30.299
 556	1	5	0.016056	10.6082	26.8743	-32.3679
 557	1	5	0.041103	12.3165	28.3449	-31.2199
 558	1	5	0.055216	12.4694	26.1203	-28.3614
 559	1	5	0.041749	11.1946	24.4431	-32.1853
 560	1	6	0.155314	15.5669	24.4162	-28.428
 561	1	5	0.049935	10.6434	24.6544	-29.4922
 562	1	5	0.098652	13.7853	24.7426	-31.6892
 563	1	5	0.045245	13.2068	26.1485	-32.628
 564	1	6	0.165622	12.0056	21.7213	-30.7898
 565	1	5	0.050235	19.8957	19.1497	-30.419
 566	1	6	0.152615	16.7391	18.4495	-30.4234
 567	1	5	0.037653	20.4426	21.4014	-29.1763
 568	1	6	0.137195	17.7068	22.8505	-28.1052
 569	1	5	0.010736	19.6966	17.1894	-28.5568
 570	1	5	-0.004925	22.1663	17.3484	-28.0266
 571	1	5	0.039247	20.3873	18.2475	-26.2285
 572	1	5	0.062128	18.8419	18.945	-26.7723
 573	1	5	0.003131	22.687	19.3845	-26.8371
 574	1	5	0.00404	20.6369	20.8649	-26.5257
 575	1	5	0.021644	12.2314	17.7756	-30.5831
 576	1	5	0.012129	11.6015	19.417	-30.3615
 577	1	5	0.009331	13.2312	18.3925	-32.6132
 578	1	5	0.018167	12.3236	19.9088	-32.487
 579	1	2	-0.164337	11.5299	29.8066	-28.2412
 580	1	5	0.06697	11.1576	30.3194	-27.3455
 581	1	5	0.100055	12.5216	29.4003	-28.0067
 582	1	2	0.054914	7.57181	26.2445	-30.8541
 583	1	5	0.026242	7.73032	25.1589	-30.8398
 584	1	5	-0.001285	6.55229	26.4398	-30.4986
 585	1	1	0.066869	14.7609	33.9437	-40.2901
 586	1	1	0.053974	15.5035	33.9803	-39.1247
 587	1	1	-0.117882	15.0022	33.6284	-37.8634
 588	1	1	-0.084276	13.6238	33.3711	-37.8687
 589	1	1	-0.157972	13.4059	33.55	-40.3143
 590	1	2	0.004935	11.8206	32.5627	-36.0437
 591	1	1	-0.170374	12.851	33.3341	-39.0329
 592	1	3	0.154019	11.9521	32.2182	-38.4948
 593	1	3	0.051574	12.8303	32.277	-37.1867
 594	1	3	0.007409	11.3966	34.0381	-36.32
 595	1	2	0.007138	10.5018	32.4227	-37.9585
 596	1	1	-0.211215	9.72574	34.2126	-34.2805
 597	1	3	-0.023783	10.4779	33.9314	-37.5942
 598	1	2	-0.253384	10.6218	31.7248	-36.5706
 599	1	1	-0.027691	9.33395	34.3746	-36.6889
 600	1	1	-0.014027	10.1584	34.5073	-35.5793
 601	1	1	-0.211541	8.02743	33.8684	-36.5738
 602	1	1	-0.003037	7.56465	33.5852	-35.269
 603	1	4	-0.005095	8.38195	33.8024	-34.1366
 604	1	2	0.078204	6.34807	32.7223	-34.898
 605	1	3	-0.018845	7.08197	29.9558	-30.5691
 606	1	4	0.006574	7.78624	33.1182	-32.9792
 607	1	1	0.013723	6.64557	32.4088	-33.421
 608	1	1	-0.173541	6.11498	31.3508	-32.6488
 609	1	1	-0.072264	6.67143	31.1791	-31.3735
 610	1	1	-0.030211	7.71793	31.9466	-30.8954
 611	1	3	0.009457	8.23348	30.8566	-29.9768
 612	1	1	-0.176921	8.37595	32.87	-31.7157
 613	1	2	0.038799	6.26221	29.5699	-29.3217
 614	1	2	0.012799	7.08831	28.609	-28.4092
 615	1	2	-0.181835	6.33389	30.8593	-28.4726
 616	1	2	-0.004967	8.16435	29.5783	-27.7557
 617	1	2	0.05243	7.87708	30.9354	-28.4633
 618	1	2	-0.049676	5.00692	33.4614	-35.0684
 619	1	2	-0.040251	3.94992	32.3527	-35.207
 620	1	5	0.031595	4.79119	34.1382	-34.2314
 621	1	5	0.022689	5.02746	34.0566	-35.9908
 622	1	2	-0.037258	4.67484	31.1528	-35.8505
 623	1	2	0.002978	6.19058	31.4332	-35.7456
 624	1	5	0.016721	6.586	31.578	-36.7574
 625	1	5	-0.000468	6.73208	30.5839	-35.309
 626	1	5	0.056924	15.9755	32.1439	-36.6123
 627	1	5	0.029852	11.7896	33.8216	-41.7288
 628	1	5	0.043077	12.165	32.3359	-35.0269
 629	1	5	0.016056	12.0114	31.2777	-39.0539
 630	1	5	0.041103	13.3998	31.3677	-36.9652
 631	1	5	0.055216	12.2157	34.7654	-36.3312
 632	1	5	0.041749	9.69292	32.0695	-38.6101
 633	1	6	0.155314	10.4347	34.0964	-33.4677
 634	1	5	0.049935	10.6863	34.6036	-38.4342
 635	1	5	0.098652	9.72352	31.8197	-35.949
 636	1	5	0.045245	10.8656	30.6573	-36.6608
 637	1	6	0.165622	7.4874	33.5275	-37.4508
 638	1	5	0.050235	7.36244	29.0915	-31.1773
 639	1	6	0.152615	5.41586	30.6312	-33.0618
 640	1	5	0.037653	9.27025	30.5633	-30.1647