
Host: node50

Timers On : Mon Dec 12 15:31:41 2022
Timers Off: Mon Dec 12 19:07:59 2022

Wall Time:    12977.28 seconds

                                                       Time (seconds)
Module                                       User      System        Wall        Calls

--------------------------------------------------------------------------------------

**************************************************************************************
