

################################################################################
##################################    Init    ##################################
################################################################################
units           real
atom_style      full
pair_style      lj/cut/coul/long 12.0  12.0
kspace_style    pppm 1e-4
bond_style      harmonic
angle_style     harmonic
dihedral_style  fourier
improper_style  cvff
special_bonds   amber
pair_modify     mix arithmetic
read_data       temp.lmps
  orthogonal box = (-96.8452 -96.8452 -96.8452) to (96.8452 96.8452 96.8452)
  1 by 1 by 1 MPI processor grid
  reading atoms ...
  522 atoms
  reading velocities ...
  522 velocities
  scanning bonds ...
  3 = max bonds/atom
  scanning angles ...
  6 = max angles/atom
  scanning dihedrals ...
  10 = max dihedrals/atom
  scanning impropers ...
  2 = max impropers/atom
  reading bonds ...
  571 bonds
  reading angles ...
  990 angles
  reading dihedrals ...
  1456 dihedrals
  reading impropers ...
  160 impropers
  4 = max # of 1-2 neighbors
  7 = max # of 1-3 neighbors
  20 = max # of 1-4 neighbors
  22 = max # of special neighbors
  special bonds CPU = 0.00103593 secs
  read_data CPU = 0.0162742 secs
################################################################################

min_style cg
minimize 1e-06 1e-06 1000000 10000000
WARNING: Using 'neigh_modify every 1 delay 0 check yes' setting during minimization (../min.cpp:190)
PPPM initialization ...
WARNING: System is not charge neutral, net charge = -3e-05 (../kspace.cpp:313)
  using 12-bit tables for long-range coulomb (../kspace.cpp:332)
  G vector (1/distance) = 0.0884934
  grid = 15 15 15
  stencil order = 5
  estimated absolute RMS force accuracy = 0.0328635
  estimated relative force accuracy = 9.89674e-05
  using double precision KISS FFT
  3d grid and FFT values/proc = 8000 3375
Neighbor list info ...
  update every 1 steps, delay 0 steps, check yes
  max neighbors/atom: 2000, page size: 100000
  master list distance cutoff = 14
  ghost atom cutoff = 14
  binsize = 7, bins = 28 28 28
  1 neighbor lists, perpetual/occasional/extra = 1 0 0
  (1) pair lj/cut/coul/long, perpetual
      attributes: half, newton on
      pair build: half/bin/newton
      stencil: half/bin/3d/newton
      bin: standard
Per MPI rank memory allocation (min/avg/max) = 15.24 | 15.24 | 15.24 Mbytes
Step Temp E_pair E_mol TotEng Press 
       0    297.40571   -74.670896     794.9648    1182.1656   -1.2446954 
      10    297.40571    -74.47071    570.83953     958.2405    2.5017901 
Loop time of 0.349912 on 1 procs for 10 steps with 522 atoms

100.3% CPU use with 1 MPI tasks x no OpenMP threads

Minimization stats:
  Stopping criterion = linesearch alpha is zero
  Energy initial, next-to-last, final = 
         720.293906627      496.368820479      496.368820479
  Force two-norm initial, final = 830.508 30.7825
  Force max component initial, final = 415.109 6.9204
  Final line search alpha, max atom move = 1.26571e-11 8.7592e-11
  Iterations, force evaluations = 10 73

MPI task timing breakdown:
Section |  min time  |  avg time  |  max time  |%varavg| %total
---------------------------------------------------------------
Pair    | 0.13196    | 0.13196    | 0.13196    |   0.0 | 37.71
Bond    | 0.036766   | 0.036766   | 0.036766   |   0.0 | 10.51
Kspace  | 0.17979    | 0.17979    | 0.17979    |   0.0 | 51.38
Neigh   | 0          | 0          | 0          |   0.0 |  0.00
Comm    | 4.1962e-05 | 4.1962e-05 | 4.1962e-05 |   0.0 |  0.01
Output  | 0          | 0          | 0          |   0.0 |  0.00
Modify  | 0          | 0          | 0          |   0.0 |  0.00
Other   |            | 0.001354   |            |       |  0.39

Nlocal:    522 ave 522 max 522 min
Histogram: 1 0 0 0 0 0 0 0 0 0
Nghost:    0 ave 0 max 0 min
Histogram: 1 0 0 0 0 0 0 0 0 0
Neighs:    21749 ave 21749 max 21749 min
Histogram: 1 0 0 0 0 0 0 0 0 0

Total # of neighbors = 21749
Ave neighs/atom = 41.6648
Ave special neighs/atom = 10.8314
Neighbor list builds = 0
Dangerous builds = 0
write_dump all custom pysimm.dump.tmp id q x y z vx vy vz
quit


################################################################################
##################################    Init    ##################################
################################################################################
units           real
atom_style      full
pair_style      lj/cut/coul/long 12.0  12.0
kspace_style    pppm 1e-4
bond_style      harmonic
angle_style     harmonic
dihedral_style  fourier
improper_style  cvff
special_bonds   amber
pair_modify     mix arithmetic
read_data       temp.lmps
  orthogonal box = (-122.017 -122.017 -122.017) to (122.017 122.017 122.017)
  1 by 1 by 1 MPI processor grid
  reading atoms ...
  574 atoms
  reading velocities ...
  574 velocities
  scanning bonds ...
  3 = max bonds/atom
  scanning angles ...
  6 = max angles/atom
  scanning dihedrals ...
  10 = max dihedrals/atom
  scanning impropers ...
  2 = max impropers/atom
  reading bonds ...
  628 bonds
  reading angles ...
  1089 angles
  reading dihedrals ...
  1602 dihedrals
  reading impropers ...
  176 impropers
  4 = max # of 1-2 neighbors
  7 = max # of 1-3 neighbors
  20 = max # of 1-4 neighbors
  22 = max # of special neighbors
  special bonds CPU = 0.000632048 secs
  read_data CPU = 0.00967503 secs
################################################################################

min_style cg
minimize 1e-06 1e-06 1000000 10000000
WARNING: Using 'neigh_modify every 1 delay 0 check yes' setting during minimization (../min.cpp:190)
PPPM initialization ...
WARNING: System is not charge neutral, net charge = -3.3e-05 (../kspace.cpp:313)
  using 12-bit tables for long-range coulomb (../kspace.cpp:332)
  G vector (1/distance) = 0.0738829
  grid = 15 15 15
  stencil order = 5
  estimated absolute RMS force accuracy = 0.0343078
  estimated relative force accuracy = 0.000103317
  using double precision KISS FFT
  3d grid and FFT values/proc = 8000 3375
Neighbor list info ...
  update every 1 steps, delay 0 steps, check yes
  max neighbors/atom: 2000, page size: 100000
  master list distance cutoff = 14
  ghost atom cutoff = 14
  binsize = 7, bins = 35 35 35
  1 neighbor lists, perpetual/occasional/extra = 1 0 0
  (1) pair lj/cut/coul/long, perpetual
      attributes: half, newton on
      pair build: half/bin/newton
      stencil: half/bin/3d/newton
      bin: standard
Per MPI rank memory allocation (min/avg/max) = 15.35 | 15.35 | 15.35 Mbytes
Step Temp E_pair E_mol TotEng Press 
       0    1389.7862   -79.490864    916.93978    3211.2095    3.7914099 
      24    1389.7862   -77.312164    671.79311    2968.2415    6.4699637 
Loop time of 0.280876 on 1 procs for 24 steps with 574 atoms

99.7% CPU use with 1 MPI tasks x no OpenMP threads

Minimization stats:
  Stopping criterion = linesearch alpha is zero
  Energy initial, next-to-last, final = 
         837.448917657      594.480941369      594.480941369
  Force two-norm initial, final = 830.411 37.034
  Force max component initial, final = 406.719 6.54126
  Final line search alpha, max atom move = 6.90646e-12 4.51769e-11
  Iterations, force evaluations = 24 102

MPI task timing breakdown:
Section |  min time  |  avg time  |  max time  |%varavg| %total
---------------------------------------------------------------
Pair    | 0.12384    | 0.12384    | 0.12384    |   0.0 | 44.09
Bond    | 0.028087   | 0.028087   | 0.028087   |   0.0 | 10.00
Kspace  | 0.12773    | 0.12773    | 0.12773    |   0.0 | 45.48
Neigh   | 0          | 0          | 0          |   0.0 |  0.00
Comm    | 2.7657e-05 | 2.7657e-05 | 2.7657e-05 |   0.0 |  0.01
Output  | 0          | 0          | 0          |   0.0 |  0.00
Modify  | 0          | 0          | 0          |   0.0 |  0.00
Other   |            | 0.001182   |            |       |  0.42

Nlocal:    574 ave 574 max 574 min
Histogram: 1 0 0 0 0 0 0 0 0 0
Nghost:    0 ave 0 max 0 min
Histogram: 1 0 0 0 0 0 0 0 0 0
Neighs:    30096 ave 30096 max 30096 min
Histogram: 1 0 0 0 0 0 0 0 0 0

Total # of neighbors = 30096
Ave neighs/atom = 52.4321
Ave special neighs/atom = 10.8362
Neighbor list builds = 0
Dangerous builds = 0
write_dump all custom pysimm.dump.tmp id q x y z vx vy vz
quit


################################################################################
##################################    Init    ##################################
################################################################################
units           real
atom_style      full
pair_style      lj/cut/coul/long 12.0  12.0
kspace_style    pppm 1e-4
bond_style      harmonic
angle_style     harmonic
dihedral_style  fourier
improper_style  cvff
special_bonds   amber
pair_modify     mix arithmetic
read_data       temp.lmps
  orthogonal box = (-125.956 -125.956 -125.956) to (125.956 125.956 125.956)
  1 by 1 by 1 MPI processor grid
  reading atoms ...
  626 atoms
  reading velocities ...
  626 velocities
  scanning bonds ...
  3 = max bonds/atom
  scanning angles ...
  6 = max angles/atom
  scanning dihedrals ...
  10 = max dihedrals/atom
  scanning impropers ...
  2 = max impropers/atom
  reading bonds ...
  685 bonds
  reading angles ...
  1188 angles
  reading dihedrals ...
  1748 dihedrals
  reading impropers ...
  192 impropers
  4 = max # of 1-2 neighbors
  7 = max # of 1-3 neighbors
  20 = max # of 1-4 neighbors
  22 = max # of special neighbors
  special bonds CPU = 0.00126505 secs
  read_data CPU = 0.0171099 secs
################################################################################

min_style cg
minimize 1e-06 1e-06 1000000 10000000
WARNING: Using 'neigh_modify every 1 delay 0 check yes' setting during minimization (../min.cpp:190)
PPPM initialization ...
WARNING: System is not charge neutral, net charge = -3.6e-05 (../kspace.cpp:313)
  using 12-bit tables for long-range coulomb (../kspace.cpp:332)
  G vector (1/distance) = 0.0720081
  grid = 15 15 15
  stencil order = 5
  estimated absolute RMS force accuracy = 0.0355388
  estimated relative force accuracy = 0.000107024
  using double precision KISS FFT
  3d grid and FFT values/proc = 8000 3375
Neighbor list info ...
  update every 1 steps, delay 0 steps, check yes
  max neighbors/atom: 2000, page size: 100000
  master list distance cutoff = 14
  ghost atom cutoff = 14
  binsize = 7, bins = 36 36 36
  1 neighbor lists, perpetual/occasional/extra = 1 0 0
  (1) pair lj/cut/coul/long, perpetual
      attributes: half, newton on
      pair build: half/bin/newton
      stencil: half/bin/3d/newton
      bin: standard
Per MPI rank memory allocation (min/avg/max) = 15.38 | 15.38 | 15.38 Mbytes
Step Temp E_pair E_mol TotEng Press 
       0    1348.7986   -59.598835    979.15293    3432.3744    4.8839254 
       9    1348.7986   -62.990472    753.12935    3202.9592    6.8425416 
Loop time of 0.378431 on 1 procs for 9 steps with 626 atoms

100.1% CPU use with 1 MPI tasks x no OpenMP threads

Minimization stats:
  Stopping criterion = linesearch alpha is zero
  Energy initial, next-to-last, final = 
         919.554094839      690.138875432      690.138875432
  Force two-norm initial, final = 832.447 35.0096
  Force max component initial, final = 399.534 7.77224
  Final line search alpha, max atom move = 9.90045e-12 7.69487e-11
  Iterations, force evaluations = 9 72

MPI task timing breakdown:
Section |  min time  |  avg time  |  max time  |%varavg| %total
---------------------------------------------------------------
Pair    | 0.16921    | 0.16921    | 0.16921    |   0.0 | 44.71
Bond    | 0.040329   | 0.040329   | 0.040329   |   0.0 | 10.66
Kspace  | 0.16741    | 0.16741    | 0.16741    |   0.0 | 44.24
Neigh   | 0          | 0          | 0          |   0.0 |  0.00
Comm    | 5.2214e-05 | 5.2214e-05 | 5.2214e-05 |   0.0 |  0.01
Output  | 0          | 0          | 0          |   0.0 |  0.00
Modify  | 0          | 0          | 0          |   0.0 |  0.00
Other   |            | 0.001427   |            |       |  0.38

Nlocal:    626 ave 626 max 626 min
Histogram: 1 0 0 0 0 0 0 0 0 0
Nghost:    0 ave 0 max 0 min
Histogram: 1 0 0 0 0 0 0 0 0 0
Neighs:    29766 ave 29766 max 29766 min
Histogram: 1 0 0 0 0 0 0 0 0 0

Total # of neighbors = 29766
Ave neighs/atom = 47.5495
Ave special neighs/atom = 10.8403
Neighbor list builds = 0
Dangerous builds = 0
write_dump all custom pysimm.dump.tmp id q x y z vx vy vz
quit


################################################################################
##################################    Init    ##################################
################################################################################
units           real
atom_style      full
pair_style      lj/cut/coul/long 12.0  12.0
kspace_style    pppm 1e-4
bond_style      harmonic
angle_style     harmonic
dihedral_style  fourier
improper_style  cvff
special_bonds   amber
pair_modify     mix arithmetic
read_data       temp.lmps
  orthogonal box = (-129.663 -129.663 -129.663) to (129.663 129.663 129.663)
  1 by 1 by 1 MPI processor grid
  reading atoms ...
  678 atoms
  reading velocities ...
  678 velocities
  scanning bonds ...
  3 = max bonds/atom
  scanning angles ...
  6 = max angles/atom
  scanning dihedrals ...
  10 = max dihedrals/atom
  scanning impropers ...
  2 = max impropers/atom
  reading bonds ...
  742 bonds
  reading angles ...
  1287 angles
  reading dihedrals ...
  1894 dihedrals
  reading impropers ...
  208 impropers
  4 = max # of 1-2 neighbors
  7 = max # of 1-3 neighbors
  20 = max # of 1-4 neighbors
  22 = max # of special neighbors
  special bonds CPU = 0.000699997 secs
  read_data CPU = 0.0108871 secs
################################################################################

min_style cg
minimize 1e-06 1e-06 1000000 10000000
WARNING: Using 'neigh_modify every 1 delay 0 check yes' setting during minimization (../min.cpp:190)
PPPM initialization ...
WARNING: System is not charge neutral, net charge = -3.9e-05 (../kspace.cpp:313)
  using 12-bit tables for long-range coulomb (../kspace.cpp:332)
  G vector (1/distance) = 0.0703273
  grid = 15 15 15
  stencil order = 5
  estimated absolute RMS force accuracy = 0.0366593
  estimated relative force accuracy = 0.000110398
  using double precision KISS FFT
  3d grid and FFT values/proc = 8000 3375
Neighbor list info ...
  update every 1 steps, delay 0 steps, check yes
  max neighbors/atom: 2000, page size: 100000
  master list distance cutoff = 14
  ghost atom cutoff = 14
  binsize = 7, bins = 38 38 38
  1 neighbor lists, perpetual/occasional/extra = 1 0 0
  (1) pair lj/cut/coul/long, perpetual
      attributes: half, newton on
      pair build: half/bin/newton
      stencil: half/bin/3d/newton
      bin: standard
Per MPI rank memory allocation (min/avg/max) = 15.42 | 15.42 | 15.42 Mbytes
Step Temp E_pair E_mol TotEng Press 
       0    1679.9952   -80.523131    1047.2787         4357    5.9982676 
      11    1679.9952   -77.460864    817.69521    4130.4787    7.6288847 
Loop time of 0.330246 on 1 procs for 11 steps with 678 atoms

99.9% CPU use with 1 MPI tasks x no OpenMP threads

Minimization stats:
  Stopping criterion = linesearch alpha is zero
  Energy initial, next-to-last, final = 
         966.755607562      740.234348349      740.234348349
  Force two-norm initial, final = 831.088 53.005
  Force max component initial, final = 321.552 11.9804
  Final line search alpha, max atom move = 3.38299e-12 4.05295e-11
  Iterations, force evaluations = 11 79

MPI task timing breakdown:
Section |  min time  |  avg time  |  max time  |%varavg| %total
---------------------------------------------------------------
Pair    | 0.16035    | 0.16035    | 0.16035    |   0.0 | 48.56
Bond    | 0.033248   | 0.033248   | 0.033248   |   0.0 | 10.07
Kspace  | 0.13552    | 0.13552    | 0.13552    |   0.0 | 41.04
Neigh   | 0          | 0          | 0          |   0.0 |  0.00
Comm    | 3.0518e-05 | 3.0518e-05 | 3.0518e-05 |   0.0 |  0.01
Output  | 0          | 0          | 0          |   0.0 |  0.00
Modify  | 0          | 0          | 0          |   0.0 |  0.00
Other   |            | 0.001092   |            |       |  0.33

Nlocal:    678 ave 678 max 678 min
Histogram: 1 0 0 0 0 0 0 0 0 0
Nghost:    0 ave 0 max 0 min
Histogram: 1 0 0 0 0 0 0 0 0 0
Neighs:    40558 ave 40558 max 40558 min
Histogram: 1 0 0 0 0 0 0 0 0 0

Total # of neighbors = 40558
Ave neighs/atom = 59.8201
Ave special neighs/atom = 10.8437
Neighbor list builds = 0
Dangerous builds = 0
write_dump all custom pysimm.dump.tmp id q x y z vx vy vz
quit


################################################################################
##################################    Init    ##################################
################################################################################
units           real
atom_style      full
pair_style      lj/cut/coul/long 12.0  12.0
kspace_style    pppm 1e-4
bond_style      harmonic
angle_style     harmonic
dihedral_style  fourier
improper_style  cvff
special_bonds   amber
pair_modify     mix arithmetic
read_data       temp.lmps
  orthogonal box = (-133.169 -133.169 -133.169) to (133.169 133.169 133.169)
  1 by 1 by 1 MPI processor grid
  reading atoms ...
  730 atoms
  reading velocities ...
  730 velocities
  scanning bonds ...
  3 = max bonds/atom
  scanning angles ...
  6 = max angles/atom
  scanning dihedrals ...
  10 = max dihedrals/atom
  scanning impropers ...
  2 = max impropers/atom
  reading bonds ...
  799 bonds
  reading angles ...
  1386 angles
  reading dihedrals ...
  2040 dihedrals
  reading impropers ...
  224 impropers
  4 = max # of 1-2 neighbors
  7 = max # of 1-3 neighbors
  20 = max # of 1-4 neighbors
  22 = max # of special neighbors
  special bonds CPU = 0.000729084 secs
  read_data CPU = 0.011642 secs
################################################################################

min_style cg
minimize 1e-06 1e-06 1000000 10000000
WARNING: Using 'neigh_modify every 1 delay 0 check yes' setting during minimization (../min.cpp:190)
PPPM initialization ...
WARNING: System is not charge neutral, net charge = -4.2e-05 (../kspace.cpp:313)
  using 12-bit tables for long-range coulomb (../kspace.cpp:332)
  G vector (1/distance) = 0.072528
  grid = 16 16 16
  stencil order = 5
  estimated absolute RMS force accuracy = 0.0349416
  estimated relative force accuracy = 0.000105226
  using double precision KISS FFT
  3d grid and FFT values/proc = 9261 4096
Neighbor list info ...
  update every 1 steps, delay 0 steps, check yes
  max neighbors/atom: 2000, page size: 100000
  master list distance cutoff = 14
  ghost atom cutoff = 14
  binsize = 7, bins = 39 39 39
  1 neighbor lists, perpetual/occasional/extra = 1 0 0
  (1) pair lj/cut/coul/long, perpetual
      attributes: half, newton on
      pair build: half/bin/newton
      stencil: half/bin/3d/newton
      bin: standard
Per MPI rank memory allocation (min/avg/max) = 15.56 | 15.56 | 15.56 Mbytes
Step Temp E_pair E_mol TotEng Press 
       0    1444.3492   -106.98351     1178.725    4210.3276    4.9479265 
       9    1444.3492    -108.1923    948.50775    3978.9016      6.45046 
Loop time of 0.268712 on 1 procs for 9 steps with 730 atoms

99.3% CPU use with 1 MPI tasks x no OpenMP threads

Minimization stats:
  Stopping criterion = linesearch alpha is zero
  Energy initial, next-to-last, final = 
         1071.74150549      840.315446514      840.315446514
  Force two-norm initial, final = 832.163 48.3529
  Force max component initial, final = 412.304 16.2111
  Final line search alpha, max atom move = 4.09386e-12 6.63658e-11
  Iterations, force evaluations = 9 74

MPI task timing breakdown:
Section |  min time  |  avg time  |  max time  |%varavg| %total
---------------------------------------------------------------
Pair    | 0.13526    | 0.13526    | 0.13526    |   0.0 | 50.34
Bond    | 0.02598    | 0.02598    | 0.02598    |   0.0 |  9.67
Kspace  | 0.10654    | 0.10654    | 0.10654    |   0.0 | 39.65
Neigh   | 0          | 0          | 0          |   0.0 |  0.00
Comm    | 2.2411e-05 | 2.2411e-05 | 2.2411e-05 |   0.0 |  0.01
Output  | 0          | 0          | 0          |   0.0 |  0.00
Modify  | 0          | 0          | 0          |   0.0 |  0.00
Other   |            | 0.0009067  |            |       |  0.34

Nlocal:    730 ave 730 max 730 min
Histogram: 1 0 0 0 0 0 0 0 0 0
Nghost:    0 ave 0 max 0 min
Histogram: 1 0 0 0 0 0 0 0 0 0
Neighs:    46290 ave 46290 max 46290 min
Histogram: 1 0 0 0 0 0 0 0 0 0

Total # of neighbors = 46290
Ave neighs/atom = 63.411
Ave special neighs/atom = 10.8466
Neighbor list builds = 0
Dangerous builds = 0
write_dump all custom pysimm.dump.tmp id q x y z vx vy vz
quit


################################################################################
##################################    Init    ##################################
################################################################################
units           real
atom_style      full
pair_style      lj/cut/coul/long 12.0  12.0
kspace_style    pppm 1e-4
bond_style      harmonic
angle_style     harmonic
dihedral_style  fourier
improper_style  cvff
special_bonds   amber
pair_modify     mix arithmetic
read_data       temp.lmps
  orthogonal box = (-136.499 -136.499 -136.499) to (136.499 136.499 136.499)
  1 by 1 by 1 MPI processor grid
  reading atoms ...
  782 atoms
  reading velocities ...
  782 velocities
  scanning bonds ...
  3 = max bonds/atom
  scanning angles ...
  6 = max angles/atom
  scanning dihedrals ...
  10 = max dihedrals/atom
  scanning impropers ...
  2 = max impropers/atom
  reading bonds ...
  856 bonds
  reading angles ...
  1485 angles
  reading dihedrals ...
  2186 dihedrals
  reading impropers ...
  240 impropers
  4 = max # of 1-2 neighbors
  7 = max # of 1-3 neighbors
  20 = max # of 1-4 neighbors
  22 = max # of special neighbors
  special bonds CPU = 0.00145388 secs
  read_data CPU = 0.0199161 secs
################################################################################

min_style cg
minimize 1e-06 1e-06 1000000 10000000
WARNING: Using 'neigh_modify every 1 delay 0 check yes' setting during minimization (../min.cpp:190)
PPPM initialization ...
WARNING: System is not charge neutral, net charge = -4.5e-05 (../kspace.cpp:313)
  using 12-bit tables for long-range coulomb (../kspace.cpp:332)
  G vector (1/distance) = 0.0710864
  grid = 16 16 16
  stencil order = 5
  estimated absolute RMS force accuracy = 0.0359067
  estimated relative force accuracy = 0.000108132
  using double precision KISS FFT
  3d grid and FFT values/proc = 9261 4096
Neighbor list info ...
  update every 1 steps, delay 0 steps, check yes
  max neighbors/atom: 2000, page size: 100000
  master list distance cutoff = 14
  ghost atom cutoff = 14
  binsize = 7, bins = 39 39 39
  1 neighbor lists, perpetual/occasional/extra = 1 0 0
  (1) pair lj/cut/coul/long, perpetual
      attributes: half, newton on
      pair build: half/bin/newton
      stencil: half/bin/3d/newton
      bin: standard
Per MPI rank memory allocation (min/avg/max) = 15.57 | 15.57 | 15.57 Mbytes
Step Temp E_pair E_mol TotEng Press 
       0    1160.5434   -137.53274    1241.6845    3805.9115    4.5219012 
      26    1160.5434   -140.11855    983.58192     3545.223    5.8357178 
Loop time of 0.745035 on 1 procs for 26 steps with 782 atoms

100.0% CPU use with 1 MPI tasks x no OpenMP threads

Minimization stats:
  Stopping criterion = linesearch alpha is zero
  Energy initial, next-to-last, final = 
         1104.15177607      843.463369765      843.463369765
  Force two-norm initial, final = 831.808 61.1737
  Force max component initial, final = 320.652 11.5546
  Final line search alpha, max atom move = 2.14168e-12 2.47462e-11
  Iterations, force evaluations = 26 109

MPI task timing breakdown:
Section |  min time  |  avg time  |  max time  |%varavg| %total
---------------------------------------------------------------
Pair    | 0.37562    | 0.37562    | 0.37562    |   0.0 | 50.42
Bond    | 0.072904   | 0.072904   | 0.072904   |   0.0 |  9.79
Kspace  | 0.2934     | 0.2934     | 0.2934     |   0.0 | 39.38
Neigh   | 0          | 0          | 0          |   0.0 |  0.00
Comm    | 6.4611e-05 | 6.4611e-05 | 6.4611e-05 |   0.0 |  0.01
Output  | 0          | 0          | 0          |   0.0 |  0.00
Modify  | 0          | 0          | 0          |   0.0 |  0.00
Other   |            | 0.003047   |            |       |  0.41

Nlocal:    782 ave 782 max 782 min
Histogram: 1 0 0 0 0 0 0 0 0 0
Nghost:    0 ave 0 max 0 min
Histogram: 1 0 0 0 0 0 0 0 0 0
Neighs:    48620 ave 48620 max 48620 min
Histogram: 1 0 0 0 0 0 0 0 0 0

Total # of neighbors = 48620
Ave neighs/atom = 62.1739
Ave special neighs/atom = 10.8491
Neighbor list builds = 0
Dangerous builds = 0
write_dump all custom pysimm.dump.tmp id q x y z vx vy vz
quit


################################################################################
##################################    Init    ##################################
################################################################################
units           real
atom_style      full
pair_style      lj/cut/coul/long 12.0  12.0
kspace_style    pppm 1e-4
bond_style      harmonic
angle_style     harmonic
dihedral_style  fourier
improper_style  cvff
special_bonds   amber
pair_modify     mix arithmetic
read_data       temp.lmps
  orthogonal box = (-139.675 -139.675 -139.675) to (139.675 139.675 139.675)
  1 by 1 by 1 MPI processor grid
  reading atoms ...
  834 atoms
  reading velocities ...
  834 velocities
  scanning bonds ...
  3 = max bonds/atom
  scanning angles ...
  6 = max angles/atom
  scanning dihedrals ...
  10 = max dihedrals/atom
  scanning impropers ...
  2 = max impropers/atom
  reading bonds ...
  913 bonds
  reading angles ...
  1584 angles
  reading dihedrals ...
  2332 dihedrals
  reading impropers ...
  256 impropers
  4 = max # of 1-2 neighbors
  7 = max # of 1-3 neighbors
  20 = max # of 1-4 neighbors
  22 = max # of special neighbors
  special bonds CPU = 0.00155497 secs
  read_data CPU = 0.022064 secs
################################################################################

min_style cg
minimize 1e-06 1e-06 1000000 10000000
WARNING: Using 'neigh_modify every 1 delay 0 check yes' setting during minimization (../min.cpp:190)
PPPM initialization ...
WARNING: System is not charge neutral, net charge = -4.8e-05 (../kspace.cpp:313)
  using 12-bit tables for long-range coulomb (../kspace.cpp:332)
  G vector (1/distance) = 0.0697636
  grid = 16 16 16
  stencil order = 5
  estimated absolute RMS force accuracy = 0.0368024
  estimated relative force accuracy = 0.000110829
  using double precision KISS FFT
  3d grid and FFT values/proc = 9261 4096
Neighbor list info ...
  update every 1 steps, delay 0 steps, check yes
  max neighbors/atom: 2000, page size: 100000
  master list distance cutoff = 14
  ghost atom cutoff = 14
  binsize = 7, bins = 40 40 40
  1 neighbor lists, perpetual/occasional/extra = 1 0 0
  (1) pair lj/cut/coul/long, perpetual
      attributes: half, newton on
      pair build: half/bin/newton
      stencil: half/bin/3d/newton
      bin: standard
Per MPI rank memory allocation (min/avg/max) = 15.6 | 15.6 | 15.6 Mbytes
Step Temp E_pair E_mol TotEng Press 
       0    893.44778   -102.77056    1200.6434    3316.3168    2.9019638 
      20    893.44778   -104.56522    958.35237    3072.2312    4.4414782 
Loop time of 0.61515 on 1 procs for 20 steps with 834 atoms

100.0% CPU use with 1 MPI tasks x no OpenMP threads

Minimization stats:
  Stopping criterion = linesearch alpha is zero
  Energy initial, next-to-last, final = 
         1097.87281241      853.787147266      853.787147266
  Force two-norm initial, final = 831.272 50.06
  Force max component initial, final = 405.753 11.5055
  Final line search alpha, max atom move = 2.99136e-12 3.4417e-11
  Iterations, force evaluations = 20 96

MPI task timing breakdown:
Section |  min time  |  avg time  |  max time  |%varavg| %total
---------------------------------------------------------------
Pair    | 0.28641    | 0.28641    | 0.28641    |   0.0 | 46.56
Bond    | 0.066413   | 0.066413   | 0.066413   |   0.0 | 10.80
Kspace  | 0.2596     | 0.2596     | 0.2596     |   0.0 | 42.20
Neigh   | 0          | 0          | 0          |   0.0 |  0.00
Comm    | 4.0531e-05 | 4.0531e-05 | 4.0531e-05 |   0.0 |  0.01
Output  | 0          | 0          | 0          |   0.0 |  0.00
Modify  | 0          | 0          | 0          |   0.0 |  0.00
Other   |            | 0.002687   |            |       |  0.44

Nlocal:    834 ave 834 max 834 min
Histogram: 1 0 0 0 0 0 0 0 0 0
Nghost:    0 ave 0 max 0 min
Histogram: 1 0 0 0 0 0 0 0 0 0
Neighs:    44867 ave 44867 max 44867 min
Histogram: 1 0 0 0 0 0 0 0 0 0

Total # of neighbors = 44867
Ave neighs/atom = 53.7974
Ave special neighs/atom = 10.8513
Neighbor list builds = 0
Dangerous builds = 0
write_dump all custom pysimm.dump.tmp id q x y z vx vy vz
quit


################################################################################
##################################    Init    ##################################
################################################################################
units           real
atom_style      full
pair_style      lj/cut/coul/long 12.0  12.0
kspace_style    pppm 1e-4
bond_style      harmonic
angle_style     harmonic
dihedral_style  fourier
improper_style  cvff
special_bonds   amber
pair_modify     mix arithmetic
read_data       temp.lmps
  orthogonal box = (-142.712 -142.712 -142.712) to (142.712 142.712 142.712)
  1 by 1 by 1 MPI processor grid
  reading atoms ...
  886 atoms
  reading velocities ...
  886 velocities
  scanning bonds ...
  3 = max bonds/atom
  scanning angles ...
  6 = max angles/atom
  scanning dihedrals ...
  10 = max dihedrals/atom
  scanning impropers ...
  2 = max impropers/atom
  reading bonds ...
  970 bonds
  reading angles ...
  1683 angles
  reading dihedrals ...
  2478 dihedrals
  reading impropers ...
  272 impropers
  4 = max # of 1-2 neighbors
  7 = max # of 1-3 neighbors
  20 = max # of 1-4 neighbors
  22 = max # of special neighbors
  special bonds CPU = 0.000627041 secs
  read_data CPU = 0.01089 secs
################################################################################

min_style cg
minimize 1e-06 1e-06 1000000 10000000
WARNING: Using 'neigh_modify every 1 delay 0 check yes' setting during minimization (../min.cpp:190)
PPPM initialization ...
WARNING: System is not charge neutral, net charge = -5.1e-05 (../kspace.cpp:313)
  using 12-bit tables for long-range coulomb (../kspace.cpp:332)
  G vector (1/distance) = 0.0754174
  grid = 18 18 18
  stencil order = 5
  estimated absolute RMS force accuracy = 0.0326376
  estimated relative force accuracy = 9.82871e-05
  using double precision KISS FFT
  3d grid and FFT values/proc = 12167 5832
Neighbor list info ...
  update every 1 steps, delay 0 steps, check yes
  max neighbors/atom: 2000, page size: 100000
  master list distance cutoff = 14
  ghost atom cutoff = 14
  binsize = 7, bins = 41 41 41
  1 neighbor lists, perpetual/occasional/extra = 1 0 0
  (1) pair lj/cut/coul/long, perpetual
      attributes: half, newton on
      pair build: half/bin/newton
      stencil: half/bin/3d/newton
      bin: standard
Per MPI rank memory allocation (min/avg/max) = 15.89 | 15.89 | 15.89 Mbytes
Step Temp E_pair E_mol TotEng Press 
       0    1107.5745   -112.31641    1279.0725    4088.5563     4.410429 
      27    1107.5745   -122.14179    1032.8141    3832.4725    5.7143795 
Loop time of 0.36682 on 1 procs for 27 steps with 886 atoms

100.0% CPU use with 1 MPI tasks x no OpenMP threads

Minimization stats:
  Stopping criterion = linesearch alpha is zero
  Energy initial, next-to-last, final = 
         1166.75608972       910.67231883       910.67231883
  Force two-norm initial, final = 829.446 52.4007
  Force max component initial, final = 418.164 12.8137
  Final line search alpha, max atom move = 3.24369e-12 4.15636e-11
  Iterations, force evaluations = 27 108

MPI task timing breakdown:
Section |  min time  |  avg time  |  max time  |%varavg| %total
---------------------------------------------------------------
Pair    | 0.15462    | 0.15462    | 0.15462    |   0.0 | 42.15
Bond    | 0.035582   | 0.035582   | 0.035582   |   0.0 |  9.70
Kspace  | 0.17512    | 0.17512    | 0.17512    |   0.0 | 47.74
Neigh   | 0          | 0          | 0          |   0.0 |  0.00
Comm    | 1.9789e-05 | 1.9789e-05 | 1.9789e-05 |   0.0 |  0.01
Output  | 0          | 0          | 0          |   0.0 |  0.00
Modify  | 0          | 0          | 0          |   0.0 |  0.00
Other   |            | 0.00147    |            |       |  0.40

Nlocal:    886 ave 886 max 886 min
Histogram: 1 0 0 0 0 0 0 0 0 0
Nghost:    0 ave 0 max 0 min
Histogram: 1 0 0 0 0 0 0 0 0 0
Neighs:    45855 ave 45855 max 45855 min
Histogram: 1 0 0 0 0 0 0 0 0 0

Total # of neighbors = 45855
Ave neighs/atom = 51.7551
Ave special neighs/atom = 10.8533
Neighbor list builds = 0
Dangerous builds = 0
write_dump all custom pysimm.dump.tmp id q x y z vx vy vz
quit


################################################################################
##################################    Init    ##################################
################################################################################
units           real
atom_style      full
pair_style      lj/cut/coul/long 12.0  12.0
kspace_style    pppm 1e-4
bond_style      harmonic
angle_style     harmonic
dihedral_style  fourier
improper_style  cvff
special_bonds   amber
pair_modify     mix arithmetic
read_data       temp.lmps
  orthogonal box = (-145.626 -145.626 -145.626) to (145.626 145.626 145.626)
  1 by 1 by 1 MPI processor grid
  reading atoms ...
  938 atoms
  reading velocities ...
  938 velocities
  scanning bonds ...
  3 = max bonds/atom
  scanning angles ...
  6 = max angles/atom
  scanning dihedrals ...
  10 = max dihedrals/atom
  scanning impropers ...
  2 = max impropers/atom
  reading bonds ...
  1027 bonds
  reading angles ...
  1782 angles
  reading dihedrals ...
  2624 dihedrals
  reading impropers ...
  288 impropers
  4 = max # of 1-2 neighbors
  7 = max # of 1-3 neighbors
  20 = max # of 1-4 neighbors
  22 = max # of special neighbors
  special bonds CPU = 0.00089407 secs
  read_data CPU = 0.01402 secs
################################################################################

min_style cg
minimize 1e-06 1e-06 1000000 10000000
WARNING: Using 'neigh_modify every 1 delay 0 check yes' setting during minimization (../min.cpp:190)
PPPM initialization ...
WARNING: System is not charge neutral, net charge = -5.4e-05 (../kspace.cpp:313)
  using 12-bit tables for long-range coulomb (../kspace.cpp:332)
  G vector (1/distance) = 0.0742047
  grid = 18 18 18
  stencil order = 5
  estimated absolute RMS force accuracy = 0.0334456
  estimated relative force accuracy = 0.000100721
  using double precision KISS FFT
  3d grid and FFT values/proc = 12167 5832
Neighbor list info ...
  update every 1 steps, delay 0 steps, check yes
  max neighbors/atom: 2000, page size: 100000
  master list distance cutoff = 14
  ghost atom cutoff = 14
  binsize = 7, bins = 42 42 42
  1 neighbor lists, perpetual/occasional/extra = 1 0 0
  (1) pair lj/cut/coul/long, perpetual
      attributes: half, newton on
      pair build: half/bin/newton
      stencil: half/bin/3d/newton
      bin: standard
Per MPI rank memory allocation (min/avg/max) = 15.92 | 15.92 | 15.92 Mbytes
Step Temp E_pair E_mol TotEng Press 
       0    973.53715   -118.74657    1389.0301    3989.3913    3.8739231 
      16    973.53715   -119.36864     1147.911    3747.6501    5.1209482 
Loop time of 0.418237 on 1 procs for 16 steps with 938 atoms

99.9% CPU use with 1 MPI tasks x no OpenMP threads

Minimization stats:
  Stopping criterion = linesearch alpha is zero
  Energy initial, next-to-last, final = 
          1270.2834829      1028.54232937      1028.54232937
  Force two-norm initial, final = 831.674 67.302
  Force max component initial, final = 326.004 12.3053
  Final line search alpha, max atom move = 1.52529e-12 1.87692e-11
  Iterations, force evaluations = 16 91

MPI task timing breakdown:
Section |  min time  |  avg time  |  max time  |%varavg| %total
---------------------------------------------------------------
Pair    | 0.18743    | 0.18743    | 0.18743    |   0.0 | 44.81
Bond    | 0.041606   | 0.041606   | 0.041606   |   0.0 |  9.95
Kspace  | 0.18767    | 0.18767    | 0.18767    |   0.0 | 44.87
Neigh   | 0          | 0          | 0          |   0.0 |  0.00
Comm    | 2.718e-05  | 2.718e-05  | 2.718e-05  |   0.0 |  0.01
Output  | 0          | 0          | 0          |   0.0 |  0.00
Modify  | 0          | 0          | 0          |   0.0 |  0.00
Other   |            | 0.001512   |            |       |  0.36

Nlocal:    938 ave 938 max 938 min
Histogram: 1 0 0 0 0 0 0 0 0 0
Nghost:    0 ave 0 max 0 min
Histogram: 1 0 0 0 0 0 0 0 0 0
Neighs:    51652 ave 51652 max 51652 min
Histogram: 1 0 0 0 0 0 0 0 0 0

Total # of neighbors = 51652
Ave neighs/atom = 55.0661
Ave special neighs/atom = 10.855
Neighbor list builds = 0
Dangerous builds = 0
write_dump all custom pysimm.dump.tmp id q x y z vx vy vz
quit


################################################################################
##################################    Init    ##################################
################################################################################
units           real
atom_style      full
pair_style      lj/cut/coul/long 12.0  12.0
kspace_style    pppm 1e-4
bond_style      harmonic
angle_style     harmonic
dihedral_style  fourier
improper_style  cvff
special_bonds   amber
pair_modify     mix arithmetic
read_data       temp.lmps
  orthogonal box = (-148.427 -148.427 -148.427) to (148.427 148.427 148.427)
  1 by 1 by 1 MPI processor grid
  reading atoms ...
  990 atoms
  reading velocities ...
  990 velocities
  scanning bonds ...
  3 = max bonds/atom
  scanning angles ...
  6 = max angles/atom
  scanning dihedrals ...
  10 = max dihedrals/atom
  scanning impropers ...
  2 = max impropers/atom
  reading bonds ...
  1084 bonds
  reading angles ...
  1881 angles
  reading dihedrals ...
  2770 dihedrals
  reading impropers ...
  304 impropers
  4 = max # of 1-2 neighbors
  7 = max # of 1-3 neighbors
  20 = max # of 1-4 neighbors
  22 = max # of special neighbors
  special bonds CPU = 0.000907183 secs
  read_data CPU = 0.0144591 secs
################################################################################

min_style cg
minimize 1e-06 1e-06 1000000 10000000
WARNING: Using 'neigh_modify every 1 delay 0 check yes' setting during minimization (../min.cpp:190)
PPPM initialization ...
WARNING: System is not charge neutral, net charge = -5.7e-05 (../kspace.cpp:313)
  using 12-bit tables for long-range coulomb (../kspace.cpp:332)
  G vector (1/distance) = 0.0730739
  grid = 18 18 18
  stencil order = 5
  estimated absolute RMS force accuracy = 0.0342064
  estimated relative force accuracy = 0.000103012
  using double precision KISS FFT
  3d grid and FFT values/proc = 12167 5832
Neighbor list info ...
  update every 1 steps, delay 0 steps, check yes
  max neighbors/atom: 2000, page size: 100000
  master list distance cutoff = 14
  ghost atom cutoff = 14
  binsize = 7, bins = 43 43 43
  1 neighbor lists, perpetual/occasional/extra = 1 0 0
  (1) pair lj/cut/coul/long, perpetual
      attributes: half, newton on
      pair build: half/bin/newton
      stencil: half/bin/3d/newton
      bin: standard
Per MPI rank memory allocation (min/avg/max) = 15.95 | 15.95 | 15.95 Mbytes
Step Temp E_pair E_mol TotEng Press 
       0    884.26775   -159.68059    1433.3476     3880.507     3.626672 
      20    884.26775   -168.67863    1184.2275    3622.3889    4.6442885 
Loop time of 0.474421 on 1 procs for 20 steps with 990 atoms

100.1% CPU use with 1 MPI tasks x no OpenMP threads

Minimization stats:
  Stopping criterion = linesearch alpha is zero
  Energy initial, next-to-last, final = 
          1273.6669744      1015.54883674      1015.54883674
  Force two-norm initial, final = 834.177 57.5158
  Force max component initial, final = 412.55 16.9484
  Final line search alpha, max atom move = 2.82998e-12 4.79638e-11
  Iterations, force evaluations = 20 96

MPI task timing breakdown:
Section |  min time  |  avg time  |  max time  |%varavg| %total
---------------------------------------------------------------
Pair    | 0.21656    | 0.21656    | 0.21656    |   0.0 | 45.65
Bond    | 0.047224   | 0.047224   | 0.047224   |   0.0 |  9.95
Kspace  | 0.20878    | 0.20878    | 0.20878    |   0.0 | 44.01
Neigh   | 0          | 0          | 0          |   0.0 |  0.00
Comm    | 3.7432e-05 | 3.7432e-05 | 3.7432e-05 |   0.0 |  0.01
Output  | 0          | 0          | 0          |   0.0 |  0.00
Modify  | 0          | 0          | 0          |   0.0 |  0.00
Other   |            | 0.001824   |            |       |  0.38

Nlocal:    990 ave 990 max 990 min
Histogram: 1 0 0 0 0 0 0 0 0 0
Nghost:    0 ave 0 max 0 min
Histogram: 1 0 0 0 0 0 0 0 0 0
Neighs:    53410 ave 53410 max 53410 min
Histogram: 1 0 0 0 0 0 0 0 0 0

Total # of neighbors = 53410
Ave neighs/atom = 53.9495
Ave special neighs/atom = 10.8566
Neighbor list builds = 0
Dangerous builds = 0
write_dump all custom pysimm.dump.tmp id q x y z vx vy vz
quit


################################################################################
##################################    Init    ##################################
################################################################################
units           real
atom_style      full
pair_style      lj/cut/coul/long 12.0  12.0
kspace_style    pppm 1e-4
bond_style      harmonic
angle_style     harmonic
dihedral_style  fourier
improper_style  cvff
special_bonds   amber
pair_modify     mix arithmetic
read_data       temp.lmps
  orthogonal box = (-151.126 -151.126 -151.126) to (151.126 151.126 151.126)
  1 by 1 by 1 MPI processor grid
  reading atoms ...
  1042 atoms
  reading velocities ...
  1042 velocities
  scanning bonds ...
  3 = max bonds/atom
  scanning angles ...
  6 = max angles/atom
  scanning dihedrals ...
  10 = max dihedrals/atom
  scanning impropers ...
  2 = max impropers/atom
  reading bonds ...
  1141 bonds
  reading angles ...
  1980 angles
  reading dihedrals ...
  2916 dihedrals
  reading impropers ...
  320 impropers
  4 = max # of 1-2 neighbors
  7 = max # of 1-3 neighbors
  20 = max # of 1-4 neighbors
  22 = max # of special neighbors
  special bonds CPU = 0.00179791 secs
  read_data CPU = 0.015918 secs
################################################################################

min_style cg
minimize 1e-06 1e-06 1000000 10000000
WARNING: Using 'neigh_modify every 1 delay 0 check yes' setting during minimization (../min.cpp:190)
PPPM initialization ...
WARNING: System is not charge neutral, net charge = -6e-05 (../kspace.cpp:313)
  using 12-bit tables for long-range coulomb (../kspace.cpp:332)
  G vector (1/distance) = 0.0720155
  grid = 18 18 18
  stencil order = 5
  estimated absolute RMS force accuracy = 0.0349246
  estimated relative force accuracy = 0.000105174
  using double precision KISS FFT
  3d grid and FFT values/proc = 12167 5832
Neighbor list info ...
  update every 1 steps, delay 0 steps, check yes
  max neighbors/atom: 2000, page size: 100000
  master list distance cutoff = 14
  ghost atom cutoff = 14
  binsize = 7, bins = 44 44 44
  1 neighbor lists, perpetual/occasional/extra = 1 0 0
  (1) pair lj/cut/coul/long, perpetual
      attributes: half, newton on
      pair build: half/bin/newton
      stencil: half/bin/3d/newton
      bin: standard
Per MPI rank memory allocation (min/avg/max) = 15.98 | 15.98 | 15.98 Mbytes
Step Temp E_pair E_mol TotEng Press 
       0    836.12941   -177.71988    1526.8942    3943.7034    2.5856118 
      10    836.12941   -182.53569     1293.532    3705.5253    3.8258865 
Loop time of 0.798134 on 1 procs for 10 steps with 1042 atoms

100.2% CPU use with 1 MPI tasks x no OpenMP threads

Minimization stats:
  Stopping criterion = linesearch alpha is zero
  Energy initial, next-to-last, final = 
         1349.17435584      1110.99629374      1110.99629374
  Force two-norm initial, final = 835.337 53.2261
  Force max component initial, final = 358.55 13.1048
  Final line search alpha, max atom move = 2.76866e-12 3.62826e-11
  Iterations, force evaluations = 10 78

MPI task timing breakdown:
Section |  min time  |  avg time  |  max time  |%varavg| %total
---------------------------------------------------------------
Pair    | 0.42188    | 0.42188    | 0.42188    |   0.0 | 52.86
Bond    | 0.069027   | 0.069027   | 0.069027   |   0.0 |  8.65
Kspace  | 0.30483    | 0.30483    | 0.30483    |   0.0 | 38.19
Neigh   | 0          | 0          | 0          |   0.0 |  0.00
Comm    | 4.8876e-05 | 4.8876e-05 | 4.8876e-05 |   0.0 |  0.01
Output  | 0          | 0          | 0          |   0.0 |  0.00
Modify  | 0          | 0          | 0          |   0.0 |  0.00
Other   |            | 0.00235    |            |       |  0.29

Nlocal:    1042 ave 1042 max 1042 min
Histogram: 1 0 0 0 0 0 0 0 0 0
Nghost:    0 ave 0 max 0 min
Histogram: 1 0 0 0 0 0 0 0 0 0
Neighs:    78104 ave 78104 max 78104 min
Histogram: 1 0 0 0 0 0 0 0 0 0

Total # of neighbors = 78104
Ave neighs/atom = 74.9559
Ave special neighs/atom = 10.858
Neighbor list builds = 0
Dangerous builds = 0
write_dump all custom pysimm.dump.tmp id q x y z vx vy vz
quit


################################################################################
##################################    Init    ##################################
################################################################################
units           real
atom_style      full
pair_style      lj/cut/coul/long 12.0  12.0
kspace_style    pppm 1e-4
bond_style      harmonic
angle_style     harmonic
dihedral_style  fourier
improper_style  cvff
special_bonds   amber
pair_modify     mix arithmetic
read_data       temp.lmps
  orthogonal box = (-153.732 -153.732 -153.732) to (153.732 153.732 153.732)
  1 by 1 by 1 MPI processor grid
  reading atoms ...
  1094 atoms
  reading velocities ...
  1094 velocities
  scanning bonds ...
  3 = max bonds/atom
  scanning angles ...
  6 = max angles/atom
  scanning dihedrals ...
  10 = max dihedrals/atom
  scanning impropers ...
  2 = max impropers/atom
  reading bonds ...
  1198 bonds
  reading angles ...
  2079 angles
  reading dihedrals ...
  3062 dihedrals
  reading impropers ...
  336 impropers
  4 = max # of 1-2 neighbors
  7 = max # of 1-3 neighbors
  20 = max # of 1-4 neighbors
  22 = max # of special neighbors
  special bonds CPU = 0.00183988 secs
  read_data CPU = 0.0168669 secs
################################################################################

min_style cg
minimize 1e-06 1e-06 1000000 10000000
WARNING: Using 'neigh_modify every 1 delay 0 check yes' setting during minimization (../min.cpp:190)
PPPM initialization ...
WARNING: System is not charge neutral, net charge = -6.3e-05 (../kspace.cpp:313)
  using 12-bit tables for long-range coulomb (../kspace.cpp:332)
  G vector (1/distance) = 0.0710233
  grid = 18 18 18
  stencil order = 5
  estimated absolute RMS force accuracy = 0.0356075
  estimated relative force accuracy = 0.000107231
  using double precision KISS FFT
  3d grid and FFT values/proc = 12167 5832
Neighbor list info ...
  update every 1 steps, delay 0 steps, check yes
  max neighbors/atom: 2000, page size: 100000
  master list distance cutoff = 14
  ghost atom cutoff = 14
  binsize = 7, bins = 44 44 44
  1 neighbor lists, perpetual/occasional/extra = 1 0 0
  (1) pair lj/cut/coul/long, perpetual
      attributes: half, newton on
      pair build: half/bin/newton
      stencil: half/bin/3d/newton
      bin: standard
Per MPI rank memory allocation (min/avg/max) = 15.99 | 15.99 | 15.99 Mbytes
Step Temp E_pair E_mol TotEng Press 
       0    615.74165   -215.03783    1549.1156    3340.1797    2.1330132 
       7    615.74165   -214.14778    1321.6117    3113.5658    3.1523875 
Loop time of 0.80954 on 1 procs for 7 steps with 1094 atoms

100.0% CPU use with 1 MPI tasks x no OpenMP threads

Minimization stats:
  Stopping criterion = linesearch alpha is zero
  Energy initial, next-to-last, final = 
         1334.07778264      1107.46392303      1107.46392303
  Force two-norm initial, final = 832.667 53.4597
  Force max component initial, final = 284.381 11.6885
  Final line search alpha, max atom move = 2.42386e-12 2.83312e-11
  Iterations, force evaluations = 7 73

MPI task timing breakdown:
Section |  min time  |  avg time  |  max time  |%varavg| %total
---------------------------------------------------------------
Pair    | 0.45334    | 0.45334    | 0.45334    |   0.0 | 56.00
Bond    | 0.068689   | 0.068689   | 0.068689   |   0.0 |  8.48
Kspace  | 0.28529    | 0.28529    | 0.28529    |   0.0 | 35.24
Neigh   | 0          | 0          | 0          |   0.0 |  0.00
Comm    | 3.8624e-05 | 3.8624e-05 | 3.8624e-05 |   0.0 |  0.00
Output  | 0          | 0          | 0          |   0.0 |  0.00
Modify  | 0          | 0          | 0          |   0.0 |  0.00
Other   |            | 0.002178   |            |       |  0.27

Nlocal:    1094 ave 1094 max 1094 min
Histogram: 1 0 0 0 0 0 0 0 0 0
Nghost:    0 ave 0 max 0 min
Histogram: 1 0 0 0 0 0 0 0 0 0
Neighs:    93042 ave 93042 max 93042 min
Histogram: 1 0 0 0 0 0 0 0 0 0

Total # of neighbors = 93042
Ave neighs/atom = 85.0475
Ave special neighs/atom = 10.8592
Neighbor list builds = 0
Dangerous builds = 0
write_dump all custom pysimm.dump.tmp id q x y z vx vy vz
quit


################################################################################
##################################    Init    ##################################
################################################################################
units           real
atom_style      full
pair_style      lj/cut/coul/long 12.0  12.0
kspace_style    pppm 1e-4
bond_style      harmonic
angle_style     harmonic
dihedral_style  fourier
improper_style  cvff
special_bonds   amber
pair_modify     mix arithmetic
read_data       temp.lmps
  orthogonal box = (-156.253 -156.253 -156.253) to (156.253 156.253 156.253)
  1 by 1 by 1 MPI processor grid
  reading atoms ...
  1146 atoms
  reading velocities ...
  1146 velocities
  scanning bonds ...
  3 = max bonds/atom
  scanning angles ...
  6 = max angles/atom
  scanning dihedrals ...
  10 = max dihedrals/atom
  scanning impropers ...
  2 = max impropers/atom
  reading bonds ...
  1255 bonds
  reading angles ...
  2178 angles
  reading dihedrals ...
  3208 dihedrals
  reading impropers ...
  352 impropers
  4 = max # of 1-2 neighbors
  7 = max # of 1-3 neighbors
  20 = max # of 1-4 neighbors
  22 = max # of special neighbors
  special bonds CPU = 0.00120807 secs
  read_data CPU = 0.0192499 secs
################################################################################

min_style cg
minimize 1e-06 1e-06 1000000 10000000
WARNING: Using 'neigh_modify every 1 delay 0 check yes' setting during minimization (../min.cpp:190)
PPPM initialization ...
WARNING: System is not charge neutral, net charge = -6.6e-05 (../kspace.cpp:313)
  using 12-bit tables for long-range coulomb (../kspace.cpp:332)
  G vector (1/distance) = 0.070086
  grid = 18 18 18
  stencil order = 5
  estimated absolute RMS force accuracy = 0.0362498
  estimated relative force accuracy = 0.000109165
  using double precision KISS FFT
  3d grid and FFT values/proc = 12167 5832
Neighbor list info ...
  update every 1 steps, delay 0 steps, check yes
  max neighbors/atom: 2000, page size: 100000
  master list distance cutoff = 14
  ghost atom cutoff = 14
  binsize = 7, bins = 45 45 45
  1 neighbor lists, perpetual/occasional/extra = 1 0 0
  (1) pair lj/cut/coul/long, perpetual
      attributes: half, newton on
      pair build: half/bin/newton
      stencil: half/bin/3d/newton
      bin: standard
Per MPI rank memory allocation (min/avg/max) = 16.02 | 16.02 | 16.02 Mbytes
Step Temp E_pair E_mol TotEng Press 
       0    603.57837   -198.80207    1599.3891    3460.6167    2.0012628 
      36    603.57837   -204.66211    1306.3199    3161.6874    2.9167003 
Loop time of 1.05192 on 1 procs for 36 steps with 1146 atoms

100.1% CPU use with 1 MPI tasks x no OpenMP threads

Minimization stats:
  Stopping criterion = linesearch alpha is zero
  Energy initial, next-to-last, final = 
         1400.58706403       1101.6577754       1101.6577754
  Force two-norm initial, final = 834.421 61.4763
  Force max component initial, final = 346.727 12.6908
  Final line search alpha, max atom move = 2.82505e-12 3.58521e-11
  Iterations, force evaluations = 36 171

MPI task timing breakdown:
Section |  min time  |  avg time  |  max time  |%varavg| %total
---------------------------------------------------------------
Pair    | 0.5342     | 0.5342     | 0.5342     |   0.0 | 50.78
Bond    | 0.10118    | 0.10118    | 0.10118    |   0.0 |  9.62
Kspace  | 0.40982    | 0.40982    | 0.40982    |   0.0 | 38.96
Neigh   | 0.002737   | 0.002737   | 0.002737   |   0.0 |  0.26
Comm    | 7.7009e-05 | 7.7009e-05 | 7.7009e-05 |   0.0 |  0.01
Output  | 0          | 0          | 0          |   0.0 |  0.00
Modify  | 0          | 0          | 0          |   0.0 |  0.00
Other   |            | 0.003905   |            |       |  0.37

Nlocal:    1146 ave 1146 max 1146 min
Histogram: 1 0 0 0 0 0 0 0 0 0
Nghost:    0 ave 0 max 0 min
Histogram: 1 0 0 0 0 0 0 0 0 0
Neighs:    73775 ave 73775 max 73775 min
Histogram: 1 0 0 0 0 0 0 0 0 0

Total # of neighbors = 73775
Ave neighs/atom = 64.3761
Ave special neighs/atom = 10.8604
Neighbor list builds = 1
Dangerous builds = 0
write_dump all custom pysimm.dump.tmp id q x y z vx vy vz
quit


################################################################################
##################################    Init    ##################################
################################################################################
units           real
atom_style      full
pair_style      lj/cut/coul/long 12.0  12.0
kspace_style    pppm 1e-4
bond_style      harmonic
angle_style     harmonic
dihedral_style  fourier
improper_style  cvff
special_bonds   amber
pair_modify     mix arithmetic
read_data       temp.lmps
  orthogonal box = (-158.695 -158.695 -158.695) to (158.695 158.695 158.695)
  1 by 1 by 1 MPI processor grid
  reading atoms ...
  1198 atoms
  reading velocities ...
  1198 velocities
  scanning bonds ...
  3 = max bonds/atom
  scanning angles ...
  6 = max angles/atom
  scanning dihedrals ...
  10 = max dihedrals/atom
  scanning impropers ...
  2 = max impropers/atom
  reading bonds ...
  1312 bonds
  reading angles ...
  2277 angles
  reading dihedrals ...
  3354 dihedrals
  reading impropers ...
  368 impropers
  4 = max # of 1-2 neighbors
  7 = max # of 1-3 neighbors
  20 = max # of 1-4 neighbors
  22 = max # of special neighbors
  special bonds CPU = 0.000901937 secs
  read_data CPU = 0.0144839 secs
################################################################################

min_style cg
minimize 1e-06 1e-06 1000000 10000000
WARNING: Using 'neigh_modify every 1 delay 0 check yes' setting during minimization (../min.cpp:190)
PPPM initialization ...
WARNING: System is not charge neutral, net charge = -6.9e-05 (../kspace.cpp:313)
  using 12-bit tables for long-range coulomb (../kspace.cpp:332)
  G vector (1/distance) = 0.0692012
  grid = 18 18 18
  stencil order = 5
  estimated absolute RMS force accuracy = 0.0368608
  estimated relative force accuracy = 0.000111005
  using double precision KISS FFT
  3d grid and FFT values/proc = 12167 5832
Neighbor list info ...
  update every 1 steps, delay 0 steps, check yes
  max neighbors/atom: 2000, page size: 100000
  master list distance cutoff = 14
  ghost atom cutoff = 14
  binsize = 7, bins = 46 46 46
  1 neighbor lists, perpetual/occasional/extra = 1 0 0
  (1) pair lj/cut/coul/long, perpetual
      attributes: half, newton on
      pair build: half/bin/newton
      stencil: half/bin/3d/newton
      bin: standard
Per MPI rank memory allocation (min/avg/max) = 16.06 | 16.06 | 16.06 Mbytes
Step Temp E_pair E_mol TotEng Press 
       0    834.97842    -218.3194    1628.2819    4389.1902    2.5356891 
      16    834.97842    -214.9914    1378.6145    4142.8509    3.6419998 
Loop time of 0.364217 on 1 procs for 16 steps with 1198 atoms

99.9% CPU use with 1 MPI tasks x no OpenMP threads

Minimization stats:
  Stopping criterion = linesearch alpha is zero
  Energy initial, next-to-last, final = 
         1409.96246314       1163.6231181       1163.6231181
  Force two-norm initial, final = 836.206 54.6149
  Force max component initial, final = 323.976 11.6115
  Final line search alpha, max atom move = 2.1589e-12 2.5068e-11
  Iterations, force evaluations = 16 91

MPI task timing breakdown:
Section |  min time  |  avg time  |  max time  |%varavg| %total
---------------------------------------------------------------
Pair    | 0.17782    | 0.17782    | 0.17782    |   0.0 | 48.82
Bond    | 0.037661   | 0.037661   | 0.037661   |   0.0 | 10.34
Kspace  | 0.14737    | 0.14737    | 0.14737    |   0.0 | 40.46
Neigh   | 0          | 0          | 0          |   0.0 |  0.00
Comm    | 2.4557e-05 | 2.4557e-05 | 2.4557e-05 |   0.0 |  0.01
Output  | 0          | 0          | 0          |   0.0 |  0.00
Modify  | 0          | 0          | 0          |   0.0 |  0.00
Other   |            | 0.001348   |            |       |  0.37

Nlocal:    1198 ave 1198 max 1198 min
Histogram: 1 0 0 0 0 0 0 0 0 0
Nghost:    0 ave 0 max 0 min
Histogram: 1 0 0 0 0 0 0 0 0 0
Neighs:    70769 ave 70769 max 70769 min
Histogram: 1 0 0 0 0 0 0 0 0 0

Total # of neighbors = 70769
Ave neighs/atom = 59.0726
Ave special neighs/atom = 10.8614
Neighbor list builds = 0
Dangerous builds = 0
write_dump all custom pysimm.dump.tmp id q x y z vx vy vz
quit


################################################################################
##################################    Init    ##################################
################################################################################
units           real
atom_style      full
pair_style      lj/cut/coul/long 12.0  12.0
kspace_style    pppm 1e-4
bond_style      harmonic
angle_style     harmonic
dihedral_style  fourier
improper_style  cvff
special_bonds   amber
pair_modify     mix arithmetic
read_data       temp.lmps
  orthogonal box = (-161.064 -161.064 -161.064) to (161.064 161.064 161.064)
  1 by 1 by 1 MPI processor grid
  reading atoms ...
  1250 atoms
  reading velocities ...
  1250 velocities
  scanning bonds ...
  3 = max bonds/atom
  scanning angles ...
  6 = max angles/atom
  scanning dihedrals ...
  10 = max dihedrals/atom
  scanning impropers ...
  2 = max impropers/atom
  reading bonds ...
  1369 bonds
  reading angles ...
  2376 angles
  reading dihedrals ...
  3500 dihedrals
  reading impropers ...
  384 impropers
  4 = max # of 1-2 neighbors
  7 = max # of 1-3 neighbors
  20 = max # of 1-4 neighbors
  22 = max # of special neighbors
  special bonds CPU = 0.00208306 secs
  read_data CPU = 0.0283201 secs
################################################################################

min_style cg
minimize 1e-06 1e-06 1000000 10000000
WARNING: Using 'neigh_modify every 1 delay 0 check yes' setting during minimization (../min.cpp:190)
PPPM initialization ...
WARNING: System is not charge neutral, net charge = -7.2e-05 (../kspace.cpp:313)
  using 12-bit tables for long-range coulomb (../kspace.cpp:332)
  G vector (1/distance) = 0.0683636
  grid = 18 18 18
  stencil order = 5
  estimated absolute RMS force accuracy = 0.0374428
  estimated relative force accuracy = 0.000112758
  using double precision KISS FFT
  3d grid and FFT values/proc = 12167 5832
Neighbor list info ...
  update every 1 steps, delay 0 steps, check yes
  max neighbors/atom: 2000, page size: 100000
  master list distance cutoff = 14
  ghost atom cutoff = 14
  binsize = 7, bins = 47 47 47
  1 neighbor lists, perpetual/occasional/extra = 1 0 0
  (1) pair lj/cut/coul/long, perpetual
      attributes: half, newton on
      pair build: half/bin/newton
      stencil: half/bin/3d/newton
      bin: standard
Per MPI rank memory allocation (min/avg/max) = 16.09 | 16.09 | 16.09 Mbytes
Step Temp E_pair E_mol TotEng Press 
       0    961.49337   -200.59827    1746.7142    5125.7863    4.5398909 
      23    961.49337   -203.42301    1487.5696     4863.817    5.3814123 
Loop time of 0.821295 on 1 procs for 23 steps with 1250 atoms

99.9% CPU use with 1 MPI tasks x no OpenMP threads

Minimization stats:
  Stopping criterion = linesearch alpha is zero
  Energy initial, next-to-last, final = 
         1546.11594922      1284.14662428      1284.14662428
  Force two-norm initial, final = 834.165 55.2689
  Force max component initial, final = 400.596 13.1772
  Final line search alpha, max atom move = 3.2985e-12 4.34651e-11
  Iterations, force evaluations = 23 102

MPI task timing breakdown:
Section |  min time  |  avg time  |  max time  |%varavg| %total
---------------------------------------------------------------
Pair    | 0.41808    | 0.41808    | 0.41808    |   0.0 | 50.91
Bond    | 0.080968   | 0.080968   | 0.080968   |   0.0 |  9.86
Kspace  | 0.31886    | 0.31886    | 0.31886    |   0.0 | 38.82
Neigh   | 0          | 0          | 0          |   0.0 |  0.00
Comm    | 5.2452e-05 | 5.2452e-05 | 5.2452e-05 |   0.0 |  0.01
Output  | 0          | 0          | 0          |   0.0 |  0.00
Modify  | 0          | 0          | 0          |   0.0 |  0.00
Other   |            | 0.003332   |            |       |  0.41

Nlocal:    1250 ave 1250 max 1250 min
Histogram: 1 0 0 0 0 0 0 0 0 0
Nghost:    0 ave 0 max 0 min
Histogram: 1 0 0 0 0 0 0 0 0 0
Neighs:    82570 ave 82570 max 82570 min
Histogram: 1 0 0 0 0 0 0 0 0 0

Total # of neighbors = 82570
Ave neighs/atom = 66.056
Ave special neighs/atom = 10.8624
Neighbor list builds = 0
Dangerous builds = 0
write_dump all custom pysimm.dump.tmp id q x y z vx vy vz
quit


################################################################################
##################################    Init    ##################################
################################################################################
units           real
atom_style      full
pair_style      lj/cut/coul/long 12.0  12.0
kspace_style    pppm 1e-4
bond_style      harmonic
angle_style     harmonic
dihedral_style  fourier
improper_style  cvff
special_bonds   amber
pair_modify     mix arithmetic
read_data       temp.lmps
  orthogonal box = (-163.365 -163.365 -163.365) to (163.365 163.365 163.365)
  1 by 1 by 1 MPI processor grid
  reading atoms ...
  1302 atoms
  reading velocities ...
  1302 velocities
  scanning bonds ...
  3 = max bonds/atom
  scanning angles ...
  6 = max angles/atom
  scanning dihedrals ...
  10 = max dihedrals/atom
  scanning impropers ...
  2 = max impropers/atom
  reading bonds ...
  1426 bonds
  reading angles ...
  2475 angles
  reading dihedrals ...
  3646 dihedrals
  reading impropers ...
  400 impropers
  4 = max # of 1-2 neighbors
  7 = max # of 1-3 neighbors
  20 = max # of 1-4 neighbors
  22 = max # of special neighbors
  special bonds CPU = 0.000770092 secs
  read_data CPU = 0.013207 secs
################################################################################

min_style cg
minimize 1e-06 1e-06 1000000 10000000
WARNING: Using 'neigh_modify every 1 delay 0 check yes' setting during minimization (../min.cpp:190)
PPPM initialization ...
WARNING: System is not charge neutral, net charge = -7.5e-05 (../kspace.cpp:313)
  using 12-bit tables for long-range coulomb (../kspace.cpp:332)
  G vector (1/distance) = 0.0736342
  grid = 20 20 20
  stencil order = 5
  estimated absolute RMS force accuracy = 0.0335889
  estimated relative force accuracy = 0.000101152
  using double precision KISS FFT
  3d grid and FFT values/proc = 15625 8000
Neighbor list info ...
  update every 1 steps, delay 0 steps, check yes
  max neighbors/atom: 2000, page size: 100000
  master list distance cutoff = 14
  ghost atom cutoff = 14
  binsize = 7, bins = 47 47 47
  1 neighbor lists, perpetual/occasional/extra = 1 0 0
  (1) pair lj/cut/coul/long, perpetual
      attributes: half, newton on
      pair build: half/bin/newton
      stencil: half/bin/3d/newton
      bin: standard
Per MPI rank memory allocation (min/avg/max) = 16.42 | 16.42 | 16.42 Mbytes
Step Temp E_pair E_mol TotEng Press 
       0    763.92333   -232.16968    1853.7328    4584.0836    2.7970194 
      48    763.92333   -249.22836     1517.117    4230.4091    3.8935995 
Loop time of 0.696618 on 1 procs for 48 steps with 1302 atoms

100.2% CPU use with 1 MPI tasks x no OpenMP threads

Minimization stats:
  Stopping criterion = linesearch alpha is zero
  Energy initial, next-to-last, final = 
         1621.56308313      1267.88860658      1267.88860658
  Force two-norm initial, final = 834.918 62.0729
  Force max component initial, final = 391.567 9.50912
  Final line search alpha, max atom move = 2.122e-12 2.01784e-11
  Iterations, force evaluations = 48 153

MPI task timing breakdown:
Section |  min time  |  avg time  |  max time  |%varavg| %total
---------------------------------------------------------------
Pair    | 0.33786    | 0.33786    | 0.33786    |   0.0 | 48.50
Bond    | 0.067575   | 0.067575   | 0.067575   |   0.0 |  9.70
Kspace  | 0.28615    | 0.28615    | 0.28615    |   0.0 | 41.08
Neigh   | 0.0020669  | 0.0020669  | 0.0020669  |   0.0 |  0.30
Comm    | 4.9114e-05 | 4.9114e-05 | 4.9114e-05 |   0.0 |  0.01
Output  | 0          | 0          | 0          |   0.0 |  0.00
Modify  | 0          | 0          | 0          |   0.0 |  0.00
Other   |            | 0.002923   |            |       |  0.42

Nlocal:    1302 ave 1302 max 1302 min
Histogram: 1 0 0 0 0 0 0 0 0 0
Nghost:    0 ave 0 max 0 min
Histogram: 1 0 0 0 0 0 0 0 0 0
Neighs:    78881 ave 78881 max 78881 min
Histogram: 1 0 0 0 0 0 0 0 0 0

Total # of neighbors = 78881
Ave neighs/atom = 60.5845
Ave special neighs/atom = 10.8633
Neighbor list builds = 1
Dangerous builds = 0
write_dump all custom pysimm.dump.tmp id q x y z vx vy vz
quit


################################################################################
##################################    Init    ##################################
################################################################################
units           real
atom_style      full
pair_style      lj/cut/coul/long 12.0  12.0
kspace_style    pppm 1e-4
bond_style      harmonic
angle_style     harmonic
dihedral_style  fourier
improper_style  cvff
special_bonds   amber
pair_modify     mix arithmetic
read_data       temp.lmps
  orthogonal box = (-165.603 -165.603 -165.603) to (165.603 165.603 165.603)
  1 by 1 by 1 MPI processor grid
  reading atoms ...
  1354 atoms
  reading velocities ...
  1354 velocities
  scanning bonds ...
  3 = max bonds/atom
  scanning angles ...
  6 = max angles/atom
  scanning dihedrals ...
  10 = max dihedrals/atom
  scanning impropers ...
  2 = max impropers/atom
  reading bonds ...
  1483 bonds
  reading angles ...
  2574 angles
  reading dihedrals ...
  3792 dihedrals
  reading impropers ...
  416 impropers
  4 = max # of 1-2 neighbors
  7 = max # of 1-3 neighbors
  20 = max # of 1-4 neighbors
  22 = max # of special neighbors
  special bonds CPU = 0.000805855 secs
  read_data CPU = 0.013871 secs
################################################################################

min_style cg
minimize 1e-06 1e-06 1000000 10000000
WARNING: Using 'neigh_modify every 1 delay 0 check yes' setting during minimization (../min.cpp:190)
PPPM initialization ...
WARNING: System is not charge neutral, net charge = -7.8e-05 (../kspace.cpp:313)
  using 12-bit tables for long-range coulomb (../kspace.cpp:332)
  G vector (1/distance) = 0.0728297
  grid = 20 20 20
  stencil order = 5
  estimated absolute RMS force accuracy = 0.0341374
  estimated relative force accuracy = 0.000102804
  using double precision KISS FFT
  3d grid and FFT values/proc = 15625 8000
Neighbor list info ...
  update every 1 steps, delay 0 steps, check yes
  max neighbors/atom: 2000, page size: 100000
  master list distance cutoff = 14
  ghost atom cutoff = 14
  binsize = 7, bins = 48 48 48
  1 neighbor lists, perpetual/occasional/extra = 1 0 0
  (1) pair lj/cut/coul/long, perpetual
      attributes: half, newton on
      pair build: half/bin/newton
      stencil: half/bin/3d/newton
      bin: standard
Per MPI rank memory allocation (min/avg/max) = 16.46 | 16.46 | 16.46 Mbytes
Step Temp E_pair E_mol TotEng Press 
       0    613.68754   -231.08291    1798.5854    4042.5265    2.1556277 
      26    613.68754   -240.87885    1549.1256    3783.2707    3.0238643 
Loop time of 0.770307 on 1 procs for 26 steps with 1354 atoms

100.1% CPU use with 1 MPI tasks x no OpenMP threads

Minimization stats:
  Stopping criterion = linesearch alpha is zero
  Energy initial, next-to-last, final = 
         1567.50252489      1308.24679046      1308.24679046
  Force two-norm initial, final = 832.376 35.7322
  Force max component initial, final = 405.544 7.27083
  Final line search alpha, max atom move = 8.38612e-12 6.0974e-11
  Iterations, force evaluations = 26 131

MPI task timing breakdown:
Section |  min time  |  avg time  |  max time  |%varavg| %total
---------------------------------------------------------------
Pair    | 0.37801    | 0.37801    | 0.37801    |   0.0 | 49.07
Bond    | 0.076061   | 0.076061   | 0.076061   |   0.0 |  9.87
Kspace  | 0.31365    | 0.31365    | 0.31365    |   0.0 | 40.72
Neigh   | 0          | 0          | 0          |   0.0 |  0.00
Comm    | 3.2902e-05 | 3.2902e-05 | 3.2902e-05 |   0.0 |  0.00
Output  | 0          | 0          | 0          |   0.0 |  0.00
Modify  | 0          | 0          | 0          |   0.0 |  0.00
Other   |            | 0.002553   |            |       |  0.33

Nlocal:    1354 ave 1354 max 1354 min
Histogram: 1 0 0 0 0 0 0 0 0 0
Nghost:    0 ave 0 max 0 min
Histogram: 1 0 0 0 0 0 0 0 0 0
Neighs:    84036 ave 84036 max 84036 min
Histogram: 1 0 0 0 0 0 0 0 0 0

Total # of neighbors = 84036
Ave neighs/atom = 62.065
Ave special neighs/atom = 10.8641
Neighbor list builds = 0
Dangerous builds = 0
write_dump all custom pysimm.dump.tmp id q x y z vx vy vz
quit


################################################################################
##################################    Init    ##################################
################################################################################
units           real
atom_style      full
pair_style      lj/cut/coul/long 12.0  12.0
kspace_style    pppm 1e-4
bond_style      harmonic
angle_style     harmonic
dihedral_style  fourier
improper_style  cvff
special_bonds   amber
pair_modify     mix arithmetic
read_data       temp.lmps
  orthogonal box = (-167.782 -167.782 -167.782) to (167.782 167.782 167.782)
  1 by 1 by 1 MPI processor grid
  reading atoms ...
  1406 atoms
  reading velocities ...
  1406 velocities
  scanning bonds ...
  3 = max bonds/atom
  scanning angles ...
  6 = max angles/atom
  scanning dihedrals ...
  10 = max dihedrals/atom
  scanning impropers ...
  2 = max impropers/atom
  reading bonds ...
  1540 bonds
  reading angles ...
  2673 angles
  reading dihedrals ...
  3938 dihedrals
  reading impropers ...
  432 impropers
  4 = max # of 1-2 neighbors
  7 = max # of 1-3 neighbors
  20 = max # of 1-4 neighbors
  22 = max # of special neighbors
  special bonds CPU = 0.000846148 secs
  read_data CPU = 0.0147882 secs
################################################################################

min_style cg
minimize 1e-06 1e-06 1000000 10000000
WARNING: Using 'neigh_modify every 1 delay 0 check yes' setting during minimization (../min.cpp:190)
PPPM initialization ...
WARNING: System is not charge neutral, net charge = -8.1e-05 (../kspace.cpp:313)
  using 12-bit tables for long-range coulomb (../kspace.cpp:332)
  G vector (1/distance) = 0.0720627
  grid = 20 20 20
  stencil order = 5
  estimated absolute RMS force accuracy = 0.0346634
  estimated relative force accuracy = 0.000104388
  using double precision KISS FFT
  3d grid and FFT values/proc = 15625 8000
Neighbor list info ...
  update every 1 steps, delay 0 steps, check yes
  max neighbors/atom: 2000, page size: 100000
  master list distance cutoff = 14
  ghost atom cutoff = 14
  binsize = 7, bins = 48 48 48
  1 neighbor lists, perpetual/occasional/extra = 1 0 0
  (1) pair lj/cut/coul/long, perpetual
      attributes: half, newton on
      pair build: half/bin/newton
      stencil: half/bin/3d/newton
      bin: standard
Per MPI rank memory allocation (min/avg/max) = 16.46 | 16.46 | 16.46 Mbytes
Step Temp E_pair E_mol TotEng Press 
       0    658.29423   -243.30276    1885.9406    4399.5991     2.446778 
      43    658.29423   -260.62309    1557.0323    4053.3706    3.4923745 
Loop time of 0.914323 on 1 procs for 43 steps with 1406 atoms

100.1% CPU use with 1 MPI tasks x no OpenMP threads

Minimization stats:
  Stopping criterion = linesearch alpha is zero
  Energy initial, next-to-last, final = 
         1642.63779504      1296.40925517      1296.40925517
  Force two-norm initial, final = 831.058 55.7584
  Force max component initial, final = 359.625 11.2758
  Final line search alpha, max atom move = 2.30413e-12 2.5981e-11
  Iterations, force evaluations = 43 142

MPI task timing breakdown:
Section |  min time  |  avg time  |  max time  |%varavg| %total
---------------------------------------------------------------
Pair    | 0.44786    | 0.44786    | 0.44786    |   0.0 | 48.98
Bond    | 0.089867   | 0.089867   | 0.089867   |   0.0 |  9.83
Kspace  | 0.36938    | 0.36938    | 0.36938    |   0.0 | 40.40
Neigh   | 0.003211   | 0.003211   | 0.003211   |   0.0 |  0.35
Comm    | 6.5088e-05 | 6.5088e-05 | 6.5088e-05 |   0.0 |  0.01
Output  | 0          | 0          | 0          |   0.0 |  0.00
Modify  | 0          | 0          | 0          |   0.0 |  0.00
Other   |            | 0.003941   |            |       |  0.43

Nlocal:    1406 ave 1406 max 1406 min
Histogram: 1 0 0 0 0 0 0 0 0 0
Nghost:    0 ave 0 max 0 min
Histogram: 1 0 0 0 0 0 0 0 0 0
Neighs:    86989 ave 86989 max 86989 min
Histogram: 1 0 0 0 0 0 0 0 0 0

Total # of neighbors = 86989
Ave neighs/atom = 61.8698
Ave special neighs/atom = 10.8649
Neighbor list builds = 1
Dangerous builds = 0
write_dump all custom pysimm.dump.tmp id q x y z vx vy vz
quit


################################################################################
##################################    Init    ##################################
################################################################################
units           real
atom_style      full
pair_style      lj/cut/coul/long 12.0  12.0
kspace_style    pppm 1e-4
bond_style      harmonic
angle_style     harmonic
dihedral_style  fourier
improper_style  cvff
special_bonds   amber
pair_modify     mix arithmetic
read_data       temp.lmps
  orthogonal box = (-169.906 -169.906 -169.906) to (169.906 169.906 169.906)
  1 by 1 by 1 MPI processor grid
  reading atoms ...
  1458 atoms
  reading velocities ...
  1458 velocities
  scanning bonds ...
  3 = max bonds/atom
  scanning angles ...
  6 = max angles/atom
  scanning dihedrals ...
  10 = max dihedrals/atom
  scanning impropers ...
  2 = max impropers/atom
  reading bonds ...
  1597 bonds
  reading angles ...
  2772 angles
  reading dihedrals ...
  4084 dihedrals
  reading impropers ...
  448 impropers
  4 = max # of 1-2 neighbors
  7 = max # of 1-3 neighbors
  20 = max # of 1-4 neighbors
  22 = max # of special neighbors
  special bonds CPU = 0.00235486 secs
  read_data CPU = 0.0323281 secs
################################################################################

min_style cg
minimize 1e-06 1e-06 1000000 10000000
WARNING: Using 'neigh_modify every 1 delay 0 check yes' setting during minimization (../min.cpp:190)
PPPM initialization ...
WARNING: System is not charge neutral, net charge = -8.4e-05 (../kspace.cpp:313)
  using 12-bit tables for long-range coulomb (../kspace.cpp:332)
  G vector (1/distance) = 0.07133
  grid = 20 20 20
  stencil order = 5
  estimated absolute RMS force accuracy = 0.0351685
  estimated relative force accuracy = 0.000105909
  using double precision KISS FFT
  3d grid and FFT values/proc = 15625 8000
Neighbor list info ...
  update every 1 steps, delay 0 steps, check yes
  max neighbors/atom: 2000, page size: 100000
  master list distance cutoff = 14
  ghost atom cutoff = 14
  binsize = 7, bins = 49 49 49
  1 neighbor lists, perpetual/occasional/extra = 1 0 0
  (1) pair lj/cut/coul/long, perpetual
      attributes: half, newton on
      pair build: half/bin/newton
      stencil: half/bin/3d/newton
      bin: standard
Per MPI rank memory allocation (min/avg/max) = 16.88 | 16.88 | 16.88 Mbytes
Step Temp E_pair E_mol TotEng Press 
       0    698.23972   -307.96431    1977.6876    4702.2066    2.7342432 
      16    698.23972   -308.95376    1727.5445    4451.0739    3.5921846 
Loop time of 1.33356 on 1 procs for 16 steps with 1458 atoms

100.0% CPU use with 1 MPI tasks x no OpenMP threads

Minimization stats:
  Stopping criterion = linesearch alpha is zero
  Energy initial, next-to-last, final = 
         1669.72334064      1418.59069544      1418.59069544
  Force two-norm initial, final = 833.447 63.5788
  Force max component initial, final = 374.608 14.2553
  Final line search alpha, max atom move = 2.14888e-12 3.06329e-11
  Iterations, force evaluations = 16 138

MPI task timing breakdown:
Section |  min time  |  avg time  |  max time  |%varavg| %total
---------------------------------------------------------------
Pair    | 0.70247    | 0.70247    | 0.70247    |   0.0 | 52.68
Bond    | 0.12663    | 0.12663    | 0.12663    |   0.0 |  9.50
Kspace  | 0.50012    | 0.50012    | 0.50012    |   0.0 | 37.50
Neigh   | 0          | 0          | 0          |   0.0 |  0.00
Comm    | 5.2214e-05 | 5.2214e-05 | 5.2214e-05 |   0.0 |  0.00
Output  | 0          | 0          | 0          |   0.0 |  0.00
Modify  | 0          | 0          | 0          |   0.0 |  0.00
Other   |            | 0.004282   |            |       |  0.32

Nlocal:    1458 ave 1458 max 1458 min
Histogram: 1 0 0 0 0 0 0 0 0 0
Nghost:    0 ave 0 max 0 min
Histogram: 1 0 0 0 0 0 0 0 0 0
Neighs:    99609 ave 99609 max 99609 min
Histogram: 1 0 0 0 0 0 0 0 0 0

Total # of neighbors = 99609
Ave neighs/atom = 68.3189
Ave special neighs/atom = 10.8656
Neighbor list builds = 0
Dangerous builds = 0
write_dump all custom pysimm.dump.tmp id q x y z vx vy vz
quit


################################################################################
##################################    Init    ##################################
################################################################################
units           real
atom_style      full
pair_style      lj/cut/coul/long 12.0  12.0
kspace_style    pppm 1e-4
bond_style      harmonic
angle_style     harmonic
dihedral_style  fourier
improper_style  cvff
special_bonds   amber
pair_modify     mix arithmetic
read_data       temp.lmps
  orthogonal box = (-171.978 -171.978 -171.978) to (171.978 171.978 171.978)
  1 by 1 by 1 MPI processor grid
  reading atoms ...
  1510 atoms
  reading velocities ...
  1510 velocities
  scanning bonds ...
  3 = max bonds/atom
  scanning angles ...
  6 = max angles/atom
  scanning dihedrals ...
  10 = max dihedrals/atom
  scanning impropers ...
  2 = max impropers/atom
  reading bonds ...
  1654 bonds
  reading angles ...
  2871 angles
  reading dihedrals ...
  4230 dihedrals
  reading impropers ...
  464 impropers
  4 = max # of 1-2 neighbors
  7 = max # of 1-3 neighbors
  20 = max # of 1-4 neighbors
  22 = max # of special neighbors
  special bonds CPU = 0.00238013 secs
  read_data CPU = 0.0341458 secs
[...]
  6 = max angles/atom
  scanning dihedrals ...
  10 = max dihedrals/atom
  scanning impropers ...
  2 = max impropers/atom
  reading bonds ...
  2623 bonds
  reading angles ...
  4554 angles
  reading dihedrals ...
  6712 dihedrals
  reading impropers ...
  736 impropers
  4 = max # of 1-2 neighbors
  7 = max # of 1-3 neighbors
  20 = max # of 1-4 neighbors
  22 = max # of special neighbors
  special bonds CPU = 0.00359392 secs
  read_data CPU = 0.033355 secs
################################################################################

min_style cg
minimize 1e-06 1e-06 1000000 10000000
WARNING: Using 'neigh_modify every 1 delay 0 check yes' setting during minimization (../min.cpp:190)
PPPM initialization ...
WARNING: System is not charge neutral, net charge = -0.000138 (../kspace.cpp:313)
  using 12-bit tables for long-range coulomb (../kspace.cpp:332)
  G vector (1/distance) = 0.0720315
  grid = 24 24 24
  stencil order = 5
  estimated absolute RMS force accuracy = 0.0344237
  estimated relative force accuracy = 0.000103666
  using double precision KISS FFT
  3d grid and FFT values/proc = 24389 13824
Neighbor list info ...
  update every 1 steps, delay 0 steps, check yes
  max neighbors/atom: 2000, page size: 100000
  master list distance cutoff = 14
  ghost atom cutoff = 14
  binsize = 7, bins = 58 58 58
  1 neighbor lists, perpetual/occasional/extra = 1 0 0
  (1) pair lj/cut/coul/long, perpetual
      attributes: half, newton on
      pair build: half/bin/newton
      stencil: half/bin/3d/newton
      bin: standard
Per MPI rank memory allocation (min/avg/max) = 18.17 | 18.17 | 18.17 Mbytes
Step Temp E_pair E_mol TotEng Press 
       0    483.84432    36.024871    4377.3726    7864.6969      2.06609 
      24    483.84432    4.0248254    4121.2445    7576.5689    2.3491858 
Loop time of 1.49589 on 1 procs for 24 steps with 2394 atoms

100.1% CPU use with 1 MPI tasks x no OpenMP threads

Minimization stats:
  Stopping criterion = linesearch alpha is zero
  Energy initial, next-to-last, final = 
           4413.397463      4125.26936982      4125.26936982
  Force two-norm initial, final = 844.769 94.0906
  Force max component initial, final = 378.144 45.2859
  Final line search alpha, max atom move = 1.01246e-12 4.58502e-11
  Iterations, force evaluations = 24 102

MPI task timing breakdown:
Section |  min time  |  avg time  |  max time  |%varavg| %total
---------------------------------------------------------------
Pair    | 0.7894     | 0.7894     | 0.7894     |   0.0 | 52.77
Bond    | 0.12894    | 0.12894    | 0.12894    |   0.0 |  8.62
Kspace  | 0.56609    | 0.56609    | 0.56609    |   0.0 | 37.84
Neigh   | 0.0062511  | 0.0062511  | 0.0062511  |   0.0 |  0.42
Comm    | 7.6771e-05 | 7.6771e-05 | 7.6771e-05 |   0.0 |  0.01
Output  | 0          | 0          | 0          |   0.0 |  0.00
Modify  | 0          | 0          | 0          |   0.0 |  0.00
Other   |            | 0.005141   |            |       |  0.34

Nlocal:    2394 ave 2394 max 2394 min
Histogram: 1 0 0 0 0 0 0 0 0 0
Nghost:    0 ave 0 max 0 min
Histogram: 1 0 0 0 0 0 0 0 0 0
Neighs:    181897 ave 181897 max 181897 min
Histogram: 1 0 0 0 0 0 0 0 0 0

Total # of neighbors = 181897
Ave neighs/atom = 75.9804
Ave special neighs/atom = 10.873
Neighbor list builds = 1
Dangerous builds = 0
write_dump all custom pysimm.dump.tmp id q x y z vx vy vz
quit


################################################################################
##################################    Init    ##################################
################################################################################
units           real
atom_style      full
pair_style      lj/cut/coul/long 12.0  12.0
kspace_style    pppm 1e-4
bond_style      harmonic
angle_style     harmonic
dihedral_style  fourier
improper_style  cvff
special_bonds   amber
pair_modify     mix arithmetic
read_data       temp.lmps
  orthogonal box = (-202.927 -202.927 -202.927) to (202.927 202.927 202.927)
  1 by 1 by 1 MPI processor grid
  reading atoms ...
  2446 atoms
  reading velocities ...
  2446 velocities
  scanning bonds ...
  3 = max bonds/atom
  scanning angles ...
  6 = max angles/atom
  scanning dihedrals ...
  10 = max dihedrals/atom
  scanning impropers ...
  2 = max impropers/atom
  reading bonds ...
  2680 bonds
  reading angles ...
  4653 angles
  reading dihedrals ...
  6858 dihedrals
  reading impropers ...
  752 impropers
  4 = max # of 1-2 neighbors
  7 = max # of 1-3 neighbors
  20 = max # of 1-4 neighbors
  22 = max # of special neighbors
  special bonds CPU = 0.0037868 secs
  read_data CPU = 0.05283 secs
################################################################################

min_style cg
minimize 1e-06 1e-06 1000000 10000000
WARNING: Using 'neigh_modify every 1 delay 0 check yes' setting during minimization (../min.cpp:190)
PPPM initialization ...
WARNING: System is not charge neutral, net charge = -0.000141 (../kspace.cpp:313)
  using 12-bit tables for long-range coulomb (../kspace.cpp:332)
  G vector (1/distance) = 0.0716043
  grid = 24 24 24
  stencil order = 5
  estimated absolute RMS force accuracy = 0.0347213
  estimated relative force accuracy = 0.000104562
  using double precision KISS FFT
  3d grid and FFT values/proc = 24389 13824
Neighbor list info ...
  update every 1 steps, delay 0 steps, check yes
  max neighbors/atom: 2000, page size: 100000
  master list distance cutoff = 14
  ghost atom cutoff = 14
  binsize = 7, bins = 58 58 58
  1 neighbor lists, perpetual/occasional/extra = 1 0 0
  (1) pair lj/cut/coul/long, perpetual
      attributes: half, newton on
      pair build: half/bin/newton
      stencil: half/bin/3d/newton
      bin: standard
Per MPI rank memory allocation (min/avg/max) = 18.18 | 18.18 | 18.18 Mbytes
Step Temp E_pair E_mol TotEng Press 
       0    530.88563    43.026597    4393.9433    8306.1071     1.790583 
      14    530.88563    21.620295    4172.0419    8062.7994    2.2196155 
Loop time of 1.47619 on 1 procs for 14 steps with 2446 atoms

100.0% CPU use with 1 MPI tasks x no OpenMP threads

Minimization stats:
  Stopping criterion = linesearch alpha is zero
  Energy initial, next-to-last, final = 
         4436.96987586      4193.66215498      4193.66215498
  Force two-norm initial, final = 842.357 110.87
  Force max component initial, final = 363.262 44.4018
  Final line search alpha, max atom move = 6.31079e-13 2.8021e-11
  Iterations, force evaluations = 14 87

MPI task timing breakdown:
Section |  min time  |  avg time  |  max time  |%varavg| %total
---------------------------------------------------------------
Pair    | 0.74763    | 0.74763    | 0.74763    |   0.0 | 50.65
Bond    | 0.13542    | 0.13542    | 0.13542    |   0.0 |  9.17
Kspace  | 0.58818    | 0.58818    | 0.58818    |   0.0 | 39.84
Neigh   | 0          | 0          | 0          |   0.0 |  0.00
Comm    | 3.4571e-05 | 3.4571e-05 | 3.4571e-05 |   0.0 |  0.00
Output  | 0          | 0          | 0          |   0.0 |  0.00
Modify  | 0          | 0          | 0          |   0.0 |  0.00
Other   |            | 0.004933   |            |       |  0.33

Nlocal:    2446 ave 2446 max 2446 min
Histogram: 1 0 0 0 0 0 0 0 0 0
Nghost:    0 ave 0 max 0 min
Histogram: 1 0 0 0 0 0 0 0 0 0
Neighs:    164275 ave 164275 max 164275 min
Histogram: 1 0 0 0 0 0 0 0 0 0

Total # of neighbors = 164275
Ave neighs/atom = 67.1607
Ave special neighs/atom = 10.8733
Neighbor list builds = 0
Dangerous builds = 0
write_dump all custom pysimm.dump.tmp id q x y z vx vy vz
quit


################################################################################
##################################    Init    ##################################
################################################################################
units           real
atom_style      full
pair_style      lj/cut/coul/long 12.0  12.0
kspace_style    pppm 1e-4
bond_style      harmonic
angle_style     harmonic
dihedral_style  fourier
improper_style  cvff
special_bonds   amber
pair_modify     mix arithmetic
read_data       temp.lmps
  orthogonal box = (-204.387 -204.387 -204.387) to (204.387 204.387 204.387)
  1 by 1 by 1 MPI processor grid
  reading atoms ...
  2498 atoms
  reading velocities ...
  2498 velocities
  scanning bonds ...
  3 = max bonds/atom
  scanning angles ...
  6 = max angles/atom
  scanning dihedrals ...
  10 = max dihedrals/atom
  scanning impropers ...
  2 = max impropers/atom
  reading bonds ...
  2737 bonds
  reading angles ...
  4752 angles
  reading dihedrals ...
  7004 dihedrals
  reading impropers ...
  768 impropers
  4 = max # of 1-2 neighbors
  7 = max # of 1-3 neighbors
  20 = max # of 1-4 neighbors
  22 = max # of special neighbors
  special bonds CPU = 0.00141001 secs
  read_data CPU = 0.022332 secs
################################################################################

min_style cg
minimize 1e-06 1e-06 1000000 10000000
WARNING: Using 'neigh_modify every 1 delay 0 check yes' setting during minimization (../min.cpp:190)
PPPM initialization ...
WARNING: System is not charge neutral, net charge = -0.000144 (../kspace.cpp:313)
  using 12-bit tables for long-range coulomb (../kspace.cpp:332)
  G vector (1/distance) = 0.071188
  grid = 24 24 24
  stencil order = 5
  estimated absolute RMS force accuracy = 0.0350121
  estimated relative force accuracy = 0.000105438
  using double precision KISS FFT
  3d grid and FFT values/proc = 24389 13824
Neighbor list info ...
  update every 1 steps, delay 0 steps, check yes
  max neighbors/atom: 2000, page size: 100000
  master list distance cutoff = 14
  ghost atom cutoff = 14
  binsize = 7, bins = 59 59 59
  1 neighbor lists, perpetual/occasional/extra = 1 0 0
  (1) pair lj/cut/coul/long, perpetual
      attributes: half, newton on
      pair build: half/bin/newton
      stencil: half/bin/3d/newton
      bin: standard
Per MPI rank memory allocation (min/avg/max) = 18.61 | 18.61 | 18.61 Mbytes
Step Temp E_pair E_mol TotEng Press 
       0    641.46329    38.506223    4991.8142    9804.7848    2.3079579 
      48    641.46329    11.282382    4470.3165    9256.0632    2.7549237 
Loop time of 1.86473 on 1 procs for 48 steps with 2498 atoms

100.1% CPU use with 1 MPI tasks x no OpenMP threads

Minimization stats:
  Stopping criterion = linesearch alpha is zero
  Energy initial, next-to-last, final = 
         5030.32044493      4481.59885822      4481.59885822
  Force two-norm initial, final = 851.336 105.681
  Force max component initial, final = 343.543 30.7336
  Final line search alpha, max atom move = 7.16138e-13 2.20095e-11
  Iterations, force evaluations = 48 157

MPI task timing breakdown:
Section |  min time  |  avg time  |  max time  |%varavg| %total
---------------------------------------------------------------
Pair    | 1.007      | 1.007      | 1.007      |   0.0 | 54.00
Bond    | 0.15981    | 0.15981    | 0.15981    |   0.0 |  8.57
Kspace  | 0.68388    | 0.68388    | 0.68388    |   0.0 | 36.67
Neigh   | 0.0071502  | 0.0071502  | 0.0071502  |   0.0 |  0.38
Comm    | 8.9169e-05 | 8.9169e-05 | 8.9169e-05 |   0.0 |  0.00
Output  | 0          | 0          | 0          |   0.0 |  0.00
Modify  | 0          | 0          | 0          |   0.0 |  0.00
Other   |            | 0.00678    |            |       |  0.36

Nlocal:    2498 ave 2498 max 2498 min
Histogram: 1 0 0 0 0 0 0 0 0 0
Nghost:    0 ave 0 max 0 min
Histogram: 1 0 0 0 0 0 0 0 0 0
Neighs:    202196 ave 202196 max 202196 min
Histogram: 1 0 0 0 0 0 0 0 0 0

Total # of neighbors = 202196
Ave neighs/atom = 80.9432
Ave special neighs/atom = 10.8735
Neighbor list builds = 1
Dangerous builds = 0
write_dump all custom pysimm.dump.tmp id q x y z vx vy vz
quit


################################################################################
##################################    Init    ##################################
################################################################################
units           real
atom_style      full
pair_style      lj/cut/coul/long 12.0  12.0
kspace_style    pppm 1e-4
bond_style      harmonic
angle_style     harmonic
dihedral_style  fourier
improper_style  cvff
special_bonds   amber
pair_modify     mix arithmetic
read_data       temp.lmps
  orthogonal box = (-205.827 -205.827 -205.827) to (205.827 205.827 205.827)
  1 by 1 by 1 MPI processor grid
  reading atoms ...
  2550 atoms
  reading velocities ...
  2550 velocities
  scanning bonds ...
  3 = max bonds/atom
  scanning angles ...
  6 = max angles/atom
  scanning dihedrals ...
  10 = max dihedrals/atom
  scanning impropers ...
  2 = max impropers/atom
  reading bonds ...
  2794 bonds
  reading angles ...
  4851 angles
  reading dihedrals ...
  7150 dihedrals
  reading impropers ...
  784 impropers
  4 = max # of 1-2 neighbors
  7 = max # of 1-3 neighbors
  20 = max # of 1-4 neighbors
  22 = max # of special neighbors
  special bonds CPU = 0.00146794 secs
  read_data CPU = 0.0412989 secs
################################################################################

min_style cg
minimize 1e-06 1e-06 1000000 10000000
WARNING: Using 'neigh_modify every 1 delay 0 check yes' setting during minimization (../min.cpp:190)
PPPM initialization ...
WARNING: System is not charge neutral, net charge = -0.000147 (../kspace.cpp:313)
  using 12-bit tables for long-range coulomb (../kspace.cpp:332)
  G vector (1/distance) = 0.0707822
  grid = 24 24 24
  stencil order = 5
  estimated absolute RMS force accuracy = 0.0352964
  estimated relative force accuracy = 0.000106294
  using double precision KISS FFT
  3d grid and FFT values/proc = 24389 13824
Neighbor list info ...
  update every 1 steps, delay 0 steps, check yes
  max neighbors/atom: 2000, page size: 100000
  master list distance cutoff = 14
  ghost atom cutoff = 14
  binsize = 7, bins = 59 59 59
  1 neighbor lists, perpetual/occasional/extra = 1 0 0
  (1) pair lj/cut/coul/long, perpetual
      attributes: half, newton on
      pair build: half/bin/newton
      stencil: half/bin/3d/newton
      bin: standard
Per MPI rank memory allocation (min/avg/max) = 18.24 | 18.24 | 18.24 Mbytes
Step Temp E_pair E_mol TotEng Press 
       0    568.90874    19.428489    4849.8657     9191.911    1.9525996 
      31    568.90874   -11.061684    4494.8926    8806.4478    2.3968742 
Loop time of 1.50572 on 1 procs for 31 steps with 2550 atoms

100.1% CPU use with 1 MPI tasks x no OpenMP threads

Minimization stats:
  Stopping criterion = linesearch alpha is zero
  Energy initial, next-to-last, final = 
         4869.29417975      4483.83096013      4483.83096013
  Force two-norm initial, final = 847.529 104.293
  Force max component initial, final = 405.172 37.1353
  Final line search alpha, max atom move = 1.13871e-12 4.22862e-11
  Iterations, force evaluations = 31 121

MPI task timing breakdown:
Section |  min time  |  avg time  |  max time  |%varavg| %total
---------------------------------------------------------------
Pair    | 0.814      | 0.814      | 0.814      |   0.0 | 54.06
Bond    | 0.13197    | 0.13197    | 0.13197    |   0.0 |  8.76
Kspace  | 0.55455    | 0.55455    | 0.55455    |   0.0 | 36.83
Neigh   | 0          | 0          | 0          |   0.0 |  0.00
Comm    | 3.7432e-05 | 3.7432e-05 | 3.7432e-05 |   0.0 |  0.00
Output  | 0          | 0          | 0          |   0.0 |  0.00
Modify  | 0          | 0          | 0          |   0.0 |  0.00
Other   |            | 0.00516    |            |       |  0.34

Nlocal:    2550 ave 2550 max 2550 min
Histogram: 1 0 0 0 0 0 0 0 0 0
Nghost:    0 ave 0 max 0 min
Histogram: 1 0 0 0 0 0 0 0 0 0
Neighs:    189076 ave 189076 max 189076 min
Histogram: 1 0 0 0 0 0 0 0 0 0

Total # of neighbors = 189076
Ave neighs/atom = 74.1475
Ave special neighs/atom = 10.8737
Neighbor list builds = 0
Dangerous builds = 0
write_dump all custom pysimm.dump.tmp id q x y z vx vy vz
quit


################################################################################
##################################    Init    ##################################
################################################################################
units           real
atom_style      full
pair_style      lj/cut/coul/long 12.0  12.0
kspace_style    pppm 1e-4
bond_style      harmonic
angle_style     harmonic
dihedral_style  fourier
improper_style  cvff
special_bonds   amber
pair_modify     mix arithmetic
read_data       temp.lmps
  orthogonal box = (-207.246 -207.246 -207.246) to (207.246 207.246 207.246)
  1 by 1 by 1 MPI processor grid
  reading atoms ...
  2602 atoms
  reading velocities ...
  2602 velocities
  scanning bonds ...
  3 = max bonds/atom
  scanning angles ...
  6 = max angles/atom
  scanning dihedrals ...
  10 = max dihedrals/atom
  scanning impropers ...
  2 = max impropers/atom
  reading bonds ...
  2851 bonds
  reading angles ...
  4950 angles
  reading dihedrals ...
  7296 dihedrals
  reading impropers ...
  800 impropers
  4 = max # of 1-2 neighbors
  7 = max # of 1-3 neighbors
  20 = max # of 1-4 neighbors
  22 = max # of special neighbors
  special bonds CPU = 0.00437403 secs
  read_data CPU = 0.036284 secs
################################################################################

min_style cg
minimize 1e-06 1e-06 1000000 10000000
WARNING: Using 'neigh_modify every 1 delay 0 check yes' setting during minimization (../min.cpp:190)
PPPM initialization ...
WARNING: System is not charge neutral, net charge = -0.00015 (../kspace.cpp:313)
  using 12-bit tables for long-range coulomb (../kspace.cpp:332)
  G vector (1/distance) = 0.0703864
  grid = 24 24 24
  stencil order = 5
  estimated absolute RMS force accuracy = 0.0355744
  estimated relative force accuracy = 0.000107131
  using double precision KISS FFT
  3d grid and FFT values/proc = 24389 13824
Neighbor list info ...
  update every 1 steps, delay 0 steps, check yes
  max neighbors/atom: 2000, page size: 100000
  master list distance cutoff = 14
  ghost atom cutoff = 14
  binsize = 7, bins = 60 60 60
  1 neighbor lists, perpetual/occasional/extra = 1 0 0
  (1) pair lj/cut/coul/long, perpetual
      attributes: half, newton on
      pair build: half/bin/newton
      stencil: half/bin/3d/newton
      bin: standard
Per MPI rank memory allocation (min/avg/max) = 18.67 | 18.67 | 18.67 Mbytes
Step Temp E_pair E_mol TotEng Press 
       0    431.09559   -45.905506    4738.0479     8034.464     1.554346 
      36    431.09559    14.431443    4291.9203    7648.6734     2.403351 
Loop time of 2.2418 on 1 procs for 36 steps with 2602 atoms

100.1% CPU use with 1 MPI tasks x no OpenMP threads

Minimization stats:
  Stopping criterion = linesearch alpha is zero
  Energy initial, next-to-last, final = 
         4692.14235561      4306.35175756      4306.35175756
  Force two-norm initial, final = 841.85 214.088
  Force max component initial, final = 403.058 97.6366
  Final line search alpha, max atom move = 6.52619e-13 6.37195e-11
  Iterations, force evaluations = 36 132

MPI task timing breakdown:
Section |  min time  |  avg time  |  max time  |%varavg| %total
---------------------------------------------------------------
Pair    | 1.2459     | 1.2459     | 1.2459     |   0.0 | 55.58
Bond    | 0.19175    | 0.19175    | 0.19175    |   0.0 |  8.55
Kspace  | 0.79596    | 0.79596    | 0.79596    |   0.0 | 35.51
Neigh   | 0          | 0          | 0          |   0.0 |  0.00
Comm    | 4.7445e-05 | 4.7445e-05 | 4.7445e-05 |   0.0 |  0.00
Output  | 0          | 0          | 0          |   0.0 |  0.00
Modify  | 0          | 0          | 0          |   0.0 |  0.00
Other   |            | 0.008111   |            |       |  0.36

Nlocal:    2602 ave 2602 max 2602 min
Histogram: 1 0 0 0 0 0 0 0 0 0
Nghost:    0 ave 0 max 0 min
Histogram: 1 0 0 0 0 0 0 0 0 0
Neighs:    213752 ave 213752 max 213752 min
Histogram: 1 0 0 0 0 0 0 0 0 0

Total # of neighbors = 213752
Ave neighs/atom = 82.1491
Ave special neighs/atom = 10.8739
Neighbor list builds = 0
Dangerous builds = 0
write_dump all custom pysimm.dump.tmp id q x y z vx vy vz
quit
