pySIMM System Object

1926 atoms
2110 bonds
3663 angles
5398 dihedrals
592 impropers

9 atom types
12 bond types
20 angle types
8 dihedral types
4 improper types

-187.005982 187.005982 xlo xhi
-187.005982 187.005982 ylo yhi
-187.005982 187.005982 zlo zhi

Masses

   1	14.01	# n
   2	12.01	# c
   3	12.01	# ca
   4	1.008	# hn
   5	16.0	# o
   6	1.008	# ha
   7	12.01	# c3
   8	14.01	# nh
   9	1.008	# hc

Pair Coeffs

   1	0.17	3.249998523775958	# n
   2	0.086	3.3996695084235347	# c
   3	0.086	3.3996695084235347	# ca
   4	0.0157	1.069078461768407	# hn
   5	0.21	2.959921901149463	# o
   6	0.015	2.59964245953351	# ha
   7	0.1094	3.3996695084235347	# c3
   8	0.17	3.249998523775958	# nh
   9	0.0157	2.649532787749369	# hc

Bond Coeffs

   1	384.2	1.4121	# ca,n
   2	404.6	1.0121	# hn,nh
   3	403.2	1.0129	# hn,n
   4	417.9	1.3859	# ca,nh
   5	461.1	1.3984	# ca,ca
   6	427.6	1.3789	# c,n
   7	345.9	1.4906	# c,ca
   8	345.8	1.086	# ca,ha
   9	321.0	1.5156	# c3,ca
  10	330.6	1.0969	# c3,hc
  11	637.7	1.2183	# c,o
  12	452.5	1.4016	# n,nh

Angle Coeffs

   1	63.53	120.77	# c3,ca,ca
   2	39.4	107.58	# hc,c3,hc
   3	66.62	120.02	# ca,ca,ca
   4	48.42	116.07	# ca,nh,hn
   5	48.18	119.88	# ca,ca,ha
   6	63.74	127.08	# c,n,c
   7	67.87	120.19	# ca,ca,n
   8	40.07	115.12	# hn,nh,hn
   9	68.72	122.6	# ca,c,o
  10	48.33	117.55	# c,n,hn
  11	64.28	120.33	# c,ca,ca
  12	67.68	115.25	# ca,c,n
  13	63.56	112.24	# ca,c3,ca
  14	74.22	123.05	# n,c,o
  15	63.82	123.71	# c,n,ca
  16	46.8	110.47	# ca,c3,hc
  17	68.29	120.95	# ca,ca,nh
  18	67.01	118.71	# c,n,nh
  19	67.61	116.03	# ca,nh,n
  20	50.88	108.17	# hn,nh,n

Dihedral Coeffs

   1	1	3.625	2	180	# X,ca,ca,X
   2	1	1.0	2	180	# X,c,ca,X
   3	1	0.0	2	0	# X,c3,ca,X
   4	1	2.5	2	180	# X,c,n,X
   5	1	1.05	2	180	# X,ca,nh,X
   6	1	0.45	2	180	# X,ca,n,X
   7	2	2.5	2	180	2.0	1	0	# hn,n,c,o
   8	1	1.1	2	0	# X,n,nh,X

Improper Coeffs

   1	1.1	-1	2	# ca,X,X,ha
   2	10.5	-1	2	# c,X,X,o
   3	1.1	-1	2	# ca,ca,ca,c3
   4	1.1	-1	2	# n,X,X,hn

Atoms

   1	1	1	0.452895	41.9927	8.77672	-42.1395
   2	1	2	0.074505	40.7692	8.12812	-42.2817
   3	1	3	0.001656	39.9973	9.01507	-43.1902
   4	1	2	0.074191	42.1319	9.92422	-42.9145
   5	1	3	0.036519	40.8057	10.0757	-43.5686
   6	1	5	-0.399533	40.406	7.06246	-41.8081
   7	1	5	-0.398173	43.1046	10.651	-43.0441
   8	1	3	-0.067442	38.6618	8.93009	-43.5988
   9	1	3	-0.068422	40.3257	11.1008	-44.3908
  10	1	3	-0.213282	38.9797	11.0359	-44.8093
  11	1	3	-0.047343	38.1447	9.96424	-44.4101
  12	1	6	0.159476	38.0398	8.10773	-43.2558
  13	1	6	0.16033	40.9698	11.9337	-44.6639
  14	1	6	0.171114	38.5712	11.84	-45.4169
  15	1	7	-0.06383	36.6703	9.97615	-44.7888
  16	1	3	0.009736	35.8884	10.9496	-43.9151
  17	1	3	-0.108991	35.2108	12.0453	-44.4954
  18	1	3	-0.114952	34.5495	12.9417	-43.6443
  19	1	3	-0.090153	35.878	10.7784	-42.5084
  20	1	3	-0.148302	35.2142	11.6954	-41.6693
  21	1	3	-0.073574	34.5578	12.7753	-42.2718
  22	1	2	0.475719	33.8421	13.9255	-41.6607
  23	1	1	0.026291	33.4515	14.7293	-42.7217
  24	1	2	0.472085	33.8174	14.2009	-43.9524
  25	1	3	-0.022377	32.856	16.0113	-42.5523
  26	1	3	-0.088654	31.4586	16.152	-42.3533
  27	1	3	0.02488	30.9078	17.448	-42.1935
  28	1	3	0.040063	33.6904	17.1505	-42.5741
  29	1	3	-0.361597	33.13	18.4231	-42.4076
  30	1	3	0.096629	31.7512	18.5796	-42.2194
  31	1	7	-0.018671	30.5391	14.9269	-42.3603
  32	1	8	-0.317996	29.5376	17.6315	-42.017
  33	1	6	0.16694	35.2281	11.5843	-40.5868
  34	1	6	0.13386	36.4115	9.94362	-42.0615
  35	1	6	0.147907	35.2157	12.2121	-45.5698
  36	1	5	-0.491298	33.6542	14.6867	-45.0592
  37	1	5	-0.47861	33.7033	14.1402	-40.4666
  38	1	7	-0.160952	35.1964	17.0385	-42.7829
  39	1	9	0.05529	35.701	17.9978	-42.6152
  40	1	9	0.069029	35.4276	16.7198	-43.8071
  41	1	9	0.053284	35.6448	16.3171	-42.0887
  42	1	7	-0.244214	31.1916	19.9816	-42.0338
  43	1	9	0.063506	36.5653	10.2413	-45.8485
  44	1	9	0.093434	36.2408	8.97118	-44.6909
  45	1	6	0.232522	33.7733	19.2967	-42.4184
  46	1	9	0.020884	31.9662	20.754	-42.1154
  47	1	9	0.114771	30.7214	20.0779	-41.0482
  48	1	9	0.181647	30.4257	20.1879	-42.7901
  49	1	9	0.069456	30.0998	14.7821	-43.3552
  50	1	9	0.029017	29.7146	15.031	-41.646
  51	1	9	-0.058945	31.0617	14.002	-42.0901
  52	1	4	0.329672	28.994	16.8733	-41.6074
  53	1	1	0.452895	34.0506	16.4074	-38.3247
  54	1	2	0.074505	34.0229	15.5921	-37.1958
  55	1	3	0.001656	35.4243	15.608	-36.7033
  56	1	2	0.074191	35.3051	16.9368	-38.6199
  57	1	3	0.036519	36.1826	16.4041	-37.546
  58	1	5	-0.399533	33.0967	14.9453	-36.7341
  59	1	5	-0.398173	35.6468	17.6409	-39.5574
  60	1	3	-0.067442	35.9962	14.9413	-35.6139
  61	1	3	-0.068422	37.5554	16.5798	-37.3428
  62	1	3	-0.213282	38.1498	15.9227	-36.245
  63	1	3	-0.047343	37.3804	15.1033	-35.3831
  64	1	6	0.159476	35.3786	14.3116	-34.9786
  65	1	6	0.16033	38.1377	17.1967	-38.0233
  66	1	6	0.171114	39.2176	16.0349	-36.0711
  67	1	7	-0.06383	38.0538	14.3872	-34.2193
  68	1	3	0.009736	39.2094	13.5026	-34.6704
  69	1	3	-0.108991	38.9937	12.5156	-35.6569
  70	1	3	-0.114952	40.0787	11.7198	-36.0465
  71	1	3	-0.090153	40.4972	13.6639	-34.1015
  72	1	3	-0.148302	41.5756	12.8493	-34.5057
  73	1	3	-0.073574	41.3326	11.8795	-35.4868
  74	1	2	0.475719	42.2468	10.8772	-36.1001
  75	1	1	0.026291	41.4659	10.1692	-37.0029
  76	1	2	0.472085	40.1512	10.6142	-37.0384
  77	1	3	-0.022377	41.9484	9.08627	-37.79
  78	1	3	-0.088654	42.3402	9.2926	-39.1359
  79	1	3	0.02488	42.7261	8.17847	-39.9265
  80	1	3	0.040063	41.995	7.79579	-37.222
  81	1	3	-0.361597	42.4315	6.71376	-37.9974
  82	1	3	0.096629	42.7898	6.89351	-39.3403
  83	1	7	-0.018671	42.3527	10.7105	-39.7184
  84	1	8	-0.317996	43.0101	8.29506	-41.2908
  85	1	6	0.16694	42.5674	12.9622	-34.0722
  86	1	6	0.13386	40.6613	14.4221	-33.3404
  87	1	6	0.147907	38.0154	12.3731	-36.1107
  88	1	5	-0.491298	39.2267	10.1826	-37.7064
  89	1	5	-0.47861	43.4252	10.7121	-35.8325
  90	1	7	-0.160952	41.5734	7.54488	-35.7792
  91	1	9	0.05529	40.5419	7.87623	-35.6061
  92	1	9	0.069029	42.2273	8.08159	-35.0804
  93	1	9	0.053284	41.621	6.4805	-35.5192
  94	1	7	-0.244214	43.1936	5.67003	-40.1532
  95	1	9	0.063506	38.4043	15.1345	-33.4964
  96	1	9	0.093434	37.3261	13.77	-33.6773
  97	1	6	0.232522	42.4587	5.72293	-37.5567
  98	1	9	0.020884	44.0926	5.85764	-40.7533
  99	1	9	0.114771	42.3797	5.37157	-40.8268
 100	1	9	0.181647	43.4112	4.81371	-39.5045
 101	1	9	0.069456	43.1898	10.8494	-40.413
 102	1	9	0.029017	42.4789	11.4846	-38.9532
 103	1	9	-0.058945	41.4189	10.9224	-40.2537
 104	1	4	0.329672	43.3884	7.47381	-41.7363
 105	1	1	0.452895	17.2573	13.8219	-35.9935
 106	1	2	0.074505	18.2369	12.8351	-35.9269
 107	1	3	0.001656	19.5142	13.5882	-36.0071
 108	1	2	0.074191	17.752	15.1194	-36.0869
 109	1	3	0.036519	19.2296	14.9409	-36.1006
 110	1	5	-0.399533	18.1072	11.6331	-35.7577
 111	1	5	-0.398173	17.138	16.174	-36.069
 112	1	3	-0.067442	20.8298	13.1168	-35.9449
 113	1	3	-0.068422	20.2522	15.896	-36.1386
 114	1	3	-0.213282	21.5877	15.4403	-36.0775
 115	1	3	-0.047343	21.8828	14.0571	-35.9835
 116	1	6	0.159476	21.0188	12.0512	-35.8428
 117	1	6	0.16033	20.0124	16.9558	-36.193
 118	1	6	0.171114	22.3978	16.1664	-36.0851
 119	1	7	-0.06383	23.3232	13.5737	-35.8487
 120	1	3	0.009736	24.313	14.2645	-36.7801
 121	1	3	-0.108991	25.4587	14.8898	-36.2421
 122	1	3	-0.114952	26.3775	15.4666	-37.1275
 123	1	3	-0.090153	24.1167	14.2399	-38.1831
 124	1	3	-0.148302	25.0538	14.8314	-39.0582
 125	1	3	-0.073574	26.1854	15.4388	-38.4961
 126	1	2	0.475719	27.3473	16.1161	-39.14
 127	1	1	0.026291	28.1731	16.5076	-38.0938
 128	1	2	0.472085	27.6635	16.1584	-36.8514
 129	1	3	-0.022377	29.4005	17.2063	-38.2728
 130	1	3	-0.088654	30.5822	16.5081	-38.6243
 131	1	3	0.02488	31.7972	17.224	-38.7792
 132	1	3	0.040063	29.4281	18.6035	-38.082
 133	1	3	-0.361597	30.6341	19.2979	-38.2351
 134	1	3	0.096629	31.8122	18.6273	-38.5884
 135	1	7	-0.018671	30.5475	14.9794	-38.7681
 136	1	8	-0.317996	32.9473	16.546	-39.187
 137	1	6	0.16694	24.9144	14.8095	-40.1371
 138	1	6	0.13386	23.2359	13.7518	-38.5926
 139	1	6	0.147907	25.6435	14.914	-35.1704
 140	1	5	-0.491298	28.1333	16.3898	-35.7506
 141	1	5	-0.47861	27.5251	16.2766	-40.3384
 142	1	7	-0.160952	28.1743	19.385	-37.7098
 143	1	9	0.05529	28.3463	20.4677	-37.7406
 144	1	9	0.069029	27.8456	19.1342	-36.6934
 145	1	9	0.053284	27.3503	19.1679	-38.4006
 146	1	7	-0.244214	33.0638	19.467	-38.7971
 147	1	9	0.063506	23.6369	13.7056	-34.8054
 148	1	9	0.093434	23.3746	12.4929	-36.0316
 149	1	6	0.232522	30.6546	20.3732	-38.0909
 150	1	9	0.020884	32.8384	20.54	-38.8292
 151	1	9	0.114771	33.5514	19.2125	-39.7451
 152	1	9	0.181647	33.787	19.3049	-37.991
 153	1	9	0.069456	30.6973	14.499	-37.793
 154	1	9	0.029017	31.3162	14.5959	-39.4454
 155	1	9	-0.058945	29.5946	14.6158	-39.1677
 156	1	4	0.329672	32.828	15.6352	-39.6193
 157	1	1	0.452895	0.814707	16.4249	-34.1862
 158	1	2	0.074505	1.60136	16.4145	-35.3355
 159	1	3	0.001656	2.85097	17.1059	-34.9242
 160	1	2	0.074191	1.42078	17.0088	-33.0785
 161	1	3	0.036519	2.74495	17.4561	-33.5873
 162	1	5	-0.399533	1.37316	15.8967	-36.4177
 163	1	5	-0.398173	1.02371	17.0501	-31.9251
 164	1	3	-0.067442	4.00871	17.3767	-35.6632
 165	1	3	-0.068422	3.79476	18.093	-32.9161
 166	1	3	-0.213282	4.9717	18.3736	-33.6432
 167	1	3	-0.047343	5.08345	18.0199	-35.0102
 168	1	6	0.159476	4.07317	17.0822	-36.7078
 169	1	6	0.16033	3.6964	18.3526	-31.8641
 170	1	6	0.171114	5.80412	18.8622	-33.1414
 171	1	7	-0.06383	6.36802	18.3192	-35.7744
 172	1	3	0.009736	7.37905	17.1732	-35.8214
 173	1	3	-0.108991	8.6264	17.4069	-36.4426
 174	1	3	-0.114952	9.55095	16.3559	-36.5057
 175	1	3	-0.090153	7.09866	15.8914	-35.2769
 176	1	3	-0.148302	8.04213	14.8458	-35.3552
 177	1	3	-0.073574	9.2657	15.11	-35.9824
 178	1	2	0.475719	10.4363	14.2241	-36.226
 179	1	1	0.026291	11.3688	15.0116	-36.8877
 180	1	2	0.472085	10.9172	16.3091	-37.0937
 181	1	3	-0.022377	12.6413	14.5305	-37.313
 182	1	3	-0.088654	13.6817	14.3261	-36.3734
 183	1	3	0.02488	14.9238	13.7866	-36.7987
 184	1	3	0.040063	12.8424	14.2189	-38.6733
 185	1	3	-0.361597	14.076	13.702	-39.0879
 186	1	3	0.096629	15.112	13.4686	-38.1707
 187	1	7	-0.018671	13.4341	14.6691	-34.8958
 188	1	8	-0.317996	15.8898	13.5363	-35.8173
 189	1	6	0.16694	7.83063	13.8599	-34.9458
 190	1	6	0.13386	6.14677	15.6935	-34.7928
 191	1	6	0.147907	8.87169	18.3764	-36.8706
 192	1	5	-0.491298	11.4942	17.2299	-37.6457
 193	1	5	-0.47861	10.5368	13.0535	-35.8984
 194	1	7	-0.160952	11.7384	14.3996	-39.7087
 195	1	9	0.05529	11.4974	15.461	-39.8457
 196	1	9	0.069029	10.8227	13.8764	-39.4067
 197	1	9	0.053284	12.0292	14.0024	-40.6887
 198	1	7	-0.244214	16.3833	12.8307	-38.7158
 199	1	9	0.063506	6.11488	18.6092	-36.8024
 200	1	9	0.093434	6.8511	19.2026	-35.3375
 201	1	6	0.232522	14.2171	13.4589	-40.1356
 202	1	9	0.020884	16.7034	11.9856	-38.0958
 203	1	9	0.114771	17.1994	13.5602	-38.7722
 204	1	9	0.181647	16.2336	12.4324	-39.7252
 205	1	9	0.069456	12.8559	13.8745	-34.4067
 206	1	9	0.029017	12.8719	15.6052	-34.7896
 207	1	9	-0.058945	14.3561	14.8084	-34.3188
 208	1	4	0.329672	15.6455	13.7999	-34.8746
 209	1	1	0.452895	-12.9584	17.0678	-25.1083
 210	1	2	0.074505	-11.9365	17.6222	-25.8733
 211	1	3	0.001656	-10.7652	16.7482	-25.6045
 212	1	2	0.074191	-12.5942	15.9293	-24.3976
 213	1	3	0.036519	-11.1579	15.739	-24.7388
 214	1	5	-0.399533	-11.9524	18.6416	-26.544
 215	1	5	-0.398173	-13.2453	15.2997	-23.5798
 216	1	3	-0.067442	-9.43211	16.8899	-26.0109
 217	1	3	-0.068422	-10.241	14.7991	-24.2556
 218	1	3	-0.213282	-8.89403	14.9196	-24.6597
 219	1	3	-0.047343	-8.48228	15.9668	-25.5211
 220	1	6	0.159476	-9.13914	17.7168	-26.6536
 221	1	6	0.16033	-10.5624	14.025	-23.562
 222	1	6	0.171114	-8.16077	14.2166	-24.271
 223	1	7	-0.06383	-7.00446	16.1493	-25.8495
 224	1	3	0.009736	-6.64969	15.9336	-27.3164
 225	1	3	-0.108991	-5.69839	16.7785	-27.9305
 226	1	3	-0.114952	-5.34028	16.5218	-29.2603
 227	1	3	-0.090153	-7.21496	14.86	-28.049
 228	1	3	-0.148302	-6.84353	14.6214	-29.3893
 229	1	3	-0.073574	-5.89467	15.4737	-29.9697
 230	1	2	0.475719	-5.28515	15.4605	-31.3283
 231	1	1	0.026291	-4.38231	16.5152	-31.3424
 232	1	2	0.472085	-4.35904	17.2111	-30.1414
 233	1	3	-0.022377	-3.57716	16.8484	-32.47
 234	1	3	-0.088654	-2.37656	16.142	-32.7269
 235	1	3	0.02488	-1.59295	16.4774	-33.8611
 236	1	3	0.040063	-3.99475	17.8807	-33.3348
 237	1	3	-0.361597	-3.21993	18.1958	-34.4587
 238	1	3	0.096629	-2.03428	17.5014	-34.7372
 239	1	7	-0.018671	-1.94596	15.0338	-31.7545
 240	1	8	-0.317996	-0.422282	15.7551	-34.1052
 241	1	6	0.16694	-7.26653	13.7949	-29.9569
 242	1	6	0.13386	-7.93673	14.2018	-27.5721
 243	1	6	0.147907	-5.23342	17.5992	-27.3889
 244	1	5	-0.491298	-3.68874	18.1858	-29.8481
 245	1	5	-0.47861	-5.51976	14.6608	-32.2189
 246	1	7	-0.160952	-5.28147	18.6579	-33.0855
 247	1	9	0.05529	-5.50696	19.3469	-33.9085
 248	1	9	0.069029	-5.20455	19.2566	-32.1691
 249	1	9	0.053284	-6.14003	17.9827	-32.9829
 250	1	7	-0.244214	-1.29319	17.8639	-36.0164
 251	1	9	0.063506	-6.70354	17.1592	-25.5418
 252	1	9	0.093434	-6.39583	15.4706	-25.239
 253	1	6	0.232522	-3.55035	18.9847	-35.1267
 254	1	9	0.020884	-0.389822	18.4471	-35.801
 255	1	9	0.114771	-1.9165	18.462	-36.6908
 256	1	9	0.181647	-1.00581	16.9625	-36.5723
 257	1	9	0.069456	-2.69574	14.2334	-31.7185
 258	1	9	0.029017	-1.83402	15.4334	-30.7384
 259	1	9	-0.058945	-0.992753	14.5577	-32.0116
 260	1	4	0.329672	-0.270232	14.9626	-33.4984
 261	1	1	0.452895	-28.7132	21.258	-19.5078
 262	1	2	0.074505	-28.1057	21.2676	-20.7601
 263	1	3	0.001656	-26.6514	21.2529	-20.4572
 264	1	2	0.074191	-27.8262	21.2438	-18.4367
 265	1	3	0.036519	-26.4852	21.2346	-19.0811
 266	1	5	-0.399533	-28.6237	21.3554	-21.8621
 267	1	5	-0.398173	-28.0687	21.3519	-17.2457
 268	1	3	-0.067442	-25.5581	21.3331	-21.3275
 269	1	3	-0.068422	-25.212	21.2798	-18.5019
 270	1	3	-0.213282	-24.096	21.3601	-19.3628
 271	1	3	-0.047343	-24.2626	21.3949	-20.7693
 272	1	6	0.159476	-25.7175	21.3852	-22.4018
 273	1	6	0.16033	-25.1008	21.2828	-17.4196
 274	1	6	0.171114	-23.0972	21.4234	-18.9361
 275	1	7	-0.06383	-23.0537	21.5944	-21.6757
 276	1	3	0.009736	-22.2823	20.3344	-22.063
 277	1	3	-0.108991	-21.286	20.4555	-23.0552
 278	1	3	-0.114952	-20.5337	19.3242	-23.3902
 279	1	3	-0.090153	-22.5002	19.077	-21.4405
 280	1	3	-0.148302	-21.7263	17.9485	-21.7922
 281	1	3	-0.073574	-20.7392	18.1051	-22.7753
 282	1	2	0.475719	-19.7427	17.1383	-23.3214
 283	1	1	0.026291	-18.9864	17.8617	-24.2356
 284	1	2	0.472085	-19.4106	19.1783	-24.3499
 285	1	3	-0.022377	-17.8645	17.3506	-24.952
 286	1	3	-0.088654	-16.5495	17.6583	-24.5251
 287	1	3	0.02488	-15.4372	17.2913	-25.3275
 288	1	3	0.040063	-18.0711	16.6253	-26.1421
 289	1	3	-0.361597	-16.9673	16.2407	-26.9145
 290	1	3	0.096629	-15.659	16.5844	-26.5402
 291	1	7	-0.018671	-16.3547	18.4313	-23.2106
 292	1	8	-0.317996	-14.1793	17.7389	-24.9059
 293	1	6	0.16694	-21.8768	16.9854	-21.3082
 294	1	6	0.13386	-23.2605	18.9709	-20.6718
 295	1	6	0.147907	-21.0859	21.4073	-23.5424
 296	1	5	-0.491298	-18.9452	20.0628	-25.0474
 297	1	5	-0.47861	-19.604	15.9749	-22.985
 298	1	7	-0.160952	-19.4724	16.2895	-26.6368
 299	1	9	0.05529	-19.4482	15.7187	-27.573
 300	1	9	0.069029	-20.0522	17.2017	-26.825
 301	1	9	0.053284	-20.0156	15.6839	-25.9007
 302	1	7	-0.244214	-14.5481	16.2218	-27.5179
 303	1	9	0.063506	-23.3758	22.1061	-22.592
 304	1	9	0.093434	-22.3592	22.2933	-21.1919
 305	1	6	0.232522	-17.1323	15.7029	-27.8429
 306	1	9	0.020884	-14.9468	15.8239	-28.4593
 307	1	9	0.114771	-13.8871	15.4529	-27.1022
 308	1	9	0.181647	-13.9538	17.1072	-27.7783
 309	1	9	0.069456	-17.0409	18.0755	-22.4318
 310	1	9	0.029017	-16.5407	19.5025	-23.3585
 311	1	9	-0.058945	-15.3486	18.326	-22.7873
 312	1	4	0.329672	-14.1407	18.2055	-24.0115
 313	1	1	0.452895	-39.2039	25.0692	-7.59397
 314	1	2	0.074505	-38.8312	25.4077	-8.89445
 315	1	3	0.001656	-38.7975	24.107	-9.61477
 316	1	2	0.074191	-39.356	23.7025	-7.38343
 317	1	3	0.036519	-39.1027	23.0965	-8.71703
 318	1	5	-0.399533	-38.5354	26.5005	-9.35154
 319	1	5	-0.398173	-39.5491	23.1093	-6.334
 320	1	3	-0.067442	-38.5255	23.8328	-10.9612
 321	1	3	-0.068422	-39.1361	21.7549	-9.11378
 322	1	3	-0.213282	-38.87	21.4584	-10.4678
 323	1	3	-0.047343	-38.5732	22.4883	-11.3936
 324	1	6	0.159476	-38.3001	24.644	-11.6489
 325	1	6	0.16033	-39.3748	20.9751	-8.39336
 326	1	6	0.171114	-38.9048	20.4244	-10.8051
 327	1	7	-0.06383	-38.3501	22.1467	-12.8632
 328	1	3	0.009736	-36.9373	21.7018	-13.2401
 329	1	3	-0.108991	-36.6963	21.3278	-14.5806
 330	1	3	-0.114952	-35.4035	20.9297	-14.9438
 331	1	3	-0.090153	-35.8722	21.6646	-12.3018
 332	1	3	-0.148302	-34.5769	21.2578	-12.6889
 333	1	3	-0.073574	-34.372	20.8933	-14.0262
 334	1	2	0.475719	-33.1369	20.4518	-14.7336
 335	1	1	0.026291	-33.5138	20.2613	-16.0572
 336	1	2	0.472085	-34.8622	20.5176	-16.2656
 337	1	3	-0.022377	-32.6187	19.8833	-17.1009
 338	1	3	-0.088654	-31.7586	20.8424	-17.6923
 339	1	3	0.02488	-30.9068	20.4614	-18.7612
 340	1	3	0.040063	-32.6259	18.5531	-17.5703
 341	1	3	-0.361597	-31.793	18.1924	-18.6374
 342	1	3	0.096629	-30.9465	19.1293	-19.2462
 343	1	7	-0.018671	-31.7403	22.2797	-17.1493
 344	1	8	-0.317996	-30.0998	21.4422	-19.3441
 345	1	6	0.16694	-33.7542	21.2325	-11.9769
 346	1	6	0.13386	-36.0406	21.9544	-11.2684
 347	1	6	0.147907	-37.489	21.3522	-15.3252
 348	1	5	-0.491298	-35.49	20.4489	-17.3093
 349	1	5	-0.47861	-32.0292	20.3242	-14.241
 350	1	7	-0.160952	-33.541	17.4953	-16.9659
 351	1	9	0.05529	-33.2782	16.4876	-17.3104
 352	1	9	0.069029	-34.5858	17.6771	-17.2479
 353	1	9	0.053284	-33.4772	17.4891	-15.8709
 354	1	7	-0.244214	-30.1436	18.6646	-20.4541
 355	1	9	0.063506	-39.0558	21.3575	-13.1529
 356	1	9	0.093434	-38.6222	23.012	-13.4811
 357	1	6	0.232522	-31.8216	17.1748	-19.0143
 358	1	9	0.020884	-30.4884	17.6902	-20.8216
 359	1	9	0.114771	-29.0804	18.5613	-20.2102
 360	1	9	0.181647	-30.2468	19.3711	-21.2878
 361	1	9	0.069456	-31.0987	22.3433	-16.2601
 362	1	9	0.029017	-32.7419	22.6229	-16.8634
 363	1	9	-0.058945	-31.3718	23.0136	-17.8762
 364	1	4	0.329672	-30.2301	22.3815	-18.9974
 365	1	1	0.452895	-47.3682	23.8449	7.2897
 366	1	2	0.074505	-47.7959	23.8394	5.96447
 367	1	3	0.001656	-46.565	23.5434	5.18668
 368	1	2	0.074191	-46.0141	23.5745	7.45853
 369	1	3	0.036519	-45.5087	23.3876	6.07051
 370	1	5	-0.399533	-48.9276	23.9651	5.52326
 371	1	5	-0.398173	-45.3972	23.3924	8.49553
 372	1	3	-0.067442	-46.4041	23.3531	3.80903
 373	1	3	-0.068422	-44.2298	23.0408	5.61924
 374	1	3	-0.213282	-44.0466	22.8452	4.23283
 375	1	3	-0.047343	-45.1258	22.9935	3.32753
 376	1	6	0.159476	-47.2575	23.4511	3.14275
 377	1	6	0.16033	-43.4156	22.9039	6.32787
 378	1	6	0.171114	-43.0672	22.5539	3.85893
 379	1	7	-0.06383	-44.9249	22.6899	1.84639
 380	1	3	0.009736	-44.2296	23.7735	1.02363
 381	1	3	-0.108991	-43.9489	23.4934	-0.331719
 382	1	3	-0.114952	-43.3323	24.4827	-1.10715
 383	1	3	-0.090153	-43.8836	25.0409	1.56206
 384	1	3	-0.148302	-43.2613	26.0243	0.76213
 385	1	3	-0.073574	-42.9966	25.7136	-0.578674
 386	1	2	0.475719	-42.4101	26.5413	-1.67073
 387	1	1	0.026291	-42.4493	25.7413	-2.80601
 388	1	2	0.472085	-42.9748	24.4826	-2.55012
 389	1	3	-0.022377	-42.1014	26.1914	-4.11281
 390	1	3	-0.088654	-40.825	25.9159	-4.66352
 391	1	3	0.02488	-40.5334	26.3113	-5.99537
 392	1	3	0.040063	-43.0671	26.8871	-4.86962
 393	1	3	-0.361597	-42.7523	27.3137	-6.16515
 394	1	3	0.096629	-41.5012	27.039	-6.73252
 395	1	7	-0.018671	-39.7898	25.163	-3.81813
 396	1	8	-0.317996	-39.282	26.0053	-6.54067
 397	1	6	0.16694	-43.0053	27.0026	1.16441
 398	1	6	0.13386	-44.104	25.2743	2.6
 399	1	6	0.147907	-44.2155	22.538	-0.77833
 400	1	5	-0.491298	-43.1743	23.5757	-3.33934
 401	1	5	-0.47861	-42.0375	27.699	-1.5799
 402	1	7	-0.160952	-44.4496	27.1996	-4.30928
 403	1	9	0.05529	-45.0955	27.6725	-5.05888
 404	1	9	0.069029	-44.3803	27.8871	-3.45702
 405	1	9	0.053284	-44.9575	26.2868	-3.97373
 406	1	7	-0.244214	-41.234	27.5881	-8.12557
 407	1	9	0.063506	-44.3526	21.7577	1.75536
 408	1	9	0.093434	-45.8965	22.4723	1.38445
 409	1	6	0.232522	-43.4884	27.8685	-6.73874
 410	1	9	0.020884	-41.9492	28.3746	-8.39688
 411	1	9	0.114771	-41.3111	26.8002	-8.88289
 412	1	9	0.181647	-40.2335	28.0337	-8.18924
 413	1	9	0.069456	-40.0083	24.0871	-3.80763
 414	1	9	0.029017	-39.7884	25.5138	-2.77876
 415	1	9	-0.058945	-38.7628	25.2918	-4.18161
 416	1	4	0.329672	-38.5838	25.7126	-5.87134
 417	1	1	0.452895	-51.921	27.2602	23.3694
 418	1	2	0.074505	-51.2716	26.0579	23.0965
 419	1	3	0.001656	-51.4132	25.9002	21.6222
 420	1	2	0.074191	-52.4483	27.8995	22.2519
 421	1	3	0.036519	-52.1051	26.9942	21.1256
 422	1	5	-0.399533	-50.8028	25.2456	23.8802
 423	1	5	-0.398173	-53.1184	28.9194	22.1954
 424	1	3	-0.067442	-51.0191	24.8466	20.7859
 425	1	3	-0.068422	-52.4353	27.0975	19.7707
 426	1	3	-0.213282	-52.0361	26.0531	18.912
 427	1	3	-0.047343	-51.3303	24.9309	19.4092
 428	1	6	0.159476	-50.5021	23.9843	21.1992
 429	1	6	0.16033	-52.9931	27.9561	19.4041
 430	1	6	0.171114	-52.2813	26.11	17.8544
 431	1	7	-0.06383	-50.9303	23.8107	18.4566
 432	1	3	0.009736	-50.0523	24.3046	17.3107
 433	1	3	-0.108991	-50.5633	24.3825	15.9951
 434	1	3	-0.114952	-49.7102	24.833	14.976
 435	1	3	-0.090153	-48.7124	24.6834	17.5684
 436	1	3	-0.148302	-47.8695	25.1297	16.5286
 437	1	3	-0.073574	-48.3998	25.1899	15.2331
 438	1	2	0.475719	-47.7646	25.5948	13.9474
 439	1	1	0.026291	-48.7537	25.4558	12.9819
 440	1	2	0.472085	-49.9558	25.0094	13.5184
 441	1	3	-0.022377	-48.5617	25.7426	11.596
 442	1	3	-0.088654	-48.4411	24.6917	10.6518
 443	1	3	0.02488	-48.3035	24.9904	9.26948
 444	1	3	0.040063	-48.5219	27.0856	11.1666
 445	1	3	-0.361597	-48.376	27.3714	9.80308
 446	1	3	0.096629	-48.283	26.3467	8.85012
 447	1	7	-0.018671	-48.4897	23.2366	11.1421
 448	1	8	-0.317996	-48.2714	23.9184	8.36988
 449	1	6	0.16694	-46.8369	25.4151	16.7195
 450	1	6	0.13386	-48.3262	24.6257	18.5829
 451	1	6	0.147907	-51.5875	24.0969	15.7681
 452	1	5	-0.491298	-51.0037	24.7907	12.9344
 453	1	5	-0.47861	-46.6128	25.9655	13.7967
 454	1	7	-0.160952	-48.6636	28.2463	12.1444
 455	1	9	0.05529	-47.787	28.3157	12.8004
 456	1	9	0.069029	-49.5546	28.1299	12.7736
 457	1	9	0.053284	-48.7586	29.2073	11.6244
 458	1	7	-0.244214	-48.2299	26.766	7.38652
 459	1	9	0.063506	-50.3969	23.0219	19.002
 460	1	9	0.093434	-51.8351	23.3278	18.0662
 461	1	6	0.232522	-48.3567	28.4074	9.48088
 462	1	9	0.020884	-47.2517	26.5487	6.94116
 463	1	9	0.114771	-48.4081	27.8405	7.26459
 464	1	9	0.181647	-49.0084	26.2532	6.80744
 465	1	9	0.069456	-49.5245	22.933	11.3469
 466	1	9	0.029017	-47.9136	23.1059	12.0666
 467	1	9	-0.058945	-48.0725	22.5192	10.4254
 468	1	4	0.329672	-48.319	22.9969	8.77836
 469	1	1	0.452895	-54.8214	23.5901	37.4495
 470	1	2	0.074505	-54.158	24.8137	37.4645
 471	1	3	0.001656	-52.9478	24.5743	36.6362
 472	1	2	0.074191	-54.1428	22.5716	36.7882
 473	1	3	0.036519	-52.9362	23.2455	36.2422
 474	1	5	-0.399533	-54.4564	25.8392	38.0572
 475	1	5	-0.398173	-54.4411	21.3924	36.6803
 476	1	3	-0.067442	-51.949	25.4673	36.2316
 477	1	3	-0.068422	-51.9169	22.735	35.4331
 478	1	3	-0.213282	-50.897	23.6177	35.0205
 479	1	3	-0.047343	-50.9109	24.9822	35.4049
 480	1	6	0.159476	-51.9923	26.5075	36.5439
 481	1	6	0.16033	-51.9283	21.6911	35.1275
 482	1	6	0.171114	-50.1016	23.2397	34.3849
 483	1	7	-0.06383	-49.8015	25.9235	34.9491
 484	1	3	0.009736	-49.5734	25.9063	33.4417
 485	1	3	-0.108991	-50.3095	26.7707	32.6
 486	1	3	-0.114952	-50.031	26.7539	31.2247
 487	1	3	-0.090153	-48.5903	25.0496	32.888
 488	1	3	-0.148302	-48.3332	25.0401	31.5024
 489	1	3	-0.073574	-49.0724	25.9115	30.6934
 490	1	2	0.475719	-48.9792	26.1717	29.232
 491	1	1	0.026291	-49.8887	27.1879	28.9757
 492	1	2	0.472085	-50.5786	27.5835	30.1146
 493	1	3	-0.022377	-50.0216	27.817	27.7037
 494	1	3	-0.088654	-51.0424	27.426	26.8027
 495	1	3	0.02488	-51.1474	28.0669	25.5406
 496	1	3	0.040063	-49.1133	28.837	27.35
 497	1	3	-0.361597	-49.2262	29.4621	26.1019
 498	1	3	0.096629	-50.2347	29.0967	25.2001
 499	1	7	-0.018671	-52.0232	26.3206	27.2156
 500	1	8	-0.317996	-52.1861	27.7085	24.678
 501	1	6	0.16694	-47.5708	24.3954	31.0694
 502	1	6	0.13386	-48.0161	24.3959	33.5389
 503	1	6	0.147907	-51.059	27.4487	33.0025
 504	1	5	-0.491298	-51.4126	28.4667	30.2162
 505	1	5	-0.47861	-48.2051	25.6401	28.4542
 506	1	7	-0.160952	-48.0178	29.2971	28.3047
 507	1	9	0.05529	-47.3191	28.4812	28.5269
 508	1	9	0.069029	-48.4447	29.6512	29.2515
 509	1	9	0.053284	-47.4311	30.1227	27.884
 510	1	7	-0.244214	-50.3321	29.8811	23.8983
 511	1	9	0.063506	-50.025	26.9505	35.2656
 512	1	9	0.093434	-48.8718	25.6591	35.4685
 513	1	6	0.232522	-48.5289	30.2498	25.8367
 514	1	9	0.020884	-49.9867	29.2828	23.0465
 515	1	9	0.114771	-49.7243	30.7926	23.9269
 516	1	9	0.181647	-51.3658	30.1979	23.7082
 517	1	9	0.069456	-52.7801	26.7141	27.9065
 518	1	9	0.029017	-51.5079	25.494	27.7201
 519	1	9	-0.058945	-52.5485	25.8709	26.3667
 520	1	4	0.329672	-52.924	27.1148	25.0412
 521	1	1	0.452895	-54.3589	23.9535	24.7437
 522	1	2	0.074505	-54.9523	25.1699	25.0685
 523	1	3	0.001656	-55.9565	24.8181	26.1047
 524	1	2	0.074191	-54.8217	22.8722	25.4869
 525	1	3	0.036519	-55.8769	23.4582	26.3559
 526	1	5	-0.399533	-54.7015	26.2854	24.6401
 527	1	5	-0.398173	-54.4485	21.7111	25.4667
 528	1	3	-0.067442	-56.8953	25.6295	26.7515
 529	1	3	-0.068422	-56.7261	22.839	27.2794
 530	1	3	-0.213282	-57.6857	23.6389	27.937
 531	1	3	-0.047343	-57.7786	25.0299	27.6765
 532	1	6	0.159476	-56.9492	26.6904	26.521
 533	1	6	0.16033	-56.6515	21.7692	27.4628
 534	1	6	0.171114	-58.3651	23.1702	28.645
 535	1	7	-0.06383	-58.8594	25.8854	28.3309
 536	1	3	0.009736	-59.2188	25.4673	29.7507
 537	1	3	-0.108991	-58.3398	25.7693	30.812
 538	1	3	-0.114952	-58.7199	25.4021	32.1092
 539	1	3	-0.090153	-60.442	24.8007	30.0121
 540	1	3	-0.148302	-60.8038	24.4372	31.3264
 541	1	3	-0.073574	-59.9168	24.758	32.362
 542	1	2	0.475719	-60.0197	24.5252	33.8299
 543	1	1	0.026291	-58.8567	25.057	34.3684
 544	1	2	0.472085	-58.0188	25.5993	33.4041
 545	1	3	-0.022377	-58.5261	25.0315	35.7516
 546	1	3	-0.088654	-57.5746	24.1002	36.2322
 547	1	3	0.02488	-57.1359	24.1858	37.5784
 548	1	3	0.040063	-59.0899	25.9902	36.6193
 549	1	3	-0.361597	-58.6989	26.0178	37.9646
 550	1	3	0.096629	-57.724	25.1343	38.4467
 551	1	7	-0.018671	-57.0316	23.0168	35.2928
 552	1	8	-0.317996	-56.0797	23.4065	38.0576
 553	1	6	0.16694	-61.7427	23.9297	31.5391
 554	1	6	0.13386	-61.1161	24.5685	29.1919
 555	1	6	0.147907	-57.3946	26.2784	30.6364
 556	1	5	-0.491298	-56.9334	26.1325	33.5618
 557	1	5	-0.47861	-60.9508	23.9981	34.4162
 558	1	7	-0.160952	-60.102	27.0164	36.1253
 559	1	9	0.05529	-60.3745	27.731	36.9113
 560	1	9	0.069029	-61.0263	26.5268	35.7939
 561	1	9	0.053284	-59.7001	27.5951	35.2843
 562	1	7	-0.244214	-57.2728	25.2833	39.8941
 563	1	9	0.063506	-58.5389	26.9352	28.348
 564	1	9	0.093434	-59.7555	25.8669	27.6984
 565	1	6	0.232522	-59.1257	26.7633	38.6273
 566	1	9	0.020884	-57.0624	24.3159	40.366
 567	1	9	0.114771	-58.0415	25.7762	40.5013
 568	1	9	0.181647	-56.3668	25.9024	39.9439
 569	1	9	0.069456	-56.8385	22.0802	35.8295
 570	1	9	0.029017	-56.0998	23.3408	34.8131
 571	1	9	-0.058945	-57.7397	22.7591	34.496
 572	1	4	0.329672	-55.9213	23.4339	39.0524
 573	1	1	0.452895	-51.9966	9.88487	16.7217
 574	1	2	0.074505	-51.0978	10.1864	17.7392
 575	1	3	0.001656	-51.0125	11.6712	17.7164
 576	1	2	0.074191	-52.54	10.9952	16.0822
 577	1	3	0.036519	-51.8691	12.1479	16.7361
 578	1	5	-0.399533	-50.5509	9.42908	18.5256
 579	1	5	-0.398173	-53.379	11.0364	15.1967
 580	1	3	-0.067442	-50.2437	12.54	18.5008
 581	1	3	-0.068422	-52.0053	13.5173	16.4873
 582	1	3	-0.213282	-51.2369	14.4079	17.2651
 583	1	3	-0.047343	-50.3592	13.9292	18.2684
 584	1	6	0.159476	-49.5813	12.1413	19.2651
 585	1	6	0.16033	-52.6876	13.8723	15.718
 586	1	6	0.171114	-51.331	15.4785	17.0972
 587	1	7	-0.06383	-49.5627	14.9227	19.1054
 588	1	3	0.009736	-50.4747	15.8851	19.8549
 589	1	3	-0.108991	-50.3985	17.2766	19.6193
 590	1	3	-0.114952	-51.295	18.1132	20.2993
 591	1	3	-0.090153	-51.4301	15.3722	20.7659
 592	1	3	-0.148302	-52.3259	16.2293	21.4356
 593	1	3	-0.073574	-52.2352	17.6019	21.1755
 594	1	2	0.475719	-53.0625	18.7279	21.6832
 595	1	1	0.026291	-52.5572	19.865	21.0677
 596	1	2	0.472085	-51.4857	19.5886	20.2301
 597	1	3	-0.022377	-53.1371	21.1545	21.2303
 598	1	3	-0.088654	-52.8648	21.9222	22.3878
 599	1	3	0.02488	-53.5665	23.1339	22.6032
 600	1	3	0.040063	-54.0457	21.6263	20.26
 601	1	3	-0.361597	-54.682	22.8586	20.4527
 602	1	3	0.096629	-54.4607	23.6112	21.6135
 603	1	7	-0.018671	-51.85	21.406	23.4167
 604	1	8	-0.317996	-53.3385	23.8474	23.78
 605	1	6	0.16694	-53.0767	15.8428	22.1225
 606	1	6	0.13386	-51.4889	14.3003	20.9365
 607	1	6	0.147907	-49.68	17.6958	18.9188
 608	1	5	-0.491298	-50.8523	20.3707	19.5386
 609	1	5	-0.47861	-54.0235	18.6386	22.4274
 610	1	7	-0.160952	-54.3663	20.8218	19.0062
 611	1	9	0.05529	-55.1354	21.3098	18.3953
 612	1	9	0.069029	-54.7419	19.8234	19.2633
 613	1	9	0.053284	-53.4762	20.7018	18.3764
 614	1	7	-0.244214	-55.1873	24.9426	21.7353
 615	1	9	0.063506	-48.9252	14.395	19.826
 616	1	9	0.093434	-48.8764	15.476	18.4518
 617	1	6	0.232522	-55.371	23.2286	19.6999
 618	1	9	0.020884	-55.5963	25.2726	20.7725
 619	1	9	0.114771	-54.5141	25.7338	22.0813
 620	1	9	0.181647	-56.0228	24.874	22.4406
 621	1	9	0.069456	-50.9739	20.9607	22.9295
 622	1	9	0.029017	-52.3016	20.6389	24.0582
 623	1	9	-0.058945	-51.4606	22.1972	24.0684
 624	1	4	0.329672	-52.4749	23.6461	24.2732
 625	1	1	0.452895	-43.4529	0.468025	15.2133
 626	1	2	0.074505	-44.5742	-0.357016	15.2729
 627	1	3	0.001656	-45.0153	-0.265637	16.6879
 628	1	2	0.074191	-43.0722	0.999351	16.4439
 629	1	3	0.036519	-44.115	0.521565	17.3855
 630	1	5	-0.399533	-45.0753	-1.04681	14.3992
 631	1	5	-0.398173	-42.0879	1.66198	16.7271
 632	1	3	-0.067442	-46.1759	-0.757127	17.2927
 633	1	3	-0.068422	-44.2931	0.81152	18.7423
 634	1	3	-0.213282	-45.4548	0.31955	19.3738
 635	1	3	-0.047343	-46.4095	-0.434812	18.6472
 636	1	6	0.159476	-46.9106	-1.29945	16.7028
 637	1	6	0.16033	-43.5783	1.442	19.2667
 638	1	6	0.171114	-45.6493	0.586319	20.4098
 639	1	7	-0.06383	-47.7811	-0.714124	19.2464
 640	1	3	0.009736	-48.7941	0.249386	18.6358
 641	1	3	-0.108991	-48.4646	1.61946	18.5382
 642	1	3	-0.114952	-49.3217	2.46227	17.8284
 643	1	3	-0.090153	-50.0004	-0.224965	18.0627
 644	1	3	-0.148302	-50.8629	0.64916	17.3643
 645	1	3	-0.073574	-50.4838	1.99433	17.249
 646	1	2	0.475719	-51.1018	3.11956	16.493