pySIMM System Object

730 atoms
799 bonds
1386 angles
2040 dihedrals
224 impropers

9 atom types
12 bond types
20 angle types
8 dihedral types
4 improper types

-133.168789 133.168789 xlo xhi
-133.168789 133.168789 ylo yhi
-133.168789 133.168789 zlo zhi

Masses

   1	14.01	# n
   2	12.01	# c
   3	12.01	# ca
   4	1.008	# hn
   5	16.0	# o
   6	1.008	# ha
   7	12.01	# c3
   8	14.01	# nh
   9	1.008	# hc

Pair Coeffs

   1	0.17	3.249998523775958	# n
   2	0.086	3.3996695084235347	# c
   3	0.086	3.3996695084235347	# ca
   4	0.0157	1.069078461768407	# hn
   5	0.21	2.959921901149463	# o
   6	0.015	2.59964245953351	# ha
   7	0.1094	3.3996695084235347	# c3
   8	0.17	3.249998523775958	# nh
   9	0.0157	2.649532787749369	# hc

Bond Coeffs

   1	384.2	1.4121	# ca,n
   2	404.6	1.0121	# hn,nh
   3	403.2	1.0129	# hn,n
   4	417.9	1.3859	# ca,nh
   5	461.1	1.3984	# ca,ca
   6	427.6	1.3789	# c,n
   7	345.9	1.4906	# c,ca
   8	345.8	1.086	# ca,ha
   9	321.0	1.5156	# c3,ca
  10	330.6	1.0969	# c3,hc
  11	637.7	1.2183	# c,o
  12	452.5	1.4016	# n,nh

Angle Coeffs

   1	63.53	120.77	# c3,ca,ca
   2	39.4	107.58	# hc,c3,hc
   3	66.62	120.02	# ca,ca,ca
   4	48.42	116.07	# ca,nh,hn
   5	48.18	119.88	# ca,ca,ha
   6	63.74	127.08	# c,n,c
   7	67.87	120.19	# ca,ca,n
   8	40.07	115.12	# hn,nh,hn
   9	68.72	122.6	# ca,c,o
  10	48.33	117.55	# c,n,hn
  11	64.28	120.33	# c,ca,ca
  12	67.68	115.25	# ca,c,n
  13	63.56	112.24	# ca,c3,ca
  14	74.22	123.05	# n,c,o
  15	63.82	123.71	# c,n,ca
  16	46.8	110.47	# ca,c3,hc
  17	68.29	120.95	# ca,ca,nh
  18	67.01	118.71	# c,n,nh
  19	67.61	116.03	# ca,nh,n
  20	50.88	108.17	# hn,nh,n

Dihedral Coeffs

   1	1	3.625	2	180	# X,ca,ca,X
   2	1	1.0	2	180	# X,c,ca,X
   3	1	0.0	2	0	# X,c3,ca,X
   4	1	2.5	2	180	# X,c,n,X
   5	1	1.05	2	180	# X,ca,nh,X
   6	1	0.45	2	180	# X,ca,n,X
   7	2	2.5	2	180	2.0	1	0	# hn,n,c,o
   8	1	1.1	2	0	# X,n,nh,X

Improper Coeffs

   1	1.1	-1	2	# ca,X,X,ha
   2	10.5	-1	2	# c,X,X,o
   3	1.1	-1	2	# ca,ca,ca,c3
   4	1.1	-1	2	# n,X,X,hn

Atoms

   1	1	1	0.452895	54.4697	-2.65607	37.8137
   2	1	2	0.074505	54.1311	-1.5102	38.5255
   3	1	3	0.001656	53.6127	-2.02868	39.8105
   4	1	2	0.074191	54.374	-3.83751	38.5473
   5	1	3	0.036519	53.7547	-3.40682	39.831
   6	1	5	-0.399533	54.1772	-0.34127	38.1762
   7	1	5	-0.398173	54.6549	-4.97774	38.2123
   8	1	3	-0.067442	52.8676	-1.34974	40.775
   9	1	3	-0.068422	53.1927	-4.17687	40.8563
  10	1	3	-0.213282	52.4136	-3.51199	41.8288
  11	1	3	-0.047343	52.2175	-2.10994	41.7672
  12	1	6	0.159476	52.684	-0.285032	40.6626
  13	1	6	0.16033	53.2708	-5.26164	40.8348
  14	1	6	0.171114	51.8763	-4.09945	42.5696
  15	1	7	-0.06383	51.0914	-1.46647	42.5612
  16	1	3	0.009736	49.7965	-1.71569	41.7944
  17	1	3	-0.108991	48.8975	-2.70561	42.2432
  18	1	3	-0.114952	47.845	-3.07591	41.3956
  19	1	3	-0.090153	49.5932	-1.10059	40.5317
  20	1	3	-0.148302	48.5378	-1.50093	39.6865
  21	1	3	-0.073574	47.6816	-2.50911	40.1447
  22	1	2	0.475719	46.5952	-3.2437	39.4378
  23	1	1	0.026291	46.1802	-4.22556	40.3261
  24	1	2	0.472085	46.8566	-4.17468	41.5376
  25	1	3	-0.022377	45.2748	-5.26648	39.9786
  26	1	3	-0.088654	43.8748	-5.04296	39.9497
  27	1	3	0.02488	43.0102	-6.1232	39.653
  28	1	3	0.040063	45.7982	-6.54404	39.6731
  29	1	3	-0.361597	44.9253	-7.60011	39.3805
  30	1	3	0.096629	43.5388	-7.40193	39.3746
  31	1	7	-0.018671	43.2872	-3.66239	40.2725
  32	1	8	-0.317996	41.6322	-5.93286	39.6571
  33	1	6	0.16694	48.4288	-1.09493	38.6813
  34	1	6	0.13386	50.3025	-0.363508	40.1671
  35	1	6	0.147907	49.0545	-3.22974	43.1825
  36	1	5	-0.491298	46.749	-4.92563	42.4927
  37	1	5	-0.47861	46.2038	-3.06154	38.2966
  38	1	7	-0.160952	47.2983	-6.8193	39.6613
  39	1	9	0.05529	47.6892	-6.8972	40.6836
  40	1	9	0.069029	47.8514	-6.02577	39.1435
  41	1	9	0.053284	47.5329	-7.75904	39.147
  42	1	7	-0.244214	42.6325	-8.58468	39.0696
  43	1	9	0.063506	51.0416	-1.89145	43.5718
  44	1	9	0.093434	51.262	-0.389568	42.6854
  45	1	6	0.232522	45.3267	-8.58646	39.1727
  46	1	9	0.020884	43.1906	-9.52698	39.0045
  47	1	9	0.114771	42.109	-8.43415	38.1182
  48	1	9	0.181647	41.8765	-8.69878	39.856
  49	1	9	0.069456	43.9738	-2.84026	40.0428
  50	1	9	0.029017	43.0269	-3.59143	41.3358
  51	1	9	-0.058945	42.3764	-3.45997	39.6942
  52	1	4	0.329672	41.2712	-4.99257	39.7643
  53	1	1	0.452895	43.6099	-9.38281	29.2775
  54	1	2	0.074505	43.8803	-8.08626	29.7169
  55	1	3	0.001656	44.185	-8.24389	31.166
  56	1	2	0.074191	43.7273	-10.3548	30.2651
  57	1	3	0.036519	44.1081	-9.59033	31.4845
  58	1	5	-0.399533	43.9563	-7.05714	29.0648
  59	1	5	-0.398173	43.6469	-11.5673	30.1536
  60	1	3	-0.067442	44.5739	-7.28739	32.116
  61	1	3	-0.068422	44.4304	-10.0532	32.765
  62	1	3	-0.213282	44.8449	-9.10864	33.7291
  63	1	3	-0.047343	44.9254	-7.72942	33.414
  64	1	6	0.159476	44.6564	-6.23938	31.8366
  65	1	6	0.16033	44.3885	-11.1168	32.9892
  66	1	6	0.171114	45.1297	-9.45415	34.7202
  67	1	7	-0.06383	45.4653	-6.73753	34.4495
  68	1	3	0.009736	46.794	-6.07552	34.0676
  69	1	3	-0.108991	47.2749	-4.97839	34.8267
  70	1	3	-0.114952	48.4835	-4.3734	34.4382
  71	1	3	-0.090153	47.5604	-6.55411	32.9719
  72	1	3	-0.148302	48.7546	-5.92096	32.5856
  73	1	3	-0.073574	49.1833	-4.82157	33.3329
  74	1	2	0.475719	50.4178	-4.01242	33.1906
  75	1	1	0.026291	50.4187	-3.14709	34.2726
  76	1	2	0.472085	49.2788	-3.26962	35.06
  77	1	3	-0.022377	51.5547	-2.35021	34.591
  78	1	3	-0.088654	52.6198	-2.90951	35.3422
  79	1	3	0.02488	53.787	-2.14	35.5865
  80	1	3	0.040063	51.6544	-1.039	34.0813
  81	1	3	-0.361597	52.8398	-0.315778	34.2709
  82	1	3	0.096629	53.9105	-0.860388	34.9928
  83	1	7	-0.018671	52.5149	-4.34804	35.8653
  84	1	8	-0.317996	54.7964	-2.60206	36.4417
  85	1	6	0.16694	49.3418	-6.2821	31.7438
  86	1	6	0.13386	47.2394	-7.42303	32.406
  87	1	6	0.147907	46.7337	-4.61098	35.6979
  88	1	5	-0.491298	49.0147	-2.66612	36.0868
  89	1	5	-0.47861	51.284	-4.15987	32.3442
  90	1	7	-0.160952	50.5097	-0.389186	33.314
  91	1	9	0.05529	50.8074	0.571646	32.8766
  92	1	9	0.069029	49.659	-0.196357	33.9803
  93	1	9	0.053284	50.1619	-1.02616	32.4918
  94	1	7	-0.244214	55.1654	-0.00812097	35.1378
  95	1	9	0.063506	44.7115	-5.95876	34.6225
  96	1	9	0.093434	45.5901	-7.23801	35.4186
  97	1	6	0.232522	52.9298	0.683815	33.8565
  98	1	9	0.020884	55.2885	0.659574	34.276
  99	1	9	0.114771	56.0773	-0.61127	35.1963
 100	1	9	0.181647	55.1034	0.622963	36.0331
 101	1	9	0.069456	53.4948	-4.83748	35.9021
 102	1	9	0.029017	51.8999	-4.99524	35.2314
 103	1	9	-0.058945	52.0785	-4.36444	36.8713
 104	1	4	0.329672	55.6837	-2.13009	36.3917
 105	1	1	0.452895	34.8205	-15.6483	16.8322
 106	1	2	0.074505	36.182	-15.5115	16.5718
 107	1	3	0.001656	36.8365	-15.8684	17.8596
 108	1	2	0.074191	34.5264	-16.1101	18.1124
 109	1	3	0.036519	35.8563	-16.2334	18.7689
 110	1	5	-0.399533	36.7352	-15.1863	15.5337
 111	1	5	-0.398173	33.4418	-16.4059	18.5887
 112	1	3	-0.067442	38.1934	-15.8665	18.207
 113	1	3	-0.068422	36.1836	-16.6333	20.0701
 114	1	3	-0.213282	37.5463	-16.6359	20.4397
 115	1	3	-0.047343	38.5515	-16.2506	19.5193
 116	1	6	0.159476	38.9401	-15.5693	17.4758
 117	1	6	0.16033	35.4026	-16.9249	20.7691
 118	1	6	0.171114	37.8242	-16.9327	21.4486
 119	1	7	-0.06383	40.0145	-16.2567	19.9472
 120	1	3	0.009736	40.3968	-15.0029	20.7248
 121	1	3	-0.108991	40.4765	-15.0358	22.1357
 122	1	3	-0.114952	40.8202	-13.8554	22.8113
 123	1	3	-0.090153	40.6606	-13.7964	20.0313
 124	1	3	-0.148302	41.0021	-12.6191	20.7289
 125	1	3	-0.073574	41.0759	-12.6821	22.127
 126	1	2	0.475719	41.3281	-11.6083	23.1262
 127	1	1	0.026291	41.172	-12.2071	24.3694
 128	1	2	0.472085	40.9	-13.5663	24.2716
 129	1	3	-0.022377	41.1086	-11.4516	25.5785
 130	1	3	-0.088654	42.2848	-11.0717	26.2713
 131	1	3	0.02488	42.2085	-10.1571	27.3592
 132	1	3	0.040063	39.8505	-10.9912	26.0147
 133	1	3	-0.361597	39.7759	-10.1212	27.1077
 134	1	3	0.096629	40.9329	-9.67599	27.7658
 135	1	7	-0.018671	43.6274	-11.6541	25.8089
 136	1	8	-0.317996	43.4164	-9.70883	27.9175
 137	1	6	0.16694	41.1828	-11.6819	20.2056
 138	1	6	0.13386	40.5843	-13.7702	18.9473
 139	1	6	0.147907	40.26	-15.9433	22.6939
 140	1	5	-0.491298	40.6627	-14.3511	25.1733
 141	1	5	-0.47861	41.5369	-10.4318	22.8817
 142	1	7	-0.160952	38.5617	-11.3827	25.2993
 143	1	9	0.05529	38.4639	-12.4729	25.2256
 144	1	9	0.069029	38.5329	-10.9668	24.2845
 145	1	9	0.053284	37.6738	-11.0184	25.8297
 146	1	7	-0.244214	40.7308	-8.64322	28.8669
 147	1	9	0.063506	40.2168	-17.1492	20.5533
 148	1	9	0.093434	40.6638	-16.3546	19.0677
 149	1	6	0.232522	38.8028	-9.75525	27.4168
 150	1	9	0.020884	41.3478	-7.75432	28.6935
 151	1	9	0.114771	40.9672	-9.0591	29.8528
 152	1	9	0.181647	39.694	-8.29277	28.9082
 153	1	9	0.069456	43.9654	-11.1754	24.8813
 154	1	9	0.029017	43.5386	-12.7313	25.6163
 155	1	9	-0.058945	44.4278	-11.5473	26.551
 156	1	4	0.329672	44.2618	-10.1384	27.5722
 157	1	1	0.452895	23.011	-13.0719	3.71714
 158	1	2	0.074505	22.9577	-12.3716	4.92106
 159	1	3	0.001656	24.0684	-12.9444	5.73659
 160	1	2	0.074191	24.0654	-13.9832	3.64458
 161	1	3	0.036519	24.7105	-13.9145	4.98623
 162	1	5	-0.399533	22.1881	-11.485	5.25366
 163	1	5	-0.398173	24.4127	-14.6778	2.70275
 164	1	3	-0.067442	24.4602	-12.6657	7.0544
 165	1	3	-0.068422	25.7512	-14.681	5.52844
 166	1	3	-0.213282	26.1364	-14.4363	6.86673
 167	1	3	-0.047343	25.5151	-13.4161	7.63026
 168	1	6	0.159476	23.9299	-11.9067	7.62401
 169	1	6	0.16033	26.2215	-15.4624	4.93509
 170	1	6	0.171114	26.9122	-15.0517	7.31735
 171	1	7	-0.06383	25.862	-13.1948	9.108
 172	1	3	0.009736	27.3316	-13.2421	9.5475
 173	1	3	-0.108991	27.605	-13.4656	10.9181
 174	1	3	-0.114952	28.9343	-13.419	11.3628
 175	1	3	-0.090153	28.4082	-12.972	8.66296
 176	1	3	-0.148302	29.7433	-12.944	9.12793
 177	1	3	-0.073574	29.9766	-13.1688	10.4928
 178	1	2	0.475719	31.2396	-13.1183	11.286
 179	1	1	0.026291	30.8636	-13.3262	12.6079
 180	1	2	0.472085	29.4954	-13.5279	12.7394
 181	1	3	-0.022377	31.7657	-13.2366	13.7125
 182	1	3	-0.088654	32.3931	-14.3877	14.2554
 183	1	3	0.02488	33.2714	-14.2711	15.3696
 184	1	3	0.040063	32.0208	-11.9691	14.2726
 185	1	3	-0.361597	32.8914	-11.8561	15.3626
 186	1	3	0.096629	33.5148	-12.9816	15.9255
 187	1	7	-0.018671	32.0889	-15.7746	13.6685
 188	1	8	-0.317996	33.8255	-15.4715	15.849
 189	1	6	0.16694	30.5718	-12.7209	8.45796
 190	1	6	0.13386	28.2101	-12.7584	7.6161
 191	1	6	0.147907	26.8018	-13.6335	11.6321
 192	1	5	-0.491298	28.8564	-13.6943	13.7639
 193	1	5	-0.47861	32.3541	-12.8809	10.853
 194	1	7	-0.160952	31.3464	-10.7092	13.741
 195	1	9	0.05529	31.7148	-9.80603	14.2424
 196	1	9	0.069029	30.2615	-10.7518	13.9002
 197	1	9	0.053284	31.5307	-10.5797	12.6675
 198	1	7	-0.244214	34.3996	-12.7175	17.1398
 199	1	9	0.063506	25.4614	-12.2233	9.42447
 200	1	9	0.093434	25.3006	-13.9354	9.69177
 201	1	6	0.232522	33.0728	-10.8716	15.7805
 202	1	9	0.020884	35.4366	-13.0194	16.9619
 203	1	9	0.114771	34.0171	-13.2354	18.0275
 204	1	9	0.181647	34.4375	-11.6513	17.3883
 205	1	9	0.069456	31.6992	-15.7355	12.6454
 206	1	9	0.029017	31.3452	-16.2958	14.2848
 207	1	9	-0.058945	32.9854	-16.4061	13.6231
 208	1	4	0.329672	33.7062	-16.3135	15.3058
 209	1	1	0.452895	8.30936	-6.02325	-3.26809
 210	1	2	0.074505	8.57641	-7.37132	-3.00155
 211	1	3	0.001656	10.0619	-7.45833	-2.89395
 212	1	2	0.074191	9.4648	-5.25257	-3.40509
 213	1	3	0.036519	10.5908	-6.2067	-3.15709
 214	1	5	-0.399533	7.80429	-8.3166	-2.99695
 215	1	5	-0.398173	9.55953	-4.1101	-3.8253
 216	1	3	-0.067442	10.8871	-8.57634	-2.67903
 217	1	3	-0.068422	11.9789	-6.01962	-3.24467
 218	1	3	-0.213282	12.8258	-7.13524	-3.03658
 219	1	3	-0.047343	12.2938	-8.41608	-2.74512
 220	1	6	0.159476	10.4384	-9.55213	-2.51205
 221	1	6	0.16033	12.3836	-5.04316	-3.50265
 222	1	6	0.171114	13.9024	-7.0138	-3.13835
 223	1	7	-0.06383	13.2184	-9.64283	-2.6745
 224	1	3	0.009736	14.1682	-9.77991	-1.47402
 225	1	3	-0.108991	15.2337	-10.7132	-1.55155
 226	1	3	-0.114952	16.0603	-10.9037	-0.42947
 227	1	3	-0.090153	13.9663	-9.06473	-0.266573
 228	1	3	-0.148302	14.8053	-9.2734	0.852507
 229	1	3	-0.073574	15.8483	-10.2059	0.74236
 230	1	2	0.475719	16.8268	-10.6943	1.75978
 231	1	1	0.026291	17.5727	-11.6854	1.13153
 232	1	2	0.472085	17.187	-11.8585	-0.19584
 233	1	3	-0.022377	18.4879	-12.544	1.82817
 234	1	3	-0.088654	19.8856	-12.2852	1.86359
 235	1	3	0.02488	20.7622	-13.1371	2.60249
 236	1	3	0.040063	17.9666	-13.6557	2.5216
 237	1	3	-0.361597	18.833	-14.5132	3.20776
 238	1	3	0.096629	20.2154	-14.2838	3.24432
 239	1	7	-0.018671	20.4131	-11.0651	1.09787
 240	1	8	-0.317996	22.1352	-12.8218	2.63162
 241	1	6	0.16694	14.6364	-8.74702	1.7898
 242	1	6	0.13386	13.1405	-8.36271	-0.18528
 243	1	6	0.147907	15.3984	-11.3029	-2.45068
 244	1	5	-0.491298	17.6097	-12.6736	-0.997189
 245	1	5	-0.47861	16.8801	-10.3484	2.92754
 246	1	7	-0.160952	16.4723	-13.9563	2.55688
 247	1	9	0.05529	16.2673	-14.9491	2.97548
 248	1	9	0.069029	16.0313	-13.9346	1.55308
 249	1	9	0.053284	15.9448	-13.2232	3.18021
 250	1	7	-0.244214	21.0411	-15.3368	3.9727
 251	1	9	0.063506	12.6075	-10.5534	-2.72212
 252	1	9	0.093434	13.8181	-9.66484	-3.59361
 253	1	6	0.232522	18.42	-15.3764	3.71956
 254	1	9	0.020884	21.9664	-15.5717	3.43847
 255	1	9	0.114771	20.4981	-16.2861	4.0497
 256	1	9	0.181647	21.2802	-15.0132	4.99212
 257	1	9	0.069456	20.0232	-10.1369	1.53452
 258	1	9	0.029017	20.0946	-11.0996	0.048048
 259	1	9	-0.058945	21.5061	-10.983	1.08662
 260	1	4	0.329672	22.4248	-11.9731	2.16917
 261	1	1	0.452895	-5.82284	5.25464	-5.34253
 262	1	2	0.074505	-5.15424	4.49182	-6.30154
 263	1	3	0.001656	-4.0951	3.76118	-5.53853
 264	1	2	0.074191	-5.30294	5.10504	-4.056
 265	1	3	0.036519	-4.18402	4.12555	-4.20709
 266	1	5	-0.399533	-5.3488	4.44509	-7.50463
 267	1	5	-0.398173	-5.63117	5.68573	-3.03413
 268	1	3	-0.067442	-3.1215	2.84784	-5.97753
 269	1	3	-0.068422	-3.30075	3.59463	-3.25357
 270	1	3	-0.213282	-2.32215	2.6605	-3.67729
 271	1	3	-0.047343	-2.21871	2.28028	-5.0397
 272	1	6	0.159476	-3.0839	2.57217	-7.02844
 273	1	6	0.16033	-3.38515	3.8915	-2.21019
 274	1	6	0.171114	-1.65499	2.22053	-2.93955
 275	1	7	-0.06383	-1.23002	1.21315	-5.55068
 276	1	3	0.009736	-0.0161494	0.760531	-4.714
 277	1	3	-0.108991	0.304511	-0.621941	-4.65866
 278	1	3	-0.114952	1.53381	-1.02414	-4.10192
 279	1	3	-0.090153	0.903744	1.69543	-4.17424
 280	1	3	-0.148302	2.12471	1.27069	-3.59604
 281	1	3	-0.073574	2.42504	-0.101688	-3.59366
 282	1	2	0.475719	3.63153	-0.84055	-3.10626
 283	1	1	0.026291	3.38478	-2.19061	-3.34098
 284	1	2	0.472085	2.14401	-2.38306	-3.9472
 285	1	3	-0.022377	4.19683	-3.24539	-2.79349
 286	1	3	-0.088654	5.25642	-3.88027	-3.50918
 287	1	3	0.02488	6.06473	-4.88227	-2.88551
 288	1	3	0.040063	3.92512	-3.64555	-1.46914
 289	1	3	-0.361597	4.71364	-4.62827	-0.862019
 290	1	3	0.096629	5.77752	-5.24237	-1.53951
 291	1	7	-0.018671	5.54094	-3.49897	-4.96589
 292	1	8	-0.317996	7.03263	-5.54653	-3.67519
 293	1	6	0.16694	2.83715	1.9878	-3.1921
 294	1	6	0.13386	0.687447	2.75892	-4.23901
 295	1	6	0.147907	-0.360122	-1.36885	-5.08622
 296	1	5	-0.491298	1.60283	-3.44068	-4.21886
 297	1	5	-0.47861	4.59428	-0.347262	-2.54356
 298	1	7	-0.160952	2.77066	-3.04708	-0.671124
 299	1	9	0.05529	2.70133	-3.47874	0.33445
 300	1	9	0.069029	1.81083	-3.23535	-1.16891
 301	1	9	0.053284	2.88925	-1.96335	-0.551272
 302	1	7	-0.244214	6.51129	-6.33478	-0.775195
 303	1	9	0.063506	-1.82294	0.326255	-5.80656
 304	1	9	0.093434	-0.83123	1.5625	-6.51166
 305	1	6	0.232522	4.47657	-4.92823	0.153033
 306	1	9	0.020884	7.58797	-6.1416	-0.716524
 307	1	9	0.114771	6.33848	-7.31201	-1.23985
 308	1	9	0.181647	6.15572	-6.41895	0.257136
 309	1	9	0.069456	6.51122	-2.99285	-5.05186
 310	1	9	0.029017	4.78559	-2.83144	-5.39513
 311	1	9	-0.058945	5.57174	-4.39046	-5.60612
 312	1	4	0.329672	7.08807	-5.29656	-4.65148
 313	1	1	0.452895	-20.2101	15.044	-10.5129
 314	1	2	0.074505	-19.754	13.8665	-11.1077
 315	1	3	0.001656	-18.4496	13.5893	-10.4349
 316	1	2	0.074191	-19.3475	15.5572	-9.54712
 317	1	3	0.036519	-18.1984	14.6081	-9.53206
 318	1	5	-0.399533	-20.2457	13.2389	-12.031
 319	1	5	-0.398173	-19.4357	16.6087	-8.93262
 320	1	3	-0.067442	-17.5146	12.5647	-10.6557
 321	1	3	-0.068422	-16.9779	14.684	-8.84847
 322	1	3	-0.213282	-16.0105	13.6807	-9.08697
 323	1	3	-0.047343	-16.2782	12.5951	-9.95992
 324	1	6	0.159476	-17.7352	11.788	-11.3836
 325	1	6	0.16033	-16.7771	15.5199	-8.18204
 326	1	6	0.171114	-15.0412	13.755	-8.59926
 327	1	7	-0.06383	-15.21	11.5337	-10.282
 328	1	3	0.009736	-14.3251	10.9653	-9.15588
 329	1	3	-0.108991	-13.1884	10.1945	-9.51579
 330	1	3	-0.114952	-12.4226	9.58314	-8.50529
 331	1	3	-0.090153	-14.6556	11.0948	-7.78201
 332	1	3	-0.148302	-13.8622	10.4933	-6.77986
 333	1	3	-0.073574	-12.75	9.73519	-7.17359
 334	1	2	0.475719	-11.8402	8.87138	-6.36628
 335	1	1	0.026291	-11.0325	8.20103	-7.28034
 336	1	2	0.472085	-11.289	8.60777	-8.58793
 337	1	3	-0.022377	-10.2405	7.0617	-6.90462
 338	1	3	-0.088654	-8.86217	7.16869	-6.57175
 339	1	3	0.02488	-8.16058	6.06007	-5.999
 340	1	3	0.040063	-10.8957	5.82211	-6.7619
 341	1	3	-0.361597	-10.2179	4.74617	-6.17778
 342	1	3	0.096629	-8.88479	4.85884	-5.75404
 343	1	7	-0.018671	-8.17166	8.51278	-6.83282
 344	1	8	-0.317996	-6.79995	6.23568	-5.66043
 345	1	6	0.16694	-14.1302	10.5696	-5.72778
 346	1	6	0.13386	-15.5504	11.6333	-7.48405
 347	1	6	0.147907	-12.9328	10.0301	-10.5601
 348	1	5	-0.491298	-10.7958	8.17252	-9.61366
 349	1	5	-0.47861	-11.9212	8.68398	-5.16427
 350	1	7	-0.160952	-12.3428	5.62616	-7.20308
 351	1	9	0.05529	-12.47	5.90551	-8.25699
 352	1	9	0.069029	-13.0313	6.23277	-6.60248
 353	1	9	0.053284	-12.6591	4.58025	-7.10972
 354	1	7	-0.244214	-8.31856	3.65804	-5.0062
 355	1	9	0.063506	-15.7059	10.6794	-10.7605
 356	1	9	0.093434	-14.5563	11.9494	-11.0594
 357	1	6	0.232522	-10.7521	3.81532	-6.0155
 358	1	9	0.020884	-9.09535	2.91731	-4.77819
 359	1	9	0.114771	-7.89406	3.96264	-4.04143
 360	1	9	0.181647	-7.55459	3.14334	-5.59869
 361	1	9	0.069456	-8.39361	8.87001	-7.84687
 362	1	9	0.029017	-7.07997	8.47592	-6.75985
 363	1	9	-0.058945	-8.52381	9.27506	-6.12742
 364	1	4	0.329672	-6.34431	7.09583	-5.91939
 365	1	1	0.452895	-36.2565	13.5067	-10.5727
 366	1	2	0.074505	-35.1421	12.6937	-10.738
 367	1	3	0.001656	-34.2284	13.4974	-11.579
 368	1	2	0.074191	-36.1917	14.7091	-11.2849
 369	1	3	0.036519	-34.8551	14.6743	-11.9411
 370	1	5	-0.399533	-35.0519	11.493	-10.5373
 371	1	5	-0.398173	-37.045	15.566	-11.4416
 372	1	3	-0.067442	-32.9526	13.1756	-12.0356
 373	1	3	-0.068422	-34.2536	15.5664	-12.8416
 374	1	3	-0.213282	-32.9604	15.256	-13.3244
 375	1	3	-0.047343	-32.2989	14.0788	-12.8969
 376	1	6	0.159476	-32.4867	12.2435	-11.7243
 377	1	6	0.16033	-34.7797	16.463	-13.1607
 378	1	6	0.171114	-32.4742	15.9285	-14.0276
 379	1	7	-0.06383	-30.9098	13.6871	-13.364
 380	1	3	0.009736	-29.9726	14.7746	-13.872
 381	1	3	-0.108991	-29.3279	15.61	-12.9368
 382	1	3	-0.114952	-28.0793	16.1499	-13.2803
 383	1	3	-0.090153	-29.4588	14.65	-15.1825
 384	1	3	-0.148302	-28.1958	15.1805	-15.5052
 385	1	3	-0.073574	-27.4888	15.8514	-14.498
 386	1	2	0.475719	-26.0088	15.8488	-14.302
 387	1	1	0.026291	-25.8373	16.0559	-12.9376
 388	1	2	0.472085	-27.0019	16.4877	-12.3182
 389	1	3	-0.022377	-24.8394	15.389	-12.159
 390	1	3	-0.088654	-23.5475	15.9335	-11.9538
 391	1	3	0.02488	-22.6477	15.3053	-11.0431
 392	1	3	0.040063	-25.2109	14.1892	-11.5052
 393	1	3	-0.361597	-24.3731	13.66	-10.5212
 394	1	3	0.096629	-23.1298	14.2375	-10.2391
 395	1	7	-0.018671	-23.1837	17.2296	-12.689
 396	1	8	-0.317996	-21.3294	15.7858	-10.9663
 397	1	6	0.16694	-27.6994	14.8955	-16.4305
 398	1	6	0.13386	-29.9395	13.9754	-15.8859
 399	1	6	0.147907	-29.6494	15.6256	-11.897
 400	1	5	-0.491298	-27.1702	16.7022	-11.1288
 401	1	5	-0.47861	-25.2066	15.3639	-15.0814
 402	1	7	-0.160952	-26.5421	13.4797	-11.757
 403	1	9	0.05529	-26.5317	12.4527	-11.3733
 404	1	9	0.069029	-26.7687	13.4129	-12.8284
 405	1	9	0.053284	-27.3712	13.9964	-11.2594
 406	1	7	-0.244214	-22.4139	13.7264	-8.99632
 407	1	9	0.063506	-30.3987	13.2073	-12.5175
 408	1	9	0.093434	-31.0011	12.8898	-14.1114
 409	1	6	0.232522	-24.7098	12.8	-9.95069
 410	1	9	0.020884	-21.6128	13.0206	-9.24005
 411	1	9	0.114771	-23.1122	13.2089	-8.32712
 412	1	9	0.181647	-22.0014	14.5633	-8.41857
 413	1	9	0.069456	-22.2438	17.6815	-12.3563
 414	1	9	0.029017	-23.9565	17.9925	-12.53
 415	1	9	-0.058945	-23.1036	17.0603	-13.7692
 416	1	4	0.329672	-21.0202	16.3734	-11.7239
 417	1	1	0.452895	-33.0567	8.8814	-3.24137
 418	1	2	0.074505	-33.9006	9.89287	-2.79241
 419	1	3	0.001656	-32.9957	10.8441	-2.09621
 420	1	2	0.074191	-31.711	9.07911	-2.9191
 421	1	3	0.036519	-31.7071	10.3432	-2.13654
 422	1	5	-0.399533	-35.0852	10.0549	-3.03551
 423	1	5	-0.398173	-30.7272	8.43213	-3.24293
 424	1	3	-0.067442	-33.2571	12.1346	-1.6285
 425	1	3	-0.068422	-30.6292	11.0599	-1.60426
 426	1	3	-0.213282	-30.8687	12.3701	-1.13911
 427	1	3	-0.047343	-32.163	12.9357	-1.2151
 428	1	6	0.159476	-34.2588	12.5425	-1.73678
 429	1	6	0.16033	-29.6252	10.6459	-1.64141
 430	1	6	0.171114	-30.0286	12.9851	-0.826323
 431	1	7	-0.06383	-32.3188	14.4558	-1.20859
 432	1	3	0.009736	-32.8076	14.8022	-2.6068
 433	1	3	-0.108991	-34.1942	14.9601	-2.78728
 434	1	3	-0.114952	-34.7216	14.6092	-4.03057
 435	1	3	-0.090153	-31.9752	14.4953	-3.71444
 436	1	3	-0.148302	-32.5316	14.2245	-4.98131
 437	1	3	-0.073574	-33.9277	14.24	-5.08696
 438	1	2	0.475719	-34.8099	13.6933	-6.14535
 439	1	1	0.026291	-36.1023	13.602	-5.59417
 440	1	2	0.472085	-36.1185	14.2592	-4.3526
 441	1	3	-0.022377	-37.2664	13.0549	-6.27121
 442	1	3	-0.088654	-37.0819	12.5843	-7.59248
 443	1	3	0.02488	-37.7111	13.2782	-8.65557
 444	1	3	0.040063	-38.5268	13.6259	-5.99616
 445	1	3	-0.361597	-39.2073	14.2765	-7.02562
 446	1	3	0.096629	-38.7183	14.222	-8.33748
 447	1	7	-0.018671	-36.3192	11.2685	-7.79845
 448	1	8	-0.317996	-37.4285	12.9774	-9.99146
 449	1	6	0.16694	-31.9172	13.8667	-5.80592
 450	1	6	0.13386	-30.917	14.3067	-3.5554
 451	1	6	0.147907	-34.8629	15.1059	-1.94243
 452	1	5	-0.491298	-37.0328	14.5134	-3.59481
 453	1	5	-0.47861	-34.4168	13.4817	-7.28299
 454	1	7	-0.160952	-39.3031	13.3295	-4.71621
 455	1	9	0.05529	-39.4381	14.2255	-4.09971
 456	1	9	0.069029	-38.8044	12.5614	-4.10971
 457	1	9	0.053284	-40.3043	12.9472	-4.95093
 458	1	7	-0.244214	-39.424	15.0574	-9.38753
 459	1	9	0.063506	-33.0355	14.774	-0.440452
 460	1	9	0.093434	-31.3702	14.9641	-0.996912
 461	1	6	0.232522	-40.1271	14.8034	-6.79585
 462	1	9	0.020884	-39.6873	14.4672	-10.2722
 463	1	9	0.114771	-38.7793	15.8869	-9.6988
 464	1	9	0.181647	-40.344	15.5037	-8.99717
 465	1	9	0.069456	-35.2714	11.4036	-8.0788
 466	1	9	0.029017	-36.7897	10.6533	-8.57547
 467	1	9	-0.058945	-36.3235	10.6658	-6.88081
 468	1	4	0.329672	-37.3382	11.9901	-10.1914
 469	1	1	0.452895	-25.8782	-2.85732	-13.2881
 470	1	2	0.074505	-26.1449	-2.45569	-11.9769
 471	1	3	0.001656	-27.3793	-1.64021	-12.0805
 472	1	2	0.074191	-26.8479	-2.44071	-14.2017
 473	1	3	0.036519	-27.8142	-1.64954	-13.3922
 474	1	5	-0.399533	-25.5965	-2.77236	-10.934
 475	1	5	-0.398173	-26.9714	-2.74811	-15.375
 476	1	3	-0.067442	-28.0154	-0.870189	-11.1035
 477	1	3	-0.068422	-28.9664	-0.953454	-13.7811
 478	1	3	-0.213282	-29.613	-0.150998	-12.8146
 479	1	3	-0.047343	-29.1137	-0.0726121	-11.4931
 480	1	6	0.159476	-27.5829	-0.799755	-10.1074
 481	1	6	0.16033	-29.2972	-0.974321	-14.817
 482	1	6	0.171114	-30.4395	0.489017	-13.1162
 483	1	7	-0.06383	-29.4447	1.13381	-10.6359
 484	1	3	0.009736	-30.8214	1.35377	-10.0264
 485	1	3	-0.108991	-31.1211	2.69965	-9.7405
 486	1	3	-0.114952	-32.0532	2.98198	-8.74604
 487	1	3	-0.090153	-31.5758	0.319399	-9.42038
 488	1	3	-0.148302	-32.5605	0.629102	-8.45102
 489	1	3	-0.073574	-32.7392	1.97762	-8.0943
 490	1	2	0.475719	-33.3032	2.56382	-6.84288
 491	1	1	0.026291	-32.7911	3.86047	-6.77783
 492	1	2	0.472085	-32.1305	4.22326	-7.94038
 493	1	3	-0.022377	-32.6491	4.58978	-5.55644
 494	1	3	-0.088654	-33.2587	5.85435	-5.34847
 495	1	3	0.02488	-33.0921	6.52883	-4.10731
 496	1	3	0.040063	-31.8018	4.05927	-4.55755
 497	1	3	-0.361597	-31.7695	4.65586	-3.2937
 498	1	3	0.096629	-32.4519	5.8493	-3.03313
 499	1	7	-0.018671	-34.0926	6.52059	-6.45379
 500	1	8	-0.317996	-33.5711	7.8466	-4.05466
 501	1	6	0.16694	-33.0519	-0.157976	-7.88184
 502	1	6	0.13386	-31.3099	-0.719356	-9.59884
 503	1	6	0.147907	-30.4957	3.50558	-10.1133
 504	1	5	-0.491298	-31.5037	5.24568	-8.16111
 505	1	5	-0.47861	-33.8686	1.94001	-5.95999
 506	1	7	-0.160952	-30.9004	2.85157	-4.79931
 507	1	9	0.05529	-30.4642	2.86845	-5.80644
 508	1	9	0.069029	-31.448	1.9102	-4.67425
 509	1	9	0.053284	-30.0553	2.8419	-4.0998
 510	1	7	-0.244214	-32.4526	6.28193	-1.5697
 511	1	9	0.063506	-28.732	1.17427	-9.80181
 512	1	9	0.093434	-29.1999	2.00672	-11.2498
 513	1	6	0.232522	-31.1905	4.19067	-2.50234
 514	1	9	0.020884	-31.4286	6.36869	-1.18726
 515	1	9	0.114771	-32.9663	5.52352	-0.967246
 516	1	9	0.181647	-32.9721	7.21846	-1.37138
 517	1	9	0.069456	-35.1024	6.75383	-6.09213
 518	1	9	0.029017	-34.2228	5.90132	-7.34731
 519	1	9	-0.058945	-33.6304	7.4628	-6.77572
 520	1	4	0.329672	-33.7683	8.25669	-4.95723
 521	1	1	0.452895	-16.3136	-2.58163	-27.5813
 522	1	2	0.074505	-17.149	-1.71029	-26.878
 523	1	3	0.001656	-17.199	-2.28639	-25.5136
 524	1	2	0.074191	-15.8131	-3.63135	-26.8169
 525	1	3	0.036519	-16.3762	-3.39783	-25.4622
 526	1	5	-0.399533	-17.6823	-0.673419	-27.2364
 527	1	5	-0.398173	-14.9928	-4.47956	-27.1336
 528	1	3	-0.067442	-17.864	-1.81028	-24.3823
 529	1	3	-0.068422	-16.1064	-4.04388	-24.2506
 530	1	3	-0.213282	-16.7278	-3.54515	-23.0859
 531	1	3	-0.047343	-17.645	-2.46627	-23.1531
 532	1	6	0.159476	-18.4955	-0.928638	-24.4575
 533	1	6	0.16033	-15.4069	-4.87601	-24.2134
 534	1	6	0.171114	-16.4947	-3.99564	-22.1236
 535	1	7	-0.06383	-18.2987	-1.91059	-21.8951
 536	1	3	0.009736	-19.2722	-2.81996	-21.1425
 537	1	3	-0.108991	-20.0995	-2.20189	-20.1846
 538	1	3	-0.114952	-20.8771	-3.00832	-19.3501
 539	1	3	-0.090153	-19.2957	-4.23581	-21.2679
 540	1	3	-0.148302	-20.0643	-5.03348	-20.3914
 541	1	3	-0.073574	-20.8357	-4.38666	-19.4173
 542	1	2	0.475719	-21.5327	-4.92982	-18.2139
 543	1	1	0.026291	-21.8955	-3.8094	-17.4758
 544	1	2	0.472085	-21.6291	-2.61937	-18.1386
 545	1	3	-0.022377	-22.1402	-3.79366	-16.0748
 546	1	3	-0.088654	-23.4418	-3.94271	-15.5387
 547	1	3	0.02488	-23.6867	-3.59585	-14.1816
 548	1	3	0.040063	-21.0563	-3.45561	-15.2391
 549	1	3	-0.361597	-21.3033	-3.10025	-13.9126
 550	1	3	0.096629	-22.6034	-3.12654	-13.3896
 551	1	7	-0.018671	-24.555	-4.47963	-16.4438
 552	1	8	-0.317996	-24.9462	-3.86616	-13.6237
 553	1	6	0.16694	-20.0126	-6.12006	-20.4253
 554	1	6	0.13386	-18.6792	-4.73693	-22.0041
 555	1	6	0.147907	-20.0776	-1.125	-20.0314
 556	1	5	-0.491298	-21.7381	-1.48166	-17.7124
 557	1	5	-0.47861	-21.5593	-6.09725	-17.8624
 558	1	7	-0.160952	-19.6145	-3.45383	-15.743
 559	1	9	0.05529	-19.395	-4.36865	-16.3091
 560	1	9	0.069029	-18.8972	-3.41873	-14.9146
 561	1	9	0.053284	-19.4137	-2.59364	-16.3924
 562	1	7	-0.244214	-22.7559	-2.69255	-11.9447
 563	1	9	0.063506	-17.5064	-1.59728	-21.2029
 564	1	9	0.093434	-18.827	-0.982319	-22.1493
 565	1	6	0.232522	-20.4716	-2.79429	-13.2864
 566	1	9	0.020884	-23.1865	-3.4934	-11.3342
 567	1	9	0.114771	-23.3937	-1.80707	-11.8779
 568	1	9	0.181647	-21.7974	-2.41991	-11.4886
 569	1	9	0.069456	-24.1851	-5.28001	-17.0969
 570	1	9	0.029017	-24.9585	-3.68554	-17.0843
 571	1	9	-0.058945	-25.3868	-4.91856	-15.8801
 572	1	4	0.329672	-25.4952	-4.53138	-14.1513
 573	1	1	0.452895	-12.9369	5.8929	-24.7388
 574	1	2	0.074505	-12.9157	4.99606	-25.8045
 575	1	3	0.001656	-12.5059	5.82671	-26.9723
 576	1	2	0.074191	-12.5725	7.19255	-25.0764
 577	1	3	0.036519	-12.3289	7.13157	-26.5416
 578	1	5	-0.399533	-13.2557	3.82451	-25.8218
 579	1	5	-0.398173	-12.5369	8.18535	-24.3668
 580	1	3	-0.067442	-12.3563	5.47552	-28.322
 581	1	3	-0.068422	-12.0361	8.16144	-27.441
 582	1	3	-0.213282	-11.9208	7.83321	-28.8082
 583	1	3	-0.047343	-12.0809	6.50005	-29.2622
 584	1	6	0.159476	-12.4783	4.43833	-28.623
 585	1	6	0.16033	-11.923	9.18419	-27.0878
 586	1	6	0.171114	-11.7008	8.62366	-29.522
 587	1	7	-0.06383	-11.8854	6.21519	-30.7566
 588	1	3	0.009736	-12.7083	5.08873	-31.3883
 589	1	3	-0.108991	-13.9596	4.68797	-30.8674
 590	1	3	-0.114952	-14.579	3.56103	-31.4235
 591	1	3	-0.090153	-12.1742	4.40935	-32.513
 592	1	3	-0.148302	-12.8342	3.30014	-33.0826
 593	1	3	-0.073574	-14.035	2.88201	-32.4968
 594	1	2	0.475719	-14.8245	1.63633	-32.7121
 595	1	1	0.026291	-15.7455	1.6091	-31.673
 596	1	2	0.472085	-15.7206	2.76602	-30.905
 597	1	3	-0.022377	-16.4299	0.435562	-31.2448
 598	1	3	-0.088654	-15.768	-0.468289	-30.3767
 599	1	3	0.02488	-16.488	-1.54735	-29.8043
 600	1	3	0.040063	-17.7818	0.232926	-31.5875
 601	1	3	-0.361597	-18.4691	-0.867024	-31.0559
 602	1	3	0.096629	-17.8477	-1.74678	-30.1575
 603	1	7	-0.018671	-14.2908	-0.216109	-30.0223
 604	1	8	-0.317996	-15.8204	-2.36012	-28.8847
 605	1	6	0.16694	-12.395	2.74005	-33.9062
 606	1	6	0.13386	-11.2172	4.71981	-32.9239
 607	1	6	0.147907	-14.4047	5.17722	-30.0043
 608	1	5	-0.491298	-16.3434	3.00167	-29.8847
 609	1	5	-0.47861	-14.5655	0.750399	-33.5094
 610	1	7	-0.160952	-18.5297	1.19376	-32.502
 611	1	9	0.05529	-18.3621	2.23803	-32.2119
 612	1	9	0.069029	-19.6126	1.02298	-32.4644
 613	1	9	0.053284	-18.2096	1.07034	-33.5439
 614	1	7	-0.244214	-18.7162	-2.84801	-29.5622
 615	1	9	0.063506	-12.0707	7.13141	-31.3313
 616	1	9	0.093434	-10.8208	5.99367	-30.9051
 617	1	6	0.232522	-19.5136	-1.01398	-31.3091
 618	1	9	0.020884	-18.1356	-3.69927	-29.1896
 619	1	9	0.114771	-19.4188	-3.24091	-30.3054
 620	1	9	0.181647	-19.3053	-2.44022	-28.7305
 621	1	9	0.069456	-14.1778	0.721641	-29.4632
 622	1	9	0.029017	-13.6784	-0.140969	-30.9293
 623	1	9	-0.058945	-13.8292	-1.00392	-29.417
 624	1	4	0.329672	-14.8515	-2.10838	-28.7547
 625	1	1	0.452895	-21.3121	2.78051	-10.5226
 626	1	2	0.074505	-20.5123	1.82896	-11.1519
 627	1	3	0.001656	-19.4936	2.63289	-11.8776
 628	1	2	0.074191	-20.9341	4.09884	-10.7716
 629	1	3	0.036519	-19.7564	3.97724	-11.6713
 630	1	5	-0.399533	-20.5182	0.614689	-11.0167
 631	1	5	-0.398173	-21.3139	5.11562	-10.2156
 632	1	3	-0.067442	-18.3412	2.20899	-12.5494
 633	1	3	-0.068422	-18.9091	4.97169	-12.1762
 634	1	3	-0.213282	-17.7523	4.56328	-12.8749
 635	1	3	-0.047343	-17.4511	3.18952	-13.04
 636	1	6	0.159476	-18.1171	1.14907	-12.627
 637	1	6	0.16033	-19.1225	6.02279	-11.9913
 638	1	6	0.171114	-17.0583	5.31578	-13.243
 639	1	7	-0.06383	-16.0953	2.77254	-13.5917