pySIMM System Object

2550 atoms
2794 bonds
4851 angles
7150 dihedrals
784 impropers

9 atom types
12 bond types
20 angle types
8 dihedral types
4 improper types

-205.826716 205.826716 xlo xhi
-205.826716 205.826716 ylo yhi
-205.826716 205.826716 zlo zhi

Masses

   1	14.01	# n
   2	12.01	# c
   3	12.01	# ca
   4	1.008	# hn
   5	16.0	# o
   6	1.008	# ha
   7	12.01	# c3
   8	14.01	# nh
   9	1.008	# hc

Pair Coeffs

   1	0.17	3.249998523775958	# n
   2	0.086	3.3996695084235347	# c
   3	0.086	3.3996695084235347	# ca
   4	0.0157	1.069078461768407	# hn
   5	0.21	2.959921901149463	# o
   6	0.015	2.59964245953351	# ha
   7	0.1094	3.3996695084235347	# c3
   8	0.17	3.249998523775958	# nh
   9	0.0157	2.649532787749369	# hc

Bond Coeffs

   1	384.2	1.4121	# ca,n
   2	404.6	1.0121	# hn,nh
   3	403.2	1.0129	# hn,n
   4	417.9	1.3859	# ca,nh
   5	461.1	1.3984	# ca,ca
   6	427.6	1.3789	# c,n
   7	345.9	1.4906	# c,ca
   8	345.8	1.086	# ca,ha
   9	321.0	1.5156	# c3,ca
  10	330.6	1.0969	# c3,hc
  11	637.7	1.2183	# c,o
  12	452.5	1.4016	# n,nh

Angle Coeffs

   1	63.53	120.77	# c3,ca,ca
   2	39.4	107.58	# hc,c3,hc
   3	66.62	120.02	# ca,ca,ca
   4	48.42	116.07	# ca,nh,hn
   5	48.18	119.88	# ca,ca,ha
   6	63.74	127.08	# c,n,c
   7	67.87	120.19	# ca,ca,n
   8	40.07	115.12	# hn,nh,hn
   9	68.72	122.6	# ca,c,o
  10	48.33	117.55	# c,n,hn
  11	64.28	120.33	# c,ca,ca
  12	67.68	115.25	# ca,c,n
  13	63.56	112.24	# ca,c3,ca
  14	74.22	123.05	# n,c,o
  15	63.82	123.71	# c,n,ca
  16	46.8	110.47	# ca,c3,hc
  17	68.29	120.95	# ca,ca,nh
  18	67.01	118.71	# c,n,nh
  19	67.61	116.03	# ca,nh,n
  20	50.88	108.17	# hn,nh,n

Dihedral Coeffs

   1	1	3.625	2	180	# X,ca,ca,X
   2	1	1.0	2	180	# X,c,ca,X
   3	1	0.0	2	0	# X,c3,ca,X
   4	1	2.5	2	180	# X,c,n,X
   5	1	1.05	2	180	# X,ca,nh,X
   6	1	0.45	2	180	# X,ca,n,X
   7	2	2.5	2	180	2.0	1	0	# hn,n,c,o
   8	1	1.1	2	0	# X,n,nh,X

Improper Coeffs

   1	1.1	-1	2	# ca,X,X,ha
   2	10.5	-1	2	# c,X,X,o
   3	1.1	-1	2	# ca,ca,ca,c3
   4	1.1	-1	2	# n,X,X,hn

Atoms

   1	1	1	0.452895	-42.5037	-8.40085	-24.0657
   2	1	2	0.074505	-41.3584	-8.91035	-24.6711
   3	1	3	0.001656	-41.7245	-10.3103	-25.0098
   4	1	2	0.074191	-43.5873	-9.27425	-24.0525
   5	1	3	0.036519	-43.0452	-10.5243	-24.6469
   6	1	5	-0.399533	-40.3028	-8.34525	-24.9124
   7	1	5	-0.398173	-44.7262	-9.08064	-23.6565
   8	1	3	-0.067442	-40.9375	-11.3352	-25.5469
   9	1	3	-0.068422	-43.6535	-11.7731	-24.813
  10	1	3	-0.213282	-42.875	-12.8209	-25.349
  11	1	3	-0.047343	-41.5219	-12.611	-25.7099
  12	1	6	0.159476	-39.8965	-11.1474	-25.7956
  13	1	6	0.16033	-44.6866	-11.926	-24.5091
  14	1	6	0.171114	-43.3155	-13.809	-25.4597
  15	1	7	-0.06383	-40.6867	-13.7787	-26.2173
  16	1	3	0.009736	-40.2694	-14.7	-25.0778
  17	1	3	-0.108991	-40.7376	-16.0322	-25.0288
  18	1	3	-0.114952	-40.3605	-16.8273	-23.9377
  19	1	3	-0.090153	-39.4372	-14.2053	-24.0431
  20	1	3	-0.148302	-39.0745	-15.0195	-22.9511
  21	1	3	-0.073574	-39.5574	-16.3337	-22.9266
  22	1	2	0.475719	-39.4124	-17.3907	-21.8913
  23	1	1	0.026291	-40.1647	-18.4642	-22.3461
  24	1	2	0.472085	-40.7474	-18.2201	-23.5827
  25	1	3	-0.022377	-40.419	-19.6281	-21.5666
  26	1	3	-0.088654	-39.4817	-20.6912	-21.4978
  27	1	3	0.02488	-39.7776	-21.8259	-20.7042
  28	1	3	0.040063	-41.6324	-19.7042	-20.8468
  29	1	3	-0.361597	-41.9078	-20.8351	-20.0684
  30	1	3	0.096629	-40.9937	-21.8925	-19.9916
  31	1	7	-0.018671	-38.1743	-20.6574	-22.2955
  32	1	8	-0.317996	-38.8832	-22.8901	-20.6171
  33	1	6	0.16694	-38.4586	-14.6366	-22.1395
  34	1	6	0.13386	-39.0913	-13.1754	-24.0743
  35	1	6	0.147907	-41.3922	-16.4332	-25.7987
  36	1	5	-0.491298	-41.4935	-18.9443	-24.2197
  37	1	5	-0.47861	-38.821	-17.2847	-20.8285
  38	1	7	-0.160952	-42.6721	-18.5906	-20.8999
  39	1	9	0.05529	-43.4323	-18.7116	-20.1183
  40	1	9	0.069029	-43.1909	-18.587	-21.8666
  41	1	9	0.053284	-42.2174	-17.6039	-20.7497
  42	1	7	-0.244214	-41.3321	-23.0913	-19.1189
  43	1	9	0.063506	-41.2568	-14.3365	-26.9714
  44	1	9	0.093434	-39.792	-13.4122	-26.7363
  45	1	6	0.232522	-42.8382	-20.889	-19.513
  46	1	9	0.020884	-42.3593	-23.0497	-18.7364
  47	1	9	0.114771	-40.6522	-23.1414	-18.2608
  48	1	9	0.181647	-41.2211	-24.022	-19.6871
  49	1	9	0.069456	-38.1593	-21.4605	-23.0431
  50	1	9	0.029017	-37.309	-20.8036	-21.6393
  51	1	9	-0.058945	-38.0119	-19.7154	-22.8313
  52	1	4	0.329672	-37.8904	-22.6988	-20.7502
  53	1	1	0.452895	-39.4062	-17.6503	-17.7264
  54	1	2	0.074505	-38.4106	-16.8195	-17.2183
  55	1	3	0.001656	-39.1549	-15.6594	-16.6635
  56	1	2	0.074191	-40.6996	-17.1555	-17.572
  57	1	3	0.036519	-40.5094	-15.8599	-16.8719
  58	1	5	-0.399533	-37.1984	-16.9533	-17.2622
  59	1	5	-0.398173	-41.7607	-17.6314	-17.944
  60	1	3	-0.067442	-38.6728	-14.4973	-16.0506
  61	1	3	-0.068422	-41.4576	-14.912	-16.4735
  62	1	3	-0.213282	-40.9927	-13.738	-15.8451
  63	1	3	-0.047343	-39.6082	-13.5228	-15.6364
  64	1	6	0.159476	-37.6034	-14.3602	-15.9134
  65	1	6	0.16033	-42.5161	-15.0811	-16.6574
  66	1	6	0.171114	-41.7095	-12.9813	-15.5341
  67	1	7	-0.06383	-39.1331	-12.2338	-14.9779
  68	1	3	0.009736	-39.6675	-10.991	-15.6787
  69	1	3	-0.108991	-39.4347	-10.81	-17.0596
  70	1	3	-0.114952	-39.9463	-9.65888	-17.6724
  71	1	3	-0.090153	-40.3983	-10.0188	-14.9516
  72	1	3	-0.148302	-40.9021	-8.86491	-15.5877
  73	1	3	-0.073574	-40.6583	-8.71311	-16.9587
  74	1	2	0.475719	-41.0457	-7.62018	-17.8926
  75	1	1	0.026291	-40.5292	-7.98859	-19.1267
  76	1	2	0.472085	-39.8578	-9.20325	-19.085
  77	1	3	-0.022377	-40.6508	-7.20354	-20.3074
  78	1	3	-0.088654	-41.6524	-7.49708	-21.2653
  79	1	3	0.02488	-41.6755	-6.7794	-22.49
  80	1	3	0.040063	-39.7291	-6.15998	-20.5342
  81	1	3	-0.361597	-39.7976	-5.42267	-21.7234
  82	1	3	0.096629	-40.7514	-5.73093	-22.7032
  83	1	7	-0.018671	-42.7011	-8.57388	-20.9648
  84	1	8	-0.317996	-42.5592	-7.09953	-23.5257
  85	1	6	0.16694	-41.4622	-8.11093	-15.038
  86	1	6	0.13386	-40.5753	-10.1586	-13.8885
  87	1	6	0.147907	-38.8799	-11.5433	-17.6409
  88	1	5	-0.491298	-39.2814	-9.77778	-19.9931
  89	1	5	-0.47861	-41.6673	-6.61015	-17.6078
  90	1	7	-0.160952	-38.6491	-5.81592	-19.5155
  91	1	9	0.05529	-38.0165	-6.68609	-19.3003
  92	1	9	0.069029	-39.0949	-5.47495	-18.5726
  93	1	9	0.053284	-37.9909	-5.01497	-19.8732
  94	1	7	-0.244214	-40.731	-4.94725	-24.0095
  95	1	9	0.063506	-39.4383	-12.2392	-13.924
  96	1	9	0.093434	-38.0365	-12.1908	-14.9684
  97	1	6	0.232522	-39.0792	-4.62854	-21.8962
  98	1	9	0.020884	-41.7315	-4.59193	-24.2854
  99	1	9	0.114771	-40.3441	-5.57151	-24.8255
 100	1	9	0.181647	-40.0816	-4.06714	-23.9385
 101	1	9	0.069456	-43.6822	-8.29899	-21.3699
 102	1	9	0.029017	-42.8626	-8.72267	-19.8912
 103	1	9	-0.058945	-42.4061	-9.5397	-21.3931
 104	1	4	0.329672	-42.5754	-6.46423	-24.3082
 105	1	1	0.452895	-28.2729	-30.3876	-17.7385
 106	1	2	0.074505	-27.6475	-29.1692	-17.9826
 107	1	3	0.001656	-28.7351	-28.1692	-17.8203
 108	1	2	0.074191	-29.6149	-30.2891	-17.3837
 109	1	3	0.036519	-29.8962	-28.8317	-17.4551
 110	1	5	-0.399533	-26.4768	-28.948	-18.2468
 111	1	5	-0.398173	-30.4004	-31.1777	-17.0921
 112	1	3	-0.067442	-28.7098	-26.7818	-18.0033
 113	1	3	-0.068422	-31.0889	-28.1385	-17.2278
 114	1	3	-0.213282	-31.0817	-26.7383	-17.3981
 115	1	3	-0.047343	-29.9048	-26.0552	-17.8023
 116	1	6	0.159476	-27.7871	-26.291	-18.3017
 117	1	6	0.16033	-31.9892	-28.674	-16.9343
 118	1	6	0.171114	-32.0023	-26.1857	-17.2238
 119	1	7	-0.06383	-29.9068	-24.5425	-18.0167
 120	1	3	0.009736	-31.2562	-24.0006	-18.4732
 121	1	3	-0.108991	-32.0314	-23.2115	-17.5964
 122	1	3	-0.114952	-33.304	-22.8082	-18.0194
 123	1	3	-0.090153	-31.7633	-24.3448	-19.7505
 124	1	3	-0.148302	-33.0521	-23.9357	-20.1534
 125	1	3	-0.073574	-33.8082	-23.1722	-19.2539
 126	1	2	0.475719	-35.2127	-22.6846	-19.3425
 127	1	1	0.026291	-35.464	-22.0554	-18.1291
 128	1	2	0.472085	-34.3579	-22.0564	-17.2893
 129	1	3	-0.022377	-36.75	-21.5802	-17.7419
 130	1	3	-0.088654	-37.2742	-20.3741	-18.2719
 131	1	3	0.02488	-38.569	-19.9429	-17.8818
 132	1	3	0.040063	-37.5093	-22.3445	-16.8289
 133	1	3	-0.361597	-38.7756	-21.8963	-16.4373
 134	1	3	0.096629	-39.317	-20.7159	-16.9603
 135	1	7	-0.018671	-36.4207	-19.5103	-19.2126
 136	1	8	-0.317996	-39.1204	-18.8061	-18.4765
 137	1	6	0.16694	-33.463	-24.2246	-21.1188
 138	1	6	0.13386	-31.1661	-24.9635	-20.4155
 139	1	6	0.147907	-31.6752	-22.9496	-16.6025
 140	1	5	-0.491298	-34.2749	-21.6307	-16.1498
 141	1	5	-0.47861	-35.993	-22.8874	-20.2609
 142	1	7	-0.160952	-36.9985	-23.6607	-16.253
 143	1	9	0.05529	-37.7929	-24.2118	-15.7355
 144	1	9	0.069029	-36.1972	-23.4843	-15.5245
 145	1	9	0.053284	-36.6095	-24.3192	-17.0393
 146	1	7	-0.244214	-40.7331	-20.3511	-16.5403
 147	1	9	0.063506	-29.5971	-24.0503	-17.086
 148	1	9	0.093434	-29.1477	-24.2701	-18.761
 149	1	6	0.232522	-39.3569	-22.4845	-15.7347
 150	1	9	0.020884	-41.2208	-21.1633	-15.9878
 151	1	9	0.114771	-41.3567	-20.1396	-17.4162
 152	1	9	0.181647	-40.7395	-19.4654	-15.8966
 153	1	9	0.069456	-35.8702	-18.7514	-18.6429
 154	1	9	0.029017	-37.021	-18.9886	-19.9641
 155	1	9	-0.058945	-35.6808	-20.0886	-19.7755
 156	1	4	0.329672	-38.7045	-18.4764	-19.3423
 157	1	1	0.452895	-13.3728	-38.5444	-20.1329
 158	1	2	0.074505	-14.044	-38.0262	-21.2377
 159	1	3	0.001656	-15.4515	-37.9008	-20.7791
 160	1	2	0.074191	-14.1686	-38.7129	-19.004
 161	1	3	0.036519	-15.5268	-38.3026	-19.455
 162	1	5	-0.399533	-13.599	-37.7096	-22.33
 163	1	5	-0.398173	-13.8354	-39.0512	-17.8796
 164	1	3	-0.067442	-16.5864	-37.491	-21.487
 165	1	3	-0.068422	-16.7438	-38.297	-18.7625
 166	1	3	-0.213282	-17.9024	-37.8904	-19.461
 167	1	3	-0.047343	-17.8308	-37.4956	-20.8191
 168	1	6	0.159476	-16.5014	-37.2084	-22.5331
 169	1	6	0.16033	-16.7861	-38.6191	-17.7243
 170	1	6	0.171114	-18.8649	-37.9006	-18.9533
 171	1	7	-0.06383	-19.1019	-37.1686	-21.5909
 172	1	3	0.009736	-19.9105	-36.0004	-21.0388
 173	1	3	-0.108991	-21.2999	-36.156	-20.8466
 174	1	3	-0.114952	-22.0505	-35.0323	-20.4827
 175	1	3	-0.090153	-19.3093	-34.7336	-20.8334
 176	1	3	-0.148302	-20.0867	-33.6114	-20.4694
 177	1	3	-0.073574	-21.469	-33.7904	-20.3155
 178	1	2	0.475719	-22.5589	-32.7982	-20.0829
 179	1	1	0.026291	-23.7417	-33.5242	-20.1537
 180	1	2	0.472085	-23.5205	-34.8812	-20.3446
 181	1	3	-0.022377	-25.0466	-32.9506	-20.1684
 182	1	3	-0.088654	-25.6805	-32.5356	-18.9712
 183	1	3	0.02488	-27.0102	-32.0409	-19.0144
 184	1	3	0.040063	-25.723	-32.844	-21.4028
 185	1	3	-0.361597	-27.0434	-32.3813	-21.4308
 186	1	3	0.096629	-27.7024	-32.0024	-20.2536
 187	1	7	-0.018671	-24.9086	-32.5861	-17.645
 188	1	8	-0.317996	-27.5977	-31.621	-17.8161
 189	1	6	0.16694	-19.6401	-32.6255	-20.355
 190	1	6	0.13386	-18.2417	-34.6127	-20.9989
 191	1	6	0.147907	-21.7972	-37.1054	-21.0311
 192	1	5	-0.491298	-24.3458	-35.7697	-20.4717
 193	1	5	-0.47861	-22.4241	-31.5936	-19.9521
 194	1	7	-0.160952	-25.0628	-33.2364	-22.7204
 195	1	9	0.05529	-24.9439	-34.3245	-22.7935
 196	1	9	0.069029	-24.0726	-32.775	-22.8222
 197	1	9	0.053284	-25.657	-32.9145	-23.5841
 198	1	7	-0.244214	-29.1651	-31.5963	-20.3799
 199	1	9	0.063506	-18.8588	-36.9532	-22.6391
 200	1	9	0.093434	-19.7254	-38.0711	-21.6234
 201	1	6	0.232522	-27.5634	-32.3294	-22.3816
 202	1	9	0.020884	-29.2834	-30.5067	-20.3405
 203	1	9	0.114771	-29.771	-32.0482	-19.5848
 204	1	9	0.181647	-29.5956	-31.9403	-21.3268
 205	1	9	0.069456	-24.3121	-31.6727	-17.5175
 206	1	9	0.029017	-24.2231	-33.4405	-17.597
 207	1	9	-0.058945	-25.5654	-32.6793	-16.7713
 208	1	4	0.329672	-27.0301	-31.7102	-16.9866
 209	1	1	0.452895	-2.25713	-48.2987	-13.3244
 210	1	2	0.074505	-3.32067	-47.7607	-14.0462
 211	1	3	0.001656	-3.64018	-46.4929	-13.3356
 212	1	2	0.074191	-1.84875	-47.5282	-12.2416
 213	1	3	0.036519	-2.75954	-46.3527	-12.2739
 214	1	5	-0.399533	-3.93259	-48.2489	-14.9828
 215	1	5	-0.398173	-1.0478	-47.812	-11.3654
 216	1	3	-0.067442	-4.68839	-45.5845	-13.5438
 217	1	3	-0.068422	-2.8628	-45.283	-11.3793
 218	1	3	-0.213282	-3.9039	-44.352	-11.5783
 219	1	3	-0.047343	-4.82349	-44.4999	-12.6466
 220	1	6	0.159476	-5.39824	-45.7434	-14.3523
 221	1	6	0.16033	-2.17652	-45.2026	-10.5388
 222	1	6	0.171114	-4.02003	-43.5331	-10.872
 223	1	7	-0.06383	-6.01376	-43.5486	-12.7419
 224	1	3	0.009736	-6.33937	-43.0445	-14.1439
 225	1	3	-0.108991	-7.66391	-43.1343	-14.6276
 226	1	3	-0.114952	-7.95291	-42.5844	-15.8835
 227	1	3	-0.090153	-5.34342	-42.4157	-14.9311
 228	1	3	-0.148302	-5.65469	-41.8732	-16.1968
 229	1	3	-0.073574	-6.97905	-41.9696	-16.6465
 230	1	2	0.475719	-7.61584	-41.479	-17.9015
 231	1	1	0.026291	-8.95528	-41.8342	-17.8054
 232	1	2	0.472085	-9.24146	-42.505	-16.6233
 233	1	3	-0.022377	-9.92065	-41.5756	-18.8232
 234	1	3	-0.088654	-10.4941	-40.2871	-18.9662
 235	1	3	0.02488	-11.4526	-40.0498	-19.9868
 236	1	3	0.040063	-10.2946	-42.6197	-19.6942
 237	1	3	-0.361597	-11.2339	-42.3743	-20.7032
 238	1	3	0.096629	-11.8082	-41.1057	-20.8664
 239	1	7	-0.018671	-10.0566	-39.1709	-18.0065
 240	1	8	-0.317996	-11.9796	-38.7604	-20.1218
 241	1	6	0.16694	-4.89823	-41.3805	-16.8046
 242	1	6	0.13386	-4.32817	-42.3369	-14.5501
 243	1	6	0.147907	-8.45425	-43.5952	-14.0392
 244	1	5	-0.491298	-10.3102	-42.9604	-16.2548
 245	1	5	-0.47861	-7.06111	-40.8786	-18.8068
 246	1	7	-0.160952	-9.68796	-44.0134	-19.5807
 247	1	9	0.05529	-9.97253	-44.6512	-20.4263
 248	1	9	0.069029	-10.0269	-44.5137	-18.6649
 249	1	9	0.053284	-8.59188	-43.9707	-19.5631
 250	1	7	-0.244214	-12.7619	-40.9221	-22.0387
 251	1	9	0.063506	-6.89045	-44.0542	-12.3172
 252	1	9	0.093434	-5.84609	-42.6767	-12.0973
 253	1	6	0.232522	-11.5106	-43.1809	-21.3743
 254	1	9	0.020884	-13.8007	-40.8354	-21.6984
 255	1	9	0.114771	-12.7176	-41.7671	-22.7353
 256	1	9	0.181647	-12.5024	-40.0268	-22.6175
 257	1	9	0.069456	-9.00807	-38.8987	-18.1829
 258	1	9	0.029017	-10.1467	-39.4954	-16.9621
 259	1	9	-0.058945	-10.6439	-38.2497	-18.0958
 260	1	4	0.329672	-11.5894	-38.0624	-19.5056
 261	1	1	0.452895	10.3126	-58.354	-8.7319
 262	1	2	0.074505	9.64588	-57.7539	-9.7989
 263	1	3	0.001656	8.23184	-57.6675	-9.34504
 264	1	2	0.074191	9.49777	-58.6632	-7.64834
 265	1	3	0.036519	8.14723	-58.2016	-8.06865
 266	1	5	-0.399533	10.0788	-57.4521	-10.8997
 267	1	5	-0.398173	9.77482	-59.3054	-6.64836
 268	1	3	-0.067442	7.09054	-57.2411	-10.0387
 269	1	3	-0.068422	6.91899	-58.3202	-7.40969
 270	1	3	-0.213282	5.7591	-57.8889	-8.08804
 271	1	3	-0.047343	5.83552	-57.3601	-9.40069
 272	1	6	0.159476	7.17429	-56.8687	-11.0568
 273	1	6	0.16033	6.86937	-58.7647	-6.41769
 274	1	6	0.171114	4.79178	-58.0027	-7.60395
 275	1	7	-0.06383	4.55439	-57.0279	-10.1599
 276	1	3	0.009736	4.34368	-55.557	-10.5108
 277	1	3	-0.108991	3.54099	-55.2431	-11.6292
 278	1	3	-0.114952	3.27365	-53.8966	-11.9044
 279	1	3	-0.090153	4.85929	-54.5108	-9.70342
 280	1	3	-0.148302	4.57943	-53.158	-10.0013
 281	1	3	-0.073574	3.77168	-52.8797	-11.1135
 282	1	2	0.475719	3.24349	-51.5855	-11.6377
 283	1	1	0.026291	2.43673	-51.9238	-12.717
 284	1	2	0.472085	2.41872	-53.2908	-12.9573
 285	1	3	-0.022377	1.65896	-50.9991	-13.4735
 286	1	3	-0.088654	0.329067	-50.6929	-13.0887
 287	1	3	0.02488	-0.464151	-49.8505	-13.9089
 288	1	3	0.040063	2.19843	-50.4491	-14.6548
 289	1	3	-0.361597	1.40144	-49.6255	-15.4619
 290	1	3	0.096629	0.0738806	-49.338	-15.1149
 291	1	7	-0.018671	-0.239042	-51.2432	-11.7714
 292	1	8	-0.317996	-1.78824	-49.6114	-13.5324
 293	1	6	0.16694	4.95498	-52.3508	-9.37545
 294	1	6	0.13386	5.46035	-54.7472	-8.82919
 295	1	6	0.147907	3.10741	-56.0226	-12.2519
 296	1	5	-0.491298	1.79998	-53.8967	-13.8153
 297	1	5	-0.47861	3.44928	-50.4776	-11.1724
 298	1	7	-0.160952	3.62425	-50.7552	-15.0951
 299	1	9	0.05529	3.90649	-50.1823	-15.9868
 300	1	9	0.069029	3.74009	-51.8189	-15.3375
 301	1	9	0.053284	4.34345	-50.5024	-14.306
 302	1	7	-0.244214	-0.752893	-48.5204	-16.098
 303	1	9	0.063506	4.53983	-57.6236	-11.0818
 304	1	9	0.093434	3.68395	-57.3715	-9.58703
 305	1	6	0.232522	1.80885	-49.2281	-16.3863
 306	1	9	0.020884	-0.268802	-48.4552	-17.0803
 307	1	9	0.114771	-0.902265	-47.4967	-15.7371
 308	1	9	0.181647	-1.73719	-48.979	-16.2597
 309	1	9	0.069456	-0.0423065	-50.5405	-10.9506
 310	1	9	0.029017	0.196374	-52.2087	-11.4906
 311	1	9	-0.058945	-1.32279	-51.4081	-11.816
 312	1	4	0.329672	-2.12227	-50.1602	-12.7529
 313	1	1	0.452895	22.0703	-65.4588	1.76907
 314	1	2	0.074505	21.64	-65.8696	0.507795
 315	1	3	0.001656	21.1548	-64.621	-0.13963
 316	1	2	0.074191	21.8597	-64.1078	2.02859
 317	1	3	0.036519	21.2791	-63.5777	0.763031
 318	1	5	-0.399533	21.6123	-66.9937	0.0321057
 319	1	5	-0.398173	22.0266	-63.5005	3.07392
 320	1	3	-0.067442	20.666	-64.4148	-1.43657
 321	1	3	-0.068422	20.9034	-62.2731	0.418927
 322	1	3	-0.213282	20.4157	-62.0434	-0.887664
 323	1	3	-0.047343	20.2979	-63.1041	-1.81982
 324	1	6	0.159476	20.6061	-65.249	-2.13083
 325	1	6	0.16033	21.0113	-61.4643	1.13856
 326	1	6	0.171114	20.1452	-61.0326	-1.18715
 327	1	7	-0.06383	19.8709	-62.824	-3.26153
 328	1	3	0.009736	18.5234	-62.1259	-3.45459
 329	1	3	-0.108991	18.3131	-61.3746	-4.6338
 330	1	3	-0.114952	17.0654	-60.7659	-4.83014
 331	1	3	-0.090153	17.4711	-62.2539	-2.51226
 332	1	3	-0.148302	16.2249	-61.623	-2.72416
 333	1	3	-0.073574	16.0511	-60.8789	-3.90004
 334	1	2	0.475719	14.8785	-60.101	-4.39583
 335	1	1	0.026291	15.2718	-59.5633	-5.6156
 336	1	2	0.472085	16.5702	-59.9256	-5.95474
 337	1	3	-0.022377	14.4685	-58.6838	-6.40549
 338	1	3	-0.088654	13.4087	-59.1828	-7.20586
 339	1	3	0.02488	12.6515	-58.2918	-8.01326
 340	1	3	0.040063	14.7628	-57.3031	-6.4066
 341	1	3	-0.361597	14.0223	-56.4373	-7.22135
 342	1	3	0.096629	12.9837	-56.914	-8.03201
 343	1	7	-0.018671	13.0867	-60.6836	-7.16925
 344	1	8	-0.317996	11.6422	-58.8141	-8.82826
 345	1	6	0.16694	15.416	-61.7102	-2.00134
 346	1	6	0.13386	17.6192	-62.8445	-1.6118
 347	1	6	0.147907	19.0944	-61.269	-5.38321
 348	1	5	-0.491298	17.204	-59.6113	-6.94775
 349	1	5	-0.47861	13.8121	-59.9597	-3.82218
 350	1	7	-0.160952	15.8923	-56.7185	-5.56628
 351	1	9	0.05529	15.7966	-55.6308	-5.46309
 352	1	9	0.069029	16.8659	-56.9213	-6.03009
 353	1	9	0.053284	15.9016	-57.1367	-4.55234
 354	1	7	-0.244214	12.2953	-55.9123	-8.94934
 355	1	9	0.063506	20.6557	-62.2167	-3.73078
 356	1	9	0.093434	19.855	-63.7605	-3.83291
 357	1	6	0.232522	14.2745	-55.3816	-7.2428
 358	1	9	0.020884	12.841	-54.9619	-8.99777
 359	1	9	0.114771	11.2805	-55.6868	-8.60363
 360	1	9	0.181647	12.2369	-56.2972	-9.9757
 361	1	9	0.069456	12.5669	-60.9404	-6.23653
 362	1	9	0.029017	13.9995	-61.2897	-7.22278
 363	1	9	-0.058945	12.4518	-61.0181	-7.99828
 364	1	4	0.329672	11.5898	-59.8222	-8.86075
 365	1	1	0.452895	32.8204	-63.8528	14.6915
 366	1	2	0.074505	31.5394	-64.3692	14.8818
 367	1	3	0.001656	30.771	-63.8827	13.7052
 368	1	2	0.074191	32.9781	-63.1347	13.5105
 369	1	3	0.036519	31.625	-63.1581	12.8889
 370	1	5	-0.399533	31.1325	-65.1103	15.7633
 371	1	5	-0.398173	34.0027	-62.6787	13.0285
 372	1	3	-0.067442	29.4221	-64.0692	13.3749
 373	1	3	-0.068422	31.1773	-62.5978	11.6868
 374	1	3	-0.213282	29.8201	-62.7725	11.3374
 375	1	3	-0.047343	28.9386	-63.4975	12.1757
 376	1	6	0.159476	28.7723	-64.6308	14.0408
 377	1	6	0.16033	31.863	-62.0401	11.0525
 378	1	6	0.171114	29.4471	-62.3372	10.4129
 379	1	7	-0.06383	27.4635	-63.6156	11.8052
 380	1	3	0.009736	27.2053	-64.5087	10.5965
 381	1	3	-0.108991	26.7544	-63.9523	9.37641
 382	1	3	-0.114952	26.476	-64.8216	8.31029
 383	1	3	-0.090153	27.3736	-65.9099	10.7124
 384	1	3	-0.148302	27.09	-66.7666	9.62867
 385	1	3	-0.073574	26.6346	-66.1886	8.43653
 386	1	2	0.475719	26.2594	-66.8223	7.14382
 387	1	1	0.026291	25.9012	-65.7776	6.30154
 388	1	2	0.472085	25.998	-64.5397	6.9257
 389	1	3	-0.022377	25.5575	-65.9733	4.92985
 390	1	3	-0.088654	24.2025	-66.0222	4.51151
 391	1	3	0.02488	23.8915	-66.3012	3.15305
 392	1	3	0.040063	26.5944	-66.1845	3.99722
 393	1	3	-0.361597	26.2765	-66.5031	2.67211
 394	1	3	0.096629	24.9443	-66.5895	2.24783
 395	1	7	-0.018671	23.0945	-65.7596	5.53964
 396	1	8	-0.317996	22.5498	-66.3509	2.75384
 397	1	6	0.16694	27.2142	-67.8448	9.70948
 398	1	6	0.13386	27.7195	-66.3339	11.6515
 399	1	6	0.147907	26.613	-62.8805	9.25933
 400	1	5	-0.491298	25.7746	-63.4396	6.45122
 401	1	5	-0.47861	26.2989	-68.0143	6.88891
 402	1	7	-0.160952	28.0628	-66.1154	4.40008
 403	1	9	0.05529	28.724	-66.1279	3.52511
 404	1	9	0.069029	28.3373	-66.969	5.03205
 405	1	9	0.053284	28.2799	-65.1934	4.95379
 406	1	7	-0.244214	24.7017	-67.0641	0.82298
 407	1	9	0.063506	26.8923	-64.0006	12.6597
 408	1	9	0.093434	27.0592	-62.6119	11.6226
 409	1	6	0.232522	27.0758	-66.7151	1.96878
 410	1	9	0.020884	25.5923	-67.5433	0.397699
 411	1	9	0.114771	24.4301	-66.2321	0.164469
 412	1	9	0.181647	23.8999	-67.8124	0.791161
 413	1	9	0.069456	23.0425	-64.6897	5.7818
 414	1	9	0.029017	23.2779	-66.3064	6.47291
 415	1	9	-0.058945	22.0991	-66.0679	5.19787
 416	1	4	0.329672	21.8741	-66.3232	3.5043
 417	1	1	0.452895	44.2359	-63.3391	23.7255
 418	1	2	0.074505	44.0606	-62.239	22.8891
 419	1	3	0.001656	44.1532	-62.8154	21.5189
 420	1	2	0.074191	44.4476	-64.5441	23.0646
 421	1	3	0.036519	44.3746	-64.1802	21.6285
 422	1	5	-0.399533	43.9269	-61.0615	23.189
 423	1	5	-0.398173	44.6621	-65.6522	23.5321
 424	1	3	-0.067442	44.0644	-62.192	20.2673
 425	1	3	-0.068422	44.5046	-64.9967	20.5016
 426	1	3	-0.213282	44.4088	-64.3895	19.2339
 427	1	3	-0.047343	44.1948	-62.9952	19.1122
 428	1	6	0.159476	43.9	-61.119	20.1936
 429	1	6	0.16033	44.6728	-66.0653	20.6134
 430	1	6	0.171114	44.5007	-65.0044	18.3424
 431	1	7	-0.06383	44.1041	-62.3618	17.7319
 432	1	3	0.009736	42.6895	-61.9453	17.3434
 433	1	3	-0.108991	41.5737	-62.7375	17.6997
 434	1	3	-0.114952	40.2985	-62.2986	17.3156
 435	1	3	-0.090153	42.4974	-60.7525	16.6049
 436	1	3	-0.148302	41.2074	-60.3295	16.2268
 437	1	3	-0.073574	40.1212	-61.1301	16.5992
 438	1	2	0.475719	38.6636	-60.9351	16.3755
 439	1	1	0.026291	38.0453	-62.0139	16.9934
 440	1	2	0.472085	38.9559	-62.8856	17.5772
 441	1	3	-0.022377	36.6305	-62.1704	17.073
 442	1	3	-0.088654	35.9523	-63.0819	16.2255
 443	1	3	0.02488	34.5423	-63.225	16.3247
 444	1	3	0.040063	35.9127	-61.4089	18.018
 445	1	3	-0.361597	34.5234	-61.553	18.1065
 446	1	3	0.096629	33.8327	-62.4513	17.2803
 447	1	7	-0.018671	36.7708	-63.9045	15.22
 448	1	8	-0.317996	33.9097	-64.1843	15.5243
 449	1	6	0.16694	41.0521	-59.4048	15.6763
 450	1	6	0.13386	43.3555	-60.1421	16.3384
 451	1	6	0.147907	41.6877	-63.6563	18.2698
 452	1	5	-0.491298	38.7239	-63.9158	18.1873
 453	1	5	-0.47861	38.1429	-59.997	15.7952
 454	1	7	-0.160952	36.6132	-60.4497	18.9741
 455	1	9	0.05529	37.1226	-59.6458	18.4289
 456	1	9	0.069029	37.3591	-60.9764	19.5825
 457	1	9	0.053284	35.9068	-59.9745	19.6654
 458	1	7	-0.244214	32.3345	-62.588	17.5076
 459	1	9	0.063506	44.7668	-61.489	17.706
 460	1	9	0.093434	44.4963	-63.0495	16.9731
 461	1	6	0.232522	33.978	-60.9678	18.84
 462	1	9	0.020884	31.7644	-62.175	16.667
 463	1	9	0.114771	32.0089	-62.0587	18.4103
 464	1	9	0.181647	32.0555	-63.6403	17.643
 465	1	9	0.069456	37.4135	-64.625	15.7421
 466	1	9	0.029017	37.4184	-63.2543	14.6181
 467	1	9	-0.058945	36.1607	-64.4749	14.5104
 468	1	4	0.329672	34.5272	-64.7568	14.9668
 469	1	1	0.452895	49.4892	-56.9096	35.1174
 470	1	2	0.074505	48.4104	-57.682	35.5407
 471	1	3	0.001656	47.2772	-57.2097	34.7035
 472	1	2	0.074191	49.1732	-55.9598	34.1503
 473	1	3	0.036519	47.7282	-56.1875	33.8839
 474	1	5	-0.399533	48.3599	-58.4923	36.453
 475	1	5	-0.398173	49.8815	-55.0912	33.6659
 476	1	3	-0.067442	45.945	-57.6392	34.675
 477	1	3	-0.068422	46.868	-55.5359	32.9945
 478	1	3	-0.213282	45.5196	-55.9501	32.9553
 479	1	3	-0.047343	45.0524	-56.999	33.7862
 480	1	6	0.159476	45.6204	-58.4442	35.329
 481	1	6	0.16033	47.2388	-54.735	32.3587
 482	1	6	0.171114	44.8364	-55.4543	32.2714
 483	1	7	-0.06383	43.5849	-57.4127	33.7493
 484	1	3	0.009736	43.106	-57.7948	32.3541
 485	1	3	-0.108991	43.296	-59.1106	31.8783
 486	1	3	-0.114952	42.8324	-59.4232	30.5927
 487	1	3	-0.090153	42.4587	-56.8348	31.537
 488	1	3	-0.148302	42.0096	-57.1676	30.2421
 489	1	3	-0.073574	42.2132	-58.4791	29.7953
 490	1	2	0.475719	41.8589	-59.1217	28.4998
 491	1	1	0.026291	42.2912	-60.4365	28.6079
 492	1	2	0.472085	42.8839	-60.7023	29.8356
 493	1	3	-0.022377	42.1457	-61.4119	27.5796
 494	1	3	-0.088654	43.2652	-61.8079	26.8053
 495	1	3	0.02488	43.1253	-62.8362	25.8393
 496	1	3	0.040063	40.8849	-62.0078	27.3649
 497	1	3	-0.361597	40.7541	-63.0141	26.4003
 498	1	3	0.096629	41.8581	-63.4504	25.6545
 499	1	7	-0.018671	44.6234	-61.129	27.0354
 500	1	8	-0.317996	44.2602	-63.2443	25.1292
 501	1	6	0.16694	41.5187	-56.4354	29.6038
 502	1	6	0.13386	42.3087	-55.8246	31.9079
 503	1	6	0.147907	43.7895	-59.8665	32.4852
 504	1	5	-0.491298	43.3489	-61.7567	30.2338
 505	1	5	-0.47861	41.3011	-58.5859	27.5566
 506	1	7	-0.160952	39.6571	-61.6094	28.176
 507	1	9	0.05529	39.3577	-60.5775	27.9541
 508	1	9	0.069029	39.8498	-61.6872	29.253
 509	1	9	0.053284	38.7963	-62.2517	27.9534
 510	1	7	-0.244214	41.6334	-64.6244	24.7108
 511	1	9	0.063506	43.412	-58.2547	34.4321
 512	1	9	0.093434	42.9707	-56.593	34.1428
 513	1	6	0.232522	39.7853	-63.4783	26.2465
 514	1	9	0.020884	41.6278	-64.3003	23.6631
 515	1	9	0.114771	40.6759	-65.1222	24.9019
 516	1	9	0.181647	42.4122	-65.3861	24.8433
 517	1	9	0.069456	45.1363	-61.5734	27.8981
 518	1	9	0.029017	44.5097	-60.0554	27.23
 519	1	9	-0.058945	45.2957	-61.2049	26.1722
 520	1	4	0.329672	45.1536	-62.8402	25.3857
 521	1	1	0.452895	47.9471	-60.9089	23.8102
 522	1	2	0.074505	48.1064	-61.9886	24.6728
 523	1	3	0.001656	49.4569	-61.7754	25.2625
 524	1	2	0.074191	48.9815	-59.9799	23.8429
 525	1	3	0.036519	49.965	-60.577	24.7828
 526	1	5	-0.399533	47.3322	-62.9086	24.8945
 527	1	5	-0.398173	49.1008	-58.9397	23.2158
 528	1	3	-0.067442	50.2155	-62.6057	26.0977
 529	1	3	-0.068422	51.2408	-60.128	25.1395
 530	1	3	-0.213282	52.0184	-60.9496	25.9816
 531	1	3	-0.047343	51.5205	-62.1903	26.4488
 532	1	6	0.159476	49.8106	-63.5563	26.435
 533	1	6	0.16033	51.6193	-59.1839	24.7535
 534	1	6	0.171114	53.0192	-60.6284	26.2612
 535	1	7	-0.06383	52.4134	-63.0913	27.292
 536	1	3	0.009736	52.9008	-62.4086	28.5613
 537	1	3	-0.108991	51.9702	-62.0764	29.5672
 538	1	3	-0.114952	52.4465	-61.4612	30.7303
 539	1	3	-0.090153	54.2758	-62.1149	28.7424
 540	1	3	-0.148302	54.7346	-61.4945	29.9239
 541	1	3	-0.073574	53.7882	-61.1794	30.9078
 542	1	2	0.475719	53.9569	-60.5513	32.248
 543	1	1	0.026291	52.6812	-60.5037	32.7932
 544	1	2	0.472085	51.7142	-61.0206	31.9445
 545	1	3	-0.022377	52.3808	-59.993	34.085
 546	1	3	-0.088654	51.846	-58.6902	34.2295
 547	1	3	0.02488	51.4408	-58.2448	35.5129
 548	1	3	0.040063	52.5546	-60.8244	35.2108
 549	1	3	-0.361597	52.218	-60.3432	36.4826
 550	1	3	0.096629	51.6674	-59.0648	36.643
 551	1	7	-0.018671	51.7171	-57.7755	33.0059
 552	1	8	-0.317996	50.7737	-57.0303	35.6874
 553	1	6	0.16694	55.7883	-61.2687	30.0771
 554	1	6	0.13386	54.9913	-62.3728	27.9664
 555	1	6	0.147907	50.9102	-62.2906	29.4512
 556	1	5	-0.491298	50.5159	-61.1281	32.1438
 557	1	5	-0.47861	55.0089	-60.2024	32.7575
 558	1	7	-0.160952	53.083	-62.2473	35.0765
 559	1	9	0.05529	53.1423	-62.7539	36.0473
 560	1	9	0.069029	54.0901	-62.2553	34.6417
 561	1	9	0.053284	52.4281	-62.8495	34.4342
 562	1	7	-0.244214	51.2719	-58.6272	38.0476
 563	1	9	0.063506	51.8786	-64.0102	27.5641
 564	1	9	0.093434	53.2668	-63.4188	26.685
 565	1	6	0.232522	52.353	-60.9844	37.3473
 566	1	9	0.020884	51.4539	-57.559	38.2164
 567	1	9	0.114771	51.8433	-59.1733	38.8077
 568	1	9	0.181647	50.2087	-58.8345	38.2259
 569	1	9	0.069456	51.9249	-56.73	33.2653
 570	1	9	0.029017	50.7096	-57.8308	32.5762
 571	1	9	-0.058945	52.428	-58.0306	32.2109
 572	1	4	0.329672	50.6896	-56.7028	36.6369
 573	1	1	0.452895	45.6922	-50.7284	10.986
 574	1	2	0.074505	45.2039	-50.571	12.2778
 575	1	3	0.001656	44.7953	-51.9403	12.6795
 576	1	2	0.074191	45.6616	-52.0365	10.5122
 577	1	3	0.036519	45.0618	-52.8096	11.6331
 578	1	5	-0.399533	45.1555	-49.5604	12.9592
 579	1	5	-0.398173	46.0653	-52.4746	9.44738
 580	1	3	-0.067442	44.2695	-52.3917	13.8944
 581	1	3	-0.068422	44.8018	-54.1805	11.7428
 582	1	3	-0.213282	44.2715	-54.6566	12.9615
 583	1	3	-0.047343	44.0121	-53.7724	14.037
 584	1	6	0.159476	44.0962	-51.6913	14.708
 585	1	6	0.16033	45.0252	-54.8514	10.9158
 586	1	6	0.171114	44.0857	-55.7216	13.0835
 587	1	7	-0.06383	43.5248	-54.3223	15.3712
 588	1	3	0.009736	44.6022	-55.1193	16.1008
 589	1	3	-0.108991	44.2461	-56.2781	16.8261
 590	1	3	-0.114952	45.2634	-56.996	17.4699
 591	1	3	-0.090153	45.9586	-54.7048	16.058
 592	1	3	-0.148302	46.9671	-55.4464	16.7056
 593	1	3	-0.073574	46.5856	-56.5974	17.4047
 594	1	2	0.475719	47.4083	-57.5782	18.1635
 595	1	1	0.026291	46.5076	-58.5168	18.6471
 596	1	2	0.472085	45.1983	-58.2381	18.2851
 597	1	3	-0.022377	46.8823	-59.6557	19.4122
 598	1	3	-0.088654	46.6692	-59.6747	20.8117
 599	1	3	0.02488	47.0534	-60.8127	21.5623
 600	1	3	0.040063	47.4536	-60.7693	18.7615
 601	1	3	-0.361597	47.7984	-61.9011	19.5101
 602	1	3	0.096629	47.5994	-61.939	20.8967
 603	1	7	-0.018671	46.0113	-58.4671	21.4969
 604	1	8	-0.317996	46.8456	-60.8012	22.9425
 605	1	6	0.16694	48.0108	-55.139	16.6668
 606	1	6	0.13386	46.2367	-53.8072	15.5119
 607	1	6	0.147907	43.2131	-56.6127	16.8899
 608	1	5	-0.491298	44.1975	-58.8854	18.5417
 609	1	5	-0.47861	48.6228	-57.5726	18.2704
 610	1	7	-0.160952	47.6942	-60.7866	17.2563
 611	1	9	0.05529	47.8968	-61.8007	16.8909
 612	1	9	0.069029	48.5594	-60.1637	16.9957
 613	1	9	0.053284	46.8257	-60.4116	16.7017
 614	1	7	-0.244214	47.9453	-63.2357	21.6146
 615	1	9	0.063506	43.1826	-53.5049	16.0188
 616	1	9	0.093434	42.6423	-54.9515	15.1978
 617	1	6	0.232522	48.2199	-62.7658	19.0076
 618	1	9	0.020884	48.0241	-64.0768	20.9149
 619	1	9	0.114771	47.1741	-63.5064	22.344
 620	1	9	0.181647	48.9032	-63.1536	22.1392
 621	1	9	0.069456	44.9217	-58.4974	21.3647
 622	1	9	0.029017	46.3738	-57.518	21.0835
 623	1	9	-0.058945	46.2062	-58.418	22.5745
 624	1	4	0.329672	46.2428	-60.0674	23.295
 625	1	1	0.452895	45.2929	-39.8736	1.6731
 626	1	2	0.074505	46.0297	-40.7631	0.891345
 627	1	3	0.001656	47.083	-41.2714	1.80895
 628	1	2	0.074191	45.8011	-39.6935	2.95611
 629	1	3	0.036519	46.9566	-40.6249	3.02739
 630	1	5	-0.399533	45.9113	-41.0296	-0.294237
 631	1	5	-0.398173	45.4698	-38.8793	3.80038
 632	1	3	-0.067442	48.0679	-42.2438	1.59292
 633	1	3	-0.068422	47.8386	-40.8812	4.08248
 634	1	3	-0.213282	48.8551	-41.8362	3.87479
 635	1	3	-0.047343	48.9575	-42.5413	2.64924
 636	1	6	0.159476	48.1238	-42.7616	0.638945