pySIMM System Object

1198 atoms
1312 bonds
2277 angles
3354 dihedrals
368 impropers

9 atom types
12 bond types
20 angle types
8 dihedral types
4 improper types

-158.694628 158.694628 xlo xhi
-158.694628 158.694628 ylo yhi
-158.694628 158.694628 zlo zhi

Masses

   1	14.01	# n
   2	12.01	# c
   3	12.01	# ca
   4	1.008	# hn
   5	16.0	# o
   6	1.008	# ha
   7	12.01	# c3
   8	14.01	# nh
   9	1.008	# hc

Pair Coeffs

   1	0.17	3.249998523775958	# n
   2	0.086	3.3996695084235347	# c
   3	0.086	3.3996695084235347	# ca
   4	0.0157	1.069078461768407	# hn
   5	0.21	2.959921901149463	# o
   6	0.015	2.59964245953351	# ha
   7	0.1094	3.3996695084235347	# c3
   8	0.17	3.249998523775958	# nh
   9	0.0157	2.649532787749369	# hc

Bond Coeffs

   1	384.2	1.4121	# ca,n
   2	404.6	1.0121	# hn,nh
   3	403.2	1.0129	# hn,n
   4	417.9	1.3859	# ca,nh
   5	461.1	1.3984	# ca,ca
   6	427.6	1.3789	# c,n
   7	345.9	1.4906	# c,ca
   8	345.8	1.086	# ca,ha
   9	321.0	1.5156	# c3,ca
  10	330.6	1.0969	# c3,hc
  11	637.7	1.2183	# c,o
  12	452.5	1.4016	# n,nh

Angle Coeffs

   1	63.53	120.77	# c3,ca,ca
   2	39.4	107.58	# hc,c3,hc
   3	66.62	120.02	# ca,ca,ca
   4	48.42	116.07	# ca,nh,hn
   5	48.18	119.88	# ca,ca,ha
   6	63.74	127.08	# c,n,c
   7	67.87	120.19	# ca,ca,n
   8	40.07	115.12	# hn,nh,hn
   9	68.72	122.6	# ca,c,o
  10	48.33	117.55	# c,n,hn
  11	64.28	120.33	# c,ca,ca
  12	67.68	115.25	# ca,c,n
  13	63.56	112.24	# ca,c3,ca
  14	74.22	123.05	# n,c,o
  15	63.82	123.71	# c,n,ca
  16	46.8	110.47	# ca,c3,hc
  17	68.29	120.95	# ca,ca,nh
  18	67.01	118.71	# c,n,nh
  19	67.61	116.03	# ca,nh,n
  20	50.88	108.17	# hn,nh,n

Dihedral Coeffs

   1	1	3.625	2	180	# X,ca,ca,X
   2	1	1.0	2	180	# X,c,ca,X
   3	1	0.0	2	0	# X,c3,ca,X
   4	1	2.5	2	180	# X,c,n,X
   5	1	1.05	2	180	# X,ca,nh,X
   6	1	0.45	2	180	# X,ca,n,X
   7	2	2.5	2	180	2.0	1	0	# hn,n,c,o
   8	1	1.1	2	0	# X,n,nh,X

Improper Coeffs

   1	1.1	-1	2	# ca,X,X,ha
   2	10.5	-1	2	# c,X,X,o
   3	1.1	-1	2	# ca,ca,ca,c3
   4	1.1	-1	2	# n,X,X,hn

Atoms

   1	1	1	0.452895	56.161	-32.037	-1.67488
   2	1	2	0.074505	54.9765	-31.8486	-0.968225
   3	1	3	0.001656	53.9191	-31.9712	-2.00308
   4	1	2	0.074191	55.9876	-32.3582	-3.01814
   5	1	3	0.036519	54.5159	-32.2786	-3.21585
   6	1	5	-0.399533	54.8172	-31.6468	0.225801
   7	1	5	-0.398173	56.8303	-32.6332	-3.8581
   8	1	3	-0.067442	52.5428	-31.7457	-1.89908
   9	1	3	-0.068422	53.7618	-32.3979	-4.38828
  10	1	3	-0.213282	52.3719	-32.1671	-4.30575
  11	1	3	-0.047343	51.7624	-31.8301	-3.07285
  12	1	6	0.159476	52.1097	-31.4602	-0.944191
  13	1	6	0.16033	54.2488	-32.621	-5.3348
  14	1	6	0.171114	51.77	-32.2082	-5.21063
  15	1	7	-0.06383	50.2857	-31.4615	-3.03593
  16	1	3	0.009736	50.0599	-30.053	-3.57342
  17	1	3	-0.108991	49.1934	-29.836	-4.6684
  18	1	3	-0.114952	49.0584	-28.5291	-5.15828
  19	1	3	-0.090153	50.7555	-28.9605	-2.99733
  20	1	3	-0.148302	50.6104	-27.6552	-3.50768
  21	1	3	-0.073574	49.7505	-27.4716	-4.59684
  22	1	2	0.475719	49.4427	-26.2458	-5.37903
  23	1	1	0.026291	48.5832	-26.6561	-6.38767
  24	1	2	0.472085	48.2809	-28.0093	-6.31741
  25	1	3	-0.022377	48.1557	-25.785	-7.42745
  26	1	3	-0.088654	47.0562	-24.9117	-7.23577
  27	1	3	0.02488	46.7222	-23.9796	-8.25073
  28	1	3	0.040063	48.886	-25.7614	-8.63414
  29	1	3	-0.361597	48.5398	-24.8407	-9.63052
  30	1	3	0.096629	47.4787	-23.9443	-9.44618
  31	1	7	-0.018671	46.2024	-25.0308	-5.96754
  32	1	8	-0.317996	45.6561	-23.0974	-8.08093
  33	1	6	0.16694	51.1641	-26.8181	-3.08613
  34	1	6	0.13386	51.4337	-29.128	-2.16491
  35	1	6	0.147907	48.6577	-30.6561	-5.14052
  36	1	5	-0.491298	47.5806	-28.665	-7.07035
  37	1	5	-0.47861	49.9	-25.1283	-5.19137
  38	1	7	-0.160952	50.0418	-26.7233	-8.88959
  39	1	9	0.05529	50.5264	-26.5293	-9.85415
  40	1	9	0.069029	49.6905	-27.7626	-8.90588
  41	1	9	0.053284	50.8147	-26.6358	-8.11637
  42	1	7	-0.244214	47.195	-22.9613	-10.5746
  43	1	9	0.063506	49.7098	-32.1927	-3.61748
  44	1	9	0.093434	49.8994	-31.5265	-2.0109
  45	1	6	0.232522	49.1075	-24.8151	-10.5546
  46	1	9	0.020884	46.746	-23.4731	-11.4344
  47	1	9	0.114771	48.1209	-22.484	-10.913
  48	1	9	0.181647	46.517	-22.1576	-10.2686
  49	1	9	0.069456	45.451	-25.8213	-6.08736
  50	1	9	0.029017	45.6702	-24.1045	-5.72358
  51	1	9	-0.058945	46.8038	-25.2795	-5.085
  52	1	4	0.329672	45.4093	-22.8186	-7.13268
  53	1	1	0.452895	51.2731	-22.7142	-6.62004
  54	1	2	0.074505	51.8903	-22.0417	-5.56743
  55	1	3	0.001656	53.331	-22.3399	-5.74518
  56	1	2	0.074191	52.1501	-23.4083	-7.4512
  57	1	3	0.036519	53.4877	-23.1527	-6.85519
  58	1	5	-0.399533	51.399	-21.354	-4.68725
  59	1	5	-0.398173	51.9095	-24.0687	-8.44979
  60	1	3	-0.067442	54.4212	-21.9292	-4.97364
  61	1	3	-0.068422	54.7508	-23.6084	-7.24901
  62	1	3	-0.213282	55.8665	-23.2049	-6.4837
  63	1	3	-0.047343	55.7078	-22.3668	-5.35292
  64	1	6	0.159476	54.263	-21.294	-4.10582
  65	1	6	0.16033	54.8556	-24.2573	-8.11549
  66	1	6	0.171114	56.8593	-23.5506	-6.76237
  67	1	7	-0.06383	56.9224	-21.943	-4.53955
  68	1	3	0.009736	57.5879	-23.0941	-3.79384
  69	1	3	-0.108991	56.8167	-24.1409	-3.23688
  70	1	3	-0.114952	57.4851	-25.1646	-2.55167
  71	1	3	-0.090153	58.9956	-23.0949	-3.63632
  72	1	3	-0.148302	59.6481	-24.1323	-2.94039
  73	1	3	-0.073574	58.86	-25.1605	-2.40997
  74	1	2	0.475719	59.2525	-26.3678	-1.63634
  75	1	1	0.026291	58.0663	-27.0299	-1.35458
  76	1	2	0.472085	56.9533	-26.3762	-1.86886
  77	1	3	-0.022377	58.0082	-28.2414	-0.609339
  78	1	3	-0.088654	57.8156	-29.4829	-1.26564
  79	1	3	0.02488	57.7409	-30.6728	-0.495795
  80	1	3	0.040063	58.1563	-28.1919	0.793516
  81	1	3	-0.361597	58.1416	-29.3812	1.53336
  82	1	3	0.096629	57.9407	-30.616	0.902531
  83	1	7	-0.018671	57.7057	-29.5332	-2.79416
  84	1	8	-0.317996	57.4279	-31.9084	-1.06993
  85	1	6	0.16694	60.7288	-24.1403	-2.81279
  86	1	6	0.13386	59.5858	-22.283	-4.05307
  87	1	6	0.147907	55.7333	-24.1644	-3.33227
  88	1	5	-0.491298	55.78	-26.6951	-1.77381
  89	1	5	-0.47861	60.3859	-26.681	-1.31185
  90	1	7	-0.160952	58.3448	-26.8737	1.53537
  91	1	9	0.05529	57.6392	-26.1103	1.18478
  92	1	9	0.069029	59.3629	-26.4894	1.39515
  93	1	9	0.053284	58.1803	-26.9892	2.61354
  94	1	7	-0.244214	57.8934	-31.8691	1.76801
  95	1	9	0.063506	57.6456	-21.4668	-5.21365
  96	1	9	0.093434	56.6416	-21.1679	-3.81528
  97	1	6	0.232522	58.2633	-29.3366	2.61043
  98	1	9	0.020884	58.393	-32.7202	1.28935
  99	1	9	0.114771	56.854	-32.1499	1.98144
 100	1	9	0.181647	58.3936	-31.7043	2.72935
 101	1	9	0.069456	58.1613	-30.4441	-3.20029
 102	1	9	0.029017	58.2252	-28.703	-3.28606
 103	1	9	-0.058945	56.656	-29.5022	-3.1111
 104	1	4	0.329672	57.5371	-32.7125	-0.472031
 105	1	1	0.452895	39.5704	-13.258	-2.23362
 106	1	2	0.074505	39.6101	-14.6492	-2.25745
 107	1	3	0.001656	40.8752	-14.9828	-1.54906
 108	1	2	0.074191	40.6172	-12.6612	-1.53866
 109	1	3	0.036519	41.4657	-13.8052	-1.11752
 110	1	5	-0.399533	38.8066	-15.4315	-2.7387
 111	1	5	-0.398173	40.8253	-11.4752	-1.33525
 112	1	3	-0.067442	41.4795	-16.226	-1.32731
 113	1	3	-0.068422	42.6838	-13.8074	-0.430517
 114	1	3	-0.213282	43.3063	-15.0509	-0.194282
 115	1	3	-0.047343	42.7158	-16.2577	-0.643532
 116	1	6	0.159476	41.0049	-17.1341	-1.68867
 117	1	6	0.16033	43.1311	-12.872	-0.101573
 118	1	6	0.171114	44.2557	-15.0749	0.335197
 119	1	7	-0.06383	43.4054	-17.5883	-0.373636
 120	1	3	0.009736	43.8012	-18.3235	-1.64856
 121	1	3	-0.108991	44.9877	-17.9701	-2.32861
 122	1	3	-0.114952	45.3486	-18.7116	-3.46324
 123	1	3	-0.090153	43.0051	-19.3929	-2.12791
 124	1	3	-0.148302	43.3837	-20.1234	-3.27355
 125	1	3	-0.073574	44.5712	-19.7597	-3.92153
 126	1	2	0.475719	45.2583	-20.3749	-5.09105
 127	1	1	0.026291	46.4377	-19.6579	-5.24468
 128	1	2	0.472085	46.5589	-18.6231	-4.32519
 129	1	3	-0.022377	47.442	-20.0169	-6.18837
 130	1	3	-0.088654	48.2237	-21.183	-5.98783
 131	1	3	0.02488	49.162	-21.5745	-6.97229
 132	1	3	0.040063	47.6287	-19.2293	-7.34534
 133	1	3	-0.361597	48.5748	-19.6204	-8.30326
 134	1	3	0.096629	49.3294	-20.7899	-8.13767
 135	1	7	-0.018671	48.0863	-22.0242	-4.70948
 136	1	8	-0.317996	49.8764	-22.7585	-6.78462
 137	1	6	0.16694	42.7877	-20.959	-3.63528
 138	1	6	0.13386	42.0976	-19.6701	-1.59818
 139	1	6	0.147907	45.6228	-17.1615	-1.97364
 140	1	5	-0.491298	47.4733	-17.8267	-4.20114
 141	1	5	-0.47861	44.8921	-21.3594	-5.71644
 142	1	7	-0.160952	46.8268	-17.9565	-7.58949
 143	1	9	0.05529	46.9291	-17.6049	-8.62332
 144	1	9	0.069029	47.1739	-17.1486	-6.93263
 145	1	9	0.053284	45.7567	-18.1106	-7.40528
 146	1	7	-0.244214	50.2915	-21.1813	-9.25024
 147	1	9	0.063506	44.3001	-17.4321	0.242607
 148	1	9	0.093434	42.746	-18.219	0.235797
 149	1	6	0.232522	48.716	-19.0161	-9.19351
 150	1	9	0.020884	50.0746	-20.6482	-10.184
 151	1	9	0.114771	50.2273	-22.2548	-9.46762
 152	1	9	0.181647	51.3257	-20.9533	-8.97001
 153	1	9	0.069456	47.4837	-21.5532	-3.92684
 154	1	9	0.029017	49.0604	-22.2212	-4.25028
 155	1	9	-0.058945	47.6359	-22.9937	-4.93151
 156	1	4	0.329672	49.5352	-23.4008	-6.07485
 157	1	1	0.452895	30.2389	-4.80416	-10.6169
 158	1	2	0.074505	30.1175	-6.05995	-11.2038
 159	1	3	0.001656	30.2041	-6.99889	-10.0576
 160	1	2	0.074191	30.3808	-4.82382	-9.23196
 161	1	3	0.036519	30.3581	-6.26952	-8.88991
 162	1	5	-0.399533	29.8576	-6.3456	-12.3625
 163	1	5	-0.398173	30.3506	-3.8886	-8.44865
 164	1	3	-0.067442	30.0756	-8.39032	-10.0409
 165	1	3	-0.068422	30.3903	-6.89529	-7.63861
 166	1	3	-0.213282	30.2583	-8.30004	-7.59991
 167	1	3	-0.047343	30.1031	-9.04864	-8.79285
 168	1	6	0.159476	29.9334	-8.93257	-10.9719
 169	1	6	0.16033	30.4937	-6.30439	-6.73084
 170	1	6	0.171114	30.2683	-8.81149	-6.63968
 171	1	7	-0.06383	29.9204	-10.5595	-8.73252
 172	1	3	0.009736	31.0745	-11.3214	-8.08832
 173	1	3	-0.108991	32.3782	-10.7759	-8.01883
 174	1	3	-0.114952	33.384	-11.5391	-7.41171
 175	1	3	-0.090153	30.8254	-12.6148	-7.56734
 176	1	3	-0.148302	31.8557	-13.3721	-6.97474
 177	1	3	-0.073574	33.1328	-12.8024	-6.913
 178	1	2	0.475719	34.3975	-13.3385	-6.34389
 179	1	1	0.026291	35.3402	-12.3334	-6.51606
 180	1	2	0.472085	34.8142	-11.2181	-7.1577
 181	1	3	-0.022377	36.6886	-12.4259	-6.06054
 182	1	3	-0.088654	36.984	-12.3816	-4.67407
 183	1	3	0.02488	38.3284	-12.4952	-4.2314
 184	1	3	0.040063	37.7291	-12.5686	-7.002
 185	1	3	-0.361597	39.0556	-12.6264	-6.55972
 186	1	3	0.096629	39.3718	-12.5779	-5.19428
 187	1	7	-0.018671	35.836	-12.2278	-3.66267
 188	1	8	-0.317996	38.554	-12.5014	-2.84826
 189	1	6	0.16694	31.6712	-14.3658	-6.57153
 190	1	6	0.13386	29.8248	-13.0352	-7.6261
 191	1	6	0.147907	32.6097	-9.7888	-8.41259
 192	1	5	-0.491298	35.3778	-10.1746	-7.43952
 193	1	5	-0.47861	34.5422	-14.4261	-5.81213
 194	1	7	-0.160952	37.4608	-12.6446	-8.50067
 195	1	9	0.05529	37.2101	-11.6553	-8.90334
 196	1	9	0.069029	36.6333	-13.3275	-8.72776
 197	1	9	0.053284	38.337	-13.0097	-9.05029
 198	1	7	-0.244214	40.8539	-12.5752	-4.83839
 199	1	9	0.063506	28.9935	-10.7716	-8.18449
 200	1	9	0.093434	29.7609	-10.9582	-9.74224
 201	1	6	0.232522	39.8495	-12.7095	-7.29446
 202	1	9	0.020884	41.1767	-13.5483	-4.44919
 203	1	9	0.114771	41.0807	-11.7986	-4.09814
 204	1	9	0.181647	41.4765	-12.3532	-5.7119
 205	1	9	0.069456	35.3526	-13.1955	-3.47572
 206	1	9	0.029017	35.0675	-11.534	-4.02557
 207	1	9	-0.058945	36.1595	-11.8289	-2.69374
 208	1	4	0.329672	37.7405	-12.5088	-2.2518
 209	1	1	0.452895	26.8118	9.31469	-6.33636
 210	1	2	0.074505	28.1831	9.22408	-6.55014
 211	1	3	0.001656	28.5064	7.8172	-6.20888
 212	1	2	0.074191	26.22	8.14524	-5.86959
 213	1	3	0.036519	27.3445	7.17272	-5.81442
 214	1	5	-0.399533	28.9657	10.0894	-6.90964
 215	1	5	-0.398173	25.0692	7.96499	-5.50494
 216	1	3	-0.067442	29.7356	7.154	-6.2537
 217	1	3	-0.068422	27.3513	5.82106	-5.45034
 218	1	3	-0.213282	28.5792	5.12636	-5.51196
 219	1	3	-0.047343	29.7671	5.78507	-5.9134
 220	1	6	0.159476	30.63	7.68149	-6.57543
 221	1	6	0.16033	26.4296	5.32734	-5.14934
 222	1	6	0.171114	28.6068	4.06787	-5.26191
 223	1	7	-0.06383	31.0693	5.00733	-6.04411
 224	1	3	0.009736	31.1672	4.26234	-7.37172
 225	1	3	-0.108991	31.7115	2.95973	-7.40346
 226	1	3	-0.114952	31.7586	2.29168	-8.63386
 227	1	3	-0.090153	30.7027	4.85957	-8.57261
 228	1	3	-0.148302	30.7486	4.1653	-9.79723
 229	1	3	-0.073574	31.2842	2.87354	-9.79446
 230	1	2	0.475719	31.3927	1.88026	-10.8946
 231	1	1	0.026291	31.9113	0.737859	-10.3046
 232	1	2	0.472085	32.1958	0.908368	-8.95678
 233	1	3	-0.022377	31.995	-0.511677	-10.9743
 234	1	3	-0.088654	30.9372	-1.44262	-10.8466
 235	1	3	0.02488	31.0369	-2.70052	-11.4872
 236	1	3	0.040063	33.1212	-0.809711	-11.7675
 237	1	3	-0.361597	33.1908	-2.04462	-12.4264
 238	1	3	0.096629	32.1628	-2.98986	-12.2963
 239	1	7	-0.018671	29.7117	-1.08632	-9.989
 240	1	8	-0.317996	29.9967	-3.61458	-11.3287
 241	1	6	0.16694	30.362	4.60499	-10.7147
 242	1	6	0.13386	30.2812	5.85964	-8.55898
 243	1	6	0.147907	32.0674	2.46863	-6.50057
 244	1	5	-0.491298	32.6373	0.090167	-8.1691
 245	1	5	-0.47861	31.0032	2.02405	-12.0413
 246	1	7	-0.160952	34.2601	0.187495	-11.9365
 247	1	9	0.05529	35.0563	-0.209102	-12.5781
 248	1	9	0.069029	34.7121	0.435343	-10.9682
 249	1	9	0.053284	33.9031	1.11762	-12.3965
 250	1	7	-0.244214	32.2899	-4.28922	-13.0773
 251	1	9	0.063506	31.9267	5.68522	-5.94611
 252	1	9	0.093434	31.1542	4.302	-5.2074
 253	1	6	0.232522	34.0531	-2.27079	-13.0454
 254	1	9	0.020884	32.6224	-5.109	-12.4292
 255	1	9	0.114771	33.0116	-4.19885	-13.8971
 256	1	9	0.181647	31.3324	-4.57287	-13.5321
 257	1	9	0.069456	29.3884	-0.0511354	-10.1519
 258	1	9	0.029017	29.942	-1.19786	-8.92169
 259	1	9	-0.058945	28.8342	-1.70755	-10.2046
 260	1	4	0.329672	29.1536	-3.23388	-10.9233
 261	1	1	0.452895	11.9325	13.3378	-9.00283
 262	1	2	0.074505	13.3182	13.4045	-9.08446
 263	1	3	0.001656	13.7387	13.7738	-7.71066
 264	1	2	0.074191	11.4088	13.6455	-7.75089
 265	1	3	0.036519	12.6112	13.9088	-6.91669
 266	1	5	-0.399533	14.04	13.234	-10.0543
 267	1	5	-0.398173	10.2403	13.7534	-7.41518
 268	1	3	-0.067442	15.0235	13.9716	-7.19986
 269	1	3	-0.068422	12.7118	14.2465	-5.56235
 270	1	3	-0.213282	14.0031	14.4257	-5.02
 271	1	3	-0.047343	15.158	14.2807	-5.8282
 272	1	6	0.159476	15.889	13.8594	-7.84878
 273	1	6	0.16033	11.8158	14.3521	-4.95422
 274	1	6	0.171114	14.1062	14.6735	-3.96586
 275	1	7	-0.06383	16.5463	14.4283	-5.21667
 276	1	3	0.009736	17.5273	13.3744	-5.72085
 277	1	3	-0.108991	18.8118	13.7615	-6.15951
 278	1	3	-0.114952	19.6746	12.7668	-6.63697
 279	1	3	-0.090153	17.1478	12.0086	-5.76633
 280	1	3	-0.148302	18.0288	11.0249	-6.26039
 281	1	3	-0.073574	19.2955	11.4385	-6.68982
 282	1	2	0.475719	20.4401	10.6473	-7.21902
 283	1	1	0.026291	21.4549	11.5683	-7.4339
 284	1	2	0.472085	21.0728	12.8676	-7.12927
 285	1	3	-0.022377	22.7603	11.2219	-7.87935
 286	1	3	-0.088654	23.7971	11.0067	-6.9388
 287	1	3	0.02488	25.0991	10.682	-7.39421
 288	1	3	0.040063	23.0154	11.1111	-9.26175
 289	1	3	-0.361597	24.3047	10.7812	-9.699
 290	1	3	0.096629	25.3487	10.5768	-8.78593
 291	1	7	-0.018671	23.4836	11.0782	-5.43545
 292	1	8	-0.317996	26.1127	10.5305	-6.44603
 293	1	6	0.16694	17.7438	9.97539	-6.30413
 294	1	6	0.13386	16.1582	11.7125	-5.42723
 295	1	6	0.147907	19.1351	14.7996	-6.12939
 296	1	5	-0.491298	21.7394	13.8856	-7.20188
 297	1	5	-0.47861	20.4671	9.44124	-7.39464
 298	1	7	-0.160952	21.9248	11.3382	-10.3022
 299	1	9	0.05529	22.3505	11.5261	-11.2955
 300	1	9	0.069029	21.3003	12.2056	-10.0559
 301	1	9	0.053284	21.2734	10.4588	-10.3803
 302	1	7	-0.244214	26.7306	10.2873	-9.35432
 303	1	9	0.063506	16.9249	15.4351	-5.43516
 304	1	9	0.093434	16.488	14.3608	-4.12315
 305	1	6	0.232522	24.5006	10.6987	-10.7636
 306	1	9	0.020884	26.7725	10.466	-10.4359
 307	1	9	0.114771	27.0169	9.24295	-9.18704
 308	1	9	0.181647	27.487	10.9355	-8.89376
 309	1	9	0.069456	22.9899	10.154	-5.10639
 310	1	9	0.029017	22.8193	11.9158	-5.19332
 311	1	9	-0.058945	24.3724	11.2156	-4.80814
 312	1	4	0.329672	25.8682	10.8009	-5.50405
 313	1	1	0.452895	-2.14792	9.23768	-14.3073
 314	1	2	0.074505	-0.808567	9.36109	-13.9451
 315	1	3	0.001656	-0.576909	10.8317	-13.9259
 316	1	2	0.074191	-2.78509	10.4485	-14.5679
 317	1	3	0.036519	-1.75308	11.4694	-14.2828
 318	1	5	-0.399533	-0.000826583	8.48448	-13.6797
 319	1	5	-0.398173	-3.91438	10.66	-14.9772
 320	1	3	-0.067442	0.573318	11.5606	-13.6045
 321	1	3	-0.068422	-1.85591	12.8618	-14.3219
 322	1	3	-0.213282	-0.712719	13.6137	-13.9895
 323	1	3	-0.047343	0.49841	12.9744	-13.6318
 324	1	6	0.159476	1.4874	11.0361	-13.3377
 325	1	6	0.16033	-2.79639	13.336	-14.5945
 326	1	6	0.171114	-0.76816	14.6994	-14.0136
 327	1	7	-0.06383	1.70737	13.837	-13.2998
 328	1	3	0.009736	2.6728	13.1796	-12.3276
 329	1	3	-0.108991	3.91869	12.7149	-12.7943
 330	1	3	-0.114952	4.7957	12.1439	-11.8675
 331	1	3	-0.090153	2.33045	13.047	-10.9595
 332	1	3	-0.148302	3.23493	12.4749	-10.0401
 333	1	3	-0.073574	4.47286	12.0355	-10.5279
 334	1	2	0.475719	5.66463	11.5084	-9.80646
 335	1	1	0.026291	6.64697	11.3722	-10.7777
 336	1	2	0.472085	6.19157	11.6798	-12.0509
 337	1	3	-0.022377	8.01998	11.1351	-10.4993
 338	1	3	-0.088654	8.89666	12.2376	-10.3631
 339	1	3	0.02488	10.2828	12.0101	-10.1903
 340	1	3	0.040063	8.51049	9.81622	-10.4342
 341	1	3	-0.361597	9.88398	9.60309	-10.2514
 342	1	3	0.096629	10.7756	10.6816	-10.1473
 343	1	7	-0.018671	8.31789	13.6626	-10.3977
 344	1	8	-0.317996	11.1285	13.1176	-10.1348
 345	1	6	0.16694	2.99683	12.3993	-8.98077
 346	1	6	0.13386	1.36631	13.4069	-10.6092
 347	1	6	0.147907	4.21151	12.8187	-13.8368
 348	1	5	-0.491298	6.82454	11.7039	-13.0926
 349	1	5	-0.47861	5.77157	11.3563	-8.60172
 350	1	7	-0.160952	7.58364	8.61739	-10.5892
 351	1	9	0.05529	8.1287	7.66858	-10.5137
 352	1	9	0.069029	7.08313	8.63071	-11.5655
 353	1	9	0.053284	6.81184	8.61443	-9.80924
 354	1	7	-0.244214	12.2609	10.3634	-10.0445
 355	1	9	0.063506	2.22665	14.0948	-14.2317
 356	1	9	0.093434	1.37687	14.7931	-12.8745
 357	1	6	0.232522	10.2668	8.58773	-10.2217
 358	1	9	0.020884	12.4702	9.31445	-10.2881
 359	1	9	0.114771	12.6361	10.5452	-9.03119
 360	1	9	0.181647	12.8434	10.9757	-10.7452
 361	1	9	0.069456	7.59918	13.8039	-9.57968
 362	1	9	0.029017	7.79445	13.8549	-11.342
 363	1	9	-0.058945	9.06606	14.4565	-10.2942
 364	1	4	0.329672	10.6911	14.0036	-10.3427
 365	1	1	0.452895	-16.2619	15.7171	-14.8327
 366	1	2	0.074505	-16.0847	15.0109	-13.6466
 367	1	3	0.001656	-15.0461	14.0057	-13.9675
 368	1	2	0.074191	-15.4034	15.32	-15.8603
 369	1	3	0.036519	-14.6347	14.1849	-15.2755
 370	1	5	-0.399533	-16.5724	15.2164	-12.5487
 371	1	5	-0.398173	-15.2615	15.7955	-16.9756
 372	1	3	-0.067442	-14.5081	13.0054	-13.1562
 373	1	3	-0.068422	-13.6473	13.3656	-15.8392
 374	1	3	-0.213282	-13.0887	12.3446	-15.0357
 375	1	3	-0.047343	-13.518	12.1589	-13.6959
 376	1	6	0.159476	-14.8587	12.8901	-12.1334
 377	1	6	0.16033	-13.3277	13.5188	-16.8674
 378	1	6	0.171114	-12.3212	11.7009	-15.4596
 379	1	7	-0.06383	-12.9633	11.0693	-12.7865
 380	1	3	0.009736	-11.8345	10.2146	-13.3457
 381	1	3	-0.108991	-10.497	10.5903	-13.1054
 382	1	3	-0.114952	-9.48593	9.68403	-13.4454
 383	1	3	-0.090153	-12.1212	8.97477	-13.9678
 384	1	3	-0.148302	-11.0866	8.07197	-14.294
 385	1	3	-0.073574	-9.77035	8.44673	-13.9922
 386	1	2	0.475719	-8.51284	7.64559	-14.0066
 387	1	1	0.026291	-7.55127	8.46512	-13.4301
 388	1	2	0.472085	-8.0373	9.7317	-13.131
 389	1	3	-0.022377	-6.25547	8.04204	-13.0194
 390	1	3	-0.088654	-5.19998	7.96617	-13.9591
 391	1	3	0.02488	-3.86813	7.82418	-13.4952
 392	1	3	0.040063	-5.99956	7.83674	-11.6429
 393	1	3	-0.361597	-4.68815	7.60035	-11.2143
 394	1	3	0.096629	-3.61911	7.62007	-12.1168
 395	1	7	-0.018671	-5.51126	8.1089	-15.4563
 396	1	8	-0.317996	-2.81549	7.99818	-14.3925
 397	1	6	0.16694	-11.3027	7.08695	-14.7029
 398	1	6	0.13386	-13.1551	8.68457	-14.1366
 399	1	6	0.147907	-10.2527	11.5185	-12.5931
 400	1	5	-0.491298	-7.45984	10.6473	-12.5695
 401	1	5	-0.47861	-8.40752	6.47417	-14.3291
 402	1	7	-0.160952	-7.08653	7.85692	-10.5699
 403	1	9	0.05529	-6.75201	8.42558	-9.69337
 404	1	9	0.069029	-7.31447	6.83719	-10.2377
 405	1	9	0.053284	-8.02811	8.30967	-10.8949
 406	1	7	-0.244214	-2.21808	7.42509	-11.5542
 407	1	9	0.063506	-12.618	11.5374	-11.8552
 408	1	9	0.093434	-13.7879	10.4129	-12.4804
 409	1	6	0.232522	-4.49494	7.44418	-10.1572
 410	1	9	0.020884	-2.23859	6.87611	-10.6044
 411	1	9	0.114771	-1.7332	8.39026	-11.3667
 412	1	9	0.181647	-1.58211	6.85475	-12.2429
 413	1	9	0.069456	-5.90644	9.10639	-15.686
 414	1	9	0.029017	-6.26208	7.37375	-15.7695
 415	1	9	-0.058945	-4.63931	7.94372	-16.1012
 416	1	4	0.329672	-3.06413	7.8986	-15.3664
 417	1	1	0.452895	-30.175	13.1055	-6.45434
 418	1	2	0.074505	-28.9938	13.3226	-5.74547
 419	1	3	0.001656	-27.9261	13.1299	-6.76346
 420	1	2	0.074191	-29.9894	12.7134	-7.77567
 421	1	3	0.036519	-28.5145	12.7395	-7.95636
 422	1	5	-0.399533	-28.8422	13.6565	-4.58153
 423	1	5	-0.398173	-30.8302	12.4151	-8.60982
 424	1	3	-0.067442	-26.5463	13.3481	-6.66664
 425	1	3	-0.068422	-27.7489	12.4845	-9.09903
 426	1	3	-0.213282	-26.3545	12.6809	-9.01596
 427	1	3	-0.047343	-25.7533	13.1386	-7.81735
 428	1	6	0.159476	-26.1147	13.6977	-5.73194
 429	1	6	0.16033	-28.227	12.1677	-10.0234
 430	1	6	0.171114	-25.7394	12.5104	-9.89717
 431	1	7	-0.06383	-24.2578	13.4352	-7.78227
 432	1	3	0.009736	-23.8072	14.3448	-8.92271
 433	1	3	-0.108991	-22.6917	13.9842	-9.70881
 434	1	3	-0.114952	-22.3281	14.8233	-10.7697
 435	1	3	-0.090153	-24.5157	15.5383	-9.21401
 436	1	3	-0.148302	-24.1357	16.3664	-10.2923
 437	1	3	-0.073574	-23.0286	15.9791	-11.059
 438	1	2	0.475719	-22.429	16.5941	-12.2782
 439	1	1	0.026291	-21.4029	15.7373	-12.6544
 440	1	2	0.472085	-21.261	14.6611	-11.7897
 441	1	3	-0.022377	-20.6475	15.8571	-13.855
 442	1	3	-0.088654	-19.3659	16.457	-13.8383
 443	1	3	0.02488	-18.5471	16.3848	-14.9964
 444	1	3	0.040063	-21.1474	15.271	-15.0359
 445	1	3	-0.361597	-20.379	15.3148	-16.2051
 446	1	3	0.096629	-19.0903	15.8644	-16.1973
 447	1	7	-0.018671	-18.8982	17.145	-12.5497
 448	1	8	-0.317996	-17.2026	16.7671	-14.9384
 449	1	6	0.16694	-24.6907	17.2698	-10.5374
 450	1	6	0.13386	-25.3791	15.8112	-8.6125
 451	1	6	0.147907	-22.1317	13.0717	-9.51799
 452	1	5	-0.491298	-20.5	13.7133	-11.8867
 453	1	5	-0.47861	-22.8352	17.5849	-12.8624
 454	1	7	-0.160952	-22.5029	14.5757	-15.0706
 455	1	9	0.05529	-23.2973	15.2292	-14.6899
 456	1	9	0.069029	-22.487	13.664	-14.4599
 457	1	9	0.053284	-22.7847	14.2835	-16.0893
 458	1	7	-0.244214	-18.3349	15.8976	-17.5171
 459	1	9	0.063506	-23.984	13.9027	-6.82795
 460	1	9	0.093434	-23.7087	12.4857	-7.81538
 461	1	6	0.232522	-20.7786	14.8932	-17.1217
 462	1	9	0.020884	-17.7193	16.8014	-17.6053
 463	1	9	0.114771	-19.0217	15.9029	-18.3712
 464	1	9	0.181647	-17.6806	15.0254	-17.6232
 465	1	9	0.069456	-17.9589	17.6963	-12.6612
 466	1	9	0.029017	-18.7597	16.4175	-11.7406
 467	1	9	-0.058945	-19.6448	17.8733	-12.2096
 468	1	4	0.329672	-16.9539	17.4129	-14.2056
 469	1	1	0.452895	-44.6527	12.7782	-0.36342
 470	1	2	0.074505	-44.2559	14.1053	-0.222241
 471	1	3	0.001656	-42.8398	14.005	0.215662
 472	1	2	0.074191	-43.7135	11.8437	0.0588725
 473	1	3	0.036519	-42.5252	12.668	0.401261
 474	1	5	-0.399533	-44.8966	15.1246	-0.431284
 475	1	5	-0.398173	-43.7979	10.6255	0.0746759
 476	1	3	-0.067442	-41.8716	15.0072	0.337524
 477	1	3	-0.068422	-41.2338	12.2673	0.75711
 478	1	3	-0.213282	-40.2472	13.2653	0.901833
 479	1	3	-0.047343	-40.5514	14.6316	0.673291
 480	1	6	0.159476	-42.1366	16.0422	0.137801
 481	1	6	0.16033	-41.0009	11.2124	0.882456
 482	1	6	0.171114	-39.2355	12.9653	1.15884
 483	1	7	-0.06383	-39.4808	15.7133	0.787015
 484	1	3	0.009736	-38.0819	15.2812	0.357265
 485	1	3	-0.108991	-37.6635	15.4604	-0.979775
 486	1	3	-0.114952	-36.3385	15.1388	-1.3083
 487	1	3	-0.090153	-37.1743	14.7676	1.3166
 488	1	3	-0.148302	-35.848	14.443	0.962916
 489	1	3	-0.073574	-35.4529	14.6527	-0.364554
 490	1	2	0.475719	-34.1145	14.5151	-1.00577
 491	1	1	0.026291	-34.284	14.9529	-2.31209
 492	1	2	0.472085	-35.5971	15.3169	-2.58476
 493	1	3	-0.022377	-33.2286	15.1452	-3.25096
 494	1	3	-0.088654	-32.7619	14.0865	-4.06909
 495	1	3	0.02488	-31.8624	14.3568	-5.13515
 496	1	3	0.040063	-32.7269	16.4495	-3.43277
 497	1	3	-0.361597	-31.8678	16.7149	-4.50419
 498	1	3	0.096629	-31.4626	15.701	-5.38521
 499	1	7	-0.018671	-33.2534	12.6492	-3.83903
 500	1	8	-0.317996	-31.4665	13.2579	-5.91116
 501	1	6	0.16694	-35.1377	14.0751	1.70078
 502	1	6	0.13386	-37.4965	14.6422	2.34704
 503	1	6	0.147907	-38.3332	15.8719	-1.73213
 504	1	5	-0.491298	-36.0451	15.7868	-3.61721
 505	1	5	-0.47861	-33.0842	14.1594	-0.459329
 506	1	7	-0.160952	-33.1389	17.6014	-2.52296
 507	1	9	0.05529	-33.019	17.3308	-1.46616
 508	1	9	0.069029	-34.1859	17.8825	-2.68944
 509	1	9	0.053284	-32.5256	18.4942	-2.69552
 510	1	7	-0.244214	-30.7095	16.1715	-6.62831
 511	1	9	0.063506	-39.7776	16.5828	0.185674
 512	1	9	0.093434	-39.4515	16.078	1.82099
 513	1	6	0.232522	-31.5468	17.7371	-4.67428
 514	1	9	0.020884	-29.8806	15.5322	-6.9312
 515	1	9	0.114771	-30.2705	17.1638	-6.47114
 516	1	9	0.181647	-31.4044	16.2536	-7.47294
 517	1	9	0.069456	-33.7785	12.5107	-2.88814
 518	1	9	0.029017	-32.4158	11.9406	-3.82038
 519	1	9	-0.058945	-33.935	12.3402	-4.64077
 520	1	4	0.329672	-31.7732	12.3542	-5.58646
 521	1	1	0.452895	-36.5511	8.17736	-7.2285
 522	1	2	0.074505	-36.6694	9.4587	-6.70135
 523	1	3	0.001656	-37.3341	10.2302	-7.78307
 524	1	2	0.074191	-37.0303	8.0348	-8.52621
 525	1	3	0.036519	-37.5251	9.3926	-8.87148
 526	1	5	-0.399533	-36.3905	9.8526	-5.58009
 527	1	5	-0.398173	-37.1504	7.01788	-9.19108
 528	1	3	-0.067442	-37.8309	11.5387	-7.77085
 529	1	3	-0.068422	-38.1707	9.83666	-10.0294
 530	1	3	-0.213282	-38.6551	11.161	-10.0472
 531	1	3	-0.047343	-38.517	12.0022	-8.91479
 532	1	6	0.159476	-37.7264	12.1548	-6.88085
 533	1	6	0.16033	-38.3181	9.16175	-10.8699
 534	1	6	0.171114	-39.1805	11.5188	-10.9287
 535	1	7	-0.06383	-39.1912	13.3676	-8.8925
 536	1	3	0.009736	-40.6324	13.2512	-8.40667
 537	1	3	-0.108991	-41.0085	13.7582	-7.1416
 538	1	3	-0.114952	-42.3345	13.5732	-6.72096
 539	1	3	-0.090153	-41.5917	12.5888	-9.21261
 540	1	3	-0.148302	-42.9139	12.4006	-8.76537
 541	1	3	-0.073574	-43.2543	12.9024	-7.5049
 542	1	2	0.475719	-44.5379	12.8212	-6.75961
 543	1	1	0.026291	-44.3094	13.4702	-5.55493
 544	1	2	0.472085	-43.0115	13.9608	-5.45214
 545	1	3	-0.022377	-45.2836	13.5598	-4.51852
 546	1	3	-0.088654	-45.1325	12.7983	-3.33288
 547	1	3	0.02488	-46.0736	12.9513	-2.28028
 548	1	3	0.040063	-46.3969	14.4138	-4.67801
 549	1	3	-0.361597	-47.3714	14.4737	-3.67308
 550	1	3	0.096629	-47.2196	13.7548	-2.48086
 551	1	7	-0.018671	-43.9584	11.8189	-3.20533
 552	1	8	-0.317996	-45.8525	12.4135	-1.00792
 553	1	6	0.16694	-43.6489	11.8704	-9.36749
 554	1	6	0.13386	-41.3049	12.1965	-10.1828
 555	1	6	0.147907	-40.2929	14.2625	-6.49597
 556	1	5	-0.491298	-42.5064	14.5701	-4.52373
 557	1	5	-0.47861	-45.5607	12.2774	-7.14336
 558	1	7	-0.160952	-46.5681	15.291	-5.91262
 559	1	9	0.05529	-47.4125	15.9825	-5.80568
 560	1	9	0.069029	-46.7548	14.6855	-6.80759
 561	1	9	0.053284	-45.6726	15.8996	-6.09005
 562	1	7	-0.244214	-48.2854	13.9377	-1.40763
 563	1	9	0.063506	-38.6255	14.0556	-8.25078
 564	1	9	0.093434	-39.1723	13.8155	-9.89383
 565	1	6	0.232522	-48.2342	15.1186	-3.80532
 566	1	9	0.020884	-48.3321	13.1008	-0.700876
 567	1	9	0.114771	-49.2804	14.0206	-1.86251
 568	1	9	0.181647	-48.0969	14.8601	-0.843397
 569	1	9	0.069456	-44.2164	10.9549	-2.58138
 570	1	9	0.029017	-43.0802	12.3106	-2.76812
 571	1	9	-0.058945	-43.6563	11.4028	-4.17398
 572	1	4	0.329672	-46.5925	12.539	-0.336301
 573	1	1	0.452895	-30.598	-5.43248	-4.51358
 574	1	2	0.074505	-31.1605	-4.32683	-5.14195
 575	1	3	0.001656	-32.5792	-4.3527	-4.70388
 576	1	2	0.074191	-31.4644	-6.11502	-3.66365
 577	1	3	0.036519	-32.7624	-5.41418	-3.8347
 578	1	5	-0.399533	-30.6533	-3.55572	-5.9408
 579	1	5	-0.398173	-31.242	-7.08457	-2.95766
 580	1	3	-0.067442	-33.6445	-3.54595	-5.10842
 581	1	3	-0.068422	-34.0266	-5.7279	-3.3247
 582	1	3	-0.213282	-35.119	-4.93123	-3.73045
 583	1	3	-0.047343	-34.9409	-3.84485	-4.62234
 584	1	6	0.159476	-33.4513	-2.7331	-5.80247
 585	1	6	0.16033	-34.1545	-6.58061	-2.661
 586	1	6	0.171114	-36.1147	-5.171	-3.36404
 587	1	7	-0.06383	-36.1666	-3.05018	-5.06996
 588	1	3	0.009736	-35.8256	-1.84015	-5.92793
 589	1	3	-0.108991	-35.6193	-0.586417	-5.31603
 590	1	3	-0.114952	-35.2158	0.482108	-6.12498
 591	1	3	-0.090153	-35.6321	-1.99007	-7.32388
 592	1	3	-0.148302	-35.2261	-0.898545	-8.11983
 593	1	3	-0.073574	-35.0247	0.334318	-7.48572
 594	1	2	0.475719	-34.6157	1.65353	-8.04331
 595	1	1	0.026291	-34.6003	2.52316	-6.96059
 596	1	2	0.472085	-34.9254	1.89305	-5.76611
 597	1	3	-0.022377	-34.3502	3.9216	-7.05576
 598	1	3	-0.088654	-35.4047	4.84369	-6.84245
 599	1	3	0.02488	-35.129	6.23084	-6.80952
 600	1	3	0.040063	-33.0416	4.38985	-7.30556
 601	1	3	-0.361597	-32.7973	5.77007	-7.34044
 602	1	3	0.096629	-33.8178	6.69541	-7.07737
 603	1	7	-0.018671	-36.8521	4.36237	-6.65189
 604	1	8	-0.317996	-36.169	7.08266	-6.43365
 605	1	6	0.16694	-35.0638	-1.0042	-9.19086
 606	1	6	0.13386	-35.7724	-2.96448	-7.78507
 607	1	6	0.147907	-35.7483	-0.448105	-4.24474
 608	1	5	-0.491298	-35.0104	2.38093	-4.65203
 609	1	5	-0.47861	-34.3802	1.90096	-9.21377
 610	1	7	-0.160952	-31.8701	3.44233	-7.53794
 611	1	9	0.05529	-30.9119	3.92925	-7.31871
 612	1	9	0.069029	-31.8421	3.11112	-8.58375
 613	1	9	0.053284	-31.9264	2.55228	-6.89986
 614	1	7	-0.244214	-33.449	8.1731	-7.06124
 615	1	9	0.063506	-36.8428	-3.71234	-5.62565
 616	1	9	0.093434	-36.7322	-2.72592	-4.18692
 617	1	6	0.232522	-31.7914	6.12582	-7.53987
 618	1	9	0.020884	-32.3621	8.32111	-7.0509
 619	1	9	0.114771	-33.8511	8.67433	-6.17181
 620	1	9	0.181647	-33.835	8.68077	-7.95281
 621	1	9	0.069456	-37.0179	3.33425	-6.99244
 622	1	9	0.029017	-37.5536	4.97506	-7.23188
 623	1	9	-0.058945	-37.1507	4.42172	-5.59843
 624	1	4	0.329672	-37.0163	6.63205	-6.12161
 625	1	1	0.452895	-22.6359	-17.7523	3.08315
 626	1	2	0.074505	-22.1585	-16.8269	2.15984
 627	1	3	0.001656	-23.2923	-16.6378	1.2177
 628	1	2	0.074191	-23.9347	-18.1908	2.84043
 629	1	3	0.036519	-24.3353	-17.4634	1.60583
 630	1	5	-0.399533	-21.0386	-16.3525	2.0616
 631	1	5	-0.398173	-24.5892	-19.0209	3.45167
 632	1	3	-0.067442	-23.3729	-15.8448	0.0671694
 633	1	3	-0.068422	-25.4981	-17.574	0.835136
 634	1	3	-0.213282	-25.5814	-16.8111	-0.349887
 635	1	3	-0.047343	-24.5413	-15.9227	-0.723932
 636	1	6	0.159476	-22.5317	-15.2176	-0.217222
 637	1	6	0.16033	-26.2917	-18.2565	1.13198
 638	1	6	0.171114	-26.4579	-16.9123	-0.986268