pySIMM System Object

782 atoms
856 bonds
1485 angles
2186 dihedrals
240 impropers

9 atom types
12 bond types
20 angle types
8 dihedral types
4 improper types

-136.499380 136.499380 xlo xhi
-136.499380 136.499380 ylo yhi
-136.499380 136.499380 zlo zhi

Masses

   1	14.01	# n
   2	12.01	# c
   3	12.01	# ca
   4	1.008	# hn
   5	16.0	# o
   6	1.008	# ha
   7	12.01	# c3
   8	14.01	# nh
   9	1.008	# hc

Pair Coeffs

   1	0.17	3.249998523775958	# n
   2	0.086	3.3996695084235347	# c
   3	0.086	3.3996695084235347	# ca
   4	0.0157	1.069078461768407	# hn
   5	0.21	2.959921901149463	# o
   6	0.015	2.59964245953351	# ha
   7	0.1094	3.3996695084235347	# c3
   8	0.17	3.249998523775958	# nh
   9	0.0157	2.649532787749369	# hc

Bond Coeffs

   1	384.2	1.4121	# ca,n
   2	404.6	1.0121	# hn,nh
   3	403.2	1.0129	# hn,n
   4	417.9	1.3859	# ca,nh
   5	461.1	1.3984	# ca,ca
   6	427.6	1.3789	# c,n
   7	345.9	1.4906	# c,ca
   8	345.8	1.086	# ca,ha
   9	321.0	1.5156	# c3,ca
  10	330.6	1.0969	# c3,hc
  11	637.7	1.2183	# c,o
  12	452.5	1.4016	# n,nh

Angle Coeffs

   1	63.53	120.77	# c3,ca,ca
   2	39.4	107.58	# hc,c3,hc
   3	66.62	120.02	# ca,ca,ca
   4	48.42	116.07	# ca,nh,hn
   5	48.18	119.88	# ca,ca,ha
   6	63.74	127.08	# c,n,c
   7	67.87	120.19	# ca,ca,n
   8	40.07	115.12	# hn,nh,hn
   9	68.72	122.6	# ca,c,o
  10	48.33	117.55	# c,n,hn
  11	64.28	120.33	# c,ca,ca
  12	67.68	115.25	# ca,c,n
  13	63.56	112.24	# ca,c3,ca
  14	74.22	123.05	# n,c,o
  15	63.82	123.71	# c,n,ca
  16	46.8	110.47	# ca,c3,hc
  17	68.29	120.95	# ca,ca,nh
  18	67.01	118.71	# c,n,nh
  19	67.61	116.03	# ca,nh,n
  20	50.88	108.17	# hn,nh,n

Dihedral Coeffs

   1	1	3.625	2	180	# X,ca,ca,X
   2	1	1.0	2	180	# X,c,ca,X
   3	1	0.0	2	0	# X,c3,ca,X
   4	1	2.5	2	180	# X,c,n,X
   5	1	1.05	2	180	# X,ca,nh,X
   6	1	0.45	2	180	# X,ca,n,X
   7	2	2.5	2	180	2.0	1	0	# hn,n,c,o
   8	1	1.1	2	0	# X,n,nh,X

Improper Coeffs

   1	1.1	-1	2	# ca,X,X,ha
   2	10.5	-1	2	# c,X,X,o
   3	1.1	-1	2	# ca,ca,ca,c3
   4	1.1	-1	2	# n,X,X,hn

Atoms

   1	1	1	0.452895	-12.8643	-43.8142	-34.6705
   2	1	2	0.074505	-13.2358	-43.4166	-33.3889
   3	1	3	0.001656	-12.0323	-42.7206	-32.877
   4	1	2	0.074191	-11.6319	-43.3306	-35.0941
   5	1	3	0.036519	-11.0988	-42.6277	-33.8985
   6	1	5	-0.399533	-14.2849	-43.6035	-32.792
   7	1	5	-0.398173	-11.0654	-43.5094	-36.1608
   8	1	3	-0.067442	-11.7099	-42.3874	-31.5597
   9	1	3	-0.068422	-9.82847	-42.0856	-33.68
  10	1	3	-0.213282	-9.49368	-41.7132	-32.3626
  11	1	3	-0.047343	-10.4064	-41.9184	-31.299
  12	1	6	0.159476	-12.4102	-42.6058	-30.7582
  13	1	6	0.16033	-9.10113	-42.0397	-34.4872
  14	1	6	0.171114	-8.4816	-41.3792	-32.1434
  15	1	7	-0.06383	-9.89683	-41.8704	-29.8684
  16	1	3	0.009736	-8.83322	-42.9396	-29.6166
  17	1	3	-0.108991	-7.86576	-42.7082	-28.6189
  18	1	3	-0.114952	-6.7959	-43.604	-28.5162
  19	1	3	-0.090153	-8.74287	-44.1076	-30.4241
  20	1	3	-0.148302	-7.64277	-44.9825	-30.3195
  21	1	3	-0.073574	-6.66392	-44.6856	-29.3657
  22	1	2	0.475719	-5.33762	-45.3134	-29.1185
  23	1	1	0.026291	-4.74891	-44.5451	-28.1218
  24	1	2	0.472085	-5.58542	-43.5345	-27.6644
  25	1	3	-0.022377	-3.40663	-44.6861	-27.6656
  26	1	3	-0.088654	-3.02966	-45.7887	-26.8591
  27	1	3	0.02488	-1.73789	-45.8094	-26.2806
  28	1	3	0.040063	-2.47185	-43.6638	-27.956
  29	1	3	-0.361597	-1.20078	-43.6995	-27.3686
  30	1	3	0.096629	-0.83737	-44.7469	-26.5139
  31	1	7	-0.018671	-4.01526	-46.9448	-26.6342
  32	1	8	-0.317996	-1.35533	-46.8634	-25.4596
  33	1	6	0.16694	-7.5304	-45.8347	-30.9869
  34	1	6	0.13386	-9.49205	-44.3124	-31.1844
  35	1	6	0.147907	-7.90922	-41.8269	-27.9829
  36	1	5	-0.491298	-5.34997	-42.6851	-26.8211
  37	1	5	-0.47861	-4.84668	-46.2361	-29.7491
  38	1	7	-0.160952	-2.80002	-42.4994	-28.8852
  39	1	9	0.05529	-1.89014	-42.0353	-29.285
  40	1	9	0.069029	-3.36089	-41.7195	-28.3559
  41	1	9	0.053284	-3.39532	-42.826	-29.7466
  42	1	7	-0.244214	0.532065	-44.7085	-25.8527
  43	1	9	0.063506	-9.48232	-40.8746	-29.6657
  44	1	9	0.093434	-10.7179	-41.9964	-29.1577
  45	1	6	0.232522	-0.498507	-42.894	-27.5583
  46	1	9	0.020884	1.00519	-43.7222	-25.9399
  47	1	9	0.114771	1.20091	-45.4491	-26.3051
  48	1	9	0.181647	0.447971	-44.9379	-24.7839
  49	1	9	0.069456	-4.1142	-47.5421	-27.5498
  50	1	9	0.029017	-5.01346	-46.5774	-26.3667
  51	1	9	-0.058945	-3.71063	-47.6339	-25.8377
  52	1	4	0.329672	-1.97758	-47.6592	-25.3861
  53	1	1	0.452895	-10.2314	-46.3626	-25.8571
  54	1	2	0.074505	-11.1929	-47.3625	-25.7562
  55	1	3	0.001656	-10.4362	-48.6026	-26.061
  56	1	2	0.074191	-8.92837	-46.817	-26.0437
  57	1	3	0.036519	-9.09925	-48.2786	-26.2396
  58	1	5	-0.399533	-12.4074	-47.2448	-25.7609
  59	1	5	-0.398173	-7.93544	-46.1671	-26.3352
  60	1	3	-0.067442	-10.9525	-49.829	-26.4902
  61	1	3	-0.068422	-8.20457	-49.1748	-26.8345
  62	1	3	-0.213282	-8.71429	-50.4004	-27.3083
  63	1	3	-0.047343	-10.0884	-50.7094	-27.1769
  64	1	6	0.159476	-12.026	-50.0022	-26.4625
  65	1	6	0.16033	-7.18084	-48.8703	-27.0413
  66	1	6	0.171114	-8.06316	-51.0615	-27.8756
  67	1	7	-0.06383	-10.6812	-51.8591	-27.9794
  68	1	3	0.009736	-11.2202	-51.4213	-29.349
  69	1	3	-0.108991	-11.5167	-50.065	-29.6408
  70	1	3	-0.114952	-12.0779	-49.7478	-30.8824
  71	1	3	-0.090153	-11.4763	-52.4072	-30.3345
  72	1	3	-0.148302	-12.0367	-52.0653	-31.585
  73	1	3	-0.073574	-12.3371	-50.7183	-31.8278
  74	1	2	0.475719	-13.0191	-50.0677	-32.9816
  75	1	1	0.026291	-13.1609	-48.7309	-32.6264
  76	1	2	0.472085	-12.5818	-48.4452	-31.3959
  77	1	3	-0.022377	-13.9431	-47.7968	-33.3683
  78	1	3	-0.088654	-13.3333	-46.7774	-34.1437
  79	1	3	0.02488	-14.1545	-45.8301	-34.8128
  80	1	3	0.040063	-15.3519	-47.8795	-33.2862
  81	1	3	-0.361597	-16.1456	-46.9745	-34.0019
  82	1	3	0.096629	-15.5601	-45.955	-34.7606
  83	1	7	-0.018671	-11.8053	-46.6969	-34.2393
  84	1	8	-0.317996	-13.6352	-44.6993	-35.4496
  85	1	6	0.16694	-12.2614	-52.8238	-32.332
  86	1	6	0.13386	-11.2608	-53.4504	-30.1187
  87	1	6	0.147907	-11.3538	-49.2627	-28.9295
  88	1	5	-0.491298	-12.5479	-47.3797	-30.8026
  89	1	5	-0.47861	-13.438	-50.6295	-33.9802
  90	1	7	-0.160952	-16.0498	-48.9211	-32.4183
  91	1	9	0.05529	-15.9263	-49.9282	-32.8347
  92	1	9	0.069029	-17.1269	-48.7293	-32.3413
  93	1	9	0.053284	-15.6512	-48.9196	-31.396
  94	1	7	-0.244214	-16.4696	-44.9484	-35.454
  95	1	9	0.063506	-9.92248	-52.6404	-28.1154
  96	1	9	0.093434	-11.4905	-52.3294	-27.4063
  97	1	6	0.232522	-17.2257	-47.0442	-33.9311
  98	1	9	0.020884	-16.1651	-44.7779	-36.4944
  99	1	9	0.114771	-16.456	-43.9882	-34.9226
 100	1	9	0.181647	-17.5087	-45.2968	-35.4737
 101	1	9	0.069456	-11.4804	-46.305	-35.2113
 102	1	9	0.029017	-11.3282	-47.6787	-34.1365
 103	1	9	-0.058945	-11.3971	-46.0443	-33.4572
 104	1	4	0.329672	-14.3056	-44.1325	-35.9434
 105	1	1	0.452895	-18.8752	-33.654	-26.2272
 106	1	2	0.074505	-17.8856	-33.7449	-27.2014
 107	1	3	0.001656	-18.0948	-35.0855	-27.8031
 108	1	2	0.074191	-19.7312	-34.7506	-26.1696
 109	1	3	0.036519	-19.1907	-35.6795	-27.1973
 110	1	5	-0.399533	-17.0691	-32.9058	-27.5466
 111	1	5	-0.398173	-20.7165	-34.9224	-25.4685
 112	1	3	-0.067442	-17.3545	-35.7449	-28.7895
 113	1	3	-0.068422	-19.6166	-36.9617	-27.5606
 114	1	3	-0.213282	-18.8845	-37.6438	-28.5555
 115	1	3	-0.047343	-17.7533	-37.0464	-29.1632
 116	1	6	0.159476	-16.4813	-35.2668	-29.2257
 117	1	6	0.16033	-20.475	-37.4157	-27.0708
 118	1	6	0.171114	-19.1817	-38.6512	-28.8381
 119	1	7	-0.06383	-16.9227	-37.8322	-30.1658
 120	1	3	0.009736	-15.692	-38.4271	-29.4959
 121	1	3	-0.108991	-15.8483	-39.4099	-28.4926
 122	1	3	-0.114952	-14.6992	-39.9088	-27.8657
 123	1	3	-0.090153	-14.3963	-37.9803	-29.8541
 124	1	3	-0.148302	-13.252	-38.495	-29.212
 125	1	3	-0.073574	-13.4399	-39.4559	-28.2109
 126	1	2	0.475719	-12.4442	-40.1815	-27.3824
 127	1	1	0.026291	-13.1797	-41.0616	-26.6009
 128	1	2	0.472085	-14.5468	-40.9526	-26.813
 129	1	3	-0.022377	-12.5541	-42.0336	-25.7727
 130	1	3	-0.088654	-12.0781	-43.2387	-26.3394
 131	1	3	0.02488	-11.2138	-44.0716	-25.5908
 132	1	3	0.040063	-12.2713	-41.7257	-24.4265
 133	1	3	-0.361597	-11.4933	-42.6098	-23.664
 134	1	3	0.096629	-10.9339	-43.7635	-24.2363
 135	1	7	-0.018671	-12.4987	-43.6772	-27.7532
 136	1	8	-0.317996	-10.5809	-45.0827	-26.3128
 137	1	6	0.16694	-12.2514	-38.1605	-29.4796
 138	1	6	0.13386	-14.2762	-37.2278	-30.6289
 139	1	6	0.147907	-16.8322	-39.7686	-28.2011
 140	1	5	-0.491298	-15.4379	-41.625	-26.3244
 141	1	5	-0.47861	-11.2315	-40.0736	-27.4561
 142	1	7	-0.160952	-12.7719	-40.4371	-23.7871
 143	1	9	0.05529	-12.5027	-40.3786	-22.7255
 144	1	9	0.069029	-13.8652	-40.3664	-23.8507
 145	1	9	0.053284	-12.3422	-39.5582	-24.2835
 146	1	7	-0.244214	-10.0165	-44.6105	-23.3652
 147	1	9	0.063506	-17.5221	-38.6348	-30.6137
 148	1	9	0.093434	-16.6324	-37.1802	-30.9996
 149	1	6	0.232522	-11.2695	-42.3657	-22.6304
 150	1	9	0.020884	-9.80809	-44.1265	-22.403
 151	1	9	0.114771	-9.04879	-44.7795	-23.8537
 152	1	9	0.181647	-10.4789	-45.5793	-23.1432
 153	1	9	0.069456	-13.1021	-42.9404	-28.2925
 154	1	9	0.029017	-13.1072	-44.5893	-27.6944
 155	1	9	-0.058945	-11.6321	-43.909	-28.3834
 156	1	4	0.329672	-10.8289	-45.1614	-27.2889
 157	1	1	0.452895	-8.34009	-20.4334	-24.6544
 158	1	2	0.074505	-8.85683	-21.34	-23.7318
 159	1	3	0.001656	-10.0317	-21.9278	-24.4255
 160	1	2	0.074191	-8.97146	-20.4497	-25.8933
 161	1	3	0.036519	-10.0929	-21.4112	-25.7107
 162	1	5	-0.399533	-8.49816	-21.5582	-22.5851
 163	1	5	-0.398173	-8.70662	-19.8035	-26.8943
 164	1	3	-0.067442	-11.0409	-22.7548	-23.9188
 165	1	3	-0.068422	-11.1476	-21.731	-26.5731
 166	1	3	-0.213282	-12.1777	-22.5607	-26.0793
 167	1	3	-0.047343	-12.1404	-23.0554	-24.7523
 168	1	6	0.159476	-11.0011	-23.0926	-22.8861
 169	1	6	0.16033	-11.1893	-21.3017	-27.5718
 170	1	6	0.171114	-13.0346	-22.781	-26.7124
 171	1	7	-0.06383	-13.3536	-23.7752	-24.1745
 172	1	3	0.009736	-13.4874	-25.2648	-24.475
 173	1	3	-0.108991	-14.4798	-25.9811	-23.7722
 174	1	3	-0.114952	-14.6587	-27.3372	-24.0627
 175	1	3	-0.090153	-12.6968	-25.9309	-25.4474
 176	1	3	-0.148302	-12.8941	-27.302	-25.725
 177	1	3	-0.073574	-13.8917	-27.9822	-25.0125
 178	1	2	0.475719	-14.3543	-29.3965	-25.094
 179	1	1	0.026291	-15.3935	-29.5008	-24.1781
 180	1	2	0.472085	-15.634	-28.3107	-23.5081
 181	1	3	-0.022377	-16.1471	-30.6878	-23.9552
 182	1	3	-0.088654	-17.262	-30.9879	-24.774
 183	1	3	0.02488	-17.9899	-32.1833	-24.5521
 184	1	3	0.040063	-15.7759	-31.5573	-22.9091
 185	1	3	-0.361597	-16.53	-32.7141	-22.6713
 186	1	3	0.096629	-17.6342	-33.0319	-23.4747
 187	1	7	-0.018671	-17.6319	-30.0314	-25.9166
 188	1	8	-0.317996	-19.033	-32.5102	-25.4199
 189	1	6	0.16694	-12.3009	-27.8201	-26.4762
 190	1	6	0.13386	-11.9339	-25.3878	-25.9982
 191	1	6	0.147907	-15.1084	-25.4956	-23.029
 192	1	5	-0.491298	-16.4746	-28.0814	-22.6555
 193	1	5	-0.47861	-13.9089	-30.2618	-25.828
 194	1	7	-0.160952	-14.5728	-31.2654	-22.0217
 195	1	9	0.05529	-14.724	-30.3442	-21.4451
 196	1	9	0.069029	-13.6611	-31.149	-22.6209
 197	1	9	0.053284	-14.3891	-32.0752	-21.3052
 198	1	7	-0.244214	-18.4224	-34.2874	-23.13
 199	1	9	0.063506	-13.3633	-23.6369	-23.0855
 200	1	9	0.093434	-14.2613	-23.27	-24.5285
 201	1	6	0.232522	-16.2479	-33.3743	-21.8578
 202	1	9	0.020884	-18.1137	-35.1337	-23.7556
 203	1	9	0.114771	-19.5002	-34.1318	-23.2631
 204	1	9	0.181647	-18.2784	-34.5763	-22.0833
 205	1	9	0.069456	-16.8856	-30.0856	-26.7202
 206	1	9	0.029017	-17.6738	-28.9927	-25.5657
 207	1	9	-0.058945	-18.6105	-30.2401	-26.3653
 208	1	4	0.329672	-19.3199	-31.7716	-26.0453
 209	1	1	0.452895	-0.125989	-6.30833	-23.2595
 210	1	2	0.074505	-0.294567	-7.68474	-23.1431
 211	1	3	0.001656	-0.720403	-8.11379	-24.4993
 212	1	2	0.074191	-0.448137	-5.79185	-24.5104
 213	1	3	0.036519	-0.814411	-6.99434	-25.3096
 214	1	5	-0.399533	-0.0816311	-8.40382	-22.1801
 215	1	5	-0.398173	-0.417959	-4.63225	-24.8895
 216	1	3	-0.067442	-0.947615	-9.40356	-24.9927
 217	1	3	-0.068422	-1.1572	-7.10951	-26.6607
 218	1	3	-0.213282	-1.38603	-8.40382	-27.1786
 219	1	3	-0.047343	-1.27967	-9.55731	-26.3593
 220	1	6	0.159476	-0.836082	-10.2497	-24.3243
 221	1	6	0.16033	-1.21556	-6.22351	-27.2896
 222	1	6	0.171114	-1.62344	-8.5118	-28.2344
 223	1	7	-0.06383	-1.41842	-10.9407	-27.0032
 224	1	3	0.009736	-2.08849	-12.0223	-26.1556
 225	1	3	-0.108991	-3.41375	-12.4295	-26.4381
 226	1	3	-0.114952	-3.96323	-13.4826	-25.6894
 227	1	3	-0.090153	-1.3513	-12.691	-25.146
 228	1	3	-0.148302	-1.93251	-13.7234	-24.3823
 229	1	3	-0.073574	-3.24782	-14.0987	-24.6808
 230	1	2	0.475719	-4.10653	-15.1498	-24.0724
 231	1	1	0.026291	-5.30276	-15.115	-24.7776
 232	1	2	0.472085	-5.29711	-14.1446	-25.7748
 233	1	3	-0.022377	-6.41635	-15.9467	-24.447
 234	1	3	-0.088654	-6.38517	-17.3469	-24.6858
 235	1	3	0.02488	-7.4218	-18.1799	-24.1875
 236	1	3	0.040063	-7.51755	-15.3746	-23.7747
 237	1	3	-0.361597	-8.55276	-16.1978	-23.318
 238	1	3	0.096629	-8.50818	-17.5885	-23.4857
 239	1	7	-0.018671	-5.2336	-17.9861	-25.4747
 240	1	8	-0.317996	-7.27035	-19.5666	-24.3525
 241	1	6	0.16694	-1.37749	-14.2299	-23.5947
 242	1	6	0.13386	-0.319448	-12.4088	-24.9536
 243	1	6	0.147907	-3.99419	-11.9584	-27.2281
 244	1	5	-0.491298	-6.18353	-13.873	-26.5661
 245	1	5	-0.47861	-3.80203	-15.875	-23.1405
 246	1	7	-0.160952	-7.6071	-13.8797	-23.4883
 247	1	9	0.05529	-8.45666	-13.6406	-22.837
 248	1	9	0.069029	-7.74344	-13.3113	-24.4166
 249	1	9	0.053284	-6.70314	-13.5117	-22.9881
 250	1	7	-0.244214	-9.62635	-18.3833	-22.8241
 251	1	9	0.063506	-1.96487	-10.8458	-27.9502
 252	1	9	0.093434	-0.418824	-11.2898	-27.2919
 253	1	6	0.232522	-9.38485	-15.7474	-22.787
 254	1	9	0.020884	-10.2611	-18.8843	-23.5641
 255	1	9	0.114771	-10.2837	-17.7424	-22.2258
 256	1	9	0.181647	-9.21296	-19.1287	-22.1335
 257	1	9	0.069456	-4.56241	-17.2576	-25.9424
 258	1	9	0.029017	-5.62191	-18.6068	-26.2924
 259	1	9	-0.058945	-4.62567	-18.631	-24.8283
 260	1	4	0.329672	-6.44746	-19.8889	-24.8388
 261	1	1	0.452895	4.91952	1.59058	-10.3857
 262	1	2	0.074505	4.9206	0.531147	-11.2949
 263	1	3	0.001656	5.44361	1.1302	-12.5533
 264	1	2	0.074191	5.29992	2.80944	-10.943
 265	1	3	0.036519	5.66209	2.48044	-12.3417
 266	1	5	-0.399533	4.5375	-0.618104	-11.1458
 267	1	5	-0.398173	5.25604	3.92636	-10.4566
 268	1	3	-0.067442	5.74198	0.529763	-13.7827
 269	1	3	-0.068422	6.17202	3.31001	-13.3451
 270	1	3	-0.213282	6.48312	2.72389	-14.5885
 271	1	3	-0.047343	6.27864	1.34034	-14.8083
 272	1	6	0.159476	5.58758	-0.536916	-13.9222
 273	1	6	0.16033	6.34212	4.36682	-13.1511
 274	1	6	0.171114	6.90719	3.34245	-15.3757
 275	1	7	-0.06383	6.71567	0.716127	-16.1225
 276	1	3	0.009736	5.57384	0.449206	-17.0924
 277	1	3	-0.108991	5.06058	-0.858217	-17.2154
 278	1	3	-0.114952	4.16751	-1.12267	-18.2601
 279	1	3	-0.090153	5.13596	1.46579	-17.9764
 280	1	3	-0.148302	4.23803	1.17598	-19.0267
 281	1	3	-0.073574	3.78607	-0.144406	-19.1593
 282	1	2	0.475719	3.06766	-0.806019	-20.2875
 283	1	1	0.026291	3.12597	-2.1648	-20.0063
 284	1	2	0.472085	3.68749	-2.43145	-18.7651
 285	1	3	-0.022377	2.94368	-3.19454	-20.9725
 286	1	3	-0.088654	1.68152	-3.79641	-21.1969
 287	1	3	0.02488	1.58119	-4.9364	-22.0415
 288	1	3	0.040063	4.09033	-3.6766	-21.6367
 289	1	3	-0.361597	3.98772	-4.80443	-22.4541
 290	1	3	0.096629	2.76386	-5.46128	-22.6386
 291	1	7	-0.018671	0.431504	-3.19269	-20.5388
 292	1	8	-0.317996	0.309141	-5.51197	-22.1826
 293	1	6	0.16694	3.96387	1.93084	-19.761
 294	1	6	0.13386	5.54978	2.46681	-17.8899
 295	1	6	0.147907	5.41561	-1.66875	-16.5831
 296	1	5	-0.491298	3.93741	-3.51798	-18.2715
 297	1	5	-0.47861	2.70177	-0.271408	-21.3204
 298	1	7	-0.160952	5.46124	-3.0301	-21.4579
 299	1	9	0.05529	5.40739	-1.93994	-21.5691
 300	1	9	0.069029	6.17939	-3.38976	-22.2042
 301	1	9	0.053284	5.87681	-3.25372	-20.4675
 302	1	7	-0.244214	2.82313	-6.75168	-23.4464
 303	1	9	0.063506	7.45927	1.35867	-16.6111
 304	1	9	0.093434	7.25196	-0.219452	-15.917
 305	1	6	0.232522	4.88414	-5.19806	-22.9227
 306	1	9	0.020884	3.85626	-7.04697	-23.6681
 307	1	9	0.114771	2.31191	-6.64781	-24.4096
 308	1	9	0.181647	2.3844	-7.58317	-22.8816
 309	1	9	0.069456	0.000286	-2.4178	-21.1863
 310	1	9	0.029017	0.649591	-2.7271	-19.5707
 311	1	9	-0.058945	-0.351363	-3.93589	-20.344
 312	1	4	0.329672	-0.477909	-5.04452	-21.758
 313	1	1	0.452895	7.4103	14.0788	-0.877066
 314	1	2	0.074505	7.13815	12.7649	-0.505772
 315	1	3	0.001656	7.62216	11.9601	-1.65717
 316	1	2	0.074191	7.87701	14.2248	-2.18099
 317	1	3	0.036519	8.0499	12.8229	-2.65317
 318	1	5	-0.399533	6.77467	12.3385	0.578507
 319	1	5	-0.398173	8.24477	15.2398	-2.74993
 320	1	3	-0.067442	7.87832	10.5852	-1.71825
 321	1	3	-0.068422	8.71634	12.3434	-3.78555
 322	1	3	-0.213282	8.98945	10.9595	-3.86093
 323	1	3	-0.047343	8.59843	10.0743	-2.82268
 324	1	6	0.159476	7.61841	9.95585	-0.871159
 325	1	6	0.16033	9.08598	13.0377	-4.53748
 326	1	6	0.171114	9.57538	10.5979	-4.69764
 327	1	7	-0.06383	9.15298	8.64817	-2.73487
 328	1	3	0.009736	8.90868	7.69734	-3.90621
 329	1	3	-0.108991	8.06695	6.57261	-3.73291
 330	1	3	-0.114952	8.01351	5.61251	-4.7551
 331	1	3	-0.090153	9.66546	7.82403	-5.09822
 332	1	3	-0.148302	9.5776	6.86239	-6.12531
 333	1	3	-0.073574	8.74668	5.75531	-5.91759
 334	1	2	0.475719	8.50608	4.5614	-6.77232
 335	1	1	0.026291	7.62315	3.76307	-6.05827
 336	1	2	0.472085	7.28308	4.31497	-4.82965
 337	1	3	-0.022377	7.09932	2.54148	-6.5735
 338	1	3	-0.088654	5.93641	2.56877	-7.38112
 339	1	3	0.02488	5.53637	1.40193	-8.08111
 340	1	3	0.040063	7.78381	1.32605	-6.35728
 341	1	3	-0.361597	7.30092	0.152502	-6.95052
 342	1	3	0.096629	6.19731	0.177753	-7.81328
 343	1	7	-0.018671	5.13256	3.87044	-7.47463
 344	1	8	-0.317996	4.51503	1.47739	-9.03496
 345	1	6	0.16694	10.1651	6.94947	-7.03736
 346	1	6	0.13386	10.3626	8.64702	-5.21316
 347	1	6	0.147907	7.50877	6.4176	-2.81244
 348	1	5	-0.491298	6.54801	3.84979	-3.97603
 349	1	5	-0.47861	9.00162	4.34458	-7.86572
 350	1	7	-0.160952	9.04061	1.23048	-5.50093
 351	1	9	0.05529	9.08983	2.01181	-4.73411
 352	1	9	0.069029	9.93934	1.30852	-6.12521
 353	1	9	0.053284	9.08405	0.268534	-4.97475
 354	1	7	-0.244214	5.74404	-1.15154	-8.39711
 355	1	9	0.063506	10.2364	8.71991	-2.57614
 356	1	9	0.093434	8.77982	8.17326	-1.81866
 357	1	6	0.232522	7.80507	-0.790348	-6.75959
 358	1	9	0.020884	5.92136	-1.97693	-7.69631
 359	1	9	0.114771	6.28668	-1.37815	-9.32212
 360	1	9	0.181647	4.67091	-1.15389	-8.6229
 361	1	9	0.069456	5.68003	4.63717	-8.03705
 362	1	9	0.029017	4.93174	4.27502	-6.47499
 363	1	9	-0.058945	4.15165	3.73522	-7.94633
 364	1	4	0.329672	3.8732	2.24836	-8.90511
 365	1	1	0.452895	12.0259	28.5305	7.61714
 366	1	2	0.074505	12.755	27.5881	6.90102
 367	1	3	0.001656	11.8223	27.1266	5.8345
 368	1	2	0.074191	10.7331	28.7374	7.12642
 369	1	3	0.036519	10.6232	27.8025	5.98201
 370	1	5	-0.399533	13.9243	27.2728	7.05729
 371	1	5	-0.398173	9.86062	29.5082	7.48662
 372	1	3	-0.067442	12.013	26.2095	4.79251
 373	1	3	-0.068422	9.54385	27.587	5.11936
 374	1	3	-0.213282	9.71248	26.6602	4.07127
 375	1	3	-0.047343	10.9405	25.9784	3.89851
 376	1	6	0.159476	12.9692	25.7058	4.67815
 377	1	6	0.16033	8.61225	28.1318	5.2589
 378	1	6	0.171114	8.8911	26.4782	3.38121
 379	1	7	-0.06383	11.1088	25.0287	2.71878
 380	1	3	0.009736	10.4354	23.6648	2.86286
 381	1	3	-0.108991	10.3775	22.829	1.72508
 382	1	3	-0.114952	9.86552	21.5327	1.86921
 383	1	3	-0.090153	9.95138	23.1871	4.10892
 384	1	3	-0.148302	9.44019	21.8777	4.23309
 385	1	3	-0.073574	9.42151	21.0661	3.09129
 386	1	2	0.475719	9.10479	19.6189	2.94773
 387	1	1	0.026291	9.42254	19.297	1.63415
 388	1	2	0.472085	9.83514	20.4021	0.900487
 389	1	3	-0.022377	9.54695	17.9481	1.1901
 390	1	3	-0.088654	8.41134	17.2105	0.769068
 391	1	3	0.02488	8.53171	15.8245	0.470486
 392	1	3	0.040063	10.8113	17.3243	1.2642
 393	1	3	-0.361597	10.9158	15.9578	0.996054
 394	1	3	0.096629	9.79741	15.1933	0.641689
 395	1	7	-0.018671	7.06277	17.9379	0.671671
 396	1	8	-0.317996	7.37856	15.1391	0.0525181
 397	1	6	0.16694	9.11425	21.4861	5.19492
 398	1	6	0.13386	10.0051	23.8129	4.99584
 399	1	6	0.147907	10.7716	23.1562	0.765529
 400	1	5	-0.491298	10.2325	20.4331	-0.251005
 401	1	5	-0.47861	8.77246	18.8618	3.84423
 402	1	7	-0.160952	12.0942	18.054	1.65619
 403	1	9	0.05529	12.6738	17.4619	2.37468
 404	1	9	0.069029	11.927	19.032	2.11795
 405	1	9	0.053284	12.7253	18.2121	0.772454
 406	1	7	-0.244214	10.0347	13.6922	0.527196
 407	1	9	0.063506	10.7287	25.5213	1.81464
 408	1	9	0.093434	12.1777	24.8679	2.53006
 409	1	6	0.232522	11.8843	15.4775	1.09507
 410	1	9	0.020884	11.0136	13.4028	0.928956
 411	1	9	0.114771	10.0149	13.3582	-0.514997
 412	1	9	0.181647	9.28844	13.1356	1.10768
 413	1	9	0.069456	7.16179	18.8661	0.0942057
 414	1	9	0.029017	6.69456	18.2037	1.6707
 415	1	9	-0.058945	6.27438	17.3543	0.182095
 416	1	4	0.329672	6.5496	15.6907	-0.111137
 417	1	1	0.452895	14.3625	23.3732	23.553
 418	1	2	0.074505	13.8887	24.4509	22.8103
 419	1	3	0.001656	13.3785	23.8465	21.553
 420	1	2	0.074191	14.1938	22.1366	22.9209
 421	1	3	0.036519	13.6021	22.4822	21.6003
 422	1	5	-0.399533	13.8314	25.6268	23.1339
 423	1	5	-0.398173	14.4094	21.0078	23.3306
 424	1	3	-0.067442	12.7027	24.4408	20.4804
 425	1	3	-0.068422	13.2507	21.652	20.5303
 426	1	3	-0.213282	12.6228	22.2419	19.4118
 427	1	3	-0.047343	12.3175	23.6257	19.3903
 428	1	6	0.159476	12.4536	25.4971	20.5231
 429	1	6	0.16033	13.446	20.5829	20.5801
 430	1	6	0.171114	12.3333	21.6126	18.5745
 431	1	7	-0.06383	11.4318	24.1801	18.2751
 432	1	3	0.009736	12.091	25.0723	17.2225
 433	1	3	-0.108991	11.6899	24.9344	15.8725
 434	1	3	-0.114952	12.1261	25.8858	14.9401
 435	1	3	-0.090153	12.94	26.1477	17.5898
 436	1	3	-0.148302	13.3694	27.0935	16.6375
 437	1	3	-0.073574	12.9353	26.94	15.3161
 438	1	2	0.475719	13.037	27.8811	14.1709
 439	1	1	0.026291	12.2111	27.3551	13.1867
 440	1	2	0.472085	11.6843	26.1179	13.5355
 441	1	3	-0.022377	11.7466	28.1577	12.1063
 442	1	3	-0.088654	12.4458	28.2393	10.8748
 443	1	3	0.02488	12.0484	29.208	9.91639
 444	1	3	0.040063	10.6312	28.9902	12.3463
 445	1	3	-0.361597	10.3338	30.0161	11.4449
 446	1	3	0.096629	11.068	30.1691	10.2657
 447	1	7	-0.018671	13.6418	27.3238	10.5909
 448	1	8	-0.317996	12.6501	29.2583	8.65692
 449	1	6	0.16694	13.9599	27.9607	16.9274
 450	1	6	0.13386	13.2247	26.2976	18.6241
 451	1	6	0.147907	10.9877	24.1629	15.5656
 452	1	5	-0.491298	10.8676	25.4502	12.9242
 453	1	5	-0.47861	13.5752	28.9762	14.1919
 454	1	7	-0.160952	9.77401	28.8578	13.6005
 455	1	9	0.05529	10.315	29.1939	14.493
 456	1	9	0.069029	9.46038	27.8179	13.7563
 457	1	9	0.053284	8.85457	29.4511	13.5238
 458	1	7	-0.244214	10.8105	31.437	9.45924
 459	1	9	0.063506	10.9381	23.3403	17.77
 460	1	9	0.093434	10.6091	24.745	18.7322
 461	1	6	0.232522	9.53741	30.7183	11.6708
 462	1	9	0.020884	9.7352	31.6031	9.31925
 463	1	9	0.114771	11.2712	31.4201	8.46619
 464	1	9	0.181647	11.2163	32.3063	9.98764
 465	1	9	0.069456	14.5518	27.9116	10.4152
 466	1	9	0.029017	13.4629	26.7029	9.70546
 467	1	9	-0.058945	13.8661	26.6364	11.4146
 468	1	4	0.329672	13.591	28.8835	8.63593
 469	1	1	0.452895	13.013	27.1899	33.3705
 470	1	2	0.074505	12.6604	26.0015	32.7416
 471	1	3	0.001656	12.8837	24.966	33.7691
 472	1	2	0.074191	13.5836	27.0145	34.6322
 473	1	3	0.036519	13.452	25.5505	34.885
 474	1	5	-0.399533	12.2992	25.8154	31.5927
 475	1	5	-0.398173	14.0559	27.8499	35.3874
 476	1	3	-0.067442	12.5557	23.6133	33.7265
 477	1	3	-0.068422	13.7422	24.7874	36.0236
 478	1	3	-0.213282	13.4695	23.3992	35.9832
 479	1	3	-0.047343	12.8908	22.8029	34.8345
 480	1	6	0.159476	12.0851	23.2099	32.8325
 481	1	6	0.16033	14.1702	25.2598	36.9044
 482	1	6	0.171114	13.7119	22.784	36.8463
 483	1	7	-0.06383	12.6892	21.2887	34.7504
 484	1	3	0.009736	12.9122	20.786	33.3258
 485	1	3	-0.108991	14.0628	21.2128	32.6261
 486	1	3	-0.114952	14.1252	20.9802	31.2499
 487	1	3	-0.090153	11.9022	20.0599	32.6463
 488	1	3	-0.148302	12.006	19.7994	31.2627
 489	1	3	-0.073574	13.1259	20.2983	30.5835
 490	1	2	0.475719	13.4471	20.3179	29.1298
 491	1	1	0.026291	14.623	21.0496	29.0198
 492	1	2	0.472085	15.1042	21.4749	30.2492
 493	1	3	-0.022377	15.2609	21.3444	27.7818
 494	1	3	-0.088654	14.754	22.3618	26.9369
 495	1	3	0.02488	15.3721	22.6061	25.6833
 496	1	3	0.040063	16.408	20.6145	27.4108
 497	1	3	-0.361597	17.0464	20.9056	26.1984
 498	1	3	0.096629	16.5478	21.8926	25.3358
 499	1	7	-0.018671	13.5421	23.1844	27.4035
 500	1	8	-0.317996	14.8338	23.6057	24.8673
 501	1	6	0.16694	11.2153	19.2836	30.7211
 502	1	6	0.13386	11.008	19.7473	33.1792
 503	1	6	0.147907	14.8308	21.8104	33.1129
 504	1	5	-0.491298	16.0869	22.1594	30.4793
 505	1	5	-0.47861	12.7727	19.8386	28.2337
 506	1	7	-0.160952	16.9853	19.5284	28.3116
 507	1	9	0.05529	17.8053	18.9875	27.8249
 508	1	9	0.069029	16.2212	18.7888	28.5809
 509	1	9	0.053284	17.3837	19.9596	29.2388
 510	1	7	-0.244214	17.3286	22.1545	24.0552
 511	1	9	0.063506	13.3804	20.7737	35.4292
 512	1	9	0.093434	11.677	21.0391	35.0932
 513	1	6	0.232522	17.9417	20.3585	25.9218
 514	1	9	0.020884	18.4004	21.9696	24.1979
 515	1	9	0.114771	17.2249	23.1896	23.7123
 516	1	9	0.181647	16.9831	21.4849	23.2584
 517	1	9	0.069456	13.6604	23.5052	28.4471
 518	1	9	0.029017	12.6203	22.5935	27.338
 519	1	9	-0.058945	13.3825	24.1023	26.8257
 520	1	4	0.329672	14.0823	24.1105	25.3171
 521	1	1	0.452895	0.51354	26.3118	22.8376
 522	1	2	0.074505	1.24814	27.421	23.2314
 523	1	3	0.001656	2.04784	26.9175	24.3701
 524	1	2	0.074191	0.599408	25.2171	23.6908
 525	1	3	0.036519	1.68404	25.6049	24.6308
 526	1	5	-0.399533	1.34191	28.5111	22.689
 527	1	5	-0.398173	0.050255	24.131	23.6024
 528	1	3	-0.067442	3.19719	27.4851	24.9175
 529	1	3	-0.068422	2.45869	24.7915	25.4639
 530	1	3	-0.213282	3.64937	25.3336	25.9925
 531	1	3	-0.047343	4.03382	26.667	25.7013
 532	1	6	0.159476	3.49766	28.4858	24.6178
 533	1	6	0.16033	2.20582	23.7416	25.5943
 534	1	6	0.171114	4.3107	24.6839	26.5572
 535	1	7	-0.06383	5.43659	27.1756	25.991
 536	1	3	0.009736	6.05748	26.7079	27.2929
 537	1	3	-0.108991	6.05219	27.5778	28.4001
 538	1	3	-0.114952	6.80384	27.2163	29.5202
 539	1	3	-0.090153	6.779	25.4895	27.3441
 540	1	3	-0.148302	7.50715	25.1296	28.4962
 541	1	3	-0.073574	7.50835	26.0274	29.5719
 542	1	2	0.475719	8.33627	26.0383	30.8067
 543	1	1	0.026291	8.13938	27.2965	31.3635
 544	1	2	0.472085	7.17629	28.0366	30.6983
 545	1	3	-0.022377	8.98177	27.8513	32.3624
 546	1	3	-0.088654	10.3061	28.2168	32.0231
 547	1	3	0.02488	11.1968	28.5999	33.0523
 548	1	3	0.040063	8.50974	28.0147	33.6796
 549	1	3	-0.361597	9.34345	28.6122	34.6343
 550	1	3	0.096629	10.6799	28.9047	34.3338
 551	1	7	-0.018671	10.7561	28.1838	30.5549
 552	1	8	-0.317996	12.5727	28.4355	32.8644
 553	1	6	0.16694	8.11381	24.2263	28.5261
 554	1	6	0.13386	6.81653	24.8482	26.467
 555	1	6	0.147907	5.55776	28.5457	28.3614
 556	1	5	-0.491298	6.81041	29.1769	30.928
 557	1	5	-0.47861	9.10301	25.1615	31.1697
 558	1	7	-0.160952	7.11036	27.5731	34.0838
 559	1	9	0.05529	6.94535	27.685	35.1622
 560	1	9	0.069029	6.94986	26.5153	33.8395
 561	1	9	0.053284	6.34407	28.1637	33.5675
 562	1	7	-0.244214	11.5184	29.5549	35.4223
 563	1	9	0.063506	6.08582	26.8742	25.1594
 564	1	9	0.093434	5.44389	28.2731	25.9673
 565	1	6	0.232522	8.96745	28.8058	35.6341
 566	1	9	0.020884	11.701	28.8608	36.2508
 567	1	9	0.114771	11.0042	30.4339	35.828
 568	1	9	0.181647	12.4888	29.904	35.0486
 569	1	9	0.069456	10.8222	27.1633	30.161
 570	1	9	0.029017	11.7276	28.6667	30.3987
 571	1	9	-0.058945	10.0397	28.724	29.9233
 572	1	4	0.329672	12.8882	28.4364	31.9051
 573	1	1	0.452895	10.3211	16.0671	14.7139
 574	1	2	0.074505	9.07075	16.6983	14.6488
 575	1	3	0.001656	9.1507	17.7801	15.6774
 576	1	2	0.074191	11.2301	16.6939	15.5473
 577	1	3	0.036519	10.4536	17.7974	16.1554
 578	1	5	-0.399533	8.15909	16.5187	13.8558
 579	1	5	-0.398173	12.4332	16.5019	15.6388
 580	1	3	-0.067442	8.17169	18.6659	16.1801
 581	1	3	-0.068422	10.8864	18.7467	17.0753
 582	1	3	-0.213282	9.93171	19.6432	17.5788
 583	1	3	-0.047343	8.57444	19.5934	17.1777
 584	1	6	0.159476	7.14419	18.6064	15.8295
 585	1	6	0.16033	11.9222	18.76	17.4051
 586	1	6	0.171114	10.2403	20.3656	18.3291
 587	1	7	-0.06383	7.67744	20.5681	17.9445
 588	1	3	0.009736	6.16889	20.7046	17.7383
 589	1	3	-0.108991	5.64943	22.0209	17.7145
 590	1	3	-0.114952	4.28923	22.218	17.9808
 591	1	3	-0.090153	5.28745	19.6137	17.9475
 592	1	3	-0.148302	3.91142	19.8334	18.1958
 593	1	3	-0.073574	3.44997	21.1585	18.2526
 594	1	2	0.475719	2.13705	21.7178	18.6923
 595	1	1	0.026291	2.27373	23.1043	18.6526
 596	1	2	0.472085	3.53196	23.4823	18.1962
 597	1	3	-0.022377	1.21213	24.0217	18.9575
 598	1	3	-0.088654	1.19513	24.8027	20.1546
 599	1	3	0.02488	0.0450176	25.6091	20.448
 600	1	3	0.040063	0.140319	24.1123	18.0411
 601	1	3	-0.361597	-0.924454	24.9795	18.2968
 602	1	3	0.096629	-0.985282	25.7127	19.4836
 603	1	7	-0.018671	2.41051	24.7466	21.0929
 604	1	8	-0.317996	-0.213414	26.3166	21.6375
 605	1	6	0.16694	3.23832	19.0082	18.4235
 606	1	6	0.13386	5.68409	18.6041	18.0177
 607	1	6	0.147907	6.30267	22.8851	17.6225
 608	1	5	-0.491298	3.96808	24.6094	18.0348
 609	1	5	-0.47861	1.16523	21.07	19.0408
 610	1	7	-0.160952	0.0798315	23.2792	16.7658
 611	1	9	0.05529	-0.224627	22.2499	16.9949
 612	1	9	0.069029	1.04616	23.2458	16.2495
 613	1	9	0.053284	-0.65111	23.6817	16.0544
 614	1	7	-0.244214	-2.18393	26.6411	19.6755
 615	1	9	0.063506	7.80451	20.3275	19.0083
 616	1	9	0.093434	8.12975	21.5617	17.8405
 617	1	6	0.232522	-1.73199	25.0542	17.576
 618	1	9	0.020884	-2.59663	26.6	20.6908
 619	1	9	0.114771	-3.00261	26.3835	18.9936
 620	1	9	0.181647	-1.89417	27.6779	19.4601
 621	1	9	0.069456	2.63026	25.7218	21.5375
 622	1	9	0.029017	3.33902	24.4761	20.5855
 623	1	9	-0.058945	2.26711	24.0117	21.8926
 624	1	4	0.329672	-1.14332	26.6648	21.8037
 625	1	1	0.452895	-1.54501	15.2613	15.2269
 626	1	2	0.074505	-0.285092	15.8487	15.2099
 627	1	3	0.001656	0.290117	15.4581	13.8959
 628	1	2	0.074191	-1.8443	14.5368	14.0675
 629	1	3	0.036519	-0.627815	14.6651	13.2309
 630	1	5	-0.399533	0.271533	16.4583	16.1096
 631	1	5	-0.398173	-2.87146	13.9821	13.719
 632	1	3	-0.067442	1.50856	15.8083	13.3062
 633	1	3	-0.068422	-0.362181	14.1346	11.9638
 634	1	3	-0.213282	0.859897	14.4778	11.3507
 635	1	3	-0.047343	1.78038	15.3305	12.0053
 636	1	6	0.159476	2.19219	16.4769	13.8223
 637	1	6	0.16033	-1.09761	13.5073	11.4643
 638	1	6	0.171114	1.07261	14.1206	10.3453
 639	1	7	-0.06383	2.97216	15.8781	11.2403
 640	1	3	0.009736	4.24101	15.0361	11.2077
 641	1	3	-0.108991	4.52175	13.9976	12.1331
 642	1	3	-0.114952	5.79286	13.3929	12.0829