pySIMM System Object

1510 atoms
1654 bonds
2871 angles
4230 dihedrals
464 impropers

9 atom types
12 bond types
20 angle types
8 dihedral types
4 improper types

-171.978442 171.978442 xlo xhi
-171.978442 171.978442 ylo yhi
-171.978442 171.978442 zlo zhi

Masses

   1	14.01	# n
   2	12.01	# c
   3	12.01	# ca
   4	1.008	# hn
   5	16.0	# o
   6	1.008	# ha
   7	12.01	# c3
   8	14.01	# nh
   9	1.008	# hc

Pair Coeffs

   1	0.17	3.249998523775958	# n
   2	0.086	3.3996695084235347	# c
   3	0.086	3.3996695084235347	# ca
   4	0.0157	1.069078461768407	# hn
   5	0.21	2.959921901149463	# o
   6	0.015	2.59964245953351	# ha
   7	0.1094	3.3996695084235347	# c3
   8	0.17	3.249998523775958	# nh
   9	0.0157	2.649532787749369	# hc

Bond Coeffs

   1	384.2	1.4121	# ca,n
   2	404.6	1.0121	# hn,nh
   3	403.2	1.0129	# hn,n
   4	417.9	1.3859	# ca,nh
   5	461.1	1.3984	# ca,ca
   6	427.6	1.3789	# c,n
   7	345.9	1.4906	# c,ca
   8	345.8	1.086	# ca,ha
   9	321.0	1.5156	# c3,ca
  10	330.6	1.0969	# c3,hc
  11	637.7	1.2183	# c,o
  12	452.5	1.4016	# n,nh

Angle Coeffs

   1	63.53	120.77	# c3,ca,ca
   2	39.4	107.58	# hc,c3,hc
   3	66.62	120.02	# ca,ca,ca
   4	48.42	116.07	# ca,nh,hn
   5	48.18	119.88	# ca,ca,ha
   6	63.74	127.08	# c,n,c
   7	67.87	120.19	# ca,ca,n
   8	40.07	115.12	# hn,nh,hn
   9	68.72	122.6	# ca,c,o
  10	48.33	117.55	# c,n,hn
  11	64.28	120.33	# c,ca,ca
  12	67.68	115.25	# ca,c,n
  13	63.56	112.24	# ca,c3,ca
  14	74.22	123.05	# n,c,o
  15	63.82	123.71	# c,n,ca
  16	46.8	110.47	# ca,c3,hc
  17	68.29	120.95	# ca,ca,nh
  18	67.01	118.71	# c,n,nh
  19	67.61	116.03	# ca,nh,n
  20	50.88	108.17	# hn,nh,n

Dihedral Coeffs

   1	1	3.625	2	180	# X,ca,ca,X
   2	1	1.0	2	180	# X,c,ca,X
   3	1	0.0	2	0	# X,c3,ca,X
   4	1	2.5	2	180	# X,c,n,X
   5	1	1.05	2	180	# X,ca,nh,X
   6	1	0.45	2	180	# X,ca,n,X
   7	2	2.5	2	180	2.0	1	0	# hn,n,c,o
   8	1	1.1	2	0	# X,n,nh,X

Improper Coeffs

   1	1.1	-1	2	# ca,X,X,ha
   2	10.5	-1	2	# c,X,X,o
   3	1.1	-1	2	# ca,ca,ca,c3
   4	1.1	-1	2	# n,X,X,hn

Atoms

   1	1	1	0.452895	9.82505	34.9777	-42.0643
   2	1	2	0.074505	10.0808	34.4229	-40.8138
   3	1	3	0.001656	10.6378	33.0825	-41.1242
   4	1	2	0.074191	10.2315	34.1916	-43.139
   5	1	3	0.036519	10.7247	32.9425	-42.5002
   6	1	5	-0.399533	9.91333	34.9112	-39.707
   7	1	5	-0.398173	10.2067	34.4488	-44.3327
   8	1	3	-0.067442	10.9755	32.0383	-40.2579
   9	1	3	-0.068422	11.1602	31.7474	-43.0834
  10	1	3	-0.213282	11.4897	30.6752	-42.2262
  11	1	3	-0.047343	11.3912	30.8115	-40.82
  12	1	6	0.159476	10.8663	32.1664	-39.1843
  13	1	6	0.16033	11.203	31.6478	-44.1657
  14	1	6	0.171114	11.7911	29.7227	-42.6557
  15	1	7	-0.06383	11.6554	29.6127	-39.9184
  16	1	3	0.009736	10.43	28.7115	-39.8055
  17	1	3	-0.108991	10.5307	27.332	-40.0967
  18	1	3	-0.114952	9.37099	26.5483	-40.0066
  19	1	3	-0.090153	9.1796	29.2617	-39.4255
  20	1	3	-0.148302	8.02414	28.4602	-39.3522
  21	1	3	-0.073574	8.1541	27.0997	-39.6517
  22	1	2	0.475719	7.12431	26.032	-39.7072
  23	1	1	0.026291	7.79693	24.8847	-40.0998
  24	1	2	0.472085	9.15603	25.1018	-40.2905
  25	1	3	-0.022377	7.12862	23.6596	-40.3733
  26	1	3	-0.088654	6.85996	22.7217	-39.3422
  27	1	3	0.02488	6.13769	21.5443	-39.6474
  28	1	3	0.040063	6.69099	23.4088	-41.691
  29	1	3	-0.361597	5.96905	22.2439	-41.9741
  30	1	3	0.096629	5.68143	21.3152	-40.9639
  31	1	7	-0.018671	7.38181	22.9352	-37.9176
  32	1	8	-0.317996	5.87753	20.5965	-38.6586
  33	1	6	0.16694	7.05719	28.8834	-39.0862
  34	1	6	0.13386	9.09468	30.3217	-39.2049
  35	1	6	0.147907	11.4738	26.8822	-40.3977
  36	1	5	-0.491298	9.99845	24.3101	-40.6782
  37	1	5	-0.47861	5.92507	26.174	-39.5269
  38	1	7	-0.160952	6.98649	24.3831	-42.8251
  39	1	9	0.05529	6.52596	24.0602	-43.7666
  40	1	9	0.069029	8.06633	24.4653	-42.9997
  41	1	9	0.053284	6.59652	25.3832	-42.601
  42	1	7	-0.244214	4.86876	20.0791	-41.316
  43	1	9	0.063506	12.5121	29.0458	-40.3046
  44	1	9	0.093434	11.9518	29.9489	-38.9167
  45	1	6	0.232522	5.61894	22.0625	-42.9853
  46	1	9	0.020884	4.63115	20.0281	-42.3859
  47	1	9	0.114771	3.9229	20.0715	-40.7608
  48	1	9	0.181647	5.42032	19.171	-41.0467
  49	1	9	0.069456	8.13782	22.1788	-37.6718
  50	1	9	0.029017	6.57568	22.8456	-37.1809
  51	1	9	-0.058945	7.84234	23.9168	-37.761
  52	1	4	0.329672	5.76925	20.9243	-37.6988
  53	1	1	0.452895	3.07142	25.5003	-40.8638
  54	1	2	0.074505	2.32974	26.5038	-40.2455
  55	1	3	0.001656	1.96475	27.4229	-41.3542
  56	1	2	0.074191	3.22949	25.6717	-42.2384
  57	1	3	0.036519	2.49947	26.932	-42.5335
  58	1	5	-0.399533	2.0692	26.6526	-39.0629
  59	1	5	-0.398173	3.83722	24.9799	-43.0401
  60	1	3	-0.067442	1.23305	28.6153	-41.3223
  61	1	3	-0.068422	2.33673	27.6117	-43.7461
  62	1	3	-0.213282	1.59841	28.8146	-43.736
  63	1	3	-0.047343	1.04482	29.3174	-42.5337
  64	1	6	0.159476	0.828647	28.979	-40.3812
  65	1	6	0.16033	2.77492	27.218	-44.6604
  66	1	6	0.171114	1.4582	29.3632	-44.6645
  67	1	7	-0.06383	0.232569	30.606	-42.5523
  68	1	3	0.009736	1.0775	31.8675	-42.6994
  69	1	3	-0.108991	2.28425	32.0162	-41.978
  70	1	3	-0.114952	2.99276	33.219	-42.1098
  71	1	3	-0.090153	0.618442	32.9223	-43.5273
  72	1	3	-0.148302	1.3447	34.1254	-43.6433
  73	1	3	-0.073574	2.53433	34.245	-42.9147
  74	1	2	0.475719	3.48647	35.3838	-42.8076
  75	1	1	0.026291	4.47261	34.9598	-41.9287
  76	1	2	0.472085	4.25793	33.6676	-41.4666
  77	1	3	-0.022377	5.57309	35.7695	-41.5288
  78	1	3	-0.088654	6.82891	35.645	-42.1725
  79	1	3	0.02488	7.92968	36.4094	-41.7052
  80	1	3	0.040063	5.40236	36.6849	-40.4688
  81	1	3	-0.361597	6.48265	37.4763	-40.0563
  82	1	3	0.096629	7.74021	37.3434	-40.6606
  83	1	7	-0.018671	6.9828	34.7007	-43.3699
  84	1	8	-0.317996	9.21962	36.2416	-42.2179
  85	1	6	0.16694	0.99298	34.9445	-44.2677
  86	1	6	0.13386	-0.315348	32.8138	-44.0726
  87	1	6	0.147907	2.65798	31.2299	-41.3262
  88	1	5	-0.491298	4.93051	33.0294	-40.6746
  89	1	5	-0.47861	3.38553	36.4667	-43.3597
  90	1	7	-0.160952	4.06405	36.8376	-39.7562
  91	1	9	0.05529	3.70329	35.8725	-39.3793
  92	1	9	0.069029	3.30436	37.2466	-40.4341
  93	1	9	0.053284	4.13511	37.5147	-38.8964
  94	1	7	-0.244214	8.89162	38.1882	-40.129
  95	1	9	0.063506	-0.497879	30.5483	-43.3692
  96	1	9	0.093434	-0.364681	30.6865	-41.6353
  97	1	6	0.232522	6.34552	38.1757	-39.2384
  98	1	9	0.020884	9.49813	38.6109	-40.9393
  99	1	9	0.114771	9.54353	37.5861	-39.4829
 100	1	9	0.181647	8.52452	39.0289	-39.5291
 101	1	9	0.069456	7.67649	35.1092	-44.1144
 102	1	9	0.029017	6.04236	34.5389	-43.9085
 103	1	9	-0.058945	7.35488	33.7198	-43.0496
 104	1	4	0.329672	9.90399	36.9204	-41.9232
 105	1	1	0.452895	-1.36185	16.4122	-30.4092
 106	1	2	0.074505	-0.092063	16.8356	-30.7895
 107	1	3	0.001656	-0.00879348	18.2272	-30.2781
 108	1	2	0.074191	-2.08575	17.3459	-29.673
 109	1	3	0.036519	-1.19045	18.5333	-29.6225
 110	1	5	-0.399533	0.774885	16.2217	-31.3911
 111	1	5	-0.398173	-3.19815	17.2399	-29.1822
 112	1	3	-0.067442	1.0274	19.1588	-30.3966
 113	1	3	-0.068422	-1.40081	19.7961	-29.0572
 114	1	3	-0.213282	-0.369879	20.754	-29.1734
 115	1	3	-0.047343	0.841744	20.4442	-29.8397
 116	1	6	0.159476	1.94054	18.8884	-30.9203
 117	1	6	0.16033	-2.33761	20.0228	-28.5529
 118	1	6	0.171114	-0.515525	21.7438	-28.7468
 119	1	7	-0.06383	1.9405	21.495	-29.9588
 120	1	3	0.009736	2.5448	21.5421	-31.356
 121	1	3	-0.108991	1.77753	22.0414	-32.4302
 122	1	3	-0.114952	2.3426	22.0231	-33.7122
 123	1	3	-0.090153	3.85113	21.045	-31.5891
 124	1	3	-0.148302	4.39882	21.0299	-32.8888
 125	1	3	-0.073574	3.61289	21.526	-33.9372
 126	1	2	0.475719	3.88706	21.5963	-35.3988
 127	1	1	0.026291	2.7405	22.1375	-35.9654
 128	1	2	0.472085	1.76765	22.4366	-35.0204
 129	1	3	-0.022377	2.56688	22.3054	-37.3688
 130	1	3	-0.088654	3.19261	23.3744	-38.0585
 131	1	3	0.02488	3.0385	23.4887	-39.4639
 132	1	3	0.040063	1.78527	21.3667	-38.0751
 133	1	3	-0.361597	1.63053	21.4979	-39.4604
 134	1	3	0.096629	2.25655	22.5364	-40.1623
 135	1	7	-0.018671	4.0124	24.4269	-37.2986
 136	1	8	-0.317996	3.73756	24.4922	-40.1403
 137	1	6	0.16694	5.39379	20.6332	-33.0809
 138	1	6	0.13386	4.43591	20.6513	-30.7618
 139	1	6	0.147907	0.76564	22.4106	-32.2777
 140	1	5	-0.491298	0.646946	22.88	-35.205
 141	1	5	-0.47861	4.89519	21.2038	-35.9672
 142	1	7	-0.160952	1.11211	20.1933	-37.3728
 143	1	9	0.05529	0.670412	19.4898	-38.0886
 144	1	9	0.069029	0.304393	20.5414	-36.7168
 145	1	9	0.053284	1.82871	19.6283	-36.7639
 146	1	7	-0.244214	2.10814	22.5485	-41.6765
 147	1	9	0.063506	1.54534	22.4876	-29.7076
 148	1	9	0.093434	2.71891	21.2898	-29.2133
 149	1	6	0.232522	1.03713	20.769	-40.0026
 150	1	9	0.020884	1.64383	21.6281	-42.0511
 151	1	9	0.114771	3.0871	22.6347	-42.1628
 152	1	9	0.181647	1.48702	23.3875	-42.0069
 153	1	9	0.069456	3.52313	25.4071	-37.3405
 154	1	9	0.029017	5.01141	24.5379	-37.7299
 155	1	9	-0.058945	4.15837	24.1961	-36.2381
 156	1	4	0.329672	4.48705	24.9597	-39.6393
 157	1	1	0.452895	-9.9204	1.96469	-30.1084
 158	1	2	0.074505	-10.1538	2.80232	-31.1975
 159	1	3	0.001656	-9.94099	4.16935	-30.6537
 160	1	2	0.074191	-9.52883	2.62889	-28.9492
 161	1	3	0.036519	-9.56241	4.06566	-29.3252
 162	1	5	-0.399533	-10.3903	2.50912	-32.3592
 163	1	5	-0.398173	-9.13482	2.1594	-27.8941
 164	1	3	-0.067442	-10.062	5.41273	-31.2844
 165	1	3	-0.068422	-9.26553	5.19867	-28.5597
 166	1	3	-0.213282	-9.38014	6.46188	-29.1779
 167	1	3	-0.047343	-9.78242	6.5743	-30.5305
 168	1	6	0.159476	-10.3688	5.46789	-32.3256
 169	1	6	0.16033	-8.96007	5.09559	-27.5207
 170	1	6	0.171114	-9.15719	7.35935	-28.6049
 171	1	7	-0.06383	-9.92575	7.95066	-31.1639
 172	1	3	0.009736	-8.58783	8.62284	-31.4466
 173	1	3	-0.108991	-8.37054	9.95615	-31.0343
 174	1	3	-0.114952	-7.15648	10.5667	-31.3748
 175	1	3	-0.090153	-7.58462	7.93817	-32.1768
 176	1	3	-0.148302	-6.36934	8.57203	-32.5105
 177	1	3	-0.073574	-6.18606	9.89791	-32.0965
 178	1	2	0.475719	-5.07684	10.8509	-32.3761
 179	1	1	0.026291	-5.47491	12.0582	-31.818
 180	1	2	0.472085	-6.69752	11.9658	-31.1662
 181	1	3	-0.022377	-4.78071	13.2847	-32.0277
 182	1	3	-0.088654	-3.6577	13.6383	-31.24
 183	1	3	0.02488	-2.95287	14.8432	-31.5085
 184	1	3	0.040063	-5.21462	14.1331	-33.066
 185	1	3	-0.361597	-4.51607	15.3161	-33.3276
 186	1	3	0.096629	-3.38418	15.6754	-32.581
 187	1	7	-0.018671	-3.1916	12.6882	-30.1259
 188	1	8	-0.317996	-1.8397	15.1201	-30.7013
 189	1	6	0.16694	-5.60629	8.06343	-33.0966
 190	1	6	0.13386	-7.75922	6.91707	-32.5055
 191	1	6	0.147907	-9.13192	10.5171	-30.4973
 192	1	5	-0.491298	-7.32564	12.8524	-30.6139
 193	1	5	-0.47861	-4.07711	10.6224	-33.0359
 194	1	7	-0.160952	-6.41911	13.7877	-33.9351
 195	1	9	0.05529	-7.34748	13.832	-33.3518
 196	1	9	0.069029	-6.32948	12.7804	-34.3603
 197	1	9	0.053284	-6.52812	14.4833	-34.7758
 198	1	7	-0.244214	-2.67367	16.9523	-33.0164
 199	1	9	0.063506	-10.4927	7.87799	-32.1007
 200	1	9	0.093434	-10.5345	8.58336	-30.5053
 201	1	6	0.232522	-4.8561	15.9558	-34.135
 202	1	9	0.020884	-1.58886	16.8116	-33.0782
 203	1	9	0.114771	-2.89289	17.7796	-32.3313
 204	1	9	0.181647	-2.99504	17.2711	-34.0141
 205	1	9	0.069456	-2.49934	11.9369	-30.5279
 206	1	9	0.029017	-4.02873	12.1538	-29.661
 207	1	9	-0.058945	-2.68057	13.2082	-29.306
 208	1	4	0.329672	-1.70099	14.5327	-29.8931
 209	1	1	0.452895	-13.4588	-8.48444	-18.5895
 210	1	2	0.074505	-13.6807	-7.37645	-19.4035
 211	1	3	0.001656	-12.3618	-6.69114	-19.4483
 212	1	2	0.074191	-12.1689	-8.5737	-18.0778
 213	1	3	0.036519	-11.4665	-7.4037	-18.6658
 214	1	5	-0.399533	-14.7152	-7.01369	-19.941
 215	1	5	-0.398173	-11.7213	-9.37001	-17.2686
 216	1	3	-0.067442	-11.9807	-5.51831	-20.1116
 217	1	3	-0.068422	-10.1402	-6.98731	-18.5104
 218	1	3	-0.213282	-9.73504	-5.81057	-19.1749
 219	1	3	-0.047343	-10.6471	-5.07413	-19.9705
 220	1	6	0.159476	-12.7004	-4.96894	-20.7141
 221	1	6	0.16033	-9.4544	-7.55974	-17.8893
 222	1	6	0.171114	-8.70982	-5.46476	-19.0629
 223	1	7	-0.06383	-10.1971	-3.79044	-20.6563
 224	1	3	0.009736	-10.3459	-3.82645	-22.1729
 225	1	3	-0.108991	-10.8681	-2.70212	-22.8483
 226	1	3	-0.114952	-10.9621	-2.75189	-24.2446
 227	1	3	-0.090153	-9.93135	-4.96295	-22.912
 228	1	3	-0.148302	-10.041	-4.99449	-24.3185
 229	1	3	-0.073574	-10.564	-3.86454	-24.9611
 230	1	2	0.475719	-10.7751	-3.58367	-26.4088
 231	1	1	0.026291	-11.2771	-2.29068	-26.4654
 232	1	2	0.472085	-11.4334	-1.72362	-25.2083
 233	1	3	-0.022377	-11.5917	-1.60352	-27.6719
 234	1	3	-0.088654	-10.5776	-0.929727	-28.3958
 235	1	3	0.02488	-10.9268	-0.147819	-29.5261
 236	1	3	0.040063	-12.9324	-1.55119	-28.1048
 237	1	3	-0.361597	-13.2594	-0.811054	-29.2478
 238	1	3	0.096629	-12.2762	-0.10758	-29.9573
 239	1	7	-0.018671	-9.12234	-1.03001	-27.9161
 240	1	8	-0.317996	-9.92734	0.557524	-30.2009
 241	1	6	0.16694	-9.72236	-5.86214	-24.893
 242	1	6	0.13386	-9.51877	-5.82352	-22.3915
 243	1	6	0.147907	-11.1793	-1.8089	-22.3112
 244	1	5	-0.491298	-11.8692	-0.620465	-24.9275
 245	1	5	-0.47861	-10.5202	-4.33231	-27.3371
 246	1	7	-0.160952	-14.0405	-2.28481	-27.3593
 247	1	9	0.05529	-14.9989	-2.22037	-27.8886
 248	1	9	0.069029	-14.1894	-1.85895	-26.3592
 249	1	9	0.053284	-13.8026	-3.35006	-27.247
 250	1	7	-0.244214	-12.7159	0.654471	-31.1979
 251	1	9	0.063506	-10.7734	-2.95274	-20.243
 252	1	9	0.093434	-9.15001	-3.57415	-20.4102
 253	1	6	0.232522	-14.2923	-0.772575	-29.5787
 254	1	9	0.020884	-12.8233	1.72493	-30.9852
 255	1	9	0.114771	-13.6802	0.293853	-31.5737
 256	1	9	0.181647	-11.9944	0.533076	-32.0153
 257	1	9	0.069456	-8.83571	-2.07229	-27.7312
 258	1	9	0.029017	-8.98304	-0.474488	-26.98
 259	1	9	-0.058945	-8.39475	-0.643922	-28.6399
 260	1	4	0.329672	-8.98318	0.275435	-29.9776
 261	1	1	0.452895	-11.9826	-23.8489	-15.7672
 262	1	2	0.074505	-12.4959	-22.6484	-16.2542
 263	1	3	0.001656	-12.9857	-21.9429	-15.0396
 264	1	2	0.074191	-12.1165	-24.0149	-14.393
 265	1	3	0.036519	-12.7587	-22.7534	-13.9384
 266	1	5	-0.399533	-12.5827	-22.2634	-17.4095
 267	1	5	-0.398173	-11.8686	-24.9995	-13.7157
 268	1	3	-0.067442	-13.6153	-20.6971	-14.9153
 269	1	3	-0.068422	-13.145	-22.3606	-12.653
 270	1	3	-0.213282	-13.7741	-21.1063	-12.5057
 271	1	3	-0.047343	-14.0109	-20.2717	-13.6262
 272	1	6	0.159476	-13.8001	-20.088	-15.7969
 273	1	6	0.16033	-12.9699	-23.0166	-11.8028
 274	1	6	0.171114	-14.095	-20.7898	-11.5158
 275	1	7	-0.06383	-14.7474	-18.9491	-13.435
 276	1	3	0.009736	-14.1422	-17.7756	-14.1973
 277	1	3	-0.108991	-14.9388	-17.0403	-15.1025
 278	1	3	-0.114952	-14.3621	-15.9424	-15.7542
 279	1	3	-0.090153	-12.7967	-17.3935	-13.9708
 280	1	3	-0.148302	-12.2332	-16.2879	-14.6435
 281	1	3	-0.073574	-13.0478	-15.5766	-15.5351
 282	1	2	0.475719	-12.7487	-14.3899	-16.3852
 283	1	1	0.026291	-13.9255	-14.1164	-17.0701
 284	1	2	0.472085	-14.9472	-14.998	-16.7425
 285	1	3	-0.022377	-14.0598	-13.0839	-18.0434
 286	1	3	-0.088654	-14.238	-11.7344	-17.6499
 287	1	3	0.02488	-14.3531	-10.7249	-18.6396
 288	1	3	0.040063	-14.0127	-13.4239	-19.4119
 289	1	3	-0.361597	-14.1725	-12.4236	-20.3791
 290	1	3	0.096629	-14.3504	-11.084	-20.0105
 291	1	7	-0.018671	-14.2616	-11.3778	-16.1571
 292	1	8	-0.317996	-14.4757	-9.39367	-18.2352
 293	1	6	0.16694	-11.1999	-15.9884	-14.4785
 294	1	6	0.13386	-12.189	-17.9585	-13.2684
 295	1	6	0.147907	-15.9767	-17.3046	-15.2918
 296	1	5	-0.491298	-16.0859	-15.0274	-17.1771
 297	1	5	-0.47861	-11.6804	-13.8077	-16.462
 298	1	7	-0.160952	-13.8034	-14.8611	-19.8736
 299	1	9	0.05529	-13.6076	-14.9159	-20.9513
 300	1	9	0.069029	-14.6925	-15.4708	-19.6693
 301	1	9	0.053284	-12.9468	-15.3224	-19.3667
 302	1	7	-0.244214	-14.5678	-10.0717	-21.1267
 303	1	9	0.063506	-15.7952	-19.088	-13.7301
 304	1	9	0.093434	-14.7783	-18.6883	-12.3698
 305	1	6	0.232522	-14.1641	-12.6925	-21.4308
 306	1	9	0.020884	-14.86	-10.5596	-22.0648
 307	1	9	0.114771	-13.6559	-9.49771	-21.3263
 308	1	9	0.181647	-15.3709	-9.36834	-20.8716
 309	1	9	0.069456	-13.2399	-11.3336	-15.7566
 310	1	9	0.029017	-14.8188	-12.1202	-15.5727
 311	1	9	-0.058945	-14.7406	-10.4123	-15.9523
 312	1	4	0.329672	-14.6401	-9.25548	-17.2482
 313	1	1	0.452895	-1.53762	-35.7454	-11.8442
 314	1	2	0.074505	-1.74957	-35.0312	-13.0215
 315	1	3	0.001656	-3.21976	-35.1005	-13.227
 316	1	2	0.074191	-2.68367	-36.3227	-11.3082
 317	1	3	0.036519	-3.7711	-35.8761	-12.2191
 318	1	5	-0.399533	-0.936031	-34.4707	-13.7389
 319	1	5	-0.398173	-2.78874	-37.0542	-10.3369
 320	1	3	-0.067442	-4.01652	-34.4994	-14.2091
 321	1	3	-0.068422	-5.14785	-36.1158	-12.1554
 322	1	3	-0.213282	-5.96789	-35.5246	-13.1401
 323	1	3	-0.047343	-5.41218	-34.708	-14.1562
 324	1	6	0.159476	-3.56376	-33.8765	-14.9768
 325	1	6	0.16033	-5.56193	-36.7299	-11.3585
 326	1	6	0.171114	-7.04303	-35.6855	-13.1033
 327	1	7	-0.06383	-6.32269	-34.0356	-15.1776
 328	1	3	0.009736	-6.69821	-32.5951	-14.8288
 329	1	3	-0.108991	-7.02038	-31.6983	-15.8719
 330	1	3	-0.114952	-7.39425	-30.389	-15.5374
 331	1	3	-0.090153	-6.76259	-32.152	-13.4815
 332	1	3	-0.148302	-7.13753	-30.8289	-13.1665
 333	1	3	-0.073574	-7.45271	-29.9657	-14.2229
 334	1	2	0.475719	-7.88058	-28.5388	-14.211
 335	1	1	0.026291	-8.05147	-28.192	-15.5443
 336	1	2	0.472085	-7.78106	-29.2459	-16.4064
 337	1	3	-0.022377	-8.42504	-26.8898	-15.9836
 338	1	3	-0.088654	-9.79045	-26.526	-16.0878
 339	1	3	0.02488	-10.138	-25.2213	-16.5227
 340	1	3	0.040063	-7.41484	-25.9648	-16.3196
 341	1	3	-0.361597	-7.77073	-24.6909	-16.7799
 342	1	3	0.096629	-9.11542	-24.3136	-16.8955
 343	1	7	-0.018671	-10.8714	-27.5408	-15.6904
 344	1	8	-0.317996	-11.4883	-24.8704	-16.6037
 345	1	6	0.16694	-7.18602	-30.4838	-12.1353
 346	1	6	0.13386	-6.52394	-32.833	-12.6698
 347	1	6	0.147907	-6.98882	-32.0074	-16.9144
 348	1	5	-0.491298	-7.83088	-29.2518	-17.6258
 349	1	5	-0.47861	-8.0322	-27.8365	-13.2261
 350	1	7	-0.160952	-5.93756	-26.3227	-16.2108
 351	1	9	0.05529	-5.29402	-25.4618	-16.4294
 352	1	9	0.069029	-5.67391	-27.1178	-16.9193
 353	1	9	0.053284	-5.68658	-26.6664	-15.1995
 354	1	7	-0.244214	-9.4107	-22.9342	-17.4669
 355	1	9	0.063506	-5.83344	-34.0588	-16.1601
 356	1	9	0.093434	-7.24177	-34.6228	-15.2986
 357	1	6	0.232522	-6.99324	-23.9879	-17.0624
 358	1	9	0.020884	-8.53479	-22.5066	-17.9702
 359	1	9	0.114771	-9.71052	-22.2336	-16.6797
 360	1	9	0.181647	-10.2144	-22.9806	-18.2129
 361	1	9	0.069456	-10.962	-27.5963	-14.5974
 362	1	9	0.029017	-10.6356	-28.5469	-16.0582
 363	1	9	-0.058945	-11.8624	-27.2979	-16.0927
 364	1	4	0.329672	-12.1395	-25.6375	-16.5142
 365	1	1	0.452895	-0.657356	-41.0509	2.78639
 366	1	2	0.074505	0.472861	-40.2393	2.7463
 367	1	3	0.001656	0.843582	-40.1991	1.30459
 368	1	2	0.074191	-1.07256	-41.5107	1.53712
 369	1	3	0.036519	-0.0646327	-40.9627	0.591177
 370	1	5	-0.399533	0.999216	-39.6192	3.65701
 371	1	5	-0.398173	-2.06882	-42.1526	1.24591
 372	1	3	-0.067442	1.89276	-39.5302	0.662881
 373	1	3	-0.068422	0.043569	-41.1175	-0.79622
 374	1	3	-0.213282	1.11173	-40.4717	-1.45702
 375	1	3	-0.047343	2.02733	-39.6619	-0.739261
 376	1	6	0.159476	2.59067	-38.9353	1.24679
 377	1	6	0.16033	-0.676244	-41.7272	-1.33822
 378	1	6	0.171114	1.2255	-40.6023	-2.53057
 379	1	7	-0.06383	3.21621	-38.9867	-1.42188
 380	1	3	0.009736	3.07051	-38.5791	-2.89038
 381	1	3	-0.108991	1.89489	-37.9644	-3.38712
 382	1	3	-0.114952	1.89309	-37.5043	-4.71619
 383	1	3	-0.090153	4.19968	-38.7137	-3.73682
 384	1	3	-0.148302	4.18492	-38.2281	-5.0585
 385	1	3	-0.073574	3.01429	-37.616	-5.51747
 386	1	2	0.475719	2.74116	-36.9357	-6.80999
 387	1	1	0.026291	1.44355	-36.4543	-6.71588
 388	1	2	0.472085	0.850957	-36.7729	-5.4962
 389	1	3	-0.022377	0.852796	-35.6403	-7.73099
 390	1	3	-0.088654	0.479776	-36.2005	-8.9805
 391	1	3	0.02488	0.0342007	-35.3546	-10.0306
 392	1	3	0.040063	0.748086	-34.2476	-7.52263
 393	1	3	-0.361597	0.2971	-33.425	-8.56188
 394	1	3	0.096629	-0.0357676	-33.9545	-9.81496
 395	1	7	-0.018671	0.585687	-37.7191	-9.18208
 396	1	8	-0.317996	-0.26136	-35.925	-11.2736
 397	1	6	0.16694	5.06324	-38.2929	-5.69823
 398	1	6	0.13386	5.11275	-39.1609	-3.35273
 399	1	6	0.147907	1.02363	-37.8164	-2.75258
 400	1	5	-0.491298	-0.269755	-36.4915	-5.10943
 401	1	5	-0.47861	3.53523	-36.7857	-7.72524
 402	1	7	-0.160952	1.16654	-33.5906	-6.21223
 403	1	9	0.05529	1.09709	-32.4973	-6.26537
 404	1	9	0.069029	2.20433	-33.8375	-5.95742
 405	1	9	0.053284	0.522238	-33.913	-5.38538
 406	1	7	-0.244214	-0.391132	-32.9606	-10.9126
 407	1	9	0.063506	3.48618	-38.0857	-0.856436
 408	1	9	0.093434	4.07831	-39.6575	-1.31762
 409	1	6	0.232522	0.243697	-32.352	-8.40598
 410	1	9	0.020884	-0.147208	-31.9305	-10.6254
 411	1	9	0.114771	-1.46119	-32.9855	-11.1457
 412	1	9	0.181647	0.174168	-33.1727	-11.829
 413	1	9	0.069456	0.149254	-38.2588	-8.33201
 414	1	9	0.029017	1.63354	-38.0293	-9.27606
 415	1	9	-0.058945	0.0634705	-38.0825	-10.0748
 416	1	4	0.329672	-0.0456143	-36.9078	-11.3627
 417	1	1	0.452895	0.131329	-44.3363	18.676
 418	1	2	0.074505	-0.529226	-43.1442	18.3921
 419	1	3	0.001656	0.171982	-42.619	17.1934
 420	1	2	0.074191	1.18837	-44.6307	17.8171
 421	1	3	0.036519	1.17941	-43.5044	16.8453
 422	1	5	-0.399533	-1.42597	-42.5965	19.0133
 423	1	5	-0.398173	2.0025	-45.5412	17.8797
 424	1	3	-0.067442	-0.0587128	-41.4458	16.4652
 425	1	3	-0.068422	1.9999	-43.2688	15.7373
 426	1	3	-0.213282	1.78725	-42.0913	14.9926
 427	1	3	-0.047343	0.763848	-41.1808	15.3483
 428	1	6	0.159476	-0.857352	-40.7705	16.7596
 429	1	6	0.16033	2.77041	-43.9814	15.4601
 430	1	6	0.171114	2.41324	-41.8892	14.1269
 431	1	7	-0.06383	0.526251	-39.9465	14.491
 432	1	3	0.009736	-0.173227	-40.3218	13.1923
 433	1	3	-0.108991	0.575891	-40.5089	12.0094
 434	1	3	-0.114952	-0.101281	-40.9282	10.8557
 435	1	3	-0.090153	-1.57102	-40.5489	13.1883
 436	1	3	-0.148302	-2.23347	-40.9686	12.0164
 437	1	3	-0.073574	-1.46505	-41.1544	10.8598
 438	1	2	0.475719	-1.85842	-41.6477	9.51188
 439	1	1	0.026291	-0.682727	-41.6971	8.77484
 440	1	2	0.472085	0.419457	-41.2697	9.50359
 441	1	3	-0.022377	-0.61203	-42.2296	7.45425
 442	1	3	-0.088654	-0.969998	-41.4393	6.33381
 443	1	3	0.02488	-0.966827	-42.0118	5.03335
 444	1	3	0.040063	-0.23738	-43.578	7.28345
 445	1	3	-0.361597	-0.230155	-44.1331	5.99862
 446	1	3	0.096629	-0.604862	-43.3761	4.8788
 447	1	7	-0.018671	-1.36181	-39.9727	6.56446
 448	1	8	-0.317996	-1.41825	-41.2328	3.9603
 449	1	6	0.16694	-3.30332	-41.168	12.01
 450	1	6	0.13386	-2.13939	-40.4228	14.1062
 451	1	6	0.147907	1.65312	-40.3626	11.9923
 452	1	5	-0.491298	1.58682	-41.239	9.15398
 453	1	5	-0.47861	-2.97876	-41.9781	9.16001
 454	1	7	-0.160952	0.12734	-44.4648	8.46905
 455	1	9	0.05529	-0.667385	-44.4642	9.22557
 456	1	9	0.069029	1.05349	-44.1202	8.9459
 457	1	9	0.053284	0.283488	-45.5072	8.16618
 458	1	7	-0.244214	-0.673364	-44.1067	3.54571
 459	1	9	0.063506	-0.0733849	-39.2084	15.0388
 460	1	9	0.093434	1.48326	-39.451	14.2816
 461	1	6	0.232522	0.0331924	-45.1788	5.87755
 462	1	9	0.020884	-1.65182	-43.9655	3.0727
 463	1	9	0.114771	-0.53977	-45.1878	3.66586
 464	1	9	0.181647	0.104376	-43.7603	2.85755
 465	1	9	0.069456	-0.539288	-39.4259	7.04365
 466	1	9	0.029017	-2.23827	-39.9003	7.22036
 467	1	9	-0.058945	-1.60978	-39.426	5.64759
 468	1	4	0.329672	-1.79243	-40.3271	4.20307
 469	1	1	0.452895	-3.5019	-45.6505	30.1867
 470	1	2	0.074505	-4.71486	-46.1995	29.7818
 471	1	3	0.001656	-5.33589	-45.1296	28.9601
 472	1	2	0.074191	-3.30373	-44.3314	29.7896
 473	1	3	0.036519	-4.50368	-44.0212	28.9683
 474	1	5	-0.399533	-5.20762	-47.2758	30.0816
 475	1	5	-0.398173	-2.39362	-43.571	30.0802
 476	1	3	-0.067442	-6.5129	-45.1569	28.2053
 477	1	3	-0.068422	-4.81834	-42.8683	28.2404
 478	1	3	-0.213282	-5.99556	-42.8802	27.4621
 479	1	3	-0.047343	-6.83305	-44.0219	27.4286
 480	1	6	0.159476	-7.11742	-46.0597	28.1714
 481	1	6	0.16033	-4.14559	-42.0134	28.2464
 482	1	6	0.171114	-6.23169	-42.0189	26.8415
 483	1	7	-0.06383	-7.99309	-44.0819	26.4427
 484	1	3	0.009736	-7.51161	-44.3531	25.0179
 485	1	3	-0.108991	-6.34875	-45.1256	24.7911
 486	1	3	-0.114952	-5.90172	-45.2881	23.4774
 487	1	3	-0.090153	-8.2099	-43.8029	23.9136
 488	1	3	-0.148302	-7.74353	-43.9854	22.5928
 489	1	3	-0.073574	-6.56953	-44.7282	22.4071
 490	1	2	0.475719	-5.7874	-45.0231	21.1733
 491	1	1	0.026291	-4.67186	-45.7325	21.602
 492	1	2	0.472085	-4.68179	-45.9631	22.9687
 493	1	3	-0.022377	-3.60781	-46.1433	20.7494
 494	1	3	-0.088654	-2.38524	-45.4249	20.7383
 495	1	3	0.02488	-1.34483	-45.8263	19.8627
 496	1	3	0.040063	-3.77783	-47.2758	19.9265
 497	1	3	-0.361597	-2.73066	-47.6826	19.0907
 498	1	3	0.096629	-1.52036	-46.977	19.054
 499	1	7	-0.018671	-2.21842	-44.2139	21.6694
 500	1	8	-0.317996	-0.156122	-45.0925	19.8295
 501	1	6	0.16694	-8.25874	-43.5443	21.7418
 502	1	6	0.13386	-9.10727	-43.2138	24.083
 503	1	6	0.147907	-5.77582	-45.5626	25.6048
 504	1	5	-0.491298	-3.83888	-46.5329	23.6394
 505	1	5	-0.47861	-6.07023	-44.6764	20.0388
 506	1	7	-0.160952	-5.06838	-48.0867	19.9327
 507	1	9	0.05529	-5.88081	-47.532	19.4468
 508	1	9	0.069029	-5.38291	-48.3293	20.9554
 509	1	9	0.053284	-4.953	-49.0377	19.3984
 510	1	7	-0.244214	-0.42152	-47.5222	18.1553
 511	1	9	0.063506	-8.70697	-44.8603	26.7406
 512	1	9	0.093434	-8.54816	-43.1359	26.4795
 513	1	6	0.232522	-2.86226	-48.5582	18.4632
 514	1	9	0.020884	-0.373658	-46.967	17.2109
 515	1	9	0.114771	-0.585763	-48.5776	17.91
 516	1	9	0.181647	0.557701	-47.4619	18.6448
 517	1	9	0.069456	-2.32204	-44.5082	22.7207
 518	1	9	0.029017	-2.97944	-43.4521	21.4575
 519	1	9	-0.058945	-1.24251	-43.7221	21.5895
 520	1	4	0.329672	-0.0245988	-44.4338	20.5878
 521	1	1	0.452895	4.73206	-43.284	20.0466
 522	1	2	0.074505	3.49089	-43.799	20.4214
 523	1	3	0.001656	3.80292	-45.1594	20.9439
 524	1	2	0.074191	5.80646	-44.1251	20.3212
 525	1	3	0.036519	5.17353	-45.3533	20.8706
 526	1	5	-0.399533	2.39491	-43.2601	20.3853
 527	1	5	-0.398173	6.99574	-43.9392	20.12
 528	1	3	-0.067442	2.94977	-46.1626	21.4272
 529	1	3	-0.068422	5.76019	-46.5654	21.2502
 530	1	3	-0.213282	4.91412	-47.5948	21.714
 531	1	3	-0.047343	3.51447	-47.3981	21.8173
 532	1	6	0.159476	1.87894	-45.9945	21.4814
 533	1	6	0.16033	6.83626	-46.7034	21.1694
 534	1	6	0.171114	5.34804	-48.5525	21.9921
 535	1	7	-0.06383	2.61456	-48.5374	22.293
 536	1	3	0.009736	2.4098	-48.5933	23.8064
 537	1	3	-0.108991	1.10985	-48.7739	24.3345
 538	1	3	-0.114952	0.960076	-48.8535	25.7271
 539	1	3	-0.090153	3.51694	-48.507	24.6886
 540	1	3	-0.148302	3.34449	-48.5857	26.0857
 541	1	3	-0.073574	2.04578	-48.761	26.5772
 542	1	2	0.475719	1.54971	-48.8262	27.9787
 543	1	1	0.026291	0.170029	-48.9282	27.8792
 544	1	2	0.472085	-0.266738	-48.9838	26.5625
 545	1	3	-0.022377	-0.699531	-48.8575	29.0044
 546	1	3	-0.088654	-1.19412	-47.6013	29.4399
 547	1	3	0.02488	-2.05302	-47.5435	30.568
 548	1	3	0.040063	-1.04607	-50.0387	29.6935
 549	1	3	-0.361597	-1.87445	-49.9632	30.8214
 550	1	3	0.096629	-2.37274	-48.7313	31.2655
 551	1	7	-0.018671	-0.790406	-46.3187	28.7007
 552	1	8	-0.317996	-2.60232	-46.3411	31.023
 553	1	6	0.16694	4.18729	-48.5006	26.7688
 554	1	6	0.13386	4.51773	-48.3701	24.2926
 555	1	6	0.147907	0.237192	-48.8417	23.6883
 556	1	5	-0.491298	-1.40965	-49.1008	26.1564
 557	1	5	-0.47861	2.22958	-48.7677	28.9899
 558	1	7	-0.160952	-0.537579	-51.4023	29.2438
 559	1	9	0.05529	-0.957509	-52.2136	29.8509
 560	1	9	0.069029	0.5547	-51.4608	29.3276
 561	1	9	0.053284	-0.813274	-51.601	28.2006
 562	1	7	-0.244214	-3.30116	-48.7243	32.4742
 563	1	9	0.063506	1.64154	-48.4589	21.7908
 564	1	9	0.093434	3.02989	-49.4962	21.9583
 565	1	6	0.232522	-2.14141	-50.8735	31.3482
 566	1	9	0.020884	-3.12346	-47.8641	33.1312
 567	1	9	0.114771	-3.16786	-49.6254	33.0843
 568	1	9	0.181647	-4.3488	-48.7023	32.1453
 569	1	9	0.069456	-0.658607	-45.4786	29.3925
 570	1	9	0.029017	-1.55164	-46.0395	27.9616
 571	1	9	-0.058945	0.162734	-46.4112	28.1681
 572	1	4	0.329672	-3.02777	-46.367	31.9366
 573	1	1	0.452895	13.1055	-33.8365	9.50486
 574	1	2	0.074505	13.3703	-33.7077	10.8681
 575	1	3	0.001656	12.0227	-33.7556	11.5003
 576	1	2	0.074191	11.7605	-33.988	9.18804
 577	1	3	0.036519	11.0734	-33.9302	10.5046
 578	1	5	-0.399533	14.4492	-33.641	11.4386
 579	1	5	-0.398173	11.247	-34.1563	8.09262
 580	1	3	-0.067442	11.6547	-33.6491	12.8486
 581	1	3	-0.068422	9.71075	-34.0295	10.8046
 582	1	3	-0.213282	9.32206	-33.9337	12.1574
 583	1	3	-0.047343	10.2823	-33.7385	13.1798
 584	1	6	0.159476	12.4138	-33.483	13.6082
 585	1	6	0.16033	8.98178	-34.1714	10.0101
 586	1	6	0.171114	8.26741	-34.0	12.4125
 587	1	7	-0.06383	9.8229	-33.5768	14.6251
 588	1	3	0.009736	9.57819	-34.9038	15.3369
 589	1	3	-0.108991	8.29324	-35.4974	15.3373
 590	1	3	-0.114952	8.11745	-36.7102	16.0248
 591	1	3	-0.090153	10.6455	-35.5358	16.0195
 592	1	3	-0.148302	10.4506	-36.755	16.6998
 593	1	3	-0.073574	9.16847	-37.3187	16.685
 594	1	2	0.475719	8.69021	-38.6162	17.2326
 595	1	1	0.026291	7.36597	-38.728	16.8315
 596	1	2	0.472085	6.92727	-37.6052	16.1369
 597	1	3	-0.022377	6.6465	-39.9567	16.9386
 598	1	3	-0.088654	6.00723	-40.353	18.143
 599	1	3	0.02488	5.46128	-41.6616	18.2693
 600	1	3	0.040063	6.69218	-40.8422	15.8427
 601	1	3	-0.361597	6.13779	-42.1196	15.9643
 602	1	3	0.096629	5.54346	-42.5498	17.1586
 603	1	7	-0.018671	5.89652	-39.374	19.321
 604	1	8	-0.317996	4.88652	-41.9855	19.5135
 605	1	6	0.16694	11.2708	-37.2573	17.2091
 606	1	6	0.13386	11.6326	-35.0802	16.0146
 607	1	6	0.147907	7.46058	-35.04	14.8091
 608	1	5	-0.491298	5.83672	-37.4226	15.6219
 609	1	5	-0.47861	9.37114	-39.4458	17.8115
 610	1	7	-0.160952	7.36519	-40.4625	14.5274
 611	1	9	0.05529	7.3105	-41.2735	13.7914
 612	1	9	0.069029	8.42689	-40.2302	14.6771
 613	1	9	0.053284	6.88243	-39.5867	14.0759
 614	1	7	-0.244214	5.04859	-43.9888	17.1608
 615	1	9	0.063506	10.5655	-32.9925	15.184
 616	1	9	0.093434	8.90937	-32.9695	14.6519
 617	1	6	0.232522	6.20347	-42.8037	15.1242
 618	1	9	0.020884	4.95119	-44.3883	16.1442
 619	1	9	0.114771	4.06621	-44.0777	17.6301
 620	1	9	0.181647	5.7579	-44.6412	17.6836
 621	1	9	0.069456	4.85819	-39.0375	19.4391
 622	1	9	0.029017	6.51133	-38.475	19.2062
 623	1	9	-0.058945	6.20333	-39.8444	20.2641
 624	1	4	0.329672	5.07281	-41.3495	20.2744
 625	1	1	0.452895	23.3206	-24.0763	13.5653
 626	1	2	0.074505	23.9378	-25.2805	13.8964
 627	1	3	0.001656	22.8298	-26.2662	13.9093
 628	1	2	0.074191	21.9366	-24.161	13.4356
 629	1	3	0.036519	21.6391	-25.604	13.6566
 630	1	5	-0.399533	25.1006	-25.4955	14.1992
 631	1	5	-0.398173	21.1303	-23.2568	13.284
 632	1	3	-0.067442	22.8764	-27.6485	14.1172
 633	1	3	-0.068422	20.4182	-26.2902	13.6457
 634	1	3	-0.213282	20.4435	-27.6864	13.8557
 635	1	3	-0.047343	21.6662	-28.3701	14.0693
 636	1	6	0.159476	23.8279	-28.1454	14.2847