pySIMM System Object

2498 atoms
2737 bonds
4752 angles
7004 dihedrals
768 impropers

9 atom types
12 bond types
20 angle types
8 dihedral types
4 improper types

-204.387321 204.387321 xlo xhi
-204.387321 204.387321 ylo yhi
-204.387321 204.387321 zlo zhi

Masses

   1	14.01	# n
   2	12.01	# c
   3	12.01	# ca
   4	1.008	# hn
   5	16.0	# o
   6	1.008	# ha
   7	12.01	# c3
   8	14.01	# nh
   9	1.008	# hc

Pair Coeffs

   1	0.17	3.249998523775958	# n
   2	0.086	3.3996695084235347	# c
   3	0.086	3.3996695084235347	# ca
   4	0.0157	1.069078461768407	# hn
   5	0.21	2.959921901149463	# o
   6	0.015	2.59964245953351	# ha
   7	0.1094	3.3996695084235347	# c3
   8	0.17	3.249998523775958	# nh
   9	0.0157	2.649532787749369	# hc

Bond Coeffs

   1	384.2	1.4121	# ca,n
   2	404.6	1.0121	# hn,nh
   3	403.2	1.0129	# hn,n
   4	417.9	1.3859	# ca,nh
   5	461.1	1.3984	# ca,ca
   6	427.6	1.3789	# c,n
   7	345.9	1.4906	# c,ca
   8	345.8	1.086	# ca,ha
   9	321.0	1.5156	# c3,ca
  10	330.6	1.0969	# c3,hc
  11	637.7	1.2183	# c,o
  12	452.5	1.4016	# n,nh

Angle Coeffs

   1	63.53	120.77	# c3,ca,ca
   2	39.4	107.58	# hc,c3,hc
   3	66.62	120.02	# ca,ca,ca
   4	48.42	116.07	# ca,nh,hn
   5	48.18	119.88	# ca,ca,ha
   6	63.74	127.08	# c,n,c
   7	67.87	120.19	# ca,ca,n
   8	40.07	115.12	# hn,nh,hn
   9	68.72	122.6	# ca,c,o
  10	48.33	117.55	# c,n,hn
  11	64.28	120.33	# c,ca,ca
  12	67.68	115.25	# ca,c,n
  13	63.56	112.24	# ca,c3,ca
  14	74.22	123.05	# n,c,o
  15	63.82	123.71	# c,n,ca
  16	46.8	110.47	# ca,c3,hc
  17	68.29	120.95	# ca,ca,nh
  18	67.01	118.71	# c,n,nh
  19	67.61	116.03	# ca,nh,n
  20	50.88	108.17	# hn,nh,n

Dihedral Coeffs

   1	1	3.625	2	180	# X,ca,ca,X
   2	1	1.0	2	180	# X,c,ca,X
   3	1	0.0	2	0	# X,c3,ca,X
   4	1	2.5	2	180	# X,c,n,X
   5	1	1.05	2	180	# X,ca,nh,X
   6	1	0.45	2	180	# X,ca,n,X
   7	2	2.5	2	180	2.0	1	0	# hn,n,c,o
   8	1	1.1	2	0	# X,n,nh,X

Improper Coeffs

   1	1.1	-1	2	# ca,X,X,ha
   2	10.5	-1	2	# c,X,X,o
   3	1.1	-1	2	# ca,ca,ca,c3
   4	1.1	-1	2	# n,X,X,hn

Atoms

   1	1	1	0.452895	-30.6474	-34.4972	-1.87783
   2	1	2	0.074505	-29.6786	-34.8081	-0.927635
   3	1	3	0.001656	-30.4647	-35.1844	0.275087
   4	1	2	0.074191	-31.9575	-34.7056	-1.45734
   5	1	3	0.036519	-31.8135	-35.1328	-0.0407022
   6	1	5	-0.399533	-28.463	-34.8201	-1.04572
   7	1	5	-0.398173	-32.9959	-34.5825	-2.08821
   8	1	3	-0.067442	-30.0252	-35.4917	1.56722
   9	1	3	-0.068422	-32.7963	-35.4106	0.915282
  10	1	3	-0.213282	-32.3733	-35.7232	2.2246
  11	1	3	-0.047343	-30.9971	-35.7535	2.55754
  12	1	6	0.159476	-28.9629	-35.485	1.79569
  13	1	6	0.16033	-33.8504	-35.3538	0.653002
  14	1	6	0.171114	-33.1186	-35.907	2.99487
  15	1	7	-0.06383	-30.5766	-35.9827	4.00198
  16	1	3	0.009736	-30.8461	-34.7395	4.8382
  17	1	3	-0.108991	-31.8899	-34.7355	5.7894
  18	1	3	-0.114952	-32.1554	-33.5427	6.47534
  19	1	3	-0.090153	-30.094	-33.5615	4.60693
  20	1	3	-0.148302	-30.3812	-32.3699	5.30271
  21	1	3	-0.073574	-31.4283	-32.3922	6.23229
  22	1	2	0.475719	-32.0181	-31.2919	7.03921
  23	1	1	0.026291	-33.0866	-31.8593	7.71851
  24	1	2	0.472085	-33.2262	-33.2158	7.45617
  25	1	3	-0.022377	-34.0119	-31.0985	8.48664
  26	1	3	-0.088654	-33.745	-30.7626	9.83824
  27	1	3	0.02488	-34.6908	-29.9977	10.5629
  28	1	3	0.040063	-35.2053	-30.6659	7.86767
  29	1	3	-0.361597	-36.1327	-29.915	8.60072
  30	1	3	0.096629	-35.8857	-29.5791	9.93822
  31	1	7	-0.018671	-32.476	-31.263	10.536
  32	1	8	-0.317996	-34.4658	-29.656	11.895
  33	1	6	0.16694	-29.8312	-31.4519	5.1049
  34	1	6	0.13386	-29.3065	-33.5623	3.85758
  35	1	6	0.147907	-32.4994	-35.618	5.96697
  36	1	5	-0.491298	-34.0896	-33.9764	7.86006
  37	1	5	-0.47861	-31.6804	-30.1186	7.02115
  38	1	7	-0.160952	-35.5221	-31.0017	6.41473
  39	1	9	0.05529	-36.3995	-30.451	6.05439
  40	1	9	0.069029	-35.7333	-32.0718	6.29626
  41	1	9	0.053284	-34.6881	-30.7396	5.75191
  42	1	7	-0.244214	-36.9224	-28.7593	10.6907
  43	1	9	0.063506	-31.1152	-36.8467	4.41167
  44	1	9	0.093434	-29.5117	-36.2421	4.05795
  45	1	6	0.232522	-37.0491	-29.5832	8.12377
  46	1	9	0.020884	-37.8119	-28.5535	10.0827
  47	1	9	0.114771	-36.4974	-27.7991	11.0054
  48	1	9	0.181647	-37.2443	-29.293	11.5922
  49	1	9	0.069456	-32.697	-32.1528	11.1389
  50	1	9	0.029017	-32.054	-30.5048	11.2055
  51	1	9	-0.058945	-31.6778	-31.5296	9.83386
  52	1	4	0.329672	-33.5049	-29.6122	12.2309
  53	1	1	0.452895	-32.9391	-27.2023	6.74046
  54	1	2	0.074505	-31.7715	-26.5493	6.35276
  55	1	3	0.001656	-32.0158	-26.1812	4.93308
  56	1	2	0.074191	-33.8976	-27.3076	5.73446
  57	1	3	0.036519	-33.2759	-26.6276	4.57043
  58	1	5	-0.399533	-30.7442	-26.3692	6.98659
  59	1	5	-0.398173	-34.9879	-27.8568	5.75653
  60	1	3	-0.067442	-31.1772	-25.5355	4.01652
  61	1	3	-0.068422	-33.7718	-26.4439	3.27573
  62	1	3	-0.213282	-32.9465	-25.7862	2.3405
  63	1	3	-0.047343	-31.6518	-25.3382	2.69992
  64	1	6	0.159476	-30.1854	-25.213	4.32268
  65	1	6	0.16033	-34.7589	-26.813	3.00682
  66	1	6	0.171114	-33.3042	-25.6427	1.32343
  67	1	7	-0.06383	-30.7692	-24.6685	1.65381
  68	1	3	0.009736	-30.6003	-25.5275	0.406091
  69	1	3	-0.108991	-30.1349	-26.855	0.528051
  70	1	3	-0.114952	-30.0058	-27.6224	-0.636389
  71	1	3	-0.090153	-30.9156	-25.0044	-0.872685
  72	1	3	-0.148302	-30.775	-25.7937	-2.0337
  73	1	3	-0.073574	-30.3167	-27.1088	-1.88128
  74	1	2	0.475719	-30.0611	-28.1667	-2.89744
  75	1	1	0.026291	-29.6008	-29.2634	-2.18136
  76	1	2	0.472085	-29.5426	-29.024	-0.81478
  77	1	3	-0.022377	-29.1949	-30.4897	-2.77947
  78	1	3	-0.088654	-30.0483	-31.6208	-2.7562
  79	1	3	0.02488	-29.5783	-32.8566	-3.27226
  80	1	3	0.040063	-27.9108	-30.5761	-3.35835
  81	1	3	-0.361597	-27.4816	-31.7884	-3.91378
  82	1	3	0.096629	-28.2992	-32.9254	-3.86978
  83	1	7	-0.018671	-31.4647	-31.499	-2.18228
  84	1	8	-0.317996	-30.3201	-34.0369	-3.16932
  85	1	6	0.16694	-31.0123	-25.401	-3.02054
  86	1	6	0.13386	-31.2713	-23.9818	-0.96614
  87	1	6	0.147907	-29.8889	-27.2816	1.49793
  88	1	5	-0.491298	-29.1606	-29.7742	0.0674239
  89	1	5	-0.47861	-30.2059	-28.0618	-4.10399
  90	1	7	-0.160952	-26.9658	-29.3807	-3.38848
  91	1	9	0.05529	-26.825	-28.9604	-2.38489
  92	1	9	0.069029	-27.3569	-28.5891	-4.03977
  93	1	9	0.053284	-25.9735	-29.6551	-3.76638
  94	1	7	-0.244214	-27.751	-34.2342	-4.42439
  95	1	9	0.063506	-31.2023	-23.6949	1.39198
  96	1	9	0.093434	-29.7783	-24.4502	2.07184
  97	1	6	0.232522	-26.4905	-31.85	-4.35028
  98	1	9	0.020884	-28.4958	-34.7673	-5.02804
  99	1	9	0.114771	-27.4295	-34.8916	-3.60605
 100	1	9	0.181647	-26.8795	-34.0611	-5.06614
 101	1	9	0.069456	-32.1763	-32.1249	-2.73421
 102	1	9	0.029017	-31.8618	-30.4794	-2.24542
 103	1	9	-0.058945	-31.487	-31.7997	-1.12757
 104	1	4	0.329672	-29.9555	-34.8321	-3.67
 105	1	1	0.452895	-27.3629	-23.3431	22.113
 106	1	2	0.074505	-26.4313	-24.0939	21.4014
 107	1	3	0.001656	-27.0735	-24.2991	20.0743
 108	1	2	0.074191	-28.5015	-23.0007	21.3912
 109	1	3	0.036519	-28.2971	-23.6486	20.0708
 110	1	5	-0.399533	-25.328	-24.4792	21.7531
 111	1	5	-0.398173	-29.4604	-22.331	21.7419
 112	1	3	-0.067442	-26.6173	-25.0024	18.9521
 113	1	3	-0.068422	-29.1264	-23.6595	18.946
 114	1	3	-0.213282	-28.6833	-24.3601	17.8056
 115	1	3	-0.047343	-27.438	-25.04	17.801
 116	1	6	0.159476	-25.6504	-25.4984	18.9799
 117	1	6	0.16033	-30.08	-23.1362	18.9606
 118	1	6	0.171114	-29.3159	-24.369	16.9215
 119	1	7	-0.06383	-26.9569	-25.7829	16.5558
 120	1	3	0.009736	-28.0854	-26.3916	15.7303
 121	1	3	-0.108991	-28.5686	-25.7124	14.5903
 122	1	3	-0.114952	-29.6319	-26.2838	13.8792
 123	1	3	-0.090153	-28.6695	-27.6217	16.1201
 124	1	3	-0.148302	-29.7356	-28.1838	15.3854
 125	1	3	-0.073574	-30.2	-27.4846	14.2629
 126	1	2	0.475719	-31.3159	-27.7903	13.3237
 127	1	1	0.026291	-31.3517	-26.7253	12.4335
 128	1	2	0.472085	-30.3666	-25.7816	12.6875
 129	1	3	-0.022377	-32.3325	-26.5911	11.4112
 130	1	3	-0.088654	-32.1831	-27.2574	10.1696
 131	1	3	0.02488	-33.1853	-27.1186	9.17475
 132	1	3	0.040063	-33.4684	-25.793	11.6594
 133	1	3	-0.361597	-34.4472	-25.6584	10.6683
 134	1	3	0.096629	-34.3245	-26.3175	9.43821
 135	1	7	-0.018671	-30.9182	-28.0807	9.8875
 136	1	8	-0.317996	-33.0712	-27.8444	7.98597
 137	1	6	0.16694	-30.196	-29.1238	15.6829
 138	1	6	0.13386	-28.3004	-28.1347	17.0045
 139	1	6	0.147907	-28.1464	-24.7601	14.2767
 140	1	5	-0.491298	-30.1749	-24.7203	12.1191
 141	1	5	-0.47861	-32.0572	-28.7611	13.3631
 142	1	7	-0.160952	-33.6669	-25.0746	12.9888
 143	1	9	0.05529	-34.6443	-24.5798	13.0413
 144	1	9	0.069029	-32.9014	-24.3021	13.1343
 145	1	9	0.053284	-33.6122	-25.7756	13.8309
 146	1	7	-0.244214	-35.4765	-26.1762	8.45468
 147	1	9	0.063506	-26.3725	-25.0934	15.9332
 148	1	9	0.093434	-26.2581	-26.5788	16.8433
 149	1	6	0.232522	-35.3246	-25.0502	10.8628
 150	1	9	0.020884	-36.3491	-25.6918	8.90951
 151	1	9	0.114771	-35.8062	-27.1585	8.09823
 152	1	9	0.181647	-35.185	-25.5777	7.58561
 153	1	9	0.069456	-30.18	-27.4778	9.34385
 154	1	9	0.029017	-31.1267	-28.9707	9.28694
 155	1	9	-0.058945	-30.4318	-28.4469	10.7984
 156	1	4	0.329672	-32.415	-28.6192	7.9662
 157	1	1	0.452895	-21.1217	-18.3255	37.0042
 158	1	2	0.074505	-21.8234	-19.5283	36.9981
 159	1	3	0.001656	-22.7894	-19.3769	35.8798
 160	1	2	0.074191	-21.4991	-17.433	36.0062
 161	1	3	0.036519	-22.5975	-18.1371	35.2909
 162	1	5	-0.399533	-21.6582	-20.5182	37.6941
 163	1	5	-0.398173	-20.9901	-16.3651	35.7055
 164	1	3	-0.067442	-23.756	-20.2718	35.4075
 165	1	3	-0.068422	-23.3597	-17.7297	34.1899
 166	1	3	-0.213282	-24.344	-18.6165	33.7013
 167	1	3	-0.047343	-24.5476	-19.8811	34.305
 168	1	6	0.159476	-23.8887	-21.2359	35.8918
 169	1	6	0.16033	-23.1921	-16.755	33.7365
 170	1	6	0.171114	-24.9559	-18.3205	32.8518
 171	1	7	-0.06383	-25.6484	-20.8014	33.7935
 172	1	3	0.009736	-25.3627	-21.4237	32.4307
 173	1	3	-0.108991	-26.3913	-21.4792	31.4645
 174	1	3	-0.114952	-26.1331	-22.1357	30.2544
 175	1	3	-0.090153	-24.1051	-22.0167	32.1536
 176	1	3	-0.148302	-23.8658	-22.6731	30.9269
 177	1	3	-0.073574	-24.9097	-22.7224	29.9932
 178	1	2	0.475719	-24.9926	-23.396	28.6665
 179	1	1	0.026291	-26.2878	-23.1749	28.2177
 180	1	2	0.472085	-27.0338	-22.4098	29.104
 181	1	3	-0.022377	-26.8295	-23.7392	27.0263
 182	1	3	-0.088654	-26.6908	-23.0771	25.7828
 183	1	3	0.02488	-27.2937	-23.6209	24.6143
 184	1	3	0.040063	-27.5418	-24.9507	27.1113
 185	1	3	-0.361597	-28.1349	-25.4822	25.9618
 186	1	3	0.096629	-28.0377	-24.8325	24.7213
 187	1	7	-0.018671	-25.8896	-21.7654	25.7477
 188	1	8	-0.317996	-27.1457	-22.888	23.4271
 189	1	6	0.16694	-22.9113	-23.1516	30.7159
 190	1	6	0.13386	-23.3181	-21.9876	32.9027
 191	1	6	0.147907	-27.3751	-21.0571	31.6562
 192	1	5	-0.491298	-28.1999	-22.0683	29.0074
 193	1	5	-0.47861	-24.1108	-24.0423	28.1272
 194	1	7	-0.160952	-27.7044	-25.6921	28.4332
 195	1	9	0.05529	-28.289	-25.0987	29.1473
 196	1	9	0.069029	-26.7292	-25.9109	28.8858
 197	1	9	0.053284	-28.2232	-26.6495	28.3028
 198	1	7	-0.244214	-28.7969	-25.4817	23.5691
 199	1	9	0.063506	-25.8278	-21.6082	34.5156
 200	1	9	0.093434	-26.5879	-20.2354	33.7566
 201	1	6	0.232522	-28.6955	-26.4069	26.0465
 202	1	9	0.020884	-28.1199	-25.8273	22.7796
 203	1	9	0.114771	-29.5309	-24.7877	23.143
 204	1	9	0.181647	-29.3633	-26.3589	23.8996
 205	1	9	0.069456	-24.8527	-21.9395	26.0632
 206	1	9	0.029017	-26.3256	-21.0259	26.4315
 207	1	9	-0.058945	-25.8401	-21.2881	24.7625
 208	1	4	0.329672	-26.5359	-22.0844	23.4251
 209	1	1	0.452895	-14.3833	-8.54668	46.3644
 210	1	2	0.074505	-14.4739	-9.63756	45.5057
 211	1	3	0.001656	-14.3492	-9.04025	44.1527
 212	1	2	0.074191	-14.284	-7.31542	45.7241
 213	1	3	0.036519	-14.2403	-7.66548	44.2781
 214	1	5	-0.399533	-14.6119	-10.8204	45.7749
 215	1	5	-0.398173	-14.2752	-6.19842	46.216
 216	1	3	-0.067442	-14.3037	-9.67151	42.9068
 217	1	3	-0.068422	-14.091	-6.84618	43.1536
 218	1	3	-0.213282	-14.0394	-7.46529	41.8847
 219	1	3	-0.047343	-14.1397	-8.87278	41.7499
 220	1	6	0.159476	-14.3838	-10.7533	42.8618
 221	1	6	0.16033	-14.0032	-5.76779	43.2682
 222	1	6	0.171114	-13.9108	-6.84762	40.9986
 223	1	7	-0.06383	-14.0308	-9.49654	40.3576
 224	1	3	0.009736	-14.5789	-10.916	40.2723
 225	1	3	-0.108991	-15.9353	-11.1287	39.9437
 226	1	3	-0.114952	-16.4205	-12.4432	39.9574
 227	1	3	-0.090153	-13.7427	-12.018	40.5806
 228	1	3	-0.148302	-14.2566	-13.3307	40.608
 229	1	3	-0.073574	-15.611	-13.5096	40.2993
 230	1	2	0.475719	-16.443	-14.7428	40.2979
 231	1	1	0.026291	-17.7196	-14.334	39.9328
 232	1	2	0.472085	-17.7888	-12.9658	39.6964
 233	1	3	-0.022377	-18.8376	-15.2179	39.8598
 234	1	3	-0.088654	-18.919	-16.1937	38.8339
 235	1	3	0.02488	-20.005	-17.1065	38.8113
 236	1	3	0.040063	-19.8443	-15.1431	40.8469
 237	1	3	-0.361597	-20.9221	-16.0365	40.8032
 238	1	3	0.096629	-21.0084	-17.0229	39.8107
 239	1	7	-0.018671	-17.8151	-16.2623	37.7673
 240	1	8	-0.317996	-20.0047	-18.1071	37.834
 241	1	6	0.16694	-13.6326	-14.1806	40.8783
 242	1	6	0.13386	-12.7004	-11.8486	40.8388
 243	1	6	0.147907	-16.5993	-10.299	39.7119
 244	1	5	-0.491298	-18.7586	-12.303	39.3712
 245	1	5	-0.47861	-16.0652	-15.8654	40.5895
 246	1	7	-0.160952	-19.7861	-14.1328	41.9879
 247	1	9	0.05529	-20.5068	-14.3724	42.7791
 248	1	9	0.069029	-20.0204	-13.1229	41.6289
 249	1	9	0.053284	-18.7937	-14.1091	42.4548
 250	1	7	-0.244214	-22.1695	-18.0037	39.9016
 251	1	9	0.063506	-14.5558	-8.86278	39.6313
 252	1	9	0.093434	-12.9792	-9.49043	40.044
 253	1	6	0.232522	-21.6909	-15.9743	41.5665
 254	1	9	0.020884	-22.9004	-17.8315	39.1024
 255	1	9	0.114771	-22.703	-17.9144	40.8548
 256	1	9	0.181647	-21.8129	-19.0396	39.8377
 257	1	9	0.069456	-16.9258	-16.7708	38.1609
 258	1	9	0.029017	-17.5115	-15.26	37.4403
 259	1	9	-0.058945	-18.119	-16.7955	36.8587
 260	1	4	0.329672	-19.1959	-18.1245	37.2301
 261	1	1	0.452895	-9.51342	0.805817	59.3531
 262	1	2	0.074505	-9.47477	-0.536016	58.9824
 263	1	3	0.001656	-10.774	-0.759623	58.2962
 264	1	2	0.074191	-10.6847	1.46754	58.9992
 265	1	3	0.036519	-11.49	0.427251	58.3061
 266	1	5	-0.399533	-8.62777	-1.37781	59.2364
 267	1	5	-0.398173	-11.0461	2.59291	59.3034
 268	1	3	-0.067442	-11.3139	-1.93693	57.764
 269	1	3	-0.068422	-12.7843	0.501682	57.78
 270	1	3	-0.213282	-13.3469	-0.674337	57.24
 271	1	3	-0.047343	-12.6211	-1.89116	57.2316
 272	1	6	0.159476	-10.7427	-2.8617	57.7893
 273	1	6	0.16033	-13.3374	1.43804	57.8123
 274	1	6	0.171114	-14.3581	-0.64544	56.84
 275	1	7	-0.06383	-13.2726	-3.16197	56.6995
 276	1	3	0.009736	-12.9799	-3.46495	55.2324
 277	1	3	-0.108991	-12.9644	-4.81108	54.8052
 278	1	3	-0.114952	-12.7486	-5.07697	53.4471
 279	1	3	-0.090153	-12.7783	-2.4268	54.2863
 280	1	3	-0.148302	-12.5591	-2.71734	52.9231
 281	1	3	-0.073574	-12.5529	-4.06169	52.531
 282	1	2	0.475719	-12.3722	-4.67624	51.1866
 283	1	1	0.026291	-12.4783	-6.04523	51.3885
 284	1	2	0.472085	-12.7	-6.37212	52.7193
 285	1	3	-0.022377	-12.354	-7.01566	50.3541
 286	1	3	-0.088654	-13.4704	-7.36789	49.556
 287	1	3	0.02488	-13.3278	-8.35138	48.5438
 288	1	3	0.040063	-11.1058	-7.63696	50.1469
 289	1	3	-0.361597	-10.9827	-8.62578	49.1639
 290	1	3	0.096629	-12.0769	-8.99947	48.3724
 291	1	7	-0.018671	-14.8106	-6.65117	49.7753
 292	1	8	-0.317996	-14.4436	-8.67489	47.7658
 293	1	6	0.16694	-12.4082	-1.92659	52.1907
 294	1	6	0.13386	-12.7984	-1.38823	54.6035
 295	1	6	0.147907	-13.1293	-5.62959	55.5023
 296	1	5	-0.491298	-12.8317	-7.47987	53.2111
 297	1	5	-0.47861	-12.178	-4.08228	50.1399
 298	1	7	-0.160952	-9.8846	-7.27411	50.9827
 299	1	9	0.05529	-8.97766	-7.76739	50.6126
 300	1	9	0.069029	-10.0212	-7.57898	52.0277
 301	1	9	0.053284	-9.69665	-6.19343	50.9616
 302	1	7	-0.244214	-11.8597	-10.1379	47.3857
 303	1	9	0.063506	-12.9515	-4.00987	57.3185
 304	1	9	0.093434	-14.3596	-3.1032	56.8375
 305	1	6	0.232522	-10.0275	-9.12189	49.0234
 306	1	9	0.020884	-10.9282	-10.6805	47.5886
 307	1	9	0.114771	-11.8009	-9.76753	46.3564
 308	1	9	0.181647	-12.6725	-10.8723	47.4505
 309	1	9	0.069456	-14.8002	-5.66537	49.2914
 310	1	9	0.029017	-15.0202	-6.4992	50.8411
 311	1	9	-0.058945	-15.6694	-7.20565	49.3777
 312	1	4	0.329672	-15.3154	-8.25514	48.0551
 313	1	1	0.452895	-7.23105	16.2175	66.02
 314	1	2	0.074505	-7.768	15.0106	66.4596
 315	1	3	0.001656	-7.10882	13.9907	65.6042
 316	1	2	0.074191	-6.36573	16.1009	64.9367
 317	1	3	0.036519	-6.28106	14.6348	64.6986
 318	1	5	-0.399533	-8.58735	14.8071	67.3417
 319	1	5	-0.398173	-5.82349	16.9857	64.2946
 320	1	3	-0.067442	-7.19062	12.5955	65.6593
 321	1	3	-0.068422	-5.50238	13.9142	63.7852
 322	1	3	-0.213282	-5.56783	12.5041	63.8275
 323	1	3	-0.047343	-6.40001	11.8425	64.7633
 324	1	6	0.159476	-7.82418	12.1186	66.4027
 325	1	6	0.16033	-4.84891	14.4357	63.0889
 326	1	6	0.171114	-4.95209	11.9188	63.1473
 327	1	7	-0.06383	-6.38011	10.3223	64.8657
 328	1	3	0.009736	-6.77485	9.57751	63.5947
 329	1	3	-0.108991	-6.16709	8.33295	63.3227
 330	1	3	-0.114952	-6.59462	7.61365	62.2007
 331	1	3	-0.090153	-7.7879	10.0687	62.7323
 332	1	3	-0.148302	-8.20314	9.32687	61.6043
 333	1	3	-0.073574	-7.58748	8.08994	61.3664
 334	1	2	0.475719	-7.8532	7.05476	60.326
 335	1	1	0.026291	-6.99911	6.00155	60.6259
 336	1	2	0.472085	-6.19089	6.26663	61.7222
 337	1	3	-0.022377	-6.98661	4.75294	59.9414
 338	1	3	-0.088654	-7.81592	3.68855	60.376
 339	1	3	0.02488	-7.74357	2.43216	59.7236
 340	1	3	0.040063	-6.09689	4.56558	58.8635
 341	1	3	-0.361597	-6.02192	3.31333	58.2389
 342	1	3	0.096629	-6.82047	2.24341	58.666
 343	1	7	-0.018671	-8.81027	3.90179	61.5279
 344	1	8	-0.317996	-8.5447	1.38886	60.1931
 345	1	6	0.16694	-8.99542	9.68522	60.9498
 346	1	6	0.13386	-8.26907	11.019	62.9496
 347	1	6	0.147907	-5.40731	7.91681	63.9805
 348	1	5	-0.491298	-5.35696	5.54102	62.2364
 349	1	5	-0.47861	-8.68432	7.11861	59.4364
 350	1	7	-0.160952	-5.18647	5.68705	58.3797
 351	1	9	0.05529	-4.61201	5.39099	57.4935
 352	1	9	0.069029	-4.46675	5.97041	59.1578
 353	1	9	0.053284	-5.76708	6.57757	58.1083
 354	1	7	-0.244214	-6.60884	0.892891	57.9968
 355	1	9	0.063506	-5.37172	10.0148	65.1713
 356	1	9	0.093434	-7.03996	9.99198	65.6778
 357	1	6	0.232522	-5.31563	3.16184	57.4286
 358	1	9	0.020884	-5.6821	0.869924	57.4102
 359	1	9	0.114771	-7.43362	0.651606	57.3172
 360	1	9	0.181647	-6.53106	0.0930299	58.7445
 361	1	9	0.069456	-9.78551	4.22077	61.1372
 362	1	9	0.029017	-8.47844	4.66291	62.2429
 363	1	9	-0.058945	-8.96815	2.98994	62.1176
 364	1	4	0.329672	-9.00747	1.56198	61.0742
 365	1	1	0.452895	2.00091	28.2805	68.0671
 366	1	2	0.074505	0.785795	27.6082	68.1783
 367	1	3	0.001656	0.31025	27.4854	66.7737
 368	1	2	0.074191	2.3796	28.5714	66.7608
 369	1	3	0.036519	1.25299	28.0613	65.9373
 370	1	5	-0.399533	0.237608	27.1742	69.1797
 371	1	5	-0.398173	3.42631	29.0519	66.3571
 372	1	3	-0.067442	-0.858985	26.9021	66.2684
 373	1	3	-0.068422	1.0747	28.0932	64.5511
 374	1	3	-0.213282	-0.100806	27.5192	64.0235
 375	1	3	-0.047343	-1.06784	26.9193	64.8676
 376	1	6	0.159476	-1.57207	26.4542	66.9547
 377	1	6	0.16033	1.82523	28.5528	63.9115
 378	1	6	0.171114	-0.262761	27.5399	62.9481
 379	1	7	-0.06383	-2.32242	26.3322	64.2226
 380	1	3	0.009736	-3.15259	25.4183	65.1161
 381	1	3	-0.108991	-2.9553	24.0197	65.0814
 382	1	3	-0.114952	-3.76985	23.2157	65.8913
 383	1	3	-0.090153	-4.14797	25.9724	65.9581
 384	1	3	-0.148302	-4.94919	25.1469	66.7731
 385	1	3	-0.073574	-4.73607	23.7639	66.714
 386	1	2	0.475719	-5.42273	22.6546	67.4286
 387	1	1	0.026291	-4.8214	21.4898	66.9733
 388	1	2	0.472085	-3.81385	21.7354	66.0501
 389	1	3	-0.022377	-5.19342	20.194	67.4308
 390	1	3	-0.088654	-6.20879	19.4579	66.7709
 391	1	3	0.02488	-6.58818	18.1852	67.2683
 392	1	3	0.040063	-4.56116	19.6666	68.5754
 393	1	3	-0.361597	-4.96958	18.4256	69.0787
 394	1	3	0.096629	-5.9833	17.6897	68.4513
 395	1	7	-0.018671	-6.85804	20.0288	65.5021
 396	1	8	-0.317996	-7.57206	17.4616	66.5877
 397	1	6	0.16694	-5.71644	25.5625	67.4237
 398	1	6	0.13386	-4.29763	27.0491	65.9777
 399	1	6	0.147907	-2.20203	23.5682	64.4396
 400	1	5	-0.491298	-3.10261	20.927	65.4794
 401	1	5	-0.47861	-6.32603	22.7679	68.2401
 402	1	7	-0.160952	-3.45672	20.4272	69.299
 403	1	9	0.05529	-3.01403	19.8309	70.1062
 404	1	9	0.069029	-3.84413	21.3509	69.7463
 405	1	9	0.053284	-2.644	20.6931	68.6114
 406	1	7	-0.244214	-6.41575	16.3923	69.1186
 407	1	9	0.063506	-2.95344	27.1558	63.8648
 408	1	9	0.093434	-2.03429	25.779	63.3194
 409	1	6	0.232522	-4.50397	18.0356	69.9785
 410	1	9	0.020884	-6.0821	16.3422	70.1625
 411	1	9	0.114771	-6.00124	15.5205	68.6006
 412	1	9	0.181647	-7.50931	16.3027	69.1328
 413	1	9	0.069456	-6.22449	19.8327	64.6269
 414	1	9	0.029017	-7.00803	21.1129	65.5693
 415	1	9	-0.058945	-7.84829	19.6028	65.2984
 416	1	4	0.329672	-8.06571	17.971	65.8686
 417	1	1	0.452895	10.3286	39.6519	72.1091
 418	1	2	0.074505	10.5874	38.9278	70.9476
 419	1	3	0.001656	11.07	37.6147	71.4473
 420	1	2	0.074191	10.665	38.9948	73.2885
 421	1	3	0.036519	11.128	37.6595	72.8314
 422	1	5	-0.399533	10.4971	39.2838	69.782
 423	1	5	-0.398173	10.5645	39.3835	74.4424
 424	1	3	-0.067442	11.3435	36.4375	70.7429
 425	1	3	-0.068422	11.4966	36.5396	73.5836
 426	1	3	-0.213282	11.7653	35.3396	72.8928
 427	1	3	-0.047343	11.6676	35.2784	71.4813
 428	1	6	0.159476	11.2464	36.4105	69.6605
 429	1	6	0.16033	11.5267	36.5926	74.6692
 430	1	6	0.171114	12.0128	34.4456	73.4593
 431	1	7	-0.06383	11.8193	33.9481	70.7593
 432	1	3	0.009736	10.5244	33.5537	70.0587
 433	1	3	-0.108991	9.41386	33.1341	70.8237
 434	1	3	-0.114952	8.22816	32.8069	70.151
 435	1	3	-0.090153	10.4185	33.6398	68.6487
 436	1	3	-0.148302	9.21468	33.3073	67.991
 437	1	3	-0.073574	8.12933	32.892	68.775
 438	1	2	0.475719	6.75086	32.4843	68.3817
 439	1	1	0.026291	6.10457	32.1642	69.5685
 440	1	2	0.472085	6.91883	32.3381	70.68
 441	1	3	-0.022377	4.76051	31.6949	69.6448
 442	1	3	-0.088654	4.46326	30.3292	69.413
 443	1	3	0.02488	3.11938	29.8825	69.4811
 444	1	3	0.040063	3.7266	32.6025	69.9574
 445	1	3	-0.361597	2.40992	32.1372	70.0789
 446	1	3	0.096629	2.09777	30.7889	69.8572
 447	1	7	-0.018671	5.59588	29.359	69.0494
 448	1	8	-0.317996	2.83462	28.5507	69.1716
 449	1	6	0.16694	9.12228	33.3754	66.9089
 450	1	6	0.13386	11.2724	33.9776	68.0653
 451	1	6	0.147907	9.467	33.0746	71.9081
 452	1	5	-0.491298	6.64584	32.1361	71.851
 453	1	5	-0.47861	6.30548	32.4443	67.2477
 454	1	7	-0.160952	4.00651	34.0837	70.1789
 455	1	9	0.05529	4.57523	34.5086	69.3421
 456	1	9	0.069029	4.58238	34.241	71.0993
 457	1	9	0.053284	3.07981	34.6639	70.2654
 458	1	7	-0.244214	0.653785	30.353	70.0639
 459	1	9	0.063506	12.6433	34.0106	70.0404
 460	1	9	0.093434	12.1063	33.1583	71.464
 461	1	6	0.232522	1.62154	32.834	70.3445
 462	1	9	0.020884	0.114968	30.2966	69.1105
 463	1	9	0.114771	0.112573	31.052	70.7119
 464	1	9	0.181647	0.601553	29.371	70.5519
 465	1	9	0.069456	6.49724	29.5469	69.6455
 466	1	9	0.029017	5.86701	29.4624	67.9909
 467	1	9	-0.058945	5.33494	28.308	69.2237
 468	1	4	0.329672	3.6412	27.9533	69.06
 469	1	1	0.452895	9.13203	51.9456	65.6962
 470	1	2	0.074505	7.92775	51.4406	66.177
 471	1	3	0.001656	7.69563	50.2253	65.3534
 472	1	2	0.074191	9.66923	51.2407	64.6239
 473	1	3	0.036519	8.7215	50.1132	64.4277
 474	1	5	-0.399533	7.17612	51.9204	67.0115
 475	1	5	-0.398173	10.655	51.4997	63.9514
 476	1	3	-0.067442	6.6601	49.2862	65.4154
 477	1	3	-0.068422	8.75857	49.0641	63.5034
 478	1	3	-0.213282	7.72133	48.1085	63.5476
 479	1	3	-0.047343	6.67728	48.2113	64.4993
 480	1	6	0.159476	5.87494	49.3897	66.1597
 481	1	6	0.16033	9.57032	48.9957	62.7824
 482	1	6	0.171114	7.73437	47.2775	62.8473
 483	1	7	-0.06383	5.57334	47.1645	64.5304
 484	1	3	0.009736	6.03114	45.86	65.1684
 485	1	3	-0.108991	6.04341	45.7312	66.5745
 486	1	3	-0.114952	6.43872	44.5039	67.1238
 487	1	3	-0.090153	6.42416	44.7683	64.3552
 488	1	3	-0.148302	6.81887	43.5417	64.9288
 489	1	3	-0.073574	6.81108	43.4388	66.3256
 490	1	2	0.475719	7.13869	42.286	67.209
 491	1	1	0.026291	6.9405	42.7446	68.5042
 492	1	2	0.472085	6.52179	44.0674	68.5432
 493	1	3	-0.022377	7.09653	41.9359	69.6654
 494	1	3	-0.088654	8.34338	41.8737	70.3342
 495	1	3	0.02488	8.47988	41.0508	71.4807
 496	1	3	0.040063	5.99504	41.1916	70.1366
 497	1	3	-0.361597	6.13402	40.4067	71.2878
 498	1	3	0.096629	7.35638	40.337	71.9685
 499	1	7	-0.018671	9.53059	42.6669	69.7719
 500	1	8	-0.317996	9.72763	40.9256	72.0953
 501	1	6	0.16694	7.11224	42.6934	64.3135
 502	1	6	0.13386	6.41449	44.8701	63.2736
 503	1	6	0.147907	5.74781	46.5539	67.2216
 504	1	5	-0.491298	6.23284	44.7355	69.5209
 505	1	5	-0.47861	7.47108	41.1709	66.8456
 506	1	7	-0.160952	4.64909	41.2175	69.4228
 507	1	9	0.05529	4.74002	40.8246	68.4024
 508	1	9	0.069029	4.25182	42.2383	69.364
 509	1	9	0.053284	3.90122	40.6061	69.9422
 510	1	7	-0.244214	7.40801	39.4912	73.2339
 511	1	9	0.063506	4.70232	47.5508	65.0753
 512	1	9	0.093434	5.21455	46.9796	63.51
 513	1	6	0.232522	5.28416	39.8397	71.653
 514	1	9	0.020884	7.82368	38.4971	73.029
 515	1	9	0.114771	6.41032	39.3509	73.6646
 516	1	9	0.181647	8.01908	39.9719	74.0087
 517	1	9	0.069456	9.28019	43.7314	69.6778
 518	1	9	0.029017	9.80349	42.2973	68.7753
 519	1	9	-0.058945	10.433	42.6122	70.3906
 520	1	4	0.329672	10.4535	41.5866	71.8392
 521	1	1	0.452895	13.8027	41.5208	70.6441
 522	1	2	0.074505	13.2693	42.3228	71.6474
 523	1	3	0.001656	14.0977	43.5544	71.6053
 524	1	2	0.074191	14.8373	42.1093	69.9241
 525	1	3	0.036519	15.025	43.4295	70.5828
 526	1	5	-0.399533	12.335	42.0909	72.3975
 527	1	5	-0.398173	15.4572	41.667	68.9706
 528	1	3	-0.067442	14.0571	44.6878	72.4254
 529	1	3	-0.068422	15.9575	44.4385	70.3194
 530	1	3	-0.213282	15.9363	45.588	71.138
 531	1	3	-0.047343	14.997	45.7154	72.1905
 532	1	6	0.159476	13.3248	44.7564	73.2258
 533	1	6	0.16033	16.6774	44.3241	69.512
 534	1	6	0.171114	16.6529	46.385	70.9545
 535	1	7	-0.06383	15.0178	46.9499	73.0807
 536	1	3	0.009736	14.7416	48.2288	72.3041
 537	1	3	-0.108991	13.4365	48.4936	71.8372
 538	1	3	-0.114952	13.2124	49.6903	71.1447
 539	1	3	-0.090153	15.7835	49.158	72.0616
 540	1	3	-0.148302	15.5354	50.3586	71.3645
 541	1	3	-0.073574	14.2294	50.599	70.9191
 542	1	2	0.475719	13.6556	51.7712	70.2029
 543	1	1	0.026291	12.3069	51.4836	70.048
 544	1	2	0.472085	11.9581	50.2472	70.5727
 545	1	3	-0.022377	11.3691	52.3781	69.4627
 546	1	3	-0.088654	11.0732	52.3133	68.0783
 547	1	3	0.02488	10.0856	53.1786	67.5394
 548	1	3	0.040063	10.7174	53.3159	70.2912
 549	1	3	-0.361597	9.76447	54.1814	69.7401
 550	1	3	0.096629	9.44277	54.1182	68.3785
 551	1	7	-0.018671	11.8221	51.3235	67.1776
 552	1	8	-0.317996	9.70875	53.1298	66.1948
 553	1	6	0.16694	16.3248	51.0853	71.1822
 554	1	6	0.13386	16.7871	48.9515	72.4229
 555	1	6	0.147907	12.6197	47.7972	72.0125
 556	1	5	-0.491298	10.8541	49.7318	70.6163
 557	1	5	-0.47861	14.2508	52.7882	69.8877
 558	1	7	-0.160952	11.0188	53.4065	71.7823
 559	1	9	0.05529	10.436	54.1977	72.2691
 560	1	9	0.069029	12.079	53.629	71.9565
 561	1	9	0.053284	10.7786	52.4642	72.2904
 562	1	7	-0.244214	8.34766	55.0404	67.8571
 563	1	9	0.063506	14.2777	46.8521	73.8853
 564	1	9	0.093434	15.9894	47.0143	73.5866
 565	1	6	0.232522	9.25515	54.8916	70.3833
 566	1	9	0.020884	8.58325	55.4485	66.8668
 567	1	9	0.114771	8.19238	55.8941	68.5275
 568	1	9	0.181647	7.39624	54.4946	67.7946
 569	1	9	0.069456	12.0759	51.7784	66.2122
 570	1	9	0.029017	11.2148	50.4299	66.9879
 571	1	9	-0.058945	12.772	50.9844	67.6062
 572	1	4	0.329672	9.131	53.8885	65.8683
 573	1	1	0.452895	20.7441	28.6028	61.9424
 574	1	2	0.074505	19.7909	29.4287	61.3546
 575	1	3	0.001656	19.1295	30.0955	62.5063
 576	1	2	0.074191	20.8134	28.6982	63.3279
 577	1	3	0.036519	19.7373	29.6654	63.6753
 578	1	5	-0.399533	19.5326	29.5777	60.1715
 579	1	5	-0.398173	21.5849	28.1441	64.0941
 580	1	3	-0.067442	18.0572	30.9957	62.5239
 581	1	3	-0.068422	19.3071	30.1191	64.9268
 582	1	3	-0.213282	18.2231	31.0227	64.9663
 583	1	3	-0.047343	17.5963	31.4659	63.7743
 584	1	6	0.159476	17.5931	31.3056	61.5905
 585	1	6	0.16033	19.7939	29.7703	65.8353
 586	1	6	0.171114	17.8666	31.381	65.9297
 587	1	7	-0.06383	16.4073	32.4225	63.8352
 588	1	3	0.009736	16.5978	33.5804	64.8099
 589	1	3	-0.108991	15.594	33.8834	65.7583
 590	1	3	-0.114952	15.8155	34.949	66.6428
 591	1	3	-0.090153	17.782	34.3564	64.7634
 592	1	3	-0.148302	17.9897	35.4173	65.6679
 593	1	3	-0.073574	16.983	35.6877	66.6031
 594	1	2	0.475719	16.93	36.703	67.6885
 595	1	1	0.026291	15.7136	36.5029	68.3273
 596	1	2	0.472085	14.9715	35.4811	67.749
 597	1	3	-0.022377	15.3183	37.2332	69.4852
 598	1	3	-0.088654	14.4327	38.3321	69.3751
 599	1	3	0.02488	14.1514	39.1226	70.5184
 600	1	3	0.040063	15.8766	36.8919	70.7351
 601	1	3	-0.361597	15.5616	37.6572	71.8645
 602	1	3	0.096629	14.7127	38.7679	71.7711
 603	1	7	-0.018671	13.8227	38.6619	68.0052
 604	1	8	-0.317996	13.3119	40.2286	70.3779
 605	1	6	0.16694	18.9038	36.0082	65.6494
 606	1	6	0.13386	18.5496	34.1235	64.0295
 607	1	6	0.147907	14.6734	33.3073	65.8134
 608	1	5	-0.491298	13.8667	35.0766	68.071
 609	1	5	-0.47861	17.8139	37.4901	67.9814
 610	1	7	-0.160952	16.8295	35.7127	70.892
 611	1	9	0.05529	17.0283	35.4891	71.9472
 612	1	9	0.069029	17.7948	35.9245	70.4152
 613	1	9	0.053284	16.4151	34.803	70.4404
 614	1	7	-0.244214	14.4232	39.532	73.0556
 615	1	9	0.063506	16.2056	32.8357	62.8387
 616	1	9	0.093434	15.5106	31.8496	64.1034
 617	1	6	0.232522	15.9932	37.3937	72.8252
 618	1	9	0.020884	14.6967	38.95	73.9443
 619	1	9	0.114771	13.3592	39.7721	73.1516
 620	1	9	0.181647	14.9915	40.4675	73.0933
 621	1	9	0.069456	13.1897	37.8365	67.6555
 622	1	9	0.029017	14.608	38.8245	67.2565
 623	1	9	-0.058945	13.1947	39.5598	67.9999
 624	1	4	0.329672	12.7782	40.2731	69.5171
 625	1	1	0.452895	25.1434	17.6959	54.2462
 626	1	2	0.074505	25.657	17.2841	55.4759
 627	1	3	0.001656	26.4127	18.4646	55.9696
 628	1	2	0.074191	25.548	18.9711	53.8623
 629	1	3	0.036519	26.3583	19.4589	55.0074
 630	1	5	-0.399533	25.596	16.1886	56.0116
 631	1	5	-0.398173	25.4057	19.5255	52.7861
 632	1	3	-0.067442	27.0873	18.6545	57.1821
 633	1	3	-0.068422	27.0096	20.6833	55.1891
 634	1	3	-0.213282	27.7158	20.8844	56.3909
 635	1	3	-0.047343	27.7362	19.8902	57.3995
 636	1	6	0.159476	27.0883	17.8706	57.9345
 637	1	6	0.16033	26.9561	21.4606	54.433
 638	1	6	0.171114	28.2181	21.8354	56.554
 639	1	7	-0.06383	28.4107	20.1801	58.736
 640	1	3	0.009736	27.4542	20.8251	59.7367
 641	1	3	-0.108991	26.6176	21.8854	59.3262
 642	1	3	-0.114952	25.7244	22.427	60.2525
 643	1	3	-0.090153	27.3818	20.3586	61.0741
 644	1	3	-0.148302	26.4734	20.9261	61.9965
 645	1	3	-0.073574	25.6464	21.9668	61.5508
 646	1	2	0.475719	24.5379	22.6982	62.2315
 647	1	1	0.026291	23.9927	23.5294	61.258
 648	1	2	0.472085	24.6766	23.4527	60.0538