pySIMM System Object

938 atoms
1027 bonds
1782 angles
2624 dihedrals
288 impropers

9 atom types
12 bond types
20 angle types
8 dihedral types
4 improper types

-145.625570 145.625570 xlo xhi
-145.625570 145.625570 ylo yhi
-145.625570 145.625570 zlo zhi

Masses

   1	14.01	# n
   2	12.01	# c
   3	12.01	# ca
   4	1.008	# hn
   5	16.0	# o
   6	1.008	# ha
   7	12.01	# c3
   8	14.01	# nh
   9	1.008	# hc

Pair Coeffs

   1	0.17	3.249998523775958	# n
   2	0.086	3.3996695084235347	# c
   3	0.086	3.3996695084235347	# ca
   4	0.0157	1.069078461768407	# hn
   5	0.21	2.959921901149463	# o
   6	0.015	2.59964245953351	# ha
   7	0.1094	3.3996695084235347	# c3
   8	0.17	3.249998523775958	# nh
   9	0.0157	2.649532787749369	# hc

Bond Coeffs

   1	384.2	1.4121	# ca,n
   2	404.6	1.0121	# hn,nh
   3	403.2	1.0129	# hn,n
   4	417.9	1.3859	# ca,nh
   5	461.1	1.3984	# ca,ca
   6	427.6	1.3789	# c,n
   7	345.9	1.4906	# c,ca
   8	345.8	1.086	# ca,ha
   9	321.0	1.5156	# c3,ca
  10	330.6	1.0969	# c3,hc
  11	637.7	1.2183	# c,o
  12	452.5	1.4016	# n,nh

Angle Coeffs

   1	63.53	120.77	# c3,ca,ca
   2	39.4	107.58	# hc,c3,hc
   3	66.62	120.02	# ca,ca,ca
   4	48.42	116.07	# ca,nh,hn
   5	48.18	119.88	# ca,ca,ha
   6	63.74	127.08	# c,n,c
   7	67.87	120.19	# ca,ca,n
   8	40.07	115.12	# hn,nh,hn
   9	68.72	122.6	# ca,c,o
  10	48.33	117.55	# c,n,hn
  11	64.28	120.33	# c,ca,ca
  12	67.68	115.25	# ca,c,n
  13	63.56	112.24	# ca,c3,ca
  14	74.22	123.05	# n,c,o
  15	63.82	123.71	# c,n,ca
  16	46.8	110.47	# ca,c3,hc
  17	68.29	120.95	# ca,ca,nh
  18	67.01	118.71	# c,n,nh
  19	67.61	116.03	# ca,nh,n
  20	50.88	108.17	# hn,nh,n

Dihedral Coeffs

   1	1	3.625	2	180	# X,ca,ca,X
   2	1	1.0	2	180	# X,c,ca,X
   3	1	0.0	2	0	# X,c3,ca,X
   4	1	2.5	2	180	# X,c,n,X
   5	1	1.05	2	180	# X,ca,nh,X
   6	1	0.45	2	180	# X,ca,n,X
   7	2	2.5	2	180	2.0	1	0	# hn,n,c,o
   8	1	1.1	2	0	# X,n,nh,X

Improper Coeffs

   1	1.1	-1	2	# ca,X,X,ha
   2	10.5	-1	2	# c,X,X,o
   3	1.1	-1	2	# ca,ca,ca,c3
   4	1.1	-1	2	# n,X,X,hn

Atoms

   1	1	1	0.452895	10.6802	56.2408	-9.39024
   2	1	2	0.074505	11.5204	55.2867	-8.82209
   3	1	3	0.001656	12.3686	54.8309	-9.95582
   4	1	2	0.074191	10.9266	56.4968	-10.7364
   5	1	3	0.036519	12.0142	55.5469	-11.0883
   6	1	5	-0.399533	11.6183	54.9557	-7.65064
   7	1	5	-0.398173	10.4305	57.3458	-11.4609
   8	1	3	-0.067442	13.3837	53.8661	-9.98757
   9	1	3	-0.068422	12.6532	55.3347	-12.3141
  10	1	3	-0.213282	13.6785	54.367	-12.3661
  11	1	3	-0.047343	14.0486	53.6318	-11.2127
  12	1	6	0.159476	13.643	53.3211	-9.08418
  13	1	6	0.16033	12.3605	55.9055	-13.1926
  14	1	6	0.171114	14.1878	54.1882	-13.3093
  15	1	7	-0.06383	15.1751	52.6072	-11.2942
  16	1	3	0.009736	14.7583	51.3403	-12.0306
  17	1	3	-0.108991	14.8708	51.2788	-13.4358
  18	1	3	-0.114952	14.4424	50.115	-14.0857
  19	1	3	-0.090153	14.242	50.2306	-11.3165
  20	1	3	-0.148302	13.8263	49.0622	-11.9913
  21	1	3	-0.073574	13.9326	49.0368	-13.3885
  22	1	2	0.475719	13.5077	48.0031	-14.3756
  23	1	1	0.026291	13.7578	48.562	-15.6256
  24	1	2	0.472085	14.3602	49.8112	-15.5366
  25	1	3	-0.022377	13.3512	47.9806	-16.8632
  26	1	3	-0.088654	13.9868	46.8148	-17.3625
  27	1	3	0.02488	13.5441	46.2492	-18.5829
  28	1	3	0.040063	12.3052	48.5888	-17.6001
  29	1	3	-0.361597	11.9011	48.0286	-18.8192
  30	1	3	0.096629	12.4996	46.8609	-19.307
  31	1	7	-0.018671	15.1407	46.174	-16.5814
  32	1	8	-0.317996	14.135	45.0924	-19.0816
  33	1	6	0.16694	13.4068	48.2148	-11.4531
  34	1	6	0.13386	14.1461	50.2826	-10.2353
  35	1	6	0.147907	15.2535	52.117	-14.0119
  36	1	5	-0.491298	14.7097	50.5494	-16.4427
  37	1	5	-0.47861	13.0705	46.8929	-14.1128
  38	1	7	-0.160952	11.5825	49.8496	-17.1321
  39	1	9	0.05529	10.5406	49.8597	-17.4737
  40	1	9	0.069029	12.0735	50.7464	-17.5293
  41	1	9	0.053284	11.5541	49.9418	-16.0407
  42	1	7	-0.244214	11.9957	46.272	-20.6148
  43	1	9	0.063506	16.0398	53.0578	-11.798
  44	1	9	0.093434	15.5301	52.352	-10.2878
  45	1	6	0.232522	11.1016	48.4969	-19.3829
  46	1	9	0.020884	11.2608	46.9215	-21.1056
  47	1	9	0.114771	11.5234	45.2984	-20.4369
  48	1	9	0.181647	12.8288	46.1195	-21.3109
  49	1	9	0.069456	14.7576	45.5727	-15.7471
  50	1	9	0.029017	15.8137	46.9349	-16.1678
  51	1	9	-0.058945	15.7657	45.5179	-17.2002
  52	1	4	0.329672	14.8418	44.626	-18.5266
  53	1	1	0.452895	8.93482	46.2173	-14.2306
  54	1	2	0.074505	7.63713	46.0035	-13.7727
  55	1	3	0.001656	7.04937	47.3677	-13.6976
  56	1	2	0.074191	9.26801	47.5597	-14.3953
  57	1	3	0.036519	8.01437	48.2859	-14.077
  58	1	5	-0.399533	7.08716	44.9514	-13.49
  59	1	5	-0.398173	10.3258	48.0585	-14.74
  60	1	3	-0.067442	5.75872	47.7718	-13.3358
  61	1	3	-0.068422	7.73626	49.6542	-14.1459
  62	1	3	-0.213282	6.43558	50.0788	-13.8066
  63	1	3	-0.047343	5.45143	49.1507	-13.3806
  64	1	6	0.159476	5.02445	47.0316	-13.029
  65	1	6	0.16033	8.50626	50.3588	-14.453
  66	1	6	0.171114	6.19807	51.14	-13.8467
  67	1	7	-0.06383	4.07131	49.6429	-12.9488
  68	1	3	0.009736	4.12192	50.8417	-12.0033
  69	1	3	-0.108991	5.17575	50.9714	-11.071
  70	1	3	-0.114952	5.23888	52.135	-10.2981
  71	1	3	-0.090153	3.13502	51.8552	-12.0911
  72	1	3	-0.148302	3.20445	53.0109	-11.2834
  73	1	3	-0.073574	4.28376	53.1282	-10.3975
  74	1	2	0.475719	4.69501	54.2551	-9.51357
  75	1	1	0.026291	5.91525	53.8701	-8.97426
  76	1	2	0.472085	6.29715	52.5956	-9.3649
  77	1	3	-0.022377	6.75605	54.7206	-8.20554
  78	1	3	-0.088654	7.73985	55.512	-8.84879
  79	1	3	0.02488	8.66323	56.2481	-8.06291
  80	1	3	0.040063	6.65164	54.7106	-6.8
  81	1	3	-0.361597	7.52915	55.4928	-6.03705
  82	1	3	0.096629	8.53338	56.2524	-6.65471
  83	1	7	-0.018671	7.79581	55.5706	-10.3804
  84	1	8	-0.317996	9.72613	56.9547	-8.63476
  85	1	6	0.16694	2.46837	53.8079	-11.3678
  86	1	6	0.13386	2.32451	51.7571	-12.8084
  87	1	6	0.147907	5.95899	50.2212	-10.9865
  88	1	5	-0.491298	7.3186	51.9936	-9.08055
  89	1	5	-0.47861	4.11432	55.3186	-9.37661
  90	1	7	-0.160952	5.61065	53.8552	-6.08931
  91	1	9	0.05529	5.75129	52.792	-6.32161
  92	1	9	0.069029	4.59545	54.1401	-6.39278
  93	1	9	0.053284	5.66946	53.9618	-4.99941
  94	1	7	-0.244214	9.49948	57.0307	-5.77052
  95	1	9	0.063506	3.49735	49.9018	-13.8477
  96	1	9	0.093434	3.51434	48.8331	-12.4609
  97	1	6	0.232522	7.44955	55.4763	-4.95515
  98	1	9	0.020884	9.69855	58.0347	-6.16491
  99	1	9	0.114771	10.4538	56.4954	-5.68225
 100	1	9	0.181647	9.09907	57.1564	-4.75797
 101	1	9	0.069456	8.06192	56.5752	-10.7296
 102	1	9	0.029017	6.83426	55.3494	-10.8555
 103	1	9	-0.058945	8.53039	54.8576	-10.7742
 104	1	4	0.329672	10.2472	57.5532	-8.01312
 105	1	1	0.452895	7.89004	30.0255	-18.9602
 106	1	2	0.074505	8.07759	30.2235	-17.5933
 107	1	3	0.001656	7.77542	31.6682	-17.3897
 108	1	2	0.074191	7.44907	31.1529	-19.6462
 109	1	3	0.036519	7.39063	32.2125	-18.6048
 110	1	5	-0.399533	8.40654	29.4155	-16.7399
 111	1	5	-0.398173	7.16131	31.2661	-20.8271
 112	1	3	-0.067442	7.83921	32.4494	-16.2271
 113	1	3	-0.068422	7.02589	33.5583	-18.7184
 114	1	3	-0.213282	7.07692	34.3584	-17.5577
 115	1	3	-0.047343	7.49279	33.8185	-16.3159
 116	1	6	0.159476	8.14894	31.9985	-15.2878
 117	1	6	0.16033	6.71441	33.965	-19.678
 118	1	6	0.171114	6.79595	35.407	-17.6242
 119	1	7	-0.06383	7.53566	34.7101	-15.0776
 120	1	3	0.009736	8.32322	35.9996	-15.2911
 121	1	3	-0.108991	7.64617	37.2289	-15.4623
 122	1	3	-0.114952	8.4112	38.3905	-15.6426
 123	1	3	-0.090153	9.73918	35.9673	-15.3071
 124	1	3	-0.148302	10.4903	37.1483	-15.487
 125	1	3	-0.073574	9.79242	38.3521	-15.6512
 126	1	2	0.475719	10.295	39.737	-15.8672
 127	1	1	0.026291	9.16324	40.5337	-15.9784
 128	1	2	0.472085	7.98759	39.802	-15.8574
 129	1	3	-0.022377	9.21286	41.9321	-16.2571
 130	1	3	-0.088654	9.46777	42.8687	-15.223
 131	1	3	0.02488	9.54952	44.2534	-15.5284
 132	1	3	0.040063	9.03839	42.3715	-17.586
 133	1	3	-0.361597	9.12132	43.7378	-17.8771
 134	1	3	0.096629	9.38427	44.6772	-16.872
 135	1	7	-0.018671	9.64139	42.3568	-13.7866
 136	1	8	-0.317996	9.83041	45.163	-14.5015
 137	1	6	0.16694	11.5784	37.1332	-15.5011
 138	1	6	0.13386	10.2562	35.0197	-15.1796
 139	1	6	0.147907	6.56009	37.2842	-15.4554
 140	1	5	-0.491298	6.83963	40.2003	-15.9526
 141	1	5	-0.47861	11.4641	40.0757	-15.9441
 142	1	7	-0.160952	8.77785	41.3971	-18.7283
 143	1	9	0.05529	8.85605	41.8891	-19.7055
 144	1	9	0.069029	7.76953	40.9707	-18.654
 145	1	9	0.053284	9.50131	40.5727	-18.7246
 146	1	7	-0.244214	9.53176	46.1265	-17.3058
 147	1	9	0.063506	6.50873	34.9462	-14.7708
 148	1	9	0.093434	7.9715	34.1632	-14.2318
 149	1	6	0.232522	9.002	44.0735	-18.9019
 150	1	9	0.020884	9.61719	46.2207	-18.3948
 151	1	9	0.114771	10.4386	46.5665	-16.874
 152	1	9	0.181647	8.67043	46.7266	-16.9976
 153	1	9	0.069456	10.5268	41.7137	-13.7071
 154	1	9	0.029017	8.76913	41.7663	-13.4783
 155	1	9	-0.058945	9.75965	43.1521	-13.0415
 156	1	4	0.329672	10.0974	44.7661	-13.6127
 157	1	1	0.452895	15.3593	15.1124	-22.5811
 158	1	2	0.074505	15.2773	16.3901	-23.136
 159	1	3	0.001656	13.8263	16.7279	-23.0849
 160	1	2	0.074191	14.133	14.5876	-22.1843
 161	1	3	0.036519	13.1493	15.6528	-22.5315
 162	1	5	-0.399533	16.1825	17.1137	-23.5201
 163	1	5	-0.398173	13.9091	13.5522	-21.5785
 164	1	3	-0.067442	13.1543	17.9012	-23.4659
 165	1	3	-0.068422	11.7623	15.6892	-22.3449
 166	1	3	-0.213282	11.0662	16.8533	-22.7406
 167	1	3	-0.047343	11.7512	17.9659	-23.2914
 168	1	6	0.159476	13.7086	18.7321	-23.8948
 169	1	6	0.16033	11.2463	14.8343	-21.9128
 170	1	6	0.171114	9.9854	16.889	-22.6237
 171	1	7	-0.06383	10.9616	19.1855	-23.7787
 172	1	3	0.009736	10.7508	20.3139	-22.7629
 173	1	3	-0.108991	10.7428	21.6588	-23.2082
 174	1	3	-0.114952	10.4865	22.6787	-22.2766
 175	1	3	-0.090153	10.492	20.0346	-21.397
 176	1	3	-0.148302	10.2423	21.0744	-20.4746
 177	1	3	-0.073574	10.2465	22.394	-20.947
 178	1	2	0.475719	10.0601	23.6819	-20.2198
 179	1	1	0.026291	10.2213	24.6821	-21.1706
 180	1	2	0.472085	10.4504	24.1619	-22.4417
 181	1	3	-0.022377	10.2833	26.0731	-20.8366
 182	1	3	-0.088654	9.12277	26.8021	-20.463
 183	1	3	0.02488	9.22901	28.1529	-20.0229
 184	1	3	0.040063	11.5443	26.7047	-20.8046
 185	1	3	-0.361597	11.6374	28.0471	-20.4218
 186	1	3	0.096629	10.5074	28.7809	-20.0307
 187	1	7	-0.018671	7.74932	26.1168	-20.5117
 188	1	8	-0.317996	8.04175	28.7751	-19.5955
 189	1	6	0.16694	10.0548	20.866	-19.4231
 190	1	6	0.13386	10.4832	19.0068	-21.0462
 191	1	6	0.147907	10.9273	21.9094	-24.2504
 192	1	5	-0.491298	10.6453	24.7713	-23.4795
 193	1	5	-0.47861	9.85627	23.8101	-19.0244
 194	1	7	-0.160952	12.8299	25.9701	-21.1702
 195	1	9	0.05529	12.9004	25.8247	-22.2554
 196	1	9	0.069029	12.8859	24.9873	-20.6871
 197	1	9	0.053284	13.7195	26.5301	-20.8575
 198	1	7	-0.244214	10.7576	30.2359	-19.6476
 199	1	9	0.063506	11.4573	19.5895	-24.6706
 200	1	9	0.093434	9.97675	18.8555	-24.1333
 201	1	6	0.232522	12.6147	28.5175	-20.4148
 202	1	9	0.020884	10.5849	30.4063	-18.5788
 203	1	9	0.114771	10.1271	30.9151	-20.2324
 204	1	9	0.181647	11.7926	30.5341	-19.8461
 205	1	9	0.069456	7.49148	25.6932	-19.5327
 206	1	9	0.029017	7.71303	25.3042	-21.247
 207	1	9	-0.058945	6.95006	26.812	-20.7993
 208	1	4	0.329672	7.18225	28.2482	-19.5735
 209	1	1	0.452895	23.856	0.836245	-16.2822
 210	1	2	0.074505	23.0962	0.897504	-17.4477
 211	1	3	0.001656	22.6728	2.32009	-17.5367
 212	1	2	0.074191	23.9778	2.05294	-15.6159
 213	1	3	0.036519	23.1935	3.00745	-16.4531
 214	1	5	-0.399533	22.7702	-0.0102168	-18.1958
 215	1	5	-0.398173	24.4892	2.27565	-14.5307
 216	1	3	-0.067442	21.8028	2.93444	-18.4457
 217	1	3	-0.068422	22.874	4.35447	-16.2329
 218	1	3	-0.213282	21.99	4.99045	-17.1364
 219	1	3	-0.047343	21.4502	4.2893	-18.244
 220	1	6	0.159476	21.3666	2.34913	-19.2515
 221	1	6	0.16033	23.2649	4.87285	-15.3599
 222	1	6	0.171114	21.6888	6.01938	-16.9511
 223	1	7	-0.06383	20.3573	4.89775	-19.127
 224	1	3	0.009736	20.4879	6.35324	-19.5854
 225	1	3	-0.108991	19.3053	7.02749	-19.9661
 226	1	3	-0.114952	19.4037	8.31545	-20.5084
 227	1	3	-0.090153	21.7398	6.99706	-19.7596
 228	1	3	-0.148302	21.8171	8.30217	-20.3017
 229	1	3	-0.073574	20.6231	8.94005	-20.6761
 230	1	2	0.475719	20.3817	10.2368	-21.3808
 231	1	1	0.026291	19.0125	10.2856	-21.6228
 232	1	2	0.472085	18.3495	9.18266	-21.1002
 233	1	3	-0.022377	18.3691	11.2449	-22.4669
 234	1	3	-0.088654	17.7928	12.4302	-21.9418
 235	1	3	0.02488	17.0999	13.3314	-22.8004
 236	1	3	0.040063	18.2764	10.9694	-23.8466
 237	1	3	-0.361597	17.5998	11.8619	-24.6874
 238	1	3	0.096629	17.011	13.0335	-24.1869
 239	1	7	-0.018671	17.9606	12.7283	-20.4455
 240	1	8	-0.317996	16.5945	14.5149	-22.2392
 241	1	6	0.16694	22.7767	8.78762	-20.4688
 242	1	6	0.13386	22.6571	6.47105	-19.5078
 243	1	6	0.147907	18.3332	6.5448	-19.8937
 244	1	5	-0.491298	17.1676	8.90268	-21.1986
 245	1	5	-0.47861	21.2344	11.0285	-21.7458
 246	1	7	-0.160952	18.9151	9.72557	-24.4564
 247	1	9	0.05529	18.7203	9.65212	-25.533
 248	1	9	0.069029	18.5267	8.80992	-23.9936
 249	1	9	0.053284	20.0044	9.74066	-24.3235
 250	1	7	-0.244214	16.3479	13.9585	-25.1998
 251	1	9	0.063506	20.243	4.28259	-20.0286
 252	1	9	0.093434	19.407	4.78653	-18.5891
 253	1	6	0.232522	17.5382	11.6401	-25.7478
 254	1	9	0.020884	15.2622	14.002	-25.051
 255	1	9	0.114771	16.5151	13.6208	-26.2292
 256	1	9	0.181647	16.7589	14.9737	-25.1298
 257	1	9	0.069456	18.9854	13.062	-20.2362
 258	1	9	0.029017	17.7693	11.8374	-19.835
 259	1	9	-0.058945	17.2813	13.5033	-20.0716
 260	1	4	0.329672	16.7123	14.617	-21.2421
 261	1	1	0.452895	26.9423	-7.75056	-4.08098
 262	1	2	0.074505	27.467	-6.86694	-5.02108
 263	1	3	0.001656	27.5863	-7.68259	-6.25787
 264	1	2	0.074191	26.7582	-9.04652	-4.55214
 265	1	3	0.036519	27.1711	-8.97366	-5.9797
 266	1	5	-0.399533	27.7902	-5.69774	-4.88194
 267	1	5	-0.398173	26.4118	-10.04	-3.93385
 268	1	3	-0.067442	28.0549	-7.31682	-7.5249
 269	1	3	-0.068422	27.2011	-9.96974	-6.96055
 270	1	3	-0.213282	27.6851	-9.62353	-8.24138
 271	1	3	-0.047343	28.1199	-8.30565	-8.53651
 272	1	6	0.159476	28.3717	-6.29385	-7.6872
 273	1	6	0.16033	26.8762	-10.9812	-6.72502
 274	1	6	0.171114	27.7418	-10.3943	-9.00681
 275	1	7	-0.06383	28.7389	-8.03526	-9.91326
 276	1	3	0.009736	28.6394	-6.60971	-10.4592
 277	1	3	-0.108991	27.8402	-6.33836	-11.5949
 278	1	3	-0.114952	27.8457	-5.03654	-12.1204
 279	1	3	-0.090153	29.4387	-5.57732	-9.90682
 280	1	3	-0.148302	29.3985	-4.2665	-10.4236
 281	1	3	-0.073574	28.5858	-4.02571	-11.5378
 282	1	2	0.475719	28.3985	-2.78556	-12.3394
 283	1	1	0.026291	27.5759	-3.14487	-13.399
 284	1	2	0.472085	27.1877	-4.47876	-13.3358
 285	1	3	-0.022377	27.2325	-2.26258	-14.4687
 286	1	3	-0.088654	25.9374	-1.69121	-14.5577
 287	1	3	0.02488	25.5992	-0.853591	-15.6567
 288	1	3	0.040063	28.1967	-1.98141	-15.4589
 289	1	3	-0.361597	27.8606	-1.14768	-16.5321
 290	1	3	0.096629	26.5778	-0.594529	-16.655
 291	1	7	-0.018671	24.8992	-2.02132	-13.4743
 292	1	8	-0.317996	24.2763	-0.391945	-15.7283
 293	1	6	0.16694	30.0029	-3.46867	-9.996
 294	1	6	0.13386	30.1007	-5.79581	-9.07282
 295	1	6	0.147907	27.2587	-7.11967	-12.0792
 296	1	5	-0.491298	26.4989	-5.09859	-14.1279
 297	1	5	-0.47861	28.9041	-1.69952	-12.113
 298	1	7	-0.160952	29.5956	-2.58696	-15.416
 299	1	9	0.05529	30.1686	-2.35294	-16.3215
 300	1	9	0.069029	29.5527	-3.68006	-15.3342
 301	1	9	0.053284	30.1667	-2.20084	-14.5627
 302	1	7	-0.244214	26.3059	0.213434	-17.9174
 303	1	9	0.063506	29.7984	-8.31833	-9.87372
 304	1	9	0.093434	28.2934	-8.7241	-10.6423
 305	1	6	0.232522	28.6033	-0.948112	-17.2982
 306	1	9	0.020884	27.1558	0.188034	-18.6105
 307	1	9	0.114771	26.1205	1.26792	-17.6848
 308	1	9	0.181647	25.4456	-0.195748	-18.4621
 309	1	9	0.069456	25.3561	-2.09485	-12.4797
 310	1	9	0.029017	24.4106	-2.98028	-13.689
 311	1	9	-0.058945	24.1134	-1.26171	-13.3843
 312	1	4	0.329672	23.6709	-0.616381	-14.9522
 313	1	1	0.452895	17.7939	-16.3441	7.25053
 314	1	2	0.074505	17.4041	-15.343	6.3637
 315	1	3	0.001656	18.564	-14.4106	6.3324
 316	1	2	0.074191	19.0425	-16.1403	7.83011
 317	1	3	0.036519	19.531	-14.8802	7.20721
 318	1	5	-0.399533	16.372	-15.2507	5.71985
 319	1	5	-0.398173	19.6116	-16.8117	8.67542
 320	1	3	-0.067442	18.7484	-13.2275	5.60414
 321	1	3	-0.068422	20.7331	-14.19	7.40222
 322	1	3	-0.213282	20.9361	-12.9942	6.67956
 323	1	3	-0.047343	19.9525	-12.5081	5.78441
 324	1	6	0.159476	17.9668	-12.8697	4.9383
 325	1	6	0.16033	21.475	-14.5659	8.10364
 326	1	6	0.171114	21.854	-12.4298	6.82938
 327	1	7	-0.06383	20.1504	-11.1593	5.09825
 328	1	3	0.009736	21.0076	-11.1485	3.83232
 329	1	3	-0.108991	21.5018	-9.90477	3.3807
 330	1	3	-0.114952	22.1999	-9.85852	2.16772
 331	1	3	-0.090153	21.2454	-12.3154	3.06049
 332	1	3	-0.148302	21.9493	-12.2455	1.83646
 333	1	3	-0.073574	22.4077	-10.9913	1.40679
 334	1	2	0.475719	23.0622	-10.5769	0.130799
 335	1	1	0.026291	23.1858	-9.19376	0.205495
 336	1	2	0.472085	22.7274	-8.68966	1.41651
 337	1	3	-0.022377	23.5986	-8.35715	-0.876066
 338	1	3	-0.088654	24.9609	-8.26396	-1.26077
 339	1	3	0.02488	25.3336	-7.39862	-2.32216
 340	1	3	0.040063	22.6216	-7.59482	-1.55581
 341	1	3	-0.361597	23.0132	-6.69608	-2.55486
 342	1	3	0.096629	24.3552	-6.57296	-2.92975
 343	1	7	-0.018671	26.0192	-9.12323	-0.557124
 344	1	8	-0.317996	26.6644	-7.38225	-2.74805
 345	1	6	0.16694	22.1034	-13.1296	1.22063
 346	1	6	0.13386	20.8565	-13.2747	3.3907
 347	1	6	0.147907	21.3108	-8.98706	3.93233
 348	1	5	-0.491298	22.6763	-7.5262	1.77796
 349	1	5	-0.47861	23.3425	-11.3075	-0.803864
 350	1	7	-0.160952	21.1366	-7.69216	-1.22525
 351	1	9	0.05529	20.5178	-7.34296	-2.0609
 352	1	9	0.069029	20.8904	-7.07691	-0.350952
 353	1	9	0.053284	20.8319	-8.72487	-1.01674
 354	1	7	-0.244214	24.6934	-5.50962	-3.96513
 355	1	9	0.063506	19.1696	-10.7332	4.85142
 356	1	9	0.093434	20.5851	-10.4614	5.82534
 357	1	6	0.232522	22.2643	-6.07645	-3.03835
 358	1	9	0.020884	23.9036	-4.75177	-4.0386
 359	1	9	0.114771	24.8204	-5.94736	-4.96128
 360	1	9	0.181647	25.6147	-4.97676	-3.69709
 361	1	9	0.069456	26.0969	-10.1076	-1.03779
 362	1	9	0.029017	25.783	-9.28533	0.501327
 363	1	9	-0.058945	27.0146	-8.66123	-0.576297
 364	1	4	0.329672	27.3149	-7.89363	-2.16837
 365	1	1	0.452895	6.1704	-28.8353	7.67175
 366	1	2	0.074505	7.16826	-28.0103	7.14168
 367	1	3	0.001656	7.7011	-27.2621	8.32071
 368	1	2	0.074191	6.05934	-28.7738	9.05319
 369	1	3	0.036519	7.04031	-27.7309	9.4477
 370	1	5	-0.399533	7.52128	-27.8909	5.97892
 371	1	5	-0.398173	5.34636	-29.433	9.79247
 372	1	3	-0.067442	8.65873	-26.2293	8.4051
 373	1	3	-0.068422	7.30114	-27.2122	10.7157
 374	1	3	-0.213282	8.25168	-26.18	10.8197
 375	1	3	-0.047343	8.92963	-25.6747	9.68269
 376	1	6	0.159476	9.15991	-25.871	7.50948
 377	1	6	0.16033	6.76929	-27.5925	11.5853
 378	1	6	0.171114	8.46094	-25.7596	11.801
 379	1	7	-0.06383	9.93054	-24.5488	9.96108
 380	1	3	0.009736	10.6207	-23.7982	8.82152
 381	1	3	-0.108991	12.0361	-23.7885	8.76667
 382	1	3	-0.114952	12.6736	-22.8463	7.94427
 383	1	3	-0.090153	9.88437	-22.8929	8.01758
 384	1	3	-0.148302	10.5433	-21.9615	7.18507
 385	1	3	-0.073574	11.9454	-21.9499	7.18663
 386	1	2	0.475719	12.8987	-20.997	6.55396
 387	1	1	0.026291	14.1612	-21.3697	6.99728
 388	1	2	0.472085	14.1198	-22.4937	7.81453
 389	1	3	-0.022377	15.3397	-20.64	6.64673
 390	1	3	-0.088654	15.7242	-19.4825	7.37238
 391	1	3	0.02488	16.7365	-18.6189	6.8667
 392	1	3	0.040063	16.0415	-21.0009	5.48088
 393	1	3	-0.361597	17.0674	-20.174	5.00967
 394	1	3	0.096629	17.4056	-18.9781	5.66086
 395	1	7	-0.018671	15.0125	-19.148	8.6917
 396	1	8	-0.317996	16.9714	-17.4371	7.59282
 397	1	6	0.16694	9.98783	-21.2224	6.61018
 398	1	6	0.13386	8.80054	-22.8602	8.09881
 399	1	6	0.147907	12.6301	-24.4267	9.41647
 400	1	5	-0.491298	15.049	-23.0443	8.37908
 401	1	5	-0.47861	12.6026	-20.0439	5.85388
 402	1	7	-0.160952	15.6895	-22.2554	4.69239
 403	1	9	0.05529	16.4139	-22.4476	3.89135
 404	1	9	0.069029	14.7001	-22.1637	4.22841
 405	1	9	0.053284	15.6859	-23.1403	5.34122
 406	1	7	-0.244214	18.4708	-18.1312	4.97348
 407	1	9	0.063506	9.4097	-23.7922	10.5629
 408	1	9	0.093434	10.6979	-24.9478	10.6359
 409	1	6	0.232522	17.5837	-20.4465	4.09468
 410	1	9	0.020884	18.9413	-18.6642	4.13842
 411	1	9	0.114771	19.281	-17.8588	5.65805
 412	1	9	0.181647	18.0228	-17.2249	4.54772
 413	1	9	0.069456	14.641	-20.045	9.20181
 414	1	9	0.029017	14.1603	-18.4795	8.52049
 415	1	9	-0.058945	15.6831	-18.6603	9.41098
 416	1	4	0.329672	16.4066	-17.2309	8.40311
 417	1	1	0.452895	-7.81851	-36.7625	11.5637
 418	1	2	0.074505	-7.64354	-36.2562	10.2773
 419	1	3	0.001656	-6.22201	-36.5233	9.96315
 420	1	2	0.074191	-6.68831	-37.3901	12.0831
 421	1	3	0.036519	-5.65618	-37.2187	11.0182
 422	1	5	-0.399533	-8.45858	-35.7509	9.52621
 423	1	5	-0.398173	-6.54977	-37.9369	13.1664
 424	1	3	-0.067442	-5.47795	-36.1342	8.84431
 425	1	3	-0.068422	-4.31119	-37.6083	10.9806
 426	1	3	-0.213282	-3.54223	-37.2357	9.85354
 427	1	3	-0.047343	-4.11129	-36.4828	8.79556
 428	1	6	0.159476	-5.94814	-35.5483	8.05784
 429	1	6	0.16033	-3.87644	-38.1637	11.8087
 430	1	6	0.171114	-2.48945	-37.5068	9.81249
 431	1	7	-0.06383	-3.24446	-36.0004	7.63241
 432	1	3	0.009736	-2.45612	-34.7156	7.91122
 433	1	3	-0.108991	-1.45679	-34.3032	6.99544
 434	1	3	-0.114952	-0.722542	-33.1379	7.27698
 435	1	3	-0.090153	-2.71069	-33.9265	9.06394
 436	1	3	-0.148302	-1.9593	-32.7653	9.33168
 437	1	3	-0.073574	-0.957747	-32.4046	8.42337
 438	1	2	0.475719	-0.0178959	-31.2529	8.44727
 439	1	1	0.026291	0.72833	-31.3464	7.27858
 440	1	2	0.472085	0.364221	-32.4521	6.51345
 441	1	3	-0.022377	1.66789	-30.3374	6.8928
 442	1	3	-0.088654	3.07443	-30.5458	6.97133
 443	1	3	0.02488	3.9714	-29.4589	6.76632
 444	1	3	0.040063	1.17121	-29.0648	6.52919
 445	1	3	-0.361597	2.06176	-28.0107	6.30571
 446	1	3	0.096629	3.44524	-28.183	6.43173
 447	1	7	-0.018671	3.64983	-31.9309	7.29659
 448	1	8	-0.317996	5.35307	-29.6912	6.89656
 449	1	6	0.16694	-2.14678	-32.1614	10.2173
 450	1	6	0.13386	-3.48965	-34.209	9.7663
 451	1	6	0.147907	-1.2527	-34.8731	6.09194
 452	1	5	-0.491298	0.807738	-32.7923	5.42961
 453	1	5	-0.47861	0.0284432	-30.3849	9.30283
 454	1	7	-0.160952	-0.316042	-28.7553	6.38181
 455	1	9	0.05529	-0.936273	-29.6502	6.26068
 456	1	9	0.069029	-0.49526	-28.1309	5.49796
 457	1	9	0.053284	-0.683476	-28.2054	7.25735
 458	1	7	-0.244214	4.30991	-26.9596	6.16081
 459	1	9	0.063506	-2.54433	-36.7987	7.35498
 460	1	9	0.093434	-3.87303	-35.8454	6.74596
 461	1	6	0.232522	1.66221	-27.0341	6.05235
 462	1	9	0.020884	4.76332	-26.5802	7.08463
 463	1	9	0.114771	3.72776	-26.1361	5.73253
 464	1	9	0.181647	5.10234	-27.1917	5.43892
 465	1	9	0.069456	4.35431	-32.2498	6.51771
 466	1	9	0.029017	2.89531	-32.7208	7.36217
 467	1	9	-0.058945	4.18905	-31.9192	8.25111
 468	1	4	0.329672	5.61894	-30.6343	7.13784
 469	1	1	0.452895	-14.8967	-39.3815	7.96752
 470	1	2	0.074505	-14.2123	-38.1993	8.22396
 471	1	3	0.001656	-14.4811	-37.367	7.02194
 472	1	2	0.074191	-15.5199	-39.4295	6.72327
 473	1	3	0.036519	-15.2447	-38.0949	6.12736
 474	1	5	-0.399533	-13.4864	-37.9234	9.16554
 475	1	5	-0.398173	-16.1061	-40.3633	6.19955
 476	1	3	-0.067442	-14.094	-36.0551	6.74879
 477	1	3	-0.068422	-15.6319	-37.554	4.89493
 478	1	3	-0.213282	-15.2618	-36.2205	4.60637
 479	1	3	-0.047343	-14.5153	-35.4533	5.53445
 480	1	6	0.159476	-13.5111	-35.5265	7.49636
 481	1	6	0.16033	-16.217	-38.1477	4.19623
 482	1	6	0.171114	-15.5716	-35.7753	3.66401
 483	1	7	-0.06383	-14.2147	-33.9775	5.24204
 484	1	3	0.009736	-13.996	-33.2192	6.54291
 485	1	3	-0.108991	-12.679	-33.0689	7.02238
 486	1	3	-0.114952	-12.5075	-32.8227	8.38815
 487	1	3	-0.090153	-15.0985	-32.9949	7.40395
 488	1	3	-0.148302	-14.8999	-32.739	8.77672
 489	1	3	-0.073574	-13.582	-32.7041	9.25079
 490	1	2	0.475719	-13.0681	-32.8042	10.6478
 491	1	1	0.026291	-11.7069	-33.0411	10.5153
 492	1	2	0.472085	-11.2776	-32.9712	9.19863
 493	1	3	-0.022377	-10.8574	-33.5156	11.5524
 494	1	3	-0.088654	-10.5758	-34.9009	11.6295
 495	1	3	0.02488	-9.51126	-35.3458	12.4473
 496	1	3	0.040063	-10.1791	-32.6033	12.384
 497	1	3	-0.361597	-9.22396	-33.0797	13.295
 498	1	3	0.096629	-8.86912	-34.4369	13.3201
 499	1	7	-0.018671	-11.3639	-35.894	10.7607
 500	1	8	-0.317996	-9.03529	-36.6463	12.2738
 501	1	6	0.16694	-15.7376	-32.699	9.47009
 502	1	6	0.13386	-16.1079	-33.1614	7.03686
 503	1	6	0.147907	-11.8193	-33.3221	6.40498
 504	1	5	-0.491298	-10.1529	-33.1336	8.75943
 505	1	5	-0.47861	-13.7389	-32.8256	11.666
 506	1	7	-0.160952	-10.4354	-31.1063	12.2831
 507	1	9	0.05529	-11.5038	-30.8797	12.3864
 508	1	9	0.069029	-10.0976	-30.7203	11.313
 509	1	9	0.053284	-9.90477	-30.5484	13.0637
 510	1	7	-0.244214	-7.78601	-34.8855	14.2908
 511	1	9	0.063506	-13.3296	-33.9006	4.59718
 512	1	9	0.093434	-15.0419	-33.5221	4.6831
 513	1	6	0.232522	-8.71309	-32.3812	13.95
 514	1	9	0.020884	-7.65737	-34.168	15.111
 515	1	9	0.114771	-6.81979	-34.9923	13.7858
 516	1	9	0.181647	-8.03857	-35.8532	14.7433
 517	1	9	0.069456	-11.0546	-35.8447	9.7094
 518	1	9	0.029017	-12.4404	-35.6852	10.7993
 519	1	9	-0.058945	-11.2448	-36.9335	11.092
 520	1	4	0.329672	-9.68011	-37.2643	11.8004
 521	1	1	0.452895	-19.1772	-32.451	21.3388
 522	1	2	0.074505	-19.2023	-31.8053	20.1075
 523	1	3	0.001656	-18.9418	-32.8838	19.1341
 524	1	2	0.074191	-18.8308	-33.8026	21.2716
 525	1	3	0.036519	-18.7029	-34.0651	19.8121
 526	1	5	-0.399533	-19.6309	-30.699	19.8303
 527	1	5	-0.398173	-18.8773	-34.6485	22.151
 528	1	3	-0.067442	-19.1699	-32.8562	17.7597
 529	1	3	-0.068422	-18.6046	-35.2819	19.1264
 530	1	3	-0.213282	-18.8198	-35.2747	17.7297
 531	1	3	-0.047343	-19.151	-34.0706	17.0508
 532	1	6	0.159476	-19.4567	-31.9246	17.2788
 533	1	6	0.16033	-18.4475	-36.2101	19.672
 534	1	6	0.171114	-18.7936	-36.2219	17.197
 535	1	7	-0.06383	-19.6204	-34.0231	15.6002
 536	1	3	0.009736	-19.605	-35.3556	14.8769
 537	1	3	-0.108991	-18.5553	-35.6219	13.9816
 538	1	3	-0.114952	-18.5125	-36.8795	13.382
 539	1	3	-0.090153	-20.5958	-36.3377	15.1299
 540	1	3	-0.148302	-20.5176	-37.6133	14.5288
 541	1	3	-0.073574	-19.4466	-37.8602	13.6574
 542	1	2	0.475719	-18.9907	-39.1215	13.0033
 543	1	1	0.026291	-17.7739	-38.799	12.413
 544	1	2	0.472085	-17.4523	-37.4586	12.5341
 545	1	3	-0.022377	-16.8002	-39.7202	11.9474
 546	1	3	-0.088654	-16.4892	-39.7897	10.567
 547	1	3	0.02488	-15.2865	-40.4306	10.1602
 548	1	3	0.040063	-15.9886	-40.3622	12.9065
 549	1	3	-0.361597	-14.8306	-41.0242	12.4895
 550	1	3	0.096629	-14.4546	-41.0259	11.1406
 551	1	7	-0.018671	-17.4441	-39.1385	9.55948
 552	1	8	-0.317996	-14.8555	-40.4961	8.82894
 553	1	6	0.16694	-21.2375	-38.3959	14.7613
 554	1	6	0.13386	-21.3959	-36.1238	15.8345
 555	1	6	0.147907	-17.765	-34.8976	13.7942
 556	1	5	-0.491298	-16.4395	-36.8885	12.1668
 557	1	5	-0.47861	-19.499	-40.2233	13.1287
 558	1	7	-0.160952	-16.2958	-40.2981	14.4003
 559	1	9	0.05529	-15.535	-40.8152	14.9969
 560	1	9	0.069029	-17.2583	-40.7758	14.623
 561	1	9	0.053284	-16.3381	-39.2614	14.7572
 562	1	7	-0.244214	-13.1115	-41.6593	10.7972
 563	1	9	0.063506	-20.6402	-33.6189	15.5717
 564	1	9	0.093434	-19.0052	-33.2988	15.0506
 565	1	6	0.232522	-14.191	-41.4897	13.2321
 566	1	9	0.020884	-12.6299	-41.1925	9.9299
 567	1	9	0.114771	-13.2237	-42.7323	10.6024
 568	1	9	0.181647	-12.4114	-41.5423	11.6338
 569	1	9	0.069456	-17.5315	-39.7334	8.6429
 570	1	9	0.029017	-17.1061	-38.1293	9.29195
 571	1	9	-0.058945	-18.4648	-39.0485	9.95133
 572	1	4	0.329672	-13.9679	-40.9474	8.67542
 573	1	1	0.452895	-18.4133	-16.1846	27.1116
 574	1	2	0.074505	-17.5484	-17.0195	26.4086
 575	1	3	0.001656	-18.0945	-18.374	26.6918
 576	1	2	0.074191	-19.2404	-16.8322	28.0205
 577	1	3	0.036519	-19.0639	-18.2655	27.6791
 578	1	5	-0.399533	-16.7728	-16.7299	25.5119
 579	1	5	-0.398173	-20.1509	-16.3543	28.6788
 580	1	3	-0.067442	-18.1018	-19.4518	25.7984
 581	1	3	-0.068422	-19.9895	-19.2857	27.9082
 582	1	3	-0.213282	-20.0158	-20.3685	27.0082
 583	1	3	-0.047343	-19.1332	-20.4136	25.8997
 584	1	6	0.159476	-17.4761	-19.3948	24.9111
 585	1	6	0.16033	-20.7794	-19.148	28.6438
 586	1	6	0.171114	-20.8243	-21.0799	27.1045
 587	1	7	-0.06383	-19.4959	-21.1838	24.625
 588	1	3	0.009736	-19.8805	-22.6558	24.7164
 589	1	3	-0.108991	-19.0751	-23.6072	24.0527
 590	1	3	-0.114952	-19.5082	-24.9372	24.0182
 591	1	3	-0.090153	-21.1095	-23.0638	25.2961
 592	1	3	-0.148302	-21.4956	-24.4191	25.3064
 593	1	3	-0.073574	-20.6642	-25.3379	24.6579
 594	1	2	0.475719	-20.7522	-26.8182	24.573
 595	1	1	0.026291	-19.6069	-27.2154	23.8974
 596	1	2	0.472085	-18.8502	-26.1406	23.4478
 597	1	3	-0.022377	-19.1314	-28.5556	23.9175
 598	1	3	-0.088654	-19.7139	-29.5518	23.096
 599	1	3	0.02488	-19.2495	-30.8909	23.1941
 600	1	3	0.040063	-18.1223	-28.8943	24.8475
 601	1	3	-0.361597	-17.6933	-30.2212	24.9458
 602	1	3	0.096629	-18.2519	-31.2207	24.142
 603	1	7	-0.018671	-20.8464	-29.1552	22.1352
 604	1	8	-0.317996	-19.8552	-31.8958	22.4426
 605	1	6	0.16694	-22.4125	-24.7479	25.7918
 606	1	6	0.13386	-21.7812	-22.3315	25.7287
 607	1	6	0.147907	-18.1457	-23.3251	23.5629
 608	1	5	-0.491298	-17.7811	-26.1619	22.8615
 609	1	5	-0.47861	-21.5925	-27.5206	25.1106
 610	1	7	-0.160952	-17.5407	-27.8904	25.8411
 611	1	9	0.05529	-17.3472	-26.9087	25.3986
 612	1	9	0.069029	-16.5795	-28.2356	26.2387
 613	1	9	0.053284	-18.2215	-27.7507	26.6898
 614	1	7	-0.244214	-17.8216	-32.656	24.4042
 615	1	9	0.063506	-20.3308	-20.6536	24.1502
 616	1	9	0.093434	-18.6737	-21.0842	23.9052
 617	1	6	0.232522	-16.9494	-30.4823	25.691
 618	1	9	0.020884	-18.6925	-33.3159	24.501
 619	1	9	0.114771	-17.2552	-32.7461	25.338
 620	1	9	0.181647	-17.19	-33.0379	23.5951
 621	1	9	0.069456	-21.6371	-28.5966	22.6476
 622	1	9	0.029017	-21.3484	-30.0072	21.6651
 623	1	9	-0.058945	-20.4637	-28.5155	21.3303
 624	1	4	0.329672	-20.7755	-31.6762	22.0935
 625	1	1	0.452895	-12.8998	-7.65619	15.1194
 626	1	2	0.074505	-14.0189	-8.32895	15.6236
 627	1	3	0.001656	-14.201	-7.73208	16.9686
 628	1	2	0.074191	-12.2405	-6.86322	16.0505
 629	1	3	0.036519	-13.1309	-6.89328	17.2342
 630	1	5	-0.399533	-14.8122	-9.06614	15.0599
 631	1	5	-0.398173	-11.265	-6.14775	15.8879
 632	1	3	-0.067442	-15.3333	-7.7524	17.7892
 633	1	3	-0.068422	-13.1032	-6.07589	18.3663
 634	1	3	-0.213282	-14.2339	-6.08129	19.2059
 635	1	3	-0.047343	-15.3557	-6.89183	18.9074
 636	1	6	0.159476	-16.1903	-8.36775	17.524
 637	1	6	0.16033	-12.2613	-5.41052	18.5428
 638	1	6	0.171114	-14.2544	-5.42769	20.0746
 639	1	7	-0.06383	-16.5898	-6.8265	19.7939
 640	1	3	0.009736	-16.5814	-7.90615	20.8637
 641	1	3	-0.108991	-17.7949	-8.51921	21.2457
 642	1	3	-0.114952	-17.7358	-9.57249	22.1661
 643	1	3	-0.090153	-15.3567	-8.33589	21.4362
 644	1	3	-0.148302	-15.3185	-9.4062	22.3442