pySIMM System Object

1718 atoms
1882 bonds
3267 angles
4814 dihedrals
528 impropers

9 atom types
12 bond types
20 angle types
8 dihedral types
4 improper types

-179.806198 179.806198 xlo xhi
-179.806198 179.806198 ylo yhi
-179.806198 179.806198 zlo zhi

Masses

   1	14.01	# n
   2	12.01	# c
   3	12.01	# ca
   4	1.008	# hn
   5	16.0	# o
   6	1.008	# ha
   7	12.01	# c3
   8	14.01	# nh
   9	1.008	# hc

Pair Coeffs

   1	0.17	3.249998523775958	# n
   2	0.086	3.3996695084235347	# c
   3	0.086	3.3996695084235347	# ca
   4	0.0157	1.069078461768407	# hn
   5	0.21	2.959921901149463	# o
   6	0.015	2.59964245953351	# ha
   7	0.1094	3.3996695084235347	# c3
   8	0.17	3.249998523775958	# nh
   9	0.0157	2.649532787749369	# hc

Bond Coeffs

   1	384.2	1.4121	# ca,n
   2	404.6	1.0121	# hn,nh
   3	403.2	1.0129	# hn,n
   4	417.9	1.3859	# ca,nh
   5	461.1	1.3984	# ca,ca
   6	427.6	1.3789	# c,n
   7	345.9	1.4906	# c,ca
   8	345.8	1.086	# ca,ha
   9	321.0	1.5156	# c3,ca
  10	330.6	1.0969	# c3,hc
  11	637.7	1.2183	# c,o
  12	452.5	1.4016	# n,nh

Angle Coeffs

   1	63.53	120.77	# c3,ca,ca
   2	39.4	107.58	# hc,c3,hc
   3	66.62	120.02	# ca,ca,ca
   4	48.42	116.07	# ca,nh,hn
   5	48.18	119.88	# ca,ca,ha
   6	63.74	127.08	# c,n,c
   7	67.87	120.19	# ca,ca,n
   8	40.07	115.12	# hn,nh,hn
   9	68.72	122.6	# ca,c,o
  10	48.33	117.55	# c,n,hn
  11	64.28	120.33	# c,ca,ca
  12	67.68	115.25	# ca,c,n
  13	63.56	112.24	# ca,c3,ca
  14	74.22	123.05	# n,c,o
  15	63.82	123.71	# c,n,ca
  16	46.8	110.47	# ca,c3,hc
  17	68.29	120.95	# ca,ca,nh
  18	67.01	118.71	# c,n,nh
  19	67.61	116.03	# ca,nh,n
  20	50.88	108.17	# hn,nh,n

Dihedral Coeffs

   1	1	3.625	2	180	# X,ca,ca,X
   2	1	1.0	2	180	# X,c,ca,X
   3	1	0.0	2	0	# X,c3,ca,X
   4	1	2.5	2	180	# X,c,n,X
   5	1	1.05	2	180	# X,ca,nh,X
   6	1	0.45	2	180	# X,ca,n,X
   7	2	2.5	2	180	2.0	1	0	# hn,n,c,o
   8	1	1.1	2	0	# X,n,nh,X

Improper Coeffs

   1	1.1	-1	2	# ca,X,X,ha
   2	10.5	-1	2	# c,X,X,o
   3	1.1	-1	2	# ca,ca,ca,c3
   4	1.1	-1	2	# n,X,X,hn

Atoms

   1	1	1	0.452895	-45.4674	37.0676	5.51817
   2	1	2	0.074505	-44.4883	36.4028	4.7851
   3	1	3	0.001656	-45.1796	35.1864	4.2838
   4	1	2	0.074191	-46.7232	36.4687	5.48058
   5	1	3	0.036519	-46.5036	35.2279	4.69266
   6	1	5	-0.399533	-43.3388	36.745	4.55424
   7	1	5	-0.398173	-47.776	36.8586	5.96112
   8	1	3	-0.067442	-44.6684	34.0984	3.56717
   9	1	3	-0.068422	-47.3917	34.189	4.39465
  10	1	3	-0.213282	-46.8943	33.0809	3.67704
  11	1	3	-0.047343	-45.5395	33.027	3.26879
  12	1	6	0.159476	-43.6186	34.0767	3.28754
  13	1	6	0.16033	-48.4234	34.2328	4.73638
  14	1	6	0.171114	-47.5557	32.2445	3.46284
  15	1	7	-0.06383	-45.0119	31.7767	2.57923
  16	1	3	0.009736	-44.8362	30.643	3.58048
  17	1	3	-0.108991	-45.6547	29.4936	3.51015
  18	1	3	-0.114952	-45.5009	28.5103	4.49724
  19	1	3	-0.090153	-43.8866	30.773	4.62366
  20	1	3	-0.148302	-43.752	29.7763	5.61067
  21	1	3	-0.073574	-44.5823	28.6524	5.52117
  22	1	2	0.475719	-44.732	27.496	6.44208
  23	1	1	0.026291	-45.7547	26.7256	5.90914
  24	1	2	0.472085	-46.259	27.2493	4.72632
  25	1	3	-0.022377	-46.3015	25.5977	6.58106
  26	1	3	-0.088654	-45.73	24.3079	6.43583
  27	1	3	0.02488	-46.2852	23.2185	7.1499
  28	1	3	0.040063	-47.4118	25.7942	7.43148
  29	1	3	-0.361597	-47.9396	24.708	8.14078
  30	1	3	0.096629	-47.3866	23.4278	8.00789
  31	1	7	-0.018671	-44.5499	24.0737	5.48709
  32	1	8	-0.317996	-45.7607	21.934	7.02054
  33	1	6	0.16694	-43.0467	29.8847	6.43253
  34	1	6	0.13386	-43.2727	31.668	4.68613
  35	1	6	0.147907	-46.4072	29.378	2.73416
  36	1	5	-0.491298	-47.1852	26.8311	4.05239
  37	1	5	-0.47861	-44.1391	27.3258	7.49581
  38	1	7	-0.160952	-48.0575	27.1654	7.59918
  39	1	9	0.05529	-48.8516	27.1497	8.35565
  40	1	9	0.069029	-48.5094	27.5045	6.65861
  41	1	9	0.053284	-47.3249	27.9166	7.91888
  42	1	7	-0.244214	-47.9848	22.2842	8.81114
  43	1	9	0.063506	-45.6995	31.4786	1.77743
  44	1	9	0.093434	-44.0532	31.9834	2.08674
  45	1	6	0.232522	-48.7796	24.8642	8.80983
  46	1	9	0.020884	-48.8163	22.6123	9.44683
  47	1	9	0.114771	-47.2233	21.8335	9.45906
  48	1	9	0.181647	-48.3572	21.5023	8.13944
  49	1	9	0.069456	-44.8947	23.628	4.54556
  50	1	9	0.029017	-43.8105	23.3945	5.92591
  51	1	9	-0.058945	-44.0091	24.9938	5.23867
  52	1	4	0.329672	-44.7802	21.8359	6.76089
  53	1	1	0.452895	-44.6457	26.571	10.5153
  54	1	2	0.074505	-43.4493	27.1243	10.9648
  55	1	3	0.001656	-43.8707	28.3186	11.743
  56	1	2	0.074191	-45.7836	27.2777	10.9018
  57	1	3	0.036519	-45.2522	28.4081	11.7053
  58	1	5	-0.399533	-42.3039	26.7744	10.7309
  59	1	5	-0.398173	-46.9565	27.0644	10.6373
  60	1	3	-0.067442	-43.0941	29.2703	12.4142
  61	1	3	-0.068422	-45.9334	29.4538	12.3374
  62	1	3	-0.213282	-45.1691	30.4185	13.027
  63	1	3	-0.047343	-43.756	30.3339	13.0683
  64	1	6	0.159476	-42.011	29.1792	12.4201
  65	1	6	0.16033	-47.0182	29.5138	12.2866
  66	1	6	0.171114	-45.6746	31.2436	13.5234
  67	1	7	-0.06383	-42.9563	31.3873	13.8246
  68	1	3	0.009736	-43.214	32.8009	13.3181
  69	1	3	-0.108991	-42.9396	33.123	11.9715
  70	1	3	-0.114952	-43.1695	34.4371	11.5444
  71	1	3	-0.090153	-43.7119	33.7967	14.1951
  72	1	3	-0.148302	-43.9354	35.1149	13.7445
  73	1	3	-0.073574	-43.6499	35.4069	12.4045
  74	1	2	0.475719	-43.7685	36.6837	11.6464
  75	1	1	0.026291	-43.3483	36.3869	10.3575
  76	1	2	0.472085	-42.9705	35.0594	10.2093
  77	1	3	-0.022377	-43.3079	37.3288	9.29189
  78	1	3	-0.088654	-44.3738	37.4011	8.36186
  79	1	3	0.02488	-44.2526	38.2479	7.22954
  80	1	3	0.040063	-42.1669	38.1434	9.13613
  81	1	3	-0.361597	-42.0861	39.0192	8.04545
  82	1	3	0.096629	-43.1105	39.0694	7.08991
  83	1	7	-0.018671	-45.6427	36.5724	8.59165
  84	1	8	-0.317996	-45.2098	38.2686	6.21048
  85	1	6	0.16694	-44.3138	35.8875	14.4112
  86	1	6	0.13386	-43.9211	33.5483	15.2322
  87	1	6	0.147907	-42.5601	32.3767	11.2772
  88	1	5	-0.491298	-42.5417	34.5044	9.2119
  89	1	5	-0.47861	-44.1474	37.7563	12.0865
  90	1	7	-0.160952	-41.0074	38.0857	10.123
  91	1	9	0.05529	-40.5825	37.0754	10.1733
  92	1	9	0.069029	-41.3359	38.3695	11.1307
  93	1	9	0.053284	-40.196	38.7672	9.84001
  94	1	7	-0.244214	-42.933	39.9824	5.88334
  95	1	9	0.063506	-43.196	31.316	14.8929
  96	1	9	0.093434	-41.8822	31.1755	13.7503
  97	1	6	0.232522	-41.2009	39.6344	7.92431
  98	1	9	0.020884	-43.8434	40.5548	5.66665
  99	1	9	0.114771	-42.6701	39.3947	4.99407
 100	1	9	0.181647	-42.1265	40.7067	6.04574
 101	1	9	0.069456	-46.5379	37.1135	8.26304
 102	1	9	0.029017	-45.8155	36.3445	9.64948
 103	1	9	-0.058945	-45.5932	35.6198	8.05011
 104	1	4	0.329672	-45.0952	38.9836	5.50924
 105	1	1	0.452895	-37.2496	12.7	5.80999
 106	1	2	0.074505	-36.8411	13.8952	5.22347
 107	1	3	0.001656	-36.9045	14.8808	6.33299
 108	1	2	0.074191	-37.4931	12.7836	7.17773
 109	1	3	0.036519	-37.2898	14.2232	7.49069
 110	1	5	-0.399533	-36.5411	14.1201	4.0616
 111	1	5	-0.398173	-37.8351	11.9034	7.9507
 112	1	3	-0.067442	-36.7047	16.2655	6.30726
 113	1	3	-0.068422	-37.4886	14.9172	8.68941
 114	1	3	-0.213282	-37.2967	16.3156	8.68304
 115	1	3	-0.047343	-36.9127	16.9926	7.49989
 116	1	6	0.159476	-36.4273	16.7577	5.37892
 117	1	6	0.16033	-37.8079	14.3878	9.58462
 118	1	6	0.171114	-37.4718	16.8821	9.59509
 119	1	7	-0.06383	-36.7843	18.5097	7.50465
 120	1	3	0.009736	-38.1512	19.1813	7.47225
 121	1	3	-0.108991	-38.6127	19.9098	8.59058
 122	1	3	-0.114952	-39.8907	20.4818	8.52708
 123	1	3	-0.090153	-38.9742	19.0508	6.32634
 124	1	3	-0.148302	-40.26	19.6294	6.28517
 125	1	3	-0.073574	-40.6944	20.3411	7.41092
 126	1	2	0.475719	-41.991	21.0212	7.6828
 127	1	1	0.026291	-41.8771	21.5363	8.96735
 128	1	2	0.472085	-40.6432	21.265	9.54387
 129	1	3	-0.022377	-42.9389	22.2116	9.63391
 130	1	3	-0.088654	-43.243	23.5641	9.33487
 131	1	3	0.02488	-44.3361	24.1976	9.98126
 132	1	3	0.040063	-43.7112	21.5012	10.5768
 133	1	3	-0.361597	-44.7783	22.1408	11.2174
 134	1	3	0.096629	-45.106	23.4707	10.9231
 135	1	7	-0.018671	-42.3655	24.3571	8.35547
 136	1	8	-0.317996	-44.6879	25.4977	9.60536
 137	1	6	0.16694	-40.9029	19.5217	5.41397
 138	1	6	0.13386	-38.6182	18.4838	5.47046
 139	1	6	0.147907	-38.0063	20.0201	9.48669
 140	1	5	-0.491298	-40.2595	21.5367	10.6687
 141	1	5	-0.47861	-42.9585	21.0654	6.9372
 142	1	7	-0.160952	-43.4267	20.0416	10.9119
 143	1	9	0.05529	-44.1964	19.6175	11.5681
 144	1	9	0.069029	-42.4648	19.9391	11.4297
 145	1	9	0.053284	-43.3964	19.4237	10.0061
 146	1	7	-0.244214	-46.3348	24.0525	11.6053
 147	1	9	0.063506	-36.2225	18.8279	8.39224
 148	1	9	0.093434	-36.1905	18.8473	6.64572
 149	1	6	0.232522	-45.3764	21.5907	11.9365
 150	1	9	0.020884	-46.9007	23.29	12.1543
 151	1	9	0.114771	-47.018	24.4895	10.868
 152	1	9	0.181647	-46.0583	24.8333	12.3212
 153	1	9	0.069456	-41.6477	24.9817	8.90166
 154	1	9	0.029017	-42.957	25.0163	7.7137
 155	1	9	-0.058945	-41.7875	23.7222	7.67575
 156	1	4	0.329672	-44.298	25.8596	8.74045
 157	1	1	0.452895	-40.2767	-3.7328	3.90771
 158	1	2	0.074505	-41.2757	-2.94702	4.4764
 159	1	3	0.001656	-40.5387	-1.79947	5.06771
 160	1	2	0.074191	-38.992	-3.21439	4.03704
 161	1	3	0.036519	-39.1862	-1.95981	4.81063
 162	1	5	-0.399533	-42.4868	-3.09941	4.43926
 163	1	5	-0.398173	-37.9546	-3.61152	3.53169
 164	1	3	-0.067442	-41.027	-0.675585	5.74412
 165	1	3	-0.068422	-38.2476	-1.00753	5.22355
 166	1	3	-0.213282	-38.7195	0.129685	5.91327
 167	1	3	-0.047343	-40.1011	0.302263	6.17088
 168	1	6	0.159476	-42.0945	-0.563613	5.91589
 169	1	6	0.16033	-37.1909	-1.14636	5.00465
 170	1	6	0.171114	-38.0123	0.891106	6.23564
 171	1	7	-0.06383	-40.5884	1.55995	6.88017
 172	1	3	0.009736	-40.4643	2.82747	6.03756
 173	1	3	-0.108991	-40.2637	4.06889	6.68198
 174	1	3	-0.114952	-40.1749	5.2231	5.89186
 175	1	3	-0.090153	-40.5813	2.78131	4.62402
 176	1	3	-0.148302	-40.4828	3.95395	3.84728
 177	1	3	-0.073574	-40.276	5.16681	4.51511
 178	1	2	0.475719	-40.1658	6.55157	3.98305
 179	1	1	0.026291	-40.0179	7.36731	5.09625
 180	1	2	0.472085	-40.0058	6.64873	6.28449
 181	1	3	-0.022377	-39.9572	8.78855	5.01969
 182	1	3	-0.088654	-38.7142	9.46551	5.07829
 183	1	3	0.02488	-38.6757	10.8818	4.97674
 184	1	3	0.040063	-41.156	9.51276	4.86281
 185	1	3	-0.361597	-41.1084	10.9048	4.73154
 186	1	3	0.096629	-39.8887	11.5956	4.76903
 187	1	7	-0.018671	-37.4319	8.64134	5.26872
 188	1	8	-0.317996	-37.4281	11.5132	5.07123
 189	1	6	0.16694	-40.5754	3.92656	2.76327
 190	1	6	0.13386	-40.7532	1.833	4.12201
 191	1	6	0.147907	-40.1917	4.14111	7.76486
 192	1	5	-0.491298	-39.9094	7.0753	7.42178
 193	1	5	-0.47861	-40.2259	6.88175	2.81061
 194	1	7	-0.160952	-42.5114	8.81737	4.80897
 195	1	9	0.05529	-42.6466	8.14337	5.66408
 196	1	9	0.069029	-42.6133	8.22874	3.88863
 197	1	9	0.053284	-43.3389	9.53669	4.83149
 198	1	7	-0.244214	-39.9557	13.1006	4.54364
 199	1	9	0.063506	-41.635	1.43883	7.18696
 200	1	9	0.093434	-40.0218	1.67919	7.81263
 201	1	6	0.232522	-42.0353	11.4498	4.58778
 202	1	9	0.020884	-39.1725	13.4375	3.85553
 203	1	9	0.114771	-39.8633	13.6482	5.48856
 204	1	9	0.181647	-40.9076	13.3953	4.08875
 205	1	9	0.069456	-37.3965	7.79856	4.56693
 206	1	9	0.029017	-37.3853	8.23144	6.28567
 207	1	9	-0.058945	-36.5088	9.20979	5.10637
 208	1	4	0.329672	-36.6341	10.9144	5.24421
 209	1	1	0.452895	-30.3867	-15.2782	1.96856
 210	1	2	0.074505	-31.1118	-14.1577	2.36342
 211	1	3	0.001656	-31.2849	-13.3806	1.10907
 212	1	2	0.074191	-30.0436	-15.2981	0.620558
 213	1	3	0.036519	-30.6555	-14.0575	0.0763781
 214	1	5	-0.399533	-31.4902	-13.8423	3.48049
 215	1	5	-0.398173	-29.3284	-16.088	0.0254233
 216	1	3	-0.067442	-31.927	-12.1556	0.897744
 217	1	3	-0.068422	-30.6403	-13.5477	-1.22635
 218	1	3	-0.213282	-31.2891	-12.3167	-1.46219
 219	1	3	-0.047343	-31.9306	-11.6191	-0.408853
 220	1	6	0.159476	-32.402	-11.6375	1.72733
 221	1	6	0.16033	-30.135	-14.0903	-2.02252
 222	1	6	0.171114	-31.2823	-11.8984	-2.46615
 223	1	7	-0.06383	-32.5946	-10.2752	-0.676242
 224	1	3	0.009736	-34.0233	-10.2051	-0.153969
 225	1	3	-0.108991	-34.3445	-9.3317	0.907621
 226	1	3	-0.114952	-35.6774	-9.26985	1.33267
 227	1	3	-0.090153	-35.0354	-10.9974	-0.749017
 228	1	3	-0.148302	-36.3732	-10.9171	-0.307364
 229	1	3	-0.073574	-36.6655	-10.0329	0.739665
 230	1	2	0.475719	-37.9646	-9.68908	1.38211
 231	1	1	0.026291	-37.6647	-8.71639	2.32626
 232	1	2	0.472085	-36.3094	-8.42256	2.37742
 233	1	3	-0.022377	-38.6415	-8.0504	3.11923
 234	1	3	-0.088654	-39.1652	-6.80236	2.70238
 235	1	3	0.02488	-40.0852	-6.11634	3.5336
 236	1	3	0.040063	-39.0592	-8.62777	4.33577
 237	1	3	-0.361597	-39.9988	-7.95794	5.13131
 238	1	3	0.096629	-40.5156	-6.71286	4.74461
 239	1	7	-0.018671	-38.6927	-6.18786	1.37637
 240	1	8	-0.317996	-40.557	-4.86833	3.12209
 241	1	6	0.16694	-37.1605	-11.5101	-0.768937
 242	1	6	0.13386	-34.7807	-11.6702	-1.56403
 243	1	6	0.147907	-33.5902	-8.70509	1.37843
 244	1	5	-0.491298	-35.7376	-7.62368	3.098
 245	1	5	-0.47861	-39.0592	-10.1382	1.0867
 246	1	7	-0.160952	-38.5106	-9.9682	4.80862
 247	1	9	0.05529	-38.9316	-10.2614	5.77806
 248	1	9	0.069029	-37.4204	-9.92789	4.92471
 249	1	9	0.053284	-38.7502	-10.7655	4.09393
 250	1	7	-0.244214	-41.5549	-6.0654	5.64858
 251	1	9	0.063506	-31.9867	-9.48178	-0.223005
 252	1	9	0.093434	-32.5994	-10.06	-1.75208
 253	1	6	0.232522	-40.3233	-8.40831	6.06382
 254	1	9	0.020884	-41.1106	-5.26415	6.25144
 255	1	9	0.114771	-41.9991	-6.79147	6.33906
 256	1	9	0.181647	-42.3805	-5.64229	5.06232
 257	1	9	0.069456	-38.6059	-6.94473	0.58734
 258	1	9	0.029017	-37.7085	-5.71763	1.49859
 259	1	9	-0.058945	-39.3772	-5.42601	0.983996
 260	1	4	0.329672	-40.3202	-4.612	2.17439
 261	1	1	0.452895	-25.3959	-30.9458	0.84323
 262	1	2	0.074505	-25.8248	-30.0438	1.81467
 263	1	3	0.001656	-25.1856	-28.7597	1.42419
 264	1	2	0.074191	-24.5337	-30.4018	-0.10379
 265	1	3	0.036519	-24.4163	-28.9744	0.29185
 266	1	5	-0.399533	-26.5016	-30.2494	2.80984
 267	1	5	-0.398173	-23.9138	-30.969	-0.988667
 268	1	3	-0.067442	-25.2444	-27.5046	2.04192
 269	1	3	-0.068422	-23.6544	-27.9491	-0.278371
 270	1	3	-0.213282	-23.6947	-26.6784	0.333243
 271	1	3	-0.047343	-24.488	-26.4503	1.48483
 272	1	6	0.159476	-25.8489	-27.3606	2.93401
 273	1	6	0.16033	-23.0449	-28.1422	-1.15863
 274	1	6	0.171114	-23.1029	-25.8675	-0.0857352
 275	1	7	-0.06383	-24.4985	-25.0771	2.14322
 276	1	3	0.009736	-25.6604	-24.1926	1.70212
 277	1	3	-0.108991	-26.3598	-23.4305	2.66425
 278	1	3	-0.114952	-27.3747	-22.5715	2.22237
 279	1	3	-0.090153	-26.0036	-24.0789	0.33094
 280	1	3	-0.148302	-27.0297	-23.2088	-0.0925651
 281	1	3	-0.073574	-27.6964	-22.4577	0.883235
 282	1	2	0.475719	-28.7616	-21.4267	0.746012
 283	1	1	0.026291	-29.0033	-20.9711	2.03451
 284	1	2	0.472085	-28.2292	-21.6228	2.98498
 285	1	3	-0.022377	-29.9197	-19.9272	2.34642
 286	1	3	-0.088654	-29.4668	-18.5907	2.47249
 287	1	3	0.02488	-30.3964	-17.5617	2.76671
 288	1	3	0.040063	-31.2833	-20.2373	2.52647
 289	1	3	-0.361597	-32.1888	-19.2142	2.83678
 290	1	3	0.096629	-31.7616	-17.8856	2.96581
 291	1	7	-0.018671	-27.9834	-18.2655	2.23924
 292	1	8	-0.317996	-29.9314	-16.2501	2.88016
 293	1	6	0.16694	-27.2876	-23.1049	-1.1448
 294	1	6	0.13386	-25.4627	-24.656	-0.413291
 295	1	6	0.147907	-26.1086	-23.4808	3.72126
 296	1	5	-0.491298	-28.2063	-21.4406	4.19024
 297	1	5	-0.47861	-29.2777	-21.0539	-0.293826
 298	1	7	-0.160952	-31.7974	-21.6662	2.40368
 299	1	9	0.05529	-32.8742	-21.7297	2.60198
 300	1	9	0.069029	-31.2941	-22.3282	3.11929
 301	1	9	0.053284	-31.6277	-22.0599	1.39374
 302	1	7	-0.244214	-32.8028	-16.8464	3.35701
 303	1	9	0.063506	-24.5177	-25.2035	3.23337
 304	1	9	0.093434	-23.556	-24.5567	1.9312
 305	1	6	0.232522	-33.2361	-19.4561	2.98861
 306	1	9	0.020884	-33.7188	-17.3124	3.74063
 307	1	9	0.114771	-33.0865	-16.2268	2.49886
 308	1	9	0.181647	-32.4244	-16.1878	4.14921
 309	1	9	0.069456	-27.7663	-18.2175	1.16397
 310	1	9	0.029017	-27.3233	-19.0216	2.67971
 311	1	9	-0.058945	-27.6749	-17.3104	2.68148
 312	1	4	0.329672	-28.9271	-16.1487	2.91513
 313	1	1	0.452895	-18.803	-41.8288	-4.23998
 314	1	2	0.074505	-20.0844	-41.7503	-3.70319
 315	1	3	0.001656	-20.8951	-41.1543	-4.79541
 316	1	2	0.074191	-18.6774	-41.2956	-5.51828
 317	1	3	0.036519	-20.0634	-40.889	-5.87241
 318	1	5	-0.399533	-20.4871	-42.1438	-2.62002
 319	1	5	-0.398173	-17.6778	-41.1943	-6.21085
 320	1	3	-0.067442	-22.2715	-40.9101	-4.85288
 321	1	3	-0.068422	-20.5673	-40.369	-7.06947
 322	1	3	-0.213282	-21.9549	-40.1239	-7.15084
 323	1	3	-0.047343	-22.8074	-40.391	-6.05121
 324	1	6	0.159476	-22.9016	-41.131	-3.9951
 325	1	6	0.16033	-19.9022	-40.18	-7.90942
 326	1	6	0.171114	-22.3708	-39.7294	-8.07442
 327	1	7	-0.06383	-24.3017	-40.1251	-6.16032
 328	1	3	0.009736	-24.6557	-38.7168	-5.707
 329	1	3	-0.108991	-25.2029	-38.4987	-4.42329
 330	1	3	-0.114952	-25.5049	-37.1823	-4.04921
 331	1	3	-0.090153	-24.4288	-37.6215	-6.57554
 332	1	3	-0.148302	-24.7373	-36.3046	-6.17826
 333	1	3	-0.073574	-25.2755	-36.1166	-4.8993
 334	1	2	0.475719	-25.7033	-34.8695	-4.20967
 335	1	1	0.026291	-26.1771	-35.2758	-2.97046
 336	1	2	0.472085	-26.0936	-36.65	-2.79099
 337	1	3	-0.022377	-26.7336	-34.3828	-2.01213
 338	1	3	-0.088654	-25.9215	-33.813	-1.00169
 339	1	3	0.02488	-26.489	-32.8914	-0.0849882
 340	1	3	0.040063	-28.1037	-34.0593	-2.09338
 341	1	3	-0.361597	-28.659	-33.1709	-1.16413
 342	1	3	0.096629	-27.8716	-32.5904	-0.161078
 343	1	7	-0.018671	-24.4312	-34.1772	-0.941473
 344	1	8	-0.317996	-25.6756	-32.3262	0.899324
 345	1	6	0.16694	-24.5663	-35.4561	-6.83791
 346	1	6	0.13386	-24.0079	-37.7951	-7.56179
 347	1	6	0.147907	-25.3892	-39.3207	-3.73615
 348	1	5	-0.491298	-26.4434	-37.3061	-1.82485
 349	1	5	-0.47861	-25.6662	-33.7405	-4.66872
 350	1	7	-0.160952	-29.0044	-34.6685	-3.1609
 351	1	9	0.05529	-30.0316	-34.2906	-3.09121
 352	1	9	0.069029	-29.0497	-35.7601	-3.05836
 353	1	9	0.053284	-28.6391	-34.4338	-4.16838
 354	1	7	-0.244214	-28.5696	-31.6819	0.840125
 355	1	9	0.063506	-24.6344	-40.275	-7.19529
 356	1	9	0.093434	-24.8576	-40.8639	-5.56853
 357	1	6	0.232522	-29.7175	-32.9357	-1.21572
 358	1	9	0.020884	-29.6595	-31.8018	0.807827
 359	1	9	0.114771	-28.3499	-30.6275	0.63872
 360	1	9	0.181647	-28.2542	-31.9102	1.86608
 361	1	9	0.069456	-23.8764	-33.6611	-1.73621
 362	1	9	0.029017	-24.275	-35.255	-1.07072
 363	1	9	-0.058945	-23.9582	-33.9175	0.0133179
 364	1	4	0.329672	-24.7801	-32.7781	1.02393
 365	1	1	0.452895	-2.96263	-47.2426	-6.30577
 366	1	2	0.074505	-4.19241	-46.9777	-6.9038
 367	1	3	0.001656	-4.85245	-46.0313	-5.96573
 368	1	2	0.074191	-2.75144	-46.5792	-5.10173
 369	1	3	0.036519	-4.00247	-45.8047	-4.89435
 370	1	5	-0.399533	-4.61054	-47.3398	-7.99253
 371	1	5	-0.398173	-1.72628	-46.5034	-4.44368
 372	1	3	-0.067442	-6.06793	-45.3474	-6.09192
 373	1	3	-0.068422	-4.33396	-44.9038	-3.87695
 374	1	3	-0.213282	-5.55628	-44.2076	-3.98382
 375	1	3	-0.047343	-6.41479	-44.4128	-5.09158
 376	1	6	0.159476	-6.69894	-45.5077	-6.96263
 377	1	6	0.16033	-3.64568	-44.7296	-3.05248
 378	1	6	0.171114	-5.82205	-43.4787	-3.22123
 379	1	7	-0.06383	-7.66195	-43.5535	-5.25145
 380	1	3	0.009736	-8.9667	-44.2078	-4.81128
 381	1	3	-0.108991	-10.167	-43.8027	-5.43465
 382	1	3	-0.114952	-11.3732	-44.3404	-4.97137
 383	1	3	-0.090153	-9.00806	-45.1448	-3.74715
 384	1	3	-0.148302	-10.2359	-45.6741	-3.29482
 385	1	3	-0.073574	-11.41	-45.2433	-3.92703
 386	1	2	0.475719	-12.8366	-45.5546	-3.63589
 387	1	1	0.026291	-13.5753	-44.7946	-4.53465
 388	1	2	0.472085	-12.7705	-44.0525	-5.38842
 389	1	3	-0.022377	-14.9999	-44.7436	-4.54095
 390	1	3	-0.088654	-15.6819	-43.6094	-4.03058
 391	1	3	0.02488	-17.1005	-43.5773	-4.03458
 392	1	3	0.040063	-15.728	-45.8383	-5.0513
 393	1	3	-0.361597	-17.127	-45.8126	-5.01555
 394	1	3	0.096629	-17.8211	-44.7084	-4.50345
 395	1	7	-0.018671	-14.8767	-42.409	-3.50833
 396	1	8	-0.317996	-17.731	-42.4254	-3.54869
 397	1	6	0.16694	-10.2796	-46.3769	-2.46507
 398	1	6	0.13386	-8.08878	-45.4482	-3.25344
 399	1	6	0.147907	-10.17	-43.0673	-6.23582
 400	1	5	-0.491298	-13.1131	-43.2733	-6.26069
 401	1	5	-0.47861	-13.2486	-46.2891	-2.75364
 402	1	7	-0.160952	-15.0376	-47.0682	-5.62786
 403	1	9	0.05529	-15.7338	-47.6875	-6.20664
 404	1	9	0.069029	-14.626	-47.6952	-4.82715
 405	1	9	0.053284	-14.2188	-46.7908	-6.30294
 406	1	7	-0.244214	-19.3392	-44.8209	-4.44627
 407	1	9	0.063506	-7.53581	-42.617	-4.69358
 408	1	9	0.093434	-7.74372	-43.249	-6.30281
 409	1	6	0.232522	-17.6829	-46.67	-5.38163
 410	1	9	0.020884	-19.6772	-45.8513	-4.61088
 411	1	9	0.114771	-19.815	-44.2019	-5.2152
 412	1	9	0.181647	-19.7166	-44.522	-3.46012
 413	1	9	0.069456	-14.5873	-41.7514	-4.33891
 414	1	9	0.029017	-13.9596	-42.7217	-2.99461
 415	1	9	-0.058945	-15.4302	-41.8014	-2.78194
 416	1	4	0.329672	-17.1245	-41.6865	-3.22429
 417	1	1	0.452895	10.2363	-54.594	0.742905
 418	1	2	0.074505	10.5401	-53.5267	-0.0996071
 419	1	3	0.001656	9.3642	-53.4356	-0.998994
 420	1	2	0.074191	9.00456	-55.194	0.500399
 421	1	3	0.036519	8.45765	-54.4237	-0.64775
 422	1	5	-0.399533	11.5737	-52.8806	-0.185302
 423	1	5	-0.398173	8.49861	-56.1625	1.04795
 424	1	3	-0.067442	9.12645	-52.5637	-2.06716
 425	1	3	-0.068422	7.26426	-54.5983	-1.35501
 426	1	3	-0.213282	7.00412	-53.7278	-2.43411
 427	1	3	-0.047343	7.92262	-52.7076	-2.78771
 428	1	6	0.159476	9.85434	-51.7983	-2.32539
 429	1	6	0.16033	6.56692	-55.3834	-1.07232
 430	1	6	0.171114	6.07707	-53.8368	-2.99191
 431	1	7	-0.06383	7.60303	-51.7485	-3.92712
 432	1	3	0.009736	6.19345	-51.1832	-3.81032
 433	1	3	-0.108991	5.25423	-51.3967	-4.84223
 434	1	3	-0.114952	3.9517	-50.9135	-4.66022
 435	1	3	-0.090153	5.81078	-50.4863	-2.63755
 436	1	3	-0.148302	4.49294	-50.0123	-2.47223
 437	1	3	-0.073574	3.57922	-50.2472	-3.50751
 438	1	2	0.475719	2.13212	-49.9143	-3.60911
 439	1	1	0.026291	1.72391	-50.4107	-4.8395
 440	1	2	0.472085	2.75685	-51.0206	-5.53816
 441	1	3	-0.022377	0.380974	-50.3514	-5.30895
 442	1	3	-0.088654	-0.105897	-49.1883	-5.9531
 443	1	3	0.02488	-1.4607	-49.1336	-6.36747
 444	1	3	0.040063	-0.465248	-51.4617	-5.10895
 445	1	3	-0.361597	-1.79011	-51.4112	-5.56184
 446	1	3	0.096629	-2.29527	-50.2641	-6.18969
 447	1	7	-0.018671	0.833114	-47.9907	-6.15537
 448	1	8	-0.317996	-1.93843	-47.9612	-6.95445
 449	1	6	0.16694	4.18474	-49.4944	-1.56587
 450	1	6	0.13386	6.53731	-50.336	-1.84257
 451	1	6	0.147907	5.51977	-51.9367	-5.74776
 452	1	5	-0.491298	2.70743	-51.5695	-6.62569
 453	1	5	-0.47861	1.45744	-49.3569	-2.76058
 454	1	7	-0.160952	0.0285457	-52.7234	-4.41111
 455	1	9	0.05529	0.396564	-52.4973	-3.40245
 456	1	9	0.069029	0.843646	-53.1925	-4.97623
 457	1	9	0.053284	-0.768003	-53.4699	-4.30738
 458	1	7	-0.244214	-3.73547	-50.3018	-6.68168
 459	1	9	0.063506	8.3193	-50.9173	-3.93762
 460	1	9	0.093434	7.73784	-52.267	-4.88469
 461	1	6	0.232522	-2.43569	-52.271	-5.41673
 462	1	9	0.020884	-4.4048	-49.7799	-5.9872
 463	1	9	0.114771	-4.09882	-51.3307	-6.78423
 464	1	9	0.181647	-3.83056	-49.8357	-7.67078
 465	1	9	0.069456	1.82498	-48.3116	-6.4973
 466	1	9	0.029017	0.96504	-47.4406	-5.21485
 467	1	9	-0.058945	0.471804	-47.278	-6.90662
 468	1	4	0.329672	-1.22936	-47.279	-7.1825
 469	1	1	0.452895	23.7863	-54.9043	2.64389
 470	1	2	0.074505	23.3414	-54.2659	3.79884
 471	1	3	0.001656	22.5645	-53.1063	3.29387
 472	1	2	0.074191	23.4539	-54.2499	1.46053
 473	1	3	0.036519	22.636	-53.0924	1.91006
 474	1	5	-0.399533	23.5776	-54.5364	4.96601
 475	1	5	-0.398173	23.7669	-54.5257	0.312918
 476	1	3	-0.067442	21.82	-52.1563	4.00118
 477	1	3	-0.068422	21.9776	-52.1137	1.1582
 478	1	3	-0.213282	21.2267	-51.1421	1.85305
 479	1	3	-0.047343	21.1364	-51.1634	3.26662
 480	1	6	0.159476	21.7601	-52.2087	5.08502
 481	1	6	0.16033	22.0333	-52.1238	0.0719612
 482	1	6	0.171114	20.6901	-50.3841	1.2887
 483	1	7	-0.06383	20.2732	-50.1376	3.98713
 484	1	3	0.009736	18.8048	-50.2852	3.61434
 485	1	3	-0.108991	18.0376	-51.3302	4.17552
 486	1	3	-0.114952	16.6964	-51.4495	3.78605
 487	1	3	-0.090153	18.2159	-49.3935	2.68455
 488	1	3	-0.148302	16.8657	-49.5323	2.30449
 489	1	3	-0.073574	16.1293	-50.5767	2.87636
 490	1	2	0.475719	14.7105	-50.9715	2.67302
 491	1	1	0.026291	14.5141	-52.0789	3.48633
 492	1	2	0.472085	15.6547	-52.4328	4.19282
 493	1	3	-0.022377	13.2628	-52.7468	3.59753
 494	1	3	-0.088654	12.8981	-53.7349	2.65234
 495	1	3	0.02488	11.5872	-54.2708	2.68191
 496	1	3	0.040063	12.3588	-52.3549	4.60716
 497	1	3	-0.361597	11.0903	-52.9471	4.66704
 498	1	3	0.096629	10.6926	-53.8908	3.71087
 499	1	7	-0.018671	13.9106	-54.1625	1.57995
 500	1	8	-0.317996	11.1708	-55.1175	1.65656
 501	1	6	0.16694	16.4031	-48.8581	1.58625
 502	1	6	0.13386	18.8107	-48.5954	2.24901
 503	1	6	0.147907	18.4709	-52.0345	4.88213
 504	1	5	-0.491298	15.7866	-53.3384	4.99771
 505	1	5	-0.47861	13.9009	-50.4065	1.95744
 506	1	7	-0.160952	12.7235	-51.2894	5.6331
 507	1	9	0.05529	13.0076	-50.3495	5.14383
 508	1	9	0.069029	13.5636	-51.6189	6.2573
 509	1	9	0.053284	11.8847	-51.0657	6.3033
 510	1	7	-0.244214	9.28992	-54.4723	3.8233
 511	1	9	0.063506	20.3848	-50.2381	5.07441
 512	1	9	0.093434	20.6286	-49.1274	3.74803
 513	1	6	0.232522	10.3951	-52.6459	5.44372
 514	1	9	0.020884	8.58429	-53.9228	3.18842
 515	1	9	0.114771	8.91814	-54.4263	4.85318
 516	1	9	0.181647	9.26766	-55.5285	3.52509
 517	1	9	0.069456	14.883	-54.3982	2.03132
 518	1	9	0.029017	14.0693	-53.3598	0.848944
 519	1	9	-0.058945	13.605	-55.0576	1.02455
 520	1	4	0.329672	11.8962	-55.5167	1.07579
 521	1	1	0.452895	13.0903	-55.1296	-2.44392
 522	1	2	0.074505	12.6693	-56.2051	-1.66616
 523	1	3	0.001656	13.8747	-57.0603	-1.54322
 524	1	2	0.074191	14.4295	-55.181	-2.81735
 525	1	3	0.036519	14.9172	-56.4582	-2.22818
 526	1	5	-0.399533	11.5862	-56.399	-1.13887
 527	1	5	-0.398173	15.0858	-54.3543	-3.42983
 528	1	3	-0.067442	14.0419	-58.2706	-0.861007
 529	1	3	-0.068422	16.1851	-57.047	-2.27762
 530	1	3	-0.213282	16.3707	-58.2776	-1.61074
 531	1	3	-0.047343	15.311	-58.8882	-0.890794
 532	1	6	0.159476	13.207	-58.7151	-0.325254
 533	1	6	0.16033	16.9961	-56.5616	-2.81665
 534	1	6	0.171114	17.3499	-58.7505	-1.64457
 535	1	7	-0.06383	15.5101	-60.2141	-0.157828
 536	1	3	0.009736	16.9167	-60.4131	0.395457
 537	1	3	-0.108991	17.4914	-59.4274	1.22765
 538	1	3	-0.114952	18.8061	-59.6197	1.67046
 539	1	3	-0.090153	17.6586	-61.5717	0.0554221
 540	1	3	-0.148302	18.9777	-61.7503	0.521165
 541	1	3	-0.073574	19.5295	-60.7462	1.32648
 542	1	2	0.475719	20.8927	-60.6202	1.91066
 543	1	1	0.026291	20.9018	-59.3967	2.56566
 544	1	2	0.472085	19.6839	-58.7358	2.48237
 545	1	3	-0.022377	22.0529	-58.8423	3.19171
 546	1	3	-0.088654	22.7906	-57.8219	2.5432
 547	1	3	0.02488	23.8861	-57.2208	3.21306
 548	1	3	0.040063	22.4329	-59.2924	4.47304
 549	1	3	-0.361597	23.5681	-58.7472	5.08771
 550	1	3	0.096629	24.2979	-57.7229	4.46999
 551	1	7	-0.018671	22.4069	-57.3881	1.12341
 552	1	8	-0.317996	24.5338	-56.0999	2.68727
 553	1	6	0.16694	19.5627	-62.6276	0.251829
 554	1	6	0.13386	17.2156	-62.33	-0.584775
 555	1	6	0.147907	16.9468	-58.5239	1.49388
 556	1	5	-0.491298	19.3879	-57.6426	2.93421
 557	1	5	-0.47861	21.8021	-61.4264	1.80459
 558	1	7	-0.160952	21.6331	-60.357	5.21302
 559	1	9	0.05529	21.9953	-60.4982	6.23852
 560	1	9	0.069029	21.7029	-61.3258	4.70299
 561	1	9	0.053284	20.5734	-60.0797	5.27936
 562	1	7	-0.244214	25.4885	-57.1445	5.22518
 563	1	9	0.063506	14.7976	-60.2888	0.673854
 564	1	9	0.093434	15.2536	-61.0337	-0.840551
 565	1	6	0.232522	23.8639	-59.1012	6.06985
 566	1	9	0.020884	26.2607	-56.7458	4.55669
 567	1	9	0.114771	25.9684	-57.9107	5.84554
 568	1	9	0.181647	25.1587	-56.3388	5.89416
 569	1	9	0.069456	23.2871	-57.0909	0.540781
 570	1	9	0.029017	21.7057	-56.5448	1.14425
 571	1	9	-0.058945	21.9352	-58.1967	0.551759
 572	1	4	0.329672	25.4169	-55.8595	3.11029
 573	1	1	0.452895	6.96901	-46.9316	-11.5905
 574	1	2	0.074505	8.34191	-46.7281	-11.6944
 575	1	3	0.001656	8.69587	-45.9926	-10.4547
 576	1	2	0.074191	6.3978	-46.3989	-10.4349
 577	1	3	0.036519	7.54288	-45.7779	-9.71908
 578	1	5	-0.399533	9.12091	-47.1746	-12.5198
 579	1	5	-0.398173	5.26212	-46.5304	-10.0055
 580	1	3	-0.067442	9.95619	-45.6456	-9.95807
 581	1	3	-0.068422	7.58419	-45.1649	-8.46172
 582	1	3	-0.213282	8.84546	-44.7991	-7.94467
 583	1	3	-0.047343	10.0306	-45.0558	-8.67728
 584	1	6	0.159476	10.8512	-45.8914	-10.526
 585	1	6	0.16033	6.6704	-45.03	-7.88714
 586	1	6	0.171114	8.90521	-44.3765	-6.94403
 587	1	7	-0.06383	11.3938	-44.8634	-8.02814
 588	1	3	0.009736	11.9976	-46.228	-7.72156
 589	1	3	-0.108991	11.3204	-47.0963	-6.83795
 590	1	3	-0.114952	11.808	-48.3987	-6.68291
 591	1	3	-0.090153	13.1567	-46.6763	-8.40174
 592	1	3	-0.148302	13.634	-47.993	-8.22769
 593	1	3	-0.073574	12.9275	-48.8397	-7.36255
 594	1	2	0.475719	13.1195	-50.2843	-7.0518
 595	1	1	0.026291	12.0747	-50.6201	-6.20009
 596	1	2	0.472085	11.2483	-49.5421	-5.9174
 597	1	3	-0.022377	11.8031	-51.9387	-5.73745
 598	1	3	-0.088654	12.2256	-52.3536	-4.45144
 599	1	3	0.02488	11.8919	-53.6521	-3.99055
 600	1	3	0.040063	11.0498	-52.807	-6.55464
 601	1	3	-0.361597	10.7109	-54.0806	-6.08031
 602	1	3	0.096629	11.1108	-54.5067	-4.80654
 603	1	7	-0.018671	13.0648	-51.399	-3.58965
 604	1	8	-0.317996	12.262	-54.0216	-2.69788
 605	1	6	0.16694	14.5009	-48.3583	-8.77479
 606	1	6	0.13386	13.667	-46.0143	-9.09613
 607	1	6	0.147907	10.4096	-46.7889	-6.33016
 608	1	5	-0.491298	10.2418	-49.5282	-5.22785
 609	1	5	-0.47861	13.9695	-51.0179	-7.52611
 610	1	7	-0.160952	10.5678	-52.3829	-7.93706
 611	1	9	0.05529	9.97159	-53.1669	-8.4193
 612	1	9	0.069029	11.4165	-52.1672	-8.59846
 613	1	9	0.053284	9.9408	-51.4845	-7.88017
 614	1	7	-0.244214	10.6194	-55.8667	-4.33236
 615	1	9	0.063506	12.0487	-44.286	-8.69312
 616	1	9	0.093434	11.3085	-44.2804	-7.10227
 617	1	6	0.232522	10.1123	-54.74	-6.70101
 618	1	9	0.020884	9.84832	-56.2761	-4.9967
 619	1	9	0.114771	10.1739	-55.7957	-3.33214
 620	1	9	0.181647	11.4388	-56.5929	-4.2964
 621	1	9	0.069456	12.6501	-50.3841	-3.58567
 622	1	9	0.029017	14.0912	-51.3399	-3.97404
 623	1	9	-0.058945	13.1293	-51.6994	-2.53795
 624	1	4	0.329672	12.5369	-53.2805	-2.05956
 625	1	1	0.452895	8.98241	-41.2574	-22.6722
 626	1	2	0.074505	8.768	-42.4804	-23.3038
 627	1	3	0.001656	9.7166	-43.4049	-22.6332
 628	1	2	0.074191	10.0141	-41.2653	-21.739
 629	1	3	0.036519	10.4746	-42.6824	-21.7255
 630	1	5	-0.399533	8.00518	-42.7524	-24.2179
 631	1	5	-0.398173	10.4642	-40.3304	-21.0953
 632	1	3	-0.067442	9.85928	-44.7906	-22.7714
 633	1	3	-0.068422	11.4592	-43.3068	-20.9518
 634	1	3	-0.213282	11.6218	-44.7015	-21.0769
 635	1	3	-0.047343	10.8132	-45.4499	-21.9658
 636	1	6	0.159476	9.21289	-45.34	-23.4498
 637	1	6	0.16033	12.0584	-42.7352	-20.2524
 638	1	6	0.171114	12.3552	-45.2032	-20.4504