pySIMM System Object

2602 atoms
2851 bonds
4950 angles
7296 dihedrals
800 impropers

9 atom types
12 bond types
20 angle types
8 dihedral types
4 improper types

-207.246255 207.246255 xlo xhi
-207.246255 207.246255 ylo yhi
-207.246255 207.246255 zlo zhi

Masses

   1	14.01	# n
   2	12.01	# c
   3	12.01	# ca
   4	1.008	# hn
   5	16.0	# o
   6	1.008	# ha
   7	12.01	# c3
   8	14.01	# nh
   9	1.008	# hc

Pair Coeffs

   1	0.17	3.249998523775958	# n
   2	0.086	3.3996695084235347	# c
   3	0.086	3.3996695084235347	# ca
   4	0.0157	1.069078461768407	# hn
   5	0.21	2.959921901149463	# o
   6	0.015	2.59964245953351	# ha
   7	0.1094	3.3996695084235347	# c3
   8	0.17	3.249998523775958	# nh
   9	0.0157	2.649532787749369	# hc

Bond Coeffs

   1	384.2	1.4121	# ca,n
   2	404.6	1.0121	# hn,nh
   3	403.2	1.0129	# hn,n
   4	417.9	1.3859	# ca,nh
   5	461.1	1.3984	# ca,ca
   6	427.6	1.3789	# c,n
   7	345.9	1.4906	# c,ca
   8	345.8	1.086	# ca,ha
   9	321.0	1.5156	# c3,ca
  10	330.6	1.0969	# c3,hc
  11	637.7	1.2183	# c,o
  12	452.5	1.4016	# n,nh

Angle Coeffs

   1	63.53	120.77	# c3,ca,ca
   2	39.4	107.58	# hc,c3,hc
   3	66.62	120.02	# ca,ca,ca
   4	48.42	116.07	# ca,nh,hn
   5	48.18	119.88	# ca,ca,ha
   6	63.74	127.08	# c,n,c
   7	67.87	120.19	# ca,ca,n
   8	40.07	115.12	# hn,nh,hn
   9	68.72	122.6	# ca,c,o
  10	48.33	117.55	# c,n,hn
  11	64.28	120.33	# c,ca,ca
  12	67.68	115.25	# ca,c,n
  13	63.56	112.24	# ca,c3,ca
  14	74.22	123.05	# n,c,o
  15	63.82	123.71	# c,n,ca
  16	46.8	110.47	# ca,c3,hc
  17	68.29	120.95	# ca,ca,nh
  18	67.01	118.71	# c,n,nh
  19	67.61	116.03	# ca,nh,n
  20	50.88	108.17	# hn,nh,n

Dihedral Coeffs

   1	1	3.625	2	180	# X,ca,ca,X
   2	1	1.0	2	180	# X,c,ca,X
   3	1	0.0	2	0	# X,c3,ca,X
   4	1	2.5	2	180	# X,c,n,X
   5	1	1.05	2	180	# X,ca,nh,X
   6	1	0.45	2	180	# X,ca,n,X
   7	2	2.5	2	180	2.0	1	0	# hn,n,c,o
   8	1	1.1	2	0	# X,n,nh,X

Improper Coeffs

   1	1.1	-1	2	# ca,X,X,ha
   2	10.5	-1	2	# c,X,X,o
   3	1.1	-1	2	# ca,ca,ca,c3
   4	1.1	-1	2	# n,X,X,hn

Atoms

   1	1	1	0.452895	-45.4154	0.686269	23.0986
   2	1	2	0.074505	-44.2629	0.315473	23.7859
   3	1	3	0.001656	-44.3801	1.02108	25.0878
   4	1	2	0.074191	-46.2973	1.47433	23.832
   5	1	3	0.036519	-45.5876	1.70114	25.1183
   6	1	5	-0.399533	-43.3703	-0.441268	23.4362
   7	1	5	-0.398173	-47.4007	1.89118	23.5161
   8	1	3	-0.067442	-43.4605	1.11338	26.1379
   9	1	3	-0.068422	-45.9505	2.49336	26.2127
  10	1	3	-0.213282	-45.035	2.60236	27.2806
  11	1	3	-0.047343	-43.7905	1.92783	27.2433
  12	1	6	0.159476	-42.5026	0.605209	26.0678
  13	1	6	0.16033	-46.8953	3.03231	26.2123
  14	1	6	0.171114	-45.2742	3.24626	28.1238
  15	1	7	-0.06383	-42.7722	2.1671	28.3482
  16	1	3	0.009736	-42.1257	3.53585	28.1859
  17	1	3	-0.108991	-42.3269	4.53884	29.1594
  18	1	3	-0.114952	-41.7766	5.80604	28.9259
  19	1	3	-0.090153	-41.3764	3.8232	27.018
  20	1	3	-0.148302	-40.8367	5.10625	26.7986
  21	1	3	-0.073574	-41.06	6.08327	27.7762
  22	1	2	0.475719	-40.6968	7.52406	27.7926
  23	1	1	0.026291	-41.2388	8.02953	28.9646
  24	1	2	0.472085	-41.8854	7.06062	29.7186
  25	1	3	-0.022377	-41.2263	9.4128	29.2921
  26	1	3	-0.088654	-40.1482	9.98241	30.0148
  27	1	3	0.02488	-40.1695	11.3666	30.3107
  28	1	3	0.040063	-42.3047	10.2175	28.8642
  29	1	3	-0.361597	-42.3083	11.5852	29.1646
  30	1	3	0.096629	-41.2532	12.1627	29.8822
  31	1	7	-0.018671	-38.9919	9.10831	30.5124
  32	1	8	-0.317996	-39.1325	11.9663	31.0207
  33	1	6	0.16694	-40.2891	5.34256	25.8881
  34	1	6	0.13386	-41.2412	3.05581	26.2605
  35	1	6	0.147907	-42.9175	4.35417	30.0533
  36	1	5	-0.491298	-42.4907	7.20182	30.7675
  37	1	5	-0.47861	-40.1197	8.13847	26.9094
  38	1	7	-0.160952	-43.4762	9.63574	28.0808
  39	1	9	0.05529	-44.1705	10.4175	27.7493
  40	1	9	0.069029	-44.047	8.92851	28.6951
  41	1	9	0.053284	-43.1334	9.11085	27.1807
  42	1	7	-0.244214	-41.2934	13.6544	30.1736
  43	1	9	0.063506	-43.2616	2.08491	29.3271
  44	1	9	0.093434	-41.9975	1.39009	28.3353
  45	1	6	0.232522	-43.1325	12.2062	28.8287
  46	1	9	0.020884	-42.2217	14.1228	29.8245
  47	1	9	0.114771	-40.4532	14.1606	29.6839
  48	1	9	0.181647	-41.2073	13.833	31.2517
  49	1	9	0.069456	-39.1578	8.80844	31.5548
  50	1	9	0.029017	-38.0322	9.63515	30.4666
  51	1	9	-0.058945	-38.8654	8.19452	29.92
  52	1	4	0.329672	-38.2084	11.5402	30.9685
  53	1	1	0.452895	-40.1784	10.8077	25.2409
  54	1	2	0.074505	-39.2802	10.371	24.2705
  55	1	3	0.001656	-40.1147	10.2048	23.0529
  56	1	2	0.074191	-41.4916	10.9346	24.7917
  57	1	3	0.036519	-41.4229	10.5395	23.3614
  58	1	5	-0.399533	-38.093	10.1106	24.3804
  59	1	5	-0.398173	-42.4944	11.2579	25.4094
  60	1	3	-0.067442	-39.7546	9.75441	21.778
  61	1	3	-0.068422	-42.4431	10.4477	22.4086
  62	1	3	-0.213282	-42.0994	10.0035	21.1146
  63	1	3	-0.047343	-40.7647	9.65266	20.7957
  64	1	6	0.159476	-38.7231	9.48195	21.5703
  65	1	6	0.16033	-43.4674	10.7004	22.6728
  66	1	6	0.171114	-42.8765	9.91059	20.3594
  67	1	7	-0.06383	-40.4304	9.14272	19.4002
  68	1	3	0.009736	-41.261	7.92389	19.0196
  69	1	3	-0.108991	-41.2418	6.77857	19.8452
  70	1	3	-0.114952	-42.0233	5.67833	19.4704
  71	1	3	-0.090153	-42.0544	7.93614	17.8456
  72	1	3	-0.148302	-42.832	6.81584	17.4849
  73	1	3	-0.073574	-42.7956	5.69487	18.3243
  74	1	2	0.475719	-43.4806	4.37838	18.2065
  75	1	1	0.026291	-43.0613	3.64393	19.3073
  76	1	2	0.472085	-42.1905	4.35307	20.1239
  77	1	3	-0.022377	-43.4438	2.29556	19.5544
  78	1	3	-0.088654	-44.4675	1.9945	20.4869
  79	1	3	0.02488	-44.7598	0.63758	20.784
  80	1	3	0.040063	-42.7582	1.25863	18.8868
  81	1	3	-0.361597	-43.0945	-0.0753866	19.1501
  82	1	3	0.096629	-44.0812	-0.3923	20.0932
  83	1	7	-0.018671	-45.2502	3.12988	21.1563
  84	1	8	-0.317996	-45.6744	0.272021	21.7763
  85	1	6	0.16694	-43.4415	6.81305	16.5834
  86	1	6	0.13386	-42.0663	8.81752	17.2099
  87	1	6	0.147907	-40.643	6.74516	20.7528
  88	1	5	-0.491298	-41.6357	3.97648	21.1424
  89	1	5	-0.47861	-44.2235	4.02683	17.3053
  90	1	7	-0.160952	-41.6452	1.5522	17.8878
  91	1	9	0.05529	-40.8427	2.13843	18.3527
  92	1	9	0.069029	-42.0274	2.11605	17.0278
  93	1	9	0.053284	-41.1928	0.632035	17.4989
  94	1	7	-0.244214	-44.3565	-1.86136	20.3883
  95	1	9	0.063506	-40.5848	9.95299	18.6767
  96	1	9	0.093434	-39.3663	8.88305	19.3318
  97	1	6	0.232522	-42.5578	-0.867974	18.6398
  98	1	9	0.020884	-45.4315	-2.07391	20.4385
  99	1	9	0.114771	-43.8979	-2.15288	21.3421
 100	1	9	0.181647	-43.935	-2.50995	19.6118
 101	1	9	0.069456	-46.3033	2.85944	21.2993
 102	1	9	0.029017	-45.2632	4.04798	20.558
 103	1	9	-0.058945	-44.821	3.37746	22.135
 104	1	4	0.329672	-45.9043	-0.708122	21.8256
 105	1	1	0.452895	-26.3669	16.6533	32.8998
 106	1	2	0.074505	-26.1226	15.4269	32.2864
 107	1	3	0.001656	-27.453	15.017	31.756
 108	1	2	0.074191	-27.6791	17.1013	32.7888
 109	1	3	0.036519	-28.3692	16.0145	32.0486
 110	1	5	-0.399533	-25.0676	14.824	32.1735
 111	1	5	-0.398173	-28.172	18.1412	33.1971
 112	1	3	-0.067442	-27.8339	13.8553	31.0703
 113	1	3	-0.068422	-29.7069	15.9146	31.6568
 114	1	3	-0.213282	-30.1076	14.7566	30.9597
 115	1	3	-0.047343	-29.1849	13.716	30.6735
 116	1	6	0.159476	-27.0963	13.0864	30.8548
 117	1	6	0.16033	-30.408	16.7139	31.8864
 118	1	6	0.171114	-31.1452	14.6758	30.6444
 119	1	7	-0.06383	-29.6191	12.4532	29.9257
 120	1	3	0.009736	-31.1237	12.2004	29.955
 121	1	3	-0.108991	-31.9101	12.4828	28.8163
 122	1	3	-0.114952	-33.2989	12.3193	28.9119
 123	1	3	-0.090153	-31.743	11.7474	31.1459
 124	1	3	-0.148302	-33.1439	11.5961	31.2232
 125	1	3	-0.073574	-33.9011	11.9009	30.0839
 126	1	2	0.475719	-35.3771	11.9262	29.8822
 127	1	1	0.026291	-35.566	12.3731	28.5807
 128	1	2	0.472085	-34.3681	12.6078	27.9184
 129	1	3	-0.022377	-36.8458	12.6703	28.0297
 130	1	3	-0.088654	-37.6931	11.6391	27.5522
 131	1	3	0.02488	-38.9624	11.9703	27.0098
 132	1	3	0.040063	-37.265	14.0169	27.9758
 133	1	3	-0.361597	-38.5187	14.3298	27.4384
 134	1	3	0.096629	-39.3722	13.3256	26.9649
 135	1	7	-0.018671	-37.2121	10.1812	27.5722
 136	1	8	-0.317996	-39.8194	10.9482	26.5945
 137	1	6	0.16694	-33.63	11.2778	32.1434
 138	1	6	0.13386	-31.1338	11.5455	32.0233
 139	1	6	0.147907	-31.4629	12.8518	27.8959
 140	1	5	-0.491298	-34.2031	13.0533	26.7955
 141	1	5	-0.47861	-36.2285	11.6824	30.7244
 142	1	7	-0.160952	-36.3914	15.1534	28.4946
 143	1	9	0.05529	-36.9432	16.1	28.5421
 144	1	9	0.069029	-35.5265	15.312	27.8381
 145	1	9	0.053284	-36.0212	14.9446	29.5058
 146	1	7	-0.244214	-40.7444	13.753	26.465
 147	1	9	0.063506	-29.2738	12.5186	28.886
 148	1	9	0.093434	-29.1055	11.581	30.35
 149	1	6	0.232522	-38.8413	15.3652	27.402
 150	1	9	0.020884	-40.9631	14.7999	26.7084
 151	1	9	0.114771	-41.5332	13.146	26.924
 152	1	9	0.181647	-40.8214	13.645	25.3781
 153	1	9	0.069456	-36.7242	9.92312	26.6241
 154	1	9	0.029017	-38.0305	9.47236	27.7277
 155	1	9	-0.058945	-36.4927	9.97995	28.373
 156	1	4	0.329672	-39.6207	10.0069	26.9188
 157	1	1	0.452895	-11.0195	21.201	39.6123
 158	1	2	0.074505	-12.1726	20.7275	40.2362
 159	1	3	0.001656	-13.2748	21.1519	39.3333
 160	1	2	0.074191	-11.246	21.8245	38.3892
 161	1	3	0.036519	-12.7258	21.7937	38.2347
 162	1	5	-0.399533	-12.2784	20.0525	41.2483
 163	1	5	-0.398173	-10.429	22.216	37.5712
 164	1	3	-0.067442	-14.6593	20.997	39.4759
 165	1	3	-0.068422	-13.5332	22.2929	37.206
 166	1	3	-0.213282	-14.9324	22.1502	37.3329
 167	1	3	-0.047343	-15.4994	21.5164	38.4656
 168	1	6	0.159476	-15.0654	20.5107	40.3593
 169	1	6	0.16033	-13.0846	22.7912	36.3492
 170	1	6	0.171114	-15.5822	22.5518	36.5582
 171	1	7	-0.06383	-17.0145	21.4678	38.634
 172	1	3	0.009736	-17.7478	20.3525	37.8901
 173	1	3	-0.108991	-19.1585	20.403	37.8518
 174	1	3	-0.114952	-19.8502	19.3698	37.208
 175	1	3	-0.090153	-17.0708	19.2644	37.2794
 176	1	3	-0.148302	-17.7889	18.2315	36.6356
 177	1	3	-0.073574	-19.1889	18.3109	36.6178
 178	1	2	0.475719	-20.2129	17.3751	36.0681
 179	1	1	0.026291	-21.4417	17.944	36.3781
 180	1	2	0.472085	-21.3118	19.1493	37.0542
 181	1	3	-0.022377	-22.706	17.3393	36.1142
 182	1	3	-0.088654	-23.4049	17.6143	34.9135
 183	1	3	0.02488	-24.7164	17.0991	34.7196
 184	1	3	0.040063	-23.287	16.5208	37.1021
 185	1	3	-0.361597	-24.5841	16.0305	36.9154
 186	1	3	0.096629	-25.3175	16.3315	35.7574
 187	1	7	-0.018671	-22.7205	18.4989	33.8598
 188	1	8	-0.317996	-25.3657	17.4267	33.5206
 189	1	6	0.16694	-17.2775	17.3875	36.1767
 190	1	6	0.13386	-15.9861	19.2085	37.3117
 191	1	6	0.147907	-19.7077	21.2142	38.3246
 192	1	5	-0.491298	-22.1959	19.8738	37.4777
 193	1	5	-0.47861	-19.9972	16.3196	35.4978
 194	1	7	-0.160952	-22.5513	16.1845	38.3936
 195	1	9	0.05529	-22.3626	17.0877	38.9872
 196	1	9	0.069029	-21.5873	15.7048	38.1824
 197	1	9	0.053284	-23.1254	15.4932	39.0222
 198	1	7	-0.244214	-26.7628	15.8473	35.7303
 199	1	9	0.063506	-17.2568	21.3907	39.7017
 200	1	9	0.093434	-17.4296	22.4341	38.3196
 201	1	6	0.232522	-25.0332	15.4288	37.6983
 202	1	9	0.020884	-26.9039	15.03	35.0133
 203	1	9	0.114771	-27.4466	16.6682	35.4827
 204	1	9	0.181647	-27.0804	15.4735	36.7098
 205	1	9	0.069456	-21.7286	18.1036	33.6058
 206	1	9	0.029017	-22.5854	19.5191	34.2412
 207	1	9	-0.058945	-23.269	18.581	32.9144
 208	1	4	0.329672	-24.8261	17.9016	32.8127
 209	1	1	0.452895	2.46289	29.0854	40.6253
 210	1	2	0.074505	1.1713	28.5667	40.5984
 211	1	3	0.001656	1.03984	27.9912	39.2343
 212	1	2	0.074191	3.16777	28.938	39.4357
 213	1	3	0.036519	2.22594	28.2027	38.5493
 214	1	5	-0.399533	0.321276	28.582	41.4744
 215	1	5	-0.398173	4.27276	29.3663	39.1448
 216	1	3	-0.067442	-0.048556	27.3452	38.6355
 217	1	3	-0.068422	2.39149	27.7649	37.231
 218	1	3	-0.213282	1.31148	27.0966	36.6148
 219	1	3	-0.047343	0.0931416	26.8825	37.3067
 220	1	6	0.159476	-0.973537	27.2107	39.1912
 221	1	6	0.16033	3.32837	27.9432	36.7073
 222	1	6	0.171114	1.41914	26.7535	35.5883
 223	1	7	-0.06383	-1.06412	26.1821	36.5977
 224	1	3	0.009736	-1.88299	25.2672	37.503
 225	1	3	-0.108991	-3.28079	25.4433	37.6093
 226	1	3	-0.114952	-3.99452	24.589	38.4609
 227	1	3	-0.090153	-1.24322	24.241	38.2414
 228	1	3	-0.148302	-1.97918	23.3975	39.0999
 229	1	3	-0.073574	-3.36292	23.5986	39.1891
 230	1	2	0.475719	-4.38885	22.9044	40.0156
 231	1	1	0.026291	-5.59095	23.5358	39.7257
 232	1	2	0.472085	-5.4445	24.5552	38.7942
 233	1	3	-0.022377	-6.81985	23.2351	40.3815
 234	1	3	-0.088654	-7.67129	22.2078	39.9027
 235	1	3	0.02488	-8.90357	21.9523	40.5595
 236	1	3	0.040063	-7.17932	23.9828	41.5219
 237	1	3	-0.361597	-8.38856	23.7109	42.1731
 238	1	3	0.096629	-9.24948	22.7065	41.7097
 239	1	7	-0.018671	-7.26463	21.4099	38.6557
 240	1	8	-0.317996	-9.7201	20.9207	40.0835
 241	1	6	0.16694	-1.49329	22.6185	39.6842
 242	1	6	0.13386	-0.167169	24.11	38.1575
 243	1	6	0.147907	-3.80015	26.2226	37.0561
 244	1	5	-0.491298	-6.29782	25.314	38.3687
 245	1	5	-0.47861	-4.18918	21.9916	40.7992
 246	1	7	-0.160952	-6.27569	25.0784	42.076
 247	1	9	0.05529	-6.67645	25.5077	43.0023
 248	1	9	0.069029	-6.16637	25.8992	41.3561
 249	1	9	0.053284	-5.27612	24.6885	42.3058
 250	1	7	-0.244214	-10.5148	22.4472	42.5133
 251	1	9	0.063506	-1.7126	26.9448	36.148
 252	1	9	0.093434	-0.682787	25.5884	35.7573
 253	1	6	0.232522	-8.65731	24.2859	43.0534
 254	1	9	0.020884	-11.4005	22.8295	41.992
 255	1	9	0.114771	-10.4793	22.9313	43.496
 256	1	9	0.181647	-10.6503	21.3743	42.6974
 257	1	9	0.069456	-6.1927	21.1793	38.6506
 258	1	9	0.029017	-7.48816	21.9802	37.7451
 259	1	9	-0.058945	-7.77717	20.4436	38.5752
 260	1	4	0.329672	-9.29753	20.3252	39.3857
 261	1	1	0.452895	17.3258	35.5516	44.297
 262	1	2	0.074505	16.5683	34.4496	44.6829
 263	1	3	0.001656	15.1952	34.9933	44.8483
 264	1	2	0.074191	16.6093	36.7393	44.2014
 265	1	3	0.036519	15.2175	36.347	44.5502
 266	1	5	-0.399533	16.9323	33.3013	44.8801
 267	1	5	-0.398173	17.0219	37.8645	43.9728
 268	1	3	-0.067442	14.0248	34.3563	45.2793
 269	1	3	-0.068422	14.0618	37.1304	44.6382
 270	1	3	-0.213282	12.8684	36.5039	45.0574
 271	1	3	-0.047343	12.8461	35.1269	45.3902
 272	1	6	0.159476	14.0392	33.3007	45.5401
 273	1	6	0.16033	14.0993	38.1927	44.4054
 274	1	6	0.171114	11.9617	37.0979	45.1482
 275	1	7	-0.06383	11.5684	34.4928	45.9308
 276	1	3	0.009736	10.7797	33.6258	44.9506
 277	1	3	-0.108991	9.6452	32.94	45.4387
 278	1	3	-0.114952	8.91432	32.1378	44.5533
 279	1	3	-0.090153	11.1429	33.4937	43.5844
 280	1	3	-0.148302	10.396	32.6739	42.7109
 281	1	3	-0.073574	9.28163	32.0016	43.2294
 282	1	2	0.475719	8.31639	31.0761	42.5733
 283	1	1	0.026291	7.41125	30.7151	43.5635
 284	1	2	0.472085	7.69736	31.3145	44.7839
 285	1	3	-0.022377	6.31843	29.8218	43.3536
 286	1	3	-0.088654	5.1596	30.2464	42.6551
 287	1	3	0.02488	4.0954	29.3347	42.4316
 288	1	3	0.040063	6.40487	28.5003	43.8415
 289	1	3	-0.361597	5.33712	27.6167	43.638
 290	1	3	0.096629	4.18526	28.0159	42.9466
 291	1	7	-0.018671	5.08065	31.6796	42.109
 292	1	8	-0.317996	2.97201	29.7906	41.7337
 293	1	6	0.16694	10.6713	32.5618	41.664
 294	1	6	0.13386	12.0063	34.0232	43.1919
 295	1	6	0.147907	9.33803	33.0248	46.4788
 296	1	5	-0.491298	7.09444	31.2062	45.838
 297	1	5	-0.47861	8.33159	30.7284	41.4049
 298	1	7	-0.160952	7.63092	28.0014	44.5972
 299	1	9	0.05529	7.59227	26.9181	44.7642
 300	1	9	0.069029	7.70538	28.4802	45.5817
 301	1	9	0.053284	8.55403	28.2106	44.0429
 302	1	7	-0.244214	3.06022	26.9968	42.8216
 303	1	9	0.063506	11.8249	33.8849	46.8082
 304	1	9	0.093434	10.9054	35.2787	46.3143
 305	1	6	0.232522	5.40022	26.6064	44.0301
 306	1	9	0.020884	3.21213	26.1388	43.4881
 307	1	9	0.114771	2.99265	26.6037	41.8009
 308	1	9	0.181647	2.0941	27.4417	43.0929
 309	1	9	0.069456	5.54018	31.7352	41.1131
 310	1	9	0.029017	5.59759	32.3978	42.7567
 311	1	9	-0.058945	4.0503	32.0463	42.0221
 312	1	4	0.329672	2.97517	30.7694	41.4862
 313	1	1	0.452895	31.8733	43.8776	40.5638
 314	1	2	0.074505	31.3862	43.427	41.7866
 315	1	3	0.001656	30.4138	42.37	41.4154
 316	1	2	0.074191	31.2728	43.2971	39.452
 317	1	3	0.036519	30.3393	42.295	40.0333
 318	1	5	-0.399533	31.6943	43.7761	42.9152
 319	1	5	-0.398173	31.4497	43.5473	38.2707
 320	1	3	-0.067442	29.6943	41.4995	42.2389
 321	1	3	-0.068422	29.5211	41.3523	39.4003
 322	1	3	-0.213282	28.7859	40.4632	40.2145
 323	1	3	-0.047343	28.8748	40.5274	41.6268
 324	1	6	0.159476	29.7975	41.5635	43.3192
 325	1	6	0.16033	29.4803	41.2998	38.3143
 326	1	6	0.171114	28.1568	39.7073	39.7485
 327	1	7	-0.06383	28.1343	39.5139	42.4877
 328	1	3	0.009736	26.6299	39.4928	42.2542
 329	1	3	-0.108991	25.972	38.2553	42.0922
 330	1	3	-0.114952	24.5808	38.2602	41.9402
 331	1	3	-0.090153	25.8816	40.6965	42.2536
 332	1	3	-0.148302	24.4788	40.6783	42.0979
 333	1	3	-0.073574	23.8516	39.434	41.9466
 334	1	2	0.475719	22.408	39.0825	41.828
 335	1	1	0.026291	22.3689	37.6954	41.7746
 336	1	2	0.472085	23.6328	37.1244	41.8153
 337	1	3	-0.022377	21.1742	36.9213	41.7481
 338	1	3	-0.088654	20.4924	36.6228	42.9534
 339	1	3	0.02488	19.3522	35.7783	42.9271
 340	1	3	0.040063	20.716	36.399	40.5221
 341	1	3	-0.361597	19.5999	35.553	40.5085
 342	1	3	0.096629	18.9266	35.2209	41.693
 343	1	7	-0.018671	20.9984	37.2381	44.268
 344	1	8	-0.317996	18.7238	35.4848	44.1416
 345	1	6	0.16694	23.8938	41.5959	42.1139
 346	1	6	0.13386	26.3907	41.6474	42.3887
 347	1	6	0.147907	26.517	37.3142	42.1095
 348	1	5	-0.491298	23.9268	35.9414	41.8009
 349	1	5	-0.47861	21.4703	39.8612	41.8397
 350	1	7	-0.160952	21.4286	36.7009	39.2096
 351	1	9	0.05529	20.8258	36.401	38.3436
 352	1	9	0.069029	22.3828	36.1623	39.1517
 353	1	9	0.053284	21.6337	37.7735	39.1031
 354	1	7	-0.244214	17.787	34.2162	41.5844
 355	1	9	0.063506	28.5584	38.5199	42.2961
 356	1	9	0.093434	28.3205	39.7092	43.5513
 357	1	6	0.232522	19.2671	35.1259	39.5677
 358	1	9	0.020884	17.7817	33.7119	40.6102
 359	1	9	0.114771	16.8134	34.7053	41.7006
 360	1	9	0.181647	17.8834	33.4308	42.3454
 361	1	9	0.069456	20.7454	38.3059	44.3114
 362	1	9	0.029017	22.088	37.1496	44.3598
 363	1	9	-0.058945	20.5829	36.7686	45.1672
 364	1	4	0.329672	19.138	35.8968	44.9648
 365	1	1	0.452895	44.3219	50.3637	31.6094
 366	1	2	0.074505	43.1403	51.0545	31.8654
 367	1	3	0.001656	42.1042	49.9918	31.9026
 368	1	2	0.074191	44.1772	48.9824	31.5302
 369	1	3	0.036519	42.7178	48.7635	31.7128
 370	1	5	-0.399533	42.9751	52.2451	32.0818
 371	1	5	-0.398173	45.0446	48.1283	31.4419
 372	1	3	-0.067442	40.7277	50.0978	32.1262
 373	1	3	-0.068422	41.9858	47.5714	31.7466
 374	1	3	-0.213282	40.596	47.6562	31.9775
 375	1	3	-0.047343	39.9655	48.9102	32.1653
 376	1	6	0.159476	40.275	51.0723	32.2896
 377	1	6	0.16033	42.4866	46.6147	31.6141
 378	1	6	0.171114	40.007	46.7431	32.0347
 379	1	7	-0.06383	38.4798	48.9678	32.4894
 380	1	3	0.009736	38.2175	48.5178	33.9199
 381	1	3	-0.108991	37.3037	47.4733	34.1852
 382	1	3	-0.114952	37.138	47.0635	35.5153
 383	1	3	-0.090153	38.9246	49.128	34.9858
 384	1	3	-0.148302	38.745	48.6995	36.3152
 385	1	3	-0.073574	37.8412	47.657	36.547
 386	1	2	0.475719	37.4649	46.9841	37.8163
 387	1	1	0.026291	36.5448	46.0091	37.4601
 388	1	2	0.472085	36.2858	45.9898	36.0962
 389	1	3	-0.022377	35.9565	45.1277	38.4086
 390	1	3	-0.088654	34.6642	45.3845	38.9295
 391	1	3	0.02488	34.1392	44.5495	39.9484
 392	1	3	0.040063	36.7108	44.0334	38.879
 393	1	3	-0.361597	36.1867	43.2201	39.8893
 394	1	3	0.096629	34.9248	43.474	40.4425
 395	1	7	-0.018671	33.8271	46.5436	38.3664
 396	1	8	-0.317996	32.876	44.8598	40.464
 397	1	6	0.16694	39.2961	49.151	37.1378
 398	1	6	0.13386	39.6321	49.9264	34.7791
 399	1	6	0.147907	36.7503	46.9836	33.3873
 400	1	5	-0.491298	35.5291	45.2575	35.4827
 401	1	5	-0.47861	37.9015	47.2397	38.9262
 402	1	7	-0.160952	38.105	43.7275	38.3447
 403	1	9	0.05529	38.4452	42.7303	38.6498
 404	1	9	0.069029	38.8352	44.4544	38.7221
 405	1	9	0.053284	38.1293	43.7539	37.2483
 406	1	7	-0.244214	34.4971	42.5874	41.6034
 407	1	9	0.063506	38.0952	49.9863	32.3507
 408	1	9	0.093434	37.9259	48.3406	31.7794
 409	1	6	0.232522	36.7829	42.397	40.2706
 410	1	9	0.020884	35.3276	41.9764	41.9778
 411	1	9	0.114771	33.7005	41.8967	41.3063
 412	1	9	0.181647	34.1484	43.1934	42.4488
 413	1	9	0.069456	33.2329	46.2003	37.5087
 414	1	9	0.029017	34.4447	47.3829	38.0261
 415	1	9	-0.058945	33.1341	46.9655	39.1047
 416	1	4	0.329672	32.4414	45.6961	40.1015
 417	1	1	0.452895	58.1741	53.5454	26.7142
 418	1	2	0.074505	57.4726	52.4086	26.3142
 419	1	3	0.001656	57.1288	51.727	27.5946
 420	1	2	0.074191	58.3312	53.6717	28.0908
 421	1	3	0.036519	57.6298	52.4853	28.642
 422	1	5	-0.399533	57.2712	51.9944	25.1822
 423	1	5	-0.398173	58.9705	54.501	28.7203
 424	1	3	-0.067442	56.4723	50.5093	27.8277
 425	1	3	-0.068422	57.485	52.0844	29.9732
 426	1	3	-0.213282	56.8156	50.871	30.2283
 427	1	3	-0.047343	56.316	50.0794	29.1658
 428	1	6	0.159476	56.1124	49.9073	26.9958
 429	1	6	0.16033	57.8917	52.6931	30.7774
 430	1	6	0.171114	56.7009	50.5355	31.2558
 431	1	7	-0.06383	55.6644	48.7365	29.4716
 432	1	3	0.009736	54.1648	48.6829	29.1969
 433	1	3	-0.108991	53.3163	49.7483	29.5753
 434	1	3	-0.114952	51.9418	49.6225	29.3222
 435	1	3	-0.090153	53.6125	47.5257	28.5949
 436	1	3	-0.148302	52.231	47.4225	28.3406
 437	1	3	-0.073574	51.4162	48.4937	28.7212
 438	1	2	0.475719	49.9454	48.6695	28.5928
 439	1	1	0.026291	49.6759	49.9193	29.1313
 440	1	2	0.472085	50.818	50.5593	29.5957
 441	1	3	-0.022377	48.373	50.4916	29.1709
 442	1	3	-0.088654	47.6075	50.4548	30.3615
 443	1	3	0.02488	46.3069	51.0209	30.3766
 444	1	3	0.040063	47.8522	51.0908	28.0057
 445	1	3	-0.361597	46.5707	51.6527	28.0333
 446	1	3	0.096629	45.7967	51.631	29.2016
 447	1	7	-0.018671	48.2066	49.7862	31.6079
 448	1	8	-0.317996	45.5802	50.9951	31.5694
 449	1	6	0.16694	51.8038	46.5428	27.8657
 450	1	6	0.13386	54.2626	46.7015	28.3188
 451	1	6	0.147907	53.7092	50.6445	30.0495
 452	1	5	-0.491298	50.8992	51.6485	30.138
 453	1	5	-0.47861	49.1608	47.8703	28.1086
 454	1	7	-0.160952	48.6562	51.1594	26.7129
 455	1	9	0.05529	48.8474	50.1555	26.3141
 456	1	9	0.069029	49.6221	51.6538	26.8748
 457	1	9	0.053284	48.1289	51.7238	25.9343
 458	1	7	-0.244214	44.4398	52.3184	29.1506
 459	1	9	0.063506	56.1774	47.9655	28.8849
 460	1	9	0.093434	55.8387	48.4632	30.5192
 461	1	6	0.232522	46.1784	52.1183	27.135
 462	1	9	0.020884	43.6234	51.5864	29.1408
 463	1	9	0.114771	44.331	52.9382	28.2535
 464	1	9	0.181647	44.3061	52.9858	30.011
 465	1	9	0.069456	49.1078	50.3176	31.939
 466	1	9	0.029017	48.4904	48.7482	31.3925
 467	1	9	-0.058945	47.5281	49.7528	32.468
 468	1	4	0.329672	46.0875	50.6589	32.3753
 469	1	1	0.452895	64.2735	56.3573	14.6987
 470	1	2	0.074505	63.2716	57.2727	15.0096
 471	1	3	0.001656	62.0208	56.473	14.949
 472	1	2	0.074191	63.8114	55.0811	14.3887
 473	1	3	0.036519	62.3406	55.1756	14.5817
 474	1	5	-0.399533	63.3647	58.4767	15.1906
 475	1	5	-0.398173	64.4363	54.1147	13.9809
 476	1	3	-0.067442	60.6985	56.8599	15.1946
 477	1	3	-0.068422	61.3541	54.1937	14.4406
 478	1	3	-0.213282	60.0146	54.563	14.6869
 479	1	3	-0.047343	59.6825	55.8878	15.0616
 480	1	6	0.159476	60.4755	57.8829	15.4861
 481	1	6	0.16033	61.6253	53.1794	14.156
 482	1	6	0.171114	59.2313	53.8147	14.5959
 483	1	7	-0.06383	58.231	56.2592	15.3272
 484	1	3	0.009736	57.7574	55.7663	16.6871
 485	1	3	-0.108991	58.158	56.4469	17.8573
 486	1	3	-0.114952	57.697	55.9697	19.0913
 487	1	3	-0.090153	56.9151	54.631	16.7821
 488	1	3	-0.148302	56.4603	54.1687	18.0347
 489	1	3	-0.073574	56.8713	54.865	19.1786
 490	1	2	0.475719	56.5578	54.631	20.6148
 491	1	1	0.026291	57.2346	55.6244	21.3091
 492	1	2	0.472085	57.9404	56.4747	20.4687
 493	1	3	-0.022377	57.181	55.785	22.7231
 494	1	3	-0.088654	58.0218	55.0161	23.5657
 495	1	3	0.02488	57.9662	55.2059	24.97
 496	1	3	0.040063	56.2925	56.7326	23.2733
 497	1	3	-0.361597	56.2706	56.9344	24.6585
 498	1	3	0.096629	57.1049	56.1949	25.5074
 499	1	7	-0.018671	58.9673	53.9849	22.9345
 500	1	8	-0.317996	58.7792	54.4361	25.805
 501	1	6	0.16694	55.81	53.3003	18.119
 502	1	6	0.13386	56.6107	54.1071	15.8803
 503	1	6	0.147907	58.8085	57.3173	17.8126
 504	1	5	-0.491298	58.5931	57.4591	20.77
 505	1	5	-0.47861	55.8325	53.7589	21.061
 506	1	7	-0.160952	55.3669	57.5676	22.3966
 507	1	9	0.05529	54.8046	56.9373	21.6965
 508	1	9	0.069029	55.9376	58.3025	21.8154
 509	1	9	0.053284	54.6316	58.1199	22.9943
 510	1	7	-0.244214	57.0753	56.5344	26.9907
 511	1	9	0.063506	58.1018	57.3475	15.269
 512	1	9	0.093434	57.5957	55.8497	14.5317
 513	1	6	0.232522	55.6064	57.6831	25.0772
 514	1	9	0.020884	56.4768	55.8078	27.5531
 515	1	9	0.114771	56.6462	57.5268	27.1687
 516	1	9	0.181647	58.0888	56.5538	27.4113
 517	1	9	0.069456	59.6419	54.4653	22.2143
 518	1	9	0.029017	58.3987	53.2144	22.3989
 519	1	9	-0.058945	59.6004	53.4608	23.6584
 520	1	4	0.329672	59.5599	53.9425	25.3853
 521	1	1	0.452895	61.1947	50.8308	24.9172
 522	1	2	0.074505	61.8535	52.0243	25.1893
 523	1	3	0.001656	63.2416	51.78	24.7144
 524	1	2	0.074191	61.9671	49.8745	24.2651
 525	1	3	0.036519	63.305	50.5094	24.1626
 526	1	5	-0.399533	61.4121	53.039	25.708
 527	1	5	-0.398173	61.6558	48.756	23.889
 528	1	3	-0.067442	64.3782	52.5911	24.8084
 529	1	3	-0.068422	64.5016	49.987	23.6614
 530	1	3	-0.213282	65.6581	50.7892	23.7478
 531	1	3	-0.047343	65.6041	52.0802	24.3259
 532	1	6	0.159476	64.3094	53.5775	25.2597
 533	1	6	0.16033	64.5289	48.9859	23.2362
 534	1	6	0.171114	66.6031	50.405	23.371
 535	1	7	-0.06383	66.8774	52.9035	24.4472
 536	1	3	0.009736	67.3621	53.4331	23.1054
 537	1	3	-0.108991	66.498	54.2157	22.3096
 538	1	3	-0.114952	66.9918	54.7283	21.1042
 539	1	3	-0.090153	68.6867	53.177	22.6712
 540	1	3	-0.148302	69.1654	53.7067	21.4548
 541	1	3	-0.073574	68.2891	54.4887	20.6916
 542	1	2	0.475719	68.5121	55.2181	19.4135
 543	1	1	0.026291	67.3131	55.8627	19.1442
 544	1	2	0.472085	66.3393	55.6078	20.099
 545	1	3	-0.022377	67.1131	56.7263	18.0329
 546	1	3	-0.088654	66.5213	56.2406	16.8417
 547	1	3	0.02488	66.2841	57.1371	15.768
 548	1	3	0.040063	67.4949	58.0796	18.1428
 549	1	3	-0.361597	67.3032	58.9417	17.0558
 550	1	3	0.096629	66.7078	58.4831	15.8733
 551	1	7	-0.018671	66.1648	54.7549	16.7153
 552	1	8	-0.317996	65.6299	56.7298	14.6025
 553	1	6	0.16694	70.1861	53.5319	21.1194
 554	1	6	0.13386	69.3531	52.5793	23.2873
 555	1	6	0.147907	65.4793	54.4329	22.6224
 556	1	5	-0.491298	65.2017	56.0433	20.1503
 557	1	5	-0.47861	69.5588	55.2804	18.7897
 558	1	7	-0.160952	68.1176	58.6303	19.4202
 559	1	9	0.05529	68.259	59.7166	19.3691
 560	1	9	0.069029	69.1008	58.1786	19.6027
 561	1	9	0.053284	67.481	58.4278	20.2906
 562	1	7	-0.244214	66.4957	59.4866	14.7464
 563	1	9	0.063506	66.7177	53.7491	25.1281
 564	1	9	0.093434	67.656	52.2915	24.9198
 565	1	6	0.232522	67.6019	59.9813	17.1418
 566	1	9	0.020884	66.6414	59.0388	13.7561
 567	1	9	0.114771	67.1987	60.3244	14.8249
 568	1	9	0.181647	65.4821	59.9054	14.7954
 569	1	9	0.069456	66.3769	54.3793	15.707
 570	1	9	0.029017	65.1029	54.5857	16.9316
 571	1	9	-0.058945	66.7424	54.1175	17.3947
 572	1	4	0.329672	65.6925	57.358	13.8164
 573	1	1	0.452895	52.8003	36.8266	27.6678
 574	1	2	0.074505	52.5759	37.3865	26.4156
 575	1	3	0.001656	52.8493	38.8323	26.6145
 576	1	2	0.074191	53.1899	37.7316	28.6482
 577	1	3	0.036519	53.2093	39.0376	27.9377
 578	1	5	-0.399533	52.3017	36.8256	25.3672
 579	1	5	-0.398173	53.5422	37.5107	29.7955
 580	1	3	-0.067442	52.8453	39.8766	25.6833
 581	1	3	-0.068422	53.57	40.3055	28.405
 582	1	3	-0.213282	53.5641	41.3737	27.4835
 583	1	3	-0.047343	53.2166	41.1649	26.1252
 584	1	6	0.159476	52.5861	39.6808	24.6458
 585	1	6	0.16033	53.863	40.4467	29.4432
 586	1	6	0.171114	53.859	42.3655	27.819
 587	1	7	-0.06383	53.2983	42.319	25.1337
 588	1	3	0.009736	54.6631	42.9935	25.1781
 589	1	3	-0.108991	54.7657	44.3588	25.5198
 590	1	3	-0.114952	56.0459	44.9125	25.6414
 591	1	3	-0.090153	55.8351	42.2324	24.9421
 592	1	3	-0.148302	57.1152	42.8094	25.0761
 593	1	3	-0.073574	57.1884	44.1599	25.4413
 594	1	2	0.475719	58.3695	45.0196	25.7352
 595	1	1	0.026291	57.8425	46.2489	26.1077
 596	1	2	0.472085	56.4595	46.279	26.0461
 597	1	3	-0.022377	58.6125	47.3522	26.566
 598	1	3	-0.088654	58.8613	48.4467	25.7062
 599	1	3	0.02488	59.6025	49.5531	26.1851
 600	1	3	0.040063	59.0769	47.3684	27.8981
 601	1	3	-0.361597	59.7836	48.4828	28.3678
 602	1	3	0.096629	60.0463	49.575	27.5302
 603	1	7	-0.018671	58.3269	48.4079	24.2663
 604	1	8	-0.317996	59.8649	50.6071	25.3131
 605	1	6	0.16694	58.0208	42.2243	24.9247
 606	1	6	0.13386	55.7491	41.1791	24.6858
 607	1	6	0.147907	53.8836	44.9645	25.714
 608	1	5	-0.491298	55.7195	47.2103	26.311
 609	1	5	-0.47861	59.5375	44.6703	25.7322
 610	1	7	-0.160952	58.8137	46.2094	28.852
 611	1	9	0.05529	59.1313	46.445	29.875
 612	1	9	0.069029	59.3649	45.3142	28.537
 613	1	9	0.053284	57.7472	45.9575	28.8917
 614	1	7	-0.244214	60.7832	50.7613	28.1356
 615	1	9	0.063506	53.1041	41.9662	24.1128
 616	1	9	0.093434	52.5034	43.0423	25.3562
 617	1	6	0.232522	60.1279	48.5051	29.3969
 618	1	9	0.020884	60.6705	50.7902	29.2265
 619	1	9	0.114771	60.4	51.7138	27.7557
 620	1	9	0.181647	61.8547	50.7133	27.9134
 621	1	9	0.069456	57.2355	48.5221	24.2547
 622	1	9	0.029017	58.5717	47.4547	23.7808
 623	1	9	-0.058945	58.7349	49.1932	23.6198
 624	1	4	0.329672	59.2891	50.6394	24.4803
 625	1	1	0.452895	49.0413	23.0749	28.4823
 626	1	2	0.074505	49.4344	23.2026	29.8144
 627	1	3	0.001656	50.6809	24.0079	29.7528
 628	1	2	0.074191	49.9264	23.648	27.5731
 629	1	3	0.036519	50.9844	24.2524	28.424
 630	1	5	-0.399533	48.963	22.6805	30.8121
 631	1	5	-0.398173	49.9374	23.5531	26.3576
 632	1	3	-0.067442	51.4913	24.4828	30.7916
 633	1	3	-0.068422	52.1507	24.9339	28.0605
 634	1	3	-0.213282	53.0034	25.3787	29.0899
 635	1	3	-0.047343	52.6617	25.197	30.4534
 636	1	6	0.159476	51.2103	24.3071	31.8266
 637	1	6	0.16033	52.3863	25.1195	27.0166
 638	1	6	0.171114	53.9182	25.9033	28.8232
 639	1	7	-0.06383	53.5336	25.8075	31.548
 640	1	3	0.009736	53.1902	27.273	31.8138
 641	1	3	-0.108991	53.0453	28.1632	30.7295
 642	1	3	-0.114952	52.6959	29.4861	30.9927
 643	1	3	-0.090153	53.0058	27.7556	33.1356
 644	1	3	-0.148302	52.6641	29.1069	33.38
 645	1	3	-0.073574	52.5078	29.9566	32.2747
 646	1	2	0.475719	52.0935	31.3882	32.1767
 647	1	1	0.026291	52.033	31.6629	30.8132
 648	1	2	0.472085	52.4064	30.5754	30.0388
 649	1	3	-0.022377	51.5577	32.8729	30.2289
 650	1	3	-0.088654	52.4315	33.6807	29.4592
 651	1	3	0.02488	51.9145	34.7637	28.7043
 652	1	3	0.040063	50.1804	33.1768	30.2854
 653	1	3	-0.361597	49.687	34.2718	29.5659
 654	1	3	0.096629	50.5248	35.0519	28.7568
 655	1	7	-0.018671	53.9305	33.3443	29.4002
 656	1	8	-0.317996	52.8107	35.4352	27.8671
 657	1	6	0.16694	52.5086	29.4786	34.3914
 658	1	6	0.13386	53.119	27.0774	33.9773
 659	1	6	0.147907	53.1722	27.8497	29.7001
 660	1	5	-0.491298	52.4262	30.4791	28.823
 661	1	5	-0.47861	51.8053	32.1226	33.1055