pySIMM System Object

1042 atoms
1141 bonds
1980 angles
2916 dihedrals
320 impropers

9 atom types
12 bond types
20 angle types
8 dihedral types
4 improper types

-151.126004 151.126004 xlo xhi
-151.126004 151.126004 ylo yhi
-151.126004 151.126004 zlo zhi

Masses

   1	14.01	# n
   2	12.01	# c
   3	12.01	# ca
   4	1.008	# hn
   5	16.0	# o
   6	1.008	# ha
   7	12.01	# c3
   8	14.01	# nh
   9	1.008	# hc

Pair Coeffs

   1	0.17	3.249998523775958	# n
   2	0.086	3.3996695084235347	# c
   3	0.086	3.3996695084235347	# ca
   4	0.0157	1.069078461768407	# hn
   5	0.21	2.959921901149463	# o
   6	0.015	2.59964245953351	# ha
   7	0.1094	3.3996695084235347	# c3
   8	0.17	3.249998523775958	# nh
   9	0.0157	2.649532787749369	# hc

Bond Coeffs

   1	384.2	1.4121	# ca,n
   2	404.6	1.0121	# hn,nh
   3	403.2	1.0129	# hn,n
   4	417.9	1.3859	# ca,nh
   5	461.1	1.3984	# ca,ca
   6	427.6	1.3789	# c,n
   7	345.9	1.4906	# c,ca
   8	345.8	1.086	# ca,ha
   9	321.0	1.5156	# c3,ca
  10	330.6	1.0969	# c3,hc
  11	637.7	1.2183	# c,o
  12	452.5	1.4016	# n,nh

Angle Coeffs

   1	63.53	120.77	# c3,ca,ca
   2	39.4	107.58	# hc,c3,hc
   3	66.62	120.02	# ca,ca,ca
   4	48.42	116.07	# ca,nh,hn
   5	48.18	119.88	# ca,ca,ha
   6	63.74	127.08	# c,n,c
   7	67.87	120.19	# ca,ca,n
   8	40.07	115.12	# hn,nh,hn
   9	68.72	122.6	# ca,c,o
  10	48.33	117.55	# c,n,hn
  11	64.28	120.33	# c,ca,ca
  12	67.68	115.25	# ca,c,n
  13	63.56	112.24	# ca,c3,ca
  14	74.22	123.05	# n,c,o
  15	63.82	123.71	# c,n,ca
  16	46.8	110.47	# ca,c3,hc
  17	68.29	120.95	# ca,ca,nh
  18	67.01	118.71	# c,n,nh
  19	67.61	116.03	# ca,nh,n
  20	50.88	108.17	# hn,nh,n

Dihedral Coeffs

   1	1	3.625	2	180	# X,ca,ca,X
   2	1	1.0	2	180	# X,c,ca,X
   3	1	0.0	2	0	# X,c3,ca,X
   4	1	2.5	2	180	# X,c,n,X
   5	1	1.05	2	180	# X,ca,nh,X
   6	1	0.45	2	180	# X,ca,n,X
   7	2	2.5	2	180	2.0	1	0	# hn,n,c,o
   8	1	1.1	2	0	# X,n,nh,X

Improper Coeffs

   1	1.1	-1	2	# ca,X,X,ha
   2	10.5	-1	2	# c,X,X,o
   3	1.1	-1	2	# ca,ca,ca,c3
   4	1.1	-1	2	# n,X,X,hn

Atoms

   1	1	1	0.452895	22.8189	8.36399	63.5758
   2	1	2	0.074505	21.8038	7.80779	62.8041
   3	1	3	0.001656	22.3718	6.51043	62.3538
   4	1	2	0.074191	23.9186	7.53485	63.7736
   5	1	3	0.036519	23.6213	6.34636	62.9324
   6	1	5	-0.399533	20.7029	8.26645	62.5401
   7	1	5	-0.398173	24.9249	7.73901	64.435
   8	1	3	-0.067442	21.8681	5.59008	61.4285
   9	1	3	-0.068422	24.4265	5.24324	62.6291
  10	1	3	-0.213282	23.9352	4.30316	61.6986
  11	1	3	-0.047343	22.6682	4.4766	61.0901
  12	1	6	0.159476	20.9043	5.76482	60.9582
  13	1	6	0.16033	25.4139	5.14444	63.0743
  14	1	6	0.171114	24.5553	3.45346	61.4224
  15	1	7	-0.06383	22.1994	3.4954	60.026
  16	1	3	0.009736	22.8244	3.79809	58.6693
  17	1	3	-0.108991	23.8162	2.94363	58.1414
  18	1	3	-0.114952	24.3682	3.25981	56.893
  19	1	3	-0.090153	22.4198	4.94236	57.9378
  20	1	3	-0.148302	22.9928	5.24478	56.6836
  21	1	3	-0.073574	23.973	4.37731	56.1819
  22	1	2	0.475719	24.7583	4.42452	54.9141
  23	1	1	0.026291	25.5928	3.31227	54.955
  24	1	2	0.472085	25.4113	2.55457	56.1054
  25	1	3	-0.022377	26.5463	2.98021	53.948
  26	1	3	-0.088654	26.131	2.50143	52.6773
  27	1	3	0.02488	27.1078	2.17887	51.7029
  28	1	3	0.040063	27.9239	3.11892	54.237
  29	1	3	-0.361597	28.8761	2.7565	53.2749
  30	1	3	0.096629	28.481	2.29549	52.0134
  31	1	7	-0.018671	24.6434	2.33135	52.3478
  32	1	8	-0.317996	26.7305	1.73907	50.4358
  33	1	6	0.16694	22.6897	6.12638	56.1225
  34	1	6	0.13386	21.6629	5.6047	58.3498
  35	1	6	0.147907	24.1524	2.0619	58.6812
  36	1	5	-0.491298	25.9808	1.52669	56.4321
  37	1	5	-0.47861	24.6532	5.26012	54.0293
  38	1	7	-0.160952	28.4196	3.6863	55.5624
  39	1	9	0.05529	29.4827	3.9518	55.5148
  40	1	9	0.069029	28.3	2.95658	56.3725
  41	1	9	0.053284	27.8739	4.59823	55.8351
  42	1	7	-0.244214	29.5653	1.95945	50.9997
  43	1	9	0.063506	22.4433	2.47166	60.3378
  44	1	9	0.093434	21.1058	3.52138	59.9405
  45	1	6	0.232522	29.9318	2.86957	53.4942
  46	1	9	0.020884	30.5166	1.71372	51.4881
  47	1	9	0.114771	29.7366	2.80889	50.3286
  48	1	9	0.181647	29.2801	1.09686	50.3869
  49	1	9	0.069456	24.4613	1.42282	51.7614
  50	1	9	0.029017	24.2707	3.18671	51.7719
  51	1	9	-0.058945	24.0184	2.23891	53.2431
  52	1	4	0.329672	25.7636	1.78638	50.1473
  53	1	1	0.452895	25.8784	6.25486	50.922
  54	1	2	0.074505	25.0628	7.37831	50.8172
  55	1	3	0.001656	25.4977	8.25131	51.9441
  56	1	2	0.074191	26.7769	6.30258	51.9849
  57	1	3	0.036519	26.5046	7.60464	52.6395
  58	1	5	-0.399533	24.1529	7.5889	50.0313
  59	1	5	-0.398173	27.6371	5.50185	52.3052
  60	1	3	-0.067442	25.0455	9.51788	52.3349
  61	1	3	-0.068422	27.0967	8.17194	53.7722
  62	1	3	-0.213282	26.6587	9.44961	54.1782
  63	1	3	-0.047343	25.6403	10.1294	53.4639
  64	1	6	0.159476	24.2641	10.0127	51.7645
  65	1	6	0.16033	27.8723	7.63393	54.3123
  66	1	6	0.171114	27.1171	9.91223	55.049
  67	1	7	-0.06383	25.2153	11.5401	53.8608
  68	1	3	0.009736	25.2596	11.8309	55.3579
  69	1	3	-0.108991	24.3401	11.2002	56.2229
  70	1	3	-0.114952	24.349	11.5616	57.5771
  71	1	3	-0.090153	26.173	12.7846	55.8737
  72	1	3	-0.148302	26.1658	13.1331	57.2413
  73	1	3	-0.073574	25.229	12.5057	58.0727
  74	1	2	0.475719	24.9195	12.7199	59.5148
  75	1	1	0.026291	23.842	11.889	59.7874
  76	1	2	0.472085	23.4537	11.1384	58.6855
  77	1	3	-0.022377	23.1451	11.8543	61.0286
  78	1	3	-0.088654	23.4553	10.8733	62.0016
  79	1	3	0.02488	22.6156	10.7315	63.1403
  80	1	3	0.040063	22.0783	12.7536	61.2356
  81	1	3	-0.361597	21.2983	12.6466	62.3939
  82	1	3	0.096629	21.5447	11.6355	63.3325
  83	1	7	-0.018671	24.6929	9.98991	61.8089
  84	1	8	-0.317996	22.7631	9.6863	64.0606
  85	1	6	0.16694	26.8429	13.8866	57.6395
  86	1	6	0.13386	26.8735	13.2775	55.2048
  87	1	6	0.147907	23.6201	10.4753	55.8496
  88	1	5	-0.491298	22.5283	10.3491	58.5991
  89	1	5	-0.47861	25.4672	13.5108	60.2641
  90	1	7	-0.160952	21.7383	13.8349	60.2169
  91	1	9	0.05529	21.4156	13.3933	59.2659
  92	1	9	0.069029	22.6063	14.4767	60.02
  93	1	9	0.053284	20.9289	14.4862	60.5682
  94	1	7	-0.244214	20.5951	11.5105	64.5178
  95	1	9	0.063506	25.847	12.2581	53.323
  96	1	9	0.093434	24.1948	11.7292	53.504
  97	1	6	0.232522	20.4654	13.3271	62.5359
  98	1	9	0.020884	21.1218	11.263	65.4474
  99	1	9	0.114771	19.8448	10.7327	64.324
 100	1	9	0.181647	20.0577	12.4495	64.6954
 101	1	9	0.069456	25.1879	9.78694	62.766
 102	1	9	0.029017	25.4588	10.4629	61.1843
 103	1	9	-0.058945	24.4279	9.03423	61.3403
 104	1	4	0.329672	22.1269	9.68644	64.8423
 105	1	1	0.452895	22.3085	-2.17029	35.6794
 106	1	2	0.074505	21.5687	-1.12797	36.233
 107	1	3	0.001656	22.0901	-1.00471	37.6222
 108	1	2	0.074191	23.2733	-2.70039	36.5339
 109	1	3	0.036519	23.1054	-1.92885	37.7973
 110	1	5	-0.399533	20.7191	-0.428743	35.7054
 111	1	5	-0.398173	24.078	-3.59311	36.3199
 112	1	3	-0.067442	21.689	-0.15439	38.6608
 113	1	3	-0.068422	23.7922	-2.02554	39.0134
 114	1	3	-0.213282	23.4078	-1.16884	40.0703
 115	1	3	-0.047343	22.3442	-0.240707	39.9125
 116	1	6	0.159476	20.872	0.543947	38.4979
 117	1	6	0.16033	24.5956	-2.74971	39.131
 118	1	6	0.171114	23.9436	-1.24186	41.0108
 119	1	7	-0.06383	21.8112	0.635569	41.0556
 120	1	3	0.009736	22.6778	0.833716	42.3032
 121	1	3	-0.108991	23.1081	2.13425	42.6596
 122	1	3	-0.114952	23.79	2.30776	43.8746
 123	1	3	-0.090153	22.9314	-0.247573	43.1848
 124	1	3	-0.148302	23.6553	-0.0599101	44.3819
 125	1	3	-0.073574	24.0718	1.23903	44.7025
 126	1	2	0.475719	24.8177	1.75091	45.8863
 127	1	1	0.026291	24.928	3.12398	45.7017
 128	1	2	0.472085	24.3185	3.54286	44.5218
 129	1	3	-0.022377	25.6934	3.96723	46.5689
 130	1	3	-0.088654	25.2642	4.25052	47.8942
 131	1	3	0.02488	26.11	4.97266	48.7845
 132	1	3	0.040063	26.9448	4.43918	46.1198
 133	1	3	-0.361597	27.7583	5.17043	46.9905
 134	1	3	0.096629	27.3744	5.42272	48.3144
 135	1	7	-0.018671	23.8904	3.74008	48.353
 136	1	8	-0.317996	25.6958	5.10706	50.1208
 137	1	6	0.16694	23.8665	-0.889815	45.0536
 138	1	6	0.13386	22.5587	-1.23879	42.9393
 139	1	6	0.147907	22.8931	2.99413	42.0291
 140	1	5	-0.491298	24.2365	4.67458	44.0771
 141	1	5	-0.47861	25.2482	1.0808	46.811
 142	1	7	-0.160952	27.4749	4.13812	44.7216
 143	1	9	0.05529	28.529	4.42164	44.6165
 144	1	9	0.069029	26.9145	4.69562	43.9609
 145	1	9	0.053284	27.4049	3.06912	44.4861
 146	1	7	-0.244214	28.4139	6.10812	49.1895
 147	1	9	0.063506	21.5625	1.6217	40.6427
 148	1	9	0.093434	20.848	0.220777	41.3788
 149	1	6	0.232522	28.7291	5.51001	46.6435
 150	1	9	0.020884	29.3436	6.30955	48.6436
 151	1	9	0.114771	28.6843	5.46882	50.0376
 152	1	9	0.181647	28.056	7.07197	49.564
 153	1	9	0.069456	23.9197	2.663	48.5574
 154	1	9	0.029017	23.1292	3.91229	47.5813
 155	1	9	-0.058945	23.5204	4.23332	49.2594
 156	1	4	0.329672	24.7905	4.73124	50.3601
 157	1	1	0.452895	20.412	-9.23691	19.9209
 158	1	2	0.074505	21.2442	-9.15902	21.035
 159	1	3	0.001656	20.8908	-7.85995	21.6681
 160	1	2	0.074191	19.5448	-8.15822	19.7776
 161	1	3	0.036519	19.8922	-7.26215	20.9159
 162	1	5	-0.399533	22.0868	-9.95588	21.4161
 163	1	5	-0.398173	18.6715	-7.98499	18.9431
 164	1	3	-0.067442	21.4338	-7.23433	22.7992
 165	1	3	-0.068422	19.3947	-5.99726	21.2486
 166	1	3	-0.213282	19.95	-5.33826	22.368
 167	1	3	-0.047343	20.9586	-5.9509	23.1551
 168	1	6	0.159476	22.2306	-7.71919	23.3574
 169	1	6	0.16033	18.6265	-5.5323	20.6341
 170	1	6	0.171114	19.6119	-4.33329	22.6081
 171	1	7	-0.06383	21.6376	-5.17267	24.2842
 172	1	3	0.009736	20.9213	-5.13997	25.6378
 173	1	3	-0.108991	21.6771	-5.28986	26.8264
 174	1	3	-0.114952	21.0366	-5.10365	28.0622
 175	1	3	-0.090153	19.5405	-4.82988	25.7283
 176	1	3	-0.148302	18.9161	-4.64192	26.9797
 177	1	3	-0.073574	19.6993	-4.77029	28.1341
 178	1	2	0.475719	19.3479	-4.55719	29.5651
 179	1	1	0.026291	20.515	-4.79244	30.2855
 180	1	2	0.472085	21.5759	-5.14112	29.4533
 181	1	3	-0.022377	20.5872	-4.69341	31.7143
 182	1	3	-0.088654	21.339	-3.66919	32.3549
 183	1	3	0.02488	21.3475	-3.55875	33.7762
 184	1	3	0.040063	19.8597	-5.61503	32.498
 185	1	3	-0.361597	19.8327	-5.47226	33.8894
 186	1	3	0.096629	20.5467	-4.45487	34.5398
 187	1	7	-0.018671	22.1624	-2.68624	31.5066
 188	1	8	-0.317996	22.1777	-2.56626	34.3307
 189	1	6	0.16694	17.8632	-4.37634	27.0538
 190	1	6	0.13386	18.9515	-4.70037	24.8266
 191	1	6	0.147907	22.7429	-5.50366	26.7952
 192	1	5	-0.491298	22.725	-5.39903	29.7672
 193	1	5	-0.47861	18.2566	-4.21477	29.9887
 194	1	7	-0.160952	19.0763	-6.77208	31.886
 195	1	9	0.05529	19.6084	-7.22282	31.0396
 196	1	9	0.069029	18.0924	-6.43678	31.5351
 197	1	9	0.053284	18.9083	-7.57333	32.6161
 198	1	7	-0.244214	20.4013	-4.40395	36.0565
 199	1	9	0.063506	22.6524	-5.56725	24.4223
 200	1	9	0.093434	21.7888	-4.13735	23.9531
 201	1	6	0.232522	19.2393	-6.17127	34.4693
 202	1	9	0.020884	20.0829	-3.4129	36.3985
 203	1	9	0.114771	21.3391	-4.67879	36.5528
 204	1	9	0.181647	19.6365	-5.10275	36.4123
 205	1	9	0.069456	21.7158	-2.5048	30.5223
 206	1	9	0.029017	23.1767	-3.07338	31.346
 207	1	9	-0.058945	22.2555	-1.69788	31.9734
 208	1	4	0.329672	22.6964	-1.95309	33.7203
 209	1	1	0.452895	12.4012	-19.2036	9.30049
 210	1	2	0.074505	13.3639	-18.5589	8.53276
 211	1	3	0.001656	14.132	-17.7537	9.51789
 212	1	2	0.074191	12.4264	-18.8731	10.6534
 213	1	3	0.036519	13.5884	-17.9499	10.7766
 214	1	5	-0.399533	13.5531	-18.6265	7.32926
 215	1	5	-0.398173	11.699	-19.2657	11.5514
 216	1	3	-0.067442	15.225	-16.9045	9.31731
 217	1	3	-0.068422	14.1353	-17.3293	11.9067
 218	1	3	-0.213282	15.2454	-16.473	11.7254
 219	1	3	-0.047343	15.789	-16.2485	10.4349
 220	1	6	0.159476	15.6099	-16.7484	8.31266
 221	1	6	0.16033	13.7031	-17.5012	12.8903
 222	1	6	0.171114	15.6706	-15.9707	12.5911
 223	1	7	-0.06383	16.9232	-15.2547	10.1897
 224	1	3	0.009736	17.8519	-14.9548	11.3641
 225	1	3	-0.108991	17.6397	-13.803	12.1564
 226	1	3	-0.114952	18.6079	-13.4637	13.1138
 227	1	3	-0.090153	19.0087	-15.7464	11.5695
 228	1	3	-0.148302	19.9694	-15.3898	12.54
 229	1	3	-0.073574	19.7434	-14.2303	13.2943
 230	1	2	0.475719	20.6093	-13.5498	14.2971
 231	1	1	0.026291	19.9377	-12.385	14.6466
 232	1	2	0.472085	18.7146	-12.2673	13.9967
 233	1	3	-0.022377	20.4947	-11.3928	15.51
 234	1	3	-0.088654	20.1596	-11.3361	16.8876
 235	1	3	0.02488	20.7882	-10.3871	17.7382
 236	1	3	0.040063	21.4372	-10.4863	14.9805
 237	1	3	-0.361597	22.0943	-9.59234	15.8354
 238	1	3	0.096629	21.8075	-9.55008	17.2081
 239	1	7	-0.018671	19.144	-12.3171	17.4896
 240	1	8	-0.317996	20.3822	-10.3719	19.0825
 241	1	6	0.16694	20.8822	-15.9675	12.6742
 242	1	6	0.13386	19.1836	-16.6163	10.9413
 243	1	6	0.147907	16.7779	-13.1589	11.9976
 244	1	5	-0.491298	17.9086	-11.3567	14.071
 245	1	5	-0.47861	21.7087	-13.9238	14.6697
 246	1	7	-0.160952	21.7972	-10.4766	13.4989
 247	1	9	0.05529	22.3913	-9.59385	13.2321
 248	1	9	0.069029	20.8976	-10.4567	12.8711
 249	1	9	0.053284	22.3847	-11.3632	13.2301
 250	1	7	-0.244214	22.6767	-8.63424	18.0621
 251	1	9	0.063506	17.5339	-15.6132	9.35087
 252	1	9	0.093434	16.4845	-14.3139	9.8336
 253	1	6	0.232522	22.8526	-8.93371	15.4243
 254	1	9	0.020884	22.1214	-7.75659	18.4129
 255	1	9	0.114771	23.5443	-8.26477	17.503
 256	1	9	0.181647	23.0782	-9.17693	18.9277
 257	1	9	0.069456	19.6187	-12.9373	18.2608
 258	1	9	0.029017	18.7046	-13.0066	16.7613
 259	1	9	-0.058945	18.313	-11.7773	17.9609
 260	1	4	0.329672	19.556	-10.9047	19.3094
 261	1	1	0.452895	1.3677	-27.9219	-0.251307
 262	1	2	0.074505	2.47071	-28.7016	0.0823464
 263	1	3	0.001656	3.41113	-27.7448	0.717232
 264	1	2	0.074191	1.48968	-26.5768	0.0818077
 265	1	3	0.036519	2.83326	-26.4851	0.715915
 266	1	5	-0.399533	2.66283	-29.8887	-0.127593
 267	1	5	-0.398173	0.722589	-25.6582	-0.156216
 268	1	3	-0.067442	4.70036	-27.9621	1.21426
 269	1	3	-0.068422	3.52076	-25.3713	1.21145
 270	1	3	-0.213282	4.82594	-25.5685	1.71268
 271	1	3	-0.047343	5.41705	-26.8565	1.7207
 272	1	6	0.159476	5.13433	-28.9585	1.18476
 273	1	6	0.16033	3.05986	-24.386	1.18908
 274	1	6	0.171114	5.3866	-24.7153	2.08944
 275	1	7	-0.06383	6.84142	-27.0501	2.22824
 276	1	3	0.009736	7.11847	-26.4021	3.58041
 277	1	3	-0.108991	8.35197	-25.75	3.79373
 278	1	3	-0.114952	8.59387	-25.1829	5.05059
 279	1	3	-0.090153	6.16914	-26.4754	4.63125
 280	1	3	-0.148302	6.43345	-25.8953	5.89057
 281	1	3	-0.073574	7.66523	-25.2521	6.07141
 282	1	2	0.475719	8.24328	-24.5809	7.26995
 283	1	1	0.026291	9.50325	-24.1474	6.8792
 284	1	2	0.472085	9.79097	-24.4661	5.55979
 285	1	3	-0.022377	10.4397	-23.5072	7.73947
 286	1	3	-0.088654	10.4954	-22.0946	7.84441
 287	1	3	0.02488	11.5176	-21.4773	8.61711
 288	1	3	0.040063	11.3623	-24.3072	8.43979
 289	1	3	-0.361597	12.3944	-23.6953	9.15642
 290	1	3	0.096629	12.5083	-22.2995	9.22939
 291	1	7	-0.018671	9.48172	-21.2335	7.07294
 292	1	8	-0.317996	11.4553	-20.0783	8.73254
 293	1	6	0.16694	5.7118	-25.9499	6.70339
 294	1	6	0.13386	5.2233	-26.9865	4.46886
 295	1	6	0.147907	9.10805	-25.6926	3.0138
 296	1	5	-0.491298	10.8125	-24.239	4.935
 297	1	5	-0.47861	7.71156	-24.4623	8.36045
 298	1	7	-0.160952	11.2897	-25.8293	8.41136
 299	1	9	0.05529	11.9751	-26.2808	9.13915
 300	1	9	0.069029	11.5532	-26.2191	7.42067
 301	1	9	0.053284	10.2816	-26.1818	8.66353
 302	1	7	-0.244214	13.7341	-21.7802	9.97102
 303	1	9	0.063506	7.0747	-28.12	2.30099
 304	1	9	0.093434	7.53289	-26.6503	1.47542
 305	1	6	0.232522	13.1287	-24.319	9.65622
 306	1	9	0.020884	14.4365	-22.5879	10.2107
 307	1	9	0.114771	13.4567	-21.3132	10.9224
 308	1	9	0.181647	14.2971	-21.07	9.35561
 309	1	9	0.069456	8.54434	-21.7618	6.86503
 310	1	9	0.029017	9.90272	-20.9181	6.10961
 311	1	9	-0.058945	9.19479	-20.3287	7.623
 312	1	4	0.329672	10.6798	-19.5752	8.32743
 313	1	1	0.452895	-12.2829	-26.6473	-9.63096
 314	1	2	0.074505	-12.4309	-26.7835	-8.25325
 315	1	3	0.001656	-11.3618	-27.7401	-7.87111
 316	1	2	0.074191	-11.2988	-27.4556	-10.1894
 317	1	3	0.036519	-10.6919	-28.1408	-9.01662
 318	1	5	-0.399533	-13.1915	-26.1968	-7.50001
 319	1	5	-0.398173	-10.9687	-27.5607	-11.3593
 320	1	3	-0.067442	-10.9778	-28.1854	-6.60206
 321	1	3	-0.068422	-9.60075	-29.0146	-8.95235
 322	1	3	-0.213282	-9.19648	-29.475	-7.6805
 323	1	3	-0.047343	-9.87563	-29.0623	-6.50848
 324	1	6	0.159476	-11.5156	-27.8499	-5.71864
 325	1	6	0.16033	-9.08105	-29.3128	-9.86044
 326	1	6	0.171114	-8.34853	-30.1521	-7.60279
 327	1	7	-0.06383	-9.43737	-29.585	-5.148
 328	1	3	0.009736	-8.2488	-28.851	-4.53217
 329	1	3	-0.108991	-7.34249	-29.5855	-3.73975
 330	1	3	-0.114952	-6.30592	-28.8969	-3.10133
 331	1	3	-0.090153	-8.07635	-27.4492	-4.6749
 332	1	3	-0.148302	-7.0242	-26.7736	-4.01556
 333	1	3	-0.073574	-6.15541	-27.5292	-3.21527
 334	1	2	0.475719	-5.00444	-27.1187	-2.35667
 335	1	1	0.026291	-4.52916	-28.2949	-1.7865
 336	1	2	0.472085	-5.24849	-29.4088	-2.19807
 337	1	3	-0.022377	-3.42894	-28.3965	-0.883733
 338	1	3	-0.088654	-2.09583	-28.2668	-1.3486
 339	1	3	0.02488	-1.01261	-28.5509	-0.474559
 340	1	3	0.040063	-3.67934	-28.7539	0.458466
 341	1	3	-0.361597	-2.60625	-29.066	1.30048
 342	1	3	0.096629	-1.28313	-29.0049	0.844137
 343	1	7	-0.018671	-1.84704	-27.8188	-2.79832
 344	1	8	-0.317996	0.284097	-28.4377	-0.987572
 345	1	6	0.16694	-6.89714	-25.6964	-4.10646
 346	1	6	0.13386	-8.7718	-26.8764	-5.28188
 347	1	6	0.147907	-7.45217	-30.658	-3.59625
 348	1	5	-0.491298	-5.07256	-30.577	-1.89628
 349	1	5	-0.47861	-4.58818	-25.9837	-2.19759
 350	1	7	-0.160952	-5.09422	-28.8558	1.01738
 351	1	9	0.05529	-5.09218	-28.914	2.11264
 352	1	9	0.069029	-5.60412	-29.7524	0.644453
 353	1	9	0.053284	-5.69423	-27.9792	0.743011
 354	1	7	-0.244214	-0.207411	-29.5069	1.79896
 355	1	9	0.063506	-10.2789	-29.5394	-4.4451
 356	1	9	0.093434	-9.20221	-30.653	-5.24244
 357	1	6	0.232522	-2.80723	-29.3994	2.31381
 358	1	9	0.020884	-0.640266	-30.0407	2.65408
 359	1	9	0.114771	0.389529	-28.6819	2.20271
 360	1	9	0.181647	0.456818	-30.2204	1.29434
 361	1	9	0.069456	-2.00999	-26.7371	-2.89611
 362	1	9	0.029017	-2.52332	-28.3225	-3.4996
 363	1	9	-0.058945	-0.833353	-28.0274	-3.15969
 364	1	4	0.329672	0.366629	-28.105	-1.93716
 365	1	1	0.452895	-12.9073	-17.046	-23.7586
 366	1	2	0.074505	-13.994	-17.8815	-23.52
 367	1	3	0.001656	-13.8488	-18.2701	-22.0951
 368	1	2	0.074191	-12.076	-16.8604	-22.655
 369	1	3	0.036519	-12.7144	-17.6715	-21.5761
 370	1	5	-0.399533	-14.9341	-18.1435	-24.2536
 371	1	5	-0.398173	-11.1464	-16.0798	-22.5318
 372	1	3	-0.067442	-14.7211	-19.0083	-21.292
 373	1	3	-0.068422	-12.3938	-17.7966	-20.2158
 374	1	3	-0.213282	-13.2667	-18.541	-19.3845
 375	1	3	-0.047343	-14.4339	-19.1479	-19.917
 376	1	6	0.159476	-15.6273	-19.4245	-21.7243
 377	1	6	0.16033	-11.5134	-17.2985	-19.8144
 378	1	6	0.171114	-13.0483	-18.6151	-18.3217
 379	1	7	-0.06383	-15.4777	-19.8828	-19.075
 380	1	3	0.009736	-15.1729	-20.2215	-17.6163
 381	1	3	-0.108991	-14.0672	-21.031	-17.2601
 382	1	3	-0.114952	-13.9519	-21.4487	-15.9221
 383	1	3	-0.090153	-16.1201	-19.8516	-16.6281
 384	1	3	-0.148302	-15.9907	-20.2851	-15.2954
 385	1	3	-0.073574	-14.8954	-21.0928	-14.9763
 386	1	2	0.475719	-14.517	-21.7026	-13.6777
 387	1	1	0.026291	-13.3341	-22.3864	-13.9133
 388	1	2	0.472085	-12.9281	-22.2986	-15.2423
 389	1	3	-0.022377	-12.5963	-22.979	-12.8452
 390	1	3	-0.088654	-13.0435	-24.1781	-12.2338
 391	1	3	0.02488	-12.4864	-24.5956	-10.9951
 392	1	3	0.040063	-11.5344	-22.2485	-12.274
 393	1	3	-0.361597	-10.9743	-22.678	-11.0665
 394	1	3	0.096629	-11.462	-23.8086	-10.398
 395	1	7	-0.018671	-14.1727	-24.9821	-12.8937
 396	1	8	-0.317996	-13.0405	-25.7315	-10.386
 397	1	6	0.16694	-16.7257	-20.0228	-14.5364
 398	1	6	0.13386	-16.9857	-19.2539	-16.9017
 399	1	6	0.147907	-13.3395	-21.3497	-18.0032
 400	1	5	-0.491298	-11.9273	-22.7678	-15.7552
 401	1	5	-0.47861	-15.1245	-21.5886	-12.6264
 402	1	7	-0.160952	-11.0294	-20.9478	-12.8868
 403	1	9	0.05529	-10.1785	-20.5393	-12.3284
 404	1	9	0.069029	-11.8153	-20.1828	-12.8926
 405	1	9	0.053284	-10.6903	-21.102	-13.9184
 406	1	7	-0.244214	-10.8943	-24.0586	-9.00562
 407	1	9	0.063506	-16.397	-19.284	-19.1127
 408	1	9	0.093434	-15.7361	-20.8204	-19.5828
 409	1	6	0.232522	-10.1879	-22.0863	-10.609
 410	1	9	0.020884	-10.2654	-23.2269	-8.66539
 411	1	9	0.114771	-10.2697	-24.9579	-8.97811
 412	1	9	0.181647	-11.7034	-24.1519	-8.26999
 413	1	9	0.069456	-14.1091	-24.9414	-13.9885
 414	1	9	0.029017	-15.1548	-24.5922	-12.5985
 415	1	9	-0.058945	-14.1449	-26.0475	-12.6321
 416	1	4	0.329672	-13.7277	-26.2455	-10.9177
 417	1	1	0.452895	-6.61563	-3.7385	-29.9918
 418	1	2	0.074505	-6.05392	-4.80364	-30.6878
 419	1	3	0.001656	-7.09792	-5.86173	-30.6226
 420	1	2	0.074191	-7.88771	-3.97859	-29.4854
 421	1	3	0.036519	-8.17842	-5.37341	-29.9032
 422	1	5	-0.399533	-4.99602	-4.84898	-31.2947
 423	1	5	-0.398173	-8.63741	-3.20885	-28.9031
 424	1	3	-0.067442	-7.1206	-7.13847	-31.1985
 425	1	3	-0.068422	-9.33165	-6.13895	-29.7073
 426	1	3	-0.213282	-9.36791	-7.4322	-30.268
 427	1	3	-0.047343	-8.27539	-7.93373	-31.0151
 428	1	6	0.159476	-6.27025	-7.48796	-31.7786
 429	1	6	0.16033	-10.1724	-5.73367	-29.1493
 430	1	6	0.171114	-10.2528	-8.04918	-30.1294
 431	1	7	-0.06383	-8.36371	-9.32953	-31.6198
 432	1	3	0.009736	-8.39303	-10.4184	-30.554
 433	1	3	-0.108991	-9.45715	-11.3488	-30.5017
 434	1	3	-0.114952	-9.42293	-12.3403	-29.5089
 435	1	3	-0.090153	-7.3353	-10.5019	-29.6164
 436	1	3	-0.148302	-7.31924	-11.5061	-28.6283
 437	1	3	-0.073574	-8.38115	-12.418	-28.6038
 438	1	2	0.475719	-8.62058	-13.5843	-27.7124
 439	1	1	0.026291	-9.8139	-14.1449	-28.1434
 440	1	2	0.472085	-10.369	-13.4544	-29.2148
 441	1	3	-0.022377	-10.3778	-15.3157	-27.5572
 442	1	3	-0.088654	-11.3401	-15.2233	-26.5199
 443	1	3	0.02488	-11.8588	-16.4042	-25.9246
 444	1	3	0.040063	-9.9354	-16.5788	-28.0002
 445	1	3	-0.361597	-10.4694	-17.7391	-27.4255
 446	1	3	0.096629	-11.4313	-17.6702	-26.4065
 447	1	7	-0.018671	-11.841	-13.8505	-26.0471
 448	1	8	-0.317996	-12.8301	-16.2535	-24.9245
 449	1	6	0.16694	-6.50871	-11.58	-27.9062
 450	1	6	0.13386	-6.52117	-9.78307	-29.6582
 451	1	6	0.147907	-10.2801	-11.3124	-31.2119
 452	1	5	-0.491298	-11.3988	-13.7023	-29.8188
 453	1	5	-0.47861	-7.88208	-13.9763	-26.8249
 454	1	7	-0.160952	-8.88909	-16.7175	-29.1001
 455	1	9	0.05529	-9.16347	-16.1348	-29.9882
 456	1	9	0.069029	-8.77216	-17.7594	-29.4217
 457	1	9	0.053284	-7.90852	-16.3695	-28.7518
 458	1	7	-0.244214	-12.0123	-18.9901	-25.9167
 459	1	9	0.063506	-9.25872	-9.39149	-32.2519
 460	1	9	0.093434	-7.51594	-9.50923	-32.2932
 461	1	6	0.232522	-10.134	-18.7068	-27.784
 462	1	9	0.020884	-11.6961	-19.2132	-24.8908
 463	1	9	0.114771	-11.6941	-19.8313	-26.5431
 464	1	9	0.181647	-13.1087	-18.971	-25.9573
 465	1	9	0.069456	-11.8351	-13.7757	-24.9526
 466	1	9	0.029017	-12.8668	-13.6751	-26.3963
 467	1	9	-0.058945	-11.2329	-13.0138	-26.4075
 468	1	4	0.329672	-13.0967	-15.3145	-24.6741
 469	1	1	0.452895	-4.06833	-1.19479	-37.4058
 470	1	2	0.074505	-3.01556	-1.55905	-36.5719
 471	1	3	0.001656	-2.05275	-0.437468	-36.7177
 472	1	2	0.074191	-3.81327	-0.0968674	-38.2168
 473	1	3	0.036519	-2.50754	0.411592	-37.7158
 474	1	5	-0.399533	-2.94297	-2.49344	-35.7903
 475	1	5	-0.398173	-4.53967	0.410572	-39.0573
 476	1	3	-0.067442	-0.991314	-0.0766931	-35.8806
 477	1	3	-0.068422	-1.86739	1.62572	-37.9854
 478	1	3	-0.213282	-0.784841	2.00094	-37.1611
 479	1	3	-0.047343	-0.371808	1.17667	-36.0855
 480	1	6	0.159476	-0.733005	-0.706363	-35.0323
 481	1	6	0.16033	-2.25344	2.28908	-38.756
 482	1	6	0.171114	-0.31781	2.9709	-37.3112
 483	1	7	-0.06383	0.610252	1.70524	-35.0459
 484	1	3	0.009736	-0.109493	1.89282	-33.7142
 485	1	3	-0.108991	0.0613573	0.944614	-32.6829
 486	1	3	-0.114952	-0.770886	1.02818	-31.5584
 487	1	3	-0.090153	-1.08102	2.9152	-33.5771
 488	1	3	-0.148302	-1.90642	2.98484	-32.4349
 489	1	3	-0.073574	-1.73352	2.01462	-31.4386
 490	1	2	0.475719	-2.61357	1.66854	-30.2867
 491	1	1	0.026291	-2.17507	0.421201	-29.8605
 492	1	2	0.472085	-1.00817	0.0173769	-30.494
 493	1	3	-0.022377	-3.02702	-0.495689	-29.1821
 494	1	3	-0.088654	-4.06064	-1.13351	-29.9139
 495	1	3	0.02488	-4.95233	-2.02037	-29.2657
 496	1	3	0.040063	-2.8487	-0.780744	-27.8139
 497	1	3	-0.361597	-3.68881	-1.71848	-27.1968
 498	1	3	0.096629	-4.73325	-2.34157	-27.9001
 499	1	7	-0.018671	-4.22281	-0.865941	-31.418
 500	1	8	-0.317996	-6.06546	-2.44731	-30.0024
 501	1	6	0.16694	-2.71554	3.70957	-32.3659
 502	1	6	0.13386	-1.24915	3.6092	-34.3964
 503	1	6	0.147907	0.744628	0.105873	-32.7949
 504	1	5	-0.491298	-0.427643	-1.04849	-30.3813
 505	1	5	-0.47861	-3.62399	2.26224	-29.9433
 506	1	7	-0.160952	-1.75093	-0.12616	-26.9853
 507	1	9	0.05529	-1.54991	0.903227	-27.305
 508	1	9	0.069029	-0.815928	-0.695251	-27.0638
 509	1	9	0.053284	-2.02678	-0.0820612	-25.9242
 510	1	7	-0.244214	-5.58237	-3.33843	-27.1258
 511	1	9	0.063506	1.45202	1.00946	-34.9378
 512	1	9	0.093434	1.04559	2.65887	-35.3698
 513	1	6	0.232522	-3.52329	-1.97148	-26.1536
 514	1	9	0.020884	-5.36746	-3.30732	-26.0504
 515	1	9	0.114771	-5.38922	-4.36332	-27.463
 516	1	9	0.181647	-6.65185	-3.13532	-27.2318
 517	1	9	0.069456	-4.60795	-1.73863	-31.9602
 518	1	9	0.029017	-3.2776	-0.629347	-31.9182
 519	1	9	-0.058945	-4.90795	-0.0270315	-31.58
 520	1	4	0.329672	-6.2161	-2.06407	-30.9319
 521	1	1	0.452895	-10.4961	-3.09079	-24.7135
 522	1	2	0.074505	-9.23492	-2.81625	-25.2439
 523	1	3	0.001656	-9.39939	-1.48385	-25.88
 524	1	2	0.074191	-11.4445	-2.10418	-24.947
 525	1	3	0.036519	-10.7068	-1.0596	-25.7074
 526	1	5	-0.399533	-8.21363	-3.48418	-25.2207
 527	1	5	-0.398173	-12.63	-2.12159	-24.6526
 528	1	3	-0.067442	-8.45825	-0.696674	-26.5495
 529	1	3	-0.068422	-11.1412	0.176352	-26.2022
 530	1	3	-0.213282	-10.202	0.988412	-26.876
 531	1	3	-0.047343	-8.86633	0.555119	-27.0554
 532	1	6	0.159476	-7.43455	-1.03982	-26.6476
 533	1	6	0.16033	-12.1681	0.499221	-26.0499
 534	1	6	0.171114	-10.504	1.96848	-27.2402
 535	1	7	-0.06383	-7.83404	1.47606	-27.6874
 536	1	3	0.009736	-7.91171	1.64435	-29.1864
 537	1	3	-0.108991	-7.86506	0.509741	-30.0157
 538	1	3	-0.114952	-7.80731	0.715916	-31.3968
 539	1	3	-0.090153	-7.8936	2.94552	-29.746
 540	1	3	-0.148302	-7.85539	3.13022	-31.1412
 541	1	3	-0.073574	-7.82026	1.98561	-31.9453
 542	1	2	0.475719	-7.78031	1.85311	-33.4243
 543	1	1	0.026291	-7.73199	0.487819	-33.6647
 544	1	2	0.472085	-7.71052	-0.268088	-32.4999
 545	1	3	-0.022377	-7.69096	-0.0806443	-34.9651
 546	1	3	-0.088654	-6.46286	-0.520698	-35.5227
 547	1	3	0.02488	-6.46553	-1.18083	-36.7878
 548	1	3	0.040063	-8.90216	-0.234097	-35.6684
 549	1	3	-0.361597	-8.88212	-0.808636	-36.9421
 550	1	3	0.096629	-7.68792	-1.28733	-37.4971
 551	1	7	-0.018671	-5.17142	-0.291376	-34.728
 552	1	8	-0.317996	-5.33612	-1.80544	-37.3515
 553	1	6	0.16694	-7.83499	4.12378	-31.5836
 554	1	6	0.13386	-7.89293	3.81592	-29.0954
 555	1	6	0.147907	-7.86322	-0.492746	-29.5963
 556	1	5	-0.491298	-7.5466	-1.47278	-32.3719
 557	1	5	-0.47861	-7.80767	2.76319	-34.2367
 558	1	7	-0.160952	-10.242	0.21701	-35.093
 559	1	9	0.05529	-11.0723	-0.357217	-35.5213
 560	1	9	0.069029	-10.4214	1.27747	-35.3104
 561	1	9	0.053284	-10.2975	0.0805041	-34.0061
 562	1	7	-0.244214	-7.75366	-1.89316	-38.8926
 563	1	9	0.063506	-7.91519	2.46095	-27.2291
 564	1	9	0.093434	-6.82997	1.10554	-27.4646
 565	1	6	0.232522	-9.81075	-0.898003	-37.4975
 566	1	9	0.020884	-8.78367	-1.92877	-39.2698
 567	1	9	0.114771	-7.37266	-2.92042	-38.906
 568	1	9	0.181647	-7.17439	-1.2842	-39.5995
 569	1	9	0.069456	-4.45084	0.297752	-35.3023
 570	1	9	0.029017	-4.71898	-1.24383	-34.433
 571	1	9	-0.058945	-5.30599	0.286868	-33.8116
 572	1	4	0.329672	-5.46024	-2.33571	-38.1975
 573	1	1	0.452895	-14.3615	2.97289	-11.6898
 574	1	2	0.074505	-14.4085	2.46869	-12.989
 575	1	3	0.001656	-13.4237	1.34447	-12.9799
 576	1	2	0.074191	-13.4064	2.3648	-10.8823
 577	1	3	0.036519	-12.894	1.24962	-11.7044
 578	1	5	-0.399533	-15.0077	2.91905	-13.9528
 579	1	5	-0.398173	-12.9317	2.74635	-9.82534
 580	1	3	-0.067442	-12.8927	0.577255	-14.0291
 581	1	3	-0.068422	-11.9418	0.289292	-11.3625
 582	1	3	-0.213282	-11.4292	-0.520062	-12.3914
 583	1	3	-0.047343	-11.8397	-0.326625	-13.7302
 584	1	6	0.159476	-13.193	0.784498	-15.0541
 585	1	6	0.16033	-11.5574	0.238748	-10.3462
 586	1	6	0.171114	-10.609	-1.19805	-12.1688
 587	1	7	-0.06383	-10.8382	-0.699738	-14.8111
 588	1	3	0.009736	-10.9062	-1.9805	-15.6218
 589	1	3	-0.108991	-9.94932	-2.06549	-16.653
 590	1	3	-0.114952	-9.97411	-3.166	-17.5042
 591	1	3	-0.090153	-11.8489	-3.02242	-15.442
 592	1	3	-0.148302	-11.8711	-4.1225	-16.3358
 593	1	3	-0.073574	-10.9273	-4.15399	-17.3789
 594	1	2	0.475719	-10.7882	-5.05548	-18.5622
 595	1	1	0.026291	-9.76458	-4.50644	-19.3342
 596	1	2	0.472085	-9.16871	-3.42142	-18.7207
 597	1	3	-0.022377	-9.49028	-4.8777	-20.6826
 598	1	3	-0.088654	-10.3045	-4.36181	-21.7258
 599	1	3	0.02488	-10.0863	-4.78746	-23.0595
 600	1	3	0.040063	-8.40057	-5.72369	-20.9911
 601	1	3	-0.361597	-8.22766	-6.1686	-22.3085
 602	1	3	0.096629	-9.0873	-5.75202	-23.3322
 603	1	7	-0.018671	-11.3767	-3.30216	-21.4263
 604	1	8	-0.317996	-10.8851	-4.29737	-24.0942
 605	1	6	0.16694	-12.62	-4.90736	-16.2483
 606	1	6	0.13386	-12.5814	-2.96116	-14.6411
 607	1	6	0.147907	-9.23132	-1.26744	-16.8292
 608	1	5	-0.491298	-8.1949	-2.78968	-19.0862
 609	1	5	-0.47861	-11.5263	-5.98311	-18.8476
 610	1	7	-0.160952	-7.36689	-6.16316	-19.9609
 611	1	9	0.05529	-6.43767	-5.59358	-20.0954
 612	1	9	0.069029	-7.12088	-7.22492	-20.0811
 613	1	9	0.053284	-7.69405	-6.01864	-18.9261
 614	1	7	-0.244214	-8.89864	-6.38594	-24.7065
 615	1	9	0.063506	-10.8733	0.109599	-15.5351
 616	1	9	0.093434	-9.83124	-0.642632	-14.3792
 617	1	6	0.232522	-7.4165	-6.85113	-22.5418
 618	1	9	0.020884	-9.2083	-7.43822	-24.6928
 619	1	9	0.114771	-7.84691	-6.34341	-25.0112
 620	1	9	0.181647	-9.47394	-5.88265	-25.4897
 621	1	9	0.069456	-10.9465	-2.29264	-21.4834
 622	1	9	0.029017	-11.8246	-3.40942	-20.433
 623	1	9	-0.058945	-12.2136	-3.34969	-22.132
 624	1	4	0.329672	-11.8147	-4.04956	-23.7691
 625	1	1	0.452895	-22.4035	7.09185	-1.21048
 626	1	2	0.074505	-22.0974	6.47583	-2.42321
 627	1	3	0.001656	-22.4469	5.05033	-2.19566
 628	1	2	0.074191	-22.9372	6.23969	-0.249373
 629	1	3	0.036519	-22.9186	4.90673	-0.902588
 630	1	5	-0.399533	-21.5129	6.93031	-3.3932
 631	1	5	-0.398173	-23.1378	6.46414	0.933906
 632	1	3	-0.067442	-22.1905	3.94143	-3.00606
 633	1	3	-0.068422	-23.1415	3.64359	-0.344896
 634	1	3	-0.213282	-22.8476	2.51005	-1.13205
 635	1	3	-0.047343	-22.3525	2.64765	-2.45102
 636	1	6	0.159476	-21.7774	4.09507	-4.00054
 637	1	6	0.16033	-23.4631	3.55162	0.689993
 638	1	6	0.171114	-22.9557	1.51958	-0.697047
 639	1	7	-0.06383	-21.8713	1.40684	-3.20707