pySIMM System Object

626 atoms
685 bonds
1188 angles
1748 dihedrals
192 impropers

9 atom types
12 bond types
20 angle types
8 dihedral types
4 improper types

-125.956010 125.956010 xlo xhi
-125.956010 125.956010 ylo yhi
-125.956010 125.956010 zlo zhi

Masses

   1	14.01	# n
   2	12.01	# c
   3	12.01	# ca
   4	1.008	# hn
   5	16.0	# o
   6	1.008	# ha
   7	12.01	# c3
   8	14.01	# nh
   9	1.008	# hc

Pair Coeffs

   1	0.17	3.249998523775958	# n
   2	0.086	3.3996695084235347	# c
   3	0.086	3.3996695084235347	# ca
   4	0.0157	1.069078461768407	# hn
   5	0.21	2.959921901149463	# o
   6	0.015	2.59964245953351	# ha
   7	0.1094	3.3996695084235347	# c3
   8	0.17	3.249998523775958	# nh
   9	0.0157	2.649532787749369	# hc

Bond Coeffs

   1	384.2	1.4121	# ca,n
   2	404.6	1.0121	# hn,nh
   3	403.2	1.0129	# hn,n
   4	417.9	1.3859	# ca,nh
   5	461.1	1.3984	# ca,ca
   6	427.6	1.3789	# c,n
   7	345.9	1.4906	# c,ca
   8	345.8	1.086	# ca,ha
   9	321.0	1.5156	# c3,ca
  10	330.6	1.0969	# c3,hc
  11	637.7	1.2183	# c,o
  12	452.5	1.4016	# n,nh

Angle Coeffs

   1	63.53	120.77	# c3,ca,ca
   2	39.4	107.58	# hc,c3,hc
   3	66.62	120.02	# ca,ca,ca
   4	48.42	116.07	# ca,nh,hn
   5	48.18	119.88	# ca,ca,ha
   6	63.74	127.08	# c,n,c
   7	67.87	120.19	# ca,ca,n
   8	40.07	115.12	# hn,nh,hn
   9	68.72	122.6	# ca,c,o
  10	48.33	117.55	# c,n,hn
  11	64.28	120.33	# c,ca,ca
  12	67.68	115.25	# ca,c,n
  13	63.56	112.24	# ca,c3,ca
  14	74.22	123.05	# n,c,o
  15	63.82	123.71	# c,n,ca
  16	46.8	110.47	# ca,c3,hc
  17	68.29	120.95	# ca,ca,nh
  18	67.01	118.71	# c,n,nh
  19	67.61	116.03	# ca,nh,n
  20	50.88	108.17	# hn,nh,n

Dihedral Coeffs

   1	1	3.625	2	180	# X,ca,ca,X
   2	1	1.0	2	180	# X,c,ca,X
   3	1	0.0	2	0	# X,c3,ca,X
   4	1	2.5	2	180	# X,c,n,X
   5	1	1.05	2	180	# X,ca,nh,X
   6	1	0.45	2	180	# X,ca,n,X
   7	2	2.5	2	180	2.0	1	0	# hn,n,c,o
   8	1	1.1	2	0	# X,n,nh,X

Improper Coeffs

   1	1.1	-1	2	# ca,X,X,ha
   2	10.5	-1	2	# c,X,X,o
   3	1.1	-1	2	# ca,ca,ca,c3
   4	1.1	-1	2	# n,X,X,hn

Atoms

   1	1	1	0.452895	36.3223	25.1577	-21.1317
   2	1	2	0.074505	35.8909	24.2725	-22.1151
   3	1	3	0.001656	35.3414	25.1537	-23.1791
   4	1	2	0.074191	36.1243	26.5011	-21.4367
   5	1	3	0.036519	35.4567	26.4713	-22.7662
   6	1	5	-0.399533	36.0811	23.0686	-22.19
   7	1	5	-0.398173	36.524	27.486	-20.8367
   8	1	3	-0.067442	34.889	24.825	-24.4634
   9	1	3	-0.068422	35.0681	27.5279	-23.5964
  10	1	3	-0.213282	34.5935	27.2154	-24.8891
  11	1	3	-0.047343	34.5239	25.8726	-25.3398
  12	1	6	0.159476	34.8775	23.7865	-24.7778
  13	1	6	0.16033	35.1735	28.557	-23.2593
  14	1	6	0.171114	34.3255	28.0273	-25.5608
  15	1	7	-0.06383	34.1989	25.5829	-26.8053
  16	1	3	0.009736	33.0207	24.6436	-27.0427
  17	1	3	-0.108991	31.7456	25.1739	-27.3403
  18	1	3	-0.114952	30.7018	24.2804	-27.6201
  19	1	3	-0.090153	33.2141	23.2393	-27.0392
  20	1	3	-0.148302	32.1457	22.3569	-27.3041
  21	1	3	-0.073574	30.893	22.9117	-27.5958
  22	1	2	0.475719	29.5831	22.2532	-27.8603
  23	1	1	0.026291	28.6702	23.2895	-28.0043
  24	1	2	0.472085	29.2664	24.5402	-27.9133
  25	1	3	-0.022377	27.2586	23.1005	-28.0311
  26	1	3	-0.088654	26.5225	23.1444	-29.2422
  27	1	3	0.02488	25.1129	23.0204	-29.1992
  28	1	3	0.040063	26.5889	22.9089	-26.8014
  29	1	3	-0.361597	25.1948	22.7705	-26.7804
  30	1	3	0.096629	24.4522	22.8316	-27.9659
  31	1	7	-0.018671	27.2211	23.3557	-30.5905
  32	1	8	-0.317996	24.3701	23.1054	-30.3729
  33	1	6	0.16694	32.2817	21.2772	-27.2808
  34	1	6	0.13386	34.1986	22.8295	-26.8313
  35	1	6	0.147907	31.5676	26.2467	-27.3562
  36	1	5	-0.491298	28.732	25.6337	-27.9827
  37	1	5	-0.47861	29.3627	21.0538	-27.8551
  38	1	7	-0.160952	27.3441	22.8488	-25.4787
  39	1	9	0.05529	28.0484	23.6836	-25.3773
  40	1	9	0.069029	27.9093	21.9117	-25.3972
  41	1	9	0.053284	26.6636	22.8985	-24.6203
  42	1	7	-0.244214	22.9383	22.7033	-27.888
  43	1	9	0.063506	34.0165	26.5252	-27.3375
  44	1	9	0.093434	35.0928	25.1636	-27.2845
  45	1	6	0.232522	24.6834	22.6256	-25.8339
  46	1	9	0.020884	22.5869	22.5658	-26.8577
  47	1	9	0.114771	22.5917	21.8463	-28.4775
  48	1	9	0.181647	22.4596	23.6042	-28.2888
  49	1	9	0.069456	28.2943	23.1364	-30.5575
  50	1	9	0.029017	27.1037	24.3932	-30.9275
  51	1	9	-0.058945	26.7965	22.7054	-31.3666
  52	1	4	0.329672	24.8588	23.1399	-31.2589
  53	1	1	0.452895	22.9225	25.1087	-16.6223
  54	1	2	0.074505	23.6228	24.7288	-15.479
  55	1	3	0.001656	25.0288	25.0742	-15.7762
  56	1	2	0.074191	23.7366	25.6052	-17.6437
  57	1	3	0.036519	25.1098	25.5825	-17.0589
  58	1	5	-0.399533	23.1996	24.3956	-14.3861
  59	1	5	-0.398173	23.4071	26.1205	-18.7009
  60	1	3	-0.067442	26.1158	25.0976	-14.9008
  61	1	3	-0.068422	26.3171	26.1004	-17.5481
  62	1	3	-0.213282	27.4357	26.1239	-16.6808
  63	1	3	-0.047343	27.3334	25.6491	-15.3461
  64	1	6	0.159476	25.99	24.7558	-13.8766
  65	1	6	0.16033	26.368	26.5177	-18.5513
  66	1	6	0.171114	28.3673	26.5535	-17.0404
  67	1	7	-0.06383	28.4459	25.7976	-14.309
  68	1	3	0.009736	29.8187	26.2029	-14.8252
  69	1	3	-0.108991	30.8356	25.2315	-14.9321
  70	1	3	-0.114952	32.1049	25.6476	-15.3485
  71	1	3	-0.090153	30.0969	27.5577	-15.134
  72	1	3	-0.148302	31.3803	27.9531	-15.5672
  73	1	3	-0.073574	32.3717	26.9672	-15.6607
  74	1	2	0.475719	33.7809	27.0547	-16.1338
  75	1	1	0.026291	34.261	25.7518	-16.1031
  76	1	2	0.472085	33.3313	24.8507	-15.6042
  77	1	3	-0.022377	35.4926	25.3483	-16.6913
  78	1	3	-0.088654	35.5858	25.1871	-18.1018
  79	1	3	0.02488	36.8383	24.8175	-18.6772
  80	1	3	0.040063	36.6035	25.0974	-15.859
  81	1	3	-0.361597	37.806	24.6737	-16.4323
  82	1	3	0.096629	37.9285	24.5298	-17.8186
  83	1	7	-0.018671	34.3289	25.4259	-18.9545
  84	1	8	-0.317996	37.1138	24.7189	-20.052
  85	1	6	0.16694	31.6004	28.9868	-15.8277
  86	1	6	0.13386	29.3091	28.3014	-15.0435
  87	1	6	0.147907	30.6493	24.1848	-14.7026
  88	1	5	-0.491298	33.4467	23.6444	-15.4719
  89	1	5	-0.47861	34.3383	28.0527	-16.5578
  90	1	7	-0.160952	36.544	25.2748	-14.3459
  91	1	9	0.05529	37.4002	24.7999	-13.851
  92	1	9	0.069029	35.6415	24.8238	-13.9168
  93	1	9	0.053284	36.5573	26.3387	-14.0785
  94	1	7	-0.244214	39.2677	24.0398	-18.3612
  95	1	9	0.063506	28.1247	26.5362	-13.5632
  96	1	9	0.093434	28.5375	24.8562	-13.7519
  97	1	6	0.232522	38.6571	24.4621	-15.7926
  98	1	9	0.020884	39.9585	23.7667	-17.5538
  99	1	9	0.114771	39.7615	24.8128	-18.962
 100	1	9	0.181647	39.1328	23.1403	-18.9758
 101	1	9	0.069456	34.3178	26.4484	-19.3532
 102	1	9	0.029017	33.3941	25.2901	-18.401
 103	1	9	-0.058945	34.2524	24.7176	-19.7848
 104	1	4	0.329672	38.0767	24.7031	-20.3433
 105	1	1	0.452895	17.1075	13.9193	-7.08709
 106	1	2	0.074505	16.8509	14.6748	-8.23017
 107	1	3	0.001656	17.2936	16.0473	-7.86573
 108	1	2	0.074191	17.6383	14.6464	-6.02615
 109	1	3	0.036519	17.7665	16.0238	-6.56359
 110	1	5	-0.399533	16.5182	14.2927	-9.33993
 111	1	5	-0.398173	18.0752	14.2401	-4.96104
 112	1	3	-0.067442	17.3429	17.2135	-8.64254
 113	1	3	-0.068422	18.3361	17.1548	-5.97296
 114	1	3	-0.213282	18.393	18.338	-6.7365
 115	1	3	-0.047343	17.8973	18.3782	-8.06393
 116	1	6	0.159476	16.9634	17.21	-9.66163
 117	1	6	0.16033	18.7242	17.1085	-4.95749
 118	1	6	0.171114	18.818	19.2323	-6.28711
 119	1	7	-0.06383	17.8939	19.7094	-8.8101
 120	1	3	0.009736	18.3939	19.711	-10.2528
 121	1	3	-0.108991	17.9071	20.7137	-11.1217
 122	1	3	-0.114952	18.476	20.8325	-12.3955
 123	1	3	-0.090153	19.415	18.8317	-10.6957
 124	1	3	-0.148302	19.9748	18.967	-11.9847
 125	1	3	-0.073574	19.4965	19.998	-12.8051
 126	1	2	0.475719	19.9708	20.4714	-14.1324
 127	1	1	0.026291	19.1948	21.5842	-14.4392
 128	1	2	0.472085	18.2401	21.8442	-13.4634
 129	1	3	-0.022377	19.4342	22.3625	-15.6122
 130	1	3	-0.088654	20.1312	23.5942	-15.5265
 131	1	3	0.02488	20.701	24.1559	-16.6987
 132	1	3	0.040063	19.144	21.8033	-16.8747
 133	1	3	-0.361597	19.6187	22.4293	-18.0344
 134	1	3	0.096629	20.4218	23.5747	-17.9581
 135	1	7	-0.018671	20.2658	24.2907	-14.1651
 136	1	8	-0.317996	21.5192	25.2829	-16.601
 137	1	6	0.16694	20.7849	18.3233	-12.3227
 138	1	6	0.13386	19.806	18.0696	-10.0262
 139	1	6	0.147907	17.1481	21.422	-10.798
 140	1	5	-0.491298	17.397	22.7243	-13.4427
 141	1	5	-0.47861	20.8958	20.0005	-14.7738
 142	1	7	-0.160952	18.3425	20.5159	-17.0189
 143	1	9	0.05529	17.5611	20.4359	-16.2531
 144	1	9	0.069029	18.9962	19.639	-16.9347
 145	1	9	0.053284	17.8394	20.4665	-17.9922
 146	1	7	-0.244214	20.9423	24.1641	-19.2609
 147	1	9	0.063506	16.8729	20.1097	-8.7807
 148	1	9	0.093434	18.502	20.4359	-8.25646
 149	1	6	0.232522	19.3988	21.9937	-19.0041
 150	1	9	0.020884	20.3352	23.8492	-20.1189
 151	1	9	0.114771	21.974	23.8437	-19.4482
 152	1	9	0.181647	20.93	25.2609	-19.2429
 153	1	9	0.069456	20.8632	23.6929	-13.4654
 154	1	9	0.029017	19.2823	24.4527	-13.7108
 155	1	9	-0.058945	20.7192	25.2873	-14.2289
 156	1	4	0.329672	21.3565	25.8455	-15.7768
 157	1	1	0.452895	21.5331	0.621784	-13.1796
 158	1	2	0.074505	21.1453	1.50765	-14.1822
 159	1	3	0.001656	20.0337	2.28514	-13.5727
 160	1	2	0.074191	20.8139	0.749948	-11.9949
 161	1	3	0.036519	19.8236	1.82404	-12.2845
 162	1	5	-0.399533	21.5989	1.64016	-15.3075
 163	1	5	-0.398173	20.9827	0.17021	-10.9347
 164	1	3	-0.067442	19.2714	3.32924	-14.1093
 165	1	3	-0.068422	18.805	2.3543	-11.4838
 166	1	3	-0.213282	18.001	3.38478	-12.0218
 167	1	3	-0.047343	18.2473	3.903	-13.3204
 168	1	6	0.159476	19.4713	3.67952	-15.1191
 169	1	6	0.16033	18.6402	1.9675	-10.4801
 170	1	6	0.171114	17.188	3.77888	-11.4177
 171	1	7	-0.06383	17.4216	5.03256	-13.9462
 172	1	3	0.009736	16.5461	5.90804	-13.0437
 173	1	3	-0.108991	16.997	6.37434	-11.7864
 174	1	3	-0.114952	16.1658	7.23959	-11.0582
 175	1	3	-0.090153	15.297	6.35815	-13.5437
 176	1	3	-0.148302	14.4993	7.26606	-12.817
 177	1	3	-0.073574	14.9667	7.69556	-11.5698
 178	1	2	0.475719	14.4034	8.69854	-10.6239
 179	1	1	0.026291	15.3128	8.77508	-9.57532
 180	1	2	0.472085	16.3777	7.89412	-9.73975
 181	1	3	-0.022377	15.2183	9.72398	-8.5105
 182	1	3	-0.088654	16.1862	10.7542	-8.38915
 183	1	3	0.02488	16.1093	11.6738	-7.31494
 184	1	3	0.040063	14.1698	9.6323	-7.56717
 185	1	3	-0.361597	14.0639	10.5951	-6.55195
 186	1	3	0.096629	15.0203	11.6126	-6.41184
 187	1	7	-0.018671	17.3374	10.8619	-9.40344
 188	1	8	-0.317996	17.204	12.5165	-7.11844
 189	1	6	0.16694	13.5602	7.64422	-13.217
 190	1	6	0.13386	14.9595	6.03313	-14.5243
 191	1	6	0.147907	17.9707	6.09175	-11.3925
 192	1	5	-0.491298	17.3213	7.70151	-8.9922
 193	1	5	-0.47861	13.3911	9.35689	-10.7958
 194	1	7	-0.160952	13.1535	8.49591	-7.59455
 195	1	9	0.05529	13.6358	7.53095	-7.79367
 196	1	9	0.069029	12.3916	8.66504	-8.36519
 197	1	9	0.053284	12.6336	8.39773	-6.63351
 198	1	7	-0.244214	14.8649	12.5808	-5.24702
 199	1	9	0.063506	18.1051	5.70248	-14.484
 200	1	9	0.093434	16.7927	4.58508	-14.7259
 201	1	6	0.232522	13.2465	10.5245	-5.84124
 202	1	9	0.020884	15.8058	12.7083	-4.69965
 203	1	9	0.114771	14.122	12.2273	-4.5224
 204	1	9	0.181647	14.5338	13.5637	-5.60107
 205	1	9	0.069456	17.0182	10.5959	-10.4182
 206	1	9	0.029017	18.1674	10.2028	-9.12211
 207	1	9	-0.058945	17.7476	11.8748	-9.48066
 208	1	4	0.329672	18.0045	12.311	-7.69724
 209	1	1	0.452895	18.7993	-7.23843	-4.42937
 210	1	2	0.074505	20.1414	-7.58595	-4.45207
 211	1	3	0.001656	20.3205	-8.22816	-5.77281
 212	1	2	0.074191	18.0823	-7.60196	-5.56704
 213	1	3	0.036519	19.1097	-8.2245	-6.44705
 214	1	5	-0.399533	20.9795	-7.46209	-3.57374
 215	1	5	-0.398173	16.8935	-7.46087	-5.80357
 216	1	3	-0.067442	21.4813	-8.75212	-6.34103
 217	1	3	-0.068422	19.0044	-8.7337	-7.74735
 218	1	3	-0.213282	20.1744	-9.24745	-8.35177
 219	1	3	-0.047343	21.4085	-9.25972	-7.6525
 220	1	6	0.159476	22.4206	-8.71773	-5.79517
 221	1	6	0.16033	18.0524	-8.70531	-8.27414
 222	1	6	0.171114	20.1275	-9.61142	-9.37584
 223	1	7	-0.06383	22.6975	-9.6899	-8.33875
 224	1	3	0.009736	23.4588	-8.52483	-8.97422
 225	1	3	-0.108991	22.9784	-7.19711	-8.8857
 226	1	3	-0.114952	23.6112	-6.20276	-9.63554
 227	1	3	-0.090153	24.6017	-8.79675	-9.76497
 228	1	3	-0.148302	25.2166	-7.78112	-10.5289
 229	1	3	-0.073574	24.6775	-6.48835	-10.4647
 230	1	2	0.475719	24.8406	-5.34681	-11.4102
 231	1	1	0.026291	23.765	-4.50636	-11.1423
 232	1	2	0.472085	23.0801	-4.86505	-9.9903
 233	1	3	-0.022377	23.1	-3.75712	-12.1555
 234	1	3	-0.088654	23.2757	-2.36008	-12.3118
 235	1	3	0.02488	22.4502	-1.64693	-13.2209
 236	1	3	0.040063	22.154	-4.44686	-12.9485
 237	1	3	-0.361597	21.3676	-3.73722	-13.86
 238	1	3	0.096629	21.4939	-2.35036	-13.9988
 239	1	7	-0.018671	24.3213	-1.61105	-11.4782
 240	1	8	-0.317996	22.6233	-0.262079	-13.3238
 241	1	6	0.16694	26.0201	-8.01014	-11.2262
 242	1	6	0.13386	24.9626	-9.81838	-9.85105
 243	1	6	0.147907	22.0682	-6.9418	-8.34993
 244	1	5	-0.491298	22.0426	-4.38839	-9.56388
 245	1	5	-0.47861	25.5542	-5.34422	-12.3989
 246	1	7	-0.160952	21.9414	-5.95654	-12.8394
 247	1	9	0.05529	21.5597	-6.23801	-11.8503
 248	1	9	0.069029	22.8759	-6.50339	-13.0161
 249	1	9	0.053284	21.217	-6.32094	-13.5769
 250	1	7	-0.244214	20.589	-1.68062	-15.0228
 251	1	9	0.063506	23.3467	-10.2013	-7.61691
 252	1	9	0.093434	22.4667	-10.4356	-9.11041
 253	1	6	0.232522	20.6383	-4.27186	-14.4599
 254	1	9	0.020884	20.1168	-2.41468	-15.6877
 255	1	9	0.114771	21.1529	-0.989509	-15.6606
 256	1	9	0.181647	19.7809	-1.12924	-14.5302
 257	1	9	0.069456	25.1021	-2.27292	-11.0852
 258	1	9	0.029017	23.8511	-1.10389	-10.6264
 259	1	9	-0.058945	24.8389	-0.849374	-12.0762
 260	1	4	0.329672	23.3952	0.127712	-12.8031
 261	1	1	0.452895	7.02035	-3.06147	3.37808
 262	1	2	0.074505	7.71837	-3.94056	4.21151
 263	1	3	0.001656	8.92707	-3.1788	4.60773
 264	1	2	0.074191	7.50627	-1.75065	3.436
 265	1	3	0.036519	8.79779	-1.87702	4.15988
 266	1	5	-0.399533	7.62103	-5.15306	4.29021
 267	1	5	-0.398173	7.19106	-0.79098	2.75146
 268	1	3	-0.067442	10.1753	-3.71079	4.95062
 269	1	3	-0.068422	9.90467	-1.02265	4.08116
 270	1	3	-0.213282	11.1737	-1.54602	4.40485
 271	1	3	-0.047343	11.3174	-2.89602	4.80143
 272	1	6	0.159476	10.266	-4.77311	5.15886
 273	1	6	0.16033	9.79979	-0.0333496	3.64142
 274	1	6	0.171114	12.0582	-0.937296	4.23183
 275	1	7	-0.06383	12.6985	-3.53545	4.80465
 276	1	3	0.009736	13.0158	-4.04682	3.40146
 277	1	3	-0.108991	13.8999	-3.33169	2.56281
 278	1	3	-0.114952	14.0921	-3.79375	1.25271
 279	1	3	-0.090153	12.371	-5.21081	2.91145
 280	1	3	-0.148302	12.5704	-5.65232	1.58786
 281	1	3	-0.073574	13.4313	-4.90822	0.773205
 282	1	2	0.475719	13.8843	-5.15828	-0.620862
 283	1	1	0.026291	14.8635	-4.20233	-0.868689
 284	1	2	0.472085	15.0143	-3.31313	0.188792
 285	1	3	-0.022377	15.7696	-4.27773	-1.96753
 286	1	3	-0.088654	16.6751	-5.36438	-2.04881
 287	1	3	0.02488	17.5346	-5.49025	-3.16666
 288	1	3	0.040063	15.7811	-3.27907	-2.96439
 289	1	3	-0.361597	16.739	-3.33861	-3.98724
 290	1	3	0.096629	17.6258	-4.41991	-4.09704
 291	1	7	-0.018671	16.7544	-6.40649	-0.918523
 292	1	8	-0.317996	18.2258	-6.70297	-3.26456
 293	1	6	0.16694	12.0837	-6.54843	1.20725
 294	1	6	0.13386	11.7015	-5.7718	3.55636
 295	1	6	0.147907	14.4236	-2.44602	2.91327
 296	1	5	-0.491298	15.8141	-2.39878	0.296247
 297	1	5	-0.47861	13.5425	-6.09229	-1.32798
 298	1	7	-0.160952	14.8025	-2.11226	-2.94906
 299	1	9	0.05529	14.7654	-1.60756	-3.92253
 300	1	9	0.069029	15.0941	-1.3654	-2.2005
 301	1	9	0.053284	13.783	-2.44762	-2.72323
 302	1	7	-0.244214	18.6637	-4.33735	-5.21074
 303	1	9	0.063506	13.4543	-2.80997	5.13167
 304	1	9	0.093434	12.7409	-4.36136	5.52607
 305	1	6	0.232522	16.7883	-2.53678	-4.71795
 306	1	9	0.020884	18.8621	-3.29468	-5.48945
 307	1	9	0.114771	18.3203	-4.85446	-6.11479
 308	1	9	0.181647	19.6292	-4.75139	-4.89865
 309	1	9	0.069456	17.7932	-6.69084	-0.706976
 310	1	9	0.029017	16.1966	-7.31492	-1.17783
 311	1	9	-0.058945	16.3666	-6.03594	0.0369635
 312	1	4	0.329672	17.8924	-7.46588	-2.69663
 313	1	1	0.452895	-4.65034	-13.9695	4.99563
 314	1	2	0.074505	-3.8955	-13.0228	4.29304
 315	1	3	0.001656	-2.60278	-12.923	5.04501
 316	1	2	0.074191	-3.9908	-14.5035	6.09613
 317	1	3	0.036519	-2.68649	-13.7929	6.12238
 318	1	5	-0.399533	-4.1923	-12.4307	3.26841
 319	1	5	-0.398173	-4.38313	-15.3356	6.89737
 320	1	3	-0.067442	-1.45375	-12.1252	4.83319
 321	1	3	-0.068422	-1.65822	-13.8971	7.05837
 322	1	3	-0.213282	-0.512467	-13.1031	6.87004
 323	1	3	-0.047343	-0.3833	-12.2266	5.76319
 324	1	6	0.159476	-1.41171	-11.4338	3.99496
 325	1	6	0.16033	-1.76064	-14.5592	7.91559
 326	1	6	0.171114	0.277533	-13.1492	7.61603
 327	1	7	-0.06383	0.8625	-11.3264	5.77597
 328	1	3	0.009736	1.49763	-10.7829	4.49165
 329	1	3	-0.108991	1.40014	-9.39805	4.24519
 330	1	3	-0.114952	2.25315	-8.82034	3.29776
 331	1	3	-0.090153	2.43965	-11.5461	3.75059
 332	1	3	-0.148302	3.26447	-10.9438	2.76514
 333	1	3	-0.073574	3.1509	-9.55827	2.55741
 334	1	2	0.475719	3.92143	-8.60787	1.68538
 335	1	1	0.026291	3.45591	-7.33043	2.01225
 336	1	2	0.472085	2.46578	-7.39016	2.99057
 337	1	3	-0.022377	3.86594	-6.0483	1.50396
 338	1	3	-0.088654	5.14534	-5.50508	1.79966
 339	1	3	0.02488	5.31226	-4.09466	1.88892
 340	1	3	0.040063	2.86367	-5.18932	0.994704
 341	1	3	-0.361597	3.05787	-3.80352	1.02348
 342	1	3	0.096629	4.23681	-3.24609	1.53374
 343	1	7	-0.018671	6.35088	-6.4443	1.91564
 344	1	8	-0.317996	6.58146	-3.56181	2.12827
 345	1	6	0.16694	4.01602	-11.5202	2.22797
 346	1	6	0.13386	2.58019	-12.5976	3.98842
 347	1	6	0.147907	0.751121	-8.76209	4.84241
 348	1	5	-0.491298	1.88156	-6.46805	3.53523
 349	1	5	-0.47861	4.7569	-8.92494	0.855999
 350	1	7	-0.160952	1.56464	-5.70482	0.378422
 351	1	9	0.05529	1.23944	-6.67308	0.770478
 352	1	9	0.069029	1.6888	-5.82262	-0.705457
 353	1	9	0.053284	0.740836	-4.99959	0.540747
 354	1	7	-0.244214	4.33534	-1.72853	1.57424
 355	1	9	0.063506	0.631323	-10.4761	6.4302
 356	1	9	0.093434	1.66111	-11.8548	6.31162
 357	1	6	0.232522	2.26132	-3.15583	0.672964
 358	1	9	0.020884	5.30107	-1.37426	1.20142
 359	1	9	0.114771	4.19905	-1.3559	2.59697
 360	1	9	0.181647	3.57214	-1.25631	0.946596
 361	1	9	0.069456	6.38897	-7.12268	1.05698
 362	1	9	0.029017	6.31865	-7.04567	2.83151
 363	1	9	-0.058945	7.31418	-5.92219	1.87882
 364	1	4	0.329672	7.33244	-4.17887	1.85438
 365	1	1	0.452895	-19.4901	-19.3419	10.8533
 366	1	2	0.074505	-19.1763	-20.2453	9.84432
 367	1	3	0.001656	-17.8975	-19.7334	9.28989
 368	1	2	0.074191	-18.5785	-18.3008	11.0035
 369	1	3	0.036519	-17.5295	-18.5972	9.99158
 370	1	5	-0.399533	-19.8168	-21.2058	9.4487
 371	1	5	-0.398173	-18.6129	-17.357	11.7767
 372	1	3	-0.067442	-17.1536	-20.1941	8.19922
 373	1	3	-0.068422	-16.3585	-17.8993	9.67804
 374	1	3	-0.213282	-15.5899	-18.3525	8.58332
 375	1	3	-0.047343	-15.9955	-19.4791	7.82074
 376	1	6	0.159476	-17.5001	-21.0564	7.63534
 377	1	6	0.16033	-16.0773	-17.0144	10.2452
 378	1	6	0.171114	-14.6971	-17.7969	8.30969
 379	1	7	-0.06383	-15.2855	-19.8818	6.52772
 380	1	3	0.009736	-13.815	-19.4905	6.42521
 381	1	3	-0.108991	-13.4468	-18.2272	5.90767
 382	1	3	-0.114952	-12.0816	-17.9091	5.83612
 383	1	3	-0.090153	-12.8138	-20.4029	6.83614
 384	1	3	-0.148302	-11.4472	-20.065	6.75166
 385	1	3	-0.073574	-11.1106	-18.8011	6.24827
 386	1	2	0.475719	-9.78878	-18.1173	6.18193
 387	1	1	0.026291	-10.0606	-16.8123	5.78941
 388	1	2	0.472085	-11.4079	-16.627	5.48624
 389	1	3	-0.022377	-9.13282	-15.7373	5.97219
 390	1	3	-0.088654	-8.01357	-15.5383	5.1169
 391	1	3	0.02488	-7.06857	-14.5052	5.39343
 392	1	3	0.040063	-9.31245	-14.9009	7.09519
 393	1	3	-0.361597	-8.4238	-13.8458	7.31859
 394	1	3	0.096629	-7.31823	-13.6282	6.48612
 395	1	7	-0.018671	-7.80746	-16.4616	3.90884
 396	1	8	-0.317996	-5.92584	-14.4212	4.56943
 397	1	6	0.16694	-10.6728	-20.7466	7.0982
 398	1	6	0.13386	-13.1009	-21.3705	7.24001
 399	1	6	0.147907	-14.1981	-17.4998	5.60739
 400	1	5	-0.491298	-11.9708	-15.5954	5.16153
 401	1	5	-0.47861	-8.72494	-18.5841	6.55123
 402	1	7	-0.160952	-10.4426	-15.1122	8.10091
 403	1	9	0.05529	-10.2741	-14.5449	9.02394
 404	1	9	0.069029	-10.5327	-16.1663	8.39121
 405	1	9	0.053284	-11.4054	-14.7852	7.68955
 406	1	7	-0.244214	-6.44439	-12.4359	6.85117
 407	1	9	0.063506	-15.3764	-20.9665	6.38671
 408	1	9	0.093434	-15.8317	-19.439	5.68511
 409	1	6	0.232522	-8.58786	-13.1922	8.16936
 410	1	9	0.020884	-7.00245	-11.6974	7.44031
 411	1	9	0.114771	-6.07649	-11.9102	5.96306
 412	1	9	0.181647	-5.59583	-12.7574	7.46648
 413	1	9	0.069456	-7.45774	-15.9087	3.02851
 414	1	9	0.029017	-8.73096	-16.9622	3.59491
 415	1	9	-0.058945	-7.06715	-17.2388	4.13418
 416	1	4	0.329672	-5.77457	-15.2059	3.95452
 417	1	1	0.452895	-32.8629	-20.5598	13.0345
 418	1	2	0.074505	-32.8702	-20.6157	14.4214
 419	1	3	0.001656	-31.4723	-20.3004	14.7874
 420	1	2	0.074191	-31.6187	-20.3412	12.4556
 421	1	3	0.036519	-30.7329	-20.1292	13.6271
 422	1	5	-0.399533	-33.8124	-20.7741	15.1812
 423	1	5	-0.398173	-31.3219	-20.2606	11.274
 424	1	3	-0.067442	-30.9197	-20.1061	16.0541
 425	1	3	-0.068422	-29.3986	-19.7271	13.6729
 426	1	3	-0.213282	-28.8252	-19.5121	14.9408
 427	1	3	-0.047343	-29.5706	-19.7132	16.1399
 428	1	6	0.159476	-31.5309	-20.2417	16.9424
 429	1	6	0.16033	-28.8363	-19.5657	12.7551
 430	1	6	0.171114	-27.7925	-19.179	14.9632
 431	1	7	-0.06383	-28.9686	-19.5206	17.5339
 432	1	3	0.009736	-27.5539	-18.9876	17.4629
 433	1	3	-0.108991	-26.5354	-19.8814	17.0835
 434	1	3	-0.114952	-25.3229	-19.3373	16.6655
 435	1	3	-0.090153	-27.3073	-17.5943	17.5182
 436	1	3	-0.148302	-26.0536	-17.0718	17.1371
 437	1	3	-0.073574	-25.0842	-17.9757	16.6815
 438	1	2	0.475719	-23.7555	-17.7379	16.0528
 439	1	1	0.026291	-23.3081	-18.9947	15.6689
 440	1	2	0.472085	-24.1831	-20.011	16.0091
 441	1	3	-0.022377	-22.0697	-19.2592	15.0359
 442	1	3	-0.088654	-21.9679	-19.2244	13.6243
 443	1	3	0.02488	-20.7426	-19.5812	12.9982
 444	1	3	0.040063	-20.9778	-19.6558	15.8302
 445	1	3	-0.361597	-19.7957	-20.0546	15.2055
 446	1	3	0.096629	-19.6676	-20.0499	13.8097
 447	1	7	-0.018671	-23.2128	-18.8226	12.8117
 448	1	8	-0.317996	-20.6753	-19.4495	11.6034
 449	1	6	0.16694	-25.8669	-15.9999	17.1187
 450	1	6	0.13386	-28.1135	-16.9139	17.7799
 451	1	6	0.147907	-26.7273	-20.9465	16.9691
 452	1	5	-0.491298	-24.0809	-21.2062	15.7911
 453	1	5	-0.47861	-23.2154	-16.6581	15.8823
 454	1	7	-0.160952	-21.0268	-19.712	17.3552
 455	1	9	0.05529	-20.3924	-18.9287	17.7869
 456	1	9	0.069029	-20.6575	-20.6796	17.7157
 457	1	9	0.053284	-22.0303	-19.5831	17.7744
 458	1	7	-0.244214	-18.3439	-20.5879	13.2806
 459	1	9	0.063506	-29.5994	-18.8464	18.1267
 460	1	9	0.093434	-28.9707	-20.4817	18.0647
 461	1	6	0.232522	-18.9696	-20.3894	15.8239
 462	1	9	0.020884	-18.4729	-21.1942	12.3775
 463	1	9	0.114771	-17.863	-21.2441	14.0153
 464	1	9	0.181647	-17.6453	-19.7675	13.0785
 465	1	9	0.069456	-23.1282	-18.9989	11.7344
 466	1	9	0.029017	-23.4454	-17.7596	12.9523
 467	1	9	-0.058945	-24.0924	-19.3951	13.1322
 468	1	4	0.329672	-21.3989	-18.9235	11.1417
 469	1	1	0.452895	-40.2888	-13.7974	12.4786
 470	1	2	0.074505	-39.9719	-13.7095	11.1236
 471	1	3	0.001656	-40.9294	-14.643	10.4592
 472	1	2	0.074191	-41.2911	-14.7206	12.7666
 473	1	3	0.036519	-41.7226	-15.2218	11.4367
 474	1	5	-0.399533	-39.0834	-13.065	10.5904
 475	1	5	-0.398173	-41.725	-15.0705	13.8526
 476	1	3	-0.067442	-41.0687	-14.9988	9.10846
 477	1	3	-0.068422	-42.7293	-16.1389	11.1172
 478	1	3	-0.213282	-42.9021	-16.4883	9.76231
 479	1	3	-0.047343	-42.0647	-15.9436	8.75843
 480	1	6	0.159476	-40.3891	-14.5907	8.36447
 481	1	6	0.16033	-43.3354	-16.5847	11.9029
 482	1	6	0.171114	-43.6491	-17.2338	9.49883
 483	1	7	-0.06383	-42.1173	-16.5196	7.34233
 484	1	3	0.009736	-40.9123	-17.4266	7.11637
 485	1	3	-0.108991	-40.5025	-18.2734	8.16693
 486	1	3	-0.114952	-39.2206	-18.8182	8.11728
 487	1	3	-0.090153	-40.0839	-17.2657	5.97854
 488	1	3	-0.148302	-38.8007	-17.8523	5.93375
 489	1	3	-0.073574	-38.3759	-18.5901	7.04724
 490	1	2	0.475719	-36.9858	-18.8917	7.488
 491	1	1	0.026291	-37.1032	-19.1437	8.84856
 492	1	2	0.472085	-38.4151	-19.2758	9.27012
 493	1	3	-0.022377	-36.0871	-18.8511	9.79354
 494	1	3	-0.088654	-35.4392	-19.8821	10.5076
 495	1	3	0.02488	-34.6072	-19.557	11.6071
 496	1	3	0.040063	-35.883	-17.498	10.1427
 497	1	3	-0.361597	-35.0592	-17.1853	11.2261
 498	1	3	0.096629	-34.4438	-18.1903	11.9846
 499	1	7	-0.018671	-35.7005	-21.3525	10.1497
 500	1	8	-0.317996	-34.0455	-20.6415	12.2899
 501	1	6	0.16694	-38.1045	-17.623	5.12926
 502	1	6	0.13386	-40.3869	-16.596	5.17848
 503	1	6	0.147907	-41.0758	-18.358	9.08644
 504	1	5	-0.491298	-38.8233	-19.3958	10.4137
 505	1	5	-0.47861	-35.9708	-18.6301	6.86441
 506	1	7	-0.160952	-36.6066	-16.3531	9.43613
 507	1	9	0.05529	-36.3798	-16.3397	8.3634
 508	1	9	0.069029	-36.3121	-15.3742	9.83301
 509	1	9	0.053284	-37.6941	-16.4348	9.55677
 510	1	7	-0.244214	-33.7117	-17.7124	13.2354
 511	1	9	0.063506	-43.0436	-17.0855	7.18219
 512	1	9	0.093434	-42.1266	-15.7008	6.61189
 513	1	6	0.232522	-34.9415	-16.1438	11.5059
 514	1	9	0.020884	-32.6413	-17.9367	13.2043
 515	1	9	0.114771	-34.1518	-18.1569	14.1369
 516	1	9	0.181647	-33.7871	-16.6264	13.3581
 517	1	9	0.069456	-36.336	-21.8257	10.9098
 518	1	9	0.029017	-34.7648	-21.9222	10.0851
 519	1	9	-0.058945	-36.1994	-21.4812	9.18272
 520	1	4	0.329672	-34.103	-21.5524	11.864
 521	1	1	0.452895	-29.9037	-2.18221	20.6257
 522	1	2	0.074505	-30.7043	-3.30499	20.8093
 523	1	3	0.001656	-31.392	-3.47877	19.5048
 524	1	2	0.074191	-30.0736	-1.55248	19.3949
 525	1	3	0.036519	-31.0324	-2.43313	18.6693
 526	1	5	-0.399533	-30.8009	-4.02644	21.7889
 527	1	5	-0.398173	-29.4932	-0.575479	18.951
 528	1	3	-0.067442	-32.1117	-4.58203	19.0331
 529	1	3	-0.068422	-31.4421	-2.40245	17.3306
 530	1	3	-0.213282	-32.1613	-3.51219	16.8332
 531	1	3	-0.047343	-32.4555	-4.6224	17.664
 532	1	6	0.159476	-32.2713	-5.43669	19.6848
 533	1	6	0.16033	-31.1295	-1.589	16.6787
 534	1	6	0.171114	-32.3996	-3.55482	15.7725
 535	1	7	-0.06383	-32.803	-5.96409	17.0259
 536	1	3	0.009736	-34.2618	-6.3974	16.9429
 537	1	3	-0.108991	-34.7378	-6.91303	15.7145
 538	1	3	-0.114952	-35.9737	-7.57161	15.6963
 539	1	3	-0.090153	-35.0567	-6.51196	18.1104
 540	1	3	-0.148302	-36.3042	-7.17115	18.0706
 541	1	3	-0.073574	-36.7236	-7.71207	16.8471
 542	1	2	0.475719	-37.9146	-8.53795	16.5195
 543	1	1	0.026291	-37.8116	-8.83761	15.1647
 544	1	2	0.472085	-36.6707	-8.29227	14.5906
 545	1	3	-0.022377	-38.8289	-9.57089	14.4825
 546	1	3	-0.088654	-38.6625	-10.9441	14.151
 547	1	3	0.02488	-39.79	-11.7236	13.7657
 548	1	3	0.040063	-40.0834	-8.94955	14.3024
 549	1	3	-0.361597	-41.1919	-9.73431	13.9787
 550	1	3	0.096629	-41.0748	-11.1156	13.7843
 551	1	7	-0.018671	-37.2656	-11.5806	14.2116
 552	1	8	-0.317996	-39.5965	-13.0881	13.4872
 553	1	6	0.16694	-36.9061	-7.30356	18.9683
 554	1	6	0.13386	-34.6823	-6.14199	19.0609
 555	1	6	0.147907	-34.1339	-6.872	14.8114
 556	1	5	-0.491298	-36.283	-8.39658	13.44
 557	1	5	-0.47861	-38.7836	-8.88229	17.3026
 558	1	7	-0.160952	-40.3229	-7.455	14.5065
 559	1	9	0.05529	-40.6441	-6.99398	13.5641
 560	1	9	0.069029	-39.4387	-6.90193	14.8398
 561	1	9	0.053284	-41.1147	-7.28448	15.2461
 562	1	7	-0.244214	-42.3808	-11.8936	13.7249
 563	1	9	0.063506	-32.3619	-5.98862	16.0219
 564	1	9	0.093434	-32.2631	-6.74891	17.5707
 565	1	6	0.232522	-42.1719	-9.26814	13.9511
 566	1	9	0.020884	-43.2423	-11.2637	13.9784
 567	1	9	0.114771	-42.3707	-12.7031	14.4655
 568	1	9	0.181647	-42.571	-12.3126	12.7333
 569	1	9	0.069456	-36.6361	-11.1438	14.995
 570	1	9	0.029017	-36.7444	-11.4404	13.2555
 571	1	9	-0.058945	-37.2943	-12.658	14.4154
 572	1	4	0.329672	-38.6527	-13.4431	13.5366
 573	1	1	0.452895	-18.9704	8.68484	27.5433
 574	1	2	0.074505	-20.2152	8.45047	26.9793
 575	1	3	0.001656	-20.5314	7.05169	27.3749
 576	1	2	0.074191	-18.4408	7.61696	28.2509
 577	1	3	0.036519	-19.4775	6.55601	28.1253
 578	1	5	-0.399533	-20.9086	9.21386	26.3286
 579	1	5	-0.398173	-17.3908	7.56551	28.8691
 580	1	3	-0.067442	-21.6848	6.29367	27.1385
 581	1	3	-0.068422	-19.5166	5.26601	28.6647
 582	1	3	-0.213282	-20.6659	4.48032	28.4226
 583	1	3	-0.047343	-21.7545	4.98076	27.662
 584	1	6	0.159476	-22.51	6.74188	26.5974
 585	1	6	0.16033	-18.6902	4.8997	29.2702
 586	1	6	0.171114	-20.7232	3.48635	28.8597
 587	1	7	-0.06383	-23.0439	4.16017	27.5502
 588	1	3	0.009736	-23.4033	3.61389	26.1635
 589	1	3	-0.108991	-23.5059	2.21597	25.9484
 590	1	3	-0.114952	-23.998	1.75745	24.7124
 591	1	3	-0.090153	-23.7962	4.5023	25.1311
 592	1	3	-0.148302	-24.2737	4.02399	23.8947
 593	1	3	-0.073574	-24.3692	2.63975	23.7162
 594	1	2	0.475719	-24.9471	1.86317	22.5861
 595	1	1	0.026291	-24.9254	0.536797	22.9912
 596	1	2	0.472085	-24.3359	0.379085	24.2432
 597	1	3	-0.022377	-25.5661	-0.508313	22.255
 598	1	3	-0.088654	-26.9694	-0.693894	22.3573
 599	1	3	0.02488	-27.629	-1.66522	21.5539
 600	1	3	0.040063	-24.8148	-1.30747	21.3709
 601	1	3	-0.361597	-25.4554	-2.31861	20.6426
 602	1	3	0.096629	-26.8424	-2.51914	20.7292
 603	1	7	-0.018671	-27.768	0.197795	23.3207
 604	1	8	-0.317996	-29.0333	-1.71208	21.6315
 605	1	6	0.16694	-24.6077	4.70515	23.1146
 606	1	6	0.13386	-23.7801	5.57274	25.2978
 607	1	6	0.147907	-23.2673	1.50468	26.7357
 608	1	5	-0.491298	-24.1805	-0.652605	24.8743
 609	1	5	-0.47861	-25.4162	2.32793	21.561
 610	1	7	-0.160952	-23.3228	-1.0828	21.1622
 611	1	9	0.05529	-23.1424	-0.112032	20.6832
 612	1	9	0.069029	-22.8815	-1.85173	20.5163
 613	1	9	0.053284	-22.7768	-1.10279	22.1131
 614	1	7	-0.244214	-27.403	-3.67105	19.9032
 615	1	9	0.063506	-23.0046	3.32939	28.2661
 616	1	9	0.093434	-23.8778	4.78108	27.902
 617	1	6	0.232522	-24.8637	-2.94689	19.9845
 618	1	9	0.020884	-28.1785	-4.22521	20.4428
 619	1	9	0.114771	-26.6234	-4.40371	19.6625
 620	1	9	0.181647	-27.8105	-3.3065	18.9529
 621	1	9	0.069456	-28.6833	-0.278844	23.689
 622	1	9	0.029017	-28.0453	1.14183	22.8354
 623	1	9	-0.058945	-27.1942	0.443421	24.2218
 624	1	4	0.329672	-29.4999	-0.977966	22.1378
 625	1	4	0	23.3659	22.9809	-30.3505
 626	1	4	0	-18.492	9.57358	27.4581

Velocities

   1	0.00046195	-9.9557e-06	-0.000550923
   2	0.000467593	-9.67499e-05	-0.00051773
   3	0.000349586	-0.000178249	-0.00056926
   4	0.000491449	-5.53498e-05	-0.000718488
   5	0.000546305	-0.00014703	-0.000736192
   6	0.000643848	-5.90001e-05	-0.000534952
   7	0.000340293	4.27791e-05	-0.000777843
   8	-3.72094e-05	-0.000270304	-0.000435282
   9	0.000692649	-0.000167859	-0.000861023
  10	0.000508873	-0.000256087	-0.000781884
  11	0.000128591	-0.000298699	-0.000562982
  12	-0.00048427	-0.000318938	-0.0002453
  13	0.000980095	-0.000115142	-0.00106861
  14	0.000664208	-0.000299514	-0.000898306
  15	-8.66337e-05	-0.000258017	-0.000452947
  16	-0.000186691	-5.22377e-05	-9.38875e-05
  17	-0.000236786	0.000166778	0.000537857