pySIMM System Object

574 atoms
628 bonds
1089 angles
1602 dihedrals
176 impropers

9 atom types
12 bond types
20 angle types
8 dihedral types
4 improper types

-122.017278 122.017278 xlo xhi
-122.017278 122.017278 ylo yhi
-122.017278 122.017278 zlo zhi

Masses

   1	14.01	# n
   2	12.01	# c
   3	12.01	# ca
   4	1.008	# hn
   5	16.0	# o
   6	1.008	# ha
   7	12.01	# c3
   8	14.01	# nh
   9	1.008	# hc

Pair Coeffs

   1	0.17	3.249998523775958	# n
   2	0.086	3.3996695084235347	# c
   3	0.086	3.3996695084235347	# ca
   4	0.0157	1.069078461768407	# hn
   5	0.21	2.959921901149463	# o
   6	0.015	2.59964245953351	# ha
   7	0.1094	3.3996695084235347	# c3
   8	0.17	3.249998523775958	# nh
   9	0.0157	2.649532787749369	# hc

Bond Coeffs

   1	384.2	1.4121	# ca,n
   2	404.6	1.0121	# hn,nh
   3	403.2	1.0129	# hn,n
   4	417.9	1.3859	# ca,nh
   5	461.1	1.3984	# ca,ca
   6	427.6	1.3789	# c,n
   7	345.9	1.4906	# c,ca
   8	345.8	1.086	# ca,ha
   9	321.0	1.5156	# c3,ca
  10	330.6	1.0969	# c3,hc
  11	637.7	1.2183	# c,o
  12	452.5	1.4016	# n,nh

Angle Coeffs

   1	63.53	120.77	# c3,ca,ca
   2	39.4	107.58	# hc,c3,hc
   3	66.62	120.02	# ca,ca,ca
   4	48.42	116.07	# ca,nh,hn
   5	48.18	119.88	# ca,ca,ha
   6	63.74	127.08	# c,n,c
   7	67.87	120.19	# ca,ca,n
   8	40.07	115.12	# hn,nh,hn
   9	68.72	122.6	# ca,c,o
  10	48.33	117.55	# c,n,hn
  11	64.28	120.33	# c,ca,ca
  12	67.68	115.25	# ca,c,n
  13	63.56	112.24	# ca,c3,ca
  14	74.22	123.05	# n,c,o
  15	63.82	123.71	# c,n,ca
  16	46.8	110.47	# ca,c3,hc
  17	68.29	120.95	# ca,ca,nh
  18	67.01	118.71	# c,n,nh
  19	67.61	116.03	# ca,nh,n
  20	50.88	108.17	# hn,nh,n

Dihedral Coeffs

   1	1	3.625	2	180	# X,ca,ca,X
   2	1	1.0	2	180	# X,c,ca,X
   3	1	0.0	2	0	# X,c3,ca,X
   4	1	2.5	2	180	# X,c,n,X
   5	1	1.05	2	180	# X,ca,nh,X
   6	1	0.45	2	180	# X,ca,n,X
   7	2	2.5	2	180	2.0	1	0	# hn,n,c,o
   8	1	1.1	2	0	# X,n,nh,X

Improper Coeffs

   1	1.1	-1	2	# ca,X,X,ha
   2	10.5	-1	2	# c,X,X,o
   3	1.1	-1	2	# ca,ca,ca,c3
   4	1.1	-1	2	# n,X,X,hn

Atoms

   1	1	1	0.452895	-24.4829	-33.7653	-31.9826
   2	1	2	0.074505	-25.2039	-33.3001	-33.0796
   3	1	3	0.001656	-24.1863	-33.1796	-34.157
   4	1	2	0.074191	-23.1468	-34.0519	-32.2533
   5	1	3	0.036519	-22.977	-33.6559	-33.6768
   6	1	5	-0.399533	-26.3432	-32.862	-33.1058
   7	1	5	-0.398173	-22.2515	-34.3161	-31.4676
   8	1	3	-0.067442	-24.2736	-32.5222	-35.3919
   9	1	3	-0.068422	-21.8049	-33.5617	-34.435
  10	1	3	-0.213282	-21.8796	-32.9333	-35.6956
  11	1	3	-0.047343	-23.0978	-32.3828	-36.1635
  12	1	6	0.159476	-25.215	-32.0796	-35.7066
  13	1	6	0.16033	-20.8594	-33.9168	-34.0306
  14	1	6	0.171114	-20.9736	-32.8239	-36.2866
  15	1	7	-0.06383	-23.1175	-31.5767	-37.4579
  16	1	3	0.009736	-22.7403	-30.1144	-37.229
  17	1	3	-0.108991	-21.3995	-29.7684	-36.9467
  18	1	3	-0.114952	-21.0907	-28.4207	-36.7178
  19	1	3	-0.090153	-23.7289	-29.0995	-37.2842
  20	1	3	-0.148302	-23.3964	-27.7468	-37.0541
  21	1	3	-0.073574	-22.0602	-27.4375	-36.7682
  22	1	2	0.475719	-21.4204	-26.1371	-36.4247
  23	1	1	0.026291	-20.09	-26.4335	-36.164
  24	1	2	0.472085	-19.8007	-27.7802	-36.3419
  25	1	3	-0.022377	-19.1575	-25.4791	-35.6645
  26	1	3	-0.088654	-18.4645	-24.6136	-36.5459
  27	1	3	0.02488	-17.5883	-23.637	-36.0115
  28	1	3	0.040063	-18.962	-25.3803	-34.2691
  29	1	3	-0.361597	-18.0737	-24.4234	-33.7586
  30	1	3	0.096629	-17.3894	-23.552	-34.6163
  31	1	7	-0.018671	-18.6936	-24.7266	-38.0576
  32	1	8	-0.317996	-16.9324	-22.7436	-36.8525
  33	1	6	0.16694	-24.152	-26.9636	-37.0788
  34	1	6	0.13386	-24.7621	-29.3619	-37.4948
  35	1	6	0.147907	-20.6208	-30.5234	-36.8854
  36	1	5	-0.491298	-18.7351	-28.349	-36.1802
  37	1	5	-0.47861	-21.9775	-25.0547	-36.3479
  38	1	7	-0.160952	-19.7069	-26.2832	-33.2932
  39	1	9	0.05529	-19.4254	-27.3339	-33.4363
  40	1	9	0.069029	-20.7926	-26.1974	-33.4253
  41	1	9	0.053284	-19.4863	-26.0251	-32.2503
  42	1	7	-0.244214	-16.4506	-22.5171	-34.0138
  43	1	9	0.063506	-22.4247	-32.0222	-38.1831
  44	1	9	0.093434	-24.1084	-31.6439	-37.9246
  45	1	6	0.232522	-17.9232	-24.346	-32.6868
  46	1	9	0.020884	-16.3076	-22.664	-32.9359
  47	1	9	0.114771	-16.8455	-21.5057	-34.168
  48	1	9	0.181647	-15.4652	-22.5698	-34.4917
  49	1	9	0.069456	-19.6657	-24.2984	-38.3339
  50	1	9	0.029017	-18.6823	-25.7738	-38.3853
  51	1	9	-0.058945	-17.9267	-24.2125	-38.65
  52	1	4	0.329672	-16.9792	-22.9031	-37.8513
  53	1	1	0.452895	-19.8859	-28.6722	-17.0623
  54	1	2	0.074505	-19.134	-29.3048	-18.0564
  55	1	3	0.001656	-20.108	-30.1816	-18.7633
  56	1	2	0.074191	-21.2454	-28.9684	-17.1198
  57	1	3	0.036519	-21.3644	-29.9622	-18.2251
  58	1	5	-0.399533	-17.9592	-29.1551	-18.3514
  59	1	5	-0.398173	-22.1548	-28.4903	-16.461
  60	1	3	-0.067442	-19.8851	-31.1818	-19.7226
  61	1	3	-0.068422	-22.4791	-30.6798	-18.6759
  62	1	3	-0.213282	-22.2734	-31.6993	-19.633
  63	1	3	-0.047343	-20.978	-31.9832	-20.1329
  64	1	6	0.159476	-18.8714	-31.3956	-20.0511
  65	1	6	0.16033	-23.4588	-30.4995	-18.2389
  66	1	6	0.171114	-23.1118	-32.3296	-19.9195
  67	1	7	-0.06383	-20.7135	-33.3276	-20.8142
  68	1	3	0.009736	-20.9014	-33.492	-22.3255
  69	1	3	-0.108991	-22.1631	-33.313	-22.9456
  70	1	3	-0.114952	-22.3351	-33.7866	-24.2613
  71	1	3	-0.090153	-19.8465	-34.0951	-23.0576
  72	1	3	-0.148302	-20.039	-34.5643	-24.3714
  73	1	3	-0.073574	-21.3071	-34.4146	-24.9403
  74	1	2	0.475719	-21.8304	-34.9207	-26.2373
  75	1	1	0.026291	-23.1666	-34.5536	-26.2704
  76	1	2	0.472085	-23.5504	-33.8544	-25.1289
  77	1	3	-0.022377	-24.0242	-34.8684	-27.3683
  78	1	3	-0.088654	-24.0479	-34.0376	-28.5147
  79	1	3	0.02488	-24.8433	-34.3989	-29.6311
  80	1	3	0.040063	-24.8042	-36.0448	-27.336
  81	1	3	-0.361597	-25.5659	-36.4054	-28.4592
  82	1	3	0.096629	-25.5903	-35.5992	-29.6075
  83	1	7	-0.018671	-23.1653	-32.7815	-28.564
  84	1	8	-0.317996	-24.9459	-33.4882	-30.6814
  85	1	6	0.16694	-19.2482	-35.081	-24.9123
  86	1	6	0.13386	-18.8872	-34.2717	-22.5787
  87	1	6	0.147907	-23.0045	-32.8922	-22.4015
  88	1	5	-0.491298	-24.6504	-33.4016	-24.8629
  89	1	5	-0.47861	-21.211	-35.5768	-27.0573
  90	1	7	-0.160952	-24.8356	-36.9418	-26.1051
  91	1	9	0.05529	-25.1701	-36.3822	-25.2223
  92	1	9	0.069029	-23.8429	-37.3571	-25.8923
  93	1	9	0.053284	-25.5255	-37.785	-26.2329
  94	1	7	-0.244214	-26.4584	-36.0335	-30.7811
  95	1	9	0.063506	-19.6953	-33.6389	-20.5491
  96	1	9	0.093434	-21.3463	-34.0799	-20.3271
  97	1	6	0.232522	-26.1545	-37.3173	-28.4353
  98	1	9	0.020884	-27.1338	-36.8538	-30.5067
  99	1	9	0.114771	-25.8381	-36.3854	-31.614
 100	1	9	0.181647	-27.0818	-35.2055	-31.1418
 101	1	9	0.069456	-22.1614	-33.0393	-28.9276
 102	1	9	0.029017	-23.0535	-32.3129	-27.5796
 103	1	9	-0.058945	-23.5653	-32.0002	-29.2216
 104	1	4	0.329672	-24.5826	-32.5714	-30.4658
 105	1	1	0.452895	-21.8004	-18.5632	-3.3651
 106	1	2	0.074505	-22.3678	-19.8487	-3.41331
 107	1	3	0.001656	-22.3778	-20.2204	-4.85283
 108	1	2	0.074191	-21.5466	-18.0508	-4.64067
 109	1	3	0.036519	-21.9307	-19.1387	-5.58374
 110	1	5	-0.399533	-22.9712	-20.4704	-2.55692
 111	1	5	-0.398173	-21.3241	-16.8933	-4.95305
 112	1	3	-0.067442	-22.8153	-21.4016	-5.47372
 113	1	3	-0.068422	-21.9737	-19.1479	-6.98394
 114	1	3	-0.213282	-22.4276	-20.3196	-7.63008
 115	1	3	-0.047343	-22.8043	-21.4669	-6.88664
 116	1	6	0.159476	-23.1485	-22.2421	-4.87
 117	1	6	0.16033	-21.6671	-18.27	-7.54819
 118	1	6	0.171114	-22.4538	-20.3535	-8.71763
 119	1	7	-0.06383	-23.1816	-22.765	-7.61293
 120	1	3	0.009736	-22.059	-23.4001	-8.44953
 121	1	3	-0.108991	-22.3387	-24.5331	-9.25748
 122	1	3	-0.114952	-21.3086	-25.0658	-10.0561
 123	1	3	-0.090153	-20.7425	-22.8672	-8.44128
 124	1	3	-0.148302	-19.7342	-23.3956	-9.26692
 125	1	3	-0.073574	-20.0535	-24.4903	-10.0741
 126	1	2	0.475719	-19.2051	-25.2297	-11.0406
 127	1	1	0.026291	-20.0008	-26.25	-11.5432
 128	1	2	0.472085	-21.2835	-26.2293	-10.9988
 129	1	3	-0.022377	-19.4996	-27.1915	-12.4976
 130	1	3	-0.088654	-19.8202	-27.0809	-13.8786
 131	1	3	0.02488	-19.1456	-27.8899	-14.8367
 132	1	3	0.040063	-18.5407	-28.1368	-12.0715
 133	1	3	-0.361597	-17.8777	-28.9237	-13.0193
 134	1	3	0.096629	-18.1429	-28.789	-14.3895
 135	1	7	-0.018671	-20.8905	-26.0742	-14.3223
 136	1	8	-0.317996	-19.3766	-27.6677	-16.2054
 137	1	6	0.16694	-18.7332	-22.9691	-9.28088
 138	1	6	0.13386	-20.4861	-22.0276	-7.80391
 139	1	6	0.147907	-23.3292	-24.983	-9.27301
 140	1	5	-0.491298	-22.2043	-26.996	-11.2208
 141	1	5	-0.47861	-18.0495	-24.9639	-11.3259
 142	1	7	-0.160952	-18.1332	-28.2819	-10.6084
 143	1	9	0.05529	-19.0007	-28.2413	-9.93862
 144	1	9	0.069029	-17.4364	-27.4858	-10.3164
 145	1	9	0.053284	-17.6296	-29.2388	-10.4232
 146	1	7	-0.244214	-17.2417	-29.5571	-15.3426
 147	1	9	0.063506	-23.5414	-23.5057	-6.88707
 148	1	9	0.093434	-24.0399	-22.5625	-8.26701
 149	1	6	0.232522	-17.1003	-29.602	-12.6831
 150	1	9	0.020884	-16.7986	-28.8813	-16.0836
 151	1	9	0.114771	-17.7885	-30.3482	-15.8659
 152	1	9	0.181647	-16.4028	-30.0304	-14.8216
 153	1	9	0.069456	-20.8379	-25.1382	-13.7544
 154	1	9	0.029017	-21.8927	-26.4968	-14.1726
 155	1	9	-0.058945	-20.808	-25.7897	-15.3777
 156	1	4	0.329672	-19.9043	-26.8345	-16.4227
 157	1	1	0.452895	-10.79	-7.58545	4.9474
 158	1	2	0.074505	-11.5268	-8.59385	5.56679
 159	1	3	0.001656	-12.6583	-8.85607	4.62946
 160	1	2	0.074191	-11.318	-7.16471	3.72966
 161	1	3	0.036519	-12.5305	-8.00826	3.54132
 162	1	5	-0.399533	-11.2645	-9.20995	6.58674
 163	1	5	-0.398173	-10.8757	-6.333	2.95384
 164	1	3	-0.067442	-13.7062	-9.78734	4.70822
 165	1	3	-0.068422	-13.4354	-8.05333	2.47341
 166	1	3	-0.213282	-14.4993	-8.98053	2.53805
 167	1	3	-0.047343	-14.6441	-9.84839	3.64713
 168	1	6	0.159476	-13.7914	-10.432	5.57956
 169	1	6	0.16033	-13.3136	-7.38515	1.62364
 170	1	6	0.171114	-15.2235	-9.02027	1.72701
 171	1	7	-0.06383	-15.8635	-10.7695	3.74487
 172	1	3	0.009736	-16.0855	-11.757	2.59298
 173	1	3	-0.108991	-17.4062	-12.049	2.17069
 174	1	3	-0.114952	-17.6111	-13.0897	1.24815
 175	1	3	-0.090153	-15.0063	-12.5042	2.05999
 176	1	3	-0.148302	-15.2319	-13.5495	1.13658
 177	1	3	-0.073574	-16.5531	-13.8274	0.754179
 178	1	2	0.475719	-17.107	-14.9908	0.00122655
 179	1	1	0.026291	-18.4879	-14.9155	0.152936
 180	1	2	0.472085	-18.8775	-13.755	0.81644
 181	1	3	-0.022377	-19.3318	-16.0653	0.00976428
 182	1	3	-0.088654	-20.1124	-16.332	-1.15313
 183	1	3	0.02488	-20.9049	-17.5216	-1.23862
 184	1	3	0.040063	-19.3699	-16.9575	1.10076
 185	1	3	-0.361597	-20.1088	-18.135	1.00021
 186	1	3	0.096629	-20.8666	-18.425	-0.140172
 187	1	7	-0.018671	-20.1208	-15.3111	-2.29175
 188	1	8	-0.317996	-21.8799	-17.672	-2.25575
 189	1	6	0.16694	-14.4141	-14.174	0.781944
 190	1	6	0.13386	-13.9953	-12.3138	2.41133
 191	1	6	0.147907	-18.2617	-11.5404	2.60865
 192	1	5	-0.491298	-19.9998	-13.4458	1.17858
 193	1	5	-0.47861	-16.458	-15.9285	-0.432667
 194	1	7	-0.160952	-18.6628	-16.6625	2.42174
 195	1	9	0.05529	-17.5739	-16.632	2.29785
 196	1	9	0.069029	-18.885	-17.4211	3.18155
 197	1	9	0.053284	-18.9899	-15.7004	2.83634
 198	1	7	-0.244214	-21.6974	-19.6904	-0.0610572
 199	1	9	0.063506	-15.8077	-11.3482	4.6758
 200	1	9	0.093434	-16.7545	-10.1393	3.85815
 201	1	6	0.232522	-20.1298	-18.8131	1.84705
 202	1	9	0.020884	-22.7559	-19.4814	-0.253921
 203	1	9	0.114771	-21.6469	-20.1622	0.926237
 204	1	9	0.181647	-21.3314	-20.4338	-0.776294
 205	1	9	0.069456	-21.069	-14.7603	-2.32471
 206	1	9	0.029017	-19.9665	-15.8001	-3.25591
 207	1	9	-0.058945	-19.3177	-14.57	-2.2085
 208	1	4	0.329672	-22.2088	-16.8092	-2.66681
 209	1	1	0.452895	2.25005	-0.0848355	13.5647
 210	1	2	0.074505	2.63419	-1.26442	12.9287
 211	1	3	0.001656	1.44308	-1.64281	12.118
 212	1	2	0.074191	0.92352	0.277325	13.3448
 213	1	3	0.036519	0.436031	-0.722637	12.3613
 214	1	5	-0.399533	3.71979	-1.82468	12.9417
 215	1	5	-0.398173	0.303659	1.22843	13.7917
 216	1	3	-0.067442	1.28755	-2.65829	11.1636
 217	1	3	-0.068422	-0.771453	-0.757989	11.658
 218	1	3	-0.213282	-0.94412	-1.76898	10.6903
 219	1	3	-0.047343	0.0721148	-2.72507	10.4418
 220	1	6	0.159476	2.10408	-3.34897	10.9698
 221	1	6	0.16033	-1.53284	-0.0018633	11.8367
 222	1	6	0.171114	-1.8678	-1.79591	10.1174
 223	1	7	-0.06383	-0.120207	-3.78129	9.35495
 224	1	3	0.009736	-1.52382	-4.3803	9.33459
 225	1	3	-0.108991	-2.43613	-4.034	8.31047
 226	1	3	-0.114952	-3.72591	-4.58625	8.35254
 227	1	3	-0.090153	-1.92147	-5.26933	10.3623
 228	1	3	-0.148302	-3.22116	-5.81651	10.3846
 229	1	3	-0.073574	-4.10532	-5.4518	9.36079
 230	1	2	0.475719	-5.53186	-5.8182	9.14779
 231	1	1	0.026291	-5.93292	-5.13098	8.01017
 232	1	2	0.472085	-4.90381	-4.37237	7.46272
 233	1	3	-0.022377	-7.28229	-5.13393	7.54062
 234	1	3	-0.088654	-7.75652	-6.15156	6.67364
 235	1	3	0.02488	-9.1231	-6.17365	6.26874
 236	1	3	0.040063	-8.15933	-4.13221	7.99969
 237	1	3	-0.361597	-9.50108	-4.15737	7.60178
 238	1	3	0.096629	-9.99726	-5.1589	6.75197
 239	1	7	-0.018671	-6.75533	-7.20418	6.17041
 240	1	8	-0.317996	-9.50343	-7.19675	5.38192
 241	1	6	0.16694	-3.54071	-6.48868	11.1788
 242	1	6	0.13386	-1.22151	-5.52164	11.155
 243	1	6	0.147907	-2.16041	-3.34258	7.51741
 244	1	5	-0.491298	-4.94675	-3.63491	6.4934
 245	1	5	-0.47861	-6.20326	-6.54369	9.86133
 246	1	7	-0.160952	-7.68319	-3.01545	8.92296
 247	1	9	0.05529	-7.20674	-3.41872	9.82505
 248	1	9	0.069029	-8.51236	-2.37798	9.2527
 249	1	9	0.053284	-6.95741	-2.36945	8.41266
 250	1	7	-0.244214	-11.4738	-5.05972	6.39066
 251	1	9	0.063506	0.109829	-3.33404	8.3795
 252	1	9	0.093434	0.609851	-4.59046	9.48414
 253	1	6	0.232522	-10.1704	-3.38227	7.96151
 254	1	9	0.020884	-11.9587	-4.20738	6.88275
 255	1	9	0.114771	-12.0215	-5.95415	6.70877
 256	1	9	0.181647	-11.6023	-4.91313	5.31141
 257	1	9	0.069456	-6.14388	-7.5997	6.99062
 258	1	9	0.029017	-6.07506	-6.76184	5.43135
 259	1	9	-0.058945	-7.22205	-8.0773	5.70017
 260	1	4	0.329672	-8.81874	-7.88885	5.11666
 261	1	1	0.452895	2.8439	16.0585	13.7499
 262	1	2	0.074505	3.76917	15.1994	14.3365
 263	1	3	0.001656	2.93187	14.1931	15.0471
 264	1	2	0.074191	1.51613	15.7549	14.0357
 265	1	3	0.036519	1.59799	14.5152	14.8522
 266	1	5	-0.399533	4.98773	15.2665	14.323
 267	1	5	-0.398173	0.505989	16.3672	13.7273
 268	1	3	-0.067442	3.31072	13.0946	15.8315
 269	1	3	-0.068422	0.572775	13.7353	15.3971
 270	1	3	-0.213282	0.934548	12.6194	16.1816
 271	1	3	-0.047343	2.2952	12.3005	16.4152
 272	1	6	0.159476	4.36422	12.8847	15.9978
 273	1	6	0.16033	-0.468155	14.0	15.2242
 274	1	6	0.171114	0.151991	12.0104	16.6258
 275	1	7	-0.06383	2.65969	11.1598	17.3631
 276	1	3	0.009736	2.23831	9.77586	16.8786
 277	1	3	-0.108991	3.1303	8.99918	16.1077
 278	1	3	-0.114952	2.73112	7.71009	15.7272
 279	1	3	-0.090153	0.979876	9.23831	17.2497
 280	1	3	-0.148302	0.590056	7.94532	16.8382
 281	1	3	-0.073574	1.49288	7.20144	16.0667
 282	1	2	0.475719	1.36713	5.84147	15.4679
 283	1	1	0.026291	2.56705	5.61171	14.8025
 284	1	2	0.472085	3.44854	6.68038	14.9317
 285	1	3	-0.022377	2.85197	4.46329	13.9993
 286	1	3	-0.088654	2.98376	3.16847	14.5688
 287	1	3	0.02488	3.28589	2.06271	13.7327
 288	1	3	0.040063	3.01003	4.63343	12.6043
 289	1	3	-0.361597	3.43975	3.55851	11.8181
 290	1	3	0.096629	3.61008	2.28557	12.3716
 291	1	7	-0.018671	2.75233	2.95197	16.069
 292	1	8	-0.317996	3.15567	0.764406	14.2407
 293	1	6	0.16694	-0.3779	7.52901	17.1111
 294	1	6	0.13386	0.302581	9.8259	17.8633
 295	1	6	0.147907	4.10671	9.38012	15.8172
 296	1	5	-0.491298	4.57398	6.79018	14.4747
 297	1	5	-0.47861	0.389863	5.11612	15.5374
 298	1	7	-0.160952	2.73083	5.95898	11.9046
 299	1	9	0.05529	2.51007	5.80834	10.8408
 300	1	9	0.069029	3.59356	6.63236	11.9717
 301	1	9	0.053284	1.85997	6.46792	12.3362
 302	1	7	-0.244214	4.14297	1.19171	11.4572
 303	1	9	0.063506	3.74124	11.1612	17.5496
 304	1	9	0.093434	2.20599	11.3557	18.3429
 305	1	6	0.232522	3.61922	3.71233	10.7591
 306	1	9	0.020884	3.33103	0.676468	10.9305
 307	1	9	0.114771	4.72706	0.450503	12.017
 308	1	9	0.181647	4.8214	1.60821	10.7043
 309	1	9	0.069456	1.68297	2.8265	16.2835
 310	1	9	0.029017	3.11981	3.79659	16.6646
 311	1	9	-0.058945	3.27449	2.06367	16.4471
 312	1	4	0.329672	2.94301	0.697254	15.2251
 313	1	1	0.452895	15.1103	20.7404	10.1759
 314	1	2	0.074505	14.4244	20.2987	9.04788
 315	1	3	0.001656	13.3714	21.3256	8.83629
 316	1	2	0.074191	14.6868	21.9746	10.6578
 317	1	3	0.036519	13.5387	22.3295	9.77731
 318	1	5	-0.399533	14.6166	19.2982	8.37871
 319	1	5	-0.398173	15.1171	22.609	11.6084
 320	1	3	-0.067442	12.314	21.3473	7.91766
 321	1	3	-0.068422	12.6744	23.4293	9.82463
 322	1	3	-0.213282	11.6095	23.4765	8.89805
 323	1	3	-0.047343	11.4143	22.4372	7.95609
 324	1	6	0.159476	12.1947	20.5311	7.20879
 325	1	6	0.16033	12.8218	24.2125	10.565
 326	1	6	0.171114	10.9219	24.3185	8.91786
 327	1	7	-0.06383	10.2541	22.5164	6.96807
 328	1	3	0.009736	8.88907	22.2009	7.57799
 329	1	3	-0.108991	8.667	20.9585	8.21149
 330	1	3	-0.114952	7.37385	20.6654	8.66884
 331	1	3	-0.090153	7.81336	23.1145	7.43384
 332	1	3	-0.148302	6.51766	22.7966	7.89771
 333	1	3	-0.073574	6.32423	21.5504	8.50906
 334	1	2	0.475719	5.07903	20.8946	9.00907
 335	1	1	0.026291	5.47241	19.6304	9.42933
 336	1	2	0.472085	6.83758	19.425	9.28654
 337	1	3	-0.022377	4.59253	18.5931	9.8569
 338	1	3	-0.088654	4.24175	18.4369	11.2214
 339	1	3	0.02488	3.53919	17.2769	11.651
 340	1	3	0.040063	4.16858	17.6438	8.90657
 341	1	3	-0.361597	3.48035	16.5032	9.33152
 342	1	3	0.096629	3.19046	16.2858	10.6872
 343	1	7	-0.018671	4.64862	19.5054	12.2464
 344	1	8	-0.317996	3.22131	17.2025	13.0189
 345	1	6	0.16694	5.68234	23.4808	7.76144
 346	1	6	0.13386	7.97583	24.064	6.93076
 347	1	6	0.147907	9.46481	20.2266	8.31614
 348	1	5	-0.491298	7.47252	18.4146	9.53467
 349	1	5	-0.47861	3.95093	21.3563	8.96639
 350	1	7	-0.160952	4.46374	17.8107	7.42018
 351	1	9	0.05529	5.54133	17.7648	7.22088
 352	1	9	0.069029	4.08637	18.7735	7.05248
 353	1	9	0.053284	3.98507	17.028	6.81914
 354	1	7	-0.244214	2.51228	14.9603	11.0158
 355	1	9	0.063506	10.2418	23.5161	6.51601
 356	1	9	0.093434	10.4303	21.8284	6.1313
 357	1	6	0.232522	3.19091	15.7659	8.59068
 358	1	9	0.020884	1.52021	15.1112	11.4538
 359	1	9	0.114771	3.12651	14.3599	11.6969
 360	1	9	0.181647	2.3647	14.3463	10.1208
 361	1	9	0.069456	5.43626	19.1285	12.9107
 362	1	9	0.029017	3.79369	19.8065	12.8652
 363	1	9	-0.058945	5.02537	20.4268	11.7892
 364	1	4	0.329672	3.51692	17.9365	13.6421
 365	1	1	0.452895	15.3701	8.27602	4.61803
 366	1	2	0.074505	15.5287	9.33671	5.50171
 367	1	3	0.001656	16.5961	8.87282	6.42511
 368	1	2	0.074191	16.1295	7.15	4.92057
 369	1	3	0.036519	16.9691	7.58788	6.06821
 370	1	5	-0.399533	14.9486	10.4103	5.51869
 371	1	5	-0.398173	16.1511	6.06621	4.35847
 372	1	3	-0.067442	17.2469	9.56795	7.44732
 373	1	3	-0.068422	18.0296	6.93764	6.70868
 374	1	3	-0.213282	18.7328	7.64348	7.71002
 375	1	3	-0.047343	18.3666	8.96358	8.07235
 376	1	6	0.159476	16.9134	10.5726	7.69258
 377	1	6	0.16033	18.3213	5.93507	6.40427
 378	1	6	0.171114	19.5838	7.17043	8.19373
 379	1	7	-0.06383	19.2284	9.72075	9.0906
 380	1	3	0.009736	19.0334	11.2341	9.06036
 381	1	3	-0.108991	18.6315	11.9158	10.2306
 382	1	3	-0.114952	18.2393	13.2552	10.1111
 383	1	3	-0.090153	19.1325	11.9345	7.83087
 384	1	3	-0.148302	18.6753	13.2618	7.72161
 385	1	3	-0.073574	18.1974	13.8824	8.88152
 386	1	2	0.475719	17.4751	15.1694	9.04345
 387	1	1	0.026291	17.1568	15.2561	10.3942
 388	1	2	0.472085	17.6374	14.1704	11.1173
 389	1	3	-0.022377	16.3187	16.2794	10.933
 390	1	3	-0.088654	16.7164	17.6394	10.8583
 391	1	3	0.02488	15.7961	18.6606	11.2014
 392	1	3	0.040063	15.0376	15.9507	11.4399
 393	1	3	-0.361597	14.2029	16.9664	11.9195
 394	1	3	0.096629	14.5625	18.3141	11.8095
 395	1	7	-0.018671	18.1249	18.007	10.3714
 396	1	8	-0.317996	16.1027	19.9733	10.8258
 397	1	6	0.16694	18.6342	13.7716	6.75984
 398	1	6	0.13386	19.4567	11.4106	6.9341
 399	1	6	0.147907	18.546	11.4045	11.1864
 400	1	5	-0.491298	17.535	13.9537	12.313
 401	1	5	-0.47861	17.1119	15.8972	8.13847
 402	1	7	-0.160952	14.4804	14.5311	11.4989
 403	1	9	0.05529	14.4893	14.1576	12.5305
 404	1	9	0.069029	15.0275	13.8155	10.8776
 405	1	9	0.053284	13.4417	14.511	11.1467
 406	1	7	-0.244214	13.5833	19.3416	12.3639
 407	1	9	0.063506	19.0098	9.33376	10.0939
 408	1	9	0.093434	20.2882	9.50242	8.90942
 409	1	6	0.232522	13.2357	16.6985	12.3319
 410	1	9	0.020884	12.9174	19.724	11.581
 411	1	9	0.114771	14.1087	20.1872	12.8249
 412	1	9	0.181647	12.9522	18.9022	13.1449
 413	1	9	0.069456	18.864	17.2429	10.6413
 414	1	9	0.029017	18.488	18.9403	10.8183
 415	1	9	-0.058945	18.149	18.1266	9.28429
 416	1	4	0.329672	16.949	20.0718	10.2885
 417	1	1	0.452895	23.5306	13.2883	4.03659
 418	1	2	0.074505	24.219	13.2065	2.82747
 419	1	3	0.001656	24.0098	11.798	2.39571
 420	1	2	0.074191	23.0478	12.0725	4.51035
 421	1	3	0.036519	23.3445	11.1209	3.40717
 422	1	5	-0.399533	24.7023	14.1075	2.16086
 423	1	5	-0.398173	22.3826	11.8516	5.51002
 424	1	3	-0.067442	24.1752	11.2298	1.12505
 425	1	3	-0.068422	22.8861	9.81199	3.23047
 426	1	3	-0.213282	23.0579	9.21823	1.96419
 427	1	3	-0.047343	23.6577	9.93396	0.899671
 428	1	6	0.159476	24.5845	11.8259	0.313622
 429	1	6	0.16033	22.332	9.31148	4.02121
 430	1	6	0.171114	22.6269	8.23703	1.77976
 431	1	7	-0.06383	23.4892	9.40999	-0.521791
 432	1	3	0.009736	22.0376	9.65559	-0.916019
 433	1	3	-0.108991	21.0718	8.6409	-0.729003
 434	1	3	-0.114952	19.7171	8.99564	-0.798284
 435	1	3	-0.090153	21.6257	10.974	-1.22951
 436	1	3	-0.148302	20.2589	11.3104	-1.29161
 437	1	3	-0.073574	19.3243	10.2979	-1.04411
 438	1	2	0.475719	17.8598	10.3975	-0.804502
 439	1	1	0.026291	17.4659	9.13214	-0.388509
 440	1	2	0.472085	18.5088	8.21355	-0.419806
 441	1	3	-0.022377	16.1913	8.86658	0.195418
 442	1	3	-0.088654	16.0474	8.77515	1.61024
 443	1	3	0.02488	14.7575	8.50442	2.16701
 444	1	3	0.040063	15.0737	8.72081	-0.651861
 445	1	3	-0.361597	13.815	8.48138	-0.0934742
 446	1	3	0.096629	13.6498	8.3753	1.29211
 447	1	7	-0.018671	17.2943	8.96424	2.49146
 448	1	8	-0.317996	14.4717	8.33495	3.53614
 449	1	6	0.16694	19.9342	12.3383	-1.44136
 450	1	6	0.13386	22.3692	11.7593	-1.33324
 451	1	6	0.147907	21.3568	7.63545	-0.428751
 452	1	5	-0.491298	18.4979	7.05179	-0.0514162
 453	1	5	-0.47861	17.2006	11.4232	-0.820298
 454	1	7	-0.160952	15.1934	8.80445	-2.16933
 455	1	9	0.05529	15.6987	9.72514	-2.48437
 456	1	9	0.069029	14.2095	8.80214	-2.65398
 457	1	9	0.053284	15.7576	7.9505	-2.56403
 458	1	7	-0.244214	12.2412	8.10412	1.81254
 459	1	9	0.063506	24.1688	9.92025	-1.2165
 460	1	9	0.093434	23.7365	8.34181	-0.572977
 461	1	6	0.232522	12.9547	8.37065	-0.745821
 462	1	9	0.020884	11.5059	8.06893	0.998898
 463	1	9	0.114771	11.9152	8.89376	2.50108
 464	1	9	0.181647	12.193	7.13687	2.32723
 465	1	9	0.069456	18.1349	9.44443	1.98307
 466	1	9	0.029017	17.6621	7.9974	2.856
 467	1	9	-0.058945	17.0974	9.61738	3.34514
 468	1	4	0.329672	13.5285	8.18849	3.85198
 469	1	1	0.452895	19.4704	28.2781	12.0824
 470	1	2	0.074505	18.7586	27.1318	11.7123
 471	1	3	0.001656	19.7954	26.2013	11.187
 472	1	2	0.074191	20.8209	28.2226	11.7508
 473	1	3	0.036519	21.0101	26.8641	11.1777
 474	1	5	-0.399533	17.5555	26.932	11.7037
 475	1	5	-0.398173	21.6658	29.097	11.8443
 476	1	3	-0.067442	19.7007	24.8416	10.8518
 477	1	3	-0.068422	22.1808	26.2337	10.7455
 478	1	3	-0.213282	22.1064	24.8685	10.3977
 479	1	3	-0.047343	20.8852	24.1559	10.4903
 480	1	6	0.159476	18.7535	24.3209	10.966
 481	1	6	0.16033	23.1261	26.772	10.7457
 482	1	6	0.171114	23.0204	24.342	10.1343
 483	1	7	-0.06383	20.9236	22.6297	10.4782
 484	1	3	0.009736	20.4437	21.8909	9.23182
 485	1	3	-0.108991	21.3894	21.3057	8.35474
 486	1	3	-0.114952	20.9392	20.354	7.42513
 487	1	3	-0.090153	19.069	21.5739	9.09913
 488	1	3	-0.148302	18.6385	20.6109	8.16183
 489	1	3	-0.073574	19.6122	19.9824	7.37574
 490	1	2	0.475719	19.4916	18.8149	6.46462
 491	1	1	0.026291	20.7685	18.5733	5.96347
 492	1	2	0.472085	21.6928	19.4865	6.47046
 493	1	3	-0.022377	21.0502	17.5129	5.0327
 494	1	3	-0.088654	21.9915	16.4781	5.31613
 495	1	3	0.02488	22.177	15.3969	4.40433
 496	1	3	0.040063	20.3208	17.4643	3.82118
 497	1	3	-0.361597	20.4346	16.3501	2.98842
 498	1	3	0.096629	21.3173	15.3033	3.2706
 499	1	7	-0.018671	22.8193	16.5159	6.61166
 500	1	8	-0.317996	23.2401	14.5115	4.67344
 501	1	6	0.16694	17.5972	20.2999	8.08279
 502	1	6	0.13386	18.3483	22.0198	9.77912
 503	1	6	0.147907	22.453	21.5092	8.45352
 504	1	5	-0.491298	22.8832	19.5738	6.22159
 505	1	5	-0.47861	18.4738	18.1782	6.26752
 506	1	7	-0.160952	19.3669	18.5634	3.36271
 507	1	9	0.05529	18.3413	18.3538	3.69191
 508	1	9	0.069029	19.3462	18.6356	2.26879
 509	1	9	0.053284	19.6558	19.5517	3.73833
 510	1	7	-0.244214	21.2607	14.1414	2.28455
 511	1	9	0.063506	21.9455	22.3009	10.7064
 512	1	9	0.093434	20.3407	22.2692	11.3356
 513	1	6	0.232522	19.81	16.2973	2.1018
 514	1	9	0.020884	20.347	14.1712	1.67816
 515	1	9	0.114771	21.234	13.1732	2.79335
 516	1	9	0.181647	22.102	14.1794	1.5841
 517	1	9	0.069456	22.2741	16.9795	7.44167
 518	1	9	0.029017	23.7491	17.0789	6.46101
 519	1	9	-0.058945	23.099	15.5163	6.96725
 520	1	4	0.329672	23.8317	14.6648	5.47632
 521	1	1	0.452895	13.7167	34.3797	20.6209
 522	1	2	0.074505	14.5855	35.4464	20.7925
 523	1	3	0.001656	15.9075	34.8009	21.0052
 524	1	2	0.074191	14.3056	33.1269	20.6962
 525	1	3	0.036519	15.7419	33.4247	20.9426
 526	1	5	-0.399533	14.3375	36.6401	20.7586
 527	1	5	-0.398173	13.7786	32.0325	20.5826
 528	1	3	-0.067442	17.167	35.3818	21.1937
 529	1	3	-0.068422	16.829	32.5545	21.0714
 530	1	3	-0.213282	18.1066	33.121	21.2647
 531	1	3	-0.047343	18.2848	34.5276	21.3171
 532	1	6	0.159476	17.2709	36.4636	21.2049
 533	1	6	0.16033	16.6847	31.4788	20.9951
 534	1	6	0.171114	18.9712	32.464	21.3278
 535	1	7	-0.06383	19.6964	35.1098	21.3729
 536	1	3	0.009736	20.5333	34.547	20.2293
 537	1	3	-0.108991	19.9798	34.5335	18.9324
 538	1	3	-0.114952	20.5805	33.7291	17.9593
 539	1	3	-0.090153	21.7314	33.8396	20.4914
 540	1	3	-0.148302	22.3283	33.0405	19.4924
 541	1	3	-0.073574	21.7054	32.975	18.2367
 542	1	2	0.475719	21.8195	31.9149	17.1915
 543	1	1	0.026291	20.6544	32.0367	16.4399
 544	1	2	0.472085	19.9495	33.1971	16.7281
 545	1	3	-0.022377	19.952	30.9212	15.8959
 546	1	3	-0.088654	19.8967	30.673	14.4998
 547	1	3	0.02488	18.9817	29.7051	13.9907
 548	1	3	0.040063	19.1348	30.1884	16.7867
 549	1	3	-0.361597	18.1997	29.2914	16.2716
 550	1	3	0.096629	18.0763	29.089	14.8945
 551	1	7	-0.018671	20.7971	31.5061	13.5811
 552	1	8	-0.317996	18.8866	29.4563	12.612
 553	1	6	0.16694	23.1691	32.3899	19.7245
 554	1	6	0.13386	22.1375	33.8204	21.4994
 555	1	6	0.147907	19.0123	34.9893	18.7317
 556	1	5	-0.491298	18.8402	33.5082	16.3257
 557	1	5	-0.47861	22.5708	30.9564	17.2428
 558	1	7	-0.160952	19.1183	30.4414	18.2942
 559	1	9	0.05529	18.5456	29.6733	18.8271
 560	1	9	0.069029	18.6547	31.409	18.524
 561	1	9	0.053284	20.128	30.4316	18.7211
 562	1	7	-0.244214	16.834	28.3236	14.4697
 563	1	9	0.063506	19.6707	36.205	21.3093
 564	1	9	0.093434	20.1496	34.8685	22.3428
 565	1	6	0.232522	17.4959	28.8115	16.9447
 566	1	9	0.020884	15.9433	28.7923	14.9084
 567	1	9	0.114771	16.8657	27.2825	14.8107
 568	1	9	0.181647	16.6686	28.3366	13.3921
 569	1	9	0.069456	20.5431	31.4201	12.52
 570	1	9	0.029017	21.8462	31.2037	13.6932
 571	1	9	-0.058945	20.7343	32.5739	13.8243
 572	1	4	0.329672	19.2065	30.198	12.0074
 573	1	4	0	-16.2183	-22.1333	-36.4756
 574	1	4	0	12.7267	34.5063	20.4493

Velocities

   1	0.00049841	0.00144881	0.000744701
   2	0.000378172	0.00115532	0.000632787
   3	0.000300449	0.000445929	0.000459243
   4	0.000420323	0.00128954	0.000733433
   5	0.000317008	0.000666988	0.000569442
   6	0.000584047	0.00165006	0.000683144
   7	0.000447549	0.00155936	0.00076863
   8	0.00020346	-0.000159498	0.000126005
   9	0.000262204	0.000391318	0.00046344
  10	0.000253723	-0.00015832	0.000281392
  11	0.000165289	-0.000457167	-6.9738e-05
  12	9.28062e-05	-0.000373174	-0.000141188
  13	0.000291649	0.000716493	0.000618667
  14	0.000227008	-0.000309026	0.000215193
  15	0.000314152	-0.000674851	-0.000251769
  16	0.000126336	-0.000659186	-0.000366389
  17	0.000117461	-0.000323758	-0.000290469
  18	-0.000181806	-0.000532855	-1.08243e-05
  19	-0.000137566	-0.000806776	-0.000139924
  20	-0.000192765	-0.000887951	0.000106737
  21	-0.000446179	-0.00055955	7.2393e-05
  22	-0.000187665	-0.000664888	0.000385475
  23	-0.000390546	-1.12743e-06	0.000261601
  24	-2.17625e-05	-0.000268637	0.000453689
  25	-0.000218034	6.68538e-05	9.3638e-05
  26	-0.000454871	0.000293682	-3.91893e-05
  27	-0.000348796	0.000502603	0.000242106
  28	-0.000127723	-0.00010558	2.31631e-05
  29	0.000127971	9.49924e-05	0.000163127
  30	-0.000135881	0.000281559	-0.000106142
  31	-0.000789044	-8.64742e-05	0.000264541
  32	-0.000924269	0.000468393	-0.000598139
  33	-0.000418923	-0.00104899	0.000234351
  34	6.82566e-06	-0.00105986	7.05847e-05
  35	0.000238081	-0.000299209	-0.000518148
  36	-0.000438804	-0.000257233	0.000747898
  37	-0.000759478	-0.00050941	0.000315803
  38	0.000187082	1.1008e-06	-2.88078e-05
  39	9.66053e-05	-0.000111108	-0.000403603
  40	5.03267e-05	5.68977e-05	-1.59301e-05
  41	0.000151591	-0.000437445	0.000182075
  42	-0.000121226	1.76598e-06	0.000186536
  43	0.000603317	-0.000804001	7.87901e-06
  44	0.000408713	-0.000944684	-0.000446871
  45	0.00026086	-5.72899e-05	-0.000141332
  46	-0.000161353	6.10511e-05	0.000154819
  47	5.39727e-05	0.000241373	0.00030177
  48	0.000111644	-3.50501e-05	0.000306175
  49	-0.00088492	-0.000285215	0.000334784
  50	-0.00114666	-0.000191762	0.000593172
  51	-0.00103159	-0.000456176	-0.00040045
  52	0.000295746	-0.00251787	-0.000297997
  53	-0.000155449	0.000150274	-0.000533716
  54	-0.000251299	-0.000203473	-0.000357168
  55	-0.000262451	-0.000670574	0.000244662
  56	-0.00014838	0.000102785	-0.000239781
  57	-0.000228774	-0.0004889	0.000296604
  58	-0.000307826	-0.000171756	-0.000643838
  59	-7.54543e-05	0.000502072	-0.000439167
  60	-0.000348378	-0.00105615	0.000625964
  61	-0.000245348	-0.000681011	0.000716998
  62	-0.00032741	-0.001046	0.00106707
  63	-0.000368467	-0.00122731	0.00102522
  64	-0.000402722	-0.0010969	0.000488528
  65	-0.000226989	-0.000456766	0.000685748
  66	-0.000394694	-0.00106756	0.00130496
  67	-0.000473147	-0.0012299	0.000978328
  68	-0.000115519	-0.000736716	0.000916993
  69	-0.000251792	-0.00123172	0.00112522
  70	1.25635e-07	-0.000557906	0.000888702
  71	0.000258941	0.000405357	0.000512867
  72	0.000483769	0.000994429	0.000243357
  73	0.000327207	0.000520664	0.000404692
  74	0.000475018	0.00116159	9.32306e-05
  75	0.000293778	0.000461562	0.000449688