

################################################################################
##################################    Init    ##################################
################################################################################
units           real
atom_style      full
pair_style      lj/cut/coul/long 12.0  12.0
kspace_style    pppm 1e-4
bond_style      harmonic
angle_style     harmonic
dihedral_style  fourier
improper_style  cvff
special_bonds   amber
pair_modify     mix arithmetic
read_data       temp.lmps
  orthogonal box = (-96.8452 -96.8452 -96.8452) to (96.8452 96.8452 96.8452)
  1 by 1 by 1 MPI processor grid
  reading atoms ...
  104 atoms
  reading velocities ...
  104 velocities
  scanning bonds ...
  3 = max bonds/atom
  scanning angles ...
  6 = max angles/atom
  scanning dihedrals ...
  10 = max dihedrals/atom
  scanning impropers ...
  2 = max impropers/atom
  reading bonds ...
  113 bonds
  reading angles ...
  194 angles
  reading dihedrals ...
  282 dihedrals
  reading impropers ...
  32 impropers
  4 = max # of 1-2 neighbors
  7 = max # of 1-3 neighbors
  20 = max # of 1-4 neighbors
  22 = max # of special neighbors
  special bonds CPU = 0.000354052 secs
  read_data CPU = 0.00611401 secs
################################################################################

timestep        1
fix             pysimm_md all nve/limit 0.1
run             2000
PPPM initialization ...
  using 12-bit tables for long-range coulomb (../kspace.cpp:332)
  G vector (1/distance) = 0.145546
  grid = 32 32 32
  stencil order = 5
  estimated absolute RMS force accuracy = 0.00215393
  estimated relative force accuracy = 6.48648e-06
  using double precision KISS FFT
  3d grid and FFT values/proc = 50653 32768
Neighbor list info ...
  update every 1 steps, delay 10 steps, check yes
  max neighbors/atom: 2000, page size: 100000
  master list distance cutoff = 14
  ghost atom cutoff = 14
  binsize = 7, bins = 28 28 28
  1 neighbor lists, perpetual/occasional/extra = 1 0 0
  (1) pair lj/cut/coul/long, perpetual
      attributes: half, newton on
      pair build: half/bin/newton
      stencil: half/bin/3d/newton
      bin: standard
Per MPI rank memory allocation (min/avg/max) = 18.19 | 18.19 | 18.19 Mbytes
Step Temp E_pair E_mol TotEng Press 
       0    1.5009568 2.6640869e+12    190.52816 2.6640869e+12 1.0055614e+11 
    2000      1075.17   -5.0355217    386.57188    711.63875   0.35264412 
Loop time of 14.1432 on 1 procs for 2000 steps with 104 atoms

Performance: 12.218 ns/day, 1.964 hours/ns, 141.411 timesteps/s
100.1% CPU use with 1 MPI tasks x no OpenMP threads

MPI task timing breakdown:
Section |  min time  |  avg time  |  max time  |%varavg| %total
---------------------------------------------------------------
Pair    | 0.15035    | 0.15035    | 0.15035    |   0.0 |  1.06
Bond    | 0.066236   | 0.066236   | 0.066236   |   0.0 |  0.47
Kspace  | 13.906     | 13.906     | 13.906     |   0.0 | 98.32
Neigh   | 0.014803   | 0.014803   | 0.014803   |   0.0 |  0.10
Comm    | 0.00075817 | 0.00075817 | 0.00075817 |   0.0 |  0.01
Output  | 1.3113e-05 | 1.3113e-05 | 1.3113e-05 |   0.0 |  0.00
Modify  | 0.0028763  | 0.0028763  | 0.0028763  |   0.0 |  0.02
Other   |            | 0.00192    |            |       |  0.01

Nlocal:    104 ave 104 max 104 min
Histogram: 1 0 0 0 0 0 0 0 0 0
Nghost:    0 ave 0 max 0 min
Histogram: 1 0 0 0 0 0 0 0 0 0
Neighs:    4297 ave 4297 max 4297 min
Histogram: 1 0 0 0 0 0 0 0 0 0

Total # of neighbors = 4297
Ave neighs/atom = 41.3173
Ave special neighs/atom = 10.5962
Neighbor list builds = 117
Dangerous builds = 0
unfix pysimm_md
min_style cg
minimize 0.001 0.001 10000 100000
WARNING: Using 'neigh_modify every 1 delay 0 check yes' setting during minimization (../min.cpp:190)
PPPM initialization ...
  using 12-bit tables for long-range coulomb (../kspace.cpp:332)
  G vector (1/distance) = 0.145546
  grid = 32 32 32
  stencil order = 5
  estimated absolute RMS force accuracy = 0.00215393
  estimated relative force accuracy = 6.48648e-06
  using double precision KISS FFT
  3d grid and FFT values/proc = 50653 32768
Per MPI rank memory allocation (min/avg/max) = 19.32 | 19.32 | 19.32 Mbytes
Step Temp E_pair E_mol TotEng Press 
    2000      1075.17   -5.0355217    386.57188    711.63875   0.35264412 
    2061      1075.17   -10.664339    103.40123    422.83929    2.1900924 
Loop time of 0.849256 on 1 procs for 61 steps with 104 atoms

100.1% CPU use with 1 MPI tasks x no OpenMP threads

Minimization stats:
  Stopping criterion = energy tolerance
  Energy initial, next-to-last, final = 
          381.53635734      92.8145257862      92.7368955288
  Force two-norm initial, final = 669.378 14.9187
  Force max component initial, final = 185.672 2.8008
  Final line search alpha, max atom move = 0.00743314 0.0208187
  Iterations, force evaluations = 61 122

MPI task timing breakdown:
Section |  min time  |  avg time  |  max time  |%varavg| %total
---------------------------------------------------------------
Pair    | 0.015801   | 0.015801   | 0.015801   |   0.0 |  1.86
Bond    | 0.0044317  | 0.0044317  | 0.0044317  |   0.0 |  0.52
Kspace  | 0.82827    | 0.82827    | 0.82827    |   0.0 | 97.53
Neigh   | 0.00026298 | 0.00026298 | 0.00026298 |   0.0 |  0.03
Comm    | 3.8862e-05 | 3.8862e-05 | 3.8862e-05 |   0.0 |  0.00
Output  | 0          | 0          | 0          |   0.0 |  0.00
Modify  | 0          | 0          | 0          |   0.0 |  0.00
Other   |            | 0.0004504  |            |       |  0.05

Nlocal:    104 ave 104 max 104 min
Histogram: 1 0 0 0 0 0 0 0 0 0
Nghost:    0 ave 0 max 0 min
Histogram: 1 0 0 0 0 0 0 0 0 0
Neighs:    4283 ave 4283 max 4283 min
Histogram: 1 0 0 0 0 0 0 0 0 0

Total # of neighbors = 4283
Ave neighs/atom = 41.1827
Ave special neighs/atom = 10.5962
Neighbor list builds = 2
Dangerous builds = 0
write_dump all custom pysimm.dump.tmp id q x y z vx vy vz
quit


################################################################################
##################################    Init    ##################################
################################################################################
units           real
atom_style      full
pair_style      lj/cut/coul/long 12.0  12.0
kspace_style    pppm 1e-4
bond_style      harmonic
angle_style     harmonic
dihedral_style  fourier
improper_style  cvff
special_bonds   amber
pair_modify     mix arithmetic
read_data       temp.lmps
  orthogonal box = (-96.8452 -96.8452 -96.8452) to (96.8452 96.8452 96.8452)
  1 by 1 by 1 MPI processor grid
  reading atoms ...
  156 atoms
  reading velocities ...
  156 velocities
  scanning bonds ...
  3 = max bonds/atom
  scanning angles ...
  6 = max angles/atom
  scanning dihedrals ...
  10 = max dihedrals/atom
  scanning impropers ...
  2 = max impropers/atom
  reading bonds ...
  170 bonds
  reading angles ...
  293 angles
  reading dihedrals ...
  428 dihedrals
  reading impropers ...
  48 impropers
  4 = max # of 1-2 neighbors
  7 = max # of 1-3 neighbors
  20 = max # of 1-4 neighbors
  22 = max # of special neighbors
  special bonds CPU = 0.000352144 secs
  read_data CPU = 0.00562596 secs
################################################################################

timestep        1
fix             pysimm_md all nve/limit 0.1
run             2000
PPPM initialization ...
  using 12-bit tables for long-range coulomb (../kspace.cpp:332)
  G vector (1/distance) = 0.0529224
  grid = 8 8 8
  stencil order = 5
  estimated absolute RMS force accuracy = 0.0372107
  estimated relative force accuracy = 0.000112059
  using double precision KISS FFT
  3d grid and FFT values/proc = 2197 512
Neighbor list info ...
  update every 1 steps, delay 10 steps, check yes
  max neighbors/atom: 2000, page size: 100000
  master list distance cutoff = 14
  ghost atom cutoff = 14
  binsize = 7, bins = 28 28 28
  1 neighbor lists, perpetual/occasional/extra = 1 0 0
  (1) pair lj/cut/coul/long, perpetual
      attributes: half, newton on
      pair build: half/bin/newton
      stencil: half/bin/3d/newton
      bin: standard
Per MPI rank memory allocation (min/avg/max) = 13.6 | 13.6 | 13.6 Mbytes
Step Temp E_pair E_mol TotEng Press 
       0    714.96637   -16.909518    311.50697    624.93019   0.29856689 
    2000     558.9415   -10.646345    357.97889    605.57781   0.84159846 
Loop time of 0.723963 on 1 procs for 2000 steps with 156 atoms

Performance: 238.686 ns/day, 0.101 hours/ns, 2762.572 timesteps/s
100.0% CPU use with 1 MPI tasks x no OpenMP threads

MPI task timing breakdown:
Section |  min time  |  avg time  |  max time  |%varavg| %total
---------------------------------------------------------------
Pair    | 0.25       | 0.25       | 0.25       |   0.0 | 34.53
Bond    | 0.095932   | 0.095932   | 0.095932   |   0.0 | 13.25
Kspace  | 0.35586    | 0.35586    | 0.35586    |   0.0 | 49.15
Neigh   | 0.015463   | 0.015463   | 0.015463   |   0.0 |  2.14
Comm    | 0.0007453  | 0.0007453  | 0.0007453  |   0.0 |  0.10
Output  | 1.1921e-05 | 1.1921e-05 | 1.1921e-05 |   0.0 |  0.00
Modify  | 0.0037436  | 0.0037436  | 0.0037436  |   0.0 |  0.52
Other   |            | 0.002208   |            |       |  0.30

Nlocal:    156 ave 156 max 156 min
Histogram: 1 0 0 0 0 0 0 0 0 0
Nghost:    1 ave 1 max 1 min
Histogram: 1 0 0 0 0 0 0 0 0 0
Neighs:    7448 ave 7448 max 7448 min
Histogram: 1 0 0 0 0 0 0 0 0 0

Total # of neighbors = 7448
Ave neighs/atom = 47.7436
Ave special neighs/atom = 10.6923
Neighbor list builds = 79
Dangerous builds = 0
unfix pysimm_md
min_style cg
minimize 0.001 0.001 10000 100000
WARNING: Using 'neigh_modify every 1 delay 0 check yes' setting during minimization (../min.cpp:190)
PPPM initialization ...
  using 12-bit tables for long-range coulomb (../kspace.cpp:332)
  G vector (1/distance) = 0.0529224
  grid = 8 8 8
  stencil order = 5
  estimated absolute RMS force accuracy = 0.0372107
  estimated relative force accuracy = 0.000112059
  using double precision KISS FFT
  3d grid and FFT values/proc = 2197 512
Per MPI rank memory allocation (min/avg/max) = 14.73 | 14.73 | 14.73 Mbytes
Step Temp E_pair E_mol TotEng Press 
    2000     558.9415   -10.646345    357.97889    605.57781   0.84159846 
    2029     558.9415   -21.268357    161.08929     398.0662    1.6526259 
Loop time of 0.053637 on 1 procs for 29 steps with 156 atoms

100.7% CPU use with 1 MPI tasks x no OpenMP threads

Minimization stats:
  Stopping criterion = linesearch alpha is zero
  Energy initial, next-to-last, final = 
         347.332546028      139.820937279      139.820937279
  Force two-norm initial, final = 542.251 26.5375
  Force max component initial, final = 109.717 4.95026
  Final line search alpha, max atom move = 1.17172e-11 5.80033e-11
  Iterations, force evaluations = 29 115

MPI task timing breakdown:
Section |  min time  |  avg time  |  max time  |%varavg| %total
---------------------------------------------------------------
Pair    | 0.025101   | 0.025101   | 0.025101   |   0.0 | 46.80
Bond    | 0.0061998  | 0.0061998  | 0.0061998  |   0.0 | 11.56
Kspace  | 0.021903   | 0.021903   | 0.021903   |   0.0 | 40.84
Neigh   | 0          | 0          | 0          |   0.0 |  0.00
Comm    | 3.1233e-05 | 3.1233e-05 | 3.1233e-05 |   0.0 |  0.06
Output  | 0          | 0          | 0          |   0.0 |  0.00
Modify  | 0          | 0          | 0          |   0.0 |  0.00
Other   |            | 0.0004022  |            |       |  0.75

Nlocal:    156 ave 156 max 156 min
Histogram: 1 0 0 0 0 0 0 0 0 0
Nghost:    1 ave 1 max 1 min
Histogram: 1 0 0 0 0 0 0 0 0 0
Neighs:    7462 ave 7462 max 7462 min
Histogram: 1 0 0 0 0 0 0 0 0 0

Total # of neighbors = 7462
Ave neighs/atom = 47.8333
Ave special neighs/atom = 10.6923
Neighbor list builds = 0
Dangerous builds = 0
write_dump all custom pysimm.dump.tmp id q x y z vx vy vz
quit


################################################################################
##################################    Init    ##################################
################################################################################
units           real
atom_style      full
pair_style      lj/cut/coul/long 12.0  12.0
kspace_style    pppm 1e-4
bond_style      harmonic
angle_style     harmonic
dihedral_style  fourier
improper_style  cvff
special_bonds   amber
pair_modify     mix arithmetic
read_data       temp.lmps
  orthogonal box = (-96.8452 -96.8452 -96.8452) to (96.8452 96.8452 96.8452)
  1 by 1 by 1 MPI processor grid
  reading atoms ...
  208 atoms
  reading velocities ...
  208 velocities
  scanning bonds ...
  3 = max bonds/atom
  scanning angles ...
  6 = max angles/atom
  scanning dihedrals ...
  10 = max dihedrals/atom
  scanning impropers ...
  2 = max impropers/atom
  reading bonds ...
  227 bonds
  reading angles ...
  392 angles
  reading dihedrals ...
  574 dihedrals
  reading impropers ...
  64 impropers
  4 = max # of 1-2 neighbors
  7 = max # of 1-3 neighbors
  20 = max # of 1-4 neighbors
  22 = max # of special neighbors
  special bonds CPU = 0.00029707 secs
  read_data CPU = 0.0054481 secs
################################################################################

timestep        1
fix             pysimm_md all nve/limit 0.1
run             2000
PPPM initialization ...
WARNING: System is not charge neutral, net charge = -1.2e-05 (../kspace.cpp:313)
  using 12-bit tables for long-range coulomb (../kspace.cpp:332)
  G vector (1/distance) = 0.0640203
  grid = 10 10 10
  stencil order = 5
  estimated absolute RMS force accuracy = 0.035643
  estimated relative force accuracy = 0.000107338
  using double precision KISS FFT
  3d grid and FFT values/proc = 3375 1000
Neighbor list info ...
  update every 1 steps, delay 10 steps, check yes
  max neighbors/atom: 2000, page size: 100000
  master list distance cutoff = 14
  ghost atom cutoff = 14
  binsize = 7, bins = 28 28 28
  1 neighbor lists, perpetual/occasional/extra = 1 0 0
  (1) pair lj/cut/coul/long, perpetual
      attributes: half, newton on
      pair build: half/bin/newton
      stencil: half/bin/3d/newton
      bin: standard
Per MPI rank memory allocation (min/avg/max) = 13.7 | 13.7 | 13.7 Mbytes
Step Temp E_pair E_mol TotEng Press 
       0    418.90439    1459308.6     300.6065    1459867.7    55094.953 
    2000    527.60398    -9.701439    505.40424    821.24906   0.82578627 
Loop time of 1.10176 on 1 procs for 2000 steps with 208 atoms

Performance: 156.840 ns/day, 0.153 hours/ns, 1815.278 timesteps/s
100.0% CPU use with 1 MPI tasks x no OpenMP threads

MPI task timing breakdown:
Section |  min time  |  avg time  |  max time  |%varavg| %total
---------------------------------------------------------------
Pair    | 0.33583    | 0.33583    | 0.33583    |   0.0 | 30.48
Bond    | 0.12779    | 0.12779    | 0.12779    |   0.0 | 11.60
Kspace  | 0.60409    | 0.60409    | 0.60409    |   0.0 | 54.83
Neigh   | 0.02527    | 0.02527    | 0.02527    |   0.0 |  2.29
Comm    | 0.0011854  | 0.0011854  | 0.0011854  |   0.0 |  0.11
Output  | 1.2159e-05 | 1.2159e-05 | 1.2159e-05 |   0.0 |  0.00
Modify  | 0.0048771  | 0.0048771  | 0.0048771  |   0.0 |  0.44
Other   |            | 0.002711   |            |       |  0.25

Nlocal:    208 ave 208 max 208 min
Histogram: 1 0 0 0 0 0 0 0 0 0
Nghost:    40 ave 40 max 40 min
Histogram: 1 0 0 0 0 0 0 0 0 0
Neighs:    9407 ave 9407 max 9407 min
Histogram: 1 0 0 0 0 0 0 0 0 0

Total # of neighbors = 9407
Ave neighs/atom = 45.226
Ave special neighs/atom = 10.7404
Neighbor list builds = 95
Dangerous builds = 0
unfix pysimm_md
min_style cg
minimize 0.001 0.001 10000 100000
WARNING: Using 'neigh_modify every 1 delay 0 check yes' setting during minimization (../min.cpp:190)
PPPM initialization ...
  using 12-bit tables for long-range coulomb (../kspace.cpp:332)
  G vector (1/distance) = 0.0640203
  grid = 10 10 10
  stencil order = 5
  estimated absolute RMS force accuracy = 0.035643
  estimated relative force accuracy = 0.000107338
  using double precision KISS FFT
  3d grid and FFT values/proc = 3375 1000
Per MPI rank memory allocation (min/avg/max) = 14.82 | 14.82 | 14.82 Mbytes
Step Temp E_pair E_mol TotEng Press 
    2000    527.60398    -9.701439    505.40424    821.24906   0.82578627 
    2025    527.60398   -25.314773    230.16624    530.39772    2.4418323 
Loop time of 0.033052 on 1 procs for 25 steps with 208 atoms

99.8% CPU use with 1 MPI tasks x no OpenMP threads

Minimization stats:
  Stopping criterion = energy tolerance
  Energy initial, next-to-last, final = 
         495.702801288      204.991292157      204.851463507
  Force two-norm initial, final = 648.783 37.4764
  Force max component initial, final = 128.091 6.05665
  Final line search alpha, max atom move = 0.00297664 0.0180285
  Iterations, force evaluations = 25 50

MPI task timing breakdown:
Section |  min time  |  avg time  |  max time  |%varavg| %total
---------------------------------------------------------------
Pair    | 0.013893   | 0.013893   | 0.013893   |   0.0 | 42.03
Bond    | 0.0036025  | 0.0036025  | 0.0036025  |   0.0 | 10.90
Kspace  | 0.015269   | 0.015269   | 0.015269   |   0.0 | 46.20
Neigh   | 0          | 0          | 0          |   0.0 |  0.00
Comm    | 2.4557e-05 | 2.4557e-05 | 2.4557e-05 |   0.0 |  0.07
Output  | 0          | 0          | 0          |   0.0 |  0.00
Modify  | 0          | 0          | 0          |   0.0 |  0.00
Other   |            | 0.0002637  |            |       |  0.80

Nlocal:    208 ave 208 max 208 min
Histogram: 1 0 0 0 0 0 0 0 0 0
Nghost:    41 ave 41 max 41 min
Histogram: 1 0 0 0 0 0 0 0 0 0
Neighs:    9409 ave 9409 max 9409 min
Histogram: 1 0 0 0 0 0 0 0 0 0

Total # of neighbors = 9409
Ave neighs/atom = 45.2356
Ave special neighs/atom = 10.7404
Neighbor list builds = 0
Dangerous builds = 0
write_dump all custom pysimm.dump.tmp id q x y z vx vy vz
quit


################################################################################
##################################    Init    ##################################
################################################################################
units           real
atom_style      full
pair_style      lj/cut/coul/long 12.0  12.0
kspace_style    pppm 1e-4
bond_style      harmonic
angle_style     harmonic
dihedral_style  fourier
improper_style  cvff
special_bonds   amber
pair_modify     mix arithmetic
read_data       temp.lmps
  orthogonal box = (-96.8452 -96.8452 -96.8452) to (96.8452 96.8452 96.8452)
  1 by 1 by 1 MPI processor grid
  reading atoms ...
  260 atoms
  reading velocities ...
  260 velocities
  scanning bonds ...
  3 = max bonds/atom
  scanning angles ...
  6 = max angles/atom
  scanning dihedrals ...
  10 = max dihedrals/atom
  scanning impropers ...
  2 = max impropers/atom
  reading bonds ...
  284 bonds
  reading angles ...
  491 angles
  reading dihedrals ...
  720 dihedrals
  reading impropers ...
  80 impropers
  4 = max # of 1-2 neighbors
  7 = max # of 1-3 neighbors
  20 = max # of 1-4 neighbors
  22 = max # of special neighbors
  special bonds CPU = 0.000854015 secs
  read_data CPU = 0.00714493 secs
################################################################################

timestep        1
fix             pysimm_md all nve/limit 0.1
run             2000
PPPM initialization ...
WARNING: System is not charge neutral, net charge = -1.5e-05 (../kspace.cpp:313)
  using 12-bit tables for long-range coulomb (../kspace.cpp:332)
  G vector (1/distance) = 0.0743517
  grid = 12 12 12
  stencil order = 5
  estimated absolute RMS force accuracy = 0.0324361
  estimated relative force accuracy = 9.76805e-05
  using double precision KISS FFT
  3d grid and FFT values/proc = 4913 1728
Neighbor list info ...
  update every 1 steps, delay 10 steps, check yes
  max neighbors/atom: 2000, page size: 100000
  master list distance cutoff = 14
  ghost atom cutoff = 14
  binsize = 7, bins = 28 28 28
  1 neighbor lists, perpetual/occasional/extra = 1 0 0
  (1) pair lj/cut/coul/long, perpetual
      attributes: half, newton on
      pair build: half/bin/newton
      stencil: half/bin/3d/newton
      bin: standard
Per MPI rank memory allocation (min/avg/max) = 13.83 | 13.83 | 13.83 Mbytes
Step Temp E_pair E_mol TotEng Press 
       0    421.97411   -33.649035    429.13931    721.26686   0.14539255 
    2000    320.93794   -14.242007    478.15823    711.68988  -0.93334735 
Loop time of 1.48989 on 1 procs for 2000 steps with 260 atoms

Performance: 115.982 ns/day, 0.207 hours/ns, 1342.382 timesteps/s
100.0% CPU use with 1 MPI tasks x no OpenMP threads

MPI task timing breakdown:
Section |  min time  |  avg time  |  max time  |%varavg| %total
---------------------------------------------------------------
Pair    | 0.42129    | 0.42129    | 0.42129    |   0.0 | 28.28
Bond    | 0.15927    | 0.15927    | 0.15927    |   0.0 | 10.69
Kspace  | 0.87736    | 0.87736    | 0.87736    |   0.0 | 58.89
Neigh   | 0.021222   | 0.021222   | 0.021222   |   0.0 |  1.42
Comm    | 0.0015435  | 0.0015435  | 0.0015435  |   0.0 |  0.10
Output  | 1.2875e-05 | 1.2875e-05 | 1.2875e-05 |   0.0 |  0.00
Modify  | 0.0059752  | 0.0059752  | 0.0059752  |   0.0 |  0.40
Other   |            | 0.00321    |            |       |  0.22

Nlocal:    260 ave 260 max 260 min
Histogram: 1 0 0 0 0 0 0 0 0 0
Nghost:    97 ave 97 max 97 min
Histogram: 1 0 0 0 0 0 0 0 0 0
Neighs:    10839 ave 10839 max 10839 min
Histogram: 1 0 0 0 0 0 0 0 0 0

Total # of neighbors = 10839
Ave neighs/atom = 41.6885
Ave special neighs/atom = 10.7692
Neighbor list builds = 61
Dangerous builds = 0
unfix pysimm_md
min_style cg
minimize 0.001 0.001 10000 100000
WARNING: Using 'neigh_modify every 1 delay 0 check yes' setting during minimization (../min.cpp:190)
PPPM initialization ...
  using 12-bit tables for long-range coulomb (../kspace.cpp:332)
  G vector (1/distance) = 0.0743517
  grid = 12 12 12
  stencil order = 5
  estimated absolute RMS force accuracy = 0.0324361
  estimated relative force accuracy = 9.76805e-05
  using double precision KISS FFT
  3d grid and FFT values/proc = 4913 1728
Per MPI rank memory allocation (min/avg/max) = 14.95 | 14.95 | 14.95 Mbytes
Step Temp E_pair E_mol TotEng Press 
    2000    320.93794   -14.242007    478.15823    711.68988  -0.93334735 
    2040    320.93794   -33.945373    273.88516    487.71344    1.1839494 
Loop time of 0.115902 on 1 procs for 40 steps with 260 atoms

99.2% CPU use with 1 MPI tasks x no OpenMP threads

Minimization stats:
  Stopping criterion = linesearch alpha is zero
  Energy initial, next-to-last, final = 
          463.91622266      239.939783497      239.939783497
  Force two-norm initial, final = 542.834 32.0171
  Force max component initial, final = 87.1558 6.57557
  Final line search alpha, max atom move = 7.34706e-12 4.83111e-11
  Iterations, force evaluations = 40 137

MPI task timing breakdown:
Section |  min time  |  avg time  |  max time  |%varavg| %total
---------------------------------------------------------------
Pair    | 0.044374   | 0.044374   | 0.044374   |   0.0 | 38.29
Bond    | 0.012118   | 0.012118   | 0.012118   |   0.0 | 10.46
Kspace  | 0.058643   | 0.058643   | 0.058643   |   0.0 | 50.60
Neigh   | 0          | 0          | 0          |   0.0 |  0.00
Comm    | 9.8467e-05 | 9.8467e-05 | 9.8467e-05 |   0.0 |  0.08
Output  | 0          | 0          | 0          |   0.0 |  0.00
Modify  | 0          | 0          | 0          |   0.0 |  0.00
Other   |            | 0.0006676  |            |       |  0.58

Nlocal:    260 ave 260 max 260 min
Histogram: 1 0 0 0 0 0 0 0 0 0
Nghost:    98 ave 98 max 98 min
Histogram: 1 0 0 0 0 0 0 0 0 0
Neighs:    10835 ave 10835 max 10835 min
Histogram: 1 0 0 0 0 0 0 0 0 0

Total # of neighbors = 10835
Ave neighs/atom = 41.6731
Ave special neighs/atom = 10.7692
Neighbor list builds = 0
Dangerous builds = 0
write_dump all custom pysimm.dump.tmp id q x y z vx vy vz
quit


################################################################################
##################################    Init    ##################################
################################################################################
units           real
atom_style      full
pair_style      lj/cut/coul/long 12.0  12.0
kspace_style    pppm 1e-4
bond_style      harmonic
angle_style     harmonic
dihedral_style  fourier
improper_style  cvff
special_bonds   amber
pair_modify     mix arithmetic
read_data       temp.lmps
  orthogonal box = (-96.8452 -96.8452 -96.8452) to (96.8452 96.8452 96.8452)
  1 by 1 by 1 MPI processor grid
  reading atoms ...
  312 atoms
  reading velocities ...
  312 velocities
  scanning bonds ...
  3 = max bonds/atom
  scanning angles ...
  6 = max angles/atom
  scanning dihedrals ...
  10 = max dihedrals/atom
  scanning impropers ...
  2 = max impropers/atom
  reading bonds ...
  341 bonds
  reading angles ...
  590 angles
  reading dihedrals ...
  866 dihedrals
  reading impropers ...
  96 impropers
  4 = max # of 1-2 neighbors
  7 = max # of 1-3 neighbors
  20 = max # of 1-4 neighbors
  22 = max # of special neighbors
  special bonds CPU = 0.000741959 secs
  read_data CPU = 0.0111639 secs
################################################################################

timestep        1
fix             pysimm_md all nve/limit 0.1
run             2000
PPPM initialization ...
WARNING: System is not charge neutral, net charge = -1.8e-05 (../kspace.cpp:313)
  using 12-bit tables for long-range coulomb (../kspace.cpp:332)
  G vector (1/distance) = 0.0743517
  grid = 12 12 12
  stencil order = 5
  estimated absolute RMS force accuracy = 0.0355319
  estimated relative force accuracy = 0.000107003
  using double precision KISS FFT
  3d grid and FFT values/proc = 4913 1728
Neighbor list info ...
  update every 1 steps, delay 10 steps, check yes
  max neighbors/atom: 2000, page size: 100000
  master list distance cutoff = 14
  ghost atom cutoff = 14
  binsize = 7, bins = 28 28 28
  1 neighbor lists, perpetual/occasional/extra = 1 0 0
  (1) pair lj/cut/coul/long, perpetual
      attributes: half, newton on
      pair build: half/bin/newton
      stencil: half/bin/3d/newton
      bin: standard
Per MPI rank memory allocation (min/avg/max) = 13.83 | 13.83 | 13.83 Mbytes
Step Temp E_pair E_mol TotEng Press 
       0    267.52477 3.2698738e+08     413.4844 3.2698804e+08     12342334 
    2000    390.03148   -37.766413    631.26928     955.0745   -0.7325996 
Loop time of 2.66463 on 1 procs for 2000 steps with 312 atoms

Performance: 64.850 ns/day, 0.370 hours/ns, 750.574 timesteps/s
100.0% CPU use with 1 MPI tasks x no OpenMP threads

MPI task timing breakdown:
Section |  min time  |  avg time  |  max time  |%varavg| %total
---------------------------------------------------------------
Pair    | 0.79324    | 0.79324    | 0.79324    |   0.0 | 29.77
Bond    | 0.32032    | 0.32032    | 0.32032    |   0.0 | 12.02
Kspace  | 1.4738     | 1.4738     | 1.4738     |   0.0 | 55.31
Neigh   | 0.05738    | 0.05738    | 0.05738    |   0.0 |  2.15
Comm    | 0.0034103  | 0.0034103  | 0.0034103  |   0.0 |  0.13
Output  | 1.3113e-05 | 1.3113e-05 | 1.3113e-05 |   0.0 |  0.00
Modify  | 0.011737   | 0.011737   | 0.011737   |   0.0 |  0.44
Other   |            | 0.004753   |            |       |  0.18

Nlocal:    312 ave 312 max 312 min
Histogram: 1 0 0 0 0 0 0 0 0 0
Nghost:    108 ave 108 max 108 min
Histogram: 1 0 0 0 0 0 0 0 0 0
Neighs:    13370 ave 13370 max 13370 min
Histogram: 1 0 0 0 0 0 0 0 0 0

Total # of neighbors = 13370
Ave neighs/atom = 42.8526
Ave special neighs/atom = 10.7885
Neighbor list builds = 89
Dangerous builds = 0
unfix pysimm_md
min_style cg
minimize 0.001 0.001 10000 100000
WARNING: Using 'neigh_modify every 1 delay 0 check yes' setting during minimization (../min.cpp:190)
PPPM initialization ...
  using 12-bit tables for long-range coulomb (../kspace.cpp:332)
  G vector (1/distance) = 0.0743517
  grid = 12 12 12
  stencil order = 5
  estimated absolute RMS force accuracy = 0.0355319
  estimated relative force accuracy = 0.000107003
  using double precision KISS FFT
  3d grid and FFT values/proc = 4913 1728
Per MPI rank memory allocation (min/avg/max) = 14.96 | 14.96 | 14.96 Mbytes
Step Temp E_pair E_mol TotEng Press 
    2000    390.03148   -37.766413    631.26928     955.0745   -0.7325996 
    2037    390.03148   -52.166828     340.3835     649.7883    2.5505292 
Loop time of 0.0794749 on 1 procs for 37 steps with 312 atoms

100.6% CPU use with 1 MPI tasks x no OpenMP threads

Minimization stats:
  Stopping criterion = energy tolerance
  Energy initial, next-to-last, final = 
         593.502871046      288.298334626      288.216672363
  Force two-norm initial, final = 648.511 29.6097
  Force max component initial, final = 98.9029 4.45197
  Final line search alpha, max atom move = 0.00496361 0.0220978
  Iterations, force evaluations = 37 74

MPI task timing breakdown:
Section |  min time  |  avg time  |  max time  |%varavg| %total
---------------------------------------------------------------
Pair    | 0.032021   | 0.032021   | 0.032021   |   0.0 | 40.29
Bond    | 0.0088577  | 0.0088577  | 0.0088577  |   0.0 | 11.15
Kspace  | 0.037971   | 0.037971   | 0.037971   |   0.0 | 47.78
Neigh   | 0          | 0          | 0          |   0.0 |  0.00
Comm    | 6.2704e-05 | 6.2704e-05 | 6.2704e-05 |   0.0 |  0.08
Output  | 0          | 0          | 0          |   0.0 |  0.00
Modify  | 0          | 0          | 0          |   0.0 |  0.00
Other   |            | 0.0005627  |            |       |  0.71

Nlocal:    312 ave 312 max 312 min
Histogram: 1 0 0 0 0 0 0 0 0 0
Nghost:    108 ave 108 max 108 min
Histogram: 1 0 0 0 0 0 0 0 0 0
Neighs:    13401 ave 13401 max 13401 min
Histogram: 1 0 0 0 0 0 0 0 0 0

Total # of neighbors = 13401
Ave neighs/atom = 42.9519
Ave special neighs/atom = 10.7885
Neighbor list builds = 0
Dangerous builds = 0
write_dump all custom pysimm.dump.tmp id q x y z vx vy vz
quit


################################################################################
##################################    Init    ##################################
################################################################################
units           real
atom_style      full
pair_style      lj/cut/coul/long 12.0  12.0
kspace_style    pppm 1e-4
bond_style      harmonic
angle_style     harmonic
dihedral_style  fourier
improper_style  cvff
special_bonds   amber
pair_modify     mix arithmetic
read_data       temp.lmps
  orthogonal box = (-96.8452 -96.8452 -96.8452) to (96.8452 96.8452 96.8452)
  1 by 1 by 1 MPI processor grid
  reading atoms ...
  364 atoms
  reading velocities ...
  364 velocities
  scanning bonds ...
  3 = max bonds/atom
  scanning angles ...
  6 = max angles/atom
  scanning dihedrals ...
  10 = max dihedrals/atom
  scanning impropers ...
  2 = max impropers/atom
  reading bonds ...
  398 bonds
  reading angles ...
  689 angles
  reading dihedrals ...
  1012 dihedrals
  reading impropers ...
  112 impropers
  4 = max # of 1-2 neighbors
  7 = max # of 1-3 neighbors
  20 = max # of 1-4 neighbors
  22 = max # of special neighbors
  special bonds CPU = 0.000936031 secs
  read_data CPU = 0.0129659 secs
################################################################################

timestep        1
fix             pysimm_md all nve/limit 0.1
run             2000
PPPM initialization ...
WARNING: System is not charge neutral, net charge = -2.1e-05 (../kspace.cpp:313)
  using 12-bit tables for long-range coulomb (../kspace.cpp:332)
  G vector (1/distance) = 0.0884929
  grid = 15 15 15
  stencil order = 5
  estimated absolute RMS force accuracy = 0.0275478
  estimated relative force accuracy = 8.29595e-05
  using double precision KISS FFT
  3d grid and FFT values/proc = 8000 3375
Neighbor list info ...
  update every 1 steps, delay 10 steps, check yes
  max neighbors/atom: 2000, page size: 100000
  master list distance cutoff = 14
  ghost atom cutoff = 14
  binsize = 7, bins = 28 28 28
  1 neighbor lists, perpetual/occasional/extra = 1 0 0
  (1) pair lj/cut/coul/long, perpetual
      attributes: half, newton on
      pair build: half/bin/newton
      stencil: half/bin/3d/newton
      bin: standard
Per MPI rank memory allocation (min/avg/max) = 14.11 | 14.11 | 14.11 Mbytes
Step Temp E_pair E_mol TotEng Press 
       0    334.37224  -0.40013139    521.92502    883.32703    2.7969391 
    2000    283.69962   -36.778781    614.41962    884.61349   -3.3575774 
Loop time of 3.49421 on 1 procs for 2000 steps with 364 atoms

Performance: 49.453 ns/day, 0.485 hours/ns, 572.375 timesteps/s
100.0% CPU use with 1 MPI tasks x no OpenMP threads

MPI task timing breakdown:
Section |  min time  |  avg time  |  max time  |%varavg| %total
---------------------------------------------------------------
Pair    | 0.85928    | 0.85928    | 0.85928    |   0.0 | 24.59
Bond    | 0.32516    | 0.32516    | 0.32516    |   0.0 |  9.31
Kspace  | 2.2463     | 2.2463     | 2.2463     |   0.0 | 64.29
Neigh   | 0.042924   | 0.042924   | 0.042924   |   0.0 |  1.23
Comm    | 0.0032949  | 0.0032949  | 0.0032949  |   0.0 |  0.09
Output  | 1.2875e-05 | 1.2875e-05 | 1.2875e-05 |   0.0 |  0.00
Modify  | 0.011886   | 0.011886   | 0.011886   |   0.0 |  0.34
Other   |            | 0.005328   |            |       |  0.15

Nlocal:    364 ave 364 max 364 min
Histogram: 1 0 0 0 0 0 0 0 0 0
Nghost:    157 ave 157 max 157 min
Histogram: 1 0 0 0 0 0 0 0 0 0
Neighs:    15286 ave 15286 max 15286 min
Histogram: 1 0 0 0 0 0 0 0 0 0

Total # of neighbors = 15286
Ave neighs/atom = 41.9945
Ave special neighs/atom = 10.8022
Neighbor list builds = 65
Dangerous builds = 0
unfix pysimm_md
min_style cg
minimize 0.001 0.001 10000 100000
WARNING: Using 'neigh_modify every 1 delay 0 check yes' setting during minimization (../min.cpp:190)
PPPM initialization ...
  using 12-bit tables for long-range coulomb (../kspace.cpp:332)
  G vector (1/distance) = 0.0884929
  grid = 15 15 15
  stencil order = 5
  estimated absolute RMS force accuracy = 0.0275478
  estimated relative force accuracy = 8.29595e-05
  using double precision KISS FFT
  3d grid and FFT values/proc = 8000 3375
Per MPI rank memory allocation (min/avg/max) = 15.23 | 15.23 | 15.23 Mbytes
Step Temp E_pair E_mol TotEng Press 
    2000    283.69962   -36.778781    614.41962    884.61349   -3.3575774 
    2025    283.69962   -47.003406    389.18181    649.15105    2.1292886 
Loop time of 0.0705051 on 1 procs for 25 steps with 364 atoms

99.3% CPU use with 1 MPI tasks x no OpenMP threads

Minimization stats:
  Stopping criterion = energy tolerance
  Energy initial, next-to-last, final = 
         577.640843414      342.473734716      342.178399228
  Force two-norm initial, final = 566.135 36.5663
  Force max component initial, final = 94.0468 6.19799
  Final line search alpha, max atom move = 0.00562745 0.0348789
  Iterations, force evaluations = 25 50

MPI task timing breakdown:
Section |  min time  |  avg time  |  max time  |%varavg| %total
---------------------------------------------------------------
Pair    | 0.023099   | 0.023099   | 0.023099   |   0.0 | 32.76
Bond    | 0.0064583  | 0.0064583  | 0.0064583  |   0.0 |  9.16
Kspace  | 0.040486   | 0.040486   | 0.040486   |   0.0 | 57.42
Neigh   | 0          | 0          | 0          |   0.0 |  0.00
Comm    | 4.1246e-05 | 4.1246e-05 | 4.1246e-05 |   0.0 |  0.06
Output  | 0          | 0          | 0          |   0.0 |  0.00
Modify  | 0          | 0          | 0          |   0.0 |  0.00
Other   |            | 0.0004203  |            |       |  0.60

Nlocal:    364 ave 364 max 364 min
Histogram: 1 0 0 0 0 0 0 0 0 0
Nghost:    158 ave 158 max 158 min
Histogram: 1 0 0 0 0 0 0 0 0 0
Neighs:    15275 ave 15275 max 15275 min
Histogram: 1 0 0 0 0 0 0 0 0 0

Total # of neighbors = 15275
Ave neighs/atom = 41.9643
Ave special neighs/atom = 10.8022
Neighbor list builds = 0
Dangerous builds = 0
write_dump all custom pysimm.dump.tmp id q x y z vx vy vz
quit


################################################################################
##################################    Init    ##################################
################################################################################
units           real
atom_style      full
pair_style      lj/cut/coul/long 12.0  12.0
kspace_style    pppm 1e-4
bond_style      harmonic
angle_style     harmonic
dihedral_style  fourier
improper_style  cvff
special_bonds   amber
pair_modify     mix arithmetic
read_data       temp.lmps
  orthogonal box = (-96.8452 -96.8452 -96.8452) to (96.8452 96.8452 96.8452)
  1 by 1 by 1 MPI processor grid
  reading atoms ...
  416 atoms
  reading velocities ...
  416 velocities
  scanning bonds ...
  3 = max bonds/atom
  scanning angles ...
  6 = max angles/atom
  scanning dihedrals ...
  10 = max dihedrals/atom
  scanning impropers ...
  2 = max impropers/atom
  reading bonds ...
  455 bonds
  reading angles ...
  788 angles
  reading dihedrals ...
  1158 dihedrals
  reading impropers ...
  128 impropers
  4 = max # of 1-2 neighbors
  7 = max # of 1-3 neighbors
  20 = max # of 1-4 neighbors
  22 = max # of special neighbors
  special bonds CPU = 0.000861883 secs
  read_data CPU = 0.00792694 secs
################################################################################

timestep        1
fix             pysimm_md all nve/limit 0.1
run             2000
PPPM initialization ...
WARNING: System is not charge neutral, net charge = -2.4e-05 (../kspace.cpp:313)
  using 12-bit tables for long-range coulomb (../kspace.cpp:332)
  G vector (1/distance) = 0.0884925
  grid = 15 15 15
  stencil order = 5
  estimated absolute RMS force accuracy = 0.0294494
  estimated relative force accuracy = 8.8686e-05
  using double precision KISS FFT
  3d grid and FFT values/proc = 8000 3375
Neighbor list info ...
  update every 1 steps, delay 10 steps, check yes
  max neighbors/atom: 2000, page size: 100000
  master list distance cutoff = 14
  ghost atom cutoff = 14
  binsize = 7, bins = 28 28 28
  1 neighbor lists, perpetual/occasional/extra = 1 0 0
  (1) pair lj/cut/coul/long, perpetual
      attributes: half, newton on
      pair build: half/bin/newton
      stencil: half/bin/3d/newton
      bin: standard
Per MPI rank memory allocation (min/avg/max) = 14.12 | 14.12 | 14.12 Mbytes
Step Temp E_pair E_mol TotEng Press 
       0    248.33797     26113097    604.79544     26114009    985694.95 
    2000    409.99408   -28.381688    848.22312    1327.0189   -1.0622037 
Loop time of 2.54791 on 1 procs for 2000 steps with 416 atoms

Performance: 67.820 ns/day, 0.354 hours/ns, 784.958 timesteps/s
100.0% CPU use with 1 MPI tasks x no OpenMP threads

MPI task timing breakdown:
Section |  min time  |  avg time  |  max time  |%varavg| %total
---------------------------------------------------------------
Pair    | 0.62915    | 0.62915    | 0.62915    |   0.0 | 24.69
Bond    | 0.25638    | 0.25638    | 0.25638    |   0.0 | 10.06
Kspace  | 1.5806     | 1.5806     | 1.5806     |   0.0 | 62.04
Neigh   | 0.066262   | 0.066262   | 0.066262   |   0.0 |  2.60
Comm    | 0.002969   | 0.002969   | 0.002969   |   0.0 |  0.12
Output  | 1.1921e-05 | 1.1921e-05 | 1.1921e-05 |   0.0 |  0.00
Modify  | 0.0093985  | 0.0093985  | 0.0093985  |   0.0 |  0.37
Other   |            | 0.003099   |            |       |  0.12

Nlocal:    416 ave 416 max 416 min
Histogram: 1 0 0 0 0 0 0 0 0 0
Nghost:    115 ave 115 max 115 min
Histogram: 1 0 0 0 0 0 0 0 0 0
Neighs:    16557 ave 16557 max 16557 min
Histogram: 1 0 0 0 0 0 0 0 0 0

Total # of neighbors = 16557
Ave neighs/atom = 39.8005
Ave special neighs/atom = 10.8125
Neighbor list builds = 125
Dangerous builds = 0
unfix pysimm_md
min_style cg
minimize 0.001 0.001 10000 100000
WARNING: Using 'neigh_modify every 1 delay 0 check yes' setting during minimization (../min.cpp:190)
PPPM initialization ...
  using 12-bit tables for long-range coulomb (../kspace.cpp:332)
  G vector (1/distance) = 0.0884925
  grid = 15 15 15
  stencil order = 5
  estimated absolute RMS force accuracy = 0.0294494
  estimated relative force accuracy = 8.8686e-05
  using double precision KISS FFT
  3d grid and FFT values/proc = 8000 3375
Per MPI rank memory allocation (min/avg/max) = 15.25 | 15.25 | 15.25 Mbytes
Step Temp E_pair E_mol TotEng Press 
    2000    409.99408   -28.381688    848.22312    1327.0189   -1.0622037 
    2033    409.99408   -43.555437    434.53915    898.16122    3.4888505 
Loop time of 0.0969059 on 1 procs for 33 steps with 416 atoms

101.1% CPU use with 1 MPI tasks x no OpenMP threads

Minimization stats:
  Stopping criterion = energy tolerance
  Energy initial, next-to-last, final = 
         819.841432593      391.337340816      390.983713688
  Force two-norm initial, final = 797.061 31.3532
  Force max component initial, final = 175.796 4.53039
  Final line search alpha, max atom move = 0.00804152 0.0364312
  Iterations, force evaluations = 33 66

MPI task timing breakdown:
Section |  min time  |  avg time  |  max time  |%varavg| %total
---------------------------------------------------------------
Pair    | 0.033419   | 0.033419   | 0.033419   |   0.0 | 34.49
Bond    | 0.009445   | 0.009445   | 0.009445   |   0.0 |  9.75
Kspace  | 0.052903   | 0.052903   | 0.052903   |   0.0 | 54.59
Neigh   | 0.00049305 | 0.00049305 | 0.00049305 |   0.0 |  0.51
Comm    | 5.8651e-05 | 5.8651e-05 | 5.8651e-05 |   0.0 |  0.06
Output  | 0          | 0          | 0          |   0.0 |  0.00
Modify  | 0          | 0          | 0          |   0.0 |  0.00
Other   |            | 0.0005872  |            |       |  0.61

Nlocal:    416 ave 416 max 416 min
Histogram: 1 0 0 0 0 0 0 0 0 0
Nghost:    115 ave 115 max 115 min
Histogram: 1 0 0 0 0 0 0 0 0 0
Neighs:    16567 ave 16567 max 16567 min
Histogram: 1 0 0 0 0 0 0 0 0 0

Total # of neighbors = 16567
Ave neighs/atom = 39.8245
Ave special neighs/atom = 10.8125
Neighbor list builds = 1
Dangerous builds = 0
write_dump all custom pysimm.dump.tmp id q x y z vx vy vz
quit


################################################################################
##################################    Init    ##################################
################################################################################
units           real
atom_style      full
pair_style      lj/cut/coul/long 12.0  12.0
kspace_style    pppm 1e-4
bond_style      harmonic
angle_style     harmonic
dihedral_style  fourier
improper_style  cvff
special_bonds   amber
pair_modify     mix arithmetic
read_data       temp.lmps
  orthogonal box = (-96.8452 -96.8452 -96.8452) to (96.8452 96.8452 96.8452)
  1 by 1 by 1 MPI processor grid
  reading atoms ...
  468 atoms
  reading velocities ...
  468 velocities
  scanning bonds ...
  3 = max bonds/atom
  scanning angles ...
  6 = max angles/atom
  scanning dihedrals ...
  10 = max dihedrals/atom
  scanning impropers ...
  2 = max impropers/atom
  reading bonds ...
  512 bonds
  reading angles ...
  887 angles
  reading dihedrals ...
  1304 dihedrals
  reading impropers ...
  144 impropers
  4 = max # of 1-2 neighbors
  7 = max # of 1-3 neighbors
  20 = max # of 1-4 neighbors
  22 = max # of special neighbors
  special bonds CPU = 0.000411987 secs
  read_data CPU = 0.00730896 secs
################################################################################

timestep        1
fix             pysimm_md all nve/limit 0.1
run             2000
PPPM initialization ...
WARNING: System is not charge neutral, net charge = -2.7e-05 (../kspace.cpp:313)
  using 12-bit tables for long-range coulomb (../kspace.cpp:332)
  G vector (1/distance) = 0.0884924
  grid = 15 15 15
  stencil order = 5
  estimated absolute RMS force accuracy = 0.0312358
  estimated relative force accuracy = 9.40656e-05
  using double precision KISS FFT
  3d grid and FFT values/proc = 8000 3375
Neighbor list info ...
  update every 1 steps, delay 10 steps, check yes
  max neighbors/atom: 2000, page size: 100000
  master list distance cutoff = 14
  ghost atom cutoff = 14
  binsize = 7, bins = 28 28 28
  1 neighbor lists, perpetual/occasional/extra = 1 0 0
  (1) pair lj/cut/coul/long, perpetual
      attributes: half, newton on
      pair build: half/bin/newton
      stencil: half/bin/3d/newton
      bin: standard
Per MPI rank memory allocation (min/avg/max) = 14.11 | 14.11 | 14.11 Mbytes
Step Temp E_pair E_mol TotEng Press 
       0    364.50714    31.704496    634.39564     1173.508    4.7290514 
    2000    296.05794   -30.275908    755.20955    1137.0576    3.4532424 
Loop time of 2.70223 on 1 procs for 2000 steps with 468 atoms

Performance: 63.947 ns/day, 0.375 hours/ns, 740.130 timesteps/s
100.0% CPU use with 1 MPI tasks x no OpenMP threads

MPI task timing breakdown:
Section |  min time  |  avg time  |  max time  |%varavg| %total
---------------------------------------------------------------
Pair    | 0.70078    | 0.70078    | 0.70078    |   0.0 | 25.93
Bond    | 0.2869     | 0.2869     | 0.2869     |   0.0 | 10.62
Kspace  | 1.6525     | 1.6525     | 1.6525     |   0.0 | 61.15
Neigh   | 0.045007   | 0.045007   | 0.045007   |   0.0 |  1.67
Comm    | 0.0026572  | 0.0026572  | 0.0026572  |   0.0 |  0.10
Output  | 1.2875e-05 | 1.2875e-05 | 1.2875e-05 |   0.0 |  0.00
Modify  | 0.010336   | 0.010336   | 0.010336   |   0.0 |  0.38
Other   |            | 0.004028   |            |       |  0.15

Nlocal:    468 ave 468 max 468 min
Histogram: 1 0 0 0 0 0 0 0 0 0
Nghost:    136 ave 136 max 136 min
Histogram: 1 0 0 0 0 0 0 0 0 0
Neighs:    19366 ave 19366 max 19366 min
Histogram: 1 0 0 0 0 0 0 0 0 0

Total # of neighbors = 19366
Ave neighs/atom = 41.3803
Ave special neighs/atom = 10.8205
Neighbor list builds = 80
Dangerous builds = 0
unfix pysimm_md
min_style cg
minimize 0.001 0.001 10000 100000
WARNING: Using 'neigh_modify every 1 delay 0 check yes' setting during minimization (../min.cpp:190)
PPPM initialization ...
  using 12-bit tables for long-range coulomb (../kspace.cpp:332)
  G vector (1/distance) = 0.0884924
  grid = 15 15 15
  stencil order = 5
  estimated absolute RMS force accuracy = 0.0312358
  estimated relative force accuracy = 9.40656e-05
  using double precision KISS FFT
  3d grid and FFT values/proc = 8000 3375
Per MPI rank memory allocation (min/avg/max) = 15.24 | 15.24 | 15.24 Mbytes
Step Temp E_pair E_mol TotEng Press 
    2000    296.05794   -30.275908    755.20955    1137.0576    3.4532424 
    2023    296.05794   -51.971616    495.74565    855.89802    2.3436159 
Loop time of 0.0745869 on 1 procs for 23 steps with 468 atoms

99.2% CPU use with 1 MPI tasks x no OpenMP threads

Minimization stats:
  Stopping criterion = energy tolerance
  Energy initial, next-to-last, final = 
         724.933639296      444.105581799      443.774035388
  Force two-norm initial, final = 651.482 41.4552
  Force max component initial, final = 110.142 6.47943
  Final line search alpha, max atom move = 0.0038666 0.0250534
  Iterations, force evaluations = 23 46

MPI task timing breakdown:
Section |  min time  |  avg time  |  max time  |%varavg| %total
---------------------------------------------------------------
Pair    | 0.026914   | 0.026914   | 0.026914   |   0.0 | 36.08
Bond    | 0.0074139  | 0.0074139  | 0.0074139  |   0.0 |  9.94
Kspace  | 0.039764   | 0.039764   | 0.039764   |   0.0 | 53.31
Neigh   | 0          | 0          | 0          |   0.0 |  0.00
Comm    | 4.7445e-05 | 4.7445e-05 | 4.7445e-05 |   0.0 |  0.06
Output  | 0          | 0          | 0          |   0.0 |  0.00
Modify  | 0          | 0          | 0          |   0.0 |  0.00
Other   |            | 0.0004478  |            |       |  0.60

Nlocal:    468 ave 468 max 468 min
Histogram: 1 0 0 0 0 0 0 0 0 0
Nghost:    136 ave 136 max 136 min
Histogram: 1 0 0 0 0 0 0 0 0 0
Neighs:    19357 ave 19357 max 19357 min
Histogram: 1 0 0 0 0 0 0 0 0 0

Total # of neighbors = 19357
Ave neighs/atom = 41.3611
Ave special neighs/atom = 10.8205
Neighbor list builds = 0
Dangerous builds = 0
write_dump all custom pysimm.dump.tmp id q x y z vx vy vz
quit


################################################################################
##################################    Init    ##################################
################################################################################
units           real
atom_style      full
pair_style      lj/cut/coul/long 12.0  12.0
kspace_style    pppm 1e-4
bond_style      harmonic
angle_style     harmonic
dihedral_style  fourier
improper_style  cvff
special_bonds   amber
pair_modify     mix arithmetic
read_data       temp.lmps
  orthogonal box = (-96.8452 -96.8452 -96.8452) to (96.8452 96.8452 96.8452)
  1 by 1 by 1 MPI processor grid
  reading atoms ...
  520 atoms
  reading velocities ...
  520 velocities
  scanning bonds ...
  3 = max bonds/atom
  scanning angles ...
  6 = max angles/atom
  scanning dihedrals ...
  10 = max dihedrals/atom
  scanning impropers ...
  2 = max impropers/atom
  reading bonds ...
  569 bonds
  reading angles ...
  986 angles
  reading dihedrals ...
  1450 dihedrals
  reading impropers ...
  160 impropers
  4 = max # of 1-2 neighbors
  7 = max # of 1-3 neighbors
  20 = max # of 1-4 neighbors
  22 = max # of special neighbors
  special bonds CPU = 0.000421047 secs
  read_data CPU = 0.00835896 secs
################################################################################

timestep        1
fix             pysimm_md all nve/limit 0.1
run             2000
PPPM initialization ...
WARNING: System is not charge neutral, net charge = -3e-05 (../kspace.cpp:313)
  using 12-bit tables for long-range coulomb (../kspace.cpp:332)
  G vector (1/distance) = 0.0884934
  grid = 15 15 15
  stencil order = 5
  estimated absolute RMS force accuracy = 0.0329265
  estimated relative force accuracy = 9.91573e-05
  using double precision KISS FFT
  3d grid and FFT values/proc = 8000 3375
Neighbor list info ...
  update every 1 steps, delay 10 steps, check yes
  max neighbors/atom: 2000, page size: 100000
  master list distance cutoff = 14
  ghost atom cutoff = 14
  binsize = 7, bins = 28 28 28
  1 neighbor lists, perpetual/occasional/extra = 1 0 0
  (1) pair lj/cut/coul/long, perpetual
      attributes: half, newton on
      pair build: half/bin/newton
      stencil: half/bin/3d/newton
      bin: standard
Per MPI rank memory allocation (min/avg/max) = 14.12 | 14.12 | 14.12 Mbytes
Step Temp E_pair E_mol TotEng Press 
       0      266.544    13721.356    733.02504    14866.736    521.77621 
    2000    298.55177   -51.942382     891.0873    1301.0166    1.2825869 
Loop time of 3.21381 on 1 procs for 2000 steps with 520 atoms

Performance: 53.768 ns/day, 0.446 hours/ns, 622.313 timesteps/s
100.1% CPU use with 1 MPI tasks x no OpenMP threads

MPI task timing breakdown:
Section |  min time  |  avg time  |  max time  |%varavg| %total
---------------------------------------------------------------
Pair    | 0.90501    | 0.90501    | 0.90501    |   0.0 | 28.16
Bond    | 0.35659    | 0.35659    | 0.35659    |   0.0 | 11.10
Kspace  | 1.8679     | 1.8679     | 1.8679     |   0.0 | 58.12
Neigh   | 0.063111   | 0.063111   | 0.063111   |   0.0 |  1.96
Comm    | 0.0036266  | 0.0036266  | 0.0036266  |   0.0 |  0.11
Output  | 1.3113e-05 | 1.3113e-05 | 1.3113e-05 |   0.0 |  0.00
Modify  | 0.013068   | 0.013068   | 0.013068   |   0.0 |  0.41
Other   |            | 0.004457   |            |       |  0.14

Nlocal:    520 ave 520 max 520 min
Histogram: 1 0 0 0 0 0 0 0 0 0
Nghost:    216 ave 216 max 216 min
Histogram: 1 0 0 0 0 0 0 0 0 0
Neighs:    21679 ave 21679 max 21679 min
Histogram: 1 0 0 0 0 0 0 0 0 0

Total # of neighbors = 21679
Ave neighs/atom = 41.6904
Ave special neighs/atom = 10.8269
Neighbor list builds = 88
Dangerous builds = 0
unfix pysimm_md
min_style cg
minimize 0.001 0.001 10000 100000
WARNING: Using 'neigh_modify every 1 delay 0 check yes' setting during minimization (../min.cpp:190)
PPPM initialization ...
  using 12-bit tables for long-range coulomb (../kspace.cpp:332)
  G vector (1/distance) = 0.0884934
  grid = 15 15 15
  stencil order = 5
  estimated absolute RMS force accuracy = 0.0329265
  estimated relative force accuracy = 9.91573e-05
  using double precision KISS FFT
  3d grid and FFT values/proc = 8000 3375
Per MPI rank memory allocation (min/avg/max) = 15.25 | 15.25 | 15.25 Mbytes
Step Temp E_pair E_mol TotEng Press 
    2000    298.55177   -51.942382     891.0873    1301.0166    1.2825869 
    2027    298.55177   -74.575126    563.07184    950.36837    2.7788478 
Loop time of 0.191174 on 1 procs for 27 steps with 520 atoms

99.9% CPU use with 1 MPI tasks x no OpenMP threads

Minimization stats:
  Stopping criterion = linesearch alpha is zero
  Energy initial, next-to-last, final = 
         839.144918158      488.496710459      488.496710459
  Force two-norm initial, final = 778.514 44.7114
  Force max component initial, final = 131.296 6.81851
  Final line search alpha, max atom move = 4.51404e-12 3.07791e-11
  Iterations, force evaluations = 27 113

MPI task timing breakdown:
Section |  min time  |  avg time  |  max time  |%varavg| %total
---------------------------------------------------------------
Pair    | 0.072737   | 0.072737   | 0.072737   |   0.0 | 38.05
Bond    | 0.020044   | 0.020044   | 0.020044   |   0.0 | 10.48
Kspace  | 0.097383   | 0.097383   | 0.097383   |   0.0 | 50.94
Neigh   | 0          | 0          | 0          |   0.0 |  0.00
Comm    | 0.00014234 | 0.00014234 | 0.00014234 |   0.0 |  0.07
Output  | 0          | 0          | 0          |   0.0 |  0.00
Modify  | 0          | 0          | 0          |   0.0 |  0.00
Other   |            | 0.0008686  |            |       |  0.45

Nlocal:    520 ave 520 max 520 min
Histogram: 1 0 0 0 0 0 0 0 0 0
Nghost:    216 ave 216 max 216 min
Histogram: 1 0 0 0 0 0 0 0 0 0
Neighs:    21670 ave 21670 max 21670 min
Histogram: 1 0 0 0 0 0 0 0 0 0

Total # of neighbors = 21670
Ave neighs/atom = 41.6731
Ave special neighs/atom = 10.8269
Neighbor list builds = 0
Dangerous builds = 0
write_dump all custom pysimm.dump.tmp id q x y z vx vy vz
quit


################################################################################
##################################    Init    ##################################
################################################################################
units           real
atom_style      full
pair_style      lj/cut/coul/long 12.0  12.0
kspace_style    pppm 1e-4
bond_style      harmonic
angle_style     harmonic
dihedral_style  fourier
improper_style  cvff
special_bonds   amber
pair_modify     mix arithmetic
read_data       temp.lmps
  orthogonal box = (-122.017 -122.017 -122.017) to (122.017 122.017 122.017)
  1 by 1 by 1 MPI processor grid
  reading atoms ...
  572 atoms
  reading velocities ...
  572 velocities
  scanning bonds ...
  3 = max bonds/atom
  scanning angles ...
  6 = max angles/atom
  scanning dihedrals ...
  10 = max dihedrals/atom
  scanning impropers ...
  2 = max impropers/atom
  reading bonds ...
  626 bonds
  reading angles ...
  1085 angles
  reading dihedrals ...
  1596 dihedrals
  reading impropers ...
  176 impropers
  4 = max # of 1-2 neighbors
  7 = max # of 1-3 neighbors
  20 = max # of 1-4 neighbors
  22 = max # of special neighbors
  special bonds CPU = 0.000763893 secs
  read_data CPU = 0.0119491 secs
################################################################################

timestep        1
fix             pysimm_md all nve/limit 0.1
run             2000
PPPM initialization ...
WARNING: System is not charge neutral, net charge = -3.3e-05 (../kspace.cpp:313)
  using 12-bit tables for long-range coulomb (../kspace.cpp:332)
  G vector (1/distance) = 0.0738826
  grid = 15 15 15
  stencil order = 5
  estimated absolute RMS force accuracy = 0.0343671
  estimated relative force accuracy = 0.000103496
  using double precision KISS FFT
  3d grid and FFT values/proc = 8000 3375
Neighbor list info ...
  update every 1 steps, delay 10 steps, check yes
  max neighbors/atom: 2000, page size: 100000
  master list distance cutoff = 14
  ghost atom cutoff = 14
  binsize = 7, bins = 35 35 35
  1 neighbor lists, perpetual/occasional/extra = 1 0 0
  (1) pair lj/cut/coul/long, perpetual
      attributes: half, newton on
      pair build: half/bin/newton
      stencil: half/bin/3d/newton
      bin: standard
Per MPI rank memory allocation (min/avg/max) = 14.23 | 14.23 | 14.23 Mbytes
Step Temp E_pair E_mol TotEng Press 
       0    271.49856   -81.692011    290105.75    290486.16   -959.56353 
    2000    1394.6541   -35.925962     1713.808    4051.6427   -1.1820339 
Loop time of 3.82357 on 1 procs for 2000 steps with 572 atoms

Performance: 45.193 ns/day, 0.531 hours/ns, 523.071 timesteps/s
100.0% CPU use with 1 MPI tasks x no OpenMP threads

MPI task timing breakdown:
Section |  min time  |  avg time  |  max time  |%varavg| %total
---------------------------------------------------------------
Pair    | 1.102      | 1.102      | 1.102      |   0.0 | 28.82
Bond    | 0.41811    | 0.41811    | 0.41811    |   0.0 | 10.94
Kspace  | 2.1343     | 2.1343     | 2.1343     |   0.0 | 55.82
Neigh   | 0.14809    | 0.14809    | 0.14809    |   0.0 |  3.87
Comm    | 0.0022025  | 0.0022025  | 0.0022025  |   0.0 |  0.06
Output  | 1.3828e-05 | 1.3828e-05 | 1.3828e-05 |   0.0 |  0.00
Modify  | 0.015602   | 0.015602   | 0.015602   |   0.0 |  0.41
Other   |            | 0.00328    |            |       |  0.09

Nlocal:    572 ave 572 max 572 min
Histogram: 1 0 0 0 0 0 0 0 0 0
Nghost:    0 ave 0 max 0 min
Histogram: 1 0 0 0 0 0 0 0 0 0
Neighs:    29598 ave 29598 max 29598 min
Histogram: 1 0 0 0 0 0 0 0 0 0

Total # of neighbors = 29598
Ave neighs/atom = 51.7448
Ave special neighs/atom = 10.8322
Neighbor list builds = 167
Dangerous builds = 0
unfix pysimm_md
min_style cg
minimize 0.001 0.001 10000 100000
WARNING: Using 'neigh_modify every 1 delay 0 check yes' setting during minimization (../min.cpp:190)
PPPM initialization ...
  using 12-bit tables for long-range coulomb (../kspace.cpp:332)
  G vector (1/distance) = 0.0738826
  grid = 15 15 15
  stencil order = 5
  estimated absolute RMS force accuracy = 0.0343671
  estimated relative force accuracy = 0.000103496
  using double precision KISS FFT
  3d grid and FFT values/proc = 8000 3375
Per MPI rank memory allocation (min/avg/max) = 15.35 | 15.35 | 15.35 Mbytes
Step Temp E_pair E_mol TotEng Press 
    2000    1394.6541   -35.925962     1713.808    4051.6427   -1.1820339 
    2057    1394.6541   -79.369796    684.97496    2979.3658    5.8043432 
Loop time of 0.223581 on 1 procs for 57 steps with 572 atoms

100.6% CPU use with 1 MPI tasks x no OpenMP threads

Minimization stats:
  Stopping criterion = energy tolerance
  Energy initial, next-to-last, final = 
         1677.88199819      606.080426617       605.60515926
  Force two-norm initial, final = 1040.61 59.1652
  Force max component initial, final = 143.734 10.2502
  Final line search alpha, max atom move = 0.00295567 0.0302963
  Iterations, force evaluations = 57 114

MPI task timing breakdown:
Section |  min time  |  avg time  |  max time  |%varavg| %total
---------------------------------------------------------------
Pair    | 0.095992   | 0.095992   | 0.095992   |   0.0 | 42.93
Bond    | 0.02201    | 0.02201    | 0.02201    |   0.0 |  9.84
Kspace  | 0.10166    | 0.10166    | 0.10166    |   0.0 | 45.47
Neigh   | 0.0025611  | 0.0025611  | 0.0025611  |   0.0 |  1.15
Comm    | 4.1723e-05 | 4.1723e-05 | 4.1723e-05 |   0.0 |  0.02
Output  | 0          | 0          | 0          |   0.0 |  0.00
Modify  | 0          | 0          | 0          |   0.0 |  0.00
Other   |            | 0.001318   |            |       |  0.59

Nlocal:    572 ave 572 max 572 min
Histogram: 1 0 0 0 0 0 0 0 0 0
Nghost:    0 ave 0 max 0 min
Histogram: 1 0 0 0 0 0 0 0 0 0
Neighs:    29970 ave 29970 max 29970 min
Histogram: 1 0 0 0 0 0 0 0 0 0

Total # of neighbors = 29970
Ave neighs/atom = 52.3951
Ave special neighs/atom = 10.8322
Neighbor list builds = 3
Dangerous builds = 0
write_dump all custom pysimm.dump.tmp id q x y z vx vy vz
quit


################################################################################
##################################    Init    ##################################
################################################################################
units           real
atom_style      full
pair_style      lj/cut/coul/long 12.0  12.0
kspace_style    pppm 1e-4
bond_style      harmonic
angle_style     harmonic
dihedral_style  fourier
improper_style  cvff
special_bonds   amber
pair_modify     mix arithmetic
read_data       temp.lmps
  orthogonal box = (-125.956 -125.956 -125.956) to (125.956 125.956 125.956)
  1 by 1 by 1 MPI processor grid
  reading atoms ...
  624 atoms
  reading velocities ...
  624 velocities
  scanning bonds ...
  3 = max bonds/atom
  scanning angles ...
  6 = max angles/atom
  scanning dihedrals ...
  10 = max dihedrals/atom
  scanning impropers ...
  2 = max impropers/atom
  reading bonds ...
  683 bonds
  reading angles ...
  1184 angles
  reading dihedrals ...
  1742 dihedrals
  reading impropers ...
  192 impropers
  4 = max # of 1-2 neighbors
  7 = max # of 1-3 neighbors
  20 = max # of 1-4 neighbors
  22 = max # of special neighbors
  special bonds CPU = 0.000663996 secs
  read_data CPU = 0.0107741 secs
################################################################################

timestep        1
fix             pysimm_md all nve/limit 0.1
run             2000
PPPM initialization ...
WARNING: System is not charge neutral, net charge = -3.6e-05 (../kspace.cpp:313)
  using 12-bit tables for long-range coulomb (../kspace.cpp:332)
  G vector (1/distance) = 0.072008
  grid = 15 15 15
  stencil order = 5
  estimated absolute RMS force accuracy = 0.0355955
  estimated relative force accuracy = 0.000107195
  using double precision KISS FFT
  3d grid and FFT values/proc = 8000 3375
Neighbor list info ...
  update every 1 steps, delay 10 steps, check yes
  max neighbors/atom: 2000, page size: 100000
  master list distance cutoff = 14
  ghost atom cutoff = 14
  binsize = 7, bins = 36 36 36
  1 neighbor lists, perpetual/occasional/extra = 1 0 0
  (1) pair lj/cut/coul/long, perpetual
      attributes: half, newton on
      pair build: half/bin/newton
      stencil: half/bin/3d/newton
      bin: standard
Per MPI rank memory allocation (min/avg/max) = 14.25 | 14.25 | 14.25 Mbytes
Step Temp E_pair E_mol TotEng Press 
       0    1278.3704   -85.890674    181059.56    183347.66   -546.39803 
    2000    1353.1289    -42.09038     1930.139    4400.8695   -3.6151365 
Loop time of 4.04138 on 1 procs for 2000 steps with 624 atoms

Performance: 42.758 ns/day, 0.561 hours/ns, 494.881 timesteps/s
100.0% CPU use with 1 MPI tasks x no OpenMP threads

MPI task timing breakdown:
Section |  min time  |  avg time  |  max time  |%varavg| %total
---------------------------------------------------------------
Pair    | 1.4038     | 1.4038     | 1.4038     |   0.0 | 34.74
Bond    | 0.43038    | 0.43038    | 0.43038    |   0.0 | 10.65
Kspace  | 2.0133     | 2.0133     | 2.0133     |   0.0 | 49.82
Neigh   | 0.17279    | 0.17279    | 0.17279    |   0.0 |  4.28
Comm    | 0.0021479  | 0.0021479  | 0.0021479  |   0.0 |  0.05
Output  | 1.4067e-05 | 1.4067e-05 | 1.4067e-05 |   0.0 |  0.00
Modify  | 0.015669   | 0.015669   | 0.015669   |   0.0 |  0.39
Other   |            | 0.003184   |            |       |  0.08

Nlocal:    624 ave 624 max 624 min
Histogram: 1 0 0 0 0 0 0 0 0 0
Nghost:    0 ave 0 max 0 min
Histogram: 1 0 0 0 0 0 0 0 0 0
Neighs:    29635 ave 29635 max 29635 min
Histogram: 1 0 0 0 0 0 0 0 0 0

Total # of neighbors = 29635
Ave neighs/atom = 47.492
Ave special neighs/atom = 10.8365
Neighbor list builds = 166
Dangerous builds = 0
unfix pysimm_md
min_style cg
minimize 0.001 0.001 10000 100000
WARNING: Using 'neigh_modify every 1 delay 0 check yes' setting during minimization (../min.cpp:190)
PPPM initialization ...
  using 12-bit tables for long-range coulomb (../kspace.cpp:332)
  G vector (1/distance) = 0.072008
  grid = 15 15 15
  stencil order = 5
  estimated absolute RMS force accuracy = 0.0355955
  estimated relative force accuracy = 0.000107195
  using double precision KISS FFT
  3d grid and FFT values/proc = 8000 3375
Per MPI rank memory allocation (min/avg/max) = 15.38 | 15.38 | 15.38 Mbytes
Step Temp E_pair E_mol TotEng Press 
    2000    1353.1289    -42.09038     1930.139    4400.8695   -3.6151365 
    2049    1353.1289    -59.48417     747.1809    3200.5176    6.7145047 
Loop time of 0.19594 on 1 procs for 49 steps with 624 atoms

100.0% CPU use with 1 MPI tasks x no OpenMP threads

Minimization stats:
  Stopping criterion = energy tolerance
  Energy initial, next-to-last, final = 
         1888.04865321      687.914762022      687.696727934
  Force two-norm initial, final = 1133.08 68.447
  Force max component initial, final = 147.602 9.36191
  Final line search alpha, max atom move = 0.00218817 0.0204855
  Iterations, force evaluations = 49 98

MPI task timing breakdown:
Section |  min time  |  avg time  |  max time  |%varavg| %total
---------------------------------------------------------------
Pair    | 0.08426    | 0.08426    | 0.08426    |   0.0 | 43.00
Bond    | 0.021177   | 0.021177   | 0.021177   |   0.0 | 10.81
Kspace  | 0.08753    | 0.08753    | 0.08753    |   0.0 | 44.67
Neigh   | 0.0017211  | 0.0017211  | 0.0017211  |   0.0 |  0.88
Comm    | 3.9339e-05 | 3.9339e-05 | 3.9339e-05 |   0.0 |  0.02
Output  | 0          | 0          | 0          |   0.0 |  0.00
Modify  | 0          | 0          | 0          |   0.0 |  0.00
Other   |            | 0.001213   |            |       |  0.62

Nlocal:    624 ave 624 max 624 min
Histogram: 1 0 0 0 0 0 0 0 0 0
Nghost:    0 ave 0 max 0 min
Histogram: 1 0 0 0 0 0 0 0 0 0
Neighs:    29647 ave 29647 max 29647 min
Histogram: 1 0 0 0 0 0 0 0 0 0

Total # of neighbors = 29647
Ave neighs/atom = 47.5112
Ave special neighs/atom = 10.8365
Neighbor list builds = 2
Dangerous builds = 0
write_dump all custom pysimm.dump.tmp id q x y z vx vy vz
quit


################################################################################
##################################    Init    ##################################
################################################################################
units           real
atom_style      full
pair_style      lj/cut/coul/long 12.0  12.0
kspace_style    pppm 1e-4
bond_style      harmonic
angle_style     harmonic
dihedral_style  fourier
improper_style  cvff
special_bonds   amber
pair_modify     mix arithmetic
read_data       temp.lmps
  orthogonal box = (-129.663 -129.663 -129.663) to (129.663 129.663 129.663)
  1 by 1 by 1 MPI processor grid
  reading atoms ...
  676 atoms
  reading velocities ...
  676 velocities
  scanning bonds ...
  3 = max bonds/atom
  scanning angles ...
  6 = max angles/atom
  scanning dihedrals ...
  10 = max dihedrals/atom
  scanning impropers ...
  2 = max impropers/atom
  reading bonds ...
  740 bonds
  reading angles ...
  1283 angles
  reading dihedrals ...
  1888 dihedrals
  reading impropers ...
  208 impropers
  4 = max # of 1-2 neighbors
  7 = max # of 1-3 neighbors
  20 = max # of 1-4 neighbors
  22 = max # of special neighbors
  special bonds CPU = 0.00134611 secs
  read_data CPU = 0.018666 secs
################################################################################

timestep        1
fix             pysimm_md all nve/limit 0.1
run             2000
PPPM initialization ...
WARNING: System is not charge neutral, net charge = -3.9e-05 (../kspace.cpp:313)
  using 12-bit tables for long-range coulomb (../kspace.cpp:332)
  G vector (1/distance) = 0.0703273
  grid = 15 15 15
  stencil order = 5
  estimated absolute RMS force accuracy = 0.0367134
  estimated relative force accuracy = 0.000110561
  using double precision KISS FFT
  3d grid and FFT values/proc = 8000 3375
Neighbor list info ...
  update every 1 steps, delay 10 steps, check yes
  max neighbors/atom: 2000, page size: 100000
  master list distance cutoff = 14
  ghost atom cutoff = 14
  binsize = 7, bins = 38 38 38
  1 neighbor lists, perpetual/occasional/extra = 1 0 0
  (1) pair lj/cut/coul/long, perpetual
      attributes: half, newton on
      pair build: half/bin/newton
      stencil: half/bin/3d/newton
      bin: standard
Per MPI rank memory allocation (min/avg/max) = 14.3 | 14.3 | 14.3 Mbytes
Step Temp E_pair E_mol TotEng Press 
       0    1249.0021   -65.441035    404117.55    406565.16   -1100.5532 
    2000    1684.9729    3.9092089    2380.3513    5774.5048   -1.9480043 
Loop time of 4.67034 on 1 procs for 2000 steps with 676 atoms

Performance: 36.999 ns/day, 0.649 hours/ns, 428.234 timesteps/s
100.1% CPU use with 1 MPI tasks x no OpenMP threads

MPI task timing breakdown:
Section |  min time  |  avg time  |  max time  |%varavg| %total
---------------------------------------------------------------
Pair    | 1.5939     | 1.5939     | 1.5939     |   0.0 | 34.13
Bond    | 0.52463    | 0.52463    | 0.52463    |   0.0 | 11.23
Kspace  | 2.3179     | 2.3179     | 2.3179     |   0.0 | 49.63
Neigh   | 0.20797    | 0.20797    | 0.20797    |   0.0 |  4.45
Comm    | 0.0025992  | 0.0025992  | 0.0025992  |   0.0 |  0.06
Output  | 1.2875e-05 | 1.2875e-05 | 1.2875e-05 |   0.0 |  0.00
Modify  | 0.019622   | 0.019622   | 0.019622   |   0.0 |  0.42
Other   |            | 0.003732   |            |       |  0.08

Nlocal:    676 ave 676 max 676 min
Histogram: 1 0 0 0 0 0 0 0 0 0
Nghost:    0 ave 0 max 0 min
Histogram: 1 0 0 0 0 0 0 0 0 0
Neighs:    40099 ave 40099 max 40099 min
Histogram: 1 0 0 0 0 0 0 0 0 0

Total # of neighbors = 40099
Ave neighs/atom = 59.318
Ave special neighs/atom = 10.8402
Neighbor list builds = 172
Dangerous builds = 0
unfix pysimm_md
min_style cg
minimize 0.001 0.001 10000 100000
WARNING: Using 'neigh_modify every 1 delay 0 check yes' setting during minimization (../min.cpp:190)
PPPM initialization ...
  using 12-bit tables for long-range coulomb (../kspace.cpp:332)
  G vector (1/distance) = 0.0703273
  grid = 15 15 15
  stencil order = 5
  estimated absolute RMS force accuracy = 0.0367134
  estimated relative force accuracy = 0.000110561
  using double precision KISS FFT
  3d grid and FFT values/proc = 8000 3375
Per MPI rank memory allocation (min/avg/max) = 15.42 | 15.42 | 15.42 Mbytes
Step Temp E_pair E_mol TotEng Press 
    2000    1684.9729    3.9092089    2380.3513    5774.5048   -1.9480043 
    2067    1684.9729   -80.405272    815.43473    4125.2737    7.6754123 
Loop time of 0.518667 on 1 procs for 67 steps with 676 atoms

99.9% CPU use with 1 MPI tasks x no OpenMP threads

Minimization stats:
  Stopping criterion = linesearch alpha is zero
  Energy initial, next-to-last, final = 
         2384.26047783      735.029455478      735.029455478
  Force two-norm initial, final = 1270.39 56.1589
  Force max component initial, final = 157.207 9.7483
  Final line search alpha, max atom move = 3.89319e-12 3.79519e-11
  Iterations, force evaluations = 67 223

MPI task timing breakdown:
Section |  min time  |  avg time  |  max time  |%varavg| %total
---------------------------------------------------------------
Pair    | 0.25434    | 0.25434    | 0.25434    |   0.0 | 49.04
Bond    | 0.051193   | 0.051193   | 0.051193   |   0.0 |  9.87
Kspace  | 0.20746    | 0.20746    | 0.20746    |   0.0 | 40.00
Neigh   | 0.0031497  | 0.0031497  | 0.0031497  |   0.0 |  0.61
Comm    | 8.5354e-05 | 8.5354e-05 | 8.5354e-05 |   0.0 |  0.02
Output  | 0          | 0          | 0          |   0.0 |  0.00
Modify  | 0          | 0          | 0          |   0.0 |  0.00
Other   |            | 0.002439   |            |       |  0.47

Nlocal:    676 ave 676 max 676 min
Histogram: 1 0 0 0 0 0 0 0 0 0
Nghost:    0 ave 0 max 0 min
Histogram: 1 0 0 0 0 0 0 0 0 0
Neighs:    40324 ave 40324 max 40324 min
Histogram: 1 0 0 0 0 0 0 0 0 0

Total # of neighbors = 40324
Ave neighs/atom = 59.6509
Ave special neighs/atom = 10.8402
Neighbor list builds = 3
Dangerous builds = 0
write_dump all custom pysimm.dump.tmp id q x y z vx vy vz
quit


################################################################################
##################################    Init    ##################################
################################################################################
units           real
atom_style      full
pair_style      lj/cut/coul/long 12.0  12.0
kspace_style    pppm 1e-4
bond_style      harmonic
angle_style     harmonic
dihedral_style  fourier
improper_style  cvff
special_bonds   amber
pair_modify     mix arithmetic
read_data       temp.lmps
  orthogonal box = (-133.169 -133.169 -133.169) to (133.169 133.169 133.169)
  1 by 1 by 1 MPI processor grid
  reading atoms ...
  728 atoms
  reading velocities ...
  728 velocities
  scanning bonds ...
  3 = max bonds/atom
  scanning angles ...
  6 = max angles/atom
  scanning dihedrals ...
  10 = max dihedrals/atom
  scanning impropers ...
  2 = max impropers/atom
  reading bonds ...
  797 bonds
  reading angles ...
  1382 angles
  reading dihedrals ...
  2034 dihedrals
  reading impropers ...
  224 impropers
  4 = max # of 1-2 neighbors
  7 = max # of 1-3 neighbors
  20 = max # of 1-4 neighbors
  22 = max # of special neighbors
  special bonds CPU = 0.00142002 secs
  read_data CPU = 0.020195 secs
################################################################################

timestep        1
fix             pysimm_md all nve/limit 0.1
run             2000
PPPM initialization ...
WARNING: System is not charge neutral, net charge = -4.2e-05 (../kspace.cpp:313)
  using 12-bit tables for long-range coulomb (../kspace.cpp:332)
  G vector (1/distance) = 0.0725278
  grid = 16 16 16
  stencil order = 5
  estimated absolute RMS force accuracy = 0.0349892
  estimated relative force accuracy = 0.000105369
  using double precision KISS FFT
  3d grid and FFT values/proc = 9261 4096
Neighbor list info ...
  update every 1 steps, delay 10 steps, check yes
  max neighbors/atom: 2000, page size: 100000
  master list distance cutoff = 14
  ghost atom cutoff = 14
  binsize = 7, bins = 39 39 39
  1 neighbor lists, perpetual/occasional/extra = 1 0 0
  (1) pair lj/cut/coul/long, perpetual
      attributes: half, newton on
      pair build: half/bin/newton
      stencil: half/bin/3d/newton
      bin: standard
Per MPI rank memory allocation (min/avg/max) = 14.44 | 14.44 | 14.44 Mbytes
Step Temp E_pair E_mol TotEng Press 
       0    1564.5585    -86.74407    273616.82    276920.55   -690.46789 
    2000    1448.3229   -24.232758     2726.078    5840.4317     -1.86252 
Loop time of 5.34482 on 1 procs for 2000 steps with 728 atoms

Performance: 32.330 ns/day, 0.742 hours/ns, 374.194 timesteps/s
100.1% CPU use with 1 MPI tasks x no OpenMP threads

MPI task timing breakdown:
Section |  min time  |  avg time  |  max time  |%varavg| %total
---------------------------------------------------------------
Pair    | 1.8615     | 1.8615     | 1.8615     |   0.0 | 34.83
Bond    | 0.57546    | 0.57546    | 0.57546    |   0.0 | 10.77
Kspace  | 2.6285     | 2.6285     | 2.6285     |   0.0 | 49.18
Neigh   | 0.25167    | 0.25167    | 0.25167    |   0.0 |  4.71
Comm    | 0.0028732  | 0.0028732  | 0.0028732  |   0.0 |  0.05
Output  | 1.3113e-05 | 1.3113e-05 | 1.3113e-05 |   0.0 |  0.00
Modify  | 0.020903   | 0.020903   | 0.020903   |   0.0 |  0.39
Other   |            | 0.003884   |            |       |  0.07

Nlocal:    728 ave 728 max 728 min
Histogram: 1 0 0 0 0 0 0 0 0 0
Nghost:    0 ave 0 max 0 min
Histogram: 1 0 0 0 0 0 0 0 0 0
Neighs:    46109 ave 46109 max 46109 min
Histogram: 1 0 0 0 0 0 0 0 0 0

Total # of neighbors = 46109
Ave neighs/atom = 63.3365
Ave special neighs/atom = 10.8434
Neighbor list builds = 173
Dangerous builds = 0
unfix pysimm_md
min_style cg
minimize 0.001 0.001 10000 100000
WARNING: Using 'neigh_modify every 1 delay 0 check yes' setting during minimization (../min.cpp:190)
PPPM initialization ...
  using 12-bit tables for long-range coulomb (../kspace.cpp:332)
  G vector (1/distance) = 0.0725278
  grid = 16 16 16
  stencil order = 5
  estimated absolute RMS force accuracy = 0.0349892
  estimated relative force accuracy = 0.000105369
  using double precision KISS FFT
  3d grid and FFT values/proc = 9261 4096
Per MPI rank memory allocation (min/avg/max) = 15.56 | 15.56 | 15.56 Mbytes
Step Temp E_pair E_mol TotEng Press 
    2000    1448.3229   -24.232758     2726.078    5840.4317     -1.86252 
    2055    1448.3229   -106.87569    946.76025    3978.4711    6.4955758 
Loop time of 0.433714 on 1 procs for 55 steps with 728 atoms

100.3% CPU use with 1 MPI tasks x no OpenMP threads

Minimization stats:
  Stopping criterion = linesearch alpha is zero
  Energy initial, next-to-last, final = 
         2701.84520646      839.884560071      839.884560071
  Force two-norm initial, final = 1417.76 79.3266
  Force max component initial, final = 163.392 13.4595
  Final line search alpha, max atom move = 1.66758e-12 2.24448e-11
  Iterations, force evaluations = 55 169

MPI task timing breakdown:
Section |  min time  |  avg time  |  max time  |%varavg| %total
---------------------------------------------------------------
Pair    | 0.21716    | 0.21716    | 0.21716    |   0.0 | 50.07
Bond    | 0.04172    | 0.04172    | 0.04172    |   0.0 |  9.62
Kspace  | 0.16919    | 0.16919    | 0.16919    |   0.0 | 39.01
Neigh   | 0.0036519  | 0.0036519  | 0.0036519  |   0.0 |  0.84
Comm    | 5.8651e-05 | 5.8651e-05 | 5.8651e-05 |   0.0 |  0.01
Output  | 0          | 0          | 0          |   0.0 |  0.00
Modify  | 0          | 0          | 0          |   0.0 |  0.00
Other   |            | 0.001938   |            |       |  0.45

Nlocal:    728 ave 728 max 728 min
Histogram: 1 0 0 0 0 0 0 0 0 0
Nghost:    0 ave 0 max 0 min
Histogram: 1 0 0 0 0 0 0 0 0 0
Neighs:    46060 ave 46060 max 46060 min
Histogram: 1 0 0 0 0 0 0 0 0 0

Total # of neighbors = 46060
Ave neighs/atom = 63.2692
Ave special neighs/atom = 10.8434
Neighbor list builds = 3
Dangerous builds = 0
write_dump all custom pysimm.dump.tmp id q x y z vx vy vz
quit


################################################################################
##################################    Init    ##################################
################################################################################
units           real
atom_style      full
pair_style      lj/cut/coul/long 12.0  12.0
kspace_style    pppm 1e-4
bond_style      harmonic
angle_style     harmonic
dihedral_style  fourier
improper_style  cvff
special_bonds   amber
pair_modify     mix arithmetic
read_data       temp.lmps
  orthogonal box = (-136.499 -136.499 -136.499) to (136.499 136.499 136.499)
  1 by 1 by 1 MPI processor grid
  reading atoms ...
  780 atoms
  reading velocities ...
  780 velocities
  scanning bonds ...
  3 = max bonds/atom
  scanning angles ...
  6 = max angles/atom
  scanning dihedrals ...
  10 = max dihedrals/atom
  scanning impropers ...
  2 = max impropers/atom
  reading bonds ...
  854 bonds
  reading angles ...
  1481 angles
  reading dihedrals ...
  2180 dihedrals
  reading impropers ...
  240 impropers
  4 = max # of 1-2 neighbors
  7 = max # of 1-3 neighbors
  20 = max # of 1-4 neighbors
  22 = max # of special neighbors
  special bonds CPU = 0.00147104 secs
  read_data CPU = 0.0153441 secs
################################################################################

timestep        1
fix             pysimm_md all nve/limit 0.1
run             2000
PPPM initialization ...
WARNING: System is not charge neutral, net charge = -4.5e-05 (../kspace.cpp:313)
  using 12-bit tables for long-range coulomb (../kspace.cpp:332)
  G vector (1/distance) = 0.0710863
  grid = 16 16 16
  stencil order = 5
  estimated absolute RMS force accuracy = 0.0359525
  estimated relative force accuracy = 0.00010827
  using double precision KISS FFT
  3d grid and FFT values/proc = 9261 4096
Neighbor list info ...
  update every 1 steps, delay 10 steps, check yes
  max neighbors/atom: 2000, page size: 100000
  master list distance cutoff = 14
[...]
  using double precision KISS FFT
  3d grid and FFT values/proc = 24389 13824
Per MPI rank memory allocation (min/avg/max) = 18.18 | 18.18 | 18.18 Mbytes
Step Temp E_pair E_mol TotEng Press 
    2000    531.32022     121.7975    6157.9427    10148.877  -0.43607907 
    2049    531.32022    43.567534    4161.3031    8074.0077    2.2256744 
Loop time of 0.90316 on 1 procs for 49 steps with 2444 atoms

100.1% CPU use with 1 MPI tasks x no OpenMP threads

Minimization stats:
  Stopping criterion = energy tolerance
  Energy initial, next-to-last, final = 
         6279.74015677      4208.01917413      4204.87060206
  Force two-norm initial, final = 1485.63 135.951
  Force max component initial, final = 151.644 82.7068
  Final line search alpha, max atom move = 0.00251635 0.208119
  Iterations, force evaluations = 49 98

MPI task timing breakdown:
Section |  min time  |  avg time  |  max time  |%varavg| %total
---------------------------------------------------------------
Pair    | 0.44398    | 0.44398    | 0.44398    |   0.0 | 49.16
Bond    | 0.081404   | 0.081404   | 0.081404   |   0.0 |  9.01
Kspace  | 0.36512    | 0.36512    | 0.36512    |   0.0 | 40.43
Neigh   | 0.0083101  | 0.0083101  | 0.0083101  |   0.0 |  0.92
Comm    | 7.9155e-05 | 7.9155e-05 | 7.9155e-05 |   0.0 |  0.01
Output  | 0          | 0          | 0          |   0.0 |  0.00
Modify  | 0          | 0          | 0          |   0.0 |  0.00
Other   |            | 0.004274   |            |       |  0.47

Nlocal:    2444 ave 2444 max 2444 min
Histogram: 1 0 0 0 0 0 0 0 0 0
Nghost:    0 ave 0 max 0 min
Histogram: 1 0 0 0 0 0 0 0 0 0
Neighs:    164080 ave 164080 max 164080 min
Histogram: 1 0 0 0 0 0 0 0 0 0

Total # of neighbors = 164080
Ave neighs/atom = 67.1358
Ave special neighs/atom = 10.8723
Neighbor list builds = 2
Dangerous builds = 0
write_dump all custom pysimm.dump.tmp id q x y z vx vy vz
quit


################################################################################
##################################    Init    ##################################
################################################################################
units           real
atom_style      full
pair_style      lj/cut/coul/long 12.0  12.0
kspace_style    pppm 1e-4
bond_style      harmonic
angle_style     harmonic
dihedral_style  fourier
improper_style  cvff
special_bonds   amber
pair_modify     mix arithmetic
read_data       temp.lmps
  orthogonal box = (-204.387 -204.387 -204.387) to (204.387 204.387 204.387)
  1 by 1 by 1 MPI processor grid
  reading atoms ...
  2496 atoms
  reading velocities ...
  2496 velocities
  scanning bonds ...
  3 = max bonds/atom
  scanning angles ...
  6 = max angles/atom
  scanning dihedrals ...
  10 = max dihedrals/atom
  scanning impropers ...
  2 = max impropers/atom
  reading bonds ...
  2735 bonds
  reading angles ...
  4748 angles
  reading dihedrals ...
  6998 dihedrals
  reading impropers ...
  768 impropers
  4 = max # of 1-2 neighbors
  7 = max # of 1-3 neighbors
  20 = max # of 1-4 neighbors
  22 = max # of special neighbors
  special bonds CPU = 0.00192904 secs
  read_data CPU = 0.028924 secs
################################################################################

timestep        1
fix             pysimm_md all nve/limit 0.1
run             2000
PPPM initialization ...
WARNING: System is not charge neutral, net charge = -0.000144 (../kspace.cpp:313)
  using 12-bit tables for long-range coulomb (../kspace.cpp:332)
  G vector (1/distance) = 0.071188
  grid = 24 24 24
  stencil order = 5
  estimated absolute RMS force accuracy = 0.0350261
  estimated relative force accuracy = 0.00010548
  using double precision KISS FFT
  3d grid and FFT values/proc = 24389 13824
Neighbor list info ...
  update every 1 steps, delay 10 steps, check yes
  max neighbors/atom: 2000, page size: 100000
  master list distance cutoff = 14
  ghost atom cutoff = 14
  binsize = 7, bins = 59 59 59
  1 neighbor lists, perpetual/occasional/extra = 1 0 0
  (1) pair lj/cut/coul/long, perpetual
      attributes: half, newton on
      pair build: half/bin/newton
      stencil: half/bin/3d/newton
      bin: standard
Per MPI rank memory allocation (min/avg/max) = 17.11 | 17.11 | 17.11 Mbytes
Step Temp E_pair E_mol TotEng Press 
       0    520.27762     61607659    439860.03     62051388    247096.53 
    2000    641.97752    181.72723    6817.4801    11773.672   0.27256433 
Loop time of 16.6347 on 1 procs for 2000 steps with 2496 atoms

Performance: 10.388 ns/day, 2.310 hours/ns, 120.231 timesteps/s
100.1% CPU use with 1 MPI tasks x no OpenMP threads

MPI task timing breakdown:
Section |  min time  |  avg time  |  max time  |%varavg| %total
---------------------------------------------------------------
Pair    | 6.7192     | 6.7192     | 6.7192     |   0.0 | 40.39
Bond    | 1.5739     | 1.5739     | 1.5739     |   0.0 |  9.46
Kspace  | 7.4087     | 7.4087     | 7.4087     |   0.0 | 44.54
Neigh   | 0.86188    | 0.86188    | 0.86188    |   0.0 |  5.18
Comm    | 0.0064595  | 0.0064595  | 0.0064595  |   0.0 |  0.04
Output  | 2.0981e-05 | 2.0981e-05 | 2.0981e-05 |   0.0 |  0.00
Modify  | 0.055747   | 0.055747   | 0.055747   |   0.0 |  0.34
Other   |            | 0.008818   |            |       |  0.05

Nlocal:    2496 ave 2496 max 2496 min
Histogram: 1 0 0 0 0 0 0 0 0 0
Nghost:    0 ave 0 max 0 min
Histogram: 1 0 0 0 0 0 0 0 0 0
Neighs:    201908 ave 201908 max 201908 min
Histogram: 1 0 0 0 0 0 0 0 0 0

Total # of neighbors = 201908
Ave neighs/atom = 80.8926
Ave special neighs/atom = 10.8726
Neighbor list builds = 174
Dangerous builds = 0
unfix pysimm_md
min_style cg
minimize 0.001 0.001 10000 100000
WARNING: Using 'neigh_modify every 1 delay 0 check yes' setting during minimization (../min.cpp:190)
PPPM initialization ...
  using 12-bit tables for long-range coulomb (../kspace.cpp:332)
  G vector (1/distance) = 0.071188
  grid = 24 24 24
  stencil order = 5
  estimated absolute RMS force accuracy = 0.0350261
  estimated relative force accuracy = 0.00010548
  using double precision KISS FFT
  3d grid and FFT values/proc = 24389 13824
Per MPI rank memory allocation (min/avg/max) = 18.61 | 18.61 | 18.61 Mbytes
Step Temp E_pair E_mol TotEng Press 
    2000    641.97752    181.72723    6817.4801    11773.672   0.27256433 
    2024    641.97752    39.059777    4759.1058    9572.6302    2.7397196 
Loop time of 0.464003 on 1 procs for 24 steps with 2496 atoms

100.0% CPU use with 1 MPI tasks x no OpenMP threads

Minimization stats:
  Stopping criterion = energy tolerance
  Energy initial, next-to-last, final = 
         6999.20737331      4802.21288046      4798.16561862
  Force two-norm initial, final = 1767.4 201.112
  Force max component initial, final = 174.482 47.7711
  Final line search alpha, max atom move = 0.00201115 0.0960746
  Iterations, force evaluations = 24 46

MPI task timing breakdown:
Section |  min time  |  avg time  |  max time  |%varavg| %total
---------------------------------------------------------------
Pair    | 0.25097    | 0.25097    | 0.25097    |   0.0 | 54.09
Bond    | 0.03952    | 0.03952    | 0.03952    |   0.0 |  8.52
Kspace  | 0.17143    | 0.17143    | 0.17143    |   0.0 | 36.95
Neigh   | 0          | 0          | 0          |   0.0 |  0.00
Comm    | 1.5259e-05 | 1.5259e-05 | 1.5259e-05 |   0.0 |  0.00
Output  | 0          | 0          | 0          |   0.0 |  0.00
Modify  | 0          | 0          | 0          |   0.0 |  0.00
Other   |            | 0.002069   |            |       |  0.45

Nlocal:    2496 ave 2496 max 2496 min
Histogram: 1 0 0 0 0 0 0 0 0 0
Nghost:    0 ave 0 max 0 min
Histogram: 1 0 0 0 0 0 0 0 0 0
Neighs:    202055 ave 202055 max 202055 min
Histogram: 1 0 0 0 0 0 0 0 0 0

Total # of neighbors = 202055
Ave neighs/atom = 80.9515
Ave special neighs/atom = 10.8726
Neighbor list builds = 0
Dangerous builds = 0
write_dump all custom pysimm.dump.tmp id q x y z vx vy vz
quit


################################################################################
##################################    Init    ##################################
################################################################################
units           real
atom_style      full
pair_style      lj/cut/coul/long 12.0  12.0
kspace_style    pppm 1e-4
bond_style      harmonic
angle_style     harmonic
dihedral_style  fourier
improper_style  cvff
special_bonds   amber
pair_modify     mix arithmetic
read_data       temp.lmps
  orthogonal box = (-205.827 -205.827 -205.827) to (205.827 205.827 205.827)
  1 by 1 by 1 MPI processor grid
  reading atoms ...
  2548 atoms
  reading velocities ...
  2548 velocities
  scanning bonds ...
  3 = max bonds/atom
  scanning angles ...
  6 = max angles/atom
  scanning dihedrals ...
  10 = max dihedrals/atom
  scanning impropers ...
  2 = max impropers/atom
  reading bonds ...
  2792 bonds
  reading angles ...
  4847 angles
  reading dihedrals ...
  7144 dihedrals
  reading impropers ...
  784 impropers
  4 = max # of 1-2 neighbors
  7 = max # of 1-3 neighbors
  20 = max # of 1-4 neighbors
  22 = max # of special neighbors
  special bonds CPU = 0.00387716 secs
  read_data CPU = 0.0384381 secs
################################################################################

timestep        1
fix             pysimm_md all nve/limit 0.1
run             2000
PPPM initialization ...
WARNING: System is not charge neutral, net charge = -0.000147 (../kspace.cpp:313)
  using 12-bit tables for long-range coulomb (../kspace.cpp:332)
  G vector (1/distance) = 0.0707822
  grid = 24 24 24
  stencil order = 5
  estimated absolute RMS force accuracy = 0.0353102
  estimated relative force accuracy = 0.000106336
  using double precision KISS FFT
  3d grid and FFT values/proc = 24389 13824
Neighbor list info ...
  update every 1 steps, delay 10 steps, check yes
  max neighbors/atom: 2000, page size: 100000
  master list distance cutoff = 14
  ghost atom cutoff = 14
  binsize = 7, bins = 59 59 59
  1 neighbor lists, perpetual/occasional/extra = 1 0 0
  (1) pair lj/cut/coul/long, perpetual
      attributes: half, newton on
      pair build: half/bin/newton
      stencil: half/bin/3d/newton
      bin: standard
Per MPI rank memory allocation (min/avg/max) = 17.49 | 17.49 | 17.49 Mbytes
Step Temp E_pair E_mol TotEng Press 
       0    628.90112    32.613407    298188.48    302995.79   -200.14553 
    2000    569.35549     133.4651    6894.4533    11350.535   0.82916966 
Loop time of 17.5948 on 1 procs for 2000 steps with 2548 atoms

Performance: 9.821 ns/day, 2.444 hours/ns, 113.670 timesteps/s
100.1% CPU use with 1 MPI tasks x no OpenMP threads

MPI task timing breakdown:
Section |  min time  |  avg time  |  max time  |%varavg| %total
---------------------------------------------------------------
Pair    | 7.304      | 7.304      | 7.304      |   0.0 | 41.51
Bond    | 1.6535     | 1.6535     | 1.6535     |   0.0 |  9.40
Kspace  | 7.639      | 7.639      | 7.639      |   0.0 | 43.42
Neigh   | 0.92481    | 0.92481    | 0.92481    |   0.0 |  5.26
Comm    | 0.0067637  | 0.0067637  | 0.0067637  |   0.0 |  0.04
Output  | 2.0981e-05 | 2.0981e-05 | 2.0981e-05 |   0.0 |  0.00
Modify  | 0.057432   | 0.057432   | 0.057432   |   0.0 |  0.33
Other   |            | 0.009341   |            |       |  0.05

Nlocal:    2548 ave 2548 max 2548 min
Histogram: 1 0 0 0 0 0 0 0 0 0
Nghost:    0 ave 0 max 0 min
Histogram: 1 0 0 0 0 0 0 0 0 0
Neighs:    188684 ave 188684 max 188684 min
Histogram: 1 0 0 0 0 0 0 0 0 0

Total # of neighbors = 188684
Ave neighs/atom = 74.0518
Ave special neighs/atom = 10.8728
Neighbor list builds = 172
Dangerous builds = 0
unfix pysimm_md
min_style cg
minimize 0.001 0.001 10000 100000
WARNING: Using 'neigh_modify every 1 delay 0 check yes' setting during minimization (../min.cpp:190)
PPPM initialization ...
  using 12-bit tables for long-range coulomb (../kspace.cpp:332)
  G vector (1/distance) = 0.0707822
  grid = 24 24 24
  stencil order = 5
  estimated absolute RMS force accuracy = 0.0353102
  estimated relative force accuracy = 0.000106336
  using double precision KISS FFT
  3d grid and FFT values/proc = 24389 13824
Per MPI rank memory allocation (min/avg/max) = 18.62 | 18.62 | 18.62 Mbytes
Step Temp E_pair E_mol TotEng Press 
    2000    569.35549     133.4651    6894.4533    11350.535   0.82916966 
    2034    569.35549    18.363121     4617.649    8958.6291    2.3702544 
Loop time of 0.652969 on 1 procs for 34 steps with 2548 atoms

99.8% CPU use with 1 MPI tasks x no OpenMP threads

Minimization stats:
  Stopping criterion = energy tolerance
  Energy initial, next-to-last, final = 
         7027.91844721      4638.15778899      4636.01209413
  Force two-norm initial, final = 1807.33 159.267
  Force max component initial, final = 200.248 17.1293
  Final line search alpha, max atom move = 0.0029647 0.0507832
  Iterations, force evaluations = 34 66

MPI task timing breakdown:
Section |  min time  |  avg time  |  max time  |%varavg| %total
---------------------------------------------------------------
Pair    | 0.3372     | 0.3372     | 0.3372     |   0.0 | 51.64
Bond    | 0.05763    | 0.05763    | 0.05763    |   0.0 |  8.83
Kspace  | 0.25019    | 0.25019    | 0.25019    |   0.0 | 38.32
Neigh   | 0.004858   | 0.004858   | 0.004858   |   0.0 |  0.74
Comm    | 4.7684e-05 | 4.7684e-05 | 4.7684e-05 |   0.0 |  0.01
Output  | 0          | 0          | 0          |   0.0 |  0.00
Modify  | 0          | 0          | 0          |   0.0 |  0.00
Other   |            | 0.003045   |            |       |  0.47

Nlocal:    2548 ave 2548 max 2548 min
Histogram: 1 0 0 0 0 0 0 0 0 0
Nghost:    0 ave 0 max 0 min
Histogram: 1 0 0 0 0 0 0 0 0 0
Neighs:    188699 ave 188699 max 188699 min
Histogram: 1 0 0 0 0 0 0 0 0 0

Total # of neighbors = 188699
Ave neighs/atom = 74.0577
Ave special neighs/atom = 10.8728
Neighbor list builds = 1
Dangerous builds = 0
write_dump all custom pysimm.dump.tmp id q x y z vx vy vz
quit


################################################################################
##################################    Init    ##################################
################################################################################
units           real
atom_style      full
pair_style      lj/cut/coul/long 12.0  12.0
kspace_style    pppm 1e-4
bond_style      harmonic
angle_style     harmonic
dihedral_style  fourier
improper_style  cvff
special_bonds   amber
pair_modify     mix arithmetic
read_data       temp.lmps
  orthogonal box = (-207.246 -207.246 -207.246) to (207.246 207.246 207.246)
  1 by 1 by 1 MPI processor grid
  reading atoms ...
  2600 atoms
  reading velocities ...
  2600 velocities
  scanning bonds ...
  3 = max bonds/atom
  scanning angles ...
  6 = max angles/atom
  scanning dihedrals ...
  10 = max dihedrals/atom
  scanning impropers ...
  2 = max impropers/atom
  reading bonds ...
  2849 bonds
  reading angles ...
  4946 angles
  reading dihedrals ...
  7290 dihedrals
  reading impropers ...
  800 impropers
  4 = max # of 1-2 neighbors
  7 = max # of 1-3 neighbors
  20 = max # of 1-4 neighbors
  22 = max # of special neighbors
  special bonds CPU = 0.00398803 secs
  read_data CPU = 0.040195 secs
################################################################################

timestep        1
fix             pysimm_md all nve/limit 0.1
run             2000
PPPM initialization ...
WARNING: System is not charge neutral, net charge = -0.00015 (../kspace.cpp:313)
  using 12-bit tables for long-range coulomb (../kspace.cpp:332)
  G vector (1/distance) = 0.0703864
  grid = 24 24 24
  stencil order = 5
  estimated absolute RMS force accuracy = 0.0355881
  estimated relative force accuracy = 0.000107172
  using double precision KISS FFT
  3d grid and FFT values/proc = 24389 13824
Neighbor list info ...
  update every 1 steps, delay 10 steps, check yes
  max neighbors/atom: 2000, page size: 100000
  master list distance cutoff = 14
  ghost atom cutoff = 14
  binsize = 7, bins = 60 60 60
  1 neighbor lists, perpetual/occasional/extra = 1 0 0
  (1) pair lj/cut/coul/long, perpetual
      attributes: half, newton on
      pair build: half/bin/newton
      stencil: half/bin/3d/newton
      bin: standard
Per MPI rank memory allocation (min/avg/max) = 17.17 | 17.17 | 17.17 Mbytes
Step Temp E_pair E_mol TotEng Press 
       0    557.99372    12.292782     187882.2    192217.34    -123.4498 
    2000    431.42734    123.05674    6610.1054    10075.484      0.29559 
Loop time of 18.2 on 1 procs for 2000 steps with 2600 atoms

Performance: 9.494 ns/day, 2.528 hours/ns, 109.890 timesteps/s
100.1% CPU use with 1 MPI tasks x no OpenMP threads

MPI task timing breakdown:
Section |  min time  |  avg time  |  max time  |%varavg| %total
---------------------------------------------------------------
Pair    | 7.7646     | 7.7646     | 7.7646     |   0.0 | 42.66
Bond    | 1.6945     | 1.6945     | 1.6945     |   0.0 |  9.31
Kspace  | 7.742      | 7.742      | 7.742      |   0.0 | 42.54
Neigh   | 0.92336    | 0.92336    | 0.92336    |   0.0 |  5.07
Comm    | 0.0066175  | 0.0066175  | 0.0066175  |   0.0 |  0.04
Output  | 2.0981e-05 | 2.0981e-05 | 2.0981e-05 |   0.0 |  0.00
Modify  | 0.058861   | 0.058861   | 0.058861   |   0.0 |  0.32
Other   |            | 0.01004    |            |       |  0.06

Nlocal:    2600 ave 2600 max 2600 min
Histogram: 1 0 0 0 0 0 0 0 0 0
Nghost:    0 ave 0 max 0 min
Histogram: 1 0 0 0 0 0 0 0 0 0
Neighs:    213535 ave 213535 max 213535 min
Histogram: 1 0 0 0 0 0 0 0 0 0

Total # of neighbors = 213535
Ave neighs/atom = 82.1288
Ave special neighs/atom = 10.8731
Neighbor list builds = 163
Dangerous builds = 0
unfix pysimm_md
min_style cg
minimize 0.001 0.001 10000 100000
WARNING: Using 'neigh_modify every 1 delay 0 check yes' setting during minimization (../min.cpp:190)
PPPM initialization ...
  using 12-bit tables for long-range coulomb (../kspace.cpp:332)
  G vector (1/distance) = 0.0703864
  grid = 24 24 24
  stencil order = 5
  estimated absolute RMS force accuracy = 0.0355881
  estimated relative force accuracy = 0.000107172
  using double precision KISS FFT
  3d grid and FFT values/proc = 24389 13824
Per MPI rank memory allocation (min/avg/max) = 18.67 | 18.67 | 18.67 Mbytes
Step Temp E_pair E_mol TotEng Press 
    2000    431.42734    123.05674    6610.1054    10075.484      0.29559 
    2033    431.42734   -45.729166    4505.7177    7802.3101    1.9665931 
Loop time of 0.682226 on 1 procs for 33 steps with 2600 atoms

100.1% CPU use with 1 MPI tasks x no OpenMP threads

Minimization stats:
  Stopping criterion = energy tolerance
  Energy initial, next-to-last, final = 
         6733.16213253      4463.11782911      4459.98848465
  Force two-norm initial, final = 1752.24 140.345
  Force max component initial, final = 158.766 59.9271
  Final line search alpha, max atom move = 0.00222007 0.133042
  Iterations, force evaluations = 33 64

MPI task timing breakdown:
Section |  min time  |  avg time  |  max time  |%varavg| %total
---------------------------------------------------------------
Pair    | 0.37556    | 0.37556    | 0.37556    |   0.0 | 55.05
Bond    | 0.057195   | 0.057195   | 0.057195   |   0.0 |  8.38
Kspace  | 0.24092    | 0.24092    | 0.24092    |   0.0 | 35.31
Neigh   | 0.0054672  | 0.0054672  | 0.0054672  |   0.0 |  0.80
Comm    | 4.8876e-05 | 4.8876e-05 | 4.8876e-05 |   0.0 |  0.01
Output  | 0          | 0          | 0          |   0.0 |  0.00
Modify  | 0          | 0          | 0          |   0.0 |  0.00
Other   |            | 0.003029   |            |       |  0.44

Nlocal:    2600 ave 2600 max 2600 min
Histogram: 1 0 0 0 0 0 0 0 0 0
Nghost:    0 ave 0 max 0 min
Histogram: 1 0 0 0 0 0 0 0 0 0
Neighs:    213542 ave 213542 max 213542 min
Histogram: 1 0 0 0 0 0 0 0 0 0

Total # of neighbors = 213542
Ave neighs/atom = 82.1315
Ave special neighs/atom = 10.8731
Neighbor list builds = 1
Dangerous builds = 0
write_dump all custom pysimm.dump.tmp id q x y z vx vy vz
quit
