61
	Energy:     128.3308177
N         -6.86973        1.02518       -0.15454
C         -5.94405        1.96022       -0.50028
C         -4.63768        1.37691       -0.19156
C         -6.29955       -0.08864        0.38107
C         -4.85536        0.14828        0.38697
H         -7.86395        1.16327       -0.24414
O         -6.12808        3.07382       -0.94387
O         -6.84961       -1.09337        0.78510
C         -3.36479        1.89936       -0.35641
C         -3.81214       -0.58436        0.90526
C         -2.51751       -0.03299        0.81927
C         -2.23795        1.17654        0.11832
H         -3.31189        2.88536       -0.80800
H         -3.99417       -1.53354        1.40148
H         -1.73074       -0.57546        1.34286
C         -0.77881        1.79971        0.01698
C         -0.68679        2.83310       -1.12882
F         -1.02273        2.25682       -2.31206
F          0.54477        3.35900       -1.30230
F         -1.50411        3.89633       -0.96269
C         -0.60445        2.64174        1.29371
F         -1.64116        3.48530        1.50770
F          0.51362        3.39851        1.29328
F         -0.53087        1.84186        2.39050
C          0.44602        0.79409       -0.11488
C          1.77306        1.30477       -0.10552
C          2.85530        0.43796       -0.08168
C          0.33117       -0.61599       -0.22008
C          1.44200       -1.47503       -0.06770
C          2.69451       -0.90856        0.04267
C          4.01682       -1.47264        0.30877
N          4.94972       -0.46997        0.10673
C          4.28401        0.69844       -0.20154
C          6.38906       -0.61306        0.19000
C          7.22330        0.47386        0.62683
C          8.63775        0.34935        0.59748
C          7.03542       -1.84406       -0.16512
C          8.43163       -2.00515        0.03744
C          9.21180       -0.89759        0.36246
C          6.68683        1.77602        1.18171
C          9.58953        1.48708        0.87680
H          1.32000       -2.55500       -0.05193
H         -0.62355       -1.10324       -0.40056
H          2.00754        2.36772       -0.09888
O          4.66196        1.77041       -0.63937
O          4.11027       -2.60589        0.74597
C          6.32100       -3.00338       -0.82387
H          5.43945       -2.68547       -1.38485
H          6.05919       -3.76349       -0.08156
H          6.95879       -3.47342       -1.58111
H         10.29402       -1.00805        0.43000
C          9.16342       -3.31147       -0.14864
H          5.70121        1.66167        1.63781
H          6.67188        2.54493        0.40269
H          7.31511        2.14111        2.00195
H          9.13265        2.46860        0.72482
H         10.43780        1.44258        0.18278
H          9.96854        1.42091        1.90094
H          8.50119       -4.17946       -0.09572
H          9.89721       -3.44442        0.65569
H          9.68771       -3.31740       -1.10889
