pySIMM System Object

2021 atoms
2145 bonds
3751 angles
5555 dihedrals
559 impropers

13 atom types
16 bond types
30 angle types
15 dihedral types
4 improper types

-162.466686 162.466686 xlo xhi
-162.466686 162.466686 ylo yhi
-162.466686 162.466686 zlo zhi

Masses

   1	14.01	# n
   2	12.01	# c
   3	12.01	# ca
   4	1.008	# hn
   5	16.0	# o
   6	1.008	# ha
   7	12.01	# c3
   8	19.0	# f
   9	16.0	# os
  10	1.008	# h1
  11	1.008	# hc
  12	16.0	# oh
  13	1.008	# ho

Pair Coeffs

   1	0.17	3.249998523775958	# n
   2	0.086	3.3996695084235347	# c
   3	0.086	3.3996695084235347	# ca
   4	0.0157	1.069078461768407	# hn
   5	0.21	2.959921901149463	# o
   6	0.015	2.59964245953351	# ha
   7	0.1094	3.3996695084235347	# c3
   8	0.061	3.1181455134911875	# f
   9	0.17	3.0000123434657784	# os
  10	0.0157	2.471353044121301	# h1
  11	0.0157	2.649532787749369	# hc
  12	0.2104	3.0664733878390478	# oh
  13	0.0047	0.5379246460131368	# ho

Bond Coeffs

   1	345.8	1.086	# ca,ha
   2	637.7	1.2183	# c,o
   3	427.6	1.3789	# c,n
   4	321.0	1.5156	# c3,ca
   5	300.9	1.5375	# c3,c3
   6	384.2	1.4121	# ca,n
   7	330.6	1.0969	# c3,h1
   8	330.6	1.0969	# c3,hc
   9	316.7	1.4233	# c3,oh
  10	403.2	1.0129	# hn,n
  11	356.9	1.3497	# c3,f
  12	371.4	0.973	# ho,oh
  13	308.6	1.4316	# c3,os
  14	461.1	1.3984	# ca,ca
  15	345.9	1.4906	# c,ca
  16	390.8	1.3584	# c,os

Angle Coeffs

   1	39.4	107.58	# hc,c3,hc
   2	63.53	120.77	# c3,ca,ca
   3	70.89	107.36	# f,c3,f
   4	67.87	120.19	# ca,ca,n
   5	68.0	107.97	# c3,c3,os
   6	66.11	109.24	# c3,c3,f
   7	46.39	109.56	# c3,c3,h1
   8	62.86	111.51	# c3,c3,c3
   9	75.32	123.25	# o,c,os
  10	63.15	112.07	# c3,c3,ca
  11	63.82	123.71	# c,n,ca
  12	63.56	112.24	# ca,c3,ca
  13	46.34	109.8	# c3,c3,hc
  14	67.47	110.19	# c3,c3,oh
  15	47.38	107.26	# c3,oh,ho
  16	39.24	108.46	# h1,c3,h1
  17	69.32	112.44	# ca,c,os
  18	63.74	127.08	# c,n,c
  19	48.18	119.88	# ca,ca,ha
  20	50.93	110.26	# h1,c3,oh
  21	74.22	123.05	# n,c,o
  22	50.8	109.78	# h1,c3,os
  23	63.28	115.98	# c,os,c3
  24	48.33	117.55	# c,n,hn
  25	66.62	120.02	# ca,ca,ca
  26	68.72	122.6	# ca,c,o
  27	67.68	115.25	# ca,c,n
  28	64.28	120.33	# c,ca,ca
  29	46.8	110.47	# ca,c3,hc
  30	49.75	116.02	# ha,ca,n

Dihedral Coeffs

   1	2	0.0	3	0	0.25	1	0	# hc,c3,c3,os
   2	2	2.5	2	180	2.0	1	0	# hn,n,c,o
   3	1	3.625	2	180	# X,ca,ca,X
   4	2	0.0	3	0	0.25	1	0	# hc,c3,c3,oh
   5	1	0.15555555555555556	3	0	# X,c3,c3,X
   6	2	2.7	2	180	1.4	1	180	# o,c,os,c3
   7	1	1.0	2	180	# X,c,ca,X
   8	1	0.0	2	0	# X,c3,ca,X
   9	2	0.16	3	0	0.25	1	0	# ho,oh,c3,c3
  10	2	0.383	3	0	0.8	1	180	# c3,c3,os,c
  11	1	2.5	2	180	# X,c,n,X
  12	1	0.45	2	180	# X,ca,n,X
  13	1	2.7	2	180	# X,c,os,X
  14	1	0.3833333333333333	3	0	# X,c3,os,X
  15	1	0.16666666666666666	3	0	# X,c3,oh,X

Improper Coeffs

   1	1.1	-1	2	# ca,X,X,ha
   2	1.1	-1	2	# n,X,X,hn
   3	1.1	-1	2	# ca,ca,ca,c3
   4	10.5	-1	2	# c,X,X,o

Atoms

   1	1	1	0.478781	67.6458	18.5285	-38.7136
   2	1	2	0.051808	68.5774	19.5686	-38.6714
   3	1	3	-0.015342	69.5407	19.1932	-37.6077
   4	1	2	0.052802	67.8837	17.5816	-37.7044
   5	1	3	0.058525	69.1305	18.0131	-37.0285
   6	1	5	-0.381395	68.6993	20.5211	-39.4227
   7	1	5	-0.387279	67.2495	16.5733	-37.4453
   8	1	3	-0.003007	70.7282	19.8167	-37.218
   9	1	3	-0.04277	69.8725	17.3701	-36.0353
  10	1	3	-0.203298	71.0982	17.9607	-35.6615
  11	1	3	-0.057014	71.5481	19.1808	-36.245
  12	1	6	0.158736	71.0099	20.7487	-37.709
  13	1	6	0.155574	69.5452	16.4201	-35.6206
  14	1	6	0.172835	71.6954	17.4635	-34.8982
  15	1	7	-0.114348	72.834	19.8482	-35.6889
  16	1	7	0.394993	72.4075	20.4968	-34.3252
  17	1	8	-0.128918	71.3135	21.2721	-34.4742
  18	1	8	-0.12014	73.3794	21.2372	-33.7588
  19	1	8	-0.128671	72.0455	19.5753	-33.4226
  20	1	7	0.329225	73.4463	20.9998	-36.5773
  21	1	8	-0.1084	72.7068	22.1256	-36.5366
  22	1	8	-0.10772	74.689	21.3406	-36.1746
  23	1	8	-0.098105	73.5677	20.6335	-37.8735
  24	1	3	-0.04356	73.9158	18.7319	-35.6003
  25	1	3	-0.061005	74.5587	18.3773	-34.3828
  26	1	3	-0.036586	75.4972	17.3418	-34.3903
  27	1	3	-0.073054	74.246	17.9979	-36.7754
  28	1	3	-0.129461	75.2388	17.0008	-36.7687
  29	1	3	-0.055433	75.8637	16.7123	-35.5571
  30	1	2	0.497443	76.948	15.7408	-35.2431
  31	1	1	-0.091283	77.0939	15.7658	-33.8693
  32	1	2	0.442461	76.2763	16.7227	-33.2853
  33	1	3	0.056821	78.0118	14.9479	-33.1539
  34	1	3	-0.175202	77.9904	13.5416	-33.2748
  35	1	3	-0.086463	78.8741	12.7358	-32.5208
  36	1	3	-0.120823	78.9643	15.5584	-32.3304
  37	1	3	-0.147764	79.8533	14.7593	-31.5986
  38	1	3	-0.091348	79.8024	13.3595	-31.6746
  39	1	2	0.723311	78.8392	11.2348	-32.5904
  40	1	6	0.16273	75.5038	16.4538	-37.6673
  41	1	6	0.144736	73.733	18.2155	-37.7123
  42	1	6	0.138526	74.3532	18.8767	-33.4405
  43	1	5	-0.452878	76.2149	17.0429	-32.1143
  44	1	5	-0.478383	77.6216	15.1255	-36.0445
  45	1	6	0.14723	80.5846	15.2352	-30.955
  46	1	6	0.161782	77.2716	13.0743	-33.944
  47	1	6	0.150279	79.0062	16.6414	-32.246
  48	1	6	0.142321	80.4877	12.75	-31.0931
  49	1	5	-0.564646	79.4918	10.5042	-31.8622
  50	1	9	-0.344773	78.033	10.7616	-33.5766
  51	1	7	-0.038703	-147.652	-88.2379	125.483
  52	1	10	0.090446	-88.9134	21.5819	-155.121
  53	1	10	0.070639	23.7901	-40.2032	64.1759
  54	1	11	0.018298	-146.879	-88.9786	125.25
  55	1	11	0.032617	-147.591	-88.0193	126.555
  56	1	7	0.364059	-147.411	-86.954	124.673
  57	1	10	-0.049335	-147.454	-87.1867	123.601
  58	1	12	-0.72623	-146.136	-86.4065	124.99
  59	1	10	0.033772	-148.205	-86.2288	124.897
  60	1	13	0.432586	-145.972	-85.6836	124.36
  61	1	3	-0.024347	56.5296	16.2318	-47.0129
  62	1	3	-0.071478	57.4933	16.8472	-46.1717
  63	1	3	-0.180016	57.0288	17.649	-45.0858
  64	1	5	-0.370097	54.0367	15.4961	-48.6651
  65	1	3	0.010306	55.1716	16.4429	-46.7593
  66	1	3	-0.071748	55.6538	17.8496	-44.8484
  67	1	5	-0.403598	52.5303	18.0382	-45.1361
  68	1	3	0.055994	54.7373	17.2402	-45.7188
  69	1	2	0.021521	54.0065	16.1206	-47.6163
  70	1	1	0.466017	52.9216	16.8003	-47.0807
  71	1	2	0.096621	53.2652	17.4219	-45.8761
  72	1	3	-0.099438	60.2336	15.7709	-43.0684
  73	1	7	-0.089685	59.0043	16.8489	-46.5543
  74	1	3	-0.037281	59.8475	16.8212	-45.2732
  75	1	3	-0.08188	59.4765	15.9018	-44.253
  76	1	3	-0.106561	61.3728	16.5831	-42.9336
  77	1	3	-0.037628	61.0196	17.5857	-45.1195
  78	1	3	-0.12234	61.7615	17.44	-43.9414
  79	1	7	0.388954	59.4899	15.595	-47.392
  80	1	7	0.307788	59.2308	18.1469	-47.4002
  81	1	8	-0.129718	60.8464	15.4945	-47.4365
  82	1	8	-0.129089	59.0343	15.6095	-48.6673
  83	1	8	-0.119089	59.0981	14.411	-46.8508
  84	1	8	-0.103894	59.2312	19.2443	-46.6228
  85	1	8	-0.097852	58.2316	18.2989	-48.3158
  86	1	8	-0.104555	60.4021	18.1397	-48.0766
  87	1	2	0.521254	63.0605	18.045	-43.5606
  88	1	2	0.53569	62.3871	16.6338	-41.8537
  89	1	1	0.027822	63.359	17.5475	-42.2828
  90	1	5	-0.468874	63.7079	18.8034	-44.2644
  91	1	5	-0.477974	62.3058	16.0492	-40.7868
  92	1	3	-0.359831	64.5287	17.9148	-41.5207
  93	1	3	0.131035	65.7422	17.1809	-41.6417
  94	1	3	-0.120983	66.7878	17.4072	-40.7147
  95	1	3	0.127261	64.4114	18.9738	-40.5911
  96	1	3	-0.127195	65.4783	19.2273	-39.6763
  97	1	3	0.144798	66.6282	18.394	-39.7151
  98	1	7	-0.020676	63.1474	19.8491	-40.5811
  99	1	7	-0.019785	65.925	16.1167	-42.7215
 100	1	6	0.164889	56.7981	15.7011	-47.917
 101	1	6	0.175264	57.7421	18.1675	-44.453
 102	1	6	0.1582	55.2963	18.5322	-44.0762
 103	1	6	0.150763	59.9503	15.0687	-42.2836
 104	1	6	0.144868	58.5841	15.2859	-44.3699
 105	1	6	0.134072	61.3803	18.2509	-45.8952
 106	1	7	-0.300668	68.0452	16.5034	-40.7222
 107	1	7	-0.243237	65.3263	20.3118	-38.5809
 108	1	11	0.021835	62.7213	19.9923	-41.584
 109	1	11	0.012312	63.3518	20.8726	-40.2149
 110	1	11	0.041777	62.356	19.4278	-39.9551
 111	1	11	0.110598	65.9338	20.1282	-37.6911
 112	1	11	0.08293	65.6016	21.3043	-38.9696
 113	1	11	0.082252	64.2956	20.3739	-38.2039
 114	1	11	0.027698	65.0231	15.9364	-43.3159
 115	1	11	0.017051	66.1898	15.1397	-42.2917
 116	1	11	0.037874	66.7159	16.4096	-43.4182
 117	1	11	0.095908	68.9577	17.0605	-40.4924
 118	1	11	0.127068	68.2468	16.0455	-41.697
 119	1	11	0.099095	67.9486	15.6973	-39.9867
 120	1	1	0.478781	37.1267	14.9122	-48.071
 121	1	2	0.051808	37.8138	14.1184	-47.1487
 122	1	3	-0.015342	39.1725	14.7211	-47.0584
 123	1	2	0.052802	37.9253	15.9099	-48.6315
 124	1	3	0.058525	39.2225	15.7997	-47.9145
 125	1	5	-0.381395	37.3917	13.1913	-46.4732
 126	1	5	-0.387279	37.5883	16.8394	-49.3439
 127	1	3	-0.003007	40.2569	14.4056	-46.2202
 128	1	3	-0.04277	40.377	16.5901	-48.0212
 129	1	3	-0.203298	41.4978	16.2398	-47.2374
 130	1	3	-0.057014	41.4529	15.181	-46.2895
 131	1	6	0.158736	40.1324	13.5705	-45.5318
 132	1	6	0.155574	40.4156	17.4206	-48.7242
 133	1	6	0.172835	42.4212	16.8229	-47.357
 134	1	7	-0.114348	42.6717	15.011	-45.321
 135	1	7	0.394993	42.7127	16.3024	-44.4016
 136	1	8	-0.128918	43.493	16.1824	-43.2945
 137	1	8	-0.12014	41.4837	16.6428	-43.9682
 138	1	8	-0.128671	43.1527	17.4036	-45.0681
 139	1	7	0.329225	42.5489	13.7183	-44.4338
 140	1	8	-0.1084	43.6392	13.5251	-43.6669
 141	1	8	-0.10772	42.4402	12.6178	-45.207
 142	1	8	-0.098105	41.5239	13.7545	-43.5619
 143	1	3	-0.04356	43.9821	14.8506	-46.163
 144	1	3	-0.061005	45.2348	15.454	-45.8471
 145	1	3	-0.036586	46.3421	15.2774	-46.7226
 146	1	3	-0.073054	43.9494	14.0272	-47.3264
 147	1	3	-0.129461	45.0543	13.8293	-48.1677
 148	1	3	-0.055433	46.239	14.5073	-47.8661
 149	1	2	0.497443	47.5171	14.6092	-48.6241
 150	1	1	-0.091283	48.3073	15.5016	-47.8939
 151	1	2	0.442461	47.6915	15.9212	-46.6989
 152	1	3	0.056821	49.534	16.0583	-48.3703
 153	1	3	-0.175202	49.6753	16.5033	-49.6984
 154	1	3	-0.086463	50.8873	17.1034	-50.1369
 155	1	3	-0.120823	50.6053	16.2504	-47.472
 156	1	3	-0.147764	51.7042	17.0639	-47.8007
 157	1	3	-0.091348	51.8728	17.3925	-49.1672
 158	1	2	0.723311	51.0966	17.4479	-51.5871
 159	1	6	0.16273	44.9865	13.1918	-49.0525
 160	1	6	0.144736	43.0282	13.4945	-47.5753
 161	1	6	0.138526	45.3779	16.0877	-44.9692
 162	1	5	-0.452878	48.073	16.7656	-45.8992
 163	1	5	-0.478383	47.7876	14.0626	-49.6875
 164	1	6	0.14723	51.4663	18.0149	-47.3383
 165	1	6	0.161782	48.8551	16.3756	-50.4074
 166	1	6	0.150279	50.5089	15.8852	-46.4503
 167	1	6	0.142321	52.8093	17.8428	-49.4899
 168	1	5	-0.564646	50.2276	17.3145	-52.4321
 169	1	9	-0.344773	52.3119	17.9863	-51.8719
 170	1	7	-0.038703	45.2119	-85.5126	20.4307
 171	1	10	0.090446	30.7068	82.7683	-117.852
 172	1	10	0.070639	20.8729	-114.097	-70.077
 173	1	11	0.018298	44.7773	-86.4789	20.7154
 174	1	11	0.032617	44.4381	-84.9341	19.9109
 175	1	7	0.364059	45.6902	-84.7535	21.6801
 176	1	10	-0.049335	46.4472	-85.351	22.2009
 177	1	12	-0.72623	44.5951	-84.5071	22.5534
 178	1	10	0.033772	46.15	-83.8049	21.3738
 179	1	13	0.432586	44.3427	-85.3647	22.9381
 180	1	3	-0.024347	22.9998	16.0398	-48.5854
 181	1	3	-0.071478	24.2527	15.6224	-49.1512
 182	1	3	-0.180016	24.2287	14.5629	-50.103
 183	1	5	-0.370097	19.9853	16.366	-47.6308
 184	1	3	0.010306	21.8043	15.4048	-48.9665
 185	1	3	-0.071748	23.0162	13.9246	-50.4461
 186	1	5	-0.403598	20.0848	12.9409	-50.7599
 187	1	3	0.055994	21.8182	14.3585	-49.8645
 188	1	2	0.021521	20.3909	15.5794	-48.4752
 189	1	1	0.466017	19.6442	14.5918	-49.138
 190	1	2	0.096621	20.4331	13.8243	-49.9985
 191	1	3	-0.099438	28.0382	13.3437	-48.2218
 192	1	7	-0.089685	25.6043	16.3111	-48.7606
 193	1	3	-0.037281	26.8498	15.3805	-48.9457
 194	1	3	-0.08188	26.8414	14.0685	-48.3983
 195	1	3	-0.106561	29.2506	13.9474	-48.5786
 196	1	3	-0.037628	28.1002	15.9012	-49.3969
 197	1	3	-0.12234	29.2816	15.1713	-49.2075
 198	1	7	0.388954	25.6386	16.6462	-47.2126
 199	1	7	0.307788	25.6942	17.6113	-49.6513
 200	1	8	-0.129718	26.8825	16.8738	-46.7316
 201	1	8	-0.129089	25.1085	15.6218	-46.5012
 202	1	8	-0.119089	24.9164	17.7388	-46.9086
 203	1	8	-0.103894	25.9324	17.279	-50.9515
 204	1	8	-0.097852	24.5256	18.2785	-49.6685
 205	1	8	-0.104555	26.6059	18.5241	-49.2196
 206	1	2	0.521254	30.7182	15.5181	-49.4847
 207	1	2	0.53569	30.6534	13.5164	-48.3399
 208	1	1	0.027822	31.4676	14.5351	-48.8331
 209	1	5	-0.468874	31.1285	16.5014	-50.0871
 210	1	5	-0.477974	30.9965	12.515	-47.7421
 211	1	3	-0.359831	32.8989	14.6063	-48.6303
 212	1	3	0.131035	33.4286	15.2929	-47.5109
 213	1	3	-0.120983	34.8241	15.4622	-47.3692
 214	1	3	0.127261	33.7708	14.0284	-49.5734
 215	1	3	-0.127195	35.1813	14.07	-49.3596
 216	1	3	0.144798	35.7085	14.8077	-48.2657
 217	1	7	-0.020676	33.1756	13.4047	-50.8497
 218	1	7	-0.019785	32.5103	15.8908	-46.4448
 219	1	6	0.164889	22.934	16.8609	-47.8852
 220	1	6	0.175264	25.1462	14.2249	-50.5789
 221	1	6	0.1582	23.0008	13.0948	-51.148
 222	1	6	0.150763	28.0387	12.3778	-47.7268
 223	1	6	0.144868	25.9153	13.6434	-48.0121
 224	1	6	0.134072	28.2063	16.895	-49.8197
 225	1	7	-0.300668	35.3733	16.4118	-46.274
 226	1	7	-0.243237	36.1367	13.2889	-50.2929
 227	1	11	0.021835	33.2422	12.3167	-50.8189
 228	1	11	0.012312	33.728	13.748	-51.7354
 229	1	11	0.041777	32.1207	13.6578	-51.0422
 230	1	11	0.110598	35.6187	12.5871	-50.9574
 231	1	11	0.08293	36.7114	13.9767	-50.9398
 232	1	11	0.082252	36.8545	12.6985	-49.7169
 233	1	11	0.027698	32.8559	15.6152	-45.4358
 234	1	11	0.017051	31.4684	15.5569	-46.5155
 235	1	11	0.037874	32.5028	16.9884	-46.525
 236	1	11	0.095908	36.3651	16.8127	-46.5269
 237	1	11	0.127068	34.7384	17.288	-46.1026
 238	1	11	0.099095	35.4728	15.87	-45.317
 239	1	3	-0.024347	7.80455	11.4648	-42.297
 240	1	3	-0.071478	9.12382	11.4815	-42.8514
 241	1	3	-0.180016	9.76821	10.223	-43.0481
 242	1	5	-0.370097	4.92194	10.6783	-41.1723
 243	1	3	0.010306	7.19334	10.2377	-41.9874
 244	1	3	-0.071748	9.16555	9.00529	-42.6455
 245	1	5	-0.403598	7.37832	6.78299	-41.4336
 246	1	3	0.055994	7.87263	9.04633	-42.1207
 247	1	2	0.021521	5.87417	9.93388	-41.3327
 248	1	1	0.466017	5.90488	8.57295	-41.0628
 249	1	2	0.096621	7.06239	7.95942	-41.5048
 250	1	3	-0.099438	10.8728	12.0849	-46.8362
 251	1	7	-0.089685	9.93996	12.7996	-43.0783
 252	1	3	-0.037281	10.7413	12.7355	-44.4367
 253	1	3	-0.08188	10.1787	12.1336	-45.6036
 254	1	3	-0.106561	12.1365	12.6917	-46.9126
 255	1	3	-0.037628	12.015	13.3573	-44.5809
 256	1	3	-0.12234	12.6677	13.328	-45.8149
 257	1	7	0.388954	10.8872	12.9304	-41.816
 258	1	7	0.307788	9.03536	14.0855	-43.1158
 259	1	8	-0.129718	11.4351	14.1607	-41.6395
 260	1	8	-0.129089	11.9198	12.0684	-41.9133
 261	1	8	-0.119089	10.2205	12.6635	-40.6612
 262	1	8	-0.103894	8.00325	13.9306	-43.9716
 263	1	8	-0.097852	8.50849	14.4086	-41.8995
 264	1	8	-0.104555	9.7444	15.1478	-43.564
 265	1	2	0.521254	13.9849	13.8865	-46.199
 266	1	2	0.53569	13.1527	12.7969	-48.029
 267	1	1	0.027822	14.2571	13.4724	-47.4963
 268	1	5	-0.468874	14.6806	14.5739	-45.4795
 269	1	5	-0.477974	13.0536	12.3314	-49.1494
 270	1	3	-0.359831	15.5691	13.6724	-48.0891
 271	1	3	0.131035	15.8393	14.7713	-48.9375
 272	1	3	-0.120983	17.1746	15.0496	-49.3513
 273	1	3	0.127261	16.6328	12.8403	-47.6702
 274	1	3	-0.127195	17.9764	13.1705	-47.9898
 275	1	3	0.144798	18.2603	14.2767	-48.8462
 276	1	7	-0.020676	16.3242	11.5697	-46.8542
 277	1	7	-0.019785	14.6977	15.701	-49.3721
 278	1	6	0.164889	7.23776	12.3648	-42.0778
 279	1	6	0.175264	10.7946	10.1918	-43.41
 280	1	6	0.1582	9.69483	8.05887	-42.726
 281	1	6	0.150763	10.4325	11.5916	-47.7004
 282	1	6	0.144868	9.18364	11.6942	-45.5497
 283	1	6	0.134072	12.5064	13.8869	-43.7628
 284	1	7	-0.300668	17.4324	16.2066	-50.3349
 285	1	7	-0.243237	19.1165	12.3563	-47.3727
 286	1	11	0.021835	15.3578	11.1319	-47.1391
 287	1	11	0.012312	16.297	11.7875	-45.7723
 288	1	11	0.041777	17.0611	10.7695	-47.0062
 289	1	11	0.110598	18.8832	12.044	-46.348
 290	1	11	0.08293	19.3301	11.4594	-47.9725
 291	1	11	0.082252	20.0427	12.9236	-47.2663
 292	1	11	0.027698	14.9418	16.7397	-49.1086
 293	1	11	0.017051	13.7288	15.4837	-48.9133
 294	1	11	0.037874	14.5505	15.6811	-50.4657
 295	1	11	0.095908	17.3929	17.181	-49.8456
 296	1	11	0.127068	18.4115	16.1439	-50.8441
 297	1	11	0.099095	16.6866	16.2266	-51.1491
 298	1	3	-0.024347	-4.88157	5.53104	-34.2963
 299	1	3	-0.071478	-5.19009	5.0008	-35.5826
 300	1	3	-0.180016	-6.21605	4.0145	-35.6427
 301	1	5	-0.370097	-4.57065	6.03882	-31.1475
 302	1	3	0.010306	-5.53305	5.01198	-33.1481
 303	1	3	-0.071748	-6.90547	3.5512	-34.5146
 304	1	5	-0.403598	-7.81369	2.7721	-31.6671
 305	1	3	0.055994	-6.50741	4.03201	-33.272
 306	1	2	0.021521	-5.37856	5.296	-31.6761
 307	1	1	0.466017	-6.2655	4.40985	-31.0443
 308	1	2	0.096621	-6.9964	3.63861	-31.9301
 309	1	3	-0.099438	-0.863315	4.30447	-36.36
 310	1	7	-0.089685	-4.53989	5.61372	-36.8989
 311	1	3	-0.037281	-2.96955	5.49077	-36.9265
 312	1	3	-0.08188	-2.26099	4.49147	-36.1882
 313	1	3	-0.106561	-0.170866	5.15049	-37.2365
 314	1	3	-0.037628	-2.20292	6.35359	-37.7721
 315	1	3	-0.12234	-0.830924	6.1647	-37.8923
 316	1	7	0.388954	-5.00608	7.13357	-36.9622
 317	1	7	0.307788	-5.01744	4.88252	-38.2301
 318	1	8	-0.129718	-4.85708	7.68	-38.1813
 319	1	8	-0.129089	-4.29213	7.90901	-36.1167
 320	1	8	-0.119089	-6.3121	7.33212	-36.6609
 321	1	8	-0.103894	-6.35908	5.0386	-38.4256
 322	1	8	-0.097852	-4.70162	3.55815	-38.1863
 323	1	8	-0.104555	-4.41415	5.31495	-39.3794
 324	1	2	0.521254	0.145288	6.91288	-38.7288
 325	1	2	0.53569	1.26858	5.23601	-37.63
 326	1	1	0.027822	1.37291	6.29914	-38.5265
 327	1	5	-0.468874	-0.104599	7.85163	-39.4668
 328	1	5	-0.477974	2.17123	4.51133	-37.2525
 329	1	3	-0.359831	2.5815	6.74248	-39.1679
 330	1	3	0.131035	2.70597	6.65843	-40.5678
 331	1	3	-0.120983	3.78952	7.29103	-41.2176
 332	1	3	0.127261	3.57086	7.40304	-38.3999
 333	1	3	-0.127195	4.7103	7.92411	-39.0333
 334	1	3	0.144798	4.80697	7.90289	-40.4362
 335	1	7	-0.020676	3.40652	7.60686	-36.882
 336	1	7	-0.019785	1.60076	6.02198	-41.4122
 337	1	6	0.164889	-4.12085	6.29979	-34.1793
 338	1	6	0.175264	-6.52849	3.59027	-36.5865
 339	1	6	0.1582	-7.69873	2.80804	-34.5912
 340	1	6	0.150763	-0.328736	3.52468	-35.8224
 341	1	6	0.144868	-2.80607	3.80733	-35.5343
 342	1	6	0.134072	-2.63235	7.1505	-38.3659
 343	1	7	-0.300668	3.79387	7.41747	-42.7507
 344	1	7	-0.243237	5.86088	8.46879	-38.1783
 345	1	11	0.021835	3.70746	8.61519	-36.5616
 346	1	11	0.012312	4.00308	6.86764	-36.3256
 347	1	11	0.041777	2.36302	7.52605	-36.5572
 348	1	11	0.110598	5.62157	9.47078	-37.8043
 349	1	11	0.08293	6.03762	7.83809	-37.2955
 350	1	11	0.082252	6.83409	8.5192	-38.6887
 351	1	11	0.027698	0.995719	5.30898	-40.8385
 352	1	11	0.017051	1.99658	5.47348	-42.2705
 353	1	11	0.037874	0.923875	6.79785	-41.7886
 354	1	11	0.095908	4.46378	8.20571	-43.125
 355	1	11	0.127068	4.10463	6.46786	-43.2059
 356	1	11	0.099095	2.80083	7.67871	-43.1443
 357	1	3	-0.024347	-5.89239	0.560167	-17.5445
 358	1	3	-0.071478	-6.29113	1.41231	-18.6086
 359	1	3	-0.180016	-7.4558	2.20165	-18.4559
 360	1	5	-0.370097	-5.37034	-0.817019	-14.8341
 361	1	3	0.010306	-6.64377	0.574074	-16.362
 362	1	3	-0.071748	-8.24831	2.12403	-17.2877
 363	1	5	-0.403598	-9.2385	1.75703	-14.2898
 364	1	3	0.055994	-7.79135	1.33135	-16.2208
 365	1	2	0.021521	-6.30159	-0.0539162	-15.0614
 366	1	1	0.466017	-7.28419	0.420637	-14.1725
 367	1	2	0.096621	-8.27247	1.19041	-14.8024
 368	1	3	-0.099438	-8.02036	1.26417	-22.6782
 369	1	7	-0.089685	-5.39131	1.5892	-19.8521
 370	1	3	-0.037281	-6.24691	1.98692	-21.1086
 371	1	3	-0.08188	-7.39802	1.20908	-21.4112
 372	1	3	-0.106561	-7.53654	2.1835	-23.6202
 373	1	3	-0.037628	-5.78712	2.90491	-22.095
 374	1	3	-0.12234	-6.45567	2.98753	-23.3218
 375	1	7	0.388954	-4.31871	2.67619	-19.4593
 376	1	7	0.307788	-4.65555	0.229787	-20.213
 377	1	8	-0.129718	-3.737	2.357	-18.2773
 378	1	8	-0.129089	-4.92312	3.87225	-19.2239
 379	1	8	-0.119089	-3.29625	2.75734	-20.3461
 380	1	8	-0.103894	-3.52396	-0.0260107	-19.4972
 381	1	8	-0.097852	-4.25334	0.246368	-21.5077
 382	1	8	-0.104555	-5.48791	-0.838978	-20.0353
 383	1	2	0.521254	-5.99295	3.65759	-24.5445
 384	1	2	0.53569	-7.86561	2.37845	-25.0537
 385	1	1	0.027822	-6.87828	3.23856	-25.5326
 386	1	5	-0.468874	-4.9255	4.24374	-24.643
 387	1	5	-0.477974	-8.66095	1.71271	-25.6893
 388	1	3	-0.359831	-6.69115	3.57919	-26.9017
 389	1	3	0.131035	-7.48113	4.59208	-27.4759
 390	1	3	-0.120983	-7.35024	4.86481	-28.8659
 391	1	3	0.127261	-5.73293	2.90014	-27.6694
 392	1	3	-0.127195	-5.58876	3.17885	-29.0419
 393	1	3	0.144798	-6.38778	4.16431	-29.6419
 394	1	7	-0.020676	-4.84617	1.84315	-27.0103
 395	1	7	-0.019785	-8.44594	5.39956	-26.5873
 396	1	6	0.164889	-4.97565	-0.0142632	-17.5751
 397	1	6	0.175264	-7.713	2.92684	-19.2195
 398	1	6	0.1582	-9.13137	2.75038	-17.1767
 399	1	6	0.150763	-8.82209	0.572901	-22.9372
 400	1	6	0.144868	-7.72485	0.446704	-20.7129
 401	1	6	0.134072	-4.88316	3.49213	-21.9697
 402	1	7	-0.300668	-8.21732	5.9305	-29.5528
 403	1	7	-0.243237	-4.52521	2.46874	-29.8994
 404	1	11	0.021835	-4.81528	0.916276	-27.5997
 405	1	11	0.012312	-5.16864	1.52909	-26.0098
 406	1	11	0.041777	-3.82295	2.22693	-26.9159
 407	1	11	0.110598	-3.93752	3.18992	-30.4835
 408	1	11	0.08293	-3.78983	1.88396	-29.3331
 409	1	11	0.082252	-5.00141	1.78399	-30.6164
 410	1	11	0.027698	-8.18946	5.37008	-25.5182
 411	1	11	0.017051	-9.47488	5.03312	-26.6854
 412	1	11	0.037874	-8.45826	6.45997	-26.8585
 413	1	11	0.095908	-9.13159	6.16685	-28.9964
 414	1	11	0.127068	-7.65906	6.86649	-29.6863
 415	1	11	0.099095	-8.54961	5.58831	-30.5418
 416	1	1	0.478781	-16.6618	-3.98738	-2.93142
 417	1	2	0.051808	-15.7655	-2.96797	-2.53452
 418	1	3	-0.015342	-14.4844	-3.22387	-3.28715
 419	1	2	0.052802	-16.0444	-4.86995	-3.83557
 420	1	3	0.058525	-14.7142	-4.31358	-4.09899
 421	1	5	-0.381395	-15.9605	-2.01475	-1.79289
 422	1	5	-0.387279	-16.4263	-5.98393	-4.172
 423	1	3	-0.003007	-13.2413	-2.54219	-3.28713
 424	1	3	-0.04277	-13.7976	-4.67831	-5.08122
 425	1	3	-0.203298	-12.5777	-3.98477	-5.15211
 426	1	3	-0.057014	-12.253	-2.92288	-4.25594
 427	1	6	0.158736	-13.117	-1.70574	-2.6042
 428	1	6	0.155574	-14.0384	-5.46369	-5.80327
 429	1	6	0.172835	-11.9168	-4.26733	-5.95581
 430	1	7	-0.114348	-10.9235	-2.16704	-4.45703
 431	1	7	0.394993	-10.6571	-0.994413	-3.40078
 432	1	8	-0.128918	-9.52032	-0.31508	-3.66727
 433	1	8	-0.12014	-11.6409	-0.0546016	-3.37133
 434	1	8	-0.128671	-10.5061	-1.4499	-2.1282
 435	1	7	0.329225	-9.70444	-3.21031	-4.29956
 436	1	8	-0.1084	-8.46386	-2.62245	-4.2849
 437	1	8	-0.10772	-9.63072	-4.15479	-5.27713
 438	1	8	-0.098105	-9.82317	-3.96036	-3.17611
 439	1	3	-0.04356	-11.0163	-1.49469	-5.83934
 440	1	3	-0.061005	-9.94895	-1.62675	-6.76157
 441	1	3	-0.036586	-10.0275	-0.934743	-7.96062
 442	1	3	-0.073054	-12.1642	-0.697962	-6.20499
 443	1	3	-0.129461	-12.1953	0.00531424	-7.42872
 444	1	3	-0.055433	-11.0879	-0.115937	-8.27622
 445	1	2	0.497443	-10.7169	0.600344	-9.51406
 446	1	1	-0.091283	-9.4569	0.121147	-9.84469
 447	1	2	0.442461	-9.01002	-0.884451	-9.01486
 448	1	3	0.056821	-8.50702	0.707976	-10.7311
 449	1	3	-0.175202	-7.66271	1.76705	-10.3202
 450	1	3	-0.086463	-6.59282	2.20828	-11.131
 451	1	3	-0.120823	-8.27888	0.123931	-11.9905
 452	1	3	-0.147764	-7.11842	0.409568	-12.7503
 453	1	3	-0.091348	-6.29838	1.47907	-12.2955
 454	1	2	0.723311	-5.65857	3.30698	-10.7086
 455	1	6	0.16273	-13.0076	0.685122	-7.69327
 456	1	6	0.144736	-12.983	-0.576457	-5.48837
 457	1	6	0.138526	-9.02384	-2.16048	-6.55348
 458	1	5	-0.452878	-7.89148	-1.38554	-9.00934
 459	1	5	-0.478383	-11.2562	1.61137	-9.89357
 460	1	6	0.14723	-6.51171	-0.483513	-12.7223
 461	1	6	0.161782	-7.81636	2.21969	-9.33835
 462	1	6	0.150279	-8.94909	-0.669889	-12.3251
 463	1	6	0.142321	-5.41787	1.7826	-12.884
 464	1	5	-0.564646	-4.85072	3.7986	-11.4851
 465	1	9	-0.344773	-5.78392	3.67952	-9.4031
 466	1	7	-0.038703	87.9284	105.889	-126.44
 467	1	10	0.090446	-43.931	102.598	15.4547
 468	1	10	0.070639	-11.0716	-40.2235	7.78374
 469	1	11	0.018298	87.0517	105.85	-127.097
 470	1	11	0.032617	87.6398	106.419	-125.523
 471	1	7	0.364059	88.4068	104.467	-126.1
 472	1	10	-0.049335	88.713	103.957	-127.021
 473	1	12	-0.72623	87.36	103.732	-125.477
 474	1	10	0.033772	89.277	104.526	-125.433
 475	1	13	0.432586	86.7038	103.535	-126.169
 476	1	1	0.478781	-25.0562	5.15733	7.75658
 477	1	2	0.051808	-25.7059	4.00324	7.35274
 478	1	3	-0.015342	-24.8399	3.43883	6.27965
 479	1	2	0.052802	-23.8795	5.42036	7.05273
 480	1	3	0.058525	-23.7528	4.28015	6.08958
 481	1	5	-0.381395	-26.6993	3.5072	7.86105
 482	1	5	-0.387279	-23.0279	6.23979	7.35785
 483	1	3	-0.003007	-24.9753	2.23812	5.56261
 484	1	3	-0.04277	-22.8274	4.00348	5.07256
 485	1	3	-0.203298	-22.9332	2.77634	4.36981
 486	1	3	-0.057014	-23.9645	1.83585	4.63985
 487	1	6	0.158736	-25.8262	1.60699	5.78926
 488	1	6	0.155574	-22.0218	4.70333	4.85926
 489	1	6	0.172835	-22.1971	2.56295	3.5964
 490	1	7	-0.114348	-24.0768	0.472919	3.86775
 491	1	7	0.394993	-25.2814	0.626	2.86125
 492	1	8	-0.128918	-25.6092	-0.486494	2.16942
 493	1	8	-0.12014	-25.0525	1.61884	1.98803
 494	1	8	-0.128671	-26.436	0.94713	3.47431
 495	1	7	0.329225	-24.4375	-0.69333	4.87798
 496	1	8	-0.1084	-25.7098	-0.725789	5.33032
 497	1	8	-0.10772	-23.6636	-0.624928	5.98857
 498	1	8	-0.098105	-24.1869	-1.8992	4.32232
 499	1	3	-0.04356	-22.7201	0.0253562	3.16877
 500	1	3	-0.061005	-22.6716	-0.288965	1.77751
 501	1	3	-0.036586	-21.5948	-1.00915	1.26197
 502	1	3	-0.073054	-21.5583	-0.266098	3.94503
 503	1	3	-0.129461	-20.4653	-0.984314	3.40424
 504	1	3	-0.055433	-20.5295	-1.36342	2.0471
 505	1	2	0.497443	-19.7194	-2.32627	1.22978
 506	1	1	-0.091283	-20.3318	-2.45271	-0.0239433
 507	1	2	0.442461	-21.488	-1.67148	-0.0572309
 508	1	3	0.056821	-19.862	-3.27013	-1.11407
 509	1	3	-0.175202	-20.7609	-3.77958	-2.07536
 510	1	3	-0.086463	-20.3268	-4.40337	-3.26757
 511	1	3	-0.120823	-18.4802	-3.49292	-1.32088
 512	1	3	-0.147764	-17.985	-4.25008	-2.43094
 513	1	3	-0.091348	-18.9365	-4.56997	-3.456
 514	1	2	0.723311	-21.3284	-4.93508	-4.28436
 515	1	6	0.16273	-19.6429	-1.31879	4.03781
 516	1	6	0.144736	-21.5361	-0.012604	5.00538
 517	1	6	0.138526	-23.5172	-0.138022	1.11982
 518	1	5	-0.452878	-22.2918	-1.48195	-0.968031
 519	1	5	-0.478383	-18.719	-2.87072	1.61437
 520	1	6	0.14723	-17.6733	-5.18691	-1.97896
 521	1	6	0.161782	-21.8279	-3.65006	-1.91849
 522	1	6	0.150279	-17.7727	-3.13641	-0.561372
 523	1	6	0.142321	-18.6454	-5.07271	-4.38114
 524	1	5	-0.564646	-21.0074	-5.47967	-5.32638
 525	1	9	-0.344773	-22.6183	-4.53601	-4.07195
 526	1	7	-0.038703	-40.7846	12.4287	-83.2421
 527	1	10	0.090446	149.407	86.1195	81.7811
 528	1	10	0.070639	114.572	-68.9462	-88.6797
 529	1	11	0.018298	-41.5564	11.6689	-83.4244
 530	1	11	0.032617	-41.2145	13.2019	-82.5905
 531	1	7	0.364059	-39.5545	11.7936	-82.5729
 532	1	10	-0.049335	-39.1411	11.0183	-83.2261
 533	1	12	-0.72623	-39.9192	11.2201	-81.3235
 534	1	10	0.033772	-38.7865	12.5628	-82.426
 535	1	13	0.432586	-39.1457	10.7227	-81.0037
 536	1	3	-0.024347	-27.7015	10.5121	18.9464
 537	1	3	-0.071478	-26.5256	9.74088	19.1051
 538	1	3	-0.180016	-26.076	9.43767	20.4276
 539	1	5	-0.370097	-30.2993	12.1319	19.2405
 540	1	3	0.010306	-28.3687	10.9667	20.0874
 541	1	3	-0.071748	-26.7056	9.99872	21.5632
 542	1	5	-0.403598	-28.5603	11.5554	23.5434
 543	1	3	0.055994	-27.8547	10.7712	21.3554
 544	1	2	0.021521	-29.5913	11.8075	20.1846
 545	1	1	0.466017	-29.7176	12.1003	21.5537
 546	1	2	0.096621	-28.7332	11.4677	22.3333
 547	1	3	-0.099438	-28.3784	7.60384	15.7763
 548	1	7	-0.089685	-25.6815	9.47336	17.8345
 549	1	3	-0.037281	-26.5787	9.04239	16.6481
 550	1	3	-0.08188	-27.706	8.2068	16.8593
 551	1	3	-0.106561	-27.9055	7.84477	14.482
 552	1	3	-0.037628	-26.1654	9.30016	15.3273
 553	1	3	-0.12234	-26.8562	8.70483	14.2818
 554	1	7	0.388954	-24.6377	8.3179	17.9705
 555	1	7	0.307788	-24.9301	10.8272	17.5938
 556	1	8	-0.129718	-25.2419	7.19833	18.4248
 557	1	8	-0.129089	-23.6066	8.5798	18.8021
 558	1	8	-0.119089	-24.0976	8.02547	16.7671
 559	1	8	-0.103894	-25.773	11.7751	17.1095
 560	1	8	-0.097852	-23.8733	10.7273	16.7518
 561	1	8	-0.104555	-24.4484	11.3112	18.7644
 562	1	2	0.521254	-26.4156	8.61027	12.8885
 563	1	2	0.53569	-28.1494	7.11074	13.2025
 564	1	1	0.027822	-27.1369	7.56247	12.3477
 565	1	5	-0.468874	-25.4392	9.1727	12.433
 566	1	5	-0.477974	-28.8813	6.13614	13.0956
 567	1	3	-0.359831	-26.6661	6.89202	11.1812
 568	1	3	0.131035	-27.1939	7.2668	9.93735
 569	1	3	-0.120983	-26.5887	6.75939	8.78427
 570	1	3	0.127261	-25.6233	5.93906	11.3236
 571	1	3	-0.127195	-25.0297	5.39016	10.1629
 572	1	3	0.144798	-25.5041	5.84905	8.90589
 573	1	7	-0.020676	-25.1771	5.54754	12.7448
 574	1	7	-0.019785	-28.4659	8.12403	9.87693
 575	1	6	0.164889	-28.0671	10.8032	17.9641
 576	1	6	0.175264	-25.1817	8.84024	20.5939
 577	1	6	0.1582	-26.3304	9.82779	22.5696
 578	1	6	0.150763	-29.177	6.88424	15.9409
 579	1	6	0.144868	-28.0083	7.93526	17.87
 580	1	6	0.134072	-25.2696	9.86413	15.0895
 581	1	7	-0.300668	-27.1945	7.13702	7.42522
 582	1	7	-0.243237	-23.9199	4.30585	10.2167
 583	1	11	0.021835	-24.6942	4.56276	12.8128
 584	1	11	0.012312	-26.0095	5.50193	13.4546
 585	1	11	0.041777	-24.4675	6.28591	13.1414
 586	1	11	0.110598	-23.4071	4.23329	11.1759
 587	1	11	0.08293	-24.317	3.30547	9.99899
 588	1	11	0.082252	-23.1076	4.51846	9.50855
 589	1	11	0.027698	-29.0764	7.95568	8.98553
 590	1	11	0.017051	-28.2238	9.19406	9.91199
 591	1	11	0.037874	-29.1243	7.88953	10.7192
 592	1	11	0.095908	-28.2175	6.75572	7.32982
 593	1	11	0.127068	-27.231	8.23276	7.3573
 594	1	11	0.099095	-26.6248	6.78486	6.55981
 595	1	1	0.478781	-36.4656	6.41522	32.8307
 596	1	2	0.051808	-37.5292	6.5515	31.9413
 597	1	3	-0.015342	-36.9414	7.01186	30.6593
 598	1	2	0.052802	-35.2513	6.8009	32.25
 599	1	3	0.058525	-35.5859	7.20838	30.8606
 600	1	5	-0.381395	-38.7019	6.31738	32.1568
 601	1	5	-0.387279	-34.1361	6.77839	32.7425
 602	1	3	-0.003007	-37.55	7.22727	29.4146
 603	1	3	-0.04277	-34.7502	7.69597	29.8544
 604	1	3	-0.203298	-35.3423	7.92672	28.5991
 605	1	3	-0.057014	-36.7262	7.67655	28.3505
 606	1	6	0.158736	-38.6145	7.04271	29.3022
 607	1	6	0.155574	-33.686	7.85048	30.0355
 608	1	6	0.172835	-34.6966	8.27677	27.7947
 609	1	7	-0.114348	-37.2027	7.84227	26.8957
 610	1	7	0.394993	-38.7737	7.9726	26.7402
 611	1	8	-0.128918	-39.2893	8.91678	27.577
 612	1	8	-0.12014	-39.11	8.33918	25.4828
 613	1	8	-0.128671	-39.4603	6.8355	26.9618
 614	1	7	0.329225	-36.6415	6.57585	26.148
 615	1	8	-0.1084	-35.3044	6.38351	26.3269
 616	1	8	-0.10772	-36.8773	6.58474	24.8233
 617	1	8	-0.098105	-37.2299	5.46295	26.6128
 618	1	3	-0.04356	-36.5968	9.16093	26.3514
 619	1	3	-0.061005	-35.729	9.20737	25.2232
 620	1	3	-0.036586	-35.1195	10.4031	24.868