pySIMM System Object

2802 atoms
2949 bonds
5122 angles
7645 dihedrals
781 impropers

13 atom types
16 bond types
30 angle types
15 dihedral types
4 improper types

-177.439644 177.439644 xlo xhi
-177.439644 177.439644 ylo yhi
-177.439644 177.439644 zlo zhi

Masses

   1	12.01	# ca
   2	16.0	# o
   3	12.01	# c
   4	14.01	# n
   5	12.01	# c3
   6	19.0	# f
   7	1.008	# ha
   8	1.008	# hn
   9	1.008	# hc
  10	16.0	# os
  11	1.008	# h1
  12	16.0	# oh
  13	1.008	# ho

Pair Coeffs

   1	0.086	3.3996695084235347	# ca
   2	0.21	2.959921901149463	# o
   3	0.086	3.3996695084235347	# c
   4	0.17	3.249998523775958	# n
   5	0.1094	3.3996695084235347	# c3
   6	0.061	3.1181455134911875	# f
   7	0.015	2.59964245953351	# ha
   8	0.0157	1.069078461768407	# hn
   9	0.0157	2.649532787749369	# hc
  10	0.17	3.0000123434657784	# os
  11	0.0157	2.471353044121301	# h1
  12	0.2104	3.0664733878390478	# oh
  13	0.0047	0.5379246460131368	# ho

Bond Coeffs

   1	403.2	1.0129	# hn,n
   2	461.1	1.3984	# ca,ca
   3	637.7	1.2183	# c,o
   4	345.8	1.086	# ca,ha
   5	300.9	1.5375	# c3,c3
   6	356.9	1.3497	# c3,f
   7	345.9	1.4906	# c,ca
   8	427.6	1.3789	# c,n
   9	384.2	1.4121	# ca,n
  10	321.0	1.5156	# c3,ca
  11	330.6	1.0969	# c3,hc
  12	330.6	1.0969	# c3,h1
  13	316.7	1.4233	# c3,oh
  14	371.4	0.973	# ho,oh
  15	308.6	1.4316	# c3,os
  16	390.8	1.3584	# c,os

Angle Coeffs

   1	66.62	120.02	# ca,ca,ca
   2	66.11	109.24	# c3,c3,f
   3	67.87	120.19	# ca,ca,n
   4	68.72	122.6	# ca,c,o
   5	48.33	117.55	# c,n,hn
   6	67.68	115.25	# ca,c,n
   7	63.15	112.07	# c3,c3,ca
   8	63.82	123.71	# c,n,ca
   9	46.8	110.47	# ca,c3,hc
  10	63.53	120.77	# c3,ca,ca
  11	39.4	107.58	# hc,c3,hc
  12	48.18	119.88	# ca,ca,ha
  13	70.89	107.36	# f,c3,f
  14	64.28	120.33	# c,ca,ca
  15	63.74	127.08	# c,n,c
  16	62.86	111.51	# c3,c3,c3
  17	63.56	112.24	# ca,c3,ca
  18	74.22	123.05	# n,c,o
  19	68.0	107.97	# c3,c3,os
  20	46.39	109.56	# c3,c3,h1
  21	75.32	123.25	# o,c,os
  22	46.34	109.8	# c3,c3,hc
  23	67.47	110.19	# c3,c3,oh
  24	47.38	107.26	# c3,oh,ho
  25	39.24	108.46	# h1,c3,h1
  26	69.32	112.44	# ca,c,os
  27	50.93	110.26	# h1,c3,oh
  28	50.8	109.78	# h1,c3,os
  29	63.28	115.98	# c,os,c3
  30	49.75	116.02	# ha,ca,n

Dihedral Coeffs

   1	1	2.5	2	180	# X,c,n,X
   2	1	0.45	2	180	# X,ca,n,X
   3	1	1.0	2	180	# X,c,ca,X
   4	2	2.5	2	180	2.0	1	0	# hn,n,c,o
   5	1	3.625	2	180	# X,ca,ca,X
   6	1	0.15555555555555556	3	0	# X,c3,c3,X
   7	1	0.0	2	0	# X,c3,ca,X
   8	2	0.0	3	0	0.25	1	0	# hc,c3,c3,os
   9	2	0.0	3	0	0.25	1	0	# hc,c3,c3,oh
  10	2	2.7	2	180	1.4	1	180	# o,c,os,c3
  11	2	0.16	3	0	0.25	1	0	# ho,oh,c3,c3
  12	2	0.383	3	0	0.8	1	180	# c3,c3,os,c
  13	1	2.7	2	180	# X,c,os,X
  14	1	0.3833333333333333	3	0	# X,c3,os,X
  15	1	0.16666666666666666	3	0	# X,c3,oh,X

Improper Coeffs

   1	10.5	-1	2	# c,X,X,o
   2	1.1	-1	2	# n,X,X,hn
   3	1.1	-1	2	# ca,ca,ca,c3
   4	1.1	-1	2	# ca,X,X,ha

Atoms

   1	1	1	-0.024347	46.4641	132.676	3.35591
   2	1	1	-0.071478	46.9218	134.006	3.55361
   3	1	1	-0.180016	48.156	134.384	2.94532
   4	1	2	-0.370097	46.0431	129.721	2.64924
   5	1	1	0.010306	47.2103	131.812	2.5476
   6	1	1	-0.071748	48.8813	133.501	2.11877
   7	1	2	-0.403598	49.975	131.075	0.543152
   8	1	1	0.055994	48.3748	132.215	1.93474
   9	1	3	0.021521	46.998	130.374	2.2607
  10	1	4	0.466017	48.1076	129.976	1.49745
  11	1	3	0.096621	48.9575	131.057	1.21863
  12	1	1	-0.099438	46.7313	138.172	2.3264
  13	1	5	-0.089685	46.1532	134.997	4.48139
  14	1	1	-0.037281	46.5461	136.466	4.1158
  15	1	1	-0.08188	46.4274	136.868	2.75436
  16	1	1	-0.106561	47.1688	139.084	3.28483
  17	1	1	-0.037628	46.9831	137.437	5.06341
  18	1	1	-0.12234	47.2964	138.73	4.61138
  19	1	5	0.388954	46.4999	134.615	5.96946
  20	1	5	0.307788	44.5878	134.918	4.29147
  21	1	6	-0.129718	45.7888	135.334	6.86455
  22	1	6	-0.129089	47.8119	134.814	6.23171
  23	1	6	-0.119089	46.2445	133.317	6.25216
  24	1	6	-0.103894	44.0158	133.801	4.78801
  25	1	6	-0.097852	44.2174	134.99	2.99271
  26	1	6	-0.104555	43.9831	135.947	4.91985
  27	1	3	0.521254	47.8065	139.924	5.34402
  28	1	3	0.53569	47.5912	140.497	3.12263
  29	1	4	0.027822	47.9594	140.93	4.39118
  30	1	2	-0.468874	48.0224	139.996	6.54101
  31	1	2	-0.477974	47.6306	141.115	2.07237
  32	1	1	-0.359831	48.4226	142.256	4.68434
  33	1	1	0.131035	47.5281	143.21	5.23105
  34	1	1	-0.120983	47.9861	144.516	5.50553
  35	1	1	0.127261	49.7671	142.608	4.40625
  36	1	1	-0.127195	50.2108	143.923	4.67935
  37	1	1	0.144798	49.3175	144.851	5.22915
  38	1	5	-0.020676	50.7168	141.587	3.7745
  39	1	5	-0.019785	46.0633	142.87	5.52162
  40	1	7	0.164889	45.5785	132.284	3.84295
  41	1	7	0.175264	48.5881	135.364	3.12833
  42	1	7	0.1582	49.8303	133.789	1.66616
  43	1	7	0.150763	46.6419	138.459	1.28017
  44	1	7	0.144868	46.1096	136.151	2.00141
  45	1	7	0.134072	47.0981	137.219	6.12009
  46	1	5	-0.300668	47.0698	145.586	6.09653
  47	1	5	-0.243237	51.6314	144.394	4.3796
  48	1	9	0.021835	50.6176	141.589	2.68195
  49	1	9	0.012312	50.5216	140.567	4.12821
  50	1	9	0.041777	51.7657	141.791	4.01556
  51	1	9	0.110598	51.8971	144.219	3.32918
  52	1	9	0.08293	51.7434	145.47	4.5666
  53	1	9	0.082252	52.3626	143.875	5.0124
  54	1	9	0.027698	45.8443	142.971	6.5918
  55	1	9	0.017051	45.7749	141.855	5.23298
  56	1	9	0.037874	45.3956	143.548	4.97691
  57	1	9	0.095908	47.6156	146.519	6.28291
  58	1	9	0.127068	46.2419	145.822	5.41596
  59	1	9	0.099095	46.6444	145.263	7.05574
  60	1	4	0.478781	39.7224	116.722	4.175
  61	1	3	0.051808	41.1135	116.823	4.02087
  62	1	1	-0.015342	41.328	117.949	3.082
  63	1	3	0.052802	39.0504	117.729	3.46417
  64	1	1	0.058525	40.1113	118.499	2.76247
  65	1	2	-0.381395	41.9945	116.139	4.52317
  66	1	2	-0.387279	37.856	117.967	3.39843
  67	1	1	-0.003007	42.5176	118.401	2.51429
  68	1	1	-0.04277	40.0251	119.58	1.87863
  69	1	1	-0.203298	41.2232	120.086	1.32413
  70	1	1	-0.057014	42.4895	119.496	1.60833
  71	1	7	0.158736	43.42	117.874	2.79599
  72	1	7	0.155574	39.0562	120.01	1.6312
  73	1	7	0.172835	41.1576	120.943	0.659596
  74	1	5	-0.114348	43.7784	120.058	0.923092
  75	1	5	0.394993	45.0856	119.284	1.35974
  76	1	6	-0.128918	45.2564	119.326	2.70054
  77	1	6	-0.12014	45.0624	117.986	0.977758
  78	1	6	-0.128671	46.2239	119.818	0.86386
  79	1	5	0.329225	43.5903	119.897	-0.637724
  80	1	6	-0.1084	43.0539	118.692	-0.939455
  81	1	6	-0.10772	44.7363	119.998	-1.34976
  82	1	6	-0.098105	42.7546	120.827	-1.14812
  83	1	1	-0.04356	43.9994	121.534	1.34852
  84	1	1	-0.061005	44.8843	122.372	0.620177
  85	1	1	-0.036586	45.2591	123.604	1.17108
  86	1	1	-0.073054	43.486	122.01	2.58862
  87	1	1	-0.129461	43.8715	123.258	3.11931
  88	1	1	-0.055433	44.7867	124.028	2.39631
  89	1	3	0.497443	45.5289	125.262	2.78645
  90	1	4	-0.091283	46.4393	125.48	1.761
  91	1	3	0.442461	46.316	124.555	0.736018
  92	1	1	0.056821	47.4869	126.437	1.79111
  93	1	1	-0.175202	48.715	126.078	2.35674
  94	1	1	-0.086463	49.8188	126.945	2.28614
  95	1	1	-0.120823	47.3502	127.693	1.17588
  96	1	1	-0.147764	48.4208	128.622	1.11924
  97	1	1	-0.091348	49.6563	128.194	1.66381
  98	1	3	0.723311	51.1673	126.533	2.82262
  99	1	7	0.16273	43.5338	123.581	4.10182
 100	1	7	0.144736	42.8433	121.385	3.20138
 101	1	7	0.138526	45.3645	122.047	-0.29702
 102	1	2	-0.452878	46.9856	124.485	-0.278358
 103	1	2	-0.478383	45.4189	125.868	3.83688
 104	1	7	0.14723	48.5741	128.907	0.081173
 105	1	7	0.161782	48.8228	125.093	2.80885
 106	1	7	0.150279	46.3922	127.948	0.729246
 107	1	7	0.142321	50.53	128.843	1.60076
 108	1	2	-0.564646	52.2031	127.115	2.55058
 109	1	10	-0.344773	51.1358	125.426	3.60994
 110	1	5	-0.038703	0.0452485	-97.0131	-138.902
 111	1	11	0.090446	-22.4064	-38.2769	93.4178
 112	1	11	0.070639	159.718	-43.4425	11.0879
 113	1	9	0.018298	0.0108285	-96.0693	-139.46
 114	1	9	0.032617	1.08932	-97.2048	-138.624
 115	1	5	0.364059	-0.83188	-96.9188	-137.641
 116	1	11	-0.049335	-1.8643	-96.6962	-137.934
 117	1	12	-0.72623	-0.351057	-95.8942	-136.778
 118	1	11	0.033772	-0.822734	-97.8856	-137.122
 119	1	13	0.432586	-0.54312	-95.0455	-137.212
 120	1	4	0.478781	41.9654	101.334	3.36811
 121	1	3	0.051808	42.9195	102.233	2.85908
 122	1	1	-0.015342	42.1768	103.479	2.5326
 123	1	3	0.052802	40.6811	101.907	3.38145
 124	1	1	0.058525	40.8494	103.287	2.84079
 125	1	2	-0.381395	44.1259	102.078	2.73728
 126	1	2	-0.387279	39.6255	101.425	3.76597
 127	1	1	-0.003007	42.657	104.699	2.0348
 128	1	1	-0.04277	39.9184	104.315	2.64416
 129	1	1	-0.203298	40.3893	105.56	2.15726
 130	1	1	-0.057014	41.7659	105.797	1.88038
 131	1	7	0.158736	43.7185	104.771	1.82777
 132	1	7	0.155574	38.8691	104.159	2.87876
 133	1	7	0.172835	39.6723	106.366	2.02443
 134	1	5	-0.114348	42.2507	107.251	1.53925
 135	1	5	0.394993	43.7997	107.43	1.76007
 136	1	6	-0.128918	44.1742	108.725	1.72998
 137	1	6	-0.12014	44.5563	106.778	0.84548
 138	1	6	-0.128671	44.1563	106.972	2.9781
 139	1	5	0.329225	41.884	107.523	0.0305439
 140	1	6	-0.1084	42.2227	106.49	-0.767992
 141	1	6	-0.10772	42.4815	108.613	-0.508594
 142	1	6	-0.098105	40.549	107.678	-0.110441
 143	1	1	-0.04356	41.5382	108.25	2.5089
 144	1	1	-0.061005	41.0813	109.538	2.10413
 145	1	1	-0.036586	40.3596	110.324	3.01793
 146	1	1	-0.073054	41.3161	107.865	3.86255
 147	1	1	-0.129461	40.5662	108.655	4.7557
 148	1	1	-0.055433	40.0771	109.88	4.29169
 149	1	3	0.497443	39.2816	110.924	4.99271
 150	1	4	-0.091283	39.1872	111.977	4.1004
 151	1	3	0.442461	39.8065	111.701	2.88528
 152	1	1	0.056821	38.6618	113.247	4.45932
 153	1	1	-0.175202	37.3428	113.395	4.91221
 154	1	1	-0.086463	36.8679	114.671	5.28437
 155	1	1	-0.120823	39.5118	114.361	4.43692
 156	1	1	-0.147764	39.1111	115.638	4.89335
 157	1	1	-0.091348	37.7502	115.769	5.24783
 158	1	3	0.723311	35.4525	114.896	5.76212
 159	1	7	0.16273	40.376	108.33	5.77749
 160	1	7	0.144736	41.7022	106.914	4.22451
 161	1	7	0.138526	41.2608	109.933	1.11031
 162	1	2	-0.452878	39.9636	112.455	1.93994
 163	1	2	-0.478383	38.8569	110.876	6.13495
 164	1	7	0.14723	39.6766	115.844	5.798
 165	1	7	0.161782	36.6874	112.529	4.96558
 166	1	7	0.150279	40.5291	114.209	4.08414
 167	1	7	0.142321	37.3733	116.744	5.55833
 168	1	2	-0.564646	35.0783	115.956	6.23712
 169	1	10	-0.344773	34.6508	113.8	5.70181
 170	1	5	-0.038703	-74.9026	58.764	52.3697
 171	1	11	0.090446	89.6146	14.5704	-111.119
 172	1	11	0.070639	150.152	-142.969	46.7574
 173	1	9	0.018298	-74.4387	59.7409	52.5568
 174	1	9	0.032617	-74.6248	58.094	53.193
 175	1	5	0.364059	-76.4323	58.9043	52.2976
 176	1	11	-0.049335	-76.6985	59.5447	51.4489
 177	1	12	-0.72623	-76.9299	59.4807	53.4993
 178	1	11	0.033772	-76.8807	57.915	52.1376
 179	1	13	0.432586	-76.6598	60.4151	53.4951
 180	1	4	0.478781	42.2742	86.0373	0.313717
 181	1	3	0.051808	43.4522	86.5176	-0.251453
 182	1	1	-0.015342	43.3665	88.0036	-0.172
 183	1	3	0.052802	41.4045	87.0662	0.666575
 184	1	1	0.058525	42.1346	88.3306	0.355494
 185	1	2	-0.381395	44.4076	85.8743	-0.647503
 186	1	2	-0.387279	40.305	86.9884	1.1833
 187	1	1	-0.003007	44.3375	88.984	-0.433514
 188	1	1	-0.04277	41.7888	89.6638	0.609663
 189	1	1	-0.203298	42.7563	90.6661	0.36785
 190	1	1	-0.057014	44.0493	90.3513	-0.152448
 191	1	7	0.158736	45.312	88.6635	-0.788294
 192	1	7	0.155574	40.8272	89.8996	1.06364
 193	1	7	0.172835	42.4954	91.6832	0.648325
 194	1	5	-0.114348	45.1591	91.4436	-0.309814
 195	1	5	0.394993	45.8492	91.3607	-1.74922
 196	1	6	-0.128918	44.9313	91.2851	-2.73615
 197	1	6	-0.12014	46.6049	92.4642	-1.98813
 198	1	6	-0.128671	46.6499	90.2847	-1.97901
 199	1	5	0.329225	46.2834	91.1488	0.774179
 200	1	6	-0.1084	47.1623	92.1648	0.865879
 201	1	6	-0.10772	47.0373	90.0433	0.536808
 202	1	6	-0.098105	45.7608	90.9776	2.00818
 203	1	1	-0.04356	44.5287	92.8838	-0.113443
 204	1	1	-0.061005	44.5982	93.5803	1.13253
 205	1	1	-0.036586	43.9785	94.8296	1.26857
 206	1	1	-0.073054	43.7576	93.5069	-1.14782
 207	1	1	-0.129461	43.1417	94.7698	-0.983247
 208	1	1	-0.055433	43.2802	95.4225	0.242449
 209	1	3	0.497443	42.6939	96.7026	0.734452
 210	1	4	-0.091283	43.0338	96.7615	2.07752
 211	1	3	0.442461	43.8151	95.6825	2.47255
 212	1	1	0.056821	42.4977	97.6996	2.99645
 213	1	1	-0.175202	41.7745	97.2211	4.09887
 214	1	1	-0.086463	41.2636	98.1038	5.06475
 215	1	1	-0.120823	42.7156	99.0841	2.85784
 216	1	1	-0.147764	42.2863	100.008	3.8427
 217	1	1	-0.091348	41.4875	99.4877	4.89223
 218	1	3	0.723311	40.5356	97.5448	6.26584
 219	1	7	0.16273	42.5424	95.2135	-1.77902
 220	1	7	0.144736	43.5844	93.0074	-2.09347
 221	1	7	0.138526	45.0957	93.182	2.0078
 222	1	2	-0.452878	44.2106	95.4184	3.59467
 223	1	2	-0.478383	42.0078	97.4833	0.0969978
 224	1	7	0.14723	43.1995	100.326	4.33641
 225	1	7	0.161782	41.6134	96.1512	4.2212
 226	1	7	0.150279	43.2691	99.4449	1.99092
 227	1	7	0.142321	41.066	100.179	5.62217
 228	1	2	-0.564646	40.3342	96.3516	6.43026
 229	1	10	-0.344773	40.1799	98.4771	7.18872
 230	1	5	-0.038703	13.505	20.11	-53.5022
 231	1	11	0.090446	105.742	31.5671	-125.777
 232	1	11	0.070639	1.10298	134.614	14.088
 233	1	9	0.018298	14.4053	19.4856	-53.5184
 234	1	9	0.032617	13.3579	20.4772	-54.5229
 235	1	5	0.364059	12.3034	19.2421	-53.1074
 236	1	11	-0.049335	12.4824	18.8179	-52.1136
 237	1	12	-0.72623	12.1492	18.1831	-54.0486
 238	1	11	0.033772	11.3952	19.8587	-53.0623
 239	1	13	0.432586	11.4713	17.5914	-53.696
 240	1	1	-0.024347	40.4076	72.1302	1.64075
 241	1	1	-0.071478	40.2999	73.5112	1.3187
 242	1	1	-0.180016	40.459	73.8881	-0.0447394
 243	1	2	-0.370097	40.5988	69.0456	1.68012
 244	1	1	0.010306	40.7206	71.2147	0.618681
 245	1	1	-0.071748	40.8104	72.9527	-1.04805
 246	1	2	-0.403598	41.3543	70.3583	-2.73702
 247	1	1	0.055994	40.9183	71.6013	-0.691123
 248	1	3	0.021521	40.7657	69.7244	0.676781
 249	1	4	0.466017	40.9615	69.3004	-0.654241
 250	1	3	0.096621	41.1411	70.3822	-1.52852
 251	1	1	-0.099438	42.7809	77.0379	1.68374
 252	1	5	-0.089685	39.8559	74.592	2.35591
 253	1	1	-0.037281	40.5937	75.9308	2.04681
 254	1	1	-0.08188	42.0064	75.889	1.91643
 255	1	1	-0.106561	42.1136	78.2562	1.56451
 256	1	1	-0.037628	39.9529	77.201	1.93733
 257	1	1	-0.12234	40.741	78.3342	1.67546
 258	1	5	0.388954	40.2096	74.1945	3.84559
 259	1	5	0.307788	38.2984	74.7472	2.20994
 260	1	6	-0.129718	39.4106	73.2229	4.35405
 261	1	6	-0.129089	41.4972	73.7808	3.99124
 262	1	6	-0.119089	40.048	75.2586	4.65701
 263	1	6	-0.103894	37.7008	73.5319	2.25409
 264	1	6	-0.097852	38.0116	75.2897	0.992674
 265	1	6	-0.104555	37.721	75.5141	3.18045
 266	1	3	0.521254	40.3517	79.772	1.52367
 267	1	3	0.53569	42.6435	79.6354	1.36084
 268	1	4	0.027822	41.538	80.4799	1.30842
 269	1	2	-0.468874	39.2161	80.2199	1.52954
 270	1	2	-0.477974	43.815	79.9549	1.27977
 271	1	1	-0.359831	41.6459	81.9015	1.05793
 272	1	1	0.131035	42.0056	82.7657	2.1177
 273	1	1	-0.120983	42.2454	84.1336	1.86158
 274	1	1	0.127261	41.4749	82.4101	-0.256176
 275	1	1	-0.127195	41.6292	83.7992	-0.492159
 276	1	1	0.144798	42.0396	84.6498	0.563266
 277	1	5	-0.020676	41.1063	81.4467	-1.40456
 278	1	5	-0.019785	42.185	82.2222	3.53555
 279	1	7	0.164889	40.2111	71.7384	2.63497
 280	1	7	0.175264	40.3076	74.921	-0.335801
 281	1	7	0.1582	40.9443	73.2506	-2.08655
 282	1	7	0.150763	43.865	76.9839	1.60449
 283	1	7	0.144868	42.5236	74.9346	1.9831
 284	1	7	0.134072	38.8833	77.3379	2.05261
 285	1	5	-0.300668	42.6852	85.0916	2.99208
 286	1	5	-0.243237	41.3375	84.3908	-1.87384
 287	1	9	0.021835	41.4396	80.4152	-1.21886
 288	1	9	0.012312	41.5663	81.7431	-2.35401
 289	1	9	0.041777	40.0185	81.4325	-1.53976
 290	1	9	0.110598	42.2631	84.4316	-2.47141
 291	1	9	0.08293	40.5893	83.8247	-2.44073
 292	1	9	0.082252	40.9398	85.4077	-1.81243
 293	1	9	0.027698	43.2468	82.2537	3.82248
 294	1	9	0.017051	41.8366	81.1998	3.68216
 295	1	9	0.037874	41.6207	82.8362	4.26032
 296	1	9	0.095908	43.4688	85.7883	2.66825
 297	1	9	0.127068	41.8311	85.6857	3.34586
 298	1	9	0.099095	43.0972	84.5871	3.874
 299	1	4	0.478781	26.5974	67.6604	-1.16358
 300	1	3	0.051808	27.0377	67.5786	0.150414
 301	1	1	-0.015342	28.4969	67.4133	0.0612205
 302	1	3	0.052802	27.6445	67.5678	-2.0961
 303	1	1	0.058525	28.8793	67.3997	-1.2594
 304	1	2	-0.381395	26.3814	67.6633	1.17615
 305	1	2	-0.387279	27.5721	67.671	-3.31755
 306	1	1	-0.003007	29.4134	67.3144	1.10922
 307	1	1	-0.04277	30.2351	67.2994	-1.5902
 308	1	1	-0.203298	31.1909	67.2432	-0.547781
 309	1	1	-0.057014	30.7991	67.2196	0.817508
 310	1	7	0.158736	29.039	67.3462	2.12778
 311	1	7	0.155574	30.5458	67.3051	-2.63105
 312	1	7	0.172835	32.2367	67.2107	-0.820751
 313	1	5	-0.114348	31.8671	67.1351	1.94026
 314	1	5	0.394993	32.0643	68.6012	2.45413
 315	1	6	-0.128918	32.965	68.6684	3.46246
 316	1	6	-0.12014	30.9047	69.1326	2.88689
 317	1	6	-0.128671	32.4642	69.4411	1.47087
 318	1	5	0.329225	31.3694	66.226	3.15079
 319	1	6	-0.1084	30.5476	66.838	4.03494
 320	1	6	-0.10772	32.4176	65.7952	3.88855
 321	1	6	-0.098105	30.6919	65.1223	2.75206
 322	1	1	-0.04356	33.2157	66.5423	1.39207
 323	1	1	-0.061005	34.4072	67.3152	1.24814
 324	1	1	-0.036586	35.6027	66.6816	0.8834
 325	1	1	-0.073054	33.3123	65.153	1.07397
 326	1	1	-0.129461	34.5364	64.5347	0.715531
 327	1	1	-0.055433	35.685	65.3276	0.664896
 328	1	3	0.497443	37.1056	64.9779	0.367619
 329	1	4	-0.091283	37.7987	66.192	0.318704
 330	1	3	0.442461	36.9547	67.2542	0.661777
 331	1	1	0.056821	39.154	66.3914	-0.087685
 332	1	1	-0.175202	40.189	65.527	0.29413
 333	1	1	-0.086463	41.5305	65.8517	-0.00225443
 334	1	1	-0.120823	39.4775	67.5069	-0.879965
 335	1	1	-0.147764	40.8067	67.9337	-1.08798
 336	1	1	-0.091348	41.823	67.071	-0.642227
 337	1	3	0.723311	42.6537	64.9478	0.432649
 338	1	7	0.16273	34.5907	63.4698	0.483682
 339	1	7	0.144736	32.4207	64.5269	1.1069
 340	1	7	0.138526	34.4745	68.3764	1.44227
 341	1	2	-0.452878	37.2157	68.4443	0.704049
 342	1	2	-0.478383	37.5299	63.8425	0.248769
 343	1	7	0.14723	40.9664	68.1101	-2.14544
 344	1	7	0.161782	39.9565	64.6371	0.879287
 345	1	7	0.150279	38.679	68.1431	-1.24897
 346	1	7	0.142321	42.8703	67.3425	-0.786813
 347	1	2	-0.564646	43.835	65.2365	0.341192
 348	1	10	-0.344773	42.2338	63.7289	0.849523
 349	1	5	-0.038703	148.228	116.591	123.928
 350	1	11	0.090446	29.3112	75.9436	-103.328
 351	1	11	0.070639	-21.8147	-150.613	-17.3954
 352	1	9	0.018298	148.335	117.435	124.622
 353	1	9	0.032617	147.474	116.861	123.178
 354	1	5	0.364059	149.573	116.288	123.244
 355	1	11	-0.049335	150.323	116.049	124.007
 356	1	12	-0.72623	150.007	117.412	122.487
 357	1	11	0.033772	149.458	115.415	122.589
 358	1	13	0.432586	150.262	118.1	123.125
 359	1	1	-0.024347	14.9884	67.458	-2.4403
 360	1	1	-0.071478	14.9814	68.0905	-3.71051
 361	1	1	-0.180016	14.6022	67.3071	-4.83742
 362	1	2	-0.370097	14.7686	65.5865	0.0179586
 363	1	1	0.010306	14.5879	66.1226	-2.32881
 364	1	1	-0.071748	14.164	65.9714	-4.70292
 365	1	2	-0.403598	13.317	63.1687	-3.70855
 366	1	1	0.055994	14.1644	65.4039	-3.42571
 367	1	3	0.021521	14.4885	65.2561	-1.12626
 368	1	4	0.466017	13.9841	64.0272	-1.59074
 369	1	3	0.096621	13.7579	64.0462	-2.97855
 370	1	1	-0.099438	18.0207	71.0873	-1.31536
 371	1	5	-0.089685	15.3526	69.61	-3.79105
 372	1	1	-0.037281	16.6205	69.8225	-2.91831
 373	1	1	-0.08188	16.7986	70.9013	-2.00237
 374	1	1	-0.106561	19.0672	70.1818	-1.57099
 375	1	1	-0.037628	17.6992	68.9337	-3.12847
 376	1	1	-0.12234	18.9014	69.1533	-2.46674
 377	1	5	0.388954	15.7382	70.097	-5.24316
 378	1	5	0.307788	14.1056	70.4349	-3.27125
 379	1	6	-0.129718	16.3197	71.3174	-5.22404
 380	1	6	-0.129089	14.6738	70.1802	-6.07112
 381	1	6	-0.119089	16.6282	69.273	-5.83719
 382	1	6	-0.103894	13.8769	70.2009	-1.95707
 383	1	6	-0.097852	12.9571	70.0704	-3.88612
 384	1	6	-0.104555	14.2322	71.7792	-3.44876
 385	1	3	0.521254	20.1847	68.4478	-2.65116
 386	1	3	0.53569	20.4979	70.1516	-1.13851
 387	1	4	0.027822	21.0993	69.0817	-1.81444
 388	1	2	-0.468874	20.3723	67.5474	-3.4481
 389	1	2	-0.477974	21.0523	71.0053	-0.473142
 390	1	1	-0.359831	22.4917	68.691	-1.68692
 391	1	1	0.131035	23.5062	69.585	-2.10865
 392	1	1	-0.120983	24.8647	69.2574	-1.89122
 393	1	1	0.127261	22.8521	67.4024	-1.19096
 394	1	1	-0.127195	24.2114	66.9942	-1.16734
 395	1	1	0.144798	25.2233	67.9509	-1.45853
 396	1	5	-0.020676	21.7814	66.4294	-0.680972
 397	1	5	-0.019785	23.1472	70.917	-2.79969
 398	1	7	0.164889	15.2792	67.9956	-1.54057
 399	1	7	0.175264	14.6032	67.7294	-5.83752
 400	1	7	0.1582	13.841	65.3869	-5.56074
 401	1	7	0.150763	18.1662	71.9308	-0.642006
 402	1	7	0.144868	16.0164	71.6354	-1.84184
 403	1	7	0.134072	17.6276	68.1125	-3.83613
 404	1	5	-0.300668	25.9602	70.3017	-2.14777
 405	1	5	-0.243237	24.5884	65.5483	-0.754086
 406	1	9	0.021835	20.8129	66.9005	-0.526759
 407	1	9	0.012312	22.0795	66.0203	0.284589
 408	1	9	0.041777	21.6418	65.5998	-1.38428
 409	1	9	0.110598	24.6656	65.4625	0.340689
 410	1	9	0.08293	23.8562	64.7986	-1.09515
 411	1	9	0.082252	25.5435	65.2166	-1.18932
 412	1	9	0.027698	22.1769	70.886	-3.29542
 413	1	9	0.017051	23.8733	71.1583	-3.57655
 414	1	9	0.037874	23.1298	71.7392	-2.07973
 415	1	9	0.095908	26.352	70.2093	-3.16702
 416	1	9	0.127068	25.6069	71.331	-2.01841
 417	1	9	0.099095	26.802	70.2145	-1.44967
 418	1	4	0.478781	7.20822	54.4173	-9.91939
 419	1	3	0.051808	6.68656	54.0063	-8.68246
 420	1	1	-0.015342	6.97695	55.1204	-7.74208
 421	1	3	0.052802	7.68286	55.7308	-9.88342
 422	1	1	0.058525	7.54078	56.1471	-8.46884
 423	1	2	-0.381395	6.09105	52.9749	-8.41509
 424	1	2	-0.387279	8.25645	56.3629	-10.7579
 425	1	1	-0.003007	6.88008	55.1786	-6.34256
 426	1	1	-0.04277	7.9842	57.3124	-7.84859
 427	1	1	-0.203298	7.89563	57.3899	-6.44609
 428	1	1	-0.057014	7.39482	56.3167	-5.66024
 429	1	7	0.158736	6.45915	54.3264	-5.81783
 430	1	7	0.155574	8.42296	58.1151	-8.43546
 431	1	7	0.172835	8.26099	58.2909	-5.95862
 432	1	5	-0.114348	7.43137	56.4541	-4.10168
 433	1	5	0.394993	7.30319	55.0828	-3.33475
 434	1	6	-0.128918	8.18078	54.1539	-3.77303
 435	1	6	-0.12014	7.57101	55.233	-2.02021
 436	1	6	-0.128671	6.07015	54.5406	-3.43175
 437	1	5	0.329225	6.22834	57.3843	-3.67969
 438	1	6	-0.1084	6.44219	58.673	-4.03744
 439	1	6	-0.10772	5.98497	57.3685	-2.34633
 440	1	6	-0.098105	5.07981	57.0181	-4.29146
 441	1	1	-0.04356	8.8231	57.0371	-3.70784
 442	1	1	-0.061005	9.01453	58.045	-2.71072
 443	1	1	-0.036586	10.3158	58.5048	-2.44236
 444	1	1	-0.073054	9.96657	56.5139	-4.37118
 445	1	1	-0.129461	11.2524	57.0156	-4.11814
 446	1	1	-0.055433	11.3943	58.0053	-3.14503
 447	1	3	0.497443	12.622	58.6998	-2.69443
 448	1	4	-0.091283	12.2079	59.5977	-1.72216
 449	1	3	0.442461	10.8411	59.5347	-1.48716
 450	1	1	0.056821	13.0901	60.5423	-1.12649
 451	1	1	-0.175202	14.2691	60.1069	-0.510812
 452	1	1	-0.086463	15.1863	61.0347	0.0176691
 453	1	1	-0.120823	12.8381	61.9241	-1.21717
 454	1	1	-0.147764	13.7458	62.8975	-0.730364
 455	1	1	-0.091348	14.9229	62.4161	-0.109574
 456	1	3	0.723311	16.4301	60.5143	0.694438
 457	1	7	0.16273	12.1215	56.635	-4.64934
 458	1	7	0.144736	9.85787	55.7308	-5.11741
 459	1	7	0.138526	8.19146	58.47	-2.14611
 460	1	2	-0.452878	10.1999	60.2216	-0.709237
 461	1	2	-0.478383	13.7428	58.5343	-3.14622
 462	1	7	0.14723	13.2087	63.504	-0.00626147
 463	1	7	0.161782	14.49	59.0422	-0.459129
 464	1	7	0.150279	11.9269	62.2493	-1.71654
 465	1	7	0.142321	15.6379	63.1261	0.301955
 466	1	2	-0.564646	16.5734	59.3365	0.970382
 467	1	10	-0.344773	17.3733	61.4521	0.984452
 468	1	5	-0.038703	-21.0833	-91.4055	39.9278
 469	1	11	0.090446	17.7879	148.686	-11.3807
 470	1	11	0.070639	-49.4299	101.545	174.976
 471	1	9	0.018298	-21.1712	-92.2714	39.2597
 472	1	9	0.032617	-21.3173	-90.5045	39.3468
 473	1	5	0.364059	-22.0586	-91.541	41.1096
 474	1	11	-0.049335	-21.8151	-92.4448	41.6797
 475	1	12	-0.72623	-23.3969	-91.625	40.6346
 476	1	11	0.033772	-21.9461	-90.6742	41.7734
 477	1	13	0.432586	-23.4933	-92.4961	40.2165
 478	1	4	0.478781	0.917902	46.9772	-22.7244
 479	1	3	0.051808	0.189746	46.9136	-21.5406
 480	1	1	-0.015342	1.0143	47.6181	-20.544
 481	1	3	0.052802	2.07615	47.7543	-22.6046
 482	1	1	0.058525	2.12914	48.1408	-21.1601
 483	1	2	-0.381395	-0.899223	46.4067	-21.3347
 484	1	2	-0.387279	2.90956	47.9973	-23.4622
 485	1	1	-0.003007	0.824353	47.6536	-19.1686
 486	1	1	-0.04277	3.10672	48.7975	-20.4045
 487	1	1	-0.203298	2.93001	48.856	-19.0001
 488	1	1	-0.057014	1.81443	48.2423	-18.352
 489	1	7	0.158736	-0.0449896	47.146	-18.7716
 490	1	7	0.155574	4.0015	49.1849	-20.8873
 491	1	7	0.172835	3.71942	49.3035	-18.3994
 492	1	5	-0.114348	1.81346	48.0296	-16.8072
 493	1	5	0.394993	2.78194	46.7981	-16.5508
 494	1	6	-0.128918	2.44496	45.7074	-17.2762
 495	1	6	-0.12014	2.80677	46.3813	-15.2648
 496	1	6	-0.128671	4.05655	47.0924	-16.8969
 497	1	5	0.329225	0.388041	47.7172	-16.1935
 498	1	6	-0.1084	-0.496162	48.6772	-16.5364
 499	1	6	-0.10772	0.425554	47.6906	-14.8433
 500	1	6	-0.098105	-0.138159	46.5199	-16.5543
 501	1	1	-0.04356	2.31037	49.3524	-16.1472
 502	1	1	-0.061005	3.25966	49.3548	-15.0942
 503	1	1	-0.036586	3.72611	50.5671	-14.5914
 504	1	1	-0.073054	1.83558	50.6137	-16.6098
 505	1	1	-0.129461	2.32903	51.8339	-16.0885
 506	1	1	-0.055433	3.2913	51.7817	-15.0743
 507	1	3	0.497443	4.1291	52.8509	-14.4465
 508	1	4	-0.091283	5.02944	52.1695	-13.6329
 509	1	3	0.442461	4.82738	50.8007	-13.6322
 510	1	1	0.056821	6.17162	52.755	-13.0415
 511	1	1	-0.175202	7.36567	52.7816	-13.7738
 512	1	1	-0.086463	8.53723	53.3055	-13.2079
 513	1	1	-0.120823	6.14604	53.2123	-11.715
 514	1	1	-0.147764	7.34568	53.5461	-11.0479
 515	1	1	-0.091348	8.50056	53.7169	-11.858
 516	1	3	0.723311	9.79431	53.3657	-14.0506
 517	1	7	0.16273	1.98642	52.7871	-16.4843
 518	1	7	0.144736	1.09413	50.655	-17.4066
 519	1	7	0.138526	3.69944	48.4497	-14.6899
 520	1	2	-0.452878	5.51702	49.9415	-13.1091
 521	1	2	-0.478383	4.14286	54.0376	-14.7274
 522	1	7	0.14723	7.57536	52.6513	-10.4747
 523	1	7	0.161782	7.38199	52.4144	-14.797
 524	1	7	0.150279	5.21167	53.1712	-11.1579
 525	1	7	0.142321	9.41211	54.1073	-11.4091
 526	1	2	-0.564646	9.89897	52.8035	-15.1287
 527	1	10	-0.344773	10.8108	54.0923	-13.5152
 528	1	5	-0.038703	58.0818	130.13	-43.1021
 529	1	11	0.090446	-137.501	108.386	-88.4952
 530	1	11	0.070639	166.932	41.5323	-28.1112
 531	1	9	0.018298	57.1853	129.741	-42.6035
 532	1	9	0.032617	58.4864	130.942	-42.4853
 533	1	5	0.364059	59.1309	129.016	-43.2611
 534	1	11	-0.049335	58.7272	128.226	-43.9046
 535	1	12	-0.72623	59.4629	128.469	-41.9907
 536	1	11	0.033772	60.027	129.428	-43.7429
 537	1	13	0.432586	58.6972	127.942	-41.7018
 538	1	1	-0.024347	-1.31273	41.4604	-35.1319
 539	1	1	-0.071478	-1.54329	41.3156	-33.7385
 540	1	1	-0.180016	-0.737111	40.3945	-33.0145
 541	1	2	-0.370097	0.0120765	41.6041	-37.9496
 542	1	1	0.010306	-0.281252	40.7117	-35.7229
 543	1	1	-0.071748	0.267559	39.6314	-33.6328
 544	1	2	-0.403598	2.42067	38.4648	-35.5345
 545	1	1	0.055994	0.477746	39.8127	-34.997
 546	1	3	0.021521	0.300619	40.7885	-37.0893
 547	1	4	0.466017	1.35725	39.875	-37.0916
 548	1	3	0.096621	1.53759	39.243	-35.8659
 549	1	1	-0.099438	0.330413	44.0391	-31.1459
 550	1	5	-0.089685	-2.55301	42.1854	-32.9374
 551	1	1	-0.037281	-1.72933	42.8287	-31.785
 552	1	1	-0.08188	-0.462223	43.3922	-32.1062
 553	1	1	-0.106561	-0.158711	44.1187	-29.8471
 554	1	1	-0.037628	-2.17701	42.9053	-30.4369
 555	1	1	-0.12234	-1.35923	43.5434	-29.4906
 556	1	5	0.388954	-3.72179	41.2333	-32.4647
 557	1	5	0.307788	-3.17436	43.3877	-33.7452
 558	1	6	-0.129718	-3.30795	40.3206	-31.564
 559	1	6	-0.129089	-4.22947	40.527	-33.4971
 560	1	6	-0.119089	-4.75655	41.8871	-31.8944
 561	1	6	-0.103894	-4.02844	42.9946	-34.7141
 562	1	6	-0.097852	-2.23656	44.1637	-34.3279
 563	1	6	-0.104555	-3.85561	44.217	-32.931
 564	1	3	0.521254	-1.53476	43.7602	-28.0273
 565	1	3	0.53569	0.454757	44.7407	-28.6538
 566	1	4	0.027822	-0.42887	44.4988	-27.6099
 567	1	2	-0.468874	-2.48324	43.395	-27.3586
 568	1	2	-0.477974	1.5028	45.3649	-28.6368
 569	1	1	-0.359831	-0.237427	45.0461	-26.2998
 570	1	1	0.131035	0.583311	44.3585	-25.3762
 571	1	1	-0.120983	0.933079	44.9836	-24.1521
 572	1	1	0.127261	-0.754942	46.3311	-26.0156
 573	1	1	-0.127195	-0.341292	46.9888	-24.8342
 574	1	1	0.144798	0.505926	46.3147	-23.9189
 575	1	5	-0.020676	-1.72677	47.0093	-26.999
 576	1	5	-0.019785	1.1193	42.959	-25.7076
 577	1	7	0.164889	-1.8636	42.1657	-35.7461
 578	1	7	0.175264	-0.863252	40.2875	-31.9352
 579	1	7	0.1582	0.901987	38.9541	-33.0606
 580	1	7	0.150763	1.29363	44.4746	-31.4074
 581	1	7	0.144868	-0.0832499	43.3492	-33.1235
 582	1	7	0.134072	-3.1322	42.4953	-30.1174
 583	1	5	-0.300668	1.73181	44.249	-23.0526
 584	1	5	-0.243237	-0.823664	48.4212	-24.5553
 585	1	9	0.021835	-2.43152	47.6805	-26.4936
 586	1	9	0.012312	-2.35617	46.2806	-27.5291
 587	1	9	0.041777	-1.1846	47.5865	-27.7508
 588	1	9	0.110598	-1.85507	48.42	-24.1749
 589	1	9	0.08293	-0.1992	48.9699	-23.8455
 590	1	9	0.082252	-0.810059	49.0289	-25.4705
 591	1	9	0.027698	2.20384	42.9878	-25.8732
 592	1	9	0.017051	0.673159	42.5074	-26.5994
 593	1	9	0.037874	0.917154	42.2589	-24.8885
 594	1	9	0.095908	1.05108	43.8993	-22.2641
 595	1	9	0.127068	2.27325	43.3704	-23.4169
 596	1	9	0.099095	2.49257	44.883	-22.5812
 597	1	1	-0.024347	13.3362	38.2236	-43.2692
 598	1	1	-0.071478	11.9988	38.3663	-42.8137
 599	1	1	-0.180016	11.7345	39.3317	-41.8007
 600	1	2	-0.370097	16.4343	38.2331	-43.6125
 601	1	1	0.010306	14.3295	39.0469	-42.7272
 602	1	1	-0.071748	12.7354	40.1924	-41.3133
 603	1	2	-0.403598	15.398	41.5939	-40.5768
 604	1	1	0.055994	14.0313	40.0265	-41.8033
 605	1	3	0.021521	15.8083	38.9882	-42.8862
 606	1	4	0.466017	16.3056	39.9583	-42.0167
 607	1	3	0.096621	15.2945	40.6656	-41.3628
 608	1	1	-0.099438	8.10058	40.1284	-43.3573
 609	1	5	-0.089685	10.8752	37.406	-43.2996
 610	1	1	-0.037281	9.4953	38.0988	-43.0683
 611	1	1	-0.08188	9.26367	39.3864	-43.6387
 612	1	1	-0.106561	7.15777	39.5529	-42.5013
 613	1	1	-0.037628	8.47208	37.5268	-42.2664
 614	1	1	-0.12234	7.32853	38.2833	-41.9935
 615	1	5	0.388954	11.0656	36.0639	-42.4876
 616	1	5	0.307788	10.9527	37.0996	-44.8456
 617	1	6	-0.129718	10.2105	35.087	-42.8738
 618	1	6	-0.129089	10.8906	36.2515	-41.1603
 619	1	6	-0.119089	12.3204	35.5684	-42.6075
 620	1	6	-0.103894	11.2291	38.2076	-45.5699
 621	1	6	-0.097852	9.77369	36.6139	-45.2946
 622	1	6	-0.104555	11.8856	36.1893	-45.1927
 623	1	3	0.521254	6.22865	38.0188	-41.0309
 624	1	3	0.53569	5.93666	40.1375	-41.8846
 625	1	4	0.027822	5.45394	39.1834	-40.9825
 626	1	2	-0.468874	6.1103	37.0023	-40.3696
 627	1	2	-0.477974	5.52698	41.2675	-42.0836
 628	1	1	-0.359831	4.36314	39.4031	-40.0502
 629	1	1	0.131035	4.50754	40.3577	-39.0094
 630	1	1	-0.120983	3.45897	40.5828	-38.0892