pySIMM System Object

2978 atoms
3143 bonds
5471 angles
8146 dihedrals
828 impropers

13 atom types
16 bond types
30 angle types
15 dihedral types
4 improper types

-184.754355 184.754355 xlo xhi
-184.754355 184.754355 ylo yhi
-184.754355 184.754355 zlo zhi

Masses

   1	14.01	# n
   2	12.01	# c
   3	12.01	# ca
   4	1.008	# hn
   5	16.0	# o
   6	1.008	# ha
   7	12.01	# c3
   8	19.0	# f
   9	16.0	# os
  10	1.008	# h1
  11	1.008	# hc
  12	16.0	# oh
  13	1.008	# ho

Pair Coeffs

   1	0.17	3.249998523775958	# n
   2	0.086	3.3996695084235347	# c
   3	0.086	3.3996695084235347	# ca
   4	0.0157	1.069078461768407	# hn
   5	0.21	2.959921901149463	# o
   6	0.015	2.59964245953351	# ha
   7	0.1094	3.3996695084235347	# c3
   8	0.061	3.1181455134911875	# f
   9	0.17	3.0000123434657784	# os
  10	0.0157	2.471353044121301	# h1
  11	0.0157	2.649532787749369	# hc
  12	0.2104	3.0664733878390478	# oh
  13	0.0047	0.5379246460131368	# ho

Bond Coeffs

   1	345.8	1.086	# ca,ha
   2	637.7	1.2183	# c,o
   3	427.6	1.3789	# c,n
   4	321.0	1.5156	# c3,ca
   5	300.9	1.5375	# c3,c3
   6	384.2	1.4121	# ca,n
   7	330.6	1.0969	# c3,h1
   8	330.6	1.0969	# c3,hc
   9	316.7	1.4233	# c3,oh
  10	403.2	1.0129	# hn,n
  11	356.9	1.3497	# c3,f
  12	371.4	0.973	# ho,oh
  13	308.6	1.4316	# c3,os
  14	461.1	1.3984	# ca,ca
  15	345.9	1.4906	# c,ca
  16	390.8	1.3584	# c,os

Angle Coeffs

   1	39.4	107.58	# hc,c3,hc
   2	63.53	120.77	# c3,ca,ca
   3	70.89	107.36	# f,c3,f
   4	67.87	120.19	# ca,ca,n
   5	68.0	107.97	# c3,c3,os
   6	66.11	109.24	# c3,c3,f
   7	46.39	109.56	# c3,c3,h1
   8	62.86	111.51	# c3,c3,c3
   9	75.32	123.25	# o,c,os
  10	63.15	112.07	# c3,c3,ca
  11	63.82	123.71	# c,n,ca
  12	63.56	112.24	# ca,c3,ca
  13	46.34	109.8	# c3,c3,hc
  14	67.47	110.19	# c3,c3,oh
  15	47.38	107.26	# c3,oh,ho
  16	39.24	108.46	# h1,c3,h1
  17	69.32	112.44	# ca,c,os
  18	63.74	127.08	# c,n,c
  19	48.18	119.88	# ca,ca,ha
  20	50.93	110.26	# h1,c3,oh
  21	74.22	123.05	# n,c,o
  22	50.8	109.78	# h1,c3,os
  23	63.28	115.98	# c,os,c3
  24	48.33	117.55	# c,n,hn
  25	66.62	120.02	# ca,ca,ca
  26	68.72	122.6	# ca,c,o
  27	67.68	115.25	# ca,c,n
  28	64.28	120.33	# c,ca,ca
  29	49.75	116.02	# ha,ca,n
  30	46.8	110.47	# ca,c3,hc

Dihedral Coeffs

   1	2	0.0	3	0	0.25	1	0	# hc,c3,c3,os
   2	2	2.5	2	180	2.0	1	0	# hn,n,c,o
   3	1	3.625	2	180	# X,ca,ca,X
   4	2	0.0	3	0	0.25	1	0	# hc,c3,c3,oh
   5	1	0.15555555555555556	3	0	# X,c3,c3,X
   6	2	2.7	2	180	1.4	1	180	# o,c,os,c3
   7	1	1.0	2	180	# X,c,ca,X
   8	1	0.0	2	0	# X,c3,ca,X
   9	2	0.16	3	0	0.25	1	0	# ho,oh,c3,c3
  10	2	0.383	3	0	0.8	1	180	# c3,c3,os,c
  11	1	2.5	2	180	# X,c,n,X
  12	1	0.45	2	180	# X,ca,n,X
  13	1	2.7	2	180	# X,c,os,X
  14	1	0.3833333333333333	3	0	# X,c3,os,X
  15	1	0.16666666666666666	3	0	# X,c3,oh,X

Improper Coeffs

   1	1.1	-1	2	# ca,X,X,ha
   2	1.1	-1	2	# n,X,X,hn
   3	1.1	-1	2	# ca,ca,ca,c3
   4	10.5	-1	2	# c,X,X,o

Atoms

   1	1	1	0.478781	-61.3435	78.3514	-6.14963
   2	1	2	0.051808	-60.4546	78.1593	-7.21456
   3	1	3	-0.015342	-59.1514	78.6811	-6.73316
   4	1	2	0.052802	-60.714	78.9024	-5.02734
   5	1	3	0.058525	-59.3044	79.1107	-5.43318
   6	1	5	-0.381395	-60.6663	77.687	-8.32084
   7	1	5	-0.387279	-61.2041	79.2167	-3.95456
   8	1	3	-0.003007	-57.9372	78.8128	-7.41475
   9	1	3	-0.04277	-58.2388	79.6658	-4.72302
  10	1	3	-0.203298	-57.0017	79.7993	-5.38516
  11	1	3	-0.057014	-56.8343	79.4114	-6.74588
  12	1	6	0.158736	-57.8938	78.4785	-8.44472
  13	1	6	0.155574	-58.376	79.9973	-3.69643
  14	1	6	0.172835	-56.1703	80.2428	-4.84094
  15	1	7	-0.114348	-55.4633	79.6714	-7.44228
  16	1	7	0.394993	-54.4869	78.5526	-6.91769
  17	1	8	-0.128918	-55.0373	77.3197	-7.01828
  18	1	8	-0.12014	-54.1813	78.7329	-5.61313
  19	1	8	-0.128671	-53.3174	78.5009	-7.59162
  20	1	7	0.329225	-55.5321	79.6147	-9.0158
  21	1	8	-0.1084	-54.385	80.0538	-9.58247
  22	1	8	-0.10772	-56.5115	80.4113	-9.50105
  23	1	8	-0.098105	-55.7482	78.3701	-9.49836
  24	1	3	-0.04356	-55.0045	81.1187	-7.09562
  25	1	3	-0.061005	-55.9787	82.1502	-7.06263
  26	1	3	-0.036586	-55.5893	83.4472	-6.72163
  27	1	3	-0.073054	-53.646	81.4642	-6.83509
  28	1	3	-0.129461	-53.2722	82.7831	-6.50824
  29	1	3	-0.055433	-54.2736	83.7568	-6.45518
  30	1	2	0.497443	-54.2066	85.1945	-6.08583
  31	1	1	-0.091283	-55.5149	85.653	-6.13295
  32	1	2	0.442461	-56.4101	84.6677	-6.51666
  33	1	3	0.056821	-55.9182	86.9407	-5.69458
  34	1	3	-0.175202	-55.5851	87.3439	-4.39339
  35	1	3	-0.086463	-55.9876	88.5974	-3.88575
  36	1	3	-0.120823	-56.6655	87.7989	-6.51484
  37	1	3	-0.147764	-57.0693	89.0558	-6.03127
  38	1	3	-0.091348	-56.7327	89.4537	-4.72279
  39	1	2	0.723311	-55.6105	88.9705	-2.47558
  40	1	6	0.16273	-52.239	83.0413	-6.28714
  41	1	6	0.144736	-52.8583	80.7207	-6.87419
  42	1	6	0.138526	-57.027	81.9507	-7.26793
  43	1	5	-0.452878	-57.6209	84.7503	-6.60846
  44	1	5	-0.478383	-53.2004	85.8199	-5.78648
  45	1	6	0.14723	-57.6576	89.7167	-6.66457
  46	1	6	0.161782	-55.018	86.6613	-3.77409
  47	1	6	0.150279	-56.9567	87.4818	-7.51111
  48	1	6	0.142321	-57.0681	90.4217	-4.35761
  49	1	5	-0.564646	-54.8894	88.2729	-1.77396
  50	1	9	-0.344773	-56.1435	90.1399	-2.03947
  51	1	7	-0.038703	120.571	98.9207	-136.799
  52	1	10	0.090446	-178.316	-147.079	-165.538
  53	1	10	0.070639	19.5231	112.299	0.674696
  54	1	11	0.018298	119.659	98.913	-136.188
  55	1	11	0.032617	120.335	99.4027	-137.757
  56	1	7	0.364059	121.694	99.6915	-136.082
  57	1	10	-0.049335	121.923	99.2006	-135.131
  58	1	12	-0.72623	121.291	101.035	-135.843
  59	1	10	0.033772	122.599	99.6754	-136.704
  60	1	13	0.432586	120.615	101.01	-135.143
  61	1	1	0.478781	-70.4077	66.3846	-11.0515
  62	1	2	0.051808	-69.2392	66.6846	-11.7465
  63	1	3	-0.015342	-68.9883	68.1202	-11.4786
  64	1	2	0.052802	-70.9307	67.4789	-10.3651
  65	1	3	0.058525	-69.9839	68.5909	-10.6465
  66	1	5	-0.381395	-68.5587	65.9459	-12.4387
  67	1	5	-0.387279	-71.9538	67.5379	-9.70271
  68	1	3	-0.003007	-67.9763	68.9491	-11.9706
  69	1	3	-0.04277	-70.0034	69.9262	-10.236
  70	1	3	-0.203298	-68.9782	70.7769	-10.7043
  71	1	3	-0.057014	-67.9544	70.3142	-11.5788
  72	1	6	0.158736	-67.2515	68.515	-12.6503
  73	1	6	0.155574	-70.7968	70.2903	-9.587
  74	1	6	0.172835	-68.9957	71.8204	-10.3976
  75	1	7	-0.114348	-66.9038	71.3316	-12.1181
  76	1	7	0.394993	-65.6476	70.6461	-12.7839
  77	1	8	-0.128918	-64.6585	71.5367	-13.0213
  78	1	8	-0.12014	-65.9284	70.055	-13.9669
  79	1	8	-0.128671	-65.1048	69.6972	-11.987
  80	1	7	0.329225	-67.651	72.2011	-13.2026
  81	1	8	-0.1084	-68.5612	73.0318	-12.6452
  82	1	8	-0.10772	-68.3391	71.4246	-14.0724
  83	1	8	-0.098105	-66.8173	72.9638	-13.9457
  84	1	3	-0.04356	-66.3573	72.1617	-10.9191
  85	1	3	-0.061005	-66.144	73.5672	-10.975
  86	1	3	-0.036586	-65.6107	74.2184	-9.8515
  87	1	3	-0.073054	-66.001	71.4723	-9.72622
  88	1	3	-0.129461	-65.4657	72.1438	-8.61114
  89	1	3	-0.055433	-65.2808	73.5258	-8.70655
  90	1	2	0.497443	-64.7448	74.4916	-7.71338
  91	1	1	-0.091283	-64.7853	75.7368	-8.32849
  92	1	2	0.442461	-65.2955	75.6574	-9.62263
  93	1	3	0.056821	-64.3656	76.9423	-7.68818
  94	1	3	-0.175202	-65.145	78.1075	-7.76736
  95	1	3	-0.086463	-64.7125	79.3018	-7.15518
  96	1	3	-0.120823	-63.1651	76.9758	-6.95324
  97	1	3	-0.147764	-62.7568	78.116	-6.22677
  98	1	3	-0.091348	-63.511	79.293	-6.41934
  99	1	2	0.723311	-65.4932	80.5889	-7.27855
 100	1	6	0.16273	-65.1974	71.6089	-7.70221
 101	1	6	0.144736	-66.1386	70.3956	-9.66155
 102	1	6	0.138526	-66.3694	74.1584	-11.8568
 103	1	5	-0.452878	-65.4843	76.5661	-10.4112
 104	1	5	-0.478383	-64.3585	74.2217	-6.58924
 105	1	6	0.14723	-62.8752	77.8478	-5.18048
 106	1	6	0.161782	-66.0716	78.0958	-8.33695
 107	1	6	0.150279	-62.5466	76.0801	-6.92026
 108	1	6	0.142321	-63.1787	80.221	-5.9526
 109	1	5	-0.564646	-65.107	81.6398	-6.79667
 110	1	9	-0.344773	-66.6829	80.4752	-7.93004
 111	1	7	-0.038703	149.319	-71.1389	95.7584
 112	1	10	0.090446	39.7138	112.24	169.345
 113	1	10	0.070639	170.522	114.095	-48.9292
 114	1	11	0.018298	149.213	-70.0722	95.9921
 115	1	11	0.032617	150.006	-71.5698	96.4953
 116	1	7	0.364059	147.953	-71.837	95.8507
 117	1	10	-0.049335	148.086	-72.9174	95.7244
 118	1	12	-0.72623	147.096	-71.3471	94.8312
 119	1	10	0.033772	147.512	-71.6549	96.84
 120	1	13	0.432586	147.443	-71.688	93.9864
 121	1	3	-0.024347	-73.7989	52.8932	-10.8472
 122	1	3	-0.071478	-73.9663	54.1387	-11.5173
 123	1	3	-0.180016	-75.294	54.5622	-11.8137
 124	1	5	-0.370097	-74.0968	50.2242	-9.28271
 125	1	3	0.010306	-74.9314	52.1667	-10.4601
 126	1	3	-0.071748	-76.4229	53.8135	-11.4149
 127	1	5	-0.403598	-78.3944	51.7785	-10.1033
 128	1	3	0.055994	-76.2084	52.6207	-10.7162
 129	1	2	0.021521	-75.0282	50.9012	-9.68543
 130	1	1	0.466017	-76.3931	50.6984	-9.4826
 131	1	2	0.096621	-77.1785	51.6754	-10.0964
 132	1	3	-0.099438	-73.9576	58.0782	-9.80771
 133	1	7	-0.089685	-72.7681	55.0468	-11.9506
 134	1	3	-0.037281	-73.051	56.5177	-11.5072
 135	1	3	-0.08188	-73.7413	56.7699	-10.2859
 136	1	3	-0.106561	-73.4473	59.1425	-10.5547
 137	1	3	-0.037628	-72.5369	57.6323	-12.2256
 138	1	3	-0.12234	-72.7479	58.9236	-11.7231
 139	1	7	0.388954	-72.6275	54.8866	-13.5158
 140	1	7	0.307788	-71.4044	54.6472	-11.2672
 141	1	8	-0.129718	-71.457	55.3493	-14.0109
 142	1	8	-0.129089	-73.6173	55.5337	-14.1723
 143	1	8	-0.119089	-72.7017	53.5878	-13.8883
 144	1	8	-0.103894	-70.4348	55.5633	-11.4867
 145	1	8	-0.097852	-70.9174	53.4657	-11.7084
 146	1	8	-0.104555	-71.5296	54.5638	-9.92432
 147	1	2	0.521254	-72.2024	60.2297	-12.1845
 148	1	2	0.53569	-73.3937	60.5946	-10.2406
 149	1	1	0.027822	-72.5898	61.1634	-11.2255
 150	1	5	-0.468874	-71.4663	60.3999	-13.1416
 151	1	5	-0.477974	-73.8635	61.1284	-9.25002
 152	1	3	-0.359831	-72.0756	62.5019	-11.1599
 153	1	3	0.131035	-71.0212	62.7869	-10.2595
 154	1	3	-0.120983	-70.5089	64.1016	-10.1746
 155	1	3	0.127261	-72.6027	63.5081	-12.0005
 156	1	3	-0.127195	-72.0306	64.8008	-11.9816
 157	1	3	0.144798	-70.9974	65.0911	-11.0595
 158	1	7	-0.020676	-73.7635	63.1973	-12.9507
 159	1	7	-0.019785	-70.4339	61.6773	-9.37587
 160	1	6	0.164889	-72.8268	52.4816	-10.5986
 161	1	6	0.175264	-75.4563	55.4994	-12.342
 162	1	6	0.1582	-77.4355	54.1566	-11.6189
 163	1	6	0.150763	-74.4648	58.257	-8.86089
 164	1	6	0.144868	-74.095	55.9415	-9.67845
 165	1	6	0.134072	-71.9397	57.5174	-13.1245
 166	1	7	-0.300668	-69.4099	64.4473	-9.15392
 167	1	7	-0.243237	-72.5332	65.8943	-12.9402
 168	1	11	0.021835	-74.3393	62.3132	-12.6563
 169	1	11	0.012312	-73.3939	63.0281	-13.9702
 170	1	11	0.041777	-74.4844	64.023	-12.9824
 171	1	11	0.110598	-72.9183	65.4848	-13.8816
 172	1	11	0.08293	-73.3387	66.4778	-12.476
 173	1	11	0.082252	-71.745	66.5936	-13.2424
 174	1	11	0.027698	-70.5227	60.6808	-9.82191
 175	1	11	0.017051	-70.9342	61.6528	-8.39935
 176	1	11	0.037874	-69.3607	61.815	-9.20154
 177	1	11	0.095908	-69.5512	63.9086	-8.20816
 178	1	11	0.127068	-68.4167	64.185	-9.54394
 179	1	11	0.099095	-69.3896	65.5071	-8.8743
 180	1	3	-0.024347	-81.2531	41.0022	-2.51951
 181	1	3	-0.071478	-81.5577	42.0082	-1.56322
 182	1	3	-0.180016	-81.659	41.6187	-0.193774
 183	1	5	-0.370097	-80.5574	38.4229	-4.06933
 184	1	3	0.010306	-81.0369	39.6877	-2.08375
 185	1	3	-0.071748	-81.4272	40.292	0.22203
 186	1	5	-0.403598	-80.7247	37.2875	0.443877
 187	1	3	0.055994	-81.1075	39.3459	-0.751545
 188	1	2	0.021521	-80.6871	38.4681	-2.85679
 189	1	1	0.466017	-80.5419	37.4429	-1.90665
 190	1	2	0.096621	-80.7862	37.9051	-0.607545
 191	1	3	-0.099438	-78.2435	44.0874	-3.42098
 192	1	7	-0.089685	-81.8284	43.4675	-2.05371
 193	1	3	-0.037281	-80.6792	43.931	-2.99943
 194	1	3	-0.08188	-79.3365	43.5714	-2.69336
 195	1	3	-0.106561	-78.5103	44.9769	-4.46666
 196	1	3	-0.037628	-80.9033	44.8315	-4.07846
 197	1	3	-0.12234	-79.8031	45.3291	-4.79139
 198	1	7	0.388954	-81.8619	44.5233	-0.882555
 199	1	7	0.307788	-83.2362	43.4379	-2.76174
 200	1	8	-0.129718	-80.7538	44.443	-0.111968
 201	1	8	-0.129089	-82.9359	44.3846	-0.0717181
 202	1	8	-0.119089	-81.8943	45.7949	-1.34271
 203	1	8	-0.103894	-84.1375	42.7433	-2.02972
 204	1	8	-0.097852	-83.1756	42.8351	-3.97078
 205	1	8	-0.104555	-83.7746	44.6632	-2.95629
 206	1	2	0.521254	-79.742	46.3498	-5.8736
 207	1	2	0.53569	-77.5796	45.7679	-5.31915
 208	1	1	0.027822	-78.3873	46.579	-6.11313
 209	1	5	-0.468874	-80.6965	46.9375	-6.35204
 210	1	5	-0.477974	-76.3633	45.7744	-5.23329
 211	1	3	-0.359831	-77.8848	47.6149	-6.97548
 212	1	3	0.131035	-77.6428	48.902	-6.43818
 213	1	3	-0.120983	-77.1089	49.9189	-7.26738
 214	1	3	0.127261	-77.6395	47.3455	-8.3432
 215	1	3	-0.127195	-77.1899	48.3853	-9.19406
 216	1	3	0.144798	-76.9109	49.6631	-8.6484
 217	1	7	-0.020676	-77.8766	45.9408	-8.91417
 218	1	7	-0.019785	-77.9415	49.192	-4.95863
 219	1	6	0.164889	-81.1788	41.2295	-3.58058
 220	1	6	0.175264	-81.9178	42.3308	0.582072
 221	1	6	0.1582	-81.4913	40.0024	1.26842
 222	1	6	0.150763	-77.2187	43.8369	-3.15505
 223	1	6	0.144868	-79.1279	42.9201	-1.84858
 224	1	6	0.134072	-81.8929	45.1922	-4.34033
 225	1	7	-0.300668	-76.7537	51.2921	-6.66773
 226	1	7	-0.243237	-76.9819	48.1178	-10.6944
 227	1	11	0.021835	-77.8804	45.1565	-8.14887
 228	1	11	0.012312	-77.0903	45.6569	-9.62496
 229	1	11	0.041777	-78.8398	45.8954	-9.43819
 230	1	11	0.110598	-76.0019	47.656	-10.8762
 231	1	11	0.08293	-77.7481	47.4445	-11.0987
 232	1	11	0.082252	-77.043	49.0226	-11.3103
 233	1	11	0.027698	-77.0398	49.0583	-4.34803
 234	1	11	0.017051	-78.7226	48.5485	-4.53969
 235	1	11	0.037874	-78.3025	50.2164	-4.81017
 236	1	11	0.095908	-77.6475	51.9251	-6.59023
 237	1	11	0.127068	-76.3249	51.1941	-5.6624
 238	1	11	0.099095	-76.0028	51.8466	-7.24143
 239	1	1	0.478781	-85.5868	22.3928	-0.472159
 240	1	2	0.051808	-86.2843	23.3762	0.242728
 241	1	3	-0.015342	-85.4696	24.6084	0.135562
 242	1	2	0.052802	-84.3975	22.8974	-1.02392
 243	1	3	0.058525	-84.3462	24.3258	-0.608685
 244	1	5	-0.381395	-87.3405	23.275	0.845617
 245	1	5	-0.387279	-83.5632	22.3294	-1.71186
 246	1	3	-0.003007	-85.7109	25.8784	0.668526
 247	1	3	-0.04277	-83.3788	25.3072	-0.845666
 248	1	3	-0.203298	-83.5951	26.5962	-0.31078
 249	1	3	-0.057014	-84.768	26.9146	0.433881
 250	1	6	0.158736	-86.6143	26.0208	1.24991
 251	1	6	0.155574	-82.4838	25.0691	-1.42043
 252	1	6	0.172835	-82.8358	27.3575	-0.480171
 253	1	7	-0.114348	-84.9494	28.3532	1.00788
 254	1	7	0.394993	-86.4516	28.7125	1.33216
 255	1	8	-0.128918	-86.6048	30.0349	1.56859
 256	1	8	-0.12014	-86.9353	28.0748	2.42144
 257	1	8	-0.128671	-87.2754	28.4136	0.302979
 258	1	7	0.329225	-84.1132	28.4086	2.34184
 259	1	8	-0.1084	-84.4061	27.3715	3.15959
 260	1	8	-0.10772	-84.3293	29.5387	3.05366
 261	1	8	-0.098105	-82.7845	28.3298	2.10292
 262	1	3	-0.04356	-84.4713	29.375	-0.0664186
 263	1	3	-0.061005	-83.5906	30.4534	0.224043
 264	1	3	-0.036586	-83.1774	31.2907	-0.819458
 265	1	3	-0.073054	-84.9325	29.2254	-1.40463
 266	1	3	-0.129461	-84.5122	30.0857	-2.43849
 267	1	3	-0.055433	-83.6181	31.1106	-2.11295
 268	1	2	0.497443	-82.9532	32.1237	-2.97585
 269	1	1	-0.091283	-82.1282	32.8591	-2.13185
 270	1	2	0.442461	-82.2214	32.4293	-0.812379
 271	1	3	0.056821	-81.235	33.8818	-2.56963
 272	1	3	-0.175202	-80.3786	33.6511	-3.65953
 273	1	3	-0.086463	-79.4608	34.6361	-4.07129
 274	1	3	-0.120823	-81.1592	35.1109	-1.88541
 275	1	3	-0.147764	-80.1741	36.0788	-2.19119
 276	1	3	-0.091348	-79.4053	35.8508	-3.35566
 277	1	2	0.723311	-78.5414	34.3761	-5.24354
 278	1	6	0.16273	-84.8517	29.9494	-3.46439
 279	1	6	0.144736	-85.6086	28.4121	-1.65614
 280	1	6	0.138526	-83.2027	30.6474	1.2182
 281	1	5	-0.452878	-81.624	32.8577	0.159478
 282	1	5	-0.478383	-83.1014	32.2446	-4.17863
 283	1	6	0.14723	-79.4603	36.0092	-1.37391
 284	1	6	0.161782	-80.4237	32.7064	-4.20032
 285	1	6	0.150279	-81.8201	35.2742	-1.03446
 286	1	6	0.142321	-78.7071	36.6216	-3.68178
 287	1	5	-0.564646	-78.5803	33.3542	-5.90772
 288	1	9	-0.344773	-77.6025	35.3413	-5.44387
 289	1	7	-0.038703	25.4598	43.4098	-1.05106
 290	1	10	0.090446	-34.794	119.913	30.4285
 291	1	10	0.070639	-6.39504	-29.9231	102.99
 292	1	11	0.018298	26.2431	43.3511	-1.81702
 293	1	11	0.032617	25.1827	42.3865	-0.769535
 294	1	7	0.364059	25.9668	44.1751	0.181754
 295	1	10	-0.049335	26.2281	45.199	-0.110102
 296	1	12	-0.72623	27.1104	43.531	0.730504
 297	1	10	0.033772	25.1665	44.2235	0.931348
 298	1	13	0.432586	27.8435	43.677	0.108377
 299	1	1	0.478781	-79.1827	7.84184	-2.58913
 300	1	2	0.051808	-78.446	9.00281	-2.84186
 301	1	3	-0.015342	-79.445	10.082	-3.01227
 302	1	2	0.052802	-80.5632	8.08473	-2.58294
 303	1	3	0.058525	-80.7012	9.54022	-2.85174
 304	1	5	-0.381395	-77.2337	9.1332	-2.89592
 305	1	5	-0.387279	-81.4849	7.30561	-2.39317
 306	1	3	-0.003007	-79.2499	11.4376	-3.29552
 307	1	3	-0.04277	-81.8443	10.3367	-2.95271
 308	1	3	-0.203298	-81.6725	11.7098	-3.2329
 309	1	3	-0.057014	-80.3826	12.2876	-3.40422
 310	1	6	0.158736	-78.2333	11.7874	-3.43819
 311	1	6	0.155574	-82.8358	9.89685	-2.83351
 312	1	6	0.172835	-82.5616	12.3293	-3.34522
 313	1	7	-0.114348	-80.2685	13.7883	-3.80886
 314	1	7	0.394993	-80.5311	13.8296	-5.36137
 315	1	8	-0.128918	-81.8153	13.5235	-5.65618
 316	1	8	-0.12014	-79.7676	12.9229	-6.01572
 317	1	8	-0.128671	-80.2667	15.0356	-5.91375
 318	1	7	0.329225	-78.8476	14.4149	-3.51619
 319	1	8	-0.1084	-78.8611	15.7578	-3.6657
 320	1	8	-0.10772	-77.871	13.9566	-4.33111
 321	1	8	-0.098105	-78.4448	14.179	-2.24684
 322	1	3	-0.04356	-81.2949	14.6219	-2.97876
 323	1	3	-0.061005	-82.1328	15.6213	-3.55059
 324	1	3	-0.036586	-82.976	16.3674	-2.71326
 325	1	3	-0.073054	-81.3545	14.4246	-1.57017
 326	1	3	-0.129461	-82.1974	15.1966	-0.743841
 327	1	3	-0.055433	-82.9982	16.1713	-1.34881
 328	1	2	0.497443	-83.9605	17.1414	-0.756501
 329	1	1	-0.091283	-84.4681	17.8698	-1.82264
 330	1	2	0.442461	-83.9337	17.4631	-3.03729
 331	1	3	0.056821	-85.4243	18.9121	-1.67131
 332	1	3	-0.175202	-86.6852	18.8154	-2.27994
 333	1	3	-0.086463	-87.6441	19.834	-2.10176
 334	1	3	-0.120823	-85.1235	20.0333	-0.877372
 335	1	3	-0.147764	-86.0763	21.0455	-0.613823
 336	1	3	-0.091348	-87.3099	20.9443	-1.29979
 337	1	2	0.723311	-89.0173	19.7576	-2.73186
 338	1	6	0.16273	-82.2219	15.0495	0.335633
 339	1	6	0.144736	-80.7214	13.6735	-1.10362
 340	1	6	0.138526	-82.1364	15.845	-4.61145
 341	1	5	-0.452878	-84.1959	17.8892	-4.14702
 342	1	5	-0.478383	-84.2363	17.2599	0.424836
 343	1	6	0.14723	-86.3137	20.9508	0.44265
 344	1	6	0.161782	-86.9159	17.9481	-2.89606
 345	1	6	0.150279	-84.1395	20.0937	-0.415959
 346	1	6	0.142321	-88.0599	21.7253	-1.16896
 347	1	5	-0.564646	-89.8952	20.5752	-2.51151
 348	1	9	-0.344773	-89.2074	18.6869	-3.54862
 349	1	7	-0.038703	-31.0877	-50.1223	-12.8342
 350	1	10	0.090446	-180.072	180.603	-6.00037
 351	1	10	0.070639	60.4837	115.112	-45.2561
 352	1	11	0.018298	-31.41	-50.4981	-13.8128
 353	1	11	0.032617	-31.9446	-50.1771	-12.1527
 354	1	7	0.364059	-29.9283	-50.976	-12.2943
 355	1	10	-0.049335	-29.083	-50.9247	-12.9907
 356	1	12	-0.72623	-30.3439	-52.3293	-12.1486
 357	1	10	0.033772	-29.5992	-50.5718	-11.3278
 358	1	13	0.432586	-29.5456	-52.8512	-11.9551
 359	1	1	0.478781	-71.4237	9.63296	-9.61321
 360	1	2	0.051808	-70.7762	8.5215	-9.0378
 361	1	3	-0.015342	-71.6368	7.34406	-9.34007
 362	1	2	0.052802	-72.6052	9.24069	-10.2628
 363	1	3	0.058525	-72.7443	7.7848	-10.0263
 364	1	5	-0.381395	-69.7512	8.47499	-8.37585
 365	1	5	-0.387279	-73.3598	9.91263	-10.9467
 366	1	3	-0.003007	-71.4626	5.98783	-9.02365
 367	1	3	-0.04277	-73.7768	6.91593	-10.3822
 368	1	3	-0.203298	-73.6445	5.55936	-10.0284
 369	1	3	-0.057014	-72.4866	5.05831	-9.37018
 370	1	6	0.158736	-70.5553	5.70292	-8.50242
 371	1	6	0.155574	-74.6591	7.28807	-10.9018
 372	1	6	0.172835	-74.4699	4.89268	-10.2647
 373	1	7	-0.114348	-72.4576	3.54229	-8.99298
 374	1	7	0.394993	-71.2009	3.12788	-8.13574
 375	1	8	-0.128918	-71.2759	1.84605	-7.70966
 376	1	8	-0.12014	-70.0409	3.25723	-8.81762
 377	1	8	-0.128671	-71.0814	3.8682	-7.01239
 378	1	7	0.329225	-72.4413	2.70021	-10.3378
 379	1	8	-0.1084	-71.4818	3.1415	-11.1822
 380	1	8	-0.10772	-73.6105	2.77007	-11.0154
 381	1	8	-0.098105	-72.2059	1.37995	-10.1579
 382	1	3	-0.04356	-73.7084	3.28807	-8.10492
 383	1	3	-0.061005	-74.0098	4.22198	-7.07838
 384	1	3	-0.036586	-75.1377	4.01629	-6.27933
 385	1	3	-0.073054	-74.5594	2.15531	-8.25528
 386	1	3	-0.129461	-75.7001	1.97618	-7.44556
 387	1	3	-0.055433	-75.9689	2.93545	-6.46465
 388	1	2	0.497443	-77.0826	3.03286	-5.48434
 389	1	1	-0.091283	-76.8383	4.18705	-4.74631
 390	1	2	0.442461	-75.6733	4.82451	-5.15808
 391	1	3	0.056821	-77.6535	4.66252	-3.67711
 392	1	3	-0.175202	-78.1772	3.77291	-2.7255
 393	1	3	-0.086463	-78.9777	4.24971	-1.66611
 394	1	3	-0.120823	-77.9121	6.03914	-3.53531
 395	1	3	-0.147764	-78.5511	6.56652	-2.3915
 396	1	3	-0.091348	-79.1958	5.63661	-1.54721
 397	1	2	0.723311	-79.601	3.31426	-0.657747
 398	1	6	0.16273	-76.3564	1.11701	-7.57357
 399	1	6	0.144736	-74.356	1.39814	-9.00359
 400	1	6	0.138526	-73.3875	5.0996	-6.89998
 401	1	5	-0.452878	-75.1599	5.82538	-4.69107
 402	1	5	-0.478383	-78.0197	2.26081	-5.39443
 403	1	6	0.14723	-77.7327	6.93718	-1.78152
 404	1	6	0.161782	-77.9841	2.70638	-2.82137
 405	1	6	0.150279	-77.512	6.73092	-4.27816
 406	1	6	0.142321	-79.8311	5.99661	-0.739326
 407	1	5	-0.564646	-80.1953	3.70543	0.332622
 408	1	9	-0.344773	-79.4223	1.99384	-0.930433
 409	1	7	-0.038703	-57.0729	82.7645	-3.18936
 410	1	10	0.090446	40.5896	13.9364	12.948
 411	1	10	0.070639	-27.6961	87.0878	-183.579
 412	1	11	0.018298	-57.9589	82.541	-2.5831
 413	1	11	0.032617	-57.4258	83.1564	-4.15047
 414	1	7	0.364059	-56.2083	83.8195	-2.48137
 415	1	10	-0.049335	-56.7702	84.7563	-2.38726
 416	1	12	-0.72623	-55.0218	84.0427	-3.22846
 417	1	10	0.033772	-55.9601	83.467	-1.47113
 418	1	13	0.432586	-54.4739	84.6677	-2.66963
 419	1	1	0.478781	-57.3995	11.9452	-3.19786
 420	1	2	0.051808	-58.3392	10.9596	-2.90605
 421	1	3	-0.015342	-59.6346	11.4971	-3.38195
 422	1	2	0.052802	-57.958	13.0593	-3.82638
 423	1	3	0.058525	-59.4146	12.7549	-3.90921
 424	1	5	-0.381395	-58.1658	9.88669	-2.35216
 425	1	5	-0.387279	-57.4024	14.076	-4.2096
 426	1	3	-0.003007	-60.9132	10.9325	-3.29259
 427	1	3	-0.04277	-60.4763	13.5307	-4.37463
 428	1	3	-0.203298	-61.7782	12.9895	-4.28076
 429	1	3	-0.057014	-62.0262	11.6878	-3.75203
 430	1	6	0.158736	-61.0182	9.95524	-2.82983
 431	1	6	0.155574	-60.2997	14.5288	-4.76907
 432	1	6	0.172835	-62.6123	13.6048	-4.60811
 433	1	7	-0.114348	-63.5006	11.1931	-3.60283
 434	1	7	0.394993	-63.6435	9.62396	-3.46652
 435	1	8	-0.128918	-64.9224	9.21201	-3.6409
 436	1	8	-0.12014	-62.9251	8.9817	-4.41385
 437	1	8	-0.128671	-63.2489	9.14462	-2.26312
 438	1	7	0.329225	-64.0383	11.8767	-2.28917
 439	1	8	-0.1084	-65.1953	11.3445	-1.83687
 440	1	8	-0.10772	-63.1495	11.7645	-1.27406
 441	1	8	-0.098105	-64.2471	13.2013	-2.46111
 442	1	3	-0.04356	-64.3081	11.5753	-4.88166
 443	1	3	-0.061005	-65.6762	11.9604	-4.83655
 444	1	3	-0.036586	-66.3681	12.1491	-6.04156
 445	1	3	-0.073054	-63.7032	11.3966	-6.15789
 446	1	3	-0.129461	-64.4128	11.6058	-7.35776
 447	1	3	-0.055433	-65.7561	11.9805	-7.26523
 448	1	2	0.497443	-66.7891	12.1174	-8.32623
 449	1	1	-0.091283	-67.9915	12.324	-7.66058
 450	1	2	0.442461	-67.8171	12.3896	-6.28079
 451	1	3	0.056821	-69.2805	12.29	-8.27157
 452	1	3	-0.175202	-70.2646	13.2143	-7.88742
 453	1	3	-0.086463	-71.6029	13.0332	-8.2891
 454	1	3	-0.120823	-69.6308	11.228	-9.1286
 455	1	3	-0.147764	-70.9605	11.0076	-9.57448
 456	1	3	-0.091348	-71.9273	11.9307	-9.10601
 457	1	2	0.723311	-72.7121	13.9304	-7.78445
 458	1	6	0.16273	-63.9513	11.4273	-8.32944
 459	1	6	0.144736	-62.6737	11.0507	-6.22328
 460	1	6	0.138526	-66.2277	12.0437	-3.90557
 461	1	5	-0.452878	-68.6733	12.5127	-5.42097
 462	1	5	-0.478383	-66.6055	11.9904	-9.52455
 463	1	6	0.14723	-70.9498	11.0757	-10.6582
 464	1	6	0.161782	-70.008	14.0211	-7.203
 465	1	6	0.150279	-68.8521	10.5235	-9.41164
 466	1	6	0.142321	-72.9751	11.8	-9.37728
 467	1	5	-0.564646	-73.8881	13.7259	-8.03259
 468	1	9	-0.344773	-72.3074	14.9447	-6.97252
 469	1	7	-0.038703	101.015	-152.164	155.342
 470	1	10	0.090446	22.1666	94.2549	-61.7873
 471	1	10	0.070639	-72.9145	-168.511	-154.723
 472	1	11	0.018298	100.47	-151.303	154.934
 473	1	11	0.032617	100.736	-153.048	154.754
 474	1	7	0.364059	102.532	-151.929	155.249
 475	1	10	-0.049335	102.805	-151.068	155.867
 476	1	12	-0.72623	102.905	-151.681	153.898
 477	1	10	0.033772	103.061	-152.811	155.634
 478	1	13	0.432586	102.576	-150.794	153.673
 479	1	3	-0.024347	-45.1717	6.80627	0.733111
 480	1	3	-0.071478	-46.0477	7.93211	0.805856
 481	1	3	-0.180016	-46.629	8.25306	2.06533
 482	1	5	-0.370097	-43.5837	4.1457	1.24941
 483	1	3	0.010306	-44.9552	6.03476	1.89349
 484	1	3	-0.071748	-46.3774	7.48443	3.22225
 485	1	5	-0.403598	-45.5642	5.32361	5.28218
 486	1	3	0.055994	-45.5436	6.36946	3.09804
 487	1	2	0.021521	-44.2137	4.75247	2.09693
 488	1	1	0.466017	-44.4318	4.39139	3.43183
 489	1	2	0.096621	-45.2032	5.33807	4.11214
 490	1	3	-0.099438	-50.1703	7.72053	-0.220482
 491	1	7	-0.089685	-46.453	8.79919	-0.432469
 492	1	3	-0.037281	-48.0066	8.90262	-0.439886
 493	1	3	-0.08188	-48.7647	7.73046	-0.159703
 494	1	3	-0.106561	-50.8081	8.89259	-0.628144
 495	1	3	-0.037628	-48.6993	10.0839	-0.821774
 496	1	3	-0.12234	-50.0963	10.0404	-0.926795
 497	1	7	0.388954	-46.0571	8.17	-1.82122
 498	1	7	0.307788	-45.7275	10.1939	-0.311462
 499	1	8	-0.129718	-44.7205	8.17817	-2.04756
 500	1	8	-0.129089	-46.6209	8.85273	-2.84196
 501	1	8	-0.119089	-46.4994	6.89541	-1.93619
 502	1	8	-0.103894	-46.2515	10.9335	0.690997
 503	1	8	-0.097852	-45.7957	10.9375	-1.43837
 504	1	8	-0.104555	-44.4087	10.054	-0.0522133
 505	1	2	0.521254	-51.0591	11.0606	-1.42679
 506	1	2	0.53569	-52.2415	9.12917	-0.922173
 507	1	1	0.027822	-52.299	10.4255	-1.42237
 508	1	5	-0.468874	-50.7924	12.1922	-1.79551
 509	1	5	-0.477974	-53.1448	8.3103	-0.842335
 510	1	3	-0.359831	-53.507	10.9881	-1.92876
 511	1	3	0.131035	-54.3763	11.6646	-1.05106
 512	1	3	-0.120983	-55.637	12.0889	-1.52097
 513	1	3	0.127261	-53.8573	10.7606	-3.27821
 514	1	3	-0.127195	-55.1374	11.1529	-3.73716
 515	1	3	0.144798	-56.0314	11.7836	-2.84228
 516	1	7	-0.020676	-52.8755	10.05	-4.22158
 517	1	7	-0.019785	-53.9992	11.8945	0.415526
 518	1	6	0.164889	-44.7	6.4925	-0.192853
 519	1	6	0.175264	-47.3039	9.10088	2.14706
 520	1	6	0.1582	-46.8365	7.72512	4.17907
 521	1	6	0.150763	-50.7402	6.81553	-0.0193932
 522	1	6	0.144868	-48.2587	6.80205	0.0961686
 523	1	6	0.134072	-48.1851	10.9977	-1.09992
 524	1	7	-0.300668	-56.6163	12.7959	-0.576733
 525	1	7	-0.243237	-55.5699	10.8673	-5.18451
 526	1	11	0.021835	-53.139	8.9911	-4.33167
 527	1	11	0.012312	-51.8348	10.0926	-3.88464
 528	1	11	0.041777	-52.88	10.5026	-5.21909
 529	1	11	0.110598	-55.2239	9.88127	-5.52365
 530	1	11	0.08293	-56.6542	10.8684	-5.34266
 531	1	11	0.082252	-55.1456	11.6179	-5.8633
 532	1	11	0.027698	-53.8419	12.9626	0.608236
 533	1	11	0.017051	-53.0886	11.3783	0.736187
 534	1	11	0.037874	-54.7961	11.5416	1.08178
 535	1	11	0.095908	-57.1812	12.0625	0.0150639
 536	1	11	0.127068	-56.0999	13.4659	0.122303
 537	1	11	0.099095	-57.3374	13.4357	-1.09949
 538	1	1	0.478781	-41.5558	-6.37812	-3.97892
 539	1	2	0.051808	-42.0918	-5.36099	-3.1873
 540	1	3	-0.015342	-43.0251	-6.03742	-2.2422
 541	1	2	0.052802	-42.1021	-7.63181	-3.65327
 542	1	3	0.058525	-43.0539	-7.37871	-2.5405
 543	1	5	-0.381395	-41.8229	-4.17127	-3.22043
 544	1	5	-0.387279	-41.8711	-8.71808	-4.1552
 545	1	3	-0.003007	-43.7989	-5.50307	-1.2063
 546	1	3	-0.04277	-43.8411	-8.26133	-1.79189
 547	1	3	-0.203298	-44.6387	-7.74079	-0.749433
 548	1	3	-0.057014	-44.6433	-6.35078	-0.44042
 549	1	6	0.158736	-43.7595	-4.43349	-1.02682
 550	1	6	0.155574	-43.8337	-9.32258	-2.02773
 551	1	6	0.172835	-45.2615	-8.44371	-0.206865
 552	1	7	-0.114348	-45.5908	-5.71399	0.631369
 553	1	7	0.394993	-46.8473	-5.18892	-0.157527
 554	1	8	-0.128918	-46.5066	-4.17057	-0.977392
 555	1	8	-0.12014	-47.8422	-4.73155	0.624603
 556	1	8	-0.128671	-47.4111	-6.14738	-0.924289
 557	1	7	0.329225	-46.0723	-6.7308	1.7293
 558	1	8	-0.1084	-46.9159	-7.67805	1.26032
 559	1	8	-0.10772	-46.7442	-6.11108	2.72724
 560	1	8	-0.098105	-45.0188	-7.35644	2.30311
 561	1	3	-0.04356	-44.797	-4.58942	1.37457
 562	1	3	-0.061005	-45.337	-3.30989	1.6991
 563	1	3	-0.036586	-44.505	-2.36498	2.33457
 564	1	3	-0.073054	-43.4558	-4.86912	1.77222
 565	1	3	-0.129461	-42.6618	-3.93043	2.46054
 566	1	3	-0.055433	-43.214	-2.67289	2.71016
 567	1	2	0.497443	-42.6045	-1.48252	3.35301
 568	1	1	-0.091283	-43.5761	-0.484933	3.32926
 569	1	2	0.442461	-44.7474	-0.938673	2.7199
 570	1	3	0.056821	-43.3841	0.813411	3.91314
 571	1	3	-0.175202	-42.5689	0.977839	5.05771
 572	1	3	-0.086463	-42.255	2.25362	5.55861
 573	1	3	-0.120823	-43.9775	1.97123	3.36373
 574	1	3	-0.147764	-43.9665	3.19626	4.07737
 575	1	3	-0.091348	-42.9026	3.37013	4.99204
 576	1	2	0.723311	-41.2535	2.38338	6.68576
 577	1	6	0.16273	-41.6425	-4.16117	2.76716
 578	1	6	0.144736	-43.0252	-5.84591	1.56062
 579	1	6	0.138526	-46.3519	-3.02038	1.44549
 580	1	5	-0.452878	-45.7872	-0.324323	2.56224
 581	1	5	-0.478383	-41.4793	-1.44669	3.82139
 582	1	6	0.14723	-44.7907	3.02448	4.76483
 583	1	6	0.161782	-42.1066	0.117949	5.53307
 584	1	6	0.150279	-44.5703	1.8899	2.45429
 585	1	6	0.142321	-42.6763	4.36758	5.36758
 586	1	5	-0.564646	-40.7634	1.42	7.2572
 587	1	9	-0.344773	-40.9963	3.66122	7.07549
 588	1	7	-0.038703	16.1371	13.1393	-10.3757
 589	1	10	0.090446	86.2211	-2.72257	28.3681
 590	1	10	0.070639	51.588	-24.3293	-57.8952
 591	1	11	0.018298	15.7004	13.1579	-11.3835
 592	1	11	0.032617	15.71	12.283	-9.83448
 593	1	7	0.364059	17.6742	13.0261	-10.4354
 594	1	10	-0.049335	18.0745	13.9054	-10.9499
 595	1	12	-0.72623	18.0199	11.8523	-11.152
 596	1	10	0.033772	18.103	12.9962	-9.42943
 597	1	13	0.432586	19.0052	11.9012	-11.2642
 598	1	1	0.478781	-28.9659	-8.72836	-1.05215
 599	1	2	0.051808	-30.0978	-8.38195	-1.79664
 600	1	3	-0.015342	-29.8578	-7.00271	-2.28566
 601	1	2	0.052802	-28.0149	-7.69576	-1.02161
 602	1	3	0.058525	-28.6299	-6.59182	-1.80168
 603	1	5	-0.381395	-31.1294	-9.01199	-1.92034
 604	1	5	-0.387279	-26.9313	-7.64745	-0.454415
 605	1	3	-0.003007	-30.6341	-6.16468	-3.09915
 606	1	3	-0.04277	-28.1389	-5.30174	-2.06544
 607	1	3	-0.203298	-28.9261	-4.44226	-2.85666
 608	1	3	-0.057014	-30.1664	-4.85378	-3.39943
 609	1	6	0.158736	-31.5643	-6.53789	-3.50534
 610	1	6	0.155574	-27.174	-4.97414	-1.67919
 611	1	6	0.172835	-28.5364	-3.45249	-3.07614
 612	1	7	-0.114348	-30.9763	-3.95931	-4.37784