pySIMM System Object

2562 atoms
2701 bonds
4698 angles
7001 dihedrals
713 impropers

13 atom types
16 bond types
30 angle types
15 dihedral types
4 improper types

-172.255934 172.255934 xlo xhi
-172.255934 172.255934 ylo yhi
-172.255934 172.255934 zlo zhi

Masses

   1	12.01	# ca
   2	16.0	# o
   3	12.01	# c
   4	14.01	# n
   5	12.01	# c3
   6	19.0	# f
   7	1.008	# ha
   8	1.008	# hn
   9	1.008	# hc
  10	16.0	# os
  11	1.008	# h1
  12	16.0	# oh
  13	1.008	# ho

Pair Coeffs

   1	0.086	3.3996695084235347	# ca
   2	0.21	2.959921901149463	# o
   3	0.086	3.3996695084235347	# c
   4	0.17	3.249998523775958	# n
   5	0.1094	3.3996695084235347	# c3
   6	0.061	3.1181455134911875	# f
   7	0.015	2.59964245953351	# ha
   8	0.0157	1.069078461768407	# hn
   9	0.0157	2.649532787749369	# hc
  10	0.17	3.0000123434657784	# os
  11	0.0157	2.471353044121301	# h1
  12	0.2104	3.0664733878390478	# oh
  13	0.0047	0.5379246460131368	# ho

Bond Coeffs

   1	403.2	1.0129	# hn,n
   2	461.1	1.3984	# ca,ca
   3	637.7	1.2183	# c,o
   4	345.8	1.086	# ca,ha
   5	300.9	1.5375	# c3,c3
   6	356.9	1.3497	# c3,f
   7	345.9	1.4906	# c,ca
   8	427.6	1.3789	# c,n
   9	384.2	1.4121	# ca,n
  10	321.0	1.5156	# c3,ca
  11	330.6	1.0969	# c3,hc
  12	330.6	1.0969	# c3,h1
  13	316.7	1.4233	# c3,oh
  14	371.4	0.973	# ho,oh
  15	308.6	1.4316	# c3,os
  16	390.8	1.3584	# c,os

Angle Coeffs

   1	66.62	120.02	# ca,ca,ca
   2	66.11	109.24	# c3,c3,f
   3	67.87	120.19	# ca,ca,n
   4	68.72	122.6	# ca,c,o
   5	48.33	117.55	# c,n,hn
   6	67.68	115.25	# ca,c,n
   7	63.15	112.07	# c3,c3,ca
   8	63.82	123.71	# c,n,ca
   9	46.8	110.47	# ca,c3,hc
  10	63.53	120.77	# c3,ca,ca
  11	39.4	107.58	# hc,c3,hc
  12	48.18	119.88	# ca,ca,ha
  13	70.89	107.36	# f,c3,f
  14	64.28	120.33	# c,ca,ca
  15	63.74	127.08	# c,n,c
  16	62.86	111.51	# c3,c3,c3
  17	63.56	112.24	# ca,c3,ca
  18	74.22	123.05	# n,c,o
  19	68.0	107.97	# c3,c3,os
  20	46.39	109.56	# c3,c3,h1
  21	75.32	123.25	# o,c,os
  22	46.34	109.8	# c3,c3,hc
  23	67.47	110.19	# c3,c3,oh
  24	47.38	107.26	# c3,oh,ho
  25	39.24	108.46	# h1,c3,h1
  26	69.32	112.44	# ca,c,os
  27	50.93	110.26	# h1,c3,oh
  28	50.8	109.78	# h1,c3,os
  29	63.28	115.98	# c,os,c3
  30	49.75	116.02	# ha,ca,n

Dihedral Coeffs

   1	1	2.5	2	180	# X,c,n,X
   2	1	0.45	2	180	# X,ca,n,X
   3	1	1.0	2	180	# X,c,ca,X
   4	2	2.5	2	180	2.0	1	0	# hn,n,c,o
   5	1	3.625	2	180	# X,ca,ca,X
   6	1	0.15555555555555556	3	0	# X,c3,c3,X
   7	1	0.0	2	0	# X,c3,ca,X
   8	2	0.0	3	0	0.25	1	0	# hc,c3,c3,os
   9	2	0.0	3	0	0.25	1	0	# hc,c3,c3,oh
  10	2	2.7	2	180	1.4	1	180	# o,c,os,c3
  11	2	0.16	3	0	0.25	1	0	# ho,oh,c3,c3
  12	2	0.383	3	0	0.8	1	180	# c3,c3,os,c
  13	1	2.7	2	180	# X,c,os,X
  14	1	0.3833333333333333	3	0	# X,c3,os,X
  15	1	0.16666666666666666	3	0	# X,c3,oh,X

Improper Coeffs

   1	10.5	-1	2	# c,X,X,o
   2	1.1	-1	2	# n,X,X,hn
   3	1.1	-1	2	# ca,ca,ca,c3
   4	1.1	-1	2	# ca,X,X,ha

Atoms

   1	1	1	-0.024347	48.0154	5.05627	40.8999
   2	1	1	-0.071478	48.5726	6.0107	40.006
   3	1	1	-0.180016	47.6756	6.84949	39.2837
   4	1	2	-0.370097	46.1981	3.19483	42.6169
   5	1	1	0.010306	46.6221	4.98114	41.0501
   6	1	1	-0.071748	46.2796	6.7448	39.434
   7	1	2	-0.403598	43.3815	6.0139	40.2201
   8	1	1	0.055994	45.7806	5.80334	40.3356
   9	1	3	0.021521	45.7828	4.06248	41.8706
  10	1	4	0.466017	44.4541	4.39858	41.5766
  11	1	3	0.096621	44.3779	5.47061	40.678
  12	1	1	-0.099438	52.7888	5.32346	42.5261
  13	1	5	-0.089685	50.1157	6.04761	39.7803
  14	1	1	-0.037281	50.8471	5.9907	41.1528
  15	1	1	-0.08188	52.0639	5.27256	41.3246
  16	1	1	-0.106561	52.2825	6.11042	43.5594
  17	1	1	-0.037628	50.3717	6.78088	42.2338
  18	1	1	-0.12234	51.1093	6.82227	43.423
  19	1	5	0.388954	50.6278	7.38365	39.1195
  20	1	5	0.307788	50.456	4.84073	38.8183
  21	1	6	-0.129718	50.2482	7.52115	37.8244
  22	1	6	-0.129089	51.9766	7.45183	39.1354
  23	1	6	-0.119089	50.2006	8.47389	39.8003
  24	1	6	-0.103894	49.6398	4.79972	37.7412
  25	1	6	-0.097852	50.3074	3.65605	39.444
  26	1	6	-0.104555	51.7167	4.87464	38.3255
  27	1	3	0.521254	50.8675	7.56332	44.6857
  28	1	3	0.53569	52.832	6.36659	44.9048
  29	1	4	0.027822	51.9375	7.23327	45.5179
  30	1	2	-0.468874	49.9552	8.33925	44.9042
  31	1	2	-0.477974	53.8496	5.88773	45.374
  32	1	1	-0.359831	52.1192	7.70326	46.8597
  33	1	1	0.131035	53.1426	8.63737	47.1456
  34	1	1	-0.120983	53.3767	9.02679	48.4832
  35	1	1	0.127261	51.2992	7.20139	47.8978
  36	1	1	-0.127195	51.5365	7.61495	49.2259
  37	1	1	0.144798	52.5568	8.53094	49.5006
  38	1	5	-0.020676	50.1476	6.24081	47.5876
  39	1	5	-0.019785	54.0261	9.19768	46.0347
  40	1	7	0.164889	48.6448	4.36941	41.4598
  41	1	7	0.175264	48.0306	7.58134	38.5682
  42	1	7	0.1582	45.6017	7.37396	38.8613
  43	1	7	0.150763	53.7174	4.76967	42.6441
  44	1	7	0.144868	52.4919	4.68127	40.5267
  45	1	7	0.134072	49.4593	7.36385	42.1443
  46	1	5	-0.300668	54.5149	9.95848	48.8845
  47	1	5	-0.243237	50.6737	7.16556	50.3955
  48	1	9	0.021835	49.9147	5.58384	48.432
  49	1	9	0.012312	50.3684	5.5799	46.7423
  50	1	9	0.041777	49.2342	6.80093	47.3505
  51	1	9	0.110598	50.9546	7.6975	51.3132
  52	1	9	0.08293	49.6193	7.39484	50.2003
  53	1	9	0.082252	50.7738	6.09187	50.5931
  54	1	9	0.027698	53.5475	9.15272	45.052
  55	1	9	0.017051	54.9701	8.64313	45.9769
  56	1	9	0.037874	54.2599	10.2548	46.2045
  57	1	9	0.095908	54.3213	10.9954	48.5717
  58	1	9	0.127068	54.6664	9.96579	49.9758
  59	1	9	0.099095	55.4658	9.6399	48.4306
  60	1	4	0.478781	45.5457	7.01196	51.6272
  61	1	3	0.051808	44.5345	6.28445	52.272
  62	1	1	-0.015342	44.5774	4.92646	51.672
  63	1	3	0.052802	46.2645	6.22028	50.7255
  64	1	1	0.058525	45.6128	4.89085	50.7633
  65	1	2	-0.381395	43.7723	6.65197	53.1521
  66	1	2	-0.387279	47.2169	6.52685	50.0267
  67	1	1	-0.003007	43.7399	3.82534	51.88
  68	1	1	-0.04277	45.8969	3.74095	50.0296
  69	1	1	-0.203298	45.0676	2.62032	50.2198
  70	1	1	-0.057014	43.9584	2.65002	51.1113
  71	1	7	0.158736	42.9266	3.92407	52.5916
  72	1	7	0.155574	46.7236	3.72795	49.3247
  73	1	7	0.172835	45.2774	1.72582	49.6366
  74	1	5	-0.114348	43.0121	1.41814	51.1557
  75	1	5	0.394993	43.7188	0.327683	52.0562
  76	1	6	-0.128918	44.8982	-0.0787768	51.5354
  77	1	6	-0.12014	44.0061	0.808947	53.2873
  78	1	6	-0.128671	42.9763	-0.78362	52.2475
  79	1	5	0.329225	41.5884	1.75267	51.7496
  80	1	6	-0.1084	40.7327	0.730398	51.5358
  81	1	6	-0.10772	41.5904	1.98222	53.083
  82	1	6	-0.098105	41.0363	2.84951	51.1757
  83	1	1	-0.04356	42.7879	0.984223	49.6734
  84	1	1	-0.061005	42.498	1.99144	48.7144
  85	1	1	-0.036586	42.3993	1.65064	47.362
  86	1	1	-0.073054	42.9287	-0.356462	49.211
  87	1	1	-0.129461	42.7992	-0.681084	47.8417
  88	1	1	-0.055433	42.5402	0.351466	46.9328
  89	1	3	0.497443	42.4643	0.346606	45.4453
  90	1	4	-0.091283	42.343	1.68018	45.0747
  91	1	3	0.442461	42.2568	2.52733	46.1729
  92	1	1	0.056821	42.4002	2.1387	43.7302
  93	1	1	-0.175202	41.5843	1.54886	42.7521
  94	1	1	-0.086463	41.6928	1.94298	41.406
  95	1	1	-0.120823	43.31	3.14887	43.354
  96	1	1	-0.147764	43.2786	3.72241	42.0612
  97	1	1	-0.091348	42.5748	2.99203	41.0762
  98	1	3	0.723311	40.9072	1.21814	40.3422
  99	1	7	0.16273	42.9291	-1.70257	47.4899
 100	1	7	0.144736	43.1646	-1.16558	49.8928
 101	1	7	0.138526	42.4025	3.03408	48.9981
 102	1	2	-0.452878	42.2513	3.74622	46.1792
 103	1	2	-0.478383	42.6295	-0.617512	44.7192
 104	1	7	0.14723	42.6667	4.60782	42.2065
 105	1	7	0.161782	40.9046	0.742569	43.028
 106	1	7	0.150279	43.9786	3.56312	44.1067
 107	1	7	0.142321	42.678	3.28025	40.0312
 108	1	2	-0.564646	40.3051	0.180427	40.561
 109	1	10	-0.344773	40.946	1.79512	39.1098
 110	1	5	-0.038703	-94.7449	-83.5001	69.426
 111	1	11	0.090446	9.73116	-155.921	31.1535
 112	1	11	0.070639	34.0845	-137.318	141.354
 113	1	9	0.018298	-94.3451	-82.6227	69.9522
 114	1	9	0.032617	-95.2383	-83.1519	68.5087
 115	1	5	0.364059	-93.6161	-84.4846	69.0741
 116	1	11	-0.049335	-93.1271	-84.8232	69.9942
 117	1	12	-0.72623	-92.6604	-83.8487	68.2349
 118	1	11	0.033772	-94.0429	-85.3595	68.5678
 119	1	13	0.432586	-92.1885	-83.2021	68.7886
 120	1	4	0.478781	54.5502	10.467	42.7188
 121	1	3	0.051808	53.3253	9.99988	42.2272
 122	1	1	-0.015342	52.2897	10.8949	42.8042
 123	1	3	0.052802	54.3877	11.5622	43.5762
 124	1	1	0.058525	52.9228	11.8165	43.6123
 125	1	2	-0.381395	53.1282	9.00974	41.5409
 126	1	2	-0.387279	55.2301	12.149	44.2365
 127	1	1	-0.003007	50.8973	10.8736	42.6518
 128	1	1	-0.04277	52.1895	12.7551	44.3419
 129	1	1	-0.203298	50.7851	12.7511	44.2027
 130	1	1	-0.057014	50.1123	11.8328	43.3467
 131	1	7	0.158736	50.4664	10.1267	41.9949
 132	1	7	0.155574	52.6963	13.4617	44.9957
 133	1	7	0.172835	50.2112	13.4787	44.7723
 134	1	5	-0.114348	48.5598	11.9382	43.198
 135	1	5	0.394993	47.9003	10.749	42.4077
 136	1	6	-0.128918	46.5489	10.8034	42.4493
 137	1	6	-0.12014	48.2297	9.55251	42.9356
 138	1	6	-0.128671	48.2533	10.736	41.1025
 139	1	5	0.329225	48.285	13.2688	42.3955
 140	1	6	-0.1084	49.0887	13.3729	41.312
 141	1	6	-0.10772	48.5186	14.3555	43.1576
 142	1	6	-0.098105	47.0209	13.3962	41.9323
 143	1	1	-0.04356	47.904	11.9194	44.61
 144	1	1	-0.061005	48.4934	11.1483	45.6458
 145	1	1	-0.036586	47.851	11.0524	46.8851
 146	1	1	-0.073054	46.6608	12.5617	44.8792
 147	1	1	-0.129461	46.0232	12.4466	46.1314
 148	1	1	-0.055433	46.6445	11.6744	47.1182
 149	1	3	0.497443	46.1846	11.2979	48.4819
 150	1	4	-0.091283	47.1693	10.4623	48.9952
 151	1	3	0.442461	48.2218	10.2862	48.1048
 152	1	1	0.056821	47.0845	9.81919	50.2642
 153	1	1	-0.175202	48.1742	9.85367	51.1465
 154	1	1	-0.086463	48.0901	9.24651	52.4126
 155	1	1	-0.120823	45.9179	9.12879	50.6442
 156	1	1	-0.147764	45.8404	8.40075	51.8545
 157	1	1	-0.091348	46.9167	8.54282	52.7562
 158	1	3	0.723311	49.2481	9.35828	53.373
 159	1	7	0.16273	45.0588	12.9141	46.3203
 160	1	7	0.144736	46.1468	13.1283	44.1124
 161	1	7	0.138526	49.4259	10.6153	45.4991
 162	1	2	-0.452878	49.246	9.65315	48.2767
 163	1	2	-0.478383	45.1207	11.6057	48.9947
 164	1	7	0.14723	44.9036	8.62709	52.353
 165	1	7	0.161782	49.0899	10.369	50.8606
 166	1	7	0.150279	45.0812	9.09265	49.9492
 167	1	7	0.142321	46.847	8.0613	53.7313
 168	1	2	-0.564646	50.3215	9.8444	53.0608
 169	1	10	-0.344773	48.9875	8.89973	54.6297
 170	1	5	-0.038703	17.3216	-16.8202	31.0396
 171	1	11	0.090446	132.779	-52.4777	-145.14
 172	1	11	0.070639	133.164	-80.7845	-50.4507
 173	1	9	0.018298	16.654	-15.9689	30.8658
 174	1	9	0.032617	17.7693	-16.7075	32.0349
 175	1	5	0.364059	16.5491	-18.1459	30.9459
 176	1	11	-0.049335	16.1181	-18.2552	29.9431
 177	1	12	-0.72623	15.5188	-18.1817	31.9234
 178	1	11	0.033772	17.2468	-18.9769	31.1086
 179	1	13	0.432586	15.2018	-19.1211	31.9515
 180	1	4	0.478781	49.8038	0.877427	43.1034
 181	1	3	0.051808	50.8595	0.00360404	43.3793
 182	1	1	-0.015342	51.8035	0.780617	44.2267
 183	1	3	0.052802	49.9598	2.1206	43.7189
 184	1	1	0.058525	51.2562	2.02945	44.4275
 185	1	2	-0.381395	51.0398	-1.11852	42.9379
 186	1	2	-0.387279	49.2508	3.11341	43.6611
 187	1	1	-0.003007	53.0673	0.444231	44.7403
 188	1	1	-0.04277	51.9029	2.9897	45.1989
 189	1	1	-0.203298	53.1546	2.66613	45.7493
 190	1	1	-0.057014	53.7902	1.41984	45.4906
 191	1	7	0.158736	53.4603	-0.545029	44.5339
 192	1	7	0.155574	51.4368	3.95357	45.3748
 193	1	7	0.172835	53.6442	3.418	46.3649
 194	1	5	-0.114348	55.2213	1.18561	46.0728
 195	1	5	0.394993	55.0199	0.616161	47.5267
 196	1	6	-0.128918	54.1902	-0.449503	47.5296
 197	1	6	-0.12014	54.4494	1.52726	48.3551
 198	1	6	-0.128671	56.1815	0.203887	48.0871
 199	1	5	0.329225	56.0566	0.155213	45.2224
 200	1	6	-0.1084	57.3615	0.16199	45.5849
 201	1	6	-0.10772	56.0053	0.458498	43.9055
 202	1	6	-0.098105	55.6327	-1.12512	45.3365
 203	1	1	-0.04356	56.0047	2.54806	46.0458
 204	1	1	-0.061005	56.0451	3.29532	44.8395
 205	1	1	-0.036586	56.5745	4.59371	44.8442
 206	1	1	-0.073054	56.6043	3.13947	47.1996
 207	1	1	-0.129461	57.1036	4.46262	47.1931
 208	1	1	-0.055433	57.0529	5.18414	45.9961
 209	1	3	0.497443	57.3444	6.61695	45.6996
 210	1	4	-0.091283	56.9953	6.79079	44.3657
 211	1	3	0.442461	56.5605	5.61728	43.7679
 212	1	1	0.056821	57.0124	8.04254	43.701
 213	1	1	-0.175202	58.1726	8.82509	43.6998
 214	1	1	-0.086463	58.1685	10.1016	43.1156
 215	1	1	-0.120823	55.8555	8.51533	43.0613
 216	1	1	-0.147764	55.7965	9.79338	42.4637
 217	1	1	-0.091348	56.9698	10.5829	42.5396
 218	1	3	0.723311	59.4345	10.9273	43.1582
 219	1	7	0.16273	57.4719	4.93075	48.1039
 220	1	7	0.144736	56.6346	2.61441	48.1467
 221	1	7	0.138526	55.5804	2.91966	43.9323
 222	1	2	-0.452878	56.1619	5.46337	42.6237
 223	1	2	-0.478383	57.7135	7.4676	46.4929
 224	1	7	0.14723	55.5783	9.65494	41.4081
 225	1	7	0.161782	59.0775	8.45818	44.1798
 226	1	7	0.150279	54.9727	7.87801	43.0521
 227	1	7	0.142321	56.9494	11.5942	42.1369
 228	1	2	-0.564646	60.493	10.5122	43.6068
 229	1	10	-0.344773	59.3099	12.1635	42.6065
 230	1	5	-0.038703	-148.636	-159.607	-98.7975
 231	1	11	0.090446	35.1838	-33.4132	98.5522
 232	1	11	0.070639	-169.729	62.4975	35.6846
 233	1	9	0.018298	-148.219	-158.626	-99.0585
 234	1	9	0.032617	-149.498	-159.451	-98.1356
 235	1	5	0.364059	-149.068	-160.367	-100.062
 236	1	11	-0.049335	-148.2	-160.514	-100.713
 237	1	12	-0.72623	-150.068	-159.631	-100.757
 238	1	11	0.033772	-149.451	-161.355	-99.7749
 239	1	13	0.432586	-150.193	-160.069	-101.617
 240	1	1	-0.024347	39.5734	-1.20316	37.2408
 241	1	1	-0.071478	39.9926	-0.357698	36.178
 242	1	1	-0.180016	39.348	0.90518	36.0457
 243	1	2	-0.370097	38.3146	-2.57093	39.7219
 244	1	1	0.010306	38.5644	-0.785548	38.1118
 245	1	1	-0.071748	38.37	1.33446	36.975
 246	1	2	-0.403598	36.4696	1.69348	39.4326
 247	1	1	0.055994	38.0069	0.469407	38.0129
 248	1	3	0.021521	38.0509	-1.43886	39.3427
 249	1	4	0.466017	37.2626	-0.464035	39.9678
 250	1	3	0.096621	37.1318	0.693856	39.196
 251	1	1	-0.099438	43.9008	-2.8272	37.2853
 252	1	5	-0.089685	41.1768	-0.830911	35.2745
 253	1	1	-0.037281	42.329	-1.20444	36.2632
 254	1	1	-0.08188	42.8946	-2.51044	36.3481
 255	1	1	-0.106561	44.3859	-1.8055	38.1068
 256	1	1	-0.037628	42.8253	-0.212518	37.1547
 257	1	1	-0.12234	43.8829	-0.524996	38.0213
 258	1	5	0.388954	41.752	0.251293	34.267
 259	1	5	0.307788	40.6536	-2.03808	34.3895
 260	1	6	-0.129718	40.8924	0.584066	33.2833
 261	1	6	-0.129089	42.8605	-0.205173	33.6392
 262	1	6	-0.119089	42.1067	1.41449	34.8604
 263	1	6	-0.103894	40.2219	-3.0774	35.1295
 264	1	6	-0.097852	41.5897	-2.54576	33.5579
 265	1	6	-0.104555	39.6013	-1.69096	33.6157
 266	1	3	0.521254	44.6487	0.337407	38.9643
 267	1	3	0.53569	45.4523	-1.8186	39.1448
 268	1	4	0.027822	45.5844	-0.500525	39.5685
 269	1	2	-0.468874	44.5307	1.54488	39.0928
 270	1	2	-0.477974	46.1216	-2.7789	39.4849
 271	1	1	-0.359831	46.6336	-0.0693929	40.45
 272	1	1	0.131035	46.3787	0.02651	41.8387
 273	1	1	-0.120983	47.4448	0.299032	42.7292
 274	1	1	0.127261	47.936	0.156938	39.9348
 275	1	1	-0.127195	48.9883	0.496975	40.8176
 276	1	1	0.144798	48.7371	0.559848	42.2116
 277	1	5	-0.020676	48.2268	0.0472712	38.4296
 278	1	5	-0.019785	44.9537	-0.158382	42.3781
 279	1	7	0.164889	40.0496	-2.16111	37.4291
 280	1	7	0.175264	39.629	1.59514	35.2572
 281	1	7	0.1582	37.9261	2.32599	36.9176
 282	1	7	0.150763	44.3141	-3.83198	37.3531
 283	1	7	0.144868	42.5652	-3.31338	35.6992
 284	1	7	0.134072	42.4167	0.793849	37.1632
 285	1	5	-0.300668	47.1896	0.336806	44.2481
 286	1	5	-0.243237	50.4185	0.722577	40.2903
 287	1	9	0.021835	48.383	1.04085	37.9905
 288	1	9	0.012312	47.4323	-0.43504	37.8514
 289	1	9	0.041777	49.1298	-0.548623	38.2471
 290	1	9	0.110598	50.9504	1.50253	40.8472
 291	1	9	0.08293	51.0085	-0.201126	40.3682
 292	1	9	0.082252	50.4525	1.03915	39.2421
 293	1	9	0.027698	44.1843	0.116686	41.6498
 294	1	9	0.017051	44.766	0.479289	43.2484
 295	1	9	0.037874	44.7778	-1.19891	42.6769
 296	1	9	0.095908	46.7451	1.29817	44.5403
 297	1	9	0.127068	46.4956	-0.455309	44.5566
 298	1	9	0.099095	48.0894	0.187657	44.8557
 299	1	4	0.478781	29.6928	-7.68497	37.6674
 300	1	3	0.051808	29.441	-7.68387	39.0423
 301	1	1	-0.015342	28.9126	-6.33173	39.3485
 302	1	3	0.052802	29.3536	-6.47681	37.068
 303	1	1	0.058525	28.9027	-5.60098	38.1802
 304	1	2	-0.381395	29.6476	-8.56931	39.8539
 305	1	2	-0.387279	29.3857	-6.1922	35.8835
 306	1	1	-0.003007	28.5019	-5.78695	40.5699
 307	1	1	-0.04277	28.533	-4.25586	38.1728
 308	1	1	-0.203298	28.1899	-3.66392	39.408
 309	1	1	-0.057014	28.1465	-4.41071	40.6252
 310	1	7	0.158736	28.5015	-6.43783	41.4369
 311	1	7	0.155574	28.5491	-3.68237	37.2472
 312	1	7	0.172835	27.9706	-2.6009	39.41
 313	1	5	-0.114348	27.7829	-3.68009	41.9601
 314	1	5	0.394993	27.8464	-4.59869	43.2472
 315	1	6	-0.128918	26.8692	-5.53064	43.2684
 316	1	6	-0.12014	27.7139	-3.87726	44.3814
 317	1	6	-0.128671	29.0261	-5.24815	43.3907
 318	1	5	0.329225	26.3107	-3.12373	41.8234
 319	1	6	-0.1084	25.4711	-4.07008	41.3528
 320	1	6	-0.10772	26.2228	-2.09556	40.9559
 321	1	6	-0.098105	25.7859	-2.67169	42.9854
 322	1	1	-0.04356	28.8379	-2.56584	42.174
 323	1	1	-0.061005	30.1979	-2.9016	41.9822
 324	1	1	-0.036586	31.1766	-1.94479	42.245
 325	1	1	-0.073054	28.521	-1.24913	42.6229
 326	1	1	-0.129461	29.5301	-0.298533	42.8921
 327	1	1	-0.055433	30.8624	-0.682773	42.6943
 328	1	3	0.497443	32.142	0.0624931	42.8684
 329	1	4	-0.091283	33.153	-0.820453	42.5091
 330	1	3	0.442461	32.6468	-2.05555	42.1304
 331	1	1	0.056821	34.5421	-0.492436	42.4745
 332	1	1	-0.175202	35.1881	0.118021	43.5639
 333	1	1	-0.086463	36.5444	0.50403	43.4691
 334	1	1	-0.120823	35.2836	-0.754611	41.3119
 335	1	1	-0.147764	36.6857	-0.609235	41.2733
 336	1	1	-0.091348	37.2555	0.189507	42.289
 337	1	3	0.723311	37.2107	1.25401	44.6058
 338	1	7	0.16273	29.2886	0.700981	43.2482
 339	1	7	0.144736	27.495	-0.948221	42.804
 340	1	7	0.138526	30.5019	-3.8905	41.65
 341	1	2	-0.452878	33.2554	-3.04655	41.7725
 342	1	2	-0.478383	32.2582	1.22277	43.2133
 343	1	7	0.14723	37.0537	-1.59661	41.5243
 344	1	7	0.161782	34.6248	0.360851	44.4637
 345	1	7	0.150279	34.7614	-1.14465	40.4448
 346	1	7	0.142321	38.2932	0.504548	42.1861
 347	1	2	-0.564646	36.6179	1.61139	45.6099
 348	1	10	-0.344773	38.5488	1.45817	44.4462
 349	1	5	-0.038703	4.95674	-12.5065	-18.9865
 350	1	11	0.090446	161.798	-109.269	-115.476
 351	1	11	0.070639	43.3929	166.355	-102.41
 352	1	9	0.018298	4.72846	-13.2585	-18.221
 353	1	9	0.032617	4.81993	-11.5135	-18.5421
 354	1	5	0.364059	6.40581	-12.687	-19.5053
 355	1	11	-0.049335	6.46285	-13.6422	-20.0382
 356	1	12	-0.72623	7.36748	-12.673	-18.4393
 357	1	11	0.033772	6.63022	-11.8897	-20.2256
 358	1	13	0.432586	7.11003	-13.3665	-17.8064
 359	1	1	-0.024347	29.2601	-16.3128	29.3546
 360	1	1	-0.071478	30.1471	-16.7101	30.3929
 361	1	1	-0.180016	29.5962	-17.3076	31.5642
 362	1	2	-0.370097	26.8331	-15.5497	27.586
 363	1	1	0.010306	27.8903	-16.521	29.5295
 364	1	1	-0.071748	28.2118	-17.5179	31.7082
 365	1	2	-0.403598	25.1383	-17.5942	31.4003
 366	1	1	0.055994	27.38	-17.1096	30.6662
 367	1	3	0.021521	26.7604	-16.108	28.6675
 368	1	4	0.466017	25.6183	-16.4792	29.3681
 369	1	3	0.096621	25.9019	-17.1197	30.5755
 370	1	1	-0.099438	33.6249	-14.8885	33.3657
 371	1	5	-0.089685	31.6863	-16.4612	30.3449
 372	1	1	-0.037281	32.0626	-15.6137	31.5912
 373	1	1	-0.08188	33.287	-15.7605	32.3068
 374	1	1	-0.106561	32.7322	-13.8593	33.6879
 375	1	1	-0.037628	31.1984	-14.5487	31.9457
 376	1	1	-0.12234	31.562	-13.6936	32.9837
 377	1	5	0.388954	32.3796	-17.8782	30.2994
 378	1	5	0.307788	32.1667	-15.6102	29.1069
 379	1	6	-0.129718	32.3064	-18.5138	31.4876
 380	1	6	-0.129089	33.6898	-17.8356	29.9802
 381	1	6	-0.119089	31.8013	-18.6884	29.3825
 382	1	6	-0.103894	32.0138	-16.2508	27.9278
 383	1	6	-0.097852	33.4743	-15.2849	29.2146
 384	1	6	-0.104555	31.5104	-14.4325	28.9993
 385	1	3	0.521254	30.8572	-12.4981	33.5023
 386	1	3	0.53569	32.7991	-12.7788	34.7118
 387	1	4	0.027822	31.6395	-12.0171	34.5493
 388	1	2	-0.468874	29.7928	-12.065	33.0921
 389	1	2	-0.477974	33.7279	-12.5785	35.4742
 390	1	1	-0.359831	31.2191	-10.9353	35.4014
 391	1	1	0.131035	30.0184	-11.0884	36.1419
 392	1	1	-0.120983	29.4851	-9.9878	36.8484
 393	1	1	0.127261	31.9739	-9.73961	35.4942
 394	1	1	-0.127195	31.503	-8.68363	36.3141
 395	1	1	0.144798	30.2347	-8.79197	36.9447
 396	1	5	-0.020676	33.3038	-9.59267	34.7386
 397	1	5	-0.019785	29.2887	-12.4403	36.1994
 398	1	7	0.164889	29.588	-15.8251	28.4423
 399	1	7	0.175264	30.2425	-17.5665	32.3996
 400	1	7	0.1582	27.7906	-17.9408	32.6171
 401	1	7	0.150763	34.5631	-14.9871	33.8973
 402	1	7	0.144868	33.9974	-16.5341	32.0404
 403	1	7	0.134072	30.2748	-14.356	31.4054
 404	1	5	-0.300668	28.0831	-10.0896	37.4755
 405	1	5	-0.243237	32.3509	-7.41209	36.4714
 406	1	9	0.021835	34.1441	-9.89238	35.3759
 407	1	9	0.012312	33.4898	-8.56394	34.4088
 408	1	9	0.041777	33.3393	-10.199	33.8262
 409	1	9	0.110598	33.4116	-7.66183	36.5981
 410	1	9	0.08293	32.267	-6.77997	35.5775
 411	1	9	0.082252	32.0871	-6.7993	37.3397
 412	1	9	0.027698	29.9398	-13.2894	35.9656
 413	1	9	0.017051	28.4395	-12.4632	35.5032
 414	1	9	0.037874	28.909	-12.6398	37.208
 415	1	9	0.095908	27.5722	-9.12397	37.5702
 416	1	9	0.127068	27.4075	-10.704	36.8665
 417	1	9	0.099095	28.1339	-10.5394	38.4763
 418	1	1	-0.024347	13.2987	-16.778	29.0153
 419	1	1	-0.071478	14.0217	-15.7591	28.3422
 420	1	1	-0.180016	14.4813	-14.6396	29.093
 421	1	2	-0.370097	12.0279	-18.7034	31.0457
 422	1	1	0.010306	13.0985	-16.6534	30.3914
 423	1	1	-0.071748	14.2586	-14.5333	30.4763
 424	1	2	-0.403598	13.6264	-15.0352	33.4499
 425	1	1	0.055994	13.5801	-15.576	31.1031
 426	1	3	0.021521	12.4789	-17.6058	31.336
 427	1	4	0.466017	12.6407	-17.0239	32.5984
 428	1	3	0.096621	13.2908	-15.7809	32.54
 429	1	1	-0.099438	17.5521	-14.0037	25.505
 430	1	5	-0.089685	14.2889	-15.775	26.8155
 431	1	1	-0.037281	15.7796	-15.3528	26.5974
 432	1	1	-0.08188	16.1909	-14.3566	25.6642
 433	1	1	-0.106561	18.5095	-14.6646	26.2839
 434	1	1	-0.037628	16.788	-15.9902	27.3681
 435	1	1	-0.12234	18.1309	-15.6373	27.1845
 436	1	5	0.388954	13.2278	-14.7881	26.198
 437	1	5	0.307788	14.112	-17.1892	26.136
 438	1	6	-0.129718	11.9648	-15.121	26.5477
 439	1	6	-0.129089	13.2629	-14.7803	24.8516
 440	1	6	-0.119089	13.3982	-13.5116	26.6125
 441	1	6	-0.103894	14.8057	-18.1595	26.7704
 442	1	6	-0.097852	14.555	-17.173	24.8596
 443	1	6	-0.104555	12.8316	-17.6134	26.0823
 444	1	3	0.521254	19.3513	-16.1305	27.8717
 445	1	3	0.53569	19.9919	-14.495	26.3701
 446	1	4	0.027822	20.4183	-15.4034	27.3441
 447	1	2	-0.468874	19.3743	-16.9953	28.7308
 448	1	2	-0.477974	20.6581	-13.6944	25.7349
 449	1	1	-0.359831	21.7745	-15.6022	27.7902
 450	1	1	0.131035	22.4636	-16.7654	27.3761
 451	1	1	-0.120983	23.7196	-17.0806	27.9442
 452	1	1	0.127261	22.3591	-14.727	28.7408
 453	1	1	-0.127195	23.6486	-15.0072	29.2643
 454	1	1	0.144798	24.3097	-16.1981	28.8774
 455	1	5	-0.020676	21.593	-13.4835	29.2079
 456	1	5	-0.019785	21.8544	-17.7103	26.3303
 457	1	7	0.164889	12.9044	-17.6566	28.5152
 458	1	7	0.175264	15.0212	-13.8351	28.5992
 459	1	7	0.1582	14.6204	-13.6869	31.0545
 460	1	7	0.150763	17.8531	-13.2304	24.8015
 461	1	7	0.144868	15.4685	-13.8337	25.0472
 462	1	7	0.134072	16.5351	-16.7534	28.0986
 463	1	5	-0.300668	24.4791	-18.3566	27.5388
 464	1	5	-0.243237	24.3222	-14.0502	30.267
 465	1	9	0.021835	21.7694	-13.2723	30.2692
 466	1	9	0.012312	20.5066	-13.5823	29.1082
 467	1	9	0.041777	21.9024	-12.6046	28.6291
 468	1	9	0.110598	25.4155	-14.0369	30.1789
 469	1	9	0.08293	24.0197	-13.007	30.118
 470	1	9	0.082252	24.0749	-14.3272	31.3009
 471	1	9	0.027698	22.5856	-17.9483	25.5471
 472	1	9	0.017051	20.9855	-17.298	25.8055
 473	1	9	0.037874	21.5356	-18.6507	26.7962
 474	1	9	0.095908	23.8494	-19.1184	27.0675
 475	1	9	0.127068	25.2849	-18.119	26.8302
 476	1	9	0.099095	24.9291	-18.8601	28.404
 477	1	4	0.478781	21.8113	-27.4096	34.7296
 478	1	3	0.051808	20.9421	-26.5489	35.4076
 479	1	1	-0.015342	19.5856	-27.1186	35.2025
 480	1	3	0.052802	21.1502	-28.5042	34.1624
 481	1	1	0.058525	19.7209	-28.2828	34.4765
 482	1	2	-0.381395	21.2042	-25.49	35.9543
 483	1	2	-0.387279	21.5983	-29.4416	33.5202
 484	1	1	-0.003007	18.325	-26.6175	35.5539
 485	1	1	-0.04277	18.6133	-29.0352	34.0977
 486	1	1	-0.203298	17.3386	-28.5648	34.4602
 487	1	1	-0.057014	17.1629	-27.3428	35.1742
 488	1	7	0.158736	18.2575	-25.6754	36.0988
 489	1	7	0.155574	18.7414	-29.9542	33.5316
 490	1	7	0.172835	16.497	-29.1767	34.1583
 491	1	5	-0.114348	15.7594	-26.7998	35.5847
 492	1	5	0.394993	15.6775	-26.9281	37.1557
 493	1	6	-0.128918	14.4243	-26.8585	37.6538
 494	1	6	-0.12014	16.3878	-25.9584	37.7686
 495	1	6	-0.128671	16.1915	-28.1055	37.5759
 496	1	5	0.329225	14.5625	-27.5983	34.9393
 497	1	6	-0.1084	14.4807	-28.8706	35.3949
 498	1	6	-0.10772	14.6596	-27.6323	33.5885
 499	1	6	-0.098105	13.3626	-27.0283	35.1932
 500	1	1	-0.04356	15.5973	-25.3364	35.0843
 501	1	1	-0.061005	14.68	-24.4501	35.7065
 502	1	1	-0.036586	14.4177	-23.2151	35.1024
 503	1	1	-0.073054	16.233	-24.9143	33.8802
 504	1	1	-0.129461	15.9905	-23.6438	33.3184
 505	1	1	-0.055433	15.065	-22.8128	33.9543
 506	1	3	0.497443	14.5285	-21.4862	33.5503
 507	1	4	-0.091283	13.5324	-21.1947	34.4724
 508	1	3	0.442461	13.419	-22.1761	35.4547
 509	1	1	0.056821	12.645	-20.0933	34.3231
 510	1	1	-0.175202	11.2606	-20.3132	34.3496
 511	1	1	-0.086463	10.3612	-19.2515	34.1227
 512	1	1	-0.120823	13.1306	-18.7993	34.0643
 513	1	1	-0.147764	12.2683	-17.712	33.8012
 514	1	1	-0.091348	10.8804	-17.9647	33.8694
 515	1	3	0.723311	8.86292	-19.4702	34.1301
 516	1	7	0.16273	16.4662	-23.3361	32.3874
 517	1	7	0.144736	16.8948	-25.5885	33.3426
 518	1	7	0.138526	14.1088	-24.7261	36.5871
 519	1	2	-0.452878	12.6539	-22.2189	36.4014
 520	1	2	-0.478383	14.8745	-20.8302	32.5786
 521	1	7	0.14723	12.5076	-16.893	34.4708
 522	1	7	0.161782	10.8796	-21.3143	34.5359
 523	1	7	0.150279	14.2053	-18.6341	34.0456
 524	1	7	0.142321	10.1829	-17.1497	33.6754
 525	1	2	-0.564646	8.06154	-18.552	34.0758
 526	1	10	-0.344773	8.47672	-20.7755	34.1972
 527	1	5	-0.038703	13.0187	0.884767	-15.1765
 528	1	11	0.090446	-153.747	18.1805	87.4696
 529	1	11	0.070639	-29.0874	-102.944	32.4276
 530	1	9	0.018298	13.707	0.893136	-16.031
 531	1	9	0.032617	12.4196	1.80244	-15.2195
 532	1	5	0.364059	12.1102	-0.370452	-15.2517
 533	1	11	-0.049335	12.7235	-1.25287	-15.4691
 534	1	12	-0.72623	11.0959	-0.225801	-16.2546
 535	1	11	0.033772	11.6344	-0.528228	-14.2749
 536	1	13	0.432586	10.9142	-1.11559	-16.6494
 537	1	1	-0.024347	33.3486	-22.12	35.217
 538	1	1	-0.071478	32.7361	-22.7705	34.1144
 539	1	1	-0.180016	31.8285	-22.0299	33.3087
 540	1	2	-0.370097	34.46	-20.1473	37.3076
 541	1	1	0.010306	33.0784	-20.7696	35.4348
 542	1	1	-0.071748	31.5377	-20.6771	33.574
 543	1	2	-0.403598	31.5735	-17.731	34.6015
 544	1	1	0.055994	32.2113	-20.0605	34.6331
 545	1	3	0.021521	33.6525	-19.8494	36.446
 546	1	4	0.466017	33.1071	-18.5994	36.1632
 547	1	3	0.096621	32.2135	-18.647	35.0919
 548	1	1	-0.099438	30.4217	-26.3897	31.8218
 549	1	5	-0.089685	33.0911	-24.2239	33.7024
 550	1	1	-0.037281	31.7681	-24.9523	33.3213
 551	1	1	-0.08188	31.6376	-25.759	32.1559
 552	1	1	-0.106561	29.3399	-26.2421	32.6943
 553	1	1	-0.037628	30.641	-24.8239	34.1735
 554	1	1	-0.12234	29.4528	-25.488	33.8416
 555	1	5	0.388954	33.7519	-25.0778	34.8508
 556	1	5	0.307788	34.1172	-24.0954	32.5142
 557	1	6	-0.129718	33.0149	-25.0313	35.9817
 558	1	6	-0.129089	35.0062	-24.6909	35.1828
 559	1	6	-0.119089	33.8364	-26.381	34.4975
 560	1	6	-0.103894	35.1554	-23.2961	32.844
 561	1	6	-0.097852	33.5559	-23.5284	31.4239
 562	1	6	-0.104555	34.6461	-25.2782	32.1246
 563	1	3	0.521254	28.1383	-25.5026	34.5374
 564	1	3	0.53569	27.9409	-26.7505	32.6013
 565	1	4	0.027822	27.2905	-26.2733	33.7418
 566	1	2	-0.468874	27.8574	-24.8586	35.5329
 567	1	2	-0.477974	27.467	-27.3736	31.6646
 568	1	1	-0.359831	25.9057	-26.5212	34.0413
 569	1	1	0.131035	24.9058	-25.7109	33.4599
 570	1	1	-0.120983	23.5395	-26.0284	33.6592
 571	1	1	0.127261	25.5625	-27.5977	34.8874
 572	1	1	-0.127195	24.1998	-27.8701	35.1589
 573	1	1	0.144798	23.1913	-27.1064	34.5168
 574	1	5	-0.020676	26.6693	-28.466	35.5052
 575	1	5	-0.019785	25.3347	-24.5162	32.5975
 576	1	7	0.164889	34.0661	-22.608	35.8678
 577	1	7	0.175264	31.3559	-22.5008	32.4488
 578	1	7	0.1582	30.8484	-20.1126	32.9512
 579	1	7	0.150763	30.3234	-26.9818	30.9136
 580	1	7	0.144868	32.4637	-25.8975	31.471
 581	1	7	0.134072	30.678	-24.2161	35.0741
 582	1	5	-0.300668	22.447	-25.2118	32.9421
 583	1	5	-0.243237	23.8318	-28.9959	36.1396
 584	1	9	0.021835	26.9184	-28.1099	36.5122
 585	1	9	0.012312	27.5972	-28.4746	34.9223
 586	1	9	0.041777	26.3676	-29.5167	35.584
 587	1	9	0.110598	22.8286	-28.8992	36.5702
 588	1	9	0.08293	23.8863	-29.9746	35.6447
 589	1	9	0.082252	24.5155	-29.0182	36.9981
 590	1	9	0.027698	26.1851	-23.9882	33.0408
 591	1	9	0.017051	24.5529	-23.7593	32.4854
 592	1	9	0.037874	25.6351	-24.8444	31.5923
 593	1	9	0.095908	21.508	-25.758	32.8068
 594	1	9	0.127068	22.2183	-24.2901	33.4979
 595	1	9	0.099095	22.7529	-24.925	31.9284
 596	1	1	-0.024347	35.5818	-6.58797	38.4444
 597	1	1	-0.071478	35.8523	-6.68997	39.8356
 598	1	1	-0.180016	35.8162	-5.49259	40.6059
 599	1	2	-0.370097	34.8382	-5.73655	35.5581
 600	1	1	0.010306	35.2436	-5.34234	37.9013
 601	1	1	-0.071748	35.5116	-4.24731	40.0255
 602	1	2	-0.403598	34.5694	-1.90926	38.1665
 603	1	1	0.055994	35.1967	-4.2002	38.669
 604	1	3	0.021521	34.8764	-4.98272	36.5137
 605	1	4	0.466017	34.572	-3.62371	36.5516
 606	1	3	0.096621	34.7558	-3.06385	37.8155
 607	1	1	-0.099438	33.1986	-10.0092	39.1101
 608	1	5	-0.089685	36.282	-8.06113	40.448
 609	1	1	-0.037281	35.4216	-9.21135	39.8482
 610	1	1	-0.08188	34.0327	-8.99552	39.6192
 611	1	1	-0.106561	33.7698	-11.2596	38.8623
 612	1	1	-0.037628	35.9442	-10.5152	39.6353
 613	1	1	-0.12234	35.0901	-11.5122	39.1566
 614	1	5	0.388954	36.0813	-8.14537	42.0086
 615	1	5	0.307788	37.8146	-8.20649	40.1208
 616	1	6	-0.129718	36.2466	-9.4175	42.4576
 617	1	6	-0.129089	34.8342	-7.75461	42.3747
 618	1	6	-0.119089	36.9628	-7.37654	42.6931
 619	1	6	-0.103894	38.0222	-8.44776	38.8095
 620	1	6	-0.097852	38.4979	-7.07738	40.4065
 621	1	6	-0.104555	38.4252	-9.19002	40.8147
 622	1	3	0.521254	35.3542	-12.9547	38.9404
 623	1	3	0.53569	33.159	-12.5148	38.3604
 624	1	4	0.027822	34.1743	-13.4828	38.4034
 625	1	2	-0.468874	36.3901	-13.5309	39.241
 626	1	2	-0.477974	31.9887	-12.6519	38.04
 627	1	1	-0.359831	34.0071	-14.8393	37.93
 628	1	1	0.131035	32.9364	-15.6219	38.4368
 629	1	1	-0.120983	32.6257	-16.8671	37.8393
 630	1	1	0.127261	34.8684	-15.3714	36.9285
 631	1	1	-0.127195	34.6258	-16.6723	36.4151