pySIMM System Object

2322 atoms
2453 bonds
4273 angles
6355 dihedrals
645 impropers

13 atom types
16 bond types
30 angle types
15 dihedral types
4 improper types

-170.069415 170.069415 xlo xhi
-170.069415 170.069415 ylo yhi
-170.069415 170.069415 zlo zhi

Masses

   1	14.01	# n
   2	12.01	# c
   3	12.01	# ca
   4	1.008	# hn
   5	16.0	# o
   6	1.008	# ha
   7	12.01	# c3
   8	19.0	# f
   9	16.0	# os
  10	1.008	# h1
  11	1.008	# hc
  12	16.0	# oh
  13	1.008	# ho

Pair Coeffs

   1	0.17	3.249998523775958	# n
   2	0.086	3.3996695084235347	# c
   3	0.086	3.3996695084235347	# ca
   4	0.0157	1.069078461768407	# hn
   5	0.21	2.959921901149463	# o
   6	0.015	2.59964245953351	# ha
   7	0.1094	3.3996695084235347	# c3
   8	0.061	3.1181455134911875	# f
   9	0.17	3.0000123434657784	# os
  10	0.0157	2.471353044121301	# h1
  11	0.0157	2.649532787749369	# hc
  12	0.2104	3.0664733878390478	# oh
  13	0.0047	0.5379246460131368	# ho

Bond Coeffs

   1	345.8	1.086	# ca,ha
   2	637.7	1.2183	# c,o
   3	427.6	1.3789	# c,n
   4	321.0	1.5156	# c3,ca
   5	300.9	1.5375	# c3,c3
   6	384.2	1.4121	# ca,n
   7	330.6	1.0969	# c3,h1
   8	330.6	1.0969	# c3,hc
   9	316.7	1.4233	# c3,oh
  10	403.2	1.0129	# hn,n
  11	356.9	1.3497	# c3,f
  12	371.4	0.973	# ho,oh
  13	308.6	1.4316	# c3,os
  14	461.1	1.3984	# ca,ca
  15	345.9	1.4906	# c,ca
  16	390.8	1.3584	# c,os

Angle Coeffs

   1	39.4	107.58	# hc,c3,hc
   2	63.53	120.77	# c3,ca,ca
   3	70.89	107.36	# f,c3,f
   4	67.87	120.19	# ca,ca,n
   5	68.0	107.97	# c3,c3,os
   6	66.11	109.24	# c3,c3,f
   7	46.39	109.56	# c3,c3,h1
   8	62.86	111.51	# c3,c3,c3
   9	75.32	123.25	# o,c,os
  10	63.15	112.07	# c3,c3,ca
  11	63.82	123.71	# c,n,ca
  12	63.56	112.24	# ca,c3,ca
  13	46.34	109.8	# c3,c3,hc
  14	67.47	110.19	# c3,c3,oh
  15	47.38	107.26	# c3,oh,ho
  16	39.24	108.46	# h1,c3,h1
  17	69.32	112.44	# ca,c,os
  18	63.74	127.08	# c,n,c
  19	48.18	119.88	# ca,ca,ha
  20	50.93	110.26	# h1,c3,oh
  21	74.22	123.05	# n,c,o
  22	50.8	109.78	# h1,c3,os
  23	63.28	115.98	# c,os,c3
  24	48.33	117.55	# c,n,hn
  25	66.62	120.02	# ca,ca,ca
  26	68.72	122.6	# ca,c,o
  27	67.68	115.25	# ca,c,n
  28	64.28	120.33	# c,ca,ca
  29	46.8	110.47	# ca,c3,hc
  30	49.75	116.02	# ha,ca,n

Dihedral Coeffs

   1	2	0.0	3	0	0.25	1	0	# hc,c3,c3,os
   2	2	2.5	2	180	2.0	1	0	# hn,n,c,o
   3	1	3.625	2	180	# X,ca,ca,X
   4	2	0.0	3	0	0.25	1	0	# hc,c3,c3,oh
   5	1	0.15555555555555556	3	0	# X,c3,c3,X
   6	2	2.7	2	180	1.4	1	180	# o,c,os,c3
   7	1	1.0	2	180	# X,c,ca,X
   8	1	0.0	2	0	# X,c3,ca,X
   9	2	0.16	3	0	0.25	1	0	# ho,oh,c3,c3
  10	2	0.383	3	0	0.8	1	180	# c3,c3,os,c
  11	1	2.5	2	180	# X,c,n,X
  12	1	0.45	2	180	# X,ca,n,X
  13	1	2.7	2	180	# X,c,os,X
  14	1	0.3833333333333333	3	0	# X,c3,os,X
  15	1	0.16666666666666666	3	0	# X,c3,oh,X

Improper Coeffs

   1	1.1	-1	2	# ca,X,X,ha
   2	1.1	-1	2	# n,X,X,hn
   3	1.1	-1	2	# ca,ca,ca,c3
   4	10.5	-1	2	# c,X,X,o

Atoms

   1	1	1	0.478781	-2.74618	-34.7137	1.95226
   2	1	2	0.051808	-3.97353	-35.2292	1.52748
   3	1	3	-0.015342	-4.01244	-34.9513	0.061107
   4	1	2	0.052802	-1.9743	-34.2038	0.91038
   5	1	3	0.058525	-2.84139	-34.3045	-0.290338
   6	1	5	-0.381395	-4.84291	-35.7718	2.1907
   7	1	5	-0.387279	-0.830712	-33.7736	0.968012
   8	1	3	-0.003007	-4.98567	-35.2672	-0.900913
   9	1	3	-0.04277	-2.63701	-33.8262	-1.58661
  10	1	3	-0.203298	-3.64517	-34.0612	-2.54295
  11	1	3	-0.057014	-4.79283	-34.8557	-2.25259
  12	1	6	0.158736	-5.86662	-35.8189	-0.585905
  13	1	6	0.155574	-1.73863	-33.2651	-1.83455
  14	1	6	0.172835	-3.49932	-33.6513	-3.54007
  15	1	7	-0.114348	-5.81412	-35.2182	-3.3902
  16	1	7	0.394993	-6.44529	-36.6528	-3.18935
  17	1	8	-0.128918	-7.01423	-37.1063	-4.32713
  18	1	8	-0.12014	-5.50199	-37.5597	-2.83237
  19	1	8	-0.128671	-7.41975	-36.7008	-2.2522
  20	1	7	0.329225	-6.93139	-34.1074	-3.34108
  21	1	8	-0.1084	-6.41808	-32.9096	-3.71589
  22	1	8	-0.10772	-7.40992	-33.9365	-2.0864
  23	1	8	-0.098105	-8.00309	-34.382	-4.12904
  24	1	3	-0.04356	-5.06754	-35.2527	-4.76445
  25	1	3	-0.061005	-5.55313	-34.589	-5.92659
  26	1	3	-0.036586	-4.74111	-34.5088	-7.06133
  27	1	3	-0.073054	-3.81454	-35.9212	-4.85284
  28	1	3	-0.129461	-2.9903	-35.7973	-5.98977
  29	1	3	-0.055433	-3.48646	-35.0717	-7.08202
  30	1	2	0.497443	-2.83766	-34.682	-8.36001
  31	1	1	-0.091283	-3.76523	-33.8966	-9.05343
  32	1	2	0.442461	-4.95838	-33.7722	-8.33791
  33	1	3	0.056821	-3.49041	-33.2411	-10.3003
  34	1	3	-0.175202	-2.63082	-33.8316	-11.2542
  35	1	3	-0.086463	-2.29702	-33.1784	-12.4628
  36	1	3	-0.120823	-4.03869	-31.9721	-10.5906
  37	1	3	-0.147764	-3.7437	-31.3223	-11.802
  38	1	3	-0.091348	-2.87593	-31.9187	-12.731
  39	1	2	0.723311	-1.32084	-33.817	-13.4277
  40	1	6	0.16273	-1.99646	-36.241	-6.0204
  41	1	6	0.144736	-3.43133	-36.4682	-3.9942
  42	1	6	0.138526	-6.50753	-34.0757	-5.95666
  43	1	5	-0.452878	-5.96314	-33.1404	-8.62327
  44	1	5	-0.478383	-1.68619	-34.9471	-8.65502
  45	1	6	0.14723	-4.16795	-30.3414	-12.0036
  46	1	6	0.161782	-2.1933	-34.8112	-11.0641
  47	1	6	0.150279	-4.6865	-31.4742	-9.87944
  48	1	6	0.142321	-2.63786	-31.3836	-13.6482
  49	1	5	-0.564646	-0.654696	-34.8037	-13.1574
  50	1	9	-0.344773	-1.27584	-33.2248	-14.65
  51	1	7	-0.038703	-153.457	120.464	-132.431
  52	1	10	0.090446	-9.42459	-4.10603	25.9464
  53	1	10	0.070639	19.5425	-165.186	73.5845
  54	1	11	0.018298	-153.329	119.675	-133.184
  55	1	11	0.032617	-152.694	121.231	-132.614
  56	1	7	0.364059	-154.861	121.078	-132.54
  57	1	10	-0.049335	-155.612	120.299	-132.37
  58	1	12	-0.72623	-155.048	121.647	-133.831
  59	1	10	0.033772	-154.982	121.843	-131.763
  60	1	13	0.432586	-155.979	121.909	-133.893
  61	1	3	-0.024347	3.44874	-31.3499	13.6018
  62	1	3	-0.071478	2.4133	-32.3127	13.4124
  63	1	3	-0.180016	2.69815	-33.664	13.7515
  64	1	5	-0.370097	6.15053	-29.8565	13.9511
  65	1	3	0.010306	4.69143	-31.772	14.0913
  66	1	3	-0.071748	3.94389	-34.0611	14.2721
  67	1	5	-0.403598	6.9225	-34.3035	15.0656
  68	1	3	0.055994	4.92952	-33.0893	14.4293
  69	1	2	0.021521	5.96845	-31.0288	14.225
  70	1	1	0.466017	6.9128	-31.9869	14.6031
  71	1	2	0.096621	6.35883	-33.2541	14.7882
  72	1	3	-0.099438	2.31076	-33.5751	9.38847
  73	1	7	-0.089685	1.04612	-31.9912	12.7232
  74	1	3	-0.037281	1.0411	-32.6867	11.327
  75	1	3	-0.08188	2.27252	-32.9695	10.6586
  76	1	3	-0.106561	1.09601	-33.8311	8.75344
  77	1	3	-0.037628	-0.172788	-33.0018	10.6519
  78	1	3	-0.12234	-0.110911	-33.5567	9.36008
  79	1	7	0.388954	0.839862	-30.4455	12.4805
  80	1	7	0.307788	-0.113565	-32.5106	13.6744
  81	1	8	-0.129718	-0.348573	-30.1376	11.9249
  82	1	8	-0.129089	1.75057	-29.9311	11.6233
  83	1	8	-0.119089	0.907898	-29.7443	13.6307
  84	1	8	-0.103894	0.119262	-32.171	14.962
  85	1	8	-0.097852	-0.245421	-33.8553	13.6412
  86	1	8	-0.104555	-1.33657	-32.024	13.3705
  87	1	2	0.521254	-1.1883	-33.8178	8.36064
  88	1	2	0.53569	0.841175	-34.2585	7.35813
  89	1	1	0.027822	-0.538192	-34.1751	7.17167
  90	1	5	-0.468874	-2.37519	-33.589	8.52307
  91	1	5	-0.477974	1.70227	-34.5736	6.55429
  92	1	3	-0.359831	-1.17756	-34.3372	5.8863
  93	1	3	0.131035	-1.12279	-35.5929	5.21896
  94	1	3	-0.120983	-1.68647	-35.7409	3.92346
  95	1	3	0.127261	-1.77854	-33.2205	5.24602
  96	1	3	-0.127195	-2.36478	-33.3709	3.96351
  97	1	3	0.144798	-2.30707	-34.6258	3.3041
  98	1	7	-0.020676	-1.75081	-31.8163	5.86915
  99	1	7	-0.019785	-0.412184	-36.7981	5.85517
 100	1	6	0.164889	3.34745	-30.3028	13.3385
 101	1	6	0.175264	1.97881	-34.4485	13.5512
 102	1	6	0.1582	4.16342	-35.1026	14.4842
 103	1	6	0.150763	3.25121	-33.7678	8.87958
 104	1	6	0.144868	3.22509	-32.7187	11.1063
 105	1	6	0.134072	-1.14279	-32.7589	11.0741
 106	1	7	-0.300668	-1.562	-37.0875	3.17261
 107	1	7	-0.243237	-3.01577	-32.1523	3.27487
 108	1	11	0.021835	-1.22419	-31.7486	6.82413
 109	1	11	0.012312	-2.76746	-31.4434	6.04512
 110	1	11	0.041777	-1.24431	-31.1081	5.20376
 111	1	11	0.110598	-3.72005	-31.6449	3.94667
 112	1	11	0.08293	-2.2449	-31.426	2.98464
 113	1	11	0.082252	-3.59139	-32.3872	2.37164
 114	1	11	0.027698	-1.02699	-37.7013	5.77043
 115	1	11	0.017051	-0.209864	-36.6842	6.92598
 116	1	11	0.037874	0.543902	-36.9976	5.3554
 117	1	11	0.095908	-1.85908	-37.0567	2.11746
 118	1	11	0.127068	-0.524494	-37.4433	3.18321
 119	1	11	0.099095	-2.17817	-37.8633	3.64799
 120	1	3	-0.024347	20.7816	-31.6759	15.6883
 121	1	3	-0.071478	19.5127	-31.056	15.5578
 122	1	3	-0.180016	19.1043	-30.15	16.5749
 123	1	5	-0.370097	23.5566	-32.7025	16.5328
 124	1	3	0.010306	21.5611	-31.3917	16.8107
 125	1	3	-0.071748	19.9113	-29.875	17.6989
 126	1	5	-0.403598	22.2059	-29.7165	19.8134
 127	1	3	0.055994	21.1489	-30.5183	17.7905
 128	1	2	0.021521	22.894	-31.9113	17.1781
 129	1	1	0.466017	23.2135	-31.3114	18.3923
 130	1	2	0.096621	22.2182	-30.429	18.8229
 131	1	3	-0.099438	15.6524	-32.4877	16.6355
 132	1	7	-0.089685	18.5567	-31.3176	14.3574
 133	1	3	-0.037281	17.126	-31.4638	14.9372
 134	1	3	-0.08188	16.9318	-32.2829	16.0852
 135	1	3	-0.106561	14.5666	-31.8738	16.0095
 136	1	3	-0.037628	15.9893	-30.8764	14.3213
 137	1	3	-0.12234	14.733	-31.0861	14.891
 138	1	7	0.388954	18.7085	-30.1092	13.3631
 139	1	7	0.307788	18.8618	-32.654	13.5842
 140	1	8	-0.129718	18.1224	-30.3359	12.1622
 141	1	8	-0.129089	20.011	-29.8343	13.1327
 142	1	8	-0.119089	18.175	-28.9726	13.8631
 143	1	8	-0.103894	17.8546	-32.9826	12.7398
 144	1	8	-0.097852	19.0105	-33.6945	14.4358
 145	1	8	-0.104555	19.9836	-32.5845	12.8341
 146	1	2	0.521254	13.3944	-30.7123	14.3793
 147	1	2	0.53569	13.1144	-32.0351	16.2616
 148	1	1	0.027822	12.4864	-31.3664	15.2095
 149	1	5	-0.468874	13.1661	-30.0288	13.3958
 150	1	5	-0.477974	12.6167	-32.6598	17.1856
 151	1	3	-0.359831	11.0774	-31.4125	14.972
 152	1	3	0.131035	10.5762	-32.1736	13.8883
 153	1	3	-0.120983	9.17928	-32.2763	13.7065
 154	1	3	0.127261	10.2172	-30.7246	15.8506
 155	1	3	-0.127195	8.82769	-30.9236	15.736
 156	1	3	0.144798	8.3125	-31.7268	14.6878
 157	1	7	-0.020676	10.7914	-29.822	16.9532
 158	1	7	-0.019785	11.5295	-32.9319	12.9499
 159	1	6	0.164889	21.1773	-32.3642	14.9484
 160	1	6	0.175264	18.1452	-29.6412	16.4956
 161	1	6	0.1582	19.5876	-29.1808	18.4736
 162	1	6	0.150763	15.5003	-33.1431	17.4907
 163	1	6	0.144868	17.7785	-32.7813	16.5488
 164	1	6	0.134072	16.0475	-30.305	13.4004
 165	1	7	-0.300668	8.62769	-33.0948	12.5268
 166	1	7	-0.243237	7.90612	-30.242	16.7538
 167	1	11	0.021835	10.1543	-28.952	17.1543
 168	1	11	0.012312	11.7723	-29.4062	16.6958
 169	1	11	0.041777	10.9045	-30.3864	17.8878
 170	1	11	0.110598	7.87	-29.1576	16.5782
 171	1	11	0.08293	6.87192	-30.5999	16.7364
 172	1	11	0.082252	8.25906	-30.4129	17.7789
 173	1	11	0.027698	12.5181	-33.1176	13.3845
 174	1	11	0.017051	11.6867	-32.3673	12.0223
 175	1	11	0.037874	11.1367	-33.9229	12.6846
 176	1	11	0.095908	9.17848	-32.8832	11.6013
 177	1	11	0.127068	8.71815	-34.1712	12.7297
 178	1	11	0.099095	7.57546	-32.8913	12.2984
 179	1	3	-0.024347	35.1882	-30.7073	24.9735
 180	1	3	-0.071478	33.8429	-30.8448	24.5421
 181	1	3	-0.180016	33.194	-29.7033	23.978
 182	1	5	-0.370097	38.0618	-29.7976	25.6625
 183	1	3	0.010306	35.8337	-29.4853	24.7813
 184	1	3	-0.071748	33.8622	-28.4705	23.8135
 185	1	5	-0.403598	35.9528	-26.1486	23.7092
 186	1	3	0.055994	35.2027	-28.4024	24.2006
 187	1	2	0.021521	37.2138	-29.0901	25.1461
 188	1	1	0.466017	37.3221	-27.7566	24.7611
 189	1	2	0.096621	36.1609	-27.265	24.1602
 190	1	3	-0.099438	31.94	-32.5005	21.0147
 191	1	7	-0.089685	33.0528	-32.1761	24.7295
 192	1	3	-0.037281	32.1225	-32.3425	23.4869
 193	1	3	-0.08188	32.7132	-32.3988	22.1906
 194	1	3	-0.106561	30.5492	-32.4922	21.1484
 195	1	3	-0.037628	30.7021	-32.3662	23.573
 196	1	3	-0.12234	29.956	-32.4042	22.3883
 197	1	7	0.388954	32.2609	-32.046	26.0881
 198	1	7	0.307788	33.9805	-33.4616	24.8262
 199	1	8	-0.129718	33.0665	-31.7366	27.1282
 200	1	8	-0.129089	31.6117	-33.1907	26.4071
 201	1	8	-0.119089	31.355	-31.0424	26.0626
 202	1	8	-0.103894	34.9469	-33.4779	23.8816
 203	1	8	-0.097852	33.2791	-34.6093	24.6814
 204	1	8	-0.104555	34.6222	-33.5759	26.0059
 205	1	2	0.521254	28.4868	-32.2816	22.1928
 206	1	2	0.53569	29.4752	-32.4892	20.1153
 207	1	1	0.027822	28.2742	-32.3392	20.8115
 208	1	5	-0.468874	27.6859	-32.0108	23.0726
 209	1	5	-0.477974	29.6463	-32.4995	18.9048
 210	1	3	-0.359831	27.0024	-32.0888	20.1833
 211	1	3	0.131035	25.9746	-33.0602	20.2431
 212	1	3	-0.120983	24.6857	-32.769	19.7243
 213	1	3	0.127261	26.7697	-30.8434	19.5553
 214	1	3	-0.127195	25.5255	-30.6063	18.9223
 215	1	3	0.144798	24.4694	-31.545	19.0447
 216	1	7	-0.020676	27.8478	-29.7509	19.5402
 217	1	7	-0.019785	26.269	-34.4341	20.8534
 218	1	6	0.164889	35.7406	-31.5101	25.4516
 219	1	6	0.175264	32.1518	-29.7579	23.6808
 220	1	6	0.1582	33.3624	-27.5998	23.3979
 221	1	6	0.150763	32.4078	-32.535	20.0323
 222	1	6	0.144868	33.7906	-32.3436	22.083
 223	1	6	0.134072	30.1594	-32.3293	24.5117
 224	1	7	-0.300668	23.5196	-33.7704	19.8749
 225	1	7	-0.243237	25.3116	-29.3391	18.0901
 226	1	11	0.021835	28.6169	-29.8779	20.3125
 227	1	11	0.012312	27.4045	-28.7641	19.726
 228	1	11	0.041777	28.3522	-29.7155	18.5663
 229	1	11	0.110598	24.8508	-28.5475	18.692
 230	1	11	0.08293	26.2463	-28.9407	17.6755
 231	1	11	0.082252	24.6697	-29.516	17.2187
 232	1	11	0.027698	25.673	-35.2277	20.3888
 233	1	11	0.017051	26.0596	-34.4349	21.9307
 234	1	11	0.037874	27.3133	-34.7345	20.7119
 235	1	11	0.095908	22.5437	-33.2761	19.9508
 236	1	11	0.127068	23.4784	-34.4625	19.0225
 237	1	11	0.099095	23.6015	-34.3711	20.7899
 238	1	3	-0.024347	48.1949	-19.5167	25.759
 239	1	3	-0.071478	47.8394	-20.6737	26.5101
 240	1	3	-0.180016	47.6511	-20.509	27.9128
 241	1	5	-0.370097	48.5	-16.6989	24.6186
 242	1	3	0.010306	48.2905	-18.2799	26.4058
 243	1	3	-0.071748	47.7822	-19.2561	28.5495
 244	1	5	-0.403598	47.8723	-16.2844	29.2267
 245	1	3	0.055994	48.0956	-18.1507	27.7591
 246	1	2	0.021521	48.3826	-16.9257	25.8112
 247	1	1	0.466017	48.1758	-16.0254	26.869
 248	1	2	0.096621	48.06	-16.7088	28.0975
 249	1	3	-0.099438	43.6795	-21.3042	25.8425
 250	1	7	-0.089685	47.4926	-22.0568	25.8534
 251	1	3	-0.037281	45.9578	-22.2762	25.9704
 252	1	3	-0.08188	45.0801	-21.1559	25.887
 253	1	3	-0.106561	43.1518	-22.5963	25.9166
 254	1	3	-0.037628	45.3799	-23.5711	26.0309
 255	1	3	-0.12234	43.982	-23.6903	26.0314
 256	1	7	0.388954	48.3176	-23.193	26.5886
 257	1	7	0.307788	47.8266	-22.1031	24.3119
 258	1	8	-0.129718	49.5947	-22.817	26.824
 259	1	8	-0.129089	48.3759	-24.3616	25.9128
 260	1	8	-0.119089	47.7867	-23.5246	27.7846
 261	1	8	-0.103894	47.5143	-23.2826	23.718
 262	1	8	-0.097852	49.1405	-21.879	24.0873
 263	1	8	-0.104555	47.1175	-21.1805	23.6209
 264	1	2	0.521254	43.145	-24.9138	25.9743
 265	1	2	0.53569	41.7529	-23.0826	25.7368
 266	1	1	0.027822	41.8374	-24.4739	25.7647
 267	1	5	-0.468874	43.5517	-26.0575	26.0677
 268	1	5	-0.477974	40.7688	-22.3959	25.5143
 269	1	3	-0.359831	40.7145	-25.3432	25.5333
 270	1	3	0.131035	40.5696	-25.9634	24.2679
 271	1	3	-0.120983	39.4716	-26.8241	24.0295
 272	1	3	0.127261	39.767	-25.5724	26.561
 273	1	3	-0.127195	38.6221	-26.3594	26.2945
 274	1	3	0.144798	38.4735	-26.9656	25.023
 275	1	7	-0.020676	39.9762	-24.9781	27.96
 276	1	7	-0.019785	41.6032	-25.707	23.1632
 277	1	6	0.164889	48.3262	-19.5184	24.6849
 278	1	6	0.175264	47.3272	-21.3436	28.5264
 279	1	6	0.1582	47.5708	-19.1296	29.6098
 280	1	6	0.150763	43.0244	-20.4446	25.7172
 281	1	6	0.144868	45.4774	-20.1523	25.7939
 282	1	6	0.134072	45.9766	-24.4777	26.039
 283	1	7	-0.300668	39.3496	-27.5892	22.6992
 284	1	7	-0.243237	37.5703	-26.5752	27.3981
 285	1	11	0.021835	41.0362	-24.856	28.2065
 286	1	11	0.012312	39.5694	-25.6154	28.7527
 287	1	11	0.041777	39.4977	-23.9966	28.0386
 288	1	11	0.110598	37.9172	-27.3158	28.1316
 289	1	11	0.08293	37.3619	-25.643	27.9398
 290	1	11	0.082252	36.5964	-26.9136	27.0286
 291	1	11	0.027698	42.41	-26.4506	23.2108
 292	1	11	0.017051	42.0599	-24.7144	23.239
 293	1	11	0.037874	41.1625	-25.7467	22.1607
 294	1	11	0.095908	38.8414	-28.5567	22.8084
 295	1	11	0.127068	38.7962	-26.9992	21.9588
 296	1	11	0.099095	40.3293	-27.8327	22.2701
 297	1	1	0.478781	58.1488	-4.56621	23.018
 298	1	2	0.051808	57.6777	-5.30492	21.9305
 299	1	3	-0.015342	56.9034	-6.42682	22.5203
 300	1	2	0.052802	57.7552	-5.0988	24.2434
 301	1	3	0.058525	56.9512	-6.29655	23.8948
 302	1	5	-0.381395	57.8835	-5.11933	20.7427
 303	1	5	-0.387279	57.9799	-4.68168	25.368
 304	1	3	-0.003007	56.2264	-7.48064	21.8934
 305	1	3	-0.04277	56.302	-7.19722	24.7366
 306	1	3	-0.203298	55.6152	-8.26691	24.1313
 307	1	3	-0.057014	55.5643	-8.42917	22.7135
 308	1	6	0.158736	56.2472	-7.55043	20.8094
 309	1	6	0.155574	56.3583	-7.08717	25.8186
 310	1	6	0.172835	55.1421	-8.9976	24.7828
 311	1	7	-0.114348	54.8694	-9.69498	22.1433
 312	1	7	0.394993	55.929	-10.8553	22.2941
 313	1	8	-0.128918	56.1558	-11.1368	23.5915
 314	1	8	-0.12014	57.1347	-10.52	21.7679
 315	1	8	-0.128671	55.5531	-12.0064	21.6936
 316	1	7	0.329225	54.4354	-9.61884	20.6301
 317	1	8	-0.1084	53.6525	-10.6706	20.2909
 318	1	8	-0.10772	53.7048	-8.51641	20.36
 319	1	8	-0.098105	55.485	-9.61402	19.7777
 320	1	3	-0.04356	53.56	-9.87281	22.9652
 321	1	3	-0.061005	53.2018	-11.099	23.5708
 322	1	3	-0.036586	52.0223	-11.1575	24.3161
 323	1	3	-0.073054	52.703	-8.74918	23.1512
 324	1	3	-0.129461	51.5029	-8.82901	23.88
 325	1	3	-0.055433	51.1849	-10.0678	24.4432
 326	1	2	0.497443	50.0102	-10.4823	25.2452
 327	1	1	-0.091283	50.2242	-11.8191	25.5657
 328	1	2	0.442461	51.4099	-12.3014	25.0315
 329	1	3	0.056821	49.3192	-12.5917	26.3444
 330	1	3	-0.175202	48.7443	-12.0219	27.4848
 331	1	3	-0.086463	47.7525	-12.6962	28.2111
 332	1	3	-0.120823	48.959	-13.9049	25.9867
 333	1	3	-0.147764	47.9361	-14.6128	26.6697
 334	1	3	-0.091348	47.3251	-13.9553	27.7639
 335	1	2	0.723311	47.1646	-12.0381	29.4333
 336	1	6	0.16273	50.8431	-7.9676	24.0009
 337	1	6	0.144736	52.9728	-7.78874	22.7116
 338	1	6	0.138526	53.804	-11.9955	23.4752
 339	1	5	-0.452878	51.8742	-13.4241	25.1154
 340	1	5	-0.478383	49.0527	-9.77766	25.5103
 341	1	6	0.14723	47.1566	-14.8139	25.938
 342	1	6	0.161782	49.0396	-11.0224	27.8033
 343	1	6	0.150279	49.4373	-14.3598	25.1207
 344	1	6	0.142321	46.5138	-14.445	28.2988
 345	1	5	-0.564646	47.6371	-11.0224	29.9094
 346	1	9	-0.344773	46.032	-12.6151	29.9161
 347	1	7	-0.038703	82.4262	-34.1991	120.299
 348	1	10	0.090446	-63.9021	88.292	-149.147
 349	1	10	0.070639	19.8921	148.614	146.299
 350	1	11	0.018298	83.3946	-34.0588	119.803
 351	1	11	0.032617	81.6888	-33.5718	119.784
 352	1	7	0.364059	82.0015	-35.6764	120.235
 353	1	10	-0.049335	82.7528	-36.2927	120.742
 354	1	12	-0.72623	81.8792	-36.0941	118.881
 355	1	10	0.033772	81.044	-35.8004	120.757
 356	1	13	0.432586	82.7799	-36.1372	118.517
 357	1	3	-0.024347	66.6439	6.55651	21.9844
 358	1	3	-0.071478	66.2722	5.21068	21.7128
 359	1	3	-0.180016	67.1471	4.17882	22.1641
 360	1	5	-0.370097	67.9199	9.20644	22.9358
 361	1	3	0.010306	67.8203	6.81483	22.7061
 362	1	3	-0.071748	68.3234	4.46515	22.8926
 363	1	5	-0.403598	70.6118	5.76934	24.5371
 364	1	3	0.055994	68.6286	5.80101	23.1653
 365	1	2	0.021521	68.3863	8.10624	23.1767
 366	1	1	0.466017	69.4954	7.77718	23.9689
 367	1	2	0.096621	69.7291	6.39401	23.9724
 368	1	3	-0.099438	63.4046	2.85208	23.8762
 369	1	7	-0.089685	64.9647	4.83296	20.9332
 370	1	3	-0.037281	64.2366	3.6986	21.7018
 371	1	3	-0.08188	64.1527	3.77593	23.1199
 372	1	3	-0.106561	62.7168	1.84564	23.1904
 373	1	3	-0.037628	63.5559	2.64206	21.048
 374	1	3	-0.12234	62.8201	1.73656	21.8205
 375	1	7	0.388954	63.8982	6.00142	20.8284
 376	1	7	0.307788	65.4155	4.42841	19.4757
 377	1	8	-0.129718	62.7053	5.56671	20.3517
 378	1	8	-0.129089	64.2811	7.00669	20.0148
 379	1	8	-0.119089	63.6337	6.55996	22.0326
 380	1	8	-0.103894	66.1139	3.26954	19.4733
 381	1	8	-0.097852	66.219	5.37057	18.9318
 382	1	8	-0.104555	64.3967	4.26866	18.6053
 383	1	2	0.521254	62.0174	0.566437	21.3872
 384	1	2	0.53569	61.8004	0.771524	23.6755
 385	1	1	0.027822	61.4412	0.0370732	22.5438
 386	1	5	-0.468874	61.8787	0.188995	20.2367
 387	1	5	-0.477974	61.4495	0.58641	24.8292
 388	1	3	-0.359831	60.6162	-1.14282	22.5912
 389	1	3	0.131035	61.2087	-2.4054	22.8211
 390	1	3	-0.120983	60.3848	-3.54897	22.9361
 391	1	3	0.127261	59.2118	-1.01963	22.4638
 392	1	3	-0.127195	58.3757	-2.15004	22.6454
 393	1	3	0.144798	58.9726	-3.41306	22.8815
 394	1	7	-0.020676	58.6034	0.359334	22.1863
 395	1	7	-0.019785	62.7383	-2.54725	22.9155
 396	1	6	0.164889	66.0425	7.40402	21.6711
 397	1	6	0.175264	66.913	3.13899	21.9542
 398	1	6	0.1582	68.9749	3.67387	23.2515
 399	1	6	0.150763	63.3327	2.93816	24.9577
 400	1	6	0.144868	64.6517	4.58276	23.6499
 401	1	6	0.134072	63.5626	2.51595	19.9702
 402	1	7	-0.300668	61.0236	-4.93788	23.086
 403	1	7	-0.243237	56.8415	-1.99955	22.608
 404	1	11	0.021835	58.4615	0.915457	23.1231
 405	1	11	0.012312	57.6334	0.300384	21.6836
 406	1	11	0.041777	59.2307	0.959917	21.5202
 407	1	11	0.110598	56.2979	-2.80219	23.1191
 408	1	11	0.08293	56.5225	-1.07812	23.1096
 409	1	11	0.082252	56.4778	-1.96146	21.572
 410	1	11	0.027698	63.0243	-3.19051	23.7547
 411	1	11	0.017051	63.2647	-1.60089	23.0764
 412	1	11	0.037874	63.1383	-2.99556	21.9982
 413	1	11	0.095908	60.4476	-5.71836	22.5747
 414	1	11	0.127068	62.0257	-4.99648	22.6448
 415	1	11	0.099095	61.1109	-5.21902	24.144
 416	1	1	0.478781	83.9114	11.7974	18.9766
 417	1	2	0.051808	83.3232	12.811	19.7379
 418	1	3	-0.015342	82.1201	12.2029	20.3489
 419	1	2	0.052802	83.1665	10.6146	19.0284
 420	1	3	0.058525	82.0295	10.8928	19.939
 421	1	5	-0.381395	83.6968	13.9626	19.8873
 422	1	5	-0.387279	83.3959	9.54338	18.4947
 423	1	3	-0.003007	81.2108	12.7543	21.2515
 424	1	3	-0.04277	81.0183	10.0527	20.4239
 425	1	3	-0.203298	80.0913	10.5917	21.3439
 426	1	3	-0.057014	80.1675	11.944	21.775
 427	1	6	0.158736	81.3705	13.7844	21.5467
 428	1	6	0.155574	80.9768	9.00955	20.1204
 429	1	6	0.172835	79.3315	9.93727	21.7636
 430	1	7	-0.114348	79.2418	12.4306	22.9263
 431	1	7	0.394993	79.8864	11.8583	24.255
 432	1	8	-0.128918	79.62	10.5411	24.4444
 433	1	8	-0.12014	81.238	11.9553	24.2461
 434	1	8	-0.128671	79.4654	12.5304	25.3529
 435	1	7	0.329225	79.166	14.0072	23.0069
 436	1	8	-0.1084	80.3018	14.5721	23.4792
 437	1	8	-0.10772	78.1762	14.42	23.8347
 438	1	8	-0.098105	78.9177	14.5561	21.7903
 439	1	3	-0.04356	77.7783	11.9431	22.6939
 440	1	3	-0.061005	76.9272	11.5789	23.7729
 441	1	3	-0.036586	75.6066	11.2019	23.5031
 442	1	3	-0.073054	77.2212	11.9515	21.3818
 443	1	3	-0.129461	75.8749	11.5848	21.1448
 444	1	3	-0.055433	75.0829	11.2014	22.2322
 445	1	2	0.497443	73.6459	10.7848	22.3166
 446	1	1	-0.091283	73.3941	10.6107	23.6705
 447	1	2	0.442461	74.526	10.8336	24.4441
 448	1	3	0.056821	72.1091	10.3334	24.2222
 449	1	3	-0.175202	71.3813	11.3652	24.8288
 450	1	3	-0.086463	70.0958	11.1204	25.3485
 451	1	3	-0.120823	71.5277	9.05447	24.1128
 452	1	3	-0.147764	70.2836	8.73674	24.7071
 453	1	3	-0.091348	69.565	9.81304	25.283
 454	1	2	0.723311	69.3221	12.2553	25.9758
 455	1	6	0.16273	75.4511	11.6071	20.1425
 456	1	6	0.144736	77.8269	12.2693	20.5335
 457	1	6	0.138526	77.2546	11.5949	24.8067
 458	1	5	-0.452878	74.6386	10.7944	25.6531
 459	1	5	-0.478383	72.864	10.6329	21.3924
 460	1	6	0.14723	70.5053	8.063	25.5316
 461	1	6	0.161782	71.8039	12.3673	24.8887
 462	1	6	0.150279	72.082	8.27615	23.5923
 463	1	6	0.142321	68.5648	9.62804	25.6733
 464	1	5	-0.564646	69.7592	13.3927	26.0316
 465	1	9	-0.344773	68.1317	11.8919	26.5306
 466	1	7	-0.038703	-41.2765	106.162	-96.7594
 467	1	10	0.090446	163.316	44.3483	-156.865
 468	1	10	0.070639	-73.6071	-143.76	21.5689
 469	1	11	0.018298	-41.9928	106.905	-97.1228
 470	1	11	0.032617	-41.4819	105.996	-95.6981
 471	1	7	0.364059	-41.4429	104.849	-97.537
 472	1	10	-0.049335	-41.246	105.025	-98.6032
 473	1	12	-0.72623	-42.7676	104.358	-97.3712
 474	1	10	0.033772	-40.7121	104.115	-97.1691
 475	1	13	0.432586	-42.8722	103.616	-97.9805
 476	1	1	0.478781	87.7473	22.3526	8.4794
 477	1	2	0.051808	86.4075	22.0417	8.68436
 478	1	3	-0.015342	86.393	20.5747	8.94889
 479	1	2	0.052802	88.5837	21.2412	8.58649
 480	1	3	0.058525	87.6876	20.1072	8.90221
 481	1	5	-0.381395	85.4583	22.8079	8.68467
 482	1	5	-0.387279	89.7991	21.1896	8.51875
 483	1	3	-0.003007	85.3255	19.7164	9.22937
 484	1	3	-0.04277	87.9955	18.7726	9.17844
 485	1	3	-0.203298	86.9333	17.9034	9.50723
 486	1	3	-0.057014	85.5815	18.3503	9.54718
 487	1	6	0.158736	84.329	20.1443	9.2166
 488	1	6	0.155574	89.0285	18.4301	9.162
 489	1	6	0.172835	87.1739	16.875	9.76807
 490	1	7	-0.114348	84.4601	17.3431	9.97264
 491	1	7	0.394993	83.0547	18.0201	10.1781
 492	1	8	-0.128918	82.5285	18.4418	9.00504
 493	1	8	-0.12014	82.1654	17.1598	10.7304
 494	1	8	-0.128671	83.1153	19.0863	11.0154
 495	1	7	0.329225	84.3373	16.2713	8.81985
 496	1	8	-0.1084	84.3128	16.8752	7.61205
 497	1	8	-0.10772	83.2172	15.5169	8.87956
 498	1	8	-0.098105	85.3874	15.4192	8.81067
 499	1	3	-0.04356	84.8424	16.7448	11.353
 500	1	3	-0.061005	84.6216	15.3818	11.6993
 501	1	3	-0.036586	84.9852	14.9404	12.9856
 502	1	3	-0.073054	85.3876	17.6133	12.3409
 503	1	3	-0.129461	85.7373	17.1525	13.6252
 504	1	3	-0.055433	85.5218	15.8032	13.9203
 505	1	2	0.497443	85.7582	15.0471	15.1776
 506	1	1	-0.091283	85.3516	13.7479	14.9173
 507	1	2	0.442461	84.8845	13.5899	13.6211
 508	1	3	0.056821	85.4849	12.7086	15.8766
 509	1	3	-0.175202	86.2613	11.5676	15.6271
 510	1	3	-0.086463	86.4639	10.6153	16.6509
 511	1	3	-0.120823	84.9275	12.8977	17.1474
 512	1	3	-0.147764	85.1146	11.9916	18.2122
 513	1	3	-0.091348	85.8798	10.8386	17.9206
 514	1	2	0.723311	87.2818	9.36189	16.4094
 515	1	6	0.16273	86.1493	17.8266	14.3738
 516	1	6	0.144736	85.5303	18.6686	12.1235
 517	1	6	0.138526	84.1845	14.668	11.0073
 518	1	5	-0.452878	84.5526	12.5514	13.0817
 519	1	5	-0.478383	86.2346	15.4899	16.2095
 520	1	6	0.14723	85.6158	12.5134	19.0246
 521	1	6	0.161782	86.7104	11.4271	14.6461
 522	1	6	0.150279	84.3774	13.8187	17.3302
 523	1	6	0.142321	86.0295	10.0924	18.7001
 524	1	5	-0.564646	87.433	8.49481	17.2538
 525	1	9	-0.344773	87.8379	9.27334	15.1698
 526	1	7	-0.038703	58.6543	-36.5705	44.107
 527	1	10	0.090446	4.72192	-69.9892	50.4065
 528	1	10	0.070639	-104.229	-139.455	-113.982
 529	1	11	0.018298	58.9573	-36.3635	43.0733
 530	1	11	0.032617	57.9104	-37.3763	44.0859
 531	1	7	0.364059	59.8717	-36.9958	44.9457
 532	1	10	-0.049335	60.6131	-36.1885	44.9458
 533	1	12	-0.72623	60.4531	-38.1748	44.403
 534	1	10	0.033772	59.5537	-37.1726	45.9816
 535	1	13	0.432586	60.8801	-37.918	43.5668
 536	1	3	-0.024347	90.5535	35.8921	6.36951
 537	1	3	-0.071478	90.2119	34.7665	7.16937
 538	1	3	-0.180016	90.9126	34.5776	8.3935
 539	1	5	-0.370097	91.8491	38.2928	4.97092
 540	1	3	0.010306	91.6006	36.7271	6.77396
 541	1	3	-0.071748	91.9613	35.4396	8.78692
 542	1	5	-0.403598	94.2239	37.5623	8.90771
 543	1	3	0.055994	92.286	36.5106	7.9474
 544	1	2	0.021521	92.1993	37.8828	6.06433
 545	1	1	0.466017	93.2632	38.3053	6.87007
 546	1	2	0.096621	93.3756	37.5185	8.03055
 547	1	3	-0.099438	91.25	30.6365	6.43679
 548	1	7	-0.089685	89.0352	33.8013	6.81686
 549	1	3	-0.037281	89.5211	32.3311	6.95102
 550	1	3	-0.08188	90.8061	31.9711	6.45324
 551	1	3	-0.106561	90.372	29.6537	6.90466
 552	1	3	-0.037628	88.659	31.2953	7.40003
 553	1	3	-0.12234	89.1189	29.9743	7.38261
 554	1	7	0.388954	88.5482	33.8905	5.32294
 555	1	7	0.307788	87.8536	34.1991	7.79612
 556	1	8	-0.129718	87.7139	32.8723	5.00619
 557	1	8	-0.129089	89.5819	33.803	4.4588
 558	1	8	-0.119089	87.8866	35.0273	5.03117
 559	1	8	-0.103894	86.6428	33.723	7.41755
 560	1	8	-0.097852	87.7241	35.545	7.88457
 561	1	8	-0.104555	88.0874	33.7666	9.05989
 562	1	2	0.521254	88.4345	28.7158	7.77733
 563	1	2	0.53569	90.535	28.1758	6.95368
 564	1	1	0.027822	89.3361	27.695	7.48475
 565	1	5	-0.468874	87.3344	28.6225	8.30204
 566	1	5	-0.477974	91.4916	27.5346	6.54249
 567	1	3	-0.359831	89.0284	26.3107	7.7043
 568	1	3	0.131035	89.2305	25.7481	8.98779
 569	1	3	-0.120983	88.7729	24.4364	9.27139
 570	1	3	0.127261	88.4369	25.5576	6.66703
 571	1	3	-0.127195	88.0579	24.2204	6.92088
 572	1	3	0.144798	88.2097	23.6757	8.2205
 573	1	7	-0.020676	88.1916	26.1679	5.28023
 574	1	7	-0.019785	89.8568	26.6145	10.0823
 575	1	6	0.164889	90.0593	36.1175	5.43
 576	1	6	0.175264	90.6439	33.7494	9.04592
 577	1	6	0.1582	92.5097	35.2849	9.71318
 578	1	6	0.150763	92.2297	30.3723	6.04086
 579	1	6	0.144868	91.4638	32.7338	6.04371
 580	1	6	0.134072	87.6433	31.4912	7.72941
 581	1	7	-0.300668	88.8504	23.8315	10.6932
 582	1	7	-0.243237	87.4345	23.3633	5.80693
 583	1	11	0.021835	87.2006	25.8954	4.89687
 584	1	11	0.012312	88.9381	25.8113	4.55895
 585	1	11	0.041777	88.2204	27.2604	5.26398
 586	1	11	0.110598	86.3564	23.5522	5.72947
 587	1	11	0.08293	87.8871	23.5865	4.83263
 588	1	11	0.082252	87.572	22.2843	5.94661
 589	1	11	0.027698	89.08	27.1853	10.6016
 590	1	11	0.017051	90.5907	27.3253	9.6873
 591	1	11	0.037874	90.3979	26.0179	10.8239
 592	1	11	0.095908	89.7744	23.2449	10.8154
 593	1	11	0.127068	88.8279	24.5872	11.4852
 594	1	11	0.099095	88.0098	23.1642	10.9174
 595	1	1	0.478781	88.7863	49.4174	-3.2056
 596	1	2	0.051808	88.3042	48.1193	-3.0388
 597	1	3	-0.015342	88.6523	47.7534	-1.64402
 598	1	2	0.052802	89.3934	49.9209	-2.04839
 599	1	3	0.058525	89.3063	48.8116	-1.05097
 600	1	5	-0.381395	87.7871	47.3896	-3.86919
 601	1	5	-0.387279	89.914	51.0121	-1.88065
 602	1	3	-0.003007	88.4273	46.5502	-0.966969
 603	1	3	-0.04277	89.7882	48.7033	0.260433
 604	1	3	-0.203298	89.612	47.4793	0.945479
 605	1	3	-0.057014	88.917	46.3815	0.358317
 606	1	6	0.158736	87.8997	45.7741	-1.50804
 607	1	6	0.155574	90.3166	49.5364	0.719817
 608	1	6	0.172835	90.0342	47.3906	1.94429
 609	1	7	-0.114348	88.7197	45.063	1.17959
 610	1	7	0.394993	87.843	45.4426	2.43585
 611	1	8	-0.128918	87.3315	44.3764	3.08642
 612	1	8	-0.12014	86.7824	46.2133	2.1102
 613	1	8	-0.128671	88.5639	46.1302	3.34658
 614	1	7	0.329225	87.9713	43.93	0.361546
 615	1	8	-0.1084	86.7017	44.2743	0.0426761
 616	1	8	-0.10772	87.9027	42.7552	1.02883
 617	1	8	-0.098105	88.6145	43.6295	-0.788549
 618	1	3	-0.04356	90.11	44.4976	1.6042
 619	1	3	-0.061005	90.2375	43.5968	2.69458
 620	1	3	-0.036586	91.4956	43.0524	2.98187
 621	1	3	-0.073054	91.2771	44.779	0.835737
 622	1	3	-0.129461	92.5238	44.1883	1.12066
 623	1	3	-0.055433	92.61	43.3397	2.22498
 624	1	2	0.497443	93.7414	42.5204	2.7294
 625	1	1	-0.091283	93.216	41.7383	3.75992
 626	1	2	0.442461	91.8694	42.0373	3.98997
 627	1	3	0.056821	93.956	40.7394	4.46912
 628	1	3	-0.175202	94.9494	39.9845	3.81757