pySIMM System Object

2740 atoms
2891 bonds
5032 angles
7494 dihedrals
762 impropers

13 atom types
16 bond types
30 angle types
15 dihedral types
4 improper types

-176.172175 176.172175 xlo xhi
-176.172175 176.172175 ylo yhi
-176.172175 176.172175 zlo zhi

Masses

   1	12.01	# ca
   2	16.0	# o
   3	12.01	# c
   4	14.01	# n
   5	12.01	# c3
   6	19.0	# f
   7	1.008	# ha
   8	1.008	# hn
   9	1.008	# hc
  10	16.0	# os
  11	1.008	# h1
  12	16.0	# oh
  13	1.008	# ho

Pair Coeffs

   1	0.086	3.3996695084235347	# ca
   2	0.21	2.959921901149463	# o
   3	0.086	3.3996695084235347	# c
   4	0.17	3.249998523775958	# n
   5	0.1094	3.3996695084235347	# c3
   6	0.061	3.1181455134911875	# f
   7	0.015	2.59964245953351	# ha
   8	0.0157	1.069078461768407	# hn
   9	0.0157	2.649532787749369	# hc
  10	0.17	3.0000123434657784	# os
  11	0.0157	2.471353044121301	# h1
  12	0.2104	3.0664733878390478	# oh
  13	0.0047	0.5379246460131368	# ho

Bond Coeffs

   1	403.2	1.0129	# hn,n
   2	461.1	1.3984	# ca,ca
   3	637.7	1.2183	# c,o
   4	345.8	1.086	# ca,ha
   5	300.9	1.5375	# c3,c3
   6	356.9	1.3497	# c3,f
   7	345.9	1.4906	# c,ca
   8	427.6	1.3789	# c,n
   9	384.2	1.4121	# ca,n
  10	321.0	1.5156	# c3,ca
  11	330.6	1.0969	# c3,hc
  12	330.6	1.0969	# c3,h1
  13	316.7	1.4233	# c3,oh
  14	371.4	0.973	# ho,oh
  15	308.6	1.4316	# c3,os
  16	390.8	1.3584	# c,os

Angle Coeffs

   1	66.62	120.02	# ca,ca,ca
   2	66.11	109.24	# c3,c3,f
   3	67.87	120.19	# ca,ca,n
   4	68.72	122.6	# ca,c,o
   5	48.33	117.55	# c,n,hn
   6	67.68	115.25	# ca,c,n
   7	63.15	112.07	# c3,c3,ca
   8	63.82	123.71	# c,n,ca
   9	46.8	110.47	# ca,c3,hc
  10	63.53	120.77	# c3,ca,ca
  11	39.4	107.58	# hc,c3,hc
  12	48.18	119.88	# ca,ca,ha
  13	70.89	107.36	# f,c3,f
  14	64.28	120.33	# c,ca,ca
  15	63.74	127.08	# c,n,c
  16	62.86	111.51	# c3,c3,c3
  17	63.56	112.24	# ca,c3,ca
  18	74.22	123.05	# n,c,o
  19	68.0	107.97	# c3,c3,os
  20	46.39	109.56	# c3,c3,h1
  21	75.32	123.25	# o,c,os
  22	46.34	109.8	# c3,c3,hc
  23	67.47	110.19	# c3,c3,oh
  24	47.38	107.26	# c3,oh,ho
  25	39.24	108.46	# h1,c3,h1
  26	69.32	112.44	# ca,c,os
  27	50.93	110.26	# h1,c3,oh
  28	50.8	109.78	# h1,c3,os
  29	63.28	115.98	# c,os,c3
  30	49.75	116.02	# ha,ca,n

Dihedral Coeffs

   1	1	2.5	2	180	# X,c,n,X
   2	1	0.45	2	180	# X,ca,n,X
   3	1	1.0	2	180	# X,c,ca,X
   4	2	2.5	2	180	2.0	1	0	# hn,n,c,o
   5	1	3.625	2	180	# X,ca,ca,X
   6	1	0.15555555555555556	3	0	# X,c3,c3,X
   7	1	0.0	2	0	# X,c3,ca,X
   8	2	0.0	3	0	0.25	1	0	# hc,c3,c3,os
   9	2	0.0	3	0	0.25	1	0	# hc,c3,c3,oh
  10	2	2.7	2	180	1.4	1	180	# o,c,os,c3
  11	2	0.16	3	0	0.25	1	0	# ho,oh,c3,c3
  12	2	0.383	3	0	0.8	1	180	# c3,c3,os,c
  13	1	2.7	2	180	# X,c,os,X
  14	1	0.3833333333333333	3	0	# X,c3,os,X
  15	1	0.16666666666666666	3	0	# X,c3,oh,X

Improper Coeffs

   1	10.5	-1	2	# c,X,X,o
   2	1.1	-1	2	# n,X,X,hn
   3	1.1	-1	2	# ca,ca,ca,c3
   4	1.1	-1	2	# ca,X,X,ha

Atoms

   1	1	1	-0.024347	23.7013	38.622	12.4172
   2	1	1	-0.071478	22.7617	37.8388	11.6882
   3	1	1	-0.180016	23.0014	37.6262	10.3014
   4	1	2	-0.370097	25.9086	40.615	13.2912
   5	1	1	0.010306	24.8327	39.1062	11.752
   6	1	1	-0.071748	24.1704	38.0824	9.66376
   7	1	2	-0.403598	26.9326	39.2943	8.95687
   8	1	1	0.055994	25.0867	38.8012	10.431
   9	1	3	0.021521	25.8815	40.0491	12.213
  10	1	4	0.466017	26.7353	40.2227	11.1176
  11	1	3	0.096621	26.3605	39.4386	10.0245
  12	1	1	-0.099438	18.9855	39.8099	10.9675
  13	1	5	-0.089685	21.492	37.1906	12.3189
  14	1	1	-0.037281	20.2545	37.7683	11.5797
  15	1	1	-0.08188	20.1397	39.1842	11.4746
  16	1	1	-0.106561	17.9467	38.9879	10.5287
  17	1	1	-0.037628	19.1778	36.967	11.1161
  18	1	1	-0.12234	18.0459	37.6072	10.5933
  19	1	5	0.388954	21.2707	37.559	13.8395
  20	1	5	0.307788	21.6664	35.6114	12.2192
  21	1	6	-0.129718	20.0926	37.0759	14.3026
  22	1	6	-0.129089	21.2527	38.8926	14.0825
  23	1	6	-0.119089	22.2413	37.0568	14.6213
  24	1	6	-0.103894	22.8931	35.2061	12.6151
  25	1	6	-0.097852	21.5446	35.141	10.9597
  26	1	6	-0.104555	20.7869	34.9206	12.9768
  27	1	3	0.521254	16.8512	37.0306	9.931
  28	1	3	0.53569	16.6829	39.3494	9.83984
  29	1	4	0.027822	16.1233	38.1296	9.4791
  30	1	2	-0.468874	16.603	35.8449	9.77634
  31	1	2	-0.477974	16.306	40.4756	9.54748
  32	1	1	-0.359831	15.0362	38.0244	8.5637
  33	1	1	0.131035	13.7172	37.9156	9.063
  34	1	1	-0.120983	12.6649	37.7027	8.14948
  35	1	1	0.127261	15.3058	38.0239	7.16963
  36	1	1	-0.127195	14.2211	37.8956	6.27114
  37	1	1	0.144798	12.9312	37.7012	6.77487
  38	1	5	-0.020676	16.7348	38.2036	6.6305
  39	1	5	-0.019785	13.4467	37.9647	10.5733
  40	1	7	0.164889	23.5898	38.8635	13.4688
  41	1	7	0.175264	22.2785	37.0811	9.70044
  42	1	7	0.1582	24.3524	37.8963	8.60717
  43	1	7	0.150763	18.9129	40.8932	10.8865
  44	1	7	0.144868	20.9502	39.8192	11.8198
  45	1	7	0.134072	19.1928	35.8829	11.1659
  46	1	5	-0.300668	11.2285	37.4894	8.60478
  47	1	5	-0.243237	14.3586	38.0068	4.75276
  48	1	9	0.021835	16.9072	37.5689	5.75028
  49	1	9	0.012312	17.5114	37.9309	7.35282
  50	1	9	0.041777	16.913	39.2425	6.33361
  51	1	9	0.110598	13.3807	38.053	4.25941
  52	1	9	0.08293	14.9059	38.9139	4.46653
  53	1	9	0.082252	14.8937	37.1415	4.34049
  54	1	9	0.027698	12.3976	38.1527	10.8238
  55	1	9	0.017051	14.0175	38.7706	11.0503
  56	1	9	0.037874	13.7358	37.0202	11.0513
  57	1	9	0.095908	10.8119	38.4168	9.01543
  58	1	9	0.127068	10.5824	37.1813	7.77773
  59	1	9	0.099095	11.1638	36.7109	9.37524
  60	1	1	-0.024347	37.8946	46.9278	10.2809
  61	1	1	-0.071478	36.5145	47.2231	10.3635
  62	1	1	-0.180016	35.7779	47.3089	9.13924
  63	1	2	-0.370097	40.802	46.2337	9.46747
  64	1	1	0.010306	38.486	46.7518	9.02733
  65	1	1	-0.071748	36.3879	47.0688	7.88298
  66	1	2	-0.403598	38.4073	46.623	5.50964
  67	1	1	0.055994	37.761	46.8167	7.85298
  68	1	3	0.021521	39.8949	46.4373	8.68361
  69	1	4	0.466017	39.9239	46.338	7.30165
  70	1	3	0.096621	38.6797	46.5918	6.70441
  71	1	1	-0.099438	31.977	47.4671	12.2062
  72	1	5	-0.089685	35.8505	47.5781	11.7367
  73	1	1	-0.037281	34.3678	47.112	11.7097
  74	1	1	-0.08188	33.3037	47.9255	12.1936
  75	1	1	-0.106561	31.7407	46.1708	11.7612
  76	1	1	-0.037628	34.0772	45.7921	11.2816
  77	1	1	-0.12234	32.7559	45.3588	11.3099
  78	1	5	0.388954	36.0289	49.1384	11.9402
  79	1	5	0.307788	36.4827	46.8312	12.9819
  80	1	6	-0.129718	37.2603	49.5866	11.6022
  81	1	6	-0.129089	35.1868	49.8571	11.1707
  82	1	6	-0.119089	35.8256	49.5191	13.2222
  83	1	6	-0.103894	35.6699	46.9023	14.0657
  84	1	6	-0.097852	37.6818	47.3304	13.3546
  85	1	6	-0.104555	36.6544	45.5149	12.7535
  86	1	3	0.521254	32.1643	44.0542	10.9238
  87	1	3	0.53569	30.474	45.4179	11.7033
  88	1	4	0.027822	30.814	44.1491	11.2373
  89	1	2	-0.468874	32.7605	43.0898	10.486
  90	1	2	-0.477974	29.3779	45.8558	12.0148
  91	1	1	-0.359831	29.8607	43.0926	11.1316
  92	1	1	0.131035	28.8136	43.2205	10.198
  93	1	1	-0.120983	27.7653	42.2736	10.2165
  94	1	1	0.127261	29.9267	41.9861	12.0072
  95	1	1	-0.127195	28.9183	40.995	11.97
  96	1	1	0.144798	27.8199	41.1569	11.0923
  97	1	5	-0.020676	31.0679	41.8522	13.0213
  98	1	5	-0.019785	28.7715	44.4255	9.24154
  99	1	7	0.164889	38.5272	46.8589	11.1635
 100	1	7	0.175264	34.7187	47.5577	9.15219
 101	1	7	0.1582	35.8135	47.1275	6.96035
 102	1	7	0.150763	31.1565	48.0928	12.552
 103	1	7	0.144868	33.4802	48.9171	12.5821
 104	1	7	0.134072	34.857	45.1152	10.938
 105	1	5	-0.300668	26.5833	42.4727	9.2675
 106	1	5	-0.243237	29.0444	39.7431	12.855
 107	1	9	0.021835	31.5193	42.8076	13.3091
 108	1	9	0.012312	31.8579	41.2082	12.6196
 109	1	9	0.041777	30.7225	41.4097	13.9618
 110	1	9	0.110598	30.0698	39.3527	12.8235
 111	1	9	0.08293	28.7997	39.9722	13.9007
 112	1	9	0.082252	28.4128	38.9034	12.5419
 113	1	9	0.027698	28.3153	44.1743	8.28143
 114	1	9	0.017051	29.7679	44.8099	8.9909
 115	1	9	0.037874	28.176	45.2403	9.6711
 116	1	9	0.095908	26.3484	43.5332	9.10964
 117	1	9	0.127068	26.7881	42.0194	8.29048
 118	1	9	0.099095	25.6501	42.0404	9.64077
 119	1	1	-0.024347	44.5502	41.637	-2.20451
 120	1	1	-0.071478	44.4963	42.9275	-2.79481
 121	1	1	-0.180016	43.4527	43.191	-3.73182
 122	1	2	-0.370097	44.0993	38.7223	-1.25212
 123	1	1	0.010306	43.5516	40.7067	-2.51155
 124	1	1	-0.071748	42.4493	42.2383	-4.01075
 125	1	2	-0.403598	40.5809	39.7577	-4.10718
 126	1	1	0.055994	42.521	40.9989	-3.37649
 127	1	3	0.021521	43.3455	39.3311	-1.99387
 128	1	4	0.466017	42.147	38.8954	-2.56636
 129	1	3	0.096621	41.6	39.8352	-3.44214
 130	1	1	-0.099438	46.6601	44.7485	1.29084
 131	1	5	-0.089685	45.5655	43.9988	-2.38338
 132	1	1	-0.037281	45.5455	44.155	-0.841261
 133	1	1	-0.08188	46.7108	44.4584	-0.0850739
 134	1	1	-0.106561	45.4112	44.74	1.91448
 135	1	1	-0.037628	44.2964	44.1955	-0.16875
 136	1	1	-0.12234	44.2485	44.5059	1.20073
 137	1	5	0.388954	45.2448	45.4506	-2.90643
 138	1	5	0.307788	46.9618	43.5156	-2.97609
 139	1	6	-0.129718	43.967	45.8277	-2.6433
 140	1	6	-0.129089	46.0204	46.3888	-2.3141
 141	1	6	-0.119089	45.4243	45.5988	-4.23339
 142	1	6	-0.103894	47.9251	44.4624	-2.90851
 143	1	6	-0.097852	46.8586	43.1729	-4.28203
 144	1	6	-0.104555	47.4525	42.4244	-2.3505
 145	1	3	0.521254	43.0904	44.7173	2.12234
 146	1	3	0.53569	45.0506	45.036	3.33133
 147	1	4	0.027822	43.6577	45.036	3.35854
 148	1	2	-0.468874	41.9029	44.7413	1.83199
 149	1	2	-0.477974	45.8141	45.2622	4.26232
 150	1	1	-0.359831	42.8654	45.317	4.51596
 151	1	1	0.131035	42.0605	44.301	5.07383
 152	1	1	-0.120983	41.1688	44.6281	6.10954
 153	1	1	0.127261	42.8654	46.6316	5.06045
 154	1	1	-0.127195	41.9733	46.9597	6.11586
 155	1	1	0.144798	41.0732	45.969	6.55395
 156	1	5	-0.020676	43.7817	47.7175	4.48227
 157	1	5	-0.019785	42.0509	42.8724	4.54331
 158	1	7	0.164889	45.3063	41.3776	-1.47346
 159	1	7	0.175264	43.3865	44.1435	-4.24152
 160	1	7	0.1582	41.6316	42.4507	-4.69349
 161	1	7	0.150763	47.5624	44.9536	1.86267
 162	1	7	0.144868	47.6863	44.4977	-0.551458
 163	1	7	0.134072	43.3669	44.041	-0.709063
 164	1	5	-0.300668	40.3024	43.5214	6.75317
 165	1	5	-0.243237	41.9155	48.3639	6.713
 166	1	9	0.021835	43.3423	48.7205	4.50799
 167	1	9	0.012312	44.0267	47.5227	3.43297
 168	1	9	0.041777	44.7344	47.7708	5.035
 169	1	9	0.110598	42.9126	48.8449	6.75384
 170	1	9	0.08293	41.2985	49.0374	6.11189
 171	1	9	0.082252	41.5337	48.3986	7.7332
 172	1	9	0.027698	41.0527	42.5976	4.16587
 173	1	9	0.017051	42.3215	42.1783	5.34375
 174	1	9	0.037874	42.7431	42.7025	3.71898
 175	1	9	0.095908	39.6782	43.8446	7.58074
 176	1	9	0.127068	39.6433	43.0646	6.00505
 177	1	9	0.099095	40.9495	42.7312	7.14077
 178	1	4	0.478781	35.1833	34.4653	9.35019
 179	1	3	0.051808	35.2507	35.8069	8.95078
 180	1	1	-0.015342	35.3274	35.7718	7.46869
 181	1	3	0.052802	35.2794	33.5808	8.26659
 182	1	1	0.058525	35.3332	34.4536	7.05376
 183	1	2	-0.381395	35.1047	36.8102	9.63456
 184	1	2	-0.387279	35.1876	32.3617	8.27827
 185	1	1	-0.003007	35.1875	36.8338	6.5733
 186	1	1	-0.04277	35.1835	34.136	5.69705
 187	1	1	-0.203298	35.0409	35.1969	4.77409
 188	1	1	-0.057014	35.0371	36.5577	5.19306
 189	1	7	0.158736	35.0851	37.8316	6.98104
 190	1	7	0.155574	35.0891	33.0976	5.3888
 191	1	7	0.172835	34.842	34.9501	3.73318
 192	1	5	-0.114348	34.6473	37.6849	4.19232
 193	1	5	0.394993	35.2642	39.0867	4.55548
 194	1	6	-0.128918	35.2092	39.9228	3.5007
 195	1	6	-0.12014	36.5663	39.0268	4.90196
 196	1	6	-0.128671	34.6162	39.6985	5.5678
 197	1	5	0.329225	33.0675	37.7931	4.23908
 198	1	6	-0.1084	32.4656	36.6786	3.76463
 199	1	6	-0.10772	32.5756	38.841	3.53586
 200	1	6	-0.098105	32.6109	37.9451	5.50047
 201	1	1	-0.04356	35.1869	37.3317	2.77726
 202	1	1	-0.061005	36.5739	37.085	2.59749
 203	1	1	-0.036586	37.048	36.8377	1.30178
 204	1	1	-0.073054	34.3463	37.3202	1.62396
 205	1	1	-0.129461	34.8594	37.1044	0.335079
 206	1	1	-0.055433	36.2221	36.8728	0.2005
 207	1	3	0.497443	37.0398	36.72	-1.02578
 208	1	4	-0.091283	38.3428	36.6292	-0.572612
 209	1	3	0.442461	38.4288	36.6039	0.811902
 210	1	1	0.056821	39.4663	36.6005	-1.42878
 211	1	1	-0.175202	39.7562	35.452	-2.17396
 212	1	1	-0.086463	40.7969	35.4814	-3.12684
 213	1	1	-0.120823	40.2834	37.7368	-1.5623
 214	1	1	-0.147764	41.5124	37.6573	-2.25348
 215	1	1	-0.091348	41.5872	36.6454	-3.23453
 216	1	3	0.723311	41.0437	34.3085	-4.03936
 217	1	7	0.16273	34.2194	37.1418	-0.544028
 218	1	7	0.144736	33.2851	37.5236	1.67771
 219	1	7	0.138526	37.2714	37.0986	3.43133
 220	1	2	-0.452878	39.4055	36.3748	1.50117
 221	1	2	-0.478383	36.6299	36.7401	-2.17359
 222	1	7	0.14723	42.1725	37.2594	-1.49088
 223	1	7	0.161782	39.1268	34.5719	-2.07049
 224	1	7	0.150279	40.0183	38.6429	-1.02474
 225	1	7	0.142321	42.3844	36.6664	-3.97755
 226	1	2	-0.564646	41.6854	34.4047	-5.07399
 227	1	10	-0.344773	40.4558	33.1432	-3.6412
 228	1	5	-0.038703	169.516	-84.8011	-117.914
 229	1	11	0.090446	-118.548	168.815	-72.5298
 230	1	11	0.070639	-42.4058	78.3548	-155.931
 231	1	9	0.018298	170.225	-84.8236	-117.077
 232	1	9	0.032617	168.508	-84.6702	-117.5
 233	1	5	0.364059	169.85	-83.6417	-118.87
 234	1	11	-0.049335	170.843	-83.804	-119.304
 235	1	12	-0.72623	169.838	-82.405	-118.167
 236	1	11	0.033772	169.116	-83.621	-119.686
 237	1	13	0.432586	170.631	-82.3939	-117.604
 238	1	4	0.478781	35.5175	22.6959	16.6882
 239	1	3	0.051808	36.7115	22.9295	16.0054
 240	1	1	-0.015342	37.1302	24.2682	16.456
 241	1	3	0.052802	35.1671	23.7241	17.569
 242	1	1	0.058525	36.2011	24.7495	17.357
 243	1	2	-0.381395	37.3184	22.1913	15.2443
 244	1	2	-0.387279	34.2625	23.7788	18.3885
 245	1	1	-0.003007	38.2057	25.0354	16.0211
 246	1	1	-0.04277	36.2463	26.0585	17.8228
 247	1	1	-0.203298	37.313	26.8614	17.3745
 248	1	1	-0.057014	38.328	26.3709	16.4961
 249	1	7	0.158736	38.8953	24.5741	15.3217
 250	1	7	0.155574	35.4753	26.4369	18.4907
 251	1	7	0.172835	37.3449	27.8892	17.7216
 252	1	5	-0.114348	39.5308	27.3018	16.1343
 253	1	5	0.394993	40.5502	26.6165	15.135
 254	1	6	-0.128918	41.1114	25.4999	15.6468
 255	1	6	-0.12014	41.5962	27.4043	14.7872
 256	1	6	-0.128671	39.9162	26.2723	13.9934
 257	1	5	0.329225	40.2729	27.5979	17.5054
 258	1	6	-0.1084	41.4924	28.1607	17.3595
 259	1	6	-0.10772	40.445	26.475	18.2457
 260	1	6	-0.098105	39.5891	28.4617	18.2892
 261	1	1	-0.04356	39.0142	28.6169	15.4526
 262	1	1	-0.061005	37.6862	28.7565	14.9506
 263	1	1	-0.036586	37.2974	29.9752	14.3659
 264	1	1	-0.073054	39.8991	29.7219	15.2834
 265	1	1	-0.129461	39.4852	30.9403	14.7131
 266	1	1	-0.055433	38.1664	31.0398	14.2716
 267	1	3	0.497443	37.4858	32.1499	13.567
 268	1	4	-0.091283	36.2253	31.6774	13.2511
 269	1	3	0.442461	36.0135	30.3874	13.7321
 270	1	1	0.056821	35.2945	32.4587	12.5136
 271	1	1	-0.175202	33.9782	32.6207	12.9763
 272	1	1	-0.086463	33.0447	33.321	12.1866
 273	1	1	-0.120823	35.6937	33.0952	11.3162
 274	1	1	-0.147764	34.8796	34.072	10.7052
 275	1	1	-0.091348	33.5041	33.9813	11.0254
 276	1	3	0.723311	31.5674	33.3085	12.5136
 277	1	7	0.16273	40.1736	31.7731	14.5864
 278	1	7	0.144736	40.9368	29.6463	15.5855
 279	1	7	0.138526	36.9699	27.9411	14.9781
 280	1	2	-0.452878	35.0087	29.7037	13.6547
 281	1	2	-0.478383	37.9826	33.2182	13.2545
 282	1	7	0.14723	35.1807	34.9718	11.2368
 283	1	7	0.161782	33.6583	32.1197	13.8876
 284	1	7	0.150279	36.6968	32.9253	10.9324
 285	1	7	0.142321	32.7761	34.49	10.395
 286	1	2	-0.564646	30.7401	33.8741	11.8218
 287	1	10	-0.344773	31.2112	32.5877	13.6128
 288	1	5	-0.038703	155.488	-54.6255	-50.1589
 289	1	11	0.090446	-173.025	-93.0832	-19.1794
 290	1	11	0.070639	111.553	-136.435	109.923
 291	1	9	0.018298	155.497	-54.4219	-51.2339
 292	1	9	0.032617	155.074	-55.6288	-50.0151
 293	1	5	0.364059	156.924	-54.5558	-49.5961
 294	1	11	-0.049335	157.314	-53.5323	-49.6784
 295	1	12	-0.72623	157.755	-55.4466	-50.3372
 296	1	11	0.033772	156.916	-54.8337	-48.5315
 297	1	13	0.432586	158.672	-55.286	-50.0606
 298	1	4	0.478781	22.8934	14.9276	12.6189
 299	1	3	0.051808	22.3917	15.7369	13.6448
 300	1	1	-0.015342	23.3947	16.8183	13.8215
 301	1	3	0.052802	24.0245	15.4792	12.0179
 302	1	1	0.058525	24.3832	16.6342	12.8759
 303	1	2	-0.381395	21.4885	15.5034	14.43
 304	1	2	-0.387279	24.6233	15.0874	11.0259
 305	1	1	-0.003007	23.5662	17.6722	14.9238
 306	1	1	-0.04277	25.6314	17.2275	13.0284
 307	1	1	-0.203298	25.8442	18.0439	14.1516
 308	1	1	-0.057014	24.8161	18.3235	15.1008
 309	1	7	0.158736	22.7778	17.7356	15.6664
 310	1	7	0.155574	26.448	16.9592	12.3601
 311	1	7	0.172835	26.8649	18.38	14.296
 312	1	5	-0.114348	25.1238	19.167	16.3752
 313	1	5	0.394993	25.0863	18.1719	17.6201
 314	1	6	-0.128918	25.9162	17.1155	17.4371
 315	1	6	-0.12014	23.8536	17.6642	17.8799
 316	1	6	-0.128671	25.4809	18.7418	18.7779
 317	1	5	0.329225	24.0939	20.3463	16.59
 318	1	6	-0.1084	22.8709	19.9931	17.052
 319	1	6	-0.10772	23.7982	20.9625	15.428
 320	1	6	-0.098105	24.6312	21.2622	17.4442
 321	1	1	-0.04356	26.52	19.8677	16.18
 322	1	1	-0.061005	27.6359	19.6017	17.0187
 323	1	1	-0.036586	28.8551	20.2306	16.7519
 324	1	1	-0.073054	26.7177	20.7852	15.096
 325	1	1	-0.129461	27.9627	21.3959	14.8364
 326	1	1	-0.055433	29.0243	21.0887	15.6899
 327	1	3	0.497443	30.468	21.415	15.5826
 328	1	4	-0.091283	31.0851	20.7037	16.6065
 329	1	3	0.442461	30.166	20.0338	17.4011
 330	1	1	0.056821	32.4939	20.5949	16.7531
 331	1	1	-0.175202	33.0775	19.3545	17.0616
 332	1	1	-0.086463	34.4755	19.2129	17.1522
 333	1	1	-0.120823	33.3342	21.6933	16.5175
 334	1	1	-0.147764	34.7345	21.5376	16.4552
 335	1	1	-0.091348	35.2787	20.3449	16.9624
 336	1	3	0.723311	35.1478	17.8821	17.3682
 337	1	7	0.16273	28.1073	22.0486	13.9765
 338	1	7	0.144736	25.9136	20.9813	14.3941
 339	1	7	0.138526	27.6154	18.885	17.8316
 340	1	2	-0.452878	30.3423	19.4907	18.4756
 341	1	2	-0.478383	30.9856	22.1149	14.7267
 342	1	7	0.14723	34.9193	21.4628	15.39
 343	1	7	0.161782	32.4458	18.4989	17.2337
 344	1	7	0.150279	32.8901	22.6613	16.2859
 345	1	7	0.142321	36.3619	20.2441	17.0541
 346	1	2	-0.564646	36.325	17.7937	17.6572
 347	1	10	-0.344773	34.3863	16.7957	17.0727
 348	1	5	-0.038703	-142.65	17.5119	111.854
 349	1	11	0.090446	43.4595	41.819	106.71
 350	1	11	0.070639	-114.833	124.563	-41.3119
 351	1	9	0.018298	-141.764	16.9799	112.221
 352	1	9	0.032617	-142.311	18.447	111.392
 353	1	5	0.364059	-143.392	16.6578	110.812
 354	1	11	-0.049335	-143.752	15.739	111.287
 355	1	12	-0.72623	-142.525	16.3218	109.731
 356	1	11	0.033772	-144.262	17.2157	110.441
 357	1	13	0.432586	-143.003	15.6865	109.172
 358	1	4	0.478781	11.117	4.90896	16.6896
 359	1	3	0.051808	10.8913	6.1987	16.2075
 360	1	1	-0.015342	12.1187	6.57309	15.4837
 361	1	3	0.052802	12.4299	4.47642	16.4197
 362	1	1	0.058525	13.0352	5.56081	15.6156
 363	1	2	-0.381395	9.88611	6.87742	16.2705
 364	1	2	-0.387279	13.0286	3.48532	16.8134
 365	1	1	-0.003007	12.3748	7.70289	14.7179
 366	1	1	-0.04277	14.2996	5.64154	15.0225
 367	1	1	-0.203298	14.5659	6.75637	14.2006
 368	1	1	-0.057014	13.6016	7.7829	14.0113
 369	1	7	0.158736	11.5842	8.44012	14.6434
 370	1	7	0.155574	15.0309	4.85226	15.1807
 371	1	7	0.172835	15.5421	6.82465	13.7263
 372	1	5	-0.114348	13.9824	8.95843	13.0829
 373	1	5	0.394993	14.0467	8.37053	11.6179
 374	1	6	-0.128918	14.0844	9.31795	10.6595
 375	1	6	-0.12014	15.156	7.59763	11.4514
 376	1	6	-0.128671	12.9514	7.62482	11.3169
 377	1	5	0.329225	12.9537	10.1288	13.1806
 378	1	6	-0.1084	13.3397	11.2178	12.5058
 379	1	6	-0.10772	11.7541	9.82589	12.6543
 380	1	6	-0.098105	12.802	10.5553	14.4576
 381	1	1	-0.04356	15.3198	9.56316	13.5767
 382	1	1	-0.061005	16.1826	10.2757	12.7035
 383	1	1	-0.036586	17.3688	10.8021	13.2132
 384	1	1	-0.073054	15.6325	9.52405	14.9637
 385	1	1	-0.129461	16.8229	10.0694	15.464
 386	1	1	-0.055433	17.6847	10.6754	14.5482
 387	1	3	0.497443	19.0444	11.1921	14.733
 388	1	4	-0.091283	19.4944	11.5577	13.4685
 389	1	3	0.442461	18.5063	11.4382	12.4991
 390	1	1	0.056821	20.8349	11.942	13.2166
 391	1	1	-0.175202	21.8574	11.0625	13.5852
 392	1	1	-0.086463	23.2081	11.4377	13.4693
 393	1	1	-0.120823	21.1762	13.1863	12.6562
 394	1	1	-0.147764	22.5272	13.555	12.4159
 395	1	1	-0.091348	23.525	12.6781	12.8982
 396	1	3	0.723311	24.3102	10.5594	13.9714
 397	1	7	0.16273	17.0843	9.98615	16.5185
 398	1	7	0.144736	14.9572	9.05029	15.6743
 399	1	7	0.138526	15.9787	10.3924	11.642
 400	1	2	-0.452878	18.517	11.7832	11.3267
 401	1	2	-0.478383	19.6201	11.2422	15.8022
 402	1	7	0.14723	22.6344	13.5867	11.3344
 403	1	7	0.161782	21.5926	10.1029	14.0274
 404	1	7	0.150279	20.3796	13.8905	12.4239
 405	1	7	0.142321	24.5779	12.9693	12.844
 406	1	2	-0.564646	25.4835	10.8949	13.9566
 407	1	10	-0.344773	23.8689	9.39086	14.499
 408	1	5	-0.038703	91.3933	108.674	-59.8667
 409	1	11	0.090446	-3.23424	36.3434	-59.8889
 410	1	11	0.070639	16.0611	-44.6191	22.6026
 411	1	9	0.018298	91.3991	109.156	-60.8523
 412	1	9	0.032617	90.4385	108.91	-59.3818
 413	1	5	0.364059	91.5492	107.15	-60.0129
 414	1	11	-0.049335	92.5199	106.926	-60.4706
 415	1	12	-0.72623	90.5085	106.626	-60.8291
 416	1	11	0.033772	91.5219	106.686	-59.0183
 417	1	13	0.432586	90.6989	106.903	-61.7421
 418	1	4	0.478781	5.72921	1.74817	9.08001
 419	1	3	0.051808	6.60974	0.981028	9.8775
 420	1	1	-0.015342	5.74831	-0.153578	10.3626
 421	1	3	0.052802	4.4379	1.20094	8.99401
 422	1	1	0.058525	4.49412	-0.0266548	9.79853
 423	1	2	-0.381395	7.74581	1.27009	10.2636
 424	1	2	-0.387279	3.38837	1.74316	8.68596
 425	1	1	-0.003007	6.01828	-1.17774	11.2855
 426	1	1	-0.04277	3.45993	-0.913683	10.0829
 427	1	1	-0.203298	3.71346	-1.95416	11.0011
 428	1	1	-0.057014	4.9548	-2.0434	11.7026
 429	1	7	0.158736	7.01636	-1.23839	11.7158
 430	1	7	0.155574	2.48008	-0.767765	9.62878
 431	1	7	0.172835	2.89662	-2.632	11.2291
 432	1	5	-0.114348	5.17233	-3.06607	12.8927
 433	1	5	0.394993	5.69905	-4.417	12.2725
 434	1	6	-0.128918	5.81827	-5.47526	13.1241
 435	1	6	-0.12014	6.9136	-4.22657	11.7095
 436	1	6	-0.128671	4.87363	-4.81769	11.2804
 437	1	5	0.329225	3.8964	-3.36902	13.7613
 438	1	6	-0.1084	4.23685	-3.92608	14.9547
 439	1	6	-0.10772	3.00127	-4.18997	13.1734
 440	1	6	-0.098105	3.1988	-2.24884	14.0218
 441	1	1	-0.04356	6.15825	-2.39998	13.8862
 442	1	1	-0.061005	5.89678	-1.04888	14.2335
 443	1	1	-0.036586	6.8485	-0.359609	14.9789
 444	1	1	-0.073054	7.31813	-3.04529	14.4167
 445	1	1	-0.129461	8.27788	-2.31288	15.1574
 446	1	1	-0.055433	8.02954	-0.943783	15.3778
 447	1	3	0.497443	8.7929	0.0956912	16.1331
 448	1	4	-0.091283	8.01901	1.25804	16.1196
 449	1	3	0.442461	6.83512	1.048	15.432
 450	1	1	0.056821	8.36742	2.49822	16.7518
 451	1	1	-0.175202	7.41873	3.2584	17.465
 452	1	1	-0.086463	7.79544	4.46508	18.1106
 453	1	1	-0.120823	9.68612	2.984	16.6838
 454	1	1	-0.147764	10.1208	4.13797	17.3827
 455	1	1	-0.091348	9.14058	4.87592	18.0767
 456	1	3	0.723311	6.8023	5.27113	18.9335
 457	1	7	0.16273	9.1789	-2.78788	15.5434
 458	1	7	0.144736	7.50975	-4.09728	14.2337
 459	1	7	0.138526	5.00805	-0.524382	13.8917
 460	1	2	-0.452878	5.95787	1.84179	15.1643
 461	1	2	-0.478383	9.84841	-0.0774635	16.7085
 462	1	7	0.14723	10.8345	3.7934	18.1266
 463	1	7	0.161782	6.38879	2.9085	17.5566
 464	1	7	0.150279	10.4282	2.40486	16.1347
 465	1	7	0.142321	9.43204	5.80015	18.5837
 466	1	2	-0.564646	5.62054	4.99236	18.994
 467	1	10	-0.344773	7.36335	6.20229	19.7625
 468	1	5	-0.038703	25.9376	51.3346	20.2137
 469	1	11	0.090446	12.5875	170.094	-119.811
 470	1	11	0.070639	-92.5139	-56.0749	124.09
 471	1	9	0.018298	26.3512	52.3014	19.8991
 472	1	9	0.032617	26.0315	51.2676	21.3047
 473	1	5	0.364059	24.4577	51.2287	19.8003
 474	1	11	-0.049335	24.3851	51.2953	18.7089
 475	1	12	-0.72623	23.6983	52.2819	20.3861
 476	1	11	0.033772	24.06	50.2546	20.1126
 477	1	13	0.432586	23.9616	53.1028	19.9307
 478	1	4	0.478781	4.55703	16.8725	13.9561
 479	1	3	0.051808	3.43606	16.4668	13.2278
 480	1	1	-0.015342	3.65206	15.0108	13.0132
 481	1	3	0.052802	5.4534	15.8088	14.2041
 482	1	1	0.058525	4.85131	14.6242	13.5634
 483	1	2	-0.381395	2.5111	17.1552	12.8102
 484	1	2	-0.387279	6.5012	15.7713	14.8338
 485	1	1	-0.003007	2.89801	14.1063	12.2812
 486	1	1	-0.04277	5.384	13.3366	13.3764
 487	1	1	-0.203298	4.6196	12.4118	12.6308
 488	1	1	-0.057014	3.3606	12.7822	12.0806
 489	1	7	0.158736	1.96898	14.4662	11.8635
 490	1	7	0.155574	6.37341	13.0873	13.7479
 491	1	7	0.172835	5.03853	11.4238	12.4554
 492	1	5	-0.114348	2.47698	11.8216	11.2401
 493	1	5	0.394993	2.36793	12.388	9.76669
 494	1	6	-0.128918	3.60917	12.4417	9.24175
 495	1	6	-0.12014	1.59675	11.5892	8.98506
 496	1	6	-0.128671	1.83006	13.6404	9.63717
 497	1	5	0.329225	1.01888	11.7811	11.8313
 498	1	6	-0.1084	0.358141	10.6975	11.3621
 499	1	6	-0.10772	0.260517	12.885	11.5428
 500	1	6	-0.098105	1.0702	11.6336	13.1765
 501	1	1	-0.04356	3.06035	10.3613	11.2862
 502	1	1	-0.061005	3.51606	9.70046	10.1187
 503	1	1	-0.036586	3.90866	8.36868	10.1872
 504	1	1	-0.073054	3.09857	9.61212	12.5088
 505	1	1	-0.129461	3.48479	8.24981	12.556
 506	1	1	-0.055433	3.85022	7.6347	11.3478
 507	1	3	0.497443	4.12084	6.20847	10.9538
 508	1	4	-0.091283	4.41161	6.21821	9.58189
 509	1	3	0.442461	4.364	7.50973	9.0681
 510	1	1	0.056821	4.75755	5.08735	8.77094
 511	1	1	-0.175202	4.35618	5.00648	7.41493
 512	1	1	-0.086463	4.84926	3.98074	6.56446
 513	1	1	-0.120823	5.62333	4.09188	9.27054
 514	1	1	-0.147764	6.04946	3.00284	8.47221
 515	1	1	-0.091348	5.68829	3.00566	7.11059
 516	1	3	0.723311	4.533	3.85413	5.08093
 517	1	7	0.16273	3.45697	7.67853	13.4847
 518	1	7	0.144736	2.79853	10.072	13.4436
 519	1	7	0.138526	3.54339	10.1541	9.13919
 520	1	2	-0.452878	4.55877	7.89277	7.91901
 521	1	2	-0.478383	3.97316	5.21944	11.6507
 522	1	7	0.14723	7.12395	2.87931	8.57623
 523	1	7	0.161782	3.70569	5.77403	6.99958
 524	1	7	0.150279	5.91072	4.12983	10.3196
 525	1	7	0.142321	6.07421	2.21732	6.46362
 526	1	2	-0.564646	4.76961	2.82429	4.46158
 527	1	10	-0.344773	4.16217	4.9887	4.4274
 528	1	5	-0.038703	147.712	68.1291	175.442
 529	1	11	0.090446	12.2039	3.28213	71.9844
 530	1	11	0.070639	-151.674	150.85	-26.8424
 531	1	9	0.018298	146.875	68.1289	176.151
 532	1	9	0.032617	148.099	67.1037	175.37
 533	1	5	0.364059	147.243	68.6238	174.061
 534	1	11	-0.049335	146.878	69.6537	174.146
 535	1	12	-0.72623	146.202	67.7854	173.567
 536	1	11	0.033772	148.095	68.6178	173.37
 537	1	13	0.432586	145.397	68.0069	174.073
 538	1	4	0.478781	15.7213	18.3156	20.504
 539	1	3	0.051808	14.6848	18.1196	19.5725
 540	1	1	-0.015342	14.944	19.106	18.4806
 541	1	3	0.052802	16.5507	19.3896	20.1562
 542	1	1	0.058525	16.0719	19.8292	18.8175
 543	1	2	-0.381395	13.9366	17.1584	19.4839
 544	1	2	-0.387279	17.509	19.8422	20.7676
 545	1	1	-0.003007	14.3013	19.2796	17.2418
 546	1	1	-0.04277	16.6484	20.7187	17.9109
 547	1	1	-0.203298	16.0522	20.8642	16.6388
 548	1	1	-0.057014	14.8412	20.1888	16.2888
 549	1	7	0.158736	13.4148	18.6893	17.0209
 550	1	7	0.155574	17.5629	21.2457	18.1726
 551	1	7	0.172835	16.5387	21.5372	15.9415
 552	1	5	-0.114348	14.0891	20.4046	14.9221
 553	1	5	0.394993	14.4049	19.1714	13.9809
 554	1	6	-0.128918	13.808	19.1686	12.7618
 555	1	6	-0.12014	14.0552	18.0147	14.5732
 556	1	6	-0.128671	15.7281	19.0718	13.7541
 557	1	5	0.329225	14.5492	21.7283	14.1704
 558	1	6	-0.1084	14.503	22.7874	14.9978
 559	1	6	-0.10772	15.7992	21.7434	13.649
 560	1	6	-0.098105	13.7626	22.0133	13.117
 561	1	1	-0.04356	12.5576	20.5384	15.254
 562	1	1	-0.061005	11.5638	19.6229	14.7855
 563	1	1	-0.036586	10.2188	19.79	15.1623
 564	1	1	-0.073054	12.129	21.5556	16.1499
 565	1	1	-0.129461	10.7731	21.7181	16.5001
 566	1	1	-0.055433	9.84196	20.8298	15.9744
 567	1	3	0.497443	8.38599	20.7363	16.2236
 568	1	4	-0.091283	7.95393	19.5995	15.5828
 569	1	3	0.442461	8.97611	19.0	14.8592
 570	1	1	0.056821	6.59436	19.1596	15.6514
 571	1	1	-0.175202	5.89052	19.1363	16.873
 572	1	1	-0.086463	4.56028	18.6581	16.9584
 573	1	1	-0.120823	5.93708	18.7203	14.5004
 574	1	1	-0.147764	4.64223	18.1664	14.5562
 575	1	1	-0.091348	3.95639	18.1707	15.7858
 576	1	3	0.723311	3.78438	18.6263	18.263
 577	1	7	0.16273	10.4528	22.4905	17.1955
 578	1	7	0.144736	12.8529	22.2216	16.6092
 579	1	7	0.138526	11.7991	18.7765	14.15
 580	1	2	-0.452878	8.82898	18.133	14.0203
 581	1	2	-0.478383	7.69143	21.5419	16.8095
 582	1	7	0.14723	4.04387	18.6649	13.8029
 583	1	7	0.161782	6.37289	19.5003	17.7779
 584	1	7	0.150279	6.45978	18.746	13.5455
 585	1	7	0.142321	2.92614	17.8166	15.8099
 586	1	2	-0.564646	4.1654	19.1443	19.2997
 587	1	10	-0.344773	2.59591	17.9619	18.1837
 588	1	5	-0.038703	-52.5687	-100.704	-102.67
 589	1	11	0.090446	-61.8521	87.2428	-135.07
 590	1	11	0.070639	62.9834	70.4794	77.5386
 591	1	9	0.018298	-51.7077	-101.231	-102.242
 592	1	9	0.032617	-52.8518	-101.216	-103.598
 593	1	5	0.364059	-53.748	-100.709	-101.68
 594	1	11	-0.049335	-53.4521	-100.192	-100.76
 595	1	12	-0.72623	-54.1298	-102.044	-101.37
 596	1	11	0.033772	-54.5948	-100.168	-102.121
 597	1	13	0.432586	-53.4239	-102.419	-100.817
 598	1	1	-0.024347	20.9066	11.4025	30.2381
 599	1	1	-0.071478	21.9719	11.5107	29.2968
 600	1	1	-0.180016	23.0982	10.6476	29.4614
 601	1	2	-0.370097	19.0057	10.5899	32.575
 602	1	1	0.010306	21.0328	10.4664	31.2848
 603	1	1	-0.071748	23.2027	9.73137	30.5117
 604	1	2	-0.403598	22.83	7.96825	32.9694
 605	1	1	0.055994	22.1549	9.6728	31.4134
 606	1	3	0.021521	20.1294	10.1394	32.4197
 607	1	4	0.466017	20.8141	9.16287	33.1694
 608	1	3	0.096621	22.0382	8.82698	32.6081
 609	1	1	-0.099438	18.6764	11.8478	26.381
 610	1	5	-0.089685	21.9945	12.6255	28.1944
 611	1	1	-0.037281	20.5719	12.8672	27.5982
 612	1	1	-0.08188	19.8293	11.7311	27.1824
 613	1	1	-0.106561	18.2761	13.1306	25.9834
 614	1	1	-0.037628	20.0667	14.1598	27.2629
 615	1	1	-0.12234	18.9174	14.2549	26.4605
 616	1	5	0.388954	22.5815	13.9069	28.8907
 617	1	5	0.307788	22.9337	12.205	26.9843
 618	1	6	-0.129718	21.6749	14.4691	29.7249
 619	1	6	-0.129089	22.9905	14.8546	28.0127
 620	1	6	-0.119089	23.6651	13.5891	29.6395
 621	1	6	-0.103894	24.2527	12.4121	27.2448
 622	1	6	-0.097852	22.7752	10.8929	26.6731
 623	1	6	-0.104555	22.6744	12.8891	25.8473
 624	1	3	0.521254	18.3864	15.4354	25.7147
 625	1	3	0.53569	17.3706	13.5522	24.8694
 626	1	4	0.027822	17.5463	14.9228	24.7225
 627	1	2	-0.468874	18.6336	16.604	25.9558
 628	1	2	-0.477974	16.6497	12.8399	24.1972
 629	1	1	-0.359831	16.9694	15.7006	23.6501
 630	1	1	0.131035	15.953	16.6638	23.9085
 631	1	1	-0.120983	15.5291	17.5312	22.8602
 632	1	1	0.127261	17.4827	15.5464	22.3354
 633	1	1	-0.127195	16.9805	16.341	21.2772
 634	1	1	0.144798	16.0691	17.3901	21.5538
 635	1	5	-0.020676	18.6342	14.5782	22.0305
 636	1	5	-0.019785	15.3591	16.833	25.3239
 637	1	7	0.164889	20.0321	12.0491	30.1897
 638	1	7	0.175264	23.9584	10.693	28.8051
 639	1	7	0.1582	24.076	9.09495	30.6331