pySIMM System Object

2206 atoms
2321 bonds
4029 angles
6013 dihedrals
615 impropers

13 atom types
16 bond types
30 angle types
15 dihedral types
4 improper types

-167.111084 167.111084 xlo xhi
-167.111084 167.111084 ylo yhi
-167.111084 167.111084 zlo zhi

Masses

   1	14.01	# n
   2	12.01	# c
   3	12.01	# ca
   4	1.008	# hn
   5	16.0	# o
   6	1.008	# ha
   7	12.01	# c3
   8	19.0	# f
   9	16.0	# os
  10	1.008	# h1
  11	1.008	# hc
  12	16.0	# oh
  13	1.008	# ho

Pair Coeffs

   1	0.17	3.249998523775958	# n
   2	0.086	3.3996695084235347	# c
   3	0.086	3.3996695084235347	# ca
   4	0.0157	1.069078461768407	# hn
   5	0.21	2.959921901149463	# o
   6	0.015	2.59964245953351	# ha
   7	0.1094	3.3996695084235347	# c3
   8	0.061	3.1181455134911875	# f
   9	0.17	3.0000123434657784	# os
  10	0.0157	2.471353044121301	# h1
  11	0.0157	2.649532787749369	# hc
  12	0.2104	3.0664733878390478	# oh
  13	0.0047	0.5379246460131368	# ho

Bond Coeffs

   1	345.8	1.086	# ca,ha
   2	637.7	1.2183	# c,o
   3	427.6	1.3789	# c,n
   4	321.0	1.5156	# c3,ca
   5	300.9	1.5375	# c3,c3
   6	384.2	1.4121	# ca,n
   7	330.6	1.0969	# c3,h1
   8	330.6	1.0969	# c3,hc
   9	316.7	1.4233	# c3,oh
  10	403.2	1.0129	# hn,n
  11	356.9	1.3497	# c3,f
  12	371.4	0.973	# ho,oh
  13	308.6	1.4316	# c3,os
  14	461.1	1.3984	# ca,ca
  15	345.9	1.4906	# c,ca
  16	390.8	1.3584	# c,os

Angle Coeffs

   1	39.4	107.58	# hc,c3,hc
   2	63.53	120.77	# c3,ca,ca
   3	70.89	107.36	# f,c3,f
   4	67.87	120.19	# ca,ca,n
   5	68.0	107.97	# c3,c3,os
   6	66.11	109.24	# c3,c3,f
   7	46.39	109.56	# c3,c3,h1
   8	62.86	111.51	# c3,c3,c3
   9	75.32	123.25	# o,c,os
  10	63.15	112.07	# c3,c3,ca
  11	63.82	123.71	# c,n,ca
  12	63.56	112.24	# ca,c3,ca
  13	46.34	109.8	# c3,c3,hc
  14	67.47	110.19	# c3,c3,oh
  15	47.38	107.26	# c3,oh,ho
  16	39.24	108.46	# h1,c3,h1
  17	69.32	112.44	# ca,c,os
  18	63.74	127.08	# c,n,c
  19	48.18	119.88	# ca,ca,ha
  20	50.93	110.26	# h1,c3,oh
  21	74.22	123.05	# n,c,o
  22	50.8	109.78	# h1,c3,os
  23	63.28	115.98	# c,os,c3
  24	48.33	117.55	# c,n,hn
  25	66.62	120.02	# ca,ca,ca
  26	68.72	122.6	# ca,c,o
  27	67.68	115.25	# ca,c,n
  28	64.28	120.33	# c,ca,ca
  29	46.8	110.47	# ca,c3,hc
  30	49.75	116.02	# ha,ca,n

Dihedral Coeffs

   1	2	0.0	3	0	0.25	1	0	# hc,c3,c3,os
   2	2	2.5	2	180	2.0	1	0	# hn,n,c,o
   3	1	3.625	2	180	# X,ca,ca,X
   4	2	0.0	3	0	0.25	1	0	# hc,c3,c3,oh
   5	1	0.15555555555555556	3	0	# X,c3,c3,X
   6	2	2.7	2	180	1.4	1	180	# o,c,os,c3
   7	1	1.0	2	180	# X,c,ca,X
   8	1	0.0	2	0	# X,c3,ca,X
   9	2	0.16	3	0	0.25	1	0	# ho,oh,c3,c3
  10	2	0.383	3	0	0.8	1	180	# c3,c3,os,c
  11	1	2.5	2	180	# X,c,n,X
  12	1	0.45	2	180	# X,ca,n,X
  13	1	2.7	2	180	# X,c,os,X
  14	1	0.3833333333333333	3	0	# X,c3,os,X
  15	1	0.16666666666666666	3	0	# X,c3,oh,X

Improper Coeffs

   1	1.1	-1	2	# ca,X,X,ha
   2	1.1	-1	2	# n,X,X,hn
   3	1.1	-1	2	# ca,ca,ca,c3
   4	10.5	-1	2	# c,X,X,o

Atoms

   1	1	1	0.478781	19.4723	-8.60095	-22.7994
   2	1	2	0.051808	20.7843	-8.30438	-22.427
   3	1	3	-0.015342	21.1051	-7.03688	-23.1319
   4	1	2	0.052802	18.9253	-7.67158	-23.6837
   5	1	3	0.058525	19.9889	-6.65827	-23.8521
   6	1	5	-0.381395	21.4958	-8.89289	-21.6288
   7	1	5	-0.387279	17.8155	-7.63782	-24.1915
   8	1	3	-0.003007	22.2738	-6.26197	-23.1213
   9	1	3	-0.04277	19.9556	-5.46344	-24.5651
  10	1	3	-0.203298	21.1158	-4.66544	-24.5594
  11	1	3	-0.057014	22.3001	-5.05327	-23.8699
  12	1	6	0.158736	23.1319	-6.58909	-22.5323
  13	1	6	0.155574	19.0544	-5.16413	-25.1016
  14	1	6	0.172835	21.0609	-3.7335	-25.1098
  15	1	7	-0.114348	23.5591	-4.13029	-23.8074
  16	1	7	0.394993	23.5941	-3.00649	-24.9131
  17	1	8	-0.128918	23.3922	-3.53167	-26.1381
  18	1	8	-0.12014	24.7823	-2.36034	-24.9771
  19	1	8	-0.128671	22.6644	-2.04616	-24.7138
  20	1	7	0.329225	23.4979	-3.43405	-22.4001
  21	1	8	-0.1084	22.258	-2.96572	-22.1283
  22	1	8	-0.10772	24.3187	-2.37029	-22.2887
  23	1	8	-0.098105	23.8207	-4.29638	-21.41
  24	1	3	-0.04356	24.8469	-4.97704	-24.0187
  25	1	3	-0.061005	26.093	-4.59804	-23.4482
  26	1	3	-0.036586	27.2363	-5.34965	-23.7378
  27	1	3	-0.073054	24.817	-6.10823	-24.8801
  28	1	3	-0.129461	25.9776	-6.85705	-25.1481
  29	1	3	-0.055433	27.1822	-6.43109	-24.5843
  30	1	2	0.497443	28.5688	-6.88502	-24.8441
  31	1	1	-0.091283	29.3955	-6.0295	-24.1177
  32	1	2	0.442461	28.6552	-5.11851	-23.3642
  33	1	3	0.056821	30.8252	-6.03917	-24.1835
  34	1	3	-0.175202	31.5377	-7.24754	-24.3222
  35	1	3	-0.086463	32.9463	-7.26456	-24.4076
  36	1	3	-0.120823	31.5543	-4.83566	-24.1185
  37	1	3	-0.147764	32.9542	-4.83969	-24.1928
  38	1	3	-0.091348	33.6514	-6.04622	-24.3397
  39	1	2	0.723311	33.6653	-8.575	-24.605
  40	1	6	0.16273	25.9582	-7.71695	-25.8117
  41	1	6	0.144736	23.8943	-6.3949	-25.3776
  42	1	6	0.138526	26.208	-3.71112	-22.8333
  43	1	5	-0.452878	29.0567	-4.27998	-22.5749
  44	1	5	-0.478383	28.8701	-7.75404	-25.6439
  45	1	6	0.14723	33.4993	-3.90073	-24.1493
  46	1	6	0.161782	31.0013	-8.19254	-24.3853
  47	1	6	0.150279	31.0465	-3.88264	-24.0047
  48	1	6	0.142321	34.7355	-6.02718	-24.4195
  49	1	5	-0.564646	33.0912	-9.64905	-24.6741
  50	1	9	-0.344773	35.0209	-8.46676	-24.674
  51	1	7	-0.038703	153.125	-9.20701	-10.6947
  52	1	10	0.090446	27.5151	110.356	148.838
  53	1	10	0.070639	-69.693	32.967	15.567
  54	1	11	0.018298	153.78	-8.62421	-11.3531
  55	1	11	0.032617	152.606	-9.95318	-11.3111
  56	1	7	0.364059	153.956	-9.90697	-9.60601
  57	1	10	-0.049335	154.483	-9.15546	-9.00891
  58	1	12	-0.72623	154.899	-10.7883	-10.203
  59	1	10	0.033772	153.285	-10.4636	-8.93954
  60	1	13	0.432586	155.479	-11.1068	-9.48979
  61	1	3	-0.024347	9.71387	-16.9712	-19.6704
  62	1	3	-0.071478	10.8932	-16.3589	-19.1616
  63	1	3	-0.180016	10.7691	-15.0942	-18.5209
  64	1	5	-0.370097	6.81833	-17.7749	-20.4842
  65	1	3	0.010306	8.48998	-16.2959	-19.5623
  66	1	3	-0.071748	9.52846	-14.4249	-18.4402
  67	1	5	-0.403598	6.56538	-13.5176	-18.6378
  68	1	3	0.055994	8.40197	-15.0483	-18.984
  69	1	2	0.021521	7.12329	-16.7056	-19.9809
  70	1	1	0.466017	6.28203	-15.6344	-19.648
  71	1	2	0.096621	6.98719	-14.5894	-19.0423
  72	1	3	-0.099438	15.4508	-15.2233	-17.8667
  73	1	7	-0.089685	12.2605	-17.1043	-19.191
  74	1	3	-0.037281	13.4349	-16.083	-19.0357
  75	1	3	-0.08188	14.3461	-16.0942	-17.9322
  76	1	3	-0.106561	15.6562	-14.3588	-18.9439
  77	1	3	-0.037628	13.6375	-15.1156	-20.0565
  78	1	3	-0.12234	14.7711	-14.2964	-20.0003
  79	1	7	0.388954	12.4927	-17.8665	-20.5659
  80	1	7	0.307788	12.2112	-18.142	-18.0031
  81	1	8	-0.129718	13.7999	-18.1513	-20.7638
  82	1	8	-0.129089	12.0867	-17.1408	-21.6374
  83	1	8	-0.119089	11.8435	-19.0462	-20.6562
  84	1	8	-0.103894	11.9881	-17.5232	-16.8208
  85	1	8	-0.097852	11.1954	-19.0205	-18.12
  86	1	8	-0.104555	13.338	-18.8838	-17.8887
  87	1	2	0.521254	15.285	-13.2795	-20.965
  88	1	2	0.53569	16.7652	-13.4037	-19.2063
  89	1	1	0.027822	16.4772	-12.8	-20.4295
  90	1	5	-0.468874	14.7385	-12.9096	-21.9898
  91	1	5	-0.477974	17.6878	-13.1661	-18.4474
  92	1	3	-0.359831	17.2505	-11.7433	-21.0331
  93	1	3	0.131035	18.1082	-12.0259	-22.1286
  94	1	3	-0.120983	18.8377	-10.9711	-22.7387
  95	1	3	0.127261	17.1164	-10.4236	-20.538
  96	1	3	-0.127195	17.8757	-9.37779	-21.1145
  97	1	3	0.144798	18.7198	-9.66019	-22.2175
  98	1	7	-0.020676	16.1493	-10.1216	-19.3852
  99	1	7	-0.019785	18.2474	-13.4615	-22.6586
 100	1	6	0.164889	9.72299	-17.9588	-20.12
 101	1	6	0.175264	11.6347	-14.6144	-18.0705
 102	1	6	0.1582	9.43763	-13.4506	-17.9618
 103	1	6	0.150763	16.1561	-15.2594	-17.0369
 104	1	6	0.144868	14.2407	-16.7877	-17.1098
 105	1	6	0.134072	12.957	-15.0255	-20.9093
 106	1	7	-0.300668	19.7676	-11.1984	-23.9472
 107	1	7	-0.243237	17.8067	-7.94338	-20.5555
 108	1	11	0.021835	16.7015	-9.96495	-18.4512
 109	1	11	0.012312	15.4116	-10.9105	-19.2011
 110	1	11	0.041777	15.5654	-9.21658	-19.5897
 111	1	11	0.110598	17.4325	-7.8901	-19.5265
 112	1	11	0.08293	18.7995	-7.477	-20.5127
 113	1	11	0.082252	17.161	-7.30956	-21.1772
 114	1	11	0.027698	17.833	-13.5377	-23.6712
 115	1	11	0.017051	17.7391	-14.2155	-22.0508
 116	1	11	0.037874	19.2994	-13.768	-22.7017
 117	1	11	0.095908	19.4824	-10.5603	-24.7967
 118	1	11	0.127068	20.8046	-10.9614	-23.6877
 119	1	11	0.099095	19.7616	-12.2266	-24.3266
 120	1	1	0.478781	-2.11719	-4.08846	-25.4308
 121	1	2	0.051808	-2.9069	-5.22707	-25.2352
 122	1	3	-0.015342	-2.33826	-5.90568	-24.0539
 123	1	2	0.052802	-1.11372	-3.96794	-24.4574
 124	1	3	0.058525	-1.2566	-5.18188	-23.6069
 125	1	5	-0.381395	-3.74678	-5.70231	-25.9831
 126	1	5	-0.387279	-0.261509	-3.10088	-24.3387
 127	1	3	-0.003007	-2.75878	-7.08686	-23.4411
 128	1	3	-0.04277	-0.494055	-5.63863	-22.5307
 129	1	3	-0.203298	-0.873272	-6.85703	-21.9203
 130	1	3	-0.057014	-2.00322	-7.60744	-22.3587
 131	1	6	0.158736	-3.64429	-7.57297	-23.8372
 132	1	6	0.155574	0.363667	-5.06946	-22.1866
 133	1	6	0.172835	-0.272013	-7.22631	-21.0933
 134	1	7	-0.114348	-2.34358	-8.97019	-21.6716
 135	1	7	0.394993	-2.8884	-8.66329	-20.2334
 136	1	8	-0.128918	-3.46419	-9.73577	-19.6451
 137	1	8	-0.12014	-1.90194	-8.24516	-19.4088
 138	1	8	-0.128671	-3.8217	-7.68569	-20.2676
 139	1	7	0.329225	-3.4331	-9.80853	-22.4482
 140	1	8	-0.1084	-3.52881	-11.0712	-21.9748
 141	1	8	-0.10772	-3.11995	-9.9375	-23.7553
 142	1	8	-0.098105	-4.67248	-9.26535	-22.3902
 143	1	3	-0.04356	-1.05557	-9.84495	-21.66
 144	1	3	-0.061005	-0.685997	-10.6878	-20.5754
 145	1	3	-0.036586	0.450631	-11.5013	-20.7001
 146	1	3	-0.073054	-0.238612	-9.85474	-22.8232
 147	1	3	-0.129461	0.890141	-10.692	-22.9356
 148	1	3	-0.055433	1.20237	-11.5245	-21.852
 149	1	2	0.497443	2.25265	-12.5731	-21.695
 150	1	1	-0.091283	2.08597	-13.1168	-20.4154
 151	1	2	0.442461	1.02806	-12.4868	-19.7465
 152	1	3	0.056821	2.81321	-14.2535	-19.8937
 153	1	3	-0.175202	2.15925	-15.199	-19.0763
 154	1	3	-0.086463	2.84616	-16.3023	-18.5295
 155	1	3	-0.120823	4.18073	-14.4731	-20.1889
 156	1	3	-0.147764	4.85157	-15.6706	-19.8163
 157	1	3	-0.091348	4.19667	-16.4954	-18.8746
 158	1	2	0.723311	2.1604	-17.2872	-17.6106
 159	1	6	0.16273	1.47999	-10.7196	-23.844
 160	1	6	0.144736	-0.497022	-9.23462	-23.6751
 161	1	6	0.138526	-1.26451	-10.7505	-19.6596
 162	1	5	-0.452878	0.610038	-12.684	-18.6169
 163	1	5	-0.478383	3.02958	-12.9217	-22.5681
 164	1	6	0.14723	4.85474	-16.256	-20.7319
 165	1	6	0.161782	1.10692	-15.0689	-18.836
 166	1	6	0.150279	4.71392	-13.7396	-20.7896
 167	1	6	0.142321	4.72579	-17.3506	-18.452
 168	1	5	-0.564646	2.69477	-18.3146	-17.2314
 169	1	9	-0.344773	0.885353	-16.9621	-17.2707
 170	1	7	-0.038703	26.6402	-140.72	-59.5663
 171	1	10	0.090446	84.2708	102.461	83.6474
 172	1	10	0.070639	153.631	133.308	-107.952
 173	1	11	0.018298	26.9966	-140.162	-60.4411
 174	1	11	0.032617	27.0973	-140.277	-58.6728
 175	1	7	0.364059	25.1072	-140.639	-59.4705
 176	1	10	-0.049335	24.6633	-141.095	-60.3627
 177	1	12	-0.72623	24.6935	-139.281	-59.3745
 178	1	10	0.033772	24.7689	-141.201	-58.5911
 179	1	13	0.432586	24.8413	-138.878	-60.2481
 180	1	1	0.478781	5.28554	-0.510045	-36.1434
 181	1	2	0.051808	5.00123	-1.84778	-36.405
 182	1	3	-0.015342	5.21253	-2.53656	-35.1118
 183	1	2	0.052802	5.64662	-0.273293	-34.8157
 184	1	3	0.058525	5.59079	-1.6053	-34.1661
 185	1	5	-0.381395	4.63115	-2.35769	-37.4501
 186	1	5	-0.387279	5.93655	0.785582	-34.2833
 187	1	3	-0.003007	5.04573	-3.88362	-34.7991
 188	1	3	-0.04277	5.84738	-1.97966	-32.8448
 189	1	3	-0.203298	5.67877	-3.33993	-32.5038
 190	1	3	-0.057014	5.24015	-4.30523	-33.4596
 191	1	6	0.158736	4.72613	-4.54947	-35.594
 192	1	6	0.155574	6.14633	-1.2376	-32.1081
 193	1	6	0.172835	5.84144	-3.6341	-31.4704
 194	1	7	-0.114348	4.9365	-5.76045	-32.9954
 195	1	7	0.394993	4.10946	-6.60997	-34.044
 196	1	8	-0.128918	3.69334	-7.79164	-33.5293
 197	1	8	-0.12014	2.98458	-5.96236	-34.4379
 198	1	8	-0.128671	4.81282	-6.90457	-35.1623
 199	1	7	0.329225	6.33255	-6.43758	-32.721
 200	1	8	-0.1084	6.27565	-7.7806	-32.5827
 201	1	8	-0.10772	6.91142	-5.95724	-31.593
 202	1	8	-0.098105	7.19018	-6.19222	-33.7397
 203	1	3	-0.04356	4.03823	-5.67139	-31.7339
 204	1	3	-0.061005	3.07668	-4.63119	-31.6367
 205	1	3	-0.036586	2.26185	-4.5623	-30.5052
 206	1	3	-0.073054	4.09299	-6.64123	-30.6936
 207	1	3	-0.129461	3.24326	-6.56857	-29.5727
 208	1	3	-0.055433	2.33423	-5.50925	-29.5068
 209	1	2	0.497443	1.32879	-5.16279	-28.4686
 210	1	1	-0.091283	0.752897	-3.96858	-28.8934
 211	1	2	0.442461	1.24171	-3.55367	-30.1234
 212	1	3	0.056821	-0.208886	-3.24622	-28.136
 213	1	3	-0.175202	-0.0824157	-1.86477	-27.9034
 214	1	3	-0.086463	-1.03029	-1.18703	-27.1035
 215	1	3	-0.120823	-1.28877	-3.93626	-27.5716
 216	1	3	-0.147764	-2.15686	-3.32772	-26.6459
 217	1	3	-0.091348	-2.04051	-1.93428	-26.4712
 218	1	2	0.723311	-0.984784	0.309649	-26.8892
 219	1	6	0.16273	3.28893	-7.31171	-28.78
 220	1	6	0.144736	4.78135	-7.47652	-30.7438
 221	1	6	0.138526	2.95788	-3.8804	-32.4182
 222	1	5	-0.452878	0.948941	-2.55225	-30.7515
 223	1	5	-0.478383	1.05128	-5.82509	-27.4799
 224	1	6	0.14723	-3.19387	-3.55119	-26.8773
 225	1	6	0.161782	0.73457	-1.31318	-28.363
 226	1	6	0.150279	-1.39541	-5.00327	-27.7697
 227	1	6	0.142321	-2.74562	-1.4161	-25.8239
 228	1	5	-0.564646	-1.89502	0.947531	-26.3814
 229	1	9	-0.344773	0.15274	0.897792	-27.3416
 230	1	7	-0.038703	63.4111	-61.8053	-151.474
 231	1	10	0.090446	-13.1849	98.2027	-24.5783
 232	1	10	0.070639	121.167	126.864	53.9928
 233	1	11	0.018298	63.6629	-60.8957	-152.032
 234	1	11	0.032617	64.2872	-62.0809	-150.876
 235	1	7	0.364059	62.2126	-61.542	-150.55
 236	1	10	-0.049335	62.0012	-62.442	-149.96
 237	1	12	-0.72623	61.0765	-61.2116	-151.334
 238	1	10	0.033772	62.4542	-60.7228	-149.859
 239	1	13	0.432586	60.8027	-62.028	-151.789
 240	1	3	-0.024347	3.64289	4.99749	-46.0697
 241	1	3	-0.071478	2.53912	5.85171	-45.7946
 242	1	3	-0.180016	1.36031	5.70058	-46.5835
 243	1	5	-0.370097	5.60186	2.76905	-47.0596
 244	1	3	0.010306	3.509	3.99639	-47.0417
 245	1	3	-0.071748	1.24653	4.68533	-47.5581
 246	1	5	-0.403598	1.67015	2.29152	-49.4855
 247	1	3	0.055994	2.33863	3.8375	-47.7572
 248	1	2	0.021521	4.47454	2.95489	-47.4882
 249	1	1	0.466017	3.79625	2.22609	-48.4645
 250	1	2	0.096621	2.5026	2.69691	-48.6917
 251	1	3	-0.099438	5.38468	6.58009	-41.872
 252	1	7	-0.089685	2.65979	6.94002	-44.681
 253	1	3	-0.037281	3.54361	6.38479	-43.524
 254	1	3	-0.08188	4.61307	7.11561	-42.9229
 255	1	3	-0.106561	5.04182	5.31541	-41.3944
 256	1	3	-0.037628	3.2437	5.09844	-43.0127
 257	1	3	-0.12234	4.00047	4.60261	-41.951
 258	1	7	0.388954	3.27653	8.21948	-45.3589
 259	1	7	0.307788	1.26509	7.30302	-44.0248
 260	1	8	-0.129718	3.21577	9.30458	-44.5556
 261	1	8	-0.129089	4.57497	8.0401	-45.7034
 262	1	8	-0.119089	2.62472	8.5511	-46.4965
 263	1	8	-0.103894	1.41371	7.98485	-42.8666
 264	1	8	-0.097852	0.545842	6.19886	-43.7124
 265	1	8	-0.104555	0.47836	8.07356	-44.8099
 266	1	2	0.521254	3.84909	3.33641	-41.1982
 267	1	2	0.53569	5.59957	4.52612	-40.2657
 268	1	1	0.027822	4.81213	3.38344	-40.1948
 269	1	5	-0.468874	3.01152	2.47594	-41.4099
 270	1	5	-0.477974	6.54007	4.83659	-39.5531
 271	1	3	-0.359831	4.93906	2.40736	-39.164
 272	1	3	0.131035	5.98387	1.45823	-39.2402
 273	1	3	-0.120983	6.15965	0.539289	-38.1793
 274	1	3	0.127261	4.03047	2.42602	-38.0828
 275	1	3	-0.127195	4.11651	1.4058	-37.1094
 276	1	3	0.144798	5.20101	0.498689	-37.1392
 277	1	7	-0.020676	2.95736	3.51671	-37.9618
 278	1	7	-0.019785	6.91143	1.4322	-40.4661
 279	1	6	0.164889	4.58021	5.08268	-45.5315
 280	1	6	0.175264	0.505772	6.3554	-46.4473
 281	1	6	0.1582	0.338813	4.5575	-48.1417
 282	1	6	0.150763	6.19545	7.14338	-41.4194
 283	1	6	0.144868	4.86908	8.11714	-43.2506
 284	1	6	0.134072	2.42637	4.50362	-43.4145
 285	1	7	-0.300668	7.33908	-0.448399	-38.1866
 286	1	7	-0.243237	3.03287	1.26067	-36.027
 287	1	11	0.021835	3.17327	4.41224	-38.5517
 288	1	11	0.012312	2.86304	3.8584	-36.9229
 289	1	11	0.041777	1.98102	3.13753	-38.2875
 290	1	11	0.110598	3.3452	1.74767	-35.092
 291	1	11	0.08293	2.07593	1.7037	-36.3247
 292	1	11	0.082252	2.80505	0.210326	-35.8051
 293	1	11	0.027698	7.76507	2.10617	-40.3229
 294	1	11	0.017051	6.39255	1.73699	-41.3818
 295	1	11	0.037874	7.30126	0.42922	-40.6737
 296	1	11	0.095908	8.2272	-0.028375	-38.6707
 297	1	11	0.127068	7.67187	-0.730586	-37.1796
 298	1	11	0.099095	7.06827	-1.36978	-38.7225
 299	1	3	-0.024347	8.91815	-5.50966	-55.5682
 300	1	3	-0.071478	9.43737	-6.42869	-54.6163
 301	1	3	-0.180016	10.8368	-6.69453	-54.6445
 302	1	5	-0.370097	8.391	-3.50676	-57.8581
 303	1	3	0.010306	9.77904	-4.93419	-56.5096
 304	1	3	-0.071748	11.6842	-6.10999	-55.6149
 305	1	5	-0.403598	12.8996	-4.64706	-58.0609
 306	1	3	0.055994	11.1188	-5.24499	-56.5548
 307	1	2	0.021521	9.47606	-4.0184	-57.6355
 308	1	1	0.466017	10.6704	-3.88791	-58.3634
 309	1	2	0.096621	11.724	-4.5768	-57.7392
 310	1	3	-0.099438	4.98473	-5.53835	-52.8958
 311	1	7	-0.089685	8.4445	-7.19935	-53.6878
 312	1	3	-0.037281	7.34487	-6.19709	-53.2287
 313	1	3	-0.08188	5.94911	-6.47307	-53.3147
 314	1	3	-0.106561	5.43051	-4.31472	-52.3946
 315	1	3	-0.037628	7.74908	-4.95227	-52.675
 316	1	3	-0.12234	6.77292	-4.03133	-52.2795
 317	1	7	0.388954	9.09943	-7.7911	-52.3752
 318	1	7	0.307788	7.8744	-8.38931	-54.5569
 319	1	8	-0.129718	9.89464	-8.85723	-52.6113
 320	1	8	-0.129089	8.15934	-8.21806	-51.5002
 321	1	8	-0.119089	9.84554	-6.87763	-51.7131
 322	1	8	-0.103894	8.86513	-9.11294	-55.1195
 323	1	8	-0.097852	7.12011	-7.94903	-55.5897
 324	1	8	-0.104555	7.11082	-9.2501	-53.847
 325	1	2	0.521254	6.9127	-2.71225	-51.6068
 326	1	2	0.53569	4.65791	-3.19344	-51.8083
 327	1	1	0.027822	5.61062	-2.29574	-51.3325
 328	1	5	-0.468874	7.96064	-2.14737	-51.3384
 329	1	5	-0.477974	3.44416	-3.14288	-51.695
 330	1	3	-0.359831	5.27239	-1.12636	-50.5742
 331	1	3	0.131035	5.3162	0.147105	-51.1839
 332	1	3	-0.120983	4.88943	1.27588	-50.4451
 333	1	3	0.127261	4.81451	-1.28503	-49.2437
 334	1	3	-0.127195	4.31274	-0.170188	-48.5319
 335	1	3	0.144798	4.34976	1.10506	-49.1457
 336	1	7	-0.020676	4.77823	-2.67405	-48.5962
 337	1	7	-0.019785	5.77029	0.324076	-52.6432
 338	1	6	0.164889	7.84579	-5.28045	-55.6238
 339	1	6	0.175264	11.282	-7.40222	-53.9548
 340	1	6	0.1582	12.745	-6.3552	-55.6643
 341	1	6	0.150763	3.91838	-5.76384	-52.9412
 342	1	6	0.144868	5.57446	-7.41835	-53.6911
 343	1	6	0.134072	8.79416	-4.70168	-52.5512
 344	1	7	-0.300668	4.96275	2.67905	-51.0634
 345	1	7	-0.243237	3.71165	-0.349937	-47.1238
 346	1	11	0.021835	5.49115	-3.37291	-49.042
 347	1	11	0.012312	3.78165	-3.11614	-48.6858
 348	1	11	0.041777	5.03745	-2.63206	-47.5354
 349	1	11	0.110598	4.48522	-0.246684	-46.3509
 350	1	11	0.08293	2.92536	0.380437	-46.9021
 351	1	11	0.082252	3.23362	-1.3279	-46.9871
 352	1	11	0.027698	5.86204	-0.615275	-53.1999
 353	1	11	0.017051	6.7439	0.826155	-52.6955
 354	1	11	0.037874	5.04882	0.933634	-53.2019
 355	1	11	0.095908	5.17362	3.45406	-50.3163
 356	1	11	0.127068	5.7639	2.77679	-51.8054
 357	1	11	0.099095	4.02146	2.9384	-51.5641
 358	1	1	0.478781	21.7542	-1.32828	-69.5075
 359	1	2	0.051808	20.7301	-0.39911	-69.2805
 360	1	3	-0.015342	20.4552	-0.450215	-67.8209
 361	1	2	0.052802	22.2177	-1.88635	-68.3122
 362	1	3	0.058525	21.3375	-1.33816	-67.2483
 363	1	5	-0.381395	20.1212	0.277717	-70.0926
 364	1	5	-0.387279	23.1087	-2.70523	-68.1562
 365	1	3	-0.003007	19.4324	0.160062	-67.0792
 366	1	3	-0.04277	21.2466	-1.6708	-65.8944
 367	1	3	-0.203298	20.2069	-1.08923	-65.1385
 368	1	3	-0.057014	19.2757	-0.170476	-65.7009
 369	1	6	0.158736	18.7623	0.831714	-67.6086
 370	1	6	0.155574	21.9331	-2.39281	-65.4578
 371	1	6	0.172835	20.112	-1.39276	-64.101
 372	1	7	-0.114348	18.1304	0.39117	-64.784
 373	1	7	0.394993	18.8372	1.1931	-63.6177
 374	1	8	-0.128918	18.0251	2.03788	-62.95
 375	1	8	-0.12014	19.8484	1.95595	-64.0879
 376	1	8	-0.128671	19.37	0.379588	-62.6786
 377	1	7	0.329225	17.1575	1.36773	-65.5559
 378	1	8	-0.1084	16.1374	1.81194	-64.7864
 379	1	8	-0.10772	16.5616	0.750689	-66.601
 380	1	8	-0.098105	17.7919	2.46987	-66.0222
 381	1	3	-0.04356	17.2468	-0.779953	-64.2394
 382	1	3	-0.061005	16.3579	-0.589064	-63.1438
 383	1	3	-0.036586	15.4811	-1.62048	-62.778
 384	1	3	-0.073054	17.2004	-2.0297	-64.9209
 385	1	3	-0.129461	16.333	-3.06612	-64.5203
 386	1	3	-0.055433	15.4801	-2.82859	-63.4394
 387	1	2	0.497443	14.3451	-3.6376	-62.9274
 388	1	1	-0.091283	13.6689	-2.8258	-62.0195
 389	1	2	0.442461	14.3221	-1.61122	-61.8354
 390	1	3	0.056821	12.3669	-3.1282	-61.5051
 391	1	3	-0.175202	11.3926	-3.63379	-62.3795
 392	1	3	-0.086463	10.1017	-3.94139	-61.9189
 393	1	3	-0.120823	12.0217	-2.91327	-60.1533
 394	1	3	-0.147764	10.7317	-3.20373	-59.6377
 395	1	3	-0.091348	9.7924	-3.71171	-60.5676
 396	1	2	0.723311	9.05636	-4.55402	-62.8231
 397	1	6	0.16273	16.2778	-3.99892	-65.0718
 398	1	6	0.144736	17.8054	-2.20108	-65.8082
 399	1	6	0.138526	16.2795	0.360167	-62.626
 400	1	5	-0.452878	13.9649	-0.672932	-61.1447
 401	1	5	-0.478383	14.0221	-4.7389	-63.3379
 402	1	6	0.14723	10.3309	-2.2898	-59.2061
 403	1	6	0.161782	11.641	-3.80889	-63.4225
 404	1	6	0.150279	12.7834	-2.50887	-59.4868
 405	1	6	0.142321	8.78273	-3.95771	-60.2401
 406	1	5	-0.564646	7.94499	-4.86661	-62.4306
 407	1	9	-0.344773	9.45442	-4.74038	-64.1088
 408	1	7	-0.038703	4.57357	148.837	1.60295
 409	1	10	0.090446	124.272	159.782	-27.5109
 410	1	10	0.070639	142.285	-76.4671	101.376
 411	1	11	0.018298	3.83537	149.547	1.99475
 412	1	11	0.032617	5.31845	149.404	1.03093
 413	1	7	0.364059	5.25684	148.083	2.75744
 414	1	10	-0.049335	4.50654	147.502	3.3056
 415	1	12	-0.72623	5.8834	149.005	3.64156
 416	1	10	0.033772	5.99995	147.387	2.34638
 417	1	13	0.432586	5.17277	149.457	4.12801
 418	1	1	0.478781	34.855	4.22379	-74.4568
 419	1	2	0.051808	34.0886	4.1606	-75.6209
 420	1	3	-0.015342	32.6884	3.98641	-75.153
 421	1	2	0.052802	34.0829	4.13533	-73.2972
 422	1	3	0.058525	32.6871	3.97236	-73.775
 423	1	5	-0.381395	34.4675	4.15972	-76.78
 424	1	5	-0.387279	34.4554	4.10749	-72.137
 425	1	3	-0.003007	31.5155	3.77876	-75.8891
 426	1	3	-0.04277	31.5049	3.78126	-73.0559
 427	1	3	-0.203298	30.3104	3.5817	-73.782
 428	1	3	-0.057014	30.289	3.54701	-75.2028
 429	1	6	0.158736	31.5914	3.78755	-76.971
 430	1	6	0.155574	31.5177	3.77315	-71.9655
 431	1	6	0.172835	29.3845	3.43684	-73.2265
 432	1	7	-0.114348	28.9314	3.29922	-75.9432
 433	1	7	0.394993	29.1335	2.8364	-77.4343
 434	1	8	-0.128918	29.5548	3.83261	-78.2444
 435	1	8	-0.12014	27.9877	2.35998	-77.971
 436	1	8	-0.128671	30.0405	1.83528	-77.5244
 437	1	7	0.329225	28.1663	4.67482	-75.9439
 438	1	8	-0.1084	28.9672	5.69628	-76.3269
 439	1	8	-0.10772	27.7138	4.99648	-74.7097
 440	1	8	-0.098105	27.1031	4.68498	-76.7792
 441	1	3	-0.04356	28.1327	2.16129	-75.227
 442	1	3	-0.061005	26.7251	2.21479	-75.0146
 443	1	3	-0.036586	26.0969	1.16426	-74.3286
 444	1	3	-0.073054	28.8288	0.996315	-74.7992
 445	1	3	-0.129461	28.1771	-0.0589663	-74.1264
 446	1	3	-0.055433	26.8042	0.0675354	-73.882
 447	1	2	0.497443	25.8613	-0.832101	-73.1614
 448	1	1	-0.091283	24.6239	-0.211511	-73.2333
 449	1	2	0.442461	24.6712	0.986962	-73.9313
 450	1	3	0.056821	23.427	-0.77149	-72.7119
 451	1	3	-0.175202	22.3552	-1.05416	-73.5756
 452	1	3	-0.086463	21.1876	-1.66505	-73.0778
 453	1	3	-0.120823	23.3097	-1.07054	-71.3389
 454	1	3	-0.147764	22.1829	-1.74421	-70.8182
 455	1	3	-0.091348	21.1206	-1.9855	-71.7119
 456	1	2	0.723311	20.022	-2.02361	-73.9629
 457	1	6	0.16273	28.7233	-0.938669	-73.7905
 458	1	6	0.144736	29.8965	0.913437	-74.9803
 459	1	6	0.138526	26.112	3.04721	-75.3427
 460	1	5	-0.452878	23.7466	1.73523	-74.1943
 461	1	5	-0.478383	26.1244	-1.90506	-72.6485
 462	1	6	0.14723	22.5394	-2.72118	-70.5064
 463	1	6	0.161782	22.4346	-0.810254	-74.6332
 464	1	6	0.150279	24.1539	-0.867971	-70.6827
 465	1	6	0.142321	20.2079	-2.4467	-71.3345
 466	1	5	-0.564646	19.0292	-2.59291	-73.5387
 467	1	9	-0.344773	20.2118	-1.7486	-75.2813
 468	1	7	-0.038703	48.6637	90.0904	15.545
 469	1	10	0.090446	159.212	-64.3362	12.6965
 470	1	10	0.070639	79.4944	-139.118	49.742
 471	1	11	0.018298	48.2241	90.4085	14.5909
 472	1	11	0.032617	49.5991	90.646	15.6866
 473	1	7	0.364059	47.6949	90.3851	16.7029
 474	1	10	-0.049335	46.7648	89.8252	16.5511
 475	1	12	-0.72623	47.4083	91.7772	16.7561
 476	1	10	0.033772	48.1462	90.0546	17.6477
 477	1	13	0.432586	46.8357	91.977	15.9898
 478	1	3	-0.024347	46.6155	3.12275	-70.1818
 479	1	3	-0.071478	46.3036	4.03243	-71.2319
 480	1	3	-0.180016	45.8542	5.33317	-70.8723
 481	1	5	-0.370097	47.0049	1.62244	-67.466
 482	1	3	0.010306	46.4517	3.53306	-68.8504
 483	1	3	-0.071748	45.6921	5.7275	-69.5278
 484	1	5	-0.403598	45.4631	5.87151	-66.4338
 485	1	3	0.055994	45.9975	4.79714	-68.5326
 486	1	2	0.021521	46.6304	2.77773	-67.5789
 487	1	1	0.466017	46.2289	3.64906	-66.5657
 488	1	2	0.096621	45.8587	4.89954	-67.0555
 489	1	3	-0.099438	43.9414	4.98699	-75.4727
 490	1	7	-0.089685	46.4585	3.6907	-72.7497
 491	1	3	-0.037281	45.1428	4.10184	-73.4891
 492	1	3	-0.08188	45.1384	4.67118	-74.7963
 493	1	3	-0.106561	42.7316	4.72615	-74.828
 494	1	3	-0.037628	43.8854	3.85039	-72.8758
 495	1	3	-0.12234	42.7048	4.17725	-73.5626
 496	1	7	0.388954	47.7337	4.4711	-73.2573
 497	1	7	0.307788	46.6667	2.15409	-73.0281
 498	1	8	-0.129718	48.7894	4.27432	-72.4365
 499	1	8	-0.129089	47.5219	5.80558	-73.2975
 500	1	8	-0.119089	48.1462	4.10607	-74.4941
 501	1	8	-0.103894	45.725	1.41037	-72.4102
 502	1	8	-0.097852	47.8681	1.68221	-72.6231
 503	1	8	-0.104555	46.5722	1.86471	-74.3452
 504	1	2	0.521254	41.2763	3.97979	-73.1876
 505	1	2	0.53569	41.3332	4.89572	-75.3076
 506	1	1	0.027822	40.5264	4.42875	-74.2758
 507	1	5	-0.468874	40.8685	3.48101	-72.153
 508	1	5	-0.477974	40.991	5.33718	-76.3919
 509	1	3	-0.359831	39.0914	4.38753	-74.3392
 510	1	3	0.131035	38.3424	5.56449	-74.111
 511	1	3	-0.120983	36.9298	5.52312	-74.2215
 512	1	3	0.127261	38.4484	3.16659	-74.6424
 513	1	3	-0.127195	37.0337	3.09968	-74.6437
 514	1	3	0.144798	36.2801	4.28434	-74.4481
 515	1	7	-0.020676	39.2812	1.90941	-74.9287
 516	1	7	-0.019785	39.0517	6.87523	-73.7454
 517	1	6	0.164889	46.9704	2.11433	-70.3635
 518	1	6	0.175264	45.6016	6.05117	-71.6496
 519	1	6	0.1582	45.3238	6.71718	-69.2639
 520	1	6	0.150763	43.9535	5.40528	-76.4768
 521	1	6	0.144868	46.0611	4.86174	-75.3259
 522	1	6	0.134072	43.82	3.3905	-71.8921
 523	1	7	-0.300668	36.1081	6.81177	-74.0618
 524	1	7	-0.243237	36.3391	1.74602	-74.8699
 525	1	11	0.021835	39.4332	1.32934	-74.0108
 526	1	11	0.012312	40.2709	2.13333	-75.3485
 527	1	11	0.041777	38.799	1.25464	-75.667
 528	1	11	0.110598	36.7905	0.965395	-74.2427
 529	1	11	0.08293	35.2729	1.73749	-74.6194
 530	1	11	0.082252	36.424	1.42847	-75.9158
 531	1	11	0.027698	39.2018	7.4997	-74.6374
 532	1	11	0.017051	40.0307	6.71636	-73.2794
 533	1	11	0.037874	38.4762	7.45812	-73.0159
 534	1	11	0.095908	35.9075	7.01762	-73.0016
 535	1	11	0.127068	36.6263	7.6809	-74.4813
 536	1	11	0.099095	35.1444	6.77506	-74.5804
 537	1	3	-0.024347	46.4163	-2.05908	-53.8357
 538	1	3	-0.071478	46.9116	-1.43168	-55.0099
 539	1	3	-0.180016	47.6786	-0.239948	-54.8621
 540	1	5	-0.370097	45.6177	-2.90281	-50.9565
 541	1	3	0.010306	46.6821	-1.47833	-52.5911
 542	1	3	-0.071748	47.9656	0.307182	-53.5932
 543	1	5	-0.403598	48.122	0.973719	-50.5425
 544	1	3	0.055994	47.4433	-0.334438	-52.4682
 545	1	2	0.021521	46.3032	-1.93361	-51.2296
 546	1	1	0.466017	46.8913	-1.01957	-50.3562
 547	1	2	0.096621	47.57	-0.00248981	-51.0236
 548	1	3	-0.099438	44.8688	1.14591	-57.7599
 549	1	7	-0.089685	46.7008	-2.01858	-56.4373
 550	1	3	-0.037281	46.289	-0.850778	-57.3805
 551	1	3	-0.08188	45.3249	0.0973843	-56.9348
 552	1	3	-0.106561	45.394	1.2369	-59.0529
 553	1	3	-0.037628	46.8002	-0.717659	-58.6964
 554	1	3	-0.12234	46.3412	0.335611	-59.4938
 555	1	7	0.388954	45.5512	-3.09617	-56.5311
 556	1	7	0.307788	48.0682	-2.69789	-56.8251
 557	1	8	-0.129718	45.2679	-3.42145	-57.8137
 558	1	8	-0.129089	44.3933	-2.63548	-56.008
 559	1	8	-0.119089	45.8423	-4.25234	-55.8904
 560	1	8	-0.103894	47.9929	-3.45999	-57.9375
 561	1	8	-0.097852	48.5182	-3.51146	-55.8469
 562	1	8	-0.104555	49.0439	-1.78224	-57.0232
 563	1	2	0.521254	46.6882	0.671812	-60.8951
 564	1	2	0.53569	45.0913	2.18149	-60.1654
 565	1	1	0.027822	45.8965	1.76983	-61.2256
 566	1	5	-0.468874	47.5127	0.0988602	-61.5907
 567	1	5	-0.477974	44.2667	3.08074	-60.1546
 568	1	3	-0.359831	45.8986	2.35529	-62.5345
 569	1	3	0.131035	44.9159	1.97474	-63.4788
 570	1	3	-0.120983	44.9969	2.45906	-64.807
 571	1	3	0.127261	46.9499	3.22603	-62.8992
 572	1	3	-0.127195	47.0891	3.62945	-64.2494
 573	1	3	0.144798	46.1042	3.25463	-65.1969
 574	1	7	-0.020676	47.9374	3.71367	-61.8343
 575	1	7	-0.019785	43.7754	1.02422	-63.0916
 576	1	6	0.164889	45.8403	-2.97876	-53.8533
 577	1	6	0.175264	48.0776	0.260204	-55.7394
 578	1	6	0.1582	48.568	1.20446	-53.4824
 579	1	6	0.150763	44.1159	1.85249	-57.4137
 580	1	6	0.144868	44.9021	0.00874377	-55.9363
 581	1	6	0.134072	47.5216	-1.4099	-59.1189
 582	1	7	-0.300668	43.9397	2.06312	-65.8557
 583	1	7	-0.243237	48.2928	4.47324	-64.6936
 584	1	11	0.021835	48.8147	3.05338	-61.785
 585	1	11	0.012312	47.4914	3.75718	-60.8362
 586	1	11	0.041777	48.2883	4.72998	-62.0414
 587	1	11	0.110598	48.6074	4.25385	-65.7207
 588	1	11	0.08293	48.0564	5.54555	-64.6367
 589	1	11	0.082252	49.1809	4.28653	-64.0796
 590	1	11	0.027698	42.8258	1.56905	-63.0151
 591	1	11	0.017051	43.929	0.504516	-62.1405
 592	1	11	0.037874	43.6516	0.235097	-63.8431
 593	1	11	0.095908	43.7633	2.8485	-66.602
 594	1	11	0.127068	44.2472	1.15647	-66.392
 595	1	11	0.099095	42.955	1.8699	-65.4133
 596	1	3	-0.024347	47.6933	1.24608	-36.5835
 597	1	3	-0.071478	47.1826	1.4574	-37.8966
 598	1	3	-0.180016	45.7731	1.58111	-38.0565
 599	1	5	-0.370097	48.1257	0.623784	-33.556
 600	1	3	0.010306	46.7937	1.10543	-35.5156
 601	1	3	-0.071748	44.8883	1.46699	-36.9619
 602	1	5	-0.403598	43.5535	1.06208	-34.2022
 603	1	3	0.055994	45.4324	1.22141	-35.6983
 604	1	2	0.021521	47.0381	0.797377	-34.0775
 605	1	1	0.466017	45.7763	0.726891	-33.4754
 606	1	2	0.096621	44.7576	1.01549	-34.3907
 607	1	3	-0.099438	46.6112	-1.4472	-41.082
 608	1	7	-0.089685	48.0953	1.59512	-39.1551
 609	1	3	-0.037281	47.4956	0.742935	-40.3172
 610	1	3	-0.08188	47.0271	-0.575312	-40.0492
 611	1	3	-0.106561	46.6856	-0.987422	-42.402
 612	1	3	-0.037628	47.5192	1.17847	-41.6715
 613	1	3	-0.12234	47.125	0.290196	-42.6805
 614	1	7	0.388954	49.5572	1.03987	-38.9433
 615	1	7	0.307788	48.182	3.13762	-39.4863
 616	1	8	-0.129718	50.2148	0.896518	-40.1192