pySIMM System Object

2143 atoms
2265 bonds
3947 angles
5867 dihedrals
595 impropers

13 atom types
16 bond types
30 angle types
15 dihedral types
4 improper types

-165.591809 165.591809 xlo xhi
-165.591809 165.591809 ylo yhi
-165.591809 165.591809 zlo zhi

Masses

   1	14.01	# n
   2	12.01	# c
   3	12.01	# ca
   4	1.008	# hn
   5	16.0	# o
   6	1.008	# ha
   7	12.01	# c3
   8	19.0	# f
   9	16.0	# os
  10	1.008	# h1
  11	1.008	# hc
  12	16.0	# oh
  13	1.008	# ho

Pair Coeffs

   1	0.17	3.249998523775958	# n
   2	0.086	3.3996695084235347	# c
   3	0.086	3.3996695084235347	# ca
   4	0.0157	1.069078461768407	# hn
   5	0.21	2.959921901149463	# o
   6	0.015	2.59964245953351	# ha
   7	0.1094	3.3996695084235347	# c3
   8	0.061	3.1181455134911875	# f
   9	0.17	3.0000123434657784	# os
  10	0.0157	2.471353044121301	# h1
  11	0.0157	2.649532787749369	# hc
  12	0.2104	3.0664733878390478	# oh
  13	0.0047	0.5379246460131368	# ho

Bond Coeffs

   1	345.8	1.086	# ca,ha
   2	637.7	1.2183	# c,o
   3	427.6	1.3789	# c,n
   4	321.0	1.5156	# c3,ca
   5	300.9	1.5375	# c3,c3
   6	384.2	1.4121	# ca,n
   7	330.6	1.0969	# c3,h1
   8	330.6	1.0969	# c3,hc
   9	316.7	1.4233	# c3,oh
  10	403.2	1.0129	# hn,n
  11	356.9	1.3497	# c3,f
  12	371.4	0.973	# ho,oh
  13	308.6	1.4316	# c3,os
  14	461.1	1.3984	# ca,ca
  15	345.9	1.4906	# c,ca
  16	390.8	1.3584	# c,os

Angle Coeffs

   1	39.4	107.58	# hc,c3,hc
   2	63.53	120.77	# c3,ca,ca
   3	70.89	107.36	# f,c3,f
   4	67.87	120.19	# ca,ca,n
   5	68.0	107.97	# c3,c3,os
   6	66.11	109.24	# c3,c3,f
   7	46.39	109.56	# c3,c3,h1
   8	62.86	111.51	# c3,c3,c3
   9	75.32	123.25	# o,c,os
  10	63.15	112.07	# c3,c3,ca
  11	63.82	123.71	# c,n,ca
  12	63.56	112.24	# ca,c3,ca
  13	46.34	109.8	# c3,c3,hc
  14	67.47	110.19	# c3,c3,oh
  15	47.38	107.26	# c3,oh,ho
  16	39.24	108.46	# h1,c3,h1
  17	69.32	112.44	# ca,c,os
  18	63.74	127.08	# c,n,c
  19	48.18	119.88	# ca,ca,ha
  20	50.93	110.26	# h1,c3,oh
  21	74.22	123.05	# n,c,o
  22	50.8	109.78	# h1,c3,os
  23	63.28	115.98	# c,os,c3
  24	48.33	117.55	# c,n,hn
  25	66.62	120.02	# ca,ca,ca
  26	68.72	122.6	# ca,c,o
  27	67.68	115.25	# ca,c,n
  28	64.28	120.33	# c,ca,ca
  29	49.75	116.02	# ha,ca,n
  30	46.8	110.47	# ca,c3,hc

Dihedral Coeffs

   1	2	0.0	3	0	0.25	1	0	# hc,c3,c3,os
   2	2	2.5	2	180	2.0	1	0	# hn,n,c,o
   3	1	3.625	2	180	# X,ca,ca,X
   4	2	0.0	3	0	0.25	1	0	# hc,c3,c3,oh
   5	1	0.15555555555555556	3	0	# X,c3,c3,X
   6	2	2.7	2	180	1.4	1	180	# o,c,os,c3
   7	1	1.0	2	180	# X,c,ca,X
   8	1	0.0	2	0	# X,c3,ca,X
   9	2	0.16	3	0	0.25	1	0	# ho,oh,c3,c3
  10	2	0.383	3	0	0.8	1	180	# c3,c3,os,c
  11	1	2.5	2	180	# X,c,n,X
  12	1	0.45	2	180	# X,ca,n,X
  13	1	2.7	2	180	# X,c,os,X
  14	1	0.3833333333333333	3	0	# X,c3,os,X
  15	1	0.16666666666666666	3	0	# X,c3,oh,X

Improper Coeffs

   1	1.1	-1	2	# ca,X,X,ha
   2	1.1	-1	2	# n,X,X,hn
   3	1.1	-1	2	# ca,ca,ca,c3
   4	10.5	-1	2	# c,X,X,o

Atoms

   1	1	1	0.478781	-38.456	-38.5318	71.5461
   2	1	2	0.051808	-39.1069	-39.491	70.757
   3	1	3	-0.015342	-40.3586	-39.8253	71.48
   4	1	2	0.052802	-39.1911	-38.2186	72.6984
   5	1	3	0.058525	-40.4051	-39.0674	72.6291
   6	1	5	-0.381395	-38.7531	-39.9735	69.6942
   7	1	5	-0.387279	-38.9172	-37.4376	73.5972
   8	1	3	-0.003007	-41.3678	-40.7402	71.1596
   9	1	3	-0.04277	-41.4651	-39.1793	73.5274
  10	1	3	-0.203298	-42.5002	-40.0838	73.2203
  11	1	3	-0.057014	-42.4822	-40.8717	72.0308
  12	1	6	0.158736	-41.2849	-41.3293	70.249
  13	1	6	0.155574	-41.4774	-38.586	74.4392
  14	1	6	0.172835	-43.3042	-40.1599	73.9423
  15	1	7	-0.114348	-43.5962	-41.9096	71.6886
  16	1	7	0.394993	-42.9636	-43.3317	71.9579
  17	1	8	-0.128918	-42.22	-43.3441	73.088
  18	1	8	-0.12014	-43.8805	-44.3144	72.1008
  19	1	8	-0.128671	-42.1353	-43.7053	70.9559
  20	1	7	0.329225	-44.8985	-41.7322	72.5604
  21	1	8	-0.1084	-44.7107	-42.0827	73.8525
  22	1	8	-0.10772	-45.9281	-42.4849	72.1104
  23	1	8	-0.098105	-45.347	-40.4548	72.5356
  24	1	3	-0.04356	-44.0525	-41.7278	70.2127
  25	1	3	-0.061005	-44.6162	-42.8082	69.4828
  26	1	3	-0.036586	-45.1342	-42.567	68.2067
  27	1	3	-0.073054	-44.0423	-40.4359	69.6117
  28	1	3	-0.129461	-44.5394	-40.2218	68.3097
  29	1	3	-0.055433	-45.0883	-41.3146	67.6304
  30	1	2	0.497443	-45.7909	-41.3817	66.3205
  31	1	1	-0.091283	-46.2703	-42.6817	66.2189
  32	1	2	0.442461	-45.884	-43.4718	67.2947
  33	1	3	0.056821	-47.1375	-43.1252	65.1834
  34	1	3	-0.175202	-48.3169	-42.4109	64.8927
  35	1	3	-0.086463	-49.2107	-42.8591	63.8944
  36	1	3	-0.120823	-46.8458	-44.3015	64.4713
  37	1	3	-0.147764	-47.723	-44.7571	63.4764
  38	1	3	-0.091348	-48.8956	-44.0386	63.1897
  39	1	2	0.723311	-50.4949	-42.1238	63.5803
  40	1	6	0.16273	-44.5445	-39.2317	67.8592
  41	1	6	0.144736	-43.6761	-39.575	70.1643
  42	1	6	0.138526	-44.7179	-43.8036	69.9021
  43	1	5	-0.452878	-46.1427	-44.6448	67.4987
  44	1	5	-0.478383	-45.9589	-40.457	65.5458
  45	1	6	0.14723	-47.4989	-45.6693	62.93
  46	1	6	0.161782	-48.5399	-41.5023	65.4468
  47	1	6	0.150279	-45.9477	-44.8676	64.7001
  48	1	6	0.142321	-49.5729	-44.403	62.4198
  49	1	5	-0.564646	-51.294	-42.5142	62.7447
  50	1	9	-0.344773	-50.7124	-41.007	64.3281
  51	1	7	-0.038703	71.5376	44.8589	32.1173
  52	1	10	0.090446	-32.0584	96.0742	-8.78332
  53	1	10	0.070639	22.7765	-131.349	-55.1338
  54	1	11	0.018298	71.4512	44.8215	31.0242
  55	1	11	0.032617	70.5563	44.6119	32.5404
  56	1	7	0.364059	72.5906	43.8474	32.6005
  57	1	10	-0.049335	73.5618	44.0915	32.1557
  58	1	12	-0.72623	72.2127	42.5292	32.2218
  59	1	10	0.033772	72.6867	43.9171	33.6923
  60	1	13	0.432586	72.9689	41.9491	32.4188
  61	1	1	0.478781	-35.0004	-30.6958	58.6395
  62	1	2	0.051808	-36.1629	-30.4104	59.3491
  63	1	3	-0.015342	-35.8211	-30.6846	60.7614
  64	1	2	0.052802	-33.9452	-31.1046	59.4515
  65	1	3	0.058525	-34.5084	-31.1063	60.8214
  66	1	5	-0.381395	-37.2427	-30.0407	58.92
  67	1	5	-0.387279	-32.8138	-31.4306	59.133
  68	1	3	-0.003007	-36.6253	-30.5971	61.8988
  69	1	3	-0.04277	-33.9221	-31.4789	62.0294
  70	1	3	-0.203298	-34.7222	-31.4276	63.1867
  71	1	3	-0.057014	-36.0783	-30.9929	63.1467
  72	1	6	0.158736	-37.6477	-30.2537	61.776
  73	1	6	0.155574	-32.8897	-31.8248	62.0608
  74	1	6	0.172835	-34.2817	-31.7588	64.1251
  75	1	7	-0.114348	-36.9103	-31.0368	64.457
  76	1	7	0.394993	-36.3197	-29.9214	65.4134
  77	1	8	-0.128918	-35.1098	-30.2566	65.9157
  78	1	8	-0.12014	-37.1071	-29.6486	66.4772
  79	1	8	-0.128671	-36.1465	-28.751	64.7544
  80	1	7	0.329225	-38.4491	-30.7748	64.2541
  81	1	8	-0.1084	-38.7176	-29.5027	63.8827
  82	1	8	-0.10772	-39.1525	-31.0176	65.3824
  83	1	8	-0.098105	-38.9823	-31.6008	63.3255
  84	1	3	-0.04356	-36.8094	-32.4871	64.9987
  85	1	3	-0.061005	-36.7471	-32.7778	66.3843
  86	1	3	-0.036586	-36.7234	-34.1201	66.7872
  87	1	3	-0.073054	-36.8659	-33.5728	64.0766
  88	1	3	-0.129461	-36.8274	-34.9119	64.5024
  89	1	3	-0.055433	-36.7557	-35.1529	65.875
  90	1	2	0.497443	-36.7036	-36.435	66.6167
  91	1	1	-0.091283	-36.6356	-36.0892	67.9599
  92	1	2	0.442461	-36.6573	-34.712	68.1486
  93	1	3	0.056821	-36.4879	-37.0393	69.008
  94	1	3	-0.175202	-35.5198	-38.048	68.8936
  95	1	3	-0.086463	-35.3463	-38.9963	69.9177
  96	1	3	-0.120823	-37.306	-36.9968	70.1516
  97	1	3	-0.147764	-37.1883	-37.9508	71.1896
  98	1	3	-0.091348	-36.1719	-38.9235	71.0561
  99	1	2	0.723311	-34.3124	-40.0905	69.8074
 100	1	6	0.16273	-36.866	-35.7372	63.7928
 101	1	6	0.144736	-36.9541	-33.384	63.0088
 102	1	6	0.138526	-36.7342	-32.0009	67.1419
 103	1	5	-0.452878	-36.6039	-34.0941	69.1972
 104	1	5	-0.478383	-36.6835	-37.5457	66.1173
 105	1	6	0.14723	-37.0376	-37.4277	72.1271
 106	1	6	0.161782	-34.8992	-38.0974	68.0016
 107	1	6	0.150279	-38.0533	-36.2097	70.2348
 108	1	6	0.142321	-36.0389	-39.6673	71.8422
 109	1	5	-0.564646	-34.0808	-40.8743	70.713
 110	1	9	-0.344773	-33.6425	-40.1152	68.624
 111	1	7	-0.038703	-15.2242	-25.9008	131.725
 112	1	10	0.090446	-138.935	-79.3264	-45.2572
 113	1	10	0.070639	7.55183	-62.4547	80.7253
 114	1	11	0.018298	-14.5125	-26.6115	131.28
 115	1	11	0.032617	-14.771	-25.5025	132.645
 116	1	7	0.364059	-15.5123	-24.7549	130.739
 117	1	10	-0.049335	-15.9395	-25.1678	129.821
 118	1	12	-0.72623	-14.3073	-24.0528	130.443
 119	1	10	0.033772	-16.249	-24.0732	131.179
 120	1	13	0.432586	-13.9797	-23.671	131.275
 121	1	3	-0.024347	-35.1409	-30.5257	44.8333
 122	1	3	-0.071478	-34.9245	-31.1731	46.0762
 123	1	3	-0.180016	-35.8768	-32.1345	46.5203
 124	1	5	-0.370097	-36.3359	-29.2748	42.2749
 125	1	3	0.010306	-36.2965	-30.8367	44.1137
 126	1	3	-0.071748	-37.0227	-32.4496	45.7673
 127	1	5	-0.403598	-39.3728	-32.4613	43.7465
 128	1	3	0.055994	-37.208	-31.7723	44.5619
 129	1	2	0.021521	-36.8361	-30.2021	42.8882
 130	1	1	0.466017	-38.0787	-30.7963	42.6939
 131	1	2	0.096621	-38.3647	-31.7838	43.6349
 132	1	3	-0.099438	-36.1265	-29.3814	49.6846
 133	1	7	-0.089685	-33.7272	-30.8424	47.0051
 134	1	3	-0.037281	-34.3313	-30.5036	48.394
 135	1	3	-0.08188	-35.5096	-29.7017	48.4607
 136	1	3	-0.106561	-35.5373	-29.8688	50.8501
 137	1	3	-0.037628	-33.747	-30.9474	49.606
 138	1	3	-0.12234	-34.3814	-30.6211	50.8097
 139	1	7	0.388954	-32.876	-29.5899	46.5702
 140	1	7	0.307788	-32.7973	-32.1152	46.9802
 141	1	8	-0.129718	-32.1813	-29.8028	45.43
 142	1	8	-0.129089	-31.9736	-29.2434	47.5165
 143	1	8	-0.119089	-33.6462	-28.494	46.3857
 144	1	8	-0.103894	-32.5509	-32.5174	45.711
 145	1	8	-0.097852	-33.3571	-33.177	47.5994
 146	1	8	-0.104555	-31.6001	-31.9087	47.5704
 147	1	2	0.521254	-33.9997	-30.9497	52.205
 148	1	2	0.53569	-35.9406	-29.6966	52.2679
 149	1	1	0.027822	-34.9693	-30.3611	53.0098
 150	1	5	-0.468874	-33.0206	-31.5862	52.5539
 151	1	5	-0.477974	-36.9093	-29.0761	52.6725
 152	1	3	-0.359831	-34.9633	-30.4379	54.4382
 153	1	3	0.131035	-34.5362	-29.3285	55.2053
 154	1	3	-0.120983	-34.5784	-29.4013	56.6161
 155	1	3	0.127261	-35.3708	-31.6408	55.0555
 156	1	3	-0.127195	-35.2921	-31.7582	56.4595
 157	1	3	0.144798	-34.9358	-30.6246	57.2264
 158	1	7	-0.020676	-35.8931	-32.8041	54.2006
 159	1	7	-0.019785	-34.0282	-28.0556	54.522
 160	1	6	0.164889	-34.4729	-29.7706	44.4327
 161	1	6	0.175264	-35.7475	-32.6286	47.4812
 162	1	6	0.1582	-37.7654	-33.1615	46.1253
 163	1	6	0.150763	-37.0315	-28.7756	49.7258
 164	1	6	0.144868	-35.9634	-29.323	47.5485
 165	1	6	0.134072	-32.8368	-31.537	49.6359
 166	1	7	-0.300668	-34.2366	-28.1933	57.5091
 167	1	7	-0.243237	-35.6321	-33.0863	57.1571
 168	1	11	0.021835	-36.4132	-32.4597	53.2986
 169	1	11	0.012312	-36.6269	-33.4183	54.7361
 170	1	11	0.041777	-35.0689	-33.4574	53.8869
 171	1	11	0.110598	-36.7061	-33.1514	57.3747
 172	1	11	0.08293	-35.363	-33.9545	56.5435
 173	1	11	0.082252	-35.086	-33.2304	58.0977
 174	1	11	0.027698	-33.8225	-28.1765	53.4531
 175	1	11	0.017051	-33.0839	-27.7219	54.9707
 176	1	11	0.037874	-34.76	-27.2444	54.6229
 177	1	11	0.095908	-34.0825	-27.2601	56.9579
 178	1	11	0.127068	-35.0483	-27.979	58.2179
 179	1	11	0.099095	-33.3209	-28.3761	58.088
 180	1	3	-0.024347	-48.3711	-26.265	34.3862
 181	1	3	-0.071478	-47.0393	-26.7005	34.6125
 182	1	3	-0.180016	-46.5517	-27.7928	33.8386
 183	1	5	-0.370097	-51.3263	-25.9243	33.6797
 184	1	3	0.010306	-49.1683	-26.96	33.4751
 185	1	3	-0.071748	-47.376	-28.4804	32.9185
 186	1	5	-0.403598	-49.7775	-29.581	31.2421
 187	1	3	0.055994	-48.6971	-28.043	32.7653
 188	1	2	0.021521	-50.6094	-26.7834	33.1892
 189	1	1	0.466017	-50.9443	-27.8288	32.3177
 190	1	2	0.096621	-49.8272	-28.6076	31.9785
 191	1	3	-0.099438	-45.4242	-29.3256	37.6108
 192	1	7	-0.089685	-46.1167	-26.0296	35.6755
 193	1	3	-0.037281	-45.3538	-27.1358	36.4545
 194	1	3	-0.08188	-46.0437	-28.319	36.8447
 195	1	3	-0.106561	-44.1004	-29.1208	38.0016
 196	1	3	-0.037628	-44.0177	-26.9599	36.8968
 197	1	3	-0.12234	-43.4253	-27.968	37.6592
 198	1	7	0.388954	-45.1656	-25.0484	34.8974
 199	1	7	0.307788	-46.9044	-25.2237	36.7731
 200	1	8	-0.129718	-44.2425	-25.7302	34.1832
 201	1	8	-0.129089	-44.4995	-24.1881	35.7032
 202	1	8	-0.119089	-45.857	-24.2928	34.0145
 203	1	8	-0.103894	-46.1096	-24.9071	37.8221
 204	1	8	-0.097852	-47.9301	-25.946	37.2766
 205	1	8	-0.104555	-47.4157	-24.0599	36.3167
 206	1	2	0.521254	-42.0934	-27.996	38.3087
 207	1	2	0.53569	-43.2257	-29.9291	38.8868
 208	1	1	0.027822	-42.0652	-29.1778	39.0417
 209	1	5	-0.468874	-41.251	-27.1167	38.2533
 210	1	5	-0.477974	-43.5302	-30.9697	39.4452
 211	1	3	-0.359831	-41.0119	-29.5338	39.9383
 212	1	3	0.131035	-41.0654	-29.0722	41.2707
 213	1	3	-0.120983	-40.0461	-29.4432	42.1749
 214	1	3	0.127261	-39.9637	-30.3668	39.4896
 215	1	3	-0.127195	-38.9699	-30.7817	40.4073
 216	1	3	0.144798	-39.0289	-30.3279	41.7446
 217	1	7	-0.020676	-39.9334	-30.8347	38.0301
 218	1	7	-0.019785	-42.2469	-28.2119	41.7414
 219	1	6	0.164889	-48.8214	-25.4395	34.9246
 220	1	6	0.175264	-45.5262	-28.1347	33.9736
 221	1	6	0.1582	-47.0115	-29.3417	32.3605
 222	1	6	0.150763	-45.9665	-30.2168	37.9205
 223	1	6	0.144868	-47.085	-28.4558	36.5661
 224	1	6	0.134072	-43.4414	-26.0634	36.6942
 225	1	7	-0.300668	-40.0747	-28.9604	43.6352
 226	1	7	-0.243237	-37.8179	-31.7109	39.9932
 227	1	11	0.021835	-40.3481	-31.8471	37.9395
 228	1	11	0.012312	-38.9154	-30.8406	37.6242
 229	1	11	0.041777	-40.4998	-30.1857	37.3538
 230	1	11	0.110598	-37.9771	-32.2148	39.0342
 231	1	11	0.08293	-36.8747	-31.153	39.9195
 232	1	11	0.082252	-37.6737	-32.5197	40.7195
 233	1	11	0.027698	-42.5041	-28.4022	42.789
 234	1	11	0.017051	-43.1693	-28.4131	41.1877
 235	1	11	0.037874	-42.0191	-27.1449	41.6356
 236	1	11	0.095908	-39.0709	-28.812	44.0487
 237	1	11	0.127068	-40.5675	-27.9871	43.7522
 238	1	11	0.099095	-40.6014	-29.6824	44.2745
 239	1	1	0.478781	-63.2098	-18.5858	29.1226
 240	1	2	0.051808	-62.0317	-17.9894	29.5939
 241	1	3	-0.015342	-61.2538	-19.0789	30.2323
 242	1	2	0.052802	-63.2383	-19.9598	29.3932
 243	1	3	0.058525	-61.9694	-20.2496	30.1133
 244	1	5	-0.381395	-61.7112	-16.8127	29.5512
 245	1	5	-0.387279	-64.1133	-20.7717	29.143
 246	1	3	-0.003007	-60.0288	-19.0254	30.907
 247	1	3	-0.04277	-61.4966	-21.4418	30.6661
 248	1	3	-0.203298	-60.2676	-21.4107	31.3582
 249	1	3	-0.057014	-59.5052	-20.2155	31.4829
 250	1	6	0.158736	-59.5315	-18.0664	30.9819
 251	1	6	0.155574	-62.0827	-22.3565	30.5849
 252	1	6	0.172835	-59.9103	-22.3338	31.8158
 253	1	7	-0.114348	-58.1656	-20.2525	32.2791
 254	1	7	0.394993	-57.2048	-19.0508	31.9315
 255	1	8	-0.128918	-57.0453	-18.9021	30.5958
 256	1	8	-0.12014	-57.6352	-17.8633	32.4095
 257	1	8	-0.128671	-55.9681	-19.2394	32.4432
 258	1	7	0.329225	-58.5458	-20.1852	33.81
 259	1	8	-0.1084	-57.4724	-20.0138	34.6163
 260	1	8	-0.10772	-59.1746	-21.3091	34.2245
 261	1	8	-0.098105	-59.4024	-19.1692	34.069
 262	1	3	-0.04356	-57.3944	-21.5473	31.8822
 263	1	3	-0.061005	-56.7791	-22.4104	32.8299
 264	1	3	-0.036586	-56.1196	-23.5594	32.3717
 265	1	3	-0.073054	-57.2796	-21.8761	30.5009
 266	1	3	-0.129461	-56.5965	-23.0269	30.0618
 267	1	3	-0.055433	-56.0309	-23.8594	31.0299
 268	1	2	0.497443	-55.2851	-25.1355	30.8825
 269	1	1	-0.091283	-54.9694	-25.5415	32.174
 270	1	2	0.442461	-55.4338	-24.6408	33.131
 271	1	3	0.056821	-54.2377	-26.7308	32.4618
 272	1	3	-0.175202	-54.6254	-27.5896	33.5065
 273	1	3	-0.086463	-53.9021	-28.7725	33.7635
 274	1	3	-0.120823	-53.1032	-27.0557	31.6936
 275	1	3	-0.147764	-52.2986	-28.178	31.9853
 276	1	3	-0.091348	-52.7848	-29.0711	32.9619
 277	1	2	0.723311	-54.2463	-29.7032	34.9022
 278	1	6	0.16273	-56.5187	-23.2714	29.0055
 279	1	6	0.144736	-57.7309	-21.2321	29.7514
 280	1	6	0.138526	-56.8069	-22.2261	33.8975
 281	1	5	-0.452878	-55.3534	-24.7171	34.345
 282	1	5	-0.478383	-55.0302	-25.6969	29.8289
 283	1	6	0.14723	-52.0451	-28.6988	31.0667
 284	1	6	0.161782	-55.4841	-27.3352	34.1239
 285	1	6	0.150279	-52.7946	-26.3834	30.8955
 286	1	6	0.142321	-52.2262	-29.9853	33.164
 287	1	5	-0.564646	-53.5436	-30.6532	35.2072
 288	1	9	-0.344773	-55.3843	-29.3882	35.5756
 289	1	7	-0.038703	-104.167	37.4082	27.4888
 290	1	10	0.090446	-16.2942	-30.5111	-103.109
 291	1	10	0.070639	-139.715	11.461	106.496
 292	1	11	0.018298	-105.036	37.5709	28.1388
 293	1	11	0.032617	-104.528	37.33	26.4558
 294	1	7	0.364059	-103.178	38.5793	27.6148
 295	1	10	-0.049335	-102.806	38.6313	28.6444
 296	1	12	-0.72623	-103.82	39.8038	27.2815
 297	1	10	0.033772	-102.324	38.4062	26.9472
 298	1	13	0.432586	-104.427	40.0109	28.0116
 299	1	1	0.478781	-66.2094	-6.91356	27.513
 300	1	2	0.051808	-67.4049	-6.99437	28.2354
 301	1	3	-0.015342	-67.0985	-7.86549	29.4028
 302	1	2	0.052802	-65.164	-7.60499	28.1356
 303	1	3	0.058525	-65.7692	-8.22909	29.3329
 304	1	5	-0.381395	-68.4945	-6.52303	27.9509
 305	1	5	-0.387279	-64.0054	-7.73639	27.7734
 306	1	3	-0.003007	-67.9445	-8.37527	30.3956
 307	1	3	-0.04277	-65.2015	-9.11714	30.2475
 308	1	3	-0.203298	-66.0354	-9.64509	31.2495
 309	1	3	-0.057014	-67.4157	-9.30812	31.3321
 310	1	6	0.158736	-68.9871	-8.07358	30.3834
 311	1	6	0.155574	-64.1591	-9.41024	30.1588
 312	1	6	0.172835	-65.6076	-10.367	31.9401
 313	1	7	-0.114348	-68.2794	-10.0464	32.3962
 314	1	7	0.394993	-67.8683	-9.45523	33.8002
 315	1	8	-0.128918	-66.6222	-9.82893	34.1717
 316	1	8	-0.12014	-68.6971	-9.83151	34.7976
 317	1	8	-0.128671	-67.8726	-8.10206	33.7857
 318	1	7	0.329225	-69.8297	-9.86843	32.1929
 319	1	8	-0.1084	-70.2549	-8.60842	32.4309
 320	1	8	-0.10772	-70.5391	-10.6812	33.0079
 321	1	8	-0.098105	-70.2069	-10.1898	30.9369
 322	1	3	-0.04356	-67.9956	-11.5711	32.2438
 323	1	3	-0.061005	-67.807	-12.1045	30.9412
 324	1	3	-0.036586	-67.4815	-13.4546	30.7937
 325	1	3	-0.073054	-67.9191	-12.4637	33.3518
 326	1	3	-0.129461	-67.6111	-13.8311	33.1775
 327	1	3	-0.055433	-67.3846	-14.2988	31.8777
 328	1	2	0.497443	-66.9581	-15.6361	31.3815
 329	1	1	-0.091283	-66.7871	-15.4878	30.0099
 330	1	2	0.442461	-67.1006	-14.2092	29.5732
 331	1	3	0.056821	-66.2295	-16.4806	29.1627
 332	1	3	-0.175202	-66.9484	-16.9748	28.0654
 333	1	3	-0.086463	-66.403	-17.9936	27.2605
 334	1	3	-0.120823	-64.925	-16.9414	29.4004
 335	1	3	-0.147764	-64.2723	-17.826	28.515
 336	1	3	-0.091348	-65.0947	-18.455	27.5446
 337	1	2	0.723311	-67.239	-18.5803	26.1424
 338	1	6	0.16273	-67.5235	-14.5033	34.03
 339	1	6	0.144736	-68.0821	-12.1126	34.3641
 340	1	6	0.138526	-67.8674	-11.4797	30.051
 341	1	5	-0.452878	-66.946	-13.7446	28.4581
 342	1	5	-0.478383	-66.7238	-16.6189	32.0636
 343	1	6	0.14723	-63.6295	-17.1839	27.9198
 344	1	6	0.161782	-67.9498	-16.6042	27.8625
 345	1	6	0.150279	-64.3806	-16.5441	30.2585
 346	1	6	0.142321	-64.6864	-19.2741	26.9574
 347	1	5	-0.564646	-68.4008	-18.2635	25.9429
 348	1	9	-0.344773	-66.5825	-19.4725	25.3523
 349	1	7	-0.038703	-67.0841	-25.5153	-98.5846
 350	1	10	0.090446	67.3959	91.158	-82.5553
 351	1	10	0.070639	-1.53745	142.948	-76.8364
 352	1	11	0.018298	-67.64	-24.6087	-98.3067
 353	1	11	0.032617	-66.2945	-25.6812	-97.8367
 354	1	7	0.364059	-68.0462	-26.7098	-98.5996
 355	1	10	-0.049335	-67.4961	-27.6246	-98.8385
 356	1	12	-0.72623	-69.0599	-26.5158	-99.5795
 357	1	10	0.033772	-68.4972	-26.8361	-97.6059
 358	1	13	0.432586	-68.5984	-26.5106	-100.435
 359	1	1	0.478781	-65.7085	7.74835	21.5857
 360	1	2	0.051808	-65.6665	7.61196	22.9721
 361	1	3	-0.015342	-65.3851	6.17813	23.2044
 362	1	2	0.052802	-65.4592	6.55404	20.9098
 363	1	3	0.058525	-65.2591	5.549	21.9823
 364	1	5	-0.381395	-65.8227	8.46607	23.8301
 365	1	5	-0.387279	-65.3995	6.35816	19.7075
 366	1	3	-0.003007	-65.2503	5.48982	24.4109
 367	1	3	-0.04277	-64.9821	4.1835	21.9
 368	1	3	-0.203298	-64.8687	3.46248	23.1075
 369	1	3	-0.057014	-65.0181	4.09168	24.3762
 370	1	6	0.158736	-65.3403	6.05113	25.334
 371	1	6	0.155574	-64.8702	3.69977	20.93
 372	1	6	0.172835	-64.6562	2.39811	23.0496
 373	1	7	-0.114348	-64.8823	3.23913	25.6675
 374	1	7	0.394993	-63.3339	3.0688	25.9154
 375	1	8	-0.128918	-63.0578	2.44622	27.0828
 376	1	8	-0.12014	-62.7343	2.36297	24.9286
 377	1	8	-0.128671	-62.6937	4.26054	25.9487
 378	1	7	0.329225	-65.5433	3.91745	26.9364
 379	1	8	-0.1084	-65.7135	3.03426	27.9463
 380	1	8	-0.10772	-64.8189	4.94088	27.4437
 381	1	8	-0.098105	-66.772	4.41419	26.6662
 382	1	3	-0.04356	-65.6407	1.89684	25.427
 383	1	3	-0.061005	-65.0654	0.619759	25.669
 384	1	3	-0.036586	-65.8292	-0.528524	25.4199
 385	1	3	-0.073054	-66.9821	1.94698	24.9508
 386	1	3	-0.129461	-67.7371	0.778469	24.7188
 387	1	3	-0.055433	-67.1272	-0.455762	24.9604
 388	1	2	0.497443	-67.6472	-1.8433	24.8062
 389	1	1	-0.091283	-66.6088	-2.68145	25.1954
 390	1	2	0.442461	-65.4795	-1.96349	25.5769
 391	1	3	0.056821	-66.6671	-4.10698	25.1768
 392	1	3	-0.175202	-67.1678	-4.79476	24.0567
 393	1	3	-0.086463	-67.2456	-6.20448	24.0602
 394	1	3	-0.120823	-66.2004	-4.8458	26.2809
 395	1	3	-0.147764	-66.1053	-6.25312	26.2454
 396	1	3	-0.091348	-66.771	-6.9057	25.186
 397	1	2	0.723311	-67.8166	-6.98204	22.8951
 398	1	6	0.16273	-68.7655	0.830488	24.3531
 399	1	6	0.144736	-67.4498	2.91055	24.7491
 400	1	6	0.138526	-64.0536	0.492536	26.043
 401	1	5	-0.452878	-64.4056	-2.39637	25.9565
 402	1	5	-0.478383	-68.75	-2.15152	24.3889
 403	1	6	0.14723	-65.0539	-6.43941	26.0522
 404	1	6	0.161782	-67.5306	-4.23485	23.197
 405	1	6	0.150279	-65.8364	-4.31153	27.1562
 406	1	6	0.142321	-66.8594	-7.99312	25.1999
 407	1	5	-0.564646	-67.8296	-8.20127	22.8575
 408	1	9	-0.344773	-68.2751	-6.21309	21.8698
 409	1	7	-0.038703	-9.72796	-18.447	-13.0059
 410	1	10	0.090446	67.4473	147.418	153.643
 411	1	10	0.070639	-145.214	63.5944	126.375
 412	1	11	0.018298	-8.78821	-18.9831	-13.1885
 413	1	11	0.032617	-10.502	-18.9046	-13.6337
 414	1	7	0.364059	-10.1237	-18.559	-11.5235
 415	1	10	-0.049335	-9.339	-18.1193	-10.8968
 416	1	12	-0.72623	-10.3135	-19.9248	-11.1689
 417	1	10	0.033772	-11.0513	-17.9947	-11.3579
 418	1	13	0.432586	-10.4322	-19.9532	-10.199
 419	1	3	-0.024347	-66.5047	17.9855	14.1266
 420	1	3	-0.071478	-66.5693	17.9613	15.5444
 421	1	3	-0.180016	-65.3466	17.9177	16.2748
 422	1	5	-0.370097	-65.7063	18.0232	11.1547
 423	1	3	0.010306	-65.2482	17.957	13.5118
 424	1	3	-0.071748	-64.0934	17.9004	15.633
 425	1	5	-0.403598	-61.749	17.9984	13.6092
 426	1	3	0.055994	-64.0777	17.9263	14.2379
 427	1	2	0.021521	-64.9051	17.9853	12.0723
 428	1	1	0.466017	-63.506	17.9782	12.0221
 429	1	2	0.096621	-62.9305	17.9596	13.2995
 430	1	3	-0.099438	-68.234	16.2796	19.8225
 431	1	7	-0.089685	-67.9123	18.0252	16.3324
 432	1	3	-0.037281	-67.8317	16.989	17.4895
 433	1	3	-0.08188	-68.3089	17.2529	18.8047
 434	1	3	-0.106561	-67.6941	15.0283	19.5042
 435	1	3	-0.037628	-67.2951	15.7045	17.2123
 436	1	3	-0.12234	-67.2326	14.7535	18.235
 437	1	7	0.388954	-68.0684	19.519	16.8222
 438	1	7	0.307788	-69.1753	17.6221	15.4784
 439	1	8	-0.129718	-69.2949	19.8023	17.3165
 440	1	8	-0.129089	-67.8581	20.3931	15.8123
 441	1	8	-0.119089	-67.1701	19.8348	17.7838
 442	1	8	-0.103894	-69.5153	18.5603	14.5637
 443	1	8	-0.097852	-70.2623	17.4286	16.2619
 444	1	8	-0.104555	-68.9838	16.4572	14.8157
 445	1	2	0.521254	-66.7305	13.3541	18.2098
 446	1	2	0.53569	-67.5165	13.8044	20.3346
 447	1	1	0.027822	-66.9306	12.858	19.4954
 448	1	5	-0.468874	-66.256	12.778	17.2461
 449	1	5	-0.477974	-67.8676	13.662	21.4944
 450	1	3	-0.359831	-66.6057	11.5248	19.916
 451	1	3	0.131035	-67.6447	10.5806	20.0909
 452	1	3	-0.120983	-67.3408	9.30733	20.634
 453	1	3	0.127261	-65.2637	11.1954	20.2181
 454	1	3	-0.127195	-64.9522	9.90142	20.6971
 455	1	3	0.144798	-65.9984	8.98486	20.9456
 456	1	7	-0.020676	-64.1572	12.2408	20.033
 457	1	7	-0.019785	-69.0935	10.9592	19.7485
 458	1	6	0.164889	-67.3865	18.0333	13.4946
 459	1	6	0.175264	-65.3639	17.9134	17.3619
 460	1	6	0.1582	-63.1633	17.8821	16.1928
 461	1	6	0.150763	-68.6039	16.4838	20.8238
 462	1	6	0.144868	-68.7537	18.2081	19.0601
 463	1	6	0.134072	-66.9386	15.4413	16.2208
 464	1	7	-0.300668	-68.4335	8.25891	20.9076
 465	1	7	-0.243237	-63.4964	9.48504	20.9667
 466	1	11	0.021835	-63.3524	12.1294	20.7684
 467	1	11	0.012312	-64.5198	13.2674	20.1603
 468	1	11	0.041777	-63.7162	12.1643	19.0313
 469	1	11	0.110598	-63.32	8.41676	20.7907
 470	1	11	0.08293	-62.7897	9.99304	20.3008
 471	1	11	0.082252	-63.2054	9.70997	22.0024
 472	1	11	0.027698	-69.6044	10.146	19.2208
 473	1	11	0.017051	-69.175	11.8257	19.0842
 474	1	11	0.037874	-69.6595	11.1882	20.66
 475	1	11	0.095908	-68.3502	7.83874	21.9181
 476	1	11	0.127068	-69.4537	8.65245	20.8444
 477	1	11	0.099095	-68.3641	7.42983	20.1911
 478	1	1	0.478781	-59.1542	25.9879	1.29349
 479	1	2	0.051808	-59.1709	25.1584	2.41467
 480	1	3	-0.015342	-59.2129	26.0768	3.58016
 481	1	2	0.052802	-59.1063	27.342	1.62758
 482	1	3	0.058525	-59.176	27.3723	3.11168
 483	1	5	-0.381395	-59.2376	23.9418	2.45395
 484	1	5	-0.387279	-59.1416	28.3082	0.881677
 485	1	3	-0.003007	-59.3769	25.7903	4.94134
 486	1	3	-0.04277	-59.2901	28.4575	3.9836
 487	1	3	-0.203298	-59.4646	28.192	5.35903
 488	1	3	-0.057014	-59.5461	26.8617	5.86098
 489	1	6	0.158736	-59.4123	24.748	5.26303
 490	1	6	0.155574	-59.2682	29.4748	3.5994
 491	1	6	0.172835	-59.5524	29.0442	6.02526
 492	1	7	-0.114348	-59.8027	26.5498	7.36877
 493	1	7	0.394993	-58.3775	26.3518	8.02431
 494	1	8	-0.128918	-57.7495	25.2554	7.53815
 495	1	8	-0.12014	-57.5547	27.3949	7.76923
 496	1	8	-0.128671	-58.4181	26.2268	9.36959
 497	1	7	0.329225	-60.5874	27.6947	8.12906
 498	1	8	-0.1084	-61.653	28.1295	7.41923
 499	1	8	-0.10772	-59.8391	28.784	8.40911
 500	1	8	-0.098105	-61.0786	27.2653	9.31393
 501	1	3	-0.04356	-60.7186	25.2896	7.44914
 502	1	3	-0.061005	-60.4196	24.1698	8.26925
 503	1	3	-0.036586	-61.2757	23.0629	8.24097
 504	1	3	-0.073054	-61.9092	25.2482	6.66605
 505	1	3	-0.129461	-62.7558	24.1206	6.65025
 506	1	3	-0.055433	-62.402	23.0295	7.44774
 507	1	2	0.497443	-63.0603	21.707	7.62853
 508	1	1	-0.091283	-62.2703	21.0172	8.54068
 509	1	2	0.442461	-61.1853	21.7717	8.96847
 510	1	3	0.056821	-62.5337	19.6851	8.97178
 511	1	3	-0.175202	-62.808	18.6805	8.02979
 512	1	3	-0.086463	-63.1283	17.3745	8.45075
 513	1	3	-0.120823	-62.5285	19.3578	10.3407
 514	1	3	-0.147764	-62.7649	18.0418	10.7966
 515	1	3	-0.091348	-63.1445	17.0887	9.82898
 516	1	2	0.723311	-63.4606	16.2813	7.46689
 517	1	6	0.16273	-63.6488	24.0906	6.03532
 518	1	6	0.144736	-62.1689	26.0902	6.03191
 519	1	6	0.138526	-59.5471	24.1252	8.9152
 520	1	5	-0.452878	-60.3229	21.4626	9.77148
 521	1	5	-0.478383	-64.0815	21.3318	7.07927
 522	1	6	0.14723	-61.8244	17.6857	11.2059
 523	1	6	0.161782	-62.809	18.9244	6.96866
 524	1	6	0.150279	-62.3077	20.1393	11.066
 525	1	6	0.142321	-63.4284	16.0869	10.1513
 526	1	5	-0.564646	-63.7556	15.1493	7.8151
 527	1	9	-0.344773	-63.3293	16.6407	6.1612
 528	1	7	-0.038703	-19.5354	-11.8801	-37.6182
 529	1	10	0.090446	-99.1244	-108.818	-160.954
 530	1	10	0.070639	63.4755	-36.9474	-23.0839
 531	1	11	0.018298	-20.3964	-11.8	-38.2946
 532	1	11	0.032617	-19.473	-10.9381	-37.0569
 533	1	7	0.364059	-19.7504	-13.0493	-36.6412
 534	1	10	-0.049335	-20.6121	-12.8316	-36.0011
 535	1	12	-0.72623	-18.5903	-13.2252	-35.8325
 536	1	10	0.033772	-19.9647	-13.9651	-37.2048
 537	1	13	0.432586	-18.5625	-12.4789	-35.2067
 538	1	3	-0.024347	-61.9506	21.2772	-11.5137
 539	1	3	-0.071478	-61.7214	21.1327	-10.1199
 540	1	3	-0.180016	-60.5372	20.469	-9.6902
 541	1	5	-0.370097	-61.6809	21.6322	-14.5898
 542	1	3	0.010306	-60.9626	20.856	-12.4086
 543	1	3	-0.071748	-59.5474	20.0637	-10.6086
 544	1	5	-0.403598	-57.6648	19.8752	-13.0713
 545	1	3	0.055994	-59.7754	20.3064	-11.9657
 546	1	2	0.021521	-60.85	21.1043	-13.8699
 547	1	1	0.466017	-59.5433	20.7487	-14.1909
 548	1	2	0.096621	-58.8375	20.2157	-13.1142
 549	1	3	-0.099438	-60.005	24.1754	-7.66168
 550	1	7	-0.089685	-62.6724	21.7362	-9.05128
 551	1	3	-0.037281	-61.776	22.4852	-8.02631
 552	1	3	-0.08188	-60.813	23.4102	-8.52216
 553	1	3	-0.106561	-60.1571	23.9854	-6.28864
 554	1	3	-0.037628	-61.8917	22.3191	-6.62104
 555	1	3	-0.12234	-61.0604	23.0731	-5.78433
 556	1	7	0.388954	-63.5113	20.5415	-8.45077
 557	1	7	0.307788	-63.6513	22.8331	-9.61945
 558	1	8	-0.129718	-64.1568	19.8454	-9.41543
 559	1	8	-0.129089	-64.4553	20.9426	-7.57139
 560	1	8	-0.119089	-62.7232	19.6523	-7.80776
 561	1	8	-0.103894	-64.243	23.5184	-8.61847
 562	1	8	-0.097852	-64.6375	22.3264	-10.3915
 563	1	8	-0.104555	-63.0164	23.7681	-10.3647
 564	1	2	0.521254	-60.9989	23.1372	-4.30025
 565	1	2	0.53569	-59.4985	24.6763	-5.15275
 566	1	1	0.027822	-60.0634	24.1308	-4.00082
 567	1	5	-0.468874	-61.7023	22.5053	-3.5288
 568	1	5	-0.477974	-58.6883	25.5827	-5.24918
 569	1	3	-0.359831	-59.8036	24.6129	-2.671
 570	1	3	0.131035	-58.5625	24.3536	-2.0408
 571	1	3	-0.120983	-58.3171	24.8469	-0.734852
 572	1	3	0.127261	-60.8119	25.3382	-1.99874
 573	1	3	-0.127195	-60.6123	25.735	-0.658832
 574	1	3	0.144798	-59.3547	25.5182	-0.0397228
 575	1	7	-0.020676	-62.1249	25.6984	-2.7067
 576	1	7	-0.019785	-57.4776	23.5628	-2.78138
 577	1	6	0.164889	-62.8278	21.7698	-11.9201
 578	1	6	0.175264	-60.3442	20.3281	-8.63048
 579	1	6	0.1582	-58.6068	19.6354	-10.2767
 580	1	6	0.150763	-59.2904	24.9005	-8.0479
 581	1	6	0.144868	-60.6867	23.5468	-9.59447
 582	1	6	0.134072	-62.6086	21.6429	-6.16803
 583	1	7	-0.300668	-56.944	24.6285	-0.0757983
 584	1	7	-0.243237	-61.7584	26.4173	0.110052
 585	1	11	0.021835	-62.0491	25.6787	-3.79898
 586	1	11	0.012312	-62.4483	26.7163	-2.4587
 587	1	11	0.041777	-62.9249	25.0063	-2.41482
 588	1	11	0.110598	-61.7418	27.5064	-0.0469813
 589	1	11	0.08293	-62.7442	26.0501	-0.199304
 590	1	11	0.082252	-61.7169	26.234	1.18812
 591	1	11	0.027698	-56.8009	24.2403	-3.31973
 592	1	11	0.017051	-57.8953	22.8558	-3.50952
 593	1	11	0.037874	-56.8736	22.9516	-2.09779
 594	1	11	0.095908	-56.8539	23.6047	0.313052
 595	1	11	0.127068	-56.1242	24.7918	-0.78804
 596	1	11	0.099095	-56.7439	25.3116	0.757591
 597	1	3	-0.024347	-51.6027	24.3216	-24.812
 598	1	3	-0.071478	-52.9441	23.9394	-24.5447
 599	1	3	-0.180016	-53.3626	22.6477	-24.9733
 600	1	5	-0.370097	-48.5831	24.4317	-25.3007
 601	1	3	0.010306	-50.745	23.3963	-25.4249
 602	1	3	-0.071748	-52.4808	21.7375	-25.5983
 603	1	5	-0.403598	-49.9221	20.1244	-26.3908
 604	1	3	0.055994	-51.154	22.1317	-25.7985
 605	1	2	0.021521	-49.2721	23.4589	-25.549
 606	1	1	0.466017	-48.8692	22.1766	-25.92
 607	1	2	0.096621	-49.9465	21.3201	-26.1424
 608	1	3	-0.099438	-53.5103	22.2911	-20.7096
 609	1	7	-0.089685	-53.9192	24.7776	-23.6623
 610	1	3	-0.037281	-54.2946	23.8549	-22.4639
 611	1	3	-0.08188	-53.2613	23.106	-21.8285
 612	1	3	-0.106561	-54.82	22.2106	-20.2342
 613	1	3	-0.037628	-55.6102	23.7586	-21.9373
 614	1	3	-0.12234	-55.8417	22.9241	-20.8307
 615	1	7	0.388954	-55.1398	25.2206	-24.5625
 616	1	7	0.307788	-53.271	26.077	-23.0485