pySIMM System Object

834 atoms
879 bonds
1528 angles
2272 dihedrals
232 impropers

13 atom types
16 bond types
30 angle types
15 dihedral types
4 improper types

-118.502465 118.502465 xlo xhi
-118.502465 118.502465 ylo yhi
-118.502465 118.502465 zlo zhi

Masses

   1	12.01	# ca
   2	16.0	# o
   3	12.01	# c
   4	14.01	# n
   5	12.01	# c3
   6	19.0	# f
   7	1.008	# ha
   8	1.008	# hn
   9	1.008	# hc
  10	16.0	# os
  11	1.008	# h1
  12	16.0	# oh
  13	1.008	# ho

Pair Coeffs

   1	0.086	3.3996695084235347	# ca
   2	0.21	2.959921901149463	# o
   3	0.086	3.3996695084235347	# c
   4	0.17	3.249998523775958	# n
   5	0.1094	3.3996695084235347	# c3
   6	0.061	3.1181455134911875	# f
   7	0.015	2.59964245953351	# ha
   8	0.0157	1.069078461768407	# hn
   9	0.0157	2.649532787749369	# hc
  10	0.17	3.0000123434657784	# os
  11	0.0157	2.471353044121301	# h1
  12	0.2104	3.0664733878390478	# oh
  13	0.0047	0.5379246460131368	# ho

Bond Coeffs

   1	403.2	1.0129	# hn,n
   2	461.1	1.3984	# ca,ca
   3	637.7	1.2183	# c,o
   4	345.8	1.086	# ca,ha
   5	300.9	1.5375	# c3,c3
   6	356.9	1.3497	# c3,f
   7	345.9	1.4906	# c,ca
   8	427.6	1.3789	# c,n
   9	384.2	1.4121	# ca,n
  10	321.0	1.5156	# c3,ca
  11	330.6	1.0969	# c3,hc
  12	330.6	1.0969	# c3,h1
  13	316.7	1.4233	# c3,oh
  14	371.4	0.973	# ho,oh
  15	308.6	1.4316	# c3,os
  16	390.8	1.3584	# c,os

Angle Coeffs

   1	66.62	120.02	# ca,ca,ca
   2	66.11	109.24	# c3,c3,f
   3	67.87	120.19	# ca,ca,n
   4	68.72	122.6	# ca,c,o
   5	48.33	117.55	# c,n,hn
   6	67.68	115.25	# ca,c,n
   7	63.15	112.07	# c3,c3,ca
   8	63.82	123.71	# c,n,ca
   9	46.8	110.47	# ca,c3,hc
  10	63.53	120.77	# c3,ca,ca
  11	39.4	107.58	# hc,c3,hc
  12	48.18	119.88	# ca,ca,ha
  13	70.89	107.36	# f,c3,f
  14	64.28	120.33	# c,ca,ca
  15	63.74	127.08	# c,n,c
  16	62.86	111.51	# c3,c3,c3
  17	63.56	112.24	# ca,c3,ca
  18	74.22	123.05	# n,c,o
  19	68.0	107.97	# c3,c3,os
  20	46.39	109.56	# c3,c3,h1
  21	75.32	123.25	# o,c,os
  22	46.34	109.8	# c3,c3,hc
  23	67.47	110.19	# c3,c3,oh
  24	47.38	107.26	# c3,oh,ho
  25	39.24	108.46	# h1,c3,h1
  26	69.32	112.44	# ca,c,os
  27	50.93	110.26	# h1,c3,oh
  28	50.8	109.78	# h1,c3,os
  29	63.28	115.98	# c,os,c3
  30	49.75	116.02	# ha,ca,n

Dihedral Coeffs

   1	1	2.5	2	180	# X,c,n,X
   2	1	0.45	2	180	# X,ca,n,X
   3	1	1.0	2	180	# X,c,ca,X
   4	2	2.5	2	180	2.0	1	0	# hn,n,c,o
   5	1	3.625	2	180	# X,ca,ca,X
   6	1	0.15555555555555556	3	0	# X,c3,c3,X
   7	1	0.0	2	0	# X,c3,ca,X
   8	2	0.0	3	0	0.25	1	0	# hc,c3,c3,os
   9	2	0.0	3	0	0.25	1	0	# hc,c3,c3,oh
  10	2	2.7	2	180	1.4	1	180	# o,c,os,c3
  11	2	0.16	3	0	0.25	1	0	# ho,oh,c3,c3
  12	2	0.383	3	0	0.8	1	180	# c3,c3,os,c
  13	1	2.7	2	180	# X,c,os,X
  14	1	0.3833333333333333	3	0	# X,c3,os,X
  15	1	0.16666666666666666	3	0	# X,c3,oh,X

Improper Coeffs

   1	10.5	-1	2	# c,X,X,o
   2	1.1	-1	2	# n,X,X,hn
   3	1.1	-1	2	# ca,ca,ca,c3
   4	1.1	-1	2	# ca,X,X,ha

Atoms

   1	1	1	-0.024347	7.7562	-6.56535	-15.0043
   2	1	1	-0.071478	7.78974	-7.19148	-13.7404
   3	1	1	-0.180016	6.99874	-6.64365	-12.7136
   4	1	2	-0.370097	7.31468	-4.63898	-17.42
   5	1	1	0.010306	6.94275	-5.42696	-15.1788
   6	1	1	-0.071748	6.20002	-5.51495	-12.8808
   7	1	2	-0.403598	5.08975	-2.94884	-13.7501
   8	1	1	0.055994	6.20025	-4.95281	-14.1411
   9	1	3	0.021521	6.72913	-4.56046	-16.349
  10	1	4	0.466017	5.87816	-3.54245	-15.8926
  11	1	3	0.096621	5.50253	-3.73768	-14.5755
  12	1	1	-0.099438	5.36903	-10.6702	-13.7457
  13	1	5	-0.089685	8.56349	-8.53595	-13.4495
  14	1	1	-0.037281	7.52298	-9.62514	-13.0928
  15	1	1	-0.08188	6.41624	-9.74842	-13.9765
  16	1	1	-0.106561	5.48183	-11.4846	-12.6
  17	1	1	-0.037628	7.62427	-10.4972	-11.9681
  18	1	1	-0.12234	6.55664	-11.3747	-11.7316
  19	1	5	0.388954	9.35288	-9.13616	-14.6649
  20	1	5	0.307788	9.55163	-8.19585	-12.2693
  21	1	6	-0.129718	9.88734	-10.3447	-14.3591
  22	1	6	-0.129089	8.62249	-9.35323	-15.7639
  23	1	6	-0.119089	10.3322	-8.29375	-15.0695
  24	1	6	-0.103894	10.3186	-9.22574	-11.972
  25	1	6	-0.097852	8.93258	-7.83989	-11.1371
  26	1	6	-0.104555	10.3611	-7.15999	-12.5821
  27	1	3	0.521254	6.39352	-12.3842	-10.6484
  28	1	3	0.53569	4.63676	-12.6529	-12.1589
  29	1	4	0.027822	5.27087	-13.1252	-11.0057
  30	1	2	-0.468874	7.07088	-12.4387	-9.62735
  31	1	2	-0.477974	3.52799	-12.9763	-12.5786
  32	1	1	-0.359831	4.56104	-14.0515	-10.1582
  33	1	1	0.131035	4.76638	-15.4412	-10.2943
  34	1	1	-0.120983	3.92758	-16.3772	-9.65976
  35	1	1	0.127261	3.61263	-13.6142	-9.2053
  36	1	1	-0.127195	2.98334	-14.5449	-8.39119
  37	1	1	0.144798	3.11384	-15.8977	-8.65275
  38	1	5	-0.020676	3.325	-12.1831	-8.96142
  39	1	5	-0.019785	5.86141	-15.9522	-11.2298
  40	1	7	0.164889	8.36201	-6.94813	-15.8646
  41	1	7	0.175264	6.90425	-7.14836	-11.7844
  42	1	7	0.1582	5.58575	-5.12358	-12.0822
  43	1	7	0.150763	4.5259	-10.7766	-14.4261
  44	1	7	0.144868	6.37254	-9.08983	-14.8387
  45	1	7	0.134072	8.50055	-10.5446	-11.3344
  46	1	5	-0.300668	3.7894	-17.8467	-10.077
  47	1	5	-0.243237	2.16269	-14.1737	-7.15261
  48	1	9	0.021835	2.25181	-12.0941	-8.70791
  49	1	9	0.012312	3.52137	-11.5708	-9.8614
  50	1	9	0.041777	3.91699	-11.7963	-8.11656
  51	1	9	0.110598	2.49052	-13.2256	-6.70486
  52	1	9	0.08293	1.08154	-14.0257	-7.39324
  53	1	9	0.082252	2.2108	-14.9585	-6.38648
  54	1	9	0.027698	5.47749	-16.1825	-12.2293
  55	1	9	0.017051	6.31418	-16.8602	-10.8371
  56	1	9	0.037874	6.67836	-15.2402	-11.262
  57	1	9	0.095908	4.37846	-18.4197	-9.34692
  58	1	9	0.127068	2.77287	-18.2662	-10.0059
  59	1	9	0.099095	4.14962	-18.0383	-11.0998
  60	1	4	0.478781	10.4592	2.12	-24.4442
  61	1	3	0.051808	9.60679	1.3832	-25.2524
  62	1	1	-0.015342	8.21545	1.81851	-24.8798
  63	1	3	0.052802	9.76603	3.01751	-23.5994
  64	1	1	0.058525	8.32436	2.81973	-23.9368
  65	1	2	-0.381395	9.8755	0.479528	-26.0357
  66	1	2	-0.387279	10.2006	3.8159	-22.7913
  67	1	1	-0.003007	6.98352	1.36223	-25.3606
  68	1	1	-0.04277	7.20257	3.40088	-23.3959
  69	1	1	-0.203298	5.94576	2.99012	-23.8732
  70	1	1	-0.057014	5.79524	1.99591	-24.8868
  71	1	7	0.158736	7.04089	0.617414	-26.1509
  72	1	7	0.155574	7.32597	4.13449	-22.6112
  73	1	7	0.172835	5.0804	3.45819	-23.4057
  74	1	5	-0.114348	4.32774	1.58924	-25.241
  75	1	5	0.394993	4.21987	0.416124	-26.2979
  76	1	6	-0.128918	5.14335	-0.565037	-26.0547
  77	1	6	-0.12014	3.05059	-0.224315	-26.1854
  78	1	6	-0.128671	4.26247	0.778602	-27.6023
  79	1	5	0.329225	3.572	2.81012	-25.9073
  80	1	6	-0.1084	3.41955	3.8856	-25.1639
  81	1	6	-0.10772	2.32911	2.47136	-26.2564
  82	1	6	-0.098105	4.18326	3.2416	-27.0195
  83	1	1	-0.04356	3.83552	1.08436	-23.8537
  84	1	1	-0.061005	4.55488	0.0510291	-23.1659
  85	1	1	-0.036586	4.18492	-0.324173	-21.8491
  86	1	1	-0.073054	2.80031	1.71764	-23.1173
  87	1	1	-0.129461	2.43341	1.32351	-21.7916
  88	1	1	-0.055433	3.14791	0.283247	-21.1692
  89	1	3	0.497443	3.21837	-0.133386	-19.7231
  90	1	4	-0.091283	4.37538	-0.889807	-19.6693
  91	1	3	0.442461	4.89989	-1.20812	-20.9078
  92	1	1	0.056821	5.12546	-1.03876	-18.4887
  93	1	1	-0.175202	5.7137	0.0775792	-17.9125
  94	1	1	-0.086463	6.50328	-0.0471097	-16.7533
  95	1	1	-0.120823	5.25605	-2.25442	-17.8352
  96	1	1	-0.147764	5.71839	-2.283	-16.4995
  97	1	1	-0.091348	6.62307	-1.28725	-16.1403
  98	1	3	0.723311	7.08346	1.15883	-16.0653
  99	1	7	0.16273	1.61239	1.79111	-21.2606
 100	1	7	0.144736	2.24995	2.53911	-23.5694
 101	1	7	0.138526	5.40867	-0.438589	-23.6258
 102	1	2	-0.452878	5.88439	-1.84772	-21.2019
 103	1	2	-0.478383	2.5966	0.328496	-18.7789
 104	1	7	0.14723	4.88341	-1.87385	-15.959
 105	1	7	0.161782	5.60325	1.05174	-18.3896
 106	1	7	0.150279	4.82141	-3.14497	-18.2873
 107	1	7	0.142321	7.20531	-1.42244	-15.222
 108	1	2	-0.564646	7.1038	2.25434	-16.5847
 109	1	10	-0.344773	7.45408	0.91105	-14.7692
 110	1	5	-0.038703	7.77033	0.785065	81.2818
 111	1	11	0.090446	-32.2858	-111.465	76.9932
 112	1	11	0.070639	73.9719	83.0545	30.8157
 113	1	9	0.018298	8.47343	1.43345	81.8183
 114	1	9	0.032617	6.86357	0.68879	81.8912
 115	1	5	0.364059	7.42258	1.38989	79.9093
 116	1	11	-0.049335	8.33877	1.49973	79.3174
 117	1	12	-0.72623	6.80388	2.65976	80.072
 118	1	11	0.033772	6.74944	0.707292	79.3741
 119	1	13	0.432586	7.49438	3.27197	80.3802
 120	1	4	0.478781	15.2288	-7.45039	-14.4707
 121	1	3	0.051808	16.4101	-6.73783	-14.5974
 122	1	1	-0.015342	16.2508	-5.82618	-15.772
 123	1	3	0.052802	14.3799	-7.25276	-15.5311
 124	1	1	0.058525	14.996	-6.14554	-16.293
 125	1	2	-0.381395	17.4612	-6.9851	-14.0216
 126	1	2	-0.387279	13.2822	-7.73172	-15.6721
 127	1	1	-0.003007	16.9894	-4.71582	-16.1888
 128	1	1	-0.04277	14.4157	-5.4009	-17.3518
 129	1	1	-0.203298	15.0945	-4.20383	-17.6783
 130	1	1	-0.057014	16.3834	-3.8406	-17.1441
 131	1	7	0.158736	17.9389	-4.47416	-15.7031
 132	1	7	0.155574	13.4606	-5.65908	-17.8069
 133	1	7	0.172835	14.6098	-3.54279	-18.3725
 134	1	5	-0.114348	17.1216	-2.54932	-17.636
 135	1	5	0.394993	18.6917	-2.74276	-17.8431
 136	1	6	-0.128918	19.2331	-1.71712	-18.5901
 137	1	6	-0.12014	18.9801	-3.84322	-18.5651
 138	1	6	-0.128671	19.3781	-2.83239	-16.6527
 139	1	5	0.329225	16.9389	-1.46167	-16.5011
 140	1	6	-0.1084	15.6772	-0.944698	-16.3886
 141	1	6	-0.10772	17.7722	-0.413929	-16.6947
 142	1	6	-0.098105	17.2695	-1.96299	-15.2829
 143	1	1	-0.04356	16.6004	-2.00745	-19.0191
 144	1	1	-0.061005	16.2543	-0.649299	-19.3497
 145	1	1	-0.036586	15.7028	-0.373364	-20.6296
 146	1	1	-0.073054	16.4255	-3.02454	-20.002
 147	1	1	-0.129461	15.7877	-2.73999	-21.219
 148	1	1	-0.055433	15.4319	-1.39716	-21.5068
 149	1	3	0.497443	14.6853	-0.77618	-22.6321
 150	1	4	-0.091283	14.6125	0.597636	-22.409
 151	1	3	0.442461	15.2384	0.955094	-21.2062
 152	1	1	0.056821	13.9192	1.42566	-23.3242
 153	1	1	-0.175202	14.622	2.26808	-24.1788
 154	1	1	-0.086463	13.9281	3.15992	-25.0442
 155	1	1	-0.120823	12.5154	1.35785	-23.4448
 156	1	1	-0.147764	11.871	2.01053	-24.5242
 157	1	1	-0.091348	12.5376	3.15946	-25.0554
 158	1	3	0.723311	14.6384	4.20407	-25.8821
 159	1	7	0.16273	15.5591	-3.54292	-21.9258
 160	1	7	0.144736	16.7291	-4.0474	-19.8145
 161	1	7	0.138526	16.3972	0.165114	-18.6564
 162	1	2	-0.452878	15.2948	2.05291	-20.6472
 163	1	2	-0.478383	14.1642	-1.36405	-23.5598
 164	1	7	0.14723	12.0221	1.27806	-25.2817
 165	1	7	0.161782	15.7203	2.32991	-24.0647
 166	1	7	0.150279	11.9556	0.698315	-22.7929
 167	1	7	0.142321	11.9748	3.90748	-25.628
 168	1	2	-0.564646	14.0757	5.01105	-26.6263
 169	1	10	-0.344773	15.9793	3.94924	-25.9555
 170	1	5	-0.038703	-76.7036	61.8103	-104.005
 171	1	11	0.090446	20.8834	112.316	16.0594
 172	1	11	0.070639	-72.3407	-25.5949	-115.826
 173	1	9	0.018298	-77.1389	62.0117	-104.992
 174	1	9	0.032617	-76.9858	62.6349	-103.339
 175	1	5	0.364059	-77.2381	60.4787	-103.451
 176	1	11	-0.049335	-76.9544	59.6654	-104.129
 177	1	12	-0.72623	-78.6559	60.5285	-103.337
 178	1	11	0.033772	-76.785	60.2845	-102.47
 179	1	13	0.432586	-79.0122	60.503	-104.243
 180	1	1	-0.024347	9.38719	-8.90179	-4.06618
 181	1	1	-0.071478	10.4403	-9.46754	-3.28444
 182	1	1	-0.180016	10.1019	-9.94348	-1.96851
 183	1	2	-0.370097	6.81422	-8.817	-5.68751
 184	1	1	0.010306	8.07428	-9.18373	-3.6799
 185	1	1	-0.071748	8.74137	-10.0589	-1.53583
 186	1	2	-0.403598	5.65797	-10.6552	-1.64639
 187	1	1	0.055994	7.74375	-9.77969	-2.49418
 188	1	3	0.021521	6.85586	-9.22544	-4.55278
 189	1	4	0.466017	5.9068	-10.009	-3.90705
 190	1	3	0.096621	6.3221	-10.2306	-2.57486
 191	1	1	-0.099438	11.0353	-11.0694	-7.13412
 192	1	5	-0.089685	11.9293	-9.27614	-3.77922
 193	1	1	-0.037281	12.038	-9.86605	-5.21349
 194	1	1	-0.08188	11.1205	-10.8281	-5.74347
 195	1	1	-0.106561	12.0257	-10.52	-7.93268
 196	1	1	-0.037628	13.0671	-9.41242	-6.06073
 197	1	1	-0.12234	13.0312	-9.75362	-7.40904
 198	1	5	0.388954	12.1562	-7.73779	-3.75882
 199	1	5	0.307788	13.0153	-9.96936	-2.9361
 200	1	6	-0.129718	13.4453	-7.3119	-3.79561
 201	1	6	-0.129089	11.5666	-7.16495	-2.68783
 202	1	6	-0.119089	11.5467	-7.18665	-4.83524
 203	1	6	-0.103894	12.729	-11.2843	-2.80298
 204	1	6	-0.097852	13.1738	-9.40433	-1.73767
 205	1	6	-0.104555	14.2577	-9.99868	-3.50365
 206	1	3	0.521254	13.8478	-9.19374	-8.50232
 207	1	3	0.53569	12.1138	-10.3633	-9.3954
 208	1	4	0.027822	13.206	-9.52244	-9.67761
 209	1	2	-0.468874	14.8545	-8.52164	-8.39303
 210	1	2	-0.477974	11.3822	-10.9665	-10.1461
 211	1	1	-0.359831	13.5954	-9.05612	-10.9755
 212	1	1	0.131035	13.3445	-7.68021	-11.3048
 213	1	1	-0.120983	13.9538	-7.1102	-12.4547
 214	1	1	0.127261	14.419	-9.84368	-11.7735
 215	1	1	-0.127195	15.0099	-9.29819	-12.9151
 216	1	1	0.144798	14.7143	-7.96654	-13.2704
 217	1	5	-0.020676	14.8071	-11.2682	-11.3244
 218	1	5	-0.019785	12.42	-6.83188	-10.3928
 219	1	7	0.164889	9.56314	-8.51598	-5.06327
 220	1	7	0.175264	10.9031	-10.2162	-1.27275
 221	1	7	0.1582	8.46518	-10.4191	-0.546532
 222	1	7	0.150763	10.176	-11.5869	-7.6034
 223	1	7	0.144868	10.3673	-11.2356	-5.11404
 224	1	7	0.134072	13.8535	-8.72302	-5.72658
 225	1	5	-0.300668	13.909	-5.59384	-12.8366
 226	1	5	-0.243237	15.9083	-10.1996	-13.7768
 227	1	9	0.021835	15.8268	-11.5918	-11.5901
 228	1	9	0.012312	14.0772	-11.9618	-11.7426
 229	1	9	0.041777	14.8336	-11.3657	-10.2454
 230	1	9	0.110598	15.293	-10.8613	-14.3836
 231	1	9	0.08293	16.5388	-9.6371	-14.4953
 232	1	9	0.082252	16.7051	-10.7698	-13.2651
 233	1	9	0.027698	11.8567	-6.06765	-10.9264
 234	1	9	0.017051	13.011	-6.28413	-9.6628
 235	1	9	0.037874	11.6328	-7.45715	-9.88907
 236	1	9	0.095908	14.9329	-5.16958	-12.848
 237	1	9	0.127068	13.3911	-5.50528	-13.8181
 238	1	9	0.099095	13.3179	-4.97412	-12.1628
 239	1	4	0.478781	9.43662	-14.8131	-14.8019
 240	1	3	0.051808	9.00556	-14.5095	-13.5021
 241	1	1	-0.015342	10.0313	-15.1576	-12.5995
 242	1	3	0.052802	10.5375	-15.6584	-14.8358
 243	1	1	0.058525	10.9143	-15.8605	-13.4
 244	1	2	-0.381395	8.02818	-13.8558	-13.1167
 245	1	2	-0.387279	11.0358	-16.2143	-15.801
 246	1	1	-0.003007	10.1502	-15.1978	-11.2346
 247	1	1	-0.04277	11.9202	-16.6327	-12.851
 248	1	1	-0.203298	12.0112	-16.7285	-11.4521
 249	1	1	-0.057014	11.1513	-15.9866	-10.6386
 250	1	7	0.158736	9.43836	-14.5975	-10.6584
 251	1	7	0.155574	12.5461	-17.2475	-13.5092
 252	1	7	0.172835	12.8085	-17.3479	-11.0779
 253	1	5	-0.114348	11.3032	-16.0188	-9.10161
 254	1	5	0.394993	11.9879	-17.3639	-8.62098
 255	1	6	-0.128918	11.4822	-18.4546	-9.25562
 256	1	6	-0.12014	13.3132	-17.352	-8.84957
 257	1	6	-0.128671	11.7527	-17.5585	-7.33121
 258	1	5	0.329225	12.2978	-14.7911	-8.79659
 259	1	6	-0.1084	13.402	-14.9041	-9.59312
 260	1	6	-0.10772	12.6254	-14.7433	-7.48922
 261	1	6	-0.098105	11.7624	-13.6322	-9.20453
 262	1	1	-0.04356	9.87246	-15.8509	-8.52412
 263	1	1	-0.061005	9.56253	-14.7863	-7.64976
 264	1	1	-0.036586	8.3073	-14.7322	-7.06393
 265	1	1	-0.073054	8.85408	-16.8167	-8.79839
 266	1	1	-0.129461	7.59769	-16.7197	-8.17025
 267	1	1	-0.055433	7.34913	-15.6859	-7.27456
 268	1	3	0.497443	6.17225	-15.307	-6.50426
 269	1	4	-0.091283	6.50295	-14.1307	-5.88537
 270	1	3	0.442461	7.81951	-13.7485	-6.12867
 271	1	1	0.056821	5.61376	-13.2288	-5.23848
 272	1	1	-0.175202	4.65916	-13.7504	-4.32327
 273	1	1	-0.086463	3.8578	-12.8794	-3.60017
 274	1	1	-0.120823	5.77621	-11.8276	-5.3776
 275	1	1	-0.147764	5.0346	-10.9191	-4.59106
 276	1	1	-0.091348	3.99624	-11.4835	-3.81394
 277	1	3	0.723311	2.8571	-13.4652	-2.61657
 278	1	7	0.16273	6.83981	-17.4804	-8.38023
 279	1	7	0.144736	9.06764	-17.6479	-9.45706
 280	1	7	0.138526	10.3007	-13.9984	-7.43304
 281	1	2	-0.452878	8.56351	-12.9204	-5.60045
 282	1	2	-0.478383	5.14004	-15.9523	-6.52347
 283	1	7	0.14723	4.61447	-10.123	-5.2221
 284	1	7	0.161782	4.55639	-14.8352	-4.1222
 285	1	7	0.150279	6.51573	-11.4735	-6.0691
 286	1	7	0.142321	3.41653	-10.8013	-3.15585
 287	1	2	-0.564646	3.06438	-14.4285	-1.84862
 288	1	10	-0.344773	1.63434	-13.0093	-2.94217
 289	1	5	-0.038703	-57.7994	54.7028	69.2297
 290	1	11	0.090446	4.72239	37.595	-56.057
 291	1	11	0.070639	-1.1211	-55.0855	82.5297
 292	1	9	0.018298	-57.4739	55.713	69.5054
 293	1	9	0.032617	-58.8161	54.5585	69.6144
 294	1	5	0.364059	-57.7829	54.5358	67.7008
 295	1	11	-0.049335	-56.7588	54.6596	67.3304
 296	1	12	-0.72623	-58.6224	55.5096	67.0987
 297	1	11	0.033772	-58.1217	53.5251	67.4387
 298	1	13	0.432586	-58.4871	55.4381	66.1358
 299	1	1	-0.024347	1.65867	-7.95807	-20.1488
 300	1	1	-0.071478	2.72335	-8.13628	-21.0196
 301	1	1	-0.180016	3.97937	-7.6036	-20.6622
 302	1	2	-0.370097	-0.16138	-7.92659	-17.5988
 303	1	1	0.010306	1.90746	-7.5626	-18.8193
 304	1	1	-0.071748	4.19961	-7.08978	-19.3545
 305	1	2	-0.403598	4.08404	-6.53313	-16.2623
 306	1	1	0.055994	3.16054	-7.18868	-18.4255
 307	1	3	0.021521	1.00712	-7.51356	-17.6438
 308	1	4	0.466017	1.82247	-7.04954	-16.6098
 309	1	3	0.096621	3.14923	-6.83221	-16.9837
 310	1	1	-0.099438	5.4587	-11.9328	-22.5657
 311	1	5	-0.089685	2.6813	-9.12185	-22.2338
 312	1	1	-0.037281	3.7646	-10.1774	-21.9204
 313	1	1	-0.08188	4.46113	-10.9408	-22.9118
 314	1	1	-0.106561	5.69818	-12.2075	-21.2059
 315	1	1	-0.037628	4.0962	-10.5018	-20.5375
 316	1	1	-0.12234	4.99985	-11.477	-20.2346
 317	1	5	0.388954	2.81892	-8.28753	-23.5615
 318	1	5	0.307788	1.33937	-9.98914	-22.3729
 319	1	6	-0.129718	2.54307	-9.01452	-24.6461
 320	1	6	-0.129089	4.00128	-7.75169	-23.8808
 321	1	6	-0.119089	1.95558	-7.22542	-23.5541
 322	1	6	-0.103894	1.61416	-11.0339	-23.1259
 323	1	6	-0.097852	0.25329	-9.39842	-23.0151
 324	1	6	-0.104555	0.811507	-10.5845	-21.2481
 325	1	3	0.521254	5.51606	-11.8837	-18.9141
 326	1	3	0.53569	6.74969	-13.0286	-20.5516
 327	1	4	0.027822	6.57814	-12.7735	-19.1815
 328	1	2	-0.468874	5.20376	-11.3872	-17.8358
 329	1	2	-0.477974	7.57398	-13.7539	-21.1377
 330	1	1	-0.359831	7.33035	-13.3273	-18.1329
 331	1	1	0.131035	8.71892	-12.9462	-17.9253
 332	1	1	-0.120983	9.37439	-13.4123	-16.7664
 333	1	1	0.127261	6.73829	-14.2896	-17.2391
 334	1	1	-0.127195	7.49922	-14.9244	-16.2089
 335	1	1	0.144798	8.79204	-14.4119	-15.9782
 336	1	5	-0.020676	5.26726	-14.6631	-17.4774
 337	1	5	-0.019785	9.50789	-12.0412	-18.8854
 338	1	7	0.164889	0.655528	-8.3264	-20.3411
 339	1	7	0.175264	4.79722	-7.67249	-21.35
 340	1	7	0.1582	5.15701	-6.71435	-19.0408
 341	1	7	0.150763	6.06781	-12.4583	-23.3086
 342	1	7	0.144868	4.24299	-10.7153	-23.9203
 343	1	7	0.134072	3.53532	-10.0101	-19.707
 344	1	5	-0.300668	10.7557	-12.7842	-16.4619
 345	1	5	-0.243237	6.85724	-15.9881	-15.2468
 346	1	9	0.021835	4.95898	-14.6188	-18.5451
 347	1	9	0.012312	4.61205	-14.0003	-16.9095
 348	1	9	0.041777	5.05847	-15.7024	-17.172
 349	1	9	0.110598	7.57671	-16.3867	-14.4817
 350	1	9	0.08293	6.00986	-15.5548	-14.7062
 351	1	9	0.082252	6.54814	-16.9	-15.8123
 352	1	9	0.027698	10.5939	-12.2341	-18.971
 353	1	9	0.017051	9.41426	-11.0084	-18.4936
 354	1	9	0.037874	9.18759	-12.1369	-19.909
 355	1	9	0.095908	11.4501	-12.9489	-17.3035
 356	1	9	0.127068	10.5886	-11.6771	-16.3877
 357	1	9	0.099095	11.2158	-13.0459	-15.496
 358	1	1	-0.024347	9.42568	-4.04999	-7.87946
 359	1	1	-0.071478	8.17014	-4.40049	-8.38579
 360	1	1	-0.180016	7.97328	-4.35534	-9.79115
 361	1	2	-0.370097	12.1656	-2.99474	-7.22454
 362	1	1	0.010306	10.4342	-3.69911	-8.70461
 363	1	1	-0.071748	9.07118	-4.08083	-10.661
 364	1	2	-0.403598	11.6233	-3.22064	-11.8585
 365	1	1	0.055994	10.2986	-3.7984	-10.0536
 366	1	3	0.021521	11.7497	-3.11767	-8.35907
 367	1	4	0.466017	12.3632	-2.78842	-9.56912
 368	1	3	0.096621	11.5161	-3.20566	-10.6452
 369	1	1	-0.099438	5.84846	-7.67169	-9.62974
 370	1	5	-0.089685	6.94824	-4.66455	-7.43476
 371	1	1	-0.037281	6.01628	-5.68007	-8.16784
 372	1	1	-0.08188	6.62789	-6.81896	-8.82203
 373	1	1	-0.106561	4.57344	-7.29738	-10.0182
 374	1	1	-0.037628	4.61941	-5.42415	-8.4953
 375	1	1	-0.12234	3.95411	-6.2749	-9.40277
 376	1	5	0.388954	7.40513	-5.20496	-6.01942
 377	1	5	0.307788	6.2724	-3.28526	-7.19414
 378	1	6	-0.129718	8.06167	-4.36323	-5.22352
 379	1	6	-0.129089	6.31276	-5.6399	-5.37722
 380	1	6	-0.119089	8.22862	-6.21829	-6.18901
 381	1	6	-0.103894	5.72011	-2.71113	-8.31586
 382	1	6	-0.097852	5.31418	-3.23822	-6.24283
 383	1	6	-0.104555	7.14694	-2.32379	-6.74724
 384	1	3	0.521254	2.60285	-6.11735	-10.087
 385	1	3	0.53569	3.77146	-7.67276	-11.2218
 386	1	4	0.027822	2.63351	-6.90495	-11.2525
 387	1	2	-0.468874	1.66298	-5.43926	-9.68528
 388	1	2	-0.477974	4.16188	-8.46599	-12.0526
 389	1	1	-0.359831	1.8867	-6.80751	-12.497
 390	1	1	0.131035	1.89437	-5.59242	-13.2321
 391	1	1	-0.120983	1.63336	-5.63087	-14.6323
 392	1	1	0.127261	1.34011	-7.97085	-13.0573
 393	1	1	-0.127195	1.29478	-8.07535	-14.4469
 394	1	1	0.144798	1.44076	-6.92017	-15.2289
 395	1	5	-0.020676	1.00814	-9.18492	-12.19
 396	1	5	-0.019785	2.3145	-4.25172	-12.5319
 397	1	7	0.164889	9.61699	-3.95279	-6.82259
 398	1	7	0.175264	6.97012	-4.4109	-10.2044
 399	1	7	0.1582	8.98039	-4.08738	-11.7644
 400	1	7	0.150763	6.38184	-8.46665	-10.1654
 401	1	7	0.144868	7.67768	-7.05478	-8.62623
 402	1	7	0.134072	4.09376	-4.53428	-8.17726
 403	1	5	-0.300668	1.4634	-4.43684	-15.5725
 404	1	5	-0.243237	1.14338	-9.51335	-15.1177
 405	1	9	0.021835	0.0445986	-9.65582	-12.4887
 406	1	9	0.012312	0.92618	-8.91127	-11.1043
 407	1	9	0.041777	1.89724	-9.87409	-12.2944
 408	1	9	0.110598	1.21674	-10.3682	-14.3951
 409	1	9	0.08293	0.157493	-9.60902	-15.5775
 410	1	9	0.082252	1.89467	-9.7916	-15.8538
 411	1	9	0.027698	2.68388	-3.51144	-13.2131
 412	1	9	0.017051	3.19756	-4.40465	-11.9248
 413	1	9	0.037874	1.57908	-3.87044	-11.8164
 414	1	9	0.095908	0.815528	-4.70655	-16.4745
 415	1	9	0.127068	0.87911	-3.64753	-15.0773
 416	1	9	0.099095	2.3969	-3.97291	-15.8896
 417	1	4	0.478781	6.39332	2.96582	2.32931
 418	1	3	0.051808	6.50264	1.62334	1.86441
 419	1	1	-0.015342	7.18922	1.69881	0.495701
 420	1	3	0.052802	6.827	3.86007	1.3071
 421	1	1	0.058525	7.43858	3.01674	0.269015
 422	1	2	-0.381395	5.9114	0.615746	2.29942
 423	1	2	-0.387279	6.63101	5.08349	1.21646
 424	1	1	-0.003007	7.47587	0.717908	-0.519282
 425	1	1	-0.04277	8.08724	3.39744	-0.89325
 426	1	1	-0.203298	8.47268	2.4641	-1.85726
 427	1	1	-0.057014	8.16446	1.0795	-1.73004
 428	1	7	0.158736	7.15519	-0.293779	-0.360527
 429	1	7	0.155574	8.32171	4.45262	-1.06703
 430	1	7	0.172835	8.83308	2.9446	-2.75549
 431	1	5	-0.114348	8.40183	-0.00836284	-2.84855
 432	1	5	0.394993	8.89777	-1.32139	-2.1831
 433	1	6	-0.128918	9.25499	-2.21736	-3.07494
 434	1	6	-0.12014	7.93936	-1.93146	-1.45975
 435	1	6	-0.128671	9.95716	-1.15764	-1.44232
 436	1	5	0.329225	6.98599	-0.232623	-3.59867
 437	1	6	-0.1084	5.98113	-0.437687	-2.6572
 438	1	6	-0.10772	6.91704	-1.39223	-4.31458
 439	1	6	-0.098105	6.74219	0.801842	-4.50266
 440	1	1	-0.04356	9.56111	0.407836	-3.7882
 441	1	1	-0.061005	9.47239	0.096677	-5.14023
 442	1	1	-0.036586	10.601	0.307196	-5.90048
 443	1	1	-0.073054	10.7172	1.08788	-3.29478
 444	1	1	-0.129461	11.7183	1.52633	-4.177
 445	1	1	-0.055433	11.6616	1.06157	-5.4892
 446	1	3	0.497443	12.6285	1.1637	-6.56499
 447	1	4	-0.091283	12.0824	0.431616	-7.62401
 448	1	3	0.442461	10.8106	-0.0593082	-7.30605
 449	1	1	0.056821	12.7851	0.025317	-8.76571
 450	1	1	-0.175202	12.3854	0.367521	-10.0744
 451	1	1	-0.086463	12.9534	-0.270073	-11.2026
 452	1	1	-0.120823	13.6064	-1.13704	-8.61513
 453	1	1	-0.147764	13.6083	-2.06981	-9.68529
 454	1	1	-0.091348	13.6265	-1.45893	-10.9671
 455	1	3	0.723311	12.7898	0.264732	-12.5987
 456	1	7	0.16273	12.4682	2.2507	-3.85614
 457	1	7	0.144736	10.8369	1.28653	-2.24425
 458	1	7	0.138526	8.59378	-0.367182	-5.59132
 459	1	2	-0.452878	10.0253	-0.721203	-7.97527
 460	1	2	-0.478383	13.7101	1.72267	-6.5073
 461	1	7	0.14723	14.3947	-2.83373	-9.57504
 462	1	7	0.161782	11.6679	1.15398	-10.2132
 463	1	7	0.150279	13.9665	-1.42547	-7.62977
 464	1	7	0.142321	14.0069	-1.96281	-11.8065
 465	1	2	-0.564646	13.0893	-0.276571	-13.6375
 466	1	10	-0.344773	12.0626	1.41651	-12.5685
 467	1	5	-0.038703	-111.135	-97.6259	118.314
 468	1	11	0.090446	-72.7527	-11.5173	50.7762
 469	1	11	0.070639	-34.8135	1.20709	26.029
 470	1	9	0.018298	-110.201	-98.024	-118.275
 471	1	9	0.032617	-110.901	-96.6777	117.814
 472	1	5	0.364059	-111.754	-98.6343	117.311
 473	1	11	-0.049335	-111.846	-99.6212	117.781
 474	1	12	-0.72623	-110.932	-98.7439	116.168
 475	1	11	0.033772	-112.759	-98.3013	117.018
 476	1	13	0.432586	-111.302	-99.4634	115.631
 477	1	4	0.478781	9.8215	-3.79708	16.4517
 478	1	3	0.051808	8.40485	-3.78967	16.2197
 479	1	1	-0.015342	8.21099	-2.74163	15.0988
 480	1	3	0.052802	10.5082	-2.84101	15.7191
 481	1	1	0.058525	9.42515	-2.18531	14.9204
 482	1	2	-0.381395	7.49722	-4.27392	16.8983
 483	1	2	-0.387279	11.6704	-2.64353	15.6235
 484	1	1	-0.003007	7.09326	-2.32893	14.3188
 485	1	1	-0.04277	9.6035	-1.06013	14.103
 486	1	1	-0.203298	8.50748	-0.597048	13.3802
 487	1	1	-0.057014	7.24585	-1.27864	13.4144
 488	1	7	0.158736	6.12497	-2.8251	14.4645
 489	1	7	0.155574	10.5507	-0.555232	14.0264
 490	1	7	0.172835	8.68099	0.229081	12.6611
 491	1	5	-0.114348	6.05414	-0.783663	12.479
 492	1	5	0.394993	5.05056	-1.96624	12.2161
 493	1	6	-0.128918	4.21891	-2.28198	13.2917
 494	1	6	-0.12014	5.61218	-3.13892	11.894
 495	1	6	-0.128671	4.28522	-1.66073	11.2231
 496	1	5	0.329225	5.39958	0.411874	13.2883
 497	1	6	-0.1084	4.13572	0.723314	12.9054
 498	1	6	-0.10772	6.12539	1.55174	13.2159
 499	1	6	-0.098105	5.29466	0.130176	14.587
 500	1	1	-0.04356	6.53879	-0.271355	11.0396
 501	1	1	-0.061005	5.77154	0.738241	10.278
 502	1	1	-0.036586	6.29979	1.22185	9.03342
 503	1	1	-0.073054	7.73862	-0.752438	10.471
 504	1	1	-0.129461	8.26708	-0.207329	9.2984
 505	1	1	-0.055433	7.57433	0.841447	8.67159
 506	1	3	0.497443	7.90518	1.58566	7.41198
 507	1	4	-0.091283	6.76513	2.30662	7.0699
 508	1	3	0.442461	5.76112	2.16327	8.01279
 509	1	1	0.056821	6.53804	3.11431	5.92035
 510	1	1	-0.175202	6.62669	4.52829	6.00431
 511	1	1	-0.086463	6.11002	5.27557	4.89979
 512	1	1	-0.120823	6.25635	2.53236	4.68534
 513	1	1	-0.147764	5.76249	3.2576	3.55941
 514	1	1	-0.091348	5.56058	4.6165	3.77176
 515	1	3	0.723311	6.11918	6.74787	4.8319
 516	1	7	0.16273	9.18313	-0.671016	8.93995
 517	1	7	0.144736	8.34633	-1.50948	10.9398
 518	1	7	0.138526	4.78846	0.996477	10.624
 519	1	2	-0.452878	4.6831	2.68863	8.06467
 520	1	2	-0.478383	8.96566	1.4576	6.88439
 521	1	7	0.14723	4.85797	2.84313	3.20125
 522	1	7	0.161782	7.00084	5.02723	6.89029
 523	1	7	0.150279	6.401	1.48663	4.58462
 524	1	7	0.142321	4.95961	5.16003	3.04848
 525	1	2	-0.564646	5.89133	7.34172	3.81652
 526	1	10	-0.344773	6.08135	7.30823	6.09601
 527	1	5	-0.038703	-42.5908	79.7922	-22.5855
 528	1	11	0.090446	73.6338	73.9272	-46.1374
 529	1	11	0.070639	33.3758	34.0485	65.0658
 530	1	9	0.018298	-41.9754	80.4015	-23.259
 531	1	9	0.032617	-43.4734	79.4566	-23.1442
 532	1	5	0.364059	-41.7895	78.5792	-22.0814
 533	1	11	-0.049335	-40.8921	78.9293	-21.5586
 534	1	12	-0.72623	-41.4104	77.7481	-23.1723
 535	1	11	0.033772	-42.4027	78.0113	-21.3699
 536	1	13	0.432586	-40.7297	78.2308	-23.6714
 537	1	4	0.478781	20.9033	-10.1153	11.8221
 538	1	3	0.051808	20.2244	-9.38919	12.7601
 539	1	1	-0.015342	19.8098	-10.3643	13.8016
 540	1	3	0.052802	21.1346	-11.4394	12.1152
 541	1	1	0.058525	20.3126	-11.5839	13.4063
 542	1	2	-0.381395	19.8993	-8.17707	12.7442
 543	1	2	-0.387279	21.8113	-12.2561	11.5113
 544	1	1	-0.003007	19.0724	-10.1389	14.9901
 545	1	1	-0.04277	20.0228	-12.7326	14.1233
 546	1	1	-0.203298	19.2353	-12.5962	15.3112
 547	1	1	-0.057014	18.715	-11.2997	15.7947
 548	1	7	0.158736	18.7914	-9.14541	15.2104
 549	1	7	0.155574	20.5141	-13.6712	13.7956
 550	1	7	0.172835	19.1782	-13.4267	15.9867
 551	1	5	-0.114348	17.8714	-11.1789	17.1795
 552	1	5	0.394993	18.7937	-10.3088	18.1586
 553	1	6	-0.128918	18.8732	-9.03044	17.7657
 554	1	6	-0.12014	20.0223	-10.8605	18.2331
 555	1	6	-0.128671	18.3393	-10.2579	19.4416
 556	1	5	0.329225	17.5325	-12.5539	17.88
 557	1	6	-0.1084	16.722	-12.4009	18.9778
 558	1	6	-0.10772	18.6044	-13.1409	18.398
 559	1	6	-0.098105	16.9986	-13.5233	17.0674
 560	1	1	-0.04356	16.5566	-10.3629	16.7851
 561	1	1	-0.061005	15.8985	-9.48336	17.6937
 562	1	1	-0.036586	14.6854	-8.89946	17.2609
 563	1	1	-0.073054	15.9654	-10.631	15.5095
 564	1	1	-0.129461	14.6836	-10.0657	15.1479
 565	1	1	-0.055433	14.052	-9.21255	16.0761
 566	1	3	0.497443	12.7812	-8.47933	16.0573
 567	1	4	-0.091283	12.7993	-7.66103	17.1751
 568	1	3	0.442461	13.9599	-7.81943	17.9453
 569	1	1	0.056821	11.7616	-6.72682	17.5928
 570	1	1	-0.175202	11.3599	-6.79052	18.9313
 571	1	1	-0.086463	10.3923	-5.94623	19.4845
 572	1	1	-0.120823	11.2201	-5.75487	16.8515
 573	1	1	-0.147764	10.5086	-4.64679	17.3931
 574	1	1	-0.091348	9.95314	-4.94084	18.6282
 575	1	3	0.723311	9.78853	-6.19903	20.8863
 576	1	7	0.16273	14.3012	-10.3058	14.147
 577	1	7	0.144736	16.4315	-11.3513	14.8402
 578	1	7	0.138526	16.2765	-9.34366	18.6498
 579	1	2	-0.452878	14.5091	-7.07723	18.7437
 580	1	2	-0.478383	12.0661	-8.28639	15.0764
 581	1	7	0.14723	11.3233	-4.02553	17.7537
 582	1	7	0.161782	11.6985	-7.55781	19.5325
 583	1	7	0.150279	11.4435	-5.72671	15.8114
 584	1	7	0.142321	9.26633	-4.22107	19.0247
 585	1	2	-0.564646	10.0403	-7.18752	21.6136
 586	1	10	-0.344773	8.96353	-5.24189	21.2637
 587	1	5	-0.038703	-87.3846	15.3155	2.28827
 588	1	11	0.090446	-86.4978	-80.5064	-66.7875
 589	1	11	0.070639	-83.6156	-93.4441	115.072
 590	1	9	0.018298	-88.4267	15.587	2.49928
 591	1	9	0.032617	-87.3634	14.2538	2.01143
 592	1	5	0.364059	-86.8392	16.1712	1.1332
 593	1	11	-0.049335	-86.8672	17.2282	1.42127
 594	1	12	-0.72623	-87.6295	15.976	-0.0334102
 595	1	11	0.033772	-85.7955	15.8944	0.936248
 596	1	13	0.432586	-88.5094	16.3466	0.157118
 597	1	1	-0.024347	21.2997	-6.34104	1.58805
 598	1	1	-0.071478	22.3995	-7.01244	0.959421
 599	1	1	-0.180016	22.0511	-8.04059	-0.00759573
 600	1	2	-0.370097	18.6425	-5.02094	2.50729
 601	1	1	0.010306	19.9584	-6.6728	1.37761
 602	1	1	-0.071748	20.6811	-8.28642	-0.201753
 603	1	2	-0.403598	17.6035	-8.49628	-0.501367
 604	1	1	0.055994	19.6644	-7.59049	0.481808
 605	1	3	0.021521	18.6758	-6.01202	1.85403
 606	1	4	0.466017	17.658	-6.72254	1.22048
 607	1	3	0.096621	18.1647	-7.75047	0.371262
 608	1	1	-0.099438	23.2375	-4.77456	4.63062
 609	1	5	-0.089685	23.823	-6.5281	1.17719
 610	1	1	-0.037281	23.9051	-6.2462	2.7045
 611	1	1	-0.08188	23.7079	-4.94341	3.24322
 612	1	1	-0.106561	23.1478	-5.91218	5.44589
 613	1	1	-0.037628	23.809	-7.36578	3.62865
 614	1	1	-0.12234	23.5207	-7.14254	4.98313
 615	1	5	0.388954	23.9957	-5.31835	0.218251
 616	1	5	0.307788	24.897	-7.63876	0.819647
 617	1	6	-0.129718	25.2337	-4.76267	0.216149
 618	1	6	-0.129089	23.1018	-4.34608	0.553329