pySIMM System Object

1550 atoms
1631 bonds
2831 angles
4222 dihedrals
432 impropers

13 atom types
16 bond types
30 angle types
15 dihedral types
4 improper types

-148.569319 148.569319 xlo xhi
-148.569319 148.569319 ylo yhi
-148.569319 148.569319 zlo zhi

Masses

   1	14.01	# n
   2	12.01	# c
   3	12.01	# ca
   4	1.008	# hn
   5	16.0	# o
   6	1.008	# ha
   7	12.01	# c3
   8	19.0	# f
   9	16.0	# os
  10	1.008	# h1
  11	1.008	# hc
  12	16.0	# oh
  13	1.008	# ho

Pair Coeffs

   1	0.17	3.249998523775958	# n
   2	0.086	3.3996695084235347	# c
   3	0.086	3.3996695084235347	# ca
   4	0.0157	1.069078461768407	# hn
   5	0.21	2.959921901149463	# o
   6	0.015	2.59964245953351	# ha
   7	0.1094	3.3996695084235347	# c3
   8	0.061	3.1181455134911875	# f
   9	0.17	3.0000123434657784	# os
  10	0.0157	2.471353044121301	# h1
  11	0.0157	2.649532787749369	# hc
  12	0.2104	3.0664733878390478	# oh
  13	0.0047	0.5379246460131368	# ho

Bond Coeffs

   1	345.8	1.086	# ca,ha
   2	637.7	1.2183	# c,o
   3	427.6	1.3789	# c,n
   4	321.0	1.5156	# c3,ca
   5	300.9	1.5375	# c3,c3
   6	384.2	1.4121	# ca,n
   7	330.6	1.0969	# c3,h1
   8	330.6	1.0969	# c3,hc
   9	316.7	1.4233	# c3,oh
  10	403.2	1.0129	# hn,n
  11	356.9	1.3497	# c3,f
  12	371.4	0.973	# ho,oh
  13	308.6	1.4316	# c3,os
  14	461.1	1.3984	# ca,ca
  15	345.9	1.4906	# c,ca
  16	390.8	1.3584	# c,os

Angle Coeffs

   1	39.4	107.58	# hc,c3,hc
   2	63.53	120.77	# c3,ca,ca
   3	70.89	107.36	# f,c3,f
   4	67.87	120.19	# ca,ca,n
   5	68.0	107.97	# c3,c3,os
   6	66.11	109.24	# c3,c3,f
   7	46.39	109.56	# c3,c3,h1
   8	62.86	111.51	# c3,c3,c3
   9	75.32	123.25	# o,c,os
  10	63.15	112.07	# c3,c3,ca
  11	63.82	123.71	# c,n,ca
  12	63.56	112.24	# ca,c3,ca
  13	46.34	109.8	# c3,c3,hc
  14	67.47	110.19	# c3,c3,oh
  15	47.38	107.26	# c3,oh,ho
  16	39.24	108.46	# h1,c3,h1
  17	69.32	112.44	# ca,c,os
  18	63.74	127.08	# c,n,c
  19	48.18	119.88	# ca,ca,ha
  20	50.93	110.26	# h1,c3,oh
  21	74.22	123.05	# n,c,o
  22	50.8	109.78	# h1,c3,os
  23	63.28	115.98	# c,os,c3
  24	48.33	117.55	# c,n,hn
  25	66.62	120.02	# ca,ca,ca
  26	68.72	122.6	# ca,c,o
  27	67.68	115.25	# ca,c,n
  28	64.28	120.33	# c,ca,ca
  29	49.75	116.02	# ha,ca,n
  30	46.8	110.47	# ca,c3,hc

Dihedral Coeffs

   1	2	0.0	3	0	0.25	1	0	# hc,c3,c3,os
   2	2	2.5	2	180	2.0	1	0	# hn,n,c,o
   3	1	3.625	2	180	# X,ca,ca,X
   4	2	0.0	3	0	0.25	1	0	# hc,c3,c3,oh
   5	1	0.15555555555555556	3	0	# X,c3,c3,X
   6	2	2.7	2	180	1.4	1	180	# o,c,os,c3
   7	1	1.0	2	180	# X,c,ca,X
   8	1	0.0	2	0	# X,c3,ca,X
   9	2	0.16	3	0	0.25	1	0	# ho,oh,c3,c3
  10	2	0.383	3	0	0.8	1	180	# c3,c3,os,c
  11	1	2.5	2	180	# X,c,n,X
  12	1	0.45	2	180	# X,ca,n,X
  13	1	2.7	2	180	# X,c,os,X
  14	1	0.3833333333333333	3	0	# X,c3,os,X
  15	1	0.16666666666666666	3	0	# X,c3,oh,X

Improper Coeffs

   1	1.1	-1	2	# ca,X,X,ha
   2	1.1	-1	2	# n,X,X,hn
   3	1.1	-1	2	# ca,ca,ca,c3
   4	10.5	-1	2	# c,X,X,o

Atoms

   1	1	1	0.478781	58.3634	29.3329	-39.9161
   2	1	2	0.051808	57.1809	29.2079	-40.6596
   3	1	3	-0.015342	56.9448	30.5633	-41.2117
   4	1	2	0.052802	58.8972	30.6295	-39.9736
   5	1	3	0.058525	57.9688	31.3946	-40.8227
   6	1	5	-0.381395	56.4608	28.2331	-40.8126
   7	1	5	-0.387279	59.9012	31.0812	-39.4446
   8	1	3	-0.003007	55.8706	31.0502	-41.9484
   9	1	3	-0.04277	57.9959	32.7455	-41.1707
  10	1	3	-0.203298	56.93	33.2558	-41.9355
  11	1	3	-0.057014	55.8448	32.4196	-42.3268
  12	1	6	0.158736	55.0725	30.3648	-42.2176
  13	1	6	0.155574	58.8097	33.3805	-40.8303
  14	1	6	0.172835	56.9607	34.3098	-42.188
  15	1	7	-0.114348	54.627	32.9219	-43.1498
  16	1	7	0.394993	54.8437	34.3328	-43.8163
  17	1	8	-0.128918	53.8346	34.638	-44.6607
  18	1	8	-0.12014	55.9721	34.3663	-44.5617
  19	1	8	-0.128671	54.9273	35.3426	-42.9181
  20	1	7	0.329225	53.4265	32.9844	-42.1293
  21	1	8	-0.1084	53.7669	33.6222	-40.9848
  22	1	8	-0.10772	52.3378	33.6196	-42.6115
  23	1	8	-0.098105	53.0309	31.742	-41.7725
  24	1	3	-0.04356	54.4141	31.892	-44.3005
  25	1	3	-0.061005	53.1296	31.4659	-44.7359
  26	1	3	-0.036586	53.0416	30.4879	-45.7379
  27	1	3	-0.073054	55.5589	31.3544	-44.957
  28	1	3	-0.129461	55.45	30.3764	-45.9644
  29	1	3	-0.055433	54.1685	29.955	-46.3322
  30	1	2	0.497443	53.7309	28.9954	-47.3817
  31	1	1	-0.091283	52.343	29.001	-47.3472
  32	1	2	0.442461	51.8466	29.8779	-46.3863
  33	1	3	0.056821	51.5306	28.2094	-48.2115
  34	1	3	-0.175202	50.4087	28.7844	-48.8315
  35	1	3	-0.086463	49.5771	28.0306	-49.6862
  36	1	3	-0.120823	51.8217	26.8521	-48.4521
  37	1	3	-0.147764	51.0038	26.0878	-49.3025
  38	1	3	-0.091348	49.8875	26.6767	-49.9179
  39	1	2	0.723311	48.3691	28.6602	-50.3355
  40	1	6	0.16273	56.3336	29.9726	-46.4575
  41	1	6	0.144736	56.5558	31.6981	-44.6871
  42	1	6	0.138526	52.2136	31.8653	-44.3137
  43	1	5	-0.452878	50.6825	30.1195	-46.1157
  44	1	5	-0.478383	54.4564	28.3848	-48.1482
  45	1	6	0.14723	51.2354	25.0468	-49.4861
  46	1	6	0.161782	50.1806	29.8266	-48.6442
  47	1	6	0.150279	52.6855	26.3893	-47.9861
  48	1	6	0.142321	49.25	26.0787	-50.5744
  49	1	5	-0.564646	47.6119	28.053	-51.0734
  50	1	9	-0.344773	48.2045	29.9787	-50.0445
  51	1	7	-0.038703	-52.1822	-49.9876	-64.5796
  52	1	10	0.090446	40.8247	31.0696	68.4817
  53	1	10	0.070639	-2.47599	-100.473	-24.9161
  54	1	11	0.018298	-52.2677	-50.7689	-65.3453
  55	1	11	0.032617	-53.1898	-49.7745	-64.2007
  56	1	7	0.364059	-51.2745	-50.4612	-63.4315
  57	1	10	-0.049335	-50.2731	-50.6728	-63.8228
  58	1	12	-0.72623	-51.8104	-51.6377	-62.8381
  59	1	10	0.033772	-51.191	-49.6637	-62.6822
  60	1	13	0.432586	-51.6778	-52.3606	-63.4751
  61	1	1	0.478781	61.2715	34.3452	-25.8276
  62	1	2	0.051808	60.5402	33.1684	-25.7234
  63	1	3	-0.015342	60.7089	32.4676	-27.0284
  64	1	2	0.052802	61.8944	34.467	-27.0646
  65	1	3	0.058525	61.5114	33.2506	-27.8316
  66	1	5	-0.381395	59.871	32.7923	-24.7794
  67	1	5	-0.387279	62.6087	35.3724	-27.4542
  68	1	3	-0.003007	60.1896	31.2416	-27.4769
  69	1	3	-0.04277	61.8513	32.8539	-29.1287
  70	1	3	-0.203298	61.3474	31.6215	-29.5943
  71	1	3	-0.057014	60.5116	30.794	-28.7903
  72	1	6	0.158736	59.5728	30.6623	-26.7971
  73	1	6	0.155574	62.4963	33.4777	-29.7449
  74	1	6	0.172835	61.6327	31.2974	-30.5932
  75	1	7	-0.114348	60.0507	29.4162	-29.3563
  76	1	7	0.394993	61.24	28.402	-29.1285
  77	1	8	-0.128918	60.9311	27.1493	-29.5226
  78	1	8	-0.12014	61.5877	28.3005	-27.8255
  79	1	8	-0.128671	62.3604	28.7591	-29.7975
  80	1	7	0.329225	58.7797	28.8254	-28.6208
  81	1	8	-0.1084	58.2702	27.8058	-29.3399
  82	1	8	-0.10772	57.7773	29.7297	-28.5263
  83	1	8	-0.098105	59.0086	28.3335	-27.3705
  84	1	3	-0.04356	59.6752	29.5976	-30.873
  85	1	3	-0.061005	60.2482	28.8079	-31.9064
  86	1	3	-0.036586	59.8764	29.0306	-33.2375
  87	1	3	-0.073054	58.7431	30.602	-31.2614
  88	1	3	-0.129461	58.3565	30.7911	-32.6121
  89	1	3	-0.055433	58.9353	29.9714	-33.5893
  90	1	2	0.497443	58.7894	29.933	-35.0778
  91	1	1	-0.091283	59.6993	28.9799	-35.5324
  92	1	2	0.442461	60.3826	28.3867	-34.479
  93	1	3	0.056821	59.9203	28.6718	-36.915
  94	1	3	-0.175202	61.2241	28.5924	-37.4435
  95	1	3	-0.086463	61.4263	28.3041	-38.8144
  96	1	3	-0.120823	58.8251	28.4859	-37.7826
  97	1	3	-0.147764	58.9896	28.2784	-39.1712
  98	1	3	-0.091348	60.305	28.0892	-39.6379
  99	1	2	0.723311	62.7951	28.3002	-39.4536
 100	1	6	0.16273	57.6432	31.5645	-32.891
 101	1	6	0.144736	58.3119	31.251	-30.5046
 102	1	6	0.138526	60.99	28.0379	-31.7217
 103	1	5	-0.452878	61.2466	27.53	-34.5286
 104	1	5	-0.478383	58.0422	30.6255	-35.7498
 105	1	6	0.14723	58.3421	27.481	-39.519
 106	1	6	0.161782	62.0809	28.7696	-36.7944
 107	1	6	0.150279	57.8184	28.5687	-37.3808
 108	1	6	0.142321	60.466	27.891	-40.6988
 109	1	5	-0.564646	62.9553	28.1438	-40.6546
 110	1	9	-0.344773	63.8307	28.4985	-38.5939
 111	1	7	-0.038703	49.0043	-0.293103	-23.1883
 112	1	10	0.090446	-40.5469	-73.9862	-6.67984
 113	1	10	0.070639	127.408	6.87454	-64.3549
 114	1	11	0.018298	48.2974	0.0162916	-22.4085
 115	1	11	0.032617	48.627	0.073529	-24.1509
 116	1	7	0.364059	50.3985	0.294074	-22.9089
 117	1	10	-0.049335	50.7669	-0.0874193	-21.9499
 118	1	12	-0.72623	50.3327	1.71387	-22.8612
 119	1	10	0.033772	51.0917	-0.027117	-23.6972
 120	1	13	0.432586	49.8576	1.94743	-22.0455
 121	1	3	-0.024347	56.6794	42.5164	-16.7122
 122	1	3	-0.071478	57.6592	42.0362	-17.6123
 123	1	3	-0.180016	57.2925	41.868	-18.9861
 124	1	5	-0.370097	54.1889	43.5134	-15.2678
 125	1	3	0.010306	55.3878	42.7294	-17.1868
 126	1	3	-0.071748	55.9646	42.0219	-19.4344
 127	1	5	-0.403598	52.8521	42.4405	-19.5744
 128	1	3	0.055994	55.0214	42.4353	-18.4852
 129	1	2	0.021521	54.2047	43.1875	-16.4404
 130	1	1	0.466017	53.1642	43.1629	-17.364
 131	1	2	0.096621	53.5547	42.6669	-18.6026
 132	1	3	-0.099438	61.8253	41.3452	-19.8656
 133	1	7	-0.089685	59.0688	41.6616	-17.0737
 134	1	3	-0.037281	59.9499	41.1061	-18.2476
 135	1	3	-0.08188	61.0649	41.8216	-18.7813
 136	1	3	-0.106561	61.4489	40.1375	-20.4477
 137	1	3	-0.037628	59.6093	39.8777	-18.8824
 138	1	3	-0.12234	60.3556	39.4388	-19.9825
 139	1	7	0.388954	58.8794	40.4974	-16.0245
 140	1	7	0.307788	59.7645	42.9025	-16.3793
 141	1	8	-0.129718	57.9682	39.5973	-16.4616
 142	1	8	-0.129089	60.0292	39.8233	-15.8105
 143	1	8	-0.119089	58.4516	40.9001	-14.8057
 144	1	8	-0.103894	61.0185	42.5857	-15.9673
 145	1	8	-0.097852	59.153	43.342	-15.2615
 146	1	8	-0.104555	59.8103	43.9788	-17.209
 147	1	2	0.521254	60.1333	38.2852	-20.8938
 148	1	2	0.53569	61.9955	39.4432	-21.6426
 149	1	1	0.027822	61.1531	38.3521	-21.8452
 150	1	5	-0.468874	59.1771	37.5267	-20.87
 151	1	5	-0.477974	62.998	39.7622	-22.2621
 152	1	3	-0.359831	61.286	37.411	-22.9128
 153	1	3	0.131035	60.4016	37.5066	-24.0154
 154	1	3	-0.120983	60.3755	36.4558	-24.9629
 155	1	3	0.127261	62.1891	36.3269	-22.7761
 156	1	3	-0.127195	62.1966	35.3059	-23.7571
 157	1	3	0.144798	61.2841	35.375	-24.8393
 158	1	7	-0.020676	63.1705	36.243	-21.594
 159	1	7	-0.019785	59.4319	38.7002	-24.1591
 160	1	6	0.164889	56.8813	42.6864	-15.6595
 161	1	6	0.175264	58.0218	41.5934	-19.7385
 162	1	6	0.1582	55.6803	41.8408	-20.4726
 163	1	6	0.150763	62.6774	41.9058	-20.2488
 164	1	6	0.144868	61.3922	42.766	-18.3701
 165	1	6	0.134072	58.7244	39.3043	-18.608
 166	1	7	-0.300668	59.3279	36.4496	-26.0954
 167	1	7	-0.243237	63.1436	34.095	-23.6333
 168	1	11	0.021835	63.0203	37.0125	-20.8303
 169	1	11	0.012312	64.2062	36.3522	-21.9393
 170	1	11	0.041777	63.0779	35.2813	-21.0718
 171	1	11	0.110598	64.0635	34.3291	-23.0858
 172	1	11	0.08293	62.6502	33.2655	-23.1086
 173	1	11	0.082252	63.4832	33.7206	-24.6082
 174	1	11	0.027698	58.4099	38.3973	-23.9021
 175	1	11	0.017051	59.4256	39.0985	-25.1778
 176	1	11	0.037874	59.6931	39.5535	-23.5218
 177	1	11	0.095908	58.3299	36.2172	-25.7052
 178	1	11	0.127068	59.2733	37.4234	-26.5946
 179	1	11	0.099095	59.5235	35.7424	-26.9067
 180	1	3	-0.024347	40.7178	44.9004	-14.6372
 181	1	3	-0.071478	41.7879	45.85	-14.6928
 182	1	3	-0.180016	42.18	46.297	-15.9772
 183	1	5	-0.370097	38.2773	42.954	-15.1736
 184	1	3	0.010306	40.1347	44.3964	-15.8104
 185	1	3	-0.071748	41.625	45.7439	-17.1527
 186	1	5	-0.403598	40.0449	44.2614	-19.2857
 187	1	3	0.055994	40.6182	44.7841	-17.0352
 188	1	2	0.021521	38.9731	43.4706	-16.0338
 189	1	1	0.466017	38.8472	43.3659	-17.4289
 190	1	2	0.096621	39.8432	44.1089	-18.0918
 191	1	3	-0.099438	46.3065	47.5641	-13.5098
 192	1	7	-0.089685	42.5353	46.4165	-13.4399
 193	1	3	-0.037281	44.0805	46.4848	-13.739
 194	1	3	-0.08188	44.9198	47.5364	-13.2535
 195	1	3	-0.106561	46.8546	46.5156	-14.2652
 196	1	3	-0.037628	44.6876	45.4526	-14.5082
 197	1	3	-0.12234	46.0664	45.5008	-14.7733
 198	1	7	0.388954	41.9103	47.8295	-13.0827
 199	1	7	0.307788	42.3503	45.4501	-12.2341
 200	1	8	-0.129718	42.3735	48.7624	-13.9427
 201	1	8	-0.129089	42.2067	48.2976	-11.8394
 202	1	8	-0.119089	40.5574	47.8393	-13.2232
 203	1	8	-0.103894	42.6835	44.1884	-12.5974
 204	1	8	-0.097852	41.1032	45.4534	-11.7075
 205	1	8	-0.104555	43.1674	45.7773	-11.2233
 206	1	2	0.521254	46.9332	44.5994	-15.5998
 207	1	2	0.53569	48.2701	46.2436	-14.6643
 208	1	1	0.027822	48.237	45.0969	-15.4681
 209	1	5	-0.468874	46.5629	43.5918	-16.1853
 210	1	5	-0.477974	49.2324	46.9373	-14.3697
 211	1	3	-0.359831	49.4174	44.5202	-16.0605
 212	1	3	0.131035	50.0136	45.16	-17.178
 213	1	3	-0.120983	51.2949	44.7474	-17.6147
 214	1	3	0.127261	49.9994	43.3744	-15.47
 215	1	3	-0.127195	51.167	42.8331	-16.0366
 216	1	3	0.144798	51.8489	43.5722	-17.0369
 217	1	7	-0.020676	49.415	42.7369	-14.2063
 218	1	7	-0.019785	49.2777	46.3292	-17.8518
 219	1	6	0.164889	40.3057	44.5432	-13.7029
 220	1	6	0.175264	42.9579	47.0513	-16.0769
 221	1	6	0.1582	41.9455	46.068	-18.1402
 222	1	6	0.150763	46.9384	48.3681	-13.1354
 223	1	6	0.144868	44.5135	48.3405	-12.6497
 224	1	6	0.134072	44.1021	44.63	-14.9112
 225	1	7	-0.300668	52.0481	45.5737	-18.6805
 226	1	7	-0.243237	51.7478	41.5268	-15.4558
 227	1	11	0.021835	48.8551	41.8322	-14.4401
 228	1	11	0.012312	48.7498	43.4011	-13.6399
 229	1	11	0.041777	50.2147	42.4663	-13.5044
 230	1	11	0.110598	52.2332	41.7196	-14.491
 231	1	11	0.08293	50.9506	40.7845	-15.2972
 232	1	11	0.082252	52.4828	41.0415	-16.1098
 233	1	11	0.027698	49.4452	47.2686	-17.3035
 234	1	11	0.017051	48.191	46.1515	-17.8842
 235	1	11	0.037874	49.5941	46.4897	-18.8933
 236	1	11	0.095908	51.577	45.4819	-19.6699
 237	1	11	0.127068	52.0534	46.6405	-18.4232
 238	1	11	0.099095	53.1011	45.304	-18.8037
 239	1	1	0.478781	35.6596	28.467	-23.1636
 240	1	2	0.051808	36.207	29.5766	-23.8097
 241	1	3	-0.015342	36.5241	30.5237	-22.7099
 242	1	2	0.052802	35.5181	28.6331	-21.7794
 243	1	3	0.058525	36.099	29.9757	-21.5086
 244	1	5	-0.381395	36.4394	29.7195	-25.0042
 245	1	5	-0.387279	35.1243	27.8146	-20.9613
 246	1	3	-0.003007	37.2667	31.708	-22.7701
 247	1	3	-0.04277	36.352	30.6201	-20.2919
 248	1	3	-0.203298	37.093	31.8254	-20.3372
 249	1	3	-0.057014	37.607	32.3747	-21.5576
 250	1	6	0.158736	37.6303	32.0282	-23.7392
 251	1	6	0.155574	36.0291	30.1749	-19.35
 252	1	6	0.172835	37.3373	32.3041	-19.392
 253	1	7	-0.114348	38.5833	33.6109	-21.4888
 254	1	7	0.394993	39.0626	34.1065	-22.9208
 255	1	8	-0.128918	39.7933	35.2394	-22.9149
 256	1	8	-0.12014	38.0218	34.3964	-23.7328
 257	1	8	-0.128671	39.8537	33.2124	-23.535
 258	1	7	0.329225	39.8333	33.1916	-20.602
 259	1	8	-0.1084	39.6293	33.3485	-19.2675
 260	1	8	-0.10772	40.9585	33.8923	-20.862
 261	1	8	-0.098105	40.1463	31.8911	-20.803
 262	1	3	-0.04356	37.8476	34.8173	-20.8547
 263	1	3	-0.061005	38.5867	35.9423	-20.3978
 264	1	3	-0.036586	37.8819	37.0274	-19.8739
 265	1	3	-0.073054	36.4221	34.8652	-20.7805
 266	1	3	-0.129461	35.7371	35.9669	-20.2384
 267	1	3	-0.055433	36.5058	37.0414	-19.7963
 268	1	2	0.497443	36.0859	38.4116	-19.4083
 269	1	1	-0.091283	37.248	39.1644	-19.327
 270	1	2	0.442461	38.3773	38.3777	-19.5217
 271	1	3	0.056821	37.2688	40.5932	-19.3011
 272	1	3	-0.175202	36.882	41.3101	-20.4507
 273	1	3	-0.086463	37.0023	42.7128	-20.4904
 274	1	3	-0.120823	37.7522	41.2963	-18.1759
 275	1	3	-0.147764	37.7487	42.7148	-18.1188
 276	1	3	-0.091348	37.3599	43.3908	-19.3052
 277	1	2	0.723311	36.8399	43.482	-21.7938
 278	1	6	0.16273	34.6487	36.0163	-20.2363
 279	1	6	0.144736	35.8205	34.0468	-21.1674
 280	1	6	0.138526	39.6683	36.0101	-20.4706
 281	1	5	-0.452878	39.5408	38.7266	-19.537
 282	1	5	-0.478383	34.9384	38.8031	-19.3216
 283	1	6	0.14723	37.0144	42.9592	-17.3578
 284	1	6	0.161782	36.5901	40.7734	-21.3494
 285	1	6	0.150279	38.0726	40.7291	-17.3025
 286	1	6	0.142321	37.446	44.4756	-19.3561
 287	1	5	-0.564646	36.6231	44.6816	-21.8328
 288	1	9	-0.344773	37.0915	42.7595	-22.919
 289	1	7	-0.038703	-100.12	103.237	82.4689
 290	1	10	0.090446	-139.633	59.7414	-6.98188
 291	1	10	0.070639	14.622	124.354	102.817
 292	1	11	0.018298	-99.3422	102.675	82.9974
 293	1	11	0.032617	-100.294	104.167	83.0224
 294	1	7	0.364059	-99.6613	103.556	81.0321
 295	1	10	-0.049335	-99.4714	102.622	80.4929
 296	1	12	-0.72623	-98.4713	104.332	81.0641
 297	1	10	0.033772	-100.453	104.102	80.5061
 298	1	13	0.432586	-97.765	103.748	81.3924
 299	1	3	-0.024347	32.3076	16.7738	-27.0523
 300	1	3	-0.071478	31.9957	17.9938	-27.7307
 301	1	3	-0.180016	30.7521	18.6199	-27.4396
 302	1	5	-0.370097	32.3924	14.1792	-25.4112
 303	1	3	0.010306	31.3832	16.2329	-26.1565
 304	1	3	-0.071748	29.8227	18.0254	-26.5655
 305	1	5	-0.403598	28.2603	16.2366	-24.6312
 306	1	3	0.055994	30.1656	16.8172	-25.9481
 307	1	2	0.021521	31.44	14.9468	-25.4219
 308	1	1	0.466017	30.1807	14.8385	-24.8223
 309	1	2	0.096621	29.3642	15.9532	-25.0685
 310	1	3	-0.099438	33.559	22.3866	-29.4149
 311	1	7	-0.089685	32.8758	18.5776	-28.8747
 312	1	3	-0.037281	33.1161	20.0955	-28.6037
 313	1	3	-0.08188	33.2052	21.0469	-29.6629
 314	1	3	-0.106561	33.8242	22.761	-28.0993
 315	1	3	-0.037628	33.3204	20.5495	-27.266
 316	1	3	-0.12234	33.6631	21.8947	-27.0451
 317	1	7	0.388954	32.0991	18.264	-30.2112
 318	1	7	0.307788	34.264	17.8591	-29.0055
 319	1	8	-0.129718	32.8093	18.5019	-31.3352
 320	1	8	-0.129089	30.9699	18.9764	-30.3195
 321	1	8	-0.119089	31.6833	16.9835	-30.2704
 322	1	8	-0.103894	34.1642	16.5648	-29.375
 323	1	8	-0.097852	34.9573	17.8708	-27.8517
 324	1	8	-0.104555	35.1049	18.4557	-29.8855
 325	1	2	0.521254	33.969	22.6449	-25.791
 326	1	2	0.53569	34.3295	24.0496	-27.5763
 327	1	1	0.027822	34.3442	23.9197	-26.1991
 328	1	5	-0.468874	33.9412	22.2043	-24.6614
 329	1	5	-0.477974	34.7327	24.9898	-28.2442
 330	1	3	-0.359831	34.6799	24.9985	-25.3329
 331	1	3	0.131035	36.0321	25.2512	-25.0148
 332	1	3	-0.120983	36.3464	26.4057	-24.2676
 333	1	3	0.127261	33.6378	25.836	-24.872
 334	1	3	-0.127195	33.9583	27.0169	-24.1678
 335	1	3	0.144798	35.3127	27.2921	-23.8793
 336	1	7	-0.020676	32.1729	25.548	-25.253
 337	1	7	-0.019785	37.1528	24.3077	-25.474
 338	1	6	0.164889	33.2167	16.2125	-27.2157
 339	1	6	0.175264	30.476	19.5513	-27.9323
 340	1	6	0.1582	28.8405	18.4567	-26.3972
 341	1	6	0.150763	33.6674	23.1047	-30.2279
 342	1	6	0.144868	33.0288	20.7643	-30.6974
 343	1	6	0.134072	33.2206	19.8729	-26.4205
 344	1	7	-0.300668	37.8077	26.7229	-23.8674
 345	1	7	-0.243237	32.8574	28.0003	-23.7421
 346	1	11	0.021835	31.4909	25.7643	-24.4186
 347	1	11	0.012312	31.988	24.5105	-25.5234
 348	1	11	0.041777	31.8805	26.1731	-26.1018
 349	1	11	0.110598	32.5014	27.7506	-22.7366
 350	1	11	0.08293	33.208	29.0372	-23.7148
 351	1	11	0.082252	31.9903	27.9983	-24.4219
 352	1	11	0.027698	37.6942	23.9045	-24.6102
 353	1	11	0.017051	37.8664	24.8343	-26.1185
 354	1	11	0.037874	36.8014	23.4344	-26.0379
 355	1	11	0.095908	37.8779	27.1562	-22.8671
 356	1	11	0.127068	38.4323	25.8218	-23.8181
 357	1	11	0.099095	38.2763	27.4283	-24.5731
 358	1	3	-0.024347	25.1682	6.25373	-19.2021
 359	1	3	-0.071478	24.8001	5.53867	-20.3777
 360	1	3	-0.180016	23.4061	5.33604	-20.6299
 361	1	5	-0.370097	25.3795	7.59042	-16.4063
 362	1	3	0.010306	24.1954	6.64391	-18.279
 363	1	3	-0.071748	22.4463	5.71377	-19.6597
 364	1	5	-0.403598	20.9521	6.29754	-16.9952
 365	1	3	0.055994	22.8699	6.32113	-18.4749
 366	1	2	0.021521	24.3444	7.18174	-16.9065
 367	1	1	0.466017	23.0755	7.11239	-16.326
 368	1	2	0.096621	22.1217	6.59109	-17.2176
 369	1	3	-0.099438	29.5435	6.4093	-21.3575
 370	1	7	-0.089685	25.9404	4.85597	-21.2185
 371	1	3	-0.037281	27.1364	5.82504	-21.2942
 372	1	3	-0.08188	28.5123	5.45165	-21.1926
 373	1	3	-0.106561	29.1624	7.72525	-21.6528
 374	1	3	-0.037628	26.8198	7.16203	-21.5851
 375	1	3	-0.12234	27.8363	8.07789	-21.7657
 376	1	7	0.388954	25.5707	4.53607	-22.7154
 377	1	7	0.307788	26.2847	3.51456	-20.497
 378	1	8	-0.129718	26.6748	4.33832	-23.4875
 379	1	8	-0.129089	24.8105	3.43013	-22.8121
 380	1	8	-0.119089	24.8735	5.54917	-23.2805
 381	1	8	-0.103894	27.1083	2.71897	-21.2214
 382	1	8	-0.097852	25.1354	2.85287	-20.2364
 383	1	8	-0.104555	26.8568	3.69554	-19.2978
 384	1	2	0.521254	27.7148	9.48237	-22.2128
 385	1	2	0.53569	29.9554	8.93539	-22.0078
 386	1	1	0.027822	29.0192	9.9245	-22.3477
 387	1	5	-0.468874	26.6713	10.0236	-22.5598
 388	1	5	-0.477974	31.1731	8.9828	-22.1136
 389	1	3	-0.359831	29.3363	11.17	-22.9566
 390	1	3	0.131035	29.4206	12.3217	-22.1499
 391	1	3	-0.120983	29.598	13.5781	-22.7776
 392	1	3	0.127261	29.3742	11.2352	-24.3666
 393	1	3	-0.127195	29.5899	12.4831	-25.0015
 394	1	3	0.144798	29.7399	13.6338	-24.1911
 395	1	7	-0.020676	29.193	9.95714	-25.2092
 396	1	7	-0.019785	29.2264	12.2176	-20.6389
 397	1	6	0.164889	26.2061	6.3743	-18.9141
 398	1	6	0.175264	23.0654	4.78381	-21.5059
 399	1	6	0.1582	21.3906	5.47709	-19.7924
 400	1	6	0.150763	30.5965	6.14207	-21.3094
 401	1	6	0.144868	28.8087	4.42376	-21.0159
 402	1	6	0.134072	25.7883	7.48311	-21.7342
 403	1	7	-0.300668	29.7095	14.8752	-21.9673
 404	1	7	-0.243237	29.6889	12.5927	-26.5518
 405	1	11	0.021835	28.139	9.81608	-25.4622
 406	1	11	0.012312	29.5374	9.04501	-24.7037
 407	1	11	0.041777	29.7684	9.99073	-26.1419
 408	1	11	0.110598	29.0576	11.8604	-27.0726
 409	1	11	0.08293	29.3383	13.5451	-26.9471
 410	1	11	0.082252	30.7236	12.4522	-26.8956
 411	1	11	0.027698	30.0078	12.7899	-20.1238
 412	1	11	0.017051	29.2599	11.2031	-20.2293
 413	1	11	0.037874	28.2612	12.6416	-20.3497
 414	1	11	0.095908	29.063	15.6536	-22.3781
 415	1	11	0.127068	29.4074	14.7886	-20.9164
 416	1	11	0.099095	30.7422	15.2491	-21.959
 417	1	1	0.478781	12.9408	15.9523	-10.7333
 418	1	2	0.051808	13.9462	15.3209	-11.4774
 419	1	3	-0.015342	13.3866	14.0303	-11.9201
 420	1	2	0.052802	11.7829	15.1687	-10.6897
 421	1	3	0.058525	12.0819	13.9605	-11.4939
 422	1	5	-0.381395	15.0694	15.7316	-11.7244
 423	1	5	-0.387279	10.7049	15.4867	-10.2344
 424	1	3	-0.003007	13.9521	13.0812	-12.7689
 425	1	3	-0.04277	11.2955	12.8619	-11.8248
 426	1	3	-0.203298	11.8679	11.8508	-12.6171
 427	1	3	-0.057014	13.192	11.9431	-13.1307
 428	1	6	0.158736	14.9735	13.2156	-13.1106
 429	1	6	0.155574	10.2527	12.8066	-11.51
 430	1	6	0.172835	11.2085	11.0407	-12.899
 431	1	7	-0.114348	13.7796	10.9353	-14.159
 432	1	7	0.394993	12.8704	9.65997	-14.3456
 433	1	8	-0.128918	13.5119	8.69243	-15.0468
 434	1	8	-0.12014	11.7155	9.95453	-14.9846
 435	1	8	-0.128671	12.544	9.07073	-13.1765
 436	1	7	0.329225	13.8345	11.7465	-15.5085
 437	1	8	-0.1084	14.0928	10.9847	-16.593
 438	1	8	-0.10772	14.7894	12.6907	-15.4778
 439	1	8	-0.098105	12.6911	12.4149	-15.7676
 440	1	3	-0.04356	15.1663	10.4462	-13.6394
 441	1	3	-0.061005	16.2098	9.98645	-14.4812
 442	1	3	-0.036586	17.391	9.48857	-13.8953
 443	1	3	-0.073054	15.3829	10.356	-12.2383
 444	1	3	-0.129461	16.5745	9.87657	-11.6634
 445	1	3	-0.055433	17.5728	9.43808	-12.5296
 446	1	2	0.497443	18.8832	8.76062	-12.2624
 447	1	1	-0.091283	19.4186	8.43372	-13.5007
 448	1	2	0.442461	18.5557	8.81027	-14.517
 449	1	3	0.056821	20.6452	7.72634	-13.7253
 450	1	3	-0.175202	20.9775	6.60407	-12.9412
 451	1	3	-0.086463	22.2053	5.92978	-13.0944
 452	1	3	-0.120823	21.5515	8.14382	-14.7359
 453	1	3	-0.147764	22.7875	7.47188	-14.954
 454	1	3	-0.091348	23.1103	6.40867	-14.0667
 455	1	2	0.723311	22.5158	4.72643	-12.2333
 456	1	6	0.16273	16.7014	9.83481	-10.5861
 457	1	6	0.144736	14.5931	10.6614	-11.5592
 458	1	6	0.138526	16.0912	9.95314	-15.5595
 459	1	5	-0.452878	18.7183	8.59381	-15.6998
 460	1	5	-0.478383	19.3572	8.50016	-11.1706
 461	1	6	0.14723	23.5624	8.23384	-14.9053
 462	1	6	0.161782	20.2675	6.25285	-12.1872
 463	1	6	0.150279	21.2972	9.00825	-15.3417
 464	1	6	0.142321	24.079	5.92107	-14.1768
 465	1	5	-0.564646	21.6544	4.18785	-11.5604
 466	1	9	-0.344773	23.7938	4.25474	-12.3005
 467	1	7	-0.038703	-115.047	-146.004	-80.2504
 468	1	10	0.090446	113.982	-34.6408	-48.9701
 469	1	10	0.070639	-70.1807	-60.0223	26.0689
 470	1	11	0.018298	-115.814	-146.787	-80.2811
 471	1	11	0.032617	-115.243	-145.379	-79.3719
 472	1	7	0.364059	-113.656	-146.65	-80.1377
 473	1	10	-0.049335	-113.506	-147.346	-80.9722
 474	1	12	-0.72623	-113.536	-147.35	-78.9134
 475	1	10	0.033772	-112.89	-145.866	-80.2041
 476	1	13	0.432586	-112.854	-148.029	-79.0403
 477	1	1	0.478781	4.13659	12.4003	-3.66225
 478	1	2	0.051808	4.87208	12.7767	-2.54273
 479	1	3	-0.015342	5.49949	14.0701	-2.88307
 480	1	2	0.052802	4.16492	13.3758	-4.65199
 481	1	3	0.058525	5.0226	14.4394	-4.11331
 482	1	5	-0.381395	5.08034	12.1517	-1.52531
 483	1	5	-0.387279	3.61642	13.4124	-5.72842
 484	1	3	-0.003007	6.47887	14.8261	-2.22154
 485	1	3	-0.04277	5.45362	15.6106	-4.72155
 486	1	3	-0.203298	6.41575	16.4054	-4.07512
 487	1	3	-0.057014	6.98437	16.0072	-2.8319
 488	1	6	0.158736	6.82771	14.4835	-1.25889
 489	1	6	0.155574	5.0612	15.8849	-5.70225
 490	1	6	0.172835	6.70456	17.3329	-4.55886
 491	1	7	-0.114348	8.0408	16.9019	-2.11052
 492	1	7	0.394993	7.21586	17.7546	-1.04437
 493	1	8	-0.128918	6.48044	18.6924	-1.68709
 494	1	8	-0.12014	6.30226	17.0114	-0.345021
 495	1	8	-0.128671	7.96408	18.3791	-0.09499
 496	1	7	0.329225	9.16532	16.012	-1.44735
 497	1	8	-0.1084	8.84559	15.6195	-0.211913
 498	1	8	-0.10772	10.3755	16.6025	-1.32847
 499	1	8	-0.098105	9.40818	14.8983	-2.17397
 500	1	3	-0.04356	8.86088	17.7004	-3.16685
 501	1	3	-0.061005	9.36331	16.992	-4.29576
 502	1	3	-0.036586	10.2406	17.6636	-5.14508
 503	1	3	-0.073054	9.37012	19.0134	-2.90216
 504	1	3	-0.129461	10.2656	19.6521	-3.78693
 505	1	3	-0.055433	10.6815	18.9529	-4.91455
 506	1	2	0.497443	11.4738	19.4169	-6.08663
 507	1	1	-0.091283	11.5212	18.3165	-6.91619
 508	1	2	0.442461	10.8531	17.2148	-6.41073
 509	1	3	0.056821	11.9917	18.3825	-8.24149
 510	1	3	-0.175202	11.4427	19.3537	-9.08283
 511	1	3	-0.086463	11.6469	19.3017	-10.471
 512	1	3	-0.120823	12.764	17.3491	-8.7932
 513	1	3	-0.147764	13.035	17.2772	-10.1731
 514	1	3	-0.091348	12.4208	18.2465	-10.9968
 515	1	2	0.723311	10.9608	20.271	-11.4125
 516	1	6	0.16273	10.5988	20.6701	-3.6362
 517	1	6	0.144736	9.01988	19.5516	-2.03156
 518	1	6	0.138526	9.06688	15.9744	-4.53134
 519	1	5	-0.452878	10.7889	16.1144	-6.92568
 520	1	5	-0.478383	11.889	20.5445	-6.31732
 521	1	6	0.14723	14.1127	17.3874	-10.2709
 522	1	6	0.161782	10.7877	20.1223	-8.66214
 523	1	6	0.150279	13.0516	16.5144	-8.16018
 524	1	6	0.142321	12.5583	18.1757	-12.07
 525	1	5	-0.564646	11.0965	20.1954	-12.6205
 526	1	9	-0.344773	10.0761	21.1656	-10.8624
 527	1	7	-0.038703	118.028	142.254	31.6695
 528	1	10	0.090446	112.728	0.320707	-66.4642
 529	1	10	0.070639	-27.6209	89.3719	4.3833
 530	1	11	0.018298	118.534	142.577	30.7483
 531	1	11	0.032617	118.598	141.403	32.069
 532	1	7	0.364059	118.019	143.403	32.6873
 533	1	10	-0.049335	117.454	143.114	33.5767
 534	1	12	-0.72623	117.421	144.551	32.1036
 535	1	10	0.033772	119.046	143.634	32.9964
 536	1	13	0.432586	117.293	145.21	32.8147
 537	1	1	0.478781	9.06775	1.65301	-5.38644
 538	1	2	0.051808	8.06292	1.76659	-6.35524
 539	1	3	-0.015342	8.44718	2.93225	-7.20201
 540	1	2	0.052802	10.1052	2.54445	-5.61367
 541	1	3	0.058525	9.70091	3.34467	-6.80876
 542	1	5	-0.381395	7.07842	1.0676	-6.53446
 543	1	5	-0.387279	11.1745	2.6218	-5.02341
 544	1	3	-0.003007	7.71477	3.5897	-8.18885
 545	1	3	-0.04277	10.3337	4.40438	-7.45997
 546	1	3	-0.203298	9.61798	5.07303	-8.48057
 547	1	3	-0.057014	8.2861	4.69843	-8.85367
 548	1	6	0.158736	6.71143	3.25711	-8.41262
 549	1	6	0.155574	11.3288	4.7189	-7.17064
 550	1	6	0.172835	10.1514	5.86848	-8.99124
 551	1	7	-0.114348	7.47469	5.40581	-10.0132
 552	1	7	0.394993	7.09077	4.29488	-11.0858
 553	1	8	-0.128918	8.05396	3.36078	-11.2103
 554	1	8	-0.12014	6.8449	4.67932	-12.3616
 555	1	8	-0.128671	5.99678	3.62734	-10.7139
 556	1	7	0.329225	8.35043	6.4792	-10.7906
 557	1	8	-0.1084	7.67689	7.13835	-11.7756
 558	1	8	-0.10772	8.80176	7.47925	-10.0041
 559	1	8	-0.098105	9.44582	5.88535	-11.3392
 560	1	3	-0.04356	6.19999	6.12405	-9.41963
 561	1	3	-0.061005	6.16092	6.57155	-8.07591
 562	1	3	-0.036586	5.0362	7.28771	-7.61554
 563	1	3	-0.073054	5.03002	6.34708	-10.2112
 564	1	3	-0.129461	3.93992	7.11129	-9.73895
 565	1	3	-0.055433	3.96786	7.57278	-8.43131
 566	1	2	0.497443	2.9769	8.36224	-7.67108
 567	1	1	-0.091283	3.5089	8.54354	-6.41855
 568	1	2	0.442461	4.74226	7.92335	-6.31536
 569	1	3	0.056821	2.96175	9.41407	-5.42394
 570	1	3	-0.175202	1.64131	9.29021	-4.96951
 571	1	3	-0.086463	1.11694	10.2505	-4.0895
 572	1	3	-0.120823	3.80835	10.3575	-4.82758
 573	1	3	-0.147764	3.3871	11.1826	-3.76945
 574	1	3	-0.091348	1.99264	11.2345	-3.57552
 575	1	2	0.723311	-0.347366	10.2988	-3.73696
 576	1	6	0.16273	3.08084	7.33258	-10.3642
 577	1	6	0.144736	4.97657	5.99184	-11.2384
 578	1	6	0.138526	6.99355	6.40701	-7.40694
 579	1	5	-0.452878	5.4917	7.93223	-5.37468
 580	1	5	-0.478383	1.93647	8.81492	-8.10075
 581	1	6	0.14723	3.74463	10.6657	-2.89097
 582	1	6	0.161782	0.99045	8.5303	-5.40791
 583	1	6	0.150279	4.84409	10.4315	-5.16063
 584	1	6	0.142321	1.57353	12.0092	-2.92968
 585	1	5	-0.564646	-0.808502	11.2009	-3.06105
 586	1	9	-0.344773	-1.12445	9.36885	-4.36413
 587	1	7	-0.038703	95.7733	79.8418	-73.5219
 588	1	10	0.090446	-31.4155	130.599	-57.0084
 589	1	10	0.070639	70.5784	48.2214	-136.447
 590	1	11	0.018298	96.4744	79.2219	-72.9486
 591	1	11	0.032617	95.8708	80.8768	-73.1704
 592	1	7	0.364059	96.0915	79.7566	-75.0234
 593	1	10	-0.049335	95.9908	78.7197	-75.363
 594	1	12	-0.72623	97.4195	80.2072	-75.2526
 595	1	10	0.033772	95.3766	80.3725	-75.5837
 596	1	13	0.432586	97.6498	79.9578	-76.1623
 597	1	3	-0.024347	6.24677	-6.32391	4.46529
 598	1	3	-0.071478	7.31885	-6.28413	5.37662
 599	1	3	-0.180016	7.30627	-7.22321	6.44457
 600	1	5	-0.370097	4.48709	-7.33026	2.22727
 601	1	3	0.010306	5.37145	-7.40053	4.46845
 602	1	3	-0.071748	6.38374	-8.28268	6.45511
 603	1	5	-0.403598	4.40761	-10.527	5.57767
 604	1	3	0.055994	5.43169	-8.38674	5.41962
 605	1	2	0.021521	4.55838	-7.85583	3.32141
 606	1	1	0.466017	4.11639	-9.12805	3.66974
 607	1	2	0.096621	4.54	-9.48302	4.96633
 608	1	3	-0.099438	8.38992	-5.44356	1.21022
 609	1	7	-0.089685	8.49988	-5.32502	5.10298
 610	1	3	-0.037281	8.5136	-4.86488	3.61254
 611	1	3	-0.08188	8.42006	-5.8318	2.56503
 612	1	3	-0.106561	8.41823	-4.07776	0.928377
 613	1	3	-0.037628	8.64914	-3.49123	3.23748
 614	1	3	-0.12234	8.59151	-3.12277	1.88819
 615	1	7	0.388954	9.8578	-6.07351	5.29965
 616	1	7	0.307788	8.4569	-4.16687	6.14914
 617	1	8	-0.129718	10.8971	-5.37174	4.80997
 618	1	8	-0.129089	9.84279	-7.26516	4.67339
 619	1	8	-0.119089	10.1351	-6.28102	6.60975
 620	1	8	-0.103894	7.35414	-3.39513	5.96298
 621	1	8	-0.097852	9.57713	-3.39923	6.11048
 622	1	8	-0.104555	8.3333	-4.60232	7.42149
 623	1	2	0.521254	8.69878	-1.78631	1.21413
 624	1	2	0.53569	8.25692	-3.37968	-0.379256
 625	1	1	0.027822	8.49364	-2.0415	-0.144627