pySIMM System Object

2978 atoms
3143 bonds
5471 angles
8146 dihedrals
828 impropers

13 atom types
16 bond types
30 angle types
15 dihedral types
4 improper types

-184.754355 184.754355 xlo xhi
-184.754355 184.754355 ylo yhi
-184.754355 184.754355 zlo zhi

Masses

   1	14.01	# n
   2	12.01	# c
   3	12.01	# ca
   4	1.008	# hn
   5	16.0	# o
   6	1.008	# ha
   7	12.01	# c3
   8	19.0	# f
   9	16.0	# os
  10	1.008	# h1
  11	1.008	# hc
  12	16.0	# oh
  13	1.008	# ho

Pair Coeffs

   1	0.17	3.249998523775958	# n
   2	0.086	3.3996695084235347	# c
   3	0.086	3.3996695084235347	# ca
   4	0.0157	1.069078461768407	# hn
   5	0.21	2.959921901149463	# o
   6	0.015	2.59964245953351	# ha
   7	0.1094	3.3996695084235347	# c3
   8	0.061	3.1181455134911875	# f
   9	0.17	3.0000123434657784	# os
  10	0.0157	2.471353044121301	# h1
  11	0.0157	2.649532787749369	# hc
  12	0.2104	3.0664733878390478	# oh
  13	0.0047	0.5379246460131368	# ho

Bond Coeffs

   1	345.8	1.086	# ca,ha
   2	637.7	1.2183	# c,o
   3	427.6	1.3789	# c,n
   4	321.0	1.5156	# c3,ca
   5	300.9	1.5375	# c3,c3
   6	384.2	1.4121	# ca,n
   7	330.6	1.0969	# c3,h1
   8	330.6	1.0969	# c3,hc
   9	316.7	1.4233	# c3,oh
  10	403.2	1.0129	# hn,n
  11	356.9	1.3497	# c3,f
  12	371.4	0.973	# ho,oh
  13	308.6	1.4316	# c3,os
  14	461.1	1.3984	# ca,ca
  15	345.9	1.4906	# c,ca
  16	390.8	1.3584	# c,os

Angle Coeffs

   1	39.4	107.58	# hc,c3,hc
   2	63.53	120.77	# c3,ca,ca
   3	70.89	107.36	# f,c3,f
   4	67.87	120.19	# ca,ca,n
   5	68.0	107.97	# c3,c3,os
   6	66.11	109.24	# c3,c3,f
   7	46.39	109.56	# c3,c3,h1
   8	62.86	111.51	# c3,c3,c3
   9	75.32	123.25	# o,c,os
  10	63.15	112.07	# c3,c3,ca
  11	63.82	123.71	# c,n,ca
  12	63.56	112.24	# ca,c3,ca
  13	46.34	109.8	# c3,c3,hc
  14	67.47	110.19	# c3,c3,oh
  15	47.38	107.26	# c3,oh,ho
  16	39.24	108.46	# h1,c3,h1
  17	69.32	112.44	# ca,c,os
  18	63.74	127.08	# c,n,c
  19	48.18	119.88	# ca,ca,ha
  20	50.93	110.26	# h1,c3,oh
  21	74.22	123.05	# n,c,o
  22	50.8	109.78	# h1,c3,os
  23	63.28	115.98	# c,os,c3
  24	48.33	117.55	# c,n,hn
  25	66.62	120.02	# ca,ca,ca
  26	68.72	122.6	# ca,c,o
  27	67.68	115.25	# ca,c,n
  28	64.28	120.33	# c,ca,ca
  29	49.75	116.02	# ha,ca,n
  30	46.8	110.47	# ca,c3,hc

Dihedral Coeffs

   1	2	0.0	3	0	0.25	1	0	# hc,c3,c3,os
   2	2	2.5	2	180	2.0	1	0	# hn,n,c,o
   3	1	3.625	2	180	# X,ca,ca,X
   4	2	0.0	3	0	0.25	1	0	# hc,c3,c3,oh
   5	1	0.15555555555555556	3	0	# X,c3,c3,X
   6	2	2.7	2	180	1.4	1	180	# o,c,os,c3
   7	1	1.0	2	180	# X,c,ca,X
   8	1	0.0	2	0	# X,c3,ca,X
   9	2	0.16	3	0	0.25	1	0	# ho,oh,c3,c3
  10	2	0.383	3	0	0.8	1	180	# c3,c3,os,c
  11	1	2.5	2	180	# X,c,n,X
  12	1	0.45	2	180	# X,ca,n,X
  13	1	2.7	2	180	# X,c,os,X
  14	1	0.3833333333333333	3	0	# X,c3,os,X
  15	1	0.16666666666666666	3	0	# X,c3,oh,X

Improper Coeffs

   1	1.1	-1	2	# ca,X,X,ha
   2	1.1	-1	2	# n,X,X,hn
   3	1.1	-1	2	# ca,ca,ca,c3
   4	10.5	-1	2	# c,X,X,o

Atoms

   1	1	1	0.478781	56.7048	55.742	-135.542
   2	1	2	0.051808	57.6901	56.3121	-136.36
   3	1	3	-0.015342	58.8622	56.522	-135.476
   4	1	2	0.052802	57.1589	55.5466	-134.231
   5	1	3	0.058525	58.5481	56.0668	-134.214
   6	1	5	-0.381395	57.6288	56.6306	-137.537
   7	1	5	-0.387279	56.548	55.0968	-133.274
   8	1	3	-0.003007	60.0914	57.1247	-135.761
   9	1	3	-0.04277	59.4562	56.1757	-133.16
  10	1	3	-0.203298	60.7022	56.782	-133.423
  11	1	3	-0.057014	61.0375	57.2845	-134.713
  12	1	6	0.158736	60.2646	57.4725	-136.773
  13	1	6	0.155574	59.1916	55.82	-132.166
  14	1	6	0.172835	61.4067	56.887	-132.6
  15	1	7	-0.114348	62.4127	57.9907	-134.912
  16	1	7	0.394993	63.497	56.8462	-134.946
  17	1	8	-0.128918	63.1342	55.8464	-135.782
  18	1	8	-0.12014	63.67	56.2803	-133.73
  19	1	8	-0.128671	64.7131	57.267	-135.361
  20	1	7	0.329225	62.5045	58.8361	-136.239
  21	1	8	-0.1084	63.6164	59.606	-136.266
  22	1	8	-0.10772	61.461	59.6878	-136.363
  23	1	8	-0.098105	62.5362	58.0717	-137.354
  24	1	3	-0.04356	62.6046	59.0023	-133.745
  25	1	3	-0.061005	61.4907	59.7701	-133.317
  26	1	3	-0.036586	61.6439	60.6571	-132.248
  27	1	3	-0.073054	63.8567	59.2142	-133.099
  28	1	3	-0.129461	63.991	60.1202	-132.026
  29	1	3	-0.055433	62.8555	60.8247	-131.614
  30	1	2	0.497443	62.6601	61.7816	-130.491
  31	1	1	-0.091283	61.3152	62.1284	-130.53
  32	1	2	0.442461	60.6358	61.5028	-131.562
  33	1	3	0.056821	60.6836	62.9484	-129.56
  34	1	3	-0.175202	60.7657	62.5924	-128.207
  35	1	3	-0.086463	60.1446	63.3631	-127.204
  36	1	3	-0.120823	59.9515	64.0885	-129.932
  37	1	3	-0.147764	59.3222	64.8689	-128.947
  38	1	3	-0.091348	59.4196	64.5112	-127.591
  39	1	2	0.723311	60.2705	62.9427	-125.76
  40	1	6	0.16273	64.9414	60.257	-131.515
  41	1	6	0.144736	64.7438	58.6731	-133.407
  42	1	6	0.138526	60.5134	59.6662	-133.782
  43	1	5	-0.452878	59.4514	61.5866	-131.839
  44	1	5	-0.478383	63.5113	62.1637	-129.704
  45	1	6	0.14723	58.7536	65.7496	-129.236
  46	1	6	0.161782	61.3155	61.6994	-127.938
  47	1	6	0.150279	59.8631	64.3607	-130.98
  48	1	6	0.142321	58.9238	65.1257	-126.843
  49	1	5	-0.564646	60.9103	61.9593	-125.41
  50	1	9	-0.344773	59.6385	63.7575	-124.874
  51	1	7	-0.038703	-136.873	95.4116	92.4188
  52	1	10	0.090446	-124.267	-131.716	-15.0594
  53	1	10	0.070639	126.748	172.652	166.875
  54	1	11	0.018298	-136.239	94.7543	93.0269
  55	1	11	0.032617	-136.792	95.0871	91.3737
  56	1	7	0.364059	-138.335	95.3259	92.8873
  57	1	10	-0.049335	-138.401	95.6445	93.9337
  58	1	12	-0.72623	-138.81	93.991	92.7665
  59	1	10	0.033772	-138.95	96.0029	92.2806
  60	1	13	0.432586	-138.374	93.4731	93.4652
  61	1	1	0.478781	48.6507	49.4292	-146.722
  62	1	2	0.051808	49.7189	50.1185	-147.297
  63	1	3	-0.015342	49.9056	51.3203	-146.443
  64	1	2	0.052802	48.0928	50.0988	-145.635
  65	1	3	0.058525	48.9411	51.3014	-145.456
  66	1	5	-0.381395	50.4443	49.7629	-148.211
  67	1	5	-0.387279	47.1929	49.7296	-144.899
  68	1	3	-0.003007	50.921	52.2853	-146.465
  69	1	3	-0.04277	48.9346	52.2467	-144.43
  70	1	3	-0.203298	49.959	53.213	-144.422
  71	1	3	-0.057014	50.9727	53.2496	-145.421
  72	1	6	0.158736	51.6627	52.23	-147.255
  73	1	6	0.155574	48.1861	52.2014	-143.642
  74	1	6	0.172835	49.9826	53.9218	-143.597
  75	1	7	-0.114348	52.1189	54.2949	-145.269
  76	1	7	0.394993	53.337	54.0638	-146.245
  77	1	8	-0.128918	54.3763	54.8769	-145.95
  78	1	8	-0.12014	53.0217	54.2816	-147.542
  79	1	8	-0.128671	53.8246	52.805	-146.165
  80	1	7	0.329225	51.4904	55.7127	-145.571
  81	1	8	-0.1084	50.5962	56.0932	-144.631
  82	1	8	-0.10772	50.8178	55.7122	-146.744
  83	1	8	-0.098105	52.409	56.7012	-145.651
  84	1	3	-0.04356	52.6719	54.1371	-143.821
  85	1	3	-0.061005	52.9126	55.2351	-142.952
  86	1	3	-0.036586	53.3518	54.9783	-141.645
  87	1	3	-0.073054	52.9314	52.8239	-143.334
  88	1	3	-0.129461	53.3789	52.5889	-142.021
  89	1	3	-0.055433	53.572	53.6954	-141.191
  90	1	2	0.497443	53.9582	53.7638	-139.758
  91	1	1	-0.091283	53.9245	55.1112	-139.422
  92	1	2	0.442461	53.5947	55.9121	-140.512
  93	1	3	0.056821	54.1184	55.5907	-138.094
  94	1	3	-0.175202	53.231	56.5307	-137.545
  95	1	3	-0.086463	53.3969	56.9841	-136.221
  96	1	3	-0.120823	55.1736	55.0994	-137.302
  97	1	3	-0.147764	55.3508	55.4938	-135.955
  98	1	3	-0.091348	54.4523	56.4591	-135.451
  99	1	2	0.723311	52.4794	58.0185	-135.612
 100	1	6	0.16273	53.5478	51.5794	-141.651
 101	1	6	0.144736	52.7626	51.9634	-143.977
 102	1	6	0.138526	52.7457	56.2655	-143.25
 103	1	5	-0.452878	53.4609	57.1223	-140.546
 104	1	5	-0.478383	54.1878	52.8113	-139.032
 105	1	6	0.14723	55.2501	54.5968	-135.35
 106	1	6	0.161782	52.4168	56.9207	-138.152
 107	1	6	0.150279	55.8707	54.3865	-137.739
 108	1	6	0.142321	54.5696	56.81	-134.425
 109	1	5	-0.564646	52.6269	58.4482	-134.48
 110	1	9	-0.344773	51.4602	58.4177	-136.42
 111	1	7	-0.038703	-59.9215	184.206	-98.301
 112	1	10	0.090446	82.5643	22.4935	-7.75119
 113	1	10	0.070639	-128.398	-142.729	-129.912
 114	1	11	0.018298	-60.4857	183.708	-97.5022
 115	1	11	0.032617	-59.8341	183.497	-99.1332
 116	1	7	0.364059	-60.6699	-184.042	-98.7648
 117	1	10	-0.049335	-60.1427	-183.602	-99.6187
 118	1	12	-0.72623	-60.7239	-183.096	-97.7055
 119	1	10	0.033772	-61.6838	-184.314	-99.0861
 120	1	13	0.432586	-59.8134	-182.785	-97.559
 121	1	3	-0.024347	44.806	36.1674	-149.348
 122	1	3	-0.071478	44.8552	37.5739	-149.548
 123	1	3	-0.180016	43.6296	38.2983	-149.527
 124	1	5	-0.370097	44.0423	33.2126	-148.778
 125	1	3	0.010306	43.569	35.56	-149.103
 126	1	3	-0.071748	42.3942	37.6662	-149.274
 127	1	5	-0.403598	40.1021	35.665	-148.61
 128	1	3	0.055994	42.397	36.2864	-149.058
 129	1	2	0.021521	43.2473	34.1356	-148.834
 130	1	1	0.466017	41.8686	34.1055	-148.624
 131	1	2	0.096621	41.2763	35.3617	-148.746
 132	1	3	-0.099438	45.7736	40.8018	-146.866
 133	1	7	-0.089685	46.1815	38.3392	-149.842
 134	1	3	-0.037281	46.1827	39.6698	-149.031
 135	1	3	-0.08188	45.7498	39.6484	-147.674
 136	1	3	-0.106561	46.2523	41.9868	-147.431
 137	1	3	-0.037628	46.6705	40.8959	-149.56
 138	1	3	-0.12234	46.688	42.031	-148.738
 139	1	7	0.388954	46.226	38.5542	-151.403
 140	1	7	0.307788	47.4726	37.5563	-149.387
 141	1	8	-0.129718	47.4244	38.9904	-151.852
 142	1	8	-0.129089	45.2963	39.449	-151.809
 143	1	8	-0.119089	45.9639	37.4073	-152.071
 144	1	8	-0.103894	48.5716	38.3444	-149.418
 145	1	8	-0.097852	47.7503	36.4836	-150.161
 146	1	8	-0.104555	47.3643	37.1135	-148.113
 147	1	2	0.521254	47.1874	43.4067	-149.012
 148	1	2	0.53569	46.4571	43.3284	-146.823
 149	1	1	0.027822	47.0325	44.1125	-147.82
 150	1	5	-0.468874	47.6605	43.8022	-150.064
 151	1	5	-0.477974	46.2135	43.6374	-145.668
 152	1	3	-0.359831	47.4703	45.4642	-147.612
 153	1	3	0.131035	48.6687	45.6953	-146.897
 154	1	3	-0.120983	49.0492	47.0194	-146.579
 155	1	3	0.127261	46.6886	46.5447	-148.083
 156	1	3	-0.127195	47.1226	47.8724	-147.855
 157	1	3	0.144798	48.2794	48.1008	-147.073
 158	1	7	-0.020676	45.3747	46.2848	-148.83
 159	1	7	-0.019785	49.5365	44.5143	-146.442
 160	1	6	0.164889	45.6878	35.5362	-149.373
 161	1	6	0.175264	43.6315	39.3716	-149.706
 162	1	6	0.1582	41.462	38.2263	-149.247
 163	1	6	0.150763	45.4524	40.7711	-145.826
 164	1	6	0.144868	45.4022	38.7183	-147.232
 165	1	6	0.134072	47.0546	40.9853	-150.571
 166	1	7	-0.300668	50.2904	47.2855	-145.706
 167	1	7	-0.243237	46.3302	49.0641	-148.417
 168	1	11	0.021835	44.9405	45.3032	-148.611
 169	1	11	0.012312	45.5264	46.3469	-149.914
 170	1	11	0.041777	44.6037	47.0137	-148.553
 171	1	11	0.110598	45.8524	48.8283	-149.376
 172	1	11	0.08293	45.5439	49.3762	-147.716
 173	1	11	0.082252	46.9635	49.9361	-148.62
 174	1	11	0.027698	49.4233	43.6317	-147.082
 175	1	11	0.017051	49.2863	44.2193	-145.416
 176	1	11	0.037874	50.6047	44.7579	-146.476
 177	1	11	0.095908	50.4671	46.4844	-144.978
 178	1	11	0.127068	51.1914	47.38	-146.328
 179	1	11	0.099095	50.2073	48.1955	-145.1
 180	1	3	-0.024347	35.4173	23.3032	-146.109
 181	1	3	-0.071478	35.2342	23.7996	-144.79
 182	1	3	-0.180016	34.9484	22.8593	-143.756
 183	1	5	-0.370097	35.7221	21.6274	-148.696
 184	1	3	0.010306	35.322	21.9235	-146.341
 185	1	3	-0.071748	34.8546	21.4763	-144.014
 186	1	5	-0.403598	34.7629	18.6401	-145.259
 187	1	3	0.055994	35.0437	21.0366	-145.324
 188	1	2	0.021521	35.4717	21.1502	-147.602
 189	1	1	0.466017	35.2812	19.8055	-147.247
 190	1	2	0.096621	34.9954	19.6631	-145.884
 191	1	3	-0.099438	38.8729	25.9355	-145.818
 192	1	7	-0.089685	35.2488	25.3418	-144.541
 193	1	3	-0.037281	36.4534	25.9919	-145.287
 194	1	3	-0.08188	37.7138	25.3301	-145.288
 195	1	3	-0.106561	38.7596	27.2277	-146.341
 196	1	3	-0.037628	36.3844	27.2993	-145.843
 197	1	3	-0.12234	37.5476	27.8846	-146.36
 198	1	7	0.388954	35.4383	25.7317	-143.023
 199	1	7	0.307788	33.85	25.8696	-145.042
 200	1	8	-0.129718	36.4903	25.0828	-142.473
 201	1	8	-0.129089	34.354	25.4659	-142.259
 202	1	8	-0.119089	35.6923	27.0515	-142.867
 203	1	8	-0.103894	32.8355	25.0971	-144.589
 204	1	8	-0.097852	33.7696	25.853	-146.391
 205	1	8	-0.104555	33.5688	27.1293	-144.639
 206	1	2	0.521254	37.7733	29.2587	-146.887
 207	1	2	0.53569	39.8041	28.1613	-146.847
 208	1	1	0.027822	39.1428	29.3564	-147.125
 209	1	5	-0.468874	36.9285	30.1304	-147.001
 210	1	5	-0.477974	40.9996	27.9306	-146.914
 211	1	3	-0.359831	39.8078	30.5702	-147.513
 212	1	3	0.131035	40.3373	31.4182	-146.513
 213	1	3	-0.120983	41.0489	32.5835	-146.884
 214	1	3	0.127261	39.9318	30.9022	-148.881
 215	1	3	-0.127195	40.5783	32.1059	-149.255
 216	1	3	0.144798	41.1576	32.9269	-148.255
 217	1	7	-0.020676	39.3493	29.9667	-149.949
 218	1	7	-0.019785	40.1618	31.0651	-145.029
 219	1	6	0.164889	35.6155	23.97	-146.945
 220	1	6	0.175264	34.7722	23.1775	-142.735
 221	1	6	0.1582	34.629	20.764	-143.223
 222	1	6	0.150763	39.8386	25.4347	-145.782
 223	1	6	0.144868	37.8109	24.3481	-144.832
 224	1	6	0.134072	35.4755	27.8909	-145.834
 225	1	7	-0.300668	41.6818	33.4735	-145.798
 226	1	7	-0.243237	40.6689	32.5038	-150.737
 227	1	11	0.021835	39.344	28.9174	-149.633
 228	1	11	0.012312	39.9278	29.9853	-150.879
 229	1	11	0.041777	38.316	30.2481	-150.187
 230	1	11	0.110598	41.4855	31.9655	-151.237
 231	1	11	0.08293	39.739	32.274	-151.273
 232	1	11	0.082252	40.8328	33.5752	-150.898
 233	1	11	0.027698	41.031	30.5082	-144.658
 234	1	11	0.017051	39.2705	30.4586	-144.834
 235	1	11	0.037874	40.0409	31.959	-144.406
 236	1	11	0.095908	40.9248	34.1203	-145.335
 237	1	11	0.127068	42.1402	32.8714	-145.003
 238	1	11	0.099095	42.4876	34.1201	-146.162
 239	1	1	0.478781	27.5004	9.95929	-157.056
 240	1	2	0.051808	26.8072	10.3225	-155.892
 241	1	3	-0.015342	27.8383	10.8438	-154.959
 242	1	2	0.052802	28.871	10.2298	-156.955
 243	1	3	0.058525	29.0598	10.7954	-155.596
 244	1	5	-0.381395	25.6118	10.2352	-155.661
 245	1	5	-0.387279	29.7561	10.0323	-157.773
 246	1	3	-0.003007	27.7092	11.3031	-153.642
 247	1	3	-0.04277	30.2262	11.2185	-154.957
 248	1	3	-0.203298	30.118	11.6989	-153.636
 249	1	3	-0.057014	28.8697	11.7519	-152.953
 250	1	6	0.158736	26.7225	11.294	-153.192
 251	1	6	0.155574	31.1841	11.1694	-155.47
 252	1	6	0.172835	31.0259	12.0275	-153.135
 253	1	7	-0.114348	28.8475	12.2646	-151.481
 254	1	7	0.394993	27.4048	12.6209	-150.953
 255	1	8	-0.128918	27.4545	13.2663	-149.765
 256	1	8	-0.12014	26.6192	11.5355	-150.771
 257	1	8	-0.128671	26.7493	13.447	-151.799
 258	1	7	0.329225	29.4428	11.1	-150.597
 259	1	8	-0.1084	28.8396	9.91875	-150.864
 260	1	8	-0.10772	29.3056	11.3111	-149.269
 261	1	8	-0.098105	30.7606	10.9075	-150.832
 262	1	3	-0.04356	29.6729	13.585	-151.423
 263	1	3	-0.061005	30.6208	13.8696	-150.401
 264	1	3	-0.036586	31.329	15.0799	-150.45
 265	1	3	-0.073054	29.4616	14.5625	-152.436
 266	1	3	-0.129461	30.182	15.7719	-152.467
 267	1	3	-0.055433	31.1194	16.0004	-151.456
 268	1	2	0.497443	32.0812	17.1189	-151.277
 269	1	1	-0.091283	32.8453	16.7807	-150.17
 270	1	2	0.442461	32.4333	15.5886	-149.589
 271	1	3	0.056821	34.0321	17.4701	-149.804
 272	1	3	-0.175202	35.1024	17.4931	-150.709
 273	1	3	-0.086463	36.2948	18.1669	-150.395
 274	1	3	-0.120823	34.1667	18.1058	-148.555
 275	1	3	-0.147764	35.392	18.6913	-148.153
 276	1	3	-0.091348	36.4033	18.7941	-149.136
 277	1	2	0.723311	37.42	18.2064	-151.403
 278	1	6	0.16273	30.0352	16.4991	-153.263
 279	1	6	0.144736	28.7398	14.3758	-153.227
 280	1	6	0.138526	30.8376	13.1767	-149.595
 281	1	5	-0.452878	32.9219	15.0223	-148.627
 282	1	5	-0.478383	32.2126	18.0797	-152.014
 283	1	6	0.14723	35.7959	17.9969	-147.421
 284	1	6	0.161782	35.0039	17.0085	-151.679
 285	1	6	0.150279	33.3312	18.073	-147.858
 286	1	6	0.142321	37.3117	19.347	-148.9
 287	1	5	-0.564646	37.3615	17.6455	-152.485
 288	1	9	-0.344773	38.5293	18.8744	-150.984
 289	1	7	-0.038703	121.921	6.31168	-135.399
 290	1	10	0.090446	-56.3126	129.927	-11.4417
 291	1	10	0.070639	-0.0840805	112.539	132.498
 292	1	11	0.018298	122.392	6.5725	-134.443
 293	1	11	0.032617	120.856	6.12568	-135.213
 294	1	7	0.364059	122.09	7.4582	-136.411
 295	1	10	-0.049335	123.157	7.64158	-136.579
 296	1	12	-0.72623	121.476	8.64306	-135.917
 297	1	10	0.033772	121.636	7.16655	-137.367
 298	1	13	0.432586	122.065	8.99404	-135.227
 299	1	1	0.478781	35.0271	-1.89393	-162.217
 300	1	2	0.051808	35.5046	-0.581079	-162.121
 301	1	3	-0.015342	34.4178	0.28103	-162.644
 302	1	2	0.052802	33.7507	-1.94341	-162.796
 303	1	3	0.058525	33.3779	-0.526016	-163.047
 304	1	5	-0.381395	36.5748	-0.193842	-161.68
 305	1	5	-0.387279	33.0513	-2.9134	-163.041
 306	1	3	-0.003007	34.3462	1.67535	-162.717
 307	1	3	-0.04277	32.2004	0.0232474	-163.56
 308	1	3	-0.203298	32.1027	1.42998	-163.637
 309	1	3	-0.057014	33.1585	2.28614	-163.208
 310	1	6	0.158736	35.2067	2.23614	-162.371
 311	1	6	0.155574	31.3834	-0.62399	-163.872
 312	1	6	0.172835	31.1769	1.8584	-164.013
 313	1	7	-0.114348	32.9626	3.83751	-163.287
 314	1	7	0.394993	32.8969	4.20656	-164.822
 315	1	8	-0.128918	31.7098	3.86159	-165.368
 316	1	8	-0.12014	33.8538	3.55894	-165.526
 317	1	8	-0.128671	33.0651	5.52157	-165.082
 318	1	7	0.329225	34.1414	4.63859	-162.609
 319	1	8	-0.1084	33.9227	5.97232	-162.575
 320	1	8	-0.10772	35.3218	4.46609	-163.246
 321	1	8	-0.098105	34.3052	4.26912	-161.318
 322	1	3	-0.04356	31.6665	4.24565	-162.52
 323	1	3	-0.061005	31.0393	5.50164	-162.747
 324	1	3	-0.036586	29.9556	5.88107	-161.943
 325	1	3	-0.073054	31.1579	3.42595	-161.471
 326	1	3	-0.129461	30.0455	3.81071	-160.697
 327	1	3	-0.055433	29.4659	5.05501	-160.956
 328	1	2	0.497443	28.4043	5.78554	-160.218
 329	1	1	-0.091283	28.359	7.05631	-160.78
 330	1	2	0.442461	29.2325	7.17994	-161.857
 331	1	3	0.056821	27.6068	8.13295	-160.224
 332	1	3	-0.175202	26.8998	9.02941	-161.041
 333	1	3	-0.086463	26.2292	10.1345	-160.474
 334	1	3	-0.120823	27.6097	8.33641	-158.831
 335	1	3	-0.147764	26.8813	9.37691	-158.215
 336	1	3	-0.091348	26.2609	10.3083	-159.075
 337	1	2	0.723311	25.4969	11.1438	-161.328
 338	1	6	0.16273	29.6805	3.1892	-159.882
 339	1	6	0.144736	31.644	2.48948	-161.214
 340	1	6	0.138526	31.4152	6.21217	-163.477
 341	1	5	-0.452878	29.4445	8.16315	-162.544
 342	1	5	-0.478383	27.7791	5.36135	-159.261
 343	1	6	0.14723	26.0769	8.8896	-157.672
 344	1	6	0.161782	26.9067	8.89155	-162.121
 345	1	6	0.150279	28.2009	7.67073	-158.205
 346	1	6	0.142321	25.7527	11.1722	-158.645
 347	1	5	-0.564646	24.9387	12.1225	-160.86
 348	1	9	-0.344773	25.4826	10.8592	-162.658
 349	1	7	-0.038703	77.1716	-71.8354	-148.415
 350	1	10	0.090446	-143.905	66.6487	83.394
 351	1	10	0.070639	-72.6154	-86.3699	-48.6089
 352	1	11	0.018298	76.9121	-70.835	-148.784
 353	1	11	0.032617	78.2115	-71.8058	-148.067
 354	1	7	0.364059	76.2386	-72.2333	-147.259
 355	1	10	-0.049335	75.2014	-72.2408	-147.613
 356	1	12	-0.72623	76.3681	-71.3094	-146.185
 357	1	10	0.033772	76.4918	-73.2465	-146.921
 358	1	13	0.432586	75.67	-71.5214	-145.542
 359	1	1	0.478781	47.4205	-1.58706	-160.302
 360	1	2	0.051808	47.4704	-2.94651	-160.643
 361	1	3	-0.015342	46.5	-3.11236	-161.759
 362	1	2	0.052802	46.5089	-0.882396	-161.098
 363	1	3	0.058525	45.9308	-1.88587	-162.025
 364	1	5	-0.381395	48.1493	-3.83746	-160.158
 365	1	5	-0.387279	46.2317	0.306442	-161.063
 366	1	3	-0.003007	46.1499	-4.25874	-162.484
 367	1	3	-0.04277	44.979	-1.73121	-163.035
 368	1	3	-0.203298	44.6107	-2.87263	-163.776
 369	1	3	-0.057014	45.1738	-4.1537	-163.514
 370	1	6	0.158736	46.6423	-5.19176	-162.234
 371	1	6	0.155574	44.545	-0.754251	-163.236
 372	1	6	0.172835	43.8759	-2.7546	-164.57
 373	1	7	-0.114348	44.7359	-5.3607	-164.399
 374	1	7	0.394993	45.0904	-6.76445	-163.776
 375	1	8	-0.128918	44.4845	-7.77349	-164.443
 376	1	8	-0.12014	46.4151	-7.03486	-163.79
 377	1	8	-0.128671	44.6758	-6.85998	-162.492
 378	1	7	0.329225	45.5002	-5.1964	-165.77
 379	1	8	-0.1084	46.8177	-4.95693	-165.579
 380	1	8	-0.10772	45.0284	-4.15113	-166.487
 381	1	8	-0.098105	45.4236	-6.28865	-166.564
 382	1	3	-0.04356	43.1839	-5.32913	-164.541
 383	1	3	-0.061005	42.3954	-5.06374	-163.391
 384	1	3	-0.036586	41.0008	-5.02999	-163.51
 385	1	3	-0.073054	42.5112	-5.59578	-165.769
 386	1	3	-0.129461	41.1046	-5.55421	-165.869
 387	1	3	-0.055433	40.371	-5.25877	-164.716
 388	1	2	0.497443	38.9029	-5.13052	-164.507
 389	1	1	-0.091283	38.7469	-4.83034	-163.163
 390	1	2	0.442461	39.9564	-4.75634	-162.489
 391	1	3	0.056821	37.495	-4.6071	-162.539
 392	1	3	-0.175202	36.8119	-5.6723	-161.936
 393	1	3	-0.086463	35.5677	-5.4519	-161.311
 394	1	3	-0.120823	36.9518	-3.31252	-162.491
 395	1	3	-0.147764	35.7808	-3.02756	-161.752
 396	1	3	-0.091348	35.0506	-4.14075	-161.274
 397	1	2	0.723311	34.7845	-6.57863	-160.677
 398	1	6	0.16273	40.5974	-5.7479	-166.812
 399	1	6	0.144736	43.0635	-5.84046	-166.669
 400	1	6	0.138526	42.8515	-4.87874	-162.42
 401	1	5	-0.452878	40.1401	-4.49195	-161.314
 402	1	5	-0.478383	38.0367	-5.22655	-165.358
 403	1	6	0.14723	36.1426	-2.5445	-160.848
 404	1	6	0.161782	37.2395	-6.67198	-161.97
 405	1	6	0.150279	37.5004	-2.49915	-162.963
 406	1	6	0.142321	34.0774	-3.98227	-160.809
 407	1	5	-0.564646	33.739	-6.40239	-160.074
 408	1	9	-0.344773	35.362	-7.80501	-160.798
 409	1	7	-0.038703	60.0392	57.9901	-129.975
 410	1	10	0.090446	152.686	-35.1972	-81.8887
 411	1	10	0.070639	7.39593	-96.3315	-148.747
 412	1	11	0.018298	59.0846	57.4964	-129.759
 413	1	11	0.032617	59.8451	58.7666	-130.723
 414	1	7	0.364059	60.5987	58.6248	-128.692
 415	1	10	-0.049335	59.9151	59.4041	-128.336
 416	1	12	-0.72623	61.8746	59.19	-128.953
 417	1	10	0.033772	60.6811	57.8563	-127.913
 418	1	13	0.432586	62.2109	59.479	-128.055
 419	1	1	0.478781	62.4022	-5.12123	-155.56
 420	1	2	0.051808	61.332	-5.98115	-155.801
 421	1	3	-0.015342	60.1191	-5.12803	-155.708
 422	1	2	0.052802	61.9997	-3.79713	-155.379
 423	1	3	0.058525	60.5146	-3.8299	-155.463
 424	1	5	-0.381395	61.355	-7.18927	-155.967
 425	1	5	-0.387279	62.6909	-2.82533	-155.12
 426	1	3	-0.003007	58.7699	-5.49716	-155.724
 427	1	3	-0.04277	59.5725	-2.81931	-155.248
 428	1	3	-0.203298	58.2037	-3.16974	-155.268
 429	1	3	-0.057014	57.7734	-4.50838	-155.489
 430	1	6	0.158736	58.5417	-6.54735	-155.864
 431	1	6	0.155574	59.8969	-1.80466	-155.026
 432	1	6	0.172835	57.469	-2.39596	-155.055
 433	1	7	-0.114348	56.2631	-4.86238	-155.3
 434	1	7	0.394993	55.8877	-6.28809	-155.859
 435	1	8	-0.128918	54.5514	-6.49665	-155.873
 436	1	8	-0.12014	56.301	-6.43412	-157.138
 437	1	8	-0.128671	56.4187	-7.2998	-155.136
 438	1	7	0.329225	56.0123	-4.83171	-153.741
 439	1	8	-0.1084	54.8687	-5.44111	-153.357
 440	1	8	-0.10772	57.0078	-5.44974	-153.064
 441	1	8	-0.098105	55.9605	-3.56457	-153.272
 442	1	3	-0.04356	55.3554	-3.86049	-156.078
 443	1	3	-0.061005	54.037	-3.56366	-155.639
 444	1	3	-0.036586	53.1973	-2.79845	-156.456
 445	1	3	-0.073054	55.7682	-3.3491	-157.341
 446	1	3	-0.129461	54.9085	-2.56543	-158.144
 447	1	3	-0.055433	53.6135	-2.31152	-157.674
 448	1	2	0.497443	52.455	-1.62339	-158.314
 449	1	1	-0.091283	51.3882	-1.76708	-157.431
 450	1	2	0.442461	51.7641	-2.45062	-156.278
 451	1	3	0.056821	50.06	-1.30321	-157.684
 452	1	3	-0.175202	49.3131	-0.696775	-156.659
 453	1	3	-0.086463	47.9665	-0.338132	-156.869
 454	1	3	-0.120823	49.4583	-1.48407	-158.947
 455	1	3	-0.147764	48.1767	-0.96232	-159.249
 456	1	3	-0.091348	47.4047	-0.531766	-158.146
 457	1	2	0.723311	47.1127	0.226625	-155.757
 458	1	6	0.16273	55.2205	-2.20626	-159.123
 459	1	6	0.144736	56.7524	-3.59737	-157.73
 460	1	6	0.138526	53.6253	-3.95959	-154.718
 461	1	5	-0.452878	51.0737	-2.7572	-155.322
 462	1	5	-0.478383	52.4569	-1.07997	-159.405
 463	1	6	0.14723	48.3965	-0.0443416	-159.787
 464	1	6	0.161782	49.7585	-0.56047	-155.676
 465	1	6	0.150279	50.0207	-1.99368	-159.727
 466	1	6	0.142321	46.3568	-0.26667	-158.297
 467	1	5	-0.564646	45.9312	0.492249	-155.9
 468	1	9	-0.344773	47.7746	0.444065	-154.588
 469	1	7	-0.038703	-158.798	-158.991	3.69831
 470	1	10	0.090446	155.207	122.044	-55.3168
 471	1	10	0.070639	-91.2027	95.6334	-89.8452
 472	1	11	0.018298	-159.786	-158.532	3.5718
 473	1	11	0.032617	-158.055	-158.185	3.74546
 474	1	7	0.364059	-158.757	-159.823	4.99125
 475	1	10	-0.049335	-159.502	-160.624	4.93103
 476	1	12	-0.72623	-159.039	-158.996	6.11349
 477	1	10	0.033772	-157.765	-160.28	5.09762
 478	1	13	0.432586	-159.982	-158.762	6.05972
 479	1	3	-0.024347	74.7595	-9.57431	-151.57
 480	1	3	-0.071478	73.6913	-8.67009	-151.84
 481	1	3	-0.180016	72.6291	-8.58205	-150.897
 482	1	5	-0.370097	76.6742	-11.77	-150.427
 483	1	3	0.010306	74.7079	-10.3582	-150.405
 484	1	3	-0.071748	72.6053	-9.3628	-149.727
 485	1	5	-0.403598	73.1395	-11.3481	-147.435
 486	1	3	0.055994	73.6608	-10.2477	-149.514
 487	1	2	0.021521	75.6426	-11.403	-149.889
 488	1	1	0.466017	75.0685	-11.8573	-148.694
 489	1	2	0.096621	73.8758	-11.1936	-148.398
 490	1	3	-0.099438	70.3714	-9.46574	-154.398
 491	1	7	-0.089685	73.6131	-7.76306	-153.105
 492	1	3	-0.037281	72.1667	-7.9158	-153.675
 493	1	3	-0.08188	71.6846	-9.22785	-153.949
 494	1	3	-0.106561	69.5254	-8.36641	-154.554
 495	1	3	-0.037628	71.277	-6.8229	-153.876
 496	1	3	-0.12234	69.9641	-7.08441	-154.297
 497	1	7	0.388954	74.6154	-8.17351	-154.257
 498	1	7	0.307788	73.965	-6.295	-152.638
 499	1	8	-0.129718	75.9075	-7.90383	-153.965
 500	1	8	-0.129089	74.3322	-7.52598	-155.409
 501	1	8	-0.119089	74.5619	-9.49254	-154.547
 502	1	8	-0.103894	73.0646	-5.7974	-151.76
 503	1	8	-0.097852	74.0342	-5.4198	-153.666
 504	1	8	-0.104555	75.1547	-6.24436	-151.997
 505	1	2	0.521254	68.8092	-6.16169	-154.484
 506	1	2	0.53569	68.0864	-8.31018	-154.923
 507	1	1	0.027822	67.7252	-6.96826	-154.83
 508	1	5	-0.468874	68.8206	-4.95519	-154.31
 509	1	5	-0.477974	67.3743	-9.26673	-155.178
 510	1	3	-0.359831	66.3823	-6.4927	-155.017
 511	1	3	0.131035	65.46	-6.56207	-153.946
 512	1	3	-0.120983	64.1381	-6.09124	-154.127
 513	1	3	0.127261	65.9893	-5.98072	-156.274
 514	1	3	-0.127195	64.6671	-5.50805	-156.461
 515	1	3	0.144798	63.745	-5.56965	-155.386
 516	1	7	-0.020676	66.9997	-5.92231	-157.429
 517	1	7	-0.019785	65.8728	-7.13599	-152.583
 518	1	6	0.164889	75.6106	-9.68969	-152.234
 519	1	6	0.175264	71.8014	-7.89677	-151.068
 520	1	6	0.1582	71.7904	-9.29161	-149.011
 521	1	6	0.150763	70.0121	-10.4756	-154.586
 522	1	6	0.144868	72.3265	-10.0889	-153.785
 523	1	6	0.134072	71.5594	-5.79254	-153.685
 524	1	7	-0.300668	63.1282	-6.18243	-152.967
 525	1	7	-0.243237	64.2443	-4.95318	-157.831
 526	1	11	0.021835	66.5324	-6.12633	-158.398
 527	1	11	0.012312	67.8054	-6.65908	-157.335
 528	1	11	0.041777	67.4645	-4.93016	-157.479
 529	1	11	0.110598	64.9889	-4.24628	-158.219
 530	1	11	0.08293	64.1415	-5.76565	-158.563
 531	1	11	0.082252	63.2951	-4.40761	-157.823
 532	1	11	0.027698	65.9352	-6.3382	-151.833
 533	1	11	0.017051	66.8402	-7.64703	-152.582
 534	1	11	0.037874	65.1422	-7.87457	-152.231
 535	1	11	0.095908	62.6923	-7.18958	-152.915
 536	1	11	0.127068	63.5916	-5.97042	-151.996
 537	1	11	0.099095	62.299	-5.47083	-153.044
 538	1	1	0.478781	82.3102	-24.2766	-151.567
 539	1	2	0.051808	81.7487	-23.0785	-151.083
 540	1	3	-0.015342	80.2769	-23.2405	-151.221
 541	1	2	0.052802	81.3227	-25.1718	-151.993
 542	1	3	0.058525	80.0326	-24.496	-151.73
 543	1	5	-0.381395	82.2982	-22.0974	-150.612
 544	1	5	-0.387279	81.4595	-26.263	-152.528
 545	1	3	-0.003007	79.2345	-22.3406	-150.95
 546	1	3	-0.04277	78.7341	-24.9499	-151.948
 547	1	3	-0.203298	77.6716	-24.0907	-151.612
 548	1	3	-0.057014	77.8879	-22.7722	-151.114
 549	1	6	0.158736	79.4838	-21.3349	-150.625
 550	1	6	0.155574	78.5594	-25.9365	-152.371
 551	1	6	0.172835	76.6701	-24.4586	-151.803
 552	1	7	-0.114348	76.6744	-21.8145	-150.875
 553	1	7	0.394993	76.2528	-21.2838	-152.304
 554	1	8	-0.128918	77.1484	-20.3846	-152.77
 555	1	8	-0.12014	75.0328	-20.7007	-152.319
 556	1	8	-0.128671	76.1931	-22.2619	-153.235
 557	1	7	0.329225	75.4592	-22.565	-150.204
 558	1	8	-0.1084	74.7573	-23.3472	-151.054
 559	1	8	-0.10772	74.5608	-21.702	-149.675
 560	1	8	-0.098105	75.8778	-23.3546	-149.189
 561	1	3	-0.04356	77.0369	-20.6515	-149.893
 562	1	3	-0.061005	76.538	-19.3342	-150.082
 563	1	3	-0.036586	76.8486	-18.3389	-149.152
 564	1	3	-0.073054	77.7811	-20.9081	-148.705
 565	1	3	-0.129461	78.1185	-19.8766	-147.798
 566	1	3	-0.055433	77.6464	-18.5846	-148.064
 567	1	2	0.497443	77.7835	-17.3115	-147.304
 568	1	1	-0.091283	76.9807	-16.3672	-147.96
 569	1	2	0.442461	76.3883	-16.9309	-149.091
 570	1	3	0.056821	76.6995	-15.0329	-147.488
 571	1	3	-0.175202	76.8477	-14.6888	-146.126
 572	1	3	-0.086463	76.6543	-13.3612	-145.69
 573	1	3	-0.120823	76.2176	-14.0211	-148.357
 574	1	3	-0.147764	75.5757	-12.8802	-147.823
 575	1	3	-0.091348	76.1089	-12.4324	-146.598
 576	1	2	0.723311	76.9961	-12.9691	-144.273
 577	1	6	0.16273	78.704	-20.078	-146.903
 578	1	6	0.144736	78.1117	-21.9204	-148.483
 579	1	6	0.138526	75.9021	-19.0551	-150.912
 580	1	5	-0.452878	75.5602	-16.4451	-149.843
 581	1	5	-0.478383	78.4742	-17.1739	-146.312
 582	1	6	0.14723	74.6591	-13.3423	-147.463
 583	1	6	0.161782	77.1882	-15.4197	-145.397
 584	1	6	0.150279	76.1727	-14.1921	-149.43
 585	1	6	0.142321	75.9368	-11.4041	-146.281
 586	1	5	-0.564646	77.2712	-13.7863	-143.408
 587	1	9	-0.344773	76.8435	-11.6467	-143.997
 588	1	7	-0.038703	131.154	0.359127	-132.832
 589	1	10	0.090446	142.128	-100.327	27.4284
 590	1	10	0.070639	166.381	13.2784	-168.767
 591	1	11	0.018298	130.472	0.64491	-132.022
 592	1	11	0.032617	131.03	-0.71526	-133.014
 593	1	7	0.364059	130.822	1.15171	-134.105
 594	1	10	-0.049335	130.952	2.2234	-133.917
 595	1	12	-0.72623	129.48	0.898822	-134.502
 596	1	10	0.033772	131.516	0.859389	-134.902
 597	1	13	0.432586	129.34	1.44054	-135.318
 598	1	1	0.478781	86.3731	-37.5407	-149.935
 599	1	2	0.051808	86.4717	-36.2124	-150.367
 600	1	3	-0.015342	87.0943	-35.4735	-149.239
 601	1	2	0.052802	86.8649	-37.7136	-148.632
 602	1	3	0.058525	87.3208	-36.3654	-148.212
 603	1	5	-0.381395	86.1185	-35.7287	-151.429
 604	1	5	-0.387279	86.9473	-38.738	-147.967
 605	1	3	-0.003007	87.48	-34.1288	-149.146
 606	1	3	-0.04277	87.9183	-35.9553	-147.02
 607	1	3	-0.203298	88.3345	-34.6118	-146.912
 608	1	3	-0.057014	88.1457	-33.677	-147.974
 609	1	6	0.158736	87.3069	-33.4693	-149.994
 610	1	6	0.155574	88.085	-36.6674	-146.215
 611	1	6	0.172835	88.8407	-34.3347	-145.993
 612	1	7	-0.114348	88.7534	-32.2375	-147.954
 613	1	7	0.394993	89.3122	-31.803	-146.542
 614	1	8	-0.128918	90.4058	-32.5061	-146.17
 615	1	8	-0.12014	88.3871	-31.947	-145.565
 616	1	8	-0.128671	89.6688	-30.4987	-146.518
 617	1	7	0.329225	89.9514	-32.2608	-148.986
 618	1	8	-0.1084	90.7299	-33.3525	-148.813
 619	1	8	-0.10772	90.7737	-31.1928	-148.889
 620	1	8	-0.098105	89.5205	-32.3051	-150.267
 621	1	3	-0.04356	87.6537	-31.1946	-148.31