pySIMM System Object

1490 atoms
1569 bonds
2726 angles
4063 dihedrals
415 impropers

13 atom types
16 bond types
30 angle types
15 dihedral types
4 improper types

-143.768820 143.768820 xlo xhi
-143.768820 143.768820 ylo yhi
-143.768820 143.768820 zlo zhi

Masses

   1	12.01	# ca
   2	16.0	# o
   3	12.01	# c
   4	14.01	# n
   5	12.01	# c3
   6	19.0	# f
   7	1.008	# ha
   8	1.008	# hn
   9	1.008	# hc
  10	16.0	# os
  11	1.008	# h1
  12	16.0	# oh
  13	1.008	# ho

Pair Coeffs

   1	0.086	3.3996695084235347	# ca
   2	0.21	2.959921901149463	# o
   3	0.086	3.3996695084235347	# c
   4	0.17	3.249998523775958	# n
   5	0.1094	3.3996695084235347	# c3
   6	0.061	3.1181455134911875	# f
   7	0.015	2.59964245953351	# ha
   8	0.0157	1.069078461768407	# hn
   9	0.0157	2.649532787749369	# hc
  10	0.17	3.0000123434657784	# os
  11	0.0157	2.471353044121301	# h1
  12	0.2104	3.0664733878390478	# oh
  13	0.0047	0.5379246460131368	# ho

Bond Coeffs

   1	403.2	1.0129	# hn,n
   2	461.1	1.3984	# ca,ca
   3	637.7	1.2183	# c,o
   4	345.8	1.086	# ca,ha
   5	300.9	1.5375	# c3,c3
   6	356.9	1.3497	# c3,f
   7	345.9	1.4906	# c,ca
   8	427.6	1.3789	# c,n
   9	384.2	1.4121	# ca,n
  10	321.0	1.5156	# c3,ca
  11	330.6	1.0969	# c3,hc
  12	330.6	1.0969	# c3,h1
  13	316.7	1.4233	# c3,oh
  14	371.4	0.973	# ho,oh
  15	308.6	1.4316	# c3,os
  16	390.8	1.3584	# c,os

Angle Coeffs

   1	66.62	120.02	# ca,ca,ca
   2	66.11	109.24	# c3,c3,f
   3	67.87	120.19	# ca,ca,n
   4	68.72	122.6	# ca,c,o
   5	48.33	117.55	# c,n,hn
   6	67.68	115.25	# ca,c,n
   7	63.15	112.07	# c3,c3,ca
   8	63.82	123.71	# c,n,ca
   9	46.8	110.47	# ca,c3,hc
  10	63.53	120.77	# c3,ca,ca
  11	39.4	107.58	# hc,c3,hc
  12	48.18	119.88	# ca,ca,ha
  13	70.89	107.36	# f,c3,f
  14	64.28	120.33	# c,ca,ca
  15	63.74	127.08	# c,n,c
  16	62.86	111.51	# c3,c3,c3
  17	63.56	112.24	# ca,c3,ca
  18	74.22	123.05	# n,c,o
  19	68.0	107.97	# c3,c3,os
  20	46.39	109.56	# c3,c3,h1
  21	75.32	123.25	# o,c,os
  22	46.34	109.8	# c3,c3,hc
  23	67.47	110.19	# c3,c3,oh
  24	47.38	107.26	# c3,oh,ho
  25	39.24	108.46	# h1,c3,h1
  26	69.32	112.44	# ca,c,os
  27	50.93	110.26	# h1,c3,oh
  28	50.8	109.78	# h1,c3,os
  29	63.28	115.98	# c,os,c3
  30	49.75	116.02	# ha,ca,n

Dihedral Coeffs

   1	1	2.5	2	180	# X,c,n,X
   2	1	0.45	2	180	# X,ca,n,X
   3	1	1.0	2	180	# X,c,ca,X
   4	2	2.5	2	180	2.0	1	0	# hn,n,c,o
   5	1	3.625	2	180	# X,ca,ca,X
   6	1	0.15555555555555556	3	0	# X,c3,c3,X
   7	1	0.0	2	0	# X,c3,ca,X
   8	2	0.0	3	0	0.25	1	0	# hc,c3,c3,os
   9	2	0.0	3	0	0.25	1	0	# hc,c3,c3,oh
  10	2	2.7	2	180	1.4	1	180	# o,c,os,c3
  11	2	0.16	3	0	0.25	1	0	# ho,oh,c3,c3
  12	2	0.383	3	0	0.8	1	180	# c3,c3,os,c
  13	1	2.7	2	180	# X,c,os,X
  14	1	0.3833333333333333	3	0	# X,c3,os,X
  15	1	0.16666666666666666	3	0	# X,c3,oh,X

Improper Coeffs

   1	10.5	-1	2	# c,X,X,o
   2	1.1	-1	2	# n,X,X,hn
   3	1.1	-1	2	# ca,ca,ca,c3
   4	1.1	-1	2	# ca,X,X,ha

Atoms

   1	1	1	-0.024347	-62.0129	9.89479	11.8173
   2	1	1	-0.071478	-61.6585	10.425	13.0804
   3	1	1	-0.180016	-62.7622	10.7708	13.8935
   4	1	2	-0.370097	-62.2996	10.8383	8.97385
   5	1	1	0.010306	-63.0586	10.5588	11.1544
   6	1	1	-0.071748	-63.9097	11.2867	13.2689
   7	1	2	-0.403598	-64.3259	13.6679	11.6618
   8	1	1	0.055994	-63.8752	11.3942	11.8749
   9	1	3	0.021521	-62.6204	11.3859	10.0229
  10	1	4	0.466017	-62.3123	12.7032	10.5866
  11	1	3	0.096621	-63.6131	12.7416	11.3006
  12	1	1	-0.099438	-60.8086	13.0986	8.91946
  13	1	5	-0.089685	-60.3566	11.3097	13.1291
  14	1	1	-0.037281	-60.5734	12.3996	11.991
  15	1	1	-0.08188	-60.1927	12.0202	10.2349
  16	1	1	-0.106561	-61.7949	14.5323	9.33655
  17	1	1	-0.037628	-61.55	13.9005	12.3625
  18	1	1	-0.12234	-62.1561	14.939	10.9825
  19	1	5	0.388954	-59.0873	10.3762	12.913
  20	1	5	0.307788	-60.1311	12.027	14.5344
  21	1	6	-0.129718	-57.8998	11.008	13.0586
  22	1	6	-0.129089	-59.0191	9.81016	11.6983
  23	1	6	-0.119089	-59.1042	9.32565	13.7656
  24	1	6	-0.103894	-61.1786	12.7485	14.9783
  25	1	6	-0.097852	-59.1117	12.9142	14.4815
  26	1	6	-0.104555	-59.8686	11.1659	15.5447
  27	1	3	0.521254	-63.0108	16.1465	10.8632
  28	1	3	0.53569	-62.4706	15.6008	8.56473
  29	1	4	0.027822	-63.1102	16.4531	9.48657
  30	1	2	-0.468874	-63.5417	16.7298	11.7977
  31	1	2	-0.477974	-62.4831	15.6845	7.35125
  32	1	1	-0.359831	-63.8713	17.5741	9.03242
  33	1	1	0.131035	-65.24	17.3921	8.73164
  34	1	1	-0.120983	-65.9981	18.5037	8.31043
  35	1	1	0.127261	-63.2575	18.8508	8.94218
  36	1	1	-0.127195	-64.0359	19.9555	8.53259
  37	1	1	0.144798	-65.3824	19.7594	8.21263
  38	1	5	-0.020676	-61.7787	19.0298	9.29655
  39	1	5	-0.019785	-65.9095	16.0274	8.93519
  40	1	7	0.164889	-61.2375	9.53296	11.1549
  41	1	7	0.175264	-62.6432	10.9578	14.9577
  42	1	7	0.1582	-64.5744	11.9261	13.8465
  43	1	7	0.150763	-60.6149	12.8573	7.87396
  44	1	7	0.144868	-59.6644	11.1158	9.92605
  45	1	7	0.134072	-61.8752	14.1662	13.3692
  46	1	5	-0.300668	-67.4882	18.4231	7.9946
  47	1	5	-0.243237	-63.4888	21.3771	8.43588
  48	1	9	0.021835	-61.4847	18.3906	10.1331
  49	1	9	0.012312	-61.523	20.0522	9.59456
  50	1	9	0.041777	-61.1386	18.7635	8.44746
  51	1	9	0.110598	-64.2794	22.0929	8.1761
  52	1	9	0.08293	-63.062	21.7116	9.38997
  53	1	9	0.082252	-62.7147	21.452	7.66439
  54	1	9	0.027698	-66.2208	15.9044	9.98145
  55	1	9	0.017051	-65.243	15.1951	8.68312
  56	1	9	0.037874	-66.7951	15.8933	8.30512
  57	1	9	0.095908	-67.9133	19.4207	7.82157
  58	1	9	0.127068	-67.6702	17.8252	7.09092
  59	1	9	0.099095	-68.046	17.9715	8.82216
  60	1	4	0.478781	-51.1525	17.6526	4.84894
  61	1	3	0.051808	-51.3783	17.0415	6.09167
  62	1	1	-0.015342	-51.2737	15.5823	5.84788
  63	1	3	0.052802	-50.9561	16.7049	3.83052
  64	1	1	0.058525	-51.0477	15.3789	4.5055
  65	1	2	-0.381395	-51.6099	17.5577	7.17336
  66	1	2	-0.387279	-50.6964	16.9014	2.65151
  67	1	1	-0.003007	-51.3063	14.5212	6.75874
  68	1	1	-0.04277	-50.9052	14.084	3.99451
  69	1	1	-0.203298	-50.959	12.9943	4.89401
  70	1	1	-0.057014	-51.1549	13.1865	6.29093
  71	1	7	0.158736	-51.4356	14.7468	7.81717
  72	1	7	0.155574	-50.7367	13.932	2.92959
  73	1	7	0.172835	-50.825	12.0001	4.48008
  74	1	5	-0.114348	-51.1327	12.0102	7.32115
  75	1	5	0.394993	-49.6634	11.9703	7.8941
  76	1	6	-0.128918	-48.726	12.0056	6.919
  77	1	6	-0.12014	-49.3943	10.8718	8.63619
  78	1	6	-0.128671	-49.4341	13.0456	8.6809
  79	1	5	0.329225	-51.5058	10.5997	6.71766
  80	1	6	-0.1084	-50.5513	10.1047	5.90159
  81	1	6	-0.10772	-52.653	10.6388	6.00394
  82	1	6	-0.098105	-51.6982	9.66994	7.68545
  83	1	1	-0.04356	-52.1958	12.3136	8.41354
  84	1	1	-0.061005	-53.4489	12.8471	8.01571
  85	1	1	-0.036586	-54.3764	13.2116	8.99756
  86	1	1	-0.073054	-51.9607	12.1051	9.80429
  87	1	1	-0.129461	-52.924	12.4455	10.7735
  88	1	1	-0.055433	-54.1304	12.999	10.3366
  89	1	3	0.497443	-55.3211	13.4575	11.1035
  90	1	4	-0.091283	-56.207	13.9468	10.161
  91	1	3	0.442461	-55.7197	13.839	8.86636
  92	1	1	0.056821	-57.4554	14.5427	10.4769
  93	1	1	-0.175202	-57.5626	15.9253	10.468
  94	1	1	-0.086463	-58.6976	16.4435	11.0977
  95	1	1	-0.120823	-58.5703	13.7851	10.9039
  96	1	1	-0.147764	-59.9977	14.2263	10.7371
  97	1	1	-0.091348	-59.7552	15.54	11.41
  98	1	3	0.723311	-58.7672	17.892	11.5143
  99	1	7	0.16273	-52.7388	12.2845	11.8345
 100	1	7	0.144736	-51.0313	11.682	10.164
 101	1	7	0.138526	-53.6927	13.0109	6.96663
 102	1	2	-0.452878	-56.3048	14.0975	7.83
 103	1	2	-0.478383	-55.493	13.3702	12.3056
 104	1	7	0.14723	-59.673	14.7131	9.82261
 105	1	7	0.161782	-56.7174	16.5535	10.1946
 106	1	7	0.150279	-58.2819	12.7788	11.1918
 107	1	7	0.142321	-60.4338	16.0162	12.1207
 108	1	2	-0.564646	-59.7635	18.4037	11.9909
 109	1	10	-0.344773	-57.6238	18.5948	11.2995
 110	1	5	-0.038703	40.0304	63.1442	130.898
 111	1	11	0.090446	-138.541	8.52817	83.0988
 112	1	11	0.070639	65.0691	-6.44284	-32.4043
 113	1	9	0.018298	40.6359	62.9772	129.999
 114	1	9	0.032617	39.0114	63.3949	130.578
 115	1	5	0.364059	40.0132	61.8783	131.772
 116	1	11	-0.049335	41.0378	61.6296	132.071
 117	1	12	-0.72623	39.4511	60.79	131.048
 118	1	11	0.033772	39.4272	62.0723	132.679
 119	1	13	0.432586	40.0987	60.5397	130.366
 120	1	4	0.478781	-57.551	17.5948	6.01429
 121	1	3	0.051808	-56.9979	18.154	7.17565
 122	1	1	-0.015342	-57.8679	19.3118	7.51744
 123	1	3	0.052802	-58.6945	18.2825	5.59458
 124	1	1	0.058525	-58.8802	19.3737	6.58647
 125	1	2	-0.381395	-55.9452	17.867	7.72308
 126	1	2	-0.387279	-59.3254	18.1496	4.55814
 127	1	1	-0.003007	-57.6888	20.3278	8.46518
 128	1	1	-0.04277	-59.8047	20.4197	6.59141
 129	1	1	-0.203298	-59.6202	21.4751	7.50788
 130	1	1	-0.057014	-58.5232	21.4821	8.41357
 131	1	7	0.158736	-56.8344	20.2733	9.13678
 132	1	7	0.155574	-60.595	20.4491	5.83836
 133	1	7	0.172835	-60.301	22.3149	7.44516
 134	1	5	-0.114348	-58.0921	22.758	9.20493
 135	1	5	0.394993	-58.7677	24.0929	8.70723
 136	1	6	-0.128918	-58.1926	25.1728	9.28171
 137	1	6	-0.12014	-60.0924	24.168	8.98996
 138	1	6	-0.128671	-58.6279	24.2747	7.37206
 139	1	5	0.329225	-58.4907	22.5325	10.7131
 140	1	6	-0.1084	-57.7619	21.5551	11.2923
 141	1	6	-0.10772	-59.7832	22.1495	10.8184
 142	1	6	-0.098105	-58.351	23.6462	11.4745
 143	1	1	-0.04356	-56.5549	22.9017	8.95988
 144	1	1	-0.061005	-56.0439	22.6527	7.65587
 145	1	1	-0.036586	-54.6611	22.5251	7.4744
 146	1	1	-0.073054	-55.6188	23.1533	10.0008
 147	1	1	-0.129461	-54.2256	23.0628	9.78324
 148	1	1	-0.055433	-53.7697	22.7074	8.50801
 149	1	3	0.497443	-52.4114	22.3145	8.02717
 150	1	4	-0.091283	-52.6042	21.8283	6.73654
 151	1	3	0.442461	-53.913	21.9985	6.30836
 152	1	1	0.056821	-51.6368	21.0957	5.98675
 153	1	1	-0.175202	-50.3257	21.5686	5.84163
 154	1	1	-0.086463	-49.3657	20.8122	5.14283
 155	1	1	-0.120823	-51.9804	19.8515	5.41783
 156	1	1	-0.147764	-51.07	19.081	4.65502
 157	1	1	-0.091348	-49.7465	19.5736	4.57492
 158	1	3	0.723311	-47.9451	21.3161	5.05428
 159	1	7	0.16273	-53.5212	23.1798	10.6037
 160	1	7	0.144736	-55.9544	23.3633	11.0102
 161	1	7	0.138526	-56.7063	22.4327	6.81857
 162	1	2	-0.452878	-54.3954	21.6707	5.23962
 163	1	2	-0.478383	-51.3705	22.3758	8.66065
 164	1	7	0.14723	-51.4601	19.059	3.64219
 165	1	7	0.161782	-50.0381	22.5132	6.29956
 166	1	7	0.150279	-52.9891	19.4705	5.57429
 167	1	7	0.142321	-48.994	18.9714	4.06339
 168	1	2	-0.564646	-47.5413	22.2896	5.66807
 169	1	10	-0.344773	-47.1485	20.5996	4.21519
 170	1	5	-0.038703	101.344	34.4157	56.3044
 171	1	11	0.090446	26.0076	-32.7167	-4.53676
 172	1	11	0.070639	80.5055	-34.3412	21.8983
 173	1	9	0.018298	102.305	34.0824	56.7161
 174	1	9	0.032617	100.804	33.5297	55.9482
 175	1	5	0.364059	100.521	35.1372	57.3849
 176	1	11	-0.049335	101.072	36.0169	57.735
 177	1	12	-0.72623	100.279	34.2618	58.4794
 178	1	11	0.033772	99.5702	35.4749	56.9526
 179	1	13	0.432586	101.127	34.1497	58.943
 180	1	4	0.478781	-44.5824	20.7101	-0.837548
 181	1	3	0.051808	-45.6379	21.2809	-1.55551
 182	1	1	-0.015342	-46.8705	20.7834	-0.885987
 183	1	3	0.052802	-45.0287	19.9323	0.23649
 184	1	1	0.058525	-46.5087	20.0016	0.18932
 185	1	2	-0.381395	-45.5918	22.0701	-2.48493
 186	1	2	-0.387279	-44.362	19.3397	1.06863
 187	1	1	-0.003007	-48.2066	21.0639	-1.17025
 188	1	1	-0.04277	-47.4676	19.4339	1.03289
 189	1	1	-0.203298	-48.8238	19.699	0.758265
 190	1	1	-0.057014	-49.2202	20.527	-0.3337
 191	1	7	0.158736	-48.4118	21.729	-1.99903
 192	1	7	0.155574	-47.1627	18.8363	1.89281
 193	1	7	0.172835	-49.5712	19.2911	1.43679
 194	1	5	-0.114348	-50.7124	20.9406	-0.488141
 195	1	5	0.394993	-50.8948	22.1875	0.459249
 196	1	6	-0.128918	-52.1231	22.7436	0.352927
 197	1	6	-0.12014	-50.0029	23.1747	0.208298
 198	1	6	-0.128671	-50.7041	21.844	1.75368
 199	1	5	0.329225	-51.1053	21.3409	-1.96831
 200	1	6	-0.1084	-50.7172	20.4093	-2.86731
 201	1	6	-0.10772	-50.5666	22.509	-2.38474
 202	1	6	-0.098105	-52.4438	21.4694	-2.10748
 203	1	1	-0.04356	-51.6058	19.7358	-0.0668518
 204	1	1	-0.061005	-52.6745	19.8404	0.865885
 205	1	1	-0.036586	-53.3559	18.6808	1.24756
 206	1	1	-0.073054	-51.309	18.451	-0.598936
 207	1	1	-0.129461	-52.0143	17.295	-0.204303
 208	1	1	-0.055433	-53.0368	17.4427	0.737875
 209	1	3	0.497443	-53.9123	16.4331	1.39851
 210	1	4	-0.091283	-54.7257	17.1528	2.26834
 211	1	3	0.442461	-54.4605	18.513	2.22167
 212	1	1	0.056821	-55.7358	16.5839	3.09818
 213	1	1	-0.175202	-56.6146	15.6141	2.58824
 214	1	1	-0.086463	-57.6533	15.0919	3.38672
 215	1	1	-0.120823	-55.8907	17.0132	4.42995
 216	1	1	-0.147764	-56.9335	16.5403	5.2565
 217	1	1	-0.091348	-57.8249	15.5998	4.69045
 218	1	3	0.723311	-58.5805	14.0048	2.8818
 219	1	7	0.16273	-51.7577	16.3127	-0.594297
 220	1	7	0.144736	-50.494	18.3384	-1.30942
 221	1	7	0.138526	-52.9753	20.7753	1.32548
 222	1	2	-0.452878	-54.9821	19.3994	2.87448
 223	1	2	-0.478383	-53.8766	15.226	1.23165
 224	1	7	0.14723	-56.4841	16.0624	6.12252
 225	1	7	0.161782	-56.4922	15.2628	1.56759
 226	1	7	0.150279	-55.212	17.7658	4.82787
 227	1	7	0.142321	-58.6543	15.2215	5.2888
 228	1	2	-0.564646	-59.4036	13.4568	3.59609
 229	1	10	-0.344773	-58.3388	13.5968	1.60474
 230	1	5	-0.038703	13.8021	-9.38372	-33.6164
 231	1	11	0.090446	5.71915	126.38	-66.0191
 232	1	11	0.070639	122.407	60.1582	116.554
 233	1	9	0.018298	13.0647	-9.75032	-32.8919
 234	1	9	0.032617	13.439	-8.42619	-34.0097
 235	1	5	0.364059	15.1748	-9.19544	-32.9367
 236	1	11	-0.049335	15.5062	-10.1531	-32.5183
 237	1	12	-0.72623	15.0818	-8.22819	-31.8941
 238	1	11	0.033772	15.9131	-8.87664	-33.6841
 239	1	13	0.432586	14.5799	-8.64343	-31.1707
 240	1	1	-0.024347	-31.0914	18.3764	-3.89689
 241	1	1	-0.071478	-32.4161	18.8537	-3.66972
 242	1	1	-0.180016	-33.0973	19.4582	-4.7649
 243	1	2	-0.370097	-28.5468	17.1149	-5.15255
 244	1	1	0.010306	-30.5037	18.5353	-5.15943
 245	1	1	-0.071748	-32.4702	19.657	-6.01258
 246	1	2	-0.403598	-30.6476	19.5447	-8.51218
 247	1	1	0.055994	-31.1621	19.1901	-6.17901
 248	1	3	0.021521	-29.285	17.8965	-5.72927
 249	1	4	0.466017	-29.313	18.2217	-7.08711
 250	1	3	0.096621	-30.3623	19.0744	-7.42168
 251	1	1	-0.099438	-35.4019	21.7699	-2.18531
 252	1	5	-0.089685	-33.1643	18.5759	-2.32318
 253	1	1	-0.037281	-34.4425	19.4814	-2.18684
 254	1	1	-0.08188	-34.3001	20.8933	-2.302
 255	1	1	-0.106561	-36.6741	21.2239	-1.96506
 256	1	1	-0.037628	-35.7554	18.9755	-1.94271
 257	1	1	-0.12234	-36.8395	19.8622	-1.86401
 258	1	5	0.388954	-32.2444	18.8844	-1.07857
 259	1	5	0.307788	-33.538	17.0485	-2.33156
 260	1	6	-0.129718	-32.9541	18.8977	0.0771328
 261	1	6	-0.129089	-31.64	20.0913	-1.19094
 262	1	6	-0.119089	-31.244	17.9925	-0.90725
 263	1	6	-0.103894	-34.4162	16.7834	-3.32463
 264	1	6	-0.097852	-32.4818	16.2396	-2.54458
 265	1	6	-0.104555	-34.0766	16.6354	-1.16475
 266	1	3	0.521254	-38.2917	19.5808	-1.69992
 267	1	3	0.53569	-38.0208	21.8687	-1.85212
 268	1	4	0.027822	-38.9378	20.8208	-1.67811
 269	1	2	-0.468874	-38.7961	18.4727	-1.62825
 270	1	2	-0.477974	-38.2458	23.0622	-1.97837
 271	1	1	-0.359831	-40.3744	20.9492	-1.52252
 272	1	1	0.131035	-40.9396	21.4488	-0.324173
 273	1	1	-0.120983	-42.3492	21.5258	-0.188799
 274	1	1	0.127261	-41.2247	20.4646	-2.54564
 275	1	1	-0.127195	-42.6202	20.3252	-2.31007
 276	1	1	0.144798	-43.1878	20.8804	-1.13349
 277	1	5	-0.020676	-40.6243	20.1302	-3.9162
 278	1	5	-0.019785	-40.0438	21.8737	0.844418
 279	1	7	0.164889	-30.5394	17.8079	-3.15668
 280	1	7	0.175264	-34.1367	19.7501	-4.67485
 281	1	7	0.1582	-33.0044	20.0906	-6.85218
 282	1	7	0.150763	-35.2731	22.8448	-2.28106
 283	1	7	0.144868	-33.3232	21.3235	-2.501
 284	1	7	0.134072	-35.9734	17.9185	-1.84093
 285	1	5	-0.300668	-42.9806	22.253	1.00959
 286	1	5	-0.243237	-43.5138	19.5781	-3.3127
 287	1	9	0.021835	-40.4242	19.0565	-4.01189
 288	1	9	0.012312	-39.6879	20.6684	-4.10937
 289	1	9	0.041777	-41.3065	20.4237	-4.72307
 290	1	9	0.110598	-42.9555	18.8103	-3.86604
 291	1	9	0.08293	-44.3353	19.043	-2.82167
 292	1	9	0.082252	-43.9549	20.2684	-4.04394
 293	1	9	0.027698	-40.0159	22.966	0.942446
 294	1	9	0.017051	-39.0102	21.5231	0.751458
 295	1	9	0.037874	-40.4144	21.454	1.78773
 296	1	9	0.095908	-43.9144	22.7594	0.733875
 297	1	9	0.127068	-43.2028	21.5617	1.83379
 298	1	9	0.099095	-42.3358	23.0458	1.40811
 299	1	1	-0.024347	-24.4136	10.3211	-16.3413
 300	1	1	-0.071478	-24.4836	11.7334	-16.4388
 301	1	1	-0.180016	-23.3044	12.4231	-16.8526
 302	1	2	-0.370097	-23.8219	7.35265	-16.5092
 303	1	1	0.010306	-23.2545	9.66271	-16.7471
 304	1	1	-0.071748	-22.1403	11.7268	-17.279
 305	1	2	-0.403598	-20.1702	9.53355	-18.4061
 306	1	1	0.055994	-22.1594	10.3251	-17.2579
 307	1	3	0.021521	-23.0485	8.21369	-16.8949
 308	1	4	0.466017	-21.8564	8.06857	-17.6122
 309	1	3	0.096621	-21.2198	9.3032	-17.8239
 310	1	1	-0.099438	-26.2072	16.1735	-15.0926
 311	1	5	-0.089685	-25.8539	12.4839	-16.357
 312	1	1	-0.037281	-25.7582	13.7634	-15.4588
 313	1	1	-0.08188	-26.0641	15.0688	-15.9506
 314	1	1	-0.106561	-26.0735	15.9608	-13.7246
 315	1	1	-0.037628	-25.5439	13.6248	-14.0571
 316	1	1	-0.12234	-25.7433	14.7291	-13.2127
 317	1	5	0.388954	-27.0403	11.6154	-15.7496
 318	1	5	0.307788	-26.2555	12.7994	-17.855
 319	1	6	-0.129718	-26.73	11.0615	-14.5572
 320	1	6	-0.129089	-27.4215	10.5843	-16.5367
 321	1	6	-0.119089	-28.1521	12.3639	-15.537
 322	1	6	-0.103894	-25.3696	13.6111	-18.4755
 323	1	6	-0.097852	-27.4686	13.394	-17.9496
 324	1	6	-0.104555	-26.3063	11.6889	-18.6247
 325	1	3	0.521254	-25.9109	14.7971	-11.7317
 326	1	3	0.53569	-26.4547	16.8542	-12.6125
 327	1	4	0.027822	-26.4045	16.0779	-11.4596
 328	1	2	-0.468874	-25.8296	13.8479	-10.9712
 329	1	2	-0.477974	-26.8983	17.9811	-12.7413
 330	1	1	-0.359831	-27.0536	16.4923	-10.2366
 331	1	1	0.131035	-28.3659	16.034	-9.9682
 332	1	1	-0.120983	-29.0762	16.5373	-8.84969
 333	1	1	0.127261	-26.4672	17.4903	-9.42196
 334	1	1	-0.127195	-27.2219	18.0789	-8.37623
 335	1	1	0.144798	-28.5164	17.5917	-8.08687
 336	1	5	-0.020676	-25.0457	17.9765	-9.71674
 337	1	5	-0.019785	-29.0405	15.0465	-10.9322
 338	1	7	0.164889	-25.2572	9.70287	-16.0548
 339	1	7	0.175264	-23.3234	13.4998	-16.9403
 340	1	7	0.1582	-21.2873	12.2539	-17.6897
 341	1	7	0.150763	-26.5155	17.1432	-15.4741
 342	1	7	0.144868	-26.2528	15.2575	-16.9991
 343	1	7	0.134072	-25.3177	12.6598	-13.6099
 344	1	5	-0.300668	-30.485	16.0146	-8.51687
 345	1	5	-0.243237	-26.6418	19.235	-7.54733
 346	1	9	0.021835	-24.4357	17.2145	-10.2182
 347	1	9	0.012312	-24.4993	18.2285	-8.79878
 348	1	9	0.041777	-25.0632	18.8658	-10.3584
 349	1	9	0.110598	-26.0158	19.899	-8.1548
 350	1	9	0.08293	-27.4022	19.8855	-7.10035
 351	1	9	0.082252	-26.0187	18.8514	-6.72715
 352	1	9	0.027698	-28.8023	14.0121	-10.6585
 353	1	9	0.017051	-28.7297	15.1948	-11.9732
 354	1	9	0.037874	-30.131	15.1564	-10.9511
 355	1	9	0.095908	-30.597	14.9559	-8.78077
 356	1	9	0.127068	-30.7254	16.0618	-7.44685
 357	1	9	0.099095	-31.2544	16.5783	-9.06061
 358	1	4	0.478781	-10.7364	-2.25942	-22.7902
 359	1	3	0.051808	-10.3359	-0.919036	-22.6611
 360	1	1	-0.015342	-11.462	-0.230547	-21.9768
 361	1	3	0.052802	-12.0579	-2.45824	-22.3894
 362	1	1	0.058525	-12.4888	-1.14424	-21.8483
 363	1	2	-0.381395	-9.27146	-0.407423	-22.9636
 364	1	2	-0.387279	-12.7017	-3.49524	-22.3791
 365	1	1	-0.003007	-11.5119	1.03805	-21.3805
 366	1	1	-0.04277	-13.6498	-0.824779	-21.1503
 367	1	1	-0.203298	-13.7412	0.456972	-20.5769
 368	1	1	-0.057014	-12.6823	1.40783	-20.6587
 369	1	7	0.158736	-10.6382	1.67443	-21.4627
 370	1	7	0.155574	-14.4479	-1.55775	-21.0333
 371	1	7	0.172835	-14.643	0.7055	-20.0278
 372	1	5	-0.114348	-12.8383	2.76784	-19.9082
 373	1	5	0.394993	-12.6313	2.45831	-18.3767
 374	1	6	-0.128918	-13.6709	1.74816	-17.8793
 375	1	6	-0.12014	-12.5214	3.56073	-17.6077
 376	1	6	-0.128671	-11.5097	1.74272	-18.1478
 377	1	5	0.329225	-11.8304	3.86848	-20.4129
 378	1	6	-0.1084	-12.1569	5.10714	-19.9697
 379	1	6	-0.10772	-11.8027	3.95078	-21.764
 380	1	6	-0.098105	-10.5626	3.63462	-20.0261
 381	1	1	-0.04356	-14.249	3.33159	-20.2254
 382	1	1	-0.061005	-15.1219	3.89112	-19.2486
 383	1	1	-0.036586	-16.3961	4.33268	-19.6468
 384	1	1	-0.073054	-14.6853	3.28274	-21.5788
 385	1	1	-0.129461	-15.9754	3.6841	-21.9562
 386	1	1	-0.055433	-16.8038	4.20902	-20.9625
 387	1	3	0.497443	-18.1883	4.70565	-21.0699
 388	1	4	-0.091283	-18.5654	5.07322	-19.7852
 389	1	3	0.442461	-17.527	4.92087	-18.8644
 390	1	1	0.056821	-19.8945	5.45545	-19.4577
 391	1	1	-0.175202	-20.9532	4.7396	-20.0351
 392	1	1	-0.086463	-22.2808	5.11281	-19.793
 393	1	1	-0.120823	-20.1723	6.53535	-18.5902
 394	1	1	-0.147764	-21.4937	6.77741	-18.1374
 395	1	1	-0.091348	-22.525	6.15052	-18.8833
 396	1	3	0.723311	-23.4297	4.45564	-20.5113
 397	1	7	0.16273	-16.3127	3.6048	-22.9886
 398	1	7	0.144736	-14.0376	2.87403	-22.3506
 399	1	7	0.138526	-14.8457	3.98095	-18.2041
 400	1	2	-0.452878	-17.5184	5.19517	-17.6736
 401	1	2	-0.478383	-18.845	4.73473	-22.0958
 402	1	7	0.14723	-21.5258	6.26295	-17.1801
 403	1	7	0.161782	-20.7484	3.91985	-20.7253
 404	1	7	0.150279	-19.3444	7.1063	-18.1769
 405	1	7	0.142321	-23.566	6.43379	-18.7324
 406	1	2	-0.564646	-24.5875	4.81314	-20.3774
 407	1	10	-0.344773	-23.0534	3.49367	-21.396
 408	1	5	-0.038703	75.3354	-27.8847	-135.912
 409	1	11	0.090446	-72.1185	-143.099	34.1913
 410	1	11	0.070639	-38.0894	71.1535	-59.5177
 411	1	9	0.018298	74.8619	-28.6308	-136.559
 412	1	9	0.032617	75.0832	-26.8923	-136.298
 413	1	5	0.364059	74.8481	-28.0489	-134.461
 414	1	11	-0.049335	75.1241	-29.0466	-134.097
 415	1	12	-0.72623	73.436	-27.8899	-134.385
 416	1	11	0.033772	75.345	-27.3082	-133.819
 417	1	13	0.432586	73.2319	-26.9809	-134.663
 418	1	1	-0.024347	-0.26868	-10.541	-26.2525
 419	1	1	-0.071478	-1.48728	-10.1095	-26.842
 420	1	1	-0.180016	-2.31951	-11.1182	-27.4122
 421	1	2	-0.370097	2.26722	-11.9998	-25.3659
 422	1	1	0.010306	0.0575254	-11.9077	-26.2562
 423	1	1	-0.071748	-1.9494	-12.4782	-27.4395
 424	1	2	-0.403598	-0.495396	-15.209	-27.3153
 425	1	1	0.055994	-0.751522	-12.8504	-26.84
 426	1	3	0.021521	1.30212	-12.5835	-25.8317
 427	1	4	0.466017	1.18511	-13.9307	-26.2193
 428	1	3	0.096621	-0.0614326	-14.1727	-26.8276
 429	1	1	-0.099438	-4.82716	-9.27991	-24.3419
 430	1	5	-0.089685	-1.95378	-8.61374	-26.9031
 431	1	1	-0.037281	-3.283	-8.47408	-26.1052
 432	1	1	-0.08188	-3.65069	-9.4254	-25.1092
 433	1	1	-0.106561	-5.61143	-8.12962	-24.532
 434	1	1	-0.037628	-4.10361	-7.32911	-26.2665
 435	1	1	-0.12234	-5.23448	-7.1829	-25.463
 436	1	5	0.388954	-2.13186	-8.22311	-28.4318
 437	1	5	0.307788	-0.92255	-7.61046	-26.2538
 438	1	6	-0.129718	-2.18979	-6.8906	-28.659
 439	1	6	-0.129089	-3.2687	-8.71353	-28.969
 440	1	6	-0.119089	-1.10439	-8.68616	-29.1835
 441	1	6	-0.103894	-0.641348	-7.91016	-24.9635
 442	1	6	-0.097852	-1.37871	-6.33929	-26.2235
 443	1	6	-0.104555	0.243979	-7.57158	-26.9388
 444	1	3	0.521254	-6.13834	-6.01703	-25.3494
 445	1	3	0.53569	-6.7978	-7.58791	-23.7939
 446	1	4	0.027822	-7.02549	-6.30961	-24.3175
 447	1	2	-0.468874	-6.03387	-4.98066	-25.984
 448	1	2	-0.477974	-7.37798	-8.11818	-22.859
 449	1	1	-0.359831	-8.02972	-5.37433	-23.8646
 450	1	1	0.131035	-9.19934	-5.16972	-24.6367
 451	1	1	-0.120983	-10.089	-4.11635	-24.3073
 452	1	1	0.127261	-7.8184	-4.62919	-22.6768
 453	1	1	-0.127195	-8.76721	-3.64894	-22.2847
 454	1	1	0.144798	-9.85554	-3.33763	-23.1434
 455	1	5	-0.020676	-6.57924	-4.91885	-21.8187
 456	1	5	-0.019785	-9.45429	-6.04816	-25.8728
 457	1	7	0.164889	0.450712	-9.85693	-25.8278
 458	1	7	0.175264	-3.26977	-10.8486	-27.8419
 459	1	7	0.1582	-2.57756	-13.2162	-27.9172
 460	1	7	0.150763	-5.09171	-10.0095	-23.5803
 461	1	7	0.144868	-3.02249	-10.2891	-24.8937
 462	1	7	0.134072	-3.84416	-6.52855	-26.9553
 463	1	5	-0.300668	-11.3039	-3.85198	-25.2146
 464	1	5	-0.243237	-8.64413	-2.92295	-20.9297
 465	1	9	0.021835	-5.71331	-5.22467	-22.4205
 466	1	9	0.012312	-6.78845	-5.71323	-21.0949
 467	1	9	0.041777	-6.23915	-4.03969	-21.261
 468	1	9	0.110598	-8.05972	-3.48608	-20.1915
 469	1	9	0.08293	-8.18089	-1.93483	-21.0408
 470	1	9	0.082252	-9.62267	-2.78606	-20.4548
 471	1	9	0.027698	-10.5195	-6.26247	-26.0193
 472	1	9	0.017051	-8.96613	-7.02697	-25.8005
 473	1	9	0.037874	-9.08896	-5.55206	-26.7801
 474	1	9	0.095908	-11.7841	-2.88354	-25.0534
 475	1	9	0.127068	-11.0211	-3.86986	-26.2796
 476	1	9	0.099095	-12.0681	-4.62147	-25.0545
 477	1	4	0.478781	9.20981	-18.8362	-14.7007
 478	1	3	0.051808	9.8438	-18.7067	-15.9321
 479	1	1	-0.015342	9.46592	-17.3536	-16.4011
 480	1	3	0.052802	8.42884	-17.7525	-14.362
 481	1	1	0.058525	8.66287	-16.7647	-15.4423
 482	1	2	-0.381395	10.5776	-19.5023	-16.4881
 483	1	2	-0.387279	7.7101	-17.6471	-13.3791
 484	1	1	-0.003007	9.83267	-16.7034	-17.5809
 485	1	1	-0.04277	8.21606	-15.4608	-15.5858
 486	1	1	-0.203298	8.54234	-14.8072	-16.7886
 487	1	1	-0.057014	9.35471	-15.3805	-17.8133
 488	1	7	0.158736	10.4628	-17.2486	-18.2734
 489	1	7	0.155574	7.5928	-15.0054	-14.8143
 490	1	7	0.172835	8.08491	-13.834	-16.8971
 491	1	5	-0.114348	9.48842	-14.6344	-19.1924
 492	1	5	0.394993	10.7096	-15.1978	-20.029
 493	1	6	-0.128918	11.0008	-14.553	-21.1748
 494	1	6	-0.12014	10.4746	-16.4714	-20.4176
 495	1	6	-0.128671	11.8598	-15.1573	-19.3158
 496	1	5	0.329225	9.74917	-13.0892	-18.926
 497	1	6	-0.1084	10.6946	-12.8785	-17.9736
 498	1	6	-0.10772	8.63739	-12.4266	-18.5335
 499	1	6	-0.098105	10.166	-12.4105	-20.015
 500	1	1	-0.04356	8.14958	-14.8599	-19.98
 501	1	1	-0.061005	7.96426	-14.2716	-21.2567
 502	1	1	-0.036586	6.79834	-14.5454	-21.992
 503	1	1	-0.073054	7.11779	-15.7294	-19.4925
 504	1	1	-0.129461	5.95191	-15.9904	-20.2368
 505	1	1	-0.055433	5.82356	-15.3757	-21.4916
 506	1	3	0.497443	4.75996	-15.523	-22.5147
 507	1	4	-0.091283	5.16611	-14.7514	-23.613
 508	1	3	0.442461	6.39043	-14.1185	-23.3674
 509	1	1	0.056821	4.44447	-14.7526	-24.8693
 510	1	1	-0.175202	5.12261	-14.8269	-26.105
 511	1	1	-0.086463	4.41324	-14.9957	-27.3182
 512	1	1	-0.120823	3.02249	-14.7577	-24.8852
 513	1	1	-0.147764	2.25693	-14.9043	-26.0722
 514	1	1	-0.091348	3.00083	-15.0758	-27.2721
 515	1	3	0.723311	5.11832	-15.0819	-28.6629
 516	1	7	0.16273	5.17709	-16.6518	-19.8617
 517	1	7	0.144736	7.20285	-16.2442	-18.5459
 518	1	7	0.138526	8.71424	-13.6336	-21.6994
 519	1	2	-0.452878	7.0923	-13.4993	-24.148
 520	1	2	-0.478383	3.77454	-16.2308	-22.4105
 521	1	7	0.14723	1.57791	-15.7435	-25.9548
 522	1	7	0.161782	6.20467	-14.7835	-26.1345
 523	1	7	0.150279	2.49677	-14.6494	-23.9343
 524	1	7	0.142321	2.46411	-15.2429	-28.2054
 525	1	2	-0.564646	4.54415	-14.8869	-29.7202
 526	1	10	-0.344773	6.45151	-15.3752	-28.6174
 527	1	5	-0.038703	-86.5016	-123.524	16.2714
 528	1	11	0.090446	66.1839	-54.3802	-11.1603
 529	1	11	0.070639	137.367	-108.899	-8.2089
 530	1	9	0.018298	-86.9164	-122.812	16.9959
 531	1	9	0.032617	-86.2817	-122.964	15.3539
 532	1	5	0.364059	-85.2125	-124.154	16.8269
 533	1	11	-0.049335	-84.4658	-123.369	16.9949
 534	1	12	-0.72623	-84.7057	-125.112	15.9049
 535	1	11	0.033772	-85.433	-124.635	17.7879
 536	1	13	0.432586	-84.3691	-124.617	15.1339
 537	1	1	-0.024347	4.18043	-25.9899	-6.15122
 538	1	1	-0.071478	5.46347	-26.1918	-6.73016
 539	1	1	-0.180016	5.50877	-26.8339	-8.00494
 540	1	2	-0.370097	1.25753	-25.4237	-5.50602
 541	1	1	0.010306	3.04254	-26.1948	-6.92593
 542	1	1	-0.071748	4.32914	-27.0489	-8.77943
 543	1	2	-0.403598	1.4263	-26.7808	-9.93829
 544	1	1	0.055994	3.10447	-26.6604	-8.21581
 545	1	3	0.021521	1.65202	-25.7867	-6.60818
 546	1	4	0.466017	0.909313	-25.9972	-7.77885
 547	1	3	0.096621	1.72701	-26.5374	-8.78572
 548	1	1	-0.099438	10.0046	-25.2146	-8.14433
 549	1	5	-0.089685	6.7645	-25.7175	-5.99851
 550	1	1	-0.037281	7.77388	-25.2209	-7.06981
 551	1	1	-0.08188	9.13463	-25.6384	-7.12324
 552	1	1	-0.106561	9.48579	-24.3806	-9.13949
 553	1	1	-0.037628	7.31447	-24.3166	-8.05512
 554	1	1	-0.12234	8.1928	-23.9205	-9.0698
 555	1	5	0.388954	7.25919	-26.9272	-5.13517
 556	1	5	0.307788	6.53493	-24.4648	-5.07657
 557	1	6	-0.129718	6.24897	-27.4409	-4.37988
 558	1	6	-0.129089	8.27293	-26.5778	-4.31691
 559	1	6	-0.119089	7.70493	-27.9177	-5.93444
 560	1	6	-0.103894	5.80334	-23.5322	-5.74319
 561	1	6	-0.097852	7.69038	-23.8784	-4.66742
 562	1	6	-0.104555	5.90453	-24.7764	-3.92806
 563	1	3	0.521254	7.97835	-22.9999	-10.1924
 564	1	3	0.53569	10.1242	-23.8284	-10.3548
 565	1	4	0.027822	9.17794	-22.9568	-10.8959
 566	1	2	-0.468874	6.98147	-22.3067	-10.3341
 567	1	2	-0.477974	11.2751	-24.0084	-10.6811
 568	1	1	-0.359831	9.42983	-22.0365	-11.9665
 569	1	1	0.131035	10.1712	-20.8482	-11.7163
 570	1	1	-0.120983	10.1278	-19.8087	-12.6704
 571	1	1	0.127261	8.71414	-22.202	-13.1687
 572	1	1	-0.127195	8.60854	-21.1314	-14.0851
 573	1	1	0.144798	9.33041	-19.943	-13.8269
 574	1	5	-0.020676	7.98853	-23.5216	-13.4416
 575	1	5	-0.019785	10.9345	-20.6104	-10.4071
 576	1	7	0.164889	4.07062	-25.5761	-5.15232
 577	1	7	0.175264	6.47146	-27.123	-8.43216
 578	1	7	0.1582	4.37687	-27.4333	-9.78771
 579	1	7	0.150763	11.0358	-25.5577	-8.21209
 580	1	7	0.144868	9.55456	-26.3143	-6.38338
 581	1	7	0.134072	6.28173	-23.9823	-8.07243
 582	1	5	-0.300668	10.901	-18.5031	-12.3962
 583	1	5	-0.243237	7.63008	-21.2	-15.2771
 584	1	9	0.021835	6.96073	-23.4995	-13.058
 585	1	9	0.012312	8.51427	-24.3811	-13.0104
 586	1	9	0.041777	7.93057	-23.7289	-14.5133
 587	1	9	0.110598	8.05377	-21.769	-16.1138
 588	1	9	0.08293	6.70291	-21.6903	-14.9798
 589	1	9	0.082252	7.32466	-20.2109	-15.6692
 590	1	9	0.027698	10.5601	-19.6948	-9.92207
 591	1	9	0.017051	12.0068	-20.4706	-10.5971
 592	1	9	0.037874	10.8486	-21.4042	-9.66366
 593	1	9	0.095908	11.861	-18.6872	-11.9048
 594	1	9	0.127068	11.1532	-17.9485	-13.3065
 595	1	9	0.099095	10.3195	-17.8451	-11.7364
 596	1	4	0.478781	-4.84045	-36.3374	-11.7887
 597	1	3	0.051808	-4.71475	-36.608	-10.4188
 598	1	1	-0.015342	-5.36476	-35.47	-9.72163
 599	1	3	0.052802	-5.50352	-35.1427	-12.0313
 600	1	1	0.058525	-5.83216	-34.6187	-10.6798
 601	1	2	-0.381395	-4.07393	-37.4937	-9.87969
 602	1	2	-0.387279	-5.66235	-34.5458	-13.0824
 603	1	1	-0.003007	-5.45795	-35.1656	-8.3479
 604	1	1	-0.04277	-6.50098	-33.4522	-10.3165
 605	1	1	-0.203298	-6.7308	-33.1792	-8.95479
 606	1	1	-0.057014	-6.15575	-33.9861	-7.94292
 607	1	7	0.158736	-5.00916	-35.8624	-7.63321
 608	1	7	0.155574	-6.86917	-32.7884	-11.0937
 609	1	7	0.172835	-7.27328	-32.2693	-8.69459
 610	1	5	-0.114348	-6.22933	-33.4663	-6.48897
 611	1	5	0.394993	-7.68152	-33.7882	-5.96792
 612	1	6	-0.128918	-8.02438	-35.085	-6.19696
 613	1	6	-0.12014	-8.59444	-33.0376	-6.59624
 614	1	6	-0.128671	-7.80767	-33.5818	-4.64263
 615	1	5	0.329225	-5.15509	-34.1252	-5.53627
 616	1	6	-0.1084	-5.10527	-33.5524	-4.31285
 617	1	6	-0.10772	-3.90198	-33.9775	-6.01947